/*--------------------------------*- C++ -*----------------------------------*\
| =========                 |                                                 |
| \\      /  F ield         | OpenFOAM: The Open Source CFD Toolbox           |
|  \\    /   O peration     | Version:  2.3.0                                 |
|   \\  /    A nd           | Web:      www.OpenFOAM.org                      |
|    \\/     M anipulation  |                                                 |
\*---------------------------------------------------------------------------*/
FoamFile
{
    version     2.0;
    format      ascii;
    class       volScalarField;
    location    "0.8";
    object      p;
}
// * * * * * * * * * * * * * * * * * * * * * * * * * * * * * * * * * * * * * //

dimensions      [0 2 -2 0 0 0 0];

internalField   nonuniform List<scalar> 
2945
(
0.00221799
0.00127817
0.000581844
0.00011381
-0.000206712
-0.000409069
-0.000514103
-0.000551556
-0.000551025
-0.000533631
-0.000511112
-0.000488631
-0.000467811
-0.000448773
-0.00043118
-0.000414669
-0.000398973
-0.000383923
-0.000369417
-0.000355397
-0.000341828
-0.000328687
-0.000315957
-0.000303624
-0.000291679
-0.000280112
-0.000268917
-0.000258087
-0.000247617
-0.000237501
-0.000227735
-0.000218312
-0.000209229
-0.00020048
-0.000192059
-0.000183959
-0.000176176
-0.000168701
-0.000161528
-0.00015465
-0.000148058
-0.000141744
-0.0001357
-0.000129917
-0.000124386
-0.000119098
-0.000114042
-0.000109209
-0.000104589
-0.000100171
-9.59437e-05
-9.18968e-05
-8.80184e-05
-8.42966e-05
-8.07188e-05
-7.72723e-05
-7.39435e-05
-7.07181e-05
-6.75814e-05
-6.45174e-05
-6.15094e-05
-5.85394e-05
-5.55883e-05
-5.26354e-05
-4.96585e-05
-4.66333e-05
-4.35335e-05
-4.03302e-05
-3.69918e-05
-3.34828e-05
-2.97633e-05
-2.57773e-05
-2.15761e-05
-1.59518e-05
-1.7553e-05
0.00204125
0.00125346
0.000608317
0.000153478
-0.00016561
-0.000371627
-0.000482416
-0.000525868
-0.000530668
-0.000517617
-0.000498439
-0.00047844
-0.000459442
-0.000441752
-0.000425178
-0.000409457
-0.000394391
-0.000379852
-0.000365771
-0.000352108
-0.000338845
-0.000325966
-0.000313464
-0.000301331
-0.000289562
-0.000278152
-0.000267097
-0.000256393
-0.000246036
-0.000236022
-0.000226349
-0.000217011
-0.000208005
-0.000199327
-0.000190971
-0.000182932
-0.000175204
-0.000167781
-0.000160655
-0.000153821
-0.00014727
-0.000140995
-0.000134987
-0.000129237
-0.000123737
-0.000118478
-0.00011345
-0.000108643
-0.000104047
-9.96512e-05
-9.54458e-05
-9.14193e-05
-8.75601e-05
-8.38565e-05
-8.0296e-05
-7.68658e-05
-7.35525e-05
-7.03419e-05
-6.72191e-05
-6.41684e-05
-6.11731e-05
-5.82151e-05
-5.52755e-05
-5.23335e-05
-4.93668e-05
-4.63514e-05
-4.32608e-05
-4.00663e-05
-3.67361e-05
-3.32345e-05
-2.95217e-05
-2.55405e-05
-2.13488e-05
-1.56387e-05
-1.73546e-05
0.0018664
0.00121125
0.000625452
0.000193545
-0.000117196
-0.000324941
-0.000443462
-0.000496243
-0.000509209
-0.000502194
-0.000487048
-0.000469617
-0.000452264
-0.000435684
-0.000419917
-0.000404826
-0.000390275
-0.000376169
-0.000362458
-0.000349114
-0.000336126
-0.000323486
-0.000311193
-0.000299244
-0.000287636
-0.00027637
-0.000265443
-0.000254853
-0.000244599
-0.000234679
-0.000225091
-0.00021583
-0.000206895
-0.000198282
-0.000189985
-0.000182
-0.000174323
-0.000166946
-0.000159865
-0.00015307
-0.000146557
-0.000140316
-0.000134341
-0.000128622
-0.00012315
-0.000117918
-0.000112915
-0.000108131
-0.000103558
-9.91833e-05
-9.49977e-05
-9.09899e-05
-8.71484e-05
-8.34616e-05
-7.9917e-05
-7.6502e-05
-7.32031e-05
-7.00061e-05
-6.68964e-05
-6.38582e-05
-6.08747e-05
-5.79281e-05
-5.49993e-05
-5.20677e-05
-4.9111e-05
-4.61051e-05
-4.30236e-05
-3.98378e-05
-3.65159e-05
-3.30223e-05
-2.93171e-05
-2.53446e-05
-2.11508e-05
-1.5452e-05
-1.77124e-05
0.00171124
0.00116295
0.000636892
0.000233037
-6.43168e-05
-0.000270016
-0.000394578
-0.000456778
-0.000479031
-0.000479593
-0.000470046
-0.000456552
-0.000441933
-0.000427276
-0.000412902
-0.000398855
-0.000385112
-0.000371649
-0.000358459
-0.000345547
-0.00033292
-0.000320587
-0.000308557
-0.000296835
-0.000285427
-0.000274336
-0.000263563
-0.000253112
-0.000242981
-0.000233172
-0.000223684
-0.000214515
-0.000205662
-0.000197124
-0.000188897
-0.000180976
-0.000173357
-0.000166034
-0.000159002
-0.000152254
-0.000145784
-0.000139583
-0.000133645
-0.00012796
-0.000122521
-0.000117319
-0.000112344
-0.000107587
-0.000103038
-9.86876e-05
-9.45242e-05
-9.05373e-05
-8.67156e-05
-8.30474e-05
-7.95206e-05
-7.61224e-05
-7.28394e-05
-6.96577e-05
-6.65626e-05
-6.35382e-05
-6.0568e-05
-5.76341e-05
-5.47175e-05
-5.17976e-05
-4.88523e-05
-4.58573e-05
-4.27864e-05
-3.96109e-05
-3.6299e-05
-3.28155e-05
-2.91205e-05
-2.51626e-05
-2.09663e-05
-1.54179e-05
-1.85678e-05
0.00156613
0.00110817
0.00064182
0.000268663
-1.27948e-05
-0.000213615
-0.000341818
-0.000412063
-0.000443214
-0.000451615
-0.000448244
-0.000439348
-0.00042808
-0.000415878
-0.000403343
-0.000390711
-0.000378084
-0.000365523
-0.000353073
-0.000340774
-0.000328662
-0.000316765
-0.000305107
-0.000293704
-0.000282573
-0.000271723
-0.000261162
-0.000250898
-0.000240934
-0.000231274
-0.000221919
-0.000212871
-0.000204128
-0.000195689
-0.000187552
-0.000179714
-0.000172171
-0.000164918
-0.000157951
-0.000151262
-0.000144847
-0.000138697
-0.000132806
-0.000127166
-0.000121768
-0.000116604
-0.000111665
-0.000106942
-0.000102424
-9.8103e-05
-9.39672e-05
-9.00064e-05
-8.62093e-05
-8.25643e-05
-7.90594e-05
-7.56819e-05
-7.24187e-05
-6.92558e-05
-6.61785e-05
-6.31712e-05
-6.02173e-05
-5.72992e-05
-5.43977e-05
-5.14924e-05
-4.85611e-05
-4.55799e-05
-4.25225e-05
-3.93602e-05
-3.60616e-05
-3.25918e-05
-2.89119e-05
-2.49767e-05
-2.07985e-05
-1.55585e-05
-1.98306e-05
0.00143324
0.00105049
0.00064052
0.000298365
3.36622e-05
-0.000160488
-0.000290147
-0.000366639
-0.000405552
-0.000421234
-0.000423871
-0.000419623
-0.000411861
-0.000402304
-0.000391797
-0.00038076
-0.000369416
-0.000357907
-0.000346333
-0.000334772
-0.000323287
-0.000311927
-0.00030073
-0.00028973
-0.000278948
-0.000268405
-0.000258116
-0.000248093
-0.000238343
-0.000228875
-0.000219693
-0.0002108
-0.000202199
-0.000193888
-0.000185869
-0.000178138
-0.000170693
-0.000163531
-0.000156646
-0.000150034
-0.00014369
-0.000137606
-0.000131776
-0.000126192
-0.000120847
-0.000115732
-0.000110839
-0.000106158
-0.00010168
-9.73964e-05
-9.32958e-05
-8.93678e-05
-8.56017e-05
-8.19859e-05
-7.85085e-05
-7.51571e-05
-7.19186e-05
-6.87791e-05
-6.57241e-05
-6.27381e-05
-5.98046e-05
-5.69061e-05
-5.40235e-05
-5.11366e-05
-4.82232e-05
-4.52594e-05
-4.22192e-05
-3.90741e-05
-3.5793e-05
-3.23419e-05
-2.86841e-05
-2.47831e-05
-2.0661e-05
-1.58761e-05
-2.13415e-05
0.00131379
0.000992202
0.000633479
0.000321653
7.40044e-05
-0.000112273
-0.000241565
-0.000322537
-0.000367882
-0.000390005
-0.000398201
-0.000398417
-0.000394125
-0.000387254
-0.000378849
-0.000369486
-0.000359505
-0.000349123
-0.000338496
-0.000327739
-0.000316943
-0.000306178
-0.0002955
-0.000284952
-0.00027457
-0.000264381
-0.000254407
-0.000244665
-0.000235169
-0.000225929
-0.000216953
-0.000208248
-0.000199818
-0.000191664
-0.000183787
-0.000176188
-0.000168864
-0.000161814
-0.000155032
-0.000148516
-0.00014226
-0.000136258
-0.000130504
-0.000124991
-0.000119712
-0.000114658
-0.000109823
-0.000105196
-0.000100768
-9.65313e-05
-9.24747e-05
-8.85881e-05
-8.48607e-05
-8.12815e-05
-7.78387e-05
-7.45198e-05
-7.13122e-05
-6.8202e-05
-6.51749e-05
-6.22155e-05
-5.93076e-05
-5.64336e-05
-5.35747e-05
-5.07108e-05
-4.78198e-05
-4.48782e-05
-4.18599e-05
-3.8737e-05
-3.54789e-05
-3.20529e-05
-2.8426e-05
-2.45742e-05
-2.05543e-05
-1.63281e-05
-2.28487e-05
0.00120681
0.000934502
0.000621441
0.000338838
0.000108293
-6.93136e-05
-0.000196803
-0.000280703
-0.000331206
-0.000358884
-0.0003721
-0.00037649
-0.000375539
-0.000371308
-0.000365003
-0.000357333
-0.00034874
-0.000339514
-0.000329863
-0.000319939
-0.00030986
-0.000299719
-0.000289586
-0.000279519
-0.000269562
-0.000259753
-0.000250118
-0.000240682
-0.000231462
-0.000222474
-0.000213727
-0.000205232
-0.000196993
-0.000189016
-0.000181303
-0.000173854
-0.00016667
-0.000159749
-0.000153088
-0.000146683
-0.000140531
-0.000134626
-0.000128963
-0.000123534
-0.000118334
-0.000113354
-0.000108588
-0.000104025
-9.96586e-05
-9.54785e-05
-9.14753e-05
-8.76389e-05
-8.39589e-05
-8.04242e-05
-7.70234e-05
-7.37444e-05
-7.05744e-05
-6.75001e-05
-6.45071e-05
-6.15803e-05
-5.87037e-05
-5.58598e-05
-5.30302e-05
-5.01946e-05
-4.73315e-05
-4.44174e-05
-4.14267e-05
-3.83317e-05
-3.51029e-05
-3.17095e-05
-2.81237e-05
-2.4338e-05
-2.04624e-05
-1.68317e-05
-2.40568e-05
0.00111095
0.000878388
0.000605457
0.000350569
0.000136945
-3.14903e-05
-0.000156066
-0.000241566
-0.000296058
-0.000328428
-0.000346098
-0.000354326
-0.000356532
-0.000354852
-0.000350607
-0.000344616
-0.000337409
-0.000329345
-0.000320677
-0.000311596
-0.000302247
-0.00029274
-0.000283164
-0.000273589
-0.000264071
-0.000254652
-0.00024537
-0.000236252
-0.000227321
-0.000218596
-0.000210091
-0.000201818
-0.000193784
-0.000185996
-0.000178458
-0.000171173
-0.00016414
-0.00015736
-0.000150831
-0.00014455
-0.000138514
-0.000132717
-0.000127155
-0.000121822
-0.000116711
-0.000111815
-0.000107127
-0.000102639
-9.8342e-05
-9.42275e-05
-9.0286e-05
-8.65079e-05
-8.28829e-05
-7.94002e-05
-7.60485e-05
-7.28161e-05
-6.96904e-05
-6.66582e-05
-6.37054e-05
-6.08172e-05
-5.79777e-05
-5.51696e-05
-5.23747e-05
-4.95731e-05
-4.67435e-05
-4.38625e-05
-4.09051e-05
-3.78444e-05
-3.46517e-05
-3.12989e-05
-2.77646e-05
-2.40607e-05
-2.03573e-05
-1.72833e-05
-2.4697e-05
0.0010249
0.000824579
0.000586538
0.000357526
0.000160441
1.47732e-06
-0.000119314
-0.000205278
-0.000262699
-0.000298941
-0.000320498
-0.000332206
-0.000337359
-0.000338114
-0.000335868
-0.000331527
-0.000325693
-0.000318785
-0.000311101
-0.000302866
-0.000294249
-0.000285381
-0.000276368
-0.000267291
-0.000258215
-0.000249194
-0.00024027
-0.000231476
-0.000222841
-0.000214386
-0.000206129
-0.000198084
-0.000190262
-0.00018267
-0.000175315
-0.0001682
-0.000161326
-0.000154695
-0.000148306
-0.000142155
-0.000136242
-0.000130561
-0.000125108
-0.000119877
-0.000114863
-0.000110058
-0.000105456
-0.000101049
-9.68282e-05
-9.2786e-05
-8.89128e-05
-8.51993e-05
-8.16354e-05
-7.82107e-05
-7.4914e-05
-7.17339e-05
-6.8658e-05
-6.56733e-05
-6.27661e-05
-5.99217e-05
-5.71243e-05
-5.43571e-05
-5.16021e-05
-4.88396e-05
-4.60486e-05
-4.32062e-05
-4.02879e-05
-3.72673e-05
-3.41174e-05
-3.08128e-05
-2.73395e-05
-2.37292e-05
-2.02054e-05
-1.75822e-05
-2.45916e-05
0.000947396
0.00077347
0.000565537
0.000360363
0.000179268
2.99256e-05
-8.64039e-05
-0.000171867
-0.000231261
-0.000270601
-0.00029549
-0.00031031
-0.000318182
-0.000321238
-0.000320915
-0.000318181
-0.000313699
-0.000307936
-0.000301231
-0.00029384
-0.000285956
-0.00027773
-0.000269282
-0.000260706
-0.000252078
-0.000243458
-0.000234895
-0.00022643
-0.000218094
-0.000209913
-0.000201909
-0.000194097
-0.00018649
-0.000179099
-0.000171931
-0.00016499
-0.00015828
-0.000151802
-0.000145557
-0.000139543
-0.000133757
-0.000128196
-0.000122857
-0.000117733
-0.00011282
-0.000108112
-0.0001036
-9.92788e-05
-9.51396e-05
-9.11743e-05
-8.73741e-05
-8.37297e-05
-8.02315e-05
-7.68691e-05
-7.36319e-05
-7.05083e-05
-6.74865e-05
-6.45536e-05
-6.16961e-05
-5.88995e-05
-5.61485e-05
-5.34264e-05
-5.07155e-05
-4.79965e-05
-4.52486e-05
-4.24495e-05
-3.95752e-05
-3.66002e-05
-3.34991e-05
-3.02495e-05
-2.68445e-05
-2.33335e-05
-1.99758e-05
-1.76534e-05
-2.36951e-05
0.000877327
0.000725216
0.000543158
0.000359704
0.000193905
5.42035e-05
-5.71506e-05
-0.000141303
-0.000201819
-0.000243534
-0.000271213
-0.000288771
-0.000299118
-0.000304324
-0.000305833
-0.000304653
-0.000301492
-0.000296857
-0.000291122
-0.000284571
-0.000277419
-0.000269836
-0.000261956
-0.000253884
-0.000245706
-0.000237491
-0.000229294
-0.000221161
-0.000213128
-0.000205225
-0.000197476
-0.000189901
-0.000182514
-0.000175327
-0.000168349
-0.000161586
-0.000155044
-0.000148723
-0.000142625
-0.00013675
-0.000131095
-0.000125659
-0.000120437
-0.000115424
-0.000110616
-0.000106006
-0.000101589
-9.7357e-05
-9.33024e-05
-8.94173e-05
-8.56933e-05
-8.21214e-05
-7.8692e-05
-7.53952e-05
-7.22205e-05
-6.91567e-05
-6.61921e-05
-6.3314e-05
-6.05094e-05
-5.77639e-05
-5.50625e-05
-5.23888e-05
-4.97253e-05
-4.70533e-05
-4.43522e-05
-4.16004e-05
-3.87742e-05
-3.58495e-05
-3.28021e-05
-2.96128e-05
-2.6281e-05
-2.28685e-05
-1.96474e-05
-1.74615e-05
-2.20966e-05
0.000813699
0.000679821
0.000519968
0.000356126
0.000204813
7.46542e-05
-3.13517e-05
-0.000113523
-0.000174411
-0.000217831
-0.000247778
-0.000267697
-0.000280264
-0.000287453
-0.00029069
-0.000290999
-0.000289118
-0.000285586
-0.000280808
-0.000275089
-0.000268667
-0.000261726
-0.000254414
-0.000246849
-0.000239125
-0.000231318
-0.000223491
-0.000215694
-0.000207969
-0.000200348
-0.000192859
-0.000185524
-0.000178361
-0.000171382
-0.000164598
-0.000158017
-0.000151645
-0.000145485
-0.000139539
-0.000133806
-0.000128286
-0.000122976
-0.000117874
-0.000112976
-0.000108275
-0.000103768
-9.94478e-05
-9.53075e-05
-9.13403e-05
-8.75381e-05
-8.3893e-05
-8.0396e-05
-7.70381e-05
-7.38094e-05
-7.06997e-05
-6.76981e-05
-6.4793e-05
-6.19723e-05
-5.9223e-05
-5.6531e-05
-5.38817e-05
-5.1259e-05
-4.86457e-05
-4.60235e-05
-4.33723e-05
-4.06708e-05
-3.78964e-05
-3.50256e-05
-3.2036e-05
-2.8911e-05
-2.56546e-05
-2.23344e-05
-1.92121e-05
-1.7013e-05
-1.99866e-05
0.000755658
0.000637188
0.000496403
0.000350149
0.000212425
9.16099e-05
-8.79639e-06
-8.84426e-05
-0.000149048
-0.000193562
-0.000225277
-0.000247185
-0.000261708
-0.0002707
-0.000275546
-0.000277266
-0.000276615
-0.000274156
-0.000270315
-0.000265417
-0.000259717
-0.000253415
-0.000246672
-0.000239615
-0.000232347
-0.000224952
-0.000217498
-0.000210042
-0.000202628
-0.000195294
-0.00018807
-0.00018098
-0.000174044
-0.000167278
-0.000160693
-0.000154298
-0.000148101
-0.000142105
-0.000136313
-0.000130727
-0.000125345
-0.000120166
-0.000115188
-0.000110406
-0.000105817
-0.000101415
-9.7194e-05
-9.31485e-05
-8.92712e-05
-8.55546e-05
-8.19907e-05
-7.85712e-05
-7.5287e-05
-7.21287e-05
-6.90862e-05
-6.61489e-05
-6.33057e-05
-6.05445e-05
-5.78525e-05
-5.52163e-05
-5.26213e-05
-5.00518e-05
-4.7491e-05
-4.4921e-05
-4.23223e-05
-3.9674e-05
-3.69543e-05
-3.41407e-05
-3.1212e-05
-2.81539e-05
-2.49731e-05
-2.17362e-05
-1.86741e-05
-1.63465e-05
-1.76023e-05
0.000702477
0.00059716
0.000472787
0.000342229
0.000217149
0.00010539
1.07295e-05
-6.59604e-05
-0.000125723
-0.000170776
-0.000203789
-0.000227319
-0.000243528
-0.000254134
-0.000260457
-0.0002635
-0.000264021
-0.000262595
-0.000259664
-0.00025557
-0.000250583
-0.000244915
-0.000238738
-0.000232189
-0.000225378
-0.000218398
-0.000211321
-0.000204209
-0.000197112
-0.000190069
-0.000183114
-0.000176274
-0.000169571
-0.000163021
-0.00015664
-0.000150436
-0.000144418
-0.000138591
-0.000132958
-0.000127522
-0.000122282
-0.000117237
-0.000112386
-0.000107725
-0.00010325
-9.89565e-05
-9.48389e-05
-9.08911e-05
-8.71067e-05
-8.34783e-05
-7.99985e-05
-7.66589e-05
-7.34509e-05
-7.03653e-05
-6.73924e-05
-6.45218e-05
-6.17425e-05
-5.90429e-05
-5.64105e-05
-5.38321e-05
-5.12935e-05
-4.87795e-05
-4.62735e-05
-4.37581e-05
-4.12142e-05
-3.86218e-05
-3.59595e-05
-3.32057e-05
-3.03408e-05
-2.73515e-05
-2.42451e-05
-2.10815e-05
-1.80469e-05
-1.55189e-05
-1.51726e-05
0.000653533
0.000559553
0.000449352
0.000332756
0.00021936
0.000116301
2.74407e-05
-4.59619e-05
-0.000104408
-0.000149506
-0.000183377
-0.000208175
-0.0002258
-0.000237821
-0.000245481
-0.000249747
-0.000251371
-0.00025093
-0.000248877
-0.000245566
-0.000241278
-0.000236235
-0.000230619
-0.000224575
-0.000218223
-0.000211658
-0.000204961
-0.000198197
-0.00019142
-0.000184672
-0.000177991
-0.000171406
-0.00016494
-0.000158613
-0.00015244
-0.000146431
-0.000140597
-0.000134944
-0.000129475
-0.000124193
-0.0001191
-0.000114194
-0.000109474
-0.000104938
-0.000100581
-9.63992e-05
-9.2388e-05
-8.85413e-05
-8.48529e-05
-8.13159e-05
-7.7923e-05
-7.46662e-05
-7.15371e-05
-6.85269e-05
-6.56261e-05
-6.28245e-05
-6.01116e-05
-5.7476e-05
-5.49055e-05
-5.23873e-05
-4.99074e-05
-4.7451e-05
-4.50022e-05
-4.25438e-05
-4.00573e-05
-3.75232e-05
-3.4921e-05
-3.22299e-05
-2.9431e-05
-2.6512e-05
-2.34785e-05
-2.03791e-05
-1.73488e-05
-1.45911e-05
-1.28788e-05
0.000608295
0.00052417
0.000426259
0.000322062
0.000219401
0.000124632
4.15493e-05
-2.83229e-05
-8.50594e-05
-0.000129766
-0.000164092
-0.000189817
-0.000208592
-0.000221825
-0.000230671
-0.000236053
-0.000238702
-0.000239192
-0.000237979
-0.000235423
-0.000231814
-0.000227384
-0.000222322
-0.000216779
-0.000210883
-0.000204735
-0.000198419
-0.000192005
-0.000185551
-0.000179103
-0.000172701
-0.000166375
-0.000160152
-0.000154052
-0.000148091
-0.000142284
-0.000136639
-0.000131164
-0.000125863
-0.000120741
-0.000115799
-0.000111036
-0.000106452
-0.000102044
-9.78095e-05
-9.3744e-05
-8.9843e-05
-8.6101e-05
-8.25122e-05
-7.90699e-05
-7.57672e-05
-7.25963e-05
-6.95492e-05
-6.66173e-05
-6.37913e-05
-6.10616e-05
-5.84177e-05
-5.58486e-05
-5.33426e-05
-5.08869e-05
-4.84683e-05
-4.60722e-05
-4.3683e-05
-4.12841e-05
-3.88577e-05
-3.63847e-05
-3.38452e-05
-3.12194e-05
-2.8489e-05
-2.56416e-05
-2.26798e-05
-1.9638e-05
-1.6599e-05
-1.36178e-05
-1.08375e-05
0.00056631
0.000490818
0.000403611
0.000310421
0.000217579
0.000130654
5.32626e-05
-1.29131e-05
-6.76206e-05
-0.000111558
-0.00014597
-0.000172302
-0.000191963
-0.000206204
-0.000216082
-0.000222464
-0.000226052
-0.000227411
-0.000226991
-0.000225159
-0.000222207
-0.000218373
-0.000213854
-0.000208806
-0.000203362
-0.000197628
-0.000191694
-0.000185633
-0.000179505
-0.00017336
-0.00016724
-0.000161178
-0.000155202
-0.000149334
-0.000143592
-0.00013799
-0.000132539
-0.000127247
-0.000122121
-0.000117163
-0.000112377
-0.000107762
-0.000103318
-9.90435e-05
-9.49353e-05
-9.099e-05
-8.72032e-05
-8.35699e-05
-8.00844e-05
-7.67405e-05
-7.35314e-05
-7.04498e-05
-6.7488e-05
-6.46375e-05
-6.18895e-05
-5.92345e-05
-5.66626e-05
-5.41629e-05
-5.1724e-05
-4.93338e-05
-4.69791e-05
-4.46459e-05
-4.23192e-05
-3.99827e-05
-3.7619e-05
-3.521e-05
-3.27362e-05
-3.01785e-05
-2.75189e-05
-2.47446e-05
-2.18541e-05
-1.88659e-05
-1.58154e-05
-1.26424e-05
-9.10132e-06
0.000527186
0.000459307
0.00038147
0.000298056
0.000214168
0.000134621
6.27813e-05
4.02139e-07
-5.20237e-05
-9.48681e-05
-0.000129034
-0.000155673
-0.000175967
-0.000191012
-0.000201762
-0.000209022
-0.000213458
-0.000215616
-0.00021594
-0.000214793
-0.00021247
-0.000209214
-0.000205223
-0.000200661
-0.000195663
-0.000190341
-0.000184787
-0.000179079
-0.000173279
-0.00016744
-0.000161605
-0.000155811
-0.000150087
-0.000144456
-0.000138937
-0.000133546
-0.000128294
-0.000123192
-0.000118244
-0.000113456
-0.00010883
-0.000104368
-0.00010007
-9.59328e-05
-9.19557e-05
-8.8135e-05
-8.44667e-05
-8.09462e-05
-7.7568e-05
-7.43263e-05
-7.12146e-05
-6.8226e-05
-6.53528e-05
-6.25871e-05
-5.99204e-05
-5.73434e-05
-5.48464e-05
-5.24192e-05
-5.00505e-05
-4.77286e-05
-4.54409e-05
-4.31736e-05
-4.09122e-05
-3.86409e-05
-3.63432e-05
-3.40011e-05
-3.1596e-05
-2.91093e-05
-2.65233e-05
-2.3824e-05
-2.10051e-05
-1.807e-05
-1.50134e-05
-1.16954e-05
-7.67289e-06
0.000490587
0.000429463
0.000359865
0.000285148
0.000209406
0.000136764
7.02978e-05
1.17587e-05
-3.81919e-05
-7.96701e-05
-0.000113297
-0.000139965
-0.000160651
-0.000176299
-0.00018776
-0.000195771
-0.000200957
-0.000203839
-0.00020485
-0.000204345
-0.000202619
-0.000199916
-0.000196437
-0.000192349
-0.00018779
-0.000182875
-0.000177699
-0.000172343
-0.000166872
-0.000161341
-0.000155795
-0.000150273
-0.000144804
-0.000139414
-0.000134124
-0.000128949
-0.000123902
-0.000118993
-0.000114229
-0.000109616
-0.000105156
-0.000100852
-9.67031e-05
-9.27091e-05
-8.88677e-05
-8.51762e-05
-8.16309e-05
-7.82274e-05
-7.49607e-05
-7.18253e-05
-6.88149e-05
-6.59229e-05
-6.31421e-05
-6.04648e-05
-5.78827e-05
-5.5387e-05
-5.29684e-05
-5.06168e-05
-4.83215e-05
-4.60711e-05
-4.38534e-05
-4.16551e-05
-3.94621e-05
-3.72594e-05
-3.50306e-05
-3.27587e-05
-3.04256e-05
-2.8013e-05
-2.55034e-05
-2.28814e-05
-2.01358e-05
-1.72561e-05
-1.4205e-05
-1.07957e-05
-6.52272e-06
0.000456219
0.000401122
0.000338806
0.000271839
0.0002035
0.000137297
7.59944e-05
2.1292e-05
-2.6042e-05
-6.59284e-05
-9.87583e-05
-0.000125202
-0.000146051
-0.000162107
-0.000174117
-0.00018275
-0.000188583
-0.00019211
-0.000193745
-0.000193835
-0.00019267
-0.000190494
-0.000187507
-0.000183878
-0.000179747
-0.000175232
-0.000170431
-0.000165425
-0.000160283
-0.000155061
-0.000149807
-0.000144559
-0.00013935
-0.000134206
-0.000129148
-0.000124194
-0.000119356
-0.000114646
-0.000110072
-0.000105639
-0.00010135
-9.7209e-05
-9.32154e-05
-8.93689e-05
-8.56682e-05
-8.21105e-05
-7.86927e-05
-7.54107e-05
-7.22599e-05
-6.92348e-05
-6.63298e-05
-6.35384e-05
-6.08538e-05
-5.82685e-05
-5.57747e-05
-5.33639e-05
-5.1027e-05
-4.87545e-05
-4.65359e-05
-4.43603e-05
-4.22158e-05
-4.00898e-05
-3.79686e-05
-3.58376e-05
-3.36813e-05
-3.14829e-05
-2.92251e-05
-2.689e-05
-2.44599e-05
-2.19181e-05
-1.92485e-05
-1.6429e-05
-1.33995e-05
-9.95279e-06
-5.60587e-06
0.000423824
0.000374131
0.000318282
0.00025824
0.000196628
0.00013641
8.00433e-05
2.91363e-05
-1.54849e-05
-5.35971e-05
-8.54072e-05
-0.000111398
-0.000132197
-0.000148472
-0.000160874
-0.000169997
-0.000176372
-0.000180459
-0.000182651
-0.000183285
-0.000182641
-0.00018096
-0.000178442
-0.000175255
-0.00017154
-0.000167416
-0.000162984
-0.000158326
-0.000153511
-0.000148599
-0.000143638
-0.000138668
-0.000133722
-0.000128827
-0.000124007
-0.000119278
-0.000114655
-0.000110149
-0.000105769
-0.000101521
-9.74093e-05
-9.34361e-05
-8.96026e-05
-8.59089e-05
-8.23536e-05
-7.89347e-05
-7.56491e-05
-7.24932e-05
-6.94626e-05
-6.65523e-05
-6.37568e-05
-6.10701e-05
-5.84856e-05
-5.59962e-05
-5.35944e-05
-5.12721e-05
-4.90206e-05
-4.68305e-05
-4.46921e-05
-4.25948e-05
-4.0527e-05
-3.84767e-05
-3.64307e-05
-3.43749e-05
-3.22944e-05
-3.01732e-05
-2.79943e-05
-2.57401e-05
-2.3393e-05
-2.09347e-05
-1.8345e-05
-1.55927e-05
-1.26033e-05
-9.16913e-06
-4.87424e-06
0.000393177
0.000348353
0.000298274
0.000244437
0.000188939
0.000134273
8.26015e-05
3.54185e-05
-6.43179e-06
-4.26251e-05
-7.32244e-05
-9.85576e-05
-0.000119107
-0.000135423
-0.000148059
-0.000157541
-0.00016435
-0.000168909
-0.000171589
-0.000172709
-0.000172543
-0.000171324
-0.000169248
-0.000166483
-0.00016317
-0.000159428
-0.000155358
-0.000151043
-0.000146555
-0.000141952
-0.000137285
-0.000132595
-0.000127915
-0.000123274
-0.000118695
-0.000114197
-0.000109793
-0.000105497
-0.000101317
-9.72593e-05
-9.33292e-05
-8.95294e-05
-8.58614e-05
-8.23255e-05
-7.89208e-05
-7.56455e-05
-7.2497e-05
-6.94719e-05
-6.65661e-05
-6.3775e-05
-6.10934e-05
-5.85155e-05
-5.60352e-05
-5.36458e-05
-5.13399e-05
-4.91098e-05
-4.69473e-05
-4.48435e-05
-4.27889e-05
-4.07732e-05
-3.87857e-05
-3.68146e-05
-3.48474e-05
-3.28705e-05
-3.08695e-05
-2.8829e-05
-2.67326e-05
-2.45632e-05
-2.23028e-05
-1.9932e-05
-1.74272e-05
-1.47505e-05
-1.18206e-05
-8.4429e-06
-4.28398e-06
0.000364077
0.000323663
0.000278757
0.000230501
0.000180566
0.000131045
8.38234e-05
4.0267e-05
1.20951e-06
-3.29588e-05
-6.21909e-05
-8.66881e-05
-0.00010681
-0.000122997
-0.000135717
-0.000145429
-0.000152561
-0.000157501
-0.000160594
-0.000162141
-0.000162404
-0.000161608
-0.000159945
-0.000157579
-0.00015465
-0.000151277
-0.000147559
-0.000143581
-0.000139416
-0.000135121
-0.000130748
-0.000126339
-0.000121928
-0.000117544
-0.00011321
-0.000108946
-0.000104767
-0.000100685
-9.67101e-05
-9.28484e-05
-8.91054e-05
-8.54844e-05
-8.19872e-05
-7.86144e-05
-7.53655e-05
-7.22389e-05
-6.92324e-05
-6.63429e-05
-6.35667e-05
-6.08993e-05
-5.8336e-05
-5.58714e-05
-5.34995e-05
-5.12141e-05
-4.90081e-05
-4.68743e-05
-4.48047e-05
-4.27908e-05
-4.08237e-05
-3.88936e-05
-3.699e-05
-3.51018e-05
-3.3217e-05
-3.13227e-05
-2.94049e-05
-2.74491e-05
-2.54392e-05
-2.33585e-05
-2.11889e-05
-1.89101e-05
-1.64959e-05
-1.39046e-05
-1.10534e-05
-7.76921e-06
-3.79789e-06
0.000336325
0.000299917
0.000259669
0.000216451
0.000171596
0.000126851
8.38488e-05
4.38201e-05
7.56441e-06
-2.44914e-05
-5.22203e-05
-7.57221e-05
-9.52517e-05
-0.000111155
-0.000123819
-0.000133638
-0.000140988
-0.000146222
-0.000149655
-0.000151571
-0.000152215
-0.000151804
-0.000150524
-0.000148535
-0.000145973
-0.000142956
-0.000139582
-0.000135936
-0.000132089
-0.000128102
-0.000124023
-0.000119897
-0.000115757
-0.000111634
-0.000107549
-0.000103525
-9.9575e-05
-9.57127e-05
-9.19477e-05
-8.82873e-05
-8.47369e-05
-8.13002e-05
-7.79792e-05
-7.47749e-05
-7.1687e-05
-6.87144e-05
-6.5855e-05
-6.3106e-05
-6.04641e-05
-5.79251e-05
-5.54847e-05
-5.31377e-05
-5.08786e-05
-4.87013e-05
-4.65993e-05
-4.45656e-05
-4.25928e-05
-4.06728e-05
-3.8797e-05
-3.69561e-05
-3.51402e-05
-3.33386e-05
-3.154e-05
-2.97321e-05
-2.79015e-05
-2.60342e-05
-2.41148e-05
-2.2127e-05
-2.00526e-05
-1.78707e-05
-1.55536e-05
-1.30578e-05
-1.03039e-05
-7.14381e-06
-3.38796e-06
0.000296277
0.000265389
0.000231479
0.000195117
0.000157227
0.000119125
8.21038e-05
4.71965e-05
1.51291e-05
-1.36521e-05
-3.89385e-05
-6.07138e-05
-7.91059e-05
-9.43382e-05
-0.00010669
-0.000116463
-0.000123964
-0.000129487
-0.000133306
-0.000135669
-0.000136802
-0.000136903
-0.000136144
-0.000134678
-0.000132636
-0.000130129
-0.000127255
-0.000124096
-0.000120722
-0.000117193
-0.000113558
-0.000109859
-0.000106131
-0.000102405
-9.87032e-05
-9.50463e-05
-9.145e-05
-8.79273e-05
-8.44881e-05
-8.11403e-05
-7.78896e-05
-7.474e-05
-7.1694e-05
-6.8753e-05
-6.5917e-05
-6.31854e-05
-6.05565e-05
-5.8028e-05
-5.5597e-05
-5.32599e-05
-5.10127e-05
-4.88508e-05
-4.67692e-05
-4.47624e-05
-4.28244e-05
-4.09488e-05
-3.91289e-05
-3.73571e-05
-3.56256e-05
-3.39258e-05
-3.22487e-05
-3.05844e-05
-2.89224e-05
-2.72513e-05
-2.55589e-05
-2.38319e-05
-2.20561e-05
-2.02155e-05
-1.82925e-05
-1.62655e-05
-1.41059e-05
-1.17707e-05
-9.18995e-06
-6.25594e-06
-2.85196e-06
0.000245753
0.000221186
0.000194417
0.000165767
0.000135816
0.000105469
7.56646e-05
4.71933e-05
2.06508e-05
-3.55317e-06
-2.51767e-05
-4.41238e-05
-6.04168e-05
-7.41654e-05
-8.55382e-05
-9.47382e-05
-0.000101985
-0.0001075
-0.000111498
-0.000114183
-0.00011574
-0.00011634
-0.000116134
-0.000115256
-0.000113823
-0.000111938
-0.00010969
-0.000107156
-0.000104402
-0.000101482
-9.84453e-05
-9.53315e-05
-9.21743e-05
-8.9002e-05
-8.58379e-05
-8.27015e-05
-7.96083e-05
-7.65712e-05
-7.36002e-05
-7.07031e-05
-6.78858e-05
-6.51527e-05
-6.25067e-05
-5.99493e-05
-5.74812e-05
-5.51021e-05
-5.2811e-05
-5.0606e-05
-4.84849e-05
-4.64447e-05
-4.4482e-05
-4.2593e-05
-4.07733e-05
-3.90183e-05
-3.73228e-05
-3.56813e-05
-3.40879e-05
-3.2536e-05
-3.10188e-05
-2.95289e-05
-2.80583e-05
-2.65984e-05
-2.514e-05
-2.36731e-05
-2.2187e-05
-2.06697e-05
-1.91084e-05
-1.74887e-05
-1.57937e-05
-1.4003e-05
-1.20899e-05
-1.00174e-05
-7.73359e-06
-5.17443e-06
-2.29211e-06
0.000194705
0.000176015
0.000155792
0.000134196
0.000111567
8.85022e-05
6.56456e-05
4.3563e-05
2.27063e-05
3.41333e-06
-1.4087e-05
-2.96672e-05
-4.32877e-05
-5.49801e-05
-6.48287e-05
-7.29541e-05
-7.94991e-05
-8.46177e-05
-8.84662e-05
-9.11977e-05
-9.29576e-05
-9.38813e-05
-9.40923e-05
-9.37022e-05
-9.28107e-05
-9.15056e-05
-8.9864e-05
-8.7953e-05
-8.58307e-05
-8.35469e-05
-8.11442e-05
-7.86588e-05
-7.61215e-05
-7.35578e-05
-7.09892e-05
-6.84336e-05
-6.59055e-05
-6.34168e-05
-6.09769e-05
-5.85934e-05
-5.62719e-05
-5.40167e-05
-5.18307e-05
-4.97158e-05
-4.7673e-05
-4.57023e-05
-4.38031e-05
-4.19742e-05
-4.02139e-05
-3.85198e-05
-3.68893e-05
-3.53193e-05
-3.38063e-05
-3.23464e-05
-3.09355e-05
-2.9569e-05
-2.82419e-05
-2.6949e-05
-2.56846e-05
-2.44424e-05
-2.32159e-05
-2.19979e-05
-2.07806e-05
-1.95559e-05
-1.83145e-05
-1.70464e-05
-1.57406e-05
-1.43846e-05
-1.29636e-05
-1.14599e-05
-9.8514e-06
-8.10984e-06
-6.20122e-06
-4.09298e-06
-1.77513e-06
0.000142565
0.000129346
0.000115125
9.99654e-05
8.40578e-05
6.77701e-05
5.15166e-05
3.56724e-05
2.05504e-05
6.39951e-06
-6.5965e-06
-1.83178e-05
-2.87039e-05
-3.77455e-05
-4.54739e-05
-5.19511e-05
-5.72605e-05
-6.14987e-05
-6.47691e-05
-6.7177e-05
-6.88251e-05
-6.98119e-05
-7.0229e-05
-7.01607e-05
-6.96834e-05
-6.88654e-05
-6.77673e-05
-6.64423e-05
-6.49368e-05
-6.32911e-05
-6.15398e-05
-5.97124e-05
-5.78341e-05
-5.59261e-05
-5.40061e-05
-5.2089e-05
-5.0187e-05
-4.831e-05
-4.6466e-05
-4.46615e-05
-4.29014e-05
-4.11894e-05
-3.95281e-05
-3.79194e-05
-3.63642e-05
-3.48628e-05
-3.3415e-05
-3.20201e-05
-3.06767e-05
-2.93832e-05
-2.81378e-05
-2.69381e-05
-2.57815e-05
-2.46652e-05
-2.35859e-05
-2.25402e-05
-2.15243e-05
-2.05343e-05
-1.95657e-05
-1.86139e-05
-1.76738e-05
-1.674e-05
-1.58064e-05
-1.48667e-05
-1.39138e-05
-1.294e-05
-1.19366e-05
-1.08936e-05
-9.79966e-06
-8.64103e-06
-7.4015e-06
-6.06219e-06
-4.60327e-06
-3.01033e-06
-1.28565e-06
8.82026e-05
8.02472e-05
7.17279e-05
6.26646e-05
5.31482e-05
4.33778e-05
3.35831e-05
2.3976e-05
1.47387e-05
6.02187e-06
-2.05711e-06
-9.41508e-06
-1.60023e-05
-2.1799e-05
-2.68107e-05
-3.1063e-05
-3.45964e-05
-3.74617e-05
-3.97162e-05
-4.14201e-05
-4.26339e-05
-4.3417e-05
-4.38255e-05
-4.39121e-05
-4.37249e-05
-4.33077e-05
-4.26997e-05
-4.19355e-05
-4.10458e-05
-4.0057e-05
-3.89924e-05
-3.78717e-05
-3.67118e-05
-3.55271e-05
-3.43298e-05
-3.31299e-05
-3.19358e-05
-3.07545e-05
-2.95915e-05
-2.84513e-05
-2.73373e-05
-2.62523e-05
-2.51983e-05
-2.41765e-05
-2.31877e-05
-2.22325e-05
-2.13106e-05
-2.04218e-05
-1.95653e-05
-1.87402e-05
-1.79453e-05
-1.71793e-05
-1.64404e-05
-1.57269e-05
-1.50368e-05
-1.43679e-05
-1.37178e-05
-1.3084e-05
-1.24637e-05
-1.18539e-05
-1.12514e-05
-1.06526e-05
-1.00538e-05
-9.45086e-06
-8.83914e-06
-8.21365e-06
-7.56871e-06
-6.8979e-06
-6.19378e-06
-5.44778e-06
-4.65006e-06
-3.78999e-06
-2.85758e-06
-1.84738e-06
-7.64697e-07
3.00872e-05
2.73753e-05
2.44812e-05
2.14092e-05
1.81868e-05
1.48775e-05
1.15554e-05
8.28943e-06
5.13973e-06
2.15685e-06
-6.18763e-07
-3.15748e-06
-5.44044e-06
-7.45872e-06
-9.21197e-06
-1.07069e-05
-1.19554e-05
-1.29735e-05
-1.37797e-05
-1.43937e-05
-1.4836e-05
-1.51265e-05
-1.52845e-05
-1.53282e-05
-1.52744e-05
-1.51384e-05
-1.49339e-05
-1.46733e-05
-1.43674e-05
-1.40257e-05