/*--------------------------------*- C++ -*----------------------------------*\
| =========                 |                                                 |
| \\      /  F ield         | OpenFOAM: The Open Source CFD Toolbox           |
|  \\    /   O peration     | Version:  2.3.0                                 |
|   \\  /    A nd           | Web:      www.OpenFOAM.org                      |
|    \\/     M anipulation  |                                                 |
\*---------------------------------------------------------------------------*/
FoamFile
{
    version     2.0;
    format      ascii;
    class       volVectorField;
    location    "0.8";
    object      U;
}
// * * * * * * * * * * * * * * * * * * * * * * * * * * * * * * * * * * * * * //

dimensions      [0 1 -1 0 0 0 0];

internalField   nonuniform List<vector> 
2945
(
(0.153788 0.0066815 0)
(0.125027 0.00576604 0)
(0.100444 0.00443544 0)
(0.0804743 0.00314339 0)
(0.0652438 0.00206591 0)
(0.0541389 0.00126812 0)
(0.0462372 0.000739062 0)
(0.0406532 0.000420489 0)
(0.0366601 0.000243934 0)
(0.0337136 0.000152829 0)
(0.0314404 0.000108147 0)
(0.0296036 8.62249e-05 0)
(0.0280611 7.43664e-05 0)
(0.0267295 6.65788e-05 0)
(0.0255587 6.04061e-05 0)
(0.0245164 5.49983e-05 0)
(0.0235804 5.0122e-05 0)
(0.022734 4.57283e-05 0)
(0.0219639 4.17981e-05 0)
(0.0212596 3.83015e-05 0)
(0.0206124 3.51969e-05 0)
(0.0200149 3.2438e-05 0)
(0.0194613 2.998e-05 0)
(0.0189464 2.77825e-05 0)
(0.0184659 2.58105e-05 0)
(0.0180164 2.40343e-05 0)
(0.0175946 2.24288e-05 0)
(0.0171979 2.0973e-05 0)
(0.016824 1.96488e-05 0)
(0.0164708 1.84411e-05 0)
(0.0161366 1.73368e-05 0)
(0.0158197 1.63247e-05 0)
(0.0155188 1.5395e-05 0)
(0.0152325 1.45392e-05 0)
(0.0149599 1.375e-05 0)
(0.0146998 1.30208e-05 0)
(0.0144513 1.23459e-05 0)
(0.0142137 1.17202e-05 0)
(0.0139862 1.11393e-05 0)
(0.0137681 1.05989e-05 0)
(0.0135587 1.00957e-05 0)
(0.0133576 9.62638e-06 0)
(0.0131642 9.18802e-06 0)
(0.012978 8.77809e-06 0)
(0.0127986 8.39424e-06 0)
(0.0126255 8.03435e-06 0)
(0.0124585 7.69654e-06 0)
(0.0122972 7.37906e-06 0)
(0.0121412 7.08038e-06 0)
(0.0119902 6.79908e-06 0)
(0.0118441 6.53389e-06 0)
(0.0117025 6.28364e-06 0)
(0.0115652 6.04731e-06 0)
(0.011432 5.82397e-06 0)
(0.0113027 5.61274e-06 0)
(0.0111771 5.41288e-06 0)
(0.011055 5.22372e-06 0)
(0.0109362 5.04467e-06 0)
(0.0108206 4.8752e-06 0)
(0.0107081 4.71485e-06 0)
(0.0105984 4.56324e-06 0)
(0.0104915 4.42009e-06 0)
(0.0103872 4.28513e-06 0)
(0.0102854 4.15819e-06 0)
(0.0101859 4.03919e-06 0)
(0.0100886 3.92817e-06 0)
(0.00999342 3.82528e-06 0)
(0.00990013 3.7309e-06 0)
(0.00980859 3.64584e-06 0)
(0.00971863 3.57199e-06 0)
(0.00962997 3.51129e-06 0)
(0.0095428 3.48779e-06 0)
(0.00945061 3.53097e-06 0)
(0.00939899 2.20562e-06 0)
(0.00912181 2.11755e-05 0)
(0.184632 0.0109647 0)
(0.176256 0.0104473 0)
(0.165287 0.00906624 0)
(0.153353 0.00746919 0)
(0.141703 0.00589655 0)
(0.130936 0.00449788 0)
(0.121268 0.00335864 0)
(0.112738 0.00249501 0)
(0.105297 0.0018746 0)
(0.0988382 0.00144358 0)
(0.0932329 0.00114709 0)
(0.0883487 0.000940261 0)
(0.084066 0.000791242 0)
(0.0802825 0.000679455 0)
(0.0769144 0.000592325 0)
(0.0738939 0.000522286 0)
(0.0711667 0.00046469 0)
(0.068689 0.000416539 0)
(0.0664254 0.000375774 0)
(0.0643471 0.000340904 0)
(0.0624303 0.000310807 0)
(0.0606553 0.000284618 0)
(0.0590057 0.000261661 0)
(0.0574676 0.0002414 0)
(0.0560292 0.000223412 0)
(0.0546804 0.000207353 0)
(0.0534124 0.000192947 0)
(0.0522178 0.000179966 0)
(0.05109 0.000168225 0)
(0.0500231 0.000157566 0)
(0.049012 0.000147858 0)
(0.0480522 0.00013899 0)
(0.0471397 0.000130868 0)
(0.0462709 0.00012341 0)
(0.0454424 0.000116547 0)
(0.0446515 0.000110216 0)
(0.0438954 0.000104365 0)
(0.0431717 9.89471e-05 0)
(0.0424782 9.39215e-05 0)
(0.0418131 8.92516e-05 0)
(0.0411744 8.49054e-05 0)
(0.0405606 8.08541e-05 0)
(0.03997 7.70719e-05 0)
(0.0394013 7.35362e-05 0)
(0.0388532 7.02262e-05 0)
(0.0383245 6.71234e-05 0)
(0.0378141 6.42111e-05 0)
(0.037321 6.14742e-05 0)
(0.0368443 5.8899e-05 0)
(0.0363831 5.64733e-05 0)
(0.0359366 5.41856e-05 0)
(0.0355041 5.2026e-05 0)
(0.0350848 4.99851e-05 0)
(0.0346781 4.80548e-05 0)
(0.0342834 4.62273e-05 0)
(0.0339002 4.44959e-05 0)
(0.0335279 4.28545e-05 0)
(0.033166 4.12976e-05 0)
(0.032814 3.98203e-05 0)
(0.0324715 3.84182e-05 0)
(0.0321381 3.70876e-05 0)
(0.0318134 3.58252e-05 0)
(0.0314969 3.46285e-05 0)
(0.0311883 3.34952e-05 0)
(0.0308872 3.24238e-05 0)
(0.0305933 3.14137e-05 0)
(0.0303061 3.04649e-05 0)
(0.0300253 2.95791e-05 0)
(0.0297505 2.87606e-05 0)
(0.0294811 2.802e-05 0)
(0.0292164 2.73742e-05 0)
(0.0289565 2.69773e-05 0)
(0.0286908 2.65016e-05 0)
(0.0284866 2.76139e-05 0)
(0.0278958 8.23588e-05 0)
(0.191305 0.0115778 0)
(0.190658 0.0118787 0)
(0.187724 0.011095 0)
(0.182995 0.00984939 0)
(0.177222 0.00842564 0)
(0.170939 0.00702931 0)
(0.164495 0.00579803 0)
(0.15813 0.00478613 0)
(0.151997 0.00398675 0)
(0.146178 0.00336427 0)
(0.140706 0.00287756 0)
(0.135585 0.00249126 0)
(0.130803 0.00217896 0)
(0.126343 0.00192209 0)
(0.122185 0.00170782 0)
(0.118306 0.00152711 0)
(0.114685 0.00137333 0)
(0.111302 0.00124147 0)
(0.108136 0.00112765 0)
(0.105171 0.00102875 0)
(0.102388 0.000942286 0)
(0.0997722 0.000866257 0)
(0.0973099 0.000799027 0)
(0.0949881 0.000739266 0)
(0.0927951 0.000685883 0)
(0.0907207 0.000637984 0)
(0.0887555 0.000594825 0)
(0.086891 0.000555788 0)
(0.0851195 0.000520355 0)
(0.0834342 0.00048809 0)
(0.0818289 0.000458622 0)
(0.0802978 0.000431635 0)
(0.0788359 0.000406857 0)
(0.0774385 0.000384053 0)
(0.0761012 0.000363021 0)
(0.0748202 0.000343583 0)
(0.0735919 0.000325583 0)
(0.0724129 0.000308886 0)
(0.0712804 0.000293371 0)
(0.0701915 0.00027893 0)
(0.0691435 0.000265469 0)
(0.0681343 0.000252903 0)
(0.0671615 0.000241155 0)
(0.0662231 0.000230157 0)
(0.0653173 0.000219848 0)
(0.0644423 0.000210172 0)
(0.0635965 0.00020108 0)
(0.0627783 0.000192525 0)
(0.0619864 0.000184467 0)
(0.0612195 0.000176868 0)
(0.0604763 0.000169693 0)
(0.0597558 0.000162913 0)
(0.0590567 0.000156499 0)
(0.0583783 0.000150426 0)
(0.0577195 0.000144669 0)
(0.0570794 0.000139209 0)
(0.0564573 0.000134026 0)
(0.0558524 0.000129102 0)
(0.0552639 0.000124423 0)
(0.0546912 0.000119975 0)
(0.0541336 0.000115745 0)
(0.0535905 0.000111723 0)
(0.0530613 0.000107901 0)
(0.0525454 0.00010427 0)
(0.0520423 0.000100825 0)
(0.0515513 9.75639e-05 0)
(0.0510719 9.44845e-05 0)
(0.0506036 9.15904e-05 0)
(0.0501456 8.88918e-05 0)
(0.0496974 8.64154e-05 0)
(0.0492579 8.42151e-05 0)
(0.0488264 8.26422e-05 0)
(0.0483936 8.09887e-05 0)
(0.0480138 8.98736e-05 0)
(0.0472384 0.000172094 0)
(0.193214 0.0110366 0)
(0.194857 0.0118115 0)
(0.195292 0.0115261 0)
(0.194379 0.0106911 0)
(0.192392 0.00957177 0)
(0.189607 0.00837297 0)
(0.186264 0.00724846 0)
(0.182571 0.00627589 0)
(0.178696 0.00547029 0)
(0.174754 0.00481332 0)
(0.170817 0.00427594 0)
(0.166928 0.00383039 0)
(0.163113 0.00345463 0)
(0.159389 0.00313263 0)
(0.155766 0.00285314 0)
(0.152252 0.00260821 0)
(0.148851 0.00239205 0)
(0.145567 0.00220025 0)
(0.142401 0.00202933 0)
(0.139351 0.00187644 0)
(0.136417 0.00173921 0)
(0.133596 0.00161564 0)
(0.130885 0.00150404 0)
(0.12828 0.00140294 0)
(0.125777 0.0013111 0)
(0.123373 0.00122745 0)
(0.121063 0.00115107 0)
(0.118843 0.00108115 0)
(0.116709 0.00101701 0)
(0.114657 0.000958041 0)
(0.112683 0.000903708 0)
(0.110783 0.000853554 0)
(0.108954 0.000807171 0)
(0.107192 0.000764202 0)
(0.105494 0.000724328 0)
(0.103857 0.00068727 0)
(0.102277 0.000652776 0)
(0.100753 0.000620624 0)
(0.0992807 0.000590613 0)
(0.0978583 0.000562564 0)
(0.0964832 0.000536315 0)
(0.0951533 0.000511722 0)
(0.0938664 0.000488651 0)
(0.0926205 0.000466985 0)
(0.0914137 0.000446613 0)
(0.0902441 0.000427439 0)
(0.0891102 0.000409371 0)
(0.0880103 0.000392329 0)
(0.0869429 0.000376236 0)
(0.0859066 0.000361026 0)
(0.0849001 0.000346635 0)
(0.0839221 0.000333005 0)
(0.0829714 0.000320085 0)
(0.082047 0.000307827 0)
(0.0811477 0.000296187 0)
(0.0802727 0.000285124 0)
(0.0794209 0.000274603 0)
(0.0785914 0.00026459 0)
(0.0777835 0.000255056 0)
(0.0769962 0.000245974 0)
(0.076229 0.00023732 0)
(0.0754809 0.000229074 0)
(0.0747514 0.000221216 0)
(0.0740397 0.000213734 0)
(0.0733452 0.000206615 0)
(0.0726672 0.000199851 0)
(0.072005 0.00019344 0)
(0.0713579 0.000187386 0)
(0.0707252 0.000181707 0)
(0.0701061 0.000176447 0)
(0.0694995 0.000171719 0)
(0.0689042 0.000168032 0)
(0.0683127 0.00016514 0)
(0.0677615 0.000180993 0)
(0.0668615 0.000274543 0)
(0.194056 0.0103809 0)
(0.196112 0.0113142 0)
(0.197649 0.0112983 0)
(0.198354 0.0107483 0)
(0.198272 0.00989489 0)
(0.197509 0.00891404 0)
(0.196183 0.00794862 0)
(0.194431 0.0070822 0)
(0.192382 0.00634229 0)
(0.190134 0.00572278 0)
(0.187752 0.00520397 0)
(0.18528 0.00476438 0)
(0.182748 0.00438583 0)
(0.180175 0.00405462 0)
(0.177579 0.00376101 0)
(0.174971 0.00349812 0)
(0.172365 0.003261 0)
(0.169771 0.00304593 0)
(0.167195 0.00285005 0)
(0.164647 0.002671 0)
(0.162131 0.00250687 0)
(0.159654 0.00235602 0)
(0.157218 0.00221708 0)
(0.154828 0.00208882 0)
(0.152486 0.00197023 0)
(0.150194 0.00186038 0)
(0.147953 0.00175847 0)
(0.145764 0.00166379 0)
(0.143628 0.00157572 0)
(0.141544 0.00149368 0)
(0.139512 0.00141718 0)
(0.137532 0.00134576 0)
(0.135604 0.00127901 0)
(0.133725 0.00121656 0)
(0.131897 0.00115807 0)
(0.130117 0.00110325 0)
(0.128384 0.00105181 0)
(0.126697 0.0010035 0)
(0.125055 0.00095809 0)
(0.123457 0.000915368 0)
(0.121901 0.00087514 0)
(0.120386 0.000837229 0)
(0.118911 0.000801471 0)
(0.117474 0.000767714 0)
(0.116075 0.000735821 0)
(0.114713 0.000705664 0)
(0.113385 0.000677124 0)
(0.112091 0.000650092 0)
(0.110829 0.000624468 0)
(0.1096 0.000600158 0)
(0.108401 0.000577077 0)
(0.107232 0.000555145 0)
(0.106091 0.000534287 0)
(0.104978 0.000514437 0)
(0.103892 0.000495532 0)
(0.102833 0.000477513 0)
(0.101798 0.000460329 0)
(0.100788 0.000443932 0)
(0.0998017 0.000428276 0)
(0.0988384 0.000413323 0)
(0.0978974 0.000399037 0)
(0.0969781 0.000385387 0)
(0.0960798 0.000372345 0)
(0.0952019 0.00035989 0)
(0.0943437 0.000348003 0)
(0.0935046 0.000336672 0)
(0.092684 0.000325893 0)
(0.0918811 0.000315671 0)
(0.0910953 0.000306032 0)
(0.0903257 0.000297045 0)
(0.0895713 0.000288886 0)
(0.0888305 0.000282207 0)
(0.0880977 0.000277868 0)
(0.087398 0.00029739 0)
(0.0864049 0.000387816 0)
(0.194638 0.0097612 0)
(0.196566 0.0107159 0)
(0.19831 0.0108436 0)
(0.199551 0.0104776 0)
(0.20026 0.00982035 0)
(0.200465 0.00902018 0)
(0.200221 0.00820198 0)
(0.199609 0.00744638 0)
(0.198718 0.00678652 0)
(0.197622 0.00622408 0)
(0.196371 0.00574624 0)
(0.194999 0.00533655 0)
(0.193528 0.00498011 0)
(0.191975 0.00466518 0)
(0.190351 0.00438319 0)
(0.188666 0.00412799 0)
(0.18693 0.00389512 0)
(0.185151 0.0036813 0)
(0.183337 0.00348397 0)
(0.181495 0.00330116 0)
(0.179632 0.00313122 0)
(0.177754 0.00297281 0)
(0.175867 0.00282481 0)
(0.173975 0.00268625 0)
(0.172084 0.00255631 0)
(0.170198 0.00243426 0)
(0.168319 0.0023195 0)
(0.166453 0.00221146 0)
(0.1646 0.00210966 0)
(0.162765 0.00201365 0)
(0.160948 0.00192304 0)
(0.159153 0.00183746 0)
(0.15738 0.00175659 0)
(0.155632 0.00168013 0)
(0.153908 0.00160778 0)
(0.152211 0.00153931 0)
(0.15054 0.00147446 0)
(0.148897 0.00141301 0)
(0.147281 0.00135477 0)
(0.145693 0.00129953 0)
(0.144133 0.00124712 0)
(0.142601 0.00119736 0)
(0.141098 0.0011501 0)
(0.139622 0.00110519 0)
(0.138174 0.00106249 0)
(0.136753 0.00102187 0)
(0.13536 0.000983209 0)
(0.133993 0.000946388 0)
(0.132653 0.000911302 0)
(0.131339 0.000877849 0)
(0.130051 0.000845934 0)
(0.128788 0.000815469 0)
(0.127549 0.00078637 0)
(0.126335 0.000758559 0)
(0.125145 0.000731965 0)
(0.123979 0.00070652 0)
(0.122835 0.000682162 0)
(0.121714 0.000658833 0)
(0.120616 0.000636482 0)
(0.119539 0.000615059 0)
(0.118483 0.000594523 0)
(0.117448 0.000574834 0)
(0.116434 0.00055596 0)
(0.11544 0.000537873 0)
(0.114465 0.000520552 0)
(0.11351 0.000503982 0)
(0.112573 0.000488159 0)
(0.111654 0.000473093 0)
(0.110753 0.00045882 0)
(0.109869 0.000445433 0)
(0.109 0.000433179 0)
(0.108147 0.000422856 0)
(0.107303 0.000416495 0)
(0.106491 0.000435801 0)
(0.105434 0.000511788 0)
(0.195133 0.00919915 0)
(0.196823 0.0101235 0)
(0.198479 0.0103361 0)
(0.199817 0.0100954 0)
(0.20078 0.00958011 0)
(0.201374 0.00891854 0)
(0.201627 0.00821918 0)
(0.20159 0.00755712 0)
(0.201328 0.00696795 0)
(0.200894 0.00645861 0)
(0.20033 0.00602157 0)
(0.199661 0.00564444 0)
(0.198903 0.00531497 0)
(0.198066 0.00502303 0)
(0.197158 0.00476088 0)
(0.196184 0.00452283 0)
(0.195149 0.00430468 0)
(0.194058 0.00410331 0)
(0.192916 0.00391633 0)
(0.191728 0.00374186 0)
(0.190496 0.00357843 0)
(0.189227 0.0034248 0)
(0.187924 0.00327999 0)
(0.186591 0.00314315 0)
(0.185231 0.00301359 0)
(0.183849 0.00289071 0)
(0.182448 0.00277401 0)
(0.181031 0.00266305 0)
(0.179601 0.00255744 0)
(0.178161 0.00245684 0)
(0.176715 0.00236095 0)
(0.175264 0.00226951 0)
(0.17381 0.00218226 0)
(0.172357 0.00209897 0)
(0.170905 0.00201945 0)
(0.169457 0.00194349 0)
(0.168015 0.00187092 0)
(0.166579 0.00180156 0)
(0.165152 0.00173527 0)
(0.163734 0.00167189 0)
(0.162327 0.00161127 0)
(0.160931 0.00155328 0)
(0.159548 0.0014978 0)
(0.158178 0.0014447 0)
(0.156822 0.00139387 0)
(0.15548 0.00134518 0)
(0.154153 0.00129854 0)
(0.152842 0.00125385 0)
(0.151546 0.00121101 0)
(0.150267 0.00116992 0)
(0.149003 0.0011305 0)
(0.147757 0.00109267 0)
(0.146526 0.00105635 0)
(0.145313 0.00102146 0)
(0.144117 0.000987928 0)
(0.142937 0.000955696 0)
(0.141775 0.0009247 0)
(0.14063 0.000894882 0)
(0.139501 0.000866188 0)
(0.13839 0.000838572 0)
(0.137296 0.000811988 0)
(0.136218 0.0007864 0)
(0.135157 0.000761772 0)
(0.134113 0.000738079 0)
(0.133085 0.0007153 0)
(0.132074 0.000693424 0)
(0.131079 0.000672449 0)
(0.1301 0.000652393 0)
(0.129136 0.000633306 0)
(0.128188 0.000615309 0)
(0.127254 0.000598713 0)
(0.126333 0.000584457 0)
(0.125423 0.000575378 0)
(0.124545 0.000590889 0)
(0.123462 0.000644343 0)
(0.195578 0.00870221 0)
(0.197038 0.00957421 0)
(0.198532 0.00983992 0)
(0.199813 0.00969114 0)
(0.200814 0.00928367 0)
(0.201531 0.0087305 0)
(0.20198 0.00812644 0)
(0.202199 0.00754051 0)
(0.202238 0.00700919 0)
(0.202142 0.00654339 0)
(0.201943 0.00613987 0)
(0.201665 0.00578972 0)
(0.20132 0.00548311 0)
(0.200915 0.00521135 0)
(0.200455 0.00496749 0)
(0.199943 0.00474622 0)
(0.199382 0.00454355 0)
(0.198773 0.00435643 0)
(0.198119 0.00418251 0)
(0.19742 0.00401994 0)
(0.19668 0.00386727 0)
(0.195901 0.00372328 0)
(0.195083 0.00358702 0)
(0.194229 0.00345767 0)
(0.193342 0.00333458 0)
(0.192423 0.00321719 0)
(0.191475 0.00310503 0)
(0.1905 0.0029977 0)
(0.189499 0.00289488 0)
(0.188475 0.00279627 0)
(0.187431 0.00270162 0)
(0.186367 0.00261071 0)
(0.185286 0.00252333 0)
(0.18419 0.00243933 0)
(0.18308 0.00235852 0)
(0.181959 0.00228078 0)
(0.180828 0.00220596 0)
(0.179688 0.00213395 0)
(0.178542 0.00206461 0)
(0.17739 0.00199785 0)
(0.176234 0.00193355 0)
(0.175075 0.00187162 0)
(0.173915 0.00181196 0)
(0.172754 0.00175448 0)
(0.171593 0.00169908 0)
(0.170434 0.00164569 0)
(0.169278 0.00159423 0)
(0.168125 0.0015446 0)
(0.166976 0.00149673 0)
(0.165832 0.00145056 0)
(0.164694 0.00140601 0)
(0.163562 0.00136301 0)
(0.162437 0.00132149 0)
(0.161319 0.00128139 0)
(0.160209 0.00124266 0)
(0.159107 0.00120524 0)
(0.158014 0.00116907 0)
(0.156931 0.0011341 0)
(0.155857 0.00110029 0)
(0.154793 0.0010676 0)
(0.153739 0.00103599 0)
(0.152696 0.00100542 0)
(0.151664 0.000975874 0)
(0.150642 0.000947324 0)
(0.149632 0.000919759 0)
(0.148633 0.000893174 0)
(0.147645 0.000867577 0)
(0.146669 0.000842996 0)
(0.145704 0.000819498 0)
(0.14475 0.000797231 0)
(0.143807 0.000776559 0)
(0.142874 0.000758511 0)
(0.141951 0.000746216 0)
(0.14106 0.000755199 0)
(0.139995 0.000781614 0)
(0.195983 0.0082645 0)
(0.197242 0.00907431 0)
(0.198569 0.00937266 0)
(0.199752 0.00929551 0)
(0.200715 0.00897518 0)
(0.201447 0.00851143 0)
(0.20196 0.00798732 0)
(0.202282 0.00746572 0)
(0.202454 0.00698301 0)
(0.202514 0.0065531 0)
(0.202493 0.00617639 0)
(0.202409 0.00584711 0)
(0.202277 0.00555768 0)
(0.202102 0.00530089 0)
(0.20189 0.00507065 0)
(0.201642 0.00486211 0)
(0.201361 0.00467151 0)
(0.201046 0.00449592 0)
(0.200698 0.00433303 0)
(0.200318 0.00418101 0)
(0.199906 0.00403837 0)
(0.199463 0.00390392 0)
(0.198989 0.00377666 0)
(0.198485 0.00365579 0)
(0.197951 0.00354061 0)
(0.197388 0.00343058 0)
(0.196798 0.00332522 0)
(0.196181 0.00322413 0)
(0.195537 0.00312698 0)
(0.194868 0.00303348 0)
(0.194176 0.00294339 0)
(0.19346 0.0028565 0)
(0.192722 0.00277263 0)
(0.191963 0.00269162 0)
(0.191185 0.00261333 0)
(0.190388 0.00253762 0)
(0.189574 0.00246439 0)
(0.188743 0.00239354 0)
(0.187898 0.00232496 0)
(0.187038 0.00225858 0)
(0.186165 0.00219429 0)
(0.185281 0.00213204 0)
(0.184385 0.00207174 0)
(0.18348 0.00201331 0)
(0.182566 0.00195671 0)
(0.181644 0.00190185 0)
(0.180715 0.00184867 0)
(0.17978 0.00179712 0)
(0.17884 0.00174713 0)
(0.177895 0.00169864 0)
(0.176947 0.00165161 0)
(0.175996 0.00160598 0)
(0.175044 0.00156169 0)
(0.17409 0.0015187 0)
(0.173135 0.00147695 0)
(0.17218 0.00143642 0)
(0.171226 0.00139705 0)
(0.170274 0.0013588 0)
(0.169323 0.00132164 0)
(0.168375 0.00128554 0)
(0.167429 0.00125046 0)
(0.166488 0.0012164 0)
(0.16555 0.00118332 0)
(0.164616 0.00115121 0)
(0.163687 0.00112008 0)
(0.162764 0.00108992 0)
(0.161846 0.00106077 0)
(0.160933 0.00103265 0)
(0.160027 0.00100565 0)
(0.159126 0.00097995 0)
(0.158231 0.00095594 0)
(0.157343 0.00093466 0)
(0.156461 0.000919026 0)
(0.155609 0.000919918 0)
(0.154607 0.000918533 0)
(0.196352 0.00787689 0)
(0.197441 0.00862125 0)
(0.198614 0.00893764 0)
(0.199691 0.00891781 0)
(0.200594 0.0086707 0)
(0.201305 0.00828367 0)
(0.201829 0.00782949 0)
(0.202189 0.00736492 0)
(0.202417 0.00692543 0)
(0.202547 0.00652706 0)
(0.202607 0.00617322 0)
(0.202615 0.00586091 0)
(0.202584 0.0055847 0)
(0.202521 0.00533882 0)
(0.202433 0.00511812 0)
(0.202321 0.00491831 0)
(0.202186 0.00473595 0)
(0.202031 0.00456828 0)
(0.201854 0.00441308 0)
(0.201657 0.00426859 0)
(0.201439 0.00413333 0)
(0.2012 0.0040061 0)
(0.20094 0.00388591 0)
(0.20066 0.00377194 0)
(0.200358 0.00366349 0)
(0.200035 0.00355998 0)
(0.199691 0.00346091 0)
(0.199326 0.00336588 0)
(0.198941 0.00327454 0)
(0.198534 0.00318658 0)
(0.198107 0.00310175 0)
(0.19766 0.00301983 0)
(0.197192 0.00294063 0)
(0.196705 0.00286399 0)
(0.1962 0.00278976 0)
(0.195675 0.00271781 0)
(0.195132 0.00264804 0)
(0.194572 0.00258033 0)
(0.193994 0.00251459 0)
(0.193401 0.00245075 0)
(0.192791 0.00238872 0)
(0.192166 0.00232843 0)
(0.191526 0.00226982 0)
(0.190872 0.00221282 0)
(0.190205 0.00215737 0)
(0.189526 0.00210342 0)
(0.188834 0.00205091 0)
(0.188131 0.00199979 0)
(0.187417 0.00195001 0)
(0.186694 0.00190153 0)
(0.185961 0.00185429 0)
(0.185219 0.00180825 0)
(0.184469 0.00176338 0)
(0.183712 0.00171962 0)
(0.182947 0.00167695 0)
(0.182177 0.00163533 0)
(0.181401 0.00159473 0)
(0.180621 0.00155511 0)
(0.179836 0.00151645 0)
(0.179047 0.00147872 0)
(0.178255 0.00144191 0)
(0.17746 0.001406 0)
(0.176663 0.00137099 0)
(0.175864 0.00133686 0)
(0.175065 0.00130364 0)
(0.174264 0.00127132 0)
(0.173463 0.00123995 0)
(0.172663 0.00120957 0)
(0.171862 0.0011803 0)
(0.171063 0.00115231 0)
(0.170264 0.00112601 0)
(0.169467 0.00110235 0)
(0.168673 0.00108366 0)
(0.167905 0.00107613 0)
(0.167004 0.0010496 0)
(0.196687 0.00753136 0)
(0.197634 0.0082111 0)
(0.19867 0.00853472 0)
(0.199644 0.00856058 0)
(0.200483 0.00837575 0)
(0.201159 0.00805571 0)
(0.201675 0.00766404 0)
(0.202047 0.00725161 0)
(0.2023 0.00685226 0)
(0.202463 0.00648337 0)
(0.202561 0.00615073 0)
(0.202612 0.00585371 0)
(0.202628 0.00558882 0)
(0.202618 0.0053517 0)
(0.202588 0.00513815 0)
(0.20254 0.00494449 0)
(0.202476 0.00476765 0)
(0.2024 0.00460512 0)
(0.20231 0.00445484 0)
(0.202207 0.00431513 0)
(0.202092 0.00418458 0)
(0.201965 0.00406203 0)
(0.201825 0.0039465 0)
(0.201672 0.00383717 0)
(0.201506 0.00373336 0)
(0.201327 0.00363448 0)
(0.201134 0.00354002 0)
(0.200928 0.00344957 0)
(0.200707 0.00336276 0)
(0.200473 0.00327927 0)
(0.200223 0.00319885 0)
(0.199959 0.00312125 0)
(0.199681 0.00304627 0)
(0.199387 0.00297373 0)
(0.199079 0.00290348 0)
(0.198755 0.00283539 0)
(0.198417 0.00276932 0)
(0.198064 0.00270516 0)
(0.197696 0.00264282 0)
(0.197313 0.00258222 0)
(0.196916 0.00252325 0)
(0.196504 0.00246586 0)
(0.196078 0.00240996 0)
(0.195639 0.0023555 0)
(0.195186 0.00230242 0)
(0.194719 0.00225065 0)
(0.194239 0.00220014 0)
(0.193747 0.00215084 0)
(0.193242 0.00210271 0)
(0.192726 0.00205569 0)
(0.192197 0.00200975 0)
(0.191658 0.00196484 0)
(0.191108 0.00192093 0)
(0.190547 0.00187797 0)
(0.189976 0.00183594 0)
(0.189396 0.0017948 0)
(0.188807 0.00175452 0)
(0.188209 0.00171509 0)
(0.187602 0.00167646 0)
(0.186988 0.00163864 0)
(0.186367 0.0016016 0)
(0.185739 0.00156534 0)
(0.185104 0.00152985 0)
(0.184464 0.00149514 0)
(0.183818 0.00146122 0)
(0.183166 0.00142812 0)
(0.18251 0.00139587 0)
(0.18185 0.00136455 0)
(0.181185 0.00133425 0)
(0.180517 0.00130519 0)
(0.179846 0.00127772 0)
(0.179172 0.00125265 0)
(0.178498 0.0012315 0)
(0.177844 0.00121629 0)
(0.177071 0.00116985 0)
(0.196991 0.0072213 0)
(0.197819 0.00783968 0)
(0.198734 0.00816249 0)
(0.199614 0.00822414 0)
(0.200387 0.00809222 0)
(0.201026 0.00783091 0)
(0.201526 0.00749553 0)
(0.201899 0.00713132 0)
(0.202163 0.00677002 0)
(0.202344 0.00642962 0)
(0.202463 0.00611771 0)
(0.202536 0.00583562 0)
(0.202576 0.00558155 0)
(0.202591 0.00535248 0)
(0.202588 0.0051451 0)
(0.20257 0.00495638 0)
(0.20254 0.00478366 0)
(0.2025 0.0046247 0)
(0.202451 0.00447764 0)
(0.202394 0.00434092 0)
(0.202329 0.00421322 0)
(0.202257 0.00409344 0)
(0.202177 0.00398066 0)
(0.202091 0.00387408 0)
(0.201997 0.00377304 0)
(0.201896 0.00367696 0)
(0.201787 0.00358535 0)
(0.20167 0.00349778 0)
(0.201545 0.0034139 0)
(0.201412 0.00333338 0)
(0.20127 0.00325596 0)
(0.201118 0.00318139 0)
(0.200958 0.00310945 0)
(0.200788 0.00303997 0)
(0.200607 0.00297278 0)
(0.200417 0.00290772 0)
(0.200217 0.00284468 0)
(0.200006 0.00278352 0)
(0.199784 0.00272414 0)
(0.199551 0.00266645 0)
(0.199307 0.00261034 0)
(0.199052 0.00255575 0)
(0.198786 0.00250258 0)
(0.198509 0.00245077 0)
(0.19822 0.00240025 0)
(0.19792 0.00235096 0)
(0.197608 0.00230284 0)
(0.197286 0.00225584 0)
(0.196952 0.00220989 0)
(0.196607 0.00216496 0)
(0.196251 0.00212099 0)
(0.195884 0.00207795 0)
(0.195506 0.00203579 0)
(0.195117 0.00199447 0)
(0.194718 0.00195396 0)
(0.194309 0.00191422 0)
(0.19389 0.00187523 0)
(0.193461 0.00183697 0)
(0.193022 0.0017994 0)
(0.192575 0.00176252 0)
(0.192118 0.00172631 0)
(0.191652 0.00169076 0)
(0.191178 0.00165589 0)
(0.190695 0.00162168 0)
(0.190205 0.00158816 0)
(0.189707 0.00155537 0)
(0.189201 0.00152334 0)
(0.188689 0.00149215 0)
(0.188169 0.00146191 0)
(0.187643 0.00143281 0)
(0.18711 0.00140518 0)
(0.186573 0.0013796 0)
(0.186033 0.00135673 0)
(0.185507 0.00133531 0)
(0.184874 0.00127563 0)
(0.197269 0.00694132 0)
(0.197995 0.00750285 0)
(0.198804 0.00781914 0)
(0.199596 0.00790811 0)
(0.200308 0.00782082 0)
(0.200908 0.00761091 0)
(0.201389 0.00732619 0)
(0.201756 0.0070066 0)
(0.202026 0.00668152 0)
(0.202218 0.00636894 0)
(0.20235 0.0060777 0)
(0.202437 0.00581073 0)
(0.202491 0.00556769 0)
(0.202521 0.00534671 0)
(0.202532 0.0051454 0)
(0.20253 0.0049613 0)
(0.202516 0.00479221 0)
(0.202493 0.00463619 0)
(0.202463 0.00449156 0)
(0.202427 0.00435692 0)
(0.202385 0.00423106 0)
(0.202339 0.00411296 0)
(0.202288 0.00400176 0)
(0.202234 0.0038967 0)
(0.202175 0.00379715 0)
(0.202112 0.00370257 0)
(0.202046 0.00361248 0)
(0.201975 0.00352647 0)
(0.201901 0.00344419 0)
(0.201821 0.00336533 0)
(0.201738 0.00328962 0)
(0.201649 0.00321681 0)
(0.201556 0.0031467 0)
(0.201457 0.0030791 0)
(0.201352 0.00301384 0)
(0.201242 0.00295076 0)
(0.201125 0.00288974 0)
(0.201003 0.00283064 0)
(0.200873 0.00277336 0)
(0.200737 0.00271779 0)
(0.200593 0.00266382 0)
(0.200442 0.00261138 0)
(0.200283 0.00256037 0)
(0.200117 0.00251072 0)
(0.199942 0.00246236 0)
(0.19976 0.00241521 0)
(0.199569 0.00236921 0)
(0.199369 0.00232431 0)
(0.199161 0.00228043 0)
(0.198944 0.00223753 0)
(0.198718 0.00219555 0)
(0.198484 0.00215446 0)
(0.19824 0.00211419 0)
(0.197987 0.00207471 0)
(0.197725 0.00203598 0)
(0.197454 0.00199797 0)
(0.197175 0.00196064 0)
(0.196886 0.00192396 0)
(0.196588 0.00188791 0)
(0.196281 0.00185247 0)
(0.195965 0.00181764 0)
(0.195641 0.00178339 0)
(0.195308 0.00174973 0)
(0.194966 0.00171668 0)
(0.194616 0.00168424 0)
(0.194257 0.00165245 0)
(0.193891 0.00162136 0)
(0.193516 0.00159103 0)
(0.193133 0.00156159 0)
(0.192742 0.0015332 0)
(0.192343 0.00150612 0)
(0.191939 0.00148071 0)
(0.19153 0.00145686 0)
(0.19113 0.00143106 0)
(0.190634 0.001365 0)
(0.197521 0.00668705 0)
(0.198162 0.00719679 0)
(0.198878 0.0075027 0)
(0.199591 0.00761189 0)
(0.200243 0.0075619 0)
(0.200804 0.00739676 0)
(0.201263 0.00715744 0)
(0.201623 0.006879 0)
(0.201894 0.00658827 0)
(0.202093 0.00630279 0)
(0.202234 0.00603221 0)
(0.202332 0.00578067 0)
(0.202396 0.00554906 0)
(0.202436 0.00533657 0)
(0.202457 0.00514159 0)
(0.202463 0.00496227 0)
(0.202459 0.00479684 0)
(0.202445 0.00464364 0)
(0.202425 0.00450122 0)
(0.202399 0.00436835 0)
(0.202369 0.00424392 0)
(0.202334 0.00412701 0)
(0.202297 0.00401681 0)
(0.202257 0.00391264 0)
(0.202215 0.00381389 0)
(0.20217 0.00372005 0)
(0.202124 0.00363068 0)
(0.202076 0.00354539 0)
(0.202025 0.00346384 0)
(0.201973 0.00338574 0)
(0.201919 0.00331081 0)
(0.201862 0.00323884 0)
(0.201804 0.00316961 0)
(0.201743 0.00310294 0)
(0.201679 0.00303867 0)
(0.201612 0.00297665 0)
(0.201543 0.00291673 0)
(0.20147 0.0028588 0)
(0.201393 0.00280273 0)
(0.201313 0.00274843 0)
(0.201229 0.00269579 0)
(0.201141 0.00264471 0)
(0.201048 0.00259512 0)
(0.200951 0.00254692 0)
(0.200849 0.00250005 0)
(0.200742 0.00245443 0)
(0.200629 0.00240998 0)
(0.200511 0.00236665 0)
(0.200387 0.00232436 0)
(0.200257 0.00228307 0)
(0.200121 0.00224271 0)
(0.199979 0.00220323 0)
(0.19983 0.00216458 0)
(0.199674 0.00212672 0)
(0.199512 0.00208959 0)
(0.199343 0.00205317 0)
(0.199166 0.00201742 0)
(0.198983 0.00198229 0)
(0.198792 0.00194778 0)
(0.198594 0.00191385 0)
(0.198389 0.00188048 0)
(0.198176 0.00184768 0)
(0.197956 0.00181543 0)
(0.197728 0.00178375 0)
(0.197492 0.00175265 0)
(0.197249 0.00172216 0)
(0.196997 0.00169233 0)
(0.196739 0.00166324 0)
(0.196472 0.00163497 0)
(0.196198 0.00160768 0)
(0.195916 0.00158157 0)
(0.195628 0.00155676 0)
(0.195335 0.00153254 0)
(0.195046 0.00150421 0)
(0.194674 0.00143776 0)
(0.197752 0.00645499 0)
(0.198319 0.00691803 0)
(0.198954 0.00721117 0)
(0.199595 0.00733474 0)
(0.200192 0.00731559 0)
(0.200714 0.00718922 0)
(0.20115 0.00699039 0)
(0.201499 0.00674968 0)
(0.201769 0.00649133 0)
(0.201971 0.00623209 0)
(0.20212 0.00598202 0)
(0.202226 0.00574616 0)
(0.202299 0.00552641 0)
(0.202346 0.00532285 0)
(0.202375 0.00513461 0)
(0.202388 0.00496041 0)
(0.20239 0.00479886 0)
(0.202383 0.00464864 0)
(0.202368 0.00450852 0)
(0.202348 0.0043774 0)
(0.202324 0.00425433 0)
(0.202296 0.00413847 0)
(0.202266 0.00402908 0)
(0.202233 0.00392553 0)
(0.202198 0.00382728 0)
(0.202162 0.00373384 0)
(0.202125 0.0036448 0)
(0.202087 0.00355979 0)
(0.202048 0.00347849 0)
(0.202009 0.00340063 0)
(0.201968 0.00332595 0)
(0.201927 0.00325424 0)
(0.201885 0.0031853 0)
(0.201843 0.00311895 0)
(0.201799 0.00305503 0)
(0.201755 0.0029934 0)
(0.201709 0.00293393 0)
(0.201662 0.00287648 0)
(0.201614 0.00282096 0)
(0.201564 0.00276724 0)
(0.201513 0.00271524 0)
(0.201459 0.00266486 0)
(0.201404 0.00261602 0)
(0.201346 0.00256862 0)
(0.201286 0.00252259 0)
(0.201223 0.00247786 0)
(0.201157 0.00243436 0)
(0.201088 0.00239201 0)
(0.201016 0.00235075 0)
(0.20094 0.00231051 0)
(0.200861 0.00227125 0)
(0.200777 0.0022329 0)
(0.20069 0.00219541 0)
(0.200598 0.00215874 0)
(0.200502 0.00212282 0)
(0.200401 0.00208763 0)
(0.200296 0.00205312 0)
(0.200185 0.00201926 0)
(0.200069 0.00198602 0)
(0.199948 0.00195337 0)
(0.199821 0.00192129 0)
(0.199689 0.00188978 0)
(0.199551 0.00185882 0)
(0.199407 0.00182843 0)
(0.199257 0.00179862 0)
(0.1991 0.00176942 0)
(0.198938 0.00174087 0)
(0.198768 0.00171304 0)
(0.198593 0.00168602 0)
(0.19841 0.00165994 0)
(0.198221 0.00163492 0)
(0.198027 0.00161089 0)
(0.197827 0.00158676 0)
(0.197629 0.00155745 0)
(0.197359 0.0014951 0)
(0.197962 0.0062423 0)
(0.198466 0.00666353 0)
(0.19903 0.0069426 0)
(0.199606 0.00707584 0)
(0.200151 0.00708188 0)
(0.200636 0.00698887 0)
(0.201048 0.00682597 0)
(0.201385 0.00661967 0)
(0.201651 0.00639162 0)
(0.201855 0.00615761 0)
(0.202008 0.00592772 0)
(0.20212 0.00570766 0)
(0.2022 0.0055001 0)
(0.202255 0.00530589 0)
(0.202289 0.0051248 0)
(0.202309 0.00495609 0)
(0.202316 0.00479875 0)
(0.202314 0.00465177 0)
(0.202304 0.00451413 0)
(0.202289 0.00438491 0)
(0.202269 0.00426328 0)
(0.202245 0.0041485 0)
(0.202218 0.00403992 0)
(0.20219 0.00393696 0)
(0.202159 0.00383911 0)
(0.202128 0.00374595 0)
(0.202095 0.00365708 0)
(0.202062 0.00357217 0)
(0.202029 0.00349091 0)
(0.201995 0.00341305 0)
(0.201961 0.00333835 0)
(0.201927 0.00326661 0)
(0.201894 0.00319763 0)
(0.20186 0.00313125 0)
(0.201826 0.00306732 0)
(0.201792 0.0030057 0)
(0.201758 0.00294626 0)
(0.201724 0.00288888 0)
(0.201689 0.00283346 0)
(0.201655 0.00277988 0)
(0.20162 0.00272806 0)
(0.201584 0.0026779 0)
(0.201548 0.00262931 0)
(0.201511 0.00258222 0)
(0.201473 0.00253655 0)
(0.201434 0.00249221 0)
(0.201394 0.00244915 0)
(0.201352 0.00240728 0)
(0.201309 0.00236655 0)
(0.201264 0.0023269 0)
(0.201218 0.00228825 0)
(0.201169 0.00225056 0)
(0.201118 0.00221377 0)
(0.201065 0.00217783 0)
(0.201009 0.00214269 0)
(0.200951 0.00210831 0)
(0.200889 0.00207465 0)
(0.200825 0.00204166 0)
(0.200757 0.00200932 0)
(0.200686 0.00197761 0)
(0.200611 0.0019465 0)
(0.200532 0.00191598 0)
(0.20045 0.00188604 0)
(0.200363 0.00185669 0)
(0.200271 0.00182794 0)
(0.200176 0.00179982 0)
(0.200075 0.00177237 0)
(0.199969 0.00174566 0)
(0.199859 0.00171976 0)
(0.199743 0.00169477 0)
(0.199622 0.00167076 0)
(0.199497 0.00164751 0)
(0.199367 0.00162375 0)
(0.199236 0.00159468 0)
(0.199046 0.00153919 0)