/*--------------------------------*- C++ -*----------------------------------*\
| =========                 |                                                 |
| \\      /  F ield         | OpenFOAM: The Open Source CFD Toolbox           |
|  \\    /   O peration     | Version:  2.3.0                                 |
|   \\  /    A nd           | Web:      www.OpenFOAM.org                      |
|    \\/     M anipulation  |                                                 |
\*---------------------------------------------------------------------------*/
FoamFile
{
    version     2.0;
    format      ascii;
    class       volVectorField;
    location    "0.8";
    object      U_0;
}
// * * * * * * * * * * * * * * * * * * * * * * * * * * * * * * * * * * * * * //

dimensions      [0 1 -1 0 0 0 0];

internalField   nonuniform List<vector> 
2945
(
(0.153788 0.00668149 0)
(0.125027 0.00576604 0)
(0.100444 0.00443544 0)
(0.0804743 0.00314339 0)
(0.0652438 0.00206591 0)
(0.0541389 0.00126812 0)
(0.0462372 0.000739062 0)
(0.0406532 0.000420489 0)
(0.0366601 0.000243934 0)
(0.0337136 0.000152828 0)
(0.0314404 0.000108147 0)
(0.0296036 8.62248e-05 0)
(0.0280611 7.43663e-05 0)
(0.0267296 6.65787e-05 0)
(0.0255587 6.0406e-05 0)
(0.0245164 5.49982e-05 0)
(0.0235804 5.01218e-05 0)
(0.022734 4.57282e-05 0)
(0.021964 4.1798e-05 0)
(0.0212597 3.83013e-05 0)
(0.0206124 3.51967e-05 0)
(0.020015 3.24378e-05 0)
(0.0194613 2.99798e-05 0)
(0.0189464 2.77823e-05 0)
(0.018466 2.58103e-05 0)
(0.0180164 2.40341e-05 0)
(0.0175946 2.24286e-05 0)
(0.017198 2.09727e-05 0)
(0.0168241 1.96485e-05 0)
(0.0164709 1.84408e-05 0)
(0.0161366 1.73365e-05 0)
(0.0158198 1.63243e-05 0)
(0.0155188 1.53946e-05 0)
(0.0152326 1.45388e-05 0)
(0.01496 1.37496e-05 0)
(0.0146999 1.30204e-05 0)
(0.0144514 1.23455e-05 0)
(0.0142138 1.17198e-05 0)
(0.0139863 1.11388e-05 0)
(0.0137682 1.05984e-05 0)
(0.0135589 1.00951e-05 0)
(0.0133578 9.62577e-06 0)
(0.0131643 9.18738e-06 0)
(0.0129782 8.77741e-06 0)
(0.0127987 8.39352e-06 0)
(0.0126257 8.03359e-06 0)
(0.0124587 7.69573e-06 0)
(0.0122974 7.37821e-06 0)
(0.0121414 7.07948e-06 0)
(0.0119905 6.79813e-06 0)
(0.0118444 6.53289e-06 0)
(0.0117028 6.28259e-06 0)
(0.0115655 6.04621e-06 0)
(0.0114324 5.8228e-06 0)
(0.0113031 5.61152e-06 0)
(0.0111775 5.4116e-06 0)
(0.0110554 5.22238e-06 0)
(0.0109367 5.04327e-06 0)
(0.0108211 4.87374e-06 0)
(0.0107086 4.71333e-06 0)
(0.010599 4.56166e-06 0)
(0.0104921 4.41845e-06 0)
(0.0103879 4.28343e-06 0)
(0.0102861 4.15644e-06 0)
(0.0101867 4.03739e-06 0)
(0.0100894 3.92633e-06 0)
(0.00999427 3.8234e-06 0)
(0.00990103 3.729e-06 0)
(0.00980955 3.64392e-06 0)
(0.00971965 3.57007e-06 0)
(0.00963105 3.50937e-06 0)
(0.00954393 3.48589e-06 0)
(0.00945181 3.52913e-06 0)
(0.00940021 2.20518e-06 0)
(0.00912328 2.11583e-05 0)
(0.184632 0.0109647 0)
(0.176256 0.0104473 0)
(0.165287 0.00906624 0)
(0.153353 0.00746919 0)
(0.141703 0.00589655 0)
(0.130936 0.00449788 0)
(0.121268 0.00335864 0)
(0.112738 0.002495 0)
(0.105297 0.0018746 0)
(0.0988383 0.00144357 0)
(0.0932329 0.00114709 0)
(0.0883488 0.000940261 0)
(0.084066 0.000791242 0)
(0.0802825 0.000679455 0)
(0.0769144 0.000592324 0)
(0.073894 0.000522285 0)
(0.0711668 0.00046469 0)
(0.0686891 0.000416538 0)
(0.0664255 0.000375773 0)
(0.0643472 0.000340903 0)
(0.0624304 0.000310806 0)
(0.0606554 0.000284617 0)
(0.0590058 0.000261659 0)
(0.0574677 0.000241399 0)
(0.0560293 0.00022341 0)
(0.0546805 0.000207351 0)
(0.0534125 0.000192945 0)
(0.052218 0.000179965 0)
(0.0510901 0.000168223 0)
(0.0500232 0.000157564 0)
(0.0490122 0.000147856 0)
(0.0480524 0.000138988 0)
(0.0471399 0.000130866 0)
(0.0462711 0.000123408 0)
(0.0454427 0.000116544 0)
(0.0446517 0.000110213 0)
(0.0438956 0.000104362 0)
(0.0431719 9.89436e-05 0)
(0.0424785 9.39177e-05 0)
(0.0418134 8.92476e-05 0)
(0.0411748 8.49011e-05 0)
(0.0405609 8.08495e-05 0)
(0.0399704 7.70671e-05 0)
(0.0394017 7.3531e-05 0)
(0.0388536 7.02207e-05 0)
(0.038325 6.71176e-05 0)
(0.0378147 6.42049e-05 0)
(0.0373216 6.14676e-05 0)
(0.036845 5.8892e-05 0)
(0.0363839 5.64658e-05 0)
(0.0359374 5.41777e-05 0)
(0.0355049 5.20176e-05 0)
(0.0350857 4.99762e-05 0)
(0.0346791 4.80454e-05 0)
(0.0342845 4.62174e-05 0)
(0.0339014 4.44854e-05 0)
(0.0335291 4.28434e-05 0)
(0.0331673 4.12859e-05 0)
(0.0328154 3.9808e-05 0)
(0.0324731 3.84053e-05 0)
(0.0321398 3.7074e-05 0)
(0.0318151 3.58111e-05 0)
(0.0314988 3.46137e-05 0)
(0.0311904 3.34797e-05 0)
(0.0308894 3.24077e-05 0)
(0.0305957 3.1397e-05 0)
(0.0303087 3.04476e-05 0)
(0.030028 2.95613e-05 0)
(0.0297533 2.87423e-05 0)
(0.0294841 2.80013e-05 0)
(0.0292197 2.73552e-05 0)
(0.0289599 2.69579e-05 0)
(0.0286945 2.64826e-05 0)
(0.0284904 2.75937e-05 0)
(0.0279002 8.2288e-05 0)
(0.191305 0.0115778 0)
(0.190658 0.0118787 0)
(0.187724 0.011095 0)
(0.182995 0.00984939 0)
(0.177222 0.00842564 0)
(0.170939 0.0070293 0)
(0.164495 0.00579803 0)
(0.15813 0.00478613 0)
(0.151997 0.00398675 0)
(0.146178 0.00336427 0)
(0.140706 0.00287756 0)
(0.135585 0.00249126 0)
(0.130803 0.00217896 0)
(0.126343 0.00192209 0)
(0.122185 0.00170782 0)
(0.118306 0.00152711 0)
(0.114685 0.00137333 0)
(0.111302 0.00124147 0)
(0.108136 0.00112764 0)
(0.105171 0.00102874 0)
(0.102388 0.000942283 0)
(0.0997723 0.000866254 0)
(0.09731 0.000799024 0)
(0.0949882 0.000739262 0)
(0.0927953 0.000685879 0)
(0.0907209 0.000637979 0)
(0.0887557 0.00059482 0)
(0.0868911 0.000555783 0)
(0.0851197 0.00052035 0)
(0.0834344 0.000488085 0)
(0.0818291 0.000458616 0)
(0.0802981 0.000431628 0)
(0.0788362 0.00040685 0)
(0.0774388 0.000384045 0)
(0.0761015 0.000363013 0)
(0.0748205 0.000343574 0)
(0.0735922 0.000325574 0)
(0.0724133 0.000308876 0)
(0.0712808 0.00029336 0)
(0.0701919 0.000278919 0)
(0.0691441 0.000265457 0)
(0.0681348 0.000252889 0)
(0.0671621 0.000241141 0)
(0.0662238 0.000230142 0)
(0.065318 0.000219832 0)
(0.0644431 0.000210155 0)
(0.0635973 0.000201061 0)
(0.0627792 0.000192505 0)
(0.0619874 0.000184446 0)
(0.0612206 0.000176845 0)
(0.0604775 0.00016967 0)
(0.059757 0.000162888 0)
(0.0590581 0.000156473 0)
(0.0583798 0.000150397 0)
(0.0577211 0.000144639 0)
(0.0570812 0.000139177 0)
(0.0564592 0.000133992 0)
(0.0558544 0.000129067 0)
(0.0552661 0.000124386 0)
(0.0546936 0.000119935 0)
(0.0541362 0.000115703 0)
(0.0535933 0.000111679 0)
(0.0530643 0.000107854 0)
(0.0525486 0.000104221 0)
(0.0520457 0.000100775 0)
(0.051555 9.7511e-05 0)
(0.0510759 9.44295e-05 0)
(0.0506078 9.15333e-05 0)
(0.0501502 8.88328e-05 0)
(0.0497022 8.63545e-05 0)
(0.0492631 8.41526e-05 0)
(0.0488319 8.25781e-05 0)
(0.0483994 8.09246e-05 0)
(0.0480199 8.97994e-05 0)
(0.0472454 0.00017194 0)
(0.193214 0.0110366 0)
(0.194857 0.0118115 0)
(0.195292 0.0115261 0)
(0.194379 0.0106911 0)
(0.192392 0.00957177 0)
(0.189608 0.00837296 0)
(0.186264 0.00724846 0)
(0.182571 0.00627589 0)
(0.178696 0.00547029 0)
(0.174754 0.00481332 0)
(0.170817 0.00427594 0)
(0.166928 0.00383039 0)
(0.163113 0.00345463 0)
(0.159389 0.00313263 0)
(0.155766 0.00285314 0)
(0.152252 0.00260821 0)
(0.148851 0.00239205 0)
(0.145567 0.00220025 0)
(0.142401 0.00202933 0)
(0.139351 0.00187644 0)
(0.136417 0.00173921 0)
(0.133596 0.00161564 0)
(0.130885 0.00150403 0)
(0.12828 0.00140293 0)
(0.125777 0.00131109 0)
(0.123373 0.00122744 0)
(0.121063 0.00115106 0)
(0.118843 0.00108115 0)
(0.116709 0.001017 0)
(0.114657 0.00095803 0)
(0.112683 0.000903697 0)
(0.110783 0.000853542 0)
(0.108954 0.000807158 0)
(0.107192 0.000764187 0)
(0.105494 0.000724313 0)
(0.103857 0.000687253 0)
(0.102278 0.000652758 0)
(0.100753 0.000620605 0)
(0.0992812 0.000590592 0)
(0.0978588 0.000562542 0)
(0.0964839 0.000536292 0)
(0.095154 0.000511697 0)
(0.0938672 0.000488624 0)
(0.0926213 0.000466956 0)
(0.0914145 0.000446582 0)
(0.0902451 0.000427405 0)
(0.0891112 0.000409336 0)
(0.0880114 0.000392291 0)
(0.0869441 0.000376196 0)
(0.0859079 0.000360983 0)
(0.0849015 0.000346588 0)
(0.0839236 0.000332956 0)
(0.0829731 0.000320033 0)
(0.0820488 0.000307772 0)
(0.0811497 0.000296128 0)
(0.0802749 0.000285061 0)
(0.0794232 0.000274536 0)
(0.078594 0.00026452 0)
(0.0777862 0.000254981 0)
(0.0769992 0.000245895 0)
(0.0762322 0.000237237 0)
(0.0754844 0.000228985 0)
(0.0747552 0.000221124 0)
(0.0740438 0.000213636 0)
(0.0733496 0.000206512 0)
(0.0726719 0.000199744 0)
(0.07201 0.000193328 0)
(0.0713633 0.000187269 0)
(0.0707311 0.000181585 0)
(0.0701124 0.000176322 0)
(0.0695063 0.000171589 0)
(0.0689114 0.000167898 0)
(0.0683204 0.000165004 0)
(0.0677696 0.000180837 0)
(0.0668705 0.000274294 0)
(0.194056 0.0103809 0)
(0.196112 0.0113142 0)
(0.197649 0.0112983 0)
(0.198354 0.0107483 0)
(0.198272 0.00989489 0)
(0.197509 0.00891404 0)
(0.196183 0.00794862 0)
(0.194431 0.0070822 0)
(0.192382 0.00634229 0)
(0.190134 0.00572277 0)
(0.187752 0.00520397 0)
(0.18528 0.00476438 0)
(0.182748 0.00438582 0)
(0.180175 0.00405461 0)
(0.177579 0.003761 0)
(0.174972 0.00349811 0)
(0.172366 0.00326099 0)
(0.169771 0.00304593 0)
(0.167195 0.00285004 0)
(0.164647 0.00267099 0)
(0.162131 0.00250686 0)
(0.159654 0.00235602 0)
(0.157219 0.00221707 0)
(0.154829 0.00208881 0)
(0.152487 0.00197022 0)
(0.150194 0.00186037 0)
(0.147953 0.00175846 0)
(0.145764 0.00166378 0)
(0.143628 0.0015757 0)
(0.141544 0.00149367 0)
(0.139512 0.00141716 0)
(0.137532 0.00134574 0)
(0.135604 0.00127899 0)
(0.133726 0.00121654 0)
(0.131897 0.00115805 0)
(0.130117 0.00110322 0)
(0.128384 0.00105178 0)
(0.126697 0.00100347 0)
(0.125055 0.000958058 0)
(0.123457 0.000915334 0)
(0.121901 0.000875104 0)
(0.120387 0.00083719 0)
(0.118912 0.000801428 0)
(0.117475 0.000767669 0)
(0.116076 0.000735772 0)
(0.114714 0.000705611 0)
(0.113386 0.000677068 0)
(0.112092 0.000650032 0)
(0.110831 0.000624404 0)
(0.109601 0.00060009 0)
(0.108402 0.000577004 0)
(0.107233 0.000555066 0)
(0.106093 0.000534204 0)
(0.10498 0.000514348 0)
(0.103895 0.000495437 0)
(0.102835 0.000477412 0)
(0.101801 0.000460222 0)
(0.100791 0.000443817 0)
(0.0998048 0.000428155 0)
(0.0988418 0.000413194 0)
(0.0979011 0.000398901 0)
(0.0969821 0.000385243 0)
(0.0960841 0.000372193 0)
(0.0952065 0.00035973 0)
(0.0943487 0.000347834 0)
(0.09351 0.000336495 0)
(0.0926898 0.000325708 0)
(0.0918873 0.000315477 0)
(0.091102 0.000305831 0)
(0.0903329 0.000296835 0)
(0.089579 0.000288669 0)
(0.0888389 0.000281982 0)
(0.0881066 0.000277636 0)
(0.0874076 0.000297129 0)
(0.0864153 0.000387462 0)
(0.194638 0.0097612 0)
(0.196566 0.0107159 0)
(0.19831 0.0108436 0)
(0.199551 0.0104776 0)
(0.20026 0.00982035 0)
(0.200465 0.00902018 0)
(0.200221 0.00820198 0)
(0.199609 0.00744637 0)
(0.198718 0.00678652 0)
(0.197622 0.00622407 0)
(0.196371 0.00574623 0)
(0.194999 0.00533655 0)
(0.193528 0.0049801 0)
(0.191975 0.00466518 0)
(0.190351 0.00438319 0)
(0.188666 0.00412798 0)
(0.18693 0.00389512 0)
(0.185151 0.00368129 0)
(0.183337 0.00348397 0)
(0.181495 0.00330115 0)
(0.179632 0.00313121 0)
(0.177754 0.0029728 0)
(0.175867 0.0028248 0)
(0.173975 0.00268624 0)
(0.172084 0.00255629 0)
(0.170198 0.00243425 0)
(0.168319 0.00231948 0)
(0.166453 0.00221144 0)
(0.1646 0.00210964 0)
(0.162765 0.00201363 0)
(0.160949 0.00192302 0)
(0.159153 0.00183744 0)
(0.157381 0.00175657 0)
(0.155632 0.0016801 0)
(0.153909 0.00160775 0)
(0.152211 0.00153927 0)
(0.150541 0.00147442 0)
(0.148897 0.00141297 0)
(0.147281 0.00135473 0)
(0.145694 0.00129948 0)
(0.144134 0.00124707 0)
(0.142602 0.00119731 0)
(0.141098 0.00115004 0)
(0.139623 0.00110513 0)
(0.138175 0.00106242 0)
(0.136754 0.0010218 0)
(0.135361 0.00098313 0)
(0.133994 0.000946304 0)
(0.132654 0.000911212 0)
(0.131341 0.000877752 0)
(0.130052 0.000845831 0)
(0.128789 0.000815358 0)
(0.127551 0.000786251 0)
(0.126337 0.000758433 0)
(0.125147 0.00073183 0)
(0.123981 0.000706376 0)
(0.122838 0.000682008 0)
(0.121717 0.00065867 0)
(0.120619 0.000636308 0)
(0.119542 0.000614875 0)
(0.118487 0.000594327 0)
(0.117452 0.000574626 0)
(0.116438 0.00055574 0)
(0.115445 0.000537641 0)
(0.11447 0.000520307 0)
(0.113515 0.000503724 0)
(0.112579 0.000487889 0)
(0.111661 0.000472809 0)
(0.11076 0.000458523 0)
(0.109876 0.000445123 0)
(0.109009 0.000432857 0)
(0.108156 0.000422522 0)
(0.107313 0.000416148 0)
(0.106501 0.000435418 0)
(0.105446 0.000511322 0)
(0.195133 0.00919915 0)
(0.196823 0.0101235 0)
(0.198479 0.010336 0)
(0.199817 0.0100953 0)
(0.20078 0.00958011 0)
(0.201374 0.00891854 0)
(0.201627 0.00821917 0)
(0.20159 0.00755712 0)
(0.201328 0.00696794 0)
(0.200894 0.00645861 0)
(0.20033 0.00602157 0)
(0.199661 0.00564443 0)
(0.198903 0.00531496 0)
(0.198066 0.00502302 0)
(0.197158 0.00476087 0)
(0.196184 0.00452282 0)
(0.195149 0.00430467 0)
(0.194058 0.0041033 0)
(0.192916 0.00391632 0)
(0.191728 0.00374185 0)
(0.190497 0.00357841 0)
(0.189227 0.00342479 0)
(0.187924 0.00327997 0)
(0.186591 0.00314313 0)
(0.185231 0.00301357 0)
(0.183849 0.00289069 0)
(0.182448 0.00277399 0)
(0.181031 0.00266302 0)
(0.179601 0.00255741 0)
(0.178162 0.00245681 0)
(0.176715 0.00236092 0)
(0.175264 0.00226948 0)
(0.17381 0.00218222 0)
(0.172357 0.00209893 0)
(0.170905 0.0020194 0)
(0.169457 0.00194344 0)
(0.168015 0.00187087 0)
(0.166579 0.00180151 0)
(0.165152 0.00173521 0)
(0.163734 0.00167183 0)
(0.162327 0.0016112 0)
(0.160932 0.00155321 0)
(0.159549 0.00149773 0)
(0.158179 0.00144462 0)
(0.156823 0.00139378 0)
(0.155481 0.00134509 0)
(0.154154 0.00129844 0)
(0.152843 0.00125374 0)
(0.151547 0.00121089 0)
(0.150268 0.0011698 0)
(0.149005 0.00113037 0)
(0.147758 0.00109253 0)
(0.146528 0.00105619 0)
(0.145315 0.00102129 0)
(0.144119 0.000987751 0)
(0.14294 0.000955507 0)
(0.141778 0.000924498 0)
(0.140632 0.000894666 0)
(0.139504 0.000865959 0)
(0.138393 0.000838327 0)
(0.137299 0.000811729 0)
(0.136222 0.000786124 0)
(0.135162 0.00076148 0)
(0.134118 0.00073777 0)
(0.133091 0.000714973 0)
(0.13208 0.000693078 0)
(0.131085 0.000672085 0)
(0.130106 0.000652011 0)
(0.129143 0.000632906 0)
(0.128195 0.000614891 0)
(0.127262 0.000598277 0)
(0.126342 0.000584003 0)
(0.125432 0.000574905 0)
(0.124555 0.000590375 0)
(0.123473 0.00064376 0)
(0.195578 0.0087022 0)
(0.197038 0.00957421 0)
(0.198532 0.00983992 0)
(0.199813 0.00969113 0)
(0.200814 0.00928367 0)
(0.201531 0.00873049 0)
(0.20198 0.00812643 0)
(0.202199 0.00754051 0)
(0.202238 0.00700919 0)
(0.202142 0.00654339 0)
(0.201943 0.00613986 0)
(0.201665 0.00578972 0)
(0.20132 0.00548311 0)
(0.200915 0.00521134 0)
(0.200455 0.00496748 0)
(0.199943 0.00474621 0)
(0.199382 0.00454354 0)
(0.198773 0.00435641 0)
(0.198119 0.00418249 0)
(0.197421 0.00401993 0)
(0.19668 0.00386725 0)
(0.195901 0.00372327 0)
(0.195083 0.003587 0)
(0.194229 0.00345765 0)
(0.193342 0.00333456 0)
(0.192423 0.00321716 0)
(0.191475 0.003105 0)
(0.1905 0.00299768 0)
(0.189499 0.00289485 0)
(0.188475 0.00279624 0)
(0.187431 0.00270158 0)
(0.186367 0.00261067 0)
(0.185286 0.00252329 0)
(0.18419 0.00243928 0)
(0.183081 0.00235847 0)
(0.181959 0.00228073 0)
(0.180828 0.00220591 0)
(0.179689 0.00213388 0)
(0.178542 0.00206454 0)
(0.17739 0.00199778 0)
(0.176234 0.00193347 0)
(0.175076 0.00187154 0)
(0.173915 0.00181187 0)
(0.172754 0.00175438 0)
(0.171594 0.00169898 0)
(0.170435 0.00164558 0)
(0.169279 0.0015941 0)
(0.168126 0.00154446 0)
(0.166977 0.00149659 0)
(0.165834 0.00145041 0)
(0.164695 0.00140584 0)
(0.163563 0.00136283 0)
(0.162438 0.0013213 0)
(0.16132 0.00128119 0)
(0.160211 0.00124244 0)
(0.159109 0.001205 0)
(0.158017 0.00116882 0)
(0.156933 0.00113383 0)
(0.15586 0.00110001 0)
(0.154796 0.0010673 0)
(0.153743 0.00103566 0)
(0.1527 0.00100508 0)
(0.151668 0.000975508 0)
(0.150646 0.000946936 0)
(0.149636 0.000919348 0)
(0.148638 0.00089274 0)
(0.147651 0.000867118 0)
(0.146675 0.000842513 0)
(0.14571 0.000818991 0)
(0.144757 0.0007967 0)
(0.143815 0.000776004 0)
(0.142883 0.000757932 0)
(0.14196 0.000745611 0)
(0.141069 0.000754551 0)
(0.140005 0.000780915 0)
(0.195983 0.0082645 0)
(0.197242 0.00907431 0)
(0.198569 0.00937265 0)
(0.199752 0.00929551 0)
(0.200715 0.00897518 0)
(0.201447 0.00851142 0)
(0.20196 0.00798732 0)
(0.202282 0.00746572 0)
(0.202454 0.006983 0)
(0.202514 0.0065531 0)
(0.202493 0.00617639 0)
(0.202409 0.0058471 0)
(0.202277 0.00555768 0)
(0.202102 0.00530088 0)
(0.20189 0.00507064 0)
(0.201642 0.0048621 0)
(0.201361 0.0046715 0)
(0.201046 0.00449591 0)
(0.200698 0.00433302 0)
(0.200318 0.00418099 0)
(0.199906 0.00403835 0)
(0.199463 0.0039039 0)
(0.198989 0.00377664 0)
(0.198485 0.00365576 0)
(0.197951 0.00354059 0)
(0.197389 0.00343055 0)
(0.196798 0.00332519 0)
(0.196181 0.0032241 0)
(0.195537 0.00312694 0)
(0.194869 0.00303344 0)
(0.194176 0.00294335 0)
(0.19346 0.00285646 0)
(0.192722 0.00277258 0)
(0.191964 0.00269157 0)
(0.191185 0.00261327 0)
(0.190388 0.00253756 0)
(0.189574 0.00246433 0)
(0.188744 0.00239347 0)
(0.187898 0.00232489 0)
(0.187038 0.00225849 0)
(0.186166 0.0021942 0)
(0.185281 0.00213194 0)
(0.184386 0.00207163 0)
(0.183481 0.0020132 0)
(0.182567 0.00195658 0)
(0.181645 0.00190171 0)
(0.180716 0.00184853 0)
(0.179781 0.00179696 0)
(0.178841 0.00174696 0)
(0.177896 0.00169846 0)
(0.176948 0.00165142 0)
(0.175998 0.00160577 0)
(0.175045 0.00156146 0)
(0.174091 0.00151846 0)
(0.173137 0.0014767 0)
(0.172182 0.00143614 0)
(0.171228 0.00139675 0)
(0.170276 0.00135848 0)
(0.169325 0.0013213 0)
(0.168377 0.00128518 0)
(0.167432 0.00125008 0)
(0.166491 0.00121599 0)
(0.165553 0.00118288 0)
(0.16462 0.00115075 0)
(0.163692 0.00111959 0)
(0.162768 0.0010894 0)
(0.161851 0.00106021 0)
(0.160939 0.00103207 0)
(0.160033 0.00100504 0)
(0.159132 0.000979308 0)
(0.158238 0.000955268 0)
(0.157351 0.000933958 0)
(0.156469 0.000918292 0)
(0.155618 0.00091914 0)
(0.154616 0.000917721 0)
(0.196352 0.00787689 0)
(0.197441 0.00862124 0)
(0.198614 0.00893764 0)
(0.199691 0.00891781 0)
(0.200594 0.0086707 0)
(0.201305 0.00828367 0)
(0.201829 0.00782948 0)
(0.202189 0.00736492 0)
(0.202417 0.00692542 0)
(0.202547 0.00652705 0)
(0.202607 0.00617322 0)
(0.202615 0.0058609 0)
(0.202584 0.00558469 0)
(0.202521 0.00533881 0)
(0.202433 0.00511811 0)
(0.202321 0.0049183 0)
(0.202186 0.00473594 0)
(0.202031 0.00456826 0)
(0.201854 0.00441307 0)
(0.201657 0.00426857 0)
(0.201439 0.00413331 0)
(0.2012 0.00400608 0)
(0.20094 0.00388589 0)
(0.20066 0.00377192 0)
(0.200358 0.00366346 0)
(0.200035 0.00355995 0)
(0.199691 0.00346088 0)
(0.199326 0.00336585 0)
(0.198941 0.0032745 0)
(0.198534 0.00318654 0)
(0.198107 0.0031017 0)
(0.19766 0.00301978 0)
(0.197192 0.00294058 0)
(0.196706 0.00286394 0)
(0.1962 0.0027897 0)
(0.195675 0.00271775 0)
(0.195132 0.00264796 0)
(0.194572 0.00258025 0)
(0.193995 0.00251451 0)
(0.193401 0.00245066 0)
(0.192791 0.00238862 0)
(0.192166 0.00232832 0)
(0.191526 0.0022697 0)
(0.190873 0.00221269 0)
(0.190206 0.00215724 0)
(0.189526 0.00210327 0)
(0.188835 0.00205075 0)
(0.188132 0.00199962 0)
(0.187418 0.00194983 0)
(0.186694 0.00190132 0)
(0.185961 0.00185407 0)
(0.18522 0.00180802 0)
(0.18447 0.00176312 0)
(0.183713 0.00171935 0)
(0.182949 0.00167666 0)
(0.182179 0.00163502 0)
(0.181403 0.00159439 0)
(0.180623 0.00155475 0)
(0.179838 0.00151606 0)
(0.179049 0.00147831 0)
(0.178257 0.00144147 0)
(0.177463 0.00140553 0)
(0.176666 0.00137049 0)
(0.175868 0.00133633 0)
(0.175068 0.00130307 0)
(0.174268 0.00127072 0)
(0.173468 0.00123931 0)
(0.172667 0.0012089 0)
(0.171868 0.00117959 0)
(0.171068 0.00115157 0)
(0.17027 0.00112523 0)
(0.169474 0.00110154 0)
(0.16868 0.00108281 0)
(0.167913 0.00107524 0)
(0.167013 0.00104869 0)
(0.196687 0.00753136 0)
(0.197634 0.0082111 0)
(0.19867 0.00853471 0)
(0.199644 0.00856058 0)
(0.200483 0.00837575 0)
(0.201159 0.0080557 0)
(0.201675 0.00766404 0)
(0.202047 0.0072516 0)
(0.2023 0.00685225 0)
(0.202463 0.00648336 0)
(0.202561 0.00615072 0)
(0.202612 0.0058537 0)
(0.202628 0.00558881 0)
(0.202618 0.00535169 0)
(0.202588 0.00513814 0)
(0.20254 0.00494447 0)
(0.202477 0.00476764 0)
(0.2024 0.00460511 0)
(0.20231 0.00445483 0)
(0.202207 0.00431511 0)
(0.202092 0.00418456 0)
(0.201965 0.004062 0)
(0.201825 0.00394648 0)
(0.201672 0.00383715 0)
(0.201506 0.00373334 0)
(0.201327 0.00363445 0)
(0.201134 0.00353999 0)
(0.200928 0.00344954 0)
(0.200707 0.00336272 0)
(0.200473 0.00327923 0)
(0.200223 0.0031988 0)
(0.19996 0.0031212 0)
(0.199681 0.00304621 0)
(0.199387 0.00297367 0)
(0.199079 0.00290342 0)
(0.198755 0.00283531 0)
(0.198417 0.00276924 0)
(0.198064 0.00270508 0)
(0.197696 0.00264273 0)
(0.197313 0.00258212 0)
(0.196916 0.00252314 0)
(0.196504 0.00246574 0)
(0.196079 0.00240984 0)
(0.195639 0.00235536 0)
(0.195186 0.00230227 0)
(0.194719 0.00225048 0)
(0.19424 0.00219996 0)
(0.193748 0.00215065 0)
(0.193243 0.0021025 0)
(0.192726 0.00205547 0)
(0.192198 0.00200951 0)
(0.191659 0.00196459 0)
(0.191108 0.00192065 0)
(0.190548 0.00187767 0)
(0.189977 0.00183562 0)
(0.189397 0.00179445 0)
(0.188808 0.00175415 0)
(0.18821 0.00171469 0)
(0.187604 0.00167604 0)
(0.18699 0.00163818 0)
(0.186369 0.00160111 0)
(0.185741 0.00156482 0)
(0.185107 0.00152929 0)
(0.184466 0.00149455 0)
(0.183821 0.00146059 0)
(0.18317 0.00142745 0)
(0.182514 0.00139516 0)
(0.181854 0.0013638 0)
(0.18119 0.00133346 0)
(0.180522 0.00130435 0)
(0.179851 0.00127684 0)
(0.179177 0.00125173 0)
(0.178504 0.00123054 0)
(0.17785 0.00121528 0)
(0.177078 0.00116884 0)
(0.196991 0.0072213 0)
(0.197819 0.00783968 0)
(0.198734 0.00816249 0)
(0.199614 0.00822413 0)
(0.200387 0.00809221 0)
(0.201026 0.0078309 0)
(0.201526 0.00749553 0)
(0.201899 0.00713131 0)
(0.202163 0.00677001 0)
(0.202344 0.00642962 0)
(0.202463 0.0061177 0)
(0.202536 0.00583561 0)
(0.202576 0.00558155 0)
(0.202591 0.00535247 0)
(0.202588 0.00514509 0)
(0.20257 0.00495637 0)
(0.20254 0.00478364 0)
(0.2025 0.00462469 0)
(0.202451 0.00447763 0)
(0.202394 0.0043409 0)
(0.202329 0.0042132 0)
(0.202257 0.00409342 0)
(0.202177 0.00398064 0)
(0.202091 0.00387406 0)
(0.201997 0.00377301 0)
(0.201896 0.00367693 0)
(0.201787 0.00358531 0)
(0.20167 0.00349775 0)
(0.201545 0.00341386 0)
(0.201412 0.00333334 0)
(0.20127 0.00325591 0)
(0.201118 0.00318133 0)
(0.200958 0.00310939 0)
(0.200788 0.00303991 0)
(0.200608 0.00297271 0)
(0.200417 0.00290765 0)
(0.200217 0.0028446 0)
(0.200006 0.00278343 0)
(0.199784 0.00272405 0)
(0.199551 0.00266634 0)
(0.199307 0.00261023 0)
(0.199052 0.00255562 0)
(0.198786 0.00250244 0)
(0.198509 0.00245062 0)
(0.19822 0.00240009 0)
(0.19792 0.00235079 0)
(0.197609 0.00230266 0)
(0.197286 0.00225563 0)
(0.196952 0.00220967 0)
(0.196607 0.00216472 0)
(0.196251 0.00212074 0)
(0.195884 0.00207767 0)
(0.195506 0.00203549 0)
(0.195118 0.00199415 0)
(0.194719 0.00195361 0)
(0.19431 0.00191385 0)
(0.193891 0.00187483 0)
(0.193462 0.00183654 0)
(0.193024 0.00179894 0)
(0.192576 0.00176203 0)
(0.192119 0.00172578 0)
(0.191654 0.0016902 0)
(0.19118 0.00165528 0)
(0.190697 0.00162104 0)
(0.190207 0.00158748 0)
(0.189709 0.00155464 0)
(0.189204 0.00152257 0)
(0.188692 0.00149133 0)
(0.188172 0.00146105 0)
(0.187646 0.0014319 0)
(0.187114 0.00140422 0)
(0.186577 0.00137859 0)
(0.186037 0.00135567 0)
(0.185512 0.00133421 0)
(0.18488 0.00127453 0)
(0.197269 0.00694131 0)
(0.197995 0.00750285 0)
(0.198804 0.00781913 0)
(0.199596 0.0079081 0)
(0.200308 0.00782082 0)
(0.200908 0.00761091 0)
(0.201389 0.00732618 0)
(0.201756 0.0070066 0)
(0.202026 0.00668151 0)
(0.202218 0.00636894 0)
(0.20235 0.0060777 0)
(0.202437 0.00581072 0)
(0.202491 0.00556768 0)
(0.202521 0.0053467 0)
(0.202532 0.00514538 0)
(0.20253 0.00496129 0)
(0.202516 0.0047922 0)
(0.202493 0.00463617 0)
(0.202463 0.00449154 0)
(0.202427 0.0043569 0)
(0.202385 0.00423104 0)
(0.202339 0.00411294 0)
(0.202288 0.00400173 0)
(0.202234 0.00389667 0)
(0.202175 0.00379713 0)
(0.202112 0.00370254 0)
(0.202046 0.00361245 0)
(0.201975 0.00352643 0)
(0.201901 0.00344415 0)
(0.201821 0.00336528 0)
(0.201738 0.00328956 0)
(0.201649 0.00321675 0)
(0.201556 0.00314664 0)
(0.201457 0.00307903 0)
(0.201352 0.00301376 0)
(0.201242 0.00295068 0)
(0.201126 0.00288965 0)
(0.201003 0.00283055 0)
(0.200873 0.00277326 0)
(0.200737 0.00271768 0)
(0.200593 0.0026637 0)
(0.200442 0.00261125 0)
(0.200284 0.00256023 0)
(0.200117 0.00251057 0)
(0.199943 0.00246219 0)
(0.19976 0.00241503 0)
(0.199569 0.00236902 0)
(0.19937 0.00232409 0)
(0.199161 0.0022802 0)
(0.198944 0.00223728 0)
(0.198719 0.00219529 0)
(0.198484 0.00215417 0)
(0.19824 0.00211388 0)
(0.197988 0.00207437 0)
(0.197726 0.00203562 0)
(0.197455 0.00199758 0)
(0.197175 0.00196021 0)
(0.196887 0.0019235 0)
(0.196589 0.00188742 0)
(0.196282 0.00185195 0)
(0.195967 0.00181708 0)
(0.195642 0.00178279 0)
(0.195309 0.00174909 0)
(0.194968 0.00171599 0)
(0.194618 0.00168351 0)
(0.194259 0.00165167 0)
(0.193893 0.00162053 0)
(0.193518 0.00159016 0)
(0.193135 0.00156067 0)
(0.192744 0.00153222 0)
(0.192346 0.0015051 0)
(0.191942 0.00147963 0)
(0.191533 0.00145573 0)
(0.191134 0.0014299 0)
(0.190638 0.00136384 0)
(0.197521 0.00668705 0)
(0.198162 0.00719678 0)
(0.198878 0.00750269 0)
(0.199591 0.00761188 0)
(0.200243 0.00756189 0)
(0.200804 0.00739676 0)
(0.201263 0.00715743 0)
(0.201623 0.006879 0)
(0.201894 0.00658826 0)
(0.202093 0.00630278 0)
(0.202234 0.0060322 0)
(0.202332 0.00578066 0)
(0.202396 0.00554905 0)
(0.202436 0.00533656 0)
(0.202457 0.00514157 0)
(0.202464 0.00496226 0)
(0.202459 0.00479682 0)
(0.202445 0.00464362 0)
(0.202425 0.00450121 0)
(0.202399 0.00436833 0)
(0.202369 0.0042439 0)
(0.202334 0.00412698 0)
(0.202297 0.00401678 0)
(0.202257 0.00391261 0)
(0.202215 0.00381386 0)
(0.20217 0.00372002 0)
(0.202124 0.00363065 0)
(0.202076 0.00354535 0)
(0.202025 0.0034638 0)
(0.201973 0.00338569 0)
(0.201919 0.00331076 0)
(0.201862 0.00323878 0)
(0.201804 0.00316955 0)
(0.201743 0.00310288 0)
(0.201679 0.0030386 0)
(0.201612 0.00297657 0)
(0.201543 0.00291664 0)
(0.20147 0.0028587 0)
(0.201393 0.00280263 0)
(0.201313 0.00274832 0)
(0.201229 0.00269566 0)
(0.201141 0.00264458 0)
(0.201048 0.00259497 0)
(0.200951 0.00254677 0)
(0.200849 0.00249988 0)
(0.200742 0.00245424 0)
(0.200629 0.00240978 0)
(0.200511 0.00236643 0)
(0.200387 0.00232413 0)
(0.200257 0.00228281 0)
(0.200121 0.00224243 0)
(0.199979 0.00220293 0)
(0.19983 0.00216426 0)
(0.199675 0.00212637 0)
(0.199512 0.00208922 0)
(0.199343 0.00205277 0)
(0.199167 0.00201698 0)
(0.198984 0.00198182 0)
(0.198793 0.00194727 0)
(0.198595 0.0019133 0)
(0.19839 0.0018799 0)
(0.198177 0.00184706 0)
(0.197957 0.00181477 0)
(0.197729 0.00178304 0)
(0.197493 0.00175189 0)
(0.19725 0.00172135 0)
(0.196999 0.00169147 0)
(0.19674 0.00166232 0)
(0.196474 0.001634 0)
(0.1962 0.00160666 0)
(0.195918 0.0015805 0)
(0.19563 0.00155563 0)
(0.195337 0.00153137 0)
(0.195049 0.00150298 0)
(0.194677 0.00143654 0)
(0.197752 0.00645499 0)
(0.198319 0.00691803 0)
(0.198954 0.00721117 0)
(0.199595 0.00733473 0)
(0.200192 0.00731558 0)
(0.200714 0.00718921 0)
(0.20115 0.00699038 0)
(0.201499 0.00674968 0)
(0.201769 0.00649132 0)
(0.201972 0.00623208 0)
(0.20212 0.00598201 0)
(0.202226 0.00574615 0)
(0.202299 0.0055264 0)
(0.202346 0.00532284 0)
(0.202375 0.0051346 0)
(0.202388 0.00496039 0)
(0.20239 0.00479885 0)
(0.202383 0.00464863 0)
(0.202368 0.0045085 0)
(0.202348 0.00437738 0)
(0.202324 0.00425431 0)
(0.202296 0.00413844 0)
(0.202266 0.00402905 0)
(0.202233 0.0039255 0)
(0.202198 0.00382725 0)
(0.202162 0.0037338 0)
(0.202125 0.00364476 0)
(0.202087 0.00355974 0)
(0.202048 0.00347844 0)
(0.202009 0.00340058 0)
(0.201968 0.0033259 0)
(0.201927 0.00325418 0)
(0.201886 0.00318523 0)
(0.201843 0.00311888 0)
(0.201799 0.00305496 0)
(0.201755 0.00299332 0)
(0.201709 0.00293384 0)
(0.201663 0.00287638 0)
(0.201614 0.00282085 0)
(0.201565 0.00276713 0)
(0.201513 0.00271512 0)
(0.20146 0.00266473 0)
(0.201404 0.00261587 0)
(0.201346 0.00256846 0)
(0.201286 0.00252242 0)
(0.201223 0.00247767 0)
(0.201157 0.00243415 0)
(0.201088 0.00239178 0)
(0.201016 0.0023505 0)
(0.20094 0.00231025 0)
(0.200861 0.00227097 0)
(0.200778 0.00223259 0)
(0.20069 0.00219508 0)
(0.200599 0.00215838 0)
(0.200502 0.00212243 0)
(0.200402 0.00208721 0)
(0.200296 0.00205267 0)
(0.200185 0.00201878 0)
(0.20007 0.0019855 0)
(0.199949 0.00195281 0)
(0.199822 0.00192069 0)
(0.19969 0.00188913 0)
(0.199552 0.00185813 0)
(0.199408 0.0018277 0)
(0.199258 0.00179784 0)
(0.199101 0.00176858 0)
(0.198939 0.00173998 0)
(0.19877 0.0017121 0)
(0.198594 0.00168503 0)
(0.198412 0.00165889 0)
(0.198223 0.00163381 0)
(0.198028 0.00160972 0)
(0.197829 0.00158554 0)
(0.197631 0.00155619 0)
(0.197361 0.00149384 0)
(0.197962 0.00624229 0)
(0.198466 0.00666353 0)
(0.19903 0.00694259 0)
(0.199606 0.00707583 0)
(0.200151 0.00708187 0)
(0.200636 0.00698886 0)
(0.201048 0.00682596 0)
(0.201385 0.00661966 0)
(0.201651 0.00639162 0)
(0.201855 0.0061576 0)
(0.202008 0.00592771 0)
(0.20212 0.00570765 0)
(0.2022 0.00550009 0)
(0.202255 0.00530588 0)
(0.202289 0.00512479 0)
(0.202309 0.00495607 0)
(0.202316 0.00479874 0)
(0.202314 0.00465175 0)
(0.202304 0.00451411 0)
(0.202289 0.00438489 0)
(0.202269 0.00426326 0)
(0.202245 0.00414848 0)
(0.202218 0.00403989 0)
(0.20219 0.00393692 0)
(0.202159 0.00383908 0)
(0.202128 0.00374591 0)
(0.202095 0.00365704 0)
(0.202062 0.00357212 0)
(0.202029 0.00349086 0)
(0.201995 0.003413 0)
(0.201961 0.00333829 0)
(0.201928 0.00326655 0)
(0.201894 0.00319756 0)
(0.20186 0.00313118 0)
(0.201826 0.00306724 0)
(0.201792 0.00300562 0)
(0.201758 0.00294617 0)
(0.201724 0.00288878 0)
(0.20169 0.00283335 0)
(0.201655 0.00277976 0)
(0.20162 0.00272793 0)
(0.201584 0.00267776 0)
(0.201548 0.00262916 0)
(0.201511 0.00258206 0)
(0.201473 0.00253637 0)
(0.201434 0.00249202 0)
(0.201394 0.00244894 0)
(0.201353 0.00240705 0)
(0.201309 0.00236631 0)
(0.201265 0.00232663 0)
(0.201218 0.00228796 0)
(0.20117 0.00225025 0)
(0.201119 0.00221343 0)
(0.201065 0.00217746 0)
(0.20101 0.0021423 0)
(0.200951 0.00210788 0)
(0.20089 0.00207419 0)
(0.200825 0.00204117 0)
(0.200758 0.00200879 0)
(0.200686 0.00197704 0)
(0.200612 0.00194589 0)
(0.200533 0.00191532 0)
(0.20045 0.00188534 0)
(0.200363 0.00185594 0)
(0.200272 0.00182714 0)
(0.200176 0.00179896 0)
(0.200076 0.00177146 0)
(0.19997 0.00174469 0)
(0.19986 0.00171874 0)
(0.199744 0.0016937 0)
(0.199623 0.00166962 0)
(0.199498 0.00164632 0)
(0.199368 0.00162251 0)
(0.199238 0.0015934 0)
(0.199047 0.0015379 0)
(0.198155 0.00604664 0)
(0.198604 0.00643063 0)