/*--------------------------------*- C++ -*----------------------------------*\
| =========                 |                                                 |
| \\      /  F ield         | OpenFOAM: The Open Source CFD Toolbox           |
|  \\    /   O peration     | Version:  2.3.0                                 |
|   \\  /    A nd           | Web:      www.OpenFOAM.org                      |
|    \\/     M anipulation  |                                                 |
\*---------------------------------------------------------------------------*/
FoamFile
{
    version     2.0;
    format      ascii;
    class       surfaceScalarField;
    location    "0.5";
    object      phi_0;
}
// * * * * * * * * * * * * * * * * * * * * * * * * * * * * * * * * * * * * * //

dimensions      [0 3 -1 0 0 0 0];

internalField   nonuniform List<scalar> 
5273
(
3.15604e-08
3.0246e-09
2.8664e-08
2.89644e-09
2.60225e-08
2.64145e-09
2.35248e-08
2.49778e-09
2.11884e-08
2.33635e-09
1.90462e-08
2.14223e-09
1.71141e-08
1.93207e-09
1.53961e-08
1.71797e-09
1.38891e-08
1.50702e-09
1.25843e-08
1.30481e-09
1.14681e-08
1.1162e-09
1.05232e-08
9.44896e-10
9.72996e-09
7.93251e-10
9.06773e-09
6.62232e-10
8.51615e-09
5.51577e-10
8.05612e-09
4.60029e-10
7.67049e-09
3.85636e-10
7.34443e-09
3.2606e-10
7.06557e-09
2.78857e-10
6.82389e-09
2.41683e-10
6.61145e-09
2.12431e-10
6.42215e-09
1.89305e-10
6.25131e-09
1.70837e-10
6.09545e-09
1.55867e-10
5.95194e-09
1.43507e-10
5.81884e-09
1.33097e-10
5.69469e-09
1.24155e-10
5.57835e-09
1.16334e-10
5.46896e-09
1.09389e-10
5.36581e-09
1.03149e-10
5.26832e-09
9.74901e-11
5.176e-09
9.23248e-11
5.08841e-09
8.75879e-11
5.00518e-09
8.32293e-11
4.92597e-09
7.92093e-11
4.85048e-09
7.54945e-11
4.77842e-09
7.20564e-11
4.70955e-09
6.88697e-11
4.64364e-09
6.59121e-11
4.58048e-09
6.3163e-11
4.51987e-09
6.06039e-11
4.46165e-09
5.82182e-11
4.40566e-09
5.59905e-11
4.35176e-09
5.39068e-11
4.2998e-09
5.19549e-11
4.24968e-09
5.01233e-11
4.20128e-09
4.84018e-11
4.1545e-09
4.67813e-11
4.10924e-09
4.52534e-11
4.06543e-09
4.38105e-11
4.02299e-09
4.24459e-11
3.98183e-09
4.11535e-11
3.94191e-09
3.99277e-11
3.90314e-09
3.87633e-11
3.86549e-09
3.76557e-11
3.82889e-09
3.66007e-11
3.79329e-09
3.55946e-11
3.75866e-09
3.46337e-11
3.72494e-09
3.37147e-11
3.69211e-09
3.28347e-11
3.66012e-09
3.1991e-11
3.62894e-09
3.11808e-11
3.59853e-09
3.04019e-11
3.56888e-09
2.96521e-11
3.53995e-09
2.89292e-11
3.51172e-09
2.82312e-11
3.48417e-09
2.75565e-11
3.45726e-09
2.69032e-11
3.43099e-09
2.62696e-11
3.40534e-09
2.56544e-11
3.38028e-09
2.5056e-11
3.35581e-09
2.4473e-11
3.3319e-09
2.39041e-11
3.30856e-09
2.3348e-11
3.28575e-09
2.28036e-11
3.26348e-09
2.22696e-11
3.24174e-09
2.1745e-11
3.22051e-09
2.12288e-11
3.19979e-09
2.07199e-11
3.17957e-09
2.02175e-11
3.15985e-09
1.97207e-11
3.14062e-09
1.92286e-11
3.12188e-09
1.87407e-11
3.10363e-09
1.82563e-11
3.08585e-09
1.77749e-11
3.06855e-09
1.72962e-11
3.05173e-09
1.682e-11
3.03539e-09
1.63464e-11
3.01951e-09
1.58755e-11
3.0041e-09
1.5408e-11
2.98916e-09
1.49446e-11
2.97467e-09
1.4487e-11
2.96064e-09
1.40369e-11
2.94704e-09
1.35982e-11
2.93386e-09
1.31777e-11
2.92107e-09
1.27902e-11
2.90859e-09
1.2479e-11
2.89625e-09
1.23422e-11
2.88369e-09
1.25558e-11
3.27746e-11
3.64392e-08
2.45548e-09
3.61717e-08
3.16392e-09
3.55862e-08
3.22694e-09
3.48047e-08
3.27922e-09
3.38657e-08
3.27541e-09
3.28247e-08
3.18316e-09
3.17294e-08
3.02744e-09
3.06138e-08
2.83349e-09
2.95039e-08
2.61694e-09
2.84193e-08
2.38948e-09
2.73742e-08
2.16128e-09
2.63782e-08
1.94081e-09
2.54372e-08
1.73432e-09
2.45536e-08
1.54586e-09
2.37277e-08
1.37746e-09
2.29582e-08
1.22954e-09
2.22425e-08
1.10126e-09
2.15776e-08
9.90981e-10
2.09599e-08
8.96614e-10
2.03856e-08
8.15944e-10
1.98512e-08
7.46823e-10
1.93532e-08
6.87305e-10
1.88883e-08
6.35703e-10
1.84536e-08
5.90606e-10
1.80462e-08
5.5086e-10
1.76638e-08
5.15544e-10
1.7304e-08
4.83925e-10
1.69649e-08
4.55427e-10
1.66447e-08
4.29595e-10
1.63418e-08
4.06068e-10
1.60547e-08
3.84556e-10
1.57822e-08
3.64823e-10
1.55232e-08
3.46671e-10
1.52765e-08
3.29936e-10
1.50412e-08
3.14476e-10
1.48165e-08
3.00166e-10
1.46017e-08
2.86899e-10
1.4396e-08
2.74577e-10
1.41988e-08
2.63115e-10
1.40095e-08
2.52436e-10
1.38276e-08
2.42471e-10
1.36527e-08
2.33156e-10
1.34842e-08
2.24437e-10
1.33219e-08
2.16263e-10
1.31653e-08
2.08588e-10
1.3014e-08
2.0137e-10
1.28678e-08
1.94572e-10
1.27265e-08
1.88161e-10
1.25896e-08
1.82106e-10
1.2457e-08
1.7638e-10
1.23285e-08
1.70956e-10
1.22039e-08
1.65813e-10
1.20829e-08
1.60929e-10
1.19653e-08
1.56285e-10
1.18511e-08
1.51863e-10
1.17401e-08
1.47648e-10
1.16321e-08
1.43625e-10
1.15269e-08
1.3978e-10
1.14245e-08
1.36101e-10
1.13248e-08
1.32576e-10
1.12276e-08
1.29194e-10
1.11328e-08
1.25944e-10
1.10404e-08
1.22819e-10
1.09502e-08
1.19808e-10
1.08623e-08
1.16904e-10
1.07764e-08
1.14099e-10
1.06926e-08
1.11385e-10
1.06107e-08
1.08755e-10
1.05308e-08
1.06204e-10
1.04527e-08
1.03723e-10
1.03765e-08
1.01309e-10
1.0302e-08
9.89537e-11
1.02292e-08
9.66527e-11
1.01582e-08
9.44005e-11
1.00888e-08
9.2192e-11
1.0021e-08
9.00221e-11
9.9549e-09
8.78861e-11
9.89035e-09
8.57793e-11
9.82737e-09
8.36975e-11
9.76595e-09
8.16364e-11
9.70608e-09
7.95919e-11
9.64775e-09
7.75604e-11
9.59095e-09
7.55384e-11
9.53569e-09
7.35229e-11
9.48195e-09
7.15111e-11
9.42975e-09
6.95008e-11
9.37907e-09
6.74906e-11
9.32994e-09
6.54794e-11
9.28235e-09
6.34672e-11
9.2363e-09
6.14551e-11
9.1918e-09
5.94453e-11
9.14885e-09
5.74419e-11
9.10743e-09
5.54517e-11
9.06754e-09
5.34866e-11
9.02915e-09
5.15692e-11
8.99219e-09
4.97493e-11
8.95652e-09
4.8157e-11
8.92169e-09
4.71658e-11
8.88425e-09
5.00029e-11
8.13866e-11
3.78827e-08
1.77558e-09
3.83056e-08
2.74105e-09
3.84799e-08
3.05258e-09
3.85167e-08
3.24247e-09
3.84221e-08
3.37e-09
3.82036e-08
3.40163e-09
3.78814e-08
3.34971e-09
3.74757e-08
3.23911e-09
3.70049e-08
3.0878e-09
3.64852e-08
2.90916e-09
3.59314e-08
2.71513e-09
3.53559e-08
2.51624e-09
3.47693e-08
2.32096e-09
3.41797e-08
2.13547e-09
3.35934e-08
1.96374e-09
3.30151e-08
1.80783e-09
3.24481e-08
1.66829e-09
3.18945e-08
1.54458e-09
3.13557e-08
1.43544e-09
3.08323e-08
1.33926e-09
3.03249e-08
1.25431e-09
2.98332e-08
1.17895e-09
2.93572e-08
1.11166e-09
2.88967e-08
1.05117e-09
2.84512e-08
9.96377e-10
2.80203e-08
9.46417e-10
2.76036e-08
9.00578e-10
2.72008e-08
8.58298e-10
2.68112e-08
8.19131e-10
2.64346e-08
7.82719e-10
2.60704e-08
7.48771e-10
2.57181e-08
7.17051e-10
2.53775e-08
6.87359e-10
2.50479e-08
6.59524e-10
2.47289e-08
6.33397e-10
2.44203e-08
6.08849e-10
2.41214e-08
5.85759e-10
2.3832e-08
5.64022e-10
2.35515e-08
5.4354e-10
2.32797e-08
5.24223e-10
2.30162e-08
5.05989e-10
2.27606e-08
4.88761e-10
2.25126e-08
4.72469e-10
2.22718e-08
4.57049e-10
2.2038e-08
4.4244e-10
2.18107e-08
4.28586e-10
2.15899e-08
4.15436e-10
2.13751e-08
4.02943e-10
2.11661e-08
3.91063e-10
2.09628e-08
3.79754e-10
2.07647e-08
3.6898e-10
2.05718e-08
3.58704e-10
2.03839e-08
3.48894e-10
2.02006e-08
3.3952e-10
2.0022e-08
3.30554e-10
1.98476e-08
3.21969e-10
1.96775e-08
3.1374e-10
1.95115e-08
3.05845e-10
1.93493e-08
2.98262e-10
1.91909e-08
2.90971e-10
1.90361e-08
2.83952e-10
1.88849e-08
2.77188e-10
1.8737e-08
2.70661e-10
1.85925e-08
2.64356e-10
1.84511e-08
2.58257e-10
1.83129e-08
2.52349e-10
1.81777e-08
2.46619e-10
1.80454e-08
2.41053e-10
1.79159e-08
2.35639e-10
1.77893e-08
2.30363e-10
1.76654e-08
2.25214e-10
1.75442e-08
2.2018e-10
1.74256e-08
2.1525e-10
1.73095e-08
2.10413e-10
1.71961e-08
2.05659e-10
1.70851e-08
2.00976e-10
1.69767e-08
1.96354e-10
1.68707e-08
1.91784e-10
1.67671e-08
1.87255e-10
1.6666e-08
1.8276e-10
1.65673e-08
1.78287e-10
1.6471e-08
1.7383e-10
1.63772e-08
1.6938e-10
1.62858e-08
1.64929e-10
1.61968e-08
1.60472e-10
1.61103e-08
1.56002e-10
1.60263e-08
1.51515e-10
1.59447e-08
1.47007e-10
1.58657e-08
1.42478e-10
1.57893e-08
1.37929e-10
1.57153e-08
1.33362e-10
1.5644e-08
1.28785e-10
1.55752e-08
1.24211e-10
1.55091e-08
1.19664e-10
1.54454e-08
1.15187e-10
1.53843e-08
1.10875e-10
1.53255e-08
1.06979e-10
1.52683e-08
1.04362e-10
1.52099e-08
1.08405e-10
1.39378e-10
3.90452e-08
1.31546e-09
3.95339e-08
2.25232e-09
3.98916e-08
2.69487e-09
4.0177e-08
2.9571e-09
4.03998e-08
3.14718e-09
4.05487e-08
3.25277e-09
4.06223e-08
3.27606e-09
4.06255e-08
3.23598e-09
4.0564e-08
3.14926e-09
4.04447e-08
3.02844e-09
4.02752e-08
2.88459e-09
4.00636e-08
2.72789e-09
3.98175e-08
2.56702e-09
3.95442e-08
2.40876e-09
3.92501e-08
2.25792e-09
3.89403e-08
2.11756e-09
3.86195e-08
1.98917e-09
3.82909e-08
1.87311e-09
3.79574e-08
1.76892e-09
3.76211e-08
1.67563e-09
3.72834e-08
1.59202e-09
3.69455e-08
1.51681e-09
3.66084e-08
1.44878e-09
3.62727e-08
1.38685e-09
3.5939e-08
1.33007e-09
3.56078e-08
1.27766e-09
3.52794e-08
1.22899e-09
3.49541e-08
1.18356e-09
3.46323e-08
1.14095e-09
3.43141e-08
1.10086e-09
3.39999e-08
1.06301e-09
3.36897e-08
1.02721e-09
3.33838e-08
9.93279e-10
3.30823e-08
9.61077e-10
3.27852e-08
9.3048e-10
3.24927e-08
9.01379e-10
3.22047e-08
8.73678e-10
3.19215e-08
8.47289e-10
3.16429e-08
8.22133e-10
3.1369e-08
7.98135e-10
3.10997e-08
7.75228e-10
3.08351e-08
7.53348e-10
3.05752e-08
7.32435e-10
3.03198e-08
7.12434e-10
3.00689e-08
6.93293e-10
2.98226e-08
6.74963e-10
2.95806e-08
6.57399e-10
2.9343e-08
6.40558e-10
2.91096e-08
6.24399e-10
2.88805e-08
6.08885e-10
2.86555e-08
5.9398e-10
2.84346e-08
5.7965e-10
2.82176e-08
5.65863e-10
2.80045e-08
5.52589e-10
2.77953e-08
5.398e-10
2.75898e-08
5.27469e-10
2.7388e-08
5.1557e-10
2.71897e-08
5.04079e-10
2.6995e-08
4.92972e-10
2.68038e-08
4.82228e-10
2.66159e-08
4.71824e-10
2.64313e-08
4.6174e-10
2.625e-08
4.51957e-10
2.60719e-08
4.42455e-10
2.5897e-08
4.33216e-10
2.57251e-08
4.24221e-10
2.55563e-08
4.15455e-10
2.53904e-08
4.06899e-10
2.52275e-08
3.98536e-10
2.50675e-08
3.90351e-10
2.49104e-08
3.82326e-10
2.47562e-08
3.74447e-10
2.46047e-08
3.66697e-10
2.44561e-08
3.5906e-10
2.43102e-08
3.51522e-10
2.41671e-08
3.44066e-10
2.40268e-08
3.36677e-10
2.38892e-08
3.29341e-10
2.37544e-08
3.22042e-10
2.36224e-08
3.14765e-10
2.34932e-08
3.07497e-10
2.33668e-08
3.00224e-10
2.32433e-08
2.92933e-10
2.31226e-08
2.8561e-10
2.30048e-08
2.78246e-10
2.289e-08
2.7083e-10
2.27782e-08
2.63354e-10
2.26694e-08
2.55812e-10
2.25636e-08
2.482e-10
2.2461e-08
2.4052e-10
2.23616e-08
2.32776e-10
2.22654e-08
2.24978e-10
2.21725e-08
2.17146e-10
2.20829e-08
2.09315e-10
2.19965e-08
2.01554e-10
2.19134e-08
1.94004e-10
2.18333e-08
1.8704e-10
2.17557e-08
1.81923e-10
2.16799e-08
1.84207e-10
2.06626e-10
4.03208e-08
1.01333e-09
4.07301e-08
1.84309e-09
4.10905e-08
2.33443e-09
4.14117e-08
2.63587e-09
4.17071e-08
2.85182e-09
4.19672e-08
2.99263e-09
4.21844e-08
3.05886e-09
4.23566e-08
3.06383e-09
4.24836e-08
3.02224e-09
4.25665e-08
2.94557e-09
4.26075e-08
2.84358e-09
4.26101e-08
2.72527e-09
4.25785e-08
2.59859e-09
4.25172e-08
2.47003e-09
4.24307e-08
2.34448e-09
4.2323e-08
2.22527e-09
4.21977e-08
2.11441e-09
4.20581e-08
2.01278e-09
4.19065e-08
1.92048e-09
4.17451e-08
1.83703e-09
4.15755e-08
1.76164e-09
4.13989e-08
1.69339e-09
4.12164e-08
1.63132e-09
4.10287e-08
1.57455e-09
4.08365e-08
1.52227e-09
4.06403e-08
1.47381e-09
4.04407e-08
1.42861e-09
4.0238e-08
1.38622e-09
4.00327e-08
1.34626e-09
3.98251e-08
1.30845e-09
3.96156e-08
1.27255e-09
3.94044e-08
1.23838e-09
3.91919e-08
1.20578e-09
3.89784e-08
1.17463e-09
3.8764e-08
1.14483e-09
3.85491e-08
1.11627e-09
3.83339e-08
1.08889e-09
3.81186e-08
1.06261e-09
3.79034e-08
1.03737e-09
3.76884e-08
1.0131e-09
3.74739e-08
9.8976e-10
3.72599e-08
9.6729e-10
3.70467e-08
9.45647e-10
3.68343e-08
9.24786e-10
3.6623e-08
9.04666e-10
3.64127e-08
8.8525e-10
3.62036e-08
8.66501e-10
3.59958e-08
8.48385e-10
3.57893e-08
8.3087e-10
3.55842e-08
8.13926e-10
3.53807e-08
7.97524e-10
3.51787e-08
7.81637e-10
3.49783e-08
7.66239e-10
3.47796e-08
7.51305e-10
3.45826e-08
7.36812e-10
3.43873e-08
7.22738e-10
3.41939e-08
7.0906e-10
3.40022e-08
6.95758e-10
3.38123e-08
6.82812e-10
3.36244e-08
6.70202e-10
3.34383e-08
6.57908e-10
3.32541e-08
6.45913e-10
3.30719e-08
6.34198e-10
3.28916e-08
6.22745e-10
3.27133e-08
6.11537e-10
3.25369e-08
6.00556e-10
3.23626e-08
5.89783e-10
3.21903e-08
5.79204e-10
3.202e-08
5.68798e-10
3.18518e-08
5.5855e-10
3.16857e-08
5.48441e-10
3.15217e-08
5.38454e-10
3.13598e-08
5.28571e-10
3.12001e-08
5.18774e-10
3.10426e-08
5.09045e-10
3.08873e-08
4.99364e-10
3.07343e-08
4.89714e-10
3.05835e-08
4.80076e-10
3.04351e-08
4.70431e-10
3.02891e-08
4.6076e-10
3.01456e-08
4.51044e-10
3.00045e-08
4.41267e-10
2.98661e-08
4.31409e-10
2.97302e-08
4.21455e-10
2.95971e-08
4.11389e-10
2.94667e-08
4.01198e-10
2.93392e-08
3.90869e-10
2.92146e-08
3.80395e-10
2.9093e-08
3.6977e-10
2.89746e-08
3.58994e-10
2.88593e-08
3.48072e-10
2.87472e-08
3.37019e-10
2.86385e-08
3.25862e-10
2.85332e-08
3.14648e-10
2.84313e-08
3.03466e-10
2.83328e-08
2.92499e-10
2.82376e-08
2.82193e-10
2.81456e-08
2.73897e-10
2.8058e-08
2.71897e-10
2.80778e-10
4.1712e-08
8.06939e-10
4.20332e-08
1.52185e-09
4.2355e-08
2.01269e-09
4.2657e-08
2.33381e-09
4.29466e-08
2.56223e-09
4.3219e-08
2.72029e-09
4.34665e-08
2.81129e-09
4.36856e-08
2.84473e-09
4.38747e-08
2.83314e-09
4.40332e-08
2.78711e-09
4.41613e-08
2.71549e-09
4.42603e-08
2.62627e-09
4.43323e-08
2.52658e-09
4.43799e-08
2.4224e-09
4.4406e-08
2.31837e-09
4.44135e-08
2.21784e-09
4.44048e-08
2.12302e-09
4.43825e-08
2.03508e-09
4.43485e-08
1.95448e-09
4.43045e-08
1.88109e-09
4.42516e-08
1.81447e-09
4.41911e-08
1.75395e-09
4.41236e-08
1.69882e-09
4.40498e-08
1.64836e-09
4.39701e-08
1.60191e-09
4.38851e-08
1.55887e-09
4.37949e-08
1.51877e-09
4.37e-08
1.48117e-09
4.36005e-08
1.44575e-09
4.34967e-08
1.41223e-09
4.33889e-08
1.38039e-09
4.32772e-08
1.35006e-09
4.31619e-08
1.32109e-09
4.30431e-08
1.29336e-09
4.29212e-08
1.26677e-09
4.27962e-08
1.24124e-09
4.26684e-08
1.21669e-09
4.2538e-08
1.19306e-09
4.24051e-08
1.17029e-09
4.22699e-08
1.14833e-09
4.21325e-08
1.12712e-09
4.19932e-08
1.10664e-09
4.1852e-08
1.08682e-09
4.17091e-08
1.06765e-09
4.15647e-08
1.04907e-09
4.14189e-08
1.03107e-09
4.12718e-08
1.0136e-09
4.11235e-08
9.96641e-10
4.09742e-08
9.80164e-10
4.0824e-08
9.64144e-10
4.0673e-08
9.48556e-10
4.05213e-08
9.33378e-10
4.03689e-08
9.18587e-10
4.0216e-08
9.04162e-10
4.00628e-08
8.90085e-10
3.99092e-08
8.76336e-10
3.97553e-08
8.62897e-10
3.96013e-08
8.49749e-10
3.94473e-08
8.36875e-10
3.92932e-08
8.24259e-10
3.91393e-08
8.11884e-10
3.89854e-08
7.99734e-10
3.88318e-08
7.87791e-10
3.86785e-08
7.7604e-10
3.85256e-08
7.64465e-10
3.83731e-08
7.53048e-10
3.82211e-08
7.41775e-10
3.80697e-08
7.30627e-10
3.79189e-08
7.19587e-10
3.77688e-08
7.08639e-10
3.76195e-08
6.97764e-10
3.7471e-08
6.86943e-10
3.73234e-08
6.76158e-10
3.71768e-08
6.6539e-10
3.70312e-08
6.54619e-10
3.68868e-08
6.43823e-10
3.67435e-08
6.32983e-10
3.66015e-08
6.22077e-10
3.64609e-08
6.11083e-10
3.63216e-08
5.9998e-10
3.61839e-08
5.88745e-10
3.60478e-08
5.77357e-10
3.59135e-08
5.65796e-10
3.57809e-08
5.5404e-10
3.56502e-08
5.42072e-10
3.55215e-08
5.29873e-10
3.5395e-08
5.1743e-10
3.52706e-08
5.04732e-10
3.51486e-08
4.91772e-10
3.50291e-08
4.78549e-10
3.49121e-08
4.65071e-10
3.47977e-08
4.51356e-10
3.46862e-08
4.37435e-10
3.45774e-08
4.23368e-10
3.44716e-08
4.09259e-10
3.43688e-08
3.95308e-10
3.42691e-08
3.81961e-10
3.41726e-08
3.70323e-10
3.40818e-08
3.62742e-10
3.56657e-10
4.31956e-08
6.59087e-10
4.34465e-08
1.27089e-09
4.37241e-08
1.73514e-09
4.39971e-08
2.06083e-09
4.42638e-08
2.29555e-09
4.45209e-08
2.46319e-09
4.47621e-08
2.57005e-09
4.49834e-08
2.62346e-09
4.51828e-08
2.63369e-09
4.53596e-08
2.61033e-09
4.55136e-08
2.56154e-09
4.56453e-08
2.49452e-09
4.57562e-08
2.41571e-09
4.5848e-08
2.33061e-09
4.59227e-08
2.24361e-09
4.59826e-08
2.15798e-09
4.60296e-08
2.076e-09
4.60656e-08
1.99905e-09
4.60923e-08
1.92782e-09
4.61109e-08
1.86248e-09
4.61225e-08
1.80284e-09
4.6128e-08
1.74847e-09
4.6128e-08
1.69887e-09
4.61229e-08
1.65346e-09
4.61131e-08
1.61171e-09
4.60988e-08
1.57312e-09
4.60803e-08
1.53727e-09
4.60577e-08
1.50377e-09
4.60312e-08
1.47232e-09
4.60007e-08
1.44266e-09
4.59665e-08
1.41459e-09
4.59287e-08
1.38792e-09
4.58872e-08
1.36253e-09
4.58423e-08
1.33829e-09
4.5794e-08
1.3151e-09
4.57423e-08
1.29287e-09
4.56875e-08
1.27154e-09
4.56295e-08
1.25103e-09
4.55685e-08
1.2313e-09
4.55045e-08
1.21228e-09
4.54377e-08
1.19393e-09
4.53681e-08
1.17621e-09
4.52959e-08
1.15908e-09
4.5221e-08
1.14249e-09
4.51437e-08
1.12642e-09
4.50639e-08
1.11084e-09
4.49818e-08
1.0957e-09
4.48975e-08
1.08099e-09
4.48109e-08
1.06668e-09
4.47223e-08
1.05274e-09
4.46318e-08
1.03915e-09
4.45392e-08
1.02589e-09
4.44449e-08
1.01294e-09
4.43488e-08
1.00027e-09
4.4251e-08
9.87869e-10
4.41516e-08
9.75718e-10
4.40507e-08
9.638e-10
4.39484e-08
9.52096e-10
4.38447e-08
9.40589e-10
4.37396e-08
9.29264e-10
4.36334e-08
9.18105e-10
4.35261e-08
9.07094e-10
4.34176e-08
8.96217e-10
4.33082e-08
8.85457e-10
4.31979e-08
8.74798e-10
4.30867e-08
8.64223e-10
4.29748e-08
8.53716e-10
4.28621e-08
8.4326e-10
4.27489e-08
8.32836e-10
4.26351e-08
8.22426e-10
4.25209e-08
8.12013e-10
4.24062e-08
8.01576e-10
4.22913e-08
7.91094e-10
4.21761e-08
7.80548e-10
4.20608e-08
7.69915e-10
4.19455e-08
7.59173e-10
4.18302e-08
7.48298e-10
4.1715e-08
7.37267e-10
4.16e-08
7.26056e-10
4.14853e-08
7.14639e-10
4.13711e-08
7.02992e-10
4.12574e-08
6.9109e-10
4.11443e-08
6.78908e-10
4.10319e-08
6.66423e-10
4.09203e-08
6.53612e-10
4.08097e-08
6.40457e-10
4.07002e-08
6.26939e-10
4.05919e-08
6.13046e-10
4.04849e-08
5.98769e-10
4.03794e-08
5.84108e-10
4.02754e-08
5.69069e-10
4.01731e-08
5.53675e-10
4.00725e-08
5.37962e-10
3.99739e-08
5.21995e-10
3.98773e-08
5.05885e-10
3.97828e-08
4.89827e-10
3.96905e-08
4.74189e-10
3.96012e-08
4.59635e-10
3.95174e-08
4.46581e-10
4.27547e-10
4.47577e-08
5.48534e-10
4.49559e-08
1.07267e-09
4.51922e-08
1.49884e-09
4.54357e-08
1.81732e-09
4.56781e-08
2.05316e-09
4.59153e-08
2.226e-09
4.61418e-08
2.34356e-09
4.63533e-08
2.41199e-09
4.65475e-08
2.43951e-09
4.67233e-08
2.43449e-09
4.68805e-08
2.40433e-09
4.70195e-08
2.35556e-09
4.71412e-08
2.29402e-09
4.7247e-08
2.22474e-09
4.73388e-08
2.15186e-09
4.74182e-08
2.07855e-09
4.74871e-08
2.00712e-09
4.7547e-08
1.9391e-09
4.75995e-08
1.87537e-09
4.76457e-08
1.81632e-09
4.76865e-08
1.76199e-09
4.77228e-08
1.71217e-09
4.77551e-08
1.66654e-09
4.77839e-08
1.62466e-09
4.78095e-08
1.58614e-09
4.78321e-08
1.55056e-09
4.78518e-08
1.51756e-09
4.78687e-08
1.48682e-09
4.7883e-08
1.45805e-09
4.78946e-08
1.43104e-09
4.79036e-08
1.40557e-09
4.79101e-08
1.38149e-09
4.79139e-08
1.35865e-09
4.79153e-08
1.33695e-09
4.79141e-08
1.31629e-09
4.79104e-08
1.29657e-09
4.79042e-08
1.27773e-09
4.78955e-08
1.2597e-09
4.78844e-08
1.24242e-09
4.78708e-08
1.22584e-09
4.78549e-08
1.20991e-09
4.78365e-08
1.19458e-09
4.78158e-08
1.17981e-09
4.77927e-08
1.16557e-09
4.77673e-08
1.15181e-09
4.77396e-08
1.13851e-09
4.77097e-08
1.12564e-09
4.76775e-08
1.11316e-09
4.76432e-08
1.10104e-09
4.76066e-08
1.08927e-09
4.7568e-08
1.07781e-09
4.75272e-08
1.06665e-09
4.74844e-08
1.05575e-09
4.74396e-08
1.04511e-09
4.73928e-08
1.03469e-09
4.7344e-08
1.02449e-09
4.72933e-08
1.01447e-09
4.72408e-08
1.00463e-09
4.71864e-08
9.94941e-10
4.71303e-08
9.85391e-10
4.70725e-08
9.75961e-10
4.70129e-08
9.66634e-10
4.69517e-08
9.57392e-10
4.6889e-08
9.48218e-10
4.68247e-08
9.39096e-10
4.67589e-08
9.30006e-10
4.66917e-08
9.20931e-10
4.66231e-08
9.11853e-10
4.65532e-08
9.02751e-10
4.6482e-08
8.93607e-10
4.64096e-08
8.84399e-10
4.63361e-08
8.75106e-10
4.62615e-08
8.65706e-10
4.61858e-08
8.56176e-10
4.61093e-08
8.46491e-10
4.60318e-08
8.36627e-10
4.59535e-08
8.26558e-10
4.58746e-08
8.16256e-10
4.57949e-08
8.05696e-10
4.57147e-08
7.94848e-10
4.5634e-08
7.83685e-10
4.55529e-08
7.72179e-10
4.54715e-08
7.60301e-10
4.53899e-08
7.48025e-10
4.53082e-08
7.35326e-10
4.52265e-08
7.2218e-10
4.51449e-08
7.08567e-10
4.50634e-08
6.94473e-10
4.49823e-08
6.79887e-10
4.49016e-08
6.64807e-10
4.48215e-08
6.49242e-10
4.47419e-08
6.33212e-10
4.46631e-08
6.16759e-10
4.45852e-08
5.99949e-10
4.45082e-08
5.82889e-10
4.44322e-08
5.65749e-10
4.43577e-08
5.48774e-10
4.42851e-08
5.32159e-10
4.42168e-08
5.14863e-10
4.8726e-10
4.63916e-08
4.62962e-10
4.65505e-08
9.13787e-10
4.67508e-08
1.29857e-09
4.69664e-08
1.60173e-09
4.71857e-08
1.83376e-09
4.74035e-08
2.00829e-09
4.76143e-08
2.13275e-09
4.78137e-08
2.2125e-09
4.79992e-08
2.25404e-09
4.81693e-08
2.26442e-09
4.83234e-08
2.2502e-09
4.84617e-08
2.21724e-09
4.8585e-08
2.17079e-09
4.86943e-08
2.11544e-09
4.87911e-08
2.05506e-09
4.88769e-08
1.99268e-09
4.89534e-08
1.93062e-09
4.90221e-08
1.87047e-09
4.90841e-08
1.81329e-09
4.91408e-08
1.75964e-09
4.9193e-08
1.70976e-09
4.92416e-08
1.66363e-09
4.92871e-08
1.62106e-09
4.93299e-08
1.58182e-09
4.93705e-08
1.54557e-09
4.9409e-08
1.51203e-09
4.94457e-08
1.4809e-09
4.94806e-08
1.4519e-09
4.95139e-08
1.42479e-09
4.95455e-08
1.39939e-09
4.95756e-08
1.3755e-09
4.96041e-08
1.35298e-09
4.96311e-08
1.3317e-09
4.96565e-08
1.31155e-09
4.96803e-08
1.29243e-09
4.97026e-08
1.27428e-09
4.97233e-08
1.257e-09
4.97425e-08
1.24054e-09
4.97601e-08
1.22485e-09
4.97761e-08
1.20986e-09
4.97904e-08
1.19553e-09
4.98032e-08
1.18181e-09
4.98143e-08
1.16866e-09
4.98239e-08
1.15605e-09
4.98317e-08
1.14394e-09
4.9838e-08
1.13228e-09
4.98425e-08
1.12106e-09
4.98455e-08
1.11024e-09
4.98467e-08
1.09979e-09
4.98463e-08
1.08968e-09
4.98442e-08
1.07989e-09
4.98405e-08
1.07039e-09
4.98351e-08
1.06117e-09
4.9828e-08
1.05219e-09
4.98192e-08
1.04344e-09
4.98088e-08
1.03489e-09
4.97968e-08
1.02653e-09
4.97831e-08
1.01833e-09
4.97677e-08
1.01028e-09
4.97508e-08
1.00236e-09
4.97322e-08
9.9454e-10
4.9712e-08
9.86813e-10
4.96902e-08
9.79156e-10
4.96669e-08
9.7155e-10
4.9642e-08
9.63977e-10
4.96156e-08
9.56417e-10
4.95877e-08
9.4885e-10
4.95583e-08
9.41256e-10
4.95274e-08
9.33613e-10
4.94951e-08
9.259e-10
4.94614e-08
9.18094e-10
4.94264e-08
9.10172e-10
4.939e-08
9.02108e-10
4.93523e-08
8.93879e-10
4.93133e-08
8.85457e-10
4.92731e-08
8.76815e-10
4.92317e-08
8.67924e-10
4.91892e-08
8.58755e-10
4.91457e-08
8.49278e-10
4.91011e-08
8.39462e-10
4.90555e-08
8.29276e-10
4.9009e-08
8.1869e-10
4.89616e-08
8.07671e-10
4.89134e-08
7.9619e-10
4.88645e-08
7.84219e-10
4.8815e-08
7.71732e-10
4.87648e-08
7.58706e-10
4.87142e-08
7.45124e-10
4.86631e-08
7.30974e-10
4.86116e-08
7.16253e-10
4.85599e-08
7.00968e-10
4.8508e-08
6.85141e-10
4.84559e-08
6.68812e-10
4.84038e-08
6.52048e-10
4.83518e-08
6.34945e-10
4.82999e-08
6.17634e-10
4.82484e-08
6.00234e-10
4.8198e-08
5.82576e-10
4.815e-08
5.62849e-10
5.31766e-10
4.80946e-08
3.94901e-10
4.82239e-08
7.84474e-10
4.83937e-08
1.12876e-09
4.85836e-08
1.41183e-09
4.87815e-08
1.63588e-09
4.89808e-08
1.80898e-09
4.91764e-08
1.93719e-09
4.93638e-08
2.02506e-09
4.95401e-08
2.07774e-09
4.97035e-08
2.10101e-09
4.98532e-08
2.10051e-09
4.99891e-08
2.08142e-09
5.01114e-08
2.04842e-09
5.02212e-08
2.00566e-09
5.03196e-08
1.95671e-09
5.04078e-08
1.90444e-09
5.04873e-08
1.85111e-09
5.05594e-08
1.79837e-09
5.06253e-08
1.74737e-09
5.06862e-08
1.69881e-09
5.07428e-08
1.6531e-09
5.07961e-08
1.61036e-09
5.08466e-08
1.57058e-09
5.08948e-08
1.53362e-09
5.0941e-08
1.4993e-09
5.09857e-08
1.46738e-09
5.10289e-08
1.43766e-09
5.10709e-08
1.40991e-09
5.11118e-08
1.38395e-09
5.11515e-08
1.3596e-09
5.11903e-08
1.33671e-09
5.12282e-08
1.31514e-09
5.12651e-08
1.29479e-09
5.13011e-08
1.27555e-09
5.13362e-08
1.25734e-09
5.13704e-08
1.24008e-09
5.14037e-08
1.2237e-09
5.14361e-08
1.20814e-09
5.14676e-08
1.19335e-09
5.14982e-08
1.17927e-09
5.15278e-08
1.16586e-09
5.15566e-08
1.15308e-09
5.15843e-08
1.14088e-09
5.16112e-08
1.12923e-09
5.1637e-08
1.11809e-09
5.16619e-08
1.10742e-09
5.16857e-08
1.09721e-09
5.17086e-08
1.0874e-09
5.17304e-08
1.07799e-09
5.17511e-08
1.06894e-09
5.17708e-08
1.06021e-09
5.17894e-08
1.0518e-09
5.18069e-08
1.04367e-09
5.18233e-08
1.03581e-09
5.18385e-08
1.02818e-09
5.18526e-08
1.02077e-09
5.18656e-08
1.01356e-09
5.18774e-08
1.00652e-09
5.18881e-08
9.99641e-10
5.18975e-08
9.92897e-10
5.19058e-08
9.8627e-10
5.19129e-08
9.79739e-10
5.19187e-08
9.73285e-10
5.19234e-08
9.66888e-10
5.19268e-08
9.60527e-10
5.19291e-08
9.54182e-10
5.19301e-08
9.47833e-10
5.19299e-08
9.41456e-10
5.19285e-08
9.35031e-10
5.19258e-08
9.28532e-10
5.1922e-08
9.21938e-10
5.1917e-08
9.15222e-10
5.19107e-08
9.08358e-10
5.19033e-08
9.0132e-10
5.18946e-08
8.94079e-10
5.18849e-08
8.86606e-10
5.18739e-08
8.78871e-10
5.18618e-08
8.70842e-10
5.18486e-08
8.62488e-10
5.18343e-08
8.53775e-10
5.18189e-08
8.4467e-10
5.18025e-08
8.3514e-10
5.1785e-08
8.25153e-10
5.17665e-08
8.14675e-10
5.1747e-08
8.03676e-10
5.17266e-08
7.9213e-10
5.17053e-08
7.8001e-10
5.16832e-08
7.67298e-10
5.16601e-08
7.53981e-10
5.16363e-08
7.40054e-10
5.16118e-08
7.25525e-10
5.15865e-08
7.10414e-10
5.15606e-08
6.94762e-10
5.1534e-08
6.78628e-10
5.15068e-08
6.62099e-10
5.14792e-08
6.45267e-10
5.14513e-08
6.28153e-10
5.14235e-08
6.10385e-10
5.13963e-08
5.90039e-10
5.5982e-10
4.98663e-08
3.39593e-10
4.9973e-08
6.77724e-10
5.01175e-08
9.84288e-10
5.02842e-08
1.24508e-09
5.04621e-08
1.458e-09
5.06441e-08
1.62696e-09
5.08251e-08
1.75622e-09
5.10007e-08
1.84941e-09
5.11679e-08
1.91059e-09
5.13245e-08
1.94438e-09
5.14695e-08
1.95553e-09
5.16024e-08
1.94852e-09
5.17233e-08
1.92747e-09
5.18329e-08
1.89611e-09
5.19319e-08
1.85766e-09
5.20216e-08
1.81483e-09
5.21029e-08
1.76977e-09
5.21771e-08
1.72414e-09
5.22454e-08
1.67914e-09
5.23086e-08
1.6356e-09
5.23677e-08
1.59402e-09
5.24234e-08
1.55467e-09
5.24763e-08
1.51767e-09
5.25269e-08
1.48298e-09
5.25757e-08
1.45053e-09
5.26229e-08
1.42018e-09
5.26688e-08
1.39176e-09
5.27135e-08
1.36514e-09
5.27573e-08
1.34016e-09
5.28003e-08
1.31667e-09
5.28424e-08
1.29456e-09
5.28839e-08
1.27371e-09
5.29246e-08
1.25402e-09
5.29648e-08
1.2354e-09
5.30043e-08
1.21778e-09
5.30433e-08
1.20108e-09
5.30818e-08
1.18526e-09
5.31197e-08
1.17024e-09
5.3157e-08
1.15598e-09
5.31939e-08
1.14242e-09
5.32302e-08
1.12954e-09
5.3266e-08
1.11728e-09
5.33013e-08
1.10561e-09
5.3336e-08
1.09449e-09
5.33702e-08
1.08389e-09
5.34039e-08
1.07377e-09
5.3437e-08
1.06411e-09
5.34695e-08
1.05487e-09
5.35015e-08
1.04603e-09
5.35328e-08
1.03757e-09
5.35636e-08
1.02945e-09
5.35937e-08
1.02165e-09
5.36233e-08
1.01414e-09
5.36522e-08
1.00692e-09
5.36804e-08
9.99944e-10
5.3708e-08
9.93202e-10
5.37349e-08
9.86672e-10
5.3761e-08
9.80331e-10
5.37865e-08
9.74162e-10
5.38113e-08
9.68142e-10
5.38353e-08
9.62253e-10
5.38586e-08
9.56475e-10
5.38811e-08
9.50787e-10
5.39028e-08
9.45169e-10
5.39237e-08
9.39601e-10
5.39438e-08
9.34062e-10
5.39631e-08
9.2853e-10
5.39816e-08
9.22984e-10
5.39992e-08
9.174e-10
5.4016e-08
9.11754e-10
5.40319e-08
9.06023e-10
5.4047e-08
9.0018e-10
5.40611e-08
8.942e-10
5.40744e-08
8.88053e-10
5.40867e-08
8.81713e-10
5.40982e-08
8.75147e-10
5.41088e-08
8.68327e-10
5.41184e-08
8.61218e-10
5.41271e-08
8.5379e-10
5.41348e-08
8.46007e-10
5.41417e-08
8.37836e-10
5.41476e-08
8.29243e-10
5.41525e-08
8.20193e-10
5.41566e-08
8.10654e-10
5.41596e-08
8.00595e-10
5.41618e-08
7.89988e-10
5.4163e-08
7.78806e-10
5.41632e-08
7.6703e-10
5.41626e-08
7.54646e-10
5.4161e-08
7.41651e-10
5.41585e-08
7.2805e-10
5.4155e-08
7.13865e-10
5.41506e-08
6.99133e-10
5.41454e-08
6.83912e-10
5.41392e-08
6.68273e-10
5.41322e-08
6.52283e-10
5.41244e-08
6.35908e-10
5.41161e-08
6.18738e-10
5.41069e-08
5.99184e-10
5.72606e-10
5.17074e-08
2.93865e-10
5.17967e-08
5.88482e-10
5.19202e-08
8.60787e-10
5.20664e-08
1.0988e-09
5.22259e-08
1.29857e-09
5.23917e-08
1.46118e-09
5.25587e-08
1.58918e-09
5.27228e-08
1.68527e-09
5.28809e-08
1.75254e-09
5.30307e-08
1.79463e-09
5.31707e-08
1.81544e-09
5.33005e-08
1.81877e-09
5.34197e-08
1.80822e-09
5.35288e-08
1.78705e-09
5.36283e-08
1.75818e-09
5.3719e-08
1.7241e-09
5.38019e-08
1.68684e-09
5.3878e-08
1.64803e-09
5.39483e-08
1.60888e-09
5.40136e-08
1.5703e-09
5.40748e-08
1.53287e-09
5.41325e-08
1.49698e-09
5.41873e-08
1.46283e-09
5.42398e-08
1.43051e-09
5.42903e-08
1.40001e-09
5.43392e-08
1.37129e-09
5.43867e-08
1.34424e-09
5.44331e-08
1.31878e-09
5.44784e-08
1.29478e-09
5.45229e-08
1.27216e-09
5.45667e-08
1.2508e-09
5.46098e-08
1.23061e-09
5.46523e-08
1.21152e-09
5.46943e-08
1.19345e-09
5.47357e-08
1.17633e-09
5.47767e-08
1.16009e-09
5.48173e-08
1.1447e-09
5.48574e-08
1.13008e-09
5.48972e-08
1.11621e-09
5.49366e-08
1.10302e-09
5.49756e-08
1.09049e-09
5.50143e-08
1.07858e-09
5.50527e-08
1.06724e-09
5.50907e-08
1.05645e-09
5.51285e-08
1.04617e-09
5.51659e-08
1.03638e-09
5.52029e-08
1.02704e-09
5.52397e-08
1.01812e-09
5.52761e-08
1.00961e-09
5.53122e-08
1.00147e-09
5.5348e-08
9.93679e-10
5.53834e-08
9.86215e-10
5.54185e-08
9.79054e-10
5.54532e-08
9.72176e-10
5.54876e-08
9.65558e-10
5.55216e-08
9.5918e-10
5.55553e-08
9.53021e-10
5.55886e-08
9.47062e-10
5.56214e-08
9.41283e-10
5.56539e-08
9.35664e-10
5.5686e-08
9.30186e-10
5.57176e-08
9.24829e-10
5.57488e-08
9.19574e-10
5.57796e-08
9.14402e-10
5.58099e-08
9.09291e-10
5.58398e-08
9.04222e-10
5.58691e-08
8.99172e-10
5.5898e-08
8.94121e-10
5.59263e-08
8.89046e-10
5.59542e-08
8.83924e-10
5.59814e-08
8.7873e-10
5.60082e-08
8.73438e-10
5.60344e-08
8.68024e-10
5.606e-08
8.62459e-10
5.6085e-08
8.56715e-10
5.61093e-08
8.50762e-10
5.61331e-08
8.4457e-10
5.61562e-08
8.38107e-10
5.61787e-08
8.31341e-10
5.62004e-08
8.24237e-10
5.62215e-08
8.16764e-10
5.62419e-08
8.08885e-10
5.62615e-08
8.0057e-10
5.62804e-08
7.91784e-10
5.62985e-08
7.82498e-10
5.63158e-08
7.72683e-10
5.63322e-08
7.62315e-10
5.63479e-08
7.51374e-10
5.63627e-08
7.39849e-10
5.63766e-08
7.27735e-10
5.63896e-08
7.15039e-10
5.64017e-08
7.01783e-10
5.64128e-08
6.88003e-10
5.6423e-08
6.73754e-10
5.64322e-08
6.59099e-10
5.64404e-08
6.44089e-10
5.64476e-08
6.28682e-10
5.64538e-08
6.12546e-10
5.64583e-08
5.94644e-10
5.7283e-10
5.36195e-08
2.55524e-10
5.3695e-08
5.13049e-10
5.38011e-08
7.54627e-10
5.39295e-08
9.70425e-10
5.40721e-08
1.15592e-09
5.42228e-08
1.31052e-09
5.43766e-08
1.43537e-09
5.45296e-08
1.53227e-09
5.46787e-08
1.60349e-09
5.48215e-08
1.65183e-09
5.49565e-08
1.68042e-09
5.50828e-08
1.69243e-09
5.52001e-08
1.69092e-09
5.53084e-08
1.67876e-09
5.54081e-08
1.65851e-09
5.54997e-08
1.63245e-09
5.55841e-08
1.60247e-09
5.5662e-08
1.57012e-09
5.57342e-08
1.53663e-09
5.58016e-08
1.50291e-09
5.58649e-08
1.46962e-09
5.59246e-08
1.43722e-09
5.59814e-08
1.40601e-09
5.60358e-08
1.37615e-09
5.60881e-08
1.34772e-09
5.61387e-08
1.32072e-09
5.61878e-08
1.29514e-09
5.62356e-08
1.27092e-09
5.62824e-08
1.24799e-09
5.63283e-08
1.22628e-09
5.63734e-08