/*--------------------------------*- C++ -*----------------------------------*\
| =========                 |                                                 |
| \\      /  F ield         | OpenFOAM: The Open Source CFD Toolbox           |
|  \\    /   O peration     | Version:  2.3.0                                 |
|   \\  /    A nd           | Web:      www.OpenFOAM.org                      |
|    \\/     M anipulation  |                                                 |
\*---------------------------------------------------------------------------*/
FoamFile
{
    version     2.0;
    format      ascii;
    class       volScalarField;
    location    "0.2";
    object      p;
}
// * * * * * * * * * * * * * * * * * * * * * * * * * * * * * * * * * * * * * //

dimensions      [0 2 -2 0 0 0 0];

internalField   nonuniform List<scalar> 
2889
(
0.00251325
0.0019748
0.00146357
0.00108485
0.00078231
0.000516147
0.000280397
7.86914e-05
-8.71564e-05
-0.000218024
-0.000316503
-0.000386414
-0.000432436
-0.000459596
-0.000472733
-0.000476098
-0.000473149
-0.000466504
-0.000458014
-0.000448894
-0.000439879
-0.000431361
-0.000423507
-0.000416349
-0.000409847
-0.000403925
-0.0003985
-0.000393493
-0.000388835
-0.000384466
-0.000380339
-0.000376411
-0.000372646
-0.00036901
-0.000365467
-0.000361981
-0.000358513
-0.000355017
-0.000351444
-0.000347735
-0.000343818
-0.000339607
-0.000334996
-0.00032985
-0.000324004
-0.000317261
-0.000309399
-0.000300188
-0.000289415
-0.000276915
-0.000262632
-0.00024687
-0.000229869
-0.00021215
-0.000194216
-0.000176551
-0.00015953
-0.000143427
-0.00012842
-0.000114603
-0.000102001
-9.05915e-05
-8.03183e-05
-7.11082e-05
-6.28783e-05
-5.55436e-05
-4.90212e-05
-4.32328e-05
-3.81062e-05
-3.35756e-05
-2.95811e-05
-2.60685e-05
-2.29871e-05
-2.02903e-05
-1.79358e-05
-1.58856e-05
-1.41032e-05
-1.25541e-05
-1.12083e-05
-1.00385e-05
-9.02001e-06
-8.13308e-06
-7.36038e-06
-6.68702e-06
-6.10101e-06
-5.58886e-06
-5.1365e-06
-4.73191e-06
-4.36398e-06
-4.02251e-06
-3.6988e-06
-3.386e-06
-3.07828e-06
-2.77097e-06
-2.45915e-06
-2.13641e-06
-1.79411e-06
-1.41868e-06
-9.86723e-07
-4.77227e-07
0.00222906
0.00183911
0.00142783
0.00108948
0.000803579
0.000545544
0.000313513
0.000112824
-5.36172e-05
-0.00018605
-0.000286696
-0.00035912
-0.000407804
-0.00043762
-0.000453298
-0.000459017
-0.000458194
-0.000453428
-0.000446572
-0.000438856
-0.000431037
-0.000423532
-0.000416536
-0.000410106
-0.000404224
-0.000398835
-0.000393871
-0.000389267
-0.000384964
-0.000380912
-0.00037707
-0.0003734
-0.000369871
-0.000366452
-0.00036311
-0.000359812
-0.00035652
-0.000353191
-0.000349776
-0.000346218
-0.000342448
-0.000338381
-0.000333913
-0.000328911
-0.000323214
-0.000316625
-0.000308919
-0.000299861
-0.000289233
-0.000276871
-0.000262775
-0.000247046
-0.000230128
-0.000212418
-0.000194461
-0.000176774
-0.000159732
-0.000143609
-0.000128584
-0.000114748
-0.000102129
-9.07029e-05
-8.04151e-05
-7.11918e-05
-6.29501e-05
-5.5605e-05
-4.90732e-05
-4.32766e-05
-3.81428e-05
-3.36058e-05
-2.96058e-05
-2.60884e-05
-2.30031e-05
-2.03028e-05
-1.79455e-05
-1.58931e-05
-1.41089e-05
-1.25583e-05
-1.12115e-05
-1.00409e-05
-9.02162e-06
-8.13412e-06
-7.36096e-06
-6.68721e-06
-6.10109e-06
-5.58895e-06
-5.13659e-06
-4.73207e-06
-4.36429e-06
-4.02297e-06
-3.69938e-06
-3.38666e-06
-3.07901e-06
-2.77168e-06
-2.45972e-06
-2.13696e-06
-1.79474e-06
-1.4195e-06
-9.8681e-07
-4.89941e-07
0.00201811
0.00171996
0.00137921
0.00107366
0.000805477
0.000561633
0.000340924
0.000147892
-1.44897e-05
-0.00014596
-0.000248093
-0.000323727
-0.000376616
-0.000410997
-0.000431114
-0.00044083
-0.000443401
-0.000441389
-0.000436686
-0.000430612
-0.000424024
-0.000417437
-0.000411132
-0.000405232
-0.000399768
-0.000394721
-0.000390048
-0.0003857
-0.000381628
-0.000377789
-0.000374143
-0.00037066
-0.000367306
-0.000364053
-0.00036087
-0.000357723
-0.000354577
-0.000351388
-0.00034811
-0.000344685
-0.000341045
-0.000337109
-0.000332771
-0.000327902
-0.000322337
-0.000315882
-0.000308309
-0.000299379
-0.000288866
-0.000276599
-0.000262497
-0.000246666
-0.000229758
-0.000212223
-0.000194388
-0.000176764
-0.00015975
-0.000143641
-0.000128625
-0.000114795
-0.000102178
-9.0751e-05
-8.04604e-05
-7.12331e-05
-6.29867e-05
-5.56366e-05
-4.90998e-05
-4.32982e-05
-3.81598e-05
-3.36186e-05
-2.96149e-05
-2.60943e-05
-2.30064e-05
-2.03039e-05
-1.79448e-05
-1.58911e-05
-1.41062e-05
-1.25549e-05
-1.12077e-05
-1.0037e-05
-9.01749e-06
-8.13017e-06
-7.35711e-06
-6.68331e-06
-6.09767e-06
-5.58629e-06
-5.13461e-06
-4.73074e-06
-4.36354e-06
-4.02272e-06
-3.69954e-06
-3.38704e-06
-3.07976e-06
-2.77296e-06
-2.46176e-06
-2.14022e-06
-1.80005e-06
-1.42841e-06
-1.00375e-06
-5.35595e-07
0.00183618
0.00159868
0.00131452
0.00104396
0.00079865
0.000573527
0.000368118
0.000186164
3.06442e-05
-9.76614e-05
-0.000199664
-0.000277468
-0.000334069
-0.000373
-0.000397931
-0.000412309
-0.000419131
-0.00042083
-0.000419268
-0.000415792
-0.000411321
-0.000406447
-0.000401523
-0.000396739
-0.000392183
-0.000387882
-0.00038383
-0.000380004
-0.000376378
-0.000372924
-0.000369615
-0.000366429
-0.000363341
-0.000360328
-0.000357363
-0.000354417
-0.000351456
-0.000348441
-0.000345327
-0.000342059
-0.00033857
-0.000334779
-0.000330582
-0.000325848
-0.000320416
-0.000314087
-0.000306635
-0.00029782
-0.000287415
-0.000275257
-0.000261303
-0.000245698
-0.000228778
-0.000211208
-0.000193606
-0.000176255
-0.000159446
-0.000143473
-0.000128551
-0.000114786
-0.000102214
-9.08161e-05
-8.05421e-05
-7.13224e-05
-6.30772e-05
-5.57238e-05
-4.9181e-05
-4.33718e-05
-3.8225e-05
-3.36751e-05
-2.96629e-05
-2.61346e-05
-2.30395e-05
-2.03303e-05
-1.7965e-05
-1.59064e-05
-1.41172e-05
-1.2562e-05
-1.1212e-05
-1.00391e-05
-9.01716e-06
-8.12864e-06
-7.35547e-06
-6.68138e-06
-6.09442e-06
-5.58156e-06
-5.13004e-06
-4.72713e-06
-4.36096e-06
-4.0211e-06
-3.69878e-06
-3.38713e-06
-3.0808e-06
-2.77522e-06
-2.46582e-06
-2.14712e-06
-1.81172e-06
-1.4487e-06
-1.04267e-06
-6.21657e-07
0.00167225
0.00148009
0.00124456
0.00100905
0.000787902
0.000581857
0.000392011
0.000221799
7.41739e-05
-4.97106e-05
-0.000150261
-0.000229006
-0.000288305
-0.000331056
-0.000360361
-0.000379221
-0.000390314
-0.000395881
-0.000397694
-0.000397082
-0.000394996
-0.000392083
-0.000388761
-0.000385286
-0.000381806
-0.000378396
-0.000375089
-0.000371895
-0.00036881
-0.000365826
-0.000362929
-0.000360106
-0.000357341
-0.000354617
-0.000351913
-0.000349202
-0.000346456
-0.000343637
-0.000340703
-0.000337602
-0.000334267
-0.000330619
-0.000326555
-0.000321945
-0.000316629
-0.000310412
-0.000303075
-0.000294386
-0.000284132
-0.000272167
-0.000258469
-0.000243195
-0.000226704
-0.000209495
-0.000192066
-0.000174958
-0.000158505
-0.00014285
-0.000128173
-0.000114584
-0.000102139
-9.08305e-05
-8.06166e-05
-7.14351e-05
-6.32119e-05
-5.58684e-05
-4.9327e-05
-4.35134e-05
-3.83582e-05
-3.37976e-05
-2.97734e-05
-2.62326e-05
-2.31249e-05
-2.04031e-05
-1.80261e-05
-1.59571e-05
-1.41581e-05
-1.25928e-05
-1.1235e-05
-1.00568e-05
-9.02954e-06
-8.13234e-06
-7.35141e-06
-6.67467e-06
-6.08737e-06
-5.57531e-06
-5.12491e-06
-4.72293e-06
-4.35747e-06
-4.01823e-06
-3.69662e-06
-3.38595e-06
-3.081e-06
-2.77747e-06
-2.47119e-06
-2.15741e-06
-1.83024e-06
-1.48195e-06
-1.10588e-06
-7.51103e-07
0.00152887
0.00137051
0.00117448
0.00097046
0.000772395
0.000584719
0.000410088
0.00025182
0.00011273
-5.8164e-06
-0.000103842
-0.000182404
-0.000243327
-0.000288947
-0.000321846
-0.000344591
-0.000359533
-0.000368699
-0.000373738
-0.000375932
-0.000376233
-0.000375323
-0.000373667
-0.000371576
-0.000369246
-0.000366795
-0.000364296
-0.000361787
-0.000359287
-0.000356807
-0.000354348
-0.000351907
-0.000349477
-0.000347047
-0.000344601
-0.00034212
-0.000339576
-0.000336937
-0.000334163
-0.000331202
-0.000327991
-0.000324452
-0.000320484
-0.000315962
-0.000310729
-0.000304601
-0.000297373
-0.00028883
-0.000278784
-0.000267112
-0.000253809
-0.000239036
-0.000223123
-0.000206519
-0.0001897
-0.000173046
-0.000156916
-0.000141638
-0.000127326
-0.000114034
-0.000101818
-9.06759e-05
-8.05814e-05
-7.14838e-05
-6.33169e-05
-5.60089e-05
-4.94875e-05
-4.36824e-05
-3.85276e-05
-3.39614e-05
-2.99275e-05
-2.63749e-05
-2.32532e-05
-2.05155e-05
-1.81222e-05
-1.60393e-05
-1.42283e-05
-1.26504e-05
-1.12745e-05
-1.00761e-05
-9.03579e-06
-8.13289e-06
-7.34992e-06
-6.67216e-06
-6.08402e-06
-5.57107e-06
-5.11963e-06
-4.71668e-06
-4.35046e-06
-4.01087e-06
-3.6895e-06
-3.3798e-06
-3.07671e-06
-2.77621e-06
-2.47461e-06
-2.16815e-06
-1.85288e-06
-1.52532e-06
-1.18884e-06
-9.16096e-07
0.00140326
0.00126973
0.00110499
0.000928489
0.000752179
0.000582256
0.000422479
0.000276135
0.000145888
3.323e-05
-6.15391e-05
-0.000139071
-0.000200725
-0.000248353
-0.000284072
-0.000310049
-0.000328326
-0.000340708
-0.000348707
-0.000353535
-0.000356125
-0.000357168
-0.000357163
-0.000356457
-0.000355286
-0.000353809
-0.000352129
-0.000350312
-0.000348401
-0.000346424
-0.000344396
-0.000342326
-0.000340216
-0.000338061
-0.000335853
-0.000333574
-0.000331204
-0.000328712
-0.000326061
-0.000323202
-0.000320075
-0.000316603
-0.00031269
-0.000308216
-0.000303034
-0.000296976
-0.000289854
-0.00028148
-0.000271692
-0.000260393
-0.000247593
-0.000233443
-0.000218239
-0.000202377
-0.000186278
-0.000170306
-0.000154795
-0.000139984
-0.00012604
-0.000113097
-0.00010118
-9.02745e-05
-8.03598e-05
-7.13951e-05
-6.33238e-05
-5.60822e-05
-4.96048e-05
-4.38266e-05
-3.86858e-05
-3.41241e-05
-3.00878e-05
-2.65293e-05
-2.33993e-05
-2.06493e-05
-1.82401e-05
-1.61318e-05
-1.42916e-05
-1.26924e-05
-1.1303e-05
-1.00963e-05
-9.05017e-06
-8.14244e-06
-7.355e-06
-6.6727e-06
-6.08041e-06
-5.56372e-06
-5.10895e-06
-4.70324e-06
-4.33499e-06
-3.99426e-06
-3.67282e-06
-3.36427e-06
-3.06372e-06
-2.76738e-06
-2.47213e-06
-2.17532e-06
-1.87522e-06
-1.57294e-06
-1.28197e-06
-1.09855e-06
0.00129209
0.00117722
0.00103734
0.000884626
0.000728437
0.000575383
0.000429839
0.000295107
0.000173722
6.7255e-05
-2.37425e-05
-9.95779e-05
-0.000161217
-0.000210094
-0.00024792
-0.000276502
-0.000297591
-0.000312775
-0.000323422
-0.00033066
-0.000335383
-0.000338278
-0.000339859
-0.000340498
-0.000340465
-0.000339948
-0.000339078
-0.000337946
-0.000336617
-0.000335134
-0.000333527
-0.000331816
-0.000330009
-0.000328112
-0.00032612
-0.000324022
-0.000321799
-0.000319427
-0.00031687
-0.000314083
-0.000311008
-0.000307573
-0.000303686
-0.000299237
-0.000294091
-0.000288095
-0.000281086
-0.000272901
-0.000263408
-0.000252532
-0.000240293
-0.000226832
-0.000212406
-0.00019736
-0.000182064
-0.000166854
-0.000152029
-0.00013782
-0.000124399
-0.000111865
-0.000100265
-8.96256e-05
-7.9928e-05
-7.11331e-05
-6.31912e-05
-5.60459e-05
-4.9638e-05
-4.39081e-05
-3.87986e-05
-3.42549e-05
-3.0225e-05
-2.66576e-05
-2.35095e-05
-2.07438e-05
-1.83202e-05
-1.61997e-05
-1.43496e-05
-1.27405e-05
-1.1341e-05
-1.01242e-05
-9.06782e-06
-8.15106e-06
-7.35595e-06
-6.66687e-06
-6.0686e-06
-5.5466e-06
-5.08719e-06
-4.67769e-06
-4.30673e-06
-3.96458e-06
-3.64319e-06
-3.33631e-06
-3.03916e-06
-2.74822e-06
-2.46094e-06
-2.17578e-06
-1.89324e-06
-1.61874e-06
-1.37457e-06
-1.27599e-06
0.00119285
0.00109246
0.000972472
0.000840057
0.000702069
0.000564746
0.000432661
0.000309093
0.000196466
9.63723e-05
9.54787e-06
-6.40371e-05
-0.000125018
-0.000174471
-0.000213754
-0.000244353
-0.000267748
-0.000285321
-0.000298292
-0.000307696
-0.000314376
-0.000319
-0.000322083
-0.000324015
-0.000325086
-0.000325507
-0.000325434
-0.00032498
-0.000324225
-0.00032323
-0.000322038
-0.000320676
-0.000319165
-0.000317515
-0.000315728
-0.000313797
-0.00031171
-0.000309443
-0.000306965
-0.000304235
-0.000301198
-0.000297788
-0.000293919
-0.000289489
-0.00028438
-0.000278455
-0.000271573
-0.000263599
-0.000254425
-0.000243998
-0.000232344
-0.000219591
-0.000205962
-0.000191756
-0.000177293
-0.000162878
-0.00014878
-0.000135217
-0.000122349
-0.000110281
-9.90732e-05
-8.87515e-05
-7.93052e-05
-7.07058e-05
-6.29138e-05
-5.58818e-05
-4.95578e-05
-4.38885e-05
-3.88214e-05
-3.43055e-05
-3.02922e-05
-2.67346e-05
-2.35916e-05
-2.08252e-05
-1.83956e-05
-1.62662e-05
-1.44047e-05
-1.27821e-05
-1.13692e-05
-1.01402e-05
-9.07305e-06
-8.14709e-06
-7.34407e-06
-6.64782e-06
-6.04303e-06
-5.51519e-06
-5.05078e-06
-4.63736e-06
-4.26381e-06
-3.92062e-06
-3.59991e-06
-3.29551e-06
-3.00279e-06
-2.71847e-06
-2.44052e-06
-2.16849e-06
-1.90484e-06
-1.65853e-06
-1.4582e-06
-1.42906e-06
0.0011035
0.00101471
0.000910786
0.000795561
0.000673786
0.000550944
0.000431473
0.000318554
0.000214487
0.000120848
3.84933e-05
-3.23895e-05
-9.21622e-05
-0.000141599
-0.000181752
-0.000213821
-0.000239041
-0.000258599
-0.000273568
-0.000284884
-0.00029333
-0.000299544
-0.000304033
-0.000307191
-0.000309321
-0.000310652
-0.000311358
-0.000311568
-0.000311381
-0.000310869
-0.000310086
-0.000309072
-0.000307853
-0.000306447
-0.000304862
-0.000303096
-0.00030114
-0.000298975
-0.000296575
-0.000293901
-0.000290904
-0.000287521
-0.000283677
-0.000279278
-0.000274219
-0.000268383
-0.00026165
-0.000253908
-0.000245072
-0.000235105
-0.000224039
-0.000211988
-0.000199147
-0.00018577
-0.000172138
-0.00015852
-0.000145161
-0.000132261
-0.000119972
-0.0001084
-9.76084e-05
-8.76278e-05
-7.84586e-05
-7.00825e-05
-6.24683e-05
-5.55759e-05
-4.93599e-05
-4.37727e-05
-3.87663e-05
-3.42939e-05
-3.03101e-05
-2.67714e-05
-2.3638e-05
-2.08729e-05
-1.84394e-05
-1.6303e-05
-1.44326e-05
-1.27997e-05
-1.13765e-05
-1.01378e-05
-9.06137e-06
-8.127e-06
-7.31636e-06
-6.61311e-06
-6.002e-06
-5.46865e-06
-4.9997e-06
-4.58297e-06
-4.20754e-06
-3.86409e-06
-3.54489e-06
-3.24388e-06
-2.95655e-06
-2.67985e-06
-2.41225e-06
-2.1542e-06
-1.90976e-06
-1.69035e-06
-1.52787e-06
-1.54663e-06
0.00102241
0.000943183
0.000852374
0.000751688
0.000644218
0.000534561
0.00042681
0.000323959
0.000228172
0.000140973
6.32885e-05
-4.53277e-06
-6.26319e-05
-0.000111532
-0.000152022
-0.000185054
-0.000211642
-0.000232789
-0.000249429
-0.000262395
-0.000272404
-0.000280056
-0.000285838
-0.000290142
-0.000293275
-0.000295477
-0.000296936
-0.000297795
-0.000298164
-0.000298128
-0.000297751
-0.000297082
-0.000296155
-0.000294994
-0.000293612
-0.000292013
-0.000290192
-0.000288135
-0.000285818
-0.000283208
-0.00028026
-0.000276918
-0.000273114
-0.000268765
-0.000263779
-0.000258056
-0.000251496
-0.000244006
-0.000235523
-0.000226021
-0.000215536
-0.00020417
-0.000192092
-0.00017952
-0.000166699
-0.000153866
-0.000141241
-0.000129006
-0.000117307
-0.000106246
-9.58889e-05
-8.6272e-05
-7.74042e-05
-6.92747e-05
-6.18598e-05
-5.51265e-05
-4.90359e-05
-4.35463e-05
-3.86144e-05
-3.41976e-05
-3.0254e-05
-2.67433e-05
-2.36279e-05
-2.08725e-05
-1.84427e-05
-1.63057e-05
-1.44314e-05
-1.27921e-05
-1.13614e-05
-1.01149e-05
-9.0308e-06
-8.08919e-06
-7.27196e-06
-6.56275e-06
-5.94633e-06
-5.40846e-06
-4.93598e-06
-4.51689e-06
-4.14052e-06
-3.79771e-06
-3.48088e-06
-3.18407e-06
-2.90291e-06
-2.63456e-06
-2.3779e-06
-2.13413e-06
-1.90841e-06
-1.71344e-06
-1.58141e-06
-1.62644e-06
0.000948242
0.00087709
0.000797156
0.000708793
0.000613865
0.000516109
0.000419156
0.000325752
0.000237899
0.000157048
8.41498e-05
1.96669e-05
-3.63708e-05
-8.42799e-05
-0.000124631
-0.000158159
-0.000185683
-0.000208038
-0.000226024
-0.000240373
-0.000251733
-0.000260657
-0.000267606
-0.000272961
-0.000277029
-0.000280054
-0.000282232
-0.000283714
-0.000284623
-0.000285053
-0.000285075
-0.000284748
-0.000284112
-0.000283196
-0.000282021
-0.000280593
-0.000278913
-0.000276971
-0.000274747
-0.000272213
-0.000269329
-0.000266045
-0.0002623
-0.000258024
-0.000253136
-0.000247552
-0.000241187
-0.00023397
-0.000225851
-0.000216816
-0.000206902
-0.000196201
-0.000184858
-0.000173064
-0.000161027
-0.000148959
-0.000137055
-0.000125481
-0.000114374
-0.000103832
-9.39232e-05
-8.4687e-05
-7.61385e-05
-6.82741e-05
-6.1077e-05
-5.4521e-05
-4.85733e-05
-4.31974e-05
-3.83552e-05
-3.40077e-05
-3.01166e-05
-2.66448e-05
-2.3557e-05
-2.08197e-05
-1.84005e-05
-1.62686e-05
-1.43954e-05
-1.27541e-05
-1.13196e-05
-1.00685e-05
-8.97943e-06
-8.03288e-06
-7.21101e-06
-6.4975e-06
-5.87726e-06
-5.33622e-06
-4.86143e-06
-4.44111e-06
-4.0648e-06
-3.72354e-06
-3.40989e-06
-3.118e-06
-2.84362e-06
-2.5841e-06
-2.33868e-06
-2.10905e-06
-1.901e-06
-1.72742e-06
-1.61843e-06
-1.67244e-06
0.000879928
0.000815728
0.000744938
0.000667072
0.000583107
0.000496022
0.00040895
0.000324348
0.000244039
0.000169379
0.00010131
4.0366e-05
-1.32958e-05
-5.98275e-05
-9.96179e-05
-0.000133218
-0.000161275
-0.000184472
-0.000203486
-0.00021895
-0.00023144
-0.000241459
-0.000249437
-0.000255738
-0.000260659
-0.000264447
-0.000267298
-0.000269372
-0.000270798
-0.000271676
-0.000272087
-0.000272095
-0.000271746
-0.000271076
-0.000270108
-0.000268857
-0.000267324
-0.000265505
-0.000263385
-0.00026094
-0.000258135
-0.000254928
-0.000251265
-0.000247084
-0.000242319
-0.000236898
-0.000230752
-0.000223826
-0.000216081
-0.000207514
-0.00019816
-0.000188103
-0.000177469
-0.000166421
-0.000155142
-0.000143816
-0.000132617
-0.000121697
-0.00011118
-0.000101163
-9.17125e-05
-8.28705e-05
-7.46573e-05
-6.70752e-05
-6.01137e-05
-5.37523e-05
-4.79643e-05
-4.27181e-05
-3.798e-05
-3.37153e-05
-2.9889e-05
-2.64671e-05
-2.34166e-05
-2.07063e-05
-1.83058e-05
-1.61861e-05
-1.43201e-05
-1.26823e-05
-1.12488e-05
-9.99693e-06
-8.90615e-06
-7.95741e-06
-7.13319e-06
-6.41738e-06
-5.79507e-06
-5.25243e-06
-4.77672e-06
-4.3564e-06
-3.98124e-06
-3.64246e-06
-3.33277e-06
-3.04645e-06
-2.77935e-06
-2.52902e-06
-2.2949e-06
-2.079e-06
-1.88727e-06
-1.7319e-06
-1.63948e-06
-1.69116e-06
0.000816571
0.000758461
0.000695467
0.0006266
0.000552218
0.000474659
0.000396581
0.000320134
0.000246948
0.000178271
0.000115011
5.77366e-05
6.69672e-06
-3.81339e-05
-7.69962e-05
-0.000110287
-0.000138506
-0.000162201
-0.000181934
-0.000198246
-0.000211642
-0.000222571
-0.00023143
-0.000238557
-0.00024424
-0.000248718
-0.000252189
-0.000254814
-0.000256725
-0.00025803
-0.000258814
-0.000259146
-0.000259077
-0.00025865
-0.00025789
-0.000256816
-0.000255437
-0.000253749
-0.000251744
-0.0002494
-0.000246691
-0.000243578
-0.000240017
-0.000235956
-0.000231337
-0.000226102
-0.000220197
-0.000213576
-0.000206215
-0.000198115
-0.000189311
-0.000179878
-0.000169928
-0.000159599
-0.000149051
-0.000138445
-0.000127934
-0.000117657
-0.000107729
-9.8239e-05
-8.92545e-05
-8.08185e-05
-7.29549e-05
-6.56711e-05
-5.89616e-05
-5.28118e-05
-4.71997e-05
-4.20989e-05
-3.74799e-05
-3.33117e-05
-2.9563e-05
-2.62026e-05
-2.32002e-05
-2.05265e-05
-1.81533e-05
-1.60535e-05
-1.42015e-05
-1.25731e-05
-1.11456e-05
-9.89747e-06
-8.80875e-06
-7.86102e-06
-7.03718e-06
-6.32143e-06
-5.69912e-06
-5.15666e-06
-4.6816e-06
-4.26264e-06
-3.8898e-06
-3.55448e-06
-3.24955e-06
-2.96943e-06
-2.71009e-06
-2.46919e-06
-2.24633e-06
-2.0436e-06
-1.86672e-06
-1.7266e-06
-1.64564e-06
-1.68898e-06
0.000757425
0.000704726
0.000648467
0.000587372
0.000521381
0.000452311
0.000382386
0.000313456
0.000246959
0.00018402
0.000125495
7.19617e-05
2.37278e-05
-1.91369e-05
-5.67563e-05
-8.94009e-05
-0.000117442
-0.000141313
-0.000161471
-0.000178371
-0.000192446
-0.000204097
-0.000213679
-0.000221506
-0.000227849
-0.000232936
-0.000236962
-0.000240088
-0.000242447
-0.000244149
-0.000245284
-0.000245924
-0.000246126
-0.000245934
-0.00024538
-0.000244485
-0.000243262
-0.000241713
-0.000239831
-0.000237602
-0.000235003
-0.000232003
-0.000228564
-0.000224643
-0.000220192
-0.000215165
-0.000209518
-0.000203218
-0.000196247
-0.000188612
-0.000180349
-0.000171523
-0.000162232
-0.000152596
-0.000142754
-0.000132846
-0.000123008
-0.000113364
-0.000104019
-9.50584e-05
-8.65463e-05
-7.85266e-05
-7.10257e-05
-6.40549e-05
-5.76135e-05
-5.16914e-05
-4.62715e-05
-4.13317e-05
-3.68467e-05
-3.27892e-05
-2.91311e-05
-2.58443e-05
-2.29009e-05
-2.0274e-05
-1.79372e-05
-1.58655e-05
-1.40349e-05
-1.24224e-05
-1.10066e-05
-9.76702e-06
-8.68458e-06
-7.74148e-06
-6.92112e-06
-6.20809e-06
-5.58807e-06
-5.04781e-06
-4.57513e-06
-4.15903e-06
-3.78977e-06
-3.45897e-06
-3.15968e-06
-2.88643e-06
-2.63531e-06
-2.40407e-06
-2.19236e-06
-2.00218e-06
-1.83872e-06
-1.71127e-06
-1.6381e-06
-1.67082e-06
0.000701859
0.000654024
0.000603655
0.000549329
0.000490708
0.000429201
0.00036665
0.000304627
0.000244378
0.000186907
0.000133003
8.3231e-05
3.79321e-05
-2.75628e-06
-3.88678e-05
-7.05706e-05
-9.81311e-05
-0.00012188
-0.000142184
-0.000159418
-0.000173952
-0.000186131
-0.000196274
-0.000204666
-0.000211557
-0.000217164
-0.000221673
-0.000225241
-0.000228002
-0.000230066
-0.000231525
-0.000232453
-0.000232911
-0.000232945
-0.000232591
-0.000231874
-0.000230809
-0.000229403
-0.000227653
-0.00022555
-0.000223075
-0.000220203
-0.000216905
-0.000213143
-0.000208881
-0.000204081
-0.000198709
-0.00019274
-0.000186166
-0.000178996
-0.000171263
-0.000163028
-0.000154374
-0.000145408
-0.000136248
-0.000127018
-0.000117836
-0.000108814
-0.000100049
-9.16182e-05
-8.35837e-05
-7.59894e-05
-6.88632e-05
-6.22195e-05
-5.60615e-05
-5.0383e-05
-4.51712e-05
-4.04081e-05
-3.60722e-05
-3.21397e-05
-2.85858e-05
-2.53851e-05
-2.25123e-05
-1.99427e-05
-1.76522e-05
-1.56173e-05
-1.38158e-05
-1.22262e-05
-1.08282e-05
-9.60258e-06
-8.53105e-06
-7.59657e-06
-6.78313e-06
-6.07579e-06
-5.46064e-06
-4.92479e-06
-4.45641e-06
-4.04481e-06
-3.68052e-06
-3.3554e-06
-3.06267e-06
-2.797e-06
-2.55459e-06
-2.33321e-06
-2.13251e-06
-1.95424e-06
-1.80289e-06
-1.68603e-06
-1.61816e-06
-1.64013e-06
0.000649332
0.000605915
0.000560752
0.000512371
0.000460257
0.000405497
0.000349609
0.000293917
0.000239487
0.000187199
0.00013777
9.17373e-05
4.94544e-05
1.11034e-05
-2.32821e-05
-5.37896e-05
-8.05992e-05
-0.000103956
-0.000124146
-0.000141475
-0.000156249
-0.000168767
-0.000179306
-0.000188122
-0.000195444
-0.000201472
-0.000206384
-0.00021033
-0.00021344
-0.000215824
-0.000217573
-0.000218764
-0.000219458
-0.000219704
-0.000219542
-0.000218998
-0.000218092
-0.000216832
-0.000215221
-0.000213252
-0.000210914
-0.000208186
-0.000205044
-0.00020146
-0.000197404
-0.000192847
-0.000187764
-0.000182138
-0.000175965
-0.000169256
-0.000162046
-0.000154386
-0.000146351
-0.000138033
-0.000129533
-0.000120961
-0.00011242
-0.00010401
-9.58184e-05
-8.79172e-05
-8.03646e-05
-7.32035e-05
-6.64629e-05
-6.01595e-05
-5.42992e-05
-4.88796e-05
-4.38915e-05
-3.93205e-05
-3.51488e-05
-3.13557e-05
-2.79196e-05
-2.48178e-05
-2.20276e-05
-1.95263e-05
-1.7292e-05
-1.53031e-05
-1.35389e-05
-1.19796e-05
-1.0606e-05
-9.40006e-06
-8.34447e-06
-7.42298e-06
-6.62025e-06
-5.92188e-06
-5.31445e-06
-4.78548e-06
-4.32354e-06
-3.91828e-06
-3.56052e-06
-3.24236e-06
-2.95722e-06
-2.69994e-06
-2.46676e-06
-2.25552e-06
-2.06572e-06
-1.89883e-06
-1.75851e-06
-1.65064e-06
-1.58658e-06
-1.59875e-06
0.000599377
0.000560007
0.000519496
0.00047638
0.000430041
0.000381315
0.000331453
0.000281558
0.000232533
0.000185141
0.00014002
9.76722e-05
5.84471e-05
2.25529e-05
-9.92928e-06
-3.90254e-05
-6.48463e-05
-8.75663e-05
-0.000107403
-0.000124597
-0.000139403
-0.000152071
-0.00016284
-0.000171937
-0.000179566
-0.000185913
-0.000191141
-0.000195393
-0.000198794
-0.00020145
-0.000203451
-0.000204875
-0.000205782
-0.000206225
-0.000206242
-0.000205865
-0.000205114
-0.000204002
-0.000202535
-0.000200709
-0.000198518
-0.000195946
-0.000192976
-0.000189585
-0.000185752
-0.000181453
-0.000176671
-0.000171396
-0.000165627
-0.000159379
-0.000152682
-0.000145584
-0.00013815
-0.00013046
-0.000122601
-0.000114669
-0.000106755
-9.89468e-05
-9.13231e-05
-8.39505e-05
-7.68833e-05
-7.01628e-05
-6.38181e-05
-5.78674e-05
-5.2319e-05
-4.71733e-05
-4.24243e-05
-3.80611e-05
-3.40687e-05
-3.04299e-05
-2.71257e-05
-2.41361e-05
-2.14408e-05
-1.90194e-05
-1.6852e-05
-1.49188e-05
-1.32008e-05
-1.16796e-05
-1.03375e-05
-9.15744e-06
-8.12327e-06
-7.21955e-06
-6.43167e-06
-5.74587e-06
-5.14927e-06
-4.62987e-06
-4.17667e-06
-3.77968e-06
-3.43008e-06
-3.12022e-06
-2.84375e-06
-2.59563e-06
-2.37221e-06
-2.1713e-06
-1.9923e-06
-1.83625e-06
-1.70601e-06
-1.60594e-06
-1.54481e-06
-1.54833e-06
0.000551583
0.000515953
0.00047964
0.000441228
0.000400049
0.000356742
0.000312338
0.000267751
0.000223738
0.000180954
0.00013996
0.000101214
6.50525e-05
3.1694e-05
1.25131e-06
-2.62559e-05
-5.08845e-05
-7.2751e-05
-9.20149e-05
-0.000108864
-0.000123502
-0.000136137
-0.000146972
-0.000156204
-0.000164014
-0.000170569
-0.00017602
-0.0001805
-0.000184125
-0.000187
-0.000189209
-0.00019083
-0.000191923
-0.00019254
-0.000192722
-0.000192501
-0.0001919
-0.000190935
-0.000189613
-0.000187936
-0.0001859
-0.000183495
-0.000180709
-0.000177526
-0.000173928
-0.0001699
-0.00016543
-0.000160513
-0.000155151
-0.00014936
-0.000143169
-0.00013662
-0.000129771
-0.00012269
-0.000115454
-0.000108145
-0.000100844
-9.36274e-05
-8.65659e-05
-7.97203e-05
-7.31408e-05
-6.68667e-05
-6.09269e-05
-5.534e-05
-5.01163e-05
-4.52586e-05
-4.07634e-05
-3.66226e-05
-3.28244e-05
-2.93541e-05
-2.61956e-05
-2.33314e-05
-2.07435e-05
-1.84136e-05
-1.63238e-05
-1.44562e-05
-1.27934e-05
-1.13185e-05
-1.00152e-05
-8.86759e-06
-7.86064e-06
-6.9798e-06
-6.21127e-06
-5.54199e-06
-4.95966e-06
-4.45284e-06
-4.01098e-06
-3.62454e-06
-3.28501e-06
-2.98507e-06
-2.71858e-06
-2.48066e-06
-2.26774e-06
-2.07762e-06
-1.90951e-06
-1.76407e-06
-1.64338e-06
-1.55047e-06
-1.49207e-06
-1.48798e-06
0.000505576
0.000473426
0.000440934
0.000406761
0.000370224
0.000331813
0.000292373
0.000252661
0.000213306
0.000174862
0.000137818
0.000102583
6.94716e-05
3.87029e-05
1.04078e-05
-1.53621e-05
-3.86227e-05
-5.94445e-05
-7.79395e-05
-9.42493e-05
-0.000108534
-0.000120962
-0.000131706
-0.000140931
-0.000148798
-0.000155453
-0.000161033
-0.000165659
-0.000169442
-0.000172478
-0.000174849
-0.000176629
-0.000177877
-0.000178645
-0.000178974
-0.000178897
-0.000178439
-0.000177617
-0.000176442
-0.000174918
-0.000173044
-0.000170817
-0.000168226
-0.000165261
-0.000161911
-0.000158165
-0.000154016
-0.000149462
-0.000144509
-0.000139173
-0.00013348
-0.000127469
-0.000121191
-0.000114704
-0.000108075
-0.000101375
-9.46739e-05
-8.80401e-05
-8.15361e-05
-7.52165e-05
-6.91276e-05
-6.33064e-05
-5.77804e-05
-5.2569e-05
-4.76833e-05
-4.3128e-05
-3.89018e-05
-3.49991e-05
-3.14105e-05
-2.81242e-05
-2.51262e-05
-2.24015e-05
-1.99343e-05
-1.77086e-05
-1.57081e-05
-1.39169e-05
-1.23192e-05
-1.08996e-05
-9.64312e-06
-8.5352e-06
-7.56181e-06
-6.70941e-06
-5.96506e-06
-5.31646e-06
-4.75198e-06
-4.26079e-06
-3.83285e-06
-3.45907e-06
-3.13136e-06
-2.84271e-06
-2.58723e-06
-2.36022e-06
-2.15821e-06
-1.97898e-06
-1.82156e-06
-1.68624e-06
-1.5744e-06
-1.48803e-06
-1.4323e-06
-1.41983e-06
0.000452683
0.000424406
0.000396072
0.000366464
0.000334912
0.000301764
0.000267689
0.000233287
0.000199058
0.000165451
0.000132873
0.000101676
7.21423e-05
4.44814e-05
1.88333e-05
-4.72652e-06
-2.61791e-05
-4.55533e-05
-6.29161e-05
-7.83637e-05
-9.20123e-05
-0.000103991
-0.000114434
-0.000123477
-0.000131253
-0.000137888
-0.0001435
-0.000148196
-0.000152076
-0.000155227
-0.000157726
-0.000159642
-0.000161032
-0.000161945
-0.000162423
-0.000162498
-0.000162197
-0.000161538
-0.000160534
-0.000159193
-0.000157519
-0.000155509
-0.00015316
-0.000150467
-0.000147423
-0.000144022
-0.000140262
-0.000136146
-0.00013168
-0.00012688
-0.000121772
-0.000116388
-0.000110772
-0.000104972
-9.90458e-05
-9.30515e-05
-8.70489e-05
-8.1096e-05
-7.52466e-05
-6.95488e-05
-6.40438e-05
-5.87653e-05
-5.37393e-05
-4.89848e-05
-4.45138e-05
-4.03323e-05
-3.64413e-05
-3.28376e-05
-2.95146e-05
-2.64628e-05
-2.36714e-05
-2.11277e-05
-1.88186e-05
-1.67303e-05
-1.4849e-05
-1.31606e-05
-1.16513e-05
-1.03077e-05
-9.1162e-06
-8.06391e-06
-7.13808e-06
-6.3264e-06
-5.61702e-06
-4.99858e-06
-4.46032e-06
-3.99216e-06
-3.58474e-06
-3.22955e-06
-2.91899e-06
-2.64647e-06
-2.40642e-06
-2.19436e-06
-2.00693e-06
-1.84187e-06
-1.69806e-06
-1.57535e-06
-1.47441e-06
-1.39631e-06
-1.34514e-06
-1.32298e-06
0.000392211
0.000368158
0.000344259
0.000319445
0.000293096
0.000265449
0.000237012
0.000208239
0.000179509
0.00015117
0.000123541
9.69109e-05
7.15184e-05
4.75512e-05
2.51452e-05
4.38705e-06
-1.46811e-05
-3.20563e-05
-4.77684e-05
-6.18738e-05
-7.44485e-05
-8.55827e-05
-9.53752e-05
-0.000103929
-0.000111348
-0.000117733
-0.000123181
-0.000127783
-0.000131624
-0.000134779
-0.000137317
-0.0001393
-0.000140779
-0.000141802
-0.000142406
-0.000142624
-0.00014248
-0.000141997
-0.000141187
-0.000140061
-0.000138625
-0.000136883
-0.000134833
-0.000132476
-0.000129809
-0.000126831
-0.000123544
-0.000119952
-0.000116065
-0.000111897
-0.00010747
-0.000102813
-9.79609e-05
-9.29535e-05
-8.78364e-05
-8.26573e-05
-7.74647e-05
-7.23059e-05
-6.72257e-05
-6.22643e-05
-5.74571e-05
-5.28336e-05
-4.84173e-05
-4.42259e-05
-4.02714e-05
-3.65608e-05
-3.30967e-05
-2.98781e-05
-2.69007e-05
-2.41581e-05
-2.16418e-05
-1.93422e-05
-1.72487e-05
-1.53502e-05
-1.36353e-05
-1.20925e-05
-1.07101e-05
-9.47676e-06
-8.38092e-06
-7.41137e-06
-6.55702e-06
-5.80708e-06
-5.15103e-06
-4.57875e-06
-4.08057e-06
-3.6474e-06
-3.27075e-06
-2.94292e-06
-2.65696e-06
-2.40685e-06
-2.18747e-06
-1.99468e-06
-1.82533e-06
-1.6772e-06
-1.54902e-06
-1.44032e-06
-1.3512e-06
-1.2819e-06
-1.2353e-06
-1.20788e-06
0.000329561
0.000309713
0.000290138
0.000269932
0.000248551
0.000226147
0.000203098
0.000179739
0.000156348
0.000133182
0.000110483
8.84782e-05
6.73599e-05
4.72866e-05
2.83802e-05
1.0727e-05
-5.62008e-06
-2.06388e-05
-3.43334e-05
-4.67304e-05
-5.78744e-05
-6.78234e-05
-7.66452e-05
-8.44136e-05
-9.12054e-05
-9.7098e-05
-0.000102167
-0.000106486
-0.000110123
-0.000113141
-0.0001156
-0.00011755
-0.000119038
-0.000120106
-0.000120787
-0.000121112
-0.000121104
-0.000120785
-0.000120167
-0.000119265
-0.000118084
-0.000116631
-0.000114909
-0.00011292
-0.000110666
-0.00010815
-0.000105374
-0.000102345
-9.90722e-05
-9.55703e-05
-9.18573e-05
-8.79565e-05
-8.38959e-05
-7.97078e-05
-7.54276e-05
-7.10928e-05
-6.67415e-05
-6.24115e-05
-5.81385e-05
-5.39553e-05
-4.98912e-05
-4.59708e-05
-4.22145e-05
-3.8638e-05
-3.52527e-05
-3.20656e-05
-2.90805e-05
-2.62978e-05
-2.37153e-05
-2.13287e-05
-1.91322e-05
-1.71186e-05
-1.52799e-05
-1.36077e-05
-1.20929e-05
-1.07264e-05
-9.49892e-06
-8.40116e-06
-7.42375e-06
-6.55739e-06
-5.79281e-06
-5.12089e-06
-4.53267e-06
-4.01947e-06
-3.5729e-06