/*--------------------------------*- C++ -*----------------------------------*\
| =========                 |                                                 |
| \\      /  F ield         | OpenFOAM: The Open Source CFD Toolbox           |
|  \\    /   O peration     | Version:  2.3.0                                 |
|   \\  /    A nd           | Web:      www.OpenFOAM.org                      |
|    \\/     M anipulation  |                                                 |
\*---------------------------------------------------------------------------*/
FoamFile
{
    version     2.0;
    format      ascii;
    class       surfaceScalarField;
    location    "0.2";
    object      phi;
}
// * * * * * * * * * * * * * * * * * * * * * * * * * * * * * * * * * * * * * //

dimensions      [0 3 -1 0 0 0 0];

internalField   nonuniform List<scalar> 
5644
(
2.86584e-08
2.77071e-09
-3.14291e-08
2.58185e-08
2.83995e-09
2.31291e-08
2.68934e-09
2.06434e-08
2.48574e-09
1.83791e-08
2.26427e-09
1.63477e-08
2.03142e-09
1.45528e-08
1.79489e-09
1.29903e-08
1.56249e-09
1.16494e-08
1.34094e-09
1.05136e-08
1.13574e-09
9.56268e-09
9.50957e-10
8.77359e-09
7.89098e-10
8.12257e-09
6.51012e-10
7.5865e-09
5.36072e-10
7.14401e-09
4.42496e-10
6.77626e-09
3.67741e-10
6.46736e-09
3.08901e-10
6.20433e-09
2.63038e-10
5.9769e-09
2.27431e-10
5.77719e-09
1.9971e-10
5.59926e-09
1.77921e-10
5.43875e-09
1.60518e-10
5.29242e-09
1.46324e-10
5.15795e-09
1.34468e-10
5.03363e-09
1.24326e-10
4.91817e-09
1.15456e-10
4.81062e-09
1.07553e-10
4.71021e-09
1.00405e-10
4.61635e-09
9.38649e-11
4.52852e-09
8.78296e-11
4.4463e-09
8.22227e-11
4.36931e-09
7.69861e-11
4.29724e-09
7.20732e-11
4.22979e-09
6.74448e-11
4.16672e-09
6.30676e-11
4.10781e-09
5.89123e-11
4.05286e-09
5.49533e-11
4.00169e-09
5.11686e-11
3.95415e-09
4.75383e-11
3.91011e-09
4.40433e-11
3.86945e-09
4.06625e-11
3.83208e-09
3.73684e-11
3.79795e-09
3.4123e-11
3.76708e-09
3.08723e-11
3.73954e-09
2.75434e-11
3.71549e-09
2.40457e-11
3.69521e-09
2.0279e-11
3.67907e-09
1.61394e-11
3.66757e-09
1.15035e-11
3.66129e-09
6.28643e-12
3.66036e-09
9.23283e-13
3.66351e-09
-3.15203e-12
3.66958e-09
-6.06319e-12
3.67771e-09
-8.13654e-12
3.68722e-09
-9.50518e-12
3.69746e-09
-1.02449e-11
3.70793e-09
-1.04649e-11
3.71822e-09
-1.02906e-11
3.72805e-09
-9.83544e-12
3.73725e-09
-9.20006e-12
3.74572e-09
-8.46418e-12
3.75341e-09
-7.68902e-12
3.76032e-09
-6.9165e-12
3.7665e-09
-6.17346e-12
3.77197e-09
-5.47621e-12
3.77681e-09
-4.83314e-12
3.78105e-09
-4.24707e-12
3.78477e-09
-3.71733e-12
3.78801e-09
-3.24117e-12
3.79083e-09
-2.81478e-12
3.79326e-09
-2.43395e-12
3.79536e-09
-2.09499e-12
3.79715e-09
-1.79521e-12
3.79868e-09
-1.53145e-12
3.79998e-09
-1.29952e-12
3.80108e-09
-1.09646e-12
3.802e-09
-9.21488e-13
3.80277e-09
-7.7233e-13
3.80342e-09
-6.45076e-13
3.80396e-09
-5.38401e-13
3.80441e-09
-4.49395e-13
3.80478e-09
-3.73735e-13
3.80509e-09
-3.0949e-13
3.80534e-09
-2.53226e-13
3.80554e-09
-2.02739e-13
3.80571e-09
-1.60241e-13
3.80583e-09
-1.25976e-13
3.80593e-09
-9.77441e-14
3.806e-09
-7.49624e-14
3.80606e-09
-5.69231e-14
3.8061e-09
-4.22863e-14
3.80613e-09
-2.92786e-14
3.80615e-09
-1.58731e-14
3.80615e-09
-9.6125e-16
3.80613e-09
1.6324e-14
3.80609e-09
4.01871e-14
3.80601e-09
7.84892e-14
3.80587e-09
1.43475e-13
3.80562e-09
2.55442e-13
7.672e-13
3.44112e-08
3.04078e-09
-3.46812e-08
3.3848e-08
3.40314e-09
3.30414e-08
3.49586e-09
3.20723e-08
3.45484e-09
3.09982e-08
3.33837e-09
2.98646e-08
3.16505e-09
2.87088e-08
2.95073e-09
2.75597e-08
2.71152e-09
2.64391e-08
2.46158e-09
2.53622e-08
2.2126e-09
2.43393e-08
1.9739e-09
2.33762e-08
1.75224e-09
2.24753e-08
1.55186e-09
2.16368e-08
1.37462e-09
2.08587e-08
1.22053e-09
2.01383e-08
1.08819e-09
1.94718e-08
9.75404e-10
1.88552e-08
8.79561e-10
1.82847e-08
7.98026e-10
1.7756e-08
7.28337e-10
1.72656e-08
6.68329e-10
1.681e-08
6.1618e-10
1.63859e-08
5.70403e-10
1.59905e-08
5.2981e-10
1.56214e-08
4.93468e-10
1.52762e-08
4.60644e-10
1.4953e-08
4.30764e-10
1.465e-08
4.03378e-10
1.43658e-08
3.78121e-10
1.40989e-08
3.54701e-10
1.38482e-08
3.32871e-10
1.36128e-08
3.12425e-10
1.33917e-08
2.93183e-10
1.31842e-08
2.7499e-10
1.29895e-08
2.57708e-10
1.28072e-08
2.41214e-10
1.26368e-08
2.25399e-10
1.24778e-08
2.10163e-10
1.23299e-08
1.95416e-10
1.21929e-08
1.81065e-10
1.20665e-08
1.67017e-10
1.19507e-08
1.53162e-10
1.18455e-08
1.39373e-10
1.17508e-08
1.25497e-10
1.1667e-08
1.11359e-10
1.15943e-08
9.67778e-11
1.1533e-08
8.15915e-11
1.14834e-08
6.57108e-11
1.14458e-08
4.91656e-11
1.14199e-08
3.21103e-11
1.14063e-08
1.45964e-11
1.14044e-08
-1.29587e-12
1.14115e-08
-1.31926e-11
1.14247e-08
-2.12641e-11
1.14417e-08
-2.65832e-11
1.14612e-08
-2.96849e-11
1.14817e-08
-3.10196e-11
1.15025e-08
-3.10133e-11
1.15227e-08
-3.00336e-11
1.15419e-08
-2.83993e-11
1.15598e-08
-2.63656e-11
1.15762e-08
-2.41308e-11
1.15911e-08
-2.18365e-11
1.16045e-08
-1.95784e-11
1.16165e-08
-1.74187e-11
1.1627e-08
-1.53942e-11
1.16363e-08
-1.35233e-11
1.16444e-08
-1.18121e-11
1.16514e-08
-1.02594e-11
1.16575e-08
-8.85901e-12
1.16626e-08
-7.60268e-12
1.1667e-08
-6.48198e-12
1.16707e-08
-5.48985e-12
1.16738e-08
-4.6178e-12
1.16763e-08
-3.85472e-12
1.16784e-08
-3.19148e-12
1.16801e-08
-2.6233e-12
1.16815e-08
-2.14222e-12
1.16826e-08
-1.73623e-12
1.16835e-08
-1.39874e-12
1.16841e-08
-1.11996e-12
1.16847e-08
-8.86973e-13
1.1685e-08
-6.93e-13
1.16853e-08
-5.29654e-13
1.16855e-08
-3.90816e-13
1.16856e-08
-2.77571e-13
1.16857e-08
-1.88244e-13
1.16857e-08
-1.18111e-13
1.16857e-08
-6.52496e-14
1.16857e-08
-2.67378e-14
1.16856e-08
1.53996e-15
1.16856e-08
2.41841e-14
1.16855e-08
4.66895e-14
1.16854e-08
7.42102e-14
1.16853e-08
1.12874e-13
1.16852e-08
1.72313e-13
1.1685e-08
2.70151e-13
1.16847e-08
4.39996e-13
1.16842e-08
7.77541e-13
1.72239e-12
3.6514e-08
2.89229e-09
-3.63655e-08
3.65995e-08
3.31762e-09
3.65612e-08
3.53416e-09
3.63986e-08
3.61748e-09
3.61231e-08
3.61388e-09
3.57485e-08
3.5396e-09
3.52916e-08
3.40759e-09
3.47701e-08
3.2331e-09
3.42005e-08
3.03111e-09
3.35981e-08
2.81501e-09
3.29759e-08
2.59612e-09
3.23447e-08
2.38345e-09
3.17131e-08
2.18344e-09
3.10877e-08
2.00003e-09
3.04732e-08
1.83499e-09
2.9873e-08
1.68842e-09
2.92892e-08
1.55923e-09
2.8723e-08
1.44571e-09
2.81753e-08
1.3458e-09
2.76461e-08
1.25748e-09
2.71356e-08
1.17884e-09
2.66435e-08
1.10824e-09
2.61697e-08
1.04429e-09
2.57136e-08
9.85852e-10
2.52751e-08
9.32018e-10
2.48536e-08
8.82065e-10
2.4449e-08
8.35417e-10
2.40608e-08
7.91612e-10
2.36886e-08
7.50272e-10
2.33322e-08
7.11083e-10
2.29913e-08
6.73781e-10
2.26656e-08
6.38131e-10
2.23549e-08
6.03929e-10
2.20589e-08
5.70987e-10
2.17774e-08
5.39135e-10
2.15104e-08
5.08215e-10
2.12578e-08
4.78077e-10
2.10193e-08
4.48581e-10
2.07952e-08
4.19585e-10
2.05853e-08
3.90944e-10
2.03898e-08
3.62501e-10
2.02089e-08
3.34082e-10
2.00428e-08
3.0549e-10
1.98918e-08
2.76508e-10
1.97562e-08
2.46921e-10
1.96364e-08
2.16545e-10
1.95327e-08
1.85291e-10
1.94452e-08
1.53243e-10
1.93736e-08
1.20779e-10
1.9317e-08
8.87145e-11
1.92734e-08
5.81939e-11
1.92423e-08
2.97471e-11
1.92254e-08
3.7274e-12
1.92213e-08
-1.71551e-11
1.92264e-08
-3.1661e-11
1.9238e-08
-4.12523e-11
1.92539e-08
-4.69612e-11
1.92726e-08
-4.96696e-11
1.92926e-08
-5.01075e-11
1.93131e-08
-4.89096e-11
1.93334e-08
-4.65903e-11
1.93528e-08
-4.35617e-11
1.93711e-08
-4.01327e-11
1.9388e-08
-3.65279e-11
1.94035e-08
-3.29066e-11
1.94175e-08
-2.93769e-11
1.943e-08
-2.60079e-11
1.9441e-08
-2.28412e-11
1.94507e-08
-1.98995e-11
1.9459e-08
-1.71924e-11
1.94661e-08
-1.47216e-11
1.94721e-08
-1.2485e-11
1.94771e-08
-1.04799e-11
1.94812e-08
-8.69945e-12
1.94845e-08
-7.1302e-12
1.9487e-08
-5.75974e-12
1.9489e-08
-4.58155e-12
1.94904e-08
-3.58299e-12
1.94914e-08
-2.74283e-12
1.94921e-08
-2.04811e-12
1.94925e-08
-1.48024e-12
1.94926e-08
-1.01235e-12
1.94925e-08
-6.27525e-13
1.94923e-08
-3.13086e-13
1.9492e-08
-6.64783e-14
1.94916e-08
1.26485e-13
1.94911e-08
2.82542e-13
1.94906e-08
3.99194e-13
1.949e-08
4.75299e-13
1.94895e-08
5.16028e-13
1.9489e-08
5.30638e-13
1.94885e-08
5.30284e-13
1.9488e-08
5.26714e-13
1.94875e-08
5.31474e-13
1.94871e-08
5.576e-13
1.94866e-08
6.22881e-13
1.94861e-08
7.57171e-13
1.94856e-08
1.01908e-12
1.94848e-08
1.56545e-12
2.8407e-12
3.80937e-08
2.70217e-09
-3.79035e-08
3.83038e-08
3.10748e-09
3.848e-08
3.35797e-09
3.86025e-08
3.49498e-09
3.86645e-08
3.55188e-09
3.86619e-08
3.54213e-09
3.85946e-08
3.47494e-09
3.84658e-08
3.3619e-09
3.82813e-08
3.21558e-09
3.80484e-08
3.04792e-09
3.77749e-08
2.86961e-09
3.74687e-08
2.68964e-09
3.71372e-08
2.51496e-09
3.67869e-08
2.35037e-09
3.64232e-08
2.19864e-09
3.60508e-08
2.0609e-09
3.5673e-08
1.93703e-09
3.52925e-08
1.82612e-09
3.49116e-08
1.72677e-09
3.45316e-08
1.63745e-09
3.41538e-08
1.55661e-09
3.37792e-08
1.48287e-09
3.34085e-08
1.415e-09
3.30424e-08
1.35198e-09
3.26814e-08
1.29299e-09
3.23261e-08
1.23733e-09
3.19771e-08
1.18448e-09
3.16347e-08
1.13398e-09
3.12995e-08
1.08549e-09
3.09719e-08
1.03871e-09
3.06523e-08
9.93372e-10
3.03411e-08
9.49259e-10
3.00389e-08
9.06169e-10
2.9746e-08
8.63917e-10
2.94628e-08
8.22329e-10
2.91897e-08
7.81242e-10
2.89273e-08
7.40494e-10
2.8676e-08
6.99928e-10
2.84362e-08
6.59379e-10
2.82085e-08
6.18674e-10
2.79933e-08
5.77625e-10
2.77914e-08
5.36023e-10
2.76032e-08
4.93646e-10
2.74295e-08
4.50273e-10
2.72707e-08
4.05717e-10
2.71273e-08
3.59881e-10
2.69998e-08
3.12835e-10
2.68881e-08
2.64923e-10
2.6792e-08
2.16871e-10
2.67109e-08
1.69861e-10
2.66436e-08
1.25419e-10
2.65883e-08
8.50595e-11
2.65426e-08
4.94803e-11
2.65073e-08
1.80786e-11
2.64841e-08
-8.44605e-12
2.64713e-08
-2.83905e-11
2.64665e-08
-4.22143e-11
2.6468e-08
-5.11801e-11
2.64742e-08
-5.62735e-11
2.64837e-08
-5.83894e-11
2.64954e-08
-5.82752e-11
2.65084e-08
-5.65605e-11
2.6522e-08
-5.37402e-11
2.65356e-08
-5.01969e-11
2.6549e-08
-4.62229e-11
2.65616e-08
-4.20348e-11
2.65734e-08
-3.77901e-11
2.65842e-08
-3.36011e-11
2.65938e-08
-2.9547e-11
2.66023e-08
-2.56827e-11
2.66096e-08
-2.20456e-11
2.66158e-08
-1.86626e-11
2.66209e-08
-1.55565e-11
2.66249e-08
-1.27402e-11
2.6628e-08
-1.02134e-11
2.66302e-08
-7.9731e-12
2.66317e-08
-6.0231e-12
2.66324e-08
-4.35638e-12
2.66326e-08
-2.9478e-12
2.66324e-08
-1.78079e-12
2.66317e-08
-8.40137e-13
2.66308e-08
-8.89475e-14
2.66296e-08
5.40319e-13
2.66282e-08
1.08818e-12
2.66266e-08
1.54434e-12
2.66248e-08
1.89792e-12
2.6623e-08
2.1444e-12
2.66211e-08
2.28797e-12
2.66192e-08
2.33943e-12
2.66174e-08
2.31629e-12
2.66157e-08
2.23995e-12
2.66141e-08
2.13285e-12
2.66126e-08
2.01684e-12
2.66113e-08
1.9126e-12
2.661e-08
1.84174e-12
2.66088e-08
1.8314e-12
2.66076e-08
1.92408e-12
2.66064e-08
2.20092e-12
2.66051e-08
2.85398e-12
4.33385e-12
3.96328e-08
2.53254e-09
-3.94632e-08
3.9842e-08
2.89828e-09
4.00519e-08
3.14809e-09
4.02441e-08
3.30285e-09
4.04099e-08
3.38601e-09
4.05426e-08
3.40947e-09
4.06367e-08
3.38082e-09
4.06896e-08
3.30905e-09
4.07008e-08
3.20429e-09
4.06722e-08
3.07656e-09
4.06067e-08
2.93507e-09
4.05086e-08
2.78783e-09
4.03822e-08
2.64136e-09
4.02321e-08
2.50044e-09
4.00625e-08
2.36818e-09
3.98772e-08
2.24621e-09
3.96793e-08
2.135e-09
3.94712e-08
2.0342e-09
3.9255e-08
1.94296e-09
3.90323e-08
1.86014e-09
3.88044e-08
1.78454e-09
3.85723e-08
1.715e-09
3.83368e-08
1.65047e-09
3.80987e-08
1.59005e-09
3.78587e-08
1.53296e-09
3.76175e-08
1.47859e-09
3.73756e-08
1.4264e-09
3.71336e-08
1.37597e-09
3.68921e-08
1.32696e-09
3.66518e-08
1.27905e-09
3.64131e-08
1.23199e-09
3.61769e-08
1.18556e-09
3.59435e-08
1.13954e-09
3.57137e-08
1.09375e-09
3.5488e-08
1.04799e-09
3.52671e-08
1.00211e-09
3.50517e-08
9.55914e-10
3.48424e-08
9.09233e-10
3.46399e-08
8.61882e-10
3.44449e-08
8.13666e-10
3.42582e-08
7.64377e-10
3.40804e-08
7.13794e-10
3.39123e-08
6.61697e-10
3.37547e-08
6.07894e-10
3.36082e-08
5.52261e-10
3.34732e-08
4.94816e-10
3.33503e-08
4.35805e-10
3.32394e-08
3.758e-10
3.31405e-08
3.15785e-10
3.30532e-08
2.57163e-10
3.2977e-08
2.01616e-10
3.29113e-08
1.50779e-10
3.2855e-08
1.05766e-10
3.2806e-08
6.70696e-11
3.27632e-08
3.43316e-11
3.2728e-08
6.78796e-12
3.2701e-08
-1.5192e-11
3.26811e-08
-3.12834e-11
3.26672e-08
-4.2412e-11
3.26584e-08
-4.95377e-11
3.26536e-08
-5.34704e-11
3.2652e-08
-5.49368e-11
3.26527e-08
-5.45293e-11
3.26553e-08
-5.27326e-11
3.2659e-08
-4.9937e-11
3.26634e-08
-4.64507e-11
3.26681e-08
-4.25138e-11
3.26728e-08
-3.83127e-11
3.26773e-08
-3.39923e-11
3.26813e-08
-2.96657e-11
3.26847e-08
-2.54207e-11
3.26873e-08
-2.13291e-11
3.26892e-08
-1.7456e-11
3.26903e-08
-1.38523e-11
3.26907e-08
-1.05483e-11
3.26903e-08
-7.56554e-12
3.26892e-08
-4.93003e-12
3.26875e-08
-2.66189e-12
3.26853e-08
-7.65813e-13
3.26827e-08
8.29198e-13
3.26796e-08
2.21872e-12
3.26761e-08
3.42741e-12
3.26722e-08
4.45132e-12
3.2668e-08
5.28197e-12
3.26636e-08
5.91272e-12
3.26592e-08
6.3397e-12
3.26548e-08
6.56787e-12
3.26504e-08
6.61403e-12
3.26463e-08
6.50449e-12
3.26423e-08
6.27286e-12
3.26386e-08
5.95621e-12
3.26351e-08
5.59144e-12
3.26319e-08
5.21315e-12
3.2629e-08
4.8532e-12
3.26263e-08
4.54311e-12
3.26238e-08
4.31953e-12
3.26215e-08
4.23584e-12
3.26193e-08
4.38783e-12
3.26172e-08
4.98064e-12
6.4631e-12
4.12081e-08
2.38664e-09
-4.10622e-08
4.13953e-08
2.71104e-09
4.1595e-08
2.94846e-09
4.17909e-08
3.10688e-09
4.19753e-08
3.20159e-09
4.21422e-08
3.24264e-09
4.22862e-08
3.23683e-09
4.24037e-08
3.19153e-09
4.24928e-08
3.11516e-09
4.25532e-08
3.0162e-09
4.25857e-08
2.90254e-09
4.25923e-08
2.78122e-09
4.25756e-08
2.65806e-09
4.25385e-08
2.53755e-09
4.24839e-08
2.4228e-09
4.24145e-08
2.31563e-09
4.23326e-08
2.21687e-09
4.22403e-08
2.12654e-09
4.21391e-08
2.04415e-09
4.20303e-08
1.96891e-09
4.19149e-08
1.89989e-09
4.17938e-08
1.83613e-09
4.16675e-08
1.77675e-09
4.15367e-08
1.72092e-09
4.14017e-08
1.66795e-09
4.1263e-08
1.61724e-09
4.11211e-08
1.56829e-09
4.09764e-08
1.52067e-09
4.08294e-08
1.47403e-09
4.06804e-08
1.42805e-09
4.05299e-08
1.38246e-09
4.03784e-08
1.33702e-09
4.02265e-08
1.29151e-09
4.00745e-08
1.24571e-09
3.99231e-08
1.19943e-09
3.97727e-08
1.15246e-09
3.9624e-08
1.10462e-09
3.94775e-08
1.0557e-09
3.93339e-08
1.0055e-09
3.91938e-08
9.53807e-10
3.90578e-08
9.00401e-10
3.89265e-08
8.45061e-10
3.88006e-08
7.87582e-10
3.86807e-08
7.27813e-10
3.85673e-08
6.657e-10
3.84607e-08
6.01366e-10
3.83613e-08
5.35192e-10
3.82692e-08
4.67901e-10
3.81844e-08
4.00617e-10
3.81067e-08
3.34829e-10
3.80361e-08
2.72243e-10
3.79724e-08
2.14485e-10
3.79154e-08
1.62767e-10
3.78647e-08
1.17758e-10
3.78195e-08
7.95653e-11
3.77784e-08
4.78986e-11
3.77412e-08
2.20024e-11
3.77087e-08
1.13581e-12
3.76812e-08
-1.48838e-11
3.76581e-08
-2.64095e-11
3.76388e-08
-3.42209e-11
3.76229e-08
-3.90421e-11
3.76099e-08
-4.14642e-11
3.75991e-08
-4.19947e-11
3.75903e-08
-4.10585e-11
3.75828e-08
-3.90051e-11
3.75764e-08
-3.61202e-11
3.75707e-08
-3.26372e-11
3.75655e-08
-2.87487e-11
3.75604e-08
-2.46153e-11
3.75554e-08
-2.03712e-11
3.75502e-08
-1.61294e-11
3.75447e-08
-1.19953e-11
3.75389e-08
-8.05996e-12
3.75328e-08
-4.40756e-12
3.75264e-08
-1.11761e-12
3.75196e-08
1.83023e-12
3.75124e-08
4.49155e-12
3.75048e-08
6.86482e-12
3.74967e-08
8.93866e-12
3.74882e-08
1.07091e-11
3.74795e-08
1.21809e-11
3.74706e-08
1.33479e-11
3.74616e-08
1.42006e-11
3.74528e-08
1.47363e-11
3.74442e-08
1.49615e-11
3.74359e-08
1.48955e-11
3.74279e-08
1.45717e-11
3.74204e-08
1.40345e-11
3.74133e-08
1.33355e-11
3.74068e-08
1.25288e-11
3.74007e-08
1.16667e-11
3.73951e-08
1.07974e-11
3.739e-08
9.96426e-12
3.73853e-08
9.20856e-12
3.73811e-08
8.57506e-12
3.73772e-08
8.12414e-12
3.73736e-08
7.9562e-12
3.73703e-08
8.26864e-12
9.47395e-12
4.28319e-08
2.25941e-09
-4.27046e-08
4.29973e-08
2.54558e-09
4.31793e-08
2.76651e-09
4.33635e-08
2.92264e-09
4.35423e-08
3.0228e-09
4.37102e-08
3.07471e-09
4.38628e-08
3.08427e-09
4.39966e-08
3.05772e-09
4.41097e-08
3.00208e-09
4.42013e-08
2.9246e-09
4.42717e-08
2.83215e-09
4.4322e-08
2.73089e-09
4.4354e-08
2.62607e-09
4.43697e-08
2.52182e-09
4.43714e-08
2.42114e-09
4.4361e-08
2.32597e-09
4.43406e-08
2.23732e-09
4.43116e-08
2.15551e-09
4.42754e-08
2.08034e-09
4.4233e-08
2.01129e-09
4.41853e-08
1.94767e-09
4.41327e-08
1.88872e-09
4.40758e-08
1.83367e-09
4.40149e-08
1.78182e-09
4.39503e-08
1.73253e-09
4.38823e-08
1.68525e-09
4.38111e-08
1.6395e-09
4.37369e-08
1.59485e-09
4.366e-08
1.55094e-09
4.35806e-08
1.50745e-09
4.34989e-08
1.46409e-09
4.34153e-08
1.42061e-09
4.33301e-08
1.37677e-09
4.32435e-08
1.33233e-09
4.31558e-08
1.28707e-09
4.30675e-08
1.24079e-09
4.29789e-08
1.19325e-09
4.28903e-08
1.14426e-09
4.28022e-08
1.09358e-09
4.2715e-08
1.041e-09
4.26291e-08
9.86293e-10
4.25449e-08
9.2924e-10
4.24629e-08
8.69666e-10
4.23832e-08
8.07459e-10
4.23063e-08
7.42627e-10
4.22323e-08
6.75369e-10
4.21613e-08
6.06147e-10
4.20935e-08
5.35755e-10
4.20287e-08
4.65351e-10
4.19672e-08
3.96406e-10
4.19088e-08
3.30557e-10
4.1854e-08
2.69357e-10
4.18027e-08
2.14009e-10
4.17552e-08
1.65245e-10
4.17115e-08
1.23317e-10
4.16713e-08
8.80961e-11
4.16342e-08
5.9142e-11
4.15995e-08
3.58324e-11
4.15671e-08
1.74314e-11
4.15375e-08
3.21089e-12
4.15106e-08
-7.31544e-12
4.14862e-08
-1.45937e-11
4.14639e-08
-1.91737e-11
4.14434e-08
-2.15553e-11
4.14245e-08
-2.21645e-11
4.14069e-08
-2.13609e-11
4.13902e-08
-1.94481e-11
4.13743e-08
-1.66836e-11
4.13588e-08
-1.32901e-11
4.13437e-08
-9.46719e-12
4.13287e-08
-5.40725e-12
4.13139e-08
-1.28036e-12
4.1299e-08
2.82926e-12
4.12841e-08
6.86395e-12
4.1269e-08
1.07301e-11
4.12535e-08
1.43476e-11
4.12377e-08
1.76458e-11
4.12216e-08
2.05749e-11
4.12054e-08
2.31136e-11
4.11891e-08
2.52424e-11
4.11728e-08
2.69461e-11
4.11568e-08
2.82197e-11
4.11411e-08
2.9058e-11
4.11258e-08
2.94592e-11
4.11111e-08
2.94329e-11
4.10971e-08
2.90024e-11
4.10838e-08
2.8206e-11
4.10712e-08
2.70973e-11
4.10595e-08
2.57405e-11
4.10487e-08
2.42061e-11
4.10386e-08
2.25651e-11
4.10294e-08
2.08849e-11
4.1021e-08
1.92263e-11
4.10133e-08
1.7643e-11
4.10063e-08
1.6184e-11
4.1e-08
1.48994e-11
4.09943e-08
1.38513e-11
4.09891e-08
1.31346e-11
4.09844e-08
1.29194e-11
1.35314e-11
4.45071e-08
2.1463e-09
-4.4394e-08
4.4654e-08
2.39869e-09
4.48185e-08
2.60193e-09
4.49886e-08
2.75262e-09
4.51564e-08
2.85495e-09
4.53169e-08
2.91425e-09
4.54658e-08
2.93538e-09
4.56e-08
2.9235e-09
4.57176e-08
2.88447e-09
4.58177e-08
2.82445e-09
4.59005e-08
2.74938e-09
4.59667e-08
2.66469e-09
4.60177e-08
2.57508e-09
4.60552e-08
2.48433e-09
4.6081e-08
2.39534e-09
4.60969e-08
2.31006e-09
4.61045e-08
2.22967e-09
4.61053e-08
2.1547e-09
4.61005e-08
2.08519e-09
4.60909e-08
2.02087e-09
4.60773e-08
1.96125e-09
4.60603e-08
1.90575e-09
4.60402e-08
1.85376e-09
4.60173e-08
1.80468e-09
4.59919e-08
1.75795e-09
4.59641e-08
1.71306e-09
4.59341e-08
1.66955e-09
4.59019e-08
1.62704e-09
4.58676e-08
1.58516e-09
4.58315e-08
1.5436e-09
4.57935e-08
1.50206e-09
4.57539e-08
1.46027e-09
4.57126e-08
1.41799e-09
4.567e-08
1.37497e-09
4.56261e-08
1.33099e-09
4.5581e-08
1.28581e-09
4.55351e-08
1.23922e-09
4.54884e-08
1.19098e-09
4.54411e-08
1.14087e-09
4.53934e-08
1.08866e-09
4.53456e-08
1.03415e-09
4.52977e-08
9.7713e-10
4.52499e-08
9.17452e-10
4.52023e-08
8.55044e-10
4.5155e-08
7.89961e-10
4.51079e-08
7.22449e-10
4.5061e-08
6.53007e-10
4.50143e-08
5.82435e-10
4.49678e-08
5.11851e-10
4.49216e-08
4.4264e-10
4.48759e-08
3.76315e-10
4.48309e-08
3.14312e-10
4.47871e-08
2.57778e-10
4.47449e-08
2.07458e-10
4.47046e-08
1.6368e-10
4.46662e-08
1.26419e-10
4.463e-08
9.53687e-11
4.45958e-08
7.00275e-11
4.45635e-08
4.97882e-11
4.45326e-08
3.40257e-11
4.45032e-08
2.21266e-11
4.44751e-08
1.35176e-11
4.44482e-08
7.70294e-12
4.44224e-08
4.23537e-12
4.43975e-08
2.72144e-12
4.43734e-08
2.81799e-12
4.43497e-08
4.225e-12
4.43263e-08
6.67765e-12
4.43031e-08
9.93852e-12
4.42798e-08
1.37916e-11
4.42564e-08
1.80413e-11
4.42326e-08
2.25105e-11
4.42084e-08
2.70292e-11
4.41838e-08
3.1446e-11
4.41589e-08
3.56374e-11
4.41338e-08
3.94982e-11
4.41085e-08
4.29336e-11
4.40832e-08
4.58688e-11
4.4058e-08
4.82585e-11
4.40332e-08
5.00714e-11
4.40089e-08
5.12889e-11
4.39852e-08
5.19084e-11
4.39623e-08
5.19369e-11
4.39404e-08
5.13921e-11
4.39195e-08
5.03068e-11
4.38998e-08
4.87305e-11
4.38812e-08
4.67284e-11
4.38639e-08
4.438e-11
4.38479e-08
4.17733e-11
4.38331e-08
3.90001e-11
4.38195e-08
3.61496e-11
4.38071e-08
3.33042e-11
4.37958e-08
3.05365e-11
4.37855e-08
2.7909e-11
4.37762e-08
2.54762e-11
4.37679e-08
2.32903e-11
4.37603e-08
2.14102e-11
4.37535e-08
1.99167e-11
4.37475e-08
1.89373e-11
1.86698e-11
4.62355e-08
2.04405e-09
-4.61332e-08
4.6367e-08
2.26721e-09
4.65159e-08
2.45297e-09
4.66721e-08
2.59642e-09
4.68284e-08
2.69867e-09
4.69796e-08
2.76301e-09
4.71218e-08
2.79317e-09
4.7252e-08
2.79333e-09
4.73682e-08
2.76829e-09
4.74694e-08
2.72322e-09
4.75556e-08
2.66322e-09
4.76273e-08
2.59302e-09
4.76855e-08
2.5168e-09
4.77318e-08
2.43804e-09
4.77677e-08
2.35944e-09
4.77948e-08
2.28297e-09
4.78146e-08
2.20989e-09
4.78284e-08
2.1409e-09
4.78374e-08
2.07624e-09
4.78424e-08
2.01585e-09
4.78442e-08
1.95944e-09
4.78434e-08
1.90659e-09
4.78403e-08
1.85683e-09
4.78353e-08
1.80966e-09
4.78286e-08
1.76462e-09
4.78204e-08
1.72126e-09
4.78108e-08
1.67918e-09
4.77999e-08
1.63799e-09
4.77876e-08
1.59737e-09
4.77742e-08
1.55702e-09
4.77596e-08
1.51663e-09
4.7744e-08
1.47596e-09
4.77272e-08
1.43476e-09
4.77094e-08
1.39278e-09
4.76906e-08
1.34978e-09
4.76708e-08
1.30556e-09
4.76502e-08
1.25987e-09
4.76287e-08
1.2125e-09
4.76063e-08
1.16322e-09
4.75832e-08
1.11183e-09
4.75592e-08
1.05812e-09
4.75344e-08
1.00192e-09
4.75087e-08
9.43119e-10
4.74821e-08
8.81671e-10
4.74544e-08
8.1767e-10
4.74255e-08
7.51388e-10
4.73951e-08
6.83326e-10
4.73633e-08
6.14254e-10
4.733e-08
5.45213e-10
4.72951e-08
4.77463e-10
4.72591e-08
4.12366e-10
4.72222e-08
3.51224e-10
4.71849e-08
2.95101e-10
4.71476e-08
2.44726e-10
4.71108e-08
2.00472e-10
4.70748e-08
1.62393e-10
4.70399e-08
1.30284e-10
4.70062e-08
1.03758e-10
4.69736e-08
8.23136e-11
4.69423e-08
6.54065e-11
4.69119e-08
5.24847e-11
4.68824e-08
4.30158e-11
4.68536e-08
3.65211e-11
4.68253e-08
3.25679e-11
4.67972e-08
3.07683e-11
4.67693e-08
3.07761e-11
4.67412e-08
3.22803e-11
4.67129e-08
3.49977e-11
4.66842e-08
3.86658e-11
4.66549e-08
4.30389e-11
4.66251e-08
4.78863e-11
4.65946e-08
5.29894e-11
4.65635e-08
5.81349e-11
4.65318e-08
6.31243e-11
4.64997e-08
6.77857e-11
4.64672e-08
7.19709e-11
4.64346e-08
7.55526e-11
4.6402e-08
7.84303e-11
4.63697e-08
8.05386e-11
4.63379e-08
8.18384e-11
4.63069e-08
8.23145e-11
4.62769e-08
8.19761e-11
4.62479e-08
8.08527e-11
4.62203e-08
7.89918e-11
4.61942e-08
7.64605e-11
4.61696e-08
7.33444e-11
4.61466e-08
6.97445e-11
4.61252e-08
6.57733e-11
4.61054e-08
6.15487e-11
4.60872e-08
5.71878e-11
4.60706e-08
5.28006e-11
4.60554e-08
4.84859e-11
4.60416e-08
4.43284e-11
4.60291e-08
4.03988e-11
4.60178e-08
3.67555e-11
4.60076e-08
3.34502e-11
4.59985e-08
3.0535e-11
4.59904e-08
2.80709e-11
4.59832e-08
2.6136e-11
2.47897e-11
4.80191e-08
1.95039e-09
-4.79255e-08
4.81378e-08
2.1485e-09
4.8273e-08
2.31777e-09
4.84164e-08
2.45304e-09
4.85615e-08
2.55361e-09
4.87034e-08
2.62113e-09
4.88382e-08
2.6583e-09
4.89632e-08
2.66838e-09
4.90762e-08
2.65527e-09
4.91762e-08
2.62322e-09
4.92629e-08
2.57656e-09
4.93365e-08
2.51936e-09
4.9398e-08
2.45532e-09
4.94485e-08
2.38758e-09
4.94892e-08
2.31866e-09
4.95217e-08
2.25046e-09
4.95473e-08
2.1843e-09
4.95672e-08
2.121e-09
4.95825e-08
2.06095e-09
4.95941e-08
2.00427e-09
4.96027e-08
1.95082e-09
4.9609e-08
1.90034e-09
4.96133e-08
1.85249e-09
4.96161e-08
1.8069e-09
4.96175e-08
1.76317e-09
4.96179e-08
1.72092e-09
4.96172e-08
1.67981e-09
4.96157e-08
1.6395e-09
4.96134e-08
1.59967e-09
4.96104e-08
1.56006e-09
4.96066e-08
1.52038e-09
4.96022e-08
1.4804e-09
4.95971e-08
1.43986e-09
4.95913e-08
1.39855e-09
4.95849e-08
1.35623e-09
4.95777e-08
1.3127e-09
4.95699e-08
1.26772e-09
4.95613e-08
1.2211e-09
4.95519e-08
1.17263e-09
4.95416e-08
1.12211e-09
4.95303e-08
1.06938e-09
4.95179e-08
1.01428e-09
4.95043e-08
9.56731e-10
4.94893e-08
8.9673e-10
4.94726e-08
8.34394e-10
4.94539e-08
7.70008e-10
4.94332e-08
7.0406e-10
4.94102e-08
6.3727e-10
4.93848e-08
5.70584e-10
4.93571e-08
5.0513e-10
4.93274e-08
4.42118e-10
4.92959e-08
3.82709e-10
4.92631e-08
3.27874e-10
4.92296e-08
2.78312e-10
4.91956e-08
2.34416e-10
4.91617e-08
1.96303e-10
4.91281e-08
1.63857e-10
4.90951e-08
1.36787e-10
4.90627e-08
1.1469e-10
4.9031e-08
9.71097e-11
4.89999e-08
8.35667e-11
4.89694e-08
7.35891e-11
4.89391e-08
6.67374e-11
4.89091e-08
6.26058e-11
4.88791e-08
6.08209e-11
4.88488e-08
6.10391e-11
4.88181e-08
6.29404e-11
4.87869e-08
6.62231e-11
4.8755e-08
7.05973e-11
4.87222e-08
7.57817e-11
4.86886e-08
8.15025e-11
4.86541e-08
8.74924e-11
4.86188e-08
9.34888e-11
4.85826e-08
9.92429e-11
4.85459e-08
1.04531e-10
4.85087e-08
1.09158e-10
4.84713e-08
1.12958e-10
4.84339e-08
1.15801e-10
4.83969e-08
1.17603e-10
4.83604e-08
1.18316e-10
4.83248e-08
1.17932e-10
4.82903e-08
1.16476e-10
4.82571e-08
1.14007e-10
4.82255e-08
1.10608e-10
4.81956e-08
1.06389e-10
4.81674e-08
1.01478e-10
4.81412e-08
9.60197e-11
4.81168e-08
9.0165e-11
4.80943e-08
8.40669e-11
4.80736e-08
7.78719e-11
4.80547e-08
7.17141e-11
4.80374e-08
6.57105e-11
4.80218e-08
5.9959e-11
4.80077e-08
5.45381e-11
4.79949e-08
4.951e-11
4.79834e-08
4.49243e-11
4.79731e-08
4.08239e-11
4.7964e-08
3.72486e-11
4.79559e-08
3.42281e-11
3.17079e-11
4.98603e-08
1.86373e-09
-4.97736e-08
4.99683e-08
2.04046e-09
5.00915e-08
2.1946e-09
5.02232e-08
2.32139e-09
5.03576e-08
2.41914e-09
5.04904e-08
2.48837e-09
5.06178e-08
2.53084e-09
5.07372e-08
2.54904e-09
5.08464e-08
2.54605e-09
5.09443e-08
2.52533e-09
5.10304e-08
2.49048e-09
5.11047e-08
2.44501e-09
5.11679e-08
2.39212e-09
5.12209e-08
2.33463e-09
5.12647e-08
2.27485e-09
5.13006e-08
2.21459e-09
5.13297e-08
2.15517e-09
5.13532e-08
2.09748e-09
5.13721e-08
2.04205e-09
5.13873e-08
1.9891e-09
5.13995e-08
1.93865e-09
5.14092e-08
1.89058e-09
5.14171e-08
1.84466e-09
5.14233e-08
1.80061e-09
5.14284e-08
1.75813e-09
5.14324e-08
1.71691e-09
5.14356e-08
1.67665e-09
5.1438e-08
1.63705e-09
5.14398e-08
1.59786e-09
5.14411e-08
1.5588e-09
5.14418e-08
1.51964e-09
5.14421e-08
1.48014e-09
5.14419e-08
1.44008e-09
5.14412e-08
1.39924e-09
5.144e-08
1.35742e-09
5.14383e-08
1.31441e-09
5.1436e-08
1.27001e-09
5.14331e-08
1.22404e-09
5.14294e-08
1.17631e-09
5.14249e-08
1.12664e-09
5.14193e-08
1.0749e-09
5.14127e-08
1.02096e-09
5.14046e-08
9.64781e-10
5.1395e-08
9.06382e-10
5.13835e-08
8.45905e-10
5.13698e-08
7.83638e-10
5.13538e-08
7.20048e-10
5.13353e-08
6.55799e-10
5.13141e-08
5.91742e-10
5.12904e-08
5.28879e-10
5.12642e-08
4.68276e-10
5.1236e-08
4.10961e-10
5.1206e-08
3.57815e-10
5.11749e-08
3.09493e-10
5.11429e-08
2.66399e-10
5.11105e-08
2.28697e-10
5.1078e-08
1.96343e-10
5.10457e-08
1.69133e-10
5.10136e-08
1.46755e-10
5.09819e-08
1.28834e-10
5.09505e-08
1.14963e-10
5.09193e-08
1.04735e-10
5.08883e-08
9.77537e-11
5.08573e-08
9.36475e-11
5.0826e-08
9.20626e-11
5.07944e-08
9.26627e-11
5.07622e-08
9.51236e-11
5.07293e-08
9.91281e-11
5.06956e-08
1.0436e-10
5.06608e-08
1.10504e-10
5.06251e-08
1.17241e-10
5.05883e-08
1.24253e-10
5.05506e-08
1.31227e-10
5.0512e-08
1.37858e-10
5.04726e-08
1.4387e-10
5.04328e-08
1.49016e-10
5.03926e-08
1.5309e-10
5.03525e-08
1.55931e-10
5.03127e-08
1.57431e-10
5.02735e-08
1.57537e-10
5.02352e-08
1.56246e-10
5.0198e-08
1.53604e-10
5.01623e-08
1.49698e-10
5.01283e-08
1.44653e-10
5.00961e-08
1.38623e-10
5.00658e-08
1.31783e-10
5.00374e-08
1.24324e-10
5.00112e-08
1.16441e-10
4.99869e-08
1.08324e-10
4.99646e-08
1.00152e-10
4.99443e-08
9.20849e-11
4.99257e-08
8.42604e-11
4.99089e-08
7.679e-11
4.98937e-08
6.97611e-11
4.98799e-08
6.32387e-11
4.98676e-08
5.72702e-11
4.98565e-08
5.18888e-11
4.98467e-08
4.71138e-11
4.98379e-08
4.29349e-11
3.92266e-11
5.17614e-08
1.78294e-09
-5.16806e-08
5.18604e-08
1.94143e-09
5.19731e-08
2.08197e-09
5.20941e-08
2.20038e-09
5.22186e-08
2.29459e-09
5.23426e-08
2.36436e-09
5.24627e-08
2.41071e-09
5.25763e-08
2.43545e-09
5.26814e-08
2.44096e-09
5.27767e-08
2.43002e-09
5.28616e-08
2.4056e-09
5.2936e-08
2.37065e-09
5.30001e-08
2.32795e-09
5.30548e-08
2.27997e-09
5.31008e-08
2.22881e-09
5.31392e-08
2.17617e-09
5.31711e-08
2.12334e-09
5.31973e-08
2.07124e-09
5.32189e-08
2.02047e-09
5.32366e-08
1.97136e-09
5.32512e-08
1.92406e-09
5.32633e-08
1.87853e-09
5.32733e-08
1.83467e-09
5.32816e-08
1.79228e-09
5.32886e-08
1.75115e-09
5.32945e-08
1.71102e-09
5.32995e-08
1.67166e-09
5.33037e-08
1.63282e-09
5.33073e-08
1.59425e-09
5.33104e-08
1.55574e-09
5.33129e-08
1.51706e-09
5.33151e-08
1.47801e-09
5.33168e-08
1.43838e-09
5.3318e-08
1.39797e-09
5.33188e-08
1.35659e-09
5.33192e-08
1.31407e-09
5.3319e-08
1.27021e-09
5.33182e-08
1.22485e-09
5.33167e-08
1.17783e-09
5.33143e-08
1.12901e-09
5.33109e-08
1.07825e-09
5.33064e-08
1.0255e-09
5.33005e-08
9.70712e-10
5.32929e-08
9.13948e-10
5.32834e-08
8.55361e-10
5.32718e-08
7.95241e-10
5.32579e-08
7.34029e-10
5.32413e-08
6.72334e-10
5.32221e-08
6.1092e-10
5.32004e-08
5.50671e-10
5.31761e-08
4.92527e-10
5.31497e-08
4.37399e-10
5.31214e-08
3.86077e-10
5.30917e-08
3.39177e-10
5.3061e-08
2.971e-10
5.30297e-08
2.60044e-10
5.2998e-08
2.28028e-10
5.29662e-08
2.00922e-10
5.29345e-08
1.78495e-10
5.29028e-08
1.60447e-10
5.28714e-08
1.46443e-10
5.284e-08
1.36135e-10
5.28085e-08
1.29176e-10
5.2777e-08
1.25226e-10
5.27451e-08
1.23955e-10
5.27127e-08
1.25035e-10
5.26797e-08
1.28143e-10
5.26459e-08
1.32946e-10
5.26111e-08
1.39106e-10
5.25753e-08
1.46272e-10
5.25385e-08
1.54083e-10
5.25006e-08
1.62171e-10
5.24616e-08
1.7017e-10
5.24218e-08
1.77721e-10
5.23812e-08
1.84493e-10
5.234e-08
1.90189e-10
5.22985e-08
1.94559e-10
5.2257e-08
1.9741e-10
5.22159e-08
1.98614e-10
5.21753e-08
1.9811e-10
5.21356e-08
1.959e-10
5.20972e-08
1.92049e-10
5.20602e-08
1.86678e-10
5.20249e-08
1.79949e-10
5.19915e-08
1.72063e-10
5.196e-08
1.63243e-10
5.19306e-08
1.53727e-10
5.19033e-08
1.43754e-10
5.18781e-08
1.33555e-10
5.18549e-08
1.23341e-10
5.18337e-08
1.13301e-10
5.18143e-08
1.03592e-10
5.17968e-08
9.434e-11
5.17809e-08
8.56421e-11
5.17666e-08
7.75667e-11
5.17537e-08
7.01587e-11
5.17421e-08
6.34425e-11
5.17318e-08
5.74196e-11
5.17227e-08
5.20504e-11
4.71822e-11
5.3725e-08
1.70723e-09
-5.36493e-08
5.38163e-08
1.85015e-09
5.39197e-08
1.97858e-09
5.40311e-08
2.08901e-09
5.41464e-08
2.17928e-09
5.4262e-08
2.2487e-09
5.4375e-08
2.29774e-09
5.44828e-08
2.32766e-09
5.45835e-08
2.34023e-09
5.46759e-08
2.33767e-09
5.47591e-08
2.32238e-09
5.48329e-08
2.29683e-09
5.48975e-08
2.26337e-09
5.49533e-08
2.22416e-09
5.5001e-08
2.18109e-09
5.50415e-08
2.13572e-09