/*--------------------------------*- C++ -*----------------------------------*\
| =========                 |                                                 |
| \\      /  F ield         | OpenFOAM: The Open Source CFD Toolbox           |
|  \\    /   O peration     | Version:  2.3.0                                 |
|   \\  /    A nd           | Web:      www.OpenFOAM.org                      |
|    \\/     M anipulation  |                                                 |
\*---------------------------------------------------------------------------*/
FoamFile
{
    version     2.0;
    format      ascii;
    class       surfaceScalarField;
    location    "0.2";
    object      phi_0;
}
// * * * * * * * * * * * * * * * * * * * * * * * * * * * * * * * * * * * * * //

dimensions      [0 3 -1 0 0 0 0];

internalField   nonuniform List<scalar> 
5644
(
2.86585e-08
2.77069e-09
-3.14292e-08
2.58186e-08
2.83993e-09
2.31292e-08
2.68932e-09
2.06435e-08
2.48572e-09
1.83793e-08
2.26425e-09
1.63479e-08
2.0314e-09
1.4553e-08
1.79487e-09
1.29905e-08
1.56247e-09
1.16496e-08
1.34092e-09
1.05139e-08
1.13571e-09
9.56297e-09
9.50931e-10
8.7739e-09
7.89071e-10
8.12292e-09
6.50983e-10
7.58687e-09
5.36042e-10
7.14441e-09
4.42463e-10
6.77671e-09
3.67706e-10
6.46784e-09
3.08862e-10
6.20485e-09
2.62995e-10
5.97746e-09
2.27384e-10
5.77781e-09
1.99659e-10
5.59994e-09
1.77865e-10
5.43948e-09
1.60457e-10
5.29323e-09
1.46258e-10
5.15883e-09
1.34396e-10
5.03458e-09
1.24248e-10
4.91921e-09
1.15371e-10
4.81175e-09
1.07461e-10
4.71144e-09
1.00305e-10
4.61769e-09
9.37576e-11
4.52997e-09
8.77136e-11
4.44787e-09
8.20975e-11
4.37102e-09
7.68509e-11
4.2991e-09
7.19273e-11
4.23181e-09
6.72876e-11
4.16891e-09
6.28984e-11
4.11018e-09
5.87304e-11
4.05542e-09
5.47584e-11
4.00446e-09
5.09603e-11
3.95715e-09
4.73162e-11
3.91334e-09
4.38064e-11
3.87293e-09
4.04086e-11
3.83584e-09
3.70933e-11
3.80202e-09
3.3819e-11
3.77149e-09
3.05276e-11
3.74435e-09
2.71418e-11
3.72078e-09
2.35672e-11
3.70108e-09
1.97021e-11
3.68564e-09
1.54388e-11
3.67499e-09
1.06512e-11
3.66972e-09
5.26778e-12
3.66967e-09
4.84162e-14
3.67348e-09
-3.80675e-12
3.68005e-09
-6.56698e-12
3.68856e-09
-8.51497e-12
3.69832e-09
-9.7575e-12
3.70871e-09
-1.03915e-11
3.71923e-09
-1.05241e-11
3.72952e-09
-1.02819e-11
3.7393e-09
-9.77848e-12
3.74841e-09
-9.11113e-12
3.75676e-09
-8.35663e-12
3.76434e-09
-7.57285e-12
3.77113e-09
-6.79856e-12
3.77719e-09
-6.05837e-12
3.78256e-09
-5.36686e-12
3.78729e-09
-4.73111e-12
3.79144e-09
-4.15304e-12
3.79508e-09
-3.6314e-12
3.79824e-09
-3.16312e-12
3.80098e-09
-2.74419e-12
3.80335e-09
-2.37037e-12
3.80539e-09
-2.03819e-12
3.80714e-09
-1.74495e-12
3.80862e-09
-1.48713e-12
3.80988e-09
-1.26055e-12
3.81095e-09
-1.06278e-12
3.81184e-09
-8.93017e-13
3.81259e-09
-7.48315e-13
3.81321e-09
-6.25159e-13
3.81374e-09
-5.22324e-13
3.81417e-09
-4.36177e-13
3.81453e-09
-3.62986e-13
3.81484e-09
-3.00801e-13
3.81508e-09
-2.45895e-13
3.81528e-09
-1.96942e-13
3.81543e-09
-1.56287e-13
3.81556e-09
-1.23644e-13
3.81565e-09
-9.69224e-14
3.81573e-09
-7.55269e-14
3.81579e-09
-5.86167e-14
3.81583e-09
-4.47869e-14
3.81587e-09
-3.23295e-14
3.81589e-09
-1.92258e-14
3.81589e-09
-4.19156e-15
3.81588e-09
1.30699e-14
3.81584e-09
3.63428e-14
3.81577e-09
7.35824e-14
3.81563e-09
1.36725e-13
3.81538e-09
2.45398e-13
7.41809e-13
3.44113e-08
3.04074e-09
-3.46813e-08
3.38481e-08
3.40311e-09
3.30416e-08
3.49582e-09
3.20725e-08
3.4548e-09
3.09984e-08
3.33833e-09
2.98648e-08
3.16499e-09
2.8709e-08
2.95067e-09
2.756e-08
2.71146e-09
2.64395e-08
2.46151e-09
2.53626e-08
2.21252e-09
2.43398e-08
1.97381e-09
2.33767e-08
1.75215e-09
2.24759e-08
1.55176e-09
2.16374e-08
1.37452e-09
2.08595e-08
1.22041e-09
2.01391e-08
1.08807e-09
1.94727e-08
9.75263e-10
1.88563e-08
8.79407e-10
1.82858e-08
7.97858e-10
1.77573e-08
7.28153e-10
1.72671e-08
6.68127e-10
1.68116e-08
6.15959e-10
1.63877e-08
5.70162e-10
1.59925e-08
5.29547e-10
1.56236e-08
4.93181e-10
1.52786e-08
4.6033e-10
1.49557e-08
4.30422e-10
1.4653e-08
4.03004e-10
1.4369e-08
3.77714e-10
1.41025e-08
3.54256e-10
1.38522e-08
3.32386e-10
1.36171e-08
3.11895e-10
1.33965e-08
2.92606e-10
1.31894e-08
2.74361e-10
1.29953e-08
2.57023e-10
1.28135e-08
2.40469e-10
1.26437e-08
2.24589e-10
1.24854e-08
2.09283e-10
1.23382e-08
1.9446e-10
1.2202e-08
1.80025e-10
1.20765e-08
1.6588e-10
1.19617e-08
1.51912e-10
1.18576e-08
1.37986e-10
1.17641e-08
1.23943e-10
1.16817e-08
1.09603e-10
1.16105e-08
9.47834e-11
1.15508e-08
7.93305e-11
1.15031e-08
6.31745e-11
1.14674e-08
4.63729e-11
1.14436e-08
2.90825e-11
1.14321e-08
1.14932e-11
1.14322e-08
-3.91821e-12
1.14407e-08
-1.50679e-11
1.14548e-08
-2.26191e-11
1.14726e-08
-2.74972e-11
1.14924e-08
-3.02449e-11
1.15132e-08
-3.12918e-11
1.1534e-08
-3.10618e-11
1.15541e-08
-2.99187e-11
1.15732e-08
-2.8172e-11
1.15909e-08
-2.60675e-11
1.16071e-08
-2.37939e-11
1.16218e-08
-2.14836e-11
1.1635e-08
-1.92255e-11
1.16467e-08
-1.70765e-11
1.1657e-08
-1.50692e-11
1.16661e-08
-1.32192e-11
1.1674e-08
-1.15307e-11
1.16808e-08
-1.00012e-11
1.16867e-08
-8.6238e-12
1.16917e-08
-7.38989e-12
1.1696e-08
-6.29129e-12
1.16995e-08
-5.32078e-12
1.17025e-08
-4.46899e-12
1.1705e-08
-3.72463e-12
1.1707e-08
-3.07961e-12
1.17086e-08
-2.52904e-12
1.171e-08
-2.06339e-12
1.1711e-08
-1.67142e-12
1.17118e-08
-1.34675e-12
1.17125e-08
-1.07801e-12
1.1713e-08
-8.53632e-13
1.17133e-08
-6.67004e-13
1.17136e-08
-5.09276e-13
1.17138e-08
-3.75967e-13
1.17139e-08
-2.68462e-13
1.17139e-08
-1.84299e-13
1.1714e-08
-1.18924e-13
1.1714e-08
-7.02195e-14
1.17139e-08
-3.49298e-14
1.17139e-08
-8.5856e-15
1.17138e-08
1.3199e-14
1.17138e-08
3.52603e-14
1.17137e-08
6.2475e-14
1.17136e-08
1.00651e-13
1.17135e-08
1.58972e-13
1.17133e-08
2.54487e-13
1.17131e-08
4.19793e-13
1.17126e-08
7.47663e-13
1.66478e-12
3.65141e-08
2.89224e-09
-3.63656e-08
3.65996e-08
3.31757e-09
3.65613e-08
3.5341e-09
3.63987e-08
3.61742e-09
3.61232e-08
3.6138e-09
3.57487e-08
3.53951e-09
3.52919e-08
3.40749e-09
3.47704e-08
3.23299e-09
3.42009e-08
3.03099e-09
3.35985e-08
2.81487e-09
3.29764e-08
2.59597e-09
3.23452e-08
2.38329e-09
3.17137e-08
2.18326e-09
3.10884e-08
1.99984e-09
3.0474e-08
1.83478e-09
2.98739e-08
1.68818e-09
2.92902e-08
1.55897e-09
2.87242e-08
1.44542e-09
2.81766e-08
1.34548e-09
2.76476e-08
1.25713e-09
2.71373e-08
1.17846e-09
2.66454e-08
1.10782e-09
2.61718e-08
1.04382e-09
2.5716e-08
9.85338e-10
2.52777e-08
9.31454e-10
2.48566e-08
8.81446e-10
2.44523e-08
8.34738e-10
2.40644e-08
7.90866e-10
2.36927e-08
7.49453e-10
2.33367e-08
7.10185e-10
2.29963e-08
6.72795e-10
2.26712e-08
6.3705e-10
2.2361e-08
6.02743e-10
2.20657e-08
5.69687e-10
2.1785e-08
5.3771e-10
2.15188e-08
5.06654e-10
2.12671e-08
4.76369e-10
2.10296e-08
4.46711e-10
2.08066e-08
4.17536e-10
2.05979e-08
3.88696e-10
2.04037e-08
3.60029e-10
2.02243e-08
3.31353e-10
2.00598e-08
3.02464e-10
1.99106e-08
2.73143e-10
1.9777e-08
2.43172e-10
1.96594e-08
2.12381e-10
1.95581e-08
1.80704e-10
1.9473e-08
1.48275e-10
1.94038e-08
1.15545e-10
1.93494e-08
8.34338e-11
1.93079e-08
5.30889e-11
1.92792e-08
2.47633e-11
1.92648e-08
-6.73528e-13
1.92626e-08
-2.04256e-11
1.92691e-08
-3.39907e-11
1.92817e-08
-4.28371e-11
1.92983e-08
-4.79382e-11
1.93174e-08
-5.01646e-11
1.93377e-08
-5.02367e-11
1.93583e-08
-4.87705e-11
1.93785e-08
-4.62644e-11
1.93979e-08
-4.31136e-11
1.9416e-08
-3.96109e-11
1.94327e-08
-3.59685e-11
1.9448e-08
-3.23355e-11
1.94617e-08
-2.88121e-11
1.9474e-08
-2.54614e-11
1.94848e-08
-2.23209e-11
1.94942e-08
-1.94101e-11
1.95023e-08
-1.6737e-11
1.95092e-08
-1.4302e-11
1.9515e-08
-1.21027e-11
1.95198e-08
-1.0136e-11
1.95237e-08
-8.39306e-12
1.95269e-08
-6.85985e-12
1.95293e-08
-5.52525e-12
1.95312e-08
-4.38236e-12
1.95325e-08
-3.41567e-12
1.95335e-08
-2.60484e-12
1.95341e-08
-1.93724e-12
1.95344e-08
-1.39129e-12
1.95345e-08
-9.41764e-13
1.95344e-08
-5.72575e-13
1.95341e-08
-2.71974e-13
1.95338e-08
-3.80025e-14
1.95334e-08
1.44232e-13
1.95329e-08
2.89685e-13
1.95324e-08
3.95305e-13
1.95319e-08
4.61466e-13
1.95313e-08
4.94331e-13
1.95308e-08
5.03514e-13
1.95303e-08
4.99992e-13
1.95299e-08
4.95043e-13
1.95294e-08
4.99535e-13
1.9529e-08
5.25577e-13
1.95286e-08
5.90006e-13
1.95281e-08
7.21506e-13
1.95275e-08
9.76726e-13
1.95268e-08
1.50767e-12
2.74608e-12
3.80937e-08
2.70211e-09
-3.79036e-08
3.83039e-08
3.10741e-09
3.84801e-08
3.3579e-09
3.86026e-08
3.49489e-09
3.86646e-08
3.55178e-09
3.86621e-08
3.54202e-09
3.85948e-08
3.47481e-09
3.84661e-08
3.36175e-09
3.82816e-08
3.21541e-09
3.80488e-08
3.04774e-09
3.77753e-08
2.86941e-09
3.74692e-08
2.68942e-09
3.71377e-08
2.51471e-09
3.67875e-08
2.35009e-09
3.64239e-08
2.19833e-09
3.60516e-08
2.06056e-09
3.56739e-08
1.93666e-09
3.52936e-08
1.8257e-09
3.49128e-08
1.72631e-09
3.4533e-08
1.63694e-09
3.41554e-08
1.55605e-09
3.37809e-08
1.48225e-09
3.34105e-08
1.41431e-09
3.30446e-08
1.35122e-09
3.26839e-08
1.29215e-09
3.23289e-08
1.2364e-09
3.19802e-08
1.18345e-09
3.16382e-08
1.13286e-09
3.13034e-08
1.08425e-09
3.09763e-08
1.03734e-09
3.06572e-08
9.91863e-10
3.03466e-08
9.47596e-10
3.0045e-08
9.04338e-10
2.97528e-08
8.619e-10
2.94704e-08
8.2011e-10
2.91983e-08
7.78801e-10
2.89368e-08
7.3781e-10
2.86866e-08
6.96976e-10
2.8448e-08
6.56131e-10
2.82216e-08
6.15096e-10
2.80079e-08
5.73678e-10
2.78076e-08
5.31661e-10
2.76213e-08
4.8882e-10
2.74495e-08
4.44935e-10
2.72928e-08
3.99827e-10
2.71518e-08
3.53424e-10
2.70266e-08
3.05841e-10
2.69174e-08
2.57492e-10
2.68238e-08
2.09193e-10
2.6745e-08
1.62221e-10
2.66799e-08
1.18149e-10
2.66263e-08
7.84263e-11
2.65821e-08
4.34813e-11
2.6549e-08
1.26976e-11
2.65278e-08
-1.28318e-11
2.65166e-08
-3.1607e-11
2.65131e-08
-4.44804e-11
2.65156e-08
-5.26689e-11
2.65226e-08
-5.71458e-11
2.65326e-08
-5.87808e-11
2.65446e-08
-5.83051e-11
2.65578e-08
-5.63263e-11
2.65715e-08
-5.33189e-11
2.65852e-08
-4.96492e-11
2.65985e-08
-4.55949e-11
2.6611e-08
-4.13615e-11
2.66227e-08
-3.70972e-11
2.66332e-08
-3.29078e-11
2.66427e-08
-2.88673e-11
2.6651e-08
-2.50272e-11
2.66581e-08
-2.14221e-11
2.66641e-08
-1.80786e-11
2.6669e-08
-1.50179e-11
2.66728e-08
-1.22498e-11
2.66757e-08
-9.7722e-12
2.66778e-08
-7.58373e-12
2.66791e-08
-5.68731e-12
2.66798e-08
-4.07103e-12
2.66799e-08
-2.70996e-12
2.66795e-08
-1.58815e-12
2.66788e-08
-6.89405e-13
2.66778e-08
3.17851e-14
2.66766e-08
6.42199e-13
2.66752e-08
1.1696e-12
2.66735e-08
1.60216e-12
2.66718e-08
1.93001e-12
2.66699e-08
2.15076e-12
2.6668e-08
2.27056e-12
2.66662e-08
2.30196e-12
2.66644e-08
2.26355e-12
2.66627e-08
2.17692e-12
2.66612e-08
2.06401e-12
2.66597e-08
1.9457e-12
2.66584e-08
1.84149e-12
2.66571e-08
1.77157e-12
2.6656e-08
1.76156e-12
2.66548e-08
1.85217e-12
2.66537e-08
2.12159e-12
2.66524e-08
2.75579e-12
4.19222e-12
3.96329e-08
2.53246e-09
-3.94633e-08
3.98421e-08
2.8982e-09
4.0052e-08
3.148e-09
4.02442e-08
3.30275e-09
4.04101e-08
3.38589e-09
4.05428e-08
3.40933e-09
4.06369e-08
3.38067e-09
4.06898e-08
3.30887e-09
4.07011e-08
3.2041e-09
4.06725e-08
3.07634e-09
4.06071e-08
2.93482e-09
4.0509e-08
2.78756e-09
4.03826e-08
2.64106e-09
4.02326e-08
2.5001e-09
4.00631e-08
2.3678e-09
3.98779e-08
2.24579e-09
3.968e-08
2.13453e-09
3.9472e-08
2.03368e-09
3.9256e-08
1.94238e-09
3.90334e-08
1.85949e-09
3.88056e-08
1.78382e-09
3.85737e-08
1.71421e-09
3.83384e-08
1.6496e-09
3.81005e-08
1.58908e-09
3.78608e-08
1.53189e-09
3.76198e-08
1.4774e-09
3.73782e-08
1.42509e-09
3.71365e-08
1.37452e-09
3.68954e-08
1.32535e-09
3.66555e-08
1.27727e-09
3.64173e-08
1.23002e-09
3.61815e-08
1.18338e-09
3.59487e-08
1.13714e-09
3.57195e-08
1.0911e-09
3.54946e-08
1.04507e-09
3.52745e-08
9.98883e-10
3.50599e-08
9.52356e-10
3.48516e-08
9.05309e-10
3.46502e-08
8.57554e-10
3.44564e-08
8.08891e-10
3.4271e-08
7.59104e-10
3.40947e-08
7.07971e-10
3.39282e-08
6.55271e-10
3.37723e-08
6.00817e-10
3.36276e-08
5.44507e-10
3.34947e-08
4.86394e-10
3.33737e-08
4.26781e-10
3.32649e-08
3.66319e-10
3.3168e-08
3.06082e-10
3.30827e-08
2.47559e-10
3.30084e-08
1.92465e-10
3.29444e-08
1.42386e-10
3.28896e-08
9.83044e-11
3.28417e-08
6.06007e-11
3.28001e-08
2.87284e-11
3.27664e-08
2.08024e-12
3.27408e-08
-1.88324e-11
3.27221e-08
-3.39492e-11
3.27092e-08
-4.42768e-11
3.27012e-08
-5.0743e-11
3.2697e-08
-5.41515e-11
3.26959e-08
-5.52072e-11
3.2697e-08
-5.44833e-11
3.26998e-08
-5.24481e-11
3.27037e-08
-4.94768e-11
3.27082e-08
-4.58647e-11
3.2713e-08
-4.18415e-11
3.27177e-08
-3.75857e-11
3.2722e-08
-3.32358e-11
3.27259e-08
-2.89002e-11
3.27291e-08
-2.46628e-11
3.27317e-08
-2.05947e-11
3.27334e-08
-1.67592e-11
3.27343e-08
-1.32024e-11
3.27345e-08
-9.95195e-12
3.2734e-08
-7.02995e-12
3.27327e-08
-4.46178e-12
3.27309e-08
-2.26564e-12
3.27287e-08
-4.35265e-13
3.2726e-08
1.11266e-12
3.27228e-08
2.46484e-12
3.27192e-08
3.63426e-12
3.27152e-08
4.61562e-12
3.2711e-08
5.40086e-12
3.27066e-08
5.98369e-12
3.27022e-08
6.36232e-12
3.26978e-08
6.54471e-12
3.26935e-08
6.55048e-12
3.26894e-08
6.40802e-12
3.26855e-08
6.15203e-12
3.26819e-08
5.81951e-12
3.26785e-08
5.44639e-12
3.26754e-08
5.06573e-12
3.26725e-08
4.70756e-12
3.26699e-08
4.40135e-12
3.26675e-08
4.18159e-12
3.26652e-08
4.09912e-12
3.26631e-08
4.24601e-12
3.2661e-08
4.82044e-12
6.25702e-12
4.12082e-08
2.38655e-09
-4.10623e-08
4.13954e-08
2.71094e-09
4.15951e-08
2.94835e-09
4.17911e-08
3.10676e-09
4.19755e-08
3.20146e-09
4.21423e-08
3.24249e-09
4.22864e-08
3.23665e-09
4.24039e-08
3.19133e-09
4.24931e-08
3.11494e-09
4.25535e-08
3.01595e-09
4.2586e-08
2.90226e-09
4.25927e-08
2.7809e-09
4.2576e-08
2.65771e-09
4.2539e-08
2.53716e-09
4.24844e-08
2.42236e-09
4.2415e-08
2.31515e-09
4.23332e-08
2.21633e-09
4.2241e-08
2.12594e-09
4.21399e-08
2.04348e-09
4.20312e-08
1.96817e-09
4.1916e-08
1.89907e-09
4.17949e-08
1.83522e-09
4.16688e-08
1.77573e-09
4.15381e-08
1.71979e-09
4.14033e-08
1.6667e-09
4.12648e-08
1.61586e-09
4.11232e-08
1.56675e-09
4.09787e-08
1.51897e-09
4.08319e-08
1.47214e-09
4.06832e-08
1.42596e-09
4.05331e-08
1.38015e-09
4.0382e-08
1.33446e-09
4.02305e-08
1.28868e-09
4.0079e-08
1.24258e-09
3.99281e-08
1.19596e-09
3.97784e-08
1.14864e-09
3.96303e-08
1.10039e-09
3.94846e-08
1.05103e-09
3.93418e-08
1.00035e-09
3.92026e-08
9.48122e-10
3.90675e-08
8.94128e-10
3.89374e-08
8.38144e-10
3.88127e-08
7.79971e-10
3.8694e-08
7.19468e-10
3.85819e-08
6.56609e-10
3.84768e-08
5.9156e-10
3.83788e-08
5.24763e-10
3.82881e-08
4.57023e-10
3.82046e-08
3.89546e-10
3.81283e-08
3.23893e-10
3.80589e-08
2.61791e-10
3.79965e-08
2.04825e-10
3.79407e-08
1.54105e-10
3.78911e-08
1.10203e-10
3.78467e-08
7.31424e-11
3.78062e-08
4.25297e-11
3.77699e-08
1.75412e-11
3.77384e-08
-2.44331e-12
3.77117e-08
-1.75792e-11
3.76893e-08
-2.83454e-11
3.76706e-08
-3.55318e-11
3.76553e-08
-3.98396e-11
3.76426e-08
-4.18456e-11
3.76322e-08
-4.20437e-11
3.76236e-08
-4.08454e-11
3.76163e-08
-3.85883e-11
3.761e-08
-3.55485e-11
3.76044e-08
-3.19517e-11
3.75992e-08
-2.79844e-11
3.75941e-08
-2.38026e-11
3.75889e-08
-1.95356e-11
3.75836e-08
-1.52955e-11
3.75781e-08
-1.11855e-11
3.75721e-08
-7.29292e-12
3.75659e-08
-3.70542e-12
3.75594e-08
-4.85802e-13
3.75525e-08
2.40218e-12
3.75452e-08
5.0049e-12
3.75375e-08
7.3149e-12
3.75293e-08
9.32162e-12
3.75207e-08
1.10236e-11
3.75119e-08
1.24248e-11
3.7503e-08
1.35173e-11
3.74941e-08
1.42933e-11
3.74853e-08
1.47521e-11
3.74768e-08
1.49034e-11
3.74686e-08
1.47703e-11
3.74607e-08
1.43895e-11
3.74533e-08
1.38075e-11
3.74464e-08
1.30768e-11
3.744e-08
1.22511e-11
3.74341e-08
1.13811e-11
3.74286e-08
1.05128e-11
3.74236e-08
9.687e-12
3.74191e-08
8.94218e-12
3.74149e-08
8.32026e-12
3.74112e-08
7.87839e-12
3.74077e-08
7.71264e-12
3.74045e-08
8.01302e-12
9.17719e-12
4.2832e-08
2.25931e-09
-4.27047e-08
4.29974e-08
2.54547e-09
4.31794e-08
2.76639e-09
4.33637e-08
2.9225e-09
4.35425e-08
3.02264e-09
4.37104e-08
3.07453e-09
4.3863e-08
3.08408e-09
4.39968e-08
3.05749e-09
4.41099e-08
3.00183e-09
4.42016e-08
2.92432e-09
4.4272e-08
2.83184e-09
4.43224e-08
2.73055e-09
4.43544e-08
2.62569e-09
4.43701e-08
2.52139e-09
4.43718e-08
2.42067e-09
4.43616e-08
2.32544e-09
4.43412e-08
2.23673e-09
4.43122e-08
2.15485e-09
4.42761e-08
2.07961e-09
4.42338e-08
2.01048e-09
4.41861e-08
1.94677e-09
4.41336e-08
1.88771e-09
4.40768e-08
1.83255e-09
4.4016e-08
1.78058e-09
4.39515e-08
1.73116e-09
4.38837e-08
1.68373e-09
4.38126e-08
1.63781e-09
4.37386e-08
1.59298e-09
4.36619e-08
1.54886e-09
4.35827e-08
1.50515e-09
4.35013e-08
1.46154e-09
4.3418e-08
1.41779e-09
4.3333e-08
1.37365e-09
4.32467e-08
1.32887e-09
4.31594e-08
1.28325e-09
4.30715e-08
1.23657e-09
4.29833e-08
1.18859e-09
4.28952e-08
1.13911e-09
4.28077e-08
1.0879e-09
4.2721e-08
1.03474e-09
4.26358e-08
9.7939e-10
4.25523e-08
9.21648e-10
4.24709e-08
8.61339e-10
4.2392e-08
7.98369e-10
4.23158e-08
7.32776e-10
4.22426e-08
6.64804e-10
4.21724e-08
5.94977e-10
4.21052e-08
5.24163e-10
4.20412e-08
4.53595e-10
4.19803e-08
3.84802e-10
4.19226e-08
3.19436e-10
4.18684e-08
2.59012e-10
4.18179e-08
2.04652e-10
4.17711e-08
1.57002e-10
4.1728e-08
1.16235e-10
4.16884e-08
8.21427e-11
4.16517e-08
5.42448e-11
4.16174e-08
3.18866e-11
4.15855e-08
1.43061e-11
4.15563e-08
8.22155e-13
4.15298e-08
-9.03382e-12
4.15057e-08
-1.57354e-11
4.14837e-08
-1.98334e-11
4.14635e-08
-2.18163e-11
4.14447e-08
-2.20985e-11
4.14272e-08
-2.10302e-11
4.14105e-08
-1.89067e-11
4.13945e-08
-1.59793e-11
4.1379e-08
-1.24667e-11
4.13638e-08
-8.56695e-12
4.13487e-08
-4.47367e-12
4.13338e-08
-3.39187e-13
4.13188e-08
3.7649e-12
4.13038e-08
7.77167e-12
4.12885e-08
1.15877e-11
4.12728e-08
1.51355e-11
4.12569e-08
1.83476e-11
4.12407e-08
2.11814e-11
4.12244e-08
2.36183e-11
4.12081e-08
2.56392e-11
4.11919e-08
2.72318e-11
4.11759e-08
2.83923e-11
4.11603e-08
2.91162e-11
4.11452e-08
2.94045e-11
4.11307e-08
2.92703e-11
4.11169e-08
2.87408e-11
4.11038e-08
2.78585e-11
4.10915e-08
2.66801e-11
4.108e-08
2.52717e-11
4.10694e-08
2.37042e-11
4.10596e-08
2.20474e-11
4.10506e-08
2.03665e-11
4.10424e-08
1.8719e-11
4.10349e-08
1.71554e-11
4.10282e-08
1.5721e-11
4.1022e-08
1.44624e-11
4.10165e-08
1.34378e-11
4.10114e-08
1.27375e-11
4.10069e-08
1.25242e-11
1.31098e-11
4.45072e-08
2.14619e-09
-4.4394e-08
4.46541e-08
2.39857e-09
4.48187e-08
2.60179e-09
4.49887e-08
2.75247e-09
4.51566e-08
2.85477e-09
4.5317e-08
2.91405e-09
4.5466e-08
2.93516e-09
4.56002e-08
2.92326e-09
4.57178e-08
2.8842e-09
4.5818e-08
2.82415e-09
4.59008e-08
2.74904e-09
4.5967e-08
2.66432e-09
4.60181e-08
2.57466e-09
4.60556e-08
2.48387e-09
4.60814e-08
2.39483e-09
4.60974e-08
2.30949e-09
4.61051e-08
2.22904e-09
4.61059e-08
2.15399e-09
4.61011e-08
2.0844e-09
4.60916e-08
2.02e-09
4.60781e-08
1.96028e-09
4.60611e-08
1.90468e-09
4.60411e-08
1.85258e-09
4.60183e-08
1.80337e-09
4.5993e-08
1.75649e-09
4.59653e-08
1.71144e-09
4.59353e-08
1.66776e-09
4.59032e-08
1.62506e-09
4.58691e-08
1.58297e-09
4.58331e-08
1.54116e-09
4.57953e-08
1.49936e-09
4.57558e-08
1.45729e-09
4.57147e-08
1.41469e-09
4.56723e-08
1.37133e-09
4.56286e-08
1.32696e-09
4.55838e-08
1.28137e-09
4.55381e-08
1.23431e-09
4.54916e-08
1.18557e-09
4.54446e-08
1.13491e-09
4.53972e-08
1.0821e-09
4.53497e-08
1.02694e-09
4.53021e-08
9.69223e-10
4.52546e-08
9.08813e-10
4.52074e-08
8.45656e-10
4.51603e-08
7.79837e-10
4.51134e-08
7.11648e-10
4.50668e-08
6.41642e-10
4.50203e-08
5.70688e-10
4.49739e-08
4.99969e-10
4.49278e-08
4.30916e-10
4.48822e-08
3.65053e-10
4.48374e-08
3.03784e-10
4.47938e-08
2.48191e-10
4.47519e-08
1.98942e-10
4.47118e-08
1.56293e-10
4.46738e-08
1.20154e-10
4.46379e-08
9.01742e-11
4.4604e-08
6.58193e-11
4.45718e-08
4.6468e-11
4.45411e-08
3.14931e-11
4.45118e-08
2.02809e-11
4.44838e-08
1.22703e-11
4.4457e-08
6.97182e-12
4.44312e-08
3.94573e-12
4.44063e-08
2.80597e-12
4.43821e-08
3.2158e-12
4.43583e-08
4.88031e-12
4.43348e-08
7.5384e-12
4.43114e-08
1.09553e-11
4.42879e-08
1.49172e-11
4.42642e-08
1.92319e-11
4.42401e-08
2.37226e-11
4.42157e-08
2.82216e-11
4.41909e-08
3.25834e-11
4.41657e-08
3.66893e-11
4.41404e-08
4.04371e-11
4.41151e-08
4.3736e-11
4.40897e-08
4.65188e-11
4.40646e-08
4.87455e-11
4.40398e-08
5.03886e-11
4.40156e-08
5.14342e-11
4.39922e-08
5.18836e-11
4.39695e-08
5.1747e-11
4.39479e-08
5.10463e-11
4.39273e-08
4.98189e-11
4.3908e-08
4.81185e-11
4.38898e-08
4.60145e-11
4.38729e-08
4.35887e-11
4.38572e-08
4.09303e-11
4.38428e-08
3.81303e-11
4.38296e-08
3.52756e-11
4.38175e-08
3.24453e-11
4.38065e-08
2.97076e-11
4.37965e-08
2.71208e-11
4.37875e-08
2.47348e-11
4.37794e-08
2.25974e-11
4.37721e-08
2.07633e-11
4.37655e-08
1.93081e-11
4.37597e-08
1.83531e-11
1.8085e-11
4.62356e-08
2.04393e-09
-4.61333e-08
4.63671e-08
2.26707e-09
4.65161e-08
2.45281e-09
4.66723e-08
2.59625e-09
4.68286e-08
2.69848e-09
4.69798e-08
2.7628e-09
4.7122e-08
2.79293e-09
4.72522e-08
2.79306e-09
4.73684e-08
2.76799e-09
4.74697e-08
2.72289e-09
4.75559e-08
2.66285e-09
4.76276e-08
2.59261e-09
4.76859e-08
2.51635e-09
4.77322e-08
2.43754e-09
4.77682e-08
2.35889e-09
4.77953e-08
2.28236e-09
4.78151e-08
2.20921e-09
4.7829e-08
2.14015e-09
4.7838e-08
2.07541e-09
4.7843e-08
2.01493e-09
4.78449e-08
1.95842e-09
4.78441e-08
1.90546e-09
4.78411e-08
1.85558e-09
4.78362e-08
1.80829e-09
4.78296e-08
1.7631e-09
4.78214e-08
1.71958e-09
4.78119e-08
1.67731e-09
4.7801e-08
1.63593e-09
4.77889e-08
1.5951e-09
4.77756e-08
1.5545e-09
4.77611e-08
1.51385e-09
4.77455e-08
1.47289e-09
4.77288e-08
1.43136e-09
4.77111e-08
1.38903e-09
4.76924e-08
1.34565e-09
4.76728e-08
1.301e-09
4.76522e-08
1.25485e-09
4.76308e-08
1.20698e-09
4.76086e-08
1.15715e-09
4.75855e-08
1.10517e-09
4.75616e-08
1.05083e-09
4.75369e-08
9.93957e-10
4.75112e-08
9.34453e-10
4.74846e-08
8.72297e-10
4.74568e-08
8.07611e-10
4.74278e-08
7.40707e-10
4.73973e-08
6.72139e-10
4.73652e-08
6.02734e-10
4.73316e-08
5.33585e-10
4.72965e-08
4.65993e-10
4.72603e-08
4.01329e-10
4.72232e-08
3.40867e-10
4.71857e-08
2.8562e-10
4.71484e-08
2.36251e-10
4.71117e-08
1.93069e-10
4.70757e-08
1.56072e-10
4.70409e-08
1.25012e-10
4.70073e-08
9.94704e-11
4.69748e-08
7.89298e-11
4.69434e-08
6.28392e-11
4.69131e-08
5.06435e-11
4.68835e-08
4.18165e-11
4.68546e-08
3.58854e-11
4.68261e-08
3.2423e-11
4.67979e-08
3.10467e-11
4.67697e-08
3.14145e-11
4.67414e-08
3.32183e-11
4.67127e-08
3.61763e-11
4.66837e-08
4.0027e-11
4.6654e-08
4.45251e-11
4.66238e-08
4.9441e-11
4.6593e-08
5.45557e-11
4.65616e-08
5.9657e-11
4.65296e-08
6.45516e-11
4.64972e-08
6.90736e-11
4.64646e-08
7.30806e-11
4.64319e-08
7.64519e-11
4.63993e-08
7.90965e-11
4.63671e-08
8.09579e-11
4.63355e-08
8.20046e-11
4.63047e-08
8.22291e-11
4.62749e-08
8.16478e-11
4.62463e-08
8.02961e-11
4.62192e-08
7.82275e-11
4.61935e-08
7.55146e-11
4.61693e-08
7.22475e-11
4.61468e-08
6.85305e-11
4.61259e-08
6.44777e-11
4.61067e-08
6.02065e-11
4.6089e-08
5.58318e-11
4.60728e-08
5.14597e-11
4.6058e-08
4.71841e-11
4.60447e-08
4.30841e-11
4.60326e-08
3.92245e-11
4.60216e-08
3.56583e-11
4.60118e-08
3.24321e-11
4.6003e-08
2.95927e-11
4.59951e-08
2.71966e-11
4.59881e-08
2.53162e-11
2.40044e-11
4.80192e-08
1.95026e-09
-4.79256e-08
4.8138e-08
2.14835e-09
4.82732e-08
2.3176e-09
4.84166e-08
2.45285e-09
4.85617e-08
2.55339e-09
4.87036e-08
2.6209e-09
4.88385e-08
2.65804e-09
4.89634e-08
2.6681e-09
4.90765e-08
2.65495e-09
4.91765e-08
2.62287e-09
4.92632e-08
2.57616e-09
4.93369e-08
2.51893e-09
4.93984e-08
2.45484e-09
4.94489e-08
2.38705e-09
4.94897e-08
2.31807e-09
4.95222e-08
2.24981e-09
4.95478e-08
2.18359e-09
4.95678e-08
2.12021e-09
4.95831e-08
2.06008e-09
4.95947e-08
2.0033e-09
4.96034e-08
1.94975e-09
4.96097e-08
1.89917e-09
4.96141e-08
1.8512e-09
4.96169e-08
1.80547e-09
4.96184e-08
1.76159e-09
4.96188e-08
1.71918e-09
4.96182e-08
1.67789e-09
4.96168e-08
1.63738e-09
4.96145e-08
1.59734e-09
4.96115e-08
1.55748e-09
4.96079e-08
1.51754e-09
4.96035e-08
1.47727e-09
4.95984e-08
1.43642e-09
4.95927e-08
1.39476e-09
4.95863e-08
1.35206e-09
4.95792e-08
1.30811e-09
4.95714e-08
1.26268e-09
4.95628e-08
1.21557e-09
4.95533e-08
1.16657e-09
4.9543e-08
1.11549e-09
4.95317e-08
1.06214e-09
4.95193e-08
1.00641e-09
4.95055e-08
9.48209e-10
4.94902e-08
8.87556e-10
4.94733e-08
8.24597e-10
4.94543e-08
7.59655e-10
4.94332e-08
6.93263e-10
4.94097e-08
6.26188e-10
4.93839e-08
5.59424e-10
4.93558e-08
4.94127e-10
4.93256e-08
4.31517e-10
4.92937e-08
3.72733e-10
4.92606e-08
3.18705e-10
4.92268e-08
2.70076e-10
4.91927e-08
2.27187e-10
4.91586e-08
1.90103e-10
4.9125e-08
1.58668e-10
4.90919e-08
1.32564e-10
4.90595e-08
1.11371e-10
4.90277e-08
9.46213e-11
4.89965e-08
8.18325e-11
4.89658e-08
7.25343e-11
4.89354e-08
6.62902e-11
4.89051e-08
6.26975e-11
4.88747e-08
6.13849e-11
4.88442e-08
6.201e-11
4.88131e-08
6.4253e-11
4.87815e-08
6.78109e-11
4.87491e-08
7.23919e-11
4.87159e-08
7.7713e-11
4.86819e-08
8.34991e-11
4.86469e-08
8.94817e-11
4.86112e-08
9.5399e-11
4.85748e-08
1.01007e-10
4.85377e-08
1.06089e-10
4.85004e-08
1.10457e-10
4.84629e-08
1.13956e-10
4.84255e-08
1.16469e-10
4.83885e-08
1.17923e-10
4.83522e-08
1.18284e-10
4.83169e-08
1.17554e-10
4.82828e-08
1.1577e-10
4.82501e-08
1.12999e-10
4.8219e-08
1.09333e-10
4.81896e-08
1.04887e-10
4.81621e-08
9.97958e-11
4.81364e-08
9.42046e-11
4.81126e-08
8.82656e-11
4.80907e-08
8.21293e-11
4.80706e-08
7.59381e-11
4.80522e-08
6.98202e-11
4.80355e-08
6.38858e-11
4.80204e-08
5.82254e-11
4.80067e-08
5.29105e-11
4.79943e-08
4.79962e-11
4.79832e-08
4.35261e-11
4.79733e-08
3.95376e-11
4.79644e-08
3.60656e-11
4.79566e-08
3.31354e-11
3.06901e-11
4.98604e-08
1.86358e-09
-4.97737e-08
4.99685e-08
2.04029e-09
5.00916e-08
2.19442e-09
5.02233e-08
2.32118e-09
5.03578e-08
2.41891e-09
5.04906e-08
2.48812e-09
5.0618e-08
2.53056e-09
5.07374e-08
2.54873e-09
5.08467e-08
2.5457e-09
5.09446e-08
2.52495e-09
5.10307e-08
2.49006e-09
5.11051e-08
2.44455e-09
5.11683e-08
2.39161e-09
5.12213e-08
2.33407e-09
5.12651e-08
2.27423e-09
5.1301e-08
2.2139e-09
5.13302e-08
2.15442e-09
5.13538e-08
2.09665e-09
5.13727e-08
2.04114e-09
5.13879e-08
1.98809e-09
5.14001e-08
1.93755e-09
5.14099e-08
1.88936e-09
5.14178e-08
1.84332e-09
5.14242e-08
1.79913e-09
5.14292e-08
1.7565e-09
5.14333e-08
1.71512e-09
5.14365e-08
1.67468e-09
5.1439e-08
1.63489e-09
5.14409e-08
1.59548e-09
5.14422e-08
1.55618e-09
5.1443e-08
1.51676e-09
5.14432e-08
1.47697e-09
5.14431e-08
1.4366e-09
5.14424e-08
1.39542e-09
5.14412e-08
1.35323e-09
5.14395e-08
1.30982e-09
5.14372e-08
1.26499e-09
5.14342e-08
1.21855e-09
5.14305e-08
1.17031e-09
5.14259e-08
1.12011e-09
5.14202e-08
1.0678e-09
5.14133e-08
1.01327e-09
5.14051e-08
9.56492e-10
5.13951e-08
8.97503e-10
5.13832e-08
8.36469e-10
5.13692e-08
7.73713e-10
5.13527e-08
7.09739e-10
5.13336e-08
6.45254e-10
5.13119e-08
5.81145e-10
5.12876e-08
5.18439e-10
5.12609e-08
4.58209e-10
5.12322e-08
4.01469e-10
5.12018e-08
3.49063e-10
5.11703e-08
3.01605e-10
5.1138e-08
2.59451e-10
5.11054e-08
2.22721e-10
5.10727e-08
1.91338e-10
5.10402e-08
1.65069e-10
5.1008e-08
1.43586e-10
5.09761e-08
1.26502e-10
5.09446e-08
1.13406e-10
5.09132e-08
1.03888e-10
5.0882e-08
9.75539e-11
5.08506e-08
9.40305e-11
5.0819e-08
9.29636e-11
5.0787e-08
9.40153e-11
5.07544e-08
9.68581e-11
5.07211e-08
1.01171e-10
5.06868e-08
1.06632e-10
5.06516e-08
1.12922e-10
5.06154e-08
1.19718e-10
5.05782e-08
1.267e-10
5.054e-08
1.33554e-10
5.05011e-08
1.39982e-10
5.04614e-08
1.45713e-10
5.04214e-08
1.50513e-10
5.03811e-08
1.54187e-10
5.0341e-08
1.5659e-10
5.03013e-08
1.57633e-10
5.02623e-08
1.57278e-10
5.02243e-08
1.55538e-10
5.01876e-08
1.52475e-10
5.01524e-08
1.48187e-10
5.0119e-08
1.4281e-10
5.00873e-08
1.36505e-10
5.00577e-08
1.29453e-10
5.003e-08
1.21845e-10
5.00044e-08
1.13875e-10
4.99808e-08
1.0573e-10
4.99592e-08
9.75813e-11
4.99394e-08
8.95823e-11
4.99215e-08
8.18606e-11
4.99052e-08
7.45189e-11
4.98904e-08
6.76356e-11
4.98772e-08
6.12677e-11
4.98652e-08
5.54552e-11
4.98546e-08
5.02255e-11
4.9845e-08
4.55928e-11
4.98366e-08
4.15433e-11
3.79524e-11
5.17615e-08
1.78278e-09
-5.16807e-08
5.18605e-08
1.94125e-09
5.19732e-08
2.08177e-09
5.20942e-08
2.20016e-09
5.22188e-08
2.29434e-09
5.23428e-08
2.36409e-09
5.24629e-08
2.41041e-09
5.25766e-08
2.43511e-09
5.26817e-08
2.44059e-09
5.2777e-08
2.42961e-09
5.28619e-08
2.40515e-09
5.29363e-08
2.37016e-09
5.30005e-08
2.32741e-09
5.30552e-08
2.27938e-09
5.31013e-08
2.22816e-09
5.31397e-08
2.17546e-09
5.31716e-08
2.12255e-09
5.31978e-08
2.07037e-09
5.32195e-08
2.01952e-09
5.32372e-08
1.97032e-09
5.32519e-08
1.92291e-09
5.3264e-08
1.87727e-09
5.3274e-08
1.83328e-09
5.32824e-08
1.79076e-09
5.32894e-08
1.74948e-09
5.32953e-08
1.70919e-09
5.33004e-08
1.66965e-09
5.33046e-08
1.63061e-09
5.33083e-08
1.59183e-09
5.33114e-08
1.55309e-09
5.3314e-08
1.51416e-09
5.33161e-08
1.47483e-09
5.33178e-08
1.43489e-09
5.33191e-08
1.39415e-09
5.33199e-08
1.35242e-09
5.33202e-08
1.30951e-09
5.332e-08
1.26523e-09
5.33191e-08
1.21943e-09
5.33175e-08
1.17193e-09
5.3315e-08
1.1226e-09
5.33115e-08
1.07133e-09
5.33067e-08
1.01803e-09
5.33005e-08
9.62697e-10
5.32926e-08
9.05403e-10
5.32828e-08
8.46324e-10
5.32707e-08
7.85778e-10
5.32562e-08
7.2424e-10
5.32391e-08
6.62353e-10
5.32193e-08
6.00912e-10
5.3197e-08
5.40821e-10
5.31721e-08
4.83027e-10
5.31452e-08
4.28428e-10
5.31164e-08
3.77789e-10
5.30864e-08
3.31687e-10
5.30553e-08
2.90487e-10
5.30237e-08
2.5435e-10
5.29918e-08
2.23263e-10
5.29598e-08
1.97072e-10
5.29278e-08
1.75527e-10
5.2896e-08
1.5832e-10
5.28643e-08
1.45107e-10
5.28327e-08
1.35537e-10
5.2801e-08
1.29258e-10
5.27691e-08
1.25931e-10
5.27368e-08
1.2522e-10
5.2704e-08
1.26794e-10
5.26706e-08
1.30321e-10
5.26363e-08
1.35463e-10
5.2601e-08
1.41872e-10
5.25648e-08
1.49191e-10
5.25274e-08
1.57052e-10
5.2489e-08
1.65085e-10
5.24497e-08
1.72922e-10
5.24094e-08
1.80209e-10
5.23685e-08
1.86623e-10
5.23272e-08
1.9188e-10
5.22856e-08
1.95748e-10
5.22441e-08
1.98051e-10
5.22031e-08
1.98685e-10
5.21628e-08
1.97607e-10
5.21235e-08
1.94843e-10
5.20855e-08
1.90475e-10
5.2049e-08
1.8464e-10
5.20143e-08
1.77512e-10
5.19815e-08
1.69301e-10
5.19507e-08
1.60235e-10
5.1922e-08
1.50553e-10
5.18954e-08
1.40491e-10
5.18709e-08
1.30274e-10
5.18483e-08
1.20105e-10
5.18278e-08
1.10161e-10
5.1809e-08
1.00589e-10
5.1792e-08
9.15053e-11
5.17767e-08
8.29944e-11
5.17628e-08
7.51158e-11
5.17504e-08
6.79062e-11
5.17392e-08
6.13832e-11
5.17293e-08
5.55432e-11
5.17205e-08
5.0344e-11
4.56346e-11
5.37251e-08
1.70706e-09
-5.36494e-08
5.38164e-08
1.84996e-09
5.39198e-08
1.97837e-09
5.40312e-08
2.08877e-09
5.41465e-08
2.17901e-09
5.42622e-08
2.24841e-09
5.43752e-08
2.29742e-09
5.4483e-08
2.3273e-09
5.45838e-08
2.33984e-09
5.46761e-08
2.33724e-09
5.47594e-08
2.32191e-09
5.48332e-08
2.29631e-09
5.48978e-08
2.2628e-09
5.49537e-08
2.22354e-09
5.50014e-08
2.18041e-09