/*--------------------------------*- C++ -*----------------------------------*\
| =========                 |                                                 |
| \\      /  F ield         | OpenFOAM: The Open Source CFD Toolbox           |
|  \\    /   O peration     | Version:  2.3.0                                 |
|   \\  /    A nd           | Web:      www.OpenFOAM.org                      |
|    \\/     M anipulation  |                                                 |
\*---------------------------------------------------------------------------*/
FoamFile
{
    version     2.0;
    format      ascii;
    class       volScalarField;
    location    "0.3";
    object      p;
}
// * * * * * * * * * * * * * * * * * * * * * * * * * * * * * * * * * * * * * //

dimensions      [0 2 -2 0 0 0 0];

internalField   nonuniform List<scalar> 
1500
(
0.00194222
0.00137667
0.000921545
0.00060025
0.000339817
0.000109972
-8.91561e-05
-0.000252958
-0.000380003
-0.000471578
-0.000530766
-0.000562039
-0.000570771
-0.000562586
-0.000542746
-0.000515722
-0.000485011
-0.000453136
-0.000421766
-0.000391896
-0.000364032
-0.000338354
-0.000314844
-0.000293378
-0.000273783
-0.000255881
-0.000239502
-0.000224497
-0.000210736
-0.000198113
-0.000186534
-0.000175922
-0.000166208
-0.000157332
-0.000149239
-0.000141878
-0.000135201
-0.000129163
-0.000123718
-0.000118825
-0.000114443
-0.000110532
-0.000107051
-0.000103964
-0.000101232
-9.88178e-05
-9.66853e-05
-9.47977e-05
-9.31186e-05
-9.16118e-05
-9.02407e-05
-8.89689e-05
-8.77599e-05
-8.65772e-05
-8.53841e-05
-8.4143e-05
-8.28137e-05
-8.13514e-05
-7.97022e-05
-7.78004e-05
-7.55654e-05
-7.29055e-05
-6.97228e-05
-6.59335e-05
-6.14806e-05
-5.6458e-05
-5.09543e-05
-4.5148e-05
-3.92572e-05
-3.34699e-05
-2.79462e-05
-2.28255e-05
-1.81953e-05
-1.41096e-05
-1.0588e-05
-7.62232e-06
-5.18314e-06
-3.22515e-06
-1.6926e-06
-5.24665e-07
3.39839e-07
9.58866e-07
1.38467e-06
1.66255e-06
1.8302e-06
1.91798e-06
1.94938e-06
1.94187e-06
1.90772e-06
1.855e-06
1.78833e-06
1.70966e-06
1.61883e-06
1.51409e-06
1.39242e-06
1.24983e-06
1.08173e-06
8.83827e-07
6.57998e-07
4.92315e-07
0.00165028
0.00125992
0.000894824
0.00060785
0.000363097
0.000141519
-5.37732e-05
-0.000216481
-0.000344072
-0.00043723
-0.000498679
-0.000532619
-0.000544207
-0.000538899
-0.000521828
-0.000497383
-0.000469008
-0.000439204
-0.000409635
-0.000381312
-0.000354762
-0.000330195
-0.000307622
-0.000286945
-0.00026802
-0.000250689
-0.000234799
-0.000220217
-0.000206825
-0.000194524
-0.000183229
-0.00017287
-0.000163382
-0.000154709
-0.000146798
-0.000139603
-0.000133078
-0.000127178
-0.000121861
-0.000117086
-0.000112815
-0.000109006
-0.000105623
-0.000102627
-9.99816e-05
-9.76504e-05
-9.5597e-05
-9.37854e-05
-9.21795e-05
-9.07434e-05
-8.94407e-05
-8.82352e-05
-8.70906e-05
-8.59706e-05
-8.48384e-05
-8.36568e-05
-8.23862e-05
-8.09822e-05
-7.93923e-05
-7.75517e-05
-7.53802e-05
-7.27832e-05
-6.96614e-05
-6.59246e-05
-6.15634e-05
-5.65843e-05
-5.10973e-05
-4.5286e-05
-3.93879e-05
-3.35928e-05
-2.80603e-05
-2.29309e-05
-1.82906e-05
-1.41945e-05
-1.06626e-05
-7.68706e-06
-5.23903e-06
-3.27329e-06
-1.73411e-06
-5.6055e-07
3.08673e-07
9.31661e-07
1.3608e-06
1.64151e-06
1.81158e-06
1.90147e-06
1.93472e-06
1.92886e-06
1.89618e-06
1.8448e-06
1.77933e-06
1.70174e-06
1.61187e-06
1.50797e-06
1.38696e-06
1.2448e-06
1.07668e-06
8.7796e-07
6.51096e-07
5.10977e-07
0.00142485
0.00114989
0.000850902
0.000592101
0.000365793
0.000160528
-2.18513e-05
-0.000175992
-0.000299193
-0.000391572
-0.000455096
-0.000493079
-0.000509786
-0.000509901
-0.000497986
-0.000478071
-0.000453442
-0.000426583
-0.000399246
-0.000372566
-0.000347211
-0.000323513
-0.000301586
-0.000281407
-0.000262885
-0.000245897
-0.000230313
-0.000216011
-0.000202881
-0.000190828
-0.000179768
-0.000169631
-0.000160352
-0.000151875
-0.000144149
-0.000137126
-0.000130761
-0.00012501
-0.000119833
-0.000115188
-0.000111037
-0.000107341
-0.000104063
-0.000101167
-9.86149e-05
-9.63718e-05
-9.44021e-05
-9.26701e-05
-9.11403e-05
-8.97772e-05
-8.85448e-05
-8.74072e-05
-8.63285e-05
-8.52725e-05
-8.4203e-05
-8.30831e-05
-8.18735e-05
-8.05307e-05
-7.90024e-05
-7.72244e-05
-7.51161e-05
-7.25818e-05
-6.95176e-05
-6.5822e-05
-6.14275e-05
-5.64191e-05
-5.10057e-05
-4.52796e-05
-3.94296e-05
-3.36494e-05
-2.81178e-05
-2.29882e-05
-1.83463e-05
-1.42495e-05
-1.07164e-05
-7.73891e-06
-5.28826e-06
-3.31962e-06
-1.77743e-06
-6.00884e-07
2.71276e-07
8.97116e-07
1.32902e-06
1.61238e-06
1.78503e-06
1.8774e-06
1.91304e-06
1.90949e-06
1.87905e-06
1.82983e-06
1.76645e-06
1.69089e-06
1.60304e-06
1.50117e-06
1.38234e-06
1.24278e-06
1.07843e-06
8.87201e-07
6.81541e-07
6.06375e-07
0.00122127
0.00102184
0.000781899
0.000558016
0.000357268
0.000174406
1.03731e-05
-0.000130552
-0.000245555
-0.000334148
-0.000397534
-0.000438141
-0.000459295
-0.000464817
-0.00045857
-0.000444097
-0.00042439
-0.000401804
-0.00037807
-0.000354372
-0.00033146
-0.000309758
-0.000289466
-0.000270637
-0.00025324
-0.000237203
-0.000222431
-0.000208831
-0.000196314
-0.0001848
-0.000174218
-0.000164504
-0.000155603
-0.000147465
-0.000140043
-0.000133294
-0.000127175
-0.000121648
-0.000116673
-0.000112213
-0.00010823
-0.00010469
-0.000101555
-9.8791e-05
-9.63626e-05
-9.42354e-05
-9.23746e-05
-9.07458e-05
-8.93143e-05
-8.80452e-05
-8.69033e-05
-8.58534e-05
-8.486e-05
-8.38876e-05
-8.29004e-05
-8.18618e-05
-8.07329e-05
-7.94699e-05
-7.80205e-05
-7.63193e-05
-7.42848e-05
-7.18196e-05
-6.88197e-05
-6.51941e-05
-6.08991e-05
-5.59509e-05
-5.04602e-05
-4.47377e-05
-3.90433e-05
-3.34314e-05
-2.80249e-05
-2.29768e-05
-1.8383e-05
-1.43191e-05
-1.08081e-05
-7.8444e-06
-5.40088e-06
-3.43406e-06
-1.88978e-06
-7.08383e-07
1.7039e-07
8.03829e-07
1.24371e-06
1.53503e-06
1.71532e-06
1.8149e-06
1.85724e-06
1.85988e-06
1.83517e-06
1.79128e-06
1.73294e-06
1.66224e-06
1.5792e-06
1.48233e-06
1.36908e-06
1.23654e-06
1.08282e-06
9.11897e-07
7.54905e-07
7.96937e-07
0.00103304
0.000887652
0.000701919
0.000516257
0.00034337
0.000183687
3.88081e-05
-8.7609e-05
-0.000192753
-0.000275705
-0.000337096
-0.000378661
-0.000402943
-0.000412969
-0.000411903
-0.000402734
-0.000388074
-0.000370051
-0.000350293
-0.000329975
-0.000309892
-0.000290541
-0.000272202
-0.000255009
-0.000239
-0.000224154
-0.000210423
-0.000197743
-0.000186049
-0.000175276
-0.000165367
-0.000156265
-0.000147923
-0.000140293
-0.000133333
-0.000127005
-0.000121268
-0.000116088
-0.000111427
-0.000107252
-0.000103527
-0.000100221
-9.72979e-05
-9.47266e-05
-9.24739e-05
-9.05074e-05
-8.87943e-05
-8.73021e-05
-8.59976e-05
-8.48477e-05
-8.38187e-05
-8.28769e-05
-8.19879e-05
-8.11173e-05
-8.02304e-05
-7.92909e-05
-7.82603e-05
-7.70945e-05
-7.57408e-05
-7.41336e-05
-7.2192e-05
-6.98215e-05
-6.69238e-05
-6.34173e-05
-5.92677e-05
-5.45125e-05
-4.92892e-05
-4.37685e-05
-3.81051e-05
-3.25703e-05
-2.73834e-05
-2.25689e-05
-1.81641e-05
-1.42401e-05
-1.0828e-05
-7.93414e-06
-5.5381e-06
-3.60096e-06
-2.07239e-06
-8.96214e-07
-1.51555e-08
6.25558e-07
1.07575e-06
1.37894e-06
1.57163e-06
1.68347e-06
1.73754e-06
1.7512e-06
1.73676e-06
1.70248e-06
1.65323e-06
1.59133e-06
1.51709e-06
1.42947e-06
1.32667e-06
1.20728e-06
1.07291e-06
9.36226e-07
8.52145e-07
1.05768e-06
0.000865378
0.000758262
0.000616973
0.000467083
0.000321634
0.000184839
5.93545e-05
-5.16207e-05
-0.000145513
-0.000221188
-0.00027884
-0.000319641
-0.000345467
-0.000358644
-0.000361683
-0.000357032
-0.000346896
-0.000333139
-0.000317241
-0.000300321
-0.000283178
-0.000266348
-0.000250169
-0.000234834
-0.000220436
-0.000207001
-0.000194518
-0.000182954
-0.000172264
-0.000162401
-0.000153319
-0.00014497
-0.000137314
-0.000130309
-0.000123919
-0.000118108
-0.000112841
-0.000108085
-0.000103809
-9.99806e-05
-9.65688e-05
-9.35434e-05
-9.08741e-05
-8.85309e-05
-8.64837e-05
-8.47027e-05
-8.31577e-05
-8.18185e-05
-8.06544e-05
-7.96344e-05
-7.8727e-05
-7.79006e-05
-7.71227e-05
-7.63607e-05
-7.5581e-05
-7.47487e-05
-7.38254e-05
-7.27679e-05
-7.1524e-05
-7.00305e-05
-6.82111e-05
-6.59795e-05
-6.32497e-05
-5.9954e-05
-5.60689e-05
-5.16361e-05
-4.67697e-05
-4.16269e-05
-3.63888e-05
-3.12298e-05
-2.62549e-05
-2.163e-05
-1.74859e-05
-1.38119e-05
-1.05993e-05
-7.85567e-06
-5.5699e-06
-3.71094e-06
-2.23461e-06
-1.09025e-06
-2.25608e-07
4.09769e-07
8.62188e-07
1.17242e-06
1.37493e-06
1.49791e-06
1.56352e-06
1.58855e-06
1.58509e-06
1.56135e-06
1.52234e-06
1.47063e-06
1.40695e-06
1.33085e-06
1.24154e-06
1.13943e-06
1.02981e-06
9.33262e-07
9.22263e-07
1.26054e-06
0.000715359
0.000635139
0.000528474
0.000410396
0.000291545
0.000177503
7.16077e-05
-2.32817e-05
-0.000104898
-0.00017202
-0.000224499
-0.000263028
-0.000288918
-0.000303893
-0.00030988
-0.000308826
-0.000302539
-0.000292599
-0.000280305
-0.000266678
-0.000252479
-0.000238248
-0.000224352
-0.000211019
-0.000198382
-0.000186508
-0.000175415
-0.000165099
-0.000155536
-0.000146696
-0.000138543
-0.000131043
-0.00012416
-0.000117861
-0.000112113
-0.000106885
-0.000102147
-9.78692e-05
-9.40234e-05
-9.05814e-05
-8.75157e-05
-8.47991e-05
-8.24043e-05
-8.03047e-05
-7.84733e-05
-7.68831e-05
-7.55071e-05
-7.43179e-05
-7.32879e-05
-7.2389e-05
-7.15926e-05
-7.08696e-05
-7.01906e-05
-6.95251e-05
-6.88418e-05
-6.81076e-05
-6.72861e-05
-6.63358e-05
-6.52079e-05
-6.38444e-05
-6.21776e-05
-6.01337e-05
-5.76424e-05
-5.46514e-05
-5.11464e-05
-4.7166e-05
-4.28053e-05
-3.81999e-05
-3.34995e-05
-2.88498e-05
-2.43767e-05
-2.01882e-05
-1.636e-05
-1.29684e-05
-1.00306e-05
-7.51571e-06
-5.40794e-06
-3.68283e-06
-2.30336e-06
-1.22565e-06
-4.03957e-07
2.06346e-07
6.46617e-07
9.53611e-07
1.1587e-06
1.28776e-06
1.36136e-06
1.39525e-06
1.40092e-06
1.38634e-06
1.35652e-06
1.31428e-06
1.26074e-06
1.19614e-06
1.12068e-06
1.03639e-06
9.51034e-07
8.88155e-07
9.18359e-07
1.25473e-06
0.000579187
0.000518802
0.000439135
0.000348572
0.000254635
0.000162606
7.59501e-05
-2.73666e-06
-7.14787e-05
-0.000129075
-0.00017515
-0.000210029
-0.000234568
-0.000249988
-0.000257721
-0.000259258
-0.000256033
-0.000249335
-0.000240261
-0.0002297
-0.000218343
-0.000206702
-0.00019514
-0.000183904
-0.000173148
-0.000162965
-0.000153398
-0.000144463
-0.000136155
-0.000128457
-0.000121348
-0.0001148
-0.000108787
-0.00010328
-9.82531e-05
-9.36793e-05
-8.95327e-05
-8.57881e-05
-8.24206e-05
-7.9406e-05
-7.67204e-05
-7.43399e-05
-7.22413e-05
-7.0401e-05
-6.87957e-05
-6.74018e-05
-6.61959e-05
-6.51539e-05
-6.42517e-05
-6.34647e-05
-6.27678e-05
-6.21355e-05
-6.15414e-05
-6.09587e-05
-6.0359e-05
-5.97123e-05
-5.89854e-05
-5.8141e-05
-5.71355e-05
-5.59188e-05
-5.44343e-05
-5.26227e-05
-5.04294e-05
-4.78165e-05
-4.47767e-05
-4.13432e-05
-3.75922e-05
-3.36319e-05
-2.95838e-05
-2.55701e-05
-2.16984e-05
-1.80579e-05
-1.47192e-05
-1.1727e-05
-9.11751e-06
-6.89034e-06
-5.0188e-06
-3.47876e-06
-2.23947e-06
-1.26425e-06
-5.14491e-07
4.77835e-08
4.58078e-07
7.48232e-07
9.45677e-07
1.07326e-06
1.14931e-06
1.18802e-06
1.19989e-06
1.19233e-06
1.17018e-06
1.13631e-06
1.09218e-06
1.03856e-06
9.76441e-07
9.08731e-07
8.43505e-07
8.00777e-07
8.28611e-07
1.02752e-06
0.000459932
0.00041425
0.000354875
0.000286486
0.000214033
0.000141767
7.28048e-05
9.42881e-06
-4.66751e-05
-9.44177e-05
-0.000133331
-0.000163504
-0.000185463
-0.000200046
-0.000208286
-0.000211296
-0.000210177
-0.000205948
-0.000199498
-0.000191572
-0.000182764
-0.000173531
-0.000164208
-0.000155034
-0.000146168
-0.000137712
-0.000129724
-0.000122231
-0.000115242
-0.000108752
-0.000102747
-9.72095e-05
-9.21191e-05
-8.74544e-05
-8.31935e-05
-7.93146e-05
-7.57963e-05
-7.26175e-05
-6.97575e-05
-6.71958e-05
-6.49123e-05
-6.28871e-05
-6.11003e-05
-5.95323e-05
-5.81632e-05
-5.69733e-05
-5.59427e-05
-5.5051e-05
-5.4278e-05
-5.36027e-05
-5.3004e-05
-5.246e-05
-5.19484e-05
-5.14461e-05
-5.09287e-05
-5.03701e-05
-4.97416e-05
-4.90111e-05
-4.81419e-05
-4.70925e-05
-4.58178e-05
-4.42717e-05
-4.24135e-05
-4.02165e-05
-3.76775e-05
-3.4824e-05
-3.17151e-05
-2.84345e-05
-2.50782e-05
-2.17433e-05
-1.85172e-05
-1.54745e-05
-1.2674e-05
-1.01534e-05
-7.93836e-06
-6.03858e-06
-4.43969e-06
-3.11876e-06
-2.05001e-06
-1.20382e-06
-5.48761e-07
-5.36284e-08
3.10974e-07
5.71616e-07
7.51389e-07
8.69686e-07
9.42207e-07
9.81224e-07
9.95937e-07
9.92928e-07
9.76616e-07
9.49757e-07
9.13953e-07
8.7027e-07
8.20055e-07
7.66229e-07
7.15297e-07
6.79993e-07
6.80861e-07
7.2465e-07
0.000343923
0.000311046
0.000269019
0.000220299
0.000167868
0.000114739
6.33708e-05
1.56042e-05
-2.72147e-05
-6.4182e-05
-9.48337e-05
-0.000119112
-0.000137295
-0.000149908
-0.000157639
-0.000161261
-0.000161561
-0.000159288
-0.000155115
-0.000149617
-0.000143269
-0.000136446
-0.000129433
-0.000122439
-0.00011561
-0.000109046
-0.000102807
-9.69283e-05
-9.14256e-05
-8.63019e-05
-8.15521e-05
-7.71657e-05
-7.31289e-05
-6.94265e-05
-6.60422e-05
-6.29594e-05
-6.01616e-05
-5.76323e-05
-5.53551e-05
-5.33141e-05
-5.14932e-05
-4.98768e-05
-4.84491e-05
-4.71945e-05
-4.60974e-05
-4.51421e-05
-4.43128e-05
-4.35935e-05
-4.29681e-05
-4.24199e-05
-4.19322e-05
-4.14877e-05
-4.10685e-05
-4.06562e-05
-4.02311e-05
-3.97722e-05
-3.92565e-05
-3.86585e-05
-3.79493e-05
-3.70975e-05
-3.60693e-05
-3.48315e-05
-3.3356e-05
-3.16252e-05
-2.96386e-05
-2.74174e-05
-2.50048e-05
-2.24616e-05
-1.98582e-05
-1.72668e-05
-1.47541e-05
-1.23774e-05
-1.01822e-05
-8.19942e-06
-6.44795e-06
-4.93681e-06
-3.65926e-06
-2.60029e-06
-1.73934e-06
-1.05373e-06
-5.19591e-07
-1.12946e-07
1.88982e-07
4.06923e-07
5.59041e-07
6.60707e-07
7.24478e-07
7.6026e-07
7.75564e-07
7.75842e-07
7.6485e-07
7.45029e-07
7.17931e-07
6.84711e-07
6.46728e-07
6.0633e-07
5.67536e-07
5.35323e-07
5.08805e-07
4.4626e-07
0.000216904
0.000196697
0.000171275
0.000141766
0.000109701
7.68295e-05
4.47028e-05
1.45257e-05
-1.28141e-05
-3.67052e-05
-5.68e-05
-7.29979e-05
-8.54091e-05
-9.43065e-05
-0.000100074
-0.000103161
-0.000104037
-0.00010316
-0.000100954
-9.7789e-05
-9.39763e-05
-8.97691e-05
-8.5365e-05
-8.09129e-05
-7.65212e-05
-7.22651e-05
-6.81944e-05
-6.43399e-05
-6.07181e-05
-5.73357e-05
-5.4193e-05
-5.12854e-05
-4.86058e-05
-4.61453e-05
-4.38939e-05
-4.18414e-05
-3.9977e-05
-3.82902e-05
-3.67702e-05
-3.54067e-05
-3.4189e-05
-3.31067e-05
-3.21496e-05
-3.13072e-05
-3.05693e-05
-2.99255e-05
-2.93652e-05
-2.88779e-05
-2.84529e-05
-2.80792e-05
-2.77456e-05
-2.74406e-05
-2.71524e-05
-2.68685e-05
-2.65759e-05
-2.62603e-05
-2.59064e-05
-2.54973e-05
-2.50143e-05
-2.44373e-05
-2.37453e-05
-2.29182e-05
-2.19396e-05
-2.07999e-05
-1.94999e-05
-1.80529e-05
-1.64857e-05
-1.48352e-05
-1.31451e-05
-1.14601e-05
-9.82271e-06
-8.26967e-06
-6.8305e-06
-5.52636e-06
-4.37043e-06
-3.36907e-06
-2.51433e-06
-1.80402e-06
-1.22425e-06
-7.60049e-07
-3.96211e-07
-1.17345e-07
9.13126e-08
2.43292e-07
3.50532e-07
4.23211e-07
4.69711e-07
4.967e-07
5.09284e-07
5.11215e-07
5.05125e-07
4.92784e-07
4.75373e-07
4.53807e-07
4.2906e-07
4.02448e-07
3.75396e-07
3.47415e-07
3.09199e-07
2.22852e-07
7.55096e-05
6.84991e-05
5.97534e-05
4.96335e-05
3.86189e-05
2.728e-05
1.61467e-05
5.64201e-06
-3.92004e-06
-1.23217e-05
-1.9435e-05
-2.52157e-05
-2.9692e-05
-3.29492e-05
-3.51118e-05
-3.63286e-05
-3.67577e-05
-3.65553e-05
-3.58669e-05
-3.48219e-05
-3.35307e-05
-3.20838e-05
-3.05532e-05
-2.89939e-05
-2.74465e-05
-2.594e-05
-2.44939e-05
-2.31208e-05
-2.18278e-05
-2.06184e-05
-1.94933e-05
-1.84515e-05
-1.74907e-05
-1.66081e-05
-1.58002e-05
-1.50635e-05
-1.43942e-05
-1.37885e-05
-1.32427e-05
-1.27528e-05
-1.23152e-05
-1.19262e-05
-1.15819e-05
-1.12787e-05
-1.10128e-05
-1.07805e-05
-1.05779e-05
-1.04014e-05
-1.0247e-05
-1.01106e-05
-9.98845e-06
-9.8762e-06
-9.76959e-06
-9.6641e-06
-9.55498e-06
-9.43711e-06
-9.30495e-06
-9.15243e-06
-8.97297e-06
-8.7596e-06
-8.50519e-06
-8.20313e-06
-7.84815e-06
-7.43739e-06
-6.9715e-06
-6.45533e-06
-5.89802e-06
-5.31222e-06
-4.71277e-06
-4.11511e-06
-3.53387e-06
-2.98192e-06
-2.46969e-06
-2.00498e-06
-1.59346e-06
-1.2407e-06
-9.26278e-07
-6.68535e-07
-4.58566e-07
-2.90037e-07
-1.57587e-07
-5.57702e-08
2.06515e-08
7.64941e-08
1.16025e-07
1.42903e-07
1.60161e-07
1.7023e-07
1.74994e-07
1.75858e-07
1.73833e-07
1.69624e-07
1.63731e-07
1.56547e-07
1.48447e-07
1.39799e-07
1.30694e-07
1.19943e-07
1.02608e-07
6.54612e-08
1.35955e-05
1.47218e-05
1.73126e-05
2.13192e-05
2.67991e-05
3.39764e-05
4.31742e-05
5.47804e-05
6.92507e-05
8.7119e-05
0.000109007
0.000135635
0.000167834
0.000206571
0.000252984
0.000308442
0.000374642
0.000453783
0.000548867
0.00066427
0.000806886
0.000988634
0.00123281
0.00159776
0.0022584
1.34789e-05
1.45634e-05
1.70999e-05
2.1038e-05
2.6431e-05
3.34979e-05
4.25562e-05
5.39868e-05
6.82372e-05
8.58317e-05
0.00010738
0.000133587
0.000165265
0.000203356
0.000248961
0.000303397
0.00036828
0.00044567
0.000538328
0.000650156
0.000787017
0.000958238
0.00117905
0.00147104
0.00183632
1.3272e-05
1.43195e-05
1.67937e-05
2.06478e-05
2.5931e-05
3.28565e-05
4.17348e-05
5.2939e-05
6.69067e-05
8.41501e-05
0.000105264
0.000130936
0.000161952
0.000199221
0.000243798
0.000296924
0.000360097
0.000435178
0.000524563
0.00063145
0.0007602
0.000916616
0.00110678
0.00132779
0.00152982
1.2954e-05
1.3962e-05
1.63554e-05
2.00948e-05
2.5226e-05
3.19544e-05
4.05812e-05
5.14681e-05
6.50391e-05
8.17896e-05
0.000102294
0.000127212
0.000157297
0.000193409
0.000236535
0.000287812
0.000348575
0.000420407
0.000505217
0.000605293
0.000723208
0.000861101
0.00101771
0.00117866
0.00129344
1.2497e-05
1.34582e-05
1.57471e-05
1.93335e-05
2.42602e-05
3.07226e-05
3.90093e-05
4.94669e-05
6.25012e-05
7.85853e-05
9.82656e-05
0.000122167
0.000150997
0.000185554
0.000226734
0.000275543
0.000333105
0.000400661
0.000479541
0.000571018
0.000675874
0.000793155
0.000917016
0.00102984
0.00109196
1.18692e-05
1.27739e-05
1.49307e-05
1.83183e-05
2.29771e-05
2.909e-05
3.6929e-05
4.68213e-05
5.91489e-05
7.43558e-05
9.2953e-05
0.00011552
0.000142708
0.000175235
0.00021389
0.000259516
0.000312995
0.000375184
0.000446799
0.000528135
0.000618452
0.000714696
0.000809061
0.000885247
0.000915639
1.10351e-05
1.18703e-05
1.38618e-05
1.69956e-05
2.13096e-05
2.69718e-05
3.42333e-05
4.3396e-05
5.48117e-05
6.88882e-05
8.60915e-05
0.000106946
0.000132032
0.000161975
0.000197438
0.000239085
0.000287535
0.000343261
0.000406407
0.000476451
0.000551597
0.000627758
0.000697082
0.000746518
0.000758273
9.95571e-06
1.07054e-05
1.24918e-05
1.53064e-05
1.91844e-05
2.42758e-05
3.08054e-05
3.90437e-05
4.9305e-05
6.19517e-05
7.73958e-05
9.60953e-05
0.000118548
0.000145276
0.000176803
0.000213611
0.000256065
0.000304295
0.000357986
0.000416063
0.000476202
0.000534177
0.000583205
0.000613793
0.000615105
8.66309e-06
9.31441e-06
1.08627e-05
1.33033e-05
1.66682e-05
2.10872e-05
2.67544e-05
3.39037e-05
4.28061e-05
5.37724e-05
6.71533e-05
8.33345e-05
0.000102726
0.000125745
0.000152785
0.000184164
0.000220046
0.000260312
0.00030438
0.000350937
0.000397609
0.000440624
0.000474631
0.000493046
0.000489352
7.04858e-06
7.57985e-06
8.83648e-06
1.08169e-05
1.35486e-05
1.7137e-05
2.1739e-05
2.75437e-05
3.47695e-05
4.36657e-05
5.45112e-05
6.76084e-05
8.32715e-05
0.000101807
0.000123483
0.000148474
0.00017679
0.000208161
0.000241896
0.000276697
0.000310477
0.000340248
0.000362201
0.000372154
0.000366496
4.8083e-06
5.17344e-06
6.03039e-06
7.37912e-06
9.23988e-06
1.16845e-05
1.48197e-05
1.87736e-05
2.36938e-05
2.97481e-05
3.71219e-05
4.60133e-05
5.66227e-05
6.9136e-05
8.36975e-05
0.00010037
0.000119078
0.000139532
0.000161136
0.000182897
0.00020336
0.000220614
0.000232436
0.000236628
0.000231523
1.76021e-06
1.89624e-06
2.21219e-06
2.70814e-06
3.39214e-06
4.29083e-06
5.44346e-06
6.89722e-06
8.70633e-06
1.09321e-05
1.36419e-05
1.69069e-05
2.07974e-05
2.53756e-05
3.06846e-05
3.67319e-05
4.34677e-05
5.07578e-05
5.83536e-05
6.58679e-05
7.27645e-05
7.83792e-05
8.19874e-05
8.29223e-05
8.07311e-05
)
;

boundaryField
{
    top
    {
        type            fixedValue;
        value           uniform 0;
    }
    inlet
    {
        type            zeroGradient;
    }
    outlet
    {
        type            fixedValue;
        value           uniform 0;
    }
    plate
    {
        type            zeroGradient;
    }
    symmBound
    {
        type            zeroGradient;
    }
    frontAndBack
    {
        type            empty;
    }
}


// ************************************************************************* //
