/*--------------------------------*- C++ -*----------------------------------*\
| =========                 |                                                 |
| \\      /  F ield         | OpenFOAM: The Open Source CFD Toolbox           |
|  \\    /   O peration     | Version:  2.3.0                                 |
|   \\  /    A nd           | Web:      www.OpenFOAM.org                      |
|    \\/     M anipulation  |                                                 |
\*---------------------------------------------------------------------------*/
FoamFile
{
    version     2.0;
    format      ascii;
    class       surfaceScalarField;
    location    "0.95";
    object      phi_0;
}
// * * * * * * * * * * * * * * * * * * * * * * * * * * * * * * * * * * * * * //

dimensions      [0 3 -1 0 0 0 0];

internalField   nonuniform List<scalar> 
17305
(
2.83157e-08
2.88413e-09
-3.11998e-08
2.5449e-08
2.86672e-09
2.27591e-08
2.68992e-09
2.02796e-08
2.47944e-09
1.80268e-08
2.25285e-09
1.60111e-08
2.01568e-09
1.4235e-08
1.77609e-09
1.26931e-08
1.54187e-09
1.13735e-08
1.31961e-09
1.02589e-08
1.11465e-09
9.32793e-09
9.3095e-10
8.55714e-09
7.70788e-10
7.92235e-09
6.34794e-10
7.40023e-09
5.22123e-10
6.96942e-09
4.30805e-10
6.61126e-09
3.5816e-10
6.31007e-09
3.01196e-10
6.05312e-09
2.56943e-10
5.83044e-09
2.22684e-10
5.63436e-09
1.96082e-10
5.45913e-09
1.75228e-10
5.3005e-09
1.58626e-10
5.15536e-09
1.45144e-10
5.02141e-09
1.33952e-10
4.89695e-09
1.24456e-10
4.78072e-09
1.16235e-10
4.67172e-09
1.09001e-10
4.56917e-09
1.0255e-10
4.47243e-09
9.67404e-11
4.38095e-09
9.14722e-11
4.29428e-09
8.667e-11
4.21201e-09
8.22761e-11
4.13376e-09
7.82442e-11
4.05923e-09
7.45355e-11
3.98811e-09
7.1117e-11
3.92015e-09
6.79595e-11
3.85511e-09
6.50374e-11
3.79279e-09
6.23279e-11
3.73298e-09
5.98104e-11
3.67551e-09
5.7467e-11
3.62023e-09
5.52812e-11
3.56699e-09
5.32387e-11
3.51566e-09
5.13266e-11
3.46613e-09
4.95334e-11
3.41828e-09
4.78488e-11
3.37202e-09
4.62638e-11
3.32725e-09
4.477e-11
3.28389e-09
4.33602e-11
3.24186e-09
4.20278e-11
3.20109e-09
4.07669e-11
3.16152e-09
3.95721e-11
3.12308e-09
3.84386e-11
3.08572e-09
3.7362e-11
3.04938e-09
3.63384e-11
3.01402e-09
3.53641e-11
2.97958e-09
3.44358e-11
2.94603e-09
3.35506e-11
2.91332e-09
3.27056e-11
2.88143e-09
3.18984e-11
2.8503e-09
3.11265e-11
2.81991e-09
3.0388e-11
2.79023e-09
2.96808e-11
2.76123e-09
2.90031e-11
2.73287e-09
2.83532e-11
2.70514e-09
2.77297e-11
2.67801e-09
2.7131e-11
2.65146e-09
2.65559e-11
2.62545e-09
2.60032e-11
2.59998e-09
2.54717e-11
2.57502e-09
2.49604e-11
2.55055e-09
2.44683e-11
2.52656e-09
2.39946e-11
2.50302e-09
2.35383e-11
2.47992e-09
2.30989e-11
2.45725e-09
2.26755e-11
2.43498e-09
2.22675e-11
2.41311e-09
2.18744e-11
2.39161e-09
2.14955e-11
2.37048e-09
2.11305e-11
2.3497e-09
2.07788e-11
2.32926e-09
2.04401e-11
2.30915e-09
2.01141e-11
2.28935e-09
1.98005e-11
2.26985e-09
1.94989e-11
2.25064e-09
1.92094e-11
2.23171e-09
1.89318e-11
2.21304e-09
1.86659e-11
2.19463e-09
1.8412e-11
2.17646e-09
1.81703e-11
2.15852e-09
1.79412e-11
2.14079e-09
1.77255e-11
2.12327e-09
1.75247e-11
2.10592e-09
1.73413e-11
2.08874e-09
1.71806e-11
2.07169e-09
1.70537e-11
2.0547e-09
1.69869e-11
2.03765e-09
1.70544e-11
2.02021e-09
1.7441e-11
2.00198e-09
1.82311e-11
5.52989e-11
3.33502e-08
3.16052e-09
-3.36266e-08
3.27601e-08
3.45687e-09
3.19379e-08
3.51208e-09
3.09605e-08
3.45687e-09
2.98832e-08
3.33011e-09
2.87517e-08
3.14717e-09
2.76029e-08
2.92491e-09
2.64651e-08
2.67972e-09
2.53591e-08
2.42557e-09
2.42997e-08
2.17402e-09
2.32965e-08
1.93421e-09
2.23546e-08
1.71269e-09
2.1476e-08
1.51339e-09
2.06602e-08
1.33792e-09
1.9905e-08
1.18602e-09
1.9207e-08
1.0561e-09
1.85624e-08
9.45825e-10
1.79668e-08
8.52505e-10
1.74161e-08
7.73468e-10
1.69059e-08
7.06248e-10
1.64324e-08
6.48699e-10
1.5992e-08
5.99024e-10
1.55814e-08
5.55762e-10
1.51976e-08
5.17751e-10
1.4838e-08
4.84077e-10
1.45002e-08
4.54024e-10
1.41822e-08
4.27032e-10
1.38821e-08
4.02656e-10
1.35983e-08
3.80543e-10
1.33293e-08
3.60406e-10
1.3074e-08
3.42005e-10
1.28311e-08
3.25143e-10
1.25997e-08
3.09649e-10
1.23789e-08
2.95377e-10
1.21678e-08
2.82201e-10
1.19657e-08
2.70009e-10
1.17721e-08
2.58704e-10
1.15862e-08
2.48199e-10
1.14076e-08
2.38419e-10
1.12358e-08
2.29295e-10
1.10703e-08
2.20768e-10
1.09107e-08
2.12784e-10
1.07568e-08
2.05296e-10
1.0608e-08
1.98261e-10
1.04642e-08
1.91642e-10
1.03251e-08
1.85405e-10
1.01904e-08
1.79518e-10
1.00598e-08
1.73955e-10
9.9331e-09
1.68692e-10
9.81016e-09
1.63705e-10
9.69076e-09
1.58974e-10
9.57471e-09
1.54482e-10
9.46187e-09
1.50211e-10
9.35206e-09
1.46147e-10
9.24515e-09
1.42275e-10
9.141e-09
1.38583e-10
9.03949e-09
1.3506e-10
8.9405e-09
1.31694e-10
8.84392e-09
1.28476e-10
8.74965e-09
1.25397e-10
8.65759e-09
1.22449e-10
8.56765e-09
1.19624e-10
8.47974e-09
1.16915e-10
8.39378e-09
1.14315e-10
8.30969e-09
1.11819e-10
8.2274e-09
1.09421e-10
8.14684e-09
1.07116e-10
8.06794e-09
1.04899e-10
7.99065e-09
1.02765e-10
7.9149e-09
1.00711e-10
7.84063e-09
9.87323e-11
7.7678e-09
9.6826e-11
7.69635e-09
9.49885e-11
7.62623e-09
9.32169e-11
7.5574e-09
9.15084e-11
7.48981e-09
8.98603e-11
7.42341e-09
8.82704e-11
7.35817e-09
8.67363e-11
7.29405e-09
8.52562e-11
7.231e-09
8.38282e-11
7.16899e-09
8.24507e-11
7.10798e-09
8.11223e-11
7.04794e-09
7.98418e-11
6.98883e-09
7.8608e-11
6.93062e-09
7.74202e-11
6.87327e-09
7.62778e-11
6.81676e-09
7.51804e-11
6.76104e-09
7.41282e-11
6.70609e-09
7.31215e-11
6.65187e-09
7.21618e-11
6.59834e-09
7.12512e-11
6.54547e-09
7.03943e-11
6.49322e-09
6.95991e-11
6.44151e-09
6.8882e-11
6.39029e-09
6.82784e-11
6.3394e-09
6.78748e-11
6.28855e-09
6.79056e-11
6.23701e-09
6.89784e-11
6.17855e-09
7.66905e-11
1.40291e-10
3.47453e-08
3.01099e-09
-3.45958e-08
3.48059e-08
3.39629e-09
3.47401e-08
3.57787e-09
3.45534e-08
3.64354e-09
3.42565e-08
3.62702e-09
3.38637e-08
3.54004e-09
3.33922e-08
3.39633e-09
3.28601e-08
3.21187e-09
3.22839e-08
3.00174e-09
3.16786e-08
2.7793e-09
3.1057e-08
2.55582e-09
3.04295e-08
2.34018e-09
2.98043e-08
2.13859e-09
2.91875e-08
1.95471e-09
2.85835e-08
1.79006e-09
2.79951e-08
1.6445e-09
2.74241e-08
1.5168e-09
2.68715e-08
1.4051e-09
2.63377e-08
1.30732e-09
2.58225e-08
1.22138e-09
2.53258e-08
1.14541e-09
2.48471e-08
1.07775e-09
2.43858e-08
1.01706e-09
2.39413e-08
9.62221e-10
2.35131e-08
9.12343e-10
2.31004e-08
8.66721e-10
2.27026e-08
8.24794e-10
2.23191e-08
7.86112e-10
2.19494e-08
7.5031e-10
2.15927e-08
7.17086e-10
2.12485e-08
6.86187e-10
2.09163e-08
6.57396e-10
2.05954e-08
6.30525e-10
2.02854e-08
6.05408e-10
1.99857e-08
5.81897e-10
1.96958e-08
5.59859e-10
1.94153e-08
5.39176e-10
1.91438e-08
5.1974e-10
1.88808e-08
5.01452e-10
1.86258e-08
4.84224e-10
1.83786e-08
4.67976e-10
1.81388e-08
4.52633e-10
1.79059e-08
4.38129e-10
1.76798e-08
4.24403e-10
1.746e-08
4.11399e-10
1.72464e-08
3.99066e-10
1.70385e-08
3.87357e-10
1.68363e-08
3.76231e-10
1.66393e-08
3.65647e-10
1.64474e-08
3.5557e-10
1.62605e-08
3.45968e-10
1.60781e-08
3.36809e-10
1.59003e-08
3.28066e-10
1.57267e-08
3.19713e-10
1.55573e-08
3.11727e-10
1.53918e-08
3.04085e-10
1.523e-08
2.96767e-10
1.5072e-08
2.89755e-10
1.49174e-08
2.83031e-10
1.47662e-08
2.76579e-10
1.46183e-08
2.70384e-10
1.44735e-08
2.64431e-10
1.43317e-08
2.58709e-10
1.41928e-08
2.53205e-10
1.40567e-08
2.47908e-10
1.39233e-08
2.42807e-10
1.37926e-08
2.37893e-10
1.36643e-08
2.33156e-10
1.35385e-08
2.28589e-10
1.3415e-08
2.24183e-10
1.32938e-08
2.19932e-10
1.31748e-08
2.15827e-10
1.30579e-08
2.11863e-10
1.29431e-08
2.08035e-10
1.28303e-08
2.04335e-10
1.27194e-08
2.0076e-10
1.26104e-08
1.97305e-10
1.25031e-08
1.93965e-10
1.23976e-08
1.90737e-10
1.22939e-08
1.87616e-10
1.21917e-08
1.846e-10
1.20911e-08
1.81686e-10
1.19921e-08
1.7887e-10
1.18946e-08
1.76152e-10
1.17985e-08
1.73529e-10
1.17037e-08
1.71e-10
1.16104e-08
1.68563e-10
1.15183e-08
1.6622e-10
1.14274e-08
1.63971e-10
1.13378e-08
1.61818e-10
1.12492e-08
1.59766e-10
1.11618e-08
1.57822e-10
1.10754e-08
1.56003e-10
1.099e-08
1.54338e-10
1.09053e-08
1.52895e-10
1.08214e-08
1.51839e-10
1.07377e-08
1.51625e-10
1.06529e-08
1.53711e-10
1.05611e-08
1.68499e-10
2.39437e-10
3.55796e-08
2.82242e-09
-3.5391e-08
3.57714e-08
3.20445e-09
3.5922e-08
3.42732e-09
3.60188e-08
3.54669e-09
3.60553e-08
3.5905e-09
3.60276e-08
3.56777e-09
3.59361e-08
3.4878e-09
3.5785e-08
3.36298e-09
3.55805e-08
3.20624e-09
3.53302e-08
3.02966e-09
3.5042e-08
2.84403e-09
3.47238e-08
2.65836e-09
3.43829e-08
2.47951e-09
3.40255e-08
2.31209e-09
3.36569e-08
2.15868e-09
3.32812e-08
2.02019e-09
3.29016e-08
1.89635e-09
3.25206e-08
1.7861e-09
3.214e-08
1.68797e-09
3.1761e-08
1.6004e-09
3.13845e-08
1.52183e-09
3.10114e-08
1.45088e-09
3.06421e-08
1.38636e-09
3.0277e-08
1.32728e-09
2.99166e-08
1.27282e-09
2.95609e-08
1.22235e-09
2.92104e-08
1.17535e-09
2.88651e-08
1.13141e-09
2.85252e-08
1.09021e-09
2.81908e-08
1.05146e-09
2.7862e-08
1.01495e-09
2.7539e-08
9.80477e-10
2.72216e-08
9.47891e-10
2.691e-08
9.17042e-10
2.66041e-08
8.87804e-10
2.63039e-08
8.60062e-10
2.60093e-08
8.33713e-10
2.57204e-08
8.08664e-10
2.5437e-08
7.84829e-10
2.51591e-08
7.62129e-10
2.48866e-08
7.40493e-10
2.46194e-08
7.19854e-10
2.43574e-08
7.00151e-10
2.41004e-08
6.81327e-10
2.38485e-08
6.63331e-10
2.36015e-08
6.46114e-10
2.33592e-08
6.29631e-10
2.31216e-08
6.13841e-10
2.28885e-08
5.98706e-10
2.26599e-08
5.84188e-10
2.24356e-08
5.70255e-10
2.22155e-08
5.56875e-10
2.19996e-08
5.44019e-10
2.17876e-08
5.3166e-10
2.15796e-08
5.19772e-10
2.13753e-08
5.08331e-10
2.11748e-08
4.97315e-10
2.09779e-08
4.86703e-10
2.07844e-08
4.76475e-10
2.05944e-08
4.66612e-10
2.04077e-08
4.57098e-10
2.02242e-08
4.47915e-10
2.00438e-08
4.39049e-10
1.98666e-08
4.30485e-10
1.96923e-08
4.22209e-10
1.95209e-08
4.1421e-10
1.93523e-08
4.06474e-10
1.91864e-08
3.98991e-10
1.90233e-08
3.9175e-10
1.88627e-08
3.84741e-10
1.87047e-08
3.77954e-10
1.85491e-08
3.71382e-10
1.8396e-08
3.65015e-10
1.82452e-08
3.58846e-10
1.80966e-08
3.52869e-10
1.79503e-08
3.47075e-10
1.78062e-08
3.4146e-10
1.76641e-08
3.36017e-10
1.75241e-08
3.30742e-10
1.73861e-08
3.25628e-10
1.725e-08
3.20673e-10
1.71158e-08
3.15871e-10
1.69835e-08
3.11221e-10
1.68529e-08
3.06718e-10
1.67241e-08
3.02362e-10
1.6597e-08
2.98149e-10
1.64714e-08
2.9408e-10
1.63475e-08
2.90155e-10
1.62251e-08
2.86375e-10
1.61042e-08
2.82744e-10
1.59847e-08
2.79269e-10
1.58665e-08
2.75963e-10
1.57497e-08
2.72848e-10
1.5634e-08
2.69972e-10
1.55195e-08
2.67437e-10
1.54058e-08
2.65493e-10
1.52926e-08
2.6483e-10
1.51786e-08
2.67798e-10
1.50608e-08
2.86218e-10
3.51278e-10
3.63302e-08
2.65745e-09
-3.61652e-08
3.65248e-08
3.00986e-09
3.67132e-08
3.23892e-09
3.68827e-08
3.37723e-09
3.70256e-08
3.44756e-09
3.71348e-08
3.45855e-09
3.72053e-08
3.41729e-09
3.72349e-08
3.33338e-09
3.72238e-08
3.21741e-09
3.71738e-08
3.07959e-09
3.70885e-08
2.92935e-09
3.6972e-08
2.77482e-09
3.6829e-08
2.62254e-09
3.66639e-08
2.47722e-09
3.64807e-08
2.34183e-09
3.62831e-08
2.21784e-09
3.60739e-08
2.10557e-09
3.58554e-08
2.00457e-09
3.56295e-08
1.91387e-09
3.53976e-08
1.83232e-09
3.51607e-08
1.75868e-09
3.49198e-08
1.6918e-09
3.46755e-08
1.63067e-09
3.44284e-08
1.5744e-09
3.41789e-08
1.52228e-09
3.39276e-08
1.4737e-09
3.36747e-08
1.42821e-09
3.34207e-08
1.38541e-09
3.31659e-08
1.34501e-09
3.29106e-08
1.30675e-09
3.26551e-08
1.27043e-09
3.23997e-08
1.23589e-09
3.21446e-08
1.20297e-09
3.18901e-08
1.17155e-09
3.16364e-08
1.14153e-09
3.13837e-08
1.11281e-09
3.11321e-08
1.08529e-09
3.08818e-08
1.05892e-09
3.06331e-08
1.0336e-09
3.03859e-08
1.00929e-09
3.01405e-08
9.85917e-10
2.98969e-08
9.63435e-10
2.96552e-08
9.41794e-10
2.94156e-08
9.20947e-10
2.91781e-08
9.00855e-10
2.89427e-08
8.81477e-10
2.87096e-08
8.62779e-10
2.84787e-08
8.44727e-10
2.82501e-08
8.27291e-10
2.80239e-08
8.10442e-10
2.78e-08
7.94152e-10
2.75784e-08
7.78397e-10
2.73593e-08
7.63152e-10
2.71426e-08
7.48396e-10
2.69282e-08
7.34107e-10
2.67163e-08
7.20266e-10
2.65068e-08
7.06854e-10
2.62996e-08
6.93853e-10
2.60948e-08
6.81247e-10
2.58924e-08
6.6902e-10
2.56924e-08
6.57156e-10
2.54947e-08
6.45643e-10
2.52992e-08
6.34466e-10
2.51061e-08
6.23613e-10
2.49152e-08
6.13071e-10
2.47266e-08
6.0283e-10
2.45402e-08
5.92879e-10
2.4356e-08
5.83206e-10
2.41739e-08
5.73804e-10
2.3994e-08
5.64662e-10
2.38162e-08
5.55771e-10
2.36405e-08
5.47125e-10
2.34668e-08
5.38714e-10
2.32951e-08
5.30533e-10
2.31254e-08
5.22573e-10
2.29576e-08
5.14829e-10
2.27918e-08
5.07295e-10
2.26278e-08
4.99966e-10
2.24657e-08
4.92836e-10
2.23055e-08
4.85901e-10
2.2147e-08
4.79157e-10
2.19903e-08
4.72601e-10
2.18353e-08
4.6623e-10
2.16819e-08
4.60041e-10
2.15303e-08
4.54034e-10
2.13802e-08
4.48206e-10
2.12317e-08
4.42559e-10
2.10848e-08
4.37094e-10
2.09393e-08
4.31814e-10
2.07954e-08
4.26725e-10
2.06528e-08
4.21838e-10
2.05116e-08
4.1717e-10
2.03717e-08
4.12753e-10
2.0233e-08
4.0865e-10
2.00954e-08
4.04996e-10
1.99588e-08
4.02115e-10
1.98228e-08
4.00886e-10
1.96864e-08
4.04127e-10
1.95503e-08
4.22391e-10
4.73239e-10
3.70742e-08
2.51861e-09
-3.69354e-08
3.72482e-08
2.8359e-09
3.74289e-08
3.05815e-09
3.76045e-08
3.20171e-09
3.77684e-08
3.28367e-09
3.79146e-08
3.31236e-09
3.80379e-08
3.29394e-09
3.8135e-08
3.23626e-09
3.82043e-08
3.14818e-09
3.82454e-08
3.03845e-09
3.82595e-08
2.91523e-09
3.82486e-08
2.7857e-09
3.82154e-08
2.65579e-09
3.81627e-08
2.52997e-09
3.80932e-08
2.41126e-09
3.80097e-08
2.30139e-09
3.79142e-08
2.20103e-09
3.78087e-08
2.1101e-09
3.76945e-08
2.02803e-09
3.75729e-08
1.95397e-09
3.74446e-08
1.88696e-09
3.73103e-08
1.82604e-09
3.71707e-08
1.77033e-09
3.7026e-08
1.71907e-09
3.68767e-08
1.6716e-09
3.6723e-08
1.62736e-09
3.65653e-08
1.58593e-09
3.64038e-08
1.54693e-09
3.62387e-08
1.51007e-09
3.60704e-08
1.47511e-09
3.5899e-08
1.44186e-09
3.57247e-08
1.41015e-09
3.55478e-08
1.37984e-09
3.53686e-08
1.35082e-09
3.51871e-08
1.32298e-09
3.50037e-08
1.29623e-09
3.48185e-08
1.27051e-09
3.46317e-08
1.24573e-09
3.44434e-08
1.22183e-09
3.4254e-08
1.19877e-09
3.40634e-08
1.17648e-09
3.38719e-08
1.15492e-09
3.36797e-08
1.13406e-09
3.34868e-08
1.11385e-09
3.32934e-08
1.09425e-09
3.30996e-08
1.07525e-09
3.29056e-08
1.0568e-09
3.27114e-08
1.03888e-09
3.25172e-08
1.02147e-09
3.23231e-08
1.00455e-09
3.21292e-08
9.88086e-10
3.19355e-08
9.72068e-10
3.17422e-08
9.56477e-10
3.15493e-08
9.41295e-10
3.13569e-08
9.26506e-10
3.11651e-08
9.12096e-10
3.09739e-08
8.9805e-10
3.07834e-08
8.84356e-10
3.05936e-08
8.71001e-10
3.04047e-08
8.57973e-10
3.02166e-08
8.45262e-10
3.00294e-08
8.32857e-10
2.98431e-08
8.20749e-10
2.96578e-08
8.08928e-10
2.94734e-08
7.97385e-10
2.92902e-08
7.86113e-10
2.91079e-08
7.75103e-10
2.89268e-08
7.64347e-10
2.87468e-08
7.5384e-10
2.85678e-08
7.43574e-10
2.83901e-08
7.33542e-10
2.82135e-08
7.2374e-10
2.8038e-08
7.14161e-10
2.78637e-08
7.04801e-10
2.76907e-08
6.95654e-10
2.75188e-08
6.86716e-10
2.73481e-08
6.77984e-10
2.71786e-08
6.69454e-10
2.70103e-08
6.61122e-10
2.68432e-08
6.52985e-10
2.66773e-08
6.45042e-10
2.65127e-08
6.37291e-10
2.63492e-08
6.2973e-10
2.61868e-08
6.22359e-10
2.60257e-08
6.15177e-10
2.58657e-08
6.08188e-10
2.57069e-08
6.01391e-10
2.55492e-08
5.94792e-10
2.53926e-08
5.88396e-10
2.52371e-08
5.82212e-10
2.50827e-08
5.76254e-10
2.49293e-08
5.70546e-10
2.47769e-08
5.65128e-10
2.46255e-08
5.60078e-10
2.4475e-08
5.55555e-10
2.43251e-08
5.5193e-10
2.41759e-08
5.5016e-10
2.4027e-08
5.52973e-10
2.38813e-08
5.68144e-10
6.00685e-10
3.78235e-08
2.40008e-09
-3.7705e-08
3.79761e-08
2.68331e-09
3.81407e-08
2.89354e-09
3.83058e-08
3.03667e-09
3.84652e-08
3.12424e-09
3.8614e-08
3.16357e-09
3.87477e-08
3.16018e-09
3.88634e-08
3.12064e-09
3.8959e-08
3.05252e-09
3.90341e-08
2.96342e-09
3.90888e-08
2.86049e-09
3.91244e-08
2.75012e-09
3.91425e-08
2.63767e-09
3.91451e-08
2.52732e-09
3.91344e-08
2.42204e-09
3.91121e-08
2.32365e-09
3.90801e-08
2.23307e-09
3.90397e-08
2.15049e-09
3.89921e-08
2.07562e-09
3.89382e-08
2.00788e-09
3.88786e-08
1.94652e-09
3.88139e-08
1.89076e-09
3.87444e-08
1.83987e-09
3.86703e-08
1.79316e-09
3.85918e-08
1.75003e-09
3.85092e-08
1.70999e-09
3.84225e-08
1.67261e-09
3.83319e-08
1.63754e-09
3.82375e-08
1.60451e-09
3.81393e-08
1.57326e-09
3.80376e-08
1.5436e-09
3.79324e-08
1.51537e-09
3.78238e-08
1.48843e-09
3.77119e-08
1.46266e-09
3.7597e-08
1.43795e-09
3.7479e-08
1.41423e-09
3.73581e-08
1.3914e-09
3.72344e-08
1.3694e-09
3.71081e-08
1.34817e-09
3.69792e-08
1.32765e-09
3.68479e-08
1.30779e-09
3.67142e-08
1.28856e-09
3.65784e-08
1.26989e-09
3.64405e-08
1.25177e-09
3.63006e-08
1.23416e-09
3.61588e-08
1.21703e-09
3.60152e-08
1.20035e-09
3.587e-08
1.1841e-09
3.57232e-08
1.16825e-09
3.5575e-08
1.15279e-09
3.54254e-08
1.13769e-09
3.52745e-08
1.12295e-09
3.51224e-08
1.10854e-09
3.49693e-08
1.09445e-09
3.48151e-08
1.08066e-09
3.466e-08
1.06717e-09
3.45041e-08
1.05396e-09
3.43475e-08
1.04103e-09
3.41901e-08
1.02836e-09
3.40321e-08
1.01594e-09
3.38736e-08
1.00377e-09
3.37147e-08
9.91833e-10
3.35553e-08
9.80131e-10
3.33956e-08
9.68652e-10
3.32355e-08
9.57391e-10
3.30753e-08
9.46343e-10
3.29149e-08
9.35502e-10
3.27544e-08
9.24862e-10
3.25938e-08
9.1442e-10
3.24332e-08
9.04171e-10
3.22727e-08
8.94111e-10
3.21122e-08
8.84236e-10
3.19518e-08
8.74544e-10
3.17915e-08
8.65031e-10
3.16315e-08
8.55695e-10
3.14717e-08
8.46533e-10
3.13121e-08
8.37544e-10
3.11529e-08
8.28726e-10
3.09939e-08
8.20078e-10
3.08353e-08
8.116e-10
3.0677e-08
8.03291e-10
3.05192e-08
7.95151e-10
3.03617e-08
7.87182e-10
3.02047e-08
7.79385e-10
3.00481e-08
7.71762e-10
2.9892e-08
7.64317e-10
2.97363e-08
7.57055e-10
2.95811e-08
7.49983e-10
2.94264e-08
7.43108e-10
2.92722e-08
7.36444e-10
2.91184e-08
7.30009e-10
2.89651e-08
7.23831e-10
2.88123e-08
7.17958e-10
2.86599e-08
7.12477e-10
2.85079e-08
7.07561e-10
2.83562e-08
7.03589e-10
2.82049e-08
7.01459e-10
2.80546e-08
7.03358e-10
2.79089e-08
7.13765e-10
7.27595e-10
3.85799e-08
2.29674e-09
-3.84765e-08
3.87141e-08
2.54908e-09
3.88625e-08
2.74518e-09
3.90142e-08
2.8849e-09
3.91634e-08
2.97511e-09
3.93053e-08
3.02166e-09
3.94361e-08
3.02936e-09
3.9553e-08
3.00376e-09
3.96542e-08
2.95127e-09
3.97391e-08
2.87852e-09
3.98078e-08
2.79181e-09
3.98611e-08
2.69685e-09
3.99002e-08
2.5985e-09
3.99269e-08
2.50067e-09
3.99427e-08
2.40622e-09
3.99493e-08
2.31706e-09
3.99481e-08
2.23424e-09
3.99404e-08
2.15819e-09
3.99272e-08
2.08886e-09
3.99092e-08
2.02587e-09
3.9887e-08
1.9687e-09
3.98611e-08
1.91672e-09
3.98316e-08
1.86931e-09
3.97989e-08
1.82589e-09
3.9763e-08
1.78593e-09
3.9724e-08
1.74897e-09
3.9682e-08
1.71462e-09
3.9637e-08
1.68255e-09
3.9589e-08
1.65249e-09
3.95381e-08
1.62419e-09
3.94842e-08
1.59746e-09
3.94275e-08
1.57214e-09
3.93678e-08
1.54808e-09
3.93053e-08
1.52517e-09
3.924e-08
1.50329e-09
3.91718e-08
1.48236e-09
3.91009e-08
1.46229e-09
3.90273e-08
1.44301e-09
3.89511e-08
1.42445e-09
3.88721e-08
1.40656e-09
3.87906e-08
1.38929e-09
3.87066e-08
1.37259e-09
3.86201e-08
1.35642e-09
3.85311e-08
1.34073e-09
3.84398e-08
1.32551e-09
3.83461e-08
1.3107e-09
3.82502e-08
1.29629e-09
3.8152e-08
1.28225e-09
3.80517e-08
1.26856e-09
3.79493e-08
1.25519e-09
3.78449e-08
1.24213e-09
3.77385e-08
1.22935e-09
3.76302e-08
1.21686e-09
3.752e-08
1.20462e-09
3.7408e-08
1.19262e-09
3.72943e-08
1.18086e-09
3.7179e-08
1.16932e-09
3.7062e-08
1.15799e-09
3.69435e-08
1.14687e-09
3.68235e-08
1.13593e-09
3.67021e-08
1.12519e-09
3.65793e-08
1.11462e-09
3.64552e-08
1.10423e-09
3.63299e-08
1.094e-09
3.62033e-08
1.08394e-09
3.60756e-08
1.07403e-09
3.59468e-08
1.06428e-09
3.5817e-08
1.05467e-09
3.56862e-08
1.04521e-09
3.55545e-08
1.03589e-09
3.54219e-08
1.02671e-09
3.52885e-08
1.01766e-09
3.51543e-08
1.00875e-09
3.50194e-08
9.99975e-10
3.48837e-08
9.91329e-10
3.47474e-08
9.82815e-10
3.46106e-08
9.7443e-10
3.44731e-08
9.66177e-10
3.43351e-08
9.58054e-10
3.41967e-08
9.50062e-10
3.40578e-08
9.42204e-10
3.39184e-08
9.3448e-10
3.37787e-08
9.26895e-10
3.36386e-08
9.1945e-10
3.34983e-08
9.12151e-10
3.33576e-08
9.05003e-10
3.32166e-08
8.98013e-10
3.30754e-08
8.9119e-10
3.2934e-08
8.84545e-10
3.27923e-08
8.78094e-10
3.26505e-08
8.71858e-10
3.25084e-08
8.6587e-10
3.23662e-08
8.60182e-10
3.22238e-08
8.54885e-10
3.20812e-08
8.50148e-10
3.19385e-08
8.46319e-10
3.17958e-08
8.4412e-10
3.16542e-08
8.44951e-10
3.15178e-08
8.50197e-10
8.47822e-10
3.93437e-08
2.20497e-09
-3.92519e-08
3.94627e-08
2.43009e-09
3.95964e-08
2.61149e-09
3.97353e-08
2.74597e-09
3.98735e-08
2.8369e-09
4.00066e-08
2.88854e-09
4.01311e-08
2.90492e-09
4.02442e-08
2.89068e-09
4.03442e-08
2.85122e-09
4.04305e-08
2.79226e-09
4.05029e-08
2.71935e-09
4.05622e-08
2.63757e-09
4.06094e-08
2.55134e-09
4.06458e-08
2.46428e-09
4.06729e-08
2.37913e-09
4.06921e-08
2.29784e-09
4.07048e-08
2.22157e-09
4.0712e-08
2.15093e-09
4.07148e-08
2.08606e-09
4.07139e-08
2.02678e-09
4.07099e-08
1.97275e-09
4.07031e-08
1.92348e-09
4.06939e-08
1.8785e-09
4.06825e-08
1.8373e-09
4.0669e-08
1.79944e-09
4.06534e-08
1.7645e-09
4.06359e-08
1.73213e-09
4.06165e-08
1.70202e-09
4.0595e-08
1.67391e-09
4.05717e-08
1.64757e-09
4.05463e-08
1.62283e-09
4.05189e-08
1.5995e-09
4.04896e-08
1.57745e-09
4.04582e-08
1.55656e-09
4.04247e-08
1.53673e-09
4.03892e-08
1.51785e-09
4.03517e-08
1.49985e-09
4.0312e-08
1.48265e-09
4.02703e-08
1.46618e-09
4.02265e-08
1.45039e-09
4.01805e-08
1.43521e-09
4.01325e-08
1.42061e-09
4.00824e-08
1.40653e-09
4.00302e-08
1.39294e-09
3.99759e-08
1.3798e-09
3.99195e-08
1.36708e-09
3.98611e-08
1.35474e-09
3.98006e-08
1.34276e-09
3.9738e-08
1.33111e-09
3.96734e-08
1.31977e-09
3.96069e-08
1.30872e-09
3.95383e-08
1.29794e-09
3.94677e-08
1.28741e-09
3.93952e-08
1.27712e-09
3.93208e-08
1.26705e-09
3.92445e-08
1.25718e-09
3.91663e-08
1.24751e-09
3.90862e-08
1.23802e-09
3.90044e-08
1.22871e-09
3.89208e-08
1.21956e-09
3.88354e-08
1.21056e-09
3.87483e-08
1.20171e-09
3.86595e-08
1.193e-09
3.85691e-08
1.18442e-09
3.84771e-08
1.17597e-09
3.83835e-08
1.16765e-09
3.82883e-08
1.15943e-09
3.81917e-08
1.15134e-09
3.80935e-08
1.14335e-09
3.79939e-08
1.13546e-09
3.7893e-08
1.12768e-09
3.77906e-08
1.12e-09
3.7687e-08
1.11242e-09
3.7582e-08
1.10493e-09
3.74758e-08
1.09754e-09
3.73684e-08
1.09025e-09
3.72597e-08
1.08305e-09
3.715e-08
1.07595e-09
3.70391e-08
1.06894e-09
3.69271e-08
1.06204e-09
3.68141e-08
1.05523e-09
3.67e-08
1.04852e-09
3.6585e-08
1.04193e-09
3.6469e-08
1.03544e-09
3.63521e-08
1.02907e-09
3.62343e-08
1.02282e-09
3.61156e-08
1.01671e-09
3.5996e-08
1.01074e-09
3.58757e-08
1.00492e-09
3.57545e-08
9.99275e-10
3.56325e-08
9.93827e-10
3.55098e-08
9.88611e-10
3.53863e-08
9.8368e-10
3.5262e-08
9.7912e-10
3.51371e-08
9.75085e-10
3.50116e-08
9.71854e-10
3.48858e-08
9.69908e-10
3.47609e-08
9.69812e-10
3.46406e-08
9.70508e-10
9.56251e-10
4.01155e-08
2.12224e-09
-4.00328e-08
4.02219e-08
2.32367e-09
4.03427e-08
2.4907e-09
4.04699e-08
2.61883e-09
4.05977e-08
2.70906e-09
4.07221e-08
2.76419e-09
4.08395e-08
2.78745e-09
4.09476e-08
2.78265e-09
4.10445e-08
2.75431e-09
4.11294e-08
2.70734e-09
4.12022e-08
2.64655e-09
4.12633e-08
2.57648e-09
4.13135e-08
2.50109e-09
4.13541e-08
2.42375e-09
4.13861e-08
2.34705e-09
4.14111e-08
2.27291e-09
4.143e-08
2.2026e-09
4.14441e-08
2.13684e-09
4.14542e-08
2.07593e-09
4.14611e-08
2.01988e-09
4.14654e-08
1.96848e-09
4.14675e-08
1.9214e-09
4.14677e-08
1.87827e-09
4.14663e-08
1.83869e-09
4.14635e-08
1.80228e-09
4.14593e-08
1.76868e-09
4.14538e-08
1.73759e-09
4.14472e-08
1.70871e-09
4.14392e-08
1.68182e-09
4.14301e-08
1.65669e-09
4.14198e-08
1.63316e-09
4.14082e-08
1.61106e-09
4.13954e-08
1.59026e-09
4.13814e-08
1.57064e-09
4.1366e-08
1.55209e-09
4.13493e-08
1.53453e-09
4.13313e-08
1.51786e-09
4.13119e-08
1.50202e-09
4.12912e-08
1.48695e-09
4.1269e-08
1.47257e-09
4.12454e-08
1.45883e-09
4.12203e-08
1.44569e-09
4.11937e-08
1.43309e-09
4.11657e-08
1.42101e-09
4.11361e-08
1.40939e-09
4.11049e-08
1.39821e-09
4.10723e-08
1.38743e-09
4.1038e-08
1.37702e-09
4.10021e-08
1.36697e-09
4.09647e-08
1.35723e-09
4.09256e-08
1.3478e-09
4.08849e-08
1.33864e-09
4.08426e-08
1.32974e-09
4.07986e-08
1.32109e-09
4.0753e-08
1.31266e-09
4.07057e-08
1.30444e-09
4.06568e-08
1.29641e-09
4.06063e-08
1.28857e-09
4.05541e-08
1.28091e-09
4.05002e-08
1.2734e-09
4.04447e-08
1.26604e-09
4.03876e-08
1.25882e-09
4.03289e-08
1.25174e-09
4.02685e-08
1.24478e-09
4.02066e-08
1.23794e-09
4.0143e-08
1.23121e-09
4.00778e-08
1.22459e-09
4.00111e-08
1.21807e-09
3.99428e-08
1.21164e-09
3.9873e-08
1.2053e-09
3.98016e-08
1.19905e-09
3.97287e-08
1.19289e-09
3.96543e-08
1.1868e-09
3.95785e-08
1.1808e-09
3.95011e-08
1.17488e-09
3.94224e-08
1.16903e-09
3.93422e-08
1.16326e-09
3.92605e-08
1.15756e-09
3.91775e-08
1.15195e-09
3.90932e-08
1.14641e-09
3.90074e-08
1.14095e-09
3.89204e-08
1.13558e-09
3.8832e-08
1.1303e-09
3.87423e-08
1.1251e-09
3.86514e-08
1.12001e-09
3.85592e-08
1.11502e-09
3.84658e-08
1.11014e-09
3.83711e-08
1.10539e-09
3.82753e-08
1.10078e-09
3.81782e-08
1.09632e-09
3.808e-08
1.09205e-09
3.79806e-08
1.088e-09
3.78801e-08
1.08421e-09
3.77784e-08
1.08077e-09
3.76757e-08
1.0778e-09
3.75721e-08
1.07549e-09
3.74679e-08
1.07406e-09
3.73644e-08
1.07336e-09
3.72642e-08
1.07073e-09
1.04955e-09
4.08959e-08
2.04679e-09
-4.08205e-08
4.09919e-08
2.22767e-09
4.11015e-08
2.38114e-09
4.1218e-08
2.50236e-09
4.13362e-08
2.59083e-09
4.14522e-08
2.64817e-09
4.15628e-08
2.67681e-09
4.16656e-08
2.67986e-09
4.17589e-08
2.66107e-09
4.18416e-08
2.62457e-09
4.19136e-08
2.57457e-09
4.19751e-08
2.51503e-09
4.20266e-08
2.44953e-09
4.20692e-08
2.38115e-09
4.21039e-08
2.31233e-09
4.21319e-08
2.24495e-09
4.21542e-08
2.1803e-09
4.21718e-08
2.11921e-09
4.21857e-08
2.0621e-09
4.21964e-08
2.00912e-09
4.22047e-08
1.9602e-09
4.2211e-08
1.91514e-09
4.22156e-08
1.87366e-09
4.22188e-08
1.83546e-09
4.22209e-08
1.80023e-09
4.22219e-08
1.76767e-09
4.2222e-08
1.7375e-09
4.22212e-08
1.70948e-09
4.22196e-08
1.6834e-09
4.22173e-08
1.65905e-09
4.22141e-08
1.63628e-09
4.22103e-08
1.61493e-09
4.22056e-08
1.59488e-09
4.22002e-08
1.57602e-09
4.21941e-08
1.55825e-09
4.21872e-08
1.54146e-09
4.21794e-08
1.5256e-09
4.21709e-08
1.51058e-09
4.21615e-08
1.49634e-09
4.21512e-08
1.48282e-09
4.21401e-08
1.46996e-09
4.2128e-08
1.45773e-09
4.21151e-08
1.44606e-09
4.21011e-08
1.43493e-09
4.20862e-08
1.4243e-09
4.20703e-08
1.41412e-09
4.20534e-08
1.40437e-09
4.20354e-08
1.39501e-09
4.20163e-08
1.38603e-09
4.19962e-08
1.3774e-09
4.19749e-08
1.36908e-09
4.19525e-08
1.36107e-09
4.19289e-08
1.35334e-09
4.19041e-08
1.34587e-09
4.18781e-08
1.33864e-09
4.18509e-08
1.33165e-09
4.18224e-08
1.32487e-09
4.17927e-08
1.31828e-09
4.17617e-08
1.31189e-09
4.17295e-08
1.30567e-09
4.16959e-08
1.29961e-09
4.1661e-08
1.29371e-09
4.16248e-08
1.28795e-09
4.15873e-08
1.28233e-09
4.15484e-08
1.27683e-09
4.15081e-08
1.27146e-09
4.14665e-08
1.26619e-09
4.14235e-08
1.26104e-09
4.13792e-08
1.25598e-09
4.13335e-08
1.25102e-09
4.12864e-08
1.24616e-09
4.12379e-08
1.24137e-09
4.1188e-08
1.23668e-09
4.11367e-08
1.23206e-09
4.10841e-08
1.22752e-09
4.10301e-08
1.22306e-09
4.09746e-08
1.21867e-09
4.09178e-08
1.21436e-09
4.08597e-08
1.21013e-09
4.08001e-08
1.20597e-09
4.07392e-08
1.20188e-09
4.06769e-08
1.19788e-09
4.06132e-08
1.19396e-09
4.05482e-08
1.19012e-09
4.04818e-08
1.18638e-09
4.04141e-08
1.18274e-09
4.0345e-08
1.17921e-09
4.02746e-08
1.1758e-09
4.02029e-08
1.17253e-09
4.01298e-08
1.16941e-09
4.00554e-08
1.16646e-09
3.99796e-08
1.16373e-09
3.99026e-08
1.16125e-09
3.98243e-08
1.1591e-09
3.97447e-08
1.15735e-09
3.96641e-08
1.15611e-09
3.95828e-08
1.15538e-09
3.95017e-08
1.15445e-09
3.94225e-08
1.1499e-09
1.12639e-09
4.16856e-08
1.97731e-09
-4.16161e-08
4.17728e-08
2.1404e-09
4.18726e-08
2.28133e-09
4.19795e-08
2.39546e-09
4.20889e-08
2.48143e-09
4.21972e-08
2.53993e-09
4.23013e-08
2.57271e-09
4.23989e-08
2.58225e-09
4.24884e-08
2.57161e-09
4.25687e-08
2.54427e-09
4.26394e-08
2.50384e-09
4.27006e-08
2.45381e-09
4.27528e-08
2.39737e-09
4.27966e-08
2.3373e-09
4.28331e-08
2.2759e-09
4.2863e-08
2.21496e-09
4.28876e-08
2.15579e-09
4.29075e-08
2.09927e-09
4.29237e-08
2.04593e-09
4.29368e-08
1.99603e-09
4.29474e-08
1.9496e-09
4.29559e-08
1.90656e-09
4.29629e-08
1.86673e-09
4.29685e-08
1.82988e-09
4.29729e-08
1.79577e-09
4.29764e-08
1.76416e-09
4.29791e-08
1.73481e-09
4.29811e-08
1.70751e-09
4.29824e-08
1.68207e-09
4.29831e-08
1.65832e-09
4.29833e-08
1.6361e-09
4.2983e-08
1.61528e-09
4.29821e-08
1.59573e-09
4.29808e-08
1.57736e-09
4.2979e-08
1.56007e-09
4.29767e-08
1.54377e-09
4.29739e-08
1.52839e-09
4.29706e-08
1.51386e-09
4.29668e-08
1.50012e-09
4.29625e-08
1.4871e-09
4.29577e-08
1.47477e-09
4.29524e-08
1.46306e-09
4.29465e-08
1.45195e-09
4.294e-08
1.44138e-09
4.2933e-08
1.43132e-09
4.29254e-08
1.42175e-09
4.29171e-08
1.41262e-09
4.29082e-08
1.4039e-09
4.28987e-08
1.39558e-09
4.28885e-08
1.38763e-09
4.28775e-08
1.38002e-09
4.28659e-08
1.37273e-09
4.28535e-08
1.36574e-09
4.28403e-08
1.35904e-09
4.28263e-08
1.3526e-09
4.28116e-08
1.34642e-09
4.2796e-08
1.34047e-09
4.27795e-08
1.33474e-09
4.27622e-08
1.32922e-09
4.2744e-08
1.32389e-09
4.27248e-08
1.31875e-09
4.27047e-08
1.31378e-09
4.26837e-08
1.30897e-09
4.26617e-08
1.30432e-09
4.26388e-08
1.29982e-09
4.26148e-08
1.29545e-09
4.25897e-08
1.29121e-09
4.25637e-08
1.28709e-09
4.25366e-08
1.2831e-09
4.25084e-08
1.27921e-09
4.24791e-08
1.27543e-09
4.24488e-08
1.27175e-09
4.24173e-08
1.26816e-09
4.23847e-08
1.26468e-09
4.23509e-08
1.26128e-09
4.2316e-08
1.25797e-09
4.22799e-08
1.25474e-09
4.22427e-08
1.25161e-09
4.22042e-08
1.24856e-09
4.21646e-08
1.24559e-09
4.21238e-08
1.24271e-09
4.20818e-08
1.23992e-09
4.20385e-08
1.23722e-09
4.1994e-08
1.23461e-09
4.19483e-08
1.23211e-09
4.19013e-08
1.22971e-09
4.18531e-08
1.22744e-09
4.18036e-08
1.22529e-09
4.17529e-08
1.22328e-09
4.17008e-08
1.22143e-09
4.16475e-08
1.21976e-09
4.1593e-08
1.21831e-09
4.15371e-08
1.21711e-09
4.148e-08
1.21621e-09
4.14217e-08
1.21566e-09
4.13623e-08
1.21549e-09
4.13022e-08
1.21549e-09
4.1242e-08
1.21468e-09
4.11824e-08
1.2095e-09
1.18723e-09
4.24851e-08
1.91286e-09
-4.24206e-08
4.2565e-08
2.06051e-09
4.26563e-08
2.19e-09
4.27546e-08
2.29713e-09
4.2856e-08
2.38009e-09
4.2957e-08
2.43893e-09
4.30549e-08
2.47481e-09
4.31475e-08
2.48964e-09
4.32332e-08
2.48592e-09
4.33109e-08
2.46656e-09
4.33801e-08
2.43463e-09
4.34407e-08
2.39316e-09
4.34931e-08
2.34499e-09
4.35378e-08
2.29262e-09
4.35755e-08
2.2382e-09
4.3607e-08
2.18341e-09
4.36333e-08
2.12954e-09
4.3655e-08
2.07753e-09
4.3673e-08
2.02795e-09
4.36879e-08
1.98116e-09
4.37002e-08
1.93729e-09
4.37104e-08
1.89634e-09
4.37189e-08
1.85823e-09
4.3726e-08
1.82279e-09
4.37319e-08