/*--------------------------------*- C++ -*----------------------------------*\
| =========                 |                                                 |
| \\      /  F ield         | OpenFOAM: The Open Source CFD Toolbox           |
|  \\    /   O peration     | Version:  2.3.0                                 |
|   \\  /    A nd           | Web:      www.OpenFOAM.org                      |
|    \\/     M anipulation  |                                                 |
\*---------------------------------------------------------------------------*/
FoamFile
{
    version     2.0;
    format      ascii;
    class       volVectorField;
    location    "0.55";
    object      U;
}
// * * * * * * * * * * * * * * * * * * * * * * * * * * * * * * * * * * * * * //

dimensions      [0 1 -1 0 0 0 0];

internalField   nonuniform List<vector> 
2945
(
(0.160871 0.00624083 0)
(0.121928 0.00658642 0)
(0.0902696 0.00468573 0)
(0.067105 0.00259317 0)
(0.052452 0.00111106 0)
(0.0437307 0.000363213 0)
(0.0384543 9.75667e-05 0)
(0.0350936 4.28608e-05 0)
(0.032724 5.57659e-05 0)
(0.0308434 7.56088e-05 0)
(0.0292285 8.42972e-05 0)
(0.0278002 8.24235e-05 0)
(0.0265312 7.53235e-05 0)
(0.025403 6.72055e-05 0)
(0.0243967 5.99166e-05 0)
(0.0234931 5.38044e-05 0)
(0.0226757 4.8691e-05 0)
(0.0219308 4.43347e-05 0)
(0.0212479 4.05548e-05 0)
(0.0206186 3.723e-05 0)
(0.0200364 3.42808e-05 0)
(0.0194958 3.16405e-05 0)
(0.0189922 2.92743e-05 0)
(0.0185219 2.71419e-05 0)
(0.0180816 2.5223e-05 0)
(0.0176682 2.34911e-05 0)
(0.0172793 2.19256e-05 0)
(0.0169126 2.0508e-05 0)
(0.0165663 1.921e-05 0)
(0.0162386 1.80259e-05 0)
(0.0159281 1.69299e-05 0)
(0.0156335 1.59266e-05 0)
(0.0153537 1.49878e-05 0)
(0.0150875 1.41396e-05 0)
(0.0148341 1.33323e-05 0)
(0.0145926 1.26012e-05 0)
(0.0143622 1.19043e-05 0)
(0.0141423 1.12652e-05 0)
(0.0139322 1.06605e-05 0)
(0.0137314 1.01085e-05 0)
(0.0135392 9.58379e-06 0)
(0.0133553 9.09484e-06 0)
(0.0131791 8.62626e-06 0)
(0.0130107 8.1838e-06 0)
(0.012849 7.77275e-06 0)
(0.0126946 7.3731e-06 0)
(0.0125462 6.99485e-06 0)
(0.0124046 6.65147e-06 0)
(0.0122682 6.33361e-06 0)
(0.0121386 5.98075e-06 0)
(0.0120135 5.69624e-06 0)
(0.0118952 5.38234e-06 0)
(0.0117806 5.12631e-06 0)
(0.0116731 4.80814e-06 0)
(0.0115683 4.60249e-06 0)
(0.011471 4.33817e-06 0)
(0.0113751 4.13954e-06 0)
(0.0112877 3.84488e-06 0)
(0.0112009 3.64677e-06 0)
(0.0111238 3.36851e-06 0)
(0.0110452 3.26081e-06 0)
(0.0109772 3.00262e-06 0)
(0.0109059 2.90236e-06 0)
(0.0108473 2.60363e-06 0)
(0.0107836 2.50299e-06 0)
(0.0107344 2.26329e-06 0)
(0.0106768 2.22743e-06 0)
(0.010636 1.99475e-06 0)
(0.0105837 1.98439e-06 0)
(0.0105514 1.69352e-06 0)
(0.010504 1.75194e-06 0)
(0.0104793 1.46733e-06 0)
(0.0104344 1.6673e-06 0)
(0.0104165 1.30691e-06 0)
(0.0103686 1.72822e-06 0)
(0.19031 0.0112393 0)
(0.182788 0.0137186 0)
(0.171675 0.012178 0)
(0.157829 0.00926893 0)
(0.143411 0.00631774 0)
(0.129952 0.0040398 0)
(0.118228 0.00257116 0)
(0.108555 0.00172553 0)
(0.100771 0.0012634 0)
(0.094467 0.00100551 0)
(0.0892318 0.000846089 0)
(0.0847644 0.000731942 0)
(0.0808732 0.000640554 0)
(0.0774367 0.000564252 0)
(0.0743715 0.000500379 0)
(0.0716151 0.000447068 0)
(0.0691186 0.000402385 0)
(0.0668427 0.000364525 0)
(0.0647564 0.000332028 0)
(0.0628343 0.000303798 0)
(0.0610561 0.000279039 0)
(0.0594048 0.000257132 0)
(0.0578662 0.000237651 0)
(0.0564286 0.000220226 0)
(0.0550816 0.000204596 0)
(0.0538164 0.000190516 0)
(0.0526255 0.000177788 0)
(0.0515021 0.000166246 0)
(0.0504404 0.000155709 0)
(0.0494356 0.000146084 0)
(0.048483 0.000137222 0)
(0.0475788 0.000129089 0)
(0.0467193 0.000121543 0)
(0.0459015 0.00011463 0)
(0.0451223 0.00010815 0)
(0.0443795 0.000102195 0)
(0.0436705 9.65899e-05 0)
(0.0429935 9.14051e-05 0)
(0.0423462 8.65216e-05 0)
(0.0417275 8.20012e-05 0)
(0.041135 7.77202e-05 0)
(0.0405682 7.37191e-05 0)
(0.0400249 6.99059e-05 0)
(0.0395053 6.63197e-05 0)
(0.0390065 6.29283e-05 0)
(0.03853 5.9699e-05 0)
(0.0380719 5.66176e-05 0)
(0.037635 5.37522e-05 0)
(0.0372141 5.10163e-05 0)
(0.0368143 4.82775e-05 0)
(0.0364282 4.57951e-05 0)
(0.0360634 4.33075e-05 0)
(0.0357097 4.10287e-05 0)
(0.0353785 3.86455e-05 0)
(0.0350552 3.66301e-05 0)
(0.034756 3.44973e-05 0)
(0.0344613 3.25742e-05 0)
(0.0341936 3.04352e-05 0)
(0.0339269 2.8602e-05 0)
(0.0336905 2.66088e-05 0)
(0.0334495 2.51251e-05 0)
(0.0332429 2.32549e-05 0)
(0.033026 2.18537e-05 0)
(0.0328496 1.9932e-05 0)
(0.032656 1.86178e-05 0)
(0.0325092 1.69657e-05 0)
(0.0323363 1.59186e-05 0)
(0.0322176 1.43616e-05 0)
(0.0320633 1.34772e-05 0)
(0.0319723 1.18524e-05 0)
(0.0318342 1.13305e-05 0)
(0.0317686 9.89169e-06 0)
(0.0316401 9.94314e-06 0)
(0.0315985 8.61446e-06 0)
(0.0314654 9.17333e-06 0)
(0.191282 0.0103331 0)
(0.192722 0.0140707 0)
(0.193366 0.0139465 0)
(0.191019 0.0119308 0)
(0.18576 0.00949199 0)
(0.178666 0.00739759 0)
(0.170809 0.00582348 0)
(0.162986 0.00467696 0)
(0.155602 0.00382725 0)
(0.148785 0.00318517 0)
(0.142526 0.00269467 0)
(0.136783 0.00231432 0)
(0.131511 0.00201275 0)
(0.126672 0.00176828 0)
(0.122229 0.00156695 0)
(0.118142 0.0013994 0)
(0.114375 0.0012587 0)
(0.110893 0.00113935 0)
(0.107664 0.00103702 0)
(0.10466 0.000948365 0)
(0.10186 0.000870863 0)
(0.0992408 0.00080253 0)
(0.096786 0.000741909 0)
(0.0944795 0.000687795 0)
(0.0923078 0.00063928 0)
(0.0902592 0.000595585 0)
(0.0883228 0.000556067 0)
(0.0864898 0.000520197 0)
(0.0847518 0.000487457 0)
(0.0831019 0.000457529 0)
(0.0815333 0.000430003 0)
(0.0800408 0.000404709 0)
(0.0786184 0.000381283 0)
(0.0772622 0.000359733 0)
(0.0759672 0.000339609 0)
(0.0747302 0.000321027 0)
(0.0735472 0.00030359 0)
(0.0724157 0.000287412 0)
(0.071332 0.000272189 0)
(0.0702945 0.000258036 0)
(0.0692994 0.000244642 0)
(0.0683466 0.00023211 0)
(0.0674314 0.00022018 0)
(0.0665555 0.000208971 0)
(0.0657129 0.000198309 0)
(0.0649078 0.00018822 0)
(0.0641319 0.000178559 0)
(0.0633921 0.000169523 0)
(0.0626776 0.00016081 0)
(0.0619992 0.00015235 0)
(0.061342 0.000144405 0)
(0.0607219 0.000136673 0)
(0.0601184 0.000129331 0)
(0.0595543 0.000122049 0)
(0.0590014 0.000115391 0)
(0.058491 0.000108739 0)
(0.057986 0.000102399 0)
(0.0575288 9.5938e-05 0)
(0.0570701 8.99327e-05 0)
(0.0566655 8.39314e-05 0)
(0.0562501 7.8672e-05 0)
(0.0558967 7.30341e-05 0)
(0.055522 6.80388e-05 0)
(0.0552202 6.24828e-05 0)
(0.0548847 5.78061e-05 0)
(0.0546338 5.29044e-05 0)
(0.0543339 4.88247e-05 0)
(0.0541323 4.42596e-05 0)
(0.0538648 4.0633e-05 0)
(0.0537116 3.62087e-05 0)
(0.0534719 3.34813e-05 0)
(0.0533646 2.97769e-05 0)
(0.0531422 2.82331e-05 0)
(0.05308 2.55378e-05 0)
(0.052853 2.46638e-05 0)
(0.191882 0.00900731 0)
(0.193597 0.0125727 0)
(0.196727 0.0132355 0)
(0.198866 0.012015 0)
(0.19888 0.0102247 0)
(0.196959 0.00860694 0)
(0.193767 0.00735222 0)
(0.189917 0.0063831 0)
(0.185777 0.00559837 0)
(0.181512 0.00494345 0)
(0.177192 0.00439304 0)
(0.172862 0.00392811 0)
(0.168566 0.00353079 0)
(0.164346 0.00318684 0)
(0.160238 0.0028867 0)
(0.156263 0.00262396 0)
(0.152434 0.00239358 0)
(0.14876 0.00219102 0)
(0.14524 0.00201223 0)
(0.141876 0.00185371 0)
(0.138664 0.00171257 0)
(0.135599 0.00158636 0)
(0.132675 0.00147312 0)
(0.129886 0.00137111 0)
(0.127224 0.00127892 0)
(0.124683 0.00119529 0)
(0.122256 0.00111917 0)
(0.119936 0.00104966 0)
(0.117717 0.000985915 0)
(0.115594 0.000927375 0)
(0.113561 0.000873336 0)
(0.111614 0.000823497 0)
(0.109747 0.000777218 0)
(0.107958 0.000734468 0)
(0.106241 0.000694493 0)
(0.104593 0.000657435 0)
(0.103009 0.00062261 0)
(0.101489 0.0005902 0)
(0.100027 0.000559645 0)
(0.0986224 0.000531152 0)
(0.0972699 0.000504138 0)
(0.0959717 0.000478826 0)
(0.0947199 0.000454694 0)
(0.0935195 0.000432014 0)
(0.0923601 0.000410339 0)
(0.0912507 0.000389881 0)
(0.0901771 0.000370213 0)
(0.0891526 0.00035179 0)
(0.0881587 0.000333915 0)
(0.087215 0.000316775 0)
(0.0862959 0.0003004 0)
(0.0854293 0.000284675 0)
(0.0845809 0.000269468 0)
(0.0837893 0.000254739 0)
(0.0830078 0.000240785 0)
(0.0822888 0.000227236 0)
(0.081571 0.000213939 0)
(0.0809241 0.000200926 0)
(0.0802678 0.000188301 0)
(0.0796928 0.000176206 0)
(0.0790947 0.000164822 0)
(0.0785904 0.000153474 0)
(0.0780471 0.000142602 0)
(0.0776145 0.000131595 0)
(0.077124 0.000121344 0)
(0.0767626 0.000111522 0)
(0.0763207 0.000102291 0)
(0.0760292 9.32003e-05 0)
(0.0756315 8.48072e-05 0)
(0.0754097 7.62755e-05 0)
(0.0750495 6.94028e-05 0)
(0.0748957 6.25044e-05 0)
(0.0745584 5.74189e-05 0)
(0.0744742 5.30595e-05 0)
(0.0741318 4.89426e-05 0)
(0.192846 0.0082251 0)
(0.194054 0.011222 0)
(0.196845 0.0122192 0)
(0.199705 0.0114795 0)
(0.201392 0.0100844 0)
(0.201688 0.00876761 0)
(0.200956 0.00775108 0)
(0.199632 0.00697539 0)
(0.19798 0.00634234 0)
(0.196099 0.0057991 0)
(0.19401 0.00532651 0)
(0.191725 0.00491328 0)
(0.189268 0.00454703 0)
(0.186674 0.00421713 0)
(0.183981 0.00391687 0)
(0.181218 0.00364269 0)
(0.178413 0.0033923 0)
(0.175586 0.00316347 0)
(0.172756 0.00295388 0)
(0.169938 0.00276144 0)
(0.167148 0.0025844 0)
(0.164396 0.00242137 0)
(0.161692 0.00227124 0)
(0.159045 0.00213296 0)
(0.156458 0.00200553 0)
(0.153935 0.00188796 0)
(0.151476 0.00177923 0)
(0.149084 0.00167854 0)
(0.146759 0.00158495 0)
(0.144502 0.00149802 0)
(0.14231 0.00141692 0)
(0.140187 0.00134143 0)
(0.138127 0.00127075 0)
(0.136133 0.00120496 0)
(0.1342 0.00114304 0)
(0.132329 0.00108528 0)
(0.130516 0.00103068 0)
(0.128764 0.0009796 0)
(0.127064 0.000931175 0)
(0.125423 0.000885814 0)
(0.12383 0.000842591 0)
(0.122294 0.000801966 0)
(0.120803 0.000763057 0)
(0.119368 0.000726441 0)
(0.117972 0.000691223 0)
(0.116633 0.000657991 0)
(0.115328 0.00062586 0)
(0.114081 0.000595751 0)
(0.112861 0.000566307 0)
(0.111703 0.000538283 0)
(0.110566 0.000511152 0)
(0.109494 0.000485319 0)
(0.108435 0.000459958 0)
(0.10745 0.000435766 0)
(0.106466 0.000412286 0)
(0.105565 0.000389924 0)
(0.104653 0.00036748 0)
(0.103837 0.000346083 0)
(0.102995 0.000324666 0)
(0.102264 0.00030473 0)
(0.10149 0.000285089 0)
(0.100845 0.000266392 0)
(0.100133 0.000247523 0)
(0.0995756 0.000229505 0)
(0.0989257 0.000211571 0)
(0.0984561 0.000195385 0)
(0.097863 0.000178932 0)
(0.0974811 0.000164018 0)
(0.0969392 0.000148779 0)
(0.0966464 0.000135056 0)
(0.096147 0.000121885 0)
(0.0959446 0.000111104 0)
(0.0954693 0.000100205 0)
(0.0953616 9.39402e-05 0)
(0.0948786 8.45763e-05 0)
(0.193638 0.007775 0)
(0.194623 0.0102105 0)
(0.196841 0.0113479 0)
(0.19943 0.0109457 0)
(0.201357 0.00981206 0)
(0.202288 0.00865915 0)
(0.202433 0.00776224 0)
(0.202149 0.00709505 0)
(0.201664 0.00656239 0)
(0.201051 0.00610592 0)
(0.200303 0.00570576 0)
(0.1994 0.00535427 0)
(0.198335 0.0050421 0)
(0.197119 0.00475932 0)
(0.195766 0.00449886 0)
(0.194293 0.00425703 0)
(0.192712 0.00403196 0)
(0.191035 0.00382207 0)
(0.189272 0.00362553 0)
(0.187437 0.00344064 0)
(0.185539 0.00326596 0)
(0.183594 0.00310062 0)
(0.181612 0.00294419 0)
(0.179606 0.0027965 0)
(0.177584 0.00265728 0)
(0.175557 0.00252624 0)
(0.173528 0.00240269 0)
(0.171506 0.00228618 0)
(0.169493 0.00217585 0)
(0.167498 0.00207161 0)
(0.16552 0.00197271 0)
(0.16357 0.00187933 0)
(0.161645 0.00179066 0)
(0.159754 0.00170713 0)
(0.157891 0.00162757 0)
(0.156066 0.00155264 0)
(0.154273 0.00148107 0)
(0.15252 0.0014136 0)
(0.150799 0.00134899 0)
(0.149123 0.00128806 0)
(0.147476 0.00122944 0)
(0.145878 0.00117406 0)
(0.144308 0.00112055 0)
(0.142789 0.00107007 0)
(0.141295 0.00102106 0)
(0.139857 0.000974745 0)
(0.138439 0.000929555 0)
(0.137081 0.000887208 0)
(0.135738 0.000845328 0)
(0.134462 0.000805673 0)
(0.133192 0.000766752 0)
(0.131999 0.00072995 0)
(0.130802 0.000693222 0)
(0.129693 0.000658602 0)
(0.128566 0.000624261 0)
(0.127543 0.000592072 0)
(0.126486 0.000559061 0)
(0.125551 0.000528245 0)
(0.124563 0.000496512 0)
(0.123717 0.000467675 0)
(0.122796 0.000438181 0)
(0.122043 0.000411099 0)
(0.121186 0.000382568 0)
(0.120529 0.000356514 0)
(0.119733 0.000329153 0)
(0.119174 0.000305643 0)
(0.118436 0.000280158 0)
(0.117977 0.000258592 0)
(0.117291 0.00023456 0)
(0.116936 0.00021503 0)
(0.11629 0.000193385 0)
(0.116044 0.000178429 0)
(0.115418 0.000159375 0)
(0.115289 0.00015111 0)
(0.114649 0.000134434 0)
(0.194288 0.00746364 0)
(0.19516 0.00941993 0)
(0.196949 0.0105645 0)
(0.19916 0.0104265 0)
(0.200983 0.00952426 0)
(0.202041 0.00849951 0)
(0.202443 0.00767419 0)
(0.202488 0.00706582 0)
(0.202402 0.00658972 0)
(0.20227 0.00618339 0)
(0.202086 0.00582488 0)
(0.201826 0.00550976 0)
(0.201471 0.00523242 0)
(0.20102 0.00498434 0)
(0.200477 0.00475784 0)
(0.199846 0.00454836 0)
(0.199128 0.00435356 0)
(0.198328 0.00417188 0)
(0.197442 0.00400132 0)
(0.196477 0.00383997 0)
(0.195431 0.00368586 0)
(0.194314 0.00353779 0)
(0.193128 0.00339512 0)
(0.191885 0.00325795 0)
(0.190587 0.00312634 0)
(0.189247 0.0030006 0)
(0.187863 0.00288031 0)
(0.186446 0.00276531 0)
(0.184994 0.00265457 0)
(0.18352 0.00254826 0)
(0.182019 0.00244554 0)
(0.180509 0.00234704 0)
(0.178981 0.00225194 0)
(0.177454 0.0021612 0)
(0.175917 0.00207339 0)
(0.174389 0.00198978 0)
(0.172857 0.00190876 0)
(0.171341 0.00183173 0)
(0.169824 0.00175701 0)
(0.168331 0.00168601 0)
(0.166838 0.00161673 0)
(0.165377 0.00155084 0)
(0.163916 0.00148626 0)
(0.162495 0.00142516 0)
(0.161074 0.00136504 0)
(0.159701 0.00130816 0)
(0.158323 0.00125188 0)
(0.157002 0.00119919 0)
(0.155671 0.0011462 0)
(0.154409 0.00109626 0)
(0.153128 0.00104641 0)
(0.151931 0.000999646 0)
(0.150701 0.000952038 0)
(0.149572 0.000907665 0)
(0.148396 0.000862571 0)
(0.14734 0.000820917 0)
(0.146219 0.000777149 0)
(0.145244 0.000737134 0)
(0.144179 0.000694715 0)
(0.143287 0.000657055 0)
(0.142277 0.000617067 0)
(0.141473 0.000581519 0)
(0.140517 0.000542485 0)
(0.139809 0.000508278 0)
(0.138907 0.000470494 0)
(0.138298 0.000439527 0)
(0.137445 0.000403771 0)
(0.136939 0.000375477 0)
(0.136129 0.000341145 0)
(0.135737 0.000315914 0)
(0.134958 0.000284003 0)
(0.134685 0.000265096 0)
(0.133916 0.000235947 0)
(0.133774 0.000225768 0)
(0.132984 0.000200054 0)
(0.194854 0.00720092 0)
(0.195643 0.00877982 0)
(0.197115 0.00984285 0)
(0.198986 0.0098971 0)
(0.200646 0.00921313 0)
(0.201713 0.00831934 0)
(0.202206 0.00755759 0)
(0.20236 0.00699094 0)
(0.202391 0.00655294 0)
(0.202401 0.00617976 0)
(0.202399 0.00584636 0)
(0.202367 0.00555027 0)
(0.202287 0.00529 0)
(0.202157 0.0050597 0)
(0.201977 0.004852 0)
(0.201751 0.00466184 0)
(0.201478 0.00448645 0)
(0.201159 0.00432443 0)
(0.200786 0.00417375 0)
(0.200363 0.00403251 0)
(0.19988 0.00389817 0)
(0.199344 0.00376904 0)
(0.198747 0.00364379 0)
(0.1981 0.00352243 0)
(0.197398 0.00340484 0)
(0.196653 0.00329178 0)
(0.195856 0.00318297 0)
(0.19502 0.00307855 0)
(0.194134 0.00297709 0)
(0.193213 0.00287885 0)
(0.192244 0.0027825 0)
(0.191249 0.00268902 0)
(0.190213 0.00259739 0)
(0.189159 0.00250918 0)
(0.188068 0.00242244 0)
(0.186967 0.00233912 0)
(0.185834 0.00225706 0)
(0.1847 0.00217854 0)
(0.183536 0.00210126 0)
(0.18238 0.00202756 0)
(0.181194 0.0019544 0)
(0.180025 0.00188445 0)
(0.178827 0.00181453 0)
(0.177657 0.00174823 0)
(0.176457 0.00168183 0)
(0.175298 0.00161908 0)
(0.174104 0.00155586 0)
(0.172962 0.00149692 0)
(0.171778 0.00143621 0)
(0.170664 0.0013793 0)
(0.169497 0.00132123 0)
(0.16842 0.00126735 0)
(0.167277 0.00121113 0)
(0.166244 0.00115951 0)
(0.165125 0.00110552 0)
(0.164142 0.00105635 0)
(0.163053 0.001003 0)
(0.162133 0.000955343 0)
(0.16108 0.000903272 0)
(0.160227 0.000858348 0)
(0.159207 0.000808556 0)
(0.158427 0.000765616 0)
(0.157442 0.000716259 0)
(0.156749 0.000674845 0)
(0.155802 0.00062674 0)
(0.155199 0.000589288 0)
(0.154283 0.000542953 0)
(0.153777 0.000508725 0)
(0.152889 0.000463352 0)
(0.152496 0.000433274 0)
(0.151624 0.000390226 0)
(0.15135 0.000368105 0)
(0.150475 0.000327924 0)
(0.150332 0.000316051 0)
(0.149429 0.000280375 0)
(0.195358 0.00695331 0)
(0.196075 0.00824992 0)
(0.197309 0.00919392 0)
(0.198891 0.00937365 0)
(0.200378 0.00888524 0)
(0.201419 0.00812823 0)
(0.201962 0.00743299 0)
(0.202176 0.00690232 0)
(0.202252 0.00649458 0)
(0.202303 0.00614864 0)
(0.202351 0.00583549 0)
(0.202388 0.00555251 0)
(0.202395 0.00530134 0)
(0.202374 0.00507944 0)
(0.202323 0.00488063 0)
(0.202253 0.00469984 0)
(0.202158 0.00453392 0)
(0.202045 0.00438186 0)
(0.201905 0.00424169 0)
(0.201743 0.00411194 0)
(0.201546 0.00398985 0)
(0.201322 0.00387349 0)
(0.201058 0.0037608 0)
(0.200768 0.00365172 0)
(0.200435 0.00354565 0)
(0.200078 0.0034437 0)
(0.199679 0.00334567 0)
(0.199256 0.0032522 0)
(0.198787 0.00316136 0)
(0.198294 0.00307359 0)
(0.197752 0.00298681 0)
(0.197189 0.00290218 0)
(0.196578 0.00281823 0)
(0.195952 0.00273733 0)
(0.195277 0.0026567 0)
(0.194592 0.00257908 0)
(0.19386 0.00250137 0)
(0.193125 0.0024269 0)
(0.192342 0.00235246 0)
(0.191565 0.00228181 0)
(0.190736 0.00221048 0)
(0.18992 0.00214226 0)
(0.18905 0.00207239 0)
(0.188207 0.0020063 0)
(0.187305 0.00193849 0)
(0.186445 0.00187483 0)
(0.18552 0.0018093 0)
(0.18465 0.00174897 0)
(0.183704 0.00168483 0)
(0.182832 0.00162524 0)
(0.181874 0.00156256 0)
(0.181013 0.00150533 0)
(0.180049 0.00144374 0)
(0.179208 0.00138847 0)
(0.178241 0.00132884 0)
(0.177422 0.0012755 0)
(0.176454 0.00121491 0)
(0.175674 0.00116196 0)
(0.174721 0.00110222 0)
(0.173992 0.00105285 0)
(0.173044 0.000995465 0)
(0.172362 0.000947394 0)
(0.171424 0.000888856 0)
(0.170812 0.000841904 0)
(0.169896 0.000784664 0)
(0.169359 0.000742811 0)
(0.168449 0.000686864 0)
(0.167993 0.000648324 0)
(0.16709 0.000592137 0)
(0.166735 0.000558499 0)
(0.165835 0.000504722 0)
(0.165588 0.00048049 0)
(0.164671 0.000429855 0)
(0.164539 0.00041666 0)
(0.163586 0.000371184 0)
(0.195809 0.00671283 0)
(0.196461 0.00780182 0)
(0.197514 0.00862439 0)
(0.198856 0.00887569 0)
(0.200173 0.00855148 0)
(0.201166 0.00793075 0)
(0.201741 0.00730698 0)
(0.202003 0.00681056 0)
(0.202111 0.00642819 0)
(0.20218 0.00610646 0)
(0.202244 0.00581286 0)
(0.202303 0.0055426 0)
(0.202338 0.00529876 0)
(0.202352 0.00508202 0)
(0.202342 0.00488795 0)
(0.202322 0.00471201 0)
(0.202285 0.00455054 0)
(0.202245 0.00440296 0)
(0.202189 0.00426727 0)
(0.202129 0.00414264 0)
(0.202048 0.00402636 0)
(0.201961 0.00391662 0)
(0.201848 0.00381064 0)
(0.201729 0.00370861 0)
(0.20158 0.00360929 0)
(0.201426 0.00351401 0)
(0.201242 0.00342262 0)
(0.201053 0.00333648 0)
(0.200828 0.00325311 0)
(0.200598 0.00317341 0)
(0.200326 0.00309452 0)
(0.200048 0.00301771 0)
(0.199727 0.00294081 0)
(0.199403 0.00286729 0)
(0.199032 0.00279327 0)
(0.198662 0.00272241 0)
(0.198241 0.00265046 0)
(0.197827 0.00258189 0)
(0.197358 0.00251209 0)
(0.196904 0.00244686 0)
(0.196388 0.00238003 0)
(0.195893 0.00231673 0)
(0.195329 0.00225 0)
(0.194798 0.00218757 0)
(0.194191 0.00212158 0)
(0.193633 0.00206039 0)
(0.19299 0.00199575 0)
(0.19241 0.00193788 0)
(0.191728 0.00187393 0)
(0.191129 0.00181539 0)
(0.190415 0.00175142 0)
(0.189809 0.00169431 0)
(0.18907 0.00163032 0)
(0.188467 0.00157459 0)
(0.187707 0.00151278 0)
(0.187105 0.00145928 0)
(0.186316 0.00139461 0)
(0.185727 0.00133882 0)
(0.184934 0.00127331 0)
(0.184384 0.00122247 0)
(0.183578 0.0011608 0)
(0.183047 0.00111089 0)
(0.182221 0.00104522 0)
(0.181739 0.000994458 0)
(0.18092 0.000929747 0)
(0.180498 0.000886127 0)
(0.179665 0.000822858 0)
(0.179298 0.000782337 0)
(0.178449 0.000716654 0)
(0.178163 0.00068063 0)
(0.177307 0.000617695 0)
(0.17711 0.000592471 0)
(0.176228 0.000533539 0)
(0.176118 0.000519724 0)
(0.175191 0.00046573 0)
(0.196214 0.00648134 0)
(0.196806 0.00741425 0)
(0.197715 0.00812937 0)
(0.198862 0.00841376 0)
(0.20002 0.00821914 0)
(0.200952 0.00772662 0)
(0.201541 0.00717848 0)
(0.201843 0.00671735 0)
(0.201981 0.00635725 0)
(0.202067 0.00605714 0)
(0.202139 0.00578291 0)
(0.202208 0.00552661 0)
(0.202255 0.00529088 0)
(0.202284 0.00507902 0)
(0.202289 0.00488863 0)
(0.202286 0.00471624 0)
(0.202267 0.00455759 0)
(0.20225 0.00441258 0)
(0.202218 0.00427889 0)
(0.202192 0.00415632 0)
(0.20215 0.00404233 0)
(0.202114 0.00393558 0)
(0.202057 0.00383254 0)
(0.202008 0.00373388 0)
(0.201934 0.0036378 0)
(0.201869 0.00354562 0)
(0.201779 0.00345719 0)
(0.2017 0.00337474 0)
(0.201592 0.00329513 0)
(0.201495 0.00321999 0)
(0.201363 0.00314586 0)
(0.20124 0.00307414 0)
(0.20108 0.00300164 0)
(0.200933 0.00293331 0)
(0.200743 0.00286396 0)
(0.200568 0.00279835 0)
(0.200345 0.0027309 0)
(0.200142 0.00266753 0)
(0.199883 0.00260155 0)
(0.199655 0.00254124 0)
(0.199362 0.00247883 0)
(0.199103 0.00242094 0)
(0.198769 0.00235788 0)
(0.198482 0.00230015 0)
(0.198108 0.00223711 0)
(0.197795 0.00217964 0)
(0.197386 0.00211696 0)
(0.197055 0.00206335 0)
(0.196605 0.0020016 0)
(0.196249 0.00194631 0)
(0.195762 0.00188308 0)
(0.195393 0.00182838 0)
(0.194871 0.00176406 0)
(0.194496 0.0017096 0)
(0.19395 0.00164782 0)
(0.193569 0.00159748 0)
(0.192977 0.00153223 0)
(0.192585 0.00147592 0)
(0.191974 0.00140575 0)
(0.191615 0.00135512 0)
(0.190988 0.00129238 0)
(0.190629 0.00124432 0)
(0.189956 0.00117444 0)
(0.189619 0.00112132 0)
(0.188941 0.00105049 0)
(0.188656 0.00100724 0)
(0.187954 0.000939678 0)
(0.187697 0.000899883 0)
(0.186957 0.00082719 0)
(0.186755 0.000789471 0)
(0.186004 0.000719584 0)
(0.185868 0.000694045 0)
(0.18509 0.000629906 0)
(0.18501 0.000616641 0)
(0.184179 0.000556362 0)
(0.196578 0.00626219 0)
(0.197114 0.0070725 0)
(0.197907 0.00769799 0)
(0.198894 0.0079913 0)
(0.199911 0.00789356 0)
(0.200772 0.00751535 0)
(0.201359 0.00704466 0)
(0.201693 0.00662171 0)
(0.201859 0.00628264 0)
(0.201962 0.00600181 0)
(0.202041 0.00574628 0)
(0.202118 0.00550511 0)
(0.202172 0.00527898 0)
(0.202212 0.00507281 0)
(0.202225 0.00488624 0)
(0.202232 0.00471736 0)
(0.202219 0.00456136 0)
(0.202211 0.00441867 0)
(0.202186 0.00428644 0)
(0.202171 0.00416493 0)
(0.20214 0.00405186 0)
(0.202121 0.00394651 0)
(0.202082 0.0038446 0)
(0.202057 0.00374749 0)
(0.20201 0.00365293 0)
(0.201978 0.003562 0)
(0.201924 0.00347447 0)
(0.201888 0.0033935 0)
(0.201827 0.00331518 0)
(0.201786 0.00324192 0)
(0.201715 0.00316998 0)
(0.201664 0.003101 0)
(0.201579 0.0030304 0)
(0.201519 0.00296496 0)
(0.201419 0.00289801 0)
(0.201346 0.00283551 0)
(0.201229 0.00277052 0)
(0.201144 0.00271078 0)
(0.201003 0.0026469 0)
(0.200907 0.00258978 0)
(0.200747 0.00253029 0)
(0.200633 0.00247676 0)
(0.200444 0.00241632 0)
(0.200315 0.00236261 0)
(0.200098 0.00230217 0)
(0.199951 0.00224818 0)
(0.199706 0.00218689 0)
(0.199551 0.00213747 0)
(0.199272 0.0020784 0)
(0.199097 0.00202688 0)
(0.198785 0.00196499 0)
(0.198599 0.00191354 0)
(0.198254 0.00185008 0)
(0.198058 0.00179714 0)
(0.197694 0.00173584 0)
(0.197496 0.00169021 0)
(0.197085 0.00162737 0)
(0.196861 0.00157265 0)
(0.196418 0.00149843 0)
(0.196224 0.00144782 0)
(0.195775 0.00138589 0)
(0.195575 0.00134266 0)
(0.195064 0.001272 0)
(0.194859 0.00121783 0)
(0.194337 0.00114164 0)
(0.194179 0.00109956 0)
(0.193633 0.00103045 0)
(0.193485 0.00099378 0)
(0.192888 0.000917492 0)
(0.192762 0.000878367 0)
(0.192154 0.000803773 0)
(0.192076 0.000777934 0)
(0.191445 0.000711503 0)
(0.191398 0.000700225 0)
(0.190708 0.0006365 0)
(0.196905 0.00605706 0)
(0.197391 0.00676709 0)
(0.198087 0.00731884 0)
(0.198943 0.00760771 0)
(0.199834 0.0075795 0)
(0.200622 0.00729862 0)
(0.201195 0.00690408 0)
(0.20155 0.00652268 0)
(0.201742 0.00620508 0)
(0.201862 0.00594171 0)
(0.201948 0.00570361 0)
(0.202031 0.00547813 0)
(0.202091 0.005263 0)
(0.202141 0.00506366 0)
(0.202161 0.00488145 0)
(0.202175 0.0047164 0)
(0.202166 0.00456324 0)
(0.202164 0.00442309 0)
(0.202142 0.00429252 0)
(0.202132 0.00417194 0)
(0.202104 0.00405942 0)
(0.202091 0.00395497 0)
(0.202058 0.00385354 0)
(0.202043 0.0037572 0)
(0.202004 0.00366358 0)
(0.201984 0.00357324 0)
(0.201942 0.00348581 0)
(0.201921 0.00340539 0)
(0.201875 0.00332719 0)
(0.201854 0.0032543 0)
(0.201807 0.00318305 0)
(0.201784 0.00311541 0)
(0.201729 0.00304512 0)
(0.201706 0.00298105 0)
(0.201644 0.00291494 0)
(0.201617 0.00285388 0)
(0.201548 0.00278963 0)
(0.201519 0.00273216 0)
(0.201435 0.00266901 0)
(0.201403 0.00261335 0)
(0.201312 0.00255516 0)
(0.201275 0.00250455 0)
(0.201165 0.00244528 0)
(0.201123 0.00239422 0)
(0.200996 0.00233547 0)
(0.200945 0.00228417 0)
(0.200798 0.00222312 0)
(0.200748 0.00217674 0)
(0.20058 0.00211991 0)
(0.200516 0.00207163 0)
(0.200322 0.0020107 0)
(0.200255 0.00196213 0)
(0.200036 0.00190015 0)
(0.199959 0.00184828 0)
(0.199726 0.00178671 0)
(0.199655 0.00174533 0)
(0.199388 0.00168667 0)
(0.199285 0.00163528 0)
(0.198979 0.00155768 0)
(0.1989 0.0015057 0)
(0.1986 0.00144473 0)
(0.198521 0.00140772 0)
(0.19816 0.00133944 0)
(0.198057 0.00128554 0)
(0.197676 0.00120447 0)
(0.197614 0.001163 0)
(0.197221 0.00109409 0)
(0.19716 0.00106188 0)
(0.196713 0.00098564 0)
(0.196647 0.000945323 0)
(0.196189 0.000867929 0)
(0.196154 0.000841348 0)
(0.195681 0.000774507 0)
(0.195664 0.000766388 0)
(0.195132 0.000702126 0)
(0.197199 0.00586591 0)
(0.19764 0.00649183 0)
(0.198254 0.00698236 0)
(0.199001 0.00726041 0)
(0.199784 0.00728072 0)
(0.200499 0.00707984 0)
(0.201048 0.00675702 0)
(0.201415 0.00641973 0)
(0.201628 0.00612513 0)
(0.201765 0.00587815 0)
(0.201858 0.00565594 0)
(0.201947 0.00544597 0)
(0.202012 0.00524288 0)
(0.202069 0.00505154 0)
(0.202095 0.00487435 0)
(0.202117 0.0047135 0)
(0.202112 0.00456344 0)
(0.202115 0.00442611 0)
(0.202095 0.00429755 0)
(0.202089 0.00417809 0)
(0.202063 0.00406612 0)
(0.202054 0.00396246 0)
(0.202023 0.00386139 0)
(0.202012 0.00376548 0)
(0.201977 0.00367273 0)
(0.201961 0.00358282 0)
(0.201923 0.00349535 0)
(0.201907 0.0034152 0)
(0.201867 0.00333677 0)
(0.201852 0.00326357 0)
(0.201813 0.00319229 0)
(0.201799 0.00312534 0)
(0.201756 0.0030546 0)
(0.201746 0.00299111 0)
(0.201699 0.00292505 0)
(0.201689 0.00286451 0)
(0.20164 0.00279992 0)
(0.201633 0.00274386 0)
(0.201575 0.00268073 0)
(0.201569 0.00262539 0)
(0.201509 0.00256733 0)
(0.201505 0.00251849 0)
(0.201434 0.00245926 0)
(0.201431 0.00240953 0)
(0.201352 0.00235161 0)
(0.201347 0.00230228 0)
(0.201254 0.00224052 0)
(0.201255 0.00219582 0)
(0.20115 0.00214051 0)
(0.201145 0.00209455 0)
(0.201023 0.00203392 0)
(0.201019 0.00198717 0)
(0.200882 0.00192699 0)
(0.200868 0.0018757 0)
(0.200722 0.00181291 0)
(0.200721 0.00177405 0)
(0.200557 0.00171986 0)
(0.200528 0.00167292 0)
(0.200321 0.00159301 0)
(0.200308 0.00153825 0)
(0.200118 0.00147722 0)
(0.200115 0.00144606 0)
(0.199875 0.00138221 0)
(0.199838 0.00132989 0)
(0.199571 0.00124463 0)
(0.199569 0.00120254 0)
(0.199301 0.00113443 0)
(0.199298 0.00110666 0)
(0.198986 0.00103345 0)
(0.198958 0.000992309 0)
(0.198633 0.000913552 0)
(0.198625 0.00088578 0)
(0.198292 0.000819217 0)
(0.198297 0.000814714 0)
(0.197911 0.000752302 0)
(0.197464 0.00568781 0)
(0.197865 0.00624239 0)
(0.198408 0.00668132 0)
(0.199064 0.00694599 0)
(0.199753 0.0069996 0)
(0.2004 0.00686282 0)
(0.200918 0.00660487 0)
(0.201288 0.00631263 0)
(0.201517 0.00604291 0)
(0.201669 0.0058121 0)
(0.20177 0.00560435 0)
(0.201864 0.0054092 0)
(0.201932 0.00521868 0)
(0.201996 0.00503636 0)
(0.202027 0.00486493 0)
(0.202056 0.00470869 0)
(0.202056 0.00456199 0)
(0.202063 0.00442763 0)
(0.202047 0.00430144 0)
(0.202044 0.00418333 0)
(0.202021 0.00407213 0)
(0.202014 0.00396926 0)
(0.201985 0.00386864 0)
(0.201976 0.00377302 0)
(0.201945 0.00368117 0)
(0.20193 0.00359171 0)
(0.201895 0.00350428 0)
(0.20188 0.00342436 0)
(0.201844 0.00334572 0)
(0.201829 0.003272 0)
(0.201795 0.00320035 0)
(0.201783 0.00313385 0)
(0.201745 0.00306238 0)
(0.201738 0.0029991 0)
(0.201698 0.00293283 0)
(0.201693 0.0028724 0)
(0.201652 0.00280693 0)
(0.201652 0.00275176 0)
(0.201606 0.0026885 0)
(0.201607 0.00263291 0)
(0.201561 0.00257433 0)
(0.201567 0.0025265 0)
(0.201516 0.00246674 0)
(0.201526 0.00241739 0)
(0.201472 0.00235964 0)
(0.201484 0.00231185 0)
(0.201418 0.00224896 0)
(0.201439 0.00220482 0)
(0.201368 0.00215039 0)
(0.201387 0.0021059 0)
(0.201305 0.00204513 0)
(0.201327 0.00199892 0)
(0.201241 0.00194065 0)
(0.201254 0.00188974 0)
(0.201159 0.00182532 0)
(0.201186 0.00178701 0)
(0.201088 0.0017364 0)
(0.201098 0.00169413 0)
(0.200961 0.00161331 0)
(0.200976 0.00155522 0)
(0.200856 0.00149289 0)
(0.200889 0.00146596 0)
(0.200736 0.00140715 0)
(0.200738 0.00135741 0)
(0.200554 0.00126911 0)
(0.200579 0.00122531 0)
(0.200403 0.0011579 0)
(0.200429 0.00113345 0)
(0.200222 0.00106495 0)
(0.200216 0.00102354 0)
(0.199995 0.000944417 0)
(0.200001 0.000915364 0)
(0.199773 0.00084899 0)
(0.199791 0.00084774 0)
(0.199523 0.000788649 0)
(0.197705 0.00552161 0)
(0.19807 0.00601545 0)
(0.198552 0.00641027 0)
(0.199129 0.00666092 0)
(0.199738 0.00673708 0)
(0.200321 0.00665079 0)
(0.200804 0.00644958 0)
(0.201171 0.00620151 0)
(0.20141 0.00595834 0)
(0.201575 0.00574411 0)
(0.201684 0.0055498 0)
(0.201782 0.00536848 0)
(0.201853 0.00519059 0)
(0.201921 0.00501805 0)
(0.201958 0.00485316 0)
(0.201993 0.00470193 0)
(0.201997 0.00455889 0)
(0.202009 0.00442761 0)
(0.201996 0.00430406 0)
(0.201996 0.00418757 0)
(0.201976 0.00407739 0)
(0.201971 0.00397536 0)
(0.201945 0.00387539 0)
(0.201937 0.00377998 0)
(0.201908 0.00368907 0)
(0.201895 0.0036001 0)
(0.201863 0.00351286 0)
(0.201849 0.00343315 0)
(0.201815 0.00335444 0)
(0.2018 0.00328019 0)
(0.201769 0.00320803 0)
(0.201757 0.00314188 0)
(0.201723 0.00306965 0)
(0.201715 0.00300643 0)
(0.20168 0.00293985 0)
(0.201674 0.00287944 0)
(0.201638 0.00281293 0)
(0.201639 0.00275825 0)
(0.2016 0.00269495 0)
(0.201601 0.00263896 0)
(0.201563 0.00257959 0)
(0.201569 0.00253222 0)
(0.201528 0.00247179 0)
(0.20154 0.00242229 0)
(0.201498 0.00236428 0)
(0.201514 0.00231775 0)
(0.201464 0.00225382 0)
(0.201487 0.00220954 0)
(0.201435 0.00215549 0)
(0.20146 0.0021118 0)
(0.201401 0.00205082 0)
(0.201429 0.00200411 0)
(0.201372 0.00194763 0)
(0.201392 0.00189713 0)
(0.201328 0.00183134 0)
(0.201359 0.00179211 0)
(0.201299 0.00174356 0)
(0.201325 0.0017054 0)
(0.201234 0.00162501 0)
(0.201256 0.00156413 0)
(0.201176 0.00149972 0)
(0.201219 0.00147497 0)
(0.201124 0.00142051 0)
(0.201144 0.00137385 0)
(0.201018 0.001284 0)
(0.201049 0.0012381 0)
(0.200932 0.00117109 0)
(0.200966 0.0011483 0)
(0.200834 0.0010848 0)
(0.200838 0.0010437 0)
(0.20069 0.000964877 0)
(0.200699 0.000934919 0)
(0.200543 0.00086844 0)
(0.200565 0.000869508 0)