/*--------------------------------*- C++ -*----------------------------------*\
| =========                 |                                                 |
| \\      /  F ield         | OpenFOAM: The Open Source CFD Toolbox           |
|  \\    /   O peration     | Version:  2.3.0                                 |
|   \\  /    A nd           | Web:      www.OpenFOAM.org                      |
|    \\/     M anipulation  |                                                 |
\*---------------------------------------------------------------------------*/
FoamFile
{
    version     2.0;
    format      ascii;
    class       volScalarField;
    location    "0.1";
    object      p;
}
// * * * * * * * * * * * * * * * * * * * * * * * * * * * * * * * * * * * * * //

dimensions      [0 2 -2 0 0 0 0];

internalField   nonuniform List<scalar> 
8750
(
0.00305523
0.00245617
0.00196574
0.00161113
0.0013172
0.00105209
0.000815614
0.00061236
0.000443833
0.000309017
0.000205349
0.000129063
7.5549e-05
3.99014e-05
1.74562e-05
4.17486e-06
-3.16449e-06
-6.93908e-06
-8.75934e-06
-9.59939e-06
-9.93517e-06
-9.85919e-06
-9.15594e-06
-7.34287e-06
-3.70675e-06
2.61931e-06
1.25338e-05
2.6793e-05
4.56098e-05
6.89232e-05
9.58413e-05
0.000125072
0.000154842
0.000183335
0.000209292
0.000232085
0.000251549
0.000267792
0.000281069
0.000291699
0.00030001
0.000306317
0.000310906
0.00031403
0.000315909
0.000316734
0.000316669
0.000315853
0.000314405
0.000312424
0.000309994
0.000307183
0.000304046
0.000300629
0.000296966
0.000293087
0.000289011
0.000284756
0.000280333
0.000275754
0.000271024
0.000266151
0.000261138
0.000255991
0.000250713
0.000245308
0.000239779
0.000234129
0.000228362
0.000222481
0.000216489
0.000210389
0.000204183
0.000197874
0.000191465
0.000184957
0.000178355
0.000171659
0.000164872
0.000157995
0.000151031
0.000143981
0.000136848
0.000129633
0.000122336
0.000114961
0.000107508
9.99786e-05
9.23743e-05
8.46963e-05
7.69459e-05
6.91244e-05
6.1233e-05
5.32732e-05
4.52461e-05
3.71532e-05
2.89961e-05
2.07765e-05
1.24969e-05
4.15648e-06
0.00277285
0.00234483
0.00194168
0.00161953
0.00133989
0.00108205
0.000848701
0.000646054
0.000476661
0.000340083
0.000234098
0.000155182
9.89156e-05
6.05394e-05
3.5493e-05
1.98051e-05
1.029e-05
4.58212e-06
1.06426e-06
-1.25794e-06
-2.8904e-06
-3.96281e-06
-4.29969e-06
-3.45293e-06
-7.24287e-07
4.77127e-06
1.39532e-05
2.758e-05
4.61276e-05
6.89998e-05
9.53617e-05
0.000124319
0.000154092
0.000182664
0.000208708
0.000231589
0.000251136
0.000267455
0.000280798
0.000291484
0.000299842
0.000306188
0.000310808
0.000313956
0.000315854
0.000316694
0.000316639
0.000315832
0.000314389
0.000312413
0.000309985
0.000307176
0.00030404
0.000300624
0.000296963
0.000293083
0.000289008
0.000284753
0.000280331
0.000275752
0.000271023
0.00026615
0.000261138
0.000255991
0.000250713
0.000245308
0.000239779
0.000234129
0.000228363
0.000222482
0.000216489
0.000210389
0.000204183
0.000197874
0.000191465
0.000184958
0.000178355
0.000171659
0.000164872
0.000157995
0.000151031
0.000143982
0.000136849
0.000129633
0.000122337
0.000114961
0.000107508
9.9979e-05
9.23747e-05
8.46967e-05
7.69463e-05
6.91247e-05
6.12333e-05
5.32735e-05
4.52464e-05
3.71536e-05
2.89965e-05
2.07769e-05
1.24977e-05
4.15463e-06
0.00256789
0.00224728
0.00190499
0.00160771
0.00134374
0.00109958
0.000876961
0.000681379
0.000515603
0.000379705
0.000272089
0.000189942
0.000129547
8.67422e-05
5.74167e-05
3.78819e-05
2.50888e-05
1.66969e-05
1.10405e-05
7.03897e-06
4.08908e-06
1.97027e-06
7.82839e-07
9.18298e-07
3.03558e-06
7.99631e-06
1.67105e-05
2.99054e-05
4.79914e-05
7.09441e-05
9.75312e-05
0.000126007
0.000155057
0.000183099
0.000208782
0.000231432
0.00025085
0.000267112
0.000280446
0.000291153
0.000299548
0.000305937
0.000310601
0.00031379
0.000315725
0.000316597
0.000316568
0.000315782
0.000314356
0.000312392
0.000309973
0.000307171
0.00030404
0.000300627
0.000296968
0.00029309
0.000289016
0.000284761
0.00028034
0.00027576
0.000271031
0.000266158
0.000261146
0.000255999
0.000250721
0.000245315
0.000239786
0.000234136
0.000228369
0.000222488
0.000216496
0.000210395
0.000204189
0.000197879
0.00019147
0.000184963
0.00017836
0.000171663
0.000164876
0.000157999
0.000151035
0.000143985
0.000136851
0.000129636
0.000122339
0.000114964
0.000107511
9.99809e-05
9.23764e-05
8.46982e-05
7.69476e-05
6.9126e-05
6.12345e-05
5.32746e-05
4.52473e-05
3.71542e-05
2.89969e-05
2.07768e-05
1.24965e-05
4.14879e-06
0.00239484
0.0021435
0.00185301
0.00158446
0.00134082
0.00111437
0.000906073
0.000720631
0.000561009
0.000427819
0.000320095
0.000235727
0.000171723
0.000124585
9.07325e-05
6.68518e-05
5.01209e-05
3.83048e-05
2.97574e-05
2.33642e-05
1.8463e-05
1.4768e-05
1.23174e-05
1.14445e-05
1.27469e-05
1.70138e-05
2.50748e-05
3.75866e-05
5.48679e-05
7.67564e-05
0.000102514
0.000130221
0.000158077
0.000184948
0.000209729
0.000231735
0.000250721
0.000266719
0.000279913
0.000290563
0.000298957
0.00030538
0.000310097
0.000313349
0.000315349
0.000316283
0.000316313
0.000315579
0.000314198
0.000312272
0.000309885
0.000307108
0.000303998
0.000300601
0.000296954
0.000293085
0.000289018
0.000284768
0.00028035
0.000275772
0.000271044
0.000266172
0.00026116
0.000256013
0.000250735
0.000245329
0.000239799
0.000234149
0.000228382
0.0002225
0.000216507
0.000210406
0.000204199
0.000197889
0.000191479
0.000184971
0.000178368
0.000171671
0.000164883
0.000158006
0.000151041
0.000143991
0.000136857
0.000129641
0.000122344
0.000114968
0.000107514
9.99845e-05
9.23796e-05
8.4701e-05
7.69501e-05
6.91282e-05
6.12363e-05
5.3276e-05
4.52483e-05
3.71548e-05
2.89968e-05
2.07759e-05
1.24934e-05
4.14005e-06
0.0022421
0.00204051
0.0017963
0.00155786
0.00133537
0.00112649
0.000932595
0.000757859
0.000605342
0.000476056
0.000369509
0.000284135
0.000217554
0.000166868
0.00012902
0.000101104
8.05794e-05
6.53748e-05
5.39176e-05
4.51026e-05
3.8238e-05
3.2988e-05
2.93295e-05
2.7522e-05
2.80694e-05
3.16443e-05
3.89492e-05
5.05325e-05
6.66235e-05
8.69999e-05
0.000110953
0.000137037
0.000163308
0.000188532
0.000211933
0.000232894
0.000251129
0.000266618
0.000279489
0.000289955
0.000298263
0.000304666
0.000309409
0.000312713
0.00031478
0.000315788
0.000315892
0.000315229
0.000313914
0.000312047
0.000309712
0.000306979
0.000303905
0.000300537
0.000296914
0.000293063
0.000289009
0.00028477
0.000280359
0.000275787
0.000271062
0.000266192
0.000261182
0.000256036
0.000250758
0.000245352
0.000239822
0.000234171
0.000228402
0.000222519
0.000216525
0.000210423
0.000204215
0.000197905
0.000191494
0.000184985
0.000178381
0.000171683
0.000164894
0.000158016
0.000151051
0.000144
0.000136865
0.000129648
0.000122351
0.000114974
0.00010752
9.99897e-05
9.23843e-05
8.47052e-05
7.69538e-05
6.91313e-05
6.12389e-05
5.3278e-05
4.52498e-05
3.71555e-05
2.89967e-05
2.07743e-05
1.2489e-05
4.13043e-06
0.00211099
0.00194538
0.00173941
0.00152875
0.00132636
0.00113408
0.000954108
0.000790198
0.000645331
0.000520772
0.000416395
0.000331078
0.000262951
0.000209645
0.000168588
0.000137269
0.000113436
9.52071e-05
8.11099e-05
7.00762e-05
6.14074e-05
5.47321e-05
4.99707e-05
4.73033e-05
4.71276e-05
4.99846e-05
5.64371e-05
6.69126e-05
8.1557e-05
0.000100121
0.000121912
0.000145758
0.000170015
0.000193424
0.000215222
0.000234909
0.000252192
0.000266997
0.000279401
0.000289566
0.000297697
0.000304013
0.00030873
0.000312052
0.000314163
0.000315233
0.000315406
0.000314815
0.00031357
0.000311769
0.000309493
0.000306812
0.000303783
0.000300453
0.000296859
0.000293033
0.000288998
0.000284773
0.000280373
0.000275809
0.00027109
0.000266224
0.000261215
0.000256069
0.00025079
0.000245384
0.000239852
0.0002342
0.00022843
0.000222546
0.000216551
0.000210447
0.000204238
0.000197926
0.000191514
0.000185004
0.000178398
0.000171699
0.00016491
0.00015803
0.000151064
0.000144012
0.000136877
0.000129659
0.000122361
0.000114983
0.000107528
9.9997e-05
9.23909e-05
8.4711e-05
7.69589e-05
6.91357e-05
6.12426e-05
5.32809e-05
4.52519e-05
3.71567e-05
2.89967e-05
2.07726e-05
1.24845e-05
4.12161e-06
0.00199816
0.00185846
0.00168304
0.00149719
0.00131383
0.00113738
0.000970824
0.000817619
0.000680599
0.000561208
0.00045963
0.000375126
0.000306263
0.000251132
0.000207588
0.000173486
0.00014685
0.00012599
0.000109549
9.65144e-05
8.61966e-05
7.82021e-05
7.24016e-05
6.88989e-05
6.79876e-05
7.00812e-05
7.56083e-05
8.48816e-05
9.79732e-05
0.00011462
0.000134181
0.000155637
0.000177715
0.000199191
0.000219316
0.000237637
0.000253863
0.000267881
0.000279722
0.000289502
0.000297383
0.00030355
0.000308193
0.000311492
0.000313619
0.000314726
0.000314952
0.00031442
0.000313238
0.000311497
0.000309278
0.000306648
0.000303664
0.000300373
0.000296811
0.000293011
0.000288996
0.000284787
0.000280399
0.000275844
0.00027113
0.000266266
0.000261258
0.000256112
0.000250833
0.000245426
0.000239893
0.000234239
0.000228468
0.000222582
0.000216584
0.000210479
0.000204268
0.000197954
0.00019154
0.000185029
0.000178422
0.000171721
0.00016493
0.000158049
0.000151082
0.000144029
0.000136892
0.000129673
0.000122373
0.000114995
0.000107539
0.000100007
9.23996e-05
8.47188e-05
7.69657e-05
6.91416e-05
6.12475e-05
5.32849e-05
4.52549e-05
3.71586e-05
2.89971e-05
2.07712e-05
1.24804e-05
4.11442e-06
0.00190001
0.00177942
0.00162838
0.00146436
0.00129876
0.00113725
0.000983412
0.000840532
0.000711304
0.000597282
0.000498912
0.000415779
0.000346821
0.000290521
0.000245113
0.000208778
0.0001798
0.000156677
0.000138173
0.000123339
0.00011151
0.000102277
9.54723e-05
9.11294e-05
8.94477e-05
9.07267e-05
9.52762e-05
0.000103308
0.000114834
0.000129585
0.00014698
0.00016614
0.000185999
0.000205526
0.000223993
0.000240931
0.000256056
0.000269234
0.000280452
0.000289786
0.000297361
0.000303331
0.000307856
0.000311097
0.000313206
0.000314326
0.000314584
0.000314096
0.000312962
0.000311272
0.000309102
0.000306517
0.000303574
0.000300317
0.000296785
0.000293009
0.000289013
0.000284819
0.000280441
0.000275892
0.000271183
0.000266321
0.000261315
0.000256169
0.000250889
0.00024548
0.000239945
0.000234289
0.000228515
0.000222627
0.000216627
0.000210519
0.000204306
0.00019799
0.000191574
0.00018506
0.000178451
0.000171748
0.000164955
0.000158073
0.000151104
0.000144049
0.00013691
0.00012969
0.000122389
0.00011501
0.000107552
0.000100019
9.24104e-05
8.47284e-05
7.69742e-05
6.9149e-05
6.12538e-05
5.32901e-05
4.52588e-05
3.71612e-05
2.89982e-05
2.07704e-05
1.24771e-05
4.10904e-06
0.00181384
0.00170782
0.00157634
0.00143123
0.00128189
0.00113429
0.000992389
0.000859364
0.000737768
0.000629215
0.000534348
0.000453024
0.000384494
0.000327579
0.000280843
0.000242759
0.000211852
0.000186799
0.000166486
0.000150036
0.000136813
0.000126406
0.000118613
0.00011341
0.000110916
0.000111331
0.000114864
0.000121645
0.000131634
0.000144563
0.000159909
0.000176911
0.000194664
0.000212291
0.000229119
0.000244688
0.000258703
0.000271011
0.000281568
0.000290414
0.000297641
0.000303371
0.00030774
0.000310889
0.000312953
0.00031406
0.000314328
0.000313864
0.000312764
0.000311111
0.00030898
0.000306432
0.000303523
0.000300295
0.000296789
0.000293033
0.000289054
0.000284872
0.000280502
0.000275959
0.000271253
0.000266393
0.000261386
0.00025624
0.000250958
0.000245546
0.000240009
0.00023435
0.000228573
0.000222681
0.000216679
0.000210568
0.000204351
0.000198032
0.000191614
0.000185097
0.000178486
0.000171781
0.000164986
0.000158101
0.00015113
0.000144073
0.000136933
0.000129711
0.000122408
0.000115027
0.000107568
0.000100033
9.24234e-05
8.47401e-05
7.69845e-05
6.91579e-05
6.12614e-05
5.32964e-05
4.52637e-05
3.71646e-05
2.9e-05
2.07702e-05
1.24748e-05
4.10528e-06
0.00173755
0.00164301
0.00152734
0.00139846
0.00126378
0.00112903
0.000998274
0.000874594
0.000760411
0.000657345
0.000566188
0.000487015
0.000419343
0.000362282
0.000314682
0.000275277
0.000242813
0.000216134
0.000194248
0.000176352
0.000161845
0.000150322
0.000141557
0.000135478
0.000132135
0.000131648
0.000134142
0.000139678
0.000148178
0.000159375
0.000172799
0.000187788
0.00020357
0.000219388
0.000234628
0.000248849
0.000261756
0.000273179
0.000283049
0.000291374
0.000298216
0.000303672
0.000307852
0.000310877
0.000312867
0.000313937
0.000314193
0.000313736
0.000312654
0.000311026
0.000308922
0.000306402
0.000303518
0.000300314
0.000296827
0.000293088
0.000289122
0.000284948
0.000280585
0.000276046
0.000271342
0.000266482
0.000261474
0.000256325
0.000251041
0.000245626
0.000240085
0.000234422
0.000228641
0.000222746
0.000216739
0.000210625
0.000204405
0.000198083
0.000191661
0.000185141
0.000178527
0.000171819
0.000165021
0.000158134
0.000151161
0.000144102
0.000136959
0.000129735
0.000122431
0.000115047
0.000107587
0.00010005
9.24386e-05
8.47537e-05
7.69965e-05
6.91684e-05
6.12704e-05
5.33038e-05
4.52696e-05
3.71689e-05
2.90025e-05
2.07708e-05
1.24733e-05
4.10284e-06
0.00166949
0.00158426
0.00148151
0.00136651
0.00124493
0.00112196
0.00100155
0.000886687
0.000779641
0.000682014
0.000594697
0.00051794
0.00045148
0.000394671
0.000346613
0.000306271
0.000272587
0.000244566
0.000221329
0.000202151
0.000186471
0.000173894
0.00016418
0.000157218
0.000153004
0.000151591
0.000153036
0.000157344
0.000164407
0.000173964
0.000185588
0.000198703
0.000212641
0.000226746
0.000240463
0.000253371
0.000265182
0.000275712
0.000284876
0.000292654
0.000299082
0.00030423
0.000308191
0.000311064
0.000312953
0.000313962
0.000314186
0.000313717
0.000312637
0.00031102
0.000308931
0.000306429
0.000303563
0.000300376
0.000296904
0.000293176
0.000289218
0.000285052
0.000280692
0.000276155
0.000271451
0.000266589
0.000261579
0.000256427
0.000251138
0.000245719
0.000240174
0.000234506
0.000228721
0.000222821
0.00021681
0.000210691
0.000204467
0.000198141
0.000191715
0.000185192
0.000178574
0.000171864
0.000165062
0.000158173
0.000151196
0.000144135
0.00013699
0.000129763
0.000122456
0.000115071
0.000107608
0.000100069
9.24562e-05
8.47694e-05
7.70104e-05
6.91806e-05
6.12809e-05
5.33126e-05
4.52766e-05
3.7174e-05
2.90057e-05
2.07721e-05
1.24727e-05
4.10143e-06
0.00160839
0.00153087
0.00143882
0.00133569
0.00122574
0.00111349
0.00100266
0.000896058
0.000795836
0.000703547
0.000620138
0.000545995
0.000481036
0.000424819
0.000376656
0.000335717
0.000301123
0.000272021
0.000247645
0.000227345
0.000210603
0.000197042
0.000186411
0.000178574
0.00017348
0.00017113
0.000171528
0.000174633
0.000180315
0.000188319
0.000198258
0.000209623
0.000221836
0.000234323
0.000246582
0.00025822
0.000268952
0.000278592
0.000287033
0.000294241
0.000300228
0.000305043
0.000308755
0.00031145
0.000313214
0.000314138
0.00031431
0.000313811
0.000312717
0.000311097
0.000309013
0.000306519
0.000303662
0.000300485
0.000297021
0.0002933
0.000289347
0.000285183
0.000280825
0.000276287
0.000271581
0.000266716
0.000261702
0.000256545
0.000251251
0.000245827
0.000240276
0.000234603
0.000228812
0.000222907
0.000216891
0.000210767
0.000204538
0.000198207
0.000191777
0.00018525
0.000178628
0.000171914
0.000165109
0.000158216
0.000151236
0.000144172
0.000137024
0.000129795
0.000122486
0.000115098
0.000107633
0.000100092
9.24761e-05
8.47873e-05
7.70263e-05
6.91945e-05
6.12929e-05
5.33226e-05
4.52847e-05
3.71802e-05
2.90098e-05
2.07741e-05
1.24729e-05
4.1008e-06
0.00155321
0.00148222
0.00139915
0.0013062
0.00120653
0.00110399
0.00100197
0.000903082
0.000809346
0.00072225
0.000642766
0.000571379
0.000508149
0.000452808
0.000404848
0.000363614
0.000328387
0.000298449
0.000273134
0.000251867
0.000234177
0.000219704
0.000208199
0.000199505
0.000193538
0.000190254
0.000189616
0.00019155
0.000195908
0.000202442
0.000210799
0.000220529
0.000231126
0.000242084
0.000252951
0.00026336
0.000273036
0.00028179
0.000289503
0.000296125
0.000301649
0.000306104
0.000309543
0.000312033
0.000313649
0.000314468
0.000314567
0.00031402
0.000312897
0.000311261
0.000309169
0.000306673
0.000303817
0.000300642
0.00029718
0.000293462
0.00028951
0.000285345
0.000280985
0.000276444
0.000271733
0.000266864
0.000261844
0.000256681
0.000251381
0.00024595
0.000240392
0.000234713
0.000228915
0.000223004
0.000216982
0.000210853
0.000204618
0.000198282
0.000191847
0.000185315
0.000178689
0.000171971
0.000165162
0.000158265
0.000151282
0.000144214
0.000137063
0.000129831
0.000122518
0.000115128
0.00010766
0.000100117
9.24986e-05
8.48074e-05
7.70442e-05
6.92102e-05
6.13064e-05
5.3334e-05
4.5294e-05
3.71873e-05
2.90148e-05
2.07769e-05
1.24738e-05
4.1008e-06
0.00150313
0.00143775
0.00136231
0.00127813
0.00118754
0.00109375
0.000999803
0.000908094
0.000820492
0.00073841
0.000662824
0.000594283
0.000532961
0.000478729
0.000431233
0.000389971
0.000354363
0.00032381
0.000297746
0.000275662
0.000257136
0.000241832
0.000229504
0.000219982
0.000213157
0.000208954
0.000207302
0.000208102
0.000211193
0.000216336
0.000223208
0.000231407
0.000240488
0.000250001
0.00025954
0.000268763
0.000277408
0.000285284
0.000292267
0.000298291
0.000303334
0.000307409
0.000310552
0.000312815
0.000314259
0.000314952
0.00031496
0.000314348
0.000313181
0.000311515
0.000309403
0.000306895
0.000304032
0.000300851
0.000297386
0.000293663
0.000289708
0.000285539
0.000281173
0.000276626
0.00027191
0.000267033
0.000262006
0.000256835
0.000251527
0.000246088
0.000240523
0.000234836
0.000229032
0.000223113
0.000217085
0.000210948
0.000204708
0.000198366
0.000191926
0.000185389
0.000178757
0.000172034
0.000165221
0.00015832
0.000151332
0.000144261
0.000137106
0.000129871
0.000122555
0.000115161
0.000107691
0.000100144
9.25237e-05
8.483e-05
7.70642e-05
6.92277e-05
6.13216e-05
5.33468e-05
4.53044e-05
3.71954e-05
2.90206e-05
2.07805e-05
1.24754e-05
4.10128e-06
0.00145747
0.00139699
0.00132809
0.00125151
0.00116893
0.00108302
0.000996451
0.000911393
0.000829565
0.000752296
0.000680542
0.000614895
0.000555612
0.000502679
0.000455869
0.000414809
0.000379043
0.00034808
0.000321441
0.000298685
0.000279436
0.000263383
0.000250288
0.000239977
0.000232321
0.000227223
0.000224586
0.000224293
0.000226175
0.000230004
0.00023548
0.000242244
0.000249899
0.000258048
0.00026632
0.000274403
0.000282043
0.000289054
0.000295307
0.000300725
0.000305274
0.00030895
0.000311777
0.000313791
0.000315044
0.000315591
0.000315489
0.000314797
0.000313569
0.00031186
0.000309718
0.000307187
0.000304307
0.000301114
0.000297639
0.000293907
0.000289943
0.000285766
0.000281392
0.000276837
0.000272111
0.000267225
0.000262189
0.000257009
0.000251692
0.000246244
0.00024067
0.000234974
0.000229161
0.000223235
0.000217199
0.000211055
0.000204808
0.00019846
0.000192013
0.00018547
0.000178833
0.000172104
0.000165286
0.000158381
0.000151389
0.000144313
0.000137154
0.000129915
0.000122596
0.000115199
0.000107725
0.000100175
9.25516e-05
8.48549e-05
7.70864e-05
6.92473e-05
6.13385e-05
5.33611e-05
4.53162e-05
3.72047e-05
2.90274e-05
2.07849e-05
1.24777e-05
4.10218e-06
0.00141567
0.00135952
0.00129629
0.00122634
0.00115083
0.001072
0.000992152
0.00091324
0.000836827
0.000764151
0.000696136
0.000633393
0.000576242
0.000524756
0.000478815
0.000438157
0.000402431
0.000371242
0.00034419
0.0003209
0.000301037
0.000284319
0.000270521
0.000259465
0.000251014
0.000245052
0.000241467
0.000240126
0.000240859
0.000243446
0.000247609
0.000253026
0.000259342
0.0002662
0.000273267
0.000280252
0.000286917
0.000293079
0.000298606
0.000303413
0.000307456
0.000310718
0.000313211
0.000314959
0.000316002
0.000316385
0.000316156
0.000315366
0.000314065
0.0003123
0.000310115
0.000307552
0.000304647
0.000301434
0.000297941
0.000294195
0.000290218
0.000286029
0.000281643
0.000277076
0.000272339
0.000267442
0.000262394
0.000257203
0.000251875
0.000246417
0.000240833
0.000235127
0.000229305
0.00022337
0.000217325
0.000211173
0.000204918
0.000198563
0.000192109
0.000185559
0.000178916
0.000172182
0.000165358
0.000158447
0.000151451
0.00014437
0.000137207
0.000129964
0.000122641
0.00011524
0.000107762
0.000100209
9.25823e-05
8.48825e-05
7.7111e-05
6.92688e-05
6.13572e-05
5.3377e-05
4.53293e-05
3.7215e-05
2.90351e-05
2.07901e-05
1.24806e-05
4.10344e-06
0.00137728
0.00132497
0.00126671
0.00120256
0.00113333
0.00106084
0.000987112
0.000913864
0.000842513
0.000774201
0.000709808
0.000649949
0.000594986
0.000545062
0.000500141
0.000460053
0.000424539
0.000393289
0.000365974
0.000342277
0.000321907
0.00030461
0.000290173
0.000278424
0.000269219
0.000262433
0.000257941
0.000255601
0.000255245
0.000256659
0.000259589
0.00026374
0.000268796
0.000274435
0.000280355
0.000286287
0.000292007
0.000297337
0.000302145
0.00030634
0.000309868
0.000312705
0.000314849
0.000316315
0.00031713
0.000317332
0.00031696
0.000316058
0.000314669
0.000312836
0.000310597
0.000307991
0.000305053
0.000301812
0.000298296
0.00029453
0.000290534
0.000286328
0.000281927
0.000277345
0.000272594
0.000267683
0.000262622
0.000257419
0.000252078
0.000246608
0.000241012
0.000235296
0.000229463
0.000223518
0.000217463
0.000211303
0.00020504
0.000198676
0.000192214
0.000185658
0.000179008
0.000172267
0.000165438
0.000158521
0.000151519
0.000144433
0.000137265
0.000130017
0.00012269
0.000115285
0.000107803
0.000100247
9.2616e-05
8.49128e-05
7.71379e-05
6.92925e-05
6.13777e-05
5.33945e-05
4.53438e-05
3.72266e-05
2.90438e-05
2.07961e-05
1.24841e-05
4.10503e-06
0.0013419
0.00129304
0.00123916
0.00118012
0.00111645
0.00104967
0.000981503
0.000913467
0.000846833
0.00078265
0.000721745
0.000664725
0.000611977
0.000563697
0.000519915
0.000480539
0.000445387
0.000414222
0.00038678
0.000362797
0.000342021
0.000324228
0.000309222
0.000296836
0.000286925
0.000279358
0.000274003
0.000270717
0.00026933
0.000269641
0.000271411
0.000274374
0.000278245
0.000282732
0.000287561
0.000292484
0.000297291
0.000301808
0.000305906
0.000309491
0.0003125
0.000314902
0.000316684
0.000317852
0.000318426
0.000318431
0.000317902
0.000316873
0.000315383
0.000313469
0.000311166
0.000308508
0.000305526
0.00030225
0.000298704
0.000294912
0.000290894
0.000286667
0.000282247
0.000277647
0.000272878
0.000267951
0.000262875
0.000257656
0.000252302
0.000246818
0.000241209
0.000235481
0.000229637
0.00022368
0.000217615
0.000211445
0.000205172
0.0001988
0.00019233
0.000185765
0.000179108
0.00017236
0.000165524
0.000158601
0.000151593
0.000144502
0.000137329
0.000130076
0.000122743
0.000115334
0.000107848
0.000100287
9.26528e-05
8.49458e-05
7.71673e-05
6.93184e-05
6.14002e-05
5.34137e-05
4.53598e-05
3.72394e-05
2.90535e-05
2.08029e-05
1.24882e-05
4.10691e-06
0.0013092
0.00126345
0.00121345
0.00115894
0.00110024
0.00103858
0.000975466
0.000912218
0.000849973
0.000789682
0.000732119
0.000677873
0.000627344
0.000580761
0.000538212
0.000499664
0.000465001
0.00043405
0.000406603
0.000382445
0.000361361
0.000343155
0.000327648
0.000314683
0.000304117
0.000295817
0.00028965
0.000285471
0.000283113
0.000282385
0.000283067
0.000284916
0.00028767
0.00029107
0.000294863
0.000298821
0.000302746
0.000306473
0.000309873
0.000312851
0.000315339
0.000317298
0.000318709
0.000319567
0.000319885
0.00031968
0.000318979
0.00031781
0.000316207
0.0003142
0.000311822
0.000309102
0.000306069
0.00030275
0.000299168
0.000295344
0.000291297
0.000287045
0.000282602
0.000277981
0.000273192
0.000268247
0.000263153
0.000257917
0.000252547
0.000247048
0.000241425
0.000235683
0.000229826
0.000223857
0.000217781
0.000211599
0.000205316
0.000198934
0.000192455
0.000185882
0.000179217
0.000172461
0.000165618
0.000158688
0.000151674
0.000144576
0.000137398
0.000130139
0.000122802
0.000115387
0.000107897
0.000100332
9.26929e-05
8.49818e-05
7.71993e-05
6.93467e-05
6.14248e-05
5.34346e-05
4.53773e-05
3.72535e-05
2.90643e-05
2.08105e-05
1.24929e-05
4.10907e-06
0.00127889
0.00123596
0.00118944
0.00113896
0.00108469
0.00102765
0.000969121
0.000910268
0.000852095
0.000795463
0.00074109
0.000689537
0.000641206
0.000596354
0.000555105
0.000517479
0.000483413
0.000452787
0.000425445
0.000401213
0.000379913
0.000361374
0.000345435
0.000331951
0.000320784
0.000311804
0.000304876
0.000299857
0.000296588
0.000294887
0.000294549
0.000295351
0.000297057
0.00029943
0.00030224
0.000305275
0.000308351
0.00031131
0.000314027
0.000316404
0.000318372
0.000319884
0.000320915
0.000321454
0.000321503
0.000321075
0.00032019
0.000318869
0.00031714
0.00031503
0.000312566
0.000309776
0.000306684
0.000303314
0.000299688
0.000295827
0.000291747
0.000287465
0.000282995
0.000278349
0.000273538
0.000268571
0.000263457
0.000258202
0.000252814
0.000247298
0.00024166
0.000235903
0.000230031
0.000224049
0.00021796
0.000211767
0.000205473
0.00019908
0.000192591
0.000186009
0.000179335
0.000172571
0.00016572
0.000158783
0.000151761
0.000144657
0.000137472
0.000130208
0.000122865
0.000115445
0.00010795
0.00010038
9.27362e-05
8.50207e-05
7.7234e-05
6.93773e-05
6.14514e-05
5.34574e-05
4.53963e-05
3.72689e-05
2.90762e-05
2.0819e-05
1.24981e-05
4.11151e-06
0.00125072
0.00121037
0.00116697
0.0011201
0.0010698
0.00101692
0.000962563
0.000907742
0.000853344
0.000800144
0.000748802
0.000699849
0.000653682
0.000610571
0.00057067
0.000534039
0.000500658
0.000470455
0.000443314
0.000419101
0.000397669
0.000378874
0.000362572
0.00034863
0.000336918
0.00032731
0.000319674
0.000313872
0.000309751
0.000307138
0.000305845
0.000305667
0.000306389
0.000307793
0.000309671
0.000311826
0.000314087
0.000316303
0.000318351
0.000320137
0.000321586
0.000322649
0.000323294
0.000323504
0.000323276
0.000322614
0.000321533
0.000320049
0.000318184
0.00031596
0.000313401
0.00031053
0.00030737
0.000303942
0.000300267
0.000296362
0.000292244
0.000287928
0.000283427
0.000278753
0.000273915
0.000268924
0.000263788
0.000258512
0.000253105
0.00024757
0.000241914
0.00023614
0.000230254
0.000224257
0.000218154
0.000211948
0.000205642
0.000199238
0.000192738
0.000186146
0.000179462
0.000172689
0.00016583
0.000158884
0.000151856
0.000144745
0.000137553
0.000130282
0.000122933
0.000115507
0.000108007
0.000100431
9.27831e-05
8.50628e-05
7.72716e-05
6.94104e-05
6.14803e-05
5.34821e-05
4.5417e-05
3.72857e-05
2.90891e-05
2.08283e-05
1.2504e-05
4.11421e-06
0.0012245
0.0011865
0.00114592
0.00110229
0.00105556
0.00100644
0.000955872
0.000904748
0.000853845
0.000803857
0.000755387
0.000708933
0.000664881
0.000623505
0.000584982
0.0005494
0.000516778
0.000487077
0.000460222
0.000436111
0.000414627
0.000395648
0.000379049
0.00036471
0.00035251
0.000342328
0.00033404
0.000327511
0.000322595
0.000319133
0.000316948
0.000315853
0.00031565
0.000316142
0.000317137
0.000318454
0.000319933
0.00032143
0.000322829
0.000324033
0.000324968
0.000325582
0.000325837
0.000325712
0.000325198
0.000324293
0.000323005
0.000321348
0.000319336
0.000316988
0.000314324
0.000311365
0.00030813
0.000304637
0.000300906
0.000296951
0.00029279
0.000288435
0.000283899
0.000279193
0.000274326
0.000269308
0.000264147
0.000258848
0.000253419
0.000247864
0.000242189
0.000236397
0.000230494
0.000224481
0.000218364
0.000212144
0.000205824
0.000199408
0.000192897
0.000186293
0.000179599
0.000172817
0.000165948
0.000158994
0.000151957
0.000144838
0.000137639
0.000130362
0.000123006
0.000115575
0.000108068
0.000100487
9.28335e-05
8.51081e-05
7.7312e-05
6.9446e-05
6.15114e-05
5.35088e-05
4.54393e-05
3.73038e-05
2.91033e-05
2.08385e-05
1.25104e-05
4.11718e-06
0.00120002
0.00116418
0.00112615
0.00108545
0.00104194
0.00099622
0.000949109
0.000901376
0.000853708
0.000806721
0.000760965
0.000716903
0.000674905
0.000635246
0.000598114
0.000563621
0.000531813
0.000502683
0.000476188
0.000452253
0.000430789
0.000411694
0.000394862
0.000380186
0.000367554
0.000356854
0.000347968
0.000340767
0.000335116
0.000330864
0.000327847
0.000325894
0.000324825
0.000324459
0.00032462
0.00032514
0.00032587
0.000326675
0.000327442
0.000328077
0.000328505
0.000328671
0.000328535
0.000328071
0.000327263
0.000326106
0.000324604
0.000322763
0.000320595
0.000318114
0.000315338
0.000312282
0.000308963
0.000305399
0.000301605
0.000297596
0.000293386
0.000288987
0.000284412
0.000279671
0.000274772
0.000269724
0.000264535
0.000259211
0.000253757
0.00024818
0.000242484
0.000236673
0.000230752
0.000224722
0.000218589
0.000212354
0.00020602
0.00019959
0.000193066
0.000186451
0.000179746
0.000172953
0.000166075
0.000159112
0.000152066
0.000144939
0.000137732
0.000130447
0.000123085
0.000115647
0.000108134
0.000100547
9.28876e-05
8.51567e-05
7.73553e-05
6.94844e-05
6.15448e-05
5.35375e-05
4.54634e-05
3.73235e-05
2.91186e-05
2.08496e-05
1.25174e-05
4.12041e-06
0.00117713
0.00114328
0.00110758
0.00106951
0.00102892
0.000986287
0.000942326
0.000897705
0.000853026
0.000808841
0.000765643
0.000723864
0.000683851
0.000645878
0.000610138
0.000576759
0.000545808
0.000517305
0.000491232
0.000467539
0.00044616
0.000427013
0.000410009
0.000395054
0.000382047
0.000370883
0.000361453
0.000353637
0.000347307
0.000342322
0.000338533
0.000335781
0.000333901
0.000332729
0.000332102
0.000331866
0.000331881
0.00033202
0.000332175
0.000332254
0.000332183
0.000331906
0.000331378
0.000330571
0.000329464
0.00032805
0.000326325
0.000324292
0.000321959
0.000319338
0.00031644
0.000313279
0.00030987
0.000306228
0.000302365
0.000298295
0.000294032
0.000289586
0.000284968
0.000280187
0.000275252
0.000270172
0.000264953
0.000259601
0.000254122
0.00024852
0.000242802
0.00023697
0.000231028
0.00022498
0.00021883
0.000212578
0.000206229
0.000199785
0.000193248
0.00018662
0.000179904
0.0001731
0.000166211
0.000159238
0.000152183
0.000145047
0.000137832
0.000130539
0.000123169
0.000115724
0.000108204
0.000100611
9.29456e-05
8.52089e-05
7.74018e-05
6.95255e-05
6.15806e-05
5.35683e-05
4.54893e-05
3.73446e-05
2.9135e-05
2.08616e-05
1.2525e-05
4.12391e-06
0.00115567
0.00112366
0.00109008
0.00105442
0.00101647
0.000976649
0.000935562
0.000893798
0.000851884
0.000810309
0.00076952
0.00072991
0.00069181
0.000655482
0.000621123
0.000588871
0.00055881
0.000530978
0.000505378
0.000481984
0.000460749
0.00044161
0.000424492
0.000409313
0.000395985
0.000384412
0.000374493
0.000366116
0.000359161
0.000353501
0.000348996
0.0003455
0.000342864
0.000340935
0.000339566
0.000338613
0.000337946
0.000337447
0.00033701
0.000336549
0.000335989
0.000335273
0.000334355
0.000333204
0.000331796
0.000330118
0.000328163
0.000325932
0.000323427
0.000320657
0.00031763
0.000314358
0.000310852
0.000307124
0.000303187
0.000299052
0.00029473
0.000290231
0.000285566
0.000280743
0.000275769