/*--------------------------------*- C++ -*----------------------------------*\
| =========                 |                                                 |
| \\      /  F ield         | OpenFOAM: The Open Source CFD Toolbox           |
|  \\    /   O peration     | Version:  2.3.0                                 |
|   \\  /    A nd           | Web:      www.OpenFOAM.org                      |
|    \\/     M anipulation  |                                                 |
\*---------------------------------------------------------------------------*/
FoamFile
{
    version     2.0;
    format      ascii;
    class       volVectorField;
    location    "0.1";
    object      U_0;
}
// * * * * * * * * * * * * * * * * * * * * * * * * * * * * * * * * * * * * * //

dimensions      [0 1 -1 0 0 0 0];

internalField   nonuniform List<vector> 
8750
(
(0.171859 0.00591443 0)
(0.155469 0.00600307 0)
(0.139708 0.00559362 0)
(0.124761 0.00500098 0)
(0.111045 0.00434419 0)
(0.0987314 0.00367688 0)
(0.0878338 0.00303598 0)
(0.0783178 0.00244708 0)
(0.0701284 0.00192575 0)
(0.0631818 0.00147988 0)
(0.0573658 0.00111124 0)
(0.0525491 0.000816464 0)
(0.0485926 0.000588275 0)
(0.0453589 0.000417063 0)
(0.0427198 0.000292393 0)
(0.0405609 0.000204192 0)
(0.0387847 0.000143516 0)
(0.0373111 0.000102904 0)
(0.0360763 7.64405e-05 0)
(0.0350308 5.96211e-05 0)
(0.0341376 4.90964e-05 0)
(0.0333695 4.23403e-05 0)
(0.0327077 3.73116e-05 0)
(0.0321407 3.22423e-05 0)
(0.0316636 2.57207e-05 0)
(0.0312767 1.71379e-05 0)
(0.0309848 6.97569e-06 0)
(0.0307948 -3.93129e-06 0)
(0.0307155 -1.21426e-05 0)
(0.0307353 -1.64606e-05 0)
(0.0308145 -1.74338e-05 0)
(0.0309343 -1.87719e-05 0)
(0.0310778 -1.93335e-05 0)
(0.0312296 -1.85656e-05 0)
(0.0313776 -1.68982e-05 0)
(0.0315146 -1.48478e-05 0)
(0.0316368 -1.27474e-05 0)
(0.0317431 -1.07759e-05 0)
(0.0318338 -9.01638e-06 0)
(0.0319102 -7.49506e-06 0)
(0.0319739 -6.20534e-06 0)
(0.0320265 -5.12352e-06 0)
(0.0320696 -4.22105e-06 0)
(0.0321048 -3.47244e-06 0)
(0.0321334 -2.85571e-06 0)
(0.0321565 -2.35147e-06 0)
(0.0321753 -1.94252e-06 0)
(0.0321905 -1.61316e-06 0)
(0.0322028 -1.34875e-06 0)
(0.0322129 -1.1368e-06 0)
(0.0322212 -9.67821e-07 0)
(0.0322281 -8.33698e-07 0)
(0.0322339 -7.27399e-07 0)
(0.0322389 -6.42897e-07 0)
(0.0322433 -5.75169e-07 0)
(0.0322471 -5.20217e-07 0)
(0.0322505 -4.74853e-07 0)
(0.0322536 -4.36591e-07 0)
(0.0322564 -4.03603e-07 0)
(0.0322589 -3.74405e-07 0)
(0.0322613 -3.48206e-07 0)
(0.0322635 -3.24121e-07 0)
(0.0322655 -3.01772e-07 0)
(0.0322674 -2.81014e-07 0)
(0.0322692 -2.61646e-07 0)
(0.0322708 -2.43479e-07 0)
(0.0322723 -2.26435e-07 0)
(0.0322737 -2.10557e-07 0)
(0.032275 -1.95664e-07 0)
(0.0322762 -1.81688e-07 0)
(0.0322773 -1.6863e-07 0)
(0.0322784 -1.56437e-07 0)
(0.0322793 -1.45037e-07 0)
(0.0322802 -1.34394e-07 0)
(0.032281 -1.24421e-07 0)
(0.0322818 -1.15135e-07 0)
(0.0322825 -1.06461e-07 0)
(0.0322831 -9.83155e-08 0)
(0.0322837 -9.06919e-08 0)
(0.0322843 -8.35322e-08 0)
(0.0322848 -7.68112e-08 0)
(0.0322852 -7.04704e-08 0)
(0.0322857 -6.44916e-08 0)
(0.0322861 -5.88291e-08 0)
(0.0322864 -5.34679e-08 0)
(0.0322867 -4.83645e-08 0)
(0.032287 -4.34707e-08 0)
(0.0322872 -3.88059e-08 0)
(0.0322875 -3.43352e-08 0)
(0.0322876 -2.99666e-08 0)
(0.0322878 -2.57209e-08 0)
(0.0322879 -2.16497e-08 0)
(0.032288 -1.77245e-08 0)
(0.0322881 -1.39592e-08 0)
(0.0322881 -1.06147e-08 0)
(0.0322882 -7.44963e-09 0)
(0.0322881 -2.90888e-09 0)
(0.0322881 3.40753e-09 0)
(0.032288 8.81889e-09 0)
(0.0322875 9.19514e-08 0)
(0.190733 0.00935302 0)
(0.188472 0.0098716 0)
(0.184607 0.00964731 0)
(0.179494 0.0091479 0)
(0.173639 0.00851375 0)
(0.167396 0.007791 0)
(0.160989 0.00701744 0)
(0.154587 0.00622783 0)
(0.148327 0.00545123 0)
(0.14231 0.00471138 0)
(0.136607 0.00402685 0)
(0.13126 0.00341039 0)
(0.126291 0.00286874 0)
(0.121704 0.00240307 0)
(0.117494 0.00200997 0)
(0.113649 0.00168282 0)
(0.110151 0.00141314 0)
(0.10698 0.00119178 0)
(0.104117 0.00100981 0)
(0.101542 0.000859129 0)
(0.0992379 0.000732681 0)
(0.0971908 0.000624382 0)
(0.0953897 0.000528894 0)
(0.093828 0.000441396 0)
(0.0925024 0.000357717 0)
(0.0914115 0.000275101 0)
(0.0905519 0.00019304 0)
(0.0899132 0.000112302 0)
(0.0894732 3.48755e-05 0)
(0.0892372 -3.4354e-05 0)
(0.0892205 -8.24306e-05 0)
(0.0893408 -0.000107301 0)
(0.0895457 -0.000115811 0)
(0.089797 -0.00011365 0)
(0.0900655 -0.000105032 0)
(0.0903313 -9.31877e-05 0)
(0.0905816 -8.03469e-05 0)
(0.0908091 -6.78637e-05 0)
(0.0910106 -5.64609e-05 0)
(0.0911856 -4.64511e-05 0)
(0.091335 -3.78981e-05 0)
(0.0914607 -3.07258e-05 0)
(0.0915653 -2.47918e-05 0)
(0.0916514 -1.99338e-05 0)
(0.0917214 -1.59921e-05 0)
(0.091778 -1.28196e-05 0)
(0.0918233 -1.02856e-05 0)
(0.0918594 -8.27649e-06 0)
(0.0918879 -6.69376e-06 0)
(0.0919105 -5.45365e-06 0)
(0.0919282 -4.48668e-06 0)
(0.0919423 -3.73527e-06 0)
(0.0919535 -3.15207e-06 0)
(0.0919625 -2.69849e-06 0)
(0.0919698 -2.34348e-06 0)
(0.0919758 -2.0626e-06 0)
(0.0919808 -1.83695e-06 0)
(0.091985 -1.65219e-06 0)
(0.0919887 -1.49768e-06 0)
(0.0919919 -1.36532e-06 0)
(0.0919947 -1.24983e-06 0)
(0.0919972 -1.14683e-06 0)
(0.0919994 -1.05358e-06 0)
(0.0920013 -9.68628e-07 0)
(0.0920031 -8.90932e-07 0)
(0.0920047 -8.19432e-07 0)
(0.0920061 -7.53497e-07 0)
(0.0920074 -6.92699e-07 0)
(0.0920086 -6.36624e-07 0)
(0.0920096 -5.84858e-07 0)
(0.0920105 -5.37053e-07 0)
(0.0920113 -4.92961e-07 0)
(0.0920121 -4.52262e-07 0)
(0.0920127 -4.14702e-07 0)
(0.0920133 -3.7995e-07 0)
(0.0920138 -3.47868e-07 0)
(0.0920143 -3.18188e-07 0)
(0.0920147 -2.90636e-07 0)
(0.092015 -2.65067e-07 0)
(0.0920153 -2.41266e-07 0)
(0.0920156 -2.19104e-07 0)
(0.0920158 -1.98388e-07 0)
(0.092016 -1.78964e-07 0)
(0.0920161 -1.60685e-07 0)
(0.0920162 -1.43464e-07 0)
(0.0920163 -1.27229e-07 0)
(0.0920163 -1.11785e-07 0)
(0.0920164 -9.7079e-08 0)
(0.0920163 -8.30521e-08 0)
(0.0920163 -6.9727e-08 0)
(0.0920162 -5.70196e-08 0)
(0.0920162 -4.42184e-08 0)
(0.0920161 -3.0922e-08 0)
(0.0920159 -1.74186e-08 0)
(0.0920157 -3.68363e-09 0)
(0.0920155 1.09558e-08 0)
(0.0920152 2.87586e-08 0)
(0.0920149 5.22799e-08 0)
(0.0920145 9.00388e-08 0)
(0.0920135 2.53966e-07 0)
(0.193718 0.008953 0)
(0.194556 0.00991179 0)
(0.194738 0.0102386 0)
(0.194116 0.0102349 0)
(0.19281 0.010003 0)
(0.190945 0.00958079 0)
(0.188616 0.009013 0)
(0.185916 0.00834899 0)
(0.182941 0.00763376 0)
(0.179782 0.00690532 0)
(0.176519 0.00619414 0)
(0.17322 0.00552262 0)
(0.169939 0.004905 0)
(0.16672 0.00434815 0)
(0.163595 0.003853 0)
(0.160588 0.00341621 0)
(0.157718 0.00303184 0)
(0.154996 0.0026927 0)
(0.152434 0.00239138 0)
(0.15004 0.00212078 0)
(0.14782 0.00187435 0)
(0.145783 0.00164614 0)
(0.143937 0.00143068 0)
(0.142291 0.00122317 0)
(0.140855 0.00101999 0)
(0.139633 0.000819693 0)
(0.138627 0.00062367 0)
(0.137833 0.000436002 0)
(0.13724 0.000260006 0)
(0.136811 9.85435e-05 0)
(0.136524 -3.75958e-05 0)
(0.136411 -0.000134464 0)
(0.136429 -0.000191929 0)
(0.136547 -0.00021884 0)
(0.136732 -0.000224181 0)
(0.136958 -0.000215393 0)
(0.137204 -0.000198245 0)
(0.137455 -0.000176896 0)
(0.137699 -0.000154162 0)
(0.137929 -0.000131839 0)
(0.138138 -0.000110991 0)
(0.138326 -9.21837e-05 0)
(0.13849 -7.56539e-05 0)
(0.138632 -6.14274e-05 0)
(0.138752 -4.94006e-05 0)
(0.138851 -3.93951e-05 0)
(0.138933 -3.11937e-05 0)
(0.139 -2.45648e-05 0)
(0.139052 -1.92779e-05 0)
(0.139094 -1.51143e-05 0)
(0.139126 -1.18732e-05 0)
(0.13915 -9.37598e-06 0)
(0.139169 -7.46768e-06 0)
(0.139182 -6.01753e-06 0)
(0.139192 -4.91766e-06 0)
(0.1392 -4.0814e-06 0)
(0.139205 -3.44085e-06 0)
(0.139208 -2.94414e-06 0)
(0.139211 -2.55254e-06 0)
(0.139212 -2.23726e-06 0)
(0.139214 -1.97794e-06 0)
(0.139214 -1.75955e-06 0)
(0.139214 -1.57173e-06 0)
(0.139214 -1.40806e-06 0)
(0.139214 -1.26407e-06 0)
(0.139214 -1.1359e-06 0)
(0.139213 -1.02085e-06 0)
(0.139213 -9.17066e-07 0)
(0.139212 -8.23161e-07 0)
(0.139212 -7.38191e-07 0)
(0.139211 -6.61172e-07 0)
(0.13921 -5.91405e-07 0)
(0.13921 -5.28252e-07 0)
(0.139209 -4.71037e-07 0)
(0.139208 -4.19111e-07 0)
(0.139207 -3.72024e-07 0)
(0.139207 -3.29227e-07 0)
(0.139206 -2.90267e-07 0)
(0.139205 -2.54666e-07 0)
(0.139205 -2.2197e-07 0)
(0.139204 -1.91859e-07 0)
(0.139203 -1.64034e-07 0)
(0.139202 -1.38244e-07 0)
(0.139202 -1.14224e-07 0)
(0.139201 -9.17281e-08 0)
(0.1392 -7.05893e-08 0)
(0.1392 -5.05215e-08 0)
(0.139199 -3.13188e-08 0)
(0.139199 -1.28423e-08 0)
(0.139198 5.04114e-09 0)
(0.139197 2.25085e-08 0)
(0.139197 4.04138e-08 0)
(0.139196 5.93629e-08 0)
(0.139195 7.93831e-08 0)
(0.139195 1.0124e-07 0)
(0.139194 1.26487e-07 0)
(0.139193 1.57437e-07 0)
(0.139193 1.99465e-07 0)
(0.139192 2.75965e-07 0)
(0.139191 4.72714e-07 0)
(0.194743 0.00829171 0)
(0.195956 0.00934568 0)
(0.19706 0.00989389 0)
(0.197835 0.0101238 0)
(0.198264 0.01012 0)
(0.198355 0.00991506 0)
(0.19811 0.00954443 0)
(0.197538 0.0090509 0)
(0.196668 0.00847607 0)
(0.19554 0.00785692 0)
(0.194201 0.00722477 0)
(0.192697 0.00660439 0)
(0.191073 0.00601338 0)
(0.18937 0.00546242 0)
(0.187623 0.00495627 0)
(0.185862 0.00449505 0)
(0.184112 0.00407574 0)
(0.182395 0.0036934 0)
(0.180728 0.00334215 0)
(0.179128 0.00301582 0)
(0.177607 0.00270832 0)
(0.176181 0.00241382 0)
(0.174862 0.002127 0)
(0.173662 0.00184348 0)
(0.172593 0.00156069 0)
(0.17166 0.00127885 0)
(0.170868 0.00100151 0)
(0.170214 0.000735323 0)
(0.169693 0.000488987 0)
(0.169294 0.00027058 0)
(0.168985 8.35778e-05 0)
(0.168758 -6.55736e-05 0)
(0.168626 -0.00017159 0)
(0.16858 -0.000238429 0)
(0.168606 -0.000274145 0)
(0.168691 -0.000286693 0)
(0.168819 -0.000282906 0)
(0.168977 -0.000268278 0)
(0.169153 -0.000247006 0)
(0.169338 -0.000222172 0)
(0.169523 -0.000195977 0)
(0.169703 -0.000169946 0)
(0.169871 -0.000145105 0)
(0.170026 -0.000122113 0)
(0.170164 -0.000101354 0)
(0.170286 -8.30121e-05 0)
(0.170391 -6.71218e-05 0)
(0.170479 -5.36084e-05 0)
(0.170551 -4.23187e-05 0)
(0.17061 -3.30479e-05 0)
(0.170656 -2.55606e-05 0)
(0.170692 -1.96099e-05 0)
(0.170718 -1.49519e-05 0)
(0.170738 -1.13566e-05 0)
(0.170751 -8.6161e-06 0)
(0.17076 -6.54841e-06 0)
(0.170766 -4.99987e-06 0)
(0.170769 -3.84465e-06 0)
(0.17077 -2.98286e-06 0)
(0.170769 -2.33729e-06 0)
(0.170767 -1.84904e-06 0)
(0.170765 -1.47428e-06 0)
(0.170763 -1.18074e-06 0)
(0.17076 -9.45544e-07 0)
(0.170757 -7.53071e-07 0)
(0.170754 -5.93972e-07 0)
(0.170751 -4.61682e-07 0)
(0.170747 -3.50861e-07 0)
(0.170744 -2.57251e-07 0)
(0.170741 -1.77803e-07 0)
(0.170738 -1.10051e-07 0)
(0.170736 -5.22385e-08 0)
(0.170733 -2.97324e-09 0)
(0.17073 3.89107e-08 0)
(0.170728 7.45157e-08 0)
(0.170725 1.04678e-07 0)
(0.170723 1.30194e-07 0)
(0.170721 1.51758e-07 0)
(0.170718 1.70031e-07 0)
(0.170716 1.85658e-07 0)
(0.170714 1.99102e-07 0)
(0.170712 2.10772e-07 0)
(0.170711 2.21015e-07 0)
(0.170709 2.30182e-07 0)
(0.170707 2.3861e-07 0)
(0.170706 2.46538e-07 0)
(0.170704 2.54298e-07 0)
(0.170703 2.62191e-07 0)
(0.170701 2.70423e-07 0)
(0.1707 2.79377e-07 0)
(0.170699 2.89384e-07 0)
(0.170697 3.00741e-07 0)
(0.170696 3.13737e-07 0)
(0.170695 3.29083e-07 0)
(0.170694 3.47973e-07 0)
(0.170693 3.72403e-07 0)
(0.170691 4.05682e-07 0)
(0.17069 4.55923e-07 0)
(0.170689 5.49938e-07 0)
(0.170688 7.44216e-07 0)
(0.195454 0.00776825 0)
(0.196538 0.00876132 0)
(0.197692 0.0093486 0)
(0.198742 0.00965118 0)
(0.199645 0.00974386 0)
(0.200386 0.00965675 0)
(0.200941 0.00941598 0)
(0.201289 0.00905382 0)
(0.201424 0.00860378 0)
(0.201355 0.00809707 0)
(0.201097 0.00756137 0)
(0.200676 0.00701973 0)
(0.200116 0.00648969 0)
(0.199446 0.00598304 0)
(0.198692 0.00550627 0)
(0.197877 0.00506149 0)
(0.197024 0.00464757 0)
(0.19615 0.00426121 0)
(0.195273 0.00389781 0)
(0.194405 0.00355213 0)
(0.193561 0.00321878 0)
(0.192751 0.00289251 0)
(0.191987 0.00256869 0)
(0.191276 0.00224387 0)
(0.190626 0.00191676 0)
(0.190042 0.00158907 0)
(0.189524 0.00126586 0)
(0.189074 0.000955241 0)
(0.188688 0.000667325 0)
(0.188365 0.000412487 0)
(0.188097 0.00019661 0)
(0.187868 2.11311e-05 0)
(0.187685 -0.000112734 0)
(0.187553 -0.000206741 0)
(0.18747 -0.000266945 0)
(0.187434 -0.000300373 0)
(0.187438 -0.000313441 0)
(0.187476 -0.000311591 0)
(0.187541 -0.000299231 0)
(0.187626 -0.00027982 0)
(0.187724 -0.000256017 0)
(0.18783 -0.000229848 0)
(0.187939 -0.000202843 0)
(0.188046 -0.000176148 0)
(0.188148 -0.000150603 0)
(0.188242 -0.000126805 0)
(0.188327 -0.000105151 0)
(0.188402 -8.58676e-05 0)
(0.188466 -6.9041e-05 0)
(0.188519 -5.46439e-05 0)
(0.188562 -4.25589e-05 0)
(0.188596 -3.26031e-05 0)
(0.188621 -2.45507e-05 0)
(0.18864 -1.8154e-05 0)
(0.188652 -1.3161e-05 0)
(0.188659 -9.32896e-06 0)
(0.188663 -6.43499e-06 0)
(0.188663 -4.28204e-06 0)
(0.188661 -2.70172e-06 0)
(0.188658 -1.55182e-06 0)
(0.188654 -7.16102e-07 0)
(0.188648 -1.11053e-07 0)
(0.188642 3.21549e-07 0)
(0.188636 6.27181e-07 0)
(0.18863 8.4093e-07 0)
(0.188624 9.87713e-07 0)
(0.188618 1.08582e-06 0)
(0.188612 1.14886e-06 0)
(0.188607 1.18674e-06 0)
(0.188602 1.20624e-06 0)
(0.188596 1.21224e-06 0)
(0.188592 1.20804e-06 0)
(0.188587 1.19606e-06 0)
(0.188582 1.17801e-06 0)
(0.188578 1.15538e-06 0)
(0.188574 1.12933e-06 0)
(0.18857 1.10076e-06 0)
(0.188567 1.07054e-06 0)
(0.188563 1.03929e-06 0)
(0.18856 1.00767e-06 0)
(0.188557 9.7613e-07 0)
(0.188554 9.45127e-07 0)
(0.188551 9.15049e-07 0)
(0.188548 8.86225e-07 0)
(0.188546 8.58964e-07 0)
(0.188543 8.33454e-07 0)
(0.188541 8.09955e-07 0)
(0.188539 7.88753e-07 0)
(0.188537 7.70013e-07 0)
(0.188535 7.54067e-07 0)
(0.188533 7.4118e-07 0)
(0.188531 7.31675e-07 0)
(0.188529 7.25944e-07 0)
(0.188528 7.24759e-07 0)
(0.188526 7.29413e-07 0)
(0.188525 7.42127e-07 0)
(0.188523 7.66852e-07 0)
(0.188522 8.12663e-07 0)
(0.18852 9.02733e-07 0)
(0.188519 1.06831e-06 0)
(0.196053 0.00731633 0)
(0.196969 0.00821036 0)
(0.198001 0.00878635 0)
(0.199017 0.00911423 0)
(0.199973 0.00925297 0)
(0.200849 0.00923041 0)
(0.201623 0.00906796 0)
(0.202273 0.00879151 0)
(0.202783 0.00842892 0)
(0.203151 0.00800685 0)
(0.20338 0.00754927 0)
(0.20348 0.00707665 0)
(0.203466 0.00660511 0)
(0.203354 0.00614603 0)
(0.203161 0.00570628 0)
(0.202905 0.00528884 0)
(0.202599 0.00489367 0)
(0.202259 0.00451857 0)
(0.201895 0.00415995 0)
(0.201518 0.00381346 0)
(0.201137 0.00347446 0)
(0.200758 0.00313845 0)
(0.200388 0.00280161 0)
(0.20003 0.00246141 0)
(0.199687 0.00211754 0)
(0.199361 0.00177253 0)
(0.199052 0.00143211 0)
(0.198758 0.00110466 0)
(0.198481 0.000800297 0)
(0.198222 0.000529229 0)
(0.197984 0.000298892 0)
(0.197767 0.000110686 0)
(0.197568 -3.70461e-05 0)
(0.197395 -0.000146812 0)
(0.197253 -0.000223201 0)
(0.197141 -0.000272101 0)
(0.197059 -0.000299211 0)
(0.197004 -0.000309524 0)
(0.196974 -0.000307226 0)
(0.196965 -0.000295724 0)
(0.196973 -0.000277744 0)
(0.196993 -0.000255461 0)
(0.197023 -0.000230605 0)
(0.197059 -0.000204558 0)
(0.197099 -0.000178417 0)
(0.197139 -0.000153042 0)
(0.197178 -0.000129088 0)
(0.197213 -0.000107025 0)
(0.197245 -8.71637e-05 0)
(0.197272 -6.96653e-05 0)
(0.197294 -5.45675e-05 0)
(0.197311 -4.18045e-05 0)
(0.197324 -3.12309e-05 0)
(0.197331 -2.26449e-05 0)
(0.197335 -1.58115e-05 0)
(0.197336 -1.04815e-05 0)
(0.197333 -6.40854e-06 0)
(0.197329 -3.35842e-06 0)
(0.197323 -1.11576e-06 0)
(0.197316 5.04725e-07 0)
(0.197308 1.65094e-06 0)
(0.197299 2.43652e-06 0)
(0.19729 2.94939e-06 0)
(0.197282 3.261e-06 0)
(0.197273 3.42841e-06 0)
(0.197265 3.49595e-06 0)
(0.197257 3.49623e-06 0)
(0.197249 3.452e-06 0)
(0.197242 3.37879e-06 0)
(0.197235 3.28685e-06 0)
(0.197228 3.18313e-06 0)
(0.197222 3.07223e-06 0)
(0.197215 2.95735e-06 0)
(0.19721 2.8406e-06 0)
(0.197204 2.72366e-06 0)
(0.197199 2.60778e-06 0)
(0.197194 2.49385e-06 0)
(0.197189 2.38267e-06 0)
(0.197185 2.27475e-06 0)
(0.197181 2.17065e-06 0)
(0.197177 2.07071e-06 0)
(0.197173 1.97524e-06 0)
(0.197169 1.88447e-06 0)
(0.197166 1.79859e-06 0)
(0.197163 1.7178e-06 0)
(0.19716 1.64216e-06 0)
(0.197157 1.57178e-06 0)
(0.197154 1.50684e-06 0)
(0.197152 1.44742e-06 0)
(0.197149 1.3937e-06 0)
(0.197147 1.34587e-06 0)
(0.197145 1.30422e-06 0)
(0.197142 1.26909e-06 0)
(0.19714 1.24123e-06 0)
(0.197138 1.22193e-06 0)
(0.197137 1.21342e-06 0)
(0.197135 1.21973e-06 0)
(0.197133 1.24921e-06 0)
(0.197132 1.31884e-06 0)
(0.19713 1.44096e-06 0)
(0.196576 0.00692691 0)
(0.197353 0.00772225 0)
(0.198252 0.00827056 0)
(0.199174 0.00860488 0)
(0.200072 0.00876715 0)
(0.200926 0.00878223 0)
(0.201715 0.00866919 0)
(0.202421 0.00844996 0)
(0.203031 0.00814849 0)
(0.203538 0.00778797 0)
(0.203943 0.00738942 0)
(0.204251 0.00697096 0)
(0.204469 0.00654714 0)
(0.204608 0.00612861 0)
(0.204682 0.00572216 0)
(0.2047 0.0053312 0)
(0.204674 0.00495641 0)
(0.204613 0.00459641 0)
(0.204526 0.00424845 0)
(0.204419 0.00390898 0)
(0.204297 0.00357413 0)
(0.204164 0.00324016 0)
(0.204021 0.00290399 0)
(0.20387 0.00256388 0)
(0.203709 0.00222009 0)
(0.203538 0.00187551 0)
(0.203355 0.00153581 0)
(0.20316 0.00120897 0)
(0.202953 0.000904304 0)
(0.202739 0.000631059 0)
(0.202523 0.000396299 0)
(0.202312 0.000202573 0)
(0.202109 4.79638e-05 0)
(0.201918 -7.07537e-05 0)
(0.201745 -0.000157557 0)
(0.201592 -0.000217353 0)
(0.20146 -0.000255125 0)
(0.20135 -0.000275388 0)
(0.201258 -0.000282024 0)
(0.201185 -0.000278277 0)
(0.201128 -0.000266812 0)
(0.201085 -0.000249808 0)
(0.201053 -0.000229055 0)
(0.20103 -0.000206021 0)
(0.201015 -0.000181919 0)
(0.201005 -0.000157737 0)
(0.200999 -0.000134269 0)
(0.200995 -0.000112129 0)
(0.200993 -9.17656e-05 0)
(0.200991 -7.34707e-05 0)
(0.200989 -5.73998e-05 0)
(0.200986 -4.35873e-05 0)
(0.200981 -3.19688e-05 0)
(0.200976 -2.24038e-05 0)
(0.200969 -1.46992e-05 0)
(0.200961 -8.63027e-06 0)
(0.200952 -3.9581e-06 0)
(0.200942 -4.43603e-07 0)
(0.200932 2.13547e-06 0)
(0.200921 3.96939e-06 0)
(0.20091 5.21583e-06 0)
(0.200899 6.01093e-06 0)
(0.200888 6.47053e-06 0)
(0.200878 6.68785e-06 0)
(0.200868 6.73516e-06 0)
(0.200858 6.66692e-06 0)
(0.200849 6.52268e-06 0)
(0.20084 6.33013e-06 0)
(0.200831 6.10839e-06 0)
(0.200823 5.87015e-06 0)
(0.200815 5.624e-06 0)
(0.200808 5.37561e-06 0)
(0.200801 5.12881e-06 0)
(0.200794 4.88608e-06 0)
(0.200788 4.6492e-06 0)
(0.200782 4.41942e-06 0)
(0.200776 4.19757e-06 0)
(0.20077 3.9843e-06 0)
(0.200765 3.77996e-06 0)
(0.200761 3.58489e-06 0)
(0.200756 3.39924e-06 0)
(0.200752 3.22311e-06 0)
(0.200748 3.05652e-06 0)
(0.200744 2.89945e-06 0)
(0.20074 2.75191e-06 0)
(0.200737 2.61377e-06 0)
(0.200734 2.48495e-06 0)
(0.20073 2.36548e-06 0)
(0.200728 2.25523e-06 0)
(0.200725 2.15428e-06 0)
(0.200722 2.06263e-06 0)
(0.20072 1.98046e-06 0)
(0.200717 1.90805e-06 0)
(0.200715 1.84601e-06 0)
(0.200713 1.79553e-06 0)
(0.200711 1.75867e-06 0)
(0.200709 1.73907e-06 0)
(0.200707 1.7435e-06 0)
(0.200705 1.78275e-06 0)
(0.200703 1.85578e-06 0)
(0.197035 0.00658845 0)
(0.197704 0.00729285 0)
(0.198488 0.00780481 0)
(0.199312 0.00813441 0)
(0.200134 0.00830896 0)
(0.200928 0.00834923 0)
(0.201676 0.00827209 0)
(0.202362 0.00809622 0)
(0.202974 0.00784214 0)
(0.203506 0.0075301 0)
(0.203957 0.00717867 0)
(0.204331 0.00680401 0)
(0.204632 0.00641936 0)
(0.204868 0.00603466 0)
(0.20505 0.00565658 0)
(0.205185 0.00528884 0)
(0.205282 0.00493268 0)
(0.205348 0.00458745 0)
(0.205389 0.00425119 0)
(0.205409 0.0039211 0)
(0.205411 0.00359407 0)
(0.205396 0.00326712 0)
(0.205366 0.00293788 0)
(0.205317 0.00260518 0)
(0.205249 0.00226969 0)
(0.205159 0.00193431 0)
(0.205044 0.0016043 0)
(0.204904 0.00128684 0)
(0.20474 0.000990183 0)
(0.204557 0.000722372 0)
(0.20436 0.00048963 0)
(0.204158 0.000294807 0)
(0.203957 0.000136954 0)
(0.203763 1.3028e-05 0)
(0.203578 -8.06797e-05 0)
(0.203408 -0.000148353 0)
(0.203253 -0.000194329 0)
(0.203114 -0.000222663 0)
(0.202991 -0.000236934 0)
(0.202883 -0.000240196 0)
(0.20279 -0.000235016 0)
(0.20271 -0.000223536 0)
(0.202641 -0.000207543 0)
(0.202583 -0.000188535 0)
(0.202533 -0.000167766 0)
(0.202491 -0.000146281 0)
(0.202456 -0.000124937 0)
(0.202426 -0.000104417 0)
(0.2024 -8.52426e-05 0)
(0.202377 -6.77795e-05 0)
(0.202358 -5.22545e-05 0)
(0.20234 -3.87696e-05 0)
(0.202323 -2.73213e-05 0)
(0.202307 -1.78222e-05 0)
(0.202292 -1.01225e-05 0)
(0.202278 -4.03053e-06 0)
(0.202264 6.67858e-07 0)
(0.20225 4.18969e-06 0)
(0.202237 6.73768e-06 0)
(0.202224 8.49627e-06 0)
(0.202211 9.63271e-06 0)
(0.202198 1.02934e-05 0)
(0.202186 1.06009e-05 0)
(0.202175 1.06534e-05 0)
(0.202164 1.05275e-05 0)
(0.202153 1.02812e-05 0)
(0.202143 9.95738e-06 0)
(0.202133 9.58633e-06 0)
(0.202124 9.18929e-06 0)
(0.202115 8.78054e-06 0)
(0.202107 8.36973e-06 0)
(0.202099 7.96323e-06 0)
(0.202091 7.56531e-06 0)
(0.202084 7.17867e-06 0)
(0.202077 6.8051e-06 0)
(0.202071 6.44575e-06 0)
(0.202065 6.10133e-06 0)
(0.202059 5.77229e-06 0)
(0.202054 5.45874e-06 0)
(0.202048 5.16075e-06 0)
(0.202044 4.87823e-06 0)
(0.202039 4.61102e-06 0)
(0.202035 4.35888e-06 0)
(0.202031 4.12153e-06 0)
(0.202027 3.89874e-06 0)
(0.202023 3.69018e-06 0)
(0.20202 3.49552e-06 0)
(0.202016 3.31457e-06 0)
(0.202013 3.14703e-06 0)
(0.20201 2.99277e-06 0)
(0.202008 2.85162e-06 0)
(0.202005 2.72361e-06 0)
(0.202003 2.60886e-06 0)
(0.202 2.50786e-06 0)
(0.201998 2.42156e-06 0)
(0.201996 2.35176e-06 0)
(0.201994 2.30145e-06 0)
(0.201992 2.27558e-06 0)
(0.20199 2.2798e-06 0)
(0.201988 2.30434e-06 0)
(0.19744 0.00628836 0)
(0.198025 0.00691134 0)
(0.198713 0.0073833 0)
(0.199449 0.00770157 0)
(0.200194 0.00788202 0)
(0.200924 0.00794069 0)
(0.20162 0.00789195 0)
(0.202266 0.00775156 0)
(0.202853 0.00753697 0)
(0.203373 0.00726577 0)
(0.203826 0.00695436 0)
(0.204212 0.00661722 0)
(0.204537 0.00626641 0)
(0.204806 0.00591123 0)
(0.205027 0.00555821 0)
(0.205206 0.0052113 0)
(0.205352 0.00487221 0)
(0.205469 0.00454096 0)
(0.205562 0.0042163 0)
(0.205635 0.0038962 0)
(0.205689 0.00357827 0)
(0.205724 0.00326025 0)
(0.205742 0.00294039 0)
(0.205738 0.00261805 0)
(0.205711 0.0022941 0)
(0.205658 0.00197134 0)
(0.205577 0.00165448 0)
(0.205467 0.00134985 0)
(0.20533 0.00106456 0)
(0.205169 0.000805521 0)
(0.20499 0.000578103 0)
(0.204801 0.000385041 0)
(0.204608 0.000226117 0)
(0.204418 9.8989e-05 0)
(0.204235 3.6345e-07 0)
(0.204061 -7.33516e-05 0)
(0.203899 -0.00012596 0)
(0.203751 -0.000161098 0)
(0.203616 -0.000182046 0)
(0.203494 -0.000191663 0)
(0.203385 -0.000192403 0)
(0.203288 -0.000186347 0)
(0.203202 -0.000175259 0)
(0.203127 -0.000160634 0)
(0.20306 -0.000143737 0)
(0.203002 -0.000125631 0)
(0.202952 -0.0001072 0)
(0.202908 -8.91565e-05 0)
(0.20287 -7.20571e-05 0)
(0.202836 -5.63078e-05 0)
(0.202807 -4.21773e-05 0)
(0.20278 -2.98116e-05 0)
(0.202757 -1.92514e-05 0)
(0.202736 -1.04517e-05 0)
(0.202716 -3.30182e-06 0)
(0.202698 2.35397e-06 0)
(0.202681 6.69573e-06 0)
(0.202665 9.91051e-06 0)
(0.20265 1.2183e-05 0)
(0.202635 1.36896e-05 0)
(0.202622 1.45908e-05 0)
(0.202608 1.50268e-05 0)
(0.202596 1.51158e-05 0)
(0.202583 1.49539e-05 0)
(0.202572 1.4617e-05 0)
(0.202561 1.41635e-05 0)
(0.20255 1.36367e-05 0)
(0.20254 1.30676e-05 0)
(0.202531 1.24783e-05 0)
(0.202521 1.18841e-05 0)
(0.202513 1.12951e-05 0)
(0.202505 1.07181e-05 0)
(0.202497 1.01576e-05 0)
(0.202489 9.61643e-06 0)
(0.202482 9.09625e-06 0)
(0.202476 8.59812e-06 0)
(0.20247 8.12252e-06 0)
(0.202464 7.66967e-06 0)
(0.202458 7.23942e-06 0)
(0.202453 6.83152e-06 0)
(0.202448 6.4456e-06 0)
(0.202443 6.08122e-06 0)
(0.202439 5.73785e-06 0)
(0.202434 5.41493e-06 0)
(0.20243 5.11195e-06 0)
(0.202427 4.82834e-06 0)
(0.202423 4.56353e-06 0)
(0.20242 4.31708e-06 0)
(0.202417 4.08848e-06 0)
(0.202414 3.87739e-06 0)
(0.202411 3.68344e-06 0)
(0.202408 3.50649e-06 0)
(0.202406 3.34649e-06 0)
(0.202403 3.20372e-06 0)
(0.202401 3.07891e-06 0)
(0.202399 2.97348e-06 0)
(0.202397 2.8897e-06 0)
(0.202395 2.83077e-06 0)
(0.202393 2.79851e-06 0)
(0.202391 2.77834e-06 0)
(0.197799 0.00601783 0)
(0.198317 0.00656934 0)
(0.198925 0.00700107 0)
(0.199583 0.00730401 0)
(0.200259 0.00748576 0)
(0.200928 0.0075578 0)
(0.201572 0.0075319 0)
(0.202176 0.00742121 0)
(0.20273 0.00724047 0)
(0.203228 0.00700483 0)
(0.203668 0.00672871 0)
(0.20405 0.00642504 0)
(0.204378 0.00610477 0)
(0.204655 0.00577657 0)
(0.204889 0.00544675 0)
(0.205085 0.00511941 0)
(0.205249 0.00479667 0)
(0.205386 0.00447909 0)
(0.205499 0.00416609 0)
(0.205591 0.00385632 0)
(0.205665 0.00354809 0)
(0.20572 0.00323977 0)
(0.205755 0.00293021 0)
(0.20577 0.00261915 0)
(0.20576 0.00230765 0)
(0.205724 0.00199832 0)
(0.20566 0.00169537 0)
(0.205567 0.00140427 0)
(0.205447 0.00113115 0)
(0.205303 0.000881868 0)
(0.20514 0.000661061 0)
(0.204965 0.000471257 0)
(0.204784 0.000312622 0)
(0.204603 0.000183506 0)
(0.204427 8.12401e-05 0)
(0.204258 2.65181e-06 0)
(0.204098 -5.55484e-05 0)
(0.20395 -9.6607e-05 0)
(0.203813 -0.000123526 0)
(0.203688 -0.000138975 0)
(0.203575 -0.000145279 0)
(0.203472 -0.000144446 0)
(0.203381 -0.000138199 0)
(0.203299 -0.000128011 0)
(0.203226 -0.000115141 0)
(0.203162 -0.000100653 0)
(0.203105 -8.5437e-05 0)
(0.203055 -7.02191e-05 0)
(0.203012 -5.55722e-05 0)
(0.202973 -4.19252e-05 0)
(0.202939 -2.95743e-05 0)
(0.202909 -1.86971e-05 0)
(0.202883 -9.36837e-06 0)
(0.202859 -1.57886e-06 0)
(0.202837 4.74551e-06 0)
(0.202817 9.72468e-06 0)
(0.202798 1.35061e-05 0)
(0.202781 1.62515e-05 0)
(0.202765 1.81254e-05 0)
(0.20275 1.92866e-05 0)
(0.202736 1.9881e-05 0)
(0.202722 2.00376e-05 0)
(0.202709 1.98667e-05 0)
(0.202697 1.94591e-05 0)
(0.202685 1.88873e-05 0)
(0.202674 1.82076e-05 0)
(0.202663 1.74624e-05 0)
(0.202653 1.66827e-05 0)
(0.202643 1.58907e-05 0)
(0.202634 1.51017e-05 0)
(0.202625 1.43262e-05 0)
(0.202617 1.35713e-05 0)
(0.202609 1.28414e-05 0)
(0.202601 1.21394e-05 0)
(0.202594 1.14668e-05 0)
(0.202588 1.08245e-05 0)
(0.202581 1.02127e-05 0)
(0.202575 9.63141e-06 0)
(0.20257 9.08009e-06 0)
(0.202564 8.55823e-06 0)
(0.202559 8.06513e-06 0)
(0.202555 7.60004e-06 0)
(0.20255 7.16215e-06 0)
(0.202546 6.75058e-06 0)
(0.202542 6.36454e-06 0)
(0.202538 6.00321e-06 0)
(0.202534 5.66575e-06 0)
(0.202531 5.35146e-06 0)
(0.202528 5.05962e-06 0)
(0.202525 4.78966e-06 0)
(0.202522 4.54101e-06 0)
(0.202519 4.31332e-06 0)
(0.202517 4.10636e-06 0)
(0.202514 3.9202e-06 0)
(0.202512 3.75529e-06 0)
(0.20251 3.61265e-06 0)
(0.202508 3.49383e-06 0)
(0.202506 3.40052e-06 0)
(0.202504 3.33188e-06 0)
(0.202502 3.27161e-06 0)
(0.198119 0.00577083 0)
(0.198583 0.00626018 0)
(0.199123 0.00665327 0)
(0.199714 0.00693856 0)
(0.200327 0.00711809 0)
(0.20094 0.00719939 0)
(0.201534 0.00719176 0)
(0.202097 0.00710604 0)
(0.202619 0.00695454 0)
(0.203093 0.00675024 0)
(0.203516 0.00650571 0)
(0.203888 0.00623241 0)
(0.204211 0.00594024 0)
(0.204489 0.00563723 0)
(0.204726 0.00532943 0)
(0.204928 0.00502097 0)
(0.205099 0.0047143 0)
(0.205244 0.00441043 0)
(0.205365 0.00410933 0)
(0.205465 0.00381028 0)
(0.205546 0.00351219 0)
(0.205608 0.00321402 0)
(0.20565 0.0029151 0)
(0.205671 0.00261553 0)
(0.205668 0.00231648 0)
(0.205641 0.00202039 0)
(0.205586 0.00173101 0)
(0.205505 0.00145308 0)
(0.205397 0.00119184 0)
(0.205267 0.000952292 0)
(0.205119 0.000738431 0)
(0.204958 0.000552569 0)
(0.204791 0.000395116 0)
(0.204621 0.000264924 0)
(0.204455 0.000159868 0)
(0.204293 7.72846e-05 0)
(0.20414 1.42644e-05 0)
(0.203996 -3.20606e-05 0)
(0.203862 -6.44019e-05 0)
(0.203739 -8.52419e-05 0)
(0.203627 -9.67791e-05 0)
(0.203524 -0.000100935 0)
(0.203432 -9.93784e-05 0)
(0.203349 -9.35505e-05 0)
(0.203274 -8.46914e-05 0)
(0.203208 -7.38544e-05 0)
(0.20315 -6.19267e-05 0)
(0.203098 -4.96379e-05 0)
(0.203052 -3.75698e-05 0)
(0.203012 -2.6166e-05 0)
(0.202976 -1.57428e-05 0)
(0.202945 -6.50293e-06 0)
(0.202916 1.44885e-06 0)
(0.202891 8.08983e-06 0)
(0.202868 1.34613e-05 0)
(0.202847 1.76507e-05 0)
(0.202828 2.07763e-05 0)
(0.202811 2.29738e-05 0)
(0.202794 2.43847e-05 0)
(0.202779 2.51478e-05 0)
(0.202764 2.53928e-05 0)
(0.20275 2.52362e-05 0)
(0.202737 2.47787e-05 0)
(0.202724 2.41042e-05 0)
(0.202712 2.32806e-05 0)
(0.202701 2.23613e-05 0)
(0.20269 2.1387e-05 0)
(0.20268 2.03878e-05 0)
(0.20267 1.93854e-05 0)
(0.202661 1.83952e-05 0)
(0.202652 1.74277e-05 0)
(0.202644 1.64898e-05 0)
(0.202636 1.5586e-05 0)
(0.202628 1.4719e-05 0)
(0.202621 1.38902e-05 0)
(0.202615 1.31002e-05 0)
(0.202608 1.2349e-05 0)
(0.202602 1.16361e-05 0)
(0.202597 1.09609e-05 0)
(0.202591 1.03224e-05 0)
(0.202586 9.71963e-06 0)
(0.202582 9.15152e-06 0)
(0.202577 8.61694e-06 0)
(0.202573 8.11471e-06 0)
(0.202569 7.64373e-06 0)
(0.202565 7.20292e-06 0)
(0.202562 6.79117e-06 0)
(0.202558 6.40751e-06 0)
(0.202555 6.051e-06 0)
(0.202552 5.72083e-06 0)
(0.202549 5.41623e-06 0)
(0.202546 5.13662e-06 0)
(0.202544 4.88158e-06 0)
(0.202541 4.65094e-06 0)
(0.202539 4.44488e-06 0)
(0.202537 4.264e-06 0)
(0.202535 4.10916e-06 0)
(0.202533 3.98084e-06 0)
(0.202531 3.8765e-06 0)
(0.202529 3.78017e-06 0)
(0.198405 0.00554301 0)
(0.198824 0.00597848 0)
(0.199308 0.00633549 0)
(0.19984 0.00660204 0)
(0.200397 0.00677675 0)
(0.200958 0.006864 0)
(0.201506 0.00687081 0)
(0.20203 0.00680598 0)
(0.20252 0.00667974 0)
(0.202969 0.00650306 0)
(0.203374 0.00628685 0)
(0.203734 0.0060412 0)
(0.20405 0.00577502 0)
(0.204325 0.00549567 0)
(0.204563 0.0052089 0)
(0.204766 0.00491882 0)
(0.20494 0.00462805 0)
(0.205088 0.00433801 0)
(0.205213 0.00404911 0)
(0.205317 0.00376116 0)
(0.205401 0.00347361 0)
(0.205466 0.0031859 0)
(0.205511 0.0028978 0)
(0.205535 0.00260969 0)
(0.205536 0.00232282 0)
(0.205514 0.00203949 0)
(0.205466 0.00176303 0)
(0.205393 0.00149757 0)
(0.205297 0.00124759 0)
(0.205179 0.0010174 0)
(0.205044 0.000810439 0)
(0.204897 0.000628814 0)
(0.204742 0.000473088 0)
(0.204585 0.000342495 0)
(0.204429 0.000235356 0)
(0.204276 0.000149445 0)
(0.204131 8.22736e-05 0)
(0.203993 3.12787e-05 0)
(0.203864 -6.00513e-06 0)
(0.203745 -3.18424e-05 0)
(0.203635 -4.82908e-05 0)
(0.203535 -5.71821e-05 0)
(0.203444 -6.01227e-05 0)
(0.203362 -5.85134e-05 0)
(0.203288 -5.35681e-05 0)
(0.203222 -4.63228e-05 0)
(0.203163 -3.7655e-05 0)
(0.203111 -2.82918e-05 0)
(0.203064 -1.88189e-05 0)
(0.203023 -9.69048e-06 0)
(0.202987 -1.24009e-06 0)
(0.202955 6.30732e-06 0)
(0.202926 1.28221e-05 0)
(0.2029 1.8253e-05 0)
(0.202876 2.26112e-05 0)
(0.202855 2.59544e-05 0)
(0.202836 2.8373e-05 0)
(0.202817 2.99766e-05 0)
(0.202801 3.08838e-05 0)
(0.202785 3.12137e-05 0)
(0.20277 3.10797e-05 0)
(0.202756 3.05851e-05 0)
(0.202743 2.98205e-05 0)
(0.20273 2.88624e-05 0)