/*--------------------------------*- C++ -*----------------------------------*\
| =========                 |                                                 |
| \\      /  F ield         | OpenFOAM: The Open Source CFD Toolbox           |
|  \\    /   O peration     | Version:  2.3.0                                 |
|   \\  /    A nd           | Web:      www.OpenFOAM.org                      |
|    \\/     M anipulation  |                                                 |
\*---------------------------------------------------------------------------*/
FoamFile
{
    version     2.0;
    format      ascii;
    class       surfaceScalarField;
    location    "0.25";
    object      phi;
}
// * * * * * * * * * * * * * * * * * * * * * * * * * * * * * * * * * * * * * //

dimensions      [0 3 -1 0 0 0 0];

internalField   nonuniform List<scalar> 
5644
(
2.94451e-08
2.71028e-09
-3.21554e-08
2.60305e-08
3.41468e-09
2.26161e-08
3.41435e-09
1.94479e-08
3.1682e-09
1.65582e-08
2.88974e-09
1.40128e-08
2.54539e-09
1.18992e-08
2.11359e-09
1.02405e-08
1.65869e-09
9.0096e-09
1.23091e-09
8.13118e-09
8.78414e-10
7.51291e-09
6.18274e-10
7.07211e-09
4.40795e-10
6.7456e-09
3.26515e-10
6.48923e-09
2.5637e-10
6.27329e-09
2.15936e-10
6.07993e-09
1.93359e-10
5.90008e-09
1.79856e-10
5.73002e-09
1.70058e-10
5.56875e-09
1.61266e-10
5.41631e-09
1.52443e-10
5.27289e-09
1.43421e-10
5.1385e-09
1.34393e-10
5.01287e-09
1.25624e-10
4.89557e-09
1.17304e-10
4.78604e-09
1.09524e-10
4.68372e-09
1.02323e-10
4.58799e-09
9.57277e-11
4.49824e-09
8.97519e-11
4.41389e-09
8.43539e-11
4.33447e-09
7.94216e-11
4.25963e-09
7.48405e-11
4.18907e-09
7.05591e-11
4.1225e-09
6.65714e-11
4.05963e-09
6.28694e-11
4.00021e-09
5.94113e-11
3.94409e-09
5.61263e-11
3.89111e-09
5.29755e-11
3.84114e-09
4.99723e-11
3.79402e-09
4.71188e-11
3.74964e-09
4.43829e-11
3.7079e-09
4.17353e-11
3.66875e-09
3.9153e-11
3.63213e-09
3.66251e-11
3.59795e-09
3.41749e-11
3.56612e-09
3.18261e-11
3.53656e-09
2.95619e-11
3.50921e-09
2.7348e-11
3.48406e-09
2.51509e-11
3.46113e-09
2.29381e-11
3.44042e-09
2.07081e-11
3.42192e-09
1.84963e-11
3.4056e-09
1.63248e-11
3.39141e-09
1.41827e-11
3.37935e-09
1.20619e-11
3.36939e-09
9.96631e-12
3.3615e-09
7.88571e-12
3.35568e-09
5.82152e-12
3.35186e-09
3.81964e-12
3.3499e-09
1.95697e-12
3.34963e-09
2.66627e-13
3.35069e-09
-1.05179e-12
3.35276e-09
-2.0776e-12
3.35552e-09
-2.75549e-12
3.35866e-09
-3.14002e-12
3.36196e-09
-3.29902e-12
3.36524e-09
-3.27969e-12
3.3684e-09
-3.16157e-12
3.37137e-09
-2.96613e-12
3.37408e-09
-2.713e-12
3.3765e-09
-2.42571e-12
3.37864e-09
-2.13919e-12
3.38052e-09
-1.8748e-12
3.38217e-09
-1.64842e-12
3.38363e-09
-1.46183e-12
3.38494e-09
-1.31257e-12
3.38613e-09
-1.18645e-12
3.38722e-09
-1.08821e-12
3.38822e-09
-1.00782e-12
3.38918e-09
-9.51849e-13
3.39008e-09
-8.99999e-13
3.39093e-09
-8.53065e-13
3.39171e-09
-7.80124e-13
3.3924e-09
-6.93008e-13
3.39297e-09
-5.70061e-13
3.39342e-09
-4.49166e-13
3.39374e-09
-3.15473e-13
3.39396e-09
-2.21196e-13
3.39409e-09
-1.31371e-13
3.39419e-09
-9.95233e-14
3.39425e-09
-6.25734e-14
3.39433e-09
-7.82164e-14
3.39439e-09
-6.05224e-14
3.39448e-09
-8.91856e-14
3.39454e-09
-5.84332e-14
3.39462e-09
-7.97636e-14
3.39464e-09
-2.26438e-14
3.39467e-09
-3.34918e-14
3.39463e-09
4.59592e-14
3.39459e-09
3.9018e-14
1.16309e-13
3.47443e-08
2.41066e-09
-3.44446e-08
3.46077e-08
3.55119e-09
3.39483e-08
4.07378e-09
3.29975e-08
4.11899e-09
3.18759e-08
4.01132e-09
3.06144e-08
3.80689e-09
2.92398e-08
3.48825e-09
2.78214e-08
3.07705e-09
2.64299e-08
2.62241e-09
2.5118e-08
2.19037e-09
2.39107e-08
1.82555e-09
2.28125e-08
1.53895e-09
2.18191e-08
1.31992e-09
2.09264e-08
1.14912e-09
2.01244e-08
1.01792e-09
1.94019e-08
9.15864e-10
1.8748e-08
8.33751e-10
1.8153e-08
7.64995e-10
1.76089e-08
7.05412e-10
1.71088e-08
6.52525e-10
1.66473e-08
6.04942e-10
1.62198e-08
5.61894e-10
1.58225e-08
5.22895e-10
1.54523e-08
4.87526e-10
1.51064e-08
4.55379e-10
1.47827e-08
4.2611e-10
1.44789e-08
3.99468e-10
1.41934e-08
3.75251e-10
1.39246e-08
3.53197e-10
1.36711e-08
3.32941e-10
1.34318e-08
3.14134e-10
1.32057e-08
2.96577e-10
1.29921e-08
2.80177e-10
1.27902e-08
2.64858e-10
1.25991e-08
2.50475e-10
1.24184e-08
2.36829e-10
1.22476e-08
2.2379e-10
1.20862e-08
2.11343e-10
1.19339e-08
1.99455e-10
1.17902e-08
1.8803e-10
1.1655e-08
1.76976e-10
1.15279e-08
1.66219e-10
1.14088e-08
1.55719e-10
1.12975e-08
1.45513e-10
1.11937e-08
1.35635e-10
1.10972e-08
1.26032e-10
1.10079e-08
1.16608e-10
1.09258e-08
1.07272e-10
1.08508e-08
9.7953e-11
1.07829e-08
8.8662e-11
1.07219e-08
7.94878e-11
1.06677e-08
7.04856e-11
1.06202e-08
6.16458e-11
1.05793e-08
5.29712e-11
1.05448e-08
4.44986e-11
1.05164e-08
3.62545e-11
1.0494e-08
2.82955e-11
1.0477e-08
2.07755e-11
1.0465e-08
1.39195e-11
1.04574e-08
7.90608e-12
1.04534e-08
2.93317e-12
1.04522e-08
-8.26727e-13
1.04529e-08
-3.51899e-12
1.0455e-08
-5.21804e-12
1.04578e-08
-6.14152e-12
1.0461e-08
-6.44897e-12
1.04642e-08
-6.37729e-12
1.04673e-08
-6.0225e-12
1.047e-08
-5.47489e-12
1.04724e-08
-4.82322e-12
1.04745e-08
-4.1676e-12
1.04762e-08
-3.56571e-12
1.04776e-08
-3.05207e-12
1.04787e-08
-2.63787e-12
1.04797e-08
-2.30696e-12
1.04806e-08
-2.03072e-12
1.04813e-08
-1.81464e-12
1.04819e-08
-1.63863e-12
1.04825e-08
-1.51136e-12
1.0483e-08
-1.39223e-12
1.04834e-08
-1.27904e-12
1.04837e-08
-1.11257e-12
1.0484e-08
-9.17608e-13
1.04841e-08
-6.57844e-13
1.0484e-08
-4.12936e-13
1.04839e-08
-1.58061e-13
1.04836e-08
1.85249e-15
1.04834e-08
1.40781e-13
1.04831e-08
1.54478e-13
1.04829e-08
1.786e-13
1.04827e-08
9.78394e-14
1.04825e-08
9.61611e-14
1.04825e-08
5.39426e-15
1.04823e-08
5.27479e-14
1.04823e-08
-5.44797e-15
1.04821e-08
1.17368e-13
1.0482e-08
9.43787e-14
1.04818e-08
2.79131e-13
1.04815e-08
2.75857e-13
4.54157e-13
3.62853e-08
2.27293e-09
-3.61476e-08
3.66832e-08
3.15335e-09
3.69331e-08
3.82387e-09
3.69934e-08
4.05866e-09
3.69327e-08
4.072e-09
3.67552e-08
3.98447e-09
3.6435e-08
3.80837e-09
3.59742e-08
3.53791e-09
3.5399e-08
3.19761e-09
3.4749e-08
2.8404e-09
3.40593e-08
2.51518e-09
3.33533e-08
2.24495e-09
3.26451e-08
2.02811e-09
3.1942e-08
1.85226e-09
3.1251e-08
1.7089e-09
3.05766e-08
1.59026e-09
2.99212e-08
1.48922e-09
2.92859e-08
1.40031e-09
2.86714e-08
1.31989e-09
2.80782e-08
1.24574e-09
2.75065e-08
1.17664e-09
2.69564e-08
1.11197e-09
2.64279e-08
1.0514e-09
2.59208e-08
9.94627e-10
2.54348e-08
9.41389e-10
2.49694e-08
8.91479e-10
2.45241e-08
8.44744e-10
2.40983e-08
8.01052e-10
2.36913e-08
7.60194e-10
2.33024e-08
7.21832e-10
2.2931e-08
6.85608e-10
2.25763e-08
6.51279e-10
2.22377e-08
6.18718e-10
2.19147e-08
5.87842e-10
2.16067e-08
5.58502e-10
2.13131e-08
5.30446e-10
2.10334e-08
5.03467e-10
2.07673e-08
4.77501e-10
2.05142e-08
4.52496e-10
2.02739e-08
4.2833e-10
2.0046e-08
4.0487e-10
1.98303e-08
3.81968e-10
1.96265e-08
3.59522e-10
1.94344e-08
3.37553e-10
1.9254e-08
3.16105e-10
1.90849e-08
2.95125e-10
1.8927e-08
2.74489e-10
1.87802e-08
2.54041e-10
1.86445e-08
2.33654e-10
1.85198e-08
2.13344e-10
1.84061e-08
1.9326e-10
1.8303e-08
1.73507e-10
1.82106e-08
1.54102e-10
1.81285e-08
1.35084e-10
1.80564e-08
1.1655e-10
1.79941e-08
9.85895e-11
1.79411e-08
8.13341e-11
1.78968e-08
6.50529e-11
1.78606e-08
5.01292e-11
1.78316e-08
3.69198e-11
1.78088e-08
2.57179e-11
1.77912e-08
1.67067e-11
1.77779e-08
9.83788e-12
1.77677e-08
4.93261e-12
1.776e-08
1.61367e-12
1.77539e-08
-3.68801e-13
1.7749e-08
-1.45197e-12
1.77448e-08
-1.83282e-12
1.7741e-08
-1.70725e-12
1.77375e-08
-1.27123e-12
1.7734e-08
-7.21357e-13
1.77306e-08
-1.90694e-13
1.77273e-08
2.70932e-13
1.77241e-08
6.12711e-13
1.77209e-08
8.74304e-13
1.77178e-08
1.08487e-12
1.77147e-08
1.24324e-12
1.77117e-08
1.36278e-12
1.77088e-08
1.43529e-12
1.77059e-08
1.49939e-12
1.7703e-08
1.5646e-12
1.77002e-08
1.69378e-12
1.76974e-08
1.86009e-12
1.76947e-08
2.08956e-12
1.7692e-08
2.28261e-12
1.76894e-08
2.45039e-12
1.76869e-08
2.47272e-12
1.76846e-08
2.43191e-12
1.76826e-08
2.22285e-12
1.76807e-08
2.0198e-12
1.76791e-08
1.69945e-12
1.76777e-08
1.49885e-12
1.76765e-08
1.21475e-12
1.76754e-08
1.13818e-12
1.76745e-08
9.53427e-13
1.76735e-08
1.03211e-12
1.76727e-08
9.40676e-13
1.76718e-08
1.14394e-12
1.7671e-08
1.11891e-12
1.3267e-12
3.78406e-08
2.21639e-09
-3.77841e-08
3.8137e-08
2.85694e-09
3.84991e-08
3.46182e-09
3.87798e-08
3.7779e-09
3.89948e-08
3.85702e-09
3.9163e-08
3.81627e-09
3.92661e-08
3.70532e-09
3.92805e-08
3.5235e-09
3.91984e-08
3.27973e-09
3.90323e-08
3.0065e-09
3.88037e-08
2.74374e-09
3.8532e-08
2.5166e-09
3.82294e-08
2.33081e-09
3.79016e-08
2.17996e-09
3.75547e-08
2.05585e-09
3.71932e-08
1.95175e-09
3.68204e-08
1.86206e-09
3.64383e-08
1.78234e-09
3.60488e-08
1.70939e-09
3.56534e-08
1.64115e-09
3.52537e-08
1.57641e-09
3.4851e-08
1.51458e-09
3.44471e-08
1.45534e-09
3.40433e-08
1.39845e-09
3.3641e-08
1.34372e-09
3.32414e-08
1.29107e-09
3.28456e-08
1.24046e-09
3.24548e-08
1.19186e-09
3.20699e-08
1.14518e-09
3.16915e-08
1.10021e-09
3.13204e-08
1.05673e-09
3.09571e-08
1.01459e-09
3.06021e-08
9.73718e-10
3.02558e-08
9.34056e-10
2.99188e-08
8.95508e-10
2.95914e-08
8.57857e-10
2.92739e-08
8.20958e-10
2.89666e-08
7.8481e-10
2.86697e-08
7.49394e-10
2.83834e-08
7.14637e-10
2.81078e-08
6.80462e-10
2.78431e-08
6.46737e-10
2.75892e-08
6.1333e-10
2.73466e-08
5.80232e-10
2.71152e-08
5.47466e-10
2.68953e-08
5.14988e-10
2.66871e-08
4.82727e-10
2.64906e-08
4.50558e-10
2.63059e-08
4.18343e-10
2.61331e-08
3.86112e-10
2.59723e-08
3.54073e-10
2.58234e-08
3.22381e-10
2.56865e-08
2.91087e-10
2.55613e-08
2.60276e-10
2.54477e-08
2.30122e-10
2.53455e-08
2.00804e-10
2.52543e-08
1.72558e-10
2.51735e-08
1.4578e-10
2.51027e-08
1.21002e-10
2.50409e-08
9.87137e-11
2.49873e-08
7.92854e-11
2.49411e-08
6.29279e-11
2.49013e-08
4.96225e-11
2.48671e-08
3.91403e-11
2.48376e-08
3.10848e-11
2.48121e-08
2.51006e-11
2.47899e-08
2.08001e-11
2.47702e-08
1.79065e-11
2.47523e-08
1.61244e-11
2.47359e-08
1.51013e-11
2.47207e-08
1.4502e-11
2.47065e-08
1.40642e-11
2.46931e-08
1.36609e-11
2.46805e-08
1.32189e-11
2.46686e-08
1.27852e-11
2.46573e-08
1.23813e-11
2.46465e-08
1.20298e-11
2.46361e-08
1.17181e-11
2.46261e-08
1.14564e-11
2.46164e-08
1.12502e-11
2.46068e-08
1.11266e-11
2.45974e-08
1.1095e-11
2.45881e-08
1.11291e-11
2.4579e-08
1.117e-11
2.45702e-08
1.11175e-11
2.45618e-08
1.09016e-11
2.45538e-08
1.04463e-11
2.45464e-08
9.78943e-12
2.45397e-08
8.92577e-12
2.45337e-08
8.00397e-12
2.45284e-08
7.02025e-12
2.45237e-08
6.16283e-12
2.45196e-08
5.34074e-12
2.4516e-08
4.75489e-12
2.45128e-08
4.19852e-12
2.45099e-08
3.91415e-12
2.45072e-08
3.59963e-12
2.45048e-08
3.54732e-12
2.45025e-08
3.42348e-12
3.42377e-12
3.94353e-08
2.15687e-09
-3.93758e-08
3.96417e-08
2.6506e-09
3.99599e-08
3.14355e-09
4.02614e-08
3.47642e-09
4.05139e-08
3.60453e-09
4.07344e-08
3.59577e-09
4.09261e-08
3.51359e-09
4.10729e-08
3.37679e-09
4.11598e-08
3.19278e-09
4.11862e-08
2.9801e-09
4.11638e-08
2.76617e-09
4.11066e-08
2.57381e-09
4.1024e-08
2.41337e-09
4.09209e-08
2.28302e-09
4.08006e-08
2.17616e-09
4.06656e-08
2.08674e-09
4.05177e-08
2.01e-09
4.03577e-08
1.94229e-09
4.01863e-08
1.88084e-09
4.00037e-08
1.82374e-09
3.98104e-08
1.7697e-09
3.9607e-08
1.718e-09
3.93941e-08
1.66826e-09
3.91724e-08
1.62014e-09
3.89427e-08
1.57339e-09
3.87059e-08
1.52785e-09
3.84629e-08
1.48349e-09
3.82145e-08
1.44022e-09
3.79618e-08
1.39796e-09
3.77054e-08
1.35653e-09
3.74464e-08
1.31578e-09
3.71854e-08
1.2756e-09
3.69232e-08
1.23592e-09
3.66605e-08
1.19674e-09
3.6398e-08
1.15798e-09
3.61365e-08
1.11938e-09
3.58767e-08
1.08076e-09
3.56194e-08
1.04213e-09
3.53652e-08
1.00352e-09
3.5115e-08
9.64874e-10
3.48692e-08
9.2622e-10
3.46285e-08
8.87529e-10
3.4393e-08
8.48746e-10
3.41634e-08
8.09864e-10
3.394e-08
7.70836e-10
3.37235e-08
7.31533e-10
3.35143e-08
6.91873e-10
3.33131e-08
6.51755e-10
3.31204e-08
6.11092e-10
3.29365e-08
5.70016e-10
3.27617e-08
5.28874e-10
3.25962e-08
4.87901e-10
3.24401e-08
4.47168e-10
3.22936e-08
4.06755e-10
3.21569e-08
3.66848e-10
3.203e-08
3.27674e-10
3.1913e-08
2.89582e-10
3.18056e-08
2.53132e-10
3.17076e-08
2.19087e-10
3.16181e-08
1.88169e-10
3.15365e-08
1.60893e-10
3.1462e-08
1.37397e-10
3.13942e-08
1.17448e-10
3.13328e-08
1.00556e-10
3.12776e-08
8.626e-11
3.12284e-08
7.43072e-11
3.11846e-08
6.4629e-11
3.11453e-08
5.7164e-11
3.11097e-08
5.17276e-11
3.1077e-08
4.785e-11
3.10465e-08
4.50098e-11
3.10178e-08
4.26819e-11
3.09909e-08
4.05987e-11
3.09655e-08
3.8587e-11
3.09416e-08
3.67037e-11
3.09191e-08
3.4943e-11
3.08977e-08
3.33951e-11
3.08774e-08
3.20192e-11
3.08579e-08
3.09235e-11
3.08391e-08
3.0086e-11
3.08206e-08
2.96358e-11
3.08022e-08
2.94701e-11
3.07837e-08
2.95844e-11
3.07652e-08
2.96717e-11
3.07467e-08
2.96157e-11
3.07286e-08
2.90677e-11
3.0711e-08
2.80521e-11
3.06944e-08
2.64073e-11
3.06789e-08
2.44092e-11
3.06648e-08
2.20476e-11
3.06521e-08
1.97146e-11
3.06409e-08
1.73606e-11
3.06309e-08
1.53416e-11
3.06222e-08
1.34634e-11
3.06144e-08
1.20329e-11
3.06076e-08
1.0714e-11
3.06013e-08
9.85561e-12
3.05959e-08
8.96633e-12
3.05908e-08
8.58803e-12
7.86926e-12
4.10566e-08
2.0851e-09
-4.09848e-08
4.12181e-08
2.48902e-09
4.14777e-08
2.88397e-09
4.1757e-08
3.19714e-09
4.20059e-08
3.35565e-09
4.22218e-08
3.3799e-09
4.24136e-08
3.32175e-09
4.25767e-08
3.21367e-09
4.27006e-08
3.06888e-09
4.27813e-08
2.89946e-09
4.28244e-08
2.72299e-09
4.28406e-08
2.55769e-09
4.28386e-08
2.41538e-09
4.28236e-08
2.298e-09
4.27983e-08
2.2014e-09
4.27646e-08
2.12051e-09
4.27234e-08
2.0512e-09
4.26753e-08
1.99035e-09
4.26205e-08
1.93568e-09
4.25587e-08
1.88551e-09
4.24898e-08
1.8386e-09
4.24137e-08
1.79414e-09
4.23302e-08
1.7517e-09
4.22395e-08
1.71091e-09
4.21415e-08
1.67139e-09
4.20364e-08
1.63292e-09
4.19245e-08
1.59541e-09
4.1806e-08
1.55874e-09
4.16812e-08
1.5227e-09
4.15506e-08
1.48712e-09
4.14145e-08
1.45188e-09
4.12733e-08
1.41685e-09
4.11273e-08
1.38187e-09
4.09771e-08
1.34698e-09
4.08229e-08
1.3122e-09
4.0665e-08
1.27722e-09
4.05041e-08
1.24171e-09
4.03406e-08
1.20562e-09
4.01752e-08
1.16896e-09
4.00084e-08
1.13165e-09
3.98409e-08
1.09368e-09
3.96734e-08
1.05507e-09
3.95062e-08
1.01591e-09
3.93398e-08
9.76333e-10
3.91743e-08
9.36273e-10
3.90103e-08
8.95524e-10
3.88483e-08
8.53924e-10
3.86888e-08
8.11264e-10
3.85325e-08
7.6735e-10
3.83802e-08
7.22317e-10
3.82324e-08
6.76689e-10
3.80894e-08
6.30912e-10
3.79514e-08
5.85184e-10
3.78185e-08
5.39584e-10
3.76911e-08
4.94247e-10
3.75695e-08
4.49307e-10
3.74541e-08
4.05028e-10
3.73453e-08
3.61933e-10
3.72433e-08
3.20994e-10
3.71481e-08
2.83425e-10
3.70587e-08
2.50325e-10
3.6974e-08
2.22049e-10
3.68934e-08
1.98048e-10
3.68169e-08
1.77073e-10
3.67451e-08
1.58013e-10
3.66791e-08
1.40377e-10
3.66192e-08
1.24509e-10
3.65653e-08
1.11018e-10
3.65167e-08
1.00401e-10
3.64721e-08
9.24594e-11
3.64304e-08
8.66418e-11
3.6391e-08
8.20695e-11
3.63534e-08
7.81952e-11
3.63175e-08
7.45526e-11
3.6283e-08
7.11361e-11
3.62502e-08
6.78051e-11
3.62188e-08
6.47243e-11
3.61891e-08
6.17746e-11
3.61607e-08
5.92791e-11
3.61336e-08
5.72438e-11
3.61071e-08
5.61431e-11
3.60807e-08
5.58173e-11
3.60538e-08
5.64595e-11
3.60262e-08
5.73468e-11
3.59974e-08
5.8338e-11
3.59681e-08
5.84284e-11
3.59384e-08
5.77248e-11
3.59093e-08
5.54904e-11
3.58813e-08
5.2474e-11
3.58551e-08
4.82206e-11
3.58309e-08
4.3949e-11
3.58092e-08
3.90691e-11
3.57895e-08
3.49723e-11
3.57724e-08
3.06037e-11
3.57569e-08
2.74961e-11
3.57436e-08
2.40198e-11
3.57314e-08
2.20642e-11
3.5721e-08
1.93402e-11
3.57112e-08
1.84365e-11
1.61015e-11
4.27139e-08
2.00684e-09
-4.26356e-08
4.28532e-08
2.34965e-09
4.30644e-08
2.67278e-09
4.33111e-08
2.9504e-09
4.35466e-08
3.12024e-09
4.37532e-08
3.17326e-09
4.39338e-08
3.1411e-09
4.40898e-08
3.05769e-09
4.42164e-08
2.94234e-09
4.43097e-08
2.80613e-09
4.4372e-08
2.66066e-09
4.44105e-08
2.51922e-09
4.44332e-08
2.39268e-09
4.44458e-08
2.28539e-09
4.44515e-08
2.19574e-09
4.44519e-08
2.12008e-09
4.44481e-08
2.05494e-09
4.44409e-08
1.99755e-09
4.44306e-08
1.94601e-09
4.44171e-08
1.89902e-09
4.44002e-08
1.85544e-09
4.438e-08
1.81442e-09
4.43561e-08
1.77558e-09
4.43284e-08
1.7386e-09
4.42968e-08
1.70302e-09
4.42612e-08
1.66853e-09
4.42215e-08
1.63507e-09
4.41777e-08
1.60255e-09
4.41298e-08
1.57061e-09
4.40778e-08
1.53904e-09
4.40219e-08
1.50781e-09
4.3962e-08
1.47679e-09
4.38982e-08
1.44568e-09
4.38307e-08
1.41446e-09
4.37595e-08
1.38333e-09
4.36847e-08
1.35206e-09
4.36062e-08
1.32019e-09
4.35244e-08
1.28748e-09
4.34393e-08
1.25397e-09
4.33514e-08
1.2196e-09
4.32609e-08
1.1842e-09
4.31683e-08
1.14769e-09
4.30739e-08
1.11023e-09
4.29781e-08
1.07214e-09
4.2881e-08
1.03344e-09
4.27826e-08
9.93931e-10
4.2683e-08
9.53446e-10
4.25826e-08
9.11726e-10
4.24815e-08
8.68374e-10
4.23806e-08
8.23298e-10
4.22802e-08
7.7701e-10
4.2181e-08
7.30154e-10
4.2083e-08
6.83145e-10
4.19865e-08
6.36124e-10
4.18915e-08
5.89217e-10
4.17983e-08
5.42501e-10
4.17073e-08
4.96083e-10
4.16191e-08
4.50155e-10
4.15346e-08
4.05502e-10
4.14543e-08
3.63629e-10
4.13781e-08
3.26528e-10
4.13047e-08
2.9546e-10
4.12326e-08
2.70177e-10
4.1161e-08
2.48706e-10
4.10903e-08
2.28681e-10
4.10222e-08
2.08469e-10
4.09585e-08
1.88185e-10
4.09005e-08
1.6901e-10
4.08484e-08
1.5257e-10
4.08013e-08
1.39572e-10
4.07579e-08
1.30012e-10
4.0717e-08
1.22912e-10
4.06777e-08
1.17497e-10
4.06395e-08
1.12838e-10
4.06019e-08
1.08733e-10
4.0565e-08
1.04667e-10
4.0529e-08
1.00752e-10
4.04942e-08
9.65651e-11
4.04608e-08
9.26493e-11
4.04291e-08
8.90085e-11
4.03984e-08
8.6783e-11
4.03683e-08
8.59446e-11
4.03374e-08
8.73232e-11
4.0305e-08
8.97873e-11
4.027e-08
9.33385e-11
4.02325e-08
9.58886e-11
4.01927e-08
9.75635e-11
4.01517e-08
9.64215e-11
4.01104e-08
9.37757e-11
4.00705e-08
8.81893e-11
4.00323e-08
8.21725e-11
3.99972e-08
7.41379e-11
3.99649e-08
6.72948e-11
3.99363e-08
5.9137e-11
3.99104e-08
5.34294e-11
3.98881e-08
4.63321e-11
3.98676e-08
4.25314e-11
3.98504e-08
3.65745e-11
3.98341e-08
3.47567e-11
2.94911e-11
4.44138e-08
1.92771e-09
-4.43347e-08
4.45394e-08
2.22407e-09
4.47162e-08
2.49598e-09
4.49303e-08
2.73632e-09
4.51469e-08
2.90359e-09
4.53435e-08
2.97668e-09
4.55146e-08
2.96998e-09
4.56619e-08
2.91047e-09
4.57845e-08
2.81966e-09
4.58805e-08
2.71014e-09
4.59502e-08
2.59094e-09
4.5998e-08
2.47144e-09
4.60303e-08
2.36044e-09
4.60526e-08
2.26307e-09
4.60685e-08
2.17986e-09
4.60798e-08
2.1087e-09
4.60879e-08
2.04692e-09
4.60933e-08
1.99206e-09
4.60969e-08
1.94248e-09
4.60987e-08
1.8972e-09
4.60989e-08
1.85528e-09
4.60974e-08
1.81587e-09
4.60944e-08
1.77862e-09
4.60896e-08
1.74335e-09
4.60831e-08
1.70957e-09
4.60747e-08
1.67686e-09
4.60646e-08
1.64522e-09
4.60525e-08
1.61464e-09
4.60384e-08
1.58471e-09
4.60224e-08
1.55507e-09
4.60043e-08
1.52584e-09
4.59842e-08
1.49694e-09
4.59619e-08
1.46794e-09
4.59377e-08
1.43869e-09
4.59115e-08
1.40952e-09
4.58831e-08
1.38042e-09
4.58525e-08
1.35085e-09
4.58196e-08
1.32041e-09
4.57844e-08
1.28915e-09
4.57469e-08
1.25711e-09
4.5707e-08
1.22403e-09
4.56651e-08
1.18957e-09
4.56215e-08
1.15388e-09
4.55763e-08
1.11738e-09
4.55295e-08
1.08022e-09
4.54812e-08
1.04221e-09
4.54313e-08
1.00331e-09
4.53797e-08
9.63362e-10
4.53262e-08
9.21914e-10
4.52709e-08
8.78587e-10
4.52142e-08
8.33675e-10
4.51565e-08
7.87854e-10
4.5098e-08
7.41695e-10
4.50387e-08
6.95367e-10
4.49789e-08
6.48981e-10
4.49188e-08
6.02637e-10
4.48584e-08
5.56454e-10
4.47983e-08
5.10336e-10
4.47391e-08
4.6463e-10
4.46821e-08
4.20667e-10
4.46276e-08
3.81056e-10
4.45748e-08
3.48182e-10
4.45222e-08
3.22783e-10
4.44681e-08
3.0282e-10
4.44119e-08
2.84855e-10
4.43548e-08
2.65629e-10
4.42988e-08
2.44201e-10
4.42462e-08
2.21573e-10
4.41985e-08
2.00256e-10
4.4156e-08
1.82065e-10
4.4118e-08
1.68089e-10
4.40831e-08
1.57769e-10
4.40501e-08
1.50528e-10
4.40178e-08
1.45116e-10
4.39853e-08
1.41182e-10
4.39524e-08
1.3763e-10
4.39188e-08
1.34323e-10
4.38852e-08
1.3014e-10
4.38522e-08
1.25643e-10
4.38207e-08
1.20588e-10
4.37905e-08
1.16975e-10
4.37613e-08
1.15075e-10
4.37317e-08
1.16934e-10
4.37003e-08
1.21232e-10
4.36651e-08
1.28544e-10
4.36255e-08
1.35436e-10
4.3581e-08
1.42081e-10
4.35328e-08
1.44619e-10
4.34817e-08
1.44907e-10
4.34301e-08
1.39771e-10
4.33789e-08
1.33361e-10
4.33306e-08
1.22469e-10
4.3285e-08
1.12917e-10
4.3244e-08
1.0008e-10
4.32063e-08
9.10975e-11
4.31737e-08
7.89305e-11
4.31437e-08
7.25383e-11
4.31185e-08
6.17705e-11
4.30947e-08
5.86064e-11
4.88188e-11
4.61607e-08
1.8505e-09
-4.60835e-08
4.62754e-08
2.10936e-09
4.64287e-08
2.34272e-09
4.66142e-08
2.5508e-09
4.681e-08
2.70778e-09
4.69946e-08
2.79211e-09
4.71576e-08
2.80703e-09
4.72977e-08
2.77032e-09
4.74159e-08
2.70151e-09
4.75117e-08
2.61429e-09
4.75853e-08
2.5173e-09
4.76392e-08
2.41762e-09
4.76777e-08
2.32193e-09
4.77057e-08
2.23503e-09
4.77269e-08
2.15869e-09
4.77433e-08
2.09228e-09
4.77562e-08
2.03402e-09
4.77665e-08
1.98182e-09
4.77747e-08
1.93421e-09
4.77814e-08
1.89049e-09
4.77868e-08
1.84992e-09
4.7791e-08
1.81167e-09
4.77942e-08
1.77544e-09
4.77964e-08
1.74115e-09
4.77976e-08
1.70835e-09
4.77979e-08
1.67654e-09
4.77974e-08
1.64574e-09
4.7796e-08
1.61607e-09
4.77936e-08
1.58706e-09
4.77904e-08
1.55828e-09
4.77864e-08
1.52989e-09
4.77814e-08
1.50194e-09
4.77754e-08
1.47392e-09
4.77686e-08
1.44551e-09
4.7761e-08
1.41711e-09
4.77525e-08
1.38889e-09
4.7743e-08
1.36036e-09
4.77324e-08
1.331e-09
4.77207e-08
1.30086e-09
4.77077e-08
1.27013e-09
4.76932e-08
1.23853e-09
4.76772e-08
1.20551e-09
4.76601e-08
1.17108e-09
4.76418e-08
1.13567e-09
4.76225e-08
1.09951e-09
4.76023e-08
1.06243e-09
4.75811e-08
1.02448e-09
4.75587e-08
9.8575e-10
4.75347e-08
9.45943e-10
4.75087e-08
9.04542e-10
4.74808e-08
8.61598e-10
4.7451e-08
8.17663e-10
4.74194e-08
7.73309e-10
4.73861e-08
7.28593e-10
4.73516e-08
6.83504e-10
4.73161e-08
6.38138e-10
4.72798e-08
5.92779e-10
4.72428e-08
5.4731e-10
4.72056e-08
5.01825e-10
4.7169e-08
4.57318e-10
4.71335e-08
4.16556e-10
4.7099e-08
3.82648e-10
4.70644e-08
3.57362e-10
4.70281e-08
3.39108e-10
4.6989e-08
3.24034e-10
4.6947e-08
3.07575e-10
4.69037e-08
2.8752e-10
4.68612e-08
2.64052e-10
4.68216e-08
2.39887e-10
4.67861e-08
2.17515e-10
4.67551e-08
1.99144e-10
4.67279e-08
1.84947e-10
4.67034e-08
1.75076e-10
4.66801e-08
1.68385e-10
4.66566e-08
1.64714e-10
4.66318e-08
1.62406e-10
4.66051e-08
1.60978e-10
4.6577e-08
1.58218e-10
4.65483e-08
1.54391e-10
4.65203e-08
1.48606e-10
4.64935e-08
1.43709e-10
4.64683e-08
1.40289e-10
4.64432e-08
1.42105e-10
4.64165e-08
1.4793e-10
4.63855e-08
1.59485e-10
4.6349e-08
1.7195e-10
4.63054e-08
1.85736e-10
4.62555e-08
1.94497e-10
4.61998e-08
2.00591e-10
4.61412e-08
1.98323e-10
4.60809e-08
1.93663e-10
4.60223e-08
1.81079e-10
4.59656e-08
1.69644e-10
4.59138e-08
1.51928e-10
4.58653e-08
1.39503e-10
4.58231e-08
1.21203e-10
4.57839e-08
1.11704e-10
4.5751e-08
9.46993e-11
4.57198e-08
8.98295e-11
7.39418e-11
4.79582e-08
1.77591e-09
-4.78836e-08
4.80637e-08
2.00381e-09
4.81998e-08
2.20663e-09
4.83621e-08
2.38844e-09
4.85375e-08
2.53241e-09
4.87084e-08
2.62122e-09
4.8863e-08
2.65244e-09
4.89972e-08
2.63609e-09
4.91113e-08
2.58742e-09
4.9206e-08
2.51963e-09
4.92817e-08
2.44157e-09
4.93399e-08
2.35939e-09
4.93836e-08
2.27826e-09
4.94165e-08
2.20216e-09
4.94419e-08
2.13328e-09
4.94621e-08
2.07208e-09
4.94784e-08
2.0177e-09
4.94917e-08
1.9685e-09
4.95027e-08
1.92323e-09
4.95119e-08
1.88133e-09
4.95195e-08
1.84226e-09
4.9526e-08
1.80526e-09
4.95313e-08
1.77004e-09
4.95358e-08
1.73665e-09
4.95395e-08
1.70468e-09
4.95425e-08
1.67359e-09
4.95448e-08
1.6434e-09
4.95466e-08
1.6143e-09
4.95478e-08
1.58588e-09
4.95484e-08
1.5576e-09
4.95487e-08
1.52965e-09
4.95485e-08
1.50216e-09
4.95477e-08
1.47463e-09
4.95466e-08
1.44664e-09
4.95452e-08
1.41852e-09
4.95435e-08
1.39057e-09
4.95415e-08
1.3624e-09
4.9539e-08
1.33347e-09
4.9536e-08
1.30383e-09
4.95324e-08
1.27373e-09
4.9528e-08
1.24294e-09
4.95227e-08
1.21085e-09
4.95165e-08
1.17731e-09
4.95095e-08
1.14264e-09
4.95019e-08
1.10707e-09
4.94939e-08
1.07043e-09
4.94856e-08
1.03284e-09
4.94767e-08
9.94612e-10
4.94669e-08
9.55756e-10
4.94556e-08
9.15823e-10
4.94425e-08
8.74743e-10
4.94272e-08
8.32896e-10
4.94098e-08
7.90699e-10
4.93905e-08
7.47941e-10
4.93696e-08
7.04361e-10
4.93478e-08
6.59943e-10
4.93255e-08
6.15129e-10
4.93028e-08
5.70022e-10
4.92797e-08
5.24859e-10
4.92565e-08
4.80519e-10
4.92334e-08
4.39719e-10
4.92103e-08
4.05711e-10
4.91869e-08
3.80799e-10
4.91622e-08
3.6381e-10
4.91352e-08
3.50995e-10
4.91056e-08
3.3718e-10
4.90738e-08
3.19328e-10
4.90412e-08
2.96688e-10
4.90094e-08
2.71645e-10
4.89802e-08
2.46681e-10
4.89547e-08
2.24689e-10
4.89331e-08
2.06496e-10
4.89149e-08
1.93302e-10
4.88988e-08
1.84493e-10
4.8883e-08
1.80568e-10
4.88658e-08
1.79523e-10
4.88462e-08
1.80582e-10
4.88243e-08
1.80193e-10
4.88006e-08
1.78065e-10
4.87769e-08
1.72266e-10
4.87543e-08
1.66364e-10
4.87334e-08
1.61162e-10
4.87131e-08
1.62423e-10
4.86918e-08
1.6922e-10
4.86664e-08
1.84909e-10
4.86349e-08
2.03386e-10
4.85951e-08
2.25585e-10
4.85472e-08
2.42344e-10
4.84913e-08
2.56542e-10
4.84303e-08
2.5934e-10
4.83653e-08
2.58603e-10
4.83006e-08
2.4583e-10
4.82365e-08
2.33756e-10
4.81769e-08
2.11534e-10
4.81204e-08
1.95973e-10
4.80706e-08
1.71006e-10
4.80241e-08
1.58217e-10
4.79848e-08
1.33949e-10
4.79475e-08
1.27167e-10
1.03899e-10
4.98096e-08
1.70384e-09
-4.97375e-08
4.99073e-08
1.90611e-09
5.00299e-08
2.08408e-09
5.01737e-08
2.24456e-09
5.03305e-08
2.37563e-09
5.04871e-08
2.46463e-09
5.06325e-08
2.507e-09
5.07611e-08
2.50756e-09
5.08715e-08
2.47697e-09
5.09646e-08
2.42657e-09
5.10412e-08
2.36499e-09
5.11024e-08
2.29815e-09
5.11503e-08
2.23042e-09
5.11874e-08
2.165e-09
5.12167e-08
2.104e-09
5.12403e-08
2.04848e-09
5.12597e-08
1.99833e-09
5.12757e-08
1.95246e-09
5.12891e-08
1.90987e-09
5.13003e-08
1.87013e-09
5.13097e-08
1.8328e-09
5.13177e-08
1.79726e-09
5.13245e-08
1.76326e-09
5.13303e-08
1.73086e-09
5.13352e-08
1.69978e-09
5.13393e-08
1.66947e-09
5.13428e-08
1.63993e-09
5.13457e-08
1.61138e-09
5.13481e-08
1.58346e-09
5.13501e-08
1.55566e-09
5.13516e-08
1.52809e-09
5.13528e-08
1.50094e-09
5.13537e-08
1.47375e-09
5.13543e-08
1.44608e-09
5.13547e-08
1.41816e-09
5.13549e-08
1.39031e-09
5.13551e-08
1.36224e-09
5.1355e-08
1.3335e-09
5.13547e-08
1.30413e-09
5.13541e-08
1.27438e-09
5.1353e-08
1.24407e-09
5.13512e-08
1.21262e-09
5.13487e-08
1.17979e-09
5.13456e-08
1.14573e-09
5.13421e-08
1.11058e-09
5.13384e-08
1.07418e-09
5.13345e-08
1.03668e-09
5.13305e-08
9.9858e-10
5.13261e-08
9.60181e-10
5.13207e-08
9.21256e-10
5.13137e-08
8.81774e-10
5.13046e-08
8.41969e-10
5.12933e-08
8.02012e-10
5.12799e-08
7.61316e-10
5.1265e-08
7.19288e-10
5.12492e-08
6.75689e-10
5.12333e-08
6.31041e-10
5.12176e-08
5.85751e-10
5.12019e-08
5.40534e-10
5.11859e-08
4.9652e-10
5.11692e-08
4.56426e-10
5.11517e-08
4.23243e-10
5.11333e-08
3.992e-10
5.11139e-08
3.83168e-10
5.10932e-08
3.71668e-10
5.10709e-08
3.59517e-10
5.10467e-08
3.43498e-10
5.10212e-08
3.22202e-10
5.09954e-08
2.97499e-10
5.09707e-08
2.71334e-10
5.09486e-08
2.4677e-10
5.09301e-08
2.24985e-10
5.09152e-08
2.08275e-10
5.09028e-08
1.96806e-10
5.08913e-08
1.92094e-10
5.08788e-08
1.92017e-10
5.08638e-08
1.95638e-10
5.0846e-08
1.97969e-10
5.0826e-08
1.98041e-10
5.08056e-08
1.92641e-10
5.07861e-08
1.85947e-10
5.07684e-08
1.78843e-10
5.07516e-08
1.79206e-10
5.07343e-08
1.86475e-10
5.07133e-08
2.05954e-10
5.06863e-08
2.30352e-10
5.06505e-08
2.61401e-10
5.06059e-08
2.87001e-10
5.05518e-08
3.10647e-10
5.04911e-08
3.19973e-10
5.04249e-08
3.24784e-10
5.03576e-08
3.13126e-10
5.02898e-08
3.01622e-10
5.02258e-08
2.75521e-10
5.01644e-08
2.57383e-10
5.01097e-08
2.25662e-10
5.00583e-08
2.09682e-10
5.00146e-08
1.77582e-10
4.9973e-08
1.68844e-10
1.37353e-10
5.17184e-08
1.63424e-09
-5.16488e-08
5.18093e-08
1.81522e-09
5.19206e-08
1.97274e-09
5.20495e-08
2.11569e-09
5.219e-08
2.23511e-09
5.23327e-08
2.32194e-09
5.24684e-08
2.37132e-09
5.25908e-08
2.38509e-09
5.26977e-08
2.37012e-09
5.2789e-08
2.33528e-09
5.28656e-08
2.28834e-09
5.29287e-08
2.23505e-09
5.29797e-08
2.17944e-09
5.30205e-08
2.12421e-09
5.30532e-08
2.07121e-09
5.308e-08
2.02173e-09
5.31022e-08
1.97613e-09
5.31208e-08
1.93387e-09
5.31364e-08
1.89426e-09
5.31496e-08
1.85695e-09
5.31608e-08
1.82161e-09
5.31703e-08
1.78775e-09
5.31784e-08
1.75517e-09
5.31853e-08
1.72394e-09
5.31912e-08
1.69385e-09
5.31963e-08
1.66443e-09
5.32005e-08
1.63565e-09
5.32042e-08
1.6077e-09
5.32073e-08
1.58033e-09
5.321e-08
1.55306e-09
5.32121e-08
1.52593e-09
5.3214e-08
1.4991e-09
5.32155e-08
1.47223e-09
5.32167e-08
1.44489e-09
5.32176e-08
1.41721e-09
5.32185e-08
1.38946e-09
5.32192e-08
1.36147e-09
5.32199e-08
1.33286e-09
5.32203e-08
1.30372e-09
5.32204e-08
1.27426e-09
5.32202e-08
1.24431e-09
5.32194e-08
1.21336e-09
5.32181e-08
1.18116e-09
5.32161e-08
1.14768e-09
5.32138e-08
1.11292e-09
5.32112e-08
1.07671e-09
5.32086e-08
1.03929e-09
5.3206e-08
1.00122e-09
5.32031e-08
9.63083e-10
5.31995e-08
9.24904e-10
5.31944e-08
8.86804e-10
5.31875e-08
8.48928e-10
5.31783e-08
8.11162e-10
5.31671e-08
7.72497e-10
5.31544e-08
7.31988e-10
5.3141e-08
6.8913e-10
5.31276e-08
6.44439e-10
5.31147e-08
5.98617e-10
5.31022e-08
5.53027e-10
5.30894e-08
5.09311e-10
5.30755e-08
4.70327e-10
5.30602e-08
4.38625e-10
5.30434e-08
4.15941e-10
5.30258e-08
4.00813e-10
5.30075e-08
3.89982e-10
5.29884e-08
3.78562e-10
5.29683e-08
3.6364e-10
5.2947e-08
3.43508e-10
5.29249e-08
3.19576e-10
5.29032e-08
2.9302e-10
5.28832e-08
2.66738e-10
5.28662e-08
2.41973e-10
5.28525e-08
2.22022e-10
5.28414e-08
2.07877e-10
5.28313e-08
2.02212e-10
5.28204e-08
2.02905e-10
5.28071e-08
2.08955e-10
5.27911e-08
2.13952e-10
5.27729e-08
2.16254e-10
5.27542e-08
2.11305e-10
5.27363e-08
2.03863e-10
5.27204e-08
1.94803e-10
5.27055e-08
1.94116e-10
5.26904e-08
2.01565e-10
5.26718e-08
2.24514e-10
5.26476e-08
2.54531e-10
5.26147e-08
2.9434e-10
5.25728e-08
3.28908e-10
5.25209e-08
3.62484e-10
5.24619e-08
3.79005e-10
5.23964e-08
3.90278e-10
5.23289e-08
3.80597e-10
5.226e-08
3.70577e-10
5.21943e-08
3.41215e-10
5.21306e-08
3.21104e-10
5.20734e-08
2.82818e-10
5.20192e-08
2.63918e-10
5.1973e-08
2.23797e-10
5.19286e-08
2.13181e-10
1.73043e-10
5.36878e-08
1.56722e-09
-5.36207e-08
5.37725e-08
1.73042e-09
5.38743e-08
1.87097e-09
5.39907e-08
1.99935e-09
5.41172e-08
2.10862e-09
5.42469e-08
2.19216e-09
5.43727e-08
2.24557e-09
5.44886e-08
2.26917e-09
5.45916e-08
2.26716e-09
5.46808e-08
2.24601e-09
5.4757e-08
2.21218e-09
5.48211e-08
2.17098e-09
5.48742e-08
2.12628e-09
5.49179e-08
2.08055e-09
5.49537e-08
2.03541e-09
5.49833e-08
1.99212e-09
5.50081e-08
1.95134e-09
5.5029e-08
1.91293e-09
5.50468e-08
1.87651e-09
5.50619e-08
1.84186e-09
5.50747e-08
1.80873e-09