/*--------------------------------*- C++ -*----------------------------------*\
| =========                 |                                                 |
| \\      /  F ield         | OpenFOAM: The Open Source CFD Toolbox           |
|  \\    /   O peration     | Version:  2.3.0                                 |
|   \\  /    A nd           | Web:      www.OpenFOAM.org                      |
|    \\/     M anipulation  |                                                 |
\*---------------------------------------------------------------------------*/
FoamFile
{
    version     2.0;
    format      ascii;
    class       volVectorField;
    location    "0.25";
    object      U_0;
}
// * * * * * * * * * * * * * * * * * * * * * * * * * * * * * * * * * * * * * //

dimensions      [0 1 -1 0 0 0 0];

internalField   nonuniform List<vector> 
2889
(
(0.179013 0.00424379 0)
(0.158158 0.00589427 0)
(0.139391 0.00610826 0)
(0.12127 0.00553528 0)
(0.103819 0.00474459 0)
(0.0877654 0.00387552 0)
(0.0741053 0.00293751 0)
(0.0632833 0.00194173 0)
(0.0551748 0.00105064 0)
(0.0492937 0.00042353 0)
(0.0450859 7.54618e-05 0)
(0.042078 -7.46452e-05 0)
(0.0398838 -0.000109995 0)
(0.0382138 -8.96394e-05 0)
(0.0368587 -4.75379e-05 0)
(0.0356833 -3.75229e-06 0)
(0.0346105 3.13049e-05 0)
(0.0336038 5.46784e-05 0)
(0.0326495 6.76382e-05 0)
(0.0317452 7.29286e-05 0)
(0.0308921 7.32801e-05 0)
(0.0300907 7.08447e-05 0)
(0.0293406 6.70837e-05 0)
(0.0286397 6.28509e-05 0)
(0.0279852 5.85904e-05 0)
(0.027374 5.45369e-05 0)
(0.0268027 5.08168e-05 0)
(0.0262675 4.74767e-05 0)
(0.0257651 4.44782e-05 0)
(0.0252925 4.1724e-05 0)
(0.0248474 3.91409e-05 0)
(0.0244279 3.67222e-05 0)
(0.0240323 3.44869e-05 0)
(0.0236588 3.24319e-05 0)
(0.0233061 3.05151e-05 0)
(0.0229728 2.86832e-05 0)
(0.0226582 2.69291e-05 0)
(0.0223614 2.52799e-05 0)
(0.0220815 2.37316e-05 0)
(0.0218178 2.22545e-05 0)
(0.0215697 2.08283e-05 0)
(0.0213368 1.94387e-05 0)
(0.0211187 1.80888e-05 0)
(0.020915 1.68101e-05 0)
(0.0207252 1.56175e-05 0)
(0.0205487 1.44862e-05 0)
(0.0203852 1.3382e-05 0)
(0.0202346 1.22721e-05 0)
(0.0200969 1.11288e-05 0)
(0.0199721 9.95847e-06 0)
(0.0198603 8.78823e-06 0)
(0.0197612 7.61848e-06 0)
(0.0196747 6.4265e-06 0)
(0.0196006 5.21172e-06 0)
(0.0195387 4.01046e-06 0)
(0.0194891 2.86725e-06 0)
(0.0194517 1.78586e-06 0)
(0.019426 7.83868e-07 0)
(0.0194115 -8.94986e-08 0)
(0.0194071 -9.17934e-07 0)
(0.0194111 -1.9359e-06 0)
(0.0194215 -2.40412e-06 0)
(0.0194364 -2.74436e-06 0)
(0.0194541 -2.91253e-06 0)
(0.0194732 -2.94434e-06 0)
(0.0194925 -2.85616e-06 0)
(0.0195113 -2.71807e-06 0)
(0.019529 -2.52215e-06 0)
(0.0195453 -2.28679e-06 0)
(0.01956 -2.03315e-06 0)
(0.019573 -1.79063e-06 0)
(0.0195844 -1.57166e-06 0)
(0.0195944 -1.38289e-06 0)
(0.0196033 -1.23124e-06 0)
(0.0196112 -1.11118e-06 0)
(0.0196184 -1.00999e-06 0)
(0.019625 -9.33086e-07 0)
(0.019631 -8.70895e-07 0)
(0.0196367 -8.27234e-07 0)
(0.0196421 -7.82314e-07 0)
(0.0196472 -7.36456e-07 0)
(0.0196519 -6.65535e-07 0)
(0.0196561 -5.82935e-07 0)
(0.0196596 -4.74202e-07 0)
(0.0196625 -3.72179e-07 0)
(0.0196645 -2.64726e-07 0)
(0.0196661 -1.91772e-07 0)
(0.0196669 -1.23877e-07 0)
(0.0196677 -1.00472e-07 0)
(0.019668 -7.1657e-08 0)
(0.0196688 -8.28319e-08 0)
(0.019669 -6.70803e-08 0)
(0.0196698 -8.58537e-08 0)
(0.01967 -6.05823e-08 0)
(0.0196708 -7.36281e-08 0)
(0.0196708 -3.14102e-08 0)
(0.0196714 -3.68692e-08 0)
(0.019671 1.3257e-08 0)
(0.0196712 4.26061e-09 0)
(0.0196703 5.68922e-08 0)
(0.194791 0.00761221 0)
(0.192848 0.0107242 0)
(0.190227 0.0118569 0)
(0.186415 0.0117219 0)
(0.181087 0.0110955 0)
(0.174377 0.0102201 0)
(0.166859 0.00910111 0)
(0.159021 0.00772658 0)
(0.151246 0.00622999 0)
(0.143776 0.00482112 0)
(0.136747 0.00364694 0)
(0.130261 0.00274803 0)
(0.124362 0.00209502 0)
(0.119062 0.00164332 0)
(0.114321 0.00134327 0)
(0.110073 0.00114685 0)
(0.106248 0.00101457 0)
(0.102782 0.000918838 0)
(0.0996215 0.000842868 0)
(0.0967234 0.000777641 0)
(0.0940533 0.00071891 0)
(0.0915833 0.000664972 0)
(0.0892908 0.000615262 0)
(0.0871567 0.000569558 0)
(0.0851651 0.000527672 0)
(0.0833023 0.000489455 0)
(0.0815565 0.000454808 0)
(0.079917 0.000423567 0)
(0.0783745 0.000395331 0)
(0.0769209 0.000369516 0)
(0.0755497 0.000345657 0)
(0.074255 0.000323548 0)
(0.0730319 0.000303097 0)
(0.0718757 0.000284159 0)
(0.0707823 0.000266473 0)
(0.0697482 0.000249748 0)
(0.0687707 0.000233872 0)
(0.067847 0.000218881 0)
(0.066975 0.000204708 0)
(0.0661524 0.00019119 0)
(0.0653776 0.000178212 0)
(0.0646491 0.000165697 0)
(0.0639658 0.000153628 0)
(0.0633265 0.000142078 0)
(0.0627299 0.000131067 0)
(0.0621749 0.000120484 0)
(0.0616605 0.000110197 0)
(0.0611865 0.000100103 0)
(0.0607524 9.01226e-05 0)
(0.0603582 8.02889e-05 0)
(0.0600032 7.07143e-05 0)
(0.0596869 6.14298e-05 0)
(0.0594086 5.23796e-05 0)
(0.0591673 4.35534e-05 0)
(0.0589623 3.50147e-05 0)
(0.0587924 2.68328e-05 0)
(0.0586563 1.90812e-05 0)
(0.0585519 1.19548e-05 0)
(0.0584766 5.73568e-06 0)
(0.0584268 4.81867e-07 0)
(0.0583986 -3.97525e-06 0)
(0.0583875 -7.49077e-06 0)
(0.0583888 -9.59866e-06 0)
(0.0583986 -1.06117e-05 0)
(0.0584138 -1.09167e-05 0)
(0.0584314 -1.06173e-05 0)
(0.0584498 -1.00258e-05 0)
(0.0584675 -9.21849e-06 0)
(0.0584838 -8.27626e-06 0)
(0.058498 -7.28495e-06 0)
(0.0585101 -6.34952e-06 0)
(0.0585202 -5.53514e-06 0)
(0.0585287 -4.84661e-06 0)
(0.0585357 -4.28048e-06 0)
(0.0585418 -3.82783e-06 0)
(0.0585468 -3.45073e-06 0)
(0.0585513 -3.15727e-06 0)
(0.058555 -2.91465e-06 0)
(0.0585586 -2.7306e-06 0)
(0.0585614 -2.54595e-06 0)
(0.0585643 -2.35896e-06 0)
(0.0585661 -2.09817e-06 0)
(0.058568 -1.80441e-06 0)
(0.0585684 -1.43819e-06 0)
(0.0585689 -1.10142e-06 0)
(0.0585678 -7.58781e-07 0)
(0.0585673 -5.27093e-07 0)
(0.0585654 -3.31724e-07 0)
(0.0585648 -2.76205e-07 0)
(0.0585629 -2.04348e-07 0)
(0.0585628 -2.50763e-07 0)
(0.0585611 -2.08528e-07 0)
(0.0585616 -2.694e-07 0)
(0.0585601 -1.83793e-07 0)
(0.058561 -2.18193e-07 0)
(0.0585592 -6.95611e-08 0)
(0.0585599 -7.85066e-08 0)
(0.0585575 1.2363e-07 0)
(0.0585578 1.16868e-07 0)
(0.0585547 3.01139e-07 0)
(0.195807 0.00730865 0)
(0.196118 0.00989442 0)
(0.197056 0.0115191 0)
(0.198108 0.0120619 0)
(0.198617 0.0119771 0)
(0.198227 0.0115549 0)
(0.196917 0.0108461 0)
(0.194802 0.00986841 0)
(0.192033 0.00871591 0)
(0.188775 0.00754538 0)
(0.185172 0.00648986 0)
(0.181371 0.00561062 0)
(0.177491 0.00490204 0)
(0.173632 0.00433767 0)
(0.169846 0.00388562 0)
(0.166157 0.00351624 0)
(0.162575 0.00320589 0)
(0.159105 0.00293779 0)
(0.155748 0.00270095 0)
(0.152505 0.00248851 0)
(0.149377 0.00229636 0)
(0.146364 0.00212197 0)
(0.143467 0.00196357 0)
(0.140685 0.00181958 0)
(0.138018 0.00168859 0)
(0.135463 0.00156938 0)
(0.133017 0.00146096 0)
(0.130677 0.00136245 0)
(0.128441 0.00127277 0)
(0.126304 0.00119056 0)
(0.124262 0.00111463 0)
(0.122313 0.00104423 0)
(0.120452 0.000978933 0)
(0.118676 0.000918325 0)
(0.116983 0.000861784 0)
(0.115369 0.000808574 0)
(0.113831 0.000758216 0)
(0.112367 0.000710561 0)
(0.110975 0.000665414 0)
(0.109652 0.000622412 0)
(0.108397 0.000581216 0)
(0.107208 0.000541566 0)
(0.106084 0.000503348 0)
(0.105025 0.000466644 0)
(0.104028 0.00043147 0)
(0.103093 0.000397592 0)
(0.102219 0.000364689 0)
(0.101405 0.000332493 0)
(0.100652 0.00030087 0)
(0.0999579 0.000269919 0)
(0.0993233 0.000239881 0)
(0.0987472 0.000210859 0)
(0.0982288 0.000182815 0)
(0.0977668 0.000155771 0)
(0.0973599 0.000129825 0)
(0.0970063 0.000105054 0)
(0.0967039 8.16533e-05 0)
(0.09645 6.00462e-05 0)
(0.0962411 4.08057e-05 0)
(0.0960726 2.45747e-05 0)
(0.0959396 1.16577e-05 0)
(0.0958365 1.36055e-06 0)
(0.095758 -5.65963e-06 0)
(0.0956984 -9.89194e-06 0)
(0.0956533 -1.21155e-05 0)
(0.0956182 -1.32148e-05 0)
(0.0955904 -1.31456e-05 0)
(0.0955669 -1.22623e-05 0)
(0.0955464 -1.09067e-05 0)
(0.095527 -9.34191e-06 0)
(0.0955085 -7.81334e-06 0)
(0.0954902 -6.43656e-06 0)
(0.0954725 -5.39344e-06 0)
(0.0954547 -4.5595e-06 0)
(0.0954379 -3.88591e-06 0)
(0.0954208 -3.3286e-06 0)
(0.0954047 -2.90031e-06 0)
(0.0953882 -2.56038e-06 0)
(0.0953729 -2.31269e-06 0)
(0.0953569 -2.07229e-06 0)
(0.0953421 -1.82638e-06 0)
(0.0953264 -1.47092e-06 0)
(0.0953122 -1.06419e-06 0)
(0.0952967 -5.58861e-07 0)
(0.0952831 -1.13954e-07 0)
(0.0952681 3.11667e-07 0)
(0.0952558 5.42604e-07 0)
(0.0952422 7.01173e-07 0)
(0.0952323 6.36455e-07 0)
(0.0952208 6.00287e-07 0)
(0.0952137 3.94454e-07 0)
(0.0952043 3.49629e-07 0)
(0.0951998 1.62531e-07 0)
(0.0951917 2.37437e-07 0)
(0.095189 1.30645e-07 0)
(0.0951814 3.53401e-07 0)
(0.09518 3.14058e-07 0)
(0.0951722 6.58894e-07 0)
(0.0951716 6.61975e-07 0)
(0.0951631 9.82924e-07 0)
(0.196759 0.00686895 0)
(0.197067 0.0087165 0)
(0.198035 0.0102386 0)
(0.199572 0.0110249 0)
(0.201205 0.0111996 0)
(0.202538 0.0110012 0)
(0.20339 0.0105454 0)
(0.203727 0.00987917 0)
(0.203566 0.00906309 0)
(0.202949 0.00819544 0)
(0.201939 0.00737696 0)
(0.200618 0.00666905 0)
(0.199074 0.00608593 0)
(0.197383 0.00560939 0)
(0.195595 0.00521402 0)
(0.193737 0.0048778 0)
(0.191824 0.00458406 0)
(0.189864 0.00432089 0)
(0.187864 0.00408014 0)
(0.18583 0.00385649 0)
(0.18377 0.00364674 0)
(0.18169 0.00344913 0)
(0.1796 0.00326259 0)
(0.177506 0.00308624 0)
(0.175416 0.00291941 0)
(0.173337 0.00276173 0)
(0.171275 0.00261296 0)
(0.169236 0.00247283 0)
(0.167226 0.00234081 0)
(0.165248 0.00221607 0)
(0.163306 0.00209777 0)
(0.161403 0.00198535 0)
(0.159542 0.00187848 0)
(0.157726 0.00177695 0)
(0.155957 0.00168032 0)
(0.154236 0.00158799 0)
(0.152567 0.00149953 0)
(0.15095 0.00141475 0)
(0.149387 0.00133345 0)
(0.147878 0.00125527 0)
(0.146425 0.00117983 0)
(0.145028 0.00110668 0)
(0.143687 0.00103557 0)
(0.142404 0.000966557 0)
(0.141179 0.000899712 0)
(0.140015 0.000834898 0)
(0.13891 0.000771805 0)
(0.137866 0.000710004 0)
(0.136884 0.000649178 0)
(0.135964 0.000589425 0)
(0.135106 0.00053113 0)
(0.13431 0.000474518 0)
(0.133577 0.000419627 0)
(0.132905 0.000366585 0)
(0.132294 0.000315631 0)
(0.131742 0.000266967 0)
(0.131249 0.000220918 0)
(0.130812 0.000178152 0)
(0.130427 0.000139532 0)
(0.13009 0.00010575 0)
(0.129798 7.73214e-05 0)
(0.129545 5.46657e-05 0)
(0.129328 3.73875e-05 0)
(0.129141 2.48927e-05 0)
(0.128981 1.62604e-05 0)
(0.128842 1.02404e-05 0)
(0.128722 6.64173e-06 0)
(0.128616 4.91802e-06 0)
(0.128521 4.48051e-06 0)
(0.128433 4.80061e-06 0)
(0.128353 5.41254e-06 0)
(0.128277 6.0522e-06 0)
(0.128206 6.46114e-06 0)
(0.128139 6.70794e-06 0)
(0.128077 6.86713e-06 0)
(0.128017 6.97563e-06 0)
(0.127961 7.02655e-06 0)
(0.127906 7.02149e-06 0)
(0.127854 6.95562e-06 0)
(0.127802 6.88708e-06 0)
(0.127753 6.84326e-06 0)
(0.127703 6.90775e-06 0)
(0.127656 7.02637e-06 0)
(0.127607 7.2046e-06 0)
(0.127562 7.27393e-06 0)
(0.127516 7.23501e-06 0)
(0.127476 6.92317e-06 0)
(0.127435 6.47832e-06 0)
(0.127402 5.7818e-06 0)
(0.127367 5.11795e-06 0)
(0.127342 4.32404e-06 0)
(0.127314 3.76263e-06 0)
(0.127296 3.1285e-06 0)
(0.127272 2.8543e-06 0)
(0.12726 2.45349e-06 0)
(0.127239 2.47976e-06 0)
(0.127232 2.27369e-06 0)
(0.127212 2.52381e-06 0)
(0.127209 2.46159e-06 0)
(0.127188 2.74355e-06 0)
(0.197485 0.00654307 0)
(0.197794 0.00795289 0)
(0.198567 0.0092549 0)
(0.199855 0.0100894 0)
(0.201399 0.0103875 0)
(0.202881 0.0102949 0)
(0.204109 0.0099529 0)
(0.205023 0.00944158 0)
(0.205623 0.00881519 0)
(0.205921 0.00813706 0)
(0.205945 0.00747806 0)
(0.205737 0.00689161 0)
(0.205354 0.00639943 0)
(0.204846 0.00599444 0)
(0.204253 0.00565822 0)
(0.203593 0.00537278 0)
(0.202875 0.00512402 0)
(0.202103 0.00490162 0)
(0.201275 0.00469815 0)
(0.200392 0.00450846 0)
(0.199454 0.00432916 0)
(0.198463 0.00415825 0)
(0.197423 0.00399446 0)
(0.196337 0.00383684 0)
(0.195208 0.00368472 0)
(0.194042 0.00353783 0)
(0.192843 0.00339607 0)
(0.191614 0.00325933 0)
(0.190361 0.00312732 0)
(0.189089 0.00299959 0)
(0.187801 0.00287571 0)
(0.186502 0.00275542 0)
(0.185195 0.00263855 0)
(0.183883 0.002525 0)
(0.182571 0.00241442 0)
(0.181262 0.00230622 0)
(0.17996 0.00220019 0)
(0.178669 0.00209649 0)
(0.177392 0.00199508 0)
(0.176134 0.00189588 0)
(0.174897 0.00179875 0)
(0.173683 0.0017034 0)
(0.172496 0.00160951 0)
(0.171336 0.00151703 0)
(0.170207 0.0014259 0)
(0.16911 0.00133601 0)
(0.16805 0.00124727 0)
(0.167028 0.00115951 0)
(0.166049 0.00107253 0)
(0.165112 0.000986522 0)
(0.164222 0.000901974 0)
(0.163377 0.000819137 0)
(0.162579 0.000738073 0)
(0.161829 0.000659007 0)
(0.161127 0.000582395 0)
(0.160475 0.000508718 0)
(0.159873 0.000438615 0)
(0.159319 0.000372995 0)
(0.158813 0.000312932 0)
(0.158351 0.000259307 0)
(0.157929 0.000212674 0)
(0.157544 0.000173203 0)
(0.157193 0.000140574 0)
(0.156874 0.000114206 0)
(0.156588 9.33804e-05 0)
(0.156332 7.7533e-05 0)
(0.156105 6.58439e-05 0)
(0.155902 5.75856e-05 0)
(0.155719 5.19915e-05 0)
(0.155551 4.81664e-05 0)
(0.155395 4.53495e-05 0)
(0.155248 4.29337e-05 0)
(0.155111 4.07149e-05 0)
(0.154981 3.8593e-05 0)
(0.15486 3.66596e-05 0)
(0.154744 3.49318e-05 0)
(0.154636 3.34658e-05 0)
(0.154532 3.22024e-05 0)
(0.154434 3.11826e-05 0)
(0.154338 3.03682e-05 0)
(0.154246 2.98071e-05 0)
(0.154152 2.94121e-05 0)
(0.154062 2.91114e-05 0)
(0.153966 2.86839e-05 0)
(0.153876 2.79819e-05 0)
(0.153781 2.68223e-05 0)
(0.153695 2.51954e-05 0)
(0.153607 2.31395e-05 0)
(0.153532 2.08115e-05 0)
(0.153455 1.84e-05 0)
(0.153396 1.60558e-05 0)
(0.153332 1.39573e-05 0)
(0.153288 1.21121e-05 0)
(0.153235 1.06468e-05 0)
(0.153205 9.42091e-06 0)
(0.153159 8.56209e-06 0)
(0.153139 7.85487e-06 0)
(0.153097 7.42784e-06 0)
(0.153088 7.12642e-06 0)
(0.153046 6.87237e-06 0)
(0.19808 0.00627138 0)
(0.198391 0.00741946 0)
(0.199039 0.0085133 0)
(0.200084 0.0093107 0)
(0.201389 0.00967915 0)
(0.202722 0.00967358 0)
(0.203902 0.00941698 0)
(0.204856 0.00900489 0)
(0.205575 0.00849674 0)
(0.206076 0.00794018 0)
(0.206381 0.00738552 0)
(0.20652 0.00687691 0)
(0.206533 0.00643859 0)
(0.20646 0.0060724 0)
(0.206332 0.00576725 0)
(0.206168 0.00550901 0)
(0.205976 0.00528534 0)
(0.205757 0.00508684 0)
(0.20551 0.0049068 0)
(0.20523 0.00474037 0)
(0.204917 0.00458413 0)
(0.204569 0.00443591 0)
(0.204185 0.00429437 0)
(0.203766 0.0041583 0)
(0.203311 0.00402674 0)
(0.202822 0.00389922 0)
(0.202299 0.00377547 0)
(0.201744 0.00365516 0)
(0.201158 0.0035379 0)
(0.200542 0.00342329 0)
(0.1999 0.00331097 0)
(0.199232 0.00320063 0)
(0.19854 0.00309212 0)
(0.197827 0.00298546 0)
(0.197094 0.00288034 0)
(0.196342 0.00277594 0)
(0.195574 0.00267188 0)
(0.194793 0.00256831 0)
(0.194001 0.00246523 0)
(0.193201 0.0023625 0)
(0.192397 0.00226027 0)
(0.191592 0.00215863 0)
(0.190787 0.0020576 0)
(0.189985 0.00195717 0)
(0.189187 0.00185707 0)
(0.188395 0.00175687 0)
(0.187611 0.00165633 0)
(0.186838 0.00155521 0)
(0.18608 0.00145348 0)
(0.185339 0.00135174 0)
(0.18462 0.00125096 0)
(0.183923 0.00115163 0)
(0.18325 0.00105379 0)
(0.182602 0.000957521 0)
(0.181979 0.000863144 0)
(0.181383 0.000771103 0)
(0.180816 0.000682243 0)
(0.180281 0.000597982 0)
(0.179779 0.000520206 0)
(0.17931 0.000450489 0)
(0.17887 0.000389559 0)
(0.178454 0.000337022 0)
(0.178057 0.000291717 0)
(0.177679 0.000252278 0)
(0.177324 0.000217882 0)
(0.176996 0.000188411 0)
(0.176698 0.000164189 0)
(0.176431 0.000145335 0)
(0.17619 0.000131408 0)
(0.17597 0.000121169 0)
(0.175766 0.000113308 0)
(0.175572 0.000106578 0)
(0.175388 0.000100441 0)
(0.175211 9.45499e-05 0)
(0.175043 8.90616e-05 0)
(0.174881 8.39442e-05 0)
(0.174728 7.94333e-05 0)
(0.174581 7.54463e-05 0)
(0.174444 7.22972e-05 0)
(0.17431 6.99251e-05 0)
(0.174183 6.86228e-05 0)
(0.174053 6.80214e-05 0)
(0.173927 6.80467e-05 0)
(0.173791 6.78591e-05 0)
(0.173657 6.72377e-05 0)
(0.17351 6.53604e-05 0)
(0.173372 6.24615e-05 0)
(0.173224 5.81586e-05 0)
(0.173094 5.32709e-05 0)
(0.172957 4.76437e-05 0)
(0.172847 4.23257e-05 0)
(0.172728 3.69485e-05 0)
(0.172644 3.25167e-05 0)
(0.172544 2.82521e-05 0)
(0.172485 2.51598e-05 0)
(0.172399 2.20633e-05 0)
(0.172362 2.01936e-05 0)
(0.172284 1.79455e-05 0)
(0.172266 1.70727e-05 0)
(0.172191 1.52691e-05 0)
(0.1986 0.00602116 0)
(0.198905 0.00698471 0)
(0.199463 0.00790278 0)
(0.200324 0.00862028 0)
(0.201412 0.00901488 0)
(0.202567 0.00908368 0)
(0.203634 0.00890964 0)
(0.20453 0.00858253 0)
(0.205233 0.00816593 0)
(0.205754 0.00770326 0)
(0.206116 0.00723241 0)
(0.206346 0.00678778 0)
(0.206474 0.00639272 0)
(0.206533 0.00605464 0)
(0.20655 0.00576885 0)
(0.206543 0.00552544 0)
(0.206523 0.0053141 0)
(0.206493 0.00512642 0)
(0.206451 0.00495659 0)
(0.206397 0.00480043 0)
(0.206328 0.00465471 0)
(0.206242 0.00451734 0)
(0.206141 0.00438715 0)
(0.206021 0.00426294 0)
(0.205884 0.00414344 0)
(0.205728 0.00402803 0)
(0.205553 0.00391646 0)
(0.205359 0.00380824 0)
(0.205146 0.00370268 0)
(0.204914 0.00359934 0)
(0.204664 0.00349801 0)
(0.204395 0.00339822 0)
(0.204108 0.00329953 0)
(0.203803 0.00320215 0)
(0.203482 0.0031061 0)
(0.203143 0.00301044 0)
(0.202787 0.00291431 0)
(0.202414 0.00281765 0)
(0.202027 0.00272049 0)
(0.201625 0.00262259 0)
(0.201211 0.00252386 0)
(0.200787 0.00242449 0)
(0.200354 0.00232494 0)
(0.199914 0.00222552 0)
(0.199467 0.002126 0)
(0.199013 0.00202582 0)
(0.198554 0.0019246 0)
(0.19809 0.00182174 0)
(0.197623 0.00171677 0)
(0.197154 0.0016102 0)
(0.196689 0.00150343 0)
(0.196227 0.00139754 0)
(0.195772 0.0012929 0)
(0.195322 0.00118961 0)
(0.194879 0.00108785 0)
(0.194444 0.000987756 0)
(0.194018 0.000889706 0)
(0.193604 0.000794769 0)
(0.193206 0.000705248 0)
(0.192828 0.000624101 0)
(0.19247 0.000553852 0)
(0.192125 0.000494843 0)
(0.191788 0.000444929 0)
(0.191452 0.000400399 0)
(0.191119 0.000358438 0)
(0.190796 0.000318285 0)
(0.190493 0.000281445 0)
(0.190215 0.000249896 0)
(0.189967 0.000225048 0)
(0.189743 0.000206442 0)
(0.189539 0.000192736 0)
(0.189346 0.000181856 0)
(0.189163 0.000172559 0)
(0.188981 0.000163787 0)
(0.188807 0.000155512 0)
(0.188632 0.000147361 0)
(0.188464 0.000139696 0)
(0.188298 0.000132282 0)
(0.188143 0.000125957 0)
(0.187991 0.000120824 0)
(0.187851 0.000118012 0)
(0.187706 0.0001171 0)
(0.187569 0.000118435 0)
(0.187415 0.000120258 0)
(0.18726 0.000122218 0)
(0.187081 0.000122058 0)
(0.186905 0.000120133 0)
(0.186705 0.00011486 0)
(0.186522 0.00010804 0)
(0.186322 9.86357e-05 0)
(0.186155 8.94051e-05 0)
(0.185972 7.89141e-05 0)
(0.185838 7.02664e-05 0)
(0.185679 6.09748e-05 0)
(0.185581 5.4484e-05 0)
(0.185445 4.70636e-05 0)
(0.185382 4.29627e-05 0)
(0.18526 3.70694e-05 0)
(0.185229 3.50872e-05 0)
(0.185111 3.00742e-05 0)
(0.199051 0.00578196 0)
(0.199345 0.00660105 0)
(0.199834 0.00737535 0)
(0.200554 0.00800437 0)
(0.201464 0.00839414 0)
(0.202455 0.00851741 0)
(0.203405 0.00841875 0)
(0.20423 0.0081697 0)
(0.204896 0.00783169 0)
(0.205405 0.00744761 0)
(0.205776 0.00704929 0)
(0.206034 0.00666358 0)
(0.206202 0.00631076 0)
(0.206307 0.00600055 0)
(0.206372 0.00573282 0)
(0.206415 0.00550173 0)
(0.206447 0.00529937 0)
(0.20647 0.00511847 0)
(0.206489 0.00495411 0)
(0.206501 0.00480292 0)
(0.206506 0.00466199 0)
(0.206504 0.00452928 0)
(0.206494 0.00440395 0)
(0.206477 0.00428501 0)
(0.206452 0.00417098 0)
(0.206418 0.00406111 0)
(0.206377 0.00395535 0)
(0.206327 0.0038532 0)
(0.206269 0.00375364 0)
(0.206201 0.00365617 0)
(0.206125 0.00356089 0)
(0.20604 0.00346726 0)
(0.205945 0.00337446 0)
(0.205841 0.00328262 0)
(0.205729 0.00319232 0)
(0.205607 0.00310282 0)
(0.205475 0.00301282 0)
(0.205332 0.00292193 0)
(0.20518 0.0028304 0)
(0.205017 0.00273803 0)
(0.204844 0.00264425 0)
(0.204661 0.00254889 0)
(0.20447 0.00245264 0)
(0.204272 0.00235624 0)
(0.204067 0.00225967 0)
(0.203855 0.00216245 0)
(0.203636 0.00206434 0)
(0.203409 0.00196467 0)
(0.203173 0.00186247 0)
(0.202929 0.00175761 0)
(0.202678 0.00165141 0)
(0.202422 0.00154534 0)
(0.202163 0.00144024 0)
(0.2019 0.00133629 0)
(0.201634 0.00123369 0)
(0.201366 0.00113252 0)
(0.201097 0.00103283 0)
(0.200828 0.000934771 0)
(0.200562 0.000840005 0)
(0.200304 0.000752104 0)
(0.200058 0.000675702 0)
(0.199821 0.000613279 0)
(0.199587 0.000563425 0)
(0.199345 0.000520816 0)
(0.199094 0.000479755 0)
(0.198835 0.000436778 0)
(0.19858 0.000392694 0)
(0.198338 0.000350653 0)
(0.19812 0.000314566 0)
(0.197924 0.000286054 0)
(0.197752 0.000265097 0)
(0.197593 0.000249558 0)
(0.197446 0.000237794 0)
(0.197299 0.000227795 0)
(0.197156 0.000219057 0)
(0.197006 0.000210309 0)
(0.196857 0.000201666 0)
(0.196703 0.000192186 0)
(0.196557 0.000183146 0)
(0.196409 0.000174724 0)
(0.196277 0.000169511 0)
(0.196141 0.000167481 0)
(0.196016 0.000170319 0)
(0.195871 0.000175487 0)
(0.195726 0.000182856 0)
(0.195543 0.000187994 0)
(0.195358 0.000191197 0)
(0.195132 0.000188521 0)
(0.194918 0.000182796 0)
(0.194669 0.000171147 0)
(0.194456 0.000158771 0)
(0.194214 0.000142424 0)
(0.194031 0.000128613 0)
(0.193814 0.000112223 0)
(0.193676 0.0001008 0)
(0.193485 8.6626e-05 0)
(0.193395 7.89972e-05 0)
(0.193224 6.7134e-05 0)
(0.193179 6.33414e-05 0)
(0.193015 5.29211e-05 0)
(0.199435 0.00554976 0)
(0.199715 0.00625133 0)
(0.200146 0.00691038 0)
(0.200759 0.00745866 0)
(0.201526 0.00782792 0)
(0.202375 0.00798591 0)
(0.203213 0.00795071 0)
(0.203964 0.00777248 0)
(0.204589 0.00750462 0)
(0.20508 0.00718855 0)
(0.20545 0.00685357 0)
(0.20572 0.00652194 0)
(0.20591 0.0062106 0)
(0.206041 0.00592941 0)
(0.206131 0.00568093 0)
(0.206198 0.00546272 0)
(0.206249 0.00526946 0)
(0.206292 0.00509516 0)
(0.20633 0.00493568 0)
(0.206361 0.00478849 0)
(0.206387 0.00465101 0)
(0.206408 0.00452119 0)
(0.206425 0.00439849 0)
(0.206436 0.00428228 0)
(0.206444 0.00417099 0)
(0.206447 0.00406366 0)
(0.206446 0.00396048 0)
(0.206442 0.00386108 0)
(0.206434 0.00376418 0)
(0.206422 0.00366918 0)
(0.206406 0.00357649 0)
(0.206387 0.00348572 0)
(0.206363 0.00339562 0)
(0.206335 0.00330611 0)
(0.206305 0.00321813 0)
(0.20627 0.0031314 0)
(0.206232 0.00304448 0)
(0.206188 0.00295665 0)
(0.20614 0.0028683 0)
(0.206087 0.00277949 0)
(0.206027 0.00268933 0)
(0.205961 0.00259708 0)
(0.205889 0.0025034 0)
(0.205813 0.0024093 0)
(0.205732 0.00231493 0)
(0.205648 0.00221989 0)
(0.20556 0.00212426 0)
(0.205466 0.00202778 0)
(0.205366 0.0019294 0)
(0.205257 0.00182838 0)
(0.20514 0.00172553 0)
(0.205014 0.00162233 0)
(0.204881 0.00151979 0)
(0.20474 0.00141799 0)
(0.204594 0.00131709 0)
(0.204443 0.00121735 0)
(0.204288 0.00111895 0)
(0.20413 0.00102153 0)
(0.203971 0.000925889 0)
(0.203812 0.000835176 0)
(0.203658 0.000755123 0)
(0.203509 0.000690371 0)
(0.203362 0.000641486 0)
(0.203207 0.000603071 0)
(0.20304 0.000567345 0)
(0.202859 0.000527646 0)
(0.202671 0.000482677 0)
(0.202483 0.000435148 0)
(0.202309 0.000390555 0)
(0.202151 0.000352588 0)
(0.202015 0.000323374 0)
(0.201894 0.000301732 0)
(0.201789 0.00028662 0)
(0.201687 0.000275564 0)
(0.201589 0.000267804 0)
(0.20148 0.000260839 0)
(0.20137 0.000254116 0)
(0.201245 0.000245198 0)
(0.201124 0.000235323 0)
(0.200996 0.000224254 0)
(0.200885 0.000216319 0)
(0.200769 0.000212199 0)
(0.200669 0.000215927 0)
(0.200548 0.000224647 0)
(0.20043 0.000239227 0)
(0.200267 0.000252707 0)
(0.200097 0.000265361 0)
(0.199871 0.000269746 0)
(0.199652 0.000269609 0)
(0.199379 0.000259018 0)
(0.199141 0.000246065 0)
(0.198858 0.000224741 0)
(0.198641 0.000206119 0)
(0.198376 0.000181502 0)
(0.198205 0.00016423 0)
(0.197968 0.000141194 0)
(0.197854 0.000128907 0)
(0.197639 0.000108726 0)
(0.197582 0.000102428 0)
(0.197376 8.42356e-05 0)
(0.199757 0.00532385 0)
(0.200021 0.00592923 0)
(0.200403 0.00649635 0)
(0.20093 0.00697587 0)
(0.201584 0.00731871 0)
(0.202313 0.00749557 0)
(0.203048 0.00750981 0)
(0.203725 0.0073932 0)
(0.204306 0.00718815 0)
(0.204776 0.00693211 0)
(0.205142 0.00665269 0)
(0.205418 0.00636987 0)
(0.205621 0.00609808 0)
(0.20577 0.00584625 0)
(0.205879 0.00561826 0)
(0.205962 0.00541418 0)
(0.206028 0.00523103 0)
(0.206083 0.00506419 0)
(0.20613 0.00491031 0)
(0.206171 0.00476758 0)
(0.206206 0.00463381 0)
(0.206235 0.00450699 0)
(0.20626 0.00438672 0)
(0.20628 0.00427273 0)
(0.206297 0.00416352 0)
(0.20631 0.00405792 0)
(0.206321 0.00395624 0)
(0.20633 0.00385841 0)
(0.206336 0.003763 0)
(0.20634 0.00366923 0)
(0.206341 0.00357773 0)
(0.206341 0.00348826 0)
(0.206339 0.0033994 0)
(0.206335 0.00331081 0)
(0.20633 0.00322354 0)
(0.206324 0.00313771 0)
(0.206317 0.00305197 0)
(0.206307 0.0029654 0)
(0.206296 0.00287845 0)
(0.206282 0.00279146 0)
(0.206266 0.00270348 0)
(0.206245 0.00261337 0)
(0.20622 0.00252148 0)
(0.206192 0.00242882 0)
(0.206162 0.00233561 0)
(0.20613 0.0022415 0)
(0.206097 0.00214688 0)
(0.206062 0.00205208 0)
(0.206024 0.00195647 0)
(0.205979 0.00185904 0)
(0.205928 0.00176013 0)
(0.205867 0.00166089 0)
(0.205797 0.00156214 0)
(0.205719 0.00146355 0)
(0.205634 0.00136498 0)
(0.205545 0.00126674 0)
(0.205454 0.00116951 0)
(0.205361 0.0010731 0)
(0.205266 0.000978035 0)
(0.20517 0.000886881 0)
(0.205075 0.000805579 0)
(0.204978 0.000739853 0)
(0.204882 0.000691878 0)
(0.20478 0.000656892 0)
(0.20467 0.000626447 0)
(0.204547 0.000591776 0)
(0.204416 0.000549543 0)
(0.204278 0.000501007 0)
(0.204144 0.00045187 0)
(0.204018 0.000406778 0)
(0.20391 0.000369738 0)
(0.203816 0.000340947 0)
(0.203741 0.000320911 0)
(0.203671 0.000307564 0)
(0.203609 0.000300596 0)
(0.203536 0.00029639 0)
(0.203461 0.00029356 0)
(0.203366 0.000287504 0)
(0.203272 0.000278862 0)
(0.203167 0.00026632 0)
(0.203077 0.000255882 0)
(0.202982 0.000248968 0)
(0.202906 0.000252694 0)
(0.202811 0.000264353 0)
(0.202722 0.000286667 0)
(0.202585 0.000310153 0)
(0.202441 0.000335352 0)
(0.202231 0.000350529 0)
(0.202023 0.000360254 0)
(0.201749 0.000354419 0)
(0.201506 0.000344202 0)
(0.201203 0.000319846 0)
(0.20097 0.000297815 0)
(0.200675 0.000264921 0)
(0.200485 0.000241709 0)
(0.200216 0.000208467 0)
(0.200085 0.000190857 0)
(0.199839 0.000160461 0)
(0.199772 0.000151152 0)
(0.199536 0.000123097 0)
(0.200023 0.00510498 0)
(0.20027 0.00563175 0)
(0.200611 0.00612476 0)
(0.201068 0.00654698 0)
(0.201629 0.00686248 0)
(0.202257 0.00704707 0)
(0.202901 0.00709732 0)
(0.203508 0.0070318 0)
(0.204043 0.00688188 0)
(0.204489 0.00667915 0)
(0.204846 0.00644893 0)
(0.205123 0.00620986 0)
(0.205336 0.00597486 0)
(0.205497 0.00575185 0)
(0.205621 0.00554515 0)
(0.205718 0.00535644 0)
(0.205796 0.00518451 0)
(0.20586 0.00502617 0)
(0.205915 0.00487894 0)
(0.205963 0.00474149 0)
(0.206004 0.00461207 0)
(0.206039 0.00448888 0)
(0.206068 0.00437153 0)
(0.206093 0.00425995 0)
(0.206114 0.00415286 0)
(0.206132 0.00404905 0)
(0.206147 0.00394883 0)
(0.20616 0.00385236 0)
(0.20617 0.00375824 0)
(0.206179 0.0036655 0)
(0.206186 0.00357484 0)
(0.206191 0.00348622 0)
(0.206196 0.00339819 0)
(0.206198 0.00331019 0)
(0.2062 0.00322326 0)
(0.206201 0.00313768 0)
(0.206203 0.00305232 0)
(0.206203 0.00296629 0)
(0.206202 0.00288004 0)
(0.2062 0.00279398 0)
(0.206197 0.00270734 0)
(0.206191 0.00261882 0)
(0.206181 0.00252839 0)
(0.20617 0.00243678 0)
(0.206156 0.00234424 0)
(0.206142 0.00225047 0)
(0.206128 0.00215602 0)
(0.206113 0.00206175 0)
(0.206096 0.00196769 0)
(0.206077 0.00187301 0)
(0.206051 0.00177781 0)
(0.206016 0.00168279 0)
(0.205973 0.0015883 0)
(0.205921 0.0014933 0)
(0.205863 0.00139712 0)
(0.205801 0.00129993 0)
(0.205738 0.00120287 0)
(0.205676 0.00110641 0)
(0.205614 0.00101163 0)
(0.205551 0.000921113 0)
(0.205485 0.000840626 0)
(0.205415 0.000775709 0)
(0.205342 0.00072896 0)
(0.205263 0.000696079 0)
(0.205182 0.000668945 0)
(0.205092 0.000638129 0)
(0.204997 0.000599255 0)
(0.204893 0.000552082 0)
(0.20479 0.000501609 0)
(0.204687 0.000452181 0)
(0.204597 0.000408828 0)
(0.204517 0.000372893 0)
(0.204458 0.00034691 0)
(0.204405 0.000329928 0)
(0.204363 0.000322835 0)
(0.204311 0.000321248 0)
(0.204257 0.000323025 0)
(0.204182 0.000321038 0)
(0.204108 0.000314955 0)
(0.204019 0.000301858 0)
(0.203945 0.000289251 0)
(0.203865 0.000279156 0)
(0.203807 0.000282143 0)
(0.203729 0.000295916 0)
(0.203662 0.000325693 0)
(0.203546 0.00035962 0)
(0.203427 0.000398887 0)
(0.203236 0.000427082 0)
(0.203046 0.000449617 0)
(0.202782 0.00045143 0)
(0.202547 0.000446842 0)
(0.202243 0.000421532 0)
(0.202007 0.000397835 0)
(0.201702 0.000357304 0)
(0.201504 0.000328665 0)
(0.201219 0.000284665 0)
(0.20108 0.000261569 0)
(0.200817 0.000219741 0)
(0.200745 0.000207176 0)
(0.20049 0.000167732 0)
(0.20024 0.0048941 0)
(0.20047 0.00535633 0)
(0.200775 0.00578881 0)
(0.201174 0.00616334 0)
(0.201659 0.00645285 0)
(0.202202 0.00663808 0)
(0.202765 0.00671323 0)
(0.203307 0.00668837 0)
(0.203797 0.00658555 0)
(0.204215 0.00642993 0)
(0.204559 0.00624359 0)
(0.204835 0.00604381 0)
(0.205052 0.00584264 0)
(0.205222 0.00564728 0)
(0.205357 0.00546213 0)
(0.205464 0.00528969 0)
(0.205552 0.00512999 0)
(0.205625 0.00498113 0)
(0.205688 0.00484153 0)
(0.205741 0.00471023 0)
(0.205787 0.00458583 0)
(0.205827 0.00446687 0)
(0.205861 0.00435301 0)
(0.205889 0.00424424 0)
(0.205914 0.00413956 0)
(0.205935 0.00403786 0)
(0.205953 0.00393937 0)
(0.205968 0.00384433 0)
(0.205981 0.00375157 0)
(0.205992 0.00366003 0)
(0.206001 0.00357026 0)
(0.206009 0.00348242 0)
(0.206015 0.00339522 0)
(0.20602 0.00330792 0)
(0.206024 0.00322135 0)
(0.206028 0.0031359 0)
(0.206031 0.0030507 0)
(0.206034 0.00296507 0)
(0.206036 0.00287944 0)
(0.206037 0.00279408 0)
(0.206037 0.00270832 0)
(0.206035 0.00262106 0)
(0.20603 0.00253201 0)
(0.206023 0.00244142 0)
(0.206014 0.00234944 0)
(0.206005 0.00225589 0)
(0.205996 0.00216143 0)
(0.205986 0.00206724 0)
(0.205976 0.00197405 0)
(0.205963 0.00188148 0)
(0.205946 0.00178963 0)
(0.205921 0.00169878 0)
(0.205888 0.00160861 0)
(0.205846 0.00151726 0)
(0.205798 0.00142343 0)
(0.205746 0.00132698 0)
(0.205695 0.00122936 0)
(0.205646 0.00113186 0)
(0.205599 0.00103678 0)
(0.20555 0.000947295 0)
(0.205498 0.000868955 0)
(0.205438 0.000806349 0)
(0.205374 0.000761485 0)
(0.205305 0.000729964 0)
(0.205235 0.000704318 0)
(0.20516 0.000675455 0)
(0.205084 0.000639019 0)
(0.205 0.000593742 0)
(0.204916 0.000543639 0)
(0.204828 0.000491954 0)
(0.20475 0.000443952 0)
(0.20468 0.000401663 0)
(0.204627 0.000369687 0)
(0.20458 0.000348509 0)
(0.204545 0.000340658 0)
(0.204501 0.000341271 0)
(0.204455 0.000347603 0)
(0.20439 0.000349916 0)
(0.204325 0.000346796 0)
(0.204246 0.000333479 0)
(0.204182 0.000318868 0)
(0.20411 0.000305418 0)
(0.204062 0.000307248 0)
(0.203995 0.000322507 0)