/*--------------------------------*- C++ -*----------------------------------*\
| =========                 |                                                 |
| \\      /  F ield         | OpenFOAM: The Open Source CFD Toolbox           |
|  \\    /   O peration     | Version:  2.3.0                                 |
|   \\  /    A nd           | Web:      www.OpenFOAM.org                      |
|    \\/     M anipulation  |                                                 |
\*---------------------------------------------------------------------------*/
FoamFile
{
    version     2.0;
    format      ascii;
    class       surfaceScalarField;
    location    "0.9";
    object      phi_0;
}
// * * * * * * * * * * * * * * * * * * * * * * * * * * * * * * * * * * * * * //

dimensions      [0 3 -1 0 0 0 0];

internalField   nonuniform List<scalar> 
6598
(
2.88798e-08
2.99386e-09
-3.18736e-08
2.52764e-08
3.60336e-09
2.16758e-08
3.60063e-09
1.84481e-08
3.22767e-09
1.5675e-08
2.77314e-09
1.33199e-08
2.35503e-09
1.13463e-08
1.97367e-09
9.81643e-09
1.52984e-09
8.70417e-09
1.11225e-09
7.87817e-09
8.26003e-10
7.25963e-09
6.18539e-10
6.80377e-09
4.55857e-10
6.46123e-09
3.42547e-10
6.18594e-09
2.75287e-10
5.95602e-09
2.29915e-10
5.76034e-09
1.95688e-10
5.57999e-09
1.80342e-10
5.40932e-09
1.70677e-10
5.25206e-09
1.57261e-10
5.10439e-09
1.47664e-10
4.966e-09
1.38394e-10
4.83723e-09
1.28765e-10
4.71717e-09
1.20062e-10
4.60561e-09
1.11565e-10
4.49892e-09
1.06685e-10
4.39726e-09
1.01659e-10
4.30334e-09
9.39197e-11
4.21495e-09
8.83881e-11
4.13173e-09
8.32243e-11
4.05434e-09
7.73865e-11
3.97904e-09
7.53003e-11
3.90536e-09
7.36838e-11
3.83616e-09
6.91944e-11
3.77e-09
6.61607e-11
3.70646e-09
6.35469e-11
3.64755e-09
5.89107e-11
3.59153e-09
5.6014e-11
3.53612e-09
5.54079e-11
3.48179e-09
5.43361e-11
3.43024e-09
5.15495e-11
3.38188e-09
4.83603e-11
3.33538e-09
4.64975e-11
3.29008e-09
4.5303e-11
3.24645e-09
4.36305e-11
3.20385e-09
4.25971e-11
3.16225e-09
4.15977e-11
3.1227e-09
3.95481e-11
3.08459e-09
3.8115e-11
3.04749e-09
3.70999e-11
3.01154e-09
3.59454e-11
2.97706e-09
3.44874e-11
2.94317e-09
3.38876e-11
2.90943e-09
3.37436e-11
2.87761e-09
3.18159e-11
2.84653e-09
3.1076e-11
2.81581e-09
3.07218e-11
2.78721e-09
2.86014e-11
2.75914e-09
2.80738e-11
2.7311e-09
2.80366e-11
2.70446e-09
2.66355e-11
2.67808e-09
2.63812e-11
2.6521e-09
2.59835e-11
2.62731e-09
2.47855e-11
2.60285e-09
2.44621e-11
2.57863e-09
2.42214e-11
2.55535e-09
2.32836e-11
2.53245e-09
2.28936e-11
2.50971e-09
2.27461e-11
2.48775e-09
2.19571e-11
2.46617e-09
2.15816e-11
2.4445e-09
2.16698e-11
2.42378e-09
2.07155e-11
2.40381e-09
1.99773e-11
2.38392e-09
1.98832e-11
2.3647e-09
1.92214e-11
2.3462e-09
1.85052e-11
2.32742e-09
1.8772e-11
2.3087e-09
1.87256e-11
2.29062e-09
1.80833e-11
2.27304e-09
1.75766e-11
2.25566e-09
1.73812e-11
2.23857e-09
1.70899e-11
2.22184e-09
1.67319e-11
2.20536e-09
1.6477e-11
2.18901e-09
1.63444e-11
2.17279e-09
1.62209e-11
2.15699e-09
1.58071e-11
2.14124e-09
1.57423e-11
2.12581e-09
1.54368e-11
2.11032e-09
1.54858e-11
2.0954e-09
1.49229e-11
2.08006e-09
1.53413e-11
2.06561e-09
1.44496e-11
2.0501e-09
1.55055e-11
2.03657e-09
1.35351e-11
2.02042e-09
1.61487e-11
2.00858e-09
1.18413e-11
1.99131e-09
1.72722e-11
1.9834e-09
7.90872e-12
2.18316e-11
3.43625e-08
2.80354e-09
-3.41722e-08
3.41102e-08
3.85559e-09
3.34227e-08
4.28815e-09
3.23944e-08
4.25595e-09
3.11254e-08
4.04216e-09
2.96923e-08
3.78818e-09
2.81454e-08
3.52055e-09
2.66548e-08
3.02046e-09
2.52537e-08
2.51337e-09
2.39414e-08
2.13823e-09
2.27461e-08
1.81393e-09
2.16742e-08
1.52767e-09
2.07132e-08
1.30354e-09
1.98513e-08
1.13725e-09
1.90815e-08
9.99707e-10
1.83954e-08
8.8179e-10
1.777e-08
8.05759e-10
1.71968e-08
7.43897e-10
1.66742e-08
6.79774e-10
1.61931e-08
6.28848e-10
1.57498e-08
5.81643e-10
1.53391e-08
5.39502e-10
1.49572e-08
5.01961e-10
1.46018e-08
4.66976e-10
1.42656e-08
4.42852e-10
1.39484e-08
4.18895e-10
1.36516e-08
3.90656e-10
1.3371e-08
3.69024e-10
1.3106e-08
3.48207e-10
1.28561e-08
3.27257e-10
1.26156e-08
3.15802e-10
1.23845e-08
3.04862e-10
1.21656e-08
2.8806e-10
1.19564e-08
2.75395e-10
1.17562e-08
2.63692e-10
1.15668e-08
2.48352e-10
1.13852e-08
2.3763e-10
1.12088e-08
2.31711e-10
1.10383e-08
2.2484e-10
1.08754e-08
2.14469e-10
1.07202e-08
2.03633e-10
1.05704e-08
1.96201e-10
1.04253e-08
1.90409e-10
1.02854e-08
1.83621e-10
1.01495e-08
1.78419e-10
1.00178e-08
1.7331e-10
9.89131e-09
1.66058e-10
9.76896e-09
1.60467e-10
9.65023e-09
1.55823e-10
9.53514e-09
1.51039e-10
9.42398e-09
1.4565e-10
9.31556e-09
1.42303e-10
9.20941e-09
1.39897e-10
9.10762e-09
1.33599e-10
9.00837e-09
1.30333e-10
8.91135e-09
1.2774e-10
8.81849e-09
1.21456e-10
8.72766e-09
1.18908e-10
8.63847e-09
1.17229e-10
8.55232e-09
1.12783e-10
8.46776e-09
1.10944e-10
8.38511e-09
1.08633e-10
8.30503e-09
1.0486e-10
8.22646e-09
1.03034e-10
8.14937e-09
1.01312e-10
8.07445e-09
9.82068e-11
8.00101e-09
9.63346e-11
7.92884e-09
9.49169e-11
7.85861e-09
9.21793e-11
7.78985e-09
9.03498e-11
7.72204e-09
8.94735e-11
7.65634e-09
8.64145e-11
7.59232e-09
8.40048e-11
7.52928e-09
8.29219e-11
7.46784e-09
8.06551e-11
7.40791e-09
7.84394e-11
7.34832e-09
7.83649e-11
7.28961e-09
7.74279e-11
7.23244e-09
7.52624e-11
7.17651e-09
7.3501e-11
7.12141e-09
7.24806e-11
7.06727e-09
7.12277e-11
7.01415e-09
6.98568e-11
6.96188e-09
6.87443e-11
6.91032e-09
6.79087e-11
6.85943e-09
6.71033e-11
6.80956e-09
6.56773e-11
6.76022e-09
6.50876e-11
6.71174e-09
6.39152e-11
6.66359e-09
6.36374e-11
6.61659e-09
6.19175e-11
6.56939e-09
6.25442e-11
6.52376e-09
6.00811e-11
6.47705e-09
6.22172e-11
6.43324e-09
5.73451e-11
6.38636e-09
6.30239e-11
6.3453e-09
5.29021e-11
6.2978e-09
6.47735e-11
6.26067e-09
4.50406e-11
7.12633e-11
3.57776e-08
2.67686e-09
-3.56509e-08
3.61902e-08
3.44297e-09
3.67572e-08
3.72118e-09
3.68783e-08
4.13479e-09
3.64845e-08
4.43595e-09
3.63074e-08
3.9653e-09
3.58414e-08
3.98652e-09
3.53313e-08
3.53061e-09
3.46594e-08
3.18526e-09
3.3923e-08
2.87461e-09
3.31498e-08
2.58712e-09
3.23657e-08
2.31182e-09
3.15921e-08
2.07717e-09
3.08322e-08
1.89708e-09
3.00985e-08
1.7334e-09
2.94001e-08
1.5802e-09
2.87225e-08
1.48341e-09
2.80663e-08
1.40009e-09
2.74387e-08
1.30732e-09
2.68342e-08
1.23335e-09
2.62546e-08
1.16127e-09
2.56993e-08
1.09485e-09
2.51689e-08
1.03227e-09
2.46654e-08
9.70551e-10
2.41816e-08
9.2658e-10
2.37174e-08
8.83159e-10
2.32747e-08
8.33359e-10
2.28497e-08
7.94031e-10
2.24447e-08
7.53126e-10
2.20596e-08
7.1239e-10
2.16855e-08
6.89922e-10
2.13225e-08
6.67864e-10
2.09754e-08
6.35111e-10
2.06416e-08
6.09252e-10
2.03208e-08
5.84495e-10
2.00149e-08
5.54196e-10
1.97201e-08
5.32473e-10
1.94331e-08
5.1871e-10
1.91542e-08
5.03709e-10
1.8886e-08
4.82659e-10
1.86293e-08
4.6041e-10
1.83811e-08
4.44307e-10
1.814e-08
4.31551e-10
1.79064e-08
4.17212e-10
1.76793e-08
4.05556e-10
1.74586e-08
3.9398e-10
1.72458e-08
3.78862e-10
1.70394e-08
3.66854e-10
1.68387e-08
3.56492e-10
1.66437e-08
3.46086e-10
1.64549e-08
3.34437e-10
1.62709e-08
3.26358e-10
1.60906e-08
3.20123e-10
1.5917e-08
3.07245e-10
1.57475e-08
2.99847e-10
1.55817e-08
2.93466e-10
1.54222e-08
2.81e-10
1.5266e-08
2.75117e-10
1.51128e-08
2.70427e-10
1.49643e-08
2.61328e-10
1.48185e-08
2.56673e-10
1.46761e-08
2.51037e-10
1.45376e-08
2.43352e-10
1.44018e-08
2.38842e-10
1.42687e-08
2.34394e-10
1.4139e-08
2.27919e-10
1.40119e-08
2.23412e-10
1.38872e-08
2.19635e-10
1.37656e-08
2.13812e-10
1.36465e-08
2.09429e-10
1.35294e-08
2.06626e-10
1.34154e-08
2.00405e-10
1.3304e-08
1.95329e-10
1.31946e-08
1.92351e-10
1.30877e-08
1.87565e-10
1.29832e-08
1.82959e-10
1.28797e-08
1.81811e-10
1.2778e-08
1.79176e-10
1.26786e-08
1.74659e-10
1.25812e-08
1.70858e-10
1.24854e-08
1.68312e-10
1.23913e-08
1.65367e-10
1.22988e-08
1.623e-10
1.22079e-08
1.59641e-10
1.21184e-08
1.57489e-10
1.20301e-08
1.55355e-10
1.19435e-08
1.52312e-10
1.1858e-08
1.50575e-10
1.17739e-08
1.48013e-10
1.16907e-08
1.46814e-10
1.16092e-08
1.43458e-10
1.1528e-08
1.4369e-10
1.14488e-08
1.39302e-10
1.13692e-08
1.41842e-10
1.12925e-08
1.33989e-10
1.1214e-08
1.41588e-10
1.11401e-08
1.26806e-10
1.10627e-08
1.42083e-10
1.09905e-08
1.1729e-10
1.47388e-10
3.73092e-08
2.50808e-09
-3.71405e-08
3.76273e-08
3.12488e-09
3.78334e-08
3.51513e-09
3.82611e-08
3.70705e-09
3.85175e-08
4.1796e-09
3.88968e-08
3.58594e-09
3.87544e-08
4.12892e-09
3.87692e-08
3.51581e-09
3.87026e-08
3.25188e-09
3.84986e-08
3.07863e-09
3.82453e-08
2.84041e-09
3.79223e-08
2.63479e-09
3.75706e-08
2.42891e-09
3.71874e-08
2.28029e-09
3.67812e-08
2.13955e-09
3.63798e-08
1.98157e-09
3.59664e-08
1.89688e-09
3.55348e-08
1.83163e-09
3.50963e-08
1.74586e-09
3.46539e-08
1.67577e-09
3.42108e-08
1.60438e-09
3.37639e-08
1.54168e-09
3.33157e-08
1.48055e-09
3.2874e-08
1.41223e-09
3.24383e-08
1.36227e-09
3.20085e-08
1.31298e-09
3.15836e-08
1.25821e-09
3.11611e-08
1.21655e-09
3.0751e-08
1.16322e-09
3.03579e-08
1.10554e-09
2.99702e-08
1.07759e-09
2.95833e-08
1.05479e-09
2.92011e-08
1.01725e-09
2.88248e-08
9.85572e-10
2.84593e-08
9.50005e-10
2.81091e-08
9.04412e-10
2.7769e-08
8.72552e-10
2.74328e-08
8.54867e-10
2.70991e-08
8.37487e-10
2.67729e-08
8.08849e-10
2.64588e-08
7.74489e-10
2.61545e-08
7.4859e-10
2.58566e-08
7.29508e-10
2.55647e-08
7.09071e-10
2.52778e-08
6.92445e-10
2.49969e-08
6.7485e-10
2.47247e-08
6.51113e-10
2.44593e-08
6.32249e-10
2.41996e-08
6.16186e-10
2.39451e-08
6.00561e-10
2.36974e-08
5.8213e-10
2.3455e-08
5.68764e-10
2.32165e-08
5.58616e-10
2.29858e-08
5.37959e-10
2.27597e-08
5.2594e-10
2.25379e-08
5.15319e-10
2.23236e-08
4.95295e-10
2.21128e-08
4.85877e-10
2.19053e-08
4.77969e-10
2.17033e-08
4.63336e-10
2.15044e-08
4.55499e-10
2.13097e-08
4.45742e-10
2.11198e-08
4.33302e-10
2.0933e-08
4.25603e-10
2.07497e-08
4.17706e-10
2.05706e-08
4.07029e-10
2.03948e-08
3.99207e-10
2.02219e-08
3.92514e-10
2.00529e-08
3.82863e-10
1.9887e-08
3.75305e-10
1.97236e-08
3.70066e-10
1.95642e-08
3.59807e-10
1.94082e-08
3.51314e-10
1.92547e-08
3.45848e-10
1.91044e-08
3.37881e-10
1.89571e-08
3.30223e-10
1.88114e-08
3.27531e-10
1.8668e-08
3.22564e-10
1.85276e-08
3.15044e-10
1.83899e-08
3.08564e-10
1.82542e-08
3.03971e-10
1.81209e-08
2.98744e-10
1.79897e-08
2.93463e-10
1.78607e-08
2.88669e-10
1.77334e-08
2.84751e-10
1.76081e-08
2.80692e-10
1.74848e-08
2.75547e-10
1.73634e-08
2.72062e-10
1.72436e-08
2.67753e-10
1.71254e-08
2.64992e-10
1.70092e-08
2.59721e-10
1.68941e-08
2.58808e-10
1.67809e-08
2.52428e-10
1.66684e-08
2.54374e-10
1.65584e-08
2.43944e-10
1.64483e-08
2.517e-10
1.63407e-08
2.344e-10
1.62337e-08
2.49081e-10
1.61259e-08
2.25102e-10
2.51592e-10
3.89016e-08
2.3473e-09
-3.87409e-08
3.90833e-08
2.94323e-09
3.93178e-08
3.28059e-09
3.95551e-08
3.46976e-09
3.98135e-08
3.92116e-09
3.99396e-08
3.45985e-09
4.03225e-08
3.74606e-09
4.04244e-08
3.41391e-09
4.04913e-08
3.18499e-09
4.04946e-08
3.0753e-09
4.05228e-08
2.81223e-09
4.04751e-08
2.68247e-09
4.03838e-08
2.52028e-09
4.02699e-08
2.39419e-09
4.01275e-08
2.28188e-09
3.99952e-08
2.11386e-09
3.98483e-08
2.04387e-09
3.96711e-08
2.00875e-09
3.94728e-08
1.94415e-09
3.92613e-08
1.8873e-09
3.9038e-08
1.82764e-09
3.87996e-08
1.78013e-09
3.85458e-08
1.7343e-09
3.82826e-08
1.67549e-09
3.80141e-08
1.63071e-09
3.77419e-08
1.5852e-09
3.74603e-08
1.53986e-09
3.7163e-08
1.51381e-09
3.6864e-08
1.46228e-09
3.65745e-08
1.39501e-09
3.629e-08
1.36208e-09
3.60031e-08
1.34168e-09
3.57068e-08
1.3136e-09
3.53968e-08
1.29552e-09
3.50831e-08
1.2637e-09
3.47795e-08
1.20798e-09
3.44884e-08
1.1637e-09
3.42001e-08
1.14319e-09
3.39027e-08
1.1349e-09
3.35988e-08
1.11272e-09
3.32996e-08
1.07365e-09
3.30099e-08
1.03836e-09
3.27265e-08
1.01287e-09
3.24457e-08
9.89903e-10
3.21628e-08
9.7529e-10
3.18795e-08
9.5813e-10
3.16017e-08
9.28978e-10
3.13296e-08
9.0435e-10
3.10619e-08
8.83822e-10
3.07963e-08
8.66217e-10
3.05341e-08
8.44317e-10
3.02741e-08
8.28764e-10
3.00152e-08
8.17541e-10
2.9763e-08
7.90138e-10
2.95145e-08
7.74412e-10
2.92695e-08
7.60295e-10
2.90323e-08
7.325e-10
2.87974e-08
7.20762e-10
2.85639e-08
7.11487e-10
2.83348e-08
6.92434e-10
2.81076e-08
6.82745e-10
2.78838e-08
6.69526e-10
2.76645e-08
6.52644e-10
2.74477e-08
6.42317e-10
2.72339e-08
6.31526e-10
2.70241e-08
6.16893e-10
2.68174e-08
6.05903e-10
2.66131e-08
5.96802e-10
2.64123e-08
5.83602e-10
2.62144e-08
5.73278e-10
2.60183e-08
5.66133e-10
2.58265e-08
5.51583e-10
2.56385e-08
5.39346e-10
2.5453e-08
5.3131e-10
2.52707e-08
5.20203e-10
2.50913e-08
5.09645e-10
2.49131e-08
5.05736e-10
2.47373e-08
4.9833e-10
2.45648e-08
4.87544e-10
2.43953e-08
4.78049e-10
2.4228e-08
4.71313e-10
2.40631e-08
4.63677e-10
2.39003e-08
4.56216e-10
2.37399e-08
4.49076e-10
2.35812e-08
4.43408e-10
2.34248e-08
4.37084e-10
2.32707e-08
4.29739e-10
2.31186e-08
4.24065e-10
2.29683e-08
4.18129e-10
2.282e-08
4.13226e-10
2.26734e-08
4.06333e-10
2.25288e-08
4.03424e-10
2.23855e-08
3.95715e-10
2.22442e-08
3.95694e-10
2.21042e-08
3.83987e-10
2.19663e-08
3.89531e-10
2.18279e-08
3.72838e-10
2.16943e-08
3.82675e-10
2.15547e-08
3.64732e-10
3.82177e-10
4.04851e-08
2.25492e-09
-4.03928e-08
4.06385e-08
2.78986e-09
4.08093e-08
3.10985e-09
4.10547e-08
3.22435e-09
4.12452e-08
3.73059e-09
4.14928e-08
3.21226e-09
4.17471e-08
3.49177e-09
4.18472e-08
3.31377e-09
4.19469e-08
3.08534e-09
4.20122e-08
3.00998e-09
4.20644e-08
2.76009e-09
4.20857e-08
2.66113e-09
4.20761e-08
2.52987e-09
4.20482e-08
2.4221e-09
4.20235e-08
2.30659e-09
4.20116e-08
2.12572e-09
4.1992e-08
2.06349e-09
4.19507e-08
2.05008e-09
4.18935e-08
2.00136e-09
4.18312e-08
1.94954e-09
4.17571e-08
1.90181e-09
4.16679e-08
1.86932e-09
4.15665e-08
1.83567e-09
4.1455e-08
1.78698e-09
4.1343e-08
1.74267e-09
4.12267e-08
1.70156e-09
4.10934e-08
1.67311e-09
4.0936e-08
1.67128e-09
4.07695e-08
1.62875e-09
4.06063e-08
1.55816e-09
4.04523e-08
1.51614e-09
4.03026e-08
1.4914e-09
4.01421e-08
1.47405e-09
3.99568e-08
1.48088e-09
3.97511e-08
1.46937e-09
3.95428e-08
1.41627e-09
3.93482e-08
1.35826e-09
3.91645e-08
1.32696e-09
3.89696e-08
1.32972e-09
3.87555e-08
1.32691e-09
3.85311e-08
1.29801e-09
3.83096e-08
1.2599e-09
3.80958e-08
1.22659e-09
3.78868e-08
1.19894e-09
3.76723e-08
1.18981e-09
3.7449e-08
1.18142e-09
3.72221e-08
1.15586e-09
3.6996e-08
1.13049e-09
3.67732e-08
1.1066e-09
3.65512e-08
1.08824e-09
3.63301e-08
1.06534e-09
3.61059e-08
1.05299e-09
3.58763e-08
1.04712e-09
3.56481e-08
1.01836e-09
3.54198e-08
1.00268e-09
3.51937e-08
9.86446e-10
3.49755e-08
9.50681e-10
3.4759e-08
9.3732e-10
3.45415e-08
9.28975e-10
3.43253e-08
9.08576e-10
3.41077e-08
9.00409e-10
3.38908e-08
8.86418e-10
3.36762e-08
8.67177e-10
3.34628e-08
8.55708e-10
3.32506e-08
8.43767e-10
3.30406e-08
8.26863e-10
3.28328e-08
8.13721e-10
3.26261e-08
8.03554e-10
3.24215e-08
7.88186e-10
3.22177e-08
7.77035e-10
3.20135e-08
7.70352e-10
3.18124e-08
7.52688e-10
3.16148e-08
7.36906e-10
3.14199e-08
7.26211e-10
3.12278e-08
7.12301e-10
3.10376e-08
6.99928e-10
3.08467e-08
6.96641e-10
3.06568e-08
6.88157e-10
3.04696e-08
6.74794e-10
3.02854e-08
6.62193e-10
3.01033e-08
6.53403e-10
2.99234e-08
6.43663e-10
2.97446e-08
6.34942e-10
2.95677e-08
6.26043e-10
2.93916e-08
6.19486e-10
2.92176e-08
6.1107e-10
2.90453e-08
6.02054e-10
2.88753e-08
5.9402e-10
2.87062e-08
5.8726e-10
2.85396e-08
5.79837e-10
2.83735e-08
5.724e-10
2.82102e-08
5.6676e-10
2.80466e-08
5.59327e-10
2.78862e-08
5.56038e-10
2.77251e-08
5.45112e-10
2.75684e-08
5.46254e-10
2.74078e-08
5.33416e-10
2.72551e-08
5.35396e-10
2.7093e-08
5.26852e-10
5.32554e-10
4.20878e-08
2.18966e-09
-4.20225e-08
4.2235e-08
2.64261e-09
4.23941e-08
2.95074e-09
4.26223e-08
2.99623e-09
4.28076e-08
3.54522e-09
4.30323e-08
2.98761e-09
4.32751e-08
3.24898e-09
4.32521e-08
3.33677e-09
4.33648e-08
2.97261e-09
4.35088e-08
2.86599e-09
4.35656e-08
2.70326e-09
4.36164e-08
2.61032e-09
4.36302e-08
2.5161e-09
4.36088e-08
2.44345e-09
4.36172e-08
2.29826e-09
4.36322e-08
2.11064e-09
4.36356e-08
2.0601e-09
4.36296e-08
2.05608e-09
4.3619e-08
2.01205e-09
4.36094e-08
1.95907e-09
4.35902e-08
1.92107e-09
4.35612e-08
1.89832e-09
4.35351e-08
1.86174e-09
4.35007e-08
1.82133e-09
4.34768e-08
1.76664e-09
4.34475e-08
1.73085e-09
4.33976e-08
1.72295e-09
4.33224e-08
1.74656e-09
4.32451e-08
1.70603e-09
4.31698e-08
1.63343e-09
4.31121e-08
1.57388e-09
4.30624e-08
1.54109e-09
4.30041e-08
1.5323e-09
4.29239e-08
1.56114e-09
4.28178e-08
1.57547e-09
4.26989e-08
1.53516e-09
4.25929e-08
1.46429e-09
4.25069e-08
1.41296e-09
4.24156e-08
1.42096e-09
4.23028e-08
1.43972e-09
4.21693e-08
1.43156e-09
4.20301e-08
1.39907e-09
4.18979e-08
1.35876e-09
4.17751e-08
1.32178e-09
4.165e-08
1.31493e-09
4.15147e-08
1.31666e-09
4.13692e-08
1.30134e-09
4.12176e-08
1.28208e-09
4.10661e-08
1.25813e-09
4.09147e-08
1.23966e-09
4.0766e-08
1.21404e-09
4.06128e-08
1.20618e-09
4.04501e-08
1.20986e-09
4.02822e-08
1.18621e-09
4.01076e-08
1.17735e-09
3.99312e-08
1.16279e-09
3.97622e-08
1.11967e-09
3.95955e-08
1.104e-09
3.94281e-08
1.09645e-09
3.92602e-08
1.0764e-09
3.9088e-08
1.07261e-09
3.89133e-08
1.06117e-09
3.87373e-08
1.04314e-09
3.85601e-08
1.03288e-09
3.83818e-08
1.02213e-09
3.82034e-08
1.00522e-09
3.80256e-08
9.91505e-10
3.78473e-08
9.81848e-10
3.76703e-08
9.65246e-10
3.74921e-08
9.55229e-10
3.73096e-08
9.52849e-10
3.71265e-08
9.35822e-10
3.69448e-08
9.18524e-10
3.67659e-08
9.0517e-10
3.65905e-08
8.87724e-10
3.64169e-08
8.73526e-10
3.62405e-08
8.73014e-10
3.60618e-08
8.66807e-10
3.58827e-08
8.53926e-10
3.57056e-08
8.39284e-10
3.55306e-08
8.28392e-10
3.5358e-08
8.16291e-10
3.51856e-08
8.07335e-10
3.50136e-08
7.98028e-10
3.48405e-08
7.92578e-10
3.46685e-08
7.83141e-10
3.44968e-08
7.73736e-10
3.43272e-08
7.63549e-10
3.41572e-08
7.57284e-10
3.39898e-08
7.47271e-10
3.38213e-08
7.40843e-10
3.3656e-08
7.32117e-10
3.34882e-08
7.27106e-10
3.33241e-08
7.20148e-10
3.3157e-08
7.12262e-10
3.29951e-08
7.0813e-10
3.28271e-08
7.014e-10
3.26676e-08
6.94916e-10
3.24979e-08
6.96574e-10
6.90881e-10
4.37494e-08
2.16205e-09
-4.37218e-08
4.3883e-08
2.50896e-09
4.40331e-08
2.80065e-09
4.42394e-08
2.78995e-09
4.44092e-08
3.37545e-09
4.46131e-08
2.78366e-09
4.4823e-08
3.03912e-09
4.48609e-08
3.29883e-09
4.4999e-08
2.83454e-09
4.50704e-08
2.79457e-09
4.51364e-08
2.63727e-09
4.51822e-08
2.5645e-09
4.51972e-08
2.50114e-09
4.51952e-08
2.44546e-09
4.52254e-08
2.26802e-09
4.52501e-08
2.08596e-09
4.52503e-08
2.0599e-09
4.52455e-08
2.06092e-09
4.52423e-08
2.01526e-09
4.52408e-08
1.96055e-09
4.5229e-08
1.93283e-09
4.52151e-08
1.91221e-09
4.52116e-08
1.86528e-09
4.52067e-08
1.8262e-09
4.52089e-08
1.76444e-09
4.52037e-08
1.73608e-09
4.51777e-08
1.74898e-09
4.51352e-08
1.78906e-09
4.51102e-08
1.73101e-09
4.5077e-08
1.66663e-09
4.50671e-08
1.58379e-09
4.50647e-08
1.54349e-09
4.50498e-08
1.54717e-09
4.50211e-08
1.58988e-09
4.49736e-08
1.62297e-09
4.49144e-08
1.59431e-09
4.48657e-08
1.51302e-09
4.48396e-08
1.43907e-09
4.48106e-08
1.44992e-09
4.47647e-08
1.4856e-09
4.46978e-08
1.49851e-09
4.46232e-08
1.47362e-09
4.45546e-08
1.42742e-09
4.44969e-08
1.37947e-09
4.44406e-08
1.37124e-09
4.43777e-08
1.37955e-09
4.43048e-08
1.37421e-09
4.4224e-08
1.36288e-09
4.41403e-08
1.34182e-09
4.40554e-08
1.32463e-09
4.39748e-08
1.2946e-09
4.38917e-08
1.28927e-09
4.38003e-08
1.30126e-09
4.37011e-08
1.28542e-09
4.35911e-08
1.28732e-09
4.34751e-08
1.27886e-09
4.33637e-08
1.231e-09
4.32551e-08
1.21267e-09
4.31469e-08
1.20462e-09
4.30389e-08
1.18438e-09
4.2927e-08
1.18456e-09
4.28115e-08
1.17661e-09
4.26926e-08
1.16211e-09
4.25707e-08
1.15474e-09
4.24448e-08
1.14807e-09
4.23167e-08
1.1333e-09
4.21881e-08
1.12011e-09
4.20574e-08
1.11252e-09
4.19279e-08
1.09472e-09
4.17973e-08
1.08586e-09
4.16602e-08
1.08993e-09
4.1518e-08
1.07806e-09
4.13729e-08
1.06361e-09
4.12285e-08
1.04954e-09
4.10882e-08
1.028e-09
4.09521e-08
1.0097e-09
4.08139e-08
1.01116e-09
4.0671e-08
1.00971e-09
4.05229e-08
1.00206e-09
4.03732e-08
9.88973e-10
4.02243e-08
9.77238e-10
4.00786e-08
9.61988e-10
3.99337e-08
9.52323e-10
3.97885e-08
9.43216e-10
3.96399e-08
9.41099e-10
3.94904e-08
9.32698e-10
3.93392e-08
9.24927e-10
3.91893e-08
9.1342e-10
3.90375e-08
9.0909e-10
3.88879e-08
8.96845e-10
3.87361e-08
8.92687e-10
3.85873e-08
8.80931e-10
3.84345e-08
8.79918e-10
3.82845e-08
8.70147e-10
3.81297e-08
8.67026e-10
3.7979e-08
8.58894e-10
3.78215e-08
8.5888e-10
3.76704e-08
8.45999e-10
3.75108e-08
8.56136e-10
8.42116e-10
4.54616e-08
2.13903e-09
-4.54386e-08
4.55851e-08
2.38551e-09
4.57245e-08
2.6613e-09
4.58871e-08
2.62735e-09
4.60926e-08
3.16989e-09
4.62182e-08
2.6581e-09
4.64867e-08
2.77057e-09
4.65562e-08
3.2294e-09
4.65896e-08
2.80107e-09
4.67205e-08
2.66368e-09
4.67653e-08
2.59256e-09
4.67958e-08
2.53394e-09
4.6815e-08
2.48198e-09
4.68384e-08
2.42199e-09
4.68941e-08
2.21238e-09
4.69104e-08
2.06965e-09
4.6907e-08
2.06324e-09
4.68972e-08
2.0707e-09
4.68991e-08
2.0134e-09
4.6901e-08
1.95863e-09
4.68945e-08
1.93937e-09
4.68884e-08
1.91835e-09
4.68828e-08
1.87083e-09
4.68862e-08
1.82276e-09
4.68871e-08
1.76358e-09
4.68842e-08
1.73896e-09
4.68558e-08
1.77738e-09
4.68354e-08
1.80947e-09
4.68237e-08
1.74273e-09
4.6818e-08
1.67231e-09
4.682e-08
1.58185e-09
4.6826e-08
1.53746e-09
4.68139e-08
1.55923e-09
4.68032e-08
1.60062e-09
4.67796e-08
1.64658e-09
4.67564e-08
1.61747e-09
4.67352e-08
1.53419e-09
4.67359e-08
1.43843e-09
4.67306e-08
1.45519e-09
4.67099e-08
1.50626e-09
4.66745e-08
1.53396e-09
4.66377e-08
1.51039e-09
4.66079e-08
1.45728e-09
4.65858e-08
1.4015e-09
4.65648e-08
1.3923e-09
4.65416e-08
1.40278e-09
4.65117e-08
1.40403e-09
4.64786e-08
1.39606e-09
4.64412e-08
1.37914e-09
4.64014e-08
1.36442e-09
4.63666e-08
1.32942e-09
4.63294e-08
1.32649e-09
4.62889e-08
1.34174e-09
4.62415e-08
1.33289e-09
4.61838e-08
1.34503e-09
4.6119e-08
1.34366e-09
4.6056e-08
1.29395e-09
4.5995e-08
1.27366e-09
4.59354e-08
1.26422e-09
4.58758e-08
1.24401e-09
4.58146e-08
1.24574e-09
4.57524e-08
1.23885e-09
4.5687e-08
1.22749e-09
4.56198e-08
1.22188e-09
4.55467e-08
1.22123e-09
4.5469e-08
1.21095e-09
4.53903e-08
1.19879e-09
4.5309e-08
1.1939e-09
4.52293e-08
1.17435e-09
4.51497e-08
1.16551e-09
4.50644e-08
1.17518e-09
4.49719e-08
1.17063e-09
4.48725e-08
1.16303e-09
4.47704e-08
1.15164e-09
4.46711e-08
1.12728e-09
4.4578e-08
1.10276e-09
4.44864e-08
1.10272e-09
4.43911e-08
1.10503e-09
4.42877e-08
1.10548e-09
4.41784e-08
1.09826e-09
4.40669e-08
1.08872e-09
4.39582e-08
1.07071e-09
4.38518e-08
1.05875e-09
4.37462e-08
1.04876e-09
4.36367e-08
1.05063e-09
4.35242e-08
1.04523e-09
4.3408e-08
1.04111e-09
4.32916e-08
1.02981e-09
4.31721e-08
1.02854e-09
4.30539e-08
1.01507e-09
4.2933e-08
1.01364e-09
4.28146e-08
9.99281e-10
4.26923e-08
1.00227e-09
4.25712e-08
9.91182e-10
4.24452e-08
9.93102e-10
4.232e-08
9.84105e-10
4.21889e-08
9.89929e-10
4.20603e-08
9.74633e-10
4.19264e-08
9.89971e-10
9.7222e-10
4.72763e-08
2.0274e-09
-4.71646e-08
4.73763e-08
2.28545e-09
4.74933e-08
2.54435e-09
4.75872e-08
2.53337e-09
4.78537e-08
2.90341e-09
4.79241e-08
2.58769e-09
4.81607e-08
2.53397e-09
4.82534e-08
3.13669e-09
4.82487e-08
2.80579e-09
4.84213e-08
2.49106e-09
4.847e-08
2.54394e-09
4.84729e-08
2.53102e-09
4.85137e-08
2.44113e-09
4.85624e-08
2.37333e-09
4.86182e-08
2.15654e-09
4.86165e-08
2.07134e-09
4.86074e-08
2.07239e-09
4.86057e-08
2.07235e-09
4.86233e-08
1.99582e-09
4.86237e-08
1.95827e-09
4.86162e-08
1.94689e-09
4.86084e-08
1.92616e-09
4.86021e-08
1.87708e-09
4.86123e-08
1.81252e-09
4.86102e-08
1.76577e-09
4.85995e-08
1.74962e-09
4.85765e-08
1.80041e-09
4.85685e-08
1.81739e-09
4.85548e-08
1.75647e-09
4.85651e-08
1.66203e-09
4.85748e-08
1.57211e-09
4.85734e-08
1.53887e-09
4.85582e-08
1.57444e-09
4.8544e-08
1.61488e-09
4.85333e-08
1.65726e-09
4.85217e-08
1.62902e-09
4.85129e-08
1.54296e-09
4.85158e-08
1.43558e-09
4.85095e-08
1.46153e-09
4.84974e-08
1.51826e-09
4.84784e-08
1.55299e-09
4.84641e-08
1.52471e-09
4.84525e-08
1.46892e-09
4.84424e-08
1.41151e-09
4.84307e-08
1.40405e-09
4.84219e-08
1.41158e-09
4.84104e-08
1.41549e-09
4.84013e-08
1.40515e-09
4.83881e-08
1.39239e-09
4.83702e-08
1.38236e-09
4.83578e-08
1.3418e-09
4.83418e-08
1.34248e-09
4.8327e-08
1.35653e-09
4.83086e-08
1.35131e-09
4.82821e-08
1.37153e-09
4.82496e-08
1.37611e-09
4.82184e-08
1.32519e-09
4.81873e-08
1.3048e-09
4.81586e-08
1.29286e-09
4.81287e-08
1.27391e-09
4.80979e-08
1.27655e-09
4.80694e-08
1.26736e-09
4.80405e-08
1.25641e-09
4.80125e-08
1.24985e-09
4.79793e-08
1.25445e-09
4.79402e-08
1.25008e-09
4.78984e-08
1.24058e-09
4.78546e-08
1.23766e-09
4.78137e-08
1.21524e-09
4.77741e-08
1.20512e-09
4.7731e-08
1.21827e-09
4.76809e-08
1.22071e-09
4.76229e-08
1.2211e-09
4.75593e-08
1.2152e-09
4.74965e-08
1.19007e-09
4.74405e-08
1.1588e-09
4.7389e-08
1.15419e-09
4.73366e-08
1.15746e-09
4.72764e-08
1.16571e-09
4.7208e-08
1.16664e-09
4.71348e-08
1.16192e-09
4.70628e-08
1.14268e-09
4.69947e-08
1.12692e-09
4.69291e-08
1.11433e-09
4.68606e-08
1.11908e-09
4.67882e-08
1.1177e-09
4.67112e-08
1.11807e-09
4.66324e-08
1.10857e-09
4.65503e-08
1.11069e-09
4.64679e-08
1.09743e-09
4.63831e-08
1.09843e-09
4.63001e-08
1.08236e-09
4.62145e-08
1.08783e-09
4.61289e-08
1.07683e-09
4.60398e-08
1.0822e-09
4.59482e-08
1.07566e-09
4.58524e-08
1.0857e-09
4.57548e-08
1.07229e-09
4.56553e-08
1.08949e-09
1.0725e-09
4.91067e-08
1.95817e-09
-4.90374e-08
4.91762e-08
2.21593e-09
4.93116e-08
2.40894e-09
4.94234e-08
2.42157e-09
4.96409e-08
2.68592e-09
4.97122e-08
2.51639e-09
4.9823e-08
2.42318e-09
5.00912e-08
2.86844e-09
4.9983e-08
2.91397e-09
5.01897e-08
2.28443e-09
5.01677e-08
2.56589e-09
5.02319e-08
2.46687e-09
5.03103e-08
2.3627e-09
5.03586e-08
2.32503e-09
5.03808e-08
2.13432e-09
5.03717e-08
2.08047e-09
5.03691e-08
2.075e-09
5.03897e-08
2.05176e-09
5.04077e-08
1.97782e-09
5.04039e-08
1.96204e-09
5.03939e-08
1.95687e-09
5.03874e-08
1.93274e-09
5.03856e-08
1.87883e-09
5.03981e-08
1.80005e-09
5.03932e-08
1.77062e-09
5.03721e-08
1.77074e-09
5.03617e-08
1.81086e-09
5.03531e-08
1.82593e-09
5.03558e-08
1.75374e-09
5.03765e-08
1.64132e-09
5.03754e-08
1.5733e-09
5.03639e-08
1.55031e-09
5.03453e-08
1.59308e-09
5.03267e-08
1.63347e-09
5.03317e-08
1.65226e-09
5.03211e-08
1.63965e-09
5.03208e-08
1.5432e-09
5.0315e-08
1.44144e-09
5.03059e-08
1.47064e-09
5.03023e-08
1.52182e-09
5.02858e-08
1.56952e-09
5.02783e-08
1.53214e-09
5.02743e-08
1.47301e-09
5.02667e-08
1.41905e-09
5.02571e-08
1.41365e-09
5.02505e-08
1.41823e-09
5.02469e-08
1.41906e-09
5.02437e-08
1.40834e-09
5.0237e-08
1.39907e-09
5.02263e-08
1.39307e-09
5.02205e-08
1.34767e-09
5.02124e-08
1.35049e-09
5.02087e-08
1.36031e-09
5.02031e-08
1.35688e-09
5.019e-08
1.38458e-09
5.01747e-08
1.39143e-09
5.01605e-08
1.33941e-09
5.01438e-08
1.32153e-09
5.01295e-08
1.3071e-09
5.01145e-08
1.28889e-09
5.00992e-08
1.29187e-09
5.00865e-08
1.28006e-09
5.00752e-08
1.26773e-09
5.00674e-08
1.25766e-09
5.0056e-08
1.2658e-09
5.00409e-08
1.26526e-09
5.00201e-08
1.2613e-09
4.99988e-08
1.25899e-09
4.99814e-08
1.23265e-09
4.99658e-08
1.2207e-09
4.9949e-08
1.2351e-09
4.99255e-08
1.24419e-09
4.98966e-08
1.25004e-09
4.98619e-08
1.24986e-09
4.98259e-08
1.22611e-09
4.97956e-08
1.18906e-09
4.9771e-08
1.17875e-09
4.97473e-08
1.18117e-09
4.97176e-08
1.19539e-09
4.96803e-08
1.20399e-09
4.96375e-08
1.20473e-09
4.95945e-08
1.18566e-09
4.95566e-08
1.16479e-09
4.95225e-08
1.14843e-09
4.94871e-08
1.15448e-09
4.94474e-08
1.15744e-09
4.94036e-08
1.16182e-09
4.93573e-08
1.1549e-09
4.93084e-08
1.15963e-09
4.92578e-08
1.14798e-09
4.92058e-08
1.15048e-09
4.91541e-08
1.13406e-09
4.91019e-08
1.14001e-09
4.90487e-08
1.12997e-09
4.89946e-08
1.13637e-09
4.89363e-08
1.13391e-09
4.88755e-08
1.14647e-09
4.88097e-08
1.13808e-09
4.87444e-08
1.15487e-09
1.14163e-09
5.10146e-08
1.92705e-09
-5.09835e-08
5.10647e-08
2.16579e-09
5.1167e-08
2.30664e-09
5.13247e-08
2.26387e-09
5.1495e-08
2.5156e-09
5.15591e-08
2.4523e-09
5.16702e-08
2.31209e-09
5.18037e-08
2.73499e-09
5.18846e-08
2.83299e-09
5.19779e-08
2.19118e-09
5.20646e-08
2.47914e-09
5.2077e-08
2.45446e-09
5.21588e-08
2.28096e-09
5.21941e-08
2.28975e-09
5.21903e-08
2.13813e-09
5.21844e-08
2.08636e-09
5.22012e-08
2.05814e-09
5.22429e-08
2.01009e-09
5.22562e-08
1.96449e-09
5.22489e-08
1.96941e-09
5.22343e-08
1.97145e-09
5.22243e-08
1.94271e-09
5.2235e-08
1.86808e-09
5.22496e-08
1.78547e-09
5.22433e-08
1.77695e-09
5.2221e-08
1.79309e-09
5.221e-08
1.82184e-09
5.22097e-08
1.82624e-09
5.22305e-08
1.73289e-09
5.22457e-08
1.62614e-09
5.2233e-08
1.58595e-09
5.22138e-08
1.5695e-09
5.21968e-08
1.6101e-09
5.21829e-08
1.64739e-09
5.21832e-08
1.65195e-09
5.21779e-08
1.64495e-09
5.21805e-08
1.54057e-09
5.21695e-08
1.45245e-09
5.21663e-08
1.47384e-09
5.21569e-08
1.53127e-09
5.21451e-08
1.58127e-09
5.21426e-08
1.53468e-09
5.21389e-08
1.47667e-09
5.21349e-08
1.42311e-09
5.21265e-08
1.42199e-09
5.21215e-08
1.42321e-09
5.21178e-08
1.42276e-09
5.21136e-08
1.41256e-09
5.2106e-08
1.40668e-09
5.20931e-08
1.40598e-09
5.20878e-08
1.353e-09
5.20826e-08
1.35563e-09
5.20825e-08
1.36041e-09
5.20829e-08
1.35648e-09
5.20734e-08
1.39414e-09
5.20612e-08
1.40362e-09
5.20588e-08
1.3418e-09
5.2047e-08
1.33326e-09
5.20421e-08
1.31207e-09
5.20332e-08
1.29776e-09
5.2025e-08
1.30005e-09
5.20167e-08
1.28836e-09
5.20106e-08
1.27388e-09
5.20108e-08
1.25747e-09
5.20057e-08
1.27091e-09
5.20021e-08
1.2688e-09
5.19918e-08
1.27165e-09
5.19821e-08
1.2687e-09
5.19769e-08
1.23781e-09
5.19714e-08
1.22622e-09
5.19661e-08
1.24036e-09
5.19551e-08
1.25517e-09
5.19413e-08
1.2639e-09
5.19263e-08
1.26485e-09
5.19089e-08
1.24347e-09
5.18936e-08
1.20445e-09
5.18829e-08
1.18942e-09
5.18727e-08
1.19137e-09
5.18579e-08
1.21022e-09
5.18385e-08
1.22333e-09
5.18159e-08
1.22738e-09
5.1792e-08
1.20949e-09
5.17742e-08
1.18264e-09
5.17601e-08
1.16252e-09
5.17455e-08
1.16904e-09
5.17266e-08
1.1764e-09
5.17048e-08
1.18362e-09
5.16806e-08
1.17905e-09
5.16558e-08
1.18451e-09
5.16283e-08
1.17543e-09
5.16006e-08
1.17819e-09
5.15719e-08
1.16272e-09
5.15438e-08
1.16812e-09
5.15145e-08
1.15929e-09
5.14861e-08
1.16484e-09
5.14538e-08
1.16616e-09
5.14207e-08
1.17953e-09
5.13815e-08
1.17736e-09
5.13433e-08
1.19304e-09
1.18438e-09
5.30003e-08
1.86032e-09
-5.29335e-08
5.30266e-08
2.13947e-09
5.31546e-08
2.17865e-09
5.32573e-08
2.1612e-09
5.339e-08
2.38282e-09
5.34997e-08
2.34268e-09
5.35614e-08
2.25031e-09
5.36878e-08
2.6086e-09
5.38117e-08
2.70913e-09
5.37953e-08
2.20754e-09
5.39613e-08
2.31316e-09
5.40277e-08
2.38812e-09
5.40558e-08
2.2528e-09
5.41043e-08
2.24128e-09
5.40856e-08
2.15678e-09
5.40822e-08
2.08977e-09
5.41128e-08
2.02754e-09
5.41514e-08
1.97149e-09
5.41594e-08
1.95648e-09
5.41518e-08
1.97699e-09
5.41414e-08
1.98193e-09
5.41383e-08
1.94582e-09
5.41589e-08
1.84742e-09
5.41677e-08