/*--------------------------------*- C++ -*----------------------------------*\
| =========                 |                                                 |
| \\      /  F ield         | OpenFOAM: The Open Source CFD Toolbox           |
|  \\    /   O peration     | Version:  2.3.0                                 |
|   \\  /    A nd           | Web:      www.OpenFOAM.org                      |
|    \\/     M anipulation  |                                                 |
\*---------------------------------------------------------------------------*/
FoamFile
{
    version     2.0;
    format      ascii;
    class       volVectorField;
    location    "0.9";
    object      U;
}
// * * * * * * * * * * * * * * * * * * * * * * * * * * * * * * * * * * * * * //

dimensions      [0 1 -1 0 0 0 0];

internalField   nonuniform List<vector> 
3375
(
(0.176231 0.00562899 0)
(0.154989 0.00582347 0)
(0.134519 0.00580452 0)
(0.115364 0.00535457 0)
(0.0981322 0.00438792 0)
(0.0831728 0.00337094 0)
(0.070593 0.00246936 0)
(0.0606428 0.00153065 0)
(0.0531598 0.000804641 0)
(0.0476891 0.000388676 0)
(0.0436262 0.000160384 0)
(0.0405626 3.52489e-05 0)
(0.0382708 -1.11592e-05 0)
(0.0365044 -7.33386e-06 0)
(0.0350574 8.52636e-06 0)
(0.0338336 2.31235e-05 0)
(0.0327525 4.50288e-05 0)
(0.0317481 6.143e-05 0)
(0.0308027 6.43219e-05 0)
(0.0299223 6.67203e-05 0)
(0.0291004 6.65548e-05 0)
(0.0283282 6.33119e-05 0)
(0.0276103 5.97263e-05 0)
(0.0269425 5.50692e-05 0)
(0.0263123 5.35344e-05 0)
(0.0257126 5.1713e-05 0)
(0.0251478 4.63682e-05 0)
(0.02462 4.31681e-05 0)
(0.0241243 4.02536e-05 0)
(0.0236603 3.60381e-05 0)
(0.0232196 3.58004e-05 0)
(0.022791 3.61684e-05 0)
(0.0223787 3.32734e-05 0)
(0.0219871 3.17126e-05 0)
(0.0216126 3.04691e-05 0)
(0.021258 2.68844e-05 0)
(0.020925 2.50369e-05 0)
(0.0206044 2.55552e-05 0)
(0.0202884 2.56625e-05 0)
(0.0199823 2.39897e-05 0)
(0.0196928 2.16628e-05 0)
(0.0194183 2.05181e-05 0)
(0.0191532 2.0071e-05 0)
(0.0188965 1.91284e-05 0)
(0.0186476 1.88192e-05 0)
(0.0184046 1.85958e-05 0)
(0.0181699 1.72148e-05 0)
(0.0179451 1.63372e-05 0)
(0.017728 1.58877e-05 0)
(0.0175167 1.53162e-05 0)
(0.0173132 1.4412e-05 0)
(0.0171158 1.4266e-05 0)
(0.0169206 1.4653e-05 0)
(0.0167313 1.32553e-05 0)
(0.016549 1.28719e-05 0)
(0.0163706 1.30007e-05 0)
(0.0161988 1.13373e-05 0)
(0.0160347 1.10652e-05 0)
(0.0158731 1.13987e-05 0)
(0.015715 1.04261e-05 0)
(0.0155616 1.0455e-05 0)
(0.0154106 1.03786e-05 0)
(0.0152636 9.51395e-06 0)
(0.0151213 9.44107e-06 0)
(0.0149807 9.47431e-06 0)
(0.0148433 8.86423e-06 0)
(0.0147097 8.70644e-06 0)
(0.0145779 8.79111e-06 0)
(0.0144487 8.31148e-06 0)
(0.0143228 8.16059e-06 0)
(0.014198 8.44005e-06 0)
(0.0140755 7.82275e-06 0)
(0.0139575 7.32786e-06 0)
(0.0138423 7.39267e-06 0)
(0.0137292 6.9779e-06 0)
(0.0136201 6.47276e-06 0)
(0.0135124 6.80968e-06 0)
(0.0134042 6.93842e-06 0)
(0.0132977 6.54591e-06 0)
(0.0131946 6.23106e-06 0)
(0.0130935 6.16662e-06 0)
(0.0129937 6.02932e-06 0)
(0.012896 5.82887e-06 0)
(0.0127999 5.70311e-06 0)
(0.0127052 5.685e-06 0)
(0.0126109 5.67369e-06 0)
(0.0125185 5.42913e-06 0)
(0.0124269 5.43254e-06 0)
(0.0123374 5.27076e-06 0)
(0.0122471 5.35368e-06 0)
(0.0121604 4.99494e-06 0)
(0.0120711 5.331e-06 0)
(0.0119876 4.73495e-06 0)
(0.0118971 5.51978e-06 0)
(0.0118191 4.1448e-06 0)
(0.0117238 6.00203e-06 0)
(0.0116576 3.03581e-06 0)
(0.011549 6.61575e-06 0)
(0.0115177 1.92953e-07 0)
(0.0113701 1.13643e-05 0)
(0.191522 0.00883921 0)
(0.190642 0.0124825 0)
(0.188139 0.0138124 0)
(0.183604 0.0126917 0)
(0.177247 0.0116311 0)
(0.169658 0.0101904 0)
(0.161213 0.00897791 0)
(0.152758 0.00741135 0)
(0.144694 0.00573719 0)
(0.137132 0.00443637 0)
(0.130172 0.00342161 0)
(0.123824 0.00261741 0)
(0.118088 0.00200488 0)
(0.112974 0.00159732 0)
(0.108422 0.00131482 0)
(0.104365 0.00109891 0)
(0.100714 0.000972971 0)
(0.0973959 0.000890003 0)
(0.0943551 0.000807842 0)
(0.0915583 0.00074424 0)
(0.0889977 0.000685848 0)
(0.0866229 0.000632743 0)
(0.084416 0.000585586 0)
(0.0823688 0.000541383 0)
(0.0804422 0.000511682 0)
(0.0786261 0.00048228 0)
(0.0769188 0.000445089 0)
(0.0753071 0.000417307 0)
(0.0737885 0.000391128 0)
(0.072357 0.000362377 0)
(0.0709902 0.000348113 0)
(0.0696786 0.000336643 0)
(0.0684266 0.000315018 0)
(0.0672316 0.000298741 0)
(0.066092 0.000285368 0)
(0.0650072 0.000265233 0)
(0.0639715 0.0002502 0)
(0.0629759 0.000243152 0)
(0.0620112 0.000236038 0)
(0.0610818 0.000223713 0)
(0.0601944 0.000209682 0)
(0.0593443 0.000199996 0)
(0.0585234 0.000193016 0)
(0.0577296 0.000184659 0)
(0.056961 0.000178513 0)
(0.0562158 0.000172949 0)
(0.0554964 0.000164037 0)
(0.054802 0.000156969 0)
(0.0541309 0.000151467 0)
(0.0534791 0.000145933 0)
(0.0528489 0.000139304 0)
(0.0522369 0.000135261 0)
(0.0516389 0.00013321 0)
(0.0510605 0.000125655 0)
(0.0504987 0.000121579 0)
(0.0499523 0.000119075 0)
(0.0494234 0.000111148 0)
(0.0489101 0.000107874 0)
(0.0484097 0.000106528 0)
(0.0479213 0.000101135 0)
(0.0474444 9.89999e-05 0)
(0.0469795 9.6721e-05 0)
(0.0465258 9.2176e-05 0)
(0.0460831 9.00261e-05 0)
(0.0456499 8.8281e-05 0)
(0.0452262 8.46561e-05 0)
(0.0448121 8.24963e-05 0)
(0.0444067 8.11342e-05 0)
(0.0440099 7.80372e-05 0)
(0.0436221 7.59423e-05 0)
(0.0432417 7.5316e-05 0)
(0.0428699 7.19628e-05 0)
(0.0425075 6.90791e-05 0)
(0.0421534 6.79963e-05 0)
(0.0418067 6.5536e-05 0)
(0.0414684 6.28444e-05 0)
(0.0411351 6.28112e-05 0)
(0.0408057 6.20632e-05 0)
(0.0404825 5.97528e-05 0)
(0.0401672 5.77671e-05 0)
(0.0398576 5.66592e-05 0)
(0.039553 5.5321e-05 0)
(0.0392541 5.38171e-05 0)
(0.0389602 5.25904e-05 0)
(0.0386711 5.1725e-05 0)
(0.0383851 5.09232e-05 0)
(0.0381049 4.93898e-05 0)
(0.0378272 4.87306e-05 0)
(0.037556 4.74999e-05 0)
(0.0372845 4.71928e-05 0)
(0.0370223 4.5355e-05 0)
(0.0367553 4.59649e-05 0)
(0.036503 4.33674e-05 0)
(0.0362357 4.55518e-05 0)
(0.0359985 4.04141e-05 0)
(0.0357216 4.62241e-05 0)
(0.0355145 3.56144e-05 0)
(0.0352046 4.82214e-05 0)
(0.0350822 2.57935e-05 0)
(0.034661 5.72497e-05 0)
(0.192104 0.00867074 0)
(0.192586 0.0105621 0)
(0.19415 0.0106843 0)
(0.195861 0.0125116 0)
(0.196644 0.0117898 0)
(0.195941 0.0115808 0)
(0.194107 0.0108935 0)
(0.191543 0.00985734 0)
(0.188287 0.00850195 0)
(0.184518 0.00756689 0)
(0.180464 0.0065608 0)
(0.17625 0.00565448 0)
(0.171977 0.00492804 0)
(0.16779 0.00434977 0)
(0.163747 0.00385613 0)
(0.15988 0.00341722 0)
(0.156172 0.00311733 0)
(0.152597 0.00287061 0)
(0.149154 0.00260918 0)
(0.145834 0.0023978 0)
(0.142662 0.00220758 0)
(0.139615 0.00203632 0)
(0.136692 0.00188112 0)
(0.133916 0.0017365 0)
(0.131262 0.00163277 0)
(0.12872 0.00153409 0)
(0.126287 0.00142212 0)
(0.123949 0.00133339 0)
(0.121717 0.00125072 0)
(0.119598 0.00116796 0)
(0.11756 0.00111528 0)
(0.115583 0.00106808 0)
(0.113677 0.00100558 0)
(0.111843 0.000953764 0)
(0.110084 0.000906384 0)
(0.108403 0.000851405 0)
(0.106786 0.000808925 0)
(0.105225 0.000779724 0)
(0.103708 0.00075126 0)
(0.102236 0.000714298 0)
(0.100824 0.000674849 0)
(0.0994674 0.000644837 0)
(0.0981542 0.000620804 0)
(0.0968797 0.000594679 0)
(0.0956411 0.000573384 0)
(0.0944383 0.000553374 0)
(0.093274 0.000527588 0)
(0.0921462 0.000506099 0)
(0.0910535 0.000487701 0)
(0.0899899 0.000469854 0)
(0.0889585 0.000450272 0)
(0.0879567 0.000435804 0)
(0.0869776 0.000425162 0)
(0.0860287 0.000404497 0)
(0.0851039 0.000391279 0)
(0.0842038 0.000381127 0)
(0.0833311 0.000361108 0)
(0.0824798 0.000349842 0)
(0.0816504 0.000342448 0)
(0.0808406 0.000328299 0)
(0.0800472 0.00031978 0)
(0.079275 0.000310829 0)
(0.0785202 0.000298682 0)
(0.0777817 0.000290997 0)
(0.0770602 0.000284075 0)
(0.0763543 0.00027396 0)
(0.0756629 0.000266297 0)
(0.074987 0.00026027 0)
(0.0743253 0.000251464 0)
(0.0736774 0.000244281 0)
(0.0730429 0.000239875 0)
(0.0724226 0.000230968 0)
(0.0718156 0.000222998 0)
(0.0712224 0.000218143 0)
(0.0706417 0.000211219 0)
(0.0700732 0.000204129 0)
(0.0695138 0.000201688 0)
(0.0689631 0.000197812 0)
(0.0684222 0.000191393 0)
(0.0678933 0.000185703 0)
(0.067374 0.000181702 0)
(0.0668634 0.000177299 0)
(0.066362 0.000172715 0)
(0.065869 0.000168683 0)
(0.0653843 0.000165366 0)
(0.0649058 0.000162206 0)
(0.0644366 0.000157823 0)
(0.0639725 0.000155062 0)
(0.0635187 0.000151322 0)
(0.0630664 0.000149367 0)
(0.0626274 0.000144662 0)
(0.0621845 0.000144472 0)
(0.0617619 0.00013849 0)
(0.0613221 0.00014129 0)
(0.060922 0.00013087 0)
(0.0604725 0.000140296 0)
(0.0601153 0.000120323 0)
(0.0596201 0.000141522 0)
(0.0593872 0.000105166 0)
(0.0587031 0.00014766 0)
(0.192804 0.0075752 0)
(0.193672 0.00901687 0)
(0.195144 0.0107574 0)
(0.196747 0.00999836 0)
(0.198032 0.0124582 0)
(0.199244 0.0100301 0)
(0.200155 0.0116926 0)
(0.200961 0.00978677 0)
(0.200916 0.00895188 0)
(0.200283 0.00817405 0)
(0.199068 0.00774249 0)
(0.197554 0.0069709 0)
(0.195779 0.0063111 0)
(0.193826 0.00584738 0)
(0.191735 0.0054038 0)
(0.189597 0.0049417 0)
(0.187481 0.00462797 0)
(0.185318 0.00439497 0)
(0.183058 0.00412988 0)
(0.180752 0.00389579 0)
(0.178466 0.00366642 0)
(0.176172 0.00345695 0)
(0.173846 0.00326056 0)
(0.171531 0.00305786 0)
(0.169251 0.00290359 0)
(0.167015 0.00276494 0)
(0.164808 0.00260879 0)
(0.162606 0.00247815 0)
(0.160434 0.00233924 0)
(0.158346 0.00219676 0)
(0.15633 0.00211358 0)
(0.154335 0.00203823 0)
(0.152347 0.00193211 0)
(0.150372 0.0018455 0)
(0.148444 0.00176167 0)
(0.146588 0.00165988 0)
(0.144797 0.00158248 0)
(0.143052 0.00153042 0)
(0.141323 0.00148013 0)
(0.139609 0.00141401 0)
(0.137943 0.00134122 0)
(0.136339 0.0012838 0)
(0.134782 0.00123842 0)
(0.133257 0.00119005 0)
(0.131756 0.00114883 0)
(0.130285 0.00110993 0)
(0.128851 0.00106182 0)
(0.127456 0.00102088 0)
(0.126098 0.000985503 0)
(0.124766 0.000951264 0)
(0.123464 0.000913007 0)
(0.122194 0.000883464 0)
(0.120948 0.000861483 0)
(0.119734 0.000823272 0)
(0.118547 0.000796649 0)
(0.117387 0.000775022 0)
(0.116259 0.00073902 0)
(0.115154 0.000716897 0)
(0.114073 0.000699555 0)
(0.113013 0.00067274 0)
(0.111971 0.000655808 0)
(0.110953 0.00063747 0)
(0.109957 0.000614197 0)
(0.108979 0.000597573 0)
(0.108021 0.000582531 0)
(0.107083 0.00056373 0)
(0.106162 0.000548273 0)
(0.105259 0.000534861 0)
(0.104374 0.000517596 0)
(0.103504 0.000502961 0)
(0.102651 0.000492567 0)
(0.101816 0.000475651 0)
(0.100997 0.000460512 0)
(0.100195 0.000449841 0)
(0.0994089 0.000436087 0)
(0.0986373 0.000422464 0)
(0.0978773 0.000416089 0)
(0.0971292 0.000407324 0)
(0.0963935 0.000394893 0)
(0.0956725 0.000383712 0)
(0.0949642 0.000375218 0)
(0.094267 0.000366074 0)
(0.0935814 0.000356822 0)
(0.092907 0.000348392 0)
(0.0922431 0.000341224 0)
(0.0915881 0.000334232 0)
(0.0909447 0.000325631 0)
(0.090309 0.000319376 0)
(0.0896859 0.00031189 0)
(0.0890666 0.000306905 0)
(0.0884627 0.000298168 0)
(0.0878574 0.000295903 0)
(0.0872744 0.000285527 0)
(0.0866764 0.000287647 0)
(0.0861206 0.000271256 0)
(0.0855156 0.000282357 0)
(0.0850107 0.000254871 0)
(0.084351 0.000278389 0)
(0.084006 0.000237876 0)
(0.0830774 0.000277841 0)
(0.19394 0.00685886 0)
(0.19472 0.00879165 0)
(0.195618 0.00948176 0)
(0.196757 0.0101504 0)
(0.198049 0.0110988 0)
(0.199279 0.0102031 0)
(0.2005 0.0103504 0)
(0.201614 0.00948785 0)
(0.202149 0.00889283 0)
(0.202519 0.00838104 0)
(0.202654 0.00747285 0)
(0.202473 0.00719783 0)
(0.202145 0.00663849 0)
(0.201635 0.006293 0)
(0.200946 0.00596056 0)
(0.200195 0.00550275 0)
(0.199497 0.0052301 0)
(0.198736 0.00505686 0)
(0.197795 0.00483635 0)
(0.196741 0.0046512 0)
(0.19566 0.0044545 0)
(0.194523 0.00428876 0)
(0.193292 0.00413069 0)
(0.19199 0.00394308 0)
(0.190653 0.00378706 0)
(0.189305 0.00363884 0)
(0.187934 0.00348445 0)
(0.186494 0.00337481 0)
(0.184986 0.00323179 0)
(0.18349 0.00305185 0)
(0.182053 0.00294915 0)
(0.180642 0.0028839 0)
(0.179201 0.0027827 0)
(0.177691 0.00269126 0)
(0.176126 0.00259269 0)
(0.174564 0.00245637 0)
(0.173063 0.00234615 0)
(0.171627 0.00228189 0)
(0.170185 0.00223509 0)
(0.168685 0.00215944 0)
(0.167163 0.00205853 0)
(0.165679 0.00197365 0)
(0.16425 0.00191045 0)
(0.162848 0.00184833 0)
(0.161443 0.00179709 0)
(0.160029 0.00174403 0)
(0.158623 0.00167403 0)
(0.157243 0.00161447 0)
(0.155897 0.00156379 0)
(0.154568 0.00151779 0)
(0.153248 0.00146343 0)
(0.151944 0.00141951 0)
(0.150647 0.00138649 0)
(0.149371 0.0013285 0)
(0.148115 0.00129001 0)
(0.146882 0.00125677 0)
(0.145679 0.0012008 0)
(0.144496 0.0011697 0)
(0.14333 0.00114452 0)
(0.142177 0.00110288 0)
(0.141032 0.00107613 0)
(0.139907 0.00104709 0)
(0.138801 0.00101265 0)
(0.137708 0.000987624 0)
(0.136634 0.00096227 0)
(0.135576 0.000931956 0)
(0.134533 0.000908071 0)
(0.133507 0.000887238 0)
(0.132497 0.000860216 0)
(0.131499 0.000837249 0)
(0.130514 0.00082015 0)
(0.129547 0.000792963 0)
(0.128595 0.000768937 0)
(0.127662 0.000751948 0)
(0.126745 0.000730406 0)
(0.125841 0.000708568 0)
(0.124946 0.000697192 0)
(0.124063 0.000682475 0)
(0.123192 0.000662702 0)
(0.122337 0.000644625 0)
(0.121496 0.000630649 0)
(0.120665 0.000615712 0)
(0.119846 0.000600799 0)
(0.119039 0.000586758 0)
(0.118242 0.000574808 0)
(0.117454 0.000562752 0)
(0.116679 0.000548856 0)
(0.115912 0.000537917 0)
(0.115159 0.000526005 0)
(0.11441 0.000516747 0)
(0.113676 0.000503288 0)
(0.112944 0.000497401 0)
(0.112232 0.000482473 0)
(0.111509 0.000481855 0)
(0.110825 0.000460438 0)
(0.110097 0.000469137 0)
(0.109468 0.000438835 0)
(0.108677 0.000456254 0)
(0.108238 0.000420839 0)
(0.107106 0.000448951 0)
(0.194885 0.00664391 0)
(0.195446 0.00817631 0)
(0.195984 0.00906958 0)
(0.196909 0.00941817 0)
(0.19811 0.0107492 0)
(0.199283 0.0093194 0)
(0.200406 0.0100195 0)
(0.201539 0.00918482 0)
(0.201966 0.00856436 0)
(0.202264 0.0083525 0)
(0.202764 0.00750993 0)
(0.202811 0.00715684 0)
(0.202782 0.00680649 0)
(0.202729 0.00630248 0)
(0.2026 0.00603228 0)
(0.202445 0.00557448 0)
(0.202363 0.00531908 0)
(0.202264 0.00522762 0)
(0.202029 0.00506351 0)
(0.201715 0.00491942 0)
(0.201391 0.00475016 0)
(0.201017 0.0046025 0)
(0.200556 0.0044725 0)
(0.200031 0.00433097 0)
(0.199484 0.00421105 0)
(0.198937 0.00408013 0)
(0.198356 0.00394873 0)
(0.197677 0.00388653 0)
(0.196879 0.00375777 0)
(0.196049 0.00356805 0)
(0.195272 0.00345051 0)
(0.194548 0.00337477 0)
(0.193818 0.00330451 0)
(0.193009 0.00326381 0)
(0.192078 0.00319425 0)
(0.191056 0.00305384 0)
(0.190048 0.00291183 0)
(0.189134 0.00282013 0)
(0.188256 0.00279126 0)
(0.187292 0.00274822 0)
(0.186225 0.00265373 0)
(0.185128 0.00254988 0)
(0.18407 0.00246591 0)
(0.183056 0.00239346 0)
(0.182045 0.00235078 0)
(0.180999 0.00230862 0)
(0.179912 0.00223158 0)
(0.17881 0.00215852 0)
(0.177726 0.00209483 0)
(0.176657 0.0020432 0)
(0.17559 0.00198259 0)
(0.174521 0.00193557 0)
(0.173432 0.00190465 0)
(0.172329 0.00183215 0)
(0.171223 0.00178271 0)
(0.170126 0.0017436 0)
(0.169053 0.00166791 0)
(0.168002 0.00162713 0)
(0.166962 0.00160052 0)
(0.165921 0.00155103 0)
(0.164872 0.00152024 0)
(0.163826 0.00148257 0)
(0.162788 0.00143593 0)
(0.161754 0.00140493 0)
(0.160729 0.00137456 0)
(0.159713 0.00133417 0)
(0.158704 0.00130116 0)
(0.157706 0.00127466 0)
(0.156717 0.00123893 0)
(0.155733 0.00120863 0)
(0.15475 0.00118802 0)
(0.153774 0.00115204 0)
(0.152809 0.00111768 0)
(0.151863 0.00109306 0)
(0.150933 0.00106477 0)
(0.150013 0.00103648 0)
(0.149094 0.00102121 0)
(0.148178 0.00100059 0)
(0.147268 0.000973351 0)
(0.146372 0.000947697 0)
(0.14549 0.000927892 0)
(0.144618 0.000907109 0)
(0.143754 0.000886997 0)
(0.142897 0.000867273 0)
(0.142046 0.000850812 0)
(0.141203 0.000833272 0)
(0.140368 0.000814005 0)
(0.139543 0.000797419 0)
(0.138727 0.000781372 0)
(0.137917 0.000766863 0)
(0.137117 0.00074959 0)
(0.13632 0.000738337 0)
(0.135538 0.000720342 0)
(0.134748 0.00071407 0)
(0.13399 0.000690661 0)
(0.133194 0.000692074 0)
(0.132489 0.000664432 0)
(0.131622 0.000669001 0)
(0.131125 0.00064468 0)
(0.129866 0.000655838 0)
(0.195474 0.00640284 0)
(0.195896 0.00773904 0)
(0.19635 0.00868697 0)
(0.197207 0.00856948 0)
(0.198287 0.0103243 0)
(0.199352 0.00858756 0)
(0.200285 0.00919042 0)
(0.201315 0.00920882 0)
(0.201732 0.00821544 0)
(0.201816 0.00798696 0)
(0.202364 0.00746274 0)
(0.202695 0.00694402 0)
(0.202675 0.00664387 0)
(0.202685 0.00644724 0)
(0.202665 0.00608541 0)
(0.202662 0.00557836 0)
(0.202711 0.00530108 0)
(0.202717 0.00526348 0)
(0.202679 0.00513276 0)
(0.202635 0.00492478 0)
(0.202578 0.00478917 0)
(0.202464 0.00471593 0)
(0.202322 0.00463672 0)
(0.202178 0.00446615 0)
(0.202041 0.00430627 0)
(0.201919 0.00417682 0)
(0.201765 0.00409261 0)
(0.201502 0.00409409 0)
(0.201117 0.00401277 0)
(0.200727 0.00381363 0)
(0.200412 0.0036711 0)
(0.20016 0.00355666 0)
(0.199924 0.00349 0)
(0.199632 0.00351348 0)
(0.199221 0.00350433 0)
(0.198685 0.00338898 0)
(0.198116 0.00323654 0)
(0.197647 0.00311321 0)
(0.197268 0.00309253 0)
(0.196831 0.00308984 0)
(0.19626 0.00303273 0)
(0.195606 0.00293656 0)
(0.194956 0.00283514 0)
(0.194357 0.00274203 0)
(0.19379 0.00270112 0)
(0.193201 0.00268044 0)
(0.192552 0.00262356 0)
(0.191854 0.00255614 0)
(0.191144 0.00248674 0)
(0.190438 0.0024304 0)
(0.189739 0.00236471 0)
(0.189042 0.00232361 0)
(0.188318 0.00230656 0)
(0.187553 0.0022405 0)
(0.186754 0.00219304 0)
(0.185936 0.00214889 0)
(0.185124 0.00205904 0)
(0.184338 0.00201035 0)
(0.183568 0.00198081 0)
(0.182794 0.00192867 0)
(0.182001 0.00190279 0)
(0.181197 0.00186731 0)
(0.180383 0.00181676 0)
(0.179561 0.00177976 0)
(0.178735 0.0017475 0)
(0.177907 0.00170488 0)
(0.177077 0.00166527 0)
(0.176249 0.00163583 0)
(0.175426 0.00159722 0)
(0.174601 0.00156314 0)
(0.173767 0.0015411 0)
(0.172919 0.00150106 0)
(0.172065 0.00146154 0)
(0.171223 0.00142906 0)
(0.170401 0.00139181 0)
(0.169592 0.00135879 0)
(0.168782 0.00134501 0)
(0.16796 0.00132277 0)
(0.167126 0.00129067 0)
(0.166296 0.00125815 0)
(0.165477 0.00123262 0)
(0.16467 0.00120616 0)
(0.163869 0.00118269 0)
(0.16307 0.00115885 0)
(0.162268 0.00114016 0)
(0.161467 0.00111792 0)
(0.160667 0.0010949 0)
(0.159874 0.00107256 0)
(0.159086 0.00105403 0)
(0.158301 0.00103341 0)
(0.157521 0.00101468 0)
(0.156744 0.000996868 0)
(0.155974 0.000979312 0)
(0.155197 0.00096498 0)
(0.15444 0.000943352 0)
(0.15365 0.000934395 0)
(0.152939 0.000913669 0)
(0.152071 0.000902361 0)
(0.151566 0.000891532 0)
(0.150291 0.000884713 0)
(0.196054 0.00605397 0)
(0.19629 0.00733794 0)
(0.196673 0.00820166 0)
(0.197488 0.00820736 0)
(0.198451 0.00961464 0)
(0.199331 0.00836491 0)
(0.20007 0.00829912 0)
(0.201062 0.00942481 0)
(0.201621 0.00772653 0)
(0.201525 0.00750907 0)
(0.202054 0.00713538 0)
(0.2025 0.00687684 0)
(0.20244 0.00663762 0)
(0.202438 0.00644647 0)
(0.202513 0.00604912 0)
(0.20265 0.0055055 0)
(0.202721 0.00527923 0)
(0.202688 0.00523845 0)
(0.202661 0.00508718 0)
(0.202667 0.00497713 0)
(0.202653 0.00485427 0)
(0.202579 0.00475426 0)
(0.20251 0.00456529 0)
(0.202506 0.00450043 0)
(0.202507 0.00432695 0)
(0.202501 0.00420468 0)
(0.202465 0.00416466 0)
(0.202331 0.00421386 0)
(0.20212 0.00412976 0)
(0.20197 0.0039213 0)
(0.201893 0.00371702 0)
(0.201852 0.0035964 0)
(0.20183 0.00353817 0)
(0.201757 0.00359072 0)
(0.201593 0.00365468 0)
(0.201352 0.00356712 0)
(0.201079 0.00337694 0)
(0.20088 0.00319503 0)
(0.200783 0.00318147 0)
(0.200654 0.00322963 0)
(0.200408 0.0032281 0)
(0.200075 0.00315356 0)
(0.199735 0.00303924 0)
(0.19944 0.00291968 0)
(0.19919 0.00287449 0)
(0.19894 0.00286416 0)
(0.19864 0.00283041 0)
(0.198292 0.00278407 0)
(0.19792 0.00271858 0)
(0.197538 0.00266378 0)
(0.197161 0.00258465 0)
(0.196797 0.00255004 0)
(0.196418 0.00255115 0)
(0.195996 0.00249551 0)
(0.19553 0.00247298 0)
(0.195024 0.00243567 0)
(0.194502 0.00232758 0)
(0.193999 0.0022758 0)
(0.193519 0.00224643 0)
(0.193037 0.00219036 0)
(0.192543 0.00217009 0)
(0.192036 0.00213874 0)
(0.191513 0.00209529 0)
(0.190972 0.00206289 0)
(0.190418 0.00202919 0)
(0.18985 0.0019883 0)
(0.189271 0.00195008 0)
(0.188689 0.0019174 0)
(0.188108 0.00187469 0)
(0.187524 0.00184695 0)
(0.18693 0.00183432 0)
(0.186311 0.00179243 0)
(0.185663 0.00175088 0)
(0.185007 0.00171673 0)
(0.184365 0.00167073 0)
(0.183746 0.00162893 0)
(0.183136 0.00161829 0)
(0.182513 0.00160156 0)
(0.181861 0.00157221 0)
(0.181191 0.00153672 0)
(0.180518 0.00150667 0)
(0.179856 0.00147388 0)
(0.179205 0.00144839 0)
(0.178558 0.00142274 0)
(0.177902 0.00140603 0)
(0.177235 0.00138162 0)
(0.17656 0.00135774 0)
(0.175885 0.00133061 0)
(0.175209 0.00131249 0)
(0.174534 0.00128579 0)
(0.173858 0.00126834 0)
(0.173184 0.00124341 0)
(0.172511 0.00123002 0)
(0.171829 0.00120821 0)
(0.171155 0.00119132 0)
(0.170451 0.00117231 0)
(0.169809 0.00116058 0)
(0.169022 0.00113504 0)
(0.168565 0.00113653 0)
(0.167394 0.00111458 0)
(0.196464 0.00634297 0)
(0.196594 0.00712604 0)
(0.196967 0.00788878 0)
(0.197713 0.00736213 0)
(0.198526 0.00934006 0)
(0.199361 0.00734393 0)
(0.199875 0.00816697 0)
(0.20098 0.00833726 0)
(0.201488 0.0078896 0)
(0.201286 0.00754756 0)
(0.201851 0.00700681 0)
(0.202319 0.00676529 0)
(0.202157 0.00661823 0)
(0.202146 0.00646467 0)
(0.202397 0.00597054 0)
(0.202641 0.00537949 0)
(0.202624 0.00528162 0)
(0.202564 0.00525697 0)
(0.202553 0.00514138 0)
(0.202566 0.00494936 0)
(0.202566 0.00483784 0)
(0.202532 0.00475711 0)
(0.202486 0.00462985 0)
(0.202487 0.00451884 0)
(0.202509 0.00430308 0)
(0.202506 0.0042089 0)
(0.202466 0.0041845 0)
(0.202355 0.00433026 0)
(0.202236 0.00411829 0)
(0.202204 0.00393954 0)
(0.202212 0.0037555 0)
(0.202218 0.00359212 0)
(0.202217 0.00357092 0)
(0.202189 0.00362891 0)
(0.202108 0.00367849 0)
(0.202001 0.00367163 0)
(0.201888 0.00347849 0)
(0.201825 0.00321823 0)
(0.201838 0.00319437 0)
(0.201814 0.00325037 0)
(0.201693 0.00330558 0)
(0.20152 0.00326324 0)
(0.201364 0.00314146 0)
(0.201243 0.00299355 0)
(0.201154 0.00293885 0)
(0.20107 0.00293939 0)
(0.200957 0.00291614 0)
(0.200818 0.00288415 0)
(0.200667 0.00282672 0)
(0.2005 0.00277874 0)
(0.20033 0.00269194 0)
(0.200175 0.00265018 0)
(0.200016 0.00266797 0)
(0.19983 0.00262604 0)
(0.199613 0.00261935 0)
(0.199349 0.00260692 0)
(0.199059 0.00249235 0)
(0.198784 0.00242706 0)
(0.198528 0.00239658 0)
(0.198271 0.00234038 0)
(0.198007 0.00232626 0)
(0.19774 0.00229893 0)
(0.197468 0.00225661 0)
(0.197182 0.00223213 0)
(0.19688 0.00220971 0)
(0.196558 0.00216819 0)
(0.196216 0.00213258 0)
(0.195867 0.00210811 0)
(0.195519 0.00205609 0)
(0.195175 0.0020228 0)
(0.194824 0.00202796 0)
(0.194449 0.00200294 0)
(0.194034 0.00196397 0)
(0.193592 0.00192839 0)
(0.193149 0.00187838 0)
(0.192729 0.00182521 0)
(0.192333 0.00181163 0)
(0.191937 0.00180205 0)
(0.191513 0.00178461 0)
(0.191054 0.00175447 0)
(0.190573 0.00172395 0)
(0.190091 0.00168388 0)
(0.189623 0.00165419 0)
(0.189169 0.00162664 0)
(0.188708 0.00161562 0)
(0.18823 0.00159356 0)
(0.187735 0.00157282 0)
(0.187232 0.00154278 0)
(0.186722 0.00152788 0)
(0.186209 0.00149659 0)
(0.18569 0.00148211 0)
(0.185173 0.00145089 0)
(0.184655 0.0014427 0)
(0.184128 0.00141638 0)
(0.183601 0.00140629 0)
(0.183043 0.00138099 0)
(0.182529 0.00137767 0)
(0.181891 0.00134401 0)
(0.181522 0.00135387 0)
(0.180556 0.00132228 0)
(0.196814 0.00592067 0)
(0.197009 0.00654115 0)
(0.197409 0.00738716 0)
(0.197942 0.00736336 0)
(0.198576 0.00852703 0)
(0.199388 0.00765238 0)
(0.199924 0.00670346 0)
(0.200571 0.00936357 0)
(0.201337 0.0072052 0)
(0.201194 0.00706842 0)
(0.201639 0.0068315 0)
(0.202154 0.00663087 0)
(0.201965 0.00650985 0)
(0.201956 0.00639424 0)
(0.202342 0.00581331 0)
(0.202555 0.0053726 0)
(0.202455 0.00530609 0)
(0.202386 0.00531407 0)
(0.20244 0.00513043 0)
(0.202496 0.00491128 0)
(0.202484 0.00486313 0)
(0.202446 0.00479911 0)
(0.202392 0.00463418 0)
(0.202402 0.00448823 0)
(0.202445 0.00430209 0)
(0.202425 0.0041844 0)
(0.202349 0.00430372 0)
(0.202276 0.00428927 0)
(0.20221 0.00417028 0)
(0.2022 0.00400442 0)
(0.202253 0.00373426 0)
(0.202283 0.00353128 0)
(0.20226 0.00357271 0)
(0.2022 0.00365289 0)
(0.202118 0.00379821 0)
(0.202072 0.00367095 0)
(0.202042 0.0034737 0)
(0.202016 0.00321038 0)
(0.202021 0.0032103 0)
(0.202001 0.00330682 0)
(0.201934 0.00335212 0)
(0.201854 0.00329293 0)
(0.201793 0.00315562 0)
(0.201744 0.00301543 0)
(0.201704 0.00295588 0)
(0.201668 0.00295574 0)
(0.201618 0.00295005 0)
(0.201573 0.00291821 0)
(0.201535 0.002869 0)
(0.201473 0.00282188 0)
(0.201399 0.00272898 0)
(0.20134 0.00269637 0)
(0.201282 0.00270211 0)
(0.201212 0.00267878 0)
(0.201133 0.00269163 0)
(0.201014 0.00268572 0)
(0.200864 0.00257714 0)
(0.200731 0.00251185 0)
(0.200612 0.00247311 0)
(0.20049 0.0024134 0)
(0.200361 0.0023963 0)
(0.200233 0.00237328 0)
(0.200114 0.00233803 0)
(0.199998 0.00230653 0)
(0.199873 0.0022994 0)
(0.199727 0.00227061 0)
(0.199558 0.00223033 0)
(0.199374 0.00221312 0)
(0.199193 0.00216282 0)
(0.199026 0.00212174 0)
(0.198861 0.00212343 0)
(0.198675 0.00211582 0)
(0.198452 0.00209893 0)
(0.198195 0.00206636 0)
(0.197925 0.0020131 0)
(0.197668 0.00195106 0)
(0.197444 0.00192776 0)
(0.197235 0.00191753 0)
(0.197007 0.00191391 0)
(0.196743 0.00189779 0)
(0.196446 0.00187532 0)
(0.196136 0.00183223 0)
(0.195837 0.0017955 0)
(0.195561 0.00176173 0)
(0.195287 0.00175485 0)
(0.194997 0.00173794 0)
(0.194685 0.00172404 0)
(0.19436 0.00169458 0)
(0.194025 0.00168403 0)
(0.193683 0.00165138 0)
(0.193332 0.00164012 0)
(0.192981 0.00160431 0)
(0.192631 0.00160011 0)
(0.192274 0.00157141 0)
(0.191915 0.00156756 0)
(0.191529 0.00154296 0)
(0.19117 0.00154488 0)
(0.190709 0.00151131 0)
(0.190446 0.00152528 0)
(0.189735 0.00149003 0)
(0.197173 0.00578513 0)
(0.197248 0.00647162 0)
(0.197671 0.00706242 0)
(0.198247 0.00699636 0)
(0.198751 0.00782983 0)
(0.199413 0.0072593 0)
(0.19982 0.00691623 0)
(0.200343 0.00772441 0)
(0.201105 0.00804464 0)
(0.20113 0.00665882 0)
(0.201388 0.00702943 0)
(0.201904 0.0065814 0)
(0.2019 0.00641061 0)
(0.201977 0.00615274 0)
(0.202274 0.00562375 0)
(0.202345 0.00535724 0)
(0.202232 0.00531742 0)
(0.202242 0.00529778 0)
(0.20237 0.00506014 0)
(0.202405 0.00495827 0)
(0.202366 0.00487455 0)
(0.202329 0.00479402 0)
(0.202299 0.00465748 0)
(0.202319 0.00446521 0)
(0.202358 0.00431641 0)
(0.202327 0.00424748 0)
(0.202233 0.00428573 0)
(0.202171 0.00434194 0)
(0.202168 0.00422485 0)
(0.202207 0.00394626 0)
(0.202266 0.00366948 0)
(0.202263 0.00359228 0)
(0.202209 0.00365675 0)
(0.202101 0.00370224 0)
(0.202062 0.00371413 0)
(0.202078 0.00368445 0)
(0.202046 0.00355449 0)
(0.202005 0.00319772 0)
(0.202001 0.0031866 0)
(0.201988 0.0032866 0)
(0.201952 0.00336944 0)
(0.201893 0.00333772 0)
(0.201855 0.00321862 0)
(0.201842 0.00303906 0)
(0.201816 0.00299487 0)
(0.20178 0.00296818 0)
(0.201742 0.00297536 0)
(0.201734 0.00291096 0)
(0.20173 0.00287258 0)
(0.201695 0.00285935 0)
(0.20165 0.00274184 0)
(0.201622 0.00271756 0)
(0.201599 0.00273077 0)
(0.201579 0.0026855 0)
(0.201563 0.00271617 0)
(0.201505 0.00272964 0)
(0.20142 0.00261979 0)
(0.201362 0.00254935 0)
(0.201311 0.00250905 0)
(0.201253 0.00245667 0)
(0.20119 0.00244226 0)
(0.201128 0.00239947 0)
(0.201075 0.00236694 0)
(0.20104 0.00233049 0)
(0.201007 0.00232355 0)
(0.200957 0.00231392 0)
(0.200886 0.0022782 0)
(0.200799 0.00226331 0)
(0.200712 0.00220759 0)
(0.200645 0.00216778 0)
(0.200588 0.00217401 0)
(0.200516 0.0021647 0)
(0.200411 0.00216462 0)
(0.20028 0.00214902 0)
(0.200135 0.00208988 0)
(0.199995 0.0020187 0)
(0.199881 0.00199089 0)
(0.199789 0.00197639 0)
(0.199688 0.00197872 0)
(0.19956 0.00197396 0)
(0.199399 0.00196048 0)
(0.199219 0.00192024 0)
(0.199047 0.00187929 0)
(0.198903 0.00183864 0)
(0.19877 0.00183312 0)
(0.198623 0.0018218 0)
(0.198455 0.00181458 0)
(0.198273 0.00178897 0)
(0.198082 0.00178211 0)
(0.197883 0.00175014 0)
(0.197675 0.0017424 0)
(0.197465 0.0017041 0)
(0.197256 0.00170138 0)
(0.197044 0.00167319 0)
(0.196833 0.00167001 0)
(0.196601 0.00165231 0)
(0.196384 0.00165718 0)
(0.196092 0.00162857 0)
(0.195927 0.00164439 0)
(0.19546 0.00161104 0)
(0.197516 0.00534449 0)
(0.197494 0.00615141 0)
(0.19784 0.0068746 0)
(0.198465 0.00671142 0)
(0.198948 0.0072458 0)
(0.199408 0.00698755 0)
(0.199814 0.0063563 0)
(0.200249 0.00736812 0)
(0.200711 0.00817674 0)
(0.201107 0.00593494 0)
(0.201312 0.00666453 0)
(0.201632 0.00673548 0)
(0.201919 0.00606609 0)
(0.201987 0.00613965 0)
(0.202105 0.00563904 0)
(0.202095 0.00541612 0)
(0.202007 0.00531929 0)
(0.202129 0.00519911 0)
(0.202315 0.00500466 0)
(0.202309 0.00493419 0)
(0.202242 0.00492297 0)
(0.202191 0.00481274 0)
(0.202186 0.00467695 0)
(0.202237 0.00443047 0)
(0.202281 0.00430142 0)
(0.202239 0.00428581 0)
(0.202137 0.00434372 0)
(0.202088 0.00436552 0)
(0.202138 0.00420698 0)
(0.202228 0.00384465 0)
(0.202243 0.00372298 0)
(0.202202 0.00361945 0)
(0.202121 0.0036336 0)
(0.202027 0.00370298 0)
(0.202013 0.00375126 0)
(0.202008 0.00376474 0)
(0.201991 0.00345662 0)
(0.201979 0.00320142 0)
(0.201964 0.00327028 0)
(0.201948 0.00333798 0)
(0.201902 0.00348356 0)
(0.201852 0.00337295 0)
(0.201841 0.00312952 0)
(0.201842 0.00303109 0)
(0.201823 0.00300123 0)
(0.201784 0.00300353 0)
(0.201758 0.00296016 0)
(0.201756 0.00292235 0)
(0.201741 0.00289417 0)
(0.201699 0.00285162 0)
(0.201654 0.00275624 0)
(0.201634 0.00273262 0)
(0.201622 0.00272044 0)
(0.201624 0.00270523 0)
(0.201627 0.00273204 0)
(0.201581 0.00273759 0)
(0.201528 0.00264111 0)
(0.201506 0.00257857 0)
(0.201482 0.00252072 0)
(0.201455 0.00246932 0)
(0.201424 0.00245984 0)
(0.201389 0.00242862 0)
(0.201359 0.00237548 0)
(0.201342 0.00234133 0)
(0.201338 0.00233205 0)
(0.201324 0.00232194 0)
(0.201298 0.00230999 0)
(0.201261 0.00228419 0)
(0.201222 0.00222786 0)
(0.201201 0.00217607 0)
(0.201188 0.00218553 0)
(0.201164 0.00219189 0)
(0.201116 0.00218612 0)
(0.201053 0.00218967 0)
(0.200988 0.0021411 0)
(0.200926 0.00204799 0)
(0.200874 0.00200897 0)
(0.200834 0.00200163 0)
(0.20079 0.00201547 0)
(0.200729 0.00202192 0)
(0.200649 0.00201336 0)
(0.200553 0.00196868 0)
(0.200462 0.00191788 0)
(0.200401 0.00187191 0)
(0.200352 0.00186638 0)
(0.200291 0.00186128 0)
(0.200211 0.00185933 0)
(0.200121 0.00183917 0)
(0.200026 0.00183607 0)
(0.199926 0.00180621 0)
(0.199818 0.00179856 0)
(0.199707 0.00176207 0)
(0.199597 0.00175685 0)
(0.199485 0.00173224 0)
(0.199375 0.00172699 0)
(0.199255 0.00171427 0)
(0.199143 0.00172276 0)
(0.198981 0.00170158 0)
(0.19889 0.00171574 0)