/*--------------------------------*- C++ -*----------------------------------*\
| =========                 |                                                 |
| \\      /  F ield         | OpenFOAM: The Open Source CFD Toolbox           |
|  \\    /   O peration     | Version:  2.3.0                                 |
|   \\  /    A nd           | Web:      www.OpenFOAM.org                      |
|    \\/     M anipulation  |                                                 |
\*---------------------------------------------------------------------------*/
FoamFile
{
    version     2.0;
    format      ascii;
    class       volScalarField;
    location    "0.6";
    object      p;
}
// * * * * * * * * * * * * * * * * * * * * * * * * * * * * * * * * * * * * * //

dimensions      [0 2 -2 0 0 0 0];

internalField   nonuniform List<scalar> 
2250
(
0.00158078
0.0012994
0.00106935
0.000917248
0.000801877
0.000698042
0.000599853
0.000506935
0.00041865
0.000334063
0.000252626
0.000174248
9.91138e-05
2.75469e-05
-4.00524e-05
-0.000103245
-0.000161587
-0.000214666
-0.000262135
-0.000303731
-0.000339302
-0.000368814
-0.000392357
-0.000410142
-0.000422492
-0.000429821
-0.00043262
-0.00043143
-0.000426818
-0.000419356
-0.0004096
-0.000398074
-0.000385253
-0.000371564
-0.00035737
-0.000342977
-0.000328635
-0.000314536
-0.000300828
-0.000287614
-0.000274964
-0.000262917
-0.00025149
-0.000240682
-0.000230478
-0.000220858
-0.000211791
-0.000203246
-0.000195191
-0.000187593
-0.000180422
-0.000173647
-0.000167242
-0.000161184
-0.000155448
-0.000150016
-0.00014487
-0.000139993
-0.00013537
-0.000130989
-0.000126837
-0.000122903
-0.000119175
-0.000115644
-0.000112299
-0.00010913
-0.000106129
-0.000103284
-0.000100588
-9.80282e-05
-9.55964e-05
-9.32821e-05
-9.10747e-05
-8.89635e-05
-8.69372e-05
-8.49842e-05
-8.30925e-05
-8.12495e-05
-7.94418e-05
-7.76555e-05
-7.58759e-05
-7.40873e-05
-7.22731e-05
-7.04154e-05
-6.84952e-05
-6.64919e-05
-6.43834e-05
-6.21457e-05
-5.97525e-05
-5.7175e-05
-5.43816e-05
-5.13368e-05
-4.80009e-05
-4.43278e-05
-4.02638e-05
-3.57423e-05
-3.06772e-05
-2.49378e-05
-1.83328e-05
-1.15438e-05
0.00129006
0.00113799
0.000992554
0.000879232
0.000783155
0.000691451
0.000601443
0.000513885
0.000429101
0.000346881
0.000267099
0.000189899
0.000115602
4.46178e-05
-2.26022e-05
-8.55856e-05
-0.000143868
-0.000197022
-0.000244686
-0.000286588
-0.000322562
-0.000352563
-0.000376667
-0.000395073
-0.000408089
-0.000416118
-0.000419639
-0.00041918
-0.000415299
-0.000408559
-0.00039951
-0.000388667
-0.000376504
-0.00036344
-0.000349838
-0.000336003
-0.000322181
-0.000308566
-0.000295304
-0.000282502
-0.000270229
-0.000258526
-0.000247412
-0.000236889
-0.000226945
-0.00021756
-0.000208708
-0.000200359
-0.000192483
-0.000185048
-0.000178026
-0.000171389
-0.00016511
-0.000159167
-0.000153539
-0.000148206
-0.000143152
-0.00013836
-0.000133817
-0.00012951
-0.000125427
-0.000121557
-0.00011789
-0.000114416
-0.000111124
-0.000108006
-0.000105053
-0.000102253
-9.95994e-05
-9.70808e-05
-9.4688e-05
-9.24108e-05
-9.0239e-05
-8.81619e-05
-8.61684e-05
-8.4247e-05
-8.23859e-05
-8.05724e-05
-7.87934e-05
-7.7035e-05
-7.52824e-05
-7.35202e-05
-7.17318e-05
-6.98993e-05
-6.80039e-05
-6.60249e-05
-6.39402e-05
-6.17259e-05
-5.93558e-05
-5.68011e-05
-5.40301e-05
-5.10074e-05
-4.76933e-05
-4.40416e-05
-3.99985e-05
-3.54972e-05
-3.04511e-05
-2.47186e-05
-1.80158e-05
-1.22228e-05
0.00114021
0.00105252
0.000945279
0.000844421
0.000752253
0.000664288
0.000578651
0.000495557
0.00041524
0.000337558
0.000262351
0.00018965
0.000119657
5.26784e-05
-1.09181e-05
-7.07287e-05
-0.00012634
-0.000177359
-0.000223436
-0.000264297
-0.000299753
-0.000329722
-0.00035423
-0.000373413
-0.000387511
-0.000396854
-0.000401848
-0.000402955
-0.000400671
-0.000395506
-0.000387964
-0.000378531
-0.000367656
-0.000355745
-0.000343156
-0.000330196
-0.000317117
-0.000304125
-0.00029138
-0.000279
-0.000267071
-0.000255647
-0.000244758
-0.000234418
-0.000224622
-0.000215359
-0.000206609
-0.000198348
-0.000190549
-0.000183185
-0.000176229
-0.000169654
-0.000163436
-0.000157553
-0.000151983
-0.000146708
-0.000141711
-0.000136976
-0.000132488
-0.000128236
-0.000124207
-0.000120389
-0.000116773
-0.000113348
-0.000110105
-0.000107033
-0.000104124
-0.000101368
-9.87549e-05
-9.62761e-05
-9.39214e-05
-9.16808e-05
-8.9544e-05
-8.75005e-05
-8.55392e-05
-8.36488e-05
-8.18173e-05
-8.00322e-05
-7.82805e-05
-7.65483e-05
-7.48211e-05
-7.30833e-05
-7.13185e-05
-6.95088e-05
-6.76354e-05
-6.56779e-05
-6.36142e-05
-6.14203e-05
-5.90702e-05
-5.65351e-05
-5.37837e-05
-5.07805e-05
-4.74863e-05
-4.38554e-05
-3.98353e-05
-3.5362e-05
-3.03557e-05
-2.47021e-05
-1.83741e-05
-1.46194e-05
0.000993228
0.000934352
0.000855037
0.00077311
0.000694432
0.000618164
0.000543133
0.000469334
0.000397089
0.000326548
0.000257786
0.000190956
0.000126317
6.41999e-05
4.97643e-06
-5.09618e-05
-0.000103223
-0.000151434
-0.000195266
-0.000234448
-0.000268789
-0.000298185
-0.000322628
-0.000342206
-0.000357099
-0.000367574
-0.000373965
-0.000376665
-0.000376102
-0.000372724
-0.000366983
-0.000359317
-0.000350141
-0.000339836
-0.000328741
-0.000317153
-0.00030532
-0.00029345
-0.000281707
-0.000270216
-0.000259072
-0.000248339
-0.000238059
-0.000228253
-0.000218928
-0.00021008
-0.000201698
-0.000193765
-0.000186259
-0.000179159
-0.000172441
-0.000166082
-0.000160062
-0.00015436
-0.000148957
-0.000143836
-0.000138982
-0.000134379
-0.000130015
-0.000125877
-0.000121955
-0.000118238
-0.000114716
-0.000111379
-0.000108218
-0.000105224
-0.000102389
-9.97016e-05
-9.71543e-05
-9.47374e-05
-9.24415e-05
-9.02569e-05
-8.81734e-05
-8.61808e-05
-8.42683e-05
-8.24247e-05
-8.06382e-05
-7.88965e-05
-7.71868e-05
-7.54954e-05
-7.38077e-05
-7.21084e-05
-7.03812e-05
-6.86084e-05
-6.67713e-05
-6.48495e-05
-6.28212e-05
-6.06626e-05
-5.83477e-05
-5.58483e-05
-5.31331e-05
-5.01675e-05
-4.69132e-05
-4.33266e-05
-3.93593e-05
-3.4957e-05
-3.00671e-05
-2.46753e-05
-1.92137e-05
-1.80774e-05
0.00086753
0.000827176
0.000770897
0.000707831
0.000642898
0.00057734
0.000511333
0.000445309
0.000379847
0.000315391
0.000252249
0.000190701
0.000131052
7.36379e-05
1.88063e-05
-3.30905e-05
-8.17082e-05
-0.000126723
-0.000167848
-0.000204847
-0.000237544
-0.000265841
-0.000289714
-0.000309222
-0.000324502
-0.000335764
-0.000343281
-0.000347375
-0.000348405
-0.000346753
-0.000342808
-0.000336955
-0.000329562
-0.000320973
-0.0003115
-0.00030142
-0.000290971
-0.000280355
-0.000269737
-0.000259248
-0.00024899
-0.000239037
-0.000229442
-0.000220238
-0.000211442
-0.000203062
-0.000195094
-0.00018753
-0.000180357
-0.000173557
-0.000167114
-0.000161008
-0.000155222
-0.000149738
-0.00014454
-0.000139611
-0.000134938
-0.000130508
-0.000126307
-0.000122324
-0.000118549
-0.000114971
-0.000111582
-0.00010837
-0.000105329
-0.000102448
-9.97192e-05
-9.71336e-05
-9.46825e-05
-9.23567e-05
-9.01473e-05
-8.80446e-05
-8.60391e-05
-8.41205e-05
-8.22785e-05
-8.05021e-05
-7.87799e-05
-7.70998e-05
-7.54491e-05
-7.38145e-05
-7.21816e-05
-7.05354e-05
-6.88598e-05
-6.71372e-05
-6.53494e-05
-6.34761e-05
-6.14958e-05
-5.9385e-05
-5.71182e-05
-5.46677e-05
-5.20031e-05
-4.90911e-05
-4.58956e-05
-4.23774e-05
-3.84966e-05
-3.42196e-05
-2.95471e-05
-2.46249e-05
-2.03375e-05
-2.14638e-05
0.000758126
0.000728662
0.000687339
0.000638267
0.000584831
0.000528996
0.000471754
0.000413809
0.000355798
0.00029824
0.00024154
0.000186037
0.000132061
7.99432e-05
3.0015e-05
-1.73967e-05
-6.19781e-05
-0.000103437
-0.000141515
-0.000175995
-0.000206715
-0.000233572
-0.000256533
-0.000275627
-0.000290953
-0.000302673
-0.000311001
-0.000316199
-0.000318563
-0.000318412
-0.000316076
-0.000311888
-0.000306169
-0.000299224
-0.000291336
-0.000282758
-0.000273713
-0.000264395
-0.000254965
-0.000245556
-0.000236272
-0.000227195
-0.000218384
-0.000209882
-0.000201716
-0.000193901
-0.000186442
-0.000179337
-0.000172581
-0.000166162
-0.000160068
-0.000154285
-0.000148799
-0.000143593
-0.000138656
-0.000133972
-0.000129529
-0.000125315
-0.000121318
-0.000117529
-0.000113937
-0.000110532
-0.000107306
-0.000104249
-0.000101354
-9.86119e-05
-9.60142e-05
-9.35529e-05
-9.12193e-05
-8.9005e-05
-8.69013e-05
-8.48989e-05
-8.29887e-05
-8.11609e-05
-7.94054e-05
-7.77116e-05
-7.60684e-05
-7.44642e-05
-7.28865e-05
-7.13223e-05
-6.97577e-05
-6.81778e-05
-6.65668e-05
-6.49078e-05
-6.31825e-05
-6.13712e-05
-5.94528e-05
-5.74043e-05
-5.5201e-05
-5.2816e-05
-5.02204e-05
-4.7383e-05
-4.42715e-05
-4.08537e-05
-3.71037e-05
-3.30179e-05
-2.86661e-05
-2.435e-05
-2.1188e-05
-2.34089e-05
0.000660779
0.000638001
0.000606679
0.000568434
0.000525231
0.000478792
0.000430272
0.00038046
0.000329995
0.000279425
0.000229212
0.000179757
0.000131423
8.45537e-05
3.94809e-05
-3.48132e-06
-4.40382e-05
-8.19204e-05
-0.00011689
-0.00014875
-0.000177348
-0.000202583
-0.000224411
-0.000242843
-0.000257947
-0.000269844
-0.000278702
-0.000284731
-0.000288171
-0.000289285
-0.000288351
-0.00028565
-0.00028146
-0.000276046
-0.000269659
-0.000262528
-0.000254857
-0.000246827
-0.000238592
-0.000230282
-0.000222001
-0.000213835
-0.000205849
-0.000198091
-0.000190596
-0.000183386
-0.000176475
-0.000169867
-0.000163562
-0.000157556
-0.000151842
-0.000146409
-0.000141247
-0.000136344
-0.00013169
-0.000127271
-0.000123079
-0.000119101
-0.000115328
-0.00011175
-0.000108358
-0.000105143
-0.000102097
-9.92109e-05
-9.64775e-05
-9.38886e-05
-9.14363e-05
-8.91127e-05
-8.69098e-05
-8.48194e-05
-8.28331e-05
-8.09423e-05
-7.91381e-05
-7.74112e-05
-7.57518e-05
-7.41497e-05
-7.25943e-05
-7.10743e-05
-6.95777e-05
-6.80917e-05
-6.6603e-05
-6.5097e-05
-6.35583e-05
-6.19704e-05
-6.03155e-05
-5.85745e-05
-5.67268e-05
-5.47501e-05
-5.26208e-05
-5.03132e-05
-4.78005e-05
-4.50546e-05
-4.20485e-05
-3.87592e-05
-3.51781e-05
-3.13348e-05
-2.736e-05
-2.36408e-05
-2.12306e-05
-2.31584e-05
0.000572385
0.000554187
0.000529909
0.000499952
0.000465283
0.000427142
0.000386568
0.000344331
0.000301053
0.000257275
0.000213472
0.000170062
0.000127418
8.58834e-05
4.57763e-05
7.39361e-06
-2.89914e-05
-6.3132e-05
-9.48115e-05
-0.000123848
-0.000150101
-0.000173469
-0.000193903
-0.000211396
-0.00022599
-0.000237771
-0.000246868
-0.000253442
-0.000257686
-0.000259811
-0.000260047
-0.000258628
-0.000255788
-0.000251756
-0.00024675
-0.000240972
-0.000234608
-0.000227822
-0.000220757
-0.000213538
-0.000206269
-0.000199034
-0.000191901
-0.000184923
-0.000178139
-0.000171578
-0.00016526
-0.000159194
-0.000153387
-0.00014784
-0.000142548
-0.000137508
-0.00013271
-0.000128148
-0.000123813
-0.000119694
-0.000115783
-0.000112071
-0.000108549
-0.000105208
-0.00010204
-9.90369e-05
-9.61912e-05
-9.3495e-05
-9.09411e-05
-8.85218e-05
-8.62299e-05
-8.4058e-05
-8.19984e-05
-8.00435e-05
-7.81854e-05
-7.64159e-05
-7.47266e-05
-7.31086e-05
-7.15526e-05
-7.00489e-05
-6.85873e-05
-6.71569e-05
-6.57463e-05
-6.43432e-05
-6.29344e-05
-6.15062e-05
-6.00435e-05
-5.85303e-05
-5.69494e-05
-5.52823e-05
-5.35092e-05
-5.16088e-05
-4.95586e-05
-4.73347e-05
-4.49129e-05
-4.22689e-05
-3.9382e-05
-3.62396e-05
-3.285e-05
-2.92689e-05
-2.56571e-05
-2.2387e-05
-2.02207e-05
-2.08368e-05
0.000491002
0.000476206
0.000457105
0.000433523
0.000405844
0.000374892
0.00034149
0.000306301
0.000269877
0.000232703
0.000195222
0.00015783
0.000120884
8.47124e-05
4.96147e-05
1.58684e-05
-1.62739e-05
-4.65847e-05
-7.4865e-05
-0.000100947
-0.000124696
-0.000146015
-0.000164846
-0.000181169
-0.000195004
-0.00020641
-0.000215478
-0.00022233
-0.000227117
-0.000230005
-0.00023118
-0.000230833
-0.000229159
-0.00022635
-0.000222593
-0.000218064
-0.000212926
-0.000207326
-0.000201397
-0.000195253
-0.000188992
-0.000182698
-0.000176439
-0.00017027
-0.000164232
-0.000158359
-0.000152674
-0.000147192
-0.000141924
-0.000136875
-0.000132046
-0.000127435
-0.000123039
-0.000118851
-0.000114866
-0.000111077
-0.000107476
-0.000104056
-0.000100809
-9.77286e-05
-9.48063e-05
-9.20356e-05
-8.94094e-05
-8.69207e-05
-8.45628e-05
-8.23289e-05
-8.0212e-05
-7.82053e-05
-7.63018e-05
-7.44943e-05
-7.27753e-05
-7.11373e-05
-6.95723e-05
-6.80719e-05
-6.66273e-05
-6.52294e-05
-6.38684e-05
-6.2534e-05
-6.12152e-05
-5.99003e-05
-5.85768e-05
-5.72312e-05
-5.58493e-05
-5.44157e-05
-5.29138e-05
-5.13259e-05
-4.96332e-05
-4.78154e-05
-4.58517e-05
-4.37202e-05
-4.13994e-05
-3.88698e-05
-3.61167e-05
-3.3137e-05
-2.99505e-05
-2.66218e-05
-2.32962e-05
-2.02379e-05
-1.78331e-05
-1.67584e-05
0.000415142
0.00040305
0.000387931
0.00036936
0.000347406
0.000322594
0.000295528
0.000266728
0.000236644
0.000205688
0.000174245
0.000142669
0.000111285
8.03921e-05
5.02646e-05
2.11544e-05
-6.70904e-06
-3.312e-05
-5.7898e-05
-8.08891e-05
-0.000101969
-0.000121043
-0.00013805
-0.000152961
-0.000165777
-0.000176533
-0.000185293
-0.000192145
-0.000197201
-0.000200592
-0.00020246
-0.000202961
-0.000202251
-0.00020049
-0.000197834
-0.000194431
-0.000190422
-0.000185936
-0.000181092
-0.000175992
-0.000170728
-0.000165377
-0.000160007
-0.00015467
-0.000149411
-0.000144264
-0.000139254
-0.000134403
-0.000129721
-0.000125219
-0.000120901
-0.000116768
-0.000112819
-0.000109052
-0.000105462
-0.000102046
-9.87962e-05
-9.5708e-05
-9.27752e-05
-8.99914e-05
-8.73506e-05
-8.48464e-05
-8.24729e-05
-8.02237e-05
-7.80928e-05
-7.60741e-05
-7.41613e-05
-7.23482e-05
-7.06281e-05
-6.89947e-05
-6.74409e-05
-6.59595e-05
-6.45433e-05
-6.31841e-05
-6.18739e-05
-6.06038e-05
-5.93645e-05
-5.8146e-05
-5.69378e-05
-5.57285e-05
-5.45058e-05
-5.32567e-05
-5.1967e-05
-5.06216e-05
-4.92042e-05
-4.76973e-05
-4.60822e-05
-4.43394e-05
-4.24483e-05
-4.03884e-05
-3.814e-05
-3.56862e-05
-3.30166e-05
-3.01326e-05
-2.70559e-05
-2.3839e-05
-2.05725e-05
-1.73677e-05
-1.42937e-05
-1.16625e-05
0.000359107
0.000348833
0.000336242
0.00032087
0.000302672
0.000282015
0.000259353
0.000235098
0.000209618
0.000183258
0.000156349
0.000129204
0.000102111
7.5338e-05
4.91322e-05
2.37205e-05
-6.90094e-07
-2.39141e-05
-4.5788e-05
-6.61723e-05
-8.49521e-05
-0.000102039
-0.000117373
-0.000130919
-0.000142671
-0.000152651
-0.000160902
-0.000167492
-0.00017251
-0.000176058
-0.000178254
-0.000179223
-0.000179096
-0.000178007
-0.000176089
-0.000173467
-0.000170266
-0.000166597
-0.000162565
-0.000158264
-0.000153776
-0.000149173
-0.000144518
-0.000139861
-0.000135245
-0.000130705
-0.000126267
-0.000121953
-0.000117776
-0.000113748
-0.000109874
-0.000106159
-0.000102603
-9.92056e-05
-9.59645e-05
-9.28762e-05
-8.99367e-05
-8.71414e-05
-8.44851e-05
-8.19629e-05
-7.95693e-05
-7.7299e-05
-7.51466e-05
-7.31067e-05
-7.11737e-05
-6.93421e-05
-6.76063e-05
-6.59606e-05
-6.43991e-05
-6.29158e-05
-6.15044e-05
-6.01584e-05
-5.88709e-05
-5.76347e-05
-5.64422e-05
-5.52853e-05
-5.41554e-05
-5.30434e-05
-5.19393e-05
-5.08327e-05
-4.97123e-05
-4.85658e-05
-4.73801e-05
-4.6141e-05
-4.48335e-05
-4.34413e-05
-4.1947e-05
-4.03325e-05
-3.8579e-05
-3.66675e-05
-3.45803e-05
-3.23019e-05
-2.98228e-05
-2.71425e-05
-2.4275e-05
-2.12523e-05
-1.81203e-05
-1.49132e-05
-1.16133e-05
-8.5202e-06
0.000316727
0.000307753
0.00029691
0.000283743
0.000268167
0.000250453
0.00023096
0.000210024
0.00018795
0.000165035
0.000141567
0.000117821
9.40548e-05
7.05083e-05
4.74045e-05
2.49482e-05
3.32605e-06
-1.72944e-05
-3.67657e-05
-5.49616e-05
-7.17778e-05
-8.71333e-05
-0.000100971
-0.000113256
-0.00012398
-0.000133155
-0.000140816
-0.000147015
-0.000151825
-0.000155331
-0.00015763
-0.000158829
-0.000159037
-0.00015837
-0.00015694
-0.000154858
-0.000152231
-0.000149159
-0.000145733
-0.000142037
-0.000138147
-0.000134128
-0.000130037
-0.000125922
-0.000121825
-0.000117777
-0.000113806
-0.000109933
-0.000106171
-0.000102534
-9.90285e-05
-9.56592e-05
-9.24285e-05
-8.93367e-05
-8.63826e-05
-8.35641e-05
-8.08781e-05
-7.83208e-05
-7.58881e-05
-7.35756e-05
-7.13787e-05
-6.92926e-05
-6.73124e-05
-6.54334e-05
-6.36505e-05
-6.19587e-05
-6.03529e-05
-5.88279e-05
-5.73784e-05
-5.5999e-05
-5.46839e-05
-5.34274e-05
-5.22232e-05
-5.1065e-05
-4.99461e-05
-4.88592e-05
-4.7797e-05
-4.67513e-05
-4.57137e-05
-4.46752e-05
-4.36261e-05
-4.25561e-05
-4.14541e-05
-4.03086e-05
-3.9107e-05
-3.78362e-05
-3.64823e-05
-3.50311e-05
-3.3468e-05
-3.17785e-05
-2.9949e-05
-2.79676e-05
-2.58251e-05
-2.35162e-05
-2.10399e-05
-1.83965e-05
-1.55802e-05
-1.25635e-05
-9.28982e-06
-5.82758e-06
0.00027323
0.000265504
0.00025628
0.000245157
0.000232033
0.000217105
0.000200653
0.000182941
0.000164217
0.000144728
0.000124714
0.00010441
8.40372e-05
6.3805e-05
4.3907e-05
2.45224e-05
5.81443e-06
-1.207e-05
-2.90016e-05
-4.4869e-05
-5.958e-05
-7.3062e-05
-8.52623e-05
-9.61487e-05
-0.000105708
-0.000113948
-0.000120893
-0.000126583
-0.000131076
-0.000134439
-0.000136752
-0.0001381
-0.000138576
-0.000138275
-0.00013729
-0.000135717
-0.000133645
-0.00013116
-0.000128342
-0.000125264
-0.000121992
-0.000118584
-0.000115093
-0.000111561
-0.000108026
-0.000104519
-0.000101066
-9.76862e-05
-9.43952e-05
-9.12046e-05
-8.81227e-05
-8.51552e-05
-8.23051e-05
-7.95739e-05
-7.69614e-05
-7.44664e-05
-7.20868e-05
-6.98197e-05
-6.7662e-05
-6.561e-05
-6.36599e-05
-6.18076e-05
-6.0049e-05
-5.83799e-05
-5.67959e-05
-5.52926e-05
-5.38656e-05
-5.25103e-05
-5.12221e-05
-4.9996e-05
-4.88272e-05
-4.77105e-05
-4.66405e-05
-4.56116e-05
-4.46178e-05
-4.36529e-05
-4.27103e-05
-4.17831e-05
-4.08637e-05
-3.99443e-05
-3.90165e-05
-3.80713e-05
-3.70992e-05
-3.60899e-05
-3.50329e-05
-3.39167e-05
-3.27294e-05
-3.14589e-05
-3.00926e-05
-2.86179e-05
-2.70224e-05
-2.52942e-05
-2.3422e-05
-2.13946e-05
-1.91992e-05
-1.68179e-05
-1.42215e-05
-1.13594e-05
-8.1466e-06
-4.45553e-06
0.00022842
0.00022197
0.000214353
0.000205231
0.000194501
0.000182303
0.000168846
0.000154332
0.000138955
0.000122909
0.00010639
8.95883e-05
7.2689e-05
5.58661e-05
3.92825e-05
2.30895e-05
7.42551e-06
-7.58493e-06
-2.18315e-05
-3.52193e-05
-4.76688e-05
-5.9117e-05
-6.95173e-05
-7.88395e-05
-8.70699e-05
-9.42104e-05
-0.000100278
-0.000105302
-0.000109327
-0.000112404
-0.000114596
-0.000115972
-0.000116605
-0.00011657
-0.000115946
-0.000114809
-0.000113233
-0.000111289
-0.000109045
-0.000106561
-0.000103895
-0.000101096
-9.8208e-05
-9.52708e-05
-9.23169e-05
-8.93739e-05
-8.6465e-05
-8.36085e-05
-8.08191e-05
-7.81081e-05
-7.54837e-05
-7.29517e-05
-7.0516e-05
-6.81784e-05
-6.59397e-05
-6.37995e-05
-6.17563e-05
-5.98083e-05
-5.7953e-05
-5.61876e-05
-5.4509e-05
-5.29138e-05
-5.13987e-05
-4.99601e-05
-4.85944e-05
-4.72977e-05
-4.60665e-05
-4.48966e-05
-4.37842e-05
-4.27252e-05
-4.17152e-05
-4.075e-05
-3.98248e-05
-3.8935e-05
-3.80755e-05
-3.7241e-05
-3.64259e-05
-3.56243e-05
-3.48299e-05
-3.40362e-05
-3.32359e-05
-3.24217e-05
-3.15854e-05
-3.07188e-05
-2.98128e-05
-2.8858e-05
-2.78447e-05
-2.67626e-05
-2.56011e-05
-2.43496e-05
-2.29971e-05
-2.15323e-05
-1.99433e-05
-1.82168e-05
-1.63363e-05
-1.42788e-05
-1.20104e-05
-9.47697e-06
-6.5912e-06
-3.2248e-06
0.000182039
0.000176897
0.000170877
0.000163714
0.000155317
0.00014578
0.000135256
0.000123891
0.000111831
9.92219e-05
8.62141e-05
7.29567e-05
5.95944e-05
4.62648e-05
3.30982e-05
2.02154e-05
7.72746e-06
-4.26511e-06
-1.56733e-05
-2.64202e-05
-3.64409e-05
-4.56837e-05
-5.41095e-05
-6.16922e-05
-6.84187e-05
-7.42878e-05
-7.931e-05
-8.35068e-05
-8.6909e-05
-8.95561e-05
-9.14942e-05
-9.27753e-05
-9.34554e-05
-9.3593e-05
-9.32477e-05
-9.24792e-05
-9.13457e-05
-8.99035e-05
-8.82056e-05
-8.63014e-05
-8.4236e-05
-8.20506e-05
-7.97813e-05
-7.74602e-05
-7.51148e-05
-7.27686e-05
-7.0441e-05
-6.81482e-05
-6.59031e-05
-6.37156e-05
-6.15935e-05
-5.95422e-05
-5.75657e-05
-5.56661e-05
-5.38445e-05
-5.21012e-05
-5.04354e-05
-4.88459e-05
-4.73309e-05
-4.58885e-05
-4.45161e-05
-4.32113e-05
-4.19714e-05
-4.07936e-05
-3.96749e-05
-3.86124e-05
-3.7603e-05
-3.66435e-05
-3.57307e-05
-3.48613e-05
-3.40319e-05
-3.32388e-05
-3.24785e-05
-3.17469e-05
-3.10401e-05
-3.03537e-05
-2.96833e-05
-2.90242e-05
-2.83713e-05
-2.77192e-05
-2.70624e-05
-2.63948e-05
-2.57102e-05
-2.50017e-05
-2.42623e-05
-2.34845e-05
-2.26607e-05
-2.17826e-05
-2.08419e-05
-1.98298e-05
-1.87372e-05
-1.75543e-05
-1.62704e-05
-1.48728e-05
-1.33454e-05
-1.16662e-05
-9.80289e-06
-7.70666e-06
-5.30398e-06
-2.48707e-06
0.000133734
0.000129955
0.000125557
0.000120354
0.000114274
0.000107378
9.97678e-05
9.15453e-05
8.28092e-05
7.36625e-05
6.42114e-05
5.45626e-05
4.48204e-05
3.50851e-05
2.54517e-05
1.60092e-05
6.83949e-06
-1.98321e-06
-1.03928e-05
-1.83318e-05
-2.57519e-05
-3.26137e-05
-3.88876e-05
-4.45529e-05
-4.95983e-05
-5.40216e-05
-5.78285e-05
-6.1033e-05
-6.36557e-05
-6.57236e-05
-6.7269e-05
-6.8328e-05
-6.89401e-05
-6.9147e-05
-6.89912e-05
-6.85156e-05
-6.77623e-05
-6.67723e-05
-6.55843e-05
-6.42346e-05
-6.27569e-05
-6.11816e-05
-5.95361e-05
-5.78445e-05
-5.6128e-05
-5.44044e-05
-5.26891e-05
-5.09946e-05
-4.93312e-05
-4.7707e-05
-4.61283e-05
-4.45998e-05
-4.31247e-05
-4.17053e-05
-4.03427e-05
-3.90374e-05
-3.77891e-05
-3.65971e-05
-3.54604e-05
-3.43775e-05
-3.33467e-05
-3.23663e-05
-3.14343e-05
-3.05486e-05
-2.97072e-05
-2.89078e-05
-2.81481e-05
-2.74257e-05
-2.67384e-05
-2.60835e-05
-2.54586e-05
-2.4861e-05
-2.42879e-05
-2.37364e-05
-2.32036e-05
-2.26863e-05
-2.2181e-05
-2.16844e-05
-2.11927e-05
-2.0702e-05
-2.02081e-05
-1.97065e-05
-1.91928e-05
-1.86619e-05
-1.81087e-05
-1.75277e-05
-1.69132e-05
-1.62593e-05
-1.55597e-05
-1.4808e-05
-1.3997e-05
-1.31193e-05
-1.2166e-05
-1.11268e-05
-9.98798e-06
-8.73119e-06
-7.33003e-06
-5.74625e-06
-3.92602e-06
-1.79261e-06
8.2706e-05
8.03633e-05
7.76487e-05
7.44515e-05
7.07279e-05
6.65119e-05
6.18621e-05
5.68373e-05
5.14956e-05
4.58983e-05
4.01089e-05
3.41917e-05
2.82103e-05
2.22257e-05
1.62964e-05
1.04771e-05
4.81833e-06
-6.33891e-07
-5.83856e-06
-1.07599e-05
-1.53678e-05
-1.96374e-05
-2.355e-05
-2.70923e-05
-3.02566e-05
-3.30408e-05
-3.54477e-05
-3.74848e-05
-3.91643e-05
-4.05016e-05
-4.15159e-05
-4.22287e-05
-4.26634e-05
-4.28451e-05
-4.27994e-05
-4.25523e-05
-4.21294e-05
-4.15557e-05
-4.0855e-05
-4.00497e-05
-3.91606e-05
-3.82067e-05
-3.72052e-05
-3.61713e-05
-3.51183e-05
-3.40577e-05
-3.29993e-05
-3.19512e-05
-3.09202e-05
-2.99116e-05
-2.89296e-05
-2.79774e-05
-2.70574e-05
-2.6171e-05
-2.53193e-05
-2.45027e-05
-2.37211e-05
-2.29743e-05
-2.22616e-05
-2.15823e-05
-2.09354e-05
-2.03198e-05
-1.97344e-05
-1.91779e-05
-1.86489e-05
-1.81462e-05
-1.76683e-05
-1.72137e-05
-1.6781e-05
-1.63687e-05
-1.5975e-05
-1.55984e-05
-1.52372e-05
-1.48895e-05
-1.45535e-05
-1.42273e-05
-1.39086e-05
-1.35954e-05
-1.32854e-05
-1.29761e-05
-1.2665e-05
-1.23493e-05
-1.20261e-05
-1.16925e-05
-1.13452e-05
-1.09809e-05
-1.05961e-05
-1.01871e-05
-9.74989e-06
-9.2805e-06
-8.77443e-06
-8.22672e-06
-7.63163e-06
-6.98206e-06
-6.26887e-06
-5.47963e-06
-4.59696e-06
-3.59643e-06
-2.44481e-06
-1.09588e-06
2.83717e-05
2.75621e-05
2.66145e-05
2.55021e-05
2.42129e-05
2.27576e-05
2.11553e-05
1.94255e-05
1.75881e-05
1.56636e-05
1.36738e-05
1.16407e-05
9.58595e-06
7.53056e-06
5.49455e-06
3.49672e-06
1.55441e-06
-3.166e-07
-2.10229e-06
-3.79044e-06
-5.37075e-06
-6.83487e-06
-8.17638e-06
-9.39084e-06
-1.04757e-05
-1.14303e-05
-1.22556e-05
-1.29543e-05
-1.35305e-05
-1.39896e-05
-1.4338e-05
-1.45831e-05
-1.47329e-05
-1.47959e-05
-1.47809e-05
-1.46966e-05
-1.45519e-05
-1.43553e-05
-1.41148e-05
-1.38382e-05
-1.35325e-05
-1.32043e-05
-1.28595e-05
-1.25033e-05
-1.21403e-05
-1.17745e-05
-1.14093e-05
-1.10474e-05
-1.06913e-05
-1.03427e-05
-1.00033e-05
-9.67402e-06
-9.35579e-06
-9.04914e-06
-8.75442e-06
-8.47179e-06
-8.20126e-06
-7.94273e-06
-7.696e-06
-7.46082e-06
-7.23685e-06
-7.02371e-06
-6.82101e-06
-6.6283e-06
-6.44514e-06
-6.27106e-06
-6.10556e-06
-5.94815e-06
-5.79829e-06
-5.65547e-06
-5.51913e-06
-5.38869e-06
-5.26355e-06
-5.14311e-06
-5.02672e-06
-4.91368e-06
-4.8033e-06
-4.69482e-06
-4.58745e-06
-4.48035e-06
-4.37264e-06
-4.2634e-06
-4.15163e-06
-4.0363e-06
-3.91631e-06
-3.79053e-06
-3.65775e-06
-3.5167e-06
-3.36604e-06
-3.20434e-06
-3.03006e-06
-2.84144e-06
-2.63642e-06
-2.41245e-06
-2.16621e-06
-1.89322e-06
-1.58716e-06
-1.23911e-06
-8.36326e-07
-3.59702e-07
0.000126303
0.000129152
0.000135475
0.000144837
0.000156878
0.000171517
0.000188802
0.000208815
0.00023166
0.000257476
0.000286446
0.000318809
0.000354868
0.000395012
0.000439744
0.000489729
0.00054586
0.000609376
0.000682046
0.000766511
0.000866933
0.000990339
0.00114973
0.00137361
0.00172235
0.000125589
0.000128268
0.000134398
0.000143556
0.000155376
0.000169766
0.000186769
0.00020646
0.000228936
0.000254324
0.000282794
0.000314567
0.000349921
0.000389209
0.000432884
0.00048153
0.000535919
0.000597086
0.00066644
0.000745939
0.000838304
0.00094716
0.00107633
0.00122458
0.00136184
0.000124377
0.000126965
0.000132954
0.000141947
0.000153572
0.000167733
0.000184467
0.000203844
0.00022595
0.000250902
0.000278855
0.000310006
0.000344603
0.000382954
0.000425443
0.000472555
0.0005249
0.000583247
0.000648555
0.000721958
0.000804624
0.000897154
0.000997677
0.00109667
0.00116629
0.000122555
0.000125055
0.000130868
0.000139631
0.000150978
0.000164808
0.000181151
0.000200067
0.000221632
0.000245945
0.000273139
0.000303381
0.000336873
0.00037386
0.000414637
0.000459551
0.000509008
0.000563452
0.000623322
0.000688913
0.000760033
0.000835236
0.000910241
0.000975225
0.00101195
0.000120006
0.000122413
0.000128025
0.000136512
0.00014752
0.000160943
0.000176802
0.000195146
0.000216036
0.000239553
0.000265798
0.000294902
0.000327012
0.0003623
0.000400952
0.000443162
0.00048911
0.000538912
0.000592524
0.000649553
0.000708902
0.000768171
0.000822758
0.000864917
0.000883769
0.000116601
0.000118907
0.000124288
0.000132444
0.000143037
0.000155955
0.000171209
0.000188836
0.000208879
0.000231393
0.000256451
0.000284134
0.000314532
0.000347731
0.000383803
0.000422784
0.000464636
0.000509185
0.000556008
0.000604262
0.000652418
0.000697918
0.000736826
0.000763754
0.000772582
0.000112196
0.000114386
0.0001195
0.000127262
0.000137351
0.000149654
0.00016417
0.000180921
0.000199932
0.000221232
0.000244855
0.000270837
0.000299201
0.00032995
0.000363044
0.000398375
0.000435724
0.000474694
0.000514624
0.000554459
0.000592605
0.000626787
0.000654015
0.000670802
0.00067382
0.000106631
0.000108688
0.000113492
0.000120788
0.000130275
0.000141839
0.000155469
0.000171171
0.000188949
0.000208805
0.000230735
0.000254728
0.000280745
0.000308711
0.000338488
0.000369854
0.000402456
0.000435768
0.000469021
0.000501142
0.000530689
0.000555848
0.00057451
0.000584527
0.000584145
9.9737e-05
0.000101639
0.000106081
0.000112832
0.000121609
0.0001323
0.000144883
0.00015935
0.000175684
0.000193859
0.00021384
0.000235569
0.000258956
0.00028386
0.000310072
0.00033729
0.00036509
0.000392896
0.000419943
0.00044526
0.000467662
0.000485803
0.000498275
0.000503805
0.00050151
9.13391e-05
9.30579e-05
9.70802e-05
0.000103195
0.000111142
0.000120813
0.000132178
0.000145214
0.000159885
0.000176145
0.000193927
0.000213141
0.000233655
0.000255285
0.000277777
0.000300794
0.000323895
0.000346518
0.00036798
0.000387471
0.000404087
0.000416882
0.000424959
0.000427597
0.000424375
8.34734e-05
8.50306e-05
8.86783e-05
9.42209e-05
0.000101421
0.000110175
0.000120448
0.000132208
0.000145411
0.000159996
0.000175882
0.00019296
0.000211081
0.000230045
0.000249588
0.000269374
0.000288981
0.000307898
0.000325527
0.0003412
0.000354204
0.00036384
0.000369487
0.000370693
0.000367261
7.67531e-05
7.81792e-05
8.15152e-05
8.65807e-05
9.31569e-05
0.000101146
0.000110511
0.000121215
0.000133207
0.000146419
0.000160764
0.000176122
0.000192338
0.000209207
0.000226469
0.000243797
0.000260797
0.000277006
0.000291901
0.000304917
0.000315479
0.000323047
0.00032717
0.000327542
0.000324061
6.89323e-05
7.02085e-05
7.31881e-05
7.77094e-05
8.35757e-05
9.06966e-05
9.90333e-05
0.000108547
0.000119182
0.000130868
0.000143512
0.000156993
0.000171156
0.000185801
0.000200679
0.000215487
0.00022987
0.000243424
0.000255705
0.000266254
0.00027462
0.000280399
0.000283273
0.000283047
0.000279679
5.98605e-05
6.09649e-05
6.35387e-05
6.74414e-05
7.25018e-05
7.86388e-05
8.58144e-05
9.39887e-05
0.000103107
0.000113099
0.000123872
0.000135312
0.000147269
0.000159559
0.000171956
0.000184193
0.000195963
0.000206928
0.00021673
0.000225007
0.000231421
0.000235682
0.000237573
0.00023698
0.000233899
4.93834e-05
5.02922e-05
5.24055e-05
5.56072e-05
5.97557e-05
6.4782e-05
7.06515e-05
7.73269e-05
8.47573e-05
9.28773e-05
0.000101604
0.000110833
0.000120434
0.000130246
0.000140077
0.000149705
0.000158883
0.000167342
0.000174808
0.000181012
0.000185711
0.000188707
0.000189861
0.000189109
0.000186471
3.73536e-05
3.80404e-05
3.9633e-05
4.20433e-05
4.51641e-05
4.8942e-05
5.33485e-05
5.83525e-05
6.39119e-05
6.99726e-05
7.64671e-05
8.3311e-05
9.04002e-05
9.76088e-05
0.000104789
0.000111774
0.000118379
0.000124411
0.000129676
0.000133988
0.000137187
0.000139146
0.000139783
0.000139067
0.000137023
2.36461e-05
2.40818e-05
2.50882e-05
2.66089e-05
2.85762e-05
3.09558e-05
3.37285e-05
3.68732e-05
4.03612e-05
4.41563e-05
4.82132e-05
5.24758e-05
5.68759e-05
6.1332e-05
6.57496e-05
7.00231e-05
7.40384e-05
7.76774e-05
8.08241e-05
8.33709e-05
8.5226e-05
8.63197e-05
8.66098e-05
8.6085e-05
8.47646e-05
8.18251e-06
8.33507e-06
8.68532e-06
9.21345e-06
9.89609e-06
1.07213e-05
1.16824e-05
1.27717e-05
1.39791e-05
1.52916e-05
1.6693e-05
1.81634e-05
1.96785e-05
2.12096e-05
2.27238e-05
2.41841e-05
2.55512e-05
2.67848e-05
2.78455e-05
2.86974e-05
2.93103e-05
2.96618e-05
2.97392e-05
2.95405e-05
2.90749e-05
)
;

boundaryField
{
    top
    {
        type            fixedValue;
        value           uniform 0;
    }
    inlet
    {
        type            zeroGradient;
    }
    outlet
    {
        type            fixedValue;
        value           uniform 0;
    }
    plate
    {
        type            zeroGradient;
    }
    symmBound
    {
        type            zeroGradient;
    }
    frontAndBack
    {
        type            empty;
    }
}


// ************************************************************************* //
