/*--------------------------------*- C++ -*----------------------------------*\
| =========                 |                                                 |
| \\      /  F ield         | OpenFOAM: The Open Source CFD Toolbox           |
|  \\    /   O peration     | Version:  2.3.0                                 |
|   \\  /    A nd           | Web:      www.OpenFOAM.org                      |
|    \\/     M anipulation  |                                                 |
\*---------------------------------------------------------------------------*/
FoamFile
{
    version     2.0;
    format      ascii;
    class       surfaceScalarField;
    location    "0.6";
    object      phi;
}
// * * * * * * * * * * * * * * * * * * * * * * * * * * * * * * * * * * * * * //

dimensions      [0 3 -1 0 0 0 0];

internalField   nonuniform List<scalar> 
4357
(
4.99623e-08
2.04759e-09
-5.20099e-08
4.78074e-08
2.15485e-09
4.56428e-08
2.16465e-09
4.34941e-08
2.14872e-09
4.13734e-08
2.12066e-09
3.92917e-08
2.08171e-09
3.72577e-08
2.03402e-09
3.52781e-08
1.97956e-09
3.33585e-08
1.91963e-09
3.15035e-08
1.85495e-09
2.97175e-08
1.78602e-09
2.80042e-08
1.71328e-09
2.6367e-08
1.63718e-09
2.48089e-08
1.55819e-09
2.3332e-08
1.47683e-09
2.19384e-08
1.39367e-09
2.0629e-08
1.30936e-09
1.94044e-08
1.22457e-09
1.82644e-08
1.14002e-09
1.7208e-08
1.05645e-09
1.62334e-08
9.746e-10
1.53382e-08
8.95164e-10
1.45194e-08
8.188e-10
1.37733e-08
7.46092e-10
1.30958e-08
6.77532e-10
1.24823e-08
6.13509e-10
1.1928e-08
5.54295e-10
1.14279e-08
5.00048e-10
1.09771e-08
4.5081e-10
1.05706e-08
4.06516e-10
1.02036e-08
3.67009e-10
9.87153e-09
3.32051e-10
9.57019e-09
3.01343e-10
9.29565e-09
2.74544e-10
9.04436e-09
2.51283e-10
8.81318e-09
2.3118e-10
8.59933e-09
2.13857e-10
8.40038e-09
1.98951e-10
8.21426e-09
1.8612e-10
8.03921e-09
1.75049e-10
7.87375e-09
1.65457e-10
7.71665e-09
1.57095e-10
7.56691e-09
1.49747e-10
7.42368e-09
1.43229e-10
7.28629e-09
1.3739e-10
7.15419e-09
1.32102e-10
7.02692e-09
1.27263e-10
6.90413e-09
1.2279e-10
6.78551e-09
1.18619e-10
6.67081e-09
1.14699e-10
6.55982e-09
1.10993e-10
6.45235e-09
1.0747e-10
6.34824e-09
1.04109e-10
6.24735e-09
1.00894e-10
6.14954e-09
9.78125e-11
6.05468e-09
9.48546e-11
5.96267e-09
9.20131e-11
5.87339e-09
8.92819e-11
5.78673e-09
8.66556e-11
5.7026e-09
8.41295e-11
5.6209e-09
8.16991e-11
5.54154e-09
7.936e-11
5.46443e-09
7.71077e-11
5.3895e-09
7.4938e-11
5.31665e-09
7.28464e-11
5.24582e-09
7.08287e-11
5.17694e-09
6.88804e-11
5.10994e-09
6.69975e-11
5.04477e-09
6.51757e-11
4.98136e-09
6.34112e-11
4.91966e-09
6.17002e-11
4.85962e-09
6.0039e-11
4.80119e-09
5.84244e-11
4.74434e-09
5.6853e-11
4.68902e-09
5.53221e-11
4.63519e-09
5.3829e-11
4.58282e-09
5.23712e-11
4.53187e-09
5.09465e-11
4.48232e-09
4.95532e-11
4.43413e-09
4.81896e-11
4.38727e-09
4.68542e-11
4.34173e-09
4.55461e-11
4.29746e-09
4.42644e-11
4.25445e-09
4.30088e-11
4.21268e-09
4.17792e-11
4.1721e-09
4.0576e-11
4.1327e-09
3.94e-11
4.09445e-09
3.82529e-11
4.05731e-09
3.71369e-11
4.02125e-09
3.60557e-11
3.98624e-09
3.50147e-11
3.95222e-09
3.40218e-11
3.91913e-09
3.30898e-11
3.88689e-09
3.22393e-11
3.85538e-09
3.15072e-11
3.82441e-09
3.09668e-11
3.79363e-09
3.07846e-11
3.76232e-09
3.13076e-11
3.72803e-09
3.42919e-11
7.62939e-11
5.77081e-08
2.15828e-09
-5.78188e-08
5.74649e-08
2.39803e-09
5.70873e-08
2.54225e-09
5.65961e-08
2.63992e-09
5.60058e-08
2.71093e-09
5.53281e-08
2.75948e-09
5.45739e-08
2.78823e-09
5.37534e-08
2.80002e-09
5.28761e-08
2.79699e-09
5.19505e-08
2.78049e-09
5.0985e-08
2.75151e-09
4.99874e-08
2.71092e-09
4.8965e-08
2.65959e-09
4.79248e-08
2.59841e-09
4.68733e-08
2.52832e-09
4.58166e-08
2.45034e-09
4.47604e-08
2.3656e-09
4.37097e-08
2.27526e-09
4.26691e-08
2.18056e-09
4.16428e-08
2.08279e-09
4.06342e-08
1.98323e-09
3.96462e-08
1.88312e-09
3.86814e-08
1.78365e-09
3.77415e-08
1.68592e-09
3.68282e-08
1.5909e-09
3.59423e-08
1.49942e-09
3.50844e-08
1.41215e-09
3.42549e-08
1.32959e-09
3.34536e-08
1.25208e-09
3.26803e-08
1.1798e-09
3.19345e-08
1.1128e-09
3.12156e-08
1.05099e-09
3.05227e-08
9.9421e-10
2.98551e-08
9.42186e-10
2.92117e-08
8.94612e-10
2.85918e-08
8.51141e-10
2.79942e-08
8.11409e-10
2.74181e-08
7.75051e-10
2.68625e-08
7.41713e-10
2.63265e-08
7.11059e-10
2.58092e-08
6.82778e-10
2.53097e-08
6.56589e-10
2.48272e-08
6.32241e-10
2.43609e-08
6.09512e-10
2.39101e-08
5.88214e-10
2.3474e-08
5.68185e-10
2.3052e-08
5.49284e-10
2.26434e-08
5.31395e-10
2.22476e-08
5.14418e-10
2.1864e-08
4.98271e-10
2.14921e-08
4.82886e-10
2.11314e-08
4.68203e-10
2.07813e-08
4.54173e-10
2.04415e-08
4.40753e-10
2.01114e-08
4.27907e-10
1.97906e-08
4.15601e-10
1.94788e-08
4.03805e-10
1.91756e-08
3.92492e-10
1.88807e-08
3.81635e-10
1.85936e-08
3.71212e-10
1.83141e-08
3.61199e-10
1.80419e-08
3.51573e-10
1.77767e-08
3.42313e-10
1.75182e-08
3.33398e-10
1.72662e-08
3.2481e-10
1.70205e-08
3.16528e-10
1.67809e-08
3.08534e-10
1.65471e-08
3.0081e-10
1.63189e-08
2.93341e-10
1.60962e-08
2.86109e-10
1.58788e-08
2.791e-10
1.56665e-08
2.72299e-10
1.54593e-08
2.65694e-10
1.52569e-08
2.59271e-10
1.50592e-08
2.5302e-10
1.48661e-08
2.4693e-10
1.46774e-08
2.40991e-10
1.44932e-08
2.35195e-10
1.43132e-08
2.29534e-10
1.41374e-08
2.24001e-10
1.39657e-08
2.1859e-10
1.37979e-08
2.13298e-10
1.36341e-08
2.08119e-10
1.3474e-08
2.03052e-10
1.33177e-08
1.98095e-10
1.3165e-08
1.93249e-10
1.30159e-08
1.88515e-10
1.28703e-08
1.83898e-10
1.2728e-08
1.79404e-10
1.2589e-08
1.75042e-10
1.24532e-08
1.7083e-10
1.23204e-08
1.6679e-10
1.21906e-08
1.62959e-10
1.20634e-08
1.59398e-10
1.19387e-08
1.56214e-10
1.1816e-08
1.53621e-10
1.16947e-08
1.521e-10
1.1573e-08
1.53066e-10
1.14432e-08
1.64055e-10
2.24426e-10
6.27566e-08
2.15107e-09
-6.27494e-08
6.27681e-08
2.38649e-09
6.27513e-08
2.55906e-09
6.26979e-08
2.69336e-09
6.26044e-08
2.80445e-09
6.24675e-08
2.89635e-09
6.22854e-08
2.97029e-09
6.20577e-08
3.02775e-09
6.17846e-08
3.07005e-09
6.14671e-08
3.09801e-09
6.11065e-08
3.11215e-09
6.07045e-08
3.11291e-09
6.02633e-08
3.10076e-09
5.97854e-08
3.07629e-09
5.92736e-08
3.04015e-09
5.87308e-08
2.99318e-09
5.816e-08
2.93632e-09
5.75646e-08
2.87067e-09
5.69477e-08
2.79743e-09
5.63126e-08
2.71791e-09
5.56624e-08
2.63347e-09
5.5e-08
2.54548e-09
5.43284e-08
2.4553e-09
5.36501e-08
2.36423e-09
5.29675e-08
2.27347e-09
5.22828e-08
2.18408e-09
5.1598e-08
2.097e-09
5.09146e-08
2.01296e-09
5.02341e-08
1.93255e-09
4.95577e-08
1.85619e-09
4.88864e-08
1.78411e-09
4.8221e-08
1.71644e-09
4.7562e-08
1.65316e-09
4.69101e-08
1.59415e-09
4.62655e-08
1.53923e-09
4.56285e-08
1.48813e-09
4.49993e-08
1.44058e-09
4.43781e-08
1.39626e-09
4.37649e-08
1.35487e-09
4.31599e-08
1.31611e-09
4.2563e-08
1.27968e-09
4.19742e-08
1.24533e-09
4.13937e-08
1.21281e-09
4.08213e-08
1.18191e-09
4.0257e-08
1.15245e-09
3.97009e-08
1.12427e-09
3.9153e-08
1.09722e-09
3.86132e-08
1.07121e-09
3.80815e-08
1.04612e-09
3.75579e-08
1.02188e-09
3.70423e-08
9.98438e-10
3.65348e-08
9.75725e-10
3.60353e-08
9.537e-10
3.55437e-08
9.32327e-10
3.506e-08
9.11573e-10
3.45842e-08
8.9141e-10
3.41162e-08
8.71814e-10
3.3656e-08
8.52761e-10
3.32034e-08
8.34232e-10
3.27584e-08
8.16205e-10
3.23209e-08
7.98662e-10
3.18909e-08
7.81583e-10
3.14682e-08
7.6495e-10
3.10529e-08
7.48744e-10
3.06448e-08
7.32948e-10
3.02438e-08
7.17542e-10
2.98498e-08
7.0251e-10
2.94628e-08
6.87834e-10
2.90826e-08
6.73498e-10
2.87092e-08
6.59484e-10
2.83425e-08
6.45777e-10
2.79825e-08
6.32362e-10
2.76289e-08
6.19224e-10
2.72819e-08
6.0635e-10
2.69412e-08
5.93726e-10
2.66068e-08
5.8134e-10
2.62786e-08
5.69181e-10
2.59565e-08
5.5724e-10
2.56405e-08
5.45507e-10
2.53306e-08
5.33974e-10
2.50265e-08
5.22636e-10
2.47283e-08
5.11487e-10
2.44359e-08
5.00524e-10
2.41492e-08
4.89745e-10
2.38682e-08
4.79151e-10
2.35927e-08
4.68744e-10
2.33227e-08
4.58532e-10
2.3058e-08
4.48522e-10
2.27987e-08
4.38731e-10
2.25446e-08
4.29178e-10
2.22955e-08
4.19893e-10
2.20514e-08
4.10923e-10
2.1812e-08
4.02335e-10
2.15772e-08
3.94241e-10
2.13465e-08
3.86835e-10
2.11197e-08
3.80504e-10
2.08956e-08
3.76127e-10
2.06724e-08
3.76284e-10
2.04456e-08
3.90879e-10
4.46247e-10
6.79985e-08
2.17507e-09
-6.80225e-08
6.80026e-08
2.38241e-09
6.80094e-08
2.55222e-09
6.80099e-08
2.69279e-09
6.80014e-08
2.81302e-09
6.79811e-08
2.91661e-09
6.79466e-08
3.00483e-09
6.78956e-08
3.07871e-09
6.78264e-08
3.13926e-09
6.77372e-08
3.18718e-09
6.76266e-08
3.22284e-09
6.7493e-08
3.24648e-09
6.73354e-08
3.25835e-09
6.7153e-08
3.2587e-09
6.69452e-08
3.24792e-09
6.67119e-08
3.2265e-09
6.64532e-08
3.19506e-09
6.61695e-08
3.15438e-09
6.58615e-08
3.10537e-09
6.55303e-08
3.04909e-09
6.51772e-08
2.98665e-09
6.48034e-08
2.91926e-09
6.44105e-08
2.84813e-09
6.40003e-08
2.77448e-09
6.35743e-08
2.69945e-09
6.31343e-08
2.62411e-09
6.26819e-08
2.54943e-09
6.22186e-08
2.47623e-09
6.1746e-08
2.40518e-09
6.12653e-08
2.33681e-09
6.0778e-08
2.2715e-09
6.02849e-08
2.2095e-09
5.97871e-08
2.15092e-09
5.92855e-08
2.09579e-09
5.87807e-08
2.04401e-09
5.82734e-08
1.99545e-09
5.77641e-08
1.94992e-09
5.72531e-08
1.90719e-09
5.6741e-08
1.86701e-09
5.62279e-08
1.82914e-09
5.57143e-08
1.79334e-09
5.52003e-08
1.75936e-09
5.46861e-08
1.727e-09
5.41719e-08
1.69605e-09
5.3658e-08
1.66635e-09
5.31446e-08
1.63775e-09
5.26317e-08
1.61011e-09
5.21196e-08
1.58331e-09
5.16084e-08
1.55728e-09
5.10984e-08
1.53193e-09
5.05896e-08
1.50719e-09
5.00823e-08
1.48302e-09
4.95766e-08
1.45937e-09
4.90728e-08
1.4362e-09
4.85709e-08
1.41349e-09
4.80711e-08
1.3912e-09
4.75735e-08
1.36933e-09
4.70785e-08
1.34784e-09
4.6586e-08
1.32673e-09
4.60962e-08
1.30596e-09
4.56093e-08
1.28554e-09
4.51255e-08
1.26544e-09
4.46448e-08
1.24565e-09
4.41674e-08
1.22615e-09
4.36934e-08
1.20693e-09
4.32229e-08
1.18798e-09
4.27562e-08
1.16928e-09
4.22932e-08
1.15082e-09
4.18341e-08
1.13258e-09
4.1379e-08
1.11455e-09
4.09281e-08
1.09672e-09
4.04814e-08
1.07908e-09
4.0039e-08
1.06162e-09
3.9601e-08
1.04432e-09
3.91676e-08
1.02718e-09
3.87387e-08
1.01019e-09
3.83146e-08
9.93332e-10
3.78952e-08
9.76612e-10
3.74807e-08
9.60023e-10
3.70711e-08
9.43559e-10
3.66665e-08
9.27219e-10
3.6267e-08
9.11004e-10
3.58726e-08
8.94916e-10
3.54834e-08
8.7896e-10
3.50994e-08
8.63142e-10
3.47207e-08
8.47475e-10
3.43472e-08
8.31973e-10
3.39791e-08
8.16657e-10
3.36163e-08
8.01554e-10
3.32587e-08
7.86702e-10
3.29065e-08
7.72151e-10
3.25594e-08
7.57974e-10
3.22175e-08
7.44275e-10
3.18805e-08
7.31221e-10
3.15482e-08
7.19098e-10
3.12203e-08
7.08445e-10
3.0896e-08
7.00445e-10
3.05741e-08
6.9812e-10
3.02555e-08
7.09532e-10
7.44861e-10
7.36405e-08
2.23417e-09
-7.36996e-08
7.36098e-08
2.41305e-09
7.35916e-08
2.57049e-09
7.35774e-08
2.70697e-09
7.35641e-08
2.8263e-09
7.35496e-08
2.93108e-09
7.3532e-08
3.02247e-09
7.35095e-08
3.10122e-09
7.34807e-08
3.16808e-09
7.34442e-08
3.22364e-09
7.33988e-08
3.26827e-09
7.3343e-08
3.30222e-09
7.32757e-08
3.32571e-09
7.31954e-08
3.33898e-09
7.3101e-08
3.34229e-09
7.29915e-08
3.33602e-09
7.28659e-08
3.32064e-09
7.27236e-08
3.29673e-09
7.25639e-08
3.265e-09
7.23868e-08
3.22624e-09
7.21921e-08
3.18137e-09
7.198e-08
3.13135e-09
7.17509e-08
3.0772e-09
7.15054e-08
3.01993e-09
7.12444e-08
2.96054e-09
7.09685e-08
2.89999e-09
7.06788e-08
2.83915e-09
7.03762e-08
2.77879e-09
7.00618e-08
2.71958e-09
6.97366e-08
2.66206e-09
6.94014e-08
2.60666e-09
6.90572e-08
2.55368e-09
6.87048e-08
2.50331e-09
6.8345e-08
2.45564e-09
6.79783e-08
2.41069e-09
6.76054e-08
2.3684e-09
6.72266e-08
2.32864e-09
6.68425e-08
2.29127e-09
6.64535e-08
2.25611e-09
6.60596e-08
2.22296e-09
6.56614e-08
2.19162e-09
6.52588e-08
2.1619e-09
6.48522e-08
2.1336e-09
6.44417e-08
2.10657e-09
6.40274e-08
2.08063e-09
6.36095e-08
2.05565e-09
6.31881e-08
2.0315e-09
6.27634e-08
2.00808e-09
6.23354e-08
1.98528e-09
6.19042e-08
1.96304e-09
6.14702e-08
1.94128e-09
6.10332e-08
1.91995e-09
6.05936e-08
1.899e-09
6.01514e-08
1.8784e-09
5.97068e-08
1.8581e-09
5.92599e-08
1.83809e-09
5.88109e-08
1.81833e-09
5.83599e-08
1.7988e-09
5.79072e-08
1.77949e-09
5.74528e-08
1.76037e-09
5.69969e-08
1.74143e-09
5.65397e-08
1.72264e-09
5.60813e-08
1.704e-09
5.5622e-08
1.68549e-09
5.51618e-08
1.66708e-09
5.47011e-08
1.64877e-09
5.42398e-08
1.63053e-09
5.37783e-08
1.61236e-09
5.33166e-08
1.59424e-09
5.2855e-08
1.57615e-09
5.23936e-08
1.55809e-09
5.19327e-08
1.54003e-09
5.14723e-08
1.52198e-09
5.10127e-08
1.5039e-09
5.05541e-08
1.48581e-09
5.00966e-08
1.46769e-09
4.96404e-08
1.44952e-09
4.91857e-08
1.43132e-09
4.87327e-08
1.41306e-09
4.82815e-08
1.39476e-09
4.78323e-08
1.37641e-09
4.73853e-08
1.35802e-09
4.69406e-08
1.33959e-09
4.64984e-08
1.32112e-09
4.60589e-08
1.30265e-09
4.56222e-08
1.28417e-09
4.51885e-08
1.26572e-09
4.47578e-08
1.24733e-09
4.43303e-08
1.22903e-09
4.39062e-08
1.21088e-09
4.34853e-08
1.19295e-09
4.3068e-08
1.17534e-09
4.26541e-08
1.15818e-09
4.22436e-08
1.14169e-09
4.18365e-08
1.12622e-09
4.14326e-08
1.11238e-09
4.10316e-08
1.1014e-09
4.06339e-08
1.09578e-09
4.02438e-08
1.09971e-09
1.11051e-09
7.97308e-08
2.31948e-09
-7.98161e-08
7.967e-08
2.47377e-09
7.96245e-08
2.61605e-09
7.95871e-08
2.7443e-09
7.95542e-08
2.85924e-09
7.95233e-08
2.96202e-09
7.94925e-08
3.05328e-09
7.94602e-08
3.13344e-09
7.94254e-08
3.20292e-09
7.93869e-08
3.2621e-09
7.93439e-08
3.3113e-09
7.92954e-08
3.35076e-09
7.92404e-08
3.3807e-09
7.9178e-08
3.40137e-09
7.91073e-08
3.41303e-09
7.90273e-08
3.41601e-09
7.89372e-08
3.41074e-09
7.88362e-08
3.3977e-09
7.87237e-08
3.37748e-09
7.85992e-08
3.35076e-09
7.84623e-08
3.31828e-09
7.83128e-08
3.28085e-09
7.81507e-08
3.23931e-09
7.79761e-08
3.19452e-09
7.77893e-08
3.14735e-09
7.75907e-08
3.0986e-09
7.73807e-08
3.04906e-09
7.71601e-08
2.99942e-09
7.69294e-08
2.9503e-09
7.66892e-08
2.90222e-09
7.64403e-08
2.8556e-09
7.61832e-08
2.81077e-09
7.59185e-08
2.76795e-09
7.56469e-08
2.7273e-09
7.53687e-08
2.68887e-09
7.50844e-08
2.65266e-09
7.47945e-08
2.61863e-09
7.4499e-08
2.58669e-09
7.41985e-08
2.55669e-09
7.38929e-08
2.52852e-09
7.35825e-08
2.502e-09
7.32674e-08
2.47697e-09
7.29477e-08
2.45329e-09
7.26235e-08
2.43081e-09
7.22948e-08
2.40937e-09
7.19616e-08
2.38886e-09
7.16239e-08
2.36915e-09
7.12819e-08
2.35014e-09
7.09354e-08
2.33174e-09
7.05846e-08
2.31388e-09
7.02294e-08
2.29647e-09
6.98698e-08
2.27947e-09
6.9506e-08
2.26281e-09
6.9138e-08
2.24646e-09
6.87657e-08
2.23037e-09
6.83893e-08
2.21451e-09
6.80088e-08
2.19885e-09
6.76242e-08
2.18335e-09
6.72357e-08
2.168e-09
6.68433e-08
2.15277e-09
6.64471e-08
2.13763e-09
6.60472e-08
2.12257e-09
6.56436e-08
2.10755e-09
6.52366e-08
2.09256e-09
6.48261e-08
2.07758e-09
6.44122e-08
2.06258e-09
6.39952e-08
2.04755e-09
6.35751e-08
2.03246e-09
6.31521e-08
2.0173e-09
6.27262e-08
2.00204e-09
6.22976e-08
1.98667e-09
6.18665e-08
1.97117e-09
6.14329e-08
1.95552e-09
6.09971e-08
1.93971e-09
6.05592e-08
1.92373e-09
6.01193e-08
1.90755e-09
5.96777e-08
1.89118e-09
5.92344e-08
1.8746e-09
5.87897e-08
1.85781e-09
5.83436e-08
1.84079e-09
5.78965e-08
1.82356e-09
5.74484e-08
1.8061e-09
5.69996e-08
1.78843e-09
5.65501e-08
1.77056e-09
5.61003e-08
1.75249e-09
5.56502e-08
1.73425e-09
5.52001e-08
1.71587e-09
5.475e-08
1.69738e-09
5.43002e-08
1.67883e-09
5.38508e-08
1.66027e-09
5.3402e-08
1.6418e-09
5.29538e-08
1.62353e-09
5.25063e-08
1.60561e-09
5.20598e-08
1.58828e-09
5.16141e-08
1.57191e-09
5.11694e-08
1.55708e-09
5.0726e-08
1.54475e-09
5.02854e-08
1.53635e-09
4.98527e-08
1.53246e-09
1.52396e-09
8.63055e-08
2.42568e-09
-8.64117e-08
8.62192e-08
2.56006e-09
8.61476e-08
2.68771e-09
8.60855e-08
2.80631e-09
8.60296e-08
2.91516e-09
8.59774e-08
3.01428e-09
8.59269e-08
3.10377e-09
8.58766e-08
3.18372e-09
8.58253e-08
3.25425e-09
8.57718e-08
3.31556e-09
8.57153e-08
3.36781e-09
8.56549e-08
3.41119e-09
8.55897e-08
3.44588e-09
8.5519e-08
3.47207e-09
8.5442e-08
3.49003e-09
8.5358e-08
3.50003e-09
8.52663e-08
3.50244e-09
8.51662e-08
3.4977e-09
8.50574e-08
3.48631e-09
8.49394e-08
3.46883e-09
8.48117e-08
3.44591e-09
8.46743e-08
3.41823e-09
8.45272e-08
3.3865e-09
8.43702e-08
3.35147e-09
8.42037e-08
3.31388e-09
8.40278e-08
3.27445e-09
8.3843e-08
3.23385e-09
8.36497e-08
3.19272e-09
8.34484e-08
3.15162e-09
8.32396e-08
3.11104e-09
8.30238e-08
3.07141e-09
8.28015e-08
3.03305e-09
8.25732e-08
2.99622e-09
8.23395e-08
2.96108e-09
8.21006e-08
2.92777e-09
8.18569e-08
2.89633e-09
8.16088e-08
2.86675e-09
8.13565e-08
2.839e-09
8.11001e-08
2.81301e-09
8.084e-08
2.78869e-09
8.05761e-08
2.76591e-09
8.03085e-08
2.74456e-09
8.00373e-08
2.72451e-09
7.97624e-08
2.70565e-09
7.94839e-08
2.68785e-09
7.92018e-08
2.67099e-09
7.8916e-08
2.65499e-09
7.86264e-08
2.63974e-09
7.8333e-08
2.62515e-09
7.80357e-08
2.61115e-09
7.77345e-08
2.59766e-09
7.74293e-08
2.58463e-09
7.71201e-08
2.57201e-09
7.68069e-08
2.55973e-09
7.64895e-08
2.54777e-09
7.61679e-08
2.53607e-09
7.58421e-08
2.52461e-09
7.55121e-08
2.51334e-09
7.51779e-08
2.50224e-09
7.48394e-08
2.49128e-09
7.44966e-08
2.48042e-09
7.41495e-08
2.46964e-09
7.37982e-08
2.45891e-09
7.34425e-08
2.4482e-09
7.30826e-08
2.43748e-09
7.27185e-08
2.42673e-09
7.23501e-08
2.41593e-09
7.19775e-08
2.40504e-09
7.16008e-08
2.39404e-09
7.12199e-08
2.3829e-09
7.0835e-08
2.3716e-09
7.0446e-08
2.36012e-09
7.00531e-08
2.34843e-09
6.96563e-08
2.33652e-09
6.92557e-08
2.32435e-09
6.88513e-08
2.31192e-09
6.84433e-08
2.2992e-09
6.80317e-08
2.28619e-09
6.76167e-08
2.27286e-09
6.71983e-08
2.25921e-09
6.67766e-08
2.24524e-09
6.63517e-08
2.23093e-09
6.59239e-08
2.21629e-09
6.54931e-08
2.20132e-09
6.50596e-08
2.18604e-09
6.46234e-08
2.17046e-09
6.41846e-08
2.15461e-09
6.37435e-08
2.13852e-09
6.33001e-08
2.12225e-09
6.28545e-08
2.10585e-09
6.24069e-08
2.08942e-09
6.19573e-08
2.07306e-09
6.1506e-08
2.05695e-09
6.1053e-08
2.04131e-09
6.05984e-08
2.02646e-09
6.01427e-08
2.01285e-09
5.96864e-08
2.00106e-09
5.92313e-08
1.99141e-09
5.87813e-08
1.98245e-09
1.96487e-09
9.3403e-08
2.55064e-09
-9.3528e-08
9.32938e-08
2.66923e-09
9.31976e-08
2.78396e-09
9.3111e-08
2.8929e-09
9.30312e-08
2.9949e-09
9.29561e-08
3.08941e-09
9.28838e-08
3.17612e-09
9.28126e-08
3.25485e-09
9.27414e-08
3.32551e-09
9.26688e-08
3.38808e-09
9.2594e-08
3.4426e-09
9.25161e-08
3.48915e-09
9.24341e-08
3.52782e-09
9.23474e-08
3.55877e-09
9.22553e-08
3.58218e-09
9.2157e-08
3.5983e-09
9.20521e-08
3.60742e-09
9.19399e-08
3.60991e-09
9.182e-08
3.60619e-09
9.16921e-08
3.59674e-09
9.15559e-08
3.5821e-09
9.14113e-08
3.56286e-09
9.12581e-08
3.53962e-09
9.10966e-08
3.51301e-09
9.09268e-08
3.48369e-09
9.0749e-08
3.45227e-09
9.05635e-08
3.41936e-09
9.03707e-08
3.38552e-09
9.0171e-08
3.35128e-09
8.99649e-08
3.31709e-09
8.9753e-08
3.28337e-09
8.95356e-08
3.25043e-09
8.93133e-08
3.21856e-09
8.90864e-08
3.18796e-09
8.88554e-08
3.15878e-09
8.86206e-08
3.13111e-09
8.83823e-08
3.10501e-09
8.81409e-08
3.08047e-09
8.78964e-08
3.05748e-09
8.76491e-08
3.03598e-09
8.73991e-08
3.01591e-09
8.71465e-08
2.99719e-09
8.68912e-08
2.97973e-09
8.66335e-08
2.96342e-09
8.63731e-08
2.94819e-09
8.61102e-08
2.93394e-09
8.58446e-08
2.92058e-09
8.55763e-08
2.90803e-09
8.53052e-08
2.89622e-09
8.50313e-08
2.88507e-09
8.47544e-08
2.87451e-09
8.44746e-08
2.8645e-09
8.41916e-08
2.85497e-09
8.39055e-08
2.84588e-09
8.36161e-08
2.83719e-09
8.33233e-08
2.82884e-09
8.30271e-08
2.82081e-09
8.27274e-08
2.81305e-09
8.24241e-08
2.80554e-09
8.21171e-08
2.79823e-09
8.18065e-08
2.79109e-09
8.1492e-08
2.7841e-09
8.11737e-08
2.77722e-09
8.08515e-08
2.77042e-09
8.05253e-08
2.76367e-09
8.01951e-08
2.75694e-09
7.98608e-08
2.7502e-09
7.95224e-08
2.74341e-09
7.91799e-08
2.73656e-09
7.88332e-08
2.7296e-09
7.84823e-08
2.72251e-09
7.81271e-08
2.71525e-09
7.77678e-08
2.70782e-09
7.74041e-08
2.70016e-09
7.70362e-08
2.69227e-09
7.6664e-08
2.68412e-09
7.62875e-08
2.67568e-09
7.59068e-08
2.66693e-09
7.55218e-08
2.65786e-09
7.51325e-08
2.64845e-09
7.47391e-08
2.63868e-09
7.43415e-08
2.62856e-09
7.39397e-08
2.61807e-09
7.35338e-08
2.60721e-09
7.31238e-08
2.596e-09
7.27098e-08
2.58445e-09
7.22919e-08
2.57257e-09
7.187e-08
2.5604e-09
7.14443e-08
2.54798e-09
7.10147e-08
2.53538e-09
7.05815e-08
2.52268e-09
7.01446e-08
2.50999e-09
6.9704e-08
2.49746e-09
6.92601e-08
2.48528e-09
6.88128e-08
2.47371e-09
6.83627e-08
2.46299e-09
6.79104e-08
2.45331e-09
6.74575e-08
2.44436e-09
6.70056e-08
2.43436e-09
2.41774e-09
1.01065e-07
2.69378e-09
-1.01208e-07
1.00935e-07
2.79989e-09
1.00815e-07
2.90374e-09
1.00704e-07
3.00385e-09
1.006e-07
3.09908e-09
1.005e-07
3.18867e-09
1.00404e-07
3.2721e-09
1.0031e-07
3.349e-09
1.00217e-07
3.41912e-09
1.00123e-07
3.4823e-09
1.00027e-07
3.53845e-09
9.99282e-08
3.58755e-09
9.98265e-08
3.62961e-09
9.97205e-08
3.66472e-09
9.96097e-08
3.69299e-09
9.94934e-08
3.7146e-09
9.9371e-08
3.7298e-09
9.92421e-08
3.73886e-09
9.91061e-08
3.74214e-09
9.89628e-08
3.74003e-09
9.8812e-08
3.73297e-09
9.86534e-08
3.72146e-09
9.8487e-08
3.706e-09
9.83128e-08
3.68715e-09
9.81311e-08
3.66543e-09
9.7942e-08
3.64141e-09
9.77457e-08
3.6156e-09
9.75427e-08
3.58852e-09
9.73333e-08
3.56064e-09
9.7118e-08
3.53239e-09
9.68972e-08
3.50415e-09
9.66714e-08
3.47625e-09
9.6441e-08
3.44897e-09
9.62065e-08
3.42254e-09
9.59681e-08
3.39712e-09
9.57264e-08
3.37286e-09
9.54815e-08
3.34984e-09
9.52339e-08
3.32811e-09
9.49837e-08
3.30768e-09
9.47311e-08
3.28856e-09
9.44763e-08
3.27071e-09
9.42194e-08
3.25408e-09
9.39605e-08
3.23863e-09
9.36996e-08
3.2243e-09
9.34368e-08
3.211e-09
9.31721e-08
3.19869e-09
9.29054e-08
3.18728e-09
9.26367e-08
3.17672e-09
9.2366e-08
3.16693e-09
9.20932e-08
3.15786e-09
9.18183e-08
3.14946e-09
9.15411e-08
3.14167e-09
9.12616e-08
3.13443e-09
9.09798e-08
3.12772e-09
9.06955e-08
3.12148e-09
9.04087e-08
3.11566e-09
9.01192e-08
3.11025e-09
8.98271e-08
3.10519e-09
8.95322e-08
3.10046e-09
8.92344e-08
3.09601e-09
8.89336e-08
3.09183e-09
8.86299e-08
3.08786e-09
8.8323e-08
3.08409e-09
8.8013e-08
3.08048e-09
8.76996e-08
3.077e-09
8.7383e-08
3.07361e-09
8.70629e-08
3.07028e-09
8.67393e-08
3.06699e-09
8.64122e-08
3.0637e-09
8.60814e-08
3.06038e-09
8.57469e-08
3.057e-09
8.54086e-08
3.05353e-09
8.50665e-08
3.04993e-09
8.47205e-08
3.04619e-09
8.43705e-08
3.04226e-09
8.40165e-08
3.03813e-09
8.36584e-08
3.03377e-09
8.32962e-08
3.02915e-09
8.29298e-08
3.02426e-09
8.25591e-08
3.01907e-09
8.21842e-08
3.01358e-09
8.1805e-08
3.00776e-09
8.14215e-08
3.00161e-09
8.10336e-08
2.99513e-09
8.06413e-08
2.98831e-09
8.02445e-08
2.98118e-09
7.98434e-08
2.97375e-09
7.94377e-08
2.96604e-09
7.90276e-08
2.95809e-09
7.8613e-08
2.94997e-09
7.81939e-08
2.94175e-09
7.77704e-08
2.93352e-09
7.73425e-08
2.92541e-09
7.69102e-08
2.91757e-09
7.64738e-08
2.91014e-09
7.60335e-08
2.90324e-09
7.559e-08
2.89681e-09
7.5144e-08
2.89035e-09
7.46957e-08
2.88272e-09
2.87253e-09
1.09338e-07
2.85536e-09
-1.09499e-07
1.09186e-07
2.95171e-09
1.09043e-07
3.04669e-09
1.08908e-07
3.1392e-09
1.08779e-07
3.22828e-09
1.08654e-07
3.31314e-09
1.08533e-07
3.3932e-09
1.08414e-07
3.468e-09
1.08296e-07
3.53719e-09
1.08178e-07
3.60052e-09
1.08058e-07
3.65779e-09
1.07937e-07
3.70891e-09
1.07813e-07
3.75382e-09
1.07685e-07
3.79253e-09
1.07553e-07
3.8251e-09
1.07416e-07
3.85164e-09
1.07273e-07
3.87232e-09
1.07125e-07
3.88736e-09
1.0697e-07
3.89702e-09
1.06808e-07
3.90164e-09
1.0664e-07
3.90157e-09
1.06464e-07
3.8972e-09
1.06281e-07
3.88898e-09
1.06091e-07
3.87734e-09
1.05893e-07
3.86276e-09
1.05689e-07
3.84571e-09
1.05478e-07
3.82664e-09
1.05261e-07
3.80601e-09
1.05037e-07
3.78424e-09
1.04808e-07
3.76172e-09
1.04573e-07
3.73881e-09
1.04333e-07
3.71584e-09
1.04089e-07
3.69309e-09
1.03841e-07
3.67078e-09
1.03589e-07
3.64912e-09
1.03334e-07
3.62826e-09
1.03075e-07
3.60832e-09
1.02814e-07
3.58939e-09
1.0255e-07
3.57151e-09
1.02284e-07
3.55471e-09
1.02016e-07
3.53901e-09
1.01745e-07
3.5244e-09
1.01473e-07
3.51085e-09
1.01199e-07
3.49833e-09
1.00923e-07
3.48679e-09
1.00646e-07
3.4762e-09
1.00367e-07
3.4665e-09
1.00086e-07
3.45764e-09
9.98029e-08
3.44958e-09
9.95185e-08
3.44227e-09
9.92323e-08
3.43565e-09
9.89443e-08
3.42969e-09
9.86544e-08
3.42434e-09
9.83626e-08
3.41956e-09
9.80688e-08
3.41531e-09
9.77729e-08
3.41155e-09
9.74749e-08
3.40825e-09
9.71747e-08
3.40538e-09
9.68722e-08
3.40289e-09
9.65675e-08
3.40076e-09
9.62604e-08
3.39896e-09
9.59508e-08
3.39745e-09
9.56387e-08
3.3962e-09
9.5324e-08
3.39518e-09
9.50066e-08
3.39436e-09
9.46865e-08
3.39371e-09
9.43636e-08
3.39319e-09
9.40378e-08
3.39278e-09
9.37091e-08
3.39245e-09
9.33773e-08
3.39216e-09
9.30424e-08
3.39188e-09
9.27044e-08
3.39158e-09
9.23631e-08
3.39124e-09
9.20184e-08
3.39082e-09
9.16704e-08
3.39029e-09
9.13189e-08
3.38963e-09
9.09638e-08
3.38882e-09
9.06052e-08
3.38782e-09
9.02428e-08
3.38662e-09
8.98767e-08
3.3852e-09
8.95067e-08
3.38354e-09
8.91329e-08
3.38162e-09
8.8755e-08
3.37944e-09
8.83732e-08
3.37699e-09
8.79872e-08
3.37428e-09
8.75971e-08
3.37131e-09
8.72027e-08
3.3681e-09
8.68041e-08
3.36468e-09
8.64011e-08
3.36107e-09
8.59937e-08
3.35733e-09
8.5582e-08
3.35353e-09
8.51657e-08
3.34974e-09
8.47451e-08
3.34605e-09
8.43201e-08
3.34258e-09
8.38908e-08
3.3394e-09
8.34575e-08
3.33654e-09
8.30204e-08
3.33389e-09
8.25797e-08
3.33108e-09
8.21349e-08
3.32754e-09
3.32341e-09
6.85648e-08
2.7225e-09
-6.8432e-08
6.87042e-08
2.81232e-09
6.88499e-08
2.901e-09
6.90015e-08
2.98767e-09
6.91583e-08
3.07147e-09
6.93197e-08
3.15167e-09
6.94852e-08
3.2277e-09
6.96542e-08
3.29908e-09
6.98259e-08
3.36545e-09
6.99999e-08
3.42653e-09
7.01756e-08
3.48209e-09
7.03525e-08
3.532e-09
7.05301e-08
3.57618e-09
7.07081e-08
3.6146e-09
7.08859e-08
3.6473e-09
7.10632e-08
3.67434e-09
7.12396e-08
3.69588e-09
7.14149e-08
3.71209e-09
7.15887e-08
3.7232e-09
7.17609e-08
3.72949e-09
7.19312e-08
3.73128e-09
7.20994e-08
3.72891e-09
7.22656e-08
3.72278e-09
7.24297e-08
3.71327e-09
7.25917e-08
3.70081e-09
7.27515e-08
3.68583e-09
7.29095e-08
3.66873e-09
7.30655e-08
3.64993e-09
7.322e-08
3.62982e-09
7.33729e-08
3.60877e-09
7.35246e-08
3.58713e-09
7.36752e-08
3.56519e-09
7.38251e-08
3.54323e-09
7.39744e-08
3.52148e-09
7.41234e-08
3.50015e-09
7.42722e-08
3.4794e-09
7.44212e-08
3.45936e-09
7.45705e-08
3.44012e-09
7.47202e-08
3.42177e-09
7.48706e-08
3.40435e-09
7.50217e-08
3.38789e-09
7.51737e-08
3.37238e-09
7.53267e-08
3.35784e-09
7.54808e-08
3.34425e-09
7.5636e-08
3.33157e-09
7.57925e-08
3.31977e-09
7.59501e-08
3.30883e-09
7.61091e-08
3.2987e-09
7.62693e-08
3.28934e-09
7.64309e-08
3.28071e-09
7.65937e-08
3.27278e-09
7.67579e-08
3.26549e-09
7.69234e-08
3.25882e-09
7.70903e-08
3.25273e-09
7.72584e-08
3.24718e-09
7.74278e-08
3.24213e-09
7.75985e-08
3.23756e-09
7.77705e-08
3.23342e-09
7.79437e-08
3.2297e-09
7.81181e-08
3.22635e-09
7.82937e-08
3.22335e-09
7.84705e-08
3.22066e-09
7.86484e-08
3.21826e-09
7.88275e-08
3.21612e-09
7.90076e-08
3.2142e-09
7.91889e-08
3.21248e-09
7.93711e-08
3.21093e-09
7.95544e-08
3.20952e-09
7.97386e-08
3.20822e-09
7.99238e-08
3.20701e-09
8.01098e-08
3.20584e-09
8.02967e-08
3.2047e-09
8.04843e-08
3.20356e-09
8.06728e-08
3.20239e-09
8.08619e-08
3.20117e-09
8.10517e-08
3.19987e-09
8.1242e-08
3.19847e-09
8.14329e-08
3.19694e-09
8.16242e-08
3.19528e-09
8.1816e-08
3.19346e-09
8.2008e-08
3.19147e-09
8.22004e-08
3.1893e-09
8.23929e-08
3.18694e-09
8.25855e-08
3.1844e-09
8.27781e-08
3.18168e-09
8.29706e-08
3.17879e-09
8.3163e-08
3.17574e-09
8.3355e-08
3.17258e-09
8.35468e-08
3.16933e-09
8.37381e-08
3.16605e-09
8.39288e-08
3.16279e-09
8.41189e-08
3.15963e-09
8.43083e-08
3.15664e-09
8.4497e-08
3.15388e-09
8.4685e-08
3.15142e-09
8.48723e-08
3.14924e-09
8.50589e-08
3.14726e-09
8.52448e-08
3.14523e-09
8.54296e-08
3.14269e-09
3.13893e-09
7.57722e-08
2.57731e-09
-7.5627e-08
7.59235e-08
2.66104e-09
7.60807e-08
2.74384e-09
7.62434e-08
2.82497e-09
7.64112e-08
2.90367e-09
7.65835e-08
2.97931e-09
7.67599e-08
3.05131e-09
7.69398e-08
3.11923e-09
7.71226e-08
3.18268e-09
7.73077e-08
3.24137e-09
7.74947e-08
3.29506e-09
7.76832e-08
3.34358e-09
7.78725e-08
3.38683e-09
7.80624e-08
3.42474e-09
7.82523e-08
3.45734e-09
7.8442e-08
3.48465e-09
7.86311e-08
3.50679e-09
7.88193e-08
3.5239e-09
7.90063e-08
3.53619e-09
7.91919e-08
3.54387e-09
7.9376e-08
3.54724e-09
7.95583e-08
3.54659e-09
7.97388e-08
3.54226e-09
7.99175e-08
3.5346e-09
8.00943e-08
3.524e-09
8.02693e-08
3.51082e-09
8.04426e-08
3.49544e-09
8.06143e-08
3.47825e-09
8.07845e-08
3.4596e-09
8.09534e-08
3.43983e-09
8.11213e-08
3.41927e-09
8.12883e-08
3.3982e-09
8.14546e-08
3.37689e-09
8.16205e-08
3.35558e-09
8.17862e-08
3.33446e-09
8.19519e-08
3.31371e-09
8.21178e-08
3.29347e-09
8.22841e-08
3.27384e-09
8.24509e-08
3.25493e-09
8.26185e-08
3.23678e-09
8.27869e-08
3.21945e-09
8.29563e-08
3.20296e-09
8.31269e-08
3.18732e-09
8.32986e-08
3.17253e-09
8.34716e-08
3.15858e-09
8.36459e-08
3.14546e-09
8.38216e-08
3.13313e-09
8.39987e-08
3.12157e-09
8.41773e-08
3.11076e-09
8.43573e-08
3.10065e-09
8.45389e-08
3.09121e-09
8.4722e-08
3.08241e-09
8.49066e-08
3.07421e-09
8.50927e-08
3.06659e-09
8.52804e-08
3.05951e-09
8.54696e-08
3.05293e-09
8.56603e-08
3.04683e-09
8.58526e-08
3.04117e-09
8.60464e-08
3.03593e-09
8.62417e-08
3.03107e-09
8.64384e-08
3.02656e-09
8.66367e-08
3.02238e-09
8.68365e-08
3.0185e-09
8.70377e-08
3.01488e-09
8.72404e-08
3.0115e-09
8.74446e-08
3.00833e-09
8.76502e-08
3.00535e-09
8.78572e-08
3.00252e-09
8.80656e-08
2.99982e-09
8.82753e-08
2.99722e-09
8.84865e-08
2.9947e-09
8.8699e-08
2.99222e-09
8.89127e-08
2.98977e-09
8.91278e-08
2.98732e-09
8.93441e-08
2.98484e-09
8.95617e-08
2.98231e-09
8.97805e-08
2.97972e-09
9.00004e-08
2.97704e-09
9.02214e-08
2.97426e-09
9.04435e-08
2.97137e-09
9.06666e-08
2.96836e-09
9.08907e-08
2.96521e-09
9.11157e-08
2.96193e-09
9.13415e-08
2.95852e-09
9.15682e-08
2.95499e-09
9.17957e-08
2.95135e-09
9.20238e-08
2.94763e-09
9.22525e-08
2.94386e-09
9.24818e-08
2.94007e-09
9.27115e-08
2.93632e-09
9.29416e-08
2.93266e-09
9.31721e-08
2.92916e-09
9.34029e-08
2.92588e-09
9.36339e-08
2.92289e-09
9.3865e-08
2.92023e-09
9.40964e-08
2.91792e-09
9.43277e-08
2.9159e-09
9.45589e-08
2.91402e-09
9.47898e-08
2.91186e-09
2.90909e-09
8.37339e-08
2.41895e-09
-8.35755e-08
8.38979e-08
2.49701e-09
8.40675e-08
2.57428e-09
8.42423e-08
2.65014e-09
8.4422e-08
2.72395e-09
8.46062e-08
2.79512e-09
8.47944e-08
2.86314e-09
8.49861e-08
2.92756e-09
8.51807e-08
2.98802e-09
8.53779e-08
3.0442e-09
8.55771e-08
3.09586e-09
8.57779e-08
3.14281e-09
8.59798e-08
3.18492e-09
8.61824e-08
3.22212e-09
8.63854e-08
3.25437e-09
8.65883e-08
3.2817e-09
8.67909e-08
3.30417e-09
8.69929e-08
3.32191e-09
8.7194e-08
3.33507e-09
8.73941e-08
3.34385e-09
8.75928e-08
3.34849e-09
8.77902e-08
3.34924e-09
8.7986e-08
3.3464e-09
8.81803e-08
3.34029e-09
8.83731e-08
3.33124e-09
8.85643e-08
3.31958e-09