/*--------------------------------*- C++ -*----------------------------------*\
| =========                 |                                                 |
| \\      /  F ield         | OpenFOAM: The Open Source CFD Toolbox           |
|  \\    /   O peration     | Version:  2.3.0                                 |
|   \\  /    A nd           | Web:      www.OpenFOAM.org                      |
|    \\/     M anipulation  |                                                 |
\*---------------------------------------------------------------------------*/
FoamFile
{
    version     2.0;
    format      ascii;
    class       volVectorField;
    location    "0.6";
    object      U_0;
}
// * * * * * * * * * * * * * * * * * * * * * * * * * * * * * * * * * * * * * //

dimensions      [0 1 -1 0 0 0 0];

internalField   nonuniform List<vector> 
2250
(
(0.184648 0.00407587 1.19012e-06)
(0.177452 0.0044463 3.07399e-06)
(0.170049 0.00453779 4.40441e-06)
(0.162475 0.00449578 5.46353e-06)
(0.154922 0.00438503 6.30453e-06)
(0.147492 0.00422987 6.87136e-06)
(0.140211 0.00404433 7.14101e-06)
(0.133097 0.00383922 7.12033e-06)
(0.126168 0.0036222 6.81339e-06)
(0.119444 0.00339831 6.21668e-06)
(0.112944 0.003171 5.32788e-06)
(0.106684 0.0029428 4.15129e-06)
(0.100677 0.00271573 2.69849e-06)
(0.0949371 0.00249148 9.88146e-07)
(0.0894749 0.00227159 -9.54077e-07)
(0.0842998 0.00205747 -3.09547e-06)
(0.0794188 0.00185047 -5.39683e-06)
(0.0748366 0.00165188 -7.8135e-06)
(0.0705552 0.00146294 -1.0297e-05)
(0.0665741 0.00128476 -1.27967e-05)
(0.0628897 0.00111831 -1.52624e-05)
(0.059496 0.000964388 -1.76459e-05)
(0.0563841 0.000823546 -1.99034e-05)
(0.0535428 0.000696096 -2.19974e-05)
(0.0509588 0.000582084 -2.38977e-05)
(0.048617 0.000481297 -2.55825e-05)
(0.0465009 0.000393279 -2.70388e-05)
(0.044593 0.00031737 -2.82618e-05)
(0.0428756 0.000252745 -2.92546e-05)
(0.0413305 0.000198463 -3.00269e-05)
(0.03994 0.000153515 -3.05938e-05)
(0.0386872 0.00011686 -3.09743e-05)
(0.0375558 8.74677e-05 -3.11899e-05)
(0.0365308 6.43384e-05 -3.12634e-05)
(0.0355985 4.65293e-05 -3.12174e-05)
(0.0347463 3.31659e-05 -3.10739e-05)
(0.0339634 2.34524e-05 -3.08532e-05)
(0.03324 1.66773e-05 -3.05734e-05)
(0.0325677 1.22156e-05 -3.02506e-05)
(0.0319395 9.52867e-06 -2.98982e-05)
(0.0313491 8.16058e-06 -2.95274e-05)
(0.0307916 7.73382e-06 -2.91472e-05)
(0.0302627 7.94239e-06 -2.87645e-05)
(0.0297591 8.5451e-06 -2.83845e-05)
(0.0292779 9.36263e-06 -2.8011e-05)
(0.0288169 1.02629e-05 -2.76466e-05)
(0.0283741 1.11516e-05 -2.72928e-05)
(0.0279482 1.19645e-05 -2.69506e-05)
(0.0275378 1.26616e-05 -2.66203e-05)
(0.027142 1.32209e-05 -2.6302e-05)
(0.02676 1.36342e-05 -2.59955e-05)
(0.026391 1.39029e-05 -2.57006e-05)
(0.0260345 1.4035e-05 -2.54171e-05)
(0.0256898 1.40423e-05 -2.51446e-05)
(0.0253566 1.39387e-05 -2.48831e-05)
(0.0250344 1.37392e-05 -2.46325e-05)
(0.0247228 1.34582e-05 -2.43927e-05)
(0.0244213 1.31095e-05 -2.4164e-05)
(0.0241297 1.27056e-05 -2.39464e-05)
(0.0238475 1.22577e-05 -2.37402e-05)
(0.0235744 1.17754e-05 -2.35457e-05)
(0.0233101 1.12671e-05 -2.33631e-05)
(0.0230543 1.07396e-05 -2.31927e-05)
(0.0228067 1.01989e-05 -2.30346e-05)
(0.0225671 9.64954e-06 -2.2889e-05)
(0.0223351 9.09541e-06 -2.2756e-05)
(0.0221105 8.53952e-06 -2.26356e-05)
(0.0218932 7.98426e-06 -2.25274e-05)
(0.0216828 7.43148e-06 -2.24314e-05)
(0.0214793 6.88259e-06 -2.23468e-05)
(0.0212823 6.33863e-06 -2.22731e-05)
(0.0210918 5.80036e-06 -2.22094e-05)
(0.0209076 5.26831e-06 -2.21546e-05)
(0.0207296 4.74283e-06 -2.21072e-05)
(0.0205575 4.22415e-06 -2.20656e-05)
(0.0203914 3.71239e-06 -2.20279e-05)
(0.0202311 3.20762e-06 -2.19916e-05)
(0.0200766 2.70984e-06 -2.19541e-05)
(0.0199276 2.21906e-06 -2.19121e-05)
(0.0197842 1.73527e-06 -2.1862e-05)
(0.0196462 1.25845e-06 -2.17997e-05)
(0.0195137 7.8872e-07 -2.17203e-05)
(0.0193864 3.2618e-07 -2.16183e-05)
(0.0192645 -1.2892e-07 -2.14874e-05)
(0.0191477 -5.76183e-07 -2.13207e-05)
(0.0190361 -1.01506e-06 -2.11099e-05)
(0.0189296 -1.44472e-06 -2.08459e-05)
(0.018828 -1.86399e-06 -2.05183e-05)
(0.0187314 -2.27125e-06 -2.01152e-05)
(0.0186396 -2.66416e-06 -1.96232e-05)
(0.0185526 -3.03936e-06 -1.90268e-05)
(0.0184701 -3.39184e-06 -1.83083e-05)
(0.0183919 -3.714e-06 -1.74471e-05)
(0.0183179 -3.99348e-06 -1.64195e-05)
(0.0182475 -4.20855e-06 -1.51965e-05)
(0.0181802 -4.31658e-06 -1.37432e-05)
(0.0181147 -4.21856e-06 -1.20142e-05)
(0.018049 -3.86864e-06 -9.94149e-06)
(0.0179853 -2.9931e-06 -7.41194e-06)
(0.0177624 4.05597e-05 -4.92832e-06)
(0.193867 0.00625462 8.2778e-07)
(0.19371 0.00684796 2.42164e-06)
(0.193067 0.00706686 3.77919e-06)
(0.191939 0.0071283 4.84929e-06)
(0.190427 0.00711748 5.66005e-06)
(0.188606 0.00705698 6.21236e-06)
(0.18651 0.00695704 6.49848e-06)
(0.184169 0.00682615 6.52247e-06)
(0.181612 0.00667011 6.29237e-06)
(0.178868 0.00649227 5.81282e-06)
(0.175966 0.00629476 5.08709e-06)
(0.172932 0.00607934 4.12107e-06)
(0.169792 0.00584777 2.92502e-06)
(0.166569 0.0056019 1.51383e-06)
(0.163287 0.00534375 -9.27951e-08)
(0.159965 0.00507555 -1.87014e-06)
(0.156625 0.00479969 -3.78861e-06)
(0.153285 0.00451875 -5.81435e-06)
(0.149961 0.00423541 -7.91019e-06)
(0.146669 0.00395238 -1.00369e-05)
(0.143422 0.00367237 -1.21546e-05)
(0.14023 0.00339798 -1.42245e-05)
(0.137104 0.00313163 -1.62104e-05)
(0.134053 0.00287549 -1.808e-05)
(0.13108 0.00263144 -1.98062e-05)
(0.128193 0.002401 -2.13681e-05)
(0.125393 0.00218532 -2.27512e-05)
(0.122683 0.00198514 -2.39476e-05)
(0.120063 0.00180086 -2.49557e-05)
(0.117534 0.00163249 -2.57795e-05)
(0.115094 0.00147975 -2.6428e-05)
(0.112742 0.00134207 -2.69139e-05)
(0.110476 0.00121867 -2.72524e-05)
(0.108293 0.00110861 -2.74606e-05)
(0.106191 0.00101082 -2.75564e-05)
(0.104166 0.000924205 -2.75574e-05)
(0.102216 0.000847621 -2.74805e-05)
(0.100339 0.000779958 -2.73414e-05)
(0.0985295 0.000720152 -2.71541e-05)
(0.0967862 0.000667208 -2.6931e-05)
(0.0951057 0.000620217 -2.66825e-05)
(0.0934853 0.000578361 -2.64173e-05)
(0.0919221 0.000540914 -2.61424e-05)
(0.0904137 0.000507242 -2.58632e-05)
(0.0889575 0.000476793 -2.55839e-05)
(0.0875511 0.000449093 -2.53076e-05)
(0.0861923 0.000423751 -2.50363e-05)
(0.0848789 0.000400439 -2.47717e-05)
(0.0836089 0.000378887 -2.45145e-05)
(0.0823804 0.000358874 -2.42654e-05)
(0.0811914 0.000340217 -2.40246e-05)
(0.0800404 0.000322767 -2.37922e-05)
(0.0789256 0.0003064 -2.35682e-05)
(0.0778455 0.000291016 -2.33528e-05)
(0.0767986 0.000276527 -2.31459e-05)
(0.0757836 0.00026286 -2.29477e-05)
(0.0747991 0.000249953 -2.27584e-05)
(0.0738438 0.000237748 -2.2578e-05)
(0.0729166 0.000226197 -2.2407e-05)
(0.0720164 0.000215253 -2.22456e-05)
(0.0711422 0.000204876 -2.20942e-05)
(0.0702928 0.000195026 -2.1953e-05)
(0.0694675 0.000185668 -2.18224e-05)
(0.0686654 0.000176767 -2.17027e-05)
(0.0678855 0.000168291 -2.1594e-05)
(0.0671272 0.000160211 -2.14964e-05)
(0.0663897 0.000152498 -2.14101e-05)
(0.0656724 0.000145125 -2.13348e-05)
(0.0649746 0.000138068 -2.12703e-05)
(0.0642957 0.000131303 -2.12162e-05)
(0.0636353 0.000124809 -2.11719e-05)
(0.0629927 0.000118565 -2.11367e-05)
(0.0623676 0.000112553 -2.11094e-05)
(0.0617595 0.000106755 -2.10888e-05)
(0.061168 0.000101156 -2.10733e-05)
(0.0605927 9.57404e-05 -2.1061e-05)
(0.0600332 9.04953e-05 -2.10496e-05)
(0.0594894 8.54084e-05 -2.10366e-05)
(0.0589608 8.04688e-05 -2.10189e-05)
(0.0584472 7.56665e-05 -2.09929e-05)
(0.0579483 7.09925e-05 -2.09546e-05)
(0.0574639 6.64392e-05 -2.08993e-05)
(0.0569937 6.19997e-05 -2.08216e-05)
(0.0565376 5.76683e-05 -2.07154e-05)
(0.0560952 5.34405e-05 -2.05737e-05)
(0.0556665 4.93128e-05 -2.03887e-05)
(0.0552511 4.52832e-05 -2.01512e-05)
(0.0548489 4.13514e-05 -1.98511e-05)
(0.0544596 3.75189e-05 -1.94767e-05)
(0.0540829 3.37901e-05 -1.90147e-05)
(0.0537185 3.01735e-05 -1.84499e-05)
(0.0533661 2.66839e-05 -1.7765e-05)
(0.0530252 2.33463e-05 -1.69396e-05)
(0.0526952 2.02054e-05 -1.59504e-05)
(0.0523753 1.73458e-05 -1.47694e-05)
(0.0520644 1.49438e-05 -1.33628e-05)
(0.05176 1.34135e-05 -1.16881e-05)
(0.0514582 1.39103e-05 -9.6842e-06)
(0.0511614 2.33212e-05 -7.29787e-06)
(0.0506468 0.000105889 -6.03224e-06)
(0.194972 0.00544185 6.58907e-07)
(0.195388 0.00604228 2.01085e-06)
(0.195771 0.00645321 3.2285e-06)
(0.196028 0.00676629 4.1759e-06)
(0.196149 0.00701825 4.87333e-06)
(0.19614 0.00721364 5.3589e-06)
(0.195996 0.00735366 5.63464e-06)
(0.195711 0.00744223 5.69609e-06)
(0.195284 0.00748355 5.54677e-06)
(0.194715 0.00748092 5.19269e-06)
(0.194007 0.00743712 4.63849e-06)
(0.193165 0.00735487 3.88901e-06)
(0.192195 0.00723709 2.95148e-06)
(0.191102 0.00708683 1.83635e-06)
(0.189895 0.0069074 5.57486e-07)
(0.188582 0.00670227 -8.67738e-07)
(0.187172 0.00647512 -2.41846e-06)
(0.185674 0.0062298 -4.07056e-06)
(0.184099 0.00597026 -5.79714e-06)
(0.182456 0.00570048 -7.56925e-06)
(0.180756 0.00542439 -9.35682e-06)
(0.179007 0.00514574 -1.11296e-05)
(0.177219 0.00486809 -1.28585e-05)
(0.1754 0.00459464 -1.45163e-05)
(0.173558 0.00432821 -1.60787e-05)
(0.171701 0.00407115 -1.75255e-05)
(0.169835 0.00382537 -1.88408e-05)
(0.167966 0.00359225 -2.00134e-05)
(0.166098 0.00337273 -2.10372e-05)
(0.164236 0.00316729 -2.19103e-05)
(0.162384 0.00297602 -2.26354e-05)
(0.160544 0.00279868 -2.32188e-05)
(0.158719 0.00263476 -2.36696e-05)
(0.156911 0.00248356 -2.39994e-05)
(0.15512 0.00234422 -2.42209e-05)
(0.153349 0.00221581 -2.43478e-05)
(0.151598 0.00209737 -2.43939e-05)
(0.149867 0.00198795 -2.43726e-05)
(0.148157 0.00188664 -2.42963e-05)
(0.146469 0.00179258 -2.41766e-05)
(0.144803 0.00170499 -2.40236e-05)
(0.143158 0.00162317 -2.38461e-05)
(0.141536 0.00154651 -2.36514e-05)
(0.139935 0.00147446 -2.34456e-05)
(0.138357 0.00140654 -2.32335e-05)
(0.1368 0.00134236 -2.30188e-05)
(0.135267 0.00128158 -2.28047e-05)
(0.133755 0.0012239 -2.25931e-05)
(0.132266 0.00116907 -2.23858e-05)
(0.1308 0.0011169 -2.21839e-05)
(0.129356 0.00106719 -2.1988e-05)
(0.127934 0.00101981 -2.17987e-05)
(0.126535 0.000974607 -2.16163e-05)
(0.125159 0.000931469 -2.14412e-05)
(0.123805 0.000890288 -2.12735e-05)
(0.122473 0.000850964 -2.11134e-05)
(0.121164 0.000813404 -2.09612e-05)
(0.119878 0.000777523 -2.08172e-05)
(0.118613 0.000743237 -2.06815e-05)
(0.117371 0.000710467 -2.05545e-05)
(0.116151 0.000679138 -2.04366e-05)
(0.114952 0.000649175 -2.03279e-05)
(0.113775 0.000620508 -2.02289e-05)
(0.11262 0.000593067 -2.01398e-05)
(0.111487 0.000566786 -2.00607e-05)
(0.110374 0.000541602 -1.99919e-05)
(0.109283 0.000517452 -1.99332e-05)
(0.108213 0.000494277 -1.98847e-05)
(0.107164 0.000472021 -1.9846e-05)
(0.106135 0.000450629 -1.9817e-05)
(0.105126 0.00043005 -1.97969e-05)
(0.104138 0.000410234 -1.97851e-05)
(0.103171 0.000391136 -1.97805e-05)
(0.102223 0.000372711 -1.97821e-05)
(0.101295 0.000354917 -1.97882e-05)
(0.100387 0.000337716 -1.97972e-05)
(0.0994981 0.000321071 -1.98068e-05)
(0.098629 0.000304948 -1.98147e-05)
(0.0977793 0.000289315 -1.98178e-05)
(0.0969489 0.000274142 -1.98127e-05)
(0.0961377 0.000259402 -1.97956e-05)
(0.0953455 0.00024507 -1.9762e-05)
(0.0945722 0.000231124 -1.97066e-05)
(0.0938178 0.000217544 -1.96237e-05)
(0.0930822 0.000204313 -1.95064e-05)
(0.0923652 0.000191414 -1.93471e-05)
(0.0916666 0.000178838 -1.91371e-05)
(0.0909864 0.000166577 -1.88666e-05)
(0.0903244 0.000154626 -1.85241e-05)
(0.0896804 0.000142988 -1.8097e-05)
(0.0890541 0.000131676 -1.75706e-05)
(0.0884451 0.000120714 -1.69283e-05)
(0.0878531 0.00011015 -1.61509e-05)
(0.0872775 0.000100074 -1.52169e-05)
(0.0867174 9.0666e-05 -1.41015e-05)
(0.0861714 8.23113e-05 -1.27779e-05)
(0.0856372 7.59549e-05 -1.12214e-05)
(0.0851109 7.46125e-05 -9.43724e-06)
(0.0845931 9.22682e-05 -7.73494e-06)
(0.0838834 0.000179887 -8.52831e-06)
(0.195668 0.00518447 4.75691e-07)
(0.196 0.0057708 1.46183e-06)
(0.196386 0.00622718 2.44105e-06)
(0.19676 0.00658636 3.29762e-06)
(0.197104 0.00687497 3.98755e-06)
(0.197418 0.00710473 4.51352e-06)
(0.197698 0.007282 4.86899e-06)
(0.197938 0.00741262 5.04037e-06)
(0.198131 0.00750159 5.02305e-06)
(0.198271 0.00755239 4.82108e-06)
(0.198353 0.00756736 4.44105e-06)
(0.198372 0.00754826 3.89005e-06)
(0.198326 0.00749669 3.17649e-06)
(0.198209 0.00741433 2.31077e-06)
(0.198021 0.00730302 1.30537e-06)
(0.197759 0.00716491 1.74674e-07)
(0.197423 0.00700243 -1.06503e-06)
(0.197013 0.00681838 -2.3956e-06)
(0.196531 0.00661582 -3.79723e-06)
(0.195979 0.00639805 -5.24878e-06)
(0.19536 0.0061685 -6.72819e-06)
(0.194677 0.00593064 -8.213e-06)
(0.193934 0.00568787 -9.68101e-06)
(0.193137 0.00544344 -1.11109e-05)
(0.192289 0.00520034 -1.2483e-05)
(0.191395 0.00496123 -1.37797e-05)
(0.19046 0.00472838 -1.49861e-05)
(0.189489 0.00450364 -1.60905e-05)
(0.188486 0.00428846 -1.70845e-05)
(0.187454 0.00408383 -1.7963e-05)
(0.186399 0.00389037 -1.87244e-05)
(0.185323 0.00370835 -1.937e-05)
(0.184229 0.00353774 -1.99039e-05)
(0.183121 0.00337823 -2.03324e-05)
(0.181999 0.00322937 -2.06635e-05)
(0.180866 0.00309052 -2.09065e-05)
(0.179724 0.00296099 -2.10711e-05)
(0.178573 0.00284001 -2.11675e-05)
(0.177416 0.00272682 -2.12058e-05)
(0.176253 0.00262066 -2.11954e-05)
(0.175085 0.00252081 -2.11451e-05)
(0.173913 0.00242661 -2.1063e-05)
(0.172737 0.00233744 -2.09561e-05)
(0.171558 0.00225277 -2.08306e-05)
(0.170376 0.00217211 -2.06916e-05)
(0.169193 0.00209506 -2.05436e-05)
(0.168008 0.00202126 -2.03901e-05)
(0.166822 0.00195041 -2.0234e-05)
(0.165635 0.00188226 -2.00775e-05)
(0.164449 0.00181658 -1.99223e-05)
(0.163263 0.0017532 -1.97698e-05)
(0.162078 0.00169197 -1.96211e-05)
(0.160895 0.00163276 -1.94768e-05)
(0.159714 0.00157546 -1.93378e-05)
(0.158535 0.00151999 -1.92045e-05)
(0.157359 0.00146625 -1.90773e-05)
(0.156187 0.00141418 -1.89567e-05)
(0.15502 0.0013637 -1.8843e-05)
(0.153856 0.00131477 -1.87366e-05)
(0.152698 0.00126731 -1.8638e-05)
(0.151545 0.00122129 -1.85473e-05)
(0.150399 0.00117663 -1.8465e-05)
(0.149258 0.00113331 -1.83913e-05)
(0.148125 0.00109125 -1.83265e-05)
(0.146999 0.00105042 -1.82708e-05)
(0.145881 0.00101078 -1.82244e-05)
(0.144772 0.000972261 -1.81873e-05)
(0.143671 0.000934835 -1.81593e-05)
(0.142579 0.000898453 -1.81404e-05)
(0.141496 0.000863073 -1.81302e-05)
(0.140424 0.000828653 -1.81283e-05)
(0.139362 0.000795153 -1.81339e-05)
(0.138311 0.000762533 -1.81461e-05)
(0.137271 0.000730756 -1.81639e-05)
(0.136243 0.000699786 -1.81859e-05)
(0.135227 0.000669586 -1.82104e-05)
(0.134223 0.000640124 -1.82353e-05)
(0.133232 0.000611367 -1.82584e-05)
(0.132254 0.000583286 -1.82769e-05)
(0.131289 0.00055585 -1.82875e-05)
(0.130339 0.000529033 -1.82866e-05)
(0.129402 0.000502811 -1.82698e-05)
(0.12848 0.000477158 -1.82321e-05)
(0.127573 0.000452056 -1.8168e-05)
(0.126682 0.000427485 -1.80711e-05)
(0.125805 0.00040343 -1.79339e-05)
(0.124944 0.000379881 -1.77482e-05)
(0.1241 0.00035683 -1.75045e-05)
(0.123271 0.000334278 -1.71921e-05)
(0.122458 0.000312232 -1.67988e-05)
(0.121662 0.000290715 -1.6311e-05)
(0.120882 0.000269769 -1.57135e-05)
(0.120119 0.000249473 -1.49892e-05)
(0.119371 0.000229974 -1.41202e-05)
(0.118639 0.00021156 -1.3089e-05)
(0.117921 0.000194844 -1.18854e-05)
(0.117216 0.000181316 -1.05279e-05)
(0.116522 0.000175282 -9.15584e-06)
(0.115843 0.000190935 -8.46132e-06)
(0.115004 0.000258747 -1.10454e-05)
(0.19626 0.00495203 3.48271e-07)
(0.196493 0.00545025 1.08453e-06)
(0.196785 0.00586321 1.87795e-06)
(0.197099 0.00620145 2.63615e-06)
(0.197418 0.00648185 3.27904e-06)
(0.197738 0.00671473 3.78281e-06)
(0.198056 0.00690535 4.14253e-06)
(0.198366 0.00705738 4.35041e-06)
(0.198665 0.00717392 4.40154e-06)
(0.198949 0.00725722 4.29827e-06)
(0.199214 0.00730884 4.04705e-06)
(0.199457 0.00732993 3.65513e-06)
(0.199673 0.00732152 3.13014e-06)
(0.199859 0.00728475 2.48056e-06)
(0.200012 0.00722091 1.71595e-06)
(0.200127 0.00713157 8.46911e-07)
(0.200204 0.00701857 -1.14988e-07)
(0.200238 0.00688408 -1.15714e-06)
(0.200227 0.00673052 -2.26595e-06)
(0.200172 0.00656059 -3.4269e-06)
(0.200071 0.00637714 -4.62467e-06)
(0.199923 0.00618316 -5.84342e-06)
(0.19973 0.00598161 -7.06699e-06)
(0.199492 0.00577541 -8.27935e-06)
(0.199212 0.00556732 -9.46489e-06)
(0.198891 0.00535985 -1.06089e-05)
(0.198531 0.00515524 -1.16979e-05)
(0.198135 0.00495538 -1.27202e-05)
(0.197706 0.00476183 -1.3666e-05)
(0.197246 0.00457577 -1.45278e-05)
(0.196758 0.00439803 -1.53005e-05)
(0.196244 0.00422911 -1.59814e-05)
(0.195706 0.00406924 -1.65699e-05)
(0.195147 0.00391839 -1.70679e-05)
(0.194568 0.00377633 -1.74788e-05)
(0.19397 0.00364267 -1.78078e-05)
(0.193356 0.00351692 -1.80612e-05)
(0.192726 0.00339852 -1.8246e-05)
(0.192082 0.00328686 -1.83699e-05)
(0.191424 0.00318133 -1.84406e-05)
(0.190752 0.00308133 -1.84658e-05)
(0.190068 0.00298631 -1.84528e-05)
(0.189372 0.00289575 -1.84085e-05)
(0.188663 0.00280916 -1.8339e-05)
(0.187944 0.00272614 -1.82501e-05)
(0.187213 0.00264631 -1.81465e-05)
(0.186471 0.00256936 -1.80324e-05)
(0.185719 0.00249501 -1.79112e-05)
(0.184957 0.00242303 -1.7786e-05)
(0.184184 0.00235323 -1.76592e-05)
(0.183402 0.00228544 -1.75326e-05)
(0.18261 0.00221953 -1.7408e-05)
(0.181809 0.00215537 -1.72864e-05)
(0.180999 0.00209287 -1.71689e-05)
(0.180181 0.00203194 -1.70563e-05)
(0.179355 0.00197251 -1.69493e-05)
(0.178521 0.00191452 -1.68484e-05)
(0.177679 0.0018579 -1.6754e-05)
(0.176831 0.0018026 -1.66666e-05)
(0.175976 0.00174857 -1.65864e-05)
(0.175114 0.00169576 -1.65139e-05)
(0.174247 0.00164412 -1.64492e-05)
(0.173375 0.0015936 -1.63927e-05)
(0.172497 0.00154417 -1.63445e-05)
(0.171616 0.00149578 -1.63047e-05)
(0.17073 0.00144839 -1.62734e-05)
(0.16984 0.00140195 -1.62507e-05)
(0.168948 0.00135643 -1.62364e-05)
(0.168053 0.0013118 -1.62304e-05)
(0.167155 0.001268 -1.62322e-05)
(0.166257 0.00122501 -1.62415e-05)
(0.165357 0.0011828 -1.62576e-05)
(0.164456 0.00114132 -1.62796e-05)
(0.163556 0.00110055 -1.63065e-05)
(0.162656 0.00106047 -1.63371e-05)
(0.161757 0.00102103 -1.63696e-05)
(0.16086 0.000982221 -1.64024e-05)
(0.159965 0.000944011 -1.6433e-05)
(0.159072 0.000906379 -1.6459e-05)
(0.158183 0.000869304 -1.64773e-05)
(0.157298 0.000832767 -1.64843e-05)
(0.156417 0.000796751 -1.6476e-05)
(0.155541 0.000761241 -1.64477e-05)
(0.154671 0.000726226 -1.63941e-05)
(0.153807 0.000691697 -1.63091e-05)
(0.152949 0.000657647 -1.61857e-05)
(0.152098 0.000624077 -1.6016e-05)
(0.151256 0.000590991 -1.57913e-05)
(0.150421 0.000558402 -1.55015e-05)
(0.149595 0.000526336 -1.51354e-05)
(0.148778 0.000494832 -1.46809e-05)
(0.14797 0.000463963 -1.41247e-05)
(0.147171 0.000433847 -1.34534e-05)
(0.146382 0.000404695 -1.26552e-05)
(0.145603 0.000376902 -1.17248e-05)
(0.144833 0.000351275 -1.06778e-05)
(0.144071 0.000329626 -9.59256e-06)
(0.143319 0.00031638 -8.73886e-06)
(0.142585 0.000321805 -8.92773e-06)
(0.141712 0.00035557 -1.18628e-05)
(0.196779 0.0047769 2.44346e-07)
(0.196948 0.00519893 7.5932e-07)
(0.197168 0.00557058 1.33023e-06)
(0.197419 0.00589072 1.9089e-06)
(0.197688 0.00616509 2.43209e-06)
(0.197967 0.00639861 2.86988e-06)
(0.198252 0.00659415 3.21326e-06)
(0.198538 0.0067539 3.45355e-06)
(0.198822 0.00688001 3.58149e-06)
(0.199103 0.00697444 3.59261e-06)
(0.199376 0.00703883 3.48753e-06)
(0.199641 0.00707458 3.26933e-06)
(0.199894 0.00708298 2.94219e-06)
(0.200134 0.0070653 2.51128e-06)
(0.200357 0.00702292 1.98275e-06)
(0.200562 0.00695733 1.36371e-06)
(0.200745 0.00687022 6.62028e-07)
(0.200905 0.00676343 -1.13735e-07)
(0.201041 0.00663906 -9.54309e-07)
(0.201149 0.00649933 -1.84972e-06)
(0.201229 0.00634663 -2.78933e-06)
(0.201281 0.00618343 -3.76185e-06)
(0.201303 0.00601224 -4.75546e-06)
(0.201296 0.00583551 -5.75798e-06)
(0.20126 0.0056556 -6.75705e-06)
(0.201195 0.00547473 -7.7404e-06)
(0.201103 0.00529487 -8.69619e-06)
(0.200985 0.00511777 -9.61333e-06)
(0.200843 0.00494488 -1.04818e-05)
(0.200678 0.00477739 -1.1293e-05)
(0.200491 0.00461617 -1.20399e-05)
(0.200284 0.00446183 -1.27174e-05)
(0.200059 0.00431474 -1.3322e-05)
(0.199818 0.00417503 -1.38525e-05)
(0.19956 0.00404266 -1.43091e-05)
(0.199288 0.00391742 -1.46938e-05)
(0.199002 0.00379901 -1.50099e-05)
(0.198703 0.00368702 -1.52618e-05)
(0.198392 0.003581 -1.54547e-05)
(0.19807 0.00348049 -1.55945e-05)
(0.197736 0.003385 -1.56871e-05)
(0.197391 0.00329405 -1.57388e-05)
(0.197036 0.00320721 -1.57554e-05)
(0.19667 0.00312404 -1.57428e-05)
(0.196293 0.00304419 -1.57061e-05)
(0.195906 0.00296729 -1.56502e-05)
(0.195508 0.00289306 -1.55794e-05)
(0.1951 0.00282122 -1.54973e-05)
(0.194681 0.00275155 -1.54073e-05)
(0.194251 0.00268386 -1.53122e-05)
(0.193811 0.00261796 -1.52142e-05)
(0.19336 0.00255373 -1.51153e-05)
(0.192898 0.00249102 -1.50171e-05)
(0.192426 0.00242975 -1.49209e-05)
(0.191943 0.00236981 -1.48278e-05)
(0.191449 0.00231113 -1.47387e-05)
(0.190945 0.00225363 -1.46542e-05)
(0.190431 0.00219725 -1.4575e-05)
(0.189906 0.00214193 -1.45015e-05)
(0.189371 0.00208762 -1.44343e-05)
(0.188826 0.00203427 -1.43736e-05)
(0.188271 0.00198183 -1.43198e-05)
(0.187706 0.00193025 -1.42731e-05)
(0.187131 0.00187949 -1.42337e-05)
(0.186547 0.00182951 -1.42018e-05)
(0.185953 0.00178027 -1.41774e-05)
(0.185351 0.00173173 -1.41606e-05)
(0.18474 0.00168384 -1.41511e-05)
(0.18412 0.00163658 -1.4149e-05)
(0.183492 0.00158991 -1.41537e-05)
(0.182856 0.0015438 -1.4165e-05)
(0.182213 0.00149821 -1.41822e-05)
(0.181562 0.00145311 -1.42045e-05)
(0.180904 0.00140847 -1.42309e-05)
(0.180239 0.00136428 -1.42603e-05)
(0.179568 0.0013205 -1.42911e-05)
(0.178892 0.00127711 -1.43217e-05)
(0.178209 0.00123409 -1.43499e-05)
(0.177522 0.00119142 -1.43733e-05)
(0.17683 0.00114909 -1.43891e-05)
(0.176135 0.00110708 -1.43939e-05)
(0.175435 0.00106538 -1.43839e-05)
(0.174732 0.00102397 -1.43548e-05)
(0.174027 0.000982867 -1.43015e-05)
(0.173319 0.000942055 -1.42183e-05)
(0.172609 0.00090154 -1.40988e-05)
(0.171898 0.000861329 -1.39356e-05)
(0.171187 0.000821439 -1.37206e-05)
(0.170475 0.000781896 -1.34448e-05)
(0.169763 0.00074274 -1.30983e-05)
(0.169052 0.000704031 -1.26707e-05)
(0.168342 0.000665868 -1.21518e-05)
(0.167633 0.000628406 -1.15329e-05)
(0.166926 0.000591908 -1.08102e-05)
(0.16622 0.000556844 -9.99335e-06)
(0.165517 0.000524107 -9.1253e-06)
(0.164816 0.000495466 -8.3299e-06)
(0.164121 0.000474366 -7.90938e-06)
(0.163442 0.000465649 -8.41509e-06)
(0.162635 0.000463499 -9.9941e-06)
(0.197239 0.00463311 1.54563e-07)
(0.197368 0.00499216 4.80046e-07)
(0.197536 0.00532074 8.53872e-07)
(0.197735 0.00561364 1.26262e-06)
(0.197956 0.00587074 1.66761e-06)
(0.19819 0.0060935 2.03818e-06)
(0.198433 0.00628334 2.35717e-06)
(0.198682 0.00644161 2.61171e-06)
(0.198933 0.00656974 2.79008e-06)
(0.199183 0.00666915 2.88428e-06)
(0.199432 0.00674119 2.89117e-06)
(0.199675 0.00678704 2.81093e-06)
(0.199912 0.00680785 2.6454e-06)
(0.200141 0.00680475 2.3974e-06)
(0.200359 0.00677898 2.07052e-06)
(0.200566 0.00673186 1.66897e-06)
(0.200759 0.00666485 1.19737e-06)
(0.200936 0.00657958 6.60742e-07)
(0.201097 0.00647784 6.44898e-08)
(0.20124 0.00636154 -5.85493e-07)
(0.201364 0.00623273 -1.28274e-06)
(0.201468 0.00609353 -2.02013e-06)
(0.201553 0.00594608 -2.78983e-06)
(0.201617 0.00579254 -3.58334e-06)
(0.201662 0.00563495 -4.39153e-06)
(0.201687 0.00547527 -5.2048e-06)
(0.201693 0.00531529 -6.01329e-06)
(0.201681 0.0051566 -6.80715e-06)
(0.201653 0.00500056 -7.57687e-06)
(0.201608 0.00484833 -8.31357e-06)
(0.201549 0.00470079 -9.0093e-06)
(0.201477 0.00455863 -9.65731e-06)
(0.201393 0.0044223 -1.02522e-05)
(0.201297 0.00429205 -1.07902e-05)
(0.201191 0.00416797 -1.12689e-05)
(0.201076 0.00405 -1.16876e-05)
(0.200952 0.00393798 -1.20468e-05)
(0.200821 0.00383164 -1.23484e-05)
(0.200682 0.00373067 -1.25953e-05)
(0.200536 0.00363469 -1.27913e-05)
(0.200384 0.00354333 -1.29405e-05)
(0.200225 0.00345621 -1.30479e-05)
(0.20006 0.00337294 -1.31183e-05)
(0.199889 0.00329317 -1.31566e-05)
(0.199711 0.00321657 -1.31676e-05)
(0.199527 0.00314281 -1.31558e-05)
(0.199336 0.00307164 -1.31255e-05)
(0.199138 0.00300279 -1.30805e-05)
(0.198934 0.00293605 -1.30242e-05)
(0.198722 0.00287123 -1.29596e-05)
(0.198503 0.00280815 -1.28894e-05)
(0.198277 0.00274668 -1.28157e-05)
(0.198043 0.00268667 -1.27404e-05)
(0.197801 0.00262802 -1.26651e-05)
(0.197551 0.00257063 -1.25912e-05)
(0.197293 0.00251442 -1.25196e-05)
(0.197026 0.00245929 -1.24513e-05)
(0.196752 0.00240518 -1.23871e-05)
(0.196468 0.00235203 -1.23274e-05)
(0.196176 0.00229977 -1.22728e-05)
(0.195875 0.00224834 -1.22236e-05)
(0.195565 0.00219768 -1.21802e-05)
(0.195246 0.00214776 -1.21429e-05)
(0.194918 0.00209851 -1.21117e-05)
(0.194581 0.00204988 -1.20868e-05)
(0.194234 0.00200183 -1.20683e-05)
(0.193879 0.00195432 -1.20561e-05)
(0.193514 0.0019073 -1.20502e-05)
(0.19314 0.00186072 -1.20502e-05)
(0.192757 0.00181455 -1.2056e-05)
(0.192364 0.00176875 -1.2067e-05)
(0.191963 0.00172328 -1.20827e-05)
(0.191553 0.0016781 -1.21023e-05)
(0.191133 0.00163319 -1.2125e-05)
(0.190705 0.00158851 -1.21495e-05)
(0.190268 0.00154404 -1.21746e-05)
(0.189823 0.00149974 -1.21985e-05)
(0.189369 0.00145559 -1.22194e-05)
(0.188907 0.00141157 -1.22349e-05)
(0.188437 0.00136767 -1.22424e-05)
(0.187958 0.00132386 -1.22388e-05)
(0.187473 0.00128014 -1.22205e-05)
(0.186979 0.00123649 -1.21835e-05)
(0.186479 0.00119291 -1.2123e-05)
(0.185972 0.0011494 -1.20338e-05)
(0.185458 0.00110597 -1.19098e-05)
(0.184938 0.00106262 -1.17445e-05)
(0.184411 0.00101937 -1.15305e-05)
(0.183879 0.000976262 -1.12598e-05)
(0.183342 0.000933338 -1.09241e-05)
(0.182799 0.000890674 -1.05152e-05)
(0.182251 0.000848381 -1.00264e-05)
(0.181699 0.00080664 -9.45399e-06)
(0.181142 0.000765739 -8.80275e-06)
(0.180581 0.000726164 -8.09488e-06)
(0.180017 0.000688744 -7.38894e-06)
(0.179451 0.000654856 -6.81022e-06)
(0.178886 0.000626371 -6.56235e-06)
(0.178331 0.000603368 -6.70665e-06)
(0.177658 0.000572287 -5.98993e-06)
(0.197652 0.00451261 7.44925e-08)
(0.197753 0.00481987 2.35371e-07)
(0.197884 0.00510788 4.3726e-07)
(0.198041 0.00537135 6.83386e-07)
(0.198219 0.00560799 9.54645e-07)
(0.198413 0.00581721 1.22817e-06)
(0.198618 0.00599911 1.48684e-06)
(0.198829 0.00615404 1.71782e-06)
(0.199046 0.00628256 1.91012e-06)
(0.199264 0.00638542 2.05492e-06)
(0.199481 0.00646342 2.14658e-06)
(0.199696 0.0065174 2.18211e-06)
(0.199907 0.00654827 2.16021e-06)
(0.200112 0.00655699 2.08049e-06)
(0.20031 0.00654461 1.94319e-06)
(0.200498 0.00651231 1.74903e-06)
(0.200676 0.0064614 1.49907e-06)
(0.200842 0.00639331 1.19466e-06)
(0.200995 0.0063096 8.37513e-07)
(0.201135 0.00621197 4.29746e-07)
(0.20126 0.00610219 -2.59231e-08)
(0.20137 0.00598211 -5.26059e-07)
(0.201465 0.00585361 -1.06638e-06)
(0.201545 0.00571856 -1.64169e-06)
(0.201609 0.00557878 -2.24584e-06)
(0.201658 0.005436 -2.87182e-06)
(0.201694 0.00529183 -3.51186e-06)
(0.201716 0.00514772 -4.15768e-06)
(0.201725 0.00500498 -4.8007e-06)
(0.201722 0.00486468 -5.43242e-06)
(0.201709 0.00472773 -6.04466e-06)
(0.201687 0.00459483 -6.62991e-06)
(0.201656 0.00446651 -7.18157e-06)
(0.201617 0.00434313 -7.69415e-06)
(0.201571 0.00422487 -8.16344e-06)
(0.20152 0.00411181 -8.58656e-06)
(0.201464 0.00400389 -8.96192e-06)
(0.201403 0.003901 -9.28924e-06)
(0.201338 0.00380291 -9.56933e-06)
(0.20127 0.0037094 -9.80401e-06)
(0.201198 0.00362017 -9.99589e-06)
(0.201124 0.00353493 -1.01482e-05)
(0.201047 0.00345339 -1.02646e-05)
(0.200967 0.00337524 -1.03489e-05)
(0.200884 0.00330021 -1.04052e-05)
(0.200798 0.00322802 -1.04374e-05)
(0.20071 0.00315844 -1.04492e-05)
(0.200619 0.00309122 -1.04443e-05)
(0.200524 0.00302618 -1.04258e-05)
(0.200426 0.00296312 -1.03968e-05)
(0.200325 0.00290187 -1.03598e-05)
(0.200219 0.0028423 -1.03171e-05)
(0.20011 0.00278426 -1.02707e-05)
(0.199997 0.00272765 -1.02223e-05)
(0.199879 0.00267234 -1.01733e-05)
(0.199757 0.00261826 -1.01249e-05)
(0.19963 0.0025653 -1.0078e-05)
(0.199498 0.00251338 -1.00335e-05)
(0.199361 0.00246244 -9.99193e-06)
(0.199218 0.0024124 -9.95385e-06)
(0.19907 0.00236318 -9.91968e-06)
(0.198916 0.00231474 -9.88974e-06)
(0.198756 0.002267 -9.86427e-06)
(0.198589 0.00221991 -9.84343e-06)
(0.198417 0.00217341 -9.82733e-06)
(0.198238 0.00212745 -9.81599e-06)
(0.198052 0.00208196 -9.80938e-06)
(0.197859 0.00203691 -9.80738e-06)
(0.197659 0.00199223 -9.80976e-06)
(0.197452 0.00194789 -9.81623e-06)
(0.197238 0.00190383 -9.82635e-06)
(0.197016 0.00186001 -9.83957e-06)
(0.196787 0.00181639 -9.85519e-06)
(0.19655 0.00177292 -9.87233e-06)
(0.196306 0.00172958 -9.88993e-06)
(0.196054 0.00168632 -9.9067e-06)
(0.195794 0.00164311 -9.92111e-06)
(0.195526 0.00159992 -9.93135e-06)
(0.19525 0.00155672 -9.93528e-06)
(0.194966 0.00151348 -9.93044e-06)
(0.194674 0.0014702 -9.91394e-06)
(0.194374 0.00142684 -9.88249e-06)
(0.194066 0.00138339 -9.83229e-06)
(0.19375 0.00133985 -9.75905e-06)
(0.193426 0.0012962 -9.6579e-06)
(0.193094 0.00125246 -9.52342e-06)
(0.192754 0.00120862 -9.34964e-06)
(0.192406 0.00116471 -9.13009e-06)
(0.192051 0.00112075 -8.85803e-06)
(0.191688 0.00107679 -8.52681e-06)
(0.191317 0.00103292 -8.13065e-06)
(0.190939 0.000989238 -7.666e-06)
(0.190554 0.000945932 -7.13422e-06)
(0.190161 0.000903277 -6.54579e-06)
(0.189761 0.0008617 -5.92741e-06)
(0.189355 0.00082182 -5.32973e-06)
(0.188944 0.000784374 -4.82228e-06)
(0.188532 0.000749592 -4.41536e-06)
(0.188123 0.000714508 -3.70694e-06)
(0.18761 0.00066496 -8.74849e-07)
(0.198025 0.00440697 1.81867e-09)
(0.198105 0.00467203 1.56985e-08)
(0.198208 0.0049244 6.48337e-08)
(0.198332 0.00515974 1.59856e-07)
(0.198475 0.00537521 2.95966e-07)
(0.198633 0.00556922 4.6135e-07)
(0.198803 0.00574092 6.43844e-07)
(0.19898 0.00588994 8.32618e-07)
(0.199162 0.0060162 1.01767e-06)
(0.199348 0.00611991 1.18996e-06)
(0.199535 0.00620144 1.34207e-06)
(0.199721 0.00626133 1.46843e-06)
(0.199904 0.0063002 1.56486e-06)
(0.200084 0.00631881 1.62807e-06)
(0.200257 0.00631802 1.6554e-06)
(0.200424 0.00629882 1.64458e-06)
(0.200582 0.0062623 1.59364e-06)
(0.200731 0.0062097 1.50086e-06)
(0.20087 0.00614234 1.36482e-06)
(0.200997 0.00606167 1.18448e-06)
(0.201113 0.00596922 9.59331e-07)
(0.201216 0.00586658 6.8958e-07)
(0.201307 0.00575536 3.76313e-07)
(0.201386 0.00563719 2.16343e-08)
(0.201452 0.00551366 -3.7125e-07)
(0.201506 0.00538631 -7.98017e-07)
(0.201548 0.00525657 -1.25329e-06)
(0.201579 0.00512578 -1.73078e-06)
(0.2016 0.00499513 -2.22348e-06)
(0.201612 0.00486567 -2.72395e-06)