/*--------------------------------*- C++ -*----------------------------------*\
| =========                 |                                                 |
| \\      /  F ield         | OpenFOAM: The Open Source CFD Toolbox           |
|  \\    /   O peration     | Version:  2.3.0                                 |
|   \\  /    A nd           | Web:      www.OpenFOAM.org                      |
|    \\/     M anipulation  |                                                 |
\*---------------------------------------------------------------------------*/
FoamFile
{
    version     2.0;
    format      ascii;
    class       volScalarField;
    location    "0.65";
    object      p;
}
// * * * * * * * * * * * * * * * * * * * * * * * * * * * * * * * * * * * * * //

dimensions      [0 2 -2 0 0 0 0];

internalField   nonuniform List<scalar> 
3105
(
0.00252313
0.00222433
0.00163262
0.00106922
0.000599449
0.000201541
-0.000134613
-0.000393535
-0.000556533
-0.000627205
-0.0006304
-0.000596469
-0.000549171
-0.000502781
-0.000463914
-0.000434106
-0.000412183
-0.000396031
-0.000383617
-0.000373379
-0.000364268
-0.000355658
-0.000347223
-0.000338827
-0.000330439
-0.000322078
-0.000313782
-0.000305587
-0.000297523
-0.000289609
-0.000281858
-0.000274276
-0.000266864
-0.000259622
-0.000252547
-0.000245636
-0.000238886
-0.000232294
-0.000225859
-0.000219578
-0.000213451
-0.000207477
-0.000201654
-0.000195983
-0.000190463
-0.000185093
-0.000179873
-0.000174802
-0.000169878
-0.0001651
-0.000160467
-0.000155978
-0.00015163
-0.000147421
-0.000143349
-0.000139411
-0.000135605
-0.000131927
-0.000128375
-0.000124945
-0.000121632
-0.000118436
-0.000115349
-0.00011237
-0.00010949
-0.00010671
-0.00010402
-0.000101419
-9.88963e-05
-9.6452e-05
-9.4072e-05
-9.176e-05
-8.94956e-05
-8.72874e-05
-8.51087e-05
-8.29723e-05
-8.0845e-05
-7.87447e-05
-7.66291e-05
-7.45254e-05
-7.23757e-05
-7.02234e-05
-6.79889e-05
-6.57343e-05
-6.33572e-05
-6.09408e-05
-5.83515e-05
-5.57061e-05
-5.28241e-05
-4.98698e-05
-4.66043e-05
-4.32485e-05
-3.94881e-05
-3.56261e-05
-3.1237e-05
-2.67394e-05
-2.1558e-05
-1.62838e-05
-1.00862e-05
-3.92076e-06
0.00209709
0.00193869
0.00152201
0.00103628
0.000594295
0.000217134
-9.71652e-05
-0.000338911
-0.000497076
-0.000573452
-0.000586509
-0.000562372
-0.000523413
-0.000483529
-0.00044945
-0.000422935
-0.000403164
-0.000388403
-0.00037692
-0.000367347
-0.000358754
-0.000350578
-0.000342524
-0.000334468
-0.000326388
-0.000318306
-0.000310261
-0.000302293
-0.000294432
-0.000286704
-0.000279121
-0.000271692
-0.00026442
-0.000257307
-0.00025035
-0.000243549
-0.000236901
-0.000230405
-0.000224058
-0.00021786
-0.00021181
-0.000205909
-0.000200154
-0.000194548
-0.000189088
-0.000183776
-0.000178609
-0.000173589
-0.000168713
-0.000163982
-0.000159392
-0.000154944
-0.000150635
-0.000146464
-0.000142427
-0.000138523
-0.000134749
-0.000131102
-0.000127579
-0.000124177
-0.000120892
-0.000117722
-0.000114659
-0.000111704
-0.000108848
-0.00010609
-0.000103421
-0.000100841
-9.83379e-05
-9.5913e-05
-9.35513e-05
-9.12576e-05
-8.901e-05
-8.68193e-05
-8.46563e-05
-8.25363e-05
-8.04237e-05
-7.83389e-05
-7.6237e-05
-7.41484e-05
-7.20111e-05
-6.98735e-05
-6.76504e-05
-6.54099e-05
-6.30434e-05
-6.06404e-05
-5.80605e-05
-5.54285e-05
-5.25545e-05
-4.96133e-05
-4.63543e-05
-4.30116e-05
-3.92556e-05
-3.5407e-05
-3.10196e-05
-2.6536e-05
-2.13516e-05
-1.60939e-05
-9.88778e-06
-3.75678e-06
0.00180034
0.00170424
0.00141562
0.00101389
0.000610365
0.000258089
-3.10992e-05
-0.00025415
-0.000408126
-0.000494546
-0.000524596
-0.000517075
-0.000491294
-0.000461165
-0.000433644
-0.000411133
-0.000393642
-0.000380162
-0.000369454
-0.000360434
-0.000352309
-0.000344574
-0.000336952
-0.000329319
-0.000321642
-0.000313938
-0.000306239
-0.000298585
-0.000291005
-0.000283527
-0.000276167
-0.000268937
-0.000261843
-0.000254889
-0.000248077
-0.000241406
-0.000234877
-0.000228489
-0.000222242
-0.000216136
-0.000210172
-0.000204349
-0.000198669
-0.000193131
-0.000187735
-0.000182483
-0.000177372
-0.000172405
-0.000167579
-0.000162895
-0.000158349
-0.000153944
-0.000149674
-0.00014554
-0.000141539
-0.000137669
-0.000133927
-0.000130311
-0.000126818
-0.000123444
-0.000120186
-0.000117041
-0.000114003
-0.000111072
-0.000108238
-0.000105502
-0.000102854
-0.000100293
-9.78098e-05
-9.5404e-05
-9.30599e-05
-9.07844e-05
-8.85531e-05
-8.63797e-05
-8.42319e-05
-8.21283e-05
-8.00302e-05
-7.79611e-05
-7.58724e-05
-7.37995e-05
-7.1674e-05
-6.95521e-05
-6.73399e-05
-6.51148e-05
-6.27584e-05
-6.0371e-05
-5.77997e-05
-5.51842e-05
-5.23171e-05
-4.9393e-05
-4.61397e-05
-4.28152e-05
-3.90625e-05
-3.52343e-05
-3.08476e-05
-2.63867e-05
-2.12e-05
-1.59675e-05
-9.77198e-06
-3.68726e-06
0.00159599
0.00151869
0.00130747
0.000982968
0.00062737
0.000304225
3.76643e-05
-0.000168894
-0.000316871
-0.000409054
-0.000452822
-0.000461194
-0.000449357
-0.000429745
-0.000409657
-0.000392241
-0.000378199
-0.000367077
-0.000358036
-0.000350258
-0.00034312
-0.000336218
-0.000329328
-0.000322356
-0.000315277
-0.000308112
-0.000300897
-0.000293671
-0.000286473
-0.000279333
-0.000272272
-0.00026531
-0.000258455
-0.000251717
-0.000245099
-0.000238606
-0.000232239
-0.000226
-0.00021989
-0.000213911
-0.000208064
-0.00020235
-0.000196771
-0.000191327
-0.00018602
-0.000180849
-0.000175816
-0.000170921
-0.000166162
-0.000161541
-0.000157055
-0.000152705
-0.000148488
-0.000144404
-0.00014045
-0.000136624
-0.000132924
-0.000129348
-0.000125892
-0.000122555
-0.00011933
-0.000116218
-0.000113211
-0.000110309
-0.000107503
-0.000104795
-0.000102173
-9.9637e-05
-9.71772e-05
-9.47946e-05
-9.24722e-05
-9.02188e-05
-8.80074e-05
-8.58549e-05
-8.37257e-05
-8.16417e-05
-7.95613e-05
-7.7511e-05
-7.54387e-05
-7.33846e-05
-7.1274e-05
-6.9171e-05
-6.69728e-05
-6.47664e-05
-6.24233e-05
-6.0055e-05
-5.74958e-05
-5.49008e-05
-5.20444e-05
-4.9142e-05
-4.58986e-05
-4.25977e-05
-3.88536e-05
-3.5052e-05
-3.0673e-05
-2.62413e-05
-2.10644e-05
-1.58632e-05
-9.70556e-06
-3.67345e-06
0.00143445
0.00136271
0.00119682
0.00093626
0.000632145
0.000342068
9.71929e-05
-9.49139e-05
-0.000236184
-0.000330441
-0.000383359
-0.000404137
-0.000404271
-0.000394266
-0.000381288
-0.000369018
-0.000358704
-0.000350306
-0.000343291
-0.000337066
-0.00033117
-0.000325307
-0.000319324
-0.000313164
-0.000306823
-0.000300328
-0.00029372
-0.000287044
-0.00028034
-0.000273643
-0.000266982
-0.000260377
-0.000253846
-0.0002474
-0.000241047
-0.000234795
-0.000228648
-0.000222612
-0.000216688
-0.000210881
-0.000205193
-0.000199628
-0.000194186
-0.000188871
-0.000183683
-0.000178625
-0.000173697
-0.0001689
-0.000164233
-0.000159699
-0.000155295
-0.000151022
-0.000146878
-0.000142862
-0.000138973
-0.000135208
-0.000131566
-0.000128044
-0.00012464
-0.000121352
-0.000118174
-0.000115107
-0.000112141
-0.00010928
-0.000106512
-0.000103839
-0.000101252
-9.87499e-05
-9.63222e-05
-9.39702e-05
-9.16769e-05
-8.94523e-05
-8.72674e-05
-8.51419e-05
-8.30375e-05
-8.09789e-05
-7.8922e-05
-7.68959e-05
-7.48455e-05
-7.28154e-05
-7.0725e-05
-6.86461e-05
-6.64671e-05
-6.42847e-05
-6.19605e-05
-5.96168e-05
-5.70755e-05
-5.45068e-05
-5.16677e-05
-4.87934e-05
-4.55677e-05
-4.22974e-05
-3.85716e-05
-3.48041e-05
-3.04464e-05
-2.60511e-05
-2.09049e-05
-1.57437e-05
-9.65521e-06
-3.68429e-06
0.00129692
0.00122807
0.00109046
0.00087935
0.000624301
0.000369394
0.000146414
-3.24784e-05
-0.000167024
-0.000261001
-0.000319523
-0.000349496
-0.000359486
-0.000358019
-0.000351664
-0.000344316
-0.000337639
-0.000331952
-0.000326989
-0.000322356
-0.000317736
-0.000312939
-0.000307882
-0.000302549
-0.000296962
-0.00029116
-0.000285187
-0.000279093
-0.00027292
-0.000266706
-0.000260484
-0.000254281
-0.000248114
-0.000242002
-0.000235955
-0.000229984
-0.000224097
-0.0002183
-0.000212598
-0.000206999
-0.000201503
-0.000196118
-0.000190844
-0.000185686
-0.000180646
-0.000175727
-0.000170929
-0.000166255
-0.000161705
-0.00015728
-0.000152979
-0.000148803
-0.000144751
-0.000140822
-0.000137015
-0.000133328
-0.000129761
-0.000126308
-0.000122971
-0.000119746
-0.000116627
-0.000113617
-0.000110705
-0.000107896
-0.000105177
-0.000102551
-0.000100009
-9.75491e-05
-9.51623e-05
-9.28494e-05
-9.05932e-05
-8.84052e-05
-8.62543e-05
-8.4163e-05
-8.20904e-05
-8.00637e-05
-7.80368e-05
-7.60411e-05
-7.40188e-05
-7.2019e-05
-6.99548e-05
-6.79061e-05
-6.57526e-05
-6.36004e-05
-6.13015e-05
-5.8989e-05
-5.64728e-05
-5.39375e-05
-5.1124e-05
-4.82851e-05
-4.50876e-05
-4.18555e-05
-3.81622e-05
-3.44361e-05
-3.01198e-05
-2.57686e-05
-2.06812e-05
-1.55713e-05
-9.58653e-06
-3.68985e-06
0.00117666
0.00111086
0.000993172
0.000819692
0.0006073
0.000386878
0.000186346
2.05259e-05
-0.00010734
-0.000199836
-0.000261562
-0.000298115
-0.000316013
-0.000321989
-0.000321731
-0.00031904
-0.000315847
-0.000312788
-0.000309848
-0.000306811
-0.000303487
-0.000299778
-0.000295662
-0.000291166
-0.000286337
-0.000281228
-0.000275892
-0.000270381
-0.000264741
-0.000259014
-0.000253236
-0.000247438
-0.000241643
-0.000235871
-0.000230137
-0.000224456
-0.000218837
-0.00021329
-0.000207821
-0.000202439
-0.000197148
-0.000191954
-0.000186861
-0.000181874
-0.000176994
-0.000172227
-0.000167573
-0.000163036
-0.000158614
-0.000154312
-0.000150127
-0.000146062
-0.000142114
-0.000138285
-0.000134573
-0.000130975
-0.000127494
-0.000124123
-0.000120863
-0.000117711
-0.000114663
-0.00011172
-0.000108872
-0.000106123
-0.000103463
-0.000100892
-9.84028e-05
-9.59933e-05
-9.36549e-05
-9.13886e-05
-8.91765e-05
-8.70319e-05
-8.49214e-05
-8.28707e-05
-8.08357e-05
-7.88471e-05
-7.68558e-05
-7.48967e-05
-7.29077e-05
-7.09441e-05
-6.89117e-05
-6.68989e-05
-6.47769e-05
-6.26608e-05
-6.03938e-05
-5.81186e-05
-5.56354e-05
-5.31396e-05
-5.0362e-05
-4.75645e-05
-4.44086e-05
-4.12208e-05
-3.75778e-05
-3.38995e-05
-2.96484e-05
-2.53498e-05
-2.0353e-05
-1.53085e-05
-9.46192e-06
-3.65398e-06
0.00107054
0.00100838
0.000906214
0.000761517
0.00058434
0.000395551
0.000217467
6.51411e-05
-5.57625e-05
-0.000146029
-0.000209361
-0.000250462
-0.000274491
-0.000286741
-0.000291939
-0.000293568
-0.000293667
-0.000293122
-0.00029215
-0.0002907
-0.000288691
-0.000286097
-0.000282949
-0.000279309
-0.00027525
-0.00027084
-0.000266143
-0.000261215
-0.000256108
-0.000250867
-0.000245532
-0.000240139
-0.000234713
-0.000229282
-0.000223861
-0.00021847
-0.000213119
-0.000207822
-0.000202586
-0.000197423
-0.000192336
-0.000187336
-0.000182426
-0.000177611
-0.000172895
-0.000168283
-0.000163776
-0.000159379
-0.00015509
-0.000150914
-0.00014685
-0.0001429
-0.000139061
-0.000135337
-0.000131724
-0.000128222
-0.000124831
-0.000121547
-0.00011837
-0.000115297
-0.000112325
-0.000109454
-0.000106674
-0.000103992
-0.000101393
-9.88837e-05
-9.64515e-05
-9.40977e-05
-9.18116e-05
-8.95968e-05
-8.74326e-05
-8.53361e-05
-8.32696e-05
-8.12641e-05
-7.92701e-05
-7.73241e-05
-7.53718e-05
-7.34535e-05
-7.15015e-05
-6.95783e-05
-6.75817e-05
-6.5609e-05
-6.35234e-05
-6.14475e-05
-5.92185e-05
-5.69846e-05
-5.45426e-05
-5.20899e-05
-4.93592e-05
-4.66068e-05
-4.35067e-05
-4.03677e-05
-3.67935e-05
-3.31686e-05
-2.9007e-05
-2.47707e-05
-1.98944e-05
-1.49319e-05
-9.25443e-06
-3.55089e-06
0.000976467
0.00091833
0.000828903
0.000706548
0.000557786
0.000396691
0.000240156
0.000101734
-1.16428e-05
-9.89885e-05
-0.000162779
-0.000206863
-0.000235457
-0.000252779
-0.000262679
-0.000268205
-0.000271357
-0.000273186
-0.000274102
-0.000274205
-0.000273507
-0.000272041
-0.000269877
-0.000267108
-0.000263826
-0.000260121
-0.000256063
-0.000251719
-0.000247144
-0.00024239
-0.000237499
-0.000232511
-0.000227457
-0.000222367
-0.000217261
-0.00021216
-0.000207079
-0.000202033
-0.000197032
-0.000192089
-0.000187209
-0.000182404
-0.000177676
-0.000173035
-0.000168484
-0.000164028
-0.000159668
-0.000155412
-0.000151257
-0.000147209
-0.000143266
-0.000139433
-0.000135705
-0.000132086
-0.000128574
-0.000125169
-0.00012187
-0.000118675
-0.000115581
-0.00011259
-0.000109694
-0.000106897
-0.000104188
-0.000101574
-9.90388e-05
-9.65919e-05
-9.42179e-05
-9.1922e-05
-8.96893e-05
-8.7528e-05
-8.54129e-05
-8.33664e-05
-8.13452e-05
-7.93866e-05
-7.74351e-05
-7.55336e-05
-7.36216e-05
-7.1746e-05
-6.9833e-05
-6.79518e-05
-6.59941e-05
-6.40623e-05
-6.20175e-05
-5.99829e-05
-5.77973e-05
-5.56059e-05
-5.32125e-05
-5.0804e-05
-4.81304e-05
-4.54245e-05
-4.23929e-05
-3.9306e-05
-3.58166e-05
-3.22506e-05
-2.81987e-05
-2.40363e-05
-1.93044e-05
-1.44423e-05
-8.95908e-06
-3.38068e-06
0.000892621
0.000838649
0.00075989
0.000655265
0.000529341
0.000391826
0.000255182
0.000130697
2.54645e-05
-5.82182e-05
-0.000121528
-0.000167381
-0.000199221
-0.000220472
-0.000234268
-0.000243201
-0.000249127
-0.000253165
-0.000255868
-0.000257463
-0.000258046
-0.000257699
-0.000256519
-0.000254622
-0.00025212
-0.000249117
-0.000245697
-0.000241935
-0.000237892
-0.000233624
-0.000229178
-0.000224599
-0.000219919
-0.000215174
-0.000210386
-0.00020558
-0.000200772
-0.000195981
-0.000191218
-0.000186498
-0.000181828
-0.00017722
-0.000172679
-0.000168214
-0.000163829
-0.000159532
-0.000155323
-0.00015121
-0.00014719
-0.000143273
-0.000139452
-0.000135737
-0.000132121
-0.000128611
-0.000125201
-0.000121894
-0.000118688
-0.000115582
-0.000112574
-0.000109665
-0.000106846
-0.000104125
-0.000101486
-9.89408e-05
-9.64704e-05
-9.40872e-05
-9.17718e-05
-8.95347e-05
-8.73556e-05
-8.52485e-05
-8.31828e-05
-8.11868e-05
-7.92115e-05
-7.73001e-05
-7.53917e-05
-7.35347e-05
-7.16642e-05
-6.98312e-05
-6.79586e-05
-6.61191e-05
-6.42028e-05
-6.23112e-05
-6.03107e-05
-5.83168e-05
-5.6179e-05
-5.40297e-05
-5.16909e-05
-4.93266e-05
-4.67179e-05
-4.40597e-05
-4.11059e-05
-3.80748e-05
-3.46814e-05
-3.1181e-05
-2.7253e-05
-2.31771e-05
-1.86059e-05
-1.38634e-05
-8.59305e-06
-3.16773e-06
0.000817415
0.000767561
0.000697859
0.000607615
0.000500187
0.000382486
0.000263653
0.000152658
5.60137e-05
-2.32726e-05
-8.52597e-05
-0.000131898
-0.000165902
-0.000190068
-0.000206969
-0.000218781
-0.000227161
-0.000233219
-0.000237588
-0.000240594
-0.000242404
-0.000243141
-0.000242926
-0.000241891
-0.000240161
-0.000237854
-0.000235066
-0.000231882
-0.000228368
-0.000224586
-0.000220586
-0.000216416
-0.000212114
-0.000207716
-0.00020325
-0.000198743
-0.000194213
-0.000189682
-0.000185161
-0.000180669
-0.000176213
-0.000171807
-0.000167456
-0.000163172
-0.000158958
-0.000154823
-0.000150768
-0.000146801
-0.000142921
-0.000139137
-0.000135443
-0.000131849
-0.000128348
-0.000124948
-0.000121642
-0.000118437
-0.000115326
-0.000112313
-0.000109391
-0.000106566
-0.000103827
-0.000101183
-9.86159e-05
-9.61416e-05
-9.3737e-05
-9.14187e-05
-8.91631e-05
-8.69858e-05
-8.48615e-05
-8.28093e-05
-8.07945e-05
-7.8849e-05
-7.69211e-05
-7.50568e-05
-7.31931e-05
-7.13804e-05
-6.95531e-05
-6.77622e-05
-6.59324e-05
-6.41335e-05
-6.22617e-05
-6.04093e-05
-5.84565e-05
-5.65024e-05
-5.44165e-05
-5.23092e-05
-5.00297e-05
-4.771e-05
-4.51718e-05
-4.25638e-05
-3.96936e-05
-3.67232e-05
-3.34329e-05
-3.00064e-05
-2.62104e-05
-2.22349e-05
-1.78336e-05
-1.323e-05
-8.18487e-06
-2.94426e-06
0.000749502
0.000703622
0.000641708
0.000563346
0.000471082
0.00036998
0.000266777
0.000168426
8.05144e-05
6.23957e-06
-5.36577e-05
-0.000100245
-0.000135522
-0.000161737
-0.00018101
-0.000195166
-0.000205652
-0.000213509
-0.0002194
-0.000223714
-0.000226675
-0.000228443
-0.000229155
-0.000228956
-0.000227981
-0.000226357
-0.000224192
-0.000221577
-0.000218585
-0.000215285
-0.000211729
-0.00020797
-0.000204046
-0.000199999
-0.000195858
-0.000191653
-0.000187405
-0.000183137
-0.000178864
-0.000174604
-0.000170367
-0.000166168
-0.000162012
-0.000157913
-0.000153875
-0.000149906
-0.00014601
-0.000142194
-0.000138458
-0.000134811
-0.000131248
-0.000127779
-0.000124397
-0.000121111
-0.000117914
-0.000114812
-0.0001118
-0.000108883
-0.000106051
-0.000103314
-0.000100656
-9.80917e-05
-9.56003e-05
-9.31987e-05
-9.08627e-05
-8.86112e-05
-8.64182e-05
-8.43022e-05
-8.22353e-05
-8.02391e-05
-7.82779e-05
-7.63837e-05
-7.4506e-05
-7.26892e-05
-7.08732e-05
-6.9105e-05
-6.73238e-05
-6.5575e-05
-6.37914e-05
-6.20329e-05
-6.02089e-05
-5.83959e-05
-5.64944e-05
-5.45808e-05
-5.25501e-05
-5.04864e-05
-4.82698e-05
-4.59973e-05
-4.35332e-05
-4.09799e-05
-3.81971e-05
-3.52942e-05
-3.21109e-05
-2.87681e-05
-2.51084e-05
-2.12471e-05
-1.70203e-05
-1.25739e-05
-7.76116e-06
-2.73391e-06
0.000687781
0.000645686
0.000590546
0.00052215
0.000442475
0.000355308
0.000265664
0.000178874
9.95332e-05
3.0686e-05
-2.64607e-05
-7.22646e-05
-0.000108064
-0.000135593
-0.000156583
-0.000172567
-0.000184791
-0.0001942
-0.000201443
-0.000206942
-0.000210961
-0.000213686
-0.000215272
-0.00021587
-0.000215621
-0.000214659
-0.000213099
-0.000211041
-0.000208562
-0.000205737
-0.00020262
-0.000199267
-0.000195722
-0.000192025
-0.000188211
-0.00018431
-0.000180347
-0.000176347
-0.000172324
-0.000168301
-0.000164287
-0.000160299
-0.000156343
-0.000152434
-0.000148576
-0.000144779
-0.000141046
-0.000137386
-0.000133798
-0.000130293
-0.000126865
-0.000123525
-0.000120267
-0.000117099
-0.000114015
-0.000111022
-0.000108113
-0.000105295
-0.000102557
-9.99105e-05
-9.73395e-05
-9.48575e-05
-9.24453e-05
-9.01193e-05
-8.78555e-05
-8.56733e-05
-8.35465e-05
-8.1494e-05
-7.94882e-05
-7.75498e-05
-7.56458e-05
-7.38046e-05
-7.19806e-05
-7.02127e-05
-6.84479e-05
-6.67256e-05
-6.49941e-05
-6.32886e-05
-6.15549e-05
-5.98383e-05
-5.80654e-05
-5.62938e-05
-5.44468e-05
-5.25764e-05
-5.06038e-05
-4.85872e-05
-4.64365e-05
-4.4216e-05
-4.18283e-05
-3.93362e-05
-3.66434e-05
-3.38163e-05
-3.07424e-05
-2.74942e-05
-2.39731e-05
-2.02394e-05
-1.61893e-05
-1.19166e-05
-7.33924e-06
-2.54581e-06
0.000631348
0.000592832
0.00054364
0.000483709
0.0004146
0.000339188
0.000261245
0.000184842
0.000113674
5.04496e-05
-3.42906e-06
-4.78159e-05
-8.34855e-05
-0.000111699
-0.000133833
-0.000151162
-0.000164754
-0.000175447
-0.000183853
-0.000190395
-0.000195359
-0.000198954
-0.000201345
-0.000202687
-0.000203125
-0.000202796
-0.000201819
-0.000200298
-0.000198318
-0.000195955
-0.00019327
-0.000190318
-0.000187146
-0.000183799
-0.00018031
-0.000176715
-0.000173038
-0.000169307
-0.000165539
-0.000161755
-0.000157968
-0.000154195
-0.000150444
-0.000146729
-0.000143055
-0.000139435
-0.00013587
-0.00013237
-0.000128936
-0.000125577
-0.00012229
-0.000119084
-0.000115954
-0.000112909
-0.000109943
-0.000107062
-0.000104261
-0.000101546
-9.89072e-05
-9.63546e-05
-9.38743e-05
-9.14786e-05
-8.91497e-05
-8.69026e-05
-8.47153e-05
-8.26054e-05
-8.05488e-05
-7.85626e-05
-7.66219e-05
-7.47439e-05
-7.2901e-05
-7.11152e-05
-6.93488e-05
-6.76323e-05
-6.59222e-05
-6.42486e-05
-6.25702e-05
-6.09108e-05
-5.92301e-05
-5.75587e-05
-5.58399e-05
-5.41135e-05
-5.23235e-05
-5.05009e-05
-4.85892e-05
-4.66247e-05
-4.45423e-05
-4.23803e-05
-4.00713e-05
-3.76477e-05
-3.50474e-05
-3.23051e-05
-2.93429e-05
-2.62002e-05
-2.28199e-05
-1.92259e-05
-1.53544e-05
-1.12686e-05
-6.92681e-06
-2.37847e-06
0.000579458
0.000544309
0.000500379
0.000447711
0.000387553
0.000322116
0.000254256
0.000187091
0.000123549
6.59429e-05
1.56887e-05
-2.67572e-05
-6.17323e-05
-9.00812e-05
-0.000112854
-0.000131087
-0.000145688
-0.00015739
-0.000166751
-0.000174179
-0.000179966
-0.00018433
-0.000187445
-0.000189468
-0.000190543
-0.000190808
-0.000190383
-0.000189376
-0.000187875
-0.000185959
-0.000183691
-0.000181132
-0.000178327
-0.000175324
-0.000172159
-0.000168868
-0.000165478
-0.000162017
-0.000158504
-0.000154963
-0.000151406
-0.000147851
-0.000144308
-0.000140792
-0.000137307
-0.000133867
-0.000130475
-0.000127141
-0.000123865
-0.000120657
-0.000117515
-0.000114448
-0.000111452
-0.000108534
-0.00010569
-0.000102927
-0.000100238
-9.76302e-05
-9.50951e-05
-9.26411e-05
-9.02559e-05
-8.79505e-05
-8.57092e-05
-8.35447e-05
-8.14381e-05
-7.94042e-05
-7.7422e-05
-7.55054e-05
-7.36339e-05
-7.18196e-05
-7.00416e-05
-6.83145e-05
-6.66093e-05
-6.49477e-05
-6.32958e-05
-6.16743e-05
-6.00523e-05
-5.84429e-05
-5.68183e-05
-5.51963e-05
-5.35345e-05
-5.18582e-05
-5.01278e-05
-4.83581e-05
-4.65103e-05
-4.46039e-05
-4.25922e-05
-4.04958e-05
-3.82681e-05
-3.5921e-05
-3.34159e-05
-3.07673e-05
-2.79197e-05
-2.4893e-05
-2.16564e-05
-1.82123e-05
-1.45218e-05
-1.06329e-05
-6.52537e-06
-2.22634e-06
0.00053148
0.000499489
0.000460242
0.000413858
0.000361349
0.000304426
0.00024527
0.000186272
0.000129739
7.75971e-05
3.11684e-05
-8.93132e-06
-4.27311e-05
-7.07348e-05
-9.36983e-05
-0.00011244
-0.000127712
-0.000140149
-0.000150251
-0.000158397
-0.000164872
-0.000169895
-0.000173643
-0.000176273
-0.000177926
-0.000178738
-0.000178827
-0.000178302
-0.000177255
-0.000175766
-0.000173901
-0.00017172
-0.000169273
-0.000166607
-0.000163761
-0.00016077
-0.000157665
-0.000154474
-0.000151218
-0.000147921
-0.000144596
-0.000141263
-0.000137931
-0.000134617
-0.000131326
-0.000128071
-0.000124856
-0.000121691
-0.000118579
-0.000115527
-0.000112535
-0.000109611
-0.000106753
-0.000103968
-0.000101251
-9.86094e-05
-9.60378e-05
-9.35421e-05
-9.11151e-05
-8.8764e-05
-8.64786e-05
-8.42677e-05
-8.21186e-05
-8.00407e-05
-7.80191e-05
-7.6065e-05
-7.41614e-05
-7.23183e-05
-7.05198e-05
-6.87734e-05
-6.70639e-05
-6.53995e-05
-6.37589e-05
-6.21564e-05
-6.05659e-05
-5.90008e-05
-5.74382e-05
-5.58834e-05
-5.43182e-05
-5.27501e-05
-5.11481e-05
-4.95275e-05
-4.78598e-05
-4.61483e-05
-4.43675e-05
-4.25258e-05
-4.05878e-05
-3.85637e-05
-3.64207e-05
-3.4158e-05
-3.17519e-05
-2.9205e-05
-2.64758e-05
-2.35747e-05
-2.04857e-05
-1.71998e-05
-1.36934e-05
-1.00084e-05
-6.13362e-06
-2.08413e-06
0.000486877
0.000457839
0.000422784
0.000381881
0.000335958
0.000286349
0.000234724
0.000182926
0.000132771
8.5838e-05
4.33044e-05
5.83872e-06
-2.63922e-05
-5.36332e-05
-7.63903e-05
-9.52802e-05
-0.000110912
-0.000123821
-0.000134448
-0.000143137
-0.000150158
-0.000155723
-0.000160006
-0.000163161
-0.000165324
-0.000166627
-0.000167186
-0.000167108
-0.000166485
-0.000165398
-0.000163915
-0.000162096
-0.000159994
-0.000157656
-0.000155121
-0.000152426
-0.000149603
-0.00014668
-0.00014368
-0.000140627
-0.000137535
-0.000134426
-0.000131308
-0.000128199
-0.000125105
-0.000122039
-0.000119005
-0.000116015
-0.00011307
-0.000110179
-0.000107341
-0.000104566
-0.000101851
-9.92029e-05
-9.66185e-05
-9.41033e-05
-9.16539e-05
-8.9275e-05
-8.6961e-05
-8.47174e-05
-8.25363e-05
-8.04245e-05
-7.83719e-05
-7.63852e-05
-7.44529e-05
-7.2583e-05
-7.07621e-05
-6.89968e-05
-6.72751e-05
-6.56007e-05
-6.39636e-05
-6.23662e-05
-6.07937e-05
-5.92547e-05
-5.77292e-05
-5.62251e-05
-5.47252e-05
-5.32296e-05
-5.17271e-05
-5.02181e-05
-4.86791e-05
-4.71194e-05
-4.55179e-05
-4.38704e-05
-4.216e-05
-4.03889e-05
-3.85291e-05
-3.65838e-05
-3.45293e-05
-3.23583e-05
-3.00562e-05
-2.76186e-05
-2.50123e-05
-2.22451e-05
-1.93088e-05
-1.6188e-05
-1.28693e-05
-9.39289e-06
-5.74949e-06
-1.94817e-06
0.000445181
0.000418906
0.000387622
0.000351542
0.000311339
0.000268047
0.000222956
0.000177497
0.000133104
9.10648e-05
5.23932e-05
1.77426e-05
-1.2613e-05
-3.8737e-05
-6.0936e-05
-7.965e-05
-9.53521e-05
-0.000108484
-0.000119424
-0.000128481
-0.0001359
-0.000141882
-0.000146595
-0.000150185
-0.000152785
-0.000154517
-0.000155495
-0.000155822
-0.000155588
-0.000154874
-0.000153749
-0.000152274
-0.000150501
-0.000148478
-0.000146244
-0.000143839
-0.000141292
-0.000138634
-0.000135888
-0.000133078
-0.000130221
-0.000127336
-0.000124435
-0.000121533
-0.000118639
-0.000115765
-0.000112917
-0.000110105
-0.000107332
-0.000104606
-0.000101928
-9.93065e-05
-9.67391e-05
-9.42331e-05
-9.17858e-05
-8.9402e-05
-8.70798e-05
-8.48225e-05
-8.26262e-05
-8.04951e-05
-7.84229e-05
-7.64151e-05
-7.44635e-05
-7.25726e-05
-7.0734e-05
-6.89528e-05
-6.72188e-05
-6.55359e-05
-6.3895e-05
-6.22973e-05
-6.07362e-05
-5.92106e-05
-5.77099e-05
-5.62389e-05
-5.47819e-05
-5.33436e-05
-5.19099e-05
-5.04785e-05
-4.90423e-05
-4.75974e-05
-4.61251e-05
-4.46316e-05
-4.31001e-05
-4.15225e-05
-3.98866e-05
-3.81918e-05
-3.64146e-05
-3.45552e-05
-3.25936e-05
-3.05209e-05
-2.83285e-05
-2.60074e-05
-2.35293e-05
-2.09034e-05
-1.81253e-05
-1.51756e-05
-1.20483e-05
-8.78369e-06
-5.37084e-06
-1.81603e-06
0.000405981
0.000382284
0.000354433
0.000322651
0.000287459
0.000249651
0.000210239
0.000170355
0.000131142
9.36472e-05
5.87262e-05
2.69774e-05
-1.28207e-06
-2.60009e-05
-4.73365e-05
-6.55821e-05
-8.10887e-05
-9.42079e-05
-0.000105256
-0.000114502
-0.000122167
-0.000128437
-0.000133468
-0.000137399
-0.000140353
-0.000142446
-0.000143785
-0.000144469
-0.000144585
-0.000144213
-0.000143419
-0.000142264
-0.000140802
-0.000139079
-0.000137135
-0.000135009
-0.000132733
-0.000130335
-0.00012784
-0.000125273
-0.000122649
-0.000119989
-0.000117306
-0.000114614
-0.000111923
-0.000109245
-0.000106586
-0.000103956
-0.000101359
-9.88026e-05
-9.62888e-05
-9.38252e-05
-9.14106e-05
-8.90515e-05
-8.67464e-05
-8.4499e-05
-8.2309e-05
-8.01783e-05
-7.81047e-05
-7.60909e-05
-7.41326e-05
-7.22335e-05
-7.03876e-05
-6.85974e-05
-6.68569e-05
-6.51693e-05
-6.35264e-05
-6.19306e-05
-6.03748e-05
-5.88585e-05
-5.73774e-05
-5.59281e-05
-5.45033e-05
-5.3105e-05
-5.17205e-05
-5.03527e-05
-4.89891e-05
-4.76268e-05
-4.62611e-05
-4.48849e-05
-4.34839e-05
-4.20619e-05
-4.06044e-05
-3.9102e-05
-3.7546e-05
-3.59331e-05
-3.42431e-05
-3.2476e-05
-3.06131e-05
-2.8645e-05
-2.6568e-05
-2.43701e-05
-2.20267e-05
-1.95489e-05
-1.69341e-05
-1.41608e-05
-1.12292e-05
-8.17897e-06
-4.99591e-06
-1.68579e-06
0.000368869
0.000347586
0.000322948
0.000295065
0.000264301
0.000231282
0.000196825
0.000161846
0.000127272
9.39562e-05
6.26129e-05
3.37671e-05
7.7375e-06
-1.53606e-05
-3.55817e-05
-5.31042e-05
-6.81743e-05
-8.10607e-05
-9.202e-05
-0.000101281
-0.00010904
-0.000115463
-0.000120695
-0.000124863
-0.000128083
-0.000130461
-0.000132098
-0.000133085
-0.000133505
-0.000133435
-0.00013294
-0.000132079
-0.000130905
-0.000129465
-0.000127797
-0.00012594
-0.000123925
-0.000121781
-0.000119533
-0.000117205
-0.000114814
-0.000112379
-0.000109915
-0.000107434
-0.000104948
-0.000102469
-0.000100002
-9.75583e-05
-9.51417e-05
-9.276e-05
-9.0415e-05
-8.81144e-05
-8.58575e-05
-8.36505e-05
-8.14925e-05
-7.93869e-05
-7.73342e-05
-7.53352e-05
-7.33893e-05
-7.14981e-05
-6.96586e-05
-6.78735e-05
-6.61379e-05
-6.44535e-05
-6.28159e-05
-6.12267e-05
-5.96796e-05
-5.81756e-05
-5.67092e-05
-5.52793e-05
-5.38825e-05
-5.25141e-05
-5.11696e-05
-4.98488e-05
-4.8541e-05
-4.72484e-05
-4.59593e-05
-4.4671e-05
-4.33802e-05
-4.20776e-05
-4.07523e-05
-3.94075e-05
-3.80287e-05
-3.66066e-05
-3.51359e-05
-3.3611e-05
-3.20136e-05
-3.03444e-05
-2.85863e-05
-2.673e-05
-2.47741e-05
-2.27054e-05
-2.05033e-05
-1.81806e-05
-1.57341e-05
-1.31418e-05
-1.04107e-05
-7.57742e-06
-4.62379e-06
-1.55623e-06
0.000326599
0.000308214
0.000287269
0.000263629
0.000237564
0.000209579
0.000180324
0.000150519
0.000120898
9.21304e-05
6.47876e-05
3.93071e-05
1.59843e-05
-5.02896e-06
-2.37074e-05
-4.01282e-05
-5.44372e-05
-6.68168e-05
-7.74583e-05
-8.6544e-05
-9.42384e-05
-0.000100687
-0.000106017
-0.000110342
-0.000113767
-0.000116388
-0.000118293
-0.000119568
-0.000120289
-0.000120526
-0.000120342
-0.000119794
-0.000118932
-0.000117801
-0.00011644
-0.000114885
-0.000113167
-0.000111315
-0.000109353
-0.000107304
-0.000105186
-0.000103017
-0.000100811
-9.85836e-05
-9.63438e-05
-9.41028e-05
-9.1869e-05
-8.96506e-05
-8.74532e-05
-8.52837e-05
-8.31447e-05
-8.10435e-05
-7.89801e-05
-7.69599e-05
-7.49829e-05
-7.30518e-05
-7.11686e-05
-6.93326e-05
-6.75447e-05
-6.58053e-05
-6.41131e-05
-6.24698e-05
-6.08713e-05
-5.93187e-05
-5.78092e-05
-5.63431e-05
-5.49155e-05
-5.35266e-05
-5.21719e-05
-5.08505e-05
-4.95595e-05
-4.82932e-05
-4.70492e-05
-4.58263e-05
-4.46154e-05
-4.34177e-05
-4.22226e-05
-4.10283e-05
-3.98322e-05
-3.8623e-05
-3.73937e-05
-3.61466e-05
-3.48679e-05
-3.35479e-05
-3.21845e-05
-3.07712e-05
-2.92917e-05
-2.77457e-05
-2.61187e-05
-2.4404e-05
-2.26002e-05
-2.06916e-05
-1.86651e-05
-1.65353e-05
-1.42954e-05
-1.1923e-05
-9.43554e-06
-6.86396e-06
-4.18411e-06
-1.40429e-06
0.000280025
0.000264659
0.000247391
0.000228083
0.000206834
0.000183979
0.000160013
0.000135498
0.000110997
8.70235e-05
6.40173e-05
4.23253e-05
2.22008e-05
3.80221e-06
-1.27992e-05
-2.76084e-05
-4.06895e-05
-5.2147e-05
-6.21067e-05
-7.07007e-05
-7.80573e-05
-8.4295e-05
-8.95215e-05
-9.38345e-05
-9.73231e-05
-0.000100071
-0.000102154
-0.000103647
-0.000104616
-0.000105125
-0.000105231
-0.000104986
-0.000104436
-0.000103624
-0.000102586
-0.000101357
-9.99644e-05
-9.8437e-05
-9.67973e-05
-9.5067e-05
-9.32638e-05
-9.14049e-05
-8.95045e-05
-8.75755e-05
-8.56289e-05
-8.36744e-05
-8.17207e-05
-7.97756e-05
-7.78447e-05
-7.59346e-05
-7.4048e-05
-7.2192e-05
-7.0367e-05
-6.8578e-05
-6.68252e-05
-6.51113e-05
-6.34388e-05
-6.18063e-05
-6.02157e-05
-5.86668e-05
-5.71591e-05
-5.56942e-05
-5.4268e-05
-5.28819e-05
-5.15337e-05
-5.02234e-05
-4.89471e-05
-4.77043e-05
-4.64917e-05
-4.53083e-05
-4.41517e-05
-4.30163e-05
-4.19007e-05
-4.08028e-05
-3.97163e-05
-3.86408e-05
-3.7566e-05
-3.64932e-05
-3.54188e-05
-3.43301e-05
-3.32249e-05
-3.21038e-05
-3.09536e-05
-2.97666e-05
-2.8541e-05
-2.72707e-05
-2.59433e-05
-2.45562e-05
-2.30955e-05
-2.1561e-05
-1.99515e-05
-1.82453e-05
-1.64381e-05
-1.45492e-05
-1.25651e-05
-1.04629e-05
-8.272e-06
-6.01614e-06
-3.66387e-06
-1.22738e-06
0.000232845
0.000220515
0.000206858
0.000191598
0.000174756
0.000156574
0.000137436
0.000117781
9.80426e-05
7.86125e-05
5.98229e-05
4.19405e-05
2.51686e-05
9.64818e-06
-4.5364e-06
-1.73536e-05
-2.88161e-05
-3.89722e-05
-4.78946e-05
-5.567e-05
-6.23908e-05
-6.81475e-05
-7.30264e-05
-7.71074e-05
-8.04643e-05
-8.31661e-05
-8.52769e-05
-8.68583e-05
-8.79668e-05
-8.86563e-05
-8.89759e-05
-8.89716e-05
-8.86846e-05
-8.81527e-05
-8.7409e-05
-8.64841e-05
-8.54044e-05
-8.4195e-05
-8.28766e-05
-8.1469e-05
-7.99888e-05
-7.84515e-05
-7.68707e-05
-7.52578e-05
-7.36235e-05
-7.19766e-05
-7.03254e-05
-6.86771e-05
-6.70369e-05
-6.54111e-05
-6.38025e-05
-6.22175e-05
-6.06566e-05
-5.91245e-05
-5.76217e-05
-5.61507e-05
-5.4714e-05
-5.331e-05
-5.19413e-05
-5.06072e-05
-4.93078e-05
-4.80445e-05
-4.68134e-05
-4.56166e-05
-4.44519e-05
-4.33188e-05
-4.22148e-05
-4.1139e-05
-4.00888e-05
-3.90638e-05
-3.8061e-05
-3.70759e-05
-3.61084e-05
-3.51547e-05
-3.42112e-05
-3.3277e-05
-3.23419e-05
-3.14096e-05
-3.04758e-05