/*--------------------------------*- C++ -*----------------------------------*\
| =========                 |                                                 |
| \\      /  F ield         | OpenFOAM: The Open Source CFD Toolbox           |
|  \\    /   O peration     | Version:  2.3.0                                 |
|   \\  /    A nd           | Web:      www.OpenFOAM.org                      |
|    \\/     M anipulation  |                                                 |
\*---------------------------------------------------------------------------*/
FoamFile
{
    version     2.0;
    format      ascii;
    class       surfaceScalarField;
    location    "0.65";
    object      phi_0;
}
// * * * * * * * * * * * * * * * * * * * * * * * * * * * * * * * * * * * * * //

dimensions      [0 3 -1 0 0 0 0];

internalField   nonuniform List<scalar> 
6068
(
2.91047e-08
2.73922e-09
-3.18439e-08
2.56763e-08
3.42839e-09
2.22603e-08
3.41599e-09
1.90914e-08
3.1689e-09
1.62037e-08
2.88772e-09
1.36692e-08
2.53455e-09
1.15767e-08
2.09242e-09
9.94594e-09
1.6308e-09
8.74449e-09
1.20145e-09
7.89181e-09
8.52686e-10
7.29313e-09
5.98681e-10
6.86585e-09
4.27276e-10
6.54796e-09
3.17895e-10
6.29641e-09
2.5155e-10
6.08258e-09
2.13825e-10
5.88973e-09
1.92847e-10
5.70966e-09
1.8007e-10
5.5392e-09
1.70466e-10
5.37757e-09
1.61631e-10
5.22484e-09
1.52723e-10
5.08118e-09
1.43666e-10
4.94651e-09
1.34673e-10
4.8205e-09
1.26e-10
4.70266e-09
1.17848e-10
4.59233e-09
1.10329e-10
4.48884e-09
1.03485e-10
4.39155e-09
9.72936e-11
4.29984e-09
9.17098e-11
4.21318e-09
8.6664e-11
4.13108e-09
8.20947e-11
4.05315e-09
7.7934e-11
3.97902e-09
7.41316e-11
3.90838e-09
7.06353e-11
3.84097e-09
6.74101e-11
3.77655e-09
6.44184e-11
3.71491e-09
6.16382e-11
3.65587e-09
5.90411e-11
3.59926e-09
5.66153e-11
3.54492e-09
5.43373e-11
3.49272e-09
5.22023e-11
3.44253e-09
5.01891e-11
3.39423e-09
4.82978e-11
3.34772e-09
4.65087e-11
3.3029e-09
4.48242e-11
3.25967e-09
4.32266e-11
3.21795e-09
4.1719e-11
3.17767e-09
4.0286e-11
3.13873e-09
3.89308e-11
3.1011e-09
3.76393e-11
3.06468e-09
3.64161e-11
3.02943e-09
3.52466e-11
2.99529e-09
3.41381e-11
2.96222e-09
3.30744e-11
2.93015e-09
3.20654e-11
2.89906e-09
3.10942e-11
2.86889e-09
3.01713e-11
2.83961e-09
2.92818e-11
2.81117e-09
2.8433e-11
2.78356e-09
2.76158e-11
2.75673e-09
2.68321e-11
2.73065e-09
2.60773e-11
2.7053e-09
2.53524e-11
2.68065e-09
2.46505e-11
2.65667e-09
2.3979e-11
2.63334e-09
2.33229e-11
2.61065e-09
2.26984e-11
2.58856e-09
2.20837e-11
2.56706e-09
2.14992e-11
2.54614e-09
2.0922e-11
2.52577e-09
2.03737e-11
2.50594e-09
1.98272e-11
2.48663e-09
1.93153e-11
2.46783e-09
1.87913e-11
2.44952e-09
1.83171e-11
2.43171e-09
1.78092e-11
2.41434e-09
1.73721e-11
2.39746e-09
1.68771e-11
2.38098e-09
1.6476e-11
2.36499e-09
1.59901e-11
2.34936e-09
1.56286e-11
2.33422e-09
1.51422e-11
2.31939e-09
1.48321e-11
2.30506e-09
1.43324e-11
2.29097e-09
1.40834e-11
2.27741e-09
1.35659e-11
2.26402e-09
1.33845e-11
2.25118e-09
1.28418e-11
2.23843e-09
1.27468e-11
2.22627e-09
1.21612e-11
2.21409e-09
1.21805e-11
2.20255e-09
1.15393e-11
2.19086e-09
1.16961e-11
2.17987e-09
1.09896e-11
2.16854e-09
1.13258e-11
2.15801e-09
1.05296e-11
2.14691e-09
1.11002e-11
2.13671e-09
1.02011e-11
2.12564e-09
1.10728e-11
2.11562e-09
1.00233e-11
1.22256e-11
3.43486e-08
2.45626e-09
-3.40657e-08
3.41828e-08
3.59426e-09
3.35034e-08
4.09534e-09
3.25384e-08
4.13388e-09
3.14023e-08
4.0238e-09
3.01236e-08
3.8133e-09
2.87315e-08
3.48447e-09
2.72995e-08
3.06282e-09
2.58995e-08
2.60146e-09
2.45836e-08
2.16857e-09
2.33752e-08
1.80714e-09
2.2277e-08
1.5254e-09
2.12851e-08
1.30987e-09
2.03946e-08
1.14202e-09
1.95951e-08
1.01336e-09
1.88749e-08
9.13031e-10
1.8223e-08
8.31962e-10
1.76296e-08
7.63827e-10
1.70866e-08
7.04702e-10
1.6587e-08
6.52296e-10
1.61254e-08
6.05298e-10
1.56971e-08
5.62939e-10
1.52984e-08
5.24713e-10
1.4926e-08
4.90237e-10
1.45771e-08
4.59167e-10
1.42495e-08
4.31177e-10
1.39408e-08
4.05927e-10
1.36494e-08
3.83106e-10
1.33737e-08
3.62408e-10
1.31122e-08
3.43575e-10
1.28638e-08
3.26361e-10
1.26273e-08
3.1057e-10
1.24019e-08
2.96019e-10
1.21868e-08
2.82571e-10
1.19811e-08
2.70091e-10
1.17843e-08
2.58483e-10
1.15957e-08
2.47648e-10
1.14148e-08
2.37522e-10
1.12411e-08
2.28025e-10
1.10742e-08
2.19118e-10
1.09136e-08
2.10733e-10
1.07591e-08
2.02844e-10
1.06102e-08
1.95394e-10
1.04666e-08
1.88367e-10
1.03282e-08
1.81713e-10
1.01944e-08
1.7542e-10
1.00653e-08
1.69447e-10
9.94043e-09
1.63784e-10
9.81968e-09
1.58397e-10
9.70281e-09
1.53278e-10
9.58966e-09
1.48397e-10
9.48005e-09
1.43749e-10
9.37382e-09
1.39306e-10
9.27082e-09
1.35068e-10
9.1709e-09
1.31008e-10
9.07395e-09
1.27125e-10
8.97983e-09
1.23401e-10
8.88844e-09
1.19826e-10
8.79965e-09
1.16399e-10
8.71339e-09
1.13093e-10
8.62955e-09
1.09925e-10
8.54804e-09
1.06858e-10
8.46878e-09
1.03914e-10
8.3917e-09
1.01061e-10
8.31671e-09
9.83112e-11
8.24376e-09
9.56455e-11
8.17277e-09
9.30705e-11
8.10371e-09
9.05656e-11
8.03648e-09
8.81473e-11
7.97107e-09
8.57845e-11
7.9074e-09
8.35004e-11
7.84544e-09
8.12711e-11
7.78514e-09
7.90964e-11
7.72646e-09
7.69954e-11
7.66936e-09
7.49106e-11
7.6138e-09
7.29293e-11
7.55975e-09
7.0923e-11
7.50718e-09
6.90525e-11
7.45605e-09
6.71144e-11
7.40633e-09
6.53558e-11
7.358e-09
6.34648e-11
7.311e-09
6.18371e-11
7.26536e-09
5.99674e-11
7.22096e-09
5.8486e-11
7.17789e-09
5.66323e-11
7.13597e-09
5.53047e-11
7.09535e-09
5.34615e-11
7.05578e-09
5.23192e-11
7.01748e-09
5.04651e-11
6.9801e-09
4.9558e-11
6.94395e-09
4.76903e-11
6.90859e-09
4.70543e-11
6.87439e-09
4.51929e-11
6.84082e-09
4.4894e-11
6.8083e-09
4.30527e-11
6.77623e-09
4.31693e-11
6.74499e-09
4.14362e-11
6.71402e-09
4.2044e-11
6.68344e-09
4.06084e-11
4.31915e-11
3.58511e-08
2.32483e-09
-3.57197e-08
3.62375e-08
3.20794e-09
3.64702e-08
3.86265e-09
3.65183e-08
4.08576e-09
3.64467e-08
4.09537e-09
3.6255e-08
4.005e-09
3.59166e-08
3.82291e-09
3.54354e-08
3.54397e-09
3.48403e-08
3.19653e-09
3.41724e-08
2.83647e-09
3.34669e-08
2.51264e-09
3.27466e-08
2.24572e-09
3.20248e-08
2.0317e-09
3.13088e-08
1.858e-09
3.06058e-08
1.71633e-09
2.99201e-08
1.59875e-09
2.92539e-08
1.49822e-09
2.86082e-08
1.40948e-09
2.79838e-08
1.32913e-09
2.73809e-08
1.25515e-09
2.67998e-08
1.18641e-09
2.62404e-08
1.12233e-09
2.57026e-08
1.06255e-09
2.5186e-08
1.00684e-09
2.46901e-08
9.55023e-10
2.42144e-08
9.06891e-10
2.37582e-08
8.62203e-10
2.33205e-08
8.20726e-10
2.29008e-08
7.82191e-10
2.2498e-08
7.46366e-10
2.21113e-08
7.13002e-10
2.174e-08
6.81895e-10
2.13832e-08
6.52833e-10
2.10401e-08
6.25647e-10
2.071e-08
6.00165e-10
2.03923e-08
5.76253e-10
2.00861e-08
5.53769e-10
1.97911e-08
5.32609e-10
1.95064e-08
5.12654e-10
1.92317e-08
4.93828e-10
1.89664e-08
4.76026e-10
1.87101e-08
4.5919e-10
1.84622e-08
4.43232e-10
1.82225e-08
4.28105e-10
1.79905e-08
4.13739e-10
1.77658e-08
4.00086e-10
1.75482e-08
3.87097e-10
1.73372e-08
3.74724e-10
1.71327e-08
3.62932e-10
1.69343e-08
3.51673e-10
1.67418e-08
3.40926e-10
1.65549e-08
3.30642e-10
1.63734e-08
3.20809e-10
1.61971e-08
3.11378e-10
1.60257e-08
3.0235e-10
1.58592e-08
2.93666e-10
1.56972e-08
2.8535e-10
1.55397e-08
2.77318e-10
1.53865e-08
2.69635e-10
1.52374e-08
2.62175e-10
1.50923e-08
2.55048e-10
1.49511e-08
2.48098e-10
1.48135e-08
2.41456e-10
1.46796e-08
2.34959e-10
1.45492e-08
2.28745e-10
1.44222e-08
2.22645e-10
1.42984e-08
2.16816e-10
1.41779e-08
2.11057e-10
1.40605e-08
2.05573e-10
1.39462e-08
2.00113e-10
1.38348e-08
1.94932e-10
1.37263e-08
1.89745e-10
1.36206e-08
1.84819e-10
1.35177e-08
1.79885e-10
1.34174e-08
1.75179e-10
1.33199e-08
1.70471e-10
1.32248e-08
1.65966e-10
1.31324e-08
1.61456e-10
1.30424e-08
1.57137e-10
1.29549e-08
1.52814e-10
1.28697e-08
1.4865e-10
1.27871e-08
1.44529e-10
1.27065e-08
1.40489e-10
1.26284e-08
1.36575e-10
1.25524e-08
1.32668e-10
1.24788e-08
1.28951e-10
1.2407e-08
1.2519e-10
1.23377e-08
1.21695e-10
1.227e-08
1.18081e-10
1.22047e-08
1.14854e-10
1.2141e-08
1.1143e-10
1.20796e-08
1.0849e-10
1.20194e-08
1.0535e-10
1.19616e-08
1.02756e-10
1.19046e-08
1.00003e-10
1.18499e-08
9.78393e-11
1.17957e-08
9.56959e-11
1.17436e-08
9.41449e-11
1.16913e-08
9.28996e-11
9.37073e-11
3.73873e-08
2.27449e-09
-3.7337e-08
3.76777e-08
2.9175e-09
3.80261e-08
3.51433e-09
3.82944e-08
3.81742e-09
3.85003e-08
3.88948e-09
3.86591e-08
3.84615e-09
3.87502e-08
3.73184e-09
3.87497e-08
3.54446e-09
3.86512e-08
3.2951e-09
3.84688e-08
3.01884e-09
3.8225e-08
2.75645e-09
3.79389e-08
2.53178e-09
3.76218e-08
2.34879e-09
3.72796e-08
2.20021e-09
3.69182e-08
2.07776e-09
3.65421e-08
1.97478e-09
3.61546e-08
1.88577e-09
3.57576e-08
1.80643e-09
3.5353e-08
1.73378e-09
3.49422e-08
1.66591e-09
3.45269e-08
1.60174e-09
3.41085e-08
1.54069e-09
3.36886e-08
1.48246e-09
3.32685e-08
1.42691e-09
3.28496e-08
1.37396e-09
3.2433e-08
1.32353e-09
3.20197e-08
1.27552e-09
3.16106e-08
1.22983e-09
3.12064e-08
1.18632e-09
3.08079e-08
1.14488e-09
3.04155e-08
1.10538e-09
3.00297e-08
1.0677e-09
2.96508e-08
1.03172e-09
2.92791e-08
9.97363e-10
2.89148e-08
9.64518e-10
2.85579e-08
9.33107e-10
2.82086e-08
9.03052e-10
2.7867e-08
8.74283e-10
2.75329e-08
8.46734e-10
2.72064e-08
8.20344e-10
2.68873e-08
7.95055e-10
2.65757e-08
7.70812e-10
2.62714e-08
7.47569e-10
2.59742e-08
7.25264e-10
2.56841e-08
7.03874e-10
2.54008e-08
6.83319e-10
2.51243e-08
6.63603e-10
2.48544e-08
6.44629e-10
2.45909e-08
6.26425e-10
2.43337e-08
6.08876e-10
2.40826e-08
5.92034e-10
2.38375e-08
5.75771e-10
2.35982e-08
5.60157e-10
2.33645e-08
5.45048e-10
2.31363e-08
5.30544e-10
2.29135e-08
5.16464e-10
2.26959e-08
5.02966e-10
2.24834e-08
4.89803e-10
2.22758e-08
4.77213e-10
2.20731e-08
4.64869e-10
2.18751e-08
4.53093e-10
2.16817e-08
4.41486e-10
2.14927e-08
4.30431e-10
2.13082e-08
4.19486e-10
2.11278e-08
4.09078e-10
2.09518e-08
3.98714e-10
2.07797e-08
3.88897e-10
2.06117e-08
3.79033e-10
2.04475e-08
3.69755e-10
2.02873e-08
3.60327e-10
2.01307e-08
3.51528e-10
1.9978e-08
3.42494e-10
1.98287e-08
3.34111e-10
1.96831e-08
3.25433e-10
1.95409e-08
3.17421e-10
1.94023e-08
3.09049e-10
1.92669e-08
3.0139e-10
1.91351e-08
2.93268e-10
1.90063e-08
2.85948e-10
1.8881e-08
2.78045e-10
1.87587e-08
2.71035e-10
1.86398e-08
2.63351e-10
1.85237e-08
2.56626e-10
1.84111e-08
2.49143e-10
1.83011e-08
2.4274e-10
1.81946e-08
2.35411e-10
1.80904e-08
2.29383e-10
1.79899e-08
2.22213e-10
1.78914e-08
2.16596e-10
1.77966e-08
2.09614e-10
1.77035e-08
2.04512e-10
1.76143e-08
1.97714e-10
1.75264e-08
1.93298e-10
1.74424e-08
1.86755e-10
1.73592e-08
1.83193e-10
1.72799e-08
1.77065e-10
1.7201e-08
1.74628e-10
1.71258e-08
1.69345e-10
1.70504e-08
1.68314e-10
1.65636e-10
3.89786e-08
2.22477e-09
-3.89289e-08
3.91781e-08
2.71798e-09
3.94851e-08
3.20732e-09
3.97736e-08
3.52889e-09
4.00152e-08
3.64795e-09
4.02265e-08
3.63485e-09
4.04085e-08
3.54979e-09
4.05438e-08
3.40917e-09
4.0618e-08
3.22096e-09
4.06314e-08
3.00542e-09
4.05968e-08
2.79104e-09
4.05282e-08
2.60035e-09
4.04346e-08
2.44244e-09
4.03203e-08
2.31444e-09
4.01887e-08
2.20943e-09
4.00421e-08
2.12139e-09
3.98821e-08
2.04569e-09
3.97097e-08
1.97884e-09
3.95253e-08
1.91822e-09
3.93292e-08
1.86202e-09
3.91218e-08
1.8091e-09
3.89038e-08
1.75877e-09
3.86756e-08
1.71062e-09
3.84381e-08
1.66442e-09
3.8192e-08
1.62004e-09
3.79382e-08
1.57737e-09
3.76774e-08
1.53631e-09
3.74104e-08
1.49677e-09
3.71381e-08
1.45863e-09
3.68612e-08
1.42181e-09
3.65804e-08
1.3862e-09
3.62964e-08
1.35173e-09
3.60098e-08
1.31832e-09
3.57212e-08
1.28589e-09
3.54313e-08
1.25442e-09
3.51406e-08
1.22383e-09
3.48496e-08
1.1941e-09
3.45587e-08
1.16517e-09
3.42684e-08
1.13705e-09
3.3979e-08
1.10967e-09
3.3691e-08
1.08306e-09
3.34047e-08
1.05713e-09
3.31203e-08
1.03194e-09
3.28382e-08
1.00739e-09
3.25585e-08
9.83549e-10
3.22816e-08
9.60288e-10
3.20074e-08
9.37732e-10
3.17364e-08
9.15696e-10
3.14684e-08
8.94352e-10
3.12038e-08
8.73472e-10
3.09426e-08
8.53272e-10
3.06849e-08
8.33479e-10
3.04307e-08
8.14355e-10
3.01802e-08
7.95577e-10
2.99332e-08
7.77467e-10
2.96901e-08
7.59624e-10
2.94506e-08
7.42471e-10
2.92149e-08
7.25483e-10
2.89829e-08
7.09226e-10
2.87547e-08
6.93023e-10
2.85302e-08
6.77593e-10
2.83096e-08
6.62114e-10
2.80926e-08
6.47439e-10
2.78795e-08
6.32623e-10
2.76699e-08
6.18642e-10
2.74642e-08
6.04412e-10
2.7262e-08
5.91085e-10
2.70637e-08
5.77356e-10
2.68688e-08
5.64648e-10
2.66778e-08
5.5135e-10
2.64901e-08
5.39205e-10
2.63063e-08
5.26294e-10
2.61258e-08
5.14653e-10
2.59491e-08
5.02083e-10
2.57756e-08
4.9091e-10
2.56061e-08
4.78611e-10
2.54395e-08
4.67908e-10
2.5277e-08
4.55797e-10
2.51174e-08
4.45571e-10
2.49618e-08
4.33599e-10
2.4809e-08
4.23832e-10
2.46604e-08
4.11981e-10
2.45144e-08
4.02673e-10
2.43726e-08
3.90896e-10
2.42332e-08
3.82126e-10
2.40983e-08
3.70342e-10
2.39655e-08
3.62206e-10
2.38373e-08
3.50401e-10
2.37109e-08
3.42971e-10
2.35893e-08
3.31174e-10
2.34693e-08
3.24601e-10
2.33542e-08
3.12812e-10
2.32401e-08
3.07316e-10
2.31312e-08
2.95659e-10
2.3023e-08
2.91423e-10
2.29199e-08
2.80198e-10
2.2817e-08
2.77512e-10
2.2719e-08
2.67376e-10
2.26207e-08
2.66582e-10
2.59136e-10
4.05976e-08
2.16488e-09
-4.05377e-08
4.07506e-08
2.56498e-09
4.10007e-08
2.95727e-09
4.1268e-08
3.26157e-09
4.15051e-08
3.41089e-09
4.17107e-08
3.42918e-09
4.1893e-08
3.36755e-09
4.20458e-08
3.25635e-09
4.21585e-08
3.10825e-09
4.22278e-08
2.93612e-09
4.22603e-08
2.75853e-09
4.22667e-08
2.59395e-09
4.22556e-08
2.45352e-09
4.22318e-08
2.33822e-09
4.21978e-08
2.24342e-09
4.21553e-08
2.16396e-09
4.21051e-08
2.09584e-09
4.20478e-08
2.03612e-09
4.19834e-08
1.98263e-09
4.19117e-08
1.93376e-09
4.18324e-08
1.88842e-09
4.17453e-08
1.84583e-09
4.16504e-08
1.80553e-09
4.15476e-08
1.76719e-09
4.1437e-08
1.73061e-09
4.13188e-08
1.6956e-09
4.11931e-08
1.66203e-09
4.10601e-08
1.62976e-09
4.092e-08
1.59868e-09
4.07732e-08
1.56864e-09
4.06198e-08
1.53956e-09
4.04603e-08
1.51131e-09
4.02947e-08
1.48384e-09
4.01236e-08
1.45702e-09
3.99472e-08
1.43085e-09
3.97658e-08
1.40521e-09
3.95798e-08
1.38014e-09
3.93894e-08
1.35549e-09
3.91951e-08
1.33136e-09
3.89972e-08
1.3076e-09
3.8796e-08
1.28431e-09
3.85918e-08
1.26134e-09
3.83849e-08
1.23884e-09
3.81756e-08
1.2166e-09
3.79643e-08
1.19485e-09
3.77513e-08
1.1733e-09
3.75368e-08
1.15226e-09
3.73211e-08
1.13137e-09
3.71045e-08
1.11102e-09
3.68872e-08
1.09077e-09
3.66694e-08
1.07108e-09
3.64514e-08
1.05144e-09
3.62334e-08
1.0324e-09
3.60156e-08
1.01334e-09
3.57981e-08
9.94933e-10
3.55813e-08
9.76411e-10
3.53652e-08
9.58634e-10
3.515e-08
9.40612e-10
3.49358e-08
9.23445e-10
3.4723e-08
9.05886e-10
3.45113e-08
8.89301e-10
3.43012e-08
8.72179e-10
3.40925e-08
8.56137e-10
3.38857e-08
8.39421e-10
3.36804e-08
8.23898e-10
3.34773e-08
8.07529e-10
3.32759e-08
7.92521e-10
3.30768e-08
7.76424e-10
3.28795e-08
7.61934e-10
3.26848e-08
7.46044e-10
3.2492e-08
7.32044e-10
3.2302e-08
7.16331e-10
3.21138e-08
7.02784e-10
3.19287e-08
6.87204e-10
3.17455e-08
6.74103e-10
3.15656e-08
6.58577e-10
3.13875e-08
6.45961e-10
3.12129e-08
6.3039e-10
3.10402e-08
6.18303e-10
3.08711e-08
6.02625e-10
3.07039e-08
5.91076e-10
3.05406e-08
5.75268e-10
3.0379e-08
5.64285e-10
3.02216e-08
5.48288e-10
3.00657e-08
5.37992e-10
2.99144e-08
5.21705e-10
2.97644e-08
5.12233e-10
2.96191e-08
4.9565e-10
2.9475e-08
4.87092e-10
2.93359e-08
4.7027e-10
2.91977e-08
4.62802e-10
2.90647e-08
4.45778e-10
2.89324e-08
4.39649e-10
2.88054e-08
4.22629e-10
2.86788e-08
4.18016e-10
2.85576e-08
4.01441e-10
2.84364e-08
3.98693e-10
2.83204e-08
3.83351e-10
2.82041e-08
3.82935e-10
3.70329e-10
4.22503e-08
2.09921e-09
-4.21846e-08
4.23797e-08
2.43558e-09
4.25818e-08
2.75517e-09
4.28177e-08
3.02569e-09
4.30416e-08
3.18699e-09
4.32375e-08
3.23328e-09
4.34082e-08
3.19681e-09
4.35542e-08
3.11032e-09
4.36704e-08
2.99211e-09
4.37532e-08
2.85333e-09
4.38054e-08
2.70631e-09
4.38346e-08
2.56475e-09
4.38488e-08
2.43926e-09
4.38536e-08
2.3335e-09
4.38516e-08
2.2454e-09
4.38445e-08
2.17106e-09
4.38333e-08
2.10704e-09
4.38186e-08
2.05079e-09
4.38007e-08
2.00056e-09
4.37794e-08
1.95499e-09
4.37547e-08
1.91314e-09
4.37263e-08
1.87426e-09
4.36939e-08
1.83791e-09
4.36574e-08
1.80367e-09
4.36167e-08
1.77135e-09
4.35716e-08
1.74069e-09
4.3522e-08
1.71159e-09
4.3468e-08
1.68383e-09
4.34093e-08
1.65735e-09
4.3346e-08
1.63192e-09
4.32781e-08
1.60752e-09
4.32055e-08
1.58392e-09
4.31281e-08
1.56116e-09
4.30462e-08
1.53899e-09
4.29595e-08
1.5175e-09
4.28683e-08
1.49644e-09
4.27725e-08
1.47596e-09
4.26722e-08
1.45577e-09
4.25675e-08
1.43608e-09
4.24585e-08
1.4166e-09
4.23452e-08
1.39757e-09
4.22279e-08
1.37865e-09
4.21066e-08
1.36017e-09
4.19815e-08
1.34172e-09
4.18526e-08
1.32373e-09
4.17202e-08
1.30566e-09
4.15844e-08
1.2881e-09
4.14454e-08
1.27036e-09
4.13032e-08
1.25318e-09
4.11583e-08
1.23574e-09
4.10104e-08
1.21891e-09
4.08601e-08
1.20172e-09
4.07073e-08
1.18522e-09
4.05524e-08
1.16825e-09
4.03953e-08
1.15206e-09
4.02364e-08
1.13528e-09
4.00756e-08
1.11941e-09
3.99135e-08
1.10276e-09
3.97497e-08
1.0872e-09
3.9585e-08
1.07065e-09
3.94189e-08
1.0554e-09
3.92521e-08
1.03892e-09
3.90843e-08
1.02395e-09
3.89162e-08
1.00753e-09
3.87473e-08
9.92822e-10
3.85784e-08
9.76407e-10
3.84089e-08
9.61996e-10
3.82399e-08
9.455e-10
3.80704e-08
9.31418e-10
3.79016e-08
9.14773e-10
3.77327e-08
9.01018e-10
3.75648e-08
8.84201e-10
3.73968e-08
8.70753e-10
3.72303e-08
8.53727e-10
3.70638e-08
8.40604e-10
3.68991e-08
8.2328e-10
3.67345e-08
8.1056e-10
3.65721e-08
7.92823e-10
3.64098e-08
7.80586e-10
3.625e-08
7.62373e-10
3.60905e-08
7.50645e-10
3.59338e-08
7.31947e-10
3.57773e-08
7.20772e-10
3.56241e-08
7.01534e-10
3.5471e-08
6.91063e-10
3.53215e-08
6.71186e-10
3.51722e-08
6.6158e-10
3.50267e-08
6.41091e-10
3.48814e-08
6.32437e-10
3.47402e-08
6.11451e-10
3.45991e-08
6.03931e-10
3.44623e-08
5.82529e-10
3.43255e-08
5.76416e-10
3.41933e-08
5.54891e-10
3.40609e-08
5.50365e-10
3.39331e-08
5.29272e-10
3.3805e-08
5.26778e-10
3.36814e-08
5.06954e-10
3.35573e-08
5.07088e-10
4.90099e-10
4.39451e-08
2.03278e-09
-4.38787e-08
4.40598e-08
2.32086e-09
4.4227e-08
2.58801e-09
4.44308e-08
2.82191e-09
4.46363e-08
2.98141e-09
4.4822e-08
3.04763e-09
4.49828e-08
3.03597e-09
4.51201e-08
2.97303e-09
4.52328e-08
2.87944e-09
4.53187e-08
2.76742e-09
4.53786e-08
2.64641e-09
4.54172e-08
2.52614e-09
4.54411e-08
2.41538e-09
4.54557e-08
2.31891e-09
4.54642e-08
2.2369e-09
4.54684e-08
2.16685e-09
4.54694e-08
2.10602e-09
4.5468e-08
2.05218e-09
4.54647e-08
2.0039e-09
4.54597e-08
1.96e-09
4.5453e-08
1.9198e-09
4.54447e-08
1.88258e-09
4.54346e-08
1.84799e-09
4.54227e-08
1.81555e-09
4.54089e-08
1.78514e-09
4.53932e-08
1.75642e-09
4.53754e-08
1.72936e-09
4.53556e-08
1.70366e-09
4.53336e-08
1.67935e-09
4.53094e-08
1.65613e-09
4.52829e-08
1.63406e-09
4.5254e-08
1.61282e-09
4.52226e-08
1.59256e-09
4.51887e-08
1.5729e-09
4.51521e-08
1.55407e-09
4.51129e-08
1.53566e-09
4.50708e-08
1.51798e-09
4.5026e-08
1.50057e-09
4.49783e-08
1.48381e-09
4.49277e-08
1.46718e-09
4.48741e-08
1.45118e-09
4.48176e-08
1.43518e-09
4.4758e-08
1.41979e-09
4.46954e-08
1.40428e-09
4.46297e-08
1.38941e-09
4.45611e-08
1.37428e-09
4.44894e-08
1.35984e-09
4.44147e-08
1.345e-09
4.4337e-08
1.33092e-09
4.42564e-08
1.31629e-09
4.41728e-08
1.30251e-09
4.40865e-08
1.28804e-09
4.39972e-08
1.27451e-09
4.39053e-08
1.26013e-09
4.38106e-08
1.24682e-09
4.37134e-08
1.23245e-09
4.36135e-08
1.21936e-09
4.35113e-08
1.20493e-09
4.34065e-08
1.19204e-09
4.32996e-08
1.17748e-09
4.31903e-08
1.16477e-09
4.30791e-08
1.15006e-09
4.29656e-08
1.13749e-09
4.28505e-08
1.12259e-09
4.27332e-08
1.11014e-09
4.26146e-08
1.09497e-09
4.24939e-08
1.08268e-09
4.23723e-08
1.06714e-09
4.22487e-08
1.05505e-09
4.21244e-08
1.03904e-09
4.19983e-08
1.02716e-09
4.18718e-08
1.01065e-09
4.17436e-08
9.98944e-10
4.16154e-08
9.81903e-10
4.14856e-08
9.70402e-10
4.13562e-08
9.52723e-10
4.12252e-08
9.4152e-10
4.1095e-08
9.23063e-10
4.09633e-08
9.12258e-10
4.08327e-08
8.92967e-10
4.07008e-08
8.82564e-10
4.05703e-08
8.62464e-10
4.04386e-08
8.52497e-10
4.03086e-08
8.3154e-10
4.01775e-08
8.22178e-10
4.00484e-08
8.00268e-10
3.99183e-08
7.91669e-10
3.97905e-08
7.68883e-10
3.96618e-08
7.61098e-10
3.95357e-08
7.37623e-10
3.94087e-08
7.30846e-10
3.92845e-08
7.06784e-10
3.91596e-08
7.01303e-10
3.90375e-08
6.77023e-10
3.89148e-08
6.73014e-10
3.87949e-08
6.49156e-10
3.86745e-08
6.47196e-10
3.85569e-08
6.24595e-10
3.84386e-08
6.25363e-10
6.05733e-10
4.56885e-08
1.9682e-09
-4.56239e-08
4.57918e-08
2.21755e-09
4.59347e-08
2.44515e-09
4.61099e-08
2.64672e-09
4.62948e-08
2.7965e-09
4.64683e-08
2.87407e-09
4.66207e-08
2.88366e-09
4.67506e-08
2.84306e-09
4.68588e-08
2.77125e-09
4.69448e-08
2.68145e-09
4.70088e-08
2.58245e-09
4.70534e-08
2.48152e-09
4.70834e-08
2.3854e-09
4.71035e-08
2.29874e-09
4.71172e-08
2.22318e-09
4.71265e-08
2.15761e-09
4.71324e-08
2.10011e-09
4.71358e-08
2.04875e-09
4.71374e-08
2.00237e-09
4.71374e-08
1.95995e-09
4.71362e-08
1.921e-09
4.71339e-08
1.88487e-09
4.71306e-08
1.85134e-09
4.71262e-08
1.81989e-09
4.71209e-08
1.79047e-09
4.71146e-08
1.76267e-09
4.71074e-08
1.73656e-09
4.70994e-08
1.71174e-09
4.70903e-08
1.68838e-09
4.70804e-08
1.66604e-09
4.70695e-08
1.64496e-09
4.70577e-08
1.62466e-09
4.70448e-08
1.60546e-09
4.70309e-08
1.58681e-09
4.70158e-08
1.56915e-09
4.69996e-08
1.55185e-09
4.69821e-08
1.53546e-09
4.69634e-08
1.51927e-09
4.69433e-08
1.50393e-09
4.69218e-08
1.48865e-09
4.68988e-08
1.47419e-09
4.68744e-08
1.45964e-09
4.68482e-08
1.44593e-09
4.68205e-08
1.43197e-09
4.6791e-08
1.41891e-09
4.67599e-08
1.40541e-09
4.67268e-08
1.39291e-09
4.6692e-08
1.37977e-09
4.66552e-08
1.36774e-09
4.66166e-08
1.35488e-09
4.65759e-08
1.34323e-09
4.65334e-08
1.33058e-09
4.64886e-08
1.31926e-09
4.64421e-08
1.30671e-09
4.63932e-08
1.29568e-09
4.63425e-08
1.28314e-09
4.62895e-08
1.27239e-09
4.62347e-08
1.25975e-09
4.61774e-08
1.24926e-09
4.61185e-08
1.23644e-09
4.60571e-08
1.22616e-09
4.59941e-08
1.21311e-09
4.59286e-08
1.20297e-09
4.58615e-08
1.18964e-09
4.5792e-08
1.17962e-09
4.57211e-08
1.16591e-09
4.56477e-08
1.15605e-09
4.55731e-08
1.14179e-09
4.5496e-08
1.13216e-09
4.54178e-08
1.11724e-09
4.53371e-08
1.10779e-09
4.52556e-08
1.0922e-09
4.51717e-08
1.08286e-09
4.5087e-08
1.06656e-09
4.50001e-08
1.05736e-09
4.49126e-08
1.04022e-09
4.48228e-08
1.03127e-09
4.47328e-08
1.0131e-09
4.46406e-08
1.00449e-09
4.45482e-08
9.85277e-10
4.44539e-08
9.7692e-10
4.43596e-08
9.56741e-10
4.42634e-08
9.48666e-10
4.41675e-08
9.27444e-10
4.40699e-08
9.19838e-10
4.39727e-08
8.97477e-10
4.38739e-08
8.90463e-10
4.37756e-08
8.67106e-10
4.36761e-08
8.60655e-10
4.35772e-08
8.36544e-10
4.34771e-08
8.30906e-10
4.33778e-08
8.06118e-10
4.32775e-08
8.01576e-10
4.3178e-08
7.76567e-10
4.30777e-08
7.73248e-10
4.29782e-08
7.48677e-10
4.28781e-08
7.4734e-10
4.27786e-08
7.24052e-10
4.26786e-08
7.25398e-10
7.05159e-10
4.74851e-08
1.90622e-09
-4.74231e-08
4.75788e-08
2.12379e-09
4.77039e-08
2.3201e-09
4.78555e-08
2.49506e-09
4.802e-08
2.63205e-09
4.81798e-08
2.71425e-09
4.83235e-08
2.73994e-09
4.84473e-08
2.71929e-09
4.85513e-08
2.66727e-09
4.86361e-08
2.59667e-09
4.87021e-08
2.51639e-09
4.87511e-08
2.43258e-09
4.8786e-08
2.35047e-09
4.88107e-08
2.274e-09
4.88285e-08
2.20546e-09
4.88413e-08
2.14477e-09
4.88505e-08
2.09094e-09
4.88568e-08
2.0424e-09
4.8861e-08
1.99824e-09
4.88634e-08
1.95752e-09
4.88644e-08
1.91997e-09
4.88643e-08
1.88496e-09
4.88632e-08
1.85244e-09
4.88613e-08
1.82183e-09
4.88586e-08
1.79322e-09
4.88551e-08
1.76608e-09
4.88511e-08
1.74062e-09
4.88465e-08
1.71632e-09
4.88414e-08
1.6935e-09
4.88359e-08
1.67158e-09
4.88298e-08
1.65098e-09
4.88235e-08
1.63104e-09
4.88166e-08
1.61229e-09
4.88094e-08
1.59399e-09
4.88018e-08
1.5768e-09
4.87938e-08
1.55986e-09
4.87853e-08
1.54397e-09
4.87764e-08
1.52817e-09
4.87669e-08
1.51338e-09
4.87571e-08
1.49854e-09
4.87465e-08
1.48471e-09
4.87355e-08
1.47065e-09
4.87238e-08
1.45767e-09
4.87115e-08
1.44425e-09
4.86984e-08
1.43202e-09
4.86847e-08
1.41913e-09
4.867e-08
1.40755e-09
4.86547e-08
1.3951e-09
4.86384e-08
1.38409e-09
4.86213e-08
1.37199e-09
4.8603e-08
1.36146e-09
4.8584e-08
1.34964e-09
4.85637e-08
1.33955e-09
4.85425e-08
1.32789e-09
4.852e-08
1.31821e-09
4.84965e-08
1.30659e-09
4.84716e-08
1.29731e-09
4.84457e-08
1.28561e-09
4.84183e-08
1.27672e-09
4.83898e-08
1.26486e-09
4.83597e-08
1.25627e-09
4.83286e-08
1.24422e-09
4.82958e-08
1.23583e-09
4.82619e-08
1.22352e-09
4.82262e-08
1.21533e-09
4.81895e-08
1.20263e-09
4.81508e-08
1.19469e-09
4.81112e-08
1.18138e-09
4.80696e-08
1.17377e-09
4.80271e-08
1.15974e-09
4.79826e-08
1.15234e-09
4.79371e-08
1.13765e-09
4.78896e-08
1.13033e-09
4.78413e-08
1.11493e-09
4.77909e-08
1.10773e-09
4.77397e-08
1.09142e-09
4.76865e-08
1.08451e-09
4.76325e-08
1.06706e-09
4.75765e-08
1.06046e-09
4.75198e-08
1.04197e-09
4.74613e-08
1.03546e-09
4.7402e-08
1.01602e-09
4.7341e-08
1.00968e-09
4.72793e-08
9.89153e-10
4.72159e-08
9.83183e-10
4.71519e-08
9.61484e-10
4.70865e-08
9.55928e-10
4.70203e-08
9.33304e-10
4.69529e-08
9.28031e-10
4.68848e-08
9.0469e-10
4.68156e-08
9.00096e-10
4.67456e-08
8.76079e-10
4.66748e-08
8.72372e-10
4.66031e-08
8.48271e-10
4.65308e-08
8.45519e-10
4.64576e-08
8.21855e-10
4.6384e-08
8.21024e-10
4.63093e-08
7.98763e-10
4.62341e-08
8.00534e-10
7.81267e-10
4.93385e-08
1.84685e-09
-4.92791e-08
4.94241e-08
2.03815e-09
4.95352e-08
2.20904e-09
4.9668e-08
2.36227e-09
4.98137e-08
2.48634e-09
4.99592e-08
2.56876e-09
5.00936e-08
2.60548e-09
5.02115e-08
2.60143e-09
5.03116e-08
2.56714e-09
5.03947e-08
2.51359e-09
5.04616e-08
2.44952e-09
5.05134e-08
2.38071e-09
5.05523e-08
2.31157e-09
5.05811e-08
2.24526e-09
5.06024e-08
2.18414e-09
5.06184e-08
2.12877e-09
5.06304e-08
2.07895e-09
5.06393e-08
2.03353e-09
5.06456e-08
1.99192e-09
5.06499e-08
1.95321e-09
5.06525e-08
1.91732e-09
5.06539e-08
1.88362e-09
5.06541e-08
1.85224e-09
5.06533e-08
1.82256e-09
5.06518e-08
1.7948e-09
5.06495e-08
1.76834e-09
5.06466e-08
1.74352e-09
5.06432e-08
1.71971e-09
5.06393e-08
1.69736e-09
5.06351e-08
1.67577e-09
5.06306e-08
1.65553e-09
5.06258e-08
1.63581e-09
5.06208e-08
1.61734e-09
5.06156e-08
1.59919e-09
5.06101e-08
1.58223e-09
5.06046e-08
1.5654e-09
5.05988e-08
1.54971e-09
5.0593e-08
1.534e-09
5.0587e-08
1.51942e-09
5.05809e-08
1.50464e-09
5.05746e-08
1.49104e-09
5.05682e-08
1.47704e-09
5.05615e-08
1.46433e-09
5.05548e-08
1.45098e-09
5.05477e-08
1.43905e-09
5.05406e-08
1.42625e-09
5.05331e-08
1.41503e-09
5.05255e-08
1.4027e-09
5.05175e-08
1.39209e-09
5.05093e-08
1.38017e-09
5.05007e-08
1.3701e-09
5.04918e-08
1.3585e-09
5.04825e-08
1.34894e-09
5.04728e-08
1.33752e-09
5.04626e-08
1.32847e-09
5.0452e-08
1.31712e-09
5.04408e-08
1.30858e-09
5.04292e-08
1.29717e-09
5.04168e-08
1.28911e-09
5.04041e-08
1.27759e-09
5.03905e-08
1.26989e-09
5.03764e-08
1.25825e-09
5.03614e-08
1.25082e-09
5.0346e-08
1.23898e-09
5.03295e-08
1.23182e-09
5.03125e-08
1.21961e-09
5.02944e-08
1.21283e-09
5.02758e-08
1.19999e-09
5.02559e-08
1.19365e-09
5.02355e-08
1.18014e-09
5.02138e-08
1.174e-09
5.01915e-08
1.15996e-09
5.0168e-08
1.15387e-09
5.01437e-08
1.1392e-09
5.01182e-08
1.13326e-09
5.00919e-08
1.1177e-09
5.00643e-08
1.11213e-09
5.00359e-08
1.09541e-09
5.00063e-08
1.09012e-09
4.99757e-08
1.07255e-09
4.9944e-08
1.06717e-09
4.99112e-08
1.04879e-09
4.98773e-08
1.04354e-09
4.98424e-08
1.02409e-09
4.98064e-08
1.01917e-09
4.97692e-08
9.98649e-10
4.97312e-08
9.93979e-10
4.96918e-08
9.72751e-10
4.96516e-08
9.68153e-10
4.96101e-08
9.46255e-10
4.95678e-08
9.42324e-10
4.95241e-08
9.19836e-10
4.94799e-08
9.16593e-10
4.94339e-08
8.94278e-10
4.93875e-08
8.91843e-10
4.93395e-08
8.69889e-10
4.92912e-08
8.69346e-10
4.92409e-08
8.49006e-10
4.91904e-08
8.51039e-10
8.33506e-10
5.12522e-08
1.79004e-09
-5.11954e-08
5.13308e-08
1.95953e-09
5.14304e-08
2.10951e-09
5.15478e-08
2.24482e-09
5.16771e-08
2.35706e-09
5.18086e-08
2.43724e-09
5.19332e-08
2.48086e-09
5.20449e-08
2.48975e-09
5.21413e-08
2.47076e-09
5.22225e-08
2.43242e-09
5.22893e-08
2.38268e-09
5.23429e-08
2.32707e-09
5.23848e-08
2.26968e-09
5.2417e-08
2.21312e-09
5.24415e-08
2.15958e-09
5.24604e-08
2.10986e-09
5.2475e-08
2.06436e-09
5.24862e-08
2.02234e-09
5.24946e-08
1.98353e-09
5.25007e-08
1.9471e-09
5.25049e-08
1.91311e-09
5.25076e-08
1.88095e-09
5.2509e-08
1.85088e-09
5.25092e-08
1.82228e-09
5.25086e-08
1.79547e-09
5.25071e-08
1.76979e-09
5.2505e-08
1.74568e-09
5.25023e-08
1.72241e-09
5.24991e-08
1.70058e-09
5.24955e-08
1.67935e-09
5.24915e-08
1.65947e-09
5.24874e-08
1.63998e-09
5.24829e-08
1.62177e-09
5.24784e-08
1.60376e-09
5.24736e-08
1.58696e-09
5.24688e-08
1.57021e-09
5.24639e-08
1.55464e-09
5.2459e-08
1.53895e-09
5.24539e-08
1.52445e-09
5.24489e-08
1.50966e-09
5.24438e-08
1.49614e-09
5.24388e-08
1.48208e-09
5.24336e-08
1.46945e-09
5.24286e-08
1.45601e-09
5.24235e-08
1.44419e-09
5.24184e-08
1.43129e-09
5.24133e-08
1.42017e-09
5.24082e-08
1.40777e-09
5.24031e-08
1.39725e-09
5.2398e-08
1.38528e-09
5.23927e-08
1.37532e-09
5.23876e-08
1.36368e-09
5.23822e-08
1.35428e-09
5.23769e-08
1.34282e-09
5.23714e-08
1.334e-09
5.23659e-08
1.32258e-09
5.23602e-08
1.31435e-09
5.23544e-08
1.30288e-09
5.23484e-08
1.29517e-09
5.23423e-08
1.28366e-09
5.23359e-08
1.2763e-09
5.23294e-08
1.26476e-09
5.23225e-08
1.25768e-09
5.23155e-08
1.24601e-09
5.23081e-08
1.23925e-09
5.23005e-08
1.2272e-09
5.22924e-08
1.22095e-09
5.22841e-08
1.20826e-09
5.22752e-08
1.20251e-09
5.22661e-08
1.18926e-09
5.22564e-08
1.18365e-09
5.22463e-08
1.17005e-09
5.22358e-08
1.16443e-09
5.22247e-08
1.15032e-09
5.2213e-08
1.14489e-09
5.22009e-08
1.12989e-09
5.2188e-08
1.12494e-09
5.21746e-08
1.10884e-09
5.21607e-08
1.10407e-09
5.21458e-08
1.08741e-09
5.21306e-08
1.0824e-09
5.21143e-08
1.06507e-09
5.20976e-08
1.06022e-09
5.20799e-08
1.04185e-09
5.20617e-08
1.03734e-09
5.20423e-08
1.01805e-09
5.20226e-08
1.01366e-09
5.20014e-08
9.93929e-10
5.19801e-08
9.8952e-10
5.19572e-08
9.69117e-10
5.19341e-08
9.65449e-10
5.19093e-08
9.44616e-10
5.18844e-08
9.41451e-10
5.18576e-08
9.21058e-10
5.18307e-08
9.18768e-10
5.1802e-08
8.98592e-10
5.17732e-08
8.98156e-10
5.17424e-08
8.79841e-10
5.17114e-08
8.82035e-10
8.66271e-10
5.32295e-08
1.73581e-09
-5.31753e-08
5.33019e-08
1.88711e-09
5.33917e-08
2.01975e-09
5.34964e-08
2.14013e-09
5.36115e-08
2.24194e-09
5.37301e-08
2.31867e-09
5.38447e-08
2.36619e-09
5.39498e-08
2.38469e-09
5.40422e-08
2.37837e-09
5.41212e-08
2.35339e-09
5.41875e-08
2.3164e-09
5.4242e-08
2.27254e-09
5.4286e-08
2.22573e-09
5.43208e-08
2.17828e-09
5.43482e-08
2.1322e-09
5.43697e-08
2.08831e-09
5.43867e-08
2.04738e-09
5.44001e-08
2.00898e-09
5.44104e-08
1.97318e-09
5.44183e-08
1.93924e-09
5.4424e-08
1.90737e-09
5.4428e-08
1.87695e-09
5.44305e-08