/*--------------------------------*- C++ -*----------------------------------*\
| =========                 |                                                 |
| \\      /  F ield         | OpenFOAM: The Open Source CFD Toolbox           |
|  \\    /   O peration     | Version:  2.3.0                                 |
|   \\  /    A nd           | Web:      www.OpenFOAM.org                      |
|    \\/     M anipulation  |                                                 |
\*---------------------------------------------------------------------------*/
FoamFile
{
    version     2.0;
    format      ascii;
    class       surfaceScalarField;
    location    "1";
    object      phi_0;
}
// * * * * * * * * * * * * * * * * * * * * * * * * * * * * * * * * * * * * * //

dimensions      [0 3 -1 0 0 0 0];

internalField   nonuniform List<scalar> 
3203
(
3.95878e-08
3.60937e-09
-4.31971e-08
3.50008e-08
4.587e-09
3.043e-08
4.57072e-09
2.61243e-08
4.30575e-09
2.21113e-08
4.01295e-09
1.85133e-08
3.59802e-09
1.55033e-08
3.01002e-09
1.31612e-08
2.34209e-09
1.14713e-08
1.68989e-09
1.03115e-08
1.15986e-09
9.52366e-09
7.87794e-10
8.97565e-09
5.48007e-10
8.57446e-09
4.01189e-10
8.25698e-09
3.17479e-10
7.98226e-09
2.74724e-10
7.72831e-09
2.53946e-10
7.48621e-09
2.42101e-10
7.2538e-09
2.3241e-10
7.03187e-09
2.21936e-10
6.82167e-09
2.10199e-10
6.62424e-09
1.97431e-10
6.43974e-09
1.84494e-10
6.26797e-09
1.71777e-10
6.10799e-09
1.59979e-10
5.95897e-09
1.49014e-10
5.81968e-09
1.39293e-10
5.68924e-09
1.30438e-10
5.56656e-09
1.22682e-10
5.45094e-09
1.15621e-10
5.34155e-09
1.0939e-10
5.23787e-09
1.03675e-10
5.1393e-09
9.85773e-11
5.04549e-09
9.38101e-11
4.95589e-09
8.95975e-11
4.87039e-09
8.55002e-11
4.7884e-09
8.19892e-11
4.70998e-09
7.84244e-11
4.63453e-09
7.54432e-11
4.56219e-09
7.23454e-11
4.49239e-09
6.97939e-11
4.42533e-09
6.7064e-11
4.36041e-09
6.49198e-11
4.29795e-09
6.24602e-11
4.23725e-09
6.06968e-11
4.17879e-09
5.84575e-11
4.12176e-09
5.70377e-11
4.06678e-09
5.49746e-11
4.0129e-09
5.38857e-11
3.96095e-09
5.19455e-11
3.90974e-09
5.1212e-11
3.86042e-09
4.93202e-11
3.81142e-09
4.90022e-11
3.76432e-09
4.70992e-11
3.71706e-09
4.72556e-11
3.67178e-09
4.5284e-11
3.62572e-09
4.6056e-11
3.58184e-09
4.38849e-11
3.53629e-09
4.55444e-11
3.49331e-09
4.29867e-11
5.03474e-11
4.672e-08
3.26602e-09
-4.63766e-08
4.64276e-08
4.87935e-09
4.54698e-08
5.52858e-09
4.41598e-08
5.61569e-09
4.2615e-08
5.55776e-09
4.08518e-08
5.36128e-09
3.8911e-08
4.95081e-09
3.69044e-08
4.3487e-09
3.49479e-08
3.64637e-09
3.31267e-08
2.98106e-09
3.14694e-08
2.44509e-09
2.99673e-08
2.05013e-09
2.86101e-08
1.75833e-09
2.73898e-08
1.53775e-09
2.62902e-08
1.37433e-09
2.52955e-08
1.24868e-09
2.43912e-08
1.14637e-09
2.35652e-08
1.05849e-09
2.28069e-08
9.80178e-10
2.21082e-08
9.08914e-10
2.14621e-08
8.43541e-10
2.08629e-08
7.83644e-10
2.03058e-08
7.28953e-10
1.97863e-08
6.79431e-10
1.93007e-08
6.34644e-10
1.88455e-08
5.94445e-10
1.84177e-08
5.58255e-10
1.80147e-08
5.25699e-10
1.76339e-08
4.96388e-10
1.72736e-08
4.69712e-10
1.69316e-08
4.45666e-10
1.66067e-08
4.23446e-10
1.62972e-08
4.03338e-10
1.60022e-08
3.84608e-10
1.57202e-08
3.67487e-10
1.54507e-08
3.51533e-10
1.51923e-08
3.36828e-10
1.49447e-08
3.23041e-10
1.47066e-08
3.10413e-10
1.4478e-08
2.98373e-10
1.42576e-08
2.87472e-10
1.40456e-08
2.76959e-10
1.38406e-08
2.67469e-10
1.3643e-08
2.58289e-10
1.34514e-08
2.50017e-10
1.32665e-08
2.41977e-10
1.30867e-08
2.34774e-10
1.29128e-08
2.27738e-10
1.27433e-08
2.21471e-10
1.25791e-08
2.15384e-10
1.24186e-08
2.09906e-10
1.22627e-08
2.04806e-10
1.21098e-08
2.0002e-10
1.19611e-08
1.95952e-10
1.18146e-08
1.91821e-10
1.16717e-08
1.88993e-10
1.15302e-08
1.85379e-10
1.13913e-08
1.84453e-10
1.1253e-08
1.81265e-10
1.90656e-10
4.92816e-08
3.07704e-09
-4.90926e-08
4.97539e-08
4.40708e-09
4.99571e-08
5.32539e-09
4.99536e-08
5.61915e-09
4.98286e-08
5.68276e-09
4.95601e-08
5.62976e-09
4.90892e-08
5.42177e-09
4.84146e-08
5.02329e-09
4.75789e-08
4.48202e-09
4.66486e-08
3.91139e-09
4.56777e-08
3.416e-09
4.46943e-08
3.03357e-09
4.37081e-08
2.74451e-09
4.27263e-08
2.51957e-09
4.1758e-08
2.3426e-09
4.08087e-08
2.19799e-09
3.98809e-08
2.07414e-09
3.8977e-08
1.96245e-09
3.8098e-08
1.85916e-09
3.72457e-08
1.76124e-09
3.64207e-08
1.6685e-09
3.56244e-08
1.57989e-09
3.4857e-08
1.49641e-09
3.41191e-08
1.41734e-09
3.341e-08
1.3437e-09
3.273e-08
1.27448e-09
3.20776e-08
1.21069e-09
3.14526e-08
1.15066e-09
3.08532e-08
1.09583e-09
3.02791e-08
1.04378e-09
2.97281e-08
9.96685e-10
2.92001e-08
9.51378e-10
2.86927e-08
9.10757e-10
2.82061e-08
8.71214e-10
2.77376e-08
8.35985e-10
2.72878e-08
8.01329e-10
2.68539e-08
7.70755e-10
2.64368e-08
7.40097e-10
2.60336e-08
7.13687e-10
2.56456e-08
6.86321e-10
2.52695e-08
6.63539e-10
2.49075e-08
6.39013e-10
2.45556e-08
6.19354e-10
2.42166e-08
5.97271e-10
2.38862e-08
5.80403e-10
2.35679e-08
5.60364e-10
2.32566e-08
5.46052e-10
2.29566e-08
5.2772e-10
2.26623e-08
5.15804e-10
2.23787e-08
4.98953e-10
2.20993e-08
4.89266e-10
2.18303e-08
4.73838e-10
2.1564e-08
4.66282e-10
2.13077e-08
4.52259e-10
2.10527e-08
4.46853e-10
2.08072e-08
4.34521e-10
2.05615e-08
4.31077e-10
2.03241e-08
4.21813e-10
2.00852e-08
4.20167e-10
4.23327e-10
5.1972e-08
3.01411e-09
-5.19091e-08
5.23559e-08
4.02317e-09
5.27538e-08
4.92756e-09
5.30292e-08
5.34376e-09
5.32559e-08
5.45598e-09
5.34502e-08
5.43547e-09
5.35619e-08
5.31005e-09
5.35448e-08
5.04038e-09
5.33863e-08
4.64057e-09
5.3112e-08
4.18572e-09
5.27611e-08
3.76681e-09
5.2363e-08
3.43169e-09
5.19273e-08
3.18028e-09
5.14584e-08
2.98846e-09
5.09628e-08
2.83815e-09
5.04466e-08
2.71425e-09
4.99121e-08
2.6086e-09
4.93623e-08
2.51224e-09
4.87983e-08
2.42318e-09
4.82229e-08
2.33665e-09
4.76373e-08
2.25409e-09
4.70449e-08
2.17232e-09
4.64469e-08
2.09443e-09
4.58467e-08
2.01745e-09
4.52454e-08
1.94501e-09
4.46463e-08
1.87366e-09
4.40495e-08
1.80745e-09
4.34583e-08
1.74187e-09
4.28722e-08
1.68192e-09
4.22943e-08
1.62167e-09
4.17234e-08
1.56755e-09
4.11627e-08
1.51208e-09
4.06103e-08
1.46321e-09
4.00693e-08
1.41218e-09
3.95373e-08
1.36803e-09
3.90175e-08
1.32107e-09
3.85069e-08
1.28139e-09
3.80091e-08
1.23792e-09
3.75201e-08
1.20264e-09
3.70443e-08
1.16218e-09
3.65767e-08
1.1311e-09
3.61223e-08
1.09338e-09
3.56755e-08
1.06618e-09
3.52418e-08
1.03094e-09
3.48148e-08
1.00744e-09
3.44008e-08
9.74329e-10
3.39924e-08
9.54472e-10
3.3597e-08
9.23097e-10
3.32059e-08
9.069e-10
3.28279e-08
8.76988e-10
3.24528e-08
8.64371e-10
3.20907e-08
8.35929e-10
3.17302e-08
8.26821e-10
3.13825e-08
7.99902e-10
3.1035e-08
7.94407e-10
3.07e-08
7.6949e-10
3.03636e-08
7.67441e-10
3.00389e-08
7.46555e-10
2.9711e-08
7.48106e-10
7.39101e-10
5.48239e-08
2.97352e-09
-5.47833e-08
5.50934e-08
3.75366e-09
5.54801e-08
4.54081e-09
5.58065e-08
5.01736e-09
5.60775e-08
5.18497e-09
5.63346e-08
5.17842e-09
5.6565e-08
5.07963e-09
5.6731e-08
4.87443e-09
5.68044e-08
4.56714e-09
5.67887e-08
4.20144e-09
5.67105e-08
3.84499e-09
5.65952e-08
3.54693e-09
5.64531e-08
3.32245e-09
5.62879e-08
3.15367e-09
5.61013e-08
3.02471e-09
5.58971e-08
2.91844e-09
5.56754e-08
2.83027e-09
5.54379e-08
2.74979e-09
5.51829e-08
2.67815e-09
5.49119e-08
2.60767e-09
5.46233e-08
2.5427e-09
5.43192e-08
2.47638e-09
5.39986e-08
2.41512e-09
5.36641e-08
2.35186e-09
5.3315e-08
2.2942e-09
5.29543e-08
2.23431e-09
5.2581e-08
2.18076e-09
5.21986e-08
2.12424e-09
5.18057e-08
2.07488e-09
5.1406e-08
2.02131e-09
5.09977e-08
1.9759e-09
5.0585e-08
1.92474e-09
5.01654e-08
1.88281e-09
4.97437e-08
1.83389e-09
4.93167e-08
1.79508e-09
4.88895e-08
1.74827e-09
4.84583e-08
1.71256e-09
4.80288e-08
1.66742e-09
4.75964e-08
1.63506e-09
4.71673e-08
1.59123e-09
4.67362e-08
1.56225e-09
4.63099e-08
1.51966e-09
4.58821e-08
1.49397e-09
4.54604e-08
1.45262e-09
4.50376e-08
1.43028e-09
4.4622e-08
1.38995e-09
4.42053e-08
1.37115e-09
4.37968e-08
1.33154e-09
4.33871e-08
1.31658e-09
4.29866e-08
1.27757e-09
4.25844e-08
1.26651e-09
4.2192e-08
1.22838e-09
4.17976e-08
1.22122e-09
4.14132e-08
1.18426e-09
4.10263e-08
1.1813e-09
4.06496e-08
1.14624e-09
4.02694e-08
1.14759e-09
3.98991e-08
1.11685e-09
3.9524e-08
1.12322e-09
1.10245e-09
5.78034e-08
2.92234e-09
-5.77522e-08
5.80015e-08
3.55552e-09
5.83355e-08
4.20681e-09
5.86638e-08
4.6891e-09
5.89399e-08
4.90883e-09
5.91866e-08
4.93172e-09
5.94156e-08
4.85067e-09
5.96063e-08
4.68371e-09
5.97336e-08
4.43985e-09
5.97928e-08
4.14217e-09
5.9799e-08
3.8388e-09
5.97761e-08
3.56985e-09
5.97362e-08
3.36237e-09
5.96854e-08
3.20442e-09
5.96239e-08
3.08621e-09
5.95546e-08
2.98776e-09
5.94767e-08
2.90814e-09
5.93922e-08
2.83431e-09
5.92987e-08
2.77171e-09
5.91973e-08
2.70905e-09
5.90851e-08
2.65487e-09
5.89638e-08
2.59769e-09
5.88304e-08
2.54846e-09
5.86874e-08
2.49489e-09
5.8532e-08
2.44964e-09
5.83669e-08
2.39939e-09
5.81895e-08
2.35819e-09
5.80028e-08
2.31093e-09
5.78039e-08
2.27378e-09
5.75963e-08
2.22887e-09
5.73767e-08
2.19548e-09
5.71493e-08
2.15218e-09
5.69102e-08
2.12189e-09
5.66642e-08
2.07993e-09
5.64071e-08
2.05218e-09
5.6144e-08
2.01138e-09
5.58704e-08
1.98615e-09
5.55918e-08
1.94597e-09
5.53034e-08
1.9235e-09
5.50111e-08
1.88351e-09
5.47096e-08
1.86376e-09
5.44054e-08
1.82389e-09
5.40926e-08
1.80673e-09
5.37782e-08
1.76702e-09
5.34559e-08
1.75259e-09
5.3133e-08
1.71287e-09
5.28028e-08
1.70137e-09
5.24729e-08
1.66137e-09
5.21363e-08
1.65318e-09
5.1801e-08
1.61291e-09
5.14594e-08
1.60807e-09
5.11197e-08
1.56814e-09
5.07743e-08
1.5666e-09
5.04311e-08
1.52746e-09
5.00827e-08
1.52972e-09
4.97366e-08
1.49235e-09
4.93854e-08
1.49879e-09
4.90365e-08
1.46576e-09
4.86823e-08
1.47741e-09
1.45277e-09
6.09108e-08
2.86029e-09
-6.08488e-08
6.10717e-08
3.3946e-09
6.13475e-08
3.93104e-09
6.16555e-08
4.3811e-09
6.19309e-08
4.63341e-09
6.21675e-08
4.69517e-09
6.23797e-08
4.6384e-09
6.25624e-08
4.50107e-09
6.26976e-08
4.30464e-09
6.27785e-08
4.06123e-09
6.28112e-08
3.80618e-09
6.28149e-08
3.56608e-09
6.28037e-08
3.37359e-09
6.27861e-08
3.22205e-09
6.27626e-08
3.10971e-09
6.2736e-08
3.01436e-09
6.27054e-08
2.93871e-09
6.26734e-08
2.86631e-09
6.26381e-08
2.80707e-09
6.26011e-08
2.74602e-09
6.25597e-08
2.69631e-09
6.25155e-08
2.64182e-09
6.24657e-08
2.59832e-09
6.24122e-08
2.54835e-09
6.23523e-08
2.50952e-09
6.22883e-08
2.46344e-09
6.22173e-08
2.42916e-09
6.21418e-08
2.38641e-09
6.20589e-08
2.35672e-09
6.19712e-08
2.31655e-09
6.18754e-08
2.29127e-09
6.17747e-08
2.25292e-09
6.16654e-08
2.23112e-09
6.1551e-08
2.19434e-09
6.14279e-08
2.17528e-09
6.12995e-08
2.13979e-09
6.11622e-08
2.12347e-09
6.10195e-08
2.08863e-09
6.08679e-08
2.07516e-09
6.07108e-08
2.04056e-09
6.05449e-08
2.02973e-09
6.03736e-08
1.9952e-09
6.01935e-08
1.98674e-09
6.00084e-08
1.9522e-09
5.98147e-08
1.9462e-09
5.96159e-08
1.91167e-09
5.94092e-08
1.90812e-09
5.91973e-08
1.87325e-09
5.8978e-08
1.87251e-09
5.87536e-08
1.83731e-09
5.85225e-08
1.83917e-09
5.8286e-08
1.80459e-09
5.80437e-08
1.80892e-09
5.77958e-08
1.77537e-09
5.75428e-08
1.78274e-09
5.72837e-08
1.7514e-09
5.70202e-08
1.7623e-09
5.67504e-08
1.73559e-09
5.64766e-08
1.7512e-09
1.73236e-09
6.41571e-08
2.79376e-09
-6.40906e-08
6.42986e-08
3.25308e-09
6.45252e-08
3.70445e-09
6.48025e-08
4.10382e-09
6.50685e-08
4.36741e-09
6.52993e-08
4.46432e-09
6.54985e-08
4.43923e-09
6.56692e-08
4.33037e-09
6.58021e-08
4.17173e-09
6.58912e-08
3.97214e-09
6.59372e-08
3.76025e-09
6.5953e-08
3.55026e-09
6.59522e-08
3.3744e-09
6.59447e-08
3.22952e-09
6.59325e-08
3.12186e-09
6.59182e-08
3.02872e-09
6.59011e-08
2.95583e-09
6.58834e-08
2.88394e-09
6.58644e-08
2.82614e-09
6.58456e-08
2.76475e-09
6.58254e-08
2.71655e-09
6.58051e-08
2.6621e-09
6.57827e-08
2.6207e-09
6.57597e-08
2.57143e-09
6.57342e-08
2.53494e-09
6.57077e-08
2.48997e-09
6.56786e-08
2.45826e-09
6.56482e-08
2.41684e-09
6.56148e-08
2.3901e-09
6.55799e-08
2.35145e-09
6.55415e-08
2.32963e-09
6.55012e-08
2.29328e-09
6.54571e-08
2.27517e-09
6.54104e-08
2.24101e-09
6.53599e-08
2.22587e-09
6.53062e-08
2.19343e-09
6.52483e-08
2.18141e-09
6.51867e-08
2.15016e-09
6.51208e-08
2.14113e-09
6.50505e-08
2.11086e-09
6.49756e-08
2.10457e-09
6.48959e-08
2.07492e-09
6.48115e-08
2.0711e-09
6.47218e-08
2.04192e-09
6.46276e-08
2.04042e-09
6.45271e-08
2.01214e-09
6.44225e-08
2.0128e-09
6.43109e-08
1.98482e-09
6.41953e-08
1.98809e-09
6.40722e-08
1.96048e-09
6.39456e-08
1.96571e-09
6.38105e-08
1.93971e-09
6.36725e-08
1.94696e-09
6.35252e-08
1.92266e-09
6.33755e-08
1.93245e-09
6.32155e-08
1.91131e-09
6.30536e-08
1.92421e-09
6.28811e-08
1.90815e-09
6.27067e-08
1.9256e-09
1.91743e-09
6.75546e-08
2.72672e-09
-6.74875e-08
6.76823e-08
3.12537e-09
6.78739e-08
3.51283e-09
6.81173e-08
3.86042e-09
6.8366e-08
4.11871e-09
6.859e-08
4.24026e-09
6.87808e-08
4.24849e-09
6.89413e-08
4.16984e-09
6.90693e-08
4.0437e-09
6.91614e-08
3.88007e-09
6.92164e-08
3.70524e-09
6.92418e-08
3.52488e-09
6.92484e-08
3.36778e-09
6.92464e-08
3.2315e-09
6.92396e-08
3.12865e-09
6.92301e-08
3.03824e-09
6.92181e-08
2.96786e-09
6.92048e-08
2.89724e-09
6.91904e-08
2.84053e-09
6.9176e-08
2.77911e-09
6.91612e-08
2.73136e-09
6.91466e-08
2.67671e-09
6.91316e-08
2.63571e-09
6.91163e-08
2.58673e-09
6.91007e-08
2.55051e-09
6.90847e-08
2.50603e-09
6.90684e-08
2.47456e-09
6.90516e-08
2.4336e-09
6.90345e-08
2.40722e-09
6.90169e-08
2.36902e-09
6.89989e-08
2.34762e-09
6.898e-08
2.31225e-09
6.89608e-08
2.29437e-09
6.89401e-08
2.26174e-09
6.8919e-08
2.24691e-09
6.88962e-08
2.21629e-09
6.88728e-08
2.20477e-09
6.8847e-08
2.17595e-09
6.88209e-08
2.16724e-09
6.87915e-08
2.14024e-09
6.87618e-08
2.13428e-09
6.87283e-08
2.10844e-09
6.86943e-08
2.10514e-09
6.86558e-08
2.08038e-09
6.86171e-08
2.07911e-09
6.85729e-08
2.05636e-09
6.85285e-08
2.05714e-09
6.8478e-08
2.03534e-09
6.84274e-08
2.03875e-09
6.83696e-08
2.01829e-09
6.83121e-08
2.02318e-09
6.82466e-08
2.00523e-09
6.81812e-08
2.01233e-09
6.81071e-08
1.99671e-09
6.80334e-08
2.00617e-09
6.795e-08
1.99469e-09
6.78669e-08
2.0074e-09
6.77738e-08
2.00121e-09
6.76805e-08
2.01889e-09
2.02063e-09
7.11136e-08
2.66084e-09
-7.10478e-08
7.12297e-08
3.00933e-09
7.13966e-08
3.34591e-09
7.16082e-08
3.64879e-09
7.18352e-08
3.8917e-09
7.20484e-08
4.02707e-09
7.22325e-08
4.06443e-09
7.23855e-08
4.01679e-09
7.25085e-08
3.92074e-09
7.26007e-08
3.78782e-09
7.26617e-08
3.64423e-09
7.26953e-08
3.49136e-09
7.27091e-08
3.35392e-09
7.2712e-08
3.22861e-09
7.27095e-08
3.13121e-09
7.27033e-08
3.04443e-09
7.26947e-08
2.97643e-09
7.26839e-08
2.90805e-09
7.26719e-08
2.85254e-09
7.2659e-08
2.79196e-09
7.2646e-08
2.74437e-09
7.26327e-08
2.69006e-09
7.26197e-08
2.64865e-09
7.2606e-08
2.60042e-09
7.25931e-08
2.56347e-09
7.25793e-08
2.51979e-09
7.25663e-08
2.48753e-09
7.25528e-08
2.44715e-09
7.254e-08
2.41998e-09
7.25268e-08
2.38224e-09
7.25147e-08
2.35975e-09
7.25015e-08
2.32543e-09
7.24898e-08
2.30603e-09
7.24768e-08
2.27478e-09
7.24652e-08
2.25854e-09
7.24521e-08
2.22931e-09
7.24405e-08
2.21639e-09
7.24269e-08
2.18957e-09
7.24152e-08
2.17897e-09
7.24008e-08
2.15464e-09
7.23882e-08
2.14683e-09
7.23729e-08
2.1238e-09
7.23591e-08
2.11889e-09
7.2342e-08
2.09749e-09
7.2327e-08
2.09414e-09
7.23077e-08
2.07562e-09
7.22905e-08
2.07441e-09
7.22687e-08
2.05709e-09
7.22488e-08
2.05862e-09
7.22236e-08
2.04353e-09
7.22005e-08
2.04623e-09
7.21717e-08
2.03403e-09
7.21445e-08
2.03957e-09
7.21111e-08
2.03007e-09
7.20794e-08
2.03792e-09
7.20409e-08
2.03321e-09
7.20034e-08
2.04487e-09
7.19592e-08
2.04536e-09
7.19155e-08
2.06261e-09
2.07092e-09
7.48441e-08
2.59664e-09
-7.47798e-08
7.49499e-08
2.90347e-09
7.50977e-08
3.19812e-09
7.52821e-08
3.46437e-09
7.54861e-08
3.68768e-09
7.56847e-08
3.82854e-09
7.58611e-08
3.88803e-09
7.60084e-08
3.86945e-09
7.61271e-08
3.80203e-09
7.62182e-08
3.69677e-09
7.62826e-08
3.5798e-09
7.63224e-08
3.45157e-09
7.63431e-08
3.3332e-09
7.63509e-08
3.2208e-09
7.63524e-08
3.12975e-09
7.63492e-08
3.04761e-09
7.63436e-08
2.98202e-09
7.63351e-08
2.91653e-09
7.63252e-08
2.86246e-09
7.63137e-08
2.80349e-09
7.63019e-08
2.75615e-09
7.62892e-08
2.70278e-09
7.62772e-08
2.66064e-09
7.62641e-08
2.61357e-09
7.6252e-08
2.57556e-09
7.62389e-08
2.53289e-09
7.62268e-08
2.49959e-09
7.6214e-08
2.45991e-09
7.62024e-08
2.43166e-09
7.61901e-08
2.39454e-09
7.61794e-08
2.37041e-09
7.61676e-08
2.33727e-09
7.61578e-08
2.31585e-09
7.61467e-08
2.28582e-09
7.61374e-08
2.26784e-09
7.6127e-08
2.23971e-09
7.61185e-08
2.2249e-09
7.61083e-08
2.19978e-09
7.61005e-08
2.18672e-09
7.60907e-08
2.16448e-09
7.60831e-08
2.15441e-09
7.60737e-08
2.13325e-09
7.60662e-08
2.12633e-09
7.60564e-08
2.10728e-09
7.60491e-08
2.10144e-09
7.6039e-08
2.08577e-09
7.6031e-08
2.08235e-09
7.60203e-08
2.06782e-09
7.60117e-08
2.06721e-09
7.59996e-08
2.05561e-09
7.59898e-08
2.05607e-09
7.59766e-08
2.04724e-09
7.59649e-08
2.05129e-09
7.59496e-08
2.04534e-09
7.59358e-08
2.05166e-09
7.59183e-08
2.05078e-09
7.59015e-08
2.0616e-09
7.58812e-08
2.06572e-09
7.58613e-08
2.08254e-09
2.09432e-09
7.87555e-08
2.53443e-09
-7.86933e-08
7.88523e-08
2.80668e-09
7.8984e-08
3.06643e-09
7.91457e-08
3.30263e-09
7.93274e-08
3.50597e-09
7.95091e-08
3.64681e-09
7.96758e-08
3.72139e-09
7.98176e-08
3.72764e-09
7.99328e-08
3.6868e-09
8.00223e-08
3.60732e-09
8.00883e-08
3.5138e-09
8.01324e-08
3.40745e-09
8.01589e-08
3.30672e-09
8.01716e-08
3.20808e-09
8.01769e-08
3.12445e-09
8.01767e-08
3.04781e-09
8.01738e-08
2.98494e-09
8.01676e-08
2.92267e-09
8.01598e-08
2.87034e-09
8.01498e-08
2.81348e-09
8.01392e-08
2.7667e-09
8.01273e-08
2.7147e-09
8.01161e-08
2.6719e-09
8.01035e-08
2.62609e-09
8.00919e-08
2.58714e-09
8.00794e-08
2.5454e-09
8.00678e-08
2.51124e-09
8.00555e-08
2.47219e-09
8.00442e-08
2.44294e-09
8.00323e-08
2.40646e-09
8.0022e-08
2.38067e-09
8.00107e-08
2.34858e-09
8.00012e-08
2.32536e-09
7.99909e-08
2.29615e-09
7.9982e-08
2.27671e-09
7.99724e-08
2.24932e-09
7.99645e-08
2.23281e-09
7.99553e-08
2.209e-09
7.99483e-08
2.19374e-09
7.99399e-08
2.17291e-09
7.99332e-08
2.16103e-09
7.99256e-08
2.14089e-09
7.99196e-08
2.13235e-09
7.99121e-08
2.11476e-09
7.99066e-08
2.10695e-09
7.98994e-08
2.09293e-09
7.98939e-08
2.0879e-09
7.98868e-08
2.07491e-09
7.98813e-08
2.07267e-09
7.98739e-08
2.0631e-09
7.98679e-08
2.06206e-09
7.98602e-08
2.0549e-09
7.98534e-08
2.05806e-09
7.98448e-08
2.05392e-09
7.98372e-08
2.05933e-09
7.98276e-08
2.06032e-09
7.98185e-08
2.07077e-09
7.98076e-08
2.07662e-09
7.97969e-08
2.09326e-09
2.10662e-09
8.28578e-08
2.47472e-09
-8.27981e-08
8.29463e-08
2.71816e-09
8.30639e-08
2.94885e-09
8.32064e-08
3.16011e-09
8.33674e-08
3.34495e-09
8.35318e-08
3.48248e-09
8.36867e-08
3.56643e-09
8.3822e-08
3.59237e-09
8.39337e-08
3.57506e-09
8.40216e-08
3.51948e-09
8.4088e-08
3.44736e-09
8.41348e-08
3.36065e-09
8.41656e-08
3.27596e-09
8.41828e-08
3.19084e-09
8.41917e-08
3.11554e-09
8.41945e-08
3.04505e-09
8.4194e-08
2.98543e-09
8.41901e-08
2.92655e-09
8.41842e-08
2.87622e-09
8.41759e-08
2.82177e-09
8.41667e-08
2.77594e-09
8.41559e-08
2.72553e-09
8.41453e-08
2.68245e-09
8.41336e-08
2.63778e-09
8.41225e-08
2.59827e-09
8.41107e-08
2.55721e-09
8.40995e-08
2.52247e-09
8.40877e-08
2.48393e-09
8.40768e-08
2.45387e-09
8.40653e-08
2.41792e-09
8.40552e-08
2.39074e-09
8.40445e-08
2.35932e-09
8.4035e-08
2.33482e-09
8.40252e-08
2.30594e-09
8.40165e-08
2.28547e-09
8.40073e-08
2.25849e-09
8.39995e-08
2.24062e-09
8.39908e-08
2.21767e-09
8.39838e-08
2.20078e-09
8.3976e-08
2.18069e-09
8.39695e-08
2.1676e-09
8.39625e-08
2.14784e-09
8.39567e-08
2.1382e-09
8.39501e-08
2.12135e-09
8.39448e-08
2.11227e-09
8.39387e-08
2.09903e-09
8.39335e-08
2.09303e-09
8.39276e-08
2.0808e-09
8.39228e-08
2.07754e-09
8.39168e-08
2.06901e-09
8.39117e-08
2.06723e-09
8.39058e-08
2.06082e-09
8.39002e-08
2.06359e-09
8.38939e-08
2.06029e-09
8.38878e-08
2.06537e-09
8.38809e-08
2.06721e-09
8.38741e-08
2.07762e-09
8.38664e-08
2.08433e-09
8.38586e-08
2.10098e-09
2.11505e-09
8.71612e-08
2.41802e-09
-8.71045e-08
8.72419e-08
2.63746e-09
8.73468e-08
2.84397e-09
8.74727e-08
3.03422e-09
8.76149e-08
3.20272e-09
8.77623e-08
3.33513e-09
8.79043e-08
3.42437e-09
8.80316e-08
3.46511e-09
8.81391e-08
3.46758e-09
8.8225e-08
3.43353e-09
8.82912e-08
3.3812e-09
8.83394e-08
3.31241e-09
8.8373e-08
3.24237e-09
8.83939e-08
3.16992e-09
8.84061e-08
3.1034e-09
8.84117e-08
3.03946e-09
8.84134e-08
2.98367e-09
8.84117e-08
2.92831e-09
8.84077e-08
2.88022e-09
8.84011e-08
2.82833e-09
8.83933e-08
2.78376e-09
8.83837e-08
2.73507e-09
8.8374e-08
2.69221e-09
8.83633e-08
2.64847e-09
8.83527e-08
2.60886e-09
8.83417e-08
2.56823e-09
8.8331e-08
2.53318e-09
8.83199e-08
2.49505e-09
8.83094e-08
2.46435e-09
8.82985e-08
2.42878e-09
8.82887e-08
2.4006e-09
8.82786e-08
2.36942e-09
8.82693e-08
2.34413e-09
8.826e-08
2.31522e-09
8.82514e-08
2.29402e-09
8.82427e-08
2.26724e-09
8.8235e-08
2.24834e-09
8.82268e-08
2.22583e-09
8.82197e-08
2.20786e-09
8.82124e-08
2.18799e-09
8.82059e-08
2.17412e-09
8.81993e-08
2.15439e-09
8.81935e-08
2.14401e-09
8.81875e-08
2.1274e-09
8.81821e-08
2.11763e-09
8.81765e-08
2.10461e-09
8.81715e-08
2.09804e-09
8.81661e-08
2.08619e-09
8.81613e-08
2.08236e-09
8.8156e-08
2.07428e-09
8.8151e-08
2.07223e-09
8.81457e-08
2.06618e-09
8.81405e-08
2.0688e-09
8.81349e-08
2.06589e-09
8.81292e-08
2.07102e-09
8.81232e-08
2.07326e-09
8.8117e-08
2.08376e-09
8.81104e-08
2.09098e-09
8.81036e-08
2.10776e-09
2.12219e-09
9.16764e-08
2.36507e-09
-9.16235e-08
9.17494e-08
2.5645e-09
9.18426e-08
2.75071e-09
9.19538e-08
2.92304e-09
9.20791e-08
3.07741e-09
9.22104e-08
3.20384e-09
9.2339e-08
3.29574e-09
9.24569e-08
3.34722e-09
9.25589e-08
3.3656e-09
9.26422e-08
3.35022e-09
9.27075e-08
3.31593e-09
9.27563e-08
3.26363e-09
9.27914e-08
3.2072e-09
9.2815e-08
3.14636e-09
9.28298e-08
3.08861e-09
9.28379e-08
3.03135e-09
9.28417e-08
2.97985e-09
9.28419e-08
2.92816e-09
9.28397e-08
2.88243e-09
9.28348e-08
2.83321e-09
9.28284e-08
2.79013e-09
9.28203e-08
2.74319e-09
9.28115e-08
2.70105e-09
9.28019e-08
2.65806e-09
9.2792e-08
2.61875e-09
9.27818e-08
2.57841e-09
9.27718e-08
2.54322e-09
9.27614e-08
2.50545e-09
9.27515e-08
2.47423e-09
9.27413e-08
2.43893e-09
9.27318e-08
2.41011e-09
9.27224e-08
2.37882e-09
9.27134e-08
2.35312e-09
9.27047e-08
2.32399e-09
9.26965e-08
2.30221e-09
9.26882e-08
2.27552e-09
9.26807e-08
2.25584e-09
9.26731e-08
2.23345e-09
9.26661e-08
2.21484e-09
9.26592e-08
2.19485e-09
9.26529e-08
2.18043e-09
9.26467e-08
2.16062e-09
9.2641e-08
2.14968e-09
9.26354e-08
2.13302e-09
9.26301e-08
2.12292e-09
9.26249e-08
2.10982e-09
9.26201e-08
2.10288e-09
9.2615e-08
2.09125e-09
9.26103e-08
2.08708e-09
9.26054e-08
2.07915e-09
9.26006e-08
2.07707e-09
9.25955e-08
2.07125e-09
9.25905e-08
2.07381e-09
9.25853e-08
2.0711e-09
9.25799e-08
2.07644e-09
9.25742e-08
2.07892e-09
9.25685e-08
2.08952e-09
9.25623e-08
2.09715e-09
9.2556e-08
2.11408e-09
2.12874e-09
9.79412e-08
2.31608e-09
-9.78922e-08
9.80076e-08
2.49812e-09
9.80916e-08
2.66672e-09
9.81911e-08
2.82354e-09
9.83028e-08
2.96569e-09
9.84208e-08
3.08587e-09
9.85375e-08
3.17896e-09
9.86466e-08
3.2382e-09
9.8743e-08
3.26917e-09
9.88236e-08
3.26964e-09
9.8888e-08
3.25151e-09
9.89372e-08
3.21444e-09
9.89735e-08
3.17092e-09
9.8999e-08
3.12084e-09
9.9016e-08
3.07163e-09
9.90264e-08
3.02097e-09
9.90321e-08
2.97408e-09
9.90341e-08
2.92623e-09
9.90335e-08
2.883e-09
9.90302e-08
2.83653e-09
9.90252e-08
2.79509e-09
9.90185e-08
2.74992e-09
9.90106e-08
2.70892e-09
9.90021e-08
2.6666e-09
9.89929e-08
2.62788e-09
9.89835e-08
2.58781e-09
9.89741e-08
2.55261e-09
9.89644e-08
2.51518e-09
9.89551e-08
2.48351e-09
9.89457e-08
2.44841e-09
9.89366e-08
2.4192e-09
9.89277e-08
2.38764e-09
9.89192e-08
2.3617e-09
9.89108e-08
2.3323e-09
9.8903e-08
2.31004e-09
9.88952e-08
2.28338e-09
9.88879e-08
2.26309e-09
9.88808e-08
2.24059e-09
9.8874e-08
2.22161e-09
9.88675e-08
2.20134e-09
9.88614e-08
2.18649e-09
9.88555e-08
2.16655e-09
9.885e-08
2.15515e-09
9.88447e-08
2.13831e-09
9.88396e-08
2.12803e-09
9.88347e-08
2.11474e-09
9.88301e-08
2.10753e-09
9.88253e-08
2.09602e-09
9.88207e-08
2.09168e-09
9.88161e-08
2.08374e-09
9.88114e-08
2.08173e-09
9.88066e-08
2.07611e-09
9.88018e-08
2.07861e-09
9.87968e-08
2.07605e-09
9.87916e-08
2.08165e-09
9.87862e-08
2.08432e-09
9.87807e-08
2.09499e-09
9.87749e-08
2.10299e-09
9.87689e-08
2.12008e-09
2.13491e-09
1.10021e-07
2.26646e-09
-1.09971e-07
1.10085e-07
2.43376e-09
1.10164e-07
2.58735e-09
1.10257e-07
2.73067e-09
1.10361e-07
2.86217e-09
1.10471e-07
2.97601e-09
1.1058e-07
3.06967e-09
1.10683e-07
3.13478e-09
1.10777e-07
3.17596e-09
1.10856e-07
3.19006e-09
1.10921e-07
3.18653e-09
1.10972e-07
3.16375e-09
1.1101e-07
3.13281e-09
1.11038e-07
3.09308e-09
1.11057e-07
3.05229e-09
1.1107e-07
3.00816e-09
1.11078e-07
2.96616e-09
1.11082e-07
2.92236e-09
1.11083e-07
2.88185e-09
1.11081e-07
2.8383e-09
1.11077e-07
2.79872e-09
1.11072e-07
2.75543e-09
1.11065e-07
2.71593e-09
1.11057e-07
2.67433e-09
1.11049e-07
2.63644e-09
1.1104e-07
2.59667e-09
1.11031e-07
2.5616e-09
1.11021e-07
2.52445e-09
1.11013e-07
2.4924e-09
1.11003e-07
2.45747e-09
1.10995e-07
2.42802e-09
1.10986e-07
2.39615e-09
1.10978e-07
2.37003e-09
1.1097e-07
2.34039e-09
1.10962e-07
2.31768e-09
1.10954e-07
2.291e-09
1.10947e-07
2.27025e-09
1.1094e-07
2.24747e-09
1.10934e-07
2.2283e-09
1.10927e-07
2.20764e-09
1.10922e-07
2.19241e-09
1.10916e-07
2.17236e-09
1.1091e-07
2.1605e-09
1.10905e-07
2.14347e-09
1.109e-07
2.13303e-09
1.10895e-07
2.11953e-09
1.10891e-07
2.11208e-09
1.10886e-07
2.10064e-09
1.10882e-07
2.09622e-09
1.10877e-07
2.08822e-09
1.10873e-07
2.08628e-09
1.10868e-07
2.08091e-09
1.10863e-07
2.0833e-09
1.10858e-07
2.08091e-09
1.10853e-07
2.08677e-09
1.10848e-07
2.0896e-09
1.10843e-07
2.10036e-09
1.10837e-07
2.10868e-09
1.10831e-07
2.12592e-09
2.14089e-09
1.23582e-07
2.21811e-09
-1.23533e-07
1.23643e-07
2.37252e-09
1.23717e-07
2.51355e-09
1.23802e-07
2.64563e-09
1.23895e-07
2.76837e-09
1.23995e-07
2.8767e-09
1.24094e-07
2.97034e-09
1.24189e-07
3.03984e-09
1.24276e-07
3.08898e-09
1.24352e-07
3.11428e-09
1.24415e-07
3.12327e-09
1.24465e-07
3.11331e-09
1.24504e-07
3.09417e-09
1.24533e-07
3.06423e-09
1.24554e-07
3.03152e-09
1.24568e-07
2.99364e-09
1.24578e-07
2.9565e-09
1.24583e-07
2.91673e-09
1.24586e-07
2.87901e-09
1.24586e-07
2.83839e-09
1.24584e-07
2.80077e-09
1.2458e-07
2.75946e-09
1.24574e-07
2.72167e-09
1.24568e-07
2.68091e-09
1.2456e-07
2.64403e-09
1.24552e-07
2.60462e-09
1.24544e-07
2.56983e-09
1.24536e-07
2.53287e-09
1.24527e-07
2.50055e-09
1.24519e-07
2.46579e-09
1.24511e-07
2.43614e-09
1.24503e-07
2.40406e-09
1.24495e-07
2.37773e-09
1.24488e-07
2.34792e-09
1.24481e-07
2.32483e-09
1.24474e-07
2.29807e-09
1.24467e-07
2.27698e-09
1.24461e-07
2.25381e-09
1.24454e-07
2.23459e-09
1.24449e-07
2.21348e-09
1.24443e-07
2.19793e-09
1.24438e-07
2.17779e-09
1.24433e-07
2.16543e-09
1.24428e-07
2.14833e-09
1.24423e-07
2.13763e-09
1.24419e-07
2.12399e-09
1.24414e-07
2.11638e-09
1.2441e-07
2.10487e-09
1.24406e-07
2.10052e-09
1.24402e-07
2.09241e-09
1.24397e-07
2.09054e-09
1.24393e-07
2.08543e-09
1.24389e-07
2.08767e-09
1.24384e-07
2.08551e-09
1.24379e-07
2.09159e-09
1.24374e-07
2.09453e-09
1.24369e-07
2.10541e-09
1.24364e-07
2.11401e-09
1.24358e-07
2.13136e-09
2.14646e-09
1.38806e-07
2.17343e-09
-1.38761e-07
1.38862e-07
2.31664e-09
1.38928e-07
2.44714e-09
1.39004e-07
2.57022e-09
1.39086e-07
2.68638e-09
1.39171e-07
2.79083e-09
1.39258e-07
2.88402e-09
1.39341e-07
2.95658e-09
1.39418e-07
3.01163e-09
1.39487e-07
3.04566e-09
1.39545e-07
3.06476e-09
1.39593e-07
3.06561e-09
1.3963e-07
3.05687e-09
1.39659e-07
3.03581e-09
1.3968e-07
3.0106e-09
1.39695e-07
2.97849e-09
1.39706e-07
2.94589e-09
1.39713e-07
2.90981e-09
1.39717e-07
2.87476e-09
1.39718e-07
2.83687e-09
1.39718e-07
2.80114e-09
1.39716e-07
2.7618e-09
1.39712e-07
2.72573e-09
1.39706e-07
2.68596e-09
1.397e-07
2.65023e-09
1.39694e-07
2.61121e-09
1.39687e-07
2.57682e-09
1.3968e-07
2.53997e-09
1.39673e-07
2.50747e-09
1.39666e-07
2.47292e-09
1.39659e-07
2.44302e-09
1.39652e-07
2.4109e-09
1.39645e-07
2.38432e-09
1.39639e-07
2.35446e-09
1.39632e-07
2.33106e-09
1.39626e-07
2.30415e-09
1.3962e-07
2.2829e-09
1.39615e-07
2.25925e-09
1.39609e-07
2.2401e-09
1.39604e-07
2.21848e-09
1.396e-07
2.20273e-09
1.39595e-07
2.18252e-09
1.39591e-07
2.16961e-09
1.39587e-07
2.15261e-09
1.39583e-07
2.14154e-09
1.39579e-07
2.12781e-09
1.39575e-07
2.12016e-09
1.39571e-07
2.10844e-09
1.39568e-07
2.10431e-09
1.39564e-07
2.09601e-09
1.3956e-07
2.09423e-09
1.39556e-07
2.0894e-09
1.39553e-07
2.09144e-09
1.39549e-07
2.08954e-09
1.39544e-07
2.09581e-09
1.3954e-07
2.09879e-09
1.39536e-07
2.10988e-09
1.39531e-07
2.11864e-09
1.39526e-07
2.13604e-09
2.15135e-09
1.55898e-07
2.13471e-09
-1.55859e-07
1.55946e-07
2.26832e-09
1.56003e-07
2.39055e-09
1.56065e-07
2.50739e-09
1.56132e-07
2.61952e-09
1.56201e-07
2.72205e-09
1.56271e-07
2.81462e-09
1.56338e-07
2.88903e-09
1.56402e-07
2.94809e-09
1.56459e-07
2.98841e-09
1.56509e-07
3.01498e-09
1.5655e-07
3.02416e-09
1.56583e-07
3.02371e-09
1.56609e-07
3.00997e-09
1.56629e-07
2.9912e-09
1.56643e-07
2.96406e-09
1.56653e-07
2.93538e-09
1.56661e-07
2.90237e-09
1.56666e-07
2.8696e-09
1.56669e-07
2.83397e-09
1.5667e-07
2.79988e-09
1.5667e-07
2.76233e-09
1.56668e-07
2.72781e-09
1.56665e-07
2.68906e-09
1.5666e-07
2.65448e-09
1.56656e-07
2.61587e-09
1.5665e-07
2.58198e-09
1.56645e-07
2.54516e-09
1.5664e-07
2.5126e-09
1.56635e-07
2.47823e-09
1.5663e-07
2.44805e-09
1.56625e-07
2.41609e-09
1.5662e-07
2.3892e-09
1.56615e-07
2.35941e-09
1.5661e-07
2.33577e-09
1.56606e-07
2.3087e-09
1.56601e-07
2.28743e-09
1.56597e-07
2.26326e-09
1.56593e-07
2.24434e-09
1.56589e-07
2.22216e-09
1.56585e-07
2.20633e-09
1.56582e-07
2.18609e-09
1.56579e-07
2.17261e-09
1.56576e-07
2.1559e-09
1.56573e-07
2.14433e-09
1.5657e-07
2.13064e-09
1.56567e-07
2.12301e-09
1.56565e-07
2.11096e-09
1.56562e-07
2.10723e-09
1.56559e-07
2.09867e-09
1.56556e-07
2.09698e-09
1.56553e-07
2.09246e-09
1.5655e-07
2.09422e-09
1.56547e-07
2.09264e-09
1.56544e-07
2.09904e-09
1.56541e-07
2.10201e-09
1.56537e-07
2.11337e-09
1.56534e-07
2.1223e-09
1.5653e-07
2.13943e-09
2.15517e-09
1.75089e-07
2.10112e-09
-1.75055e-07
1.75128e-07
2.22903e-09
1.7517e-07
2.3482e-09
1.75215e-07
2.46267e-09
1.75261e-07
2.57326e-09
1.75308e-07
2.67546e-09
1.75355e-07
2.76708e-09
1.75402e-07
2.84243e-09
1.75446e-07
2.90371e-09
1.75487e-07
2.94787e-09
1.75523e-07
2.97904e-09
1.75553e-07
2.99357e-09
1.75578e-07
2.99857e-09
1.75599e-07
2.98982e-09
1.75614e-07
2.97563e-09
1.75626e-07
2.95203e-09
1.75635e-07
2.92621e-09
1.75642e-07
2.89532e-09
1.75648e-07
2.86417e-09
1.75652e-07
2.83012e-09
1.75654e-07
2.79715e-09
1.75656e-07
2.76099e-09
1.75656e-07
2.72762e-09