/*--------------------------------*- C++ -*----------------------------------*\
| =========                 |                                                 |
| \\      /  F ield         | OpenFOAM: The Open Source CFD Toolbox           |
|  \\    /   O peration     | Version:  2.3.0                                 |
|   \\  /    A nd           | Web:      www.OpenFOAM.org                      |
|    \\/     M anipulation  |                                                 |
\*---------------------------------------------------------------------------*/
FoamFile
{
    version     2.0;
    format      ascii;
    class       volScalarField;
    location    "0.25";
    object      p;
}
// * * * * * * * * * * * * * * * * * * * * * * * * * * * * * * * * * * * * * //

dimensions      [0 2 -2 0 0 0 0];

internalField   nonuniform List<scalar> 
3105
(
0.00251039
0.00221054
0.00161761
0.00105314
0.000582164
0.000182756
-0.000154822
-0.000414849
-0.000578829
-0.000650752
-0.000655529
-0.000623114
-0.000576979
-0.00053163
-0.000494126
-0.000466081
-0.000445998
-0.000431484
-0.000420566
-0.00041198
-0.000404885
-0.000398513
-0.000392147
-0.000385415
-0.000378473
-0.000371763
-0.000365573
-0.000359837
-0.000354321
-0.00034889
-0.00034358
-0.000338476
-0.000333567
-0.000328739
-0.000323877
-0.000318958
-0.000314062
-0.000309315
-0.000304816
-0.00030058
-0.000296538
-0.000292559
-0.000288467
-0.000284091
-0.00027933
-0.000274187
-0.000268726
-0.000263026
-0.000257129
-0.000251003
-0.000244551
-0.000237666
-0.00023027
-0.000222317
-0.000213759
-0.000204563
-0.000194741
-0.000184345
-0.000173431
-0.000162189
-0.000150819
-0.000139502
-0.000128513
-0.000117987
-0.000108069
-9.88563e-05
-9.03815e-05
-8.26429e-05
-7.55796e-05
-6.91251e-05
-6.32109e-05
-5.77749e-05
-5.27651e-05
-4.81436e-05
-4.38818e-05
-3.99592e-05
-3.63551e-05
-3.30484e-05
-3.00203e-05
-2.7238e-05
-2.46722e-05
-2.23007e-05
-2.01013e-05
-1.80593e-05
-1.61595e-05
-1.43937e-05
-1.27512e-05
-1.12275e-05
-9.8147e-06
-8.51137e-06
-7.3115e-06
-6.21597e-06
-5.21582e-06
-4.30763e-06
-3.48105e-06
-2.72918e-06
-2.04071e-06
-1.40564e-06
-8.16729e-07
-2.58836e-07
0.00208407
0.00192482
0.00150701
0.00102028
0.000577131
0.00019844
-0.000117332
-0.000360177
-0.000519334
-0.00059701
-0.00061168
-0.000589043
-0.000551203
-0.000512329
-0.000479633
-0.000454933
-0.000437053
-0.000423955
-0.000413962
-0.000406026
-0.000399455
-0.000393552
-0.000387602
-0.000381215
-0.000374558
-0.00036811
-0.000362184
-0.000356708
-0.000351424
-0.000346191
-0.000341056
-0.00033612
-0.000331378
-0.000326708
-0.000321986
-0.000317186
-0.000312394
-0.000307744
-0.000303345
-0.000299214
-0.000295281
-0.000291414
-0.000287432
-0.000283155
-0.00027848
-0.000273411
-0.000268018
-0.000262385
-0.000256559
-0.00025051
-0.000244135
-0.000237321
-0.000229991
-0.000222098
-0.000213597
-0.000204458
-0.000194685
-0.000184327
-0.000173481
-0.000162249
-0.000150902
-0.000139581
-0.000128593
-0.000118058
-0.000108133
-9.89131e-05
-9.04312e-05
-8.26899e-05
-7.56243e-05
-6.91683e-05
-6.32528e-05
-5.78153e-05
-5.28037e-05
-4.81799e-05
-4.39155e-05
-3.99906e-05
-3.63843e-05
-3.30752e-05
-3.00462e-05
-2.72625e-05
-2.46954e-05
-2.23225e-05
-2.01216e-05
-1.8078e-05
-1.61766e-05
-1.44092e-05
-1.27651e-05
-1.12398e-05
-9.82543e-06
-8.52055e-06
-7.31914e-06
-6.22239e-06
-5.22113e-06
-4.31195e-06
-3.48467e-06
-2.7321e-06
-2.04329e-06
-1.40765e-06
-8.18784e-07
-2.60217e-07
0.00178728
0.00169044
0.00140073
0.00099796
0.000593337
0.000239623
-5.10119e-05
-0.000275189
-0.000430214
-0.000517941
-0.000549526
-0.000543452
-0.00051883
-0.000489789
-0.00046367
-0.00044294
-0.000427308
-0.000415501
-0.000406327
-0.000398986
-0.000392909
-0.000387466
-0.000381957
-0.000375984
-0.000369705
-0.00036361
-0.000358025
-0.000352878
-0.000347903
-0.00034295
-0.000338065
-0.000333354
-0.000328813
-0.000324318
-0.000319746
-0.000315076
-0.000310399
-0.000305861
-0.000301574
-0.00029756
-0.00029375
-0.000290008
-0.000286147
-0.000281979
-0.000277395
-0.000272401
-0.000267075
-0.00026151
-0.000255761
-0.000249797
-0.000243509
-0.000236776
-0.000229523
-0.000221703
-0.000213272
-0.000204195
-0.000194477
-0.000184163
-0.000173343
-0.00016217
-0.000150812
-0.000139493
-0.000128535
-0.000118012
-0.000108094
-9.88824e-05
-9.04056e-05
-8.26736e-05
-7.56136e-05
-6.91626e-05
-6.3251e-05
-5.78166e-05
-5.28068e-05
-4.81841e-05
-4.39202e-05
-3.99959e-05
-3.63905e-05
-3.30813e-05
-3.00547e-05
-2.72723e-05
-2.4706e-05
-2.23335e-05
-2.01324e-05
-1.80885e-05
-1.61865e-05
-1.44181e-05
-1.27729e-05
-1.12465e-05
-9.83096e-06
-8.52495e-06
-7.32219e-06
-6.22479e-06
-5.22281e-06
-4.31319e-06
-3.48559e-06
-2.73293e-06
-2.04404e-06
-1.40835e-06
-8.19194e-07
-2.60377e-07
0.0015829
0.00150493
0.00129267
0.000967076
0.000610488
0.000286078
1.80888e-05
-0.000189667
-0.000338698
-0.000432129
-0.000477364
-0.000487178
-0.000476567
-0.000458088
-0.000439368
-0.000423652
-0.000411397
-0.000401946
-0.000394515
-0.00038849
-0.000383386
-0.000378697
-0.000373869
-0.000368576
-0.000362951
-0.00035742
-0.000352281
-0.000347495
-0.000342849
-0.000338226
-0.000333676
-0.000329284
-0.000325025
-0.000320765
-0.000316382
-0.000311863
-0.000307313
-0.000302891
-0.000298726
-0.000294853
-0.000291201
-0.000287622
-0.000283916
-0.000279885
-0.000275413
-0.000270509
-0.000265264
-0.000259783
-0.00025413
-0.000248273
-0.000242097
-0.000235475
-0.000228327
-0.000220612
-0.000212286
-0.000203316
-0.000193703
-0.000183493
-0.000172771
-0.00016169
-0.000150419
-0.000139241
-0.000128276
-0.0001178
-0.000107924
-9.87469e-05
-9.02918e-05
-8.25896e-05
-7.5549e-05
-6.91119e-05
-6.32103e-05
-5.77831e-05
-5.27786e-05
-4.81601e-05
-4.38998e-05
-3.99793e-05
-3.63786e-05
-3.30721e-05
-3.0053e-05
-2.72747e-05
-2.47122e-05
-2.23424e-05
-2.0143e-05
-1.81004e-05
-1.6199e-05
-1.44301e-05
-1.27841e-05
-1.12568e-05
-9.83999e-06
-8.53266e-06
-7.32809e-06
-6.23002e-06
-5.22702e-06
-4.31682e-06
-3.48866e-06
-2.73589e-06
-2.04656e-06
-1.41086e-06
-8.20487e-07
-2.61139e-07
0.00142134
0.00134898
0.00118213
0.000920477
0.000615444
0.000324249
7.79392e-05
-0.000115438
-0.000257714
-0.000353129
-0.00040749
-0.000429709
-0.000431071
-0.000422208
-0.000410589
-0.000399963
-0.000391361
-0.000384599
-0.000379216
-0.000374751
-0.000370816
-0.000367065
-0.000363112
-0.000358687
-0.000353869
-0.000349015
-0.000344409
-0.000340055
-0.000335805
-0.000331586
-0.000327447
-0.000323437
-0.000319505
-0.000315522
-0.000311384
-0.000307091
-0.000302735
-0.000298465
-0.000294425
-0.000290673
-0.000287161
-0.000283744
-0.000280216
-0.00027636
-0.000272042
-0.000267261
-0.000262115
-0.000256731
-0.000251184
-0.000245448
-0.000239403
-0.000232917
-0.000225908
-0.00021834
-0.000210173
-0.000201374
-0.000191943
-0.000181924
-0.000171398
-0.000160506
-0.000149421
-0.000138399
-0.000127613
-0.000117282
-0.000107525
-9.84342e-05
-9.00767e-05
-8.24042e-05
-7.54002e-05
-6.89898e-05
-6.31072e-05
-5.76939e-05
-5.27002e-05
-4.80906e-05
-4.38388e-05
-3.99269e-05
-3.63352e-05
-3.30324e-05
-3.00283e-05
-2.72598e-05
-2.4706e-05
-2.23432e-05
-2.0149e-05
-1.81105e-05
-1.6213e-05
-1.44461e-05
-1.28009e-05
-1.1274e-05
-9.85679e-06
-8.54852e-06
-7.34189e-06
-6.24318e-06
-5.23864e-06
-4.32729e-06
-3.49788e-06
-2.74447e-06
-2.05381e-06
-1.41769e-06
-8.24907e-07
-2.64193e-07
0.00128383
0.00121439
0.00107594
0.000863735
0.000607748
0.000351822
0.000127467
-5.27086e-05
-0.000188212
-0.000283275
-0.000343222
-0.000374613
-0.000385799
-0.000385496
-0.000380521
-0.000374766
-0.000369717
-0.000365615
-0.000362267
-0.000359357
-0.000356611
-0.000353824
-0.000350752
-0.000347178
-0.000343155
-0.000339002
-0.000334986
-0.000331117
-0.000327279
-0.000323439
-0.000319665
-0.000316003
-0.00031239
-0.000308705
-0.000304856
-0.000300839
-0.00029672
-0.000292625
-0.000288703
-0.00028505
-0.000281644
-0.000278351
-0.00027497
-0.000271286
-0.000267144
-0.000262518
-0.000257502
-0.000252231
-0.000246794
-0.000241178
-0.00023527
-0.000228936
-0.000222094
-0.000214706
-0.000206742
-0.000198174
-0.000189002
-0.000179261
-0.000169026
-0.000158428
-0.000147646
-0.000136911
-0.000126397
-0.000116294
-0.000106731
-9.77999e-05
-8.95619e-05
-8.19951e-05
-7.5067e-05
-6.8712e-05
-6.28702e-05
-5.7488e-05
-5.2519e-05
-4.79298e-05
-4.36965e-05
-3.98027e-05
-3.62283e-05
-3.29667e-05
-2.99561e-05
-2.7202e-05
-2.46629e-05
-2.23133e-05
-2.01303e-05
-1.8101e-05
-1.6211e-05
-1.44508e-05
-1.28121e-05
-1.12896e-05
-9.87537e-06
-8.5687e-06
-7.36128e-06
-6.26359e-06
-5.25777e-06
-4.34527e-06
-3.51416e-06
-2.7597e-06
-2.06674e-06
-1.42954e-06
-8.33175e-07
-2.70198e-07
0.00116364
0.00109724
0.000978814
0.000804262
0.00059087
0.000369527
0.000167777
6.7695e-07
-0.000128179
-0.000221706
-0.000284794
-0.000322741
-0.000341833
-0.000348989
-0.000350098
-0.000348929
-0.000347288
-0.000345772
-0.000344424
-0.000343067
-0.000341529
-0.000339721
-0.000337519
-0.000334771
-0.000331529
-0.000328084
-0.000324679
-0.000321314
-0.000317887
-0.0003144
-0.000310958
-0.000307605
-0.000304268
-0.000300834
-0.000297241
-0.000293494
-0.000289638
-0.000285757
-0.000281979
-0.000278416
-0.000275069
-0.000271823
-0.000268514
-0.000264954
-0.000260975
-0.000256521
-0.00025166
-0.000246522
-0.0002412
-0.000235695
-0.000229913
-0.00022373
-0.00021706
-0.000209869
-0.000202134
-0.000193834
-0.000184968
-0.000175567
-0.0001657
-0.000155492
-0.000145108
-0.000134746
-0.000124583
-0.000114789
-0.000105494
-9.67929e-05
-8.87383e-05
-8.13179e-05
-7.44991e-05
-6.82285e-05
-6.24523e-05
-5.71225e-05
-5.21962e-05
-4.76424e-05
-4.34399e-05
-3.95733e-05
-3.60242e-05
-3.27797e-05
-2.97975e-05
-2.70672e-05
-2.45504e-05
-2.22215e-05
-2.00585e-05
-1.8046e-05
-1.61689e-05
-1.44243e-05
-1.27979e-05
-1.12862e-05
-9.88039e-06
-8.58048e-06
-7.37508e-06
-6.28283e-06
-5.27824e-06
-4.36629e-06
-3.53424e-06
-2.77912e-06
-2.08375e-06
-1.44505e-06
-8.44083e-07
-2.78281e-07
0.00105764
0.000994838
0.000892002
0.000746308
0.000568101
0.000378459
0.000199315
4.56905e-05
-7.62972e-05
-0.000167515
-0.00023208
-0.000274571
-0.00029983
-0.000313225
-0.000319726
-0.00032283
-0.000324442
-0.000325406
-0.000325994
-0.00032617
-0.000325848
-0.000325041
-0.000323738
-0.000321836
-0.000319371
-0.000316616
-0.000313811
-0.000310955
-0.000307952
-0.000304831
-0.000301719
-0.000298655
-0.000295557
-0.000292333
-0.000288961
-0.000285465
-0.000281871
-0.000278219
-0.000274608
-0.000271149
-0.000267854
-0.000264622
-0.000261328
-0.000257827
-0.000253966
-0.000249668
-0.000244977
-0.000239993
-0.000234799
-0.000229405
-0.000223741
-0.0002177
-0.000211203
-0.000204215
-0.000196718
-0.000188697
-0.000180157
-0.000171127
-0.000161671
-0.000151898
-0.000141955
-0.000132022
-0.000122264
-0.000112838
-0.000103867
-9.54391e-05
-8.76029e-05
-8.03579e-05
-7.36785e-05
-6.75202e-05
-6.18352e-05
-5.65806e-05
-5.17171e-05
-4.72172e-05
-4.30611e-05
-3.92342e-05
-3.57207e-05
-3.25058e-05
-2.95553e-05
-2.68513e-05
-2.43599e-05
-2.2056e-05
-1.99172e-05
-1.79272e-05
-1.60708e-05
-1.43459e-05
-1.27394e-05
-1.12453e-05
-9.85502e-06
-8.5692e-06
-7.38575e-06
-6.29023e-06
-5.2905e-06
-4.38246e-06
-3.55179e-06
-2.79769e-06
-2.10107e-06
-1.46127e-06
-8.55611e-07
-2.86699e-07
0.000963727
0.000904911
0.000814844
0.000691603
0.000541816
0.000379859
0.000222365
8.26708e-05
-3.18491e-05
-0.000120061
-0.000184942
-0.000230427
-0.000260296
-0.000278699
-0.000289829
-0.000296821
-0.000301466
-0.00030474
-0.000307156
-0.000308826
-0.000309724
-0.00030995
-0.000309581
-0.000308534
-0.000306824
-0.000304728
-0.000302515
-0.000300185
-0.000297625
-0.000294874
-0.000292084
-0.000289302
-0.000286441
-0.000283426
-0.000280266
-0.000277005
-0.000273655
-0.000270222
-0.000266782
-0.000263447
-0.000260221
-0.000257009
-0.000253716
-0.000250246
-0.000246467
-0.000242301
-0.000237772
-0.000232954
-0.000227902
-0.000222629
-0.000217086
-0.000211187
-0.000204864
-0.000198085
-0.000190831
-0.000183095
-0.000174886
-0.000166234
-0.000157196
-0.000147868
-0.000138385
-0.000128906
-0.000119582
-0.000110552
-0.000101928
-9.37932e-05
-8.61984e-05
-7.91519e-05
-7.26345e-05
-6.66094e-05
-6.10356e-05
-5.58751e-05
-5.10935e-05
-4.66656e-05
-4.25719e-05
-3.87987e-05
-3.53307e-05
-3.21525e-05
-2.92361e-05
-2.65614e-05
-2.4098e-05
-2.18215e-05
-1.97092e-05
-1.77457e-05
-1.59164e-05
-1.42164e-05
-1.26328e-05
-1.11608e-05
-9.79125e-06
-8.52443e-06
-7.35424e-06
-6.27494e-06
-5.28549e-06
-4.38562e-06
-3.55971e-06
-2.80929e-06
-2.1132e-06
-1.4738e-06
-8.64766e-07
-2.94045e-07
0.000880088
0.000825415
0.000746016
0.000640593
0.000513668
0.000375236
0.000237708
0.000112077
5.6942e-06
-7.88565e-05
-0.000143164
-0.000190385
-0.000223524
-0.000245809
-0.000260762
-0.000271136
-0.00027852
-0.000283927
-0.000288065
-0.000291186
-0.0002933
-0.000294558
-0.000295115
-0.000294906
-0.000293928
-0.000292482
-0.000290864
-0.000289064
-0.000286946
-0.00028456
-0.000282091
-0.000279601
-0.000276996
-0.000274201
-0.000271249
-0.00026821
-0.00026509
-0.000261865
-0.000258597
-0.000255395
-0.000252256
-0.000249081
-0.000245805
-0.000242369
-0.000238664
-0.000234613
-0.000230237
-0.000225583
-0.000220683
-0.000215544
-0.000210133
-0.000204384
-0.000198242
-0.000191677
-0.000184673
-0.000177227
-0.000169351
-0.000161073
-0.000152447
-0.000143564
-0.000134543
-0.000125523
-0.000116636
-0.000108007
-9.97389e-05
-9.19134e-05
-8.45777e-05
-7.77457e-05
-7.14052e-05
-6.5528e-05
-6.00799e-05
-5.50286e-05
-5.03442e-05
-4.60024e-05
-4.19841e-05
-3.82762e-05
-3.48634e-05
-3.17307e-05
-2.88539e-05
-2.62126e-05
-2.37796e-05
-2.15321e-05
-1.9448e-05
-1.75131e-05
-1.57123e-05
-1.40394e-05
-1.2482e-05
-1.10359e-05
-9.69085e-06
-8.44702e-06
-7.29596e-06
-6.23609e-06
-5.26082e-06
-4.37278e-06
-3.55497e-06
-2.81101e-06
-2.11769e-06
-1.4806e-06
-8.7046e-07
-2.99239e-07
0.000805118
0.000754567
0.000684209
0.000593209
0.000484822
0.000366174
0.000246513
0.000134528
3.67392e-05
-4.35025e-05
-0.000106417
-0.000154298
-0.000189599
-0.000214807
-0.000232776
-0.000245952
-0.000255774
-0.000263165
-0.000268905
-0.000273382
-0.00027666
-0.000278915
-0.000280362
-0.000280973
-0.000280728
-0.000279925
-0.000278888
-0.000277604
-0.000275919
-0.000273902
-0.000271767
-0.000269579
-0.000267238
-0.00026467
-0.000261929
-0.000259106
-0.000256209
-0.00025319
-0.000250092
-0.000247026
-0.000243985
-0.000240869
-0.000237633
-0.000234248
-0.000230622
-0.000226685
-0.000222453
-0.00021796
-0.000213217
-0.000208224
-0.000202959
-0.000197374
-0.000191421
-0.000185078
-0.000178332
-0.000171181
-0.000163636
-0.000155729
-0.000147513
-0.000139069
-0.000130503
-0.000121932
-0.000113476
-0.000105248
-9.73447e-05
-8.98373e-05
-8.27714e-05
-7.6165e-05
-7.00135e-05
-6.42964e-05
-5.89864e-05
-5.40566e-05
-4.94807e-05
-4.52362e-05
-4.13045e-05
-3.76728e-05
-3.43251e-05
-3.12467e-05
-2.84157e-05
-2.58126e-05
-2.34132e-05
-2.11969e-05
-1.9143e-05
-1.72383e-05
-1.54676e-05
-1.38243e-05
-1.22957e-05
-1.0878e-05
-9.5599e-06
-8.34165e-06
-7.21307e-06
-6.17493e-06
-5.21712e-06
-4.34384e-06
-3.53702e-06
-2.80188e-06
-2.11384e-06
-1.48106e-06
-8.71993e-07
-3.01832e-07
0.00073745
0.000690896
0.000628331
0.000549234
0.000456067
0.000354013
0.000249981
0.000150742
6.17327e-05
-1.35534e-05
-7.4305e-05
-0.000121976
-0.000158554
-0.000185867
-0.000206105
-0.000221506
-0.000233444
-0.000242643
-0.000249813
-0.000255494
-0.000259858
-0.000263081
-0.000265395
-0.000266804
-0.00026727
-0.000267079
-0.000266593
-0.000265815
-0.000264568
-0.000262922
-0.000261123
-0.000259239
-0.000257161
-0.000254829
-0.000252312
-0.000249708
-0.000247025
-0.000244204
-0.000241277
-0.000238349
-0.000235416
-0.000232381
-0.000229208
-0.00022589
-0.000222355
-0.000218538
-0.000214448
-0.000210114
-0.000205532
-0.000200695
-0.00019559
-0.00019018
-0.00018443
-0.000178318
-0.000171836
-0.000164981
-0.000157771
-0.000150235
-0.000142425
-0.000134411
-0.000126286
-0.000118155
-0.000110127
-0.000102302
-9.47631e-05
-8.75774e-05
-8.07888e-05
-7.44186e-05
-6.84675e-05
-6.29224e-05
-5.77621e-05
-5.2965e-05
-4.8508e-05
-4.4371e-05
-4.05359e-05
-3.69893e-05
-3.37151e-05
-3.06987e-05
-2.79202e-05
-2.53613e-05
-2.30004e-05
-2.08195e-05
-1.87991e-05
-1.69272e-05
-1.51888e-05
-1.35772e-05
-1.20795e-05
-1.06921e-05
-9.40306e-06
-8.21246e-06
-7.10889e-06
-6.09431e-06
-5.15635e-06
-4.30004e-06
-3.50658e-06
-2.78231e-06
-2.10193e-06
-1.47523e-06
-8.69498e-07
-3.02187e-07
0.000675986
0.000633233
0.00057748
0.000508384
0.000427853
0.000339732
0.000249209
0.000161582
8.12639e-05
1.14382e-05
-4.65348e-05
-9.33282e-05
-0.000130417
-0.000159086
-0.00018095
-0.000198035
-0.000211699
-0.000222468
-0.000230901
-0.000237651
-0.000243017
-0.000247158
-0.000250293
-0.000252449
-0.000253575
-0.000253954
-0.000253997
-0.000253728
-0.000252923
-0.000251636
-0.000250155
-0.000248581
-0.00024678
-0.000244687
-0.000242394
-0.000240012
-0.000237538
-0.000234909
-0.000232154
-0.000229369
-0.000226551
-0.000223613
-0.000220526
-0.000217292
-0.000213861
-0.00021017
-0.000206225
-0.000202048
-0.000197632
-0.000192963
-0.000188028
-0.000182808
-0.000177271
-0.000171399
-0.000165185
-0.000158635
-0.000151763
-0.000144598
-0.000137185
-0.000129592
-0.0001219
-0.000114205
-0.000106599
-9.91705e-05
-9.19951e-05
-8.51343e-05
-7.86307e-05
-7.25068e-05
-6.67677e-05
-6.14064e-05
-5.64077e-05
-5.17541e-05
-4.7426e-05
-4.34057e-05
-3.96754e-05
-3.62218e-05
-3.3029e-05
-3.00826e-05
-2.73638e-05
-2.4856e-05
-2.25397e-05
-2.03992e-05
-1.84164e-05
-1.65806e-05
-1.48774e-05
-1.33002e-05
-1.18359e-05
-1.04809e-05
-9.22297e-06
-8.06188e-06
-6.98539e-06
-5.99595e-06
-5.07983e-06
-4.24235e-06
-3.46436e-06
-2.75283e-06
-2.08231e-06
-1.46342e-06
-8.63353e-07
-3.00751e-07
0.000619856
0.000580656
0.000530889
0.000470314
0.000400394
0.000324039
0.000245172
0.000167957
9.5946e-05
3.18093e-05
-2.29239e-05
-6.82485e-05
-0.000105116
-0.000134467
-0.000157446
-0.00017574
-0.00019069
-0.000202764
-0.000212332
-0.00022003
-0.000226263
-0.000231206
-0.000235076
-0.000237931
-0.000239692
-0.000240611
-0.000241145
-0.000241362
-0.000241001
-0.000240065
-0.000238879
-0.000237604
-0.0002361
-0.000234252
-0.000232171
-0.000230006
-0.000227745
-0.000225308
-0.000222724
-0.000220085
-0.000217391
-0.000214565
-0.00021158
-0.000208447
-0.000205129
-0.000201575
-0.000197779
-0.000193762
-0.000189517
-0.000185024
-0.000180273
-0.000175253
-0.000169939
-0.000164315
-0.000158379
-0.000152139
-0.000145605
-0.000138807
-0.000131788
-0.000124612
-0.000117348
-0.000110078
-0.000102887
-9.58509e-05
-8.90387e-05
-8.25068e-05
-7.62954e-05
-7.04273e-05
-6.49111e-05
-5.97452e-05
-5.49193e-05
-5.04196e-05
-4.62301e-05
-4.23353e-05
-3.87184e-05
-3.53661e-05
-3.22627e-05
-2.93939e-05
-2.67423e-05
-2.42927e-05
-2.20274e-05
-1.99329e-05
-1.79927e-05
-1.61973e-05
-1.45329e-05
-1.29932e-05
-1.1565e-05
-1.02448e-05
-9.02004e-06
-7.89037e-06
-6.84296e-06
-5.88031e-06
-4.98793e-06
-4.17107e-06
-3.41057e-06
-2.71363e-06
-2.05507e-06
-1.44585e-06
-8.53752e-07
-2.97792e-07
0.000568342
0.000532439
0.000487936
0.000434686
0.00037378
0.000307438
0.000238645
0.000170657
0.000106345
4.78928e-05
-3.21682e-06
-4.6518e-05
-8.25422e-05
-0.000112025
-0.000135703
-0.000154796
-0.0001706
-0.000183674
-0.000194222
-0.000202725
-0.000209662
-0.000215278
-0.000219802
-0.000223317
-0.0002257
-0.000227118
-0.000228071
-0.000228721
-0.000228803
-0.000228233
-0.000227322
-0.000226314
-0.000225109
-0.000223532
-0.000221656
-0.000219686
-0.000217641
-0.000215406
-0.000212987
-0.000210493
-0.000207936
-0.000205237
-0.000202365
-0.000199345
-0.000196155
-0.000192745
-0.000189104
-0.000185252
-0.000181183
-0.000176876
-0.00017232
-0.00016751
-0.000162429
-0.000157062
-0.000151412
-0.000145483
-0.000139288
-0.000132856
-0.000126232
-0.000119466
-0.000112621
-0.000105769
-9.89862e-05
-9.23407e-05
-8.58923e-05
-7.96925e-05
-7.37792e-05
-6.81755e-05
-6.28926e-05
-5.7933e-05
-5.32907e-05
-4.89558e-05
-4.4915e-05
-4.1155e-05
-3.76602e-05
-3.44174e-05
-3.14113e-05
-2.86279e-05
-2.60511e-05
-2.3667e-05
-2.14596e-05
-1.94173e-05
-1.75252e-05
-1.5775e-05
-1.41533e-05
-1.26544e-05
-1.12654e-05
-9.98256e-06
-8.79347e-06
-7.69732e-06
-6.68107e-06
-5.747e-06
-4.88029e-06
-4.08591e-06
-3.34495e-06
-2.66453e-06
-2.02007e-06
-1.42253e-06
-8.40693e-07
-2.93441e-07
0.00052082
0.000487995
0.000448131
0.00040121
0.000348019
0.00029024
0.000230162
0.000170322
0.000113051
6.01499e-05
1.29286e-05
-2.7951e-05
-6.2691e-05
-9.18158e-05
-0.000115743
-0.00013527
-0.000151575
-0.000165325
-0.000176628
-0.000185784
-0.000193305
-0.000199508
-0.000204598
-0.000208671
-0.000211608
-0.000213489
-0.000214806
-0.00021584
-0.00021635
-0.000216155
-0.000215512
-0.000214735
-0.000213804
-0.000212517
-0.000210865
-0.00020906
-0.000207212
-0.0002052
-0.000202953
-0.000200588
-0.000198177
-0.000195628
-0.000192879
-0.000189977
-0.00018693
-0.000183675
-0.000180192
-0.000176511
-0.000172628
-0.000168513
-0.000164161
-0.000159575
-0.000154735
-0.000149632
-0.000144271
-0.00013866
-0.000132806
-0.000126742
-0.000120507
-0.000114146
-0.000107712
-0.000101272
-9.48944e-05
-8.86372e-05
-8.25522e-05
-7.66867e-05
-7.10771e-05
-6.57461e-05
-6.07064e-05
-5.59638e-05
-5.15163e-05
-4.7357e-05
-4.34751e-05
-3.98595e-05
-3.64956e-05
-3.33707e-05
-3.047e-05
-2.77801e-05
-2.52859e-05
-2.29749e-05
-2.08325e-05
-1.88488e-05
-1.70106e-05
-1.53105e-05
-1.3736e-05
-1.22817e-05
-1.09352e-05
-9.69272e-06
-8.54186e-06
-7.48155e-06
-6.49869e-06
-5.59519e-06
-4.75622e-06
-3.98632e-06
-3.26702e-06
-2.60517e-06
-1.97703e-06
-1.39332e-06
-8.24077e-07
-2.8775e-07
0.00047673
0.000446811
0.000411066
0.000369627
0.000323067
0.000272634
0.000220116
0.000167497
0.000116658
6.90716e-05
2.58033e-05
-1.2447e-05
-4.55556e-05
-7.38064e-05
-9.74858e-05
-0.00011714
-0.000133721
-0.000147869
-0.000159665
-0.000169301
-0.000177283
-0.000183976
-0.000189533
-0.000194031
-0.000197419
-0.000199744
-0.000201418
-0.000202787
-0.000203676
-0.000203832
-0.000203454
-0.000202897
-0.000202207
-0.000201192
-0.000199783
-0.000198149
-0.000196469
-0.000194677
-0.000192623
-0.000190384
-0.00018811
-0.000185729
-0.00018312
-0.000180339
-0.000177445
-0.000174358
-0.000171038
-0.000167534
-0.000163845
-0.00015993
-0.000155791
-0.00015144
-0.000146852
-0.000142016
-0.000136951
-0.000131663
-0.000126154
-0.000120453
-0.000114604
-0.000108644
-0.000102617
-9.65846e-05
-9.06074e-05
-8.47355e-05
-7.90133e-05
-7.34849e-05
-6.81845e-05
-6.31343e-05
-5.83474e-05
-5.38323e-05
-4.95902e-05
-4.56171e-05
-4.19043e-05
-3.84426e-05
-3.52188e-05
-3.22207e-05
-2.9434e-05
-2.68461e-05
-2.44425e-05
-2.22122e-05
-2.01421e-05
-1.82238e-05
-1.64455e-05
-1.48008e-05
-1.32782e-05
-1.18727e-05
-1.05723e-05
-9.37334e-06
-8.26357e-06
-7.24166e-06
-6.2946e-06
-5.42388e-06
-4.61487e-06
-3.8716e-06
-3.17619e-06
-2.53512e-06
-1.92561e-06
-1.35802e-06
-8.03779e-07
-2.80727e-07
0.000435573
0.000408405
0.000376366
0.000339716
0.000298887
0.000254782
0.000208824
0.000162611
0.000117631
7.50442e-05
3.56692e-05
1.89009e-07
-3.09854e-05
-5.79312e-05
-8.09434e-05
-0.000100442
-0.000117099
-0.000131421
-0.000143464
-0.000153361
-0.000161612
-0.000168664
-0.000174646
-0.000179514
-0.000183229
-0.000185908
-0.000187924
-0.000189603
-0.000190814
-0.000191269
-0.000191132
-0.000190809
-0.00019036
-0.000189575
-0.000188385
-0.000186946
-0.00018544
-0.000183839
-0.000181977
-0.000179885
-0.000177747
-0.000175532
-0.000173079
-0.000170432
-0.000167692
-0.000164784
-0.000161638
-0.000158313
-0.000154827
-0.000151124
-0.000147204
-0.000143093
-0.000138767
-0.00013421
-0.000129445
-0.000124483
-0.00011932
-0.000113983
-0.000108517
-0.000102955
-9.73313e-05
-9.1701e-05
-8.61198e-05
-8.06309e-05
-7.52724e-05
-7.00841e-05
-6.50983e-05
-6.03361e-05
-5.58109e-05
-5.15332e-05
-4.75068e-05
-4.37303e-05
-4.0197e-05
-3.6899e-05
-3.38248e-05
-3.09627e-05
-2.82987e-05
-2.58211e-05
-2.35165e-05
-2.13748e-05
-1.93845e-05
-1.75386e-05
-1.58264e-05
-1.42427e-05
-1.27771e-05
-1.14247e-05
-1.01744e-05
-9.02242e-06
-7.95686e-06
-6.97615e-06
-6.06751e-06
-5.232e-06
-4.45533e-06
-3.74101e-06
-3.07185e-06
-2.4539e-06
-1.86544e-06
-1.3164e-06
-7.79657e-07
-2.7233e-07
0.000396943
0.00037236
0.000343701
0.000311293
0.000275463
0.000236839
0.000196561
0.000155985
0.000116308
7.84012e-05
4.2859e-05
1.0269e-05
-1.88094e-05
-4.42348e-05
-6.6248e-05
-8.52214e-05
-0.000101672
-0.000115985
-0.000128116
-0.000138067
-0.000146356
-0.000153609
-0.000159985
-0.000165225
-0.000169148
-0.000171991
-0.000174273
-0.000176295
-0.000177825
-0.000178513
-0.000178547
-0.000178441
-0.000178276
-0.00017772
-0.000176678
-0.000175413
-0.000174124
-0.000172712
-0.000171002
-0.00016907
-0.0001671
-0.000165042
-0.000162739
-0.000160247
-0.000157674
-0.000154944
-0.000151981
-0.000148847
-0.000145568
-0.000142086
-0.000138395
-0.000134529
-0.000130473
-0.000126206
-0.000121745
-0.000117107
-0.000112292
-0.000107324
-0.000102241
-9.70704e-05
-9.18449e-05
-8.66141e-05
-8.1427e-05
-7.63198e-05
-7.13256e-05
-6.64806e-05
-6.18145e-05
-5.7347e-05
-5.3092e-05
-4.90615e-05
-4.52612e-05
-4.16916e-05
-3.8348e-05
-3.52238e-05
-3.23087e-05
-2.95917e-05
-2.70595e-05
-2.4701e-05
-2.25037e-05
-2.04588e-05
-1.8556e-05
-1.67894e-05
-1.515e-05
-1.36333e-05
-1.22298e-05
-1.09353e-05
-9.7393e-06
-8.63805e-06
-7.62008e-06
-6.68362e-06
-5.81623e-06
-5.01854e-06
-4.27677e-06
-3.59387e-06
-2.95347e-06
-2.36109e-06
-1.79623e-06
-1.26821e-06
-7.51623e-07
-2.62532e-07
0.000360531
0.000338369
0.000312801
0.000284189
0.00025277
0.000218946
0.000183605
0.000147954
0.000113041
7.95093e-05
4.77128e-05
1.80456e-05
-8.90869e-06
-3.272e-05
-5.34315e-05
-7.14715e-05
-8.74127e-05
-0.000101569
-0.000113704
-0.000123577
-0.000131682
-0.000138902
-0.00014554
-0.000151142
-0.000155249
-0.000158104
-0.000160496
-0.000162844
-0.000164738
-0.000165635
-0.000165753
-0.000165785
-0.000165904
-0.000165632
-0.000164716
-0.000163547
-0.000162486
-0.000161308
-0.000159721
-0.000157915
-0.000156147
-0.000154271
-0.000152101
-0.000149765
-0.000147382
-0.000144837
-0.000142058
-0.000139125
-0.000136061
-0.000132807
-0.000129357
-0.000125745
-0.000121961
-0.000117989
-0.000113841
-0.00010953
-0.000105062
-0.000100463
-9.57633e-05
-9.09818e-05
-8.61502e-05
-8.13168e-05
-7.6523e-05
-7.17968e-05
-6.71674e-05
-6.26686e-05
-5.83274e-05
-5.41619e-05
-5.01857e-05
-4.64118e-05
-4.28477e-05
-3.94955e-05
-3.63518e-05
-3.34114e-05
-3.06652e-05
-2.81028e-05
-2.57116e-05
-2.34811e-05
-2.13999e-05
-1.946e-05
-1.76525e-05
-1.59727e-05
-1.44128e-05
-1.29692e-05
-1.16335e-05
-1.04019e-05
-9.26464e-06
-8.21813e-06
-7.25141e-06
-6.36248e-06
-5.53943e-06
-4.7824e-06
-4.07831e-06
-3.42946e-06
-2.8205e-06
-2.25625e-06
-1.71771e-06
-1.21325e-06
-7.19628e-07
-2.51521e-07
0.000319492
0.000300081
0.000277871
0.000253311
0.000226583
0.000197857
0.000167734
0.000137249
0.000107383
7.86334e-05
5.10802e-05
2.48497e-05
4.84034e-07
-2.13003e-05
-4.02743e-05
-5.69257e-05
-7.19702e-05
-8.56872e-05
-9.7659e-05
-0.000107347
-0.000115082
-0.000121981
-0.000128661
-0.000134602
-0.000138977
-0.000141822
-0.000144141
-0.000146693
-0.000149004
-0.000150201
-0.000150395
-0.000150479
-0.000150841
-0.000150929
-0.000150223
-0.000149116
-0.000148245
-0.00014739
-0.000145995
-0.000144278
-0.000142718
-0.000141114
-0.000139123
-0.000136944
-0.000134793
-0.000132498
-0.000129943
-0.000127249
-0.000124457
-0.000121483
-0.000118326
-0.000115028
-0.000111576
-0.000107959
-0.000104193
-0.00010028
-9.62225e-05
-9.20577e-05
-8.78136e-05
-8.34959e-05
-7.91289e-05
-7.47627e-05
-7.04346e-05
-6.6162e-05
-6.19672e-05
-5.78829e-05
-5.39342e-05
-5.01361e-05
-4.65011e-05
-4.30432e-05
-3.97717e-05
-3.66901e-05
-3.37965e-05
-3.10869e-05
-2.85533e-05
-2.61862e-05
-2.39738e-05
-2.19064e-05
-1.99736e-05
-1.81687e-05
-1.64842e-05
-1.49165e-05
-1.34596e-05
-1.21106e-05
-1.08625e-05
-9.71196e-06
-8.65024e-06
-7.67388e-06
-6.77274e-06
-5.94447e-06
-5.17806e-06
-4.47295e-06
-3.81716e-06
-3.21211e-06
-2.64392e-06
-2.11634e-06
-1.61247e-06
-1.13921e-06
-6.76297e-07
-2.36282e-07
0.000273902
0.000257547
0.000238864
0.00021844
0.000196514
0.000173074
0.000148383
0.000123205
9.84487e-05
7.46161e-05
5.16618e-05
2.94676e-05
8.37955e-06
-1.08681e-05
-2.7801e-05
-4.26862e-05
-5.62376e-05
-6.88547e-05
-8.01866e-05
-8.95182e-05
-9.68091e-05
-0.000103104
-0.000109385
-0.00011537
-0.000120001
-0.000122911
-0.000125017
-0.000127447
-0.000130026
-0.000131631
-0.000131994
-0.000132054
-0.000132503
-0.00013292
-0.000132565
-0.000131571
-0.000130755
-0.000130207
-0.000129188
-0.00012761
-0.000126157
-0.000124866
-0.000123194
-0.000121201
-0.000119278
-0.000117311
-0.000115058
-0.000112643
-0.000110183
-0.000107571
-0.00010477
-0.000101854
-9.88181e-05
-9.56325e-05
-9.2322e-05
-8.88938e-05
-8.53352e-05
-8.16807e-05
-7.79724e-05
-7.42081e-05
-7.03916e-05
-6.65708e-05
-6.27892e-05
-5.90564e-05
-5.53813e-05
-5.17927e-05
-4.8317e-05
-4.4967e-05
-4.17518e-05
-3.86853e-05
-3.5779e-05
-3.30377e-05
-3.04604e-05
-2.8044e-05
-2.57818e-05
-2.36653e-05
-2.16835e-05
-1.98275e-05
-1.80883e-05
-1.64604e-05
-1.49379e-05
-1.35185e-05
-1.21979e-05
-1.09742e-05
-9.842e-06
-8.79861e-06
-7.83638e-06
-6.9522e-06
-6.13688e-06
-5.38797e-06
-4.69542e-06
-4.05826e-06
-3.4656e-06
-2.91831e-06
-2.40393e-06
-1.9255e-06
-1.46807e-06
-1.03754e-06
-6.16278e-07
-2.14933e-07
0.000228036
0.000214735
0.000199419
0.000182772
0.000165194
0.000146632
0.000127041
0.000106835
8.67765e-05
6.74559e-05
4.89138e-05
3.08825e-05
1.33799e-05
-3.0614e-06
-1.77799e-05
-3.06399e-05
-4.2224e-05
-5.31626e-05
-6.33572e-05
-7.2072e-05
-7.88799e-05
-8.4438e-05
-8.9881e-05
-9.54004e-05
-0.000100058
-0.000103104
-0.000105033
-0.000107062
-0.000109543
-0.000111485
-0.000112146
-0.000112173
-0.000112516
-0.000113106
-0.000113162
-0.000112418
-0.000111566
-0.000111127
-0.000110539
-0.000109284
-0.0001079
-0.000106815
-0.000105541
-0.000103828
-0.000102103
-0.000100464
-9.85901e-05
-9.64929e-05
-9.43747e-05
-9.21686e-05
-8.97758e-05
-8.72747e-05
-8.46965e-05
-8.19867e-05
-7.91614e-05
-7.62548e-05
-7.32443e-05
-7.01384e-05
-6.69923e-05
-6.3817e-05
-6.05946e-05
-5.73555e-05
-5.41516e-05
-5.09958e-05
-4.78823e-05
-4.48296e-05
-4.18666e-05
-3.90072e-05
-3.62565e-05
-3.36257e-05
-3.1128e-05
-2.87701e-05
-2.65512e-05
-2.44687e-05
-2.25169e-05
-2.06882e-05
-1.89726e-05
-1.73621e-05
-1.58488e-05