/*--------------------------------*- C++ -*----------------------------------*\
| =========                 |                                                 |
| \\      /  F ield         | OpenFOAM: The Open Source CFD Toolbox           |
|  \\    /   O peration     | Version:  2.3.0                                 |
|   \\  /    A nd           | Web:      www.OpenFOAM.org                      |
|    \\/     M anipulation  |                                                 |
\*---------------------------------------------------------------------------*/
FoamFile
{
    version     2.0;
    format      ascii;
    class       surfaceScalarField;
    location    "0.6";
    object      phi;
}
// * * * * * * * * * * * * * * * * * * * * * * * * * * * * * * * * * * * * * //

dimensions      [0 3 -1 0 0 0 0];

internalField   nonuniform List<scalar> 
5764
(
2.0025e-08
5.01047e-09
-2.50355e-08
1.48953e-08
5.12973e-09
1.09267e-08
3.96858e-09
8.23305e-09
2.69367e-09
6.59183e-09
1.64122e-09
5.64144e-09
9.50387e-10
5.07138e-09
5.7006e-10
4.69166e-09
3.79714e-10
4.40268e-09
2.88989e-10
4.16023e-09
2.42444e-10
3.94796e-09
2.12266e-10
3.76014e-09
1.87825e-10
3.59371e-09
1.66425e-10
3.44581e-09
1.479e-10
3.31357e-09
1.32246e-10
3.19439e-09
1.19181e-10
3.08616e-09
1.08228e-10
2.98722e-09
9.89376e-11
2.89629e-09
9.0929e-11
2.81234e-09
8.39516e-11
2.73454e-09
7.77993e-11
2.66219e-09
7.23554e-11
2.59469e-09
6.74955e-11
2.53154e-09
6.31492e-11
2.47231e-09
5.92331e-11
2.41661e-09
5.56955e-11
2.36414e-09
5.24774e-11
2.31459e-09
4.95428e-11
2.26775e-09
4.68462e-11
2.22338e-09
4.43715e-11
2.18129e-09
4.20812e-11
2.14132e-09
3.99766e-11
2.10329e-09
3.8026e-11
2.06707e-09
3.62229e-11
2.03252e-09
3.45493e-11
1.99954e-09
3.2983e-11
1.96802e-09
3.15171e-11
1.93789e-09
3.01333e-11
1.90904e-09
2.8842e-11
1.88143e-09
2.76091e-11
1.85496e-09
2.6476e-11
1.82958e-09
2.53817e-11
1.80521e-09
2.43655e-11
1.78182e-09
2.33907e-11
1.75935e-09
2.24682e-11
1.73776e-09
2.15883e-11
1.71701e-09
2.07511e-11
1.69708e-09
1.99303e-11
1.6779e-09
1.91804e-11
1.65949e-09
1.84137e-11
1.64178e-09
1.77092e-11
1.62477e-09
1.70146e-11
1.60838e-09
1.6381e-11
1.59267e-09
1.57095e-11
1.57758e-09
1.50928e-11
1.56308e-09
1.45011e-11
1.54917e-09
1.39072e-11
1.53586e-09
1.33095e-11
1.52308e-09
1.27827e-11
1.51085e-09
1.22329e-11
1.49911e-09
1.17372e-11
1.48793e-09
1.11791e-11
1.47724e-09
1.06913e-11
1.46707e-09
1.01691e-11
1.45729e-09
9.78286e-12
1.44803e-09
9.26035e-12
1.43905e-09
8.97825e-12
1.43073e-09
8.32269e-12
1.4225e-09
8.23154e-12
1.41493e-09
7.56726e-12
1.40719e-09
7.74154e-12
1.40021e-09
6.97669e-12
1.39276e-09
7.44677e-12
1.38629e-09
6.47202e-12
7.65799e-12
2.69248e-08
4.90492e-09
-2.68193e-08
2.55761e-08
6.47849e-09
2.35625e-08
5.98216e-09
2.14049e-08
4.85122e-09
1.93782e-08
3.66796e-09
1.76094e-08
2.71916e-09
1.61258e-08
2.05368e-09
1.49079e-08
1.59759e-09
1.39123e-08
1.28459e-09
1.30896e-08
1.06518e-09
1.2396e-08
9.05899e-10
1.17988e-08
7.85e-10
1.12759e-08
6.8929e-10
1.08124e-08
6.1146e-10
1.03974e-08
5.47189e-10
1.0023e-08
4.93596e-10
9.6828e-09
4.48425e-10
9.3718e-09
4.09936e-10
9.086e-09
3.76729e-10
8.82214e-09
3.47813e-10
8.57756e-09
3.22377e-10
8.35003e-09
2.99883e-10
8.1377e-09
2.79829e-10
7.93896e-09
2.61886e-10
7.75247e-09
2.4572e-10
7.57706e-09
2.31111e-10
7.41171e-09
2.17824e-10
7.25555e-09
2.05709e-10
7.1078e-09
1.94591e-10
6.96779e-09
1.84387e-10
6.83491e-09
1.74958e-10
6.70861e-09
1.66277e-10
6.58841e-09
1.58223e-10
6.47387e-09
1.50768e-10
6.36459e-09
1.43824e-10
6.26024e-09
1.3734e-10
6.1605e-09
1.31257e-10
6.06508e-09
1.25545e-10
5.97374e-09
1.20182e-10
5.88624e-09
1.1511e-10
5.80234e-09
1.10374e-10
5.72187e-09
1.05859e-10
5.64462e-09
1.01609e-10
5.57045e-09
9.75671e-11
5.49921e-09
9.37084e-11
5.43074e-09
9.00527e-11
5.36496e-09
8.65332e-11
5.30173e-09
8.3159e-11
5.24096e-09
7.99577e-11
5.18255e-09
7.68231e-11
5.12642e-09
7.38335e-11
5.07247e-09
7.09664e-11
5.02065e-09
6.82058e-11
4.97088e-09
6.5472e-11
4.92315e-09
6.28258e-11
4.87731e-09
6.03426e-11
4.83343e-09
5.77827e-11
4.79138e-09
5.53653e-11
4.75116e-09
5.3002e-11
4.71265e-09
5.07402e-11
4.67592e-09
4.84629e-11
4.64087e-09
4.62382e-11
4.60754e-09
4.40174e-11
4.57576e-09
4.19459e-11
4.54558e-09
3.99649e-11
4.51688e-09
3.79602e-11
4.48964e-09
3.62154e-11
4.46393e-09
3.40315e-11
4.43941e-09
3.27569e-11
4.41626e-09
3.07194e-11
4.39399e-09
3.00074e-11
4.37293e-09
2.80366e-11
4.35253e-09
2.78531e-11
4.33292e-09
2.60816e-11
2.70855e-11
2.83086e-08
4.27216e-09
-2.76759e-08
2.86209e-08
6.16621e-09
2.83102e-08
6.29285e-09
2.75924e-08
5.56905e-09
2.66306e-08
4.62972e-09
2.55507e-08
3.79906e-09
2.44404e-08
3.16403e-09
2.33523e-08
2.68572e-09
2.23206e-08
2.31622e-09
2.13622e-08
2.02363e-09
2.04802e-08
1.78789e-09
1.9671e-08
1.59417e-09
1.89289e-08
1.43141e-09
1.82478e-08
1.29255e-09
1.76219e-08
1.17306e-09
1.70457e-08
1.06987e-09
1.65137e-08
9.80371e-10
1.60213e-08
9.02402e-10
1.5564e-08
8.34009e-10
1.51381e-08
7.73694e-10
1.47404e-08
7.20123e-10
1.43679e-08
6.72349e-10
1.40183e-08
6.29454e-10
1.36893e-08
5.90816e-10
1.33793e-08
5.55798e-10
1.30864e-08
5.23979e-10
1.28093e-08
4.94906e-10
1.25467e-08
4.68296e-10
1.22975e-08
4.43796e-10
1.20607e-08
4.21242e-10
1.18353e-08
4.00344e-10
1.16205e-08
3.81037e-10
1.14157e-08
3.63068e-10
1.122e-08
3.46388e-10
1.10331e-08
3.30795e-10
1.08542e-08
3.16224e-10
1.06829e-08
3.02515e-10
1.05188e-08
2.89648e-10
1.03615e-08
2.77514e-10
1.02105e-08
2.66069e-10
1.00656e-08
2.55286e-10
9.92642e-09
2.45064e-10
9.79267e-09
2.35355e-10
9.66407e-09
2.26168e-10
9.54045e-09
2.17331e-10
9.4215e-09
2.09e-10
9.30712e-09
2.0091e-10
9.19705e-09
1.93237e-10
9.09119e-09
1.85816e-10
8.98931e-09
1.787e-10
8.89138e-09
1.71762e-10
8.79713e-09
1.65218e-10
8.7066e-09
1.58739e-10
8.61953e-09
1.5254e-10
8.53602e-09
1.46336e-10
8.45573e-09
1.40634e-10
8.37889e-09
1.3462e-10
8.30512e-09
1.29136e-10
8.23464e-09
1.23476e-10
8.16707e-09
1.18316e-10
8.10272e-09
1.12811e-10
8.04115e-09
1.07805e-10
7.98277e-09
1.02406e-10
7.92696e-09
9.7747e-11
7.87421e-09
9.27154e-11
7.82388e-09
8.82947e-11
7.7765e-09
8.35937e-11
7.73143e-09
7.91051e-11
7.68911e-09
7.50769e-11
7.64868e-09
7.11478e-11
7.61087e-09
6.78171e-11
7.57437e-09
6.45371e-11
7.54049e-09
6.17279e-11
7.50695e-09
5.96291e-11
5.84353e-11
2.91283e-08
3.86264e-09
-2.87188e-08
2.97219e-08
5.57266e-09
3.00079e-08
6.00676e-09
3.00112e-08
5.56585e-09
2.9794e-08
4.84683e-09
2.94132e-08
4.17993e-09
2.89173e-08
3.65989e-09
2.83423e-08
3.26072e-09
2.77192e-08
2.93933e-09
2.70723e-08
2.67057e-09
2.64178e-08
2.44239e-09
2.57657e-08
2.24619e-09
2.51229e-08
2.07427e-09
2.44942e-08
1.92118e-09
2.38838e-08
1.78354e-09
2.32942e-08
1.65943e-09
2.27273e-08
1.54729e-09
2.21838e-08
1.44587e-09
2.1664e-08
1.35386e-09
2.11674e-08
1.27029e-09
2.06933e-08
1.19415e-09
2.0241e-08
1.12472e-09
1.98093e-08
1.06115e-09
1.93972e-08
1.00289e-09
1.90037e-08
9.49258e-10
1.86279e-08
8.99833e-10
1.82687e-08
8.54094e-10
1.79252e-08
8.11772e-10
1.75966e-08
7.72428e-10
1.72819e-08
7.35913e-10
1.69804e-08
7.01816e-10
1.66914e-08
6.70096e-10
1.64141e-08
6.40353e-10
1.61479e-08
6.12583e-10
1.58923e-08
5.86439e-10
1.56466e-08
5.6191e-10
1.54104e-08
5.38695e-10
1.51832e-08
5.16854e-10
1.49646e-08
4.96125e-10
1.47541e-08
4.76563e-10
1.45514e-08
4.57976e-10
1.43561e-08
4.4038e-10
1.41679e-08
4.23525e-10
1.39865e-08
4.07608e-10
1.38116e-08
3.92173e-10
1.3643e-08
3.77662e-10
1.34804e-08
3.63446e-10
1.33236e-08
3.50055e-10
1.31725e-08
3.36908e-10
1.30268e-08
3.24458e-10
1.28864e-08
3.12118e-10
1.2751e-08
3.00614e-10
1.26208e-08
2.88982e-10
1.24952e-08
2.78099e-10
1.23746e-08
2.66933e-10
1.22584e-08
2.5684e-10
1.2147e-08
2.45973e-10
1.20399e-08
2.36308e-10
1.19374e-08
2.25951e-10
1.18389e-08
2.16825e-10
1.1745e-08
2.06675e-10
1.16549e-08
1.97881e-10
1.15695e-08
1.87845e-10
1.14876e-08
1.79664e-10
1.14102e-08
1.70074e-10
1.13361e-08
1.62416e-10
1.12666e-08
1.53151e-10
1.12e-08
1.45698e-10
1.11379e-08
1.37154e-10
1.10781e-08
1.30937e-10
1.10229e-08
1.23024e-10
1.09691e-08
1.18358e-10
1.092e-08
1.10835e-10
1.08711e-08
1.08505e-10
1.03324e-10
3.00308e-08
3.62001e-09
-2.97881e-08
3.05692e-08
5.03422e-09
3.09681e-08
5.60782e-09
3.11788e-08
5.35524e-09
3.12455e-08
4.78005e-09
3.12037e-08
4.22181e-09
3.10744e-08
3.78918e-09
3.0872e-08
3.46307e-09
3.06107e-08
3.20071e-09
3.03038e-08
2.97742e-09
2.99621e-08
2.78407e-09
2.95927e-08
2.61559e-09
2.92007e-08
2.46632e-09
2.87905e-08
2.33134e-09
2.83668e-08
2.20729e-09
2.79338e-08
2.09246e-09
2.74954e-08
1.98568e-09
2.7055e-08
1.88621e-09
2.66157e-08
1.79321e-09
2.61797e-08
1.70625e-09
2.57491e-08
1.62477e-09
2.53253e-08
1.54855e-09
2.49093e-08
1.47707e-09
2.45021e-08
1.41012e-09
2.41043e-08
1.34713e-09
2.37162e-08
1.28789e-09
2.33383e-08
1.23195e-09
2.29709e-08
1.17925e-09
2.26139e-08
1.12941e-09
2.22673e-08
1.0825e-09
2.1931e-08
1.03811e-09
2.16047e-08
9.96352e-10
2.12884e-08
9.56716e-10
2.09816e-08
9.19347e-10
2.06843e-08
8.83737e-10
2.03962e-08
8.50058e-10
2.0117e-08
8.17837e-10
1.98465e-08
7.87361e-10
1.95845e-08
7.58144e-10
1.93306e-08
7.30488e-10
1.90846e-08
7.03922e-10
1.88463e-08
6.78743e-10
1.86154e-08
6.54348e-10
1.83917e-08
6.31313e-10
1.81752e-08
6.08723e-10
1.79653e-08
5.87526e-10
1.77623e-08
5.66501e-10
1.75655e-08
5.46813e-10
1.73752e-08
5.27172e-10
1.7191e-08
5.08748e-10
1.70129e-08
4.90164e-10
1.68405e-08
4.73032e-10
1.66741e-08
4.55329e-10
1.65132e-08
4.3907e-10
1.63581e-08
4.21976e-10
1.62082e-08
4.06785e-10
1.60641e-08
3.9003e-10
1.5925e-08
3.7548e-10
1.57916e-08
3.59336e-10
1.56628e-08
3.4555e-10
1.55399e-08
3.2959e-10
1.54215e-08
3.16349e-10
1.53089e-08
3.00409e-10
1.52005e-08
2.88103e-10
1.5098e-08
2.72573e-10
1.49992e-08
2.61187e-10
1.49065e-08
2.45807e-10
1.48172e-08
2.35045e-10
1.47341e-08
2.20228e-10
1.46535e-08
2.1159e-10
1.45793e-08
1.97158e-10
1.45066e-08
1.91119e-10
1.44405e-08
1.76946e-10
1.43746e-08
1.74327e-10
1.63466e-10
3.10017e-08
3.46101e-09
-3.08427e-08
3.14459e-08
4.58999e-09
3.18431e-08
5.21066e-09
3.20906e-08
5.1077e-09
3.22252e-08
4.64547e-09
3.22896e-08
4.15745e-09
3.2302e-08
3.77675e-09
3.22693e-08
3.49579e-09
3.21966e-08
3.27336e-09
3.20904e-08
3.08363e-09
3.19563e-08
2.91819e-09
3.17975e-08
2.77441e-09
3.16153e-08
2.64844e-09
3.14109e-08
2.53575e-09
3.11857e-08
2.43257e-09
3.09413e-08
2.3368e-09
3.068e-08
2.24697e-09
3.0404e-08
2.16229e-09
3.01153e-08
2.08185e-09
2.98163e-08
2.0053e-09
2.95089e-08
1.93212e-09
2.91951e-08
1.8624e-09
2.88764e-08
1.79576e-09
2.85542e-08
1.73229e-09
2.82299e-08
1.67146e-09
2.79045e-08
1.61324e-09
2.75794e-08
1.55708e-09
2.72555e-08
1.50312e-09
2.69339e-08
1.45099e-09
2.66154e-08
1.40109e-09
2.63004e-08
1.35302e-09
2.59895e-08
1.30727e-09
2.56831e-08
1.26317e-09
2.53813e-08
1.22113e-09
2.50846e-08
1.1804e-09
2.47932e-08
1.14145e-09
2.45075e-08
1.10356e-09
2.42274e-08
1.06743e-09
2.39533e-08
1.03228e-09
2.36849e-08
9.98873e-10
2.34225e-08
9.66298e-10
2.31659e-08
9.3535e-10
2.29154e-08
9.04889e-10
2.26706e-08
8.76107e-10
2.24319e-08
8.4741e-10
2.21989e-08
8.20536e-10
2.1972e-08
7.9339e-10
2.17507e-08
7.68136e-10
2.15354e-08
7.42425e-10
2.13256e-08
7.18539e-10
2.11219e-08
6.93908e-10
2.09234e-08
6.71499e-10
2.0731e-08
6.47711e-10
2.05438e-08
6.26267e-10
2.03628e-08
6.03066e-10
2.01867e-08
5.82869e-10
2.00168e-08
5.5988e-10
1.98518e-08
5.4046e-10
1.96931e-08
5.18033e-10
1.95391e-08
4.99549e-10
1.93916e-08
4.7713e-10
1.92486e-08
4.59397e-10
1.91122e-08
4.36734e-10
1.89801e-08
4.20271e-10
1.88548e-08
3.97791e-10
1.87333e-08
3.82718e-10
1.86191e-08
3.59992e-10
1.85081e-08
3.46053e-10
1.84048e-08
3.23518e-10
1.83038e-08
3.12668e-10
1.82108e-08
2.90158e-10
1.8119e-08
2.82912e-10
1.80353e-08
2.60594e-10
1.7952e-08
2.5768e-10
2.3973e-10
3.20123e-08
3.33982e-09
-3.18911e-08
3.23686e-08
4.2337e-09
3.27407e-08
4.83854e-09
3.2993e-08
4.85538e-09
3.31385e-08
4.49993e-09
3.32248e-08
4.0712e-09
3.32764e-08
3.72512e-09
3.33004e-08
3.47179e-09
3.32995e-08
3.27427e-09
3.32777e-08
3.10548e-09
3.32392e-08
2.95667e-09
3.31866e-08
2.82704e-09
3.31202e-08
2.71484e-09
3.30394e-08
2.61652e-09
3.29438e-08
2.52819e-09
3.28331e-08
2.44741e-09
3.27078e-08
2.37234e-09
3.2568e-08
2.30203e-09
3.24146e-08
2.23531e-09
3.22481e-08
2.17171e-09
3.20698e-08
2.11047e-09
3.18804e-08
2.05179e-09
3.1681e-08
1.99519e-09
3.14723e-08
1.94101e-09
3.12551e-08
1.88863e-09
3.10302e-08
1.83816e-09
3.07985e-08
1.78873e-09
3.05611e-08
1.74058e-09
3.0319e-08
1.69307e-09
3.00732e-08
1.64689e-09
2.98247e-08
1.60155e-09
2.95739e-08
1.55802e-09
2.93217e-08
1.5154e-09
2.90683e-08
1.47454e-09
2.88145e-08
1.43421e-09
2.85606e-08
1.39527e-09
2.83077e-08
1.35653e-09
2.80558e-08
1.31929e-09
2.78058e-08
1.28231e-09
2.75576e-08
1.24707e-09
2.73118e-08
1.21205e-09
2.70684e-08
1.17876e-09
2.6828e-08
1.14528e-09
2.65904e-08
1.11371e-09
2.63564e-08
1.08146e-09
2.61255e-08
1.05142e-09
2.58986e-08
1.02024e-09
2.56753e-08
9.91511e-10
2.54563e-08
9.61431e-10
2.52409e-08
9.33864e-10
2.50303e-08
9.04572e-10
2.48234e-08
8.78425e-10
2.46214e-08
8.49639e-10
2.44234e-08
8.24273e-10
2.42307e-08
7.95773e-10
2.40419e-08
7.71649e-10
2.38588e-08
7.42985e-10
2.36797e-08
7.19633e-10
2.35064e-08
6.91256e-10
2.33371e-08
6.68881e-10
2.31742e-08
6.40079e-10
2.3015e-08
6.18589e-10
2.28626e-08
5.89087e-10
2.27137e-08
5.69186e-10
2.25721e-08
5.39381e-10
2.24335e-08
5.21289e-10
2.23029e-08
4.90595e-10
2.21748e-08
4.7415e-10
2.20552e-08
4.43142e-10
2.19372e-08
4.30649e-10
2.18281e-08
3.99243e-10
2.17199e-08
3.9112e-10
2.16206e-08
3.59911e-10
2.15214e-08
3.56847e-10
3.31033e-10
3.30515e-08
3.23183e-09
-3.29435e-08
3.3335e-08
3.95017e-09
3.36719e-08
4.50165e-09
3.39228e-08
4.60449e-09
3.40723e-08
4.3504e-09
3.41616e-08
3.98192e-09
3.42215e-08
3.66526e-09
3.42614e-08
3.43184e-09
3.42834e-08
3.25226e-09
3.42903e-08
3.09863e-09
3.42862e-08
2.96079e-09
3.42743e-08
2.83895e-09
3.42557e-08
2.73341e-09
3.42301e-08
2.6421e-09
3.41969e-08
2.56145e-09
3.41553e-08
2.48897e-09
3.41051e-08
2.42257e-09
3.40458e-08
2.36129e-09
3.39774e-08
2.30375e-09
3.38996e-08
2.2495e-09
3.38126e-08
2.19743e-09
3.37166e-08
2.14782e-09
3.36117e-08
2.10002e-09
3.34981e-08
2.05461e-09
3.33759e-08
2.01083e-09
3.32451e-08
1.96901e-09
3.3106e-08
1.92787e-09
3.29588e-08
1.88776e-09
3.28043e-08
1.8475e-09
3.26432e-08
1.80805e-09
3.24762e-08
1.76854e-09
3.23036e-08
1.73057e-09
3.21262e-08
1.69289e-09
3.19437e-08
1.65695e-09
3.1757e-08
1.62091e-09
3.15663e-08
1.58606e-09
3.13724e-08
1.55041e-09
3.11756e-08
1.51604e-09
3.0977e-08
1.48092e-09
3.07765e-08
1.44759e-09
3.05749e-08
1.41366e-09
3.0372e-08
1.38165e-09
3.01688e-08
1.34852e-09
2.99649e-08
1.31755e-09
2.97615e-08
1.28488e-09
2.95581e-08
1.25483e-09
2.93559e-08
1.22241e-09
2.91544e-08
1.19305e-09
2.89548e-08
1.16105e-09
2.87562e-08
1.13237e-09
2.85602e-08
1.10061e-09
2.83655e-08
1.07312e-09
2.81739e-08
1.0413e-09
2.7984e-08
1.01414e-09
2.77978e-08
9.81986e-10
2.76136e-08
9.55861e-10
2.74336e-08
9.22896e-10
2.72559e-08
8.97383e-10
2.70829e-08
8.64241e-10
2.69122e-08
8.39608e-10
2.6747e-08
8.05275e-10
2.65841e-08
7.81433e-10
2.64275e-08
7.45779e-10
2.62727e-08
7.23908e-10
2.61248e-08
6.87275e-10
2.59787e-08
6.674e-10
2.58404e-08
6.28898e-10
2.57035e-08
6.11044e-10
2.55749e-08
5.71806e-10
2.5447e-08
5.58551e-10
2.53277e-08
5.18471e-10
2.5209e-08
5.09903e-10
2.50989e-08
4.70014e-10
2.49886e-08
4.67092e-10
4.33605e-10
3.41136e-08
3.1271e-09
-3.40089e-08
3.43431e-08
3.72065e-09
3.46399e-08
4.2049e-09
3.48838e-08
4.36057e-09
3.50377e-08
4.19652e-09
3.51286e-08
3.89101e-09
3.519e-08
3.60384e-09
3.52348e-08
3.38707e-09
3.52649e-08
3.22213e-09
3.52818e-08
3.08171e-09
3.52891e-08
2.95354e-09
3.52903e-08
2.83769e-09
3.52878e-08
2.73599e-09
3.52818e-08
2.64811e-09
3.52721e-08
2.57107e-09
3.52585e-08
2.50261e-09
3.52406e-08
2.44043e-09
3.52183e-08
2.38368e-09
3.51912e-08
2.33086e-09
3.51589e-08
2.2817e-09
3.51216e-08
2.23478e-09
3.50789e-08
2.19057e-09
3.50308e-08
2.14812e-09
3.4977e-08
2.10836e-09
3.49175e-08
2.07032e-09
3.48517e-08
2.03477e-09
3.47796e-08
1.99997e-09
3.47009e-08
1.96653e-09
3.46158e-08
1.93261e-09
3.45244e-08
1.89945e-09
3.44273e-08
1.86558e-09
3.43246e-08
1.83334e-09
3.42166e-08
1.8009e-09
3.41029e-08
1.77063e-09
3.39839e-08
1.73989e-09
3.38593e-08
1.71065e-09
3.373e-08
1.67975e-09
3.35958e-08
1.65019e-09
3.34579e-08
1.61883e-09
3.3316e-08
1.58948e-09
3.31709e-08
1.55873e-09
3.30222e-08
1.53035e-09
3.28709e-08
1.49983e-09
3.27165e-08
1.47196e-09
3.25601e-08
1.44126e-09
3.24011e-08
1.41383e-09
3.2241e-08
1.38256e-09
3.20789e-08
1.35516e-09
3.19164e-08
1.32354e-09
3.17526e-08
1.29616e-09
3.15891e-08
1.26411e-09
3.14245e-08
1.23775e-09
3.12607e-08
1.20509e-09
3.10963e-08
1.17849e-09
3.09337e-08
1.14465e-09
3.07708e-08
1.11877e-09
3.06104e-08
1.08327e-09
3.04501e-08
1.05769e-09
3.02928e-08
1.02152e-09
3.01356e-08
9.9678e-10
2.99825e-08
9.58425e-10
2.983e-08
9.33908e-10
2.96824e-08
8.93345e-10
2.95349e-08
8.71408e-10
2.93928e-08
8.29382e-10
2.92509e-08
8.09366e-10
2.91158e-08
7.6399e-10
2.89809e-08
7.45876e-10
2.8853e-08
6.99703e-10
2.87248e-08
6.86751e-10
2.86039e-08
6.39409e-10
2.8483e-08
6.30843e-10
2.83696e-08
5.83395e-10
2.82557e-08
5.80928e-10
5.41074e-10
3.51968e-08
3.02405e-09
-3.50938e-08
3.5389e-08
3.52851e-09
3.56462e-08
3.94764e-09
3.58775e-08
4.12927e-09
3.60345e-08
4.03953e-09
3.61286e-08
3.79694e-09
3.61909e-08
3.54156e-09
3.62376e-08
3.34032e-09
3.62719e-08
3.18783e-09
3.6294e-08
3.05959e-09
3.63063e-08
2.94125e-09
3.63124e-08
2.83168e-09
3.63149e-08
2.73348e-09
3.63149e-08
2.64803e-09
3.63129e-08
2.5731e-09
3.63086e-08
2.50688e-09
3.63022e-08
2.44685e-09
3.62935e-08
2.39234e-09
3.62827e-08
2.34169e-09
3.62694e-08
2.29499e-09
3.62538e-08
2.25044e-09
3.62354e-08
2.20888e-09
3.62146e-08
2.16899e-09
3.61908e-08
2.13209e-09
3.61643e-08
2.0969e-09
3.61342e-08
2.06481e-09
3.61006e-08
2.03357e-09
3.60629e-08
2.00429e-09
3.6021e-08
1.97443e-09
3.59748e-08
1.94564e-09
3.59248e-08
1.91561e-09
3.58706e-08
1.88756e-09
3.58126e-08
1.85885e-09
3.57503e-08
1.83297e-09
3.56837e-08
1.80646e-09
3.56122e-08
1.7822e-09
3.55363e-08
1.75562e-09
3.54557e-08
1.73081e-09
3.53713e-08
1.70324e-09
3.52827e-08
1.67805e-09
3.51907e-08
1.65075e-09
3.50944e-08
1.62662e-09
3.49949e-08
1.59936e-09
3.48914e-08
1.57549e-09
3.47849e-08
1.54775e-09
3.46745e-08
1.52421e-09
3.45617e-08
1.49532e-09
3.44455e-08
1.47138e-09
3.43275e-08
1.44157e-09
3.42066e-08
1.41703e-09
3.40847e-08
1.38607e-09
3.39599e-08
1.36253e-09
3.38342e-08
1.33074e-09
3.37062e-08
1.30655e-09
3.35782e-08
1.27265e-09
3.3448e-08
1.24894e-09
3.33187e-08
1.21254e-09
3.31878e-08
1.18861e-09
3.30582e-08
1.15109e-09
3.29267e-08
1.12832e-09
3.27972e-08
1.08788e-09
3.26669e-08
1.0642e-09
3.25403e-08
1.02002e-09
3.2412e-08
9.99701e-10
3.2287e-08
9.54381e-10
3.21603e-08
9.36055e-10
3.20389e-08
8.8542e-10
3.1917e-08
8.6775e-10
3.18001e-08
8.16623e-10
3.16819e-08
8.04953e-10
3.15685e-08
7.52816e-10
3.14546e-08
7.44745e-10
3.13465e-08
6.91475e-10
3.12379e-08
6.89542e-10
6.45558e-10
3.63024e-08
2.92414e-09
-3.62025e-08
3.64688e-08
3.36208e-09
3.6691e-08
3.72546e-09
3.69056e-08
3.91469e-09
3.7063e-08
3.88212e-09
3.71612e-08
3.69876e-09
3.72249e-08
3.47782e-09
3.72727e-08
3.29247e-09
3.73097e-08
3.15083e-09
3.73357e-08
3.03361e-09
3.73517e-08
2.92524e-09
3.73606e-08
2.82277e-09
3.73655e-08
2.72867e-09
3.73678e-08
2.64573e-09
3.73682e-08
2.57262e-09
3.7367e-08
2.50815e-09
3.73642e-08
2.44964e-09
3.73599e-08
2.39656e-09
3.73546e-08
2.34703e-09
3.73479e-08
2.30166e-09
3.73402e-08
2.25819e-09
3.73312e-08
2.2179e-09
3.73211e-08
2.17909e-09
3.73097e-08
2.14347e-09
3.72973e-08
2.10933e-09
3.72832e-08
2.07883e-09
3.72677e-08
2.04908e-09
3.72501e-08
2.02189e-09
3.72305e-08
1.99406e-09
3.72084e-08
1.96777e-09
3.71843e-08
1.93971e-09
3.71577e-08
1.91415e-09
3.71292e-08
1.88738e-09
3.7098e-08
1.86413e-09
3.70644e-08
1.84005e-09
3.70274e-08
1.81923e-09
3.69875e-08
1.79551e-09
3.6944e-08
1.77429e-09
3.68978e-08
1.7495e-09
3.68483e-08
1.72753e-09
3.67963e-08
1.70275e-09
3.67407e-08
1.68223e-09
3.66824e-08
1.65767e-09
3.66205e-08
1.63737e-09
3.6556e-08
1.61226e-09
3.64876e-08
1.5926e-09
3.64168e-08
1.56609e-09
3.63424e-08
1.54583e-09
3.62657e-08
1.51823e-09
3.61858e-08
1.49697e-09
3.61044e-08
1.46745e-09
3.60196e-08
1.44731e-09
3.59331e-08
1.41721e-09
3.58433e-08
1.39634e-09
3.57528e-08
1.36323e-09
3.56589e-08
1.34278e-09
3.55648e-08
1.30668e-09
3.54682e-08
1.28525e-09
3.53718e-08
1.24749e-09
3.52721e-08
1.228e-09
3.51725e-08
1.18748e-09
3.50709e-08
1.16578e-09
3.4972e-08
1.11893e-09
3.48707e-08
1.10101e-09
3.47705e-08
1.05452e-09
3.4667e-08
1.03958e-09
3.45666e-08
9.85882e-10
3.44657e-08
9.68643e-10
3.43677e-08
9.14574e-10
3.42679e-08
9.0472e-10
3.417e-08
8.50775e-10
3.40709e-08
8.43866e-10
3.39755e-08
7.86806e-10
3.38801e-08
7.84997e-10
7.39498e-10
3.74325e-08
2.82908e-09
-3.73374e-08
3.75803e-08
3.21427e-09
3.77733e-08
3.53248e-09
3.79692e-08
3.71874e-09
3.81238e-08
3.72749e-09
3.82259e-08
3.59674e-09
3.82919e-08
3.41178e-09
3.83407e-08
3.24372e-09
3.83795e-08
3.11204e-09
3.84085e-08
3.00454e-09
3.84279e-08
2.90589e-09
3.84394e-08
2.81119e-09
3.84462e-08
2.72196e-09
3.84499e-08
2.64202e-09
3.84516e-08
2.57084e-09
3.84517e-08
2.50811e-09
3.84503e-08
2.45103e-09
3.84476e-08
2.39925e-09
3.84441e-08
2.35056e-09
3.84396e-08
2.30617e-09
3.84344e-08
2.26333e-09
3.84285e-08
2.22383e-09
3.84221e-08
2.18554e-09
3.84149e-08
2.15058e-09
3.84076e-08
2.11668e-09
3.83995e-08
2.08687e-09
3.83911e-08
2.0575e-09
3.83818e-08
2.0312e-09
3.83718e-08
2.00411e-09
3.83604e-08
1.97913e-09
3.83483e-08
1.95179e-09
3.83349e-08
1.92757e-09
3.83208e-08
1.90148e-09
3.83055e-08
1.87948e-09
3.82892e-08
1.85632e-09
3.82709e-08
1.83747e-09
3.82513e-08
1.81516e-09
3.82294e-08
1.79616e-09
3.82059e-08
1.773e-09
3.81804e-08
1.75303e-09
3.81536e-08
1.72956e-09
3.81243e-08
1.7115e-09
3.80934e-08
1.68863e-09
3.80599e-08
1.67082e-09
3.80248e-08
1.6474e-09
3.79865e-08
1.63085e-09
3.79466e-08
1.60601e-09
3.79037e-08
1.58872e-09
3.78589e-08
1.563e-09
3.78112e-08
1.54467e-09
3.77625e-08
1.51622e-09
3.77107e-08
1.49904e-09
3.76573e-08
1.47068e-09
3.76005e-08
1.45314e-09
3.75428e-08
1.42088e-09
3.74818e-08
1.4038e-09
3.74198e-08
1.3687e-09
3.73552e-08
1.3498e-09
3.72906e-08
1.31214e-09
3.72225e-08
1.29611e-09
3.71528e-08
1.25717e-09
3.70803e-08
1.23823e-09
3.701e-08
1.1893e-09
3.69375e-08
1.17343e-09
3.68648e-08
1.12725e-09
3.67876e-08
1.11679e-09
3.67109e-08
1.06261e-09
3.66343e-08
1.04525e-09
3.65591e-08
9.89733e-10
3.64823e-08
9.81536e-10
3.64046e-08
9.28481e-10
3.63249e-08
9.23583e-10
3.62468e-08
8.64858e-10
3.61695e-08
8.62276e-10
8.17524e-10
3.85896e-08
2.73974e-09
-3.85002e-08
3.87227e-08
3.08114e-09
3.8892e-08
3.36315e-09
3.90693e-08
3.54141e-09
3.92183e-08
3.57851e-09
3.9323e-08
3.49212e-09
3.93918e-08
3.3429e-09
3.94417e-08
3.19386e-09
3.94817e-08
3.07206e-09
3.95131e-08
2.97313e-09
3.95354e-08
2.88355e-09
3.95497e-08
2.79695e-09
3.95583e-08
2.71329e-09
3.95634e-08
2.63694e-09
3.95663e-08
2.56796e-09
3.95674e-08
2.50707e-09
3.95669e-08
2.45148e-09
3.95651e-08
2.40108e-09
3.95624e-08
2.35322e-09
3.95588e-08
2.30982e-09
3.95546e-08
2.26752e-09
3.95497e-08
2.22869e-09
3.95444e-08
2.1908e-09
3.95386e-08
2.15638e-09
3.95329e-08
2.12247e-09
3.95267e-08
2.09302e-09
3.95206e-08
2.0636e-09
3.95142e-08
2.03759e-09
3.95077e-08
2.01063e-09
3.95005e-08
1.98635e-09
3.94932e-08
1.95908e-09
3.94851e-08
1.93561e-09
3.9477e-08
1.9096e-09
3.94684e-08
1.88809e-09
3.94598e-08
1.86495e-09
3.94502e-08
1.84706e-09
3.94402e-08
1.82514e-09
3.94291e-08
1.80726e-09
3.94172e-08
1.78492e-09
3.94042e-08
1.76601e-09
3.93909e-08
1.74288e-09
3.93762e-08
1.72623e-09
3.93606e-08
1.70418e-09
3.93437e-08
1.68779e-09
3.9326e-08
1.66507e-09
3.93062e-08
1.65067e-09
3.92856e-08
1.62665e-09
3.9263e-08
1.61127e-09
3.92392e-08
1.58682e-09
3.92131e-08
1.57074e-09
3.91866e-08
1.54274e-09
3.91581e-08
1.52757e-09
3.91282e-08
1.50054e-09
3.90955e-08
1.48581e-09
3.90624e-08
1.454e-09
3.90266e-08
1.43961e-09
3.89894e-08
1.40586e-09
3.89502e-08
1.38901e-09
3.8911e-08
1.35134e-09
3.88692e-08
1.33791e-09
3.88249e-08
1.30146e-09
3.87774e-08
1.2858e-09
3.87314e-08
1.23525e-09
3.86846e-08
1.22026e-09
3.86369e-08
1.17496e-09
3.85845e-08
1.16915e-09
3.85301e-08
1.11701e-09
3.84764e-08
1.09891e-09
3.84234e-08
1.04276e-09
3.83695e-08
1.03544e-09
3.8313e-08
9.85007e-10
3.82536e-08
9.82927e-10
3.81939e-08
9.24589e-10
3.8136e-08
9.2019e-10
8.77553e-10
3.97756e-08
2.65624e-09
-3.96921e-08
3.98964e-08
2.9604e-09
4.00466e-08
3.21294e-09
4.02065e-08
3.38148e-09
4.03478e-08
3.43723e-09
4.04532e-08
3.38671e-09
4.0525e-08
3.27112e-09
4.05763e-08
3.14254e-09
4.06171e-08
3.03123e-09
4.06502e-08
2.94003e-09
4.06751e-08
2.85867e-09
4.06919e-08
2.78012e-09
4.07027e-08
2.70257e-09
4.07092e-08
2.63038e-09
4.07132e-08
2.56396e-09
4.07152e-08
2.50505e-09
4.07157e-08
2.45106e-09
4.07146e-08
2.40216e-09
4.07126e-08
2.35521e-09
4.07095e-08
2.31287e-09
4.07059e-08
2.27117e-09
4.07016e-08
2.23301e-09
4.06968e-08
2.19555e-09
4.06915e-08
2.16169e-09
4.06862e-08
2.12776e-09
4.06806e-08
2.09861e-09
4.06752e-08
2.06902e-09
4.06697e-08
2.04308e-09
4.06644e-08
2.01598e-09
4.06586e-08
1.99215e-09
4.0653e-08
1.96468e-09
4.06469e-08
1.94171e-09
4.06409e-08
1.9156e-09
4.06347e-08
1.89424e-09
4.06289e-08
1.87073e-09
4.06227e-08
1.85323e-09
4.06167e-08
1.83119e-09
4.06103e-08
1.81369e-09
4.06034e-08
1.79174e-09
4.05961e-08
1.77332e-09
4.0589e-08
1.75002e-09
4.05812e-08
1.73403e-09
4.05731e-08
1.71227e-09
4.05644e-08
1.69651e-09
4.05557e-08
1.67379e-09
4.05456e-08
1.66076e-09
4.05353e-08
1.63694e-09
4.05241e-08
1.62247e-09
4.05122e-08
1.59871e-09
4.04987e-08
1.58421e-09
4.04853e-08
1.55621e-09
4.04708e-08
1.54206e-09
4.04555e-08
1.51584e-09
4.04381e-08
1.50321e-09
4.04207e-08
1.4714e-09
4.04017e-08
1.45861e-09
4.03812e-08
1.42631e-09
4.03593e-08
1.41092e-09
4.03376e-08
1.37306e-09
4.03146e-08
1.36088e-09
4.02891e-08
1.32701e-09
4.02601e-08
1.31482e-09
4.02321e-08
1.26322e-09
4.02045e-08
1.24782e-09
4.01763e-08
1.20323e-09
4.01441e-08
1.20128e-09
4.0108e-08
1.15315e-09
4.00729e-08
1.13401e-09
4.00381e-08
1.07755e-09
4.00035e-08
1.07008e-09
3.99657e-08
1.02281e-09
3.99246e-08
1.02399e-09
3.98814e-08
9.67786e-10
3.98407e-08
9.60851e-10
9.20702e-10
4.09924e-08
2.57825e-09
-4.09144e-08
4.11023e-08
2.85053e-09
4.12367e-08
3.07846e-09
4.13811e-08
3.23715e-09
4.15135e-08
3.30478e-09
4.16179e-08
3.28237e-09
4.1692e-08
3.19695e-09
4.17451e-08
3.08947e-09
4.17867e-08
2.98959e-09
4.1821e-08
2.9058e-09
4.18478e-08
2.83181e-09
4.1867e-08
2.76093e-09
4.18798e-08
2.68978e-09
4.18879e-08
2.62226e-09
4.18931e-08
2.55879e-09
4.18961e-08
2.50206e-09
4.18974e-08
2.44975e-09
4.18971e-08
2.40247e-09
4.18958e-08
2.35653e-09
4.18933e-08
2.31534e-09
4.18901e-08
2.27434e-09
4.18862e-08
2.2369e-09
4.18819e-08
2.19992e-09
4.18769e-08
2.16667e-09
4.18718e-08
2.1328e-09
4.18665e-08
2.10395e-09
4.18613e-08
2.07423e-09
4.18561e-08
2.04827e-09
4.18511e-08
2.02094e-09
4.18458e-08
1.99746e-09
4.18408e-08
1.96971e-09
4.18354e-08
1.94712e-09
4.183e-08
1.92094e-09
4.18247e-08
1.89963e-09
4.18197e-08
1.87564e-09
4.18147e-08
1.85824e-09
4.181e-08
1.8359e-09
4.18054e-08
1.8183e-09
4.18005e-08
1.7966e-09
4.17955e-08
1.77837e-09
4.17908e-08
1.75475e-09
4.17859e-08
1.73895e-09
4.17809e-08
1.71723e-09
4.17757e-08
1.70166e-09
4.1771e-08
1.67856e-09
4.17654e-08
1.66634e-09
4.17599e-08
1.64243e-09
4.17542e-08
1.62816e-09
4.17483e-08
1.60464e-09
4.17413e-08
1.59121e-09
4.17344e-08
1.56303e-09
4.17274e-08
1.54914e-09
4.17199e-08
1.52329e-09
4.1711e-08
1.51212e-09
4.17023e-08
1.48008e-09
4.16931e-08
1.4678e-09
4.16825e-08
1.43689e-09
4.1671e-08
1.42248e-09
4.16597e-08
1.38439e-09
4.16483e-08
1.37224e-09
4.16349e-08
1.34038e-09
4.16183e-08
1.33149e-09
4.16019e-08
1.27956e-09
4.15869e-08
1.26285e-09
4.15716e-08
1.21855e-09
4.15538e-08
1.21903e-09
4.1531e-08
1.17592e-09
4.15091e-08
1.1559e-09
4.14874e-08
1.09929e-09
4.14667e-08
1.09082e-09
4.14431e-08
1.04634e-09
4.14165e-08
1.05065e-09
4.13865e-08
9.97776e-10
4.13591e-08
9.88219e-10
9.50222e-10
4.22412e-08
2.50533e-09
-4.21683e-08
4.23415e-08
2.75028e-09
4.24627e-08
2.95723e-09
4.25933e-08
3.10655e-09
4.27166e-08
3.18151e-09
4.28183e-08
3.18067e-09
4.28939e-08
3.12133e-09
4.29488e-08
3.03458e-09
4.29913e-08
2.94708e-09
4.30263e-08
2.87076e-09
4.30547e-08
2.80347e-09
4.30759e-08
2.73972e-09
4.30907e-08
2.675e-09
4.31004e-08
2.61253e-09
4.31068e-08
2.5524e-09
4.31108e-08
2.49809e-09
4.31129e-08
2.44757e-09
4.31134e-08
2.402e-09
4.31128e-08
2.35717e-09
4.31109e-08
2.31721e-09
4.31082e-08
2.27703e-09
4.31047e-08
2.24036e-09
4.31007e-08
2.20393e-09
4.30961e-08
2.17132e-09
4.30913e-08
2.1376e-09
4.30862e-08
2.10906e-09
4.30811e-08
2.07929e-09
4.30761e-08
2.0533e-09
4.30713e-08
2.02573e-09
4.30662e-08
2.00254e-09
4.30614e-08
1.97453e-09
4.30563e-08
1.95225e-09
4.30512e-08
1.92605e-09
4.3046e-08
1.90478e-09
4.30413e-08
1.88035e-09
4.30367e-08
1.86287e-09
4.30323e-08
1.84026e-09
4.30284e-08
1.82227e-09
4.30242e-08
1.80077e-09
4.302e-08
1.78258e-09
4.3016e-08
1.7587e-09
4.30122e-08
1.74279e-09
4.30084e-08
1.72104e-09
4.30046e-08
1.70547e-09
4.30013e-08
1.68185e-09
4.29976e-08
1.67007e-09
4.2994e-08
1.64599e-09
4.29906e-08
1.63153e-09
4.29873e-08
1.60797e-09
4.29833e-08
1.59522e-09
4.29794e-08
1.56693e-09
4.29757e-08
1.55284e-09
4.29719e-08
1.52708e-09
4.29672e-08
1.51683e-09
4.29627e-08
1.48457e-09
4.29586e-08
1.47197e-09
4.29532e-08
1.44223e-09
4.29472e-08
1.42848e-09
4.29412e-08
1.39037e-09
4.2936e-08
1.37749e-09
4.29296e-08
1.34676e-09
4.29204e-08
1.34066e-09
4.29108e-08
1.28915e-09
4.29028e-08
1.27087e-09
4.28948e-08
1.22655e-09
4.2886e-08
1.22787e-09
4.28722e-08
1.18974e-09
4.28587e-08
1.16934e-09
4.28452e-08
1.11283e-09
4.2833e-08
1.10295e-09
4.28189e-08
1.06043e-09
4.28024e-08
1.06723e-09
4.2782e-08
1.01818e-09
4.27636e-08
1.00656e-09
9.7011e-10
4.35235e-08
2.43708e-09
-4.34552e-08
4.36152e-08
2.65856e-09
4.3725e-08
2.84741e-09
4.38436e-08
2.988e-09
4.39578e-08
3.06726e-09
4.40558e-08
3.08274e-09
4.41318e-08
3.04534e-09
4.41882e-08
2.97811e-09
4.42317e-08
2.9036e-09
4.42674e-08
2.8351e-09
4.42968e-08
2.77409e-09
4.43196e-08
2.71687e-09
4.43362e-08
2.65839e-09
4.43476e-08
2.60119e-09
4.43552e-08
2.54476e-09
4.43602e-08
2.49314e-09
4.43632e-08
2.44453e-09
4.43644e-08
2.40075e-09
4.43645e-08
2.35714e-09
4.43632e-08
2.31848e-09
4.4361e-08
2.27922e-09
4.4358e-08
2.24339e-09
4.43544e-08
2.20756e-09