/*--------------------------------*- C++ -*----------------------------------*\
| =========                 |                                                 |
| \\      /  F ield         | OpenFOAM: The Open Source CFD Toolbox           |
|  \\    /   O peration     | Version:  2.3.0                                 |
|   \\  /    A nd           | Web:      www.OpenFOAM.org                      |
|    \\/     M anipulation  |                                                 |
\*---------------------------------------------------------------------------*/
FoamFile
{
    version     2.0;
    format      ascii;
    class       surfaceScalarField;
    location    "0.6";
    object      phi_0;
}
// * * * * * * * * * * * * * * * * * * * * * * * * * * * * * * * * * * * * * //

dimensions      [0 3 -1 0 0 0 0];

internalField   nonuniform List<scalar> 
5764
(
2.00251e-08
5.01042e-09
-2.50355e-08
1.48953e-08
5.12975e-09
1.09267e-08
3.96862e-09
8.23305e-09
2.69369e-09
6.59182e-09
1.64123e-09
5.64143e-09
9.50385e-10
5.07138e-09
5.70055e-10
4.69167e-09
3.79707e-10
4.40269e-09
2.88983e-10
4.16025e-09
2.42443e-10
3.94798e-09
2.12268e-10
3.76015e-09
1.87826e-10
3.59373e-09
1.66425e-10
3.44583e-09
1.47899e-10
3.31358e-09
1.32246e-10
3.1944e-09
1.19182e-10
3.08617e-09
1.08229e-10
2.98723e-09
9.8937e-11
2.89631e-09
9.09264e-11
2.81236e-09
8.39474e-11
2.73457e-09
7.77948e-11
2.66221e-09
7.2352e-11
2.59472e-09
6.74932e-11
2.53157e-09
6.31487e-11
2.47234e-09
5.92332e-11
2.41664e-09
5.56955e-11
2.36417e-09
5.24763e-11
2.31463e-09
4.95397e-11
2.26779e-09
4.68415e-11
2.22342e-09
4.43654e-11
2.18134e-09
4.20753e-11
2.14137e-09
3.99722e-11
2.10335e-09
3.80224e-11
2.06713e-09
3.62208e-11
2.03258e-09
3.45466e-11
1.9996e-09
3.29788e-11
1.96809e-09
3.15108e-11
1.93797e-09
3.01261e-11
1.90913e-09
2.88334e-11
1.88153e-09
2.76015e-11
1.85506e-09
2.64692e-11
1.82969e-09
2.53734e-11
1.80533e-09
2.43582e-11
1.78195e-09
2.33816e-11
1.75949e-09
2.24593e-11
1.73791e-09
2.15783e-11
1.71717e-09
2.07388e-11
1.69725e-09
1.99185e-11
1.67809e-09
1.91673e-11
1.65969e-09
1.8398e-11
1.64199e-09
1.76955e-11
1.62499e-09
1.7001e-11
1.60863e-09
1.63659e-11
1.59294e-09
1.56894e-11
1.57786e-09
1.50766e-11
1.56338e-09
1.44813e-11
1.5495e-09
1.38842e-11
1.53621e-09
1.32873e-11
1.52345e-09
1.27626e-11
1.51124e-09
1.22103e-11
1.49952e-09
1.17115e-11
1.48838e-09
1.11457e-11
1.47772e-09
1.06612e-11
1.46757e-09
1.01421e-11
1.45782e-09
9.75526e-12
1.44859e-09
9.2307e-12
1.43965e-09
8.93493e-12
1.43137e-09
8.28336e-12
1.42318e-09
8.19488e-12
1.41564e-09
7.53383e-12
1.40794e-09
7.70331e-12
1.401e-09
6.93506e-12
1.39361e-09
7.39325e-12
1.38718e-09
6.42907e-12
7.60477e-12
2.69249e-08
4.90482e-09
-2.68193e-08
2.55762e-08
6.47848e-09
2.35625e-08
5.98222e-09
2.14049e-08
4.85129e-09
1.93782e-08
3.668e-09
1.76094e-08
2.71917e-09
1.61258e-08
2.05366e-09
1.49079e-08
1.59756e-09
1.39124e-08
1.28457e-09
1.30896e-08
1.06517e-09
1.2396e-08
9.05906e-10
1.17988e-08
7.85007e-10
1.12759e-08
6.89293e-10
1.08124e-08
6.11458e-10
1.03974e-08
5.47187e-10
1.0023e-08
4.93595e-10
9.68283e-09
4.48422e-10
9.37183e-09
4.0993e-10
9.08604e-09
3.7672e-10
8.82219e-09
3.47802e-10
8.57762e-09
3.22365e-10
8.35009e-09
2.99875e-10
8.13776e-09
2.79822e-10
7.93903e-09
2.61882e-10
7.75255e-09
2.45717e-10
7.57714e-09
2.31106e-10
7.4118e-09
2.17816e-10
7.25564e-09
2.05697e-10
7.10791e-09
1.94574e-10
6.9679e-09
1.84368e-10
6.83504e-09
1.74939e-10
6.70875e-09
1.66262e-10
6.58856e-09
1.58209e-10
6.47403e-09
1.50756e-10
6.36477e-09
1.4381e-10
6.26042e-09
1.37321e-10
6.1607e-09
1.31233e-10
6.06531e-09
1.25518e-10
5.97399e-09
1.20152e-10
5.88651e-09
1.15082e-10
5.80263e-09
1.10346e-10
5.72218e-09
1.05827e-10
5.64496e-09
1.01578e-10
5.57081e-09
9.75306e-11
5.4996e-09
9.36715e-11
5.43117e-09
9.00115e-11
5.36542e-09
8.6486e-11
5.30223e-09
8.31113e-11
5.24149e-09
7.99054e-11
5.18312e-09
7.67642e-11
5.12704e-09
7.37778e-11
5.07313e-09
7.0908e-11
5.02136e-09
6.81418e-11
4.97165e-09
6.53954e-11
4.92397e-09
6.27562e-11
4.87819e-09
6.02611e-11
4.83438e-09
5.76937e-11
4.79239e-09
5.52757e-11
4.75224e-09
5.2914e-11
4.71381e-09
5.06423e-11
4.67717e-09
4.83555e-11
4.6422e-09
4.6112e-11
4.60896e-09
4.38982e-11
4.57728e-09
4.18285e-11
4.54719e-09
3.98435e-11
4.51859e-09
3.78276e-11
4.49147e-09
3.60531e-11
4.46588e-09
3.38758e-11
4.44147e-09
3.26072e-11
4.41843e-09
3.05686e-11
4.39629e-09
2.98461e-11
4.37537e-09
2.78581e-11
4.35511e-09
2.76546e-11
4.33564e-09
2.58996e-11
2.68819e-11
2.83087e-08
4.27203e-09
-2.76759e-08
2.8621e-08
6.16617e-09
2.83103e-08
6.29291e-09
2.75924e-08
5.56915e-09
2.66306e-08
4.62981e-09
2.55507e-08
3.7991e-09
2.44403e-08
3.16402e-09
2.33522e-08
2.68566e-09
2.23206e-08
2.31616e-09
2.13622e-08
2.02359e-09
2.04802e-08
1.78788e-09
1.96711e-08
1.59418e-09
1.89289e-08
1.43143e-09
1.82478e-08
1.29256e-09
1.7622e-08
1.17306e-09
1.70457e-08
1.06986e-09
1.65138e-08
9.80359e-10
1.60213e-08
9.02383e-10
1.5564e-08
8.33986e-10
1.51382e-08
7.73672e-10
1.47404e-08
7.20105e-10
1.4368e-08
6.72337e-10
1.40183e-08
6.29443e-10
1.36894e-08
5.90807e-10
1.33794e-08
5.55786e-10
1.30865e-08
5.23964e-10
1.28094e-08
4.94886e-10
1.25469e-08
4.68269e-10
1.22977e-08
4.43764e-10
1.20608e-08
4.21206e-10
1.18355e-08
4.00309e-10
1.16207e-08
3.81005e-10
1.14159e-08
3.63037e-10
1.12203e-08
3.4636e-10
1.10333e-08
3.30761e-10
1.08545e-08
3.16182e-10
1.06832e-08
3.02464e-10
1.05192e-08
2.89593e-10
1.03619e-08
2.77452e-10
1.02109e-08
2.66008e-10
1.00661e-08
2.55225e-10
9.92689e-09
2.44994e-10
9.79318e-09
2.35286e-10
9.66462e-09
2.26088e-10
9.54105e-09
2.17249e-10
9.42215e-09
2.08909e-10
9.30783e-09
2.00808e-10
9.19781e-09
1.93132e-10
9.09201e-09
1.85701e-10
8.9902e-09
1.78572e-10
8.89234e-09
1.71638e-10
8.79817e-09
1.65086e-10
8.70771e-09
1.58595e-10
8.62073e-09
1.52373e-10
8.53731e-09
1.46177e-10
8.45712e-09
1.40451e-10
8.38039e-09
1.34424e-10
8.30673e-09
1.28934e-10
8.23637e-09
1.23274e-10
8.16892e-09
1.18092e-10
8.10471e-09
1.12569e-10
8.04329e-09
1.07529e-10
7.98505e-09
1.02139e-10
7.92941e-09
9.74759e-11
7.87681e-09
9.24356e-11
7.82665e-09
8.79879e-11
7.77946e-09
8.32419e-11
7.73459e-09
7.87549e-11
7.69245e-09
7.47389e-11
7.65223e-09
7.07935e-11
7.61462e-09
6.74514e-11
7.57835e-09
6.41281e-11
7.54471e-09
6.12972e-11
7.5114e-09
5.92121e-11
5.79899e-11
2.91283e-08
3.86249e-09
-2.87188e-08
2.97219e-08
5.57259e-09
3.0008e-08
6.00681e-09
3.00112e-08
5.56596e-09
2.97941e-08
4.84696e-09
2.94131e-08
4.18002e-09
2.89173e-08
3.65991e-09
2.83423e-08
3.26067e-09
2.77192e-08
2.93924e-09
2.70723e-08
2.67048e-09
2.64178e-08
2.44234e-09
2.57658e-08
2.24618e-09
2.5123e-08
2.07429e-09
2.44943e-08
1.92122e-09
2.38838e-08
1.78358e-09
2.32942e-08
1.65945e-09
2.27273e-08
1.54728e-09
2.21838e-08
1.44583e-09
2.1664e-08
1.35381e-09
2.11674e-08
1.27024e-09
2.06934e-08
1.19411e-09
2.02411e-08
1.1247e-09
1.98094e-08
1.06114e-09
1.93973e-08
1.00289e-09
1.90038e-08
9.49243e-10
1.8628e-08
8.99806e-10
1.82688e-08
8.54055e-10
1.79254e-08
8.11723e-10
1.75968e-08
7.72375e-10
1.72821e-08
7.35858e-10
1.69807e-08
7.01763e-10
1.66916e-08
6.70047e-10
1.64143e-08
6.40303e-10
1.61482e-08
6.12532e-10
1.58926e-08
5.86378e-10
1.56469e-08
5.61837e-10
1.54108e-08
5.38609e-10
1.51836e-08
5.16762e-10
1.4965e-08
4.96024e-10
1.47546e-08
4.76461e-10
1.45519e-08
4.57872e-10
1.43566e-08
4.40264e-10
1.41685e-08
4.23406e-10
1.39871e-08
4.07472e-10
1.38124e-08
3.92031e-10
1.36438e-08
3.77506e-10
1.34813e-08
3.63273e-10
1.33246e-08
3.49874e-10
1.31735e-08
3.36712e-10
1.30279e-08
3.24242e-10
1.28876e-08
3.11903e-10
1.27523e-08
3.00382e-10
1.26222e-08
2.88732e-10
1.24967e-08
2.77816e-10
1.23763e-08
2.66655e-10
1.22602e-08
2.56525e-10
1.2149e-08
2.45636e-10
1.20419e-08
2.35958e-10
1.19396e-08
2.25595e-10
1.18413e-08
2.16433e-10
1.17476e-08
2.06255e-10
1.16577e-08
1.97406e-10
1.15725e-08
1.8738e-10
1.14908e-08
1.79184e-10
1.14136e-08
1.69581e-10
1.13397e-08
1.61873e-10
1.12704e-08
1.52548e-10
1.12041e-08
1.45082e-10
1.11423e-08
1.36562e-10
1.10828e-08
1.30303e-10
1.10278e-08
1.22382e-10
1.09743e-08
1.17637e-10
1.09255e-08
1.10091e-10
1.0877e-08
1.0777e-10
1.02556e-10
3.00308e-08
3.61985e-09
-2.97881e-08
3.05693e-08
5.03414e-09
3.09682e-08
5.60785e-09
3.11788e-08
5.35535e-09
3.12456e-08
4.78019e-09
3.12037e-08
4.22194e-09
3.10743e-08
3.78925e-09
3.08719e-08
3.46304e-09
3.06106e-08
3.20061e-09
3.03038e-08
2.97729e-09
2.99622e-08
2.78396e-09
2.95928e-08
2.61552e-09
2.92008e-08
2.46631e-09
2.87906e-08
2.33138e-09
2.83669e-08
2.20736e-09
2.79338e-08
2.09253e-09
2.74953e-08
1.9857e-09
2.7055e-08
1.88617e-09
2.66157e-08
1.79312e-09
2.61798e-08
1.70615e-09
2.57492e-08
1.62468e-09
2.53254e-08
1.54851e-09
2.49095e-08
1.47707e-09
2.45022e-08
1.41013e-09
2.41043e-08
1.34713e-09
2.37163e-08
1.28787e-09
2.33384e-08
1.23189e-09
2.2971e-08
1.17917e-09
2.26141e-08
1.12932e-09
2.22675e-08
1.08242e-09
2.19312e-08
1.03803e-09
2.1605e-08
9.9629e-10
2.12886e-08
9.56653e-10
2.09819e-08
9.19278e-10
2.06846e-08
8.83648e-10
2.03965e-08
8.49948e-10
2.01174e-08
8.1771e-10
1.98469e-08
7.87225e-10
1.9585e-08
7.57999e-10
1.93311e-08
7.30342e-10
1.90852e-08
7.03772e-10
1.88469e-08
6.78574e-10
1.86161e-08
6.54173e-10
1.83925e-08
6.31113e-10
1.8176e-08
6.08514e-10
1.79662e-08
5.87294e-10
1.77632e-08
5.66248e-10
1.75665e-08
5.46547e-10
1.73764e-08
5.26883e-10
1.71922e-08
5.0843e-10
1.70142e-08
4.89846e-10
1.68419e-08
4.72686e-10
1.66757e-08
4.54956e-10
1.65149e-08
4.3865e-10
1.636e-08
4.21558e-10
1.62102e-08
4.06313e-10
1.60663e-08
3.89527e-10
1.59273e-08
3.74955e-10
1.57941e-08
3.58797e-10
1.56656e-08
3.44958e-10
1.55429e-08
3.28959e-10
1.54246e-08
3.15637e-10
1.53123e-08
2.99707e-10
1.52041e-08
2.87371e-10
1.51019e-08
2.71826e-10
1.50034e-08
2.60359e-10
1.4911e-08
2.44906e-10
1.4822e-08
2.34109e-10
1.47392e-08
2.1933e-10
1.46589e-08
2.10619e-10
1.45851e-08
1.96181e-10
1.45127e-08
1.90026e-10
1.4447e-08
1.75824e-10
1.43816e-08
1.73209e-10
1.6231e-10
3.10017e-08
3.46084e-09
-3.08427e-08
3.14459e-08
4.58989e-09
3.18431e-08
5.21067e-09
3.20907e-08
5.1078e-09
3.22252e-08
4.64563e-09
3.22896e-08
4.15761e-09
3.2302e-08
3.77685e-09
3.22692e-08
3.4958e-09
3.21965e-08
3.27328e-09
3.20903e-08
3.08348e-09
3.19563e-08
2.91803e-09
3.17975e-08
2.77428e-09
3.16155e-08
2.64837e-09
3.14111e-08
2.53577e-09
3.11858e-08
2.43266e-09
3.09414e-08
2.33692e-09
3.068e-08
2.24706e-09
3.04039e-08
2.1623e-09
3.01153e-08
2.08176e-09
2.98163e-08
2.00515e-09
2.9509e-08
1.93196e-09
2.91952e-08
1.86229e-09
2.88765e-08
1.79572e-09
2.85544e-08
1.73232e-09
2.823e-08
1.67151e-09
2.79046e-08
1.61326e-09
2.75794e-08
1.55703e-09
2.72556e-08
1.50301e-09
2.69341e-08
1.45085e-09
2.66155e-08
1.40095e-09
2.63007e-08
1.35291e-09
2.59898e-08
1.30719e-09
2.56833e-08
1.2631e-09
2.53815e-08
1.22106e-09
2.50849e-08
1.1803e-09
2.47935e-08
1.1413e-09
2.45078e-08
1.10338e-09
2.42278e-08
1.06725e-09
2.39537e-08
1.03209e-09
2.36854e-08
9.98683e-10
2.34231e-08
9.66104e-10
2.31665e-08
9.35133e-10
2.2916e-08
9.0466e-10
2.26713e-08
8.75843e-10
2.24327e-08
8.47131e-10
2.21997e-08
8.20224e-10
2.19729e-08
7.93051e-10
2.17517e-08
7.67779e-10
2.15365e-08
7.42038e-10
2.13269e-08
7.18115e-10
2.11232e-08
6.93482e-10
2.09249e-08
6.71032e-10
2.07326e-08
6.47206e-10
2.05456e-08
6.25701e-10
2.03646e-08
6.02499e-10
2.01887e-08
5.82229e-10
2.0019e-08
5.592e-10
1.98543e-08
5.39745e-10
1.96958e-08
5.17297e-10
1.9542e-08
4.9874e-10
1.93947e-08
4.76273e-10
1.92519e-08
4.58428e-10
1.91158e-08
4.35775e-10
1.89839e-08
4.19263e-10
1.8859e-08
3.96767e-10
1.87378e-08
3.81576e-10
1.86239e-08
3.58765e-10
1.85132e-08
3.44763e-10
1.84103e-08
3.2228e-10
1.83096e-08
3.11326e-10
1.8217e-08
2.88809e-10
1.81256e-08
2.81409e-10
1.80424e-08
2.5905e-10
1.79594e-08
2.56138e-10
2.38142e-10
3.20123e-08
3.33965e-09
-3.18911e-08
3.23686e-08
4.2336e-09
3.27407e-08
4.83853e-09
3.2993e-08
4.85548e-09
3.31386e-08
4.50008e-09
3.32248e-08
4.07137e-09
3.32764e-08
3.72524e-09
3.33004e-08
3.47182e-09
3.32995e-08
3.27421e-09
3.32776e-08
3.10533e-09
3.32392e-08
2.95648e-09
3.31866e-08
2.82685e-09
3.31202e-08
2.71472e-09
3.30395e-08
2.61651e-09
3.29439e-08
2.52828e-09
3.28332e-08
2.44757e-09
3.27078e-08
2.3725e-09
3.2568e-08
2.30211e-09
3.24145e-08
2.23526e-09
3.22481e-08
2.17154e-09
3.20698e-08
2.11025e-09
3.18805e-08
2.05159e-09
3.16811e-08
1.99508e-09
3.14724e-08
1.94102e-09
3.12552e-08
1.88872e-09
3.10302e-08
1.83824e-09
3.07985e-08
1.78874e-09
3.05611e-08
1.74049e-09
3.0319e-08
1.69288e-09
3.00733e-08
1.64667e-09
2.98249e-08
1.60136e-09
2.95742e-08
1.5579e-09
2.93219e-08
1.51534e-09
2.90685e-08
1.47449e-09
2.88147e-08
1.43412e-09
2.85609e-08
1.39511e-09
2.83079e-08
1.35631e-09
2.80561e-08
1.31904e-09
2.78062e-08
1.28205e-09
2.7558e-08
1.24683e-09
2.73123e-08
1.21181e-09
2.70689e-08
1.1785e-09
2.68286e-08
1.14501e-09
2.65911e-08
1.11339e-09
2.63571e-08
1.08112e-09
2.61263e-08
1.05103e-09
2.58995e-08
1.01981e-09
2.56762e-08
9.91062e-10
2.54573e-08
9.60945e-10
2.52421e-08
9.33337e-10
2.50315e-08
9.04046e-10
2.48247e-08
8.77843e-10
2.46229e-08
8.49004e-10
2.4425e-08
8.23562e-10
2.42325e-08
7.95057e-10
2.40439e-08
7.70841e-10
2.38609e-08
7.42129e-10
2.3682e-08
7.18729e-10
2.35089e-08
6.90324e-10
2.33398e-08
6.67849e-10
2.31771e-08
6.38991e-10
2.30182e-08
6.17359e-10
2.28661e-08
5.87874e-10
2.27174e-08
5.67897e-10
2.25761e-08
5.38074e-10
2.24379e-08
5.19821e-10
2.23076e-08
4.89032e-10
2.21799e-08
4.72501e-10
2.20606e-08
4.41554e-10
2.1943e-08
4.28925e-10
2.18343e-08
3.97501e-10
2.17265e-08
3.89193e-10
2.16277e-08
3.57929e-10
2.15289e-08
3.54867e-10
3.28998e-10
3.30515e-08
3.23166e-09
-3.29435e-08
3.3335e-08
3.95006e-09
3.36719e-08
4.50164e-09
3.39228e-08
4.60458e-09
3.40724e-08
4.35055e-09
3.41617e-08
3.98209e-09
3.42215e-08
3.66541e-09
3.42614e-08
3.4319e-09
3.42834e-08
3.25221e-09
3.42903e-08
3.09848e-09
3.42861e-08
2.96058e-09
3.42743e-08
2.83873e-09
3.42557e-08
2.73325e-09
3.42302e-08
2.64205e-09
3.4197e-08
2.56152e-09
3.41554e-08
2.48915e-09
3.41051e-08
2.42278e-09
3.40458e-08
2.36144e-09
3.39773e-08
2.30376e-09
3.38995e-08
2.24934e-09
3.38126e-08
2.19715e-09
3.37166e-08
2.14754e-09
3.36119e-08
2.09982e-09
3.34983e-08
2.05457e-09
3.33761e-08
2.01093e-09
3.32452e-08
1.96916e-09
3.3106e-08
1.92797e-09
3.29587e-08
1.88772e-09
3.28043e-08
1.8473e-09
3.26432e-08
1.80775e-09
3.24763e-08
1.76825e-09
3.23039e-08
1.73037e-09
3.21264e-08
1.6928e-09
3.1944e-08
1.65694e-09
3.17572e-08
1.62087e-09
3.15664e-08
1.58592e-09
3.13725e-08
1.55017e-09
3.11759e-08
1.51573e-09
3.09773e-08
1.48059e-09
3.07769e-08
1.44729e-09
3.05753e-08
1.41339e-09
3.03724e-08
1.38136e-09
3.01692e-08
1.34821e-09
2.99654e-08
1.31719e-09
2.9762e-08
1.2845e-09
2.95587e-08
1.25438e-09
2.93566e-08
1.2219e-09
2.91552e-08
1.19251e-09
2.89556e-08
1.16047e-09
2.87572e-08
1.13174e-09
2.85613e-08
1.1e-09
2.83667e-08
1.07244e-09
2.81751e-08
1.04055e-09
2.79854e-08
1.01329e-09
2.77993e-08
9.81133e-10
2.76153e-08
9.54892e-10
2.74355e-08
9.21877e-10
2.72579e-08
8.96309e-10
2.70851e-08
8.63134e-10
2.69146e-08
8.38362e-10
2.67497e-08
8.03955e-10
2.65871e-08
7.79948e-10
2.64306e-08
7.44339e-10
2.62761e-08
7.22367e-10
2.61285e-08
6.857e-10
2.59827e-08
6.65602e-10
2.58448e-08
6.26998e-10
2.57082e-08
6.09056e-10
2.55799e-08
5.69888e-10
2.54523e-08
5.56467e-10
2.53335e-08
5.16339e-10
2.52151e-08
5.07554e-10
2.51055e-08
4.67605e-10
2.49956e-08
4.64694e-10
4.31133e-10
3.41136e-08
3.12694e-09
-3.40089e-08
3.43431e-08
3.72054e-09
3.46399e-08
4.20487e-09
3.48838e-08
4.36065e-09
3.50377e-08
4.19667e-09
3.51286e-08
3.89118e-09
3.519e-08
3.60399e-09
3.52348e-08
3.38714e-09
3.52649e-08
3.22209e-09
3.52818e-08
3.08158e-09
3.5289e-08
2.95333e-09
3.52903e-08
2.83745e-09
3.52878e-08
2.7358e-09
3.52818e-08
2.64802e-09
3.52722e-08
2.57112e-09
3.52586e-08
2.50279e-09
3.52407e-08
2.44066e-09
3.52183e-08
2.38387e-09
3.51911e-08
2.33092e-09
3.51589e-08
2.28157e-09
3.51215e-08
2.23448e-09
3.50789e-08
2.19022e-09
3.50308e-08
2.14783e-09
3.49772e-08
2.10824e-09
3.49177e-08
2.07041e-09
3.48519e-08
2.03498e-09
3.47797e-08
2.00016e-09
3.47008e-08
1.96657e-09
3.46157e-08
1.93244e-09
3.45244e-08
1.8991e-09
3.44274e-08
1.8652e-09
3.43247e-08
1.83304e-09
3.42168e-08
1.80075e-09
3.41031e-08
1.77063e-09
3.39841e-08
1.73992e-09
3.38594e-08
1.71057e-09
3.37301e-08
1.67952e-09
3.35959e-08
1.64984e-09
3.34581e-08
1.61843e-09
3.33163e-08
1.58911e-09
3.31713e-08
1.55842e-09
3.30226e-08
1.53003e-09
3.28713e-08
1.49949e-09
3.27169e-08
1.47158e-09
3.25606e-08
1.44087e-09
3.24016e-08
1.41333e-09
3.22415e-08
1.382e-09
3.20795e-08
1.35455e-09
3.19171e-08
1.32286e-09
3.17534e-08
1.29543e-09
3.159e-08
1.26343e-09
3.14254e-08
1.23701e-09
3.12617e-08
1.20425e-09
3.10975e-08
1.17752e-09
3.09349e-08
1.14368e-09
3.07722e-08
1.11766e-09
3.06119e-08
1.0821e-09
3.04518e-08
1.05648e-09
3.02946e-08
1.02029e-09
3.01376e-08
9.95361e-10
2.99847e-08
9.56871e-10
2.98325e-08
9.32156e-10
2.96851e-08
8.9171e-10
2.95378e-08
8.69685e-10
2.93959e-08
8.27598e-10
2.92543e-08
8.07252e-10
2.91195e-08
7.61737e-10
2.8985e-08
7.43579e-10
2.88574e-08
6.97508e-10
2.87295e-08
6.84368e-10
2.86089e-08
6.36918e-10
2.84884e-08
6.28073e-10
2.83754e-08
5.80576e-10
2.82619e-08
5.78165e-10
5.38207e-10
3.51968e-08
3.0239e-09
-3.50938e-08
3.53889e-08
3.52841e-09
3.56462e-08
3.94761e-09
3.58775e-08
4.12933e-09
3.60345e-08
4.03966e-09
3.61286e-08
3.79709e-09
3.61909e-08
3.54171e-09
3.62376e-08
3.34039e-09
3.62719e-08
3.1878e-09
3.6294e-08
3.05947e-09
3.63063e-08
2.94105e-09
3.63123e-08
2.83144e-09
3.63149e-08
2.73328e-09
3.6315e-08
2.64792e-09
3.63129e-08
2.57313e-09
3.63087e-08
2.50705e-09
3.63023e-08
2.4471e-09
3.62936e-08
2.39255e-09
3.62827e-08
2.34179e-09
3.62694e-08
2.29489e-09
3.62537e-08
2.25016e-09
3.62354e-08
2.2085e-09
3.62146e-08
2.16864e-09
3.6191e-08
2.1319e-09
3.61644e-08
2.09695e-09
3.61344e-08
2.06504e-09
3.61007e-08
2.03382e-09
3.60629e-08
2.00442e-09
3.6021e-08
1.97432e-09
3.59748e-08
1.94527e-09
3.59248e-08
1.91515e-09
3.58707e-08
1.88715e-09
3.58129e-08
1.85861e-09
3.57505e-08
1.83296e-09
3.56839e-08
1.80655e-09
3.56123e-08
1.7822e-09
3.55364e-08
1.75544e-09
3.54557e-08
1.73045e-09
3.53714e-08
1.70275e-09
3.52829e-08
1.6776e-09
3.51909e-08
1.6504e-09
3.50947e-08
1.62627e-09
3.49952e-08
1.599e-09
3.48917e-08
1.5751e-09
3.47852e-08
1.54735e-09
3.46748e-08
1.5237e-09
3.45621e-08
1.49473e-09
3.44459e-08
1.47071e-09
3.4328e-08
1.4408e-09
3.42072e-08
1.41619e-09
3.40854e-08
1.38531e-09
3.39606e-08
1.36176e-09
3.3835e-08
1.32985e-09
3.3707e-08
1.30549e-09
3.35791e-08
1.27159e-09
3.34491e-08
1.24771e-09
3.33199e-08
1.21122e-09
3.31892e-08
1.18727e-09
3.30596e-08
1.1498e-09
3.29282e-08
1.12682e-09
3.27989e-08
1.08612e-09
3.2669e-08
1.06214e-09
3.25425e-08
1.01819e-09
3.24143e-08
9.97885e-10
3.22894e-08
9.52508e-10
3.21629e-08
9.33685e-10
3.20419e-08
8.82776e-10
3.19203e-08
8.65144e-10
3.18036e-08
8.14215e-10
3.16856e-08
8.02378e-10
3.15725e-08
7.50052e-10
3.1459e-08
7.41563e-10
3.13513e-08
6.8824e-10
3.1243e-08
6.86482e-10
6.42371e-10
3.63023e-08
2.92401e-09
-3.62025e-08
3.64688e-08
3.36199e-09
3.6691e-08
3.72542e-09
3.69056e-08
3.91474e-09
3.7063e-08
3.88223e-09
3.71612e-08
3.6989e-09
3.72249e-08
3.47795e-09
3.72728e-08
3.29255e-09
3.73098e-08
3.15081e-09
3.73358e-08
3.0335e-09
3.73517e-08
2.92507e-09
3.73606e-08
2.82254e-09
3.73654e-08
2.72847e-09
3.73678e-08
2.64562e-09
3.73683e-08
2.57263e-09
3.7367e-08
2.50831e-09
3.73642e-08
2.44988e-09
3.736e-08
2.39677e-09
3.73546e-08
2.34716e-09
3.73479e-08
2.30159e-09
3.73402e-08
2.25791e-09
3.73312e-08
2.21752e-09
3.73211e-08
2.17871e-09
3.73098e-08
2.14322e-09
3.72974e-08
2.10933e-09
3.72834e-08
2.07904e-09
3.72678e-08
2.04935e-09
3.72502e-08
2.02208e-09
3.72305e-08
1.99402e-09
3.72083e-08
1.96742e-09
3.71843e-08
1.93921e-09
3.71578e-08
1.91367e-09
3.71293e-08
1.88705e-09
3.70982e-08
1.86407e-09
3.70646e-08
1.84017e-09
3.70275e-08
1.8193e-09
3.69875e-08
1.79539e-09
3.6944e-08
1.77395e-09
3.68978e-08
1.74896e-09
3.68484e-08
1.72699e-09
3.67965e-08
1.70236e-09
3.67409e-08
1.68186e-09
3.66826e-08
1.65727e-09
3.66208e-08
1.63694e-09
3.65562e-08
1.61188e-09
3.64878e-08
1.59209e-09
3.64171e-08
1.56548e-09
3.63427e-08
1.54515e-09
3.6266e-08
1.5174e-09
3.61862e-08
1.49601e-09
3.61049e-08
1.46662e-09
3.60202e-08
1.44653e-09
3.59337e-08
1.41632e-09
3.5844e-08
1.3952e-09
3.57535e-08
1.36211e-09
3.56597e-08
1.34148e-09
3.55657e-08
1.30521e-09
3.54692e-08
1.28375e-09
3.53728e-08
1.24616e-09
3.52731e-08
1.22654e-09
3.51736e-08
1.18562e-09
3.50724e-08
1.16336e-09
3.49738e-08
1.11682e-09
3.48725e-08
1.09916e-09
3.47723e-08
1.05273e-09
3.46689e-08
1.0371e-09
3.45688e-08
9.82824e-10
3.44683e-08
9.65671e-10
3.43705e-08
9.11989e-10
3.42708e-08
9.02079e-10
3.4173e-08
8.47896e-10
3.40742e-08
8.40323e-10
3.39793e-08
7.83116e-10
3.38841e-08
7.81685e-10
7.3608e-10
3.74325e-08
2.82896e-09
-3.73374e-08
3.75803e-08
3.21419e-09
3.77732e-08
3.53244e-09
3.79692e-08
3.71877e-09
3.81238e-08
3.72759e-09
3.82259e-08
3.59685e-09
3.82919e-08
3.41189e-09
3.83407e-08
3.24379e-09
3.83795e-08
3.11202e-09
3.84085e-08
3.00445e-09
3.84279e-08
2.90574e-09
3.84394e-08
2.81098e-09
3.84461e-08
2.72177e-09
3.84498e-08
2.6419e-09
3.84516e-08
2.57083e-09
3.84517e-08
2.50824e-09
3.84503e-08
2.45124e-09
3.84477e-08
2.39943e-09
3.84441e-08
2.35069e-09
3.84396e-08
2.30614e-09
3.84344e-08
2.26307e-09
3.84285e-08
2.22347e-09
3.8422e-08
2.18516e-09
3.8415e-08
2.1503e-09
3.84077e-08
2.11665e-09
3.83996e-08
2.08706e-09
3.83912e-08
2.05776e-09
3.83819e-08
2.03141e-09
3.83718e-08
2.00413e-09
3.83604e-08
1.9788e-09
3.83483e-08
1.95129e-09
3.83349e-08
1.92705e-09
3.83209e-08
1.90107e-09
3.83056e-08
1.87936e-09
3.82893e-08
1.85646e-09
3.82711e-08
1.83759e-09
3.82514e-08
1.81508e-09
3.82294e-08
1.79587e-09
3.8206e-08
1.77244e-09
3.81805e-08
1.75241e-09
3.81538e-08
1.72912e-09
3.81245e-08
1.71113e-09
3.80936e-08
1.68821e-09
3.80602e-08
1.67036e-09
3.8025e-08
1.64705e-09
3.79867e-08
1.63036e-09
3.79468e-08
1.60537e-09
3.79039e-08
1.58806e-09
3.78592e-08
1.56217e-09
3.78116e-08
1.5436e-09
3.77629e-08
1.51528e-09
3.77112e-08
1.49826e-09
3.76577e-08
1.46983e-09
3.76009e-08
1.45195e-09
3.75433e-08
1.41971e-09
3.74823e-08
1.4025e-09
3.74204e-08
1.36712e-09
3.7356e-08
1.34812e-09
3.72914e-08
1.31076e-09
3.72232e-08
1.2948e-09
3.71534e-08
1.25536e-09
3.70813e-08
1.23547e-09
3.70113e-08
1.1868e-09
3.6939e-08
1.1715e-09
3.68661e-08
1.12567e-09
3.67887e-08
1.11443e-09
3.67124e-08
1.05918e-09
3.66362e-08
1.04182e-09
3.65613e-08
9.86945e-10
3.64844e-08
9.78919e-10
3.64066e-08
9.25687e-10
3.63271e-08
9.19812e-10
3.62496e-08
8.60667e-10
3.61726e-08
8.58708e-10
8.13957e-10
3.85895e-08
2.73964e-09
-3.85002e-08
3.87227e-08
3.08106e-09
3.8892e-08
3.36311e-09
3.90693e-08
3.54144e-09
3.92183e-08
3.5786e-09
3.9323e-08
3.49221e-09
3.93919e-08
3.34298e-09
3.94417e-08
3.19392e-09
3.94817e-08
3.07204e-09
3.95131e-08
2.97305e-09
3.95354e-08
2.88343e-09
3.95497e-08
2.79675e-09
3.95583e-08
2.71312e-09
3.95634e-08
2.63682e-09
3.95663e-08
2.56793e-09
3.95674e-08
2.50718e-09
3.95669e-08
2.45168e-09
3.95651e-08
2.40123e-09
3.95625e-08
2.35334e-09
3.95588e-08
2.3098e-09
3.95546e-08
2.26728e-09
3.95497e-08
2.22836e-09
3.95444e-08
2.19045e-09
3.95386e-08
2.15607e-09
3.95329e-08
2.12241e-09
3.95268e-08
2.09319e-09
3.95207e-08
2.06382e-09
3.95143e-08
2.0378e-09
3.95078e-08
2.01069e-09
3.95005e-08
1.98605e-09
3.94932e-08
1.95859e-09
3.94852e-08
1.9351e-09
3.94771e-08
1.90914e-09
3.94686e-08
1.8879e-09
3.94599e-08
1.86507e-09
3.94503e-08
1.8472e-09
3.94403e-08
1.82507e-09
3.94292e-08
1.80703e-09
3.94173e-08
1.78437e-09
3.94044e-08
1.76531e-09
3.93911e-08
1.7424e-09
3.93763e-08
1.72587e-09
3.93608e-08
1.70373e-09
3.93439e-08
1.68728e-09
3.93262e-08
1.66475e-09
3.93064e-08
1.6502e-09
3.92857e-08
1.62598e-09
3.92632e-08
1.61062e-09
3.92393e-08
1.58602e-09
3.92133e-08
1.56958e-09
3.91869e-08
1.54168e-09
3.91584e-08
1.52679e-09
3.91285e-08
1.49976e-09
3.90959e-08
1.48457e-09
3.90628e-08
1.45277e-09
3.90269e-08
1.43835e-09
3.89898e-08
1.40423e-09
3.89508e-08
1.38712e-09
3.89117e-08
1.34985e-09
3.88697e-08
1.33679e-09
3.88252e-08
1.29989e-09
3.87779e-08
1.28278e-09
3.87324e-08
1.23225e-09
3.86858e-08
1.21817e-09
3.86378e-08
1.17365e-09
3.85851e-08
1.16714e-09
3.85309e-08
1.11335e-09
3.84778e-08
1.09495e-09
3.8425e-08
1.03969e-09
3.83711e-08
1.03287e-09
3.83143e-08
9.82477e-10
3.8255e-08
9.79131e-10
3.81958e-08
9.19894e-10
3.81381e-08
9.16321e-10
8.73891e-10
3.97756e-08
2.65614e-09
-3.96921e-08
3.98964e-08
2.96034e-09
4.00466e-08
3.21289e-09
4.02065e-08
3.38149e-09
4.03478e-08
3.43731e-09
4.04532e-08
3.38678e-09
4.0525e-08
3.27118e-09
4.05764e-08
3.14259e-09
4.06172e-08
3.0312e-09
4.06503e-08
2.93996e-09
4.06751e-08
2.85859e-09
4.06919e-08
2.77994e-09
4.07026e-08
2.70242e-09
4.07092e-08
2.63027e-09
4.07132e-08
2.56391e-09
4.07152e-08
2.50514e-09
4.07157e-08
2.45123e-09
4.07146e-08
2.40226e-09
4.07127e-08
2.35531e-09
4.07096e-08
2.31287e-09
4.0706e-08
2.27095e-09
4.07016e-08
2.23272e-09
4.06968e-08
2.19525e-09
4.06915e-08
2.16138e-09
4.06862e-08
2.12767e-09
4.06807e-08
2.09875e-09
4.06753e-08
2.06919e-09
4.06698e-08
2.04326e-09
4.06645e-08
2.01607e-09
4.06586e-08
1.99187e-09
4.0653e-08
1.96422e-09
4.06469e-08
1.94124e-09
4.06409e-08
1.91512e-09
4.06348e-08
1.894e-09
4.0629e-08
1.87082e-09
4.06229e-08
1.85337e-09
4.06168e-08
1.8311e-09
4.06104e-08
1.8135e-09
4.06035e-08
1.79124e-09
4.05962e-08
1.77257e-09
4.05891e-08
1.74951e-09
4.05813e-08
1.73368e-09
4.05732e-08
1.71181e-09
4.05646e-08
1.69594e-09
4.05558e-08
1.67349e-09
4.05457e-08
1.66031e-09
4.05355e-08
1.63622e-09
4.05243e-08
1.62183e-09
4.05123e-08
1.59798e-09
4.04989e-08
1.583e-09
4.04855e-08
1.55503e-09
4.04711e-08
1.54125e-09
4.04557e-08
1.51515e-09
4.04383e-08
1.50193e-09
4.0421e-08
1.47008e-09
4.0402e-08
1.45743e-09
4.03815e-08
1.42472e-09
4.03597e-08
1.40885e-09
4.03382e-08
1.37137e-09
4.03151e-08
1.3599e-09
4.02892e-08
1.32581e-09
4.02603e-08
1.3117e-09
4.02328e-08
1.2597e-09
4.02055e-08
1.24543e-09
4.01771e-08
1.20214e-09
4.01444e-08
1.1998e-09
4.01083e-08
1.14945e-09
4.00737e-08
1.12951e-09
4.00393e-08
1.07411e-09
4.00047e-08
1.0675e-09
3.99665e-08
1.02064e-09
3.99253e-08
1.02038e-09
3.98825e-08
9.62659e-10
3.98422e-08
9.56631e-10
9.16964e-10
4.09924e-08
2.57816e-09
-4.09144e-08
4.11022e-08
2.85048e-09
4.12367e-08
3.07841e-09
4.13811e-08
3.23715e-09
4.15135e-08
3.30486e-09
4.16179e-08
3.28243e-09
4.16921e-08
3.19699e-09
4.17451e-08
3.08951e-09
4.17868e-08
2.98955e-09
4.1821e-08
2.90572e-09
4.18478e-08
2.83176e-09
4.1867e-08
2.76077e-09
4.18798e-08
2.68964e-09
4.18879e-08
2.62216e-09
4.18931e-08
2.55873e-09
4.18961e-08
2.50213e-09
4.18974e-08
2.44991e-09
4.18972e-08
2.40253e-09
4.18959e-08
2.3566e-09
4.18934e-08
2.31536e-09
4.18902e-08
2.27413e-09
4.18863e-08
2.23664e-09
4.18818e-08
2.19967e-09
4.18769e-08
2.16637e-09
4.18718e-08
2.13269e-09
4.18665e-08
2.10407e-09
4.18614e-08
2.07434e-09
4.18562e-08
2.04839e-09
4.18513e-08
2.02105e-09
4.18459e-08
1.99719e-09
4.18409e-08
1.96928e-09
4.18354e-08
1.94672e-09
4.18301e-08
1.92046e-09
4.18247e-08
1.89934e-09
4.18198e-08
1.8757e-09
4.18148e-08
1.85837e-09
4.18102e-08
1.83577e-09
4.18055e-08
1.81814e-09
4.18006e-08
1.79616e-09
4.17956e-08
1.77759e-09
4.17909e-08
1.75421e-09
4.1786e-08
1.73861e-09
4.1781e-08
1.71677e-09
4.17759e-08
1.70102e-09
4.17711e-08
1.67828e-09
4.17655e-08
1.66593e-09
4.17601e-08
1.64165e-09
4.17544e-08
1.6275e-09
4.17484e-08
1.60399e-09
4.17414e-08
1.59e-09
4.17347e-08
1.56174e-09
4.17276e-08
1.54829e-09
4.17201e-08
1.5227e-09
4.17112e-08
1.51083e-09
4.17026e-08
1.47863e-09
4.16934e-08
1.46669e-09
4.16827e-08
1.43539e-09
4.16713e-08
1.42027e-09
4.16602e-08
1.38248e-09
4.16488e-08
1.37131e-09
4.1635e-08
1.33959e-09
4.16183e-08
1.32844e-09
4.16024e-08
1.27559e-09
4.15877e-08
1.2601e-09
4.15723e-08
1.21756e-09
4.1554e-08
1.21812e-09
4.1531e-08
1.17237e-09
4.15096e-08
1.15095e-09
4.14883e-08
1.09545e-09
4.14676e-08
1.08815e-09
4.14437e-08
1.04451e-09
4.14167e-08
1.04739e-09
4.1387e-08
9.92353e-10
4.136e-08
9.83639e-10
9.46407e-10
4.22412e-08
2.50525e-09
-4.21683e-08
4.23415e-08
2.75023e-09
4.24627e-08
2.95718e-09
4.25933e-08
3.10654e-09
4.27166e-08
3.18159e-09
4.28183e-08
3.18072e-09
4.28939e-08
3.12136e-09
4.29488e-08
3.03462e-09
4.29913e-08
2.94703e-09
4.30264e-08
2.87068e-09
4.30547e-08
2.80345e-09
4.30759e-08
2.73958e-09
4.30907e-08
2.67487e-09
4.31004e-08
2.61244e-09
4.31068e-08
2.55233e-09
4.31108e-08
2.49815e-09
4.3113e-08
2.44771e-09
4.31135e-08
2.40201e-09
4.31129e-08
2.35722e-09
4.3111e-08
2.31724e-09
4.31083e-08
2.27683e-09
4.31048e-08
2.24013e-09
4.31007e-08
2.20373e-09
4.30961e-08
2.17103e-09
4.30913e-08
2.13748e-09
4.30862e-08
2.10915e-09
4.30812e-08
2.07934e-09
4.30762e-08
2.05336e-09
4.30714e-08
2.02584e-09
4.30663e-08
2.00228e-09
4.30615e-08
1.97412e-09
4.30563e-08
1.95191e-09
4.30512e-08
1.92559e-09
4.3046e-08
1.90445e-09
4.30414e-08
1.88036e-09
4.30368e-08
1.86297e-09
4.30325e-08
1.84006e-09
4.30285e-08
1.82213e-09
4.30243e-08
1.80039e-09
4.30201e-08
1.78178e-09
4.30162e-08
1.75813e-09
4.30123e-08
1.74245e-09
4.30085e-08
1.7206e-09
4.30047e-08
1.70478e-09
4.30015e-08
1.68156e-09
4.29977e-08
1.6697e-09
4.29942e-08
1.64515e-09
4.29909e-08
1.63083e-09
4.29875e-08
1.60738e-09
4.29834e-08
1.59405e-09
4.29796e-08
1.56555e-09
4.2976e-08
1.55195e-09
4.29721e-08
1.52656e-09
4.29674e-08
1.51554e-09
4.2963e-08
1.48297e-09
4.29588e-08
1.47088e-09
4.29534e-08
1.44086e-09
4.29474e-08
1.42622e-09
4.29416e-08
1.38827e-09
4.29364e-08
1.3765e-09
4.29297e-08
1.34631e-09
4.29204e-08
1.33779e-09
4.29111e-08
1.28485e-09
4.29034e-08
1.26777e-09
4.28955e-08
1.22552e-09
4.28862e-08
1.22742e-09
4.28721e-08
1.18648e-09
4.28589e-08
1.16409e-09
4.28458e-08
1.10862e-09
4.28338e-08
1.10012e-09
4.28194e-08
1.05885e-09
4.28025e-08
1.06437e-09
4.27822e-08
1.01262e-09
4.27642e-08
1.00167e-09
9.66216e-10
4.35235e-08
2.437e-09
-4.34552e-08
4.36152e-08
2.65851e-09
4.3725e-08
2.84736e-09
4.38436e-08
2.98798e-09
4.39578e-08
3.06734e-09
4.40558e-08
3.08279e-09
4.41318e-08
3.04535e-09
4.41883e-08
2.97813e-09
4.42318e-08
2.90354e-09
4.42674e-08
2.83502e-09
4.42968e-08
2.7741e-09
4.43196e-08
2.71675e-09
4.43362e-08
2.65827e-09
4.43476e-08
2.6011e-09
4.43552e-08
2.54469e-09
4.43602e-08
2.49318e-09
4.43632e-08
2.44466e-09
4.43645e-08
2.40072e-09
4.43646e-08
2.35716e-09
4.43633e-08
2.31852e-09
4.43611e-08
2.27904e-09
4.4358e-08
2.24319e-09
4.43544e-08