/*--------------------------------*- C++ -*----------------------------------*\
| =========                 |                                                 |
| \\      /  F ield         | OpenFOAM: The Open Source CFD Toolbox           |
|  \\    /   O peration     | Version:  2.3.0                                 |
|   \\  /    A nd           | Web:      www.OpenFOAM.org                      |
|    \\/     M anipulation  |                                                 |
\*---------------------------------------------------------------------------*/
FoamFile
{
    version     2.0;
    format      ascii;
    class       volVectorField;
    location    "0.6";
    object      U;
}
// * * * * * * * * * * * * * * * * * * * * * * * * * * * * * * * * * * * * * //

dimensions      [0 1 -1 0 0 0 0];

internalField   nonuniform List<vector> 
2945
(
(0.160866 0.00623778 0)
(0.121932 0.00658527 0)
(0.0902737 0.00468608 0)
(0.0671059 0.00259351 0)
(0.0524509 0.00111108 0)
(0.043728 0.00036323 0)
(0.038451 9.76603e-05 0)
(0.0350903 4.29352e-05 0)
(0.0327209 5.57709e-05 0)
(0.0308405 7.55949e-05 0)
(0.0292255 8.43072e-05 0)
(0.0277969 8.24547e-05 0)
(0.0265273 7.5356e-05 0)
(0.0253988 6.7243e-05 0)
(0.024392 5.99599e-05 0)
(0.0234879 5.38664e-05 0)
(0.0226697 4.87636e-05 0)
(0.021924 4.44131e-05 0)
(0.0212403 4.06196e-05 0)
(0.0206103 3.72824e-05 0)
(0.0200275 3.43118e-05 0)
(0.0194863 3.16737e-05 0)
(0.0189821 2.93104e-05 0)
(0.018511 2.71987e-05 0)
(0.0180697 2.52967e-05 0)
(0.0176552 2.3582e-05 0)
(0.017265 2.20249e-05 0)
(0.0168969 2.06078e-05 0)
(0.0165492 1.93072e-05 0)
(0.0162201 1.81175e-05 0)
(0.0159081 1.70187e-05 0)
(0.015612 1.60164e-05 0)
(0.0153305 1.50927e-05 0)
(0.0150625 1.42448e-05 0)
(0.014807 1.34653e-05 0)
(0.0145634 1.27364e-05 0)
(0.0143304 1.206e-05 0)
(0.014108 1.142e-05 0)
(0.013895 1.08317e-05 0)
(0.0136914 1.02657e-05 0)
(0.0134959 9.76113e-06 0)
(0.013309 9.26647e-06 0)
(0.013129 8.82043e-06 0)
(0.012957 8.38905e-06 0)
(0.0127909 7.98972e-06 0)
(0.0126324 7.60741e-06 0)
(0.0124789 7.25272e-06 0)
(0.0123328 6.89696e-06 0)
(0.0121906 6.59224e-06 0)
(0.0120559 6.26219e-06 0)
(0.0119243 5.97977e-06 0)
(0.0118003 5.69152e-06 0)
(0.0116781 5.45212e-06 0)
(0.011564 5.17238e-06 0)
(0.0114507 4.94067e-06 0)
(0.0113462 4.71024e-06 0)
(0.0112409 4.49198e-06 0)
(0.0111456 4.2531e-06 0)
(0.011048 4.07918e-06 0)
(0.0109614 3.86908e-06 0)
(0.0108707 3.71563e-06 0)
(0.0107926 3.49655e-06 0)
(0.0107084 3.3482e-06 0)
(0.0106389 3.149e-06 0)
(0.0105603 3.06367e-06 0)
(0.0104989 2.85896e-06 0)
(0.0104248 2.83357e-06 0)
(0.0103717 2.53943e-06 0)
(0.0103013 2.62249e-06 0)
(0.0102565 2.30774e-06 0)
(0.0101871 2.54172e-06 0)
(0.0101506 2.13356e-06 0)
(0.0100787 2.54345e-06 0)
(0.0100534 1.92749e-06 0)
(0.00997013 2.79246e-06 0)
(0.190303 0.0112376 0)
(0.182789 0.0137171 0)
(0.17168 0.0121784 0)
(0.157834 0.00927042 0)
(0.143413 0.00631897 0)
(0.129947 0.00404038 0)
(0.118219 0.00257122 0)
(0.108546 0.00172532 0)
(0.100763 0.0012632 0)
(0.0944604 0.00100552 0)
(0.0892254 0.000846308 0)
(0.0847572 0.000732251 0)
(0.0808646 0.000640823 0)
(0.0774264 0.00056449 0)
(0.0743597 0.000500622 0)
(0.0716018 0.000447384 0)
(0.0691037 0.000402758 0)
(0.0668263 0.000364936 0)
(0.0647384 0.000332409 0)
(0.0628147 0.000304153 0)
(0.0610348 0.000279341 0)
(0.0593815 0.00025746 0)
(0.057841 0.000238008 0)
(0.0564009 0.00022067 0)
(0.0550513 0.000205109 0)
(0.0537831 0.000191104 0)
(0.0525889 0.000178418 0)
(0.051462 0.0001669 0)
(0.0503968 0.000156374 0)
(0.049388 0.000146759 0)
(0.0484313 0.000137917 0)
(0.0475227 0.000129821 0)
(0.0466584 0.000122355 0)
(0.0458354 0.000115481 0)
(0.0450503 0.000109123 0)
(0.0443014 0.000103212 0)
(0.0435854 9.77075e-05 0)
(0.0429014 9.25579e-05 0)
(0.0422459 8.77666e-05 0)
(0.0416193 8.32483e-05 0)
(0.0410173 7.90804e-05 0)
(0.0404417 7.51141e-05 0)
(0.0398873 7.14284e-05 0)
(0.0393576 6.79325e-05 0)
(0.0388458 6.46388e-05 0)
(0.0383577 6.15267e-05 0)
(0.0378845 5.85766e-05 0)
(0.0374345 5.57442e-05 0)
(0.0369965 5.3122e-05 0)
(0.0365818 5.05333e-05 0)
(0.036176 4.81313e-05 0)
(0.0357944 4.5815e-05 0)
(0.0354181 4.36619e-05 0)
(0.0350676 4.14905e-05 0)
(0.0347188 3.94705e-05 0)
(0.034398 3.75569e-05 0)
(0.0340748 3.56564e-05 0)
(0.0337828 3.38196e-05 0)
(0.0334834 3.21353e-05 0)
(0.0332192 3.04661e-05 0)
(0.0329418 2.89028e-05 0)
(0.0327049 2.72862e-05 0)
(0.0324483 2.58075e-05 0)
(0.0322386 2.43381e-05 0)
(0.0320003 2.3109e-05 0)
(0.0318171 2.17027e-05 0)
(0.0315946 2.07133e-05 0)
(0.0314387 1.91348e-05 0)
(0.0312287 1.85642e-05 0)
(0.0311003 1.70539e-05 0)
(0.0308961 1.69967e-05 0)
(0.0307972 1.54085e-05 0)
(0.0305883 1.58728e-05 0)
(0.0305271 1.41365e-05 0)
(0.0302911 1.56927e-05 0)
(0.191277 0.0103294 0)
(0.192721 0.0140669 0)
(0.19337 0.0139453 0)
(0.191026 0.0119323 0)
(0.185765 0.00949476 0)
(0.178667 0.00740031 0)
(0.170803 0.00582497 0)
(0.162975 0.00467691 0)
(0.15559 0.00382644 0)
(0.148774 0.00318458 0)
(0.142518 0.00269478 0)
(0.136775 0.00231503 0)
(0.131502 0.00201368 0)
(0.126662 0.00176918 0)
(0.122215 0.00156774 0)
(0.118126 0.0014002 0)
(0.114356 0.00125953 0)
(0.110871 0.00114025 0)
(0.10764 0.00103792 0)
(0.104635 0.000949301 0)
(0.101832 0.000871776 0)
(0.0992105 0.000803545 0)
(0.0967526 0.000743008 0)
(0.0944424 0.000689076 0)
(0.0922667 0.000640702 0)
(0.0902135 0.000597168 0)
(0.0882726 0.000557754 0)
(0.0864347 0.000521976 0)
(0.0846915 0.000489306 0)
(0.0830359 0.000459459 0)
(0.0814613 0.000432026 0)
(0.079962 0.00040687 0)
(0.0785323 0.000383647 0)
(0.0771683 0.000362244 0)
(0.0758643 0.000342399 0)
(0.0746184 0.000323976 0)
(0.0734246 0.000306792 0)
(0.0722828 0.000290763 0)
(0.0711863 0.000275785 0)
(0.0701372 0.000261742 0)
(0.0691272 0.000248646 0)
(0.0681611 0.000236294 0)
(0.0672284 0.0002247 0)
(0.0663372 0.000213776 0)
(0.0654743 0.00020341 0)
(0.0646514 0.00019367 0)
(0.0638518 0.000184358 0)
(0.0630918 0.000175545 0)
(0.06235 0.000167183 0)
(0.0616486 0.000159163 0)
(0.06096 0.000151515 0)
(0.0603135 0.000144287 0)
(0.0596739 0.000137326 0)
(0.0590796 0.000130622 0)
(0.0584856 0.000124129 0)
(0.0579412 0.000118105 0)
(0.05739 0.000111992 0)
(0.0568941 0.000106332 0)
(0.0563827 0.000100758 0)
(0.0559341 9.55669e-05 0)
(0.0554598 9.03255e-05 0)
(0.0550581 8.54108e-05 0)
(0.0546185 8.0448e-05 0)
(0.0542634 7.59797e-05 0)
(0.0538553 7.15491e-05 0)
(0.0535466 6.73854e-05 0)
(0.0531656 6.34524e-05 0)
(0.0529049 5.92504e-05 0)
(0.0525453 5.61416e-05 0)
(0.0523343 5.24043e-05 0)
(0.0519854 5.01708e-05 0)
(0.0518293 4.68524e-05 0)
(0.0514741 4.53437e-05 0)
(0.0513854 4.28087e-05 0)
(0.0509936 4.28511e-05 0)
(0.191877 0.00900274 0)
(0.193595 0.0125679 0)
(0.196728 0.0132332 0)
(0.198871 0.012016 0)
(0.198887 0.0102281 0)
(0.196964 0.00861139 0)
(0.193765 0.00735582 0)
(0.189909 0.00638462 0)
(0.185764 0.00559802 0)
(0.181498 0.0049423 0)
(0.177179 0.0043922 0)
(0.172852 0.00392822 0)
(0.168559 0.00353187 0)
(0.16434 0.00318859 0)
(0.160229 0.00288866 0)
(0.156249 0.00262589 0)
(0.152416 0.00239527 0)
(0.148737 0.00219253 0)
(0.145215 0.00201358 0)
(0.141849 0.00185513 0)
(0.138635 0.0017141 0)
(0.135568 0.00158823 0)
(0.132641 0.00147524 0)
(0.129848 0.00137356 0)
(0.127181 0.00128157 0)
(0.124634 0.00119817 0)
(0.122201 0.00112218 0)
(0.119875 0.00105285 0)
(0.11765 0.000989269 0)
(0.115521 0.00093094 0)
(0.113481 0.000877127 0)
(0.111526 0.000827583 0)
(0.10965 0.000781672 0)
(0.107852 0.000739224 0)
(0.106123 0.000699721 0)
(0.104465 0.000662992 0)
(0.102868 0.000628622 0)
(0.101335 0.000596549 0)
(0.0998571 0.000566452 0)
(0.0984389 0.00053826 0)
(0.0970676 0.000511794 0)
(0.0957535 0.000486906 0)
(0.0944793 0.000463383 0)
(0.0932605 0.000441289 0)
(0.092075 0.000420195 0)
(0.090944 0.000400438 0)
(0.0898399 0.000381422 0)
(0.0887907 0.00036355 0)
(0.0877614 0.000346362 0)
(0.0867894 0.0003301 0)
(0.0858294 0.000314351 0)
(0.0849302 0.000299634 0)
(0.0840346 0.000285184 0)
(0.0832054 0.000271585 0)
(0.08237 0.000258096 0)
(0.0816081 0.000245772 0)
(0.0808296 0.000233049 0)
(0.0801337 0.000221544 0)
(0.0794082 0.000209787 0)
(0.0787772 0.000199199 0)
(0.0781015 0.000188066 0)
(0.0775352 0.000178128 0)
(0.0769061 0.000167519 0)
(0.0764051 0.000158482 0)
(0.0758182 0.000148731 0)
(0.0753831 0.000140426 0)
(0.0748324 0.000131423 0)
(0.0744665 0.000123451 0)
(0.0739437 0.000115609 0)
(0.0736514 0.000108859 0)
(0.0731421 0.000102093 0)
(0.0729318 9.67493e-05 0)
(0.072414 9.07308e-05 0)
(0.0723011 8.75478e-05 0)
(0.0717419 8.38394e-05 0)
(0.192842 0.00822053 0)
(0.194052 0.0112169 0)
(0.196844 0.012216 0)
(0.199707 0.0114794 0)
(0.201397 0.0100875 0)
(0.201693 0.00877277 0)
(0.200957 0.00775643 0)
(0.199627 0.00697899 0)
(0.197969 0.0063435 0)
(0.196084 0.00579834 0)
(0.193995 0.00532495 0)
(0.191713 0.00491212 0)
(0.18926 0.00454709 0)
(0.186671 0.00421873 0)
(0.183978 0.00391968 0)
(0.181212 0.00364619 0)
(0.178401 0.0033957 0)
(0.175568 0.00316633 0)
(0.172732 0.002956 0)
(0.169911 0.00276318 0)
(0.16712 0.00258614 0)
(0.164368 0.00242369 0)
(0.161663 0.00227424 0)
(0.159013 0.00213673 0)
(0.156421 0.00200975 0)
(0.153891 0.00189248 0)
(0.151425 0.00178384 0)
(0.149027 0.00168328 0)
(0.146694 0.00158988 0)
(0.144431 0.00150328 0)
(0.142233 0.00142259 0)
(0.140102 0.00134766 0)
(0.138033 0.00127758 0)
(0.136029 0.00121231 0)
(0.134084 0.00115107 0)
(0.132202 0.00109383 0)
(0.130374 0.0010399 0)
(0.128609 0.000989385 0)
(0.126892 0.000941666 0)
(0.125236 0.000896877 0)
(0.123622 0.000854497 0)
(0.12207 0.000814633 0)
(0.120553 0.000776655 0)
(0.119099 0.000741004 0)
(0.117673 0.000706708 0)
(0.116312 0.000674635 0)
(0.114971 0.000643515 0)
(0.113698 0.000614402 0)
(0.112438 0.000586059 0)
(0.11125 0.000559472 0)
(0.110065 0.000533378 0)
(0.108958 0.000509205 0)
(0.107844 0.000485072 0)
(0.106818 0.000462724 0)
(0.105771 0.000440118 0)
(0.104823 0.000419734 0)
(0.10384 0.000398317 0)
(0.10297 0.000379321 0)
(0.102047 0.000359336 0)
(0.101254 0.000341803 0)
(0.100388 0.000322752 0)
(0.0996737 0.000306358 0)
(0.0988611 0.000288058 0)
(0.0982269 0.000273155 0)
(0.0974623 0.000256009 0)
(0.0969108 0.000242455 0)
(0.0961867 0.000226207 0)
(0.0957236 0.000213591 0)
(0.0950295 0.000198681 0)
(0.0946626 0.000188385 0)
(0.0939807 0.000174566 0)
(0.0937215 0.000166984 0)
(0.0930275 0.000153927 0)
(0.0928924 0.000149905 0)
(0.092154 0.000140359 0)
(0.193635 0.00777045 0)
(0.194621 0.010205 0)
(0.196839 0.0113437 0)
(0.19943 0.0109448 0)
(0.20136 0.00981462 0)
(0.202291 0.00866455 0)
(0.202435 0.0077688 0)
(0.202147 0.00710053 0)
(0.201656 0.00656541 0)
(0.201039 0.00610626 0)
(0.200288 0.00570412 0)
(0.199386 0.00535196 0)
(0.198325 0.00504056 0)
(0.197115 0.00475972 0)
(0.195766 0.00450149 0)
(0.194293 0.00426158 0)
(0.192707 0.00403726 0)
(0.191023 0.00382704 0)
(0.189253 0.00362928 0)
(0.187413 0.0034432 0)
(0.185513 0.00326775 0)
(0.183568 0.00310276 0)
(0.181587 0.00294728 0)
(0.179582 0.00280105 0)
(0.177557 0.00266297 0)
(0.175525 0.00253271 0)
(0.173488 0.00240932 0)
(0.171458 0.00229279 0)
(0.169437 0.00218241 0)
(0.167436 0.00207843 0)
(0.165452 0.00198004 0)
(0.163497 0.00188752 0)
(0.161563 0.0017998 0)
(0.159664 0.00171718 0)
(0.157789 0.00163859 0)
(0.155954 0.00156441 0)
(0.154144 0.00149366 0)
(0.152381 0.00142696 0)
(0.150641 0.00136326 0)
(0.148952 0.00130321 0)
(0.147284 0.00124576 0)
(0.145671 0.00119158 0)
(0.144074 0.00113937 0)
(0.142538 0.0010903 0)
(0.141012 0.00104256 0)
(0.139553 0.000997945 0)
(0.138097 0.00095414 0)
(0.136716 0.000913318 0)
(0.135329 0.000873014 0)
(0.134025 0.000835447 0)
(0.132704 0.000798016 0)
(0.131477 0.000763633 0)
(0.130221 0.000728664 0)
(0.129072 0.000696723 0)
(0.127878 0.000663752 0)
(0.126808 0.000634426 0)
(0.125675 0.000602954 0)
(0.124685 0.00057557 0)
(0.12361 0.000545918 0)
(0.122702 0.000520558 0)
(0.121682 0.000492055 0)
(0.120859 0.000468377 0)
(0.119891 0.000440726 0)
(0.119157 0.00041921 0)
(0.118235 0.000392879 0)
(0.117594 0.000373486 0)
(0.11671 0.000348012 0)
(0.116173 0.000330342 0)
(0.115314 0.000306171 0)
(0.11489 0.000292139 0)
(0.114038 0.000268957 0)
(0.113742 0.000259019 0)
(0.112872 0.000236736 0)
(0.112719 0.000231583 0)
(0.111802 0.000214263 0)
(0.194286 0.00745916 0)
(0.195158 0.00941434 0)
(0.196946 0.01056 0)
(0.199158 0.010425 0)
(0.200983 0.00952643 0)
(0.202043 0.00850488 0)
(0.202444 0.00768138 0)
(0.202487 0.00707261 0)
(0.202397 0.00659434 0)
(0.20226 0.00618501 0)
(0.202073 0.00582367 0)
(0.201813 0.00550682 0)
(0.20146 0.00522943 0)
(0.201015 0.00498316 0)
(0.200476 0.00475948 0)
(0.199848 0.00455308 0)
(0.199128 0.00436024 0)
(0.198323 0.00417903 0)
(0.19743 0.00400728 0)
(0.196457 0.00384408 0)
(0.195407 0.00368812 0)
(0.194289 0.00353955 0)
(0.193105 0.00339751 0)
(0.191866 0.00326226 0)
(0.190569 0.0031327 0)
(0.189226 0.00300875 0)
(0.187835 0.00288917 0)
(0.186411 0.00277422 0)
(0.18495 0.00266308 0)
(0.183469 0.00255665 0)
(0.181963 0.00245416 0)
(0.180449 0.00235667 0)
(0.178915 0.00226284 0)
(0.177384 0.00217355 0)
(0.175836 0.0020872 0)
(0.1743 0.00200475 0)
(0.172751 0.00192476 0)
(0.171226 0.00184866 0)
(0.169691 0.0017749 0)
(0.168189 0.00170501 0)
(0.166674 0.00163717 0)
(0.165203 0.00157296 0)
(0.163716 0.00151015 0)
(0.162282 0.00145099 0)
(0.160828 0.00139252 0)
(0.159439 0.00133789 0)
(0.158023 0.00128332 0)
(0.156683 0.0012327 0)
(0.155307 0.0011818 0)
(0.154023 0.00113468 0)
(0.15269 0.0010868 0)
(0.151464 0.00104327 0)
(0.150175 0.000997942 0)
(0.149011 0.000957123 0)
(0.147767 0.000913938 0)
(0.146671 0.000876165 0)
(0.145472 0.000834493 0)
(0.144447 0.000799041 0)
(0.143294 0.00075932 0)
(0.142344 0.000726329 0)
(0.141234 0.000687729 0)
(0.140367 0.000656922 0)
(0.139297 0.00061904 0)
(0.138518 0.00059105 0)
(0.137484 0.000554387 0)
(0.136802 0.000529343 0)
(0.135795 0.000493246 0)
(0.135222 0.000470773 0)
(0.13423 0.000435738 0)
(0.133779 0.000418213 0)
(0.132784 0.00038402 0)
(0.13247 0.000371804 0)
(0.131449 0.00033879 0)
(0.131288 0.000332352 0)
(0.130215 0.00030576 0)
(0.194852 0.00719675 0)
(0.195641 0.00877452 0)
(0.197111 0.00983835 0)
(0.198983 0.00989538 0)
(0.200643 0.00921492 0)
(0.201713 0.00832443 0)
(0.202205 0.00756492 0)
(0.202359 0.00699848 0)
(0.202387 0.00655872 0)
(0.202394 0.00618256 0)
(0.202389 0.00584587 0)
(0.202357 0.00554724 0)
(0.202277 0.0052861 0)
(0.20215 0.00505716 0)
(0.201973 0.00485239 0)
(0.201751 0.00466608 0)
(0.201478 0.00449378 0)
(0.201157 0.00433327 0)
(0.200778 0.0041819 0)
(0.200348 0.00403859 0)
(0.199859 0.00390145 0)
(0.199321 0.00377071 0)
(0.198725 0.00364524 0)
(0.198083 0.00352574 0)
(0.197384 0.00341086 0)
(0.19664 0.00330081 0)
(0.195839 0.00319369 0)
(0.194997 0.00308987 0)
(0.194101 0.00298785 0)
(0.193174 0.002889 0)
(0.192198 0.00279224 0)
(0.191202 0.0026996 0)
(0.190161 0.0026093 0)
(0.189107 0.00252305 0)
(0.188007 0.00243838 0)
(0.186903 0.00235691 0)
(0.185754 0.00227624 0)
(0.184614 0.00219893 0)
(0.183431 0.00212254 0)
(0.18227 0.00204998 0)
(0.181063 0.00197833 0)
(0.17989 0.00191047 0)
(0.178667 0.00184279 0)
(0.177491 0.0017791 0)
(0.17626 0.0017148 0)
(0.17509 0.00165492 0)
(0.173858 0.00159365 0)
(0.172704 0.0015372 0)
(0.171478 0.00147902 0)
(0.170349 0.00142574 0)
(0.169133 0.00137018 0)
(0.168036 0.00132043 0)
(0.166834 0.00126698 0)
(0.165774 0.00121968 0)
(0.164591 0.001168 0)
(0.163577 0.00112382 0)
(0.162415 0.00107324 0)
(0.161455 0.00103148 0)
(0.160315 0.00098261 0)
(0.159415 0.000943477 0)
(0.158297 0.000895271 0)
(0.157467 0.000858637 0)
(0.156372 0.000810767 0)
(0.15562 0.000777535 0)
(0.154541 0.00073042 0)
(0.153879 0.000700764 0)
(0.152811 0.000653608 0)
(0.152254 0.000627293 0)
(0.151185 0.000580882 0)
(0.150746 0.000560561 0)
(0.149662 0.000514809 0)
(0.149356 0.000500606 0)
(0.148239 0.00045641 0)
(0.148083 0.000448761 0)
(0.146908 0.000412303 0)
(0.195356 0.00694968 0)
(0.196073 0.00824517 0)
(0.197305 0.00918965 0)
(0.198887 0.00937177 0)
(0.200373 0.00888669 0)
(0.201416 0.00813296 0)
(0.20196 0.00744019 0)
(0.202175 0.00691019 0)
(0.202249 0.00650107 0)
(0.202299 0.00615233 0)
(0.202344 0.00583578 0)
(0.20238 0.00554978 0)
(0.202385 0.0052971 0)
(0.202366 0.00507607 0)
(0.202317 0.00487997 0)
(0.20225 0.00470337 0)
(0.202156 0.00454134 0)
(0.202043 0.0043917 0)
(0.201898 0.00425154 0)
(0.201732 0.00411995 0)
(0.201529 0.00399445 0)
(0.201303 0.00387552 0)
(0.201038 0.00376158 0)
(0.200751 0.00365384 0)
(0.200421 0.00355065 0)
(0.200068 0.00345278 0)
(0.199667 0.00335756 0)
(0.199241 0.00326562 0)
(0.198763 0.00317441 0)
(0.198265 0.00308572 0)
(0.197714 0.00299769 0)
(0.197152 0.00291344 0)
(0.196535 0.00283052 0)
(0.195913 0.00275186 0)
(0.195231 0.00267384 0)
(0.194549 0.00259892 0)
(0.193802 0.00252315 0)
(0.193065 0.00245042 0)
(0.192263 0.00237687 0)
(0.191484 0.00230724 0)
(0.190634 0.00223719 0)
(0.189821 0.00217127 0)
(0.188928 0.00210398 0)
(0.188086 0.00204115 0)
(0.187156 0.00197605 0)
(0.186293 0.00191606 0)
(0.185332 0.00185268 0)
(0.184456 0.00179506 0)
(0.183471 0.00173368 0)
(0.182594 0.00167842 0)
(0.181592 0.00161884 0)
(0.18072 0.0015668 0)
(0.179702 0.00150857 0)
(0.178843 0.00145829 0)
(0.177816 0.00140093 0)
(0.176978 0.00135348 0)
(0.175946 0.00129637 0)
(0.175141 0.00125116 0)
(0.174105 0.00119527 0)
(0.173339 0.00115261 0)
(0.1723 0.00109639 0)
(0.171585 0.00105606 0)
(0.170548 0.000999558 0)
(0.169896 0.000963312 0)
(0.168852 0.000906926 0)
(0.168271 0.000874413 0)
(0.167218 0.000816856 0)
(0.16673 0.00078813 0)
(0.165661 0.000731244 0)
(0.165275 0.000709232 0)
(0.164176 0.00065279 0)
(0.163906 0.000637018 0)
(0.162768 0.000582393 0)
(0.162632 0.000573834 0)
(0.161434 0.000528188 0)
(0.195808 0.00670981 0)
(0.196459 0.00779773 0)
(0.19751 0.00862053 0)
(0.198851 0.00887387 0)
(0.200167 0.00855276 0)
(0.201163 0.00793513 0)
(0.201738 0.00731381 0)
(0.202001 0.00681835 0)
(0.202108 0.00643496 0)
(0.202179 0.00611071 0)
(0.20224 0.00581388 0)
(0.202297 0.00554043 0)
(0.202329 0.00529467 0)
(0.202344 0.0050784 0)
(0.202334 0.00488668 0)
(0.202316 0.00471489 0)
(0.20228 0.00455771 0)
(0.202242 0.00441318 0)
(0.202183 0.00427813 0)
(0.202121 0.00415219 0)
(0.202035 0.00403226 0)
(0.201946 0.00391934 0)
(0.20183 0.00381127 0)
(0.201713 0.00370988 0)
(0.201566 0.0036131 0)
(0.201417 0.00352264 0)
(0.201231 0.00343497 0)
(0.201042 0.00335138 0)
(0.200809 0.00326813 0)
(0.200576 0.00318754 0)
(0.200294 0.00310657 0)
(0.200019 0.00302965 0)
(0.19969 0.00295323 0)
(0.199373 0.00288191 0)
(0.198995 0.00281076 0)
(0.198632 0.00274348 0)
(0.198197 0.00267405 0)
(0.197787 0.00260791 0)
(0.197298 0.00253926 0)
(0.196847 0.00247491 0)
(0.19631 0.00240889 0)
(0.195822 0.00234786 0)
(0.195236 0.00228385 0)
(0.194713 0.00222514 0)
(0.194082 0.00216246 0)
(0.193528 0.00210595 0)
(0.192851 0.00204383 0)
(0.192272 0.00198873 0)
(0.191555 0.00192748 0)
(0.190958 0.00187369 0)
(0.190206 0.00181324 0)
(0.1896 0.00176247 0)
(0.188814 0.00170273 0)
(0.188202 0.00165293 0)
(0.187386 0.00159287 0)
(0.186777 0.00154545 0)
(0.185933 0.0014845 0)
(0.185338 0.00143881 0)
(0.184472 0.00137857 0)
(0.183897 0.00133554 0)
(0.183004 0.00127378 0)
(0.182457 0.00123202 0)
(0.181549 0.00116881 0)
(0.181049 0.00113215 0)
(0.180115 0.00106892 0)
(0.179662 0.00103581 0)
(0.178697 0.00096949 0)
(0.178317 0.000939668 0)
(0.177328 0.00087447 0)
(0.177027 0.000852091 0)
(0.175996 0.000787316 0)
(0.175781 0.00077049 0)
(0.174706 0.000707161 0)
(0.174602 0.000698027 0)
(0.173469 0.000645219 0)
(0.196214 0.00647894 0)
(0.196804 0.00741089 0)
(0.197711 0.0081261 0)
(0.198857 0.00841219 0)
(0.200014 0.00822036 0)
(0.200947 0.00773065 0)
(0.201536 0.00718477 0)
(0.201841 0.00672477 0)
(0.201979 0.00636397 0)
(0.202066 0.00606166 0)
(0.202136 0.00578459 0)
(0.202204 0.00552515 0)
(0.202248 0.00528729 0)
(0.202277 0.00507565 0)
(0.20228 0.00488719 0)
(0.202279 0.00471865 0)
(0.202259 0.00456441 0)
(0.202244 0.00442273 0)
(0.202212 0.00429009 0)
(0.202186 0.00416688 0)
(0.20214 0.00404933 0)
(0.202102 0.00393914 0)
(0.202042 0.00383349 0)
(0.201993 0.0037349 0)
(0.201918 0.00364068 0)
(0.201858 0.00355373 0)
(0.201766 0.00346954 0)
(0.20169 0.00339046 0)
(0.201575 0.00331156 0)
(0.201478 0.00323594 0)
(0.201336 0.00315902 0)
(0.201217 0.00308683 0)
(0.201047 0.00301425 0)
(0.200909 0.00294785 0)
(0.200709 0.00288131 0)
(0.200545 0.00282003 0)
(0.200308 0.00275558 0)
(0.200114 0.00269528 0)
(0.199836 0.00263098 0)
(0.199614 0.00257158 0)
(0.1993 0.00250938 0)
(0.199052 0.00245353 0)
(0.198697 0.00239321 0)
(0.198421 0.00233935 0)
(0.198026 0.00227999 0)
(0.197724 0.00222833 0)
(0.197285 0.00216881 0)
(0.196959 0.00211797 0)
(0.196477 0.00205864 0)
(0.19613 0.0020082 0)
(0.19561 0.00194857 0)
(0.195251 0.00190115 0)
(0.194691 0.00184217 0)
(0.194316 0.00179522 0)
(0.193717 0.00173463 0)
(0.193337 0.00168977 0)
(0.192699 0.00162727 0)
(0.19232 0.00158323 0)
(0.191651 0.00152092 0)
(0.191279 0.00148021 0)
(0.190569 0.00141584 0)
(0.190204 0.00137462 0)
(0.189466 0.00130643 0)
(0.189136 0.0012713 0)
(0.188364 0.00120426 0)
(0.188058 0.00117301 0)
(0.187237 0.00110042 0)
(0.186979 0.0010701 0)
(0.186134 0.000999302 0)
(0.185931 0.000977697 0)
(0.185039 0.000908054 0)
(0.184888 0.000890922 0)
(0.183946 0.000821158 0)
(0.183879 0.000811452 0)
(0.182889 0.000754445 0)
(0.196577 0.0062604 0)
(0.197113 0.0070699 0)
(0.197903 0.00769543 0)
(0.19889 0.00799005 0)
(0.199904 0.00789481 0)
(0.200767 0.00751904 0)
(0.201354 0.00705034 0)
(0.201691 0.00662859 0)
(0.201857 0.00628911 0)
(0.201962 0.00600636 0)
(0.202039 0.00574852 0)
(0.202115 0.00550443 0)
(0.202166 0.0052761 0)
(0.202206 0.00507006 0)
(0.202215 0.00488502 0)
(0.202223 0.00471952 0)
(0.20221 0.00456783 0)
(0.202204 0.0044285 0)
(0.202179 0.00429742 0)
(0.202166 0.00417601 0)
(0.202132 0.00405962 0)
(0.202112 0.00395089 0)
(0.202069 0.00384623 0)
(0.202044 0.0037489 0)
(0.201994 0.00365529 0)
(0.201966 0.00356977 0)
(0.201909 0.00348662 0)
(0.201878 0.00340951 0)
(0.20181 0.00333237 0)
(0.201772 0.00325938 0)
(0.201691 0.0031841 0)
(0.201646 0.00311448 0)
(0.201549 0.00304342 0)
(0.201498 0.00297954 0)
(0.201387 0.00291507 0)
(0.201327 0.0028575 0)
(0.201194 0.00279583 0)
(0.201121 0.00273953 0)
(0.200963 0.00267805 0)
(0.200875 0.00262206 0)
(0.200694 0.00256218 0)
(0.200594 0.00251034 0)
(0.200385 0.00245272 0)
(0.200269 0.00240277 0)
(0.200032 0.002346 0)
(0.199901 0.00229884 0)
(0.199629 0.00224164 0)
(0.199482 0.00219498 0)
(0.199176 0.00213795 0)
(0.199012 0.00209121 0)
(0.198673 0.00203266 0)
(0.198501 0.001989 0)
(0.198127 0.0019317 0)
(0.197941 0.00188857 0)
(0.197528 0.00182841 0)
(0.197336 0.00178729 0)
(0.196884 0.00172487 0)
(0.196686 0.00168336 0)
(0.196203 0.00162025 0)
(0.196008 0.00158323 0)
(0.195483 0.00151904 0)
(0.195278 0.00147987 0)
(0.194718 0.00140791 0)
(0.194542 0.00137484 0)
(0.193951 0.00130664 0)
(0.193782 0.00127934 0)
(0.193133 0.00120366 0)
(0.192984 0.00117265 0)
(0.192316 0.00109862 0)
(0.192206 0.00107827 0)
(0.191494 0.00100744 0)
(0.191405 0.000991109 0)
(0.190638 0.000917415 0)
(0.190604 0.000906564 0)
(0.189806 0.000848428 0)
(0.196903 0.00605585 0)
(0.19739 0.0067652 0)
(0.198083 0.00731699 0)
(0.198939 0.0076068 0)
(0.199828 0.00758083 0)
(0.200617 0.00730209 0)
(0.20119 0.00690918 0)
(0.201548 0.00652894 0)
(0.20174 0.00621119 0)
(0.201862 0.00594609 0)
(0.201947 0.00570632 0)
(0.202029 0.00547823 0)
(0.202086 0.00526092 0)
(0.202134 0.00506175 0)
(0.202151 0.00488074 0)
(0.202165 0.00471848 0)
(0.202156 0.00456941 0)
(0.202155 0.00443251 0)
(0.202135 0.0043029 0)
(0.202127 0.00418318 0)
(0.202097 0.00406768 0)
(0.202085 0.00396006 0)
(0.202047 0.00385601 0)
(0.202031 0.00375951 0)
(0.201987 0.00366585 0)
(0.201971 0.00358096 0)
(0.201924 0.00349776 0)
(0.201909 0.00342133 0)
(0.201858 0.00334458 0)
(0.201843 0.00327291 0)
(0.201784 0.00319793 0)
(0.201769 0.00312965 0)
(0.201701 0.00305882 0)
(0.201686 0.00299593 0)
(0.201613 0.00293179 0)
(0.201599 0.00287611 0)
(0.201514 0.00281542 0)
(0.201498 0.00276133 0)
(0.2014 0.00270131 0)
(0.201377 0.00264723 0)
(0.201266 0.00258816 0)
(0.201242 0.00253881 0)
(0.201114 0.00248262 0)
(0.201084 0.00243511 0)
(0.20094 0.00237967 0)
(0.200905 0.00233588 0)
(0.200736 0.00228002 0)
(0.200695 0.00223642 0)
(0.200504 0.0021812 0)
(0.200453 0.00213762 0)
(0.200236 0.00207966 0)
(0.200184 0.00203896 0)
(0.199942 0.00198332 0)
(0.19988 0.00194386 0)
(0.199607 0.0018841 0)
(0.199544 0.00184657 0)
(0.199239 0.00178521 0)
(0.199166 0.00174612 0)
(0.198836 0.00168257 0)
(0.198768 0.00164899 0)
(0.198406 0.00158698 0)
(0.198319 0.00155098 0)
(0.197916 0.0014761 0)
(0.197853 0.0014443 0)
(0.197433 0.00137644 0)
(0.197371 0.0013542 0)
(0.196891 0.00127886 0)
(0.196824 0.00124658 0)
(0.196332 0.00117089 0)
(0.196293 0.00115144 0)
(0.195768 0.00108228 0)
(0.19573 0.00106803 0)
(0.195147 0.000992964 0)
(0.195136 0.000979984 0)
(0.19454 0.000923037 0)
(0.197197 0.00586525 0)
(0.197639 0.00649054 0)
(0.19825 0.00698122 0)
(0.198997 0.00725982 0)
(0.199778 0.00728222 0)
(0.200495 0.0070832 0)
(0.201042 0.00676162 0)
(0.201413 0.00642534 0)
(0.201626 0.00613084 0)
(0.201764 0.00588223 0)
(0.201857 0.00565902 0)
(0.201945 0.00544684 0)
(0.202007 0.0052416 0)
(0.202063 0.00505055 0)
(0.202086 0.00487434 0)
(0.202107 0.00471567 0)
(0.202102 0.00456939 0)
(0.202105 0.00443512 0)
(0.202088 0.00430709 0)
(0.202084 0.00418921 0)
(0.202057 0.00407467 0)
(0.202048 0.00396815 0)
(0.202014 0.00386471 0)
(0.202001 0.00376906 0)
(0.20196 0.00367524 0)
(0.201948 0.00359077 0)
(0.201904 0.0035072 0)
(0.201895 0.00343088 0)
(0.201849 0.00335392 0)
(0.201842 0.00328302 0)
(0.201791 0.00320771 0)
(0.201787 0.00314026 0)
(0.20173 0.00306919 0)
(0.201728 0.00300658 0)
(0.201668 0.00294189 0)
(0.201671 0.00288702 0)
(0.201606 0.00282625 0)
(0.201612 0.00277306 0)
(0.201541 0.00271372 0)
(0.201545 0.00266053 0)
(0.201468 0.00260129 0)
(0.201475 0.00255321 0)
(0.201389 0.00249753 0)
(0.201396 0.00245122 0)
(0.201301 0.00239599 0)
(0.201311 0.00235443 0)
(0.2012 0.00229899 0)
(0.20121 0.00225708 0)
(0.201087 0.00220295 0)
(0.201093 0.00216173 0)
(0.200952 0.00210374 0)
(0.200962 0.00206479 0)
(0.200806 0.00201031 0)
(0.200811 0.00197382 0)
(0.200632 0.00191402 0)
(0.20064 0.00187902 0)
(0.200441 0.00181922 0)
(0.200439 0.00178201 0)
(0.200221 0.00171795 0)
(0.200226 0.00168648 0)
(0.19999 0.00162749 0)
(0.199976 0.00159534 0)
(0.199699 0.00151839 0)
(0.199702 0.00148638 0)
(0.19942 0.00141924 0)
(0.199427 0.00140186 0)
(0.199095 0.00132989 0)
(0.199076 0.00129596 0)
(0.198737 0.00121937 0)
(0.198741 0.00119987 0)
(0.198382 0.00113385 0)
(0.198378 0.00112268 0)
(0.197962 0.00104862 0)
(0.197962 0.00103263 0)
(0.197547 0.000978002 0)
(0.197463 0.00568766 0)
(0.197864 0.0062416 0)
(0.198405 0.00668083 0)
(0.19906 0.0069457 0)
(0.199748 0.00700129 0)
(0.200396 0.00686613 0)
(0.200913 0.00660907 0)
(0.201285 0.0063176 0)
(0.201515 0.00604826 0)
(0.201668 0.00581582 0)
(0.20177 0.00560774 0)
(0.201861 0.0054108 0)
(0.201928 0.00521814 0)
(0.201989 0.00503627 0)
(0.202019 0.00486572 0)
(0.202046 0.00471106 0)
(0.202046 0.00456778 0)
(0.202054 0.00443635 0)
(0.202039 0.00431006 0)
(0.202039 0.0041942 0)
(0.202015 0.00408079 0)
(0.202008 0.00397546 0)
(0.201977 0.00387275 0)
(0.201966 0.00377803 0)
(0.201928 0.00368414 0)
(0.201918 0.0036001 0)
(0.201876 0.00351617 0)
(0.201867 0.00343975 0)
(0.201825 0.00336235 0)
(0.20182 0.003292 0)
(0.201774 0.00321617 0)
(0.201772 0.00314932 0)
(0.201721 0.00307799 0)
(0.201721 0.00301539 0)
(0.201668 0.00294987 0)
(0.201674 0.00289524 0)
(0.201619 0.00283395 0)
(0.20163 0.0027808 0)
(0.201573 0.00272181 0)
(0.201584 0.00266897 0)
(0.201524 0.00260918 0)
(0.201539 0.00256154 0)
(0.201475 0.00250594 0)
(0.201493 0.00246002 0)
(0.201424 0.00240432 0)
(0.201448 0.00236414 0)
(0.201369 0.00230858 0)
(0.201396 0.00226722 0)
(0.201313 0.00221356 0)
(0.20134 0.00217398 0)
(0.201244 0.00211566 0)
(0.201276 0.00207731 0)
(0.201173 0.00202346 0)
(0.201206 0.00198913 0)
(0.201086 0.00192895 0)
(0.201124 0.00189509 0)
(0.200995 0.001837 0)
(0.201024 0.0018011 0)
(0.200882 0.00173652 0)
(0.200917 0.00170553 0)
(0.200769 0.00164934 0)
(0.200792 0.00162124 0)
(0.200605 0.00154318 0)
(0.200637 0.0015097 0)
(0.200455 0.00144294 0)
(0.200495 0.00142914 0)
(0.200278 0.00136252 0)
(0.200283 0.00132704 0)
(0.200058 0.0012499 0)
(0.200082 0.00122935 0)
(0.199849 0.00116659 0)
(0.199865 0.00115887 0)
(0.199582 0.00108767 0)
(0.199586 0.00106835 0)
(0.19931 0.00101611 0)
(0.197703 0.00552196 0)
(0.198069 0.00601505 0)
(0.198548 0.0064104 0)
(0.199126 0.00666087 0)
(0.199733 0.00673895 0)
(0.200317 0.00665409 0)
(0.2008 0.00645352 0)
(0.201167 0.00620591 0)
(0.201408 0.00596339 0)
(0.201573 0.00574746 0)
(0.201683 0.00555342 0)
(0.201779 0.00537074 0)
(0.20185 0.00519072 0)
(0.201915 0.00501879 0)
(0.201951 0.00485472 0)
(0.201982 0.00470461 0)
(0.201988 0.00456456 0)
(0.201999 0.00443616 0)
(0.201988 0.00431179 0)
(0.201991 0.00419811 0)
(0.20197 0.00408606 0)
(0.201965 0.00398201 0)
(0.201937 0.00388014 0)
(0.201928 0.00378645 0)
(0.201893 0.00369265 0)
(0.201883 0.00360906 0)
(0.201844 0.00352488 0)
(0.201835 0.00344833 0)
(0.201797 0.00337044 0)
(0.201791 0.00330052 0)
(0.201748 0.00322416 0)
(0.201746 0.00315779 0)
(0.2017 0.0030863 0)
(0.201699 0.00302368 0)
(0.201651 0.00295733 0)
(0.201655 0.0029026 0)
(0.201607 0.00284077 0)
(0.201616 0.00278711 0)
(0.201568 0.00272838 0)
(0.201578 0.00267562 0)
(0.201528 0.00261527 0)
(0.201542 0.00256758 0)
(0.201491 0.00251191 0)
(0.201507 0.00246599 0)
(0.201454 0.00240951 0)
(0.201477 0.00237012 0)
(0.201418 0.00231427 0)
(0.201445 0.00227273 0)
(0.201385 0.00221911 0)
(0.201416 0.00218064 0)
(0.201346 0.00212199 0)
(0.201381 0.00208351 0)
(0.201309 0.00202984 0)
(0.201347 0.00199698 0)
(0.201264 0.00193634 0)
(0.201307 0.00190241 0)
(0.201222 0.00184592 0)
(0.201259 0.00181092 0)
(0.201164 0.00174604 0)
(0.201205 0.00171432 0)
(0.201112 0.00166002 0)
(0.201148 0.00163563 0)
(0.201023 0.00155752 0)
(0.201062 0.00152196 0)
(0.200944 0.00145516 0)
(0.200992 0.00144312 0)
(0.200855 0.00138249 0)
(0.200869 0.00134604 0)
(0.200722 0.00126865 0)
(0.200749 0.00124641 0)
(0.200601 0.00118619 0)
(0.200625 0.00118156 0)
(0.200439 0.00111428 0)
(0.200441 0.00109204 0)