/*--------------------------------*- C++ -*----------------------------------*\
| =========                 |                                                 |
| \\      /  F ield         | OpenFOAM: The Open Source CFD Toolbox           |
|  \\    /   O peration     | Version:  2.3.0                                 |
|   \\  /    A nd           | Web:      www.OpenFOAM.org                      |
|    \\/     M anipulation  |                                                 |
\*---------------------------------------------------------------------------*/
FoamFile
{
    version     2.0;
    format      ascii;
    class       surfaceScalarField;
    location    "0.05";
    object      phi;
}
// * * * * * * * * * * * * * * * * * * * * * * * * * * * * * * * * * * * * * //

dimensions      [0 3 -1 0 0 0 0];

internalField   nonuniform List<scalar> 
1660
(
6.41118e-08
2.29235e-09
-6.64042e-08
6.04047e-08
3.70714e-09
5.61604e-08
4.2443e-09
5.24602e-08
3.70012e-09
4.92739e-08
3.1864e-09
4.58335e-08
3.44037e-09
4.21124e-08
3.72108e-09
3.88802e-08
3.23217e-09
3.67123e-08
2.16792e-09
3.55877e-08
1.12459e-09
3.51612e-08
4.26492e-10
3.5081e-08
8.01851e-11
3.51208e-08
-3.97972e-11
3.51726e-08
-5.17187e-11
3.52054e-08
-3.27954e-11
3.52201e-08
-1.47171e-11
3.52235e-08
-3.46237e-12
3.52212e-08
2.31247e-12
3.52164e-08
4.82944e-12
3.52108e-08
5.63576e-12
3.52051e-08
5.64394e-12
3.51998e-08
5.30946e-12
3.5195e-08
4.8415e-12
3.51906e-08
4.33477e-12
3.51868e-08
3.83406e-12
3.51834e-08
3.36112e-12
3.51805e-08
2.92607e-12
3.5178e-08
2.53279e-12
3.51758e-08
2.18171e-12
3.51739e-08
1.87128e-12
3.51723e-08
1.59886e-12
3.5171e-08
1.36124e-12
3.51698e-08
1.15505e-12
3.51688e-08
9.76973e-13
3.5168e-08
8.23827e-13
3.51673e-08
6.92639e-13
3.51667e-08
5.80663e-13
3.51662e-08
4.8541e-13
3.51658e-08
4.04673e-13
3.51655e-08
3.36441e-13
3.51652e-08
2.79125e-13
3.5165e-08
2.30825e-13
3.51648e-08
1.91184e-13
3.51646e-08
1.56763e-13
3.51645e-08
1.3168e-13
3.51644e-08
1.04744e-13
3.51643e-08
9.46142e-14
3.51642e-08
6.94457e-14
3.51642e-08
7.31721e-14
5.82869e-14
7.31283e-08
1.98447e-09
-7.28204e-08
7.34112e-08
3.42424e-09
7.31337e-08
4.52179e-09
7.25374e-08
4.29641e-09
7.2005e-08
3.7188e-09
7.14247e-08
4.02065e-09
7.06004e-08
4.54538e-09
6.96873e-08
4.14533e-09
6.89695e-08
2.88568e-09
6.85489e-08
1.54519e-09
6.83665e-08
6.08918e-10
6.83212e-08
1.25493e-10
6.83362e-08
-5.47852e-11
6.83574e-08
-7.28898e-11
6.83645e-08
-3.99793e-11
6.8357e-08
-7.19064e-12
6.83396e-08
1.39545e-11
6.83177e-08
2.42367e-11
6.82949e-08
2.76136e-11
6.82732e-08
2.73429e-11
6.82534e-08
2.54433e-11
6.82357e-08
2.29651e-11
6.82202e-08
2.03936e-11
6.82066e-08
1.79356e-11
6.81947e-08
1.56719e-11
6.81845e-08
1.36273e-11
6.81756e-08
1.18019e-11
6.81679e-08
1.01851e-11
6.81614e-08
8.76157e-12
6.81557e-08
7.51432e-12
6.81509e-08
6.42604e-12
6.81468e-08
5.47997e-12
6.81433e-08
4.66031e-12
6.81403e-08
3.95247e-12
6.81378e-08
3.34311e-12
6.81356e-08
2.82013e-12
6.81338e-08
2.37259e-12
6.81323e-08
1.99073e-12
6.81311e-08
1.66592e-12
6.813e-08
1.39031e-12
6.81291e-08
1.15766e-12
6.81284e-08
9.60582e-13
6.81278e-08
7.97765e-13
6.81273e-08
6.55274e-13
6.81269e-08
5.50022e-13
6.81266e-08
4.37473e-13
6.81263e-08
3.87658e-13
6.81261e-08
2.84464e-13
6.81258e-08
2.8014e-13
2.11755e-13
7.90719e-08
2.01102e-09
-7.90984e-08
7.95336e-08
2.9625e-09
8.00885e-08
3.9669e-09
8.0301e-08
4.08393e-09
8.03492e-08
3.6706e-09
8.05852e-08
3.78468e-09
8.09244e-08
4.20609e-09
8.11216e-08
3.94816e-09
8.11135e-08
2.8938e-09
8.09703e-08
1.68843e-09
8.07724e-08
8.06754e-10
8.05808e-08
3.17146e-10
8.04206e-08
1.05375e-10
8.03007e-08
4.70092e-11
8.02127e-08
4.8071e-11
8.01453e-08
6.0216e-11
8.00913e-08
6.79679e-11
8.00462e-08
6.92597e-11
8.00078e-08
6.60922e-11
7.99745e-08
6.0639e-11
7.99455e-08
5.4379e-11
7.99204e-08
4.81235e-11
7.98985e-08
4.22463e-11
7.98796e-08
3.68884e-11
7.98631e-08
3.20815e-11
7.9849e-08
2.7809e-11
7.98367e-08
2.40347e-11
7.98262e-08
2.07157e-11
7.98172e-08
1.78078e-11
7.98094e-08
1.52684e-11
7.98028e-08
1.30577e-11
7.97971e-08
1.11384e-11
7.97923e-08
9.47693e-12
7.97882e-08
8.04255e-12
7.97847e-08
6.80765e-12
7.97818e-08
5.74741e-12
7.97793e-08
4.83964e-12
7.97773e-08
4.06452e-12
7.97755e-08
3.40466e-12
7.97741e-08
2.84414e-12
7.97729e-08
2.37063e-12
7.97719e-08
1.96858e-12
7.9771e-08
1.63673e-12
7.97703e-08
1.34441e-12
7.97697e-08
1.12948e-12
7.97693e-08
8.98298e-13
7.97689e-08
7.91595e-13
7.97686e-08
5.87256e-13
7.97683e-08
5.63343e-13
4.15753e-13
8.56868e-08
2.06101e-09
-8.57368e-08
8.59444e-08
2.70489e-09
8.65494e-08
3.36183e-09
8.69503e-08
3.68312e-09
8.70534e-08
3.56748e-09
8.72969e-08
3.54118e-09
8.7795e-08
3.70798e-09
8.82452e-08
3.49794e-09
8.84238e-08
2.71523e-09
8.83509e-08
1.76134e-09
8.81436e-08
1.01402e-09
8.79042e-08
5.56507e-10
8.76934e-08
3.16238e-10
8.75332e-08
2.07182e-10
8.74172e-08
1.64026e-10
8.73314e-08
1.46029e-10
8.72649e-08
1.34442e-10
8.72111e-08
1.23156e-10
8.71659e-08
1.1125e-10
8.71273e-08
9.92125e-11
8.70941e-08
8.76325e-11
8.70653e-08
7.68909e-11
8.70404e-08
6.71524e-11
8.70188e-08
5.84421e-11
8.70002e-08
5.07148e-11
8.69841e-08
4.38956e-11
8.69703e-08
3.79005e-11
8.69583e-08
3.26459e-11
8.69481e-08
2.80528e-11
8.69393e-08
2.40482e-11
8.69318e-08
2.05654e-11
8.69254e-08
1.7544e-11
8.69199e-08
1.49295e-11
8.69153e-08
1.26728e-11
8.69114e-08
1.073e-11
8.69081e-08
9.06174e-12
8.69053e-08
7.63315e-12
8.69029e-08
6.41299e-12
8.6901e-08
5.37396e-12
8.68993e-08
4.49095e-12
8.68979e-08
3.74484e-12
8.68968e-08
3.11067e-12
8.68958e-08
2.58749e-12
8.68951e-08
2.1255e-12
8.68944e-08
1.7861e-12
8.68939e-08
1.42125e-12
8.68934e-08
1.24873e-12
8.68931e-08
9.32271e-13
8.68928e-08
8.82846e-13
6.42508e-13
9.28553e-08
2.02015e-09
-9.28144e-08
9.30281e-08
2.53213e-09
9.34627e-08
2.92718e-09
9.38779e-08
3.26792e-09
9.40791e-08
3.36634e-09
9.4317e-08
3.30326e-09
9.4747e-08
3.27798e-09
9.5157e-08
3.08795e-09
9.53361e-08
2.53611e-09
9.52928e-08
1.80466e-09
9.51307e-08
1.17609e-09
9.49332e-08
7.53971e-10
9.47474e-08
5.02068e-10
9.45941e-08
3.60496e-10
9.44749e-08
2.83207e-10
9.43826e-08
2.38295e-10
9.43096e-08
2.07459e-10
9.42502e-08
1.82569e-10
9.42007e-08
1.6078e-10
9.41587e-08
1.41226e-10
9.41227e-08
1.23646e-10
9.40916e-08
1.07928e-10
9.40648e-08
9.39624e-11
9.40416e-08
8.16133e-11
9.40216e-08
7.0732e-11
9.40044e-08
6.11699e-11
9.39895e-08
5.27865e-11
9.39767e-08
4.54522e-11
9.39657e-08
3.90492e-11
9.39562e-08
3.34714e-11
9.39482e-08
2.86232e-11
9.39413e-08
2.44189e-11
9.39355e-08
2.07814e-11
9.39305e-08
1.76421e-11
9.39263e-08
1.49395e-11
9.39227e-08
1.26189e-11
9.39197e-08
1.06313e-11
9.39172e-08
8.93357e-12
9.39151e-08
7.48761e-12
9.39133e-08
6.25851e-12
9.39118e-08
5.21983e-12
9.39106e-08
4.33659e-12
9.39096e-08
3.60793e-12
9.39088e-08
2.96415e-12
9.39081e-08
2.49053e-12
9.39075e-08
1.98315e-12
9.3907e-08
1.73886e-12
9.39066e-08
1.30246e-12
9.39063e-08
1.22543e-12
8.84001e-13
1.0053e-07
1.92624e-09
-1.00436e-07
1.00683e-07
2.37924e-09
1.00982e-07
2.62815e-09
1.01362e-07
2.88827e-09
1.01642e-07
3.08637e-09
1.01872e-07
3.07232e-09
1.02195e-07
2.95546e-09
1.02527e-07
2.75599e-09
1.02707e-07
2.35634e-09
1.02707e-07
1.80478e-09
1.02595e-07
1.28737e-09
1.0244e-07
9.09632e-10
1.0228e-07
6.61519e-10
1.02139e-07
5.01941e-10
1.02022e-07
3.9951e-10
1.01929e-07
3.31748e-10
1.01853e-07
2.8313e-10
1.01791e-07
2.44926e-10
1.01739e-07
2.13057e-10
1.01694e-07
1.8565e-10
1.01656e-07
1.61736e-10
1.01623e-07
1.4075e-10
1.01595e-07
1.22309e-10
1.01571e-07
1.0611e-10
1.01549e-07
9.18933e-11
1.01531e-07
7.94319e-11
1.01515e-07
6.85242e-11
1.01502e-07
5.89917e-11
1.0149e-07
5.06756e-11
1.0148e-07
4.34348e-11
1.01472e-07
3.71431e-11
1.01464e-07
3.1688e-11
1.01458e-07
2.69691e-11
1.01453e-07
2.28967e-11
1.01449e-07
1.93908e-11
1.01445e-07
1.63802e-11
1.01442e-07
1.38017e-11
1.01439e-07
1.15989e-11
1.01437e-07
9.72264e-12
1.01435e-07
8.12759e-12
1.01433e-07
6.77951e-12
1.01432e-07
5.63297e-12
1.01431e-07
4.68689e-12
1.0143e-07
3.85118e-12
1.01429e-07
3.23509e-12
1.01429e-07
2.5777e-12
1.01428e-07
2.25671e-12
1.01428e-07
1.69338e-12
1.01427e-07
1.58749e-12
1.13814e-12
1.08767e-07
1.82615e-09
-1.08667e-07
1.08936e-07
2.21094e-09
1.09152e-07
2.41166e-09
1.09453e-07
2.58698e-09
1.09749e-07
2.79089e-09
1.09991e-07
2.83052e-09
1.10253e-07
2.69296e-09
1.10523e-07
2.48594e-09
1.10694e-07
2.18603e-09
1.10719e-07
1.77904e-09
1.10643e-07
1.36328e-09
1.10522e-07
1.03089e-09
1.1039e-07
7.9352e-10
1.10266e-07
6.2629e-10
1.10158e-07
5.07729e-10
1.10067e-07
4.22652e-10
1.09991e-07
3.59042e-10
1.09927e-07
3.08721e-10
1.09873e-07
2.6714e-10
1.09827e-07
2.31862e-10
1.09787e-07
2.01458e-10
1.09753e-07
1.75018e-10
1.09723e-07
1.51923e-10
1.09697e-07
1.31712e-10
1.09675e-07
1.14017e-10
1.09656e-07
9.85293e-11
1.0964e-07
8.49852e-11
1.09626e-07
7.31558e-11
1.09613e-07
6.284e-11
1.09603e-07
5.38602e-11
1.09594e-07
4.60587e-11
1.09586e-07
3.92952e-11
1.0958e-07
3.34448e-11
1.09574e-07
2.83959e-11
1.0957e-07
2.40494e-11
1.09566e-07
2.03168e-11
1.09563e-07
1.71198e-11
1.0956e-07
1.43885e-11
1.09557e-07
1.20619e-11
1.09555e-07
1.00838e-11
1.09554e-07
8.41193e-12
1.09553e-07
6.98987e-12
1.09551e-07
5.81608e-12
1.0955e-07
4.77973e-12
1.0955e-07
4.01412e-12
1.09549e-07
3.20018e-12
1.09549e-07
2.79837e-12
1.09548e-07
2.10198e-12
1.09548e-07
1.96615e-12
1.40316e-12
1.17641e-07
1.74244e-09
-1.17557e-07
1.17805e-07
2.04716e-09
1.17982e-07
2.23419e-09
1.18215e-07
2.35432e-09
1.18494e-07
2.51161e-09
1.18747e-07
2.57735e-09
1.18972e-07
2.46848e-09
1.19182e-07
2.27559e-09
1.1933e-07
2.03816e-09
1.19374e-07
1.73563e-09
1.1933e-07
1.40685e-09
1.19241e-07
1.11994e-09
1.19135e-07
8.99056e-10
1.19029e-07
7.32513e-10
1.18931e-07
6.05734e-10
1.18845e-07
5.08765e-10
1.18771e-07
4.33225e-10
1.18707e-07
3.72372e-10
1.18653e-07
3.21827e-10
1.18605e-07
2.78975e-10
1.18565e-07
2.42151e-10
1.1853e-07
2.10227e-10
1.18499e-07
1.82407e-10
1.18473e-07
1.581e-10
1.1845e-07
1.36839e-10
1.1843e-07
1.18241e-10
1.18413e-07
1.01983e-10
1.18399e-07
8.77868e-11
1.18386e-07
7.54083e-11
1.18375e-07
6.46337e-11
1.18366e-07
5.52732e-11
1.18358e-07
4.71582e-11
1.18351e-07
4.01387e-11
1.18346e-07
3.40807e-11
1.18341e-07
2.88654e-11
1.18337e-07
2.43865e-11
1.18333e-07
2.05501e-11
1.18331e-07
1.72724e-11
1.18328e-07
1.44803e-11
1.18326e-07
1.21063e-11
1.18324e-07
1.00996e-11
1.18323e-07
8.39274e-12
1.18322e-07
6.98344e-12
1.18321e-07
5.73981e-12
1.1832e-07
4.81933e-12
1.18319e-07
3.8438e-12
1.18319e-07
3.3581e-12
1.18318e-07
2.52388e-12
1.18318e-07
2.35725e-12
1.67635e-12
1.2721e-07
1.67545e-09
-1.27143e-07
1.27354e-07
1.90253e-09
1.27518e-07
2.07075e-09
1.27708e-07
2.16467e-09
1.27946e-07
2.27354e-09
1.28183e-07
2.33956e-09
1.28382e-07
2.27027e-09
1.2855e-07
2.1073e-09
1.28676e-07
1.91192e-09
1.2873e-07
1.68151e-09
1.28713e-07
1.42445e-09
1.2865e-07
1.18224e-09
1.28568e-07
9.81519e-10
1.28479e-07
8.20982e-10
1.28393e-07
6.9185e-10
1.28314e-07
5.8781e-10
1.28244e-07
5.03548e-10
1.28182e-07
4.341e-10
1.28128e-07
3.75712e-10
1.28081e-07
3.25896e-10
1.28041e-07
2.82962e-10
1.28005e-07
2.45699e-10
1.27974e-07
2.13211e-10
1.27948e-07
1.84818e-10
1.27924e-07
1.59979e-10
1.27904e-07
1.38248e-10
1.27887e-07
1.19248e-10
1.27872e-07
1.02655e-10
1.2786e-07
8.81851e-11
1.27849e-07
7.55888e-11
1.27839e-07
6.46448e-11
1.27831e-07
5.51564e-11
1.27824e-07
4.69483e-11
1.27819e-07
3.98643e-11
1.27814e-07
3.37652e-11
1.2781e-07
2.85273e-11
1.27806e-07
2.40405e-11
1.27803e-07
2.02069e-11
1.27801e-07
1.69411e-11
1.27799e-07
1.41643e-11
1.27797e-07
1.18168e-11
1.27795e-07
9.82023e-12
1.27794e-07
8.17121e-12
1.27793e-07
6.71678e-12
1.27793e-07
5.6385e-12
1.27792e-07
4.4987e-12
1.27791e-07
3.92737e-12
1.27791e-07
2.95271e-12
1.2779e-07
2.75476e-12
1.95361e-12
1.37536e-07
1.61503e-09
-1.37475e-07
1.37657e-07
1.78104e-09
1.37806e-07
1.92249e-09
1.37965e-07
2.00565e-09
1.38157e-07
2.08065e-09
1.38365e-07
2.13213e-09
1.38543e-07
2.09209e-09
1.38684e-07
1.96628e-09
1.3879e-07
1.80639e-09
1.38845e-07
1.62582e-09
1.38846e-07
1.42411e-09
1.38805e-07
1.22251e-09
1.38743e-07
1.04353e-09
1.38672e-07
8.92332e-10
1.38599e-07
7.65055e-10
1.38529e-07
6.57993e-10
1.38464e-07
5.681e-10
1.38406e-07
4.92146e-10
1.38354e-07
4.2727e-10
1.38309e-07
3.71348e-10
1.38269e-07
3.22835e-10
1.38234e-07
2.80558e-10
1.38204e-07
2.43605e-10
1.38177e-07
2.11255e-10
1.38155e-07
1.8292e-10
1.38135e-07
1.5811e-10
1.38118e-07
1.36405e-10
1.38103e-07
1.17441e-10
1.3809e-07
1.00898e-10
1.38079e-07
8.6493e-11
1.3807e-07
7.39753e-11
1.38062e-07
6.3121e-11
1.38055e-07
5.37302e-11
1.38049e-07
4.56248e-11
1.38044e-07
3.86459e-11
1.3804e-07
3.2652e-11
1.38037e-07
2.75174e-11
1.38034e-07
2.31301e-11
1.38031e-07
1.93925e-11
1.38029e-07
1.62144e-11
1.38028e-07
1.35276e-11
1.38026e-07
1.12423e-11
1.38025e-07
9.35445e-12
1.38024e-07
7.69008e-12
1.38023e-07
6.45445e-12
1.38023e-07
5.1511e-12
1.38022e-07
4.49422e-12
1.38022e-07
3.37954e-12
1.38021e-07
3.15031e-12
2.2291e-12
1.70578e-07
1.54964e-09
-1.70512e-07
1.70688e-07
1.67037e-09
1.70831e-07
1.78003e-09
1.70983e-07
1.85308e-09
1.71158e-07
1.9059e-09
1.7135e-07
1.94008e-09
1.71524e-07
1.91854e-09
1.71659e-07
1.83129e-09
1.71758e-07
1.70755e-09
1.71817e-07
1.56658e-09
1.71831e-07
1.41018e-09
1.71806e-07
1.24724e-09
1.71757e-07
1.09273e-09
1.71695e-07
9.54389e-10
1.71627e-07
8.32477e-10
1.7156e-07
7.25619e-10
1.71495e-07
6.32545e-10
1.71436e-07
5.51652e-10
1.71382e-07
4.8117e-10
1.71334e-07
4.19558e-10
1.71291e-07
3.65575e-10
1.71253e-07
3.18206e-10
1.7122e-07
2.76606e-10
1.71191e-07
2.40069e-10
1.71166e-07
2.07992e-10
1.71145e-07
1.79859e-10
1.71126e-07
1.55218e-10
1.7111e-07
1.3367e-10
1.71096e-07
1.14861e-10
1.71084e-07
9.8476e-11
1.71073e-07
8.42327e-11
1.71065e-07
7.1879e-11
1.71057e-07
6.11891e-11
1.71051e-07
5.19612e-11
1.71045e-07
4.4015e-11
1.71041e-07
3.71897e-11
1.71037e-07
3.13426e-11
1.71034e-07
2.63463e-11
1.71031e-07
2.20896e-11
1.71029e-07
1.847e-11
1.71027e-07
1.54098e-11
1.71026e-07
1.2807e-11
1.71024e-07
1.06562e-11
1.71023e-07
8.76097e-12
1.71022e-07
7.35203e-12
1.71022e-07
5.86886e-12
1.71021e-07
5.11755e-12
1.7102e-07
3.84879e-12
1.7102e-07
3.58488e-12
2.5312e-12
2.15095e-07
1.48332e-09
-2.15029e-07
2.15192e-07
1.57396e-09
2.15317e-07
1.65479e-09
2.15455e-07
1.71523e-09
2.15606e-07
1.75505e-09
2.15769e-07
1.77701e-09
2.15923e-07
1.76448e-09
2.16047e-07
1.70759e-09
2.16137e-07
1.61738e-09
2.16195e-07
1.50877e-09
2.16217e-07
1.38727e-09
2.16207e-07
1.25728e-09
2.16173e-07
1.12706e-09
2.16124e-07
1.00354e-09
2.16067e-07
8.89525e-10
2.16007e-07
7.85624e-10
2.15948e-07
6.91919e-10
2.15891e-07
6.08089e-10
2.15839e-07
5.33423e-10
2.15791e-07
4.67078e-10
2.15749e-07
4.08236e-10
2.15711e-07
3.56139e-10
2.15677e-07
3.10088e-10
2.15648e-07
2.6945e-10
2.15622e-07
2.33653e-10
2.156e-07
2.02179e-10
2.15581e-07
1.74562e-10
2.15564e-07
1.50381e-10
2.15549e-07
1.29254e-10
2.15537e-07
1.10836e-10
2.15527e-07
9.48184e-11
2.15517e-07
8.09207e-11
2.1551e-07
6.88916e-11
2.15503e-07
5.85057e-11
2.15498e-07
4.9561e-11
2.15493e-07
4.18774e-11
2.15489e-07
3.52944e-11
2.15486e-07
2.9669e-11
2.15483e-07
2.48761e-11
2.15481e-07
2.08004e-11
2.15479e-07
1.73544e-11
2.15477e-07
1.44236e-11
2.15476e-07
1.20012e-11
2.15475e-07
9.8674e-12
2.15474e-07
8.27921e-12
2.15473e-07
6.6104e-12
2.15472e-07
5.76118e-12
2.15472e-07
4.33322e-12
2.15471e-07
4.03316e-12
2.84222e-12
2.71204e-07
1.42801e-09
-2.71149e-07
2.71277e-07
1.50087e-09
2.7137e-07
1.56231e-09
2.71474e-07
1.61106e-09
2.71586e-07
1.64297e-09
2.71705e-07
1.65814e-09
2.71819e-07
1.64988e-09
2.71915e-07
1.61163e-09
2.71987e-07
1.54607e-09
2.72034e-07
1.46141e-09
2.72057e-07
1.36379e-09
2.72058e-07
1.25712e-09
2.72039e-07
1.14613e-09
2.72006e-07
1.0359e-09
2.71966e-07
9.29945e-10
2.71921e-07
8.30173e-10
2.71876e-07
7.37605e-10
2.71831e-07
6.52751e-10
2.71789e-07
5.75681e-10
2.7175e-07
5.0616e-10
2.71714e-07
4.43782e-10
2.71682e-07
3.88064e-10
2.71654e-07
3.38483e-10
2.71629e-07
2.94513e-10
2.71607e-07
2.55637e-10
2.71587e-07
2.21364e-10
2.71571e-07
1.91229e-10
2.71556e-07
1.64805e-10
2.71544e-07
1.41692e-10
2.71533e-07
1.21528e-10
2.71524e-07
1.03982e-10
2.71516e-07
8.8751e-11
2.7151e-07
7.55642e-11
2.71504e-07
6.41763e-11
2.71499e-07
5.43672e-11
2.71495e-07
4.59401e-11
2.71492e-07
3.87195e-11
2.71489e-07
3.25489e-11
2.71486e-07
2.72913e-11
2.71484e-07
2.28203e-11
2.71483e-07
1.90398e-11
2.71481e-07
1.58247e-11
2.7148e-07
1.31668e-11
2.71479e-07
1.08264e-11
2.71478e-07
9.08258e-12
2.71478e-07
7.25318e-12
2.71477e-07
6.31861e-12
2.71477e-07
4.75296e-12
2.71476e-07
4.42111e-12
3.10996e-12
3.41924e-07
-3.41899e-07
3.41955e-07
3.41993e-07
3.42037e-07
3.42084e-07
3.42134e-07
3.42183e-07
3.42224e-07
3.42256e-07
3.42278e-07
3.4229e-07
3.42293e-07
3.42288e-07
3.42276e-07
3.4226e-07
3.42241e-07
3.42222e-07
3.42202e-07
3.42184e-07
3.42166e-07
3.4215e-07
3.42135e-07
3.42122e-07
3.4211e-07
3.421e-07
3.42091e-07
3.42083e-07
3.42076e-07
3.4207e-07
3.42065e-07
3.4206e-07
3.42057e-07
3.42054e-07
3.42051e-07
3.42049e-07
3.42047e-07
3.42045e-07
3.42044e-07
3.42042e-07
3.42041e-07
3.42041e-07
3.4204e-07
3.42039e-07
3.42039e-07
3.42039e-07
3.42038e-07
3.42038e-07
3.42038e-07
3.42038e-07
6.90412e-08
-2.05108e-10
6.89106e-08
6.3607e-10
6.90521e-08
-1.05468e-09
6.8727e-08
1.72292e-09
6.89309e-08
-1.40381e-09
6.87116e-08
5.57161e-10
6.85012e-08
1.48081e-09
6.85695e-08
-1.53477e-09
6.8323e-08
5.21494e-10
6.78672e-08
1.37754e-09
6.7285e-08
1.0853e-09
1.12926e-09
7.45194e-08
-1.89703e-10
7.45325e-08
6.22945e-10
7.43739e-08
-8.9606e-10
7.45474e-08
1.5494e-09
7.41615e-08
-1.01789e-09
7.43122e-08
4.06474e-10
7.41833e-08
1.60972e-09
7.3824e-08
-1.17542e-09
7.3689e-08
6.56418e-10
7.34148e-08
1.65179e-09
7.31069e-08
1.39321e-09
1.41568e-09
8.04636e-08
-1.51229e-10
8.05397e-08
5.46862e-10
8.02592e-08
-6.15625e-10
8.05889e-08
1.21975e-09
8.00476e-08
-4.76624e-10
8.01898e-08
2.64285e-10
8.02492e-08
1.55028e-09
7.96472e-08
-5.73358e-10
7.96116e-08
6.92025e-10
7.943e-08
1.83332e-09
7.93613e-08
1.46194e-09
1.67858e-09
8.69029e-08
-1.0708e-10
8.69809e-08
4.68898e-10
8.67128e-08
-3.47592e-10
8.69803e-08
9.52259e-10
8.65399e-08
-3.62371e-11
8.65537e-08
2.50552e-10
8.66698e-08
1.43415e-09
8.6093e-08
3.44137e-12
8.60286e-08
7.56396e-10
8.59748e-08
1.88718e-09
8.58433e-08
1.59335e-09
1.78516e-09
9.38634e-08
-6.24407e-11
9.39294e-08
4.0289e-10
9.36966e-08
-1.1483e-10
9.38781e-08
7.70773e-10
9.35541e-08
2.87731e-10
9.34603e-08
3.44339e-10
9.35816e-08
1.31284e-09
9.30975e-08
4.87602e-10
9.29829e-08
8.71022e-10
9.3012e-08
1.85804e-09
9.28603e-08
1.7451e-09
1.83097e-09
1.01384e-07
-2.02186e-11
1.01432e-07
3.5529e-10
1.01241e-07
7.58957e-11
1.0134e-07
6.71964e-10
1.01109e-07
5.18435e-10
1.00958e-07
4.95437e-10
1.0104e-07
1.23105e-09
1.00675e-07
8.52409e-10
1.00524e-07
1.02162e-09
1.00582e-07
1.80039e-09
1.00476e-07
1.851e-09
1.87096e-09
1.09508e-07
1.81313e-11
1.09536e-07
3.2708e-10
1.09384e-07
2.27868e-10
1.09416e-07
6.40619e-10
1.09253e-07
6.814e-10
1.09078e-07
6.69835e-10
1.0911e-07
1.19943e-09
1.08858e-07
1.10423e-09
1.08694e-07
1.18617e-09
1.08745e-07
1.74862e-09
1.08701e-07
1.89482e-09
1.90518e-09
1.18283e-07
5.17661e-11
1.18293e-07
3.17121e-10
1.18173e-07
3.474e-10
1.18157e-07
6.57238e-10
1.18035e-07
8.02779e-10
1.17865e-07
8.39986e-10
1.17852e-07
1.21225e-09
1.17684e-07
1.27289e-09
1.17533e-07
1.33706e-09
1.17566e-07
1.71563e-09
1.1757e-07
1.89082e-09
1.91772e-09
1.2776e-07
8.0574e-11
1.27755e-07
3.22292e-10
1.27661e-07
4.41769e-10
1.27614e-07
7.03845e-10
1.27516e-07
9.0059e-10
1.27366e-07
9.90495e-10
1.2732e-07
1.25783e-09
1.27207e-07
1.38585e-09
1.27088e-07
1.45649e-09
1.27101e-07
1.70222e-09
1.27129e-07
1.86256e-09
1.90437e-09
1.37996e-07
1.04874e-10
1.37979e-07
3.38391e-10
1.37903e-07
5.17723e-10
1.37842e-07
7.65292e-10
1.37757e-07
9.85217e-10
1.37631e-07
1.11655e-09
1.37569e-07
1.32046e-09
1.37491e-07
1.46389e-09
1.37405e-07
1.54211e-09
1.37406e-07
1.70167e-09
1.37441e-07
1.82712e-09
1.87004e-09
1.70996e-07
1.27662e-10
1.70969e-07
3.64572e-10
1.70899e-07
5.8794e-10
1.70825e-07
8.3959e-10
1.70739e-07
1.07076e-09
1.70625e-07
1.23113e-09
1.7055e-07
1.39532e-09
1.70487e-07
1.52713e-09
1.70423e-07
1.60541e-09
1.7042e-07
1.70526e-09
1.7046e-07
1.78747e-09
1.8172e-09
2.15449e-07
1.48096e-10
2.15417e-07
3.97067e-10
2.15353e-07
6.51624e-10
2.15276e-07
9.16554e-10
2.15193e-07
1.15374e-09
2.15096e-07
1.32873e-09
2.15022e-07
1.46898e-09
2.14971e-07
1.57766e-09
2.1493e-07
1.64631e-09
2.1493e-07
1.70588e-09
2.14969e-07
1.74845e-09
1.75701e-09
2.71459e-07
1.64054e-10
2.71429e-07
4.27385e-10
2.71378e-07
7.02265e-10
2.71314e-07
9.80495e-10
2.71246e-07
1.22159e-09
2.71175e-07
1.40028e-09
2.71118e-07
1.52516e-09
2.71083e-07
1.61314e-09
2.71061e-07
1.66784e-09
2.71065e-07
1.702e-09
2.71097e-07
1.71659e-09
1.70542e-09
3.4203e-07
3.42016e-07
3.41993e-07
3.41964e-07
3.41934e-07
3.41904e-07
3.4188e-07
3.41866e-07
3.41859e-07
3.41862e-07
3.41876e-07
)
;

boundaryField
{
    top
    {
        type            calculated;
        value           nonuniform List<scalar> 
62
(
1.40346e-09
1.46976e-09
1.52378e-09
1.56711e-09
1.59576e-09
1.60831e-09
1.60152e-09
1.56992e-09
1.51411e-09
1.43944e-09
1.35154e-09
1.25438e-09
1.15174e-09
1.04776e-09
9.45943e-10
8.48579e-10
7.57068e-10
6.72237e-10
5.94471e-10
5.238e-10
4.60021e-10
4.02792e-10
3.51686e-10
3.0624e-10
2.65976e-10
2.30422e-10
1.99125e-10
1.71655e-10
1.47612e-10
1.26625e-10
1.08355e-10
9.24922e-11
7.87548e-11
6.68895e-11
5.66679e-11
4.78856e-11
4.03602e-11
3.39288e-11
2.84487e-11
2.37885e-11
1.98478e-11
1.64964e-11
1.37256e-11
1.12863e-11
9.46756e-12
7.5616e-12
6.58545e-12
4.9546e-12
4.60682e-12
3.23522e-12
1.71066e-10
4.4174e-10
7.24813e-10
1.00916e-09
1.25199e-09
1.43033e-09
1.54858e-09
1.62768e-09
1.67488e-09
1.69901e-09
1.70248e-09
1.68242e-09
)
;
    }
    inlet
    {
        type            calculated;
        value           nonuniform List<scalar> 
14
(
-1.71018e-07
-2.1547e-07
-2.71475e-07
-3.42037e-07
-6.90099e-08
-7.45348e-08
-8.05021e-08
-8.6947e-08
-9.3908e-08
-1.01426e-07
-1.09546e-07
-1.18317e-07
-1.27789e-07
-1.3802e-07
)
;
    }
    outlet
    {
        type            calculated;
        value           nonuniform List<scalar> 
14
(
1.7102e-07
2.15471e-07
2.71476e-07
3.42037e-07
3.51641e-08
6.81257e-08
7.97681e-08
8.68925e-08
9.3906e-08
1.01427e-07
1.09547e-07
1.18318e-07
1.2779e-07
1.38021e-07
)
;
    }
    plate
    {
        type            calculated;
        value           uniform 0;
    }
    symmBound
    {
        type            calculated;
        value           nonuniform List<scalar> 
12
(
1.73784e-10
-5.05442e-10
9.13195e-10
-1.39787e-09
1.19991e-09
-3.37864e-10
-1.27039e-09
1.46646e-09
-2.74996e-10
-9.21698e-10
-5.0312e-10
-2.48398e-10
)
;
    }
    frontAndBack
    {
        type            empty;
        value           nonuniform 0();
    }
}


// ************************************************************************* //
