/*--------------------------------*- C++ -*----------------------------------*\
| =========                 |                                                 |
| \\      /  F ield         | OpenFOAM: The Open Source CFD Toolbox           |
|  \\    /   O peration     | Version:  2.3.0                                 |
|   \\  /    A nd           | Web:      www.OpenFOAM.org                      |
|    \\/     M anipulation  |                                                 |
\*---------------------------------------------------------------------------*/
FoamFile
{
    version     2.0;
    format      ascii;
    class       volVectorField;
    location    "0.05";
    object      U;
}
// * * * * * * * * * * * * * * * * * * * * * * * * * * * * * * * * * * * * * //

dimensions      [0 1 -1 0 0 0 0];

internalField   nonuniform List<vector> 
868
(
(0.189424 0.0017676 0)
(0.179668 0.00339717 0)
(0.167979 0.00404661 0)
(0.156622 0.00339094 0)
(0.147759 0.00289994 0)
(0.13838 0.00324013 0)
(0.127132 0.003253 0)
(0.116553 0.00235025 0)
(0.108858 0.00117786 0)
(0.104335 0.000358888 0)
(0.102265 -2.24014e-05 0)
(0.101655 -0.000124316 0)
(0.101677 -0.000108807 0)
(0.101849 -6.58221e-05 0)
(0.101984 -3.23952e-05 0)
(0.102054 -1.43517e-05 0)
(0.102079 -5.85937e-06 0)
(0.10208 -2.12274e-06 0)
(0.102069 -6.1438e-07 0)
(0.102053 5.07135e-09 0)
(0.102037 2.73802e-07 0)
(0.102021 3.92051e-07 0)
(0.102006 4.34346e-07 0)
(0.101993 4.33436e-07 0)
(0.101981 4.07921e-07 0)
(0.101971 3.69666e-07 0)
(0.101962 3.26251e-07 0)
(0.101954 2.82356e-07 0)
(0.101947 2.40722e-07 0)
(0.101941 2.02784e-07 0)
(0.101936 1.69142e-07 0)
(0.101932 1.39878e-07 0)
(0.101928 1.14801e-07 0)
(0.101925 9.35744e-08 0)
(0.101923 7.57958e-08 0)
(0.101921 6.10376e-08 0)
(0.101919 4.88799e-08 0)
(0.101917 3.89356e-08 0)
(0.101916 3.08628e-08 0)
(0.101915 2.4353e-08 0)
(0.101914 1.91725e-08 0)
(0.101913 1.50562e-08 0)
(0.101913 1.18897e-08 0)
(0.101912 9.43171e-09 0)
(0.101912 7.70279e-09 0)
(0.101911 6.2568e-09 0)
(0.101911 6.34934e-09 0)
(0.101911 4.64863e-09 0)
(0.101911 8.56869e-09 0)
(0.10191 7.48988e-09 0)
(0.196089 0.00335697 0)
(0.196577 0.00567373 0)
(0.196031 0.007146 0)
(0.194846 0.00661883 0)
(0.194124 0.00549059 0)
(0.192896 0.00569415 0)
(0.190571 0.00642944 0)
(0.188042 0.00599 0)
(0.185993 0.00432942 0)
(0.184533 0.00246537 0)
(0.183675 0.0010926 0)
(0.183338 0.000327473 0)
(0.18331 1.78318e-05 0)
(0.183382 -5.60869e-05 0)
(0.183432 -4.60588e-05 0)
(0.183435 -2.07526e-05 0)
(0.1834 -1.8041e-06 0)
(0.183346 8.63768e-06 0)
(0.183285 1.30726e-05 0)
(0.183225 1.41664e-05 0)
(0.18317 1.36666e-05 0)
(0.18312 1.25127e-05 0)
(0.183075 1.11519e-05 0)
(0.183036 9.7842e-06 0)
(0.183002 8.49624e-06 0)
(0.182973 7.32297e-06 0)
(0.182947 6.27493e-06 0)
(0.182925 5.35082e-06 0)
(0.182906 4.54364e-06 0)
(0.18289 3.84374e-06 0)
(0.182876 3.24046e-06 0)
(0.182864 2.72302e-06 0)
(0.182854 2.28114e-06 0)
(0.182845 1.90527e-06 0)
(0.182838 1.58672e-06 0)
(0.182832 1.31769e-06 0)
(0.182826 1.09122e-06 0)
(0.182822 9.01186e-07 0)
(0.182818 7.42237e-07 0)
(0.182815 6.09665e-07 0)
(0.182813 4.99644e-07 0)
(0.182811 4.08155e-07 0)
(0.182809 3.33708e-07 0)
(0.182807 2.70119e-07 0)
(0.182806 2.23525e-07 0)
(0.182805 1.75192e-07 0)
(0.182804 1.54675e-07 0)
(0.182803 1.11166e-07 0)
(0.182803 1.11433e-07 0)
(0.182802 8.51154e-08 0)
(0.196406 0.00311899 0)
(0.197051 0.00464093 0)
(0.197979 0.00593306 0)
(0.198583 0.00579338 0)
(0.199353 0.0050398 0)
(0.200159 0.00531613 0)
(0.200769 0.00600454 0)
(0.20133 0.00546849 0)
(0.201692 0.00371288 0)
(0.201564 0.00187044 0)
(0.201037 0.000642627 0)
(0.200437 5.28038e-05 0)
(0.199958 -0.000120423 0)
(0.199614 -0.000107109 0)
(0.199367 -4.62141e-05 0)
(0.199182 5.7318e-06 0)
(0.199036 3.54401e-05 0)
(0.198917 4.77295e-05 0)
(0.198815 4.99796e-05 0)
(0.198727 4.73347e-05 0)
(0.19865 4.27517e-05 0)
(0.198584 3.76991e-05 0)
(0.198526 3.2817e-05 0)
(0.198475 2.83472e-05 0)
(0.198432 2.43579e-05 0)
(0.198394 2.08458e-05 0)
(0.198361 1.77793e-05 0)
(0.198333 1.51173e-05 0)
(0.198309 1.28169e-05 0)
(0.198288 1.08366e-05 0)
(0.19827 9.13753e-06 0)
(0.198255 7.6844e-06 0)
(0.198242 6.4453e-06 0)
(0.198231 5.39179e-06 0)
(0.198222 4.49862e-06 0)
(0.198214 3.74355e-06 0)
(0.198207 3.10701e-06 0)
(0.198202 2.57188e-06 0)
(0.198197 2.12334e-06 0)
(0.198193 1.74825e-06 0)
(0.19819 1.43619e-06 0)
(0.198187 1.17557e-06 0)
(0.198185 9.63267e-07 0)
(0.198183 7.8014e-07 0)
(0.198181 6.46054e-07 0)
(0.19818 5.06492e-07 0)
(0.198179 4.4122e-07 0)
(0.198178 3.20959e-07 0)
(0.198178 3.05941e-07 0)
(0.198177 2.24992e-07 0)
(0.196941 0.00309824 0)
(0.197392 0.00402097 0)
(0.198344 0.00487415 0)
(0.198997 0.0052239 0)
(0.199737 0.00497814 0)
(0.200641 0.00490038 0)
(0.201556 0.0050663 0)
(0.202536 0.00466949 0)
(0.203337 0.00352727 0)
(0.20354 0.00222534 0)
(0.203141 0.00124185 0)
(0.202504 0.000654258 0)
(0.201926 0.000347102 0)
(0.201496 0.000208268 0)
(0.201188 0.000154701 0)
(0.200965 0.000134114 0)
(0.200796 0.000122408 0)
(0.200662 0.000111556 0)
(0.20055 0.000100115 0)
(0.200455 8.85082e-05 0)
(0.200373 7.73673e-05 0)
(0.200302 6.71013e-05 0)
(0.200241 5.78811e-05 0)
(0.200188 4.97262e-05 0)
(0.200142 4.25811e-05 0)
(0.200102 3.63588e-05 0)
(0.200068 3.0964e-05 0)
(0.200039 2.6303e-05 0)
(0.200013 2.22881e-05 0)
(0.199992 1.88394e-05 0)
(0.199973 1.58849e-05 0)
(0.199957 1.33604e-05 0)
(0.199943 1.1209e-05 0)
(0.199932 9.38014e-06 0)
(0.199922 7.82969e-06 0)
(0.199914 6.5187e-06 0)
(0.199907 5.41317e-06 0)
(0.199901 4.48335e-06 0)
(0.199896 3.70363e-06 0)
(0.199892 3.05115e-06 0)
(0.199888 2.50811e-06 0)
(0.199886 2.05386e-06 0)
(0.199883 1.68415e-06 0)
(0.199881 1.36394e-06 0)
(0.19988 1.13002e-06 0)
(0.199878 8.86285e-07 0)
(0.199877 7.68665e-07 0)
(0.199876 5.64322e-07 0)
(0.199876 5.29202e-07 0)
(0.199875 3.82004e-07 0)
(0.19749 0.00302807 0)
(0.197835 0.00378324 0)
(0.198686 0.00430502 0)
(0.199136 0.00469077 0)
(0.199676 0.00471475 0)
(0.200611 0.00459488 0)
(0.201551 0.00458329 0)
(0.20234 0.00429302 0)
(0.202941 0.00343708 0)
(0.203146 0.00232892 0)
(0.202903 0.00140594 0)
(0.202434 0.000816012 0)
(0.201971 0.000492387 0)
(0.201601 0.000333101 0)
(0.201316 0.000259058 0)
(0.201095 0.000221006 0)
(0.200923 0.000195166 0)
(0.200785 0.00017287 0)
(0.200671 0.000152076 0)
(0.200575 0.000132724 0)
(0.200492 0.000115073 0)
(0.200422 9.92785e-05 0)
(0.20036 8.53376e-05 0)
(0.200307 7.31412e-05 0)
(0.200262 6.25304e-05 0)
(0.200222 5.33342e-05 0)
(0.200188 4.53871e-05 0)
(0.200159 3.85365e-05 0)
(0.200134 3.26449e-05 0)
(0.200112 2.75896e-05 0)
(0.200094 2.32619e-05 0)
(0.200078 1.95659e-05 0)
(0.200064 1.64169e-05 0)
(0.200053 1.37405e-05 0)
(0.200043 1.14714e-05 0)
(0.200035 9.55276e-06 0)
(0.200028 7.93454e-06 0)
(0.200022 6.57329e-06 0)
(0.200017 5.43154e-06 0)
(0.200013 4.47583e-06 0)
(0.20001 3.68027e-06 0)
(0.200007 3.01438e-06 0)
(0.200004 2.4725e-06 0)
(0.200002 2.00262e-06 0)
(0.200001 1.65917e-06 0)
(0.199999 1.30212e-06 0)
(0.199998 1.12664e-06 0)
(0.199997 8.30967e-07 0)
(0.199997 7.72585e-07 0)
(0.199996 5.51792e-07 0)
(0.197996 0.00288709 0)
(0.198205 0.00355093 0)
(0.198924 0.00386988 0)
(0.199323 0.00416672 0)
(0.199731 0.00438901 0)
(0.200554 0.00433709 0)
(0.201392 0.00413272 0)
(0.201978 0.00376687 0)
(0.2024 0.00310083 0)
(0.202613 0.00226543 0)
(0.202517 0.00153724 0)
(0.202202 0.00103611 0)
(0.201843 0.00072354 0)
(0.201532 0.000532043 0)
(0.201278 0.000414348 0)
(0.201073 0.000338989 0)
(0.200908 0.000285937 0)
(0.200774 0.000244615 0)
(0.200663 0.00021034 0)
(0.200569 0.000181051 0)
(0.200488 0.000155714 0)
(0.200419 0.000133718 0)
(0.200359 0.000114627 0)
(0.200307 9.80824e-05 0)
(0.200262 8.37664e-05 0)
(0.200223 7.13996e-05 0)
(0.20019 6.07347e-05 0)
(0.200161 5.15537e-05 0)
(0.200137 4.3665e-05 0)
(0.200115 3.69003e-05 0)
(0.200097 3.11116e-05 0)
(0.200082 2.6169e-05 0)
(0.200069 2.19585e-05 0)
(0.200057 1.83802e-05 0)
(0.200048 1.53467e-05 0)
(0.20004 1.27813e-05 0)
(0.200033 1.06176e-05 0)
(0.200027 8.79726e-06 0)
(0.200023 7.2703e-06 0)
(0.200019 5.99192e-06 0)
(0.200015 4.92764e-06 0)
(0.200012 4.03659e-06 0)
(0.20001 3.31136e-06 0)
(0.200008 2.68249e-06 0)
(0.200007 2.22199e-06 0)
(0.200005 1.74504e-06 0)
(0.200004 1.50727e-06 0)
(0.200003 1.11431e-06 0)
(0.200003 1.0314e-06 0)
(0.200002 7.31233e-07 0)
(0.198431 0.0027338 0)
(0.198547 0.00330111 0)
(0.199124 0.00356725 0)
(0.199507 0.00375407 0)
(0.199798 0.00396764 0)
(0.200433 0.00394528 0)
(0.201169 0.00369584 0)
(0.201673 0.00335677 0)
(0.20199 0.00288252 0)
(0.20217 0.00227241 0)
(0.202146 0.0016781 0)
(0.201941 0.00121973 0)
(0.201673 0.000903522 0)
(0.201422 0.000689802 0)
(0.201208 0.000544982 0)
(0.201027 0.000445083 0)
(0.200875 0.000372446 0)
(0.200748 0.000315986 0)
(0.200641 0.000269889 0)
(0.200551 0.000231184 0)
(0.200473 0.000198186 0)
(0.200406 0.000169831 0)
(0.200348 0.000145387 0)
(0.200297 0.000124293 0)
(0.200254 0.000106091 0)
(0.200217 9.03952e-05 0)
(0.200184 7.68748e-05 0)
(0.200157 6.52445e-05 0)
(0.200133 5.52564e-05 0)
(0.200112 4.66943e-05 0)
(0.200095 3.93691e-05 0)
(0.20008 3.31154e-05 0)
(0.200067 2.77885e-05 0)
(0.200056 2.32615e-05 0)
(0.200047 1.94236e-05 0)
(0.200039 1.6178e-05 0)
(0.200032 1.34404e-05 0)
(0.200027 1.11371e-05 0)
(0.200022 9.20482e-06 0)
(0.200018 7.58699e-06 0)
(0.200015 6.23997e-06 0)
(0.200012 5.11209e-06 0)
(0.20001 4.19386e-06 0)
(0.200008 3.39792e-06 0)
(0.200007 2.81391e-06 0)
(0.200005 2.21125e-06 0)
(0.200004 1.90744e-06 0)
(0.200003 1.41203e-06 0)
(0.200003 1.30346e-06 0)
(0.200002 9.19215e-07 0)
(0.198789 0.00261026 0)
(0.198858 0.00305387 0)
(0.199273 0.00328988 0)
(0.199625 0.00339189 0)
(0.199875 0.00355056 0)
(0.200358 0.0035879 0)
(0.200969 0.00339488 0)
(0.201401 0.00308429 0)
(0.201642 0.00269869 0)
(0.201781 0.00222636 0)
(0.201799 0.00174175 0)
(0.20168 0.00133891 0)
(0.201491 0.00104109 0)
(0.201296 0.000824993 0)
(0.201119 0.000666431 0)
(0.200963 0.000548917 0)
(0.200827 0.000459587 0)
(0.20071 0.000388976 0)
(0.200611 0.000331258 0)
(0.200525 0.00028304 0)
(0.200451 0.000242195 0)
(0.200388 0.000207291 0)
(0.200332 0.000177317 0)
(0.200284 0.000151517 0)
(0.200243 0.00012929 0)
(0.200207 0.000110142 0)
(0.200176 9.3658e-05 0)
(0.20015 7.94842e-05 0)
(0.200127 6.73147e-05 0)
(0.200107 5.68841e-05 0)
(0.200091 4.79611e-05 0)
(0.200076 4.03438e-05 0)
(0.200064 3.38554e-05 0)
(0.200054 2.83413e-05 0)
(0.200045 2.36665e-05 0)
(0.200037 1.97131e-05 0)
(0.200031 1.63782e-05 0)
(0.200026 1.35722e-05 0)
(0.200021 1.12182e-05 0)
(0.200017 9.2471e-06 0)
(0.200014 7.60581e-06 0)
(0.200012 6.23149e-06 0)
(0.20001 5.11228e-06 0)
(0.200008 4.14262e-06 0)
(0.200006 3.42981e-06 0)
(0.200005 2.69658e-06 0)
(0.200004 2.32371e-06 0)
(0.200003 1.72151e-06 0)
(0.200003 1.58634e-06 0)
(0.200002 1.11425e-06 0)
(0.199063 0.00250223 0)
(0.19912 0.0028194 0)
(0.199406 0.00303064 0)
(0.199719 0.00311417 0)
(0.199957 0.00322186 0)
(0.200312 0.00326762 0)
(0.200777 0.00311901 0)
(0.201138 0.00284214 0)
(0.20134 0.00252095 0)
(0.201455 0.00215714 0)
(0.201491 0.00177347 0)
(0.20143 0.00142915 0)
(0.201302 0.00115415 0)
(0.201156 0.000941148 0)
(0.201014 0.000775174 0)
(0.200883 0.000645412 0)
(0.200765 0.000543002 0)
(0.200661 0.000460416 0)
(0.200571 0.000392293 0)
(0.200492 0.000335176 0)
(0.200424 0.000286751 0)
(0.200364 0.000245384 0)
(0.200312 0.000209881 0)
(0.200268 0.000179333 0)
(0.200229 0.000153023 0)
(0.200195 0.000130362 0)
(0.200166 0.000110855 0)
(0.200141 9.40813e-05 0)
(0.20012 7.96796e-05 0)
(0.200101 6.73355e-05 0)
(0.200085 5.67753e-05 0)
(0.200072 4.776e-05 0)
(0.20006 4.00804e-05 0)
(0.20005 3.35539e-05 0)
(0.200042 2.80206e-05 0)
(0.200035 2.33408e-05 0)
(0.200029 1.93931e-05 0)
(0.200024 1.60714e-05 0)
(0.20002 1.32845e-05 0)
(0.200016 1.09509e-05 0)
(0.200014 9.00757e-06 0)
(0.200011 7.38036e-06 0)
(0.200009 6.05484e-06 0)
(0.200007 4.90698e-06 0)
(0.200006 4.06179e-06 0)
(0.200005 3.1947e-06 0)
(0.200004 2.75075e-06 0)
(0.200003 2.03877e-06 0)
(0.200003 1.87637e-06 0)
(0.200002 1.31386e-06 0)
(0.199273 0.00240694 0)
(0.199338 0.00262844 0)
(0.199538 0.00280744 0)
(0.199793 0.00288591 0)
(0.200008 0.00294436 0)
(0.200271 0.00296678 0)
(0.200612 0.00285903 0)
(0.200904 0.00263833 0)
(0.20108 0.00237566 0)
(0.201177 0.00208821 0)
(0.201218 0.0017818 0)
(0.201192 0.0014898 0)
(0.201111 0.00124017 0)
(0.201005 0.0010358 0)
(0.200895 0.000868856 0)
(0.200789 0.000732459 0)
(0.20069 0.000620889 0)
(0.200601 0.000528758 0)
(0.200521 0.000451674 0)
(0.20045 0.000386486 0)
(0.200389 0.000330942 0)
(0.200335 0.000283361 0)
(0.200287 0.000242457 0)
(0.200246 0.000207228 0)
(0.200211 0.000176864 0)
(0.20018 0.000150697 0)
(0.200153 0.000128164 0)
(0.20013 0.000108783 0)
(0.20011 9.2139e-05 0)
(0.200093 7.78702e-05 0)
(0.200079 6.56618e-05 0)
(0.200066 5.52382e-05 0)
(0.200056 4.63584e-05 0)
(0.200047 3.88113e-05 0)
(0.200039 3.24122e-05 0)
(0.200032 2.70001e-05 0)
(0.200027 2.24343e-05 0)
(0.200022 1.85924e-05 0)
(0.200018 1.53689e-05 0)
(0.200015 1.26696e-05 0)
(0.200012 1.04216e-05 0)
(0.20001 8.53935e-06 0)
(0.200008 7.00565e-06 0)
(0.200007 5.67811e-06 0)
(0.200006 4.69926e-06 0)
(0.200004 3.69722e-06 0)
(0.200004 3.18139e-06 0)
(0.200003 2.35854e-06 0)
(0.200002 2.16866e-06 0)
(0.200002 1.51476e-06 0)
(0.199455 0.00231556 0)
(0.199525 0.00246833 0)
(0.199664 0.00260232 0)
(0.199853 0.00266975 0)
(0.200034 0.00269964 0)
(0.20023 0.00270009 0)
(0.200468 0.00262081 0)
(0.200688 0.0024539 0)
(0.200835 0.00224273 0)
(0.200917 0.00201216 0)
(0.200956 0.00176758 0)
(0.200952 0.00152529 0)
(0.200906 0.0013052 0)
(0.200835 0.00111473 0)
(0.200756 0.00095193 0)
(0.200675 0.000813374 0)
(0.200596 0.000695961 0)
(0.200523 0.000596406 0)
(0.200456 0.000511594 0)
(0.200396 0.000438986 0)
(0.200343 0.000376603 0)
(0.200296 0.000322869 0)
(0.200254 0.000276508 0)
(0.200218 0.00023648 0)
(0.200187 0.000201922 0)
(0.200159 0.000172105 0)
(0.200136 0.000146407 0)
(0.200115 0.000124291 0)
(0.200098 0.000105289 0)
(0.200083 8.89934e-05 0)
(0.20007 7.50475e-05 0)
(0.200059 6.31384e-05 0)
(0.200049 5.29916e-05 0)
(0.200041 4.43667e-05 0)
(0.200035 3.70533e-05 0)
(0.200029 3.08674e-05 0)
(0.200024 2.56486e-05 0)
(0.20002 2.1257e-05 0)
(0.200016 1.75721e-05 0)
(0.200013 1.44863e-05 0)
(0.200011 1.19163e-05 0)
(0.200009 9.76446e-06 0)
(0.200007 8.01069e-06 0)
(0.200006 6.49327e-06 0)
(0.200005 5.37301e-06 0)
(0.200004 4.22842e-06 0)
(0.200003 3.63641e-06 0)
(0.200002 2.69635e-06 0)
(0.200002 2.47727e-06 0)
(0.200001 1.72669e-06 0)
(0.199624 0.00221756 0)
(0.199686 0.00232199 0)
(0.19978 0.00241313 0)
(0.199908 0.00246512 0)
(0.200041 0.00248036 0)
(0.200179 0.00246556 0)
(0.200333 0.00240174 0)
(0.200482 0.00227877 0)
(0.200592 0.00211598 0)
(0.200659 0.00193362 0)
(0.200693 0.00173941 0)
(0.2007 0.00154163 0)
(0.200678 0.00135229 0)
(0.200637 0.00117931 0)
(0.200585 0.00102466 0)
(0.200529 0.000887837 0)
(0.200472 0.000767836 0)
(0.200418 0.000663185 0)
(0.200367 0.000572129 0)
(0.20032 0.000492958 0)
(0.200278 0.000424158 0)
(0.200241 0.000364408 0)
(0.200207 0.000312556 0)
(0.200178 0.000267602 0)
(0.200153 0.000228677 0)
(0.200131 0.000195021 0)
(0.200111 0.000165972 0)
(0.200095 0.000140943 0)
(0.20008 0.000119423 0)
(0.200068 0.000100957 0)
(0.200057 8.51474e-05 0)
(0.200048 7.16426e-05 0)
(0.20004 6.01338e-05 0)
(0.200034 5.03496e-05 0)
(0.200028 4.20522e-05 0)
(0.200024 3.50333e-05 0)
(0.20002 2.91113e-05 0)
(0.200016 2.41276e-05 0)
(0.200013 1.99458e-05 0)
(0.200011 1.64437e-05 0)
(0.200009 1.35268e-05 0)
(0.200007 1.10845e-05 0)
(0.200006 9.0936e-06 0)
(0.200005 7.37166e-06 0)
(0.200004 6.09892e-06 0)
(0.200003 4.80081e-06 0)
(0.200003 4.12652e-06 0)
(0.200002 3.06014e-06 0)
(0.200002 2.80948e-06 0)
(0.200001 1.9545e-06 0)
(0.199779 0.00212482 0)
(0.199822 0.00219828 0)
(0.199879 0.00225838 0)
(0.199952 0.00229381 0)
(0.200032 0.0023001 0)
(0.200115 0.00227868 0)
(0.200203 0.00222429 0)
(0.200288 0.00213152 0)
(0.200357 0.00200677 0)
(0.200402 0.00186194 0)
(0.200427 0.00170498 0)
(0.200435 0.00154179 0)
(0.200428 0.00137947 0)
(0.200408 0.00122435 0)
(0.20038 0.00107995 0)
(0.200347 0.000947751 0)
(0.200313 0.000828222 0)
(0.200279 0.000721232 0)
(0.200247 0.000626168 0)
(0.200217 0.000542149 0)
(0.200189 0.000468208 0)
(0.200164 0.00040337 0)
(0.200142 0.000346692 0)
(0.200122 0.000297286 0)
(0.200105 0.000254333 0)
(0.20009 0.000217085 0)
(0.200076 0.000184864 0)
(0.200065 0.000157059 0)
(0.200055 0.000133122 0)
(0.200047 0.000112566 0)
(0.200039 9.49556e-05 0)
(0.200033 7.9906e-05 0)
(0.200028 6.70766e-05 0)
(0.200023 5.61672e-05 0)
(0.200019 4.69139e-05 0)
(0.200016 3.90854e-05 0)
(0.200013 3.24798e-05 0)
(0.200011 2.69204e-05 0)
(0.200009 2.22553e-05 0)
(0.200008 1.83482e-05 0)
(0.200006 1.50938e-05 0)
(0.200005 1.2369e-05 0)
(0.200004 1.01473e-05 0)
(0.200003 8.22644e-06 0)
(0.200003 6.80514e-06 0)
(0.200002 5.35782e-06 0)
(0.200002 4.60316e-06 0)
(0.200001 3.41396e-06 0)
(0.200001 3.13243e-06 0)
(0.200001 2.17548e-06 0)
(0.199926 0.00206359 0)
(0.199941 0.00212049 0)
(0.19996 0.00216375 0)
(0.199984 0.00218819 0)
(0.200011 0.00218944 0)
(0.200039 0.00216625 0)
(0.200068 0.00211683 0)
(0.200097 0.00203904 0)
(0.20012 0.00193524 0)
(0.200137 0.00181219 0)
(0.200147 0.00167663 0)
(0.200151 0.00153376 0)
(0.20015 0.00138861 0)
(0.200145 0.00124608 0)
(0.200136 0.00110989 0)
(0.200126 0.000982351 0)
(0.200114 0.000864724 0)
(0.200103 0.000757582 0)
(0.200091 0.000660973 0)
(0.200081 0.000574561 0)
(0.200071 0.000497777 0)
(0.200062 0.000429925 0)
(0.200053 0.000370248 0)
(0.200046 0.000317978 0)
(0.20004 0.000272365 0)
(0.200034 0.000232694 0)
(0.200029 0.0001983 0)
(0.200025 0.000168568 0)
(0.200021 0.000142938 0)
(0.200018 0.000120906 0)
(0.200015 0.000102017 0)
(0.200013 8.58646e-05 0)
(0.200011 7.20891e-05 0)
(0.200009 6.03713e-05 0)
(0.200007 5.04299e-05 0)
(0.200006 4.20177e-05 0)
(0.200005 3.49184e-05 0)
(0.200004 2.8943e-05 0)
(0.200004 2.39283e-05 0)
(0.200003 1.97282e-05 0)
(0.200002 1.62295e-05 0)
(0.200002 1.33001e-05 0)
(0.200002 1.09111e-05 0)
(0.200001 8.84616e-06 0)
(0.200001 7.31694e-06 0)
(0.200001 5.76172e-06 0)
(0.200001 4.94829e-06 0)
(0.200001 3.67037e-06 0)
(0.2 3.36614e-06 0)
(0.2 2.33511e-06 0)
(0.199714 -0.000103281 0)
(0.200693 0.000334113 0)
(0.198186 -0.000626119 0)
(0.202882 0.00104677 0)
(0.194227 -0.00095768 0)
(0.206633 0.000335616 0)
(0.190429 0.00108989 0)
(0.206869 -0.00130256 0)
(0.190647 0.000345355 0)
(0.204233 0.0010749 0)
(0.189751 0.000694542 0)
(0.202359 0.000473751 0)
(0.199825 -0.000126282 0)
(0.200292 0.000424029 0)
(0.199225 -0.000714924 0)
(0.20061 0.00126517 0)
(0.198405 -0.00102436 0)
(0.200649 0.000430382 0)
(0.197307 0.0014228 0)
(0.200674 -0.00140842 0)
(0.196242 0.000635383 0)
(0.198035 0.00156404 0)
(0.19734 0.00139018 0)
(0.196506 0.00153364 0)
(0.199882 -9.63706e-05 0)
(0.20011 0.00035208 0)
(0.199646 -0.000474778 0)
(0.199774 0.000933766 0)
(0.199732 -0.000511055 0)
(0.198886 0.000244215 0)
(0.198944 0.00130928 0)
(0.199501 -0.000723051 0)
(0.197207 0.0005749 0)
(0.197444 0.00182589 0)
(0.198284 0.00151019 0)
(0.197217 0.00198445 0)
(0.199916 -7.57392e-05 0)
(0.200035 0.000313903 0)
(0.199767 -0.000313228 0)
(0.199637 0.000744736 0)
(0.199829 -0.000160356 0)
(0.198866 0.000159973 0)
(0.19903 0.00127765 0)
(0.199294 -0.000245179 0)
(0.197683 0.000636058 0)
(0.197591 0.00193431 0)
(0.198405 0.0016752 0)
(0.197747 0.00208728 0)
(0.199938 -4.77423e-05 0)
(0.199996 0.000263092 0)
(0.199817 -0.000139983 0)
(0.199633 0.000582361 0)
(0.199765 0.000112894 0)
(0.199049 0.000232548 0)
(0.198993 0.00112765 0)
(0.199207 0.000258617 0)
(0.198091 0.000758219 0)
(0.197822 0.0018939 0)
(0.198457 0.00187041 0)
(0.198134 0.00213159 0)
(0.199957 -2.31647e-05 0)
(0.199972 0.000229755 0)
(0.199846 -4.94998e-06 0)
(0.199657 0.000489278 0)
(0.199702 0.000315218 0)
(0.199203 0.000326556 0)
(0.199022 0.00104718 0)
(0.199145 0.000634826 0)
(0.198419 0.000881447 0)
(0.198107 0.00184623 0)
(0.198533 0.00201654 0)
(0.198443 0.00218591 0)
(0.199971 3.2451e-07 0)
(0.199958 0.000206337 0)
(0.199864 0.000105533 0)
(0.199688 0.00044909 0)
(0.199666 0.000451383 0)
(0.199321 0.00046351 0)
(0.199092 0.00100338 0)
(0.199128 0.000891953 0)
(0.198685 0.00105729 0)
(0.198397 0.00179694 0)
(0.198642 0.00207716 0)
(0.198685 0.00223762 0)
(0.199981 2.09395e-05 0)
(0.199953 0.0001951 0)
(0.199876 0.000192526 0)
(0.199722 0.000446893 0)
(0.199655 0.000552942 0)
(0.19941 0.000602108 0)
(0.199186 0.00099926 0)
(0.19916 0.00107561 0)
(0.198894 0.00122021 0)
(0.198666 0.00175772 0)
(0.198791 0.00208368 0)
(0.198888 0.00226945 0)
(0.199987 3.87585e-05 0)
(0.199953 0.000194163 0)
(0.199886 0.000260696 0)
(0.199756 0.000471534 0)
(0.199665 0.000632108 0)
(0.199485 0.000728415 0)
(0.199291 0.00103149 0)
(0.199228 0.00119826 0)
(0.199067 0.00135125 0)
(0.198909 0.00174582 0)
(0.198965 0.0020617 0)
(0.199065 0.00226222 0)
(0.199992 5.3857e-05 0)
(0.199956 0.000200961 0)
(0.199897 0.000315124 0)
(0.199788 0.000510704 0)
(0.199692 0.000699073 0)
(0.199553 0.000837472 0)
(0.199397 0.0010829 0)
(0.19932 0.00128256 0)
(0.19922 0.00145141 0)
(0.199121 0.00174866 0)
(0.199144 0.0020237 0)
(0.199226 0.00222289 0)
(0.199995 6.72059e-05 0)
(0.199962 0.000213834 0)
(0.19991 0.000361943 0)
(0.199823 0.000558792 0)
(0.199733 0.000762488 0)
(0.199626 0.000932657 0)
(0.199508 0.0011455 0)
(0.199435 0.00134806 0)
(0.199372 0.00152458 0)
(0.199317 0.00175567 0)
(0.199328 0.00198246 0)
(0.199391 0.00216586 0)
(0.199997 7.93142e-05 0)
(0.199971 0.000231605 0)
(0.199928 0.000404876 0)
(0.199863 0.000612131 0)
(0.199791 0.00082635 0)
(0.199712 0.0010174 0)
(0.199631 0.00121315 0)
(0.199574 0.0014043 0)
(0.199535 0.00157631 0)
(0.19951 0.00176184 0)
(0.19952 0.00194257 0)
(0.199566 0.00209774 0)
(0.199999 8.93656e-05 0)
(0.199981 0.000250637 0)
(0.199952 0.000441827 0)
(0.199911 0.000662073 0)
(0.199863 0.00088478 0)
(0.199814 0.00108686 0)
(0.199766 0.00127415 0)
(0.199732 0.00145037 0)
(0.199711 0.00160969 0)
(0.199702 0.00176349 0)
(0.199712 0.00190675 0)
(0.19974 0.00203125 0)
(0.2 9.56421e-05 0)
(0.199993 0.000264182 0)
(0.199983 0.00046573 0)
(0.199968 0.000695236 0)
(0.199951 0.000923704 0)
(0.199934 0.00113027 0)
(0.199918 0.00131366 0)
(0.199907 0.0014794 0)
(0.1999 0.0016273 0)
(0.199898 0.00176243 0)
(0.199902 0.0018832 0)
(0.199912 0.00198701 0)
)
;

boundaryField
{
    top
    {
        type            zeroGradient;
    }
    inlet
    {
        type            fixedValue;
        value           uniform (0.2 0 0);
    }
    outlet
    {
        type            zeroGradient;
    }
    plate
    {
        type            fixedValue;
        value           uniform (0 0 0);
    }
    symmBound
    {
        type            zeroGradient;
    }
    frontAndBack
    {
        type            empty;
    }
}


// ************************************************************************* //
