/*--------------------------------*- C++ -*----------------------------------*\
| =========                 |                                                 |
| \\      /  F ield         | OpenFOAM: The Open Source CFD Toolbox           |
|  \\    /   O peration     | Version:  2.3.0                                 |
|   \\  /    A nd           | Web:      www.OpenFOAM.org                      |
|    \\/     M anipulation  |                                                 |
\*---------------------------------------------------------------------------*/
FoamFile
{
    version     2.0;
    format      ascii;
    class       surfaceScalarField;
    location    "0.4";
    object      phi;
}
// * * * * * * * * * * * * * * * * * * * * * * * * * * * * * * * * * * * * * //

dimensions      [0 3 -1 0 0 0 0];

internalField   nonuniform List<scalar> 
6068
(
2.83003e-08
2.83235e-09
-3.11327e-08
2.54411e-08
2.85921e-09
2.27461e-08
2.695e-09
2.02601e-08
2.48597e-09
1.80004e-08
2.25976e-09
1.59777e-08
2.02263e-09
1.41951e-08
1.7826e-09
1.26476e-08
1.54756e-09
1.13233e-08
1.32427e-09
1.02051e-08
1.11824e-09
9.27154e-09
9.33535e-10
8.49901e-09
7.72525e-10
7.86312e-09
6.35893e-10
7.34031e-09
5.2281e-10
6.90902e-09
4.3129e-10
6.5504e-09
3.58615e-10
6.24866e-09
3.01745e-10
5.991e-09
2.5766e-10
5.7674e-09
2.23598e-10
5.57021e-09
1.97185e-10
5.39373e-09
1.76487e-10
5.23374e-09
1.5999e-10
5.08718e-09
1.46557e-10
4.95182e-09
1.35356e-10
4.82603e-09
1.25797e-10
4.70856e-09
1.17467e-10
4.59848e-09
1.10083e-10
4.49503e-09
1.03452e-10
4.39759e-09
9.74388e-11
4.30564e-09
9.19493e-11
4.21872e-09
8.69136e-11
4.13645e-09
8.22784e-11
4.05845e-09
7.80002e-11
3.9844e-09
7.40428e-11
3.91403e-09
7.03746e-11
3.84706e-09
6.69675e-11
3.78327e-09
6.37964e-11
3.72243e-09
6.08388e-11
3.66435e-09
5.80744e-11
3.60887e-09
5.54848e-11
3.55581e-09
5.30538e-11
3.50505e-09
5.07664e-11
3.45644e-09
4.86096e-11
3.40987e-09
4.65714e-11
3.36522e-09
4.46413e-11
3.32241e-09
4.28096e-11
3.28135e-09
4.10677e-11
3.24194e-09
3.94079e-11
3.20412e-09
3.7823e-11
3.16781e-09
3.63067e-11
3.13296e-09
3.4853e-11
3.0995e-09
3.34567e-11
3.06739e-09
3.21127e-11
3.03657e-09
3.08166e-11
3.00701e-09
2.95642e-11
2.97865e-09
2.83515e-11
2.95148e-09
2.7175e-11
2.92545e-09
2.60312e-11
2.90053e-09
2.49171e-11
2.8767e-09
2.38297e-11
2.85394e-09
2.27662e-11
2.83221e-09
2.17241e-11
2.81151e-09
2.07007e-11
2.79182e-09
1.96939e-11
2.77312e-09
1.87015e-11
2.75539e-09
1.77215e-11
2.73864e-09
1.67522e-11
2.72285e-09
1.57924e-11
2.70801e-09
1.48412e-11
2.69411e-09
1.38979e-11
2.68115e-09
1.29622e-11
2.66911e-09
1.20334e-11
2.65801e-09
1.11095e-11
2.64782e-09
1.01859e-11
2.63857e-09
9.25375e-12
2.63027e-09
8.29836e-12
2.62297e-09
7.29771e-12
2.61675e-09
6.22273e-12
2.61171e-09
5.0407e-12
2.60799e-09
3.72024e-12
2.60576e-09
2.22871e-12
2.60514e-09
6.12267e-13
2.60591e-09
-7.60817e-13
2.60773e-09
-1.82314e-12
2.61039e-09
-2.66082e-12
2.61369e-09
-3.30281e-12
2.61745e-09
-3.7538e-12
2.62148e-09
-4.02963e-12
2.62563e-09
-4.15734e-12
2.62979e-09
-4.15366e-12
2.63384e-09
-4.05266e-12
2.63771e-09
-3.87456e-12
2.64135e-09
-3.63801e-12
2.64472e-09
-3.36532e-12
2.64779e-09
-3.06939e-12
2.65054e-09
-2.75687e-12
2.65298e-09
-2.43346e-12
2.65509e-09
-2.1145e-12
2.65701e-09
-1.91519e-12
-2.67293e-12
3.40085e-08
3.12027e-09
-3.42964e-08
3.34199e-08
3.44783e-09
3.25925e-08
3.52236e-09
3.16054e-08
3.4731e-09
3.05155e-08
3.34963e-09
2.93687e-08
3.16946e-09
2.82022e-08
2.94907e-09
2.70449e-08
2.70485e-09
2.59182e-08
2.45101e-09
2.4837e-08
2.19937e-09
2.38114e-08
1.95921e-09
2.28467e-08
1.73723e-09
2.19451e-08
1.53744e-09
2.11064e-08
1.36152e-09
2.03285e-08
1.20919e-09
1.96082e-08
1.07888e-09
1.89418e-08
9.68205e-10
1.8325e-08
8.7445e-10
1.77537e-08
7.94913e-10
1.72238e-08
7.27109e-10
1.67314e-08
6.68879e-10
1.62729e-08
6.18424e-10
1.58452e-08
5.74288e-10
1.54452e-08
5.35319e-10
1.50704e-08
5.00614e-10
1.47184e-08
4.69473e-10
1.43871e-08
4.41348e-10
1.40748e-08
4.15809e-10
1.37797e-08
3.92513e-10
1.35005e-08
3.71181e-10
1.32358e-08
3.51583e-10
1.29846e-08
3.33526e-10
1.27457e-08
3.16842e-10
1.25184e-08
3.01389e-10
1.23017e-08
2.87041e-10
1.2095e-08
2.73686e-10
1.18976e-08
2.61229e-10
1.17088e-08
2.4958e-10
1.15282e-08
2.38664e-10
1.13553e-08
2.28411e-10
1.11896e-08
2.1876e-10
1.10307e-08
2.09655e-10
1.08783e-08
2.01048e-10
1.07319e-08
1.92895e-10
1.05914e-08
1.85155e-10
1.04564e-08
1.77793e-10
1.03267e-08
1.70776e-10
1.02021e-08
1.64074e-10
1.00822e-08
1.57662e-10
9.96703e-09
1.51513e-10
9.85628e-09
1.45606e-10
9.74981e-09
1.39921e-10
9.64749e-09
1.34436e-10
9.54917e-09
1.29136e-10
9.45473e-09
1.24004e-10
9.36406e-09
1.19023e-10
9.27705e-09
1.14181e-10
9.19362e-09
1.09463e-10
9.11368e-09
1.04856e-10
9.03716e-09
1.00349e-10
8.964e-09
9.5931e-11
8.89413e-09
9.15907e-11
8.82751e-09
8.73183e-11
8.7641e-09
8.31045e-11
8.70386e-09
7.89403e-11
8.64677e-09
7.48178e-11
8.59279e-09
7.07296e-11
8.54191e-09
6.66696e-11
8.49412e-09
6.2632e-11
8.44941e-09
5.86119e-11
8.40777e-09
5.46039e-11
8.3692e-09
5.06008e-11
8.33372e-09
4.6591e-11
8.30135e-09
4.25559e-11
8.27213e-09
3.84671e-11
8.24615e-09
3.42838e-11
8.22349e-09
2.99544e-11
8.20429e-09
2.54208e-11
8.18871e-09
2.06296e-11
8.17688e-09
1.55482e-11
8.16894e-09
1.01656e-11
8.16506e-09
4.49329e-12
8.16508e-09
-7.83516e-13
8.16822e-09
-4.96087e-12
8.17363e-09
-8.06905e-12
8.18071e-09
-1.03819e-11
8.18895e-09
-1.20005e-11
8.19794e-09
-1.30128e-11
8.2073e-09
-1.35202e-11
8.21674e-09
-1.35943e-11
8.22603e-09
-1.33405e-11
8.23498e-09
-1.283e-11
8.24347e-09
-1.21266e-11
8.2514e-09
-1.12972e-11
8.25872e-09
-1.03844e-11
8.26538e-09
-9.41384e-12
8.27135e-09
-8.40669e-12
8.27664e-09
-7.40459e-12
8.28135e-09
-6.6304e-12
-6.7131e-12
3.61003e-08
2.97952e-09
-3.59596e-08
3.61674e-08
3.38069e-09
3.61098e-08
3.58004e-09
3.59285e-08
3.65437e-09
3.56345e-08
3.6436e-09
3.52419e-08
3.56214e-09
3.47675e-08
3.42341e-09
3.42293e-08
3.24304e-09
3.36441e-08
3.03622e-09
3.30271e-08
2.81644e-09
3.23912e-08
2.5951e-09
3.17472e-08
2.38118e-09
3.11037e-08
2.18098e-09
3.0467e-08
1.99823e-09
2.98417e-08
1.83448e-09
2.9231e-08
1.6896e-09
2.86368e-08
1.56237e-09
2.80603e-08
1.45092e-09
2.75021e-08
1.35315e-09
2.69622e-08
1.26698e-09
2.64406e-08
1.19052e-09
2.59368e-08
1.12214e-09
2.54506e-08
1.0605e-09
2.49815e-08
1.00448e-09
2.45288e-08
9.53235e-10
2.40923e-08
9.06071e-10
2.36711e-08
8.6245e-10
2.3265e-08
8.21943e-10
2.28733e-08
7.84204e-10
2.24956e-08
7.48951e-10
2.21312e-08
7.15945e-10
2.17797e-08
6.84982e-10
2.14407e-08
6.55886e-10
2.11136e-08
6.285e-10
2.07979e-08
6.02683e-10
2.04933e-08
5.78309e-10
2.01993e-08
5.55263e-10
1.99154e-08
5.33441e-10
1.96413e-08
5.12747e-10
1.93767e-08
4.93093e-10
1.9121e-08
4.74401e-10
1.88741e-08
4.56595e-10
1.86355e-08
4.39609e-10
1.8405e-08
4.2338e-10
1.81823e-08
4.0785e-10
1.79672e-08
3.92967e-10
1.77593e-08
3.7868e-10
1.75584e-08
3.64945e-10
1.73643e-08
3.51717e-10
1.71769e-08
3.38958e-10
1.69959e-08
3.2663e-10
1.68211e-08
3.14698e-10
1.66524e-08
3.03129e-10
1.64896e-08
2.91892e-10
1.63327e-08
2.80957e-10
1.61814e-08
2.70298e-10
1.60357e-08
2.59887e-10
1.58955e-08
2.497e-10
1.57606e-08
2.39712e-10
1.56311e-08
2.29901e-10
1.55067e-08
2.20245e-10
1.53876e-08
2.10723e-10
1.52736e-08
2.01316e-10
1.51647e-08
1.92005e-10
1.50609e-08
1.82772e-10
1.49621e-08
1.736e-10
1.48684e-08
1.64475e-10
1.47796e-08
1.55381e-10
1.4696e-08
1.46307e-10
1.46173e-08
1.37239e-10
1.45438e-08
1.28163e-10
1.44753e-08
1.19061e-10
1.4412e-08
1.09911e-10
1.43539e-08
1.00677e-10
1.4301e-08
9.13153e-11
1.42535e-08
8.17676e-11
1.42115e-08
7.19708e-11
1.41751e-08
6.1869e-11
1.41443e-08
5.14388e-11
1.41191e-08
4.07265e-11
1.40994e-08
2.98895e-11
1.40847e-08
1.91668e-11
1.40753e-08
8.64258e-12
1.40714e-08
-1.07298e-12
1.40721e-08
-8.83544e-12
1.40764e-08
-1.4587e-11
1.40831e-08
-1.87384e-11
1.40916e-08
-2.15532e-11
1.41014e-08
-2.32712e-11
1.41118e-08
-2.40565e-11
1.41226e-08
-2.41232e-11
1.41334e-08
-2.36192e-11
1.4144e-08
-2.26764e-11
1.41541e-08
-2.14273e-11
1.41637e-08
-1.99609e-11
1.41726e-08
-1.83352e-11
1.41808e-08
-1.65939e-11
1.41882e-08
-1.47816e-11
1.41946e-08
-1.30311e-11
-1.11688e-11
3.76671e-08
2.79576e-09
-3.74834e-08
3.78644e-08
3.18344e-09
3.80254e-08
3.419e-09
3.81329e-08
3.54689e-09
3.81796e-08
3.5969e-09
3.81612e-08
3.58052e-09
3.80776e-08
3.50701e-09
3.79323e-08
3.38832e-09
3.77313e-08
3.23723e-09
3.7482e-08
3.06579e-09
3.71923e-08
2.8848e-09
3.68702e-08
2.70325e-09
3.65232e-08
2.52802e-09
3.61576e-08
2.36376e-09
3.5779e-08
2.21307e-09
3.53918e-08
2.07689e-09
3.49992e-08
1.95496e-09
3.46039e-08
1.84623e-09
3.42078e-08
1.74925e-09
3.38123e-08
1.66245e-09
3.34185e-08
1.58429e-09
3.30273e-08
1.5134e-09
3.26392e-08
1.44859e-09
3.22548e-08
1.38889e-09
3.18745e-08
1.33351e-09
3.14987e-08
1.28184e-09
3.11278e-08
1.23338e-09
3.0762e-08
1.18773e-09
3.04016e-08
1.1446e-09
3.00469e-08
1.10372e-09
2.96979e-08
1.06489e-09
2.9355e-08
1.02794e-09
2.90181e-08
9.92723e-10
2.86875e-08
9.59099e-10
2.83632e-08
9.26955e-10
2.80454e-08
8.96187e-10
2.77339e-08
8.66699e-10
2.7429e-08
8.38405e-10
2.71305e-08
8.11224e-10
2.68385e-08
7.85082e-10
2.6553e-08
7.5991e-10
2.62739e-08
7.35645e-10
2.60013e-08
7.12227e-10
2.57351e-08
6.896e-10
2.54752e-08
6.67711e-10
2.52217e-08
6.4651e-10
2.49744e-08
6.25952e-10
2.47334e-08
6.0599e-10
2.44985e-08
5.86583e-10
2.42698e-08
5.6769e-10
2.40471e-08
5.49273e-10
2.38305e-08
5.31293e-10
2.362e-08
5.13715e-10
2.34153e-08
4.96505e-10
2.32167e-08
4.79628e-10
2.30239e-08
4.63053e-10
2.28371e-08
4.46747e-10
2.26561e-08
4.30679e-10
2.2481e-08
4.14821e-10
2.23117e-08
3.99143e-10
2.21484e-08
3.83617e-10
2.19909e-08
3.68214e-10
2.18393e-08
3.5291e-10
2.16936e-08
3.37678e-10
2.15539e-08
3.22493e-10
2.14201e-08
3.07333e-10
2.12924e-08
2.92174e-10
2.11708e-08
2.76996e-10
2.10554e-08
2.61779e-10
2.09461e-08
2.46503e-10
2.08431e-08
2.31145e-10
2.07465e-08
2.15677e-10
2.06563e-08
2.00068e-10
2.05727e-08
1.84273e-10
2.04958e-08
1.68239e-10
2.04257e-08
1.5191e-10
2.03624e-08
1.35234e-10
2.03061e-08
1.18188e-10
2.02567e-08
1.00813e-10
2.02142e-08
8.32556e-11
2.01783e-08
6.58103e-11
2.01485e-08
4.89236e-11
2.01241e-08
3.31019e-11
2.01045e-08
1.85109e-11
2.00907e-08
4.9732e-12
2.00827e-08
-6.66835e-12
2.00795e-08
-1.54771e-11
2.00798e-08
-2.19045e-11
2.0083e-08
-2.63946e-11
2.00881e-08
-2.92312e-11
2.00948e-08
-3.07708e-11
2.01024e-08
-3.12544e-11
2.01106e-08
-3.09012e-11
2.01191e-08
-2.99277e-11
2.01277e-08
-2.84846e-11
2.0136e-08
-2.66756e-11
2.0144e-08
-2.4574e-11
2.01514e-08
-2.22057e-11
2.01579e-08
-1.94766e-11
-1.51872e-11
3.91933e-08
2.63325e-09
-3.90308e-08
3.93918e-08
2.98491e-09
3.95891e-08
3.22171e-09
3.97687e-08
3.3673e-09
3.99221e-08
3.44355e-09
4.00418e-08
3.46075e-09
4.01226e-08
3.42628e-09
4.01616e-08
3.34932e-09
4.01586e-08
3.24018e-09
4.01155e-08
3.10895e-09
4.00353e-08
2.96493e-09
3.99224e-08
2.81617e-09
3.97813e-08
2.66913e-09
3.96166e-08
2.5285e-09
3.94324e-08
2.39724e-09
3.92324e-08
2.27686e-09
3.90197e-08
2.16769e-09
3.87966e-08
2.0693e-09
3.85651e-08
1.98075e-09
3.83267e-08
1.90089e-09
3.80824e-08
1.82852e-09
3.78333e-08
1.76251e-09
3.75801e-08
1.70183e-09
3.73233e-08
1.64565e-09
3.70636e-08
1.59324e-09
3.68014e-08
1.54404e-09
3.65372e-08
1.49759e-09
3.62714e-08
1.45352e-09
3.60044e-08
1.41156e-09
3.57367e-08
1.37147e-09
3.54685e-08
1.33305e-09
3.52003e-08
1.29616e-09
3.49324e-08
1.26066e-09
3.4665e-08
1.22644e-09
3.43986e-08
1.1934e-09
3.41333e-08
1.16145e-09
3.38695e-08
1.13051e-09
3.36074e-08
1.10051e-09
3.33472e-08
1.0714e-09
3.30892e-08
1.0431e-09
3.28336e-08
1.01556e-09
3.25805e-08
9.88733e-10
3.23301e-08
9.62571e-10
3.20827e-08
9.37028e-10
3.18384e-08
9.12062e-10
3.15972e-08
8.87631e-10
3.13595e-08
8.63697e-10
3.11253e-08
8.40224e-10
3.08947e-08
8.17174e-10
3.06678e-08
7.94513e-10
3.04449e-08
7.72207e-10
3.0226e-08
7.50222e-10
3.00112e-08
7.28527e-10
2.98006e-08
7.07088e-10
2.95943e-08
6.85873e-10
2.93925e-08
6.64852e-10
2.91953e-08
6.43993e-10
2.90027e-08
6.23265e-10
2.88149e-08
6.02637e-10
2.8632e-08
5.82079e-10
2.8454e-08
5.61561e-10
2.82812e-08
5.41053e-10
2.81136e-08
5.20525e-10
2.79513e-08
4.99949e-10
2.77945e-08
4.79298e-10
2.76433e-08
4.58544e-10
2.74978e-08
4.37661e-10
2.73582e-08
4.16625e-10
2.72245e-08
3.9541e-10
2.7097e-08
3.73992e-10
2.69758e-08
3.52343e-10
2.68611e-08
3.30431e-10
2.67529e-08
3.08217e-10
2.66515e-08
2.85658e-10
2.65571e-08
2.62706e-10
2.64697e-08
2.39316e-10
2.63894e-08
2.15468e-10
2.63164e-08
1.9119e-10
2.62506e-08
1.66598e-10
2.6192e-08
1.41936e-10
2.61402e-08
1.17606e-10
2.60949e-08
9.41578e-11
2.60559e-08
7.21891e-11
2.60222e-08
5.21361e-11
2.59929e-08
3.42641e-11
2.59678e-08
1.8475e-11
2.59479e-08
4.43864e-12
2.59333e-08
-7.33272e-12
2.59231e-08
-1.62372e-11
2.59166e-08
-2.26722e-11
2.5913e-08
-2.71459e-11
2.59117e-08
-2.99669e-11
2.59122e-08
-3.14367e-11
2.59141e-08
-3.18573e-11
2.59171e-08
-3.14419e-11
2.59208e-08
-3.03444e-11
2.59249e-08
-2.86727e-11
2.59291e-08
-2.64344e-11
2.59329e-08
-2.33095e-11
-1.7223e-11
4.07572e-08
2.49547e-09
-4.06195e-08
4.09344e-08
2.80774e-09
4.11225e-08
3.03357e-09
4.1307e-08
3.18286e-09
4.14801e-08
3.27044e-09
4.16356e-08
3.30528e-09
4.1768e-08
3.29384e-09
4.18737e-08
3.24362e-09
4.19508e-08
3.16312e-09
4.19988e-08
3.06088e-09
4.20189e-08
2.94487e-09
4.2013e-08
2.82211e-09
4.19837e-08
2.69843e-09
4.19339e-08
2.57822e-09
4.18667e-08
2.4645e-09
4.17846e-08
2.35898e-09
4.16899e-08
2.26238e-09
4.15845e-08
2.17465e-09
4.147e-08
2.09525e-09
4.13475e-08
2.02336e-09
4.1218e-08
1.95806e-09
4.10821e-08
1.89842e-09
4.09403e-08
1.84358e-09
4.07932e-08
1.79279e-09
4.0641e-08
1.7454e-09
4.04842e-08
1.7009e-09
4.03229e-08
1.65884e-09
4.01576e-08
1.61888e-09
3.99884e-08
1.58074e-09
3.98157e-08
1.54419e-09
3.96397e-08
1.50904e-09
3.94607e-08
1.47514e-09
3.9279e-08
1.44237e-09
3.90948e-08
1.4106e-09
3.89085e-08
1.37976e-09
3.87202e-08
1.34974e-09
3.85302e-08
1.32049e-09
3.83388e-08
1.29193e-09
3.81462e-08
1.264e-09
3.79526e-08
1.23666e-09
3.77583e-08
1.20984e-09
3.75636e-08
1.18351e-09
3.73685e-08
1.15762e-09
3.71734e-08
1.13213e-09
3.69785e-08
1.107e-09
3.67839e-08
1.0822e-09
3.65899e-08
1.05769e-09
3.63967e-08
1.03343e-09
3.62045e-08
1.00941e-09
3.60134e-08
9.85572e-10
3.58237e-08
9.619e-10
3.56356e-08
9.38358e-10
3.54492e-08
9.14917e-10
3.52647e-08
8.91545e-10
3.50824e-08
8.68212e-10
3.49024e-08
8.44886e-10
3.47248e-08
8.21536e-10
3.455e-08
7.98132e-10
3.4378e-08
7.74642e-10
3.4209e-08
7.51035e-10
3.40433e-08
7.27279e-10
3.3881e-08
7.03344e-10
3.37223e-08
6.79198e-10
3.35675e-08
6.54812e-10
3.34166e-08
6.30154e-10
3.32699e-08
6.05196e-10
3.31277e-08
5.79909e-10
3.29901e-08
5.54267e-10
3.28572e-08
5.28241e-10
3.27294e-08
5.01804e-10
3.26068e-08
4.74926e-10
3.24897e-08
4.47573e-10
3.23782e-08
4.19709e-10
3.22726e-08
3.91294e-10
3.2173e-08
3.62294e-10
3.20796e-08
3.32687e-10
3.19926e-08
3.02492e-10
3.1912e-08
2.71791e-10
3.18378e-08
2.4077e-10
3.177e-08
2.09755e-10
3.17084e-08
1.79223e-10
3.16527e-08
1.49779e-10
3.16029e-08
1.22061e-10
3.15584e-08
9.65863e-11
3.1519e-08
7.37012e-11
3.14839e-08
5.35189e-11
3.14523e-08
3.60572e-11
3.14238e-08
2.1155e-11
3.13992e-08
8.3978e-12
3.13788e-08
-2.27844e-12
3.13623e-08
-1.06126e-11
3.1349e-08
-1.67073e-11
3.13386e-08
-2.09722e-11
3.13305e-08
-2.37687e-11
3.13244e-08
-2.53422e-11
3.13199e-08
-2.58819e-11
3.13168e-08
-2.55261e-11
3.13146e-08
-2.4281e-11
3.1313e-08
-2.17228e-11
-1.55436e-11
4.23719e-08
2.37715e-09
-4.22536e-08
4.25273e-08
2.65234e-09
4.26982e-08
2.8627e-09
4.28712e-08
3.00986e-09
4.3039e-08
3.10265e-09
4.3196e-08
3.14822e-09
4.33377e-08
3.15216e-09
4.34606e-08
3.12071e-09
4.35628e-08
3.06099e-09
4.36434e-08
2.98028e-09
4.37028e-08
2.88548e-09
4.37421e-08
2.78278e-09
4.37631e-08
2.67738e-09
4.3768e-08
2.57336e-09
4.37589e-08
2.47365e-09
4.37377e-08
2.38009e-09
4.37065e-08
2.29363e-09
4.36666e-08
2.2145e-09
4.36194e-08
2.14249e-09
4.35657e-08
2.07704e-09
4.35063e-08
2.01746e-09
4.34417e-08
1.96303e-09
4.33723e-08
1.91302e-09
4.32983e-08
1.86679e-09
4.32199e-08
1.82375e-09
4.31374e-08
1.78343e-09
4.30508e-08
1.74542e-09
4.29603e-08
1.70938e-09
4.2866e-08
1.67504e-09
4.2768e-08
1.64216e-09
4.26665e-08
1.61056e-09
4.25616e-08
1.58009e-09
4.24533e-08
1.5506e-09
4.2342e-08
1.52198e-09
4.22276e-08
1.49414e-09
4.21103e-08
1.46699e-09
4.19904e-08
1.44045e-09
4.18678e-08
1.41445e-09
4.17429e-08
1.38893e-09
4.16158e-08
1.36383e-09
4.14865e-08
1.3391e-09
4.13553e-08
1.3147e-09
4.12224e-08
1.29057e-09
4.10878e-08
1.26668e-09
4.09518e-08
1.24299e-09
4.08145e-08
1.21946e-09
4.06762e-08
1.19605e-09
4.05369e-08
1.17272e-09
4.03968e-08
1.14945e-09
4.02562e-08
1.1262e-09
4.01152e-08
1.10293e-09
3.99739e-08
1.07962e-09
3.98326e-08
1.05622e-09
3.96915e-08
1.03272e-09
3.95506e-08
1.00906e-09
3.94103e-08
9.85231e-10
3.92706e-08
9.61186e-10
3.91318e-08
9.36895e-10
3.89942e-08
9.12323e-10
3.88578e-08
8.87436e-10
3.87228e-08
8.622e-10
3.85896e-08
8.3658e-10
3.84583e-08
8.10543e-10
3.8329e-08
7.84055e-10
3.82021e-08
7.57083e-10
3.80777e-08
7.29595e-10
3.7956e-08
7.01558e-10
3.78374e-08
6.72944e-10
3.77219e-08
6.43722e-10
3.76098e-08
6.13862e-10
3.75014e-08
5.83333e-10
3.73969e-08
5.52102e-10
3.72965e-08
5.20138e-10
3.72003e-08
4.87409e-10
3.71087e-08
4.53897e-10
3.70218e-08
4.19608e-10
3.69397e-08
3.84597e-10
3.68625e-08
3.48997e-10
3.67902e-08
3.13049e-10
3.67229e-08
2.77134e-10
3.66603e-08
2.41777e-10
3.66025e-08
2.07607e-10
3.65493e-08
1.75271e-10
3.65005e-08
1.45316e-10
3.64561e-08
1.18126e-10
3.64157e-08
9.38969e-11
3.63791e-08
7.26936e-11
3.63458e-08
5.44154e-11
3.63153e-08
3.88823e-11
3.62872e-08
2.58849e-11
3.62615e-08
1.51151e-11
3.62385e-08
6.22215e-12
3.62185e-08
-9.75037e-13
3.62012e-08
-6.47394e-12
3.61863e-08
-1.04127e-11
3.61735e-08
-1.30315e-11
3.61624e-08
-1.44985e-11
3.6153e-08
-1.48391e-11
3.6145e-08
-1.36936e-11
-9.36174e-12
4.40404e-08
2.27353e-09
-4.39368e-08
4.41771e-08
2.51568e-09
4.43307e-08
2.70906e-09
4.44896e-08
2.85099e-09
4.46464e-08
2.94582e-09
4.4796e-08
2.99862e-09
4.49341e-08
3.01403e-09
4.50577e-08
2.99718e-09
4.51647e-08
2.95399e-09
4.52543e-08
2.89065e-09
4.53266e-08
2.81313e-09
4.53826e-08
2.72685e-09
4.54234e-08
2.63649e-09
4.5451e-08
2.54581e-09
4.5467e-08
2.45762e-09
4.54733e-08
2.37381e-09
4.54714e-08
2.2955e-09
4.54628e-08
2.22316e-09
4.54484e-08
2.15682e-09
4.54293e-08
2.09617e-09
4.5406e-08
2.04074e-09
4.53791e-08
1.98998e-09
4.53488e-08
1.9433e-09
4.53154e-08
1.90017e-09
4.52791e-08
1.86009e-09
4.52399e-08
1.82263e-09
4.51979e-08
1.7874e-09
4.51532e-08
1.7541e-09
4.51058e-08
1.72245e-09
4.50557e-08
1.69225e-09
4.5003e-08
1.66329e-09
4.49476e-08
1.63542e-09
4.48897e-08
1.6085e-09
4.48293e-08
1.58242e-09
4.47664e-08
1.55707e-09
4.4701e-08
1.53236e-09
4.46332e-08
1.50821e-09
4.45631e-08
1.48454e-09
4.44908e-08
1.46129e-09
4.44162e-08
1.43839e-09
4.43395e-08
1.4158e-09
4.42608e-08
1.39345e-09
4.418e-08
1.37131e-09
4.40974e-08
1.34931e-09
4.4013e-08
1.32742e-09
4.39268e-08
1.3056e-09
4.38391e-08
1.2838e-09
4.37498e-08
1.26198e-09
4.36592e-08
1.24012e-09
4.35672e-08
1.21815e-09
4.34741e-08
1.19606e-09
4.33799e-08
1.1738e-09
4.32848e-08
1.15134e-09
4.31889e-08
1.12863e-09
4.30923e-08
1.10564e-09
4.29952e-08
1.08234e-09
4.28977e-08
1.05867e-09
4.28e-08
1.03461e-09
4.27022e-08
1.01012e-09
4.26045e-08
9.85148e-10
4.2507e-08
9.59666e-10
4.24099e-08
9.33633e-10
4.23135e-08
9.0701e-10
4.22178e-08
8.79758e-10
4.2123e-08
8.51839e-10
4.20294e-08
8.23218e-10
4.19371e-08
7.93859e-10
4.18463e-08
7.63728e-10
4.17572e-08
7.32792e-10
4.16701e-08
7.01018e-10
4.1585e-08
6.68376e-10
4.15023e-08
6.34834e-10
4.14221e-08
6.00365e-10
4.13445e-08
5.64949e-10
4.12699e-08
5.28585e-10
4.11982e-08
4.91302e-10
4.11296e-08
4.53187e-10
4.10642e-08
4.14409e-10
4.1002e-08
3.75249e-10
4.0943e-08
3.36119e-10
4.08872e-08
2.9756e-10
4.08346e-08
2.60202e-10
4.07852e-08
2.24684e-10
4.07389e-08
1.91556e-10
4.06958e-08
1.61218e-10
4.06558e-08
1.33904e-10
4.06188e-08
1.0971e-10
4.05846e-08
8.85894e-11
4.05531e-08
7.04065e-11
4.0524e-08
5.4963e-11
4.04972e-08
4.19781e-11
4.04722e-08
3.11927e-11
4.04489e-08
2.23533e-11
4.04272e-08
1.51985e-11
4.04073e-08
9.50474e-12
4.03892e-08
5.08279e-12
4.03729e-08
1.82313e-12
4.03583e-08
-2.32187e-13
4.03454e-08
-8.6071e-13
5.07869e-13
4.57646e-08
2.18123e-09
-4.56723e-08
4.58856e-08
2.39464e-09
4.60236e-08
2.57105e-09
4.61687e-08
2.70594e-09
4.63139e-08
2.80064e-09
4.64542e-08
2.85834e-09
4.65855e-08
2.88266e-09
4.6705e-08
2.87774e-09
4.68105e-08
2.84842e-09
4.69013e-08
2.79988e-09
4.69772e-08
2.73725e-09
4.70388e-08
2.66527e-09
4.70872e-08
2.58808e-09
4.71239e-08
2.50914e-09
4.71504e-08
2.43111e-09
4.71683e-08
2.35589e-09
4.71791e-08
2.28469e-09
4.71841e-08
2.21819e-09
4.71843e-08
2.15659e-09
4.71806e-08
2.09982e-09
4.71738e-08
2.0476e-09
4.71642e-08
1.99953e-09
4.71523e-08
1.95518e-09
4.71384e-08
1.91412e-09
4.71226e-08
1.87592e-09
4.7105e-08
1.84021e-09
4.70857e-08
1.80667e-09
4.70648e-08
1.77501e-09
4.70423e-08
1.74497e-09
4.70182e-08
1.71636e-09
4.69925e-08
1.68899e-09
4.69652e-08
1.6627e-09
4.69363e-08
1.63737e-09
4.69059e-08
1.61287e-09
4.68739e-08
1.5891e-09
4.68402e-08
1.56597e-09
4.68051e-08
1.54339e-09
4.67683e-08
1.5213e-09
4.673e-08
1.49961e-09
4.66901e-08
1.47827e-09
4.66487e-08
1.45721e-09
4.66057e-08
1.43639e-09
4.65613e-08
1.41574e-09
4.65154e-08
1.39523e-09
4.6468e-08
1.37479e-09
4.64192e-08
1.35438e-09
4.63691e-08
1.33396e-09
4.63176e-08
1.31348e-09
4.62648e-08
1.29291e-09
4.62108e-08
1.27219e-09
4.61555e-08
1.25129e-09
4.60992e-08
1.23016e-09
4.60418e-08
1.20876e-09
4.59833e-08
1.18704e-09
4.5924e-08
1.16498e-09
4.58638e-08
1.14251e-09
4.58029e-08
1.1196e-09
4.57413e-08
1.09621e-09
4.56791e-08
1.07228e-09
4.56165e-08
1.04778e-09
4.55535e-08
1.02267e-09
4.54903e-08
9.96886e-10
4.54269e-08
9.704e-10
4.53635e-08
9.43164e-10
4.53002e-08
9.15136e-10
4.52371e-08
8.86275e-10
4.51744e-08
8.56543e-10
4.51123e-08
8.259e-10
4.50507e-08
7.94312e-10
4.499e-08
7.61743e-10
4.49302e-08
7.28163e-10
4.48715e-08
6.93541e-10
4.4814e-08
6.57857e-10
4.47579e-08
6.21101e-10
4.47032e-08
5.83285e-10
4.465e-08
5.4446e-10
4.45985e-08
5.04735e-10
4.45486e-08
4.64304e-10
4.45003e-08
4.23467e-10
4.44538e-08
3.82646e-10
4.4409e-08
3.42375e-10
4.43659e-08
3.03265e-10
4.43247e-08
2.65931e-10
4.42853e-08
2.3091e-10
4.4248e-08
1.98606e-10
4.42126e-08
1.69274e-10
4.41793e-08
1.43031e-10
4.4148e-08
1.19868e-10
4.41187e-08
9.96811e-11
4.40914e-08
8.22983e-11
4.40659e-08
6.74806e-11
4.40421e-08
5.49866e-11
4.40199e-08
4.45684e-11
4.39991e-08
3.59631e-11
4.39797e-08
2.89421e-11
4.39614e-08
2.33208e-11
4.39443e-08
1.89554e-11
4.39283e-08
1.5751e-11
4.39138e-08
1.3653e-11
1.22038e-11
4.75466e-08
2.09791e-09
-4.74633e-08
4.76547e-08
2.2866e-09
4.77789e-08
2.44685e-09
4.79111e-08
2.57374e-09
4.8045e-08
2.66674e-09
4.81758e-08
2.72754e-09
4.82997e-08
2.75875e-09
4.84138e-08
2.76363e-09
4.85161e-08
2.7461e-09
4.86056e-08
2.71042e-09
4.86819e-08
2.66093e-09
4.87455e-08
2.60173e-09
4.87971e-08
2.53648e-09
4.88379e-08
2.4683e-09
4.88693e-08
2.39968e-09
4.88927e-08
2.33249e-09
4.89094e-08
2.26799e-09
4.89207e-08
2.20697e-09
4.89274e-08
2.14981e-09
4.89307e-08
2.09662e-09
4.8931e-08
2.04727e-09
4.8929e-08
2.00152e-09
4.89251e-08
1.95908e-09
4.89196e-08
1.9196e-09
4.89128e-08
1.88275e-09
4.89048e-08
1.84823e-09
4.88957e-08
1.81576e-09
4.88856e-08
1.78508e-09
4.88746e-08
1.75597e-09
4.88627e-08
1.72825e-09
4.885e-08
1.70173e-09
4.88364e-08
1.67629e-09
4.8822e-08
1.65179e-09
4.88067e-08
1.62812e-09
4.87906e-08
1.60519e-09
4.87737e-08
1.58289e-09
4.87559e-08
1.56115e-09
4.87373e-08
1.5399e-09
4.87179e-08
1.51906e-09
4.86976e-08
1.49857e-09
4.86764e-08
1.47838e-09
4.86544e-08
1.45842e-09
4.86315e-08
1.43865e-09
4.86077e-08
1.419e-09
4.85831e-08
1.39944e-09
4.85575e-08
1.37991e-09
4.85311e-08
1.36036e-09
4.85039e-08
1.34075e-09
4.84757e-08
1.32103e-09
4.84468e-08
1.30116e-09
4.84169e-08
1.28109e-09
4.83863e-08
1.26078e-09
4.83549e-08
1.24018e-09
4.83227e-08
1.21924e-09
4.82898e-08
1.19791e-09
4.82561e-08
1.17616e-09
4.82218e-08
1.15393e-09
4.81868e-08
1.13117e-09
4.81513e-08
1.10784e-09
4.81152e-08
1.08389e-09
4.80785e-08
1.05927e-09
4.80415e-08
1.03393e-09
4.80041e-08
1.00783e-09
4.79663e-08
9.8091e-10
4.79283e-08
9.53133e-10
4.78901e-08
9.24453e-10
4.78519e-08
8.94827e-10
4.78135e-08
8.64214e-10
4.77753e-08
8.32577e-10
4.77371e-08
7.99879e-10
4.76992e-08
7.66091e-10
4.76616e-08
7.31186e-10
4.76243e-08
6.95148e-10
4.75874e-08
6.57976e-10
4.7551e-08
6.19695e-10
4.75151e-08
5.80371e-10
4.74797e-08
5.40129e-10
4.74448e-08
4.99175e-10
4.74105e-08
4.57812e-10
4.73767e-08
4.16457e-10
4.73434e-08
3.75621e-10
4.73108e-08
3.3588e-10
4.72789e-08
2.97815e-10
4.72479e-08
2.61938e-10
4.72179e-08
2.28646e-10
4.71889e-08
1.98204e-10
4.71612e-08
1.70746e-10
4.71348e-08
1.46292e-10
4.71097e-08
1.24766e-10
4.7086e-08
1.06024e-10
4.70636e-08
8.98622e-11
4.70425e-08
7.60605e-11
4.70227e-08
6.43894e-11
4.70041e-08
5.4607e-11
4.69865e-08
4.64944e-11
4.697e-08
3.98649e-11
4.69544e-08
3.4554e-11
4.69397e-08
3.04041e-11
4.69262e-08
2.71749e-11
2.38875e-11
4.93889e-08
2.0219e-09
-4.93129e-08
4.94861e-08
2.18942e-09
4.95981e-08
2.33478e-09
4.97186e-08
2.45331e-09
4.98418e-08
2.5435e-09
4.99634e-08
2.60593e-09
5.00798e-08
2.64234e-09
5.01882e-08
2.65522e-09
5.02867e-08
2.64766e-09
5.03739e-08
2.62314e-09
5.04496e-08
2.58528e-09
5.05137e-08
2.53758e-09
5.0567e-08
2.48325e-09
5.06102e-08
2.42506e-09
5.06446e-08
2.36532e-09
5.06712e-08
2.3058e-09
5.06914e-08
2.2478e-09
5.07062e-08
2.19218e-09
5.07166e-08
2.13944e-09
5.07234e-08
2.08982e-09
5.07273e-08
2.04334e-09
5.07289e-08
1.9999e-09
5.07287e-08
1.9593e-09
5.0727e-08
1.92131e-09
5.07241e-08
1.88569e-09
5.07201e-08
1.85217e-09
5.07153e-08
1.82055e-09
5.07098e-08
1.79059e-09
5.07037e-08
1.76211e-09
5.0697e-08
1.73494e-09
5.06898e-08
1.70893e-09
5.06822e-08
1.68395e-09
5.06741e-08
1.65988e-09
5.06656e-08
1.63661e-09
5.06567e-08
1.61406e-09
5.06475e-08
1.59214e-09
5.06378e-08
1.57077e-09
5.06278e-08
1.54988e-09
5.06175e-08
1.52941e-09
5.06068e-08
1.50928e-09
5.05957e-08
1.48946e-09
5.05843e-08
1.46987e-09
5.05724e-08
1.45047e-09
5.05602e-08
1.43121e-09
5.05476e-08
1.41204e-09
5.05346e-08
1.3929e-09
5.05212e-08
1.37376e-09
5.05074e-08
1.35456e-09
5.04932e-08
1.33526e-09
5.04786e-08
1.31581e-09
5.04635e-08
1.29617e-09
5.0448e-08
1.27628e-09
5.04321e-08
1.25611e-09
5.04157e-08
1.2356e-09
5.03989e-08
1.2147e-09
5.03817e-08
1.19338e-09
5.03641e-08
1.17156e-09
5.0346e-08
1.14922e-09
5.03276e-08
1.1263e-09
5.03087e-08
1.10274e-09
5.02895e-08
1.0785e-09
5.02699e-08
1.05352e-09
5.025e-08
1.02776e-09
5.02297e-08
1.00117e-09
5.02091e-08
9.73698e-10
5.01883e-08
9.45299e-10
5.01672e-08
9.15929e-10
5.01459e-08
8.85547e-10
5.01243e-08
8.54115e-10
5.01026e-08
8.21596e-10
5.00807e-08
7.87963e-10
5.00587e-08
7.53194e-10
5.00366e-08
7.17277e-10
5.00144e-08
6.80222e-10
4.9992e-08
6.42062e-10
4.99695e-08
6.02875e-10
4.99468e-08
5.62794e-10
4.9924e-08
5.2203e-10
4.99009e-08
4.80881e-10
4.98776e-08
4.39743e-10
4.98541e-08
3.99097e-10
4.98305e-08
3.59477e-10
4.98069e-08
3.21421e-10
4.97835e-08
2.85408e-10
4.97603e-08
2.51823e-10
4.97376e-08
2.20929e-10
4.97154e-08
1.92876e-10
4.9694e-08
1.67704e-10
4.96734e-08
1.45365e-10
4.96537e-08
1.25741e-10
4.96349e-08
1.0866e-10
4.9617e-08
9.39273e-11
4.96001e-08
8.13325e-11
4.9584e-08
7.06569e-11
4.95688e-08
6.16946e-11
4.95544e-08
5.42616e-11
4.95408e-08
4.81829e-11
4.9528e-08
4.32639e-11
4.9516e-08
3.91713e-11
3.48797e-11
5.12939e-08
1.95203e-09
-5.1224e-08
5.13818e-08
2.10145e-09
5.14833e-08
2.23333e-09
5.1593e-08
2.34358e-09
5.17063e-08
2.43023e-09
5.18191e-08
2.49313e-09
5.19281e-08
2.53333e-09
5.20307e-08
2.55263e-09
5.21249e-08
2.55343e-09
5.22095e-08
2.53853e-09
5.22839e-08
2.5109e-09
5.2348e-08
2.47352e-09
5.24021e-08
2.42914e-09
5.24469e-08
2.38022e-09
5.24834e-08
2.32885e-09
5.25125e-08
2.2767e-09
5.25353e-08
2.22504e-09
5.25527e-08
2.17478e-09
5.25656e-08
2.1265e-09
5.25749e-08
2.08055e-09
5.25812e-08
2.03705e-09
5.25851e-08
1.99603e-09
5.2587e-08
1.95738e-09
5.25873e-08
1.92097e-09
5.25864e-08
1.88661e-09
5.25844e-08
1.85413e-09
5.25816e-08
1.82334e-09
5.25782e-08
1.79406e-09
5.25741e-08
1.76615e-09
5.25696e-08
1.73945e-09
5.25647e-08
1.71382e-09
5.25595e-08
1.68917e-09
5.2554e-08
1.66537e-09
5.25483e-08
1.64233e-09
5.25424e-08
1.61997e-09
5.25363e-08
1.59822e-09
5.25301e-08
1.57699e-09
5.25238e-08
1.55622e-09
5.25173e-08
1.53586e-09
5.25108e-08
1.51583e-09
5.25041e-08
1.4961e-09
5.24974e-08
1.4766e-09
5.24906e-08
1.45729e-09
5.24837e-08
1.43811e-09
5.24767e-08
1.41902e-09
5.24696e-08
1.39998e-09
5.24625e-08
1.38093e-09
5.24552e-08
1.36183e-09
5.24478e-08
1.34263e-09
5.24403e-08
1.32329e-09
5.24327e-08
1.30377e-09
5.2425e-08
1.28401e-09
5.24171e-08
1.26398e-09
5.24091e-08
1.24361e-09
5.2401e-08
1.22287e-09
5.23926e-08
1.2017e-09
5.23841e-08
1.18006e-09
5.23755e-08
1.15789e-09
5.23666e-08
1.13515e-09
5.23576e-08
1.11178e-09
5.23483e-08
1.08774e-09
5.23389e-08
1.06297e-09
5.23292e-08
1.03742e-09
5.23194e-08
1.01105e-09
5.23093e-08
9.838e-10
5.22989e-08
9.55634e-10
5.22884e-08
9.26504e-10
5.22775e-08
8.96371e-10
5.22665e-08
8.65196e-10
5.22551e-08
8.32948e-10
5.22435e-08
7.996e-10
5.22315e-08
7.65136e-10
5.22192e-08
7.29552e-10
5.22066e-08
6.92863e-10
5.21936e-08
6.55113e-10
5.218e-08
6.16387e-10
5.2166e-08
5.76823e-10
5.21514e-08
5.36629e-10
5.21362e-08
4.96093e-10
5.21204e-08
4.55587e-10
5.21039e-08
4.15555e-10
5.20869e-08
3.76486e-10
5.20694e-08
3.38871e-10
5.20517e-08
3.03158e-10
5.20338e-08
2.69707e-10
5.2016e-08
2.3878e-10
5.19983e-08
2.10533e-10
5.1981e-08
1.85024e-10
5.19641e-08
1.62229e-10
5.19478e-08
1.42056e-10
5.19321e-08
1.24363e-10
5.1917e-08
1.08977e-10
5.19027e-08
9.57106e-11
5.1889e-08
8.43675e-11
5.18759e-08
7.47561e-11
5.18635e-08
6.66977e-11
5.18516e-08
6.00142e-11
5.18404e-08
5.44946e-11
5.18298e-08
4.97905e-11
4.50658e-11
5.32642e-08
1.88745e-09
-5.31996e-08
5.33443e-08
2.02136e-09
5.34364e-08
2.14121e-09
5.35365e-08
2.24351e-09
5.36405e-08
2.32621e-09
5.37449e-08
2.38871e-09
5.38467e-08
2.43151e-09
5.39435e-08
2.45587e-09
5.40333e-08
2.4636e-09
5.41149e-08
2.45692e-09
5.41876e-08
2.43824e-09
5.4251e-08
2.41004e-09
5.43055e-08
2.37467e-09
5.43514e-08
2.3343e-09
5.43895e-08
2.29077e-09
5.44205e-08
2.24565e-09
5.44454e-08
2.20016e-09
5.4465e-08
2.15519e-09
5.44801e-08
2.11141e-09
5.44914e-08
2.0692e-09
5.44997e-08
2.02882e-09