/*--------------------------------*- C++ -*----------------------------------*\
| =========                 |                                                 |
| \\      /  F ield         | OpenFOAM: The Open Source CFD Toolbox           |
|  \\    /   O peration     | Version:  2.3.0                                 |
|   \\  /    A nd           | Web:      www.OpenFOAM.org                      |
|    \\/     M anipulation  |                                                 |
\*---------------------------------------------------------------------------*/
FoamFile
{
    version     2.0;
    format      ascii;
    class       surfaceScalarField;
    location    "0.25";
    object      phi_0;
}
// * * * * * * * * * * * * * * * * * * * * * * * * * * * * * * * * * * * * * //

dimensions      [0 3 -1 0 0 0 0];

internalField   nonuniform List<scalar> 
5764
(
1.97586e-08
4.96356e-09
-2.47222e-08
1.46895e-08
5.06913e-09
1.08566e-08
3.83286e-09
8.2113e-09
2.64535e-09
6.56693e-09
1.64437e-09
5.626e-09
9.40921e-10
5.03546e-09
5.90543e-10
4.64495e-09
3.90508e-10
4.37344e-09
2.71515e-10
4.14655e-09
2.26886e-10
3.93922e-09
2.07329e-10
3.75809e-09
1.81137e-10
3.59927e-09
1.58819e-10
3.45275e-09
1.46513e-10
3.32068e-09
1.3208e-10
3.20469e-09
1.1598e-10
3.10153e-09
1.03167e-10
3.00821e-09
9.33214e-11
2.92359e-09
8.46158e-11
2.84517e-09
7.84229e-11
2.77237e-09
7.27962e-11
2.7061e-09
6.62667e-11
2.64435e-09
6.17525e-11
2.58716e-09
5.71914e-11
2.5345e-09
5.26578e-11
2.48592e-09
4.85818e-11
2.44136e-09
4.45584e-11
2.39879e-09
4.25713e-11
2.36075e-09
3.80441e-11
2.3272e-09
3.35514e-11
2.29579e-09
3.14103e-11
2.26723e-09
2.85562e-11
2.23991e-09
2.73218e-11
2.2156e-09
2.43033e-11
2.1958e-09
1.98013e-11
2.17602e-09
1.97858e-11
2.15834e-09
1.76732e-11
2.14632e-09
1.20219e-11
2.13488e-09
1.14459e-11
2.12393e-09
1.09421e-11
2.11833e-09
5.60783e-12
2.11577e-09
2.55739e-12
2.11336e-09
2.41132e-12
2.11405e-09
-6.95975e-13
2.11821e-09
-4.15882e-12
2.12213e-09
-3.92099e-12
2.12673e-09
-4.59226e-12
2.13273e-09
-6.00534e-12
2.13683e-09
-4.0948e-12
2.13982e-09
-2.9891e-12
2.14373e-09
-3.91637e-12
2.14644e-09
-2.71338e-12
2.14818e-09
-1.73935e-12
2.15076e-09
-2.57892e-12
2.15277e-09
-2.00288e-12
2.15389e-09
-1.12518e-12
2.15546e-09
-1.56828e-12
2.15747e-09
-2.00562e-12
2.15944e-09
-1.97743e-12
2.16121e-09
-1.76947e-12
2.16246e-09
-1.25196e-12
2.1637e-09
-1.23233e-12
2.16499e-09
-1.2889e-12
2.1659e-09
-9.1243e-13
2.16681e-09
-9.15085e-13
2.1679e-09
-1.09037e-12
2.16865e-09
-7.4832e-13
2.16924e-09
-5.89852e-13
2.16986e-09
-6.15555e-13
2.17036e-09
-5.03036e-13
2.17078e-09
-4.19927e-13
2.17128e-09
-4.97991e-13
2.1716e-09
-3.20092e-13
2.17178e-09
-1.81748e-13
-2.25144e-13
2.69764e-08
5.11126e-09
-2.71241e-08
2.555e-08
6.49551e-09
2.35409e-08
5.84194e-09
2.12353e-08
4.95097e-09
1.91291e-08
3.75057e-09
1.73789e-08
2.6911e-09
1.59007e-08
2.06879e-09
1.4717e-08
1.57418e-09
1.3777e-08
1.2115e-09
1.29949e-08
1.00904e-09
1.23275e-08
8.74677e-10
1.17535e-08
7.55142e-10
1.12482e-08
6.64128e-10
1.07932e-08
6.01537e-10
1.03868e-08
5.38519e-10
1.00256e-08
4.77164e-10
9.70193e-09
4.26826e-10
9.40849e-09
3.86762e-10
9.14012e-09
3.52982e-10
8.89214e-09
3.26402e-10
8.66324e-09
3.01696e-10
8.45294e-09
2.76572e-10
8.25786e-09
2.56831e-10
8.07763e-09
2.37422e-10
7.9113e-09
2.18991e-10
7.75788e-09
2.01996e-10
7.61621e-09
1.8623e-10
7.48351e-09
1.75274e-10
7.36321e-09
1.58342e-10
7.25404e-09
1.42722e-10
7.1529e-09
1.32549e-10
7.06047e-09
1.20988e-10
6.9748e-09
1.12989e-10
6.89854e-09
1.0056e-10
6.83227e-09
8.60721e-11
6.77089e-09
8.11711e-11
6.71812e-09
7.04418e-11
6.67666e-09
5.34833e-11
6.64001e-09
4.80977e-11
6.60957e-09
4.13744e-11
6.59047e-09
2.471e-11
6.5787e-09
1.43287e-11
6.57102e-09
1.00896e-11
6.57077e-09
-4.44057e-13
6.57678e-09
-1.01692e-11
6.58379e-09
-1.09291e-11
6.59248e-09
-1.32823e-11
6.60251e-09
-1.60314e-11
6.60977e-09
-1.1358e-11
6.61579e-09
-9.01157e-12
6.62246e-09
-1.05897e-11
6.62726e-09
-7.50549e-12
6.63116e-09
-5.64596e-12
6.63598e-09
-7.3988e-12
6.63988e-09
-5.89708e-12
6.64307e-09
-4.3191e-12
6.6471e-09
-5.59397e-12
6.6516e-09
-6.50794e-12
6.65586e-09
-6.2431e-12
6.65967e-09
-5.57492e-12
6.66277e-09
-4.35101e-12
6.66582e-09
-4.28054e-12
6.66875e-09
-4.22477e-12
6.67115e-09
-3.3056e-12
6.6735e-09
-3.26934e-12
6.67586e-09
-3.45083e-12
6.67766e-09
-2.54495e-12
6.67923e-09
-2.16154e-12
6.68071e-09
-2.09368e-12
6.68194e-09
-1.73341e-12
6.68298e-09
-1.46211e-12
6.68402e-09
-1.53756e-12
6.68471e-09
-1.0121e-12
6.68525e-09
-7.2103e-13
-7.11781e-13
2.84462e-08
4.54626e-09
-2.78812e-08
2.89363e-08
6.00538e-09
2.8559e-08
6.21926e-09
2.77602e-08
5.74969e-09
2.66933e-08
4.81748e-09
2.55174e-08
3.86701e-09
2.43123e-08
3.27387e-09
2.31963e-08
2.69019e-09
2.21785e-08
2.2293e-09
2.12312e-08
1.95638e-09
2.03628e-08
1.7431e-09
1.9576e-08
1.54194e-09
1.88539e-08
1.38621e-09
1.81848e-08
1.27067e-09
1.75714e-08
1.15192e-09
1.70123e-08
1.03626e-09
1.65027e-08
9.36399e-10
1.60361e-08
8.5339e-10
1.56058e-08
7.83246e-10
1.52053e-08
7.26875e-10
1.48326e-08
6.74454e-10
1.44867e-08
6.22473e-10
1.41639e-08
5.79571e-10
1.38642e-08
5.37195e-10
1.35858e-08
4.97381e-10
1.33274e-08
4.60314e-10
1.30877e-08
4.2601e-10
1.2863e-08
3.99952e-10
1.26573e-08
3.64015e-10
1.24685e-08
3.31565e-10
1.22929e-08
3.08166e-10
1.21315e-08
2.82301e-10
1.19822e-08
2.62312e-10
1.18478e-08
2.34971e-10
1.17288e-08
2.05104e-10
1.16197e-08
1.90213e-10
1.15248e-08
1.65327e-10
1.14465e-08
1.31814e-10
1.13778e-08
1.16842e-10
1.13203e-08
9.88185e-11
1.12791e-08
6.59003e-11
1.12496e-08
4.38381e-11
1.1228e-08
3.17576e-11
1.12173e-08
1.01709e-11
1.1216e-08
-8.79034e-12
1.12177e-08
-1.26475e-11
1.12225e-08
-1.81359e-11
1.12299e-08
-2.33818e-11
1.1235e-08
-1.64371e-11
1.12392e-08
-1.32492e-11
1.12444e-08
-1.58121e-11
1.1248e-08
-1.106e-11
1.1251e-08
-8.68397e-12
1.12553e-08
-1.16851e-11
1.12589e-08
-9.51711e-12
1.12622e-08
-7.63405e-12
1.12667e-08
-1.01007e-11
1.1272e-08
-1.17279e-11
1.12771e-08
-1.13666e-11
1.12818e-08
-1.02637e-11
1.12858e-08
-8.32879e-12
1.12898e-08
-8.27937e-12
1.12937e-08
-8.13681e-12
1.1297e-08
-6.6493e-12
1.13003e-08
-6.55653e-12
1.13035e-08
-6.69148e-12
1.13061e-08
-5.14499e-12
1.13085e-08
-4.4721e-12
1.13106e-08
-4.2223e-12
1.13124e-08
-3.53041e-12
1.13139e-08
-2.98455e-12
1.13153e-08
-2.97807e-12
1.13163e-08
-1.99709e-12
1.13172e-08
-1.56199e-12
-1.38382e-12
2.92315e-08
4.19434e-09
-2.88795e-08
2.97347e-08
5.50215e-09
3.01618e-08
5.79213e-09
3.02655e-08
5.646e-09
3.00384e-08
5.04458e-09
2.9587e-08
4.31837e-09
2.90405e-08
3.82044e-09
2.84245e-08
3.30617e-09
2.77793e-08
2.87449e-09
2.71094e-08
2.62629e-09
2.64369e-08
2.4156e-09
2.57771e-08
2.20169e-09
2.51297e-08
2.0336e-09
2.44941e-08
1.90634e-09
2.38791e-08
1.7669e-09
2.32887e-08
1.62664e-09
2.27277e-08
1.49744e-09
2.2198e-08
1.38308e-09
2.16999e-08
1.28136e-09
2.12285e-08
1.19827e-09
2.07811e-08
1.12185e-09
2.03571e-08
1.04644e-09
1.99541e-08
9.82568e-10
1.95744e-08
9.16902e-10
1.92171e-08
8.54649e-10
1.88812e-08
7.96272e-10
1.85659e-08
7.41308e-10
1.82681e-08
6.97775e-10
1.79929e-08
6.39204e-10
1.77374e-08
5.87005e-10
1.74974e-08
5.48208e-10
1.72745e-08
5.05163e-10
1.70662e-08
4.70657e-10
1.68759e-08
4.252e-10
1.67049e-08
3.76202e-10
1.65469e-08
3.48152e-10
1.64067e-08
3.05518e-10
1.6287e-08
2.51491e-10
1.61804e-08
2.23535e-10
1.60886e-08
1.90579e-10
1.60169e-08
1.37623e-10
1.59602e-08
1.00501e-10
1.59145e-08
7.74268e-11
1.58825e-08
4.219e-11
1.58625e-08
1.12704e-11
1.5848e-08
1.81532e-12
1.58397e-08
-9.80119e-12
1.58363e-08
-2.003e-11
1.58322e-08
-1.23632e-11
1.58287e-08
-9.75753e-12
1.58275e-08
-1.46083e-11
1.58254e-08
-8.88596e-12
1.58234e-08
-6.68292e-12
1.58235e-08
-1.18481e-11
1.58235e-08
-9.50888e-12
1.58238e-08
-7.95937e-12
1.5826e-08
-1.22719e-11
1.58296e-08
-1.53048e-11
1.58337e-08
-1.54343e-11
1.58376e-08
-1.41974e-11
1.58409e-08
-1.16761e-11
1.58446e-08
-1.19458e-11
1.58485e-08
-1.20233e-11
1.5852e-08
-1.01151e-11
1.58555e-08
-1.01094e-11
1.58592e-08
-1.03427e-11
1.58622e-08
-8.20142e-12
1.5865e-08
-7.2498e-12
1.58676e-08
-6.81649e-12
1.58698e-08
-5.77532e-12
1.58718e-08
-4.91514e-12
1.58736e-08
-4.76675e-12
1.58748e-08
-3.22646e-12
1.58759e-08
-2.63826e-12
-2.19637e-12
3.01333e-08
3.96369e-09
-2.99026e-08
3.05847e-08
5.0507e-09
3.10691e-08
5.30775e-09
3.12795e-08
5.43554e-09
3.14081e-08
4.91608e-09
3.13391e-08
4.38735e-09
3.12511e-08
3.90845e-09
3.10368e-08
3.52039e-09
3.07653e-08
3.14605e-09
3.04529e-08
2.93873e-09
3.01124e-08
2.75603e-09
2.97405e-08
2.57365e-09
2.93421e-08
2.43194e-09
2.89224e-08
2.32603e-09
2.84887e-08
2.20062e-09
2.80414e-08
2.07397e-09
2.75891e-08
1.9497e-09
2.71388e-08
1.83338e-09
2.67006e-08
1.71957e-09
2.62767e-08
1.62217e-09
2.58652e-08
1.53338e-09
2.54635e-08
1.44811e-09
2.50683e-08
1.37779e-09
2.46855e-08
1.29971e-09
2.43175e-08
1.22264e-09
2.39641e-08
1.1497e-09
2.36255e-08
1.07984e-09
2.33001e-08
1.02322e-09
2.29959e-08
9.43362e-10
2.27105e-08
8.7243e-10
2.24386e-08
8.20132e-10
2.21822e-08
7.61554e-10
2.19382e-08
7.14655e-10
2.17111e-08
6.52328e-10
2.15032e-08
5.84125e-10
2.13083e-08
5.42976e-10
2.11315e-08
4.82383e-10
2.09761e-08
4.06851e-10
2.08345e-08
3.65165e-10
2.07089e-08
3.16137e-10
2.06052e-08
2.41358e-10
2.05182e-08
1.87513e-10
2.04435e-08
1.5214e-10
2.03837e-08
1.01904e-10
2.03377e-08
5.73333e-11
2.02989e-08
4.06312e-11
2.02686e-08
2.05091e-11
2.02465e-08
2.03183e-12
2.02262e-08
7.89134e-12
2.02087e-08
7.78628e-12
2.01956e-08
-1.55687e-12
2.01832e-08
3.55401e-12
2.01719e-08
4.58579e-12
2.01635e-08
-3.40268e-12
2.01558e-08
-1.79039e-12
2.01493e-08
-1.44113e-12
2.01457e-08
-8.71614e-12
2.01446e-08
-1.42542e-11
2.01452e-08
-1.60191e-11
2.01463e-08
-1.52779e-11
2.0147e-08
-1.2405e-11
2.01485e-08
-1.34349e-11
2.01509e-08
-1.43578e-11
2.01532e-08
-1.2437e-11
2.01559e-08
-1.28571e-11
2.01592e-08
-1.35709e-11
2.0162e-08
-1.10835e-11
2.01648e-08
-1.00111e-11
2.01675e-08
-9.55051e-12
2.017e-08
-8.28122e-12
2.01723e-08
-7.1732e-12
2.01744e-08
-6.86519e-12
2.01758e-08
-4.66307e-12
2.01771e-08
-3.87473e-12
-3.08911e-12
3.11169e-08
3.77583e-09
-3.0929e-08
3.14772e-08
4.69042e-09
3.19511e-08
4.83382e-09
3.20599e-08
5.32679e-09
3.24354e-08
4.54054e-09
3.22772e-08
4.5455e-09
3.23659e-08
3.81983e-09
3.23753e-08
3.51098e-09
3.23174e-08
3.20393e-09
3.22228e-08
3.03332e-09
3.21128e-08
2.86603e-09
3.19676e-08
2.71879e-09
3.17933e-08
2.60625e-09
3.15964e-08
2.52298e-09
3.13805e-08
2.41654e-09
3.11347e-08
2.3197e-09
3.08641e-08
2.22038e-09
3.05698e-08
2.12761e-09
3.02673e-08
2.02207e-09
2.99672e-08
1.92232e-09
2.96722e-08
1.82835e-09
2.93774e-08
1.74297e-09
2.9073e-08
1.68214e-09
2.87649e-08
1.60785e-09
2.84587e-08
1.52876e-09
2.81562e-08
1.4522e-09
2.78579e-08
1.37816e-09
2.75626e-08
1.31852e-09
2.72822e-08
1.22377e-09
2.70161e-08
1.13858e-09
2.67591e-08
1.0771e-09
2.65129e-08
1.00779e-09
2.62729e-08
9.54601e-10
2.60438e-08
8.8146e-10
2.58292e-08
7.98682e-10
2.56241e-08
7.48129e-10
2.54333e-08
6.73202e-10
2.52611e-08
5.7901e-10
2.51e-08
5.26266e-10
2.49527e-08
4.63412e-10
2.48262e-08
3.67865e-10
2.4716e-08
2.9768e-10
2.46176e-08
2.50607e-10
2.45335e-08
1.86022e-10
2.44629e-08
1.2794e-10
2.43993e-08
1.04216e-10
2.43448e-08
7.49949e-11
2.43006e-08
4.62124e-11
2.42603e-08
4.81609e-11
2.42249e-08
4.32196e-11
2.41964e-08
2.69217e-11
2.41705e-08
2.94353e-11
2.4147e-08
2.81512e-11
2.41271e-08
1.64353e-11
2.41087e-08
1.66635e-11
2.40921e-08
1.50982e-11
2.40794e-08
4.01026e-12
2.40705e-08
-5.29516e-12
2.40649e-08
-1.04662e-11
2.40611e-08
-1.14918e-11
2.40573e-08
-8.57844e-12
2.40546e-08
-1.0784e-11
2.40536e-08
-1.33026e-11
2.40532e-08
-1.20088e-11
2.40537e-08
-1.33671e-11
2.40552e-08
-1.51423e-11
2.40569e-08
-1.27784e-11
2.40588e-08
-1.19048e-11
2.4061e-08
-1.17694e-11
2.40634e-08
-1.06192e-11
2.40658e-08
-9.54257e-12
2.40681e-08
-9.17746e-12
2.40697e-08
-6.26492e-12
2.4071e-08
-5.1816e-12
-3.97898e-12
3.21216e-08
3.61926e-09
-3.1965e-08
3.24344e-08
4.37758e-09
3.28123e-08
4.456e-09
3.30665e-08
5.07252e-09
3.31114e-08
4.49568e-09
3.33672e-08
4.28966e-09
3.33008e-08
3.8863e-09
3.33524e-08
3.45935e-09
3.33631e-08
3.19317e-09
3.33607e-08
3.03573e-09
3.33561e-08
2.87068e-09
3.33152e-08
2.7597e-09
3.32563e-08
2.66518e-09
3.31882e-08
2.59103e-09
3.31171e-08
2.48765e-09
3.30243e-08
2.41251e-09
3.29098e-08
2.33484e-09
3.27611e-08
2.27631e-09
3.25917e-08
2.19148e-09
3.2417e-08
2.09704e-09
3.22482e-08
1.99714e-09
3.20814e-08
1.90978e-09
3.18991e-08
1.86444e-09
3.17024e-08
1.80454e-09
3.14973e-08
1.73389e-09
3.12865e-08
1.66301e-09
3.107e-08
1.59465e-09
3.08462e-08
1.54231e-09
3.06297e-08
1.4403e-09
3.04217e-08
1.34658e-09
3.02188e-08
1.27999e-09
3.0022e-08
1.20455e-09
2.98253e-08
1.15136e-09
2.96315e-08
1.07518e-09
2.94446e-08
9.85659e-10
2.92609e-08
9.31793e-10
2.90854e-08
8.48677e-10
2.8923e-08
7.41464e-10
2.87662e-08
6.82983e-10
2.86179e-08
6.11726e-10
2.84862e-08
4.99597e-10
2.83684e-08
4.15502e-10
2.82602e-08
3.5877e-10
2.81642e-08
2.82008e-10
2.80801e-08
2.12063e-10
2.8001e-08
1.83319e-10
2.79293e-08
1.46719e-10
2.78675e-08
1.07945e-10
2.781e-08
1.05704e-10
2.77582e-08
9.50244e-11
2.77151e-08
7.00414e-11
2.76764e-08
6.81414e-11
2.76411e-08
6.33851e-11
2.76102e-08
4.73927e-11
2.75807e-08
4.61225e-11
2.75531e-08
4.2684e-11
2.75295e-08
2.7602e-11
2.75107e-08
1.3506e-11
2.74973e-08
2.9379e-12
2.74874e-08
-1.57519e-12
2.74781e-08
7.8764e-13
2.747e-08
-2.72541e-12
2.7464e-08
-7.26894e-12
2.74593e-08
-7.32057e-12
2.74563e-08
-1.04296e-11
2.7455e-08
-1.38558e-11
2.74544e-08
-1.20923e-11
2.74543e-08
-1.18485e-11
2.7455e-08
-1.24765e-11
2.74564e-08
-1.2023e-11
2.74584e-08
-1.1542e-11
2.74607e-08
-1.14348e-11
2.74623e-08
-7.93306e-12
2.74636e-08
-6.44727e-12
-4.76537e-12
3.31525e-08
3.47988e-09
-3.30131e-08
3.34196e-08
4.11048e-09
3.37229e-08
4.15268e-09
3.40138e-08
4.7816e-09
3.40459e-08
4.4636e-09
3.43565e-08
3.9791e-09
3.41188e-08
4.12404e-09
3.42664e-08
3.31172e-09
3.43342e-08
3.12538e-09
3.43623e-08
3.00764e-09
3.43803e-08
2.85266e-09
3.4372e-08
2.76802e-09
3.43432e-08
2.6939e-09
3.43295e-08
2.60482e-09
3.43159e-08
2.50119e-09
3.42989e-08
2.42957e-09
3.42725e-08
2.36116e-09
3.42162e-08
2.33267e-09
3.4137e-08
2.2707e-09
3.40469e-08
2.1871e-09
3.39654e-08
2.07869e-09
3.3894e-08
1.98114e-09
3.38112e-08
1.94726e-09
3.37139e-08
1.90183e-09
3.36051e-08
1.84264e-09
3.34866e-08
1.78155e-09
3.33562e-08
1.72498e-09
3.32119e-08
1.68662e-09
3.30703e-08
1.58193e-09
3.2933e-08
1.48385e-09
3.27992e-08
1.41382e-09
3.2669e-08
1.33474e-09
3.25354e-08
1.28498e-09
3.23995e-08
1.21104e-09
3.22629e-08
1.12233e-09
3.21235e-08
1.07113e-09
3.19861e-08
9.86156e-10
3.18556e-08
8.7193e-10
3.17252e-08
8.13415e-10
3.15965e-08
7.40438e-10
3.14781e-08
6.1792e-10
3.13697e-08
5.23914e-10
3.1268e-08
4.60505e-10
3.11755e-08
3.74493e-10
3.10928e-08
2.94803e-10
3.10126e-08
2.63487e-10
3.09369e-08
2.22369e-10
3.08689e-08
1.75938e-10
3.08032e-08
1.71454e-10
3.07421e-08
1.5615e-10
3.06898e-08
1.22316e-10
3.0643e-08
1.14904e-10
3.06006e-08
1.05811e-10
3.05626e-08
8.53612e-11
3.05257e-08
8.30761e-11
3.04896e-08
7.87881e-11
3.04565e-08
6.07216e-11
3.04281e-08
4.18241e-11
3.04068e-08
2.42736e-11
3.03909e-08
1.4357e-11
3.03763e-08
1.53675e-11
3.0363e-08
1.05285e-11
3.03519e-08
3.89851e-12
3.03425e-08
2.08228e-12
3.03353e-08
-3.2189e-12
3.03304e-08
-8.9836e-12
3.03267e-08
-8.43152e-12
3.03238e-08
-8.95266e-12
3.03221e-08
-1.07275e-11
3.03217e-08
-1.15933e-11
3.03226e-08
-1.24881e-11
3.03243e-08
-1.31436e-11
3.03258e-08
-9.43955e-12
3.03269e-08
-7.50913e-12
-5.33981e-12
3.41996e-08
3.35468e-09
-3.40744e-08
3.44424e-08
3.86764e-09
3.46883e-08
3.90685e-09
3.49558e-08
4.51408e-09
3.50494e-08
4.36999e-09
3.52473e-08
3.78122e-09
3.51647e-08
4.20657e-09
3.52325e-08
3.2439e-09
3.53124e-08
3.04549e-09
3.53598e-08
2.9603e-09
3.53832e-08
2.82925e-09
3.53834e-08
2.76785e-09
3.53584e-08
2.71881e-09
3.53525e-08
2.61078e-09
3.53501e-08
2.50352e-09
3.53584e-08
2.42133e-09
3.53654e-08
2.35412e-09
3.53545e-08
2.34358e-09
3.53239e-08
2.30127e-09
3.52783e-08
2.23269e-09
3.524e-08
2.11702e-09
3.52169e-08
2.00426e-09
3.51888e-08
1.97533e-09
3.5154e-08
1.93667e-09
3.51116e-08
1.88503e-09
3.50605e-08
1.83266e-09
3.49946e-08
1.7909e-09
3.49112e-08
1.76996e-09
3.48305e-08
1.66269e-09
3.47521e-08
1.56223e-09
3.46786e-08
1.48734e-09
3.46085e-08
1.40484e-09
3.45343e-08
1.3591e-09
3.44567e-08
1.28865e-09
3.43737e-08
1.20541e-09
3.42843e-08
1.1605e-09
3.41921e-08
1.07831e-09
3.41027e-08
9.61325e-10
3.40093e-08
9.06842e-10
3.3912e-08
8.37725e-10
3.38192e-08
7.1073e-10
3.37321e-08
6.1107e-10
3.36482e-08
5.44312e-10
3.35705e-08
4.52259e-10
3.35005e-08
3.64802e-10
3.34313e-08
3.32693e-10
3.33644e-08
2.89286e-10
3.33025e-08
2.37838e-10
3.32396e-08
2.34261e-10
3.31787e-08
2.17111e-10
3.3125e-08
1.76023e-10
3.30768e-08
1.63039e-10
3.30335e-08
1.49126e-10
3.29947e-08
1.24209e-10
3.29561e-08
1.21629e-10
3.29168e-08
1.18109e-10
3.28783e-08
9.92167e-11
3.28433e-08
7.6845e-11
3.28159e-08
5.17042e-11
3.27955e-08
3.47558e-11
3.27774e-08
3.34598e-11
3.27605e-08
2.73588e-11
3.27454e-08
1.90004e-11
3.2732e-08
1.55112e-11
3.2721e-08
7.81879e-12
3.27128e-08
-7.90937e-13
3.27062e-08
-1.87152e-12
3.27005e-08
-3.2688e-12
3.26959e-08
-6.13121e-12
3.26929e-08
-8.50717e-12
3.2692e-08
-1.16814e-11
3.26928e-08
-1.38496e-11
3.26938e-08
-1.04551e-11
3.26944e-08
-8.10108e-12
-5.61939e-12
3.52643e-08
3.23166e-09
-3.51413e-08
3.54913e-08
3.64072e-09
3.5699e-08
3.69908e-09
3.59331e-08
4.28004e-09
3.60603e-08
4.24275e-09
3.6208e-08
3.63349e-09
3.6223e-08
4.19159e-09
3.62586e-08
3.2083e-09
3.63245e-08
2.97964e-09
3.63729e-08
2.9119e-09
3.64026e-08
2.79951e-09
3.64048e-08
2.76566e-09
3.63892e-08
2.7344e-09
3.63767e-08
2.6233e-09
3.63768e-08
2.50339e-09
3.6388e-08
2.41016e-09
3.64007e-08
2.34135e-09
3.64057e-08
2.3386e-09
3.63983e-08
2.30873e-09
3.63761e-08
2.25488e-09
3.63526e-08
2.14051e-09
3.63457e-08
2.01115e-09
3.63364e-08
1.98468e-09
3.63304e-08
1.94266e-09
3.63218e-08
1.89363e-09
3.63083e-08
1.84607e-09
3.62795e-08
1.8197e-09
3.62321e-08
1.81741e-09
3.61899e-08
1.70492e-09
3.61481e-08
1.60399e-09
3.61148e-08
1.52068e-09
3.60853e-08
1.43435e-09
3.60531e-08
1.39128e-09
3.60191e-08
1.32262e-09
3.59777e-08
1.24682e-09
3.59292e-08
1.20903e-09
3.58754e-08
1.1321e-09
3.58228e-08
1.01392e-09
3.57643e-08
9.65262e-10
3.56987e-08
9.03353e-10
3.56338e-08
7.7567e-10
3.55714e-08
6.73447e-10
3.55095e-08
6.06258e-10
3.54504e-08
5.11319e-10
3.53972e-08
4.17993e-10
3.53438e-08
3.86059e-10
3.52921e-08
3.40984e-10
3.52441e-08
2.85874e-10
3.51924e-08
2.85993e-10
3.51393e-08
2.70182e-10
3.50907e-08
2.24632e-10
3.50467e-08
2.0701e-10
3.50077e-08
1.8817e-10
3.49732e-08
1.58734e-10
3.49384e-08
1.56358e-10
3.49014e-08
1.55132e-10
3.48626e-08
1.37993e-10
3.4825e-08
1.14438e-10
3.47946e-08
8.21936e-11
3.4772e-08
5.72715e-11
3.47527e-08
5.27715e-11
3.47346e-08
4.54562e-11
3.47177e-08
3.58887e-11
3.47019e-08
3.13236e-11
3.46882e-08
2.1507e-11
3.46777e-08
9.79167e-12
3.4669e-08
6.77825e-12
3.46612e-08
4.50988e-12
3.46543e-08
8.4362e-13
3.46486e-08
-2.86192e-12
3.46456e-08
-8.66291e-12
3.46449e-08
-1.31797e-11
3.46451e-08
-1.06808e-11
3.46451e-08
-8.03971e-12
-5.44114e-12
3.63619e-08
3.1144e-09
-3.62446e-08
3.65516e-08
3.45099e-09
3.67523e-08
3.49839e-09
3.69416e-08
4.09074e-09
3.70941e-08
4.09026e-09
3.72386e-08
3.48899e-09
3.72819e-08
4.14833e-09
3.73133e-08
3.17691e-09
3.73575e-08
2.93542e-09
3.74137e-08
2.85571e-09
3.74488e-08
2.76437e-09
3.74467e-08
2.76774e-09
3.74423e-08
2.73883e-09
3.74279e-08
2.63773e-09
3.74272e-08
2.50402e-09
3.74359e-08
2.40151e-09
3.74506e-08
2.32668e-09
3.7462e-08
2.32711e-09
3.74649e-08
2.30584e-09
3.74539e-08
2.2659e-09
3.74343e-08
2.16016e-09
3.74273e-08
2.01815e-09
3.74227e-08
1.98925e-09
3.74263e-08
1.93908e-09
3.74296e-08
1.89028e-09
3.74312e-08
1.84448e-09
3.74189e-08
1.832e-09
3.73916e-08
1.84474e-09
3.73702e-08
1.72628e-09
3.73443e-08
1.62989e-09
3.73337e-08
1.53126e-09
3.73245e-08
1.44361e-09
3.73144e-08
1.40133e-09
3.73058e-08
1.3313e-09
3.72898e-08
1.26281e-09
3.72675e-08
1.23133e-09
3.72386e-08
1.16098e-09
3.72114e-08
1.04113e-09
3.71782e-08
9.98455e-10
3.71366e-08
9.44945e-10
3.70946e-08
8.17673e-10
3.70538e-08
7.14284e-10
3.70113e-08
6.48739e-10
3.69689e-08
5.53703e-10
3.69303e-08
4.56578e-10
3.68909e-08
4.25514e-10
3.6854e-08
3.77882e-10
3.68212e-08
3.18638e-10
3.67832e-08
3.23939e-10
3.67416e-08
3.11864e-10
3.67013e-08
2.64929e-10
3.66641e-08
2.44227e-10
3.66316e-08
2.20662e-10
3.66037e-08
1.8655e-10
3.65757e-08
1.8444e-10
3.65444e-08
1.86422e-10
3.65091e-08
1.7326e-10
3.64725e-08
1.50995e-10
3.64419e-08
1.12814e-10
3.64195e-08
7.97027e-11
3.6401e-08
7.13178e-11
3.63836e-08
6.27621e-11
3.6367e-08
5.25244e-11
3.63505e-08
4.77959e-11
3.63357e-08
3.63648e-11
3.63239e-08
2.15914e-11
3.63141e-08
1.65073e-11
3.63052e-08
1.34583e-11
3.62968e-08
9.28304e-12
3.62895e-08
4.42567e-12
3.62847e-08
-3.85969e-12
3.62824e-08
-1.08743e-11
3.62814e-08
-9.71639e-12
3.62807e-08
-7.34823e-12
-4.73026e-12
3.74879e-08
3.01718e-09
-3.73907e-08
3.76449e-08
3.29398e-09
3.78367e-08
3.3066e-09
3.79843e-08
3.94313e-09
3.8158e-08
3.91654e-09
3.83068e-08
3.34025e-09
3.8347e-08
4.10812e-09
3.84038e-08
3.12006e-09
3.84289e-08
2.91037e-09
3.84754e-08
2.80916e-09
3.85287e-08
2.71104e-09
3.85173e-08
2.77918e-09
3.85233e-08
2.73287e-09
3.85094e-08
2.65156e-09
3.85075e-08
2.50593e-09
3.85149e-08
2.39416e-09
3.85303e-08
2.31131e-09
3.8544e-08
2.31331e-09
3.85529e-08
2.29701e-09
3.85485e-08
2.27026e-09
3.85329e-08
2.17579e-09
3.85226e-08
2.02848e-09
3.85151e-08
1.99666e-09
3.85231e-08
1.93118e-09
3.85274e-08
1.88594e-09
3.85335e-08
1.83842e-09
3.85147e-08
1.85073e-09
3.85177e-08
1.84179e-09
3.84957e-08
1.74832e-09
3.84786e-08
1.64695e-09
3.84788e-08
1.53109e-09
3.84739e-08
1.4485e-09
3.8475e-08
1.40017e-09
3.84755e-08
1.33087e-09
3.84724e-08
1.26586e-09
3.84638e-08
1.23999e-09
3.84475e-08
1.17726e-09
3.84345e-08
1.05409e-09
3.84156e-08
1.01738e-09
3.83884e-08
9.72096e-10
3.8362e-08
8.44148e-10
3.83363e-08
7.39911e-10
3.83078e-08
6.77298e-10
3.82773e-08
5.84217e-10
3.82484e-08
4.85495e-10
3.82176e-08
4.56243e-10
3.81911e-08
4.04392e-10
3.81706e-08
3.39201e-10
3.81446e-08
3.49858e-10
3.81139e-08
3.42606e-10
3.80818e-08
2.96992e-10
3.80511e-08
2.74942e-10
3.80247e-08
2.47047e-10
3.80032e-08
2.08038e-10
3.79818e-08
2.05889e-10
3.79569e-08
2.11295e-10
3.79266e-08
2.03578e-10
3.7893e-08
1.84583e-10
3.78641e-08
1.41752e-10
3.78431e-08
1.00681e-10
3.78264e-08
8.8013e-11
3.78111e-08
7.80974e-11
3.77959e-08
6.77095e-11
3.778e-08
6.36723e-11
3.77649e-08
5.14413e-11
3.77527e-08
3.38057e-11
3.77428e-08
2.63794e-11
3.77337e-08
2.25565e-11
3.77249e-08
1.81504e-11
3.77167e-08
1.2575e-11
3.77106e-08
2.25438e-12
3.7707e-08
-7.3032e-12
3.77051e-08
-7.77941e-12
3.77037e-08
-5.92154e-12
-3.48358e-12
3.86332e-08
2.95051e-09
-3.85665e-08
3.8787e-08
3.14016e-09
3.89424e-08
3.15127e-09
3.90655e-08
3.82001e-09
3.92629e-08
3.71915e-09
3.93535e-08
3.24961e-09
3.94447e-08
4.01694e-09
3.95219e-08
3.04281e-09
3.95275e-08
2.90478e-09
3.95826e-08
2.75414e-09
3.96158e-08
2.67781e-09
3.96206e-08
2.77436e-09
3.96324e-08
2.7211e-09
3.96255e-08
2.65839e-09
3.96229e-08
2.50855e-09
3.96296e-08
2.38751e-09
3.96438e-08
2.29712e-09
3.96567e-08
2.30034e-09
3.96676e-08
2.2861e-09
3.9667e-08
2.27092e-09
3.9655e-08
2.18779e-09
3.9648e-08
2.03547e-09
3.96359e-08
2.00875e-09
3.96443e-08
1.9228e-09
3.96489e-08
1.88135e-09
3.96468e-08
1.84053e-09
3.96316e-08
1.86587e-09
3.96389e-08
1.83449e-09
3.96276e-08
1.75958e-09
3.96141e-08
1.66052e-09
3.9618e-08
1.5272e-09
3.96096e-08
1.45688e-09
3.96154e-08
1.39433e-09
3.96203e-08
1.32597e-09
3.96214e-08
1.26478e-09
3.96182e-08
1.24316e-09
3.96048e-08
1.19065e-09
3.95984e-08
1.06056e-09
3.9587e-08
1.02877e-09
3.95674e-08
9.91672e-10
3.95508e-08
8.60715e-10
3.95339e-08
7.56831e-10
3.95132e-08
6.98042e-10
3.94897e-08
6.07727e-10
3.94659e-08
5.09253e-10
3.94391e-08
4.83105e-10
3.94181e-08
4.25347e-10
3.94051e-08
3.52164e-10
3.93875e-08
3.67507e-10
3.93651e-08
3.64952e-10
3.93394e-08
3.22736e-10
3.93134e-08
3.00951e-10
3.92912e-08
2.69199e-10
3.92742e-08
2.25072e-10
3.92577e-08
2.22406e-10
3.9238e-08
2.30986e-10
3.92121e-08
2.29456e-10
3.91817e-08
2.14965e-10
3.9155e-08
1.68453e-10
3.91359e-08
1.19829e-10
3.91212e-08
1.02681e-10
3.91081e-08
9.12353e-11
3.90947e-08
8.11179e-11
3.90798e-08
7.85459e-11
3.90649e-08
6.62934e-11
3.90527e-08
4.60286e-11
3.90431e-08
3.59671e-11
3.90345e-08
3.12237e-11
3.90259e-08
2.67538e-11
3.90175e-08
2.09116e-11
3.90108e-08
8.99746e-12
3.90064e-08
-2.88823e-12
3.90037e-08
-5.08628e-12
3.90016e-08
-3.82946e-12
-1.74247e-12
3.98077e-08
2.91129e-09
-3.97685e-08
3.99619e-08
2.98592e-09
4.00815e-08
3.03164e-09
4.01927e-08
3.70886e-09
4.04187e-08
3.49311e-09
4.0445e-08
3.22335e-09
4.0666e-08
3.79591e-09
4.06563e-08
3.05254e-09
4.0654e-08
2.90705e-09
4.07101e-08
2.69807e-09
4.07227e-08
2.66516e-09
4.07614e-08
2.73567e-09
4.07813e-08
2.70128e-09
4.07764e-08
2.66324e-09
4.07742e-08
2.51073e-09
4.07755e-08
2.38622e-09
4.07924e-08
2.2802e-09
4.08021e-08
2.29067e-09
4.0812e-08
2.27627e-09
4.08087e-08
2.27416e-09
4.08056e-08
2.19091e-09
4.08047e-08
2.03641e-09
4.07907e-08
2.02275e-09
4.07949e-08
1.91853e-09
4.07991e-08
1.87713e-09
4.07889e-08
1.85081e-09
4.07881e-08
1.86659e-09
4.07903e-08
1.83234e-09
4.07818e-08
1.76803e-09
4.07731e-08
1.66924e-09
4.07741e-08
1.52624e-09
4.07688e-08
1.46213e-09
4.07723e-08
1.3909e-09
4.07786e-08
1.31959e-09
4.07786e-08
1.26478e-09
4.07758e-08
1.24602e-09
4.07673e-08
1.19908e-09
4.07599e-08
1.06803e-09
4.07532e-08
1.03545e-09
4.07352e-08
1.00963e-09
4.07255e-08
8.70443e-10
4.07129e-08
7.69479e-10
4.0696e-08
7.1492e-10
4.06765e-08
6.27162e-10
4.06551e-08
5.30663e-10
4.0629e-08
5.0924e-10
4.06103e-08
4.44057e-10
4.06006e-08
3.61812e-10
4.05876e-08
3.80554e-10
4.05709e-08
3.8168e-10
4.05493e-08
3.44347e-10
4.0526e-08
3.24239e-10
4.0506e-08
2.89117e-10
4.04914e-08
2.39697e-10
4.04778e-08
2.36029e-10
4.04614e-08
2.47376e-10
4.04385e-08
2.52327e-10
4.04106e-08
2.42873e-10
4.03859e-08
1.93187e-10
4.03683e-08
1.37438e-10
4.03553e-08
1.15703e-10
4.03439e-08
1.02561e-10
4.0332e-08
9.30551e-11
4.0318e-08
9.25837e-11
4.03033e-08
8.09639e-11
4.02911e-08
5.82568e-11
4.02818e-08
4.5194e-11
4.02738e-08
3.92546e-11
4.02658e-08
3.4787e-11
4.02577e-08
2.90049e-11
4.02507e-08
1.59353e-11
4.02458e-08
2.01749e-12
4.02426e-08
-1.85045e-12
4.024e-08
-1.2119e-12
3.99155e-13
4.10138e-08
2.88581e-09
-4.09883e-08
4.11713e-08
2.82843e-09
4.12328e-08
2.97011e-09
4.14032e-08
3.5385e-09
4.15645e-08
3.33183e-09
4.16184e-08
3.16943e-09
4.18979e-08
3.51643e-09
4.1858e-08
3.09244e-09
4.18479e-08
2.91708e-09
4.18611e-08
2.6849e-09
4.18873e-08
2.63896e-09
4.19396e-08
2.68335e-09
4.19605e-08
2.68036e-09
4.19559e-08
2.6679e-09
4.19511e-08
2.51553e-09
4.19578e-08
2.37953e-09
4.19731e-08
2.26488e-09
4.19841e-08
2.2796e-09
4.19859e-08
2.27451e-09
4.19837e-08
2.27635e-09
4.19862e-08
2.1884e-09
4.19913e-08
2.03134e-09
4.19763e-08
2.03773e-09
4.19802e-08
1.91469e-09
4.19804e-08
1.87684e-09
4.19735e-08
1.85778e-09
4.19766e-08
1.86349e-09
4.19722e-08
1.83673e-09
4.19674e-08
1.77277e-09
4.19618e-08
1.67491e-09
4.19613e-08
1.5267e-09
4.19616e-08
1.46186e-09
4.19571e-08
1.39539e-09
4.1964e-08
1.31267e-09
4.19608e-08
1.26794e-09
4.1957e-08
1.24982e-09
4.19588e-08
1.19736e-09
4.19479e-08
1.07891e-09
4.19414e-08
1.04195e-09
4.19201e-08
1.0309e-09
4.19154e-08
8.75162e-10
4.19057e-08
7.7918e-10
4.1891e-08
7.2955e-10
4.18744e-08
6.43816e-10
4.18537e-08
5.51376e-10
4.18268e-08
5.36122e-10
4.18089e-08
4.61971e-10
4.17992e-08
3.71536e-10
4.17883e-08
3.91449e-10
4.17751e-08
3.9485e-10
4.1756e-08
3.63411e-10
4.17341e-08
3.46196e-10
4.1715e-08
3.08194e-10
4.17013e-08
2.53409e-10
4.1689e-08
2.48333e-10
4.16743e-08
2.62098e-10
4.16529e-08
2.73655e-10
4.16266e-08
2.69233e-10
4.16032e-08
2.16506e-10
4.15867e-08
1.54024e-10
4.15747e-08
1.27645e-10
4.15646e-08
1.12679e-10
4.15536e-08
1.04065e-10
4.154e-08
1.06191e-10
4.15253e-08
9.56825e-11
4.15129e-08
7.06298e-11
4.15039e-08
5.4139e-11
4.14965e-08
4.66855e-11
4.14891e-08
4.22167e-11
4.14814e-08
3.67267e-11
4.14744e-08
2.28859e-11
4.14692e-08
7.21824e-12
4.14656e-08
1.76893e-12
4.14626e-08
1.77967e-12
2.83525e-12
4.22418e-08
2.90212e-09
-4.22581e-08
4.24234e-08
2.64683e-09
4.24169e-08
2.97657e-09
4.26719e-08
3.28353e-09
4.27398e-08
3.26394e-09
4.28326e-08
3.07658e-09
4.30884e-08
3.26062e-09
4.30601e-08
3.12074e-09
4.30508e-08
2.92645e-09
4.30654e-08
2.67028e-09
4.30987e-08
2.60569e-09
4.31465e-08
2.6355e-09
4.31582e-08
2.66863e-09
4.31586e-08
2.66759e-09
4.316e-08
2.51407e-09
4.3181e-08
2.35851e-09
4.31932e-08
2.25272e-09
4.31986e-08
2.27418e-09
4.3191e-08
2.28211e-09
4.3193e-08
2.27441e-09
4.32007e-08
2.18068e-09
4.3212e-08
2.02003e-09
4.31978e-08
2.05191e-09
4.32002e-08
1.91234e-09
4.31976e-08
1.8794e-09
4.31922e-08
1.86312e-09
4.31912e-08
1.86457e-09
4.31893e-08
1.83864e-09
4.31886e-08
1.77341e-09
4.31831e-08
1.68044e-09
4.31855e-08
1.52424e-09
4.31817e-08
1.46567e-09
4.31775e-08
1.39967e-09
4.31796e-08
1.31054e-09
4.31733e-08
1.27418e-09
4.3175e-08
1.24821e-09
4.31786e-08
1.19368e-09
4.31592e-08
1.09835e-09
4.31532e-08
1.048e-09
4.31399e-08
1.04411e-09
4.31326e-08
8.82497e-10
4.31254e-08
7.86429e-10
4.31127e-08
7.42234e-10
4.30991e-08
6.57369e-10
4.30782e-08
5.72301e-10
4.30506e-08
5.63748e-10
4.30333e-08
4.79281e-10
4.30209e-08
3.83893e-10
4.30108e-08
4.01517e-10
4.29998e-08
4.05902e-10
4.29823e-08
3.80859e-10
4.2961e-08
3.67489e-10
4.29422e-08
3.27076e-10
4.29286e-08
2.66983e-10
4.29167e-08
2.60248e-10
4.29025e-08
2.76232e-10
4.28817e-08
2.94473e-10
4.28562e-08
2.94731e-10
4.28339e-08
2.38879e-10
4.28178e-08
1.70065e-10
4.28064e-08
1.39036e-10
4.27969e-08
1.22158e-10
4.27863e-08
1.14676e-10
4.27728e-08
1.19751e-10
4.27578e-08
1.10629e-10
4.27452e-08
8.32271e-11
4.27365e-08
6.28669e-11
4.27296e-08
5.3614e-11
4.27226e-08
4.91533e-11
4.27152e-08
4.41442e-11
4.27083e-08
2.98568e-11
4.27028e-08
1.266e-11
4.26989e-08
5.68289e-12
4.26957e-08
5.01732e-12
5.46749e-12
4.35136e-08
2.92916e-09
-4.35407e-08
4.36831e-08
2.47741e-09
4.36868e-08
2.97279e-09
4.39272e-08
3.04317e-09
4.39992e-08
3.19195e-09
4.41494e-08
2.92633e-09
4.42828e-08
3.12729e-09
4.42722e-08
3.13128e-09
4.42732e-08
2.92549e-09
4.43107e-08
2.63277e-09
4.43462e-08
2.57015e-09
4.43887e-08
2.59306e-09
4.43906e-08
2.66671e-09
4.43949e-08
2.66325e-09
4.44125e-08
2.49652e-09
4.44407e-08