/*--------------------------------*- C++ -*----------------------------------*\
| =========                 |                                                 |
| \\      /  F ield         | OpenFOAM: The Open Source CFD Toolbox           |
|  \\    /   O peration     | Version:  2.3.0                                 |
|   \\  /    A nd           | Web:      www.OpenFOAM.org                      |
|    \\/     M anipulation  |                                                 |
\*---------------------------------------------------------------------------*/
FoamFile
{
    version     2.0;
    format      ascii;
    class       volVectorField;
    location    "0.25";
    object      U;
}
// * * * * * * * * * * * * * * * * * * * * * * * * * * * * * * * * * * * * * //

dimensions      [0 1 -1 0 0 0 0];

internalField   nonuniform List<vector> 
2945
(
(0.160118 0.00661206 0)
(0.120846 0.00659915 0)
(0.08914 0.0045923 0)
(0.0667004 0.00252992 0)
(0.0523972 0.00105941 0)
(0.0436221 0.000322845 0)
(0.0382459 0.000131942 0)
(0.0347905 7.66392e-05 0)
(0.0324345 5.02277e-05 0)
(0.0306726 6.29332e-05 0)
(0.0291459 7.92698e-05 0)
(0.0277605 7.43935e-05 0)
(0.0265382 6.57904e-05 0)
(0.0254416 6.34635e-05 0)
(0.0244423 5.75582e-05 0)
(0.02355 4.9318e-05 0)
(0.0227609 4.29456e-05 0)
(0.0220541 3.82686e-05 0)
(0.0214126 3.39681e-05 0)
(0.0208244 3.15345e-05 0)
(0.0202799 2.94462e-05 0)
(0.0197785 2.61524e-05 0)
(0.0193166 2.44501e-05 0)
(0.0188882 2.26685e-05 0)
(0.0184912 2.06452e-05 0)
(0.0181264 1.89042e-05 0)
(0.0177908 1.69888e-05 0)
(0.017475 1.68125e-05 0)
(0.0171839 1.45822e-05 0)
(0.0169245 1.20464e-05 0)
(0.0166899 1.14986e-05 0)
(0.0164737 1.02982e-05 0)
(0.016271 1.04042e-05 0)
(0.0160848 9.2698e-06 0)
(0.0159251 6.6914e-06 0)
(0.0157808 7.67478e-06 0)
(0.0156456 7.33378e-06 0)
(0.0155378 3.94787e-06 0)
(0.0154518 4.28664e-06 0)
(0.0153704 5.00163e-06 0)
(0.0153098 2.08862e-06 0)
(0.0152795 4.72545e-07 0)
(0.015261 1.23164e-06 0)
(0.0152547 2.32608e-07 0)
(0.0152723 -2.47938e-06 0)
(0.0153017 -2.02625e-06 0)
(0.0153329 -2.33724e-06 0)
(0.0153714 -3.45928e-06 0)
(0.0154081 -2.26253e-06 0)
(0.0154341 -1.43559e-06 0)
(0.0154591 -2.14906e-06 0)
(0.0154826 -1.44055e-06 0)
(0.015499 -7.08058e-07 0)
(0.0155147 -1.30014e-06 0)
(0.0155311 -9.78982e-07 0)
(0.0155425 -3.1651e-07 0)
(0.0155522 -5.39481e-07 0)
(0.0155651 -8.43792e-07 0)
(0.0155793 -8.72277e-07 0)
(0.015593 -7.94243e-07 0)
(0.0156039 -4.82566e-07 0)
(0.0156131 -4.63631e-07 0)
(0.0156222 -5.33531e-07 0)
(0.0156301 -3.21311e-07 0)
(0.0156367 -3.24154e-07 0)
(0.015644 -4.65438e-07 0)
(0.0156506 -2.93752e-07 0)
(0.0156556 -2.00742e-07 0)
(0.0156599 -2.32413e-07 0)
(0.015664 -1.85425e-07 0)
(0.0156673 -1.51557e-07 0)
(0.0156706 -2.10751e-07 0)
(0.0156737 -1.31682e-07 0)
(0.0156752 -5.0362e-08 0)
(0.0156773 -8.98298e-08 0)
(0.191436 0.0120612 0)
(0.184197 0.0140479 0)
(0.171856 0.0120722 0)
(0.15687 0.00906046 0)
(0.141832 0.00625974 0)
(0.128284 0.00396795 0)
(0.116591 0.00253341 0)
(0.107111 0.00164833 0)
(0.0996294 0.00114985 0)
(0.0936325 0.000927925 0)
(0.0886549 0.000811886 0)
(0.0843731 0.00069952 0)
(0.080613 0.000608952 0)
(0.0772614 0.000550878 0)
(0.0742564 0.000490358 0)
(0.0715707 0.000429832 0)
(0.0691742 0.000380285 0)
(0.0670188 0.000341143 0)
(0.065054 0.000307266 0)
(0.0632439 0.00028136 0)
(0.0615751 0.000258341 0)
(0.0600371 0.000233563 0)
(0.0586149 0.000215026 0)
(0.0573012 0.000197244 0)
(0.0560846 0.000179961 0)
(0.0549641 0.000164373 0)
(0.0539313 0.000149533 0)
(0.0529647 0.000140638 0)
(0.0520783 0.00012518 0)
(0.0512721 0.000109998 0)
(0.0505334 0.000101553 0)
(0.0498555 9.14792e-05 0)
(0.0492266 8.56329e-05 0)
(0.048659 7.56682e-05 0)
(0.0481586 6.21394e-05 0)
(0.0477052 5.9659e-05 0)
(0.0473049 5.24588e-05 0)
(0.0469739 3.68387e-05 0)
(0.0466949 3.33422e-05 0)
(0.0464578 3.03863e-05 0)
(0.0462827 1.6323e-05 0)
(0.0461723 7.49163e-06 0)
(0.0461022 5.6825e-06 0)
(0.0460748 -2.28113e-06 0)
(0.0460957 -1.0222e-05 0)
(0.0461415 -1.04391e-05 0)
(0.0461986 -1.17831e-05 0)
(0.0462656 -1.47995e-05 0)
(0.0463257 -1.04266e-05 0)
(0.0463734 -7.58988e-06 0)
(0.0464184 -9.30499e-06 0)
(0.0464572 -6.67752e-06 0)
(0.0464883 -4.46034e-06 0)
(0.0465195 -6.07331e-06 0)
(0.046549 -4.82927e-06 0)
(0.0465739 -2.9963e-06 0)
(0.0465993 -3.85855e-06 0)
(0.0466293 -4.68784e-06 0)
(0.0466602 -4.55364e-06 0)
(0.0466887 -4.09674e-06 0)
(0.0467128 -2.98416e-06 0)
(0.0467347 -2.84059e-06 0)
(0.0467557 -2.89244e-06 0)
(0.0467743 -2.12237e-06 0)
(0.0467912 -2.0515e-06 0)
(0.0468078 -2.32894e-06 0)
(0.0468222 -1.6615e-06 0)
(0.0468344 -1.31727e-06 0)
(0.0468451 -1.3084e-06 0)
(0.0468546 -1.06954e-06 0)
(0.0468626 -8.85423e-07 0)
(0.04687 -9.99907e-07 0)
(0.0468762 -6.56306e-07 0)
(0.0468798 -3.98454e-07 0)
(0.0468851 -4.40502e-07 0)
(0.191279 0.0108586 0)
(0.194009 0.0132329 0)
(0.194952 0.0137677 0)
(0.192176 0.0127101 0)
(0.186506 0.00956616 0)
(0.178804 0.00729302 0)
(0.17015 0.00606184 0)
(0.161948 0.0047326 0)
(0.154563 0.00364124 0)
(0.147797 0.00301026 0)
(0.141638 0.00258931 0)
(0.136053 0.00222281 0)
(0.130923 0.00193954 0)
(0.126186 0.00173213 0)
(0.121831 0.0015319 0)
(0.117838 0.00134755 0)
(0.114195 0.00119545 0)
(0.110876 0.00107418 0)
(0.107828 0.000972614 0)
(0.104998 0.000889729 0)
(0.102368 0.000814716 0)
(0.0999229 0.00074096 0)
(0.0976417 0.000680979 0)
(0.0955236 0.000623882 0)
(0.0935522 0.000570254 0)
(0.0917233 0.000521321 0)
(0.0900291 0.000476419 0)
(0.0884399 0.000443298 0)
(0.0869751 0.000398304 0)
(0.0856295 0.000356485 0)
(0.084385 0.000327394 0)
(0.0832383 0.000295874 0)
(0.0821733 0.000272389 0)
(0.0812067 0.000241233 0)
(0.0803421 0.00020575 0)
(0.0795552 0.000189491 0)
(0.0788613 0.000163574 0)
(0.0782705 0.000125382 0)
(0.07776 0.000109394 0)
(0.0773285 9.27949e-05 0)
(0.0769915 5.76959e-05 0)
(0.0767459 3.38542e-05 0)
(0.0765706 2.37814e-05 0)
(0.0764609 3.06623e-06 0)
(0.0764191 -1.92714e-05 0)
(0.0764206 -2.09857e-05 0)
(0.076446 -2.43327e-05 0)
(0.0764892 -2.95168e-05 0)
(0.0765305 -2.15225e-05 0)
(0.0765644 -1.65508e-05 0)
(0.0765972 -1.89498e-05 0)
(0.0766244 -1.38324e-05 0)
(0.0766481 -1.05008e-05 0)
(0.0766739 -1.30672e-05 0)
(0.0766987 -1.08769e-05 0)
(0.0767225 -8.0723e-06 0)
(0.0767494 -1.00205e-05 0)
(0.0767824 -1.1435e-05 0)
(0.0768179 -1.09721e-05 0)
(0.0768517 -9.90178e-06 0)
(0.0768809 -7.78269e-06 0)
(0.0769086 -7.45478e-06 0)
(0.0769355 -7.2938e-06 0)
(0.07696 -5.78913e-06 0)
(0.0769831 -5.54476e-06 0)
(0.0770054 -5.74127e-06 0)
(0.077025 -4.34851e-06 0)
(0.0770423 -3.64e-06 0)
(0.0770574 -3.41839e-06 0)
(0.0770708 -2.8261e-06 0)
(0.0770822 -2.35391e-06 0)
(0.0770924 -2.41005e-06 0)
(0.0771009 -1.61875e-06 0)
(0.0771061 -1.17789e-06 0)
(0.0771138 -1.08146e-06 0)
(0.191936 0.0091055 0)
(0.19422 0.0128846 0)
(0.197294 0.0118674 0)
(0.200396 0.0114414 0)
(0.200362 0.0107564 0)
(0.198283 0.00902827 0)
(0.194732 0.00769133 0)
(0.19056 0.00651647 0)
(0.186221 0.00549325 0)
(0.181775 0.00484342 0)
(0.17733 0.00432656 0)
(0.172946 0.00382127 0)
(0.168606 0.0034274 0)
(0.164344 0.00314064 0)
(0.160213 0.00284887 0)
(0.156218 0.00256086 0)
(0.152391 0.00229946 0)
(0.148772 0.00207798 0)
(0.145367 0.0018928 0)
(0.142154 0.00174275 0)
(0.139117 0.00160567 0)
(0.136236 0.00147143 0)
(0.133492 0.0013589 0)
(0.130901 0.00125017 0)
(0.128459 0.00114806 0)
(0.126162 0.0010539 0)
(0.124008 0.000967321 0)
(0.121969 0.000899859 0)
(0.120072 0.000814076 0)
(0.118315 0.000735952 0)
(0.116671 0.000677945 0)
(0.11514 0.000615552 0)
(0.113705 0.000566025 0)
(0.112385 0.000504824 0)
(0.111187 0.000438168 0)
(0.110085 0.00040031 0)
(0.1091 0.000347269 0)
(0.108238 0.000277725 0)
(0.107477 0.000241829 0)
(0.106819 0.000204094 0)
(0.106277 0.000140449 0)
(0.105844 9.493e-05 0)
(0.105504 6.93743e-05 0)
(0.105249 3.02786e-05 0)
(0.105075 -5.54184e-06 0)
(0.104959 -1.46838e-05 0)
(0.104887 -2.58067e-05 0)
(0.104849 -3.60772e-05 0)
(0.104823 -2.53054e-05 0)
(0.104801 -1.94391e-05 0)
(0.104786 -2.36619e-05 0)
(0.104771 -1.67275e-05 0)
(0.10476 -1.24509e-05 0)
(0.104755 -1.78007e-05 0)
(0.104751 -1.47211e-05 0)
(0.104753 -1.21487e-05 0)
(0.104761 -1.532e-05 0)
(0.104779 -1.77411e-05 0)
(0.104805 -1.75016e-05 0)
(0.104832 -1.60182e-05 0)
(0.104856 -1.29832e-05 0)
(0.10488 -1.26632e-05 0)
(0.104904 -1.24716e-05 0)
(0.104929 -1.02337e-05 0)
(0.104952 -9.89384e-06 0)
(0.104976 -1.00384e-05 0)
(0.104998 -7.84795e-06 0)
(0.105018 -6.72284e-06 0)
(0.105036 -6.21143e-06 0)
(0.105052 -5.17978e-06 0)
(0.105066 -4.3275e-06 0)
(0.105078 -4.25068e-06 0)
(0.105089 -2.89313e-06 0)
(0.105095 -2.25861e-06 0)
(0.105104 -1.90533e-06 0)
(0.192838 0.00891345 0)
(0.194563 0.0107854 0)
(0.197528 0.012231 0)
(0.200573 0.0113571 0)
(0.201839 0.01097 0)
(0.20229 0.00843353 0)
(0.201968 0.00793661 0)
(0.200735 0.00709212 0)
(0.198969 0.00625273 0)
(0.197004 0.00570697 0)
(0.194938 0.00528569 0)
(0.192682 0.00485396 0)
(0.190182 0.00449151 0)
(0.187528 0.00420224 0)
(0.184795 0.00389112 0)
(0.181963 0.00359618 0)
(0.179055 0.00331712 0)
(0.176136 0.00305598 0)
(0.17326 0.00281346 0)
(0.17047 0.00261394 0)
(0.167786 0.00243656 0)
(0.165178 0.0022619 0)
(0.162609 0.00211264 0)
(0.160101 0.00196166 0)
(0.157681 0.00181709 0)
(0.155357 0.00168183 0)
(0.153133 0.00155482 0)
(0.150985 0.00145354 0)
(0.148955 0.00132381 0)
(0.147055 0.00120605 0)
(0.145261 0.00111822 0)
(0.143563 0.00102324 0)
(0.141947 0.000946021 0)
(0.14043 0.000851755 0)
(0.139027 0.000749382 0)
(0.137719 0.000686268 0)
(0.136525 0.000602049 0)
(0.135455 0.000496013 0)
(0.134486 0.000435943 0)
(0.133625 0.000372523 0)
(0.132887 0.000275066 0)
(0.132264 0.000203053 0)
(0.131743 0.000158776 0)
(0.131314 9.70362e-05 0)
(0.13097 4.0729e-05 0)
(0.130694 2.13979e-05 0)
(0.130474 1.46669e-07 0)
(0.130304 -2.01931e-05 0)
(0.130167 -1.08878e-05 0)
(0.130049 -6.73541e-06 0)
(0.12995 -1.56298e-05 0)
(0.129865 -8.37444e-06 0)
(0.129791 -5.04358e-06 0)
(0.129729 -1.33523e-05 0)
(0.129673 -1.08377e-05 0)
(0.129628 -8.45591e-06 0)
(0.129595 -1.53809e-05 0)
(0.129577 -2.07931e-05 0)
(0.129577 -2.14754e-05 0)
(0.129583 -2.01247e-05 0)
(0.129589 -1.63444e-05 0)
(0.129596 -1.64029e-05 0)
(0.129607 -1.67697e-05 0)
(0.129622 -1.42544e-05 0)
(0.129639 -1.40048e-05 0)
(0.129658 -1.44774e-05 0)
(0.129677 -1.16332e-05 0)
(0.129696 -1.01492e-05 0)
(0.129714 -9.43573e-06 0)
(0.129731 -7.99299e-06 0)
(0.129746 -6.746e-06 0)
(0.129761 -6.46603e-06 0)
(0.129772 -4.42743e-06 0)
(0.12978 -3.5633e-06 0)
(0.12979 -2.85601e-06 0)
(0.193724 0.00837771 0)
(0.195044 0.0106145 0)
(0.197592 0.0106129 0)
(0.200139 0.0119739 0)
(0.201713 0.00898161 0)
(0.202347 0.0100448 0)
(0.202817 0.007994 0)
(0.202725 0.00722723 0)
(0.202308 0.00641902 0)
(0.201751 0.00599905 0)
(0.201172 0.00560507 0)
(0.200432 0.00522124 0)
(0.199415 0.00495203 0)
(0.198223 0.00476081 0)
(0.196947 0.00450704 0)
(0.195519 0.00424534 0)
(0.193908 0.00399041 0)
(0.192138 0.00375911 0)
(0.190249 0.00351877 0)
(0.188333 0.0032944 0)
(0.186466 0.00309398 0)
(0.184636 0.00290901 0)
(0.182767 0.00276052 0)
(0.180848 0.00259731 0)
(0.178918 0.00243208 0)
(0.177013 0.00227548 0)
(0.175138 0.00212512 0)
(0.173272 0.00200408 0)
(0.17146 0.00183917 0)
(0.169743 0.00168721 0)
(0.168108 0.00157494 0)
(0.166538 0.00145375 0)
(0.165013 0.00135665 0)
(0.163547 0.00123545 0)
(0.162155 0.00110102 0)
(0.160831 0.00101589 0)
(0.159596 0.000902806 0)
(0.158459 0.000760816 0)
(0.157404 0.000677649 0)
(0.15644 0.000589112 0)
(0.155581 0.000456564 0)
(0.154831 0.00035639 0)
(0.154179 0.000292159 0)
(0.153612 0.000207112 0)
(0.153123 0.000128338 0)
(0.152701 9.62899e-05 0)
(0.152334 6.16638e-05 0)
(0.152022 2.65847e-05 0)
(0.151755 3.07547e-05 0)
(0.151522 2.94918e-05 0)
(0.151321 1.23738e-05 0)
(0.151147 1.68557e-05 0)
(0.150997 1.80052e-05 0)
(0.150862 5.06812e-06 0)
(0.150738 5.66374e-06 0)
(0.150629 5.42513e-06 0)
(0.150537 -5.56865e-06 0)
(0.150465 -1.46403e-05 0)
(0.150419 -1.87292e-05 0)
(0.150392 -1.88314e-05 0)
(0.150369 -1.47514e-05 0)
(0.150348 -1.62532e-05 0)
(0.150335 -1.82411e-05 0)
(0.15033 -1.59281e-05 0)
(0.150331 -1.62856e-05 0)
(0.150337 -1.74307e-05 0)
(0.150347 -1.48698e-05 0)
(0.150359 -1.32411e-05 0)
(0.150371 -1.25411e-05 0)
(0.150385 -1.09223e-05 0)
(0.1504 -9.48532e-06 0)
(0.150415 -9.03106e-06 0)
(0.150428 -6.19132e-06 0)
(0.150436 -5.01627e-06 0)
(0.150446 -3.86338e-06 0)
(0.194478 0.00807348 0)
(0.195558 0.00975717 0)
(0.197575 0.0097334 0)
(0.199819 0.0108231 0)
(0.201391 0.00944578 0)
(0.202164 0.00920427 0)
(0.202774 0.00763518 0)
(0.202721 0.00714399 0)
(0.202652 0.00652572 0)
(0.202641 0.00607114 0)
(0.202667 0.00574605 0)
(0.202582 0.00540935 0)
(0.202275 0.00514535 0)
(0.201852 0.00490401 0)
(0.201433 0.00470386 0)
(0.200951 0.00452 0)
(0.200339 0.00430882 0)
(0.19956 0.00411609 0)
(0.198582 0.00391852 0)
(0.197493 0.0037176 0)
(0.196428 0.0035053 0)
(0.19542 0.00330912 0)
(0.194376 0.00318177 0)
(0.193226 0.00303848 0)
(0.191997 0.00287918 0)
(0.190731 0.00272344 0)
(0.18944 0.00257274 0)
(0.188098 0.00245235 0)
(0.186742 0.00226675 0)
(0.185436 0.00209306 0)
(0.184189 0.00196559 0)
(0.182978 0.00182704 0)
(0.181781 0.00172307 0)
(0.180599 0.0015882 0)
(0.179437 0.00143203 0)
(0.1783 0.0013342 0)
(0.177213 0.00120216 0)
(0.176185 0.00103163 0)
(0.175204 0.000931675 0)
(0.174279 0.000824282 0)
(0.173422 0.000660845 0)
(0.172652 0.000534573 0)
(0.171968 0.000452408 0)
(0.17135 0.000346314 0)
(0.170797 0.000246743 0)
(0.170301 0.000204061 0)
(0.169846 0.000156153 0)
(0.169433 0.000104301 0)
(0.169067 0.000101129 0)
(0.168739 9.16301e-05 0)
(0.168447 6.27116e-05 0)
(0.168194 6.16092e-05 0)
(0.167975 5.8462e-05 0)
(0.167775 3.95346e-05 0)
(0.167588 3.75394e-05 0)
(0.167416 3.47351e-05 0)
(0.167259 1.84929e-05 0)
(0.167124 3.32512e-06 0)
(0.167024 -6.62793e-06 0)
(0.166955 -1.03729e-05 0)
(0.166899 -6.72388e-06 0)
(0.166845 -9.64451e-06 0)
(0.1668 -1.4005e-05 0)
(0.166767 -1.28402e-05 0)
(0.166744 -1.51257e-05 0)
(0.16673 -1.85437e-05 0)
(0.166724 -1.54602e-05 0)
(0.166723 -1.44064e-05 0)
(0.166724 -1.44117e-05 0)
(0.16673 -1.32654e-05 0)
(0.16674 -1.2046e-05 0)
(0.166754 -1.17162e-05 0)
(0.166766 -8.09188e-06 0)
(0.166775 -6.50605e-06 0)
(0.166783 -4.84909e-06 0)
(0.195122 0.00774172 0)
(0.196049 0.0091573 0)
(0.197675 0.00909837 0)
(0.19959 0.0100954 0)
(0.201029 0.00956522 0)
(0.201961 0.00797786 0)
(0.202521 0.00856648 0)
(0.20252 0.00701751 0)
(0.202569 0.00629185 0)
(0.202687 0.00598996 0)
(0.202875 0.00561684 0)
(0.202959 0.00537319 0)
(0.202855 0.00514632 0)
(0.202674 0.00506785 0)
(0.202581 0.00470618 0)
(0.202515 0.00454212 0)
(0.202396 0.00440655 0)
(0.202184 0.00428742 0)
(0.201794 0.00410158 0)
(0.201257 0.00391222 0)
(0.200716 0.00371177 0)
(0.200264 0.00350647 0)
(0.199832 0.00339349 0)
(0.199308 0.00327515 0)
(0.198693 0.00313458 0)
(0.198023 0.00299216 0)
(0.197302 0.00285785 0)
(0.196493 0.00275836 0)
(0.195626 0.00256403 0)
(0.194781 0.00237624 0)
(0.193984 0.00224113 0)
(0.193206 0.00209155 0)
(0.192427 0.00198899 0)
(0.191639 0.0018559 0)
(0.190832 0.00169305 0)
(0.190009 0.00159077 0)
(0.189195 0.00145031 0)
(0.188402 0.00126343 0)
(0.187626 0.00115739 0)
(0.186865 0.00104155 0)
(0.186127 0.000856064 0)
(0.185445 0.000709121 0)
(0.184828 0.000613103 0)
(0.184256 0.000490155 0)
(0.18373 0.000373106 0)
(0.183251 0.000323485 0)
(0.182797 0.000266479 0)
(0.182365 0.000200495 0)
(0.181967 0.000191039 0)
(0.181596 0.000173378 0)
(0.181254 0.00013117 0)
(0.180956 0.000122051 0)
(0.180699 0.000112869 0)
(0.180464 8.73196e-05 0)
(0.180241 8.29921e-05 0)
(0.180027 7.79127e-05 0)
(0.179821 5.63317e-05 0)
(0.179632 3.45882e-05 0)
(0.179481 1.62975e-05 0)
(0.179372 6.41591e-06 0)
(0.179286 8.54394e-06 0)
(0.179204 3.9808e-06 0)
(0.179128 -2.97477e-06 0)
(0.179067 -4.2171e-06 0)
(0.179018 -8.87241e-06 0)
(0.178981 -1.41345e-05 0)
(0.178956 -1.29869e-05 0)
(0.178938 -1.29095e-05 0)
(0.178922 -1.40669e-05 0)
(0.178914 -1.41337e-05 0)
(0.178916 -1.38361e-05 0)
(0.178924 -1.41261e-05 0)
(0.178935 -9.89235e-06 0)
(0.178943 -7.71267e-06 0)
(0.178949 -5.70135e-06 0)
(0.195644 0.00743108 0)
(0.196465 0.00867902 0)
(0.197857 0.00843949 0)
(0.199442 0.00963308 0)
(0.200711 0.00923284 0)
(0.20169 0.00792548 0)
(0.202261 0.00859044 0)
(0.202389 0.00673893 0)
(0.202441 0.0062186 0)
(0.202596 0.00592394 0)
(0.202839 0.00559467 0)
(0.202961 0.00537398 0)
(0.202895 0.00526729 0)
(0.202749 0.00497131 0)
(0.202713 0.00475705 0)
(0.202738 0.00459284 0)
(0.202794 0.00437906 0)
(0.202809 0.00431845 0)
(0.202699 0.00421088 0)
(0.202468 0.00401279 0)
(0.2022 0.00377626 0)
(0.202006 0.00355994 0)
(0.201877 0.00346914 0)
(0.201706 0.0033741 0)
(0.201479 0.00325017 0)
(0.201217 0.00311927 0)
(0.200902 0.00300252 0)
(0.200484 0.00293229 0)
(0.199983 0.00274567 0)
(0.199501 0.00254928 0)
(0.199073 0.00240203 0)
(0.198661 0.00224708 0)
(0.198246 0.00214588 0)
(0.19782 0.00201606 0)
(0.19736 0.00186328 0)
(0.196861 0.00176907 0)
(0.196342 0.00162603 0)
(0.19582 0.00142872 0)
(0.195295 0.00132507 0)
(0.194754 0.00121261 0)
(0.194199 0.00101682 0)
(0.193671 0.000856781 0)
(0.193185 0.000752103 0)
(0.192721 0.000617203 0)
(0.192285 0.000486015 0)
(0.19189 0.000432828 0)
(0.191507 0.000371068 0)
(0.191129 0.000295243 0)
(0.190771 0.000283734 0)
(0.190421 0.000261174 0)
(0.190082 0.000206935 0)
(0.189783 0.000188922 0)
(0.189527 0.000172765 0)
(0.189293 0.000140438 0)
(0.18907 0.000134381 0)
(0.188851 0.000128796 0)
(0.188628 0.000104384 0)
(0.188408 7.70171e-05 0)
(0.188221 4.89598e-05 0)
(0.188083 3.02722e-05 0)
(0.187978 2.95827e-05 0)
(0.187879 2.32858e-05 0)
(0.187784 1.36756e-05 0)
(0.187701 1.02192e-05 0)
(0.187631 2.74489e-06 0)
(0.187574 -6.14987e-06 0)
(0.187532 -6.7594e-06 0)
(0.187498 -7.59723e-06 0)
(0.187467 -1.00413e-05 0)
(0.187443 -1.17319e-05 0)
(0.187431 -1.42048e-05 0)
(0.187431 -1.57006e-05 0)
(0.187437 -1.14117e-05 0)
(0.187443 -9.18084e-06 0)
(0.187445 -5.79921e-06 0)
(0.196032 0.0071369 0)
(0.196777 0.00809551 0)
(0.198032 0.00805337 0)
(0.199377 0.00908474 0)
(0.200435 0.00900165 0)
(0.201365 0.00756702 0)
(0.202047 0.00866515 0)
(0.202361 0.00652738 0)
(0.202323 0.00611461 0)
(0.202484 0.00581829 0)
(0.202736 0.00553255 0)
(0.202865 0.00538251 0)
(0.20283 0.00525832 0)
(0.202716 0.00503594 0)
(0.202658 0.00475655 0)
(0.202689 0.00454091 0)
(0.202767 0.00437518 0)
(0.202837 0.00430889 0)
(0.202834 0.00421123 0)
(0.202753 0.00409981 0)
(0.202611 0.00385583 0)
(0.202502 0.00358111 0)
(0.202465 0.00347186 0)
(0.202431 0.00338171 0)
(0.202382 0.00327407 0)
(0.20233 0.00316064 0)
(0.20224 0.00306828 0)
(0.202043 0.00301771 0)
(0.201757 0.00283501 0)
(0.201495 0.00264732 0)
(0.201298 0.00248054 0)
(0.201123 0.00231581 0)
(0.200947 0.00222559 0)
(0.200771 0.002094 0)
(0.200568 0.00194469 0)
(0.200315 0.00186931 0)
(0.200029 0.00173885 0)
(0.199731 0.00153564 0)
(0.199427 0.00143408 0)
(0.199088 0.00132894 0)
(0.198714 0.00113129 0)
(0.19835 0.000965565 0)
(0.198011 0.000857932 0)
(0.197671 0.000716377 0)
(0.197344 0.000574357 0)
(0.197052 0.00051975 0)
(0.196767 0.000455465 0)
(0.19648 0.000372985 0)
(0.196205 0.000364114 0)
(0.195921 0.000341399 0)
(0.195626 0.000278789 0)
(0.195359 0.000252883 0)
(0.195133 0.000229508 0)
(0.194929 0.000190265 0)
(0.194737 0.000183318 0)
(0.194543 0.000179386 0)
(0.194333 0.000155589 0)
(0.194113 0.000125206 0)
(0.193913 8.76495e-05 0)
(0.193761 5.85882e-05 0)
(0.19365 5.36253e-05 0)
(0.193549 4.55134e-05 0)
(0.193449 3.39494e-05 0)
(0.193357 2.85774e-05 0)
(0.193274 1.82128e-05 0)
(0.193203 5.71176e-06 0)
(0.19315 2.56707e-06 0)
(0.193106 5.89925e-07 0)
(0.193064 -3.17563e-06 0)
(0.193027 -6.51932e-06 0)
(0.193 -1.09478e-05 0)
(0.19299 -1.47904e-05 0)
(0.19299 -1.264e-05 0)
(0.192992 -9.36015e-06 0)
(0.19299 -6.5465e-06 0)
(0.196438 0.00686042 0)
(0.197056 0.00763001 0)
(0.198149 0.00766955 0)
(0.199314 0.00860422 0)
(0.200226 0.00868114 0)
(0.201103 0.00734236 0)
(0.20189 0.00847331 0)
(0.202292 0.0065222 0)
(0.202238 0.00592985 0)
(0.20238 0.00578662 0)
(0.202607 0.00547335 0)
(0.20273 0.00535027 0)
(0.20272 0.00530078 0)
(0.20265 0.00507253 0)
(0.202581 0.00475169 0)
(0.202596 0.00452538 0)
(0.202672 0.00433878 0)
(0.202753 0.00428951 0)
(0.202799 0.00421775 0)
(0.202782 0.00410687 0)
(0.202695 0.00387997 0)
(0.202602 0.00358983 0)
(0.202569 0.0034954 0)
(0.20257 0.00338895 0)
(0.202581 0.00327697 0)
(0.202604 0.00315632 0)
(0.202605 0.00309989 0)
(0.202505 0.00305158 0)
(0.202331 0.00290188 0)
(0.202193 0.00268826 0)
(0.202109 0.00251332 0)
(0.202048 0.00234532 0)
(0.201996 0.0022369 0)
(0.201949 0.00212326 0)
(0.201891 0.00197811 0)
(0.201791 0.00190229 0)
(0.201649 0.00178903 0)
(0.201494 0.00159432 0)
(0.20134 0.00150338 0)
(0.201144 0.0014077 0)
(0.200906 0.0012083 0)
(0.200676 0.0010386 0)
(0.200462 0.000931512 0)
(0.200228 0.000788032 0)
(0.199994 0.000638298 0)
(0.199788 0.000583519 0)
(0.199587 0.000516605 0)
(0.199387 0.00042808 0)
(0.199203 0.000424785 0)
(0.198998 0.000406056 0)
(0.198765 0.000339743 0)
(0.198546 0.000308231 0)
(0.198361 0.000277928 0)
(0.198198 0.000231723 0)
(0.198048 0.000224173 0)
(0.197895 0.000223538 0)
(0.197718 0.000203395 0)
(0.197518 0.000173613 0)
(0.197324 0.000127957 0)
(0.197174 8.80532e-05 0)
(0.197069 7.78188e-05 0)
(0.196976 6.76904e-05 0)
(0.196882 5.48406e-05 0)
(0.196792 4.86325e-05 0)
(0.196706 3.59354e-05 0)
(0.19663 1.94421e-05 0)
(0.196571 1.38719e-05 0)
(0.196523 1.05278e-05 0)
(0.196476 6.1602e-06 0)
(0.196431 1.60757e-06 0)
(0.196396 -6.97721e-06 0)
(0.196376 -1.4029e-05 0)
(0.196367 -1.16984e-05 0)
(0.196366 -8.39458e-06 0)
(0.196359 -5.67938e-06 0)
(0.196861 0.00666615 0)
(0.197335 0.00732827 0)
(0.198251 0.00716525 0)
(0.199268 0.0083031 0)
(0.200059 0.00842834 0)
(0.200916 0.00693263 0)
(0.201747 0.00842834 0)
(0.202212 0.00648537 0)
(0.202157 0.0059456 0)
(0.202258 0.00557231 0)
(0.202468 0.00544456 0)
(0.202609 0.0053071 0)
(0.202599 0.00526924 0)
(0.202569 0.00508658 0)
(0.202506 0.00477144 0)
(0.202502 0.00454128 0)
(0.202578 0.00431801 0)
(0.202663 0.00426699 0)
(0.202726 0.0041998 0)
(0.202743 0.00410733 0)
(0.202696 0.00392211 0)
(0.202613 0.00361158 0)
(0.202555 0.00350533 0)
(0.202557 0.00339999 0)
(0.202584 0.0032525 0)
(0.202622 0.00315424 0)
(0.202628 0.00306721 0)
(0.20254 0.00321178 0)
(0.202456 0.00286566 0)
(0.202405 0.002677 0)
(0.202353 0.00251516 0)
(0.202324 0.00233399 0)
(0.202322 0.0022592 0)
(0.202326 0.00211038 0)
(0.202326 0.00200973 0)
(0.202302 0.0019323 0)
(0.202233 0.0018087 0)
(0.202153 0.00160815 0)
(0.202081 0.00153015 0)
(0.201964 0.00145638 0)
(0.201809 0.00125854 0)
(0.201671 0.00108499 0)
(0.201542 0.000980789 0)
(0.201382 0.000839341 0)
(0.201212 0.00068512 0)
(0.201063 0.000631342 0)
(0.200913 0.000559942 0)
(0.200775 0.000463389 0)
(0.200664 0.000466434 0)
(0.200528 0.000454009 0)
(0.200353 0.000388177 0)
(0.20018 0.000353717 0)
(0.200031 0.000317213 0)
(0.199904 0.000263897 0)
(0.199793 0.000255629 0)
(0.19968 0.000258777 0)
(0.19954 0.000244707 0)
(0.199368 0.000218439 0)
(0.199191 0.000166711 0)
(0.199052 0.000116333 0)
(0.198958 9.99992e-05 0)
(0.198878 8.79174e-05 0)
(0.198797 7.43074e-05 0)
(0.198715 6.8214e-05 0)
(0.198633 5.41976e-05 0)
(0.198557 3.4205e-05 0)
(0.198497 2.55619e-05 0)
(0.198451 2.12542e-05 0)
(0.198404 1.64458e-05 0)
(0.198357 1.03816e-05 0)
(0.198317 2.63783e-08 0)
(0.19829 -9.75329e-06 0)
(0.198275 -9.92349e-06 0)
(0.198271 -7.75466e-06 0)
(0.198259 -4.74112e-06 0)
(0.197229 0.00643185 0)
(0.197589 0.0070206 0)
(0.198378 0.00673281 0)
(0.199251 0.00806603 0)
(0.199917 0.00809337 0)
(0.200766 0.00653191 0)
(0.20165 0.00842292 0)
(0.202136 0.00634153 0)
(0.202043 0.00591186 0)
(0.202132 0.00557159 0)
(0.202369 0.00504523 0)
(0.202439 0.00555954 0)
(0.202456 0.00529641 0)
(0.202496 0.00509762 0)
(0.202452 0.00478336 0)
(0.20243 0.00450716 0)
(0.202504 0.0042905 0)
(0.202586 0.00422655 0)
(0.202641 0.00417037 0)
(0.202674 0.00411497 0)
(0.202648 0.003941 0)
(0.202583 0.00365518 0)
(0.202535 0.00353186 0)
(0.202523 0.0033357 0)
(0.20254 0.00327153 0)
(0.202577 0.0031164 0)
(0.20255 0.00322499 0)
(0.202479 0.00301266 0)
(0.202486 0.00291144 0)
(0.202453 0.00277326 0)
(0.20239 0.00253812 0)
(0.202382 0.002336 0)
(0.202378 0.00225089 0)
(0.202393 0.00213222 0)
(0.202424 0.00197581 0)
(0.202427 0.00193659 0)
(0.202379 0.00183843 0)
(0.202325 0.00163522 0)
(0.202294 0.00154272 0)
(0.202217 0.00148162 0)
(0.202108 0.00128793 0)
(0.202028 0.00111163 0)
(0.201946 0.001012 0)
(0.201826 0.000874387 0)
(0.201696 0.000719592 0)
(0.201577 0.000669845 0)
(0.201449 0.000592486 0)
(0.201345 0.000484767 0)
(0.201281 0.000493645 0)
(0.201194 0.000488075 0)
(0.201062 0.000426049 0)
(0.200924 0.000391186 0)
(0.200801 0.000349376 0)
(0.200698 0.000288815 0)
(0.200615 0.000279275 0)
(0.200531 0.000286113 0)
(0.200421 0.000279363 0)
(0.200275 0.000258655 0)
(0.200117 0.0002026 0)
(0.19999 0.000142157 0)
(0.199908 0.000119703 0)
(0.199843 0.000105331 0)
(0.199774 9.13656e-05 0)
(0.199703 8.65853e-05 0)
(0.199627 7.22478e-05 0)
(0.199552 4.89115e-05 0)
(0.199495 3.71803e-05 0)
(0.199451 3.17186e-05 0)
(0.199408 2.65179e-05 0)
(0.199363 2.01549e-05 0)
(0.199322 7.71812e-06 0)
(0.199292 -5.05527e-06 0)
(0.199273 -7.32004e-06 0)
(0.199266 -5.70403e-06 0)
(0.19925 -3.06118e-06 0)
(0.197564 0.00635484 0)
(0.197812 0.00662417 0)
(0.198493 0.00658363 0)
(0.199261 0.00770435 0)
(0.199841 0.00768374 0)
(0.200627 0.00652985 0)
(0.201497 0.00823214 0)
(0.202095 0.00610075 0)
(0.20199 0.00583067 0)
(0.202026 0.0054524 0)
(0.20218 0.00537085 0)
(0.20222 0.00530598 0)
(0.202345 0.00520589 0)
(0.202463 0.00507825 0)
(0.202407 0.00482166 0)
(0.202375 0.00446402 0)
(0.20244 0.00429151 0)
(0.202511 0.00423357 0)
(0.202554 0.00416623 0)
(0.202578 0.00408468 0)
(0.202557 0.00398394 0)
(0.202535 0.00361903 0)
(0.202515 0.00354149 0)
(0.202483 0.00335843 0)
(0.202487 0.00324984 0)
(0.202507 0.003178 0)
(0.202468 0.0031117 0)
(0.202444 0.00304784 0)
(0.202459 0.00298123 0)
(0.202419 0.00279946 0)
(0.202374 0.00247992 0)
(0.202377 0.00241289 0)
(0.202365 0.00223528 0)
(0.202379 0.00208411 0)
(0.202418 0.00198887 0)
(0.202414 0.00193983 0)
(0.202366 0.00186602 0)
(0.20233 0.00161989 0)
(0.202312 0.00155712 0)
(0.202248 0.00149436 0)
(0.202166 0.00130996 0)
(0.202119 0.00113982 0)
(0.202059 0.00104546 0)
(0.20196 0.000908407 0)
(0.201854 0.000752776 0)
(0.20175 0.000707486 0)
(0.201627 0.000621882 0)
(0.201534 0.000499753 0)
(0.201495 0.000512915 0)
(0.201438 0.00051273 0)
(0.201336 0.00045674 0)
(0.20122 0.000423647 0)
(0.201112 0.000377406 0)
(0.201021 0.000309465 0)
(0.200954 0.000298024 0)
(0.200888 0.000307933 0)
(0.200797 0.000308968 0)
(0.200671 0.000295037 0)
(0.200528 0.0002355 0)
(0.200413 0.00016579 0)
(0.200341 0.000137077 0)
(0.200286 0.000120075 0)
(0.200228 0.000106394 0)
(0.200166 0.000103649 0)
(0.200094 8.97594e-05 0)
(0.200021 6.36408e-05 0)
(0.199966 4.84751e-05 0)
(0.199926 4.13898e-05 0)
(0.199888 3.60488e-05 0)
(0.199847 2.96265e-05 0)
(0.199807 1.5691e-05 0)
(0.199776 4.54283e-07 0)
(0.199755 -3.80294e-06 0)
(0.199745 -2.99674e-06 0)
(0.199726 -9.06476e-07 0)
(0.197842 0.00638072 0)
(0.198004 0.00637809 0)
(0.198601 0.00611265 0)
(0.199239 0.00784026 0)
(0.199901 0.00683515 0)
(0.20052 0.00677455 0)
(0.201277 0.00763541 0)
(0.202033 0.00627645 0)
(0.201976 0.00590641 0)
(0.201898 0.00531779 0)
(0.201982 0.00517398 0)
(0.202077 0.00520133 0)
(0.202289 0.005154 0)
(0.202402 0.00513329 0)
(0.202316 0.00479943 0)
(0.202293 0.00453208 0)
(0.202376 0.0042325 0)
(0.202447 0.00421636 0)
(0.202472 0.00412322 0)
(0.20247 0.00414095 0)
(0.202459 0.00391601 0)
(0.202479 0.00364748 0)
(0.202478 0.00358779 0)
(0.202432 0.0033547 0)
(0.202434 0.00324925 0)
(0.202442 0.00315382 0)
(0.202411 0.00315809 0)
(0.202406 0.00310897 0)
(0.202407 0.00295174 0)
(0.202369 0.00276125 0)
(0.202346 0.00251737 0)
(0.202357 0.00235825 0)
(0.202338 0.00220955 0)
(0.202337 0.00212764 0)
(0.202364 0.00199997 0)
(0.202346 0.00192574 0)
(0.20232 0.00187209 0)
(0.202311 0.00163137 0)
(0.202272 0.00159038 0)
(0.202193 0.00155539 0)
(0.202134 0.00131445 0)
(0.202114 0.00113534 0)
(0.202064 0.00105562 0)
(0.201977 0.00092759 0)
(0.201889 0.000780373 0)
(0.201792 0.000745154 0)
(0.201665 0.000649731 0)
(0.201571 0.000511882 0)
(0.201542 0.000529118 0)
(0.201501 0.000531835 0)
(0.201418 0.00048312 0)
(0.201318 0.00045366 0)
(0.201216 0.000403621 0)
(0.20113 0.000328219 0)
(0.201071 0.000314502 0)
(0.201015 0.000326858 0)
(0.200934 0.000335672 0)
(0.200819 0.000328747 0)
(0.200688 0.00026617 0)
(0.200582 0.00018779 0)
(0.200517 0.000152701 0)
(0.200469 0.00013304 0)
(0.200419 0.000119866 0)
(0.200362 0.000119757 0)
(0.200293 0.000107211 0)
(0.200221 7.85326e-05 0)
(0.200167 5.93219e-05 0)
(0.200131 5.03327e-05 0)
(0.200097 4.48699e-05 0)
(0.20006 3.86199e-05 0)
(0.200022 2.36814e-05 0)
(0.199991 6.34561e-06 0)
(0.199969 1.65617e-07 0)
(0.199958 1.57385e-07 0)
(0.199937 1.62202e-06 0)
(0.198076 0.00609349 0)
(0.198187 0.00604957 0)
(0.198665 0.00623944 0)
(0.199285 0.00700206 0)
(0.199937 0.00712895 0)
(0.200482 0.00637728 0)
(0.201226 0.00658201 0)
(0.201941 0.00625346 0)
(0.201839 0.00596969 0)
(0.201737 0.00537899 0)
(0.201876 0.00515416 0)
(0.202024 0.0052147 0)
(0.202187 0.00516522 0)
(0.202246 0.00509003 0)
(0.202192 0.00482765 0)
(0.202223 0.00449728 0)
(0.202343 0.00421463 0)
(0.202399 0.00416538 0)
(0.202376 0.00415373 0)
(0.20235 0.00410142 0)
(0.202361 0.00396488 0)
(0.202429 0.00362084 0)
(0.202435 0.00360056 0)
(0.202381 0.00333891 0)
(0.202386 0.00323887 0)
(0.202385 0.00318548 0)
(0.20235 0.00314332 0)
(0.202345 0.00307588 0)
(0.202349 0.00297824 0)
(0.202329 0.00279434 0)
(0.202317 0.0024942 0)
(0.202325 0.00237744 0)
(0.202299 0.00229684 0)
(0.202286 0.00204683 0)
(0.20229 0.00198519 0)
(0.202269 0.00197293 0)
(0.202273 0.00182824 0)
(0.202268 0.00170005 0)
(0.202206 0.00158052 0)
(0.202123 0.00155742 0)
(0.202085 0.00129675 0)
(0.202072 0.00116612 0)
(0.202026 0.0010868 0)
(0.201955 0.000952914 0)
(0.201884 0.000809885 0)
(0.201788 0.000783999 0)
(0.201655 0.000677008 0)
(0.201558 0.000526759 0)
(0.20153 0.000543274 0)
(0.201496 0.000546774 0)
(0.201426 0.000506443 0)
(0.201336 0.000482601 0)
(0.201238 0.000429841 0)
(0.201154 0.000346783 0)
(0.201097 0.000330104 0)
(0.201045 0.000344945 0)