/*--------------------------------*- C++ -*----------------------------------*\
| =========                 |                                                 |
| \\      /  F ield         | OpenFOAM: The Open Source CFD Toolbox           |
|  \\    /   O peration     | Version:  2.3.0                                 |
|   \\  /    A nd           | Web:      www.OpenFOAM.org                      |
|    \\/     M anipulation  |                                                 |
\*---------------------------------------------------------------------------*/
FoamFile
{
    version     2.0;
    format      ascii;
    class       volScalarField;
    location    "0.35";
    object      p;
}
// * * * * * * * * * * * * * * * * * * * * * * * * * * * * * * * * * * * * * //

dimensions      [0 2 -2 0 0 0 0];

internalField   nonuniform List<scalar> 
2945
(
0.00221317
0.00127253
0.000575441
0.000106743
-0.000214432
-0.000417468
-0.000523202
-0.000561367
-0.000561562
-0.000544914
-0.000523171
-0.000501506
-0.000481548
-0.000463424
-0.000446801
-0.000431319
-0.000416713
-0.000402815
-0.000389527
-0.000376794
-0.000364582
-0.000352869
-0.00034164
-0.000330884
-0.000320591
-0.000310754
-0.000301365
-0.000292417
-0.000283903
-0.000275815
-0.000268144
-0.000260881
-0.000254014
-0.000247529
-0.00024141
-0.000235639
-0.000230195
-0.000225052
-0.000220183
-0.000215556
-0.000211133
-0.000206874
-0.000202731
-0.000198654
-0.000194583
-0.000190453
-0.000186192
-0.000181718
-0.000176943
-0.000171771
-0.000166101
-0.000159833
-0.000152876
-0.000145161
-0.000136661
-0.000127414
-0.000117527
-0.000107259
-9.68247e-05
-8.65096e-05
-7.65468e-05
-6.71199e-05
-5.83487e-05
-5.02987e-05
-4.29928e-05
-3.64181e-05
-3.05377e-05
-2.52986e-05
-2.0639e-05
-1.64925e-05
-1.27924e-05
-9.47229e-06
-6.46452e-06
-3.70536e-06
-9.04323e-07
0.00203626
0.00124778
0.000601903
0.000146408
-0.000173331
-0.000380027
-0.000491519
-0.000535686
-0.000541215
-0.000528912
-0.000510513
-0.000491332
-0.000473199
-0.000456425
-0.000440823
-0.000426134
-0.000412159
-0.000398776
-0.000385916
-0.000373543
-0.000361638
-0.000350191
-0.000339194
-0.000328641
-0.000318529
-0.000308853
-0.000299608
-0.000290791
-0.000282395
-0.000274415
-0.000266843
-0.000259671
-0.000252888
-0.000246481
-0.000240435
-0.000234733
-0.000229352
-0.00022427
-0.000219459
-0.000214885
-0.000210515
-0.000206305
-0.000202211
-0.000198179
-0.000194153
-0.000190067
-0.000185848
-0.000181416
-0.000176682
-0.000171551
-0.000165921
-0.000159693
-0.000152776
-0.000145101
-0.000136637
-0.000127421
-0.000117563
-0.000107313
-9.68855e-05
-8.65738e-05
-7.66114e-05
-6.71828e-05
-5.84085e-05
-5.03544e-05
-4.30439e-05
-3.64645e-05
-3.05795e-05
-2.53359e-05
-2.0672e-05
-1.65215e-05
-1.28177e-05
-9.49393e-06
-6.48283e-06
-3.72195e-06
-9.12172e-07
0.00186133
0.00120555
0.000619066
0.000186509
-0.000124882
-0.000333305
-0.000452529
-0.000506027
-0.000519727
-0.000513465
-0.000499104
-0.000482496
-0.000466012
-0.000450351
-0.000435559
-0.000421502
-0.000408045
-0.000395097
-0.000382609
-0.000370557
-0.00035893
-0.000347725
-0.00033694
-0.000326574
-0.000316627
-0.000307098
-0.000297985
-0.000289286
-0.000280998
-0.000273116
-0.000265634
-0.000258545
-0.000251839
-0.000245503
-0.000239523
-0.000233883
-0.000228561
-0.000223534
-0.000218775
-0.000214252
-0.00020993
-0.000205766
-0.000201716
-0.000197729
-0.000193744
-0.000189699
-0.000185521
-0.000181129
-0.000176434
-0.000171342
-0.00016575
-0.00015956
-0.000152679
-0.000145037
-0.000136604
-0.000127402
-0.000117549
-0.00010732
-9.69055e-05
-8.65997e-05
-7.66392e-05
-6.72116e-05
-5.84373e-05
-5.03824e-05
-4.30708e-05
-3.64899e-05
-3.06033e-05
-2.53582e-05
-2.06927e-05
-1.65408e-05
-1.28355e-05
-9.51058e-06
-6.49866e-06
-3.7343e-06
-9.12007e-07
0.00170612
0.00115726
0.000630546
0.000226051
-7.19455e-05
-0.000278315
-0.000403574
-0.000466491
-0.000489479
-0.000490799
-0.00048204
-0.000469374
-0.000455626
-0.000441892
-0.000428496
-0.000415484
-0.000402837
-0.000390534
-0.00037857
-0.000366951
-0.000355688
-0.000344791
-0.000334271
-0.000324135
-0.000314389
-0.000305037
-0.000296082
-0.000287524
-0.000279363
-0.000271596
-0.000264219
-0.000257225
-0.000250607
-0.000244352
-0.000238448
-0.000232877
-0.000227622
-0.000222657
-0.000217956
-0.000213489
-0.000209219
-0.000205107
-0.000201107
-0.000197166
-0.000193229
-0.000189229
-0.000185096
-0.000180747
-0.000176096
-0.000171046
-0.000165496
-0.000159345
-0.000152502
-0.000144894
-0.000136491
-0.000127318
-0.000117501
-0.000107237
-9.68548e-05
-8.6574e-05
-7.66273e-05
-6.72092e-05
-5.84421e-05
-5.03925e-05
-4.30848e-05
-3.65065e-05
-3.06215e-05
-2.53774e-05
-2.07125e-05
-1.65608e-05
-1.28559e-05
-9.53162e-06
-6.52074e-06
-3.75186e-06
-9.23608e-07
0.00156097
0.00110248
0.000635514
0.000261735
-2.03543e-05
-0.000221834
-0.000350725
-0.000421681
-0.000453564
-0.000462722
-0.00046014
-0.00045207
-0.000441674
-0.000430395
-0.000418837
-0.000407239
-0.000395708
-0.000384305
-0.000373079
-0.000362073
-0.000351323
-0.000340861
-0.000330712
-0.000320895
-0.000311425
-0.000302315
-0.000293571
-0.000285201
-0.000277206
-0.000269589
-0.000262347
-0.000255475
-0.000248968
-0.000242815
-0.000237004
-0.000231521
-0.000226345
-0.000221456
-0.000216826
-0.000212426
-0.000208219
-0.000204167
-0.000200225
-0.000196341
-0.000192457
-0.000188511
-0.000184429
-0.000180131
-0.00017553
-0.000170529
-0.000165027
-0.000158924
-0.000152125
-0.00014456
-0.000136198
-0.000127066
-0.000117287
-0.00010704
-9.66754e-05
-8.6448e-05
-7.65472e-05
-6.71616e-05
-5.84173e-05
-5.03842e-05
-4.3089e-05
-3.65199e-05
-3.06414e-05
-2.54017e-05
-2.074e-05
-1.65906e-05
-1.28878e-05
-9.56582e-06
-6.55799e-06
-3.78708e-06
-9.74936e-07
0.00142806
0.0010448
0.000634257
0.000291499
2.61781e-05
-0.000168618
-0.000298954
-0.000376147
-0.000415785
-0.000432219
-0.00043564
-0.000432216
-0.000425321
-0.000416682
-0.000407147
-0.000397139
-0.000386884
-0.000376528
-0.000366172
-0.000355897
-0.000345767
-0.000335836
-0.000326142
-0.00031672
-0.000307594
-0.000298784
-0.000290306
-0.00028217
-0.000274385
-0.000266954
-0.000259879
-0.000253158
-0.000246787
-0.000240759
-0.000235062
-0.000229683
-0.000224604
-0.000219803
-0.000215256
-0.000210933
-0.0002068
-0.000202817
-0.000198941
-0.00019512
-0.000191297
-0.00018741
-0.000183386
-0.000179145
-0.0001746
-0.000169655
-0.00016421
-0.000158163
-0.000151422
-0.000143915
-0.000135614
-0.000126548
-0.00011684
-0.000106681
-9.63616e-05
-8.61701e-05
-7.63424e-05
-6.70265e-05
-5.83353e-05
-5.03395e-05
-4.30716e-05
-3.65224e-05
-3.06586e-05
-2.54294e-05
-2.07753e-05
-1.66315e-05
-1.29336e-05
-9.61672e-06
-6.61536e-06
-3.85004e-06
-1.09479e-06
0.0013086
0.000986532
0.00062726
0.000314853
6.65999e-05
-0.00012031
-0.000250264
-0.000331927
-0.000377988
-0.000400853
-0.000409826
-0.000410858
-0.000407427
-0.000401464
-0.000394021
-0.000385678
-0.000376775
-0.000367535
-0.000358114
-0.000348631
-0.000339178
-0.000329829
-0.000320641
-0.000311658
-0.000302918
-0.000294448
-0.00028627
-0.000278402
-0.000270855
-0.000263637
-0.000256754
-0.000250207
-0.000243993
-0.000238107
-0.00023254
-0.000227279
-0.000222308
-0.000217608
-0.000213153
-0.000208916
-0.000204862
-0.000200955
-0.000197149
-0.000193396
-0.000189639
-0.000185814
-0.000181852
-0.000177673
-0.00017319
-0.000168308
-0.000162927
-0.000156948
-0.00015028
-0.000142854
-0.000134641
-0.000125676
-0.00011608
-0.000106046
-9.58512e-05
-8.57573e-05
-7.59977e-05
-6.67611e-05
-5.81536e-05
-5.02265e-05
-4.30097e-05
-3.64971e-05
-3.066e-05
-2.54504e-05
-2.0811e-05
-1.66784e-05
-1.299e-05
-9.68256e-06
-6.69309e-06
-3.94582e-06
-1.3022e-06
0.00120162
0.000928851
0.000615268
0.000332105
0.000100972
-7.72525e-05
-0.00020539
-0.000289968
-0.000341175
-0.000369586
-0.000383569
-0.000388765
-0.000388663
-0.00038533
-0.000379975
-0.000373311
-0.000365782
-0.000357682
-0.00034922
-0.000340553
-0.000331801
-0.000323056
-0.000314394
-0.000305872
-0.000297536
-0.000289423
-0.000281563
-0.000273977
-0.000266683
-0.000259692
-0.000253014
-0.000246651
-0.000240603
-0.000234868
-0.000229438
-0.000224303
-0.000219446
-0.00021485
-0.000210491
-0.000206342
-0.000202371
-0.00019854
-0.000194806
-0.000191121
-0.000187429
-0.000183668
-0.000179769
-0.000175653
-0.000171234
-0.000166419
-0.000161111
-0.000155212
-0.000148634
-0.000141312
-0.000133221
-0.000124396
-0.000114956
-0.000105091
-9.50664e-05
-8.51326e-05
-7.55165e-05
-6.63816e-05
-5.7854e-05
-5.00144e-05
-4.28735e-05
-3.64203e-05
-3.06272e-05
-2.54498e-05
-2.08346e-05
-1.67209e-05
-1.30483e-05
-9.75639e-06
-6.78597e-06
-4.0719e-06
-1.59457e-06
0.00110577
0.000872764
0.000599335
0.000343906
0.000129711
-3.93271e-05
-0.000164536
-0.0002507
-0.000305884
-0.000338976
-0.000357402
-0.000366424
-0.000369466
-0.000368671
-0.00036536
-0.00036036
-0.0003542
-0.000347243
-0.000339747
-0.000331902
-0.000323856
-0.000315723
-0.000307593
-0.000299538
-0.000291612
-0.000283863
-0.000276325
-0.000269027
-0.000261989
-0.000255229
-0.000248758
-0.000242582
-0.000236703
-0.00023112
-0.000225828
-0.000220817
-0.000216074
-0.00021158
-0.000207316
-0.000203253
-0.00019936
-0.000195602
-0.000191936
-0.000188315
-0.000184685
-0.000180984
-0.000177144
-0.000173089
-0.000168734
-0.00016399
-0.00015876
-0.000152951
-0.000146481
-0.000139286
-0.000131345
-0.000122697
-0.000113455
-0.000103804
-9.3992e-05
-8.42612e-05
-7.48279e-05
-6.58537e-05
-5.74597e-05
-4.97158e-05
-4.26522e-05
-3.62725e-05
-3.05405e-05
-2.54108e-05
-2.08322e-05
-1.67468e-05
-1.3098e-05
-9.82864e-06
-6.88524e-06
-4.21862e-06
-1.94265e-06
0.00101973
0.000818989
0.000580471
0.000350938
0.000153298
-6.25275e-06
-0.000127663
-0.000214276
-0.000272375
-0.000309326
-0.000331627
-0.000344116
-0.000350092
-0.000351717
-0.00035039
-0.000347021
-0.000342216
-0.000336395
-0.00032986
-0.000322838
-0.0003155
-0.00030798
-0.000300384
-0.000292796
-0.000285283
-0.000277898
-0.000270683
-0.000263672
-0.000256892
-0.000250362
-0.000244097
-0.000238105
-0.000232393
-0.00022696
-0.000221803
-0.000216913
-0.000212279
-0.000207885
-0.000203709
-0.000199726
-0.000195907
-0.000192215
-0.000188611
-0.000185048
-0.000181473
-0.000177826
-0.000174041
-0.000170043
-0.000165751
-0.000161076
-0.000155929
-0.000150219
-0.000143867
-0.000136818
-0.000129054
-0.000120612
-0.000111603
-0.000102202
-9.26411e-05
-8.31494e-05
-7.39335e-05
-6.51522e-05
-5.69225e-05
-4.93156e-05
-4.23633e-05
-3.60641e-05
-3.03954e-05
-2.53229e-05
-2.07921e-05
-1.67455e-05
-1.31295e-05
-9.89042e-06
-6.98171e-06
-4.3727e-06
-2.29982e-06
0.000942263
0.000767921
0.000559529
0.000353855
0.000172221
2.23073e-05
-9.46255e-05
-0.000180723
-0.000240782
-0.000280817
-0.000306436
-0.000322023
-0.000330703
-0.000334613
-0.000335192
-0.000333412
-0.000329938
-0.00032524
-0.000319662
-0.000313458
-0.000306827
-0.00029992
-0.000292859
-0.00028574
-0.000278639
-0.000271619
-0.000264727
-0.000258004
-0.00025148
-0.000245179
-0.000239118
-0.000233311
-0.000227763
-0.000222477
-0.000217451
-0.000212679
-0.000208151
-0.00020385
-0.000199758
-0.00019585
-0.000192098
-0.000188468
-0.000184919
-0.000181408
-0.000177882
-0.000174284
-0.000170548
-0.000166603
-0.00016237
-0.000157766
-0.000152703
-0.000147097
-0.000140875
-0.000133986
-0.000126416
-0.000118203
-0.000109452
-0.000100329
-9.10463e-05
-8.18222e-05
-7.28516e-05
-6.42885e-05
-5.62471e-05
-4.87991e-05
-4.19773e-05
-3.57848e-05
-3.02029e-05
-2.51946e-05
-2.07137e-05
-1.67121e-05
-1.31362e-05
-9.9349e-06
-7.06766e-06
-4.52115e-06
-2.62046e-06
0.000872234
0.000719718
0.000537217
0.00035328
0.00018696
4.67025e-05
-6.52391e-05
-0.00015001
-0.000211176
-0.000253572
-0.000281967
-0.000300277
-0.000311417
-0.000317459
-0.000319853
-0.000319607
-0.000317433
-0.000313841
-0.000309207
-0.000303818
-0.00029789
-0.000291596
-0.00028507
-0.000278421
-0.000271734
-0.00026508
-0.000258513
-0.000252078
-0.000245811
-0.00023974
-0.000233884
-0.00022826
-0.000222875
-0.000217735
-0.00021284
-0.000208184
-0.000203758
-0.000199548
-0.000195537
-0.000191701
-0.000188012
-0.000184438
-0.000180941
-0.000177477
-0.000173996
-0.000170442
-0.000166753
-0.000162859
-0.000158684
-0.00015415
-0.000149174
-0.000143677
-0.000137592
-0.000130873
-0.00012351
-0.00011554
-0.000107064
-9.82347e-05
-8.925e-05
-8.0313e-05
-7.16078e-05
-6.32825e-05
-5.54481e-05
-4.81757e-05
-4.15005e-05
-3.54289e-05
-2.99451e-05
-2.50164e-05
-2.06012e-05
-1.66529e-05
-1.31207e-05
-9.96015e-06
-7.13822e-06
-4.65364e-06
-2.87482e-06
0.000808653
0.000674382
0.000514101
0.000349793
0.000197974
6.72766e-05
-3.93008e-05
-0.000122075
-0.000183597
-0.000227683
-0.00025833
-0.000278986
-0.00029233
-0.000300338
-0.00030444
-0.000305662
-0.000304746
-0.000302234
-0.000298532
-0.000293947
-0.000288719
-0.000283036
-0.000277046
-0.000270867
-0.000264596
-0.00025831
-0.000252069
-0.000245926
-0.000239918
-0.000234078
-0.000228429
-0.000222989
-0.000217769
-0.000212776
-0.000208011
-0.000203471
-0.000199147
-0.000195029
-0.000191097
-0.000187332
-0.000183705
-0.000180187
-0.000176739
-0.000173321
-0.000169883
-0.000166372
-0.000162728
-0.000158884
-0.000154769
-0.000150306
-0.00014542
-0.000140036
-0.000134094
-0.000127553
-0.000120404
-0.000112687
-0.000104494
-9.59692e-05
-8.72933e-05
-7.86555e-05
-7.02289e-05
-6.21551e-05
-5.45412e-05
-4.74579e-05
-4.0942e-05
-3.50026e-05
-2.96275e-05
-2.47882e-05
-2.04465e-05
-1.6559e-05
-1.30795e-05
-9.96706e-06
-7.19328e-06
-4.76538e-06
-3.05447e-06
0.00075067
0.000631815
0.000490617
0.000343913
0.0002057
8.43623e-05
-1.65993e-05
-9.68321e-05
-0.000158056
-0.000203219
-0.000235619
-0.000258247
-0.000273528
-0.000283321
-0.000289012
-0.000291624
-0.000291916
-0.000290452
-0.00028766
-0.000283868
-0.000279332
-0.000274256
-0.0002688
-0.000263092
-0.000257238
-0.000251322
-0.000245411
-0.000239561
-0.000233815
-0.000228209
-0.00022277
-0.000217517
-0.000212464
-0.00020762
-0.000202988
-0.000198566
-0.000194347
-0.00019032
-0.00018647
-0.000182776
-0.000179213
-0.000175751
-0.000172354
-0.000168981
-0.000165588
-0.000162122
-0.000158524
-0.000154733
-0.000150679
-0.000146291
-0.000141498
-0.000136233
-0.000130439
-0.00012408
-0.000117152
-0.000109692
-0.000101788
-9.35714e-05
-8.52096e-05
-7.68777e-05
-6.87377e-05
-6.09244e-05
-5.35408e-05
-4.66565e-05
-4.03098e-05
-3.45122e-05
-2.92549e-05
-2.45132e-05
-2.02524e-05
-1.64327e-05
-1.30117e-05
-9.95163e-06
-7.22832e-06
-4.85275e-06
-3.1677e-06
0.000697553
0.000591862
0.000467089
0.000336096
0.000210544
9.82798e-05
3.0803e-06
-7.41797e-05
-0.000134544
-0.00018023
-0.00021391
-0.000238142
-0.000255092
-0.000266479
-0.000273627
-0.00027754
-0.000278979
-0.000278522
-0.000276613
-0.000273596
-0.000269742
-0.000265266
-0.00026034
-0.000255103
-0.000249666
-0.000244122
-0.000238542
-0.000232988
-0.000227508
-0.00022214
-0.000216913
-0.000211851
-0.000206969
-0.000202278
-0.000197782
-0.00019348
-0.000189369
-0.000185438
-0.000181672
-0.000178052
-0.000174555
-0.000171151
-0.000167808
-0.000164485
-0.000161139
-0.00015772
-0.000154173
-0.000150437
-0.000146449
-0.000142141
-0.000137447
-0.000132305
-0.000126664
-0.000120492
-0.000113788
-0.000106589
-9.89745e-05
-9.10681e-05
-8.30226e-05
-7.49997e-05
-6.71509e-05
-5.96038e-05
-5.24574e-05
-4.57798e-05
-3.96102e-05
-3.39624e-05
-2.88307e-05
-2.41938e-05
-2.00208e-05
-1.6275e-05
-1.29176e-05
-9.91416e-06
-7.2432e-06
-4.91531e-06
-3.22963e-06
0.000648683
0.000554339
0.000443751
0.000326736
0.000212884
0.000109335
1.9953e-05
-5.40025e-05
-0.000113033
-0.000158747
-0.000193267
-0.000218749
-0.000237096
-0.000249877
-0.000258339
-0.000263453
-0.00026597
-0.000266473
-0.000265414
-0.000263149
-0.000259962
-0.000256076
-0.000251675
-0.000246904
-0.000241884
-0.000236711
-0.000231465
-0.00022621
-0.000220998
-0.00021587
-0.00021086
-0.000205992
-0.000201285
-0.00019675
-0.000192394
-0.000188218
-0.000184218
-0.000180386
-0.000176708
-0.000173167
-0.00016974
-0.000166399
-0.000163113
-0.000159844
-0.000156549
-0.000153182
-0.00014969
-0.000146016
-0.000142099
-0.000137877
-0.000133287
-0.000128274
-0.00012279
-0.00011681
-0.000110334
-0.000103396
-9.60723e-05
-8.84757e-05
-8.07465e-05
-7.30339e-05
-6.54789e-05
-5.8202e-05
-5.12978e-05
-4.4833e-05
-3.88471e-05
-3.3356e-05
-2.83567e-05
-2.38314e-05
-1.97523e-05
-1.60862e-05
-1.27974e-05
-9.85442e-06
-7.23731e-06
-4.95346e-06
-3.25476e-06
0.000603528
0.000519049
0.000420763
0.000316162
0.000213061
0.000117819
3.42316e-05
-3.6176e-05
-9.34788e-05
-0.000138784
-0.00017374
-0.00020013
-0.000219605
-0.000233578
-0.000243205
-0.00024941
-0.000252927
-0.000254333
-0.000254084
-0.000252544
-0.000250003
-0.000246694
-0.000242809
-0.0002385
-0.000233893
-0.000229091
-0.000224179
-0.000219224
-0.000214282
-0.000209399
-0.000204608
-0.000199939
-0.00019541
-0.000191036
-0.000186824
-0.000182777
-0.000178893
-0.000175165
-0.00017158
-0.000168122
-0.000164769
-0.000161496
-0.000158272
-0.000155062
-0.000151825
-0.000148515
-0.000145084
-0.000141478
-0.000137638
-0.000133508
-0.000129029
-0.00012415
-0.00011883
-0.000113046
-0.000106799
-0.000100124
-9.30906e-05
-8.58029e-05
-7.83892e-05
-7.09869e-05
-6.37271e-05
-5.67232e-05
-5.00655e-05
-4.38186e-05
-3.80223e-05
-3.26942e-05
-2.78338e-05
-2.34262e-05
-1.9447e-05
-1.5866e-05
-1.26507e-05
-9.77177e-06
-7.21011e-06
-4.96827e-06
-3.25404e-06
0.000561634
0.000485799
0.00039823
0.00030465
0.000211384
0.000124003
4.6124e-05
-2.05692e-05
-7.58247e-05
-0.000120342
-0.000155364
-0.000182341
-0.000202682
-0.000217641
-0.000228275
-0.000235455
-0.000239885
-0.000242131
-0.000242646
-0.000241797
-0.000239879
-0.000237131
-0.000233749
-0.000229894
-0.000225696
-0.000221263
-0.000216683
-0.000212029
-0.00020736
-0.000202722
-0.000198155
-0.000193687
-0.000189341
-0.000185131
-0.000181068
-0.000177156
-0.000173392
-0.000169772
-0.000166285
-0.000162915
-0.000159642
-0.000156442
-0.000153286
-0.00015014
-0.000146966
-0.000143721
-0.000140357
-0.000136824
-0.000133069
-0.000129037
-0.000124676
-0.000119938
-0.000114787
-0.000109202
-0.000103188
-9.67767e-05
-9.00333e-05
-8.30532e-05
-7.59539e-05
-6.88616e-05
-6.1898e-05
-5.51694e-05
-4.87617e-05
-4.27374e-05
-3.71362e-05
-3.1977e-05
-2.72615e-05
-2.29777e-05
-1.91043e-05
-1.56138e-05
-1.24766e-05
-9.66541e-06
-7.16113e-06
-4.96087e-06
-3.23457e-06
0.000522612
0.0004544
0.000376213
0.000292423
0.000208127
0.00012814
5.58314e-05
-7.04705e-06
-6.0002e-05
-0.000103406
-0.000138164
-0.000165426
-0.000186378
-0.000202118
-0.0002136
-0.000221632
-0.000226883
-0.000229898
-0.000231125
-0.000230928
-0.000229604
-0.000227395
-0.000224503
-0.000221091
-0.000217295
-0.000213227
-0.000208978
-0.000204624
-0.000200228
-0.000195839
-0.000191497
-0.000187234
-0.000183074
-0.000179033
-0.000175123
-0.000171349
-0.000167711
-0.000164204
-0.00016082
-0.000157543
-0.000154356
-0.000151234
-0.000148152
-0.000145077
-0.000141972
-0.000138796
-0.000135507
-0.000132055
-0.000128392
-0.000124466
-0.000120229
-0.000115638
-0.000110661
-0.000105281
-9.95015e-05
-9.33549e-05
-8.6901e-05
-8.02273e-05
-7.34412e-05
-6.66585e-05
-5.99918e-05
-5.35406e-05
-4.73862e-05
-4.15889e-05
-3.61879e-05
-3.12034e-05
-2.66388e-05
-2.24849e-05
-1.8723e-05
-1.53285e-05
-1.22741e-05
-9.53441e-06
-7.08989e-06
-4.93229e-06
-3.20045e-06
0.000486123
0.000424677
0.000354742
0.000279663
0.000203529
0.000130465
6.35466e-05
4.52694e-06
-4.59334e-05
-8.79511e-05
-0.000122148
-0.000149418
-0.00017074
-0.000187058
-0.000199226
-0.000207982
-0.000213954
-0.000217664
-0.000219545
-0.000219956
-0.000219193
-0.0002175
-0.000215079
-0.000212097
-0.000208694
-0.000204985
-0.000201063
-0.000197008
-0.000192885
-0.000188745
-0.000184631
-0.000180575
-0.000176604
-0.000172736
-0.000168983
-0.000165352
-0.000161845
-0.000158457
-0.00015518
-0.000152002
-0.000148906
-0.000145869
-0.000142867
-0.000139868
-0.000136839
-0.000133741
-0.000130532
-0.000127169
-0.000123604
-0.000119791
-0.000115685
-0.000111248
-0.000106451
-0.000101279
-9.57378e-05
-8.98571e-05
-8.36926e-05
-7.73243e-05
-7.08503e-05
-6.43769e-05
-5.80077e-05
-5.18358e-05
-4.59379e-05
-4.03719e-05
-3.51764e-05
-3.03721e-05
-2.59645e-05
-2.19464e-05
-1.83018e-05
-1.50087e-05
-1.2042e-05
-9.3778e-06
-6.99591e-06
-4.88333e-06
-3.15377e-06
0.000451874
0.000396467
0.000333827
0.000266512
0.000197798
0.000131189
6.94527e-05
1.42889e-05
-3.3535e-05
-7.39401e-05
-0.000107319
-0.000134342
-0.000155803
-0.000172504
-0.000185195
-0.000194545
-0.000201135
-0.000205458
-0.00020793
-0.000208901
-0.000208662
-0.000207455
-0.000205484
-0.000202918
-0.000199896
-0.000196537
-0.000192938
-0.00018918
-0.000185328
-0.000181438
-0.000177553
-0.000173707
-0.000169929
-0.000166237
-0.000162645
-0.000159162
-0.000155789
-0.000152525
-0.000149362
-0.000146288
-0.000143288
-0.000140342
-0.000137426
-0.00013451
-0.000131564
-0.00012855
-0.00012543
-0.000122162
-0.000118704
-0.000115011
-0.000111044
-0.000106767
-0.000102155
-9.71953e-05
-9.18948e-05
-8.62812e-05
-8.04061e-05
-7.43425e-05
-6.81799e-05
-6.20153e-05
-5.59444e-05
-5.00538e-05
-4.44156e-05
-3.9085e-05
-3.41e-05
-2.94817e-05
-2.52369e-05
-2.13607e-05
-1.78394e-05
-1.46531e-05
-1.17791e-05
-9.19462e-06
-6.87878e-06
-4.81458e-06
-3.09538e-06
0.000419609
0.000369618
0.000313457
0.000253082
0.00019111
0.000130504
7.37224e-05
2.23734e-05
-2.27172e-05
-6.13268e-05
-9.36632e-05
-0.000120211
-0.000141596
-0.000158491
-0.000171546
-0.000181358
-0.000188459
-0.00019331
-0.000196306
-0.000197783
-0.000198027
-0.000197275
-0.00019573
-0.000193559
-0.000190906
-0.000187889
-0.000184606
-0.000181139
-0.000177557
-0.000173916
-0.00017026
-0.000166627
-0.000163043
-0.000159531
-0.000156105
-0.000152773
-0.00014954
-0.000146404
-0.00014336
-0.000140396
-0.000137499
-0.00013465
-0.000131826
-0.000129001
-0.000126143
-0.000123221
-0.000120197
-0.000117032
-0.000113687
-0.000110122
-0.000106301
-0.00010219
-9.7769e-05
-9.30265e-05
-8.79696e-05
-8.26247e-05
-7.70392e-05
-7.12798e-05
-6.54279e-05
-5.95722e-05
-5.38005e-05
-4.8193e-05
-4.28176e-05
-3.77267e-05
-3.29572e-05
-2.85304e-05
-2.44545e-05
-2.07263e-05
-1.73341e-05
-1.42604e-05
-1.14842e-05
-8.9839e-06
-6.73807e-06
-4.72646e-06
-3.02533e-06
0.000389102
0.000343991
0.000293614
0.000239459
0.000183616
0.000128581
7.65131e-05
2.8908e-05
-1.33907e-05
-5.00594e-05
-8.11619e-05
-0.000107027
-0.000128139
-0.000145047
-0.000158308
-0.00016845
-0.000175952
-0.000181242
-0.00018469
-0.000186617
-0.000187299
-0.000186967
-0.00018582
-0.000184026
-0.000181726
-0.000179038
-0.000176063
-0.000172883
-0.000169568
-0.000166175
-0.000162749
-0.000159329
-0.000155943
-0.000152614
-0.000149356
-0.000146181
-0.000143093
-0.000140091
-0.00013717
-0.000134323
-0.000131535
-0.000128788
-0.000126063
-0.000123335
-0.000120574
-0.000117751
-0.00011483
-0.000111776
-0.000108552
-0.000105122
-0.000101453
-9.75159e-05
-9.32908e-05
-8.87696e-05
-8.39594e-05
-7.88849e-05
-7.35895e-05
-6.81341e-05
-6.25926e-05
-5.70458e-05
-5.15742e-05
-4.6252e-05
-4.11425e-05
-3.62956e-05
-3.17465e-05
-2.7517e-05
-2.36159e-05
-2.00417e-05
-1.67847e-05
-1.38292e-05
-1.11563e-05
-8.74493e-06
-6.57354e-06
-4.61942e-06
-2.94317e-06
0.000360152
0.000319464
0.000274273
0.000225714
0.000175452
0.000125579
7.79797e-05
3.40216e-05
-5.46274e-06
-4.00838e-05
-6.97954e-05
-9.47996e-05
-0.000115457
-0.000132209
-0.000145525
-0.000155866
-0.000163659
-0.000169295
-0.00017312
-0.000175436
-0.000176505
-0.000176553
-0.000175774
-0.000174331
-0.000172365
-0.000169994
-0.000167316
-0.000164416
-0.000161363
-0.000158215
-0.000155019
-0.000151813
-0.000148626
-0.000145482
-0.000142397
-0.000139382
-0.000136442
-0.000133579
-0.000130789
-0.000128063
-0.000125389
-0.000122753
-0.000120133
-0.000117508
-0.000114852
-0.000112134
-0.000109324
-0.000106389
-0.000103294
-0.000100007
-9.64972e-05
-9.27396e-05
-8.87164e-05
-8.4421e-05
-7.98606e-05
-7.50583e-05
-7.00538e-05
-6.49025e-05
-5.96714e-05
-5.44338e-05
-4.92634e-05
-4.42286e-05
-3.93883e-05
-3.47894e-05
-3.0466e-05
-2.64393e-05
-2.2719e-05
-1.9305e-05
-1.61893e-05
-1.3358e-05
-1.07937e-05
-8.4765e-06
-6.38451e-06
-4.49358e-06
-2.84733e-06
0.00033256
0.000295892
0.000255372
0.000211867
0.000166701
0.000121623
7.82628e-05
3.78533e-05
1.19278e-06
-3.12925e-05
-5.94763e-05
-8.34592e-05
-0.000103497
-0.000119937
-0.000133167
-0.000143582
-0.00015156
-0.000157454
-0.000161582
-0.000164226
-0.000165636
-0.000166026
-0.000165583
-0.000164468
-0.000162817
-0.000160748
-0.000158358
-0.000155731
-0.000152936
-0.000150031
-0.000147064
-0.000144072
-0.000141086
-0.00013813
-0.000135221
-0.000132371
-0.000129585
-0.000126866
-0.000124211
-0.000121612
-0.00011906
-0.00011654
-0.000114033
-0.000111519
-0.000108973
-0.00010637
-0.000103678
-0.000100869
-9.7911e-05
-9.47743e-05
-9.14313e-05
-8.78597e-05
-8.4044e-05
-7.99789e-05
-7.56716e-05
-7.11435e-05
-6.6431e-05
-6.15842e-05
-5.66637e-05
-5.1736e-05
-4.68682e-05
-4.21231e-05
-3.75552e-05
-3.32086e-05
-2.91158e-05
-2.52975e-05
-2.17641e-05
-1.85164e-05
-1.55481e-05
-1.28469e-05
-1.03968e-05
-8.17892e-06
-6.17157e-06
-4.35045e-06
-2.7361e-06
0.000292771
0.000261643
0.000227485
0.000190858
0.000152684
0.000114276
7.69273e-05
4.16714e-05
9.23336e-06
-1.99412e-05
-4.56444e-05
-6.78607e-05
-8.67189e-05
-0.000102443
-0.000115314
-0.000125634
-0.000133711
-0.000139839
-0.000144293
-0.000147324
-0.000149157
-0.00014999
-0.000149997
-0.00014933
-0.00014812
-0.000146479
-0.000144502
-0.000142271
-0.000139855
-0.00013731
-0.000134684
-0.000132016
-0.000129335
-0.000126666
-0.000124028
-0.000121432
-0.000118885
-0.000116391
-0.000113949
-0.000111552
-0.000109192
-0.000106857
-0.000104532
-0.000102196
-9.98303e-05
-9.74099e-05
-9.49099e-05
-9.23036e-05
-8.95644e-05
-8.66666e-05
-8.35871e-05
-8.03069e-05
-7.68139e-05
-7.31043e-05
-6.91852e-05
-6.50756e-05
-6.08068e-05
-5.64216e-05
-5.19717e-05
-4.75139e-05
-4.31061e-05
-3.88027e-05
-3.46521e-05
-3.06939e-05
-2.69578e-05
-2.34639e-05
-2.02227e-05
-1.72366e-05
-1.45012e-05
-1.20066e-05
-9.73867e-06
-7.68015e-06
-5.81005e-06
-4.10564e-06
-2.54672e-06
0.000242648
0.000217871
0.000190885
0.000162005
0.000131806
0.000101194
7.11056e-05
4.23318e-05
1.54676e-05
-9.07782e-06
-3.10633e-05
-5.03935e-05
-6.70913e-05
-8.12674e-05
-9.30909e-05
-0.000102766
-0.000110512
-0.000116552
-0.000121103
-0.000124366
-0.00012653
-0.000127765
-0.000128221
-0.000128034
-0.000127321
-0.000126183
-0.000124709
-0.000122976
-0.000121045
-0.000118973
-0.000116803
-0.000114573
-0.000112313
-0.000110045
-0.000107789
-0.000105556
-0.000103356
-0.000101192
-9.90633e-05
-9.6968e-05
-9.48987e-05
-9.28459e-05
-9.07968e-05
-8.87364e-05
-8.66474e-05
-8.45103e-05
-8.23046e-05
-8.00086e-05
-7.7601e-05
-7.50613e-05
-7.23713e-05
-6.95166e-05
-6.64883e-05
-6.32842e-05
-5.99108e-05
-5.63837e-05
-5.27283e-05
-4.89786e-05
-4.51757e-05
-4.1365e-05
-3.75929e-05
-3.39039e-05
-3.03377e-05
-2.6928e-05
-2.37004e-05
-2.0673e-05
-1.78562e-05
-1.52535e-05
-1.28623e-05
-1.06753e-05
-8.68096e-06
-6.86419e-06
-5.20581e-06
-3.68436e-06
-2.26896e-06
0.000192091
0.000173226
0.000152823
0.000131036
0.000108203
8.49189e-05
6.1828e-05
3.94959e-05
1.8374e-05
-1.20057e-06
-1.89994e-05
-3.48955e-05
-4.88499e-05
-6.08948e-05
-7.11153e-05
-7.96324e-05
-8.65896e-05
-9.21414e-05
-9.64447e-05
-9.96531e-05
-0.000101912
-0.000103358
-0.000104114
-0.000104292
-0.000103992
-0.0001033
-0.000102293
-0.000101038
-9.95904e-05
-9.79993e-05
-9.63048e-05
-9.45404e-05
-9.27336e-05
-9.09061e-05
-8.90748e-05
-8.7252e-05
-8.54462e-05
-8.36618e-05
-8.19003e-05
-8.01599e-05
-7.84359e-05
-7.67214e-05
-7.50066e-05
-7.32801e-05
-7.15283e-05
-6.97363e-05
-6.78881e-05
-6.59672e-05
-6.39571e-05
-6.18425e-05
-5.96098e-05
-5.72485e-05
-5.47524e-05
-5.21204e-05
-4.9358e-05
-4.64776e-05
-4.34987e-05
-4.0447e-05
-3.73539e-05
-3.42536e-05
-3.11819e-05
-2.81732e-05
-2.52587e-05
-2.24653e-05
-1.98141e-05
-1.73203e-05
-1.49934e-05
-1.28373e-05
-1.08508e-05
-9.02888e-06
-7.36246e-06
-5.8392e-06
-4.4429e-06
-3.15514e-06
-1.94619e-06
0.000140544
0.000127191
0.000112831
9.75269e-05
8.14638e-05
6.50094e-05
4.8578e-05
3.25445e-05
1.72213e-05
2.85684e-06
-1.03655e-05
-2.23264e-05
-3.29658e-05
-4.22748e-05
-5.02851e-05
-5.70593e-05
-6.26812e-05
-6.72478e-05
-7.08629e-05
-7.3632e-05
-7.56583e-05
-7.70402e-05
-7.78696e-05
-7.82307e-05
-7.81996e-05
-7.78444e-05
-7.72251e-05
-7.63941e-05
-7.53968e-05
-7.4272e-05
-7.30527e-05
-7.17663e-05
-7.04353e-05
-6.90781e-05
-6.77089e-05
-6.63381e-05
-6.49735e-05
-6.36193e-05
-6.22775e-05
-6.09474e-05
-5.96263e-05
-5.83094e-05
-5.69901e-05
-5.56602e-05
-5.431e-05
-5.29291e-05
-5.15059e-05
-5.00288e-05
-4.84863e-05
-4.68675e-05
-4.51633e-05
-4.33664e-05
-4.1473e-05
-3.94827e-05
-3.73997e-05
-3.52329e-05
-3.29962e-05
-3.07078e-05
-2.83896e-05
-2.60657e-05
-2.37615e-05
-2.15014e-05
-1.93082e-05
-1.72016e-05
-1.51975e-05
-1.33075e-05
-1.15393e-05
-9.89648e-06
-8.37886e-06
-6.98307e-06
-5.70282e-06
-4.52903e-06
-3.44982e-06
-2.45247e-06
-1.51727e-06
8.6897e-05
7.88559e-05
7.02489e-05
6.10931e-05
5.14779e-05
4.16016e-05
3.16939e-05
2.19667e-05
1.26018e-05
3.74956e-06
-4.47294e-06
-1.19828e-05
-1.87306e-05
-2.46968e-05
-2.98873e-05
-3.43279e-05
-3.80594e-05
-4.1133e-05
-4.36059e-05
-4.55387e-05
-4.69921e-05
-4.80254e-05
-4.8695e-05
-4.90533e-05
-4.91485e-05
-4.9024e-05
-4.87186e-05
-4.82664e-05
-4.76974e-05
-4.70373e-05
-4.6308e-05
-4.55279e-05
-4.47124e-05
-4.38739e-05
-4.30222e-05
-4.21648e-05
-4.13071e-05
-4.04524e-05
-3.96025e-05
-3.87574e-05
-3.79158e-05
-3.70749e-05
-3.62311e-05
-3.53794e-05
-3.45142e-05
-3.3629e-05
-3.27172e-05
-3.17717e-05
-3.07857e-05
-2.97528e-05
-2.86676e-05
-2.75261e-05
-2.6326e-05
-2.50674e-05
-2.37529e-05
-2.23879e-05
-2.09809e-05
-1.95426e-05
-1.80861e-05
-1.66259e-05
-1.51771e-05
-1.37545e-05
-1.23721e-05
-1.1042e-05
-9.77424e-06
-8.57628e-06
-7.4532e-06
-6.40754e-06
-5.43959e-06
-4.54755e-06
-3.72777e-06
-2.97492e-06
-2.28203e-06
-1.64163e-06
-1.03782e-06
2.96211e-05
2.68788e-05
2.3954e-05
2.08497e-05
1.75928e-05
1.42466e-05
1.08852e-05
7.57743e-06
4.38336e-06
1.35344e-06
-1.47202e-06
-4.06347e-06
-6.40217e-06
-8.4793e-06
-1.02946e-05
-1.18548e-05
-1.31721e-05
-1.42625e-05
-1.51444e-05
-1.58379e-05
-1.63632e-05
-1.67405e-05
-1.69889e-05
-1.71268e-05
-1.71707e-05
-1.71359e-05
-1.7036e-05
-1.68832e-05
-1.66879e-05