/*--------------------------------*- C++ -*----------------------------------*\
| =========                 |                                                 |
| \\      /  F ield         | OpenFOAM: The Open Source CFD Toolbox           |
|  \\    /   O peration     | Version:  2.3.0                                 |
|   \\  /    A nd           | Web:      www.OpenFOAM.org                      |
|    \\/     M anipulation  |                                                 |
\*---------------------------------------------------------------------------*/
FoamFile
{
    version     2.0;
    format      ascii;
    class       volVectorField;
    location    "0.35";
    object      U_0;
}
// * * * * * * * * * * * * * * * * * * * * * * * * * * * * * * * * * * * * * //

dimensions      [0 1 -1 0 0 0 0];

internalField   nonuniform List<vector> 
2945
(
(0.153815 0.00667994 0)
(0.125057 0.00576538 0)
(0.100476 0.0044352 0)
(0.0805074 0.00314338 0)
(0.0652778 0.002066 0)
(0.0541739 0.00126821 0)
(0.0462733 0.000739074 0)
(0.0406909 0.000420406 0)
(0.0366999 0.000243759 0)
(0.0337562 0.000152575 0)
(0.0314864 0.000107831 0)
(0.0296535 8.58624e-05 0)
(0.0281156 7.39683e-05 0)
(0.026789 6.61512e-05 0)
(0.0256236 5.99509e-05 0)
(0.0245873 5.4515e-05 0)
(0.0236578 4.96087e-05 0)
(0.0228184 4.51826e-05 0)
(0.0220561 4.12174e-05 0)
(0.0213601 3.7683e-05 0)
(0.0207219 3.45379e-05 0)
(0.0201343 3.17359e-05 0)
(0.0195912 2.9232e-05 0)
(0.0190878 2.69859e-05 0)
(0.0186199 2.49622e-05 0)
(0.0181838 2.31314e-05 0)
(0.0177766 2.14682e-05 0)
(0.0173957 1.99514e-05 0)
(0.0170389 1.85629e-05 0)
(0.0167041 1.72874e-05 0)
(0.0163898 1.61118e-05 0)
(0.0160944 1.50247e-05 0)
(0.0158166 1.40162e-05 0)
(0.0155554 1.30779e-05 0)
(0.0153096 1.22021e-05 0)
(0.0150785 1.13823e-05 0)
(0.0148613 1.06127e-05 0)
(0.0146572 9.88818e-06 0)
(0.0144657 9.20411e-06 0)
(0.0142863 8.55644e-06 0)
(0.0141186 7.94155e-06 0)
(0.0139621 7.35619e-06 0)
(0.0138165 6.79745e-06 0)
(0.0136815 6.26265e-06 0)
(0.0135569 5.74916e-06 0)
(0.0134425 5.25418e-06 0)
(0.0133381 4.77439e-06 0)
(0.0132438 4.30555e-06 0)
(0.0131595 3.842e-06 0)
(0.0130852 3.37615e-06 0)
(0.0130211 2.89806e-06 0)
(0.0129675 2.39464e-06 0)
(0.0129248 1.84731e-06 0)
(0.0128934 1.22723e-06 0)
(0.012874 5.37262e-07 0)
(0.0128674 1.99227e-08 0)
(0.0128726 -5.349e-07 0)
(0.0128859 -9.45241e-07 0)
(0.0129054 -1.25378e-06 0)
(0.0129292 -1.44517e-06 0)
(0.0129555 -1.53604e-06 0)
(0.0129829 -1.54934e-06 0)
(0.0130103 -1.5044e-06 0)
(0.0130367 -1.41979e-06 0)
(0.0130617 -1.3108e-06 0)
(0.0130848 -1.18912e-06 0)
(0.013106 -1.06352e-06 0)
(0.0131251 -9.39569e-07 0)
(0.0131422 -8.20596e-07 0)
(0.0131572 -7.07941e-07 0)
(0.0131704 -6.01167e-07 0)
(0.0131817 -4.97835e-07 0)
(0.0131912 -3.90868e-07 0)
(0.013198 -3.03329e-07 0)
(0.0132098 -7.30417e-07 0)
(0.184661 0.0109629 0)
(0.17629 0.0104461 0)
(0.165327 0.00906514 0)
(0.153399 0.00746816 0)
(0.141755 0.00589557 0)
(0.130995 0.00449687 0)
(0.121334 0.0033575 0)
(0.112812 0.00249368 0)
(0.105379 0.00187303 0)
(0.0989293 0.00144175 0)
(0.0933339 0.001145 0)
(0.0884605 0.000937922 0)
(0.0841896 0.000788663 0)
(0.0804191 0.000676642 0)
(0.0770652 0.000589276 0)
(0.0740602 0.000518994 0)
(0.0713499 0.000461145 0)
(0.0688907 0.000412724 0)
(0.0666473 0.000371671 0)
(0.064591 0.000336495 0)
(0.0626982 0.000306071 0)
(0.0609494 0.000279533 0)
(0.0593283 0.000256202 0)
(0.0578213 0.000235544 0)
(0.0564166 0.000217131 0)
(0.0551046 0.00020062 0)
(0.0538766 0.000185732 0)
(0.0527255 0.000172237 0)
(0.0516449 0.000159949 0)
(0.0506292 0.000148708 0)
(0.0496738 0.000138381 0)
(0.0487745 0.000128857 0)
(0.0479274 0.000120037 0)
(0.0471296 0.00011184 0)
(0.046378 0.000104193 0)
(0.0456703 9.70335e-05 0)
(0.0450042 9.03062e-05 0)
(0.0443779 8.39629e-05 0)
(0.0437898 7.79608e-05 0)
(0.0432383 7.2262e-05 0)
(0.0427223 6.68328e-05 0)
(0.0422408 6.16429e-05 0)
(0.0417928 5.66651e-05 0)
(0.0413776 5.18747e-05 0)
(0.0409947 4.72482e-05 0)
(0.0406437 4.27629e-05 0)
(0.0403242 3.83952e-05 0)
(0.0400362 3.41202e-05 0)
(0.0397795 2.99102e-05 0)
(0.0395544 2.57351e-05 0)
(0.0393612 2.15633e-05 0)
(0.0392001 1.73637e-05 0)
(0.0390717 1.31066e-05 0)
(0.0389761 8.75798e-06 0)
(0.0389134 4.3003e-06 0)
(0.0388831 1.05858e-07 0)
(0.0388851 -3.49172e-06 0)
(0.0389103 -5.86534e-06 0)
(0.0389519 -7.44928e-06 0)
(0.0390046 -8.41818e-06 0)
(0.039064 -8.86688e-06 0)
(0.0391266 -8.90118e-06 0)
(0.0391897 -8.62804e-06 0)
(0.0392512 -8.14857e-06 0)
(0.0393097 -7.5437e-06 0)
(0.0393646 -6.87413e-06 0)
(0.0394151 -6.18411e-06 0)
(0.0394611 -5.50218e-06 0)
(0.0395027 -4.8452e-06 0)
(0.0395398 -4.22018e-06 0)
(0.0395726 -3.62563e-06 0)
(0.0396011 -3.05254e-06 0)
(0.0396255 -2.48393e-06 0)
(0.0396447 -2.09065e-06 0)
(0.0396697 -2.80845e-06 0)
(0.191334 0.0115744 0)
(0.190692 0.0118756 0)
(0.187764 0.0110919 0)
(0.183041 0.0098462 0)
(0.177275 0.00842232 0)
(0.171 0.00702576 0)
(0.164566 0.00579415 0)
(0.158211 0.00478183 0)
(0.15209 0.00398197 0)
(0.146283 0.00335898 0)
(0.140825 0.00287174 0)
(0.135718 0.0024849 0)
(0.130953 0.00217202 0)
(0.126512 0.00191455 0)
(0.122373 0.00169965 0)
(0.118516 0.00151825 0)
(0.11492 0.00136374 0)
(0.111563 0.00123111 0)
(0.108426 0.00111644 0)
(0.105492 0.00101664 0)
(0.102744 0.000929218 0)
(0.100166 0.000852154 0)
(0.0977451 0.000783816 0)
(0.0954685 0.000722867 0)
(0.0933249 0.000668212 0)
(0.0913044 0.000618951 0)
(0.089398 0.000574334 0)
(0.0875977 0.000533739 0)
(0.0858963 0.00049664 0)
(0.0842874 0.000462596 0)
(0.0827654 0.000431227 0)
(0.081325 0.000402213 0)
(0.0799619 0.000375274 0)
(0.0786719 0.000350169 0)
(0.0774516 0.000326687 0)
(0.0762977 0.000304645 0)
(0.0752074 0.00028388 0)
(0.0741785 0.000264249 0)
(0.0732086 0.000245623 0)
(0.0722961 0.00022789 0)
(0.0714394 0.000210948 0)
(0.0706371 0.000194705 0)
(0.0698883 0.00017908 0)
(0.069192 0.000163997 0)
(0.0685477 0.000149386 0)
(0.0679549 0.000135183 0)
(0.0674134 0.000121323 0)
(0.0669231 0.000107743 0)
(0.0664841 9.43837e-05 0)
(0.0660964 8.11879e-05 0)
(0.0657605 6.81109e-05 0)
(0.0654764 5.51301e-05 0)
(0.065244 4.22614e-05 0)
(0.0650628 2.95767e-05 0)
(0.0649311 1.71924e-05 0)
(0.0648451 5.30976e-06 0)
(0.0648026 -5.10553e-06 0)
(0.0648026 -1.26436e-05 0)
(0.0648324 -1.74728e-05 0)
(0.0648829 -2.0401e-05 0)
(0.0649472 -2.19106e-05 0)
(0.0650198 -2.23134e-05 0)
(0.0650962 -2.18812e-05 0)
(0.0651733 -2.08724e-05 0)
(0.0652487 -1.94996e-05 0)
(0.0653209 -1.79243e-05 0)
(0.0653888 -1.62642e-05 0)
(0.0654518 -1.45966e-05 0)
(0.0655096 -1.2969e-05 0)
(0.0655621 -1.1404e-05 0)
(0.0656092 -9.90302e-06 0)
(0.065651 -8.45138e-06 0)
(0.0656875 -7.02848e-06 0)
(0.0657178 -5.9834e-06 0)
(0.0657505 -5.95012e-06 0)
(0.193243 0.0110318 0)
(0.194889 0.0118068 0)
(0.19533 0.0115211 0)
(0.194422 0.0106858 0)
(0.192442 0.00956601 0)
(0.189665 0.00836668 0)
(0.18633 0.00724153 0)
(0.182647 0.0062682 0)
(0.178783 0.00546176 0)
(0.174854 0.0048039 0)
(0.170932 0.00426558 0)
(0.167059 0.00381904 0)
(0.163262 0.00344225 0)
(0.159557 0.00311915 0)
(0.155956 0.00283849 0)
(0.152466 0.0025923 0)
(0.149093 0.00237479 0)
(0.145838 0.00218154 0)
(0.142705 0.00200905 0)
(0.139691 0.00185448 0)
(0.136797 0.00171543 0)
(0.13402 0.0015899 0)
(0.131356 0.00147619 0)
(0.128804 0.00137282 0)
(0.126359 0.00127854 0)
(0.124019 0.00119228 0)
(0.121779 0.00111308 0)
(0.119635 0.00104014 0)
(0.117585 0.000972762 0)
(0.115624 0.000910315 0)
(0.113751 0.00085226 0)
(0.111961 0.000798121 0)
(0.110251 0.000747476 0)
(0.10862 0.000699951 0)
(0.107065 0.000655213 0)
(0.105584 0.000612966 0)
(0.104175 0.000572941 0)
(0.102836 0.000534901 0)
(0.101566 0.000498628 0)
(0.100363 0.000463928 0)
(0.0992275 0.000430623 0)
(0.0981574 0.000398554 0)
(0.0971526 0.000367575 0)
(0.0962126 0.000337553 0)
(0.0953374 0.000308363 0)
(0.0945268 0.000279893 0)
(0.0937811 0.000252036 0)
(0.0931005 0.000224694 0)
(0.0924854 0.000197782 0)
(0.0919363 0.000171238 0)
(0.0914533 0.000145033 0)
(0.0910365 0.000119199 0)
(0.0906853 9.38609e-05 0)
(0.0903984 6.92805e-05 0)
(0.090173 4.58938e-05 0)
(0.0900043 2.41639e-05 0)
(0.0898835 4.69151e-06 0)
(0.0898109 -1.12921e-05 0)
(0.0897856 -2.26709e-05 0)
(0.0897947 -2.98765e-05 0)
(0.0898285 -3.40156e-05 0)
(0.0898794 -3.59251e-05 0)
(0.0899415 -3.61749e-05 0)
(0.09001 -3.52341e-05 0)
(0.0900814 -3.34895e-05 0)
(0.0901531 -3.12464e-05 0)
(0.0902233 -2.87346e-05 0)
(0.0902907 -2.61117e-05 0)
(0.0903543 -2.34798e-05 0)
(0.0904137 -2.08945e-05 0)
(0.0904684 -1.83736e-05 0)
(0.0905182 -1.59053e-05 0)
(0.0905628 -1.34674e-05 0)
(0.0906011 -1.14249e-05 0)
(0.0906384 -9.64295e-06 0)
(0.194085 0.0103751 0)
(0.196144 0.0113082 0)
(0.197685 0.0112918 0)
(0.198395 0.0107411 0)
(0.198319 0.00988701 0)
(0.197562 0.00890531 0)
(0.196243 0.00793891 0)
(0.1945 0.00707137 0)
(0.192461 0.00633024 0)
(0.190224 0.0057094 0)
(0.187855 0.00518919 0)
(0.185398 0.0047481 0)
(0.182881 0.00436796 0)
(0.180327 0.00403506 0)
(0.177751 0.00373964 0)
(0.175167 0.0034748 0)
(0.172587 0.00323559 0)
(0.170021 0.00301827 0)
(0.167477 0.00281995 0)
(0.164965 0.00263829 0)
(0.162489 0.00247133 0)
(0.160055 0.00231744 0)
(0.157669 0.0021752 0)
(0.155333 0.00204341 0)
(0.15305 0.00192099 0)
(0.150824 0.00180703 0)
(0.148655 0.00170069 0)
(0.146546 0.00160125 0)
(0.144497 0.00150805 0)
(0.14251 0.00142051 0)
(0.140584 0.00133809 0)
(0.138721 0.00126032 0)
(0.136921 0.00118676 0)
(0.135183 0.00111701 0)
(0.133509 0.00105071 0)
(0.131897 0.000987528 0)
(0.130349 0.000927156 0)
(0.128864 0.00086931 0)
(0.127443 0.000813733 0)
(0.126086 0.000760182 0)
(0.124794 0.000708437 0)
(0.123566 0.000658294 0)
(0.122403 0.000609564 0)
(0.121307 0.000562073 0)
(0.120277 0.00051566 0)
(0.119316 0.00047018 0)
(0.118423 0.0004255 0)
(0.1176 0.000381507 0)
(0.116848 0.000338118 0)
(0.116168 0.000295292 0)
(0.11556 0.00025306 0)
(0.115024 0.000211554 0)
(0.114561 0.000171061 0)
(0.114168 0.000132077 0)
(0.113842 9.53588e-05 0)
(0.113579 6.18356e-05 0)
(0.113372 3.21808e-05 0)
(0.11321 6.73994e-06 0)
(0.113094 -1.37163e-05 0)
(0.113026 -2.84603e-05 0)
(0.112995 -3.7948e-05 0)
(0.112992 -4.34253e-05 0)
(0.11301 -4.59807e-05 0)
(0.113042 -4.64349e-05 0)
(0.113086 -4.54028e-05 0)
(0.113136 -4.33617e-05 0)
(0.113189 -4.06819e-05 0)
(0.113245 -3.76316e-05 0)
(0.1133 -3.43957e-05 0)
(0.113354 -3.1088e-05 0)
(0.113407 -2.77622e-05 0)
(0.113456 -2.44238e-05 0)
(0.113502 -2.10455e-05 0)
(0.113542 -1.78506e-05 0)
(0.11358 -1.3641e-05 0)
(0.194667 0.00975427 0)
(0.196598 0.0107087 0)
(0.198345 0.0108357 0)
(0.199591 0.0104689 0)
(0.200304 0.00981067 0)
(0.200515 0.0090094 0)
(0.200277 0.00818992 0)
(0.199672 0.00743289 0)
(0.198789 0.00677145 0)
(0.197702 0.00620728 0)
(0.196461 0.00572759 0)
(0.195101 0.00531592 0)
(0.193644 0.00495734 0)
(0.192106 0.00464013 0)
(0.1905 0.00435568 0)
(0.188835 0.00409782 0)
(0.187121 0.00386208 0)
(0.185367 0.00364516 0)
(0.183582 0.0034445 0)
(0.181772 0.00325807 0)
(0.179944 0.00308422 0)
(0.178106 0.0029216 0)
(0.176263 0.00276904 0)
(0.174421 0.00262556 0)
(0.172585 0.0024903 0)
(0.17076 0.00236253 0)
(0.16895 0.00224159 0)
(0.167158 0.00212689 0)
(0.16539 0.00201791 0)
(0.163647 0.00191417 0)
(0.161933 0.00181524 0)
(0.16025 0.00172072 0)
(0.158602 0.00163024 0)
(0.156991 0.00154344 0)
(0.155418 0.00146002 0)
(0.153887 0.00137967 0)
(0.152399 0.00130211 0)
(0.150956 0.00122707 0)
(0.14956 0.00115429 0)
(0.148214 0.00108354 0)
(0.146918 0.0010146 0)
(0.145675 0.000947261 0)
(0.144487 0.00088132 0)
(0.143356 0.000816598 0)
(0.142284 0.000752928 0)
(0.141272 0.00069016 0)
(0.140323 0.000628164 0)
(0.139438 0.000566843 0)
(0.13862 0.000506147 0)
(0.13787 0.000446092 0)
(0.13719 0.000386804 0)
(0.136579 0.000328554 0)
(0.136038 0.00027182 0)
(0.135565 0.000217339 0)
(0.135158 0.000166138 0)
(0.134814 0.000119442 0)
(0.134526 7.83512e-05 0)
(0.13429 4.3219e-05 0)
(0.134095 1.38856e-05 0)
(0.133937 -9.59843e-06 0)
(0.133822 -2.69779e-05 0)
(0.133745 -3.86451e-05 0)
(0.133697 -4.5738e-05 0)
(0.133673 -4.94421e-05 0)
(0.133667 -5.0706e-05 0)
(0.133675 -5.02342e-05 0)
(0.133694 -4.85588e-05 0)
(0.13372 -4.60731e-05 0)
(0.133752 -4.30635e-05 0)
(0.133787 -3.97223e-05 0)
(0.133824 -3.61601e-05 0)
(0.133861 -3.24156e-05 0)
(0.133898 -2.84546e-05 0)
(0.133933 -2.42742e-05 0)
(0.133965 -1.74842e-05 0)
(0.195161 0.0091912 0)
(0.196855 0.0101151 0)
(0.198514 0.0103269 0)
(0.199856 0.0100852 0)
(0.200823 0.00956886 0)
(0.201422 0.00890599 0)
(0.20168 0.00820514 0)
(0.201649 0.00754141 0)
(0.201393 0.00695036 0)
(0.200967 0.00643898 0)
(0.200411 0.00599972 0)
(0.199752 0.00562018 0)
(0.199005 0.00528811 0)
(0.19818 0.00499336 0)
(0.197286 0.00472817 0)
(0.196328 0.00448681 0)
(0.195311 0.00426509 0)
(0.194241 0.00405984 0)
(0.193122 0.00386865 0)
(0.19196 0.00368963 0)
(0.190759 0.00352126 0)
(0.189523 0.00336229 0)
(0.188257 0.00321168 0)
(0.186966 0.00306858 0)
(0.185653 0.00293224 0)
(0.184324 0.00280203 0)
(0.182982 0.00267741 0)
(0.18163 0.00255789 0)
(0.180274 0.00244305 0)
(0.178916 0.00233248 0)
(0.17756 0.00222585 0)
(0.176209 0.00212283 0)
(0.174867 0.00202312 0)
(0.173538 0.00192642 0)
(0.172223 0.00183249 0)
(0.170926 0.00174106 0)
(0.169651 0.00165189 0)
(0.168399 0.00156475 0)
(0.167175 0.00147943 0)
(0.16598 0.0013957 0)
(0.164819 0.00131337 0)
(0.163692 0.00123225 0)
(0.162604 0.00115216 0)
(0.161558 0.00107293 0)
(0.160555 0.000994408 0)
(0.159599 0.00091647 0)
(0.158693 0.000839014 0)
(0.157839 0.000761981 0)
(0.157039 0.000685381 0)
(0.156296 0.000609315 0)
(0.155612 0.000534026 0)
(0.154987 0.000459941 0)
(0.154423 0.000387737 0)
(0.153918 0.000318376 0)
(0.153471 0.000253108 0)
(0.153079 0.00019335 0)
(0.15274 0.000140389 0)
(0.152449 9.49202e-05 0)
(0.1522 5.69195e-05 0)
(0.151989 2.57039e-05 0)
(0.151807 7.56363e-07 0)
(0.151657 -1.81966e-05 0)
(0.151542 -3.16676e-05 0)
(0.151455 -4.04812e-05 0)
(0.151392 -4.57123e-05 0)
(0.151348 -4.82965e-05 0)
(0.15132 -4.8965e-05 0)
(0.151306 -4.8251e-05 0)
(0.151301 -4.65456e-05 0)
(0.151305 -4.41239e-05 0)
(0.151316 -4.11608e-05 0)
(0.151331 -3.77388e-05 0)
(0.151349 -3.38186e-05 0)
(0.151368 -2.91621e-05 0)
(0.151386 -2.03168e-05 0)
(0.195607 0.00869324 0)
(0.197069 0.00956468 0)
(0.198567 0.00982955 0)
(0.199852 0.00967969 0)
(0.200856 0.00927097 0)
(0.201577 0.00871636 0)
(0.20203 0.00811065 0)
(0.202255 0.00752287 0)
(0.2023 0.00698947 0)
(0.202209 0.00652138 0)
(0.202018 0.00611536 0)
(0.201748 0.00576248 0)
(0.201411 0.00545291 0)
(0.201016 0.00517791 0)
(0.200567 0.00493054 0)
(0.200068 0.00470544 0)
(0.199522 0.0044986 0)
(0.198929 0.00430694 0)
(0.198293 0.00412809 0)
(0.197616 0.00396016 0)
(0.196899 0.00380165 0)
(0.196146 0.00365133 0)
(0.195358 0.00350819 0)
(0.194538 0.00337137 0)
(0.193689 0.00324018 0)
(0.192813 0.00311401 0)
(0.191912 0.00299234 0)
(0.19099 0.00287472 0)
(0.19005 0.00276077 0)
(0.189093 0.00265012 0)
(0.188124 0.00254246 0)
(0.187144 0.00243751 0)
(0.186156 0.00233499 0)
(0.185164 0.00223467 0)
(0.18417 0.0021363 0)
(0.183177 0.00203966 0)
(0.182188 0.00194454 0)
(0.181207 0.00185073 0)
(0.180234 0.00175805 0)
(0.179275 0.00166629 0)
(0.178332 0.00157528 0)
(0.177407 0.00148486 0)
(0.176504 0.00139485 0)
(0.175627 0.00130512 0)
(0.174777 0.00121554 0)
(0.173957 0.00112601 0)
(0.173172 0.00103647 0)
(0.172424 0.000946914 0)
(0.171715 0.000857416 0)
(0.171048 0.000768175 0)
(0.170424 0.000679554 0)
(0.169846 0.000592134 0)
(0.169315 0.00050677 0)
(0.168829 0.000424616 0)
(0.16839 0.0003471 0)
(0.167994 0.000275768 0)
(0.167641 0.000211999 0)
(0.167329 0.000156634 0)
(0.167055 0.000109828 0)
(0.166815 7.11905e-05 0)
(0.166605 3.98414e-05 0)
(0.166421 1.47854e-05 0)
(0.166258 -4.68219e-06 0)
(0.166122 -1.91969e-05 0)
(0.16601 -2.94374e-05 0)
(0.16592 -3.61907e-05 0)
(0.165848 -4.02704e-05 0)
(0.165792 -4.23372e-05 0)
(0.16575 -4.28934e-05 0)
(0.165719 -4.22948e-05 0)
(0.165697 -4.0776e-05 0)
(0.165684 -3.84602e-05 0)
(0.165677 -3.53069e-05 0)
(0.165674 -3.08929e-05 0)
(0.165672 -2.11389e-05 0)
(0.196012 0.00825452 0)
(0.197273 0.00906364 0)
(0.198604 0.00936106 0)
(0.199789 0.00928277 0)
(0.200756 0.00896109 0)
(0.201493 0.00849578 0)
(0.20201 0.00796991 0)
(0.202337 0.00744632 0)
(0.202514 0.00696138 0)
(0.202579 0.00652901 0)
(0.202564 0.00614959 0)
(0.202487 0.00581734 0)
(0.202362 0.00552467 0)
(0.202196 0.00526434 0)
(0.201993 0.00503022 0)
(0.201755 0.00481745 0)
(0.201485 0.00462223 0)
(0.201183 0.00444159 0)
(0.20085 0.00427319 0)
(0.200486 0.00411516 0)
(0.200092 0.00396598 0)
(0.19967 0.00382439 0)
(0.199219 0.00368937 0)
(0.198741 0.00356004 0)
(0.198237 0.00343568 0)
(0.197707 0.00331566 0)
(0.197154 0.00319946 0)
(0.196578 0.0030866 0)
(0.195982 0.0029767 0)
(0.195366 0.00286938 0)
(0.194732 0.00276434 0)
(0.194082 0.00266128 0)
(0.193418 0.00255993 0)
(0.192741 0.00246005 0)
(0.192055 0.00236141 0)
(0.19136 0.00226379 0)
(0.19066 0.00216697 0)
(0.189956 0.00207077 0)
(0.189251 0.00197498 0)
(0.188548 0.00187943 0)
(0.187848 0.00178395 0)
(0.187154 0.00168837 0)
(0.186469 0.00159255 0)
(0.185796 0.00149635 0)
(0.185137 0.00139968 0)
(0.184495 0.00130244 0)
(0.183873 0.00120463 0)
(0.183273 0.00110628 0)
(0.182698 0.00100753 0)
(0.18215 0.00090867 0)
(0.18163 0.000810166 0)
(0.181141 0.000712728 0)
(0.180684 0.000617357 0)
(0.180259 0.00052535 0)
(0.179865 0.000438257 0)
(0.179504 0.000357709 0)
(0.179174 0.000285137 0)
(0.178874 0.000221447 0)
(0.178604 0.000166908 0)
(0.178362 0.000121244 0)
(0.178146 8.37376e-05 0)
(0.177953 5.34461e-05 0)
(0.177782 2.92509e-05 0)
(0.177627 1.01524e-05 0)
(0.177489 -4.56499e-06 0)
(0.17737 -1.55725e-05 0)
(0.177268 -2.34628e-05 0)
(0.177182 -2.88107e-05 0)
(0.17711 -3.21589e-05 0)
(0.17705 -3.39275e-05 0)
(0.177 -3.44086e-05 0)
(0.17696 -3.37636e-05 0)
(0.176928 -3.1958e-05 0)
(0.176903 -2.84723e-05 0)
(0.176878 -1.9248e-05 0)
(0.19638 0.00786589 0)
(0.197472 0.00860945 0)
(0.198648 0.00892483 0)
(0.199728 0.00890377 0)
(0.200635 0.00865522 0)
(0.201349 0.00826654 0)
(0.201878 0.0078105 0)
(0.202242 0.00734383 0)
(0.202475 0.00690199 0)
(0.202611 0.00650102 0)
(0.202676 0.00614432 0)
(0.20269 0.00582886 0)
(0.202665 0.0055492 0)
(0.20261 0.00529955 0)
(0.202529 0.00507472 0)
(0.202426 0.00487038 0)
(0.202301 0.00468306 0)
(0.202156 0.00450996 0)
(0.201991 0.00434883 0)
(0.201807 0.00419785 0)
(0.201604 0.0040555 0)
(0.201381 0.00392054 0)
(0.20114 0.00379191 0)
(0.200879 0.00366873 0)
(0.2006 0.00355025 0)
(0.200303 0.00343582 0)
(0.199987 0.00332487 0)
(0.199654 0.00321693 0)
(0.199304 0.00311155 0)
(0.198937 0.00300837 0)
(0.198555 0.00290703 0)
(0.198157 0.00280722 0)
(0.197746 0.00270866 0)
(0.197321 0.00261108 0)
(0.196885 0.00251424 0)
(0.196438 0.00241789 0)
(0.195982 0.00232182 0)
(0.195518 0.00222581 0)
(0.195048 0.00212967 0)
(0.194573 0.0020332 0)
(0.194096 0.00193622 0)
(0.193617 0.00183856 0)
(0.193139 0.00174009 0)
(0.192665 0.00164067 0)
(0.192195 0.0015402 0)
(0.191732 0.00143862 0)
(0.191278 0.00133594 0)
(0.190834 0.00123223 0)
(0.190404 0.0011277 0)
(0.189989 0.00102267 0)
(0.18959 0.000917719 0)
(0.189208 0.000813638 0)
(0.188844 0.000711528 0)
(0.1885 0.000612779 0)
(0.188176 0.000519006 0)
(0.187872 0.000431879 0)
(0.187588 0.000352852 0)
(0.187324 0.000282873 0)
(0.187082 0.000222279 0)
(0.18686 0.000170873 0)
(0.186657 0.000128045 0)
(0.186474 9.29162e-05 0)
(0.186308 6.44772e-05 0)
(0.186158 4.17115e-05 0)
(0.186022 2.36019e-05 0)
(0.185898 9.30961e-06 0)
(0.185786 -1.76055e-06 0)
(0.185686 -1.01368e-05 0)
(0.185598 -1.62544e-05 0)
(0.18552 -2.04705e-05 0)
(0.185453 -2.30922e-05 0)
(0.185394 -2.431e-05 0)
(0.185343 -2.41123e-05 0)
(0.1853 -2.19892e-05 0)
(0.185256 -1.45478e-05 0)
(0.196715 0.00751933 0)
(0.197664 0.00819816 0)
(0.198703 0.00852068 0)
(0.199681 0.00854523 0)
(0.200523 0.00835887 0)
(0.201203 0.0080371 0)
(0.201724 0.00764348 0)
(0.202099 0.00722884 0)
(0.202357 0.00682704 0)
(0.202525 0.00645544 0)
(0.202628 0.00611981 0)
(0.202685 0.00581951 0)
(0.202707 0.00555101 0)
(0.202704 0.00530993 0)
(0.20268 0.00509205 0)
(0.20264 0.00489363 0)
(0.202586 0.00471159 0)
(0.202518 0.00454335 0)
(0.202438 0.00438683 0)
(0.202347 0.00424028 0)
(0.202244 0.00410224 0)
(0.20213 0.00397151 0)
(0.202005 0.00384705 0)
(0.201868 0.00372798 0)
(0.20172 0.00361352 0)
(0.201561 0.00350303 0)
(0.20139 0.00339594 0)
(0.201208 0.00329172 0)
(0.201015 0.00318994 0)
(0.20081 0.00309018 0)
(0.200594 0.00299208 0)
(0.200368 0.00289531 0)
(0.20013 0.00279955 0)
(0.199883 0.00270452 0)
(0.199626 0.00260994 0)
(0.199359 0.00251556 0)
(0.199085 0.00242113 0)
(0.198802 0.00232643 0)
(0.198512 0.00223122 0)
(0.198216 0.00213531 0)
(0.197915 0.0020385 0)
(0.19761 0.00194062 0)
(0.197303 0.00184149 0)
(0.196993 0.001741 0)
(0.196683 0.00163903 0)
(0.196374 0.00153555 0)
(0.196068 0.00143057 0)
(0.195764 0.00132418 0)
(0.195466 0.00121662 0)
(0.195173 0.00110829 0)
(0.194887 0.000999772 0)
(0.194609 0.000891945 0)
(0.19434 0.000785956 0)
(0.194079 0.000683234 0)
(0.193829 0.00058541 0)
(0.193589 0.00049415 0)
(0.19336 0.000410901 0)
(0.193144 0.000336633 0)
(0.192941 0.00027174 0)
(0.192751 0.000216094 0)
(0.192575 0.000169163 0)
(0.192413 0.000130144 0)
(0.192264 9.81054e-05 0)
(0.192128 7.20599e-05 0)
(0.192003 5.10526e-05 0)
(0.191888 3.42343e-05 0)
(0.191783 2.08321e-05 0)
(0.191686 1.02176e-05 0)
(0.191597 1.95699e-06 0)
(0.191515 -4.29736e-06 0)
(0.19144 -8.81701e-06 0)
(0.191373 -1.17548e-05 0)
(0.191313 -1.31101e-05 0)
(0.191259 -1.24685e-05 0)
(0.191202 -7.52221e-06 0)
(0.197019 0.00720823 0)
(0.197849 0.0078256 0)
(0.198767 0.00814722 0)
(0.19965 0.00820746 0)
(0.200427 0.00807394 0)
(0.20107 0.00781081 0)
(0.201574 0.00747339 0)
(0.20195 0.00710688 0)
(0.202219 0.00674304 0)
(0.202405 0.00639982 0)
(0.202529 0.0060848 0)
(0.202608 0.0057993 0)
(0.202653 0.00554149 0)
(0.202675 0.00530831 0)
(0.202679 0.00509643 0)
(0.202668 0.00490278 0)
(0.202646 0.00472465 0)
(0.202614 0.00455977 0)
(0.202574 0.00440622 0)
(0.202527 0.0042624 0)
(0.202473 0.00412692 0)
(0.202412 0.00399865 0)
(0.202346 0.00387658 0)
(0.202273 0.00375985 0)
(0.202194 0.00364773 0)
(0.202109 0.00353955 0)
(0.202018 0.00343476 0)
(0.201921 0.00333283 0)
(0.201817 0.00323332 0)
(0.201707 0.00313579 0)
(0.20159 0.00303988 0)
(0.201468 0.00294524 0)
(0.201338 0.00285153 0)
(0.201202 0.00275846 0)
(0.20106 0.00266573 0)
(0.200911 0.00257306 0)
(0.200756 0.00248021 0)
(0.200596 0.00238691 0)
(0.20043 0.00229292 0)
(0.200259 0.00219804 0)
(0.200083 0.00210203 0)
(0.199903 0.00200472 0)
(0.199719 0.00190593 0)
(0.199531 0.00180553 0)
(0.199342 0.0017034 0)
(0.19915 0.00159951 0)
(0.198957 0.00149387 0)
(0.198763 0.0013866 0)
(0.198569 0.00127795 0)
(0.198376 0.00116833 0)
(0.198183 0.00105838 0)
(0.197992 0.000948984 0)
(0.197803 0.000841304 0)
(0.197616 0.000736765 0)
(0.197432 0.000636976 0)
(0.197251 0.00054356 0)
(0.197076 0.000457933 0)
(0.196906 0.000381068 0)
(0.196743 0.0003134 0)
(0.196589 0.000254868 0)
(0.196443 0.000205016 0)
(0.196307 0.000163119 0)
(0.19618 0.000128306 0)
(0.196062 9.96496e-05 0)
(0.195953 7.62454e-05 0)
(0.195852 5.72543e-05 0)
(0.195759 4.19259e-05 0)
(0.195671 2.96359e-05 0)
(0.19559 1.98601e-05 0)
(0.195514 1.21723e-05 0)
(0.195443 6.28956e-06 0)
(0.195376 2.0549e-06 0)
(0.195313 -5.56646e-07 0)
(0.195256 -1.2648e-06 0)
(0.195193 1.07968e-06 0)
(0.197296 0.00692719 0)
(0.198025 0.00748762 0)
(0.198836 0.00780262 0)
(0.199632 0.00789011 0)
(0.200347 0.00780113 0)
(0.200951 0.00758932 0)
(0.201435 0.00730246 0)
(0.201807 0.00698049 0)
(0.202081 0.00665276 0)
(0.202278 0.00633726 0)
(0.202415 0.00604281 0)
(0.202507 0.00577231 0)
(0.202567 0.0055254 0)
(0.202603 0.00530018 0)
(0.202621 0.00509421 0)
(0.202625 0.00490503 0)
(0.202619 0.00473036 0)
(0.202604 0.00456823 0)
(0.202582 0.00441692 0)
(0.202555 0.00427496 0)
(0.202524 0.0041411 0)
(0.202488 0.00401425 0)
(0.202449 0.00389348 0)
(0.202406 0.00377798 0)
(0.202361 0.00366703 0)
(0.202313 0.00356001 0)
(0.202261 0.00345635 0)
(0.202207 0.00335556 0)
(0.20215 0.00325719 0)
(0.202091 0.00316081 0)
(0.202028 0.00306606 0)
(0.201962 0.00297258 0)
(0.201892 0.00288004 0)
(0.20182 0.00278811 0)
(0.201744 0.00269652 0)
(0.201665 0.00260497 0)
(0.201582 0.00251318 0)
(0.201496 0.00242091 0)
(0.201407 0.0023279 0)
(0.201314 0.00223391 0)
(0.201218 0.00213873 0)
(0.201118 0.00204216 0)
(0.201015 0.00194401 0)
(0.200909 0.00184415 0)
(0.200801 0.00174246 0)
(0.200689 0.0016389 0)
(0.200575 0.0015335 0)
(0.200458 0.00142637 0)
(0.200339 0.00131779 0)
(0.200217 0.00120817 0)
(0.200093 0.00109815 0)
(0.199967 0.000988625 0)
(0.199839 0.000880736 0)
(0.199708 0.000775873 0)
(0.199576 0.000675586 0)
(0.199444 0.000581437 0)
(0.199312 0.000494786 0)
(0.199181 0.000416593 0)
(0.199054 0.000347322 0)
(0.198931 0.00028697 0)
(0.198814 0.000235154 0)
(0.198702 0.000191226 0)
(0.198597 0.000154385 0)
(0.198498 0.000123765 0)
(0.198405 9.85062e-05 0)
(0.198319 7.78025e-05 0)
(0.198238 6.09317e-05 0)
(0.198161 4.72694e-05 0)
(0.19809 3.62844e-05 0)
(0.198022 2.75528e-05 0)
(0.197957 2.07519e-05 0)
(0.197895 1.56552e-05 0)
(0.197836 1.21736e-05 0)
(0.19778 1.04229e-05 0)
(0.197717 1.05535e-05 0)
(0.197548 0.00667187 0)
(0.198191 0.0071804 0)
(0.19891 0.00748493 0)
(0.199626 0.00759255 0)
(0.200282 0.00754079 0)
(0.200846 0.00737366 0)
(0.201309 0.00713211 0)
(0.201673 0.0068512 0)
(0.201948 0.00655772 0)
(0.202151 0.00626922 0)
(0.202298 0.00599532 0)
(0.202401 0.00574013 0)
(0.202471 0.00550453 0)
(0.202516 0.00528767 0)
(0.202544 0.00508789 0)
(0.202557 0.00490334 0)
(0.202559 0.00473217 0)
(0.202554 0.0045727 0)
(0.202542 0.00442343 0)
(0.202524 0.00428305 0)
(0.202503 0.00415042 0)
(0.202479 0.00402455 0)
(0.202453 0.00390457 0)
(0.202424 0.00378971 0)
(0.202394 0.00367931 0)
(0.202362 0.00357276 0)
(0.20233 0.00346954 0)
(0.202296 0.00336916 0)
(0.202262 0.00327119 0)
(0.202226 0.00317522 0)
(0.20219 0.00308088 0)
(0.202152 0.00298783 0)
(0.202114 0.00289574 0)
(0.202074 0.00280429 0)
(0.202034 0.00271318 0)
(0.201992 0.00262214 0)
(0.201948 0.00253089 0)
(0.201903 0.00243917 0)
(0.201857 0.00234672 0)
(0.201808 0.0022533 0)
(0.201758 0.0021587 0)
(0.201706 0.00206272 0)
(0.201651 0.00196516 0)
(0.201595 0.00186589 0)
(0.201536 0.0017648 0)
(0.201474 0.00166184 0)
(0.201409 0.00155706 0)
(0.201341 0.00145057 0)
(0.20127 0.00134264 0)
(0.201195 0.00123371 0)
(0.201117 0.0011244 0)
(0.201034 0.00101558 0)
(0.200947 0.000908373 0)
(0.200857 0.000804098 0)
(0.200762 0.000704237 0)
(0.200664 0.000610266 0)
(0.200564 0.000523482 0)
(0.200464 0.000444816 0)
(0.200364 0.000374751 0)
(0.200265 0.000313333 0)
(0.20017 0.000260246 0)
(0.200079 0.000214918 0)
(0.199991 0.000176618 0)
(0.199909 0.000144542 0)
(0.19983 0.000117881 0)
(0.199756 9.58674e-05 0)
(0.199687 7.78035e-05 0)
(0.19962 6.30781e-05 0)
(0.199557 5.11678e-05 0)
(0.199497 4.1641e-05 0)
(0.199439 3.41528e-05 0)
(0.199383 2.84481e-05 0)
(0.199328 2.43782e-05 0)
(0.199276 2.18859e-05 0)
(0.199214 2.0404e-05 0)
(0.197778 0.00643874 0)
(0.198348 0.00690048 0)
(0.198985 0.00719216 0)
(0.199629 0.00731407 0)
(0.200229 0.00729305 0)
(0.200756 0.0071646 0)
(0.201195 0.00696345 0)
(0.201548 0.00672018 0)
(0.201822 0.00645898 0)
(0.202029 0.00619663 0)
(0.202182 0.00594312 0)
(0.202293 0.0057035 0)
(0.202371 0.00547964 0)
(0.202425 0.00527157 0)
(0.202459 0.00507841 0)
(0.20248 0.00489882 0)
(0.202488 0.00473139 0)
(0.202489 0.00457474 0)
(0.202482 0.00442759 0)
(0.202471 0.0042888 0)
(0.202455 0.00415735 0)
(0.202437 0.00403233 0)
(0.202417 0.00391296 0)
(0.202395 0.00379853 0)
(0.202372 0.00368841 0)
(0.202348 0.00358203 0)
(0.202324 0.00347891 0)
(0.2023 0.00337857 0)
(0.202275 0.0032806 0)
(0.202251 0.00318461 0)
(0.202227 0.00309025 0)
(0.202203 0.00299719 0)
(0.202179 0.00290509 0)
(0.202155 0.00281366 0)
(0.202131 0.0027226 0)
(0.202107 0.00263164 0)
(0.202084 0.00254051 0)
(0.202059 0.00244894 0)
(0.202035 0.0023567 0)
(0.20201 0.00226354 0)
(0.201984 0.00216924 0)
(0.201957 0.00207361 0)
(0.201928 0.00197647 0)
(0.201898 0.00187769 0)
(0.201867 0.00177716 0)
(0.201833 0.00167484 0)
(0.201797 0.00157077 0)
(0.201757 0.00146509 0)
(0.201714 0.00135807 0)
(0.201668 0.00125013 0)
(0.201617 0.0011419 0)
(0.201561 0.00103421 0)
(0.2015 0.000928135 0)
(0.201434 0.000824937 0)
(0.201364 0.000726008 0)
(0.201289 0.000632735 0)
(0.201211 0.000546342 0)
(0.201131 0.000467725 0)
(0.20105 0.000397373 0)
(0.200969 0.000335373 0)
(0.20089 0.000281472 0)
(0.200813 0.000235168 0)
(0.200739 0.000195801 0)
(0.200669 0.000162626 0)
(0.200601 0.000134889 0)
(0.200537 0.000111861 0)
(0.200476 9.2872e-05 0)
(0.200418 7.73289e-05 0)
(0.200362 6.47151e-05 0)
(0.200308 5.45957e-05 0)
(0.200256 4.66137e-05 0)
(0.200204 4.04881e-05 0)
(0.200154 3.60096e-05 0)
(0.200105 3.29775e-05 0)
(0.200046 3.04302e-05 0)
(0.197988 0.00622497 0)
(0.198494 0.00664482 0)
(0.199061 0.00692233 0)
(0.19964 0.00705382 0)
(0.200188 0.00705791 0)
(0.200677 0.00696273 0)
(0.201092 0.00679742 0)
(0.201433 0.00658845 0)
(0.201703 0.00635747 0)
(0.201911 0.00612023 0)
(0.202069 0.00588681 0)
(0.202186 0.00566287 0)
(0.202271 0.00545108 0)
(0.202332 0.00525223 0)
(0.202372 0.00506609 0)
(0.202398 0.00489184 0)
(0.202412 0.00472847 0)
(0.202417 0.0045749 0)
(0.202415 0.00443007 0)
(0.202408 0.00429301 0)
(0.202397 0.00416283 0)
(0.202382 0.00403872 0)
(0.202366 0.00391997 0)
(0.202347 0.00380593 0)
(0.202328 0.00369602 0)
(0.202308 0.00358972 0)
(0.202288 0.00348657 0)
(0.202268 0.00338612 0)
(0.202248 0.00328798 0)
(0.202229 0.00319178 0)
(0.20221 0.00309719 0)
(0.202192 0.00300388 0)
(0.202175 0.00291154 0)
(0.202158 0.00281988 0)
(0.202142 0.00272862 0)
(0.202127 0.00263748 0)
(0.202112 0.00254621 0)
(0.202097 0.00245456 0)
(0.202083 0.00236228 0)
(0.202069 0.00226914 0)
(0.202054 0.00217495 0)
(0.20204 0.00207949 0)
(0.202024 0.00198262 0)
(0.202008 0.00188419 0)
(0.20199 0.00178412 0)
(0.201971 0.00168238 0)
(0.201949 0.00157901 0)
(0.201925 0.00147417 0)
(0.201897 0.00136811 0)
(0.201866 0.00126127 0)
(0.20183 0.00115425 0)
(0.201789 0.00104786 0)
(0.201744 0.00094312 0)
(0.201693 0.000841216 0)
(0.201637 0.000743455 0)
(0.201576 0.000651137 0)
(0.201512 0.000565407 0)
(0.201445 0.000487124 0)
(0.201376 0.000416775 0)
(0.201308 0.000354482 0)
(0.201239 0.000300047 0)
(0.201173 0.000253034 0)