/*--------------------------------*- C++ -*----------------------------------*\
| =========                 |                                                 |
| \\      /  F ield         | OpenFOAM: The Open Source CFD Toolbox           |
|  \\    /   O peration     | Version:  2.3.0                                 |
|   \\  /    A nd           | Web:      www.OpenFOAM.org                      |
|    \\/     M anipulation  |                                                 |
\*---------------------------------------------------------------------------*/
FoamFile
{
    version     2.0;
    format      ascii;
    class       volScalarField;
    location    "0.65";
    object      p;
}
// * * * * * * * * * * * * * * * * * * * * * * * * * * * * * * * * * * * * * //

dimensions      [0 2 -2 0 0 0 0];

internalField   nonuniform List<scalar> 
2945
(
0.00257978
0.00114625
-7.85916e-05
-0.000630898
-0.000702142
-0.000606705
-0.000512136
-0.000455557
-0.000425256
-0.000406329
-0.000391358
-0.000377857
-0.000365198
-0.000353239
-0.000341906
-0.0003311
-0.000320723
-0.000310687
-0.000300931
-0.000291416
-0.000282117
-0.00027302
-0.000264118
-0.000255409
-0.000246893
-0.000238574
-0.000230455
-0.00022254
-0.000214834
-0.000207339
-0.00020006
-0.000192999
-0.00018616
-0.000179543
-0.00017315
-0.000166981
-0.000161036
-0.000155313
-0.00014981
-0.000144524
-0.000139452
-0.000134591
-0.000129933
-0.000125475
-0.00012121
-0.00011713
-0.000113228
-0.000109494
-0.00010592
-0.000102495
-9.92069e-05
-9.60442e-05
-9.29929e-05
-9.00385e-05
-8.71648e-05
-8.43544e-05
-8.15882e-05
-7.88453e-05
-7.6103e-05
-7.33364e-05
-7.0518e-05
-6.7618e-05
-6.46031e-05
-6.14373e-05
-5.80803e-05
-5.44875e-05
-5.06116e-05
-4.63911e-05
-4.17886e-05
-3.66585e-05
-3.11744e-05
-2.44839e-05
-1.87745e-05
-7.79843e-06
-7.11827e-06
0.0021421
0.00109337
3.21551e-05
-0.000517814
-0.000627242
-0.00056302
-0.000487274
-0.000440258
-0.000414212
-0.000397301
-0.0003836
-0.000371098
-0.00035927
-0.000348003
-0.000337242
-0.000326916
-0.000316943
-0.000307254
-0.000297799
-0.000288546
-0.000279477
-0.000270583
-0.000261863
-0.000253316
-0.000244946
-0.000236758
-0.000228758
-0.000220952
-0.000213344
-0.000205939
-0.000198743
-0.000191759
-0.000184989
-0.000178438
-0.000172105
-0.000165992
-0.000160098
-0.000154424
-0.000148966
-0.000143722
-0.00013869
-0.000133865
-0.000129243
-0.000124818
-0.000120583
-0.000116533
-0.000112658
-0.000108951
-0.000105401
-0.000102
-9.87344e-05
-9.5593e-05
-9.25622e-05
-8.96273e-05
-8.67723e-05
-8.39797e-05
-8.12306e-05
-7.85042e-05
-7.57777e-05
-7.30262e-05
-7.02224e-05
-6.73363e-05
-6.43348e-05
-6.11819e-05
-5.78372e-05
-5.4256e-05
-5.03912e-05
-4.6181e-05
-4.15888e-05
-3.64661e-05
-3.09948e-05
-2.43007e-05
-1.86256e-05
-7.61584e-06
-7.02646e-06
0.00190042
0.00106339
0.000150986
-0.000377973
-0.000528416
-0.000507312
-0.000457862
-0.000422878
-0.000401543
-0.000386846
-0.000374758
-0.000363648
-0.000352975
-0.000342618
-0.000332567
-0.000322802
-0.000313284
-0.000303969
-0.000294828
-0.000285843
-0.000277005
-0.000268312
-0.000259768
-0.000251377
-0.000243147
-0.000235084
-0.000227196
-0.000219491
-0.000211975
-0.000204654
-0.000197535
-0.000190621
-0.000183917
-0.000177425
-0.000171148
-0.000165086
-0.00015924
-0.00015361
-0.000148194
-0.000142989
-0.000137993
-0.000133203
-0.000128612
-0.000124217
-0.000120011
-0.000115987
-0.000112138
-0.000108455
-0.000104928
-0.000101548
-9.83037e-05
-9.51821e-05
-9.21702e-05
-8.92534e-05
-8.64158e-05
-8.36399e-05
-8.09069e-05
-7.8196e-05
-7.54844e-05
-7.27474e-05
-6.99576e-05
-6.70851e-05
-6.40968e-05
-6.09566e-05
-5.76242e-05
-5.40551e-05
-5.0202e-05
-4.60029e-05
-4.14219e-05
-3.63087e-05
-3.085e-05
-2.41523e-05
-1.85111e-05
-7.3274e-06
-7.2158e-06
0.00172464
0.00103128
0.000244973
-0.000247645
-0.000421586
-0.000436301
-0.000413579
-0.000394278
-0.000381366
-0.000371398
-0.000362371
-0.000353493
-0.000344517
-0.000335462
-0.000326424
-0.000317463
-0.000308594
-0.000299813
-0.000291116
-0.000282504
-0.000273984
-0.000265565
-0.000257257
-0.000249073
-0.000241024
-0.000233122
-0.000225377
-0.0002178
-0.000210399
-0.000203183
-0.000196157
-0.00018933
-0.000182704
-0.000176284
-0.000170073
-0.000164072
-0.000158282
-0.000152704
-0.000147336
-0.000142176
-0.000137223
-0.000132471
-0.000127917
-0.000123557
-0.000119383
-0.000115389
-0.000111569
-0.000107913
-0.000104412
-0.000101057
-9.78351e-05
-9.47356e-05
-9.17447e-05
-8.88481e-05
-8.60298e-05
-8.32725e-05
-8.05574e-05
-7.78638e-05
-7.5169e-05
-7.24483e-05
-6.96743e-05
-6.68173e-05
-6.38441e-05
-6.07187e-05
-5.7401e-05
-5.38464e-05
-5.00075e-05
-4.58227e-05
-4.12555e-05
-3.61563e-05
-3.07101e-05
-2.40141e-05
-1.83882e-05
-6.91403e-06
-7.6955e-06
0.00154589
0.000974821
0.000308343
-0.000140102
-0.000326147
-0.000367767
-0.000366864
-0.000361508
-0.000356862
-0.000351918
-0.000346322
-0.000340072
-0.000333198
-0.000325829
-0.000318141
-0.000310268
-0.000302286
-0.000294235
-0.000286147
-0.000278049
-0.000269967
-0.000261924
-0.000253942
-0.000246043
-0.000238243
-0.000230562
-0.000223013
-0.000215611
-0.000208366
-0.000201291
-0.000194393
-0.000187681
-0.000181161
-0.000174837
-0.000168714
-0.000162794
-0.000157078
-0.000151569
-0.000146264
-0.000141163
-0.000136264
-0.000131563
-0.000127057
-0.00012274
-0.000118607
-0.000114653
-0.000110868
-0.000107246
-0.000103778
-0.000100453
-9.72598e-05
-9.41876e-05
-9.12227e-05
-8.83508e-05
-8.55562e-05
-8.28217e-05
-8.01285e-05
-7.74561e-05
-7.47818e-05
-7.2081e-05
-6.93265e-05
-6.64887e-05
-6.35343e-05
-6.04277e-05
-5.71286e-05
-5.35926e-05
-4.97725e-05
-4.56068e-05
-4.10584e-05
-3.59795e-05
-3.05482e-05
-2.38602e-05
-1.82262e-05
-6.37213e-06
-8.44883e-06
0.00138503
0.000916595
0.000354444
-5.13395e-05
-0.000243886
-0.000306384
-0.000323065
-0.000329294
-0.000331837
-0.000331451
-0.00032904
-0.000325273
-0.000320433
-0.000314737
-0.000308426
-0.000301696
-0.00029467
-0.000287429
-0.000280031
-0.000272526
-0.000264958
-0.000257363
-0.000249774
-0.000242221
-0.000234728
-0.00022732
-0.000220015
-0.000212831
-0.000205784
-0.000198888
-0.000192152
-0.000185587
-0.000179201
-0.000173
-0.00016699
-0.000161173
-0.000155553
-0.000150132
-0.000144908
-0.000139883
-0.000135053
-0.000130417
-0.000125971
-0.00012171
-0.00011763
-0.000113724
-0.000109986
-0.000106407
-0.000102978
-9.96911e-05
-9.65341e-05
-9.34957e-05
-9.0563e-05
-8.77216e-05
-8.49562e-05
-8.22495e-05
-7.95832e-05
-7.69366e-05
-7.42875e-05
-7.16112e-05
-6.88807e-05
-6.60666e-05
-6.31357e-05
-6.00526e-05
-5.67771e-05
-5.32651e-05
-4.94694e-05
-4.53292e-05
-4.08061e-05
-3.57555e-05
-3.03435e-05
-2.36722e-05
-1.8009e-05
-5.73324e-06
-9.40079e-06
0.00124771
0.00086159
0.000387042
2.16728e-05
-0.000172205
-0.000250371
-0.000281341
-0.000297512
-0.000306662
-0.000310717
-0.000311453
-0.000310099
-0.000307203
-0.000303096
-0.000298092
-0.000292451
-0.000286347
-0.000279892
-0.000273174
-0.000266263
-0.000259216
-0.000252082
-0.000244905
-0.000237719
-0.000230557
-0.000223446
-0.000216411
-0.000209473
-0.000202649
-0.000195956
-0.000189407
-0.000183014
-0.000176786
-0.00017073
-0.000164854
-0.000159161
-0.000153656
-0.000148341
-0.000143216
-0.000138282
-0.000133538
-0.000128981
-0.000124609
-0.000120417
-0.000116401
-0.000112555
-0.000108873
-0.000105346
-0.000101967
-9.87265e-05
-9.56133e-05
-9.26162e-05
-8.97225e-05
-8.69182e-05
-8.41881e-05
-8.15153e-05
-7.88814e-05
-7.62662e-05
-7.36475e-05
-7.10009e-05
-6.82996e-05
-6.55144e-05
-6.26125e-05
-5.95584e-05
-5.63125e-05
-5.28308e-05
-4.90664e-05
-4.49591e-05
-4.04696e-05
-3.54567e-05
-3.00715e-05
-2.34291e-05
-1.77238e-05
-5.0612e-06
-1.04052e-05
0.00112936
0.000807739
0.000406851
8.0453e-05
-0.000109897
-0.000199104
-0.000241572
-0.000266287
-0.00028151
-0.000289882
-0.000293743
-0.00029477
-0.000293778
-0.000291224
-0.000287495
-0.000282914
-0.0002777
-0.000272007
-0.000265945
-0.000259605
-0.000253061
-0.000246374
-0.000239596
-0.000232769
-0.000225933
-0.000219118
-0.000212354
-0.000205664
-0.000199069
-0.000192587
-0.000186233
-0.000180021
-0.00017396
-0.000168061
-0.00016233
-0.000156773
-0.000151395
-0.000146197
-0.000141183
-0.000136352
-0.000131704
-0.000127238
-0.00012295
-0.000118837
-0.000114896
-0.000111119
-0.000107502
-0.000104037
-0.000100715
-9.75287e-05
-9.44665e-05
-9.15176e-05
-8.86695e-05
-8.59086e-05
-8.32198e-05
-8.05865e-05
-7.79906e-05
-7.54121e-05
-7.28291e-05
-7.02175e-05
-6.75508e-05
-6.47998e-05
-6.19324e-05
-5.89133e-05
-5.57032e-05
-5.22586e-05
-4.85331e-05
-4.44672e-05
-4.00205e-05
-3.50562e-05
-2.97077e-05
-2.31121e-05
-1.7364e-05
-4.44503e-06
-1.12682e-05
0.00102651
0.000755837
0.000416881
0.000127279
-5.60826e-05
-0.000152557
-0.00020407
-0.000235954
-0.000256587
-0.000269028
-0.000275934
-0.000279304
-0.000280192
-0.000279178
-0.000276718
-0.000273189
-0.000268862
-0.000263921
-0.000258506
-0.000252728
-0.000246677
-0.000240427
-0.000234037
-0.00022756
-0.00022104
-0.000214513
-0.000208011
-0.000201563
-0.000195191
-0.000188916
-0.000182754
-0.000176721
-0.000170828
-0.000165085
-0.000159502
-0.000154083
-0.000148834
-0.000143758
-0.000138858
-0.000134135
-0.000129589
-0.000125218
-0.00012102
-0.000116992
-0.00011313
-0.000109428
-0.000105882
-0.000102483
-9.92245e-05
-9.6097e-05
-9.30909e-05
-9.0195e-05
-8.73973e-05
-8.46842e-05
-8.20411e-05
-7.94517e-05
-7.6898e-05
-7.43604e-05
-7.18173e-05
-6.9245e-05
-6.66172e-05
-6.39053e-05
-6.10773e-05
-5.80985e-05
-5.49302e-05
-5.15293e-05
-4.78499e-05
-4.38339e-05
-3.94396e-05
-3.45353e-05
-2.92357e-05
-2.27101e-05
-1.69323e-05
-3.98183e-06
-1.17924e-05
0.000936862
0.000706965
0.000419712
0.000163916
-1.01595e-05
-0.000110735
-0.000169059
-0.000206772
-0.000232082
-0.00024826
-0.000258076
-0.000263726
-0.000266458
-0.000266965
-0.000265767
-0.00026329
-0.000259849
-0.000255663
-0.000250897
-0.000245682
-0.000240124
-0.000234309
-0.000228306
-0.000222176
-0.000215968
-0.000209725
-0.000203483
-0.000197272
-0.000191119
-0.000185047
-0.000179073
-0.000173216
-0.000167487
-0.000161898
-0.000156458
-0.000151175
-0.000146054
-0.0001411
-0.000136314
-0.000131699
-0.000127254
-0.000122979
-0.000118871
-0.000114929
-0.000111148
-0.000107523
-0.000104049
-0.000100719
-9.75249e-05
-9.44587e-05
-9.15106e-05
-8.86698e-05
-8.59245e-05
-8.32615e-05
-8.06663e-05
-7.81229e-05
-7.56137e-05
-7.31195e-05
-7.06189e-05
-6.80885e-05
-6.55025e-05
-6.28328e-05
-6.00479e-05
-5.71136e-05
-5.39917e-05
-5.064e-05
-4.70133e-05
-4.30547e-05
-3.87218e-05
-3.38885e-05
-2.8651e-05
-2.22237e-05
-1.64406e-05
-3.74982e-06
-1.18306e-05
0.000858329
0.000661401
0.000417034
0.000191742
2.84644e-05
-7.35312e-05
-0.000136666
-0.000178963
-0.000208213
-0.000227737
-0.000240277
-0.000248107
-0.00025262
-0.000254611
-0.000254656
-0.000253222
-0.000250664
-0.000247234
-0.00024312
-0.000238472
-0.00023341
-0.000228033
-0.000222421
-0.00021664
-0.000210747
-0.000204789
-0.000198807
-0.000192834
-0.0001869
-0.00018103
-0.000175244
-0.000169561
-0.000163995
-0.000158559
-0.000153262
-0.000148114
-0.00014312
-0.000138284
-0.000133611
-0.000129102
-0.000124758
-0.000120578
-0.000116561
-0.000112703
-0.000109003
-0.000105454
-0.000102052
-9.87896e-05
-9.56603e-05
-9.26553e-05
-8.97652e-05
-8.69797e-05
-8.42869e-05
-8.16742e-05
-7.91271e-05
-7.66302e-05
-7.4166e-05
-7.17158e-05
-6.92585e-05
-6.67711e-05
-6.42284e-05
-6.16026e-05
-5.88629e-05
-5.59756e-05
-5.29035e-05
-4.96051e-05
-4.60361e-05
-4.21411e-05
-3.78774e-05
-3.31251e-05
-2.79632e-05
-2.16645e-05
-1.59071e-05
-3.78171e-06
-1.13333e-05
0.000789065
0.000619081
0.000410229
0.000212128
6.05018e-05
-4.07441e-05
-0.000106952
-0.000152708
-0.000185177
-0.000207617
-0.000222647
-0.000232525
-0.000238735
-0.000242156
-0.000243412
-0.000243005
-0.000241321
-0.000238642
-0.000235178
-0.000231098
-0.000226535
-0.0002216
-0.000216381
-0.000210953
-0.000205378
-0.000199709
-0.00019399
-0.000188258
-0.000182546
-0.00017688
-0.000171284
-0.000165778
-0.000160377
-0.000155094
-0.000149942
-0.000144929
-0.000140062
-0.000135347
-0.000130787
-0.000126384
-0.000122141
-0.000118056
-0.000114128
-0.000110356
-0.000106735
-0.000103262
-9.99312e-05
-9.67368e-05
-9.36714e-05
-9.07271e-05
-8.78945e-05
-8.51636e-05
-8.25229e-05
-7.99599e-05
-7.74606e-05
-7.50097e-05
-7.25903e-05
-7.01838e-05
-6.77697e-05
-6.53255e-05
-6.28264e-05
-6.02452e-05
-5.75517e-05
-5.47131e-05
-5.16928e-05
-4.84505e-05
-4.49429e-05
-4.11164e-05
-3.69282e-05
-3.22657e-05
-2.7192e-05
-2.10516e-05
-1.53517e-05
-4.05155e-06
-1.03668e-05
0.000727531
0.000579836
0.00040044
0.000226343
8.66564e-05
-1.21575e-05
-7.99451e-05
-0.000128141
-0.000163137
-0.000188041
-0.000205293
-0.00021706
-0.000224863
-0.000229647
-0.000232071
-0.000232663
-0.000231836
-0.000229898
-0.00022708
-0.000223565
-0.000219501
-0.000215009
-0.000210186
-0.000205114
-0.00019986
-0.000194483
-0.00018903
-0.000183543
-0.000178057
-0.000172599
-0.000167197
-0.00016187
-0.000156637
-0.000151512
-0.000146506
-0.000141631
-0.000136894
-0.000132301
-0.000127856
-0.000123562
-0.00011942
-0.000115432
-0.000111595
-0.000107908
-0.000104369
-0.000100972
-9.77134e-05
-9.45871e-05
-9.15861e-05
-8.87026e-05
-8.59278e-05
-8.32515e-05
-8.06628e-05
-7.81495e-05
-7.56978e-05
-7.32928e-05
-7.09179e-05
-6.85551e-05
-6.61843e-05
-6.37833e-05
-6.13281e-05
-5.87919e-05
-5.61455e-05
-5.33566e-05
-5.03898e-05
-4.72059e-05
-4.37626e-05
-4.00084e-05
-3.59011e-05
-3.13358e-05
-2.63619e-05
-2.04059e-05
-1.47921e-05
-4.48283e-06
-9.09038e-06
0.000672469
0.000543426
0.000388542
0.000235473
0.000107588
1.24628e-05
-5.5635e-05
-0.000105356
-0.000142224
-0.000169135
-0.000188316
-0.00020179
-0.000211068
-0.000217132
-0.000220668
-0.000222224
-0.000222232
-0.00022102
-0.000218838
-0.000215883
-0.000212315
-0.000208264
-0.000203837
-0.000199121
-0.000194192
-0.000189109
-0.000183926
-0.000178687
-0.000173429
-0.000168184
-0.000162979
-0.000157835
-0.000152773
-0.000147809
-0.000142954
-0.000138221
-0.000133617
-0.000129149
-0.000124821
-0.000120639
-0.000116602
-0.000112712
-0.000108969
-0.00010537
-0.000101913
-9.85951e-05
-9.54105e-05
-9.23538e-05
-8.94187e-05
-8.65973e-05
-8.38812e-05
-8.12607e-05
-7.87249e-05
-7.62621e-05
-7.38587e-05
-7.15003e-05
-6.91708e-05
-6.68523e-05
-6.45253e-05
-6.21684e-05
-5.97578e-05
-5.72677e-05
-5.46694e-05
-5.19317e-05
-4.90202e-05
-4.58968e-05
-4.25206e-05
-3.88426e-05
-3.48208e-05
-3.03596e-05
-2.54959e-05
-1.97444e-05
-1.42407e-05
-4.97488e-06
-7.70266e-06
0.000622851
0.000509576
0.000375183
0.000240447
0.000123928
3.33813e-05
-3.39702e-05
-8.44041e-05
-0.000122541
-0.000151009
-0.000171811
-0.000186792
-0.000197409
-0.000204658
-0.000209242
-0.000211717
-0.000212529
-0.000212023
-0.000210463
-0.000208059
-0.000204981
-0.000201369
-0.000197336
-0.000192978
-0.000188373
-0.000183587
-0.000178676
-0.000173687
-0.000168661
-0.000163631
-0.000158626
-0.00015367
-0.000148783
-0.000143983
-0.000139282
-0.000134694
-0.000130227
-0.000125887
-0.000121682
-0.000117613
-0.000113685
-0.000109897
-0.00010625
-0.000102742
-9.93713e-05
-9.61339e-05
-9.30256e-05
-9.00411e-05
-8.71739e-05
-8.44168e-05
-8.17615e-05
-7.91986e-05
-7.67176e-05
-7.43069e-05
-7.19536e-05
-6.96434e-05
-6.73606e-05
-6.5088e-05
-6.28064e-05
-6.0495e-05
-5.81307e-05
-5.56884e-05
-5.31401e-05
-5.04557e-05
-4.76017e-05
-4.45415e-05
-4.12357e-05
-3.76374e-05
-3.3706e-05
-2.93552e-05
-2.46114e-05
-1.90777e-05
-1.37042e-05
-5.43397e-06
-6.38207e-06
0.000577833
0.000478005
0.000360844
0.000242049
0.000136272
5.08807e-05
-1.48706e-05
-6.53084e-05
-0.000104164
-0.000133759
-0.000155867
-0.000172141
-0.000183949
-0.000192278
-0.000197833
-0.000201174
-0.000202753
-0.000202926
-0.00020197
-0.000200104
-0.000197508
-0.000194329
-0.000190688
-0.000186685
-0.000182404
-0.000177916
-0.000173278
-0.000168542
-0.00016375
-0.000158938
-0.000154137
-0.000149371
-0.000144663
-0.00014003
-0.000135488
-0.000131048
-0.000126721
-0.000122514
-0.000118433
-0.000114483
-0.000110666
-0.000106984
-0.000103436
-0.000100023
-9.67406e-05
-9.35871e-05
-9.0558e-05
-8.76483e-05
-8.48519e-05
-8.21617e-05
-7.95698e-05
-7.70669e-05
-7.46431e-05
-7.22869e-05
-6.99858e-05
-6.7726e-05
-6.54922e-05
-6.32676e-05
-6.10337e-05
-5.877e-05
-5.64543e-05
-5.40621e-05
-5.15664e-05
-4.8938e-05
-4.61445e-05
-4.31507e-05
-3.99188e-05
-3.64045e-05
-3.25684e-05
-2.83342e-05
-2.37194e-05
-1.84103e-05
-1.3184e-05
-5.79557e-06
-5.24728e-06
0.000536726
0.000448453
0.000345873
0.000240934
0.000145163
6.52504e-05
1.76644e-06
-4.8066e-05
-8.71442e-05
-0.000117461
-0.000140564
-0.000157905
-0.000170747
-0.000180039
-0.000186481
-0.000190627
-0.000192929
-0.00019375
-0.000193374
-0.00019203
-0.000189905
-0.000187151
-0.000183896
-0.000180246
-0.000176288
-0.000172095
-0.000167732
-0.00016325
-0.000158695
-0.000154103
-0.000149508
-0.000144936
-0.000140409
-0.000135948
-0.000131567
-0.000127279
-0.000123096
-0.000119025
-0.000115073
-0.000111244
-0.000107543
-0.000103969
-0.000100525
-9.72084e-05
-9.40185e-05
-9.09521e-05
-8.80054e-05
-8.51736e-05
-8.24509e-05
-7.98305e-05
-7.73047e-05
-7.48646e-05
-7.25006e-05
-7.02016e-05
-6.79554e-05
-6.57487e-05
-6.35665e-05
-6.13925e-05
-5.92088e-05
-5.69957e-05
-5.47313e-05
-5.23922e-05
-4.99521e-05
-4.73827e-05
-4.46532e-05
-4.17295e-05
-3.85757e-05
-3.51498e-05
-3.14144e-05
-2.73025e-05
-2.28252e-05
-1.77423e-05
-1.2678e-05
-6.0309e-06
-4.34712e-06
0.000498958
0.000420681
0.000330519
0.000237636
0.000151091
7.678e-05
1.60631e-05
-3.26508e-05
-7.15116e-05
-0.000102175
-0.000125969
-0.000144151
-0.000157859
-0.00016799
-0.000175226
-0.000180108
-0.000183083
-0.000184514
-0.000184692
-0.00018385
-0.00018218
-0.000179841
-0.000176965
-0.000173662
-0.000170024
-0.000166127
-0.000162038
-0.000157811
-0.000153493
-0.000149124
-0.000144737
-0.000140361
-0.000136019
-0.000131732
-0.000127516
-0.000123384
-0.000119348
-0.000115417
-0.000111597
-0.000107894
-0.000104311
-0.00010085
-9.7512e-05
-9.42966e-05
-9.12022e-05
-8.82262e-05
-8.53651e-05
-8.26144e-05
-7.99684e-05
-7.74208e-05
-7.49641e-05
-7.25898e-05
-7.02885e-05
-6.80495e-05
-6.58611e-05
-6.37102e-05
-6.15824e-05
-5.9462e-05
-5.73315e-05
-5.51718e-05
-5.29619e-05
-5.0679e-05
-4.82978e-05
-4.57912e-05
-4.31293e-05
-4.02799e-05
-3.72084e-05
-3.38757e-05
-3.02464e-05
-2.62626e-05
-2.19307e-05
-1.70721e-05
-1.21827e-05
-6.14051e-06
-3.6744e-06
0.000464056
0.000394475
0.000314961
0.000232589
0.00015449
8.57528e-05
2.81562e-05
-1.90178e-05
-5.72759e-05
-8.79447e-05
-0.00011214
-0.000130937
-0.000145339
-0.000156179
-0.000164108
-0.000169651
-0.000173242
-0.000175241
-0.00017594
-0.000175575
-0.000174343
-0.000172406
-0.0001699
-0.000166938
-0.000163615
-0.000160011
-0.000156194
-0.000152222
-0.000148142
-0.000143997
-0.000139822
-0.000135644
-0.00013149
-0.000127381
-0.000123332
-0.00011936
-0.000115475
-0.000111687
-0.000108003
-0.000104429
-0.000100968
-9.76232e-05
-9.43952e-05
-9.12842e-05
-8.82887e-05
-8.54065e-05
-8.26344e-05
-7.99679e-05
-7.74019e-05
-7.49302e-05
-7.25457e-05
-7.02402e-05
-6.80046e-05
-6.58287e-05
-6.37009e-05
-6.16089e-05
-5.95385e-05
-5.74747e-05
-5.54005e-05
-5.32975e-05
-5.11453e-05
-4.89221e-05
-4.66034e-05
-4.41633e-05
-4.15731e-05
-3.88021e-05
-3.58175e-05
-3.2583e-05
-2.90653e-05
-2.5215e-05
-2.10354e-05
-1.63976e-05
-1.16936e-05
-6.14204e-06
-3.18995e-06
0.000431622
0.00036965
0.000299322
0.000226143
0.000155738
9.24393e-05
3.81919e-05
-7.10661e-06
-4.44302e-05
-7.47972e-05
-9.91234e-05
-0.000118312
-0.000133235
-0.000144649
-0.000153167
-0.000159288
-0.000163433
-0.000165952
-0.000167136
-0.000167221
-0.000166406
-0.000164855
-0.000162706
-0.000160077
-0.000157063
-0.000153748
-0.000150202
-0.000146483
-0.000142643
-0.000138723
-0.000134759
-0.000130783
-0.000126819
-0.00012289
-0.000119013
-0.000115203
-0.000111473
-0.000107831
-0.000104287
-0.000100845
-9.75106e-05
-9.42854e-05
-9.11712e-05
-8.8168e-05
-8.52751e-05
-8.24901e-05
-7.98103e-05
-7.72315e-05
-7.47488e-05
-7.23563e-05
-7.00472e-05
-6.78136e-05
-6.56469e-05
-6.3537e-05
-6.14731e-05
-5.9443e-05
-5.74332e-05
-5.54291e-05
-5.34145e-05
-5.13714e-05
-4.92804e-05
-4.71204e-05
-4.4868e-05
-4.24983e-05
-3.99839e-05
-3.72957e-05
-3.44029e-05
-3.12715e-05
-2.7871e-05
-2.41593e-05
-2.01384e-05
-1.57174e-05
-1.12071e-05
-6.05886e-06
-2.84472e-06
0.000401323
0.000346039
0.000283689
0.000218578
0.000155163
9.70937e-05
4.63216e-05
3.15583e-06
-3.29535e-05
-6.2747e-05
-8.69542e-05
-0.000106321
-0.000121592
-0.000133443
-0.00014244
-0.000149053
-0.000153684
-0.000156671
-0.000158298
-0.000158802
-0.000158379
-0.000157195
-0.00015539
-0.000153083
-0.000150371
-0.00014734
-0.000144061
-0.000140594
-0.000136992
-0.000133297
-0.000129547
-0.000125774
-0.000122003
-0.000118257
-0.000114554
-0.00011091
-0.000107338
-0.000103847
-0.000100446
-9.71403e-05
-9.39353e-05
-9.08335e-05
-8.78366e-05
-8.49451e-05
-8.21582e-05
-7.94741e-05
-7.68901e-05
-7.44025e-05
-7.20064e-05
-6.96965e-05
-6.7466e-05
-6.53077e-05
-6.3213e-05
-6.11725e-05
-5.91756e-05
-5.72106e-05
-5.52647e-05
-5.33237e-05
-5.13719e-05
-4.93923e-05
-4.73661e-05
-4.5273e-05
-4.30907e-05
-4.07954e-05
-3.83612e-05
-3.57604e-05
-3.2964e-05
-2.9941e-05
-2.66631e-05
-2.3095e-05
-1.92382e-05
-1.50301e-05
-1.07198e-05
-5.91291e-06
-2.59384e-06
0.000372873
0.000323498
0.000268116
0.000210117
0.000153042
9.99504e-05
5.26994e-05
1.18548e-05
-2.28088e-05
-5.17913e-05
-7.56526e-05
-9.49957e-05
-0.000110447
-0.000122597
-0.000131961
-0.000138976
-0.000144021
-0.000147419
-0.000149445
-0.000150332
-0.000150274
-0.000149436
-0.000147959
-0.000145961
-0.000143542
-0.000140788
-0.000137772
-0.000134555
-0.000131189
-0.000127719
-0.000124184
-0.000120615
-0.000117038
-0.000113478
-0.000109953
-0.000106478
-0.000103067
-9.97299e-05
-9.64756e-05
-9.33102e-05
-9.02387e-05
-8.72641e-05
-8.43884e-05
-8.16122e-05
-7.89351e-05
-7.63555e-05
-7.3871e-05
-7.1478e-05
-6.91721e-05
-6.69481e-05
-6.47998e-05
-6.27201e-05
-6.07008e-05
-5.8733e-05
-5.68064e-05
-5.491e-05
-5.30313e-05
-5.11567e-05
-4.92713e-05
-4.73587e-05
-4.54009e-05
-4.33786e-05
-4.12705e-05
-3.90538e-05
-3.67042e-05
-3.41954e-05
-3.15005e-05
-2.85908e-05
-2.54409e-05
-2.20211e-05
-1.83333e-05
-1.4335e-05
-1.02292e-05
-5.72172e-06
-2.40248e-06
0.000346032
0.0003019
0.000252638
0.000200932
0.000149606
0.000101214
5.74662e-05
1.90703e-05
-1.39611e-05
-4.19268e-05
-6.52367e-05
-8.43662e-05
-9.98323e-05
-0.000112144
-0.00012176
-0.000129085
-0.000134468
-0.000138216
-0.000140593
-0.000141825
-0.000142101
-0.000141586
-0.000140418
-0.000138715
-0.000136579
-0.000134094
-0.000131335
-0.000128363
-0.000125233
-0.000121988
-0.000118667
-0.000115303
-0.000111923
-0.000108551
-0.000105205
-0.000101903
-9.86564e-05
-9.5477e-05
-9.23732e-05
-8.93517e-05
-8.64175e-05
-8.35739e-05
-8.08232e-05
-7.81662e-05
-7.56027e-05
-7.31314e-05
-7.075e-05
-6.84553e-05
-6.62432e-05
-6.41088e-05
-6.20462e-05
-6.00485e-05
-5.81081e-05
-5.62163e-05
-5.43636e-05
-5.25391e-05
-5.07311e-05
-4.89266e-05
-4.71111e-05
-4.52692e-05
-4.33837e-05
-4.14361e-05
-3.94063e-05
-3.72727e-05
-3.50121e-05
-3.26001e-05
-3.00116e-05
-2.72205e-05
-2.42038e-05
-2.09369e-05
-1.74222e-05
-1.36317e-05
-9.73361e-06
-5.49824e-06
-2.24624e-06
0.000320591
0.000281139
0.000237292
0.000191184
0.000145079
0.000101103
6.07918e-05
2.49166e-05
-6.34335e-06
-3.31246e-05
-5.57062e-05
-7.44514e-05
-8.97785e-05
-0.000102118
-0.000111875
-0.000119412
-0.000125055
-0.000129089
-0.000131765
-0.000133299
-0.000133876
-0.000133656
-0.000132776
-0.000131352
-0.000129485
-0.000127261
-0.000124752
-0.000122021
-0.000119122
-0.0001161
-0.000112994
-0.000109836
-0.000106654
-0.000103472
-0.000100309
-9.71815e-05
-9.41031e-05
-9.10847e-05
-8.81351e-05
-8.52611e-05
-8.2468e-05
-7.97594e-05
-7.71375e-05
-7.46036e-05
-7.21576e-05
-6.97983e-05
-6.75239e-05
-6.53313e-05
-6.32167e-05
-6.11755e-05
-5.92021e-05
-5.72901e-05
-5.54322e-05
-5.36201e-05
-5.18447e-05
-5.00958e-05
-4.83621e-05
-4.66312e-05
-4.48895e-05
-4.31222e-05
-4.13129e-05
-3.94441e-05
-3.74968e-05
-3.54506e-05
-3.32838e-05
-3.09735e-05
-2.84964e-05
-2.5829e-05
-2.29507e-05
-1.98412e-05
-1.65035e-05
-1.29197e-05
-9.23143e-06
-5.25143e-06
-2.10887e-06
0.000296323
0.000261054
0.000222013
0.000180907
0.000139559
9.973e-05
6.27762e-05
2.94717e-05
1.01808e-07
-2.53448e-05
-4.70365e-05
-6.52386e-05
-8.02808e-05
-9.25203e-05
-0.000102307
-0.000109965
-0.00011579
-0.000120045
-0.000122967
-0.00012476
-0.000125603
-0.00012565
-0.000125036
-0.000123874
-0.000122263
-0.000120288
-0.000118022
-0.000115527
-0.000112857
-0.000110056
-0.000107163
-0.000104212
-0.000101229
-9.82389e-05
-9.52609e-05
-9.23115e-05
-8.94043e-05
-8.65503e-05
-8.37585e-05
-8.1036e-05
-7.83879e-05
-7.58181e-05
-7.33292e-05
-7.09223e-05
-6.85977e-05
-6.63545e-05
-6.41909e-05
-6.21043e-05
-6.0091e-05
-5.81468e-05
-5.62664e-05
-5.44437e-05
-5.26719e-05
-5.09432e-05
-4.92488e-05
-4.75791e-05
-4.59234e-05
-4.427e-05
-4.26059e-05
-4.0917e-05
-3.9188e-05
-3.74022e-05
-3.55418e-05
-3.35876e-05
-3.15192e-05
-2.93154e-05
-2.69549e-05
-2.44163e-05
-2.16814e-05
-1.87336e-05
-1.55766e-05
-1.2199e-05
-8.72204e-06
-4.98806e-06
-1.98045e-06
0.000261417
0.00023184
0.000199264
0.000164899
0.000130045
9.60198e-05
6.39234e-05
3.44845e-05
8.07841e-06
-1.51723e-05
-3.53044e-05
-5.24597e-05
-6.68535e-05
-7.87432e-05
-8.83999e-05
-9.60887e-05
-0.000102059
-0.000106541
-0.000109745
-0.000111857
-0.000113042
-0.000113445
-0.000113193
-0.000112395
-0.000111147
-0.000109532
-0.00010762
-0.000105471
-0.000103139
-0.000100668
-9.80969e-05
-9.54572e-05
-9.27771e-05
-9.00797e-05
-8.73848e-05
-8.47088e-05
-8.20651e-05
-7.9465e-05
-7.69175e-05
-7.44296e-05
-7.20069e-05
-6.96532e-05
-6.73714e-05
-6.51629e-05
-6.30281e-05
-6.09665e-05
-5.89767e-05
-5.70563e-05
-5.52023e-05
-5.34107e-05
-5.16769e-05
-4.99952e-05
-4.83595e-05
-4.67626e-05
-4.51966e-05
-4.36526e-05
-4.21208e-05
-4.05905e-05
-3.90498e-05
-3.74859e-05
-3.58848e-05
-3.42313e-05
-3.25092e-05
-3.07012e-05
-2.87892e-05
-2.67545e-05
-2.45782e-05
-2.22425e-05
-1.97324e-05
-1.70359e-05
-1.41576e-05
-1.10929e-05
-7.93757e-06
-4.56749e-06
-1.78881e-06
0.000217474
0.000194271
0.000168829
0.000141934
0.000114441
8.72564e-05
6.11942e-05
3.6861e-05
1.46369e-05
-5.28229e-06
-2.28345e-05
-3.80543e-05
-5.10478e-05
-6.19695e-05
-7.10008e-05
-7.83326e-05
-8.41545e-05
-8.86484e-05
-9.19852e-05
-9.43216e-05
-9.57996e-05
-9.6546e-05
-9.66735e-05
-9.62814e-05
-9.54565e-05
-9.42749e-05
-9.28022e-05
-9.10956e-05
-8.92041e-05
-8.71701e-05
-8.50298e-05
-8.28141e-05
-8.05494e-05
-7.82579e-05
-7.59585e-05
-7.36669e-05
-7.13963e-05
-6.91573e-05
-6.69589e-05
-6.48079e-05
-6.27097e-05
-6.06685e-05
-5.8687e-05
-5.67669e-05
-5.49089e-05
-5.31129e-05
-5.13778e-05
-4.97018e-05
-4.80823e-05
-4.65161e-05
-4.49991e-05
-4.35267e-05
-4.20934e-05
-4.06931e-05
-3.93189e-05
-3.79631e-05
-3.66173e-05
-3.52721e-05
-3.39173e-05
-3.25418e-05
-3.11335e-05
-2.96795e-05
-2.81658e-05
-2.65778e-05
-2.49003e-05
-2.31179e-05
-2.12152e-05
-1.91784e-05
-1.69965e-05
-1.46616e-05
-1.2179e-05
-9.54706e-06
-6.83966e-06
-3.95481e-06
-1.53953e-06
0.000172657
0.000155166
0.000136078
0.000115891
9.5144e-05
7.44335e-05
5.43218e-05
3.52629e-05
1.75785e-05
1.47195e-06
-1.295e-05
-2.56574e-05
-3.66808e-05
-4.60965e-05
-5.4011e-05
-6.05484e-05
-6.58402e-05
-7.00191e-05
-7.32142e-05
-7.55479e-05
-7.71342e-05
-7.80768e-05
-7.84698e-05
-7.83971e-05
-7.79335e-05
-7.71445e-05
-7.60877e-05
-7.48135e-05
-7.33653e-05
-7.17809e-05
-7.00926e-05
-6.83282e-05
-6.65115e-05
-6.46625e-05
-6.27984e-05
-6.09334e-05
-5.90795e-05
-5.72466e-05
-5.54426e-05
-5.36741e-05
-5.19461e-05
-5.02624e-05
-4.86259e-05
-4.70381e-05
-4.55e-05
-4.40118e-05
-4.25726e-05
-4.11812e-05
-3.98356e-05
-3.85332e-05
-3.72707e-05
-3.60444e-05
-3.48497e-05
-3.36817e-05
-3.25347e-05
-3.14023e-05
-3.02777e-05
-2.9153e-05
-2.80199e-05
-2.68693e-05
-2.56912e-05
-2.44751e-05
-2.32098e-05
-2.18835e-05
-2.04839e-05
-1.89991e-05
-1.74173e-05
-1.57283e-05
-1.39244e-05
-1.20007e-05
-9.96248e-06
-7.80908e-06
-5.59619e-06
-3.24194e-06
-1.25405e-06
0.000126694
0.000114445
0.000101127
8.70346e-05
7.24904e-05
5.78615e-05
4.35094e-05
2.97434e-05
1.68029e-05
4.85811e-06
-5.98256e-06
-1.56643e-05
-2.41774e-05
-3.15486e-05
-3.78309e-05
-4.30956e-05
-4.74246e-05
-5.09054e-05
-5.36264e-05
-5.56743e-05
-5.71318e-05
-5.80761e-05
-5.85781e-05
-5.87025e-05
-5.85071e-05
-5.80436e-05
-5.73577e-05
-5.64895e-05
-5.5474e-05
-5.43416e-05
-5.31188e-05
-5.18281e-05
-5.04889e-05
-4.91179e-05
-4.77289e-05
-4.63339e-05
-4.49427e-05
-4.35636e-05
-4.22031e-05
-4.08667e-05
-3.95588e-05
-3.82825e-05
-3.70403e-05
-3.58337e-05
-3.46637e-05
-3.35304e-05
-3.24335e-05
-3.13722e-05
-3.03449e-05
-2.93498e-05
-2.83845e-05
-2.74462e-05
-2.65315e-05
-2.56365e-05
-2.47571e-05
-2.38885e-05
-2.30253e-05
-2.21618e-05
-2.12915e-05
-2.04076e-05
-1.95028e-05
-1.85689e-05
-1.75978e-05
-1.65806e-05
-1.55085e-05
-1.43728e-05
-1.31652e-05
-1.18788e-05
-1.05086e-05
-9.05184e-06
-7.51287e-06
-5.8915e-06
-4.22703e-06
-2.45865e-06
-9.49691e-07
7.85938e-05
7.1265e-05
6.33186e-05
5.49089e-05
4.6207e-05
3.74112e-05
2.87223e-05
2.03189e-05
1.23464e-05
4.91545e-06
-1.89637e-06
-8.04223e-06
-1.35025e-05
-1.82801e-05
-2.2396e-05
-2.5884e-05
-2.8787e-05
-3.11531e-05
-3.30329e-05
-3.44777e-05
-3.55373e-05
-3.62593e-05
-3.66882e-05
-3.68649e-05
-3.68266e-05
-3.66068e-05
-3.62354e-05
-3.57388e-05
-3.51403e-05
-3.44602e-05
-3.3716e-05
-3.2923e-05
-3.20944e-05
-3.12412e-05
-3.0373e-05
-2.94979e-05
-2.86225e-05
-2.77526e-05
-2.68926e-05
-2.60464e-05
-2.52169e-05
-2.44064e-05
-2.36166e-05
-2.28487e-05
-2.21032e-05
-2.13806e-05
-2.06806e-05
-2.00028e-05
-1.93462e-05
-1.87098e-05
-1.80921e-05
-1.74911e-05
-1.6905e-05
-1.63312e-05
-1.57671e-05
-1.52095e-05
-1.46553e-05
-1.41006e-05
-1.35414e-05
-1.29734e-05
-1.2392e-05
-1.1792e-05
-1.11684e-05
-1.05156e-05
-9.82822e-06
-9.10096e-06
-8.32895e-06
-7.50805e-06
-6.6356e-06
-5.71028e-06
-4.73495e-06
-3.70993e-06
-2.65839e-06
-1.5462e-06
-5.84648e-07
2.68969e-05
2.44355e-05
2.17727e-05
1.89557e-05
1.60375e-05
1.30806e-05
1.0149e-05
7.3006e-06
4.58407e-06
2.0377e-06
-3.10388e-07
-2.44185e-06
-4.34733e-06
-6.02516e-06
-7.47995e-06
-8.72112e-06
-9.76148e-06
-1.06161e-05
-1.13014e-05
-1.18341e-05
-1.2231e-05
-1.25082e-05
-1.26809e-05
-1.27633e-05
-1.27685e-05