/*--------------------------------*- C++ -*----------------------------------*\
| =========                 |                                                 |
| \\      /  F ield         | OpenFOAM: The Open Source CFD Toolbox           |
|  \\    /   O peration     | Version:  2.3.0                                 |
|   \\  /    A nd           | Web:      www.OpenFOAM.org                      |
|    \\/     M anipulation  |                                                 |
\*---------------------------------------------------------------------------*/
FoamFile
{
    version     2.0;
    format      ascii;
    class       surfaceScalarField;
    location    "0.65";
    object      phi_0;
}
// * * * * * * * * * * * * * * * * * * * * * * * * * * * * * * * * * * * * * //

dimensions      [0 3 -1 0 0 0 0];

internalField   nonuniform List<scalar> 
5764
(
1.78527e-08
5.91672e-09
-2.37694e-08
1.25432e-08
5.30942e-09
8.95598e-09
3.58726e-09
6.91057e-09
2.04542e-09
5.84601e-09
1.06455e-09
5.27662e-09
5.69396e-10
4.91317e-09
3.63446e-10
4.62564e-09
2.8753e-10
4.37314e-09
2.52495e-10
4.14817e-09
2.24978e-10
3.94921e-09
1.98956e-10
3.77354e-09
1.75675e-10
3.61746e-09
1.56071e-10
3.47756e-09
1.39906e-10
3.35106e-09
1.26499e-10
3.23585e-09
1.15208e-10
3.13031e-09
1.05547e-10
3.03313e-09
9.71707e-11
2.9433e-09
8.98348e-11
2.85994e-09
8.33589e-11
2.78234e-09
7.76048e-11
2.70987e-09
7.2463e-11
2.64203e-09
6.7845e-11
2.57835e-09
6.3678e-11
2.51845e-09
5.99021e-11
2.46198e-09
5.6467e-11
2.40865e-09
5.33308e-11
2.35819e-09
5.04581e-11
2.31037e-09
4.78187e-11
2.26499e-09
4.53867e-11
2.22185e-09
4.31401e-11
2.18079e-09
4.10596e-11
2.14166e-09
3.91285e-11
2.10433e-09
3.73322e-11
2.06867e-09
3.56579e-11
2.03457e-09
3.40941e-11
2.00194e-09
3.26309e-11
1.97068e-09
3.12592e-11
1.94071e-09
2.9971e-11
1.91195e-09
2.87591e-11
1.88434e-09
2.7617e-11
1.8578e-09
2.65388e-11
1.83228e-09
2.55193e-11
1.80773e-09
2.45536e-11
1.78409e-09
2.36373e-11
1.76132e-09
2.27665e-11
1.73938e-09
2.19375e-11
1.71824e-09
2.11469e-11
1.69785e-09
2.03919e-11
1.67818e-09
1.96696e-11
1.6592e-09
1.89775e-11
1.64088e-09
1.83134e-11
1.62321e-09
1.76753e-11
1.60615e-09
1.70612e-11
1.58968e-09
1.64697e-11
1.57378e-09
1.58993e-11
1.55843e-09
1.53488e-11
1.54361e-09
1.48172e-11
1.52931e-09
1.43039e-11
1.5155e-09
1.38083e-11
1.50217e-09
1.33302e-11
1.4893e-09
1.28697e-11
1.47687e-09
1.24271e-11
1.46487e-09
1.20033e-11
1.45327e-09
1.15997e-11
1.44205e-09
1.1217e-11
1.43119e-09
1.08618e-11
1.42067e-09
1.05226e-11
1.41042e-09
1.02534e-11
1.40053e-09
9.88452e-12
1.39054e-09
9.99291e-12
1.3819e-09
8.63444e-12
1.37028e-09
1.16213e-11
1.37063e-09
-3.52061e-13
1.82278e-11
2.74499e-08
5.94038e-09
-2.74735e-08
2.58757e-08
6.88355e-09
2.34091e-08
6.0539e-09
2.08985e-08
4.55604e-09
1.87472e-08
3.21586e-09
1.70311e-08
2.28549e-09
1.56872e-08
1.70736e-09
1.4621e-08
1.35369e-09
1.37506e-08
1.12289e-09
1.30183e-08
9.57247e-10
1.23873e-08
8.29944e-10
1.18342e-08
7.28801e-10
1.13432e-08
6.47071e-10
1.09031e-08
5.8007e-10
1.05052e-08
5.24315e-10
1.01432e-08
4.77236e-10
9.8118e-09
4.36957e-10
9.50687e-09
4.02102e-10
9.22505e-09
3.7165e-10
8.96358e-09
3.44828e-10
8.72015e-09
3.21037e-10
8.49281e-09
2.99807e-10
8.27989e-09
2.80759e-10
8.07999e-09
2.63584e-10
7.89186e-09
2.48027e-10
7.71445e-09
2.3388e-10
7.54681e-09
2.20966e-10
7.38813e-09
2.09137e-10
7.23768e-09
1.98268e-10
7.09482e-09
1.88252e-10
6.95896e-09
1.78996e-10
6.8296e-09
1.70422e-10
6.70627e-09
1.6246e-10
6.58855e-09
1.55051e-10
6.47607e-09
1.48141e-10
6.36848e-09
1.41684e-10
6.26547e-09
1.35639e-10
6.16676e-09
1.29967e-10
6.07209e-09
1.24638e-10
5.98123e-09
1.19621e-10
5.89396e-09
1.14889e-10
5.81008e-09
1.10418e-10
5.72941e-09
1.06188e-10
5.65179e-09
1.02177e-10
5.57706e-09
9.83689e-11
5.50508e-09
9.47462e-11
5.43572e-09
9.12942e-11
5.36887e-09
8.79992e-11
5.30441e-09
8.48488e-11
5.24225e-09
8.18316e-11
5.18229e-09
7.8937e-11
5.12445e-09
7.61556e-11
5.06864e-09
7.34788e-11
5.01481e-09
7.08989e-11
4.96287e-09
6.84088e-11
4.91276e-09
6.60026e-11
4.86444e-09
6.36748e-11
4.81783e-09
6.14211e-11
4.7729e-09
5.92379e-11
4.72959e-09
5.71226e-11
4.68784e-09
5.50734e-11
4.64762e-09
5.309e-11
4.60888e-09
5.1173e-11
4.57156e-09
4.93246e-11
4.53561e-09
4.75489e-11
4.50097e-09
4.58511e-11
4.46759e-09
4.42422e-11
4.43539e-09
4.27213e-11
4.4043e-09
4.13482e-11
4.37424e-09
3.99476e-11
4.34499e-09
3.92349e-11
4.31726e-09
3.63675e-11
4.28828e-09
4.06053e-11
4.27279e-09
1.51386e-11
5.32768e-11
2.89171e-08
5.18723e-09
-2.8164e-08
2.94856e-08
6.31513e-09
2.93172e-08
6.22224e-09
2.84923e-08
5.38095e-09
2.731e-08
4.39813e-09
2.6018e-08
3.57755e-09
2.47552e-08
2.97016e-09
2.35804e-08
2.52849e-09
2.25085e-08
2.19479e-09
2.1536e-08
1.92974e-09
2.06537e-08
1.71219e-09
1.98517e-08
1.53085e-09
1.91203e-08
1.37846e-09
1.8451e-08
1.24941e-09
1.78361e-08
1.13919e-09
1.72691e-08
1.04421e-09
1.67444e-08
9.61668e-10
1.62572e-08
8.89363e-10
1.58032e-08
8.25568e-10
1.53791e-08
7.68915e-10
1.49819e-08
7.18311e-10
1.46088e-08
6.7287e-10
1.42577e-08
6.31871e-10
1.39266e-08
5.94716e-10
1.36137e-08
5.60909e-10
1.33175e-08
5.30036e-10
1.30367e-08
5.01747e-10
1.27701e-08
4.75743e-10
1.25166e-08
4.51772e-10
1.22753e-08
4.29614e-10
1.20452e-08
4.09082e-10
1.18256e-08
3.90011e-10
1.16158e-08
3.72258e-10
1.14152e-08
3.55697e-10
1.12231e-08
3.40219e-10
1.1039e-08
3.25723e-10
1.08626e-08
3.12124e-10
1.06932e-08
2.99342e-10
1.05305e-08
2.87309e-10
1.03742e-08
2.7596e-10
1.02238e-08
2.65239e-10
1.00791e-08
2.55094e-10
9.93986e-09
2.45479e-10
9.80568e-09
2.36349e-10
9.67638e-09
2.27668e-10
9.55173e-09
2.19397e-10
9.43152e-09
2.11506e-10
9.31556e-09
2.03963e-10
9.20366e-09
1.96742e-10
9.09568e-09
1.89816e-10
8.99145e-09
1.83163e-10
8.89085e-09
1.76761e-10
8.79374e-09
1.70591e-10
8.7e-09
1.64635e-10
8.60953e-09
1.58878e-10
8.52223e-09
1.53305e-10
8.438e-09
1.47903e-10
8.35676e-09
1.42663e-10
8.27842e-09
1.37576e-10
8.20291e-09
1.32634e-10
8.13015e-09
1.27834e-10
8.06007e-09
1.23172e-10
7.99259e-09
1.18649e-10
7.92765e-09
1.14269e-10
7.86516e-09
1.10039e-10
7.80504e-09
1.0597e-10
7.7472e-09
1.02077e-10
7.69154e-09
9.83826e-11
7.63797e-09
9.49218e-11
7.58628e-09
9.16318e-11
7.5365e-09
8.90148e-11
7.48848e-09
8.43909e-11
7.44166e-09
8.74279e-11
7.40437e-09
5.24241e-11
1.01816e-10
2.9475e-08
4.70959e-09
-2.89974e-08
3.015e-08
5.64022e-09
3.06754e-08
5.69678e-09
3.08644e-08
5.19197e-09
3.07178e-08
4.5447e-09
3.03219e-08
3.97343e-09
2.97684e-08
3.52371e-09
2.91247e-08
3.17214e-09
2.8434e-08
2.88549e-09
2.77233e-08
2.64047e-09
2.70104e-08
2.42506e-09
2.63075e-08
2.23378e-09
2.56225e-08
2.06351e-09
2.49602e-08
1.91167e-09
2.43235e-08
1.77591e-09
2.37136e-08
1.65415e-09
2.31306e-08
1.54458e-09
2.25744e-08
1.44565e-09
2.20439e-08
1.35605e-09
2.15382e-08
1.27464e-09
2.1056e-08
1.20045e-09
2.05962e-08
1.13266e-09
2.01576e-08
1.07053e-09
1.97388e-08
1.01345e-09
1.93389e-08
9.60876e-10
1.89566e-08
9.12327e-10
1.85909e-08
8.67396e-10
1.82409e-08
8.25721e-10
1.79057e-08
7.86985e-10
1.75844e-08
7.50909e-10
1.72763e-08
7.17247e-10
1.69805e-08
6.8578e-10
1.66964e-08
6.56315e-10
1.64235e-08
6.28677e-10
1.6161e-08
6.02713e-10
1.59084e-08
5.78282e-10
1.56653e-08
5.55259e-10
1.54311e-08
5.33529e-10
1.52054e-08
5.12991e-10
1.49878e-08
4.93549e-10
1.47779e-08
4.75119e-10
1.45754e-08
4.57622e-10
1.43799e-08
4.40985e-10
1.41911e-08
4.25144e-10
1.40087e-08
4.10037e-10
1.38325e-08
3.95607e-10
1.36622e-08
3.81803e-10
1.34976e-08
3.68577e-10
1.33385e-08
3.55884e-10
1.31846e-08
3.43684e-10
1.30358e-08
3.31937e-10
1.2892e-08
3.20611e-10
1.27529e-08
3.09671e-10
1.26185e-08
2.99089e-10
1.24885e-08
2.88838e-10
1.23629e-08
2.78895e-10
1.22416e-08
2.69237e-10
1.21244e-08
2.59846e-10
1.20113e-08
2.50707e-10
1.19021e-08
2.41807e-10
1.17968e-08
2.33139e-10
1.16953e-08
2.24696e-10
1.15974e-08
2.16478e-10
1.15032e-08
2.08489e-10
1.14125e-08
2.0074e-10
1.13252e-08
1.93249e-10
1.12413e-08
1.86035e-10
1.11605e-08
1.79147e-10
1.10828e-08
1.72599e-10
1.1008e-08
1.66443e-10
1.09361e-08
1.60946e-10
1.08666e-08
1.53854e-10
1.08e-08
1.5403e-10
1.0739e-08
1.13484e-10
1.65714e-10
3.03172e-08
4.37528e-09
-2.99829e-08
3.0783e-08
5.17442e-09
3.1223e-08
5.25681e-09
3.15449e-08
4.87005e-09
3.17247e-08
4.36495e-09
3.17732e-08
3.92492e-09
3.17119e-08
3.58501e-09
3.15604e-08
3.32362e-09
3.13336e-08
3.11233e-09
3.10434e-08
2.9306e-09
3.07013e-08
2.76716e-09
3.03181e-08
2.61698e-09
2.99038e-08
2.47782e-09
2.94671e-08
2.34839e-09
2.90153e-08
2.22769e-09
2.85545e-08
2.11492e-09
2.80897e-08
2.00944e-09
2.76246e-08
1.9107e-09
2.71625e-08
1.8182e-09
2.67056e-08
1.73151e-09
2.62558e-08
1.65022e-09
2.58145e-08
1.57397e-09
2.53827e-08
1.50239e-09
2.49609e-08
1.43517e-09
2.45498e-08
1.372e-09
2.41496e-08
1.31258e-09
2.37603e-08
1.25666e-09
2.3382e-08
1.20398e-09
2.30147e-08
1.15432e-09
2.26581e-08
1.10746e-09
2.23122e-08
1.0632e-09
2.19766e-08
1.02137e-09
2.16511e-08
9.8179e-10
2.13355e-08
9.44306e-10
2.10294e-08
9.08776e-10
2.07326e-08
8.75064e-10
2.04449e-08
8.43046e-10
2.01658e-08
8.12606e-10
1.98951e-08
7.83638e-10
1.96326e-08
7.5604e-10
1.9378e-08
7.29719e-10
1.91311e-08
7.04588e-10
1.88915e-08
6.80565e-10
1.86591e-08
6.57574e-10
1.84336e-08
6.35542e-10
1.82148e-08
6.14402e-10
1.80025e-08
5.94092e-10
1.77965e-08
5.74552e-10
1.75967e-08
5.55726e-10
1.74028e-08
5.37562e-10
1.72147e-08
5.20012e-10
1.70323e-08
5.0303e-10
1.68554e-08
4.86575e-10
1.66839e-08
4.70606e-10
1.65176e-08
4.55088e-10
1.63565e-08
4.39988e-10
1.62005e-08
4.25278e-10
1.60494e-08
4.10932e-10
1.59032e-08
3.96929e-10
1.57617e-08
3.83251e-10
1.5625e-08
3.69885e-10
1.54929e-08
3.56826e-10
1.53653e-08
3.4407e-10
1.52421e-08
3.31624e-10
1.51234e-08
3.19502e-10
1.50089e-08
3.07729e-10
1.48986e-08
2.96334e-10
1.47923e-08
2.85384e-10
1.46901e-08
2.74892e-10
1.45915e-08
2.64995e-10
1.44967e-08
2.55778e-10
1.4405e-08
2.45517e-10
1.43175e-08
2.41521e-10
1.42317e-08
1.9931e-10
2.46509e-10
3.12758e-08
4.09247e-09
-3.0993e-08
3.16483e-08
4.80192e-09
3.19817e-08
4.92344e-09
3.22252e-08
4.62647e-09
3.23881e-08
4.20204e-09
3.24932e-08
3.81985e-09
3.25568e-08
3.52139e-09
3.25862e-08
3.29429e-09
3.25817e-08
3.11677e-09
3.25414e-08
2.97088e-09
3.24638e-08
2.84479e-09
3.2349e-08
2.73179e-09
3.21987e-08
2.62815e-09
3.20155e-08
2.53157e-09
3.18027e-08
2.44049e-09
3.15638e-08
2.35384e-09
3.13023e-08
2.27092e-09
3.10217e-08
2.19129e-09
3.07253e-08
2.11465e-09
3.0416e-08
2.04081e-09
3.00965e-08
1.96965e-09
2.97694e-08
1.90107e-09
2.94368e-08
1.83502e-09
2.91006e-08
1.77143e-09
2.87623e-08
1.71023e-09
2.84235e-08
1.65137e-09
2.80854e-08
1.59479e-09
2.7749e-08
1.54042e-09
2.74151e-08
1.4882e-09
2.70845e-08
1.43805e-09
2.67578e-08
1.3899e-09
2.64355e-08
1.34367e-09
2.6118e-08
1.29929e-09
2.58056e-08
1.25669e-09
2.54986e-08
1.21579e-09
2.51972e-08
1.1765e-09
2.49014e-08
1.13877e-09
2.46115e-08
1.10251e-09
2.43275e-08
1.06765e-09
2.40494e-08
1.03413e-09
2.37773e-08
1.00187e-09
2.35111e-08
9.70799e-10
2.32508e-08
9.40862e-10
2.29964e-08
9.1199e-10
2.27478e-08
8.84121e-10
2.2505e-08
8.57197e-10
2.22679e-08
8.31159e-10
2.20365e-08
8.05951e-10
2.18107e-08
7.81519e-10
2.15905e-08
7.57813e-10
2.13757e-08
7.34783e-10
2.11664e-08
7.12382e-10
2.09624e-08
6.90567e-10
2.07637e-08
6.69295e-10
2.05702e-08
6.48528e-10
2.0382e-08
6.28231e-10
2.01989e-08
6.08372e-10
2.00209e-08
5.88923e-10
1.9848e-08
5.6986e-10
1.96801e-08
5.51164e-10
1.95171e-08
5.32823e-10
1.93591e-08
5.14828e-10
1.9206e-08
4.97181e-10
1.90577e-08
4.79891e-10
1.89143e-08
4.62978e-10
1.87755e-08
4.46475e-10
1.86414e-08
4.30423e-10
1.85119e-08
4.14906e-10
1.83869e-08
3.99949e-10
1.82661e-08
3.85756e-10
1.81496e-08
3.72266e-10
1.80367e-08
3.58422e-10
1.79289e-08
3.49324e-10
1.78191e-08
3.09101e-10
3.44399e-10
3.22603e-08
3.84716e-09
-3.2015e-08
3.2588e-08
4.47423e-09
3.28812e-08
4.63027e-09
3.30874e-08
4.42029e-09
3.32158e-08
4.07367e-09
3.32945e-08
3.7411e-09
3.3347e-08
3.46894e-09
3.33865e-08
3.2548e-09
3.34178e-08
3.08547e-09
3.34404e-08
2.94827e-09
3.34517e-08
2.83348e-09
3.34489e-08
2.73462e-09
3.34295e-08
2.64749e-09
3.33919e-08
2.56917e-09
3.33349e-08
2.49745e-09
3.32581e-08
2.43064e-09
3.31615e-08
2.36753e-09
3.30456e-08
2.30724e-09
3.29111e-08
2.24911e-09
3.27592e-08
2.19272e-09
3.25911e-08
2.13776e-09
3.24081e-08
2.08403e-09
3.22117e-08
2.03142e-09
3.20033e-08
1.97984e-09
3.17843e-08
1.92925e-09
3.1556e-08
1.87965e-09
3.13198e-08
1.83103e-09
3.10768e-08
1.78341e-09
3.08282e-08
1.73678e-09
3.05751e-08
1.69117e-09
3.03184e-08
1.64659e-09
3.0059e-08
1.60305e-09
2.97978e-08
1.56054e-09
2.95354e-08
1.51909e-09
2.92725e-08
1.47867e-09
2.90097e-08
1.43928e-09
2.87476e-08
1.40091e-09
2.84865e-08
1.36355e-09
2.8227e-08
1.32717e-09
2.79694e-08
1.29176e-09
2.7714e-08
1.25728e-09
2.74611e-08
1.2237e-09
2.72109e-08
1.191e-09
2.69638e-08
1.15915e-09
2.67198e-08
1.1281e-09
2.64792e-08
1.09782e-09
2.62421e-08
1.06828e-09
2.60086e-08
1.03943e-09
2.57788e-08
1.01125e-09
2.5553e-08
9.83683e-10
2.53311e-08
9.56704e-10
2.51132e-08
9.30271e-10
2.48994e-08
9.0435e-10
2.46898e-08
8.78906e-10
2.44844e-08
8.53907e-10
2.42833e-08
8.29323e-10
2.40865e-08
8.05125e-10
2.38942e-08
7.8129e-10
2.37062e-08
7.57799e-10
2.35228e-08
7.34636e-10
2.33438e-08
7.11792e-10
2.31694e-08
6.89265e-10
2.29995e-08
6.67063e-10
2.28342e-08
6.452e-10
2.26734e-08
6.23707e-10
2.25173e-08
6.02628e-10
2.23657e-08
5.82019e-10
2.22186e-08
5.61983e-10
2.2076e-08
5.42561e-10
2.19377e-08
5.24024e-10
2.18038e-08
5.06175e-10
2.16735e-08
4.88784e-10
2.15486e-08
4.74199e-10
2.14184e-08
4.39244e-10
4.57383e-10
3.32675e-08
3.63456e-09
-3.30549e-08
3.35567e-08
4.18505e-09
3.38251e-08
4.36183e-09
3.40205e-08
4.2249e-09
3.41434e-08
3.95077e-09
3.42155e-08
3.66899e-09
3.42579e-08
3.42652e-09
3.42854e-08
3.22735e-09
3.43063e-08
3.06461e-09
3.43241e-08
2.93041e-09
3.43398e-08
2.81775e-09
3.4353e-08
2.72144e-09
3.43627e-08
2.63786e-09
3.43674e-08
2.5644e-09
3.43659e-08
2.49895e-09
3.43568e-08
2.43981e-09
3.43387e-08
2.3856e-09
3.43107e-08
2.33526e-09
3.42718e-08
2.28793e-09
3.42217e-08
2.24291e-09
3.41597e-08
2.1997e-09
3.40859e-08
2.15787e-09
3.40002e-08
2.11713e-09
3.39028e-08
2.07722e-09
3.37941e-08
2.03798e-09
3.36744e-08
1.99928e-09
3.35444e-08
1.96104e-09
3.34046e-08
1.9232e-09
3.32557e-08
1.88573e-09
3.30982e-08
1.84861e-09
3.2933e-08
1.81183e-09
3.27606e-08
1.77541e-09
3.25818e-08
1.73935e-09
3.23972e-08
1.70367e-09
3.22075e-08
1.66838e-09
3.20133e-08
1.6335e-09
3.18152e-08
1.59905e-09
3.16137e-08
1.56503e-09
3.14094e-08
1.53146e-09
3.12028e-08
1.49835e-09
3.09944e-08
1.46569e-09
3.07846e-08
1.43349e-09
3.05738e-08
1.40175e-09
3.03625e-08
1.37046e-09
3.0151e-08
1.33961e-09
2.99397e-08
1.30919e-09
2.97287e-08
1.27919e-09
2.95186e-08
1.2496e-09
2.93094e-08
1.22038e-09
2.91016e-08
1.19154e-09
2.88953e-08
1.16303e-09
2.86907e-08
1.13485e-09
2.84881e-08
1.10697e-09
2.82876e-08
1.07937e-09
2.80895e-08
1.05203e-09
2.78939e-08
1.02493e-09
2.77009e-08
9.98051e-10
2.75108e-08
9.71378e-10
2.73237e-08
9.44902e-10
2.71398e-08
9.18616e-10
2.6959e-08
8.9252e-10
2.67817e-08
8.66621e-10
2.66078e-08
8.40936e-10
2.64375e-08
8.15492e-10
2.62709e-08
7.90329e-10
2.6108e-08
7.65509e-10
2.59489e-08
7.41103e-10
2.57937e-08
7.17238e-10
2.56423e-08
6.93972e-10
2.54946e-08
6.71646e-10
2.53509e-08
6.49932e-10
2.52101e-08
6.29561e-10
2.50745e-08
6.09786e-10
2.49311e-08
5.82701e-10
5.80792e-10
3.43009e-08
3.44887e-09
-3.41152e-08
3.45549e-08
3.93104e-09
3.4799e-08
4.11772e-09
3.49853e-08
4.03854e-09
3.51093e-08
3.82685e-09
3.5186e-08
3.59227e-09
3.5232e-08
3.38046e-09
3.52598e-08
3.19955e-09
3.52775e-08
3.04697e-09
3.52896e-08
2.91825e-09
3.52988e-08
2.80862e-09
3.53062e-08
2.71402e-09
3.53126e-08
2.63149e-09
3.53181e-08
2.55888e-09
3.53226e-08
2.49444e-09
3.53257e-08
2.43673e-09
3.53267e-08
2.38456e-09
3.5325e-08
2.33695e-09
3.53199e-08
2.29309e-09
3.53105e-08
2.25231e-09
3.52961e-08
2.21405e-09
3.52761e-08
2.17784e-09
3.525e-08
2.14328e-09
3.52171e-08
2.11006e-09
3.51772e-08
2.07791e-09
3.51299e-08
2.04659e-09
3.5075e-08
2.01594e-09
3.50124e-08
1.9858e-09
3.49421e-08
1.95606e-09
3.48641e-08
1.92662e-09
3.47785e-08
1.89742e-09
3.46855e-08
1.86841e-09
3.45853e-08
1.83953e-09
3.44782e-08
1.81077e-09
3.43645e-08
1.78211e-09
3.42445e-08
1.75353e-09
3.41185e-08
1.72504e-09
3.39869e-08
1.69662e-09
3.38501e-08
1.66827e-09
3.37084e-08
1.64e-09
3.35623e-08
1.61182e-09
3.34121e-08
1.58371e-09
3.32581e-08
1.55569e-09
3.31008e-08
1.52775e-09
3.29406e-08
1.49989e-09
3.27777e-08
1.4721e-09
3.26125e-08
1.4444e-09
3.24453e-08
1.41676e-09
3.22765e-08
1.38918e-09
3.21064e-08
1.36165e-09
3.19353e-08
1.33416e-09
3.17634e-08
1.3067e-09
3.15911e-08
1.27926e-09
3.14187e-08
1.25183e-09
3.12463e-08
1.22439e-09
3.10743e-08
1.19694e-09
3.09029e-08
1.16947e-09
3.07323e-08
1.14197e-09
3.05628e-08
1.11443e-09
3.03945e-08
1.08688e-09
3.02277e-08
1.0593e-09
3.00626e-08
1.03173e-09
2.98994e-08
1.00418e-09
2.97382e-08
9.76698e-10
2.95792e-08
9.49337e-10
2.94225e-08
9.22173e-10
2.92683e-08
8.95294e-10
2.91167e-08
8.68849e-10
2.89678e-08
8.42918e-10
2.88215e-08
8.17911e-10
2.8678e-08
7.9338e-10
2.85365e-08
7.71066e-10
2.83992e-08
7.47107e-10
2.82525e-08
7.29419e-10
7.07537e-10
3.53612e-08
3.28512e-09
-3.51974e-08
3.55845e-08
3.7077e-09
3.58054e-08
3.8968e-09
3.59814e-08
3.86259e-09
3.61045e-08
3.7037e-09
3.61855e-08
3.51127e-09
3.62374e-08
3.32855e-09
3.62704e-08
3.16658e-09
3.62915e-08
3.02592e-09
3.6305e-08
2.90469e-09
3.63137e-08
2.79992e-09
3.63192e-08
2.70854e-09
3.63226e-08
2.62811e-09
3.63246e-08
2.55682e-09
3.63259e-08
2.49319e-09
3.63266e-08
2.43599e-09
3.6327e-08
2.38422e-09
3.63269e-08
2.33703e-09
3.63263e-08
2.29373e-09
3.63248e-08
2.25376e-09
3.63222e-08
2.21663e-09
3.63181e-08
2.18192e-09
3.63122e-08
2.14927e-09
3.63039e-08
2.11837e-09
3.62928e-08
2.08897e-09
3.62786e-08
2.06082e-09
3.62608e-08
2.03373e-09
3.6239e-08
2.00752e-09
3.62131e-08
1.98202e-09
3.61826e-08
1.95713e-09
3.61473e-08
1.9327e-09
3.6107e-08
1.90866e-09
3.60617e-08
1.88491e-09
3.6011e-08
1.86139e-09
3.59551e-08
1.83802e-09
3.58939e-08
1.81477e-09
3.58274e-08
1.79158e-09
3.57556e-08
1.76842e-09
3.56786e-08
1.74525e-09
3.55965e-08
1.72205e-09
3.55095e-08
1.6988e-09
3.54178e-08
1.67547e-09
3.53214e-08
1.65205e-09
3.52206e-08
1.62852e-09
3.51157e-08
1.60487e-09
3.50067e-08
1.58108e-09
3.4894e-08
1.55713e-09
3.47777e-08
1.53302e-09
3.46581e-08
1.50872e-09
3.45356e-08
1.48423e-09
3.44102e-08
1.45953e-09
3.42823e-08
1.43462e-09
3.41521e-08
1.40947e-09
3.40198e-08
1.38407e-09
3.38858e-08
1.35842e-09
3.37502e-08
1.33251e-09
3.36134e-08
1.30632e-09
3.34755e-08
1.27986e-09
3.33368e-08
1.25314e-09
3.31975e-08
1.22615e-09
3.30579e-08
1.19891e-09
3.29182e-08
1.17144e-09
3.27786e-08
1.14378e-09
3.26393e-08
1.11598e-09
3.25006e-08
1.0881e-09
3.23625e-08
1.06022e-09
3.22253e-08
1.03246e-09
3.20892e-08
1.00498e-09
3.19542e-08
9.77875e-10
3.18205e-08
9.51625e-10
3.16882e-08
9.25677e-10
3.15566e-08
9.02725e-10
3.14275e-08
8.76139e-10
3.1289e-08
8.67988e-10
8.29233e-10
3.64491e-08
3.13941e-09
-3.63034e-08
3.66462e-08
3.51067e-09
3.68458e-08
3.69712e-09
3.7011e-08
3.69744e-09
3.71318e-08
3.58291e-09
3.72152e-08
3.42786e-09
3.72715e-08
3.27223e-09
3.73092e-08
3.12888e-09
3.73344e-08
3.0007e-09
3.73513e-08
2.8878e-09
3.73625e-08
2.78878e-09
3.73695e-08
2.70151e-09
3.73735e-08
2.62406e-09
3.73754e-08
2.55491e-09
3.73758e-08
2.49281e-09
3.73751e-08
2.43668e-09
3.73737e-08
2.38563e-09
3.73718e-08
2.33891e-09
3.73696e-08
2.29593e-09
3.73672e-08
2.25617e-09
3.73646e-08
2.21922e-09
3.73619e-08
2.18471e-09
3.73588e-08
2.15235e-09
3.73553e-08
2.12186e-09
3.73512e-08
2.09304e-09
3.73464e-08
2.06566e-09
3.73406e-08
2.03956e-09
3.73335e-08
2.01459e-09
3.73249e-08
1.99059e-09
3.73146e-08
1.96744e-09
3.73023e-08
1.94502e-09
3.72877e-08
1.92324e-09
3.72706e-08
1.902e-09
3.72508e-08
1.8812e-09
3.72281e-08
1.86078e-09
3.72022e-08
1.84065e-09
3.7173e-08
1.82076e-09
3.71404e-08
1.80105e-09
3.71042e-08
1.78145e-09
3.70643e-08
1.76192e-09
3.70207e-08
1.74241e-09
3.69733e-08
1.72287e-09
3.69221e-08
1.70327e-09
3.6867e-08
1.68357e-09
3.68082e-08
1.66372e-09
3.67455e-08
1.6437e-09
3.66792e-08
1.62347e-09
3.66092e-08
1.603e-09
3.65357e-08
1.58227e-09
3.64587e-08
1.56123e-09
3.63783e-08
1.53987e-09
3.62948e-08
1.51817e-09
3.62082e-08
1.49609e-09
3.61186e-08
1.47361e-09
3.60263e-08
1.45072e-09
3.59314e-08
1.4274e-09
3.58341e-08
1.40363e-09
3.57346e-08
1.37941e-09
3.5633e-08
1.35474e-09
3.55295e-08
1.32962e-09
3.54243e-08
1.30405e-09
3.53177e-08
1.27807e-09
3.52098e-08
1.25171e-09
3.51008e-08
1.22501e-09
3.49908e-08
1.19805e-09
3.48801e-08
1.17092e-09
3.47688e-08
1.14372e-09
3.46572e-08
1.11665e-09
3.45452e-08
1.08982e-09
3.44331e-08
1.06374e-09
3.4321e-08
1.03781e-09
3.42082e-08
1.01548e-09
3.40963e-08
9.88063e-10
3.39761e-08
9.88165e-10
9.37959e-10
3.75656e-08
3.00869e-09
-3.74349e-08
3.77401e-08
3.33616e-09
3.79205e-08
3.51672e-09
3.8075e-08
3.54302e-09
3.81925e-08
3.4654e-09
3.8277e-08
3.34332e-09
3.83365e-08
3.21271e-09
3.8378e-08
3.08741e-09
3.84068e-08
2.97191e-09
3.84268e-08
2.86783e-09
3.84405e-08
2.77505e-09
3.84497e-08
2.69234e-09
3.84554e-08
2.6183e-09
3.84586e-08
2.55171e-09
3.84599e-08
2.49155e-09
3.84597e-08
2.4369e-09
3.84583e-08
2.38697e-09
3.84561e-08
2.3411e-09
3.84533e-08
2.29873e-09
3.84501e-08
2.25941e-09
3.84465e-08
2.22275e-09
3.84428e-08
2.18843e-09
3.8439e-08
2.15618e-09
3.84351e-08
2.12576e-09
3.84311e-08
2.09698e-09
3.84271e-08
2.06967e-09
3.8423e-08
2.04366e-09
3.84188e-08
2.01884e-09
3.84143e-08
1.99508e-09
3.84094e-08
1.97228e-09
3.84041e-08
1.95034e-09
3.83982e-08
1.92917e-09
3.83915e-08
1.90869e-09
3.83839e-08
1.88881e-09
3.83752e-08
1.86948e-09
3.83652e-08
1.85061e-09
3.83538e-08
1.83215e-09
3.83408e-08
1.81403e-09
3.83261e-08
1.79618e-09
3.83095e-08
1.77856e-09
3.82908e-08
1.76111e-09
3.82699e-08
1.74377e-09
3.82467e-08
1.72649e-09
3.8221e-08
1.70922e-09
3.81928e-08
1.6919e-09
3.8162e-08
1.6745e-09
3.81285e-08
1.65696e-09
3.80923e-08
1.63923e-09
3.80533e-08
1.62128e-09
3.80115e-08
1.60306e-09
3.79668e-08
1.58453e-09
3.79193e-08
1.56564e-09
3.7869e-08
1.54637e-09
3.7816e-08
1.52667e-09
3.77602e-08
1.50652e-09
3.77017e-08
1.48588e-09
3.76406e-08
1.46473e-09
3.7577e-08
1.44305e-09
3.75109e-08
1.42083e-09
3.74424e-08
1.39807e-09
3.73717e-08
1.37476e-09
3.72989e-08
1.35092e-09
3.7224e-08
1.32659e-09
3.71472e-08
1.3018e-09
3.70686e-08
1.27663e-09
3.69884e-08
1.25115e-09
3.69066e-08
1.2255e-09
3.68234e-08
1.19986e-09
3.67389e-08
1.17434e-09
3.66531e-08
1.14951e-09
3.65662e-08
1.12473e-09
3.64777e-08
1.10393e-09
3.63885e-08
1.07734e-09
3.62933e-08
1.08331e-09
1.02806e-09
3.87117e-08
2.89063e-09
-3.85936e-08
3.88669e-08
3.1809e-09
3.90299e-08
3.3537e-09
3.91739e-08
3.39909e-09
3.92874e-08
3.35183e-09
3.93721e-08
3.25859e-09
3.94339e-08
3.15092e-09
3.94785e-08
3.04288e-09
3.95103e-08
2.94006e-09
3.9533e-08
2.84513e-09
3.95491e-08
2.75897e-09
3.95602e-08
2.68118e-09
3.95677e-08
2.61085e-09
3.95723e-08
2.54709e-09
3.95748e-08
2.48911e-09
3.95755e-08
2.43615e-09
3.95749e-08
2.38755e-09
3.95733e-08
2.34273e-09
3.95708e-08
2.30118e-09
3.95677e-08
2.2625e-09
3.95642e-08
2.22633e-09
3.95602e-08
2.19238e-09
3.9556e-08
2.16038e-09
3.95517e-08
2.13013e-09
3.95472e-08
2.10144e-09
3.95427e-08
2.07416e-09
3.95382e-08
2.04815e-09
3.95338e-08
2.02329e-09
3.95294e-08
1.99949e-09
3.9525e-08
1.97664e-09
3.95207e-08
1.95467e-09
3.95164e-08
1.9335e-09
3.9512e-08
1.91307e-09
3.95075e-08
1.8933e-09
3.95028e-08
1.87414e-09
3.94979e-08
1.85553e-09
3.94927e-08
1.83741e-09
3.9487e-08
1.81973e-09
3.94807e-08
1.80243e-09
3.94738e-08
1.78547e-09
3.94661e-08
1.76879e-09
3.94576e-08
1.75234e-09
3.9448e-08
1.73606e-09
3.94373e-08
1.71991e-09
3.94253e-08
1.70384e-09
3.94121e-08
1.68778e-09
3.93973e-08
1.6717e-09
3.9381e-08
1.65554e-09
3.93631e-08
1.63924e-09
3.93434e-08
1.62276e-09
3.93218e-08
1.60605e-09
3.92984e-08
1.58906e-09
3.9273e-08
1.57175e-09
3.92456e-08
1.55406e-09
3.92162e-08
1.53596e-09
3.91847e-08
1.51742e-09
3.9151e-08
1.49838e-09
3.91152e-08
1.47884e-09
3.90773e-08
1.45876e-09
3.90372e-08
1.43812e-09
3.89951e-08
1.41694e-09
3.89508e-08
1.3952e-09
3.89044e-08
1.37293e-09
3.88561e-08
1.35018e-09
3.88057e-08
1.327e-09
3.87534e-08
1.30348e-09
3.86991e-08
1.27973e-09
3.86431e-08
1.25593e-09
3.85852e-08
1.23222e-09
3.85255e-08
1.20918e-09
3.84641e-08
1.18617e-09
3.84007e-08
1.16732e-09
3.83353e-08
1.14274e-09
3.82669e-08
1.1517e-09
1.09729e-09
3.98883e-08
2.78339e-09
-3.97811e-08
4.00271e-08
3.04212e-09
4.01745e-08
3.20627e-09
4.03083e-08
3.26532e-09
4.04174e-08
3.24273e-09
4.05015e-08
3.17448e-09
4.05648e-08
3.08763e-09
4.06118e-08
2.99593e-09
4.06462e-08
2.90558e-09
4.06714e-08
2.81997e-09
4.06896e-08
2.74073e-09
4.07027e-08
2.66815e-09
4.07117e-08
2.60181e-09
4.07177e-08
2.54112e-09
4.07213e-08
2.48552e-09
4.0723e-08
2.43444e-09
4.07232e-08
2.38732e-09
4.07223e-08
2.34367e-09
4.07204e-08
2.30306e-09
4.07178e-08
2.26513e-09
4.07146e-08
2.22955e-09
4.07109e-08
2.19606e-09
4.07068e-08
2.16442e-09
4.07025e-08
2.13443e-09
4.0698e-08
2.10594e-09
4.06934e-08
2.07878e-09
4.06887e-08
2.05283e-09
4.0684e-08
2.02799e-09
4.06794e-08
2.00416e-09
4.06747e-08
1.98126e-09
4.06702e-08
1.95921e-09
4.06658e-08
1.93794e-09
4.06615e-08
1.91739e-09
4.06572e-08
1.89752e-09
4.06531e-08
1.87825e-09
4.06491e-08
1.85956e-09
4.06451e-08
1.84138e-09
4.06412e-08
1.82367e-09
4.06372e-08
1.80638e-09
4.06332e-08
1.78948e-09
4.06291e-08
1.77291e-09
4.06248e-08
1.75663e-09
4.06203e-08
1.7406e-09
4.06154e-08
1.72476e-09
4.06102e-08
1.70907e-09
4.06045e-08
1.69348e-09
4.05983e-08
1.67795e-09
4.05914e-08
1.66242e-09
4.05838e-08
1.64684e-09
4.05754e-08
1.63116e-09
4.05661e-08
1.61534e-09
4.05558e-08
1.59933e-09
4.05445e-08
1.58307e-09
4.0532e-08
1.56652e-09
4.05184e-08
1.54963e-09
4.05034e-08
1.53237e-09
4.04871e-08
1.51469e-09
4.04694e-08
1.49656e-09
4.04502e-08
1.47795e-09
4.04295e-08
1.45884e-09
4.04072e-08
1.43922e-09
4.03833e-08
1.4191e-09
4.03577e-08
1.39849e-09
4.03305e-08
1.37741e-09
4.03016e-08
1.35594e-09
4.02709e-08
1.33415e-09
4.02385e-08
1.31215e-09
4.02043e-08
1.29012e-09
4.01683e-08
1.2682e-09
4.01305e-08
1.24697e-09
4.00908e-08
1.22587e-09
4.00492e-08
1.20889e-09
4.00051e-08
1.18692e-09
3.99606e-08
1.19619e-09
1.14679e-09
4.10967e-08
2.68555e-09
-4.09989e-08
4.12214e-08
2.9175e-09
4.13549e-08
3.07274e-09
4.1479e-08
3.14125e-09
4.15832e-08
3.13847e-09
4.1666e-08
3.09166e-09
4.17301e-08
3.02357e-09
4.17789e-08
2.94713e-09
4.18156e-08
2.86888e-09
4.1843e-08
2.7926e-09
4.18632e-08
2.72048e-09
4.1878e-08
2.65335e-09
4.18886e-08
2.59123e-09
4.18959e-08
2.53384e-09
4.19006e-08
2.48083e-09
4.19032e-08
2.43178e-09
4.19043e-08
2.38629e-09
4.1904e-08
2.34393e-09
4.19027e-08
2.30436e-09
4.19006e-08
2.26726e-09
4.18978e-08
2.23235e-09
4.18944e-08
2.19938e-09
4.18907e-08
2.16816e-09
4.18866e-08
2.1385e-09
4.18823e-08
2.11024e-09
4.18778e-08
2.08326e-09
4.18732e-08
2.05743e-09
4.18686e-08
2.03266e-09
4.18639e-08
2.00886e-09
4.18592e-08
1.98594e-09
4.18546e-08
1.96384e-09
4.185e-08
1.9425e-09
4.18455e-08
1.92186e-09
4.18412e-08
1.90187e-09
4.1837e-08
1.88248e-09
4.18329e-08
1.86364e-09
4.18289e-08
1.84532e-09
4.18251e-08
1.82746e-09
4.18215e-08
1.81004e-09
4.1818e-08
1.79301e-09
4.18145e-08
1.77632e-09
4.18112e-08
1.75995e-09
4.1808e-08
1.74384e-09
4.18048e-08
1.72796e-09
4.18016e-08
1.71226e-09
4.17984e-08
1.69671e-09
4.17951e-08
1.68125e-09
4.17916e-08
1.66584e-09
4.1788e-08
1.65043e-09
4.17842e-08
1.63499e-09
4.17801e-08
1.61946e-09
4.17756e-08
1.60379e-09
4.17708e-08
1.58794e-09
4.17654e-08
1.57187e-09
4.17595e-08
1.55553e-09
4.1753e-08
1.53888e-09
4.17458e-08
1.52188e-09
4.17379e-08
1.5045e-09
4.17291e-08
1.48671e-09
4.17195e-08
1.46849e-09
4.17089e-08
1.44983e-09
4.16973e-08
1.43073e-09
4.16845e-08
1.4112e-09
4.16707e-08
1.39129e-09
4.16556e-08
1.37103e-09
4.16392e-08
1.35051e-09
4.16215e-08
1.32985e-09
4.16024e-08
1.30922e-09
4.15818e-08
1.28877e-09
4.15598e-08
1.26905e-09
4.1536e-08
1.24965e-09
4.15107e-08
1.23415e-09
4.14828e-08
1.21482e-09
4.14565e-08
1.2225e-09
1.18016e-09
4.23381e-08
2.59595e-09
-4.22485e-08
4.24505e-08
2.80511e-09
4.25716e-08
2.95158e-09
4.26865e-08
3.02635e-09
4.27857e-08
3.03929e-09
4.28667e-08
3.01071e-09
4.29309e-08
2.95936e-09
4.29809e-08
2.89706e-09
4.30194e-08
2.83038e-09
4.30487e-08
2.76331e-09
4.30708e-08
2.69839e-09
4.30873e-08
2.63688e-09
4.30993e-08
2.57918e-09
4.31079e-08
2.52528e-09
4.31137e-08
2.47503e-09
4.31173e-08
2.42819e-09
4.31191e-08
2.38446e-09
4.31195e-08
2.34352e-09
4.31188e-08
2.30509e-09
4.31172e-08
2.2689e-09
4.31148e-08
2.23472e-09
4.31118e-08
2.20235e-09
4.31084e-08
2.1716e-09
4.31046e-08
2.1423e-09
4.31005e-08
2.11433e-09
4.30962e-08
2.08755e-09
4.30918e-08
2.06187e-09
4.30872e-08
2.0372e-09
4.30826e-08
2.01345e-09
4.3078e-08
1.99054e-09
4.30735e-08
1.96843e-09
4.30689e-08
1.94704e-09
4.30645e-08
1.92633e-09
4.30601e-08
1.90624e-09
4.30558e-08
1.88674e-09
4.30517e-08
1.86778e-09
4.30477e-08
1.84932e-09
4.30438e-08
1.83133e-09
4.30401e-08
1.81375e-09
4.30365e-08
1.79656e-09
4.30331e-08
1.77972e-09
4.30299e-08
1.76319e-09
4.30268e-08
1.74693e-09
4.30239e-08
1.73091e-09
4.30211e-08
1.71508e-09
4.30184e-08
1.6994e-09
4.30158e-08
1.68384e-09
4.30133e-08
1.66835e-09
4.30108e-08
1.65289e-09
4.30084e-08
1.63741e-09
4.3006e-08
1.62188e-09
4.30035e-08
1.60625e-09
4.3001e-08
1.59047e-09
4.29983e-08
1.57451e-09
4.29955e-08
1.55833e-09
4.29925e-08
1.54189e-09
4.29892e-08
1.52515e-09
4.29857e-08
1.50808e-09
4.29817e-08
1.49066e-09
4.29773e-08
1.47286e-09
4.29725e-08
1.45469e-09
4.29671e-08
1.43615e-09
4.2961e-08
1.41724e-09
4.29543e-08
1.39801e-09
4.29468e-08
1.37851e-09
4.29385e-08
1.35883e-09
4.29293e-08
1.33907e-09
4.29191e-08
1.31942e-09
4.29078e-08
1.30004e-09
4.28954e-08
1.28144e-09
4.28817e-08
1.26336e-09
4.2867e-08
1.24891e-09
4.28499e-08
1.23189e-09
4.28354e-08
1.23699e-09
1.20188e-09
4.36135e-08
2.51366e-09
-4.35312e-08
4.37153e-08
2.70335e-09
4.38254e-08
2.84143e-09
4.39317e-08
2.92007e-09
4.40257e-08
2.94531e-09
4.41043e-08
2.93209e-09
4.41681e-08
2.89554e-09
4.4219e-08
2.84623e-09
4.42589e-08
2.79049e-09
4.42898e-08
2.73239e-09
4.43135e-08
2.67466e-09
4.43315e-08
2.61888e-09
4.43449e-08
2.56574e-09
4.43547e-08
2.51549e-09
4.43616e-08
2.46817e-09
4.43661e-08
2.42367e-09
4.43688e-08
2.38183e-09
4.43699e-08
2.34242e-09
4.43697e-08
2.30522e-09
4.43686e-08
2.27004e-09
4.43666e-08
2.23668e-09
4.4364e-08
2.20495e-09
4.43609e-08
2.17472e-09