/*--------------------------------*- C++ -*----------------------------------*\
| =========                 |                                                 |
| \\      /  F ield         | OpenFOAM: The Open Source CFD Toolbox           |
|  \\    /   O peration     | Version:  2.3.0                                 |
|   \\  /    A nd           | Web:      www.OpenFOAM.org                      |
|    \\/     M anipulation  |                                                 |
\*---------------------------------------------------------------------------*/
FoamFile
{
    version     2.0;
    format      ascii;
    class       volVectorField;
    location    "0.65";
    object      U_0;
}
// * * * * * * * * * * * * * * * * * * * * * * * * * * * * * * * * * * * * * //

dimensions      [0 1 -1 0 0 0 0];

internalField   nonuniform List<vector> 
2945
(
(0.149685 0.00850361 0)
(0.105563 0.00731871 0)
(0.0743216 0.0040471 0)
(0.0556098 0.0013575 0)
(0.0453097 0.000142682 0)
(0.0397902 -0.000131211 0)
(0.0365972 -7.41616e-05 0)
(0.0343386 2.11655e-05 0)
(0.0324308 7.26212e-05 0)
(0.0307237 8.52152e-05 0)
(0.0292024 8.04532e-05 0)
(0.0278577 7.1796e-05 0)
(0.0266667 6.39303e-05 0)
(0.0256033 5.75109e-05 0)
(0.0246454 5.22057e-05 0)
(0.0237757 4.76825e-05 0)
(0.0229809 4.37365e-05 0)
(0.0222508 4.02475e-05 0)
(0.0215771 3.714e-05 0)
(0.020953 3.43601e-05 0)
(0.0203728 3.18644e-05 0)
(0.0198317 2.96165e-05 0)
(0.0193258 2.75849e-05 0)
(0.0188515 2.57432e-05 0)
(0.0184057 2.40686e-05 0)
(0.017986 2.25417e-05 0)
(0.0175899 2.11459e-05 0)
(0.0172154 1.98666e-05 0)
(0.0168608 1.86914e-05 0)
(0.0165245 1.76095e-05 0)
(0.016205 1.66114e-05 0)
(0.0159011 1.56889e-05 0)
(0.0156117 1.48347e-05 0)
(0.0153357 1.40423e-05 0)
(0.0150723 1.3306e-05 0)
(0.0148205 1.26207e-05 0)
(0.0145796 1.19819e-05 0)
(0.014349 1.13855e-05 0)
(0.014128 1.08278e-05 0)
(0.0139159 1.03056e-05 0)
(0.0137124 9.81598e-06 0)
(0.0135169 9.35613e-06 0)
(0.0133289 8.92372e-06 0)
(0.0131481 8.51649e-06 0)
(0.0129741 8.13249e-06 0)
(0.0128066 7.7699e-06 0)
(0.0126452 7.4271e-06 0)
(0.0124896 7.10258e-06 0)
(0.0123396 6.79501e-06 0)
(0.0121949 6.50317e-06 0)
(0.0120554 6.22596e-06 0)
(0.0119207 5.96237e-06 0)
(0.0117908 5.71153e-06 0)
(0.0116653 5.47264e-06 0)
(0.0115442 5.24501e-06 0)
(0.0114273 5.02803e-06 0)
(0.0113145 4.82117e-06 0)
(0.0112055 4.62402e-06 0)
(0.0111004 4.43625e-06 0)
(0.0109988 4.25757e-06 0)
(0.0109008 4.08788e-06 0)
(0.0108062 3.92707e-06 0)
(0.0107149 3.77525e-06 0)
(0.0106266 3.63258e-06 0)
(0.0105414 3.49968e-06 0)
(0.010459 3.376e-06 0)
(0.0103793 3.26582e-06 0)
(0.0103022 3.15809e-06 0)
(0.0102269 3.09394e-06 0)
(0.0101551 2.94136e-06 0)
(0.0100807 3.1245e-06 0)
(0.0100204 2.28767e-06 0)
(0.00992921 4.30975e-06 0)
(0.00992052 -2.79446e-06 0)
(0.00981293 8.60458e-06 0)
(0.195293 0.0141375 0)
(0.188845 0.0150648 0)
(0.173397 0.0120874 0)
(0.15531 0.00804465 0)
(0.138624 0.00479621 0)
(0.124924 0.00279105 0)
(0.114244 0.0017591 0)
(0.105932 0.00128118 0)
(0.09927 0.00104598 0)
(0.0937354 0.000897532 0)
(0.0890057 0.000781238 0)
(0.0848846 0.000684146 0)
(0.0812438 0.000603374 0)
(0.0779932 0.000536534 0)
(0.0750656 0.000480889 0)
(0.0724093 0.000433986 0)
(0.0699841 0.000393921 0)
(0.0677575 0.000359295 0)
(0.0657039 0.000329085 0)
(0.0638018 0.000302526 0)
(0.0620337 0.00027903 0)
(0.0603847 0.000258127 0)
(0.0588424 0.000239439 0)
(0.057396 0.000222653 0)
(0.0560362 0.000207514 0)
(0.0547552 0.000193807 0)
(0.0535458 0.000181353 0)
(0.052402 0.00017 0)
(0.0513183 0.000159621 0)
(0.05029 0.000150104 0)
(0.0493128 0.000141357 0)
(0.0483829 0.000133298 0)
(0.0474968 0.000125855 0)
(0.0466515 0.000118968 0)
(0.0458443 0.000112582 0)
(0.0450725 0.000106649 0)
(0.0443339 0.000101127 0)
(0.0436265 9.59779e-05 0)
(0.0429482 9.11692e-05 0)
(0.0422975 8.66706e-05 0)
(0.0416727 8.24553e-05 0)
(0.0410724 7.84992e-05 0)
(0.0404952 7.47805e-05 0)
(0.0399399 7.12797e-05 0)
(0.0394055 6.79789e-05 0)
(0.0388908 6.48623e-05 0)
(0.038395 6.1915e-05 0)
(0.0379172 5.9124e-05 0)
(0.0374565 5.64773e-05 0)
(0.0370123 5.39638e-05 0)
(0.0365839 5.15739e-05 0)
(0.0361706 4.92985e-05 0)
(0.0357719 4.71295e-05 0)
(0.0353872 4.50597e-05 0)
(0.0350161 4.30826e-05 0)
(0.0346581 4.11925e-05 0)
(0.0343127 3.93844e-05 0)
(0.0339796 3.76538e-05 0)
(0.0336585 3.59972e-05 0)
(0.0333488 3.44116e-05 0)
(0.0330504 3.28949e-05 0)
(0.0327628 3.14454e-05 0)
(0.0324858 3.00628e-05 0)
(0.0322189 2.87471e-05 0)
(0.0319618 2.75001e-05 0)
(0.0317142 2.63228e-05 0)
(0.0314756 2.52245e-05 0)
(0.0312457 2.41907e-05 0)
(0.0310231 2.32977e-05 0)
(0.0308106 2.23015e-05 0)
(0.0305968 2.20522e-05 0)
(0.0304126 1.95291e-05 0)
(0.0301733 2.39056e-05 0)
(0.0300929 2.45981e-06 0)
(0.0298002 3.54211e-05 0)
(0.193842 0.0123078 0)
(0.199695 0.0146049 0)
(0.201713 0.0138524 0)
(0.198169 0.0114193 0)
(0.19081 0.00879944 0)
(0.18193 0.00669906 0)
(0.172995 0.00520907 0)
(0.164619 0.00418223 0)
(0.15696 0.00345385 0)
(0.150008 0.00291242 0)
(0.143704 0.002495 0)
(0.13798 0.00216595 0)
(0.132768 0.00190229 0)
(0.128006 0.00168765 0)
(0.12364 0.00151007 0)
(0.119621 0.00136094 0)
(0.115908 0.00123403 0)
(0.112466 0.00112479 0)
(0.109263 0.00102984 0)
(0.106275 0.000946624 0)
(0.10348 0.000873164 0)
(0.100857 0.000807909 0)
(0.0983919 0.000749622 0)
(0.096069 0.000697301 0)
(0.093876 0.000650124 0)
(0.0918019 0.000607414 0)
(0.089837 0.000568606 0)
(0.0879726 0.000533224 0)
(0.086201 0.000500866 0)
(0.0845152 0.000471191 0)
(0.0829092 0.000443902 0)
(0.0813773 0.000418748 0)
(0.0799144 0.000395508 0)
(0.078516 0.000373991 0)
(0.0771779 0.000354027 0)
(0.0758964 0.00033547 0)
(0.0746679 0.000318187 0)
(0.0734894 0.000302063 0)
(0.0723579 0.000286995 0)
(0.0712708 0.000272889 0)
(0.0702256 0.000259664 0)
(0.0692202 0.000247244 0)
(0.0682525 0.000235562 0)
(0.0673205 0.000224557 0)
(0.0664225 0.000214174 0)
(0.065557 0.000204364 0)
(0.0647225 0.00019508 0)
(0.0639175 0.000186283 0)
(0.0631409 0.000177934 0)
(0.0623914 0.000169999 0)
(0.0616681 0.000162447 0)
(0.0609699 0.00015525 0)
(0.060296 0.000148383 0)
(0.0596455 0.000141823 0)
(0.0590176 0.000135548 0)
(0.0584116 0.000129541 0)
(0.0578269 0.000123785 0)
(0.0572628 0.000118265 0)
(0.0567188 0.00011297 0)
(0.0561944 0.00010789 0)
(0.055689 0.000103015 0)
(0.055202 9.83415e-05 0)
(0.0547331 9.3865e-05 0)
(0.0542817 8.9585e-05 0)
(0.0538474 8.55037e-05 0)
(0.0534295 8.16264e-05 0)
(0.0530274 7.79634e-05 0)
(0.0526408 7.45212e-05 0)
(0.0522678 7.13507e-05 0)
(0.0519113 6.82986e-05 0)
(0.0515591 6.60767e-05 0)
(0.0512438 6.14625e-05 0)
(0.0508726 6.53236e-05 0)
(0.050687 3.08364e-05 0)
(0.050216 8.0178e-05 0)
(0.192814 0.0105158 0)
(0.197031 0.0125726 0)
(0.201851 0.0125925 0)
(0.204625 0.0113 0)
(0.204664 0.00966922 0)
(0.202606 0.00821775 0)
(0.199265 0.00706178 0)
(0.195196 0.0061536 0)
(0.190722 0.00541975 0)
(0.186045 0.00480682 0)
(0.181306 0.00428467 0)
(0.1766 0.00383668 0)
(0.171992 0.00345145 0)
(0.167523 0.00311934 0)
(0.163217 0.00283186 0)
(0.159086 0.00258178 0)
(0.155135 0.00236306 0)
(0.151362 0.00217071 0)
(0.147764 0.00200062 0)
(0.144334 0.00184945 0)
(0.141063 0.00171445 0)
(0.137945 0.00159333 0)
(0.134971 0.00148422 0)
(0.132133 0.00138553 0)
(0.129423 0.00129596 0)
(0.126833 0.00121438 0)
(0.124357 0.00113986 0)
(0.121989 0.00107158 0)
(0.11972 0.00100886 0)
(0.117547 0.000951096 0)
(0.115463 0.000897777 0)
(0.113464 0.000848452 0)
(0.111544 0.000802729 0)
(0.1097 0.000760263 0)
(0.107927 0.000720749 0)
(0.106222 0.000683918 0)
(0.10458 0.000649529 0)
(0.103 0.000617367 0)
(0.101477 0.000587242 0)
(0.10001 0.000558981 0)
(0.0985943 0.000532429 0)
(0.0972287 0.000507444 0)
(0.0959107 0.000483901 0)
(0.0946382 0.000461684 0)
(0.0934091 0.000440688 0)
(0.0922217 0.000420818 0)
(0.0910743 0.000401986 0)
(0.0899652 0.000384113 0)
(0.0888931 0.000367126 0)
(0.0878565 0.000350959 0)
(0.0868543 0.000335552 0)
(0.0858852 0.00032085 0)
(0.0849482 0.000306801 0)
(0.0840423 0.00029336 0)
(0.0831666 0.000280486 0)
(0.0823203 0.000268142 0)
(0.0815025 0.000256295 0)
(0.0807125 0.000244916 0)
(0.0799498 0.000233979 0)
(0.0792135 0.000223464 0)
(0.0785032 0.000213353 0)
(0.0778182 0.000203632 0)
(0.0771579 0.000194295 0)
(0.0765219 0.000185337 0)
(0.0759095 0.00017676 0)
(0.0753201 0.000168574 0)
(0.074753 0.00016079 0)
(0.0742077 0.000153439 0)
(0.0736825 0.000146539 0)
(0.0731795 0.000140074 0)
(0.0726877 0.000134464 0)
(0.0722367 0.000126888 0)
(0.071738 0.000127874 0)
(0.0714334 8.4658e-05 0)
(0.0707811 0.000140287 0)
(0.19354 0.00975697 0)
(0.196195 0.0114814 0)
(0.199567 0.011521 0)
(0.20235 0.0105171 0)
(0.203996 0.0092854 0)
(0.204627 0.00822548 0)
(0.204499 0.00739914 0)
(0.203774 0.00674903 0)
(0.202535 0.00620965 0)
(0.200852 0.00573723 0)
(0.198799 0.00530995 0)
(0.196447 0.00491922 0)
(0.193864 0.00456158 0)
(0.191112 0.00423459 0)
(0.188241 0.00393581 0)
(0.185295 0.00366284 0)
(0.182309 0.00341337 0)
(0.17931 0.00318525 0)
(0.176322 0.00297648 0)
(0.17336 0.00278521 0)
(0.17044 0.00260977 0)
(0.16757 0.00244865 0)
(0.164759 0.00230045 0)
(0.162011 0.00216393 0)
(0.15933 0.00203799 0)
(0.156718 0.0019216 0)
(0.154177 0.00181389 0)
(0.151707 0.00171404 0)
(0.149308 0.00162133 0)
(0.146978 0.00153513 0)
(0.144717 0.00145486 0)
(0.142524 0.00138 0)
(0.140397 0.0013101 0)
(0.138334 0.00124473 0)
(0.136334 0.00118352 0)
(0.134394 0.00112613 0)
(0.132514 0.00107225 0)
(0.13069 0.00102161 0)
(0.128921 0.000973956 0)
(0.127206 0.000929049 0)
(0.125542 0.000886682 0)
(0.123928 0.000846662 0)
(0.122363 0.000808812 0)
(0.120844 0.000772971 0)
(0.11937 0.00073899 0)
(0.117941 0.000706732 0)
(0.116554 0.000676071 0)
(0.115208 0.000646891 0)
(0.113902 0.000619086 0)
(0.112635 0.000592557 0)
(0.111406 0.000567214 0)
(0.110214 0.000542973 0)
(0.109058 0.000519759 0)
(0.107937 0.000497502 0)
(0.10685 0.000476138 0)
(0.105797 0.00045561 0)
(0.104776 0.000435867 0)
(0.103788 0.000416863 0)
(0.102831 0.000398557 0)
(0.101906 0.000380917 0)
(0.10101 0.000363914 0)
(0.100145 0.000347527 0)
(0.0993094 0.000331741 0)
(0.0985026 0.00031655 0)
(0.0977243 0.000301954 0)
(0.0969738 0.000287966 0)
(0.0962505 0.000274602 0)
(0.095554 0.000261912 0)
(0.0948826 0.000249898 0)
(0.0942381 0.000238652 0)
(0.0936108 0.000228351 0)
(0.0930265 0.000216721 0)
(0.0924033 0.000212939 0)
(0.0919789 0.000165246 0)
(0.0911453 0.000217948 0)
(0.194324 0.00916054 0)
(0.196444 0.0106792 0)
(0.198956 0.0107826 0)
(0.200975 0.00995486 0)
(0.202256 0.00889546 0)
(0.20301 0.00797631 0)
(0.203476 0.00726869 0)
(0.20375 0.00672862 0)
(0.203831 0.0062984 0)
(0.203694 0.00593479 0)
(0.203325 0.00561181 0)
(0.202721 0.00531614 0)
(0.201888 0.0050412 0)
(0.20084 0.00478327 0)
(0.199596 0.00453998 0)
(0.198177 0.0043098 0)
(0.196607 0.00409172 0)
(0.194906 0.00388504 0)
(0.193097 0.00368923 0)
(0.191198 0.00350384 0)
(0.189228 0.00332842 0)
(0.187202 0.00316258 0)
(0.185136 0.00300587 0)
(0.183042 0.00285787 0)
(0.18093 0.00271815 0)
(0.178811 0.00258627 0)
(0.176693 0.0024618 0)
(0.174582 0.00234432 0)
(0.172485 0.00223343 0)
(0.170406 0.00212873 0)
(0.16835 0.00202986 0)
(0.16632 0.00193644 0)
(0.164319 0.00184815 0)
(0.162349 0.00176466 0)
(0.160412 0.00168568 0)
(0.158509 0.0016109 0)
(0.156642 0.00154008 0)
(0.15481 0.00147294 0)
(0.153016 0.00140927 0)
(0.151258 0.00134883 0)
(0.149538 0.00129141 0)
(0.147854 0.00123683 0)
(0.146208 0.00118489 0)
(0.144599 0.00113543 0)
(0.143026 0.00108829 0)
(0.14149 0.0010433 0)
(0.139989 0.00100034 0)
(0.138525 0.000959274 0)
(0.137095 0.000919972 0)
(0.135701 0.00088232 0)
(0.134341 0.000846211 0)
(0.133015 0.000811547 0)
(0.131722 0.000778233 0)
(0.130463 0.000746184 0)
(0.129237 0.000715321 0)
(0.128044 0.000685572 0)
(0.126883 0.000656872 0)
(0.125754 0.000629164 0)
(0.124657 0.000602395 0)
(0.123591 0.000576524 0)
(0.122557 0.000551512 0)
(0.121553 0.000527334 0)
(0.120581 0.000503969 0)
(0.119638 0.000481411 0)
(0.118726 0.00045966 0)
(0.117844 0.000438734 0)
(0.116991 0.000418655 0)
(0.116167 0.000399493 0)
(0.115371 0.000381246 0)
(0.114604 0.000364089 0)
(0.113858 0.000348012 0)
(0.113155 0.000331404 0)
(0.11242 0.000321331 0)
(0.111886 0.000272988 0)
(0.110885 0.000314745 0)
(0.194961 0.00858905 0)
(0.196756 0.00992287 0)
(0.198882 0.0101228 0)
(0.200578 0.00950249 0)
(0.201605 0.00861611 0)
(0.202157 0.00779953 0)
(0.202491 0.0071432 0)
(0.202746 0.00663042 0)
(0.202959 0.0062238 0)
(0.203126 0.00589048 0)
(0.203233 0.00560672 0)
(0.203262 0.00535732 0)
(0.203197 0.00513279 0)
(0.203026 0.00492674 0)
(0.20274 0.00473463 0)
(0.202333 0.00455326 0)
(0.201806 0.00438046 0)
(0.201159 0.00421476 0)
(0.200396 0.00405522 0)
(0.199524 0.00390124 0)
(0.19855 0.00375243 0)
(0.197481 0.00360859 0)
(0.196326 0.00346957 0)
(0.195094 0.00333528 0)
(0.193793 0.00320567 0)
(0.192432 0.00308067 0)
(0.191019 0.00296023 0)
(0.189561 0.00284427 0)
(0.188066 0.00273274 0)
(0.186541 0.00262552 0)
(0.18499 0.00252253 0)
(0.183421 0.00242365 0)
(0.181838 0.00232876 0)
(0.180246 0.00223774 0)
(0.17865 0.00215046 0)
(0.177052 0.00206677 0)
(0.175457 0.00198653 0)
(0.173867 0.00190962 0)
(0.172285 0.00183588 0)
(0.170713 0.00176517 0)
(0.169154 0.00169737 0)
(0.167609 0.00163232 0)
(0.166081 0.00156989 0)
(0.16457 0.00150996 0)
(0.163078 0.00145239 0)
(0.161605 0.00139707 0)
(0.160154 0.00134387 0)
(0.158724 0.00129267 0)
(0.157317 0.00124337 0)
(0.155932 0.00119587 0)
(0.154572 0.00115005 0)
(0.153236 0.00110583 0)
(0.151924 0.00106311 0)
(0.150638 0.00102181 0)
(0.149377 0.000981856 0)
(0.148143 0.000943168 0)
(0.146934 0.000905683 0)
(0.145752 0.00086934 0)
(0.144596 0.000834088 0)
(0.143468 0.000799881 0)
(0.142367 0.000766684 0)
(0.141294 0.000734468 0)
(0.140248 0.000703219 0)
(0.139229 0.00067293 0)
(0.138239 0.00064361 0)
(0.137276 0.000615286 0)
(0.136341 0.000587991 0)
(0.135434 0.000561813 0)
(0.134554 0.000536762 0)
(0.133702 0.000513084 0)
(0.132872 0.000490607 0)
(0.132083 0.000468557 0)
(0.131263 0.000451191 0)
(0.130645 0.000405712 0)
(0.129512 0.000429958 0)
(0.195509 0.00809083 0)
(0.197024 0.00925906 0)
(0.198851 0.00952631 0)
(0.200374 0.00908425 0)
(0.201339 0.00836284 0)
(0.201858 0.00765486 0)
(0.202139 0.00705694 0)
(0.202318 0.0065701 0)
(0.202452 0.00617306 0)
(0.202563 0.00584418 0)
(0.202661 0.00556571 0)
(0.202747 0.00532487 0)
(0.202816 0.00511294 0)
(0.202861 0.00492361 0)
(0.202872 0.00475193 0)
(0.202843 0.004594 0)
(0.202764 0.00444682 0)
(0.202629 0.00430809 0)
(0.202432 0.00417607 0)
(0.20217 0.00404946 0)
(0.20184 0.00392729 0)
(0.201439 0.00380889 0)
(0.200967 0.00369376 0)
(0.200427 0.00358156 0)
(0.199817 0.00347207 0)
(0.199143 0.00336515 0)
(0.198405 0.00326072 0)
(0.197607 0.00315872 0)
(0.196754 0.00305914 0)
(0.195849 0.00296197 0)
(0.194895 0.00286722 0)
(0.193898 0.00277489 0)
(0.19286 0.00268499 0)
(0.191787 0.00259751 0)
(0.190681 0.00251245 0)
(0.189547 0.00242979 0)
(0.188388 0.00234951 0)
(0.187207 0.00227158 0)
(0.186009 0.00219595 0)
(0.184796 0.0021226 0)
(0.18357 0.00205145 0)
(0.182335 0.00198247 0)
(0.181093 0.0019156 0)
(0.179847 0.00185075 0)
(0.178599 0.00178788 0)
(0.17735 0.00172691 0)
(0.176103 0.00166777 0)
(0.17486 0.00161038 0)
(0.173622 0.00155468 0)
(0.172391 0.0015006 0)
(0.171168 0.00144805 0)
(0.169955 0.00139698 0)
(0.168753 0.00134731 0)
(0.167563 0.00129899 0)
(0.166387 0.00125194 0)
(0.165224 0.00120612 0)
(0.164077 0.00116147 0)
(0.162947 0.00111794 0)
(0.161833 0.00107549 0)
(0.160738 0.00103409 0)
(0.159661 0.000993711 0)
(0.158604 0.000954337 0)
(0.157568 0.000915962 0)
(0.156552 0.000878594 0)
(0.155557 0.000842255 0)
(0.154585 0.000806987 0)
(0.153634 0.000772841 0)
(0.152707 0.000739928 0)
(0.151801 0.000708279 0)
(0.15092 0.000678212 0)
(0.150057 0.000649402 0)
(0.14923 0.000622087 0)
(0.148372 0.000597183 0)
(0.147709 0.000557591 0)
(0.146503 0.000560002 0)
(0.195991 0.00766155 0)
(0.197274 0.00868244 0)
(0.198836 0.00898654 0)
(0.200196 0.00868403 0)
(0.201119 0.00810543 0)
(0.201658 0.00750171 0)
(0.201965 0.00696891 0)
(0.202152 0.00651861 0)
(0.202273 0.00614006 0)
(0.202353 0.00581978 0)
(0.202411 0.00554513 0)
(0.202456 0.00530605 0)
(0.202495 0.0050954 0)
(0.202529 0.00490792 0)
(0.202558 0.00473941 0)
(0.20258 0.00458642 0)
(0.202593 0.00444611 0)
(0.202592 0.00431622 0)
(0.202573 0.00419488 0)
(0.202533 0.00408057 0)
(0.202465 0.00397205 0)
(0.202368 0.00386833 0)
(0.202236 0.00376859 0)
(0.202068 0.0036722 0)
(0.201859 0.00357866 0)
(0.201609 0.00348755 0)
(0.201317 0.00339858 0)
(0.20098 0.00331152 0)
(0.200598 0.0032262 0)
(0.200173 0.00314249 0)
(0.199703 0.00306031 0)
(0.199191 0.0029796 0)
(0.198637 0.00290032 0)
(0.198042 0.00282246 0)
(0.197408 0.00274601 0)
(0.196737 0.00267096 0)
(0.196031 0.0025973 0)
(0.195292 0.00252505 0)
(0.194522 0.0024542 0)
(0.193723 0.00238475 0)
(0.192897 0.0023167 0)
(0.192046 0.00225003 0)
(0.191174 0.00218473 0)
(0.190281 0.00212079 0)
(0.18937 0.00205819 0)
(0.188442 0.0019969 0)
(0.187501 0.0019369 0)
(0.186547 0.00187815 0)
(0.185584 0.00182062 0)
(0.184611 0.00176428 0)
(0.183633 0.00170909 0)
(0.182649 0.00165502 0)
(0.181661 0.00160202 0)
(0.180673 0.00155006 0)
(0.179683 0.00149911 0)
(0.178696 0.00144913 0)
(0.177711 0.00140009 0)
(0.17673 0.00135197 0)
(0.175754 0.00130474 0)
(0.174785 0.0012584 0)
(0.173824 0.00121293 0)
(0.172872 0.00116833 0)
(0.171931 0.00112463 0)
(0.171 0.00108183 0)
(0.170082 0.00104 0)
(0.169176 0.000999183 0)
(0.168285 0.000959465 0)
(0.167408 0.000920981 0)
(0.166546 0.000883789 0)
(0.1657 0.000848286 0)
(0.164866 0.000813999 0)
(0.164061 0.000782293 0)
(0.163222 0.000750515 0)
(0.162563 0.000718988 0)
(0.161364 0.000698236 0)
(0.196414 0.00728491 0)
(0.197509 0.00817486 0)
(0.198844 0.00849534 0)
(0.20005 0.00830281 0)
(0.200919 0.0078464 0)
(0.201465 0.00733716 0)
(0.2018 0.00686759 0)
(0.202016 0.0064569 0)
(0.202157 0.00610216 0)
(0.202249 0.00579607 0)
(0.202307 0.00553006 0)
(0.202344 0.00529624 0)
(0.202367 0.00508861 0)
(0.202381 0.0049027 0)
(0.20239 0.00473496 0)
(0.202395 0.00458246 0)
(0.202398 0.0044428 0)
(0.202399 0.004314 0)
(0.202397 0.00419446 0)
(0.202391 0.00408281 0)
(0.20238 0.00397792 0)
(0.202362 0.00387881 0)
(0.202335 0.00378467 0)
(0.202296 0.00369479 0)
(0.202242 0.00360859 0)
(0.202172 0.00352556 0)
(0.202084 0.00344526 0)
(0.201974 0.00336735 0)
(0.201841 0.00329151 0)
(0.201684 0.00321749 0)
(0.201501 0.00314509 0)
(0.201291 0.00307414 0)
(0.201053 0.0030045 0)
(0.200785 0.00293606 0)
(0.200489 0.00286873 0)
(0.200162 0.00280244 0)
(0.199806 0.00273713 0)
(0.199421 0.00267277 0)
(0.199006 0.00260931 0)
(0.198563 0.00254673 0)
(0.198091 0.002485 0)
(0.197593 0.00242411 0)
(0.197069 0.00236405 0)
(0.196519 0.00230479 0)
(0.195946 0.00224631 0)
(0.195349 0.00218862 0)
(0.194731 0.00213168 0)
(0.194093 0.00207549 0)
(0.193436 0.00202002 0)
(0.192761 0.00196527 0)
(0.19207 0.0019112 0)
(0.191364 0.00185781 0)
(0.190644 0.00180507 0)
(0.189913 0.00175297 0)
(0.189171 0.00170149 0)
(0.188419 0.00165062 0)
(0.18766 0.00160035 0)
(0.186894 0.00155067 0)
(0.186123 0.00150158 0)
(0.185349 0.00145308 0)
(0.184571 0.00140518 0)
(0.183793 0.00135791 0)
(0.183015 0.0013113 0)
(0.182237 0.00126539 0)
(0.181463 0.00122025 0)
(0.180691 0.00117596 0)
(0.179924 0.00113263 0)
(0.179163 0.00109043 0)
(0.178407 0.00104943 0)
(0.177659 0.00101012 0)
(0.176915 0.000971894 0)
(0.176191 0.00093724 0)
(0.175429 0.000900119 0)
(0.174826 0.00087762 0)
(0.173717 0.00083568 0)
(0.196786 0.00695067 0)
(0.197727 0.00772689 0)
(0.198872 0.0080507 0)
(0.199939 0.00794441 0)
(0.200747 0.00759164 0)
(0.201287 0.00716654 0)
(0.201639 0.00675593 0)
(0.201876 0.00638446 0)
(0.202038 0.00605515 0)
(0.202147 0.00576559 0)
(0.202219 0.00551071 0)
(0.202266 0.00528463 0)
(0.202294 0.00508238 0)
(0.202309 0.00490012 0)
(0.202314 0.00473478 0)
(0.202313 0.00458377 0)
(0.202307 0.00444495 0)
(0.202298 0.0043166 0)
(0.202286 0.00419728 0)
(0.202274 0.00408582 0)
(0.20226 0.00398123 0)
(0.202246 0.00388266 0)
(0.20223 0.0037894 0)
(0.202212 0.00370084 0)
(0.202192 0.00361643 0)
(0.202168 0.00353572 0)
(0.20214 0.00345827 0)
(0.202105 0.00338374 0)
(0.202063 0.0033118 0)
(0.202012 0.00324217 0)
(0.201951 0.00317459 0)
(0.201879 0.00310885 0)
(0.201794 0.00304475 0)
(0.201694 0.00298212 0)
(0.201579 0.00292081 0)
(0.201447 0.00286068 0)
(0.201299 0.00280163 0)
(0.201131 0.00274355 0)
(0.200945 0.00268636 0)
(0.200739 0.00262997 0)
(0.200514 0.00257432 0)
(0.200267 0.00251935 0)
(0.2 0.00246501 0)
(0.199713 0.00241124 0)
(0.199404 0.00235801 0)
(0.199075 0.00230528 0)
(0.198726 0.00225301 0)
(0.198357 0.00220118 0)
(0.197968 0.00214975 0)
(0.197561 0.00209869 0)
(0.197135 0.00204798 0)
(0.196691 0.00199761 0)
(0.19623 0.00194755 0)
(0.195753 0.00189778 0)
(0.195261 0.00184829 0)
(0.194754 0.00179907 0)
(0.194233 0.00175011 0)
(0.1937 0.00170142 0)
(0.193156 0.00165299 0)
(0.1926 0.00160485 0)
(0.192035 0.00155701 0)
(0.191462 0.00150951 0)
(0.190881 0.0014624 0)
(0.190294 0.00141572 0)
(0.189701 0.00136957 0)
(0.189103 0.00132404 0)
(0.188502 0.00127927 0)
(0.187899 0.00123544 0)
(0.187293 0.00119265 0)
(0.186687 0.00115147 0)
(0.186078 0.0011112 0)
(0.185478 0.00107529 0)
(0.18484 0.00103495 0)
(0.184333 0.00102102 0)
(0.183384 0.000962768 0)
(0.197114 0.00665183 0)
(0.197928 0.00733079 0)
(0.198915 0.00764921 0)
(0.199856 0.0076091 0)
(0.200603 0.00734317 0)
(0.201129 0.00699258 0)
(0.201489 0.00663675 0)
(0.20174 0.00630358 0)
(0.201917 0.00600043 0)
(0.202041 0.00572858 0)
(0.202126 0.00548597 0)
(0.202183 0.0052687 0)
(0.202221 0.00507289 0)
(0.202243 0.00489537 0)
(0.202254 0.00473352 0)
(0.202256 0.00458506 0)
(0.202252 0.00444809 0)
(0.202242 0.00432102 0)
(0.202228 0.00420254 0)
(0.202212 0.00409159 0)
(0.202194 0.00398725 0)
(0.202175 0.00388878 0)
(0.202155 0.00379553 0)
(0.202135 0.00370695 0)
(0.202114 0.00362259 0)
(0.202093 0.00354203 0)
(0.202072 0.00346491 0)
(0.20205 0.00339092 0)
(0.202027 0.00331976 0)
(0.202003 0.00325119 0)
(0.201976 0.00318498 0)
(0.201947 0.00312091 0)
(0.201914 0.0030588 0)
(0.201876 0.00299847 0)
(0.201834 0.00293975 0)
(0.201785 0.00288251 0)
(0.201729 0.0028266 0)
(0.201665 0.00277191 0)
(0.201592 0.0027183 0)
(0.20151 0.00266568 0)
(0.201417 0.00261394 0)
(0.201313 0.002563 0)
(0.201197 0.00251277 0)
(0.201069 0.00246316 0)
(0.200928 0.00241412 0)
(0.200772 0.00236556 0)
(0.200604 0.00231742 0)
(0.20042 0.00226966 0)
(0.200222 0.00222221 0)
(0.20001 0.00217502 0)
(0.199782 0.00212806 0)
(0.19954 0.00208127 0)
(0.199283 0.00203463 0)
(0.199011 0.0019881 0)
(0.198725 0.00194165 0)
(0.198424 0.00189527 0)
(0.19811 0.00184893 0)
(0.197782 0.00180264 0)
(0.19744 0.00175639 0)
(0.197086 0.00171019 0)
(0.19672 0.00166406 0)
(0.196343 0.00161803 0)
(0.195954 0.00157215 0)
(0.195555 0.00152649 0)
(0.195146 0.00148113 0)
(0.194728 0.00143618 0)
(0.194302 0.00139179 0)
(0.193868 0.00134814 0)
(0.193427 0.00130538 0)
(0.19298 0.00126411 0)
(0.192523 0.00122357 0)
(0.19207 0.00118795 0)
(0.191578 0.00114666 0)
(0.191189 0.0011395 0)
(0.190441 0.00107158 0)
(0.197405 0.00638281 0)
(0.198114 0.00697907 0)
(0.198967 0.00728645 0)
(0.199798 0.00729611 0)
(0.200484 0.00710224 0)
(0.200991 0.00681727 0)
(0.201351 0.00651204 0)
(0.201611 0.0062159 0)
(0.201799 0.00593916 0)
(0.201934 0.00568588 0)
(0.20203 0.00545642 0)
(0.202097 0.00524871 0)
(0.202143 0.00506 0)
(0.202173 0.0048878 0)
(0.20219 0.00472996 0)
(0.202197 0.00458457 0)
(0.202197 0.00444995 0)
(0.202191 0.00432467 0)
(0.20218 0.00420754 0)
(0.202166 0.00409759 0)
(0.202149 0.00399395 0)
(0.202129 0.00389594 0)
(0.202108 0.00380295 0)
(0.202086 0.00371449 0)
(0.202064 0.00363011 0)
(0.202041 0.00354946 0)
(0.202018 0.00347219 0)
(0.201995 0.00339805 0)
(0.201972 0.00332676 0)
(0.20195 0.00325811 0)
(0.201928 0.0031919 0)
(0.201906 0.00312794 0)
(0.201884 0.00306607 0)
(0.201861 0.00300614 0)
(0.201838 0.00294799 0)
(0.201813 0.00289149 0)
(0.201787 0.00283652 0)
(0.20176 0.00278296 0)
(0.201729 0.00273068 0)
(0.201696 0.00267958 0)
(0.201659 0.00262955 0)
(0.201617 0.0025805 0)
(0.201571 0.00253233 0)
(0.201519 0.00248494 0)
(0.201462 0.00243825 0)
(0.201397 0.00239217 0)
(0.201326 0.00234663 0)
(0.201247 0.00230155 0)
(0.201159 0.00225685 0)
(0.201063 0.00221247 0)
(0.200958 0.00216834 0)
(0.200843 0.00212441 0)
(0.200719 0.00208062 0)
(0.200584 0.00203693 0)
(0.200439 0.00199328 0)
(0.200283 0.00194964 0)
(0.200116 0.00190598 0)
(0.199939 0.00186228 0)
(0.199751 0.00181853 0)
(0.199551 0.00177473 0)
(0.199341 0.00173088 0)
(0.19912 0.00168702 0)
(0.198889 0.00164317 0)
(0.198647 0.0015994 0)
(0.198394 0.0015558 0)
(0.198132 0.00151247 0)
(0.19786 0.00146955 0)
(0.197578 0.00142726 0)
(0.197286 0.00138572 0)
(0.196987 0.00134559 0)
(0.196676 0.0013061 0)
(0.196362 0.00127179 0)
(0.196015 0.00123146 0)
(0.195743 0.00122842 0)
(0.195202 0.00115767 0)
(0.197665 0.00613912 0)
(0.198285 0.00666527 0)
(0.199025 0.0069584 0)
(0.199759 0.00700479 0)
(0.200386 0.00687015 0)
(0.200869 0.0066425 0)
(0.201226 0.00638358 0)
(0.20149 0.00612272 0)
(0.201686 0.00587221 0)
(0.201831 0.00563803 0)
(0.201935 0.00542245 0)
(0.20201 0.00522499 0)
(0.202063 0.00504397 0)
(0.202099 0.00487759 0)
(0.202122 0.00472419 0)
(0.202135 0.00458222 0)
(0.202139 0.00445024 0)
(0.202137 0.00432702 0)
(0.202129 0.0042115 0)
(0.202118 0.00410279 0)
(0.202103 0.0040001 0)
(0.202086 0.0039028 0)
(0.202067 0.00381032 0)
(0.202046 0.00372219 0)
(0.202024 0.00363802 0)
(0.202001 0.00355744 0)
(0.201978 0.00348015 0)
(0.201955 0.0034059 0)
(0.201931 0.00333445 0)
(0.201908 0.00326559 0)
(0.201886 0.00319914 0)
(0.201863 0.00313494 0)
(0.201842 0.00307284 0)
(0.20182 0.0030127 0)
(0.2018 0.00295438 0)
(0.20178 0.00289778 0)
(0.20176 0.00284278 0)
(0.20174 0.00278926 0)
(0.201721 0.00273713 0)
(0.201701 0.00268629 0)
(0.201681 0.00263664 0)
(0.20166 0.00258808 0)
(0.201638 0.00254053 0)
(0.201615 0.00249389 0)
(0.20159 0.00244808 0)
(0.201563 0.00240301 0)
(0.201533 0.0023586 0)
(0.201501 0.00231477 0)
(0.201465 0.00227144 0)
(0.201426 0.00222854 0)
(0.201382 0.002186 0)
(0.201333 0.00214374 0)
(0.20128 0.0021017 0)
(0.201221 0.00205983 0)
(0.201156 0.00201806 0)
(0.201085 0.00197636 0)
(0.201008 0.00193468 0)
(0.200923 0.00189298 0)
(0.200832 0.00185125 0)
(0.200733 0.00180947 0)
(0.200626 0.00176764 0)
(0.200511 0.00172577 0)
(0.200389 0.0016839 0)
(0.200258 0.00164208 0)
(0.200118 0.00160038 0)
(0.19997 0.00155891 0)
(0.199814 0.00151781 0)
(0.199648 0.00147728 0)
(0.199474 0.00143746 0)
(0.199291 0.00139901 0)
(0.199098 0.00136122 0)
(0.1989 0.00132864 0)
(0.198675 0.0012905 0)
(0.198501 0.00128873 0)
(0.198142 0.00122073 0)
(0.197898 0.00591729 0)
(0.198442 0.00638402 0)
(0.199087 0.00666141 0)
(0.199736 0.00673435 0)
(0.200307 0.00664787 0)
(0.200763 0.00646983 0)
(0.201112 0.00625288 0)
(0.201377 0.00602527 0)
(0.201578 0.0058004 0)
(0.201729 0.00558553 0)
(0.201841 0.00538435 0)
(0.201924 0.00519771 0)
(0.201983 0.00502492 0)
(0.202025 0.00486485 0)
(0.202053 0.0047163 0)
(0.20207 0.00457809 0)
(0.202078 0.00444904 0)
(0.20208 0.00432812 0)
(0.202076 0.0042144 0)
(0.202067 0.00410708 0)
(0.202055 0.00400549 0)
(0.20204 0.00390902 0)
(0.202023 0.00381718 0)
(0.202004 0.00372952 0)
(0.201983 0.00364566 0)
(0.201962 0.00356528 0)
(0.20194 0.00348809 0)
(0.201918 0.00341385 0)
(0.201895 0.00334233 0)
(0.201873 0.00327335 0)
(0.20185 0.00320673 0)
(0.201828 0.00314231 0)
(0.201806 0.00307996 0)
(0.201785 0.00301955 0)
(0.201764 0.00296095 0)
(0.201744 0.00290407 0)
(0.201725 0.00284878 0)
(0.201706 0.002795 0)
(0.201688 0.00274264 0)
(0.201671 0.00269159 0)
(0.201654 0.00264178 0)
(0.201638 0.00259311 0)
(0.201622 0.00254551 0)
(0.201607 0.00249888 0)
(0.201591 0.00245316 0)
(0.201576 0.00240825 0)
(0.20156 0.00236409 0)
(0.201544 0.00232059 0)
(0.201527 0.00227768 0)
(0.201509 0.00223529 0)
(0.20149 0.00219334 0)
(0.201469 0.00215178 0)
(0.201447 0.00211052 0)
(0.201423 0.00206952 0)
(0.201395 0.00202871 0)
(0.201366 0.00198804 0)
(0.201333 0.00194747 0)
(0.201296 0.00190696 0)
(0.201256 0.00186648 0)
(0.201212 0.00182602 0)
(0.201163 0.00178556 0)
(0.201109 0.00174512 0)
(0.201051 0.00170471 0)
(0.200987 0.0016644 0)
(0.200917 0.00162424 0)
(0.200841 0.00158434 0)
(0.200759 0.00154483 0)
(0.20067 0.00150592 0)
(0.200575 0.00146775 0)
(0.200472 0.00143095 0)
(0.200361 0.00139496 0)
(0.200246 0.00136399 0)
(0.200109 0.00132855 0)
(0.200006 0.00132566 0)
(0.199786 0.00126388 0)
(0.198106 0.00571453 0)
(0.198587 0.00613083 0)
(0.199152 0.00639211 0)
(0.199726 0.00648372 0)
(0.200244 0.00643599 0)
(0.200672 0.0063005 0)
(0.201009 0.00612129 0)
(0.201272 0.0059247 0)
(0.201475 0.00572456 0)
(0.201631 0.00552892 0)
(0.201749 0.00534245 0)
(0.201837 0.00516706 0)
(0.201902 0.00500296 0)
(0.201949 0.00484962 0)
(0.201982 0.00470632 0)
(0.202003 0.00457219 0)
(0.202015 0.00444636 0)
(0.20202 0.00432797 0)
(0.202019 0.00421624 0)
(0.202013 0.0041105 0)
(0.202004 0.00401013 0)
(0.201991 0.00391462 0)
(0.201976 0.0038235 0)
(0.201959 0.00373638 0)
(0.20194 0.00365291 0)
(0.20192 0.0035728 0)
(0.2019 0.00349577 0)
(0.201879 0.0034216 0)
(0.201857 0.00335008 0)
(0.201836 0.00328103 0)
(0.201814 0.0032143 0)
(0.201793 0.00314972 0)
(0.201772 0.00308717 0)
(0.201751 0.00302653 0)
(0.201731 0.00296768 0)
(0.201711 0.00291053 0)
(0.201692 0.00285496 0)
(0.201674 0.00280089 0)
(0.201656 0.00274823 0)
(0.201639 0.00269689 0)
(0.201622 0.0026468 0)
(0.201607 0.00259786 0)
(0.201592 0.00255 0)
(0.201578 0.00250315 0)
(0.201564 0.00245722 0)
(0.201552 0.00241215 0)
(0.201539 0.00236785 0)
(0.201527 0.00232427 0)
(0.201516 0.00228132 0)
(0.201504 0.00223895 0)
(0.201493 0.00219707 0)
(0.201482 0.00215563 0)
(0.20147 0.00211457 0)
(0.201458 0.00207382 0)
(0.201445 0.00203334 0)
(0.201432 0.00199307 0)
(0.201417 0.00195296 0)
(0.201401 0.00191299 0)
(0.201383 0.00187312 0)
(0.201364 0.00183334 0)
(0.201342 0.00179364 0)
(0.201318 0.00175402 0)
(0.201292 0.00171451 0)
(0.201262 0.00167516 0)
(0.201229 0.00163603 0)
(0.201192 0.00159723 0)
(0.201151 0.00155888 0)
(0.201105 0.00152119 0)
(0.201055 0.00148431 0)
(0.201 0.00144886 0)
(0.200938 0.0014144 0)
(0.200874 0.00138465 0)
(0.200794 0.00135183 0)
(0.200736 0.00134634 0)
(0.200606 0.00129206 0)
(0.198295 0.0055286 0)
(0.19872 0.00590195 0)