/*--------------------------------*- C++ -*----------------------------------*\
| =========                 |                                                 |
| \\      /  F ield         | OpenFOAM: The Open Source CFD Toolbox           |
|  \\    /   O peration     | Version:  2.3.0                                 |
|   \\  /    A nd           | Web:      www.OpenFOAM.org                      |
|    \\/     M anipulation  |                                                 |
\*---------------------------------------------------------------------------*/
FoamFile
{
    version     2.0;
    format      ascii;
    class       surfaceScalarField;
    location    "1";
    object      phi;
}
// * * * * * * * * * * * * * * * * * * * * * * * * * * * * * * * * * * * * * //

dimensions      [0 3 -1 0 0 0 0];

internalField   nonuniform List<scalar> 
5764
(
2.00244e-08
5.01078e-09
-2.50352e-08
1.48944e-08
5.13002e-09
1.09257e-08
3.96867e-09
8.23213e-09
2.6936e-09
6.59098e-09
1.64115e-09
5.64063e-09
9.50354e-10
5.07055e-09
5.70078e-10
4.69078e-09
3.79768e-10
4.40169e-09
2.89092e-10
4.15913e-09
2.42561e-10
3.94674e-09
2.12389e-10
3.75881e-09
1.87931e-10
3.59226e-09
1.66547e-10
3.44424e-09
1.48026e-10
3.31184e-09
1.32399e-10
3.19251e-09
1.1933e-10
3.08412e-09
1.08394e-10
2.98502e-09
9.90976e-11
2.8939e-09
9.11192e-11
2.80975e-09
8.41481e-11
2.73171e-09
7.80397e-11
2.65911e-09
7.26038e-11
2.59132e-09
6.77842e-11
2.52788e-09
6.34402e-11
2.46832e-09
5.95586e-11
2.4123e-09
5.60206e-11
2.35946e-09
5.28414e-11
2.30955e-09
4.99118e-11
2.26228e-09
4.72717e-11
2.21747e-09
4.48111e-11
2.17487e-09
4.25932e-11
2.13437e-09
4.05033e-11
2.09575e-09
3.86216e-11
2.05892e-09
3.68294e-11
2.0237e-09
3.52211e-11
1.99003e-09
3.3669e-11
1.95774e-09
3.22881e-11
1.92681e-09
3.09313e-11
1.89707e-09
2.97402e-11
1.86852e-09
2.85464e-11
1.84101e-09
2.75146e-11
1.81455e-09
2.64558e-11
1.78899e-09
2.55634e-11
1.76438e-09
2.46124e-11
1.74053e-09
2.38444e-11
1.71755e-09
2.29819e-11
1.69523e-09
2.23214e-11
1.67369e-09
2.15353e-11
1.65273e-09
2.09691e-11
1.63248e-09
2.02442e-11
1.61271e-09
1.97687e-11
1.59363e-09
1.90865e-11
1.57493e-09
1.87002e-11
1.55688e-09
1.80469e-11
1.53913e-09
1.77479e-11
1.52202e-09
1.71114e-11
1.50512e-09
1.69015e-11
1.48885e-09
1.62684e-11
1.4727e-09
1.61512e-11
1.45719e-09
1.55079e-11
1.4417e-09
1.54933e-11
1.42688e-09
1.48195e-11
1.41195e-09
1.49273e-11
1.39775e-09
1.41995e-11
1.3833e-09
1.44517e-11
1.36965e-09
1.3645e-11
1.35558e-09
1.40739e-11
1.34243e-09
1.31529e-11
1.32862e-09
1.3808e-11
1.3159e-09
1.27242e-11
1.30221e-09
1.3684e-11
1.28985e-09
1.23642e-11
1.27609e-09
1.37598e-11
1.26397e-09
1.21125e-11
1.53984e-11
2.69243e-08
4.90543e-09
-2.6819e-08
2.55752e-08
6.47915e-09
2.35612e-08
5.98264e-09
2.14034e-08
4.85139e-09
1.93766e-08
3.66798e-09
1.76078e-08
2.71915e-09
1.61241e-08
2.05378e-09
1.4906e-08
1.59783e-09
1.39101e-08
1.28498e-09
1.30871e-08
1.06561e-09
1.23931e-08
9.0634e-10
1.17956e-08
7.85399e-10
1.12725e-08
6.8972e-10
1.08086e-08
6.11907e-10
1.03933e-08
5.4771e-10
1.00185e-08
4.94135e-10
9.67784e-09
4.4903e-10
9.36638e-09
4.10559e-10
9.08005e-09
3.77446e-10
8.81563e-09
3.48573e-10
8.57041e-09
3.23256e-10
8.34221e-09
3.00808e-10
8.12912e-09
2.80868e-10
7.9296e-09
2.62967e-10
7.74224e-09
2.46913e-10
7.56591e-09
2.32351e-10
7.39956e-09
2.19192e-10
7.24233e-09
2.07145e-10
7.0934e-09
1.962e-10
6.95212e-09
1.86093e-10
6.81783e-09
1.76876e-10
6.69004e-09
1.68301e-10
6.5682e-09
1.60458e-10
6.45192e-09
1.53112e-10
6.34075e-09
1.46383e-10
6.23439e-09
1.40035e-10
6.13245e-09
1.34223e-10
6.03469e-09
1.28693e-10
5.94079e-09
1.23645e-10
5.85053e-09
1.18799e-10
5.76366e-09
1.14389e-10
5.68e-09
1.10116e-10
5.59931e-09
1.06253e-10
5.52147e-09
1.02454e-10
5.44625e-09
9.90682e-11
5.37356e-09
9.56683e-11
5.30319e-09
9.26913e-11
5.23509e-09
8.96386e-11
5.16904e-09
8.7014e-11
5.10503e-09
8.42554e-11
5.04285e-09
8.19515e-11
4.9825e-09
7.94308e-11
4.92378e-09
7.7425e-11
4.86673e-09
7.50986e-11
4.8111e-09
7.33696e-11
4.75701e-09
7.1202e-11
4.70418e-09
6.97382e-11
4.65275e-09
6.76936e-11
4.60241e-09
6.64886e-11
4.55339e-09
6.45353e-11
4.50528e-09
6.35966e-11
4.45841e-09
6.16915e-11
4.41229e-09
6.10496e-11
4.36734e-09
5.91455e-11
4.32296e-09
5.88366e-11
4.27971e-09
5.68892e-11
4.23682e-09
5.69699e-11
4.19505e-09
5.49203e-11
4.15338e-09
5.5483e-11
4.11284e-09
5.3258e-11
4.07208e-09
5.44492e-11
4.03249e-09
5.19542e-11
3.99223e-09
5.40184e-11
3.9531e-09
5.12443e-11
5.7333e-11
2.83081e-08
4.27277e-09
-2.76755e-08
2.86202e-08
6.16711e-09
2.83091e-08
6.29369e-09
2.75909e-08
5.56957e-09
2.66289e-08
4.62998e-09
2.55489e-08
3.79915e-09
2.44385e-08
3.16419e-09
2.33503e-08
2.68609e-09
2.23183e-08
2.3169e-09
2.13595e-08
2.02449e-09
2.04769e-08
1.78885e-09
1.96672e-08
1.5951e-09
1.89246e-08
1.43236e-09
1.8243e-08
1.29348e-09
1.76167e-08
1.17408e-09
1.70399e-08
1.07093e-09
1.65073e-08
9.8158e-10
1.60142e-08
9.03705e-10
1.55561e-08
8.35507e-10
1.51294e-08
7.75313e-10
1.47307e-08
7.2195e-10
1.43572e-08
6.74284e-10
1.40065e-08
6.31585e-10
1.36764e-08
5.93064e-10
1.3365e-08
5.58259e-10
1.30708e-08
5.26595e-10
1.27922e-08
4.97776e-10
1.2528e-08
4.71366e-10
1.2277e-08
4.47188e-10
1.20382e-08
4.24887e-10
1.18107e-08
4.04375e-10
1.15937e-08
3.85352e-10
1.13863e-08
3.6778e-10
1.1188e-08
3.51415e-10
1.09982e-08
3.3624e-10
1.08162e-08
3.22053e-10
1.06415e-08
3.08862e-10
1.04737e-08
2.96479e-10
1.03124e-08
2.84943e-10
1.01572e-08
2.74079e-10
1.00076e-08
2.63931e-10
9.86337e-09
2.54354e-10
9.72423e-09
2.4539e-10
9.58979e-09
2.36897e-10
9.4599e-09
2.28958e-10
9.33418e-09
2.21391e-10
9.21254e-09
2.14327e-10
9.09461e-09
2.07574e-10
8.98036e-09
2.01258e-10
8.86941e-09
1.95212e-10
8.7618e-09
1.89561e-10
8.65711e-09
1.84115e-10
8.55548e-09
1.79061e-10
8.45644e-09
1.74134e-10
8.3602e-09
1.69616e-10
8.26625e-09
1.65144e-10
8.17488e-09
1.61115e-10
8.08553e-09
1.5704e-10
7.99856e-09
1.53464e-10
7.91335e-09
1.49738e-10
7.83035e-09
1.46597e-10
7.74888e-09
1.43165e-10
7.66945e-09
1.40477e-10
7.59131e-09
1.37283e-10
7.51508e-09
1.35071e-10
7.43989e-09
1.32075e-10
7.36647e-09
1.30389e-10
7.29385e-09
1.27544e-10
7.22285e-09
1.2648e-10
7.15237e-09
1.23738e-10
7.08336e-09
1.23467e-10
7.01454e-09
1.20775e-10
6.9469e-09
1.21658e-10
6.87909e-09
1.19047e-10
1.25736e-10
2.91277e-08
3.86334e-09
-2.87183e-08
2.97211e-08
5.5737e-09
3.0007e-08
6.00788e-09
3.00098e-08
5.56669e-09
2.97924e-08
4.84737e-09
2.94114e-08
4.18018e-09
2.89155e-08
3.66009e-09
2.83405e-08
3.26111e-09
2.77173e-08
2.94011e-09
2.70701e-08
2.6717e-09
2.64151e-08
2.44383e-09
2.57625e-08
2.24775e-09
2.51189e-08
2.07592e-09
2.44896e-08
1.9228e-09
2.38785e-08
1.78519e-09
2.32883e-08
1.66108e-09
2.27208e-08
1.5491e-09
2.21766e-08
1.44787e-09
2.16559e-08
1.35621e-09
2.11583e-08
1.27293e-09
2.06831e-08
1.19713e-09
2.02295e-08
1.12791e-09
1.97965e-08
1.06461e-09
1.9383e-08
1.00654e-09
1.89881e-08
9.53202e-10
1.86106e-08
9.04079e-10
1.82496e-08
8.58745e-10
1.79042e-08
8.16835e-10
1.75733e-08
7.77994e-10
1.72563e-08
7.4196e-10
1.69522e-08
7.08432e-10
1.66603e-08
6.77241e-10
1.638e-08
6.48097e-10
1.61105e-08
6.20938e-10
1.58513e-08
5.95446e-10
1.56017e-08
5.71668e-10
1.53613e-08
5.49255e-10
1.51294e-08
5.28334e-10
1.49058e-08
5.08526e-10
1.46899e-08
4.90054e-10
1.44813e-08
4.72457e-10
1.42796e-08
4.56092e-10
1.40846e-08
4.40398e-10
1.38956e-08
4.25841e-10
1.37128e-08
4.11798e-10
1.35354e-08
3.98814e-10
1.33635e-08
3.86185e-10
1.31965e-08
3.74602e-10
1.30346e-08
3.63184e-10
1.28769e-08
3.5284e-10
1.2724e-08
3.42486e-10
1.25749e-08
3.33226e-10
1.24301e-08
3.23815e-10
1.22888e-08
3.15521e-10
1.21514e-08
3.06935e-10
1.20171e-08
2.99518e-10
1.18865e-08
2.91664e-10
1.17585e-08
2.85048e-10
1.16341e-08
2.77841e-10
1.15119e-08
2.71972e-10
1.13931e-08
2.65354e-10
1.12761e-08
2.60173e-10
1.11625e-08
2.54128e-10
1.10502e-08
2.49586e-10
1.09411e-08
2.44104e-10
1.0833e-08
2.40183e-10
1.07281e-08
2.35284e-10
1.06237e-08
2.31972e-10
1.05225e-08
2.27737e-10
1.04212e-08
2.25029e-10
1.0323e-08
2.21655e-10
1.02242e-08
2.19515e-10
1.01283e-08
2.17597e-10
1.00314e-08
2.15923e-10
2.21188e-10
3.00301e-08
3.62078e-09
-2.97876e-08
3.05685e-08
5.03538e-09
3.09672e-08
5.60913e-09
3.11776e-08
5.35633e-09
3.12441e-08
4.78084e-09
3.1202e-08
4.22226e-09
3.10726e-08
3.78947e-09
3.08703e-08
3.46343e-09
3.0609e-08
3.20144e-09
3.03021e-08
2.97861e-09
2.99601e-08
2.78576e-09
2.95903e-08
2.61763e-09
2.91975e-08
2.46863e-09
2.87866e-08
2.3337e-09
2.83622e-08
2.20965e-09
2.79285e-08
2.09474e-09
2.74896e-08
1.98803e-09
2.70487e-08
1.88875e-09
2.66087e-08
1.7962e-09
2.61719e-08
1.70977e-09
2.57401e-08
1.62887e-09
2.53149e-08
1.5531e-09
2.48976e-08
1.48199e-09
2.44888e-08
1.41531e-09
2.40894e-08
1.35261e-09
2.36997e-08
1.29379e-09
2.332e-08
1.23837e-09
2.29505e-08
1.18636e-09
2.25913e-08
1.13725e-09
2.22421e-08
1.09116e-09
2.1903e-08
1.04753e-09
2.15736e-08
1.0066e-09
2.1254e-08
9.67732e-10
2.09436e-08
9.31323e-10
2.06424e-08
8.96588e-10
2.035e-08
8.64128e-10
2.00662e-08
8.33011e-10
1.97905e-08
8.04014e-10
1.9523e-08
7.76052e-10
1.9263e-08
7.5012e-10
1.90105e-08
7.24902e-10
1.87649e-08
7.01686e-10
1.85264e-08
6.78878e-10
1.82942e-08
6.58053e-10
1.80686e-08
6.37369e-10
1.78488e-08
6.18679e-10
1.76351e-08
5.99837e-10
1.74266e-08
5.8309e-10
1.7224e-08
5.65836e-10
1.7026e-08
5.50847e-10
1.68335e-08
5.34993e-10
1.66451e-08
5.21582e-10
1.6462e-08
5.0696e-10
1.62825e-08
4.94998e-10
1.6108e-08
4.81442e-10
1.59367e-08
4.70831e-10
1.57701e-08
4.58201e-10
1.56063e-08
4.48859e-10
1.54471e-08
4.37023e-10
1.52902e-08
4.28907e-10
1.51378e-08
4.17758e-10
1.49872e-08
4.10821e-10
1.4841e-08
4.00302e-10
1.46961e-08
3.94515e-10
1.45556e-08
3.84574e-10
1.44158e-08
3.79957e-10
1.42805e-08
3.70579e-10
1.41453e-08
3.67157e-10
1.40147e-08
3.58417e-10
1.38835e-08
3.56217e-10
1.37567e-08
3.48381e-10
1.36289e-08
3.47318e-10
1.35052e-08
3.41322e-10
1.338e-08
3.41095e-10
3.43109e-10
3.1001e-08
3.46185e-09
-3.08421e-08
3.14451e-08
4.59123e-09
3.18421e-08
5.21212e-09
3.20895e-08
5.109e-09
3.22238e-08
4.64649e-09
3.2288e-08
4.15811e-09
3.23003e-08
3.77714e-09
3.22676e-08
3.49616e-09
3.2195e-08
3.27402e-09
3.20888e-08
3.08477e-09
3.19547e-08
2.91994e-09
3.17955e-08
2.77674e-09
3.16129e-08
2.65124e-09
3.14079e-08
2.53878e-09
3.11819e-08
2.43563e-09
3.09369e-08
2.33973e-09
3.06751e-08
2.2498e-09
3.03986e-08
2.16523e-09
3.01096e-08
2.0852e-09
2.981e-08
2.00937e-09
2.95019e-08
1.93703e-09
2.91868e-08
1.86813e-09
2.88668e-08
1.80207e-09
2.8543e-08
1.73906e-09
2.82171e-08
1.67847e-09
2.78902e-08
1.62069e-09
2.75636e-08
1.56502e-09
2.72379e-08
1.51201e-09
2.69144e-08
1.46083e-09
2.65933e-08
1.41222e-09
2.62757e-08
1.36518e-09
2.59616e-08
1.32065e-09
2.56519e-08
1.27742e-09
2.53466e-08
1.23669e-09
2.50462e-08
1.19697e-09
2.47505e-08
1.15975e-09
2.44603e-08
1.12325e-09
2.4175e-08
1.08929e-09
2.38954e-08
1.05572e-09
2.36207e-08
1.02478e-09
2.33517e-08
9.93868e-10
2.30877e-08
9.65718e-10
2.28294e-08
9.37219e-10
2.25758e-08
9.11628e-10
2.23279e-08
8.85315e-10
2.20844e-08
8.62092e-10
2.18466e-08
8.37714e-10
2.16129e-08
8.16724e-10
2.13847e-08
7.94038e-10
2.11604e-08
7.75134e-10
2.09415e-08
7.53956e-10
2.07261e-08
7.36983e-10
2.05159e-08
7.17138e-10
2.03089e-08
7.01995e-10
2.0107e-08
6.83295e-10
1.9908e-08
6.6991e-10
1.9714e-08
6.5219e-10
1.95223e-08
6.40506e-10
1.93357e-08
6.23605e-10
1.9151e-08
6.1361e-10
1.89714e-08
5.97381e-10
1.87932e-08
5.89061e-10
1.86201e-08
5.7342e-10
1.84478e-08
5.6678e-10
1.82807e-08
5.51644e-10
1.81139e-08
5.46745e-10
1.79524e-08
5.32083e-10
1.77906e-08
5.28983e-10
1.76341e-08
5.14893e-10
1.74767e-08
5.13624e-10
1.73246e-08
5.00497e-10
1.7171e-08
5.00887e-10
1.70224e-08
4.90015e-10
1.68718e-08
4.91627e-10
4.89024e-10
3.20115e-08
3.3407e-09
-3.18904e-08
3.23677e-08
4.23501e-09
3.27398e-08
4.84009e-09
3.29919e-08
4.85685e-09
3.31373e-08
4.50113e-09
3.32233e-08
4.07206e-09
3.32748e-08
3.72565e-09
3.32987e-08
3.47222e-09
3.32979e-08
3.2749e-09
3.32761e-08
3.10658e-09
3.32376e-08
2.95839e-09
3.31848e-08
2.82951e-09
3.31181e-08
2.71795e-09
3.30368e-08
2.62008e-09
3.29406e-08
2.53185e-09
3.28293e-08
2.45098e-09
3.27035e-08
2.37564e-09
3.25634e-08
2.30532e-09
3.24098e-08
2.23883e-09
3.22431e-08
2.17603e-09
3.20644e-08
2.11578e-09
3.18742e-08
2.05833e-09
3.16736e-08
2.00261e-09
3.14635e-08
1.94924e-09
3.12449e-08
1.89708e-09
3.10185e-08
1.84706e-09
3.07856e-08
1.79789e-09
3.05468e-08
1.75082e-09
3.03033e-08
1.70435e-09
3.00555e-08
1.65999e-09
2.98047e-08
1.616e-09
2.95511e-08
1.57425e-09
2.92959e-08
1.53263e-09
2.90392e-08
1.49342e-09
2.87821e-08
1.45407e-09
2.85245e-08
1.41733e-09
2.82676e-08
1.38017e-09
2.8011e-08
1.34585e-09
2.77559e-08
1.31078e-09
2.75019e-08
1.27885e-09
2.725e-08
1.24575e-09
2.69995e-08
1.21616e-09
2.67518e-08
1.18493e-09
2.65059e-08
1.15758e-09
2.62631e-08
1.1281e-09
2.60223e-08
1.10293e-09
2.57849e-08
1.07505e-09
2.55496e-08
1.05203e-09
2.53181e-08
1.02557e-09
2.50886e-08
1.00465e-09
2.4863e-08
9.79475e-10
2.46394e-08
9.60581e-10
2.442e-08
9.36544e-10
2.42024e-08
9.19643e-10
2.39891e-08
8.9658e-10
2.37773e-08
8.81662e-10
2.35701e-08
8.59419e-10
2.33641e-08
8.4648e-10
2.31629e-08
8.24892e-10
2.29625e-08
8.1398e-10
2.2767e-08
7.92893e-10
2.2572e-08
7.84046e-10
2.2382e-08
7.63373e-10
2.21922e-08
7.56639e-10
2.20075e-08
7.36298e-10
2.18225e-08
7.31779e-10
2.16428e-08
7.1176e-10
2.14623e-08
7.09537e-10
2.12872e-08
6.90002e-10
2.11107e-08
6.90092e-10
2.09396e-08
6.71591e-10
2.07667e-08
6.73747e-10
2.05989e-08
6.57873e-10
2.04289e-08
6.61625e-10
6.53832e-10
3.30507e-08
3.23274e-09
-3.29427e-08
3.33342e-08
3.95153e-09
3.3671e-08
4.50327e-09
3.39218e-08
4.60611e-09
3.40711e-08
4.35175e-09
3.41602e-08
3.98297e-09
3.42199e-08
3.66595e-09
3.42597e-08
3.43241e-09
3.42817e-08
3.25291e-09
3.42886e-08
3.09975e-09
3.42845e-08
2.96248e-09
3.42725e-08
2.84152e-09
3.42537e-08
2.73669e-09
3.42278e-08
2.64605e-09
3.4194e-08
2.56556e-09
3.41519e-08
2.49311e-09
3.41013e-08
2.4263e-09
3.40416e-08
2.36495e-09
3.39731e-08
2.30738e-09
3.38952e-08
2.25392e-09
3.38081e-08
2.20283e-09
3.37116e-08
2.15483e-09
3.36061e-08
2.10818e-09
3.34913e-08
2.06403e-09
3.33678e-08
2.02051e-09
3.32357e-08
1.97923e-09
3.30955e-08
1.93804e-09
3.29473e-08
1.899e-09
3.27921e-08
1.85964e-09
3.26296e-08
1.82246e-09
3.2461e-08
1.78462e-09
3.22861e-08
1.74913e-09
3.21061e-08
1.71263e-09
3.19207e-08
1.67877e-09
3.17313e-08
1.6435e-09
3.15374e-08
1.61121e-09
3.13405e-08
1.57714e-09
3.11399e-08
1.54641e-09
3.09372e-08
1.51351e-09
3.07316e-08
1.48442e-09
3.05247e-08
1.45261e-09
3.03157e-08
1.42522e-09
3.01061e-08
1.3945e-09
2.98949e-08
1.36878e-09
2.96839e-08
1.33912e-09
2.94717e-08
1.31512e-09
2.92603e-08
1.28643e-09
2.90481e-08
1.26425e-09
2.88373e-08
1.23641e-09
2.86258e-08
1.21608e-09
2.84163e-08
1.18902e-09
2.82063e-08
1.17055e-09
2.79987e-08
1.14418e-09
2.77907e-08
1.12763e-09
2.75854e-08
1.10182e-09
2.73799e-08
1.08725e-09
2.71774e-08
1.0619e-09
2.69745e-08
1.04937e-09
2.67751e-08
1.02432e-09
2.65751e-08
1.01396e-09
2.63789e-08
9.89079e-10
2.6182e-08
9.80978e-10
2.59891e-08
9.56219e-10
2.57953e-08
9.50469e-10
2.56058e-08
9.25782e-10
2.54151e-08
9.22521e-10
2.52289e-08
8.97958e-10
2.50411e-08
8.97276e-10
2.4858e-08
8.73104e-10
2.46731e-08
8.74997e-10
2.44928e-08
8.51938e-10
2.43104e-08
8.56117e-10
2.41323e-08
8.35982e-10
2.39519e-08
8.42036e-10
8.29522e-10
3.41127e-08
3.12804e-09
-3.4008e-08
3.43422e-08
3.72204e-09
3.4639e-08
4.20653e-09
3.48828e-08
4.3623e-09
3.50365e-08
4.19798e-09
3.51272e-08
3.89226e-09
3.51885e-08
3.60468e-09
3.52331e-08
3.38782e-09
3.52632e-08
3.22285e-09
3.528e-08
3.08294e-09
3.52872e-08
2.95524e-09
3.52884e-08
2.84036e-09
3.52857e-08
2.73936e-09
3.52794e-08
2.65233e-09
3.52695e-08
2.57549e-09
3.52554e-08
2.50723e-09
3.52371e-08
2.44453e-09
3.52144e-08
2.38773e-09
3.51871e-08
2.33463e-09
3.51548e-08
2.28624e-09
3.51174e-08
2.24016e-09
3.50744e-08
2.19783e-09
3.5026e-08
2.15667e-09
3.49713e-08
2.11868e-09
3.49108e-08
2.08099e-09
3.48439e-08
2.04619e-09
3.47709e-08
2.01099e-09
3.46913e-08
1.97857e-09
3.46058e-08
1.94521e-09
3.45136e-08
1.91464e-09
3.44156e-08
1.88262e-09
3.43111e-08
1.85359e-09
3.42012e-08
1.82258e-09
3.40851e-08
1.7949e-09
3.39639e-08
1.76469e-09
3.38368e-08
1.73822e-09
3.37053e-08
1.7087e-09
3.35683e-08
1.68337e-09
3.34274e-08
1.65442e-09
3.32816e-08
1.63028e-09
3.31324e-08
1.6018e-09
3.29787e-08
1.57892e-09
3.28223e-08
1.55089e-09
3.26618e-08
1.52924e-09
3.24993e-08
1.50165e-09
3.23331e-08
1.48129e-09
3.21655e-08
1.45404e-09
3.19946e-08
1.43513e-09
3.18229e-08
1.40814e-09
3.16482e-08
1.39077e-09
3.14732e-08
1.364e-09
3.12956e-08
1.3482e-09
3.11182e-08
1.32157e-09
3.09383e-08
1.30748e-09
3.07593e-08
1.2809e-09
3.05779e-08
1.26864e-09
3.03977e-08
1.24205e-09
3.02154e-08
1.23171e-09
3.00347e-08
1.20498e-09
2.98519e-08
1.19676e-09
2.96712e-08
1.16979e-09
2.94884e-08
1.16382e-09
2.9308e-08
1.13662e-09
2.91254e-08
1.13301e-09
2.89456e-08
1.10561e-09
2.87636e-08
1.10451e-09
2.85845e-08
1.07704e-09
2.84033e-08
1.07853e-09
2.8225e-08
1.05139e-09
2.80445e-08
1.05546e-09
2.78669e-08
1.02953e-09
2.76872e-08
1.03587e-09
2.75101e-08
1.0131e-09
2.73307e-08
1.02142e-09
1.00571e-09
3.51959e-08
3.02501e-09
-3.50929e-08
3.5388e-08
3.52995e-09
3.56453e-08
3.94927e-09
3.58765e-08
4.1311e-09
3.60334e-08
4.04106e-09
3.61273e-08
3.79837e-09
3.61894e-08
3.54256e-09
3.6236e-08
3.3413e-09
3.62701e-08
3.18867e-09
3.62921e-08
3.061e-09
3.63043e-08
2.94298e-09
3.63102e-08
2.83448e-09
3.63127e-08
2.73691e-09
3.63125e-08
2.65246e-09
3.63103e-08
2.57771e-09
3.63057e-08
2.5119e-09
3.62989e-08
2.45126e-09
3.62898e-08
2.39682e-09
3.62788e-08
2.34568e-09
3.62653e-08
2.29975e-09
3.62496e-08
2.25584e-09
3.62311e-08
2.21635e-09
3.621e-08
2.17774e-09
3.61857e-08
2.14305e-09
3.61584e-08
2.10829e-09
3.61273e-08
2.07724e-09
3.60929e-08
2.04534e-09
3.60544e-08
2.0171e-09
3.60123e-08
1.98736e-09
3.59656e-08
1.96132e-09
3.59151e-08
1.93314e-09
3.58597e-08
1.90893e-09
3.58004e-08
1.88188e-09
3.57361e-08
1.85923e-09
3.56678e-08
1.83303e-09
3.55943e-08
1.81168e-09
3.55169e-08
1.78612e-09
3.54343e-08
1.76593e-09
3.5348e-08
1.74078e-09
3.52565e-08
1.72176e-09
3.51614e-08
1.69683e-09
3.50614e-08
1.67897e-09
3.49581e-08
1.65422e-09
3.48499e-08
1.63743e-09
3.47387e-08
1.6128e-09
3.46229e-08
1.59711e-09
3.45045e-08
1.57243e-09
3.43816e-08
1.55801e-09
3.42566e-08
1.53317e-09
3.41273e-08
1.52009e-09
3.39962e-08
1.49507e-09
3.38611e-08
1.48334e-09
3.37246e-08
1.45803e-09
3.35843e-08
1.44782e-09
3.3443e-08
1.42213e-09
3.32981e-08
1.41356e-09
3.31527e-08
1.38747e-09
3.30038e-08
1.38063e-09
3.28547e-08
1.35404e-09
3.27023e-08
1.34914e-09
3.25502e-08
1.32196e-09
3.23948e-08
1.31915e-09
3.224e-08
1.29148e-09
3.20821e-08
1.29085e-09
3.1925e-08
1.26277e-09
3.1765e-08
1.26445e-09
3.16059e-08
1.2362e-09
3.14442e-08
1.24024e-09
3.12832e-08
1.21235e-09
3.11199e-08
1.21873e-09
3.09572e-08
1.19222e-09
3.07925e-08
1.20063e-09
3.06281e-08
1.17747e-09
3.04617e-08
1.18781e-09
1.17118e-09
3.63014e-08
2.92512e-09
-3.62016e-08
3.64678e-08
3.36357e-09
3.669e-08
3.72705e-09
3.69045e-08
3.9166e-09
3.70619e-08
3.8837e-09
3.71599e-08
3.70037e-09
3.72235e-08
3.47896e-09
3.72711e-08
3.29371e-09
3.7308e-08
3.15181e-09
3.73337e-08
3.03526e-09
3.73496e-08
2.92705e-09
3.73584e-08
2.82572e-09
3.73632e-08
2.73212e-09
3.73653e-08
2.65033e-09
3.73657e-08
2.57733e-09
3.73641e-08
2.5135e-09
3.7361e-08
2.45428e-09
3.73564e-08
2.40147e-09
3.73507e-08
2.35132e-09
3.73437e-08
2.30675e-09
3.73359e-08
2.26369e-09
3.73266e-08
2.22563e-09
3.73164e-08
2.18793e-09
3.73046e-08
2.15487e-09
3.72917e-08
2.12121e-09
3.72768e-08
2.09207e-09
3.72607e-08
2.0615e-09
3.72423e-08
2.03547e-09
3.72223e-08
2.00734e-09
3.71998e-08
1.98387e-09
3.71754e-08
1.95754e-09
3.71481e-08
1.93626e-09
3.71186e-08
1.9113e-09
3.7086e-08
1.89192e-09
3.70509e-08
1.86805e-09
3.70124e-08
1.85023e-09
3.69713e-08
1.82719e-09
3.69265e-08
1.81079e-09
3.6879e-08
1.78825e-09
3.68275e-08
1.77325e-09
3.67734e-08
1.75098e-09
3.6715e-08
1.7373e-09
3.6654e-08
1.71524e-09
3.65887e-08
1.70271e-09
3.65208e-08
1.68075e-09
3.64485e-08
1.66939e-09
3.63737e-08
1.64727e-09
3.62945e-08
1.6372e-09
3.62129e-08
1.61478e-09
3.61269e-08
1.60602e-09
3.60387e-08
1.58329e-09
3.59462e-08
1.57583e-09
3.58517e-08
1.5526e-09
3.57529e-08
1.54657e-09
3.56523e-08
1.52275e-09
3.55476e-08
1.51822e-09
3.54412e-08
1.49386e-09
3.5331e-08
1.49089e-09
3.52192e-08
1.46585e-09
3.51037e-08
1.46464e-09
3.49868e-08
1.43883e-09
3.48665e-08
1.43948e-09
3.47449e-08
1.41311e-09
3.46201e-08
1.41566e-09
3.4494e-08
1.38885e-09
3.4365e-08
1.39338e-09
3.42347e-08
1.36649e-09
3.4102e-08
1.37299e-09
3.39678e-08
1.3466e-09
3.38314e-08
1.35506e-09
3.36933e-08
1.33034e-09
3.35535e-08
1.34045e-09
3.34117e-08
1.31926e-09
3.32684e-08
1.33114e-09
1.31604e-09
3.74316e-08
2.83007e-09
-3.73365e-08
3.75793e-08
3.21582e-09
3.77723e-08
3.53404e-09
3.79682e-08
3.72074e-09
3.81228e-08
3.72909e-09
3.82246e-08
3.59851e-09
3.82905e-08
3.41305e-09
3.8339e-08
3.24523e-09
3.83776e-08
3.11318e-09
3.84064e-08
3.00649e-09
3.84257e-08
2.90781e-09
3.84371e-08
2.81432e-09
3.84438e-08
2.72545e-09
3.84473e-08
2.64675e-09
3.84491e-08
2.5756e-09
3.84488e-08
2.51373e-09
3.84473e-08
2.45586e-09
3.84442e-08
2.40457e-09
3.84403e-08
2.3552e-09
3.84353e-08
2.31169e-09
3.843e-08
2.26904e-09
3.84238e-08
2.23187e-09
3.84172e-08
2.19447e-09
3.84098e-08
2.16231e-09
3.84021e-08
2.12891e-09
3.83934e-08
2.10073e-09
3.83844e-08
2.07049e-09
3.83743e-08
2.04555e-09
3.83638e-08
2.01786e-09
3.8352e-08
1.99569e-09
3.83396e-08
1.96994e-09
3.83256e-08
1.95021e-09
3.8311e-08
1.92599e-09
3.82945e-08
1.90841e-09
3.8277e-08
1.88549e-09
3.82575e-08
1.86972e-09
3.82369e-08
1.84784e-09
3.82139e-08
1.83376e-09
3.81896e-08
1.81254e-09
3.81627e-08
1.80016e-09
3.81343e-08
1.77937e-09
3.81031e-08
1.7685e-09
3.80702e-08
1.74814e-09
3.80343e-08
1.7386e-09
3.79966e-08
1.71848e-09
3.79557e-08
1.71031e-09
3.79129e-08
1.69009e-09
3.78667e-08
1.68337e-09
3.78185e-08
1.66296e-09
3.7767e-08
1.6576e-09
3.77133e-08
1.63699e-09
3.76561e-08
1.63299e-09
3.75968e-08
1.61191e-09
3.7534e-08
1.60937e-09
3.7469e-08
1.58772e-09
3.74006e-08
1.58661e-09
3.73299e-08
1.56454e-09
3.7256e-08
1.56486e-09
3.71796e-08
1.54216e-09
3.71002e-08
1.54412e-09
3.70183e-08
1.52072e-09
3.69335e-08
1.52428e-09
3.68461e-08
1.50049e-09
3.67561e-08
1.50567e-09
3.66633e-08
1.48162e-09
3.65683e-08
1.48843e-09
3.64702e-08
1.46457e-09
3.63703e-08
1.47291e-09
3.6267e-08
1.44984e-09
3.61623e-08
1.45975e-09
3.6054e-08
1.43873e-09
3.59445e-08
1.44994e-09
3.58311e-08
1.43257e-09
3.57169e-08
1.44543e-09
1.43383e-09
3.85886e-08
2.74075e-09
-3.84993e-08
3.87217e-08
3.08275e-09
3.88911e-08
3.36467e-09
3.90683e-08
3.54351e-09
3.92172e-08
3.58014e-09
3.93217e-08
3.49404e-09
3.93905e-08
3.34429e-09
3.94401e-08
3.19566e-09
3.94799e-08
3.07338e-09
3.9511e-08
2.97539e-09
3.95332e-08
2.88559e-09
3.95472e-08
2.80024e-09
3.95559e-08
2.71683e-09
3.95608e-08
2.64178e-09
3.95637e-08
2.57274e-09
3.95645e-08
2.51291e-09
3.95639e-08
2.45647e-09
3.95617e-08
2.40678e-09
3.95586e-08
2.35827e-09
3.95545e-08
2.3158e-09
3.955e-08
2.27353e-09
3.95448e-08
2.23711e-09
3.95394e-08
2.19985e-09
3.95334e-08
2.16833e-09
3.95273e-08
2.13496e-09
3.95207e-08
2.10735e-09
3.95141e-08
2.07709e-09
3.9507e-08
2.0527e-09
3.94998e-08
2.02497e-09
3.94921e-08
2.00345e-09
3.94844e-08
1.97768e-09
3.94759e-08
1.95871e-09
3.94673e-08
1.93454e-09
3.94579e-08
1.91782e-09
3.94483e-08
1.89512e-09
3.94377e-08
1.88032e-09
3.94267e-08
1.85878e-09
3.94146e-08
1.8459e-09
3.9402e-08
1.82512e-09
3.9388e-08
1.81415e-09
3.93734e-08
1.79398e-09
3.93572e-08
1.78465e-09
3.93402e-08
1.76515e-09
3.93215e-08
1.75729e-09
3.93018e-08
1.73821e-09
3.92802e-08
1.73195e-09
3.92573e-08
1.71291e-09
3.92325e-08
1.70824e-09
3.92062e-08
1.68925e-09
3.91778e-08
1.68598e-09
3.91478e-08
1.66704e-09
3.91155e-08
1.66524e-09
3.90814e-08
1.646e-09
3.90451e-08
1.64573e-09
3.90067e-08
1.62613e-09
3.89661e-08
1.62721e-09
3.89231e-08
1.6075e-09
3.8878e-08
1.60995e-09
3.88304e-08
1.58982e-09
3.87806e-08
1.59383e-09
3.87281e-08
1.57329e-09
3.86737e-08
1.57867e-09
3.86161e-08
1.55808e-09
3.85569e-08
1.56483e-09
3.84942e-08
1.54435e-09
3.84302e-08
1.55241e-09
3.83623e-08
1.53254e-09
3.82934e-08
1.5418e-09
3.82202e-08
1.52305e-09
3.81463e-08
1.53356e-09
3.80678e-08
1.51731e-09
3.79888e-08
1.52893e-09
3.7905e-08
1.51639e-09
3.78208e-08
1.52963e-09
1.52263e-09
3.97747e-08
2.65726e-09
-3.96912e-08
3.98954e-08
2.96211e-09
4.00456e-08
3.21443e-09
4.02054e-08
3.38367e-09
4.03467e-08
3.43889e-09
4.0452e-08
3.38877e-09
4.05236e-08
3.27262e-09
4.05747e-08
3.14461e-09
4.06153e-08
3.03271e-09
4.06481e-08
2.94262e-09
4.06728e-08
2.86088e-09
4.06895e-08
2.78359e-09
4.07001e-08
2.70617e-09
4.07066e-08
2.63533e-09
4.07106e-08
2.56877e-09
4.07124e-08
2.51109e-09
4.07127e-08
2.45621e-09
4.07113e-08
2.40818e-09
4.07088e-08
2.36069e-09
4.07053e-08
2.31932e-09
4.07013e-08
2.27754e-09
4.06966e-08
2.24185e-09
4.06916e-08
2.20479e-09
4.06861e-08
2.17381e-09
4.06806e-08
2.14048e-09
4.06747e-08
2.11327e-09
4.06688e-08
2.08297e-09
4.06626e-08
2.05889e-09
4.06566e-08
2.03104e-09
4.06502e-08
2.00984e-09
4.0644e-08
1.98389e-09
4.06374e-08
1.96526e-09
4.0631e-08
1.94095e-09
4.06243e-08
1.92453e-09
4.06176e-08
1.9018e-09
4.06106e-08
1.88734e-09
4.06036e-08
1.8658e-09
4.05961e-08
1.8534e-09
4.05886e-08
1.83266e-09
4.05804e-08
1.82225e-09
4.05721e-08
1.80231e-09
4.05632e-08
1.79353e-09
4.05539e-08
1.77449e-09
4.05439e-08
1.76727e-09
4.05334e-08
1.74875e-09
4.0522e-08
1.7433e-09
4.05099e-08
1.72498e-09
4.0497e-08
1.72117e-09
4.04831e-08
1.7032e-09
4.04683e-08
1.70077e-09
4.04522e-08
1.68312e-09
4.04352e-08
1.68226e-09
4.04167e-08
1.66449e-09
4.03972e-08
1.66521e-09
4.03759e-08
1.64742e-09
4.03538e-08
1.64935e-09
4.03294e-08
1.63184e-09
4.03043e-08
1.63511e-09
4.02766e-08
1.61747e-09
4.02482e-08
1.62224e-09
4.02169e-08
1.60459e-09
4.01851e-08
1.6105e-09
4.01499e-08
1.59322e-09
4.01144e-08
1.60036e-09
4.00752e-08
1.58361e-09
4.00358e-08
1.5918e-09
3.99922e-08
1.57612e-09
3.99486e-08
1.58536e-09
3.99005e-08
1.57113e-09
3.98527e-08
1.58138e-09
3.97999e-08
1.57007e-09
3.97474e-08
1.5815e-09
3.96899e-08
1.57386e-09
3.96325e-08
1.58702e-09
1.58473e-09
4.09915e-08
2.5793e-09
-4.09135e-08
4.11013e-08
2.85233e-09
4.12358e-08
3.07994e-09
4.138e-08
3.23944e-09
4.15124e-08
3.30649e-09
4.16166e-08
3.28456e-09
4.16907e-08
3.19856e-09
4.17435e-08
3.09179e-09
4.17849e-08
2.99124e-09
4.18189e-08
2.90869e-09
4.18455e-08
2.83421e-09
4.18646e-08
2.76456e-09
4.18773e-08
2.69348e-09
4.18853e-08
2.62731e-09
4.18904e-08
2.56365e-09
4.18932e-08
2.50825e-09
4.18944e-08
2.45508e-09
4.18938e-08
2.40875e-09
4.1892e-08
2.36247e-09
4.18891e-08
2.32225e-09
4.18855e-08
2.28112e-09
4.18812e-08
2.24616e-09
4.18766e-08
2.20943e-09
4.18714e-08
2.17893e-09
4.18661e-08
2.14577e-09
4.18606e-08
2.11885e-09
4.18549e-08
2.08861e-09
4.18491e-08
2.0647e-09
4.18434e-08
2.0368e-09
4.18375e-08
2.01574e-09
4.18317e-08
1.98967e-09
4.18258e-08
1.97113e-09
4.182e-08
1.94673e-09
4.18143e-08
1.93029e-09
4.18085e-08
1.90755e-09
4.18028e-08
1.89305e-09
4.17971e-08
1.87149e-09
4.17914e-08
1.85912e-09
4.17857e-08
1.83836e-09
4.178e-08
1.82798e-09
4.17741e-08
1.8082e-09
4.17683e-08
1.79934e-09
4.17621e-08
1.78064e-09
4.1756e-08
1.77337e-09
4.17495e-08
1.75524e-09
4.1743e-08
1.74985e-09
4.17359e-08
1.73207e-09
4.17288e-08
1.72823e-09
4.17209e-08
1.71114e-09
4.17131e-08
1.70859e-09
4.17042e-08
1.69201e-09
4.16953e-08
1.69112e-09
4.16852e-08
1.67459e-09
4.16752e-08
1.67525e-09
4.16635e-08
1.65908e-09
4.16521e-08
1.66077e-09
4.16387e-08
1.64523e-09
4.16256e-08
1.64826e-09
4.16102e-08
1.63284e-09
4.15951e-08
1.6373e-09
4.15774e-08
1.62232e-09
4.15602e-08
1.62772e-09
4.15399e-08
1.61347e-09
4.15203e-08
1.62003e-09
4.14971e-08
1.60673e-09
4.14748e-08
1.61417e-09
4.14486e-08
1.60231e-09
4.14231e-08
1.61081e-09
4.13936e-08
1.60067e-09
4.13649e-08
1.61007e-09
4.13318e-08
1.60314e-09
4.12994e-08
1.61399e-09
4.12626e-08
1.61062e-09
4.12262e-08
1.62341e-09
1.6252e-09
4.22403e-08
2.50642e-09
-4.21675e-08
4.23405e-08
2.75217e-09
4.24617e-08
2.95872e-09
4.25922e-08
3.10895e-09
4.27154e-08
3.18328e-09
4.2817e-08
3.18298e-09
4.28925e-08
3.12305e-09
4.29472e-08
3.03714e-09
4.29895e-08
2.94889e-09
4.30243e-08
2.87393e-09
4.30524e-08
2.80609e-09
4.30735e-08
2.74349e-09
4.30881e-08
2.67882e-09
4.30978e-08
2.61766e-09
4.3104e-08
2.55737e-09
4.31079e-08
2.50441e-09
4.31099e-08
2.45311e-09
4.31101e-08
2.40848e-09
4.3109e-08
2.36358e-09
4.31067e-08
2.32456e-09
4.31036e-08
2.28426e-09
4.30997e-08
2.25001e-09
4.30954e-08
2.21377e-09
4.30906e-08
2.18369e-09
4.30855e-08
2.15086e-09
4.30802e-08
2.12415e-09
4.30747e-08
2.09411e-09
4.30692e-08
2.07027e-09
4.30635e-08
2.04243e-09
4.30579e-08
2.0214e-09
4.30522e-08
1.99534e-09
4.30466e-08
1.97671e-09
4.3041e-08
1.95236e-09
4.30356e-08
1.93569e-09
4.30301e-08
1.91306e-09
4.30248e-08
1.89829e-09
4.30195e-08
1.87678e-09
4.30145e-08
1.8642e-09
4.30093e-08
1.84351e-09
4.30045e-08
1.83282e-09
4.29994e-08
1.81331e-09
4.29947e-08
1.80397e-09
4.29897e-08
1.78567e-09
4.29851e-08
1.77794e-09
4.29802e-08
1.76019e-09
4.29756e-08
1.75439e-09
4.29706e-08
1.73716e-09
4.2966e-08
1.73275e-09
4.29607e-08
1.7165e-09
4.2956e-08
1.71327e-09
4.29504e-08
1.69765e-09
4.29453e-08
1.69615e-09
4.29392e-08
1.68071e-09
4.29338e-08
1.68065e-09
4.29269e-08
1.66596e-09
4.2921e-08
1.66671e-09
4.29133e-08
1.65291e-09
4.29065e-08
1.65505e-09
4.28978e-08
1.64154e-09
4.28901e-08
1.64501e-09
4.28801e-08
1.63236e-09
4.28712e-08
1.63661e-09
4.28597e-08
1.62495e-09
4.28494e-08
1.63036e-09
4.28361e-08
1.61996e-09
4.28241e-08
1.62616e-09
4.2809e-08
1.61745e-09
4.2795e-08
1.62483e-09
4.27776e-08
1.61804e-09
4.27614e-08
1.62629e-09
4.27417e-08
1.62282e-09
4.27227e-08
1.63296e-09
4.27005e-08
1.63289e-09
4.26786e-08
1.64521e-09
1.6501e-09
4.35226e-08
2.43821e-09
-4.34544e-08
4.36142e-08
2.66054e-09
4.3724e-08
2.84893e-09
4.38425e-08
2.9905e-09
4.39567e-08
3.06911e-09
4.40545e-08
3.08517e-09
4.41303e-08
3.04716e-09
4.41866e-08
2.98087e-09
4.42299e-08
2.90558e-09
4.42653e-08
2.83852e-09
4.42945e-08
2.77694e-09
4.43172e-08
2.72076e-09
4.43337e-08
2.66236e-09
4.43449e-08
2.6064e-09
4.43524e-08
2.54988e-09
4.43573e-08
2.49957e-09
4.43601e-08
2.45032e-09
4.43611e-08
2.4074e-09
4.43607e-08
2.36402e-09
4.4359e-08
2.32622e-09
4.43564e-08
2.28693e-09
4.4353e-08
2.2534e-09
4.4349e-08
2.21779e-09
4.43446e-08
2.18808e-09
4.43397e-08