/*--------------------------------*- C++ -*----------------------------------*\
| =========                 |                                                 |
| \\      /  F ield         | OpenFOAM: The Open Source CFD Toolbox           |
|  \\    /   O peration     | Version:  2.3.0                                 |
|   \\  /    A nd           | Web:      www.OpenFOAM.org                      |
|    \\/     M anipulation  |                                                 |
\*---------------------------------------------------------------------------*/
FoamFile
{
    version     2.0;
    format      ascii;
    class       surfaceScalarField;
    location    "0.45";
    object      phi;
}
// * * * * * * * * * * * * * * * * * * * * * * * * * * * * * * * * * * * * * //

dimensions      [0 3 -1 0 0 0 0];

internalField   nonuniform List<scalar> 
17305
(
2.83218e-08
2.88348e-09
-3.12053e-08
2.54555e-08
2.86629e-09
2.2766e-08
2.68955e-09
2.02869e-08
2.4791e-09
1.80343e-08
2.25255e-09
1.60189e-08
2.01542e-09
1.42431e-08
1.77587e-09
1.27014e-08
1.54168e-09
1.13819e-08
1.31945e-09
1.02674e-08
1.11452e-09
9.33658e-09
9.30821e-10
8.56592e-09
7.70655e-10
7.93128e-09
6.34645e-10
7.40933e-09
5.21947e-10
6.97874e-09
4.30594e-10
6.62083e-09
3.57908e-10
6.31993e-09
3.00901e-10
6.06333e-09
2.56604e-10
5.84102e-09
2.22302e-10
5.64536e-09
1.95659e-10
5.4706e-09
1.74768e-10
5.31247e-09
1.5813e-10
5.16785e-09
1.44616e-10
5.03446e-09
1.33393e-10
4.91059e-09
1.23866e-10
4.79497e-09
1.15617e-10
4.68662e-09
1.08352e-10
4.58475e-09
1.01871e-10
4.48872e-09
9.60315e-11
4.39799e-09
9.07315e-11
4.31209e-09
8.5896e-11
4.23062e-09
8.14672e-11
4.15323e-09
7.73987e-11
4.07957e-09
7.36515e-11
4.00938e-09
7.01924e-11
3.94239e-09
6.69923e-11
3.87836e-09
6.40253e-11
3.8171e-09
6.12684e-11
3.7584e-09
5.87011e-11
3.70209e-09
5.63052e-11
3.64803e-09
5.40641e-11
3.59606e-09
5.19634e-11
3.54607e-09
4.99899e-11
3.49794e-09
4.8132e-11
3.45156e-09
4.63792e-11
3.40684e-09
4.47222e-11
3.36369e-09
4.31526e-11
3.32202e-09
4.16628e-11
3.28178e-09
4.0246e-11
3.24288e-09
3.88962e-11
3.20527e-09
3.76075e-11
3.1689e-09
3.63751e-11
3.1337e-09
3.51941e-11
3.09964e-09
3.40604e-11
3.06667e-09
3.29701e-11
3.03476e-09
3.19194e-11
3.00385e-09
3.09051e-11
2.97393e-09
2.99241e-11
2.94495e-09
2.89736e-11
2.9169e-09
2.80507e-11
2.88975e-09
2.71531e-11
2.86347e-09
2.62784e-11
2.83805e-09
2.54243e-11
2.81346e-09
2.45889e-11
2.78969e-09
2.37701e-11
2.76672e-09
2.29661e-11
2.74455e-09
2.21752e-11
2.72315e-09
2.13957e-11
2.70252e-09
2.0626e-11
2.68266e-09
1.98645e-11
2.66355e-09
1.911e-11
2.64519e-09
1.83609e-11
2.62757e-09
1.76162e-11
2.6107e-09
1.68746e-11
2.59456e-09
1.61353e-11
2.57917e-09
1.53975e-11
2.5645e-09
1.46605e-11
2.55058e-09
1.39237e-11
2.53739e-09
1.31861e-11
2.52495e-09
1.24464e-11
2.51325e-09
1.17019e-11
2.5023e-09
1.09488e-11
2.49212e-09
1.01814e-11
2.48272e-09
9.39263e-12
2.47415e-09
8.57408e-12
2.46643e-09
7.7177e-12
2.45961e-09
6.81755e-12
2.45374e-09
5.87243e-12
2.44885e-09
4.88878e-12
2.44497e-09
3.88353e-12
2.44208e-09
2.88585e-12
2.44015e-09
1.9364e-12
2.43906e-09
1.08549e-12
2.43867e-09
3.93831e-13
2.43872e-09
-5.36373e-14
2.43897e-09
-2.5325e-13
2.4392e-09
-2.2526e-13
2.43916e-09
4.33288e-14
2.4386e-09
5.54737e-13
4.48122e-12
3.33568e-08
3.15923e-09
-3.36325e-08
3.27673e-08
3.45577e-09
3.19458e-08
3.51101e-09
3.09691e-08
3.45581e-09
2.98926e-08
3.32905e-09
2.87619e-08
3.14613e-09
2.76139e-08
2.92388e-09
2.64769e-08
2.6787e-09
2.53718e-08
2.42456e-09
2.43133e-08
2.17301e-09
2.33109e-08
1.93318e-09
2.23699e-08
1.71163e-09
2.14923e-08
1.51229e-09
2.06775e-08
1.33676e-09
1.99233e-08
1.18479e-09
1.92264e-08
1.05479e-09
1.85829e-08
9.44427e-10
1.79885e-08
8.51018e-10
1.74389e-08
7.7189e-10
1.693e-08
7.04579e-10
1.64578e-08
6.46937e-10
1.60188e-08
5.97169e-10
1.56096e-08
5.53814e-10
1.52272e-08
5.15708e-10
1.48692e-08
4.81936e-10
1.4533e-08
4.51783e-10
1.42167e-08
4.24686e-10
1.39183e-08
4.00202e-10
1.36364e-08
3.77975e-10
1.33694e-08
3.57718e-10
1.31161e-08
3.39192e-10
1.28754e-08
3.22198e-10
1.26462e-08
3.06565e-10
1.24277e-08
2.92148e-10
1.22191e-08
2.78817e-10
1.20196e-08
2.66463e-10
1.18287e-08
2.54986e-10
1.16456e-08
2.44301e-10
1.147e-08
2.34329e-10
1.13013e-08
2.25004e-10
1.11391e-08
2.16264e-10
1.0983e-08
2.08055e-10
1.08327e-08
2.00329e-10
1.06878e-08
1.93043e-10
1.0548e-08
1.86159e-10
1.04131e-08
1.7964e-10
1.02828e-08
1.73457e-10
1.01568e-08
1.6758e-10
1.00351e-08
1.61983e-10
9.91736e-09
1.56645e-10
9.80343e-09
1.51542e-10
9.69315e-09
1.46656e-10
9.58637e-09
1.41968e-10
9.48297e-09
1.37462e-10
9.38282e-09
1.33124e-10
9.2858e-09
1.28938e-10
9.19181e-09
1.24891e-10
9.10077e-09
1.20973e-10
9.01257e-09
1.1717e-10
8.92715e-09
1.13472e-10
8.84443e-09
1.0987e-10
8.76436e-09
1.06353e-10
8.68687e-09
1.02913e-10
8.61192e-09
9.95411e-11
8.53946e-09
9.62296e-11
8.46945e-09
9.29706e-11
8.40187e-09
8.97569e-11
8.33668e-09
8.65814e-11
8.27387e-09
8.34376e-11
8.21342e-09
8.0319e-11
8.15531e-09
7.72196e-11
8.09954e-09
7.41338e-11
8.0461e-09
7.10563e-11
7.99499e-09
6.79821e-11
7.94622e-09
6.49069e-11
7.89979e-09
6.18267e-11
7.85571e-09
5.87377e-11
7.814e-09
5.56359e-11
7.77467e-09
5.25165e-11
7.73774e-09
4.93733e-11
7.70325e-09
4.61975e-11
7.67122e-09
4.29776e-11
7.6417e-09
3.96996e-11
7.61474e-09
3.63476e-11
7.59041e-09
3.29071e-11
7.56876e-09
2.93686e-11
7.54984e-09
2.57342e-11
7.53369e-09
2.20234e-11
7.5203e-09
1.82799e-11
7.50961e-09
1.45758e-11
7.50148e-09
1.10111e-11
7.49571e-09
7.70758e-12
7.492e-09
4.79724e-12
7.48998e-09
2.41265e-12
7.48922e-09
7.10555e-13
7.48916e-09
-1.93698e-13
7.48923e-09
-3.02088e-13
7.48895e-09
3.30082e-13
7.48735e-09
2.14984e-12
1.01649e-11
3.47519e-08
3.0092e-09
-3.46019e-08
3.48131e-08
3.39461e-09
3.47479e-08
3.57618e-09
3.45619e-08
3.64178e-09
3.42657e-08
3.62521e-09
3.38737e-08
3.53818e-09
3.34032e-08
3.39442e-09
3.28719e-08
3.20991e-09
3.22968e-08
2.99973e-09
3.16926e-08
2.77722e-09
3.10721e-08
2.55367e-09
3.04458e-08
2.33794e-09
2.98218e-08
2.13624e-09
2.92063e-08
1.95224e-09
2.86037e-08
1.78745e-09
2.80167e-08
1.64174e-09
2.74473e-08
1.51388e-09
2.68963e-08
1.40202e-09
2.63641e-08
1.30406e-09
2.58507e-08
1.21795e-09
2.53559e-08
1.1418e-09
2.48791e-08
1.07397e-09
2.44198e-08
1.01309e-09
2.39774e-08
9.58059e-10
2.35514e-08
9.07983e-10
2.3141e-08
8.62156e-10
2.27457e-08
8.20015e-10
2.23648e-08
7.81109e-10
2.19977e-08
7.45072e-10
2.16438e-08
7.11601e-10
2.13025e-08
6.80443e-10
2.09734e-08
6.51378e-10
2.06557e-08
6.24218e-10
2.03491e-08
5.98796e-10
2.00529e-08
5.74962e-10
1.97668e-08
5.52585e-10
1.94902e-08
5.31542e-10
1.92228e-08
5.11726e-10
1.89641e-08
4.93037e-10
1.87137e-08
4.75384e-10
1.84713e-08
4.58686e-10
1.82365e-08
4.42867e-10
1.8009e-08
4.2786e-10
1.77884e-08
4.136e-10
1.75745e-08
4.00031e-10
1.73671e-08
3.87099e-10
1.71658e-08
3.74756e-10
1.69704e-08
3.62957e-10
1.67807e-08
3.51661e-10
1.65965e-08
3.40828e-10
1.64176e-08
3.30424e-10
1.62439e-08
3.20415e-10
1.60751e-08
3.10771e-10
1.59111e-08
3.01462e-10
1.57517e-08
2.92462e-10
1.55969e-08
2.83744e-10
1.54465e-08
2.75286e-10
1.53005e-08
2.67065e-10
1.51586e-08
2.59058e-10
1.50208e-08
2.51246e-10
1.48871e-08
2.4361e-10
1.47573e-08
2.36131e-10
1.46314e-08
2.28791e-10
1.45094e-08
2.21573e-10
1.43911e-08
2.14462e-10
1.42767e-08
2.07442e-10
1.41659e-08
2.00497e-10
1.40589e-08
1.93613e-10
1.39555e-08
1.86777e-10
1.38559e-08
1.79974e-10
1.37599e-08
1.73193e-10
1.36676e-08
1.66421e-10
1.3579e-08
1.59646e-10
1.34942e-08
1.52858e-10
1.3413e-08
1.46047e-10
1.33357e-08
1.39203e-10
1.32621e-08
1.32317e-10
1.31923e-08
1.25381e-10
1.31265e-08
1.18384e-10
1.30645e-08
1.11313e-10
1.30066e-08
1.04154e-10
1.29526e-08
9.68898e-11
1.29028e-08
8.95011e-11
1.28572e-08
8.19713e-11
1.28158e-08
7.42899e-11
1.27787e-08
6.64616e-11
1.2746e-08
5.85149e-11
1.27175e-08
5.05124e-11
1.26932e-08
4.25591e-11
1.2673e-08
3.48065e-11
1.26565e-08
2.74483e-11
1.26435e-08
2.07054e-11
1.26335e-08
1.4797e-11
1.2626e-08
9.90485e-12
1.26206e-08
6.16051e-12
1.26167e-08
3.65924e-12
1.26139e-08
2.50417e-12
1.26114e-08
2.88327e-12
1.26077e-08
5.78959e-12
1.71232e-11
3.55862e-08
2.82021e-09
-3.53972e-08
3.57786e-08
3.20229e-09
3.59296e-08
3.4251e-09
3.60271e-08
3.54436e-09
3.60642e-08
3.58807e-09
3.60372e-08
3.56522e-09
3.59465e-08
3.48513e-09
3.57962e-08
3.36019e-09
3.55926e-08
3.20332e-09
3.53432e-08
3.0266e-09
3.50561e-08
2.84082e-09
3.4739e-08
2.65499e-09
3.43993e-08
2.47595e-09
3.40432e-08
2.30833e-09
3.3676e-08
2.1547e-09
3.33017e-08
2.01598e-09
3.29237e-08
1.89189e-09
3.25444e-08
1.78137e-09
3.21654e-08
1.68299e-09
3.17882e-08
1.59514e-09
3.14138e-08
1.51628e-09
3.10427e-08
1.44504e-09
3.06756e-08
1.38022e-09
3.03128e-08
1.32082e-09
2.99547e-08
1.26604e-09
2.96017e-08
1.21523e-09
2.92538e-08
1.16788e-09
2.89113e-08
1.12357e-09
2.85744e-08
1.08198e-09
2.82432e-08
1.04282e-09
2.79178e-08
1.00588e-09
2.75982e-08
9.70962e-10
2.72845e-08
9.37901e-10
2.69767e-08
9.06551e-10
2.66749e-08
8.76784e-10
2.6379e-08
8.48484e-10
2.6089e-08
8.21545e-10
2.58049e-08
7.95873e-10
2.55265e-08
7.71378e-10
2.52539e-08
7.4798e-10
2.4987e-08
7.25604e-10
2.47257e-08
7.04182e-10
2.44699e-08
6.83649e-10
2.42196e-08
6.63946e-10
2.39746e-08
6.45018e-10
2.37349e-08
6.26813e-10
2.35003e-08
6.09281e-10
2.32709e-08
5.92378e-10
2.30465e-08
5.76061e-10
2.28271e-08
5.6029e-10
2.26125e-08
5.45025e-10
2.24026e-08
5.30231e-10
2.21975e-08
5.15873e-10
2.19971e-08
5.01919e-10
2.18012e-08
4.88336e-10
2.16099e-08
4.75096e-10
2.1423e-08
4.62168e-10
2.12405e-08
4.49525e-10
2.10624e-08
4.37139e-10
2.08887e-08
4.24986e-10
2.07193e-08
4.1304e-10
2.05541e-08
4.01275e-10
2.03932e-08
3.89669e-10
2.02366e-08
3.78197e-10
2.00843e-08
3.66838e-10
1.99361e-08
3.55569e-10
1.97923e-08
3.44368e-10
1.96527e-08
3.33214e-10
1.95173e-08
3.22086e-10
1.93864e-08
3.10965e-10
1.92597e-08
2.99831e-10
1.91375e-08
2.88665e-10
1.90197e-08
2.7745e-10
1.89064e-08
2.66168e-10
1.87976e-08
2.54804e-10
1.86935e-08
2.43341e-10
1.8594e-08
2.31767e-10
1.84993e-08
2.20065e-10
1.84095e-08
2.08221e-10
1.83246e-08
1.96216e-10
1.82447e-08
1.84033e-10
1.81699e-08
1.71654e-10
1.81004e-08
1.5906e-10
1.80361e-08
1.46243e-10
1.79772e-08
1.33209e-10
1.79237e-08
1.19989e-10
1.78755e-08
1.06653e-10
1.78327e-08
9.33195e-11
1.77951e-08
8.0165e-11
1.77625e-08
6.74256e-11
1.77346e-08
5.53864e-11
1.77109e-08
4.43566e-11
1.76911e-08
3.46296e-11
1.76745e-08
2.64375e-11
1.76608e-08
1.9926e-11
1.76493e-08
1.51683e-11
1.76395e-08
1.22557e-11
1.76309e-08
1.15283e-11
1.76222e-08
1.44647e-11
2.73939e-11
3.6337e-08
2.65484e-09
-3.61716e-08
3.6532e-08
3.00724e-09
3.67209e-08
3.23623e-09
3.68909e-08
3.37441e-09
3.70343e-08
3.44459e-09
3.71441e-08
3.45542e-09
3.72153e-08
3.41399e-09
3.72456e-08
3.3299e-09
3.72351e-08
3.21373e-09
3.7186e-08
3.07572e-09
3.71016e-08
2.92525e-09
3.69861e-08
2.77049e-09
3.68441e-08
2.61795e-09
3.66801e-08
2.47235e-09
3.64981e-08
2.33666e-09
3.63017e-08
2.21235e-09
3.60939e-08
2.09975e-09
3.58768e-08
1.9984e-09
3.56525e-08
1.90734e-09
3.54222e-08
1.8254e-09
3.51871e-08
1.75137e-09
3.49481e-08
1.68409e-09
3.47058e-08
1.62253e-09
3.44608e-08
1.56582e-09
3.42136e-08
1.51324e-09
3.39646e-08
1.46418e-09
3.37143e-08
1.41818e-09
3.3463e-08
1.37486e-09
3.32111e-08
1.33391e-09
3.29589e-08
1.29507e-09
3.27066e-08
1.25814e-09
3.24546e-08
1.22295e-09
3.22032e-08
1.18936e-09
3.19525e-08
1.15723e-09
3.17028e-08
1.12645e-09
3.14544e-08
1.09693e-09
3.12074e-08
1.06857e-09
3.09619e-08
1.04131e-09
3.07182e-08
1.01505e-09
3.04765e-08
9.89741e-10
3.02368e-08
9.65314e-10
2.99992e-08
9.41715e-10
2.9764e-08
9.18889e-10
2.95312e-08
8.96786e-10
2.93008e-08
8.75361e-10
2.90731e-08
8.5457e-10
2.8848e-08
8.34371e-10
2.86256e-08
8.14726e-10
2.84061e-08
7.95597e-10
2.81894e-08
7.7695e-10
2.79757e-08
7.58749e-10
2.7765e-08
7.40962e-10
2.75573e-08
7.23558e-10
2.73527e-08
7.06506e-10
2.71513e-08
6.89776e-10
2.6953e-08
6.73339e-10
2.6758e-08
6.57167e-10
2.65663e-08
6.41231e-10
2.63779e-08
6.25503e-10
2.6193e-08
6.09957e-10
2.60115e-08
5.94565e-10
2.58334e-08
5.79301e-10
2.5659e-08
5.64139e-10
2.54881e-08
5.49051e-10
2.53209e-08
5.34012e-10
2.51575e-08
5.18996e-10
2.49979e-08
5.03978e-10
2.48422e-08
4.8893e-10
2.46904e-08
4.73829e-10
2.45427e-08
4.5865e-10
2.43992e-08
4.43367e-10
2.42599e-08
4.27957e-10
2.4125e-08
4.12398e-10
2.39945e-08
3.96667e-10
2.38685e-08
3.80744e-10
2.37473e-08
3.64608e-10
2.36308e-08
3.48241e-10
2.35192e-08
3.31622e-10
2.34127e-08
3.14733e-10
2.33114e-08
2.97554e-10
2.32153e-08
2.80068e-10
2.31247e-08
2.62257e-10
2.30397e-08
2.44114e-10
2.29603e-08
2.25644e-10
2.28866e-08
2.06877e-10
2.28187e-08
1.8788e-10
2.27566e-08
1.6877e-10
2.27002e-08
1.49724e-10
2.26494e-08
1.30991e-10
2.26039e-08
1.12884e-10
2.25635e-08
9.57664e-11
2.25279e-08
8.00171e-11
2.24965e-08
6.59876e-11
2.2469e-08
5.39523e-11
2.24449e-08
4.40828e-11
2.24236e-08
3.64668e-11
2.24046e-08
3.12189e-11
2.23874e-08
2.87617e-11
2.23711e-08
3.07212e-11
4.28261e-11
3.70811e-08
2.51562e-09
-3.69419e-08
3.72555e-08
2.83285e-09
3.74367e-08
3.05501e-09
3.76127e-08
3.19842e-09
3.77771e-08
3.28021e-09
3.79238e-08
3.30871e-09
3.80477e-08
3.29008e-09
3.81454e-08
3.23218e-09
3.82153e-08
3.14387e-09
3.82571e-08
3.03389e-09
3.8272e-08
2.9104e-09
3.82619e-08
2.78057e-09
3.82295e-08
2.65034e-09
3.81777e-08
2.52419e-09
3.81092e-08
2.40512e-09
3.80267e-08
2.29486e-09
3.79324e-08
2.19409e-09
3.78281e-08
2.10274e-09
3.77152e-08
2.02022e-09
3.75949e-08
1.94568e-09
3.74681e-08
1.87818e-09
3.73354e-08
1.81674e-09
3.71975e-08
1.76051e-09
3.70546e-08
1.70869e-09
3.69072e-08
1.66063e-09
3.67556e-08
1.61578e-09
3.66001e-08
1.57371e-09
3.64409e-08
1.53403e-09
3.62784e-08
1.49646e-09
3.61127e-08
1.46076e-09
3.59441e-08
1.42672e-09
3.57728e-08
1.39418e-09
3.55992e-08
1.363e-09
3.54234e-08
1.33306e-09
3.52456e-08
1.30425e-09
3.5066e-08
1.27648e-09
3.48849e-08
1.24966e-09
3.47025e-08
1.22373e-09
3.45189e-08
1.19862e-09
3.43344e-08
1.17426e-09
3.41491e-08
1.15061e-09
3.39632e-08
1.1276e-09
3.37769e-08
1.1052e-09
3.35904e-08
1.08336e-09
3.34037e-08
1.06204e-09
3.32171e-08
1.04119e-09
3.30306e-08
1.02079e-09
3.28446e-08
1.00081e-09
3.2659e-08
9.81193e-10
3.2474e-08
9.61927e-10
3.22898e-08
9.42975e-10
3.21064e-08
9.24309e-10
3.19241e-08
9.059e-10
3.17429e-08
8.8772e-10
3.15629e-08
8.69741e-10
3.13843e-08
8.51935e-10
3.12072e-08
8.34276e-10
3.10317e-08
8.16735e-10
3.08579e-08
7.99287e-10
3.06859e-08
7.81903e-10
3.0516e-08
7.64557e-10
3.0348e-08
7.4722e-10
3.01823e-08
7.29866e-10
3.00189e-08
7.12465e-10
2.98579e-08
6.94991e-10
2.96995e-08
6.77415e-10
2.95438e-08
6.59708e-10
2.93909e-08
6.41841e-10
2.92409e-08
6.23787e-10
2.9094e-08
6.05517e-10
2.89504e-08
5.87003e-10
2.88101e-08
5.68217e-10
2.86734e-08
5.49132e-10
2.85403e-08
5.29724e-10
2.84111e-08
5.09966e-10
2.82859e-08
4.89836e-10
2.81648e-08
4.69311e-10
2.80481e-08
4.48368e-10
2.79358e-08
4.26988e-10
2.78282e-08
4.05151e-10
2.77255e-08
3.82841e-10
2.76277e-08
3.60049e-10
2.7535e-08
3.36778e-10
2.74476e-08
3.13054e-10
2.73655e-08
2.88934e-10
2.72889e-08
2.64521e-10
2.72177e-08
2.39979e-10
2.71519e-08
2.15543e-10
2.70913e-08
1.91523e-10
2.70359e-08
1.68296e-10
2.69854e-08
1.46285e-10
2.69395e-08
1.25924e-10
2.68979e-08
1.07605e-10
2.68602e-08
9.1636e-11
2.68261e-08
7.82168e-11
2.67951e-08
6.74654e-11
2.67668e-08
5.95278e-11
2.67407e-08
5.48467e-11
2.67165e-08
5.48974e-11
6.38568e-11
3.78306e-08
2.3967e-09
-3.77117e-08
3.79836e-08
2.67984e-09
3.81486e-08
2.88995e-09
3.83141e-08
3.03293e-09
3.8474e-08
3.12031e-09
3.86233e-08
3.15943e-09
3.87576e-08
3.1558e-09
3.88738e-08
3.11602e-09
3.897e-08
3.04763e-09
3.90456e-08
2.95825e-09
3.9101e-08
2.85501e-09
3.91373e-08
2.7443e-09
3.91562e-08
2.6315e-09
3.91596e-08
2.52077e-09
3.91496e-08
2.41507e-09
3.91282e-08
2.31624e-09
3.90971e-08
2.2252e-09
3.90577e-08
2.14213e-09
3.90112e-08
2.06675e-09
3.89584e-08
1.99846e-09
3.89001e-08
1.93653e-09
3.88366e-08
1.88018e-09
3.87685e-08
1.82867e-09
3.86959e-08
1.7813e-09
3.8619e-08
1.73749e-09
3.85381e-08
1.69673e-09
3.84532e-08
1.65859e-09
3.83645e-08
1.62272e-09
3.82721e-08
1.58884e-09
3.81762e-08
1.55671e-09
3.80768e-08
1.52611e-09
3.7974e-08
1.4969e-09
3.78681e-08
1.46891e-09
3.77592e-08
1.44204e-09
3.76472e-08
1.41617e-09
3.75325e-08
1.39121e-09
3.74151e-08
1.36707e-09
3.72951e-08
1.34369e-09
3.71728e-08
1.321e-09
3.70481e-08
1.29892e-09
3.69213e-08
1.27742e-09
3.67924e-08
1.25643e-09
3.66617e-08
1.23592e-09
3.65293e-08
1.21583e-09
3.63952e-08
1.19612e-09
3.62596e-08
1.17677e-09
3.61227e-08
1.15772e-09
3.59845e-08
1.13896e-09
3.58453e-08
1.12044e-09
3.57051e-08
1.10214e-09
3.5564e-08
1.08402e-09
3.54223e-08
1.06605e-09
3.528e-08
1.04821e-09
3.51372e-08
1.03047e-09
3.49942e-08
1.0128e-09
3.48509e-08
9.95171e-10
3.47076e-08
9.77555e-10
3.45645e-08
9.59925e-10
3.44215e-08
9.42253e-10
3.42789e-08
9.24509e-10
3.41368e-08
9.06665e-10
3.39953e-08
8.88692e-10
3.38546e-08
8.7056e-10
3.37148e-08
8.52239e-10
3.35761e-08
8.33698e-10
3.34386e-08
8.14905e-10
3.33025e-08
7.95831e-10
3.31679e-08
7.76442e-10
3.3035e-08
7.56707e-10
3.29039e-08
7.36594e-10
3.27748e-08
7.16071e-10
3.2648e-08
6.95108e-10
3.25234e-08
6.73673e-10
3.24014e-08
6.51738e-10
3.22821e-08
6.29275e-10
3.21657e-08
6.06256e-10
3.20523e-08
5.82657e-10
3.19422e-08
5.58453e-10
3.18356e-08
5.33625e-10
3.17326e-08
5.08153e-10
3.16334e-08
4.82026e-10
3.15382e-08
4.55245e-10
3.14472e-08
4.27826e-10
3.13604e-08
3.99813e-10
3.12781e-08
3.71291e-10
3.12002e-08
3.42397e-10
3.11268e-08
3.13338e-10
3.1058e-08
2.84393e-10
3.09936e-08
2.55921e-10
3.09335e-08
2.28349e-10
3.08777e-08
2.02142e-10
3.08258e-08
1.77769e-10
3.07778e-08
1.55652e-10
3.07333e-08
1.36124e-10
3.06921e-08
1.1941e-10
3.06539e-08
1.05653e-10
3.06184e-08
9.50155e-11
3.05854e-08
8.78954e-11
3.05549e-08
8.53906e-11
8.96056e-11
3.8587e-08
2.29297e-09
-3.84833e-08
3.87217e-08
2.5452e-09
3.88705e-08
2.74115e-09
3.90227e-08
2.8807e-09
3.91723e-08
2.9707e-09
3.93147e-08
3.01703e-09
3.9446e-08
3.02448e-09
3.95635e-08
2.99861e-09
3.96653e-08
2.94583e-09
3.97507e-08
2.87276e-09
3.982e-08
2.78572e-09
3.98739e-08
2.6904e-09
3.99138e-08
2.59166e-09
3.99411e-08
2.49342e-09
3.99577e-08
2.39852e-09
3.9965e-08
2.30888e-09
3.99647e-08
2.22556e-09
3.99578e-08
2.14898e-09
3.99455e-08
2.07908e-09
3.99285e-08
2.0155e-09
3.99073e-08
1.9577e-09
3.98824e-08
1.90506e-09
3.98541e-08
1.85696e-09
3.98226e-08
1.81281e-09
3.9788e-08
1.77209e-09
3.97504e-08
1.73433e-09
3.97099e-08
1.69913e-09
3.96664e-08
1.66617e-09
3.96201e-08
1.63515e-09
3.9571e-08
1.60586e-09
3.9519e-08
1.57807e-09
3.94643e-08
1.55164e-09
3.94068e-08
1.5264e-09
3.93466e-08
1.50223e-09
3.92837e-08
1.47903e-09
3.92182e-08
1.4567e-09
3.91501e-08
1.43514e-09
3.90795e-08
1.41429e-09
3.90065e-08
1.39407e-09
3.8931e-08
1.37441e-09
3.88532e-08
1.35525e-09
3.8773e-08
1.33656e-09
3.86907e-08
1.31826e-09
3.86062e-08
1.30032e-09
3.85196e-08
1.28269e-09
3.84311e-08
1.26534e-09
3.83406e-08
1.24821e-09
3.82482e-08
1.23129e-09
3.81542e-08
1.21452e-09
3.80584e-08
1.19789e-09
3.79611e-08
1.18134e-09
3.78623e-08
1.16486e-09
3.77621e-08
1.14841e-09
3.76606e-08
1.13196e-09
3.75579e-08
1.11548e-09
3.74542e-08
1.09893e-09
3.73494e-08
1.0823e-09
3.72438e-08
1.06554e-09
3.71374e-08
1.04862e-09
3.70304e-08
1.03152e-09
3.69229e-08
1.0142e-09
3.68149e-08
9.96628e-10
3.67067e-08
9.78771e-10
3.65984e-08
9.60596e-10
3.649e-08
9.42068e-10
3.63818e-08
9.23153e-10
3.62738e-08
9.03813e-10
3.61662e-08
8.84015e-10
3.60592e-08
8.63722e-10
3.59529e-08
8.42897e-10
3.58475e-08
8.21505e-10
3.57431e-08
7.99511e-10
3.56398e-08
7.7688e-10
3.5538e-08
7.53579e-10
3.54377e-08
7.29576e-10
3.53391e-08
7.04842e-10
3.52424e-08
6.79348e-10
3.51478e-08
6.53069e-10
3.50555e-08
6.25984e-10
3.49655e-08
5.98077e-10
3.48782e-08
5.69342e-10
3.47937e-08
5.39786e-10
3.47121e-08
5.0944e-10
3.46335e-08
4.78365e-10
3.45581e-08
4.46669e-10
3.4486e-08
4.14517e-10
3.44172e-08
3.82147e-10
3.43517e-08
3.49874e-10
3.42895e-08
3.18089e-10
3.42306e-08
2.87249e-10
3.41749e-08
2.57848e-10
3.41223e-08
2.30375e-10
3.40727e-08
2.05268e-10
3.4026e-08
1.82877e-10
3.39819e-08
1.63445e-10
3.39405e-08
1.47133e-10
3.39014e-08
1.341e-10
3.38646e-08
1.24643e-10
3.38306e-08
1.19364e-10
1.18309e-10
3.9351e-08
2.20081e-09
-3.92588e-08
3.94704e-08
2.42579e-09
3.96045e-08
2.60703e-09
3.97439e-08
2.74131e-09
3.98826e-08
2.83202e-09
4.00162e-08
2.88341e-09
4.01412e-08
2.89953e-09
4.02548e-08
2.885e-09
4.03554e-08
2.84523e-09
4.04422e-08
2.78594e-09
4.05153e-08
2.71267e-09
4.05751e-08
2.6305e-09
4.06229e-08
2.54386e-09
4.066e-08
2.45635e-09
4.06878e-08
2.37074e-09
4.07077e-08
2.28894e-09
4.07212e-08
2.21214e-09
4.07292e-08
2.14093e-09
4.07328e-08
2.07546e-09
4.07328e-08
2.01555e-09
4.07296e-08
1.96085e-09
4.07238e-08
1.91088e-09
4.07156e-08
1.86516e-09
4.07053e-08
1.82318e-09
4.06929e-08
1.78449e-09
4.06785e-08
1.74868e-09
4.06622e-08
1.7154e-09
4.06441e-08
1.68432e-09
4.06241e-08
1.65518e-09
4.06021e-08
1.62777e-09
4.05783e-08
1.60187e-09
4.05527e-08
1.57733e-09
4.05251e-08
1.554e-09
4.04955e-08
1.53175e-09
4.04641e-08
1.51047e-09
4.04307e-08
1.49007e-09
4.03954e-08
1.47044e-09
4.03582e-08
1.45152e-09
4.0319e-08
1.43322e-09
4.0278e-08
1.41549e-09
4.0235e-08
1.39825e-09
4.01901e-08
1.38145e-09
4.01433e-08
1.36505e-09
4.00946e-08
1.34897e-09
4.00441e-08
1.3332e-09
3.99918e-08
1.31766e-09
3.99377e-08
1.30234e-09
3.98818e-08
1.28717e-09
3.98242e-08
1.27214e-09
3.97649e-08
1.25719e-09
3.97039e-08
1.24229e-09
3.96414e-08
1.22741e-09
3.95773e-08
1.21251e-09
3.95117e-08
1.19755e-09
3.94447e-08
1.18251e-09
3.93763e-08
1.16734e-09
3.93065e-08
1.15202e-09
3.92356e-08
1.1365e-09
3.91634e-08
1.12076e-09
3.90902e-08
1.10475e-09
3.9016e-08
1.08845e-09
3.89408e-08
1.0718e-09
3.88648e-08
1.05479e-09
3.8788e-08
1.03736e-09
3.87106e-08
1.01948e-09
3.86326e-08
1.0011e-09
3.85543e-08
9.82202e-10
3.84755e-08
9.62729e-10
3.83966e-08
9.42643e-10
3.83176e-08
9.21905e-10
3.82386e-08
9.00474e-10
3.81598e-08
8.7831e-10
3.80814e-08
8.55375e-10
3.80033e-08
8.3163e-10
3.79258e-08
8.07041e-10
3.78491e-08
7.81573e-10
3.77733e-08
7.55197e-10
3.76984e-08
7.27886e-10
3.76248e-08
6.99618e-10
3.75525e-08
6.70378e-10
3.74817e-08
6.40166e-10
3.74125e-08
6.08996e-10
3.7345e-08
5.76908e-10
3.72794e-08
5.43978e-10
3.72157e-08
5.10332e-10
3.71541e-08
4.76156e-10
3.70945e-08
4.41707e-10
3.70371e-08
4.07321e-10
3.69818e-08
3.7341e-10
3.69286e-08
3.40444e-10
3.68775e-08
3.08928e-10
3.68285e-08
2.79357e-10
3.67816e-08
2.52177e-10
3.67367e-08
2.27746e-10
3.66939e-08
2.06319e-10
3.66529e-08
1.88066e-10
3.66139e-08
1.73125e-10
3.65769e-08
1.61663e-10
3.65424e-08
1.53789e-10
1.47951e-10
4.01229e-08
2.11769e-09
-4.00398e-08
4.02298e-08
2.31895e-09
4.0351e-08
2.48579e-09
4.04786e-08
2.61371e-09
4.06069e-08
2.7037e-09
4.07318e-08
2.75857e-09
4.08497e-08
2.78154e-09
4.09583e-08
2.77644e-09
4.10558e-08
2.74777e-09
4.11412e-08
2.70044e-09
4.12146e-08
2.63928e-09
4.12763e-08
2.5688e-09
4.13272e-08
2.49298e-09
4.13684e-08
2.41516e-09
4.14012e-08
2.33797e-09
4.14268e-08
2.26331e-09
4.14465e-08
2.19244e-09
4.14613e-08
2.12608e-09
4.14723e-08
2.06455e-09
4.148e-08
2.00783e-09
4.14851e-08
1.95573e-09
4.14881e-08
1.90791e-09
4.14892e-08
1.864e-09
4.14888e-08
1.8236e-09
4.1487e-08
1.78632e-09
4.14838e-08
1.75181e-09
4.14795e-08
1.71974e-09
4.1474e-08
1.68984e-09
4.14673e-08
1.66186e-09
4.14595e-08
1.63559e-09
4.14505e-08
1.61085e-09
4.14404e-08
1.58746e-09
4.14291e-08
1.5653e-09
4.14166e-08
1.54423e-09
4.14029e-08
1.52416e-09
4.1388e-08
1.50497e-09
4.13719e-08
1.48658e-09
4.13545e-08
1.46891e-09
4.13358e-08
1.45188e-09
4.13159e-08
1.43543e-09
4.12946e-08
1.4195e-09
4.12721e-08
1.40401e-09
4.12482e-08
1.38893e-09
4.12229e-08
1.3742e-09
4.11964e-08
1.35977e-09
4.11685e-08
1.34558e-09
4.11392e-08
1.33161e-09
4.11085e-08
1.3178e-09
4.10766e-08
1.30412e-09
4.10432e-08
1.29051e-09
4.10086e-08
1.27696e-09
4.09726e-08
1.2634e-09
4.09353e-08
1.24982e-09
4.08967e-08
1.23616e-09
4.08568e-08
1.2224e-09
4.08156e-08
1.20848e-09
4.07733e-08
1.19439e-09
4.07297e-08
1.18007e-09
4.0685e-08
1.16549e-09
4.06391e-08
1.1506e-09
4.05922e-08
1.13538e-09
4.05442e-08
1.11977e-09
4.04953e-08
1.10374e-09
4.04454e-08
1.08724e-09
4.03946e-08
1.07023e-09
4.03431e-08
1.05267e-09
4.02908e-08
1.03451e-09
4.02378e-08
1.01571e-09
4.01842e-08
9.96218e-10
4.01301e-08
9.75995e-10
4.00756e-08
9.54995e-10
4.00207e-08
9.33173e-10
3.99656e-08
9.10487e-10
3.99104e-08
8.86894e-10
3.9855e-08
8.62357e-10
3.97998e-08
8.36838e-10
3.97447e-08
8.10304e-10
3.96898e-08
7.82727e-10
3.96354e-08
7.54086e-10
3.95814e-08
7.24368e-10
3.9528e-08
6.93573e-10
3.94752e-08
6.61723e-10
3.94233e-08
6.28867e-10
3.93722e-08
5.9509e-10
3.9322e-08
5.60529e-10
3.92727e-08
5.25383e-10
3.92245e-08
4.89921e-10
3.91774e-08
4.54487e-10
3.91313e-08
4.19498e-10
3.90863e-08
3.85425e-10
3.90424e-08
3.52771e-10
3.89998e-08
3.22026e-10
3.89583e-08
2.93633e-10
3.89181e-08
2.67952e-10
3.88792e-08
2.45243e-10
3.88416e-08
2.25677e-10
3.88053e-08
2.09362e-10
3.87707e-08
1.96338e-10
3.87381e-08
1.86321e-10
1.76822e-10
4.09034e-08
2.04184e-09
-4.08276e-08
4.09999e-08
2.22253e-09
4.11099e-08
2.37579e-09
4.12268e-08
2.49677e-09
4.13455e-08
2.58499e-09
4.1462e-08
2.64205e-09
4.15732e-08
2.67039e-09
4.16765e-08
2.67312e-09
4.17703e-08
2.65398e-09
4.18536e-08
2.61711e-09
4.19262e-08
2.5667e-09
4.19883e-08
2.50673e-09
4.20405e-08
2.44078e-09
4.20837e-08
2.37191e-09
4.21191e-08
2.30258e-09
4.21478e-08
2.23464e-09
4.21708e-08
2.16941e-09
4.21892e-08
2.1077e-09
4.22038e-08
2.04994e-09
4.22154e-08
1.99627e-09
4.22245e-08
1.94662e-09
4.22316e-08
1.90079e-09
4.22371e-08
1.8585e-09
4.22413e-08
1.81944e-09
4.22443e-08
1.7833e-09
4.22463e-08
1.74978e-09
4.22474e-08
1.71861e-09
4.22478e-08
1.68952e-09
4.22473e-08
1.6623e-09
4.22462e-08
1.63676e-09
4.22443e-08
1.61272e-09
4.22417e-08
1.59003e-09
4.22385e-08
1.56856e-09
4.22345e-08
1.54819e-09
4.22298e-08
1.52882e-09
4.22245e-08
1.51034e-09
4.22184e-08
1.49267e-09
4.22115e-08
1.47574e-09
4.2204e-08
1.45946e-09
4.21956e-08
1.44378e-09
4.21865e-08
1.42862e-09
4.21766e-08
1.41394e-09
4.21658e-08
1.39968e-09
4.21542e-08
1.38578e-09
4.21418e-08
1.37219e-09
4.21285e-08
1.35887e-09
4.21144e-08
1.34578e-09
4.20993e-08
1.33286e-09
4.20833e-08
1.32008e-09
4.20665e-08
1.30739e-09
4.20487e-08
1.29476e-09
4.20299e-08
1.28214e-09
4.20103e-08
1.26949e-09
4.19896e-08
1.25678e-09
4.19681e-08
1.24396e-09
4.19456e-08
1.23099e-09
4.19221e-08
1.21783e-09
4.18978e-08
1.20445e-09
4.18724e-08
1.1908e-09
4.18462e-08
1.17683e-09
4.18191e-08
1.16251e-09
4.17911e-08
1.1478e-09
4.17622e-08
1.13264e-09
4.17324e-08
1.11699e-09
4.17018e-08
1.1008e-09
4.16705e-08
1.08404e-09
4.16383e-08
1.06664e-09
4.16055e-08
1.04857e-09
4.15719e-08
1.02977e-09
4.15377e-08
1.0102e-09
4.15029e-08
9.89799e-10
4.14676e-08
9.68533e-10
4.14317e-08
9.46352e-10
4.13954e-08
9.23209e-10
4.13587e-08
8.99064e-10
4.13216e-08
8.73878e-10
4.12843e-08
8.47616e-10
4.12468e-08
8.20249e-10
4.12091e-08
7.91755e-10
4.11714e-08
7.62123e-10
4.11336e-08
7.31357e-10
4.10958e-08
6.99482e-10
4.10582e-08
6.66552e-10
4.10206e-08
6.32661e-10
4.09832e-08
5.97951e-10
4.09459e-08
5.62627e-10
4.09089e-08
5.2696e-10
4.08721e-08
4.91296e-10
4.08355e-08
4.56043e-10
4.07993e-08
4.21665e-10
4.07634e-08
3.88651e-10
4.0728e-08
3.57477e-10
4.0693e-08
3.28577e-10
4.06587e-08
3.02304e-10
4.0625e-08
2.78919e-10
4.05921e-08
2.58587e-10
4.056e-08
2.41386e-10
4.05291e-08
2.27256e-10
4.04998e-08
2.15658e-10
2.03824e-10
4.16932e-08
1.97196e-09
-4.16233e-08
4.17809e-08
2.13484e-09
4.18812e-08
2.27554e-09
4.19885e-08
2.38941e-09
4.20984e-08
2.47511e-09
4.22071e-08
2.53331e-09
4.23118e-08
2.56577e-09
4.24099e-08
2.57497e-09
4.24999e-08
2.56396e-09
4.25808e-08
2.53623e-09
4.26521e-08
2.49538e-09
4.2714e-08
2.4449e-09
4.27668e-08
2.38798e-09
4.28113e-08
2.3274e-09
4.28484e-08
2.26546e-09
4.28791e-08
2.20395e-09
4.29043e-08
2.14417e-09
4.2925e-08
2.08701e-09
4.2942e-08
2.03299e-09
4.29559e-08
1.98237e-09
4.29673e-08
1.93519e-09
4.29767e-08
1.89135e-09
4.29846e-08
1.85067e-09
4.29911e-08
1.81294e-09
4.29965e-08
1.77789e-09
4.3001e-08
1.74528e-09
4.30047e-08
1.71489e-09
4.30077e-08
1.68648e-09
4.30102e-08
1.65987e-09
4.3012e-08
1.63488e-09
4.30134e-08
1.61135e-09
4.30143e-08
1.58914e-09
4.30147e-08
1.56812e-09
4.30147e-08
1.54819e-09
4.30143e-08
1.52924e-09
4.30135e-08
1.51119e-09
4.30122e-08
1.49395e-09
4.30105e-08
1.47743e-09
4.30084e-08
1.46159e-09
4.30058e-08
1.44634e-09
4.30028e-08
1.43163e-09
4.29993e-08
1.4174e-09
4.29954e-08
1.40359e-09
4.2991e-08
1.39016e-09
4.29862e-08
1.37706e-09
4.29808e-08
1.36424e-09
4.29749e-08
1.35166e-09
4.29685e-08
1.33927e-09
4.29616e-08
1.32702e-09
4.29541e-08
1.31489e-09
4.2946e-08
1.30282e-09
4.29374e-08
1.29077e-09
4.29281e-08
1.27871e-09
4.29183e-08
1.2666e-09
4.29079e-08
1.25439e-09
4.28968e-08
1.24204e-09
4.28851e-08
1.22951e-09
4.28728e-08
1.21677e-09
4.28599e-08
1.20376e-09
4.28463e-08
1.19044e-09
4.2832e-08
1.17677e-09
4.28171e-08
1.1627e-09
4.28015e-08
1.14819e-09
4.27853e-08
1.1332e-09
4.27685e-08
1.11766e-09
4.2751e-08
1.10154e-09
4.27328e-08
1.08478e-09
4.27141e-08
1.06734e-09
4.26947e-08
1.04915e-09
4.26747e-08
1.03019e-09
4.26541e-08
1.01038e-09
4.26329e-08
9.89691e-10
4.26112e-08
9.68065e-10
4.2589e-08
9.4546e-10
4.25662e-08
9.2183e-10
4.2543e-08
8.97137e-10
4.25192e-08
8.71344e-10
4.24951e-08
8.44423e-10
4.24705e-08
8.16353e-10
4.24455e-08
7.87124e-10
4.24201e-08
7.56743e-10
4.23943e-08
7.25238e-10
4.23682e-08
6.92669e-10
4.23417e-08
6.59131e-10
4.23149e-08
6.24771e-10
4.22877e-08
5.89794e-10
4.22602e-08
5.54468e-10
4.22324e-08
5.1913e-10
4.22043e-08
4.84177e-10
4.21759e-08
4.50055e-10
4.21473e-08
4.17232e-10
4.21186e-08
3.86167e-10
4.20899e-08
3.57275e-10
4.20613e-08
3.309e-10
4.20329e-08
3.07297e-10
4.20049e-08
2.86624e-10
4.19773e-08
2.68935e-10
4.19505e-08
2.541e-10
4.19247e-08
2.41473e-10
2.28494e-10
4.24928e-08
1.90711e-09
-4.2428e-08
4.25732e-08
2.05452e-09
4.26649e-08
2.18377e-09
4.27637e-08
2.29062e-09
4.28655e-08
2.37329e-09
4.2967e-08
2.43181e-09
4.30655e-08
2.46735e-09
4.31586e-08
2.48182e-09
4.32449e-08
2.47771e-09
4.33232e-08
2.45794e-09
4.3393e-08
2.42556e-09
4.34543e-08
2.38362e-09
4.35073e-08
2.33495e-09
4.35526e-08
2.28206e-09
4.3591e-08
2.22707e-09
4.36233e-08
2.17169e-09
4.36502e-08
2.11719e-09
4.36727e-08
2.06451e-09
4.36915e-08
2.01423e-09
4.37072e-08
1.9667e-09
4.37203e-08
1.92204e-09
4.37314e-08
1.88027e-09
4.37408e-08
1.84128e-09
4.37488e-08