/*--------------------------------*- C++ -*----------------------------------*\
| =========                 |                                                 |
| \\      /  F ield         | OpenFOAM: The Open Source CFD Toolbox           |
|  \\    /   O peration     | Version:  2.3.0                                 |
|   \\  /    A nd           | Web:      www.OpenFOAM.org                      |
|    \\/     M anipulation  |                                                 |
\*---------------------------------------------------------------------------*/
FoamFile
{
    version     2.0;
    format      ascii;
    class       surfaceScalarField;
    location    "0.95";
    object      phi_0;
}
// * * * * * * * * * * * * * * * * * * * * * * * * * * * * * * * * * * * * * //

dimensions      [0 3 -1 0 0 0 0];

internalField   nonuniform List<scalar> 
3859
(
2.88216e-08
2.77032e-09
-3.15919e-08
2.53567e-08
3.46489e-09
2.1915e-08
3.44166e-09
1.87276e-08
3.18741e-09
1.58267e-08
2.90089e-09
1.32904e-08
2.53627e-09
1.12127e-08
2.0777e-09
9.60774e-09
1.605e-09
8.4376e-09
1.17014e-09
7.61646e-09
8.21143e-10
7.04622e-09
5.70238e-10
6.64261e-09
4.03609e-10
6.34338e-09
2.99228e-10
6.10597e-09
2.37414e-10
5.90213e-09
2.03835e-10
5.71561e-09
1.86521e-10
5.53892e-09
1.7669e-10
5.36974e-09
1.69178e-10
5.20814e-09
1.61605e-10
5.05487e-09
1.53268e-10
4.91061e-09
1.44255e-10
4.77567e-09
1.34944e-10
4.64994e-09
1.25727e-10
4.53302e-09
1.16922e-10
4.4243e-09
1.08721e-10
4.32307e-09
1.01231e-10
4.2286e-09
9.44696e-11
4.14018e-09
8.84197e-11
4.05716e-09
8.30176e-11
3.97896e-09
7.82003e-11
3.90508e-09
7.3884e-11
3.83507e-09
7.00077e-11
3.76857e-09
6.64975e-11
3.70526e-09
6.33101e-11
3.64487e-09
6.03874e-11
3.58717e-09
5.77051e-11
3.53195e-09
5.52178e-11
3.47904e-09
5.29165e-11
3.42827e-09
5.07644e-11
3.37951e-09
4.87634e-11
3.33263e-09
4.68809e-11
3.2875e-09
4.5127e-11
3.24403e-09
4.34698e-11
3.2021e-09
4.19258e-11
3.16164e-09
4.04614e-11
3.12254e-09
3.90989e-11
3.08474e-09
3.78012e-11
3.04815e-09
3.65963e-11
3.0127e-09
3.54428e-11
2.97833e-09
3.43747e-11
2.94498e-09
3.33453e-11
2.91259e-09
3.23955e-11
2.88112e-09
3.14719e-11
2.85049e-09
3.06244e-11
2.8207e-09
2.97908e-11
2.79167e-09
2.90314e-11
2.7634e-09
2.82743e-11
2.7358e-09
2.75911e-11
2.70891e-09
2.68987e-11
2.68262e-09
2.6282e-11
2.65698e-09
2.56443e-11
2.63189e-09
2.50864e-11
2.6074e-09
2.44947e-11
2.58341e-09
2.39895e-11
2.55997e-09
2.34366e-11
2.53699e-09
2.2979e-11
2.51453e-09
2.24587e-11
2.49249e-09
2.2045e-11
2.47094e-09
2.15515e-11
2.44976e-09
2.11795e-11
2.42905e-09
2.07072e-11
2.40868e-09
2.03754e-11
2.38876e-09
1.99198e-11
2.36913e-09
1.96272e-11
2.34994e-09
1.91836e-11
2.33101e-09
1.8931e-11
2.31252e-09
1.84941e-11
2.29424e-09
1.82838e-11
2.27639e-09
1.78483e-11
2.2587e-09
1.76832e-11
2.24146e-09
1.72438e-11
2.22433e-09
1.71285e-11
2.20765e-09
1.66792e-11
2.19103e-09
1.66207e-11
2.17488e-09
1.61541e-11
2.15872e-09
1.61625e-11
2.14305e-09
1.56689e-11
2.12729e-09
1.57579e-11
2.11206e-09
1.5226e-11
2.09665e-09
1.54139e-11
2.08182e-09
1.48288e-11
2.06668e-09
1.51418e-11
2.0522e-09
1.44818e-11
2.03724e-09
1.49591e-11
2.02305e-09
1.41917e-11
2.00815e-09
1.48951e-11
1.99418e-09
1.39668e-11
1.97915e-09
1.5032e-11
1.96526e-09
1.38876e-11
1.75463e-11
3.62376e-08
2.47166e-09
-3.5939e-08
3.60723e-08
3.63025e-09
3.53685e-08
4.14538e-09
3.43818e-08
4.17412e-09
3.32252e-08
4.05752e-09
3.19187e-08
3.84278e-09
3.04859e-08
3.51045e-09
2.90037e-08
3.08722e-09
2.75474e-08
2.62644e-09
2.61716e-08
2.197e-09
2.49e-08
1.84181e-09
2.37346e-08
1.56898e-09
2.26726e-08
1.36129e-09
2.17123e-08
1.19765e-09
2.08444e-08
1.07178e-09
2.00583e-08
9.72656e-10
1.93438e-08
8.91115e-10
1.8692e-08
8.2097e-10
1.80951e-08
7.58585e-10
1.75463e-08
7.02045e-10
1.70402e-08
6.50378e-10
1.6572e-08
6.0312e-10
1.61377e-08
5.59996e-10
1.57338e-08
5.20821e-10
1.53572e-08
4.8537e-10
1.5005e-08
4.534e-10
1.46748e-08
4.24618e-10
1.43645e-08
3.98739e-10
1.40721e-08
3.75438e-10
1.37959e-08
3.5443e-10
1.35344e-08
3.35409e-10
1.32862e-08
3.18138e-10
1.30504e-08
3.02369e-10
1.28257e-08
2.8793e-10
1.26115e-08
2.74629e-10
1.24068e-08
2.62355e-10
1.22111e-08
2.50963e-10
1.20236e-08
2.40386e-10
1.18439e-08
2.30511e-10
1.16713e-08
2.21305e-10
1.15055e-08
2.12674e-10
1.13461e-08
2.04609e-10
1.11925e-08
1.97023e-10
1.10445e-08
1.89926e-10
1.09017e-08
1.83232e-10
1.07639e-08
1.76965e-10
1.06306e-08
1.71039e-10
1.05017e-08
1.65488e-10
1.0377e-08
1.60223e-10
1.0256e-08
1.5529e-10
1.01388e-08
1.50593e-10
1.0025e-08
1.46193e-10
9.91449e-09
1.41984e-10
9.80707e-09
1.38043e-10
9.70261e-09
1.34251e-10
9.60094e-09
1.30706e-10
9.50194e-09
1.27273e-10
9.40546e-09
1.24069e-10
9.31142e-09
1.20944e-10
9.21966e-09
1.18037e-10
9.13013e-09
1.15177e-10
9.04268e-09
1.1253e-10
8.95728e-09
1.09898e-10
8.87379e-09
1.0748e-10
8.79218e-09
1.05046e-10
8.71233e-09
1.02831e-10
8.63422e-09
1.0057e-10
8.55773e-09
9.85371e-11
8.48285e-09
9.64246e-11
8.40947e-09
9.45577e-11
8.33761e-09
9.25739e-11
8.26712e-09
9.08595e-11
8.19806e-09
8.89877e-11
8.13027e-09
8.74149e-11
8.06381e-09
8.56399e-11
7.99854e-09
8.42019e-11
7.93453e-09
8.25088e-11
7.87161e-09
8.12029e-11
7.80988e-09
7.95784e-11
7.74916e-09
7.8404e-11
7.68956e-09
7.68364e-11
7.63089e-09
7.57969e-11
7.5733e-09
7.42756e-11
7.51654e-09
7.33788e-11
7.4608e-09
7.1893e-11
7.40581e-09
7.11533e-11
7.35179e-09
6.96902e-11
7.29842e-09
6.91292e-11
7.24597e-09
6.76771e-11
7.19406e-09
6.73244e-11
7.14301e-09
6.58711e-11
7.09239e-09
6.57688e-11
7.04257e-09
6.42977e-11
6.99302e-09
6.45096e-11
6.94421e-09
6.29985e-11
6.89548e-09
6.36239e-11
6.84741e-09
6.20404e-11
6.79909e-09
6.33575e-11
6.75112e-09
6.18549e-11
6.77205e-11
4.02781e-08
2.34686e-09
-4.01533e-08
4.07051e-08
3.20329e-09
4.09713e-08
3.87921e-09
4.10463e-08
4.09905e-09
4.10064e-08
4.09746e-09
4.08474e-08
4.00179e-09
4.05337e-08
3.82413e-09
4.00653e-08
3.55566e-09
3.94717e-08
3.22004e-09
3.87963e-08
2.87237e-09
3.80761e-08
2.56203e-09
3.73347e-08
2.31038e-09
3.6585e-08
2.11099e-09
3.58332e-08
1.94942e-09
3.50875e-08
1.8175e-09
3.43528e-08
1.70738e-09
3.36319e-08
1.61194e-09
3.29268e-08
1.52605e-09
3.22389e-08
1.44656e-09
3.15691e-08
1.37177e-09
3.09186e-08
1.30089e-09
3.02881e-08
1.23361e-09
2.96783e-08
1.16983e-09
2.90895e-08
1.10959e-09
2.8522e-08
1.05287e-09
2.79758e-08
9.99643e-10
2.74506e-08
9.49818e-10
2.6946e-08
9.03292e-10
2.64616e-08
8.59881e-10
2.59966e-08
8.1941e-10
2.55504e-08
7.81656e-10
2.51221e-08
7.46433e-10
2.47109e-08
7.13524e-10
2.43161e-08
6.82768e-10
2.39367e-08
6.5397e-10
2.35721e-08
6.27005e-10
2.32214e-08
6.01704e-10
2.28838e-08
5.77971e-10
2.25586e-08
5.55662e-10
2.22452e-08
5.34706e-10
2.19429e-08
5.14974e-10
2.16511e-08
4.96416e-10
2.13692e-08
4.78916e-10
2.10967e-08
4.62438e-10
2.08331e-08
4.46876e-10
2.05778e-08
4.32207e-10
2.03305e-08
4.18329e-10
2.00908e-08
4.05232e-10
1.98582e-08
3.92818e-10
1.96324e-08
3.81086e-10
1.9413e-08
3.69943e-10
1.91998e-08
3.59397e-10
1.89925e-08
3.49356e-10
1.87907e-08
3.39841e-10
1.85942e-08
3.30757e-10
1.84027e-08
3.22138e-10
1.82161e-08
3.13888e-10
1.80341e-08
3.06049e-10
1.78566e-08
2.98526e-10
1.76832e-08
2.91369e-10
1.75139e-08
2.84482e-10
1.73485e-08
2.77924e-10
1.71868e-08
2.71595e-10
1.70287e-08
2.65564e-10
1.68741e-08
2.59728e-10
1.67227e-08
2.54162e-10
1.65745e-08
2.48762e-10
1.64295e-08
2.43609e-10
1.62873e-08
2.38596e-10
1.6148e-08
2.33812e-10
1.60115e-08
2.29144e-10
1.58776e-08
2.24691e-10
1.57463e-08
2.20334e-10
1.56175e-08
2.16177e-10
1.54911e-08
2.12102e-10
1.53671e-08
2.08215e-10
1.52452e-08
2.04396e-10
1.51256e-08
2.00759e-10
1.5008e-08
1.97177e-10
1.48926e-08
1.93772e-10
1.47791e-08
1.90412e-10
1.46676e-08
1.87227e-10
1.45578e-08
1.84081e-10
1.44501e-08
1.81109e-10
1.43438e-08
1.78175e-10
1.42396e-08
1.75418e-10
1.41365e-08
1.72697e-10
1.40355e-08
1.70164e-10
1.39355e-08
1.67665e-10
1.38375e-08
1.65374e-10
1.37402e-08
1.63118e-10
1.36449e-08
1.61099e-10
1.35501e-08
1.59112e-10
1.34572e-08
1.57428e-10
1.33644e-08
1.55733e-10
1.32735e-08
1.5452e-10
1.31825e-08
1.53107e-10
1.30929e-08
1.52949e-10
1.30027e-08
1.51991e-10
1.57111e-10
4.47471e-08
2.29286e-09
-4.46931e-08
4.5064e-08
2.88635e-09
4.54661e-08
3.47719e-09
4.57786e-08
3.78648e-09
4.60193e-08
3.85677e-09
4.62149e-08
3.80624e-09
4.63436e-08
3.69544e-09
4.63786e-08
3.52065e-09
4.63098e-08
3.28881e-09
4.61512e-08
3.031e-09
4.59283e-08
2.78488e-09
4.5662e-08
2.57668e-09
4.53635e-08
2.40948e-09
4.50373e-08
2.27563e-09
4.46889e-08
2.16596e-09
4.43227e-08
2.07349e-09
4.39419e-08
1.99281e-09
4.3548e-08
1.91989e-09
4.31426e-08
1.85199e-09
4.27269e-08
1.78751e-09
4.23022e-08
1.72558e-09
4.187e-08
1.66579e-09
4.14318e-08
1.60801e-09
4.09892e-08
1.55223e-09
4.05436e-08
1.4985e-09
4.00963e-08
1.44686e-09
3.96488e-08
1.39733e-09
3.92022e-08
1.3499e-09
3.87576e-08
1.30453e-09
3.83158e-08
1.26115e-09
3.78778e-08
1.21966e-09
3.74443e-08
1.17996e-09
3.70159e-08
1.14197e-09
3.65931e-08
1.10557e-09
3.61763e-08
1.07071e-09
3.5766e-08
1.03728e-09
3.53625e-08
1.00523e-09
3.4966e-08
9.74497e-10
3.45766e-08
9.45027e-10
3.41946e-08
9.16756e-10
3.38199e-08
8.89661e-10
3.34526e-08
8.63667e-10
3.30928e-08
8.38769e-10
3.27403e-08
8.14886e-10
3.23952e-08
7.92023e-10
3.20573e-08
7.70089e-10
3.17265e-08
7.49107e-10
3.14028e-08
7.28969e-10
3.10859e-08
7.09716e-10
3.07758e-08
6.91222e-10
3.04721e-08
6.73551e-10
3.0175e-08
6.56554e-10
2.9884e-08
6.40323e-10
2.95992e-08
6.24682e-10
2.93202e-08
6.09758e-10
2.9047e-08
5.95341e-10
2.87793e-08
5.81598e-10
2.8517e-08
5.68282e-10
2.82599e-08
5.55608e-10
2.8008e-08
5.43278e-10
2.7761e-08
5.31569e-10
2.75188e-08
5.20123e-10
2.72811e-08
5.09286e-10
2.7048e-08
4.98629e-10
2.68191e-08
4.88583e-10
2.65947e-08
4.7863e-10
2.63741e-08
4.69303e-10
2.61578e-08
4.59975e-10
2.59451e-08
4.51304e-10
2.57363e-08
4.42535e-10
2.5531e-08
4.34464e-10
2.53295e-08
4.2619e-10
2.51312e-08
4.18677e-10
2.49365e-08
4.10838e-10
2.47448e-08
4.03849e-10
2.45566e-08
3.96394e-10
2.43711e-08
3.899e-10
2.41891e-08
3.82785e-10
2.40095e-08
3.76768e-10
2.38333e-08
3.69952e-10
2.36593e-08
3.64404e-10
2.34887e-08
3.57851e-10
2.332e-08
3.52777e-10
2.31546e-08
3.46455e-10
2.29909e-08
3.41872e-10
2.28306e-08
3.35761e-10
2.26716e-08
3.31692e-10
2.2516e-08
3.2578e-10
2.23614e-08
3.22267e-10
2.22102e-08
3.16557e-10
2.20597e-08
3.13655e-10
2.19126e-08
3.08179e-10
2.17658e-08
3.0594e-10
2.16224e-08
3.00796e-10
2.14789e-08
2.99244e-10
2.13387e-08
2.94694e-10
2.1198e-08
2.93776e-10
2.10602e-08
2.90759e-10
2.09215e-08
2.90682e-10
2.92403e-10
4.96967e-08
2.23094e-09
-4.96347e-08
4.99133e-08
2.66966e-09
5.0269e-08
3.12154e-09
5.06109e-08
3.44459e-09
5.08932e-08
3.57441e-09
5.11326e-08
3.56688e-09
5.13411e-08
3.48693e-09
5.15029e-08
3.35885e-09
5.16011e-08
3.19064e-09
5.16342e-08
2.9979e-09
5.16154e-08
2.80369e-09
5.15627e-08
2.62931e-09
5.1487e-08
2.48524e-09
5.13923e-08
2.37034e-09
5.12816e-08
2.27667e-09
5.11573e-08
2.19772e-09
5.10211e-08
2.129e-09
5.08737e-08
2.06736e-09
5.0715e-08
2.01065e-09
5.05451e-08
1.95738e-09
5.0364e-08
1.90668e-09
5.01718e-08
1.858e-09
4.99687e-08
1.81108e-09
4.97552e-08
1.76575e-09
4.95317e-08
1.72199e-09
4.92989e-08
1.67974e-09
4.90572e-08
1.63901e-09
4.88073e-08
1.59976e-09
4.85499e-08
1.56197e-09
4.82855e-08
1.52552e-09
4.80147e-08
1.49042e-09
4.77382e-08
1.45649e-09
4.74564e-08
1.42374e-09
4.717e-08
1.392e-09
4.68794e-08
1.36131e-09
4.65852e-08
1.3315e-09
4.62878e-08
1.30264e-09
4.59877e-08
1.27455e-09
4.56854e-08
1.24735e-09
4.53813e-08
1.22084e-09
4.50758e-08
1.19517e-09
4.47694e-08
1.17013e-09
4.44622e-08
1.14591e-09
4.41548e-08
1.12225e-09
4.38475e-08
1.09941e-09
4.35405e-08
1.07707e-09
4.32341e-08
1.05553e-09
4.29286e-08
1.03443e-09
4.26242e-08
1.01414e-09
4.23212e-08
9.94201e-10
4.20197e-08
9.7509e-10
4.172e-08
9.5625e-10
4.1422e-08
9.3825e-10
4.11263e-08
9.20435e-10
4.08326e-08
9.03482e-10
4.05413e-08
8.8662e-10
4.02522e-08
8.70652e-10
3.99658e-08
8.5467e-10
3.96818e-08
8.39631e-10
3.94006e-08
8.24458e-10
3.91219e-08
8.10295e-10
3.88462e-08
7.95865e-10
3.85729e-08
7.82526e-10
3.83028e-08
7.68775e-10
3.80351e-08
7.56217e-10
3.77707e-08
7.4308e-10
3.75087e-08
7.31266e-10
3.725e-08
7.18682e-10
3.69937e-08
7.07576e-10
3.67408e-08
6.95487e-10
3.64902e-08
6.85063e-10
3.6243e-08
6.7341e-10
3.5998e-08
6.63649e-10
3.57565e-08
6.52373e-10
3.55171e-08
6.43265e-10
3.52811e-08
6.32312e-10
3.50472e-08
6.23849e-10
3.48168e-08
6.13171e-10
3.45882e-08
6.05357e-10
3.43633e-08
5.94902e-10
3.41399e-08
5.87756e-10
3.39203e-08
5.77477e-10
3.3702e-08
5.71029e-10
3.34876e-08
5.60886e-10
3.32743e-08
5.55176e-10
3.30649e-08
5.45142e-10
3.28564e-08
5.40222e-10
3.26519e-08
5.30287e-10
3.24479e-08
5.26219e-10
3.22481e-08
5.16401e-10
3.20485e-08
5.13256e-10
3.1853e-08
5.03622e-10
3.16575e-08
5.01458e-10
3.14661e-08
4.9218e-10
3.12744e-08
4.91017e-10
3.10866e-08
4.82476e-10
3.0898e-08
4.82324e-10
3.07132e-08
4.75548e-10
3.05272e-08
4.76762e-10
4.73417e-10
5.51391e-08
2.15619e-09
-5.50644e-08
5.53085e-08
2.50028e-09
5.55938e-08
2.8363e-09
5.591e-08
3.12834e-09
5.61942e-08
3.29021e-09
5.6433e-08
3.32812e-09
5.66382e-08
3.28168e-09
5.68106e-08
3.1865e-09
5.69407e-08
3.06052e-09
5.70236e-08
2.91495e-09
5.70646e-08
2.76267e-09
5.70761e-08
2.61784e-09
5.70696e-08
2.49175e-09
5.70515e-08
2.38845e-09
5.70246e-08
2.30355e-09
5.69908e-08
2.23156e-09
5.69512e-08
2.16858e-09
5.69066e-08
2.11195e-09
5.68572e-08
2.06007e-09
5.68028e-08
2.01175e-09
5.67432e-08
1.96632e-09
5.6678e-08
1.92314e-09
5.66071e-08
1.88201e-09
5.65303e-08
1.84259e-09
5.64474e-08
1.80488e-09
5.63584e-08
1.76867e-09
5.62634e-08
1.73404e-09
5.61624e-08
1.70078e-09
5.60554e-08
1.669e-09
5.59425e-08
1.63844e-09
5.58236e-08
1.60922e-09
5.56991e-08
1.58102e-09
5.55688e-08
1.55403e-09
5.5433e-08
1.52785e-09
5.52916e-08
1.50274e-09
5.51448e-08
1.47828e-09
5.49926e-08
1.45479e-09
5.48354e-08
1.4318e-09
5.4673e-08
1.40973e-09
5.45058e-08
1.38804e-09
5.43337e-08
1.36723e-09
5.41572e-08
1.34668e-09
5.39761e-08
1.32701e-09
5.37908e-08
1.30751e-09
5.36014e-08
1.28889e-09
5.34081e-08
1.27032e-09
5.3211e-08
1.25268e-09
5.30104e-08
1.23497e-09
5.28063e-08
1.21823e-09
5.25992e-08
1.2013e-09
5.23889e-08
1.1854e-09
5.2176e-08
1.16918e-09
5.19602e-08
1.15405e-09
5.17421e-08
1.13847e-09
5.15216e-08
1.12407e-09
5.12991e-08
1.10906e-09
5.10744e-08
1.09534e-09
5.08482e-08
1.08084e-09
5.06201e-08
1.06776e-09
5.03909e-08
1.0537e-09
5.01599e-08
1.04123e-09
4.99282e-08
1.02756e-09
4.96951e-08
1.01568e-09
4.94615e-08
1.00234e-09
4.92267e-08
9.91016e-10
4.89918e-08
9.7796e-10
4.87559e-08
9.67188e-10
4.85202e-08
9.54362e-10
4.82837e-08
9.44133e-10
4.80477e-08
9.31493e-10
4.78109e-08
9.21803e-10
4.75751e-08
9.093e-10
4.73385e-08
9.00163e-10
4.71032e-08
8.87745e-10
4.68673e-08
8.79177e-10
4.66328e-08
8.66801e-10
4.63978e-08
8.5882e-10
4.61645e-08
8.46448e-10
4.59308e-08
8.39086e-10
4.5699e-08
8.26678e-10
4.54668e-08
8.19976e-10
4.52368e-08
8.075e-10
4.50063e-08
8.01512e-10
4.47782e-08
7.88944e-10
4.45497e-08
7.83733e-10
4.43237e-08
7.71068e-10
4.40973e-08
7.66702e-10
4.38736e-08
7.53966e-10
4.36493e-08
7.50519e-10
4.34279e-08
7.37769e-10
4.32058e-08
7.35328e-10
4.29868e-08
7.22684e-10
4.27669e-08
7.21328e-10
4.25501e-08
7.09019e-10
4.23323e-08
7.08828e-10
4.21175e-08
6.97281e-10
4.19013e-08
6.98444e-10
4.16884e-08
6.88528e-10
4.14737e-08
6.91418e-10
6.83792e-10
6.11288e-08
2.07684e-09
-6.10494e-08
6.12754e-08
2.35368e-09
6.14981e-08
2.61362e-09
6.17729e-08
2.85357e-09
6.20406e-08
3.02249e-09
6.22755e-08
3.09315e-09
6.24734e-08
3.08384e-09
6.26381e-08
3.02176e-09
6.27694e-08
2.92921e-09
6.28649e-08
2.81952e-09
6.29256e-08
2.70188e-09
6.29584e-08
2.58508e-09
6.29725e-08
2.47768e-09
6.29758e-08
2.38508e-09
6.29723e-08
2.30714e-09
6.29637e-08
2.24015e-09
6.29513e-08
2.18098e-09
6.2936e-08
2.12719e-09
6.29185e-08
2.0776e-09
6.28991e-08
2.03119e-09
6.28778e-08
1.98763e-09
6.28546e-08
1.94629e-09
6.28294e-08
1.90718e-09
6.28022e-08
1.86978e-09
6.27729e-08
1.83427e-09
6.27413e-08
1.80021e-09
6.27075e-08
1.7679e-09
6.26714e-08
1.73687e-09
6.26329e-08
1.7075e-09
6.2592e-08
1.67925e-09
6.25487e-08
1.65256e-09
6.25029e-08
1.6268e-09
6.24545e-08
1.60249e-09
6.24034e-08
1.5789e-09
6.23495e-08
1.55665e-09
6.22928e-08
1.53494e-09
6.22331e-08
1.5145e-09
6.21705e-08
1.49441e-09
6.21047e-08
1.47556e-09
6.20358e-08
1.45688e-09
6.19636e-08
1.43944e-09
6.18883e-08
1.42202e-09
6.18095e-08
1.40584e-09
6.17274e-08
1.38952e-09
6.16419e-08
1.37449e-09
6.1553e-08
1.35915e-09
6.14605e-08
1.34516e-09
6.13648e-08
1.33069e-09
6.12654e-08
1.31765e-09
6.11628e-08
1.30394e-09
6.10564e-08
1.29175e-09
6.09469e-08
1.2787e-09
6.08336e-08
1.2673e-09
6.07173e-08
1.25481e-09
6.05973e-08
1.24412e-09
6.04742e-08
1.2321e-09
6.03475e-08
1.22205e-09
6.02179e-08
1.21042e-09
6.00847e-08
1.20097e-09
5.99488e-08
1.18964e-09
5.98093e-08
1.18073e-09
5.96672e-08
1.16963e-09
5.95217e-08
1.16123e-09
5.93737e-08
1.15029e-09
5.92224e-08
1.14236e-09
5.90688e-08
1.13151e-09
5.8912e-08
1.12404e-09
5.87531e-08
1.11321e-09
5.85911e-08
1.10619e-09
5.84272e-08
1.09534e-09
5.82603e-08
1.08874e-09
5.80918e-08
1.07781e-09
5.79203e-08
1.07165e-09
5.77475e-08
1.06058e-09
5.75718e-08
1.05487e-09
5.7395e-08
1.04362e-09
5.72154e-08
1.03838e-09
5.70349e-08
1.02692e-09
5.68518e-08
1.02217e-09
5.66681e-08
1.01046e-09
5.64818e-08
1.00624e-09
5.6295e-08
9.9427e-10
5.61059e-08
9.9062e-10
5.59165e-08
9.78386e-10
5.57248e-08
9.75371e-10
5.5533e-08
9.62894e-10
5.53391e-08
9.6057e-10
5.51452e-08
9.47912e-10
5.49494e-08
9.46351e-10
5.47535e-08
9.33606e-10
5.4556e-08
9.32903e-10
5.43584e-08
9.20226e-10
5.41593e-08
9.20491e-10
5.39601e-08
9.08138e-10
5.37594e-08
9.09536e-10
5.35588e-08
8.97932e-10
5.33564e-08
9.00795e-10
5.31544e-08
8.90573e-10
5.29507e-08
8.95113e-10
8.86778e-10
6.77288e-08
1.99858e-09
-6.76505e-08
6.78576e-08
2.22491e-09
6.80379e-08
2.43327e-09
6.82658e-08
2.62563e-09
6.85059e-08
2.7824e-09
6.87292e-08
2.86985e-09
6.89209e-08
2.89214e-09
6.90792e-08
2.86352e-09
6.92066e-08
2.80181e-09
6.93048e-08
2.72126e-09
6.93749e-08
2.63183e-09
6.94198e-08
2.54014e-09
6.94454e-08
2.45209e-09
6.94586e-08
2.37189e-09
6.94642e-08
2.30162e-09
6.94644e-08
2.23992e-09
6.94605e-08
2.18481e-09
6.94537e-08
2.13407e-09
6.94445e-08
2.08682e-09
6.94336e-08
2.04203e-09
6.94215e-08
1.99976e-09
6.94084e-08
1.95936e-09
6.93944e-08
1.92114e-09
6.93798e-08
1.88446e-09
6.93643e-08
1.84972e-09
6.93482e-08
1.81627e-09
6.93315e-08
1.78464e-09
6.93143e-08
1.7541e-09
6.92964e-08
1.72534e-09
6.92782e-08
1.6975e-09
6.92594e-08
1.67139e-09
6.92401e-08
1.64604e-09
6.92203e-08
1.62236e-09
6.91999e-08
1.59925e-09
6.91788e-08
1.57774e-09
6.91572e-08
1.55661e-09
6.91346e-08
1.53705e-09
6.91114e-08
1.51766e-09
6.90871e-08
1.49985e-09
6.90619e-08
1.48203e-09
6.90356e-08
1.4658e-09
6.90082e-08
1.44937e-09
6.89795e-08
1.43458e-09
6.89496e-08
1.4194e-09
6.89182e-08
1.40592e-09
6.88854e-08
1.39187e-09
6.8851e-08
1.3796e-09
6.88152e-08
1.36654e-09
6.87774e-08
1.35539e-09
6.87381e-08
1.34321e-09
6.86968e-08
1.33307e-09
6.86539e-08
1.32166e-09
6.86087e-08
1.31245e-09
6.85618e-08
1.30171e-09
6.85126e-08
1.29334e-09
6.84615e-08
1.28317e-09
6.8408e-08
1.27556e-09
6.83526e-08
1.26586e-09
6.82946e-08
1.25896e-09
6.82346e-08
1.24963e-09
6.8172e-08
1.24337e-09
6.81073e-08
1.23433e-09
6.80398e-08
1.22865e-09
6.79703e-08
1.21982e-09
6.7898e-08
1.21469e-09
6.78235e-08
1.20599e-09
6.77462e-08
1.20136e-09
6.76667e-08
1.19272e-09
6.75843e-08
1.18856e-09
6.74997e-08
1.17992e-09
6.74123e-08
1.17619e-09
6.73226e-08
1.16749e-09
6.723e-08
1.16419e-09
6.71352e-08
1.15537e-09
6.70376e-08
1.15248e-09
6.69377e-08
1.14351e-09
6.68351e-08
1.14102e-09
6.67302e-08
1.13185e-09
6.66226e-08
1.12978e-09
6.65126e-08
1.1204e-09
6.64001e-08
1.11872e-09
6.62853e-08
1.10914e-09
6.6168e-08
1.1079e-09
6.60483e-08
1.0981e-09
6.59263e-08
1.09733e-09
6.58018e-08
1.08736e-09
6.56753e-08
1.0871e-09
6.55462e-08
1.07705e-09
6.54152e-08
1.07736e-09
6.52815e-08
1.06732e-09
6.51461e-08
1.06829e-09
6.50079e-08
1.05844e-09
6.48681e-08
1.0602e-09
6.47255e-08
1.0508e-09
6.45814e-08
1.05359e-09
6.44343e-08
1.04503e-09
6.42859e-08
1.04918e-09
6.41346e-08
1.04192e-09
6.39822e-08
1.04752e-09
1.04235e-09
6.79273e-08
1.93343e-09
-6.78622e-08
6.80285e-08
2.12369e-09
6.81656e-08
2.29625e-09
6.83356e-08
2.45558e-09
6.85248e-08
2.59321e-09
6.87101e-08
2.68451e-09
6.88765e-08
2.72577e-09
6.9017e-08
2.72299e-09
6.91313e-08
2.68754e-09
6.92213e-08
2.63121e-09
6.92892e-08
2.56401e-09
6.9337e-08
2.49234e-09
6.9368e-08
2.42109e-09
6.93866e-08
2.35324e-09
6.9397e-08
2.29126e-09
6.94018e-08
2.2351e-09
6.94025e-08
2.18415e-09
6.93999e-08
2.13659e-09
6.93949e-08
2.09188e-09
6.9388e-08
2.04896e-09
6.93796e-08
2.00813e-09
6.93702e-08
1.96873e-09
6.936e-08
1.93133e-09
6.93493e-08
1.8952e-09
6.9338e-08
1.86098e-09
6.93265e-08
1.82783e-09
6.93146e-08
1.79651e-09
6.93026e-08
1.76607e-09
6.92905e-08
1.73743e-09
6.92785e-08
1.70953e-09
6.92665e-08
1.68342e-09
6.92546e-08
1.65791e-09
6.92428e-08
1.63417e-09
6.92312e-08
1.61086e-09
6.92196e-08
1.58929e-09
6.92083e-08
1.56797e-09
6.91969e-08
1.54839e-09
6.91857e-08
1.52886e-09
6.91745e-08
1.51109e-09
6.91634e-08
1.49317e-09
6.91521e-08
1.47705e-09
6.91409e-08
1.4606e-09
6.91294e-08
1.44601e-09
6.9118e-08
1.43089e-09
6.91062e-08
1.4177e-09
6.90942e-08
1.4038e-09
6.90819e-08
1.39191e-09
6.90694e-08
1.37909e-09
6.90564e-08
1.36841e-09
6.9043e-08
1.35656e-09
6.90291e-08
1.347e-09
6.90147e-08
1.33603e-09
6.89997e-08
1.32748e-09
6.89841e-08
1.31728e-09
6.89678e-08
1.30966e-09
6.89508e-08
1.30013e-09
6.8933e-08
1.29338e-09
6.89144e-08
1.28442e-09
6.88949e-08
1.27846e-09
6.88746e-08
1.26999e-09
6.88532e-08
1.26475e-09
6.88308e-08
1.25668e-09
6.88074e-08
1.2521e-09
6.87829e-08
1.24436e-09
6.87572e-08
1.24039e-09
6.87303e-08
1.23289e-09
6.87022e-08
1.22947e-09
6.86727e-08
1.22217e-09
6.8642e-08
1.21925e-09
6.86098e-08
1.21208e-09
6.85764e-08
1.20964e-09
6.85414e-08
1.20252e-09
6.8505e-08
1.20053e-09
6.8467e-08
1.19344e-09
6.84276e-08
1.19184e-09
6.83864e-08
1.18475e-09
6.83439e-08
1.18354e-09
6.82993e-08
1.17639e-09
6.82535e-08
1.17556e-09
6.82055e-08
1.16837e-09
6.81564e-08
1.16789e-09
6.81049e-08
1.16066e-09
6.80522e-08
1.16054e-09
6.7997e-08
1.15327e-09
6.79408e-08
1.15355e-09
6.78819e-08
1.14629e-09
6.7822e-08
1.14698e-09
6.77593e-08
1.13982e-09
6.76956e-08
1.14099e-09
6.76289e-08
1.13404e-09
6.75614e-08
1.13577e-09
6.74907e-08
1.1292e-09
6.74192e-08
1.13165e-09
6.73443e-08
1.1257e-09
6.72688e-08
1.12912e-09
6.71897e-08
1.12416e-09
6.711e-08
1.12884e-09
6.70267e-08
1.12521e-09
6.69427e-08
1.13151e-09
1.12984e-09
7.51812e-08
1.87122e-09
-7.51189e-08
7.52715e-08
2.03334e-09
7.53896e-08
2.17817e-09
7.5533e-08
2.31218e-09
7.56955e-08
2.43064e-09
7.58601e-08
2.51993e-09
7.60139e-08
2.57196e-09
7.61484e-08
2.58854e-09
7.62602e-08
2.57578e-09
7.63498e-08
2.54159e-09
7.64194e-08
2.49442e-09
7.64713e-08
2.44045e-09
7.65079e-08
2.38442e-09
7.65324e-08
2.3288e-09
7.65478e-08
2.27587e-09
7.65568e-08
2.22608e-09
7.65611e-08
2.17982e-09
7.65618e-08
2.13591e-09
7.65595e-08
2.09417e-09
7.65549e-08
2.05357e-09
7.65484e-08
2.01457e-09
7.65407e-08
1.97652e-09
7.65318e-08
1.94015e-09
7.65223e-08
1.90475e-09
7.65121e-08
1.87112e-09
7.65016e-08
1.83835e-09
7.64908e-08
1.80732e-09
7.64799e-08
1.77702e-09
7.64689e-08
1.74844e-09
7.64579e-08
1.72048e-09
7.64471e-08
1.69426e-09
7.64364e-08
1.66855e-09
7.6426e-08
1.64459e-09
7.64159e-08
1.621e-09
7.6406e-08
1.59917e-09
7.63964e-08
1.57754e-09
7.63871e-08
1.55767e-09
7.63782e-08
1.53783e-09
7.63695e-08
1.51977e-09
7.63611e-08
1.50157e-09
7.63529e-08
1.48519e-09
7.6345e-08
1.4685e-09
7.63374e-08
1.45366e-09
7.63299e-08
1.43835e-09
7.63227e-08
1.42495e-09
7.63156e-08
1.41089e-09
7.63087e-08
1.39883e-09
7.63018e-08
1.38592e-09
7.62952e-08
1.37511e-09
7.62885e-08
1.36324e-09
7.62819e-08
1.35356e-09
7.62753e-08
1.34264e-09
7.62688e-08
1.33402e-09
7.62621e-08
1.32394e-09
7.62555e-08
1.31629e-09
7.62486e-08
1.30696e-09
7.62418e-08
1.30021e-09
7.62347e-08
1.29154e-09
7.62276e-08
1.2856e-09
7.622e-08
1.27752e-09
7.62125e-08
1.27232e-09
7.62044e-08
1.26475e-09
7.61963e-08
1.26023e-09
7.61876e-08
1.25308e-09
7.61787e-08
1.2492e-09
7.61692e-08
1.24241e-09
7.61596e-08
1.23908e-09
7.61492e-08
1.23262e-09
7.61386e-08
1.2298e-09
7.61271e-08
1.22359e-09
7.61155e-08
1.22126e-09
7.61028e-08
1.21523e-09
7.609e-08
1.21334e-09
7.60759e-08
1.2075e-09
7.60618e-08
1.20598e-09
7.60462e-08
1.20029e-09
7.60306e-08
1.19916e-09
7.60134e-08
1.19355e-09
7.59962e-08
1.19278e-09
7.59773e-08
1.18731e-09
7.59583e-08
1.18684e-09
7.59375e-08
1.1815e-09
7.59167e-08
1.18139e-09
7.58938e-08
1.17617e-09
7.58709e-08
1.17642e-09
7.58458e-08
1.1714e-09
7.58207e-08
1.17203e-09
7.57933e-08
1.16728e-09
7.57659e-08
1.16838e-09
7.57359e-08
1.16402e-09
7.5706e-08
1.16568e-09
7.56733e-08
1.16186e-09
7.56407e-08
1.16426e-09
7.56052e-08
1.16121e-09
7.55697e-08
1.16459e-09
7.55312e-08
1.16266e-09
7.54928e-08
1.16729e-09
7.54512e-08
1.16678e-09
7.54095e-08
1.17319e-09
1.17446e-09
8.31886e-08
1.81331e-09
-8.31307e-08
8.32686e-08
1.95335e-09
8.33701e-08
2.07668e-09
8.34911e-08
2.19125e-09
8.36281e-08
2.29358e-09
8.37701e-08
2.37798e-09
8.3907e-08
2.43506e-09
8.40309e-08
2.46462e-09
8.41371e-08
2.46956e-09
8.42243e-08
2.45438e-09
8.42936e-08
2.42516e-09
8.4347e-08
2.38701e-09
8.43869e-08
2.34455e-09
8.44154e-08
2.30025e-09
8.4435e-08
2.25633e-09
8.44477e-08
2.21335e-09
8.44553e-08
2.1722e-09
8.4459e-08
2.13227e-09
8.44594e-08
2.09376e-09
8.44571e-08
2.05583e-09
8.44527e-08
2.01897e-09
8.44467e-08
1.98259e-09
8.44393e-08
1.94748e-09
8.4431e-08
1.91304e-09
8.44221e-08
1.88009e-09
8.44126e-08
1.84785e-09
8.44027e-08
1.81716e-09
8.43926e-08
1.7871e-09
8.43825e-08
1.75861e-09
8.43722e-08
1.73069e-09
8.43621e-08
1.70436e-09
8.43522e-08
1.67854e-09
8.43424e-08
1.65434e-09
8.43329e-08
1.63054e-09
8.43237e-08
1.60838e-09
8.43147e-08
1.5865e-09
8.43061e-08
1.56626e-09
8.42978e-08
1.54616e-09
8.42898e-08
1.52772e-09
8.42821e-08
1.50927e-09
8.42748e-08
1.49249e-09
8.42678e-08
1.47557e-09
8.42611e-08
1.46034e-09
8.42546e-08
1.44483e-09
8.42485e-08
1.43105e-09
8.42426e-08
1.41683e-09
8.4237e-08
1.4044e-09
8.42315e-08
1.39137e-09
8.42264e-08
1.38019e-09
8.42214e-08
1.36825e-09
8.42168e-08
1.35821e-09
8.42121e-08
1.34728e-09
8.42079e-08
1.3383e-09
8.42036e-08
1.32826e-09
8.41996e-08
1.32026e-09
8.41955e-08
1.31102e-09
8.41918e-08
1.30392e-09
8.4188e-08
1.2954e-09
8.41844e-08
1.28911e-09
8.41807e-08
1.28126e-09
8.41773e-08
1.27569e-09
8.41737e-08
1.26841e-09
8.41703e-08
1.26354e-09
8.41667e-08
1.25674e-09
8.41634e-08
1.2525e-09
8.41596e-08
1.24615e-09
8.41563e-08
1.24244e-09
8.41524e-08
1.23651e-09
8.41489e-08
1.2333e-09
8.41448e-08
1.22768e-09
8.41411e-08
1.22497e-09
8.41367e-08
1.21962e-09
8.41327e-08
1.21731e-09
8.4128e-08
1.21226e-09
8.41236e-08
1.21032e-09
8.41184e-08
1.20548e-09
8.41136e-08
1.20394e-09
8.41079e-08
1.19929e-09
8.41026e-08
1.19807e-09
8.40962e-08
1.19367e-09
8.40903e-08
1.19277e-09
8.40832e-08
1.18857e-09
8.40766e-08
1.18804e-09
8.40687e-08
1.18407e-09
8.40612e-08
1.1839e-09
8.40524e-08
1.18023e-09
8.40439e-08
1.18047e-09
8.4034e-08
1.17716e-09
8.40245e-08
1.1779e-09
8.40135e-08
1.17509e-09
8.40027e-08
1.17643e-09
8.39903e-08
1.17425e-09
8.39782e-08
1.1764e-09
8.39643e-08
1.17506e-09
8.39507e-08
1.17825e-09
8.39353e-08
1.17806e-09
8.392e-08
1.18258e-09
8.39029e-08
1.18387e-09
8.38859e-08
1.1902e-09
1.19318e-09
9.20309e-08
1.76165e-09
-9.19793e-08
9.20998e-08
1.88449e-09
9.21853e-08
1.9912e-09
9.22857e-08
2.09082e-09
9.23984e-08
2.18088e-09
9.25174e-08
2.25895e-09
9.26348e-08
2.31765e-09
9.27444e-08
2.35507e-09
9.28414e-08
2.37259e-09
9.29233e-08
2.37243e-09
9.299e-08
2.35847e-09
9.30427e-08
2.33434e-09
9.30832e-08
2.304e-09
9.31136e-08
2.2699e-09
9.31356e-08
2.23431e-09
9.31509e-08
2.198e-09
9.31611e-08
2.16203e-09
9.31672e-08
2.12621e-09
9.31699e-08
2.09101e-09
9.31699e-08
2.05586e-09
9.31676e-08
2.02128e-09
9.31634e-08
1.98679e-09
9.31577e-08
1.95312e-09
9.3151e-08
1.91982e-09
9.31434e-08
1.88767e-09
9.31352e-08
1.85606e-09
9.31266e-08
1.82576e-09
9.31176e-08
1.79604e-09
9.31086e-08
1.76768e-09
9.30994e-08
1.73988e-09
9.30903e-08
1.71349e-09
9.30812e-08
1.68763e-09
9.30723e-08
1.66322e-09
9.30635e-08
1.63929e-09
9.30551e-08
1.61683e-09
9.30468e-08
1.59475e-09
9.30389e-08
1.57417e-09
9.30312e-08
1.55385e-09
9.30239e-08
1.53504e-09
9.30168e-08
1.51637e-09
9.30101e-08
1.4992e-09
9.30036e-08
1.48209e-09
9.29974e-08
1.46646e-09
9.29915e-08
1.45077e-09
9.29859e-08
1.43661e-09
9.29805e-08
1.42224e-09
9.29755e-08
1.40942e-09
9.29706e-08
1.39628e-09
9.29661e-08
1.38471e-09
9.29617e-08
1.37269e-09
9.29576e-08
1.36227e-09
9.29536e-08
1.35129e-09
9.295e-08
1.34193e-09
9.29463e-08
1.33188e-09
9.29431e-08
1.32351e-09
9.29398e-08
1.3143e-09
9.29369e-08
1.30683e-09
9.29339e-08
1.29839e-09
9.29313e-08
1.29171e-09
9.29286e-08
1.28398e-09
9.29262e-08
1.27803e-09
9.29237e-08
1.2709e-09
9.29216e-08
1.26566e-09
9.29193e-08
1.25905e-09
9.29174e-08
1.25443e-09
9.29152e-08
1.24831e-09
9.29135e-08
1.24421e-09
9.29114e-08
1.23855e-09
9.29098e-08
1.23497e-09
9.29078e-08
1.22965e-09
9.29062e-08
1.22655e-09
9.29043e-08
1.22156e-09
9.29027e-08
1.21885e-09
9.29008e-08
1.21421e-09
9.28992e-08
1.21187e-09
9.28972e-08
1.20747e-09
9.28956e-08
1.20554e-09
9.28936e-08
1.20137e-09
9.28919e-08
1.19976e-09
9.28897e-08
1.19589e-09
9.28878e-08
1.19461e-09
9.28854e-08
1.19097e-09
9.28834e-08
1.19009e-09
9.28807e-08
1.18672e-09
9.28784e-08
1.18621e-09
9.28755e-08
1.18319e-09
9.28728e-08
1.18314e-09
9.28694e-08
1.1805e-09
9.28664e-08
1.181e-09
9.28626e-08
1.17889e-09
9.28589e-08
1.18005e-09
9.28546e-08
1.1786e-09
9.28503e-08
1.18064e-09
9.28453e-08
1.18006e-09
9.28404e-08
1.18318e-09
9.28347e-08
1.18377e-09
9.2829e-08
1.18828e-09
9.28225e-08
1.19034e-09
9.28161e-08
1.19665e-09
1.20033e-09
1.01797e-07
1.71789e-09
-1.01753e-07
1.01854e-07
1.82774e-09
1.01923e-07
1.92193e-09
1.02003e-07
2.01033e-09
1.02093e-07
2.0912e-09
1.02189e-07
2.16306e-09
1.02285e-07
2.22145e-09
1.02377e-07
2.26319e-09
1.02461e-07
2.28894e-09
1.02533e-07
2.29968e-09
1.02594e-07
2.2977e-09
1.02643e-07
2.28528e-09
1.02682e-07
2.26541e-09
1.02711e-07
2.24024e-09
1.02734e-07
2.21199e-09
1.0275e-07
2.18168e-09
1.02762e-07
2.1505e-09
1.02769e-07
2.11856e-09
1.02774e-07
2.0865e-09
1.02776e-07
2.05404e-09
1.02775e-07
2.02168e-09
1.02773e-07
1.9891e-09
1.02769e-07
1.95693e-09
1.02764e-07
1.92485e-09
1.02758e-07