/*--------------------------------*- C++ -*----------------------------------*\
| =========                 |                                                 |
| \\      /  F ield         | OpenFOAM: The Open Source CFD Toolbox           |
|  \\    /   O peration     | Version:  2.3.0                                 |
|   \\  /    A nd           | Web:      www.OpenFOAM.org                      |
|    \\/     M anipulation  |                                                 |
\*---------------------------------------------------------------------------*/
FoamFile
{
    version     2.0;
    format      ascii;
    class       surfaceScalarField;
    location    "0.1";
    object      phi_0;
}
// * * * * * * * * * * * * * * * * * * * * * * * * * * * * * * * * * * * * * //

dimensions      [0 3 -1 0 0 0 0];

internalField   nonuniform List<scalar> 
4357
(
5.00499e-08
2.03489e-09
-5.20848e-08
4.79062e-08
2.14375e-09
4.5753e-08
2.15312e-09
4.36168e-08
2.13622e-09
4.15099e-08
2.10697e-09
3.94433e-08
2.06657e-09
3.74261e-08
2.01716e-09
3.54654e-08
1.96071e-09
3.35669e-08
1.89852e-09
3.17356e-08
1.8313e-09
2.9976e-08
1.75955e-09
2.82923e-08
1.68371e-09
2.66881e-08
1.6042e-09
2.51666e-08
1.52151e-09
2.37305e-08
1.43615e-09
2.23817e-08
1.34871e-09
2.11219e-08
1.25983e-09
1.99517e-08
1.17018e-09
1.88712e-08
1.08049e-09
1.78798e-08
9.91488e-10
1.69759e-08
9.03889e-10
1.61575e-08
8.18373e-10
1.54219e-08
7.35551e-10
1.4766e-08
6.55923e-10
1.41862e-08
5.79831e-10
1.36788e-08
5.07413e-10
1.32402e-08
4.38589e-10
1.2867e-08
3.73134e-10
1.25562e-08
3.10827e-10
1.23046e-08
2.51617e-10
1.21088e-08
1.95782e-10
1.1965e-08
1.43846e-10
1.18691e-08
9.58415e-11
1.18186e-08
5.05446e-11
1.18086e-08
9.96606e-12
1.18245e-08
-1.58566e-11
1.18485e-08
-2.40661e-11
1.18718e-08
-2.33028e-11
1.18914e-08
-1.95074e-11
1.19059e-08
-1.45256e-11
1.19154e-08
-9.49942e-12
1.19197e-08
-4.31603e-12
1.19175e-08
2.19977e-12
1.19069e-08
1.06347e-11
1.1887e-08
1.98162e-11
1.18586e-08
2.83994e-11
1.18229e-08
3.57058e-11
1.17814e-08
4.15384e-11
1.17354e-08
4.59733e-11
1.16862e-08
4.9213e-11
1.16347e-08
5.14976e-11
1.15817e-08
5.30562e-11
1.15276e-08
5.40855e-11
1.14728e-08
5.4743e-11
1.14177e-08
5.51482e-11
1.13623e-08
5.53875e-11
1.13068e-08
5.55208e-11
1.12512e-08
5.55873e-11
1.11956e-08
5.56112e-11
1.114e-08
5.56066e-11
1.10844e-08
5.55805e-11
1.10289e-08
5.5536e-11
1.09734e-08
5.54735e-11
1.0918e-08
5.53928e-11
1.08627e-08
5.52928e-11
1.08075e-08
5.51728e-11
1.07525e-08
5.50321e-11
1.06976e-08
5.48704e-11
1.06429e-08
5.46875e-11
1.05885e-08
5.44836e-11
1.05342e-08
5.42588e-11
1.04802e-08
5.40135e-11
1.04264e-08
5.3748e-11
1.0373e-08
5.34629e-11
1.03198e-08
5.31585e-11
1.0267e-08
5.28352e-11
1.02145e-08
5.24935e-11
1.01623e-08
5.21338e-11
1.01106e-08
5.17565e-11
1.00592e-08
5.13618e-11
1.00083e-08
5.09504e-11
9.95776e-09
5.05224e-11
9.90768e-09
5.00783e-11
9.85806e-09
4.96186e-11
9.80892e-09
4.91436e-11
9.76026e-09
4.86539e-11
9.71211e-09
4.81499e-11
9.66448e-09
4.76323e-11
9.61738e-09
4.71017e-11
9.57082e-09
4.65589e-11
9.52481e-09
4.60049e-11
9.47937e-09
4.54407e-11
9.43451e-09
4.48678e-11
9.39022e-09
4.42883e-11
9.34651e-09
4.37055e-11
9.30339e-09
4.31263e-11
9.26081e-09
4.25717e-11
9.21872e-09
4.20982e-11
9.177e-09
4.17161e-11
6.18294e-11
5.78062e-08
2.13474e-09
-5.7906e-08
5.75753e-08
2.37462e-09
5.72112e-08
2.51724e-09
5.67351e-08
2.6123e-09
5.61619e-08
2.68013e-09
5.55036e-08
2.72493e-09
5.47714e-08
2.74927e-09
5.39762e-08
2.75599e-09
5.31275e-08
2.74716e-09
5.22347e-08
2.72408e-09
5.13066e-08
2.68769e-09
5.03515e-08
2.63879e-09
4.93776e-08
2.57818e-09
4.83924e-08
2.50668e-09
4.74034e-08
2.42517e-09
4.64175e-08
2.33461e-09
4.54413e-08
2.23601e-09
4.4481e-08
2.13046e-09
4.35424e-08
2.01908e-09
4.26309e-08
1.90302e-09
4.17514e-08
1.78336e-09
4.09087e-08
1.66114e-09
4.0107e-08
1.53725e-09
3.93505e-08
1.4124e-09
3.86433e-08
1.28705e-09
3.79892e-08
1.16145e-09
3.73921e-08
1.03568e-09
3.68554e-08
9.09847e-10
3.63819e-08
7.84347e-10
3.59734e-08
6.60111e-10
3.56304e-08
5.38737e-10
3.53519e-08
4.22363e-10
3.51342e-08
3.13562e-10
3.49684e-08
2.16321e-10
3.48419e-08
1.36542e-10
3.47487e-08
7.73308e-11
3.46878e-08
3.6808e-11
3.46526e-08
1.18473e-11
3.46337e-08
-6.0902e-13
3.46212e-08
-2.0198e-12
3.46076e-08
4.12146e-12
3.45848e-08
1.85222e-11
3.45471e-08
3.99215e-11
3.44927e-08
6.50269e-11
3.44216e-08
9.08559e-11
3.43349e-08
1.15176e-10
3.42339e-08
1.36689e-10
3.41205e-08
1.54855e-10
3.39969e-08
1.69643e-10
3.38648e-08
1.81325e-10
3.37259e-08
1.90325e-10
3.35819e-08
1.97118e-10
3.34338e-08
2.02167e-10
3.32827e-08
2.05886e-10
3.31292e-08
2.08626e-10
3.29739e-08
2.10667e-10
3.28172e-08
2.12224e-10
3.26593e-08
2.13455e-10
3.25005e-08
2.1447e-10
3.23407e-08
2.15342e-10
3.21802e-08
2.16117e-10
3.20189e-08
2.16823e-10
3.18569e-08
2.17473e-10
3.16942e-08
2.18076e-10
3.15309e-08
2.18634e-10
3.13669e-08
2.19148e-10
3.12023e-08
2.19617e-10
3.10371e-08
2.20042e-10
3.08714e-08
2.20421e-10
3.07051e-08
2.20755e-10
3.05384e-08
2.21044e-10
3.03711e-08
2.21289e-10
3.02033e-08
2.2149e-10
3.00352e-08
2.21648e-10
2.98665e-08
2.21764e-10
2.96975e-08
2.21838e-10
2.95282e-08
2.21872e-10
2.93584e-08
2.21866e-10
2.91884e-08
2.21821e-10
2.9018e-08
2.21738e-10
2.88473e-08
2.21617e-10
2.86764e-08
2.2146e-10
2.85052e-08
2.21267e-10
2.83338e-08
2.21039e-10
2.81622e-08
2.20777e-10
2.79903e-08
2.20483e-10
2.78183e-08
2.20157e-10
2.76461e-08
2.19801e-10
2.74738e-08
2.19416e-10
2.73014e-08
2.19005e-10
2.71288e-08
2.1857e-10
2.69561e-08
2.18113e-10
2.67834e-08
2.17639e-10
2.66105e-08
2.17152e-10
2.64376e-08
2.16662e-10
2.62645e-08
2.16187e-10
2.60913e-08
2.15777e-10
2.59177e-08
2.15641e-10
2.57413e-08
2.18176e-10
2.30347e-10
6.28606e-08
2.11824e-09
-6.28441e-08
6.28832e-08
2.3521e-09
6.28785e-08
2.52187e-09
6.28386e-08
2.65226e-09
6.27601e-08
2.75856e-09
6.26403e-08
2.84481e-09
6.24774e-08
2.91214e-09
6.22714e-08
2.96194e-09
6.20232e-08
2.99543e-09
6.17339e-08
3.01332e-09
6.14056e-08
3.01601e-09
6.10406e-08
3.00381e-09
6.06417e-08
2.97708e-09
6.02121e-08
2.93622e-09
5.97555e-08
2.88176e-09
5.92758e-08
2.81435e-09
5.87771e-08
2.73474e-09
5.82637e-08
2.64381e-09
5.77403e-08
2.54251e-09
5.72115e-08
2.43184e-09
5.6682e-08
2.31279e-09
5.61569e-08
2.18631e-09
5.56409e-08
2.05324e-09
5.5139e-08
1.91424e-09
5.46563e-08
1.7698e-09
5.41974e-08
1.62031e-09
5.3767e-08
1.46614e-09
5.33689e-08
1.30791e-09
5.30065e-08
1.14676e-09
5.2682e-08
9.84608e-10
5.23965e-08
8.24282e-10
5.21494e-08
6.69455e-10
5.19384e-08
5.24571e-10
5.17598e-08
3.94913e-10
5.16103e-08
2.86027e-10
5.14864e-08
2.01175e-10
5.13833e-08
1.39916e-10
5.12953e-08
9.98641e-11
5.12165e-08
7.81681e-11
5.11417e-08
7.27855e-11
5.10644e-08
8.14336e-11
5.09807e-08
1.02285e-10
5.08882e-08
1.3236e-10
5.07856e-08
1.67649e-10
5.0672e-08
2.0447e-10
5.05472e-08
2.40001e-10
5.04114e-08
2.72416e-10
5.02655e-08
3.00753e-10
5.01105e-08
3.24702e-10
4.99474e-08
3.44391e-10
4.97775e-08
3.6022e-10
4.96019e-08
3.72727e-10
4.94216e-08
3.82493e-10
4.92374e-08
3.90082e-10
4.905e-08
3.96003e-10
4.886e-08
4.00686e-10
4.86677e-08
4.04477e-10
4.84735e-08
4.07646e-10
4.82776e-08
4.10389e-10
4.80801e-08
4.12847e-10
4.78811e-08
4.15114e-10
4.76807e-08
4.1725e-10
4.74789e-08
4.19293e-10
4.72757e-08
4.21264e-10
4.70711e-08
4.23174e-10
4.68653e-08
4.25028e-10
4.66581e-08
4.26828e-10
4.64495e-08
4.28575e-10
4.62397e-08
4.30269e-10
4.60285e-08
4.31911e-10
4.58161e-08
4.335e-10
4.56023e-08
4.35036e-10
4.53873e-08
4.3652e-10
4.5171e-08
4.37954e-10
4.49534e-08
4.39337e-10
4.47346e-08
4.4067e-10
4.45145e-08
4.41955e-10
4.42932e-08
4.43192e-10
4.40706e-08
4.44382e-10
4.38468e-08
4.45525e-10
4.36218e-08
4.46624e-10
4.33956e-08
4.47679e-10
4.31682e-08
4.48691e-10
4.29395e-08
4.49661e-10
4.27097e-08
4.5059e-10
4.24787e-08
4.5148e-10
4.22466e-08
4.52333e-10
4.20132e-08
4.53151e-10
4.17787e-08
4.53935e-10
4.1543e-08
4.5469e-10
4.13062e-08
4.55418e-10
4.10681e-08
4.56124e-10
4.0829e-08
4.56814e-10
4.05886e-08
4.57496e-10
4.03471e-08
4.58183e-10
4.01044e-08
4.58904e-10
3.98604e-08
4.59735e-10
3.96151e-08
4.61e-10
3.93694e-08
4.63895e-10
4.63747e-10
6.81096e-08
2.13303e-09
-6.81244e-08
6.81243e-08
2.33743e-09
6.81427e-08
2.50339e-09
6.81559e-08
2.63906e-09
6.81611e-08
2.75338e-09
6.81559e-08
2.85003e-09
6.81379e-08
2.93014e-09
6.81052e-08
2.99464e-09
6.80562e-08
3.04439e-09
6.79896e-08
3.07992e-09
6.79042e-08
3.10146e-09
6.77989e-08
3.10907e-09
6.76732e-08
3.10279e-09
6.75268e-08
3.08268e-09
6.73597e-08
3.04888e-09
6.71724e-08
3.00165e-09
6.69658e-08
2.94133e-09
6.67412e-08
2.86841e-09
6.65002e-08
2.78344e-09
6.6245e-08
2.68706e-09
6.59779e-08
2.57995e-09
6.57014e-08
2.46276e-09
6.54185e-08
2.33611e-09
6.51322e-08
2.20055e-09
6.48455e-08
2.05655e-09
6.45612e-08
1.9046e-09
6.4282e-08
1.74537e-09
6.401e-08
1.57987e-09
6.3747e-08
1.40977e-09
6.34941e-08
1.23751e-09
6.32519e-08
1.0665e-09
6.30204e-08
9.00928e-10
6.27993e-08
7.45679e-10
6.25882e-08
6.05971e-10
6.23876e-08
4.86686e-10
6.21978e-08
3.9094e-10
6.20185e-08
3.19221e-10
6.18482e-08
2.70189e-10
6.16846e-08
2.41761e-10
6.15256e-08
2.31746e-10
6.13693e-08
2.37749e-10
6.12145e-08
2.57093e-10
6.10603e-08
2.86521e-10
6.09058e-08
3.22202e-10
6.07497e-08
3.60522e-10
6.05911e-08
3.98586e-10
6.04292e-08
4.34351e-10
6.02634e-08
4.66576e-10
6.00934e-08
4.94673e-10
5.99193e-08
5.18536e-10
5.97411e-08
5.38389e-10
5.95592e-08
5.54659e-10
5.93738e-08
5.67869e-10
5.91853e-08
5.78568e-10
5.8994e-08
5.87279e-10
5.88002e-08
5.94467e-10
5.86042e-08
6.00522e-10
5.84061e-08
6.05759e-10
5.82061e-08
6.1042e-10
5.80042e-08
6.14683e-10
5.78007e-08
6.18675e-10
5.75954e-08
6.22483e-10
5.73886e-08
6.26163e-10
5.71801e-08
6.29751e-10
5.697e-08
6.33269e-10
5.67583e-08
6.36728e-10
5.6545e-08
6.40136e-10
5.633e-08
6.43496e-10
5.61135e-08
6.4681e-10
5.58953e-08
6.50079e-10
5.56755e-08
6.53303e-10
5.54541e-08
6.56483e-10
5.5231e-08
6.5962e-10
5.50062e-08
6.62714e-10
5.47798e-08
6.65766e-10
5.45517e-08
6.68777e-10
5.43219e-08
6.71749e-10
5.40904e-08
6.74681e-10
5.38572e-08
6.77574e-10
5.36223e-08
6.80431e-10
5.33857e-08
6.83251e-10
5.31473e-08
6.86036e-10
5.29072e-08
6.88787e-10
5.26654e-08
6.91505e-10
5.24218e-08
6.94193e-10
5.21764e-08
6.96852e-10
5.19293e-08
6.99484e-10
5.16803e-08
7.02092e-10
5.14296e-08
7.04679e-10
5.1177e-08
7.07249e-10
5.09226e-08
7.09807e-10
5.06664e-08
7.12358e-10
5.04083e-08
7.1491e-10
5.01483e-08
7.17473e-10
4.98864e-08
7.20064e-10
4.96226e-08
7.22711e-10
4.93569e-08
7.25472e-10
4.90894e-08
7.28469e-10
4.8822e-08
7.31363e-10
7.27236e-10
7.37581e-08
2.18275e-09
-7.38078e-08
7.3738e-08
2.35755e-09
7.37312e-08
2.51014e-09
7.37295e-08
2.64077e-09
7.37297e-08
2.75323e-09
7.37297e-08
2.85003e-09
7.37276e-08
2.93219e-09
7.37219e-08
3.00034e-09
7.37113e-08
3.05505e-09
7.36945e-08
3.09674e-09
7.36703e-08
3.1256e-09
7.36377e-08
3.14168e-09
7.35956e-08
3.14496e-09
7.35428e-08
3.13544e-09
7.34785e-08
3.11313e-09
7.34021e-08
3.07812e-09
7.33128e-08
3.03057e-09
7.32105e-08
2.97073e-09
7.3095e-08
2.8989e-09
7.29666e-08
2.81548e-09
7.28257e-08
2.7209e-09
7.26728e-08
2.6156e-09
7.25089e-08
2.50005e-09
7.23347e-08
2.37469e-09
7.21513e-08
2.24003e-09
7.19592e-08
2.09664e-09
7.17592e-08
1.94538e-09
7.15516e-08
1.78748e-09
7.13366e-08
1.62476e-09
7.11144e-08
1.45976e-09
7.08851e-08
1.2958e-09
7.06491e-08
1.13685e-09
7.04075e-08
9.87331e-10
7.01617e-08
8.51779e-10
6.99141e-08
7.3424e-10
6.96676e-08
6.37477e-10
6.94244e-08
5.62447e-10
6.9186e-08
5.08581e-10
6.89533e-08
4.74428e-10
6.87269e-08
4.58114e-10
6.85072e-08
4.57462e-10
6.82944e-08
4.69917e-10
6.80884e-08
4.92537e-10
6.78885e-08
5.22036e-10
6.76938e-08
5.55246e-10
6.75029e-08
5.8951e-10
6.73144e-08
6.22818e-10
6.71272e-08
6.53817e-10
6.69401e-08
6.81721e-10
6.67525e-08
7.06198e-10
6.65636e-08
7.27254e-10
6.63732e-08
7.45118e-10
6.61809e-08
7.60156e-10
6.59866e-08
7.72796e-10
6.57904e-08
7.83477e-10
6.55923e-08
7.92607e-10
6.53923e-08
8.0055e-10
6.51904e-08
8.07609e-10
6.49868e-08
8.14025e-10
6.47815e-08
8.19986e-10
6.45746e-08
8.25632e-10
6.4366e-08
8.3106e-10
6.41558e-08
8.36342e-10
6.3944e-08
8.41521e-10
6.37307e-08
8.46628e-10
6.35157e-08
8.51682e-10
6.32992e-08
8.56694e-10
6.3081e-08
8.61671e-10
6.28612e-08
8.66616e-10
6.26397e-08
8.71532e-10
6.24166e-08
8.76419e-10
6.21918e-08
8.8128e-10
6.19653e-08
8.86115e-10
6.17371e-08
8.90925e-10
6.15072e-08
8.9571e-10
6.12755e-08
9.00471e-10
6.1042e-08
9.05209e-10
6.08068e-08
9.09925e-10
6.05697e-08
9.14621e-10
6.03309e-08
9.19296e-10
6.00902e-08
9.23953e-10
5.98476e-08
9.28592e-10
5.96032e-08
9.33216e-10
5.93568e-08
9.37825e-10
5.91086e-08
9.42423e-10
5.88585e-08
9.47011e-10
5.86064e-08
9.51593e-10
5.83523e-08
9.56171e-10
5.80962e-08
9.6075e-10
5.78381e-08
9.65335e-10
5.7578e-08
9.6993e-10
5.73158e-08
9.74545e-10
5.70515e-08
9.79187e-10
5.67851e-08
9.83868e-10
5.65166e-08
9.88605e-10
5.62459e-08
9.93417e-10
5.5973e-08
9.98323e-10
5.56983e-08
1.00325e-09
5.54222e-08
1.0074e-09
1.00639e-09
7.9854e-08
2.25851e-09
-7.99298e-08
7.98039e-08
2.40773e-09
7.97698e-08
2.54417e-09
7.9745e-08
2.66564e-09
7.97254e-08
2.77279e-09
7.97088e-08
2.86663e-09
7.96933e-08
2.94767e-09
7.96775e-08
3.0162e-09
7.96601e-08
3.07245e-09
7.96401e-08
3.11664e-09
7.96168e-08
3.1489e-09
7.95893e-08
3.16926e-09
7.95565e-08
3.17771e-09
7.95177e-08
3.17424e-09
7.9472e-08
3.15887e-09
7.94184e-08
3.13165e-09
7.93563e-08
3.09268e-09
7.92849e-08
3.04212e-09
7.92036e-08
2.9802e-09
7.91119e-08
2.9072e-09
7.90094e-08
2.82344e-09
7.88957e-08
2.7293e-09
7.87706e-08
2.62517e-09
7.86338e-08
2.51151e-09
7.84849e-08
2.38884e-09
7.83237e-08
2.25786e-09
7.81496e-08
2.11949e-09
7.79621e-08
1.97503e-09
7.77606e-08
1.82625e-09
7.75448e-08
1.6755e-09
7.73149e-08
1.52572e-09
7.70715e-08
1.38031e-09
7.68158e-08
1.24297e-09
7.65502e-08
1.11741e-09
7.62775e-08
1.0069e-09
7.60012e-08
9.13791e-10
7.57244e-08
8.39219e-10
7.54499e-08
7.8313e-10
7.51797e-08
7.44643e-10
7.49154e-08
7.22352e-10
7.46584e-08
7.14472e-10
7.44095e-08
7.18851e-10
7.4169e-08
7.33023e-10
7.39367e-08
7.54306e-10
7.37119e-08
7.80068e-10
7.34934e-08
8.08007e-10
7.328e-08
8.36286e-10
7.30702e-08
8.63561e-10
7.2863e-08
8.88954e-10
7.26572e-08
9.11978e-10
7.2452e-08
9.32453e-10
7.22467e-08
9.50425e-10
7.20408e-08
9.66089e-10
7.18338e-08
9.79725e-10
7.16257e-08
9.91652e-10
7.14161e-08
1.00219e-09
7.1205e-08
1.01163e-09
7.09924e-08
1.02023e-09
7.07782e-08
1.02821e-09
7.05624e-08
1.03574e-09
7.03451e-08
1.04295e-09
7.01263e-08
1.04993e-09
6.99058e-08
1.05677e-09
6.96838e-08
1.06351e-09
6.94603e-08
1.07018e-09
6.92351e-08
1.07681e-09
6.90084e-08
1.08341e-09
6.87801e-08
1.08999e-09
6.85502e-08
1.09656e-09
6.83186e-08
1.10311e-09
6.80853e-08
1.10966e-09
6.78504e-08
1.1162e-09
6.76138e-08
1.12273e-09
6.73755e-08
1.12925e-09
6.71354e-08
1.13577e-09
6.68936e-08
1.14229e-09
6.665e-08
1.1488e-09
6.64046e-08
1.15531e-09
6.61574e-08
1.16182e-09
6.59084e-08
1.16832e-09
6.56575e-08
1.17483e-09
6.54048e-08
1.18134e-09
6.51501e-08
1.18786e-09
6.48936e-08
1.19438e-09
6.46351e-08
1.20091e-09
6.43746e-08
1.20746e-09
6.41122e-08
1.21402e-09
6.38478e-08
1.2206e-09
6.35813e-08
1.2272e-09
6.33128e-08
1.23384e-09
6.30423e-08
1.24051e-09
6.27696e-08
1.24723e-09
6.24948e-08
1.254e-09
6.22178e-08
1.26085e-09
6.19386e-08
1.26778e-09
6.16572e-08
1.2748e-09
6.13736e-08
1.28192e-09
6.10879e-08
1.289e-09
6.07998e-08
1.29549e-09
1.29993e-09
8.64331e-08
2.35505e-09
-8.65297e-08
8.63574e-08
2.48346e-09
8.62972e-08
2.60437e-09
8.62475e-08
2.71529e-09
8.62049e-08
2.81545e-09
8.61668e-08
2.90472e-09
8.61314e-08
2.98306e-09
8.60971e-08
3.05043e-09
8.60628e-08
3.10678e-09
8.60273e-08
3.15212e-09
8.59898e-08
3.18646e-09
8.59493e-08
3.20977e-09
8.5905e-08
3.22201e-09
8.58561e-08
3.22315e-09
8.58017e-08
3.2132e-09
8.57412e-08
3.1922e-09
8.56737e-08
3.16022e-09
8.55984e-08
3.11739e-09
8.55147e-08
3.06392e-09
8.54218e-08
3.00003e-09
8.53192e-08
2.92603e-09
8.52063e-08
2.84227e-09
8.50823e-08
2.74915e-09
8.49467e-08
2.64715e-09
8.47986e-08
2.53686e-09
8.46375e-08
2.41902e-09
8.44624e-08
2.29459e-09
8.42726e-08
2.16484e-09
8.40674e-08
2.03142e-09
8.38465e-08
1.89639e-09
8.361e-08
1.76223e-09
8.33585e-08
1.63176e-09
8.30935e-08
1.50799e-09
8.28171e-08
1.39385e-09
8.2532e-08
1.29198e-09
8.22414e-08
1.20436e-09
8.19485e-08
1.13212e-09
8.16561e-08
1.07553e-09
8.13666e-08
1.03416e-09
8.10819e-08
1.00704e-09
8.08036e-08
9.92801e-10
8.05327e-08
9.89759e-10
8.02698e-08
9.95943e-10
8.00149e-08
1.00922e-09
7.97675e-08
1.02746e-09
7.95267e-08
1.04873e-09
7.92916e-08
1.07142e-09
7.90609e-08
1.09426e-09
7.88335e-08
1.11635e-09
7.86084e-08
1.13712e-09
7.83846e-08
1.15625e-09
7.81614e-08
1.17364e-09
7.79381e-08
1.18933e-09
7.77144e-08
1.20346e-09
7.74898e-08
1.21623e-09
7.72641e-08
1.22786e-09
7.70372e-08
1.23857e-09
7.68089e-08
1.24855e-09
7.65791e-08
1.25798e-09
7.63478e-08
1.26701e-09
7.6115e-08
1.27576e-09
7.58806e-08
1.2843e-09
7.56447e-08
1.29271e-09
7.54072e-08
1.30103e-09
7.51681e-08
1.3093e-09
7.49273e-08
1.31755e-09
7.4685e-08
1.32578e-09
7.44409e-08
1.33401e-09
7.41953e-08
1.34225e-09
7.39479e-08
1.3505e-09
7.36988e-08
1.35875e-09
7.3448e-08
1.36702e-09
7.31954e-08
1.3753e-09
7.2941e-08
1.3836e-09
7.26849e-08
1.39191e-09
7.24269e-08
1.40024e-09
7.21671e-08
1.40859e-09
7.19055e-08
1.41695e-09
7.1642e-08
1.42533e-09
7.13766e-08
1.43372e-09
7.11093e-08
1.44214e-09
7.084e-08
1.45059e-09
7.05688e-08
1.45905e-09
7.02957e-08
1.46755e-09
7.00205e-08
1.47607e-09
6.97433e-08
1.48463e-09
6.94641e-08
1.49323e-09
6.91829e-08
1.50187e-09
6.88995e-08
1.51056e-09
6.8614e-08
1.5193e-09
6.83264e-08
1.52811e-09
6.80367e-08
1.53699e-09
6.77447e-08
1.54596e-09
6.74505e-08
1.55503e-09
6.71541e-08
1.56421e-09
6.68554e-08
1.57351e-09
6.65544e-08
1.58294e-09
6.6251e-08
1.59242e-09
6.59446e-08
1.6018e-09
1.61117e-09
9.35333e-08
2.47037e-09
-9.36486e-08
9.34345e-08
2.58218e-09
9.33496e-08
2.68932e-09
9.32751e-08
2.78973e-09
9.32084e-08
2.8822e-09
9.31471e-08
2.96599e-09
9.30895e-08
3.04069e-09
9.3034e-08
3.10596e-09
9.29792e-08
3.16156e-09
9.2924e-08
3.2073e-09
9.28674e-08
3.24305e-09
9.28085e-08
3.2687e-09
9.27464e-08
3.28415e-09
9.26802e-08
3.28934e-09
9.26091e-08
3.28424e-09
9.25325e-08
3.26887e-09
9.24494e-08
3.24328e-09
9.23592e-08
3.2076e-09
9.22611e-08
3.16198e-09
9.21545e-08
3.10665e-09
9.20386e-08
3.0419e-09
9.19128e-08
2.96808e-09
9.17764e-08
2.88561e-09
9.16285e-08
2.79499e-09
9.14685e-08
2.69684e-09
9.12956e-08
2.59192e-09
9.1109e-08
2.48119e-09
9.0908e-08
2.36583e-09
9.06921e-08
2.24734e-09
9.0461e-08
2.12749e-09
9.02149e-08
2.00836e-09
8.99544e-08
1.89224e-09
8.96809e-08
1.78154e-09
8.93961e-08
1.6786e-09
8.91026e-08
1.58554e-09
8.88029e-08
1.50401e-09
8.84999e-08
1.43509e-09
8.81963e-08
1.37922e-09
8.78942e-08
1.33627e-09
8.75955e-08
1.30565e-09
8.73019e-08
1.28639e-09
8.70145e-08
1.27721e-09
8.67338e-08
1.2766e-09
8.64602e-08
1.28288e-09
8.61933e-08
1.29438e-09
8.59325e-08
1.30949e-09
8.56771e-08
1.32684e-09
8.54261e-08
1.34528e-09
8.51785e-08
1.36395e-09
8.49334e-08
1.38223e-09
8.46899e-08
1.39972e-09
8.44473e-08
1.41622e-09
8.4205e-08
1.43163e-09
8.39625e-08
1.44599e-09
8.37193e-08
1.45938e-09
8.34753e-08
1.47193e-09
8.323e-08
1.48379e-09
8.29835e-08
1.49508e-09
8.27356e-08
1.50594e-09
8.24861e-08
1.51648e-09
8.22351e-08
1.52679e-09
8.19824e-08
1.53694e-09
8.17281e-08
1.54699e-09
8.14722e-08
1.55698e-09
8.12146e-08
1.56694e-09
8.09552e-08
1.5769e-09
8.06941e-08
1.58687e-09
8.04313e-08
1.59686e-09
8.01666e-08
1.60687e-09
7.99002e-08
1.61692e-09
7.9632e-08
1.62699e-09
7.93619e-08
1.63711e-09
7.909e-08
1.64725e-09
7.88161e-08
1.65743e-09
7.85404e-08
1.66765e-09
7.82627e-08
1.6779e-09
7.79831e-08
1.68819e-09
7.77016e-08
1.69852e-09
7.7418e-08
1.70888e-09
7.71324e-08
1.71928e-09
7.68449e-08
1.72973e-09
7.65552e-08
1.74022e-09
7.62635e-08
1.75075e-09
7.59697e-08
1.76134e-09
7.56738e-08
1.77197e-09
7.53758e-08
1.78266e-09
7.50756e-08
1.79341e-09
7.47732e-08
1.80423e-09
7.44687e-08
1.81512e-09
7.41619e-08
1.8261e-09
7.38528e-08
1.83716e-09
7.35415e-08
1.84833e-09
7.32279e-08
1.8596e-09
7.29119e-08
1.87101e-09
7.25935e-08
1.88257e-09
7.22727e-08
1.89428e-09
7.19495e-08
1.90618e-09
7.16236e-08
1.91829e-09
7.12947e-08
1.93072e-09
1.94391e-09
1.01196e-07
2.60403e-09
-1.0133e-07
1.01076e-07
2.70262e-09
1.00967e-07
2.79812e-09
1.00868e-07
2.88891e-09
1.00776e-07
2.97381e-09
1.0069e-07
3.0519e-09
1.00608e-07
3.12251e-09
1.00529e-07
3.18516e-09
1.00451e-07
3.23943e-09
1.00373e-07
3.28501e-09
1.00295e-07
3.32166e-09
1.00214e-07
3.34916e-09
1.00131e-07
3.36737e-09
1.00044e-07
3.37617e-09
9.99531e-08
3.37551e-09
9.98566e-08
3.36536e-09
9.97541e-08
3.34577e-09
9.96449e-08
3.31682e-09
9.95282e-08
3.27867e-09
9.94033e-08
3.23153e-09
9.92695e-08
3.17567e-09
9.91262e-08
3.11143e-09
9.89726e-08
3.03925e-09
9.88079e-08
2.95962e-09
9.86316e-08
2.87317e-09
9.84429e-08
2.78066e-09
9.82411e-08
2.68298e-09
9.80257e-08
2.58124e-09
9.77963e-08
2.47675e-09
9.75527e-08
2.37104e-09
9.72953e-08
2.26582e-09
9.70245e-08
2.16296e-09
9.67417e-08
2.06439e-09
9.64483e-08
1.972e-09
9.61464e-08
1.88748e-09
9.58381e-08
1.81223e-09
9.5526e-08
1.74722e-09
9.52122e-08
1.69298e-09
9.48989e-08
1.64959e-09
9.45878e-08
1.61674e-09
9.42804e-08
1.59379e-09
9.39778e-08
1.57982e-09
9.36807e-08
1.5737e-09
9.33894e-08
1.57417e-09
9.31039e-08
1.57991e-09
9.28237e-08
1.58964e-09
9.25484e-08
1.60221e-09
9.2277e-08
1.61662e-09
9.20089e-08
1.63206e-09
9.17432e-08
1.64791e-09
9.14792e-08
1.66375e-09
9.12162e-08
1.67926e-09
9.09535e-08
1.69429e-09
9.06907e-08
1.70877e-09
9.04274e-08
1.72269e-09
9.01632e-08
1.7361e-09
8.9898e-08
1.74906e-09
8.96314e-08
1.76164e-09
8.93634e-08
1.77394e-09
8.90939e-08
1.78602e-09
8.88227e-08
1.79795e-09
8.85499e-08
1.80978e-09
8.82753e-08
1.82156e-09
8.7999e-08
1.83332e-09
8.77208e-08
1.84509e-09
8.74408e-08
1.85688e-09
8.7159e-08
1.86871e-09
8.68753e-08
1.88059e-09
8.65896e-08
1.89251e-09
8.63021e-08
1.90449e-09
8.60125e-08
1.91652e-09
8.5721e-08
1.92862e-09
8.54275e-08
1.94076e-09
8.5132e-08
1.95297e-09
8.48344e-08
1.96523e-09
8.45347e-08
1.97756e-09
8.4233e-08
1.98994e-09
8.39291e-08
2.00238e-09
8.36231e-08
2.01487e-09
8.3315e-08
2.02743e-09
8.30046e-08
2.04005e-09
8.26921e-08
2.05274e-09
8.23774e-08
2.0655e-09
8.20604e-08
2.07832e-09
8.17412e-08
2.09122e-09
8.14196e-08
2.1042e-09
8.10958e-08
2.11726e-09
8.07696e-08
2.13042e-09
8.0441e-08
2.14367e-09
8.01101e-08
2.15703e-09
7.97768e-08
2.17051e-09
7.9441e-08
2.18412e-09
7.91027e-08
2.19788e-09
7.87619e-08
2.2118e-09
7.84186e-08
2.2259e-09
7.80726e-08
2.24021e-09
7.77241e-08
2.25476e-09
7.73727e-08
2.26965e-09
7.70184e-08
2.28506e-09
2.30134e-09
1.09466e-07
2.75644e-09
-1.09619e-07
1.09324e-07
2.84461e-09
1.09192e-07
2.93055e-09
1.09068e-07
3.01304e-09
1.08951e-07
3.09107e-09
1.08839e-07
3.16371e-09
1.08731e-07
3.23024e-09
1.08626e-07
3.29008e-09
1.08523e-07
3.34273e-09
1.0842e-07
3.38778e-09
1.08317e-07
3.42492e-09
1.08212e-07
3.45388e-09
1.08105e-07
3.47444e-09
1.07995e-07
3.48645e-09
1.0788e-07
3.48982e-09
1.07761e-07
3.48449e-09
1.07637e-07
3.47047e-09
1.07506e-07
3.44785e-09
1.07367e-07
3.41674e-09
1.07222e-07
3.37735e-09
1.07067e-07
3.32993e-09
1.06904e-07
3.27482e-09
1.06731e-07
3.21244e-09
1.06547e-07
3.14327e-09
1.06352e-07
3.06792e-09
1.06146e-07
2.98711e-09
1.05927e-07
2.90167e-09
1.05696e-07
2.81261e-09
1.05452e-07
2.72105e-09
1.05194e-07
2.62831e-09
1.04924e-07
2.5358e-09
1.04642e-07
2.44505e-09
1.04349e-07
2.35762e-09
1.04046e-07
2.27503e-09
1.03735e-07
2.19867e-09
1.03417e-07
2.12969e-09
1.03096e-07
2.06898e-09
1.02771e-07
2.0171e-09
1.02447e-07
1.97425e-09
1.02123e-07
1.94033e-09
1.01802e-07
1.91497e-09
1.01484e-07
1.89754e-09
1.01171e-07
1.88724e-09
1.00862e-07
1.88314e-09
1.00557e-07
1.88423e-09
1.00258e-07
1.88951e-09
9.99618e-08
1.89803e-09
9.96695e-08
1.90894e-09
9.938e-08
1.92151e-09
9.90927e-08
1.93517e-09
9.8807e-08
1.94946e-09
9.85222e-08
1.96404e-09
9.82378e-08
1.97869e-09
9.79534e-08
1.99326e-09
9.76684e-08
2.00767e-09
9.73826e-08
2.0219e-09
9.70957e-08
2.03595e-09
9.68075e-08
2.04984e-09
9.65178e-08
2.0636e-09
9.62266e-08
2.07728e-09
9.59336e-08
2.09091e-09
9.56389e-08
2.10452e-09
9.53423e-08
2.11813e-09
9.50438e-08
2.13178e-09
9.47434e-08
2.14548e-09
9.44411e-08
2.15925e-09
9.41367e-08
2.17308e-09
9.38303e-08
2.18698e-09
9.35219e-08
2.20097e-09
9.32113e-08
2.21503e-09
9.28987e-08
2.22918e-09
9.25839e-08
2.24341e-09
9.22669e-08
2.25772e-09
9.19478e-08
2.27212e-09
9.16264e-08
2.28659e-09
9.13028e-08
2.30114e-09
9.0977e-08
2.31578e-09
9.06488e-08
2.3305e-09
9.03184e-08
2.3453e-09
8.99857e-08
2.36018e-09
8.96506e-08
2.37515e-09
8.93131e-08
2.39021e-09
8.89732e-08
2.40536e-09
8.8631e-08
2.4206e-09
8.82862e-08
2.43595e-09
8.7939e-08
2.45139e-09
8.75894e-08
2.46695e-09
8.72371e-08
2.48262e-09
8.68824e-08
2.49842e-09
8.65251e-08
2.51436e-09
8.61651e-08
2.53045e-09
8.58026e-08
2.5467e-09
8.54373e-08
2.56313e-09
8.50693e-08
2.57975e-09
8.46986e-08
2.5966e-09
8.43252e-08
2.6137e-09
8.39488e-08
2.63109e-09
8.35696e-08
2.64885e-09
8.31876e-08
2.66711e-09
2.68602e-09
6.86386e-08
2.6181e-09
-6.85003e-08
6.87839e-08
2.69932e-09
6.89359e-08
2.77855e-09
6.90942e-08
2.85476e-09
6.92582e-08
2.92707e-09
6.94273e-08
2.99461e-09
6.96009e-08
3.05666e-09
6.97783e-08
3.11263e-09
6.9959e-08
3.16202e-09
7.01424e-08
3.2044e-09
7.03279e-08
3.23942e-09
7.0515e-08
3.2668e-09
7.07031e-08
3.2863e-09
7.08918e-08
3.29776e-09
7.10806e-08
3.30106e-09
7.12689e-08
3.29615e-09
7.14564e-08
3.28303e-09
7.16424e-08
3.26177e-09
7.18267e-08
3.23248e-09
7.20087e-08
3.19538e-09
7.21879e-08
3.1507e-09
7.2364e-08
3.09878e-09
7.25363e-08
3.04004e-09
7.27047e-08
2.97496e-09
7.28685e-08
2.90412e-09
7.30273e-08
2.82823e-09
7.31809e-08
2.74807e-09
7.3329e-08
2.66458e-09
7.34712e-08
2.5788e-09
7.36076e-08
2.49189e-09
7.37383e-08
2.40513e-09
7.38635e-08
2.31984e-09
7.39838e-08
2.23737e-09
7.40998e-08
2.15903e-09
7.42124e-08
2.08601e-09
7.43228e-08
2.01934e-09
7.4432e-08
1.95982e-09
7.45411e-08
1.90796e-09
7.46513e-08
1.86404e-09
7.47636e-08
1.82802e-09
7.48789e-08
1.79967e-09
7.49979e-08
1.77851e-09
7.51212e-08
1.76393e-09
7.52492e-08
1.75517e-09
7.5382e-08
1.75142e-09
7.55197e-08
1.75183e-09
7.56621e-08
1.7556e-09
7.58091e-08
1.76199e-09
7.59603e-08
1.77035e-09
7.61153e-08
1.78013e-09
7.62739e-08
1.7909e-09
7.64356e-08
1.8023e-09
7.66002e-08
1.81409e-09
7.67674e-08
1.82609e-09
7.69369e-08
1.83818e-09
7.71085e-08
1.85029e-09
7.7282e-08
1.8624e-09
7.74574e-08
1.87449e-09
7.76344e-08
1.88655e-09
7.78131e-08
1.89862e-09
7.79933e-08
1.91069e-09
7.8175e-08
1.92279e-09
7.83582e-08
1.93493e-09
7.85429e-08
1.94713e-09
7.8729e-08
1.95939e-09
7.89165e-08
1.97173e-09
7.91054e-08
1.98414e-09
7.92958e-08
1.99663e-09
7.94875e-08
2.0092e-09
7.96807e-08
2.02185e-09
7.98753e-08
2.03459e-09
8.00713e-08
2.0474e-09
8.02687e-08
2.0603e-09
8.04676e-08
2.07327e-09
8.06679e-08
2.08632e-09
8.08696e-08
2.09945e-09
8.10727e-08
2.11265e-09
8.12772e-08
2.12594e-09
8.14832e-08
2.1393e-09
8.16907e-08
2.15274e-09
8.18996e-08
2.16626e-09
8.21099e-08
2.17987e-09
8.23217e-08
2.19356e-09
8.2535e-08
2.20734e-09
8.27497e-08
2.22122e-09
8.29659e-08
2.2352e-09
8.31836e-08
2.24929e-09
8.34027e-08
2.2635e-09
8.36233e-08
2.27783e-09
8.38453e-08
2.29231e-09
8.40689e-08
2.30693e-09
8.42938e-08
2.32172e-09
8.45203e-08
2.3367e-09
8.47481e-08
2.35188e-09
8.49774e-08
2.3673e-09
8.52081e-08
2.38298e-09
8.54403e-08
2.39896e-09
8.56738e-08
2.41529e-09
8.5909e-08
2.432e-09
2.44906e-09
7.58464e-08
2.46748e-09
-7.56958e-08
7.60035e-08
2.54223e-09
7.61669e-08
2.61516e-09
7.63362e-08
2.68541e-09
7.65111e-08
2.75221e-09
7.6691e-08
2.81474e-09
7.68753e-08
2.87235e-09
7.70635e-08
2.92443e-09
7.7255e-08
2.97049e-09
7.74493e-08
3.01009e-09
7.76459e-08
3.04287e-09
7.78441e-08
3.06853e-09
7.80436e-08
3.08682e-09
7.82438e-08
3.09755e-09
7.84443e-08
3.10062e-09
7.86445e-08
3.09594e-09
7.8844e-08
3.08353e-09
7.90423e-08
3.06343e-09
7.9239e-08
3.03576e-09
7.94337e-08
3.00072e-09
7.96258e-08
2.95855e-09
7.9815e-08
2.90958e-09
8.00009e-08
2.85421e-09
8.01829e-08
2.79293e-09
8.03607e-08
2.72629e-09
8.0534e-08
2.65495e-09
8.07024e-08
2.57967e-09
8.08657e-08
2.50131e-09
8.10236e-08
2.42082e-09
8.11763e-08
2.33925e-09
8.13237e-08
2.2577e-09
8.14662e-08
2.17735e-09
8.16042e-08
2.09936e-09
8.17384e-08
2.02485e-09
8.18695e-08
1.95487e-09
8.19986e-08
1.89031e-09
8.21265e-08
1.83189e-09
8.22544e-08
1.78009e-09
8.23832e-08
1.73521e-09
8.25139e-08
1.6973e-09
8.26474e-08
1.66621e-09
8.27843e-08
1.64162e-09
8.29252e-08
1.62304e-09
8.30704e-08
1.60991e-09
8.32203e-08
1.60155e-09
8.33748e-08
1.59728e-09
8.3534e-08
1.59644e-09
8.36976e-08
1.59837e-09
8.38654e-08
1.60251e-09
8.40372e-08
1.60836e-09
8.42126e-08
1.61549e-09
8.43914e-08
1.62356e-09
8.45731e-08
1.63232e-09
8.47577e-08
1.64156e-09
8.49447e-08
1.65113e-09
8.51341e-08
1.66093e-09
8.53256e-08
1.67089e-09
8.55191e-08
1.68097e-09
8.57145e-08
1.69115e-09
8.59117e-08
1.70141e-09
8.61107e-08
1.71176e-09
8.63113e-08
1.72218e-09
8.65135e-08
1.73268e-09
8.67174e-08
1.74327e-09
8.69228e-08
1.75394e-09
8.71299e-08
1.76469e-09
8.73385e-08
1.77553e-09
8.75487e-08
1.78646e-09
8.77604e-08
1.79747e-09
8.79737e-08
1.80857e-09
8.81885e-08
1.81974e-09
8.84049e-08
1.83099e-09
8.86229e-08
1.84232e-09
8.88424e-08
1.85373e-09
8.90635e-08
1.86521e-09
8.92862e-08
1.87676e-09
8.95105e-08
1.88839e-09
8.97364e-08
1.90009e-09
8.99638e-08
1.91186e-09
9.01928e-08
1.9237e-09
9.04235e-08
1.93562e-09
9.06557e-08
1.94762e-09
9.08896e-08
1.9597e-09
9.1125e-08
1.97187e-09
9.13621e-08
1.98413e-09
9.16009e-08
1.99648e-09
9.18412e-08
2.00895e-09
9.20832e-08
2.02152e-09
9.23268e-08
2.03423e-09
9.2572e-08
2.04707e-09
9.28189e-08
2.06006e-09
9.30674e-08
2.07322e-09
9.33175e-08
2.08658e-09
9.35693e-08
2.10014e-09
9.38226e-08
2.11395e-09
9.40776e-08
2.12802e-09
9.43342e-08
2.14239e-09
9.45924e-08
2.15709e-09
9.48522e-08
2.17213e-09
2.18754e-09
8.38071e-08
2.30383e-09
-8.36435e-08
8.39768e-08
2.37254e-09
8.41524e-08
2.43956e-09
8.43337e-08
2.50416e-09
8.45202e-08
2.56567e-09
8.47116e-08
2.62335e-09
8.49074e-08
2.67657e-09
8.5107e-08
2.72477e-09
8.53101e-08
2.76746e-09
8.5516e-08
2.80421e-09
8.57242e-08
2.83464e-09
8.59343e-08
2.85845e-09
8.61457e-08
2.87537e-09
8.6358e-08
2.88522e-09
8.65708e-08
2.88787e-09
8.67835e-08
2.88323e-09
8.69957e-08
2.87131e-09
8.7207e-08
2.85215e-09
8.74169e-08
2.82586e-09
8.7625e-08
2.79262e-09
8.78309e-08
2.75268e-09
8.80341e-08
2.70636e-09
8.82343e-08
2.65404e-09
8.8431e-08