/*--------------------------------*- C++ -*----------------------------------*\
| =========                 |                                                 |
| \\      /  F ield         | OpenFOAM: The Open Source CFD Toolbox           |
|  \\    /   O peration     | Version:  2.3.0                                 |
|   \\  /    A nd           | Web:      www.OpenFOAM.org                      |
|    \\/     M anipulation  |                                                 |
\*---------------------------------------------------------------------------*/
FoamFile
{
    version     2.0;
    format      ascii;
    class       volVectorField;
    location    "0.1";
    object      U;
}
// * * * * * * * * * * * * * * * * * * * * * * * * * * * * * * * * * * * * * //

dimensions      [0 1 -1 0 0 0 0];

internalField   nonuniform List<vector> 
2250
(
(0.184935 0.0040409 1.15502e-06)
(0.177781 0.00441783 2.95286e-06)
(0.170422 0.00451179 4.17193e-06)
(0.162893 0.00447034 5.09719e-06)
(0.155387 0.0043593 5.78131e-06)
(0.148008 0.00420327 6.16453e-06)
(0.140786 0.00401635 6.22032e-06)
(0.133737 0.00380938 5.95282e-06)
(0.126881 0.00359008 5.36346e-06)
(0.120239 0.00336353 4.44598e-06)
(0.11383 0.00313322 3.19542e-06)
(0.107672 0.00290172 1.6137e-06)
(0.10178 0.00267109 -2.89465e-07)
(0.0961678 0.00244309 -2.49676e-06)
(0.090848 0.00221931 -4.98319e-06)
(0.0858307 0.00200124 -7.716e-06)
(0.0811244 0.00179028 -1.06551e-05)
(0.0767346 0.00158783 -1.37538e-05)
(0.0726647 0.00139517 -1.69606e-05)
(0.0689151 0.00121349 -2.02206e-05)
(0.0654836 0.00104383 -2.34774e-05)
(0.0623654 0.000887016 -2.66745e-05)
(0.0595529 0.000743629 -2.97576e-05)
(0.0570366 0.000613963 -3.26746e-05)
(0.0548052 0.000497984 -3.53761e-05)
(0.0528462 0.000395299 -3.78138e-05)
(0.0511471 0.000305192 -3.99381e-05)
(0.0496958 0.000226714 -4.16947e-05)
(0.0484812 0.000158806 -4.30228e-05)
(0.0474929 0.000100518 -4.38565e-05)
(0.0467203 5.11373e-05 -4.4131e-05)
(0.0461511 9.78224e-06 -4.37927e-05)
(0.0457713 -2.61124e-05 -4.28085e-05)
(0.0455689 -6.11463e-05 -4.11622e-05)
(0.0455411 -9.27877e-05 -3.88501e-05)
(0.0456673 -0.000103835 -3.59204e-05)
(0.0458517 -9.06884e-05 -3.26295e-05)
(0.0460558 -6.93733e-05 -2.93181e-05)
(0.0462558 -5.04604e-05 -2.61514e-05)
(0.0464407 -3.78615e-05 -2.31122e-05)
(0.0466082 -3.19041e-05 -2.02814e-05)
(0.0467571 -3.03821e-05 -1.76189e-05)
(0.0468883 -2.86903e-05 -1.51991e-05)
(0.0469931 -2.45764e-05 -1.30682e-05)
(0.047064 -1.92719e-05 -1.12697e-05)
(0.0471 -1.4453e-05 -9.81442e-06)
(0.047104 -1.07419e-05 -8.66808e-06)
(0.0470811 -8.16183e-06 -7.77822e-06)
(0.0470369 -6.5141e-06 -7.09022e-06)
(0.0469769 -5.55608e-06 -6.55446e-06)
(0.0469053 -5.07422e-06 -6.12949e-06)
(0.0468259 -4.9049e-06 -5.78263e-06)
(0.0467411 -4.9326e-06 -5.48943e-06)
(0.046653 -5.08047e-06 -5.23244e-06)
(0.046563 -5.29978e-06 -4.9999e-06)
(0.0464719 -5.56093e-06 -4.78442e-06)
(0.0463804 -5.84685e-06 -4.58184e-06)
(0.0462888 -6.14831e-06 -4.39017e-06)
(0.0461975 -6.46083e-06 -4.20884e-06)
(0.0461065 -6.78266e-06 -4.03807e-06)
(0.0460159 -7.11353e-06 -3.87844e-06)
(0.045926 -7.45388e-06 -3.73056e-06)
(0.0458367 -7.80439e-06 -3.59494e-06)
(0.0457481 -8.1657e-06 -3.4719e-06)
(0.0456603 -8.5383e-06 -3.36153e-06)
(0.0455735 -8.92246e-06 -3.2637e-06)
(0.0454877 -9.31825e-06 -3.17809e-06)
(0.0454029 -9.72557e-06 -3.10425e-06)
(0.0453194 -1.01442e-05 -3.04163e-06)
(0.0452372 -1.05737e-05 -2.98959e-06)
(0.0451563 -1.10139e-05 -2.94744e-06)
(0.045077 -1.14642e-05 -2.91448e-06)
(0.0449994 -1.19244e-05 -2.88997e-06)
(0.0449234 -1.23939e-05 -2.87317e-06)
(0.0448493 -1.28726e-05 -2.86335e-06)
(0.0447771 -1.336e-05 -2.85976e-06)
(0.044707 -1.3856e-05 -2.86164e-06)
(0.044639 -1.43602e-05 -2.86824e-06)
(0.0445733 -1.48725e-05 -2.87877e-06)
(0.0445099 -1.53928e-05 -2.89243e-06)
(0.0444491 -1.59208e-05 -2.90838e-06)
(0.0443907 -1.64566e-05 -2.92573e-06)
(0.0443351 -1.70001e-05 -2.94356e-06)
(0.0442822 -1.75512e-05 -2.96085e-06)
(0.0442322 -1.81099e-05 -2.97649e-06)
(0.0441852 -1.86763e-05 -2.98929e-06)
(0.0441413 -1.92503e-05 -2.99792e-06)
(0.0441007 -1.98321e-05 -3.0009e-06)
(0.0440633 -2.04216e-05 -2.99656e-06)
(0.0440293 -2.10191e-05 -2.98302e-06)
(0.0439989 -2.16244e-05 -2.95817e-06)
(0.0439721 -2.22378e-05 -2.91957e-06)
(0.043949 -2.28593e-05 -2.86444e-06)
(0.0439297 -2.34887e-05 -2.78955e-06)
(0.0439143 -2.4125e-05 -2.6911e-06)
(0.0439028 -2.47649e-05 -2.56447e-06)
(0.0438953 -2.53924e-05 -2.40374e-06)
(0.0438916 -2.59712e-05 -2.19875e-06)
(0.043894 -2.65339e-05 -1.92084e-06)
(0.0438441 -4.32204e-06 -1.97273e-06)
(0.19417 0.00620527 7.89753e-07)
(0.194053 0.00680315 2.29814e-06)
(0.193454 0.00702046 3.55431e-06)
(0.192374 0.0070774 4.5037e-06)
(0.190917 0.00706076 5.17296e-06)
(0.189156 0.00699336 5.56098e-06)
(0.18713 0.00688543 5.65753e-06)
(0.184868 0.00674541 5.46422e-06)
(0.182401 0.00657908 4.98673e-06)
(0.179761 0.00638974 4.2273e-06)
(0.176977 0.00617948 3.18682e-06)
(0.174079 0.00594999 1.86901e-06)
(0.171092 0.00570297 2.82188e-07)
(0.168045 0.00544021 -1.56029e-06)
(0.164962 0.0051637 -3.63978e-06)
(0.161867 0.00487561 -5.93207e-06)
(0.158784 0.00457828 -8.40739e-06)
(0.155735 0.00427421 -1.10309e-05)
(0.15274 0.003966 -1.37634e-05)
(0.149819 0.00365626 -1.65626e-05)
(0.146991 0.00334752 -1.93841e-05)
(0.144271 0.00304219 -2.21827e-05)
(0.141676 0.00274238 -2.49133e-05)
(0.139222 0.00244983 -2.75315e-05)
(0.136922 0.00216573 -2.99936e-05)
(0.134792 0.00189074 -3.22549e-05)
(0.132845 0.001625 -3.42677e-05)
(0.131096 0.00136841 -3.59791e-05)
(0.129558 0.001121 -3.73294e-05)
(0.12824 0.000883434 -3.82535e-05)
(0.127149 0.000657406 -3.86869e-05)
(0.126288 0.000445645 -3.85743e-05)
(0.125651 0.000251178 -3.78759e-05)
(0.125227 7.66665e-05 -3.65613e-05)
(0.12498 -7.24564e-05 -3.46012e-05)
(0.124848 -0.000182261 -3.21279e-05)
(0.124839 -0.00024711 -2.94141e-05)
(0.124949 -0.000279023 -2.662e-05)
(0.12515 -0.000289438 -2.38365e-05)
(0.125402 -0.000284057 -2.11641e-05)
(0.125673 -0.000267777 -1.85989e-05)
(0.125937 -0.00024292 -1.62049e-05)
(0.126163 -0.000212443 -1.39918e-05)
(0.126333 -0.000177506 -1.20437e-05)
(0.126445 -0.000141307 -1.04127e-05)
(0.126498 -0.000107679 -9.08734e-06)
(0.126498 -7.89584e-05 -8.03382e-06)
(0.126448 -5.59618e-05 -7.2078e-06)
(0.126356 -3.85054e-05 -6.5632e-06)
(0.126229 -2.58792e-05 -6.05753e-06)
(0.126074 -1.71781e-05 -5.65457e-06)
(0.125896 -1.15e-05 -5.32522e-06)
(0.125702 -8.04691e-06 -5.04725e-06)
(0.125495 -6.16506e-06 -4.80452e-06)
(0.125278 -5.34891e-06 -4.58595e-06)
(0.125054 -5.22702e-06 -4.38441e-06)
(0.124825 -5.53948e-06 -4.19574e-06)
(0.124592 -6.11361e-06 -4.01785e-06)
(0.124356 -6.84118e-06 -3.85e-06)
(0.124118 -7.65904e-06 -3.69222e-06)
(0.123878 -8.53378e-06 -3.54491e-06)
(0.123635 -9.45035e-06 -3.40857e-06)
(0.123391 -1.0404e-05 -3.2836e-06)
(0.123146 -1.13951e-05 -3.17027e-06)
(0.122899 -1.24258e-05 -3.06863e-06)
(0.122651 -1.34984e-05 -2.97857e-06)
(0.122401 -1.46146e-05 -2.89981e-06)
(0.12215 -1.57749e-05 -2.83192e-06)
(0.121898 -1.69792e-05 -2.77441e-06)
(0.121645 -1.82265e-05 -2.7267e-06)
(0.121391 -1.95153e-05 -2.68817e-06)
(0.121137 -2.08439e-05 -2.65818e-06)
(0.120881 -2.22102e-05 -2.63605e-06)
(0.120625 -2.36124e-05 -2.62113e-06)
(0.120368 -2.50486e-05 -2.61273e-06)
(0.120111 -2.65168e-05 -2.61017e-06)
(0.119853 -2.80153e-05 -2.61275e-06)
(0.119595 -2.95426e-05 -2.61977e-06)
(0.119337 -3.10971e-05 -2.6305e-06)
(0.119079 -3.26775e-05 -2.6442e-06)
(0.118821 -3.42825e-05 -2.66008e-06)
(0.118562 -3.59111e-05 -2.67732e-06)
(0.118304 -3.75622e-05 -2.69503e-06)
(0.118046 -3.9235e-05 -2.71226e-06)
(0.117788 -4.09285e-05 -2.72798e-06)
(0.117531 -4.26421e-05 -2.74103e-06)
(0.117274 -4.43751e-05 -2.75015e-06)
(0.117018 -4.6127e-05 -2.75394e-06)
(0.116762 -4.78971e-05 -2.75081e-06)
(0.116507 -4.96851e-05 -2.73895e-06)
(0.116253 -5.14903e-05 -2.71635e-06)
(0.115999 -5.33123e-05 -2.68066e-06)
(0.115747 -5.51501e-05 -2.62923e-06)
(0.115495 -5.7002e-05 -2.55898e-06)
(0.115244 -5.88635e-05 -2.46633e-06)
(0.114994 -6.07208e-05 -2.34714e-06)
(0.114745 -6.25249e-05 -2.19672e-06)
(0.114497 -6.40664e-05 -2.00951e-06)
(0.114254 -6.33654e-05 -1.8083e-06)
(0.113927 -4.03241e-05 -2.58431e-06)
(0.195274 0.00536021 6.21578e-07)
(0.195722 0.00595757 1.89102e-06)
(0.196141 0.00636178 3.0141e-06)
(0.196439 0.00666557 3.85052e-06)
(0.196604 0.00690652 4.41834e-06)
(0.196645 0.00708913 4.75484e-06)
(0.196557 0.0072144 4.86063e-06)
(0.196336 0.00728606 4.72917e-06)
(0.195982 0.00730816 4.36204e-06)
(0.195496 0.00728382 3.76341e-06)
(0.194883 0.0072156 2.93614e-06)
(0.19415 0.00710604 1.88334e-06)
(0.193303 0.00695781 6.10666e-07)
(0.192353 0.00677378 -8.72701e-07)
(0.191308 0.00655698 -2.55383e-06)
(0.190182 0.00631067 -4.41582e-06)
(0.188985 0.00603823 -6.43769e-06)
(0.187731 0.00574318 -8.59449e-06)
(0.186434 0.00542909 -1.08576e-05)
(0.185108 0.00509946 -1.31954e-05)
(0.183768 0.00475764 -1.55735e-05)
(0.18243 0.00440671 -1.79559e-05)
(0.181109 0.0040493 -2.0305e-05)
(0.17982 0.00368749 -2.25818e-05)
(0.178581 0.00332274 -2.4746e-05)
(0.177407 0.00295586 -2.67549e-05)
(0.176314 0.00258732 -2.85629e-05)
(0.175316 0.00221768 -3.01206e-05)
(0.174427 0.00184826 -3.13755e-05)
(0.173657 0.00148182 -3.22741e-05)
(0.173013 0.00112294 -3.27653e-05)
(0.172499 0.000777907 -3.28042e-05)
(0.172111 0.000454517 -3.23563e-05)
(0.171842 0.000163187 -3.14158e-05)
(0.171679 -8.2053e-05 -3.00509e-05)
(0.171611 -0.000271873 -2.83527e-05)
(0.171627 -0.000409061 -2.63694e-05)
(0.171712 -0.000502674 -2.41714e-05)
(0.171847 -0.000560052 -2.18439e-05)
(0.172012 -0.000584409 -1.96023e-05)
(0.17219 -0.000579046 -1.73724e-05)
(0.172358 -0.000546046 -1.53453e-05)
(0.172506 -0.000492239 -1.3471e-05)
(0.172625 -0.000425967 -1.17946e-05)
(0.172713 -0.000355547 -1.03395e-05)
(0.172766 -0.000287548 -9.10628e-06)
(0.172784 -0.000226159 -8.08244e-06)
(0.172768 -0.000173495 -7.24539e-06)
(0.172721 -0.000130159 -6.56679e-06)
(0.172646 -9.57759e-05 -6.01718e-06)
(0.172546 -6.94053e-05 -5.56899e-06)
(0.172426 -4.98454e-05 -5.19832e-06)
(0.17229 -3.58339e-05 -4.8856e-06)
(0.172141 -2.61764e-05 -4.61561e-06)
(0.171981 -1.98188e-05 -4.37709e-06)
(0.171813 -1.58811e-05 -4.16208e-06)
(0.171638 -1.36627e-05 -3.96532e-06)
(0.171458 -1.26305e-05 -3.78351e-06)
(0.171274 -1.23958e-05 -3.61478e-06)
(0.171086 -1.26873e-05 -3.45818e-06)
(0.170895 -1.33242e-05 -3.3133e-06)
(0.170702 -1.41913e-05 -3.18e-06)
(0.170506 -1.52191e-05 -3.05824e-06)
(0.170307 -1.63681e-05 -2.94795e-06)
(0.170106 -1.76171e-05 -2.84899e-06)
(0.169902 -1.89554e-05 -2.76111e-06)
(0.169696 -2.03779e-05 -2.68396e-06)
(0.169488 -2.18819e-05 -2.61711e-06)
(0.169277 -2.34653e-05 -2.56007e-06)
(0.169064 -2.51261e-05 -2.51227e-06)
(0.168849 -2.68622e-05 -2.47313e-06)
(0.168632 -2.86708e-05 -2.44203e-06)
(0.168412 -3.05491e-05 -2.41836e-06)
(0.168191 -3.2494e-05 -2.40147e-06)
(0.167967 -3.45024e-05 -2.39072e-06)
(0.16774 -3.65713e-05 -2.38547e-06)
(0.167512 -3.86977e-05 -2.38506e-06)
(0.167282 -4.0879e-05 -2.38881e-06)
(0.167049 -4.31124e-05 -2.39604e-06)
(0.166814 -4.53955e-05 -2.40604e-06)
(0.166578 -4.7726e-05 -2.41806e-06)
(0.166339 -5.01017e-05 -2.43131e-06)
(0.166098 -5.25207e-05 -2.44494e-06)
(0.165855 -5.49809e-05 -2.45804e-06)
(0.165611 -5.74807e-05 -2.46962e-06)
(0.165364 -6.00184e-05 -2.47857e-06)
(0.165115 -6.25924e-05 -2.48368e-06)
(0.164864 -6.52011e-05 -2.48358e-06)
(0.164612 -6.78431e-05 -2.47676e-06)
(0.164357 -7.05167e-05 -2.46149e-06)
(0.164101 -7.32205e-05 -2.4358e-06)
(0.163842 -7.59523e-05 -2.39746e-06)
(0.163582 -7.87095e-05 -2.34395e-06)
(0.16332 -8.14874e-05 -2.27239e-06)
(0.163055 -8.4276e-05 -2.17964e-06)
(0.162789 -8.70477e-05 -2.06268e-06)
(0.16252 -8.97116e-05 -1.92061e-06)
(0.162249 -9.1851e-05 -1.76681e-06)
(0.161979 -9.07455e-05 -1.7565e-06)
(0.161659 -8.43968e-05 -2.53099e-06)
(0.195968 0.00507657 4.39496e-07)
(0.19633 0.00565695 1.34538e-06)
(0.196748 0.00610475 2.23412e-06)
(0.197157 0.0064526 2.98764e-06)
(0.197539 0.00672738 3.5593e-06)
(0.197895 0.00694075 3.95055e-06)
(0.198221 0.00709884 4.15385e-06)
(0.198511 0.00720726 4.15423e-06)
(0.19876 0.00727074 3.94564e-06)
(0.198962 0.00729249 3.53082e-06)
(0.199114 0.00727454 2.91522e-06)
(0.199211 0.00721832 2.10488e-06)
(0.199252 0.0071251 1.1073e-06)
(0.199235 0.00699615 -6.77492e-08)
(0.199158 0.00683294 -1.40814e-06)
(0.199023 0.00663717 -2.89938e-06)
(0.198831 0.00641081 -4.52451e-06)
(0.198585 0.00615609 -6.26407e-06)
(0.198289 0.00587545 -8.09607e-06)
(0.197948 0.00557144 -9.996e-06)
(0.197568 0.00524661 -1.19371e-05)
(0.197156 0.0049034 -1.38902e-05)
(0.196722 0.00454397 -1.58244e-05)
(0.196272 0.00417016 -1.77065e-05)
(0.195817 0.00378343 -1.95014e-05)
(0.195365 0.003385 -2.11722e-05)
(0.194925 0.00297619 -2.2681e-05)
(0.194505 0.00255891 -2.39898e-05)
(0.194111 0.00213629 -2.5062e-05)
(0.193748 0.00171324 -2.58641e-05)
(0.193419 0.00129672 -2.63669e-05)
(0.193126 0.00089564 -2.65482e-05)
(0.192869 0.000520611 -2.63978e-05)
(0.192646 0.000183625 -2.59305e-05)
(0.192457 -0.000103414 -2.51891e-05)
(0.192303 -0.00033308 -2.41986e-05)
(0.192185 -0.000504885 -2.29595e-05)
(0.192103 -0.000622597 -2.15151e-05)
(0.192051 -0.000691729 -1.99583e-05)
(0.192021 -0.000718877 -1.82991e-05)
(0.192007 -0.000709894 -1.66613e-05)
(0.192002 -0.000671634 -1.5031e-05)
(0.192005 -0.000610853 -1.35002e-05)
(0.192012 -0.000536167 -1.20787e-05)
(0.19202 -0.000456109 -1.07764e-05)
(0.192026 -0.00037751 -9.60789e-06)
(0.192026 -0.00030507 -8.58059e-06)
(0.192019 -0.00024151 -7.69315e-06)
(0.192001 -0.000187973 -6.9367e-06)
(0.191974 -0.000144471 -6.29741e-06)
(0.191937 -0.000110276 -5.759e-06)
(0.19189 -8.42481e-05 -5.3049e-06)
(0.191834 -6.50685e-05 -4.91958e-06)
(0.19177 -5.14107e-05 -4.58946e-06)
(0.1917 -4.20493e-05 -4.30321e-06)
(0.191625 -3.59211e-05 -4.05181e-06)
(0.191545 -3.21508e-05 -3.82831e-06)
(0.19146 -3.005e-05 -3.62759e-06)
(0.191373 -2.91006e-05 -3.44599e-06)
(0.191283 -2.89284e-05 -3.28093e-06)
(0.19119 -2.92741e-05 -3.13067e-06)
(0.191095 -2.9966e-05 -2.99403e-06)
(0.190998 -3.08949e-05 -2.87014e-06)
(0.190899 -3.19949e-05 -2.75837e-06)
(0.190799 -3.32279e-05 -2.65817e-06)
(0.190696 -3.45731e-05 -2.56905e-06)
(0.190592 -3.60196e-05 -2.4905e-06)
(0.190485 -3.75614e-05 -2.42201e-06)
(0.190377 -3.91953e-05 -2.36301e-06)
(0.190267 -4.09186e-05 -2.31295e-06)
(0.190155 -4.27287e-05 -2.27124e-06)
(0.190042 -4.4623e-05 -2.23728e-06)
(0.189926 -4.65986e-05 -2.21046e-06)
(0.189809 -4.86523e-05 -2.19017e-06)
(0.189689 -5.07809e-05 -2.17577e-06)
(0.189567 -5.29811e-05 -2.16665e-06)
(0.189444 -5.52499e-05 -2.16217e-06)
(0.189318 -5.75841e-05 -2.16166e-06)
(0.189191 -5.99809e-05 -2.16448e-06)
(0.189061 -6.24374e-05 -2.16991e-06)
(0.188929 -6.49509e-05 -2.17723e-06)
(0.188795 -6.75189e-05 -2.18568e-06)
(0.188659 -7.0139e-05 -2.19442e-06)
(0.18852 -7.28089e-05 -2.20257e-06)
(0.188379 -7.55263e-05 -2.20915e-06)
(0.188236 -7.82891e-05 -2.21309e-06)
(0.188091 -8.10951e-05 -2.21321e-06)
(0.187943 -8.39422e-05 -2.20817e-06)
(0.187793 -8.68283e-05 -2.19649e-06)
(0.18764 -8.97509e-05 -2.17648e-06)
(0.187485 -9.27074e-05 -2.14624e-06)
(0.187327 -9.56948e-05 -2.10361e-06)
(0.187167 -9.87087e-05 -2.0462e-06)
(0.187004 -0.000101742 -1.97135e-06)
(0.186838 -0.000104781 -1.87646e-06)
(0.186669 -0.000107793 -1.75988e-06)
(0.186497 -0.000110678 -1.62491e-06)
(0.186323 -0.000113084 -1.49869e-06)
(0.186149 -0.000114238 -1.48744e-06)
(0.185943 -0.000122476 -1.33785e-06)
(0.196555 0.00481734 3.14418e-07)
(0.196815 0.00530627 9.75976e-07)
(0.197137 0.00570772 1.68601e-06)
(0.197483 0.00603183 2.35104e-06)
(0.197837 0.00629551 2.88848e-06)
(0.198195 0.00650891 3.27293e-06)
(0.198553 0.00667704 3.49874e-06)
(0.198907 0.00680328 3.55734e-06)
(0.199253 0.00689039 3.44291e-06)
(0.199588 0.00694025 3.15701e-06)
(0.199909 0.00695403 2.70549e-06)
(0.200211 0.00693244 2.09517e-06)
(0.200493 0.00687607 1.33345e-06)
(0.200751 0.00678556 4.28787e-07)
(0.200982 0.0066617 -6.08914e-07)
(0.201185 0.00650548 -1.76832e-06)
(0.201356 0.00631815 -3.03655e-06)
(0.201495 0.00610118 -4.39904e-06)
(0.2016 0.00585627 -5.83933e-06)
(0.201673 0.00558525 -7.33897e-06)
(0.201713 0.00529001 -8.87741e-06)
(0.201723 0.00497244 -1.0432e-05)
(0.201703 0.00463433 -1.19778e-05)
(0.201656 0.00427733 -1.3488e-05)
(0.201585 0.00390299 -1.49341e-05)
(0.201492 0.00351294 -1.62868e-05)
(0.201379 0.00310916 -1.7517e-05)
(0.201248 0.00269443 -1.85982e-05)
(0.201099 0.00227276 -1.95075e-05)
(0.200933 0.00184984 -2.02268e-05)
(0.200751 0.00143312 -2.0744e-05)
(0.200552 0.00103172 -2.10528e-05)
(0.200339 0.000655906 -2.11551e-05)
(0.200113 0.000316427 -2.10645e-05)
(0.199879 2.3078e-05 -2.08016e-05)
(0.199646 -0.000217621 -2.03694e-05)
(0.19942 -0.000404043 -1.97435e-05)
(0.199207 -0.000538603 -1.89128e-05)
(0.199012 -0.000625787 -1.79099e-05)
(0.198837 -0.000670872 -1.67663e-05)
(0.198682 -0.000679137 -1.55767e-05)
(0.198549 -0.000656711 -1.43605e-05)
(0.198439 -0.000610447 -1.31721e-05)
(0.198351 -0.000548332 -1.20158e-05)
(0.198283 -0.000478156 -1.09008e-05)
(0.198233 -0.000406413 -9.84735e-06)
(0.198196 -0.0003379 -8.87401e-06)
(0.198169 -0.00027575 -7.99321e-06)
(0.198148 -0.000221667 -7.21025e-06)
(0.19813 -0.000176252 -6.52398e-06)
(0.198113 -0.000139321 -5.92842e-06)
(0.198096 -0.000110181 -5.41466e-06)
(0.198077 -8.78538e-05 -4.97246e-06)
(0.198057 -7.12495e-05 -4.59144e-06)
(0.198034 -5.92855e-05 -4.26189e-06)
(0.198009 -5.09661e-05 -3.97517e-06)
(0.197982 -4.54276e-05 -3.72397e-06)
(0.197953 -4.19555e-05 -3.50231e-06)
(0.197922 -3.99832e-05 -3.3054e-06)
(0.19789 -3.90785e-05 -3.12953e-06)
(0.197857 -3.89232e-05 -2.97189e-06)
(0.197822 -3.92912e-05 -2.83032e-06)
(0.197787 -4.00267e-05 -2.7032e-06)
(0.197751 -4.10258e-05 -2.58927e-06)
(0.197713 -4.22212e-05 -2.48754e-06)
(0.197675 -4.35703e-05 -2.39716e-06)
(0.197637 -4.50465e-05 -2.31742e-06)
(0.197597 -4.66333e-05 -2.24765e-06)
(0.197556 -4.83202e-05 -2.1872e-06)
(0.197515 -5.01001e-05 -2.13547e-06)
(0.197472 -5.19678e-05 -2.09183e-06)
(0.197429 -5.39192e-05 -2.05569e-06)
(0.197385 -5.59504e-05 -2.02643e-06)
(0.197339 -5.8058e-05 -2.00346e-06)
(0.197293 -6.02388e-05 -1.98615e-06)
(0.197245 -6.24896e-05 -1.97391e-06)
(0.197197 -6.48074e-05 -1.9661e-06)
(0.197147 -6.71893e-05 -1.96209e-06)
(0.197096 -6.96324e-05 -1.96123e-06)
(0.197044 -7.21341e-05 -1.96283e-06)
(0.19699 -7.46917e-05 -1.96618e-06)
(0.196936 -7.73029e-05 -1.97053e-06)
(0.196879 -7.99653e-05 -1.97507e-06)
(0.196822 -8.26766e-05 -1.97891e-06)
(0.196763 -8.54344e-05 -1.9811e-06)
(0.196702 -8.82368e-05 -1.98057e-06)
(0.19664 -9.10814e-05 -1.97616e-06)
(0.196577 -9.39661e-05 -1.96656e-06)
(0.196511 -9.68887e-05 -1.95028e-06)
(0.196444 -9.98467e-05 -1.92567e-06)
(0.196375 -0.000102837 -1.89085e-06)
(0.196305 -0.000105858 -1.84372e-06)
(0.196232 -0.000108902 -1.78195e-06)
(0.196158 -0.000111965 -1.70306e-06)
(0.196081 -0.000115033 -1.60471e-06)
(0.196002 -0.000118081 -1.48566e-06)
(0.195921 -0.000121059 -1.34828e-06)
(0.195838 -0.000123922 -1.2018e-06)
(0.195755 -0.000127522 -1.00229e-06)
(0.195649 -0.000140955 -2.0837e-08)
(0.197065 0.00461462 2.13759e-07)
(0.19726 0.00502461 6.61504e-07)
(0.197508 0.00538223 1.15758e-06)
(0.197789 0.00568595 1.65346e-06)
(0.19809 0.00594136 2.08429e-06)
(0.198404 0.0061531 2.41883e-06)
(0.198725 0.00632377 2.64749e-06)
(0.199051 0.00645523 2.76118e-06)
(0.199378 0.00654925 2.75011e-06)
(0.199703 0.00660741 2.60939e-06)
(0.200025 0.00663093 2.33938e-06)
(0.200341 0.00662075 1.94313e-06)
(0.200649 0.00657767 1.42501e-06)
(0.200947 0.00650247 7.90602e-07)
(0.201232 0.00639595 4.68496e-08)
(0.201502 0.00625904 -7.97973e-07)
(0.201755 0.00609277 -1.7343e-06)
(0.20199 0.00589832 -2.75123e-06)
(0.202203 0.00567702 -3.83637e-06)
(0.202394 0.0054303 -4.9757e-06)
(0.202562 0.00515964 -6.15341e-06)
(0.202706 0.00486659 -7.35187e-06)
(0.202824 0.00455268 -8.5516e-06)
(0.202916 0.00421945 -9.73153e-06)
(0.202982 0.00386853 -1.08696e-05)
(0.20302 0.00350176 -1.19436e-05)
(0.203029 0.00312146 -1.2933e-05)
(0.203009 0.00273071 -1.38201e-05)
(0.202957 0.0023337 -1.4592e-05)
(0.202872 0.00193598 -1.52411e-05)
(0.202754 0.00154446 -1.5765e-05)
(0.202602 0.00116727 -1.61657e-05)
(0.202418 0.000813278 -1.6449e-05)
(0.202207 0.000491383 -1.66236e-05)
(0.201974 0.000209447 -1.66954e-05)
(0.201727 -2.70828e-05 -1.66526e-05)
(0.201475 -0.000216137 -1.64622e-05)
(0.201226 -0.000358718 -1.60976e-05)
(0.200988 -0.0004578 -1.55652e-05)
(0.200764 -0.000517507 -1.48892e-05)
(0.20056 -0.00054264 -1.41187e-05)
(0.200378 -0.000538788 -1.32781e-05)
(0.20022 -0.000512175 -1.23977e-05)
(0.200088 -0.000469515 -1.14921e-05)
(0.199981 -0.000417347 -1.05745e-05)
(0.199897 -0.00036132 -9.66608e-06)
(0.199832 -0.000305844 -8.78967e-06)
(0.199783 -0.000254028 -7.96486e-06)
(0.199747 -0.000207802 -7.20551e-06)
(0.19972 -0.000168124 -6.51926e-06)
(0.199701 -0.000135213 -5.9082e-06)
(0.199686 -0.00010877 -5.37018e-06)
(0.199674 -8.81672e-05 -4.90014e-06)
(0.199664 -7.26077e-05 -4.49139e-06)
(0.199654 -6.12394e-05 -4.13654e-06)
(0.199645 -5.32392e-05 -3.82827e-06)
(0.199636 -4.78652e-05 -3.55973e-06)
(0.199626 -4.44838e-05 -3.32483e-06)
(0.199617 -4.25774e-05 -3.11841e-06)
(0.199606 -4.17405e-05 -2.93614e-06)
(0.199596 -4.16663e-05 -2.77455e-06)
(0.199585 -4.21307e-05 -2.63087e-06)
(0.199574 -4.29751e-05 -2.50292e-06)
(0.199562 -4.40907e-05 -2.38899e-06)
(0.199551 -4.54051e-05 -2.28772e-06)
(0.199539 -4.68709e-05 -2.19799e-06)
(0.199527 -4.84581e-05 -2.11888e-06)
(0.199515 -5.01476e-05 -2.04959e-06)
(0.199502 -5.19276e-05 -1.9894e-06)
(0.199489 -5.37901e-05 -1.93764e-06)
(0.199477 -5.57298e-05 -1.89367e-06)
(0.199463 -5.77427e-05 -1.85688e-06)
(0.19945 -5.98255e-05 -1.82667e-06)
(0.199436 -6.19753e-05 -1.80244e-06)
(0.199421 -6.41894e-05 -1.7836e-06)
(0.199407 -6.64653e-05 -1.76957e-06)
(0.199392 -6.88005e-05 -1.75972e-06)
(0.199376 -7.11926e-05 -1.75345e-06)
(0.19936 -7.36394e-05 -1.75011e-06)
(0.199343 -7.61385e-05 -1.74906e-06)
(0.199326 -7.86877e-05 -1.74958e-06)
(0.199308 -8.1285e-05 -1.75095e-06)
(0.19929 -8.39281e-05 -1.75235e-06)
(0.199271 -8.66152e-05 -1.75294e-06)
(0.199251 -8.9344e-05 -1.75175e-06)
(0.199231 -9.21128e-05 -1.74775e-06)
(0.19921 -9.49196e-05 -1.73976e-06)
(0.199188 -9.77623e-05 -1.72647e-06)
(0.199165 -0.000100639 -1.70643e-06)
(0.199141 -0.000103548 -1.67797e-06)
(0.199117 -0.000106486 -1.63923e-06)
(0.199091 -0.000109451 -1.58811e-06)
(0.199064 -0.000112438 -1.52228e-06)
(0.199036 -0.000115443 -1.43927e-06)
(0.199007 -0.000118458 -1.33655e-06)
(0.198977 -0.000121475 -1.21162e-06)
(0.198945 -0.000124509 -1.06049e-06)
(0.198913 -0.000127747 -8.63149e-07)
(0.198879 -0.000132422 -4.87707e-07)
(0.198828 -0.000144112 6.96351e-07)
(0.197515 0.00444307 1.28174e-07)
(0.197667 0.00478762 3.95979e-07)
(0.197861 0.00509973 7.05935e-07)
(0.198087 0.00537385 1.04467e-06)
(0.198337 0.00560965 1.3727e-06)
(0.198603 0.00580826 1.65845e-06)
(0.19888 0.00597082 1.88427e-06)
(0.199165 0.00609834 2.03704e-06)
(0.199454 0.00619189 2.10479e-06)
(0.199746 0.00625253 2.07938e-06)
(0.200037 0.00628118 1.95769e-06)
(0.200326 0.0062786 1.74015e-06)
(0.200611 0.00624548 1.42907e-06)
(0.200891 0.00618245 1.02799e-06)
(0.201162 0.00609023 5.41537e-07)
(0.201423 0.00596959 -2.46931e-08)
(0.201673 0.00582141 -6.64203e-07)
(0.201909 0.00564669 -1.36959e-06)
(0.20213 0.00544657 -2.1324e-06)
(0.202334 0.00522226 -2.94301e-06)
(0.202519 0.00497509 -3.79042e-06)
(0.202685 0.00470647 -4.6622e-06)
(0.202829 0.00441788 -5.54452e-06)
(0.20295 0.00411088 -6.42244e-06)
(0.203047 0.00378722 -7.28046e-06)
(0.203118 0.00344891 -8.1035e-06)
(0.20316 0.00309844 -8.87816e-06)
(0.203172 0.00273895 -9.59403e-06)
(0.203152 0.00237444 -1.02448e-05)
(0.203098 0.00200991 -1.08286e-05)
(0.203009 0.00165134 -1.13474e-05)
(0.202887 0.00130553 -1.18058e-05)
(0.202731 0.000979694 -1.22091e-05)
(0.202547 0.000680917 -1.25607e-05)
(0.202339 0.000415386 -1.28568e-05)
(0.202115 0.000187576 -1.30798e-05)
(0.201882 -3.38808e-07 -1.31968e-05)
(0.201647 -0.000148448 -1.31763e-05)
(0.201417 -0.000258575 -1.30065e-05)
(0.201199 -0.00033372 -1.2695e-05)
(0.200995 -0.000377693 -1.22663e-05)
(0.200811 -0.000394988 -1.17421e-05)
(0.200648 -0.000390646 -1.11433e-05)
(0.200509 -0.000370056 -1.04855e-05)
(0.200391 -0.000338545 -9.78138e-06)
(0.200296 -0.000300899 -9.04957e-06)
(0.20022 -0.000261048 -8.31253e-06)
(0.20016 -0.000221966 -7.59193e-06)
(0.200114 -0.000185706 -6.90578e-06)
(0.20008 -0.000153513 -6.26708e-06)
(0.200054 -0.000125983 -5.6837e-06)
(0.200035 -0.000103221 -5.15897e-06)
(0.200021 -8.49932e-05 -4.69259e-06)
(0.20001 -7.08509e-05 -4.28169e-06)
(0.200002 -6.02384e-05 -3.92181e-06)
(0.199995 -5.25688e-05 -3.60765e-06)
(0.199989 -4.72777e-05 -3.33369e-06)
(0.199983 -4.3857e-05 -3.09457e-06)
(0.199978 -4.18718e-05 -2.88544e-06)
(0.199973 -4.09652e-05 -2.70199e-06)
(0.199969 -4.08552e-05 -2.54057e-06)
(0.199964 -4.13255e-05 -2.39816e-06)
(0.19996 -4.22156e-05 -2.27227e-06)
(0.199956 -4.34096e-05 -2.16089e-06)
(0.199951 -4.48255e-05 -2.06241e-06)
(0.199947 -4.6407e-05 -1.9755e-06)
(0.199943 -4.8116e-05 -1.89907e-06)
(0.19994 -4.99269e-05 -1.83219e-06)
(0.199936 -5.18231e-05 -1.77407e-06)
(0.199932 -5.37936e-05 -1.72399e-06)
(0.199928 -5.58308e-05 -1.68128e-06)
(0.199925 -5.79297e-05 -1.64532e-06)
(0.199921 -6.00866e-05 -1.61553e-06)
(0.199917 -6.22988e-05 -1.59133e-06)
(0.199913 -6.45638e-05 -1.57213e-06)
(0.199909 -6.68796e-05 -1.55738e-06)
(0.199905 -6.92445e-05 -1.54649e-06)
(0.199901 -7.16565e-05 -1.53886e-06)
(0.199896 -7.41141e-05 -1.5339e-06)
(0.199892 -7.66154e-05 -1.53096e-06)
(0.199887 -7.91589e-05 -1.52936e-06)
(0.199882 -8.17429e-05 -1.52838e-06)
(0.199877 -8.43658e-05 -1.52725e-06)
(0.199872 -8.70259e-05 -1.5251e-06)
(0.199866 -8.97219e-05 -1.52101e-06)
(0.19986 -9.24519e-05 -1.51393e-06)
(0.199854 -9.52147e-05 -1.5027e-06)
(0.199847 -9.80087e-05 -1.48601e-06)
(0.19984 -0.000100832 -1.46239e-06)
(0.199832 -0.000103684 -1.43018e-06)
(0.199824 -0.000106563 -1.3875e-06)
(0.199815 -0.000109466 -1.33222e-06)
(0.199806 -0.000112392 -1.26195e-06)
(0.199796 -0.000115337 -1.17403e-06)
(0.199786 -0.000118302 -1.06529e-06)
(0.199775 -0.000121292 -9.3111e-07)
(0.199763 -0.000124361 -7.60685e-07)
(0.19975 -0.000127747 -5.17748e-07)
(0.199735 -0.000132307 -7.79664e-08)
(0.19971 -0.000140064 8.44306e-07)
(0.197913 0.0042946 5.32967e-08)
(0.198036 0.00458512 1.68159e-07)
(0.198189 0.00485441 3.19421e-07)
(0.198372 0.00509685 5.10542e-07)
(0.198577 0.00530999 7.22145e-07)
(0.198799 0.00549287 9.30914e-07)
(0.199035 0.00564529 1.11946e-06)
(0.199279 0.00576727 1.27489e-06)
(0.19953 0.00585906 1.38624e-06)
(0.199785 0.00592101 1.44483e-06)
(0.200041 0.00595356 1.44525e-06)
(0.200296 0.00595713 1.385e-06)
(0.20055 0.0059322 1.2634e-06)
(0.200799 0.00587929 1.08095e-06)
(0.201042 0.005799 8.38998e-07)
(0.201277 0.005692 5.39699e-07)
(0.201504 0.00555911 1.8589e-07)
(0.201719 0.00540125 -2.18895e-07)
(0.201921 0.00521945 -6.70341e-07)
(0.20211 0.00501486 -1.16324e-06)
(0.202283 0.00478875 -1.69134e-06)
(0.202439 0.00454248 -2.24732e-06)
(0.202576 0.00427753 -2.82284e-06)
(0.202693 0.00399554 -3.40882e-06)
(0.202787 0.00369832 -3.9959e-06)
(0.202859 0.00338797 -4.57526e-06)
(0.202904 0.00306701 -5.13957e-06)
(0.202923 0.00273847 -5.68393e-06)
(0.202913 0.00240603 -6.20661e-06)
(0.202872 0.00207407 -6.70903e-06)
(0.202801 0.00174765 -7.19511e-06)
(0.2027 0.00143235 -7.66966e-06)
(0.20257 0.00113397 -8.13624e-06)
(0.202415 0.000858125 -8.59424e-06)
(0.202238 0.000609748 -9.03526e-06)
(0.202046 0.000392539 -9.43949e-06)
(0.201844 0.000208604 -9.77633e-06)
(0.201639 5.83908e-05 -1.00138e-05)
(0.201436 -5.90793e-05 -1.01311e-05)
(0.20124 -0.000145878 -1.01232e-05)
(0.201056 -0.000204902 -9.99765e-06)
(0.200887 -0.000239704 -9.766e-06)
(0.200735 -0.000254337 -9.44027e-06)
(0.200602 -0.000253142 -9.03151e-06)
(0.200487 -0.000240453 -8.55125e-06)
(0.200392 -0.000220264 -8.01571e-06)
(0.200313 -0.000195986 -7.44539e-06)
(0.20025 -0.000170335 -6.8617e-06)
(0.2002 -0.000145319 -6.28416e-06)
(0.200161 -0.000122294 -5.72878e-06)
(0.200131 -0.000102065 -5.20731e-06)
(0.200108 -8.49943e-05 -4.72726e-06)
(0.200091 -7.11186e-05 -4.29241e-06)
(0.200077 -6.02525e-05 -3.90349e-06)
(0.200067 -5.20759e-05 -3.55905e-06)
(0.200059 -4.62038e-05 -3.25612e-06)
(0.200052 -4.22374e-05 -2.99092e-06)
(0.200047 -3.97992e-05 -2.7593e-06)
(0.200043 -3.85537e-05 -2.55711e-06)
(0.200039 -3.82168e-05 -2.38048e-06)
(0.200035 -3.8558e-05 -2.22593e-06)
(0.200032 -3.93967e-05 -2.09043e-06)
(0.200029 -4.0596e-05 -1.97143e-06)
(0.200026 -4.20553e-05 -1.8668e-06)
(0.200024 -4.37023e-05 -1.77477e-06)
(0.200022 -4.54869e-05 -1.69392e-06)
(0.20002 -4.73748e-05 -1.62304e-06)
(0.200018 -4.93432e-05 -1.56114e-06)
(0.200016 -5.13772e-05 -1.50738e-06)
(0.200015 -5.34673e-05 -1.46101e-06)
(0.200013 -5.56074e-05 -1.42137e-06)
(0.200012 -5.77937e-05 -1.38785e-06)
(0.200011 -6.00236e-05 -1.35986e-06)
(0.20001 -6.22953e-05 -1.33688e-06)
(0.200008 -6.46075e-05 -1.31835e-06)
(0.200007 -6.69591e-05 -1.30374e-06)
(0.200006 -6.93491e-05 -1.29251e-06)
(0.200005 -7.17764e-05 -1.2841e-06)
(0.200004 -7.42402e-05 -1.27792e-06)
(0.200002 -7.67392e-05 -1.27339e-06)
(0.200001 -7.92724e-05 -1.26984e-06)
(0.2 -8.18387e-05 -1.26659e-06)
(0.199998 -8.4437e-05 -1.26286e-06)
(0.199997 -8.7066e-05 -1.25783e-06)
(0.199995 -8.97248e-05 -1.25056e-06)
(0.199993 -9.24124e-05 -1.24002e-06)
(0.199991 -9.51278e-05 -1.22505e-06)
(0.199988 -9.78702e-05 -1.20431e-06)
(0.199986 -0.000100639 -1.17632e-06)
(0.199983 -0.000103435 -1.13936e-06)
(0.19998 -0.000106256 -1.09147e-06)
(0.199977 -0.000109104 -1.03044e-06)
(0.199973 -0.000111979 -9.53674e-07)
(0.199969 -0.000114884 -8.58084e-07)
(0.199964 -0.000117823 -7.39644e-07)
(0.199959 -0.000120814 -5.91964e-07)
(0.199953 -0.000123908 -4.02035e-07)
(0.199946 -0.000127248 -1.40206e-07)
(0.199938 -0.000131093 2.45904e-07)
(0.199923 -0.000135252 7.27488e-07)
(0.198267 0.0041614 -1.32318e-08)
(0.198367 0.00440773 -3.17054e-08)
(0.198491 0.00463934 -1.77768e-08)
(0.198638 0.0048516 3.95026e-08)
(0.198805 0.00504153 1.35435e-07)
(0.198989 0.00520718 2.58166e-07)
(0.199185 0.00534739 3.95542e-07)
(0.199392 0.00546147 5.36858e-07)
(0.199605 0.00554905 6.72331e-07)
(0.199823 0.00560996 7.93221e-07)