/*--------------------------------*- C++ -*----------------------------------*\
| =========                 |                                                 |
| \\      /  F ield         | OpenFOAM: The Open Source CFD Toolbox           |
|  \\    /   O peration     | Version:  2.3.0                                 |
|   \\  /    A nd           | Web:      www.OpenFOAM.org                      |
|    \\/     M anipulation  |                                                 |
\*---------------------------------------------------------------------------*/
FoamFile
{
    version     2.0;
    format      ascii;
    class       surfaceScalarField;
    location    "0.95";
    object      phi_0;
}
// * * * * * * * * * * * * * * * * * * * * * * * * * * * * * * * * * * * * * //

dimensions      [0 3 -1 0 0 0 0];

internalField   nonuniform List<scalar> 
5764
(
1.93876e-08
4.30176e-09
-2.36894e-08
1.56081e-08
3.77951e-09
1.25104e-08
3.09769e-09
1.0082e-08
2.42839e-09
8.25954e-09
1.82248e-09
6.94056e-09
1.31898e-09
6.00627e-09
9.34291e-10
5.34516e-09
6.61107e-10
4.86722e-09
4.77939e-10
4.50772e-09
3.59501e-10
4.22422e-09
2.83502e-10
3.99072e-09
2.33497e-10
3.79189e-09
1.98829e-10
3.61866e-09
1.73231e-10
3.46542e-09
1.53239e-10
3.32844e-09
1.36981e-10
3.20502e-09
1.23417e-10
3.0931e-09
1.11922e-10
2.99102e-09
1.02077e-10
2.89745e-09
9.35759e-11
2.81127e-09
8.61811e-11
2.73156e-09
7.97039e-11
2.65757e-09
7.39926e-11
2.58865e-09
6.89254e-11
2.52424e-09
6.44036e-11
2.46389e-09
6.03475e-11
2.4072e-09
5.66916e-11
2.35382e-09
5.33825e-11
2.30345e-09
5.03755e-11
2.25581e-09
4.76337e-11
2.21069e-09
4.51257e-11
2.16786e-09
4.28249e-11
2.12715e-09
4.07087e-11
2.08839e-09
3.87574e-11
2.05144e-09
3.69543e-11
2.01616e-09
3.52846e-11
1.98242e-09
3.37355e-11
1.95012e-09
3.22958e-11
1.91917e-09
3.09554e-11
1.88946e-09
2.97055e-11
1.86093e-09
2.85384e-11
1.83348e-09
2.7447e-11
1.80705e-09
2.6425e-11
1.78159e-09
2.54669e-11
1.75702e-09
2.45676e-11
1.7333e-09
2.37225e-11
1.71037e-09
2.29275e-11
1.68819e-09
2.21788e-11
1.66672e-09
2.14731e-11
1.64591e-09
2.08073e-11
1.62573e-09
2.01786e-11
1.60615e-09
1.95845e-11
1.58712e-09
1.90227e-11
1.56863e-09
1.84911e-11
1.55064e-09
1.79878e-11
1.53313e-09
1.75111e-11
1.51607e-09
1.70596e-11
1.49944e-09
1.66318e-11
1.48322e-09
1.62265e-11
1.46737e-09
1.58428e-11
1.45189e-09
1.54796e-11
1.43676e-09
1.51364e-11
1.42194e-09
1.48123e-11
1.40744e-09
1.45071e-11
1.39322e-09
1.42204e-11
1.37926e-09
1.39523e-11
1.36556e-09
1.3703e-11
1.35209e-09
1.34734e-11
1.33882e-09
1.32653e-11
1.32574e-09
1.30836e-11
1.3128e-09
1.29352e-11
1.29991e-09
1.28901e-11
1.28703e-09
1.28795e-11
1.27471e-09
1.23263e-11
4.65767e-11
2.57749e-08
5.22581e-09
-2.6699e-08
2.43375e-08
5.21698e-09
2.26915e-08
4.74369e-09
2.10161e-08
4.10376e-09
1.94196e-08
3.41895e-09
1.79616e-08
2.77698e-09
1.66646e-08
2.23135e-09
1.55279e-08
1.79772e-09
1.45393e-08
1.46654e-09
1.36811e-08
1.2177e-09
1.29345e-08
1.03012e-09
1.22817e-08
8.8631e-10
1.17071e-08
7.73453e-10
1.11975e-08
6.82785e-10
1.07423e-08
6.08458e-10
1.03328e-08
5.46541e-10
9.96187e-09
4.94303e-10
9.62402e-09
4.49773e-10
9.31462e-09
4.11474e-10
9.02993e-09
3.78268e-10
8.76685e-09
3.49264e-10
8.5228e-09
3.23754e-10
8.29562e-09
3.01174e-10
8.08347e-09
2.81068e-10
7.88481e-09
2.63068e-10
7.69828e-09
2.46875e-10
7.52273e-09
2.32241e-10
7.35715e-09
2.18963e-10
7.20066e-09
2.0687e-10
7.05247e-09
1.95821e-10
6.9119e-09
1.85693e-10
6.77834e-09
1.76385e-10
6.65125e-09
1.67807e-10
6.53012e-09
1.59885e-10
6.41452e-09
1.52551e-10
6.30406e-09
1.45749e-10
6.19837e-09
1.39427e-10
6.09712e-09
1.33543e-10
6.00002e-09
1.28056e-10
5.90679e-09
1.22933e-10
5.81719e-09
1.18141e-10
5.73098e-09
1.13654e-10
5.64796e-09
1.09447e-10
5.56793e-09
1.05497e-10
5.49071e-09
1.01785e-10
5.41614e-09
9.82917e-11
5.34407e-09
9.50015e-11
5.27435e-09
9.18992e-11
5.20685e-09
8.89714e-11
5.14145e-09
8.62058e-11
5.07804e-09
8.35911e-11
5.0165e-09
8.11171e-11
4.95675e-09
7.87747e-11
4.89869e-09
7.65553e-11
4.84222e-09
7.44513e-11
4.78728e-09
7.24557e-11
4.73378e-09
7.05623e-11
4.68164e-09
6.87655e-11
4.63081e-09
6.70603e-11
4.58121e-09
6.54422e-11
4.53278e-09
6.39074e-11
4.48547e-09
6.24525e-11
4.4392e-09
6.1075e-11
4.39394e-09
5.97727e-11
4.34961e-09
5.85442e-11
4.30618e-09
5.73889e-11
4.26357e-09
5.63074e-11
4.22174e-09
5.53024e-11
4.18063e-09
5.43802e-11
4.14016e-09
5.3557e-11
4.10023e-09
5.28607e-11
4.06058e-09
5.25461e-11
4.02152e-09
5.19374e-11
3.97681e-09
5.70363e-11
1.27544e-10
2.80586e-08
5.20954e-09
-2.80423e-08
2.77531e-08
5.52249e-09
2.71759e-08
5.32084e-09
2.64083e-08
4.87142e-09
2.55251e-08
4.30213e-09
2.45905e-08
3.71157e-09
2.36509e-08
3.17095e-09
2.27354e-08
2.7132e-09
2.18603e-08
2.34163e-09
2.10334e-08
2.04464e-09
2.02572e-08
1.80635e-09
1.95312e-08
1.61223e-09
1.88537e-08
1.45104e-09
1.82217e-08
1.31476e-09
1.76322e-08
1.19789e-09
1.70822e-08
1.09655e-09
1.65686e-08
1.00797e-09
1.60883e-08
9.30046e-10
1.56386e-08
8.61129e-10
1.5217e-08
7.99886e-10
1.48211e-08
7.45218e-10
1.44486e-08
6.96213e-10
1.40977e-08
6.52107e-10
1.37665e-08
6.12258e-10
1.34534e-08
5.76125e-10
1.31571e-08
5.43249e-10
1.28761e-08
5.13241e-10
1.26092e-08
4.8577e-10
1.23556e-08
4.60551e-10
1.21141e-08
4.37339e-10
1.18838e-08
4.15923e-10
1.16641e-08
3.96121e-10
1.14541e-08
3.77772e-10
1.12533e-08
3.60737e-10
1.10609e-08
3.44893e-10
1.08765e-08
3.30132e-10
1.06996e-08
3.16359e-10
1.05297e-08
3.03487e-10
1.03663e-08
2.91443e-10
1.02091e-08
2.80156e-10
1.00576e-08
2.69567e-10
9.91166e-09
2.59621e-10
9.77084e-09
2.50268e-10
9.63488e-09
2.41464e-10
9.50349e-09
2.33167e-10
9.37644e-09
2.25341e-10
9.25349e-09
2.17952e-10
9.13442e-09
2.1097e-10
9.01903e-09
2.04366e-10
8.90712e-09
1.98115e-10
8.79852e-09
1.92194e-10
8.69305e-09
1.8658e-10
8.59057e-09
1.81255e-10
8.49093e-09
1.762e-10
8.39398e-09
1.71399e-10
8.2996e-09
1.66837e-10
8.20766e-09
1.62501e-10
8.11805e-09
1.58378e-10
8.03065e-09
1.54458e-10
7.94536e-09
1.5073e-10
7.86208e-09
1.47187e-10
7.78072e-09
1.43821e-10
7.70117e-09
1.40625e-10
7.62334e-09
1.37594e-10
7.54716e-09
1.34726e-10
7.47253e-09
1.32019e-10
7.39937e-09
1.29473e-10
7.32758e-09
1.27093e-10
7.25706e-09
1.24891e-10
7.18772e-09
1.22901e-10
7.11939e-09
1.2119e-10
7.05175e-09
1.20187e-10
6.98455e-09
1.19142e-10
6.90884e-09
1.32739e-10
2.23872e-10
2.93298e-08
4.94941e-09
-2.90697e-08
2.9455e-08
5.39728e-09
2.94035e-08
5.37234e-09
2.91852e-08
5.08976e-09
2.8826e-08
4.66131e-09
2.83625e-08
4.17506e-09
2.7831e-08
3.70245e-09
2.72605e-08
3.28366e-09
2.66717e-08
2.93049e-09
2.6078e-08
2.63836e-09
2.54879e-08
2.39642e-09
2.49067e-08
2.19339e-09
2.43378e-08
2.01997e-09
2.37833e-08
1.8693e-09
2.32446e-08
1.73659e-09
2.27227e-08
1.61846e-09
2.22181e-08
1.51252e-09
2.17312e-08
1.41695e-09
2.1262e-08
1.33036e-09
2.08103e-08
1.25159e-09
2.03758e-08
1.1797e-09
1.99581e-08
1.11389e-09
1.95567e-08
1.05349e-09
1.91711e-08
9.97907e-10
1.88006e-08
9.46638e-10
1.84446e-08
8.99246e-10
1.81025e-08
8.55349e-10
1.77736e-08
8.14614e-10
1.74574e-08
7.76746e-10
1.71533e-08
7.41485e-10
1.68606e-08
7.08601e-10
1.65788e-08
6.77889e-10
1.63074e-08
6.49168e-10
1.60459e-08
6.22272e-10
1.57937e-08
5.97056e-10
1.55505e-08
5.73387e-10
1.53157e-08
5.51147e-10
1.50889e-08
5.30227e-10
1.48699e-08
5.1053e-10
1.4658e-08
4.91967e-10
1.44532e-08
4.74457e-10
1.42549e-08
4.57925e-10
1.40628e-08
4.42304e-10
1.38767e-08
4.27532e-10
1.36964e-08
4.13552e-10
1.35214e-08
4.00311e-10
1.33516e-08
3.87762e-10
1.31867e-08
3.75859e-10
1.30265e-08
3.64562e-10
1.28708e-08
3.53833e-10
1.27193e-08
3.43637e-10
1.2572e-08
3.33941e-10
1.24285e-08
3.24716e-10
1.22888e-08
3.15935e-10
1.21526e-08
3.07572e-10
1.20198e-08
2.99605e-10
1.18903e-08
2.92012e-10
1.17639e-08
2.84774e-10
1.16405e-08
2.77874e-10
1.15199e-08
2.71296e-10
1.14021e-08
2.65026e-10
1.12869e-08
2.59054e-10
1.11741e-08
2.53368e-10
1.10638e-08
2.47961e-10
1.09557e-08
2.42827e-10
1.08497e-08
2.37963e-10
1.07458e-08
2.3337e-10
1.06439e-08
2.29056e-10
1.05437e-08
2.25041e-10
1.04452e-08
2.21376e-10
1.03482e-08
2.1819e-10
1.02524e-08
2.16039e-10
1.01565e-08
2.15025e-10
1.00537e-08
2.35502e-10
3.32273e-10
3.03417e-08
4.6534e-09
-3.00457e-08
3.05987e-08
5.14026e-09
3.07584e-08
5.21269e-09
3.08057e-08
5.04239e-09
3.07408e-08
4.72625e-09
3.05777e-08
4.33813e-09
3.03382e-08
3.94196e-09
3.00435e-08
3.57839e-09
2.97105e-08
3.26344e-09
2.93516e-08
2.99727e-09
2.89751e-08
2.77292e-09
2.85867e-08
2.58184e-09
2.81902e-08
2.41643e-09
2.77887e-08
2.27083e-09
2.73845e-08
2.14083e-09
2.69795e-08
2.02346e-09
2.65754e-08
1.91659e-09
2.61737e-08
1.81866e-09
2.57756e-08
1.72847e-09
2.53821e-08
1.64506e-09
2.49941e-08
1.56768e-09
2.46123e-08
1.49566e-09
2.42374e-08
1.42848e-09
2.38696e-08
1.36566e-09
2.35094e-08
1.30682e-09
2.31571e-08
1.2516e-09
2.28127e-08
1.19971e-09
2.24764e-08
1.15089e-09
2.21483e-08
1.10489e-09
2.18283e-08
1.06151e-09
2.15163e-08
1.02056e-09
2.12123e-08
9.81872e-10
2.09162e-08
9.4529e-10
2.06278e-08
9.10673e-10
2.0347e-08
8.77895e-10
2.00735e-08
8.46837e-10
1.98073e-08
8.17391e-10
1.9548e-08
7.89458e-10
1.92956e-08
7.62944e-10
1.90498e-08
7.37766e-10
1.88104e-08
7.13842e-10
1.85773e-08
6.91099e-10
1.83501e-08
6.69468e-10
1.81287e-08
6.48884e-10
1.7913e-08
6.29288e-10
1.77027e-08
6.10624e-10
1.74976e-08
5.92838e-10
1.72976e-08
5.75882e-10
1.71024e-08
5.5971e-10
1.6912e-08
5.44279e-10
1.67261e-08
5.29548e-10
1.65445e-08
5.15481e-10
1.63672e-08
5.02042e-10
1.6194e-08
4.89198e-10
1.60246e-08
4.7692e-10
1.5859e-08
4.65179e-10
1.56971e-08
4.5395e-10
1.55387e-08
4.43208e-10
1.53836e-08
4.32934e-10
1.52318e-08
4.23107e-10
1.50831e-08
4.13709e-10
1.49374e-08
4.04728e-10
1.47947e-08
3.96149e-10
1.46547e-08
3.87964e-10
1.45173e-08
3.80165e-10
1.43825e-08
3.72749e-10
1.42502e-08
3.65719e-10
1.41201e-08
3.59087e-10
1.39923e-08
3.52882e-10
1.38665e-08
3.47177e-10
1.37425e-08
3.42168e-10
1.362e-08
3.38543e-10
1.34974e-08
3.37639e-10
1.33712e-08
3.61757e-10
4.51383e-10
3.13045e-08
4.37759e-09
-3.10287e-08
3.15837e-08
4.86108e-09
3.18097e-08
4.9867e-09
3.19634e-08
4.88872e-09
3.20368e-08
4.65287e-09
3.20331e-08
4.34183e-09
3.19642e-08
4.01087e-09
3.18443e-08
3.69822e-09
3.16861e-08
3.42164e-09
3.14991e-08
3.18432e-09
3.12898e-08
2.98217e-09
3.10628e-08
2.80882e-09
3.08212e-08
2.65805e-09
3.05672e-08
2.52483e-09
3.03026e-08
2.40539e-09
3.00291e-08
2.297e-09
2.9748e-08
2.19769e-09
2.94607e-08
2.10601e-09
2.91683e-08
2.02086e-09
2.8872e-08
1.94138e-09
2.85728e-08
1.86689e-09
2.82716e-08
1.79683e-09
2.79693e-08
1.73074e-09
2.76667e-08
1.66826e-09
2.73645e-08
1.60904e-09
2.70633e-08
1.55283e-09
2.67636e-08
1.49938e-09
2.6466e-08
1.44851e-09
2.61708e-08
1.40003e-09
2.58785e-08
1.3538e-09
2.55894e-08
1.30967e-09
2.53038e-08
1.26752e-09
2.50218e-08
1.22725e-09
2.47438e-08
1.18875e-09
2.44697e-08
1.15193e-09
2.41999e-08
1.1167e-09
2.39343e-08
1.08299e-09
2.3673e-08
1.05072e-09
2.34161e-08
1.01983e-09
2.31636e-08
9.90247e-10
2.29156e-08
9.61909e-10
2.26719e-08
9.3476e-10
2.24326e-08
9.08745e-10
2.21977e-08
8.83811e-10
2.19671e-08
8.59909e-10
2.17407e-08
8.36991e-10
2.15185e-08
8.15011e-10
2.13005e-08
7.93928e-10
2.10865e-08
7.737e-10
2.08765e-08
7.54288e-10
2.06704e-08
7.35655e-10
2.04681e-08
7.17767e-10
2.02696e-08
7.0059e-10
2.00747e-08
6.84094e-10
1.98833e-08
6.68249e-10
1.96955e-08
6.53028e-10
1.9511e-08
6.38406e-10
1.93299e-08
6.24358e-10
1.91519e-08
6.10865e-10
1.89771e-08
5.97907e-10
1.88054e-08
5.85467e-10
1.86366e-08
5.73531e-10
1.84706e-08
5.62086e-10
1.83075e-08
5.51124e-10
1.8147e-08
5.40639e-10
1.79891e-08
5.30632e-10
1.78337e-08
5.21107e-10
1.76807e-08
5.12083e-10
1.753e-08
5.03601e-10
1.73814e-08
4.9576e-10
1.72348e-08
4.88818e-10
1.70897e-08
4.83606e-10
1.69448e-08
4.82526e-10
1.67998e-08
5.0678e-10
5.79445e-10
3.22764e-08
4.13253e-09
-3.20313e-08
3.2543e-08
4.59446e-09
3.27789e-08
4.75079e-09
3.29652e-08
4.70238e-09
3.30933e-08
4.52482e-09
3.31625e-08
4.27264e-09
3.31798e-08
3.99358e-09
3.31553e-08
3.72272e-09
3.30985e-08
3.47837e-09
3.3017e-08
3.26582e-09
3.2916e-08
3.08324e-09
3.27988e-08
2.92601e-09
3.26677e-08
2.78918e-09
3.25241e-08
2.6684e-09
3.23692e-08
2.5603e-09
3.22039e-08
2.46234e-09
3.20289e-08
2.37264e-09
3.18451e-08
2.28979e-09
3.16533e-08
2.21272e-09
3.1454e-08
2.14059e-09
3.12482e-08
2.07274e-09
3.10364e-08
2.00864e-09
3.08193e-08
1.94784e-09
3.05975e-08
1.89e-09
3.03717e-08
1.83482e-09
3.01425e-08
1.78206e-09
2.99104e-08
1.73151e-09
2.96759e-08
1.68302e-09
2.94395e-08
1.63642e-09
2.92017e-08
1.59161e-09
2.89629e-08
1.54847e-09
2.87235e-08
1.50692e-09
2.84838e-08
1.46687e-09
2.82443e-08
1.42826e-09
2.80052e-08
1.39102e-09
2.77668e-08
1.35509e-09
2.75294e-08
1.32043e-09
2.72932e-08
1.28697e-09
2.70583e-08
1.25468e-09
2.6825e-08
1.22351e-09
2.65935e-08
1.19343e-09
2.63639e-08
1.16439e-09
2.61363e-08
1.13636e-09
2.59108e-08
1.1093e-09
2.56875e-08
1.08318e-09
2.54665e-08
1.05796e-09
2.52479e-08
1.03361e-09
2.50318e-08
1.0101e-09
2.48181e-08
9.8741e-10
2.46069e-08
9.65497e-10
2.43982e-08
9.44339e-10
2.4192e-08
9.23908e-10
2.39884e-08
9.0418e-10
2.37874e-08
8.8513e-10
2.35889e-08
8.66734e-10
2.3393e-08
8.48972e-10
2.31996e-08
8.31824e-10
2.30086e-08
8.15269e-10
2.28202e-08
7.99293e-10
2.26342e-08
7.83879e-10
2.24507e-08
7.69016e-10
2.22695e-08
7.54691e-10
2.20907e-08
7.40899e-10
2.19142e-08
7.27633e-10
2.174e-08
7.14894e-10
2.15679e-08
7.02685e-10
2.1398e-08
6.91019e-10
2.12302e-08
6.79922e-10
2.10643e-08
6.69449e-10
2.09003e-08
6.59723e-10
2.07381e-08
6.51059e-10
2.05773e-08
6.44404e-10
2.04171e-08
6.42756e-10
2.02598e-08
6.64094e-10
7.13429e-10
3.32723e-08
3.91675e-09
-3.30565e-08
3.35174e-08
4.34931e-09
3.37444e-08
4.52384e-09
3.39344e-08
4.51234e-09
3.40794e-08
4.37986e-09
3.41776e-08
4.17441e-09
3.42337e-08
3.93744e-09
3.42556e-08
3.70081e-09
3.42512e-08
3.48281e-09
3.42267e-08
3.29028e-09
3.41867e-08
3.12323e-09
3.41341e-08
2.97862e-09
3.40707e-08
2.85261e-09
3.39975e-08
2.74159e-09
3.39152e-08
2.64257e-09
3.38244e-08
2.55323e-09
3.37252e-08
2.47177e-09
3.36182e-08
2.39683e-09
3.35036e-08
2.32735e-09
3.33817e-08
2.26248e-09
3.32529e-08
2.20157e-09
3.31174e-08
2.14406e-09
3.29758e-08
2.08951e-09
3.28282e-08
2.03757e-09
3.26751e-08
1.98793e-09
3.25168e-08
1.94035e-09
3.23537e-08
1.89463e-09
3.21861e-08
1.85059e-09
3.20144e-08
1.80811e-09
3.1839e-08
1.76706e-09
3.16601e-08
1.72735e-09
3.14781e-08
1.68889e-09
3.12934e-08
1.65162e-09
3.11062e-08
1.61547e-09
3.09168e-08
1.5804e-09
3.07255e-08
1.54635e-09
3.05327e-08
1.51329e-09
3.03384e-08
1.48119e-09
3.01431e-08
1.45001e-09
2.99469e-08
1.41972e-09
2.975e-08
1.3903e-09
2.95527e-08
1.36172e-09
2.93551e-08
1.33396e-09
2.91574e-08
1.30699e-09
2.89598e-08
1.28079e-09
2.87624e-08
1.25534e-09
2.85654e-08
1.23062e-09
2.83689e-08
1.20662e-09
2.8173e-08
1.1833e-09
2.79779e-08
1.16066e-09
2.77835e-08
1.13867e-09
2.75901e-08
1.11732e-09
2.73977e-08
1.09659e-09
2.72063e-08
1.07647e-09
2.70162e-08
1.05693e-09
2.68272e-08
1.03797e-09
2.66394e-08
1.01957e-09
2.6453e-08
1.00172e-09
2.62679e-08
9.84403e-10
2.60841e-08
9.67622e-10
2.59018e-08
9.51365e-10
2.57208e-08
9.35628e-10
2.55413e-08
9.20409e-10
2.53632e-08
9.0571e-10
2.51866e-08
8.91536e-10
2.50114e-08
8.779e-10
2.48376e-08
8.64821e-10
2.46652e-08
8.52336e-10
2.44941e-08
8.40514e-10
2.43243e-08
8.29497e-10
2.41557e-08
8.1964e-10
2.39882e-08
8.11944e-10
2.38215e-08
8.09453e-10
2.36599e-08
8.25709e-10
8.49059e-10
3.4296e-08
3.72629e-09
-3.41055e-08
3.45187e-08
4.12657e-09
3.47314e-08
4.31113e-09
3.49153e-08
4.32849e-09
3.50623e-08
4.23283e-09
3.51704e-08
4.06634e-09
3.52427e-08
3.8651e-09
3.52857e-08
3.65779e-09
3.53062e-08
3.46229e-09
3.531e-08
3.28653e-09
3.53012e-08
3.13205e-09
3.52826e-08
2.99721e-09
3.5256e-08
2.87924e-09
3.52223e-08
2.77523e-09
3.51823e-08
2.68264e-09
3.51361e-08
2.59938e-09
3.5084e-08
2.52382e-09
3.50262e-08
2.45465e-09
3.49627e-08
2.39085e-09
3.48936e-08
2.33158e-09
3.4819e-08
2.27617e-09
3.4739e-08
2.22409e-09
3.46536e-08
2.17487e-09
3.4563e-08
2.12814e-09
3.44674e-08
2.0836e-09
3.43667e-08
2.04098e-09
3.42613e-08
2.00007e-09
3.41512e-08
1.96069e-09
3.40366e-08
1.9227e-09
3.39177e-08
1.88597e-09
3.37947e-08
1.85039e-09
3.36677e-08
1.81589e-09
3.35369e-08
1.78237e-09
3.34026e-08
1.74979e-09
3.32649e-08
1.71808e-09
3.3124e-08
1.68722e-09
3.29802e-08
1.65714e-09
3.28336e-08
1.62783e-09
3.26843e-08
1.59925e-09
3.25327e-08
1.57138e-09
3.23788e-08
1.54419e-09
3.22228e-08
1.51767e-09
3.2065e-08
1.49179e-09
3.19055e-08
1.46653e-09
3.17444e-08
1.44189e-09
3.15818e-08
1.41784e-09
3.14181e-08
1.39437e-09
3.12532e-08
1.37148e-09
3.10874e-08
1.34913e-09
3.09208e-08
1.32732e-09
3.07534e-08
1.30605e-09
3.05854e-08
1.28529e-09
3.0417e-08
1.26504e-09
3.02482e-08
1.24529e-09
3.00791e-08
1.22602e-09
2.99098e-08
1.20724e-09
2.97404e-08
1.18892e-09
2.95711e-08
1.17108e-09
2.94018e-08
1.1537e-09
2.92326e-08
1.13677e-09
2.90637e-08
1.12031e-09
2.8895e-08
1.1043e-09
2.87267e-08
1.08877e-09
2.85587e-08
1.0737e-09
2.83911e-08
1.05912e-09
2.82239e-08
1.04505e-09
2.80572e-08
1.03151e-09
2.7891e-08
1.01855e-09
2.77253e-08
1.00625e-09
2.756e-08
9.94764e-10
2.73952e-08
9.84467e-10
2.72308e-08
9.7632e-10
2.70673e-08
9.72947e-10
2.691e-08
9.83043e-10
9.81356e-10
3.53486e-08
3.55717e-09
-3.51795e-08
3.55503e-08
3.92492e-09
3.57478e-08
4.1136e-09
3.59225e-08
4.15376e-09
3.60663e-08
4.08902e-09
3.61767e-08
3.95603e-09
3.62556e-08
3.78619e-09
3.63082e-08
3.60512e-09
3.63406e-08
3.42991e-09
3.63579e-08
3.26919e-09
3.63643e-08
3.12573e-09
3.63624e-08
2.9991e-09
3.63541e-08
2.88748e-09
3.63407e-08
2.78869e-09
3.63227e-08
2.70063e-09
3.63006e-08
2.62151e-09
3.62745e-08
2.54986e-09
3.62447e-08
2.48449e-09
3.62111e-08
2.42443e-09
3.61738e-08
2.36889e-09
3.61328e-08
2.31721e-09
3.6088e-08
2.26888e-09
3.60394e-08
2.22342e-09
3.59871e-08
2.18048e-09
3.5931e-08
2.13972e-09
3.5871e-08
2.1009e-09
3.58073e-08
2.06379e-09
3.57398e-08
2.02819e-09
3.56686e-08
1.99396e-09
3.55936e-08
1.96095e-09
3.55149e-08
1.92905e-09
3.54326e-08
1.89817e-09
3.53468e-08
1.86822e-09
3.52574e-08
1.83913e-09
3.51647e-08
1.81085e-09
3.50686e-08
1.78332e-09
3.49692e-08
1.75649e-09
3.48667e-08
1.73034e-09
3.47611e-08
1.70482e-09
3.46526e-08
1.6799e-09
3.45412e-08
1.65557e-09
3.44271e-08
1.63179e-09
3.43104e-08
1.60854e-09
3.41911e-08
1.58582e-09
3.40694e-08
1.56359e-09
3.39454e-08
1.54185e-09
3.38192e-08
1.52058e-09
3.36909e-08
1.49977e-09
3.35606e-08
1.4794e-09
3.34284e-08
1.45947e-09
3.32945e-08
1.43996e-09
3.31589e-08
1.42087e-09
3.30218e-08
1.40218e-09
3.28832e-08
1.38389e-09
3.27432e-08
1.366e-09
3.2602e-08
1.34848e-09
3.24595e-08
1.33135e-09
3.2316e-08
1.31461e-09
3.21715e-08
1.29823e-09
3.2026e-08
1.28224e-09
3.18797e-08
1.26663e-09
3.17326e-08
1.25142e-09
3.15847e-08
1.23659e-09
3.14363e-08
1.22218e-09
3.12872e-08
1.2082e-09
3.11376e-08
1.19467e-09
3.09874e-08
1.18163e-09
3.08369e-08
1.16913e-09
3.06858e-08
1.15727e-09
3.05344e-08
1.14619e-09
3.03826e-08
1.13627e-09
3.02306e-08
1.12833e-09
3.00793e-08
1.12427e-09
2.99341e-08
1.12819e-09
1.10541e-09
3.64308e-08
3.40598e-09
-3.62796e-08
3.66132e-08
3.74244e-09
3.6796e-08
3.93087e-09
3.69609e-08
3.98881e-09
3.70997e-08
3.95021e-09
3.72093e-08
3.84641e-09
3.72909e-08
3.70462e-09
3.73484e-08
3.54759e-09
3.7387e-08
3.39133e-09
3.74114e-08
3.24482e-09
3.74254e-08
3.11176e-09
3.74317e-08
2.99274e-09
3.74324e-08
2.88679e-09
3.74287e-08
2.79237e-09
3.74215e-08
2.70785e-09
3.74113e-08
2.63175e-09
3.73983e-08
2.5628e-09
3.73829e-08
2.49992e-09
3.73651e-08
2.44224e-09
3.7345e-08
2.38902e-09
3.73225e-08
2.33966e-09
3.72978e-08
2.29364e-09
3.72706e-08
2.25053e-09
3.72412e-08
2.20997e-09
3.72092e-08
2.17166e-09
3.71748e-08
2.13532e-09
3.71378e-08
2.10074e-09
3.70983e-08
2.06773e-09
3.70561e-08
2.03613e-09
3.70113e-08
2.00579e-09
3.69638e-08
1.9766e-09
3.69135e-08
1.94845e-09
3.68604e-08
1.92126e-09
3.68046e-08
1.89495e-09
3.6746e-08
1.86945e-09
3.66846e-08
1.84471e-09
3.66205e-08
1.82066e-09
3.65535e-08
1.79728e-09
3.64838e-08
1.77452e-09
3.64114e-08
1.75235e-09
3.63362e-08
1.73072e-09
3.62584e-08
1.70962e-09
3.61779e-08
1.68903e-09
3.60948e-08
1.66891e-09
3.60092e-08
1.64924e-09
3.5921e-08
1.63001e-09
3.58304e-08
1.6112e-09
3.57373e-08
1.5928e-09
3.5642e-08
1.57479e-09
3.55443e-08
1.55715e-09
3.54444e-08
1.53987e-09
3.53423e-08
1.52295e-09
3.52381e-08
1.50637e-09
3.51319e-08
1.49012e-09
3.50237e-08
1.4742e-09
3.49136e-08
1.4586e-09
3.48016e-08
1.44332e-09
3.46879e-08
1.42836e-09
3.45724e-08
1.41371e-09
3.44553e-08
1.39937e-09
3.43365e-08
1.38536e-09
3.42163e-08
1.37167e-09
3.40945e-08
1.35833e-09
3.39714e-08
1.34534e-09
3.38468e-08
1.33273e-09
3.3721e-08
1.32052e-09
3.35939e-08
1.30876e-09
3.34655e-08
1.2975e-09
3.33359e-08
1.28683e-09
3.32052e-08
1.27692e-09
3.30734e-08
1.26807e-09
3.29408e-08
1.26092e-09
3.28086e-08
1.25652e-09
3.26816e-08
1.2551e-09
1.21714e-09
3.7543e-08
3.26992e-09
-3.7407e-08
3.77083e-08
3.57715e-09
3.7877e-08
3.76221e-09
3.80322e-08
3.83365e-09
3.81653e-08
3.81705e-09
3.8273e-08
3.7387e-09
3.83556e-08
3.62209e-09
3.84159e-08
3.48722e-09
3.84584e-08
3.3489e-09
3.8487e-08
3.21615e-09
3.85055e-08
3.09333e-09
3.85164e-08
2.98181e-09
3.85218e-08
2.8814e-09
3.8523e-08
2.79114e-09
3.8521e-08
2.70984e-09
3.85165e-08
2.6363e-09
3.85098e-08
2.56947e-09
3.85013e-08
2.50842e-09
3.84912e-08
2.45237e-09
3.84795e-08
2.40066e-09
3.84665e-08
2.35272e-09
3.8452e-08
2.30808e-09
3.84362e-08
2.26635e-09
3.8419e-08
2.22717e-09
3.84004e-08
2.19026e-09
3.83803e-08
2.15537e-09
3.83588e-08
2.12228e-09
3.83357e-08
2.09081e-09
3.8311e-08
2.0608e-09
3.82847e-08
2.03211e-09
3.82567e-08
2.00462e-09
3.82269e-08
1.97824e-09
3.81953e-08
1.95286e-09
3.81618e-08
1.92842e-09
3.81264e-08
1.90484e-09
3.80891e-08
1.88206e-09
3.80497e-08
1.86003e-09
3.80083e-08
1.8387e-09
3.79648e-08
1.81803e-09
3.79192e-08
1.79797e-09
3.78714e-08
1.77849e-09
3.78215e-08
1.75955e-09
3.77694e-08
1.74114e-09
3.77151e-08
1.72322e-09
3.76585e-08
1.70576e-09
3.75998e-08
1.68875e-09
3.75389e-08
1.67215e-09
3.74757e-08
1.65596e-09
3.74103e-08
1.64016e-09
3.73427e-08
1.62472e-09
3.7273e-08
1.60963e-09
3.72011e-08
1.59488e-09
3.7127e-08
1.58045e-09
3.70508e-08
1.56633e-09
3.69724e-08
1.55252e-09
3.6892e-08
1.53901e-09
3.68096e-08
1.52579e-09
3.67251e-08
1.51285e-09
3.66386e-08
1.50019e-09
3.65501e-08
1.48783e-09
3.64597e-08
1.47575e-09
3.63675e-08
1.46396e-09
3.62733e-08
1.45249e-09
3.61773e-08
1.44134e-09
3.60795e-08
1.43054e-09
3.59799e-08
1.42011e-09
3.58786e-08
1.4101e-09
3.57755e-08
1.40056e-09
3.56708e-08
1.39159e-09
3.55644e-08
1.38333e-09
3.54564e-08
1.37602e-09
3.53472e-08
1.37009e-09
3.5238e-08
1.36572e-09
3.51328e-08
1.36033e-09
1.31385e-09
3.86862e-08
3.14673e-09
-3.8563e-08
3.88362e-08
3.42716e-09
3.89917e-08
3.60671e-09
3.91373e-08
3.68804e-09
3.92645e-08
3.68979e-09
3.93697e-08
3.63356e-09
3.94523e-08
3.53948e-09
3.95145e-08
3.42503e-09
3.95596e-08
3.30372e-09
3.95914e-08
3.18436e-09
3.9613e-08
3.07171e-09
3.9627e-08
2.96782e-09
3.96354e-08
2.87307e-09
3.96395e-08
2.78705e-09
3.96403e-08
2.70897e-09
3.96387e-08
2.63793e-09
3.96351e-08
2.57307e-09
3.96299e-08
2.51361e-09
3.96234e-08
2.45888e-09
3.96158e-08
2.4083e-09
3.96071e-08
2.36135e-09
3.95976e-08
2.3176e-09
3.95873e-08
2.2767e-09
3.95761e-08
2.23832e-09
3.95642e-08
2.20219e-09
3.95515e-08
2.16807e-09
3.9538e-08
2.13577e-09
3.95237e-08
2.10511e-09
3.95086e-08
2.07594e-09
3.94925e-08
2.04814e-09
3.94756e-08
2.02158e-09
3.94576e-08
1.99617e-09
3.94387e-08
1.97183e-09
3.94186e-08
1.94846e-09
3.93975e-08
1.92602e-09
3.93751e-08
1.90443e-09
3.93515e-08
1.88364e-09
3.93266e-08
1.86361e-09
3.93003e-08
1.84428e-09
3.92727e-08
1.82562e-09
3.92436e-08
1.80759e-09
3.9213e-08
1.79016e-09
3.91808e-08
1.77329e-09
3.91471e-08
1.75695e-09
3.91117e-08
1.74113e-09
3.90747e-08
1.72578e-09
3.90359e-08
1.71089e-09
3.89955e-08
1.69643e-09
3.89532e-08
1.68239e-09
3.89092e-08
1.66874e-09
3.88634e-08
1.65546e-09
3.88157e-08
1.64254e-09
3.87662e-08
1.62997e-09
3.87148e-08
1.61772e-09
3.86616e-08
1.60579e-09
3.86064e-08
1.59417e-09
3.85493e-08
1.58284e-09
3.84904e-08
1.57181e-09
3.84295e-08
1.56106e-09
3.83667e-08
1.5506e-09
3.83021e-08
1.54043e-09
3.82355e-08
1.53056e-09
3.81669e-08
1.521e-09
3.80965e-08
1.51175e-09
3.80242e-08
1.50285e-09
3.795e-08
1.49432e-09
3.78739e-08
1.48621e-09
3.77959e-08
1.47857e-09
3.7716e-08
1.47148e-09
3.76343e-08
1.46506e-09
3.75508e-08
1.45951e-09
3.74659e-08
1.45497e-09
3.73806e-08
1.45097e-09
3.72978e-08
1.44314e-09
1.3944e-09
3.9861e-08
3.03458e-09
-3.97489e-08
3.99974e-08
3.29075e-09
4.01407e-08
3.46346e-09
4.0277e-08
3.55168e-09
4.03983e-08
3.56854e-09
4.05004e-08
3.53144e-09
4.05824e-08
3.45743e-09
4.06458e-08
3.3617e-09
4.06931e-08
3.25643e-09
4.07274e-08
3.15004e-09
4.07516e-08
3.04751e-09
4.07681e-08
2.95135e-09
4.07787e-08
2.86246e-09
4.07848e-08
2.78089e-09
4.07876e-08
2.70618e-09
4.07878e-08
2.63774e-09
4.0786e-08
2.5749e-09
4.07826e-08
2.51704e-09
4.07779e-08
2.46357e-09
4.07722e-08
2.41401e-09
4.07656e-08
2.36789e-09
4.07584e-08
2.32484e-09
4.07505e-08
2.28452e-09
4.07422e-08
2.24665e-09
4.07334e-08
2.21098e-09
4.07242e-08
2.17728e-09
4.07146e-08
2.14539e-09
4.07046e-08
2.11512e-09
4.06942e-08
2.08635e-09
4.06833e-08
2.05896e-09
4.06721e-08
2.03283e-09
4.06604e-08
2.00788e-09
4.06482e-08
1.98401e-09
4.06355e-08
1.96117e-09
4.06222e-08
1.93929e-09
4.06084e-08
1.9183e-09
4.05938e-08
1.89816e-09
4.05786e-08
1.87882e-09
4.05627e-08
1.86023e-09
4.05459e-08
1.84236e-09
4.05284e-08
1.82517e-09
4.05099e-08
1.80863e-09
4.04905e-08
1.79269e-09
4.04701e-08
1.77735e-09
4.04487e-08
1.76255e-09
4.04262e-08
1.74829e-09
4.04025e-08
1.73453e-09
4.03777e-08
1.72125e-09
4.03516e-08
1.70843e-09
4.03243e-08
1.69605e-09
4.02957e-08
1.68408e-09
4.02657e-08
1.67251e-09
4.02344e-08
1.66132e-09
4.02016e-08
1.6505e-09
4.01674e-08
1.64003e-09
4.01316e-08
1.6299e-09
4.00944e-08
1.6201e-09
4.00556e-08
1.61062e-09
4.00152e-08
1.60146e-09
3.99732e-08
1.59261e-09
3.99295e-08
1.58408e-09
3.98842e-08
1.57587e-09
3.98372e-08
1.56799e-09
3.97885e-08
1.56045e-09
3.97381e-08
1.55328e-09
3.96859e-08
1.54651e-09
3.96319e-08
1.54017e-09
3.95762e-08
1.53431e-09
3.95187e-08
1.52902e-09
3.94593e-08
1.52439e-09
3.93983e-08
1.52052e-09
3.93359e-08
1.51738e-09
3.92729e-08
1.51396e-09
3.92109e-08
1.50512e-09
1.45915e-09
4.10684e-08
2.932e-09
-4.09659e-08
4.11928e-08
3.1664e-09
4.13247e-08
3.3315e-09
4.14522e-08
3.4242e-09
4.15674e-08
3.45335e-09
4.16662e-08
3.43266e-09
4.17472e-08
3.37643e-09
4.18111e-08
3.29776e-09
4.186e-08
3.20752e-09
4.18965e-08
3.11361e-09
4.19229e-08
3.02107e-09
4.19415e-08
2.93272e-09
4.19541e-08
2.84987e-09
4.19621e-08
2.77294e-09
4.19664e-08
2.70182e-09
4.1968e-08
2.63615e-09
4.19675e-08
2.57547e-09
4.19652e-08
2.51929e-09
4.19616e-08
2.46715e-09
4.1957e-08
2.41863e-09
4.19516e-08
2.37334e-09
4.19455e-08
2.33094e-09
4.19389e-08
2.29114e-09
4.19318e-08
2.25369e-09
4.19245e-08
2.21834e-09
4.19168e-08
2.18492e-09
4.1909e-08
2.15324e-09
4.19009e-08
2.12317e-09
4.18927e-08
2.09457e-09
4.18843e-08
2.06734e-09
4.18758e-08
2.04136e-09
4.18671e-08
2.01657e-09
4.18582e-08
1.99287e-09
4.18492e-08
1.97022e-09
4.18399e-08
1.94854e-09
4.18305e-08
1.92778e-09
4.18207e-08
1.90789e-09
4.18107e-08
1.88883e-09
4.18004e-08
1.87056e-09
4.17897e-08
1.85305e-09
4.17786e-08
1.83625e-09
4.17671e-08
1.82013e-09
4.17551e-08
1.80467e-09
4.17426e-08
1.78984e-09
4.17296e-08
1.7756e-09
4.17159e-08
1.76194e-09
4.17016e-08
1.74883e-09
4.16867e-08
1.73624e-09
4.16709e-08
1.72415e-09
4.16544e-08
1.71254e-09
4.16371e-08
1.7014e-09
4.16189e-08
1.6907e-09
4.15998e-08
1.68042e-09
4.15798e-08
1.67056e-09
4.15587e-08
1.66108e-09
4.15366e-08
1.652e-09
4.15135e-08
1.64328e-09
4.14891e-08
1.63493e-09
4.14637e-08
1.62693e-09
4.1437e-08
1.61929e-09
4.14091e-08
1.61201e-09
4.13799e-08
1.60508e-09
4.13493e-08
1.59852e-09
4.13174e-08
1.59235e-09
4.12841e-08
1.58658e-09
4.12494e-08
1.58125e-09
4.12132e-08
1.57638e-09
4.11754e-08
1.57204e-09
4.11362e-08
1.56828e-09
4.10954e-08
1.56518e-09
4.10531e-08
1.56277e-09
4.10097e-08
1.56086e-09
4.09655e-08
1.55814e-09
4.09212e-08
1.54943e-09
1.50964e-09
4.23094e-08
2.83781e-09
-4.22153e-08
4.24231e-08
3.05276e-09
4.25446e-08
3.20995e-09
4.26636e-08
3.3052e-09
4.27728e-08
3.34417e-09
4.2868e-08
3.33747e-09
4.29475e-08
3.2969e-09
4.30116e-08
3.2337e-09
4.30617e-08
3.15745e-09
4.30998e-08
3.07546e-09
4.31282e-08
2.99269e-09
4.31488e-08
2.91215e-09
4.31632e-08
2.83546e-09
4.31728e-08
2.76335e-09
4.31786e-08
2.696e-09
4.31815e-08
2.63329e-09
4.3182e-08
2.57492e-09
4.31807e-08
2.52057e-09
4.3178e-08
2.46986e-09
4.31742e-08
2.42247e-09
4.31695e-08
2.37806e-09
4.3164e-08
2.33635e-09
4.31581e-08
2.29709e-09
4.31518e-08
2.26004e-09
4.31451e-08
2.225e-09
4.31382e-08
2.1918e-09
4.31312e-08
2.16029e-09
4.3124e-08
2.13034e-09
4.31168e-08
2.10181e-09
4.31095e-08
2.07462e-09
4.31022e-08
2.04868e-09
4.30948e-08
2.0239e-09
4.30875e-08
2.00021e-09
4.30801e-08
1.97756e-09
4.30728e-08
1.95589e-09
4.30654e-08
1.93515e-09
4.3058e-08
1.9153e-09
4.30506e-08
1.89629e-09
4.3043e-08
1.87808e-09
4.30354e-08
1.86065e-09
4.30277e-08
1.84397e-09
4.30199e-08
1.82799e-09
4.30118e-08
1.81269e-09
4.30036e-08
1.79805e-09
4.29952e-08
1.78404e-09
4.29865e-08
1.77064e-09
4.29775e-08
1.75782e-09
4.29682e-08
1.74555e-09
4.29585e-08
1.73383e-09
4.29484e-08
1.72263e-09
4.29379e-08
1.71192e-09
4.29269e-08
1.7017e-09
4.29154e-08
1.69194e-09
4.29033e-08
1.68263e-09
4.28906e-08
1.67376e-09
4.28773e-08
1.66531e-09
4.28633e-08
1.65728e-09
4.28486e-08
1.64965e-09
4.28331e-08
1.64242e-09
4.28168e-08
1.63559e-09
4.27996e-08
1.62915e-09
4.27816e-08
1.62312e-09
4.27626e-08
1.61751e-09
4.27427e-08
1.61232e-09
4.27217e-08
1.60758e-09
4.26996e-08
1.60331e-09
4.26764e-08
1.59957e-09
4.26521e-08
1.59638e-09
4.26265e-08
1.59381e-09
4.25998e-08
1.5919e-09
4.2572e-08
1.59064e-09
4.25431e-08
1.58972e-09
4.25135e-08
1.58771e-09
4.2483e-08
1.57996e-09
1.54809e-09
4.35851e-08
2.75103e-09
-4.34983e-08
4.36892e-08
2.94866e-09
4.38012e-08
3.09792e-09
4.39121e-08
3.19424e-09
4.40154e-08
3.24095e-09
4.41068e-08
3.24606e-09
4.41845e-08
3.21921e-09
4.42482e-08
3.16993e-09
4.42991e-08
3.10662e-09
4.43386e-08
3.03593e-09
4.43686e-08
2.96264e-09
4.4391e-08
2.88984e-09
4.4407e-08
2.81938e-09
4.44182e-08
2.75223e-09
4.44253e-08
2.68882e-09
4.44294e-08
2.62922e-09
4.4431e-08
2.57333e-09
4.44306e-08
2.52093e-09
4.44287e-08
2.47178e-09
4.44256e-08
2.42561e-09
4.44215e-08
2.38217e-09
4.44166e-08
2.34122e-09
4.44111e-08