/*--------------------------------*- C++ -*----------------------------------*\
| =========                 |                                                 |
| \\      /  F ield         | OpenFOAM: The Open Source CFD Toolbox           |
|  \\    /   O peration     | Version:  2.3.0                                 |
|   \\  /    A nd           | Web:      www.OpenFOAM.org                      |
|    \\/     M anipulation  |                                                 |
\*---------------------------------------------------------------------------*/
FoamFile
{
    version     2.0;
    format      ascii;
    class       volScalarField;
    location    "1";
    object      p;
}
// * * * * * * * * * * * * * * * * * * * * * * * * * * * * * * * * * * * * * //

dimensions      [0 2 -2 0 0 0 0];

internalField   nonuniform List<scalar> 
3375
(
0.00223184
0.00165611
0.00118874
0.000852846
0.000576059
0.000328372
0.000109974
-7.45341e-05
-0.000223662
-0.000338486
-0.000421712
-0.000477315
-0.000510125
-0.000525249
-0.00052751
-0.000521067
-0.000509225
-0.00049443
-0.000478363
-0.000462088
-0.000446215
-0.000431043
-0.000416672
-0.000403089
-0.000390227
-0.000377995
-0.000366305
-0.000355079
-0.000344253
-0.000333776
-0.000323611
-0.000313731
-0.000304116
-0.000294752
-0.000285629
-0.000276739
-0.000268077
-0.000259638
-0.000251418
-0.000243415
-0.000235625
-0.000228044
-0.00022067
-0.0002135
-0.000206529
-0.000199756
-0.000193177
-0.000186788
-0.000180586
-0.000174567
-0.000168728
-0.000163066
-0.000157576
-0.000152254
-0.000147098
-0.000142102
-0.000137263
-0.000132577
-0.000128039
-0.000123646
-0.000119393
-0.000115276
-0.00011129
-0.000107431
-0.000103695
-0.000100078
-9.65734e-05
-9.31781e-05
-8.98872e-05
-8.66959e-05
-8.35995e-05
-8.05931e-05
-7.7672e-05
-7.48312e-05
-7.20655e-05
-6.93699e-05
-6.67392e-05
-6.4168e-05
-6.16508e-05
-5.9182e-05
-5.67558e-05
-5.43662e-05
-5.2007e-05
-4.96717e-05
-4.73537e-05
-4.5046e-05
-4.27412e-05
-4.04316e-05
-3.8109e-05
-3.57647e-05
-3.33895e-05
-3.09734e-05
-2.85053e-05
-2.59731e-05
-2.33623e-05
-2.06552e-05
-1.78284e-05
-1.4843e-05
-1.14869e-05
-1.0201e-05
0.00195502
0.00154736
0.00116545
0.000861664
0.00059919
0.000358809
0.000143594
-4.02437e-05
-0.000190174
-0.000306701
-0.000392194
-0.000450378
-0.00048589
-0.000503687
-0.000508487
-0.000504378
-0.00049463
-0.000481675
-0.000467198
-0.00045228
-0.000437556
-0.000423352
-0.000409796
-0.000396901
-0.00038462
-0.000372886
-0.000361624
-0.000350769
-0.000340267
-0.000330077
-0.000320166
-0.000310513
-0.000301102
-0.000291922
-0.000282965
-0.000274227
-0.000265704
-0.000257393
-0.000249291
-0.000241397
-0.000233706
-0.000226219
-0.000218931
-0.000211841
-0.000204946
-0.000198243
-0.00019173
-0.000185402
-0.000179258
-0.000173294
-0.000167507
-0.000161893
-0.000156448
-0.00015117
-0.000146054
-0.000141097
-0.000136295
-0.000131643
-0.000127138
-0.000122776
-0.000118553
-0.000114464
-0.000110505
-0.000106672
-0.000102961
-9.93662e-05
-9.58841e-05
-9.25099e-05
-8.92392e-05
-8.60672e-05
-8.29893e-05
-8.00006e-05
-7.70964e-05
-7.42717e-05
-7.15216e-05
-6.88408e-05
-6.62244e-05
-6.36668e-05
-6.11626e-05
-5.87064e-05
-5.62921e-05
-5.39141e-05
-5.15659e-05
-4.92412e-05
-4.69334e-05
-4.46354e-05
-4.23399e-05
-4.00392e-05
-3.77251e-05
-3.53889e-05
-3.30215e-05
-3.06126e-05
-2.81515e-05
-2.56256e-05
-2.30207e-05
-2.03183e-05
-1.74945e-05
-1.45056e-05
-1.10395e-05
-1.02076e-05
0.00174931
0.00144856
0.00112705
0.000848484
0.000602248
0.000376041
0.000171896
-4.70011e-06
-0.000150992
-0.000266949
-0.000354269
-0.00041592
-0.000455791
-0.000478204
-0.000487407
-0.000487196
-0.000480708
-0.000470358
-0.000457893
-0.000444491
-0.000430895
-0.000417528
-0.000404601
-0.00039219
-0.000380296
-0.000368879
-0.000357889
-0.000347274
-0.000336988
-0.000326994
-0.000317265
-0.00030778
-0.000298524
-0.000289489
-0.000280667
-0.000272054
-0.000263646
-0.000255443
-0.000247441
-0.000239639
-0.000232035
-0.000224628
-0.000217416
-0.000210396
-0.000203567
-0.000196925
-0.000190469
-0.000184196
-0.000178103
-0.000172186
-0.000166444
-0.000160872
-0.000155468
-0.000150227
-0.000145148
-0.000140224
-0.000135454
-0.000130833
-0.000126358
-0.000122023
-0.000117826
-0.000113762
-0.000109827
-0.000106017
-0.000102327
-9.87525e-05
-9.529e-05
-9.19347e-05
-8.86819e-05
-8.55271e-05
-8.24656e-05
-7.94926e-05
-7.66034e-05
-7.37932e-05
-7.10569e-05
-6.83894e-05
-6.57857e-05
-6.32403e-05
-6.07479e-05
-5.8303e-05
-5.58996e-05
-5.3532e-05
-5.11939e-05
-4.8879e-05
-4.65805e-05
-4.42915e-05
-4.20046e-05
-3.97123e-05
-3.74063e-05
-3.50779e-05
-3.2718e-05
-3.03166e-05
-2.78626e-05
-2.53439e-05
-2.27463e-05
-2.00522e-05
-1.72394e-05
-1.42653e-05
-1.09091e-05
-1.12046e-05
0.00157249
0.00134133
0.00107197
0.00082288
0.000597804
0.000390006
0.000200709
3.45715e-05
-0.000105459
-0.00021879
-0.00030645
-0.000370653
-0.000414508
-0.00044163
-0.000455704
-0.000460133
-0.000457819
-0.000451074
-0.000441631
-0.000430713
-0.000419131
-0.000407388
-0.000395769
-0.000384417
-0.000373385
-0.000362681
-0.000352285
-0.000342173
-0.000332317
-0.000322695
-0.000313291
-0.000304093
-0.000295092
-0.000286285
-0.000277668
-0.00026924
-0.000261
-0.00025295
-0.000245088
-0.000237415
-0.00022993
-0.000222632
-0.000215521
-0.000208596
-0.000201854
-0.000195294
-0.000188915
-0.000182713
-0.000176687
-0.000170834
-0.000165151
-0.000159635
-0.000154284
-0.000149093
-0.00014406
-0.000139181
-0.000134453
-0.000129872
-0.000125434
-0.000121135
-0.000116972
-0.00011294
-0.000109036
-0.000105254
-0.000101592
-9.80444e-05
-9.4607e-05
-9.12756e-05
-8.80456e-05
-8.49125e-05
-8.18718e-05
-7.89187e-05
-7.60486e-05
-7.32565e-05
-7.05376e-05
-6.78868e-05
-6.52991e-05
-6.27692e-05
-6.02915e-05
-5.78608e-05
-5.54711e-05
-5.31166e-05
-5.07912e-05
-4.84885e-05
-4.62018e-05
-4.39243e-05
-4.16485e-05
-3.9367e-05
-3.70714e-05
-3.47533e-05
-3.24034e-05
-3.00119e-05
-2.75681e-05
-2.506e-05
-2.24747e-05
-1.97971e-05
-1.70125e-05
-1.41043e-05
-1.11202e-05
-1.30235e-05
0.00141445
0.00123343
0.00101112
0.000793191
0.00059026
0.000400847
0.000226561
7.15309e-05
-6.12173e-05
-0.000170679
-0.000257381
-0.000322948
-0.000369835
-0.000401008
-0.000419591
-0.000428553
-0.000430499
-0.00042757
-0.00042143
-0.000413298
-0.000404029
-0.000394187
-0.000384127
-0.000374057
-0.000364088
-0.000354274
-0.000344633
-0.00033517
-0.000325879
-0.000316755
-0.000307793
-0.00029899
-0.000290344
-0.000281858
-0.000273532
-0.000265368
-0.000257371
-0.000249541
-0.000241881
-0.000234394
-0.00022708
-0.00021994
-0.000212974
-0.000206183
-0.000199567
-0.000193123
-0.000186852
-0.000180752
-0.00017482
-0.000169056
-0.000163456
-0.000158018
-0.000152739
-0.000147618
-0.00014265
-0.000137832
-0.000133162
-0.000128635
-0.000124249
-0.000119999
-0.000115883
-0.000111895
-0.000108032
-0.00010429
-0.000100666
-9.71539e-05
-9.37507e-05
-9.04518e-05
-8.72528e-05
-8.41492e-05
-8.11367e-05
-7.82105e-05
-7.53661e-05
-7.25986e-05
-6.99032e-05
-6.7275e-05
-6.47089e-05
-6.21997e-05
-5.9742e-05
-5.73305e-05
-5.49592e-05
-5.26226e-05
-5.03143e-05
-4.80283e-05
-4.57577e-05
-4.34958e-05
-4.12352e-05
-3.89685e-05
-3.66875e-05
-3.43837e-05
-3.20481e-05
-2.9671e-05
-2.72421e-05
-2.47506e-05
-2.21855e-05
-1.95377e-05
-1.68096e-05
-1.40508e-05
-1.16754e-05
-1.53142e-05
0.00127748
0.00113262
0.000949236
0.000760201
0.000578452
0.000406542
0.000246889
0.000103194
-2.16226e-05
-0.000126302
-0.000210982
-0.000276809
-0.000325684
-0.000360002
-0.000382366
-0.00039532
-0.000401162
-0.000401835
-0.000398899
-0.000393542
-0.000386631
-0.000378772
-0.000370372
-0.000361693
-0.000352897
-0.000344078
-0.000335293
-0.000326571
-0.000317931
-0.000309383
-0.000300935
-0.000292595
-0.000284368
-0.000276261
-0.000268282
-0.000260436
-0.00025273
-0.000245169
-0.000237757
-0.000230499
-0.000223397
-0.000216454
-0.000209672
-0.000203052
-0.000196595
-0.000190301
-0.00018417
-0.000178201
-0.000172392
-0.000166743
-0.000161252
-0.000155917
-0.000150735
-0.000145705
-0.000140823
-0.000136087
-0.000131494
-0.00012704
-0.000122723
-0.000118539
-0.000114484
-0.000110556
-0.000106749
-0.00010306
-9.94864e-05
-9.60227e-05
-9.26652e-05
-8.94099e-05
-8.62525e-05
-8.31886e-05
-8.02139e-05
-7.73238e-05
-7.45139e-05
-7.17794e-05
-6.91157e-05
-6.65178e-05
-6.39807e-05
-6.14994e-05
-5.90686e-05
-5.66828e-05
-5.43365e-05
-5.20238e-05
-4.97388e-05
-4.74753e-05
-4.52265e-05
-4.29859e-05
-4.07461e-05
-3.84998e-05
-3.62388e-05
-3.39549e-05
-3.16393e-05
-2.92827e-05
-2.68756e-05
-2.44086e-05
-2.18745e-05
-1.9274e-05
-1.66376e-05
-1.41122e-05
-1.24666e-05
-1.75388e-05
0.00115858
0.00103957
0.00088718
0.000723971
0.00056238
0.000407287
0.000261854
0.000129469
1.28869e-05
-8.64665e-05
-0.000168397
-0.000233641
-0.000283624
-0.000320248
-0.000345651
-0.000361986
-0.000371252
-0.000375189
-0.000375235
-0.000372521
-0.000367906
-0.000362015
-0.00035529
-0.000348034
-0.00034045
-0.00033267
-0.000324782
-0.000316842
-0.000308891
-0.000300954
-0.000293054
-0.000285207
-0.000277429
-0.000269732
-0.000262127
-0.000254626
-0.000247238
-0.000239972
-0.000232833
-0.000225829
-0.000218963
-0.000212242
-0.000205667
-0.000199241
-0.000192966
-0.000186844
-0.000180874
-0.000175057
-0.000169392
-0.000163879
-0.000158516
-0.000153303
-0.000148237
-0.000143316
-0.000138539
-0.000133901
-0.000129402
-0.000125038
-0.000120806
-0.000116703
-0.000112726
-0.00010887
-0.000105134
-0.000101512
-9.80017e-05
-9.45989e-05
-9.12995e-05
-8.80996e-05
-8.49952e-05
-8.19819e-05
-7.90557e-05
-7.6212e-05
-7.34466e-05
-7.07547e-05
-6.81318e-05
-6.55732e-05
-6.30739e-05
-6.06288e-05
-5.8233e-05
-5.58809e-05
-5.35672e-05
-5.12861e-05
-4.90317e-05
-4.67979e-05
-4.45781e-05
-4.23657e-05
-4.01537e-05
-3.79346e-05
-3.57006e-05
-3.34436e-05
-3.11552e-05
-2.88267e-05
-2.64496e-05
-2.40169e-05
-2.15265e-05
-1.8992e-05
-1.64788e-05
-1.42346e-05
-1.32726e-05
-1.9095e-05
0.00105427
0.00095422
0.00082642
0.000685867
0.000543114
0.000403958
0.000272079
0.000150685
4.23629e-05
-5.13619e-05
-0.000130028
-0.000194024
-0.000244377
-0.000282564
-0.000310316
-0.000329435
-0.000341637
-0.00034846
-0.000351211
-0.00035095
-0.000348506
-0.000344508
-0.000339419
-0.00033357
-0.000327197
-0.000320464
-0.000313487
-0.000306345
-0.000299098
-0.000291789
-0.000284452
-0.000277115
-0.000269799
-0.000262524
-0.000255308
-0.000248165
-0.000241109
-0.000234149
-0.000227296
-0.000220558
-0.000213942
-0.000207454
-0.000201098
-0.000194879
-0.000188798
-0.000182859
-0.000177063
-0.000171411
-0.000165902
-0.000160537
-0.000155315
-0.000150236
-0.000145297
-0.000140498
-0.000135836
-0.00013131
-0.000126916
-0.000122653
-0.000118518
-0.000114507
-0.000110618
-0.000106847
-0.000103191
-9.96466e-05
-9.62103e-05
-9.28784e-05
-8.96471e-05
-8.65124e-05
-8.34706e-05
-8.05174e-05
-7.76488e-05
-7.48606e-05
-7.21484e-05
-6.95078e-05
-6.69343e-05
-6.44232e-05
-6.19697e-05
-5.9569e-05
-5.72159e-05
-5.49053e-05
-5.26318e-05
-5.03897e-05
-4.81733e-05
-4.59765e-05
-4.3793e-05
-4.16161e-05
-3.9439e-05
-3.72545e-05
-3.50549e-05
-3.28324e-05
-3.0579e-05
-2.82867e-05
-2.59485e-05
-2.35602e-05
-2.11257e-05
-1.86724e-05
-1.62989e-05
-1.43264e-05
-1.3846e-05
-1.95361e-05
0.00096193
0.000876303
0.000768085
0.000647029
0.000521459
0.000397159
0.000278045
0.000167195
6.70359e-05
-2.08726e-05
-9.58728e-05
-0.00015807
-0.000208156
-0.000247248
-0.000276722
-0.000298062
-0.000312725
-0.000322053
-0.000327216
-0.000329193
-0.000328771
-0.000326567
-0.000323051
-0.000318575
-0.000313397
-0.000307706
-0.000301641
-0.000295303
-0.000288768
-0.000282096
-0.000275331
-0.00026851
-0.000261666
-0.000254822
-0.000248002
-0.000241224
-0.000234506
-0.00022786
-0.0002213
-0.000214835
-0.000208475
-0.000202227
-0.000196098
-0.000190092
-0.000184213
-0.000178465
-0.000172849
-0.000167368
-0.000162022
-0.000156813
-0.000151739
-0.000146801
-0.000141997
-0.000137327
-0.000132789
-0.00012838
-0.0001241
-0.000119945
-0.000115913
-0.000112002
-0.000108208
-0.000104529
-0.000100961
-9.75011e-05
-9.41461e-05
-9.08923e-05
-8.77361e-05
-8.46738e-05
-8.17015e-05
-7.88153e-05
-7.60113e-05
-7.32853e-05
-7.06331e-05
-6.80504e-05
-6.55329e-05
-6.30759e-05
-6.06749e-05
-5.83249e-05
-5.60211e-05
-5.37584e-05
-5.15315e-05
-4.93349e-05
-4.71629e-05
-4.50096e-05
-4.28687e-05
-4.07339e-05
-3.85984e-05
-3.64551e-05
-3.42968e-05
-3.21158e-05
-2.99048e-05
-2.76565e-05
-2.53655e-05
-2.30305e-05
-2.06612e-05
-1.82969e-05
-1.60586e-05
-1.42935e-05
-1.40036e-05
-1.87274e-05
0.00087949
0.000805224
0.000712722
0.000608247
0.000498072
0.000387458
0.000280274
0.000179457
8.72734e-05
5.26842e-06
-6.57684e-05
-0.000125718
-0.000174996
-0.000214413
-0.000245041
-0.00026808
-0.000284752
-0.000296209
-0.000303487
-0.000307475
-0.00030891
-0.000308384
-0.000306365
-0.000303211
-0.000299198
-0.000294533
-0.000289374
-0.000283838
-0.000278019
-0.000271987
-0.000265799
-0.000259503
-0.000253135
-0.000246728
-0.00024031
-0.000233904
-0.000227529
-0.000221203
-0.000214941
-0.000208756
-0.000202658
-0.000196656
-0.000190758
-0.00018497
-0.000179298
-0.000173746
-0.000168316
-0.000163012
-0.000157835
-0.000152786
-0.000147865
-0.000143074
-0.00013841
-0.000133874
-0.000129463
-0.000125178
-0.000121016
-0.000116974
-0.000113051
-0.000109244
-0.000105551
-0.000101969
-9.84941e-05
-9.51239e-05
-9.18552e-05
-8.86846e-05
-8.56085e-05
-8.26234e-05
-7.97256e-05
-7.69113e-05
-7.41768e-05
-7.15179e-05
-6.89306e-05
-6.64108e-05
-6.39541e-05
-6.15562e-05
-5.92124e-05
-5.69182e-05
-5.46686e-05
-5.24587e-05
-5.02834e-05
-4.81373e-05
-4.60148e-05
-4.39101e-05
-4.18172e-05
-3.97299e-05
-3.76414e-05
-3.5545e-05
-3.34337e-05
-3.13004e-05
-2.91379e-05
-2.69403e-05
-2.47032e-05
-2.24281e-05
-2.01291e-05
-1.78528e-05
-1.57262e-05
-1.40723e-05
-1.36817e-05
-1.6867e-05
0.000805328
0.000740275
0.000660538
0.000570101
0.000473555
0.000375414
0.000279292
0.000187939
0.000103461
2.73527e-05
-3.95178e-05
-9.68632e-05
-0.000144875
-0.000184109
-0.000215376
-0.000239631
-0.000257878
-0.000271098
-0.000280191
-0.000285956
-0.000289069
-0.00029009
-0.000289474
-0.000287581
-0.000284692
-0.000281027
-0.000276758
-0.000272018
-0.000266911
-0.00026152
-0.000255913
-0.000250144
-0.000244258
-0.000238294
-0.000232283
-0.000226254
-0.000220229
-0.000214229
-0.000208271
-0.000202371
-0.00019654
-0.000190789
-0.000185129
-0.000179565
-0.000174105
-0.000168754
-0.000163516
-0.000158394
-0.00015339
-0.000148506
-0.000143744
-0.000139103
-0.000134584
-0.000130187
-0.00012591
-0.000121752
-0.000117712
-0.000113788
-0.000109979
-0.000106281
-0.000102692
-9.92107e-05
-9.58332e-05
-9.25567e-05
-8.93783e-05
-8.62947e-05
-8.33027e-05
-8.03987e-05
-7.75793e-05
-7.48408e-05
-7.21795e-05
-6.95916e-05
-6.7073e-05
-6.46198e-05
-6.22278e-05
-5.98926e-05
-5.76099e-05
-5.53752e-05
-5.31837e-05
-5.10305e-05
-4.89107e-05
-4.6819e-05
-4.47501e-05
-4.26982e-05
-4.06574e-05
-3.86218e-05
-3.65848e-05
-3.454e-05
-3.24805e-05
-3.03996e-05
-2.8291e-05
-2.6149e-05
-2.39709e-05
-2.17597e-05
-1.9532e-05
-1.73353e-05
-1.52866e-05
-1.36462e-05
-1.29373e-05
-1.4371e-05
0.000738156
0.00068076
0.000611537
0.000532986
0.000448405
0.000361524
0.000275575
0.00019308
0.000115975
4.5681e-05
-1.69025e-05
-7.13682e-05
-0.000117732
-0.000156342
-0.000187789
-0.000212814
-0.000232229
-0.000246855
-0.000257466
-0.000264766
-0.000269368
-0.000271793
-0.000272475
-0.000271764
-0.000269945
-0.000267245
-0.000263843
-0.000259884
-0.000255481
-0.000250728
-0.000245701
-0.000240461
-0.00023506
-0.000229542
-0.000223943
-0.000218296
-0.000212626
-0.000206957
-0.000201309
-0.0001957
-0.000190142
-0.000184649
-0.000179232
-0.000173898
-0.000168657
-0.000163513
-0.000158472
-0.000153537
-0.000148712
-0.000144
-0.000139401
-0.000134916
-0.000130547
-0.000126293
-0.000122154
-0.000118129
-0.000114216
-0.000110415
-0.000106723
-0.000103138
-9.96588e-05
-9.62822e-05
-9.30059e-05
-8.98271e-05
-8.67429e-05
-8.37502e-05
-8.08459e-05
-7.80268e-05
-7.52893e-05
-7.26302e-05
-7.00456e-05
-6.75321e-05
-6.50856e-05
-6.27024e-05
-6.03783e-05
-5.81092e-05
-5.58909e-05
-5.3719e-05
-5.15888e-05
-4.94956e-05
-4.74347e-05
-4.54008e-05
-4.33888e-05
-4.13931e-05
-3.94081e-05
-3.74279e-05
-3.54462e-05
-3.34567e-05
-3.1453e-05
-2.94287e-05
-2.73778e-05
-2.52956e-05
-2.31799e-05
-2.10346e-05
-1.88762e-05
-1.67474e-05
-1.47426e-05
-1.30399e-05
-1.1903e-05
-1.17014e-05
0.000676937
0.000626037
0.000565592
0.000497139
0.000423009
0.000346215
0.000269558
0.000195296
0.000125188
6.0561e-05
2.31206e-06
-4.90743e-05
-9.34813e-05
-0.000131091
-0.000162311
-0.000187702
-0.000207906
-0.000223598
-0.000235433
-0.000244024
-0.000249919
-0.000253593
-0.000255453
-0.000255837
-0.000255024
-0.00025324
-0.000250673
-0.000247471
-0.000243758
-0.000239634
-0.000235181
-0.000230468
-0.000225552
-0.000220482
-0.000215298
-0.000210036
-0.000204727
-0.000199394
-0.000194062
-0.000188748
-0.00018347
-0.000178241
-0.000173073
-0.000167976
-0.000162958
-0.000158028
-0.00015319
-0.000148449
-0.000143809
-0.000139274
-0.000134844
-0.000130522
-0.000126308
-0.000122204
-0.000118208
-0.00011432
-0.00011054
-0.000106866
-0.000103296
-9.98297e-05
-9.6464e-05
-9.31971e-05
-9.00264e-05
-8.69495e-05
-8.39636e-05
-8.10659e-05
-7.82534e-05
-7.55229e-05
-7.28712e-05
-7.0295e-05
-6.77908e-05
-6.53551e-05
-6.29842e-05
-6.06743e-05
-5.84216e-05
-5.62219e-05
-5.40712e-05
-5.19653e-05
-4.98996e-05
-4.78696e-05
-4.58707e-05
-4.38978e-05
-4.1946e-05
-4.00098e-05
-3.80838e-05
-3.61622e-05
-3.42392e-05
-3.23086e-05
-3.03642e-05
-2.84e-05
-2.64105e-05
-2.43912e-05
-2.23404e-05
-2.02617e-05
-1.81693e-05
-1.60968e-05
-1.41094e-05
-1.23025e-05
-1.07304e-05
-9.22589e-06
0.000620829
0.00057553
0.00052251
0.000462676
0.000397658
0.000329852
0.000261631
0.000194973
0.000131456
7.2298e-05
1.83678e-05
-2.98078e-05
-7.2017e-05
-0.000108312
-0.000138953
-0.000164346
-0.000184988
-0.000201424
-0.0002142
-0.00022384
-0.000230825
-0.000235586
-0.000238496
-0.000239874
-0.000239989
-0.000239066
-0.00023729
-0.000234816
-0.000231771
-0.00022826
-0.000224371
-0.000220179
-0.000215745
-0.000211121
-0.000206353
-0.000201479
-0.000196532
-0.00019154
-0.000186528
-0.000181516
-0.000176522
-0.000171562
-0.000166649
-0.000161795
-0.000157008
-0.000152298
-0.000147669
-0.000143129
-0.00013868
-0.000134328
-0.000130074
-0.00012592
-0.000121868
-0.000117919
-0.000114072
-0.000110328
-0.000106685
-0.000103144
-9.97022e-05
-9.63589e-05
-9.31119e-05
-8.99595e-05
-8.68992e-05
-8.39289e-05
-8.10459e-05
-7.82476e-05
-7.5531e-05
-7.28934e-05
-7.03315e-05
-6.78423e-05
-6.54223e-05
-6.30683e-05
-6.07766e-05
-5.85436e-05
-5.63657e-05
-5.42389e-05
-5.21593e-05
-5.01226e-05
-4.81248e-05
-4.61614e-05
-4.42277e-05
-4.23191e-05
-4.04307e-05
-3.85572e-05
-3.66935e-05
-3.4834e-05
-3.29729e-05
-3.11045e-05
-2.92228e-05
-2.73221e-05
-2.53971e-05
-2.34436e-05
-2.14597e-05
-1.94479e-05
-1.74185e-05
-1.53937e-05
-1.34087e-05
-1.14889e-05
-9.54763e-06
-7.15455e-06
0.000569134
0.000528729
0.000482062
0.000429631
0.000372559
0.000312734
0.000252134
0.000192464
0.000135115
8.11892e-05
3.15095e-05
-1.33838e-05
-5.32155e-05
-8.79406e-05
-0.0001177
-0.000142774
-0.000163536
-0.000180415
-0.00019386
-0.00020431
-0.000212184
-0.000217863
-0.000221685
-0.000223948
-0.000224906
-0.000224775
-0.00022374
-0.000221955
-0.000219548
-0.000216629
-0.00021329
-0.000209608
-0.000205648
-0.000201467
-0.000197113
-0.000192627
-0.000188044
-0.000183394
-0.000178705
-0.000173999
-0.000169294
-0.000164609
-0.000159957
-0.000155351
-0.000150802
-0.000146317
-0.000141904
-0.00013757
-0.00013332
-0.000129157
-0.000125085
-0.000121106
-0.000117222
-0.000113434
-0.000109742
-0.000106147
-0.000102649
-9.92461e-05
-9.5938e-05
-9.27234e-05
-8.96006e-05
-8.65679e-05
-8.36232e-05
-8.07645e-05
-7.79892e-05
-7.5295e-05
-7.26792e-05
-7.01388e-05
-6.76712e-05
-6.52732e-05
-6.29416e-05
-6.06733e-05
-5.84648e-05
-5.63127e-05
-5.42134e-05
-5.21631e-05
-5.01582e-05
-4.81945e-05
-4.62681e-05
-4.43746e-05
-4.25096e-05
-4.06688e-05
-3.88471e-05
-3.70399e-05
-3.52418e-05
-3.34477e-05
-3.16521e-05
-2.98493e-05
-2.80337e-05
-2.61998e-05
-2.43425e-05
-2.24575e-05
-2.05425e-05
-1.85982e-05
-1.66301e-05
-1.46486e-05
-1.26628e-05
-1.06471e-05
-8.44002e-06
-5.54827e-06
0.000521268
0.000485185
0.000444011
0.000397979
0.000347848
0.000295098
0.000241361
0.000188083
0.000136474
8.75189e-05
4.19792e-05
3.88516e-07
-3.69406e-05
-6.98929e-05
-9.85178e-05
-0.000122993
-0.000143589
-0.000160635
-0.00017449
-0.000185521
-0.000194082
-0.000200508
-0.0002051
-0.00020813
-0.000209835
-0.000210422
-0.000210068
-0.000208925
-0.000207121
-0.000204766
-0.000201956
-0.000198768
-0.000195272
-0.000191526
-0.000187581
-0.00018348
-0.00017926
-0.000174955
-0.000170591
-0.000166193
-0.000161782
-0.000157376
-0.00015299
-0.000148638
-0.00014433
-0.000140078
-0.000135887
-0.000131766
-0.00012772
-0.000123754
-0.00011987
-0.000116073
-0.000112363
-0.000108743
-0.000105213
-0.000101773
-9.84249e-05
-9.51668e-05
-9.19982e-05
-8.89181e-05
-8.59252e-05
-8.30178e-05
-8.01941e-05
-7.74523e-05
-7.479e-05
-7.22049e-05
-6.96946e-05
-6.72565e-05
-6.48877e-05
-6.25854e-05
-6.03467e-05
-5.81684e-05
-5.60474e-05
-5.39803e-05
-5.19636e-05
-4.9994e-05
-4.80676e-05
-4.61807e-05
-4.43294e-05
-4.25096e-05
-4.07171e-05
-3.89475e-05
-3.71963e-05
-3.54588e-05
-3.37301e-05
-3.2005e-05
-3.02784e-05
-2.85448e-05
-2.67988e-05
-2.50351e-05
-2.32487e-05
-2.14352e-05
-1.95914e-05
-1.77159e-05
-1.58093e-05
-1.38715e-05
-1.18915e-05
-9.81264e-06
-7.45053e-06
-4.36617e-06
0.000476734
0.0004445
0.000408123
0.000367659
0.000323608
0.00027713
0.000229559
0.00018211
0.00013582
9.15571e-05
5.0015e-05
1.17045e-05
-2.30451e-05
-5.40712e-05
-8.13546e-05
-0.000104992
-0.000125169
-0.000142129
-0.000156156
-0.000167547
-0.0001766
-0.000183601
-0.000188817
-0.000192492
-0.000194844
-0.000196065
-0.000196325
-0.000195769
-0.000194525
-0.000192702
-0.000190393
-0.000187679
-0.000184632
-0.00018131
-0.000177766
-0.000174044
-0.000170185
-0.000166222
-0.000162184
-0.000158096
-0.000153981
-0.000149858
-0.000145742
-0.000141649
-0.000137589
-0.000133574
-0.000129612
-0.00012571
-0.000121875
-0.000118111
-0.000114423
-0.000110813
-0.000107284
-0.000103838
-0.000100476
-9.7199e-05
-9.40069e-05
-9.08996e-05
-8.78767e-05
-8.49372e-05
-8.208e-05
-7.93037e-05
-7.66068e-05
-7.39873e-05
-7.14434e-05
-6.89728e-05
-6.65732e-05
-6.42422e-05
-6.19773e-05
-5.97756e-05
-5.76344e-05
-5.55507e-05
-5.35216e-05
-5.15438e-05
-4.96141e-05
-4.77292e-05
-4.58855e-05
-4.40794e-05
-4.23072e-05
-4.05651e-05
-3.88489e-05
-3.71545e-05
-3.54776e-05
-3.38136e-05
-3.21579e-05
-3.05056e-05
-2.88518e-05
-2.71911e-05
-2.55185e-05
-2.38286e-05
-2.21166e-05
-2.03777e-05
-1.86078e-05
-1.68035e-05
-1.49607e-05
-1.30712e-05
-1.11104e-05
-9.00785e-06
-6.58998e-06
-3.52028e-06
0.000435104
0.000406326
0.00037417
0.000338583
0.000299878
0.000258966
0.000216931
0.000174784
0.000133405
9.35513e-05
5.58427e-05
2.0757e-05
-1.13754e-05
-4.03634e-05
-6.61386e-05
-8.87359e-05
-0.000108271
-0.00012492
-0.000138897
-0.00015044
-0.000159794
-0.000167202
-0.000172895
-0.000177089
-0.000179981
-0.000181748
-0.000182548
-0.00018252
-0.000181787
-0.000180455
-0.000178617
-0.000176354
-0.000173736
-0.000170823
-0.000167669
-0.000164321
-0.000160817
-0.000157193
-0.00015348
-0.000149703
-0.000145886
-0.000142048
-0.000138206
-0.000134376
-0.000130569
-0.000126797
-0.000123069
-0.000119393
-0.000115775
-0.00011222
-0.000108733
-0.000105317
-0.000101976
-9.87114e-05
-9.55243e-05
-9.24159e-05
-8.93867e-05
-8.64368e-05
-8.35658e-05
-8.07731e-05
-7.80578e-05
-7.54187e-05
-7.28543e-05
-7.03631e-05
-6.79431e-05
-6.55925e-05
-6.33091e-05
-6.10905e-05
-5.89345e-05
-5.68384e-05
-5.47996e-05
-5.28154e-05
-5.08829e-05
-4.8999e-05
-4.71608e-05
-4.5365e-05
-4.36084e-05
-4.18874e-05
-4.01985e-05
-3.85381e-05
-3.69023e-05
-3.52872e-05
-3.36886e-05
-3.21021e-05
-3.05235e-05
-2.8948e-05
-2.73708e-05
-2.5787e-05
-2.41916e-05
-2.25794e-05
-2.09455e-05
-1.92847e-05
-1.75922e-05
-1.58625e-05
-1.4088e-05
-1.22545e-05
-1.03303e-05
-8.24369e-06
-5.84906e-06
-2.9159e-06
0.000396007
0.000370354
0.000341945
0.000310657
0.000276676
0.000240713
0.000203648
0.000166318
0.000129462
9.37315e-05
5.96747e-05
2.77292e-05
-1.78521e-06
-2.86634e-05
-5.28042e-05
-7.41961e-05
-9.29009e-05
-0.000109037
-0.000122764
-0.000134266
-0.000143741
-0.000151392
-0.000157415
-0.000161999
-0.000165319
-0.000167537
-0.000168797
-0.000169231
-0.000168954
-0.000168068
-0.000166663
-0.00016482
-0.000162607
-0.000160085
-0.000157307
-0.00015432
-0.000151164
-0.000147875
-0.000144483
-0.000141016
-0.000137496
-0.000133945
-0.00013038
-0.000126816
-0.000123267
-0.000119743
-0.000116254
-0.000112809
-0.000109413
-0.000106074
-0.000102795
-9.95808e-05
-9.64338e-05
-9.33567e-05
-9.03511e-05
-8.74181e-05
-8.45585e-05
-8.17725e-05
-7.906e-05
-7.64205e-05
-7.38534e-05
-7.13576e-05
-6.89319e-05
-6.65748e-05
-6.42847e-05
-6.20598e-05
-5.98981e-05
-5.77974e-05
-5.57556e-05
-5.37704e-05
-5.18391e-05
-4.99593e-05
-4.81282e-05
-4.63431e-05
-4.4601e-05
-4.2899e-05
-4.12338e-05
-3.96024e-05
-3.80012e-05
-3.64268e-05
-3.48757e-05
-3.3344e-05
-3.18278e-05
-3.03231e-05
-2.88257e-05
-2.7331e-05
-2.58346e-05
-2.43318e-05
-2.28177e-05
-2.12873e-05
-1.97355e-05
-1.81569e-05
-1.65458e-05
-1.48953e-05
-1.3195e-05
-1.14275e-05
-9.55886e-06
-7.52383e-06
-5.20999e-06
-2.47404e-06
0.000359097
0.000336283
0.000311223
0.000283752
0.000253967
0.000222424
0.000189835
0.000156888
0.0001242
9.23245e-05
6.17395e-05
3.28391e-05
5.92362e-06
-1.87991e-05
-4.12081e-05
-6.1259e-05
-7.89725e-05
-9.44217e-05
-0.000107719
-0.000119004
-0.000128433
-0.000136171
-0.000142384
-0.000147234
-0.000150874
-0.000153448
-0.000155088
-0.000155914
-0.000156035
-0.000155547
-0.000154537
-0.000153082
-0.000151248
-0.000149095
-0.000146677
-0.000144039
-0.000141221
-0.000138259
-0.000135185
-0.000132025
-0.000128803
-0.00012554
-0.000122254
-0.000118959
-0.000115671
-0.000112399
-0.000109155
-0.000105946
-0.00010278
-9.9662e-05
-9.65978e-05
-9.35912e-05
-9.06453e-05
-8.77627e-05
-8.49454e-05
-8.21946e-05
-7.95114e-05
-7.68961e-05
-7.43488e-05
-7.18692e-05
-6.94569e-05
-6.71109e-05
-6.48301e-05
-6.26134e-05
-6.04592e-05
-5.83659e-05
-5.63316e-05
-5.43546e-05
-5.24327e-05
-5.05637e-05
-4.87453e-05
-4.69751e-05
-4.52506e-05
-4.35692e-05
-4.19282e-05
-4.03247e-05
-3.87558e-05
-3.72185e-05
-3.57096e-05
-3.42259e-05
-3.27639e-05
-3.13201e-05
-2.98908e-05
-2.84722e-05
-2.70603e-05
-2.56509e-05
-2.42397e-05
-2.28222e-05
-2.13938e-05
-1.99494e-05
-1.84841e-05
-1.69922e-05
-1.54674e-05
-1.39015e-05
-1.22829e-05
-1.05927e-05
-8.79841e-06
-6.84502e-06
-4.65121e-06
-2.13516e-06
0.000317531
0.000297801
0.000276312
0.000252882
0.000227533
0.000200677
0.000172868
0.000144644
0.000116497
8.88792e-05
6.21896e-05
3.67691e-05
1.28888e-05
-9.25081e-06
-2.95178e-05
-4.78429e-05
-6.42116e-05
-7.86553e-05
-9.12421e-05
-0.000102067
-0.000111246
-0.000118903
-0.000125171
-0.000130181
-0.000134062
-0.000136937
-0.000138923
-0.000140124
-0.000140641
-0.00014056
-0.000139964
-0.000138923
-0.000137502
-0.000135759
-0.000133743
-0.0001315
-0.00012907
-0.000126487
-0.000123783
-0.000120983
-0.000118112
-0.000115191
-0.000112237
-0.000109265
-0.000106291
-0.000103325
-0.000100376
-9.74552e-05
-9.45681e-05
-9.17212e-05
-8.89197e-05
-8.61679e-05
-8.3469e-05
-8.08259e-05
-7.82407e-05
-7.57149e-05
-7.32496e-05
-7.08454e-05
-6.85027e-05
-6.62212e-05
-6.40007e-05
-6.18406e-05
-5.97398e-05
-5.76975e-05
-5.57122e-05
-5.37826e-05
-5.19071e-05
-5.00839e-05
-4.83112e-05
-4.6587e-05
-4.49093e-05
-4.32758e-05
-4.16842e-05
-4.01322e-05
-3.86172e-05
-3.71368e-05
-3.56881e-05
-3.42684e-05
-3.28748e-05
-3.15042e-05
-3.01536e-05
-2.88197e-05
-2.7499e-05
-2.6188e-05
-2.48831e-05
-2.35804e-05
-2.22757e-05
-2.0965e-05
-1.96437e-05
-1.83072e-05
-1.69502e-05
-1.55671e-05
-1.41509e-05
-1.26931e-05
-1.11812e-05
-9.59679e-06
-7.91158e-06
-6.08416e-06
-4.06411e-06
-1.81393e-06
0.000271391
0.000254908
0.000237107
0.000217805
0.000196977
0.000174914
0.000152028
0.000128721
0.000105369
8.23195e-05
5.98907e-05
3.83618e-05
1.79641e-05
-1.12208e-06
-1.87668e-05
-3.48883e-05
-4.94482e-05
-6.24461e-05
-7.39132e-05
-8.3906e-05
-9.24999e-05
-9.97835e-05
-0.000105854
-0.000110811
-0.000114758
-0.000117793
-0.000120012
-0.000121505
-0.000122358
-0.000122646
-0.000122443
-0.000121812
-0.000120813
-0.000119497
-0.000117913
-0.000116102
-0.000114102
-0.000111946
-0.000109663
-0.00010728
-0.000104818
-0.000102299
-9.97385e-05
-9.71533e-05
-9.45561e-05
-9.19584e-05
-8.93701e-05
-8.67998e-05
-8.42546e-05
-8.17408e-05
-7.92634e-05
-7.68267e-05
-7.44343e-05
-7.2089e-05
-6.97931e-05
-6.75481e-05
-6.53554e-05
-6.32157e-05
-6.11295e-05
-5.90969e-05
-5.71177e-05
-5.51915e-05
-5.33177e-05
-5.14953e-05
-4.97233e-05
-4.80005e-05
-4.63256e-05
-4.46971e-05
-4.31133e-05
-4.15725e-05
-4.0073e-05
-3.86128e-05
-3.71898e-05
-3.58019e-05
-3.4447e-05
-3.31228e-05
-3.18268e-05
-3.05565e-05
-2.93095e-05
-2.80829e-05
-2.6874e-05
-2.56798e-05
-2.44974e-05
-2.33235e-05
-2.21548e-05
-2.09879e-05
-1.9819e-05
-1.86443e-05
-1.74596e-05
-1.62605e-05
-1.5042e-05
-1.37985e-05
-1.2523e-05
-1.12069e-05
-9.83866e-06
-8.40219e-06
-6.87583e-06
-5.23238e-06
-3.44586e-06
-1.50681e-06
0.000225043
0.000211682
0.000197363
0.000181916
0.00016529
0.000147687
0.000129402
0.00011073
9.19444e-05
7.33048e-05
5.50547e-05
3.74129e-05
2.05674e-05
4.6713e-06
-1.01577e-05
-2.38371e-05
-3.6317e-05
-4.75772e-05
-5.76234e-05
-6.64827e-05
-7.41996e-05
-8.08318e-05
-8.64459e-05
-9.11148e-05
-9.49142e-05
-9.79206e-05
-0.000100209
-0.000101853
-0.000102922
-0.00010348
-0.000103589
-0.000103304
-0.000102676
-0.000101752
-0.000100574
-9.9179e-05
-9.7602e-05
-9.58729e-05
-9.40186e-05
-9.20631e-05
-9.00275e-05
-8.79303e-05
-8.5788e-05
-8.36148e-05
-8.14233e-05
-7.92243e-05
-7.70272e-05
-7.48401e-05
-7.26699e-05
-7.05226e-05
-6.84031e-05
-6.63155e-05
-6.42634e-05
-6.22495e-05
-6.02762e-05
-5.8345e-05
-5.64574e-05
-5.46142e-05
-5.28161e-05
-5.10632e-05
-4.93555e-05
-4.76929e-05
-4.60748e-05
-4.45006e-05
-4.29695e-05
-4.14805e-05
-4.00325e-05
-3.86242e-05
-3.72543e-05
-3.59214e-05
-3.46238e-05
-3.33601e-05
-3.21284e-05
-3.09269e-05
-2.97538e-05
-2.8607e-05
-2.74846e-05
-2.63843e-05
-2.5304e-05
-2.42412e-05