/*--------------------------------*- C++ -*----------------------------------*\
| =========                 |                                                 |
| \\      /  F ield         | OpenFOAM: The Open Source CFD Toolbox           |
|  \\    /   O peration     | Version:  2.3.0                                 |
|   \\  /    A nd           | Web:      www.OpenFOAM.org                      |
|    \\/     M anipulation  |                                                 |
\*---------------------------------------------------------------------------*/
FoamFile
{
    version     2.0;
    format      ascii;
    class       volVectorField;
    location    "0.7";
    object      U;
}
// * * * * * * * * * * * * * * * * * * * * * * * * * * * * * * * * * * * * * //

dimensions      [0 1 -1 0 0 0 0];

internalField   nonuniform List<vector> 
3105
(
(0.17153 0.0058455 0)
(0.154904 0.00598856 0)
(0.139083 0.00560995 0)
(0.124078 0.00502393 0)
(0.110268 0.00436655 0)
(0.0978509 0.00369685 0)
(0.0868533 0.00305251 0)
(0.0772443 0.00245969 0)
(0.0689676 0.00193466 0)
(0.0619382 0.00148577 0)
(0.0560427 0.00111503 0)
(0.0511475 0.000819121 0)
(0.0471108 0.000590715 0)
(0.0437921 0.000420046 0)
(0.04106 0.000296489 0)
(0.0387976 0.00020979 0)
(0.0369049 0.000150831 0)
(0.0352999 0.000111993 0)
(0.0339172 8.72093e-05 0)
(0.0327065 7.18555e-05 0)
(0.0316296 6.25513e-05 0)
(0.0306584 5.69307e-05 0)
(0.0297723 5.34133e-05 0)
(0.0289564 5.09987e-05 0)
(0.0281996 4.90924e-05 0)
(0.0274939 4.73692e-05 0)
(0.026833 4.5673e-05 0)
(0.0262121 4.39456e-05 0)
(0.0256273 4.21813e-05 0)
(0.0250754 4.03982e-05 0)
(0.0245534 3.86215e-05 0)
(0.0240591 3.68759e-05 0)
(0.02359 3.51808e-05 0)
(0.0231444 3.35506e-05 0)
(0.0227203 3.19939e-05 0)
(0.0223163 3.05153e-05 0)
(0.0219307 2.9116e-05 0)
(0.0215624 2.7795e-05 0)
(0.0212101 2.65498e-05 0)
(0.0208727 2.53769e-05 0)
(0.0205493 2.42724e-05 0)
(0.0202389 2.32321e-05 0)
(0.0199407 2.2252e-05 0)
(0.0196539 2.1328e-05 0)
(0.0193779 2.04565e-05 0)
(0.0191121 1.96337e-05 0)
(0.0188558 1.88564e-05 0)
(0.0186085 1.81216e-05 0)
(0.0183697 1.74262e-05 0)
(0.018139 1.67678e-05 0)
(0.017916 1.61439e-05 0)
(0.0177001 1.55522e-05 0)
(0.0174912 1.49906e-05 0)
(0.0172887 1.44572e-05 0)
(0.0170925 1.39502e-05 0)
(0.0169022 1.3468e-05 0)
(0.0167175 1.3009e-05 0)
(0.0165382 1.25717e-05 0)
(0.0163641 1.2155e-05 0)
(0.0161948 1.17574e-05 0)
(0.0160302 1.1378e-05 0)
(0.0158702 1.10155e-05 0)
(0.0157144 1.06691e-05 0)
(0.0155627 1.03377e-05 0)
(0.015415 1.00207e-05 0)
(0.0152711 9.71707e-06 0)
(0.0151308 9.42617e-06 0)
(0.0149941 9.14734e-06 0)
(0.0148607 8.8799e-06 0)
(0.0147306 8.62328e-06 0)
(0.0146036 8.37698e-06 0)
(0.0144797 8.14046e-06 0)
(0.0143587 7.91331e-06 0)
(0.0142404 7.69509e-06 0)
(0.014125 7.48544e-06 0)
(0.0140121 7.28403e-06 0)
(0.0139018 7.09055e-06 0)
(0.0137939 6.90476e-06 0)
(0.0136885 6.72644e-06 0)
(0.0135853 6.55538e-06 0)
(0.0134844 6.39147e-06 0)
(0.0133856 6.23458e-06 0)
(0.0132889 6.08465e-06 0)
(0.0131942 5.94165e-06 0)
(0.0131015 5.80563e-06 0)
(0.0130106 5.67664e-06 0)
(0.0129215 5.55486e-06 0)
(0.0128341 5.44046e-06 0)
(0.0127484 5.33381e-06 0)
(0.0126642 5.23536e-06 0)
(0.0125815 5.14573e-06 0)
(0.0125001 5.06598e-06 0)
(0.0124199 4.99772e-06 0)
(0.0123409 4.94374e-06 0)
(0.0122628 4.9095e-06 0)
(0.0121853 4.90704e-06 0)
(0.0121079 4.97092e-06 0)
(0.0120291 5.12917e-06 0)
(0.0119608 4.79385e-06 0)
(0.0117493 2.9618e-05 0)
(0.190556 0.00926519 0)
(0.188183 0.00988414 0)
(0.184294 0.00972207 0)
(0.179166 0.00924373 0)
(0.173268 0.00861829 0)
(0.166957 0.00790108 0)
(0.160461 0.00713044 0)
(0.15395 0.00634155 0)
(0.147558 0.00556443 0)
(0.141385 0.00482374 0)
(0.1355 0.00413876 0)
(0.129944 0.00352286 0)
(0.124737 0.00298321 0)
(0.119883 0.00252125 0)
(0.115375 0.0021337 0)
(0.111197 0.00181394 0)
(0.107331 0.00155338 0)
(0.103752 0.0013427 0)
(0.100439 0.00117285 0)
(0.0973677 0.0010356 0)
(0.0945156 0.000923939 0)
(0.091862 0.000832119 0)
(0.0893878 0.000755602 0)
(0.0870757 0.000690901 0)
(0.0849102 0.000635394 0)
(0.0828773 0.000587135 0)
(0.0809648 0.000544687 0)
(0.0791619 0.000506986 0)
(0.0774588 0.000473238 0)
(0.0758469 0.000442839 0)
(0.0743188 0.000415318 0)
(0.0728675 0.000390301 0)
(0.0714871 0.000367481 0)
(0.0701722 0.000346601 0)
(0.0689178 0.000327445 0)
(0.0677197 0.000309824 0)
(0.0665738 0.000293577 0)
(0.0654766 0.000278561 0)
(0.0644249 0.000264653 0)
(0.0634158 0.000251742 0)
(0.0624465 0.000239733 0)
(0.0615146 0.000228541 0)
(0.0606178 0.000218092 0)
(0.0597542 0.00020832 0)
(0.0589218 0.000199165 0)
(0.0581188 0.000190575 0)
(0.0573437 0.000182505 0)
(0.056595 0.000174912 0)
(0.0558712 0.000167759 0)
(0.0551711 0.000161012 0)
(0.0544936 0.000154641 0)
(0.0538374 0.000148619 0)
(0.0532016 0.00014292 0)
(0.0525852 0.000137521 0)
(0.0519873 0.000132403 0)
(0.051407 0.000127545 0)
(0.0508435 0.00012293 0)
(0.0502962 0.000118543 0)
(0.0497642 0.000114368 0)
(0.049247 0.000110391 0)
(0.0487439 0.000106601 0)
(0.0482544 0.000102985 0)
(0.0477779 9.95331e-05 0)
(0.0473139 9.62346e-05 0)
(0.0468618 9.30806e-05 0)
(0.0464214 9.00624e-05 0)
(0.0459921 8.7172e-05 0)
(0.0455735 8.44021e-05 0)
(0.0451652 8.17457e-05 0)
(0.0447669 7.91966e-05 0)
(0.0443783 7.67488e-05 0)
(0.0439989 7.43968e-05 0)
(0.0436286 7.21357e-05 0)
(0.0432671 6.99607e-05 0)
(0.0429139 6.78675e-05 0)
(0.042569 6.58522e-05 0)
(0.042232 6.39113e-05 0)
(0.0419028 6.20414e-05 0)
(0.041581 6.02396e-05 0)
(0.0412665 5.85034e-05 0)
(0.040959 5.68303e-05 0)
(0.0406585 5.52185e-05 0)
(0.0403646 5.36663e-05 0)
(0.0400771 5.21725e-05 0)
(0.039796 5.0736e-05 0)
(0.039521 4.93564e-05 0)
(0.0392518 4.80335e-05 0)
(0.0389885 4.67679e-05 0)
(0.0387306 4.55605e-05 0)
(0.038478 4.44134e-05 0)
(0.0382306 4.33296e-05 0)
(0.037988 4.23143e-05 0)
(0.03775 4.13761e-05 0)
(0.0375163 4.053e-05 0)
(0.0372864 3.98063e-05 0)
(0.0370598 3.92742e-05 0)
(0.0368354 3.91142e-05 0)
(0.03661 3.97698e-05 0)
(0.0363978 4.44374e-05 0)
(0.0359727 0.000102688 0)
(0.193531 0.00893236 0)
(0.194274 0.00995607 0)
(0.194423 0.0103415 0)
(0.193799 0.010368 0)
(0.192487 0.0101576 0)
(0.190605 0.00975617 0)
(0.188248 0.00920763 0)
(0.185503 0.00856094 0)
(0.18246 0.00786175 0)
(0.179207 0.00714901 0)
(0.175821 0.00645403 0)
(0.172364 0.00579991 0)
(0.168889 0.00520145 0)
(0.165435 0.00466594 0)
(0.162031 0.00419458 0)
(0.158699 0.00378421 0)
(0.155451 0.00342903 0)
(0.152295 0.00312204 0)
(0.149236 0.00285609 0)
(0.146276 0.00262453 0)
(0.143414 0.00242155 0)
(0.140648 0.00224231 0)
(0.137977 0.00208285 0)
(0.135399 0.00194002 0)
(0.13291 0.00181131 0)
(0.130508 0.00169474 0)
(0.128189 0.00158871 0)
(0.125951 0.00149193 0)
(0.123792 0.00140333 0)
(0.121707 0.00132202 0)
(0.119695 0.00124724 0)
(0.117752 0.00117832 0)
(0.115875 0.00111469 0)
(0.114063 0.00105584 0)
(0.112312 0.00100132 0)
(0.110619 0.000950725 0)
(0.108983 0.000903696 0)
(0.107401 0.000859913 0)
(0.10587 0.000819088 0)
(0.104389 0.000780962 0)
(0.102955 0.000745305 0)
(0.101566 0.000711908 0)
(0.10022 0.000680586 0)
(0.0989155 0.000651171 0)
(0.0976508 0.00062351 0)
(0.096424 0.000597468 0)
(0.0952337 0.000572922 0)
(0.0940781 0.000549759 0)
(0.092956 0.000527877 0)
(0.091866 0.000507185 0)
(0.0908066 0.000487598 0)
(0.0897768 0.00046904 0)
(0.0887753 0.00045144 0)
(0.087801 0.000434733 0)
(0.0868529 0.00041886 0)
(0.0859299 0.000403767 0)
(0.0850311 0.000389403 0)
(0.0841556 0.000375722 0)
(0.0833025 0.000362681 0)
(0.082471 0.000350241 0)
(0.0816604 0.000338364 0)
(0.0808698 0.000327016 0)
(0.0800986 0.000316166 0)
(0.0793462 0.000305784 0)
(0.0786119 0.000295842 0)
(0.077895 0.000286314 0)
(0.0771951 0.000277178 0)
(0.0765115 0.000268411 0)
(0.0758439 0.000259992 0)
(0.0751916 0.000251901 0)
(0.0745542 0.000244121 0)
(0.0739314 0.000236635 0)
(0.0733226 0.000229428 0)
(0.0727275 0.000222485 0)
(0.0721456 0.000215792 0)
(0.0715768 0.000209338 0)
(0.0710205 0.00020311 0)
(0.0704765 0.000197099 0)
(0.0699445 0.000191295 0)
(0.0694242 0.00018569 0)
(0.0689152 0.000180275 0)
(0.0684174 0.000175043 0)
(0.0679304 0.00016999 0)
(0.067454 0.00016511 0)
(0.066988 0.0001604 0)
(0.066532 0.000155855 0)
(0.0660859 0.000151476 0)
(0.0656494 0.000147262 0)
(0.0652222 0.000143215 0)
(0.0648041 0.000139337 0)
(0.0643948 0.000135637 0)
(0.0639939 0.000132126 0)
(0.0636012 0.000128824 0)
(0.0632161 0.000125767 0)
(0.0628383 0.000123027 0)
(0.0624668 0.000120772 0)
(0.0621005 0.000119434 0)
(0.061736 0.000120375 0)
(0.0613819 0.000133244 0)
(0.0608288 0.000206006 0)
(0.194567 0.00831351 0)
(0.195676 0.00939811 0)
(0.196709 0.00999385 0)
(0.197446 0.0102588 0)
(0.197847 0.010285 0)
(0.197913 0.0101112 0)
(0.197644 0.00977276 0)
(0.197043 0.0093114 0)
(0.196136 0.00876885 0)
(0.194956 0.00818264 0)
(0.193546 0.00758469 0)
(0.191947 0.00700034 0)
(0.1902 0.00644778 0)
(0.18834 0.00593829 0)
(0.1864 0.00547713 0)
(0.184403 0.00506495 0)
(0.182372 0.00469927 0)
(0.180319 0.00437571 0)
(0.178258 0.00408911 0)
(0.176197 0.00383422 0)
(0.174141 0.00360617 0)
(0.172096 0.00340067 0)
(0.170065 0.00321414 0)
(0.168051 0.00304363 0)
(0.166056 0.00288678 0)
(0.164083 0.00274173 0)
(0.162134 0.00260699 0)
(0.160209 0.00248138 0)
(0.15831 0.00236396 0)
(0.156438 0.00225393 0)
(0.154595 0.00215066 0)
(0.152781 0.00205358 0)
(0.150996 0.00196221 0)
(0.149242 0.00187613 0)
(0.147519 0.00179494 0)
(0.145827 0.00171831 0)
(0.144166 0.00164592 0)
(0.142536 0.00157749 0)
(0.140938 0.00151274 0)
(0.13937 0.00145144 0)
(0.137834 0.00139336 0)
(0.136328 0.0013383 0)
(0.134852 0.00128605 0)
(0.133406 0.00123646 0)
(0.13199 0.00118935 0)
(0.130603 0.00114456 0)
(0.129245 0.00110197 0)
(0.127915 0.00106143 0)
(0.126612 0.00102283 0)
(0.125336 0.000986056 0)
(0.124087 0.000950992 0)
(0.122864 0.000917546 0)
(0.121667 0.000885622 0)
(0.120494 0.000855136 0)
(0.119346 0.000826007 0)
(0.118221 0.000798157 0)
(0.117119 0.000771516 0)
(0.116041 0.000746017 0)
(0.114984 0.000721598 0)
(0.113949 0.000698199 0)
(0.112935 0.000675765 0)
(0.111942 0.000654243 0)
(0.110969 0.000633586 0)
(0.110015 0.000613746 0)
(0.109081 0.00059468 0)
(0.108166 0.000576348 0)
(0.107269 0.00055871 0)
(0.10639 0.00054173 0)
(0.105528 0.000525375 0)
(0.104684 0.000509612 0)
(0.103856 0.000494412 0)
(0.103044 0.000479745 0)
(0.102249 0.000465585 0)
(0.10147 0.000451907 0)
(0.100705 0.000438689 0)
(0.0999565 0.000425907 0)
(0.0992223 0.000413543 0)
(0.0985026 0.000401577 0)
(0.0977972 0.000389993 0)
(0.0971058 0.000378775 0)
(0.0964282 0.000367908 0)
(0.0957641 0.000357381 0)
(0.0951133 0.000347182 0)
(0.0944755 0.000337302 0)
(0.0938506 0.000327733 0)
(0.0932382 0.00031847 0)
(0.0926383 0.000309508 0)
(0.0920505 0.000300848 0)
(0.0914745 0.000292491 0)
(0.0909103 0.000284442 0)
(0.0903574 0.000276712 0)
(0.0898156 0.000269321 0)
(0.0892845 0.000262301 0)
(0.0887638 0.000255711 0)
(0.0882529 0.000249673 0)
(0.087751 0.000244459 0)
(0.0872569 0.000240789 0)
(0.0867679 0.000241054 0)
(0.0862901 0.000257793 0)
(0.0856441 0.000327897 0)
(0.195304 0.00782316 0)
(0.196281 0.00882556 0)
(0.197339 0.00944813 0)
(0.198316 0.00978505 0)
(0.199157 0.00990998 0)
(0.199842 0.0098578 0)
(0.200346 0.00965536 0)
(0.200646 0.00933404 0)
(0.200735 0.00892704 0)
(0.200615 0.00846575 0)
(0.2003 0.00797812 0)
(0.199809 0.00748758 0)
(0.199165 0.00701216 0)
(0.198391 0.00656423 0)
(0.19751 0.00615095 0)
(0.196541 0.00577516 0)
(0.1955 0.00543653 0)
(0.194402 0.00513266 0)
(0.193258 0.00486 0)
(0.192075 0.00461459 0)
(0.19086 0.00439253 0)
(0.189618 0.00419025 0)
(0.188353 0.0040047 0)
(0.187068 0.00383331 0)
(0.185766 0.00367401 0)
(0.18445 0.00352512 0)
(0.183121 0.00338534 0)
(0.181783 0.0032536 0)
(0.180436 0.00312908 0)
(0.179084 0.00301109 0)
(0.177727 0.00289906 0)
(0.176367 0.00279253 0)
(0.175006 0.00269109 0)
(0.173646 0.00259439 0)
(0.172288 0.00250212 0)
(0.170933 0.00241399 0)
(0.169583 0.00232976 0)
(0.168238 0.0022492 0)
(0.1669 0.00217209 0)
(0.165569 0.00209826 0)
(0.164247 0.00202751 0)
(0.162935 0.0019597 0)
(0.161632 0.00189466 0)
(0.160341 0.00183227 0)
(0.15906 0.00177238 0)
(0.157792 0.00171488 0)
(0.156536 0.00165965 0)
(0.155293 0.00160659 0)
(0.154063 0.0015556 0)
(0.152846 0.00150657 0)
(0.151643 0.00145942 0)
(0.150454 0.00141407 0)
(0.149279 0.00137043 0)
(0.148119 0.00132842 0)
(0.146973 0.00128798 0)
(0.145842 0.00124903 0)
(0.144725 0.00121151 0)
(0.143623 0.00117535 0)
(0.142536 0.00114049 0)
(0.141463 0.00110687 0)
(0.140405 0.00107445 0)
(0.139362 0.00104315 0)
(0.138333 0.00101294 0)
(0.137319 0.000983766 0)
(0.13632 0.000955578 0)
(0.135335 0.000928334 0)
(0.134364 0.000901992 0)
(0.133408 0.000876511 0)
(0.132466 0.000851852 0)
(0.131538 0.000827979 0)
(0.130624 0.000804856 0)
(0.129723 0.000782449 0)
(0.128837 0.000760728 0)
(0.127964 0.000739663 0)
(0.127105 0.000719224 0)
(0.12626 0.000699386 0)
(0.125427 0.000680123 0)
(0.124609 0.000661413 0)
(0.123803 0.000643233 0)
(0.123011 0.000625565 0)
(0.122231 0.000608389 0)
(0.121465 0.00059169 0)
(0.120711 0.000575454 0)
(0.11997 0.000559669 0)
(0.119242 0.000544325 0)
(0.118526 0.000529415 0)
(0.117823 0.000514935 0)
(0.117132 0.000500885 0)
(0.116453 0.000487267 0)
(0.115787 0.00047409 0)
(0.115132 0.000461371 0)
(0.114489 0.000449137 0)
(0.113857 0.000437434 0)
(0.113237 0.000426348 0)
(0.112627 0.000416046 0)
(0.112027 0.0004069 0)
(0.111437 0.00039988 0)
(0.110854 0.000398062 0)
(0.110286 0.000413384 0)
(0.109577 0.000468434 0)
(0.195932 0.00739724 0)
(0.196741 0.00828782 0)
(0.197666 0.00888838 0)
(0.198589 0.00924803 0)
(0.199461 0.00941991 0)
(0.200257 0.00943427 0)
(0.200954 0.00931354 0)
(0.201531 0.00908294 0)
(0.201972 0.00876985 0)
(0.202272 0.00840087 0)
(0.202433 0.00800014 0)
(0.202462 0.00758838 0)
(0.202371 0.00718212 0)
(0.202174 0.00679331 0)
(0.201885 0.00642957 0)
(0.201518 0.00609474 0)
(0.201086 0.00578977 0)
(0.200597 0.00551355 0)
(0.20006 0.00526378 0)
(0.199482 0.00503752 0)
(0.198868 0.0048317 0)
(0.198222 0.0046434 0)
(0.197545 0.00447 0)
(0.196841 0.00430925 0)
(0.196111 0.00415929 0)
(0.195357 0.00401859 0)
(0.19458 0.00388594 0)
(0.193782 0.00376033 0)
(0.192964 0.00364099 0)
(0.192127 0.00352726 0)
(0.191272 0.00341864 0)
(0.190401 0.00331468 0)
(0.189515 0.00321501 0)
(0.188615 0.00311933 0)
(0.187702 0.00302737 0)
(0.186778 0.00293888 0)
(0.185843 0.00285366 0)
(0.184898 0.00277153 0)
(0.183945 0.0026923 0)
(0.182984 0.00261583 0)
(0.182017 0.00254199 0)
(0.181044 0.00247064 0)
(0.180066 0.00240167 0)
(0.179085 0.00233497 0)
(0.1781 0.00227045 0)
(0.177114 0.00220801 0)
(0.176125 0.00214757 0)
(0.175136 0.00208904 0)
(0.174147 0.00203237 0)
(0.173158 0.00197746 0)
(0.17217 0.00192426 0)
(0.171183 0.0018727 0)
(0.170199 0.00182273 0)
(0.169218 0.00177427 0)
(0.16824 0.00172729 0)
(0.167265 0.00168172 0)
(0.166295 0.00163752 0)
(0.165329 0.00159463 0)
(0.164367 0.001553 0)
(0.163411 0.0015126 0)
(0.162461 0.00147337 0)
(0.161516 0.00143527 0)
(0.160578 0.00139827 0)
(0.159646 0.00136231 0)
(0.158721 0.00132736 0)
(0.157802 0.00129339 0)
(0.156891 0.00126035 0)
(0.155987 0.00122821 0)
(0.155091 0.00119694 0)
(0.154203 0.0011665 0)
(0.153322 0.00113687 0)
(0.15245 0.001108 0)
(0.151586 0.00107988 0)
(0.150731 0.00105247 0)
(0.149884 0.00102574 0)
(0.149046 0.00099968 0)
(0.148217 0.000974257 0)
(0.147397 0.00094945 0)
(0.146587 0.000925238 0)
(0.145785 0.000901602 0)
(0.144993 0.000878525 0)
(0.14421 0.000855993 0)
(0.143437 0.000833992 0)
(0.142674 0.000812511 0)
(0.141921 0.000791542 0)
(0.141177 0.00077108 0)
(0.140443 0.000751124 0)
(0.139719 0.000731676 0)
(0.139005 0.000712744 0)
(0.138301 0.000694341 0)
(0.137608 0.000676493 0)
(0.136924 0.000659236 0)
(0.13625 0.000642634 0)
(0.135585 0.000626794 0)
(0.13493 0.000611924 0)
(0.134285 0.000598471 0)
(0.133648 0.000587537 0)
(0.133019 0.000582243 0)
(0.132409 0.0005917 0)
(0.131678 0.000624198 0)
(0.196482 0.00703011 0)
(0.197155 0.0078139 0)
(0.197942 0.00837789 0)
(0.198759 0.00874063 0)
(0.199561 0.00893645 0)
(0.20032 0.00899026 0)
(0.201018 0.0089217 0)
(0.201635 0.00875214 0)
(0.202159 0.00850482 0)
(0.202583 0.00820271 0)
(0.202906 0.00786682 0)
(0.203132 0.00751546 0)
(0.203268 0.00716353 0)
(0.203323 0.00682224 0)
(0.203308 0.00649918 0)
(0.203232 0.00619869 0)
(0.203105 0.00592254 0)
(0.202934 0.00567057 0)
(0.202726 0.00544139 0)
(0.202487 0.0052329 0)
(0.202219 0.00504271 0)
(0.201925 0.00486841 0)
(0.201608 0.00470778 0)
(0.201268 0.00455884 0)
(0.200908 0.00441989 0)
(0.200527 0.00428952 0)
(0.200127 0.00416658 0)
(0.199707 0.00405012 0)
(0.199268 0.00393936 0)
(0.198812 0.00383367 0)
(0.198337 0.00373255 0)
(0.197846 0.00363556 0)
(0.197338 0.00354234 0)
(0.196813 0.00345259 0)
(0.196273 0.00336605 0)
(0.195719 0.00328249 0)
(0.195149 0.00320171 0)
(0.194566 0.00312353 0)
(0.19397 0.00304781 0)
(0.19336 0.0029744 0)
(0.192739 0.00290319 0)
(0.192106 0.00283405 0)
(0.191462 0.00276689 0)
(0.190808 0.00270162 0)
(0.190144 0.00263815 0)
(0.189471 0.00257641 0)
(0.188789 0.00251633 0)
(0.188098 0.00245785 0)
(0.187401 0.0024009 0)
(0.186696 0.00234543 0)
(0.185984 0.00229139 0)
(0.185266 0.00223873 0)
(0.184543 0.00218739 0)
(0.183815 0.00213735 0)
(0.183082 0.00208855 0)
(0.182344 0.00204096 0)
(0.181603 0.00199453 0)
(0.180859 0.00194923 0)
(0.180112 0.00190502 0)
(0.179363 0.00186187 0)
(0.178611 0.00181975 0)
(0.177858 0.00177861 0)
(0.177104 0.00173843 0)
(0.176349 0.00169918 0)
(0.175593 0.00166082 0)
(0.174838 0.00162333 0)
(0.174082 0.00158668 0)
(0.173327 0.00155084 0)
(0.172574 0.00151578 0)
(0.171821 0.00148147 0)
(0.17107 0.0014479 0)
(0.170321 0.00141503 0)
(0.169574 0.00138284 0)
(0.168829 0.00135131 0)
(0.168087 0.00132042 0)
(0.167349 0.00129015 0)
(0.166614 0.00126047 0)
(0.165882 0.00123137 0)
(0.165154 0.00120284 0)
(0.16443 0.00117485 0)
(0.163711 0.0011474 0)
(0.162996 0.00112047 0)
(0.162287 0.00109406 0)
(0.161582 0.00106816 0)
(0.160883 0.00104276 0)
(0.160189 0.00101786 0)
(0.159501 0.000993471 0)
(0.158819 0.000969599 0)
(0.158142 0.000946257 0)
(0.157473 0.000923467 0)
(0.156809 0.000901263 0)
(0.156152 0.000879695 0)
(0.155502 0.000858838 0)
(0.154858 0.000838823 0)
(0.154221 0.000819882 0)
(0.15359 0.000802491 0)
(0.152965 0.000787718 0)
(0.152349 0.000778125 0)
(0.151752 0.000779014 0)
(0.151049 0.000786542 0)
(0.196966 0.00671185 0)
(0.197533 0.00739927 0)
(0.198202 0.00791959 0)
(0.198916 0.00827376 0)
(0.199631 0.00848157 0)
(0.200323 0.00856204 0)
(0.200971 0.00853194 0)
(0.201559 0.00840919 0)
(0.202076 0.00821345 0)
(0.202516 0.0079644 0)
(0.202877 0.00768041 0)
(0.203162 0.00737767 0)
(0.203375 0.00706967 0)
(0.203524 0.00676687 0)
(0.203618 0.0064767 0)
(0.203663 0.00620385 0)
(0.203668 0.00595066 0)
(0.20364 0.00571774 0)
(0.203584 0.00550448 0)
(0.203505 0.00530949 0)
(0.203405 0.00513098 0)
(0.203288 0.00496706 0)
(0.203155 0.00481586 0)
(0.203008 0.00467567 0)
(0.202847 0.00454501 0)
(0.202672 0.00442257 0)
(0.202484 0.00430728 0)
(0.202284 0.00419823 0)
(0.202071 0.00409468 0)
(0.201845 0.00399601 0)
(0.201606 0.00390169 0)
(0.201356 0.0038113 0)
(0.201092 0.00372447 0)
(0.200817 0.00364088 0)
(0.200529 0.00356028 0)
(0.200229 0.00348243 0)
(0.199918 0.00340712 0)
(0.199594 0.00333418 0)
(0.199259 0.00326345 0)
(0.198913 0.00319479 0)
(0.198555 0.00312807 0)
(0.198186 0.00306319 0)
(0.197807 0.00300004 0)
(0.197417 0.00293853 0)
(0.197016 0.00287858 0)
(0.196605 0.00282012 0)
(0.196185 0.00276308 0)
(0.195754 0.0027074 0)
(0.195315 0.00265302 0)
(0.194866 0.00259989 0)
(0.194408 0.00254797 0)
(0.193942 0.0024972 0)
(0.193468 0.00244755 0)
(0.192985 0.00239897 0)
(0.192495 0.00235144 0)
(0.191997 0.00230491 0)
(0.191492 0.00225934 0)
(0.19098 0.00221472 0)
(0.190462 0.002171 0)
(0.189937 0.00212816 0)
(0.189406 0.00208616 0)
(0.18887 0.00204499 0)
(0.188328 0.0020046 0)
(0.187781 0.00196499 0)
(0.187229 0.00192611 0)
(0.186673 0.00188795 0)
(0.186113 0.00185049 0)
(0.185548 0.00181369 0)
(0.18498 0.00177754 0)
(0.184409 0.00174201 0)
(0.183835 0.00170709 0)
(0.183258 0.00167275 0)
(0.182678 0.00163897 0)
(0.182097 0.00160574 0)
(0.181513 0.00157303 0)
(0.180928 0.00154084 0)
(0.180342 0.00150914 0)
(0.179754 0.00147792 0)
(0.179166 0.00144717 0)
(0.178578 0.00141688 0)
(0.177989 0.00138704 0)
(0.177401 0.00135764 0)
(0.176813 0.00132867 0)
(0.176226 0.00130014 0)
(0.175639 0.00127205 0)
(0.175054 0.0012444 0)
(0.174471 0.0012172 0)
(0.173889 0.00119047 0)
(0.173309 0.00116422 0)
(0.172731 0.00113848 0)
(0.172155 0.00111331 0)
(0.171582 0.00108875 0)
(0.171012 0.00106491 0)
(0.170444 0.00104191 0)
(0.16988 0.00102 0)
(0.169318 0.000999626 0)
(0.168761 0.000981666 0)
(0.168209 0.000967751 0)
(0.167674 0.000959437 0)
(0.167046 0.000944379 0)
(0.197392 0.00643072 0)
(0.197877 0.00703314 0)
(0.198449 0.00750764 0)
(0.19907 0.00784652 0)
(0.199704 0.00805919 0)
(0.200325 0.00815894 0)
(0.200915 0.0081593 0)
(0.201459 0.00807506 0)
(0.201946 0.00792254 0)
(0.202369 0.0077185 0)
(0.202728 0.00747886 0)
(0.203022 0.00721793 0)
(0.203257 0.00694786 0)
(0.203437 0.00667835 0)
(0.203569 0.00641661 0)
(0.203661 0.00616748 0)
(0.203719 0.00593377 0)
(0.203749 0.00571669 0)
(0.203756 0.00551628 0)
(0.203745 0.00533178 0)
(0.203718 0.00516197 0)
(0.203679 0.00500543 0)
(0.203629 0.00486068 0)
(0.203569 0.00472628 0)
(0.2035 0.00460096 0)
(0.203423 0.00448357 0)
(0.203339 0.00437314 0)
(0.203247 0.00426882 0)
(0.203148 0.00416991 0)
(0.203041 0.00407581 0)
(0.202927 0.00398601 0)
(0.202806 0.0039001 0)
(0.202678 0.00381771 0)
(0.202542 0.00373851 0)
(0.202398 0.00366225 0)
(0.202247 0.00358869 0)
(0.202089 0.00351761 0)
(0.201923 0.00344884 0)
(0.201749 0.00338221 0)
(0.201567 0.00331757 0)
(0.201378 0.0032548 0)
(0.201181 0.00319379 0)
(0.200976 0.00313442 0)
(0.200763 0.00307659 0)
(0.200543 0.00302024 0)
(0.200315 0.00296527 0)
(0.200079 0.00291162 0)
(0.199835 0.00285922 0)
(0.199584 0.00280802 0)
(0.199325 0.00275795 0)
(0.199058 0.00270897 0)
(0.198784 0.00266103 0)
(0.198502 0.00261409 0)
(0.198213 0.00256811 0)
(0.197916 0.00252304 0)
(0.197613 0.00247885 0)
(0.197302 0.0024355 0)
(0.196984 0.00239297 0)
(0.196659 0.00235122 0)
(0.196327 0.00231022 0)
(0.195989 0.00226994 0)
(0.195644 0.00223036 0)
(0.195293 0.00219144 0)
(0.194935 0.00215317 0)
(0.194572 0.00211551 0)
(0.194202 0.00207845 0)
(0.193827 0.00204195 0)
(0.193446 0.002006 0)
(0.193059 0.00197058 0)
(0.192668 0.00193566 0)
(0.192271 0.00190123 0)
(0.191869 0.00186726 0)
(0.191463 0.00183373 0)
(0.191052 0.00180064 0)
(0.190636 0.00176796 0)
(0.190217 0.00173567 0)
(0.189794 0.00170378 0)
(0.189367 0.00167225 0)
(0.188936 0.00164109 0)
(0.188502 0.00161028 0)
(0.188066 0.00157982 0)
(0.187626 0.00154969 0)
(0.187184 0.00151991 0)
(0.186739 0.00149047 0)
(0.186293 0.00146137 0)
(0.185844 0.00143263 0)
(0.185394 0.00140426 0)
(0.184942 0.00137627 0)
(0.184489 0.00134869 0)
(0.184035 0.00132157 0)
(0.183579 0.00129494 0)
(0.183124 0.00126888 0)
(0.182667 0.00124348 0)
(0.18221 0.00121889 0)
(0.181753 0.00119533 0)
(0.181296 0.00117317 0)
(0.18084 0.00115299 0)
(0.180388 0.00113542 0)
(0.179949 0.00111906 0)
(0.179427 0.0010873 0)
(0.197769 0.00617849 0)
(0.198188 0.00670731 0)
(0.19868 0.00713717 0)
(0.19922 0.00745697 0)
(0.19978 0.00766933 0)
(0.200335 0.00778262 0)
(0.200869 0.0078072 0)
(0.201366 0.007755 0)
(0.201818 0.00763945 0)
(0.202217 0.00747461 0)
(0.202561 0.00727415 0)
(0.20285 0.00705058 0)
(0.203087 0.00681478 0)
(0.203277 0.00657566 0)
(0.203424 0.00634006 0)
(0.203534 0.00611286 0)
(0.203614 0.00589717 0)
(0.203668 0.00569467 0)
(0.203702 0.00550593 0)
(0.203719 0.00533073 0)
(0.203723 0.00516837 0)
(0.203716 0.00501785 0)
(0.2037 0.00487804 0)
(0.203676 0.00474782 0)
(0.203647 0.00462612 0)
(0.203612 0.00451197 0)
(0.203572 0.0044045 0)
(0.203528 0.00430297 0)
(0.203479 0.00420672 0)
(0.203426 0.00411521 0)
(0.20337 0.00402795 0)
(0.203309 0.00394455 0)
(0.203245 0.00386465 0)
(0.203177 0.00378795 0)
(0.203105 0.00371418 0)
(0.203029 0.00364311 0)
(0.202949 0.00357454 0)
(0.202864 0.00350828 0)
(0.202776 0.00344418 0)
(0.202684 0.00338208 0)
(0.202587 0.00332185 0)
(0.202486 0.00326338 0)
(0.202381 0.00320655 0)
(0.202271 0.00315128 0)
(0.202156 0.00309747 0)
(0.202037 0.00304505 0)
(0.201912 0.00299393 0)
(0.201783 0.00294405 0)
(0.20165 0.00289534 0)
(0.201511 0.00284776 0)
(0.201367 0.00280124 0)
(0.201218 0.00275573 0)
(0.201064 0.00271119 0)
(0.200904 0.00266757 0)
(0.20074 0.00262483 0)
(0.20057 0.00258292 0)
(0.200394 0.00254182 0)
(0.200214 0.00250149 0)
(0.200028 0.00246188 0)
(0.199836 0.00242298 0)
(0.19964 0.00238474 0)
(0.199438 0.00234713 0)
(0.19923 0.00231014 0)
(0.199017 0.00227372 0)
(0.198799 0.00223785 0)
(0.198576 0.00220251 0)
(0.198347 0.00216766 0)
(0.198113 0.0021333 0)
(0.197874 0.00209938 0)
(0.19763 0.0020659 0)
(0.19738 0.00203282 0)
(0.197126 0.00200013 0)
(0.196867 0.00196781 0)
(0.196603 0.00193584 0)
(0.196334 0.0019042 0)
(0.19606 0.00187288 0)
(0.195782 0.00184186 0)
(0.1955 0.00181113 0)
(0.195213 0.00178068 0)
(0.194922 0.0017505 0)
(0.194627 0.00172058 0)
(0.194327 0.00169092 0)
(0.194024 0.00166152 0)
(0.193718 0.00163238 0)
(0.193407 0.0016035 0)
(0.193093 0.0015749 0)
(0.192776 0.0015466 0)
(0.192455 0.0015186 0)
(0.192132 0.00149095 0)
(0.191805 0.00146368 0)
(0.191476 0.00143685 0)
(0.191144 0.00141052 0)
(0.190809 0.0013848 0)
(0.190472 0.00135982 0)
(0.190132 0.00133577 0)
(0.189791 0.00131292 0)
(0.189449 0.00129153 0)
(0.189108 0.00127137 0)
(0.188775 0.00124923 0)
(0.18837 0.00120815 0)
(0.198102 0.00594954 0)
(0.198467 0.00641521 0)
(0.198894 0.00680328 0)
(0.199364 0.00710214 0)
(0.199857 0.00731032 0)
(0.200353 0.00743242 0)
(0.200834 0.00747596 0)
(0.201287 0.00745034 0)
(0.201703 0.00736643 0)
(0.202075 0.0072359 0)
(0.202402 0.00707033 0)
(0.20268 0.00688057 0)
(0.202914 0.00667623 0)
(0.203105 0.0064654 0)
(0.203257 0.00625449 0)
(0.203376 0.0060483 0)
(0.203467 0.00585008 0)
(0.203534 0.00566186 0)
(0.203581 0.00548461 0)
(0.203612 0.00531858 0)
(0.20363 0.00516349 0)
(0.203637 0.00501873 0)
(0.203637 0.00488352 0)
(0.203629 0.004757 0)
(0.203616 0.00463833 0)
(0.203598 0.0045267 0)
(0.203577 0.00442138 0)
(0.203552 0.00432171 0)
(0.203524 0.00422713 0)
(0.203494 0.00413714 0)
(0.203461 0.00405129 0)
(0.203427 0.00396923 0)
(0.20339 0.00389061 0)
(0.203351 0.00381515 0)
(0.20331 0.00374261 0)
(0.203267 0.00367275 0)
(0.203223 0.0036054 0)
(0.203176 0.00354036 0)
(0.203128 0.00347748 0)
(0.203078 0.00341663 0)
(0.203026 0.00335767 0)
(0.202972 0.00330049 0)
(0.202916 0.00324498 0)
(0.202857 0.00319105 0)
(0.202797 0.00313861 0)
(0.202734 0.00308758 0)
(0.202669 0.00303788 0)
(0.202602 0.00298945 0)
(0.202532 0.00294222 0)
(0.202459 0.00289613 0)
(0.202384 0.00285113 0)
(0.202306 0.00280716 0)
(0.202225 0.00276418 0)
(0.202141 0.00272213 0)
(0.202055 0.00268097 0)
(0.201965 0.00264067 0)
(0.201872 0.00260117 0)
(0.201776 0.00256245 0)
(0.201676 0.00252446 0)
(0.201573 0.00248716 0)
(0.201467 0.00245054 0)
(0.201357 0.00241454 0)
(0.201244 0.00237914 0)
(0.201127 0.00234431 0)
(0.201006 0.00231002 0)
(0.200882 0.00227624 0)
(0.200754 0.00224294 0)
(0.200622 0.0022101 0)
(0.200486 0.00217768 0)
(0.200347 0.00214567 0)
(0.200203 0.00211404 0)
(0.200056 0.00208276 0)
(0.199904 0.00205182 0)
(0.199749 0.0020212 0)
(0.19959 0.00199087 0)
(0.199427 0.00196081 0)
(0.19926 0.00193102 0)
(0.199089 0.00190148 0)
(0.198915 0.00187217 0)
(0.198736 0.00184309 0)
(0.198553 0.00181422 0)
(0.198367 0.00178557 0)
(0.198177 0.00175712 0)
(0.197983 0.00172889 0)
(0.197786 0.00170087 0)
(0.197585 0.00167308 0)
(0.19738 0.00164553 0)
(0.197171 0.00161825 0)
(0.196959 0.00159126 0)
(0.196744 0.00156462 0)
(0.196525 0.00153836 0)
(0.196302 0.00151256 0)
(0.196077 0.00148732 0)
(0.195848 0.00146276 0)
(0.195616 0.00143902 0)
(0.195381 0.00141626 0)
(0.195144 0.00139448 0)
(0.194907 0.00137286 0)
(0.194673 0.00134756 0)
(0.194379 0.00130403 0)
(0.198397 0.00573991 0)
(0.198718 0.00615154 0)
(0.199089 0.00650148 0)
(0.199499 0.00677889 0)
(0.199934 0.00698023 0)
(0.200375 0.00710735 0)
(0.200807 0.0071654 0)
(0.201218 0.00716159 0)
(0.2016 0.00710458 0)
(0.201946 0.00700392 0)
(0.202253 0.00686932 0)
(0.202519 0.00671008 0)
(0.202746 0.00653461 0)
(0.202935 0.00635017 0)
(0.20309 0.00616269 0)
(0.203214 0.00597675 0)
(0.203311 0.00579568 0)
(0.203385 0.0056217 0)
(0.203441 0.00545611 0)
(0.20348 0.0052995 0)
(0.203507 0.00515197 0)
(0.203523 0.00501323 0)
(0.203531 0.00488282 0)
(0.203532 0.00476012 0)
(0.203527 0.00464451 0)
(0.203518 0.00453534 0)
(0.203505 0.00443202 0)
(0.203489 0.004334 0)
(0.20347 0.00424079 0)
(0.203449 0.00415194 0)
(0.203427 0.00406708 0)
(0.203402 0.00398585 0)
(0.203377 0.00390797 0)
(0.20335 0.00383317 0)
(0.203322 0.00376122 0)
(0.203293 0.00369191 0)
(0.203263 0.00362506 0)
(0.203233 0.00356051 0)
(0.203201 0.0034981 0)
(0.203169 0.00343772 0)
(0.203136 0.00337923 0)
(0.203103 0.00332252 0)
(0.203068 0.0032675 0)
(0.203033 0.00321407 0)
(0.202998 0.00316215 0)
(0.202961 0.00311167 0)
(0.202924 0.00306254 0)
(0.202885 0.0030147 0)
(0.202846 0.0029681 0)
(0.202806 0.00292266 0)
(0.202764 0.00287834 0)
(0.202722 0.00283509 0)
(0.202678 0.00279284 0)
(0.202633 0.00275157 0)
(0.202587 0.00271121 0)
(0.20254 0.00267174 0)
(0.202491 0.0026331 0)
(0.20244 0.00259526 0)
(0.202388 0.00255818 0)
(0.202334 0.00252182 0)
(0.202279 0.00248615 0)
(0.202221 0.00245114 0)
(0.202162 0.00241674 0)
(0.202101 0.00238293 0)
(0.202038 0.00234967 0)
(0.201973 0.00231694 0)
(0.201905 0.00228471 0)
(0.201835 0.00225294 0)
(0.201763 0.00222161 0)
(0.201689 0.00219069 0)
(0.201612 0.00216015 0)
(0.201533 0.00212998 0)
(0.201451 0.00210015 0)
(0.201367 0.00207063 0)
(0.20128 0.0020414 0)
(0.20119 0.00201245 0)
(0.201098 0.00198375 0)
(0.201002 0.00195529 0)
(0.200904 0.00192707 0)
(0.200804 0.00189905 0)
(0.2007 0.00187124 0)
(0.200593 0.00184363 0)
(0.200483 0.00181621 0)
(0.200371 0.00178899 0)
(0.200255 0.00176197 0)
(0.200136 0.00173517 0)
(0.200015 0.00170859 0)
(0.19989 0.00168225 0)
(0.199762 0.0016562 0)
(0.199631 0.00163047 0)
(0.199496 0.00160511 0)
(0.199359 0.00158019 0)
(0.199218 0.0015558 0)
(0.199074 0.00153203 0)
(0.198927 0.001509 0)
(0.198777 0.00148677 0)
(0.198625 0.00146513 0)
(0.198472 0.00144303 0)
(0.198318 0.00141686 0)