/*--------------------------------*- C++ -*----------------------------------*\
| =========                 |                                                 |
| \\      /  F ield         | OpenFOAM: The Open Source CFD Toolbox           |
|  \\    /   O peration     | Version:  2.3.0                                 |
|   \\  /    A nd           | Web:      www.OpenFOAM.org                      |
|    \\/     M anipulation  |                                                 |
\*---------------------------------------------------------------------------*/
FoamFile
{
    version     2.0;
    format      ascii;
    class       volVectorField;
    location    "0.65";
    object      U_0;
}
// * * * * * * * * * * * * * * * * * * * * * * * * * * * * * * * * * * * * * //

dimensions      [0 1 -1 0 0 0 0];

internalField   nonuniform List<vector> 
2250
(
(0.187411 0.00257276 1.69993e-06)
(0.178607 0.00352322 4.92385e-06)
(0.170598 0.0041513 7.41099e-06)
(0.162707 0.0043905 8.92106e-06)
(0.154548 0.00439031 9.73227e-06)
(0.146058 0.00429845 1.01626e-05)
(0.137341 0.0041922 1.03304e-05)
(0.128549 0.00408416 1.01516e-05)
(0.119809 0.00395785 9.46102e-06)
(0.111207 0.00379475 8.11912e-06)
(0.102812 0.0035851 6.0529e-06)
(0.09469 0.0033277 3.25394e-06)
(0.0869164 0.00302648 -2.31797e-07)
(0.0795761 0.00268691 -4.30549e-06)
(0.0727688 0.00231598 -8.80884e-06)
(0.0665648 0.00191759 -1.35242e-05)
(0.0610226 0.00150306 -1.81902e-05)
(0.0561761 0.00109315 -2.25324e-05)
(0.0520294 0.000713274 -2.63012e-05)
(0.0485544 0.000386213 -2.9309e-05)
(0.045695 0.000126025 -3.14566e-05)
(0.0433762 -6.40327e-05 -3.2742e-05)
(0.0415142 -0.000189504 -3.32485e-05)
(0.0400238 -0.00026057 -3.31174e-05)
(0.0388247 -0.000288687 -3.25161e-05)
(0.0378445 -0.000284574 -3.16105e-05)
(0.0370224 -0.000258739 -3.05443e-05)
(0.036311 -0.000221458 -2.94333e-05)
(0.0356736 -0.000179775 -2.83664e-05)
(0.0350811 -0.00013818 -2.7404e-05)
(0.0345142 -9.96721e-05 -2.65799e-05)
(0.0339593 -6.6019e-05 -2.59068e-05)
(0.0334098 -3.80055e-05 -2.53817e-05)
(0.0328621 -1.56091e-05 -2.49913e-05)
(0.0323165 1.57683e-06 -2.47167e-05)
(0.0317737 1.41949e-05 -2.45367e-05)
(0.0312367 2.28676e-05 -2.44293e-05)
(0.0307074 2.82578e-05 -2.4375e-05)
(0.0301886 3.13493e-05 -2.43568e-05)
(0.0296811 3.29226e-05 -2.43595e-05)
(0.0291878 3.34291e-05 -2.43696e-05)
(0.0287086 3.32841e-05 -2.43771e-05)
(0.0282461 3.26943e-05 -2.43742e-05)
(0.0277991 3.1865e-05 -2.43561e-05)
(0.0273695 3.08246e-05 -2.432e-05)
(0.0269554 2.96852e-05 -2.42651e-05)
(0.0265585 2.84218e-05 -2.41915e-05)
(0.026176 2.71379e-05 -2.41013e-05)
(0.0258097 2.57868e-05 -2.39964e-05)
(0.0254565 2.44717e-05 -2.38799e-05)
(0.0251181 2.3125e-05 -2.37545e-05)
(0.0247911 2.18511e-05 -2.36242e-05)
(0.0244778 2.05622e-05 -2.34915e-05)
(0.0241741 1.93703e-05 -2.33604e-05)
(0.0238831 1.81658e-05 -2.32331e-05)
(0.0236 1.70742e-05 -2.31133e-05)
(0.0233288 1.59646e-05 -2.30024e-05)
(0.0230641 1.49776e-05 -2.29036e-05)
(0.0228106 1.39629e-05 -2.28174e-05)
(0.0225622 1.30777e-05 -2.27468e-05)
(0.0223248 1.21481e-05 -2.2691e-05)
(0.0220913 1.13592e-05 -2.26528e-05)
(0.0218688 1.05046e-05 -2.26306e-05)
(0.0216489 9.80104e-06 -2.26267e-05)
(0.0214402 9.01035e-06 -2.26384e-05)
(0.021233 8.38234e-06 -2.26679e-05)
(0.0210375 7.64516e-06 -2.27109e-05)
(0.0208423 7.08638e-06 -2.27702e-05)
(0.0206594 6.38755e-06 -2.28393e-05)
(0.0204754 5.89216e-06 -2.29212e-05)
(0.0203049 5.22366e-06 -2.30076e-05)
(0.0201317 4.78429e-06 -2.31015e-05)
(0.0199733 4.13114e-06 -2.31915e-05)
(0.0198104 3.74274e-06 -2.32807e-05)
(0.019664 3.09128e-06 -2.33535e-05)
(0.019511 2.75327e-06 -2.34126e-05)
(0.0193766 2.08988e-06 -2.34351e-05)
(0.0192331 1.79819e-06 -2.34191e-05)
(0.0191107 1.13339e-06 -2.33286e-05)
(0.0189759 9.33334e-07 -2.31508e-05)
(0.0188652 2.99011e-07 -2.28205e-05)
(0.0187375 2.81553e-07 -2.23021e-05)
(0.0186371 -2.25346e-07 -2.15001e-05)
(0.0185138 -1.04831e-08 -2.03824e-05)
(0.0184219 -5.30296e-07 -1.88922e-05)
(0.0183011 -4.13496e-07 -1.71474e-05)
(0.0182195 -1.52721e-06 -1.53468e-05)
(0.0181051 -2.12376e-06 -1.3997e-05)
(0.0180428 -4.0997e-06 -1.35821e-05)
(0.017942 -4.74224e-06 -1.44694e-05)
(0.0179035 -6.17065e-06 -1.63231e-05)
(0.017811 -5.49036e-06 -1.85708e-05)
(0.0177887 -6.04267e-06 -2.0471e-05)
(0.017693 -4.636e-06 -2.17958e-05)
(0.0176823 -5.32921e-06 -2.21871e-05)
(0.0175771 -3.86818e-06 -2.16268e-05)
(0.0175791 -5.10832e-06 -1.96591e-05)
(0.0174602 -3.53277e-06 -1.62541e-05)
(0.0174796 -5.73633e-06 -1.08746e-05)
(0.0173474 4.17933e-07 -4.0129e-06)
(0.193835 0.00472034 1.15886e-06)
(0.19354 0.00625058 3.4213e-06)
(0.193248 0.00736898 5.70142e-06)
(0.192839 0.00795424 7.6038e-06)
(0.19212 0.00817977 8.83149e-06)
(0.190962 0.00824777 9.39926e-06)
(0.189342 0.00827974 9.47135e-06)
(0.187302 0.00830834 9.16481e-06)
(0.184902 0.00831692 8.47225e-06)
(0.18219 0.00827808 7.30291e-06)
(0.179201 0.00817303 5.56188e-06)
(0.175961 0.00799276 3.20282e-06)
(0.1725 0.00773517 2.46396e-07)
(0.168847 0.00740002 -3.22094e-06)
(0.165044 0.0069892 -7.05473e-06)
(0.161127 0.00650555 -1.10739e-05)
(0.157141 0.00595824 -1.50891e-05)
(0.15313 0.00536461 -1.89071e-05)
(0.149137 0.00474826 -2.23418e-05)
(0.1452 0.00413552 -2.52349e-05)
(0.141349 0.00355107 -2.7478e-05)
(0.137609 0.00301463 -2.90294e-05)
(0.134001 0.0025388 -2.99166e-05)
(0.130536 0.00212937 -3.02245e-05)
(0.127225 0.00178625 -3.00737e-05)
(0.124066 0.00150556 -2.95974e-05)
(0.121057 0.00128088 -2.89242e-05)
(0.118194 0.00110583 -2.81622e-05)
(0.11547 0.000972794 -2.73888e-05)
(0.112875 0.000873569 -2.66567e-05)
(0.110402 0.000799879 -2.59999e-05)
(0.108039 0.000744527 -2.54391e-05)
(0.105781 0.000701549 -2.49832e-05)
(0.103617 0.000666732 -2.46318e-05)
(0.101544 0.000636946 -2.43765e-05)
(0.0995541 0.00061037 -2.42041e-05)
(0.0976453 0.000585587 -2.4098e-05)
(0.0958114 0.000562014 -2.40406e-05)
(0.0940518 0.000538733 -2.40141e-05)
(0.0923591 0.000515312 -2.40057e-05)
(0.0907343 0.000491449 -2.40054e-05)
(0.08917 0.000467469 -2.40061e-05)
(0.0876684 0.000443562 -2.40011e-05)
(0.0862214 0.000420254 -2.39856e-05)
(0.0848323 0.000397662 -2.39558e-05)
(0.0834921 0.000376174 -2.39103e-05)
(0.0822052 0.000355714 -2.38483e-05)
(0.0809616 0.000336557 -2.37713e-05)
(0.0797669 0.000318491 -2.36804e-05)
(0.0786101 0.000301745 -2.35789e-05)
(0.0774984 0.000286018 -2.34688e-05)
(0.0764193 0.00027153 -2.33539e-05)
(0.075382 0.000257912 -2.32364e-05)
(0.0743724 0.000245403 -2.31205e-05)
(0.0734019 0.000233577 -2.30079e-05)
(0.0724545 0.000222721 -2.29026e-05)
(0.0715442 0.000212362 -2.28057e-05)
(0.0706528 0.000202845 -2.27207e-05)
(0.0697971 0.00019366 -2.26477e-05)
(0.0689562 0.000185212 -2.25903e-05)
(0.0681506 0.000176942 -2.25471e-05)
(0.0673558 0.000169347 -2.25218e-05)
(0.0665965 0.000161791 -2.25117e-05)
(0.0658441 0.000154874 -2.25204e-05)
(0.0651279 0.00014788 -2.2544e-05)
(0.0644148 0.000141506 -2.2586e-05)
(0.0637394 0.000134962 -2.26409e-05)
(0.0630627 0.000129051 -2.27127e-05)
(0.0624262 0.000122858 -2.27935e-05)
(0.0617836 0.000117347 -2.28879e-05)
(0.0611843 0.000111456 -2.29856e-05)
(0.0605737 0.000106304 -2.30919e-05)
(0.0600106 0.000100651 -2.31925e-05)
(0.0594299 9.58278e-05 -2.32936e-05)
(0.0589021 9.03743e-05 -2.3376e-05)
(0.0583495 8.58776e-05 -2.34461e-05)
(0.0578565 8.05824e-05 -2.34774e-05)
(0.05733 7.6399e-05 -2.34725e-05)
(0.0568717 7.13121e-05 -2.33908e-05)
(0.0563692 6.75941e-05 -2.32262e-05)
(0.0559449 6.28352e-05 -2.29049e-05)
(0.0554633 5.98823e-05 -2.23941e-05)
(0.0550719 5.57861e-05 -2.15793e-05)
(0.0546063 5.37338e-05 -2.04202e-05)
(0.0542457 4.9764e-05 -1.88297e-05)
(0.0537913 4.73395e-05 -1.69204e-05)
(0.0534632 4.1387e-05 -1.48846e-05)
(0.0530213 3.63823e-05 -1.33141e-05)
(0.0527365 2.74309e-05 -1.28426e-05)
(0.0523131 2.18925e-05 -1.39813e-05)
(0.0520798 1.46571e-05 -1.63072e-05)
(0.0516669 1.34573e-05 -1.90404e-05)
(0.0514792 9.66422e-06 -2.1269e-05)
(0.0510592 1.13018e-05 -2.28061e-05)
(0.0509138 7.85242e-06 -2.332e-05)
(0.0504731 9.97342e-06 -2.28646e-05)
(0.0503743 5.26561e-06 -2.09235e-05)
(0.0498998 7.83423e-06 -1.743e-05)
(0.049857 1.46017e-07 -1.17239e-05)
(0.0493338 9.61603e-06 -4.33587e-06)
(0.194757 0.00471318 8.83169e-07)
(0.194786 0.00569911 2.62592e-06)
(0.194993 0.00658129 4.50327e-06)
(0.195374 0.00722535 6.34026e-06)
(0.195834 0.00763335 7.76186e-06)
(0.196251 0.00789466 8.51265e-06)
(0.196552 0.00809812 8.60983e-06)
(0.196711 0.00828693 8.22625e-06)
(0.196733 0.00846058 7.50632e-06)
(0.196629 0.00859799 6.48176e-06)
(0.196406 0.00867678 5.10696e-06)
(0.196056 0.00868105 3.33231e-06)
(0.195568 0.00860163 1.15209e-06)
(0.194928 0.00843438 -1.3849e-06)
(0.194126 0.00817903 -4.19547e-06)
(0.193153 0.00784113 -7.18272e-06)
(0.192011 0.00743143 -1.02413e-05)
(0.190705 0.00696626 -1.32658e-05)
(0.189248 0.00646622 -1.61514e-05)
(0.187655 0.00595449 -1.87955e-05)
(0.185947 0.00545331 -2.11032e-05)
(0.184142 0.00498156 -2.29985e-05)
(0.182264 0.00455205 -2.4436e-05)
(0.180331 0.0041715 -2.54112e-05)
(0.178364 0.00384067 -2.59613e-05)
(0.176374 0.00355679 -2.61595e-05)
(0.174374 0.0033146 -2.61043e-05)
(0.172371 0.00310924 -2.58889e-05)
(0.170372 0.00293489 -2.55729e-05)
(0.168376 0.00278562 -2.5199e-05)
(0.166387 0.00265537 -2.48025e-05)
(0.164401 0.00253912 -2.44157e-05)
(0.162425 0.00243258 -2.40646e-05)
(0.160453 0.00233293 -2.37671e-05)
(0.158493 0.00223795 -2.35315e-05)
(0.156538 0.00214661 -2.33577e-05)
(0.154598 0.00205792 -2.32377e-05)
(0.152667 0.00197176 -2.31585e-05)
(0.150753 0.00188746 -2.31027e-05)
(0.14885 0.00180493 -2.30618e-05)
(0.146969 0.00172386 -2.30313e-05)
(0.145103 0.00164467 -2.30086e-05)
(0.143263 0.00156741 -2.29894e-05)
(0.141441 0.00149267 -2.29694e-05)
(0.139649 0.00142047 -2.29436e-05)
(0.137876 0.00135133 -2.29093e-05)
(0.136139 0.00128506 -2.28636e-05)
(0.134421 0.00122207 -2.28072e-05)
(0.132741 0.00116203 -2.27396e-05)
(0.131082 0.00110526 -2.26636e-05)
(0.129464 0.00105131 -2.25799e-05)
(0.127865 0.00100051 -2.24922e-05)
(0.12631 0.000952314 -2.24016e-05)
(0.124774 0.000907034 -2.23125e-05)
(0.123283 0.000864038 -2.22255e-05)
(0.121808 0.000823693 -2.21453e-05)
(0.120381 0.000785294 -2.2072e-05)
(0.118967 0.000749261 -2.201e-05)
(0.117604 0.000714853 -2.19587e-05)
(0.116249 0.000682547 -2.19225e-05)
(0.114948 0.000651549 -2.18992e-05)
(0.113651 0.000622449 -2.18939e-05)
(0.11241 0.00059436 -2.19028e-05)
(0.111168 0.000567989 -2.19308e-05)
(0.109987 0.000542381 -2.1973e-05)
(0.108798 0.00051834 -2.20343e-05)
(0.107674 0.000494851 -2.21077e-05)
(0.106536 0.000472826 -2.21994e-05)
(0.105469 0.000451136 -2.22992e-05)
(0.104378 0.000430866 -2.24141e-05)
(0.103366 0.000410736 -2.25312e-05)
(0.102321 0.00039199 -2.26584e-05)
(0.101363 0.000373196 -2.27784e-05)
(0.100361 0.000355802 -2.29008e-05)
(0.0994562 0.000338151 -2.30022e-05)
(0.0984939 0.000321976 -2.30938e-05)
(0.0976433 0.000305332 -2.31451e-05)
(0.0967183 0.000290259 -2.3165e-05)
(0.0959217 0.000274625 -2.31094e-05)
(0.0950308 0.000260836 -2.29809e-05)
(0.0942887 0.000246427 -2.26971e-05)
(0.0934277 0.00023444 -2.22233e-05)
(0.0927397 0.000221919 -2.14042e-05)
(0.091902 0.000212022 -2.01563e-05)
(0.091267 0.000200414 -1.83136e-05)
(0.0904453 0.000189829 -1.5954e-05)
(0.0898661 0.000174471 -1.3271e-05)
(0.0890596 0.000158174 -1.10544e-05)
(0.0885499 0.000136737 -1.03314e-05)
(0.0877631 0.00011864 -1.20073e-05)
(0.0873346 0.000100824 -1.55252e-05)
(0.0865558 9.11894e-05 -1.95606e-05)
(0.0862043 8.12921e-05 -2.27455e-05)
(0.0854108 7.75031e-05 -2.4901e-05)
(0.0851364 6.96109e-05 -2.58036e-05)
(0.0843097 6.66777e-05 -2.56444e-05)
(0.0841209 5.79368e-05 -2.38727e-05)
(0.0832418 5.5529e-05 -2.02718e-05)
(0.0831523 4.49324e-05 -1.38489e-05)
(0.0822011 4.73264e-05 -5.16482e-06)
(0.195485 0.00456021 6.90689e-07)
(0.195508 0.00525923 2.02797e-06)
(0.195651 0.00594091 3.42415e-06)
(0.195943 0.00653227 4.86014e-06)
(0.196366 0.00699212 6.13437e-06)
(0.19686 0.00733351 6.97101e-06)
(0.197364 0.00759794 7.23664e-06)
(0.197837 0.00782097 6.99197e-06)
(0.198272 0.00801682 6.38775e-06)
(0.198677 0.00818 5.54875e-06)
(0.199059 0.00829561 4.51796e-06)
(0.199417 0.00834913 3.28135e-06)
(0.199742 0.00833022 1.8164e-06)
(0.200016 0.00823416 1.18497e-07)
(0.200224 0.00806131 -1.79555e-06)
(0.200346 0.00781727 -3.89065e-06)
(0.200371 0.00751166 -6.11657e-06)
(0.200286 0.00715769 -8.41581e-06)
(0.20009 0.00677109 -1.07265e-05)
(0.199779 0.00636922 -1.29812e-05)
(0.19936 0.005969 -1.51071e-05)
(0.19884 0.00558551 -1.70302e-05)
(0.198234 0.00523001 -1.86864e-05)
(0.19755 0.00490971 -2.00338e-05)
(0.196808 0.00462741 -2.10614e-05)
(0.196013 0.00438279 -2.17885e-05)
(0.195182 0.00417283 -2.22494e-05)
(0.194317 0.00399292 -2.2489e-05)
(0.193428 0.00383779 -2.25622e-05)
(0.192511 0.00370278 -2.25189e-05)
(0.191575 0.00358337 -2.23995e-05)
(0.190612 0.00347589 -2.22378e-05)
(0.18963 0.0033769 -2.20607e-05)
(0.18862 0.00328396 -2.18892e-05)
(0.187593 0.00319486 -2.17364e-05)
(0.186535 0.0031083 -2.1609e-05)
(0.18546 0.00302304 -2.15068e-05)
(0.184354 0.0029386 -2.14281e-05)
(0.183232 0.00285448 -2.13713e-05)
(0.182079 0.0027709 -2.13326e-05)
(0.180912 0.00268767 -2.13073e-05)
(0.179714 0.00260518 -2.12923e-05)
(0.178507 0.00252335 -2.12831e-05)
(0.17727 0.00244267 -2.12763e-05)
(0.176029 0.00236304 -2.1267e-05)
(0.174758 0.00228496 -2.12527e-05)
(0.173487 0.00220827 -2.12298e-05)
(0.172188 0.00213341 -2.11988e-05)
(0.170894 0.00206013 -2.11582e-05)
(0.169573 0.00198883 -2.11107e-05)
(0.168263 0.00191922 -2.1056e-05)
(0.166925 0.00185166 -2.09981e-05)
(0.165605 0.0017858 -2.09369e-05)
(0.164256 0.00172199 -2.08771e-05)
(0.162931 0.00165984 -2.08186e-05)
(0.161577 0.00159967 -2.07663e-05)
(0.160253 0.00154109 -2.07199e-05)
(0.158898 0.00148442 -2.06842e-05)
(0.157581 0.00142925 -2.0658e-05)
(0.156229 0.00137587 -2.06467e-05)
(0.154924 0.0013239 -2.06473e-05)
(0.15358 0.00127365 -2.0666e-05)
(0.152292 0.0012247 -2.06983e-05)
(0.150959 0.00117736 -2.07503e-05)
(0.149692 0.00113126 -2.08164e-05)
(0.148374 0.00108666 -2.09028e-05)
(0.147133 0.00104324 -2.10013e-05)
(0.145833 0.0010012 -2.11196e-05)
(0.144622 0.000960278 -2.12465e-05)
(0.143341 0.000920652 -2.13904e-05)
(0.142164 0.000882103 -2.15366e-05)
(0.140904 0.00084471 -2.16949e-05)
(0.139767 0.00080835 -2.18461e-05)
(0.138529 0.000773048 -2.20018e-05)
(0.137433 0.000738743 -2.21361e-05)
(0.136218 0.000705375 -2.22633e-05)
(0.13517 0.000672997 -2.23521e-05)
(0.133977 0.000641452 -2.24177e-05)
(0.132979 0.000611095 -2.24175e-05)
(0.131807 0.000581603 -2.23659e-05)
(0.130865 0.000553691 -2.21825e-05)
(0.129712 0.000527165 -2.18259e-05)
(0.128828 0.000503045 -2.10784e-05)
(0.127687 0.000480351 -1.97292e-05)
(0.126864 0.000459103 -1.74057e-05)
(0.125727 0.000435708 -1.40106e-05)
(0.124969 0.000408615 -9.73152e-06)
(0.123835 0.000373846 -5.76605e-06)
(0.123163 0.000334857 -4.05932e-06)
(0.122039 0.00029442 -6.48056e-06)
(0.121468 0.000261174 -1.24444e-05)
(0.12034 0.000234817 -1.94853e-05)
(0.119866 0.000216859 -2.5121e-05)
(0.118708 0.000200839 -2.89442e-05)
(0.118336 0.000187628 -3.09327e-05)
(0.117128 0.000172253 -3.15477e-05)
(0.116869 0.000158929 -3.03453e-05)
(0.115591 0.000145303 -2.68155e-05)
(0.115463 0.000133363 -1.91649e-05)
(0.114097 0.000126799 -7.26103e-06)
(0.196093 0.00446478 5.11021e-07)
(0.196123 0.0050264 1.46697e-06)
(0.196234 0.00559014 2.42462e-06)
(0.196451 0.00611842 3.41446e-06)
(0.196777 0.00657531 4.38705e-06)
(0.197185 0.00694435 5.18635e-06)
(0.197635 0.00723318 5.63358e-06)
(0.198089 0.00746236 5.65222e-06)
(0.198534 0.0076484 5.30692e-06)
(0.198963 0.00779625 4.72801e-06)
(0.199386 0.00790064 4.01902e-06)
(0.199803 0.00795251 3.21688e-06)
(0.200215 0.00794391 2.30637e-06)
(0.200611 0.00787107 1.25246e-06)
(0.200982 0.00773468 2.75499e-08)
(0.201312 0.00753968 -1.37583e-06)
(0.201593 0.00729405 -2.94442e-06)
(0.201811 0.00700833 -4.65071e-06)
(0.201963 0.00669453 -6.45775e-06)
(0.202041 0.00636575 -8.3208e-06)
(0.202051 0.00603476 -1.01861e-05)
(0.201988 0.00571337 -1.19934e-05)
(0.201868 0.00541098 -1.36803e-05)
(0.20169 0.00513438 -1.51914e-05)
(0.201472 0.00488708 -1.6485e-05)
(0.201214 0.00466999 -1.75381e-05)
(0.200936 0.00448145 -1.83454e-05)
(0.200631 0.00431843 -1.8924e-05)
(0.200316 0.00417701 -1.93105e-05)
(0.199981 0.00405362 -1.95489e-05)
(0.199641 0.00394472 -1.96774e-05)
(0.199281 0.00384739 -1.97264e-05)
(0.198917 0.00375877 -1.97186e-05)
(0.19853 0.00367662 -1.96733e-05)
(0.198139 0.00359884 -1.9605e-05)
(0.197721 0.00352399 -1.95269e-05)
(0.197299 0.00345079 -1.94482e-05)
(0.196845 0.00337861 -1.93778e-05)
(0.196386 0.00330692 -1.93202e-05)
(0.195891 0.00323569 -1.92766e-05)
(0.195392 0.00316469 -1.92429e-05)
(0.194855 0.00309406 -1.92169e-05)
(0.194314 0.00302369 -1.91945e-05)
(0.193731 0.00295374 -1.91751e-05)
(0.193149 0.00288424 -1.91558e-05)
(0.192521 0.00281535 -1.91364e-05)
(0.191896 0.00274716 -1.91142e-05)
(0.191222 0.00267978 -1.90899e-05)
(0.190556 0.0026133 -1.90616e-05)
(0.189838 0.00254774 -1.90317e-05)
(0.189133 0.00248324 -1.8999e-05)
(0.188371 0.0024197 -1.89672e-05)
(0.187628 0.00235734 -1.89349e-05)
(0.186824 0.00229592 -1.89067e-05)
(0.186046 0.0022357 -1.88811e-05)
(0.185202 0.00217632 -1.88633e-05)
(0.184391 0.00211815 -1.88516e-05)
(0.183508 0.00206066 -1.88516e-05)
(0.182667 0.00200443 -1.88604e-05)
(0.181748 0.00194869 -1.88844e-05)
(0.180881 0.00189427 -1.89199e-05)
(0.179927 0.00184016 -1.89738e-05)
(0.179037 0.0017874 -1.90405e-05)
(0.178051 0.00173474 -1.91278e-05)
(0.177143 0.00168354 -1.92292e-05)
(0.176127 0.00163219 -1.93526e-05)
(0.175204 0.00158251 -1.94885e-05)
(0.17416 0.00153238 -1.96462e-05)
(0.173228 0.00148412 -1.98144e-05)
(0.172159 0.00143516 -2.0003e-05)
(0.171223 0.00138833 -2.0195e-05)
(0.17013 0.00134044 -2.04033e-05)
(0.169196 0.00129503 -2.06067e-05)
(0.168082 0.00124817 -2.08196e-05)
(0.167155 0.00120421 -2.10138e-05)
(0.166022 0.00115836 -2.12069e-05)
(0.16511 0.0011159 -2.13698e-05)
(0.163958 0.00107103 -2.15273e-05)
(0.163068 0.00103044 -2.16456e-05)
(0.161898 0.000987034 -2.17636e-05)
(0.161038 0.000949152 -2.18321e-05)
(0.15985 0.000908833 -2.18305e-05)
(0.159025 0.000876345 -2.14892e-05)
(0.157815 0.000841654 -2.03688e-05)
(0.15703 0.000815206 -1.76056e-05)
(0.155789 0.000780796 -1.2463e-05)
(0.155051 0.000746327 -4.85307e-06)
(0.15378 0.000691506 3.38542e-06)
(0.153116 0.000633486 8.41029e-06)
(0.151831 0.000562814 6.03397e-06)
(0.151264 0.000509391 -3.82725e-06)
(0.149949 0.000458517 -1.68621e-05)
(0.149473 0.000429936 -2.80327e-05)
(0.148101 0.000395836 -3.59237e-05)
(0.14772 0.000375221 -4.05689e-05)
(0.146276 0.000340763 -4.29461e-05)
(0.146009 0.000319669 -4.31157e-05)
(0.144477 0.000288343 -4.04495e-05)
(0.144341 0.000273293 -3.18045e-05)
(0.142707 0.00025904 -1.26638e-05)
(0.196634 0.00440569 3.47634e-07)
(0.196675 0.00487627 9.68945e-07)
(0.196773 0.00535279 1.56594e-06)
(0.196944 0.00581332 2.19142e-06)
(0.197198 0.00623139 2.8734e-06)
(0.197522 0.00658732 3.54989e-06)
(0.197895 0.00687496 4.08365e-06)
(0.198289 0.00710094 4.35098e-06)
(0.198687 0.00727591 4.3219e-06)
(0.199075 0.00740772 4.05631e-06)
(0.199458 0.00749794 3.65155e-06)
(0.199833 0.00754348 3.17872e-06)
(0.200206 0.00753986 2.65418e-06)
(0.200566 0.00748437 2.05107e-06)
(0.200915 0.00737724 1.32821e-06)
(0.201236 0.00722192 4.52831e-07)
(0.201527 0.0070244 -5.89473e-07)
(0.201774 0.00679265 -1.79547e-06)
(0.201979 0.00653583 -3.14797e-06)
(0.202129 0.00626384 -4.61975e-06)
(0.202233 0.00598651 -6.1742e-06)
(0.202283 0.00571309 -7.76664e-06)
(0.202295 0.00545142 -9.3449e-06)
(0.20226 0.00520758 -1.08537e-05)
(0.202203 0.00498535 -1.22392e-05)
(0.202112 0.00478641 -1.34576e-05)
(0.202014 0.00461045 -1.44815e-05)
(0.201893 0.00445584 -1.53055e-05)
(0.201776 0.00432015 -1.59433e-05)
(0.201643 0.00420066 -1.64209e-05)
(0.20152 0.00409476 -1.67659e-05)
(0.201382 0.00399992 -1.70033e-05)
(0.201256 0.00391392 -1.71525e-05)
(0.201112 0.00383464 -1.72313e-05)
(0.200983 0.00376042 -1.72554e-05)
(0.200832 0.00368969 -1.72418e-05)
(0.200695 0.00362151 -1.7205e-05)
(0.200531 0.00355492 -1.71587e-05)
(0.200383 0.00348964 -1.71108e-05)
(0.200203 0.0034251 -1.70664e-05)
(0.200039 0.00336143 -1.7025e-05)
(0.199839 0.00329815 -1.69874e-05)
(0.199657 0.00323564 -1.69513e-05)
(0.199433 0.00317338 -1.69186e-05)
(0.19923 0.00311201 -1.68879e-05)
(0.198979 0.00305091 -1.68614e-05)
(0.198754 0.00299092 -1.68369e-05)
(0.198475 0.00293126 -1.68156e-05)
(0.198225 0.00287293 -1.67949e-05)
(0.197915 0.00281489 -1.6777e-05)
(0.197641 0.00275835 -1.67592e-05)
(0.197299 0.00270198 -1.67453e-05)
(0.196998 0.00264729 -1.67329e-05)
(0.196623 0.0025926 -1.67263e-05)
(0.196296 0.00253971 -1.67235e-05)
(0.195885 0.00248656 -1.67298e-05)
(0.195532 0.0024353 -1.67425e-05)
(0.195084 0.00238341 -1.67685e-05)
(0.194704 0.00233356 -1.68034e-05)
(0.194218 0.00228267 -1.68551e-05)
(0.193812 0.00223405 -1.69197e-05)
(0.193287 0.002184 -1.70049e-05)
(0.192855 0.00213645 -1.71048e-05)
(0.192289 0.002087 -1.72292e-05)
(0.191833 0.00204037 -1.73708e-05)
(0.191225 0.00199124 -1.75407e-05)
(0.190746 0.00194544 -1.77277e-05)
(0.190096 0.00189649 -1.79441e-05)
(0.189595 0.0018514 -1.81788e-05)
(0.188902 0.00180254 -1.84444e-05)
(0.188382 0.0017582 -1.87223e-05)
(0.187645 0.00170926 -1.90296e-05)
(0.18711 0.00166563 -1.93444e-05)
(0.186328 0.0016165 -1.96849e-05)
(0.185782 0.0015736 -2.00227e-05)
(0.184954 0.00152423 -2.03793e-05)
(0.184401 0.00148214 -2.07319e-05)
(0.183528 0.00143243 -2.11201e-05)
(0.182973 0.00139156 -2.15308e-05)
(0.182053 0.00134198 -2.20493e-05)
(0.181504 0.00130332 -2.27186e-05)
(0.180536 0.00125608 -2.36346e-05)
(0.179998 0.00122382 -2.46328e-05)
(0.178977 0.00118418 -2.51203e-05)
(0.178451 0.00116288 -2.35054e-05)
(0.177365 0.00112793 -1.7606e-05)
(0.176852 0.00110026 -6.18899e-06)
(0.175701 0.00103794 8.7312e-06)
(0.175234 0.00097354 2.07943e-05)
(0.174048 0.000880797 2.13055e-05)
(0.173657 0.000815367 7.56844e-06)
(0.172423 0.000745445 -1.37334e-05)
(0.172091 0.000712936 -3.26277e-05)
(0.170774 0.000664319 -4.56119e-05)
(0.170499 0.000640691 -5.29561e-05)
(0.169093 0.000587209 -5.6802e-05)
(0.168897 0.00055754 -5.86413e-05)
(0.167397 0.000499444 -5.83707e-05)
(0.167292 0.000473602 -5.20554e-05)
(0.16569 0.000444195 -2.19989e-05)
(0.197124 0.00435596 2.04193e-07)
(0.197174 0.0047544 5.45025e-07)
(0.197264 0.00515757 8.59485e-07)
(0.197404 0.00555078 1.2086e-06)
(0.197605 0.0059163 1.64442e-06)
(0.197859 0.00623815 2.16066e-06)
(0.198161 0.00650715 2.68029e-06)
(0.198488 0.00672192 3.09431e-06)
(0.198829 0.00688704 3.31991e-06)
(0.199168 0.00700862 3.34426e-06)
(0.199505 0.00709068 3.2165e-06)
(0.199833 0.00713402 3.00423e-06)
(0.200159 0.00713739 2.75072e-06)
(0.200471 0.00709928 2.45809e-06)
(0.200776 0.00701965 2.09696e-06)
(0.201058 0.00690046 1.62682e-06)
(0.201321 0.00674587 1.01417e-06)
(0.201547 0.00656155 2.41026e-07)
(0.201744 0.00635447 -6.93734e-07)
(0.201895 0.00613197 -1.77809e-06)
(0.202014 0.00590175 -2.98941e-06)
(0.202086 0.00567087 -4.29637e-06)
(0.202132 0.00544588 -5.65828e-06)
(0.202136 0.0052318 -7.02728e-06)
(0.202126 0.00503252 -8.35136e-06)
(0.202084 0.00484991 -9.58269e-06)
(0.20204 0.00468489 -1.06836e-05)
(0.201972 0.00453668 -1.16325e-05)
(0.201914 0.00440431 -1.24227e-05)
(0.201838 0.00428566 -1.30613e-05)
(0.201778 0.00417925 -1.35627e-05)
(0.201702 0.0040827 -1.39446e-05)
(0.201646 0.00399476 -1.42237e-05)
(0.201572 0.00391322 -1.44169e-05)
(0.201521 0.00383731 -1.45395e-05)
(0.201448 0.00376511 -1.46083e-05)
(0.201401 0.00369645 -1.46379e-05)
(0.201328 0.00362974 -1.46426e-05)
(0.201283 0.00356539 -1.46317e-05)
(0.201206 0.00350198 -1.46132e-05)
(0.20116 0.00344042 -1.45902e-05)
(0.201077 0.00337926 -1.45666e-05)
(0.201028 0.00331981 -1.45423e-05)
(0.200936 0.00326045 -1.45205e-05)
(0.200884 0.00320291 -1.45008e-05)
(0.200781 0.00314531 -1.44862e-05)
(0.200723 0.00308977 -1.44751e-05)
(0.200608 0.00303403 -1.44692e-05)
(0.200543 0.00298059 -1.44659e-05)
(0.200413 0.00292672 -1.44674e-05)
(0.200341 0.00287539 -1.44708e-05)
(0.200195 0.00282332 -1.44798e-05)
(0.200114 0.00277406 -1.4492e-05)
(0.19995 0.00272371 -1.45118e-05)
(0.199859 0.00267646 -1.45372e-05)
(0.199675 0.00262767 -1.45736e-05)
(0.199574 0.00258227 -1.46184e-05)
(0.199368 0.00253472 -1.46794e-05)
(0.199256 0.00249088 -1.47517e-05)
(0.199025 0.00244421 -1.48448e-05)
(0.198903 0.0024017 -1.49552e-05)
(0.198645 0.00235573 -1.50914e-05)
(0.19851 0.0023144 -1.52488e-05)
(0.198223 0.00226886 -1.54388e-05)
(0.198076 0.00222854 -1.56552e-05)
(0.197757 0.00218304 -1.59124e-05)
(0.197597 0.00214355 -1.62003e-05)
(0.197244 0.00209786 -1.65345e-05)
(0.197072 0.00205905 -1.69079e-05)
(0.196682 0.00201297 -1.73361e-05)
(0.196498 0.00197479 -1.78048e-05)
(0.196069 0.0019281 -1.83359e-05)
(0.195873 0.00189044 -1.89134e-05)
(0.195402 0.00184289 -1.956e-05)
(0.195195 0.00180562 -2.0256e-05)
(0.194679 0.00175696 -2.10251e-05)
(0.194465 0.00171991 -2.18591e-05)
(0.193902 0.00166973 -2.28075e-05)
(0.193681 0.00163299 -2.38858e-05)
(0.193069 0.00158118 -2.52238e-05)
(0.192846 0.00154483 -2.70006e-05)
(0.192183 0.00149263 -2.95419e-05)
(0.191961 0.00146029 -3.31126e-05)
(0.191242 0.00141408 -3.75904e-05)
(0.191017 0.00139441 -4.14771e-05)
(0.190223 0.00135838 -4.16007e-05)
(0.189981 0.00134251 -3.50147e-05)
(0.189108 0.00129262 -2.1522e-05)
(0.188884 0.00125372 -6.51859e-06)
(0.187981 0.00118066 -9.90011e-07)
(0.187819 0.00113946 -9.50998e-06)
(0.186874 0.00107946 -2.39028e-05)
(0.186734 0.0010562 -3.33123e-05)
(0.185699 0.00100113 -3.60582e-05)
(0.185569 0.000974705 -3.52154e-05)
(0.184444 0.000905838 -3.38899e-05)
(0.184347 0.000864184 -3.49657e-05)
(0.183142 0.000777965 -3.92115e-05)
(0.183083 0.000717815 -4.54568e-05)
(0.181798 0.000640669 -2.15887e-05)
(0.197569 0.00430332 8.02301e-08)
(0.197624 0.00464169 1.88998e-07)
(0.197707 0.00498208 2.82945e-07)
(0.197821 0.00531427 4.22244e-07)
(0.197981 0.00562674 6.56699e-07)
(0.19818 0.00590834 1.0034e-06)
(0.198421 0.00615083 1.43147e-06)
(0.198685 0.00635005 1.86689e-06)
(0.19897 0.00650653 2.22635e-06)
(0.199258 0.00662313 2.45985e-06)
(0.19955 0.00670331 2.56814e-06)
(0.199834 0.00674899 2.58868e-06)
(0.200117 0.00676095 2.56464e-06)
(0.200385 0.00673881 2.5175e-06)
(0.20065 0.0066829 2.4372e-06)
(0.200894 0.00659423 2.28954e-06)
(0.201126 0.0064758 2.03327e-06)
(0.201326 0.00633143 1.63498e-06)
(0.201506 0.00616655 1.07691e-06)
(0.201647 0.00598647 3.55885e-07)
(0.201765 0.00579747 -5.18398e-07)
(0.201841 0.00560478 -1.52483e-06)
(0.201899 0.00541402 -2.63083e-06)
(0.201918 0.00522899 -3.7947e-06)
(0.201928 0.00505351 -4.96873e-06)
(0.201905 0.0048891 -6.10605e-06)
(0.201884 0.00473752 -7.16529e-06)
(0.201838 0.00459816 -8.11592e-06)
(0.201803 0.00447129 -8.93944e-06)
(0.201746 0.00435501 -9.63061e-06)
(0.201709 0.00424903 -1.01939e-05)
(0.20165 0.00415095 -1.06411e-05)
(0.201616 0.00406068 -1.09862e-05)
(0.20156 0.00397575 -1.12449e-05)
(0.201531 0.00389652 -1.14312e-05)
(0.201478 0.00382056 -1.15599e-05)
(0.201455 0.00374877 -1.16432e-05)
(0.201404 0.00367877 -1.16935e-05)
(0.201387 0.003612 -1.17202e-05)
(0.201335 0.00354604 -1.17321e-05)
(0.201322 0.00348286 -1.17345e-05)
(0.20127 0.00341986 -1.17331e-05)
(0.20126 0.00335956 -1.17293e-05)
(0.201205 0.00329902 -1.17268e-05)
(0.201198 0.00324134 -1.17257e-05)
(0.201139 0.00318309 -1.17288e-05)
(0.201133 0.00312799 -1.17355e-05)
(0.201069 0.00307202 -1.17475e-05)
(0.201065 0.00301949 -1.17635e-05)
(0.200995 0.0029657 -1.17858e-05)
(0.200992 0.00291568 -1.18123e-05)
(0.200915 0.00286393 -1.18466e-05)
(0.200912 0.00281635 -1.1887e-05)
(0.200826 0.00276652 -1.19375e-05)
(0.200825 0.00272133 -1.19977e-05)
(0.200729 0.0026733 -1.20719e-05)
(0.200728 0.00263036 -1.21596e-05)
(0.200621 0.00258381 -1.22678e-05)
(0.20062 0.00254286 -1.23941e-05)
(0.200501 0.00249742 -1.25471e-05)
(0.2005 0.00245815 -1.27271e-05)
(0.200366 0.00241362 -1.29417e-05)
(0.200363 0.00237591 -1.31915e-05)
(0.200213 0.00233201 -1.34879e-05)
(0.20021 0.00229572 -1.38309e-05)
(0.200041 0.00225202 -1.42358e-05)
(0.200036 0.00221686 -1.47018e-05)
(0.199846 0.00217302 -1.52456e-05)
(0.19984 0.0021388 -1.58731e-05)
(0.199627 0.00209458 -1.66016e-05)
(0.199618 0.00206106 -1.74346e-05)
(0.199379 0.00201616 -1.83969e-05)
(0.199368 0.00198314 -1.94936e-05)
(0.199101 0.00193714 -2.07492e-05)
(0.199087 0.00190416 -2.21704e-05)
(0.198789 0.00185642 -2.37752e-05)
(0.198772 0.00182282 -2.55764e-05)
(0.198441 0.00177216 -2.76024e-05)
(0.198422 0.00173682 -2.987e-05)
(0.198055 0.00168148 -3.24569e-05)
(0.198035 0.00164162 -3.55548e-05)
(0.197631 0.00157834 -3.9571e-05)
(0.197612 0.00153113 -4.53164e-05)
(0.197169 0.00145901 -5.42264e-05)
(0.197144 0.00140917 -6.79643e-05)
(0.19664 0.00134706 -8.75027e-05)
(0.196589 0.00133514 -0.000111862)
(0.196017 0.00133464 -0.000134821)
(0.19597 0.00139497 -0.000146154)
(0.195383 0.00144242 -0.000136073)
(0.195382 0.00150598 -0.000101418)
(0.194769 0.0015087 -4.98802e-05)
(0.194763 0.00150461 3.15483e-06)
(0.194073 0.00143997 4.81413e-05)
(0.194047 0.00138899 8.06002e-05)
(0.193286 0.00129306 0.000100923)
(0.193259 0.00122426 0.000108544)
(0.192439 0.00111932 0.000101389)
(0.192409 0.00102652 7.2904e-05)
(0.191554 0.000847836 2.59291e-05)
(0.197973 0.00424429 -2.72395e-08)
(0.198028 0.00453245 -1.13287e-07)
(0.198101 0.00482027 -2.00011e-07)
(0.198195 0.00510094 -2.35524e-07)
(0.198322 0.00536714 -1.76318e-07)
(0.198477 0.00561112 2.50633e-09)
(0.198667 0.00582666 2.96381e-07)
(0.198878 0.00600918 6.67832e-07)
(0.199111 0.00615714 1.05914e-06)
(0.19935 0.00627069 1.41715e-06)
(0.199598 0.00635171 1.71489e-06)
(0.19984 0.00640155 1.95634e-06)
(0.200083 0.00642174 2.16391e-06)
(0.200313 0.00641253 2.3575e-06)
(0.200541 0.00637492 2.53781e-06)
(0.20075 0.00630949 2.68156e-06)
(0.200952 0.00621871 2.74976e-06)
(0.201127 0.00610502 2.70166e-06)
(0.201289 0.00597285 2.50497e-06)
(0.201417 0.00582596 2.13742e-06)
(0.20153 0.0056698 1.5909e-06)
(0.201606 0.00550829 8.74058e-07)
(0.201669 0.00534656 1.23599e-08)
(0.201697 0.00518742 -9.55397e-07)
(0.201719 0.00503469 -1.98207e-06)
(0.20171 0.00488934 -3.01851e-06)
(0.201704 0.00475366 -4.01887e-06)
(0.201671 0.00462684 -4.9457e-06)
(0.20165 0.00451005 -5.77268e-06)
(0.201605 0.00440121 -6.48598e-06)