/*--------------------------------*- C++ -*----------------------------------*\
| =========                 |                                                 |
| \\      /  F ield         | OpenFOAM: The Open Source CFD Toolbox           |
|  \\    /   O peration     | Version:  2.3.0                                 |
|   \\  /    A nd           | Web:      www.OpenFOAM.org                      |
|    \\/     M anipulation  |                                                 |
\*---------------------------------------------------------------------------*/
FoamFile
{
    version     2.0;
    format      ascii;
    class       surfaceScalarField;
    location    "0.55";
    object      phi;
}
// * * * * * * * * * * * * * * * * * * * * * * * * * * * * * * * * * * * * * //

dimensions      [0 3 -1 0 0 0 0];

internalField   nonuniform List<scalar> 
5764
(
1.97276e-08
5.00259e-09
-2.47302e-08
1.46683e-08
5.05928e-09
1.08219e-08
3.84648e-09
8.14969e-09
2.67217e-09
6.59764e-09
1.55204e-09
5.62457e-09
9.73069e-10
5.00724e-09
6.17332e-10
4.62769e-09
3.79556e-10
4.3586e-09
2.69092e-10
4.12532e-09
2.33274e-10
3.91706e-09
2.08257e-10
3.73386e-09
1.832e-10
3.57089e-09
1.6297e-10
3.42489e-09
1.46008e-10
3.293e-09
1.3189e-10
3.1754e-09
1.17593e-10
3.07037e-09
1.05035e-10
2.97193e-09
9.84425e-11
2.88272e-09
8.9205e-11
2.80224e-09
8.0477e-11
2.72476e-09
7.74834e-11
2.65233e-09
7.24316e-11
2.58629e-09
6.60361e-11
2.52456e-09
6.17298e-11
2.46629e-09
5.82692e-11
2.41153e-09
5.47678e-11
2.35978e-09
5.17455e-11
2.311e-09
4.87789e-11
2.26417e-09
4.68286e-11
2.21928e-09
4.48938e-11
2.17797e-09
4.13085e-11
2.13993e-09
3.80399e-11
2.10291e-09
3.7023e-11
2.06715e-09
3.57626e-11
2.0329e-09
3.4247e-11
2.00024e-09
3.2657e-11
1.96934e-09
3.09063e-11
1.93971e-09
2.96267e-11
1.91156e-09
2.81525e-11
1.88505e-09
2.65015e-11
1.8594e-09
2.56595e-11
1.83429e-09
2.51028e-11
1.81069e-09
2.36073e-11
1.78817e-09
2.25181e-11
1.76611e-09
2.20585e-11
1.74553e-09
2.05767e-11
1.72609e-09
1.94392e-11
1.70695e-09
1.91461e-11
1.6886e-09
1.83437e-11
1.67083e-09
1.77721e-11
1.65405e-09
1.67806e-11
1.63812e-09
1.59328e-11
1.62303e-09
1.50842e-11
1.60832e-09
1.47095e-11
1.59423e-09
1.40935e-11
1.58114e-09
1.30918e-11
1.56849e-09
1.26494e-11
1.55666e-09
1.18282e-11
1.54568e-09
1.0985e-11
1.53484e-09
1.08315e-11
1.52441e-09
1.04382e-11
1.51529e-09
9.1198e-12
1.50588e-09
9.40442e-12
1.49788e-09
7.99956e-12
1.49026e-09
7.62724e-12
1.48267e-09
7.58778e-12
1.4756e-09
7.06495e-12
1.47039e-09
5.21555e-12
1.46349e-09
6.89496e-12
1.4587e-09
4.78775e-12
1.45342e-09
5.28054e-12
1.44988e-09
3.54559e-12
1.44354e-09
6.33797e-12
1.4429e-09
6.40422e-13
6.06664e-12
2.69412e-08
5.18464e-09
-2.71232e-08
2.5518e-08
6.48247e-09
2.34936e-08
5.87082e-09
2.11538e-08
5.01197e-09
1.91611e-08
3.54482e-09
1.73691e-08
2.76505e-09
1.58687e-08
2.11774e-09
1.46829e-08
1.5653e-09
1.37357e-08
1.21632e-09
1.29444e-08
1.02457e-09
1.22715e-08
8.81093e-10
1.16917e-08
7.63047e-10
1.11831e-08
6.71531e-10
1.07292e-08
5.99919e-10
1.03199e-08
5.41244e-10
9.95299e-09
4.84477e-10
9.62169e-09
4.36334e-10
9.31598e-09
4.04151e-10
9.03693e-09
3.68255e-10
8.78025e-09
3.37155e-10
8.53854e-09
3.19197e-10
8.31384e-09
2.97132e-10
8.10598e-09
2.73893e-10
7.91125e-09
2.56465e-10
7.72783e-09
2.41687e-10
7.55522e-09
2.27374e-10
7.39226e-09
2.14707e-10
7.23839e-09
2.02648e-10
7.0919e-09
1.93317e-10
6.95271e-09
1.8409e-10
6.82249e-09
1.71526e-10
6.69999e-09
1.60536e-10
6.58207e-09
1.54943e-10
6.46919e-09
1.48645e-10
6.36146e-09
1.41975e-10
6.25893e-09
1.35196e-10
6.16131e-09
1.28522e-10
6.06787e-09
1.23068e-10
5.97872e-09
1.17297e-10
5.89381e-09
1.11416e-10
5.81206e-09
1.07405e-10
5.73321e-09
1.03954e-10
5.65833e-09
9.84915e-11
5.58662e-09
9.42225e-11
5.51743e-09
9.12471e-11
5.45184e-09
8.61667e-11
5.38911e-09
8.21771e-11
5.32837e-09
7.98857e-11
5.27023e-09
7.64807e-11
5.21434e-09
7.36634e-11
5.16124e-09
6.98747e-11
5.11057e-09
6.66117e-11
5.06236e-09
6.32905e-11
5.01596e-09
6.11048e-11
4.97183e-09
5.82317e-11
4.93017e-09
5.47504e-11
4.89036e-09
5.2456e-11
4.85293e-09
4.92601e-11
4.81765e-09
4.62606e-11
4.78376e-09
4.4724e-11
4.75171e-09
4.24915e-11
4.72246e-09
3.83709e-11
4.69401e-09
3.78492e-11
4.66867e-09
3.33406e-11
4.64455e-09
3.17445e-11
4.62188e-09
3.02581e-11
4.60108e-09
2.78695e-11
4.58345e-09
2.28478e-11
4.56455e-09
2.57859e-11
4.54984e-09
1.95047e-11
4.53468e-09
2.04353e-11
4.52306e-09
1.51735e-11
4.50816e-09
2.12364e-11
4.50183e-09
6.965e-12
1.88733e-11
2.84004e-08
4.68133e-09
-2.78971e-08
2.90238e-08
5.85911e-09
2.85638e-08
6.33078e-09
2.76291e-08
5.94673e-09
2.66877e-08
4.48616e-09
2.55083e-08
3.94449e-09
2.43011e-08
3.32491e-09
2.31629e-08
2.70355e-09
2.21308e-08
2.24837e-09
2.11803e-08
1.97507e-09
2.03008e-08
1.76057e-09
1.94949e-08
1.56901e-09
1.87647e-08
1.40173e-09
1.80996e-08
1.26496e-09
1.7485e-08
1.15588e-09
1.69186e-08
1.0509e-09
1.63969e-08
9.57977e-10
1.59123e-08
8.88762e-10
1.54667e-08
8.13823e-10
1.50533e-08
7.50644e-10
1.46619e-08
7.10554e-10
1.42951e-08
6.63956e-10
1.39526e-08
6.16344e-10
1.36306e-08
5.78536e-10
1.33264e-08
5.45857e-10
1.30388e-08
5.14928e-10
1.27662e-08
4.87331e-10
1.25079e-08
4.60969e-10
1.22618e-08
4.39429e-10
1.20274e-08
4.18422e-10
1.18065e-08
3.9243e-10
1.15974e-08
3.69675e-10
1.13964e-08
3.55949e-10
1.12039e-08
3.41129e-10
1.102e-08
3.25922e-10
1.08445e-08
3.10619e-10
1.06771e-08
2.95941e-10
1.05166e-08
2.83582e-10
1.0363e-08
2.70889e-10
1.02162e-08
2.5823e-10
1.00749e-08
2.48663e-10
9.93885e-09
2.40043e-10
9.80908e-09
2.28266e-10
9.68464e-09
2.18661e-10
9.56469e-09
2.11192e-10
9.45034e-09
2.00519e-10
9.34072e-09
1.91793e-10
9.23495e-09
1.8566e-10
9.13357e-09
1.77865e-10
9.03616e-09
1.71068e-10
8.94334e-09
1.627e-10
8.85456e-09
1.55385e-10
8.76992e-09
1.47936e-10
8.6887e-09
1.42324e-10
8.61132e-09
1.35607e-10
8.53795e-09
1.28126e-10
8.46794e-09
1.22466e-10
8.40185e-09
1.15343e-10
8.33938e-09
1.08735e-10
8.27972e-09
1.04383e-10
8.2234e-09
9.88143e-11
8.17136e-09
9.0409e-11
8.1215e-09
8.7713e-11
8.07625e-09
7.85898e-11
8.03354e-09
7.44525e-11
7.99369e-09
7.0108e-11
7.95712e-09
6.44423e-11
7.92497e-09
5.49949e-11
7.89281e-09
5.79498e-11
7.86607e-09
4.62383e-11
7.84006e-09
4.64487e-11
7.81847e-09
3.67647e-11
7.79495e-09
4.47516e-11
7.78003e-09
2.18826e-11
3.81562e-11
2.92019e-08
4.36308e-09
-2.88836e-08
2.9723e-08
5.33802e-09
3.01218e-08
5.93192e-09
3.02724e-08
5.79619e-09
2.99837e-08
4.7748e-09
2.96081e-08
4.32013e-09
2.90461e-08
3.88688e-09
2.83979e-08
3.35179e-09
2.77428e-08
2.90343e-09
2.70775e-08
2.64042e-09
2.63929e-08
2.44509e-09
2.57019e-08
2.26008e-09
2.50319e-08
2.07167e-09
2.43969e-08
1.9e-09
2.37874e-08
1.76534e-09
2.31971e-08
1.64126e-09
2.2625e-08
1.53008e-09
2.20729e-08
1.44079e-09
2.1555e-08
1.33178e-09
2.10685e-08
1.23709e-09
2.06002e-08
1.17886e-09
2.01517e-08
1.11251e-09
1.97247e-08
1.04333e-09
1.93183e-08
9.84972e-10
1.8931e-08
9.33069e-10
1.85613e-08
8.84707e-10
1.8207e-08
8.41576e-10
1.78683e-08
7.99692e-10
1.75432e-08
7.64529e-10
1.72316e-08
7.30053e-10
1.69356e-08
6.88372e-10
1.66536e-08
6.51684e-10
1.63814e-08
6.28203e-10
1.61191e-08
6.03386e-10
1.5867e-08
5.78022e-10
1.56256e-08
5.52074e-10
1.53945e-08
5.27031e-10
1.51722e-08
5.05803e-10
1.49588e-08
4.84363e-10
1.47539e-08
4.6314e-10
1.45561e-08
4.46417e-10
1.43651e-08
4.31083e-10
1.41822e-08
4.11168e-10
1.40063e-08
3.94495e-10
1.38365e-08
3.81027e-10
1.36739e-08
3.63096e-10
1.35176e-08
3.48073e-10
1.33667e-08
3.36615e-10
1.32216e-08
3.22928e-10
1.3082e-08
3.10701e-10
1.29486e-08
2.96127e-10
1.28206e-08
2.83314e-10
1.26982e-08
2.70334e-10
1.25806e-08
2.59904e-10
1.24683e-08
2.47914e-10
1.23615e-08
2.34988e-10
1.22593e-08
2.24625e-10
1.21625e-08
2.12127e-10
1.20707e-08
2.00557e-10
1.1983e-08
1.92081e-10
1.19001e-08
1.81749e-10
1.18229e-08
1.67592e-10
1.17491e-08
1.61491e-10
1.16815e-08
1.46219e-10
1.16177e-08
1.3825e-10
1.1558e-08
1.29766e-10
1.15031e-08
1.1939e-10
1.14539e-08
1.04171e-10
1.14059e-08
1.05979e-10
1.13646e-08
8.7553e-11
1.13254e-08
8.56643e-11
1.12912e-08
7.09337e-11
1.12571e-08
7.88612e-11
1.12307e-08
4.82898e-11
6.5909e-11
3.01112e-08
4.16351e-09
-2.99117e-08
3.05699e-08
4.87934e-09
3.08441e-08
5.65774e-09
3.13599e-08
5.28034e-09
3.12268e-08
4.90799e-09
3.12904e-08
4.25648e-09
3.12313e-08
3.94595e-09
3.10075e-08
3.57561e-09
3.07487e-08
3.16223e-09
3.04464e-08
2.94278e-09
3.00932e-08
2.79826e-09
2.96885e-08
2.66476e-09
2.92554e-08
2.50484e-09
2.8823e-08
2.33237e-09
2.83948e-08
2.19351e-09
2.79593e-08
2.07676e-09
2.75069e-08
1.98248e-09
2.70376e-08
1.91005e-09
2.65768e-08
1.79261e-09
2.6136e-08
1.67788e-09
2.57034e-08
1.61147e-09
2.5277e-08
1.53893e-09
2.48572e-08
1.4631e-09
2.44471e-08
1.39509e-09
2.40495e-08
1.3307e-09
2.36634e-08
1.27082e-09
2.32868e-08
1.21812e-09
2.29209e-08
1.16566e-09
2.25642e-08
1.12121e-09
2.22176e-08
1.07662e-09
2.1885e-08
1.02102e-09
2.15653e-08
9.71329e-10
2.12541e-08
9.39373e-10
2.09509e-08
9.06638e-10
2.06556e-08
8.7332e-10
2.03699e-08
8.37751e-10
2.0095e-08
8.01945e-10
1.98295e-08
7.71278e-10
1.95733e-08
7.40636e-10
1.93258e-08
7.10557e-10
1.90855e-08
6.86803e-10
1.88516e-08
6.64906e-10
1.86264e-08
6.36394e-10
1.84089e-08
6.11953e-10
1.8198e-08
5.91925e-10
1.79952e-08
5.65909e-10
1.77994e-08
5.439e-10
1.76094e-08
5.26596e-10
1.7426e-08
5.06357e-10
1.72487e-08
4.87954e-10
1.70788e-08
4.66039e-10
1.69154e-08
4.46738e-10
1.67583e-08
4.27445e-10
1.66067e-08
4.11457e-10
1.64614e-08
3.93282e-10
1.63226e-08
3.73785e-10
1.61894e-08
3.57777e-10
1.60627e-08
3.38838e-10
1.59419e-08
3.21354e-10
1.58261e-08
3.07905e-10
1.57161e-08
2.91691e-10
1.56132e-08
2.70541e-10
1.55146e-08
2.60137e-10
1.54234e-08
2.37403e-10
1.53371e-08
2.2454e-10
1.52558e-08
2.11017e-10
1.51806e-08
1.94631e-10
1.51123e-08
1.72435e-10
1.50462e-08
1.72104e-10
1.49878e-08
1.45938e-10
1.49331e-08
1.40363e-10
1.48835e-08
1.20561e-10
1.48365e-08
1.25829e-10
1.47954e-08
8.93837e-11
1.04598e-10
3.1109e-08
3.98954e-09
-3.0935e-08
3.1414e-08
4.57434e-09
3.18456e-08
5.22611e-09
3.19842e-08
5.14177e-09
3.24003e-08
4.4919e-09
3.23474e-08
4.30934e-09
3.23707e-08
3.92269e-09
3.23328e-08
3.61347e-09
3.22942e-08
3.20082e-09
3.22172e-08
3.01983e-09
3.21058e-08
2.90959e-09
3.19407e-08
2.82984e-09
3.17308e-08
2.71473e-09
3.15088e-08
2.55438e-09
3.12895e-08
2.41284e-09
3.10598e-08
2.30645e-09
3.07997e-08
2.24256e-09
3.0497e-08
2.21275e-09
3.01757e-08
2.11396e-09
2.98604e-08
1.99318e-09
2.95458e-08
1.92607e-09
2.92275e-08
1.85722e-09
2.89004e-08
1.79023e-09
2.85677e-08
1.72777e-09
2.82363e-08
1.6621e-09
2.79069e-08
1.60016e-09
2.75777e-08
1.5474e-09
2.72501e-08
1.49326e-09
2.6923e-08
1.44822e-09
2.65982e-08
1.40143e-09
2.62814e-08
1.33787e-09
2.59736e-08
1.27915e-09
2.56711e-08
1.24186e-09
2.53719e-08
1.20582e-09
2.50745e-08
1.17069e-09
2.47811e-08
1.13111e-09
2.44952e-08
1.08786e-09
2.42171e-08
1.04945e-09
2.39471e-08
1.01056e-09
2.36851e-08
9.72565e-10
2.34282e-08
9.43741e-10
2.31753e-08
9.17794e-10
2.29291e-08
8.82574e-10
2.26896e-08
8.51517e-10
2.24557e-08
8.25757e-10
2.22297e-08
7.91898e-10
2.20104e-08
7.63268e-10
2.1796e-08
7.40987e-10
2.15872e-08
7.15127e-10
2.1384e-08
6.91194e-10
2.11883e-08
6.61721e-10
2.09995e-08
6.35542e-10
2.0817e-08
6.09923e-10
2.06398e-08
5.88681e-10
2.04686e-08
5.64485e-10
2.03043e-08
5.38024e-10
2.01461e-08
5.15993e-10
1.99949e-08
4.90104e-10
1.98498e-08
4.66413e-10
1.97097e-08
4.47977e-10
1.95759e-08
4.25466e-10
1.94499e-08
3.96595e-10
1.93285e-08
3.81501e-10
1.92155e-08
3.50473e-10
1.91079e-08
3.32061e-10
1.90057e-08
3.13237e-10
1.89104e-08
2.89966e-10
1.88228e-08
2.59988e-10
1.87382e-08
2.56772e-10
1.86617e-08
2.22439e-10
1.85905e-08
2.11512e-10
1.85237e-08
1.87413e-10
1.84624e-08
1.87117e-10
1.84044e-08
1.47411e-10
1.56204e-10
3.21464e-08
3.79556e-09
-3.19525e-08
3.23346e-08
4.38622e-09
3.28123e-08
4.74836e-09
3.2832e-08
5.12204e-09
3.33759e-08
3.94807e-09
3.31551e-08
4.53011e-09
3.32861e-08
3.79169e-09
3.33335e-08
3.566e-09
3.33502e-08
3.18415e-09
3.33531e-08
3.01691e-09
3.33411e-08
2.92168e-09
3.32914e-08
2.87947e-09
3.32068e-08
2.79938e-09
3.31169e-08
2.64423e-09
3.30391e-08
2.49071e-09
3.296e-08
2.38551e-09
3.28554e-08
2.34722e-09
3.27041e-08
2.36396e-09
3.25228e-08
2.29535e-09
3.2341e-08
2.17497e-09
3.21584e-08
2.1086e-09
3.19709e-08
2.04479e-09
3.17675e-08
1.99365e-09
3.15492e-08
1.94604e-09
3.13245e-08
1.88678e-09
3.10952e-08
1.82948e-09
3.08585e-08
1.78407e-09
3.0616e-08
1.73578e-09
3.03657e-08
1.69851e-09
3.01091e-08
1.65804e-09
2.98529e-08
1.59401e-09
2.96007e-08
1.53136e-09
2.9351e-08
1.49155e-09
2.91006e-08
1.45628e-09
2.88453e-08
1.42601e-09
2.85858e-08
1.39054e-09
2.83268e-08
1.34688e-09
2.80708e-08
1.30553e-09
2.78204e-08
1.26094e-09
2.75767e-08
1.2162e-09
2.73359e-08
1.18462e-09
2.70952e-08
1.15845e-09
2.68571e-08
1.12065e-09
2.66221e-08
1.08652e-09
2.63901e-08
1.05782e-09
2.61644e-08
1.01753e-09
2.59445e-08
9.83158e-10
2.57279e-08
9.57578e-10
2.55144e-08
9.28714e-10
2.53036e-08
9.01975e-10
2.50989e-08
8.66357e-10
2.49008e-08
8.33682e-10
2.47085e-08
8.02236e-10
2.45202e-08
7.76921e-10
2.43365e-08
7.48276e-10
2.41587e-08
7.15782e-10
2.39865e-08
6.88228e-10
2.38211e-08
6.55435e-10
2.36617e-08
6.25819e-10
2.35064e-08
6.03343e-10
2.33566e-08
5.75219e-10
2.32144e-08
5.38825e-10
2.30765e-08
5.19357e-10
2.29471e-08
4.79871e-10
2.28234e-08
4.55763e-10
2.27045e-08
4.32155e-10
2.25926e-08
4.01857e-10
2.24886e-08
3.63991e-10
2.23879e-08
3.57461e-10
2.2295e-08
3.15371e-10
2.22089e-08
2.97568e-10
2.21255e-08
2.70797e-10
2.20505e-08
2.622e-10
2.19755e-08
2.22352e-10
2.21139e-10
3.31845e-08
3.58727e-09
-3.29762e-08
3.33351e-08
4.23557e-09
3.37641e-08
4.3194e-09
3.3822e-08
5.06416e-09
3.41773e-08
3.59272e-09
3.41848e-08
4.52266e-09
3.42534e-08
3.7231e-09
3.43052e-08
3.51413e-09
3.43249e-08
3.16448e-09
3.43352e-08
3.00659e-09
3.43391e-08
2.91778e-09
3.43315e-08
2.88711e-09
3.4303e-08
2.82783e-09
3.42743e-08
2.67295e-09
3.42594e-08
2.50559e-09
3.42484e-08
2.39649e-09
3.42239e-08
2.37178e-09
3.41609e-08
2.42697e-09
3.40736e-08
2.38265e-09
3.39885e-08
2.26e-09
3.39035e-08
2.19362e-09
3.3816e-08
2.13229e-09
3.37125e-08
2.09711e-09
3.3594e-08
2.06459e-09
3.34694e-08
2.01141e-09
3.33396e-08
1.95925e-09
3.32003e-08
1.92338e-09
3.30524e-08
1.88366e-09
3.28926e-08
1.85832e-09
3.27211e-08
1.8295e-09
3.25444e-08
1.77072e-09
3.23678e-08
1.70805e-09
3.2193e-08
1.66625e-09
3.20163e-08
1.63303e-09
3.18312e-08
1.61115e-09
3.16357e-08
1.58601e-09
3.14331e-08
1.54944e-09
3.12268e-08
1.51183e-09
3.1022e-08
1.46575e-09
3.08229e-08
1.41531e-09
3.06254e-08
1.38209e-09
3.04253e-08
1.35856e-09
3.02236e-08
1.32241e-09
3.00201e-08
1.29001e-09
2.98148e-08
1.26305e-09
2.96131e-08
1.21925e-09
2.94161e-08
1.18017e-09
2.92213e-08
1.1524e-09
2.90266e-08
1.1234e-09
2.88305e-08
1.09812e-09
2.86369e-08
1.05987e-09
2.84482e-08
1.0224e-09
2.82645e-08
9.85956e-10
2.80836e-08
9.57801e-10
2.79048e-08
9.27084e-10
2.77296e-08
8.90959e-10
2.75581e-08
8.5973e-10
2.73927e-08
8.20832e-10
2.72328e-08
7.85804e-10
2.70754e-08
7.60718e-10
2.69219e-08
7.28666e-10
2.67746e-08
6.86189e-10
2.66303e-08
6.63617e-10
2.64938e-08
6.16347e-10
2.63627e-08
5.86874e-10
2.62352e-08
5.5966e-10
2.6114e-08
5.2304e-10
2.59999e-08
4.7813e-10
2.58891e-08
4.68304e-10
2.57847e-08
4.19732e-10
2.56883e-08
3.93919e-10
2.55924e-08
3.66727e-10
2.55068e-08
3.47848e-10
2.54181e-08
3.10984e-10
2.9746e-10
3.42176e-08
3.41061e-09
-3.40409e-08
3.44037e-08
4.04949e-09
3.47096e-08
4.01346e-09
3.48694e-08
4.90436e-09
3.49855e-08
3.47659e-09
3.52347e-08
4.27348e-09
3.52145e-08
3.74333e-09
3.52923e-08
3.43632e-09
3.53184e-08
3.13837e-09
3.53218e-08
3.00323e-09
3.53223e-08
2.91725e-09
3.53272e-08
2.8822e-09
3.53199e-08
2.83511e-09
3.53134e-08
2.67945e-09
3.53178e-08
2.5012e-09
3.5321e-08
2.39332e-09
3.53206e-08
2.37218e-09
3.5293e-08
2.45461e-09
3.52538e-08
2.42185e-09
3.52256e-08
2.28813e-09
3.51939e-08
2.22535e-09
3.51604e-08
2.16581e-09
3.51124e-08
2.14511e-09
3.50542e-08
2.12275e-09
3.49963e-08
2.06935e-09
3.49376e-08
2.01794e-09
3.48709e-08
1.99005e-09
3.47973e-08
1.95733e-09
3.47123e-08
1.94329e-09
3.46146e-08
1.92723e-09
3.45086e-08
1.87673e-09
3.44007e-08
1.81587e-09
3.4297e-08
1.76993e-09
3.41929e-08
1.73718e-09
3.40808e-08
1.72323e-09
3.39567e-08
1.71011e-09
3.38211e-08
1.68508e-09
3.3676e-08
1.65689e-09
3.35278e-08
1.61393e-09
3.33845e-08
1.55862e-09
3.32431e-08
1.52355e-09
3.30983e-08
1.5033e-09
3.29497e-08
1.47103e-09
3.27958e-08
1.44392e-09
3.26354e-08
1.42349e-09
3.24744e-08
1.38025e-09
3.23166e-08
1.33791e-09
3.21611e-08
1.30793e-09
3.20044e-08
1.28014e-09
3.18424e-08
1.26008e-09
3.16784e-08
1.22383e-09
3.15161e-08
1.18474e-09
3.13573e-08
1.14478e-09
3.12005e-08
1.11455e-09
3.10439e-08
1.08367e-09
3.08881e-08
1.0468e-09
3.07329e-08
1.01496e-09
3.05818e-08
9.7189e-10
3.04354e-08
9.32188e-10
3.02904e-08
9.05693e-10
3.01475e-08
8.71567e-10
3.00084e-08
8.25327e-10
2.98701e-08
8.01895e-10
2.97379e-08
7.4854e-10
2.96103e-08
7.14528e-10
2.94848e-08
6.85179e-10
2.93643e-08
6.43538e-10
2.92491e-08
5.93315e-10
2.91366e-08
5.80799e-10
2.90285e-08
5.27787e-10
2.8929e-08
4.93446e-10
2.88275e-08
4.68217e-10
2.87371e-08
4.38234e-10
2.86413e-08
4.06848e-10
3.80738e-10
3.52724e-08
3.28535e-09
-3.51471e-08
3.5487e-08
3.83483e-09
3.56673e-08
3.83324e-09
3.5923e-08
4.64865e-09
3.59302e-08
3.46939e-09
3.62164e-08
3.98721e-09
3.62275e-08
3.73226e-09
3.63125e-08
3.35135e-09
3.63247e-08
3.12616e-09
3.6334e-08
2.99396e-09
3.63397e-08
2.91151e-09
3.63436e-08
2.87831e-09
3.63422e-08
2.83648e-09
3.63453e-08
2.67636e-09
3.6361e-08
2.48554e-09
3.63618e-08
2.39247e-09
3.63537e-08
2.38028e-09
3.63387e-08
2.46962e-09
3.63267e-08
2.43384e-09
3.63229e-08
2.29191e-09
3.63122e-08
2.23613e-09
3.62974e-08
2.1806e-09
3.62711e-08
2.17134e-09
3.62405e-08
2.15336e-09
3.6216e-08
2.09384e-09
3.61958e-08
2.03818e-09
3.61699e-08
2.01599e-09
3.61402e-08
1.98695e-09
3.61028e-08
1.98075e-09
3.60543e-08
1.97573e-09
3.59961e-08
1.93491e-09
3.59353e-08
1.87662e-09
3.58828e-08
1.82246e-09
3.58327e-08
1.78733e-09
3.57773e-08
1.77861e-09
3.57119e-08
1.77545e-09
3.56346e-08
1.76238e-09
3.55452e-08
1.74633e-09
3.54493e-08
1.70985e-09
3.5358e-08
1.6499e-09
3.52693e-08
1.61219e-09
3.51784e-08
1.59425e-09
3.50838e-08
1.56568e-09
3.49829e-08
1.54479e-09
3.48728e-08
1.53362e-09
3.47585e-08
1.49454e-09
3.46456e-08
1.45074e-09
3.45357e-08
1.41788e-09
3.4425e-08
1.39085e-09
3.43074e-08
1.37766e-09
3.41841e-08
1.34708e-09
3.4059e-08
1.30987e-09
3.39352e-08
1.2686e-09
3.3813e-08
1.23679e-09
3.369e-08
1.20659e-09
3.35659e-08
1.17097e-09
3.34392e-08
1.14159e-09
3.3314e-08
1.09717e-09
3.31921e-08
1.05405e-09
3.30709e-08
1.02693e-09
3.29506e-08
9.9187e-10
3.28318e-08
9.44066e-10
3.27114e-08
9.22331e-10
3.25945e-08
8.65474e-10
3.24806e-08
8.28361e-10
3.23675e-08
7.98342e-10
3.22579e-08
7.5311e-10
3.21516e-08
6.99643e-10
3.20468e-08
6.8555e-10
3.19439e-08
6.30648e-10
3.18492e-08
5.88145e-10
3.17506e-08
5.66853e-10
3.16627e-08
5.26189e-10
3.15681e-08
5.01436e-10
4.64746e-10
3.63649e-08
3.17991e-09
-3.62595e-08
3.65565e-08
3.64325e-09
3.67118e-08
3.67788e-09
3.69469e-08
4.41357e-09
3.69794e-08
3.43697e-09
3.72384e-08
3.72821e-09
3.72579e-08
3.71273e-09
3.7354e-08
3.25518e-09
3.73701e-08
3.11006e-09
3.73786e-08
2.98552e-09
3.73813e-08
2.9088e-09
3.73839e-08
2.87575e-09
3.73867e-08
2.83366e-09
3.7406e-08
2.657e-09
3.7425e-08
2.46663e-09
3.74186e-08
2.39885e-09
3.73999e-08
2.39892e-09
3.73898e-08
2.47975e-09
3.73932e-08
2.43046e-09
3.73951e-08
2.28997e-09
3.73909e-08
2.24033e-09
3.73786e-08
2.19295e-09
3.73603e-08
2.1896e-09
3.73411e-08
2.17253e-09
3.73293e-08
2.10564e-09
3.73237e-08
2.04379e-09
3.73156e-08
2.02412e-09
3.73069e-08
1.99565e-09
3.7294e-08
1.99364e-09
3.72714e-08
1.99831e-09
3.72382e-08
1.96814e-09
3.7202e-08
1.91286e-09
3.7179e-08
1.84543e-09
3.71607e-08
1.80568e-09
3.71397e-08
1.79957e-09
3.71119e-08
1.80322e-09
3.70745e-08
1.79985e-09
3.70252e-08
1.7956e-09
3.69679e-08
1.76712e-09
3.69159e-08
1.70197e-09
3.6867e-08
1.66101e-09
3.68172e-08
1.64407e-09
3.67651e-08
1.61779e-09
3.6708e-08
1.60192e-09
3.66415e-08
1.60004e-09
3.65694e-08
1.56668e-09
3.64974e-08
1.52276e-09
3.64288e-08
1.48642e-09
3.63607e-08
1.45898e-09
3.62861e-08
1.45224e-09
3.62044e-08
1.42883e-09
3.61186e-08
1.39562e-09
3.60321e-08
1.35515e-09
3.59466e-08
1.32223e-09
3.58603e-08
1.29289e-09
3.57721e-08
1.25915e-09
3.56797e-08
1.23403e-09
3.5586e-08
1.19089e-09
3.5494e-08
1.146e-09
3.54021e-08
1.11888e-09
3.53108e-08
1.08318e-09
3.52198e-08
1.0351e-09
3.51252e-08
1.01689e-09
3.50314e-08
9.59217e-10
3.49388e-08
9.2098e-10
3.48455e-08
8.9166e-10
3.47545e-08
8.44116e-10
3.46651e-08
7.89088e-10
3.4576e-08
7.74618e-10
3.44863e-08
7.2034e-10
3.44034e-08
6.71061e-10
3.43152e-08
6.55015e-10
3.42362e-08
6.052e-10
3.41512e-08
5.86412e-10
5.42901e-10
3.74899e-08
3.08088e-09
-3.73909e-08
3.76411e-08
3.49207e-09
3.78086e-08
3.51042e-09
3.80032e-08
4.21889e-09
3.80709e-08
3.36931e-09
3.82644e-08
3.53473e-09
3.83594e-08
3.61773e-09
3.84195e-08
3.1951e-09
3.84471e-08
3.08241e-09
3.846e-08
2.97261e-09
3.84528e-08
2.916e-09
3.84512e-08
2.87742e-09
3.84634e-08
2.8214e-09
3.85013e-08
2.61907e-09
3.85115e-08
2.45651e-09
3.84984e-08
2.41187e-09
3.84789e-08
2.41849e-09
3.84714e-08
2.48721e-09
3.84831e-08
2.41878e-09
3.84863e-08
2.28679e-09
3.8482e-08
2.24464e-09
3.84702e-08
2.20471e-09
3.84531e-08
2.20668e-09
3.84377e-08
2.18793e-09
3.84273e-08
2.11609e-09
3.84271e-08
2.04394e-09
3.84257e-08
2.02557e-09
3.84262e-08
1.99515e-09
3.84227e-08
1.99711e-09
3.84102e-08
2.01084e-09
3.83885e-08
1.98979e-09
3.8362e-08
1.93941e-09
3.83545e-08
1.85286e-09
3.83497e-08
1.81058e-09
3.83449e-08
1.80428e-09
3.83359e-08
1.81229e-09
3.83203e-08
1.81545e-09
3.8295e-08
1.82085e-09
3.82617e-08
1.80042e-09
3.82346e-08
1.72914e-09
3.82104e-08
1.6852e-09
3.81859e-08
1.66849e-09
3.81605e-08
1.64323e-09
3.81321e-08
1.63028e-09
3.80963e-08
1.63585e-09
3.80555e-08
1.60749e-09
3.80146e-08
1.56371e-09
3.79776e-08
1.52337e-09
3.79415e-08
1.49509e-09
3.79001e-08
1.49362e-09
3.78521e-08
1.47689e-09
3.78001e-08
1.44763e-09
3.77462e-08
1.40902e-09
3.76932e-08
1.3752e-09
3.76391e-08
1.34699e-09
3.75832e-08
1.31507e-09
3.7523e-08
1.29426e-09
3.74601e-08
1.25378e-09
3.73975e-08
1.20854e-09
3.73344e-08
1.182e-09
3.7272e-08
1.14556e-09
3.72095e-08
1.09765e-09
3.71429e-08
1.0835e-09
3.70753e-08
1.02676e-09
3.70069e-08
9.89403e-10
3.69366e-08
9.61961e-10
3.68674e-08
9.1332e-10
3.67989e-08
8.57631e-10
3.67299e-08
8.43604e-10
3.66585e-08
7.91681e-10
3.65918e-08
7.37772e-10
3.65192e-08
7.27664e-10
3.64532e-08
6.71137e-10
3.63837e-08
6.55979e-10
6.09995e-10
3.86457e-08
2.98652e-09
-3.85514e-08
3.87531e-08
3.38466e-09
3.89439e-08
3.31965e-09
3.90951e-08
4.06768e-09
3.91779e-08
3.28651e-09
3.93791e-08
3.33357e-09
3.9463e-08
3.53377e-09
3.9516e-08
3.14211e-09
3.95466e-08
3.05178e-09
3.95607e-08
2.95851e-09
3.95542e-08
2.92257e-09
3.95582e-08
2.87341e-09
3.95834e-08
2.79618e-09
3.96232e-08
2.57931e-09
3.96197e-08
2.46001e-09
3.96041e-08
2.42742e-09
3.95906e-08
2.43204e-09
3.95895e-08
2.48827e-09
3.96034e-08
2.40492e-09
3.96046e-08
2.28551e-09
3.95991e-08
2.25017e-09
3.95876e-08
2.21622e-09
3.95713e-08
2.22301e-09
3.95608e-08
2.19841e-09
3.95491e-08
2.12774e-09
3.9548e-08
2.04509e-09
3.95487e-08
2.02486e-09
3.9553e-08
1.99082e-09
3.95522e-08
1.99789e-09
3.95411e-08
2.022e-09
3.95231e-08
2.00774e-09
3.95044e-08
1.95812e-09
3.95018e-08
1.8555e-09
3.95012e-08
1.81116e-09
3.95014e-08
1.80402e-09
3.94993e-08
1.81439e-09
3.94937e-08
1.82113e-09
3.94808e-08
1.83375e-09
3.94607e-08
1.8205e-09
3.94475e-08
1.74229e-09
3.94351e-08
1.69759e-09
3.94233e-08
1.68033e-09
3.94111e-08
1.65546e-09
3.93979e-08
1.64346e-09
3.93797e-08
1.65402e-09
3.93588e-08
1.62842e-09
3.9338e-08
1.58449e-09
3.93219e-08
1.53948e-09
3.93057e-08
1.51127e-09
3.92849e-08
1.5144e-09
3.92591e-08
1.50275e-09
3.92314e-08
1.47534e-09
3.92019e-08
1.43852e-09
3.91736e-08
1.4035e-09
3.91434e-08
1.37715e-09
3.91112e-08
1.34732e-09
3.90758e-08
1.32964e-09
3.90381e-08
1.2915e-09
3.90001e-08
1.24654e-09
3.89611e-08
1.221e-09
3.89227e-08
1.18391e-09
3.88841e-08
1.1363e-09
3.88419e-08
1.12563e-09
3.87985e-08
1.07018e-09
3.87529e-08
1.03505e-09
3.87046e-08
1.01021e-09
3.86561e-08
9.61853e-10
3.8608e-08
9.05746e-10
3.85591e-08
8.92445e-10
3.85075e-08
8.43308e-10
3.84583e-08
7.87005e-10
3.84029e-08
7.83035e-10
3.83512e-08
7.22883e-10
3.82989e-08
7.08221e-10
6.6345e-10
3.98328e-08
2.89375e-09
-3.974e-08
3.99052e-08
3.31219e-09
4.01141e-08
3.11076e-09
4.02255e-08
3.95632e-09
4.03203e-08
3.19172e-09
4.04905e-08
3.16335e-09
4.0599e-08
3.42527e-09
4.0647e-08
3.09408e-09
4.06793e-08
3.01948e-09
4.06885e-08
2.94938e-09
4.06884e-08
2.92264e-09
4.07061e-08
2.85571e-09
4.07419e-08
2.76034e-09
4.07661e-08
2.55516e-09
4.07544e-08
2.47171e-09
4.07439e-08
2.43797e-09
4.07398e-08
2.43606e-09
4.07448e-08
2.48329e-09
4.07505e-08
2.39922e-09
4.07501e-08
2.28596e-09
4.07451e-08
2.25513e-09
4.07363e-08
2.22507e-09
4.07226e-08
2.23665e-09
4.07145e-08
2.20653e-09
4.0701e-08
2.14127e-09
4.06979e-08
2.04809e-09
4.06995e-08
2.02333e-09
4.07076e-08
1.98273e-09
4.07062e-08
1.99932e-09
4.06952e-08
2.03298e-09
4.06775e-08
2.02542e-09
4.06635e-08
1.97216e-09
4.06622e-08
1.85672e-09
4.06612e-08
1.81217e-09
4.06626e-08
1.8026e-09
4.06619e-08
1.81511e-09
4.06596e-08
1.82348e-09
4.06518e-08
1.84148e-09
4.06397e-08
1.83268e-09
4.06342e-08
1.74778e-09
4.06255e-08
1.70622e-09
4.06177e-08
1.68822e-09
4.06102e-08
1.66294e-09
4.06036e-08
1.65006e-09
4.05938e-08
1.66374e-09
4.05848e-08
1.6375e-09
4.05756e-08
1.59364e-09
4.05707e-08
1.54438e-09
4.05645e-08
1.51745e-09
4.05539e-08
1.52502e-09
4.054e-08
1.51665e-09
4.05275e-08
1.48788e-09
4.05138e-08
1.45219e-09
4.05017e-08
1.41566e-09
4.04867e-08
1.3921e-09
4.04689e-08
1.36513e-09
4.04493e-08
1.34919e-09
4.04293e-08
1.31153e-09
4.04091e-08
1.26675e-09
4.03877e-08
1.24238e-09
4.03664e-08
1.20525e-09
4.03442e-08
1.15844e-09
4.03199e-08
1.14995e-09
4.02953e-08
1.09481e-09
4.02679e-08
1.06243e-09
4.0238e-08
1.04012e-09
4.02062e-08
9.93693e-10
4.01747e-08
9.37231e-10
4.01425e-08
9.24566e-10
4.01085e-08
8.77334e-10
4.00752e-08
8.20335e-10
4.0036e-08
8.22214e-10
3.99971e-08
7.6178e-10
3.99605e-08
7.44856e-10
7.03519e-10
4.10457e-08
2.81732e-09
-4.09693e-08
4.10974e-08
3.26052e-09
4.13208e-08
2.88738e-09
4.13861e-08
3.89094e-09
4.1496e-08
3.0819e-09
4.16499e-08
3.00941e-09
4.17619e-08
3.31324e-09
4.18111e-08
3.0449e-09
4.18435e-08
2.98708e-09
4.18577e-08
2.9352e-09
4.18594e-08
2.9209e-09
4.18862e-08
2.82894e-09
4.19314e-08
2.71512e-09
4.19383e-08
2.54832e-09
4.19266e-08
2.48338e-09
4.19197e-08
2.44486e-09
4.1924e-08
2.43176e-09
4.19314e-08
2.47592e-09
4.19272e-08
2.40337e-09
4.19266e-08
2.28653e-09
4.19217e-08
2.26009e-09
4.19173e-08
2.22945e-09
4.1908e-08
2.24592e-09
4.19012e-08
2.21333e-09
4.18846e-08
2.15795e-09
4.18816e-08
2.05108e-09
4.18843e-08
2.02064e-09
4.1893e-08
1.97398e-09
4.18927e-08
1.99961e-09
4.18795e-08
2.0462e-09
4.18613e-08
2.04363e-09
4.18515e-08
1.98194e-09
4.18507e-08
1.85753e-09
4.1849e-08
1.81388e-09
4.18507e-08
1.80093e-09
4.18491e-08
1.81666e-09
4.18474e-08
1.8252e-09
4.18399e-08
1.84893e-09
4.18338e-08
1.83878e-09
4.183e-08
1.75161e-09
4.18236e-08
1.71258e-09
4.18152e-08
1.69667e-09
4.1807e-08
1.6711e-09
4.18037e-08
1.65337e-09
4.17987e-08
1.66871e-09
4.17957e-08
1.64055e-09
4.17944e-08
1.59491e-09
4.17932e-08
1.54565e-09
4.179e-08
1.52062e-09
4.17833e-08
1.53168e-09
4.17756e-08
1.52433e-09
4.17715e-08
1.49203e-09
4.17665e-08
1.45723e-09
4.17633e-08
1.41885e-09
4.17555e-08
1.39981e-09
4.17457e-08
1.375e-09
4.17349e-08
1.35994e-09
4.17258e-08
1.32063e-09
4.17169e-08
1.27572e-09
4.17067e-08
1.25256e-09
4.16958e-08
1.21611e-09
4.1683e-08
1.17123e-09
4.16693e-08
1.16365e-09
4.16572e-08
1.10695e-09
4.16425e-08
1.07712e-09
4.16261e-08
1.05657e-09
4.16061e-08
1.01366e-09
4.15861e-08
9.57188e-10
4.15656e-08
9.45116e-10
4.1545e-08
8.97889e-10
4.15242e-08
8.41159e-10
4.14983e-08
8.48093e-10
4.14697e-08
7.90428e-10
4.14447e-08
7.69786e-10
7.32555e-10
4.22669e-08
2.80109e-09
-4.22507e-08
4.23355e-08
3.19193e-09
4.25464e-08
2.67643e-09
4.25893e-08
3.84813e-09
4.27077e-08
2.96348e-09
4.28429e-08
2.87417e-09
4.29576e-08
3.19854e-09
4.30053e-08
2.99726e-09
4.304e-08
2.95232e-09
4.30555e-08
2.91975e-09
4.30692e-08
2.9072e-09
4.31039e-08
2.79417e-09
4.31496e-08
2.66944e-09
4.31438e-08
2.55419e-09
4.31345e-08
2.49266e-09
4.31347e-08
2.44462e-09
4.31412e-08
2.42529e-09
4.31442e-08
2.47293e-09
4.31345e-08
2.41307e-09
4.31339e-08
2.28712e-09
4.31322e-08
2.2618e-09
4.31311e-08
2.23051e-09
4.31254e-08
2.25164e-09
4.31182e-08
2.22052e-09
4.31044e-08
2.17174e-09
4.3101e-08
2.05454e-09
4.31073e-08
2.01428e-09
4.31088e-08
1.97253e-09
4.31078e-08
2.00062e-09
4.30978e-08
2.05614e-09
4.30703e-08
2.0712e-09
4.30797e-08
1.97248e-09
4.30709e-08
1.86635e-09
4.30696e-08
1.81522e-09
4.30707e-08
1.79982e-09
4.30682e-08
1.81914e-09
4.30664e-08
1.82699e-09
4.30577e-08
1.85766e-09
4.30575e-08
1.83892e-09
4.30506e-08
1.75858e-09
4.30456e-08
1.71752e-09
4.30378e-08
1.7045e-09
4.3029e-08
1.6799e-09
4.30251e-08
1.65727e-09
4.30234e-08
1.67038e-09
4.30236e-08
1.64042e-09
4.30243e-08
1.59417e-09
4.30238e-08
1.54614e-09
4.30211e-08
1.52332e-09
4.30165e-08
1.5363e-09
4.30117e-08
1.52914e-09
4.30124e-08
1.49126e-09
4.30103e-08
1.45934e-09
4.30119e-08
1.4173e-09
4.30058e-08
1.40588e-09
4.30007e-08
1.38015e-09
4.29959e-08
1.3647e-09
4.29917e-08
1.32487e-09
4.2989e-08
1.27835e-09
4.29844e-08
1.25718e-09
4.29787e-08
1.22181e-09
4.29706e-08
1.17931e-09
4.29623e-08
1.17195e-09
4.2957e-08
1.11231e-09
4.29498e-08
1.08431e-09
4.29421e-08
1.06431e-09
4.29298e-08
1.02595e-09
4.2917e-08
9.69964e-10
4.2903e-08
9.59074e-10
4.28913e-08
9.09565e-10
4.2879e-08
8.53466e-10
4.2863e-08
8.64112e-10
4.28415e-08
8.11934e-10
4.28242e-08
7.87071e-10
7.53773e-10
4.3505e-08
2.86099e-09
-4.35649e-08
4.36364e-08
3.06049e-09
4.37596e-08
2.55323e-09
4.38644e-08
3.74328e-09
4.39837e-08
2.8442e-09
4.40692e-08
2.78867e-09
4.41934e-08
3.0744e-09
4.42396e-08
2.95101e-09
4.42786e-08
2.9133e-09
4.42973e-08
2.90111e-09
4.43121e-08
2.89238e-09
4.43556e-08
2.75069e-09
4.43936e-08
2.63139e-09
4.43824e-08
2.56547e-09
4.43763e-08
2.49874e-09
4.43859e-08
2.43498e-09
4.43917e-08
2.41953e-09
4.43893e-08
2.47528e-09
4.43837e-08
2.41873e-09
4.43786e-08
2.2922e-09
4.43767e-08
2.26364e-09
4.43767e-08
2.23059e-09
4.43752e-08
2.2531e-09
4.43679e-08
2.22782e-09