/*--------------------------------*- C++ -*----------------------------------*\
| =========                 |                                                 |
| \\      /  F ield         | OpenFOAM: The Open Source CFD Toolbox           |
|  \\    /   O peration     | Version:  2.3.0                                 |
|   \\  /    A nd           | Web:      www.OpenFOAM.org                      |
|    \\/     M anipulation  |                                                 |
\*---------------------------------------------------------------------------*/
FoamFile
{
    version     2.0;
    format      ascii;
    class       surfaceScalarField;
    location    "0.4";
    object      phi_0;
}
// * * * * * * * * * * * * * * * * * * * * * * * * * * * * * * * * * * * * * //

dimensions      [0 3 -1 0 0 0 0];

internalField   nonuniform List<scalar> 
17305
(
2.83742e-08
2.87901e-09
-3.12532e-08
2.55106e-08
2.86359e-09
2.28232e-08
2.68736e-09
2.03459e-08
2.47731e-09
1.80947e-08
2.25119e-09
1.60802e-08
2.01447e-09
1.43049e-08
1.7753e-09
1.27635e-08
1.54146e-09
1.1444e-08
1.3195e-09
1.03292e-08
1.11475e-09
9.39808e-09
9.31147e-10
8.6271e-09
7.70974e-10
7.99223e-09
6.34869e-10
7.47023e-09
5.22007e-10
7.03978e-09
4.30443e-10
6.68226e-09
3.57522e-10
6.38199e-09
3.00278e-10
6.12623e-09
2.55758e-10
5.90497e-09
2.21258e-10
5.71052e-09
1.94447e-10
5.5371e-09
1.73418e-10
5.38043e-09
1.56672e-10
5.23736e-09
1.43075e-10
5.10557e-09
1.31789e-10
4.98335e-09
1.22216e-10
4.86942e-09
1.13932e-10
4.76278e-09
1.06642e-10
4.66264e-09
1.0014e-10
4.56836e-09
9.42827e-11
4.47939e-09
8.89671e-11
4.39527e-09
8.4117e-11
4.3156e-09
7.96739e-11
4.24001e-09
7.55909e-11
4.16818e-09
7.18289e-11
4.09982e-09
6.83544e-11
4.03468e-09
6.51383e-11
3.97253e-09
6.21546e-11
3.91315e-09
5.93805e-11
3.85635e-09
5.67951e-11
3.80197e-09
5.43802e-11
3.74986e-09
5.21192e-11
3.69986e-09
4.99975e-11
3.65186e-09
4.80019e-11
3.60574e-09
4.61205e-11
3.56139e-09
4.43428e-11
3.51873e-09
4.26594e-11
3.47767e-09
4.10616e-11
3.43813e-09
3.95417e-11
3.40004e-09
3.80928e-11
3.36333e-09
3.67085e-11
3.32795e-09
3.53831e-11
3.29383e-09
3.41112e-11
3.26095e-09
3.2888e-11
3.22924e-09
3.17091e-11
3.19867e-09
3.05703e-11
3.1692e-09
2.94678e-11
3.1408e-09
2.83981e-11
3.11344e-09
2.73578e-11
3.0871e-09
2.63439e-11
3.06175e-09
2.53534e-11
3.03736e-09
2.43836e-11
3.01393e-09
2.34319e-11
2.99143e-09
2.24958e-11
2.96986e-09
2.15731e-11
2.9492e-09
2.06614e-11
2.92944e-09
1.97588e-11
2.91058e-09
1.88632e-11
2.8926e-09
1.79732e-11
2.87552e-09
1.70872e-11
2.85931e-09
1.6204e-11
2.84399e-09
1.53226e-11
2.82955e-09
1.44417e-11
2.81599e-09
1.35594e-11
2.80332e-09
1.26727e-11
2.79154e-09
1.17765e-11
2.78068e-09
1.08632e-11
2.77075e-09
9.9222e-12
2.76181e-09
8.9402e-12
2.75391e-09
7.90229e-12
2.74712e-09
6.7942e-12
2.74151e-09
5.60567e-12
2.73718e-09
4.33542e-12
2.73419e-09
2.99206e-12
2.73259e-09
1.59302e-12
2.73235e-09
2.46368e-13
2.73311e-09
-7.64259e-13
2.73461e-09
-1.50129e-12
2.73664e-09
-2.03003e-12
2.73903e-09
-2.38688e-12
2.74162e-09
-2.59305e-12
2.7443e-09
-2.67405e-12
2.74696e-09
-2.66095e-12
2.74952e-09
-2.56709e-12
2.75194e-09
-2.41581e-12
2.75416e-09
-2.22551e-12
2.75616e-09
-2.00041e-12
2.75791e-09
-1.74052e-12
2.75935e-09
-1.4461e-12
2.76051e-09
-1.16217e-12
-1.13198e-12
3.34127e-08
3.15014e-09
-3.36838e-08
3.28279e-08
3.44838e-09
3.20112e-08
3.5041e-09
3.10393e-08
3.44922e-09
2.99676e-08
3.32286e-09
2.88417e-08
3.14037e-09
2.76985e-08
2.91855e-09
2.65661e-08
2.67377e-09
2.54657e-08
2.41998e-09
2.44117e-08
2.1687e-09
2.34138e-08
1.92903e-09
2.24773e-08
1.70752e-09
2.1604e-08
1.50812e-09
2.07936e-08
1.33245e-09
2.00438e-08
1.18027e-09
1.93513e-08
1.05004e-09
1.87121e-08
9.39425e-10
1.81221e-08
8.45773e-10
1.75769e-08
7.6642e-10
1.70725e-08
6.98908e-10
1.66048e-08
6.41093e-10
1.61703e-08
5.91177e-10
1.57657e-08
5.47696e-10
1.5388e-08
5.09484e-10
1.50346e-08
4.75622e-10
1.47031e-08
4.45388e-10
1.43915e-08
4.18219e-10
1.4098e-08
3.93668e-10
1.38209e-08
3.71378e-10
1.35588e-08
3.51058e-10
1.33105e-08
3.3247e-10
1.30747e-08
3.15413e-10
1.28506e-08
2.99717e-10
1.26372e-08
2.85234e-10
1.24337e-08
2.71837e-10
1.22394e-08
2.59413e-10
1.20537e-08
2.47865e-10
1.1876e-08
2.37105e-10
1.17057e-08
2.27056e-10
1.15425e-08
2.17649e-10
1.13858e-08
2.08823e-10
1.12352e-08
2.00524e-10
1.10905e-08
1.92703e-10
1.09514e-08
1.85316e-10
1.08174e-08
1.78323e-10
1.06883e-08
1.7169e-10
1.0564e-08
1.65384e-10
1.04442e-08
1.59376e-10
1.03286e-08
1.5364e-10
1.02172e-08
1.48151e-10
1.01097e-08
1.42888e-10
1.0006e-08
1.37829e-10
9.9059e-09
1.32957e-10
9.80936e-09
1.28253e-10
9.71623e-09
1.23701e-10
9.62641e-09
1.19287e-10
9.53981e-09
1.14996e-10
9.45635e-09
1.10815e-10
9.37597e-09
1.06731e-10
9.29859e-09
1.02733e-10
9.22416e-09
9.88096e-11
9.15264e-09
9.49497e-11
9.08399e-09
9.11436e-11
9.01819e-09
8.73814e-11
8.95519e-09
8.36542e-11
8.895e-09
7.99534e-11
8.83759e-09
7.62708e-11
8.78297e-09
7.25993e-11
8.73112e-09
6.89319e-11
8.68206e-09
6.52624e-11
8.6358e-09
6.15845e-11
8.59235e-09
5.7891e-11
8.55174e-09
5.4173e-11
8.51399e-09
5.04186e-11
8.47916e-09
4.66115e-11
8.44729e-09
4.27304e-11
8.41846e-09
3.87499e-11
8.39276e-09
3.46424e-11
8.37028e-09
3.03836e-11
8.35111e-09
2.59595e-11
8.33534e-09
2.13758e-11
8.32301e-09
1.66674e-11
8.3141e-09
1.19025e-11
8.30853e-09
7.16642e-12
8.30619e-09
2.58099e-12
8.30667e-09
-1.24695e-12
8.3092e-09
-4.02613e-12
8.31313e-09
-5.96042e-12
8.31801e-09
-7.26698e-12
8.32348e-09
-8.05836e-12
8.32923e-09
-8.43243e-12
8.33506e-09
-8.48965e-12
8.34078e-09
-8.28541e-12
8.34626e-09
-7.89091e-12
8.35139e-09
-7.36115e-12
8.35611e-09
-6.71585e-12
8.36033e-09
-5.96034e-12
8.36397e-09
-5.09086e-12
8.36696e-09
-4.14751e-12
-2.9995e-12
3.48082e-08
2.99663e-09
-3.46547e-08
3.48734e-08
3.38318e-09
3.48125e-08
3.56499e-09
3.46311e-08
3.6306e-09
3.43399e-08
3.61409e-09
3.3953e-08
3.5272e-09
3.3488e-08
3.38362e-09
3.29624e-08
3.19929e-09
3.23932e-08
2.98927e-09
3.1795e-08
2.76687e-09
3.11807e-08
2.54334e-09
3.05606e-08
2.32753e-09
2.99431e-08
2.12566e-09
2.93341e-08
1.94141e-09
2.87381e-08
1.77632e-09
2.81579e-08
1.63027e-09
2.75952e-08
1.50206e-09
2.70511e-08
1.38986e-09
2.6526e-08
1.29159e-09
2.60197e-08
1.20519e-09
2.5532e-08
1.12878e-09
2.50625e-08
1.06072e-09
2.46105e-08
9.99646e-10
2.41755e-08
9.44438e-10
2.3757e-08
8.94204e-10
2.33541e-08
8.48233e-10
2.29664e-08
8.05957e-10
2.25931e-08
7.66922e-10
2.22337e-08
7.30759e-10
2.18876e-08
6.97163e-10
2.15542e-08
6.65878e-10
2.1233e-08
6.36685e-10
2.09233e-08
6.09394e-10
2.06247e-08
5.83837e-10
2.03367e-08
5.59863e-10
2.00587e-08
5.3734e-10
1.97905e-08
5.16145e-10
1.95314e-08
4.96169e-10
1.92811e-08
4.77311e-10
1.90393e-08
4.59482e-10
1.88055e-08
4.42597e-10
1.85795e-08
4.26581e-10
1.83608e-08
4.11363e-10
1.81492e-08
3.9688e-10
1.79445e-08
3.83072e-10
1.77463e-08
3.69886e-10
1.75544e-08
3.57271e-10
1.73686e-08
3.45181e-10
1.71887e-08
3.33572e-10
1.70144e-08
3.22405e-10
1.68457e-08
3.11641e-10
1.66823e-08
3.01247e-10
1.6524e-08
2.91188e-10
1.63708e-08
2.81433e-10
1.62226e-08
2.71955e-10
1.60791e-08
2.62724e-10
1.59404e-08
2.53714e-10
1.58063e-08
2.449e-10
1.56768e-08
2.36259e-10
1.55518e-08
2.27767e-10
1.54312e-08
2.19403e-10
1.5315e-08
2.11144e-10
1.52032e-08
2.02971e-10
1.50957e-08
1.94865e-10
1.49925e-08
1.86806e-10
1.48937e-08
1.78777e-10
1.47992e-08
1.70761e-10
1.47091e-08
1.62741e-10
1.46233e-08
1.54704e-10
1.45419e-08
1.46634e-10
1.4465e-08
1.38517e-10
1.43926e-08
1.30337e-10
1.43247e-08
1.22076e-10
1.42614e-08
1.13711e-10
1.42028e-08
1.05216e-10
1.41489e-08
9.6559e-11
1.41e-08
8.77083e-11
1.4056e-08
7.86355e-11
1.4017e-08
6.93262e-11
1.39832e-08
5.97934e-11
1.39545e-08
5.00929e-11
1.39308e-08
4.03396e-11
1.3912e-08
3.07202e-11
1.38977e-08
2.14883e-11
1.38874e-08
1.28782e-11
1.38811e-08
4.99854e-12
1.38788e-08
-1.68117e-12
1.38794e-08
-6.60272e-12
1.38822e-08
-1.00258e-11
1.38864e-08
-1.22935e-11
1.38916e-08
-1.36468e-11
1.38974e-08
-1.43018e-11
1.39035e-08
-1.4385e-11
1.39097e-08
-1.40412e-11
1.39157e-08
-1.3382e-11
1.39215e-08
-1.24573e-11
1.39268e-08
-1.1286e-11
1.39315e-08
-9.84417e-12
1.39354e-08
-8.02952e-12
-4.9518e-12
3.56433e-08
2.80467e-09
-3.54514e-08
3.58391e-08
3.18746e-09
3.59937e-08
3.41033e-09
3.6095e-08
3.52935e-09
3.61362e-08
3.57281e-09
3.61137e-08
3.54977e-09
3.60278e-08
3.46951e-09
3.58826e-08
3.34442e-09
3.56845e-08
3.1874e-09
3.54409e-08
3.0105e-09
3.51598e-08
2.82447e-09
3.4849e-08
2.63832e-09
3.45157e-08
2.45889e-09
3.41663e-08
2.29081e-09
3.3806e-08
2.13667e-09
3.34388e-08
1.99741e-09
3.30681e-08
1.87277e-09
3.26963e-08
1.76172e-09
3.2325e-08
1.66282e-09
3.19557e-08
1.57449e-09
3.15893e-08
1.49519e-09
3.12265e-08
1.42354e-09
3.08678e-08
1.35834e-09
3.05137e-08
1.29859e-09
3.01644e-08
1.24348e-09
2.98202e-08
1.19237e-09
2.94815e-08
1.14473e-09
2.91483e-08
1.10014e-09
2.88207e-08
1.05828e-09
2.8499e-08
1.01886e-09
2.81833e-08
9.81651e-10
2.78735e-08
9.4647e-10
2.75697e-08
9.13143e-10
2.7272e-08
8.81526e-10
2.69804e-08
8.51486e-10
2.66949e-08
8.22906e-10
2.64153e-08
7.9568e-10
2.61418e-08
7.6971e-10
2.58742e-08
7.44907e-10
2.56125e-08
7.21187e-10
2.53566e-08
6.98475e-10
2.51065e-08
6.767e-10
2.48621e-08
6.55795e-10
2.46232e-08
6.35699e-10
2.439e-08
6.16353e-10
2.41621e-08
5.97705e-10
2.39397e-08
5.79702e-10
2.37226e-08
5.62296e-10
2.35107e-08
5.45441e-10
2.3304e-08
5.29094e-10
2.31025e-08
5.13213e-10
2.29059e-08
4.97759e-10
2.27144e-08
4.82692e-10
2.25279e-08
4.67977e-10
2.23463e-08
4.53578e-10
2.21695e-08
4.39461e-10
2.19977e-08
4.25592e-10
2.18306e-08
4.11939e-10
2.16684e-08
3.98471e-10
2.1511e-08
3.85156e-10
2.13585e-08
3.71965e-10
2.12107e-08
3.58869e-10
2.10679e-08
3.45838e-10
2.09299e-08
3.32845e-10
2.07968e-08
3.19863e-10
2.06687e-08
3.06865e-10
2.05457e-08
2.93826e-10
2.04277e-08
2.80722e-10
2.03149e-08
2.67529e-10
2.02073e-08
2.54225e-10
2.0105e-08
2.40787e-10
2.00082e-08
2.27189e-10
1.99168e-08
2.13406e-10
1.98311e-08
1.99408e-10
1.97512e-08
1.85161e-10
1.96771e-08
1.70634e-10
1.9609e-08
1.55796e-10
1.9547e-08
1.40635e-10
1.94912e-08
1.25164e-10
1.94415e-08
1.09444e-10
1.9398e-08
9.36e-11
1.93605e-08
7.78404e-11
1.93288e-08
6.24652e-11
1.93024e-08
4.78552e-11
1.92809e-08
3.44136e-11
1.92634e-08
2.24696e-11
1.92497e-08
1.20024e-11
1.92402e-08
2.87286e-12
1.92347e-08
-4.45879e-12
1.92321e-08
-9.67863e-12
1.92317e-08
-1.32577e-11
1.92329e-08
-1.55691e-11
1.92354e-08
-1.68343e-11
1.92387e-08
-1.7299e-11
1.92424e-08
-1.71512e-11
1.92465e-08
-1.64866e-11
1.92505e-08
-1.53504e-11
1.92544e-08
-1.36949e-11
1.92575e-08
-1.12041e-11
-6.08608e-12
3.63952e-08
2.63652e-09
-3.62271e-08
3.65934e-08
2.98931e-09
3.67855e-08
3.21824e-09
3.69587e-08
3.35607e-09
3.71057e-08
3.42582e-09
3.72193e-08
3.43621e-09
3.72945e-08
3.39435e-09
3.73291e-08
3.30982e-09
3.73232e-08
3.19321e-09
3.7279e-08
3.05472e-09
3.71998e-08
2.90373e-09
3.70897e-08
2.74838e-09
3.69534e-08
2.59519e-09
3.67954e-08
2.44888e-09
3.66196e-08
2.31244e-09
3.64296e-08
2.18735e-09
3.62285e-08
2.07396e-09
3.60184e-08
1.97183e-09
3.58012e-08
1.88001e-09
3.55783e-08
1.79734e-09
3.53509e-08
1.72261e-09
3.51198e-08
1.65466e-09
3.48856e-08
1.59247e-09
3.46491e-08
1.53517e-09
3.44105e-08
1.48201e-09
3.41705e-08
1.43241e-09
3.39293e-08
1.38588e-09
3.36874e-08
1.34205e-09
3.34451e-08
1.30059e-09
3.32027e-08
1.26126e-09
3.29605e-08
1.22384e-09
3.27188e-08
1.18817e-09
3.24779e-08
1.1541e-09
3.22379e-08
1.12148e-09
3.19992e-08
1.09022e-09
3.17619e-08
1.06021e-09
3.15262e-08
1.03136e-09
3.12923e-08
1.00358e-09
3.10604e-08
9.76801e-10
3.08307e-08
9.50955e-10
3.06032e-08
9.25974e-10
3.03781e-08
9.018e-10
3.01555e-08
8.78375e-10
2.99356e-08
8.55647e-10
2.97183e-08
8.33565e-10
2.9504e-08
8.12083e-10
2.92925e-08
7.91156e-10
2.90841e-08
7.70739e-10
2.88787e-08
7.50793e-10
2.86765e-08
7.31275e-10
2.84776e-08
7.12148e-10
2.8282e-08
6.93374e-10
2.80898e-08
6.74915e-10
2.7901e-08
6.56735e-10
2.77158e-08
6.38798e-10
2.75342e-08
6.21069e-10
2.73563e-08
6.03513e-10
2.71821e-08
5.86095e-10
2.70118e-08
5.6878e-10
2.68454e-08
5.51534e-10
2.6683e-08
5.34324e-10
2.65248e-08
5.17114e-10
2.63708e-08
4.99872e-10
2.6221e-08
4.82565e-10
2.60758e-08
4.65158e-10
2.5935e-08
4.47621e-10
2.57989e-08
4.29922e-10
2.56676e-08
4.1203e-10
2.55412e-08
3.93916e-10
2.54199e-08
3.75549e-10
2.53038e-08
3.56901e-10
2.5193e-08
3.37942e-10
2.50878e-08
3.18638e-10
2.49882e-08
2.98957e-10
2.48945e-08
2.78866e-10
2.48068e-08
2.58338e-10
2.47253e-08
2.37357e-10
2.465e-08
2.15935e-10
2.4581e-08
1.94124e-10
2.45184e-08
1.7204e-10
2.44621e-08
1.49882e-10
2.4412e-08
1.27945e-10
2.43679e-08
1.06623e-10
2.43293e-08
8.63852e-11
2.4296e-08
6.7712e-11
2.42675e-08
5.09923e-11
2.42431e-08
3.63809e-11
2.42221e-08
2.39002e-11
2.42043e-08
1.33814e-11
2.41901e-08
4.49697e-12
2.41795e-08
-2.65199e-12
2.41718e-08
-7.86268e-12
2.41664e-08
-1.14219e-11
2.41628e-08
-1.37183e-11
2.41606e-08
-1.50076e-11
2.41596e-08
-1.54337e-11
2.41593e-08
-1.50809e-11
2.41595e-08
-1.38929e-11
2.41597e-08
-1.13774e-11
-5.06159e-12
3.71406e-08
2.49456e-09
-3.69986e-08
3.7318e-08
2.81194e-09
3.75023e-08
3.03394e-09
3.76814e-08
3.17694e-09
3.7849e-08
3.2582e-09
3.79991e-08
3.28612e-09
3.81266e-08
3.2669e-09
3.8228e-08
3.20837e-09
3.83018e-08
3.11939e-09
3.83478e-08
3.00872e-09
3.83671e-08
2.88448e-09
3.83616e-08
2.75384e-09
3.8334e-08
2.62275e-09
3.82873e-08
2.49566e-09
3.82241e-08
2.37563e-09
3.81471e-08
2.26437e-09
3.80584e-08
2.16259e-09
3.796e-08
2.07022e-09
3.78534e-08
1.9867e-09
3.77395e-08
1.91118e-09
3.76194e-08
1.84272e-09
3.74937e-08
1.78037e-09
3.73629e-08
1.72323e-09
3.72276e-08
1.67054e-09
3.70879e-08
1.62164e-09
3.69444e-08
1.57597e-09
3.67971e-08
1.5331e-09
3.66466e-08
1.49263e-09
3.64929e-08
1.45429e-09
3.63363e-08
1.41782e-09
3.61771e-08
1.38303e-09
3.60156e-08
1.34973e-09
3.58519e-08
1.3178e-09
3.56862e-08
1.2871e-09
3.55189e-08
1.25753e-09
3.53501e-08
1.229e-09
3.51801e-08
1.20142e-09
3.50089e-08
1.17471e-09
3.48369e-08
1.1488e-09
3.46643e-08
1.12363e-09
3.44911e-08
1.09915e-09
3.43176e-08
1.07529e-09
3.4144e-08
1.052e-09
3.39704e-08
1.02925e-09
3.3797e-08
1.00697e-09
3.36239e-08
9.85137e-10
3.34514e-08
9.63699e-10
3.32795e-08
9.4262e-10
3.31084e-08
9.21861e-10
3.29383e-08
9.01384e-10
3.27693e-08
8.81152e-10
3.26016e-08
8.61129e-10
3.24352e-08
8.41278e-10
3.22704e-08
8.21565e-10
3.21072e-08
8.01954e-10
3.19459e-08
7.82408e-10
3.17865e-08
7.62893e-10
3.16292e-08
7.43371e-10
3.14742e-08
7.23807e-10
3.13216e-08
7.04164e-10
3.11715e-08
6.84405e-10
3.10241e-08
6.64493e-10
3.08796e-08
6.44391e-10
3.07381e-08
6.24062e-10
3.05998e-08
6.03469e-10
3.04648e-08
5.82574e-10
3.03334e-08
5.61343e-10
3.02057e-08
5.3974e-10
3.00819e-08
5.1773e-10
2.99621e-08
4.95279e-10
2.98467e-08
4.72353e-10
2.97357e-08
4.48918e-10
2.96294e-08
4.24939e-10
2.9528e-08
4.00385e-10
2.94316e-08
3.75225e-10
2.93405e-08
3.49445e-10
2.92548e-08
3.23047e-10
2.91747e-08
2.96071e-10
2.91002e-08
2.68613e-10
2.90314e-08
2.40841e-10
2.89683e-08
2.13019e-10
2.89107e-08
1.85513e-10
2.88585e-08
1.58787e-10
2.88115e-08
1.33367e-10
2.87695e-08
1.09773e-10
2.87321e-08
8.8428e-11
2.86989e-08
6.95547e-11
2.86696e-08
5.32106e-11
2.86437e-08
3.92852e-11
2.86205e-08
2.76153e-11
2.85999e-08
1.80036e-11
2.85819e-08
1.01669e-11
2.85666e-08
3.80332e-12
2.85541e-08
-1.16208e-12
2.85438e-08
-4.69511e-12
2.85353e-08
-6.96131e-12
2.85283e-08
-8.12828e-12
2.85226e-08
-8.16035e-12
2.85177e-08
-6.506e-12
-6.35609e-13
3.78913e-08
2.37291e-09
-3.77696e-08
3.80472e-08
2.656e-09
3.82153e-08
2.86585e-09
3.83839e-08
3.00835e-09
3.8547e-08
3.09514e-09
3.86995e-08
3.1336e-09
3.88372e-08
3.12927e-09
3.89568e-08
3.08874e-09
3.90566e-08
3.01955e-09
3.9136e-08
2.92933e-09
3.91953e-08
2.82519e-09
3.92356e-08
2.71352e-09
3.92587e-08
2.59968e-09
3.92665e-08
2.48787e-09
3.92611e-08
2.38104e-09
3.92444e-08
2.28105e-09
3.92182e-08
2.18881e-09
3.91839e-08
2.10454e-09
3.91426e-08
2.02796e-09
3.90953e-08
1.95849e-09
3.90426e-08
1.89539e-09
3.89851e-08
1.83789e-09
3.89231e-08
1.78524e-09
3.88569e-08
1.73676e-09
3.87867e-08
1.69186e-09
3.87126e-08
1.65002e-09
3.86349e-08
1.61082e-09
3.85536e-08
1.5739e-09
3.84689e-08
1.53898e-09
3.8381e-08
1.5058e-09
3.82898e-08
1.47418e-09
3.81956e-08
1.44393e-09
3.80985e-08
1.41491e-09
3.79986e-08
1.387e-09
3.7896e-08
1.36009e-09
3.77909e-08
1.33408e-09
3.76835e-08
1.30889e-09
3.75737e-08
1.28444e-09
3.74619e-08
1.26065e-09
3.7348e-08
1.23747e-09
3.72324e-08
1.21483e-09
3.7115e-08
1.19268e-09
3.6996e-08
1.17097e-09
3.68756e-08
1.14965e-09
3.67539e-08
1.12867e-09
3.66311e-08
1.10799e-09
3.65072e-08
1.08758e-09
3.63824e-08
1.06738e-09
3.62569e-08
1.04736e-09
3.61308e-08
1.02748e-09
3.60043e-08
1.00771e-09
3.58774e-08
9.87995e-10
3.57504e-08
9.68313e-10
3.56233e-08
9.48622e-10
3.54964e-08
9.28883e-10
3.53697e-08
9.0906e-10
3.52435e-08
8.89113e-10
3.51179e-08
8.69005e-10
3.4993e-08
8.48695e-10
3.4869e-08
8.28144e-10
3.47461e-08
8.07311e-10
3.46244e-08
7.86156e-10
3.45042e-08
7.64638e-10
3.43855e-08
7.42714e-10
3.42687e-08
7.20345e-10
3.41537e-08
6.97487e-10
3.4041e-08
6.74102e-10
3.39306e-08
6.50149e-10
3.38227e-08
6.25589e-10
3.37176e-08
6.00384e-10
3.36155e-08
5.74496e-10
3.35165e-08
5.47889e-10
3.34209e-08
5.20529e-10
3.33289e-08
4.92384e-10
3.32407e-08
4.63434e-10
3.31565e-08
4.33675e-10
3.30764e-08
4.03129e-10
3.30006e-08
3.71866e-10
3.29292e-08
3.40017e-10
3.28622e-08
3.07797e-10
3.27997e-08
2.75518e-10
3.27417e-08
2.43598e-10
3.26879e-08
2.12545e-10
3.26383e-08
1.82917e-10
3.25929e-08
1.55255e-10
3.25513e-08
1.29997e-10
3.25134e-08
1.07398e-10
3.24791e-08
8.7551e-11
3.2448e-08
7.03935e-11
3.24198e-08
5.5785e-11
3.23943e-08
4.35091e-11
3.23712e-08
3.32926e-11
3.23501e-08
2.49032e-11
3.23308e-08
1.81223e-11
3.23134e-08
1.2744e-11
3.22978e-08
8.60513e-12
3.22841e-08
5.61424e-12
3.22721e-08
3.85055e-12
3.22618e-08
3.78483e-12
7.50642e-12
3.8649e-08
2.26643e-09
-3.85426e-08
3.87866e-08
2.51843e-09
3.89384e-08
2.71401e-09
3.90938e-08
2.85302e-09
3.92465e-08
2.94237e-09
3.93922e-08
2.98797e-09
3.95268e-08
2.99464e-09
3.96476e-08
2.96793e-09
3.97529e-08
2.91427e-09
3.9842e-08
2.84026e-09
3.99149e-08
2.75221e-09
3.99726e-08
2.65582e-09
4.00164e-08
2.55595e-09
4.00477e-08
2.45651e-09
4.00684e-08
2.36037e-09
4.008e-08
2.26945e-09
4.0084e-08
2.18481e-09
4.00816e-08
2.1069e-09
4.00739e-08
2.03566e-09
4.00617e-08
1.97075e-09
4.00454e-08
1.91161e-09
4.00257e-08
1.85765e-09
4.00027e-08
1.80823e-09
3.99767e-08
1.76278e-09
3.99478e-08
1.72076e-09
3.99161e-08
1.68171e-09
3.98817e-08
1.64523e-09
3.98446e-08
1.611e-09
3.98048e-08
1.57871e-09
3.97625e-08
1.54814e-09
3.97176e-08
1.51909e-09
3.96702e-08
1.49137e-09
3.96202e-08
1.46485e-09
3.95678e-08
1.4394e-09
3.9513e-08
1.41489e-09
3.94559e-08
1.39124e-09
3.93964e-08
1.36836e-09
3.93347e-08
1.34615e-09
3.92708e-08
1.32456e-09
3.92047e-08
1.3035e-09
3.91366e-08
1.28293e-09
3.90666e-08
1.26277e-09
3.89945e-08
1.24298e-09
3.89207e-08
1.2235e-09
3.88451e-08
1.20429e-09
3.87678e-08
1.18529e-09
3.86889e-08
1.16646e-09
3.86085e-08
1.14777e-09
3.85267e-08
1.12916e-09
3.84436e-08
1.11059e-09
3.83593e-08
1.09203e-09
3.82738e-08
1.07343e-09
3.81874e-08
1.05475e-09
3.81001e-08
1.03595e-09
3.8012e-08
1.01699e-09
3.79232e-08
9.97821e-10
3.78339e-08
9.78409e-10
3.77442e-08
9.58708e-10
3.76542e-08
9.38674e-10
3.75641e-08
9.18263e-10
3.7474e-08
8.97429e-10
3.7384e-08
8.76127e-10
3.72944e-08
8.5431e-10
3.72051e-08
8.31933e-10
3.71165e-08
8.08949e-10
3.70287e-08
7.85313e-10
3.69418e-08
7.60977e-10
3.68561e-08
7.35898e-10
3.67716e-08
7.10033e-10
3.66887e-08
6.83338e-10
3.66074e-08
6.55774e-10
3.6528e-08
6.27302e-10
3.64506e-08
5.97887e-10
3.63755e-08
5.67503e-10
3.63028e-08
5.36136e-10
3.62327e-08
5.03793e-10
3.61653e-08
4.70516e-10
3.61008e-08
4.36397e-10
3.60392e-08
4.01595e-10
3.59806e-08
3.66358e-10
3.59251e-08
3.31033e-10
3.58727e-08
2.96066e-10
3.58232e-08
2.61987e-10
3.57768e-08
2.29366e-10
3.57333e-08
1.98747e-10
3.56927e-08
1.70574e-10
3.5655e-08
1.45122e-10
3.562e-08
1.22509e-10
3.55877e-08
1.02707e-10
3.55579e-08
8.55955e-11
3.55304e-08
7.09802e-11
3.55051e-08
5.86135e-11
3.54817e-08
4.82627e-11
3.54602e-08
3.96894e-11
3.54403e-08
3.26616e-11
3.54219e-08
2.7002e-11
3.54049e-08
2.26061e-11
3.53892e-08
1.94863e-11
3.53751e-08
1.78997e-11
1.86389e-11
3.94142e-08
2.17149e-09
-3.93193e-08
3.95366e-08
2.39608e-09
3.96738e-08
2.57684e-09
3.98163e-08
2.71051e-09
3.99581e-08
2.8005e-09
4.0095e-08
2.8511e-09
4.02233e-08
2.86637e-09
4.03403e-08
2.85093e-09
4.04444e-08
2.81019e-09
4.05347e-08
2.74988e-09
4.06114e-08
2.67553e-09
4.0675e-08
2.59221e-09
4.07266e-08
2.50436e-09
4.07675e-08
2.41558e-09
4.07993e-08
2.32865e-09
4.08232e-08
2.24548e-09
4.08408e-08
2.16728e-09
4.0853e-08
2.09465e-09
4.08609e-08
2.02774e-09
4.08653e-08
1.96639e-09
4.08667e-08
1.91023e-09
4.08655e-08
1.85881e-09
4.08621e-08
1.81164e-09
4.08567e-08
1.76822e-09
4.08493e-08
1.72808e-09
4.08402e-08
1.69083e-09
4.08293e-08
1.6561e-09
4.08168e-08
1.62358e-09
4.08025e-08
1.59299e-09
4.07865e-08
1.56412e-09
4.07688e-08
1.53676e-09
4.07495e-08
1.51074e-09
4.07284e-08
1.48592e-09
4.07056e-08
1.46218e-09
4.06811e-08
1.43938e-09
4.06549e-08
1.41744e-09
4.0627e-08
1.39626e-09
4.05974e-08
1.37575e-09
4.05662e-08
1.35584e-09
4.05332e-08
1.33647e-09
4.04986e-08
1.31755e-09
4.04623e-08
1.29904e-09
4.04244e-08
1.28088e-09
4.03849e-08
1.263e-09
4.03438e-08
1.24535e-09
4.03012e-08
1.2279e-09
4.02571e-08
1.21058e-09
4.02115e-08
1.19335e-09
4.01645e-08
1.17616e-09
4.01161e-08
1.15897e-09
4.00664e-08
1.14173e-09
4.00155e-08
1.1244e-09
3.99633e-08
1.10693e-09
3.991e-08
1.08927e-09
3.98556e-08
1.07139e-09
3.98002e-08
1.05323e-09
3.97438e-08
1.03474e-09
3.96866e-08
1.01589e-09
3.96287e-08
9.96609e-10
3.95701e-08
9.76863e-10
3.95109e-08
9.56597e-10
3.94513e-08
9.35762e-10
3.93913e-08
9.14305e-10
3.93311e-08
8.92175e-10
3.92707e-08
8.69321e-10
3.92103e-08
8.45692e-10
3.91501e-08
8.21236e-10
3.90901e-08
7.95906e-10
3.90304e-08
7.69652e-10
3.89713e-08
7.42429e-10
3.89129e-08
7.14193e-10
3.88553e-08
6.84904e-10
3.87987e-08
6.5453e-10
3.87431e-08
6.23046e-10
3.86888e-08
5.90445e-10
3.86359e-08
5.56743e-10
3.85844e-08
5.21998e-10
3.85345e-08
4.86316e-10
3.84862e-08
4.4988e-10
3.84396e-08
4.12954e-10
3.83947e-08
3.75902e-10
3.83516e-08
3.39182e-10
3.83103e-08
3.03326e-10
3.82707e-08
2.68898e-10
3.82331e-08
2.36434e-10
3.81973e-08
2.06373e-10
3.81634e-08
1.79005e-10
3.81314e-08
1.54464e-10
3.81014e-08
1.32751e-10
3.80732e-08
1.13769e-10
3.80468e-08
9.73477e-11
3.80222e-08
8.32644e-11
3.79992e-08
7.12952e-11
3.79776e-08
6.12091e-11
3.79575e-08
5.27805e-11
3.79387e-08
4.58275e-11
3.79211e-08
4.02243e-11
3.79046e-08
3.59145e-11
3.78896e-08
3.29168e-11
3.0891e-11
4.01875e-08
2.08556e-09
-4.01015e-08
4.02972e-08
2.28629e-09
4.04215e-08
2.45254e-09
4.05523e-08
2.57976e-09
4.06838e-08
2.66896e-09
4.0812e-08
2.72297e-09
4.09333e-08
2.74502e-09
4.10453e-08
2.73894e-09
4.11463e-08
2.70924e-09
4.12353e-08
2.66081e-09
4.13124e-08
2.5985e-09
4.13778e-08
2.5268e-09
4.14324e-08
2.4497e-09
4.14775e-08
2.37056e-09
4.15141e-08
2.29198e-09
4.15437e-08
2.21589e-09
4.15674e-08
2.14355e-09
4.15864e-08
2.0757e-09
4.16015e-08
2.01265e-09
4.16135e-08
1.95441e-09
4.16229e-08
1.90077e-09
4.16303e-08
1.85141e-09
4.1636e-08
1.80595e-09
4.16402e-08
1.764e-09
4.16432e-08
1.72516e-09
4.16449e-08
1.68909e-09
4.16455e-08
1.65545e-09
4.16451e-08
1.62398e-09
4.16437e-08
1.59442e-09
4.16413e-08
1.56655e-09
4.16379e-08
1.54019e-09
4.16334e-08
1.51518e-09
4.1628e-08
1.49138e-09
4.16215e-08
1.46865e-09
4.1614e-08
1.44689e-09
4.16054e-08
1.42599e-09
4.15958e-08
1.40587e-09
4.15851e-08
1.38643e-09
4.15734e-08
1.36761e-09
4.15605e-08
1.34933e-09
4.15466e-08
1.33151e-09
4.15315e-08
1.31411e-09
4.15153e-08
1.29706e-09
4.1498e-08
1.2803e-09
4.14796e-08
1.26378e-09
4.146e-08
1.24745e-09
4.14393e-08
1.23124e-09
4.14176e-08
1.21513e-09
4.13947e-08
1.19904e-09
4.13707e-08
1.18294e-09
4.13457e-08
1.16678e-09
4.13195e-08
1.15051e-09
4.12924e-08
1.13408e-09
4.12642e-08
1.11744e-09
4.12351e-08
1.10054e-09
4.1205e-08
1.08333e-09
4.1174e-08
1.06576e-09
4.11421e-08
1.04778e-09
4.11094e-08
1.02933e-09
4.10759e-08
1.01037e-09
4.10416e-08
9.90836e-10
4.10067e-08
9.70675e-10
4.09712e-08
9.49831e-10
4.09351e-08
9.2825e-10
4.08986e-08
9.05874e-10
4.08616e-08
8.82649e-10
4.08243e-08
8.58521e-10
4.07868e-08
8.33435e-10
4.07491e-08
8.0734e-10
4.07113e-08
7.80188e-10
4.06736e-08
7.51932e-10
4.0636e-08
7.22533e-10
4.05985e-08
6.91958e-10
4.05614e-08
6.60186e-10
4.05246e-08
6.27215e-10
4.04883e-08
5.93069e-10
4.04525e-08
5.57816e-10
4.04172e-08
5.21574e-10
4.03826e-08
4.84535e-10
4.03486e-08
4.46973e-10
4.03152e-08
4.09253e-10
4.02826e-08
3.7183e-10
4.02507e-08
3.35222e-10
4.02196e-08
2.99977e-10
4.01894e-08
2.66611e-10
4.01602e-08
2.35552e-10
4.01321e-08
2.07094e-10
4.01052e-08
1.81388e-10
4.00795e-08
1.58457e-10
4.0055e-08
1.38229e-10
4.00318e-08
1.20556e-10
4.00099e-08
1.05241e-10
3.99891e-08
9.20759e-11
3.99694e-08
8.08425e-11
3.99509e-08
7.13277e-11
3.99334e-08
6.33497e-11
3.99168e-08
5.67652e-11
3.99013e-08
5.14566e-11
3.9887e-08
4.72388e-11
4.30808e-11
4.09693e-08
2.00685e-09
-4.08906e-08
4.10687e-08
2.1869e-09
4.11818e-08
2.33945e-09
4.13019e-08
2.45965e-09
4.14238e-08
2.547e-09
4.15437e-08
2.60312e-09
4.16582e-08
2.63047e-09
4.1765e-08
2.63214e-09
4.18624e-08
2.61189e-09
4.19493e-08
2.57386e-09
4.20256e-08
2.52223e-09
4.20914e-08
2.46098e-09
4.21474e-08
2.3937e-09
4.21945e-08
2.32343e-09
4.22339e-08
2.25266e-09
4.22665e-08
2.18323e-09
4.22936e-08
2.11648e-09
4.23161e-08
2.05321e-09
4.23349e-08
1.99388e-09
4.23507e-08
1.93861e-09
4.23641e-08
1.88735e-09
4.23756e-08
1.8399e-09
4.23855e-08
1.79598e-09
4.23942e-08
1.75529e-09
4.24019e-08
1.71751e-09
4.24087e-08
1.68233e-09
4.24146e-08
1.64949e-09
4.24199e-08
1.61873e-09
4.24244e-08
1.58983e-09
4.24284e-08
1.56258e-09
4.24318e-08
1.53682e-09
4.24346e-08
1.51239e-09
4.24368e-08
1.48916e-09
4.24384e-08
1.46701e-09
4.24395e-08
1.44582e-09
4.244e-08
1.42551e-09
4.24399e-08
1.40597e-09
4.24392e-08
1.38713e-09
4.24379e-08
1.36891e-09
4.2436e-08
1.35125e-09
4.24334e-08
1.33407e-09
4.24302e-08
1.31731e-09
4.24263e-08
1.30091e-09
4.24218e-08
1.28482e-09
4.24166e-08
1.26898e-09
4.24107e-08
1.25333e-09
4.24042e-08
1.23783e-09
4.23969e-08
1.22242e-09
4.23888e-08
1.20705e-09
4.23801e-08
1.19167e-09
4.23707e-08
1.17624e-09
4.23605e-08
1.16069e-09
4.23496e-08
1.14499e-09
4.23379e-08
1.12908e-09
4.23256e-08
1.1129e-09
4.23125e-08
1.09641e-09
4.22987e-08
1.07955e-09
4.22842e-08
1.06227e-09
4.2269e-08
1.04451e-09
4.22532e-08
1.02622e-09
4.22367e-08
1.00734e-09
4.22195e-08
9.8781e-10
4.22018e-08
9.67575e-10
4.21835e-08
9.46574e-10
4.21646e-08
9.2475e-10
4.21452e-08
9.02044e-10
4.21253e-08
8.78399e-10
4.2105e-08
8.5376e-10
4.20842e-08
8.28072e-10
4.20632e-08
8.01286e-10
4.20417e-08
7.73355e-10
4.202e-08
7.44238e-10
4.19981e-08
7.13905e-10
4.19759e-08
6.82339e-10
4.19536e-08
6.4954e-10
4.19311e-08
6.15542e-10
4.19085e-08
5.80416e-10
4.18858e-08
5.44289e-10
4.1863e-08
5.07354e-10
4.18401e-08
4.69887e-10
4.18171e-08
4.32245e-10
4.1794e-08
3.94868e-10
4.1771e-08
3.58251e-10
4.17481e-08
3.22914e-10
4.17253e-08
2.8935e-10
4.17029e-08
2.57969e-10
4.1681e-08
2.29063e-10
4.16595e-08
2.02794e-10
4.16388e-08
1.79205e-10
4.16188e-08
1.58245e-10
4.15995e-08
1.39792e-10
4.15811e-08
1.23674e-10
4.15635e-08
1.09698e-10
4.15467e-08
9.76633e-11
4.15306e-08
8.73706e-11
4.15153e-08
7.86404e-11
4.15008e-08
7.13159e-11
4.1487e-08
6.52306e-11
4.14742e-08
6.00627e-11
5.45151e-11
4.17604e-08
1.93408e-09
-4.16876e-08
4.18511e-08
2.09619e-09
4.19544e-08
2.23608e-09
4.2065e-08
2.34908e-09
4.21782e-08
2.43382e-09
4.22903e-08
2.49101e-09
4.23984e-08
2.5224e-09
4.25e-08
2.53047e-09
4.25936e-08
2.51828e-09
4.26782e-08
2.48931e-09
4.27532e-08
2.44718e-09
4.28189e-08
2.39535e-09
4.28755e-08
2.33703e-09
4.2924e-08
2.275e-09
4.29651e-08
2.21156e-09
4.29998e-08
2.1485e-09
4.30291e-08
2.08714e-09
4.3054e-08
2.02837e-09
4.30751e-08
1.97272e-09
4.30933e-08
1.92044e-09
4.31091e-08
1.87158e-09
4.31229e-08
1.82606e-09
4.31352e-08
1.78368e-09
4.31463e-08
1.74423e-09
4.31563e-08
1.70746e-09
4.31656e-08
1.67312e-09
4.31741e-08
1.64098e-09
4.3182e-08
1.61082e-09
4.31894e-08
1.58243e-09
4.31963e-08
1.55565e-09
4.32028e-08
1.5303e-09
4.32089e-08
1.50626e-09
4.32147e-08
1.48339e-09
4.32202e-08
1.46158e-09
4.32253e-08
1.44072e-09
4.323e-08
1.42073e-09
4.32345e-08
1.40151e-09
4.32386e-08
1.38299e-09
4.32425e-08
1.36509e-09
4.3246e-08
1.34774e-09
4.32491e-08
1.33089e-09
4.3252e-08
1.31447e-09
4.32545e-08
1.29841e-09
4.32567e-08
1.28267e-09
4.32585e-08
1.26718e-09
4.32599e-08
1.2519e-09
4.32609e-08
1.23678e-09
4.32616e-08
1.22176e-09
4.32619e-08
1.20679e-09
4.32617e-08
1.19182e-09
4.32612e-08
1.1768e-09
4.32602e-08
1.16169e-09
4.32587e-08
1.14642e-09
4.32569e-08
1.13095e-09
4.32545e-08
1.11523e-09
4.32517e-08
1.0992e-09
4.32485e-08
1.08281e-09
4.32447e-08
1.066e-09
4.32405e-08
1.04872e-09
4.32358e-08
1.03091e-09
4.32307e-08
1.01252e-09
4.3225e-08
9.93472e-10
4.32188e-08
9.73721e-10
4.32122e-08
9.53205e-10
4.32051e-08
9.31863e-10
4.31975e-08
9.09637e-10
4.31894e-08
8.86467e-10
4.31809e-08
8.62298e-10
4.31719e-08
8.37076e-10
4.31624e-08
8.1075e-10
4.31525e-08
7.83275e-10
4.31421e-08
7.54611e-10
4.31313e-08
7.2473e-10
4.312e-08
6.93618e-10
4.31083e-08
6.61282e-10
4.30961e-08
6.27758e-10
4.30834e-08
5.93123e-10
4.30702e-08
5.57506e-10
4.30564e-08
5.211e-10
4.30421e-08
4.84174e-10
4.30273e-08
4.47072e-10
4.3012e-08
4.10211e-10
4.29961e-08
3.74059e-10
4.298e-08
3.39105e-10
4.29635e-08
3.0581e-10
4.29469e-08
2.74564e-10
4.29303e-08
2.45654e-10
4.29139e-08
2.19247e-10
4.28977e-08
1.95402e-10
4.28818e-08
1.7409e-10
4.28664e-08
1.5521e-10
4.28515e-08
1.38614e-10
4.2837e-08
1.24129e-10
4.28231e-08
1.1157e-10
4.28097e-08
1.00752e-10
4.27969e-08
9.15004e-11
4.27845e-08
8.36489e-11
4.27728e-08
7.69994e-11
4.27617e-08
7.11656e-11
6.48917e-11
4.25613e-08
1.86629e-09
-4.24935e-08
4.26447e-08
2.01283e-09
4.27396e-08
2.14115e-09
4.28416e-08
2.24703e-09
4.29468e-08
2.32866e-09
4.30517e-08
2.38609e-09
4.31536e-08
2.42048e-09
4.32504e-08
2.43375e-09
4.33403e-08
2.42839e-09
4.34223e-08
2.40731e-09
4.34959e-08
2.37357e-09
4.3561e-08
2.33022e-09
4.36179e-08
2.28009e-09
4.36673e-08
2.22568e-09
4.37097e-08
2.16913e-09
4.37461e-08
2.11214e-09
4.37772e-08
2.05601e-09
4.38039e-08
2.00165e-09
4.38269e-08
1.94968e-09
4.3847e-08
1.90042e-09
4.38645e-08
1.85403e-09
4.38801e-08