/*--------------------------------*- C++ -*----------------------------------*\
| =========                 |                                                 |
| \\      /  F ield         | OpenFOAM: The Open Source CFD Toolbox           |
|  \\    /   O peration     | Version:  2.3.0                                 |
|   \\  /    A nd           | Web:      www.OpenFOAM.org                      |
|    \\/     M anipulation  |                                                 |
\*---------------------------------------------------------------------------*/
FoamFile
{
    version     2.0;
    format      ascii;
    class       volScalarField;
    location    "0.5";
    object      p;
}
// * * * * * * * * * * * * * * * * * * * * * * * * * * * * * * * * * * * * * //

dimensions      [0 2 -2 0 0 0 0];

internalField   nonuniform List<scalar> 
6875
(
0.00245318
0.00186867
0.00139267
0.00104981
0.000766578
0.000512214
0.000286722
9.46856e-05
-6.23966e-05
-0.000185541
-0.000277335
-0.000341599
-0.000383012
-0.000406552
-0.000416956
-0.000418335
-0.00041399
-0.000406386
-0.000397239
-0.000387657
-0.000378293
-0.00036948
-0.000361347
-0.000353903
-0.000347093
-0.000340833
-0.000335038
-0.000329628
-0.000324535
-0.000319702
-0.000315087
-0.000310655
-0.00030638
-0.000302242
-0.000298225
-0.000294317
-0.000290508
-0.000286791
-0.000283157
-0.000279602
-0.00027612
-0.000272707
-0.00026936
-0.000266074
-0.000262846
-0.000259674
-0.000256555
-0.000253486
-0.000250467
-0.000247493
-0.000244564
-0.000241678
-0.000238832
-0.000236026
-0.000233256
-0.00023052
-0.000227818
-0.000225146
-0.000222501
-0.000219882
-0.000217284
-0.000214706
-0.000212142
-0.000209589
-0.000207042
-0.000204496
-0.000201945
-0.000199384
-0.000196804
-0.000194199
-0.000191559
-0.000188875
-0.000186137
-0.000183334
-0.000180452
-0.000177478
-0.000174396
-0.000171191
-0.000167844
-0.000164335
-0.000160644
-0.000156748
-0.000152621
-0.000148237
-0.000143567
-0.000138578
-0.000133236
-0.000127501
-0.00012133
-0.000114674
-0.000107479
-9.96887e-05
-9.12425e-05
-8.20811e-05
-7.21495e-05
-6.14004e-05
-4.97963e-05
-3.73044e-05
-2.38526e-05
-9.82119e-06
0.0021762
0.00175991
0.00136941
0.00105849
0.000789387
0.0005422
0.000319809
0.000128395
-2.95109e-05
-0.000154357
-0.000248398
-0.000315211
-0.000359283
-0.000385449
-0.000398344
-0.000402012
-0.000399717
-0.000393914
-0.000386323
-0.00037807
-0.000369829
-0.000361963
-0.000354628
-0.000347857
-0.000341616
-0.000335842
-0.000330465
-0.000325417
-0.00032064
-0.000316086
-0.000311718
-0.000307506
-0.000303429
-0.000299469
-0.000295614
-0.000291854
-0.00028818
-0.000284586
-0.000281066
-0.000277616
-0.000274232
-0.00027091
-0.000267646
-0.000264439
-0.000261285
-0.000258182
-0.000255127
-0.00025212
-0.000249158
-0.000246239
-0.000243361
-0.000240524
-0.000237724
-0.000234961
-0.000232233
-0.000229538
-0.000226874
-0.000224238
-0.000221628
-0.000219043
-0.000216478
-0.00021393
-0.000211396
-0.000208872
-0.000206353
-0.000203834
-0.00020131
-0.000198774
-0.000196219
-0.000193637
-0.000191021
-0.000188361
-0.000185645
-0.000182864
-0.000180003
-0.00017705
-0.00017399
-0.000170805
-0.000167478
-0.000163989
-0.000160318
-0.00015644
-0.000152333
-0.000147967
-0.000143316
-0.000138346
-0.000133022
-0.000127306
-0.000121153
-0.000114515
-0.00010734
-9.95684e-05
-9.11411e-05
-8.19982e-05
-7.20841e-05
-6.13506e-05
-4.97591e-05
-3.72757e-05
-2.38045e-05
-9.9126e-06
0.00197354
0.00166292
0.00133203
0.00104567
0.000792208
0.000558669
0.000346954
0.00016255
8.20915e-06
-0.000116004
-0.000211708
-0.000281767
-0.000329961
-0.00036052
-0.000377632
-0.000385059
-0.000385932
-0.000382682
-0.000377083
-0.000370348
-0.000363248
-0.000356239
-0.000349553
-0.000343284
-0.000337443
-0.000331998
-0.0003269
-0.000322094
-0.000317533
-0.000313174
-0.000308984
-0.000304935
-0.000301008
-0.000297186
-0.000293459
-0.000289817
-0.000286252
-0.000282758
-0.000279332
-0.000275969
-0.000272665
-0.000269417
-0.000266224
-0.000263081
-0.000259988
-0.000256942
-0.000253941
-0.000250984
-0.000248069
-0.000245194
-0.000242359
-0.000239561
-0.0002368
-0.000234073
-0.000231379
-0.000228717
-0.000226083
-0.000223478
-0.000220897
-0.000218339
-0.0002158
-0.000213278
-0.000210768
-0.000208268
-0.000205772
-0.000203276
-0.000200773
-0.000198258
-0.000195724
-0.000193163
-0.000190566
-0.000187925
-0.000185229
-0.000182466
-0.000179624
-0.000176689
-0.000173647
-0.00017048
-0.000167171
-0.0001637
-0.000160046
-0.000156186
-0.000152096
-0.000147748
-0.000143114
-0.000138162
-0.000132856
-0.000127158
-0.000121023
-0.000114405
-0.000107248
-9.94955e-05
-9.1087e-05
-8.19624e-05
-7.20658e-05
-6.13491e-05
-4.97744e-05
-3.73103e-05
-2.38822e-05
-1.03311e-05
0.00180194
0.0015597
0.00127962
0.00102152
0.000788161
0.000572109
0.000374494
0.000200018
5.16304e-05
-7.00674e-05
-0.000166064
-0.000238513
-0.000290464
-0.000325483
-0.000347223
-0.000359073
-0.000363941
-0.000364153
-0.000361467
-0.000357132
-0.000351987
-0.000346557
-0.000341145
-0.000335909
-0.000330911
-0.000326161
-0.000321642
-0.000317326
-0.000313182
-0.000309183
-0.000305306
-0.000301532
-0.000297849
-0.000294244
-0.000290711
-0.000287243
-0.000283836
-0.000280486
-0.000277189
-0.000273945
-0.00027075
-0.000267603
-0.000264501
-0.000261444
-0.00025843
-0.000255457
-0.000252525
-0.000249631
-0.000246776
-0.000243957
-0.000241175
-0.000238426
-0.000235711
-0.000233028
-0.000230376
-0.000227753
-0.000225157
-0.000222587
-0.00022004
-0.000217514
-0.000215006
-0.000212514
-0.000210033
-0.00020756
-0.00020509
-0.000202619
-0.000200141
-0.00019765
-0.000195139
-0.000192601
-0.000190026
-0.000187407
-0.000184732
-0.00018199
-0.000179168
-0.000176254
-0.000173232
-0.000170085
-0.000166795
-0.000163344
-0.00015971
-0.00015587
-0.0001518
-0.000147473
-0.000142859
-0.000137927
-0.000132642
-0.000126965
-0.000120853
-0.000114256
-0.000107122
-9.93922e-05
-9.10068e-05
-8.19057e-05
-7.20332e-05
-6.13426e-05
-4.97995e-05
-3.73833e-05
-2.40844e-05
-1.10767e-05
0.00165014
0.00145712
0.00122252
0.000993992
0.000781469
0.000582723
0.000399233
0.000235194
9.36448e-05
-2.44208e-05
-0.000119519
-0.000193254
-0.000248062
-0.000286903
-0.000312904
-0.000329048
-0.000337961
-0.000341809
-0.00034228
-0.000340619
-0.000337702
-0.00033411
-0.000330212
-0.000326224
-0.000322261
-0.000318378
-0.000314594
-0.000310908
-0.00030731
-0.000303789
-0.000300334
-0.000296936
-0.000293587
-0.000290284
-0.000287022
-0.000283799
-0.000280613
-0.000277464
-0.000274351
-0.000271273
-0.000268231
-0.000265223
-0.00026225
-0.00025931
-0.000256405
-0.000253532
-0.000250692
-0.000247885
-0.000245109
-0.000242364
-0.000239651
-0.000236967
-0.000234312
-0.000231686
-0.000229087
-0.000226514
-0.000223965
-0.00022144
-0.000218935
-0.000216449
-0.000213979
-0.000211523
-0.000209076
-0.000206636
-0.000204198
-0.000201757
-0.000199308
-0.000196845
-0.000194361
-0.000191849
-0.0001893
-0.000186705
-0.000184054
-0.000181336
-0.000178538
-0.000175646
-0.000172647
-0.000169522
-0.000166255
-0.000162827
-0.000159215
-0.000155398
-0.00015135
-0.000147046
-0.000142456
-0.000137548
-0.000132288
-0.000126636
-0.000120549
-0.000113979
-0.000106872
-9.91716e-05
-9.08165e-05
-8.17481e-05
-7.19121e-05
-6.12649e-05
-4.97795e-05
-3.74574e-05
-2.43864e-05
-1.20837e-05
0.00151954
0.00136215
0.00116517
0.000963933
0.00077117
0.000588743
0.00041889
0.000265386
0.000131187
1.75368e-05
-7.5718e-05
-0.000149738
-0.000206444
-0.000248266
-0.000277844
-0.000297767
-0.000310372
-0.000317639
-0.00032116
-0.000322146
-0.000321486
-0.000319798
-0.000317497
-0.000314849
-0.000312018
-0.000309096
-0.000306136
-0.000303163
-0.000300188
-0.000297217
-0.00029425
-0.000291289
-0.000288333
-0.000285384
-0.000282442
-0.000279511
-0.00027659
-0.000273684
-0.000270792
-0.000267918
-0.000265062
-0.000262225
-0.000259409
-0.000256616
-0.000253844
-0.000251096
-0.000248371
-0.00024567
-0.000242994
-0.000240342
-0.000237714
-0.00023511
-0.000232531
-0.000229974
-0.000227441
-0.000224929
-0.000222438
-0.000219967
-0.000217513
-0.000215075
-0.000212651
-0.000210237
-0.000207832
-0.00020543
-0.000203028
-0.000200622
-0.000198206
-0.000195775
-0.000193322
-0.000190838
-0.000188318
-0.00018575
-0.000183125
-0.000180433
-0.00017766
-0.000174793
-0.000171817
-0.000168717
-0.000165474
-0.000162069
-0.000158481
-0.000154688
-0.000150666
-0.000146386
-0.000141822
-0.000136941
-0.000131708
-0.000126084
-0.000120027
-0.000113488
-0.000106415
-9.875e-05
-9.04349e-05
-8.14119e-05
-7.16298e-05
-6.10499e-05
-4.96566e-05
-3.74829e-05
-2.47266e-05
-1.31892e-05
0.00140692
0.00127517
0.00110827
0.000931402
0.000757329
0.000590443
0.000433715
0.000290613
0.00016395
5.51421e-05
-3.56552e-05
-0.000109222
-0.000167041
-0.000211081
-0.000243555
-0.000266685
-0.000282535
-0.000292894
-0.000299241
-0.000302737
-0.000304259
-0.000304444
-0.000303741
-0.000302452
-0.00030078
-0.000298852
-0.00029675
-0.000294525
-0.000292206
-0.000289816
-0.000287367
-0.00028487
-0.000282333
-0.000279763
-0.000277167
-0.00027455
-0.000271918
-0.000269275
-0.000266626
-0.000263974
-0.000261323
-0.000258676
-0.000256036
-0.000253404
-0.000250783
-0.000248174
-0.000245579
-0.000242999
-0.000240434
-0.000237887
-0.000235357
-0.000232844
-0.00023035
-0.000227873
-0.000225414
-0.000222972
-0.000220547
-0.000218137
-0.000215741
-0.000213358
-0.000210984
-0.000208619
-0.000206258
-0.000203899
-0.000201538
-0.00019917
-0.000196791
-0.000194393
-0.000191972
-0.00018952
-0.000187029
-0.00018449
-0.000181893
-0.000179227
-0.000176479
-0.000173637
-0.000170686
-0.00016761
-0.000164391
-0.00016101
-0.000157447
-0.000153678
-0.00014968
-0.000145427
-0.00014089
-0.000136036
-0.000130833
-0.00012524
-0.000119216
-0.000112714
-0.00010568
-9.80595e-05
-8.97958e-05
-8.08339e-05
-7.11266e-05
-6.06418e-05
-4.93782e-05
-3.7404e-05
-2.50154e-05
-1.41689e-05
0.00130872
0.00119586
0.00105297
0.00089755
0.000740911
0.00058867
0.000444369
0.000311292
0.000192109
8.83447e-05
4.12992e-07
-7.21437e-05
-0.000130438
-0.000176045
-0.000210799
-0.000236598
-0.000255244
-0.000268343
-0.000277253
-0.00028307
-0.000286647
-0.000288625
-0.00028947
-0.000289516
-0.000288992
-0.000288057
-0.000286818
-0.000285347
-0.000283694
-0.000281894
-0.000279973
-0.00027795
-0.000275842
-0.000273661
-0.00027142
-0.000269127
-0.000266791
-0.000264421
-0.000262022
-0.000259602
-0.000257164
-0.000254715
-0.000252257
-0.000249795
-0.000247331
-0.000244868
-0.000242409
-0.000239955
-0.000237509
-0.000235072
-0.000232645
-0.000230229
-0.000227824
-0.000225432
-0.000223052
-0.000220684
-0.000218327
-0.000215982
-0.000213647
-0.00021132
-0.000209
-0.000206685
-0.000204372
-0.000202057
-0.000199737
-0.000197408
-0.000195065
-0.000192703
-0.000190314
-0.000187893
-0.000185431
-0.00018292
-0.000180349
-0.000177708
-0.000174985
-0.000172167
-0.000169239
-0.000166185
-0.000162988
-0.00015963
-0.000156089
-0.000152344
-0.000148371
-0.000144143
-0.000139632
-0.000134806
-0.000129633
-0.000124073
-0.000118086
-0.000111623
-0.000104635
-9.70681e-05
-8.88681e-05
-7.99838e-05
-7.03727e-05
-6.0011e-05
-4.8912e-05
-3.71753e-05
-2.51633e-05
-1.48186e-05
0.00122228
0.00112381
0.00100018
0.000863332
0.000722638
0.000584021
0.000451368
0.000327848
0.000215989
0.000117371
3.26038e-05
-3.85004e-05
-9.67405e-05
-0.000143355
-0.000179849
-0.000207825
-0.000228849
-0.000244346
-0.000255551
-0.00026349
-0.000268977
-0.000272648
-0.000274976
-0.000276314
-0.000276914
-0.000276957
-0.000276574
-0.000275855
-0.000274867
-0.000273659
-0.000272268
-0.000270722
-0.000269045
-0.000267256
-0.000265372
-0.000263405
-0.000261369
-0.000259274
-0.000257128
-0.000254941
-0.000252719
-0.000250469
-0.000248197
-0.000245906
-0.000243601
-0.000241287
-0.000238966
-0.000236641
-0.000234314
-0.000231989
-0.000229666
-0.000227347
-0.000225034
-0.000222727
-0.000220426
-0.000218132
-0.000215846
-0.000213566
-0.000211291
-0.000209022
-0.000206755
-0.000204489
-0.000202222
-0.000199951
-0.000197672
-0.000195381
-0.000193073
-0.000190744
-0.000188386
-0.000185994
-0.000183559
-0.000181073
-0.000178526
-0.000175908
-0.000173206
-0.000170409
-0.000167501
-0.000164467
-0.00016129
-0.000157951
-0.00015443
-0.000150706
-0.000146755
-0.00014255
-0.000138064
-0.000133266
-0.000128122
-0.000122596
-0.000116646
-0.000110227
-0.000103291
-9.57853e-05
-8.76605e-05
-7.8869e-05
-6.9374e-05
-5.91596e-05
-4.82523e-05
-3.67737e-05
-2.51087e-05
-1.50236e-05
0.00114551
0.00105837
0.000950297
0.000829384
0.000703062
0.000577013
0.000455224
0.000340759
0.000236007
0.00014256
6.11698e-05
-8.13224e-06
-6.58802e-05
-0.000113024
-0.000150782
-0.000180495
-0.000203509
-0.00022108
-0.000234323
-0.000244182
-0.000251433
-0.000256688
-0.000260424
-0.000263003
-0.000264693
-0.000265693
-0.000266152
-0.000266178
-0.000265851
-0.000265233
-0.00026437
-0.000263301
-0.000262055
-0.000260659
-0.000259131
-0.000257492
-0.000255755
-0.000253935
-0.000252044
-0.00025009
-0.000248085
-0.000246035
-0.000243947
-0.000241828
-0.000239683
-0.000237517
-0.000235334
-0.000233138
-0.000230931
-0.000228717
-0.000226498
-0.000224277
-0.000222054
-0.000219831
-0.000217609
-0.00021539
-0.000213172
-0.000210956
-0.000208741
-0.000206527
-0.000204312
-0.000202095
-0.000199872
-0.000197642
-0.000195402
-0.000193146
-0.000190872
-0.000188573
-0.000186244
-0.000183878
-0.000181467
-0.000179003
-0.000176477
-0.000173878
-0.000171195
-0.000168415
-0.000165524
-0.000162506
-0.000159345
-0.000156023
-0.000152519
-0.000148813
-0.00014488
-0.000140696
-0.000136233
-0.00013146
-0.000126346
-0.000120854
-0.000114943
-0.00010857
-0.00010169
-9.42534e-05
-8.62134e-05
-7.75275e-05
-6.81645e-05
-5.8116e-05
-4.74181e-05
-3.62015e-05
-2.48323e-05
-1.47839e-05
0.00107682
0.000998823
0.000903461
0.000796162
0.000682672
0.000568129
0.000456421
0.000350484
0.000252572
0.000164254
8.6378e-05
1.91511e-05
-3.77412e-05
-8.50039e-05
-0.000123606
-0.000154659
-0.000179306
-0.000198647
-0.000213677
-0.00022526
-0.000234121
-0.000240849
-0.000245912
-0.000249674
-0.000252414
-0.000254345
-0.000255629
-0.000256387
-0.000256714
-0.00025668
-0.000256344
-0.000255749
-0.000254934
-0.000253929
-0.000252759
-0.000251446
-0.00025001
-0.000248465
-0.000246828
-0.000245109
-0.00024332
-0.00024147
-0.000239567
-0.00023762
-0.000235635
-0.000233617
-0.000231572
-0.000229503
-0.000227416
-0.000225313
-0.000223198
-0.000221073
-0.00021894
-0.000216801
-0.000214658
-0.00021251
-0.00021036
-0.000208207
-0.000206051
-0.000203891
-0.000201726
-0.000199556
-0.000197376
-0.000195186
-0.000192982
-0.000190761
-0.000188517
-0.000186246
-0.000183943
-0.0001816
-0.000179211
-0.000176767
-0.000174259
-0.000171677
-0.000169009
-0.000166243
-0.000163366
-0.000160361
-0.000157213
-0.000153904
-0.000150415
-0.000146723
-0.000142807
-0.000138642
-0.0001342
-0.000129452
-0.000124366
-0.000118907
-0.000113037
-0.000106713
-9.9893e-05
-9.2531e-05
-8.45838e-05
-7.60134e-05
-6.67943e-05
-5.69239e-05
-4.64438e-05
-3.54821e-05
-2.43543e-05
-1.41913e-05
0.00101491
0.000944492
0.000859641
0.000763978
0.000661865
0.000557787
0.000455385
0.000357436
0.000266059
0.000182775
0.000108492
4.35483e-05
-1.21892e-05
-5.92196e-05
-9.8298e-05
-0.000130332
-0.000156286
-0.00017711
-0.000193688
-0.0002068
-0.00021712
-0.000225204
-0.000231507
-0.000236388
-0.000240133
-0.000242963
-0.00024505
-0.000246525
-0.000247495
-0.00024804
-0.000248225
-0.000248102
-0.000247716
-0.000247101
-0.000246288
-0.000245302
-0.000244165
-0.000242896
-0.000241513
-0.000240028
-0.000238456
-0.000236806
-0.00023509
-0.000233315
-0.000231489
-0.00022962
-0.000227712
-0.000225772
-0.000223805
-0.000221813
-0.000219801
-0.000217772
-0.000215729
-0.000213673
-0.000211608
-0.000209533
-0.000207449
-0.000205358
-0.00020326
-0.000201154
-0.000199038
-0.000196913
-0.000194776
-0.000192624
-0.000190455
-0.000188266
-0.000186052
-0.000183808
-0.000181529
-0.000179208
-0.000176838
-0.000174412
-0.00017192
-0.000169353
-0.000166698
-0.000163945
-0.000161079
-0.000158085
-0.000154948
-0.000151651
-0.000148173
-0.000144495
-0.000140594
-0.000136445
-0.000132024
-0.000127299
-0.000122242
-0.000116817
-0.000110989
-0.000104717
-9.79608e-05
-9.06782e-05
-8.283e-05
-7.43825e-05
-6.53151e-05
-5.56298e-05
-4.53696e-05
-3.46501e-05
-2.3721e-05
-1.33814e-05
0.000958784
0.000894758
0.00081871
0.000733017
0.000640953
0.000546337
0.000452488
0.000361988
0.000276817
0.000198432
0.000127767
6.52583e-05
1.09173e-05
-3.55836e-05
-7.4817e-05
-0.000107512
-0.000134473
-0.000156515
-0.00017441
-0.000188864
-0.00020049
-0.000209811
-0.000217262
-0.000223195
-0.000227895
-0.000231586
-0.000234449
-0.000236623
-0.000238223
-0.000239336
-0.000240036
-0.000240381
-0.00024042
-0.000240193
-0.000239735
-0.000239075
-0.000238238
-0.000237245
-0.000236116
-0.000234866
-0.000233511
-0.000232062
-0.000230532
-0.00022893
-0.000227264
-0.000225544
-0.000223775
-0.000221963
-0.000220115
-0.000218235
-0.000216327
-0.000214395
-0.000212441
-0.000210469
-0.000208481
-0.000206478
-0.000204462
-0.000202433
-0.000200392
-0.000198339
-0.000196273
-0.000194192
-0.000192097
-0.000189983
-0.000187849
-0.000185691
-0.000183506
-0.000181288
-0.000179032
-0.000176733
-0.000174382
-0.000171973
-0.000169496
-0.000166942
-0.0001643
-0.000161557
-0.000158702
-0.000155719
-0.000152592
-0.000149305
-0.000145839
-0.000142173
-0.000138286
-0.000134155
-0.000129753
-0.000125053
-0.000120025
-0.000114636
-0.000108852
-0.000102634
-9.59451e-05
-8.87463e-05
-8.10019e-05
-7.26827e-05
-6.3772e-05
-5.42749e-05
-4.42325e-05
-3.37428e-05
-2.29872e-05
-1.24868e-05
0.000907612
0.000849074
0.000780487
0.000703375
0.00062017
0.000534076
0.000448056
0.000364474
0.000285166
0.000211512
0.000144447
8.44755e-05
3.17212e-05
-1.4002e-05
-5.31123e-05
-8.61847e-05
-0.000113881
-0.000136892
-0.000155891
-0.000171502
-0.000184284
-0.000194722
-0.000203227
-0.000210139
-0.000215738
-0.000220249
-0.000223857
-0.000226708
-0.00022892
-0.00023059
-0.000231795
-0.000232601
-0.000233061
-0.000233219
-0.000233115
-0.000232779
-0.00023224
-0.000231522
-0.000230647
-0.000229632
-0.000228493
-0.000227246
-0.000225902
-0.000224473
-0.000222969
-0.000221398
-0.000219768
-0.000218086
-0.000216358
-0.00021459
-0.000212786
-0.000210951
-0.000209088
-0.0002072
-0.00020529
-0.000203359
-0.00020141
-0.000199444
-0.000197461
-0.000195461
-0.000193444
-0.000191409
-0.000189355
-0.00018728
-0.000185181
-0.000183055
-0.000180898
-0.000178706
-0.000176474
-0.000174195
-0.000171863
-0.000169471
-0.000167009
-0.000164469
-0.000161839
-0.000159108
-0.000156263
-0.00015329
-0.000150173
-0.000146897
-0.000143442
-0.00013979
-0.000135918
-0.000131804
-0.000127424
-0.000122749
-0.000117752
-0.000112401
-0.000106663
-0.000100502
-9.38845e-05
-8.67733e-05
-7.9137e-05
-7.095e-05
-6.2199e-05
-5.28908e-05
-4.30626e-05
-3.2793e-05
-2.22032e-05
-1.16092e-05
0.000860729
0.000806967
0.000744773
0.000675083
0.000599685
0.000521246
0.000442368
0.00036519
0.000291395
0.000222281
0.000158763
0.000101388
5.03657e-05
5.62415e-06
-3.31254e-05
-6.63255e-05
-9.45126e-05
-0.000118265
-0.000138163
-0.000154756
-0.000168548
-0.000179983
-0.000189445
-0.00019726
-0.000203698
-0.000208984
-0.000213303
-0.000216803
-0.000219608
-0.000221819
-0.000223519
-0.000224778
-0.000225652
-0.00022619
-0.000226435
-0.000226421
-0.000226178
-0.000225734
-0.000225112
-0.000224331
-0.00022341
-0.000222364
-0.000221207
-0.000219952
-0.000218608
-0.000217187
-0.000215697
-0.000214145
-0.000212538
-0.000210883
-0.000209184
-0.000207446
-0.000205674
-0.000203871
-0.000202039
-0.000200182
-0.000198301
-0.000196398
-0.000194473
-0.000192527
-0.00019056
-0.000188571
-0.000186559
-0.000184522
-0.000182459
-0.000180365
-0.000178237
-0.000176072
-0.000173864
-0.000171607
-0.000169294
-0.000166919
-0.000164473
-0.000161947
-0.00015933
-0.000156611
-0.000153778
-0.000150816
-0.00014771
-0.000144446
-0.000141004
-0.000137365
-0.00013351
-0.000129416
-0.000125058
-0.000120411
-0.000115447
-0.000110136
-0.000104448
-9.83483e-05
-9.18048e-05
-8.47851e-05
-7.72604e-05
-6.92086e-05
-6.06191e-05
-5.14994e-05
-4.18818e-05
-3.18267e-05
-2.14081e-05
-1.08101e-05
0.000817587
0.000768024
0.000711362
0.000648127
0.000579619
0.000508044
0.000435667
0.000364397
0.000295768
0.000230984
0.000170931
0.000116176
6.69918e-05
2.33964e-05
-1.47915e-05
-4.79015e-05
-7.63603e-05
-0.000100647
-0.000121254
-0.000138663
-0.000153322
-0.000165635
-0.000175957
-0.000184596
-0.000191812
-0.000197823
-0.000202814
-0.000206933
-0.000210309
-0.000213043
-0.000215224
-0.000216924
-0.000218204
-0.000219117
-0.000219706
-0.000220009
-0.000220061
-0.000219888
-0.000219518
-0.00021897
-0.000218265
-0.00021742
-0.00021645
-0.000215368
-0.000214186
-0.000212915
-0.000211565
-0.000210143
-0.000208658
-0.000207116
-0.000205522
-0.000203883
-0.000202203
-0.000200485
-0.000198733
-0.000196949
-0.000195137
-0.000193297
-0.000191432
-0.00018954
-0.000187624
-0.000185681
-0.000183712
-0.000181715
-0.000179688
-0.000177627
-0.000175529
-0.000173392
-0.000171208
-0.000168974
-0.000166682
-0.000164325
-0.000161896
-0.000159385
-0.000156782
-0.000154076
-0.000151255
-0.000148306
-0.000145213
-0.000141962
-0.000138534
-0.000134912
-0.000131075
-0.000127002
-0.000122669
-0.000118053
-0.000113125
-0.000107858
-0.000102222
-9.61872e-05
-8.97219e-05
-8.27973e-05
-7.53874e-05
-6.74733e-05
-5.90466e-05
-5.01147e-05
-4.0705e-05
-3.08622e-05
-2.06282e-05
-1.01152e-05
0.000777724
0.000731889
0.000680057
0.000622468
0.000560051
0.000494629
0.000428157
0.000362325
0.000298519
0.000237848
0.000181155
0.000129014
8.17377e-05
3.94176e-05
1.95888e-06
-3.08729e-05
-5.94096e-05
-8.40414e-05
-0.000105184
-0.000123251
-0.00013864
-0.000151714
-0.000162799
-0.000172182
-0.000180111
-0.000186796
-0.000192417
-0.000197124
-0.000201043
-0.000204281
-0.000206926
-0.000209055
-0.000210731
-0.00021201
-0.000212937
-0.000213554
-0.000213895
-0.000213991
-0.000213869
-0.000213553
-0.000213063
-0.000212418
-0.000211634
-0.000210725
-0.000209705
-0.000208584
-0.000207374
-0.000206083
-0.00020472
-0.000203291
-0.000201804
-0.000200263
-0.000198675
-0.000197043
-0.000195371
-0.000193662
-0.000191919
-0.000190144
-0.000188338
-0.000186502
-0.000184637
-0.000182742
-0.000180817
-0.00017886
-0.00017687
-0.000174843
-0.000172777
-0.000170667
-0.00016851
-0.000166299
-0.000164029
-0.000161692
-0.000159281
-0.000156786
-0.000154199
-0.000151508
-0.000148701
-0.000145766
-0.000142688
-0.000139452
-0.00013604
-0.000132436
-0.00012862
-0.000124571
-0.000120266
-0.000115683
-0.000110794
-0.000105574
-9.99951e-05
-9.4028e-05
-8.76447e-05
-8.08186e-05
-7.35267e-05
-6.57526e-05
-5.74896e-05
-4.87449e-05
-3.95412e-05
-2.99116e-05
-1.98785e-05
-9.52518e-06
0.000740756
0.000698253
0.000650671
0.000598046
0.000541028
0.000481122
0.000420008
0.000359174
0.000299858
0.000243076
0.000189623
0.000140063
9.47375e-05
5.37908e-05
1.71985e-05
-1.51945e-05
-4.36387e-05
-6.84464e-05
-8.99629e-05
-0.000108542
-0.000124531
-0.000138252
-0.000150004
-0.000160052
-0.000168627
-0.000175932
-0.00018214
-0.000187398
-0.000191833
-0.000195551
-0.000198643
-0.000201186
-0.000203246
-0.000204881
-0.000206138
-0.000207062
-0.000207688
-0.000208049
-0.000208174
-0.000208086
-0.000207809
-0.000207363
-0.000206763
-0.000206027
-0.000205167
-0.000204197
-0.000203126
-0.000201966
-0.000200725
-0.00019941
-0.000198029
-0.000196588
-0.000195092
-0.000193547
-0.000191955
-0.000190322
-0.000188649
-0.000186939
-0.000185193
-0.000183414
-0.000181601
-0.000179755
-0.000177874
-0.000175958
-0.000174006
-0.000172014
-0.00016998
-0.0001679
-0.00016577
-0.000163584
-0.000161336
-0.000159021
-0.000156629
-0.000154153
-0.000151583
-0.000148908
-0.000146117
-0.000143198
-0.000140137
-0.000136918
-0.000133525
-0.000129942
-0.000126149
-0.000122127
-0.000117853
-0.000113305
-0.000108459
-0.00010329
-9.7771e-05
-9.18756e-05
-8.55779e-05
-7.88537e-05
-7.16826e-05
-6.40505e-05
-5.59522e-05
-4.73943e-05
-3.8396e-05
-2.8982e-05
-1.91657e-05
-9.0271e-06
0.000706351
0.000666847
0.000623031
0.000574794
0.000522577
0.00046762
0.000411366
0.000355115
0.00029997
0.000246854
0.000196508
0.000149477
0.00010612
6.66179e-05
3.10021e-05
-8.16835e-07
-2.90203e-05
-5.38529e-05
-7.55971e-05
-9.45519e-05
-0.000111016
-0.000125278
-0.000137603
-0.000148234
-0.000157389
-0.000165258
-0.000172007
-0.000177779
-0.000182699
-0.000186872
-0.000190389
-0.00019333
-0.000195761
-0.000197741
-0.00019932
-0.000200543
-0.000201448
-0.000202069
-0.000202436
-0.000202574
-0.000202508
-0.000202258
-0.000201842
-0.000201276
-0.000200576
-0.000199755
-0.000198824
-0.000197795
-0.000196675
-0.000195474
-0.0001942
-0.000192858
-0.000191455
-0.000189997
-0.000188486
-0.000186929
-0.000185326
-0.000183682
-0.000181998
-0.000180275
-0.000178515
-0.000176718
-0.000174883
-0.00017301
-0.000171096
-0.000169141
-0.00016714
-0.000165091
-0.000162989
-0.000160829
-0.000158606
-0.000156312
-0.000153942
-0.000151485
-0.000148934
-0.000146278
-0.000143505
-0.000140604
-0.000137561
-0.000134362
-0.00013099
-0.00012743
-0.000123664
-0.000119671
-0.000115431
-0.000110923
-0.000106123
-0.000101008
-9.55523e-05
-8.97323e-05
-8.35237e-05
-7.69047e-05
-6.98572e-05
-6.23691e-05
-5.44364e-05
-4.60653e-05
-3.72723e-05
-2.80771e-05
-1.84908e-05
-8.60303e-06
0.00067423
0.00063744
0.000596979
0.000552641
0.000504703
0.000454193
0.000402347
0.000350297
0.000299021
0.00024935
0.000201969
0.000157402
0.000116009
7.79988e-05
4.34456e-05
1.2313e-05
-1.55222e-05
-4.02461e-05
-6.20858e-05
-8.12903e-05
-9.81155e-05
-0.000112812
-0.000125619
-0.000136756
-0.000146424
-0.0001548
-0.000162042
-0.000168289
-0.000173661
-0.000178262
-0.000182184
-0.000185504
-0.00018829
-0.000190603
-0.000192494
-0.000194008
-0.000195185
-0.000196059
-0.000196663
-0.000197024
-0.000197164
-0.000197108
-0.000196873
-0.000196477
-0.000195936
-0.000195263
-0.00019447
-0.00019357
-0.000192572
-0.000191485
-0.000190317
-0.000189075
-0.000187765
-0.000186394
-0.000184965
-0.000183483
-0.000181952
-0.000180374
-0.000178752
-0.000177087
-0.000175381
-0.000173634
-0.000171845
-0.000170015
-0.000168142
-0.000166223
-0.000164257
-0.000162239
-0.000160167
-0.000158035
-0.000155837
-0.000153568
-0.000151219
-0.000148785
-0.000146254
-0.000143618
-0.000140865
-0.000137984
-0.000134962
-0.000131785
-0.000128437
-0.000124903
-0.000121165
-0.000117204
-0.000113002
-0.000108536
-0.000103786
-9.8728e-05
-9.33401e-05
-8.75991e-05
-8.14831e-05
-7.49725e-05
-6.80512e-05
-6.0709e-05
-5.29429e-05
-4.4759e-05
-3.61717e-05
-2.71983e-05
-1.7852e-05
-8.23544e-06
0.000644149
0.000609825
0.000572371
0.000531513
0.000487405
0.000440897
0.00039305
0.000344849
0.000297154
0.000250713
0.000206154
0.000163971
0.000124521
8.80305e-05
5.46048e-05
2.42503e-05
-3.1081e-06
-2.76064e-05
-4.94231e-05
-6.87624e-05
-8.58407e-05
-0.000100875
-0.000114076
-0.000125642
-0.000135755
-0.000144582
-0.000152269
-0.00015895
-0.00016474
-0.000169741
-0.000174042
-0.000177722
-0.000180847
-0.000183479
-0.000185669
-0.000187464
-0.000188905
-0.000190027
-0.000190863
-0.00019144
-0.000191784
-0.000191918
-0.000191861
-0.000191633
-0.000191248
-0.000190722
-0.000190067
-0.000189296
-0.000188419
-0.000187445
-0.000186383
-0.00018524
-0.000184024
-0.000182739
-0.000181392
-0.000179987
-0.000178527
-0.000177016
-0.000175456
-0.00017385
-0.000172198
-0.000170501
-0.00016876
-0.000166974
-0.000165142
-0.000163261
-0.00016133
-0.000159346
-0.000157304
-0.000155201
-0.00015303
-0.000150786
-0.000148462
-0.000146051
-0.000143542
-0.000140928
-0.000138197
-0.000135339
-0.00013234
-0.000129187
-0.000125865
-0.00012236
-0.000118653
-0.000114728
-0.000110566
-0.000106146
-0.000101449
-9.64521e-05
-9.11352e-05
-8.54766e-05
-7.94566e-05
-7.30573e-05
-6.62648e-05
-5.90703e-05
-5.14718e-05
-4.34755e-05
-3.50946e-05
-2.63456e-05
-1.7246e-05
-7.90965e-06
0.000615896
0.000583824
0.000549079
0.00051134
0.000470668
0.000427769
0.000383554
0.000338878
0.000294497
0.000251078
0.000209193
0.000169307
0.000131767
9.68065e-05
6.45548e-05
3.50514e-05
8.26099e-06
-1.59102e-05
-3.75986e-05
-5.69686e-05
-7.42006e-05
-8.94804e-05
-0.000102992
-0.000114912
-0.000125406
-0.000134626
-0.00014271
-0.000149783
-0.000155956
-0.000161326
-0.000165982
-0.000169999
-0.000173445
-0.000176381
-0.000178858
-0.000180923
-0.000182619
-0.00018398
-0.000185041
-0.00018583
-0.000186372
-0.000186693
-0.000186811
-0.000186747
-0.000186517
-0.000186136
-0.000185617
-0.000184973
-0.000184216
-0.000183355
-0.000182398
-0.000181355
-0.000180231
-0.000179034
-0.000177768
-0.00017644
-0.000175051
-0.000173608
-0.000172111
-0.000170563
-0.000168966
-0.000167321
-0.000165628
-0.000163887
-0.000162096
-0.000160255
-0.000158361
-0.000156411
-0.000154401
-0.000152328
-0.000150186
-0.000147969
-0.000145671
-0.000143284
-0.0001408
-0.000138209
-0.000135503
-0.000132669
-0.000129695
-0.000126569
-0.000123276
-0.000119802
-0.00011613
-0.000112243
-0.000108124
-0.000103754
-9.91123e-05
-9.41803e-05
-8.89377e-05
-8.33651e-05
-7.74442e-05
-7.11593e-05
-6.44979e-05
-5.74528e-05
-5.0023e-05
-4.22147e-05
-3.4041e-05
-2.55183e-05
-1.66688e-05
-7.61451e-06
0.000589289
0.000559279
0.000526984
0.000492052
0.000454473
0.000414836
0.000373924
0.000332477
0.000291159
0.000250563
0.000211209
0.000173527
0.000137851
0.000104417
7.33693e-05
4.47737e-05
1.86265e-05
-5.13065e-06
-2.65979e-05
-4.59049e-05
-6.31993e-05
-7.86384e-05
-9.23814e-05
-0.000104584
-0.000115394
-0.000124952
-0.000133383
-0.000140806
-0.000147325
-0.000153034
-0.000158018
-0.00016235
-0.000166098
-0.000169321
-0.000172071
-0.000174395
-0.000176335
-0.000177927
-0.000179205
-0.000180199
-0.000180936
-0.000181438
-0.000181728
-0.000181825
-0.000181746
-0.000181508
-0.000181123
-0.000180606
-0.000179967
-0.000179217
-0.000178365
-0.00017742
-0.000176389
-0.000175279
-0.000174095
-0.000172843
-0.000171527
-0.00017015
-0.000168717
-0.000167228
-0.000165687
-0.000164094
-0.00016245
-0.000160754
-0.000159006
-0.000157205
-0.000155349
-0.000153434
-0.000151458
-0.000149416
-0.000147303
-0.000145115
-0.000142844
-0.000140484
-0.000138026
-0.000135462
-0.000132781
-0.000129974
-0.000127028
-0.000123931
-0.000120669
-0.000117229
-0.000113594
-0.000109749
-0.000105676
-0.000101358