/*--------------------------------*- C++ -*----------------------------------*\
| =========                 |                                                 |
| \\      /  F ield         | OpenFOAM: The Open Source CFD Toolbox           |
|  \\    /   O peration     | Version:  2.3.0                                 |
|   \\  /    A nd           | Web:      www.OpenFOAM.org                      |
|    \\/     M anipulation  |                                                 |
\*---------------------------------------------------------------------------*/
FoamFile
{
    version     2.0;
    format      ascii;
    class       volScalarField;
    location    "0.15";
    object      p;
}
// * * * * * * * * * * * * * * * * * * * * * * * * * * * * * * * * * * * * * //

dimensions      [0 2 -2 0 0 0 0];

internalField   nonuniform List<scalar> 
2700
(
0.00775876
0.0061471
0.00493707
0.00418882
0.00367054
0.00321339
0.00277494
0.00237858
0.00206354
0.00184855
0.00172535
0.00166918
0.00165243
0.00165291
0.00165617
0.00165461
0.00164558
0.00162931
0.00160735
0.00158157
0.00155359
0.00152457
0.00149527
0.0014662
0.00143759
0.00140954
0.0013821
0.00135527
0.00132908
0.00130349
0.00127852
0.00125424
0.00123075
0.00120812
0.00118643
0.00116574
0.0011462
0.00112798
0.00111121
0.0010959
0.00108199
0.00106937
0.0010579
0.00104727
0.00103699
0.00102649
0.00101537
0.00100347
0.000990903
0.000977763
0.000964022
0.000949507
0.000934058
0.000917719
0.000900775
0.000883629
0.000866578
0.000849648
0.00083258
0.000814972
0.000796495
0.000777051
0.000756824
0.000736192
0.000715584
0.000695348
0.000675681
0.000656632
0.000638134
0.00062006
0.000602256
0.000584565
0.000566854
0.000549027
0.000531016
0.000512768
0.000494267
0.000475504
0.000456481
0.00043721
0.000417699
0.000397963
0.000378011
0.000357854
0.000337502
0.00031696
0.000296235
0.000275333
0.000254256
0.000233008
0.000211593
0.00019001
0.000168263
0.000146353
0.000124279
0.000102043
7.96462e-05
5.70866e-05
3.43656e-05
1.14825e-05
0.0067634
0.00578978
0.00484228
0.00413788
0.00362857
0.0031985
0.00279383
0.00242528
0.00212389
0.00190922
0.00177901
0.00171365
0.00168785
0.00168023
0.00167682
0.00167019
0.00165756
0.00163888
0.00161533
0.00158848
0.00155974
0.00153012
0.00150033
0.00147082
0.00144182
0.0014134
0.00138561
0.00135846
0.00133196
0.00130609
0.00128086
0.00125632
0.0012326
0.00120976
0.00118786
0.00116698
0.00114726
0.00112888
0.00111196
0.00109651
0.00108247
0.00106975
0.0010582
0.00104753
0.00103723
0.00102674
0.00101561
0.0010037
0.000991112
0.000977974
0.000964252
0.000949756
0.000934307
0.000917943
0.000900957
0.000883773
0.000866701
0.000849773
0.000832723
0.000815133
0.000796659
0.000777197
0.000756936
0.000736264
0.000715619
0.000695354
0.000675669
0.000656611
0.000638112
0.00062004
0.000602235
0.000584549
0.000566844
0.000549021
0.000531013
0.000512767
0.000494267
0.000475505
0.000456482
0.000437211
0.0004177
0.000397964
0.000378012
0.000357854
0.000337502
0.000316961
0.000296235
0.000275333
0.000254256
0.000233008
0.000211593
0.00019001
0.000168263
0.000146353
0.000124279
0.000102043
7.96462e-05
5.70866e-05
3.43656e-05
1.14825e-05
0.00603282
0.00545027
0.00474062
0.00410581
0.00360524
0.00319539
0.00282829
0.00249606
0.00221485
0.0020015
0.00185951
0.00177738
0.00173561
0.00171511
0.00170184
0.00168806
0.00167069
0.00164915
0.00162399
0.00159625
0.00156697
0.00153696
0.00150681
0.00147695
0.00144758
0.00141878
0.00139061
0.0013631
0.00133624
0.00131004
0.00128448
0.00125963
0.00123562
0.00121251
0.00119035
0.00116921
0.00114923
0.00113061
0.00111347
0.00109782
0.00108358
0.00107066
0.00105895
0.00104816
0.00103778
0.00102722
0.00101602
0.00100405
0.000991406
0.00097825
0.000964541
0.000950065
0.000934618
0.000918223
0.000901191
0.000883969
0.000866892
0.00084999
0.000832982
0.000815424
0.000796949
0.00077745
0.000757126
0.000736381
0.000715673
0.000695362
0.000675651
0.000656583
0.000638084
0.000620018
0.000602223
0.000584542
0.000566846
0.000549028
0.000531023
0.000512778
0.000494277
0.000475514
0.000456491
0.000437218
0.000417706
0.000397969
0.000378016
0.000357858
0.000337505
0.000316963
0.000296237
0.000275335
0.000254257
0.000233009
0.000211594
0.000190011
0.000168264
0.000146353
0.000124279
0.000102044
7.96464e-05
5.70867e-05
3.43656e-05
1.14825e-05
0.00548633
0.00512344
0.00460206
0.00405589
0.00358277
0.00319251
0.00285676
0.00255817
0.00229992
0.00209355
0.00194507
0.00184924
0.00179238
0.00175864
0.00173504
0.00171365
0.00169089
0.00166565
0.00163801
0.00160862
0.00157819
0.00154733
0.0015165
0.00148605
0.00145614
0.00142684
0.0013982
0.00137024
0.00134298
0.0013164
0.00129048
0.00126531
0.00124098
0.00121758
0.00119515
0.00117372
0.00115344
0.00113452
0.00111709
0.00110112
0.00108653
0.00107321
0.00106109
0.00104993
0.00103926
0.00102844
0.001017
0.0010048
0.000991986
0.000978732
0.000964996
0.00095053
0.00093508
0.000918644
0.000901542
0.000884259
0.000867162
0.000850297
0.000833364
0.000815884
0.000797456
0.000777951
0.000757573
0.000736746
0.00071595
0.000695562
0.000675791
0.000656681
0.000638154
0.000620071
0.000602265
0.000584579
0.000566879
0.00054906
0.000531049
0.000512803
0.0004943
0.000475534
0.000456507
0.000437233
0.000417718
0.000397979
0.000378025
0.000357864
0.000337511
0.000316967
0.000296241
0.000275338
0.00025426
0.000233011
0.000211595
0.000190012
0.000168264
0.000146354
0.00012428
0.000102044
7.96465e-05
5.70867e-05
3.43656e-05
1.14824e-05
0.00505359
0.00481356
0.00442928
0.00397879
0.00355104
0.00318507
0.00287466
0.00260388
0.00236791
0.00217211
0.00202232
0.0019174
0.00184857
0.00180345
0.00177067
0.00174242
0.00171462
0.00168571
0.00165546
0.00162421
0.00159246
0.00156061
0.00152902
0.00149792
0.00146744
0.00143762
0.00140849
0.00138009
0.00135242
0.00132545
0.00129918
0.00127368
0.00124904
0.00122534
0.00120261
0.00118089
0.00116029
0.00114101
0.00112318
0.00110678
0.00109169
0.0010778
0.00106505
0.00105326
0.001042
0.00103069
0.00101883
0.00100626
0.000993126
0.000979628
0.000965744
0.000951213
0.000935741
0.000919276
0.000902112
0.000884744
0.000867573
0.000850681
0.000833783
0.000816385
0.000798053
0.000778626
0.000758286
0.000737454
0.000716615
0.00069616
0.000676307
0.000657112
0.000638503
0.000620349
0.000602484
0.000584749
0.000567013
0.000549166
0.000531134
0.000512869
0.000494353
0.000475576
0.00045654
0.000437259
0.000417739
0.000397994
0.000378038
0.000357876
0.00033752
0.000316974
0.000296246
0.000275342
0.000254263
0.000233014
0.000211597
0.000190013
0.000168266
0.000146355
0.00012428
0.000102044
7.96468e-05
5.70868e-05
3.43655e-05
1.14823e-05
0.00469781
0.00452907
0.00424246
0.00388032
0.00350813
0.00317249
0.00288441
0.00263575
0.00241943
0.00223585
0.00208874
0.00197882
0.00190108
0.00184654
0.00180573
0.00177131
0.00173894
0.00170667
0.00167395
0.00164091
0.00160785
0.00157505
0.00154273
0.00151103
0.00148004
0.00144977
0.00142023
0.00139145
0.00136342
0.00133612
0.00130957
0.0012838
0.0012589
0.00123493
0.00121194
0.00118994
0.00116903
0.00114939
0.00113113
0.00111423
0.00109857
0.00108402
0.00107053
0.00105794
0.00104591
0.00103392
0.00102149
0.00100846
0.000994913
0.000981051
0.00096688
0.000952166
0.00093661
0.00092012
0.000902929
0.000885488
0.000868196
0.000851172
0.000834184
0.000816777
0.00079852
0.000779225
0.000759036
0.000738337
0.000717585
0.000697155
0.000677267
0.000657987
0.000639265
0.000620986
0.000603
0.000585159
0.000567333
0.000549412
0.000531323
0.000513016
0.000494466
0.000475664
0.000456609
0.000437312
0.000417781
0.000398028
0.000378065
0.000357897
0.000337536
0.000316988
0.000296257
0.000275351
0.00025427
0.000233019
0.000211601
0.000190017
0.000168268
0.000146357
0.000124282
0.000102045
7.96473e-05
5.70871e-05
3.43656e-05
1.14821e-05
0.00439797
0.00427384
0.00405695
0.00376902
0.0034538
0.00315312
0.00288735
0.00265727
0.00245766
0.00228632
0.00214444
0.00203291
0.00194915
0.00188713
0.0018394
0.00179947
0.00176296
0.00172762
0.00169264
0.00165791
0.0016236
0.00158986
0.00155682
0.00152456
0.00149308
0.00146238
0.00143247
0.00140335
0.001375
0.00134741
0.0013206
0.0012946
0.00126948
0.00124528
0.00122203
0.00119977
0.0011786
0.00115863
0.00113994
0.0011225
0.00110622
0.00109102
0.00107681
0.00106341
0.00105053
0.00103775
0.00102468
0.00101115
0.000997208
0.000982959
0.000968406
0.00095337
0.000937616
0.000921064
0.000903892
0.000886455
0.000869078
0.000851871
0.000834661
0.00081708
0.000798766
0.000779551
0.000759554
0.000739103
0.00071859
0.000698334
0.000678525
0.000659229
0.000640414
0.000621993
0.000603846
0.000585847
0.000567878
0.000549838
0.000531652
0.000513269
0.00049466
0.000475813
0.000456725
0.000437402
0.000417851
0.000398083
0.000378108
0.000357931
0.000337564
0.000317009
0.000296274
0.000275364
0.000254281
0.000233028
0.000211608
0.000190022
0.000168272
0.00014636
0.000124284
0.000102047
7.96484e-05
5.70877e-05
3.43659e-05
1.14821e-05
0.00414145
0.00404741
0.00388041
0.00365168
0.00338903
0.00312528
0.00288316
0.00267026
0.00248517
0.00232528
0.00218997
0.00207943
0.0019923
0.00192476
0.00187132
0.00182654
0.00178632
0.00174824
0.00171121
0.00167494
0.00163943
0.00160477
0.00157102
0.00153818
0.0015062
0.00147508
0.0014448
0.00141536
0.00138671
0.00135884
0.00133177
0.00130556
0.00128023
0.00125579
0.00123229
0.00120977
0.00118833
0.00116805
0.00114894
0.00113096
0.00111407
0.00109823
0.00108333
0.00106918
0.00105547
0.00104188
0.00102813
0.00101411
0.00099978
0.000985169
0.000970218
0.000954789
0.00093874
0.000922058
0.0009049
0.000887523
0.000870129
0.000852766
0.000835288
0.000817423
0.000798914
0.000779665
0.000759805
0.00073962
0.000719423
0.000699454
0.00067984
0.000660622
0.000641774
0.000623238
0.00060493
0.000586755
0.000568616
0.000550424
0.000532111
0.000513625
0.000494935
0.000476026
0.000456889
0.00043753
0.000417952
0.000398162
0.00037817
0.00035798
0.000337603
0.00031704
0.000296299
0.000275384
0.000254296
0.00023304
0.000211618
0.00019003
0.000168278
0.000146364
0.000124287
0.00010205
7.96502e-05
5.70888e-05
3.43665e-05
1.14822e-05
0.00391949
0.00384666
0.00371587
0.00353332
0.00331624
0.00308863
0.00287139
0.00267567
0.00250384
0.0023545
0.00222624
0.00211846
0.00203019
0.00195903
0.00190118
0.00185232
0.00180884
0.00176832
0.00172947
0.0016918
0.00165519
0.00161965
0.00158518
0.00155176
0.0015193
0.00148774
0.0014571
0.00142734
0.00139839
0.00137023
0.00134291
0.00131648
0.00129092
0.00126625
0.00124249
0.00121971
0.00119799
0.00117738
0.00115785
0.00113936
0.00112187
0.00110541
0.00108986
0.001075
0.00106052
0.00104616
0.00103174
0.0010172
0.00100249
0.000987529
0.000972197
0.000956372
0.000939993
0.000923128
0.000905944
0.000888618
0.000871236
0.000853758
0.000836034
0.000817867
0.000799108
0.000779746
0.000759949
0.000739978
0.000720086
0.000700428
0.000681061
0.000661983
0.000643161
0.000624555
0.000606113
0.000587772
0.000569461
0.000551109
0.000532657
0.000514054
0.000495271
0.000476288
0.000457094
0.000437691
0.000418077
0.000398261
0.000378249
0.000358043
0.000337652
0.00031708
0.000296331
0.000275409
0.000254317
0.000233056
0.000211631
0.00019004
0.000168286
0.00014637
0.000124292
0.000102053
7.96526e-05
5.70904e-05
3.43674e-05
1.14825e-05
0.00372555
0.00366818
0.0035643
0.0034175
0.00323849
0.00304426
0.00285212
0.00267404
0.00251507
0.00237558
0.00225438
0.00215042
0.00206272
0.00198967
0.00192871
0.00187662
0.00183037
0.00178772
0.00174728
0.00170837
0.00167076
0.0016344
0.00159925
0.00156525
0.0015323
0.00150033
0.00146931
0.00143923
0.00140998
0.00138154
0.00135397
0.00132731
0.00130152
0.00127659
0.00125257
0.00122952
0.00120751
0.00118656
0.00116661
0.00114762
0.00112957
0.00111251
0.00109634
0.0010808
0.00106559
0.00105051
0.00103546
0.00102041
0.00100529
0.000989971
0.00097427
0.000958072
0.000941377
0.000924313
0.00090706
0.00088974
0.000872348
0.000854768
0.000836836
0.000818406
0.000799414
0.000779928
0.000760152
0.000740338
0.000720691
0.000701302
0.000682167
0.000663239
0.000644471
0.00062583
0.000607287
0.000588806
0.00057034
0.000551836
0.000533247
0.000514527
0.000495646
0.000476584
0.000457327
0.000437875
0.000418223
0.000398377
0.000378341
0.000358117
0.000337711
0.000317127
0.000296369
0.00027544
0.000254341
0.000233076
0.000211646
0.000190052
0.000168296
0.000146378
0.000124298
0.000102057
7.96557e-05
5.70925e-05
3.43686e-05
1.14828e-05
0.00355473
0.00350894
0.00342547
0.00330644
0.00315867
0.00299404
0.00282606
0.00266585
0.00251975
0.00238977
0.0022755
0.00217592
0.00208999
0.00201649
0.00195367
0.00189923
0.00185076
0.00180631
0.00176449
0.0017245
0.00168603
0.00164894
0.00161315
0.0015786
0.00154518
0.00151281
0.00148143
0.00145102
0.00142148
0.00139276
0.00136493
0.00133804
0.00131201
0.00128682
0.00126253
0.0012392
0.00121688
0.00119558
0.00117521
0.00115574
0.00113716
0.00111952
0.00110273
0.00108654
0.00107066
0.00105491
0.00103927
0.00102372
0.00100818
0.000992477
0.000976407
0.000959864
0.000942883
0.000925627
0.000908274
0.000890908
0.000873461
0.000855769
0.000837658
0.000819017
0.000799846
0.000780266
0.000760505
0.000740807
0.000721341
0.000702154
0.000683197
0.000664394
0.000645679
0.000627021
0.000608403
0.000589808
0.000571209
0.00055257
0.000533853
0.00051502
0.000496044
0.000476903
0.000457582
0.000438078
0.000418386
0.000398507
0.000378445
0.0003582
0.000337779
0.000317181
0.000296412
0.000275475
0.000254369
0.000233098
0.000211664
0.000190066
0.000168307
0.000146387
0.000124305
0.000102063
7.96594e-05
5.7095e-05
3.43701e-05
1.14833e-05
0.0034033
0.00336635
0.00329863
0.00320136
0.00307906
0.00293997
0.00279435
0.00265166
0.0025185
0.00239794
0.00229053
0.00219561
0.00211226
0.00203943
0.00197586
0.00191994
0.00186984
0.00182394
0.00178097
0.00174009
0.00170087
0.00166316
0.00162681
0.00159175
0.0015579
0.00152514
0.00149342
0.0014627
0.00143287
0.00140389
0.0013758
0.00134865
0.00132238
0.00129693
0.00127236
0.00124874
0.00122611
0.00120444
0.00118366
0.00116372
0.00114463
0.00112644
0.00110906
0.00109224
0.00107571
0.00105936
0.00104316
0.00102712
0.00101115
0.000995042
0.000978607
0.000961742
0.000944505
0.000927065
0.000909591
0.000892132
0.000874585
0.000856763
0.000838494
0.000819692
0.000800397
0.000780765
0.000761031
0.000741423
0.000722086
0.000703035
0.000684198
0.00066548
0.000646802
0.00062813
0.000609453
0.000590765
0.000572054
0.000553296
0.000534464
0.000515526
0.000496457
0.000477238
0.000457853
0.000438297
0.000418562
0.000398649
0.00037856
0.000358293
0.000337854
0.000317242
0.000296461
0.000275514
0.000254401
0.000233124
0.000211685
0.000190083
0.00016832
0.000146397
0.000124313
0.000102069
7.96637e-05
5.70979e-05
3.43718e-05
1.14839e-05
0.00326837
0.00323827
0.00318286
0.00310284
0.00300126
0.00288385
0.00275828
0.00263225
0.00251187
0.00240076
0.00230022
0.00221015
0.00212989
0.00205855
0.00199515
0.00193856
0.00188743
0.00184048
0.00179661
0.00175501
0.00171519
0.00167696
0.00164015
0.00160466
0.0015704
0.00153729
0.00150526
0.00147423
0.00144413
0.00141489
0.00138654
0.00135913
0.00133261
0.0013069
0.00128206
0.00125813
0.00123518
0.00121315
0.00119197
0.00117157
0.00115199
0.00113327
0.00111531
0.00109789
0.00108076
0.00106383
0.00104712
0.0010306
0.00101419
0.000997672
0.000980874
0.000963706
0.000946231
0.000928615
0.000911001
0.000893413
0.000875733
0.000857767
0.000839353
0.000820429
0.000801058
0.000781409
0.000761715
0.000742183
0.000722934
0.000703967
0.0006852
0.000666526
0.000647864
0.000629174
0.000610445
0.000591679
0.000572872
0.000554009
0.000535073
0.000516037
0.000496882
0.000477587
0.000458139
0.00043853
0.000418751
0.000398803
0.000378685
0.000358394
0.000337936
0.000317309
0.000296516
0.000275559
0.000254437
0.000233153
0.000211708
0.000190101
0.000168335
0.000146409
0.000124322
0.000102075
7.96687e-05
5.71013e-05
3.43737e-05
1.14845e-05
0.00314763
0.00312292
0.00307726
0.00301103
0.00292631
0.00282712
0.00271915
0.00260851
0.0025005
0.00239878
0.00230518
0.00222013
0.00214329
0.00207401
0.00201152
0.00195497
0.00190339
0.0018558
0.0018113
0.00176916
0.0017289
0.00169026
0.00165309
0.00161724
0.00158263
0.00154922
0.0015169
0.00148559
0.00145521
0.00142572
0.00139713
0.00136946
0.00134268
0.00131672
0.00129162
0.00126739
0.00124409
0.00122169
0.00120012
0.00117929
0.00115924
0.00114
0.00112149
0.00110349
0.0010858
0.00106834
0.00105113
0.00103415
0.00101729
0.00100037
0.00098321
0.000965751
0.000948052
0.00093026
0.000912492
0.000894752
0.000876913
0.000858795
0.000840249
0.000821231
0.000801817
0.000782178
0.000762533
0.000743066
0.000723876
0.000704955
0.000686216
0.000667555
0.000648887
0.000630171
0.000611393
0.000592558
0.000573666
0.00055471
0.000535679
0.000516553
0.000497316
0.000477948
0.000458437
0.000438775
0.000418953
0.000398968
0.000378819
0.000358505
0.000338026
0.000317382
0.000296576
0.000275607
0.000254476
0.000233185
0.000211734
0.000190122
0.000168352
0.000146422
0.000124332
0.000102083
7.96743e-05
5.71052e-05
3.4376e-05
1.14853e-05
0.00303924
0.0030188
0.00298093
0.00292581
0.00285484
0.0027709
0.00267817
0.00258142
0.00248508
0.00239257
0.00230594
0.00222604
0.00215289
0.00208608
0.00202504
0.00196911
0.0019176
0.00186978
0.00182494
0.00178246
0.00174191
0.001703
0.00166555
0.00162942
0.00159455
0.00156086
0.00152828
0.00149672
0.00146609
0.00143636
0.00140755
0.00137963
0.00135258
0.00132637
0.00130101
0.00127649
0.00125283
0.00123006
0.00120811
0.00118688
0.00116636
0.00114662
0.00112759
0.00110905
0.00109082
0.00107285
0.00105517
0.00103774
0.00102044
0.00100312
0.000985613
0.000967874
0.000949958
0.000931987
0.000914053
0.000896143
0.000878134
0.000859858
0.00084119
0.000822099
0.000802665
0.000783053
0.00076346
0.000744046
0.000724895
0.000705991
0.000687251
0.000668578
0.000649886
0.000631135
0.000612307
0.000593407
0.000574439
0.000555399
0.000536282
0.000517072
0.000497757
0.000478319
0.000458747
0.000439032
0.000419165
0.000399144
0.000378964
0.000358623
0.000338123
0.000317462
0.000296641
0.00027566
0.000254519
0.000233221
0.000211762
0.000190145
0.00016837
0.000146436
0.000124343
0.000102092
7.96806e-05
5.71095e-05
3.43785e-05
1.14861e-05
0.00294168
0.00292467
0.00289307
0.00284694
0.00278722
0.002716
0.00263634
0.00255193
0.00246638
0.00238273
0.00230302
0.00222836
0.00215909
0.00209504
0.00203584
0.001981
0.00193
0.00188234
0.00183745
0.00179484
0.00175415
0.00171509
0.00167746
0.00164115
0.00160609
0.00157218
0.00153936
0.00150759
0.00147674
0.00144678
0.00141775
0.00138961
0.00136228
0.0013358
0.0013102
0.00128541
0.0012614
0.00123826
0.00121594
0.00119432
0.00117337
0.00115314
0.00113359
0.00111454
0.00109581
0.00107736
0.00105923
0.00104136
0.00102364
0.00100592
0.00098808
0.000970068
0.000951936
0.000933783
0.000915673
0.000897583
0.000879395
0.000860964
0.000842182
0.000823032
0.000803593
0.000784015
0.000764472
0.000745103
0.000725974
0.000707066
0.000688305
0.000669599
0.00065087
0.000632075
0.000613195
0.000594233
0.000575194
0.000556076
0.00053688
0.000517592
0.000498203
0.000478698
0.000459066
0.0004393
0.000419388
0.000399329
0.000379117
0.000358749
0.000338228
0.000317548
0.000296711
0.000275718
0.000254567
0.000233259
0.000211793
0.00019017
0.000168391
0.000146452
0.000124356
0.000102101
7.96875e-05
5.71142e-05
3.43813e-05
1.14871e-05
0.00285371
0.00283947
0.00281295
0.00277413
0.00272364
0.002663
0.00259449
0.0025209
0.00244517
0.00236986
0.0022969
0.00222752
0.00216226
0.00210118
0.0020441
0.0019907
0.00194059
0.00189341
0.00184876
0.00180624
0.00176556
0.00172647
0.00168877
0.00165235
0.00161718
0.00158311
0.00155009
0.00151814
0.00148711
0.00145694
0.00142769
0.00139934
0.00137177
0.00134502
0.00131917
0.00129412
0.00126979
0.00124626
0.00122357
0.00120159
0.00118023
0.00115953
0.00113949
0.00111996
0.00110076
0.00108186
0.00106328
0.00104499
0.00102687
0.00100877
0.000990601
0.000972322
0.000953975
0.000935634
0.000917342
0.000899065
0.000880698
0.000862115
0.000843228
0.000824027
0.000804589
0.000785047
0.000765551
0.000746215
0.000727095
0.00070817
0.000689373
0.000670622
0.000651843
0.000632997
0.000614062
0.000595039
0.000575933
0.000556744
0.000537474
0.000518112
0.000498653
0.000479084
0.000459394
0.000439576
0.00041962
0.000399522
0.000379278
0.000358883
0.000338339
0.000317639
0.000296787
0.00027578
0.000254617
0.0002333
0.000211827
0.000190197
0.000168412
0.000146469
0.000124369
0.000102112
7.96951e-05
5.71195e-05
3.43844e-05
1.14881e-05
0.00277432
0.00276231
0.00273991
0.00270706
0.00266418
0.00261235
0.00255329
0.00248911
0.00242216
0.00235458
0.00228809
0.00222391
0.00216274
0.00210478
0.00205003
0.00199834
0.00194941
0.00190299
0.00185884
0.00181661
0.00177608
0.0017371
0.00169944
0.00166299
0.00162775
0.00159359
0.00156044
0.00152833
0.00149717
0.00146681
0.00143734
0.00140879
0.00138102
0.00135401
0.00132789
0.0013026
0.00127797
0.00125407
0.00123099
0.00120866
0.00118692
0.00116578
0.00114527
0.00112528
0.00110565
0.00108632
0.00106732
0.00104862
0.0010301
0.00101165
0.00099316
0.000974622
0.00095606
0.000937528
0.000919048
0.000900584
0.000882041
0.000863312
0.000844326
0.00082508
0.000805645
0.000786134
0.000766677
0.000747366
0.000728244
0.000709292
0.000690449
0.000671643
0.000652807
0.000633904
0.000614911
0.000595828
0.000576657
0.0005574
0.000538061
0.00051863
0.000499105
0.000479474
0.000459728
0.00043986
0.000419859
0.000399724
0.000379447
0.000359024
0.000338456
0.000317736
0.000296867
0.000275846
0.000254671
0.000233345
0.000211863
0.000190227
0.000168436
0.000146488
0.000124384
0.000102123
7.97034e-05
5.71251e-05
3.43877e-05
1.14892e-05
0.00270263
0.00269245
0.00267341
0.00264545
0.00260884
0.00256434
0.00251327
0.00245722
0.00239804
0.00233751
0.0022771
0.00221797
0.00216086
0.00210611
0.00205384
0.00200404
0.00195652
0.0019111
0.00186765
0.00182591
0.00178569
0.00174691
0.00170941
0.00167301
0.00163775
0.00160359
0.00157038
0.00153813
0.00150683
0.00147635
0.00144669
0.00141794
0.00138998
0.00136273
0.00133632
0.00131078
0.00128591
0.00126167
0.00123821
0.00121553
0.00119344
0.0011719
0.00115093
0.0011305
0.00111045
0.00109072
0.00107132
0.00105223
0.00103333
0.00101453
0.000995745
0.000976952
0.000958175
0.000939449
0.00092078
0.00090213
0.000883416
0.000864547
0.000845468
0.000826181
0.000806747
0.000787263
0.000767836
0.00074854
0.000729408
0.000710421
0.000691526
0.00067266
0.000653762
0.000634798
0.000615745
0.0005966
0.000577367
0.000558045
0.000538641
0.000519145
0.000499557
0.000479867
0.000460066
0.00044015
0.000420105
0.000399932
0.000379621
0.00035917
0.000338578
0.000317838
0.000296951
0.000275916
0.000254729
0.000233392
0.000211902
0.000190258
0.000168461
0.000146508
0.0001244
0.000102135
7.97122e-05
5.71312e-05
3.43913e-05
1.14904e-05
0.00263794
0.00262924
0.00261296
0.00258902
0.00255759
0.00251923
0.00247489
0.00242583
0.00237345
0.00231924
0.00226446
0.00221012
0.00215697
0.00210546
0.00205575
0.00200795
0.001962
0.00191776
0.00187517
0.00183409
0.00179434
0.00175588
0.0017186
0.00168235
0.00164716
0.00161304
0.00157982
0.00154746
0.00151607
0.00148551
0.00145569
0.00142672
0.00139859
0.00137115
0.00134447
0.00131866
0.00129357
0.00126904
0.0012452
0.00122215
0.00119975
0.00117783
0.00115644
0.00113558
0.00111515
0.00109505
0.00107527
0.00105579
0.00103654
0.00101742
0.000998339
0.000979299
0.000960308
0.000941387
0.00092253
0.000903698
0.000884818
0.000865816
0.000846648
0.000827319
0.000807882
0.000788417
0.00076901
0.000749721
0.000730572
0.000711547
0.000692596
0.000673666
0.000654704
0.000635676
0.000616562
0.000597357
0.000578063
0.000558679
0.000539213
0.000519655
0.000500008
0.000480261
0.000460407
0.000440443
0.000420356
0.000400145
0.000379801
0.000359321
0.000338705
0.000317943
0.000297039
0.000275989
0.000254789
0.000233442
0.000211942
0.000190291
0.000168488
0.000146529
0.000124416
0.000102148
7.97216e-05
5.71377e-05
3.43951e-05
1.14917e-05
0.00256853
0.00256128
0.00254772
0.00252774
0.00250146
0.00246923
0.00243169
0.00238975
0.00234445
0.00229692
0.00224821
0.00219917
0.00215052
0.00210274
0.00205608
0.00201071
0.00196673
0.00192405
0.00188264
0.00184248
0.00180343
0.00176546
0.00172856
0.00169261
0.00165759
0.00162353
0.00159034
0.00155796
0.00152647
0.00149583
0.00146587
0.00143669
0.00140836
0.00138074
0.00135378
0.00132765
0.00130228
0.00127744
0.00125319
0.00122971
0.00120693
0.00118463
0.00116278
0.00114144
0.00112057
0.00110006
0.00107985
0.00105995
0.0010403
0.00102081
0.00100141
0.00098208
0.000962839
0.000943688
0.000924612
0.000905571
0.000886505
0.000867355
0.000848088
0.000828709
0.000809263
0.000789809
0.000770415
0.000751122
0.000731947
0.00071287
0.000693851
0.000674844
0.000655802
0.000636698
0.000617509
0.000598233
0.000578868
0.000559415
0.000539878
0.000520251
0.000500537
0.000480726
0.000460813
0.000440794
0.000420657
0.000400402
0.00038002
0.000359506
0.00033886
0.000318073
0.000297147
0.000276079
0.000254863
0.000233503
0.000211992
0.000190332
0.000168521
0.000146556
0.000124437
0.000102164
7.97334e-05
5.71458e-05
3.43999e-05
1.14933e-05
0.00249725
0.00249136
0.00248032
0.00246403
0.00244253
0.00241601
0.00238489
0.00234978
0.00231139
0.00227052
0.002228
0.00218455
0.00214076
0.00209712
0.00205396
0.00201151
0.0019699
0.00192914
0.00188929
0.00185038
0.00181234
0.00177512
0.00173878
0.00170329
0.00166858
0.00163468
0.00160162
0.0015693
0.00153776
0.00150705
0.00147702
0.00144768
0.00141912
0.00139127
0.00136405
0.00133756
0.00131185
0.0012867
0.00126208
0.00123815
0.00121491
0.00119219
0.00116988
0.00114803
0.00112667
0.00110571
0.00108505
0.0010647
0.00104461
0.00102472
0.00100496
0.000985316
0.000965789
0.000946373
0.000927047
0.000907773
0.000888502
0.000869189
0.000849811
0.000830372
0.000810904
0.00079145
0.000772056
0.000752749
0.000733535
0.000714395
0.000695296
0.000676199
0.000657065
0.000637871
0.000618597
0.000599238
0.000579793
0.00056026
0.000540645
0.000520942
0.000501152
0.000481271
0.00046129
0.000441209
0.000421016
0.00040071
0.000380283
0.000359728
0.000339048
0.000318231
0.00029728
0.000276189
0.000254954
0.000233578
0.000212054
0.000190382
0.000168562
0.000146589
0.000124463
0.000102184
7.97481e-05
5.71559e-05
3.44058e-05
1.14954e-05
0.00243299
0.00242819
0.00241919
0.00240588
0.00238824
0.00236638
0.00234055
0.00231112
0.00227859
0.00224352
0.00220652
0.00216815
0.00212893
0.00208932
0.00204965
0.00201013
0.00197098
0.00193235
0.00189425
0.00185671
0.00181979
0.00178353
0.00174794
0.00171299
0.00167866
0.00164503
0.00161218
0.00158005
0.00154857
0.00151781
0.00148771
0.00145823
0.00142945
0.00140138
0.00137397
0.00134721
0.00132116
0.00129571
0.00127076
0.0012464
0.00122271
0.00119957
0.00117685
0.00115455
0.00113273
0.00111132
0.00109024
0.00106946
0.00104896
0.00102868
0.00100858
0.000988626
0.000968815
0.000949136
0.000929562
0.00091006
0.000890589
0.000871117
0.000851626
0.000832118
0.000812614
0.000793142
0.000773731
0.000754395
0.000735134
0.000715928
0.000696748
0.000677562
0.000658337
0.000639053
0.000619693
0.000600251
0.000580726
0.000561115
0.000541424
0.000521645
0.000501783
0.000481832
0.000461785
0.000441642
0.000421392
0.000401034
0.000380561
0.000359966
0.000339249
0.000318401
0.000297422
0.000276308
0.000255053
0.00023366
0.000212122
0.000190437
0.000168607
0.000146624
0.000124491
0.000102206
7.97642e-05
5.7167e-05
3.44124e-05
1.14976e-05
0.00237697
0.00237303
0.00236561
0.00235462
0.00234
0.00232181
0.00230017
0.00227533
0.00224761
0.00221739
0.00218509
0.00215119
0.00211609
0.00208017
0.00204376
0.00200712
0.00197044
0.00193387
0.0018975
0.00186145
0.00182582
0.00179056
0.00175569
0.00172133
0.00168757
0.00165441
0.00162185
0.00158984
0.00155839
0.00152761
0.00149749
0.00146798
0.00143908
0.00141085
0.00138324
0.00135623
0.00132985
0.00130409
0.00127886
0.00125416
0.00123006
0.00120653
0.00118344
0.00116075
0.0011385
0.00111668
0.00109521
0.00107404
0.00105316
0.00103253
0.0010121
0.000991857
0.000971776
0.000951845
0.000932038
0.000912324
0.00089267
0.000873052
0.000853456
0.00083388
0.000814335
0.000794837
0.0007754
0.000756028
0.000736716
0.000717443
0.000698182
0.000678909
0.000659594
0.000640222
0.000620775
0.000601251
0.000581647
0.000561958
0.000542192
0.000522341
0.000502408
0.000482389
0.000462278
0.000442075
0.000421769
0.000401361
0.000380842
0.000360206
0.000339454
0.000318574
0.000297568
0.00027643
0.000255155
0.000233744
0.000212191
0.000190494
0.000168653
0.000146661
0.00012452
0.000102229
7.97809e-05
5.71784e-05
3.4419e-05
1.14997e-05
0.00233071
0.00232741
0.00232116
0.00231189
0.00229953
0.00228409
0.00226564
0.00224432
0.00222035
0.00219398
0.00216552
0.0021353
0.00210366
0.00207092
0.00203737
0.00200326
0.00196878
0.00193413
0.00189945
0.0018648
0.00183026
0.00179594
0.00176195
0.00172836
0.00169515
0.0016623
0.00162991
0.00159808
0.00156685
0.00153619
0.0015061
0.00147653
0.00144753
0.00141913
0.00139133
0.00136413
0.00133752
0.0013115
0.001286
0.00126102
0.00123658
0.00121269
0.00118926
0.00116624
0.00114364
0.00112146
0.00109965
0.00107816
0.00105695
0.00103601
0.00101531
0.000994807
0.000974488
0.000954335
0.000934321
0.000914419
0.000894601
0.000874848
0.000855149
0.000835499
0.000815905
0.000796372
0.000776906
0.000757502
0.000738149
0.000718826
0.000699507
0.000680168
0.000660783
0.00064134
0.000621822
0.000602227
0.000582551
0.000562792
0.000542956
0.000523035
0.000503034
0.000482949
0.000462775
0.000442514
0.000422153
0.000401694
0.000381129
0.000360452
0.000339663
0.000318752
0.000297717
0.000276556
0.000255259
0.000233831
0.000212263
0.000190552
0.0001687
0.0001467
0.000124551
0.000102252
7.97982e-05
5.71904e-05
3.44262e-05
1.15026e-05
0.00229628
0.0022934
0.00228796
0.00227988
0.00226908
0.00225554
0.00223931
0.00222046
0.00219915
0.00217556
0.0021499
0.00212243
0.00209341
0.0020631
0.00203177
0.00199965
0.00196694
0.00193382
0.00190042
0.0018669
0.00183341
0.0018
0.00176671
0.00173358
0.00170072
0.00166825
0.00163624
0.00160468
0.00157357
0.00154293
0.00151281
0.00148322
0.00145417
0.00142569
0.00139777
0.00137042
0.00134363
0.00131739
0.00129167
0.00126645
0.00124176
0.00121759
0.00119389
0.00117061
0.00114774
0.00112528
0.0011032
0.00108145
0.00106
0.00103882
0.00101789
0.000997184
0.000976678
0.00095635
0.000936176
0.000916131
0.000896191
0.000876338