/*--------------------------------*- C++ -*----------------------------------*\
| =========                 |                                                 |
| \\      /  F ield         | OpenFOAM: The Open Source CFD Toolbox           |
|  \\    /   O peration     | Version:  2.3.0                                 |
|   \\  /    A nd           | Web:      www.OpenFOAM.org                      |
|    \\/     M anipulation  |                                                 |
\*---------------------------------------------------------------------------*/
FoamFile
{
    version     2.0;
    format      ascii;
    class       volVectorField;
    location    "0.15";
    object      U_0;
}
// * * * * * * * * * * * * * * * * * * * * * * * * * * * * * * * * * * * * * //

dimensions      [0 1 -1 0 0 0 0];

internalField   nonuniform List<vector> 
2700
(
(0.188981 0.00340186 0)
(0.175076 0.00574058 0)
(0.159254 0.0057784 0)
(0.141383 0.00534328 0)
(0.123034 0.00494496 0)
(0.105672 0.00441542 0)
(0.0904363 0.00366247 0)
(0.077812 0.00270802 0)
(0.067813 0.00172534 0)
(0.0601958 0.000918649 0)
(0.0545528 0.000376502 0)
(0.0504428 6.87551e-05 0)
(0.0474593 -7.56974e-05 0)
(0.045255 -0.000117397 0)
(0.0435614 -0.000102305 0)
(0.0421854 -6.28964e-05 0)
(0.0409973 -1.93371e-05 0)
(0.0399198 1.74694e-05 0)
(0.0389126 4.35241e-05 0)
(0.0379593 5.92187e-05 0)
(0.0370559 6.68537e-05 0)
(0.036203 6.89176e-05 0)
(0.0354024 6.74972e-05 0)
(0.0346549 6.41861e-05 0)
(0.0339601 6.00163e-05 0)
(0.0333165 5.55628e-05 0)
(0.0327216 5.11566e-05 0)
(0.0321731 4.69726e-05 0)
(0.031668 4.30566e-05 0)
(0.0312037 3.93847e-05 0)
(0.0307775 3.59048e-05 0)
(0.0303876 3.25636e-05 0)
(0.0300322 2.93408e-05 0)
(0.0297096 2.62451e-05 0)
(0.0294185 2.3273e-05 0)
(0.0291576 2.03989e-05 0)
(0.0289264 1.76027e-05 0)
(0.0287243 1.48834e-05 0)
(0.0285507 1.22482e-05 0)
(0.0284047 9.71995e-06 0)
(0.0282849 7.32589e-06 0)
(0.0281893 5.13715e-06 0)
(0.0281152 3.30649e-06 0)
(0.0280587 2.0028e-06 0)
(0.0280149 1.23475e-06 0)
(0.0279787 9.06426e-07 0)
(0.0279464 8.44447e-07 0)
(0.0279157 8.46783e-07 0)
(0.0278858 8.32231e-07 0)
(0.0278564 8.71733e-07 0)
(0.0278267 1.07135e-06 0)
(0.0277955 1.42966e-06 0)
(0.0277624 1.80139e-06 0)
(0.0277276 1.9854e-06 0)
(0.0276929 1.8694e-06 0)
(0.0276604 1.49259e-06 0)
(0.0276316 1.0353e-06 0)
(0.0276067 7.07805e-07 0)
(0.0275848 6.58823e-07 0)
(0.0275641 8.93108e-07 0)
(0.0275431 1.29228e-06 0)
(0.0275213 1.67933e-06 0)
(0.027499 1.90769e-06 0)
(0.0274776 1.91728e-06 0)
(0.0274583 1.7202e-06 0)
(0.0274423 1.39087e-06 0)
(0.0274302 1.00069e-06 0)
(0.0274218 6.25345e-07 0)
(0.0274169 3.10116e-07 0)
(0.0274147 5.16962e-08 0)
(0.0274146 -1.68939e-07 0)
(0.0274159 -2.94441e-07 0)
(0.027418 -3.58082e-07 0)
(0.0274206 -3.7953e-07 0)
(0.0274233 -3.65645e-07 0)
(0.027426 -3.36547e-07 0)
(0.0274284 -3.02324e-07 0)
(0.0274305 -2.60809e-07 0)
(0.0274324 -2.24161e-07 0)
(0.0274341 -1.90271e-07 0)
(0.0274355 -1.58432e-07 0)
(0.0274366 -1.34678e-07 0)
(0.0274376 -1.10364e-07 0)
(0.0274385 -9.22452e-08 0)
(0.0274392 -7.82286e-08 0)
(0.0274398 -6.31908e-08 0)
(0.0274403 -5.39235e-08 0)
(0.0274407 -4.45294e-08 0)
(0.027441 -3.57589e-08 0)
(0.0274413 -3.08891e-08 0)
(0.0274416 -2.46495e-08 0)
(0.0274418 -1.96989e-08 0)
(0.0274419 -1.71058e-08 0)
(0.0274421 -1.28601e-08 0)
(0.0274422 -1.03038e-08 0)
(0.0274423 -8.46469e-09 0)
(0.0274424 -6.20751e-09 0)
(0.0274424 -4.30436e-09 0)
(0.0274424 -3.46777e-09 0)
(0.0274425 -1.76058e-09 0)
(0.200079 0.00563362 0)
(0.202858 0.0102953 0)
(0.203845 0.0111982 0)
(0.202054 0.0110619 0)
(0.197803 0.0108773 0)
(0.19184 0.0105289 0)
(0.184971 0.00982893 0)
(0.177663 0.00872593 0)
(0.170215 0.00735347 0)
(0.162862 0.00592981 0)
(0.155773 0.00463758 0)
(0.149077 0.00356727 0)
(0.142873 0.00273393 0)
(0.137205 0.00211342 0)
(0.132075 0.00167096 0)
(0.127452 0.00136769 0)
(0.123283 0.0011639 0)
(0.119507 0.00102494 0)
(0.116072 0.000924304 0)
(0.112932 0.000844757 0)
(0.110049 0.000776822 0)
(0.107395 0.000715512 0)
(0.104946 0.00065833 0)
(0.102682 0.000604568 0)
(0.100588 0.000554211 0)
(0.098649 0.000507102 0)
(0.0968547 0.000463072 0)
(0.0951948 0.00042212 0)
(0.0936607 0.000384185 0)
(0.0922447 0.000348964 0)
(0.0909406 0.000316017 0)
(0.0897429 0.000284978 0)
(0.0886472 0.000255675 0)
(0.0876494 0.000228036 0)
(0.0867459 0.000201904 0)
(0.0859336 0.000177047 0)
(0.0852097 0.000153327 0)
(0.0845714 0.000130797 0)
(0.0840154 0.000109641 0)
(0.0835376 9.00932e-05 0)
(0.0831324 7.23824e-05 0)
(0.0827931 5.68526e-05 0)
(0.0825116 4.40701e-05 0)
(0.0822777 3.46188e-05 0)
(0.0820804 2.85617e-05 0)
(0.0819093 2.53064e-05 0)
(0.0817558 2.38145e-05 0)
(0.0816137 2.30737e-05 0)
(0.0814793 2.25847e-05 0)
(0.0813497 2.2426e-05 0)
(0.0812228 2.28342e-05 0)
(0.0810965 2.37129e-05 0)
(0.0809698 2.45052e-05 0)
(0.0808433 2.44745e-05 0)
(0.0807189 2.32038e-05 0)
(0.0805986 2.08382e-05 0)
(0.0804841 1.80506e-05 0)
(0.0803756 1.56285e-05 0)
(0.0802725 1.41209e-05 0)
(0.080174 1.3557e-05 0)
(0.08008 1.35341e-05 0)
(0.0799915 1.34641e-05 0)
(0.0799103 1.28697e-05 0)
(0.0798388 1.15859e-05 0)
(0.0797787 9.70404e-06 0)
(0.0797306 7.52171e-06 0)
(0.0796943 5.31854e-06 0)
(0.0796684 3.34728e-06 0)
(0.0796514 1.7355e-06 0)
(0.0796413 4.97057e-07 0)
(0.0796363 -4.06091e-07 0)
(0.0796348 -1.02724e-06 0)
(0.0796356 -1.32944e-06 0)
(0.0796377 -1.4404e-06 0)
(0.0796404 -1.39939e-06 0)
(0.0796434 -1.29118e-06 0)
(0.0796463 -1.16279e-06 0)
(0.079649 -1.00925e-06 0)
(0.0796514 -8.70359e-07 0)
(0.0796535 -7.41891e-07 0)
(0.0796554 -6.21967e-07 0)
(0.079657 -5.3088e-07 0)
(0.0796584 -4.39122e-07 0)
(0.0796596 -3.67239e-07 0)
(0.0796606 -3.11428e-07 0)
(0.0796615 -2.5396e-07 0)
(0.0796622 -2.15868e-07 0)
(0.0796628 -1.79443e-07 0)
(0.0796634 -1.45227e-07 0)
(0.0796638 -1.246e-07 0)
(0.0796642 -1.00691e-07 0)
(0.0796645 -8.09209e-08 0)
(0.0796648 -6.96046e-08 0)
(0.079665 -5.35421e-08 0)
(0.0796651 -4.29598e-08 0)
(0.0796653 -3.51886e-08 0)
(0.0796654 -2.66225e-08 0)
(0.0796655 -1.86923e-08 0)
(0.0796655 -1.58127e-08 0)
(0.0796656 -8.25847e-09 0)
(0.200022 0.00371231 0)
(0.20294 0.0082712 0)
(0.2063 0.0100788 0)
(0.208908 0.0106196 0)
(0.210349 0.0108919 0)
(0.21072 0.0110252 0)
(0.210257 0.010835 0)
(0.209083 0.0102285 0)
(0.207262 0.00928989 0)
(0.204863 0.0081949 0)
(0.20199 0.00711661 0)
(0.198775 0.00616153 0)
(0.195359 0.00536469 0)
(0.191857 0.00471598 0)
(0.188355 0.00419222 0)
(0.184907 0.00376852 0)
(0.181534 0.0034208 0)
(0.178247 0.00312852 0)
(0.175053 0.00287528 0)
(0.171955 0.00264958 0)
(0.168956 0.00244455 0)
(0.166059 0.00225605 0)
(0.163269 0.00208129 0)
(0.160588 0.00191877 0)
(0.158018 0.00176768 0)
(0.155563 0.00162707 0)
(0.153222 0.00149592 0)
(0.150999 0.00137341 0)
(0.148893 0.00125896 0)
(0.146904 0.00115183 0)
(0.145031 0.00105105 0)
(0.143276 0.000955696 0)
(0.141637 0.000865211 0)
(0.140115 0.00077933 0)
(0.138707 0.000697705 0)
(0.137412 0.000619784 0)
(0.136231 0.000545112 0)
(0.135162 0.000473748 0)
(0.134201 0.000406307 0)
(0.133344 0.000343644 0)
(0.132587 0.000286564 0)
(0.131922 0.000235923 0)
(0.131343 0.000192844 0)
(0.130839 0.000158532 0)
(0.1304 0.000133499 0)
(0.130012 0.000116817 0)
(0.129666 0.000106238 0)
(0.129353 9.9296e-05 0)
(0.129067 9.44014e-05 0)
(0.1288 9.11413e-05 0)
(0.128547 8.96482e-05 0)
(0.128302 8.96809e-05 0)
(0.128063 9.02362e-05 0)
(0.127828 8.9887e-05 0)
(0.127599 8.76251e-05 0)
(0.127378 8.33561e-05 0)
(0.127161 7.79335e-05 0)
(0.126947 7.24895e-05 0)
(0.126732 6.78348e-05 0)
(0.126514 6.39941e-05 0)
(0.126296 6.03456e-05 0)
(0.126082 5.60159e-05 0)
(0.125879 5.03829e-05 0)
(0.125695 4.34168e-05 0)
(0.125534 3.55551e-05 0)
(0.125399 2.7562e-05 0)
(0.125292 2.00984e-05 0)
(0.125209 1.36746e-05 0)
(0.125148 8.5036e-06 0)
(0.125104 4.58851e-06 0)
(0.125073 1.82677e-06 0)
(0.125053 -5.58826e-08 0)
(0.12504 -1.14242e-06 0)
(0.125032 -1.72271e-06 0)
(0.125027 -2.02278e-06 0)
(0.125024 -2.03469e-06 0)
(0.125023 -1.92474e-06 0)
(0.125023 -1.72629e-06 0)
(0.125023 -1.523e-06 0)
(0.125023 -1.32258e-06 0)
(0.125023 -1.1256e-06 0)
(0.125024 -9.73001e-07 0)
(0.125024 -8.19163e-07 0)
(0.125025 -6.92968e-07 0)
(0.125025 -5.92495e-07 0)
(0.125026 -4.89828e-07 0)
(0.125026 -4.17987e-07 0)
(0.125026 -3.51064e-07 0)
(0.125027 -2.8761e-07 0)
(0.125027 -2.46653e-07 0)
(0.125027 -2.02092e-07 0)
(0.125027 -1.64043e-07 0)
(0.125028 -1.40525e-07 0)
(0.125028 -1.10211e-07 0)
(0.125028 -8.91793e-08 0)
(0.125028 -7.26858e-08 0)
(0.125028 -5.65974e-08 0)
(0.125028 -3.98769e-08 0)
(0.125028 -3.43472e-08 0)
(0.125028 -1.83071e-08 0)
(0.200008 0.0025258 0)
(0.201847 0.0063289 0)
(0.204534 0.00841782 0)
(0.207329 0.00931963 0)
(0.209696 0.00974452 0)
(0.21154 0.00999321 0)
(0.212956 0.0100134 0)
(0.213999 0.00972054 0)
(0.214645 0.00913709 0)
(0.21485 0.00837623 0)
(0.21461 0.00757446 0)
(0.213975 0.00683329 0)
(0.21303 0.00619821 0)
(0.211863 0.00567366 0)
(0.210548 0.00524257 0)
(0.209133 0.0048828 0)
(0.207645 0.004576 0)
(0.206098 0.00430781 0)
(0.204501 0.00406653 0)
(0.202861 0.00384391 0)
(0.201185 0.00363486 0)
(0.19948 0.00343576 0)
(0.197753 0.00324426 0)
(0.196014 0.00305954 0)
(0.194272 0.00288134 0)
(0.192533 0.00270907 0)
(0.190807 0.0025422 0)
(0.189101 0.0023807 0)
(0.187425 0.00222464 0)
(0.185784 0.00207355 0)
(0.184184 0.00192655 0)
(0.182633 0.00178313 0)
(0.181137 0.00164348 0)
(0.179703 0.00150774 0)
(0.178332 0.00137544 0)
(0.177028 0.00124598 0)
(0.175798 0.0011195 0)
(0.174646 0.000997008 0)
(0.173575 0.000879713 0)
(0.172581 0.000768593 0)
(0.171662 0.00066462 0)
(0.170818 0.000569411 0)
(0.170052 0.000485369 0)
(0.16936 0.000414826 0)
(0.168734 0.000358576 0)
(0.168162 0.000315197 0)
(0.167637 0.000281843 0)
(0.167157 0.000255914 0)
(0.166721 0.000236078 0)
(0.166326 0.000221966 0)
(0.16596 0.000213017 0)
(0.165609 0.000207599 0)
(0.165265 0.000203294 0)
(0.164927 0.000197996 0)
(0.164602 0.000191116 0)
(0.164297 0.000183678 0)
(0.164011 0.000177557 0)
(0.163736 0.000174008 0)
(0.163456 0.00017281 0)
(0.163155 0.000172105 0)
(0.162826 0.000169262 0)
(0.16247 0.000161996 0)
(0.162101 0.000149281 0)
(0.161735 0.000131726 0)
(0.16139 0.000111042 0)
(0.161081 8.94807e-05 0)
(0.160817 6.89761e-05 0)
(0.1606 5.09263e-05 0)
(0.160427 3.60051e-05 0)
(0.160294 2.43104e-05 0)
(0.160195 1.56212e-05 0)
(0.160121 9.45469e-06 0)
(0.160068 5.29899e-06 0)
(0.16003 2.58648e-06 0)
(0.160003 8.26806e-07 0)
(0.159983 -1.60584e-07 0)
(0.159969 -6.9816e-07 0)
(0.159958 -9.22442e-07 0)
(0.159951 -9.98552e-07 0)
(0.159945 -9.85585e-07 0)
(0.159941 -9.10681e-07 0)
(0.159938 -8.39223e-07 0)
(0.159935 -7.5215e-07 0)
(0.159933 -6.73189e-07 0)
(0.159932 -6.05455e-07 0)
(0.159931 -5.19746e-07 0)
(0.15993 -4.60125e-07 0)
(0.15993 -3.99299e-07 0)
(0.159929 -3.36051e-07 0)
(0.159929 -2.95643e-07 0)
(0.159929 -2.48095e-07 0)
(0.159929 -2.05461e-07 0)
(0.159929 -1.7901e-07 0)
(0.159929 -1.43066e-07 0)
(0.159929 -1.17611e-07 0)
(0.159929 -9.64966e-08 0)
(0.159929 -7.68165e-08 0)
(0.159929 -5.4097e-08 0)
(0.159929 -4.70556e-08 0)
(0.159929 -2.46646e-08 0)
(0.200008 0.00186448 0)
(0.201221 0.00499443 0)
(0.203187 0.00711429 0)
(0.205508 0.00823563 0)
(0.207723 0.00876211 0)
(0.209629 0.00901826 0)
(0.21125 0.0090826 0)
(0.212648 0.00892329 0)
(0.213834 0.0085354 0)
(0.214768 0.00798159 0)
(0.215415 0.00736135 0)
(0.215779 0.00676346 0)
(0.215905 0.00623866 0)
(0.215852 0.00580133 0)
(0.215673 0.00544159 0)
(0.215408 0.00514112 0)
(0.215079 0.00488456 0)
(0.214692 0.0046603 0)
(0.214251 0.00445824 0)
(0.213758 0.0042711 0)
(0.213212 0.00409457 0)
(0.212616 0.00392516 0)
(0.211969 0.00375975 0)
(0.211277 0.00359708 0)
(0.210543 0.0034373 0)
(0.209772 0.00327992 0)
(0.208965 0.00312351 0)
(0.20813 0.00296766 0)
(0.207274 0.00281361 0)
(0.206402 0.00266198 0)
(0.205515 0.00251099 0)
(0.204617 0.00235867 0)
(0.203719 0.00220587 0)
(0.20283 0.00205514 0)
(0.201951 0.00190689 0)
(0.20108 0.00175869 0)
(0.200222 0.00160893 0)
(0.199389 0.00146002 0)
(0.198591 0.00131659 0)
(0.197826 0.0011811 0)
(0.197086 0.00105238 0)
(0.196369 0.000929217 0)
(0.195687 0.000814508 0)
(0.195054 0.000714662 0)
(0.194471 0.000634201 0)
(0.193924 0.000571318 0)
(0.193396 0.000519182 0)
(0.192887 0.000471833 0)
(0.192411 0.00042887 0)
(0.191982 0.000394664 0)
(0.1916 0.000373146 0)
(0.191244 0.00036296 0)
(0.190889 0.00035725 0)
(0.190519 0.000347927 0)
(0.19014 0.000331171 0)
(0.189777 0.000309726 0)
(0.189451 0.000291061 0)
(0.189169 0.00028251 0)
(0.188911 0.000286982 0)
(0.188644 0.000301178 0)
(0.18833 0.000317257 0)
(0.187946 0.000326474 0)
(0.187491 0.000322628 0)
(0.186983 0.000303963 0)
(0.186453 0.000272665 0)
(0.185934 0.000233435 0)
(0.185455 0.000191392 0)
(0.185034 0.000150914 0)
(0.18468 0.000114901 0)
(0.184393 8.47867e-05 0)
(0.184167 6.09052e-05 0)
(0.183994 4.27396e-05 0)
(0.183863 2.94463e-05 0)
(0.183766 2.00037e-05 0)
(0.183693 1.34979e-05 0)
(0.18364 9.0882e-06 0)
(0.1836 6.09814e-06 0)
(0.18357 4.11913e-06 0)
(0.183547 2.77595e-06 0)
(0.18353 1.8641e-06 0)
(0.183517 1.25607e-06 0)
(0.183506 8.13383e-07 0)
(0.183498 5.13216e-07 0)
(0.183492 2.95005e-07 0)
(0.183487 1.33356e-07 0)
(0.183484 4.39224e-08 0)
(0.183481 -3.27414e-08 0)
(0.183478 -7.66673e-08 0)
(0.183477 -9.29075e-08 0)
(0.183475 -1.14512e-07 0)
(0.183474 -1.13212e-07 0)
(0.183473 -1.05932e-07 0)
(0.183473 -1.05689e-07 0)
(0.183472 -8.96053e-08 0)
(0.183472 -7.80558e-08 0)
(0.183472 -6.78179e-08 0)
(0.183471 -5.52824e-08 0)
(0.183471 -3.79992e-08 0)
(0.183471 -3.37303e-08 0)
(0.183471 -1.4216e-08 0)
(0.200006 0.00145072 0)
(0.200859 0.00404283 0)
(0.202316 0.00602421 0)
(0.204167 0.00724888 0)
(0.206081 0.00787755 0)
(0.207821 0.00816603 0)
(0.209334 0.00825571 0)
(0.210658 0.00817112 0)
(0.211822 0.00790944 0)
(0.21282 0.00750073 0)
(0.213626 0.00701131 0)
(0.214233 0.0065143 0)
(0.214664 0.00606194 0)
(0.214961 0.005677 0)
(0.215167 0.00535752 0)
(0.215317 0.00508982 0)
(0.215431 0.00486125 0)
(0.215517 0.00466226 0)
(0.215575 0.00448371 0)
(0.215606 0.0043185 0)
(0.215608 0.00416328 0)
(0.21558 0.00401562 0)
(0.215518 0.0038718 0)
(0.215423 0.00372926 0)
(0.215297 0.00358856 0)
(0.215141 0.00345039 0)
(0.214951 0.00331243 0)
(0.214728 0.00317205 0)
(0.21448 0.00303057 0)
(0.214211 0.00289128 0)
(0.213915 0.00275323 0)
(0.213589 0.00261141 0)
(0.21324 0.00246397 0)
(0.21288 0.00231565 0)
(0.212512 0.00217136 0)
(0.212126 0.00202885 0)
(0.211717 0.00188147 0)
(0.211295 0.00172801 0)
(0.210879 0.00157653 0)
(0.210472 0.00143625 0)
(0.210061 0.00130753 0)
(0.209632 0.00118286 0)
(0.209193 0.00105825 0)
(0.208769 0.000941075 0)
(0.208381 0.000844509 0)
(0.208018 0.000774083 0)
(0.207655 0.000721139 0)
(0.207274 0.000670299 0)
(0.206888 0.000613471 0)
(0.20653 0.000556838 0)
(0.206224 0.000514701 0)
(0.205964 0.000496044 0)
(0.205711 0.000495821 0)
(0.205427 0.000497639 0)
(0.205097 0.000485377 0)
(0.204744 0.000454152 0)
(0.204413 0.000413535 0)
(0.204142 0.000381365 0)
(0.203937 0.000373274 0)
(0.203769 0.000394115 0)
(0.203579 0.000435847 0)
(0.203311 0.000482048 0)
(0.202928 0.000515371 0)
(0.202426 0.000524158 0)
(0.201832 0.000504928 0)
(0.201188 0.000461576 0)
(0.200542 0.000402106 0)
(0.199934 0.000335573 0)
(0.199394 0.000269696 0)
(0.198934 0.000209823 0)
(0.198558 0.000158902 0)
(0.198259 0.000117763 0)
(0.198026 8.5937e-05 0)
(0.197849 6.20919e-05 0)
(0.197715 4.46849e-05 0)
(0.197614 3.21998e-05 0)
(0.197538 2.32977e-05 0)
(0.19748 1.70102e-05 0)
(0.197437 1.25151e-05 0)
(0.197403 9.28008e-06 0)
(0.197378 6.94508e-06 0)
(0.197358 5.19351e-06 0)
(0.197342 3.91268e-06 0)
(0.19733 2.94297e-06 0)
(0.19732 2.19742e-06 0)
(0.197313 1.65378e-06 0)
(0.197307 1.22268e-06 0)
(0.197302 9.00217e-07 0)
(0.197298 6.67092e-07 0)
(0.197295 4.74806e-07 0)
(0.197293 3.43891e-07 0)
(0.197291 2.46205e-07 0)
(0.19729 1.6725e-07 0)
(0.197289 1.1931e-07 0)
(0.197288 8.40522e-08 0)
(0.197287 5.4803e-08 0)
(0.197287 4.20867e-08 0)
(0.197286 3.36272e-08 0)
(0.197286 2.70904e-08 0)
(0.197286 2.78706e-08 0)
(0.200005 0.00116781 0)
(0.200632 0.00332486 0)
(0.201731 0.00509418 0)
(0.203195 0.00631923 0)
(0.204806 0.00702445 0)
(0.206352 0.00736893 0)
(0.207731 0.00749618 0)
(0.20894 0.007468 0)
(0.210004 0.00729817 0)
(0.210932 0.00700338 0)
(0.211715 0.00662447 0)
(0.212345 0.00621609 0)
(0.212836 0.0058266 0)
(0.213215 0.00548434 0)
(0.213517 0.00519446 0)
(0.213774 0.00494834 0)
(0.214007 0.00473667 0)
(0.214225 0.00455208 0)
(0.21443 0.00438595 0)
(0.214624 0.00423115 0)
(0.214807 0.00408574 0)
(0.214975 0.00394905 0)
(0.215126 0.00381688 0)
(0.21526 0.00368497 0)
(0.215381 0.00355445 0)
(0.215485 0.00342831 0)
(0.215568 0.00330384 0)
(0.215629 0.0031751 0)
(0.215674 0.00304253 0)
(0.215708 0.00291291 0)
(0.215723 0.00278798 0)
(0.21571 0.00265974 0)
(0.215674 0.00252138 0)
(0.215628 0.00237827 0)
(0.215574 0.00224145 0)
(0.2155 0.00211186 0)
(0.215394 0.00197779 0)
(0.215262 0.00183074 0)
(0.215124 0.00167907 0)
(0.214988 0.00154051 0)
(0.214842 0.00142173 0)
(0.214663 0.00131072 0)
(0.21445 0.0011923 0)
(0.214231 0.00106863 0)
(0.214033 0.000960177 0)
(0.21386 0.000885302 0)
(0.213683 0.000840425 0)
(0.213472 0.000801767 0)
(0.213227 0.000747052 0)
(0.212984 0.000675939 0)
(0.212783 0.000610533 0)
(0.212636 0.000576034 0)
(0.212514 0.000579028 0)
(0.212363 0.000600949 0)
(0.212148 0.00061111 0)
(0.211873 0.000587853 0)
(0.211585 0.000532889 0)
(0.211344 0.000470005 0)
(0.211187 0.000430919 0)
(0.211106 0.000437845 0)
(0.211047 0.000492681 0)
(0.210939 0.000577659 0)
(0.210715 0.000664638 0)
(0.21034 0.000727295 0)
(0.209819 0.000749405 0)
(0.209188 0.000727593 0)
(0.208499 0.000668742 0)
(0.207808 0.000585389 0)
(0.207159 0.000491074 0)
(0.206584 0.000397198 0)
(0.206094 0.000311678 0)
(0.205693 0.000238674 0)
(0.205374 0.000179479 0)
(0.205125 0.000133307 0)
(0.204933 9.83709e-05 0)
(0.204787 7.25061e-05 0)
(0.204675 5.35693e-05 0)
(0.204591 3.98317e-05 0)
(0.204526 2.98224e-05 0)
(0.204476 2.24936e-05 0)
(0.204438 1.71036e-05 0)
(0.204408 1.30503e-05 0)
(0.204385 1.00196e-05 0)
(0.204366 7.70938e-06 0)
(0.204352 5.92477e-06 0)
(0.20434 4.57193e-06 0)
(0.204331 3.51076e-06 0)
(0.204324 2.69168e-06 0)
(0.204319 2.07042e-06 0)
(0.204314 1.57189e-06 0)
(0.204311 1.20221e-06 0)
(0.204308 9.13603e-07 0)
(0.204306 6.89349e-07 0)
(0.204304 5.22764e-07 0)
(0.204303 4.00294e-07 0)
(0.204302 2.95667e-07 0)
(0.204301 2.35131e-07 0)
(0.2043 1.75848e-07 0)
(0.2043 1.48193e-07 0)
(0.204299 1.105e-07 0)
(0.200004 0.000960125 0)
(0.200479 0.00276413 0)
(0.201323 0.00431357 0)
(0.202483 0.00547653 0)
(0.203819 0.00622039 0)
(0.205167 0.00662324 0)
(0.206412 0.0067979 0)
(0.207517 0.00681942 0)
(0.20849 0.00671915 0)
(0.20934 0.00651372 0)
(0.210072 0.00622835 0)
(0.210682 0.00590086 0)
(0.211177 0.00557217 0)
(0.211573 0.00527194 0)
(0.211898 0.00501 0)
(0.212179 0.00478291 0)
(0.212436 0.00458562 0)
(0.212678 0.00441265 0)
(0.212911 0.00425533 0)
(0.213139 0.00410681 0)
(0.213361 0.00396697 0)
(0.213574 0.00383675 0)
(0.213777 0.00371124 0)
(0.213971 0.00358457 0)
(0.214159 0.00345885 0)
(0.21434 0.00333968 0)
(0.214507 0.00322409 0)
(0.21466 0.00310266 0)
(0.214806 0.00297466 0)
(0.214947 0.00285057 0)
(0.215076 0.00273538 0)
(0.215185 0.00261845 0)
(0.215277 0.00248764 0)
(0.215363 0.00234809 0)
(0.215444 0.00221697 0)
(0.215509 0.00209962 0)
(0.215547 0.00198027 0)
(0.215559 0.0018423 0)
(0.215564 0.00169241 0)
(0.215569 0.00155615 0)
(0.215564 0.00144831 0)
(0.215526 0.00135475 0)
(0.215453 0.00124898 0)
(0.215366 0.00112475 0)
(0.215292 0.00100688 0)
(0.215237 0.000927218 0)
(0.21518 0.00089129 0)
(0.21509 0.000870407 0)
(0.21496 0.000827309 0)
(0.214817 0.000750237 0)
(0.214704 0.000664214 0)
(0.21464 0.00061015 0)
(0.214607 0.000610964 0)
(0.214557 0.000652411 0)
(0.214445 0.000692608 0)
(0.214263 0.00069078 0)
(0.214046 0.000634054 0)
(0.213855 0.000545211 0)
(0.213737 0.000468938 0)
(0.213706 0.000447245 0)
(0.213727 0.000498572 0)
(0.213732 0.000611218 0)
(0.213648 0.000751127 0)
(0.213422 0.000877934 0)
(0.213037 0.000959597 0)
(0.212513 0.000980577 0)
(0.211893 0.00094201 0)
(0.211234 0.000856877 0)
(0.210586 0.000743415 0)
(0.209987 0.000619456 0)
(0.209462 0.000499106 0)
(0.20902 0.000391335 0)
(0.208658 0.000300522 0)
(0.20837 0.000227402 0)
(0.208145 0.000170541 0)
(0.20797 0.000127436 0)
(0.207835 9.52532e-05 0)
(0.207732 7.14893e-05 0)
(0.207652 5.39517e-05 0)
(0.207591 4.09737e-05 0)
(0.207543 3.1338e-05 0)
(0.207506 2.40744e-05 0)
(0.207477 1.85938e-05 0)
(0.207454 1.44056e-05 0)
(0.207436 1.11676e-05 0)
(0.207422 8.68218e-06 0)
(0.20741 6.74005e-06 0)
(0.207402 5.22622e-06 0)
(0.207395 4.06123e-06 0)
(0.207389 3.13324e-06 0)
(0.207385 2.42795e-06 0)
(0.207381 1.87045e-06 0)
(0.207378 1.44121e-06 0)
(0.207376 1.10589e-06 0)
(0.207374 8.60177e-07 0)
(0.207373 6.47346e-07 0)
(0.207372 5.18029e-07 0)
(0.207371 3.84852e-07 0)
(0.207371 3.26397e-07 0)
(0.20737 2.31485e-07 0)
(0.200003 0.000799961 0)
(0.200371 0.00232072 0)
(0.201032 0.00366768 0)
(0.201955 0.00473881 0)
(0.203056 0.00548538 0)
(0.204214 0.00593363 0)
(0.205324 0.00615703 0)
(0.206331 0.00622532 0)
(0.207223 0.0061807 0)
(0.208007 0.00604488 0)
(0.208688 0.0058361 0)
(0.20927 0.00558033 0)
(0.209755 0.00530999 0)
(0.210155 0.00505202 0)
(0.210489 0.00481831 0)
(0.210778 0.00461035 0)
(0.211041 0.00442764 0)
(0.211286 0.00426626 0)
(0.211521 0.00411721 0)
(0.21175 0.00397443 0)
(0.211974 0.00383995 0)
(0.21219 0.00371553 0)
(0.212398 0.00359501 0)
(0.212599 0.00347173 0)
(0.212797 0.00334939 0)
(0.212988 0.00323556 0)
(0.21317 0.00312643 0)
(0.213343 0.00300978 0)
(0.213512 0.0028846 0)
(0.213676 0.00276463 0)
(0.213832 0.00265696 0)
(0.213973 0.00254836 0)
(0.214104 0.00242275 0)
(0.21423 0.00228583 0)
(0.214351 0.00215975 0)
(0.214459 0.00205269 0)
(0.214545 0.00194533 0)
(0.214614 0.00181495 0)
(0.214676 0.00166738 0)
(0.214735 0.00153425 0)
(0.214782 0.00143646 0)
(0.214802 0.00135818 0)
(0.214796 0.00126407 0)
(0.214778 0.00114105 0)
(0.214766 0.00101689 0)
(0.214766 0.000934004 0)
(0.21476 0.0009059 0)
(0.214729 0.000901015 0)
(0.214668 0.000870223 0)
(0.214594 0.00079128 0)
(0.21454 0.000689701 0)
(0.21452 0.000618411 0)
(0.214525 0.000615035 0)
(0.214519 0.000671663 0)
(0.214467 0.000739376 0)
(0.214358 0.000761404 0)
(0.214212 0.000710008 0)
(0.214076 0.000603308 0)
(0.213994 0.000494134 0)
(0.213985 0.000441151 0)
(0.214029 0.000479704 0)
(0.214079 0.000607737 0)
(0.21407 0.00079013 0)
(0.213951 0.00097628 0)
(0.213693 0.0011197 0)
(0.213302 0.00119163 0)
(0.212807 0.00118494 0)
(0.212254 0.00111033 0)
(0.211688 0.000988612 0)
(0.211147 0.000842906 0)
(0.210657 0.000693233 0)
(0.210234 0.000553696 0)
(0.209879 0.000432332 0)
(0.20959 0.000332033 0)
(0.209359 0.000252269 0)
(0.209177 0.000190615 0)
(0.209035 0.000143818 0)
(0.208924 0.000108752 0)
(0.208838 8.25763e-05 0)
(0.208771 6.30228e-05 0)
(0.208719 4.83902e-05 0)
(0.208678 3.73172e-05 0)
(0.208646 2.8913e-05 0)
(0.208621 2.24753e-05 0)
(0.208601 1.74935e-05 0)
(0.208585 1.3647e-05 0)
(0.208573 1.06448e-05 0)
(0.208563 8.2945e-06 0)
(0.208555 6.47449e-06 0)
(0.208549 5.02838e-06 0)
(0.208544 3.91791e-06 0)
(0.20854 3.03582e-06 0)
(0.208537 2.35823e-06 0)
(0.208534 1.8183e-06 0)
(0.208533 1.4234e-06 0)
(0.208531 1.07865e-06 0)
(0.20853 8.65358e-07 0)
(0.208529 6.4188e-07 0)
(0.208528 5.45557e-07 0)
(0.208527 3.80124e-07 0)
(0.200002 0.000673261 0)
(0.200293 0.00196544 0)
(0.200817 0.00313383 0)
(0.201558 0.00410336 0)
(0.202464 0.00482559 0)
(0.203448 0.00529927 0)
(0.204426 0.0055646 0)
(0.205337 0.0056765 0)
(0.206155 0.0056791 0)
(0.206879 0.00559846 0)
(0.207514 0.00545138 0)
(0.208066 0.00525737 0)
(0.208537 0.00504117 0)
(0.208935 0.00482469 0)
(0.209273 0.00461981 0)
(0.209569 0.00443196 0)
(0.209834 0.00426469 0)
(0.210079 0.00411537 0)
(0.210313 0.00397492 0)
(0.210541 0.00383871 0)
(0.210761 0.00371073 0)
(0.210972 0.00359255 0)
(0.211176 0.00347652 0)
(0.211375 0.00335649 0)
(0.21157 0.00323816 0)
(0.211756 0.00312965 0)
(0.211935 0.00302553 0)
(0.212108 0.00291236 0)
(0.212278 0.00279022 0)
(0.212442 0.00267489 0)
(0.212596 0.00257353 0)
(0.21274 0.00247059 0)
(0.212879 0.00234866 0)
(0.213014 0.0022152 0)
(0.213139 0.00209513 0)
(0.213251 0.00199668 0)
(0.213349 0.00189756 0)
(0.213437 0.00177254 0)
(0.213519 0.00162857 0)
(0.213592 0.00150093 0)
(0.213649 0.0014126 0)
(0.213687 0.00134535 0)
(0.21371 0.00125887 0)
(0.213725 0.00113737 0)
(0.213742 0.00101128 0)
(0.213758 0.000928966 0)
(0.213765 0.000907704 0)
(0.213756 0.000913577 0)
(0.213731 0.000890432 0)
(0.213701 0.000810151 0)
(0.213683 0.000698868 0)
(0.213682 0.000617 0)
(0.213692 0.000611495 0)
(0.213693 0.000678885 0)
(0.213665 0.000766196 0)
(0.213602 0.000806223 0)
(0.213515 0.000760587 0)
(0.213432 0.000642895 0)
(0.213381 0.000510251 0)
(0.213378 0.000432495 0)
(0.213414 0.000457883 0)
(0.213459 0.00059342 0)
(0.21347 0.000805677 0)
(0.213405 0.00103818 0)
(0.213239 0.00123394 0)
(0.212967 0.00135305 0)
(0.212606 0.00138021 0)
(0.212184 0.0013224 0)
(0.211736 0.00120102 0)
(0.211295 0.00104259 0)
(0.210883 0.000871725 0)
(0.210517 0.000706969 0)
(0.210202 0.000559834 0)
(0.209939 0.000435534 0)
(0.209724 0.000334768 0)
(0.209551 0.000255543 0)
(0.209413 0.000194506 0)
(0.209305 0.000148149 0)
(0.209219 0.000113159 0)
(0.209152 8.67738e-05 0)
(0.2091 6.6872e-05 0)
(0.209058 5.1735e-05 0)
(0.209025 4.01856e-05 0)
(0.208999 3.13114e-05 0)
(0.208979 2.44326e-05 0)
(0.208963 1.91004e-05 0)
(0.20895 1.49381e-05 0)
(0.20894 1.16713e-05 0)
(0.208932 9.13289e-06 0)
(0.208925 7.11759e-06 0)
(0.20892 5.56175e-06 0)
(0.208916 4.32288e-06 0)
(0.208913 3.37169e-06 0)
(0.20891 2.60633e-06 0)
(0.208908 2.047e-06 0)
(0.208907 1.55653e-06 0)
(0.208906 1.25041e-06 0)
(0.208905 9.27137e-07 0)
(0.208904 7.88766e-07 0)
(0.208903 5.45034e-07 0)
(0.200002 0.000571373 0)
(0.200233 0.00167615 0)
(0.200654 0.00269048 0)
(0.201255 0.00355933 0)
(0.202001 0.00424019 0)
(0.202834 0.00471954 0)
(0.203686 0.00501515 0)
(0.204502 0.00516516 0)
(0.205249 0.00520885 0)
(0.205917 0.00517348 0)
(0.20651 0.00507633 0)
(0.207032 0.00493431 0)
(0.207486 0.00476663 0)
(0.207878 0.00458953 0)
(0.208218 0.00441356 0)
(0.208516 0.00424698 0)
(0.208784 0.00409605 0)
(0.209031 0.00395906 0)
(0.209265 0.00382771 0)
(0.209491 0.00369924 0)
(0.209707 0.00357895 0)
(0.209914 0.00346738 0)
(0.210115 0.00335581 0)
(0.210311 0.00323957 0)
(0.2105 0.00312632 0)
(0.210681 0.00302334 0)
(0.210855 0.00292326 0)
(0.211025 0.00281306 0)
(0.211192 0.0026949 0)
(0.21135 0.00258516 0)
(0.211498 0.00248921 0)
(0.21164 0.00239007 0)
(0.21178 0.00227136 0)
(0.211913 0.00214294 0)
(0.212034 0.00203013 0)
(0.212142 0.00193892 0)
(0.212241 0.00184495 0)
(0.212336 0.00172385 0)
(0.212423 0.00158524 0)
(0.212497 0.00146564 0)
(0.212553 0.00138625 0)
(0.212595 0.00132593 0)
(0.212632 0.00124314 0)
(0.212666 0.00112347 0)
(0.212695 0.000999847 0)
(0.212713 0.000922103 0)
(0.21272 0.000906812 0)
(0.212718 0.000917784 0)
(0.212713 0.000896586 0)
(0.212711 0.000814418 0)
(0.212715 0.000699056 0)
(0.21272 0.000614279 0)
(0.212723 0.000610325 0)
(0.212717 0.000684884 0)
(0.212697 0.000782784 0)
(0.212663 0.000832014 0)
(0.21262 0.000789147 0)
(0.212581 0.000665361 0)
(0.212556 0.000519549 0)
(0.212553 0.000427258 0)
(0.21257 0.00044423 0)
(0.212591 0.000583727 0)
(0.212594 0.000814822 0)
(0.212552 0.00107875 0)
(0.212446 0.00131248 0)
(0.212268 0.00146855 0)
(0.212022 0.00152515 0)
(0.211726 0.00148538 0)
(0.2114 0.00136975 0)
(0.211066 0.00120632 0)
(0.210745 0.00102259 0)
(0.21045 0.00084029 0)
(0.210189 0.000673772 0)
(0.209965 0.000530374 0)
(0.209777 0.000412113 0)
(0.209622 0.000317673 0)
(0.209497 0.000243884 0)
(0.209396 0.000187115 0)
(0.209315 0.000143789 0)
(0.209251 0.000110803 0)
(0.209201 8.57176e-05 0)
(0.20916 6.65251e-05 0)
(0.209128 5.18017e-05 0)
(0.209103 4.04469e-05 0)
(0.209083 3.16239e-05 0)
(0.209067 2.47626e-05 0)
(0.209054 1.94015e-05 0)
(0.209044 1.51857e-05 0)
(0.209036 1.1902e-05 0)
(0.20903 9.29528e-06 0)
(0.209025 7.27619e-06 0)
(0.209021 5.66619e-06 0)
(0.209018 4.42998e-06 0)
(0.209015 3.42955e-06 0)
(0.209013 2.69875e-06 0)
(0.209012 2.05632e-06 0)
(0.209011 1.65315e-06 0)
(0.20901 1.22573e-06 0)
(0.209009 1.04335e-06 0)
(0.209008 7.1761e-07 0)
(0.200002 0.000488188 0)
(0.200188 0.00143737 0)
(0.20053 0.00231963 0)
(0.20102 0.00309365 0)
(0.201637 0.00372429 0)
(0.202339 0.00419384 0)
(0.203076 0.00450685 0)
(0.2038 0.00468731 0)
(0.204478 0.00476637 0)
(0.205094 0.0047691 0)
(0.205647 0.00471298 0)
(0.206139 0.00461434 0)
(0.206574 0.00448885 0)
(0.206957 0.00434785 0)
(0.207294 0.00420014 0)
(0.207594 0.00405555 0)
(0.207864 0.00392161 0)
(0.208111 0.00379709 0)
(0.208346 0.00367535 0)
(0.20857 0.0035557 0)
(0.208784 0.00344379 0)
(0.208988 0.00333897 0)
(0.209187 0.00323217 0)
(0.209381 0.0031206 0)
(0.209566 0.00301323 0)
(0.209742 0.00291577 0)
(0.209913 0.00281913 0)
(0.210081 0.00271188 0)
(0.210243 0.00259876 0)
(0.210396 0.00249537 0)
(0.21054 0.00240415 0)
(0.21068 0.0023076 0)
(0.210818 0.00219232 0)
(0.210948 0.00207046 0)
(0.211065 0.0019657 0)
(0.211169 0.00188043 0)
(0.211268 0.00178946 0)
(0.211366 0.00167173 0)
(0.211454 0.00154017 0)
(0.211526 0.00143032 0)
(0.21158 0.00135905 0)
(0.211626 0.00130242 0)
(0.211671 0.00122066 0)
(0.211715 0.00110353 0)
(0.21175 0.000985954 0)
(0.211768 0.000915666 0)
(0.211773 0.000905354 0)
(0.211776 0.000916876 0)
(0.211785 0.00089328 0)
(0.211801 0.000809049 0)
(0.211817 0.000694314 0)
(0.211824 0.000612927 0)
(0.21182 0.000613586 0)
(0.211807 0.000692342 0)
(0.211791 0.000793122 0)
(0.211777 0.000843626 0)
(0.211767 0.000800211 0)
(0.211759 0.000673849 0)
(0.211753 0.000523683 0)
(0.21175 0.000426632 0)
(0.211749 0.000441043 0)
(0.211748 0.000583287 0)
(0.211737 0.00082471 0)
(0.211705 0.00110673 0)
(0.21164 0.00136409 0)
(0.211532 0.00154539 0)
(0.211381 0.00162453 0)
(0.21119 0.00160122 0)
(0.210971 0.00149426 0)
(0.210736 0.00133171 0)
(0.210501 0.0011423 0)
(0.210277 0.000949708 0)
(0.21007 0.000770252 0)
(0.209888 0.000613015 0)
(0.20973 0.000481273 0)
(0.209597 0.000374514 0)
(0.209487 0.000289968 0)
(0.209396 0.000224102 0)
(0.209323 0.000173276 0)
(0.209264 0.000134201 0)
(0.209217 0.000104236 0)
(0.209179 8.11621e-05 0)
(0.209149 6.33603e-05 0)