/*--------------------------------*- C++ -*----------------------------------*\
| =========                 |                                                 |
| \\      /  F ield         | OpenFOAM: The Open Source CFD Toolbox           |
|  \\    /   O peration     | Version:  2.3.0                                 |
|   \\  /    A nd           | Web:      www.OpenFOAM.org                      |
|    \\/     M anipulation  |                                                 |
\*---------------------------------------------------------------------------*/
FoamFile
{
    version     2.0;
    format      ascii;
    class       volScalarField;
    location    "0.9";
    object      p;
}
// * * * * * * * * * * * * * * * * * * * * * * * * * * * * * * * * * * * * * //

dimensions      [0 2 -2 0 0 0 0];

internalField   nonuniform List<scalar> 
3375
(
0.00251448
0.00218288
0.0015759
0.00101328
0.000550265
0.000159069
-0.000171571
-0.00042537
-0.000583252
-0.000649384
-0.000649216
-0.000613155
-0.000564634
-0.00051755
-0.00047821
-0.000447944
-0.000425474
-0.000408663
-0.000395495
-0.000384445
-0.000374495
-0.00036505
-0.000355799
-0.000346619
-0.000337482
-0.000328411
-0.00031944
-0.000310603
-0.000301926
-0.000293426
-0.000285111
-0.000276987
-0.000269051
-0.000261301
-0.000253732
-0.000246341
-0.000239122
-0.000232073
-0.000225188
-0.000218469
-0.000211908
-0.000205509
-0.000199265
-0.00019318
-0.000187247
-0.000181471
-0.000175843
-0.000170368
-0.000165039
-0.00015986
-0.000154822
-0.00014993
-0.000145174
-0.000140561
-0.000136076
-0.00013173
-0.000127506
-0.000123416
-0.000119441
-0.000115594
-0.000111854
-0.000108238
-0.000104718
-0.000101318
-9.80043e-05
-9.4805e-05
-9.16813e-05
-8.86672e-05
-8.57164e-05
-8.28707e-05
-8.00747e-05
-7.73795e-05
-7.4719e-05
-7.21555e-05
-6.96097e-05
-6.7158e-05
-6.47043e-05
-6.23426e-05
-5.99569e-05
-5.76617e-05
-5.53169e-05
-5.3063e-05
-5.07292e-05
-4.84886e-05
-4.61324e-05
-4.38739e-05
-4.14572e-05
-3.91465e-05
-3.66257e-05
-3.42238e-05
-3.15478e-05
-2.90109e-05
-2.61192e-05
-2.33975e-05
-2.02158e-05
-1.72535e-05
-1.36851e-05
-1.04249e-05
-6.31707e-06
-2.74718e-06
0.00208086
0.00190116
0.00146822
0.000980574
0.000544547
0.000174612
-0.000133682
-0.000370371
-0.00052388
-0.000596078
-0.000605872
-0.000579561
-0.000539287
-0.000498619
-0.000463985
-0.000436942
-0.000416572
-0.000401119
-0.000388862
-0.000378466
-0.000369029
-0.000360013
-0.00035114
-0.000342298
-0.000333468
-0.000324673
-0.000315951
-0.000307338
-0.000298863
-0.000290546
-0.000282397
-0.000274425
-0.000266627
-0.000259004
-0.000251552
-0.00024427
-0.000237151
-0.000230196
-0.000223399
-0.000216761
-0.000210277
-0.000203949
-0.000197772
-0.00019175
-0.000185877
-0.000180156
-0.000174581
-0.000169156
-0.000163874
-0.00015874
-0.000153743
-0.000148892
-0.000144173
-0.000139595
-0.000135145
-0.000130831
-0.000126638
-0.000122578
-0.00011863
-0.00011481
-0.000111095
-0.000107504
-0.000104007
-0.000100629
-9.73364e-05
-9.4158e-05
-9.10531e-05
-8.80583e-05
-8.51246e-05
-8.22967e-05
-7.95163e-05
-7.68377e-05
-7.41915e-05
-7.16435e-05
-6.91106e-05
-6.66734e-05
-6.42314e-05
-6.18834e-05
-5.95082e-05
-5.72259e-05
-5.48905e-05
-5.2649e-05
-5.03234e-05
-4.80947e-05
-4.57455e-05
-4.34985e-05
-4.10877e-05
-3.87882e-05
-3.62719e-05
-3.38813e-05
-3.12081e-05
-2.86826e-05
-2.57919e-05
-2.3082e-05
-1.98988e-05
-1.69495e-05
-1.33754e-05
-1.01309e-05
-6.0159e-06
-2.48253e-06
0.00177882
0.00166898
0.00136548
0.000959616
0.000560539
0.000215442
-6.73147e-05
-0.000285327
-0.000435144
-0.000517913
-0.000544899
-0.000535105
-0.000507832
-0.000476723
-0.000448468
-0.000425298
-0.000407129
-0.000392917
-0.000381422
-0.000371577
-0.000362612
-0.000354043
-0.000345607
-0.00033719
-0.000328765
-0.000320348
-0.00031197
-0.000303669
-0.000295473
-0.000287404
-0.000279476
-0.0002717
-0.000264077
-0.000256613
-0.000249303
-0.00024215
-0.000235148
-0.000228301
-0.000221602
-0.000215055
-0.000208655
-0.000202406
-0.000196301
-0.000190347
-0.000184536
-0.000178875
-0.000173355
-0.000167982
-0.000162749
-0.000157661
-0.000152707
-0.000147897
-0.000143216
-0.000138676
-0.000134259
-0.000129979
-0.000125817
-0.000121786
-0.000117866
-0.000114074
-0.000110383
-0.000106817
-0.000103342
-9.99877e-05
-9.67148e-05
-9.35576e-05
-9.04708e-05
-8.74957e-05
-8.45783e-05
-8.17688e-05
-7.9003e-05
-7.63417e-05
-7.37085e-05
-7.11769e-05
-6.86556e-05
-6.62341e-05
-6.38023e-05
-6.14694e-05
-5.91031e-05
-5.68356e-05
-5.45077e-05
-5.22808e-05
-4.99613e-05
-4.77471e-05
-4.54027e-05
-4.31704e-05
-4.07628e-05
-3.84784e-05
-3.59637e-05
-3.35889e-05
-3.09154e-05
-2.84068e-05
-2.55136e-05
-2.28222e-05
-1.96339e-05
-1.67053e-05
-1.31246e-05
-9.90253e-06
-5.8104e-06
-2.3399e-06
0.0015704
0.00148405
0.00126075
0.000931146
0.000578375
0.000261697
1.59299e-06
-0.000199892
-0.000343983
-0.000432938
-0.000473929
-0.000480064
-0.000466586
-0.000445799
-0.000424812
-0.000406617
-0.000391823
-0.000379926
-0.000370075
-0.000361463
-0.000353482
-0.000345745
-0.000338043
-0.000330287
-0.00032246
-0.00031458
-0.000306684
-0.00029881
-0.000290991
-0.000283258
-0.000275628
-0.000268117
-0.000260732
-0.000253482
-0.000246366
-0.000239389
-0.000232549
-0.00022585
-0.000219287
-0.000212867
-0.000206583
-0.000200442
-0.000194438
-0.000188578
-0.000182854
-0.000177275
-0.00017183
-0.00016653
-0.000161362
-0.000156337
-0.000151442
-0.000146688
-0.000142058
-0.000137568
-0.000133197
-0.000128961
-0.000124839
-0.000120848
-0.000116964
-0.000113208
-0.000109549
-0.000106015
-0.000102569
-9.92442e-05
-9.59972e-05
-9.28671e-05
-8.98035e-05
-8.68532e-05
-8.39566e-05
-8.11702e-05
-7.8423e-05
-7.57832e-05
-7.31668e-05
-7.06554e-05
-6.8149e-05
-6.57468e-05
-6.33281e-05
-6.10137e-05
-5.86591e-05
-5.64093e-05
-5.40917e-05
-5.18822e-05
-4.95715e-05
-4.73746e-05
-4.50377e-05
-4.28227e-05
-4.04212e-05
-3.81545e-05
-3.56445e-05
-3.32881e-05
-3.0618e-05
-2.81287e-05
-2.52377e-05
-2.25667e-05
-1.93803e-05
-1.64726e-05
-1.28988e-05
-9.69862e-06
-5.66584e-06
-2.27001e-06
0.00140604
0.00132799
0.00115282
0.000887294
0.000584653
0.000299995
6.12207e-05
-0.000125849
-0.000263348
-0.000354633
-0.000405024
-0.000423659
-0.000422079
-0.000410756
-0.000396744
-0.000383595
-0.000372462
-0.00036325
-0.000355403
-0.000348334
-0.000341591
-0.000334895
-0.000328101
-0.00032116
-0.000314071
-0.000306863
-0.000299574
-0.000292249
-0.000284923
-0.000277632
-0.000270399
-0.000263246
-0.000256183
-0.000249225
-0.000242373
-0.000235638
-0.000229018
-0.000222521
-0.000216145
-0.000209897
-0.000203773
-0.000197781
-0.000191915
-0.000186184
-0.00018058
-0.000175113
-0.000169774
-0.000164572
-0.000159497
-0.00015456
-0.000149746
-0.00014507
-0.000140513
-0.000136091
-0.000131784
-0.000127611
-0.000123546
-0.000119611
-0.000115777
-0.000112071
-0.000108458
-0.00010497
-0.000101565
-9.82809e-05
-9.50707e-05
-9.19778e-05
-8.89472e-05
-8.60311e-05
-8.31641e-05
-8.04091e-05
-7.76887e-05
-7.50778e-05
-7.24856e-05
-7.00011e-05
-6.75164e-05
-6.51395e-05
-6.27405e-05
-6.04499e-05
-5.81132e-05
-5.58861e-05
-5.35848e-05
-5.13971e-05
-4.91011e-05
-4.69255e-05
-4.46021e-05
-4.2408e-05
-4.00191e-05
-3.77733e-05
-3.5275e-05
-3.29396e-05
-3.02809e-05
-2.78129e-05
-2.49342e-05
-2.22842e-05
-1.91134e-05
-1.62252e-05
-1.26798e-05
-9.50187e-06
-5.55998e-06
-2.24144e-06
0.00126655
0.00119305
0.00104844
0.000833102
0.0005787
0.000328101
0.000110596
-6.34298e-05
-0.000194246
-0.000285375
-0.00034155
-0.000369492
-0.00037776
-0.000374887
-0.00036739
-0.000359073
-0.000351513
-0.000344973
-0.000339158
-0.00033367
-0.0003282
-0.000322571
-0.000316705
-0.000310596
-0.000304264
-0.000297752
-0.000291101
-0.000284359
-0.000277566
-0.00027076
-0.000263968
-0.000257216
-0.00025052
-0.000243896
-0.000237352
-0.000230899
-0.00022454
-0.000218285
-0.000212133
-0.000206094
-0.000200164
-0.000194354
-0.000188658
-0.000183087
-0.000177632
-0.000172307
-0.0001671
-0.000162024
-0.000157066
-0.000152241
-0.000147532
-0.000142955
-0.000138491
-0.00013416
-0.000129937
-0.000125844
-0.000121854
-0.000117992
-0.000114226
-0.000110586
-0.000107034
-0.000103605
-0.000100255
-9.70248e-05
-9.38643e-05
-9.08207e-05
-8.78351e-05
-8.49641e-05
-8.21378e-05
-7.94242e-05
-7.67407e-05
-7.41679e-05
-7.16094e-05
-6.91601e-05
-6.67062e-05
-6.43622e-05
-6.19913e-05
-5.97315e-05
-5.74209e-05
-5.52227e-05
-5.29456e-05
-5.07855e-05
-4.85123e-05
-4.63631e-05
-4.40615e-05
-4.1893e-05
-3.95253e-05
-3.73044e-05
-3.48276e-05
-3.25164e-05
-2.98808e-05
-2.74361e-05
-2.45838e-05
-2.19554e-05
-1.8819e-05
-1.59497e-05
-1.24581e-05
-9.30553e-06
-5.47877e-06
-2.23116e-06
0.00114489
0.00107557
0.000952617
0.000775801
0.000563686
0.000346635
0.000150846
-1.04176e-05
-0.00013462
-0.00022432
-0.000283805
-0.000318432
-0.000334641
-0.000339171
-0.000337693
-0.000333954
-0.000329819
-0.000325869
-0.000322054
-0.000318154
-0.000313978
-0.000309438
-0.000304517
-0.000299249
-0.00029368
-0.000287865
-0.000281854
-0.000275699
-0.000269442
-0.000263125
-0.000256779
-0.000250436
-0.000244113
-0.000237834
-0.000231605
-0.000225446
-0.000219358
-0.000213357
-0.00020744
-0.000201623
-0.000195901
-0.000190287
-0.000184775
-0.000179378
-0.000174088
-0.00016892
-0.00016386
-0.000158925
-0.0001541
-0.000149402
-0.000144813
-0.000140352
-0.000135996
-0.000131769
-0.000127645
-0.000123647
-0.000119746
-0.000115971
-0.000112286
-0.000108725
-0.000105247
-0.00010189
-9.86073e-05
-9.54435e-05
-9.23444e-05
-8.93613e-05
-8.64318e-05
-8.36164e-05
-8.08413e-05
-7.81789e-05
-7.55425e-05
-7.30169e-05
-7.05017e-05
-6.80961e-05
-6.56822e-05
-6.33789e-05
-6.10452e-05
-5.88234e-05
-5.65477e-05
-5.43851e-05
-5.21412e-05
-5.00149e-05
-4.77736e-05
-4.56563e-05
-4.33862e-05
-4.12479e-05
-3.89122e-05
-3.67201e-05
-3.4277e-05
-3.1993e-05
-2.93947e-05
-2.69751e-05
-2.41668e-05
-2.15608e-05
-1.84802e-05
-1.56313e-05
-1.22198e-05
-9.09787e-06
-5.40296e-06
-2.20957e-06
0.00103776
0.000972954
0.000866831
0.000719634
0.000542653
0.000356545
0.000182494
3.43174e-05
-8.30574e-05
-0.000170566
-0.000231715
-0.000270969
-0.000293362
-0.00030416
-0.00030809
-0.000308611
-0.000307714
-0.000306243
-0.000304377
-0.000302056
-0.000299194
-0.000295772
-0.000291822
-0.000287416
-0.000282621
-0.00027751
-0.000272142
-0.000266575
-0.000260854
-0.000255027
-0.000249128
-0.000243193
-0.000237244
-0.000231308
-0.000225397
-0.000219532
-0.000213716
-0.00020797
-0.000202292
-0.000196698
-0.000191186
-0.000185771
-0.000180446
-0.000175228
-0.000170107
-0.000165099
-0.000160192
-0.000155404
-0.000150717
-0.000146152
-0.000141689
-0.00013735
-0.00013311
-0.000128995
-0.000124976
-0.000121081
-0.000117277
-0.000113596
-0.00011
-0.000106526
-0.00010313
-9.98531e-05
-9.66459e-05
-9.35559e-05
-9.05263e-05
-8.76115e-05
-8.47461e-05
-8.19938e-05
-7.92781e-05
-7.66741e-05
-7.40928e-05
-7.16213e-05
-6.91574e-05
-6.68023e-05
-6.44364e-05
-6.21801e-05
-5.98917e-05
-5.77137e-05
-5.54813e-05
-5.33598e-05
-5.11577e-05
-4.907e-05
-4.68699e-05
-4.47889e-05
-4.25605e-05
-4.04564e-05
-3.81639e-05
-3.60037e-05
-3.36072e-05
-3.13528e-05
-2.88067e-05
-2.64143e-05
-2.36674e-05
-2.10862e-05
-1.80819e-05
-1.52584e-05
-1.19497e-05
-8.86564e-06
-5.31181e-06
-2.1527e-06
0.000942981
0.000882921
0.00079055
0.000666402
0.000517897
0.000359016
0.000205901
7.11817e-05
-3.8873e-05
-0.000123523
-0.000185164
-0.000227454
-0.000254463
-0.000270352
-0.000278964
-0.00028334
-0.000285455
-0.000286326
-0.000286331
-0.000285556
-0.000284005
-0.000281715
-0.000278755
-0.000275224
-0.000271213
-0.000266811
-0.000262088
-0.000257109
-0.000251925
-0.00024659
-0.000241139
-0.000235615
-0.000230041
-0.000224452
-0.00021886
-0.000213291
-0.000207751
-0.000202261
-0.000196823
-0.000191456
-0.000186156
-0.000180942
-0.000175806
-0.000170769
-0.000165818
-0.000160974
-0.000156221
-0.000151581
-0.000147035
-0.000142606
-0.000138272
-0.000134057
-0.000129936
-0.000125935
-0.000122025
-0.000118235
-0.000114532
-0.000110948
-0.000107446
-0.000104062
-0.000100752
-9.75587e-05
-9.44312e-05
-9.1419e-05
-8.84634e-05
-8.56208e-05
-8.28244e-05
-8.01392e-05
-7.74879e-05
-7.49463e-05
-7.24253e-05
-7.0012e-05
-6.76049e-05
-6.53041e-05
-6.29919e-05
-6.07864e-05
-5.85495e-05
-5.6419e-05
-5.42365e-05
-5.21595e-05
-5.00065e-05
-4.79604e-05
-4.58096e-05
-4.37677e-05
-4.15897e-05
-3.95222e-05
-3.7283e-05
-3.51571e-05
-3.28186e-05
-3.05962e-05
-2.81153e-05
-2.57529e-05
-2.30818e-05
-2.05301e-05
-1.76182e-05
-1.48284e-05
-1.16388e-05
-8.60142e-06
-5.19122e-06
-2.05458e-06
0.000858708
0.000803402
0.000722506
0.00061666
0.00049111
0.000355503
0.000221784
0.000100569
-1.59533e-06
-8.26835e-05
-0.000143881
-0.000187974
-0.000218268
-0.000238114
-0.000250623
-0.000258385
-0.000263244
-0.000266299
-0.000268078
-0.000268791
-0.000268523
-0.000267356
-0.000265386
-0.000262733
-0.000259508
-0.000255815
-0.000251736
-0.000247345
-0.000242699
-0.000237856
-0.000232855
-0.000227745
-0.000222551
-0.000217313
-0.000212044
-0.000206776
-0.000201515
-0.000196287
-0.000191093
-0.000185956
-0.000180871
-0.000175862
-0.00017092
-0.000166067
-0.00016129
-0.000156611
-0.000152016
-0.000147527
-0.000143126
-0.000138835
-0.000134632
-0.000130544
-0.000126544
-0.00012266
-0.000118862
-0.00011518
-0.00011158
-0.000108096
-0.000104689
-0.000101398
-9.81765e-05
-9.50696e-05
-9.20248e-05
-8.90924e-05
-8.62139e-05
-8.34455e-05
-8.07212e-05
-7.81051e-05
-7.55215e-05
-7.30444e-05
-7.05872e-05
-6.8234e-05
-6.58876e-05
-6.36428e-05
-6.13887e-05
-5.92356e-05
-5.70548e-05
-5.49734e-05
-5.28458e-05
-5.08147e-05
-4.87164e-05
-4.67135e-05
-4.46181e-05
-4.26166e-05
-4.04962e-05
-3.84669e-05
-3.62886e-05
-3.41989e-05
-3.19269e-05
-2.97391e-05
-2.73326e-05
-2.50045e-05
-2.2419e-05
-1.99038e-05
-1.70941e-05
-1.43487e-05
-1.12865e-05
-8.30656e-06
-5.0379e-06
-1.92755e-06
0.000783326
0.000732618
0.000661424
0.000570416
0.000463486
0.000347493
0.000231201
0.000123088
2.92409e-05
-4.75868e-05
-0.000107513
-0.00015242
-0.000184908
-0.000207699
-0.000223326
-0.000233963
-0.000241262
-0.000246321
-0.000249755
-0.000251876
-0.000252839
-0.000252762
-0.000251765
-0.000249981
-0.000247535
-0.000244546
-0.000241106
-0.0002373
-0.000233189
-0.000228838
-0.00022429
-0.000219596
-0.000214787
-0.000209903
-0.000204963
-0.0002
-0.000195024
-0.000190062
-0.000185118
-0.000180216
-0.000175353
-0.000170554
-0.00016581
-0.000161144
-0.000156546
-0.000152038
-0.000147606
-0.000143272
-0.000139019
-0.00013487
-0.000130803
-0.000126845
-0.00012297
-0.000119206
-0.000115523
-0.000111952
-0.000108459
-0.000105078
-0.00010177
-9.85738e-05
-9.54445e-05
-9.24255e-05
-8.94666e-05
-8.66159e-05
-8.38179e-05
-8.11253e-05
-7.84766e-05
-7.5931e-05
-7.34185e-05
-7.1007e-05
-6.86171e-05
-6.63252e-05
-6.40429e-05
-6.18552e-05
-5.96629e-05
-5.75631e-05
-5.54423e-05
-5.34108e-05
-5.13424e-05
-4.93581e-05
-4.73189e-05
-4.536e-05
-4.33248e-05
-4.13651e-05
-3.93071e-05
-3.73178e-05
-3.52055e-05
-3.31547e-05
-3.09542e-05
-2.8805e-05
-2.64779e-05
-2.41901e-05
-2.16949e-05
-1.92251e-05
-1.65219e-05
-1.3833e-05
-1.08995e-05
-7.98891e-06
-4.85774e-06
-1.79222e-06
0.000715465
0.000669118
0.000606227
0.000527468
0.000435812
0.000336279
0.000235321
0.000139522
5.41443e-05
-1.78296e-05
-7.57387e-05
-0.000120627
-0.000154414
-0.00017928
-0.000197301
-0.000210292
-0.000219695
-0.000226547
-0.000231498
-0.000234927
-0.000237045
-0.000238006
-0.000237945
-0.000237007
-0.000235324
-0.000233027
-0.000230217
-0.000226989
-0.00022341
-0.000219549
-0.000215452
-0.000211176
-0.000206753
-0.000202227
-0.000197619
-0.000192966
-0.00018828
-0.00018359
-0.000178901
-0.000174239
-0.000169603
-0.000165018
-0.000160478
-0.000156006
-0.000151592
-0.00014726
-0.000142995
-0.000138821
-0.000134721
-0.000130719
-0.000126793
-0.00012297
-0.000119225
-0.000115585
-0.000112022
-0.000108565
-0.000105184
-0.000101908
-9.87039e-05
-9.56053e-05
-9.25725e-05
-8.96442e-05
-8.67755e-05
-8.40088e-05
-8.12952e-05
-7.86807e-05
-7.61112e-05
-7.36382e-05
-7.12005e-05
-6.88564e-05
-6.65375e-05
-6.43084e-05
-6.20939e-05
-5.99648e-05
-5.78377e-05
-5.57927e-05
-5.37355e-05
-5.17552e-05
-4.97494e-05
-4.78135e-05
-4.58369e-05
-4.39238e-05
-4.19522e-05
-4.00365e-05
-3.8044e-05
-3.60977e-05
-3.40543e-05
-3.20464e-05
-2.992e-05
-2.7815e-05
-2.55693e-05
-2.33293e-05
-2.09258e-05
-1.85113e-05
-1.59148e-05
-1.32943e-05
-1.04868e-05
-7.65795e-06
-4.66049e-06
-1.66534e-06
0.000653995
0.000611744
0.000556038
0.000487541
0.000408565
0.000322865
0.000235233
0.000150719
7.36718e-05
6.9613e-06
-4.82869e-05
-9.24341e-05
-0.000126771
-0.000152977
-0.000172741
-0.000187578
-0.000198729
-0.000207136
-0.000213441
-0.000218058
-0.000221239
-0.000223167
-0.00022399
-0.00022386
-0.000222914
-0.00022129
-0.000219095
-0.000216433
-0.000213377
-0.000209999
-0.000206351
-0.000202491
-0.000198454
-0.000194287
-0.000190015
-0.000185675
-0.000181282
-0.000176867
-0.000172438
-0.000168021
-0.000163618
-0.000159253
-0.000154922
-0.000150648
-0.000146425
-0.000142273
-0.000138182
-0.000134172
-0.000130232
-0.00012638
-0.000122601
-0.000118917
-0.000115307
-0.000111796
-0.000108358
-0.00010502
-0.000101755
-9.85892e-05
-9.54933e-05
-9.24963e-05
-8.95646e-05
-8.67304e-05
-8.39562e-05
-8.12769e-05
-7.86519e-05
-7.61185e-05
-7.36323e-05
-7.12346e-05
-6.88756e-05
-6.66017e-05
-6.43575e-05
-6.21936e-05
-6.00505e-05
-5.79823e-05
-5.59239e-05
-5.39361e-05
-5.19457e-05
-5.00192e-05
-4.8079e-05
-4.61942e-05
-4.42828e-05
-4.24187e-05
-4.0513e-05
-3.8645e-05
-3.672e-05
-3.48213e-05
-3.28482e-05
-3.08887e-05
-2.88373e-05
-2.67832e-05
-2.46193e-05
-2.24355e-05
-2.01232e-05
-1.77743e-05
-1.52828e-05
-1.2742e-05
-1.00563e-05
-7.32095e-06
-4.45467e-06
-1.55419e-06
0.000597995
0.000559569
0.00051014
0.000450342
0.000382004
0.000307977
0.000231857
0.000157502
8.84157e-05
2.71675e-05
-2.49125e-05
-6.76973e-05
-0.000101938
-0.000128855
-0.000149791
-0.000165998
-0.000178535
-0.000188238
-0.000195713
-0.000201381
-0.000205518
-0.000208326
-0.000209966
-0.000210593
-0.000210348
-0.000209368
-0.000207768
-0.000205655
-0.000203107
-0.000200203
-0.000196997
-0.000193548
-0.000189895
-0.000186086
-0.00018215
-0.000178125
-0.000174028
-0.000169892
-0.000165727
-0.000161559
-0.000157393
-0.000153251
-0.000149135
-0.000145065
-0.000141037
-0.000137071
-0.000133159
-0.00012932
-0.000125544
-0.000121848
-0.000118222
-0.000114682
-0.000111213
-0.000107834
-0.000104528
-0.000101313
-9.81694e-05
-9.51179e-05
-9.21353e-05
-8.92443e-05
-8.64183e-05
-8.36825e-05
-8.10073e-05
-7.84193e-05
-7.58871e-05
-7.34386e-05
-7.10398e-05
-6.87211e-05
-6.64446e-05
-6.42443e-05
-6.20783e-05
-5.99833e-05
-5.79148e-05
-5.59112e-05
-5.39245e-05
-5.19973e-05
-5.00765e-05
-4.82075e-05
-4.63353e-05
-4.45056e-05
-4.26616e-05
-4.08508e-05
-3.90128e-05
-3.71973e-05
-3.53411e-05
-3.34955e-05
-3.15936e-05
-2.96889e-05
-2.7713e-05
-2.57171e-05
-2.36349e-05
-2.15158e-05
-1.92941e-05
-1.70203e-05
-1.46321e-05
-1.21807e-05
-9.61344e-06
-6.98184e-06
-4.24558e-06
-1.45815e-06
0.0005467
0.000511836
0.00046793
0.000415579
0.000356246
0.000292122
0.00022593
0.000160621
9.89755e-05
4.31974e-05
-5.36184e-06
-4.62704e-05
-7.98573e-05
-0.000106943
-0.000128547
-0.000145688
-0.000159258
-0.000169989
-0.000178435
-0.000185001
-0.000189973
-0.000193564
-0.000195943
-0.000197265
-0.000197671
-0.000197299
-0.000196265
-0.000194678
-0.000192623
-0.000190177
-0.000187402
-0.000184355
-0.000181082
-0.000177628
-0.000174027
-0.000170316
-0.000166517
-0.000162661
-0.000158763
-0.000154847
-0.000150922
-0.000147009
-0.000143112
-0.00013925
-0.000135423
-0.000131647
-0.00012792
-0.000124256
-0.00012065
-0.000117117
-0.000113648
-0.000110258
-0.000106935
-0.000103695
-0.000100524
-9.7438e-05
-9.44212e-05
-9.14889e-05
-8.86245e-05
-8.58443e-05
-8.31289e-05
-8.0496e-05
-7.79243e-05
-7.54322e-05
-7.29971e-05
-7.06379e-05
-6.83304e-05
-6.6095e-05
-6.39047e-05
-6.17822e-05
-5.9698e-05
-5.7676e-05
-5.56852e-05
-5.37504e-05
-5.18382e-05
-4.9976e-05
-4.81273e-05
-4.63204e-05
-4.45184e-05
-4.27486e-05
-4.09738e-05
-3.92215e-05
-3.74526e-05
-3.56954e-05
-3.39091e-05
-3.21226e-05
-3.02929e-05
-2.84495e-05
-2.65497e-05
-2.46194e-05
-2.26193e-05
-2.05729e-05
-1.84418e-05
-1.62515e-05
-1.3966e-05
-1.16118e-05
-9.16139e-06
-6.64182e-06
-4.03556e-06
-1.37312e-06
0.000499471
0.000467913
0.000428894
0.000382969
0.000331319
0.000275645
0.000218024
0.000160721
0.000105926
5.54781e-05
1.06421e-05
-2.79919e-05
-6.04537e-05
-8.72325e-05
-0.000109062
-0.000126743
-0.000141015
-0.000152506
-0.000161713
-0.000169015
-0.000174691
-0.000178958
-0.000181987
-0.000183933
-0.000184934
-0.000185124
-0.000184621
-0.000183531
-0.000181944
-0.000179939
-0.000177579
-0.000174925
-0.000172021
-0.000168917
-0.000165647
-0.000162248
-0.000158747
-0.000155172
-0.000151542
-0.000147881
-0.0001442
-0.00014052
-0.000136847
-0.000133198
-0.000129576
-0.000125996
-0.000122458
-0.000118975
-0.000115545
-0.000112179
-0.000108873
-0.000105638
-0.000102467
-9.93708e-05
-9.63413e-05
-9.3389e-05
-9.05038e-05
-8.76963e-05
-8.49549e-05
-8.22908e-05
-7.96905e-05
-7.71659e-05
-7.47019e-05
-7.23108e-05
-6.99768e-05
-6.7712e-05
-6.54996e-05
-6.33524e-05
-6.12518e-05
-5.9212e-05
-5.72127e-05
-5.52686e-05
-5.33585e-05
-5.14972e-05
-4.96624e-05
-4.78701e-05
-4.60961e-05
-4.43561e-05
-4.26266e-05
-4.09218e-05
-3.92183e-05
-3.75297e-05
-3.58318e-05
-3.41384e-05
-3.24237e-05
-3.07022e-05
-2.89463e-05
-2.71706e-05
-2.53483e-05
-2.34904e-05
-2.15736e-05
-1.96069e-05
-1.75677e-05
-1.54678e-05
-1.32856e-05
-1.10351e-05
-8.70186e-06
-6.30057e-06
-3.82514e-06
-1.29478e-06
0.000455768
0.000427268
0.000392591
0.000352247
0.000307199
0.000258775
0.000208574
0.000158339
0.00010979
6.44328e-05
2.33944e-05
-1.26814e-05
-4.36325e-05
-6.9695e-05
-9.13587e-05
-0.000109225
-0.00012389
-0.000135883
-0.000145641
-0.000153509
-0.000159751
-0.000164579
-0.000168163
-0.000170653
-0.000172184
-0.000172884
-0.000172868
-0.000172242
-0.000171095
-0.000169508
-0.000167545
-0.000165267
-0.000162723
-0.00015996
-0.000157015
-0.000153925
-0.000150718
-0.000147425
-0.000144064
-0.000140659
-0.000137225
-0.00013378
-0.000130333
-0.000126901
-0.000123489
-0.00012011
-0.000116766
-0.00011347
-0.00011022
-0.000107027
-0.000103889
-0.000100815
-9.78007e-05
-9.48547e-05
-9.19716e-05
-8.91591e-05
-8.64107e-05
-8.37336e-05
-8.11201e-05
-7.85777e-05
-7.60973e-05
-7.36862e-05
-7.13346e-05
-6.90497e-05
-6.68212e-05
-6.46558e-05
-6.25425e-05
-6.04886e-05
-5.84815e-05
-5.65293e-05
-5.46186e-05
-5.27572e-05
-5.09311e-05
-4.91483e-05
-4.73939e-05
-4.56763e-05
-4.39798e-05
-4.23118e-05
-4.06573e-05
-3.90227e-05
-3.73929e-05
-3.57734e-05
-3.41488e-05
-3.25246e-05
-3.08838e-05
-2.92329e-05
-2.75532e-05
-2.58508e-05
-2.41084e-05
-2.23288e-05
-2.04978e-05
-1.86169e-05
-1.66721e-05
-1.46683e-05
-1.25916e-05
-1.045e-05
-8.23547e-06
-5.95716e-06
-3.61398e-06
-1.21986e-06
0.000415134
0.000389452
0.000358644
0.000323175
0.000283835
0.000241667
0.00019791
0.000153912
0.000111021
7.04574e-05
3.31912e-05
-1.46766e-07
-2.92872e-05
-5.42869e-05
-7.54393e-05
-9.31712e-05
-0.000107945
-0.000120195
-0.000130297
-0.000138559
-0.000145224
-0.000150493
-0.000154529
-0.000157477
-0.000159465
-0.000160616
-0.000161039
-0.000160837
-0.000160098
-0.000158902
-0.000157314
-0.000155396
-0.000153197
-0.000150764
-0.000148135
-0.000145349
-0.000142433
-0.000139418
-0.000136325
-0.000133178
-0.000129991
-0.000126784
-0.000123567
-0.000120356
-0.000117157
-0.000113983
-0.000110839
-0.000107733
-0.000104669
-0.000101655
-9.869e-05
-9.57825e-05
-9.29304e-05
-9.01401e-05
-8.74088e-05
-8.47418e-05
-8.21354e-05
-7.95944e-05
-7.7114e-05
-7.46989e-05
-7.23432e-05
-7.00513e-05
-6.78168e-05
-6.56436e-05
-6.35248e-05
-6.14642e-05
-5.94543e-05
-5.74987e-05
-5.55893e-05
-5.37298e-05
-5.19114e-05
-5.01376e-05
-4.83992e-05
-4.66998e-05
-4.50293e-05
-4.33912e-05
-4.17754e-05
-4.01843e-05
-3.86081e-05
-3.70486e-05
-3.54955e-05
-3.395e-05
-3.24018e-05
-3.08518e-05
-2.9288e-05
-2.77128e-05
-2.61124e-05
-2.44886e-05
-2.28294e-05
-2.11335e-05
-1.93916e-05
-1.76018e-05
-1.57544e-05
-1.38518e-05
-1.18836e-05
-9.85534e-06
-7.76216e-06
-5.61055e-06
-3.40146e-06
-1.14619e-06
0.000377186
0.000354099
0.000326749
0.000295562
0.000261184
0.00022444
0.000186296
0.0001478
0.000110012
7.39135e-05
4.03185e-05
9.80714e-06
-1.73056e-05
-4.09604e-05
-6.13026e-05
-7.86133e-05
-9.32336e-05
-0.00010551
-0.000115754
-0.000124237
-0.000131177
-0.000136761
-0.000141141
-0.000144454
-0.000146821
-0.000148357
-0.000149164
-0.000149341
-0.000148972
-0.000148136
-0.000146898
-0.000145319
-0.000143448
-0.000141332
-0.00013901
-0.000136519
-0.00013389
-0.00013115
-0.000128324
-0.000125433
-0.000122495
-0.000119527
-0.000116543
-0.000113555
-0.000110574
-0.000107609
-0.000104668
-0.000101759
-9.88851e-05
-9.60545e-05
-9.32686e-05
-9.05333e-05
-8.78489e-05
-8.522e-05
-8.26459e-05
-8.01303e-05
-7.76714e-05
-7.52723e-05
-7.29304e-05
-7.06483e-05
-6.84225e-05
-6.62553e-05
-6.41427e-05
-6.20867e-05
-6.00825e-05
-5.81321e-05
-5.62301e-05
-5.43781e-05
-5.25706e-05
-5.08088e-05
-4.90868e-05
-4.74058e-05
-4.5759e-05
-4.41477e-05
-4.2565e-05
-4.10113e-05
-3.94799e-05
-3.79705e-05
-3.64761e-05
-3.49964e-05
-3.35237e-05
-3.20569e-05
-3.05887e-05
-2.91177e-05
-2.76346e-05
-2.61399e-05
-2.46225e-05
-2.30823e-05
-2.15101e-05
-1.99029e-05
-1.82539e-05
-1.65602e-05
-1.48142e-05
-1.30173e-05
-1.11612e-05
-9.25036e-06
-7.28151e-06
-5.25985e-06
-3.18694e-06
-1.07243e-06
0.000341582
0.000320905
0.000296671
0.000269269
0.000239234
0.000207219
0.000173981
0.000140343
0.000107142
7.51614e-05
4.50762e-05
1.73972e-05
-7.55493e-06
-2.96534e-05
-4.89393e-05
-6.55787e-05
-7.98091e-05
-9.18942e-05
-0.000102089
-0.000110621
-0.000117687
-0.000123455
-0.000128065
-0.000131644
-0.000134304
-0.000136151
-0.000137281
-0.000137784
-0.000137743
-0.000137231
-0.000136313
-0.000135048
-0.000133484
-0.00013167
-0.000129642
-0.000127437
-0.000125086
-0.000122618
-0.000120054
-0.000117419
-0.000114729
-0.000112002
-0.000109252
-0.000106491
-0.00010373
-0.000100979
-9.82457e-05
-9.55376e-05
-9.28596e-05
-9.02183e-05
-8.76166e-05
-8.50593e-05
-8.25481e-05
-8.00867e-05
-7.76754e-05
-7.53172e-05
-7.30113e-05
-7.07602e-05
-6.85621e-05
-6.64189e-05
-6.43284e-05
-6.22918e-05
-6.03064e-05
-5.83731e-05
-5.64886e-05
-5.46537e-05
-5.28645e-05
-5.11214e-05
-4.94205e-05
-4.77616e-05
-4.61405e-05
-4.45571e-05
-4.30063e-05
-4.14881e-05
-3.99972e-05
-3.85328e-05
-3.70898e-05
-3.56669e-05
-3.42583e-05
-3.28631e-05
-3.14748e-05
-3.00914e-05
-2.87072e-05
-2.73198e-05
-2.59217e-05
-2.45121e-05
-2.3082e-05
-2.16302e-05
-2.01491e-05
-1.86356e-05
-1.70837e-05
-1.54908e-05
-1.38505e-05
-1.21636e-05
-1.04235e-05
-8.63409e-06
-6.79288e-06
-4.90427e-06
-2.97002e-06
-9.98005e-07
0.000301601
0.000283638
0.000262798
0.000239431
0.000213969
0.000186912
0.000158824
0.000130318
0.000102021
7.45296e-05
4.83738e-05
2.39808e-05
1.65376e-06
-1.84391e-05
-3.6256e-05
-5.18604e-05
-6.53898e-05
-7.70224e-05
-8.69485e-05
-9.53515e-05
-0.000102397
-0.000108229
-0.000112976
-0.000116749
-0.00011965
-0.000121774
-0.000123206
-0.000124029
-0.000124318
-0.000124142
-0.000123562
-0.000122635
-0.000121409
-0.000119928
-0.00011823
-0.000116351
-0.000114319
-0.000112164
-0.000109908
-0.000107572
-0.000105175
-0.000102735
-0.000100263
-9.77747e-05
-9.52789e-05
-9.27862e-05
-9.03041e-05
-8.78406e-05
-8.54007e-05
-8.29907e-05
-8.06141e-05
-7.82752e-05
-7.59766e-05
-7.37212e-05
-7.15104e-05
-6.93464e-05
-6.72295e-05
-6.51613e-05
-6.31411e-05
-6.11701e-05
-5.92472e-05
-5.73726e-05
-5.5545e-05
-5.37644e-05
-5.20285e-05
-5.03374e-05
-4.86885e-05
-4.70811e-05
-4.55128e-05
-4.39824e-05
-4.24871e-05
-4.10257e-05
-3.95945e-05
-3.81928e-05
-3.68166e-05
-3.54639e-05
-3.41314e-05
-3.28168e-05
-3.15155e-05
-3.02262e-05
-2.89435e-05
-2.76647e-05
-2.63858e-05
-2.51033e-05
-2.38114e-05
-2.25086e-05
-2.11877e-05
-1.98466e-05
-1.84794e-05
-1.70828e-05
-1.56521e-05
-1.41843e-05
-1.2675e-05
-1.11242e-05
-9.52703e-06
-7.88649e-06
-6.20126e-06
-4.47465e-06
-2.70868e-06
-9.09036e-07
0.000257351
0.000242376
0.000225152
0.000205971
0.000185175
0.00016314
0.00014027
0.000116997
9.37627e-05
7.09962e-05
4.9094e-05
2.83962e-05
9.16874e-06
-8.40799e-06
-2.42416e-05
-3.83213e-05
-5.07018e-05
-6.14842e-05
-7.07947e-05
-7.87675e-05
-8.55324e-05
-9.12091e-05
-9.59047e-05
-9.97156e-05
-0.000102729
-0.000105025
-0.000106679
-0.000107762
-0.00010834
-0.000108475
-0.000108222
-0.000107632
-0.000106753
-0.000105623
-0.00010428
-0.000102756
-0.00010108
-9.92779e-05
-9.73718e-05
-9.53824e-05
-9.33274e-05
-9.12228e-05
-8.90821e-05
-8.69177e-05
-8.47401e-05
-8.25588e-05
-8.03815e-05
-7.82156e-05
-7.60666e-05
-7.39403e-05
-7.18404e-05
-6.97711e-05
-6.77352e-05
-6.57353e-05
-6.37734e-05
-6.18513e-05
-5.99696e-05
-5.81299e-05
-5.63321e-05
-5.45769e-05
-5.28636e-05
-5.11927e-05
-4.9563e-05
-4.79745e-05
-4.64255e-05
-4.49158e-05
-4.34434e-05
-4.20076e-05
-4.06064e-05
-3.92386e-05
-3.79019e-05
-3.65952e-05
-3.53153e-05
-3.40613e-05
-3.283e-05
-3.16195e-05
-3.04268e-05
-2.92499e-05
-2.80849e-05
-2.69303e-05
-2.57815e-05
-2.46361e-05
-2.34907e-05
-2.23418e-05
-2.11849e-05
-2.00181e-05
-1.88355e-05
-1.76351e-05
-1.64121e-05
-1.51634e-05
-1.38854e-05
-1.25755e-05
-1.12302e-05
-9.8493e-06
-8.42977e-06
-6.97358e-06
-5.48013e-06
-3.95225e-06
-2.39159e-06
-8.0223e-07
0.000213178
0.000201084
0.000187274
0.000171976
0.000155452
0.000137979
0.000119846
0.00010135
8.27932e-05
6.44775e-05
4.6691e-05
2.96947e-05
1.37083e-05
-1.10109e-06
-1.46246e-05
-2.68124e-05
-3.76673e-05
-4.72342e-05
-5.5587e-05
-6.28157e-05
-6.90149e-05
-7.42772e-05
-7.86888e-05
-8.23284e-05
-8.52679e-05
-8.75741e-05
-8.93089e-05
-9.05313e-05
-9.12968e-05
-9.16578e-05
-9.16629e-05
-9.13568e-05
-9.07802e-05
-8.99699e-05
-8.89586e-05
-8.77758e-05
-8.64474e-05
-8.49972e-05
-8.34456e-05
-8.18114e-05
-8.01109e-05
-7.83588e-05
-7.65678e-05
-7.47494e-05
-7.29135e-05
-7.10687e-05
-6.92225e-05
-6.73818e-05
-6.55519e-05
-6.37379e-05
-6.19439e-05
-6.01735e-05
-5.84295e-05
-5.67146e-05
-5.50306e-05
-5.33792e-05
-5.17614e-05
-5.01786e-05
-4.86307e-05
-4.71187e-05
-4.56421e-05
-4.42012e-05
-4.27953e-05
-4.14243e-05
-4.0087e-05
-3.8783e-05
-3.75109e-05
-3.62701e-05
-3.50588e-05
-3.3876e-05
-3.27199e-05
-3.15893e-05
-3.04819e-05
-2.93964e-05
-2.83305e-05
-2.72823e-05
-2.62493e-05