/*--------------------------------*- C++ -*----------------------------------*\
| =========                 |                                                 |
| \\      /  F ield         | OpenFOAM: The Open Source CFD Toolbox           |
|  \\    /   O peration     | Version:  2.3.0                                 |
|   \\  /    A nd           | Web:      www.OpenFOAM.org                      |
|    \\/     M anipulation  |                                                 |
\*---------------------------------------------------------------------------*/
FoamFile
{
    version     2.0;
    format      ascii;
    class       volScalarField;
    location    "0.15";
    object      p;
}
// * * * * * * * * * * * * * * * * * * * * * * * * * * * * * * * * * * * * * //

dimensions      [0 2 -2 0 0 0 0];

internalField   nonuniform List<scalar> 
1500
(
0.00223785
0.00191842
0.00132258
0.000771788
0.000320292
-5.96691e-05
-0.000378504
-0.000617903
-0.000757061
-0.000800744
-0.000776224
-0.000715874
-0.000644864
-0.000578024
-0.000521841
-0.000477641
-0.000444001
-0.000418221
-0.000397487
-0.000379758
-0.000363973
-0.000349496
-0.000335754
-0.000322495
-0.000309716
-0.000297271
-0.000285094
-0.000273308
-0.000261843
-0.000250468
-0.000239145
-0.000227839
-0.000216292
-0.000204321
-0.000191914
-0.000178976
-0.000165355
-0.000150852
-0.000135841
-0.000120537
-0.000104982
-8.96756e-05
-7.50485e-05
-6.15083e-05
-4.93601e-05
-3.87854e-05
-2.98212e-05
-2.2384e-05
-1.6322e-05
-1.14579e-05
-7.61645e-06
-4.63144e-06
-2.34913e-06
-6.34265e-07
6.28213e-07
1.53425e-06
2.16076e-06
2.56586e-06
2.79178e-06
2.87036e-06
2.82827e-06
2.69033e-06
2.47868e-06
2.22154e-06
1.94454e-06
1.65918e-06
1.38925e-06
1.14021e-06
9.18754e-07
7.27669e-07
5.67398e-07
4.36135e-07
3.30371e-07
2.468e-07
1.81882e-07
1.32175e-07
9.46197e-08
6.66245e-08
4.60215e-08
3.1047e-08
2.03092e-08
1.27151e-08
7.4506e-09
3.89567e-09
1.58548e-09
1.30323e-10
-6.54706e-10
-1.17971e-09
-1.17287e-09
-1.40341e-09
-1.0237e-09
-1.13802e-09
-9.45839e-10
-5.65848e-10
-8.41594e-10
-3.34908e-10
-2.43771e-10
-4.93722e-10
-6.30138e-10
1.51929e-11
0.0017786
0.0016178
0.00120631
0.000736344
0.000314202
-4.32699e-05
-0.000338543
-0.000559044
-0.000692417
-0.000741909
-0.000727979
-0.000678362
-0.000616628
-0.000557091
-0.000506351
-0.00046596
-0.000434867
-0.000410768
-0.000391165
-0.000374234
-0.000359067
-0.000345134
-0.00033188
-0.000319061
-0.000306696
-0.000294641
-0.000282803
-0.00027134
-0.000260188
-0.000249086
-0.000238007
-0.00022694
-0.000215613
-0.000203836
-0.000191618
-0.000178849
-0.000165319
-0.000151106
-0.00013606
-0.000120927
-0.000105397
-9.00853e-05
-7.54204e-05
-6.183e-05
-4.96278e-05
-3.90038e-05
-2.99985e-05
-2.25282e-05
-1.64398e-05
-1.15542e-05
-7.69463e-06
-4.69419e-06
-2.39888e-06
-6.7327e-07
5.98002e-07
1.51137e-06
2.14416e-06
2.55466e-06
2.78518e-06
2.86743e-06
2.82797e-06
2.69178e-06
2.48439e-06
2.22345e-06
1.94804e-06
1.66138e-06
1.39132e-06
1.14151e-06
9.19518e-07
7.28067e-07
5.6759e-07
4.36245e-07
3.30394e-07
2.46789e-07
1.81868e-07
1.32167e-07
9.46197e-08
6.6633e-08
4.60365e-08
3.10646e-08
2.03277e-08
1.27326e-08
7.4673e-09
3.91243e-09
1.60236e-09
1.42363e-10
-6.39013e-10
-1.17723e-09
-1.15427e-09
-1.40689e-09
-1.00962e-09
-1.13189e-09
-9.63123e-10
-5.24712e-10
-8.65659e-10
-3.20519e-10
-2.14249e-10
-4.79182e-10
-6.23685e-10
-5.44422e-11
0.0014487
0.00135846
0.00108756
0.000711272
0.000333609
4.7687e-06
-0.000262441
-0.000462504
-0.000591692
-0.000652842
-0.000658314
-0.00062758
-0.000580756
-0.000532134
-0.000488441
-0.000452079
-0.00042315
-0.000400221
-0.000381286
-0.000364833
-0.000350147
-0.00033674
-0.000324041
-0.000311817
-0.000300079
-0.000288638
-0.000277395
-0.000266517
-0.000255914
-0.000245302
-0.000234685
-0.000224064
-0.000213142
-0.000201729
-0.000189858
-0.000177425
-0.000164197
-0.000150193
-0.000135681
-0.000120498
-0.000105103
-8.99723e-05
-7.54304e-05
-6.19259e-05
-4.97799e-05
-3.91905e-05
-3.02015e-05
-2.2732e-05
-1.66327e-05
-1.17306e-05
-7.85206e-06
-4.8317e-06
-2.51653e-06
-7.71986e-07
5.17117e-07
1.44737e-06
2.09595e-06
2.52054e-06
2.76272e-06
2.85391e-06
2.82071e-06
2.68838e-06
2.48238e-06
2.2299e-06
1.94649e-06
1.65709e-06
1.38902e-06
1.13941e-06
9.17551e-07
7.26225e-07
5.6598e-07
4.34977e-07
3.29321e-07
2.45951e-07
1.81247e-07
1.31722e-07
9.43134e-08
6.64323e-08
4.59137e-08
3.09955e-08
2.02962e-08
1.27259e-08
7.47681e-09
3.93358e-09
1.62857e-09
1.66625e-10
-6.10652e-10
-1.16497e-09
-1.12072e-09
-1.40866e-09
-9.80823e-10
-1.12444e-09
-9.78073e-10
-4.75666e-10
-8.92754e-10
-3.14928e-10
-1.41376e-10
-4.79739e-10
-4.28133e-10
7.98417e-11
0.00121263
0.00114578
0.000960755
0.000672799
0.000352949
6.01953e-05
-0.000180703
-0.000363037
-0.000486211
-0.000553811
-0.000574592
-0.000561937
-0.000530791
-0.000493573
-0.000457732
-0.00042662
-0.000401098
-0.000380458
-0.000363213
-0.000348117
-0.000334567
-0.000322137
-0.000310361
-0.000299042
-0.000288122
-0.000277408
-0.000266891
-0.000256746
-0.000246828
-0.000236852
-0.000226837
-0.000216781
-0.000206399
-0.000195521
-0.000184192
-0.000172314
-0.000159667
-0.000146236
-0.000132249
-0.000117737
-0.000103058
-8.84194e-05
-7.43841e-05
-6.12968e-05
-4.94784e-05
-3.91357e-05
-3.03192e-05
-2.29601e-05
-1.69244e-05
-1.20524e-05
-8.17972e-06
-5.14873e-06
-2.81423e-06
-1.047e-06
2.66752e-07
1.22393e-06
1.90132e-06
2.35544e-06
2.62659e-06
2.74535e-06
2.73695e-06
2.62549e-06
2.4364e-06
2.196e-06
1.92441e-06
1.65043e-06
1.37737e-06
1.1302e-06
9.10642e-07
7.21134e-07
5.62365e-07
4.32523e-07
3.27507e-07
2.44766e-07
1.80538e-07
1.3134e-07
9.41551e-08
6.64213e-08
4.59941e-08
3.11263e-08
2.0451e-08
1.2888e-08
7.63499e-09
4.08352e-09
1.76249e-09
2.81455e-10
-5.11423e-10
-1.09111e-09
-1.0451e-09
-1.36785e-09
-9.32996e-10
-1.0884e-09
-9.75363e-10
-4.32084e-10
-8.80058e-10
-3.46486e-10
-2.47423e-11
-5.05048e-10
-1.48024e-10
4.20555e-10
0.00101921
0.000962406
0.000827465
0.00061172
0.000354626
0.000104622
-0.000108805
-0.000274516
-0.000390645
-0.000460606
-0.000491417
-0.000492514
-0.000474581
-0.000447652
-0.000419248
-0.00039346
-0.00037157
-0.000353385
-0.000338093
-0.000324723
-0.000312513
-0.000301082
-0.000290293
-0.000279994
-0.000269934
-0.000259981
-0.000250264
-0.000240892
-0.000231699
-0.000222495
-0.000213252
-0.000203888
-0.00019421
-0.000184105
-0.000173534
-0.000162414
-0.000150644
-0.000138221
-0.000125229
-0.000111738
-9.80914e-05
-8.45664e-05
-7.15223e-05
-5.92928e-05
-4.81957e-05
-3.8425e-05
-3.00266e-05
-2.2957e-05
-1.71161e-05
-1.23721e-05
-8.57358e-06
-5.5725e-06
-3.23998e-06
-1.46036e-06
-1.25698e-07
8.58756e-07
1.56759e-06
2.05551e-06
2.36178e-06
2.5161e-06
2.54279e-06
2.465e-06
2.30733e-06
2.09432e-06
1.84682e-06
1.58928e-06
1.33447e-06
1.09937e-06
8.88588e-07
7.0556e-07
5.52358e-07
4.26322e-07
3.23239e-07
2.42197e-07
1.79141e-07
1.30703e-07
9.39999e-08
6.65565e-08
4.62908e-08
3.14999e-08
2.08488e-08
1.32785e-08
8.00068e-09
4.4134e-09
2.05232e-09
5.24779e-10
-3.07357e-10
-9.24277e-10
-9.14652e-10
-1.24797e-09
-8.73783e-10
-9.9465e-10
-9.48069e-10
-4.01515e-10
-8.06831e-10
-3.96983e-10
6.9085e-11
-4.61362e-10
3.31496e-11
6.62422e-10
0.000849692
0.000799882
0.000696918
0.000535763
0.000336994
0.000132984
-5.04082e-05
-0.000198876
-0.000307013
-0.000376219
-0.000412382
-0.000423003
-0.000415673
-0.000397823
-0.000376235
-0.000355591
-0.000337522
-0.000321825
-0.000308311
-0.000296719
-0.000286075
-0.0002757
-0.000265835
-0.000256494
-0.000247223
-0.000238051
-0.000229263
-0.000220694
-0.000212147
-0.000203716
-0.00019531
-0.000186653
-0.000177714
-0.000168504
-0.000158837
-0.000148641
-0.000137988
-0.000126802
-0.000114994
-0.000102778
-9.0551e-05
-7.84787e-05
-6.67485e-05
-5.56874e-05
-4.56205e-05
-3.67097e-05
-2.89756e-05
-2.23887e-05
-1.68949e-05
-1.23981e-05
-8.76869e-06
-5.87275e-06
-3.60135e-06
-1.8546e-06
-5.32989e-07
4.52853e-07
1.17288e-06
1.67888e-06
2.00911e-06
2.19263e-06
2.25329e-06
2.21306e-06
2.09362e-06
1.91705e-06
1.70457e-06
1.47822e-06
1.25238e-06
1.03891e-06
8.43413e-07
6.71801e-07
5.28984e-07
4.11707e-07
3.13272e-07
2.35857e-07
1.75287e-07
1.28537e-07
9.29424e-08
6.62005e-08
4.63587e-08
3.1807e-08
2.12765e-08
1.37508e-08
8.47537e-09
4.85686e-09
2.4552e-09
8.69858e-10
-1.59698e-11
-6.69726e-10
-7.38442e-10
-1.04301e-09
-8.06938e-10
-8.38571e-10
-8.95881e-10
-3.75206e-10
-6.84245e-10
-4.21522e-10
1.00694e-10
-3.29152e-10
1.87238e-11
5.46371e-10
0.00069782
0.00065484
0.0005753
0.000454919
0.00030465
0.000144774
-6.4581e-06
-0.000135504
-0.000233704
-0.000299627
-0.000337973
-0.000354692
-0.00035512
-0.000344873
-0.00032961
-0.000313774
-0.000299367
-0.000286327
-0.000274713
-0.000264838
-0.000255765
-0.000246614
-0.000237897
-0.000229684
-0.000221228
-0.000212791
-0.000204985
-0.000197373
-0.000189605
-0.000182045
-0.0001746
-0.000166757
-0.000158559
-0.000150229
-0.000141579
-0.000132497
-0.000123094
-0.000113235
-0.000102773
-9.20104e-05
-8.13433e-05
-7.08343e-05
-6.05538e-05
-5.08116e-05
-4.19296e-05
-3.40259e-05
-2.71033e-05
-2.11512e-05
-1.6146e-05
-1.20168e-05
-8.64805e-06
-5.92664e-06
-3.77961e-06
-2.12117e-06
-8.55203e-07
9.92022e-08
8.04015e-07
1.30603e-06
1.64174e-06
1.84013e-06
1.92438e-06
1.91431e-06
1.82908e-06
1.68906e-06
1.51439e-06
1.32406e-06
1.13158e-06
9.47347e-07
7.76884e-07
6.22764e-07
4.92248e-07
3.81533e-07
2.9511e-07
2.23892e-07
1.67402e-07
1.23521e-07
8.99017e-08
6.44862e-08
4.55132e-08
3.15128e-08
2.13211e-08
1.39892e-08
8.81763e-09
5.23397e-09
2.83341e-09
1.21931e-09
2.87851e-10
-3.81276e-10
-5.46905e-10
-7.98676e-10
-7.23945e-10
-6.6558e-10
-8.07036e-10
-3.54158e-10
-5.43951e-10
-4.14793e-10
6.59479e-11
-2.28143e-10
-1.32132e-10
2.58979e-10
0.00056082
0.000525274
0.000464055
0.000373973
0.000262399
0.000141721
2.25376e-05
-8.50756e-05
-0.000170871
-0.000230669
-0.000268249
-0.000288488
-0.000294254
-0.000289538
-0.000279684
-0.000268548
-0.000257497
-0.000246831
-0.000237338
-0.000229402
-0.000221838
-0.000213942
-0.000206553
-0.000199637
-0.000192248
-0.000184793
-0.00017799
-0.000171294
-0.000164399
-0.000157837
-0.000151473
-0.000144673
-0.000137486
-0.000130153
-0.000122519
-0.000114609
-0.000106579
-9.8152e-05
-8.91113e-05
-7.98748e-05
-7.08686e-05
-6.20127e-05
-5.32436e-05
-4.48856e-05
-3.72835e-05
-3.0503e-05
-2.44966e-05
-1.92695e-05
-1.48495e-05
-1.11897e-05
-8.17499e-06
-5.71479e-06
-3.75743e-06
-2.23551e-06
-1.06457e-06
-1.73655e-07
4.90324e-07
9.67947e-07
1.29227e-06
1.49151e-06
1.58867e-06
1.60125e-06
1.54549e-06
1.43885e-06
1.29858e-06
1.14265e-06
9.82515e-07
8.26002e-07
6.83152e-07
5.55422e-07
4.4721e-07
3.49364e-07
2.69813e-07
2.06105e-07
1.55264e-07
1.15393e-07
8.46189e-08
6.11904e-08
4.35794e-08
3.04891e-08
2.0893e-08
1.39364e-08
8.99056e-09
5.52661e-09
3.17465e-09
1.57165e-09
6.0524e-10
-6.15243e-11
-3.23492e-10
-5.34155e-10
-5.92982e-10
-4.96482e-10
-6.59311e-10
-3.26662e-10
-3.95856e-10
-3.79158e-10
3.91581e-12
-1.91936e-10
-2.70054e-10
3.08459e-11
0.000442518
0.000414546
0.000367578
0.000299247
0.000216225
0.000126761
3.59018e-05
-5.03085e-05
-0.000122101
-0.000173426
-0.000207229
-0.000228337
-0.00023739
-0.000235861
-0.000229512
-0.000222614
-0.000214741
-0.000205813
-0.00019824
-0.000192409
-0.000186217
-0.000179556
-0.000173735
-0.000168066
-0.000161648
-0.000155436
-0.000149852
-0.000144061
-0.000138153
-0.000132702
-0.000127246
-0.000121376
-0.000115439
-0.000109359
-0.000102792
-9.6108e-05
-8.95745e-05
-8.25897e-05
-7.48686e-05
-6.70979e-05
-5.97597e-05
-5.25483e-05
-4.52652e-05
-3.82884e-05
-3.1993e-05
-2.6376e-05
-2.13278e-05
-1.68835e-05
-1.31144e-05
-9.9759e-06
-7.37321e-06
-5.24016e-06
-3.52343e-06
-2.17917e-06
-1.13803e-06
-3.43523e-07
2.53031e-07
6.8612e-07
9.84443e-07
1.17219e-06
1.27109e-06
1.29841e-06
1.26731e-06
1.19147e-06
1.08519e-06
9.63885e-07
8.34868e-07
7.01288e-07
5.76867e-07
4.64375e-07
3.80171e-07
3.03324e-07
2.35703e-07
1.80839e-07
1.3702e-07
1.02396e-07
7.54711e-08
5.48531e-08
3.92782e-08
2.76397e-08
1.90679e-08
1.2825e-08
8.36464e-09
5.22527e-09
3.07334e-09
1.60293e-09
6.89645e-10
8.61041e-11
-2.08881e-10
-3.75417e-10
-4.94848e-10
-3.95302e-10
-5.28741e-10
-3.13866e-10
-2.89804e-10
-3.44586e-10
-6.93559e-11
-1.81105e-10
-3.21695e-10
-7.84854e-11
0.000328352
0.000308361
0.000274642
0.000224655
0.000165298
0.00010293
3.853e-05
-2.56373e-05
-8.15198e-05
-0.000122303
-0.00014974
-0.000168963
-0.000179608
-0.000180146
-0.000175941
-0.000172494
-0.000167784
-0.000160469
-0.000154684
-0.000151121
-0.000146268
-0.000140706
-0.000136723
-0.000132639
-0.000127239
-0.000122338
-0.000118135
-0.000113323
-0.000108569
-0.000104602
-0.000100309
-9.53666e-05
-9.06642e-05
-8.59519e-05
-8.05962e-05
-7.52655e-05
-7.04154e-05
-6.5134e-05
-5.89608e-05
-5.2788e-05
-4.72024e-05
-4.17231e-05
-3.60277e-05
-3.05416e-05
-2.56621e-05
-2.13104e-05
-1.73334e-05
-1.37998e-05
-1.08048e-05
-8.30707e-06
-6.21617e-06
-4.4732e-06
-3.05361e-06
-1.94979e-06
-1.08611e-06
-4.28613e-07
6.92137e-08
4.33476e-07
6.87201e-07
8.51339e-07
9.41641e-07
9.72344e-07
9.56823e-07
9.05651e-07
8.33106e-07
7.54799e-07
6.67907e-07
5.75582e-07
4.84679e-07
3.96507e-07
3.16945e-07
2.53531e-07
1.98996e-07
1.53879e-07
1.17716e-07
8.89575e-08
6.63459e-08
4.8837e-08
3.54764e-08
2.53821e-08
1.78622e-08
1.23208e-08
8.30249e-09
5.43356e-09
3.41877e-09
2.02141e-09
1.10489e-09
5.02462e-10
1.40619e-10
-5.09242e-11
-2.26504e-10
-1.91136e-10
-2.92832e-10
-2.13341e-10
-1.4911e-10
-2.44575e-10
-8.19727e-11
-1.24304e-10
-2.56709e-10
-9.32154e-11
0.000205252
0.000193481
0.00017351
0.000142253
0.000105604
6.88138e-05
3.07102e-05
-9.27271e-06
-4.5777e-05
-7.281e-05
-9.09049e-05
-0.000104809
-0.000114335
-0.000115931
-0.000113112
-0.000111964
-0.000110231
-0.000105065
-0.000100985
-9.95937e-05
-9.66347e-05
-9.24295e-05
-9.00981e-05
-8.78722e-05
-8.40527e-05
-8.07826e-05
-7.83078e-05
-7.48686e-05
-7.13781e-05
-6.90263e-05
-6.64315e-05
-6.29867e-05
-5.98344e-05
-5.6825e-05
-5.30887e-05
-4.93124e-05
-4.62252e-05
-4.29644e-05
-3.888e-05
-3.47611e-05
-3.12276e-05
-2.77962e-05
-2.40712e-05
-2.04218e-05
-1.72263e-05
-1.43993e-05
-1.17841e-05
-9.42752e-06
-7.42067e-06
-5.75216e-06
-4.34902e-06
-3.16391e-06
-2.19056e-06
-1.42399e-06
-8.33903e-07
-3.78846e-07
-2.94154e-08
2.31437e-07
4.14421e-07
5.36795e-07
6.09822e-07
6.3691e-07
6.25217e-07
5.80591e-07
5.20395e-07
4.65279e-07
3.94961e-07
3.56635e-07
2.98849e-07
2.5042e-07
2.0165e-07
1.60876e-07
1.26292e-07
9.71486e-08
7.36984e-08
5.51774e-08
4.06811e-08
2.95111e-08
2.10612e-08
1.47405e-08
1.00888e-08
6.71299e-09
4.30314e-09
2.62245e-09
1.46718e-09
6.96779e-10
2.13052e-10
-7.49103e-11
-2.38911e-10
-2.91295e-10
-3.57923e-10
-2.92946e-10
-3.03301e-10
-2.5663e-10
-1.71108e-10
-2.28844e-10
-1.3969e-10
-1.21879e-10
-2.10034e-10
-1.03653e-10
7.04597e-05
6.66121e-05
6.0152e-05
4.94143e-05
3.67796e-05
2.45914e-05
1.21115e-05
-1.47336e-06
-1.44144e-05
-2.41435e-05
-3.04942e-05
-3.5625e-05
-3.97588e-05
-4.07443e-05
-3.95307e-05
-3.93068e-05
-3.9268e-05
-3.73988e-05
-3.56505e-05
-3.53757e-05
-3.45551e-05
-3.29355e-05
-3.21275e-05
-3.1446e-05
-2.99319e-05
-2.87089e-05
-2.80393e-05
-2.68542e-05
-2.54609e-05
-2.46145e-05
-2.37289e-05
-2.24198e-05
-2.12617e-05
-2.02708e-05
-1.89696e-05
-1.75998e-05
-1.65331e-05
-1.53847e-05
-1.38386e-05
-1.22897e-05
-1.10435e-05
-9.86718e-06
-8.57913e-06
-7.32931e-06
-6.24454e-06
-5.26941e-06
-4.33582e-06
-3.46701e-06
-2.72987e-06
-2.13157e-06
-1.6225e-06
-1.18729e-06
-8.26711e-07
-5.41688e-07
-3.31091e-07
-1.68345e-07
-4.63903e-08
4.74391e-08
1.16908e-07
1.63598e-07
1.99253e-07
2.29168e-07
2.43469e-07
2.41398e-07
2.38908e-07
2.19711e-07
2.03509e-07
1.71623e-07
1.50148e-07
1.3045e-07
1.09474e-07
9.09485e-08
7.48661e-08
6.06848e-08
4.86137e-08
3.85777e-08
3.03103e-08
2.35812e-08
1.81832e-08
1.38953e-08
1.05287e-08
7.91163e-09
5.89442e-09
4.35921e-09
3.19549e-09
2.32545e-09
1.68229e-09
1.21184e-09
8.65058e-10
6.22122e-10
4.31844e-10
3.18718e-10
2.22175e-10
1.51807e-10
1.26108e-10
6.66546e-11
5.62097e-11
4.26238e-11
-9.32915e-13
9.85488e-13
1.70378e-05
7.96207e-06
1.15564e-05
8.30216e-06
2.24542e-05
3.14255e-05
3.21959e-05
3.76776e-05
6.48162e-05
7.81971e-05
9.47529e-05
0.000118093
0.000155377
0.000184229
0.000233027
0.000285306
0.00035196
0.000421935
0.000524084
0.000633268
0.000780569
0.000952509
0.00120167
0.00150609
0.00191077
1.64567e-05
8.26605e-06
1.15362e-05
8.03125e-06
2.21371e-05
3.1607e-05
3.21064e-05
3.76491e-05
6.41307e-05
7.79518e-05
9.36894e-05
0.000117368
0.000152205
0.000183243
0.000230368
0.000283968
0.000347499
0.000419275
0.000515507
0.000628125
0.00076536
0.000937229
0.00115438
0.00141444
0.00165288
1.54812e-05
8.99034e-06
1.13065e-05
7.97523e-06
2.14968e-05
3.19007e-05
3.1347e-05
3.73591e-05
6.27305e-05
7.76824e-05
9.14874e-05
0.000116124
0.000148961
0.000181343
0.000225713
0.000280329
0.000340476
0.000412626
0.000503838
0.000615204
0.000742105
0.000900706
0.00108034
0.00127246
0.00140909
1.4256e-05
9.69748e-06
1.12106e-05
7.92715e-06
2.04946e-05
3.19023e-05
3.01724e-05
3.66037e-05
6.11154e-05
7.67204e-05
8.86942e-05
0.00011357
0.000145002
0.000177261
0.000219699
0.000273848
0.000331334
0.000401027
0.000488179
0.000593102
0.000708691
0.000844277
0.000987883
0.00112124
0.00120262
1.27564e-05
1.03415e-05
1.11824e-05
7.67913e-06
1.93021e-05
3.15641e-05
2.86561e-05
3.51346e-05
5.92562e-05
7.48444e-05
8.50283e-05
0.000109447
0.000139975
0.000170951
0.000211778
0.000264182
0.000318817
0.000384073
0.000466324
0.000561695
0.000662754
0.000773112
0.000884054
0.000975313
0.00102439
1.10175e-05
1.07412e-05
1.11859e-05
7.24641e-06
1.80502e-05
3.07606e-05
2.66818e-05
3.27771e-05
5.68923e-05
7.20346e-05
8.02644e-05
0.000103588
0.000133384
0.000162262
0.00020092
0.000250817
0.000301938
0.000361234
0.000436468
0.000520469
0.000604811
0.000691701
0.00077527
0.000837577
0.000864092
9.15649e-06
1.07865e-05
1.11392e-05
6.47405e-06
1.67801e-05
2.94768e-05
2.40454e-05
2.88829e-05
5.38098e-05
6.80911e-05
7.43426e-05
9.58806e-05
0.000124363
0.000150782
0.000186677
0.000233086
0.00027945
0.000331596
0.0003979
0.000469525
0.000537138
0.000603355
0.000664708
0.000706233
0.000717104
7.29167e-06
1.04012e-05
1.07885e-05
5.25533e-06
1.55618e-05
2.7851e-05
2.05028e-05
2.475e-05
4.96674e-05
6.24695e-05
6.67798e-05
8.64161e-05
0.000112382
0.000135694
0.000168531
0.000210343
0.000250181
0.000294377
0.000350973
0.000409624
0.000461305
0.000510244
0.000554231
0.00058025
0.000581003
5.54892e-06
9.61329e-06
1.01022e-05
3.43541e-06
1.41276e-05
2.61635e-05
1.6311e-05
1.96798e-05
4.47497e-05
5.53901e-05
5.742e-05
7.55532e-05
9.8189e-05
0.000117202
0.000146645
0.000183578
0.000215617
0.000251247
0.000298813
0.000345549
0.000382949
0.000418403
0.00045052
0.0004661
0.00046098
3.79644e-06
8.27654e-06
9.09863e-06
1.17935e-06
1.16525e-05
2.38408e-05
1.20068e-05
1.34835e-05
3.79387e-05
4.6495e-05
4.56932e-05
6.17537e-05
8.07507e-05
9.43053e-05
0.00011884
0.000150273
0.000173881
0.000199637
0.000237616
0.000273286
0.000297423
0.000320827
0.00034394
0.00035258
0.000344062
2.05453e-06
5.82953e-06
7.19039e-06
-2.65517e-07
7.57038e-06
1.85539e-05
7.83297e-06
6.75738e-06
2.6809e-05
3.33055e-05
3.03339e-05
4.20372e-05
5.6075e-05
6.36912e-05
8.02919e-05
0.000103238
0.000117994
0.000132647
0.000158014
0.000181786
0.000194283
0.000206322
0.000220861
0.000225249
0.000216741
5.68778e-07
2.0738e-06
2.98747e-06
-3.89091e-07
2.30806e-06
7.6019e-06
3.01701e-06
1.66066e-06
9.97404e-06
1.28661e-05
1.09418e-05
1.52537e-05
2.09074e-05
2.32751e-05
2.90868e-05
3.79453e-05
4.31372e-05
4.75687e-05
5.65474e-05
6.52816e-05
6.89391e-05
7.21678e-05
7.72303e-05
7.87089e-05
7.49604e-05
)
;

boundaryField
{
    top
    {
        type            fixedValue;
        value           uniform 0;
    }
    inlet
    {
        type            zeroGradient;
    }
    outlet
    {
        type            fixedValue;
        value           uniform 0;
    }
    plate
    {
        type            zeroGradient;
    }
    symmBound
    {
        type            zeroGradient;
    }
    frontAndBack
    {
        type            empty;
    }
}


// ************************************************************************* //
