/*--------------------------------*- C++ -*----------------------------------*\
| =========                 |                                                 |
| \\      /  F ield         | OpenFOAM: The Open Source CFD Toolbox           |
|  \\    /   O peration     | Version:  2.3.0                                 |
|   \\  /    A nd           | Web:      www.OpenFOAM.org                      |
|    \\/     M anipulation  |                                                 |
\*---------------------------------------------------------------------------*/
FoamFile
{
    version     2.0;
    format      ascii;
    class       surfaceScalarField;
    location    "0.15";
    object      phi;
}
// * * * * * * * * * * * * * * * * * * * * * * * * * * * * * * * * * * * * * //

dimensions      [0 3 -1 0 0 0 0];

internalField   nonuniform List<scalar> 
2863
(
2.89025e-08
2.76002e-09
-3.16625e-08
2.54328e-08
3.46968e-09
2.19739e-08
3.45888e-09
1.87654e-08
3.20852e-09
1.58455e-08
2.91989e-09
1.32915e-08
2.55403e-09
1.11969e-08
2.09457e-09
9.57779e-09
1.61914e-09
8.39792e-09
1.17987e-09
7.57185e-09
8.26068e-10
7.00143e-09
5.70422e-10
6.60162e-09
3.99807e-10
6.30894e-09
2.9268e-10
6.08035e-09
2.28589e-10
5.88763e-09
1.92721e-10
5.7142e-09
1.73431e-10
5.55222e-09
1.61979e-10
5.3995e-09
1.52722e-10
5.25644e-09
1.4306e-10
5.12375e-09
1.32685e-10
5.00167e-09
1.22081e-10
4.89042e-09
1.11253e-10
4.79014e-09
1.00278e-10
4.7003e-09
8.98437e-11
4.62017e-09
8.01323e-11
4.54932e-09
7.08443e-11
4.48705e-09
6.22743e-11
4.43243e-09
5.4617e-11
4.38501e-09
4.74155e-11
4.34443e-09
4.05845e-11
4.31e-09
3.44305e-11
4.28132e-09
2.86776e-11
4.25837e-09
2.29569e-11
4.24086e-09
1.75084e-11
4.22836e-09
1.24931e-11
4.22072e-09
7.63976e-12
4.21804e-09
2.68478e-12
4.21969e-09
-1.65006e-12
4.22533e-09
-5.64502e-12
4.23433e-09
-9.00016e-12
4.24611e-09
-1.17707e-11
4.25967e-09
-1.35633e-11
4.27406e-09
-1.4387e-11
4.28842e-09
-1.43639e-11
4.30208e-09
-1.36641e-11
4.31457e-09
-1.24862e-11
4.32563e-09
-1.10585e-11
4.33519e-09
-9.56636e-12
4.34332e-09
-8.12776e-12
4.35012e-09
-6.79957e-12
4.35573e-09
-5.60318e-12
4.36028e-09
-4.55327e-12
4.36393e-09
-3.6548e-12
4.36683e-09
-2.89779e-12
4.3691e-09
-2.26701e-12
4.37085e-09
-1.74766e-12
4.37217e-09
-1.32455e-12
4.37315e-09
-9.8051e-13
4.37385e-09
-6.99283e-13
4.37432e-09
-4.69783e-13
4.3746e-09
-2.84755e-13
4.37474e-09
-1.38274e-13
4.37477e-09
-2.56343e-14
4.37471e-09
5.45457e-14
4.37461e-09
1.03156e-13
4.37448e-09
1.34911e-13
4.37433e-09
1.44145e-13
4.37419e-09
1.42538e-13
4.37406e-09
1.33582e-13
4.37393e-09
1.20595e-13
4.37383e-09
1.0477e-13
4.37374e-09
8.84759e-14
4.37367e-09
7.33118e-14
4.37361e-09
5.96371e-14
4.37356e-09
4.77631e-14
4.37352e-09
3.77835e-14
4.37349e-09
2.95729e-14
4.37347e-09
2.29007e-14
4.37345e-09
1.75869e-14
4.37344e-09
1.33818e-14
4.37343e-09
1.00939e-14
4.37342e-09
7.56273e-15
4.37342e-09
5.59894e-15
4.37341e-09
4.11841e-15
4.37341e-09
2.97466e-15
4.37341e-09
2.18146e-15
4.37341e-09
1.41732e-15
4.3734e-09
1.28188e-15
4.3734e-09
3.27968e-16
4.3734e-09
1.131e-15
4.3734e-09
-5.19118e-16
4.3734e-09
1.09674e-15
4.3734e-09
-4.57137e-16
4.3734e-09
4.62361e-17
4.3734e-09
7.41709e-16
4.3734e-09
-9.26e-16
4.3734e-09
3.24441e-16
4.3734e-09
4.14387e-16
4.3734e-09
4.56822e-16
-3.63934e-15
3.63238e-08
2.45859e-09
-3.60223e-08
3.61583e-08
3.63516e-09
3.54456e-08
4.1716e-09
3.4443e-08
4.21106e-09
3.32688e-08
4.09413e-09
3.19473e-08
3.87547e-09
3.05022e-08
3.53974e-09
2.90062e-08
3.11511e-09
2.75331e-08
2.65293e-09
2.61406e-08
2.21856e-09
2.48568e-08
1.85428e-09
2.36856e-08
1.57094e-09
2.2624e-08
1.35428e-09
2.16707e-08
1.18191e-09
2.08165e-08
1.04692e-09
2.0051e-08
9.38945e-10
1.9364e-08
8.48957e-10
1.87467e-08
7.70077e-10
1.81913e-08
6.98406e-10
1.76911e-08
6.3289e-10
1.72399e-08
5.73295e-10
1.68328e-08
5.18335e-10
1.6466e-08
4.67089e-10
1.61358e-08
4.20017e-10
1.58391e-08
3.76821e-10
1.55735e-08
3.36478e-10
1.53365e-08
2.99247e-10
1.51259e-08
2.65211e-10
1.49401e-08
2.33215e-10
1.47777e-08
2.02984e-10
1.46372e-08
1.75013e-10
1.45172e-08
1.48655e-10
1.4417e-08
1.23159e-10
1.43355e-08
9.89504e-11
1.42718e-08
7.62517e-11
1.42248e-08
5.46289e-11
1.41934e-08
3.40861e-11
1.41766e-08
1.51149e-11
1.41724e-08
-1.40688e-12
1.4179e-08
-1.55957e-11
1.41945e-08
-2.72379e-11
1.42163e-08
-3.54139e-11
1.42421e-08
-4.02025e-11
1.42697e-08
-4.19904e-11
1.42974e-08
-4.13362e-11
1.43238e-08
-3.8898e-11
1.43482e-08
-3.53907e-11
1.437e-08
-3.1405e-11
1.43892e-08
-2.73444e-11
1.44059e-08
-2.34335e-11
1.442e-08
-1.97897e-11
1.4432e-08
-1.64934e-11
1.44419e-08
-1.35824e-11
1.44501e-08
-1.1049e-11
1.44567e-08
-8.86738e-12
1.44619e-08
-7.00934e-12
1.4466e-08
-5.44259e-12
1.44692e-08
-4.12954e-12
1.44715e-08
-3.03402e-12
1.44732e-08
-2.1292e-12
1.44743e-08
-1.39654e-12
1.4475e-08
-8.17903e-13
1.44753e-08
-3.74821e-13
1.44754e-08
-5.39369e-14
1.44754e-08
1.51089e-13
1.44752e-08
2.87742e-13
1.4475e-08
3.47289e-13
1.44748e-08
3.65349e-13
1.44746e-08
3.55066e-13
1.44744e-08
3.28034e-13
1.44742e-08
2.89873e-13
1.4474e-08
2.48273e-13
1.44739e-08
2.08109e-13
1.44738e-08
1.7104e-13
1.44737e-08
1.38345e-13
1.44736e-08
1.10482e-13
1.44736e-08
8.72893e-14
1.44735e-08
6.82525e-14
1.44735e-08
5.29337e-14
1.44735e-08
4.06866e-14
1.44734e-08
3.10284e-14
1.44734e-08
2.34868e-14
1.44734e-08
1.7616e-14
1.44734e-08
1.3097e-14
1.44734e-08
9.64995e-15
1.44734e-08
7.06693e-15
1.44734e-08
4.9475e-15
1.44734e-08
3.93217e-15
1.44734e-08
1.89922e-15
1.44734e-08
2.84954e-15
1.44734e-08
-3.85026e-16
1.44734e-08
2.63903e-15
1.44734e-08
-1.10577e-15
1.44734e-08
1.07325e-15
1.44734e-08
5.04741e-16
1.44734e-08
-8.30488e-16
1.44734e-08
3.35948e-16
1.44734e-08
1.17165e-15
1.44734e-08
3.53301e-15
-8.13481e-15
4.03752e-08
2.33928e-09
-4.02559e-08
4.07981e-08
3.21222e-09
4.10582e-08
3.91154e-09
4.11216e-08
4.14758e-09
4.10658e-08
4.15e-09
4.08917e-08
4.04954e-09
4.05676e-08
3.86384e-09
4.00918e-08
3.59088e-09
3.94893e-08
3.25547e-09
3.88009e-08
2.90698e-09
3.80653e-08
2.58981e-09
3.73107e-08
2.32559e-09
3.65543e-08
2.11065e-09
3.58037e-08
1.9326e-09
3.50653e-08
1.78524e-09
3.4343e-08
1.66124e-09
3.36405e-08
1.55155e-09
3.29616e-08
1.44892e-09
3.23096e-08
1.35037e-09
3.16858e-08
1.25672e-09
3.10904e-08
1.16869e-09
3.05245e-08
1.08427e-09
2.99895e-08
1.00211e-09
2.94862e-08
9.2327e-10
2.90152e-08
8.47804e-10
2.85769e-08
7.74781e-10
2.81712e-08
7.04963e-10
2.77977e-08
6.38669e-10
2.74565e-08
5.7449e-10
2.71471e-08
5.12373e-10
2.68688e-08
4.53245e-10
2.66211e-08
3.96381e-10
2.64032e-08
3.41114e-10
2.62139e-08
2.88169e-10
2.60526e-08
2.37642e-10
2.59181e-08
1.89042e-10
2.58091e-08
1.4315e-10
2.57231e-08
1.01048e-10
2.56588e-08
6.29765e-11
2.56143e-08
2.88553e-11
2.55869e-08
1.68929e-13
2.55738e-08
-2.23401e-11
2.55723e-08
-3.86322e-11
2.55794e-08
-4.9166e-11
2.55927e-08
-5.46507e-11
2.56099e-08
-5.60837e-11
2.56292e-08
-5.46576e-11
2.56492e-08
-5.14328e-11
2.56691e-08
-4.72044e-11
2.56881e-08
-4.24886e-11
2.5706e-08
-3.76245e-11
2.57224e-08
-3.28759e-11
2.57372e-08
-2.84065e-11
2.57504e-08
-2.42781e-11
2.57621e-08
-2.05072e-11
2.57721e-08
-1.70934e-11
2.57807e-08
-1.40238e-11
2.57879e-08
-1.12765e-11
2.57937e-08
-8.83617e-12
2.57982e-08
-6.69824e-12
2.58017e-08
-4.86871e-12
2.58042e-08
-3.35126e-12
2.5806e-08
-2.13644e-12
2.58072e-08
-1.20603e-12
2.58078e-08
-5.34078e-13
2.58082e-08
-6.32744e-14
2.58083e-08
2.14138e-13
2.58083e-08
3.73575e-13
2.58082e-08
4.46278e-13
2.58081e-08
4.62046e-13
2.58079e-08
4.38019e-13
2.58078e-08
3.93804e-13
2.58077e-08
3.42138e-13
2.58075e-08
2.8898e-13
2.58074e-08
2.38993e-13
2.58074e-08
1.9444e-13
2.58073e-08
1.56138e-13
2.58072e-08
1.23888e-13
2.58072e-08
9.73914e-14
2.58072e-08
7.58292e-14
2.58071e-08
5.85683e-14
2.58071e-08
4.48615e-14
2.58071e-08
3.41145e-14
2.58071e-08
2.56255e-14
2.58071e-08
1.92747e-14
2.58071e-08
1.40522e-14
2.58071e-08
1.05119e-14
2.58071e-08
7.49281e-15
2.58071e-08
5.10492e-15
2.5807e-08
4.61119e-15
2.5807e-08
9.25682e-16
2.5807e-08
4.31091e-15
2.5807e-08
-1.87152e-15
2.5807e-08
3.183e-15
2.5807e-08
-7.68569e-16
2.5807e-08
-2.47419e-16
2.5807e-08
6.11104e-16
2.5807e-08
5.6759e-16
2.5807e-08
5.39465e-15
-8.52992e-15
4.4862e-08
2.297e-09
-4.48197e-08
4.51683e-08
2.90586e-09
4.5562e-08
3.51792e-09
4.58651e-08
3.84443e-09
4.60928e-08
3.92229e-09
4.62736e-08
3.86875e-09
4.63897e-08
3.74778e-09
4.64159e-08
3.56461e-09
4.63402e-08
3.33124e-09
4.6173e-08
3.07418e-09
4.59382e-08
2.82461e-09
4.56576e-08
2.60616e-09
4.53469e-08
2.42138e-09
4.5015e-08
2.26442e-09
4.46688e-08
2.13148e-09
4.43096e-08
2.02045e-09
4.3937e-08
1.92411e-09
4.35541e-08
1.83187e-09
4.31666e-08
1.73782e-09
4.27787e-08
1.64468e-09
4.23907e-08
1.55671e-09
4.20027e-08
1.47221e-09
4.16168e-08
1.38807e-09
4.12357e-08
1.30432e-09
4.08626e-08
1.2209e-09
4.04997e-08
1.13766e-09
4.01483e-08
1.05637e-09
3.98098e-08
9.7721e-10
3.94861e-08
8.98142e-10
3.91791e-08
8.19423e-10
3.88898e-08
7.42513e-10
3.86194e-08
6.66772e-10
3.83689e-08
5.91666e-10
3.81388e-08
5.1825e-10
3.79297e-08
4.46702e-10
3.7742e-08
3.76782e-10
3.75754e-08
3.09779e-10
3.74294e-08
2.46993e-10
3.73036e-08
1.88842e-10
3.71968e-08
1.35587e-10
3.71081e-08
8.88681e-11
3.7036e-08
4.97789e-11
3.69789e-08
1.84275e-11
3.69353e-08
-5.52982e-12
3.69033e-08
-2.26249e-11
3.6881e-08
-3.38189e-11
3.68668e-08
-4.04447e-11
3.68591e-08
-4.37571e-11
3.68567e-08
-4.47363e-11
3.68582e-08
-4.40586e-11
3.68628e-08
-4.22271e-11
3.68697e-08
-3.97053e-11
3.68781e-08
-3.68353e-11
3.68876e-08
-3.38105e-11
3.68979e-08
-3.07323e-11
3.69084e-08
-2.76383e-11
3.69189e-08
-2.45217e-11
3.6929e-08
-2.13626e-11
3.69383e-08
-1.81744e-11
3.69466e-08
-1.50165e-11
3.69538e-08
-1.19892e-11
3.69596e-08
-9.20675e-12
3.69642e-08
-6.7587e-12
3.69677e-08
-4.70576e-12
3.69703e-08
-3.07338e-12
3.6972e-08
-1.83032e-12
3.69732e-08
-9.486e-13
3.69739e-08
-3.52966e-13
3.69743e-08
2.78297e-14
3.69746e-08
2.51007e-13
3.69746e-08
3.57832e-13
3.69746e-08
3.91863e-13
3.69746e-08
3.83429e-13
3.69745e-08
3.50169e-13
3.69745e-08
3.06241e-13
3.69744e-08
2.59821e-13
3.69743e-08
2.15605e-13
3.69743e-08
1.75721e-13
3.69743e-08
1.41276e-13
3.69742e-08
1.1217e-13
3.69742e-08
8.81908e-14
3.69742e-08
6.86038e-14
3.69741e-08
5.30749e-14
3.69741e-08
4.02965e-14
3.69741e-08
3.11092e-14
3.69741e-08
2.24223e-14
3.69741e-08
1.81022e-14
3.69741e-08
1.14753e-14
3.69741e-08
1.02237e-14
3.69741e-08
6.27705e-15
3.69741e-08
3.33594e-15
3.69741e-08
6.55898e-15
3.69741e-08
-2.96147e-15
3.69741e-08
6.19375e-15
3.69741e-08
-2.04008e-15
3.69741e-08
-1.60032e-16
3.69741e-08
8.67877e-16
3.69741e-08
-9.7726e-16
3.69741e-08
3.12033e-16
-4.44158e-15
4.9833e-08
2.25169e-09
-4.97877e-08
5.00346e-08
2.70426e-09
5.03788e-08
3.17371e-09
5.07106e-08
3.51264e-09
5.0981e-08
3.65189e-09
5.12056e-08
3.64419e-09
5.13984e-08
3.55494e-09
5.15462e-08
3.41686e-09
5.16326e-08
3.24479e-09
5.16556e-08
3.05116e-09
5.1627e-08
2.85328e-09
5.1563e-08
2.67012e-09
5.14747e-08
2.50969e-09
5.13698e-08
2.36931e-09
5.12552e-08
2.24606e-09
5.11332e-08
2.14254e-09
5.10006e-08
2.05668e-09
5.08556e-08
1.97683e-09
5.07014e-08
1.89201e-09
5.05424e-08
1.80366e-09
5.03797e-08
1.71947e-09
5.02113e-08
1.64061e-09
5.00359e-08
1.56342e-09
4.98547e-08
1.48552e-09
4.96705e-08
1.40517e-09
4.94852e-08
1.32296e-09
4.92993e-08
1.24226e-09
4.91132e-08
1.16333e-09
4.89281e-08
1.08319e-09
4.87457e-08
1.00183e-09
4.85672e-08
9.21028e-10
4.83936e-08
8.40353e-10
4.8226e-08
7.59312e-10
4.80651e-08
6.79117e-10
4.79118e-08
6.0003e-10
4.77668e-08
5.21725e-10
4.76311e-08
4.45535e-10
4.75048e-08
3.73243e-10
4.73883e-08
3.05339e-10
4.72818e-08
2.42143e-10
4.71853e-08
1.85339e-10
4.70989e-08
1.36163e-10
4.70227e-08
9.46343e-11
4.69566e-08
6.06083e-11
4.69e-08
3.3925e-11
4.68523e-08
1.3867e-11
4.68127e-08
-8.43277e-13
4.67805e-08
-1.15555e-11
4.6755e-08
-1.92456e-11
4.67355e-08
-2.45595e-11
4.67212e-08
-2.79413e-11
4.67114e-08
-2.98603e-11
4.67053e-08
-3.07155e-11
4.67023e-08
-3.08235e-11
4.6702e-08
-3.04381e-11
4.67041e-08
-2.96959e-11
4.67081e-08
-2.85997e-11
4.67138e-08
-2.70641e-11
4.67207e-08
-2.50112e-11
4.67281e-08
-2.24405e-11
4.67356e-08
-1.94533e-11
4.67426e-08
-1.62384e-11
4.67488e-08
-1.30137e-11
4.67541e-08
-9.986e-12
4.67584e-08
-7.31517e-12
4.67616e-08
-5.08482e-12
4.6764e-08
-3.33499e-12
4.67657e-08
-2.02861e-12
4.67668e-08
-1.09243e-12
4.67675e-08
-4.58754e-13
4.67679e-08
-6.34538e-14
4.67682e-08
1.65694e-13
4.67683e-08
2.83202e-13
4.67683e-08
3.25709e-13
4.67683e-08
3.24498e-13
4.67682e-08
2.99389e-13
4.67682e-08
2.63324e-13
4.67681e-08
2.24011e-13
4.67681e-08
1.86087e-13
4.6768e-08
1.5164e-13
4.6768e-08
1.21844e-13
4.6768e-08
9.64604e-14
4.6768e-08
7.59938e-14
4.67679e-08
5.83353e-14
4.67679e-08
4.61138e-14
4.67679e-08
3.30825e-14
4.67679e-08
2.80822e-14
4.67679e-08
1.6939e-14
4.67679e-08
1.68087e-14
4.67679e-08
9.30128e-15
4.67679e-08
6.1214e-15
4.67679e-08
1.0049e-14
4.67679e-08
-3.61206e-15
4.67679e-08
9.05298e-15
4.67679e-08
-2.13379e-15
4.67679e-08
-1.71912e-16
4.67679e-08
2.42463e-16
4.67679e-08
-1.53285e-15
4.67679e-08
-7.67108e-15
7.24322e-16
5.53015e-08
2.19614e-09
-5.52459e-08
5.54527e-08
2.55299e-09
5.57227e-08
2.90375e-09
5.60259e-08
3.20944e-09
5.62965e-08
3.38132e-09
5.65191e-08
3.42159e-09
5.6706e-08
3.36798e-09
5.68596e-08
3.26324e-09
5.69718e-08
3.13261e-09
5.70391e-08
2.98382e-09
5.70683e-08
2.82413e-09
5.70702e-08
2.66822e-09
5.70532e-08
2.52665e-09
5.70237e-08
2.39885e-09
5.69881e-08
2.28163e-09
5.69509e-08
2.17976e-09
5.69114e-08
2.09617e-09
5.68672e-08
2.02104e-09
5.68182e-08
1.94101e-09
5.67667e-08
1.85519e-09
5.67143e-08
1.77181e-09
5.66603e-08
1.69462e-09
5.66025e-08
1.62125e-09
5.65404e-08
1.54766e-09
5.64753e-08
1.47021e-09
5.64084e-08
1.38986e-09
5.63395e-08
1.31121e-09
5.62682e-08
1.23462e-09
5.61947e-08
1.15664e-09
5.61196e-08
1.07693e-09
5.60435e-08
9.97129e-10
5.5967e-08
9.1691e-10
5.58902e-08
8.36126e-10
5.58132e-08
7.56031e-10
5.57366e-08
6.76671e-10
5.56607e-08
5.97601e-10
5.5586e-08
5.20212e-10
5.5513e-08
4.46322e-10
5.54421e-08
3.76215e-10
5.53738e-08
3.10391e-10
5.53086e-08
2.50552e-10
5.5247e-08
1.97824e-10
5.51895e-08
1.52085e-10
5.51371e-08
1.13049e-10
5.50899e-08
8.11089e-11
5.50481e-08
5.56748e-11
5.50113e-08
3.59649e-11
5.49793e-08
2.04109e-11
5.4952e-08
8.08358e-12
5.49291e-08
-1.66283e-12
5.49103e-08
-9.16623e-12
5.48952e-08
-1.48013e-11
5.48834e-08
-1.88736e-11
5.48743e-08
-2.17048e-11
5.48675e-08
-2.36747e-11
5.48629e-08
-2.50682e-11
5.48603e-08
-2.59914e-11
5.48596e-08
-2.63724e-11
5.48606e-08
-2.60604e-11
5.48631e-08
-2.4936e-11
5.48667e-08
-2.29931e-11
5.48708e-08
-2.0368e-11
5.48751e-08
-1.72929e-11
5.48792e-08
-1.40482e-11
5.48827e-08
-1.09013e-11
5.48857e-08
-8.05914e-12
5.4888e-08
-5.66709e-12
5.48898e-08
-3.75734e-12
5.4891e-08
-2.29572e-12
5.48918e-08
-1.24242e-12
5.48922e-08
-5.34413e-13
5.48925e-08
-8.25333e-14
5.48926e-08
1.85425e-13
5.48926e-08
3.2024e-13
5.48925e-08
3.71694e-13
5.48925e-08
3.72145e-13
5.48924e-08
3.4441e-13
5.48923e-08
3.03368e-13
5.48922e-08
2.5836e-13
5.48922e-08
2.14502e-13
5.48921e-08
1.74888e-13
5.48921e-08
1.40072e-13
5.4892e-08
1.11457e-13
5.4892e-08
8.63956e-14
5.4892e-08
6.86941e-14
5.4892e-08
5.01636e-14
5.4892e-08
4.20954e-14
5.48919e-08
2.69768e-14
5.48919e-08
2.49814e-14
5.48919e-08
1.56168e-14
5.48919e-08
9.93562e-15
5.48919e-08
1.44599e-14
5.48919e-08
-1.95544e-15
5.48919e-08
1.10354e-14
5.48919e-08
-6.70487e-16
5.48919e-08
4.39269e-16
5.48919e-08
-2.31022e-16
5.48919e-08
-8.7008e-16
5.48919e-08
-1.13457e-14
3.87749e-15
6.13202e-08
2.13719e-09
-6.12612e-08
6.14462e-08
2.42698e-09
6.16501e-08
2.69981e-09
6.1908e-08
2.9516e-09
6.21587e-08
3.13059e-09
6.23744e-08
3.20587e-09
6.25501e-08
3.19228e-09
6.26915e-08
3.12189e-09
6.28003e-08
3.02379e-09
6.28755e-08
2.90861e-09
6.29202e-08
2.7795e-09
6.29411e-08
2.64722e-09
6.29449e-08
2.52287e-09
6.29369e-08
2.40686e-09
6.29223e-08
2.29623e-09
6.29058e-08
2.19632e-09
6.28896e-08
2.11232e-09
6.28742e-08
2.03647e-09
6.28578e-08
1.95737e-09
6.28393e-08
1.87372e-09
6.28202e-08
1.79087e-09
6.28023e-08
1.71255e-09
6.27844e-08
1.63913e-09
6.27654e-08
1.5667e-09
6.27454e-08
1.49017e-09
6.27247e-08
1.41062e-09
6.2703e-08
1.33291e-09
6.26805e-08
1.25711e-09
6.26569e-08
1.18021e-09
6.26316e-08
1.10221e-09
6.26048e-08
1.02399e-09
6.25768e-08
9.44926e-10
6.25475e-08
8.65412e-10
6.25167e-08
7.86834e-10
6.24845e-08
7.08899e-10
6.24507e-08
6.31305e-10
6.24155e-08
5.55497e-10
6.23789e-08
4.8287e-10
6.23417e-08
4.13476e-10
6.2304e-08
3.48031e-10
6.22664e-08
2.88215e-10
6.22293e-08
2.34915e-10
6.21935e-08
1.87871e-10
6.21598e-08
1.46761e-10
6.21286e-08
1.12235e-10
6.21004e-08
8.38655e-11
6.20753e-08
6.108e-11
6.20531e-08
4.26246e-11
6.20338e-08
2.7449e-11
6.2017e-08
1.50996e-11
6.20028e-08
5.03562e-12
6.1991e-08
-2.99232e-12
6.19813e-08
-9.17276e-12
6.19733e-08
-1.37459e-11
6.19668e-08
-1.71472e-11
6.19615e-08
-1.97434e-11
6.19572e-08
-2.17517e-11
6.1954e-08
-2.31864e-11
6.19519e-08
-2.39262e-11
6.19508e-08
-2.3819e-11
6.19506e-08
-2.27891e-11
6.19511e-08
-2.08969e-11
6.19521e-08
-1.83233e-11
6.19534e-08
-1.53393e-11
6.19548e-08
-1.22362e-11
6.1956e-08
-9.27659e-12
6.1957e-08
-6.67187e-12
6.19577e-08
-4.51098e-12
6.19582e-08
-2.7945e-12
6.19585e-08
-1.51334e-12
6.19586e-08
-6.31663e-13
6.19586e-08
-4.75963e-14
6.19585e-08
3.01154e-13
6.19583e-08
4.80731e-13
6.19581e-08
5.49191e-13
6.1958e-08
5.48397e-13
6.19578e-08
5.07968e-13
6.19576e-08
4.48306e-13
6.19575e-08
3.82525e-13
6.19574e-08
3.18151e-13
6.19573e-08
2.59725e-13
6.19573e-08
2.08371e-13
6.19572e-08
1.6576e-13
6.19572e-08
1.29156e-13
6.19571e-08
1.01918e-13
6.19571e-08
7.62067e-14
6.19571e-08
6.15324e-14
6.19571e-08
4.28715e-14
6.19571e-08
3.565e-14
6.1957e-08
2.53305e-14
6.1957e-08
1.59155e-14
6.1957e-08
1.93042e-14
6.1957e-08
2.59796e-15
6.1957e-08
1.24144e-14
6.1957e-08
2.19965e-15
6.1957e-08
1.64752e-15
6.1957e-08
5.1123e-16
6.1957e-08
2.54865e-17
6.1957e-08
-9.71328e-15
4.6539e-15
6.79525e-08
2.08008e-09
-6.78954e-08
6.8059e-08
2.32052e-09
6.82175e-08
2.54133e-09
6.84235e-08
2.74559e-09
6.86409e-08
2.91315e-09
6.88401e-08
3.00666e-09
6.90051e-08
3.02729e-09
6.91351e-08
2.99192e-09
6.92358e-08
2.92313e-09
6.93098e-08
2.83452e-09
6.93589e-08
2.73048e-09
6.93874e-08
2.61865e-09
6.94003e-08
2.51004e-09
6.94012e-08
2.40593e-09
6.93947e-08
2.3027e-09
6.93847e-08
2.20638e-09
6.93741e-08
2.12287e-09
6.93656e-08
2.04498e-09
6.93582e-08
1.96481e-09
6.93485e-08
1.88341e-09
6.93369e-08
1.80248e-09
6.93264e-08
1.72303e-09
6.93178e-08
1.64772e-09
6.931e-08
1.57445e-09
6.93023e-08
1.4979e-09
6.92938e-08
1.41913e-09
6.92844e-08
1.34226e-09
6.92752e-08
1.26635e-09
6.92662e-08
1.18922e-09
6.92564e-08
1.11195e-09
6.92455e-08
1.03495e-09
6.92334e-08
9.56971e-10
6.92201e-08
8.78775e-10
6.92051e-08
8.01752e-10
6.91887e-08
7.25307e-10
6.91708e-08
6.49227e-10
6.91512e-08
5.751e-10
6.913e-08
5.04087e-10
6.91074e-08
4.36096e-10
6.90836e-08
3.71812e-10
6.90591e-08
3.12751e-10
6.90343e-08
2.59639e-10
6.90101e-08
2.12077e-10
6.89869e-08
1.70029e-10
6.89651e-08
1.3399e-10
6.89453e-08
1.03692e-10
6.89275e-08
7.88521e-11
6.8912e-08
5.81608e-11
6.88984e-08
4.10028e-11
6.88867e-08
2.68088e-11
6.88767e-08
1.50078e-11
6.88683e-08
5.44507e-12
6.88613e-08
-2.20298e-12
6.88555e-08
-7.95988e-12
6.88507e-08
-1.23237e-11
6.88466e-08
-1.56474e-11
6.88431e-08
-1.82033e-11
6.884e-08
-2.00769e-11
6.88372e-08
-2.12135e-11
6.88349e-08
-2.15049e-11
6.8833e-08
-2.08893e-11
6.88315e-08
-1.94031e-11
6.88304e-08
-1.71981e-11
6.88296e-08
-1.45166e-11
6.8829e-08
-1.16263e-11
6.88285e-08
-8.79863e-12
6.88281e-08
-6.25915e-12
6.88277e-08
-4.12088e-12
6.88273e-08
-2.39986e-12
6.88269e-08
-1.10334e-12
6.88265e-08
-2.26105e-13
6.88261e-08
3.61349e-13
6.88257e-08
6.93782e-13
6.88253e-08
8.48833e-13
6.8825e-08
8.82214e-13
6.88247e-08
8.41126e-13
6.88244e-08
7.59189e-13
6.88242e-08
6.5942e-13
6.88241e-08
5.56768e-13
6.88239e-08
4.59713e-13
6.88238e-08
3.73216e-13
6.88237e-08
2.98364e-13
6.88236e-08
2.36297e-13
6.88236e-08
1.84299e-13
6.88235e-08
1.44118e-13
6.88235e-08
1.09398e-13
6.88235e-08
8.57318e-14
6.88235e-08
6.29176e-14
6.88235e-08
4.89802e-14
6.88234e-08
3.70031e-14
6.88234e-08
2.40825e-14
6.88234e-08
2.43871e-14
6.88234e-08
9.03304e-15
6.88234e-08
1.38435e-14
6.88234e-08
5.85815e-15
6.88234e-08
3.28851e-15
6.88234e-08
2.03353e-15
6.88234e-08
1.05582e-15
6.88234e-08
-5.9162e-15
4.39961e-15
6.76522e-08
2.03472e-09
-6.76069e-08
6.7731e-08
2.24173e-09
6.78439e-08
2.42847e-09
6.79884e-08
2.60104e-09
6.81504e-08
2.75114e-09
6.8307e-08
2.85008e-09
6.84428e-08
2.89157e-09
6.85515e-08
2.88318e-09
6.8636e-08
2.83863e-09
6.86997e-08
2.77086e-09
6.87438e-08
2.68631e-09
6.87715e-08
2.59097e-09
6.87867e-08
2.49481e-09
6.87922e-08
2.40047e-09
6.87905e-08
2.30442e-09
6.8785e-08
2.21188e-09
6.87787e-08
2.12916e-09
6.87733e-08
2.05031e-09
6.87687e-08
1.96951e-09
6.87628e-08
1.88922e-09
6.87555e-08
1.80985e-09
6.8748e-08
1.73046e-09
6.87419e-08
1.65389e-09
6.8737e-08
1.57933e-09
6.87325e-08
1.50239e-09
6.87276e-08
1.42408e-09
6.87221e-08
1.34769e-09
6.87166e-08
1.27182e-09
6.87111e-08
1.19479e-09
6.8705e-08
1.11802e-09
6.86984e-08
1.04159e-09
6.86912e-08
9.64165e-10
6.86832e-08
8.86799e-10
6.8674e-08
8.10911e-10
6.86635e-08
7.35831e-10
6.86514e-08
6.61274e-10
6.86379e-08
5.88628e-10
6.86231e-08
5.18837e-10
6.86073e-08
4.51923e-10
6.85905e-08
3.88609e-10
6.85731e-08
3.30209e-10
6.85555e-08
2.77242e-10
6.85381e-08
2.29435e-10
6.85212e-08
1.86886e-10
6.85054e-08
1.49816e-10
6.84908e-08
1.18274e-10
6.84779e-08
9.17922e-11
6.84665e-08
6.95249e-11
6.84567e-08
5.08826e-11
6.84482e-08
3.52678e-11
6.8441e-08
2.21979e-11
6.8435e-08
1.14881e-11
6.84298e-08
2.9388e-12
6.84256e-08
-3.71267e-12
6.84221e-08
-8.81559e-12
6.84191e-08
-1.27052e-11
6.84166e-08
-1.56452e-11
6.84142e-08
-1.77522e-11
6.8412e-08
-1.90203e-11
6.84099e-08
-1.93894e-11
6.84079e-08
-1.88523e-11
6.8406e-08
-1.74685e-11
6.84042e-08
-1.5398e-11
6.84025e-08
-1.28783e-11
6.8401e-08
-1.01535e-11
6.83997e-08
-7.48233e-12
6.83986e-08
-5.08514e-12
6.83975e-08
-3.08022e-12
6.83966e-08
-1.4653e-12
6.83957e-08
-2.52964e-13
6.8395e-08
5.23167e-13
6.83943e-08
1.01747e-12
6.83938e-08
1.26219e-12
6.83933e-08
1.33714e-12
6.83929e-08
1.29725e-12
6.83925e-08
1.18882e-12
6.83922e-08
1.0465e-12
6.8392e-08
8.93778e-13
6.83918e-08
7.45677e-13
6.83916e-08
6.10334e-13
6.83915e-08
4.92112e-13
6.83914e-08
3.91508e-13
6.83914e-08
3.08546e-13
6.83913e-08
2.40317e-13
6.83913e-08
1.86723e-13
6.83912e-08
1.42613e-13
6.83912e-08
1.10061e-13
6.83912e-08
8.25678e-14
6.83912e-08
6.26268e-14
6.83912e-08
4.80481e-14
6.83912e-08
3.2634e-14
6.83911e-08
2.91419e-14
6.83911e-08
1.5379e-14
6.83911e-08
1.55826e-14
6.83911e-08
9.15961e-15
6.83911e-08
5.18703e-15
6.83911e-08
3.51539e-15
6.83911e-08
2.21469e-15
6.83911e-08
-2.55818e-15
4.09411e-15
8.54762e-08
1.98752e-09
-8.5429e-08
8.555e-08
2.16802e-09
8.56503e-08
2.32812e-09
8.57756e-08
2.47573e-09
8.59207e-08
2.60604e-09
8.60639e-08
2.70693e-09
8.61925e-08
2.76298e-09
8.62984e-08
2.77721e-09
8.63818e-08
2.75523e-09
8.64457e-08
2.70702e-09
8.64912e-08
2.64081e-09
8.65206e-08
2.56153e-09
8.65394e-08
2.47607e-09
8.65503e-08
2.38952e-09
8.65531e-08
2.30165e-09
8.65505e-08
2.2145e-09
8.65475e-08
2.13209e-09
8.6545e-08
2.05283e-09
8.65411e-08
1.97343e-09
8.65361e-08
1.89418e-09
8.65307e-08
1.81527e-09
8.65246e-08
1.73652e-09
8.65192e-08
1.6593e-09
8.65154e-08
1.5832e-09
8.65115e-08
1.50626e-09
8.65067e-08
1.42891e-09
8.6502e-08
1.35238e-09
8.64978e-08
1.27603e-09
8.64931e-08
1.19948e-09
8.64877e-08
1.12342e-09
8.64818e-08
1.04751e-09
8.64748e-08
9.71094e-10
8.64668e-08
8.9481e-10
8.64583e-08
8.19455e-10
8.6449e-08
7.45119e-10
8.64382e-08
6.72057e-10
8.64259e-08
6.00933e-10
8.64125e-08
5.3222e-10
8.6398e-08
4.66448e-10
8.63822e-08
4.044e-10
8.63657e-08
3.46731e-10
8.63492e-08
2.93737e-10
8.63331e-08
2.4554e-10
8.63175e-08
2.02456e-10
8.63027e-08
1.64627e-10
8.6289e-08
1.31928e-10
8.62768e-08
1.03993e-10
8.62661e-08
8.03029e-11
8.62568e-08
6.01085e-11
8.62489e-08
4.32285e-11
8.62421e-08
2.89764e-11
8.62363e-08
1.72832e-11
8.62314e-08
7.86603e-12
8.62274e-08
2.77321e-13
8.62242e-08
-5.60505e-12
8.62215e-08
-1.00759e-11
8.62193e-08
-1.33972e-11
8.62172e-08
-1.56907e-11
8.62152e-08
-1.69886e-11
8.62131e-08
-1.72871e-11
8.62109e-08
-1.66318e-11
8.62085e-08
-1.51393e-11
8.62062e-08
-1.30093e-11
8.62038e-08
-1.04897e-11
8.62015e-08
-7.83944e-12
8.61993e-08
-5.2965e-12
8.61972e-08
-3.06813e-12
8.61955e-08
-1.29014e-12
8.61939e-08
1.29262e-13
8.61925e-08
1.13084e-12
8.61913e-08
1.74198e-12
8.61902e-08
2.06139e-12
8.61893e-08
2.1463e-12
8.61886e-08
2.07442e-12
8.6188e-08
1.90564e-12
8.61875e-08
1.68543e-12
8.61871e-08
1.4477e-12
8.61868e-08
1.21471e-12
8.61865e-08
1.00018e-12
8.61863e-08
8.10608e-13
8.61862e-08
6.48512e-13
8.6186e-08
5.13015e-13
8.61859e-08
4.02209e-13
8.61859e-08
3.12494e-13
8.61858e-08
2.41607e-13
8.61858e-08
1.84949e-13
8.61857e-08
1.41549e-13
8.61857e-08
1.07192e-13
8.61857e-08
8.06105e-14
8.61857e-08
6.16961e-14
8.61857e-08
4.37432e-14
8.61857e-08
3.55311e-14
8.61857e-08
2.28201e-14
8.61857e-08
1.87044e-14
8.61857e-08
1.27653e-14
8.61857e-08
7.94378e-15
8.61856e-08
5.3049e-15
8.61856e-08
3.84545e-15
8.61856e-08
5.89388e-16
4.02135e-15
1.08014e-07
1.94837e-09
-1.07975e-07
1.08072e-07
2.11019e-09
1.08147e-07
2.253e-09
1.08239e-07
2.38366e-09
1.08348e-07
2.49732e-09
1.08458e-07
2.5962e-09
1.08559e-07
2.66203e-09
1.08645e-07
2.69119e-09
1.08715e-07
2.68578e-09
1.08769e-07
2.65285e-09
1.08809e-07
2.60112e-09
1.08835e-07
2.53529e-09
1.08853e-07
2.45802e-09
1.08867e-07
2.37574e-09
1.08874e-07
2.29458e-09
1.08875e-07
2.21363e-09
1.08875e-07
2.13146e-09
1.08876e-07
2.05182e-09
1.08875e-07
1.97516e-09
1.08872e-07
1.89694e-09
1.0887e-07
1.8175e-09
1.08866e-07
1.74016e-09
1.08862e-07
1.66327e-09
1.0886e-07
1.58504e-09
1.08859e-07
1.50784e-09
1.08855e-07
1.43214e-09
1.08852e-07
1.35571e-09
1.08849e-07
1.27894e-09
1.08845e-07
1.20318e-09
1.08841e-07
1.12739e-09
1.08838e-07
1.0511e-09
1.08833e-07
9.7563e-10
1.08827e-07
9.00992e-10
1.0882e-07
8.2649e-10
1.08812e-07
7.52986e-10
1.08803e-07
6.81367e-10
1.08793e-07
6.11154e-10
1.08782e-07
5.4255e-10
1.08772e-07
4.77307e-10
1.08759e-07
4.16434e-10
1.08747e-07
3.59528e-10
1.08734e-07
3.0655e-10
1.08721e-07
2.58278e-10
1.08709e-07
2.15039e-10
1.08697e-07
1.76678e-10
1.08685e-07
1.42958e-10
1.08676e-07
1.13781e-10
1.08667e-07
8.88151e-11
1.0866e-07
6.75277e-11
1.08653e-07
4.95218e-11
1.08648e-07
3.41457e-11
1.08644e-07
2.17239e-11
1.0864e-07
1.15104e-11
1.08637e-07
3.3222e-12
1.08635e-07
-3.23913e-12
1.08633e-07
-8.20575e-12
1.08631e-07
-1.18685e-11
1.0863e-07
-1.4324e-11
1.08629e-07
-1.55852e-11
1.08627e-07
-1.56826e-11
1.08625e-07
-1.47242e-11
1.08623e-07
-1.28902e-11
1.0862e-07
-1.04311e-11
1.08617e-07
-7.661e-12
1.08614e-07
-4.85952e-12
1.08611e-07
-2.17082e-12
1.08608e-07
-4.71011e-16
1.08605e-07
1.58661e-12
1.08603e-07
2.74029e-12
1.086e-07
3.44045e-12
1.08598e-07
3.7488e-12
1.08597e-07
3.76634e-12
1.08595e-07
3.57444e-12
1.08594e-07
3.25077e-12
1.08593e-07
2.86085e-12
1.08592e-07
2.45189e-12
1.08592e-07
2.05629e-12
1.08591e-07
1.69346e-12
1.08591e-07
1.37382e-12
1.08591e-07
1.10036e-12
1.0859e-07
8.71851e-13
1.0859e-07
6.84541e-13
1.0859e-07
5.33281e-13
1.0859e-07
4.12573e-13
1.0859e-07
3.17545e-13
1.0859e-07
2.42869e-13
1.0859e-07
1.85117e-13
1.0859e-07
1.40506e-13
1.0859e-07
1.05661e-13
1.0859e-07
8.03187e-14
1.0859e-07
5.8758e-14
1.0859e-07
4.52028e-14
1.0859e-07
3.20627e-14
1.0859e-07
2.405e-14
1.0859e-07
1.7425e-14
1.0859e-07
1.17691e-14
1.0859e-07
7.92025e-15
1.0859e-07
5.98507e-15
1.0859e-07
3.49637e-15
4.69368e-15
1.36532e-07
-1.36517e-07
1.36554e-07
1.36583e-07
1.36619e-07
1.36662e-07
1.36709e-07
1.36752e-07
1.3679e-07
1.36822e-07
1.36848e-07
1.36869e-07
1.36882e-07
1.36893e-07
1.36901e-07
1.36907e-07
1.3691e-07
1.36913e-07
1.36916e-07
1.36917e-07
1.36918e-07
1.3692e-07
1.36921e-07
1.3692e-07
1.36921e-07
1.36922e-07
1.36923e-07
1.36924e-07
1.36925e-07
1.36925e-07
1.36925e-07
1.36924e-07
1.36924e-07
1.36923e-07
1.36922e-07
1.36921e-07
1.36919e-07
1.36916e-07
1.36913e-07
1.36909e-07
1.36904e-07
1.36899e-07
1.36895e-07
1.36891e-07
1.36887e-07
1.36884e-07
1.3688e-07
1.36878e-07
1.36875e-07
1.36873e-07
1.36871e-07
1.3687e-07
1.36869e-07
1.36868e-07
1.36868e-07
1.36868e-07
1.36868e-07
1.36868e-07
1.36869e-07
1.36868e-07
1.36868e-07
1.36866e-07
1.36864e-07
1.36862e-07
1.36858e-07
1.36855e-07
1.36851e-07
1.36847e-07
1.36842e-07
1.36838e-07
1.36835e-07
1.36832e-07
1.36829e-07
1.36826e-07
1.36824e-07
1.36822e-07
1.36821e-07
1.36819e-07
1.36818e-07
1.36818e-07
1.36817e-07
1.36816e-07
1.36816e-07
1.36816e-07
1.36816e-07
1.36815e-07
1.36815e-07
1.36815e-07
1.36815e-07
1.36815e-07
1.36815e-07
1.36815e-07
1.36815e-07
1.36815e-07
1.36815e-07
1.36815e-07
1.36815e-07
1.36815e-07
1.36815e-07
1.36815e-07
3.44501e-08
1.34467e-10
3.44567e-08
5.41959e-11
3.44439e-08
-1.33627e-10
3.44353e-08
-3.41808e-10
3.44335e-08
2.06072e-10
3.44464e-08
3.56814e-10
3.44424e-08
2.43228e-10
3.44294e-08
-2.14479e-10
3.44086e-08
-1.50819e-10
3.43964e-08
-8.70058e-11
3.43762e-08
7.20206e-11
3.43511e-08
-4.81423e-11
3.432e-08
1.01967e-11
3.42892e-08
3.92708e-11
3.4239e-08
2.39183e-10
3.41943e-08
2.78517e-10
3.41294e-08
2.95448e-10
3.40656e-08
2.14017e-10
3.39805e-08
2.00917e-10
3.38841e-08
2.38308e-10
3.37521e-08
2.99727e-10
3.35729e-08
4.28169e-10
3.33007e-08
5.04855e-10
3.27272e-08
9.44246e-10
1.53909e-09
3.80469e-08
1.36301e-10
3.80559e-08
4.51303e-11
3.80396e-08
-1.17253e-10
3.80211e-08
-3.23356e-10
3.80204e-08
2.06804e-10
3.80371e-08
3.40103e-10
3.80405e-08
2.39814e-10
3.80147e-08
-1.88694e-10
3.79963e-08
-1.32434e-10
3.79747e-08
-6.53888e-11
3.79642e-08
8.25007e-11
3.79235e-08
-7.38077e-12
3.79016e-08
3.20505e-11
3.78465e-08
9.43621e-11
3.78188e-08
2.66893e-10
3.77461e-08
3.51197e-10
3.77084e-08
3.33158e-10
3.76019e-08
3.20513e-10
3.75419e-08
2.60922e-10
3.73864e-08
3.93873e-10
3.72799e-08
4.06185e-10
3.70186e-08
6.89487e-10
3.67559e-08
7.67523e-10
3.63186e-08
1.38161e-09
1.83533e-09
4.20278e-08
1.17704e-10
4.20188e-08
5.41499e-11
4.20179e-08
-1.16425e-10
4.19669e-08
-2.72289e-10
4.19931e-08
1.80618e-10
4.19976e-08
3.35524e-10
4.20282e-08
2.0922e-10
4.19717e-08
-1.32193e-10
4.19653e-08
-1.26021e-10
4.19208e-08
-2.0858e-11
4.19284e-08
7.48563e-11
4.18682e-08
5.28894e-11
4.1853e-08
4.72093e-11
4.17832e-08
1.64126e-10
4.17632e-08
2.86958e-10