/*--------------------------------*- C++ -*----------------------------------*\
| =========                 |                                                 |
| \\      /  F ield         | OpenFOAM: The Open Source CFD Toolbox           |
|  \\    /   O peration     | Version:  2.3.0                                 |
|   \\  /    A nd           | Web:      www.OpenFOAM.org                      |
|    \\/     M anipulation  |                                                 |
\*---------------------------------------------------------------------------*/
FoamFile
{
    version     2.0;
    format      ascii;
    class       surfaceScalarField;
    location    "0.5";
    object      phi;
}
// * * * * * * * * * * * * * * * * * * * * * * * * * * * * * * * * * * * * * //

dimensions      [0 3 -1 0 0 0 0];

internalField   nonuniform List<scalar> 
5764
(
2.00275e-08
5.00952e-09
-2.5037e-08
1.48971e-08
5.13033e-09
1.09277e-08
3.96948e-09
8.23357e-09
2.69408e-09
6.59233e-09
1.64124e-09
5.64207e-09
9.50254e-10
5.0722e-09
5.69872e-10
4.69268e-09
3.7952e-10
4.40385e-09
2.88834e-10
4.16151e-09
2.42336e-10
3.94933e-09
2.12178e-10
3.7616e-09
1.87729e-10
3.59528e-09
1.66322e-10
3.4475e-09
1.47781e-10
3.31539e-09
1.32107e-10
3.19638e-09
1.19016e-10
3.08834e-09
1.08037e-10
2.98962e-09
9.87214e-11
2.89892e-09
9.06994e-11
2.81521e-09
8.37085e-11
2.73766e-09
7.75486e-11
2.66557e-09
7.20895e-11
2.59837e-09
6.72074e-11
2.53553e-09
6.28314e-11
2.47665e-09
5.88794e-11
2.42134e-09
5.53159e-11
2.36927e-09
5.20704e-11
2.32016e-09
4.91083e-11
2.27378e-09
4.63831e-11
2.2299e-09
4.38732e-11
2.18836e-09
4.15427e-11
2.14897e-09
3.93951e-11
2.11157e-09
3.74e-11
2.07602e-09
3.55445e-11
2.0422e-09
3.38229e-11
2.00999e-09
3.22067e-11
1.97931e-09
3.06855e-11
1.95007e-09
2.92386e-11
1.92219e-09
2.78773e-11
1.89561e-09
2.65851e-11
1.87023e-09
2.53745e-11
1.84603e-09
2.42043e-11
1.82292e-09
2.31083e-11
1.80084e-09
2.20829e-11
1.77977e-09
2.10641e-11
1.7597e-09
2.0067e-11
1.7406e-09
1.9101e-11
1.7224e-09
1.82008e-11
1.70513e-09
1.72772e-11
1.68869e-09
1.64394e-11
1.67304e-09
1.56478e-11
1.65816e-09
1.48765e-11
1.64411e-09
1.40541e-11
1.63092e-09
1.31838e-11
1.61855e-09
1.23729e-11
1.60694e-09
1.16153e-11
1.59597e-09
1.09691e-11
1.5857e-09
1.02663e-11
1.57613e-09
9.57225e-12
1.56738e-09
8.75256e-12
1.5593e-09
8.07106e-12
1.55202e-09
7.28336e-12
1.54526e-09
6.76419e-12
1.53927e-09
5.98625e-12
1.53376e-09
5.50858e-12
1.5291e-09
4.66649e-12
1.52489e-09
4.20157e-12
1.52151e-09
3.37894e-12
1.51845e-09
3.06094e-12
1.51617e-09
2.28735e-12
1.51399e-09
2.18076e-12
1.51253e-09
1.45895e-12
1.51095e-09
1.57212e-12
1.50992e-09
1.03239e-12
1.49756e-12
2.69272e-08
4.90274e-09
-2.68205e-08
2.55787e-08
6.47886e-09
2.35643e-08
5.98384e-09
2.14059e-08
4.85256e-09
1.93787e-08
3.66839e-09
1.76102e-08
2.71874e-09
1.61273e-08
2.05278e-09
1.49102e-08
1.5967e-09
1.3915e-08
1.28397e-09
1.30926e-08
1.0648e-09
1.23991e-08
9.05625e-10
1.18021e-08
7.84703e-10
1.12795e-08
6.88927e-10
1.08163e-08
6.11e-10
1.04018e-08
5.46637e-10
1.00278e-08
4.92953e-10
9.68818e-09
4.47709e-10
9.37775e-09
4.09149e-10
9.09255e-09
3.75896e-10
8.82933e-09
3.46925e-10
8.58544e-09
3.21441e-10
8.35866e-09
2.98874e-10
8.14714e-09
2.7873e-10
7.94929e-09
2.60678e-10
7.76378e-09
2.44393e-10
7.58941e-09
2.2968e-10
7.4252e-09
2.16282e-10
7.27026e-09
2.04049e-10
7.12384e-09
1.92806e-10
6.98525e-09
1.82457e-10
6.85392e-09
1.72872e-10
6.7293e-09
1.64019e-10
6.61091e-09
1.55789e-10
6.49832e-09
1.48132e-10
6.39115e-09
1.40996e-10
6.28906e-09
1.34299e-10
6.19175e-09
1.27992e-10
6.09897e-09
1.22022e-10
6.01045e-09
1.16392e-10
5.92598e-09
1.11055e-10
5.84534e-09
1.06015e-10
5.76837e-09
1.01182e-10
5.69486e-09
9.6612e-11
5.62467e-09
9.22791e-11
5.55771e-09
8.80247e-11
5.49387e-09
8.39064e-11
5.43305e-09
7.9918e-11
5.37511e-09
7.61421e-11
5.32003e-09
7.23547e-11
5.26764e-09
6.88329e-11
5.21788e-09
6.54094e-11
5.17068e-09
6.20728e-11
5.12612e-09
5.86124e-11
5.08417e-09
5.51351e-11
5.04474e-09
5.18007e-11
5.0077e-09
4.86591e-11
4.97295e-09
4.57181e-11
4.94052e-09
4.2695e-11
4.91045e-09
3.96423e-11
4.8828e-09
3.64036e-11
4.85743e-09
3.34366e-11
4.83438e-09
3.03382e-11
4.81338e-09
2.77659e-11
4.79465e-09
2.47142e-11
4.77789e-09
2.2273e-11
4.76341e-09
1.91467e-11
4.75076e-09
1.68501e-11
4.74022e-09
1.39182e-11
4.73116e-09
1.21194e-11
4.72395e-09
9.49508e-12
4.71771e-09
8.42455e-12
4.71298e-09
6.18145e-12
4.70852e-09
6.0324e-12
4.70501e-09
4.54851e-12
5.6439e-12
2.83106e-08
4.26908e-09
-2.7677e-08
2.86236e-08
6.16595e-09
2.83126e-08
6.29475e-09
2.75939e-08
5.57128e-09
2.66313e-08
4.63101e-09
2.55511e-08
3.79894e-09
2.44412e-08
3.16268e-09
2.3354e-08
2.68387e-09
2.23234e-08
2.31458e-09
2.13658e-08
2.02247e-09
2.04842e-08
1.78715e-09
1.96753e-08
1.59361e-09
1.89335e-08
1.43079e-09
1.82528e-08
1.29171e-09
1.76274e-08
1.17196e-09
1.70519e-08
1.06853e-09
1.65207e-08
9.78859e-10
1.60291e-08
9.00756e-10
1.55727e-08
8.32281e-10
1.51478e-08
7.71859e-10
1.4751e-08
7.18176e-10
1.43797e-08
6.70237e-10
1.40313e-08
6.27148e-10
1.37037e-08
5.8828e-10
1.3395e-08
5.53021e-10
1.31037e-08
5.20975e-10
1.28284e-08
4.91661e-10
1.25676e-08
4.64781e-10
1.23204e-08
4.40001e-10
1.20858e-08
4.1712e-10
1.18628e-08
3.95882e-10
1.16506e-08
3.76193e-10
1.14485e-08
3.57841e-10
1.12559e-08
3.40719e-10
1.10722e-08
3.24705e-10
1.08969e-08
3.09653e-10
1.07294e-08
2.95448e-10
1.05694e-08
2.82003e-10
1.04165e-08
2.69288e-10
1.02704e-08
2.57225e-10
1.01306e-08
2.45772e-10
9.99698e-09
2.34817e-10
9.86919e-09
2.244e-10
9.74699e-09
2.14483e-10
9.63024e-09
2.04772e-10
9.51874e-09
1.95411e-10
9.41234e-09
1.86314e-10
9.31083e-09
1.77655e-10
9.21417e-09
1.69015e-10
9.1221e-09
1.60903e-10
9.03457e-09
1.52937e-10
8.95144e-09
1.45201e-10
8.87281e-09
1.37244e-10
8.79856e-09
1.2939e-10
8.72864e-09
1.2172e-10
8.66281e-09
1.14488e-10
8.60106e-09
1.07469e-10
8.54329e-09
1.0046e-10
8.48966e-09
9.32708e-11
8.44008e-09
8.59857e-11
8.39455e-09
7.89703e-11
8.35289e-09
7.19917e-11
8.31503e-09
6.56259e-11
8.28095e-09
5.88026e-11
8.25052e-09
5.2697e-11
8.22377e-09
4.58977e-11
8.20046e-09
4.01608e-11
8.18048e-09
3.39004e-11
8.16342e-09
2.91755e-11
8.1492e-09
2.37173e-11
8.13711e-09
2.05101e-11
8.12723e-09
1.60673e-11
8.11836e-09
1.48977e-11
8.11076e-09
1.21484e-11
1.34929e-11
2.913e-08
3.85897e-09
-2.87199e-08
2.97242e-08
5.57175e-09
3.00104e-08
6.00849e-09
3.00131e-08
5.56861e-09
2.97951e-08
4.84904e-09
2.94134e-08
4.18058e-09
2.89174e-08
3.65871e-09
2.8343e-08
3.25829e-09
2.7721e-08
2.93658e-09
2.70753e-08
2.66819e-09
2.64217e-08
2.4407e-09
2.57702e-08
2.24507e-09
2.51276e-08
2.07342e-09
2.44992e-08
1.92016e-09
2.3889e-08
1.7821e-09
2.33001e-08
1.65745e-09
2.27341e-08
1.54488e-09
2.21917e-08
1.44316e-09
2.16729e-08
1.35102e-09
2.11775e-08
1.26731e-09
2.07046e-08
1.19101e-09
2.02536e-08
1.12131e-09
1.98233e-08
1.05742e-09
1.94128e-08
9.98767e-10
1.90211e-08
9.4474e-10
1.86471e-08
8.94936e-10
1.829e-08
8.48803e-10
1.79487e-08
8.06023e-10
1.76225e-08
7.66202e-10
1.73106e-08
7.29115e-10
1.7012e-08
6.94436e-10
1.67261e-08
6.6205e-10
1.64523e-08
6.3166e-10
1.61899e-08
6.03131e-10
1.59383e-08
5.76271e-10
1.56971e-08
5.50907e-10
1.54657e-08
5.26851e-10
1.52437e-08
5.04006e-10
1.50307e-08
4.82296e-10
1.48263e-08
4.61638e-10
1.46301e-08
4.41899e-10
1.4442e-08
4.22999e-10
1.42614e-08
4.04924e-10
1.40882e-08
3.87664e-10
1.39223e-08
3.70731e-10
1.37633e-08
3.54431e-10
1.36111e-08
3.38515e-10
1.34654e-08
3.23311e-10
1.33263e-08
3.08121e-10
1.31934e-08
2.93798e-10
1.30667e-08
2.79625e-10
1.2946e-08
2.65913e-10
1.28315e-08
2.51806e-10
1.27228e-08
2.38015e-10
1.26202e-08
2.24342e-10
1.25232e-08
2.11484e-10
1.24319e-08
1.98729e-10
1.23462e-08
1.86234e-10
1.22662e-08
1.7323e-10
1.21918e-08
1.60409e-10
1.21231e-08
1.47643e-10
1.20598e-08
1.35332e-10
1.20019e-08
1.2347e-10
1.19493e-08
1.11488e-10
1.19019e-08
1.00027e-10
1.18596e-08
8.82545e-11
1.18223e-08
7.74284e-11
1.17895e-08
6.66732e-11
1.17612e-08
5.74835e-11
1.17367e-08
4.82177e-11
1.17157e-08
4.15307e-11
1.16976e-08
3.41547e-11
1.16816e-08
3.08676e-11
1.16673e-08
2.64613e-11
2.70769e-11
3.00321e-08
3.61591e-09
-2.97891e-08
3.05711e-08
5.03279e-09
3.09704e-08
5.6092e-09
3.11808e-08
5.35817e-09
3.12469e-08
4.78292e-09
3.12042e-08
4.2233e-09
3.10743e-08
3.78858e-09
3.0872e-08
3.46057e-09
3.06114e-08
3.19719e-09
3.03058e-08
2.97383e-09
2.99654e-08
2.78114e-09
2.95969e-08
2.61357e-09
2.92052e-08
2.46505e-09
2.87952e-08
2.33025e-09
2.83714e-08
2.20584e-09
2.79386e-08
2.09023e-09
2.75009e-08
1.98263e-09
2.70616e-08
1.88249e-09
2.66234e-08
1.78916e-09
2.61887e-08
1.70202e-09
2.57593e-08
1.62041e-09
2.53367e-08
1.54388e-09
2.49222e-08
1.47195e-09
2.45166e-08
1.40438e-09
2.41205e-08
1.34079e-09
2.37345e-08
1.28099e-09
2.33588e-08
1.22451e-09
2.29937e-08
1.17117e-09
2.26392e-08
1.12066e-09
2.22954e-08
1.0729e-09
2.19622e-08
1.02763e-09
2.16394e-08
9.84866e-10
2.13268e-08
9.44269e-10
2.10242e-08
9.05763e-10
2.07313e-08
8.69101e-10
2.04481e-08
8.34166e-10
2.01742e-08
8.00718e-10
1.99095e-08
7.68738e-10
1.96537e-08
7.38095e-10
1.94065e-08
7.08788e-10
1.91679e-08
6.80529e-10
1.89375e-08
6.53349e-10
1.87153e-08
6.27134e-10
1.8501e-08
6.01994e-10
1.82946e-08
5.7717e-10
1.80957e-08
5.53272e-10
1.79045e-08
5.29777e-10
1.77205e-08
5.07273e-10
1.7544e-08
4.8464e-10
1.73745e-08
4.6324e-10
1.72123e-08
4.41866e-10
1.7057e-08
4.21258e-10
1.69088e-08
3.99943e-10
1.67676e-08
3.79251e-10
1.66335e-08
3.58424e-10
1.65061e-08
3.38921e-10
1.63856e-08
3.19199e-10
1.62716e-08
3.00179e-10
1.61648e-08
2.80065e-10
1.60646e-08
2.60657e-10
1.59714e-08
2.40771e-10
1.58847e-08
2.22072e-10
1.58049e-08
2.0328e-10
1.57313e-08
1.85107e-10
1.56645e-08
1.66812e-10
1.56037e-08
1.49078e-10
1.55494e-08
1.31663e-10
1.55006e-08
1.15501e-10
1.54577e-08
1.00359e-10
1.54194e-08
8.64888e-11
1.53861e-08
7.48766e-11
1.53563e-08
6.39458e-11
1.53301e-08
5.70855e-11
1.53058e-08
5.07278e-11
4.9039e-11
3.10027e-08
3.45663e-09
-3.08434e-08
3.14474e-08
4.58813e-09
3.18449e-08
5.21164e-09
3.20925e-08
5.11056e-09
3.22268e-08
4.64868e-09
3.22905e-08
4.15957e-09
3.23023e-08
3.77678e-09
3.22693e-08
3.49356e-09
3.2197e-08
3.26949e-09
3.20917e-08
3.07911e-09
3.19588e-08
2.91407e-09
3.18011e-08
2.77131e-09
3.16196e-08
2.64654e-09
3.14153e-08
2.53453e-09
3.11898e-08
2.43131e-09
3.09453e-08
2.33472e-09
3.06842e-08
2.24371e-09
3.04088e-08
2.15787e-09
3.01213e-08
2.07673e-09
2.98235e-08
1.99984e-09
2.95173e-08
1.92659e-09
2.92045e-08
1.85662e-09
2.8887e-08
1.78951e-09
2.85662e-08
1.7252e-09
2.82434e-08
1.66351e-09
2.792e-08
1.60445e-09
2.75969e-08
1.54758e-09
2.72752e-08
1.49283e-09
2.6956e-08
1.43991e-09
2.664e-08
1.3889e-09
2.63279e-08
1.33968e-09
2.60203e-08
1.29252e-09
2.57174e-08
1.24712e-09
2.54197e-08
1.20352e-09
2.51274e-08
1.16138e-09
2.48409e-08
1.12071e-09
2.45604e-08
1.08118e-09
2.42861e-08
1.043e-09
2.40183e-08
1.00597e-09
2.37567e-08
9.70315e-10
2.35017e-08
9.35529e-10
2.32532e-08
9.01848e-10
2.30114e-08
8.6895e-10
2.27762e-08
8.37182e-10
2.2548e-08
8.05412e-10
2.23265e-08
7.74766e-10
2.21119e-08
7.44364e-10
2.1904e-08
7.15216e-10
2.1703e-08
6.85577e-10
2.15088e-08
6.57498e-10
2.13216e-08
6.29028e-10
2.11412e-08
6.01634e-10
2.09682e-08
5.72991e-10
2.0802e-08
5.45429e-10
2.06432e-08
5.17228e-10
2.04911e-08
4.90989e-10
2.03465e-08
4.63838e-10
2.02087e-08
4.38016e-10
2.00786e-08
4.10157e-10
1.99554e-08
3.83857e-10
1.984e-08
3.56141e-10
1.97314e-08
3.30717e-10
1.96305e-08
3.0412e-10
1.95363e-08
2.79325e-10
1.94499e-08
2.53173e-10
1.937e-08
2.29038e-10
1.92977e-08
2.0394e-10
1.92312e-08
1.81968e-10
1.91719e-08
1.5968e-10
1.91176e-08
1.40829e-10
1.90695e-08
1.22927e-10
1.90253e-08
1.08161e-10
1.89863e-08
9.60969e-11
1.89493e-08
8.77423e-11
8.18876e-11
3.2013e-08
3.33531e-09
-3.18917e-08
3.23696e-08
4.23152e-09
3.27421e-08
4.8391e-09
3.29947e-08
4.85799e-09
3.31402e-08
4.50319e-09
3.32261e-08
4.07366e-09
3.32772e-08
3.72564e-09
3.33009e-08
3.46989e-09
3.33001e-08
3.27034e-09
3.32788e-08
3.1004e-09
3.32412e-08
2.95161e-09
3.31896e-08
2.82293e-09
3.31239e-08
2.71221e-09
3.30435e-08
2.61503e-09
3.29477e-08
2.5271e-09
3.28367e-08
2.44566e-09
3.27112e-08
2.36926e-09
3.25717e-08
2.29731e-09
3.24191e-08
2.22942e-09
3.22537e-08
2.16516e-09
3.20765e-08
2.10386e-09
3.1888e-08
2.04506e-09
3.16894e-08
1.98813e-09
3.14816e-08
1.93299e-09
3.12656e-08
1.8795e-09
3.10423e-08
1.82782e-09
3.08124e-08
1.77745e-09
3.05769e-08
1.72834e-09
3.03368e-08
1.68003e-09
3.00931e-08
1.63258e-09
2.98469e-08
1.58586e-09
2.95989e-08
1.54054e-09
2.93497e-08
1.49629e-09
2.90998e-08
1.45341e-09
2.88499e-08
1.41133e-09
2.86004e-08
1.3702e-09
2.83521e-08
1.32942e-09
2.81056e-08
1.28954e-09
2.78614e-08
1.25022e-09
2.76196e-08
1.21211e-09
2.73807e-08
1.17441e-09
2.71448e-08
1.13773e-09
2.69124e-08
1.10135e-09
2.66837e-08
1.06591e-09
2.64594e-08
1.02969e-09
2.62396e-08
9.94586e-10
2.60246e-08
9.59298e-10
2.58143e-08
9.25538e-10
2.56091e-08
8.90765e-10
2.54087e-08
8.57917e-10
2.52139e-08
8.23853e-10
2.50245e-08
7.90991e-10
2.48416e-08
7.55892e-10
2.46645e-08
7.22541e-10
2.44938e-08
6.879e-10
2.43287e-08
6.56105e-10
2.41704e-08
6.22172e-10
2.40182e-08
5.90235e-10
2.38735e-08
5.54787e-10
2.37352e-08
5.22162e-10
2.36046e-08
4.86799e-10
2.348e-08
4.55311e-10
2.33632e-08
4.20905e-10
2.32526e-08
3.89882e-10
2.31503e-08
3.55514e-10
2.30541e-08
3.25209e-10
2.29661e-08
2.91961e-10
2.28836e-08
2.64476e-10
2.28088e-08
2.34447e-10
2.27388e-08
2.10896e-10
2.2676e-08
1.85719e-10
2.26168e-08
1.67333e-10
2.25643e-08
1.48629e-10
2.25135e-08
1.38497e-10
1.26846e-10
3.3052e-08
3.22735e-09
-3.2944e-08
3.33357e-08
3.94776e-09
3.3673e-08
4.5018e-09
3.39243e-08
4.60671e-09
3.4074e-08
4.35347e-09
3.41632e-08
3.98443e-09
3.42228e-08
3.66606e-09
3.42625e-08
3.43024e-09
3.42844e-08
3.24842e-09
3.42915e-08
3.09329e-09
3.4288e-08
2.95514e-09
3.42769e-08
2.83404e-09
3.4259e-08
2.73007e-09
3.42338e-08
2.64019e-09
3.42006e-08
2.56034e-09
3.41588e-08
2.48749e-09
3.41082e-08
2.41979e-09
3.4049e-08
2.35654e-09
3.3981e-08
2.29742e-09
3.39041e-08
2.2421e-09
3.38181e-08
2.18986e-09
3.37229e-08
2.14025e-09
3.36186e-08
2.09238e-09
3.35056e-08
2.04601e-09
3.33842e-08
2.00095e-09
3.32544e-08
1.95759e-09
3.31166e-08
1.9152e-09
3.29711e-08
1.87388e-09
3.28182e-08
1.83288e-09
3.26587e-08
1.79212e-09
3.24934e-08
1.75112e-09
3.23229e-08
1.71104e-09
3.21478e-08
1.67148e-09
3.19681e-08
1.63307e-09
3.17845e-08
1.59496e-09
3.15972e-08
1.5575e-09
3.14071e-08
1.51951e-09
3.12147e-08
1.48187e-09
3.10209e-08
1.44402e-09
3.08259e-08
1.40716e-09
3.06302e-08
1.37008e-09
3.04339e-08
1.33404e-09
3.02374e-08
1.29786e-09
3.00409e-08
1.26239e-09
2.98456e-08
1.22498e-09
2.96518e-08
1.1884e-09
2.94603e-08
1.15085e-09
2.92707e-08
1.11509e-09
2.90838e-08
1.07773e-09
2.88986e-08
1.04305e-09
2.87163e-08
1.00616e-09
2.8537e-08
9.70336e-10
2.83625e-08
9.30398e-10
2.81921e-08
8.92875e-10
2.80266e-08
8.53454e-10
2.78642e-08
8.18452e-10
2.77067e-08
7.79698e-10
2.75535e-08
7.43436e-10
2.7407e-08
7.01298e-10
2.72656e-08
6.63544e-10
2.71309e-08
6.21474e-10
2.70007e-08
5.85579e-10
2.68771e-08
5.44461e-10
2.67584e-08
5.08573e-10
2.66475e-08
4.66468e-10
2.65418e-08
4.30838e-10
2.64442e-08
3.89654e-10
2.6351e-08
3.5761e-10
2.62654e-08
3.20047e-10
2.61835e-08
2.92841e-10
2.6109e-08
2.60169e-10
2.60375e-08
2.38885e-10
2.59733e-08
2.12756e-10
2.59107e-08
2.01185e-10
1.82809e-10
3.41139e-08
3.12278e-09
-3.40093e-08
3.43435e-08
3.71811e-09
3.46407e-08
4.20466e-09
3.48851e-08
4.36231e-09
3.50393e-08
4.19923e-09
3.51304e-08
3.89334e-09
3.51918e-08
3.6047e-09
3.52363e-08
3.38567e-09
3.52663e-08
3.21845e-09
3.52832e-08
3.07633e-09
3.52908e-08
2.9476e-09
3.52926e-08
2.83222e-09
3.52906e-08
2.73205e-09
3.52851e-08
2.6457e-09
3.52757e-08
2.56974e-09
3.5262e-08
2.50117e-09
3.52439e-08
2.43788e-09
3.52215e-08
2.379e-09
3.51946e-08
2.32432e-09
3.51629e-08
2.27372e-09
3.51264e-08
2.22643e-09
3.50844e-08
2.1822e-09
3.50368e-08
2.13999e-09
3.49834e-08
2.09937e-09
3.49244e-08
2.06002e-09
3.48593e-08
2.02268e-09
3.47881e-08
1.98635e-09
3.47107e-08
1.95133e-09
3.46269e-08
1.91671e-09
3.45367e-08
1.88233e-09
3.44408e-08
1.84696e-09
3.43395e-08
1.81234e-09
3.42331e-08
1.77793e-09
3.41213e-08
1.74478e-09
3.40046e-08
1.71171e-09
3.38826e-08
1.67953e-09
3.3756e-08
1.64612e-09
3.36252e-08
1.61268e-09
3.34909e-08
1.57828e-09
3.33532e-08
1.5448e-09
3.32129e-08
1.5104e-09
3.30697e-08
1.47723e-09
3.29238e-08
1.4438e-09
3.2775e-08
1.41122e-09
3.26245e-08
1.37545e-09
3.24729e-08
1.34004e-09
3.23211e-08
1.30258e-09
3.21692e-08
1.26702e-09
3.20179e-08
1.22908e-09
3.18657e-08
1.1952e-09
3.17132e-08
1.15863e-09
3.15604e-08
1.12319e-09
3.14102e-08
1.08059e-09
3.12627e-08
1.04038e-09
3.11186e-08
9.97541e-10
3.09752e-08
9.61909e-10
3.08336e-08
9.21267e-10
3.06935e-08
8.8356e-10
3.05584e-08
8.36349e-10
3.04271e-08
7.94855e-10
3.03014e-08
7.47218e-10
3.01779e-08
7.09007e-10
3.00592e-08
6.63234e-10
2.9943e-08
6.24759e-10
2.98331e-08
5.76379e-10
2.97272e-08
5.36728e-10
2.96285e-08
4.88373e-10
2.9533e-08
4.53026e-10
2.94442e-08
4.08867e-10
2.93574e-08
3.79628e-10
2.92773e-08
3.40295e-10
2.91989e-08
3.17237e-10
2.91278e-08
2.8394e-10
2.90577e-08
2.7123e-10
2.46083e-10
3.5197e-08
3.01997e-09
-3.50942e-08
3.53892e-08
3.52595e-09
3.56468e-08
3.94706e-09
3.58786e-08
4.13049e-09
3.60361e-08
4.04174e-09
3.61305e-08
3.79888e-09
3.61929e-08
3.5423e-09
3.62396e-08
3.33902e-09
3.62737e-08
3.18434e-09
3.62957e-08
3.05432e-09
3.63081e-08
2.93525e-09
3.63144e-08
2.82588e-09
3.63173e-08
2.72909e-09
3.63179e-08
2.64514e-09
3.63163e-08
2.5714e-09
3.63122e-08
2.50525e-09
3.63057e-08
2.44438e-09
3.6297e-08
2.38769e-09
3.62862e-08
2.33507e-09
3.62733e-08
2.28665e-09
3.62582e-08
2.24151e-09
3.62406e-08
2.19979e-09
3.62202e-08
2.1604e-09
3.61968e-08
2.12276e-09
3.61706e-08
2.08628e-09
3.6141e-08
2.0523e-09
3.61079e-08
2.01937e-09
3.60712e-08
1.98808e-09
3.60304e-08
1.95748e-09
3.59851e-08
1.9276e-09
3.5936e-08
1.89614e-09
3.58828e-08
1.86547e-09
3.58259e-08
1.83487e-09
3.57648e-08
1.80584e-09
3.56998e-08
1.77673e-09
3.56301e-08
1.74926e-09
3.5556e-08
1.72023e-09
3.54777e-08
1.69095e-09
3.53959e-08
1.66011e-09
3.53103e-08
1.63038e-09
3.52217e-08
1.59902e-09
3.51299e-08
1.56904e-09
3.50346e-08
1.53909e-09
3.49351e-08
1.51073e-09
3.48324e-08
1.47814e-09
3.4727e-08
1.44547e-09
3.462e-08
1.40956e-09
3.45114e-08
1.37557e-09
3.44026e-08
1.33787e-09
3.42919e-08
1.30595e-09
3.41787e-08
1.27184e-09
3.40618e-08
1.24009e-09
3.3945e-08
1.1974e-09
3.38296e-08
1.15571e-09
3.37174e-08
1.10978e-09
3.36043e-08
1.07499e-09
3.34903e-08
1.03528e-09
3.33743e-08
9.99601e-10
3.3261e-08
9.4965e-10
3.315e-08
9.05782e-10
3.30439e-08
8.53365e-10
3.29384e-08
8.14443e-10
3.28353e-08
7.66354e-10
3.27321e-08
7.28012e-10
3.26327e-08
6.75755e-10
3.25357e-08
6.33715e-10
3.24447e-08
5.79366e-10
3.23559e-08
5.41803e-10
3.22725e-08
4.9234e-10
3.21894e-08
4.62738e-10
3.21111e-08
4.18564e-10
3.20333e-08
3.95066e-10
3.19612e-08
3.56027e-10
3.18899e-08
3.42455e-10
3.11224e-10
3.63025e-08
2.92036e-09
-3.62029e-08
3.64689e-08
3.35955e-09
3.66914e-08
3.7246e-09
3.69065e-08
3.91539e-09
3.70645e-08
3.88378e-09
3.71632e-08
3.70018e-09
3.72272e-08
3.47828e-09
3.7275e-08
3.29118e-09
3.73118e-08
3.14753e-09
3.73376e-08
3.02854e-09
3.73535e-08
2.91938e-09
3.73626e-08
2.81682e-09
3.73677e-08
2.72396e-09
3.73704e-08
2.6424e-09
3.73714e-08
2.57045e-09
3.73705e-08
2.50612e-09
3.73678e-08
2.44706e-09
3.73637e-08
2.39185e-09
3.73584e-08
2.34037e-09
3.73519e-08
2.29314e-09
3.73445e-08
2.24887e-09
3.73361e-08
2.20816e-09
3.73265e-08
2.17001e-09
3.73155e-08
2.13376e-09
3.73034e-08
2.09837e-09
3.72898e-08
2.06599e-09
3.72746e-08
2.03456e-09
3.72577e-08
2.00492e-09
3.7239e-08
1.9762e-09
3.72176e-08
1.94897e-09
3.71942e-08
1.91958e-09
3.71685e-08
1.89112e-09
3.71407e-08
1.86268e-09
3.71104e-08
1.83617e-09
3.70779e-08
1.80924e-09
3.70422e-08
1.78493e-09
3.70033e-08
1.7591e-09
3.69614e-08
1.73287e-09
3.6917e-08
1.70456e-09
3.68695e-08
1.67783e-09
3.68196e-08
1.6489e-09
3.67675e-08
1.6212e-09
3.67126e-08
1.59399e-09
3.66536e-08
1.56968e-09
3.65913e-08
1.5405e-09
3.65259e-08
1.51086e-09
3.64585e-08
1.47695e-09
3.63889e-08
1.44512e-09
3.63192e-08
1.40762e-09
3.62479e-08
1.37723e-09
3.61739e-08
1.34588e-09
3.6094e-08
1.31996e-09
3.60116e-08
1.27976e-09
3.59295e-08
1.2378e-09
3.5851e-08
1.18828e-09
3.5772e-08
1.15405e-09
3.56905e-08
1.11679e-09
3.56039e-08
1.08618e-09
3.55173e-08
1.03624e-09
3.54317e-08
9.91407e-10
3.53505e-08
9.34588e-10
3.52695e-08
8.9545e-10
3.5189e-08
8.46815e-10
3.51061e-08
8.10919e-10
3.50242e-08
7.57684e-10
3.49428e-08
7.15047e-10
3.4866e-08
6.5622e-10
3.47907e-08
6.17114e-10
3.47194e-08
5.63564e-10
3.46475e-08
5.34704e-10
3.4578e-08
4.87985e-10
3.45078e-08
4.653e-10
3.4441e-08
4.22807e-10
3.43747e-08
4.08819e-10
3.72629e-10
3.74327e-08
2.82559e-09
-3.73379e-08
3.75805e-08
3.21181e-09
3.77736e-08
3.53141e-09
3.79701e-08
3.71896e-09
3.81253e-08
3.72859e-09
3.82279e-08
3.59758e-09
3.82943e-08
3.41185e-09
3.83431e-08
3.24235e-09
3.83818e-08
3.10888e-09
3.84106e-08
2.9997e-09
3.84297e-08
2.90026e-09
3.84413e-08
2.80522e-09
3.84482e-08
2.71704e-09
3.84523e-08
2.63832e-09
3.84546e-08
2.56816e-09
3.84552e-08
2.50554e-09
3.84541e-08
2.44818e-09
3.84516e-08
2.39437e-09
3.84481e-08
2.34383e-09
3.84437e-08
2.29758e-09
3.84387e-08
2.25379e-09
3.84334e-08
2.21352e-09
3.84274e-08
2.17596e-09
3.84207e-08
2.14046e-09
3.84138e-08
2.1053e-09
3.84061e-08
2.07369e-09
3.83978e-08
2.04282e-09
3.83891e-08
2.01369e-09
3.83798e-08
1.98545e-09
3.83691e-08
1.95966e-09
3.83576e-08
1.93109e-09
3.83451e-08
1.90361e-09
3.83317e-08
1.87616e-09
3.83169e-08
1.85097e-09
3.83014e-08
1.82473e-09
3.82843e-08
1.80205e-09
3.82652e-08
1.77817e-09
3.82443e-08
1.75372e-09
3.82222e-08
1.72669e-09
3.81981e-08
1.70189e-09
3.81725e-08
1.67458e-09
3.81457e-08
1.64795e-09
3.81175e-08
1.62217e-09
3.80863e-08
1.60087e-09
3.80523e-08
1.57452e-09
3.80158e-08
1.54733e-09
3.79778e-08
1.51504e-09
3.79374e-08
1.48552e-09
3.7897e-08
1.44796e-09
3.78563e-08
1.41795e-09
3.78141e-08
1.3881e-09
3.77657e-08
1.36834e-09
3.77129e-08
1.33256e-09
3.76591e-08
1.29164e-09
3.76092e-08
1.2381e-09
3.75603e-08
1.20293e-09
3.75092e-08
1.16792e-09
3.74514e-08
1.144e-09
3.73911e-08
1.09655e-09
3.73303e-08
1.05222e-09
3.72735e-08
9.9135e-10
3.72174e-08
9.51507e-10
3.71612e-08
9.03094e-10
3.71013e-08
8.70823e-10
3.70397e-08
8.19264e-10
3.69771e-08
7.77681e-10
3.69172e-08
7.1612e-10
3.68585e-08
6.75813e-10
3.68029e-08
6.19122e-10
3.67464e-08
5.91246e-10
3.66903e-08
5.44032e-10
3.66326e-08
5.23048e-10
3.65758e-08
4.79575e-10
3.65187e-08
4.65909e-10
4.26067e-10
3.85899e-08
2.73651e-09
-3.85008e-08
3.87229e-08
3.07877e-09
3.88924e-08
3.36192e-09
3.90702e-08
3.54121e-09
3.92197e-08
3.5791e-09
3.93249e-08
3.49236e-09
3.93942e-08
3.34251e-09
3.94442e-08
3.19236e-09
3.94841e-08
3.06902e-09
3.95153e-08
2.96851e-09
3.95374e-08
2.87818e-09
3.95516e-08
2.79102e-09
3.95604e-08
2.70823e-09
3.95658e-08
2.63292e-09
3.95692e-08
2.56478e-09
3.95708e-08
2.50388e-09
3.95707e-08
2.44826e-09
3.95692e-08
2.39595e-09
3.95666e-08
2.34637e-09
3.9563e-08
2.3012e-09
3.95589e-08
2.25787e-09
3.95545e-08
2.21791e-09
3.95498e-08
2.18071e-09
3.95444e-08
2.14582e-09
3.95391e-08
2.11059e-09
3.95334e-08
2.07944e-09
3.95274e-08
2.04879e-09
3.95214e-08
2.01971e-09
3.95156e-08
1.99124e-09
3.9509e-08
1.96624e-09
3.95022e-08
1.93786e-09
3.94952e-08
1.91069e-09
3.94877e-08
1.88363e-09
3.94795e-08
1.85916e-09
3.94715e-08
1.83274e-09
3.9463e-08
1.81055e-09
3.94534e-08
1.78778e-09
3.94429e-08
1.76416e-09
3.94321e-08
1.73748e-09
3.94204e-08
1.71363e-09
3.94076e-08
1.68742e-09
3.93946e-08
1.66095e-09
3.93813e-08
1.63544e-09
3.93662e-08
1.61593e-09
3.93492e-08
1.59156e-09
3.93306e-08
1.56596e-09
3.93111e-08
1.53454e-09
3.92894e-08
1.50713e-09
3.92679e-08
1.46954e-09
3.92469e-08
1.43894e-09
3.92262e-08
1.40879e-09
3.92006e-08
1.39395e-09
3.91698e-08
1.36334e-09
3.91367e-08
1.32471e-09
3.91074e-08
1.26744e-09
3.90806e-08
1.22976e-09
3.90529e-08
1.1956e-09
3.90186e-08
1.17826e-09
3.89804e-08
1.13481e-09
3.89403e-08
1.09231e-09
3.89036e-08
1.02807e-09
3.88684e-08
9.86697e-10
3.8833e-08
9.38467e-10
3.87942e-08
9.09685e-10
3.87518e-08
8.61573e-10
3.87073e-08
8.22191e-10
3.86638e-08
7.59634e-10
3.86213e-08
7.18375e-10
3.85811e-08
6.59267e-10
3.85404e-08
6.31937e-10
3.84989e-08
5.85518e-10
3.84554e-08
5.66596e-10
3.84109e-08
5.24097e-10
3.83651e-08
5.11683e-10
4.69509e-10
3.97761e-08
2.65321e-09
-3.96928e-08
3.98968e-08
2.95813e-09
4.00471e-08
3.21158e-09
4.02074e-08
3.38093e-09
4.03491e-08
3.43739e-09
4.04551e-08
3.38638e-09
4.05273e-08
3.27023e-09
4.05788e-08
3.14086e-09
4.06196e-08
3.02823e-09
4.06525e-08
2.93561e-09
4.06771e-08
2.85357e-09
4.06939e-08
2.77427e-09
4.07047e-08
2.69741e-09
4.07115e-08
2.62612e-09
4.0716e-08
2.56032e-09
4.07186e-08
2.50123e-09
4.07195e-08
2.44739e-09
4.07187e-08
2.39671e-09
4.07169e-08
2.34818e-09
4.07139e-08
2.3042e-09
4.07103e-08
2.26147e-09
4.07064e-08
2.22186e-09
4.07021e-08
2.18496e-09
4.06973e-08
2.15069e-09
4.06925e-08
2.11534e-09
4.06874e-08
2.08455e-09
4.06821e-08
2.05406e-09
4.06769e-08
2.02494e-09
4.06722e-08
1.99595e-09
4.0667e-08
1.9714e-09
4.06619e-08
1.94298e-09
4.06568e-08
1.91582e-09
4.06515e-08
1.88892e-09
4.06457e-08
1.86493e-09
4.06404e-08
1.83805e-09
4.06353e-08
1.81566e-09
4.06296e-08
1.79347e-09
4.06237e-08
1.77013e-09
4.06178e-08
1.74333e-09
4.06117e-08
1.7197e-09
4.06048e-08
1.69435e-09
4.05981e-08
1.66763e-09
4.05919e-08
1.64172e-09
4.05848e-08
1.62295e-09
4.05766e-08
1.5998e-09
4.05675e-08
1.57506e-09
4.05583e-08
1.54373e-09
4.05474e-08
1.51808e-09
4.05362e-08
1.4807e-09
4.05258e-08
1.44929e-09
4.05172e-08
1.41741e-09
4.05057e-08
1.40544e-09
4.04895e-08
1.37952e-09
4.04703e-08
1.344e-09
4.04536e-08
1.28411e-09
4.04401e-08
1.2432e-09
4.04275e-08
1.20823e-09
4.04098e-08
1.19601e-09
4.03878e-08
1.1568e-09
4.0363e-08
1.11703e-09
4.03406e-08
1.05052e-09
4.03202e-08
1.00712e-09
4.02999e-08
9.5876e-10
4.02772e-08
9.32389e-10
4.02504e-08
8.88371e-10
4.02209e-08
8.51627e-10
4.0191e-08
7.89526e-10
4.01618e-08
7.47653e-10
4.01343e-08
6.86777e-10
4.01069e-08
6.5933e-10
4.00783e-08
6.14126e-10
4.00477e-08
5.97151e-10
4.00151e-08
5.56653e-10
3.99805e-08
5.46349e-10
5.03063e-10
4.0993e-08
2.57538e-09
-4.09151e-08
4.11028e-08
2.84834e-09
4.12374e-08
3.077e-09
4.1382e-08
3.23631e-09
4.15148e-08
3.30457e-09
4.16196e-08
3.28155e-09
4.16943e-08
3.19556e-09
4.17476e-08
3.08758e-09
4.17892e-08
2.9866e-09
4.18233e-08
2.90152e-09
4.18499e-08
2.82692e-09
4.18691e-08
2.75515e-09
4.18819e-08
2.68453e-09
4.18903e-08
2.6178e-09
4.18958e-08
2.55475e-09
4.18994e-08
2.49763e-09
4.19012e-08
2.4456e-09
4.19013e-08
2.39668e-09
4.19002e-08
2.34928e-09
4.18978e-08
2.30659e-09
4.18946e-08
2.2646e-09
4.1891e-08
2.22546e-09
4.18872e-08
2.18884e-09
4.18826e-08
2.15525e-09
4.18781e-08
2.11984e-09
4.18733e-08
2.08937e-09
4.18683e-08
2.05901e-09
4.18634e-08
2.02992e-09
4.1859e-08
2.00035e-09
4.18543e-08
1.97604e-09
4.18497e-08
1.94755e-09
4.18452e-08
1.92031e-09
4.18407e-08
1.89348e-09
4.18357e-08
1.86987e-09
4.18312e-08
1.84259e-09
4.18272e-08
1.81962e-09
4.1823e-08
1.79773e-09
4.18188e-08
1.77436e-09
4.18147e-08
1.74736e-09
4.1811e-08
1.72345e-09
4.18065e-08
1.69887e-09
4.18023e-08
1.67184e-09
4.17986e-08
1.64534e-09
4.1795e-08
1.62654e-09
4.17908e-08
1.60401e-09
4.17862e-08
1.57968e-09
4.1782e-08
1.54793e-09
4.17765e-08
1.52357e-09
4.17705e-08
1.4867e-09
4.1765e-08
1.45485e-09
4.17617e-08
1.42068e-09
4.17576e-08
1.40951e-09
4.17502e-08
1.38693e-09
4.17395e-08
1.35469e-09
4.17298e-08
1.29378e-09
4.1723e-08
1.25004e-09
4.17182e-08
1.21308e-09
4.17103e-08
1.20388e-09
4.1699e-08
1.16804e-09
4.16847e-08
1.13134e-09
4.16714e-08
1.06391e-09
4.16599e-08
1.01862e-09
4.16487e-08
9.69963e-10
4.16365e-08
9.44576e-10
4.16205e-08
9.04363e-10
4.16021e-08
8.70024e-10
4.15823e-08
8.0935e-10
4.15626e-08
7.67342e-10
4.1544e-08
7.05353e-10
4.1526e-08
6.77331e-10
4.1507e-08
6.3311e-10
4.14865e-08
6.17673e-10
4.14638e-08
5.79298e-10
4.14386e-08
5.71643e-10
5.28286e-10
4.22419e-08
2.50257e-09
-4.21691e-08
4.23421e-08
2.74814e-09
4.24635e-08
2.95567e-09
4.25943e-08
3.10549e-09
4.27179e-08
3.18098e-09
4.282e-08
3.17942e-09
4.28961e-08
3.11945e-09
4.29512e-08
3.03246e-09
4.29938e-08
2.94406e-09
4.30287e-08
2.8666e-09
4.30569e-08
2.79873e-09
4.3078e-08
2.734e-09
4.30929e-08
2.66966e-09
4.31028e-08
2.60789e-09
4.31095e-08
2.54802e-09
4.3114e-08
2.49311e-09
4.31167e-08
2.44292e-09
4.31176e-08
2.39584e-09
4.31172e-08
2.34968e-09
4.31154e-08
2.30834e-09
4.31128e-08
2.26721e-09
4.31096e-08
2.22871e-09
4.3106e-08
2.19236e-09
4.31018e-08
2.15949e-09
4.30975e-08
2.12413e-09
4.30929e-08
2.09396e-09
4.30882e-08
2.06369e-09
4.30834e-08
2.03475e-09
4.30791e-08
2.00466e-09
4.30747e-08
1.98044e-09
4.30704e-08
1.9519e-09
4.30661e-08
1.9246e-09
4.30618e-08
1.89779e-09
4.30572e-08
1.87447e-09
4.30528e-08
1.84698e-09
4.30491e-08
1.82328e-09
4.30453e-08
1.8015e-09
4.30418e-08
1.77791e-09
4.30383e-08
1.75083e-09
4.30354e-08
1.72635e-09
4.30319e-08
1.70243e-09
4.30285e-08
1.6752e-09
4.30256e-08
1.64825e-09
4.30232e-08
1.62892e-09
4.30207e-08
1.60652e-09
4.30179e-08
1.58243e-09
4.30158e-08
1.55003e-09
4.30129e-08
1.52649e-09
4.30094e-08
1.49025e-09
4.30056e-08
1.45863e-09
4.30039e-08
1.42239e-09
4.30029e-08
1.41045e-09
4.30004e-08
1.38952e-09
4.29949e-08
1.36013e-09
4.29889e-08
1.29981e-09
4.29845e-08
1.25443e-09
4.29825e-08
1.21505e-09
4.29796e-08
1.20681e-09
4.29748e-08
1.17283e-09
4.29671e-08
1.13901e-09
4.29591e-08
1.07197e-09
4.29522e-08
1.02547e-09
4.29455e-08
9.7671e-10
4.2939e-08
9.51027e-10
4.29296e-08
9.13784e-10
4.29184e-08
8.81189e-10
4.29054e-08
8.22411e-10
4.28919e-08
7.80824e-10
4.28789e-08
7.18372e-10
4.28665e-08
6.89706e-10
4.28537e-08
6.45935e-10
4.28398e-08
6.31537e-10
4.28243e-08
5.94802e-10
4.2806e-08
5.89933e-10
5.47319e-10
4.35243e-08
2.43438e-09
-4.34561e-08
4.3616e-08
2.65644e-09
4.37259e-08
2.84574e-09
4.38446e-08
2.98675e-09
4.39591e-08
3.06646e-09
4.40574e-08
3.08115e-09
4.41339e-08
3.04301e-09
4.41906e-08
2.97575e-09
4.42341e-08
2.9005e-09
4.42697e-08
2.83103e-09
4.4299e-08
2.76944e-09
4.43218e-08
2.71117e-09
4.43385e-08
2.65295e-09
4.435e-08
2.59637e-09
4.4358e-08
2.54009e-09
4.43634e-08
2.48768e-09
4.43669e-08
2.43938e-09
4.43686e-08
2.39421e-09
4.43688e-08
2.34939e-09
4.43678e-08
2.30943e-09
4.43657e-08
2.26926e-09
4.43628e-08
2.23157e-09
4.43597e-08
2.19553e-09
4.43558e-08
2.16336e-09