/*--------------------------------*- C++ -*----------------------------------*\
| =========                 |                                                 |
| \\      /  F ield         | OpenFOAM: The Open Source CFD Toolbox           |
|  \\    /   O peration     | Version:  2.3.0                                 |
|   \\  /    A nd           | Web:      www.OpenFOAM.org                      |
|    \\/     M anipulation  |                                                 |
\*---------------------------------------------------------------------------*/
FoamFile
{
    version     2.0;
    format      ascii;
    class       volVectorField;
    location    "0.1";
    object      U_0;
}
// * * * * * * * * * * * * * * * * * * * * * * * * * * * * * * * * * * * * * //

dimensions      [0 1 -1 0 0 0 0];

internalField   nonuniform List<vector> 
3375
(
(0.176187 0.00434407 0)
(0.155704 0.00597909 0)
(0.13711 0.00611514 0)
(0.119034 0.0055007 0)
(0.101606 0.00470184 0)
(0.0856609 0.00382025 0)
(0.0722288 0.00285579 0)
(0.0617097 0.00183966 0)
(0.0539185 0.00095627 0)
(0.0483275 0.000355876 0)
(0.0443753 3.32984e-05 0)
(0.0415897 -0.000100885 0)
(0.0395916 -0.000129033 0)
(0.038099 -0.000106612 0)
(0.0369155 -6.54243e-05 0)
(0.0359167 -2.47305e-05 0)
(0.0350338 5.15963e-06 0)
(0.0342353 2.22214e-05 0)
(0.0335109 2.93237e-05 0)
(0.0328585 3.06947e-05 0)
(0.0322793 2.93266e-05 0)
(0.0317763 2.6442e-05 0)
(0.0313515 2.3007e-05 0)
(0.0310043 1.93429e-05 0)
(0.0307329 1.55466e-05 0)
(0.0305346 1.15367e-05 0)
(0.030407 6.9495e-06 0)
(0.0303479 2.30328e-06 0)
(0.0303509 -7.4296e-06 0)
(0.030403 -1.30356e-05 0)
(0.0304911 -1.62899e-05 0)
(0.0305998 -1.73055e-05 0)
(0.0307156 -1.68578e-05 0)
(0.0308288 -1.54049e-05 0)
(0.0309329 -1.35051e-05 0)
(0.0310249 -1.15955e-05 0)
(0.0311041 -9.89038e-06 0)
(0.0311714 -8.44282e-06 0)
(0.0312281 -7.23072e-06 0)
(0.0312757 -6.20761e-06 0)
(0.0313158 -5.3327e-06 0)
(0.0313496 -4.58124e-06 0)
(0.0313781 -3.93998e-06 0)
(0.0314024 -3.39936e-06 0)
(0.0314231 -2.94955e-06 0)
(0.031441 -2.58043e-06 0)
(0.0314566 -2.27941e-06 0)
(0.0314704 -2.03293e-06 0)
(0.0314827 -1.82961e-06 0)
(0.0314939 -1.6588e-06 0)
(0.0315041 -1.51196e-06 0)
(0.0315134 -1.38405e-06 0)
(0.0315219 -1.27086e-06 0)
(0.0315298 -1.16848e-06 0)
(0.0315372 -1.07447e-06 0)
(0.0315439 -9.88714e-07 0)
(0.0315502 -9.10005e-07 0)
(0.031556 -8.37228e-07 0)
(0.0315614 -7.70024e-07 0)
(0.0315663 -7.08005e-07 0)
(0.0315709 -6.50668e-07 0)
(0.0315752 -5.97582e-07 0)
(0.0315792 -5.48654e-07 0)
(0.0315828 -5.03598e-07 0)
(0.0315862 -4.619e-07 0)
(0.0315893 -4.23381e-07 0)
(0.0315922 -3.87855e-07 0)
(0.0315948 -3.55139e-07 0)
(0.0315973 -3.24939e-07 0)
(0.0315995 -2.97169e-07 0)
(0.0316016 -2.71519e-07 0)
(0.0316035 -2.48043e-07 0)
(0.0316053 -2.26227e-07 0)
(0.0316069 -2.06378e-07 0)
(0.0316084 -1.87822e-07 0)
(0.0316098 -1.71128e-07 0)
(0.031611 -1.55398e-07 0)
(0.0316122 -1.4138e-07 0)
(0.0316132 -1.28077e-07 0)
(0.0316142 -1.1625e-07 0)
(0.031615 -1.05078e-07 0)
(0.0316158 -9.50268e-08 0)
(0.0316166 -8.57108e-08 0)
(0.0316172 -7.70996e-08 0)
(0.0316178 -6.93898e-08 0)
(0.0316184 -6.19531e-08 0)
(0.0316189 -5.55882e-08 0)
(0.0316193 -4.9119e-08 0)
(0.0316197 -4.38528e-08 0)
(0.03162 -3.81983e-08 0)
(0.0316204 -3.38203e-08 0)
(0.0316206 -2.87886e-08 0)
(0.0316209 -2.51807e-08 0)
(0.0316211 -2.05935e-08 0)
(0.0316213 -1.76099e-08 0)
(0.0316214 -1.35039e-08 0)
(0.0316215 -1.12137e-08 0)
(0.0316216 -6.90559e-09 0)
(0.0316216 -7.89289e-09 0)
(0.0316217 -5.10199e-09 0)
(0.191341 0.0076822 0)
(0.189658 0.0108459 0)
(0.187218 0.011894 0)
(0.183395 0.0116705 0)
(0.177994 0.0110029 0)
(0.171269 0.0101084 0)
(0.163791 0.00896425 0)
(0.15601 0.00754906 0)
(0.148334 0.0060136 0)
(0.141028 0.00459263 0)
(0.134229 0.0034318 0)
(0.128025 0.00255117 0)
(0.12246 0.00191235 0)
(0.117535 0.00146858 0)
(0.11321 0.00116775 0)
(0.109424 0.00096326 0)
(0.10611 0.000818087 0)
(0.103202 0.000704326 0)
(0.10065 0.000606246 0)
(0.0984196 0.00051847 0)
(0.096481 0.000438054 0)
(0.0948087 0.000362154 0)
(0.0933858 0.000290625 0)
(0.0921989 0.000224225 0)
(0.0912346 0.000162838 0)
(0.0904791 0.000106608 0)
(0.0899199 5.67162e-05 0)
(0.0895388 1.313e-05 0)
(0.08932 -2.84908e-05 0)
(0.0892386 -6.21975e-05 0)
(0.0892615 -8.23687e-05 0)
(0.0893568 -8.92481e-05 0)
(0.0894955 -8.72788e-05 0)
(0.0896539 -7.97122e-05 0)
(0.0898147 -6.94518e-05 0)
(0.089967 -5.87524e-05 0)
(0.090105 -4.8947e-05 0)
(0.0902263 -4.05596e-05 0)
(0.0903307 -3.36228e-05 0)
(0.0904191 -2.79654e-05 0)
(0.090493 -2.33591e-05 0)
(0.0905544 -1.95975e-05 0)
(0.0906051 -1.65284e-05 0)
(0.0906468 -1.40357e-05 0)
(0.0906814 -1.20228e-05 0)
(0.0907103 -1.04064e-05 0)
(0.0907347 -9.11205e-06 0)
(0.0907557 -8.07368e-06 0)
(0.090774 -7.22658e-06 0)
(0.0907902 -6.52352e-06 0)
(0.0908047 -5.927e-06 0)
(0.0908179 -5.41017e-06 0)
(0.0908299 -4.95546e-06 0)
(0.0908409 -4.54959e-06 0)
(0.090851 -4.17983e-06 0)
(0.0908603 -3.84274e-06 0)
(0.090869 -3.53441e-06 0)
(0.0908769 -3.2509e-06 0)
(0.0908843 -2.98987e-06 0)
(0.0908911 -2.74934e-06 0)
(0.0908974 -2.52787e-06 0)
(0.0909033 -2.32313e-06 0)
(0.0909087 -2.13413e-06 0)
(0.0909137 -1.95978e-06 0)
(0.0909183 -1.79894e-06 0)
(0.0909226 -1.65067e-06 0)
(0.0909266 -1.51376e-06 0)
(0.0909302 -1.38746e-06 0)
(0.0909336 -1.27083e-06 0)
(0.0909367 -1.16343e-06 0)
(0.0909396 -1.06414e-06 0)
(0.0909423 -9.73062e-07 0)
(0.0909448 -8.88609e-07 0)
(0.090947 -8.11618e-07 0)
(0.0909491 -7.39765e-07 0)
(0.090951 -6.74723e-07 0)
(0.0909528 -6.13592e-07 0)
(0.0909544 -5.58776e-07 0)
(0.0909559 -5.06924e-07 0)
(0.0909573 -4.60616e-07 0)
(0.0909585 -4.16781e-07 0)
(0.0909597 -3.77528e-07 0)
(0.0909607 -3.40658e-07 0)
(0.0909616 -3.07222e-07 0)
(0.0909625 -2.76245e-07 0)
(0.0909633 -2.4763e-07 0)
(0.090964 -2.21565e-07 0)
(0.0909646 -1.96935e-07 0)
(0.0909652 -1.74944e-07 0)
(0.0909656 -1.53533e-07 0)
(0.0909661 -1.34971e-07 0)
(0.0909665 -1.15922e-07 0)
(0.0909669 -1.00475e-07 0)
(0.0909671 -8.29038e-08 0)
(0.0909674 -7.01849e-08 0)
(0.0909675 -5.37744e-08 0)
(0.0909677 -4.40024e-08 0)
(0.0909677 -2.31603e-08 0)
(0.0909679 -2.57507e-08 0)
(0.0909678 -1.4482e-08 0)
(0.192363 0.00734821 0)
(0.192862 0.0100769 0)
(0.194003 0.0116614 0)
(0.195068 0.0120958 0)
(0.195479 0.011914 0)
(0.195032 0.0114267 0)
(0.193734 0.0106974 0)
(0.19163 0.0097093 0)
(0.18884 0.00851443 0)
(0.185567 0.00728923 0)
(0.182022 0.00620323 0)
(0.178361 0.0053119 0)
(0.174678 0.00458978 0)
(0.171053 0.00400293 0)
(0.167543 0.00351761 0)
(0.164196 0.00310632 0)
(0.161034 0.00275126 0)
(0.15806 0.00243666 0)
(0.155272 0.00214954 0)
(0.152679 0.00188345 0)
(0.150292 0.00163499 0)
(0.148116 0.00140106 0)
(0.146158 0.00117915 0)
(0.144419 0.000968947 0)
(0.142903 0.000771943 0)
(0.141606 0.000587863 0)
(0.140525 0.00041653 0)
(0.139649 0.000260555 0)
(0.138965 0.000127969 0)
(0.138457 1.90402e-05 0)
(0.138105 -5.93172e-05 0)
(0.137882 -0.000110433 0)
(0.137761 -0.000137005 0)
(0.137718 -0.000144803 0)
(0.13773 -0.000140146 0)
(0.137778 -0.000128325 0)
(0.13785 -0.000113215 0)
(0.137932 -9.73224e-05 0)
(0.138018 -8.20941e-05 0)
(0.138102 -6.82859e-05 0)
(0.138178 -5.62348e-05 0)
(0.138245 -4.60259e-05 0)
(0.138302 -3.76035e-05 0)
(0.138349 -3.082e-05 0)
(0.138386 -2.54618e-05 0)
(0.138415 -2.12962e-05 0)
(0.138438 -1.80799e-05 0)
(0.138456 -1.56018e-05 0)
(0.138471 -1.36748e-05 0)
(0.138482 -1.21425e-05 0)
(0.138492 -1.08954e-05 0)
(0.1385 -9.85413e-06 0)
(0.138507 -8.96326e-06 0)
(0.138513 -8.18559e-06 0)
(0.138519 -7.49255e-06 0)
(0.138524 -6.87073e-06 0)
(0.138528 -6.3073e-06 0)
(0.138532 -5.79319e-06 0)
(0.138536 -5.32359e-06 0)
(0.138539 -4.893e-06 0)
(0.138543 -4.49819e-06 0)
(0.138546 -4.13503e-06 0)
(0.138548 -3.80104e-06 0)
(0.138551 -3.49331e-06 0)
(0.138553 -3.20925e-06 0)
(0.138556 -2.94756e-06 0)
(0.138558 -2.70628e-06 0)
(0.13856 -2.48372e-06 0)
(0.138561 -2.2782e-06 0)
(0.138563 -2.08882e-06 0)
(0.138565 -1.91364e-06 0)
(0.138566 -1.75265e-06 0)
(0.138567 -1.6031e-06 0)
(0.138569 -1.4665e-06 0)
(0.13857 -1.33887e-06 0)
(0.138571 -1.22327e-06 0)
(0.138572 -1.1142e-06 0)
(0.138573 -1.01654e-06 0)
(0.138574 -9.23333e-07 0)
(0.138574 -8.40804e-07 0)
(0.138575 -7.61238e-07 0)
(0.138576 -6.91358e-07 0)
(0.138576 -6.23568e-07 0)
(0.138577 -5.64261e-07 0)
(0.138577 -5.06426e-07 0)
(0.138578 -4.55832e-07 0)
(0.138578 -4.06438e-07 0)
(0.138579 -3.62853e-07 0)
(0.138579 -3.20724e-07 0)
(0.138579 -2.82462e-07 0)
(0.13858 -2.46722e-07 0)
(0.13858 -2.12023e-07 0)
(0.13858 -1.82293e-07 0)
(0.13858 -1.49398e-07 0)
(0.13858 -1.25318e-07 0)
(0.13858 -9.3049e-08 0)
(0.13858 -7.54174e-08 0)
(0.13858 -3.33519e-08 0)
(0.13858 -3.42344e-08 0)
(0.13858 -8.78794e-09 0)
(0.193356 0.0069013 0)
(0.19377 0.00887948 0)
(0.194951 0.0104071 0)
(0.196573 0.0111132 0)
(0.198139 0.0111728 0)
(0.199384 0.0108686 0)
(0.200224 0.0103734 0)
(0.200586 0.00971796 0)
(0.200408 0.0088908 0)
(0.199731 0.00796624 0)
(0.198685 0.00707778 0)
(0.1974 0.00631679 0)
(0.195955 0.00569952 0)
(0.194386 0.00519019 0)
(0.192724 0.00474365 0)
(0.191021 0.00433468 0)
(0.189323 0.00395933 0)
(0.187648 0.00361605 0)
(0.18599 0.00329459 0)
(0.184356 0.00298277 0)
(0.182763 0.00267566 0)
(0.181231 0.00237385 0)
(0.179773 0.00207773 0)
(0.178403 0.00178762 0)
(0.177131 0.00150538 0)
(0.175966 0.0012336 0)
(0.174917 0.000974922 0)
(0.173983 0.000732736 0)
(0.173164 0.000513128 0)
(0.172463 0.000326181 0)
(0.171876 0.000177213 0)
(0.171397 6.34714e-05 0)
(0.171019 -1.64241e-05 0)
(0.170729 -6.78093e-05 0)
(0.170513 -9.77028e-05 0)
(0.17036 -0.000112439 0)
(0.170259 -0.000116874 0)
(0.170201 -0.000114317 0)
(0.170177 -0.000107022 0)
(0.170178 -9.66553e-05 0)
(0.170196 -8.45666e-05 0)
(0.170224 -7.19407e-05 0)
(0.170255 -5.97783e-05 0)
(0.170284 -4.87987e-05 0)
(0.170309 -3.94095e-05 0)
(0.170329 -3.17328e-05 0)
(0.170342 -2.56853e-05 0)
(0.170351 -2.10351e-05 0)
(0.170356 -1.75245e-05 0)
(0.170358 -1.48763e-05 0)
(0.170358 -1.28603e-05 0)
(0.170356 -1.12951e-05 0)
(0.170354 -1.00509e-05 0)
(0.170351 -9.03174e-06 0)
(0.170348 -8.16936e-06 0)
(0.170344 -7.42939e-06 0)
(0.170341 -6.78171e-06 0)
(0.170338 -6.20515e-06 0)
(0.170336 -5.68771e-06 0)
(0.170333 -5.22089e-06 0)
(0.17033 -4.79681e-06 0)
(0.170328 -4.40974e-06 0)
(0.170326 -4.05663e-06 0)
(0.170324 -3.73346e-06 0)
(0.170322 -3.43614e-06 0)
(0.170321 -3.16258e-06 0)
(0.170319 -2.91048e-06 0)
(0.170318 -2.67807e-06 0)
(0.170317 -2.46307e-06 0)
(0.170316 -2.2649e-06 0)
(0.170315 -2.08111e-06 0)
(0.170314 -1.91225e-06 0)
(0.170313 -1.75434e-06 0)
(0.170312 -1.61044e-06 0)
(0.170312 -1.47422e-06 0)
(0.170311 -1.35197e-06 0)
(0.170311 -1.23402e-06 0)
(0.17031 -1.13056e-06 0)
(0.17031 -1.02813e-06 0)
(0.17031 -9.40539e-07 0)
(0.170309 -8.51529e-07 0)
(0.170309 -7.77145e-07 0)
(0.170309 -6.99856e-07 0)
(0.170309 -6.36386e-07 0)
(0.170308 -5.69224e-07 0)
(0.170308 -5.1455e-07 0)
(0.170308 -4.56227e-07 0)
(0.170308 -4.08224e-07 0)
(0.170308 -3.57934e-07 0)
(0.170308 -3.1447e-07 0)
(0.170308 -2.71482e-07 0)
(0.170307 -2.30558e-07 0)
(0.170307 -1.9451e-07 0)
(0.170307 -1.5394e-07 0)
(0.170307 -1.24791e-07 0)
(0.170307 -8.28667e-08 0)
(0.170307 -6.10746e-08 0)
(0.170306 -1.3277e-08 0)
(0.170306 -5.79142e-09 0)
(0.170306 3.86603e-08 0)
(0.19421 0.00659294 0)
(0.194562 0.00809204 0)
(0.195504 0.00941403 0)
(0.196912 0.0101962 0)
(0.198435 0.0103935 0)
(0.199822 0.0101793 0)
(0.200995 0.00976605 0)
(0.201913 0.00926144 0)
(0.202513 0.00865386 0)
(0.202774 0.00793889 0)
(0.202749 0.00719184 0)
(0.202529 0.00651737 0)
(0.202182 0.00597037 0)
(0.201736 0.00553072 0)
(0.201195 0.0051444 0)
(0.200585 0.00477415 0)
(0.199945 0.00441802 0)
(0.199295 0.00408818 0)
(0.198624 0.0037822 0)
(0.197923 0.00348322 0)
(0.197198 0.00317984 0)
(0.196463 0.00287305 0)
(0.195725 0.00256642 0)
(0.194993 0.00226087 0)
(0.194273 0.00195809 0)
(0.193573 0.00166166 0)
(0.192898 0.00137484 0)
(0.192254 0.00110203 0)
(0.191644 0.000850827 0)
(0.191074 0.000629032 0)
(0.19055 0.000440617 0)
(0.19008 0.000289249 0)
(0.189668 0.00017312 0)
(0.189315 8.80352e-05 0)
(0.189016 2.79041e-05 0)
(0.188766 -1.37703e-05 0)
(0.188561 -4.23078e-05 0)
(0.188397 -6.12019e-05 0)
(0.188271 -7.244e-05 0)
(0.188179 -7.72032e-05 0)
(0.188116 -7.64737e-05 0)
(0.188077 -7.13975e-05 0)
(0.188054 -6.33957e-05 0)
(0.188041 -5.39158e-05 0)
(0.188034 -4.42359e-05 0)
(0.188029 -3.52734e-05 0)
(0.188023 -2.75762e-05 0)
(0.188015 -2.13326e-05 0)
(0.188005 -1.64864e-05 0)
(0.187994 -1.28515e-05 0)
(0.187982 -1.01846e-05 0)
(0.187969 -8.25516e-06 0)
(0.187956 -6.85463e-06 0)
(0.187943 -5.81455e-06 0)
(0.187931 -5.03673e-06 0)
(0.187919 -4.43603e-06 0)
(0.187907 -3.95651e-06 0)
(0.187897 -3.5661e-06 0)
(0.187887 -3.23847e-06 0)
(0.187878 -2.95889e-06 0)
(0.187869 -2.71559e-06 0)
(0.187861 -2.5009e-06 0)
(0.187854 -2.31003e-06 0)
(0.187847 -2.139e-06 0)
(0.187841 -1.98385e-06 0)
(0.187836 -1.84211e-06 0)
(0.18783 -1.71164e-06 0)
(0.187826 -1.59146e-06 0)
(0.187821 -1.47936e-06 0)
(0.187817 -1.37587e-06 0)
(0.187814 -1.27813e-06 0)
(0.187811 -1.18863e-06 0)
(0.187808 -1.1018e-06 0)
(0.187805 -1.02424e-06 0)
(0.187802 -9.45839e-07 0)
(0.1878 -8.79107e-07 0)
(0.187798 -8.0744e-07 0)
(0.187796 -7.50395e-07 0)
(0.187795 -6.84487e-07 0)
(0.187793 -6.35466e-07 0)
(0.187792 -5.75031e-07 0)
(0.187791 -5.32335e-07 0)
(0.187789 -4.77195e-07 0)
(0.187788 -4.39442e-07 0)
(0.187788 -3.89167e-07 0)
(0.187787 -3.55041e-07 0)
(0.187786 -3.09457e-07 0)
(0.187785 -2.77246e-07 0)
(0.187785 -2.36637e-07 0)
(0.187784 -2.0475e-07 0)
(0.187784 -1.68774e-07 0)
(0.187783 -1.35931e-07 0)
(0.187783 -1.04664e-07 0)
(0.187782 -6.90546e-08 0)
(0.187782 -4.33688e-08 0)
(0.187781 -3.29824e-09 0)
(0.187781 1.71632e-08 0)
(0.18778 5.52181e-08 0)
(0.187781 7.35932e-08 0)
(0.18778 1.3366e-07 0)
(0.194939 0.00635786 0)
(0.195266 0.00755825 0)
(0.196034 0.00865647 0)
(0.197193 0.00941427 0)
(0.198511 0.00970835 0)
(0.199772 0.0095914 0)
(0.200877 0.0092447 0)
(0.201797 0.00881911 0)
(0.202507 0.00833474 0)
(0.202998 0.00775856 0)
(0.203282 0.0071172 0)
(0.203395 0.00650188 0)
(0.203403 0.00599024 0)
(0.203352 0.00558578 0)
(0.203251 0.00523527 0)
(0.203102 0.00489119 0)
(0.202931 0.00454889 0)
(0.202752 0.00422794 0)
(0.202559 0.00393383 0)
(0.202342 0.0036501 0)
(0.202098 0.00336055 0)
(0.201833 0.0030636 0)
(0.201546 0.00276451 0)
(0.20124 0.00246605 0)
(0.200917 0.00216944 0)
(0.200579 0.00187684 0)
(0.200228 0.00159149 0)
(0.199867 0.0013185 0)
(0.199498 0.00106484 0)
(0.199127 0.00083704 0)
(0.198762 0.000639274 0)
(0.198411 0.000473991 0)
(0.198084 0.000340552 0)
(0.197785 0.000236827 0)
(0.197516 0.000158405 0)
(0.197276 9.94532e-05 0)
(0.197064 5.45715e-05 0)
(0.196878 1.99478e-05 0)
(0.196719 -6.45943e-06 0)
(0.196585 -2.54842e-05 0)
(0.196475 -3.7505e-05 0)
(0.196388 -4.30871e-05 0)
(0.19632 -4.32762e-05 0)
(0.196266 -3.95363e-05 0)
(0.196224 -3.34522e-05 0)
(0.19619 -2.64541e-05 0)
(0.19616 -1.96188e-05 0)
(0.196132 -1.36197e-05 0)
(0.196107 -8.74703e-06 0)
(0.196082 -5.0432e-06 0)
(0.196058 -2.38271e-06 0)
(0.196034 -5.75846e-07 0)
(0.196012 5.91506e-07 0)
(0.195991 1.30578e-06 0)
(0.195971 1.69475e-06 0)
(0.195952 1.8743e-06 0)
(0.195934 1.92023e-06 0)
(0.195917 1.87969e-06 0)
(0.195902 1.78802e-06 0)
(0.195888 1.66758e-06 0)
(0.195874 1.5324e-06 0)
(0.195862 1.39126e-06 0)
(0.195851 1.25084e-06 0)
(0.195841 1.11463e-06 0)
(0.195831 9.85067e-07 0)
(0.195822 8.63779e-07 0)
(0.195814 7.51933e-07 0)
(0.195807 6.48976e-07 0)
(0.1958 5.56316e-07 0)
(0.195794 4.71326e-07 0)
(0.195789 3.97509e-07 0)
(0.195783 3.28722e-07 0)
(0.195779 2.72911e-07 0)
(0.195775 2.17634e-07 0)
(0.195771 1.78544e-07 0)
(0.195767 1.33805e-07 0)
(0.195764 1.09558e-07 0)
(0.195761 7.33999e-08 0)
(0.195758 6.14203e-08 0)
(0.195756 3.30642e-08 0)
(0.195754 3.0326e-08 0)
(0.195752 9.37688e-09 0)
(0.19575 1.35097e-08 0)
(0.195748 -8.38232e-10 0)
(0.195747 8.68803e-09 0)
(0.195745 4.29383e-10 0)
(0.195744 1.36338e-08 0)
(0.195743 1.19051e-08 0)
(0.195742 2.69989e-08 0)
(0.195741 3.19518e-08 0)
(0.195741 4.83846e-08 0)
(0.19574 5.99654e-08 0)
(0.195739 7.67177e-08 0)
(0.195738 9.6006e-08 0)
(0.195738 1.11264e-07 0)
(0.195737 1.38796e-07 0)
(0.195737 1.52476e-07 0)
(0.195736 1.76485e-07 0)
(0.195736 2.01614e-07 0)
(0.195735 2.62821e-07 0)
(0.195568 0.0061448 0)
(0.195882 0.00713315 0)
(0.196528 0.00803905 0)
(0.197483 0.00871979 0)
(0.198592 0.00905903 0)
(0.199699 0.00903508 0)
(0.200701 0.00876897 0)
(0.201542 0.00840929 0)
(0.202214 0.00800302 0)
(0.202736 0.00752413 0)
(0.203103 0.00697547 0)
(0.203313 0.00642302 0)
(0.203413 0.00594452 0)
(0.203467 0.00556018 0)
(0.203498 0.00522739 0)
(0.203503 0.00489909 0)
(0.203488 0.00456815 0)
(0.203466 0.00425414 0)
(0.203435 0.00396602 0)
(0.20339 0.00369059 0)
(0.203331 0.00341126 0)
(0.203254 0.0031245 0)
(0.203158 0.00283553 0)
(0.20304 0.00254801 0)
(0.202902 0.00226289 0)
(0.202742 0.00198138 0)
(0.20256 0.00170621 0)
(0.202356 0.0014424 0)
(0.202132 0.00119662 0)
(0.201894 0.000974381 0)
(0.201646 0.00077835 0)
(0.201394 0.000609978 0)
(0.201149 0.000469713 0)
(0.200915 0.000356781 0)
(0.200696 0.000268149 0)
(0.200495 0.000199039 0)
(0.20031 0.000144404 0)
(0.200141 0.000100302 0)
(0.199988 6.4439e-05 0)
(0.19985 3.59128e-05 0)
(0.199729 1.45536e-05 0)
(0.199623 1.86046e-07 0)
(0.199533 -7.78535e-06 0)
(0.199456 -1.05249e-05 0)
(0.199391 -9.51713e-06 0)
(0.199336 -6.28897e-06 0)
(0.199287 -2.14315e-06 0)
(0.199244 1.97672e-06 0)
(0.199205 5.50149e-06 0)
(0.19917 8.18124e-06 0)
(0.199137 9.99357e-06 0)
(0.199106 1.10476e-05 0)
(0.199077 1.14944e-05 0)
(0.19905 1.14875e-05 0)
(0.199025 1.11776e-05 0)
(0.199002 1.06736e-05 0)
(0.19898 1.00555e-05 0)
(0.198959 9.38173e-06 0)
(0.198941 8.68985e-06 0)
(0.198923 8.0049e-06 0)
(0.198907 7.34143e-06 0)
(0.198893 6.70895e-06 0)
(0.198879 6.11323e-06 0)
(0.198867 5.55586e-06 0)
(0.198855 5.03745e-06 0)
(0.198845 4.5576e-06 0)
(0.198835 4.11606e-06 0)
(0.198826 3.70974e-06 0)
(0.198818 3.33907e-06 0)
(0.19881 2.9985e-06 0)
(0.198804 2.69204e-06 0)
(0.198797 2.40855e-06 0)
(0.198792 2.15907e-06 0)
(0.198787 1.92351e-06 0)
(0.198782 1.72442e-06 0)
(0.198778 1.52858e-06 0)
(0.198774 1.37304e-06 0)
(0.19877 1.21069e-06 0)
(0.198767 1.09125e-06 0)
(0.198764 9.58274e-07 0)
(0.198761 8.67626e-07 0)
(0.198759 7.60634e-07 0)
(0.198757 6.93195e-07 0)
(0.198755 6.08226e-07 0)
(0.198753 5.60103e-07 0)
(0.198751 4.94006e-07 0)
(0.19875 4.61097e-07 0)
(0.198748 4.12489e-07 0)
(0.198747 3.91114e-07 0)
(0.198746 3.58119e-07 0)
(0.198745 3.46461e-07 0)
(0.198744 3.27284e-07 0)
(0.198743 3.23068e-07 0)
(0.198742 3.17951e-07 0)
(0.198742 3.18433e-07 0)
(0.198741 3.26418e-07 0)
(0.198741 3.30752e-07 0)
(0.19874 3.39611e-07 0)
(0.19874 3.62664e-07 0)
(0.198739 4.1161e-07 0)
(0.196114 0.0059375 0)
(0.196414 0.00676517 0)
(0.196972 0.00751649 0)
(0.197767 0.0081034 0)
(0.19869 0.00844633 0)
(0.199646 0.00849487 0)
(0.20055 0.00831116 0)
(0.20132 0.00801817 0)
(0.201938 0.00767274 0)
(0.202442 0.00726421 0)
(0.20283 0.00679519 0)
(0.203075 0.00631216 0)
(0.203207 0.00587457 0)
(0.203294 0.00550737 0)
(0.203367 0.00518527 0)
(0.203419 0.00486967 0)
(0.203452 0.0045514 0)
(0.203473 0.00424695 0)
(0.203485 0.00396478 0)
(0.203487 0.00369398 0)
(0.203481 0.00342123 0)
(0.203464 0.00314371 0)
(0.203427 0.0028649 0)
(0.203371 0.00258747 0)
(0.203297 0.00231281 0)
(0.203203 0.00204249 0)
(0.203088 0.00177889 0)
(0.202949 0.00152623 0)
(0.202791 0.00129017 0)
(0.202615 0.0010753 0)
(0.202427 0.0008837 0)
(0.202232 0.000716449 0)
(0.202035 0.000574217 0)
(0.201843 0.000456767 0)
(0.20166 0.00036204 0)
(0.201487 0.000286229 0)
(0.201325 0.00022493 0)
(0.201175 0.000174404 0)
(0.201036 0.000132261 0)
(0.200907 9.7441e-05 0)
(0.200788 6.96851e-05 0)
(0.200681 4.89214e-05 0)
(0.200584 3.47602e-05 0)
(0.200499 2.63031e-05 0)
(0.200423 2.22613e-05 0)
(0.200357 2.12192e-05 0)
(0.200298 2.18737e-05 0)
(0.200246 2.31931e-05 0)
(0.2002 2.4483e-05 0)
(0.200158 2.53604e-05 0)
(0.20012 2.56806e-05 0)
(0.200084 2.54527e-05 0)
(0.200052 2.47603e-05 0)
(0.200022 2.37218e-05 0)
(0.199994 2.24596e-05 0)
(0.199969 2.10679e-05 0)
(0.199945 1.96203e-05 0)
(0.199923 1.81714e-05 0)
(0.199902 1.67569e-05 0)
(0.199884 1.53994e-05 0)
(0.199866 1.41122e-05 0)
(0.19985 1.29025e-05 0)
(0.199836 1.1773e-05 0)
(0.199822 1.07229e-05 0)
(0.19981 9.75073e-06 0)
(0.199798 8.85326e-06 0)
(0.199788 8.02809e-06 0)
(0.199778 7.26914e-06 0)
(0.199769 6.57575e-06 0)
(0.199761 5.93856e-06 0)
(0.199754 5.3619e-06 0)
(0.199747 4.82921e-06 0)
(0.199741 4.35483e-06 0)
(0.199736 3.91022e-06 0)
(0.199731 3.52518e-06 0)
(0.199726 3.15426e-06 0)
(0.199722 2.84578e-06 0)
(0.199718 2.53734e-06 0)
(0.199714 2.29236e-06 0)
(0.199711 2.0384e-06 0)
(0.199708 1.84478e-06 0)
(0.199706 1.63823e-06 0)
(0.199703 1.48676e-06 0)
(0.199701 1.31993e-06 0)
(0.199699 1.20403e-06 0)
(0.199697 1.07068e-06 0)
(0.199696 9.8361e-07 0)
(0.199694 8.80148e-07 0)
(0.199693 8.15926e-07 0)
(0.199692 7.38199e-07 0)
(0.199691 6.9362e-07 0)
(0.19969 6.37854e-07 0)
(0.199689 6.09118e-07 0)
(0.199688 5.74356e-07 0)
(0.199687 5.57418e-07 0)
(0.199686 5.41482e-07 0)
(0.199686 5.34517e-07 0)
(0.199685 5.27319e-07 0)
(0.199685 5.42411e-07 0)
(0.199684 5.72947e-07 0)
(0.196592 0.00573445 0)
(0.196873 0.00643284 0)
(0.197359 0.00706167 0)
(0.198035 0.00756121 0)
(0.198807 0.00788749 0)
(0.199619 0.0079857 0)
(0.200425 0.00787187 0)
(0.201133 0.00764222 0)
(0.201703 0.00735441 0)
(0.202178 0.00700352 0)
(0.202564 0.00659964 0)
(0.202825 0.00618315 0)
(0.202978 0.00579083 0)
(0.203087 0.00544214 0)
(0.203179 0.00513005 0)
(0.20325 0.00482772 0)
(0.203299 0.00452329 0)
(0.203335 0.00422976 0)
(0.203359 0.00395501 0)
(0.203373 0.00368878 0)
(0.203381 0.00342099 0)
(0.203378 0.00315158 0)
(0.203357 0.00288274 0)
(0.203317 0.00261486 0)
(0.203263 0.00234961 0)
(0.203191 0.00208995 0)
(0.203099 0.00183796 0)
(0.202985 0.0015962 0)
(0.202853 0.00136926 0)
(0.202706 0.00116151 0)
(0.202547 0.000974885 0)
(0.20238 0.000810003 0)
(0.202209 0.0006674 0)
(0.202041 0.000547204 0)
(0.201877 0.000448052 0)
(0.201721 0.000366913 0)
(0.201574 0.000300069 0)
(0.201436 0.000244193 0)
(0.201307 0.000197005 0)
(0.201186 0.000157329 0)
(0.201074 0.000124739 0)
(0.200969 9.90614e-05 0)
(0.200873 7.99303e-05 0)
(0.200786 6.65839e-05 0)
(0.200708 5.79102e-05 0)
(0.200638 5.26494e-05 0)
(0.200575 4.95932e-05 0)
(0.20052 4.77364e-05 0)
(0.20047 4.63543e-05 0)
(0.200425 4.49957e-05 0)
(0.200384 4.34309e-05 0)
(0.200347 4.15899e-05 0)
(0.200312 3.94955e-05 0)
(0.200281 3.72159e-05 0)
(0.200252 3.48333e-05 0)
(0.200226 3.24202e-05 0)
(0.200201 3.0035e-05 0)
(0.200178 2.77213e-05 0)
(0.200157 2.55079e-05 0)
(0.200138 2.34122e-05 0)
(0.20012 2.14434e-05 0)
(0.200104 1.96043e-05 0)
(0.200089 1.78942e-05 0)
(0.200075 1.63097e-05 0)
(0.200062 1.48459e-05 0)
(0.200051 1.34963e-05 0)
(0.20004 1.2256e-05 0)
(0.20003 1.11158e-05 0)
(0.200021 1.00736e-05 0)
(0.200013 9.11585e-06 0)
(0.200005 8.24718e-06 0)
(0.199998 7.44541e-06 0)
(0.199992 6.72805e-06 0)
(0.199986 6.05786e-06 0)
(0.199981 5.4718e-06 0)
(0.199976 4.91205e-06 0)
(0.199972 4.43806e-06 0)
(0.199968 3.97218e-06 0)
(0.199965 3.59121e-06 0)
(0.199961 3.20691e-06 0)
(0.199958 2.90164e-06 0)
(0.199956 2.58777e-06 0)
(0.199953 2.3452e-06 0)
(0.199951 2.09002e-06 0)
(0.199949 1.90067e-06 0)
(0.199947 1.6946e-06 0)
(0.199946 1.5489e-06 0)
(0.199944 1.38588e-06 0)
(0.199943 1.27538e-06 0)
(0.199941 1.14893e-06 0)
(0.19994 1.06877e-06 0)
(0.199939 9.73062e-07 0)
(0.199938 9.17747e-07 0)
(0.199937 8.50556e-07 0)
(0.199937 8.14678e-07 0)
(0.199936 7.72505e-07 0)
(0.199935 7.53306e-07 0)
(0.199934 7.28333e-07 0)
(0.199934 7.33422e-07 0)
(0.199933 7.43985e-07 0)
(0.197011 0.00553505 0)
(0.197271 0.00612829 0)
(0.197695 0.00666284 0)
(0.198279 0.00708814 0)
(0.198935 0.00738654 0)
(0.199619 0.00751498 0)
(0.200325 0.00745679 0)
(0.200976 0.00728251 0)
(0.201504 0.00705004 0)
(0.201943 0.00675231 0)
(0.202319 0.00640131 0)
(0.202588 0.00604157 0)
(0.202754 0.0056951 0)
(0.20288 0.00536851 0)
(0.20299 0.00506753 0)
(0.203069 0.00477952 0)
(0.203125 0.00448989 0)
(0.203171 0.00420714 0)
(0.203202 0.00394068 0)
(0.203221 0.00368091 0)
(0.203233 0.00341837 0)
(0.203235 0.00315615 0)
(0.203218 0.0028974 0)
(0.203183 0.00263994 0)
(0.203135 0.00238423 0)
(0.203073 0.00213447 0)
(0.202991 0.00189313 0)
(0.202888 0.00166141 0)
(0.20277 0.00144274 0)
(0.202639 0.00124128 0)
(0.202496 0.00105906 0)
(0.202345 0.000896518 0)
(0.202191 0.000754117 0)
(0.202037 0.000632171 0)
(0.201886 0.000529699 0)
(0.201741 0.000444209 0)
(0.201604 0.00037257 0)
(0.201474 0.000311929 0)
(0.201352 0.000260214 0)
(0.201238 0.000216235 0)
(0.20113 0.000179436 0)
(0.20103 0.000149507 0)
(0.200937 0.000126032 0)
(0.200851 0.000108308 0)
(0.200773 9.53512e-05 0)
(0.200702 8.60413e-05 0)
(0.200639 7.92876e-05 0)
(0.200582 7.41533e-05 0)
(0.200531 6.99267e-05 0)
(0.200485 6.61276e-05 0)
(0.200443 6.24745e-05 0)
(0.200405 5.88374e-05 0)
(0.20037 5.51824e-05 0)
(0.200339 5.15279e-05 0)
(0.200309 4.79165e-05 0)
(0.200282 4.4394e-05 0)
(0.200258 4.09991e-05 0)
(0.200235 3.77609e-05 0)
(0.200214 3.46981e-05 0)
(0.200194 3.18207e-05 0)
(0.200176 2.91319e-05 0)
(0.20016 2.66298e-05 0)
(0.200145 2.43095e-05 0)
(0.200131 2.21635e-05 0)
(0.200118 2.01836e-05 0)
(0.200106 1.83596e-05 0)
(0.200096 1.66842e-05 0)
(0.200086 1.51445e-05 0)
(0.200077 1.37367e-05 0)
(0.200069 1.24431e-05 0)
(0.200061 1.12685e-05 0)
(0.200054 1.01851e-05 0)
(0.200048 9.21317e-06 0)
(0.200042 8.30693e-06 0)
(0.200037 7.5102e-06 0)
(0.200032 6.75297e-06 0)
(0.200028 6.10543e-06 0)
(0.200024 5.47499e-06 0)
(0.20002 4.95138e-06 0)
(0.200017 4.43083e-06 0)
(0.200014 4.00847e-06 0)
(0.200011 3.58235e-06 0)
(0.200009 3.2443e-06 0)
(0.200006 2.89661e-06 0)
(0.200005 2.63038e-06 0)
(0.200003 2.34802e-06 0)
(0.200001 2.14102e-06 0)
(0.199999 1.91542e-06 0)
(0.199998 1.75659e-06 0)
(0.199997 1.57888e-06 0)
(0.199996 1.46155e-06 0)
(0.199995 1.32383e-06 0)
(0.199994 1.24068e-06 0)
(0.199993 1.13943e-06 0)
(0.199992 1.08365e-06 0)
(0.199991 1.014e-06 0)
(0.199991 9.81951e-07 0)
(0.19999 9.37406e-07 0)
(0.19999 9.32529e-07 0)
(0.199989 9.23225e-07 0)
(0.19738 0.0053422 0)
(0.197621 0.00584909 0)
(0.197987 0.00630918 0)
(0.198496 0.00667437 0)
(0.199063 0.00693989 0)
(0.19964 0.00708384 0)
(0.200251 0.0070708 0)
(0.200846 0.00694103 0)
(0.201333 0.0067555 0)
(0.201735 0.0065096 0)
(0.202094 0.00620554 0)
(0.202367 0.00589119 0)
(0.202542 0.00558765 0)
(0.202679 0.00528706 0)
(0.202802 0.00499811 0)
(0.202889 0.00472447 0)
(0.202949 0.0044517 0)
(0.203001 0.00418037 0)
(0.203041 0.00392187 0)
(0.203062 0.00367023 0)
(0.203075 0.00341484 0)
(0.203081 0.00315988 0)
(0.203067 0.0029111 0)
(0.203035 0.00266473 0)
(0.202991 0.00241836 0)
(0.202935 0.00217684 0)
(0.20286 0.00194448 0)
(0.202765 0.00172199 0)
(0.202656 0.00151115 0)
(0.202537 0.00131563 0)
(0.202407 0.00113785 0)
(0.202269 0.000978207 0)
(0.202127 0.000836846 0)
(0.201985 0.000713994 0)
(0.201845 0.000608963 0)
(0.201709 0.000519763 0)
(0.201579 0.000443808 0)
(0.201456 0.000378711 0)
(0.20134 0.000322684 0)
(0.201231 0.000274609 0)
(0.201128 0.000233849 0)
(0.201031 0.000199968 0)
(0.200941 0.000172476 0)
(0.200858 0.000150684 0)
(0.200782 0.000133696 0)
(0.200712 0.000120507 0)
(0.200649 0.00011014 0)
(0.200592 0.000101733 0)
(0.200541 9.46088e-05 0)
(0.200495 8.82799e-05 0)
(0.200453 8.24337e-05 0)
(0.200415 7.68936e-05 0)
(0.20038 7.1577e-05 0)
(0.200348 6.64578e-05 0)
(0.200319 6.15415e-05 0)
(0.200292 5.68453e-05 0)
(0.200267 5.23864e-05 0)
(0.200244 4.81779e-05 0)
(0.200223 4.42266e-05 0)
(0.200204 4.05338e-05 0)
(0.200186 3.70956e-05 0)
(0.20017 3.39045e-05 0)
(0.200155 3.09507e-05 0)
(0.200141 2.82222e-05 0)
(0.200128 2.57074e-05 0)
(0.200116 2.3392e-05 0)
(0.200106 2.12659e-05 0)
(0.200096 1.93125e-05 0)
(0.200087 1.75262e-05 0)
(0.200079 1.5885e-05 0)
(0.200071 1.4394e-05 0)
(0.200064 1.30191e-05 0)
(0.200058 1.17837e-05 0)
(0.200052 1.06334e-05 0)
(0.200047 9.61856e-06 0)
(0.200042 8.65724e-06 0)
(0.200038 7.83001e-06 0)
(0.200034 7.02954e-06 0)
(0.20003 6.35823e-06 0)
(0.200027 5.69686e-06 0)
(0.200024 5.15332e-06 0)
(0.200021 4.61112e-06 0)
(0.200019 4.17433e-06 0)
(0.200017 3.73089e-06 0)
(0.200015 3.38522e-06 0)
(0.200013 3.0238e-06 0)
(0.200011 2.75356e-06 0)
(0.20001 2.46303e-06 0)
(0.200009 2.25437e-06 0)
(0.200007 2.02348e-06 0)
(0.200006 1.86775e-06 0)
(0.200005 1.68655e-06 0)
(0.200004 1.57458e-06 0)
(0.200003 1.43811e-06 0)
(0.200003 1.3617e-06 0)
(0.200002 1.26368e-06 0)
(0.200001 1.21829e-06 0)
(0.2 1.1527e-06 0)
(0.2 1.13847e-06 0)
(0.199999 1.1097e-06 0)
(0.197705 0.00515702 0)
(0.197928 0.00559171 0)
(0.198246 0.00599213 0)
(0.198688 0.00631137 0)
(0.199187 0.006543 0)
(0.199678 0.00668977 0)
(0.200199 0.00671337 0)
(0.200736 0.0066193 0)
(0.201187 0.00646967 0)
(0.201551 0.0062732 0)
(0.201888 0.00601497 0)
(0.202164 0.00573621 0)
(0.202344 0.00546889 0)
(0.202484 0.00519745 0)
(0.202616 0.00492314 0)
(0.202712 0.00466334 0)
(0.202774 0.0044089 0)
(0.202831 0.00415021 0)
(0.202878 0.00389859 0)
(0.202902 0.0036559 0)
(0.202916 0.00341064 0)
(0.202925 0.00316365 0)
(0.202916 0.00292309 0)
(0.202885 0.00268657 0)
(0.202844 0.00244923 0)
(0.202793 0.00221544 0)
(0.202725 0.00199166 0)
(0.202638 0.00177873 0)
(0.202538 0.00157636 0)
(0.202429 0.00138712 0)
(0.20231 0.00121378 0)
(0.202183 0.00105701 0)
(0.202052 0.000916726 0)
(0.201921 0.000793119 0)
(0.20179 0.00068584 0)
(0.201663 0.000593377 0)
(0.201541 0.000513581 0)
(0.201424 0.000444441 0)
(0.201314 0.00038443 0)
(0.201209 0.000332513 0)
(0.201111 0.000288003 0)
(0.201018 0.000250371 0)
(0.200931 0.000219069 0)
(0.20085 0.000193415 0)
(0.200776 0.00017258 0)
(0.200708 0.000155662 0)
(0.200646 0.000141778 0)
(0.20059 0.000130143 0)
(0.200539 0.000120119 0)
(0.200493 0.000111225 0)
(0.200452 0.000103128 0)
(0.200413 9.56165e-05 0)
(0.200379 8.85681e-05 0)
(0.200347 8.1918e-05 0)
(0.200318 7.56371e-05 0)
(0.200291 6.97145e-05 0)
(0.200266 6.4146e-05 0)
(0.200244 5.89276e-05 0)
(0.200223 5.40538e-05 0)
(0.200204 4.95159e-05 0)
(0.200186 4.53022e-05 0)
(0.20017 4.1399e-05 0)
(0.200155 3.7791e-05 0)
(0.200141 3.44616e-05 0)
(0.200128 3.1395e-05 0)
(0.200117 2.85731e-05 0)
(0.200106 2.59826e-05 0)
(0.200097 2.36029e-05 0)