/*--------------------------------*- C++ -*----------------------------------*\
| =========                 |                                                 |
| \\      /  F ield         | OpenFOAM: The Open Source CFD Toolbox           |
|  \\    /   O peration     | Version:  2.3.0                                 |
|   \\  /    A nd           | Web:      www.OpenFOAM.org                      |
|    \\/     M anipulation  |                                                 |
\*---------------------------------------------------------------------------*/
FoamFile
{
    version     2.0;
    format      ascii;
    class       surfaceScalarField;
    location    "0.7";
    object      phi;
}
// * * * * * * * * * * * * * * * * * * * * * * * * * * * * * * * * * * * * * //

dimensions      [0 3 -1 0 0 0 0];

internalField   nonuniform List<scalar> 
4357
(
5.05421e-08
1.71412e-09
-5.22562e-08
4.83791e-08
2.16302e-09
4.59785e-08
2.40058e-09
4.3521e-08
2.45751e-09
4.10737e-08
2.44727e-09
3.86366e-08
2.43713e-09
3.62027e-08
2.4339e-09
3.37779e-08
2.42478e-09
3.13775e-08
2.40039e-09
2.90223e-08
2.35523e-09
2.6735e-08
2.28728e-09
2.45385e-08
2.19651e-09
2.24553e-08
2.08324e-09
2.05094e-08
1.94588e-09
1.87221e-08
1.78732e-09
1.71078e-08
1.61427e-09
1.56788e-08
1.42905e-09
1.44403e-08
1.23846e-09
1.33895e-08
1.05077e-09
1.25154e-08
8.74165e-10
1.18001e-08
7.15306e-10
1.12216e-08
5.78437e-10
1.07564e-08
4.65224e-10
1.03812e-08
3.75224e-10
1.00747e-08
3.06444e-10
9.81869e-09
2.56034e-10
9.59832e-09
2.20375e-10
9.40233e-09
1.95989e-10
9.22207e-09
1.80258e-10
9.05116e-09
1.70915e-10
8.8853e-09
1.65857e-10
8.72194e-09
1.63357e-10
8.55986e-09
1.62083e-10
8.39868e-09
1.61177e-10
8.23862e-09
1.60063e-10
8.08015e-09
1.5847e-10
7.92393e-09
1.5622e-10
7.77057e-09
1.53361e-10
7.62054e-09
1.5003e-10
7.47423e-09
1.46306e-10
7.33204e-09
1.42196e-10
7.19421e-09
1.37828e-10
7.06094e-09
1.33274e-10
6.93225e-09
1.28681e-10
6.80817e-09
1.24089e-10
6.68855e-09
1.19611e-10
6.57331e-09
1.15241e-10
6.46224e-09
1.11071e-10
6.35518e-09
1.07058e-10
6.2519e-09
1.03284e-10
6.15222e-09
9.96791e-11
6.0559e-09
9.63208e-11
5.96278e-09
9.31187e-11
5.87263e-09
9.01547e-11
5.78531e-09
8.7317e-11
5.70061e-09
8.47015e-11
5.61843e-09
8.21753e-11
5.53858e-09
7.98542e-11
5.46099e-09
7.75849e-11
5.38549e-09
7.55054e-11
5.31205e-09
7.34411e-11
5.24049e-09
7.15578e-11
5.17084e-09
6.96532e-11
5.10291e-09
6.79291e-11
5.03676e-09
6.6148e-11
4.97221e-09
6.4554e-11
4.90934e-09
6.28678e-11
4.84795e-09
6.13834e-11
4.78818e-09
5.97703e-11
4.7298e-09
5.8383e-11
4.67298e-09
5.68257e-11
4.61745e-09
5.55275e-11
4.56343e-09
5.40147e-11
4.51063e-09
5.2799e-11
4.45932e-09
5.13168e-11
4.40913e-09
5.01838e-11
4.36042e-09
4.87142e-11
4.31276e-09
4.76552e-11
4.2666e-09
4.61673e-11
4.22144e-09
4.5153e-11
4.17785e-09
4.35902e-11
4.13527e-09
4.25813e-11
4.09437e-09
4.09067e-11
4.05438e-09
3.99903e-11
4.01595e-09
3.84232e-11
3.97796e-09
3.79966e-11
3.94101e-09
3.69416e-11
3.9038e-09
3.72116e-11
3.86749e-09
3.63081e-11
3.83099e-09
3.65044e-11
3.79604e-09
3.49513e-11
3.76128e-09
3.47625e-11
3.72867e-09
3.26076e-11
3.69629e-09
3.23779e-11
3.66644e-09
2.9848e-11
3.63646e-09
2.99833e-11
3.60903e-09
2.74274e-11
3.58007e-09
2.89598e-11
3.55246e-09
2.76164e-11
3.60824e-11
5.75544e-08
1.68195e-09
-5.75222e-08
5.75791e-08
2.13829e-09
5.74366e-08
2.5431e-09
5.7095e-08
2.79909e-09
5.66148e-08
2.92752e-09
5.60462e-08
3.00574e-09
5.54002e-08
3.07983e-09
5.46663e-08
3.15869e-09
5.38374e-08
3.22932e-09
5.29167e-08
3.27588e-09
5.19144e-08
3.28961e-09
5.08423e-08
3.26864e-09
4.97119e-08
3.21356e-09
4.85331e-08
3.12474e-09
4.73161e-08
3.0043e-09
4.60748e-08
2.85557e-09
4.48218e-08
2.68207e-09
4.35701e-08
2.49011e-09
4.23326e-08
2.28829e-09
4.11207e-08
2.08611e-09
3.99437e-08
1.89231e-09
3.88083e-08
1.71378e-09
3.77188e-08
1.55478e-09
3.66769e-08
1.41711e-09
3.56828e-08
1.30049e-09
3.47345e-08
1.20433e-09
3.38301e-08
1.12478e-09
3.29689e-08
1.05718e-09
3.21481e-08
1.00112e-09
3.13646e-08
9.54356e-10
3.06159e-08
9.14591e-10
2.98994e-08
8.79891e-10
2.92128e-08
8.48615e-10
2.85543e-08
8.19666e-10
2.79222e-08
7.92186e-10
2.7315e-08
7.65741e-10
2.67313e-08
7.39844e-10
2.61705e-08
7.14238e-10
2.56309e-08
6.89561e-10
2.51117e-08
6.65515e-10
2.46119e-08
6.41983e-10
2.41307e-08
6.19088e-10
2.36671e-08
5.96838e-10
2.32204e-08
5.75397e-10
2.27897e-08
5.54751e-10
2.23743e-08
5.35038e-10
2.19733e-08
5.16186e-10
2.15861e-08
4.98312e-10
2.12119e-08
4.81299e-10
2.08499e-08
4.6525e-10
2.04996e-08
4.50013e-10
2.01602e-08
4.35685e-10
1.98312e-08
4.22083e-10
1.95121e-08
4.09312e-10
1.92022e-08
3.97155e-10
1.89012e-08
3.85744e-10
1.86086e-08
3.74828e-10
1.83238e-08
3.64572e-10
1.80467e-08
3.54702e-10
1.77768e-08
3.45414e-10
1.75138e-08
3.3641e-10
1.72575e-08
3.27929e-10
1.70075e-08
3.19637e-10
1.67636e-08
3.11829e-10
1.65256e-08
3.04125e-10
1.62933e-08
2.96884e-10
1.60665e-08
2.89669e-10
1.58449e-08
2.82912e-10
1.56286e-08
2.76109e-10
1.54172e-08
2.69776e-10
1.52107e-08
2.63323e-10
1.50089e-08
2.57369e-10
1.48117e-08
2.51224e-10
1.46189e-08
2.4561e-10
1.44304e-08
2.39729e-10
1.42462e-08
2.34433e-10
1.40661e-08
2.28766e-10
1.389e-08
2.2375e-10
1.3718e-08
2.1823e-10
1.35497e-08
2.13416e-10
1.33854e-08
2.07926e-10
1.32248e-08
2.03209e-10
1.3068e-08
1.97667e-10
1.29148e-08
1.93204e-10
1.27651e-08
1.88079e-10
1.26184e-08
1.84704e-10
1.24745e-08
1.80885e-10
1.23327e-08
1.79013e-10
1.21933e-08
1.75722e-10
1.20561e-08
1.73656e-10
1.19218e-08
1.69252e-10
1.17902e-08
1.66418e-10
1.16616e-08
1.61203e-10
1.15356e-08
1.58335e-10
1.14126e-08
1.52808e-10
1.1292e-08
1.50635e-10
1.11738e-08
1.45589e-10
1.10566e-08
1.46194e-10
1.09391e-08
1.45073e-10
1.56812e-10
6.2502e-08
1.79975e-09
-6.26198e-08
6.25165e-08
2.12379e-09
6.2605e-08
2.4546e-09
6.26496e-08
2.7545e-09
6.26327e-08
2.9444e-09
6.25778e-08
3.06062e-09
6.25047e-08
3.15297e-09
6.24149e-08
3.24852e-09
6.22994e-08
3.34475e-09
6.21475e-08
3.42781e-09
6.19521e-08
3.48504e-09
6.17097e-08
3.51101e-09
6.14175e-08
3.50579e-09
6.10722e-08
3.47001e-09
6.06723e-08
3.40417e-09
6.02184e-08
3.3095e-09
5.97117e-08
3.18873e-09
5.91554e-08
3.04645e-09
5.85546e-08
2.88911e-09
5.79161e-08
2.72455e-09
5.72478e-08
2.5607e-09
5.65569e-08
2.40462e-09
5.58503e-08
2.26141e-09
5.51333e-08
2.13413e-09
5.441e-08
2.02378e-09
5.36844e-08
1.92989e-09
5.29591e-08
1.85016e-09
5.22342e-08
1.78202e-09
5.15114e-08
1.72395e-09
5.07914e-08
1.67433e-09
5.00748e-08
1.63125e-09
4.93617e-08
1.59295e-09
4.86525e-08
1.55783e-09
4.79474e-08
1.52475e-09
4.72468e-08
1.49279e-09
4.65511e-08
1.46142e-09
4.58608e-08
1.43015e-09
4.51761e-08
1.39892e-09
4.44979e-08
1.36781e-09
4.38266e-08
1.33683e-09
4.31627e-08
1.30585e-09
4.25068e-08
1.27499e-09
4.18594e-08
1.24428e-09
4.12208e-08
1.21392e-09
4.05917e-08
1.18395e-09
3.99721e-08
1.15454e-09
3.93626e-08
1.12572e-09
3.87633e-08
1.09761e-09
3.81744e-08
1.07019e-09
3.75961e-08
1.04357e-09
3.70284e-08
1.0177e-09
3.64714e-08
9.92667e-10
3.59251e-08
9.68382e-10
3.53895e-08
9.44929e-10
3.48645e-08
9.22193e-10
3.435e-08
9.00254e-10
3.38458e-08
8.78979e-10
3.33519e-08
8.58448e-10
3.28681e-08
8.38524e-10
3.23943e-08
8.19281e-10
3.19301e-08
8.00588e-10
3.14755e-08
7.82512e-10
3.10302e-08
7.6493e-10
3.05941e-08
7.4791e-10
3.01669e-08
7.31331e-10
2.97485e-08
7.15261e-10
2.93386e-08
6.99588e-10
2.89372e-08
6.84376e-10
2.85437e-08
6.69525e-10
2.81584e-08
6.55091e-10
2.77808e-08
6.40989e-10
2.74109e-08
6.27261e-10
2.70482e-08
6.1385e-10
2.66931e-08
6.00754e-10
2.63448e-08
5.87974e-10
2.60038e-08
5.75456e-10
2.56694e-08
5.63237e-10
2.53419e-08
5.51215e-10
2.50207e-08
5.39467e-10
2.47063e-08
5.27789e-10
2.43979e-08
5.16337e-10
2.40963e-08
5.04795e-10
2.38004e-08
4.93508e-10
2.35114e-08
4.82285e-10
2.32275e-08
4.71929e-10
2.29498e-08
4.62391e-10
2.26762e-08
4.5455e-10
2.24078e-08
4.47394e-10
2.21427e-08
4.40806e-10
2.18833e-08
4.3309e-10
2.16274e-08
4.25072e-10
2.1378e-08
4.15888e-10
2.1132e-08
4.0718e-10
2.08926e-08
3.97733e-10
2.06562e-08
3.89242e-10
2.04262e-08
3.80583e-10
2.01982e-08
3.73636e-10
1.99756e-08
3.68727e-10
1.97512e-08
3.69535e-10
3.79998e-10
6.77837e-08
1.92199e-09
-6.7906e-08
6.77321e-08
2.17545e-09
6.7751e-08
2.43564e-09
6.78041e-08
2.70145e-09
6.78474e-08
2.90107e-09
6.78647e-08
3.04328e-09
6.78696e-08
3.1481e-09
6.78804e-08
3.23778e-09
6.78991e-08
3.32599e-09
6.79187e-08
3.40824e-09
6.79305e-08
3.47327e-09
6.79272e-08
3.51423e-09
6.79037e-08
3.52936e-09
6.7855e-08
3.51867e-09
6.77768e-08
3.48233e-09
6.76651e-08
3.42124e-09
6.75164e-08
3.33747e-09
6.73284e-08
3.23437e-09
6.7101e-08
3.11656e-09
6.68356e-08
2.98989e-09
6.65357e-08
2.86065e-09
6.62055e-08
2.73482e-09
6.58497e-08
2.61717e-09
6.54729e-08
2.51092e-09
6.50792e-08
2.41754e-09
6.4672e-08
2.33706e-09
6.42536e-08
2.26856e-09
6.3825e-08
2.2106e-09
6.33874e-08
2.16155e-09
6.29418e-08
2.11995e-09
6.24887e-08
2.08431e-09
6.20285e-08
2.05319e-09
6.15611e-08
2.02525e-09
6.10864e-08
1.99938e-09
6.06045e-08
1.97469e-09
6.01154e-08
1.95056e-09
5.9619e-08
1.92656e-09
5.91155e-08
1.90245e-09
5.86051e-08
1.87812e-09
5.80884e-08
1.85352e-09
5.75657e-08
1.82863e-09
5.70372e-08
1.80343e-09
5.65035e-08
1.77799e-09
5.59651e-08
1.75236e-09
5.54223e-08
1.72668e-09
5.48759e-08
1.70098e-09
5.43262e-08
1.67541e-09
5.37739e-08
1.64995e-09
5.32193e-08
1.62476e-09
5.26631e-08
1.59977e-09
5.21056e-08
1.57515e-09
5.15476e-08
1.55074e-09
5.09892e-08
1.52677e-09
5.04311e-08
1.50301e-09
4.98736e-08
1.47973e-09
4.93172e-08
1.4566e-09
4.87622e-08
1.43398e-09
4.82092e-08
1.41145e-09
4.76583e-08
1.38945e-09
4.71101e-08
1.36746e-09
4.65647e-08
1.34603e-09
4.60227e-08
1.32452e-09
4.5484e-08
1.30362e-09
4.49494e-08
1.28254e-09
4.44186e-08
1.26214e-09
4.38924e-08
1.24143e-09
4.33705e-08
1.22151e-09
4.28537e-08
1.20115e-09
4.23415e-08
1.18169e-09
4.1835e-08
1.16165e-09
4.13333e-08
1.14267e-09
4.08376e-08
1.12291e-09
4.0347e-08
1.10443e-09
3.98629e-08
1.08493e-09
3.93839e-08
1.06695e-09
3.89117e-08
1.0477e-09
3.84447e-08
1.03023e-09
3.79847e-08
1.01115e-09
3.753e-08
9.9416e-10
3.70827e-08
9.75082e-10
3.66407e-08
9.58408e-10
3.62064e-08
9.39026e-10
3.57775e-08
9.22486e-10
3.53568e-08
9.02989e-10
3.4941e-08
8.87729e-10
3.45331e-08
8.70239e-10
3.41287e-08
8.58968e-10
3.37313e-08
8.44776e-10
3.33364e-08
8.35676e-10
3.29495e-08
8.20044e-10
3.25657e-08
8.08898e-10
3.2191e-08
7.9051e-10
3.18195e-08
7.78761e-10
3.14577e-08
7.59524e-10
3.10982e-08
7.48668e-10
3.07488e-08
7.30045e-10
3.04006e-08
7.21803e-10
3.0062e-08
7.07326e-10
2.97201e-08
7.11439e-10
7.16749e-10
7.34573e-08
2.0456e-09
-7.35809e-08
7.33757e-08
2.25704e-09
7.3344e-08
2.46726e-09
7.33618e-08
2.68373e-09
7.33901e-08
2.87273e-09
7.34095e-08
3.02385e-09
7.34184e-08
3.1392e-09
7.34272e-08
3.22897e-09
7.3443e-08
3.31027e-09
7.34669e-08
3.38427e-09
7.34939e-08
3.44631e-09
7.3517e-08
3.49112e-09
7.35311e-08
3.5153e-09
7.35323e-08
3.51747e-09
7.3517e-08
3.49756e-09
7.34818e-08
3.45647e-09
7.34233e-08
3.39598e-09
7.33389e-08
3.31874e-09
7.32272e-08
3.22832e-09
7.3088e-08
3.12911e-09
7.29226e-08
3.02602e-09
7.27336e-08
2.92377e-09
7.25244e-08
2.82645e-09
7.22983e-08
2.73697e-09
7.20588e-08
2.65707e-09
7.18085e-08
2.58733e-09
7.15495e-08
2.5276e-09
7.12831e-08
2.47701e-09
7.10102e-08
2.4344e-09
7.07317e-08
2.39844e-09
7.0448e-08
2.36802e-09
7.01593e-08
2.34193e-09
6.98653e-08
2.31922e-09
6.95659e-08
2.29882e-09
6.92605e-08
2.28008e-09
6.89488e-08
2.26222e-09
6.86304e-08
2.24498e-09
6.8305e-08
2.22783e-09
6.79723e-08
2.2108e-09
6.76323e-08
2.19355e-09
6.72847e-08
2.17628e-09
6.69294e-08
2.15867e-09
6.65664e-08
2.14105e-09
6.61957e-08
2.12307e-09
6.58172e-08
2.10519e-09
6.54311e-08
2.087e-09
6.50375e-08
2.06906e-09
6.46366e-08
2.05085e-09
6.42283e-08
2.03304e-09
6.38131e-08
2.01495e-09
6.33909e-08
1.99738e-09
6.29622e-08
1.97946e-09
6.25268e-08
1.96216e-09
6.20854e-08
1.94443e-09
6.16377e-08
1.92741e-09
6.11845e-08
1.90981e-09
6.07254e-08
1.89301e-09
6.02614e-08
1.87546e-09
5.97921e-08
1.85882e-09
5.93183e-08
1.84121e-09
5.88397e-08
1.82465e-09
5.83573e-08
1.8069e-09
5.78706e-08
1.79037e-09
5.73807e-08
1.77238e-09
5.6887e-08
1.75583e-09
5.6391e-08
1.73751e-09
5.58916e-08
1.72091e-09
5.53905e-08
1.70219e-09
5.48867e-08
1.68553e-09
5.4382e-08
1.66637e-09
5.3875e-08
1.64966e-09
5.33679e-08
1.63e-09
5.2859e-08
1.61328e-09
5.23509e-08
1.59306e-09
5.18415e-08
1.57638e-09
5.13336e-08
1.55558e-09
5.08248e-08
1.53897e-09
5.03185e-08
1.5175e-09
4.98117e-08
1.50098e-09
4.93081e-08
1.47864e-09
4.88045e-08
1.46202e-09
4.83052e-08
1.43834e-09
4.78064e-08
1.42124e-09
4.73132e-08
1.3962e-09
4.68209e-08
1.38005e-09
4.63343e-08
1.35684e-09
4.5847e-08
1.34625e-09
4.53642e-08
1.32763e-09
4.48794e-08
1.32043e-09
4.44007e-08
1.29877e-09
4.3922e-08
1.28759e-09
4.34519e-08
1.26056e-09
4.29826e-08
1.24813e-09
4.25229e-08
1.21922e-09
4.20632e-08
1.20828e-09
4.16139e-08
1.17941e-09
4.11639e-08
1.17178e-09
4.07251e-08
1.14617e-09
4.02815e-08
1.15505e-09
1.15481e-09
7.95711e-08
2.17391e-09
-7.96994e-08
7.94732e-08
2.35497e-09
7.94109e-08
2.52959e-09
7.93887e-08
2.70593e-09
7.93878e-08
2.87359e-09
7.93915e-08
3.0201e-09
7.93923e-08
3.13841e-09
7.93882e-08
3.23306e-09
7.93858e-08
3.31272e-09
7.93886e-08
3.38147e-09
7.93953e-08
3.43963e-09
7.94015e-08
3.4849e-09
7.94024e-08
3.51435e-09
7.93941e-08
3.52576e-09
7.93733e-08
3.51839e-09
7.93371e-08
3.49267e-09
7.9283e-08
3.45009e-09
7.9209e-08
3.39276e-09
7.91137e-08
3.32359e-09
7.89969e-08
3.24591e-09
7.88594e-08
3.16357e-09
7.87029e-08
3.08022e-09
7.85301e-08
2.99928e-09
7.83438e-08
2.92324e-09
7.81468e-08
2.85404e-09
7.79417e-08
2.79247e-09
7.77303e-08
2.73896e-09
7.75144e-08
2.69292e-09
7.7295e-08
2.65384e-09
7.70729e-08
2.62052e-09
7.68486e-08
2.59232e-09
7.66225e-08
2.56807e-09
7.63944e-08
2.5473e-09
7.61643e-08
2.52887e-09
7.59319e-08
2.51256e-09
7.56967e-08
2.49733e-09
7.54584e-08
2.48329e-09
7.52167e-08
2.46952e-09
7.49711e-08
2.45643e-09
7.47215e-08
2.44321e-09
7.44672e-08
2.43052e-09
7.42084e-08
2.41749e-09
7.39445e-08
2.405e-09
7.36755e-08
2.39205e-09
7.34009e-08
2.37973e-09
7.3121e-08
2.36688e-09
7.28353e-08
2.35484e-09
7.25439e-08
2.3422e-09
7.22464e-08
2.33054e-09
7.19432e-08
2.31816e-09
7.16336e-08
2.30695e-09
7.13182e-08
2.29485e-09
7.09963e-08
2.2841e-09
7.06685e-08
2.27223e-09
7.0334e-08
2.2619e-09
6.99936e-08
2.2502e-09
6.96464e-08
2.24022e-09
6.92933e-08
2.22855e-09
6.89333e-08
2.21882e-09
6.85675e-08
2.20702e-09
6.81947e-08
2.19745e-09
6.78162e-08
2.18538e-09
6.74307e-08
2.17587e-09
6.70397e-08
2.16339e-09
6.66417e-08
2.15386e-09
6.62384e-08
2.14083e-09
6.58281e-08
2.1312e-09
6.54128e-08
2.11746e-09
6.49907e-08
2.10767e-09
6.45639e-08
2.09311e-09
6.41304e-08
2.08316e-09
6.36927e-08
2.06767e-09
6.32485e-08
2.05755e-09
6.28005e-08
2.041e-09
6.23462e-08
2.03071e-09
6.18888e-08
2.013e-09
6.14252e-08
2.00255e-09
6.09592e-08
1.98355e-09
6.04872e-08
1.97292e-09
6.00135e-08
1.95235e-09
5.95342e-08
1.94128e-09
5.90541e-08
1.91845e-09
5.85692e-08
1.90615e-09
5.80851e-08
1.88035e-09
5.75974e-08
1.86776e-09
5.71112e-08
1.843e-09
5.66197e-08
1.83776e-09
5.61264e-08
1.82088e-09
5.56243e-08
1.82251e-09
5.51215e-08
1.8016e-09
5.46142e-08
1.79486e-09
5.41116e-08
1.76323e-09
5.36069e-08
1.75281e-09
5.31079e-08
1.71818e-09
5.26063e-08
1.70991e-09
5.21106e-08
1.67513e-09
5.16115e-08
1.67092e-09
5.112e-08
1.63759e-09
5.0626e-08
1.64906e-09
1.64688e-09
8.61672e-08
2.30853e-09
-8.63018e-08
8.60556e-08
2.46654e-09
8.59707e-08
2.61449e-09
8.59136e-08
2.76306e-09
8.58797e-08
2.90747e-09
8.58591e-08
3.04068e-09
8.58411e-08
3.15649e-09
8.58208e-08
3.2533e-09
8.57998e-08
3.33371e-09
8.57803e-08
3.401e-09
8.57627e-08
3.45724e-09
8.57452e-08
3.50239e-09
8.57244e-08
3.53516e-09
8.56965e-08
3.55367e-09
8.5658e-08
3.55685e-09
8.56063e-08
3.54443e-09
8.55389e-08
3.51744e-09
8.54543e-08
3.47735e-09
8.53513e-08
3.42657e-09
8.52297e-08
3.3675e-09
8.509e-08
3.30327e-09
8.49337e-08
3.23655e-09
8.47627e-08
3.17033e-09
8.45793e-08
3.10658e-09
8.4386e-08
3.04737e-09
8.4185e-08
2.99343e-09
8.39783e-08
2.94566e-09
8.37677e-08
2.9036e-09
8.35541e-08
2.86739e-09
8.33387e-08
2.83589e-09
8.3122e-08
2.80906e-09
8.29045e-08
2.78557e-09
8.26863e-08
2.76553e-09
8.24676e-08
2.74758e-09
8.22481e-08
2.73205e-09
8.20279e-08
2.71754e-09
8.18064e-08
2.70471e-09
8.15839e-08
2.69212e-09
8.13595e-08
2.68078e-09
8.11335e-08
2.66922e-09
8.09052e-08
2.65879e-09
8.06749e-08
2.64785e-09
8.04418e-08
2.63807e-09
8.02063e-08
2.62757e-09
7.99676e-08
2.61837e-09
7.97262e-08
2.60829e-09
7.94814e-08
2.5997e-09
7.92335e-08
2.59007e-09
7.89818e-08
2.58218e-09
7.8727e-08
2.57304e-09
7.8468e-08
2.56589e-09
7.82057e-08
2.55722e-09
7.79389e-08
2.55082e-09
7.76686e-08
2.54257e-09
7.73936e-08
2.53689e-09
7.71148e-08
2.529e-09
7.68311e-08
2.52398e-09
7.65433e-08
2.51631e-09
7.62503e-08
2.51186e-09
7.5953e-08
2.50423e-09
7.56502e-08
2.50026e-09
7.53431e-08
2.49251e-09
7.50301e-08
2.4889e-09
7.47126e-08
2.48089e-09
7.43889e-08
2.47757e-09
7.40605e-08
2.46915e-09
7.37257e-08
2.46601e-09
7.33862e-08
2.45697e-09
7.304e-08
2.45391e-09
7.2689e-08
2.44411e-09
7.2331e-08
2.4411e-09
7.19683e-08
2.43041e-09
7.15984e-08
2.42743e-09
7.12238e-08
2.41566e-09
7.08418e-08
2.41265e-09
7.04551e-08
2.39967e-09
7.00611e-08
2.39657e-09
6.96625e-08
2.38223e-09
6.92564e-08
2.37899e-09
6.88458e-08
2.36296e-09
6.84278e-08
2.35925e-09
6.80055e-08
2.34072e-09
6.75764e-08
2.3353e-09
6.71442e-08
2.31257e-09
6.67073e-08
2.30468e-09
6.62698e-08
2.28041e-09
6.58271e-08
2.28054e-09
6.53767e-08
2.27121e-09
6.49115e-08
2.28779e-09
6.4436e-08
2.27705e-09
6.39535e-08
2.27737e-09
6.34712e-08
2.24553e-09
6.29873e-08
2.23667e-09
6.25044e-08
2.20112e-09
6.20189e-08
2.19543e-09
6.15324e-08
2.16157e-09
6.10413e-08
2.16206e-09
6.05491e-08
2.12978e-09
6.00623e-08
2.13589e-09
2.13229e-09
9.32846e-08
2.45229e-09
-9.34283e-08
9.3158e-08
2.59305e-09
9.3052e-08
2.72056e-09
9.2967e-08
2.84807e-09
9.29014e-08
2.97299e-09
9.28507e-08
3.09147e-09
9.28075e-08
3.19964e-09
9.27664e-08
3.29438e-09
9.27251e-08
3.37501e-09
9.26835e-08
3.44257e-09
9.26419e-08
3.49886e-09
9.25997e-08
3.54464e-09
9.25548e-08
3.58e-09
9.25046e-08
3.60392e-09
9.24457e-08
3.61574e-09
9.23754e-08
3.61475e-09
9.22912e-08
3.60158e-09
9.21917e-08
3.57692e-09
9.20756e-08
3.54265e-09
9.19428e-08
3.50027e-09
9.17937e-08
3.45238e-09
9.16294e-08
3.40086e-09
9.14513e-08
3.34842e-09
9.12614e-08
3.29647e-09
9.10616e-08
3.24719e-09
9.0854e-08
3.20104e-09
9.06403e-08
3.15938e-09
9.04222e-08
3.1217e-09
9.02008e-08
3.08878e-09
8.99772e-08
3.05944e-09
8.9752e-08
3.03425e-09
8.95259e-08
3.0117e-09
8.92989e-08
2.99249e-09
8.90716e-08
2.97494e-09
8.88436e-08
2.96e-09
8.86153e-08
2.94584e-09
8.83863e-08
2.93373e-09
8.81567e-08
2.92171e-09
8.79261e-08
2.91142e-09
8.76946e-08
2.90072e-09
8.74617e-08
2.89166e-09
8.72277e-08
2.88184e-09
8.6992e-08
2.87372e-09
8.6755e-08
2.86458e-09
8.65161e-08
2.85731e-09
8.62756e-08
2.84877e-09
8.6033e-08
2.84234e-09
8.57886e-08
2.8344e-09
8.55419e-08
2.82888e-09
8.52934e-08
2.82155e-09
8.50424e-08
2.81695e-09
8.47894e-08
2.81022e-09
8.45336e-08
2.80656e-09
8.42758e-08
2.80039e-09
8.40151e-08
2.79765e-09
8.37521e-08
2.79198e-09
8.34859e-08
2.79012e-09
8.32174e-08
2.78484e-09
8.29455e-08
2.7838e-09
8.2671e-08
2.77874e-09
8.23928e-08
2.77843e-09
8.21119e-08
2.77345e-09
8.1827e-08
2.77377e-09
8.15391e-08
2.76875e-09
8.12471e-08
2.76963e-09
8.09518e-08
2.76445e-09
8.0652e-08
2.76579e-09
8.03487e-08
2.76025e-09
8.00407e-08
2.76194e-09
7.97289e-08
2.75586e-09
7.94121e-08
2.75788e-09
7.90914e-08
2.75117e-09
7.87653e-08
2.75348e-09
7.8435e-08
2.74599e-09
7.80992e-08
2.74847e-09
7.77588e-08
2.74007e-09
7.74127e-08
2.74263e-09
7.70618e-08
2.73318e-09
7.6705e-08
2.73581e-09
7.63429e-08
2.72497e-09
7.59749e-08
2.72727e-09
7.56013e-08
2.71432e-09
7.52218e-08
2.71486e-09
7.48367e-08
2.69765e-09
7.4447e-08
2.69436e-09
7.40561e-08
2.67131e-09
7.36646e-08
2.67204e-09
7.32635e-08
2.6723e-09
7.28458e-08
2.70554e-09
7.24132e-08
2.70959e-09
7.19755e-08
2.71513e-09
7.1536e-08
2.68503e-09
7.10962e-08
2.67648e-09
7.06527e-08
2.64457e-09
7.0207e-08
2.64111e-09
6.97554e-08
2.61322e-09
6.93004e-08
2.61705e-09
6.88385e-08
2.59164e-09
6.83867e-08
2.58769e-09
2.588e-09
1.00964e-07
2.61046e-09
-1.01122e-07
1.0082e-07
2.73699e-09
1.00693e-07
2.84708e-09
1.00584e-07
2.95788e-09
1.00489e-07
3.06745e-09
1.00408e-07
3.17288e-09
1.00336e-07
3.27161e-09
1.00269e-07
3.36105e-09
1.00204e-07
3.43987e-09
1.00139e-07
3.50749e-09
1.00074e-07
3.56473e-09
1.00006e-07
3.61202e-09
9.99361e-08
3.65004e-09
9.98616e-08
3.67839e-09
9.97802e-08
3.69712e-09
9.96894e-08
3.70561e-09
9.95866e-08
3.70441e-09
9.94699e-08
3.69354e-09
9.93385e-08
3.67405e-09
9.91922e-08
3.64663e-09
9.9031e-08
3.61359e-09
9.88557e-08
3.5761e-09
9.86675e-08
3.53667e-09
9.84678e-08
3.49617e-09
9.82582e-08
3.4568e-09
9.80405e-08
3.41872e-09
9.78162e-08
3.38363e-09
9.7587e-08
3.35094e-09
9.73539e-08
3.32192e-09
9.71179e-08
3.29535e-09
9.68798e-08
3.27236e-09
9.66403e-08
3.25128e-09
9.63994e-08
3.23333e-09
9.61578e-08
3.21658e-09
9.59153e-08
3.2025e-09
9.56722e-08
3.18892e-09
9.54283e-08
3.17764e-09
9.51837e-08
3.16626e-09
9.49382e-08
3.15696e-09
9.46918e-08
3.14709e-09
9.44443e-08
3.13922e-09
9.41957e-08
3.1304e-09
9.39458e-08
3.12368e-09
9.36947e-08
3.1157e-09
9.3442e-08
3.10999e-09
9.3188e-08
3.10274e-09
9.29323e-08
3.09802e-09
9.26753e-08
3.09146e-09
9.24164e-08
3.08775e-09
9.21561e-08
3.08188e-09
9.18938e-08
3.07919e-09
9.16301e-08
3.07399e-09
9.13643e-08
3.07231e-09
9.1097e-08
3.06776e-09
9.08275e-08
3.06709e-09
9.05564e-08
3.06312e-09
9.02831e-08
3.06343e-09
9.00079e-08
3.05996e-09
8.97305e-08
3.06122e-09
8.94512e-08
3.0581e-09
8.91694e-08
3.06022e-09
8.88855e-08
3.05734e-09
8.8599e-08
3.06022e-09
8.83103e-08
3.05748e-09
8.80188e-08
3.06108e-09
8.77249e-08
3.05839e-09
8.74281e-08
3.0626e-09
8.71285e-08
3.0598e-09
8.68259e-08
3.06454e-09
8.65204e-08
3.06143e-09
8.62116e-08
3.06665e-09
8.58996e-08
3.06321e-09
8.55842e-08
3.06888e-09
8.52652e-08
3.06499e-09
8.49427e-08
3.07096e-09
8.46162e-08
3.06654e-09
8.42861e-08
3.07272e-09
8.39517e-08
3.0676e-09
8.36134e-08
3.07407e-09
8.32704e-08
3.06802e-09
8.29233e-08
3.07435e-09
8.25707e-08
3.06696e-09
8.22128e-08
3.07273e-09
8.18464e-08
3.06405e-09
8.14751e-08
3.06568e-09
8.11e-08
3.04636e-09
8.07253e-08
3.04675e-09
8.03467e-08
3.05087e-09
7.99657e-08
3.08658e-09
7.95795e-08
3.09584e-09
7.91906e-08
3.10404e-09
7.87941e-08
3.08145e-09
7.83929e-08
3.07776e-09
7.79815e-08
3.05591e-09
7.75654e-08
3.05721e-09
7.714e-08
3.0386e-09
7.67098e-08
3.04725e-09
7.62695e-08
3.03202e-09
7.58316e-08
3.02554e-09
3.0353e-09
1.09238e-07
2.77739e-09
-1.09405e-07
1.09084e-07
2.8915e-09
1.08939e-07
2.99208e-09
1.08805e-07
3.09172e-09
1.08683e-07
3.18941e-09
1.08572e-07
3.28369e-09
1.0847e-07
3.37326e-09
1.08375e-07
3.45628e-09
1.08283e-07
3.53171e-09
1.08192e-07
3.59841e-09
1.08101e-07
3.65642e-09
1.08007e-07
3.7055e-09
1.07911e-07
3.74625e-09
1.07811e-07
3.77849e-09
1.07705e-07
3.80284e-09
1.07592e-07
3.81905e-09
1.07468e-07
3.8281e-09
1.07332e-07
3.82947e-09
1.07183e-07
3.82272e-09
1.07022e-07
3.80843e-09
1.06847e-07
3.78865e-09
1.06659e-07
3.76404e-09
1.06458e-07
3.73679e-09
1.06247e-07
3.70732e-09
1.06026e-07
3.67774e-09
1.05797e-07
3.64796e-09
1.05561e-07
3.61987e-09
1.05319e-07
3.59277e-09
1.05073e-07
3.5683e-09
1.04823e-07
3.54521e-09
1.0457e-07
3.52504e-09
1.04315e-07
3.50607e-09
1.04059e-07
3.48992e-09
1.03801e-07
3.47452e-09
1.03542e-07
3.46171e-09
1.03281e-07
3.44914e-09
1.0302e-07
3.43895e-09
1.02758e-07
3.42852e-09
1.02494e-07
3.42034e-09
1.0223e-07
3.4115e-09
1.01964e-07
3.40488e-09
1.01698e-07
3.39724e-09
1.01429e-07
3.3919e-09
1.0116e-07
3.38522e-09
1.00889e-07
3.38103e-09
1.00616e-07
3.37518e-09
1.00342e-07
3.37208e-09
1.00067e-07
3.367e-09
9.97895e-08
3.36498e-09
9.95107e-08
3.36064e-09
9.92302e-08
3.35968e-09
9.89481e-08
3.35609e-09
9.86642e-08
3.35617e-09
9.83787e-08
3.35327e-09
9.80914e-08
3.3544e-09
9.78024e-08
3.35215e-09
9.75115e-08
3.3543e-09
9.72189e-08
3.35262e-09
9.69243e-08
3.35577e-09
9.66279e-08
3.35453e-09
9.63295e-08
3.3586e-09
9.60291e-08
3.35772e-09
9.57267e-08
3.3626e-09
9.54222e-08
3.36201e-09
9.51156e-08
3.36766e-09
9.48067e-08
3.36729e-09
9.44957e-08
3.37362e-09
9.41822e-08
3.3733e-09
9.38665e-08
3.38027e-09
9.35481e-08
3.37982e-09
9.32274e-08
3.38735e-09
9.29038e-08
3.3868e-09
9.25779e-08
3.39483e-09
9.22488e-08
3.3941e-09
9.19172e-08
3.40248e-09
9.15823e-08
3.4015e-09
9.12448e-08
3.4102e-09
9.09036e-08
3.40877e-09
9.05597e-08
3.41797e-09
9.02116e-08
3.41614e-09
8.98602e-08
3.42579e-09
8.9503e-08
3.42413e-09
8.91407e-08
3.43502e-09
8.87707e-08
3.43405e-09
8.83927e-08
3.44365e-09
8.80017e-08
3.43739e-09
8.76034e-08
3.44506e-09
8.72121e-08
3.44213e-09
8.68464e-08
3.45228e-09
8.64986e-08
3.44367e-09
8.61537e-08
3.44896e-09
8.57942e-08
3.44093e-09
8.54202e-08
3.45178e-09
8.50282e-08
3.44787e-09
8.46239e-08
3.46156e-09
8.42037e-08
3.4588e-09
8.37749e-08
3.47597e-09
8.33304e-08
3.47658e-09
8.28686e-08
3.48736e-09
3.50042e-09
6.85358e-08
2.65667e-09
-6.84151e-08
6.8669e-08
2.75832e-09
6.88117e-08
2.84937e-09
6.8963e-08
2.94041e-09
6.91223e-08
3.03008e-09
6.92893e-08
3.11676e-09
6.94631e-08
3.19944e-09
6.96428e-08
3.27658e-09
6.98271e-08
3.34741e-09
7.00147e-08
3.41079e-09
7.02045e-08
3.46662e-09
7.03956e-08
3.51437e-09
7.05873e-08
3.55453e-09
7.0779e-08
3.58686e-09
7.09697e-08
3.61209e-09
7.11586e-08
3.63015e-09
7.13443e-08
3.64244e-09
7.15262e-08
3.64751e-09
7.17038e-08
3.64514e-09
7.18765e-08
3.6357e-09
7.20441e-08
3.62105e-09
7.22066e-08
3.60153e-09
7.23643e-08
3.57917e-09
7.25175e-08
3.55411e-09
7.26668e-08
3.5284e-09
7.2813e-08
3.50178e-09
7.29567e-08
3.47616e-09
7.30987e-08
3.4508e-09
7.32395e-08
3.42745e-09
7.33799e-08
3.40485e-09
7.35202e-08
3.38472e-09
7.36609e-08
3.36534e-09
7.38024e-08
3.3485e-09
7.39448e-08
3.33212e-09
7.40883e-08
3.3182e-09
7.42331e-08
3.30435e-09
7.43792e-08
3.29283e-09
7.45267e-08
3.28099e-09
7.46757e-08
3.2714e-09
7.4826e-08
3.26114e-09
7.49778e-08
3.2531e-09
7.5131e-08
3.24406e-09
7.52855e-08
3.23734e-09
7.54415e-08
3.22928e-09
7.55988e-08
3.22374e-09
7.57574e-08
3.21653e-09
7.59174e-08
3.2121e-09
7.60787e-08
3.20568e-09
7.62414e-08
3.20232e-09
7.64053e-08
3.19667e-09
7.65707e-08
3.19434e-09
7.67373e-08
3.18943e-09
7.69054e-08
3.18811e-09
7.70748e-08
3.18391e-09
7.72456e-08
3.1836e-09
7.74177e-08
3.18004e-09
7.75912e-08
3.18074e-09
7.77661e-08
3.17774e-09
7.79425e-08
3.17942e-09
7.81201e-08
3.17688e-09
7.82993e-08
3.17945e-09
7.84797e-08
3.17732e-09
7.86616e-08
3.18067e-09
7.88447e-08
3.17888e-09
7.90294e-08
3.18298e-09
7.92152e-08
3.18146e-09
7.94026e-08
3.18622e-09
7.95911e-08
3.18483e-09
7.97811e-08
3.19024e-09
7.99722e-08
3.18879e-09
8.01648e-08
3.19475e-09
8.03582e-08
3.19331e-09
8.05533e-08
3.19976e-09
8.07491e-08
3.19828e-09
8.09465e-08
3.20508e-09
8.11446e-08
3.20349e-09
8.13441e-08
3.21067e-09
8.15441e-08
3.20875e-09
8.17455e-08
3.2166e-09
8.19469e-08
3.21473e-09
8.21492e-08
3.22352e-09
8.23504e-08
3.22287e-09
8.25515e-08
3.23391e-09
8.27498e-08
3.23583e-09
8.29438e-08
3.24962e-09
8.31282e-08
3.25299e-09
8.33063e-08
3.26699e-09
8.34956e-08
3.25276e-09
8.37179e-08
3.23006e-09
8.39681e-08
3.1934e-09
8.42284e-08
3.18868e-09
8.44786e-08
3.19075e-09
8.47164e-08
3.21395e-09
8.49389e-08
3.22533e-09
8.51514e-08
3.24915e-09
8.53516e-08
3.2586e-09
8.55463e-08
3.2812e-09
8.57299e-08
3.29306e-09
8.58936e-08
3.32366e-09
3.33581e-09
7.57483e-08
2.51746e-09
-7.56091e-08
7.58949e-08
2.61171e-09
7.60491e-08
2.69512e-09
7.62114e-08
2.77816e-09
7.63813e-08
2.86021e-09
7.65582e-08
2.93978e-09
7.67417e-08
3.01599e-09
7.69308e-08
3.0875e-09
7.71245e-08
3.15372e-09
7.73217e-08
3.21359e-09
7.75213e-08
3.26696e-09
7.77225e-08
3.31318e-09
7.79244e-08
3.35261e-09
7.81264e-08
3.38494e-09
7.83275e-08
3.41093e-09
7.8527e-08
3.43065e-09
7.87239e-08
3.44553e-09
7.89182e-08
3.45328e-09
7.91089e-08
3.45443e-09
7.92955e-08
3.44905e-09
7.94778e-08
3.43876e-09
7.96557e-08
3.42366e-09
7.98292e-08
3.4056e-09
7.99988e-08
3.38453e-09
8.01649e-08
3.36234e-09
8.0328e-08
3.33869e-09
8.04887e-08
3.31544e-09
8.06477e-08
3.29182e-09
8.08055e-08
3.2696e-09
8.09628e-08
3.24761e-09
8.11199e-08
3.22758e-09
8.12773e-08
3.20792e-09
8.14354e-08
3.19045e-09
8.15943e-08
3.1732e-09
8.17543e-08
3.15818e-09
8.19156e-08
3.14311e-09
8.20782e-08
3.13023e-09
8.22422e-08
3.11701e-09
8.24076e-08
3.10592e-09
8.25746e-08
3.09421e-09
8.2743e-08
3.08464e-09
8.29129e-08
3.07415e-09
8.30844e-08
3.06589e-09
8.32573e-08
3.05641e-09
8.34316e-08
3.04934e-09
8.36075e-08
3.04073e-09
8.37848e-08
3.03477e-09
8.39635e-08
3.02696e-09
8.41438e-08
3.02205e-09
8.43254e-08
3.01503e-09
8.45086e-08
3.01111e-09
8.46932e-08
3.00486e-09
8.48794e-08
3.00191e-09
8.5067e-08
2.99636e-09
8.52562e-08
2.99439e-09
8.54467e-08
2.98948e-09
8.5639e-08
2.98847e-09
8.58326e-08
2.98413e-09
8.6028e-08
2.98407e-09
8.62246e-08
2.98022e-09
8.64231e-08
2.98098e-09
8.66228e-08
2.97758e-09
8.68244e-08
2.97908e-09
8.70273e-08
2.97606e-09
8.7232e-08
2.97826e-09
8.74379e-08
2.97556e-09
8.76457e-08
2.9784e-09
8.78547e-08
2.97585e-09
8.80656e-08
2.97933e-09
8.82776e-08
2.9768e-09
8.84915e-08
2.9808e-09
8.87065e-08
2.97836e-09
8.89234e-08
2.9828e-09
8.91413e-08
2.98042e-09
8.93612e-08
2.98521e-09
8.95818e-08
2.98282e-09
8.98044e-08
2.98807e-09
9.00277e-08
2.98546e-09
9.02528e-08
2.99152e-09
9.04783e-08
2.98927e-09
9.07053e-08
2.99646e-09
9.09323e-08
2.99591e-09
9.11601e-08
3.00605e-09
9.13867e-08
3.00928e-09
9.16133e-08
3.02295e-09
9.18365e-08
3.02982e-09
9.20619e-08
3.04166e-09
9.22978e-08
3.01683e-09
9.25527e-08
2.97518e-09
9.28196e-08
2.9265e-09
9.30889e-08
2.91929e-09
9.33512e-08
2.92848e-09
9.36072e-08
2.958e-09
9.38556e-08
2.97689e-09
9.40991e-08
3.0057e-09
9.43362e-08
3.02143e-09
9.45701e-08
3.04732e-09
9.47961e-08
3.06708e-09
9.50103e-08
3.10942e-09
3.1062e-09
8.37114e-08
2.36147e-09
-8.35554e-08
8.38732e-08
2.4499e-09
8.40412e-08
2.52716e-09
8.4216e-08
2.60338e-09
8.43977e-08
2.6785e-09
8.45859e-08
2.7515e-09
8.47802e-08
2.82175e-09
8.49796e-08
2.88803e-09
8.51835e-08
2.94987e-09
8.53908e-08
3.00626e-09
8.56007e-08
3.05706e-09
8.58123e-08
3.10158e-09
8.60248e-08
3.14011e-09
8.62375e-08
3.17229e-09
8.64496e-08
3.19885e-09
8.66603e-08
3.21995e-09
8.68695e-08
3.23634e-09
8.70768e-08
3.24597e-09
8.72814e-08
3.24977e-09
8.74829e-08
3.24762e-09
8.76807e-08
3.24088e-09
8.78749e-08
3.22948e-09
8.80655e-08
3.21506e-09
8.82526e-08
3.19743e-09