/*--------------------------------*- C++ -*----------------------------------*\
| =========                 |                                                 |
| \\      /  F ield         | OpenFOAM: The Open Source CFD Toolbox           |
|  \\    /   O peration     | Version:  2.3.0                                 |
|   \\  /    A nd           | Web:      www.OpenFOAM.org                      |
|    \\/     M anipulation  |                                                 |
\*---------------------------------------------------------------------------*/
FoamFile
{
    version     2.0;
    format      ascii;
    class       surfaceScalarField;
    location    "0.95";
    object      phi;
}
// * * * * * * * * * * * * * * * * * * * * * * * * * * * * * * * * * * * * * //

dimensions      [0 3 -1 0 0 0 0];

internalField   nonuniform List<scalar> 
6068
(
2.82981e-08
2.83266e-09
-3.11307e-08
2.54386e-08
2.85945e-09
2.27434e-08
2.69525e-09
2.02571e-08
2.48622e-09
1.79971e-08
2.26001e-09
1.59743e-08
2.02288e-09
1.41914e-08
1.78285e-09
1.26436e-08
1.54781e-09
1.13191e-08
1.32452e-09
1.02006e-08
1.11849e-09
9.26679e-09
9.3379e-10
8.494e-09
7.72789e-10
7.85783e-09
6.36172e-10
7.33472e-09
5.2311e-10
6.9031e-09
4.31616e-10
6.54413e-09
3.58973e-10
6.24199e-09
3.02138e-10
5.9839e-09
2.58092e-10
5.75983e-09
2.2407e-10
5.56213e-09
1.97699e-10
5.38509e-09
1.77042e-10
5.2245e-09
1.60589e-10
5.0773e-09
1.472e-10
4.94126e-09
1.36044e-10
4.81472e-09
1.26531e-10
4.69648e-09
1.18249e-10
4.58556e-09
1.10915e-10
4.48122e-09
1.04336e-10
4.38285e-09
9.83786e-11
4.2899e-09
9.29474e-11
4.20192e-09
8.79735e-11
4.11852e-09
8.34035e-11
4.03933e-09
7.91944e-11
3.96402e-09
7.53102e-11
3.8923e-09
7.17194e-11
3.8239e-09
6.83943e-11
3.75859e-09
6.53099e-11
3.69615e-09
6.24441e-11
3.63637e-09
5.97766e-11
3.57908e-09
5.72895e-11
3.52412e-09
5.49666e-11
3.47132e-09
5.27936e-11
3.42057e-09
5.07573e-11
3.37172e-09
4.88464e-11
3.32467e-09
4.70504e-11
3.27931e-09
4.53602e-11
3.23554e-09
4.37674e-11
3.19328e-09
4.22645e-11
3.15243e-09
4.08449e-11
3.11293e-09
3.95026e-11
3.0747e-09
3.82319e-11
3.03767e-09
3.7028e-11
3.00178e-09
3.58863e-11
2.96698e-09
3.48027e-11
2.93321e-09
3.37733e-11
2.90041e-09
3.27947e-11
2.86855e-09
3.18637e-11
2.83757e-09
3.09774e-11
2.80744e-09
3.0133e-11
2.77811e-09
2.9328e-11
2.74955e-09
2.85602e-11
2.72172e-09
2.78273e-11
2.6946e-09
2.71274e-11
2.66814e-09
2.64586e-11
2.64232e-09
2.58193e-11
2.61711e-09
2.52077e-11
2.59249e-09
2.46225e-11
2.56842e-09
2.40622e-11
2.5449e-09
2.35256e-11
2.52189e-09
2.30115e-11
2.49937e-09
2.25188e-11
2.47732e-09
2.20465e-11
2.45573e-09
2.15936e-11
2.43457e-09
2.11592e-11
2.41383e-09
2.07426e-11
2.39348e-09
2.0343e-11
2.37352e-09
1.99597e-11
2.35393e-09
1.95921e-11
2.33469e-09
1.92398e-11
2.31579e-09
1.8902e-11
2.29721e-09
1.85785e-11
2.27894e-09
1.82689e-11
2.26097e-09
1.79728e-11
2.24328e-09
1.76899e-11
2.22586e-09
1.74202e-11
2.2087e-09
1.71634e-11
2.19178e-09
1.69196e-11
2.17509e-09
1.66889e-11
2.15862e-09
1.64713e-11
2.14235e-09
1.62674e-11
2.12627e-09
1.6078e-11
2.11037e-09
1.59043e-11
2.09462e-09
1.57489e-11
2.079e-09
1.56166e-11
2.06348e-09
1.55178e-11
2.04801e-09
1.54777e-11
2.03244e-09
1.55675e-11
2.01651e-09
1.59323e-11
1.99946e-09
1.70416e-11
5.06117e-11
3.4006e-08
3.12091e-09
-3.42943e-08
3.34171e-08
3.44844e-09
3.25893e-08
3.523e-09
3.16018e-08
3.47378e-09
3.05114e-08
3.35035e-09
2.93641e-08
3.17023e-09
2.81971e-08
2.94988e-09
2.70392e-08
2.70569e-09
2.59118e-08
2.45191e-09
2.483e-08
2.20031e-09
2.38035e-08
1.96021e-09
2.28381e-08
1.73828e-09
2.19357e-08
1.53857e-09
2.1096e-08
1.36272e-09
2.03172e-08
1.21049e-09
1.95959e-08
1.08028e-09
1.89283e-08
9.69705e-10
1.83103e-08
8.76063e-10
1.77378e-08
7.96646e-10
1.72065e-08
7.28969e-10
1.67126e-08
6.70873e-10
1.62527e-08
6.20559e-10
1.58233e-08
5.76571e-10
1.54216e-08
5.37757e-10
1.50449e-08
5.03217e-10
1.46909e-08
4.7225e-10
1.43575e-08
4.44309e-10
1.40429e-08
4.18966e-10
1.37454e-08
3.95878e-10
1.34636e-08
3.74767e-10
1.31961e-08
3.55404e-10
1.29419e-08
3.37595e-10
1.27e-08
3.21177e-10
1.24693e-08
3.06005e-10
1.2249e-08
2.91955e-10
1.20385e-08
2.78918e-10
1.1837e-08
2.66797e-10
1.1644e-08
2.55505e-10
1.14588e-08
2.44967e-10
1.12809e-08
2.35115e-10
1.111e-08
2.25889e-10
1.09456e-08
2.17235e-10
1.07872e-08
2.09106e-10
1.06346e-08
2.01457e-10
1.04874e-08
1.94251e-10
1.03453e-08
1.87455e-10
1.02081e-08
1.81035e-10
1.00754e-08
1.74966e-10
9.94698e-09
1.69221e-10
9.8227e-09
1.63777e-10
9.70232e-09
1.58615e-10
9.58563e-09
1.53715e-10
9.47246e-09
1.49059e-10
9.36263e-09
1.44633e-10
9.25598e-09
1.40421e-10
9.15237e-09
1.3641e-10
9.05164e-09
1.32588e-10
8.95368e-09
1.28944e-10
8.85834e-09
1.25466e-10
8.76553e-09
1.22146e-10
8.67511e-09
1.18974e-10
8.587e-09
1.15942e-10
8.50108e-09
1.13043e-10
8.41727e-09
1.10268e-10
8.33548e-09
1.07612e-10
8.25562e-09
1.05068e-10
8.17761e-09
1.0263e-10
8.10138e-09
1.00292e-10
8.02686e-09
9.80506e-11
7.95397e-09
9.59e-11
7.88265e-09
9.38359e-11
7.81284e-09
9.18543e-11
7.74449e-09
8.99514e-11
7.67752e-09
8.81237e-11
7.6119e-09
8.63678e-11
7.54756e-09
8.46808e-11
7.48446e-09
8.30599e-11
7.42255e-09
8.15025e-11
7.36178e-09
8.00062e-11
7.30211e-09
7.85691e-11
7.2435e-09
7.71892e-11
7.18591e-09
7.58648e-11
7.12929e-09
7.45944e-11
7.0736e-09
7.3377e-11
7.01881e-09
7.22115e-11
6.96487e-09
7.10971e-11
6.91176e-09
7.00336e-11
6.85943e-09
6.90208e-11
6.80784e-09
6.80593e-11
6.75696e-09
6.71501e-11
6.70674e-09
6.62955e-11
6.65714e-09
6.54996e-11
6.60812e-09
6.47701e-11
6.55962e-09
6.41224e-11
6.51154e-09
6.35904e-11
6.46377e-09
6.3257e-11
6.41599e-09
6.33439e-11
6.36748e-09
6.44445e-11
6.31227e-09
7.22465e-11
1.30395e-10
3.60978e-08
2.98043e-09
-3.59573e-08
3.61646e-08
3.38161e-09
3.61066e-08
3.58103e-09
3.59249e-08
3.65545e-09
3.56305e-08
3.64477e-09
3.52373e-08
3.56342e-09
3.47624e-08
3.42478e-09
3.42236e-08
3.24452e-09
3.36377e-08
3.03781e-09
3.30198e-08
2.81815e-09
3.23831e-08
2.59695e-09
3.17382e-08
2.38317e-09
3.10937e-08
2.18312e-09
3.04559e-08
2.00054e-09
2.98294e-08
1.83697e-09
2.92174e-08
1.69229e-09
2.86218e-08
1.56527e-09
2.80438e-08
1.45405e-09
2.74839e-08
1.35652e-09
2.69423e-08
1.2706e-09
2.64188e-08
1.19442e-09
2.5913e-08
1.12632e-09
2.54246e-08
1.06498e-09
2.49531e-08
1.00928e-09
2.44979e-08
9.58375e-10
2.40586e-08
9.1157e-10
2.36346e-08
8.68332e-10
2.32253e-08
8.28231e-10
2.28303e-08
7.90926e-10
2.24489e-08
7.56133e-10
2.20807e-08
7.23618e-10
2.17251e-08
6.93178e-10
2.13816e-08
6.64638e-10
2.10498e-08
6.37843e-10
2.07291e-08
6.12656e-10
2.04191e-08
5.88951e-10
2.01192e-08
5.66618e-10
1.98292e-08
5.45554e-10
1.95485e-08
5.25665e-10
1.92767e-08
5.06868e-10
1.90135e-08
4.89084e-10
1.87585e-08
4.72245e-10
1.85114e-08
4.56284e-10
1.82717e-08
4.41143e-10
1.80392e-08
4.26767e-10
1.78135e-08
4.13108e-10
1.75944e-08
4.00119e-10
1.73816e-08
3.87759e-10
1.71749e-08
3.75988e-10
1.69739e-08
3.64772e-10
1.67784e-08
3.54076e-10
1.65882e-08
3.43872e-10
1.64032e-08
3.34129e-10
1.6223e-08
3.24823e-10
1.60475e-08
3.15928e-10
1.58765e-08
3.07422e-10
1.57098e-08
2.99283e-10
1.55472e-08
2.91493e-10
1.53887e-08
2.84032e-10
1.52339e-08
2.76884e-10
1.50829e-08
2.70031e-10
1.49353e-08
2.6346e-10
1.47912e-08
2.57155e-10
1.46504e-08
2.51104e-10
1.45127e-08
2.45293e-10
1.43781e-08
2.39712e-10
1.42463e-08
2.3435e-10
1.41174e-08
2.29195e-10
1.39913e-08
2.24239e-10
1.38677e-08
2.19472e-10
1.37466e-08
2.14885e-10
1.3628e-08
2.10472e-10
1.35117e-08
2.06224e-10
1.33977e-08
2.02134e-10
1.32859e-08
1.98196e-10
1.31762e-08
1.94403e-10
1.30685e-08
1.90751e-10
1.29628e-08
1.87234e-10
1.28589e-08
1.83847e-10
1.27569e-08
1.80586e-10
1.26566e-08
1.77447e-10
1.25581e-08
1.74427e-10
1.24612e-08
1.71522e-10
1.23658e-08
1.68731e-10
1.2272e-08
1.6605e-10
1.21796e-08
1.63478e-10
1.20886e-08
1.61014e-10
1.1999e-08
1.58659e-10
1.19106e-08
1.56411e-10
1.18235e-08
1.54275e-10
1.17375e-08
1.52253e-10
1.16527e-08
1.50353e-10
1.15689e-08
1.48591e-10
1.1486e-08
1.46994e-10
1.14039e-08
1.45628e-10
1.13226e-08
1.44652e-10
1.12414e-08
1.44501e-10
1.11592e-08
1.46632e-10
1.10704e-08
1.61069e-10
2.25894e-10
3.76646e-08
2.7969e-09
-3.74811e-08
3.78615e-08
3.18464e-09
3.80223e-08
3.42029e-09
3.81294e-08
3.5483e-09
3.81757e-08
3.59846e-09
3.81569e-08
3.58222e-09
3.80728e-08
3.50887e-09
3.7927e-08
3.39036e-09
3.77254e-08
3.23944e-09
3.74753e-08
3.0682e-09
3.71849e-08
2.88741e-09
3.6862e-08
2.70608e-09
3.6514e-08
2.5311e-09
3.61474e-08
2.3671e-09
3.57677e-08
2.21669e-09
3.53792e-08
2.08082e-09
3.49852e-08
1.95921e-09
3.45885e-08
1.85084e-09
3.41907e-08
1.75424e-09
3.37935e-08
1.66784e-09
3.33978e-08
1.5901e-09
3.30045e-08
1.51966e-09
3.26141e-08
1.45533e-09
3.22273e-08
1.39614e-09
3.18443e-08
1.34131e-09
3.14657e-08
1.29021e-09
3.10917e-08
1.24236e-09
3.07225e-08
1.19738e-09
3.03585e-08
1.15494e-09
2.99998e-08
1.11481e-09
2.96467e-08
1.07678e-09
2.92992e-08
1.04068e-09
2.89575e-08
1.00636e-09
2.86216e-08
9.73701e-10
2.82917e-08
9.42584e-10
2.79677e-08
9.12911e-10
2.76497e-08
8.84589e-10
2.73378e-08
8.57537e-10
2.70317e-08
8.31678e-10
2.67317e-08
8.06944e-10
2.64375e-08
7.83271e-10
2.61491e-08
7.606e-10
2.58665e-08
7.38878e-10
2.55896e-08
7.18053e-10
2.53183e-08
6.98081e-10
2.50525e-08
6.78917e-10
2.47921e-08
6.60522e-10
2.4537e-08
6.42857e-10
2.42871e-08
6.25888e-10
2.40423e-08
6.09582e-10
2.38025e-08
5.93908e-10
2.35675e-08
5.78836e-10
2.33373e-08
5.64339e-10
2.31117e-08
5.50392e-10
2.28907e-08
5.3697e-10
2.2674e-08
5.24049e-10
2.24617e-08
5.11608e-10
2.22536e-08
4.99625e-10
2.20495e-08
4.88082e-10
2.18495e-08
4.76959e-10
2.16533e-08
4.66238e-10
2.14608e-08
4.55903e-10
2.1272e-08
4.45936e-10
2.10868e-08
4.36324e-10
2.09051e-08
4.27051e-10
2.07267e-08
4.18103e-10
2.05515e-08
4.09467e-10
2.03796e-08
4.01131e-10
2.02108e-08
3.93083e-10
2.00449e-08
3.85311e-10
1.9882e-08
3.77806e-10
1.97219e-08
3.70555e-10
1.95646e-08
3.63551e-10
1.94099e-08
3.56784e-10
1.92579e-08
3.50246e-10
1.91084e-08
3.43928e-10
1.89613e-08
3.37824e-10
1.88166e-08
3.31926e-10
1.86742e-08
3.26229e-10
1.85341e-08
3.20725e-10
1.83961e-08
3.15411e-10
1.82603e-08
3.10282e-10
1.81265e-08
3.05333e-10
1.79946e-08
3.00561e-10
1.78647e-08
2.95963e-10
1.77367e-08
2.91537e-10
1.76104e-08
2.87282e-10
1.74858e-08
2.83198e-10
1.7363e-08
2.79286e-10
1.72417e-08
2.7555e-10
1.71219e-08
2.71996e-10
1.70037e-08
2.68637e-10
1.68868e-08
2.65493e-10
1.67711e-08
2.62612e-10
1.66567e-08
2.6009e-10
1.65432e-08
2.58169e-10
1.64302e-08
2.57515e-10
1.63163e-08
2.60437e-10
1.61995e-08
2.77963e-10
3.3652e-10
3.91907e-08
2.63462e-09
-3.90284e-08
3.9389e-08
2.98637e-09
3.9586e-08
3.22328e-09
3.97652e-08
3.36902e-09
3.99183e-08
3.44544e-09
4.00377e-08
3.46282e-09
4.0118e-08
3.42855e-09
4.01565e-08
3.35181e-09
4.01531e-08
3.2429e-09
4.01093e-08
3.11193e-09
4.00286e-08
2.96818e-09
3.99149e-08
2.81971e-09
3.97731e-08
2.67298e-09
3.96075e-08
2.53269e-09
3.94223e-08
2.40181e-09
3.92213e-08
2.28183e-09
3.90074e-08
2.1731e-09
3.87831e-08
2.07517e-09
3.85502e-08
1.98712e-09
3.83102e-08
1.9078e-09
3.80643e-08
1.836e-09
3.78134e-08
1.7706e-09
3.75582e-08
1.71057e-09
3.72992e-08
1.65508e-09
3.70371e-08
1.60342e-09
3.67723e-08
1.55501e-09
3.65053e-08
1.50941e-09
3.62364e-08
1.46625e-09
3.59661e-08
1.42526e-09
3.56947e-08
1.3862e-09
3.54226e-08
1.34889e-09
3.51501e-08
1.31318e-09
3.48775e-08
1.27894e-09
3.46051e-08
1.24606e-09
3.43333e-08
1.21446e-09
3.40621e-08
1.18405e-09
3.3792e-08
1.15475e-09
3.3523e-08
1.1265e-09
3.32554e-08
1.09925e-09
3.29894e-08
1.07294e-09
3.27252e-08
1.04753e-09
3.24628e-08
1.02296e-09
3.22025e-08
9.9921e-10
3.19443e-08
9.76234e-10
3.16884e-08
9.54e-10
3.14348e-08
9.32478e-10
3.11837e-08
9.1164e-10
3.09351e-08
8.91458e-10
3.06891e-08
8.71908e-10
3.04457e-08
8.52966e-10
3.0205e-08
8.34611e-10
2.9967e-08
8.16823e-10
2.97318e-08
7.9958e-10
2.94993e-08
7.82865e-10
2.92696e-08
7.6666e-10
2.90427e-08
7.50947e-10
2.88186e-08
7.35711e-10
2.85973e-08
7.20935e-10
2.83788e-08
7.06605e-10
2.8163e-08
6.92706e-10
2.795e-08
6.79224e-10
2.77398e-08
6.66145e-10
2.75323e-08
6.53457e-10
2.73274e-08
6.41147e-10
2.71253e-08
6.29204e-10
2.69258e-08
6.17614e-10
2.67289e-08
6.06368e-10
2.65346e-08
5.95455e-10
2.63428e-08
5.84863e-10
2.61535e-08
5.74584e-10
2.59667e-08
5.64608e-10
2.57823e-08
5.54925e-10
2.56004e-08
5.45527e-10
2.54207e-08
5.36406e-10
2.52434e-08
5.27554e-10
2.50684e-08
5.18964e-10
2.48956e-08
5.10629e-10
2.4725e-08
5.02543e-10
2.45565e-08
4.94699e-10
2.43901e-08
4.87093e-10
2.42258e-08
4.7972e-10
2.40635e-08
4.72575e-10
2.39032e-08
4.65655e-10
2.37448e-08
4.58958e-10
2.35883e-08
4.52481e-10
2.34336e-08
4.46223e-10
2.32807e-08
4.40185e-10
2.31295e-08
4.34367e-10
2.298e-08
4.28772e-10
2.28322e-08
4.23408e-10
2.26859e-08
4.18282e-10
2.25411e-08
4.13414e-10
2.23978e-08
4.08833e-10
2.22558e-08
4.04601e-10
2.2115e-08
4.00847e-10
2.19753e-08
3.97883e-10
2.18363e-08
3.96548e-10
2.16972e-08
3.99527e-10
2.15589e-08
4.16225e-10
4.6004e-10
4.07545e-08
2.49708e-09
-4.0617e-08
4.09314e-08
2.80946e-09
4.11193e-08
3.03542e-09
4.13034e-08
3.18488e-09
4.14762e-08
3.27264e-09
4.16314e-08
3.30768e-09
4.17635e-08
3.29648e-09
4.18688e-08
3.2465e-09
4.19454e-08
3.16628e-09
4.1993e-08
3.06433e-09
4.20125e-08
2.94864e-09
4.2006e-08
2.82623e-09
4.19761e-08
2.70292e-09
4.19256e-08
2.58312e-09
4.18576e-08
2.46984e-09
4.17747e-08
2.3648e-09
4.1679e-08
2.26872e-09
4.15727e-08
2.18154e-09
4.1457e-08
2.10274e-09
4.13333e-08
2.0315e-09
4.12024e-08
1.96689e-09
4.10651e-08
1.90799e-09
4.09217e-08
1.85395e-09
4.07727e-08
1.80401e-09
4.06186e-08
1.75754e-09
4.04596e-08
1.71401e-09
4.0296e-08
1.673e-09
4.01281e-08
1.63417e-09
3.99561e-08
1.59723e-09
3.97804e-08
1.56197e-09
3.96011e-08
1.5282e-09
3.94185e-08
1.49578e-09
3.92328e-08
1.46459e-09
3.90443e-08
1.43453e-09
3.88533e-08
1.4055e-09
3.86599e-08
1.37743e-09
3.84644e-08
1.35025e-09
3.8267e-08
1.32391e-09
3.80679e-08
1.29836e-09
3.78673e-08
1.27355e-09
3.76654e-08
1.24945e-09
3.74623e-08
1.22601e-09
3.72583e-08
1.2032e-09
3.70536e-08
1.18101e-09
3.68482e-08
1.15939e-09
3.66423e-08
1.13834e-09
3.64361e-08
1.11782e-09
3.62298e-08
1.09782e-09
3.60234e-08
1.07833e-09
3.5817e-08
1.05931e-09
3.56108e-08
1.04077e-09
3.5405e-08
1.02269e-09
3.51995e-08
1.00505e-09
3.49945e-08
9.87841e-10
3.47901e-08
9.71052e-10
3.45864e-08
9.54672e-10
3.43834e-08
9.38691e-10
3.41813e-08
9.23098e-10
3.398e-08
9.07884e-10
3.37797e-08
8.93039e-10
3.35803e-08
8.78554e-10
3.3382e-08
8.64421e-10
3.31849e-08
8.50631e-10
3.29888e-08
8.37176e-10
3.2794e-08
8.24049e-10
3.26004e-08
8.1124e-10
3.2408e-08
7.98744e-10
3.22169e-08
7.86552e-10
3.20271e-08
7.74658e-10
3.18386e-08
7.63056e-10
3.16515e-08
7.51737e-10
3.14657e-08
7.40697e-10
3.12813e-08
7.2993e-10
3.10983e-08
7.1943e-10
3.09167e-08
7.09191e-10
3.07364e-08
6.9921e-10
3.05576e-08
6.8948e-10
3.03801e-08
6.79999e-10
3.02041e-08
6.70763e-10
3.00294e-08
6.61767e-10
2.98561e-08
6.53011e-10
2.96842e-08
6.44491e-10
2.95136e-08
6.36207e-10
2.93444e-08
6.28157e-10
2.91766e-08
6.20342e-10
2.901e-08
6.12764e-10
2.88448e-08
6.05423e-10
2.86808e-08
5.98326e-10
2.85181e-08
5.91477e-10
2.83566e-08
5.84887e-10
2.81964e-08
5.78569e-10
2.80372e-08
5.72546e-10
2.78792e-08
5.66859e-10
2.77222e-08
5.61581e-10
2.75662e-08
5.56865e-10
2.7411e-08
5.53061e-10
2.72565e-08
5.51057e-10
2.71027e-08
5.53313e-10
2.69528e-08
5.6618e-10
5.91175e-10
4.23691e-08
2.37898e-09
-4.2251e-08
4.25243e-08
2.65431e-09
4.26949e-08
2.86483e-09
4.28676e-08
3.01216e-09
4.30351e-08
3.10516e-09
4.31918e-08
3.15095e-09
4.33331e-08
3.15515e-09
4.34557e-08
3.12397e-09
4.35574e-08
3.06454e-09
4.36376e-08
2.98416e-09
4.36965e-08
2.88972e-09
4.37353e-08
2.7874e-09
4.37558e-08
2.68241e-09
4.37601e-08
2.57885e-09
4.37503e-08
2.47964e-09
4.37285e-08
2.38661e-09
4.36965e-08
2.30073e-09
4.36558e-08
2.22223e-09
4.36076e-08
2.15089e-09
4.3553e-08
2.08616e-09
4.34925e-08
2.02737e-09
4.34267e-08
1.97378e-09
4.3356e-08
1.92468e-09
4.32806e-08
1.87942e-09
4.32007e-08
1.83743e-09
4.31165e-08
1.79823e-09
4.3028e-08
1.76143e-09
4.29355e-08
1.72668e-09
4.2839e-08
1.69373e-09
4.27386e-08
1.66235e-09
4.26345e-08
1.63236e-09
4.25267e-08
1.6036e-09
4.24153e-08
1.57596e-09
4.23005e-08
1.54933e-09
4.21824e-08
1.52361e-09
4.20611e-08
1.49874e-09
4.19367e-08
1.47464e-09
4.18093e-08
1.45126e-09
4.16791e-08
1.42854e-09
4.15463e-08
1.40644e-09
4.14108e-08
1.38492e-09
4.12728e-08
1.36395e-09
4.11326e-08
1.34349e-09
4.099e-08
1.32353e-09
4.08454e-08
1.30402e-09
4.06988e-08
1.28496e-09
4.05503e-08
1.26633e-09
4.04e-08
1.2481e-09
4.0248e-08
1.23027e-09
4.00945e-08
1.21281e-09
3.99396e-08
1.19572e-09
3.97833e-08
1.17899e-09
3.96258e-08
1.1626e-09
3.94671e-08
1.14654e-09
3.93073e-08
1.13081e-09
3.91466e-08
1.1154e-09
3.8985e-08
1.1003e-09
3.88226e-08
1.0855e-09
3.86595e-08
1.071e-09
3.84957e-08
1.05679e-09
3.83314e-08
1.04286e-09
3.81666e-08
1.02921e-09
3.80014e-08
1.01584e-09
3.78359e-08
1.00273e-09
3.767e-08
9.89881e-10
3.7504e-08
9.77292e-10
3.73378e-08
9.64956e-10
3.71714e-08
9.52868e-10
3.70051e-08
9.41024e-10
3.68387e-08
9.29419e-10
3.66724e-08
9.18051e-10
3.65062e-08
9.06915e-10
3.63401e-08
8.96008e-10
3.61742e-08
8.85327e-10
3.60085e-08
8.74869e-10
3.58431e-08
8.64632e-10
3.5678e-08
8.54613e-10
3.55132e-08
8.44811e-10
3.53487e-08
8.35225e-10
3.51846e-08
8.25853e-10
3.50209e-08
8.16696e-10
3.48577e-08
8.07754e-10
3.46948e-08
7.99028e-10
3.45325e-08
7.9052e-10
3.43706e-08
7.82233e-10
3.42092e-08
7.7417e-10
3.40483e-08
7.66338e-10
3.38879e-08
7.58743e-10
3.37279e-08
7.51396e-10
3.35685e-08
7.44308e-10
3.34096e-08
7.375e-10
3.32511e-08
7.30999e-10
3.30931e-08
7.24852e-10
3.29356e-08
7.19141e-10
3.27784e-08
7.14028e-10
3.26216e-08
7.09856e-10
3.24653e-08
7.07411e-10
3.23101e-08
7.08475e-10
3.21603e-08
7.15971e-10
7.22303e-10
4.40375e-08
2.2756e-09
-4.39342e-08
4.4174e-08
2.5179e-09
4.43273e-08
2.71146e-09
4.44859e-08
2.85359e-09
4.46424e-08
2.94864e-09
4.47917e-08
3.00168e-09
4.49295e-08
3.01736e-09
4.50526e-08
3.00081e-09
4.51592e-08
2.95794e-09
4.52484e-08
2.89495e-09
4.53203e-08
2.81781e-09
4.53758e-08
2.73195e-09
4.54162e-08
2.64204e-09
4.54432e-08
2.55185e-09
4.54586e-08
2.46419e-09
4.54643e-08
2.38096e-09
4.54617e-08
2.30327e-09
4.54524e-08
2.23161e-09
4.54372e-08
2.16599e-09
4.54173e-08
2.10613e-09
4.53931e-08
2.05155e-09
4.53652e-08
2.0017e-09
4.53338e-08
1.95601e-09
4.52993e-08
1.91395e-09
4.52617e-08
1.87501e-09
4.52212e-08
1.83877e-09
4.51778e-08
1.80487e-09
4.51315e-08
1.77299e-09
4.50823e-08
1.74288e-09
4.50303e-08
1.71432e-09
4.49756e-08
1.68713e-09
4.4918e-08
1.66116e-09
4.48577e-08
1.63629e-09
4.47946e-08
1.61241e-09
4.47288e-08
1.58942e-09
4.46603e-08
1.56724e-09
4.45891e-08
1.54581e-09
4.45153e-08
1.52505e-09
4.44389e-08
1.50493e-09
4.436e-08
1.48539e-09
4.42785e-08
1.46639e-09
4.41946e-08
1.4479e-09
4.41082e-08
1.42988e-09
4.40194e-08
1.41229e-09
4.39283e-08
1.39513e-09
4.38349e-08
1.37835e-09
4.37393e-08
1.36196e-09
4.36415e-08
1.34591e-09
4.35415e-08
1.3302e-09
4.34395e-08
1.31482e-09
4.33355e-08
1.29975e-09
4.32295e-08
1.28497e-09
4.31216e-08
1.27049e-09
4.30119e-08
1.25628e-09
4.29004e-08
1.24234e-09
4.27871e-08
1.22866e-09
4.26721e-08
1.21524e-09
4.25556e-08
1.20206e-09
4.24375e-08
1.18912e-09
4.23178e-08
1.17642e-09
4.21967e-08
1.16394e-09
4.20743e-08
1.15169e-09
4.19504e-08
1.13965e-09
4.18253e-08
1.12783e-09
4.1699e-08
1.11622e-09
4.15715e-08
1.10481e-09
4.14428e-08
1.0936e-09
4.13131e-08
1.08259e-09
4.11824e-08
1.07177e-09
4.10506e-08
1.06115e-09
4.0918e-08
1.05071e-09
4.07845e-08
1.04046e-09
4.06501e-08
1.03039e-09
4.05149e-08
1.0205e-09
4.0379e-08
1.01079e-09
4.02423e-08
1.00126e-09
4.0105e-08
9.91915e-10
3.99671e-08
9.82742e-10
3.98286e-08
9.73748e-10
3.96895e-08
9.64933e-10
3.95499e-08
9.56299e-10
3.94098e-08
9.47846e-10
3.92693e-08
9.39579e-10
3.91283e-08
9.31502e-10
3.89869e-08
9.23618e-10
3.88451e-08
9.15935e-10
3.8703e-08
9.0846e-10
3.85605e-08
9.01203e-10
3.84178e-08
8.94176e-10
3.82747e-08
8.87396e-10
3.81313e-08
8.80886e-10
3.79876e-08
8.74676e-10
3.78437e-08
8.68818e-10
3.76994e-08
8.63394e-10
3.75549e-08
8.58557e-10
3.74101e-08
8.54599e-10
3.72655e-08
8.52083e-10
3.7122e-08
8.51909e-10
3.6984e-08
8.54e-10
8.45268e-10
4.57617e-08
2.18354e-09
-4.56696e-08
4.58824e-08
2.39712e-09
4.60202e-08
2.57372e-09
4.61649e-08
2.70883e-09
4.63098e-08
2.80377e-09
4.64498e-08
2.86174e-09
4.65808e-08
2.88634e-09
4.66998e-08
2.88174e-09
4.6805e-08
2.85276e-09
4.68954e-08
2.8046e-09
4.69708e-08
2.74238e-09
4.70319e-08
2.67083e-09
4.70798e-08
2.59412e-09
4.7116e-08
2.5157e-09
4.71419e-08
2.43823e-09
4.71593e-08
2.36362e-09
4.71695e-08
2.2931e-09
4.71738e-08
2.22731e-09
4.71733e-08
2.16648e-09
4.71688e-08
2.11055e-09
4.71612e-08
2.05922e-09
4.71508e-08
2.01212e-09
4.71379e-08
1.96882e-09
4.7123e-08
1.92888e-09
4.71061e-08
1.8919e-09
4.70874e-08
1.8575e-09
4.70669e-08
1.82536e-09
4.70447e-08
1.79522e-09
4.70207e-08
1.76681e-09
4.69951e-08
1.73996e-09
4.69677e-08
1.71448e-09
4.69387e-08
1.69022e-09
4.69079e-08
1.66708e-09
4.68754e-08
1.64493e-09
4.68411e-08
1.62369e-09
4.68051e-08
1.60328e-09
4.67672e-08
1.58362e-09
4.67276e-08
1.56466e-09
4.66862e-08
1.54633e-09
4.6643e-08
1.5286e-09
4.6598e-08
1.51142e-09
4.65512e-08
1.49475e-09
4.65025e-08
1.47856e-09
4.6452e-08
1.46281e-09
4.63996e-08
1.44748e-09
4.63454e-08
1.43254e-09
4.62894e-08
1.41798e-09
4.62315e-08
1.40376e-09
4.61719e-08
1.38988e-09
4.61104e-08
1.37632e-09
4.6047e-08
1.36306e-09
4.59819e-08
1.35008e-09
4.5915e-08
1.33739e-09
4.58464e-08
1.32495e-09
4.57759e-08
1.31278e-09
4.57038e-08
1.30084e-09
4.56299e-08
1.28915e-09
4.55542e-08
1.27768e-09
4.54769e-08
1.26643e-09
4.5398e-08
1.25539e-09
4.53173e-08
1.24456e-09
4.52351e-08
1.23393e-09
4.51512e-08
1.2235e-09
4.50658e-08
1.21326e-09
4.49788e-08
1.20319e-09
4.48903e-08
1.19331e-09
4.48003e-08
1.18361e-09
4.47089e-08
1.17407e-09
4.46159e-08
1.1647e-09
4.45216e-08
1.1555e-09
4.44258e-08
1.14645e-09
4.43287e-08
1.13757e-09
4.42303e-08
1.12884e-09
4.41305e-08
1.12026e-09
4.40295e-08
1.11184e-09
4.39272e-08
1.10356e-09
4.38236e-08
1.09544e-09
4.37189e-08
1.08747e-09
4.3613e-08
1.07965e-09
4.3506e-08
1.07198e-09
4.33978e-08
1.06447e-09
4.32885e-08
1.05712e-09
4.31782e-08
1.04992e-09
4.30668e-08
1.0429e-09
4.29544e-08
1.03604e-09
4.28409e-08
1.02936e-09
4.27265e-08
1.02288e-09
4.26111e-08
1.01659e-09
4.24948e-08
1.01052e-09
4.23775e-08
1.00468e-09
4.22593e-08
9.99094e-10
4.21402e-08
9.93801e-10
4.20201e-08
9.88848e-10
4.18992e-08
9.84313e-10
4.17775e-08
9.8032e-10
4.1655e-08
9.77077e-10
4.15322e-08
9.74869e-10
4.14103e-08
9.73754e-10
4.12928e-08
9.71559e-10
9.53315e-10
4.75436e-08
2.10046e-09
-4.74606e-08
4.76514e-08
2.28934e-09
4.77753e-08
2.4498e-09
4.79072e-08
2.57693e-09
4.80408e-08
2.67018e-09
4.81713e-08
2.73126e-09
4.82949e-08
2.76278e-09
4.84086e-08
2.76801e-09
4.85105e-08
2.75083e-09
4.85996e-08
2.71555e-09
4.86755e-08
2.66649e-09
4.87385e-08
2.60776e-09
4.87896e-08
2.54302e-09
4.883e-08
2.47539e-09
4.88608e-08
2.40736e-09
4.88836e-08
2.34081e-09
4.88997e-08
2.277e-09
4.89103e-08
2.21673e-09
4.89164e-08
2.16039e-09
4.89189e-08
2.10807e-09
4.89184e-08
2.05966e-09
4.89156e-08
2.01493e-09
4.89109e-08
1.97358e-09
4.89045e-08
1.93528e-09
4.88966e-08
1.89971e-09
4.88876e-08
1.86656e-09
4.88774e-08
1.83556e-09
4.88661e-08
1.80647e-09
4.88539e-08
1.77907e-09
4.88407e-08
1.75318e-09
4.88265e-08
1.72865e-09
4.88114e-08
1.70534e-09
4.87953e-08
1.68313e-09
4.87783e-08
1.66192e-09
4.87604e-08
1.64164e-09
4.87415e-08
1.62219e-09
4.87216e-08
1.60351e-09
4.87007e-08
1.58554e-09
4.86788e-08
1.56823e-09
4.86559e-08
1.55154e-09
4.86319e-08
1.53541e-09
4.86068e-08
1.51982e-09
4.85807e-08
1.50472e-09
4.85534e-08
1.49009e-09
4.85249e-08
1.4759e-09
4.84954e-08
1.46213e-09
4.84646e-08
1.44875e-09
4.84326e-08
1.43574e-09
4.83994e-08
1.42308e-09
4.8365e-08
1.41076e-09
4.83293e-08
1.39875e-09
4.82923e-08
1.38706e-09
4.8254e-08
1.37565e-09
4.82145e-08
1.36452e-09
4.81736e-08
1.35367e-09
4.81314e-08
1.34306e-09
4.80878e-08
1.33271e-09
4.80429e-08
1.3226e-09
4.79966e-08
1.31271e-09
4.79489e-08
1.30304e-09
4.78999e-08
1.29359e-09
4.78495e-08
1.28434e-09
4.77977e-08
1.2753e-09
4.77445e-08
1.26644e-09
4.76899e-08
1.25777e-09
4.7634e-08
1.24929e-09
4.75766e-08
1.24097e-09
4.75178e-08
1.23283e-09
4.74577e-08
1.22486e-09
4.73961e-08
1.21704e-09
4.73332e-08
1.20939e-09
4.72689e-08
1.20188e-09
4.72032e-08
1.19453e-09
4.71361e-08
1.18733e-09
4.70677e-08
1.18027e-09
4.69979e-08
1.17336e-09
4.69267e-08
1.16659e-09
4.68542e-08
1.15997e-09
4.67804e-08
1.15349e-09
4.67052e-08
1.14716e-09
4.66287e-08
1.14097e-09
4.65509e-08
1.13493e-09
4.64718e-08
1.12904e-09
4.63914e-08
1.12332e-09
4.63097e-08
1.11775e-09
4.62267e-08
1.11236e-09
4.61424e-08
1.10716e-09
4.60568e-08
1.10214e-09
4.597e-08
1.09734e-09
4.58819e-08
1.09276e-09
4.57926e-08
1.08844e-09
4.5702e-08
1.0844e-09
4.56101e-08
1.0807e-09
4.5517e-08
1.07739e-09
4.54228e-08
1.07456e-09
4.53276e-08
1.07233e-09
4.52317e-08
1.07071e-09
4.51364e-08
1.06912e-09
4.50436e-08
1.06433e-09
1.04239e-09
4.93858e-08
2.0247e-09
-4.93101e-08
4.94828e-08
2.19243e-09
4.95945e-08
2.33802e-09
4.97147e-08
2.4568e-09
4.98376e-08
2.54726e-09
4.99589e-08
2.60999e-09
5.00749e-08
2.64673e-09
5.01829e-08
2.65997e-09
5.0281e-08
2.6528e-09
5.03678e-08
2.6287e-09
5.0443e-08
2.59129e-09
5.05067e-08
2.54409e-09
5.05594e-08
2.49028e-09
5.06022e-08
2.43268e-09
5.0636e-08
2.37356e-09
5.06621e-08
2.31471e-09
5.06816e-08
2.25744e-09
5.06958e-08
2.2026e-09
5.07054e-08
2.15071e-09
5.07115e-08
2.10199e-09
5.07147e-08
2.0565e-09
5.07155e-08
2.01411e-09
5.07144e-08
1.97466e-09
5.07118e-08
1.9379e-09
5.07079e-08
1.90359e-09
5.0703e-08
1.8715e-09
5.06972e-08
1.8414e-09
5.06905e-08
1.81309e-09
5.06832e-08
1.78639e-09
5.06753e-08
1.76112e-09
5.06668e-08
1.73717e-09
5.06577e-08
1.71439e-09
5.06481e-08
1.69269e-09
5.06381e-08
1.67198e-09
5.06275e-08
1.65217e-09
5.06165e-08
1.6332e-09
5.0605e-08
1.61499e-09
5.05931e-08
1.5975e-09
5.05806e-08
1.58068e-09
5.05677e-08
1.56447e-09
5.05543e-08
1.54885e-09
5.05403e-08
1.53377e-09
5.05258e-08
1.51921e-09
5.05108e-08
1.50514e-09
5.04952e-08
1.49152e-09
5.0479e-08
1.47834e-09
5.04621e-08
1.46557e-09
5.04447e-08
1.45319e-09
5.04266e-08
1.44119e-09
5.04078e-08
1.42955e-09
5.03883e-08
1.41824e-09
5.03681e-08
1.40727e-09
5.03471e-08
1.39661e-09
5.03254e-08
1.38626e-09
5.03029e-08
1.37619e-09
5.02795e-08
1.36641e-09
5.02553e-08
1.3569e-09
5.02303e-08
1.34764e-09
5.02043e-08
1.33864e-09
5.01775e-08
1.32987e-09
5.01498e-08
1.32135e-09
5.01211e-08
1.31304e-09
5.00914e-08
1.30496e-09
5.00608e-08
1.29709e-09
5.00291e-08
1.28942e-09
4.99965e-08
1.28195e-09
4.99628e-08
1.27467e-09
4.9928e-08
1.26758e-09
4.98922e-08
1.26067e-09
4.98553e-08
1.25393e-09
4.98173e-08
1.24737e-09
4.97782e-08
1.24098e-09
4.9738e-08
1.23475e-09
4.96967e-08
1.22868e-09
4.96542e-08
1.22277e-09
4.96105e-08
1.21701e-09
4.95657e-08
1.21141e-09
4.95197e-08
1.20596e-09
4.94725e-08
1.20067e-09
4.94242e-08
1.19553e-09
4.93746e-08
1.19055e-09
4.93238e-08
1.18572e-09
4.92718e-08
1.18106e-09
4.92185e-08
1.17656e-09
4.9164e-08
1.17224e-09
4.91083e-08
1.16809e-09
4.90513e-08
1.16414e-09
4.89931e-08
1.16039e-09
4.89336e-08
1.15686e-09
4.88728e-08
1.15356e-09
4.88107e-08
1.15053e-09
4.87473e-08
1.14779e-09
4.86826e-08
1.14537e-09
4.86167e-08
1.14334e-09
4.85495e-08
1.14174e-09
4.84813e-08
1.14057e-09
4.84123e-08
1.13966e-09
4.83433e-08
1.13808e-09
4.82753e-08
1.13241e-09
1.11149e-09
5.12908e-08
1.95507e-09
-5.12211e-08
5.13785e-08
2.10472e-09
5.14796e-08
2.23685e-09
5.15891e-08
2.34737e-09
5.1702e-08
2.43431e-09
5.18145e-08
2.49754e-09
5.19231e-08
2.53808e-09
5.20253e-08
2.55776e-09
5.21192e-08
2.55897e-09
5.22034e-08
2.54451e-09
5.22773e-08
2.51737e-09
5.23409e-08
2.4805e-09
5.23945e-08
2.43667e-09
5.24388e-08
2.38836e-09
5.24747e-08
2.33764e-09
5.25032e-08
2.28619e-09
5.25254e-08
2.2353e-09
5.25421e-08
2.18585e-09
5.25544e-08
2.13845e-09
5.25629e-08
2.09345e-09
5.25684e-08
2.05097e-09
5.25715e-08
2.01105e-09
5.25726e-08
1.97358e-09
5.2572e-08
1.93844e-09
5.25702e-08
1.90545e-09
5.25672e-08
1.87445e-09
5.25634e-08
1.84524e-09
5.25588e-08
1.81767e-09
5.25536e-08
1.79158e-09
5.25479e-08
1.76685e-09
5.25417e-08
1.74334e-09
5.25352e-08
1.72095e-09
5.25283e-08
1.6996e-09
5.25211e-08
1.67919e-09
5.25136e-08
1.65965e-09
5.25059e-08
1.64092e-09
5.24979e-08
1.62294e-09
5.24897e-08
1.60567e-09
5.24814e-08
1.58905e-09
5.24728e-08
1.57304e-09
5.2464e-08
1.55762e-09
5.24551e-08
1.54274e-09
5.24459e-08
1.52839e-09
5.24365e-08
1.51452e-09
5.24269e-08
1.50112e-09
5.24171e-08
1.48816e-09
5.2407e-08
1.47563e-09
5.23967e-08
1.46351e-09
5.23861e-08
1.45177e-09
5.23753e-08
1.44041e-09
5.23641e-08
1.42941e-09
5.23526e-08
1.41875e-09
5.23408e-08
1.40843e-09
5.23286e-08
1.39843e-09
5.23161e-08
1.38874e-09
5.23031e-08
1.37935e-09
5.22898e-08
1.37025e-09
5.2276e-08
1.36143e-09
5.22618e-08
1.35288e-09
5.2247e-08
1.3446e-09
5.22318e-08
1.33657e-09
5.22161e-08
1.32879e-09
5.21998e-08
1.32125e-09
5.21829e-08
1.31394e-09
5.21655e-08
1.30686e-09
5.21474e-08
1.3e-09
5.21287e-08
1.29335e-09
5.21094e-08
1.28691e-09
5.20894e-08
1.28067e-09
5.20687e-08
1.27463e-09
5.20473e-08
1.26878e-09
5.20252e-08
1.26313e-09
5.20022e-08
1.25765e-09
5.19786e-08
1.25236e-09
5.19541e-08
1.24724e-09
5.19288e-08
1.2423e-09
5.19027e-08
1.23754e-09
5.18757e-08
1.23295e-09
5.18478e-08
1.22853e-09
5.18191e-08
1.22428e-09
5.17894e-08
1.22021e-09
5.17588e-08
1.21632e-09
5.17273e-08
1.2126e-09
5.16948e-08
1.20907e-09
5.16613e-08
1.20574e-09
5.16267e-08
1.2026e-09
5.15912e-08
1.19968e-09
5.15546e-08
1.19697e-09
5.1517e-08
1.19451e-09
5.14782e-08
1.19229e-09
5.14384e-08
1.19036e-09
5.13975e-08
1.18873e-09
5.13554e-08
1.18744e-09
5.13122e-08
1.18652e-09
5.1268e-08
1.18598e-09
5.12228e-08
1.18576e-09
5.11769e-08
1.18556e-09
5.11306e-08
1.18434e-09
5.10839e-08
1.17912e-09
1.16222e-09
5.3261e-08
1.89074e-09
-5.31967e-08
5.33408e-08
2.0249e-09
5.34327e-08
2.14501e-09
5.35325e-08
2.2476e-09
5.36361e-08
2.33062e-09
5.37402e-08
2.39346e-09
5.38417e-08
2.43663e-09
5.39381e-08
2.46138e-09
5.40275e-08
2.46955e-09
5.41087e-08
2.46333e-09
5.41809e-08
2.44516e-09
5.42439e-08
2.4175e-09
5.42978e-08
2.38272e-09
5.43432e-08
2.34297e-09
5.43807e-08
2.30013e-09
5.44112e-08
2.25574e-09
5.44354e-08
2.21103e-09
5.44544e-08
2.16692e-09
5.44688e-08
2.12405e-09
5.44794e-08
2.08283e-09
5.44869e-08
2.04351e-09
5.44917e-08
2.00618e-09
5.44944e-08
1.97085e-09
5.44954e-08
1.93746e-09
5.4495e-08