/*--------------------------------*- C++ -*----------------------------------*\
| =========                 |                                                 |
| \\      /  F ield         | OpenFOAM: The Open Source CFD Toolbox           |
|  \\    /   O peration     | Version:  2.3.0                                 |
|   \\  /    A nd           | Web:      www.OpenFOAM.org                      |
|    \\/     M anipulation  |                                                 |
\*---------------------------------------------------------------------------*/
FoamFile
{
    version     2.0;
    format      ascii;
    class       volVectorField;
    location    "0.95";
    object      U;
}
// * * * * * * * * * * * * * * * * * * * * * * * * * * * * * * * * * * * * * //

dimensions      [0 1 -1 0 0 0 0];

internalField   nonuniform List<vector> 
3105
(
(0.171529 0.00584559 0)
(0.154903 0.00598861 0)
(0.139082 0.00560999 0)
(0.124076 0.00502397 0)
(0.110267 0.00436658 0)
(0.0978492 0.00369688 0)
(0.0868515 0.00305253 0)
(0.0772424 0.00245971 0)
(0.0689656 0.00193467 0)
(0.0619361 0.00148579 0)
(0.0560404 0.00111504 0)
(0.0511451 0.000819135 0)
(0.0471083 0.000590729 0)
(0.0437894 0.000420062 0)
(0.0410572 0.000296508 0)
(0.0387946 0.000209811 0)
(0.0369018 0.000150855 0)
(0.0352965 0.00011202 0)
(0.0339137 8.72388e-05 0)
(0.0327027 7.18876e-05 0)
(0.0316255 6.2586e-05 0)
(0.0306541 5.69678e-05 0)
(0.0297677 5.34527e-05 0)
(0.0289514 5.10403e-05 0)
(0.0281943 4.9136e-05 0)
(0.0274882 4.7415e-05 0)
(0.0268269 4.57209e-05 0)
(0.0262056 4.39958e-05 0)
(0.0256204 4.22339e-05 0)
(0.025068 4.04532e-05 0)
(0.0245456 3.86791e-05 0)
(0.0240507 3.69362e-05 0)
(0.0235811 3.52441e-05 0)
(0.0231349 3.36169e-05 0)
(0.0227102 3.20634e-05 0)
(0.0223055 3.05881e-05 0)
(0.0219192 2.91923e-05 0)
(0.0215502 2.78751e-05 0)
(0.0211971 2.66337e-05 0)
(0.0208589 2.54649e-05 0)
(0.0205345 2.43646e-05 0)
(0.0202232 2.33288e-05 0)
(0.019924 2.23533e-05 0)
(0.0196362 2.14342e-05 0)
(0.0193591 2.05677e-05 0)
(0.019092 1.97502e-05 0)
(0.0188345 1.89784e-05 0)
(0.0185859 1.82493e-05 0)
(0.0183457 1.756e-05 0)
(0.0181135 1.69078e-05 0)
(0.0178889 1.62904e-05 0)
(0.0176714 1.57054e-05 0)
(0.0174606 1.51508e-05 0)
(0.0172563 1.46247e-05 0)
(0.0170581 1.41253e-05 0)
(0.0168657 1.3651e-05 0)
(0.0166789 1.32001e-05 0)
(0.0164972 1.27714e-05 0)
(0.0163206 1.23633e-05 0)
(0.0161487 1.19748e-05 0)
(0.0159814 1.16047e-05 0)
(0.0158184 1.1252e-05 0)
(0.0156596 1.09155e-05 0)
(0.0155047 1.05945e-05 0)
(0.0153536 1.0288e-05 0)
(0.0152061 9.99525e-06 0)
(0.0150621 9.71553e-06 0)
(0.0149213 9.44814e-06 0)
(0.0147838 9.19242e-06 0)
(0.0146492 8.94779e-06 0)
(0.0145176 8.71371e-06 0)
(0.0143888 8.48964e-06 0)
(0.0142627 8.2751e-06 0)
(0.0141391 8.06969e-06 0)
(0.014018 7.87296e-06 0)
(0.0138992 7.68455e-06 0)
(0.0137827 7.50416e-06 0)
(0.0136683 7.33142e-06 0)
(0.0135561 7.16609e-06 0)
(0.0134458 7.00789e-06 0)
(0.0133375 6.85662e-06 0)
(0.013231 6.71205e-06 0)
(0.0131262 6.57403e-06 0)
(0.0130231 6.44241e-06 0)
(0.0129216 6.31709e-06 0)
(0.0128216 6.19798e-06 0)
(0.0127231 6.08504e-06 0)
(0.0126259 5.97829e-06 0)
(0.0125301 5.87781e-06 0)
(0.0124354 5.78377e-06 0)
(0.0123419 5.69654e-06 0)
(0.0122495 5.61677e-06 0)
(0.012158 5.54571e-06 0)
(0.0120673 5.48583e-06 0)
(0.0119774 5.44242e-06 0)
(0.0118878 5.42795e-06 0)
(0.0117983 5.48019e-06 0)
(0.0117067 5.61781e-06 0)
(0.0116297 5.10077e-06 0)
(0.0113745 3.53228e-05 0)
(0.190555 0.00926529 0)
(0.188182 0.00988423 0)
(0.184292 0.00972216 0)
(0.179165 0.00924382 0)
(0.173267 0.0086184 0)
(0.166955 0.00790119 0)
(0.160459 0.00713055 0)
(0.153948 0.00634166 0)
(0.147555 0.00556455 0)
(0.141382 0.00482386 0)
(0.135497 0.00413889 0)
(0.12994 0.00352299 0)
(0.124733 0.00298334 0)
(0.119878 0.00252139 0)
(0.11537 0.00213386 0)
(0.111192 0.00181411 0)
(0.107324 0.00155355 0)
(0.103746 0.00134289 0)
(0.100432 0.00117305 0)
(0.09736 0.00103582 0)
(0.0945072 0.000924171 0)
(0.091853 0.000832366 0)
(0.0893781 0.000755864 0)
(0.0870652 0.000691179 0)
(0.0848988 0.000635689 0)
(0.0828651 0.000587447 0)
(0.0809517 0.000545016 0)
(0.0791477 0.000507333 0)
(0.0774435 0.000473604 0)
(0.0758305 0.000443225 0)
(0.0743012 0.000415725 0)
(0.0728486 0.00039073 0)
(0.0714669 0.000367933 0)
(0.0701504 0.000347078 0)
(0.0688945 0.000327947 0)
(0.0676947 0.000310353 0)
(0.0665471 0.000294135 0)
(0.065448 0.000279149 0)
(0.0643943 0.000265271 0)
(0.063383 0.000252393 0)
(0.0624115 0.000240419 0)
(0.0614772 0.000229264 0)
(0.0605778 0.000218853 0)
(0.0597115 0.00020912 0)
(0.0588761 0.000200007 0)
(0.0580701 0.000191462 0)
(0.0572917 0.000183438 0)
(0.0565394 0.000175893 0)
(0.055812 0.000168791 0)
(0.055108 0.000162097 0)
(0.0544262 0.000155782 0)
(0.0537656 0.000149818 0)
(0.0531251 0.00014418 0)
(0.0525036 0.000138845 0)
(0.0519004 0.000133793 0)
(0.0513144 0.000129005 0)
(0.050745 0.000124464 0)
(0.0501913 0.000120152 0)
(0.0496526 0.000116057 0)
(0.0491282 0.000112163 0)
(0.0486176 0.000108459 0)
(0.04812 0.000104933 0)
(0.047635 0.000101575 0)
(0.047162 9.83738e-05 0)
(0.0467005 9.5321e-05 0)
(0.0462499 9.2408e-05 0)
(0.0458099 8.96267e-05 0)
(0.0453801 8.697e-05 0)
(0.0449599 8.44308e-05 0)
(0.0445491 8.2003e-05 0)
(0.0441471 7.96806e-05 0)
(0.0437538 7.74581e-05 0)
(0.0433687 7.53303e-05 0)
(0.0429915 7.32927e-05 0)
(0.042622 7.13408e-05 0)
(0.0422598 6.94706e-05 0)
(0.0419046 6.76782e-05 0)
(0.0415561 6.59603e-05 0)
(0.0412142 6.43136e-05 0)
(0.0408785 6.27352e-05 0)
(0.0405488 6.12223e-05 0)
(0.040225 5.97727e-05 0)
(0.0399066 5.83841e-05 0)
(0.0395936 5.70545e-05 0)
(0.0392856 5.57822e-05 0)
(0.0389826 5.45659e-05 0)
(0.0386842 5.34043e-05 0)
(0.0383903 5.22968e-05 0)
(0.0381006 5.12428e-05 0)
(0.037815 5.02427e-05 0)
(0.0375332 4.92976e-05 0)
(0.037255 4.84106e-05 0)
(0.0369802 4.75878e-05 0)
(0.0367084 4.68423e-05 0)
(0.0364393 4.62039e-05 0)
(0.0361723 4.57461e-05 0)
(0.0359064 4.56707e-05 0)
(0.0356379 4.64666e-05 0)
(0.0353862 5.2072e-05 0)
(0.0348681 0.000123724 0)
(0.19353 0.00893255 0)
(0.194272 0.00995626 0)
(0.194422 0.0103417 0)
(0.193797 0.0103683 0)
(0.192485 0.0101579 0)
(0.190604 0.00975641 0)
(0.188246 0.00920789 0)
(0.1855 0.00856121 0)
(0.182458 0.00786203 0)
(0.179204 0.00714931 0)
(0.175817 0.00645435 0)
(0.17236 0.00580025 0)
(0.168884 0.00520181 0)
(0.16543 0.00466633 0)
(0.162026 0.00419499 0)
(0.158693 0.00378464 0)
(0.155444 0.00342949 0)
(0.152288 0.00312254 0)
(0.149229 0.00285662 0)
(0.146267 0.00262509 0)
(0.143404 0.00242215 0)
(0.140638 0.00224295 0)
(0.137966 0.00208352 0)
(0.135387 0.00194074 0)
(0.132897 0.00181207 0)
(0.130493 0.00169555 0)
(0.128174 0.00158956 0)
(0.125935 0.00149283 0)
(0.123773 0.00140429 0)
(0.121687 0.00132303 0)
(0.119673 0.00124831 0)
(0.117729 0.00117945 0)
(0.11585 0.00111589 0)
(0.114036 0.00105711 0)
(0.112283 0.00100266 0)
(0.110588 0.000952143 0)
(0.108949 0.000905196 0)
(0.107365 0.000861498 0)
(0.105831 0.000820763 0)
(0.104347 0.000782732 0)
(0.102909 0.000747175 0)
(0.101517 0.000713884 0)
(0.100168 0.000682673 0)
(0.0988596 0.000653374 0)
(0.0975908 0.000625836 0)
(0.0963597 0.000599924 0)
(0.0951647 0.000575513 0)
(0.0940043 0.000552492 0)
(0.0928769 0.000530761 0)
(0.0917813 0.000510227 0)
(0.090716 0.000490806 0)
(0.0896798 0.000472421 0)
(0.0886715 0.000455004 0)
(0.08769 0.000438488 0)
(0.0867342 0.000422817 0)
(0.0858031 0.000407934 0)
(0.0848956 0.000393791 0)
(0.0840109 0.000380342 0)
(0.083148 0.000367543 0)
(0.0823061 0.000355356 0)
(0.0814843 0.000343744 0)
(0.080682 0.000332674 0)
(0.0798983 0.000322113 0)
(0.0791326 0.000312033 0)
(0.0783841 0.000302406 0)
(0.0776523 0.000293208 0)
(0.0769365 0.000284414 0)
(0.0762361 0.000276004 0)
(0.0755506 0.000267956 0)
(0.0748794 0.000260251 0)
(0.074222 0.000252872 0)
(0.0735779 0.000245801 0)
(0.0729467 0.000239025 0)
(0.0723278 0.000232527 0)
(0.0717209 0.000226295 0)
(0.0711255 0.000220317 0)
(0.0705412 0.00021458 0)
(0.0699677 0.000209074 0)
(0.0694044 0.000203789 0)
(0.0688512 0.000198715 0)
(0.0683076 0.000193845 0)
(0.0677733 0.000189171 0)
(0.0672479 0.000184684 0)
(0.0667312 0.00018038 0)
(0.0662227 0.000176252 0)
(0.0657222 0.000172295 0)
(0.0652295 0.000168506 0)
(0.0647441 0.000164881 0)
(0.0642657 0.000161418 0)
(0.0637941 0.000158116 0)
(0.063329 0.000154978 0)
(0.0628699 0.000152009 0)
(0.0624167 0.000149224 0)
(0.0619687 0.000146654 0)
(0.0615256 0.000144368 0)
(0.0610867 0.000142547 0)
(0.0606504 0.00014168 0)
(0.0602132 0.000143346 0)
(0.0597872 0.000159512 0)
(0.0591105 0.000249804 0)
(0.194566 0.00831377 0)
(0.195675 0.00939836 0)
(0.196708 0.00999412 0)
(0.197445 0.0102591 0)
(0.197845 0.0102853 0)
(0.197912 0.0101116 0)
(0.197642 0.00977314 0)
(0.197041 0.00931181 0)
(0.196133 0.0087693 0)
(0.194954 0.00818312 0)
(0.193543 0.0075852 0)
(0.191944 0.00700088 0)
(0.190196 0.00644837 0)
(0.188336 0.00593892 0)
(0.186395 0.0054778 0)
(0.184398 0.00506568 0)
(0.182366 0.00470004 0)
(0.180313 0.00437654 0)
(0.178251 0.00409 0)
(0.176189 0.00383517 0)
(0.174133 0.00360718 0)
(0.172087 0.00340175 0)
(0.170055 0.00321529 0)
(0.16804 0.00304485 0)
(0.166044 0.00288808 0)
(0.16407 0.00274311 0)
(0.162119 0.00260846 0)
(0.160193 0.00248294 0)
(0.158292 0.00236561 0)
(0.156419 0.00225569 0)
(0.154574 0.00215252 0)
(0.152758 0.00205556 0)
(0.150972 0.00196431 0)
(0.149216 0.00187835 0)
(0.14749 0.00179729 0)
(0.145795 0.00172081 0)
(0.144132 0.00164857 0)
(0.142499 0.00158029 0)
(0.140898 0.00151571 0)
(0.139327 0.00145458 0)
(0.137787 0.00139669 0)
(0.136277 0.00134182 0)
(0.134798 0.00128978 0)
(0.133348 0.0012404 0)
(0.131927 0.00119352 0)
(0.130535 0.00114898 0)
(0.129172 0.00110664 0)
(0.127836 0.00106637 0)
(0.126527 0.00102805 0)
(0.125245 0.000991573 0)
(0.12399 0.000956823 0)
(0.122759 0.000923706 0)
(0.121554 0.000892129 0)
(0.120373 0.000862008 0)
(0.119215 0.000833262 0)
(0.118081 0.000805815 0)
(0.11697 0.000779598 0)
(0.11588 0.000754544 0)
(0.114812 0.000730591 0)
(0.113765 0.000707681 0)
(0.112738 0.00068576 0)
(0.111731 0.000664777 0)
(0.110743 0.000644683 0)
(0.109774 0.000625433 0)
(0.108823 0.000606984 0)
(0.10789 0.000589297 0)
(0.106974 0.000572333 0)
(0.106075 0.000556057 0)
(0.105192 0.000540437 0)
(0.104324 0.00052544 0)
(0.103472 0.000511037 0)
(0.102635 0.0004972 0)
(0.101813 0.000483904 0)
(0.101005 0.000471123 0)
(0.10021 0.000458835 0)
(0.0994283 0.000447018 0)
(0.0986598 0.000435652 0)
(0.0979037 0.000424718 0)
(0.0971598 0.000414199 0)
(0.0964277 0.000404079 0)
(0.0957071 0.000394342 0)
(0.0949975 0.000384974 0)
(0.0942988 0.000375962 0)
(0.0936104 0.000367296 0)
(0.0929322 0.000358964 0)
(0.0922637 0.000350958 0)
(0.0916046 0.00034327 0)
(0.0909547 0.000335893 0)
(0.0903136 0.000328823 0)
(0.0896809 0.00032206 0)
(0.0890564 0.000315604 0)
(0.0884396 0.000309466 0)
(0.0878302 0.000303668 0)
(0.0872277 0.000298261 0)
(0.0866317 0.000293361 0)
(0.0860412 0.000289262 0)
(0.0854549 0.000286785 0)
(0.0848699 0.000288766 0)
(0.0842946 0.000310772 0)
(0.0835065 0.000398484 0)
(0.195303 0.00782347 0)
(0.19628 0.00882589 0)
(0.197338 0.00944848 0)
(0.198314 0.00978542 0)
(0.199156 0.00991039 0)
(0.19984 0.00985825 0)
(0.200344 0.00965584 0)
(0.200644 0.00933457 0)
(0.200732 0.00892761 0)
(0.200612 0.00846637 0)
(0.200297 0.00797878 0)
(0.199806 0.0074883 0)
(0.199162 0.00701293 0)
(0.198388 0.00656507 0)
(0.197506 0.00615185 0)
(0.196536 0.00577613 0)
(0.195495 0.00543758 0)
(0.194397 0.00513379 0)
(0.193252 0.00486121 0)
(0.192068 0.00461589 0)
(0.190852 0.00439391 0)
(0.18961 0.00419174 0)
(0.188344 0.00400629 0)
(0.187058 0.00383501 0)
(0.185755 0.00367582 0)
(0.184438 0.00352706 0)
(0.183109 0.0033874 0)
(0.181769 0.0032558 0)
(0.180421 0.00313142 0)
(0.179067 0.00301358 0)
(0.177708 0.00290171 0)
(0.176347 0.00279535 0)
(0.174985 0.00269409 0)
(0.173623 0.00259758 0)
(0.172262 0.00250551 0)
(0.170905 0.0024176 0)
(0.169552 0.00233359 0)
(0.168205 0.00225326 0)
(0.166864 0.00217641 0)
(0.16553 0.00210284 0)
(0.164205 0.00203238 0)
(0.162889 0.00196486 0)
(0.161583 0.00190014 0)
(0.160287 0.00183808 0)
(0.159002 0.00177854 0)
(0.157729 0.00172141 0)
(0.156468 0.00166657 0)
(0.155219 0.00161392 0)
(0.153983 0.00156336 0)
(0.15276 0.00151479 0)
(0.15155 0.00146813 0)
(0.150354 0.00142328 0)
(0.149172 0.00138018 0)
(0.148003 0.00133874 0)
(0.146848 0.00129889 0)
(0.145707 0.00126057 0)
(0.14458 0.00122371 0)
(0.143467 0.00118824 0)
(0.142368 0.00115411 0)
(0.141283 0.00112126 0)
(0.140212 0.00108964 0)
(0.139154 0.00105919 0)
(0.13811 0.00102987 0)
(0.13708 0.00100163 0)
(0.136063 0.000974418 0)
(0.13506 0.000948199 0)
(0.134069 0.000922929 0)
(0.133092 0.00089857 0)
(0.132127 0.000875084 0)
(0.131175 0.000852437 0)
(0.130235 0.000830595 0)
(0.129308 0.000809524 0)
(0.128392 0.000789196 0)
(0.127489 0.000769582 0)
(0.126597 0.000750652 0)
(0.125716 0.000732383 0)
(0.124847 0.000714749 0)
(0.123989 0.000697728 0)
(0.123142 0.000681297 0)
(0.122305 0.000665437 0)
(0.121479 0.000650128 0)
(0.120663 0.000635353 0)
(0.119857 0.000621097 0)
(0.119061 0.000607343 0)
(0.118274 0.00059408 0)
(0.117496 0.000581295 0)
(0.116728 0.000568979 0)
(0.115968 0.000557124 0)
(0.115217 0.000545724 0)
(0.114474 0.00053478 0)
(0.113739 0.000524294 0)
(0.113012 0.000514281 0)
(0.112292 0.000504773 0)
(0.111579 0.000495841 0)
(0.110873 0.000487646 0)
(0.110172 0.000480592 0)
(0.109476 0.000475788 0)
(0.108784 0.000476919 0)
(0.108104 0.000498787 0)
(0.107245 0.000568983 0)
(0.195931 0.0073976 0)
(0.19674 0.0082882 0)
(0.197665 0.00888879 0)
(0.198588 0.00924847 0)
(0.19946 0.00942039 0)
(0.200255 0.0094348 0)
(0.200953 0.00931412 0)
(0.201529 0.00908356 0)
(0.20197 0.00877053 0)
(0.20227 0.00840161 0)
(0.202431 0.00800094 0)
(0.20246 0.00758924 0)
(0.202368 0.00718305 0)
(0.202171 0.00679432 0)
(0.201882 0.00643066 0)
(0.201515 0.00609592 0)
(0.201081 0.00579103 0)
(0.200592 0.00551492 0)
(0.200055 0.00526525 0)
(0.199477 0.00503911 0)
(0.198862 0.00483341 0)
(0.198215 0.00464523 0)
(0.197538 0.00447196 0)
(0.196833 0.00431135 0)
(0.196102 0.00416154 0)
(0.195347 0.004021 0)
(0.19457 0.00388851 0)
(0.193771 0.00376309 0)
(0.192951 0.00364393 0)
(0.192113 0.00353041 0)
(0.191257 0.00342199 0)
(0.190385 0.00331826 0)
(0.189498 0.00321883 0)
(0.188596 0.0031234 0)
(0.187681 0.00303171 0)
(0.186755 0.0029435 0)
(0.185818 0.00285859 0)
(0.184871 0.00277677 0)
(0.183915 0.00269788 0)
(0.182952 0.00262177 0)
(0.181982 0.0025483 0)
(0.181006 0.00247735 0)
(0.180025 0.0024088 0)
(0.17904 0.00234255 0)
(0.178051 0.00227851 0)
(0.17706 0.00221657 0)
(0.176068 0.00215666 0)
(0.175073 0.00209869 0)
(0.174079 0.00204261 0)
(0.173084 0.00198832 0)
(0.17209 0.00193578 0)
(0.171097 0.00188492 0)
(0.170106 0.00183568 0)
(0.169117 0.00178801 0)
(0.168131 0.00174184 0)
(0.167147 0.00169714 0)
(0.166167 0.00165384 0)
(0.165191 0.00161191 0)
(0.164219 0.0015713 0)
(0.163251 0.00153195 0)
(0.162288 0.00149384 0)
(0.16133 0.00145692 0)
(0.160378 0.00142115 0)
(0.15943 0.0013865 0)
(0.158488 0.00135291 0)
(0.157552 0.00132037 0)
(0.156622 0.00128884 0)
(0.155699 0.00125828 0)
(0.154781 0.00122866 0)
(0.153869 0.00119995 0)
(0.152964 0.00117212 0)
(0.152066 0.00114514 0)
(0.151174 0.00111899 0)
(0.150289 0.00109365 0)
(0.14941 0.00106907 0)
(0.148538 0.00104525 0)
(0.147673 0.00102216 0)
(0.146815 0.000999771 0)
(0.145963 0.000978072 0)
(0.145118 0.000957043 0)
(0.14428 0.000936664 0)
(0.143448 0.00091692 0)
(0.142623 0.000897796 0)
(0.141804 0.000879278 0)
(0.140992 0.000861353 0)
(0.140187 0.000844012 0)
(0.139387 0.000827247 0)
(0.138594 0.000811051 0)
(0.137807 0.000795421 0)
(0.137026 0.00078036 0)
(0.136251 0.000765876 0)
(0.135482 0.000751989 0)
(0.134718 0.000738742 0)
(0.133959 0.000726226 0)
(0.133205 0.000714641 0)
(0.132455 0.000704465 0)
(0.13171 0.000696963 0)
(0.130968 0.000695882 0)
(0.130243 0.000712477 0)
(0.129365 0.000756476 0)
(0.196481 0.00703053 0)
(0.197153 0.00781434 0)
(0.19794 0.00837837 0)
(0.198758 0.00874114 0)
(0.199559 0.00893701 0)
(0.200319 0.00899086 0)
(0.201016 0.00892236 0)
(0.201633 0.00875285 0)
(0.202157 0.00850559 0)
(0.202581 0.00820354 0)
(0.202903 0.00786773 0)
(0.203129 0.00751644 0)
(0.203265 0.00716459 0)
(0.20332 0.00682339 0)
(0.203304 0.00650042 0)
(0.203228 0.00620003 0)
(0.203101 0.00592398 0)
(0.20293 0.00567213 0)
(0.202722 0.00544307 0)
(0.202482 0.00523471 0)
(0.202213 0.00504466 0)
(0.201919 0.00487051 0)
(0.201602 0.00471004 0)
(0.201262 0.00456126 0)
(0.200901 0.00442249 0)
(0.200519 0.00429231 0)
(0.200118 0.00416957 0)
(0.199698 0.00405332 0)
(0.199258 0.00394279 0)
(0.198801 0.00383734 0)
(0.198325 0.00373648 0)
(0.197833 0.00363976 0)
(0.197324 0.00354683 0)
(0.196798 0.00345739 0)
(0.196257 0.00337117 0)
(0.1957 0.00328795 0)
(0.195129 0.00320754 0)
(0.194545 0.00312976 0)
(0.193946 0.00305445 0)
(0.193335 0.00298148 0)
(0.192711 0.00291073 0)
(0.192076 0.00284209 0)
(0.19143 0.00277545 0)
(0.190772 0.00271074 0)
(0.190105 0.00264786 0)
(0.189428 0.00258674 0)
(0.188743 0.00252732 0)
(0.188048 0.00246954 0)
(0.187346 0.00241333 0)
(0.186637 0.00235864 0)
(0.18592 0.00230543 0)
(0.185197 0.00225364 0)
(0.184468 0.00220323 0)
(0.183733 0.00215417 0)
(0.182993 0.0021064 0)
(0.182248 0.0020599 0)
(0.181499 0.00201462 0)
(0.180747 0.00197054 0)
(0.17999 0.00192761 0)
(0.179231 0.00188581 0)
(0.178469 0.00184511 0)
(0.177704 0.00180548 0)
(0.176938 0.00176688 0)
(0.176169 0.00172929 0)
(0.175399 0.00169268 0)
(0.174628 0.00165703 0)
(0.173856 0.00162231 0)
(0.173084 0.00158849 0)
(0.172311 0.00155556 0)
(0.171538 0.00152349 0)
(0.170765 0.00149225 0)
(0.169993 0.00146183 0)
(0.169221 0.00143221 0)
(0.168449 0.00140336 0)
(0.167679 0.00137526 0)
(0.16691 0.00134791 0)
(0.166142 0.00132128 0)
(0.165375 0.00129535 0)
(0.164611 0.00127012 0)
(0.163847 0.00124556 0)
(0.163086 0.00122166 0)
(0.162326 0.00119841 0)
(0.161569 0.00117581 0)
(0.160813 0.00115384 0)
(0.16006 0.00113249 0)
(0.159309 0.00111175 0)
(0.15856 0.00109163 0)
(0.157814 0.00107213 0)
(0.15707 0.00105324 0)
(0.156328 0.00103497 0)
(0.155588 0.00101733 0)
(0.154851 0.00100036 0)
(0.154116 0.000984114 0)
(0.153383 0.00096869 0)
(0.152652 0.000954313 0)
(0.151923 0.000941483 0)
(0.151196 0.000931414 0)
(0.150472 0.000927164 0)
(0.149766 0.000935241 0)
(0.148928 0.00095046 0)
(0.196965 0.00671233 0)
(0.197532 0.00739978 0)
(0.198201 0.00792013 0)
(0.198914 0.00827435 0)
(0.19963 0.0084822 0)
(0.200321 0.00856273 0)
(0.200969 0.00853267 0)
(0.201557 0.00840999 0)
(0.202074 0.00821431 0)
(0.202514 0.00796533 0)
(0.202875 0.00768141 0)
(0.20316 0.00737876 0)
(0.203373 0.00707084 0)
(0.203522 0.00676814 0)
(0.203614 0.00647808 0)
(0.20366 0.00620533 0)
(0.203665 0.00595225 0)
(0.203636 0.00571947 0)
(0.20358 0.00550634 0)
(0.2035 0.00531149 0)
(0.2034 0.00513314 0)
(0.203283 0.00496938 0)
(0.20315 0.00481835 0)
(0.203002 0.00467835 0)
(0.20284 0.00454788 0)
(0.202665 0.00442566 0)
(0.202477 0.00431059 0)
(0.202276 0.00420179 0)
(0.202062 0.00409849 0)
(0.201836 0.00400009 0)
(0.201597 0.00390606 0)
(0.201345 0.00381598 0)
(0.201081 0.00372948 0)
(0.200804 0.00364624 0)
(0.200516 0.00356602 0)
(0.200215 0.00348856 0)
(0.199902 0.00341368 0)
(0.199577 0.00334118 0)
(0.199241 0.00327093 0)
(0.198893 0.00320278 0)
(0.198533 0.0031366 0)
(0.198163 0.00307228 0)
(0.197781 0.00300974 0)
(0.197389 0.00294888 0)
(0.196986 0.00288961 0)
(0.196572 0.00283188 0)
(0.196149 0.00277561 0)
(0.195716 0.00272075 0)
(0.195273 0.00266723 0)
(0.19482 0.00261502 0)
(0.194359 0.00256407 0)
(0.193888 0.00251434 0)
(0.193409 0.00246578 0)
(0.192922 0.00241836 0)
(0.192426 0.00237204 0)
(0.191922 0.0023268 0)
(0.191411 0.0022826 0)
(0.190893 0.00223942 0)
(0.190367 0.00219723 0)
(0.189834 0.00215599 0)
(0.189295 0.0021157 0)
(0.188749 0.00207632 0)
(0.188198 0.00203782 0)
(0.18764 0.0020002 0)
(0.187077 0.00196342 0)
(0.186508 0.00192747 0)
(0.185934 0.00189233 0)
(0.185356 0.00185798 0)
(0.184772 0.0018244 0)
(0.184184 0.00179157 0)
(0.183592 0.00175948 0)
(0.182996 0.00172811 0)
(0.182396 0.00169744 0)
(0.181792 0.00166747 0)
(0.181185 0.00163817 0)
(0.180574 0.00160954 0)
(0.17996 0.00158156 0)
(0.179344 0.00155422 0)
(0.178725 0.00152752 0)
(0.178103 0.00150144 0)
(0.177479 0.00147597 0)
(0.176852 0.0014511 0)
(0.176223 0.00142684 0)
(0.175593 0.00140318 0)
(0.17496 0.00138011 0)
(0.174326 0.00135763 0)
(0.17369 0.00133575 0)
(0.173053 0.00131447 0)
(0.172414 0.00129379 0)
(0.171774 0.00127373 0)
(0.171132 0.00125432 0)
(0.170489 0.00123558 0)
(0.169845 0.00121758 0)
(0.169199 0.00120043 0)
(0.168552 0.00118435 0)
(0.167905 0.00116981 0)
(0.167256 0.00115776 0)
(0.16661 0.00115011 0)
(0.16598 0.00114871 0)
(0.165234 0.00113808 0)
(0.197391 0.00643125 0)
(0.197876 0.00703371 0)
(0.198448 0.00750825 0)
(0.199068 0.00784718 0)
(0.199702 0.00805989 0)
(0.200324 0.0081597 0)
(0.200913 0.00816012 0)
(0.201457 0.00807594 0)
(0.201944 0.00792349 0)
(0.202367 0.00771953 0)
(0.202726 0.00747997 0)
(0.20302 0.00721912 0)
(0.203254 0.00694914 0)
(0.203434 0.00667974 0)
(0.203566 0.00641811 0)
(0.203658 0.00616909 0)
(0.203716 0.00593551 0)
(0.203745 0.00571856 0)
(0.203752 0.00551829 0)
(0.203741 0.00533394 0)
(0.203714 0.00516431 0)
(0.203674 0.00500794 0)
(0.203623 0.00486337 0)
(0.203563 0.00472918 0)
(0.203494 0.00460407 0)
(0.203417 0.00448691 0)
(0.203332 0.00437672 0)
(0.20324 0.00427266 0)
(0.20314 0.00417403 0)
(0.203033 0.00408022 0)
(0.202919 0.00399074 0)
(0.202797 0.00390517 0)
(0.202668 0.00382313 0)
(0.202531 0.00374432 0)
(0.202387 0.00366846 0)
(0.202235 0.00359533 0)
(0.202075 0.00352472 0)
(0.201908 0.00345644 0)
(0.201733 0.00339033 0)
(0.20155 0.00332626 0)
(0.20136 0.00326408 0)
(0.201161 0.0032037 0)
(0.200955 0.003145 0)
(0.200741 0.00308789 0)
(0.200519 0.00303229 0)
(0.200289 0.00297813 0)
(0.200051 0.00292534 0)
(0.199805 0.00287385 0)
(0.199551 0.00282362 0)
(0.199289 0.00277457 0)
(0.19902 0.00272668 0)
(0.198742 0.0026799 0)
(0.198457 0.00263418 0)
(0.198164 0.00258949 0)
(0.197864 0.00254579 0)
(0.197556 0.00250306 0)
(0.19724 0.00246126 0)
(0.196917 0.00242035 0)
(0.196587 0.00238033 0)
(0.19625 0.00234115 0)
(0.195905 0.0023028 0)
(0.195553 0.00226525 0)
(0.195195 0.00222849 0)
(0.194829 0.00219248 0)
(0.194457 0.00215722 0)
(0.194078 0.00212267 0)
(0.193692 0.00208884 0)
(0.1933 0.00205569 0)
(0.192902 0.00202321 0)
(0.192497 0.00199138 0)
(0.192087 0.0019602 0)
(0.19167 0.00192965 0)
(0.191248 0.00189972 0)
(0.19082 0.00187038 0)
(0.190386 0.00184164 0)
(0.189947 0.00181349 0)
(0.189502 0.0017859 0)
(0.189053 0.00175888 0)
(0.188598 0.00173242 0)
(0.188138 0.00170651 0)
(0.187673 0.00168114 0)
(0.187203 0.00165632 0)
(0.186729 0.00163204 0)
(0.18625 0.0016083 0)
(0.185767 0.00158509 0)
(0.185279 0.00156243 0)
(0.184787 0.00154032 0)
(0.184291 0.00151877 0)
(0.18379 0.00149778 0)
(0.183286 0.00147738 0)
(0.182777 0.0014576 0)
(0.182265 0.00143847 0)
(0.181748 0.00142006 0)
(0.181228 0.00140247 0)
(0.180704 0.00138591 0)
(0.180176 0.00137072 0)
(0.179646 0.00135751 0)
(0.179117 0.00134691 0)
(0.1786 0.00133711 0)
(0.177981 0.00130747 0)
(0.197768 0.00617908 0)
(0.198187 0.00670794 0)
(0.198679 0.00713784 0)
(0.199218 0.0074577 0)
(0.199778 0.00767011 0)
(0.200334 0.00778345 0)
(0.200867 0.0078081 0)
(0.201365 0.00775597 0)
(0.201816 0.00764049 0)
(0.202215 0.00747573 0)
(0.202559 0.00727535 0)
(0.202848 0.00705188 0)
(0.203085 0.00681618 0)
(0.203274 0.00657716 0)
(0.203421 0.00634168 0)
(0.203531 0.0061146 0)
(0.203611 0.00589905 0)
(0.203665 0.00569669 0)
(0.203698 0.00550809 0)
(0.203715 0.00533306 0)
(0.203718 0.00517087 0)
(0.203711 0.00502053 0)
(0.203695 0.00488092 0)
(0.203671 0.00475091 0)
(0.203641 0.00462944 0)
(0.203606 0.00451553 0)
(0.203566 0.00440832 0)
(0.203521 0.00430706 0)
(0.203472 0.0042111 0)
(0.203419 0.0041199 0)
(0.203362 0.00403298 0)
(0.203301 0.00394993 0)
(0.203236 0.00387041 0)
(0.203167 0.00379412 0)
(0.203094 0.00372078 0)
(0.203018 0.00365018 0)
(0.202937 0.0035821 0)
(0.202852 0.00351636 0)
(0.202763 0.00345281 0)
(0.202669 0.00339131 0)
(0.202572 0.00333171 0)
(0.20247 0.00327392 0)
(0.202363 0.00321781 0)
(0.202252 0.00316331 0)
(0.202136 0.00311031 0)
(0.202015 0.00305875 0)
(0.201889 0.00300855 0)
(0.201759 0.00295965 0)
(0.201623 0.00291199 0)
(0.201482 0.00286551 0)
(0.201336 0.00282016 0)
(0.201185 0.0027759 0)
(0.201028 0.00273268 0)
(0.200866 0.00269046 0)
(0.200699 0.0026492 0)
(0.200526 0.00260888 0)
(0.200347 0.00256945 0)
(0.200163 0.00253089 0)
(0.199973 0.00249316 0)
(0.199777 0.00245624 0)
(0.199576 0.0024201 0)
(0.199369 0.00238471 0)
(0.199156 0.00235006 0)
(0.198937 0.00231613 0)
(0.198713 0.00228288 0)
(0.198483 0.0022503 0)
(0.198247 0.00221838 0)
(0.198005 0.00218709 0)
(0.197757 0.00215641 0)
(0.197504 0.00212634 0)
(0.197245 0.00209685 0)
(0.19698 0.00206794 0)
(0.196709 0.00203958 0)
(0.196433 0.00201177 0)
(0.19615 0.0019845 0)
(0.195863 0.00195775 0)
(0.195569 0.00193152 0)
(0.19527 0.00190581 0)
(0.194965 0.00188059 0)
(0.194655 0.00185587 0)
(0.194339 0.00183165 0)
(0.194018 0.00180791 0)
(0.193691 0.00178467 0)
(0.193359 0.00176191 0)
(0.193021 0.00173965 0)
(0.192678 0.00171789 0)
(0.19233 0.00169663 0)
(0.191976 0.00167589 0)
(0.191617 0.00165568 0)
(0.191253 0.00163603 0)
(0.190884 0.00161695 0)
(0.190509 0.00159849 0)
(0.190129 0.00158072 0)
(0.189744 0.00156373 0)
(0.189354 0.00154766 0)
(0.188959 0.00153274 0)
(0.188561 0.00151915 0)
(0.188162 0.00150647 0)
(0.18777 0.00149061 0)
(0.187292 0.00145047 0)
(0.198101 0.0059502 0)
(0.198466 0.0064159 0)
(0.198892 0.00680403 0)
(0.199362 0.00710294 0)
(0.199856 0.00731118 0)
(0.200351 0.00743334 0)
(0.200832 0.00747694 0)
(0.201285 0.0074514 0)
(0.201701 0.00736757 0)
(0.202073 0.00723711 0)
(0.202399 0.00707163 0)
(0.202678 0.00688197 0)
(0.202911 0.00667774 0)
(0.203102 0.00646702 0)
(0.203254 0.00625623 0)
(0.203373 0.00605017 0)
(0.203464 0.00585209 0)
(0.20353 0.00566401 0)
(0.203577 0.00548692 0)
(0.203608 0.00532107 0)
(0.203625 0.00516616 0)
(0.203633 0.00502159 0)
(0.203632 0.00488658 0)
(0.203624 0.00476029 0)
(0.203611 0.00464185 0)
(0.203593 0.00453047 0)
(0.203571 0.00442541 0)
(0.203546 0.00432603 0)
(0.203518 0.00423176 0)
(0.203487 0.00414209 0)
(0.203454 0.0040566 0)
(0.203418 0.0039749 0)
(0.203381 0.00389668 0)
(0.203342 0.00382165 0)
(0.2033 0.00374955 0)
(0.203257 0.00368018 0)
(0.203212 0.00361334 0)
(0.203165 0.00354884 0)
(0.203116 0.00348655 0)
(0.203065 0.00342632 0)
(0.203012 0.00336802 0)
(0.202957 0.00331155 0)
(0.2029 0.00325679 0)
(0.202841 0.00320366 0)
(0.202779 0.00315207 0)
(0.202715 0.00310195 0)
(0.202649 0.00305322 0)
(0.20258 0.00300581 0)
(0.202509 0.00295967 0)
(0.202435 0.00291475 0)
(0.202358 0.00287098 0)
(0.202278 0.00282832 0)
(0.202195 0.00278672 0)
(0.20211 0.00274615 0)
(0.202021 0.00270657 0)
(0.201929 0.00266792 0)
(0.201833 0.00263019 0)
(0.201735 0.00259334 0)
(0.201632 0.00255733 0)
(0.201526 0.00252214 0)
(0.201417 0.00248773 0)
(0.201303 0.00245409 0)
(0.201186 0.00242118 0)
(0.201065 0.00238899 0)
(0.20094 0.00235748 0)
(0.200811 0.00232664 0)
(0.200678 0.00229644 0)
(0.200541 0.00226687 0)
(0.200399 0.00223791 0)
(0.200253 0.00220954 0)
(0.200103 0.00218174 0)
(0.199948 0.0021545 0)
(0.199789 0.0021278 0)
(0.199625 0.00210163 0)
(0.199457 0.00207598 0)
(0.199284 0.00205084 0)
(0.199106 0.00202619 0)
(0.198924 0.00200203 0)
(0.198737 0.00197836 0)
(0.198545 0.00195515 0)
(0.198348 0.00193242 0)
(0.198147 0.00191016 0)
(0.19794 0.00188837 0)
(0.197729 0.00186704 0)
(0.197513 0.00184618 0)
(0.197291 0.0018258 0)
(0.197065 0.0018059 0)
(0.196834 0.0017865 0)
(0.196597 0.00176761 0)
(0.196356 0.00174925 0)
(0.196109 0.00173145 0)
(0.195857 0.00171425 0)
(0.1956 0.0016977 0)
(0.195338 0.00168188 0)
(0.195071 0.00166687 0)
(0.194799 0.00165276 0)
(0.194523 0.00163938 0)
(0.194245 0.00162559 0)
(0.193971 0.00160644 0)
(0.193624 0.00156374 0)
(0.198396 0.00574062 0)
(0.198717 0.0061523 0)
(0.199088 0.00650229 0)
(0.199498 0.00677976 0)
(0.199933 0.00698116 0)
(0.200374 0.00710834 0)
(0.200805 0.00716647 0)
(0.201216 0.00716273 0)
(0.201598 0.00710581 0)
(0.201944 0.00700524 0)
(0.202251 0.00687073 0)
(0.202517 0.00671159 0)
(0.202744 0.00653623 0)
(0.202932 0.00635191 0)
(0.203087 0.00616455 0)
(0.203211 0.00597875 0)
(0.203308 0.00579782 0)
(0.203382 0.00562399 0)
(0.203437 0.00545857 0)
(0.203476 0.00530214 0)
(0.203503 0.00515479 0)
(0.203519 0.00501626 0)
(0.203526 0.00488606 0)
(0.203527 0.00476359 0)
(0.203522 0.00464822 0)
(0.203512 0.00453931 0)
(0.203499 0.00443627 0)
(0.203483 0.00433855 0)
(0.203464 0.00424565 0)
(0.203442 0.00415715 0)
(0.203419 0.00407264 0)
(0.203395 0.0039918 0)
(0.203368 0.00391433 0)
(0.203341 0.00383997 0)
(0.203313 0.00376848 0)
(0.203283 0.00369967 0)
(0.203253 0.00363335 0)
(0.203222 0.00356937 0)
(0.20319 0.00350757 0)
(0.203157 0.00344782 0)
(0.203123 0.00339001 0)
(0.203089 0.00333404 0)
(0.203054 0.00327979 0)
(0.203018 0.00322719 0)
(0.202981 0.00317615 0)
(0.202944 0.00312661 0)
(0.202905 0.00307847 0)
(0.202866 0.0030317 0)
(0.202825 0.00298622 0)
(0.202784 0.00294199 0)
(0.202741 0.00289894 0)
(0.202697 0.00285704 0)
(0.202652 0.00281623 0)
(0.202606 0.00277649 0)
(0.202558 0.00273775 0)
(0.202509 0.0027 0)
(0.202458 0.00266319 0)
(0.202405 0.00262729 0)
(0.202351 0.00259226 0)
(0.202295 0.00255808 0)
(0.202237 0.00252472 0)
(0.202177 0.00249215 0)
(0.202115 0.00246034 0)
(0.202051 0.00242926 0)
(0.201985 0.0023989 0)
(0.201916 0.00236922 0)
(0.201845 0.00234022 0)
(0.201771 0.00231186 0)
(0.201695 0.00228412 0)
(0.201616 0.00225699 0)
(0.201535 0.00223045 0)
(0.20145 0.00220449 0)
(0.201363 0.00217908 0)
(0.201273 0.00215421 0)
(0.20118 0.00212987 0)
(0.201084 0.00210605 0)
(0.200984 0.00208274 0)
(0.200881 0.00205992 0)
(0.200775 0.00203758 0)
(0.200666 0.00201573 0)
(0.200553 0.00199436 0)
(0.200436 0.00197346 0)
(0.200316 0.00195302 0)
(0.200192 0.00193306 0)
(0.200064 0.00191357 0)
(0.199932 0.00189456 0)
(0.199797 0.00187604 0)
(0.199657 0.00185801 0)
(0.199513 0.0018405 0)
(0.199366 0.00182352 0)
(0.199214 0.00180709 0)
(0.199057 0.00179126 0)
(0.198896 0.00177607 0)
(0.198731 0.00176156 0)
(0.198562 0.00174777 0)
(0.198389 0.00173465 0)
(0.198212 0.0017218 0)
(0.198034 0.00170775 0)
(0.197854 0.0016878 0)