/*--------------------------------*- C++ -*----------------------------------*\
| =========                 |                                                 |
| \\      /  F ield         | OpenFOAM: The Open Source CFD Toolbox           |
|  \\    /   O peration     | Version:  2.3.0                                 |
|   \\  /    A nd           | Web:      www.OpenFOAM.org                      |
|    \\/     M anipulation  |                                                 |
\*---------------------------------------------------------------------------*/
FoamFile
{
    version     2.0;
    format      ascii;
    class       volVectorField;
    location    "0.95";
    object      U_0;
}
// * * * * * * * * * * * * * * * * * * * * * * * * * * * * * * * * * * * * * //

dimensions      [0 1 -1 0 0 0 0];

internalField   nonuniform List<vector> 
3375
(
(0.170603 0.00600306 0)
(0.15407 0.00606198 0)
(0.138181 0.00563579 0)
(0.123129 0.00503031 0)
(0.109325 0.00436225 0)
(0.0969362 0.00368521 0)
(0.0859765 0.00303627 0)
(0.0764115 0.00244116 0)
(0.068184 0.00191554 0)
(0.0612071 0.00146736 0)
(0.0553645 0.00109825 0)
(0.0505203 0.000804547 0)
(0.0465309 0.000578585 0)
(0.0432547 0.000410332 0)
(0.0405598 0.000288981 0)
(0.0383292 0.000204176 0)
(0.0364633 0.000146762 0)
(0.0348805 0.000109124 0)
(0.0335163 8.52305e-05 0)
(0.032321 7.05058e-05 0)
(0.031257 6.16228e-05 0)
(0.030297 5.62668e-05 0)
(0.0294207 5.29033e-05 0)
(0.0286134 5.05688e-05 0)
(0.0278645 4.86971e-05 0)
(0.0271661 4.69835e-05 0)
(0.0265121 4.5285e-05 0)
(0.0258977 4.35519e-05 0)
(0.0253191 4.1783e-05 0)
(0.024773 3.99986e-05 0)
(0.0242566 3.82247e-05 0)
(0.0237676 3.64855e-05 0)
(0.0233037 3.48003e-05 0)
(0.0228628 3.31823e-05 0)
(0.0224434 3.16398e-05 0)
(0.0220437 3.01767e-05 0)
(0.0216624 2.87937e-05 0)
(0.021298 2.74895e-05 0)
(0.0209495 2.62612e-05 0)
(0.0206157 2.51053e-05 0)
(0.0202956 2.40177e-05 0)
(0.0199883 2.29943e-05 0)
(0.0196931 2.20307e-05 0)
(0.0194092 2.11231e-05 0)
(0.0191358 2.02677e-05 0)
(0.0188724 1.94609e-05 0)
(0.0186183 1.86993e-05 0)
(0.0183731 1.798e-05 0)
(0.0181362 1.73001e-05 0)
(0.0179073 1.6657e-05 0)
(0.0176857 1.60482e-05 0)
(0.0174713 1.54715e-05 0)
(0.0172635 1.49249e-05 0)
(0.017062 1.44065e-05 0)
(0.0168666 1.39144e-05 0)
(0.016677 1.34471e-05 0)
(0.0164927 1.30029e-05 0)
(0.0163137 1.25806e-05 0)
(0.0161396 1.21788e-05 0)
(0.0159701 1.17962e-05 0)
(0.0158052 1.14318e-05 0)
(0.0156446 1.10845e-05 0)
(0.015488 1.07532e-05 0)
(0.0153353 1.04372e-05 0)
(0.0151864 1.01355e-05 0)
(0.015041 9.84736e-06 0)
(0.014899 9.57205e-06 0)
(0.0147603 9.30888e-06 0)
(0.0146247 9.05721e-06 0)
(0.0144921 8.81646e-06 0)
(0.0143624 8.58609e-06 0)
(0.0142354 8.36557e-06 0)
(0.0141111 8.15445e-06 0)
(0.0139893 7.95231e-06 0)
(0.0138699 7.7587e-06 0)
(0.0137528 7.5733e-06 0)
(0.013638 7.39579e-06 0)
(0.0135253 7.2258e-06 0)
(0.0134147 7.06311e-06 0)
(0.013306 6.90745e-06 0)
(0.0131992 6.75861e-06 0)
(0.0130942 6.61637e-06 0)
(0.012991 6.48059e-06 0)
(0.0128894 6.35112e-06 0)
(0.0127893 6.22787e-06 0)
(0.0126908 6.11075e-06 0)
(0.0125937 5.99973e-06 0)
(0.0124979 5.89484e-06 0)
(0.0124034 5.79616e-06 0)
(0.0123102 5.70386e-06 0)
(0.012218 5.61833e-06 0)
(0.0121269 5.54023e-06 0)
(0.0120367 5.47078e-06 0)
(0.0119473 5.41249e-06 0)
(0.0118586 5.37061e-06 0)
(0.0117703 5.35752e-06 0)
(0.011682 5.41062e-06 0)
(0.0115917 5.54947e-06 0)
(0.0115157 5.05168e-06 0)
(0.0112638 3.48117e-05 0)
(0.189507 0.00946392 0)
(0.187167 0.00996763 0)
(0.183226 0.00974474 0)
(0.17804 0.00924753 0)
(0.172108 0.00861288 0)
(0.165777 0.00788752 0)
(0.159268 0.00711005 0)
(0.15275 0.00631605 0)
(0.146356 0.0055354 0)
(0.140188 0.00479266 0)
(0.134312 0.00410706 0)
(0.128768 0.00349181 0)
(0.123577 0.00295382 0)
(0.11874 0.00249423 0)
(0.114251 0.00210945 0)
(0.110093 0.00179258 0)
(0.106247 0.0015348 0)
(0.102689 0.00132667 0)
(0.0993962 0.00115903 0)
(0.0963448 0.00102365 0)
(0.0935122 0.00091353 0)
(0.0908777 0.00082295 0)
(0.0884219 0.000747425 0)
(0.0861276 0.000683519 0)
(0.0839791 0.000628654 0)
(0.0819628 0.000580923 0)
(0.0800661 0.000538918 0)
(0.0782784 0.000501599 0)
(0.0765899 0.000468188 0)
(0.0749922 0.000438093 0)
(0.0734775 0.000410852 0)
(0.0720392 0.000386093 0)
(0.0706713 0.000363515 0)
(0.0693683 0.000342864 0)
(0.0681254 0.000323924 0)
(0.0669382 0.000306508 0)
(0.0658029 0.000290456 0)
(0.0647158 0.000275626 0)
(0.0636737 0.000261895 0)
(0.0626737 0.000249155 0)
(0.0617131 0.00023731 0)
(0.0607894 0.000226277 0)
(0.0599005 0.000215982 0)
(0.0590443 0.000206358 0)
(0.0582189 0.000197348 0)
(0.0574224 0.000188901 0)
(0.0566534 0.00018097 0)
(0.0559104 0.000173514 0)
(0.0551918 0.000166496 0)
(0.0544965 0.000159883 0)
(0.0538233 0.000153644 0)
(0.053171 0.000147753 0)
(0.0525386 0.000142186 0)
(0.051925 0.000136918 0)
(0.0513295 0.00013193 0)
(0.0507511 0.000127204 0)
(0.0501891 0.000122721 0)
(0.0496426 0.000118465 0)
(0.0491109 0.000114424 0)
(0.0485935 0.000110582 0)
(0.0480896 0.000106927 0)
(0.0475986 0.000103449 0)
(0.04712 0.000100136 0)
(0.0466533 9.69785e-05 0)
(0.046198 9.39675e-05 0)
(0.0457535 9.10945e-05 0)
(0.0453195 8.83517e-05 0)
(0.0448954 8.57317e-05 0)
(0.0444809 8.32279e-05 0)
(0.0440757 8.08339e-05 0)
(0.0436792 7.85439e-05 0)
(0.0432913 7.63525e-05 0)
(0.0429114 7.42546e-05 0)
(0.0425394 7.22456e-05 0)
(0.042175 7.0321e-05 0)
(0.0418177 6.8477e-05 0)
(0.0414674 6.67098e-05 0)
(0.0411238 6.5016e-05 0)
(0.0407866 6.33923e-05 0)
(0.0404556 6.1836e-05 0)
(0.0401306 6.03444e-05 0)
(0.0398112 5.89151e-05 0)
(0.0394973 5.75459e-05 0)
(0.0391886 5.62349e-05 0)
(0.038885 5.49806e-05 0)
(0.0385863 5.37814e-05 0)
(0.0382921 5.26364e-05 0)
(0.0380024 5.15447e-05 0)
(0.0377168 5.0506e-05 0)
(0.0374353 4.95206e-05 0)
(0.0371575 4.85898e-05 0)
(0.0368833 4.77167e-05 0)
(0.0366123 4.69073e-05 0)
(0.0363444 4.6175e-05 0)
(0.0360791 4.55491e-05 0)
(0.035816 4.51032e-05 0)
(0.0355538 4.50374e-05 0)
(0.0352891 4.58381e-05 0)
(0.0350409 5.14023e-05 0)
(0.0345293 0.000122121 0)
(0.192494 0.0090949 0)
(0.193255 0.0100459 0)
(0.193374 0.0103825 0)
(0.192704 0.0103918 0)
(0.191353 0.0101715 0)
(0.189441 0.00975964 0)
(0.187055 0.00920134 0)
(0.184283 0.00854662 0)
(0.181217 0.00784127 0)
(0.177944 0.00712417 0)
(0.174541 0.00642652 0)
(0.171072 0.00577124 0)
(0.167587 0.00517285 0)
(0.164126 0.00463828 0)
(0.160718 0.00416839 0)
(0.157383 0.00375975 0)
(0.154134 0.00340634 0)
(0.150979 0.00310102 0)
(0.147923 0.00283655 0)
(0.144966 0.00260628 0)
(0.142108 0.0024044 0)
(0.139348 0.00222609 0)
(0.136683 0.00206743 0)
(0.134112 0.0019253 0)
(0.13163 0.00179723 0)
(0.129236 0.00168123 0)
(0.126926 0.00157575 0)
(0.124697 0.00147949 0)
(0.122547 0.00139139 0)
(0.120472 0.00131057 0)
(0.11847 0.00123627 0)
(0.116537 0.00116782 0)
(0.11467 0.00110465 0)
(0.112868 0.00104625 0)
(0.111127 0.000992172 0)
(0.109445 0.00094201 0)
(0.107818 0.000895405 0)
(0.106246 0.000852037 0)
(0.104725 0.000811618 0)
(0.103253 0.000773892 0)
(0.101828 0.000738627 0)
(0.100448 0.000705616 0)
(0.0991106 0.000674675 0)
(0.0978146 0.000645635 0)
(0.0965578 0.000618346 0)
(0.0953385 0.000592673 0)
(0.0941553 0.000568492 0)
(0.0930064 0.000545693 0)
(0.0918905 0.000524175 0)
(0.0908062 0.000503846 0)
(0.0897521 0.000484622 0)
(0.0887269 0.000466428 0)
(0.0877295 0.000449193 0)
(0.0867588 0.000432854 0)
(0.0858135 0.000417352 0)
(0.0848928 0.000402633 0)
(0.0839956 0.000388648 0)
(0.0831209 0.000375351 0)
(0.0822679 0.000362698 0)
(0.0814358 0.000350652 0)
(0.0806237 0.000339176 0)
(0.0798309 0.000328236 0)
(0.0790565 0.000317801 0)
(0.0783 0.000307843 0)
(0.0775605 0.000298333 0)
(0.0768376 0.000289247 0)
(0.0761306 0.000280562 0)
(0.0754388 0.000272255 0)
(0.0747618 0.000264307 0)
(0.074099 0.000256699 0)
(0.0734498 0.000249412 0)
(0.0728138 0.000242431 0)
(0.0721906 0.00023574 0)
(0.0715796 0.000229325 0)
(0.0709804 0.000223172 0)
(0.0703927 0.00021727 0)
(0.069816 0.000211606 0)
(0.0692498 0.00020617 0)
(0.0686939 0.000200952 0)
(0.068148 0.000195943 0)
(0.0676115 0.000191135 0)
(0.0670842 0.00018652 0)
(0.0665658 0.00018209 0)
(0.066056 0.000177841 0)
(0.0655543 0.000173765 0)
(0.0650606 0.000169859 0)
(0.0645745 0.000166118 0)
(0.0640957 0.00016254 0)
(0.0636239 0.000159122 0)
(0.0631587 0.000155863 0)
(0.0627 0.000152767 0)
(0.0622473 0.000149839 0)
(0.0618003 0.000147093 0)
(0.0613586 0.000144561 0)
(0.0609217 0.000142313 0)
(0.0604888 0.000140526 0)
(0.0600586 0.00013969 0)
(0.0596275 0.000141367 0)
(0.0592074 0.000157397 0)
(0.0585392 0.000246691 0)
(0.193534 0.00845361 0)
(0.194653 0.00949776 0)
(0.195673 0.0100553 0)
(0.196382 0.0103015 0)
(0.196754 0.0103161 0)
(0.196795 0.0101312 0)
(0.196499 0.00978227 0)
(0.195873 0.00931195 0)
(0.19494 0.00876217 0)
(0.193736 0.00817038 0)
(0.192303 0.00756845 0)
(0.190682 0.00698158 0)
(0.188916 0.00642774 0)
(0.187039 0.00591792 0)
(0.185083 0.00545707 0)
(0.183073 0.0050456 0)
(0.18103 0.00468079 0)
(0.178967 0.00435811 0)
(0.176897 0.00407232 0)
(0.174827 0.00381811 0)
(0.172765 0.0035906 0)
(0.170713 0.00338552 0)
(0.168677 0.0031993 0)
(0.166659 0.00302902 0)
(0.164661 0.00287237 0)
(0.162686 0.00272748 0)
(0.160734 0.00259289 0)
(0.158808 0.00246745 0)
(0.156909 0.0023502 0)
(0.155038 0.00224038 0)
(0.153195 0.00213733 0)
(0.151382 0.0020405 0)
(0.1496 0.00194941 0)
(0.147848 0.00186362 0)
(0.146128 0.00178276 0)
(0.144438 0.00170648 0)
(0.142781 0.00163446 0)
(0.141155 0.00156641 0)
(0.13956 0.00150206 0)
(0.137997 0.00144118 0)
(0.136464 0.00138354 0)
(0.134963 0.00132892 0)
(0.133491 0.00127714 0)
(0.13205 0.00122802 0)
(0.130638 0.00118139 0)
(0.129255 0.00113711 0)
(0.127901 0.00109503 0)
(0.126574 0.00105502 0)
(0.125275 0.00101696 0)
(0.124002 0.000980728 0)
(0.122756 0.000946227 0)
(0.121535 0.000913356 0)
(0.12034 0.000882022 0)
(0.119168 0.00085214 0)
(0.118021 0.000823628 0)
(0.116897 0.000796411 0)
(0.115795 0.000770419 0)
(0.114715 0.000745585 0)
(0.113657 0.000721848 0)
(0.11262 0.000699149 0)
(0.111603 0.000677433 0)
(0.110605 0.00065665 0)
(0.109627 0.000636751 0)
(0.108668 0.000617691 0)
(0.107726 0.000599427 0)
(0.106803 0.00058192 0)
(0.105896 0.00056513 0)
(0.105006 0.000549024 0)
(0.104133 0.000533568 0)
(0.103275 0.00051873 0)
(0.102432 0.000504482 0)
(0.101604 0.000490794 0)
(0.100791 0.000477642 0)
(0.0999913 0.000465001 0)
(0.0992055 0.000452848 0)
(0.0984329 0.000441161 0)
(0.0976732 0.000429921 0)
(0.0969259 0.000419109 0)
(0.0961907 0.000408708 0)
(0.0954672 0.0003987 0)
(0.0947551 0.000389071 0)
(0.094054 0.000379808 0)
(0.0933637 0.000370898 0)
(0.0926837 0.000362328 0)
(0.0920137 0.00035409 0)
(0.0913535 0.000346174 0)
(0.0907027 0.000338572 0)
(0.0900609 0.000331279 0)
(0.0894279 0.000324289 0)
(0.0888033 0.000317603 0)
(0.0881868 0.000311223 0)
(0.0875779 0.000305157 0)
(0.0869765 0.00029943 0)
(0.0863819 0.000294091 0)
(0.0857936 0.000289258 0)
(0.0852109 0.000285223 0)
(0.0846324 0.000282802 0)
(0.0840551 0.000284806 0)
(0.0834874 0.000306653 0)
(0.082709 0.000393582 0)
(0.194272 0.00794914 0)
(0.195251 0.00892735 0)
(0.196304 0.00952053 0)
(0.197263 0.00983863 0)
(0.198085 0.00995164 0)
(0.198751 0.00988906 0)
(0.199236 0.00967685 0)
(0.199516 0.00934696 0)
(0.199584 0.0089328 0)
(0.199443 0.00846572 0)
(0.199107 0.00797365 0)
(0.198597 0.00747995 0)
(0.197933 0.00700248 0)
(0.197142 0.00655341 0)
(0.196243 0.00613964 0)
(0.195258 0.00576378 0)
(0.194203 0.00542532 0)
(0.193092 0.00512169 0)
(0.191934 0.00484926 0)
(0.190739 0.00460401 0)
(0.189513 0.00438201 0)
(0.18826 0.00417971 0)
(0.186985 0.00399406 0)
(0.18569 0.00382252 0)
(0.18438 0.00366303 0)
(0.183055 0.00351395 0)
(0.181719 0.00337397 0)
(0.180373 0.00324207 0)
(0.17902 0.00311741 0)
(0.177661 0.00299931 0)
(0.176298 0.00288723 0)
(0.174933 0.00278068 0)
(0.173568 0.00267926 0)
(0.172203 0.00258262 0)
(0.170841 0.00249045 0)
(0.169483 0.00240247 0)
(0.168129 0.00231843 0)
(0.166781 0.00223809 0)
(0.165441 0.00216125 0)
(0.164108 0.00208772 0)
(0.162784 0.00201731 0)
(0.16147 0.00194986 0)
(0.160166 0.00188523 0)
(0.158873 0.00182327 0)
(0.157591 0.00176386 0)
(0.156321 0.00170686 0)
(0.155064 0.00165217 0)
(0.15382 0.00159968 0)
(0.152588 0.00154928 0)
(0.15137 0.00150089 0)
(0.150165 0.0014544 0)
(0.148975 0.00140975 0)
(0.147798 0.00136684 0)
(0.146635 0.0013256 0)
(0.145486 0.00128595 0)
(0.144352 0.00124783 0)
(0.143231 0.00121117 0)
(0.142125 0.00117591 0)
(0.141033 0.00114199 0)
(0.139955 0.00110935 0)
(0.138891 0.00107794 0)
(0.13784 0.0010477 0)
(0.136804 0.00101858 0)
(0.135781 0.000990539 0)
(0.134772 0.00096353 0)
(0.133776 0.00093751 0)
(0.132793 0.000912436 0)
(0.131823 0.00088827 0)
(0.130867 0.000864975 0)
(0.129922 0.000842514 0)
(0.128991 0.000820855 0)
(0.128071 0.000799964 0)
(0.127164 0.000779811 0)
(0.126269 0.000760367 0)
(0.125385 0.000741604 0)
(0.124513 0.000723498 0)
(0.123652 0.000706022 0)
(0.122802 0.000689155 0)
(0.121963 0.000672873 0)
(0.121135 0.000657158 0)
(0.120317 0.00064199 0)
(0.119509 0.000627352 0)
(0.118711 0.000613227 0)
(0.117923 0.000599601 0)
(0.117145 0.000586461 0)
(0.116376 0.000573796 0)
(0.115615 0.000561595 0)
(0.114864 0.000549852 0)
(0.114121 0.000538561 0)
(0.113387 0.000527721 0)
(0.11266 0.000517337 0)
(0.111941 0.000507423 0)
(0.11123 0.000498011 0)
(0.110525 0.000489172 0)
(0.109827 0.00048107 0)
(0.109135 0.000474103 0)
(0.108448 0.000469378 0)
(0.107763 0.000470548 0)
(0.107092 0.0004923 0)
(0.106243 0.00056209 0)
(0.194902 0.00751598 0)
(0.195707 0.00838981 0)
(0.196628 0.0089679 0)
(0.19754 0.00931012 0)
(0.198397 0.00947 0)
(0.199178 0.00947439 0)
(0.199861 0.00934447 0)
(0.200423 0.00910568 0)
(0.200848 0.00878565 0)
(0.201132 0.00841095 0)
(0.201276 0.00800568 0)
(0.201289 0.0075905 0)
(0.201182 0.0071818 0)
(0.20097 0.00679139 0)
(0.200667 0.00642667 0)
(0.200286 0.00609128 0)
(0.19984 0.00578601 0)
(0.199338 0.00550963 0)
(0.19879 0.00525971 0)
(0.1982 0.00503328 0)
(0.197575 0.00482724 0)
(0.196917 0.00463864 0)
(0.19623 0.00446489 0)
(0.195516 0.00430375 0)
(0.194776 0.00415337 0)
(0.194012 0.00401226 0)
(0.193226 0.00387919 0)
(0.192419 0.00375319 0)
(0.191592 0.00363349 0)
(0.190746 0.00351944 0)
(0.189883 0.00341054 0)
(0.189004 0.00330635 0)
(0.18811 0.0032065 0)
(0.187203 0.00311069 0)
(0.186282 0.00301865 0)
(0.185351 0.00293013 0)
(0.184409 0.00284493 0)
(0.183458 0.00276286 0)
(0.182498 0.00268375 0)
(0.181531 0.00260745 0)
(0.180558 0.00253382 0)
(0.17958 0.00246274 0)
(0.178596 0.00239408 0)
(0.177609 0.00232775 0)
(0.176619 0.00226363 0)
(0.175627 0.00220165 0)
(0.174633 0.00214172 0)
(0.173639 0.00208375 0)
(0.172644 0.00202768 0)
(0.17165 0.00197343 0)
(0.170656 0.00192093 0)
(0.169664 0.00187013 0)
(0.168674 0.00182097 0)
(0.167687 0.00177337 0)
(0.166702 0.0017273 0)
(0.165721 0.0016827 0)
(0.164743 0.00163952 0)
(0.16377 0.00159771 0)
(0.1628 0.00155722 0)
(0.161836 0.00151802 0)
(0.160876 0.00148005 0)
(0.159922 0.00144327 0)
(0.158973 0.00140765 0)
(0.158029 0.00137314 0)
(0.157092 0.00133972 0)
(0.15616 0.00130733 0)
(0.155235 0.00127596 0)
(0.154315 0.00124556 0)
(0.153403 0.0012161 0)
(0.152496 0.00118755 0)
(0.151597 0.00115988 0)
(0.150704 0.00113306 0)
(0.149817 0.00110707 0)
(0.148938 0.00108188 0)
(0.148065 0.00105746 0)
(0.147199 0.00103379 0)
(0.14634 0.00101085 0)
(0.145487 0.000988608 0)
(0.144642 0.000967055 0)
(0.143803 0.000946167 0)
(0.142971 0.000925928 0)
(0.142146 0.00090632 0)
(0.141328 0.000887328 0)
(0.140516 0.000868939 0)
(0.139711 0.00085114 0)
(0.138912 0.000833922 0)
(0.13812 0.000817276 0)
(0.137334 0.000801195 0)
(0.136554 0.000785679 0)
(0.13578 0.000770727 0)
(0.135012 0.00075635 0)
(0.13425 0.000742568 0)
(0.133493 0.000729424 0)
(0.132742 0.000717009 0)
(0.131996 0.000705524 0)
(0.131254 0.000695444 0)
(0.130516 0.00068803 0)
(0.129782 0.000687004 0)
(0.129064 0.000703569 0)
(0.128195 0.000747577 0)
(0.195457 0.00714629 0)
(0.196121 0.00791672 0)
(0.196904 0.00846311 0)
(0.197713 0.00881018 0)
(0.198502 0.00899405 0)
(0.199249 0.00903795 0)
(0.199934 0.00896046 0)
(0.200538 0.00878292 0)
(0.201049 0.00852878 0)
(0.20146 0.00822097 0)
(0.201769 0.00788049 0)
(0.201982 0.00752553 0)
(0.202105 0.0071709 0)
(0.202148 0.00682769 0)
(0.202121 0.0065033 0)
(0.202034 0.00620191 0)
(0.201896 0.00592514 0)
(0.201715 0.00567271 0)
(0.201498 0.00544314 0)
(0.201249 0.00523427 0)
(0.200971 0.00504367 0)
(0.200669 0.00486893 0)
(0.200342 0.00470782 0)
(0.199994 0.00455837 0)
(0.199625 0.0044189 0)
(0.199236 0.004288 0)
(0.198827 0.00416455 0)
(0.198399 0.00404758 0)
(0.197952 0.00393636 0)
(0.197487 0.00383024 0)
(0.197005 0.00372873 0)
(0.196505 0.0036314 0)
(0.195989 0.0035379 0)
(0.195457 0.00344791 0)
(0.194909 0.00336118 0)
(0.194347 0.00327748 0)
(0.19377 0.00319663 0)
(0.193179 0.00311843 0)
(0.192575 0.00304274 0)
(0.191959 0.00296941 0)
(0.19133 0.00289834 0)
(0.19069 0.00282939 0)
(0.190039 0.00276249 0)
(0.189378 0.00269753 0)
(0.188706 0.00263443 0)
(0.188026 0.00257311 0)
(0.187337 0.00251352 0)
(0.186639 0.00245559 0)
(0.185934 0.00239925 0)
(0.185222 0.00234445 0)
(0.184502 0.00229114 0)
(0.183777 0.00223928 0)
(0.183046 0.00218881 0)
(0.182309 0.00213971 0)
(0.181568 0.00209191 0)
(0.180822 0.0020454 0)
(0.180072 0.00200012 0)
(0.179319 0.00195605 0)
(0.178562 0.00191315 0)
(0.177802 0.00187138 0)
(0.17704 0.00183072 0)
(0.176276 0.00179113 0)
(0.17551 0.00175259 0)
(0.174742 0.00171507 0)
(0.173973 0.00167854 0)
(0.173203 0.00164296 0)
(0.172432 0.00160832 0)
(0.171661 0.0015746 0)
(0.17089 0.00154176 0)
(0.170119 0.00150978 0)
(0.169348 0.00147864 0)
(0.168578 0.00144832 0)
(0.167808 0.0014188 0)
(0.16704 0.00139005 0)
(0.166272 0.00136207 0)
(0.165506 0.00133482 0)
(0.164741 0.00130829 0)
(0.163978 0.00128247 0)
(0.163216 0.00125734 0)
(0.162457 0.00123288 0)
(0.161699 0.00120908 0)
(0.160944 0.00118594 0)
(0.16019 0.00116343 0)
(0.159439 0.00114156 0)
(0.15869 0.0011203 0)
(0.157944 0.00109967 0)
(0.1572 0.00107964 0)
(0.156458 0.00106022 0)
(0.155719 0.00104142 0)
(0.154982 0.00102324 0)
(0.154248 0.00100569 0)
(0.153516 0.000988803 0)
(0.152786 0.000972637 0)
(0.152059 0.000957295 0)
(0.151334 0.000943001 0)
(0.150611 0.000930253 0)
(0.149889 0.000920262 0)
(0.149172 0.000916076 0)
(0.148472 0.000924214 0)
(0.14764 0.000939782 0)
(0.195947 0.00682824 0)
(0.196504 0.00750393 0)
(0.197168 0.00800981 0)
(0.197873 0.00835 0)
(0.198579 0.00854614 0)
(0.199259 0.00861676 0)
(0.199895 0.00857786 0)
(0.200472 0.00844726 0)
(0.200977 0.0082447 0)
(0.201406 0.0079899 0)
(0.201755 0.00770117 0)
(0.202028 0.00739462 0)
(0.202231 0.00708365 0)
(0.202369 0.0067786 0)
(0.202452 0.00648677 0)
(0.202488 0.00621267 0)
(0.202484 0.00595855 0)
(0.202448 0.00572491 0)
(0.202384 0.00551102 0)
(0.202297 0.00531546 0)
(0.20219 0.0051364 0)
(0.202066 0.00497191 0)
(0.201926 0.00482014 0)
(0.201771 0.00467937 0)
(0.201603 0.00454812 0)
(0.201422 0.0044251 0)
(0.201227 0.00430925 0)
(0.20102 0.00419966 0)
(0.2008 0.00409561 0)
(0.200568 0.00399646 0)
(0.200323 0.00390172 0)
(0.200065 0.00381095 0)
(0.199795 0.00372379 0)
(0.199513 0.00363993 0)
(0.199219 0.0035591 0)
(0.198912 0.00348108 0)
(0.198594 0.00340566 0)
(0.198264 0.00333266 0)
(0.197922 0.00326193 0)
(0.197569 0.00319333 0)
(0.197205 0.00312673 0)
(0.196829 0.00306202 0)
(0.196443 0.0029991 0)
(0.196046 0.0029379 0)
(0.195638 0.00287831 0)
(0.19522 0.00282028 0)
(0.194793 0.00276374 0)
(0.194355 0.00270862 0)
(0.193908 0.00265488 0)
(0.193452 0.00260245 0)
(0.192987 0.00255131 0)
(0.192513 0.0025014 0)
(0.19203 0.00245268 0)
(0.191539 0.00240512 0)
(0.191041 0.00235868 0)
(0.190534 0.00231333 0)
(0.19002 0.00226903 0)
(0.189499 0.00222577 0)
(0.188971 0.0021835 0)
(0.188436 0.00214221 0)
(0.187895 0.00210187 0)
(0.187347 0.00206245 0)
(0.186794 0.00202393 0)
(0.186234 0.00198628 0)
(0.18567 0.00194949 0)
(0.1851 0.00191354 0)
(0.184525 0.0018784 0)
(0.183945 0.00184406 0)
(0.183361 0.00181049 0)
(0.182772 0.00177768 0)
(0.18218 0.00174562 0)
(0.181583 0.00171427 0)
(0.180983 0.00168364 0)
(0.180379 0.0016537 0)
(0.179772 0.00162444 0)
(0.179162 0.00159585 0)
(0.178549 0.00156791 0)
(0.177933 0.00154062 0)
(0.177315 0.00151396 0)
(0.176694 0.00148792 0)
(0.176071 0.0014625 0)
(0.175446 0.00143768 0)
(0.174819 0.00141347 0)
(0.17419 0.00138985 0)
(0.17356 0.00136682 0)
(0.172927 0.00134439 0)
(0.172294 0.00132255 0)
(0.171659 0.00130131 0)
(0.171022 0.00128068 0)
(0.170385 0.00126066 0)
(0.169746 0.00124128 0)
(0.169106 0.00122259 0)
(0.168465 0.00120463 0)
(0.167823 0.00118752 0)
(0.167179 0.00117149 0)
(0.166535 0.00115699 0)
(0.16589 0.001145 0)
(0.165248 0.00113741 0)
(0.164622 0.00113614 0)
(0.163881 0.00112604 0)
(0.196382 0.00654903 0)
(0.196855 0.00714061 0)
(0.197421 0.00760268 0)
(0.198035 0.00792902 0)
(0.198659 0.00813049 0)
(0.19927 0.00822051 0)
(0.199849 0.00821218 0)
(0.200382 0.00812015 0)
(0.200858 0.00796079 0)
(0.201271 0.00775088 0)
(0.201618 0.00750631 0)
(0.201902 0.00724131 0)
(0.202127 0.00696795 0)
(0.202297 0.00669585 0)
(0.202421 0.00643208 0)
(0.202504 0.00618135 0)
(0.202554 0.00594638 0)
(0.202577 0.00572826 0)
(0.202577 0.00552697 0)
(0.202559 0.00534168 0)
(0.202526 0.00517114 0)
(0.20248 0.00501389 0)
(0.202424 0.00486845 0)
(0.202358 0.00473338 0)
(0.202284 0.0046074 0)
(0.202202 0.00448938 0)
(0.202112 0.00437833 0)
(0.202015 0.00427344 0)
(0.201911 0.00417399 0)
(0.201799 0.0040794 0)
(0.20168 0.00398916 0)
(0.201553 0.00390285 0)
(0.20142 0.00382011 0)
(0.201278 0.00374063 0)
(0.20113 0.00366413 0)
(0.200974 0.00359039 0)
(0.20081 0.0035192 0)
(0.200638 0.00345037 0)
(0.200459 0.00338374 0)
(0.200272 0.00331917 0)
(0.200077 0.00325652 0)
(0.199875 0.00319569 0)
(0.199664 0.00313658 0)
(0.199446 0.00307908 0)
(0.19922 0.00302311 0)
(0.198986 0.0029686 0)
(0.198744 0.00291548 0)
(0.198494 0.00286368 0)
(0.198237 0.00281315 0)
(0.197971 0.00276384 0)
(0.197698 0.0027157 0)
(0.197417 0.00266868 0)
(0.197129 0.00262275 0)
(0.196832 0.00257786 0)
(0.196529 0.00253398 0)
(0.196217 0.00249107 0)
(0.195899 0.00244911 0)
(0.195573 0.00240806 0)
(0.195239 0.0023679 0)
(0.194899 0.0023286 0)
(0.194551 0.00229014 0)
(0.194197 0.00225249 0)
(0.193835 0.00221563 0)
(0.193467 0.00217955 0)
(0.193092 0.00214421 0)
(0.192711 0.0021096 0)
(0.192323 0.0020757 0)
(0.191929 0.00204249 0)
(0.191529 0.00200997 0)
(0.191122 0.0019781 0)
(0.19071 0.00194689 0)
(0.190292 0.0019163 0)
(0.189868 0.00188634 0)
(0.189438 0.00185698 0)
(0.189003 0.00182821 0)
(0.188562 0.00180004 0)
(0.188117 0.00177243 0)
(0.187666 0.0017454 0)
(0.18721 0.00171892 0)
(0.18675 0.001693 0)
(0.186284 0.00166762 0)
(0.185814 0.00164279 0)
(0.185339 0.00161849 0)
(0.18486 0.00159474 0)
(0.184377 0.00157153 0)
(0.183889 0.00154885 0)
(0.183397 0.00152673 0)
(0.182901 0.00150517 0)
(0.182401 0.00148417 0)
(0.181897 0.00146376 0)
(0.181389 0.00144396 0)
(0.180878 0.00142482 0)
(0.180362 0.0014064 0)
(0.179843 0.00138881 0)
(0.17932 0.00137225 0)
(0.178794 0.00135706 0)
(0.178266 0.00134387 0)
(0.177739 0.00133331 0)
(0.177223 0.00132365 0)
(0.176607 0.00129459 0)
(0.19677 0.00629987 0)
(0.197177 0.0068184 0)
(0.197662 0.0072371 0)
(0.198195 0.00754548 0)
(0.198746 0.00774718 0)
(0.199292 0.00785093 0)
(0.199815 0.00786692 0)
(0.200302 0.00780699 0)
(0.200743 0.00768456 0)
(0.201132 0.00751372 0)
(0.201466 0.00730811 0)
(0.201745 0.00708022 0)
(0.201973 0.00684082 0)
(0.202153 0.00659875 0)
(0.202291 0.00636075 0)
(0.202394 0.0061316 0)
(0.202466 0.0059143 0)
(0.202513 0.00571044 0)
(0.202541 0.00552053 0)
(0.202551 0.00534429 0)
(0.202549 0.00518098 0)
(0.202537 0.00502957 0)
(0.202515 0.00488892 0)
(0.202487 0.0047579 0)
(0.202453 0.00463544 0)
(0.202413 0.00452056 0)
(0.202369 0.00441241 0)
(0.20232 0.00431024 0)
(0.202267 0.0042134 0)
(0.20221 0.00412135 0)
(0.202149 0.00403362 0)
(0.202084 0.00394979 0)
(0.202016 0.00386952 0)
(0.201944 0.00379252 0)
(0.201867 0.0037185 0)
(0.201787 0.00364725 0)
(0.201703 0.00357856 0)
(0.201615 0.00351224 0)
(0.201523 0.00344814 0)
(0.201426 0.00338611 0)
(0.201325 0.00332602 0)
(0.20122 0.00326776 0)
(0.20111 0.00321121 0)
(0.200996 0.00315628 0)
(0.200876 0.00310289 0)
(0.200753 0.00305095 0)
(0.200624 0.0030004 0)
(0.20049 0.00295116 0)
(0.200351 0.00290319 0)
(0.200208 0.00285641 0)
(0.200059 0.00281079 0)
(0.199904 0.00276626 0)
(0.199745 0.0027228 0)
(0.19958 0.00268035 0)
(0.199409 0.00263888 0)
(0.199233 0.00259835 0)
(0.199052 0.00255874 0)
(0.198865 0.00252 0)
(0.198672 0.0024821 0)
(0.198474 0.00244502 0)
(0.19827 0.00240874 0)
(0.19806 0.00237322 0)
(0.197845 0.00233845 0)
(0.197624 0.00230439 0)
(0.197397 0.00227103 0)
(0.197164 0.00223835 0)
(0.196925 0.00220633 0)
(0.196681 0.00217494 0)
(0.196431 0.00214418 0)
(0.196175 0.00211403 0)
(0.195914 0.00208446 0)
(0.195647 0.00205547 0)
(0.195374 0.00202705 0)
(0.195095 0.00199917 0)
(0.194811 0.00197183 0)
(0.194521 0.00194502 0)
(0.194226 0.00191873 0)
(0.193925 0.00189295 0)
(0.193618 0.00186768 0)
(0.193306 0.0018429 0)
(0.192989 0.00181862 0)
(0.192666 0.00179483 0)
(0.192338 0.00177153 0)
(0.192004 0.00174872 0)
(0.191666 0.0017264 0)
(0.191321 0.00170458 0)
(0.190972 0.00168326 0)
(0.190617 0.00166246 0)
(0.190258 0.0016422 0)
(0.189893 0.00162248 0)
(0.189522 0.00160335 0)
(0.189147 0.00158483 0)
(0.188767 0.00156701 0)
(0.188381 0.00154996 0)
(0.187991 0.00153385 0)
(0.187596 0.00151888 0)
(0.187198 0.00150527 0)
(0.186799 0.00149261 0)
(0.186407 0.00147688 0)
(0.18593 0.00143721 0)
(0.197117 0.00607482 0)
(0.19747 0.00653057 0)
(0.197889 0.00690831 0)
(0.198352 0.00719657 0)
(0.198838 0.00739461 0)
(0.199324 0.0075074 0)
(0.199795 0.00754246 0)
(0.200238 0.00750914 0)
(0.200644 0.00741832 0)
(0.201007 0.00728166 0)
(0.201323 0.00711076 0)
(0.201592 0.00691642 0)
(0.201817 0.00670818 0)
(0.201999 0.00649406 0)
(0.202143 0.0062804 0)
(0.202254 0.00607189 0)
(0.202338 0.00587172 0)
(0.202398 0.00568181 0)
(0.202438 0.0055031 0)
(0.202463 0.00533576 0)
(0.202475 0.00517949 0)
(0.202478 0.00503363 0)
(0.202472 0.0048974 0)
(0.20246 0.00476993 0)
(0.202442 0.00465036 0)
(0.20242 0.00453789 0)
(0.202394 0.00443178 0)
(0.202366 0.00433139 0)
(0.202334 0.00423615 0)
(0.2023 0.00414555 0)
(0.202263 0.00405916 0)
(0.202225 0.00397662 0)
(0.202184 0.00389759 0)
(0.202142 0.00382179 0)
(0.202098 0.00374897 0)
(0.202052 0.00367891 0)
(0.202004 0.00361141 0)
(0.201954 0.00354629 0)
(0.201902 0.00348341 0)
(0.201849 0.00342263 0)
(0.201793 0.0033638 0)
(0.201736 0.00330683 0)
(0.201676 0.00325161 0)
(0.201615 0.00319804 0)
(0.201551 0.00314603 0)
(0.201485 0.00309551 0)
(0.201416 0.00304641 0)
(0.201345 0.00299866 0)
(0.201271 0.00295219 0)
(0.201195 0.00290695 0)
(0.201116 0.00286289 0)
(0.201034 0.00281996 0)
(0.200949 0.0027781 0)
(0.200861 0.00273729 0)
(0.20077 0.00269747 0)
(0.200676 0.00265862 0)
(0.200578 0.00262068 0)
(0.200477 0.00258364 0)
(0.200372 0.00254745 0)
(0.200264 0.00251209 0)
(0.200153 0.00247753 0)
(0.200037 0.00244374 0)
(0.199918 0.00241069 0)
(0.199794 0.00237836 0)
(0.199667 0.00234672 0)
(0.199536 0.00231576 0)
(0.199401 0.00228545 0)
(0.199261 0.00225577 0)
(0.199117 0.0022267 0)
(0.198969 0.00219823 0)
(0.198817 0.00217033 0)
(0.19866 0.00214299 0)
(0.198499 0.0021162 0)
(0.198333 0.00208994 0)
(0.198163 0.00206421 0)
(0.197988 0.00203898 0)
(0.197808 0.00201424 0)
(0.197624 0.00199 0)
(0.197435 0.00196624 0)
(0.197241 0.00194295 0)
(0.197043 0.00192014 0)
(0.19684 0.00189779 0)
(0.196631 0.00187591 0)
(0.196418 0.00185449 0)
(0.1962 0.00183355 0)
(0.195978 0.00181308 0)
(0.19575 0.00179309 0)
(0.195517 0.0017736 0)
(0.195279 0.00175461 0)
(0.195036 0.00173616 0)
(0.194788 0.00171827 0)
(0.194535 0.00170098 0)
(0.194276 0.00168434 0)
(0.194013 0.00166843 0)
(0.193745 0.00165335 0)
(0.193472 0.00163916 0)
(0.193195 0.00162573 0)
(0.192916 0.00161192 0)
(0.192641 0.00159287 0)
(0.192294 0.00155048 0)
(0.197429 0.0058697 0)
(0.197737 0.0062717 0)
(0.198101 0.00661184 0)
(0.198505 0.00687926 0)
(0.198931 0.00707088 0)
(0.199363 0.00718892 0)
(0.199785 0.00723861 0)
(0.200187 0.00722714 0)
(0.200559 0.00716318 0)
(0.200896 0.00705629 0)
(0.201194 0.00691619 0)
(0.201451 0.00675213 0)
(0.201669 0.00657248 0)
(0.20185 0.00638443 0)
(0.201996 0.00619386 0)
(0.202112 0.00600526 0)
(0.202202 0.0058219 0)
(0.20227 0.00564592 0)
(0.202319 0.00547856 0)
(0.202353 0.00532038 0)
(0.202374 0.00517141 0)
(0.202385 0.00503137 0)
(0.202388 0.00489974 0)
(0.202384 0.00477592 0)
(0.202375 0.00465925 0)
(0.202361 0.00454911 0)
(0.202344 0.00444489 0)
(0.202324 0.00434604 0)
(0.202302 0.00425207 0)
(0.202277 0.00416253 0)
(0.202251 0.00407704 0)
(0.202223 0.00399527 0)
(0.202194 0.00391692 0)
(0.202164 0.00384172 0)
(0.202133 0.00376944 0)
(0.202101 0.00369988 0)
(0.202068 0.00363285 0)
(0.202035 0.00356819 0)
(0.202 0.00350576 0)
(0.201965 0.00344541 0)
(0.20193 0.00338704 0)
(0.201893 0.00333053 0)
(0.201856 0.00327579 0)
(0.201818 0.00322271 0)
(0.201779 0.00317123 0)
(0.20174 0.00312126 0)
(0.2017 0.00307274 0)
(0.201658 0.0030256 0)
(0.201616 0.00297977 0)
(0.201573 0.00293521 0)
(0.201528 0.00289186 0)
(0.201483 0.00284966 0)
(0.201436 0.00280859 0)
(0.201388 0.00276859 0)
(0.201338 0.00272962 0)
(0.201287 0.00269164 0)
(0.201235 0.00265462 0)
(0.201181 0.00261852 0)
(0.201125 0.00258331 0)
(0.201067 0.00254895 0)
(0.201007 0.00251543 0)
(0.200946 0.00248269 0)
(0.200882 0.00245074 0)
(0.200816 0.00241952 0)
(0.200748 0.00238902 0)
(0.200678 0.00235922 0)
(0.200605 0.00233009 0)
(0.20053 0.00230162 0)
(0.200452 0.00227377 0)
(0.200372 0.00224653 0)
(0.200289 0.00221989 0)
(0.200203 0.00219382 0)
(0.200114 0.00216831 0)
(0.200022 0.00214335 0)
(0.199927 0.00211891 0)
(0.199829 0.002095 0)
(0.199728 0.00207159 0)
(0.199624 0.00204867 0)
(0.199516 0.00202624 0)
(0.199405 0.0020043 0)
(0.19929 0.00198282 0)
(0.199172 0.00196182 0)
(0.19905 0.00194129 0)
(0.198924 0.00192123 0)
(0.198795 0.00190164 0)
(0.198662 0.00188252 0)
(0.198524 0.00186389 0)
(0.198383 0.00184576 0)
(0.198238 0.00182814 0)
(0.198089 0.00181104 0)
(0.197935 0.00179451 0)
(0.197777 0.00177857 0)
(0.197615 0.00176327 0)
(0.197449 0.00174865 0)
(0.197278 0.00173476 0)
(0.197104 0.00172154 0)
(0.196926 0.00170862 0)
(0.196746 0.00169453 0)
(0.196565 0.00167462 0)
(0.196328 0.00163534 0)
(0.197709 0.0056815 0)