/*--------------------------------*- C++ -*----------------------------------*\
| =========                 |                                                 |
| \\      /  F ield         | OpenFOAM: The Open Source CFD Toolbox           |
|  \\    /   O peration     | Version:  2.3.0                                 |
|   \\  /    A nd           | Web:      www.OpenFOAM.org                      |
|    \\/     M anipulation  |                                                 |
\*---------------------------------------------------------------------------*/
FoamFile
{
    version     2.0;
    format      ascii;
    class       surfaceScalarField;
    location    "0.5";
    object      phi_0;
}
// * * * * * * * * * * * * * * * * * * * * * * * * * * * * * * * * * * * * * //

dimensions      [0 3 -1 0 0 0 0];

internalField   nonuniform List<scalar> 
6598
(
2.88043e-08
2.97613e-09
-3.17805e-08
2.52231e-08
3.58126e-09
2.17051e-08
3.51804e-09
1.84792e-08
3.22588e-09
1.56711e-08
2.80807e-09
1.32361e-08
2.43503e-09
1.13341e-08
1.90195e-09
9.84434e-09
1.48978e-09
8.70193e-09
1.14241e-09
7.89006e-09
8.1187e-10
7.27489e-09
6.15169e-10
6.79392e-09
4.80979e-10
6.44692e-09
3.46999e-10
6.18484e-09
2.62072e-10
5.95912e-09
2.25723e-10
5.75643e-09
2.02692e-10
5.57485e-09
1.81581e-10
5.40661e-09
1.68242e-10
5.25037e-09
1.56239e-10
5.10654e-09
1.43829e-10
4.97054e-09
1.35998e-10
4.84111e-09
1.29433e-10
4.72004e-09
1.2107e-10
4.60731e-09
1.12723e-10
4.50255e-09
1.04766e-10
4.40406e-09
9.8491e-11
4.31051e-09
9.35436e-11
4.2227e-09
8.7813e-11
4.13953e-09
8.31672e-11
4.06057e-09
7.89598e-11
3.98661e-09
7.39663e-11
3.91574e-09
7.08682e-11
3.84778e-09
6.79622e-11
3.78376e-09
6.40173e-11
3.72202e-09
6.17363e-11
3.66214e-09
5.98789e-11
3.60578e-09
5.63614e-11
3.55199e-09
5.37892e-11
3.49988e-09
5.21127e-11
3.45029e-09
4.95949e-11
3.40285e-09
4.74365e-11
3.35735e-09
4.54961e-11
3.31323e-09
4.41213e-11
3.27041e-09
4.28234e-11
3.22987e-09
4.05402e-11
3.19028e-09
3.95857e-11
3.15185e-09
3.84288e-11
3.11544e-09
3.64099e-11
3.08064e-09
3.48032e-11
3.04684e-09
3.38011e-11
3.01371e-09
3.31282e-11
2.98206e-09
3.1649e-11
2.95171e-09
3.03538e-11
2.9225e-09
2.92139e-11
2.89413e-09
2.83609e-11
2.86642e-09
2.7718e-11
2.8399e-09
2.65138e-11
2.81418e-09
2.57258e-11
2.78966e-09
2.45188e-11
2.76605e-09
2.36134e-11
2.74259e-09
2.34515e-11
2.72051e-09
2.20864e-11
2.69968e-09
2.08296e-11
2.67884e-09
2.08337e-11
2.65914e-09
1.96998e-11
2.64025e-09
1.88967e-11
2.62175e-09
1.85009e-11
2.60429e-09
1.74586e-11
2.58764e-09
1.66494e-11
2.57145e-09
1.61924e-11
2.55615e-09
1.52935e-11
2.54134e-09
1.48175e-11
2.52718e-09
1.41578e-11
2.51368e-09
1.34999e-11
2.50118e-09
1.25e-11
2.48905e-09
1.21303e-11
2.47685e-09
1.21999e-11
2.46614e-09
1.07061e-11
2.45614e-09
1.00026e-11
2.44586e-09
1.02821e-11
2.43695e-09
8.90745e-12
2.42897e-09
7.97968e-12
2.42084e-09
8.1253e-12
2.41364e-09
7.20194e-12
2.40733e-09
6.31487e-12
2.40103e-09
6.30046e-12
2.3959e-09
5.129e-12
2.39102e-09
4.87663e-12
2.3865e-09
4.51758e-12
2.38239e-09
4.11461e-12
2.37947e-09
2.92363e-12
2.37598e-09
3.48507e-12
2.37376e-09
2.22335e-12
2.3717e-09
2.05279e-12
2.37073e-09
9.73906e-13
2.3685e-09
2.2345e-12
2.36873e-09
-2.36443e-13
2.36753e-09
1.19836e-12
2.36818e-09
-6.46459e-13
1.55615e-12
3.43338e-08
2.78514e-09
-3.41428e-08
3.41518e-08
3.76329e-09
3.34847e-08
4.18517e-09
3.24122e-08
4.29839e-09
3.11039e-08
4.11635e-09
2.95856e-08
3.95327e-09
2.81462e-08
3.34138e-09
2.66725e-08
2.96353e-09
2.52531e-08
2.56174e-09
2.39745e-08
2.09048e-09
2.27722e-08
1.81745e-09
2.16641e-08
1.58912e-09
2.06969e-08
1.31415e-09
1.98486e-08
1.11043e-09
1.90879e-08
9.86408e-10
1.83958e-08
8.9479e-10
1.77667e-08
8.10672e-10
1.71953e-08
7.39673e-10
1.66766e-08
6.74883e-10
1.62023e-08
6.18213e-10
1.57617e-08
5.7653e-10
1.53508e-08
5.40401e-10
1.4968e-08
5.03787e-10
1.46113e-08
4.69466e-10
1.42783e-08
4.37788e-10
1.3965e-08
4.11761e-10
1.36688e-08
3.89723e-10
1.33898e-08
3.66872e-10
1.31257e-08
3.47241e-10
1.28754e-08
3.2927e-10
1.26385e-08
3.10832e-10
1.24121e-08
2.97292e-10
1.21959e-08
2.84178e-10
1.19905e-08
2.6943e-10
1.17933e-08
2.58856e-10
1.1604e-08
2.49253e-10
1.1424e-08
2.36372e-10
1.12515e-08
2.26252e-10
1.10853e-08
2.18282e-10
1.09264e-08
2.08556e-10
1.07738e-08
1.99988e-10
1.06272e-08
1.92114e-10
1.04856e-08
1.85736e-10
1.03489e-08
1.79549e-10
1.02181e-08
1.71326e-10
1.00913e-08
1.66343e-10
9.96891e-09
1.60836e-10
9.85162e-09
1.53696e-10
9.73885e-09
1.47577e-10
9.62966e-09
1.42991e-10
9.52361e-09
1.39177e-10
9.42171e-09
1.33547e-10
9.32347e-09
1.28596e-10
9.2287e-09
1.23986e-10
9.13689e-09
1.20169e-10
9.04782e-09
1.16789e-10
8.96217e-09
1.12162e-10
8.87929e-09
1.08606e-10
8.79968e-09
1.0413e-10
8.72281e-09
1.00482e-10
8.64789e-09
9.83719e-11
8.57636e-09
9.36139e-11
8.50787e-09
8.93238e-11
8.44095e-09
8.77499e-11
8.37706e-09
8.35942e-11
8.31554e-09
8.04135e-11
8.25606e-09
7.79758e-11
8.19932e-09
7.42072e-11
8.14496e-09
7.10092e-11
8.09256e-09
6.85901e-11
8.04259e-09
6.52648e-11
7.99453e-09
6.28729e-11
7.94875e-09
5.99427e-11
7.90504e-09
5.72054e-11
7.86386e-09
5.36813e-11
7.82439e-09
5.16008e-11
7.78627e-09
5.03152e-11
7.75138e-09
4.55988e-11
7.7185e-09
4.28852e-11
7.68662e-09
4.21602e-11
7.65781e-09
3.77128e-11
7.63131e-09
3.44866e-11
7.60589e-09
3.35444e-11
7.58285e-09
3.02423e-11
7.56205e-09
2.71125e-11
7.54252e-09
2.58339e-11
7.52555e-09
2.20958e-11
7.50984e-09
2.05835e-11
7.49581e-09
1.85489e-11
7.48326e-09
1.66717e-11
7.47319e-09
1.29871e-11
7.46328e-09
1.33978e-11
7.45601e-09
9.49228e-12
7.44941e-09
8.64961e-12
7.44501e-09
5.37336e-12
7.43944e-09
7.80648e-12
7.43781e-09
1.3967e-12
7.43419e-09
4.82235e-12
7.43321e-09
3.32608e-13
5.20236e-12
3.58373e-08
2.66702e-09
-3.57192e-08
3.62189e-08
3.38168e-09
3.65771e-08
3.82702e-09
3.66122e-08
4.26325e-09
3.64845e-08
4.24407e-09
3.61751e-08
4.26268e-09
3.58993e-08
3.61712e-09
3.53572e-08
3.50564e-09
3.46485e-08
3.27043e-09
3.39362e-08
2.80278e-09
3.31813e-08
2.57233e-09
3.23886e-08
2.38186e-09
3.15957e-08
2.10702e-09
3.08185e-08
1.88769e-09
3.00887e-08
1.71622e-09
2.93959e-08
1.58752e-09
2.87224e-08
1.48425e-09
2.80649e-08
1.39711e-09
2.74369e-08
1.30285e-09
2.68407e-08
1.21441e-09
2.62664e-08
1.15089e-09
2.57115e-08
1.09532e-09
2.51803e-08
1.03496e-09
2.46756e-08
9.74206e-10
2.41977e-08
9.1563e-10
2.37412e-08
8.68311e-10
2.33003e-08
8.3055e-10
2.28765e-08
7.90744e-10
2.24702e-08
7.53511e-10
2.20824e-08
7.17023e-10
2.17131e-08
6.80126e-10
2.13577e-08
6.52753e-10
2.10156e-08
6.26278e-10
2.06873e-08
5.97688e-10
2.03699e-08
5.76315e-10
2.00636e-08
5.55572e-10
1.97709e-08
5.28987e-10
1.94894e-08
5.07805e-10
1.92172e-08
4.90501e-10
1.89553e-08
4.70387e-10
1.87026e-08
4.52723e-10
1.84587e-08
4.36024e-10
1.82225e-08
4.21886e-10
1.79939e-08
4.08177e-10
1.77742e-08
3.91039e-10
1.75608e-08
3.79727e-10
1.73542e-08
3.67428e-10
1.71553e-08
3.52579e-10
1.69635e-08
3.39415e-10
1.67775e-08
3.28972e-10
1.65966e-08
3.20131e-10
1.64221e-08
3.08007e-10
1.62534e-08
2.9732e-10
1.60902e-08
2.8716e-10
1.59319e-08
2.78474e-10
1.57781e-08
2.70555e-10
1.56299e-08
2.60427e-10
1.54861e-08
2.52355e-10
1.53476e-08
2.4264e-10
1.52136e-08
2.34456e-10
1.50831e-08
2.28918e-10
1.49578e-08
2.18864e-10
1.48374e-08
2.09768e-10
1.472e-08
2.05157e-10
1.46074e-08
1.962e-10
1.44987e-08
1.89079e-10
1.43936e-08
1.83068e-10
1.42929e-08
1.74899e-10
1.41962e-08
1.67765e-10
1.41029e-08
1.61876e-10
1.40135e-08
1.54626e-10
1.39276e-08
1.48804e-10
1.38455e-08
1.42023e-10
1.37669e-08
1.35835e-10
1.36924e-08
1.28168e-10
1.36212e-08
1.22846e-10
1.35524e-08
1.19027e-10
1.34887e-08
1.09304e-10
1.34285e-08
1.03113e-10
1.33705e-08
1.00159e-10
1.33172e-08
9.09845e-11
1.32678e-08
8.39194e-11
1.32207e-08
8.0703e-11
1.31774e-08
7.35087e-11
1.31378e-08
6.66569e-11
1.31008e-08
6.28539e-11
1.30678e-08
5.51493e-11
1.30373e-08
5.10915e-11
1.30097e-08
4.61056e-11
1.29848e-08
4.15671e-11
1.29637e-08
3.41221e-11
1.29437e-08
3.33629e-11
1.29275e-08
2.57486e-11
1.29129e-08
2.32208e-11
1.29014e-08
1.68512e-11
1.28893e-08
1.99239e-11
1.28823e-08
8.42577e-12
1.28724e-08
1.47243e-11
1.28669e-08
5.80529e-12
1.31932e-11
3.72845e-08
2.64392e-09
-3.72614e-08
3.75602e-08
3.10596e-09
3.77545e-08
3.63277e-09
3.82231e-08
3.79459e-09
3.86035e-08
3.86373e-09
3.89526e-08
3.91351e-09
3.90717e-08
3.49804e-09
3.87943e-08
3.78305e-09
3.86394e-08
3.42539e-09
3.84897e-08
2.95246e-09
3.8279e-08
2.78297e-09
3.79793e-08
2.6816e-09
3.76024e-08
2.48389e-09
3.71756e-08
2.31453e-09
3.67685e-08
2.12334e-09
3.63676e-08
1.98839e-09
3.59585e-08
1.89331e-09
3.55265e-08
1.82911e-09
3.50856e-08
1.74383e-09
3.46519e-08
1.64802e-09
3.42199e-08
1.58298e-09
3.3778e-08
1.53713e-09
3.33259e-08
1.48711e-09
3.28735e-08
1.42656e-09
3.24383e-08
1.35092e-09
3.20223e-08
1.28426e-09
3.16117e-08
1.24115e-09
3.11998e-08
1.2027e-09
3.07873e-08
1.16594e-09
3.03815e-08
1.12289e-09
2.99891e-08
1.07248e-09
2.96076e-08
1.0343e-09
2.92361e-08
9.97703e-10
2.88738e-08
9.5998e-10
2.85152e-08
9.34965e-10
2.81613e-08
9.09485e-10
2.78181e-08
8.72182e-10
2.74846e-08
8.41291e-10
2.71599e-08
8.15163e-10
2.68452e-08
7.85136e-10
2.65377e-08
7.60192e-10
2.62377e-08
7.36079e-10
2.59442e-08
7.15329e-10
2.56574e-08
6.95018e-10
2.53795e-08
6.68908e-10
2.51075e-08
6.51719e-10
2.48423e-08
6.32669e-10
2.45851e-08
6.09739e-10
2.43356e-08
5.88908e-10
2.40925e-08
5.72093e-10
2.38543e-08
5.58312e-10
2.36234e-08
5.3891e-10
2.33991e-08
5.21674e-10
2.31811e-08
5.05123e-10
2.29684e-08
4.91174e-10
2.27606e-08
4.78358e-10
2.25594e-08
4.61663e-10
2.23634e-08
4.48367e-10
2.21738e-08
4.32172e-10
2.19899e-08
4.184e-10
2.18098e-08
4.09003e-10
2.16362e-08
3.92467e-10
2.14685e-08
3.775e-10
2.13044e-08
3.69211e-10
2.11463e-08
3.54298e-10
2.09931e-08
3.42333e-10
2.08443e-08
3.31799e-10
2.07012e-08
3.1799e-10
2.05631e-08
3.05924e-10
2.04294e-08
2.95505e-10
2.03008e-08
2.83257e-10
2.01767e-08
2.72932e-10
2.00576e-08
2.61105e-10
1.99429e-08
2.50551e-10
1.98337e-08
2.37399e-10
1.9729e-08
2.27547e-10
1.96274e-08
2.20616e-10
1.95324e-08
2.04292e-10
1.94421e-08
1.93437e-10
1.93548e-08
1.87415e-10
1.92737e-08
1.72081e-10
1.91978e-08
1.59854e-10
1.91249e-08
1.53545e-10
1.90574e-08
1.41071e-10
1.89948e-08
1.29201e-10
1.89358e-08
1.21854e-10
1.8882e-08
1.08935e-10
1.8832e-08
1.01162e-10
1.87859e-08
9.21477e-11
1.87437e-08
8.38056e-11
1.87063e-08
7.14834e-11
1.86711e-08
6.85523e-11
1.86406e-08
5.63064e-11
1.8613e-08
5.08362e-11
1.8589e-08
4.07773e-11
1.85657e-08
4.32975e-11
1.85473e-08
2.68168e-11
1.85284e-08
3.36041e-11
1.85125e-08
2.16437e-11
2.9356e-11
3.88245e-08
2.51444e-09
-3.86951e-08
3.89945e-08
2.93596e-09
3.92796e-08
3.34771e-09
3.95908e-08
3.48341e-09
3.98333e-08
3.62121e-09
4.0028e-08
3.71877e-09
4.01789e-08
3.34715e-09
4.03836e-08
3.57839e-09
4.0477e-08
3.332e-09
4.05079e-08
2.92151e-09
4.05574e-08
2.73344e-09
4.05255e-08
2.71358e-09
4.04167e-08
2.59267e-09
4.02539e-08
2.47728e-09
4.0134e-08
2.2433e-09
3.99924e-08
2.12997e-09
3.98407e-08
2.04496e-09
3.96588e-08
2.011e-09
3.94518e-08
1.95092e-09
3.92453e-08
1.85453e-09
3.90419e-08
1.78635e-09
3.88219e-08
1.75716e-09
3.85691e-08
1.73982e-09
3.8283e-08
1.71274e-09
3.79936e-08
1.64026e-09
3.77247e-08
1.55317e-09
3.74646e-08
1.50127e-09
3.71973e-08
1.47002e-09
3.69138e-08
1.44939e-09
3.66158e-08
1.42089e-09
3.63135e-08
1.37474e-09
3.60112e-08
1.33667e-09
3.57147e-08
1.29417e-09
3.54256e-08
1.24909e-09
3.51345e-08
1.2261e-09
3.48371e-08
1.20681e-09
3.45382e-08
1.17108e-09
3.42388e-08
1.14076e-09
3.39427e-08
1.11119e-09
3.36542e-08
1.07363e-09
3.33693e-08
1.04511e-09
3.30875e-08
1.01789e-09
3.28072e-08
9.95612e-10
3.25279e-08
9.74307e-10
3.2253e-08
9.43885e-10
3.19796e-08
9.25101e-10
3.17096e-08
9.02613e-10
3.14451e-08
8.74319e-10
3.11861e-08
8.47858e-10
3.09314e-08
8.268e-10
3.06784e-08
8.11295e-10
3.04305e-08
7.86836e-10
3.01878e-08
7.64364e-10
2.9951e-08
7.41957e-10
2.9718e-08
7.24184e-10
2.94875e-08
7.0882e-10
2.9262e-08
6.87138e-10
2.90403e-08
6.70046e-10
2.88248e-08
6.47673e-10
2.86148e-08
6.2848e-10
2.84075e-08
6.16217e-10
2.82066e-08
5.93438e-10
2.80111e-08
5.72938e-10
2.78186e-08
5.61737e-10
2.76317e-08
5.41213e-10
2.74491e-08
5.24904e-10
2.72708e-08
5.10088e-10
2.70985e-08
4.90352e-10
2.6931e-08
4.7337e-10
2.67681e-08
4.58464e-10
2.66101e-08
4.41249e-10
2.64568e-08
4.26238e-10
2.63089e-08
4.0901e-10
2.61652e-08
3.94178e-10
2.60276e-08
3.75046e-10
2.58951e-08
3.60021e-10
2.57654e-08
3.50311e-10
2.56433e-08
3.26466e-10
2.55262e-08
3.10461e-10
2.54125e-08
3.01195e-10
2.53056e-08
2.78947e-10
2.52045e-08
2.609e-10
2.51067e-08
2.51427e-10
2.50149e-08
2.3284e-10
2.49289e-08
2.15185e-10
2.4847e-08
2.03772e-10
2.4771e-08
1.8495e-10
2.46994e-08
1.72712e-10
2.46324e-08
1.59154e-10
2.45701e-08
1.4615e-10
2.45132e-08
1.28317e-10
2.44594e-08
1.22403e-10
2.44106e-08
1.05104e-10
2.43661e-08
9.53657e-11
2.43253e-08
8.15052e-11
2.42865e-08
8.21315e-11
2.4252e-08
6.12722e-11
2.42199e-08
6.57024e-11
2.4189e-08
5.258e-11
5.77087e-11
4.04144e-08
2.38421e-09
-4.02842e-08
4.05713e-08
2.7791e-09
4.08385e-08
3.08054e-09
4.10801e-08
3.24179e-09
4.13058e-08
3.39547e-09
4.14678e-08
3.55685e-09
4.17367e-08
3.07826e-09
4.17408e-08
3.57423e-09
4.19769e-08
3.09595e-09
4.20617e-08
2.83664e-09
4.21086e-08
2.68661e-09
4.21143e-08
2.7078e-09
4.2075e-08
2.63198e-09
4.20384e-08
2.5139e-09
4.20432e-08
2.23848e-09
4.20206e-08
2.15264e-09
4.19842e-08
2.08136e-09
4.19348e-08
2.06038e-09
4.18721e-08
2.01358e-09
4.18104e-08
1.91624e-09
4.17583e-08
1.8385e-09
4.16964e-08
1.819e-09
4.16043e-08
1.83196e-09
4.14668e-08
1.85021e-09
4.1313e-08
1.79403e-09
4.11808e-08
1.68542e-09
4.10656e-08
1.6165e-09
4.09501e-08
1.58545e-09
4.08193e-08
1.58025e-09
4.06657e-08
1.5744e-09
4.04948e-08
1.54568e-09
4.0312e-08
1.51951e-09
4.0129e-08
1.47717e-09
3.99534e-08
1.42466e-09
3.97781e-08
1.40144e-09
3.95951e-08
1.3898e-09
3.9403e-08
1.36315e-09
3.91989e-08
1.34484e-09
3.89895e-08
1.32062e-09
3.87829e-08
1.28024e-09
3.85767e-08
1.25128e-09
3.83718e-08
1.22286e-09
3.81655e-08
1.20192e-09
3.79551e-08
1.18463e-09
3.77427e-08
1.15629e-09
3.75258e-08
1.14205e-09
3.73069e-08
1.12145e-09
3.70889e-08
1.09233e-09
3.68738e-08
1.06299e-09
3.66603e-08
1.04025e-09
3.64441e-08
1.02755e-09
3.62277e-08
1.00323e-09
3.60126e-08
9.79508e-10
3.58016e-08
9.52939e-10
3.55932e-08
9.32581e-10
3.53848e-08
9.17193e-10
3.51775e-08
8.94461e-10
3.49696e-08
8.77904e-10
3.47651e-08
8.52235e-10
3.45639e-08
8.29612e-10
3.43637e-08
8.16428e-10
3.41685e-08
7.88634e-10
3.39775e-08
7.63912e-10
3.37879e-08
7.51422e-10
3.36016e-08
7.27494e-10
3.34172e-08
7.09285e-10
3.32352e-08
6.92058e-10
3.30581e-08
6.6751e-10
3.2885e-08
6.4642e-10
3.27155e-08
6.27989e-10
3.25493e-08
6.07421e-10
3.23866e-08
5.88974e-10
3.22285e-08
5.67124e-10
3.20734e-08
5.49254e-10
3.19237e-08
5.24781e-10
3.17785e-08
5.05138e-10
3.16346e-08
4.94206e-10
3.14981e-08
4.62982e-10
3.13663e-08
4.42259e-10
3.12374e-08
4.30156e-10
3.11151e-08
4.01173e-10
3.09984e-08
3.77668e-10
3.08839e-08
3.65952e-10
3.07752e-08
3.41444e-10
3.06722e-08
3.18208e-10
3.05731e-08
3.02905e-10
3.04797e-08
2.78313e-10
3.03909e-08
2.61521e-10
3.03062e-08
2.43857e-10
3.02264e-08
2.25957e-10
3.0152e-08
2.02749e-10
3.00809e-08
1.93449e-10
3.00146e-08
1.71459e-10
2.99536e-08
1.56363e-10
2.98958e-08
1.39243e-10
2.98412e-08
1.36794e-10
2.97894e-08
1.13061e-10
2.97426e-08
1.12536e-10
2.9695e-08
1.00135e-10
1.00103e-10
4.20632e-08
2.28507e-09
-4.1964e-08
4.22218e-08
2.62047e-09
4.24054e-08
2.89691e-09
4.26141e-08
3.03313e-09
4.28093e-08
3.20025e-09
4.29624e-08
3.40368e-09
4.32304e-08
2.81027e-09
4.33145e-08
3.49014e-09
4.34863e-08
2.92414e-09
4.35223e-08
2.80069e-09
4.36058e-08
2.60314e-09
4.36237e-08
2.68991e-09
4.36059e-08
2.64969e-09
4.3641e-08
2.4788e-09
4.36474e-08
2.23211e-09
4.36411e-08
2.15893e-09
4.36218e-08
2.10067e-09
4.36039e-08
2.07831e-09
4.35895e-08
2.02799e-09
4.35881e-08
1.91765e-09
4.35986e-08
1.82797e-09
4.36021e-08
1.81545e-09
4.3581e-08
1.85311e-09
4.35183e-08
1.91289e-09
4.34417e-08
1.87067e-09
4.33891e-08
1.73795e-09
4.3355e-08
1.65061e-09
4.33284e-08
1.6121e-09
4.32901e-08
1.61849e-09
4.32343e-08
1.63024e-09
4.31617e-08
1.61827e-09
4.30749e-08
1.60633e-09
4.29851e-08
1.56698e-09
4.29015e-08
1.50823e-09
4.28216e-08
1.48134e-09
4.27386e-08
1.47287e-09
4.26476e-08
1.4541e-09
4.2541e-08
1.45148e-09
4.24255e-08
1.43612e-09
4.23093e-08
1.39642e-09
4.21907e-08
1.36984e-09
4.2073e-08
1.34056e-09
4.19547e-08
1.32025e-09
4.18323e-08
1.30704e-09
4.17046e-08
1.28395e-09
4.15694e-08
1.27729e-09
4.14284e-08
1.26247e-09
4.12838e-08
1.23687e-09
4.11405e-08
1.20635e-09
4.09976e-08
1.18312e-09
4.08499e-08
1.1752e-09
4.06975e-08
1.1557e-09
4.05412e-08
1.13575e-09
4.03864e-08
1.10776e-09
4.02328e-08
1.08619e-09
4.00794e-08
1.07063e-09
3.9925e-08
1.04887e-09
3.9766e-08
1.03683e-09
3.96065e-08
1.01174e-09
3.94461e-08
9.90029e-10
3.92833e-08
9.79199e-10
3.91238e-08
9.48203e-10
3.8967e-08
9.20694e-10
3.88113e-08
9.07146e-10
3.8657e-08
8.81755e-10
3.85011e-08
8.65227e-10
3.83443e-08
8.48846e-10
3.81894e-08
8.2234e-10
3.80371e-08
7.98714e-10
3.78877e-08
7.77475e-10
3.77396e-08
7.55511e-10
3.75926e-08
7.35914e-10
3.74483e-08
7.1149e-10
3.73047e-08
6.92862e-10
3.71652e-08
6.64217e-10
3.7029e-08
6.41375e-10
3.68913e-08
6.31897e-10
3.67593e-08
5.94985e-10
3.66302e-08
5.71354e-10
3.65033e-08
5.57021e-10
3.63826e-08
5.2185e-10
3.62664e-08
4.93958e-10
3.61507e-08
4.81627e-10
3.60397e-08
4.5247e-10
3.59327e-08
4.25133e-10
3.58286e-08
4.07034e-10
3.57293e-08
3.77607e-10
3.56341e-08
3.56736e-10
3.55416e-08
3.36389e-10
3.54532e-08
3.14309e-10
3.53692e-08
2.86732e-10
3.52884e-08
2.74257e-10
3.52112e-08
2.48696e-10
3.51398e-08
2.27779e-10
3.50707e-08
2.08352e-10
3.50053e-08
2.02186e-10
3.49405e-08
1.77782e-10
3.48824e-08
1.70685e-10
3.48221e-08
1.60389e-10
1.53991e-10
4.37438e-08
2.21736e-09
-4.36761e-08
4.38697e-08
2.49458e-09
4.40032e-08
2.76344e-09
4.42177e-08
2.81862e-09
4.43882e-08
3.02979e-09
4.4606e-08
3.18589e-09
4.46923e-08
2.72396e-09
4.48782e-08
3.30418e-09
4.48276e-08
2.97477e-09
4.5064e-08
2.56425e-09
4.50824e-08
2.58481e-09
4.51399e-08
2.63232e-09
4.51939e-08
2.59573e-09
4.52651e-08
2.40764e-09
4.52676e-08
2.22962e-09
4.5246e-08
2.18046e-09
4.52319e-08
2.1148e-09
4.52177e-08
2.09248e-09
4.52074e-08
2.03828e-09
4.52188e-08
1.9063e-09
4.52449e-08
1.80183e-09
4.52635e-08
1.79692e-09
4.5247e-08
1.86959e-09
4.5211e-08
1.94888e-09
4.51787e-08
1.90299e-09
4.51603e-08
1.75636e-09
4.51535e-08
1.65734e-09
4.51555e-08
1.6101e-09
4.51483e-08
1.62574e-09
4.51297e-08
1.64878e-09
4.51026e-08
1.64546e-09
4.50676e-08
1.64128e-09
4.50323e-08
1.60229e-09
4.50025e-08
1.538e-09
4.49759e-08
1.50793e-09
4.49473e-08
1.50148e-09
4.4913e-08
1.48839e-09
4.48652e-08
1.49928e-09
4.48138e-08
1.48757e-09
4.47628e-08
1.44735e-09
4.47083e-08
1.42437e-09
4.46543e-08
1.3946e-09
4.46005e-08
1.37405e-09
4.4545e-08
1.36245e-09
4.44848e-08
1.34422e-09
4.4419e-08
1.34305e-09
4.43473e-08
1.33422e-09
4.42692e-08
1.3149e-09
4.4193e-08
1.28258e-09
4.41173e-08
1.25879e-09
4.40376e-08
1.2549e-09
4.39518e-08
1.24157e-09
4.38583e-08
1.22926e-09
4.3764e-08
1.20202e-09
4.36695e-08
1.18066e-09
4.35762e-08
1.16399e-09
4.3483e-08
1.14205e-09
4.33849e-08
1.13494e-09
4.32849e-08
1.11167e-09
4.31808e-08
1.09415e-09
4.30702e-08
1.08979e-09
4.29601e-08
1.05836e-09
4.28508e-08
1.02994e-09
4.27434e-08
1.01455e-09
4.26382e-08
9.8698e-10
4.25297e-08
9.73711e-10
4.24173e-08
9.61242e-10
4.23033e-08
9.36391e-10
4.21893e-08
9.12674e-10
4.20776e-08
8.89225e-10
4.19664e-08
8.6664e-10
4.1855e-08
8.47384e-10
4.17438e-08
8.22643e-10
4.16305e-08
8.0617e-10
4.15202e-08
7.74549e-10
4.14117e-08
7.49826e-10
4.12995e-08
7.44129e-10
4.11905e-08
7.03961e-10
4.1081e-08
6.80829e-10
4.09724e-08
6.65672e-10
4.08692e-08
6.25024e-10
4.07697e-08
5.93485e-10
4.06695e-08
5.81776e-10
4.05725e-08
5.4951e-10
4.04773e-08
5.20354e-10
4.03828e-08
5.01492e-10
4.02916e-08
4.68845e-10
4.02037e-08
4.44592e-10
4.01167e-08
4.23417e-10
4.00322e-08
3.98765e-10
3.99505e-08
3.68507e-10
3.9871e-08
3.53701e-10
3.97937e-08
3.26024e-10
3.97217e-08
2.9975e-10
3.96511e-08
2.78933e-10
3.9584e-08
2.69278e-10
3.95154e-08
2.46406e-10
3.94535e-08
2.32567e-10
3.93894e-08
2.24501e-10
2.12488e-10
4.54568e-08
2.16663e-09
-4.54061e-08
4.55627e-08
2.38875e-09
4.56899e-08
2.63624e-09
4.58824e-08
2.62614e-09
4.60793e-08
2.83286e-09
4.62664e-08
2.99873e-09
4.63866e-08
2.60377e-09
4.66444e-08
3.04642e-09
4.66127e-08
3.00647e-09
4.66848e-08
2.4921e-09
4.67231e-08
2.54658e-09
4.67984e-08
2.55694e-09
4.6825e-08
2.56918e-09
4.69151e-08
2.31749e-09
4.69113e-08
2.23346e-09
4.6893e-08
2.19876e-09
4.68828e-08
2.12497e-09
4.68632e-08
2.11207e-09
4.68682e-08
2.03336e-09
4.68988e-08
1.87569e-09
4.69233e-08
1.77727e-09
4.69246e-08
1.7956e-09
4.68993e-08
1.89493e-09
4.68809e-08
1.9673e-09
4.68729e-08
1.91102e-09
4.68628e-08
1.76644e-09
4.68659e-08
1.65427e-09
4.68697e-08
1.60624e-09
4.68594e-08
1.6361e-09
4.6841e-08
1.66716e-09
4.68189e-08
1.66757e-09
4.68143e-08
1.64581e-09
4.68058e-08
1.61083e-09
4.68025e-08
1.54132e-09
4.67977e-08
1.51274e-09
4.67875e-08
1.51172e-09
4.67727e-08
1.50312e-09
4.67477e-08
1.52436e-09
4.67277e-08
1.50757e-09
4.67093e-08
1.46573e-09
4.6687e-08
1.44663e-09
4.66641e-08
1.41753e-09
4.66443e-08
1.39388e-09
4.66252e-08
1.38148e-09
4.66019e-08
1.3676e-09
4.65775e-08
1.36744e-09
4.65488e-08
1.36285e-09
4.6513e-08
1.35071e-09
4.64806e-08
1.31497e-09
4.64502e-08
1.28926e-09
4.6417e-08
1.28811e-09
4.63785e-08
1.28004e-09
4.63322e-08
1.27558e-09
4.62829e-08
1.25129e-09
4.62336e-08
1.22993e-09
4.61852e-08
1.21239e-09
4.61376e-08
1.18973e-09
4.60888e-08
1.18373e-09
4.60396e-08
1.16088e-09
4.59868e-08
1.14694e-09
4.59261e-08
1.15049e-09
4.58614e-08
1.12299e-09
4.57958e-08
1.09558e-09
4.57325e-08
1.07783e-09
4.56726e-08
1.04685e-09
4.56119e-08
1.03444e-09
4.55464e-08
1.02675e-09
4.5476e-08
1.00679e-09
4.54039e-08
9.84813e-10
4.53328e-08
9.6034e-10
4.52623e-08
9.37127e-10
4.5192e-08
9.1767e-10
4.51208e-08
8.9381e-10
4.5045e-08
8.81983e-10
4.49714e-08
8.48168e-10
4.48989e-08
8.22275e-10
4.48218e-08
8.21274e-10
4.47459e-08
7.79886e-10
4.46664e-08
7.60263e-10
4.45859e-08
7.46215e-10
4.45086e-08
7.02329e-10
4.44347e-08
6.67393e-10
4.43603e-08
6.56181e-10
4.42881e-08
6.21653e-10
4.4216e-08
5.92507e-10
4.41423e-08
5.75152e-10
4.40699e-08
5.41221e-10
4.40003e-08
5.14218e-10
4.393e-08
4.93723e-10
4.38603e-08
4.68517e-10
4.37912e-08
4.37541e-10
4.37232e-08
4.21766e-10
4.36562e-08
3.93015e-10
4.35933e-08
3.6257e-10
4.35316e-08
3.40696e-10
4.3472e-08
3.28832e-10
4.34092e-08
3.09255e-10
4.33518e-08
2.89909e-10
4.32937e-08
2.82677e-10
2.67215e-10
4.72426e-08
2.1143e-09
-4.71903e-08
4.73326e-08
2.2988e-09
4.74548e-08
2.514e-09
4.76138e-08
2.46713e-09
4.78176e-08
2.62908e-09
4.80019e-08
2.81442e-09
4.80914e-08
2.51428e-09
4.83349e-08
2.80291e-09
4.82655e-08
3.07592e-09
4.83635e-08
2.3941e-09
4.84288e-08
2.48128e-09
4.84887e-08
2.49701e-09
4.8563e-08
2.49482e-09
4.86276e-08
2.25293e-09
4.86137e-08
2.24734e-09
4.85875e-08
2.22496e-09
4.85783e-08
2.13416e-09
4.85727e-08
2.11769e-09
4.8597e-08
2.00911e-09
4.86396e-08
1.83309e-09
4.86506e-08
1.76622e-09
4.86354e-08
1.81079e-09
4.86126e-08
1.9177e-09
4.85997e-08
1.98027e-09
4.85936e-08
1.9171e-09
4.86028e-08
1.75728e-09
4.86145e-08
1.64255e-09
4.86045e-08
1.61626e-09
4.85873e-08
1.65329e-09
4.85689e-08
1.68557e-09
4.85483e-08
1.68816e-09
4.85485e-08
1.64554e-09
4.85538e-08
1.60552e-09
4.85539e-08
1.5413e-09
4.85538e-08
1.51277e-09
4.85505e-08
1.51504e-09
4.85425e-08
1.51107e-09
4.85298e-08
1.53708e-09
4.85249e-08
1.51248e-09
4.85095e-08
1.4811e-09
4.8499e-08
1.45714e-09
4.84819e-08
1.43466e-09
4.84758e-08
1.4e-09
4.84704e-08
1.38682e-09
4.84642e-08
1.37378e-09
4.84603e-08
1.37143e-09
4.8449e-08
1.37411e-09
4.84335e-08
1.36624e-09
4.8422e-08
1.32642e-09
4.84125e-08
1.29879e-09
4.8403e-08
1.29763e-09
4.83874e-08
1.29559e-09
4.83682e-08
1.29481e-09
4.83449e-08
1.27459e-09
4.83222e-08
1.25267e-09
4.8301e-08
1.23357e-09
4.82761e-08
1.21461e-09
4.82547e-08
1.20511e-09
4.82361e-08
1.17948e-09
4.82166e-08
1.16643e-09
4.81926e-08
1.17454e-09
4.81616e-08
1.15397e-09
4.81255e-08
1.13162e-09
4.80929e-08
1.11048e-09
4.80629e-08
1.07682e-09
4.80356e-08
1.06174e-09
4.80069e-08
1.05551e-09
4.79707e-08
1.04294e-09
4.7932e-08
1.02349e-09
4.78935e-08
9.9891e-10
4.78544e-08
9.76164e-10
4.78178e-08
9.54289e-10
4.77809e-08
9.30738e-10
4.77378e-08
9.25109e-10
4.76965e-08
8.89453e-10
4.76561e-08
8.62654e-10
4.76127e-08
8.64638e-10
4.75687e-08
8.23915e-10
4.75191e-08
8.09853e-10
4.74688e-08
7.96564e-10
4.74176e-08
7.53533e-10
4.73685e-08
7.16412e-10
4.73204e-08
7.04316e-10
4.72746e-08
6.6742e-10
4.72281e-08
6.39018e-10
4.71788e-08
6.24495e-10
4.71291e-08
5.90918e-10
4.70816e-08
5.61656e-10
4.7033e-08
5.42408e-10
4.69831e-08
5.18379e-10
4.69321e-08
4.88514e-10
4.68804e-08
4.73534e-10
4.68293e-08
4.4405e-10
4.67813e-08
4.10611e-10
4.6735e-08
3.86978e-10
4.66891e-08
3.74713e-10
4.66387e-08
3.59694e-10
4.65913e-08
3.37249e-10
4.65453e-08
3.28696e-10
3.12046e-10
4.91078e-08
2.06728e-09
-4.90607e-08
4.91759e-08
2.23064e-09
4.92885e-08
2.4014e-09
4.9415e-08
2.3407e-09
4.96132e-08
2.43079e-09
4.97546e-08
2.67311e-09
4.98862e-08
2.38265e-09
5.00331e-08
2.65602e-09
5.00625e-08
3.04647e-09
5.01053e-08
2.35132e-09
5.01974e-08
2.3892e-09
5.02433e-08
2.45108e-09
5.03572e-08
2.38098e-09
5.03922e-08
2.21787e-09
5.03742e-08
2.26535e-09
5.03395e-08
2.25964e-09
5.03378e-08
2.13585e-09
5.03592e-08
2.09632e-09
5.04047e-08
1.96361e-09
5.04356e-08
1.80223e-09
5.04273e-08
1.77452e-09
5.04022e-08
1.8359e-09
5.03804e-08
1.93945e-09
5.03771e-08
1.98358e-09
5.03809e-08
1.9133e-09
5.04048e-08
1.73333e-09
5.04099e-08
1.63752e-09
5.03946e-08
1.63159e-09
5.03712e-08
1.67662e-09
5.03604e-08
1.69636e-09
5.03456e-08
1.70298e-09
5.03292e-08
1.66195e-09
5.03426e-08
1.59208e-09
5.0342e-08
1.54197e-09
5.03426e-08
1.51215e-09
5.03475e-08
1.51009e-09
5.03466e-08
1.51204e-09
5.03386e-08
1.54499e-09
5.03413e-08
1.50987e-09
5.03192e-08
1.50314e-09
5.03077e-08
1.46871e-09
5.02937e-08
1.44858e-09
5.02843e-08
1.40939e-09
5.02854e-08
1.38581e-09
5.02825e-08
1.37662e-09
5.02848e-08
1.36912e-09
5.02816e-08
1.37732e-09
5.02758e-08
1.37202e-09
5.0273e-08
1.32928e-09
5.02677e-08
1.30411e-09
5.02648e-08
1.30046e-09
5.02577e-08
1.30269e-09
5.02521e-08
1.30045e-09
5.02426e-08
1.28405e-09
5.02327e-08
1.26264e-09
5.02239e-08
1.24231e-09
5.02079e-08
1.23065e-09
5.02001e-08
1.21294e-09
5.01915e-08
1.18804e-09
5.01872e-08
1.17078e-09
5.01813e-08
1.18038e-09
5.01706e-08
1.16467e-09
5.01522e-08
1.15006e-09
5.01368e-08
1.12588e-09
5.01232e-08
1.09043e-09
5.01116e-08
1.07333e-09
5.01032e-08
1.06384e-09
5.00886e-08
1.05761e-09
5.00707e-08
1.04131e-09
5.00532e-08
1.01649e-09
5.00329e-08
9.96419e-10
5.00162e-08
9.70981e-10
5.00015e-08
9.45445e-10
4.99807e-08
9.45925e-10
4.99619e-08
9.08222e-10
4.99425e-08
8.82107e-10
4.99226e-08
8.84531e-10
4.99033e-08
8.43156e-10
4.98762e-08
8.36979e-10
4.98504e-08
8.22346e-10
4.98207e-08
7.83241e-10
4.97906e-08
7.46489e-10
4.97621e-08
7.32834e-10
4.97368e-08
6.92714e-10
4.97104e-08
6.65433e-10
4.96813e-08
6.53617e-10
4.96515e-08
6.20673e-10
4.96236e-08
5.89603e-10
4.95947e-08
5.71245e-10
4.95639e-08
5.49259e-10
4.95304e-08
5.22006e-10
4.94944e-08
5.09532e-10
4.94589e-08
4.79558e-10
4.94257e-08
4.43816e-10
4.9396e-08
4.16647e-10
4.93652e-08
4.05537e-10
4.93293e-08
3.95547e-10
4.92935e-08
3.7302e-10
4.92606e-08
3.61647e-10
3.45152e-10
5.10224e-08
2.02664e-09
-5.09817e-08
5.10969e-08
2.15608e-09
5.12011e-08
2.29718e-09
5.12865e-08
2.25535e-09
5.14878e-08
2.22944e-09
5.15652e-08
2.59569e-09
5.17192e-08
2.22865e-09
5.18071e-08
2.56812e-09
5.19553e-08
2.8983e-09
5.19449e-08
2.36178e-09
5.2017e-08
2.31705e-09
5.2104e-08
2.36409e-09
5.2182e-08
2.30294e-09
5.21949e-08
2.205e-09
5.2174e-08
2.28626e-09
5.21757e-08
2.25798e-09
5.21992e-08
2.11234e-09
5.22287e-08
2.06682e-09
5.22677e-08
1.92457e-09
5.22745e-08
1.7955e-09
5.2267e-08
1.78194e-09
5.2234e-08
1.86894e-09
5.22135e-08
1.95995e-09
5.22185e-08
1.97853e-09
5.22367e-08
1.89518e-09
5.2257e-08
1.71302e-09
5.22607e-08
1.63374e-09
5.22534e-08
1.63895e-09
5.22378e-08
1.69218e-09
5.22187e-08
1.71547e-09
5.2207e-08
1.71473e-09
5.21857e-08
1.68321e-09
5.21901e-08
1.5877e-09
5.21927e-08
1.53937e-09
5.21964e-08
1.50845e-09
5.22075e-08
1.49903e-09
5.2209e-08
1.51049e-09
5.22089e-08
1.54507e-09
5.22017e-08
1.51707e-09
5.21836e-08
1.52124e-09
5.21685e-08
1.48382e-09
5.21615e-08
1.45566e-09
5.21502e-08
1.42063e-09
5.21465e-08
1.38955e-09
5.21471e-08
1.37599e-09
5.21484e-08
1.36779e-09
5.21483e-08
1.37742e-09
5.21496e-08
1.37072e-09
5.21442e-08
1.33466e-09
5.21371e-08
1.3113e-09
5.21338e-08
1.30374e-09
5.21294e-08
1.30703e-09
5.21269e-08
1.30294e-09
5.21249e-08
1.28606e-09
5.21201e-08
1.2675e-09
5.21175e-08
1.24487e-09
5.21043e-08
1.24382e-09
5.21004e-08
1.21691e-09
5.2094e-08
1.19443e-09
5.2094e-08
1.17079e-09
5.20923e-08
1.18203e-09
5.20903e-08
1.16671e-09
5.20853e-08
1.15506e-09
5.20792e-08
1.13198e-09
5.20712e-08
1.09843e-09
5.2069e-08
1.07552e-09
5.20657e-08
1.06717e-09
5.20602e-08
1.06304e-09
5.20546e-08
1.04693e-09
5.20471e-08
1.02405e-09
5.20348e-08
1.00869e-09
5.20279e-08
9.77852e-10
5.20217e-08
9.5161e-10
5.20141e-08
9.53616e-10
5.20083e-08
9.14e-10
5.20018e-08
8.88625e-10
5.19927e-08
8.93572e-10
5.19863e-08
8.49592e-10
5.19753e-08
8.47915e-10
5.19653e-08
8.32428e-10
5.19491e-08
7.99384e-10
5.19324e-08
7.63192e-10
5.19146e-08
7.50697e-10
5.19017e-08
7.0558e-10
5.18876e-08
6.79492e-10
5.18707e-08
6.70504e-10
5.18542e-08
6.37183e-10
5.18393e-08
6.04569e-10
5.18245e-08
5.86009e-10
5.18083e-08
5.65484e-10
5.17881e-08
5.42173e-10
5.17643e-08
5.33339e-10
5.17403e-08
5.03531e-10
5.1718e-08
4.66163e-10
5.17016e-08
4.3306e-10
5.16831e-08
4.2401e-10
5.16602e-08
4.18467e-10
5.16348e-08
3.98359e-10
5.1612e-08
3.84498e-10
3.68408e-10
5.29832e-08
1.98645e-09
-5.2943e-08
5.30752e-08
2.06409e-09
5.31728e-08
2.1996e-09
5.3264e-08
2.16415e-09
5.34134e-08
2.07997e-09
5.35014e-08
2.50768e-09
5.35914e-08
2.13867e-09
5.3678e-08
2.48152e-09
5.37407e-08
2.83557e-09
5.38249e-08
2.27763e-09
5.39311e-08
2.21081e-09
5.39825e-08
2.31272e-09
5.40515e-08
2.23397e-09
5.40861e-08
2.17036e-09
5.40673e-08
2.30506e-09
5.4089e-08
2.23625e-09
5.41277e-08
2.07363e-09
5.41614e-08
2.03316e-09
5.41826e-08
1.90339e-09
5.41723e-08
1.80575e-09
5.41639e-08
1.79035e-09
5.41377e-08
1.89522e-09
5.41261e-08
1.9715e-09