/*--------------------------------*- C++ -*----------------------------------*\
| =========                 |                                                 |
| \\      /  F ield         | OpenFOAM: The Open Source CFD Toolbox           |
|  \\    /   O peration     | Version:  2.3.0                                 |
|   \\  /    A nd           | Web:      www.OpenFOAM.org                      |
|    \\/     M anipulation  |                                                 |
\*---------------------------------------------------------------------------*/
FoamFile
{
    version     2.0;
    format      ascii;
    class       volScalarField;
    location    "0.25";
    object      p;
}
// * * * * * * * * * * * * * * * * * * * * * * * * * * * * * * * * * * * * * //

dimensions      [0 2 -2 0 0 0 0];

internalField   nonuniform List<scalar> 
2250
(
0.00165652
0.00160907
0.00140765
0.00117388
0.000974763
0.000820658
0.0006983
0.000589023
0.0004789
0.000361931
0.000237282
0.000106452
-2.71494e-05
-0.000158851
-0.000283908
-0.000397449
-0.000494209
-0.000569982
-0.000622971
-0.000653689
-0.000664125
-0.000657232
-0.000636737
-0.000606832
-0.000571619
-0.000534606
-0.000498436
-0.000464889
-0.000434991
-0.000409099
-0.000387056
-0.000368473
-0.000352903
-0.000339858
-0.000328866
-0.000319536
-0.000311513
-0.000304455
-0.000298071
-0.000292129
-0.00028644
-0.000280863
-0.000275291
-0.000269644
-0.000263858
-0.000257894
-0.000251722
-0.000245318
-0.000238653
-0.000231703
-0.000224441
-0.000216854
-0.000208927
-0.000200659
-0.000192051
-0.000183125
-0.000173902
-0.000164432
-0.000154763
-0.00014497
-0.000135119
-0.000125308
-0.000115614
-0.000106127
-9.69118e-05
-8.80596e-05
-7.96337e-05
-7.17306e-05
-6.44096e-05
-5.77564e-05
-5.17889e-05
-4.6534e-05
-4.19295e-05
-3.79368e-05
-3.44383e-05
-3.13787e-05
-2.86376e-05
-2.6191e-05
-2.39372e-05
-2.18798e-05
-1.98999e-05
-1.79679e-05
-1.58713e-05
-1.35029e-05
-1.0597e-05
-7.18363e-06
-3.33659e-06
3.20412e-07
3.06962e-06
3.71772e-06
1.6946e-06
-2.739e-06
-7.90569e-06
-1.26555e-05
-1.60682e-05
-1.80491e-05
-1.79032e-05
-1.5566e-05
-1.04886e-05
-3.5584e-06
0.00134665
0.00132112
0.00122085
0.00107431
0.000920146
0.00078048
0.000660215
0.000553149
0.000448998
0.000340232
0.000224244
0.00010196
-2.34221e-05
-0.000147507
-0.000265561
-0.000372658
-0.000464102
-0.000536396
-0.000588086
-0.000619474
-0.000631997
-0.000628007
-0.000610767
-0.00058419
-0.000552239
-0.000518323
-0.000484959
-0.000453791
-0.000425863
-0.000401566
-0.00038077
-0.000363141
-0.0003483
-0.000335804
-0.000325218
-0.000316195
-0.000308422
-0.000301585
-0.000295405
-0.000289665
-0.000284181
-0.000278806
-0.000273433
-0.000267977
-0.000262373
-0.000256583
-0.000250574
-0.000244326
-0.000237808
-0.000230996
-0.000223862
-0.000216394
-0.000208575
-0.000200406
-0.000191888
-0.000183043
-0.000173889
-0.000164479
-0.000154859
-0.000145104
-0.000135281
-0.00012549
-0.000115807
-0.000106326
-9.71093e-05
-8.82509e-05
-7.98107e-05
-7.18891e-05
-6.45441e-05
-5.78682e-05
-5.18792e-05
-4.66105e-05
-4.19962e-05
-3.80017e-05
-3.45024e-05
-3.14466e-05
-2.87063e-05
-2.62636e-05
-2.40103e-05
-2.19589e-05
-1.99852e-05
-1.80681e-05
-1.5983e-05
-1.36203e-05
-1.06852e-05
-7.20067e-06
-3.22932e-06
5.77547e-07
3.47968e-06
4.20165e-06
2.08061e-06
-2.63342e-06
-8.10952e-06
-1.30642e-05
-1.65925e-05
-1.86327e-05
-1.85144e-05
-1.61245e-05
-1.09213e-05
-3.85901e-06
0.00114718
0.00113338
0.00108108
0.000989701
0.000873596
0.000750583
0.000633456
0.000526242
0.000424624
0.000321837
0.000214556
0.00010335
-9.55334e-06
-0.000121155
-0.000227477
-0.00032407
-0.000407232
-0.00047466
-0.000525264
-0.000558798
-0.000575891
-0.000578186
-0.000568244
-0.000549188
-0.000524264
-0.000496434
-0.000468122
-0.000441085
-0.000416337
-0.000394341
-0.000375121
-0.000358498
-0.00034424
-0.000332053
-0.000321636
-0.000312726
-0.000305002
-0.000298121
-0.000291842
-0.000286003
-0.000280454
-0.000275071
-0.00026974
-0.00026437
-0.000258885
-0.000253242
-0.000247401
-0.000241337
-0.000235014
-0.000228403
-0.000221473
-0.00021421
-0.000206592
-0.000198619
-0.00019029
-0.000181631
-0.000172652
-0.000163408
-0.000153942
-0.000144332
-0.000134642
-0.000124972
-0.000115396
-0.000106011
-9.68749e-05
-8.8089e-05
-7.97081e-05
-7.18376e-05
-6.45309e-05
-5.78856e-05
-5.19144e-05
-4.66576e-05
-4.20453e-05
-3.80517e-05
-3.45486e-05
-3.14931e-05
-2.87513e-05
-2.63145e-05
-2.40674e-05
-2.20342e-05
-2.00857e-05
-1.82132e-05
-1.61759e-05
-1.38477e-05
-1.08689e-05
-7.21358e-06
-2.91244e-06
1.32894e-06
4.68366e-06
5.66579e-06
3.33217e-06
-2.05288e-06
-8.25079e-06
-1.37096e-05
-1.75574e-05
-1.98127e-05
-1.98165e-05
-1.73656e-05
-1.18286e-05
-4.3039e-06
0.00100229
0.000991845
0.000958247
0.000896761
0.00080966
0.000705926
0.00059804
0.000494748
0.000396911
0.000300716
0.000203189
0.000104049
4.54743e-06
-9.33358e-05
-0.000186748
-0.000272272
-0.000346966
-0.000409009
-0.000457395
-0.000491587
-0.000511793
-0.000519268
-0.000516036
-0.000504389
-0.000486701
-0.000465398
-0.000442715
-0.000420322
-0.000399218
-0.00037995
-0.000362752
-0.000347619
-0.000334404
-0.000322923
-0.000312984
-0.000304369
-0.000296803
-0.000290027
-0.000283845
-0.000278107
-0.000272678
-0.00026745
-0.000262311
-0.000257161
-0.000251916
-0.00024653
-0.000240956
-0.000235168
-0.000229126
-0.000222802
-0.000216167
-0.000209206
-0.000201892
-0.000194226
-0.00018621
-0.000177874
-0.000169223
-0.000160304
-0.000151158
-0.000141864
-0.000132482
-0.000123105
-0.0001138
-0.00010467
-9.57712e-05
-8.72068e-05
-7.90262e-05
-7.13346e-05
-6.41795e-05
-5.76576e-05
-5.17781e-05
-4.6586e-05
-4.20141e-05
-3.8046e-05
-3.45582e-05
-3.15164e-05
-2.87891e-05
-2.63732e-05
-2.41544e-05
-2.21649e-05
-2.02836e-05
-1.85126e-05
-1.66082e-05
-1.44018e-05
-1.14236e-05
-7.49148e-06
-2.54465e-06
2.65366e-06
7.05796e-06
8.78003e-06
6.23278e-06
-3.87576e-07
-8.1025e-06
-1.47201e-05
-1.9347e-05
-2.2123e-05
-2.24529e-05
-1.99657e-05
-1.37605e-05
-5.10329e-06
0.0008797
0.000868815
0.000842858
0.000797176
0.000730053
0.000645315
0.000551605
0.000457601
0.000367096
0.000279089
0.000191479
0.000103882
1.72574e-05
-6.74187e-05
-0.000148818
-0.000224368
-0.000291165
-0.000347541
-0.000392929
-0.000426886
-0.000449237
-0.000460729
-0.000462858
-0.000457315
-0.000445861
-0.000430457
-0.000413078
-0.000395228
-0.000377764
-0.000361275
-0.000346246
-0.000332817
-0.00032083
-0.000310184
-0.000300836
-0.000292621
-0.000285303
-0.000278716
-0.000272707
-0.000267118
-0.000261819
-0.000256724
-0.000251731
-0.000246742
-0.000241679
-0.000236499
-0.000231153
-0.000225613
-0.000219841
-0.000213815
-0.000207503
-0.000200893
-0.000193955
-0.000186687
-0.000179093
-0.000171206
-0.00016303
-0.000154597
-0.000145941
-0.000137145
-0.000128265
-0.00011938
-0.000110546
-0.000101865
-9.33952e-05
-8.52341e-05
-7.74265e-05
-7.0073e-05
-6.32178e-05
-5.695e-05
-5.12767e-05
-4.62428e-05
-4.17872e-05
-3.79007e-05
-3.44721e-05
-3.14765e-05
-2.87956e-05
-2.64317e-05
-2.42823e-05
-2.23842e-05
-2.06409e-05
-1.90721e-05
-1.74622e-05
-1.55952e-05
-1.28395e-05
-8.66962e-06
-2.7125e-06
4.31765e-06
1.09876e-05
1.4644e-05
1.23644e-05
3.88969e-06
-6.73012e-06
-1.59556e-05
-2.24904e-05
-2.65613e-05
-2.77567e-05
-2.55078e-05
-1.83152e-05
-7.03795e-06
0.000769489
0.000756842
0.000734173
0.000697885
0.000645353
0.000577515
0.000499563
0.000418285
0.000337921
0.000258973
0.000180896
0.00010404
2.89297e-05
-4.44247e-05
-0.000115375
-0.00018168
-0.000240787
-0.000291577
-0.000333903
-0.000367165
-0.00039067
-0.000404826
-0.00041094
-0.000410316
-0.00040415
-0.000393914
-0.000381311
-0.000367689
-0.000353756
-0.000340075
-0.000327279
-0.00031561
-0.000304925
-0.000295224
-0.000286588
-0.000278874
-0.000271876
-0.000265518
-0.000259692
-0.000254241
-0.00024905
-0.00024406
-0.000239179
-0.000234318
-0.000229408
-0.000224412
-0.000219281
-0.00021398
-0.000208479
-0.000202759
-0.000196785
-0.000190541
-0.000184006
-0.000177171
-0.000170039
-0.000162651
-0.000155009
-0.000147131
-0.000139042
-0.00013083
-0.00012255
-0.000114259
-0.000106003
-9.78819e-05
-8.99556e-05
-8.23115e-05
-7.49897e-05
-6.8083e-05
-6.16342e-05
-5.57201e-05
-5.03466e-05
-4.55543e-05
-4.12928e-05
-3.75578e-05
-3.42562e-05
-3.13699e-05
-2.87998e-05
-2.65498e-05
-2.45373e-05
-2.28041e-05
-2.12971e-05
-2.00773e-05
-1.90195e-05
-1.79226e-05
-1.60007e-05
-1.21569e-05
-5.19402e-06
4.71813e-06
1.57274e-05
2.38345e-05
2.3529e-05
1.29207e-05
-2.69258e-06
-1.71418e-05
-2.77046e-05
-3.44682e-05
-3.74502e-05
-3.61805e-05
-2.83313e-05
-1.1773e-05
0.000668352
0.000654056
0.000633433
0.000603919
0.000562639
0.000508901
0.000445631
0.000377708
0.000308677
0.000239712
0.000171227
0.000103955
3.84542e-05
-2.5192e-05
-8.65569e-05
-0.000144204
-0.000196356
-0.000242111
-0.000281259
-0.000313091
-0.000336694
-0.000352333
-0.00036126
-0.000364432
-0.000362471
-0.000356487
-0.000348036
-0.000338247
-0.000327587
-0.000316591
-0.000306023
-0.000296174
-0.00028689
-0.000278257
-0.000270455
-0.000263353
-0.000256775
-0.000250728
-0.000245146
-0.000239878
-0.000234835
-0.000229983
-0.000225244
-0.000220541
-0.00021581
-0.000211014
-0.00020611
-0.00020106
-0.000195835
-0.000190425
-0.000184793
-0.000178916
-0.000172784
-0.000166392
-0.000159737
-0.000152857
-0.000145762
-0.00013846
-0.000130967
-0.000123371
-0.000115726
-0.000108076
-0.000100454
-9.29545e-05
-8.56397e-05
-7.8583e-05
-7.18211e-05
-6.54362e-05
-5.947e-05
-5.39864e-05
-4.89915e-05
-4.45216e-05
-4.05393e-05
-3.7043e-05
-3.39591e-05
-3.12726e-05
-2.89053e-05
-2.68603e-05
-2.50781e-05
-2.36053e-05
-2.24413e-05
-2.17142e-05
-2.14668e-05
-2.16674e-05
-2.15663e-05
-1.95064e-05
-1.29227e-05
-5.07472e-07
1.60036e-05
3.11302e-05
3.53349e-05
2.26627e-05
-3.71188e-08
-2.16758e-05
-3.70314e-05
-4.62658e-05
-5.05618e-05
-5.04018e-05
-4.33317e-05
-1.94212e-05
0.000575249
0.000560183
0.000541508
0.000517384
0.000484822
0.000442333
0.000391598
0.000336157
0.000278676
0.000220014
0.000160677
0.000102017
4.53283e-05
-9.34795e-06
-6.23596e-05
-0.000112791
-0.000158822
-0.000199519
-0.000234981
-0.000264754
-0.00028773
-0.000303874
-0.000314438
-0.000320285
-0.000321528
-0.000318858
-0.000313765
-0.000307246
-0.000299486
-0.000290956
-0.000282527
-0.000274485
-0.000266631
-0.000259137
-0.00025228
-0.000245929
-0.000239915
-0.00023431
-0.000229096
-0.000224133
-0.000219357
-0.00021475
-0.000210247
-0.000205784
-0.000201304
-0.000196769
-0.000192143
-0.000187389
-0.000182484
-0.000177423
-0.00017217
-0.000166693
-0.000160992
-0.000155076
-0.000148934
-0.000142591
-0.000136063
-0.000129359
-0.00012249
-0.000115534
-0.000108544
-0.000101555
-9.4594e-05
-8.77457e-05
-8.10719e-05
-7.46344e-05
-6.84672e-05
-6.26416e-05
-5.71986e-05
-5.21918e-05
-4.76298e-05
-4.35438e-05
-3.99093e-05
-3.67251e-05
-3.39366e-05
-3.15301e-05
-2.94456e-05
-2.76812e-05
-2.61911e-05
-2.50134e-05
-2.41743e-05
-2.38446e-05
-2.42369e-05
-2.56258e-05
-2.77182e-05
-2.90709e-05
-2.65583e-05
-1.74485e-05
-2.22601e-06
1.49784e-05
2.23111e-05
1.06774e-05
-1.11399e-05
-2.91289e-05
-3.93156e-05
-4.40289e-05
-4.60138e-05
-4.66542e-05
-4.44696e-05
-2.11719e-05
0.00048953
0.000474583
0.000457835
0.000438091
0.000412529
0.000379188
0.000338894
0.000294307
0.000247338
0.000198413
0.000148112
9.80488e-05
4.95519e-05
2.53762e-06
-4.33385e-05
-8.70904e-05
-0.000127052
-0.000162664
-0.000194321
-0.000221665
-0.000243496
-0.000259569
-0.000271021
-0.000278663
-0.000282268
-0.000282101
-0.000279576
-0.000275683
-0.00027036
-0.000263906
-0.000257283
-0.000250825
-0.000244274
-0.000237831
-0.000231864
-0.000226261
-0.00022085
-0.000215737
-0.000210932
-0.000206313
-0.000201848
-0.000197538
-0.000193318
-0.000189129
-0.000184926
-0.000180672
-0.00017634
-0.000171905
-0.000167342
-0.000162651
-0.000157797
-0.000152744
-0.000147498
-0.000142081
-0.000136479
-0.000130703
-0.000124771
-0.0001187
-0.000112498
-0.000106227
-9.99372e-05
-9.36606e-05
-8.74231e-05
-8.12955e-05
-7.53371e-05
-6.96002e-05
-6.41184e-05
-5.89528e-05
-5.41419e-05
-4.97299e-05
-4.57279e-05
-4.21594e-05
-3.90102e-05
-3.62764e-05
-3.39176e-05
-3.19154e-05
-3.02182e-05
-2.88066e-05
-2.76273e-05
-2.66729e-05
-2.59233e-05
-2.54642e-05
-2.54912e-05
-2.64927e-05
-2.92716e-05
-3.46736e-05
-4.24309e-05
-5.0711e-05
-5.68742e-05
-5.91161e-05
-5.65922e-05
-4.87813e-05
-3.53252e-05
-1.89972e-05
-3.98359e-06
7.1203e-06
1.31208e-05
1.312e-05
6.3388e-06
1.13249e-06
0.000410235
0.000396193
0.000381378
0.000365198
0.000345261
0.000319398
0.000287726
0.000252242
0.000214548
0.000174865
0.000133409
9.14657e-05
5.04929e-05
1.08555e-05
-2.77822e-05
-6.49355e-05
-9.92074e-05
-0.000129939
-0.000157603
-0.000182188
-0.000202634
-0.000218376
-0.000230202
-0.000238952
-0.000244399
-0.000246399
-0.00024605
-0.000244395
-0.000241297
-0.000236804
-0.000231865
-0.000226932
-0.000221713
-0.000216363
-0.00021132
-0.000206513
-0.000201771
-0.000197229
-0.000192935
-0.000188762
-0.000184689
-0.00018075
-0.000176897
-0.00017307
-0.000169228
-0.00016534
-0.000161383
-0.000157338
-0.000153184
-0.000148921
-0.00014452
-0.000139946
-0.000135204
-0.000130313
-0.000125264
-0.000120063
-0.000114734
-0.000109287
-0.000103728
-9.81084e-05
-9.24839e-05
-8.68789e-05
-8.13162e-05
-7.58549e-05
-7.05526e-05
-6.54566e-05
-6.05993e-05
-5.6034e-05
-5.17979e-05
-4.79298e-05
-4.44451e-05
-4.13632e-05
-3.86763e-05
-3.63775e-05
-3.44341e-05
-3.28182e-05
-3.14771e-05
-3.03664e-05
-2.94102e-05
-2.85357e-05
-2.76251e-05
-2.6577e-05
-2.53824e-05
-2.45827e-05
-2.61177e-05
-3.4278e-05
-5.4863e-05
-9.0595e-05
-0.000136011
-0.000177588
-0.000189285
-0.000153539
-8.65185e-05
-1.75085e-05
3.84573e-05
7.81349e-05
0.000101888
0.000109539
9.75908e-05
4.42446e-05
0.000353084
0.000340244
0.000326564
0.000312316
0.000295657
0.000274407
0.000248216
0.00021868
0.000187336
0.00015432
0.000119525
8.39823e-05
4.9174e-05
1.55858e-05
-1.72182e-05
-4.90493e-05
-7.86046e-05
-0.00010509
-0.000129038
-0.000150735
-0.000169304
-0.000183988
-0.000195268
-0.000204037
-0.000210228
-0.000213383
-0.000214198
-0.000213807
-0.000212182
-0.000209088
-0.000205333
-0.00020152
-0.000197355
-0.000192872
-0.000188562
-0.000184432
-0.000180269
-0.0001762
-0.000172338
-0.000168579
-0.000164881
-0.00016128
-0.000157752
-0.000154254
-0.000150753
-0.000147222
-0.000143642
-0.000139992
-0.00013625
-0.00013242
-0.000128483
-0.000124413
-0.000120208
-0.000115879
-0.000111411
-0.000106821
-0.000102142
-9.73724e-05
-9.25016e-05
-8.75768e-05
-8.26602e-05
-7.77746e-05
-7.29282e-05
-6.81658e-05
-6.3543e-05
-5.91032e-05
-5.48712e-05
-5.08888e-05
-4.7189e-05
-4.38078e-05
-4.07622e-05
-3.80688e-05
-3.57277e-05
-3.37339e-05
-3.20647e-05
-3.06969e-05
-2.95871e-05
-2.86929e-05
-2.79482e-05
-2.72807e-05
-2.65799e-05
-2.57354e-05
-2.47285e-05
-2.40718e-05
-2.57561e-05
-3.45249e-05
-5.71727e-05
-9.74192e-05
-0.000149154
-0.000196773
-0.000212085
-0.000173646
-9.61104e-05
-1.31112e-05
5.48639e-05
0.00010237
0.00012992
0.000137814
0.000122294
5.4816e-05
0.000310617
0.000298811
0.000285868
0.00027279
0.00025829
0.000240201
0.000217798
0.000192384
0.000165551
0.000137494
0.000107851
7.73218e-05
4.72929e-05
1.84005e-05
-9.72281e-06
-3.71644e-05
-6.28498e-05
-8.58509e-05
-0.000106608
-0.000125675
-0.000142432
-0.000156018
-0.00016661
-0.000175079
-0.000181569
-0.000185443
-0.000186991
-0.000187417
-0.000186875
-0.000184869
-0.000182013
-0.000179087
-0.000175824
-0.00017209
-0.000168392
-0.000164852
-0.000161239
-0.000157633
-0.000154178
-0.000150805
-0.00014747
-0.000144204
-0.000140995
-0.000137817
-0.000134637
-0.000131432
-0.000128195
-0.000124902
-0.000121522
-0.000118064
-0.000114527
-0.000110883
-0.000107125
-0.000103256
-9.92601e-05
-9.5155e-05
-9.09869e-05
-8.67549e-05
-8.24273e-05
-7.80346e-05
-7.36506e-05
-6.93068e-05
-6.49966e-05
-6.0745e-05
-5.6605e-05
-5.26227e-05
-4.88177e-05
-4.52178e-05
-4.18519e-05
-3.87541e-05
-3.5942e-05
-3.34286e-05
-3.122e-05
-2.93165e-05
-2.77086e-05
-2.63865e-05
-2.53287e-05
-2.45214e-05
-2.39429e-05
-2.35857e-05
-2.34531e-05
-2.36087e-05
-2.4257e-05
-2.59524e-05
-2.99126e-05
-3.79877e-05
-5.18577e-05
-7.08761e-05
-9.03353e-05
-0.00010223
-9.3989e-05
-6.0039e-05
-1.26228e-05
3.12854e-05
6.37371e-05
8.37709e-05
9.21262e-05
8.82125e-05
6.91539e-05
2.75816e-05
0.000267233
0.0002567
0.000244626
0.000232704
0.000220361
0.000205461
0.00018681
0.00016535
0.000142831
0.000119671
9.51913e-05
6.96046e-05
4.42462e-05
2.00266e-05
-3.34365e-06
-2.63551e-05
-4.82778e-05
-6.79465e-05
-8.5577e-05
-0.000102036
-0.000117017
-0.000129526
-0.000139394
-0.000147402
-0.000153968
-0.000158433
-0.000160621
-0.00016168
-0.000162074
-0.000161132
-0.000159141
-0.000157029
-0.000154668
-0.000151745
-0.000148704
-0.000145782
-0.000142765
-0.000139698
-0.000136731
-0.000133814
-0.000130905
-0.000128034
-0.0001252
-0.000122397
-0.000119598
-0.000116767
-0.000113912
-0.000111012
-0.00010802
-0.000104953
-0.000101839
-9.86419e-05
-9.53357e-05
-9.19374e-05
-8.84299e-05
-8.48091e-05
-8.11338e-05
-7.74311e-05
-7.36487e-05
-6.97769e-05
-6.58979e-05
-6.20727e-05
-5.82836e-05
-5.45211e-05
-5.08333e-05
-4.72774e-05
-4.38713e-05
-4.06239e-05
-3.75581e-05
-3.47071e-05
-3.20908e-05
-2.97174e-05
-2.75957e-05
-2.57323e-05
-2.41306e-05
-2.27923e-05
-2.17184e-05
-2.09219e-05
-2.04271e-05
-2.02857e-05
-2.06009e-05
-2.15686e-05
-2.35e-05
-2.6726e-05
-3.10779e-05
-3.50303e-05
-3.52892e-05
-2.84319e-05
-1.37678e-05
7.80745e-06
2.91701e-05
3.91177e-05
3.66811e-05
2.91925e-05
2.14235e-05
1.43303e-05
7.0615e-06
-1.62542e-06
-1.10941e-05
-8.09538e-06
0.000222645
0.00021378
0.000202905
0.000192224
0.000182011
0.000170305
0.000155422
0.000137825
0.000119333
0.000100746
8.12783e-05
6.06082e-05
3.98539e-05
2.01251e-05
1.30748e-06
-1.7318e-05
-3.54831e-05
-5.19841e-05
-6.66481e-05
-8.04198e-05
-9.33609e-05
-0.000104492
-0.000113337
-0.000120487
-0.000126585
-0.000131184
-0.000133716
-0.000135021
-0.000135907
-0.000135779
-0.000134492
-0.000132963
-0.000131319
-0.000129112
-0.000126656
-0.00012431
-0.000121865
-0.000119287
-0.000116776
-0.000114322
-0.000111857
-0.000109398
-0.000106946
-0.000104516
-0.000102105
-9.96639e-05
-9.72028e-05
-9.47261e-05
-9.21622e-05
-8.95074e-05
-8.68345e-05
-8.41164e-05
-8.12939e-05
-7.83994e-05
-7.54401e-05
-7.23685e-05
-6.9224e-05
-6.60906e-05
-6.29264e-05
-5.96555e-05
-5.6342e-05
-5.30949e-05
-4.99088e-05
-4.6728e-05
-4.358e-05
-4.05401e-05
-3.76331e-05
-3.48467e-05
-3.21916e-05
-2.97016e-05
-2.73987e-05
-2.52876e-05
-2.33743e-05
-2.16673e-05
-2.01771e-05
-1.89102e-05
-1.78744e-05
-1.70899e-05
-1.65928e-05
-1.64388e-05
-1.6723e-05
-1.75735e-05
-1.90891e-05
-2.10848e-05
-2.25039e-05
-2.07159e-05
-1.1944e-05
6.19546e-06
3.18268e-05
5.91016e-05
7.56516e-05
7.01057e-05
4.5696e-05
1.56545e-05
-1.05066e-05
-2.98343e-05
-4.26029e-05
-4.88241e-05
-4.5473e-05
-2.09181e-05
0.000176631
0.000169849
0.0001607
0.000151482
0.000143285
0.000134606
0.000123431
0.000109669
9.50066e-05
8.06467e-05
6.59863e-05
5.01867e-05
3.39177e-05
1.84416e-05
3.95201e-06
-1.03461e-05
-2.46948e-05
-3.80664e-05
-4.97959e-05
-6.06445e-05
-7.11177e-05
-8.04418e-05
-8.78959e-05
-9.38126e-05
-9.89348e-05
-0.000103159
-0.00010574
-0.000107015
-0.000108007
-0.000108446
-0.000107752
-0.000106651
-0.00010563
-0.000104156
-0.000102251
-0.000100445
-9.86443e-05
-9.66509e-05
-9.46505e-05
-9.27072e-05
-9.07424e-05
-8.87759e-05
-8.68069e-05
-8.48361e-05
-8.28931e-05
-8.09229e-05
-7.89106e-05
-7.69106e-05
-7.48631e-05
-7.2707e-05
-7.05358e-05
-6.83666e-05
-6.6096e-05
-6.37464e-05
-6.13823e-05
-5.89319e-05
-5.63721e-05
-5.38329e-05
-5.13301e-05
-4.87275e-05
-4.60296e-05
-4.33865e-05
-4.08367e-05
-3.82882e-05
-3.57275e-05
-3.32429e-05
-3.08778e-05
-2.86059e-05
-2.64192e-05
-2.43518e-05
-2.24288e-05
-2.06514e-05
-1.90206e-05
-1.75437e-05
-1.62306e-05
-1.50863e-05
-1.41156e-05
-1.3331e-05
-1.27498e-05
-1.23924e-05
-1.22735e-05
-1.23614e-05
-1.24797e-05
-1.21091e-05
-1.01373e-05
-4.84194e-06
5.39035e-06
2.06195e-05
3.82869e-05
5.32004e-05
5.7854e-05
4.79216e-05
2.70405e-05
3.03621e-06
-1.80784e-05
-3.36578e-05
-4.27579e-05
-4.41724e-05
-3.55558e-05
-1.45063e-05
0.00012901
0.000124465
0.000117558
0.000110221
0.000104013
9.80762e-05
9.043e-05
8.05289e-05
6.97112e-05
5.93532e-05
4.91683e-05
3.80839e-05
2.62922e-05
1.49927e-05
4.62508e-06
-5.4895e-06
-1.58905e-05
-2.58986e-05
-3.45926e-05
-4.23892e-05
-5.00536e-05
-5.71399e-05
-6.28592e-05
-6.72941e-05
-7.11033e-05
-7.44904e-05
-7.68062e-05
-7.78883e-05
-7.86964e-05
-7.94115e-05
-7.92326e-05
-7.84562e-05
-7.78581e-05
-7.70724e-05
-7.57888e-05
-7.44932e-05
-7.32757e-05
-7.18912e-05
-7.04656e-05
-6.909e-05
-6.76684e-05
-6.62307e-05
-6.47887e-05
-6.33184e-05
-6.1886e-05
-6.04559e-05
-5.89545e-05
-5.74569e-05
-5.59575e-05
-5.43492e-05
-5.27049e-05
-5.11061e-05
-4.94394e-05
-4.76795e-05
-4.59321e-05
-4.41427e-05
-4.22224e-05
-4.02981e-05
-3.84616e-05
-3.65708e-05
-3.45545e-05
-3.25612e-05
-3.06781e-05
-2.88103e-05
-2.69018e-05
-2.50329e-05
-2.32653e-05
-2.15726e-05
-1.99302e-05
-1.83637e-05
-1.69023e-05
-1.55453e-05
-1.42869e-05
-1.3134e-05
-1.20938e-05
-1.11672e-05
-1.03526e-05
-9.65298e-06
-9.06639e-06
-8.57815e-06
-8.14088e-06
-7.63472e-06
-6.8007e-06
-5.18956e-06
-2.18454e-06
2.77686e-06
9.7211e-06
1.77167e-05
2.49075e-05
2.87161e-05
2.64493e-05
1.77519e-05
5.29704e-06
-7.25669e-06
-1.74684e-05
-2.42163e-05
-2.68018e-05
-2.44715e-05
-1.693e-05
-5.92439e-06
7.94315e-05
7.69471e-05
7.26409e-05
6.77664e-05
6.37441e-05
6.02879e-05
5.58985e-05
4.98972e-05
4.31354e-05
3.67489e-05
3.07154e-05
2.41524e-05
1.69298e-05
9.91505e-06
3.61354e-06
-2.42508e-06
-8.76884e-06
-1.50767e-05
-2.05206e-05
-2.52159e-05
-2.98854e-05
-3.4379e-05
-3.80305e-05
-4.07896e-05
-4.3135e-05
-4.53293e-05
-4.69664e-05
-4.77315e-05
-4.82357e-05
-4.8829e-05
-4.89143e-05
-4.84853e-05
-4.81684e-05
-4.78032e-05
-4.70692e-05
-4.63092e-05
-4.56351e-05
-4.4813e-05
-4.3931e-05
-4.31028e-05
-4.22454e-05
-4.13787e-05
-4.05109e-05
-3.95874e-05
-3.86799e-05
-3.78036e-05
-3.68694e-05
-3.59278e-05
-3.50161e-05
-3.40295e-05
-3.29866e-05
-3.1987e-05
-3.09602e-05
-2.98535e-05
-2.87655e-05
-2.76817e-05
-2.64956e-05
-2.528e-05
-2.41452e-05
-2.29998e-05
-2.17461e-05
-2.04839e-05
-1.9314e-05
-1.81727e-05
-1.69917e-05
-1.5821e-05
-1.47173e-05
-1.36645e-05
-1.26373e-05
-1.16481e-05
-1.07221e-05
-9.86226e-06
-9.05915e-06
-8.31649e-06
-7.63963e-06
-7.02698e-06
-6.47491e-06
-5.97981e-06
-5.53054e-06
-5.10586e-06
-4.65642e-06
-4.07849e-06
-3.19592e-06
-1.78552e-06
3.30007e-07
3.17426e-06
6.42508e-06
9.40494e-06
1.12344e-05
1.10247e-05
8.23072e-06
3.30521e-06
-2.33907e-06
-7.29168e-06
-1.07865e-05
-1.25062e-05
-1.22445e-05
-9.94373e-06
-6.05758e-06
-1.85042e-06
2.70214e-05
2.62651e-05
2.48063e-05
2.30679e-05
2.16436e-05
2.05051e-05
1.90809e-05
1.70622e-05
1.4735e-05
1.25449e-05
1.05391e-05
8.36487e-06
5.90497e-06
3.50264e-06
1.38033e-06
-6.4291e-07
-2.78719e-06
-4.95885e-06
-6.84679e-06
-8.41688e-06
-9.96713e-06
-1.15384e-05
-1.28318e-05
-1.37491e-05
-1.45281e-05
-1.53222e-05
-1.59256e-05
-1.61771e-05
-1.63501e-05
-1.66065e-05
-1.6666e-05
-1.65017e-05
-1.64109e-05
-1.63372e-05
-1.60928e-05
-1.58117e-05
-1.55868e-05
-1.53267e-05
-1.5041e-05
-1.47644e-05
-1.44615e-05
-1.4154e-05
-1.38609e-05
-1.3551e-05
-1.32443e-05
-1.29522e-05
-1.26311e-05
-1.22964e-05
-1.19797e-05
-1.16434e-05
-1.12852e-05
-1.09469e-05
-1.06053e-05
-1.02273e-05
-9.85041e-06
-9.48063e-06
-9.07321e-06
-8.65017e-06
-8.2632e-06
-7.88366e-06
-7.46329e-06
-7.03087e-06
-6.63083e-06
-6.24455e-06
-5.84166e-06
-5.43848e-06
-5.06047e-06
-4.70269e-06
-4.35354e-06
-4.01571e-06
-3.69766e-06
-3.40148e-06
-3.12276e-06
-2.8634e-06
-2.62617e-06
-2.40877e-06
-2.21085e-06
-2.03201e-06
-1.86358e-06
-1.69463e-06
-1.50599e-06
-1.26369e-06
-9.11826e-07
-3.68503e-07
3.14647e-07
1.1616e-06
2.02339e-06
2.68922e-06
2.93034e-06
2.56868e-06
1.5617e-06
9.72299e-08
-1.4167e-06
-2.63294e-06
-3.38455e-06
-3.61113e-06
-3.29817e-06
-2.51486e-06
-1.45471e-06
-4.16595e-07
0.000125567
0.000121459
0.000125935
0.000134695
0.000148434
0.000162682
0.000181514
0.000201918
0.000223704
0.000247013
0.000276329
0.000307878
0.000343438
0.000381503
0.000427881
0.000478104
0.000534957
0.000597339
0.000674045
0.000762359
0.000868162
0.000991495
0.00114387
0.00131929
0.0015102
0.000123782
0.000121248
0.000125666
0.000134411
0.000147539
0.000161798
0.000179917
0.000200109
0.000221727
0.000245337
0.000274015
0.000305751
0.000340344
0.000378647
0.000423639
0.000473958
0.000529
0.000591231
0.000664824
0.000750511
0.000847495
0.000957589
0.00107948
0.0012049
0.00130501
0.000121427
0.000120763
0.00012507
0.00013366
0.000145958
0.000160141
0.000177622
0.000197629
0.000218935
0.000242601
0.000270661
0.000302086
0.000335814
0.00037373
0.000417654
0.000466903
0.000519978
0.000579833
0.000649313
0.000728235
0.000813221
0.000903156
0.000994112
0.00107651
0.00113079
0.000118711
0.00011944
0.000123898
0.000132219
0.000143787
0.000157642
0.000174607
0.000194212
0.000215104
0.000238491
0.000266076
0.000296847
0.000329596
0.000366434
0.000409052
0.000456407
0.000506839
0.000562703
0.000626431
0.00069602
0.000767113
0.000837254
0.000903618
0.000959121
0.000993808
0.000115535
0.000117196
0.000121871
0.000129956
0.00014093
0.000154211
0.000170603
0.000189732
0.000210124
0.000232906
0.000259787
0.00028964
0.000321185
0.000356463
0.000397238
0.000442029
0.000488847
0.000539407
0.000595775
0.000655199
0.000712946
0.000766757
0.000815341
0.000854599
0.00087737
0.000111802
0.00011399
0.000118807
0.000126667
0.000137153
0.000149782
0.00016547
0.000183946
0.000203682
0.000225595
0.000251454
0.00028015
0.000310253
0.000343515
0.000381676
0.000423079
0.000465472
0.000510032
0.000558511
0.000608121
0.000654248
0.000695182
0.000730842
0.00075865
0.000772453
0.00010733
0.00010974
0.000114581
0.000122193
0.000132207
0.000144164
0.000158996
0.000176587
0.000195487
0.000216365
0.000240887
0.00026801
0.000296237
0.000327068
0.000362068
0.000399464
0.000436875
0.000475196
0.000515986
0.00055665
0.000592907
0.000623591
0.000649498
0.000668613
0.000675517
0.000101899
0.000104341
0.000109082
0.000116367
0.000125844
0.000137079
0.000150971
0.00016749
0.000185266
0.000204837
0.00022773
0.000252914
0.000278852
0.000306839
0.000338269
0.00037126
0.000403385
0.00043553
0.000469241
0.000502101
0.000530127
0.000552539
0.000570687
0.000583153
0.000585127
9.52985e-05
9.76601e-05
0.000102161
0.000109008
0.000117873
0.000128296
0.000141097
0.000156352
0.00017277
0.000190736
0.000211672
0.000234604
0.000257896
0.00028261
0.000310125
0.000338647
0.000365653
0.00039192
0.00041914
0.000445233
0.000466452
0.000482169
0.000494143
0.000501704
0.000500604
8.73149e-05
8.95259e-05
9.36673e-05
9.99431e-05
0.000108087
0.000117559
0.000129074
0.000142884
0.000157761
0.000173815
0.000192402
0.000212769
0.000233197
0.000254406
0.000277814
0.000301942
0.000324178
0.000344988
0.000366283
0.000386574
0.000402335
0.000412816
0.000419971
0.000423975
0.00042127
7.98306e-05
8.18784e-05
8.56641e-05
9.13851e-05
9.88361e-05
0.000107441
0.000117832
0.000130353
0.000143801
0.000158116
0.000174676
0.000192891
0.000210903
0.000229214
0.000249412
0.000270317
0.000289151
0.000306054
0.000323248
0.000339877
0.000352461
0.000359829
0.000363965
0.000365845
0.000362862
7.3423e-05
7.53227e-05
7.87949e-05
8.40429e-05
9.09145e-05
9.87795e-05
0.000108222
0.000119691
0.000131952
0.000144791
0.000159705
0.000176255
0.000192353
0.000208313
0.000226031
0.000244639
0.000261062
0.000275051
0.000289231
0.000303442
0.000314108
0.000319484
0.000321558
0.000322112
0.000319234
6.59537e-05
6.76778e-05
7.07757e-05
7.54742e-05
8.17051e-05
8.87102e-05
9.70235e-05
0.00010733
0.000118326
0.000129473
0.000142477
0.000157281
0.000171449
0.000184865
0.000199866
0.00021619
0.000230407
0.000241547
0.000252631
0.000264545
0.000273714
0.000277514
0.000277728
0.00027708
0.000274479
5.72747e-05
5.88002e-05
6.1471e-05
6.55082e-05
7.10088e-05
7.70683e-05
8.40552e-05
9.30108e-05
0.000102689
0.000112002
0.00012276
0.000135622
0.000147939
0.000158787
0.000170758
0.0001846
0.000196871
0.000205519
0.000213479
0.000222948
0.000230879
0.000233694
0.000232467
0.000230654
0.000228297
4.72404e-05
4.8536e-05
5.07302e-05
5.39812e-05
5.86148e-05
6.36666e-05
6.91698e-05
7.64869e-05
8.47102e-05
9.2171e-05
0.000100434
0.000110994
0.000121419
0.000129839
0.000138629
0.00014965
0.000160048
0.000166704
0.000171752
0.000178538
0.000185219
0.000187633
0.000185654
0.000182877
0.000180627
3.57181e-05
3.6727e-05
3.83915e-05
4.07756e-05
4.43441e-05
4.82506e-05
5.22066e-05
5.76204e-05
6.4073e-05
6.96589e-05
7.53935e-05
8.32499e-05
9.14441e-05
9.75812e-05
0.000103377
0.000111309
0.000119521
0.000124485
0.000127193
0.000131366
0.000136553
0.000138772
0.000136785
0.000133625
0.000131505
2.25968e-05
2.32491e-05
2.43196e-05
2.5785e-05
2.805e-05
3.05874e-05
3.30159e-05
3.63521e-05
4.05366e-05
4.40789e-05
4.7454e-05
5.23303e-05
5.76896e-05
6.14948e-05
6.4714e-05
6.94919e-05
7.49117e-05
7.81196e-05
7.92722e-05
8.13337e-05
8.46795e-05
8.64006e-05
8.4963e-05
8.23534e-05
8.07122e-05
7.81341e-06
8.0421e-06
8.42041e-06
8.91547e-06
9.69229e-06
1.05929e-05
1.14303e-05
1.2554e-05
1.40075e-05
1.52457e-05
1.63783e-05
1.80435e-05
1.99193e-05
2.12101e-05
2.22335e-05
2.3849e-05
2.57856e-05
2.69171e-05
2.71883e-05
2.77646e-05
2.89431e-05
2.9634e-05
2.91107e-05
2.80565e-05
2.73989e-05
)
;

boundaryField
{
    top
    {
        type            fixedValue;
        value           uniform 0;
    }
    inlet
    {
        type            zeroGradient;
    }
    outlet
    {
        type            fixedValue;
        value           uniform 0;
    }
    plate
    {
        type            zeroGradient;
    }
    symmBound
    {
        type            zeroGradient;
    }
    frontAndBack
    {
        type            empty;
    }
}


// ************************************************************************* //
