/*--------------------------------*- C++ -*----------------------------------*\
| =========                 |                                                 |
| \\      /  F ield         | OpenFOAM: The Open Source CFD Toolbox           |
|  \\    /   O peration     | Version:  2.3.0                                 |
|   \\  /    A nd           | Web:      www.OpenFOAM.org                      |
|    \\/     M anipulation  |                                                 |
\*---------------------------------------------------------------------------*/
FoamFile
{
    version     2.0;
    format      ascii;
    class       surfaceScalarField;
    location    "0.25";
    object      phi;
}
// * * * * * * * * * * * * * * * * * * * * * * * * * * * * * * * * * * * * * //

dimensions      [0 3 -1 0 0 0 0];

internalField   nonuniform List<scalar> 
4357
(
5.0576e-08
1.69742e-09
-5.22735e-08
4.84215e-08
2.15454e-09
4.60224e-08
2.39904e-09
4.35586e-08
2.46384e-09
4.11005e-08
2.45813e-09
3.86541e-08
2.44641e-09
3.62174e-08
2.43662e-09
3.3799e-08
2.41842e-09
3.1413e-08
2.38597e-09
2.90745e-08
2.33857e-09
2.67996e-08
2.27488e-09
2.46099e-08
2.18972e-09
2.25311e-08
2.07877e-09
2.05903e-08
1.94086e-09
1.88091e-08
1.78119e-09
1.72024e-08
1.60664e-09
1.57832e-08
1.41923e-09
1.45561e-08
1.22707e-09
1.35162e-08
1.03995e-09
1.26505e-08
8.65639e-10
1.19417e-08
7.08863e-10
1.13691e-08
5.72538e-10
1.09107e-08
4.58442e-10
1.05437e-08
3.67014e-10
1.02468e-08
2.96926e-10
1.00012e-08
2.45551e-10
9.7918e-09
2.09407e-10
9.60698e-09
1.84822e-10
9.43812e-09
1.68861e-10
9.27926e-09
1.5886e-10
9.12663e-09
1.52625e-10
8.9779e-09
1.48726e-10
8.83187e-09
1.46037e-10
8.68818e-09
1.43683e-10
8.54702e-09
1.41167e-10
8.40874e-09
1.38275e-10
8.27382e-09
1.34921e-10
8.14275e-09
1.31069e-10
8.01608e-09
1.2667e-10
7.89431e-09
1.2177e-10
7.77788e-09
1.16431e-10
7.66708e-09
1.10802e-10
7.5621e-09
1.04976e-10
7.46304e-09
9.90651e-11
7.36991e-09
9.31313e-11
7.28263e-09
8.72798e-11
7.2011e-09
8.15243e-11
7.12517e-09
7.59341e-11
7.05469e-09
7.04759e-11
6.98948e-09
6.5213e-11
6.92936e-09
6.01219e-11
6.87409e-09
5.52699e-11
6.82349e-09
5.06009e-11
6.7773e-09
4.61907e-11
6.7353e-09
4.19961e-11
6.69719e-09
3.81066e-11
6.66272e-09
3.44749e-11
6.6315e-09
3.12177e-11
6.60324e-09
2.82561e-11
6.57754e-09
2.56998e-11
6.55407e-09
2.34697e-11
6.53239e-09
2.16849e-11
6.51218e-09
2.02063e-11
6.49305e-09
1.91295e-11
6.47475e-09
1.83042e-11
6.45687e-09
1.788e-11
6.43918e-09
1.76862e-11
6.42128e-09
1.79022e-11
6.40297e-09
1.83082e-11
6.3839e-09
1.90739e-11
6.36402e-09
1.98803e-11
6.34314e-09
2.08812e-11
6.32144e-09
2.17003e-11
6.29887e-09
2.25656e-11
6.27576e-09
2.31077e-11
6.25209e-09
2.36789e-11
6.22818e-09
2.39082e-11
6.20391e-09
2.42624e-11
6.17961e-09
2.43027e-11
6.15503e-09
2.45864e-11
6.13046e-09
2.45637e-11
6.10557e-09
2.48924e-11
6.08066e-09
2.49099e-11
6.05525e-09
2.54071e-11
6.02971e-09
2.55379e-11
6.00357e-09
2.61482e-11
5.97752e-09
2.6051e-11
5.95135e-09
2.61692e-11
5.92618e-09
2.51667e-11
5.90167e-09
2.45125e-11
5.8786e-09
2.30721e-11
5.8556e-09
2.29956e-11
5.83317e-09
2.24275e-11
5.80995e-09
2.32224e-11
5.78731e-09
2.26362e-11
5.76378e-09
2.35368e-11
5.74133e-09
2.24451e-11
5.71748e-09
2.38514e-11
5.69604e-09
2.14361e-11
2.66267e-11
5.75804e-08
1.65815e-09
-5.75412e-08
5.76103e-08
2.12468e-09
5.74707e-08
2.53866e-09
5.71298e-08
2.80471e-09
5.66471e-08
2.9408e-09
5.60747e-08
3.01882e-09
5.54262e-08
3.08518e-09
5.4692e-08
3.15254e-09
5.38666e-08
3.21138e-09
5.29549e-08
3.25029e-09
5.19662e-08
3.26362e-09
5.09087e-08
3.24716e-09
4.97911e-08
3.19645e-09
4.86222e-08
3.10968e-09
4.74139e-08
2.98952e-09
4.61812e-08
2.83935e-09
4.49378e-08
2.66256e-09
4.36979e-08
2.46699e-09
4.24746e-08
2.26331e-09
4.12791e-08
2.06111e-09
4.01208e-08
1.86714e-09
3.90066e-08
1.68679e-09
3.79404e-08
1.5246e-09
3.69239e-08
1.38357e-09
3.59567e-08
1.26413e-09
3.50372e-08
1.16499e-09
3.41627e-08
1.08389e-09
3.33324e-08
1.01519e-09
3.25439e-08
9.57354e-10
3.1795e-08
9.07788e-10
3.10835e-08
8.64037e-10
3.04076e-08
8.24713e-10
2.9765e-08
7.88596e-10
2.91541e-08
7.5461e-10
2.85731e-08
7.22131e-10
2.80208e-08
6.90546e-10
2.74958e-08
6.59963e-10
2.69967e-08
6.30146e-10
2.65226e-08
6.00781e-10
2.60726e-08
5.71797e-10
2.56459e-08
5.43141e-10
2.52417e-08
5.14944e-10
2.48594e-08
4.87275e-10
2.44983e-08
4.60215e-10
2.41576e-08
4.33823e-10
2.38366e-08
4.08219e-10
2.35347e-08
3.83419e-10
2.32512e-08
3.59475e-10
2.29853e-08
3.36335e-10
2.27365e-08
3.14047e-10
2.2504e-08
2.92629e-10
2.22871e-08
2.72155e-10
2.20851e-08
2.52618e-10
2.18972e-08
2.34085e-10
2.17226e-08
2.16586e-10
2.15605e-08
2.00223e-10
2.14099e-08
1.85049e-10
2.127e-08
1.71189e-10
2.11396e-08
1.58637e-10
2.10178e-08
1.47492e-10
2.09035e-08
1.37773e-10
2.07956e-08
1.29549e-10
2.06931e-08
1.22715e-10
2.0595e-08
1.17259e-10
2.05002e-08
1.13071e-10
2.04079e-08
1.10203e-10
2.03171e-08
1.08519e-10
2.02269e-08
1.08083e-10
2.01365e-08
1.08676e-10
2.00453e-08
1.10263e-10
1.99528e-08
1.12432e-10
1.98586e-08
1.15039e-10
1.97627e-08
1.17598e-10
1.96652e-08
1.20085e-10
1.95662e-08
1.22132e-10
1.94659e-08
1.23964e-10
1.93645e-08
1.2533e-10
1.92621e-08
1.26651e-10
1.91587e-08
1.27634e-10
1.90545e-08
1.28794e-10
1.89494e-08
1.2969e-10
1.88434e-08
1.30925e-10
1.87364e-08
1.31925e-10
1.86283e-08
1.3347e-10
1.85191e-08
1.34733e-10
1.84088e-08
1.36492e-10
1.82975e-08
1.37312e-10
1.81857e-08
1.37958e-10
1.80741e-08
1.36784e-10
1.7963e-08
1.35562e-10
1.78528e-08
1.33278e-10
1.77427e-08
1.331e-10
1.76325e-08
1.32707e-10
1.75213e-08
1.34423e-10
1.74098e-08
1.3406e-10
1.72975e-08
1.35904e-10
1.71853e-08
1.3462e-10
1.7072e-08
1.37152e-10
1.69591e-08
1.34283e-10
1.39745e-10
6.25223e-08
1.77411e-09
-6.26383e-08
6.25403e-08
2.10673e-09
6.26322e-08
2.44677e-09
6.26804e-08
2.75643e-09
6.26662e-08
2.95504e-09
6.26113e-08
3.07368e-09
6.2536e-08
3.16056e-09
6.24433e-08
3.24525e-09
6.23263e-08
3.32837e-09
6.21766e-08
3.4e-09
6.19888e-08
3.45144e-09
6.17578e-08
3.4781e-09
6.14778e-08
3.47644e-09
6.11434e-08
3.44411e-09
6.07521e-08
3.38082e-09
6.03045e-08
3.28699e-09
5.98028e-08
3.16418e-09
5.92523e-08
3.01748e-09
5.866e-08
2.8557e-09
5.80328e-08
2.68827e-09
5.73776e-08
2.52235e-09
5.6701e-08
2.36338e-09
5.60098e-08
2.2158e-09
5.53106e-08
2.08281e-09
5.46088e-08
1.96586e-09
5.39086e-08
1.86525e-09
5.32125e-08
1.77998e-09
5.25198e-08
1.70789e-09
5.18305e-08
1.64668e-09
5.11452e-08
1.59304e-09
5.04651e-08
1.54416e-09
4.97912e-08
1.4986e-09
4.91245e-08
1.45525e-09
4.84661e-08
1.41308e-09
4.78165e-08
1.37166e-09
4.71765e-08
1.33059e-09
4.65471e-08
1.2894e-09
4.59293e-08
1.24792e-09
4.53238e-08
1.20624e-09
4.47313e-08
1.16429e-09
4.41524e-08
1.12205e-09
4.35878e-08
1.07957e-09
4.30381e-08
1.037e-09
4.2504e-08
9.94351e-10
4.1986e-08
9.51787e-10
4.14848e-08
9.09373e-10
4.10009e-08
8.67314e-10
4.05348e-08
8.25629e-10
4.00867e-08
7.8448e-10
3.96568e-08
7.43857e-10
3.92454e-08
7.04041e-10
3.88525e-08
6.65043e-10
3.8478e-08
6.2718e-10
3.81216e-08
5.90444e-10
3.7783e-08
5.55188e-10
3.74618e-08
5.21411e-10
3.71573e-08
4.89554e-10
3.68689e-08
4.59613e-10
3.65956e-08
4.31937e-10
3.63367e-08
4.06441e-10
3.60909e-08
3.83565e-10
3.58573e-08
3.63123e-10
3.56346e-08
3.45418e-10
3.54218e-08
3.30081e-10
3.52174e-08
3.17454e-10
3.50204e-08
3.07145e-10
3.48295e-08
2.9946e-10
3.46437e-08
2.93909e-10
3.44616e-08
2.9075e-10
3.42826e-08
2.89305e-10
3.41053e-08
2.89666e-10
3.39294e-08
2.90927e-10
3.37539e-08
2.93136e-10
3.35786e-08
2.95386e-10
3.34028e-08
2.9792e-10
3.32268e-08
3.00014e-10
3.30499e-08
3.02215e-10
3.28725e-08
3.03979e-10
3.26942e-08
3.06006e-10
3.25152e-08
3.07786e-10
3.23349e-08
3.10007e-10
3.21537e-08
3.12128e-10
3.19708e-08
3.14828e-10
3.17866e-08
3.1764e-10
3.16002e-08
3.21096e-10
3.14122e-08
3.24471e-10
3.1222e-08
3.27544e-10
3.10308e-08
3.29196e-10
3.08384e-08
3.29126e-10
3.06465e-08
3.27505e-10
3.04542e-08
3.25559e-10
3.02619e-08
3.25434e-10
3.00678e-08
3.26749e-10
2.98728e-08
3.29436e-10
2.9676e-08
3.30902e-10
2.94786e-08
3.33326e-10
2.92793e-08
3.33896e-10
2.90799e-08
3.3654e-10
2.88788e-08
3.35364e-10
3.39517e-10
6.78007e-08
1.89793e-09
-6.79245e-08
6.77498e-08
2.1576e-09
6.77708e-08
2.42584e-09
6.78274e-08
2.69978e-09
6.78759e-08
2.90659e-09
6.7898e-08
3.05155e-09
6.79061e-08
3.15246e-09
6.79184e-08
3.23297e-09
6.7937e-08
3.30973e-09
6.79559e-08
3.38111e-09
6.79688e-08
3.43852e-09
6.79702e-08
3.47674e-09
6.79536e-08
3.49297e-09
6.79125e-08
3.48525e-09
6.78411e-08
3.4522e-09
6.7735e-08
3.39309e-09
6.75907e-08
3.30847e-09
6.74067e-08
3.20153e-09
6.71836e-08
3.07876e-09
6.69241e-08
2.94781e-09
6.66314e-08
2.81501e-09
6.63095e-08
2.68526e-09
6.59625e-08
2.56285e-09
6.55947e-08
2.45058e-09
6.52111e-08
2.34948e-09
6.48167e-08
2.25969e-09
6.44152e-08
2.18141e-09
6.4008e-08
2.11511e-09
6.35946e-08
2.06003e-09
6.31744e-08
2.01326e-09
6.27471e-08
1.97148e-09
6.23134e-08
1.93233e-09
6.18743e-08
1.89429e-09
6.14309e-08
1.85657e-09
6.0983e-08
1.81956e-09
6.05306e-08
1.78293e-09
6.00744e-08
1.74562e-09
5.96155e-08
1.70685e-09
5.91548e-08
1.66692e-09
5.86932e-08
1.62591e-09
5.82311e-08
1.58412e-09
5.77692e-08
1.54148e-09
5.7308e-08
1.49818e-09
5.68484e-08
1.45397e-09
5.6391e-08
1.40918e-09
5.59367e-08
1.36365e-09
5.54862e-08
1.31776e-09
5.50406e-08
1.27127e-09
5.46005e-08
1.22461e-09
5.41668e-08
1.17758e-09
5.374e-08
1.13076e-09
5.33212e-08
1.08393e-09
5.29106e-08
1.03777e-09
5.25089e-08
9.92078e-10
5.21165e-08
9.47581e-10
5.1734e-08
9.03993e-10
5.13613e-08
8.62207e-10
5.09989e-08
8.2197e-10
5.06467e-08
7.84138e-10
5.03049e-08
7.4831e-10
4.99729e-08
7.15511e-10
4.96509e-08
6.85172e-10
4.93381e-08
6.58245e-10
4.90343e-08
6.33865e-10
4.87386e-08
6.13076e-10
4.84509e-08
5.94846e-10
4.81702e-08
5.80188e-10
4.78962e-08
5.67879e-10
4.7628e-08
5.58973e-10
4.73654e-08
5.51961e-10
4.71072e-08
5.47814e-10
4.68535e-08
5.44678e-10
4.6603e-08
5.43587e-10
4.63558e-08
5.42575e-10
4.61108e-08
5.42972e-10
4.5868e-08
5.4281e-10
4.56264e-08
5.43843e-10
4.53862e-08
5.44114e-10
4.51465e-08
5.45715e-10
4.49077e-08
5.46613e-10
4.46686e-08
5.49079e-10
4.44298e-08
5.50918e-10
4.419e-08
5.546e-10
4.39498e-08
5.579e-10
4.37075e-08
5.6336e-10
4.34638e-08
5.68203e-10
4.32173e-08
5.74026e-10
4.29696e-08
5.76948e-10
4.272e-08
5.78648e-10
4.24708e-08
5.7678e-10
4.22204e-08
5.75893e-10
4.19694e-08
5.7643e-10
4.17151e-08
5.81072e-10
4.14589e-08
5.85651e-10
4.11993e-08
5.90521e-10
4.09384e-08
5.94188e-10
4.06741e-08
5.98165e-10
4.0409e-08
6.0167e-10
4.01413e-08
6.0305e-10
6.06082e-10
7.34727e-08
2.02478e-09
-7.35995e-08
7.33903e-08
2.24e-09
7.33603e-08
2.45587e-09
7.33823e-08
2.67772e-09
7.34175e-08
2.87138e-09
7.34447e-08
3.02436e-09
7.34601e-08
3.13708e-09
7.34727e-08
3.22041e-09
7.34891e-08
3.29332e-09
7.35119e-08
3.3583e-09
7.35377e-08
3.41265e-09
7.35614e-08
3.45307e-09
7.35779e-08
3.47648e-09
7.35831e-08
3.48007e-09
7.35732e-08
3.46208e-09
7.3544e-08
3.42225e-09
7.34911e-08
3.36144e-09
7.3411e-08
3.28157e-09
7.33031e-08
3.18674e-09
7.31681e-08
3.08281e-09
7.30078e-08
2.97527e-09
7.28246e-08
2.86851e-09
7.2621e-08
2.76641e-09
7.24002e-08
2.67141e-09
7.21656e-08
2.58406e-09
7.1921e-08
2.50425e-09
7.16697e-08
2.43275e-09
7.14138e-08
2.37098e-09
7.11544e-08
2.31944e-09
7.08913e-08
2.27634e-09
7.06237e-08
2.23908e-09
7.03511e-08
2.20494e-09
7.00737e-08
2.1717e-09
6.9792e-08
2.13822e-09
6.95061e-08
2.10552e-09
6.92152e-08
2.07376e-09
6.8919e-08
2.0419e-09
6.86173e-08
2.00848e-09
6.83108e-08
1.97346e-09
6.79999e-08
1.93682e-09
6.76847e-08
1.89932e-09
6.73653e-08
1.86089e-09
6.70416e-08
1.8218e-09
6.67141e-08
1.78148e-09
6.63829e-08
1.74038e-09
6.60485e-08
1.69813e-09
6.5711e-08
1.65526e-09
6.53709e-08
1.61128e-09
6.50289e-08
1.56668e-09
6.46853e-08
1.52114e-09
6.43406e-08
1.47544e-09
6.39954e-08
1.42915e-09
6.365e-08
1.38314e-09
6.33051e-08
1.33704e-09
6.29608e-08
1.2919e-09
6.26176e-08
1.24711e-09
6.22761e-08
1.20379e-09
6.19366e-08
1.16138e-09
6.15997e-08
1.12112e-09
6.12657e-08
1.0823e-09
6.09348e-08
1.0464e-09
6.06075e-08
1.01248e-09
6.02836e-08
9.82094e-10
5.99635e-08
9.53989e-10
5.96467e-08
9.29842e-10
5.93335e-08
9.08096e-10
5.90234e-08
8.90256e-10
5.87168e-08
8.74512e-10
5.84132e-08
8.6252e-10
5.81131e-08
8.52149e-10
5.78158e-08
8.45083e-10
5.75218e-08
8.38708e-10
5.72305e-08
8.34855e-10
5.69422e-08
8.30817e-10
5.66564e-08
8.28857e-10
5.6373e-08
8.2617e-10
5.60914e-08
8.25488e-10
5.58117e-08
8.23777e-10
5.55332e-08
8.24161e-10
5.52564e-08
8.23488e-10
5.49802e-08
8.25215e-10
5.47052e-08
8.25993e-10
5.44301e-08
8.29657e-10
5.41552e-08
8.32765e-10
5.38792e-08
8.39426e-10
5.36019e-08
8.45516e-10
5.33221e-08
8.53812e-10
5.3041e-08
8.57999e-10
5.27588e-08
8.60826e-10
5.24776e-08
8.58001e-10
5.21966e-08
8.56948e-10
5.1915e-08
8.57988e-10
5.16297e-08
8.66395e-10
5.13412e-08
8.74115e-10
5.10485e-08
8.83273e-10
5.07531e-08
8.89597e-10
5.04535e-08
8.97694e-10
5.01514e-08
9.03826e-10
4.98462e-08
9.08191e-10
9.11605e-10
7.95883e-08
2.15602e-09
-7.97196e-08
7.94896e-08
2.33875e-09
7.9429e-08
2.51648e-09
7.94108e-08
2.69588e-09
7.94161e-08
2.86603e-09
7.9427e-08
3.01347e-09
7.94342e-08
3.12996e-09
7.94345e-08
3.22006e-09
7.94345e-08
3.29333e-09
7.94379e-08
3.35496e-09
7.94437e-08
3.40681e-09
7.94489e-08
3.44787e-09
7.94502e-08
3.47517e-09
7.94445e-08
3.48578e-09
7.94282e-08
3.4784e-09
7.93974e-08
3.45305e-09
7.93487e-08
3.41013e-09
7.92797e-08
3.35053e-09
7.91893e-08
3.2772e-09
7.90771e-08
3.19494e-09
7.89442e-08
3.10822e-09
7.87924e-08
3.02026e-09
7.86247e-08
2.93416e-09
7.84435e-08
2.85255e-09
7.82513e-08
2.77631e-09
7.80503e-08
2.70521e-09
7.78431e-08
2.63996e-09
7.76321e-08
2.58201e-09
7.74193e-08
2.5323e-09
7.72056e-08
2.48996e-09
7.69911e-08
2.45357e-09
7.67753e-08
2.42076e-09
7.65578e-08
2.38916e-09
7.63388e-08
2.3573e-09
7.61181e-08
2.32624e-09
7.58953e-08
2.2965e-09
7.56699e-08
2.26734e-09
7.54412e-08
2.23717e-09
7.52091e-08
2.20554e-09
7.49737e-08
2.17223e-09
7.47349e-08
2.13808e-09
7.44926e-08
2.10319e-09
7.42466e-08
2.06788e-09
7.39966e-08
2.03141e-09
7.37428e-08
1.9942e-09
7.34851e-08
1.95584e-09
7.32235e-08
1.91687e-09
7.29581e-08
1.87673e-09
7.26889e-08
1.8358e-09
7.24163e-08
1.79375e-09
7.21404e-08
1.75139e-09
7.18613e-08
1.70828e-09
7.15791e-08
1.66532e-09
7.12941e-08
1.62204e-09
7.10063e-08
1.57969e-09
7.07159e-08
1.53754e-09
7.0423e-08
1.49667e-09
7.0128e-08
1.45635e-09
6.98313e-08
1.4178e-09
6.95333e-08
1.38028e-09
6.92344e-08
1.34537e-09
6.89349e-08
1.31199e-09
6.8635e-08
1.28195e-09
6.83351e-08
1.25392e-09
6.8035e-08
1.22987e-09
6.77349e-08
1.20825e-09
6.74346e-08
1.19058e-09
6.71342e-08
1.17488e-09
6.68338e-08
1.1629e-09
6.65337e-08
1.15227e-09
6.62338e-08
1.14495e-09
6.59344e-08
1.13809e-09
6.56357e-08
1.13363e-09
6.53377e-08
1.12875e-09
6.50407e-08
1.1259e-09
6.47446e-08
1.12223e-09
6.44493e-08
1.12078e-09
6.41548e-08
1.11829e-09
6.3861e-08
1.11804e-09
6.35678e-08
1.11669e-09
6.32751e-08
1.11783e-09
6.29831e-08
1.11798e-09
6.26915e-08
1.12133e-09
6.23998e-08
1.1244e-09
6.21074e-08
1.13186e-09
6.18131e-08
1.13985e-09
6.15157e-08
1.15114e-09
6.12158e-08
1.15795e-09
6.09148e-08
1.16178e-09
6.06157e-08
1.15712e-09
6.03196e-08
1.15303e-09
6.00247e-08
1.15293e-09
5.97272e-08
1.1639e-09
5.94256e-08
1.17567e-09
5.91195e-08
1.18942e-09
5.88094e-08
1.19966e-09
5.84955e-08
1.21164e-09
5.81775e-08
1.22175e-09
5.78563e-08
1.22946e-09
1.2365e-09
8.61876e-08
2.29226e-09
-8.63239e-08
8.60758e-08
2.45057e-09
8.59925e-08
2.59983e-09
8.59385e-08
2.74985e-09
8.59094e-08
2.89518e-09
8.58945e-08
3.02829e-09
8.58823e-08
3.14224e-09
8.58669e-08
3.23545e-09
8.5849e-08
3.31118e-09
8.58305e-08
3.37346e-09
8.58126e-08
3.42468e-09
8.57951e-08
3.46545e-09
8.57752e-08
3.49503e-09
8.57492e-08
3.51179e-09
8.57135e-08
3.51406e-09
8.56658e-08
3.50082e-09
8.56038e-08
3.47215e-09
8.5525e-08
3.42927e-09
8.54276e-08
3.3746e-09
8.53111e-08
3.31143e-09
8.51764e-08
3.2429e-09
8.50252e-08
3.17154e-09
8.48594e-08
3.09988e-09
8.46816e-08
3.03043e-09
8.44935e-08
2.96437e-09
8.42971e-08
2.90163e-09
8.40942e-08
2.84285e-09
8.38868e-08
2.7894e-09
8.3677e-08
2.74212e-09
8.34665e-08
2.70046e-09
8.32563e-08
2.66377e-09
8.30464e-08
2.63064e-09
8.28364e-08
2.59912e-09
8.2626e-08
2.56775e-09
8.24151e-08
2.53717e-09
8.22036e-08
2.50795e-09
8.19914e-08
2.47956e-09
8.17778e-08
2.45076e-09
8.15624e-08
2.42091e-09
8.13449e-08
2.38972e-09
8.11252e-08
2.35778e-09
8.09032e-08
2.32527e-09
8.06785e-08
2.29251e-09
8.04511e-08
2.25884e-09
8.02207e-08
2.22454e-09
7.99873e-08
2.18929e-09
7.97508e-08
2.15341e-09
7.95109e-08
2.11656e-09
7.92679e-08
2.0788e-09
7.90217e-08
2.03996e-09
7.87724e-08
2.00071e-09
7.85199e-08
1.96076e-09
7.82643e-08
1.92097e-09
7.80054e-08
1.88086e-09
7.77434e-08
1.84175e-09
7.74779e-08
1.80298e-09
7.72093e-08
1.76537e-09
7.69373e-08
1.7283e-09
7.66625e-08
1.69263e-09
7.6385e-08
1.65778e-09
7.61052e-08
1.62513e-09
7.58235e-08
1.59372e-09
7.55401e-08
1.56533e-09
7.52552e-08
1.53888e-09
7.49689e-08
1.51615e-09
7.4681e-08
1.49615e-09
7.43916e-08
1.47997e-09
7.41005e-08
1.466e-09
7.38078e-08
1.45557e-09
7.35136e-08
1.44649e-09
7.32181e-08
1.44044e-09
7.29212e-08
1.43493e-09
7.26235e-08
1.43133e-09
7.23249e-08
1.42737e-09
7.20259e-08
1.42493e-09
7.17264e-08
1.42172e-09
7.14268e-08
1.42041e-09
7.11267e-08
1.41838e-09
7.08265e-08
1.4182e-09
7.05259e-08
1.41732e-09
7.02253e-08
1.41843e-09
6.99244e-08
1.41884e-09
6.96238e-08
1.42199e-09
6.93228e-08
1.4254e-09
6.90214e-08
1.43318e-09
6.87177e-08
1.44363e-09
6.84098e-08
1.45906e-09
6.8096e-08
1.47173e-09
6.77794e-08
1.47836e-09
6.7465e-08
1.4715e-09
6.71576e-08
1.46047e-09
6.68541e-08
1.45643e-09
6.65497e-08
1.46827e-09
6.624e-08
1.48535e-09
6.5925e-08
1.50444e-09
6.56048e-08
1.51987e-09
6.52819e-08
1.5346e-09
6.49549e-08
1.54868e-09
6.46255e-08
1.55885e-09
1.57474e-09
9.33082e-08
2.4367e-09
-9.34526e-08
9.31819e-08
2.5768e-09
9.30774e-08
2.70434e-09
9.29951e-08
2.83215e-09
9.29333e-08
2.95698e-09
9.2887e-08
3.07464e-09
9.28484e-08
3.18082e-09
9.28112e-08
3.27269e-09
9.27726e-08
3.34971e-09
9.2733e-08
3.4131e-09
9.26928e-08
3.46488e-09
9.26514e-08
3.50682e-09
9.26071e-08
3.53931e-09
9.2558e-08
3.56094e-09
9.25019e-08
3.57013e-09
9.24361e-08
3.56662e-09
9.23574e-08
3.5509e-09
9.22631e-08
3.52348e-09
9.21523e-08
3.48543e-09
9.20248e-08
3.43895e-09
9.18811e-08
3.38661e-09
9.1722e-08
3.33063e-09
9.15492e-08
3.27268e-09
9.13649e-08
3.21471e-09
9.1171e-08
3.15834e-09
9.09685e-08
3.10412e-09
9.0759e-08
3.05233e-09
9.05444e-08
3.004e-09
9.03265e-08
2.96e-09
9.01069e-08
2.92004e-09
8.9887e-08
2.88373e-09
8.96671e-08
2.85048e-09
8.94472e-08
2.819e-09
8.92268e-08
2.78816e-09
8.9006e-08
2.75802e-09
8.87848e-08
2.72919e-09
8.85632e-08
2.70108e-09
8.8341e-08
2.67297e-09
8.81177e-08
2.64419e-09
8.78929e-08
2.61457e-09
8.76663e-08
2.58437e-09
8.74379e-08
2.5537e-09
8.72075e-08
2.52289e-09
8.69749e-08
2.49142e-09
8.674e-08
2.45945e-09
8.65025e-08
2.42681e-09
8.62624e-08
2.39348e-09
8.60196e-08
2.35942e-09
8.5774e-08
2.32434e-09
8.55257e-08
2.2883e-09
8.52747e-08
2.25174e-09
8.50209e-08
2.21456e-09
8.47642e-08
2.1776e-09
8.45046e-08
2.14046e-09
8.42421e-08
2.10432e-09
8.39762e-08
2.06881e-09
8.37073e-08
2.0343e-09
8.34351e-08
2.00054e-09
8.31599e-08
1.96781e-09
8.28818e-08
1.93581e-09
8.26014e-08
1.90558e-09
8.23187e-08
1.8764e-09
8.20342e-08
1.84984e-09
8.17477e-08
1.82533e-09
8.14598e-08
1.80413e-09
8.11698e-08
1.78609e-09
8.08781e-08
1.77168e-09
8.05842e-08
1.7599e-09
8.02883e-08
1.7515e-09
7.99901e-08
1.74465e-09
7.96902e-08
1.74042e-09
7.93881e-08
1.73703e-09
7.90845e-08
1.73489e-09
7.87792e-08
1.73266e-09
7.84728e-08
1.73129e-09
7.81652e-08
1.72932e-09
7.7857e-08
1.72864e-09
7.75477e-08
1.72773e-09
7.72379e-08
1.72798e-09
7.6927e-08
1.72821e-09
7.66157e-08
1.72975e-09
7.63034e-08
1.7311e-09
7.59911e-08
1.73437e-09
7.56781e-08
1.73839e-09
7.53656e-08
1.74568e-09
7.50516e-08
1.7576e-09
7.47334e-08
1.77728e-09
7.44069e-08
1.79815e-09
7.4075e-08
1.81025e-09
7.37444e-08
1.80218e-09
7.34229e-08
1.78192e-09
7.31066e-08
1.77278e-09
7.27887e-08
1.78615e-09
7.24637e-08
1.81029e-09
7.21334e-08
1.83477e-09
7.17974e-08
1.85587e-09
7.14592e-08
1.87281e-09
7.11178e-08
1.89009e-09
7.07774e-08
1.89921e-09
1.92345e-09
1.00989e-07
2.59325e-09
-1.01146e-07
1.00847e-07
2.71912e-09
1.00722e-07
2.82906e-09
1.00614e-07
2.93968e-09
1.00523e-07
3.04861e-09
1.00445e-07
3.15278e-09
1.00376e-07
3.24928e-09
1.00313e-07
3.33597e-09
1.00251e-07
3.41158e-09
1.00188e-07
3.47582e-09
1.00124e-07
3.52941e-09
1.00057e-07
3.57318e-09
9.99892e-08
3.60762e-09
9.99174e-08
3.63277e-09
9.98392e-08
3.64824e-09
9.9752e-08
3.65385e-09
9.96533e-08
3.64962e-09
9.95412e-08
3.63562e-09
9.94145e-08
3.61207e-09
9.9273e-08
3.58045e-09
9.91171e-08
3.54254e-09
9.89473e-08
3.50039e-09
9.87647e-08
3.45531e-09
9.85708e-08
3.40863e-09
9.83672e-08
3.36188e-09
9.81551e-08
3.31628e-09
9.79356e-08
3.27181e-09
9.77106e-08
3.22899e-09
9.74816e-08
3.18895e-09
9.72498e-08
3.15184e-09
9.70165e-08
3.11705e-09
9.67825e-08
3.08449e-09
9.65479e-08
3.05362e-09
9.63123e-08
3.02378e-09
9.60759e-08
2.99442e-09
9.58388e-08
2.96625e-09
9.56012e-08
2.93865e-09
9.53629e-08
2.9113e-09
9.51235e-08
2.88352e-09
9.48828e-08
2.85529e-09
9.46405e-08
2.82666e-09
9.43965e-08
2.7977e-09
9.41507e-08
2.76868e-09
9.39029e-08
2.73925e-09
9.36529e-08
2.70942e-09
9.34005e-08
2.67921e-09
9.31458e-08
2.64826e-09
9.28884e-08
2.6168e-09
9.26285e-08
2.58425e-09
9.23659e-08
2.55086e-09
9.21008e-08
2.51685e-09
9.18331e-08
2.48228e-09
9.15627e-08
2.44799e-09
9.12894e-08
2.41374e-09
9.10133e-08
2.38045e-09
9.0734e-08
2.34809e-09
9.04518e-08
2.31655e-09
9.01663e-08
2.28601e-09
8.98779e-08
2.25616e-09
8.95868e-08
2.227e-09
8.92932e-08
2.19914e-09
8.89974e-08
2.17221e-09
8.86998e-08
2.14747e-09
8.84001e-08
2.12498e-09
8.80988e-08
2.10541e-09
8.77955e-08
2.08939e-09
8.74904e-08
2.07685e-09
8.71829e-08
2.06737e-09
8.68732e-08
2.06116e-09
8.65611e-08
2.05681e-09
8.62468e-08
2.05465e-09
8.59302e-08
2.05365e-09
8.56118e-08
2.05327e-09
8.52914e-08
2.05306e-09
8.49696e-08
2.05312e-09
8.46462e-08
2.05274e-09
8.43218e-08
2.05303e-09
8.3996e-08
2.0535e-09
8.36695e-08
2.05449e-09
8.33416e-08
2.05609e-09
8.30129e-08
2.05849e-09
8.26827e-08
2.06132e-09
8.23516e-08
2.06542e-09
8.20197e-08
2.07029e-09
8.16887e-08
2.07669e-09
8.13586e-08
2.08776e-09
8.10288e-08
2.10699e-09
8.06964e-08
2.1306e-09
8.036e-08
2.1466e-09
8.0019e-08
2.14317e-09
7.9675e-08
2.12595e-09
7.93269e-08
2.12089e-09
7.89757e-08
2.1374e-09
7.86215e-08
2.16442e-09
7.82659e-08
2.19043e-09
7.79078e-08
2.21393e-09
7.75478e-08
2.23284e-09
7.71857e-08
2.25215e-09
7.68242e-08
2.26071e-09
2.28533e-09
1.09269e-07
2.76347e-09
-1.09439e-07
1.09113e-07
2.87494e-09
1.08969e-07
2.97314e-09
1.08837e-07
3.07147e-09
1.08717e-07
3.16812e-09
1.08609e-07
3.26094e-09
1.08511e-07
3.34797e-09
1.08418e-07
3.42815e-09
1.08329e-07
3.50073e-09
1.0824e-07
3.56457e-09
1.08151e-07
3.61897e-09
1.0806e-07
3.6643e-09
1.07966e-07
3.70135e-09
1.07868e-07
3.73063e-09
1.07765e-07
3.75166e-09
1.07654e-07
3.76438e-09
1.07534e-07
3.7698e-09
1.07402e-07
3.76754e-09
1.07258e-07
3.75642e-09
1.07101e-07
3.73748e-09
1.06931e-07
3.7122e-09
1.06749e-07
3.68268e-09
1.06554e-07
3.64986e-09
1.06349e-07
3.61426e-09
1.06134e-07
3.57689e-09
1.0591e-07
3.53976e-09
1.05679e-07
3.50289e-09
1.05442e-07
3.46608e-09
1.052e-07
3.4305e-09
1.04955e-07
3.3971e-09
1.04707e-07
3.36494e-09
1.04458e-07
3.33405e-09
1.04207e-07
3.30454e-09
1.03954e-07
3.27631e-09
1.037e-07
3.24831e-09
1.03445e-07
3.22125e-09
1.03189e-07
3.1946e-09
1.02932e-07
3.16831e-09
1.02674e-07
3.14173e-09
1.02415e-07
3.11498e-09
1.02153e-07
3.08796e-09
1.0189e-07
3.06075e-09
1.01625e-07
3.03348e-09
1.01359e-07
3.00608e-09
1.0109e-07
2.97839e-09
1.00818e-07
2.95058e-09
1.00544e-07
2.92204e-09
1.00268e-07
2.89316e-09
9.99892e-08
2.86317e-09
9.97076e-08
2.83243e-09
9.94235e-08
2.80097e-09
9.91367e-08
2.7691e-09
9.88472e-08
2.73748e-09
9.85547e-08
2.7062e-09
9.82594e-08
2.6758e-09
9.79608e-08
2.6466e-09
9.76593e-08
2.61809e-09
9.73546e-08
2.5907e-09
9.7047e-08
2.56378e-09
9.67365e-08
2.53748e-09
9.64236e-08
2.51201e-09
9.61085e-08
2.48739e-09
9.57914e-08
2.46457e-09
9.54722e-08
2.44414e-09
9.51512e-08
2.42642e-09
9.48281e-08
2.41247e-09
9.4503e-08
2.40196e-09
9.41755e-08
2.39486e-09
9.38457e-08
2.39096e-09
9.35133e-08
2.38924e-09
9.31786e-08
2.38936e-09
9.28414e-08
2.39081e-09
9.25022e-08
2.39248e-09
9.21609e-08
2.39439e-09
9.18179e-08
2.39612e-09
9.14731e-08
2.39755e-09
9.1127e-08
2.39914e-09
9.07793e-08
2.40113e-09
9.04305e-08
2.40328e-09
9.00803e-08
2.40637e-09
8.97286e-08
2.41012e-09
8.93751e-08
2.41482e-09
8.902e-08
2.42057e-09
8.8663e-08
2.42721e-09
8.8306e-08
2.43373e-09
8.79522e-08
2.44162e-09
8.76082e-08
2.45098e-09
8.72764e-08
2.46232e-09
8.6949e-08
2.47405e-09
8.66067e-08
2.48546e-09
8.62348e-08
2.49788e-09
8.58393e-08
2.5164e-09
8.5438e-08
2.53862e-09
8.50412e-08
2.5613e-09
8.46499e-08
2.58167e-09
8.42619e-08
2.60197e-09
8.38741e-08
2.62058e-09
8.34853e-08
2.64098e-09
8.30874e-08
2.65859e-09
2.67024e-09
6.85489e-08
2.63935e-09
-6.84248e-08
6.86844e-08
2.73953e-09
6.88287e-08
2.82885e-09
6.89814e-08
2.91872e-09
6.91423e-08
3.00727e-09
6.93108e-08
3.09242e-09
6.94863e-08
3.17248e-09
6.96677e-08
3.24671e-09
6.98537e-08
3.31475e-09
7.00429e-08
3.37541e-09
7.02342e-08
3.42767e-09
7.04267e-08
3.47175e-09
7.06199e-08
3.50819e-09
7.0813e-08
3.53746e-09
7.10054e-08
3.55924e-09
7.11961e-08
3.57372e-09
7.13839e-08
3.58198e-09
7.15684e-08
3.58302e-09
7.17488e-08
3.57608e-09
7.19245e-08
3.56177e-09
7.20953e-08
3.54135e-09
7.22613e-08
3.51672e-09
7.24225e-08
3.48865e-09
7.25793e-08
3.45747e-09
7.27325e-08
3.42373e-09
7.28826e-08
3.38964e-09
7.303e-08
3.35546e-09
7.31754e-08
3.32065e-09
7.33199e-08
3.28602e-09
7.34639e-08
3.25315e-09
7.36077e-08
3.22105e-09
7.37522e-08
3.18962e-09
7.38975e-08
3.1592e-09
7.40437e-08
3.13008e-09
7.4191e-08
3.10106e-09
7.43395e-08
3.07277e-09
7.44892e-08
3.04482e-09
7.46404e-08
3.01717e-09
7.47929e-08
2.98921e-09
7.49467e-08
2.96119e-09
7.51017e-08
2.93295e-09
7.52578e-08
2.90463e-09
7.54151e-08
2.87621e-09
7.55734e-08
2.8478e-09
7.57326e-08
2.81915e-09
7.58926e-08
2.79053e-09
7.60534e-08
2.76124e-09
7.6215e-08
2.73162e-09
7.63772e-08
2.70098e-09
7.654e-08
2.66959e-09
7.67036e-08
2.63742e-09
7.68677e-08
2.60497e-09
7.70325e-08
2.57268e-09
7.71977e-08
2.54096e-09
7.73634e-08
2.51008e-09
7.75295e-08
2.48057e-09
7.76958e-08
2.45174e-09
7.78625e-08
2.42397e-09
7.80297e-08
2.39659e-09
7.81974e-08
2.36978e-09
7.8366e-08
2.34342e-09
7.85355e-08
2.31789e-09
7.87063e-08
2.29383e-09
7.88782e-08
2.27224e-09
7.90513e-08
2.25332e-09
7.92256e-08
2.23818e-09
7.9401e-08
2.22656e-09
7.95773e-08
2.21857e-09
7.97546e-08
2.21365e-09
7.99326e-08
2.21118e-09
8.01117e-08
2.21031e-09
8.02917e-08
2.21077e-09
8.04729e-08
2.21125e-09
8.06555e-08
2.21187e-09
8.08396e-08
2.212e-09
8.10252e-08
2.21188e-09
8.12129e-08
2.2115e-09
8.14025e-08
2.21156e-09
8.15941e-08
2.21161e-09
8.17878e-08
2.21265e-09
8.19837e-08
2.21427e-09
8.21813e-08
2.21722e-09
8.23807e-08
2.22118e-09
8.25817e-08
2.22617e-09
8.27858e-08
2.22968e-09
8.29966e-08
2.23083e-09
8.32218e-08
2.22572e-09
8.34656e-08
2.21861e-09
8.37195e-08
2.22012e-09
8.3963e-08
2.24189e-09
8.41785e-08
2.28243e-09
8.43699e-08
2.32502e-09
8.45564e-08
2.35208e-09
8.47515e-08
2.36621e-09
8.49581e-08
2.37511e-09
8.51736e-08
2.38644e-09
8.53943e-08
2.39993e-09
8.5617e-08
2.41826e-09
8.58307e-08
2.44486e-09
2.4286e-09
7.5762e-08
2.49899e-09
-7.56217e-08
7.59101e-08
2.59148e-09
7.6066e-08
2.67299e-09
7.62298e-08
2.75488e-09
7.64013e-08
2.83579e-09
7.65799e-08
2.9138e-09
7.6765e-08
2.98737e-09
7.69558e-08
3.0559e-09
7.71513e-08
3.11931e-09
7.735e-08
3.17667e-09
7.7551e-08
3.22664e-09
7.77536e-08
3.26916e-09
7.79571e-08
3.30471e-09
7.81607e-08
3.33381e-09
7.83636e-08
3.35641e-09
7.85645e-08
3.37277e-09
7.87637e-08
3.38282e-09
7.89605e-08
3.38623e-09
7.91538e-08
3.38273e-09
7.93433e-08
3.37235e-09
7.95286e-08
3.35605e-09
7.97098e-08
3.33551e-09
7.98869e-08
3.31147e-09
8.00601e-08
3.28428e-09
8.02299e-08
3.25397e-09
8.0397e-08
3.22258e-09
8.05616e-08
3.19082e-09
8.07242e-08
3.15806e-09
8.08857e-08
3.12447e-09
8.10468e-08
3.09212e-09
8.12076e-08
3.06024e-09
8.13687e-08
3.0285e-09
8.15306e-08
2.99732e-09
8.16933e-08
2.96739e-09
8.18569e-08
2.93746e-09
8.20217e-08
2.90794e-09
8.21878e-08
2.87873e-09
8.23552e-08
2.84976e-09
8.2524e-08
2.82045e-09
8.26941e-08
2.79108e-09
8.28656e-08
2.76145e-09
8.30383e-08
2.73191e-09
8.32123e-08
2.7022e-09
8.33874e-08
2.67268e-09
8.35637e-08
2.64292e-09
8.37409e-08
2.61332e-09
8.3919e-08
2.58313e-09
8.4098e-08
2.55256e-09
8.42779e-08
2.52112e-09
8.44586e-08
2.48894e-09
8.46401e-08
2.45588e-09
8.48223e-08
2.42275e-09
8.50054e-08
2.38961e-09
8.5189e-08
2.35732e-09
8.53733e-08
2.32581e-09
8.5558e-08
2.29583e-09
8.57432e-08
2.2666e-09
8.59289e-08
2.23822e-09
8.61153e-08
2.21022e-09
8.63023e-08
2.18276e-09
8.64904e-08
2.15536e-09
8.66794e-08
2.12883e-09
8.68699e-08
2.1034e-09
8.70616e-08
2.08051e-09
8.72546e-08
2.06033e-09
8.74489e-08
2.04386e-09
8.76444e-08
2.03105e-09
8.78409e-08
2.0221e-09
8.80385e-08
2.01602e-09
8.82369e-08
2.01274e-09
8.84365e-08
2.01078e-09
8.86372e-08
2.01007e-09
8.88391e-08
2.00931e-09
8.90425e-08
2.00847e-09
8.92477e-08
2.00681e-09
8.94546e-08
2.00502e-09
8.96636e-08
2.00248e-09
8.98748e-08
2.00036e-09
9.00883e-08
1.99812e-09
9.03041e-08
1.99677e-09
9.05226e-08
1.99585e-09
9.07432e-08
1.99656e-09
9.09664e-08
1.99797e-09
9.11924e-08
2.00018e-09
9.14222e-08
1.99994e-09
9.16579e-08
1.99507e-09
9.19024e-08
1.9812e-09
9.2155e-08
1.96607e-09
9.24101e-08
1.96501e-09
9.26578e-08
1.99415e-09
9.28916e-08
2.04867e-09
9.31159e-08
2.10069e-09
9.33417e-08
2.12627e-09
9.35746e-08
2.13332e-09
9.38158e-08
2.13388e-09
9.40633e-08
2.13898e-09
9.43159e-08
2.14728e-09
9.45729e-08
2.16126e-09
9.48353e-08
2.18252e-09
2.16023e-09
8.37258e-08
2.34226e-09
-8.3569e-08
8.38885e-08
2.42875e-09
8.40578e-08
2.5037e-09
8.42342e-08
2.57849e-09
8.44175e-08
2.65244e-09
8.46074e-08
2.72388e-09
8.48033e-08
2.79154e-09
8.50043e-08
2.85485e-09
8.52098e-08
2.9138e-09
8.54187e-08
2.96778e-09
8.56301e-08
3.01527e-09
8.58432e-08
3.05602e-09
8.60573e-08
3.09064e-09
8.62715e-08
3.11957e-09
8.64851e-08
3.14281e-09
8.66974e-08
3.1605e-09
8.69088e-08
3.17144e-09
8.71185e-08
3.17649e-09
8.73257e-08
3.17558e-09
8.75297e-08
3.16828e-09
8.77305e-08
3.15526e-09
8.79279e-08
3.13812e-09
8.8122e-08
3.11742e-09
8.83126e-08
3.09363e-09
8.85002e-08
3.06643e-09