/*--------------------------------*- C++ -*----------------------------------*\
| =========                 |                                                 |
| \\      /  F ield         | OpenFOAM: The Open Source CFD Toolbox           |
|  \\    /   O peration     | Version:  2.3.0                                 |
|   \\  /    A nd           | Web:      www.OpenFOAM.org                      |
|    \\/     M anipulation  |                                                 |
\*---------------------------------------------------------------------------*/
FoamFile
{
    version     2.0;
    format      ascii;
    class       volScalarField;
    location    "0.15";
    object      p;
}
// * * * * * * * * * * * * * * * * * * * * * * * * * * * * * * * * * * * * * //

dimensions      [0 2 -2 0 0 0 0];

internalField   nonuniform List<scalar> 
2945
(
0.00218465
0.00123854
0.000536324
6.32642e-05
-0.000262183
-0.000469655
-0.000579953
-0.000622744
-0.000627614
-0.000615724
-0.000598865
-0.000582247
-0.000567514
-0.00055478
-0.000543677
-0.000533785
-0.000524754
-0.00051631
-0.000508219
-0.000500254
-0.00049217
-0.000483682
-0.000474445
-0.000464049
-0.00045202
-0.000437852
-0.000421061
-0.000401272
-0.000378313
-0.000352327
-0.000323772
-0.000293695
-0.000263264
-0.000233661
-0.00020581
-0.00018027
-0.000157283
-0.000136868
-0.000118896
-0.000103167
-8.94504e-05
-7.75178e-05
-6.71537e-05
-5.81636e-05
-5.03741e-05
-4.36322e-05
-3.78027e-05
-3.27659e-05
-2.84163e-05
-2.46602e-05
-2.14152e-05
-1.86092e-05
-1.61792e-05
-1.40709e-05
-1.22379e-05
-1.06406e-05
-9.24586e-06
-8.02553e-06
-6.95616e-06
-6.01797e-06
-5.19423e-06
-4.47063e-06
-3.83487e-06
-3.27619e-06
-2.78511e-06
-2.35317e-06
-1.9728e-06
-1.63714e-06
-1.33994e-06
-1.07556e-06
-8.38765e-07
-6.24748e-07
-4.29074e-07
-2.47473e-07
-7.52408e-08
0.0020066
0.00121343
0.000562713
0.000102911
-0.000221093
-0.000432236
-0.000548311
-0.00059713
-0.000607362
-0.000599845
-0.000586358
-0.000572254
-0.000559376
-0.000548026
-0.000537979
-0.000528917
-0.000520559
-0.000512676
-0.000505061
-0.000497512
-0.000489798
-0.000481644
-0.000472718
-0.000462613
-0.000450864
-0.000436964
-0.000420429
-0.000400877
-0.000378119
-0.00035228
-0.000323912
-0.000293918
-0.000263506
-0.000233894
-0.000206026
-0.000180465
-0.000157456
-0.000137018
-0.000119025
-0.000103277
-8.95439e-05
-7.75966e-05
-6.72198e-05
-5.82188e-05
-5.04202e-05
-4.36706e-05
-3.78347e-05
-3.27928e-05
-2.84388e-05
-2.46792e-05
-2.14315e-05
-1.86231e-05
-1.61912e-05
-1.40814e-05
-1.22471e-05
-1.06487e-05
-9.25297e-06
-8.0318e-06
-6.96169e-06
-6.02283e-06
-5.19849e-06
-4.47436e-06
-3.83813e-06
-3.27902e-06
-2.78755e-06
-2.35528e-06
-1.9746e-06
-1.63867e-06
-1.34123e-06
-1.07663e-06
-8.39626e-07
-6.25422e-07
-4.29571e-07
-2.47789e-07
-7.51891e-08
0.00183104
0.00117116
0.000580091
0.000143259
-0.000172384
-0.000385238
-0.000509045
-0.000567214
-0.000585651
-0.000584218
-0.000574815
-0.000563326
-0.000552136
-0.000541934
-0.000532733
-0.00052434
-0.00051654
-0.000509136
-0.000501945
-0.000494773
-0.000487402
-0.000479564
-0.000470931
-0.000461105
-0.000449618
-0.000435968
-0.000419667
-0.000400326
-0.000377751
-0.000352001
-0.000323645
-0.000293733
-0.000263455
-0.000233908
-0.000206071
-0.000180526
-0.000157525
-0.000137087
-0.00011909
-0.000103335
-8.95948e-05
-7.76399e-05
-6.72559e-05
-5.82483e-05
-5.0444e-05
-4.36896e-05
-3.78498e-05
-3.28047e-05
-2.84483e-05
-2.46869e-05
-2.14378e-05
-1.86284e-05
-1.61958e-05
-1.40854e-05
-1.22507e-05
-1.0652e-05
-9.25591e-06
-8.03448e-06
-6.96413e-06
-6.02505e-06
-5.2005e-06
-4.47616e-06
-3.83974e-06
-3.28046e-06
-2.78884e-06
-2.35642e-06
-1.97561e-06
-1.63957e-06
-1.34203e-06
-1.07734e-06
-8.40267e-07
-6.26e-07
-4.30095e-07
-2.48216e-07
-7.51578e-08
0.00167543
0.00112289
0.000591872
0.000183189
-0.000119
-0.00032974
-0.000459539
-0.000527106
-0.000554835
-0.000560999
-0.000557219
-0.000549694
-0.000541262
-0.000533006
-0.00052522
-0.000517894
-0.000510929
-0.000504199
-0.000497566
-0.00049087
-0.000483913
-0.000476443
-0.000468144
-0.000458625
-0.000447425
-0.000434043
-0.000417992
-0.000398884
-0.000376521
-0.000350985
-0.000322753
-0.000292924
-0.000262875
-0.000233571
-0.000205897
-0.000180457
-0.000157523
-0.000137127
-0.000119151
-0.000103405
-8.96646e-05
-7.7705e-05
-6.73137e-05
-5.8298e-05
-5.04855e-05
-4.37236e-05
-3.78771e-05
-3.28264e-05
-2.84654e-05
-2.47002e-05
-2.14482e-05
-1.86366e-05
-1.62023e-05
-1.40907e-05
-1.22551e-05
-1.06557e-05
-9.25915e-06
-8.03734e-06
-6.96668e-06
-6.02734e-06
-5.20257e-06
-4.47805e-06
-3.84147e-06
-3.28204e-06
-2.79029e-06
-2.35776e-06
-1.97685e-06
-1.64073e-06
-1.34313e-06
-1.07839e-06
-8.41292e-07
-6.27022e-07
-4.3114e-07
-2.49254e-07
-7.59106e-08
0.00153001
0.00106814
0.000597149
0.000219315
-6.68734e-05
-0.000272629
-0.000405976
-0.00048152
-0.0005181
-0.00053207
-0.000534441
-0.000531488
-0.000526379
-0.000520549
-0.000514567
-0.000508623
-0.000502742
-0.000496885
-0.000490969
-0.00048487
-0.00047842
-0.000471387
-0.000463472
-0.000454298
-0.000443417
-0.00043034
-0.000414594
-0.000395796
-0.000373762
-0.000348595
-0.000320796
-0.000291302
-0.000261551
-0.000232647
-0.000205338
-0.000180156
-0.000157397
-0.000137114
-0.000119208
-0.0001035
-8.9776e-05
-7.78195e-05
-6.74232e-05
-5.83979e-05
-5.05737e-05
-4.37995e-05
-3.79411e-05
-3.28794e-05
-2.85087e-05
-2.47352e-05
-2.14762e-05
-1.86589e-05
-1.622e-05
-1.41047e-05
-1.22662e-05
-1.06647e-05
-9.26652e-06
-8.04346e-06
-6.97185e-06
-6.03179e-06
-5.20645e-06
-4.48149e-06
-3.84454e-06
-3.28482e-06
-2.79283e-06
-2.36011e-06
-1.97904e-06
-1.64278e-06
-1.34508e-06
-1.08027e-06
-8.43135e-07
-6.28877e-07
-4.3307e-07
-2.51298e-07
-7.82057e-08
0.00139694
0.00101052
0.000596211
0.000249552
-1.97578e-05
-0.000218718
-0.000353402
-0.000435089
-0.000479341
-0.000500514
-0.000508817
-0.000510435
-0.000508746
-0.000505467
-0.000501415
-0.000496959
-0.000492252
-0.000487335
-0.000482184
-0.000476714
-0.000470787
-0.000464195
-0.00045666
-0.000447824
-0.000437262
-0.000424509
-0.000409112
-0.000390716
-0.000369153
-0.000344545
-0.0003174
-0.000288626
-0.000259397
-0.000231019
-0.000204242
-0.000179487
-0.000157033
-0.000136959
-0.000119191
-0.000103568
-8.98927e-05
-7.79594e-05
-6.75698e-05
-5.85408e-05
-5.07067e-05
-4.39191e-05
-3.8046e-05
-3.29694e-05
-2.85844e-05
-2.47979e-05
-2.15274e-05
-1.87002e-05
-1.6253e-05
-1.41309e-05
-1.22869e-05
-1.06811e-05
-9.27954e-06
-8.05392e-06
-6.98038e-06
-6.03886e-06
-5.21243e-06
-4.48664e-06
-3.84907e-06
-3.28886e-06
-2.79649e-06
-2.36346e-06
-1.98216e-06
-1.64572e-06
-1.34788e-06
-1.08298e-06
-8.45816e-07
-6.31593e-07
-4.35924e-07
-2.54442e-07
-8.24917e-08
0.00127741
0.000952341
0.000589543
0.000273396
2.12757e-05
-0.000169677
-0.000303859
-0.000389901
-0.00044047
-0.000467973
-0.000481724
-0.000487686
-0.00048934
-0.000488603
-0.000486497
-0.000483548
-0.000480024
-0.000476048
-0.000471649
-0.000466786
-0.000461351
-0.000455162
-0.000447966
-0.000439432
-0.000429164
-0.000416729
-0.000401711
-0.000383786
-0.000362815
-0.000338932
-0.000312633
-0.000284776
-0.000256444
-0.000228775
-0.000202599
-0.000178392
-0.00015636
-0.00013659
-0.000119031
-0.000103547
-8.996e-05
-7.80785e-05
-6.77156e-05
-5.86962e-05
-5.08605e-05
-4.40642e-05
-3.81781e-05
-3.30864e-05
-2.86856e-05
-2.48837e-05
-2.15987e-05
-1.87585e-05
-1.62999e-05
-1.41683e-05
-1.23164e-05
-1.07041e-05
-9.29758e-06
-8.06807e-06
-6.99158e-06
-6.04786e-06
-5.21981e-06
-4.49283e-06
-3.85439e-06
-3.29354e-06
-2.8007e-06
-2.36733e-06
-1.98577e-06
-1.64915e-06
-1.35119e-06
-1.08623e-06
-8.49062e-07
-6.34927e-07
-4.39484e-07
-2.58497e-07
-8.87109e-08
0.00117044
0.000894803
0.000577897
0.000291157
5.6283e-05
-0.00012586
-0.000258097
-0.00034693
-0.000402526
-0.000435455
-0.000454092
-0.000464085
-0.00046892
-0.00047065
-0.000470451
-0.000468985
-0.000466623
-0.000463562
-0.000459886
-0.000455594
-0.000450609
-0.00044478
-0.00043788
-0.000429609
-0.000419607
-0.000407481
-0.000392857
-0.00037545
-0.000355149
-0.0003321
-0.000306776
-0.000279972
-0.000252685
-0.000225931
-0.000200495
-0.000176897
-0.000155368
-0.000135975
-0.000118687
-0.000103393
-8.99327e-05
-7.81334e-05
-6.78204e-05
-5.88279e-05
-5.10032e-05
-4.42071e-05
-3.83139e-05
-3.32107e-05
-2.87961e-05
-2.49792e-05
-2.16794e-05
-1.88252e-05
-1.63541e-05
-1.42115e-05
-1.23503e-05
-1.07304e-05
-9.31778e-06
-8.08353e-06
-7.00345e-06
-6.05706e-06
-5.22708e-06
-4.49873e-06
-3.85933e-06
-3.29783e-06
-2.80456e-06
-2.3709e-06
-1.98916e-06
-1.65244e-06
-1.35445e-06
-1.08952e-06
-8.52443e-07
-6.38493e-07
-4.4339e-07
-2.63103e-07
-9.62629e-08
0.00107467
0.000838907
0.000562332
0.000303486
8.5681e-05
-8.71472e-05
-0.000216325
-0.000306614
-0.00036606
-0.000403541
-0.000426485
-0.000440156
-0.000447974
-0.000452062
-0.00045371
-0.00045369
-0.000452461
-0.00045029
-0.000447311
-0.000443563
-0.000439001
-0.000433503
-0.000426872
-0.000418842
-0.000409091
-0.000397269
-0.000383049
-0.000366187
-0.0003466
-0.000324442
-0.000300158
-0.000274475
-0.000248303
-0.000222563
-0.00019798
-0.000175064
-0.000154083
-0.000135119
-0.00011815
-0.000103084
-8.97853e-05
-7.80959e-05
-6.7855e-05
-5.89074e-05
-5.11078e-05
-4.43227e-05
-3.84307e-05
-3.33221e-05
-2.88979e-05
-2.50691e-05
-2.17565e-05
-1.88896e-05
-1.64065e-05
-1.42531e-05
-1.23826e-05
-1.0755e-05
-9.33616e-06
-8.09707e-06
-7.01332e-06
-6.06427e-06
-5.23241e-06
-4.5028e-06
-3.86259e-06
-3.30061e-06
-2.80708e-06
-2.37333e-06
-1.9916e-06
-1.65496e-06
-1.3571e-06
-1.09236e-06
-8.55525e-07
-6.41902e-07
-4.47281e-07
-2.67865e-07
-1.04269e-07
0.000988777
0.000785375
0.000543866
0.000311069
0.000109954
-5.32576e-05
-0.000178504
-0.000269109
-0.000331337
-0.000372541
-0.000399217
-0.000416201
-0.000426783
-0.000433103
-0.000436527
-0.000437912
-0.000437792
-0.000436493
-0.000434197
-0.000430979
-0.000426828
-0.00042165
-0.000415281
-0.000407488
-0.000397989
-0.000386479
-0.000372675
-0.000356374
-0.000337521
-0.000316274
-0.000293049
-0.000268509
-0.000243474
-0.000218781
-0.000195108
-0.000172933
-0.000152539
-0.000134037
-0.000117421
-0.000102617
-8.95066e-05
-7.79511e-05
-6.78026e-05
-5.89167e-05
-5.11559e-05
-4.43932e-05
-3.85116e-05
-3.3405e-05
-2.8977e-05
-2.51409e-05
-2.1819e-05
-1.8942e-05
-1.64489e-05
-1.42863e-05
-1.24078e-05
-1.07734e-05
-9.34898e-06
-8.10563e-06
-7.01874e-06
-6.06748e-06
-5.23417e-06
-4.50369e-06
-3.86304e-06
-3.30093e-06
-2.80748e-06
-2.37393e-06
-1.99249e-06
-1.65619e-06
-1.35871e-06
-1.09436e-06
-8.57968e-07
-6.44848e-07
-4.50868e-07
-2.7246e-07
-1.11908e-07
0.000911515
0.000734603
0.000523359
0.000314565
0.000129591
-2.38519e-05
-0.000144487
-0.00023444
-0.00029849
-0.000342638
-0.000372484
-0.000392407
-0.000405519
-0.000413933
-0.000419053
-0.000421797
-0.000422759
-0.000422318
-0.000420696
-0.000418007
-0.000414267
-0.000409413
-0.000403313
-0.000395767
-0.000386534
-0.000375351
-0.000361978
-0.00034625
-0.000328138
-0.000307803
-0.000285631
-0.000262223
-0.000238321
-0.00021468
-0.000191931
-0.000170531
-0.000150758
-0.000132745
-0.000116507
-0.000101989
-8.9092e-05
-7.76913e-05
-6.76537e-05
-5.88451e-05
-5.11367e-05
-4.44075e-05
-3.85458e-05
-3.3449e-05
-2.90239e-05
-2.51859e-05
-2.1859e-05
-1.89757e-05
-1.64756e-05
-1.43062e-05
-1.24216e-05
-1.07819e-05
-9.3534e-06
-8.10691e-06
-7.01781e-06
-6.06515e-06
-5.2311e-06
-4.50036e-06
-3.85983e-06
-3.29809e-06
-2.80515e-06
-2.37221e-06
-1.99141e-06
-1.65577e-06
-1.35895e-06
-1.09526e-06
-8.59535e-07
-6.47122e-07
-4.53953e-07
-2.7665e-07
-1.18617e-07
0.000841752
0.000686748
0.00050152
0.000314603
0.000145076
1.42186e-06
-0.000114086
-0.000202575
-0.000267591
-0.000313955
-0.000346426
-0.000368909
-0.000384304
-0.000394658
-0.000401381
-0.00040543
-0.000407445
-0.000407846
-0.000406894
-0.000404733
-0.000401411
-0.000396894
-0.000391078
-0.000383799
-0.000374851
-0.000364015
-0.000351089
-0.000335946
-0.000318576
-0.000299143
-0.000278004
-0.000255706
-0.000232915
-0.000210316
-0.000188492
-0.000167877
-0.000148749
-0.000131248
-0.000115412
-0.000101202
-8.85383e-05
-7.73116e-05
-6.74019e-05
-5.86857e-05
-5.10427e-05
-4.43585e-05
-3.85263e-05
-3.34476e-05
-2.90323e-05
-2.51983e-05
-2.18716e-05
-1.89861e-05
-1.64826e-05
-1.43094e-05
-1.24211e-05
-1.07784e-05
-9.34741e-06
-8.09925e-06
-7.00919e-06
-6.05618e-06
-5.22228e-06
-4.49208e-06
-3.85235e-06
-3.29156e-06
-2.79967e-06
-2.36779e-06
-1.98806e-06
-1.65344e-06
-1.35761e-06
-1.09486e-06
-8.60063e-07
-6.4858e-07
-4.56402e-07
-2.80279e-07
-1.2414e-07
0.000778494
0.000641813
0.00047892
0.000311764
0.000156872
2.29096e-05
-8.70982e-05
-0.00017345
-0.000238679
-0.000286586
-0.000321154
-0.000345817
-0.000363237
-0.000375362
-0.000383583
-0.000388873
-0.000391903
-0.000393126
-0.000392836
-0.000391206
-0.000388311
-0.000384144
-0.00037863
-0.000371639
-0.000363001
-0.000352532
-0.000340072
-0.000325521
-0.000308893
-0.000290347
-0.000270218
-0.000249001
-0.000227295
-0.00020572
-0.000184814
-0.000164989
-0.000146517
-0.000129548
-0.000114133
-0.000100253
-8.78416e-05
-7.68072e-05
-6.70419e-05
-5.8433e-05
-5.08684e-05
-4.42405e-05
-3.84478e-05
-3.33958e-05
-2.89977e-05
-2.51741e-05
-2.18531e-05
-1.897e-05
-1.64672e-05
-1.42935e-05
-1.24044e-05
-1.07609e-05
-9.32955e-06
-8.08141e-06
-6.99182e-06
-6.0397e-06
-5.207e-06
-4.47824e-06
-3.84008e-06
-3.28093e-06
-2.79067e-06
-2.36039e-06
-1.98218e-06
-1.64899e-06
-1.3545e-06
-1.09302e-06
-8.59424e-07
-6.49113e-07
-4.58113e-07
-2.83252e-07
-1.28448e-07
0.000720888
0.000599702
0.000455999
0.000306572
0.000165416
4.09465e-05
-6.33087e-05
-0.000146978
-0.000211763
-0.000260597
-0.000296759
-0.000323227
-0.000342405
-0.000356121
-0.000365721
-0.000372177
-0.000376176
-0.000378195
-0.000378555
-0.000377454
-0.000374992
-0.000371189
-0.000365997
-0.000359316
-0.000351009
-0.00034093
-0.000328951
-0.000315001
-0.00029911
-0.000281438
-0.000262294
-0.000242126
-0.000221478
-0.000200907
-0.00018091
-0.000161874
-0.000144068
-0.000127644
-0.000112668
-9.91356e-05
-8.69967e-05
-7.61727e-05
-6.65684e-05
-5.80816e-05
-5.06087e-05
-4.40488e-05
-3.83058e-05
-3.32895e-05
-2.89165e-05
-2.51101e-05
-2.18005e-05
-1.89249e-05
-1.64269e-05
-1.42565e-05
-1.23697e-05
-1.07281e-05
-9.29855e-06
-8.05233e-06
-6.96482e-06
-6.01494e-06
-5.18462e-06
-4.45829e-06
-3.82257e-06
-3.26581e-06
-2.77785e-06
-2.34973e-06
-1.97353e-06
-1.64222e-06
-1.34947e-06
-1.0896e-06
-8.57505e-07
-6.48626e-07
-4.59009e-07
-2.85501e-07
-1.31633e-07
0.000668205
0.000560259
0.000433082
0.000299486
0.00017112
5.58553e-05
-4.25009e-05
-0.000123055
-0.000186834
-0.000236038
-0.000273321
-0.000301224
-0.000321889
-0.000337004
-0.000347854
-0.000355389
-0.000360302
-0.000363085
-0.000364078
-0.0003635
-0.000361475
-0.000358046
-0.000353192
-0.000346841
-0.000338887
-0.000329217
-0.000317734
-0.000304393
-0.000289236
-0.000272421
-0.000254236
-0.00023509
-0.00021547
-0.000195882
-0.000176782
-0.000158535
-0.0001414
-0.000125535
-0.000111014
-9.78467e-05
-8.59979e-05
-7.5402e-05
-6.59755e-05
-5.76261e-05
-5.02585e-05
-4.37787e-05
-3.8096e-05
-3.31247e-05
-2.87849e-05
-2.50029e-05
-2.1711e-05
-1.88482e-05
-1.63597e-05
-1.41964e-05
-1.23153e-05
-1.06785e-05
-9.25322e-06
-8.01099e-06
-6.92732e-06
-5.98118e-06
-5.1545e-06
-4.43171e-06
-3.79938e-06
-3.24583e-06
-2.76086e-06
-2.33553e-06
-1.9619e-06
-1.63295e-06
-1.34234e-06
-1.08445e-06
-8.54197e-07
-6.47029e-07
-4.59016e-07
-2.86974e-07
-1.33832e-07
0.000619822
0.0005233
0.000410406
0.000290902
0.000174361
6.79443e-05
-2.44577e-05
-0.000101565
-0.000163861
-0.000212938
-0.000250901
-0.000279882
-0.000301763
-0.00031808
-0.000330039
-0.000338557
-0.00034432
-0.000347825
-0.000349428
-0.000349364
-0.000347776
-0.000344729
-0.000340226
-0.000334222
-0.000326642
-0.000317398
-0.000306423
-0.000293694
-0.000279267
-0.000263295
-0.000246046
-0.000227892
-0.000209273
-0.000190647
-0.000172432
-0.000154971
-0.000138512
-0.000123217
-0.000109166
-9.63812e-05
-8.48402e-05
-7.44896e-05
-6.52573e-05
-5.70606e-05
-4.98123e-05
-4.34251e-05
-3.78139e-05
-3.28975e-05
-2.85996e-05
-2.48494e-05
-2.15818e-05
-1.87375e-05
-1.62633e-05
-1.41115e-05
-1.22396e-05
-1.06107e-05
-9.19235e-06
-7.95634e-06
-6.87842e-06
-5.93765e-06
-5.11601e-06
-4.39795e-06
-3.77004e-06
-3.22058e-06
-2.73939e-06
-2.31752e-06
-1.94705e-06
-1.62096e-06
-1.33297e-06
-1.07746e-06
-8.49386e-07
-6.4423e-07
-4.58062e-07
-2.87632e-07
-1.35179e-07
0.000575209
0.000488629
0.000388131
0.000281153
0.000175486
7.75059e-05
-8.96424e-06
-8.23803e-05
-0.0001428
-0.000191313
-0.000229549
-0.000259267
-0.000282095
-0.000299412
-0.000312333
-0.000321729
-0.000328269
-0.00033245
-0.000334632
-0.000335067
-0.000333911
-0.000331251
-0.00032711
-0.000321468
-0.000314275
-0.000305473
-0.000295017
-0.000282904
-0.0002692
-0.000254056
-0.00023772
-0.000220531
-0.000202887
-0.000185202
-0.00016786
-0.000151181
-0.000135403
-0.000120687
-0.00010712
-9.47341e-05
-8.35181e-05
-7.343e-05
-6.44084e-05
-5.63797e-05
-4.92649e-05
-4.29832e-05
-3.74551e-05
-3.26037e-05
-2.83568e-05
-2.46463e-05
-2.14099e-05
-1.85902e-05
-1.61357e-05
-1.39997e-05
-1.2141e-05
-1.05233e-05
-9.11467e-06
-7.88731e-06
-6.8172e-06
-5.88357e-06
-5.06848e-06
-4.35644e-06
-3.73406e-06
-3.18966e-06
-2.71308e-06
-2.2954e-06
-1.92871e-06
-1.60605e-06
-1.32116e-06
-1.06847e-06
-8.42954e-07
-6.40136e-07
-4.56078e-07
-2.87449e-07
-1.35786e-07
0.000533913
0.000456052
0.000366365
0.000270516
0.000174805
8.48146e-05
4.1892e-06
-6.53695e-05
-0.000123593
-0.000171161
-0.0002093
-0.000239434
-0.000262947
-0.00028106
-0.000294789
-0.000304951
-0.000312189
-0.00031699
-0.000319717
-0.000320629
-0.000319897
-0.000317623
-0.000313851
-0.000308583
-0.000301791
-0.000293442
-0.000283513
-0.000272019
-0.000259031
-0.0002447
-0.000229255
-0.000213006
-0.000196311
-0.000179547
-0.000163066
-0.000147164
-0.00013207
-0.000117941
-0.000104872
-9.29004e-05
-8.20262e-05
-7.22177e-05
-6.34232e-05
-5.55782e-05
-4.86112e-05
-4.24482e-05
-3.70149e-05
-3.22393e-05
-2.80526e-05
-2.43904e-05
-2.11924e-05
-1.84038e-05
-1.59743e-05
-1.38591e-05
-1.20178e-05
-1.04148e-05
-9.0189e-06
-7.80279e-06
-6.74272e-06
-5.81812e-06
-5.01121e-06
-4.30659e-06
-3.69094e-06
-3.15264e-06
-2.68157e-06
-2.26886e-06
-1.90665e-06
-1.58801e-06
-1.30675e-06
-1.05733e-06
-8.34782e-07
-6.34651e-07
-4.52998e-07
-2.864e-07
-1.35735e-07
0.000495542
0.000425384
0.000345169
0.000259217
0.000172593
9.01258e-05
1.52058e-05
-5.03955e-05
-0.000106169
-0.000152468
-0.000190178
-0.000220427
-0.000244373
-0.000263078
-0.000277458
-0.00028827
-0.000296119
-0.000301479
-0.00030471
-0.000306074
-0.000305752
-0.000303861
-0.000300461
-0.000295573
-0.000289192
-0.000281305
-0.000271909
-0.000261033
-0.000248756
-0.000235222
-0.000220648
-0.000205313
-0.000189544
-0.000173682
-0.000158048
-0.000142918
-0.00012851
-0.000114977
-0.000102417
-9.08753e-05
-8.03594e-05
-7.08472e-05
-6.22963e-05
-5.46507e-05
-4.78462e-05
-4.18152e-05
-3.6489e-05
-3.18001e-05
-2.76836e-05
-2.40782e-05
-2.09264e-05
-1.81755e-05
-1.57771e-05
-1.36876e-05
-1.1868e-05
-1.02836e-05
-8.90373e-06
-7.70165e-06
-6.654e-06
-5.74047e-06
-4.94349e-06
-4.2478e-06
-3.64017e-06
-3.10908e-06
-2.6445e-06
-2.23759e-06
-1.88059e-06
-1.56662e-06
-1.28955e-06
-1.0439e-06
-8.24747e-07
-6.27681e-07
-4.48755e-07
-2.84461e-07
-1.35088e-07
0.000459761
0.000396447
0.000324576
0.000247438
0.000169093
9.36747e-05
2.42801e-05
-3.73204e-05
-9.04497e-05
-0.000135207
-0.000172194
-0.000202281
-0.000226417
-0.000245516
-0.00026039
-0.000271728
-0.000280097
-0.00028595
-0.000289637
-0.000291422
-0.000291494
-0.000289977
-0.000286948
-0.000282445
-0.000276482
-0.000269064
-0.000260204
-0.000249945
-0.000238369
-0.000225619
-0.000211893
-0.00019745
-0.000182584
-0.000167605
-0.000152805
-0.000138442
-0.000124721
-0.000111792
-9.97526e-05
-8.86544e-05
-7.85125e-05
-6.93132e-05
-6.10224e-05
-5.35918e-05
-4.69647e-05
-4.10795e-05
-3.5873e-05
-3.12821e-05
-2.7246e-05
-2.37065e-05
-2.06089e-05
-1.79027e-05
-1.55415e-05
-1.34832e-05
-1.169e-05
-1.01281e-05
-8.76778e-06
-7.58271e-06
-6.55003e-06
-5.64976e-06
-4.86458e-06
-4.17942e-06
-3.58121e-06
-3.05854e-06
-2.60147e-06
-2.20128e-06
-1.85027e-06
-1.54165e-06
-1.26937e-06
-1.02801e-06
-8.12723e-07
-6.19128e-07
-4.43284e-07
-2.8161e-07
-1.33882e-07
0.000426276
0.00036908
0.000304594
0.000235324
0.000164513
9.56756e-05
3.15968e-05
-2.60066e-05
-7.6351e-05
-0.000119341
-0.000155347
-0.000185018
-0.000209118
-0.000228418
-0.000243627
-0.000255367
-0.00026416
-0.000270434
-0.000274526
-0.000276697
-0.000277139
-0.000275985
-0.000273323
-0.000269206
-0.000263663
-0.000256717
-0.000248395
-0.000238749
-0.000227867
-0.000215884
-0.000202988
-0.000189414
-0.00017543
-0.000161315
-0.000147337
-0.000133736
-0.000120702
-0.000108383
-9.68742e-05
-8.62332e-05
-7.64808e-05
-6.76105e-05
-5.95961e-05
-5.23965e-05
-4.59618e-05
-4.02364e-05
-3.51623e-05
-3.06813e-05
-2.6736e-05
-2.32718e-05
-2.02368e-05
-1.75828e-05
-1.52653e-05
-1.32439e-05
-1.1482e-05
-9.94689e-06
-8.60969e-06
-7.44479e-06
-6.42979e-06
-5.54512e-06
-4.77374e-06
-4.10084e-06
-3.51352e-06
-3.00054e-06
-2.5521e-06
-2.15958e-06
-1.8154e-06
-1.51287e-06
-1.24601e-06
-1.00951e-06
-7.98582e-07
-6.08895e-07
-4.3652e-07
-2.77824e-07
-1.3214e-07
0.00039483
0.000343133
0.000285217
0.000222988
0.000159034
9.63224e-05
3.73302e-05
-1.63181e-05
-6.37819e-05
-0.000104822
-0.000139625
-0.000168653
-0.000192505
-0.000211821
-0.00022721
-0.000239226
-0.000248345
-0.000254964
-0.000259405
-0.000261922
-0.000262707
-0.000261899
-0.000259596
-0.000255862
-0.000250741
-0.000244267
-0.000236482
-0.000227444
-0.000217244
-0.000206015
-0.000193929
-0.000181203
-0.000168079
-0.000154811
-0.000141644
-0.000128797
-0.000116451
-0.000104746
-9.3779e-05
-8.3608e-05
-7.42598e-05
-6.57345e-05
-5.80124e-05
-5.10597e-05
-4.48325e-05
-3.92811e-05
-3.43527e-05
-2.99934e-05
-2.61499e-05
-2.27708e-05
-1.98071e-05
-1.7213e-05
-1.4946e-05
-1.29673e-05
-1.12419e-05
-9.73816e-06
-8.42802e-06
-7.28665e-06
-6.29222e-06
-5.42563e-06
-4.67019e-06
-4.01138e-06
-3.43654e-06
-2.93462e-06
-2.49598e-06
-2.11216e-06
-1.7757e-06
-1.48003e-06
-1.21929e-06
-9.88244e-07
-7.82198e-07
-5.96887e-07
-4.28402e-07
-2.7308e-07
-1.2987e-07
0.0003652
0.000318467
0.000266424
0.000210516
0.000152804
9.57858e-05
4.16392e-05
-8.12614e-06
-5.26518e-05
-9.15977e-05
-0.000125008
-0.000153189
-0.000176597
-0.000195751
-0.000211169
-0.000223335
-0.000232678
-0.000239563
-0.000244293
-0.000247112
-0.00024821
-0.000247729
-0.000245773
-0.000242416
-0.000237713
-0.00023171
-0.000224458
-0.000216023
-0.000206496
-0.000196004
-0.000184711
-0.000172812
-0.000160529
-0.000148091
-0.000135722
-0.000123624
-0.000111966
-0.000100881
-9.04636e-05
-8.0775e-05
-7.18454e-05
-6.36806e-05
-5.6267e-05
-4.95768e-05
-4.35724e-05
-3.82094e-05
-3.34401e-05
-2.92148e-05
-2.54843e-05
-2.22004e-05
-1.9317e-05
-1.67907e-05
-1.45813e-05
-1.26517e-05
-1.09681e-05
-9.50043e-06
-8.22143e-06
-7.10712e-06
-6.13631e-06
-5.29041e-06
-4.55317e-06
-3.91039e-06
-3.3497e-06
-2.86029e-06
-2.43271e-06
-2.05867e-06
-1.73088e-06
-1.4429e-06
-1.18899e-06
-9.64033e-07
-7.63433e-07
-5.82998e-07
-4.18858e-07
-2.67346e-07
-1.27058e-07
0.000337186
0.000294959
0.000248195
0.000197983
0.000145962
9.42279e-05
4.46801e-05
-1.30045e-06
-4.2867e-05
-7.9614e-05
-0.000111477
-0.000138634
-0.000161421
-0.000180249
-0.00019555
-0.000207742
-0.000217206
-0.000224275
-0.00022923
-0.000232302
-0.000233677
-0.000233498
-0.000231872
-0.000228882
-0.00022459
-0.000219053
-0.000212328
-0.000204486
-0.00019562
-0.000185852
-0.000175332
-0.000164241
-0.000152779
-0.000141156
-0.000129573
-0.000118217
-0.000107245
-9.67837e-05
-8.69249e-05
-7.77301e-05
-6.9233e-05
-6.14437e-05
-5.43543e-05
-4.79425e-05
-4.21761e-05
-3.70161e-05
-3.24195e-05
-2.83409e-05
-2.47349e-05
-2.15567e-05
-1.8763e-05
-1.6313e-05
-1.41686e-05
-1.22945e-05
-1.06587e-05
-9.23197e-06
-7.98846e-06
-6.90496e-06
-5.96101e-06
-5.1386e-06
-4.42196e-06
-3.79728e-06
-3.25253e-06
-2.77716e-06
-2.36196e-06
-1.99885e-06
-1.68072e-06
-1.40129e-06
-1.15497e-06
-9.36769e-07
-7.42204e-07
-5.67172e-07
-4.07861e-07
-2.60632e-07
-1.23698e-07
0.000310588
0.000272466
0.000230465
0.000185407
0.000138594
9.17743e-05
4.65943e-05
4.29867e-06
-3.43007e-05
-6.87626e-05
-9.89424e-05
-0.000124919
-0.000146924
-0.000165273
-0.000180322
-0.000192423
-0.000201911
-0.000209084
-0.000214202
-0.00021748
-0.000219098
-0.000219196
-0.000217884
-0.000215249
-0.000211362
-0.000206285
-0.00020008
-0.000192824
-0.000184608
-0.000175547
-0.000165784
-0.000155483
-0.000144826
-0.000134002
-0.000123195
-0.000112575
-0.000102289
-9.24557e-05
-8.31634e-05
-7.44737e-05
-6.64223e-05
-5.90234e-05
-5.22734e-05
-4.61554e-05
-4.06422e-05
-3.56996e-05
-3.12892e-05
-2.73699e-05
-2.39e-05
-2.08378e-05
-1.81433e-05
-1.5778e-05
-1.37061e-05
-1.18942e-05
-1.03118e-05
-8.93122e-06
-7.72763e-06
-6.67879e-06
-5.76504e-06
-4.96901e-06
-4.27547e-06
-3.67106e-06
-3.14412e-06
-2.68441e-06
-2.28301e-06
-1.93206e-06
-1.62466e-06
-1.35472e-06
-1.11681e-06
-9.06102e-07
-7.18217e-07
-5.49168e-07
-3.95225e-07
-2.52817e-07
-1.1964e-07
0.000272393
0.000239943
0.000204442
0.000166415
0.00012676
8.67916e-05
4.78158e-05
1.08777e-05
-2.32855e-05
-5.4214e-05
-8.1683e-05
-0.000105657
-0.000126241
-0.000143631
-0.000158077
-0.000169845
-0.0001792
-0.000186391
-0.000191639
-0.000195138
-0.000197052
-0.000197516
-0.000196639
-0.000194514
-0.000191217
-0.000186817
-0.000181384
-0.000174996
-0.000167741
-0.000159728
-0.000151082
-0.000141946
-0.000132479
-0.00012284
-0.000113188
-0.000103672
-9.4421e-05
-8.55416e-05
-7.71174e-05
-6.92081e-05
-6.18513e-05
-5.50656e-05
-4.88534e-05
-4.32043e-05
-3.80981e-05
-3.35078e-05
-2.94013e-05
-2.57435e-05
-2.24983e-05
-1.96292e-05
-1.71002e-05
-1.48771e-05
-1.29273e-05
-1.12205e-05
-9.72865e-06
-8.4263e-06
-7.2904e-06
-6.30033e-06
-5.43769e-06
-4.68623e-06
-4.03162e-06
-3.46128e-06
-2.96418e-06
-2.53065e-06
-2.15224e-06
-1.8215e-06
-1.53191e-06
-1.27767e-06
-1.05366e-06
-8.55293e-07
-6.78419e-07
-5.19236e-07
-3.7417e-07
-2.39823e-07
-1.12963e-07
0.000224694
0.000198782
0.000170648
0.000140577
0.000109124
7.71948e-05
4.57379e-05
1.55537e-05
-1.27518e-05
-3.87571e-05
-6.2206e-05
-8.29856e-05
-0.000101098
-0.000116629
-0.000129722
-0.000140548
-0.000149292
-0.000156138
-0.000161259
-0.000164811
-0.000166932
-0.000167743
-0.000167346
-0.000165829
-0.000163269
-0.000159738
-0.000155308
-0.000150051
-0.000144053
-0.000137406
-0.000130219
-0.000122608
-0.0001147
-0.000106626
-9.85135e-05
-9.04829e-05
-8.26415e-05
-7.50804e-05
-6.78728e-05
-6.10732e-05
-5.47188e-05
-4.88309e-05
-4.34172e-05
-3.8474e-05
-3.39889e-05
-2.99424e-05
-2.63106e-05
-2.3066e-05
-2.01796e-05
-1.76214e-05
-1.53617e-05
-1.33715e-05
-1.16232e-05
-1.00906e-05
-8.74971e-06
-7.57815e-06
-6.55577e-06
-5.66436e-06
-4.88761e-06
-4.21103e-06
-3.62179e-06
-3.1086e-06
-2.66151e-06
-2.2718e-06
-1.93182e-06
-1.63484e-06
-1.37494e-06
-1.14688e-06
-9.46012e-07
-7.68186e-07
-6.09634e-07
-4.66893e-07
-3.3669e-07
-2.159e-07
-1.01294e-07
0.00017706
0.000157268
0.000135932
0.000113181
8.93377e-05
6.49965e-05
4.08113e-05
1.7356e-05
-4.90924e-06
-2.5637e-05
-4.45866e-05
-6.16162e-05
-7.66699e-05
-8.97599e-05
-0.000100949
-0.000110333
-0.000118027
-0.000124155
-0.000128839
-0.000132198
-0.00013434
-0.000135364
-0.000135356
-0.000134395
-0.000132552
-0.000129894
-0.000126486
-0.000122395
-0.000117695
-0.000112463
-0.000106787
-0.000100758
-9.44773e-05
-8.80438e-05
-8.15569e-05
-7.51104e-05
-6.87892e-05
-6.26668e-05
-5.68036e-05
-5.12469e-05
-4.60301e-05
-4.11749e-05
-3.66916e-05
-3.25815e-05
-2.8838e-05
-2.54487e-05
-2.23968e-05
-1.96621e-05
-1.72226e-05
-1.50551e-05
-1.31362e-05
-1.14428e-05
-9.95265e-06
-8.64445e-06
-7.49837e-06
-6.49603e-06
-5.62062e-06
-4.85689e-06
-4.19112e-06
-3.61106e-06
-3.10583e-06
-2.66581e-06
-2.2825e-06
-1.94844e-06
-1.65706e-06
-1.4026e-06
-1.17995e-06
-9.84634e-07
-8.12642e-07
-6.60395e-07
-5.24649e-07
-4.02409e-07
-2.9083e-07
-1.87165e-07
-8.8316e-08
0.000128979
0.00011493
9.98728e-05
8.38515e-05
6.70391e-05
4.98045e-05
3.25684e-05
1.57121e-05
-4.45033e-07
-1.56471e-05
-2.97012e-05
-4.24768e-05
-5.39009e-05
-6.39497e-05
-7.26383e-05
-8.00105e-05
-8.61293e-05
-9.10692e-05
-9.49098e-05
-9.77312e-05
-9.96105e-05
-0.00010062
-0.000100828
-0.000100294
-9.90782e-05
-9.7234e-05
-9.48156e-05
-9.18775e-05
-8.84769e-05
-8.46744e-05
-8.05347e-05
-7.61262e-05
-7.15204e-05
-6.67895e-05
-6.20047e-05
-5.72337e-05
-5.25385e-05
-4.79734e-05
-4.35844e-05
-3.9408e-05
-3.54716e-05
-3.17937e-05
-2.83847e-05
-2.52483e-05
-2.23821e-05
-1.97788e-05
-1.74279e-05
-1.53157e-05
-1.34269e-05
-1.17451e-05
-1.02533e-05
-8.93466e-06
-7.77261e-06
-6.7513e-06
-5.85576e-06
-5.07202e-06
-4.38725e-06
-3.78973e-06
-3.26887e-06
-2.81517e-06
-2.42015e-06
-2.07628e-06
-1.77691e-06
-1.51618e-06
-1.28893e-06
-1.0906e-06
-9.17185e-07
-7.65145e-07
-6.31329e-07
-5.12916e-07
-4.07352e-07
-3.12283e-07
-2.25485e-07
-1.44864e-07
-6.82677e-08
7.94662e-05
7.09873e-05
6.19436e-05
5.23406e-05
4.22596e-05
3.18996e-05
2.14947e-05
1.12609e-05
1.38414e-06
-7.98031e-06
-1.67094e-05
-2.47132e-05
-3.19342e-05
-3.83436e-05
-4.3937e-05
-4.87285e-05
-5.27462e-05
-5.60276e-05
-5.86154e-05
-6.05548e-05
-6.18911e-05
-6.26684e-05
-6.29287e-05
-6.27116e-05
-6.20548e-05
-6.09946e-05
-5.95666e-05
-5.78066e-05
-5.57517e-05
-5.34406e-05
-5.09136e-05
-4.82133e-05
-4.53833e-05
-4.24675e-05
-3.95094e-05
-3.65501e-05
-3.36279e-05
-3.07766e-05
-2.80253e-05
-2.53977e-05
-2.29119e-05
-2.0581e-05
-1.84129e-05
-1.64113e-05
-1.45762e-05
-1.29044e-05
-1.13901e-05
-1.00258e-05
-8.8027e-06
-7.71099e-06
-6.74046e-06
-5.88077e-06
-5.1217e-06
-4.45337e-06
-3.86637e-06
-3.3519e-06
-2.90177e-06
-2.50851e-06
-2.16532e-06
-1.86608e-06
-1.6053e-06
-1.37811e-06
-1.18019e-06
-1.0077e-06
-8.57274e-07
-7.25936e-07
-6.11058e-07
-5.10311e-07
-4.21626e-07
-3.4315e-07
-2.73205e-07
-2.10251e-07
-1.52834e-07
-9.95263e-08
-4.83863e-08
2.69781e-05
2.40836e-05
2.1009e-05
1.77526e-05
1.43379e-05
1.08285e-05
7.3002e-06
3.82344e-06
4.59632e-07
-2.73904e-06
-5.73017e-06
-8.48176e-06
-1.09723e-05
-1.31896e-05
-1.51301e-05
-1.67963e-05
-1.81963e-05
-1.93413e-05
-2.0245e-05
-2.09222e-05
-2.13884e-05
-2.16587e-05
-2.17478e-05
-2.167e-05
-2.14389e-05
-2.10676e-05
-2.05692e-05
-1.99568e-05