/*--------------------------------*- C++ -*----------------------------------*\
| =========                 |                                                 |
| \\      /  F ield         | OpenFOAM: The Open Source CFD Toolbox           |
|  \\    /   O peration     | Version:  2.3.0                                 |
|   \\  /    A nd           | Web:      www.OpenFOAM.org                      |
|    \\/     M anipulation  |                                                 |
\*---------------------------------------------------------------------------*/
FoamFile
{
    version     2.0;
    format      ascii;
    class       surfaceScalarField;
    location    "0.15";
    object      phi;
}
// * * * * * * * * * * * * * * * * * * * * * * * * * * * * * * * * * * * * * //

dimensions      [0 3 -1 0 0 0 0];

internalField   nonuniform List<scalar> 
5764
(
1.94183e-08
4.2975e-09
-2.37158e-08
1.56413e-08
3.77703e-09
1.25456e-08
3.09563e-09
1.01189e-08
2.42672e-09
8.2979e-09
1.82102e-09
6.98046e-09
1.31744e-09
6.0481e-09
9.32361e-10
5.38956e-09
6.58534e-10
4.91499e-09
4.74571e-10
4.55972e-09
3.55276e-10
4.2813e-09
2.7842e-10
4.05373e-09
2.27573e-10
3.86166e-09
1.92068e-10
3.69604e-09
1.65613e-10
3.55133e-09
1.44715e-10
3.42385e-09
1.27478e-10
3.31101e-09
1.12845e-10
3.21083e-09
1.00175e-10
3.12179e-09
8.90408e-11
3.04266e-09
7.91253e-11
2.97249e-09
7.0175e-11
2.91052e-09
6.19719e-11
2.8562e-09
5.43153e-11
2.80919e-09
4.70127e-11
2.76931e-09
3.98815e-11
2.73655e-09
3.27616e-11
2.71101e-09
2.55333e-11
2.69288e-09
1.81281e-11
2.68246e-09
1.04281e-11
2.67986e-09
2.59248e-12
2.68345e-09
-3.58829e-12
2.69104e-09
-7.59293e-12
2.70109e-09
-1.00449e-11
2.71233e-09
-1.1239e-11
2.72379e-09
-1.1458e-11
2.7348e-09
-1.10154e-11
2.74499e-09
-1.01831e-11
2.75415e-09
-9.16576e-12
2.76225e-09
-8.10146e-12
2.76933e-09
-7.07294e-12
2.77545e-09
-6.12365e-12
2.78072e-09
-5.27183e-12
2.78524e-09
-4.52088e-12
2.78911e-09
-3.8664e-12
2.79241e-09
-3.30042e-12
2.79522e-09
-2.81379e-12
2.79762e-09
-2.39739e-12
2.79966e-09
-2.04261e-12
2.8014e-09
-1.74153e-12
2.80289e-09
-1.48696e-12
2.80416e-09
-1.27236e-12
2.80526e-09
-1.09186e-12
2.8062e-09
-9.40169e-13
2.80701e-09
-8.126e-13
2.80771e-09
-7.05045e-13
2.80833e-09
-6.13966e-13
2.80886e-09
-5.3638e-13
2.80933e-09
-4.698e-13
2.80975e-09
-4.1221e-13
2.81011e-09
-3.61998e-13
2.81043e-09
-3.17886e-13
2.8107e-09
-2.78884e-13
2.81095e-09
-2.44213e-13
2.81116e-09
-2.13263e-13
2.81135e-09
-1.85547e-13
2.81151e-09
-1.60663e-13
2.81165e-09
-1.38261e-13
2.81176e-09
-1.18045e-13
2.81186e-09
-9.97215e-14
2.81195e-09
-8.30226e-14
2.81201e-09
-6.76614e-14
2.81207e-09
-5.33108e-14
2.81211e-09
-3.96292e-14
2.81213e-09
-2.66062e-14
-1.97794e-14
2.58105e-08
5.21553e-09
-2.67285e-08
2.43792e-08
5.20829e-09
2.27399e-08
4.73492e-09
2.10718e-08
4.09481e-09
1.94832e-08
3.4096e-09
1.80339e-08
2.76681e-09
1.67463e-08
2.2199e-09
1.56203e-08
1.78458e-09
1.46434e-08
1.4514e-09
1.37984e-08
1.20032e-09
1.30665e-08
1.01029e-09
1.24303e-08
8.63811e-10
1.18743e-08
7.48031e-10
1.13858e-08
6.54132e-10
1.09543e-08
5.76207e-10
1.05715e-08
5.10267e-10
1.02308e-08
4.53528e-10
9.92705e-09
4.03965e-10
9.65605e-09
3.60047e-10
9.4146e-09
3.20574e-10
9.2002e-09
2.84571e-10
9.01096e-09
2.51214e-10
8.84549e-09
2.19789e-10
8.70283e-09
1.89665e-10
8.5824e-09
1.60319e-10
8.48378e-09
1.31373e-10
8.40666e-09
1.02656e-10
8.35053e-09
7.42589e-11
8.31449e-09
4.64722e-11
8.29763e-09
1.94537e-11
8.29771e-09
-3.67409e-12
8.30974e-09
-1.96264e-11
8.32884e-09
-2.91455e-11
8.3517e-09
-3.40916e-11
8.37591e-09
-3.5666e-11
8.39982e-09
-3.49314e-11
8.42241e-09
-3.27725e-11
8.4431e-09
-2.98596e-11
8.46166e-09
-2.66576e-11
8.47805e-09
-2.346e-11
8.49236e-09
-2.04351e-11
8.50476e-09
-1.76674e-11
8.51542e-09
-1.51895e-11
8.52456e-09
-1.30039e-11
8.53236e-09
-1.10973e-11
8.53899e-09
-9.44853e-12
8.54463e-09
-8.03322e-12
8.54941e-09
-6.82636e-12
8.55347e-09
-5.80336e-12
8.55693e-09
-4.9407e-12
8.55987e-09
-4.21627e-12
8.56239e-09
-3.60967e-12
8.56455e-09
-3.10231e-12
8.56642e-09
-2.67763e-12
8.56803e-09
-2.3211e-12
8.56944e-09
-2.0203e-12
8.57067e-09
-1.76477e-12
8.57174e-09
-1.54596e-12
8.57269e-09
-1.35693e-12
8.57352e-09
-1.19224e-12
8.57425e-09
-1.04761e-12
8.57489e-09
-9.19733e-13
8.57545e-09
-8.06042e-13
8.57594e-09
-7.04535e-13
8.57637e-09
-6.13611e-13
8.57674e-09
-5.31951e-13
8.57706e-09
-4.58424e-13
8.57734e-09
-3.92037e-13
8.57757e-09
-3.31853e-13
8.57776e-09
-2.76974e-13
8.57792e-09
-2.26463e-13
8.57805e-09
-1.79246e-13
8.57814e-09
-1.34116e-13
8.57821e-09
-9.04947e-14
-5.49475e-14
2.80945e-08
5.19398e-09
-2.8073e-08
2.77953e-08
5.50751e-09
2.72255e-08
5.30477e-09
2.64663e-08
4.85398e-09
2.55929e-08
4.28304e-09
2.46693e-08
3.69032e-09
2.37423e-08
3.14692e-09
2.28411e-08
2.68578e-09
2.19822e-08
2.31031e-09
2.11736e-08
2.00892e-09
2.04182e-08
1.76574e-09
1.97158e-08
1.56619e-09
1.90649e-08
1.39893e-09
1.84632e-08
1.25585e-09
1.79081e-08
1.1313e-09
1.73971e-08
1.0213e-09
1.69277e-08
9.22919e-10
1.64977e-08
8.33934e-10
1.61052e-08
7.52548e-10
1.57485e-08
6.77266e-10
1.54263e-08
6.06794e-10
1.51375e-08
5.39989e-10
1.48815e-08
4.7583e-10
1.46577e-08
4.13436e-10
1.44659e-08
3.5213e-10
1.43057e-08
2.91546e-10
1.41766e-08
2.3174e-10
1.40776e-08
1.73315e-10
1.40065e-08
1.17544e-10
1.39599e-08
6.60689e-11
1.3936e-08
2.01692e-11
1.39325e-08
-1.61318e-11
1.39434e-08
-4.00129e-11
1.39632e-08
-5.39197e-11
1.39881e-08
-6.0557e-11
1.40153e-08
-6.2077e-11
1.40427e-08
-6.02198e-11
1.40692e-08
-5.63302e-11
1.40939e-08
-5.13798e-11
1.41165e-08
-4.60238e-11
1.41367e-08
-4.06763e-11
1.41546e-08
-3.55819e-11
1.41703e-08
-3.08726e-11
1.41839e-08
-2.66095e-11
1.41956e-08
-2.28105e-11
1.42057e-08
-1.94678e-11
1.42142e-08
-1.65587e-11
1.42214e-08
-1.40519e-11
1.42275e-08
-1.19113e-11
1.42327e-08
-1.00979e-11
1.4237e-08
-8.57251e-12
1.42407e-08
-7.29631e-12
1.42438e-08
-6.23243e-12
1.42465e-08
-5.34676e-12
1.42488e-08
-4.60862e-12
1.42508e-08
-3.99114e-12
1.42525e-08
-3.47147e-12
1.4254e-08
-3.03062e-12
1.42553e-08
-2.65317e-12
1.42564e-08
-2.32692e-12
1.42574e-08
-2.04233e-12
1.42583e-08
-1.79205e-12
1.4259e-08
-1.57045e-12
1.42597e-08
-1.37318e-12
1.42603e-08
-1.19682e-12
1.42608e-08
-1.03863e-12
1.42612e-08
-8.96313e-13
1.42616e-08
-7.67871e-13
1.42619e-08
-6.51475e-13
1.42622e-08
-5.4538e-13
1.42624e-08
-4.47791e-13
1.42626e-08
-3.56662e-13
1.42627e-08
-2.69562e-13
1.42628e-08
-1.84306e-13
-1.01852e-13
2.93659e-08
4.92934e-09
-2.91012e-08
2.94966e-08
5.37677e-09
2.94516e-08
5.34975e-09
2.92411e-08
5.06454e-09
2.88911e-08
4.63305e-09
2.84383e-08
4.14311e-09
2.79192e-08
3.66602e-09
2.7363e-08
3.24192e-09
2.67907e-08
2.88265e-09
2.6216e-08
2.58362e-09
2.56478e-08
2.33393e-09
2.50918e-08
2.12219e-09
2.45518e-08
1.93896e-09
2.40304e-08
1.77721e-09
2.35298e-08
1.63193e-09
2.30515e-08
1.49955e-09
2.2597e-08
1.37741e-09
2.21675e-08
1.26348e-09
2.1764e-08
1.15607e-09
2.13875e-08
1.05376e-09
2.1039e-08
9.5526e-10
2.07196e-08
8.59431e-10
2.04302e-08
7.65242e-10
2.01717e-08
6.7186e-10
1.99451e-08
5.78756e-10
1.97508e-08
4.85872e-10
1.95887e-08
3.9379e-10
1.94582e-08
3.03886e-10
1.93573e-08
2.18433e-10
1.92829e-08
1.40457e-10
1.92304e-08
7.26085e-11
1.91986e-08
1.5666e-11
1.91863e-08
-2.76739e-11
1.91885e-08
-5.61107e-11
1.92007e-08
-7.28064e-11
1.92195e-08
-8.08662e-11
1.92422e-08
-8.28329e-11
1.92666e-08
-8.07393e-11
1.92913e-08
-7.61258e-11
1.93154e-08
-7.00983e-11
1.93381e-08
-6.34161e-11
1.93591e-08
-5.65811e-11
1.93782e-08
-4.99139e-11
1.93952e-08
-4.36123e-11
1.94101e-08
-3.77918e-11
1.94232e-08
-3.25134e-11
1.94344e-08
-2.78011e-11
1.9444e-08
-2.36526e-11
1.94522e-08
-2.00474e-11
1.9459e-08
-1.69511e-11
1.94648e-08
-1.43205e-11
1.94696e-08
-1.21061e-11
1.94736e-08
-1.02562e-11
1.9477e-08
-8.7189e-12
1.94798e-08
-7.44484e-12
1.94822e-08
-6.38869e-12
1.94842e-08
-5.51034e-12
1.9486e-08
-4.77544e-12
1.94875e-08
-4.1554e-12
1.94888e-08
-3.62714e-12
1.94899e-08
-3.17239e-12
1.94909e-08
-2.777e-12
1.94918e-08
-2.43012e-12
1.94925e-08
-2.1235e-12
1.94932e-08
-1.85079e-12
1.94937e-08
-1.60704e-12
1.94942e-08
-1.38825e-12
1.94947e-08
-1.19107e-12
1.9495e-08
-1.01257e-12
1.94953e-08
-8.49994e-13
1.94956e-08
-7.00594e-13
1.94958e-08
-5.61289e-13
1.94959e-08
-4.28278e-13
1.94961e-08
-2.96838e-13
-1.553e-13
3.03783e-08
4.62928e-09
-3.00782e-08
3.06402e-08
5.11488e-09
3.08055e-08
5.18448e-09
3.08595e-08
5.01053e-09
3.08024e-08
4.69013e-09
3.06486e-08
4.29694e-09
3.04198e-08
3.89475e-09
3.01376e-08
3.5241e-09
2.98193e-08
3.201e-09
2.94774e-08
2.92555e-09
2.91206e-08
2.69069e-09
2.87551e-08
2.4877e-09
2.83853e-08
2.30878e-09
2.80147e-08
2.14784e-09
2.76462e-08
2.00036e-09
2.72827e-08
1.86306e-09
2.69266e-08
1.73349e-09
2.65804e-08
1.60971e-09
2.62463e-08
1.49014e-09
2.59267e-08
1.37339e-09
2.56237e-08
1.25824e-09
2.53396e-08
1.14357e-09
2.50764e-08
1.02846e-09
2.4836e-08
9.12218e-10
2.46202e-08
7.9458e-10
2.44301e-08
6.75912e-10
2.42665e-08
5.57401e-10
2.41292e-08
4.41204e-10
2.40172e-08
3.30468e-10
2.39286e-08
2.29077e-10
2.38604e-08
1.40757e-10
2.38089e-08
6.71351e-11
2.37735e-08
7.79705e-12
2.37538e-08
-3.64244e-11
2.37467e-08
-6.57332e-11
2.37493e-08
-8.34504e-11
2.37589e-08
-9.24893e-11
2.37735e-08
-9.52914e-11
2.37912e-08
-9.37972e-11
2.38106e-08
-8.94793e-11
2.38306e-08
-8.34156e-11
2.38503e-08
-7.63766e-11
2.38693e-08
-6.89053e-11
2.38871e-08
-6.13817e-11
2.39034e-08
-5.40702e-11
2.3918e-08
-4.71525e-11
2.3931e-08
-4.07496e-11
2.39423e-08
-3.49355e-11
2.3952e-08
-2.97468e-11
2.39602e-08
-2.51899e-11
2.39671e-08
-2.12467e-11
2.39729e-08
-1.78804e-11
2.39777e-08
-1.50405e-11
2.39816e-08
-1.26684e-11
2.39849e-08
-1.07019e-11
2.39876e-08
-9.079e-12
2.39898e-08
-7.74162e-12
2.39917e-08
-6.63722e-12
2.39932e-08
-5.72031e-12
2.39946e-08
-4.95285e-12
2.39957e-08
-4.30391e-12
2.39967e-08
-3.74906e-12
2.39975e-08
-3.26939e-12
2.39982e-08
-2.85045e-12
2.39989e-08
-2.48128e-12
2.39994e-08
-2.15354e-12
2.39999e-08
-1.86071e-12
2.40003e-08
-1.5976e-12
2.40006e-08
-1.35984e-12
2.40009e-08
-1.14352e-12
2.40012e-08
-9.44917e-13
2.40014e-08
-7.59945e-13
2.40015e-08
-5.83497e-13
2.40016e-08
-4.07918e-13
-2.04712e-13
3.13419e-08
4.34961e-09
-3.10622e-08
3.16256e-08
4.83118e-09
3.18566e-08
4.95344e-09
3.2016e-08
4.85109e-09
3.20961e-08
4.61006e-09
3.21002e-08
4.29289e-09
3.20402e-08
3.95467e-09
3.19308e-08
3.63353e-09
3.17847e-08
3.34713e-09
3.16117e-08
3.09857e-09
3.14188e-08
2.8836e-09
3.12108e-08
2.69564e-09
3.09914e-08
2.5282e-09
3.07633e-08
2.37595e-09
3.05289e-08
2.23475e-09
3.02905e-08
2.10146e-09
3.00503e-08
1.97369e-09
2.98105e-08
1.84952e-09
2.95733e-08
1.72733e-09
2.9341e-08
1.60572e-09
2.91157e-08
1.48346e-09
2.88999e-08
1.35943e-09
2.86956e-08
1.23276e-09
2.85049e-08
1.10291e-09
2.83296e-08
9.6984e-10
2.81713e-08
8.34295e-10
2.80307e-08
6.97955e-10
2.79083e-08
5.6357e-10
2.78039e-08
4.34897e-10
2.77167e-08
3.16323e-10
2.76454e-08
2.12003e-10
2.75881e-08
1.24474e-10
2.75423e-08
5.35738e-11
2.75079e-08
-2.06607e-12
2.74851e-08
-4.28462e-11
2.7472e-08
-7.03795e-11
2.7467e-08
-8.75255e-11
2.74685e-08
-9.68002e-11
2.7475e-08
-1.00276e-10
2.74851e-08
-9.95915e-11
2.74977e-08
-9.60072e-11
2.75118e-08
-9.04719e-11
2.75266e-08
-8.36978e-11
2.75414e-08
-7.62215e-11
2.75558e-08
-6.84506e-11
2.75694e-08
-6.06968e-11
2.75818e-08
-5.31971e-11
2.7593e-08
-4.61278e-11
2.76029e-08
-3.96131e-11
2.76114e-08
-3.37313e-11
2.76187e-08
-2.85203e-11
2.76248e-08
-2.39836e-11
2.76298e-08
-2.00966e-11
2.7634e-08
-1.68132e-11
2.76374e-08
-1.4073e-11
2.76401e-08
-1.18078e-11
2.76423e-08
-9.94714e-12
2.76441e-08
-8.4233e-12
2.76455e-08
-7.17418e-12
2.76467e-08
-6.1455e-12
2.76477e-08
-5.29157e-12
2.76485e-08
-4.57522e-12
2.76492e-08
-3.96702e-12
2.76498e-08
-3.44424e-12
2.76503e-08
-2.9896e-12
2.76508e-08
-2.59002e-12
2.76512e-08
-2.23559e-12
2.76515e-08
-1.91864e-12
2.76517e-08
-1.63303e-12
2.7652e-08
-1.37356e-12
2.76522e-08
-1.13546e-12
2.76523e-08
-9.13763e-13
2.76524e-08
-7.02297e-13
2.76525e-08
-4.90835e-13
-2.35386e-13
3.23145e-08
4.10079e-09
-3.20657e-08
3.25855e-08
4.56022e-09
3.28262e-08
4.71277e-09
3.30178e-08
4.65947e-09
3.31518e-08
4.47606e-09
3.32277e-08
4.21698e-09
3.32526e-08
3.92977e-09
3.32368e-08
3.64937e-09
3.31899e-08
3.39397e-09
3.31198e-08
3.16872e-09
3.30318e-08
2.97158e-09
3.29297e-08
2.7977e-09
3.28162e-08
2.64179e-09
3.2693e-08
2.49915e-09
3.25617e-08
2.36598e-09
3.24239e-08
2.23927e-09
3.2281e-08
2.11662e-09
3.21344e-08
1.99608e-09
3.19858e-08
1.87595e-09
3.18368e-08
1.75479e-09
3.16889e-08
1.63128e-09
3.15441e-08
1.50431e-09
3.14038e-08
1.373e-09
3.12698e-08
1.23691e-09
3.11435e-08
1.09617e-09
3.1026e-08
9.51766e-10
3.09183e-08
8.05681e-10
3.08208e-08
6.61009e-10
3.07339e-08
5.21814e-10
3.06576e-08
3.92687e-10
3.05917e-08
2.77908e-10
3.05358e-08
1.80313e-10
3.04888e-08
1.00574e-10
3.04496e-08
3.71655e-11
3.04184e-08
-1.16197e-11
3.03951e-08
-4.71515e-11
3.03791e-08
-7.15062e-11
3.03694e-08
-8.70711e-11
3.0365e-08
-9.58699e-11
3.03649e-08
-9.95485e-11
3.03683e-08
-9.94108e-11
3.03743e-08
-9.64756e-11
3.03822e-08
-9.1538e-11
3.03912e-08
-8.52254e-11
3.04008e-08
-7.80408e-11
3.04105e-08
-7.03931e-11
3.04199e-08
-6.26163e-11
3.04287e-08
-5.49808e-11
3.04368e-08
-4.76991e-11
3.0444e-08
-4.09298e-11
3.04503e-08
-3.47805e-11
3.04556e-08
-2.93119e-11
3.04601e-08
-2.45427e-11
3.04637e-08
-2.04573e-11
3.04666e-08
-1.70129e-11
3.0469e-08
-1.41483e-11
3.04708e-08
-1.17916e-11
3.04723e-08
-9.8675e-12
3.04734e-08
-8.3024e-12
3.04743e-08
-7.02889e-12
3.0475e-08
-5.98794e-12
3.04755e-08
-5.12993e-12
3.0476e-08
-4.41464e-12
3.04764e-08
-3.81039e-12
3.04767e-08
-3.29281e-12
3.04769e-08
-2.84349e-12
3.04771e-08
-2.44856e-12
3.04773e-08
-2.09755e-12
3.04775e-08
-1.78236e-12
3.04776e-08
-1.4964e-12
3.04777e-08
-1.23394e-12
3.04777e-08
-9.89303e-13
3.04778e-08
-7.55591e-13
3.04778e-08
-5.21e-13
-2.32975e-13
3.33113e-08
3.88126e-09
-3.30918e-08
3.35607e-08
4.3108e-09
3.37923e-08
4.48116e-09
3.39874e-08
4.46436e-09
3.4138e-08
4.32553e-09
3.42423e-08
4.11261e-09
3.43053e-08
3.86684e-09
3.43347e-08
3.61992e-09
3.43387e-08
3.39001e-09
3.43236e-08
3.18375e-09
3.42943e-08
3.00093e-09
3.42538e-08
2.83823e-09
3.42041e-08
2.69147e-09
3.41466e-08
2.55661e-09
3.40824e-08
2.43022e-09
3.40122e-08
2.30944e-09
3.39369e-08
2.19192e-09
3.38573e-08
2.07567e-09
3.37743e-08
1.95898e-09
3.36888e-08
1.8403e-09
3.36017e-08
1.71831e-09
3.35142e-08
1.59184e-09
3.34271e-08
1.46006e-09
3.33415e-08
1.32254e-09
3.32582e-08
1.17952e-09
3.31778e-08
1.0321e-09
3.31011e-08
8.82404e-10
3.30285e-08
7.33625e-10
3.29604e-08
5.89877e-10
3.28974e-08
4.55714e-10
3.284e-08
3.35346e-10
3.27886e-08
2.31677e-10
3.27434e-08
1.45718e-10
3.2704e-08
7.66485e-11
3.26699e-08
2.24687e-11
3.26415e-08
-1.87851e-11
3.26188e-08
-4.88042e-11
3.26014e-08
-6.96394e-11
3.25887e-08
-8.31929e-11
3.25802e-08
-9.10435e-11
3.25752e-08
-9.44668e-11
3.25733e-08
-9.44819e-11
3.25736e-08
-9.19046e-11
3.25758e-08
-8.73974e-11
3.25793e-08
-8.15096e-11
3.25836e-08
-7.47051e-11
3.25883e-08
-6.73799e-11
3.25932e-08
-5.98707e-11
3.2598e-08
-5.24584e-11
3.26024e-08
-4.53687e-11
3.26064e-08
-3.87724e-11
3.26099e-08
-3.27861e-11
3.26128e-08
-2.74763e-11
3.26152e-08
-2.28642e-11
3.26172e-08
-1.89339e-11
3.26186e-08
-1.5641e-11
3.26198e-08
-1.29216e-11
3.26206e-08
-1.07013e-11
3.26212e-08
-8.90261e-12
3.26216e-08
-7.4508e-12
3.26219e-08
-6.27793e-12
3.26221e-08
-5.32519e-12
3.26222e-08
-4.54371e-12
3.26223e-08
-3.8943e-12
3.26224e-08
-3.34643e-12
3.26224e-08
-2.87685e-12
3.26224e-08
-2.4681e-12
3.26224e-08
-2.10714e-12
3.26224e-08
-1.78407e-12
3.26224e-08
-1.49113e-12
3.26224e-08
-1.22184e-12
3.26224e-08
-9.7003e-13
3.26224e-08
-7.28529e-13
3.26223e-08
-4.85219e-13
-1.88633e-13
3.43358e-08
3.68703e-09
-3.41416e-08
3.45628e-08
4.08382e-09
3.47802e-08
4.26383e-09
3.4969e-08
4.27552e-09
3.51214e-08
4.1731e-09
3.52354e-08
3.99866e-09
3.53141e-08
3.78811e-09
3.5364e-08
3.56997e-09
3.53921e-08
3.36193e-09
3.54042e-08
3.17172e-09
3.54044e-08
3.00064e-09
3.53959e-08
2.84675e-09
3.53805e-08
2.70691e-09
3.53593e-08
2.57778e-09
3.53332e-08
2.45635e-09
3.53026e-08
2.33998e-09
3.52681e-08
2.22642e-09
3.52301e-08
2.11374e-09
3.51888e-08
2.00021e-09
3.51448e-08
1.88431e-09
3.50985e-08
1.76467e-09
3.50502e-08
1.64015e-09
3.50003e-08
1.50993e-09
3.49492e-08
1.37362e-09
3.48972e-08
1.23152e-09
3.48446e-08
1.08473e-09
3.47916e-08
9.35396e-10
3.47386e-08
7.86644e-10
3.4686e-08
6.42449e-10
3.46346e-08
5.07162e-10
3.45851e-08
3.84795e-10
3.45386e-08
2.78194e-10
3.44958e-08
1.88538e-10
3.4457e-08
1.15396e-10
3.44223e-08
5.72352e-11
3.43915e-08
1.19509e-11
3.43651e-08
-2.23529e-11
3.43428e-08
-4.73971e-11
3.43246e-08
-6.4921e-11
3.43099e-08
-7.64147e-11
3.42986e-08
-8.31017e-11
3.42901e-08
-8.59744e-11
3.4284e-08
-8.58411e-11
3.428e-08
-8.33703e-11
3.42776e-08
-7.9128e-11
3.42765e-08
-7.36035e-11
3.42763e-08
-6.72258e-11
3.42768e-08
-6.03708e-11
3.42777e-08
-5.33631e-11
3.42788e-08
-4.64746e-11
3.428e-08
-3.99221e-11
3.42811e-08
-3.38667e-11
3.4282e-08
-2.84145e-11
3.42828e-08
-2.36209e-11
3.42833e-08
-1.9497e-11
3.42837e-08
-1.60183e-11
3.42839e-08
-1.31342e-11
3.4284e-08
-1.07775e-11
3.4284e-08
-8.8729e-12
3.42839e-08
-7.3446e-12
3.42837e-08
-6.12123e-12
3.42835e-08
-5.13938e-12
3.42833e-08
-4.34529e-12
3.42831e-08
-3.69511e-12
3.42829e-08
-3.1543e-12
3.42827e-08
-2.69636e-12
3.42826e-08
-2.30138e-12
3.42824e-08
-1.95454e-12
3.42823e-08
-1.64475e-12
3.42822e-08
-1.36351e-12
3.4282e-08
-1.10391e-12
3.42819e-08
-8.59665e-13
3.42818e-08
-6.23763e-13
3.42817e-08
-3.84977e-13
-1.01289e-13
3.53893e-08
3.51415e-09
-3.52164e-08
3.55952e-08
3.87794e-09
3.57973e-08
4.06168e-09
3.5977e-08
4.09581e-09
3.61262e-08
4.02393e-09
3.62423e-08
3.88259e-09
3.63274e-08
3.70301e-09
3.63867e-08
3.51065e-09
3.64262e-08
3.32241e-09
3.64512e-08
3.1467e-09
3.64658e-08
2.98605e-09
3.64729e-08
2.83971e-09
3.64743e-08
2.70549e-09
3.64713e-08
2.58078e-09
3.64647e-08
2.46299e-09
3.64549e-08
2.34978e-09
3.64422e-08
2.23908e-09
3.64269e-08
2.12904e-09
3.64091e-08
2.01801e-09
3.63889e-08
1.90451e-09
3.63664e-08
1.78721e-09
3.63415e-08
1.66502e-09
3.63143e-08
1.53715e-09
3.62846e-08
1.40327e-09
3.62525e-08
1.26368e-09
3.62177e-08
1.11949e-09
3.61804e-08
9.72738e-10
3.61406e-08
8.26405e-10
3.60988e-08
6.84216e-10
3.60558e-08
5.50222e-10
3.60124e-08
4.28162e-10
3.59699e-08
3.20755e-10
3.59291e-08
2.29257e-10
3.5891e-08
1.53498e-10
3.5856e-08
9.22882e-11
3.58241e-08
4.38479e-11
3.57955e-08
6.26165e-12
3.57703e-08
-2.21883e-11
3.57484e-08
-4.30325e-11
3.57296e-08
-5.76662e-11
3.57138e-08
-6.72563e-11
3.57006e-08
-7.27623e-11
3.56897e-08
-7.49762e-11
3.56809e-08
-7.45622e-11
3.56739e-08
-7.20901e-11
3.56683e-08
-6.80597e-11
3.5664e-08
-6.29159e-11
3.56607e-08
-5.70555e-11
3.56582e-08
-5.08277e-11
3.56562e-08
-4.45321e-11
3.56547e-08
-3.84153e-11
3.56535e-08
-3.26677e-11
3.56525e-08
-2.74242e-11
3.56517e-08
-2.27663e-11
3.56509e-08
-1.87277e-11
3.56502e-08
-1.53026e-11
3.56495e-08
-1.24545e-11
3.56488e-08
-1.01263e-11
3.56482e-08
-8.24946e-12
3.56476e-08
-6.75154e-12
3.56471e-08
-5.56252e-12
3.56465e-08
-4.61879e-12
3.56461e-08
-3.86551e-12
3.56456e-08
-3.25739e-12
3.56452e-08
-2.75841e-12
3.56449e-08
-2.34076e-12
3.56446e-08
-1.98351e-12
3.56443e-08
-1.67111e-12
3.5644e-08
-1.39206e-12
3.56438e-08
-1.13765e-12
3.56436e-08
-9.00992e-13
3.56434e-08
-6.76e-13
3.56432e-08
-4.56241e-13
3.56431e-08
-2.32314e-13
2.39712e-14
3.64722e-08
3.35918e-09
-3.63172e-08
3.66589e-08
3.69123e-09
3.68462e-08
3.87434e-09
3.70161e-08
3.92589e-09
3.71603e-08
3.87978e-09
3.72756e-08
3.76723e-09
3.73633e-08
3.61532e-09
3.74274e-08
3.44659e-09
3.74729e-08
3.27688e-09
3.75047e-08
3.11495e-09
3.75265e-08
2.96423e-09
3.75412e-08
2.82501e-09
3.75507e-08
2.69595e-09
3.75564e-08
2.5751e-09
3.75591e-08
2.46033e-09
3.75592e-08
2.34962e-09
3.75572e-08
2.24112e-09
3.75531e-08
2.13311e-09
3.75471e-08
2.02406e-09
3.7539e-08
1.91256e-09
3.75288e-08
1.79738e-09
3.75164e-08
1.6775e-09
3.75013e-08
1.5522e-09
3.74834e-08
1.42118e-09
3.74623e-08
1.28479e-09
3.74377e-08
1.14407e-09
3.74095e-08
1.00097e-09
3.73776e-08
8.58233e-10
3.73425e-08
7.19306e-10
3.73049e-08
5.87898e-10
3.72656e-08
4.67445e-10
3.72258e-08
3.60501e-10
3.71868e-08
2.68348e-10
3.71492e-08
1.91006e-10
3.7114e-08
1.27551e-10
3.70813e-08
7.64963e-11
3.70514e-08
3.61474e-11
3.70244e-08
4.84808e-12
3.70002e-08
-1.8871e-11
3.69789e-08
-3.62831e-11
3.69601e-08
-4.84973e-11
3.69438e-08
-5.64391e-11
3.69297e-08
-6.08825e-11
3.69176e-08
-6.24841e-11
3.69073e-08
-6.1813e-11
3.68986e-08
-5.93731e-11
3.68913e-08
-5.56168e-11
3.68852e-08
-5.09511e-11
3.68802e-08
-4.57385e-11
3.68759e-08
-4.0294e-11
3.68724e-08
-3.48809e-11
3.68694e-08
-2.97085e-11
3.68669e-08
-2.49301e-11
3.68648e-08
-2.06457e-11
3.6863e-08
-1.69066e-11
3.68614e-08
-1.37223e-11
3.686e-08
-1.107e-11
3.68588e-08
-8.90378e-12
3.68577e-08
-7.16358e-12
3.68567e-08
-5.78362e-12
3.68559e-08
-4.69848e-12
3.68551e-08
-3.84765e-12
3.68544e-08
-3.17826e-12
3.68538e-08
-2.64618e-12
3.68533e-08
-2.21605e-12
3.68528e-08
-1.86048e-12
3.68524e-08
-1.55878e-12
3.6852e-08
-1.29566e-12
3.68517e-08
-1.05986e-12
3.68514e-08
-8.42992e-13
3.68511e-08
-6.38538e-13
3.68509e-08
-4.40919e-13
3.68507e-08
-2.44583e-13
3.68505e-08
-4.22956e-14
1.79622e-13
3.75851e-08
3.21932e-09
-3.74453e-08
3.77547e-08
3.52171e-09
3.79279e-08
3.70106e-09
3.80881e-08
3.76575e-09
3.82266e-08
3.74128e-09
3.834e-08
3.65381e-09
3.84286e-08
3.5267e-09
3.84954e-08
3.37976e-09
3.85447e-08
3.2276e-09
3.85806e-08
3.07904e-09
3.86067e-08
2.93816e-09
3.86256e-08
2.80606e-09
3.86394e-08
2.68216e-09
3.86494e-08
2.56511e-09
3.86565e-08
2.45323e-09
3.86613e-08
2.34484e-09
3.86641e-08
2.23829e-09
3.86652e-08
2.13206e-09
3.86645e-08
2.02473e-09
3.8662e-08
1.91504e-09
3.86576e-08
1.80183e-09
3.86509e-08
1.68418e-09
3.86417e-08
1.56145e-09
3.86294e-08
1.43343e-09
3.86137e-08
1.30045e-09
3.85943e-08
1.16352e-09
3.85708e-08
1.02445e-09
3.85433e-08
8.85777e-10
3.85119e-08
7.50632e-10
3.84775e-08
6.22387e-10
3.84407e-08
5.04174e-10
3.84029e-08
3.98366e-10
3.8365e-08
3.06241e-10
3.8328e-08
2.27965e-10
3.82927e-08
1.62835e-10
3.82596e-08
1.0961e-10
3.82289e-08
6.68164e-11
3.82008e-08
3.29629e-11
3.81753e-08
6.66153e-12
3.81523e-08
-1.32981e-11
3.81318e-08
-2.79564e-11
3.81135e-08
-3.82027e-11
3.80974e-08
-4.47916e-11
3.80833e-08
-4.83707e-11
3.8071e-08
-4.95062e-11
3.80604e-08
-4.8703e-11
3.80512e-08
-4.64166e-11
3.80433e-08
-4.30592e-11
3.80365e-08
-3.89997e-11
3.80308e-08
-3.45611e-11
3.80259e-08
-3.00165e-11
3.80218e-08
-2.55862e-11
3.80183e-08
-2.1436e-11
3.80153e-08
-1.76787e-11
3.80128e-08
-1.43791e-11
3.80107e-08
-1.15598e-11
3.80088e-08
-9.21042e-12
3.80072e-08
-7.29614e-12
3.80058e-08
-5.76679e-12
3.80046e-08
-4.56475e-12
3.80035e-08
-3.63122e-12
3.80026e-08
-2.91091e-12
3.80017e-08
-2.35488e-12
3.8001e-08
-1.92194e-12
3.80004e-08
-1.57891e-12
3.79998e-08
-1.29994e-12
3.79993e-08
-1.06555e-12
3.79989e-08
-8.61369e-13
3.79985e-08
-6.76903e-13
3.79982e-08
-5.04426e-13
3.79979e-08
-3.38059e-13
3.79976e-08
-1.72941e-13
3.79974e-08
-4.53631e-15
3.79971e-08
1.72106e-13
3.58329e-13
3.87289e-08
3.0923e-09
-3.86019e-08
3.88831e-08
3.3675e-09
3.90432e-08
3.54096e-09
3.91938e-08
3.61517e-09
3.93264e-08
3.60869e-09
3.94372e-08
3.54299e-09
3.95259e-08
3.43803e-09
3.95945e-08
3.31115e-09
3.96464e-08
3.17564e-09
3.96854e-08
3.0401e-09
3.97145e-08
2.90905e-09
3.97363e-08
2.78422e-09
3.97528e-08
2.66568e-09
3.97653e-08
2.5526e-09
3.97748e-08
2.44375e-09
3.97819e-08
2.33774e-09
3.9787e-08
2.23318e-09
3.97904e-08
2.12872e-09
3.9792e-08
2.0231e-09
3.97919e-08
1.91516e-09
3.97898e-08
1.80389e-09
3.97855e-08
1.68845e-09
3.97787e-08
1.5683e-09
3.97688e-08
1.44328e-09
3.97556e-08
1.31375e-09
3.97384e-08
1.18066e-09
3.97172e-08
1.04569e-09
3.96918e-08
9.11176e-10
3.96625e-08
7.79943e-10
3.96298e-08
6.55044e-10
3.95947e-08
5.39321e-10
3.95581e-08
4.34966e-10
3.95211e-08
3.43236e-10
3.94846e-08
2.64407e-10
3.94495e-08
1.97969e-10
3.94162e-08
1.42896e-10
3.93851e-08
9.79142e-11
3.93564e-08
6.16947e-11
3.93301e-08
3.29731e-11
3.93061e-08
1.06122e-11
3.92846e-08
-6.37937e-12
3.92652e-08
-1.88517e-11
3.9248e-08
-2.75368e-11
3.92327e-08
-3.30713e-11
3.92192e-08
-3.60166e-11
3.92073e-08
-3.68761e-11
3.9197e-08
-3.61062e-11
3.91881e-08
-3.4121e-11
3.91804e-08
-3.12924e-11
3.91738e-08
-2.79475e-11
3.91681e-08
-2.43653e-11
3.91633e-08
-2.07728e-11
3.91592e-08
-1.73445e-11
3.91557e-08
-1.42035e-11
3.91528e-08
-1.14252e-11
3.91503e-08
-9.04409e-12
3.91481e-08
-7.06117e-12
3.91463e-08
-5.4528e-12
3.91447e-08
-4.17904e-12
3.91433e-08
-3.19132e-12
3.91421e-08
-2.43858e-12
3.91411e-08
-1.87188e-12
3.91402e-08
-1.4474e-12
3.91394e-08
-1.1279e-12
3.91387e-08
-8.83233e-13
3.91381e-08
-6.89862e-13
3.91375e-08
-5.30048e-13
3.91371e-08
-3.90762e-13
3.91367e-08
-2.62586e-13
3.91363e-08
-1.38688e-13
3.9136e-08
-1.39871e-14
3.91357e-08
1.15565e-13
3.91354e-08
2.53381e-13
3.91352e-08
4.02094e-13
5.54389e-13
3.99043e-08
2.97632e-09
-3.97883e-08
4.00449e-08
3.22688e-09
4.01928e-08
3.39311e-09
4.03341e-08
3.47386e-09
4.04606e-08
3.48214e-09
4.05684e-08
3.4352e-09
4.06565e-08
3.34995e-09
4.07262e-08
3.24144e-09
4.07802e-08
3.12162e-09
4.08216e-08
2.99871e-09
4.08532e-08
2.87745e-09
4.08774e-08
2.76006e-09
4.0896e-08
2.64711e-09
4.09103e-08
2.53826e-09
4.09214e-08
2.43267e-09
4.09299e-08
2.32924e-09
4.09362e-08
2.22682e-09
4.09407e-08
2.12425e-09
4.09434e-08
2.02043e-09
4.09442e-08
1.91433e-09
4.0943e-08
1.80504e-09
4.09396e-08
1.69185e-09
4.09336e-08
1.5743e-09
4.09246e-08
1.45228e-09
4.09122e-08
1.32617e-09
4.0896e-08
1.19688e-09
4.08757e-08
1.06595e-09
4.08514e-08
9.3552e-10
4.08232e-08
8.08149e-10
4.07917e-08
6.86589e-10
4.07576e-08
5.73412e-10
4.07219e-08
4.70643e-10
4.06856e-08
3.79499e-10
4.06497e-08
3.00346e-10
4.06148e-08
2.32838e-10
4.05816e-08
1.76141e-10
4.05503e-08
1.29165e-10
4.05213e-08
9.07354e-11
4.04945e-08
5.97093e-11
4.04701e-08
3.50362e-11
4.0448e-08
1.57826e-11
4.0428e-08
1.1341e-12
4.04101e-08
-9.61802e-12
4.03941e-08
-1.70961e-11
4.03799e-08
-2.18544e-11
4.03674e-08
-2.4393e-11
4.03565e-08
-2.51671e-11
4.0347e-08
-2.45906e-11
4.03387e-08
-2.30366e-11
4.03316e-08
-2.08342e-11
4.03255e-08
-1.82658e-11
4.03203e-08
-1.55637e-11
4.03159e-08
-1.2909e-11
4.03121e-08
-1.04333e-11
4.03089e-08
-8.22186e-12
4.03062e-08
-6.31972e-12
4.03038e-08
-4.73907e-12
4.03018e-08
-3.46728e-12
4.03001e-08
-2.47485e-12
4.02987e-08
-1.72266e-12
4.02974e-08
-1.16791e-12
4.02963e-08
-7.68645e-13
4.02953e-08
-4.86708e-13
4.02945e-08
-2.8941e-13
4.02938e-08
-1.50095e-13
4.02931e-08
-4.79396e-14
4.02926e-08
3.2732e-14
4.02921e-08
1.03359e-13
4.02916e-08
1.72104e-13
4.02912e-08
2.44774e-13
4.02909e-08
3.25548e-13
4.02906e-08
4.17568e-13
4.02903e-08
5.23103e-13
4.02901e-08
6.42789e-13
7.64102e-13
4.11122e-08
2.86991e-09
-4.10058e-08
4.12408e-08
3.09832e-09
4.13773e-08
3.25659e-09
4.15097e-08
3.34146e-09
4.16302e-08
3.36166e-09
4.17346e-08
3.33078e-09
4.18216e-08
3.26297e-09
4.18919e-08
3.17118e-09
4.19474e-08
3.06605e-09
4.19908e-08
2.9553e-09
4.20246e-08
2.84373e-09
4.20507e-08
2.73387e-09
4.20711e-08
2.62673e-09
4.2087e-08
2.52236e-09
4.20994e-08
2.42027e-09
4.2109e-08
2.31965e-09
4.21162e-08
2.21958e-09
4.21214e-08
2.11909e-09
4.21246e-08
2.01722e-09
4.21259e-08
1.91307e-09
4.2125e-08
1.80588e-09
4.21219e-08
1.695e-09
4.21161e-08
1.58008e-09
4.21073e-08
1.46106e-09
4.20952e-08
1.33833e-09
4.20793e-08
1.21275e-09
4.20595e-08
1.08576e-09
4.20357e-08
9.59291e-10
4.20082e-08
8.35662e-10
4.19774e-08
7.17354e-10
4.19441e-08
6.06696e-10
4.19092e-08
5.05552e-10
4.18736e-08
4.15099e-10
4.18382e-08
3.3577e-10
4.18037e-08
2.6736e-10
4.17706e-08
2.09207e-10
4.17394e-08
1.60389e-10
4.17103e-08
1.19879e-10
4.16833e-08
8.66496e-11
4.16586e-08
5.97391e-11
4.16361e-08
3.82762e-11
4.16158e-08
2.14876e-11
4.15975e-08
8.69047e-12
4.15811e-08
-7.21961e-13
4.15665e-08
-7.29448e-12
4.15536e-08
-1.15218e-11
4.15423e-08
-1.3856e-11
4.15325e-08
-1.47096e-11
4.15239e-08
-1.44552e-11
4.15165e-08
-1.3423e-11
4.15101e-08
-1.18976e-11
4.15046e-08
-1.01154e-11
4.15e-08
-8.26347e-12
4.14961e-08
-6.48089e-12
4.14927e-08
-4.86215e-12
4.14898e-08
-3.46259e-12
4.14874e-08
-2.30523e-12
4.14853e-08
-1.38834e-12
4.14835e-08
-6.9288e-13
4.1482e-08
-1.89364e-13
4.14807e-08
1.56498e-13
4.14795e-08
3.79414e-13
4.14785e-08
5.11542e-13
4.14777e-08
5.80761e-13
4.14769e-08
6.09942e-13
4.14762e-08
6.16981e-13
4.14757e-08
6.15302e-13
4.14751e-08
6.14603e-13
4.14747e-08
6.21679e-13
4.14743e-08
6.41218e-13
4.14739e-08
6.76439e-13
4.14736e-08
7.29547e-13
4.14734e-08
8.01711e-13
4.14731e-08
8.91932e-13
9.8514e-13
4.23537e-08
2.77188e-09
-4.22556e-08
4.24715e-08
2.98049e-09
4.25976e-08
3.13048e-09
4.27215e-08
3.21755e-09
4.28359e-08
3.24724e-09
4.29367e-08
3.23001e-09
4.30222e-08
3.17752e-09
4.30925e-08
3.10085e-09
4.31491e-08
3.0094e-09
4.31942e-08
2.91027e-09
4.32297e-08
2.80818e-09
4.32577e-08
2.70589e-09
4.32797e-08
2.60471e-09
4.32971e-08
2.50504e-09
4.33106e-08
2.40669e-09
4.33212e-08
2.30911e-09
4.33292e-08
2.21161e-09
4.33349e-08
2.11337e-09
4.33385e-08
2.01362e-09
4.334e-08
1.91157e-09
4.33393e-08
1.80657e-09
4.33362e-08
1.6981e-09
4.33304e-08
1.58585e-09
4.33216e-08
1.46984e-09
4.33095e-08
1.35044e-09
4.32938e-08
1.2285e-09
4.32742e-08
1.10532e-09
4.32508e-08
9.82664e-10
4.32239e-08
8.62635e-10
4.31938e-08
7.47466e-10
4.31612e-08
6.39265e-10
4.3127e-08
5.3975e-10
4.3092e-08
4.50051e-10
4.30572e-08
3.70654e-10
4.3023e-08
3.01475e-10
4.29902e-08
2.42004e-10
4.29592e-08
1.91474e-10
4.293e-08
1.48996e-10
4.2903e-08
1.13656e-10
4.28782e-08
8.45794e-11
4.28555e-08
6.09586e-11
4.28349e-08
4.20646e-11
4.28164e-08
2.72435e-11
4.27998e-08
1.59075e-11
4.27849e-08
7.52317e-12
4.27718e-08
1.60323e-12
4.27603e-08
-2.29989e-12
4.27501e-08
-4.59591e-12
4.27413e-08
-5.65608e-12
4.27337e-08
-5.81069e-12
4.27272e-08
-5.34599e-12
4.27216e-08
-4.50179e-12
4.27168e-08
-3.47061e-12
4.27127e-08
-2.39869e-12
4.27092e-08
-1.38931e-12
4.27063e-08
-5.07772e-13
4.27037e-08
2.12258e-13
4.27016e-08
7.61727e-13
4.26998e-08
1.14924e-12
4.26982e-08
1.39463e-12
4.26968e-08
1.52359e-12
4.26956e-08
1.56344e-12
4.26946e-08
1.54019e-12
4.26937e-08
1.47673e-12
4.26929e-08
1.39199e-12
4.26922e-08
1.30079e-12
4.26916e-08
1.21416e-12
4.26911e-08
1.13997e-12
4.26906e-08
1.08355e-12
4.26902e-08
1.04841e-12
4.26899e-08
1.03677e-12
4.26896e-08
1.04988e-12
4.26893e-08
1.08787e-12
4.2689e-08
1.1485e-12