/*--------------------------------*- C++ -*----------------------------------*\
| =========                 |                                                 |
| \\      /  F ield         | OpenFOAM: The Open Source CFD Toolbox           |
|  \\    /   O peration     | Version:  2.3.0                                 |
|   \\  /    A nd           | Web:      www.OpenFOAM.org                      |
|    \\/     M anipulation  |                                                 |
\*---------------------------------------------------------------------------*/
FoamFile
{
    version     2.0;
    format      ascii;
    class       surfaceScalarField;
    location    "0.2";
    object      phi;
}
// * * * * * * * * * * * * * * * * * * * * * * * * * * * * * * * * * * * * * //

dimensions      [0 3 -1 0 0 0 0];

internalField   nonuniform List<scalar> 
6068
(
2.91151e-08
2.72922e-09
-3.18443e-08
2.57001e-08
3.41505e-09
2.22991e-08
3.40094e-09
1.91381e-08
3.16105e-09
1.6248e-08
2.89002e-09
1.37058e-08
2.54223e-09
1.16064e-08
2.09944e-09
9.97437e-09
1.63201e-09
8.77777e-09
1.1966e-09
7.93068e-09
8.47085e-10
7.33405e-09
5.96632e-10
6.90705e-09
4.27e-10
6.59199e-09
3.15056e-10
6.34649e-09
2.45501e-10
6.13856e-09
2.07933e-10
5.94906e-09
1.89505e-10
5.77104e-09
1.7802e-10
5.604e-09
1.67034e-10
5.44796e-09
1.56042e-10
5.30172e-09
1.46244e-10
5.16425e-09
1.37461e-10
5.03557e-09
1.28689e-10
4.91595e-09
1.19616e-10
4.80526e-09
1.10692e-10
4.70291e-09
1.02353e-10
4.60819e-09
9.47147e-11
4.52042e-09
8.77695e-11
4.43891e-09
8.15142e-11
4.363e-09
7.59084e-11
4.29216e-09
7.08392e-11
4.22605e-09
6.61133e-11
4.16452e-09
6.15298e-11
4.10748e-09
5.70339e-11
4.05476e-09
5.2721e-11
4.0061e-09
4.86605e-11
3.96126e-09
4.48358e-11
3.92005e-09
4.1211e-11
3.88233e-09
3.77249e-11
3.84805e-09
3.42781e-11
3.81723e-09
3.08224e-11
3.78984e-09
2.73899e-11
3.76583e-09
2.40084e-11
3.74514e-09
2.06867e-11
3.7277e-09
1.74429e-11
3.71345e-09
1.42537e-11
3.70239e-09
1.10569e-11
3.69453e-09
7.85717e-12
3.68977e-09
4.76239e-12
3.68797e-09
1.80508e-12
3.68875e-09
-7.83583e-13
3.69176e-09
-3.01094e-12
3.69653e-09
-4.7707e-12
3.70256e-09
-6.02685e-12
3.70932e-09
-6.75913e-12
3.7164e-09
-7.08374e-12
3.72345e-09
-7.05044e-12
3.73022e-09
-6.76865e-12
3.73654e-09
-6.32309e-12
3.74238e-09
-5.83633e-12
3.74773e-09
-5.34962e-12
3.75262e-09
-4.89414e-12
3.75711e-09
-4.48438e-12
3.76123e-09
-4.1275e-12
3.76506e-09
-3.82224e-12
3.76862e-09
-3.55877e-12
3.77194e-09
-3.32056e-12
3.77504e-09
-3.1062e-12
3.77795e-09
-2.90313e-12
3.78065e-09
-2.70576e-12
3.78316e-09
-2.51349e-12
3.78549e-09
-2.3263e-12
3.78764e-09
-2.14626e-12
3.78961e-09
-1.97523e-12
3.79142e-09
-1.81041e-12
3.79308e-09
-1.65364e-12
3.79458e-09
-1.50144e-12
3.79594e-09
-1.35748e-12
3.79715e-09
-1.21822e-12
3.79824e-09
-1.09044e-12
3.79921e-09
-9.69022e-13
3.80008e-09
-8.62654e-13
3.80084e-09
-7.63262e-13
3.80152e-09
-6.79574e-13
3.80212e-09
-6.01907e-13
3.80266e-09
-5.37509e-13
3.80314e-09
-4.77374e-13
3.80356e-09
-4.27756e-13
3.80394e-09
-3.7939e-13
3.80428e-09
-3.4117e-13
3.80458e-09
-3.00269e-13
3.80485e-09
-2.70244e-13
3.80509e-09
-2.35388e-13
3.8053e-09
-2.10735e-13
3.80548e-09
-1.81017e-13
3.80564e-09
-1.61117e-13
3.80578e-09
-1.35346e-13
3.8059e-09
-1.19878e-13
3.806e-09
-9.85477e-14
3.80608e-09
-8.67226e-14
-7.50785e-14
3.43601e-08
2.44025e-09
-3.40711e-08
3.42026e-08
3.57255e-09
3.35351e-08
4.06845e-09
3.25837e-08
4.11239e-09
3.14561e-08
4.01764e-09
3.01792e-08
3.81919e-09
2.87834e-08
3.49515e-09
2.73452e-08
3.07027e-09
2.59416e-08
2.60019e-09
2.46294e-08
2.15929e-09
2.34327e-08
1.79329e-09
2.23514e-08
1.50835e-09
2.13765e-08
1.2899e-09
2.05007e-08
1.12129e-09
1.97122e-08
9.96418e-10
1.89998e-08
9.0194e-10
1.83546e-08
8.23236e-10
1.77699e-08
7.51743e-10
1.72389e-08
6.87014e-10
1.67542e-08
6.30998e-10
1.63089e-08
5.82767e-10
1.58981e-08
5.39465e-10
1.55183e-08
4.99434e-10
1.51663e-08
4.62673e-10
1.48393e-08
4.29348e-10
1.45349e-08
3.99085e-10
1.42513e-08
3.71396e-10
1.39868e-08
3.46e-10
1.374e-08
3.22685e-10
1.35097e-08
3.01132e-10
1.3295e-08
2.80874e-10
1.3095e-08
2.61462e-10
1.29093e-08
2.42761e-10
1.27371e-08
2.24921e-10
1.25777e-08
2.0802e-10
1.24306e-08
1.91958e-10
1.22952e-08
1.76605e-10
1.21712e-08
1.61774e-10
1.20583e-08
1.4721e-10
1.19563e-08
1.32797e-10
1.18651e-08
1.18587e-10
1.17845e-08
1.04633e-10
1.17142e-08
9.09578e-11
1.1654e-08
7.76162e-11
1.16037e-08
6.46015e-11
1.15629e-08
5.18288e-11
1.15314e-08
3.93847e-11
1.15085e-08
2.75908e-11
1.14936e-08
1.67317e-11
1.14858e-08
7.00159e-12
1.14839e-08
-1.08728e-12
1.14868e-08
-7.6234e-12
1.14931e-08
-1.24181e-11
1.15019e-08
-1.5522e-11
1.15121e-08
-1.72624e-11
1.15229e-08
-1.78488e-11
1.15337e-08
-1.76265e-11
1.15443e-08
-1.68624e-11
1.15543e-08
-1.58991e-11
1.15639e-08
-1.48711e-11
1.15728e-08
-1.38772e-11
1.15813e-08
-1.29637e-11
1.15894e-08
-1.21538e-11
1.1597e-08
-1.14436e-11
1.16042e-08
-1.08086e-11
1.16111e-08
-1.02098e-11
1.16177e-08
-9.64284e-12
1.16238e-08
-9.07997e-12
1.16296e-08
-8.51014e-12
1.16351e-08
-7.93664e-12
1.16401e-08
-7.36191e-12
1.16447e-08
-6.7956e-12
1.1649e-08
-6.24501e-12
1.16529e-08
-5.70893e-12
1.16565e-08
-5.19463e-12
1.16596e-08
-4.69877e-12
1.16625e-08
-4.23142e-12
1.16651e-08
-3.78789e-12
1.16674e-08
-3.38287e-12
1.16694e-08
-3.00647e-12
1.16712e-08
-2.6759e-12
1.16728e-08
-2.37328e-12
1.16743e-08
-2.11552e-12
1.16756e-08
-1.88001e-12
1.16767e-08
-1.68189e-12
1.16777e-08
-1.49833e-12
1.16786e-08
-1.34491e-12
1.16795e-08
-1.19642e-12
1.16802e-08
-1.07678e-12
1.16808e-08
-9.5114e-13
1.16814e-08
-8.5635e-13
1.16819e-08
-7.48363e-13
1.16824e-08
-6.71401e-13
1.16828e-08
-5.77483e-13
1.16832e-08
-5.16688e-13
1.16835e-08
-4.32651e-13
1.16837e-08
-3.88136e-13
1.16839e-08
-3.12702e-13
1.16841e-08
-2.85525e-13
-2.30539e-13
3.58654e-08
2.30512e-09
-3.57303e-08
3.62565e-08
3.18141e-09
3.64953e-08
3.8297e-09
3.65538e-08
4.05384e-09
3.64936e-08
4.0779e-09
3.63093e-08
4.00347e-09
3.59732e-08
3.83123e-09
3.54886e-08
3.55484e-09
3.48861e-08
3.2027e-09
3.4212e-08
2.83348e-09
3.35062e-08
2.49909e-09
3.27936e-08
2.22091e-09
3.20875e-08
1.996e-09
3.13933e-08
1.81553e-09
3.07147e-08
1.67501e-09
3.00517e-08
1.56491e-09
2.94031e-08
1.47179e-09
2.87693e-08
1.38556e-09
2.8153e-08
1.30333e-09
2.75585e-08
1.22554e-09
2.69897e-08
1.15155e-09
2.6449e-08
1.08018e-09
2.59365e-08
1.01192e-09
2.54506e-08
9.48559e-10
2.49887e-08
8.91201e-10
2.45485e-08
8.39327e-10
2.41283e-08
7.91581e-10
2.37276e-08
7.46758e-10
2.33462e-08
7.04085e-10
2.29843e-08
6.63016e-10
2.26421e-08
6.23051e-10
2.23197e-08
5.83871e-10
2.20168e-08
5.45642e-10
2.17329e-08
5.08803e-10
2.14674e-08
4.73543e-10
2.12196e-08
4.39723e-10
2.09891e-08
4.07139e-10
2.07754e-08
3.75491e-10
2.05782e-08
3.4437e-10
2.03974e-08
3.13606e-10
2.02327e-08
2.83309e-10
2.00838e-08
2.53558e-10
1.99504e-08
2.2437e-10
1.98321e-08
1.95829e-10
1.97288e-08
1.67964e-10
1.96399e-08
1.40709e-10
1.9565e-08
1.14257e-10
1.95035e-08
8.91573e-11
1.94542e-08
6.59617e-11
1.94162e-08
4.506e-11
1.93881e-08
2.69472e-11
1.93687e-08
1.18445e-11
1.93561e-08
1.24911e-13
1.9349e-08
-8.41105e-12
1.9346e-08
-1.42874e-11
1.9346e-08
-1.78345e-11
1.93481e-08
-1.96569e-11
1.93514e-08
-2.02161e-11
1.93557e-08
-2.01558e-11
1.93605e-08
-1.97389e-11
1.93658e-08
-1.91823e-11
1.93715e-08
-1.86029e-11
1.93774e-08
-1.80687e-11
1.93835e-08
-1.75904e-11
1.93899e-08
-1.71409e-11
1.93963e-08
-1.66592e-11
1.94028e-08
-1.61465e-11
1.94093e-08
-1.55587e-11
1.94157e-08
-1.48804e-11
1.94219e-08
-1.4125e-11
1.94278e-08
-1.3297e-11
1.94334e-08
-1.24229e-11
1.94387e-08
-1.15197e-11
1.94436e-08
-1.05974e-11
1.94481e-08
-9.67659e-12
1.94521e-08
-8.7657e-12
1.94558e-08
-7.88895e-12
1.94591e-08
-7.05131e-12
1.9462e-08
-6.27971e-12
1.94645e-08
-5.56699e-12
1.94668e-08
-4.93866e-12
1.94688e-08
-4.37092e-12
1.94705e-08
-3.88616e-12
1.94721e-08
-3.4493e-12
1.94735e-08
-3.08184e-12
1.94748e-08
-2.74409e-12
1.94759e-08
-2.46297e-12
1.94769e-08
-2.1914e-12
1.94778e-08
-1.97329e-12
1.94786e-08
-1.7447e-12
1.94793e-08
-1.57229e-12
1.94799e-08
-1.37527e-12
1.94805e-08
-1.23687e-12
1.9481e-08
-1.06312e-12
1.94814e-08
-9.56052e-13
1.94818e-08
-7.97504e-13
1.94821e-08
-7.21781e-13
1.94824e-08
-5.75565e-13
1.94826e-08
-5.32083e-13
-4.18964e-13
3.74051e-08
2.25261e-09
-3.73526e-08
3.76991e-08
2.88745e-09
3.80504e-08
3.47844e-09
3.83243e-08
3.77992e-09
3.85388e-08
3.86338e-09
3.87053e-08
3.83696e-09
3.88014e-08
3.73516e-09
3.88016e-08
3.55466e-09
3.86982e-08
3.30606e-09
3.85079e-08
3.02376e-09
3.82573e-08
2.74972e-09
3.79688e-08
2.50936e-09
3.76562e-08
2.30862e-09
3.73271e-08
2.14467e-09
3.69871e-08
2.01496e-09
3.66378e-08
1.91426e-09
3.62769e-08
1.83269e-09
3.59015e-08
1.76095e-09
3.55105e-08
1.69429e-09
3.51061e-08
1.62997e-09
3.46932e-08
1.56442e-09
3.42786e-08
1.49484e-09
3.38688e-08
1.42171e-09
3.34688e-08
1.34851e-09
3.30807e-08
1.27935e-09
3.27032e-08
1.21682e-09
3.23334e-08
1.16139e-09
3.19685e-08
1.11168e-09
3.16073e-08
1.06523e-09
3.12509e-08
1.01943e-09
3.09016e-08
9.72335e-10
3.05622e-08
9.23232e-10
3.0235e-08
8.72879e-10
2.99211e-08
8.22725e-10
2.96209e-08
7.73722e-10
2.93346e-08
7.26012e-10
2.90624e-08
6.79319e-10
2.88048e-08
6.33131e-10
2.85623e-08
5.86898e-10
2.83353e-08
5.40598e-10
2.81239e-08
4.94689e-10
2.7928e-08
4.49495e-10
2.77473e-08
4.05063e-10
2.75817e-08
3.61408e-10
2.74312e-08
3.18493e-10
2.72956e-08
2.76263e-10
2.71748e-08
2.35062e-10
2.70683e-08
1.95649e-10
2.69755e-08
1.5875e-10
2.68957e-08
1.24879e-10
2.68279e-08
9.4726e-11
2.67709e-08
6.8837e-11
2.67236e-08
4.7494e-11
2.66846e-08
3.05398e-11
2.66527e-08
1.75684e-11
2.66268e-08
8.11243e-12
2.66057e-08
1.41319e-12
2.65886e-08
-3.05077e-12
2.65747e-08
-6.26252e-12
2.65635e-08
-8.5845e-12
2.65547e-08
-1.03769e-11
2.6548e-08
-1.1856e-11
2.65431e-08
-1.31689e-11
2.65398e-08
-1.43634e-11
2.65381e-08
-1.54328e-11
2.65378e-08
-1.62906e-11
2.65386e-08
-1.69591e-11
2.65404e-08
-1.73688e-11
2.6543e-08
-1.75012e-11
2.65463e-08
-1.73859e-11
2.655e-08
-1.70207e-11
2.6554e-08
-1.64531e-11
2.65582e-08
-1.57027e-11
2.65624e-08
-1.4791e-11
2.65665e-08
-1.37543e-11
2.65703e-08
-1.26243e-11
2.65739e-08
-1.14525e-11
2.65771e-08
-1.02746e-11
2.658e-08
-9.14628e-12
2.65825e-08
-8.08352e-12
2.65847e-08
-7.13132e-12
2.65866e-08
-6.2717e-12
2.65882e-08
-5.53753e-12
2.65897e-08
-4.88321e-12
2.65909e-08
-4.33907e-12
2.6592e-08
-3.84462e-12
2.6593e-08
-3.43993e-12
2.65939e-08
-3.05183e-12
2.65946e-08
-2.74445e-12
2.65953e-08
-2.42317e-12
2.65959e-08
-2.18366e-12
2.65965e-08
-1.90766e-12
2.6597e-08
-1.71817e-12
2.65974e-08
-1.4729e-12
2.65977e-08
-1.32841e-12
2.6598e-08
-1.10254e-12
2.65983e-08
-1.00166e-12
2.65985e-08
-7.91933e-13
2.65987e-08
-7.34927e-13
-5.66329e-13
3.90002e-08
2.20197e-09
-3.89496e-08
3.92016e-08
2.68604e-09
3.95094e-08
3.17073e-09
3.97994e-08
3.48986e-09
4.00459e-08
3.61692e-09
4.02633e-08
3.6196e-09
4.04505e-08
3.54789e-09
4.05892e-08
3.41593e-09
4.06633e-08
3.23198e-09
4.06729e-08
3.01416e-09
4.06328e-08
2.78982e-09
4.05594e-08
2.58278e-09
4.04637e-08
2.40431e-09
4.03531e-08
2.25525e-09
4.02332e-08
2.13487e-09
4.01062e-08
2.04124e-09
3.99704e-08
1.96851e-09
3.98216e-08
1.90973e-09
3.96558e-08
1.86016e-09
3.94703e-08
1.81542e-09
3.92654e-08
1.76933e-09
3.90442e-08
1.71606e-09
3.88123e-08
1.65355e-09
3.85767e-08
1.58419e-09
3.8343e-08
1.51302e-09
3.81142e-08
1.44561e-09
3.78893e-08
1.38633e-09
3.76643e-08
1.33669e-09
3.74348e-08
1.29472e-09
3.71982e-08
1.256e-09
3.69548e-08
1.21575e-09
3.67072e-08
1.17079e-09
3.64594e-08
1.12074e-09
3.62146e-08
1.06751e-09
3.59748e-08
1.01356e-09
3.57403e-08
9.60523e-10
3.55109e-08
9.08673e-10
3.52872e-08
8.56872e-10
3.50705e-08
8.03565e-10
3.48627e-08
7.48384e-10
3.4665e-08
6.92398e-10
3.44776e-08
6.36864e-10
3.43003e-08
5.82366e-10
3.41329e-08
5.28874e-10
3.39753e-08
4.76051e-10
3.38279e-08
4.23642e-10
3.3691e-08
3.72008e-10
3.35646e-08
3.22029e-10
3.34488e-08
2.74578e-10
3.33433e-08
2.30339e-10
3.32479e-08
1.90093e-10
3.31623e-08
1.54484e-10
3.30859e-08
1.23913e-10
3.3018e-08
9.83894e-11
3.29579e-08
7.7655e-11
3.29048e-08
6.12948e-11
3.28576e-08
4.85456e-11
3.28159e-08
3.86549e-11
3.27789e-08
3.07076e-11
3.27462e-08
2.41631e-11
3.27172e-08
1.85755e-11
3.26918e-08
1.36241e-11
3.26695e-08
9.06092e-12
3.26504e-08
4.78684e-12
3.26342e-08
7.73109e-13
3.26207e-08
-2.82753e-12
3.26098e-08
-6.075e-12
3.26013e-08
-8.83289e-12
3.25949e-08
-1.10631e-11
3.25903e-08
-1.28209e-11
3.25874e-08
-1.40808e-11
3.25858e-08
-1.49236e-11
3.25855e-08
-1.53481e-11
3.2586e-08
-1.53696e-11
3.25873e-08
-1.50137e-11
3.2589e-08
-1.43213e-11
3.25909e-08
-1.33633e-11
3.25929e-08
-1.22179e-11
3.25947e-08
-1.09864e-11
3.25964e-08
-9.73661e-12
3.25978e-08
-8.55845e-12
3.2599e-08
-7.46503e-12
3.26e-08
-6.5184e-12
3.26007e-08
-5.67539e-12
3.26014e-08
-4.98202e-12
3.26019e-08
-4.36285e-12
3.26023e-08
-3.86728e-12
3.26027e-08
-3.40256e-12
3.2603e-08
-3.04231e-12
3.26032e-08
-2.67114e-12
3.26034e-08
-2.39995e-12
3.26036e-08
-2.08612e-12
3.26038e-08
-1.87626e-12
3.26039e-08
-1.59749e-12
3.2604e-08
-1.43927e-12
3.26041e-08
-1.18149e-12
3.26042e-08
-1.0712e-12
3.26042e-08
-8.31393e-13
3.26042e-08
-7.69979e-13
-5.70359e-13
4.06221e-08
2.14219e-09
-4.05624e-08
4.07753e-08
2.5329e-09
4.10245e-08
2.9215e-09
4.12908e-08
3.22361e-09
4.153e-08
3.37771e-09
4.17403e-08
3.40933e-09
4.19272e-08
3.36095e-09
4.20846e-08
3.25853e-09
4.22008e-08
3.1158e-09
4.22711e-08
2.94388e-09
4.23025e-08
2.75843e-09
4.23067e-08
2.57852e-09
4.22934e-08
2.41764e-09
4.22691e-08
2.27952e-09
4.22393e-08
2.1647e-09
4.2207e-08
2.0735e-09
4.21723e-08
2.00323e-09
4.21329e-08
1.94914e-09
4.20856e-08
1.90743e-09
4.20271e-08
1.87396e-09
4.19545e-08
1.84189e-09
4.18672e-08
1.80342e-09
4.1767e-08
1.75378e-09
4.16581e-08
1.69302e-09
4.15462e-08
1.62493e-09
4.14362e-08
1.55565e-09
4.13301e-08
1.49236e-09
4.12264e-08
1.44046e-09
4.11204e-08
1.4007e-09
4.10075e-08
1.36889e-09
4.08849e-08
1.33837e-09
4.07524e-08
1.30326e-09
4.06124e-08
1.26073e-09
4.04686e-08
1.21137e-09
4.0324e-08
1.15812e-09
4.01799e-08
1.10459e-09
4.00356e-08
1.05299e-09
3.989e-08
1.00249e-09
3.97435e-08
9.50053e-10
3.95982e-08
8.93669e-10
3.94565e-08
8.34114e-10
3.93196e-08
7.73742e-10
3.91875e-08
7.14454e-10
3.90596e-08
6.56781e-10
3.89355e-08
6.00155e-10
3.88154e-08
5.43823e-10
3.86996e-08
4.87813e-10
3.85886e-08
4.32979e-10
3.84828e-08
3.80329e-10
3.83825e-08
3.3064e-10
3.8288e-08
2.84654e-10
3.81995e-08
2.43011e-10
3.81172e-08
2.06208e-10
3.80411e-08
1.74455e-10
3.7971e-08
1.47745e-10
3.79065e-08
1.25813e-10
3.7847e-08
1.08002e-10
3.77922e-08
9.35038e-11
3.77415e-08
8.1429e-11
3.76945e-08
7.11144e-11
3.7651e-08
6.20489e-11
3.76109e-08
5.38145e-11
3.75738e-08
4.60721e-11
3.754e-08
3.86303e-11
3.75094e-08
3.13911e-11
3.74821e-08
2.4479e-11
3.7458e-08
1.79698e-11
3.74372e-08
1.20383e-11
3.74193e-08
6.82782e-12
3.74042e-08
2.26439e-12
3.73917e-08
-1.56063e-12
3.73815e-08
-4.79472e-12
3.73736e-08
-7.40259e-12
3.73676e-08
-9.38319e-12
3.73633e-08
-1.07153e-11
3.73604e-08
-1.14084e-11
3.73585e-08
-1.1509e-11
3.73574e-08
-1.11111e-11
3.73568e-08
-1.03481e-11
3.73564e-08
-9.34824e-12
3.73561e-08
-8.26315e-12
3.73558e-08
-7.16512e-12
3.73555e-08
-6.16795e-12
3.7355e-08
-5.25931e-12
3.73546e-08
-4.50965e-12
3.73541e-08
-3.85205e-12
3.73535e-08
-3.33725e-12
3.7353e-08
-2.87376e-12
3.73525e-08
-2.52606e-12
3.7352e-08
-2.18006e-12
3.73515e-08
-1.93635e-12
3.73511e-08
-1.65577e-12
3.73507e-08
-1.47534e-12
3.73503e-08
-1.22909e-12
3.735e-08
-1.09507e-12
3.73497e-08
-8.67019e-13
3.73494e-08
-7.72819e-13
3.73491e-08
-5.60239e-13
3.73488e-08
-5.08051e-13
-3.27403e-13
4.22765e-08
2.07711e-09
-4.22114e-08
4.24049e-08
2.40448e-09
4.26056e-08
2.72079e-09
4.28393e-08
2.98988e-09
4.30633e-08
3.15367e-09
4.32623e-08
3.21034e-09
4.34371e-08
3.18615e-09
4.3588e-08
3.10767e-09
4.37096e-08
2.99416e-09
4.37971e-08
2.85638e-09
4.38525e-08
2.70305e-09
4.38834e-08
2.5476e-09
4.38978e-08
2.40323e-09
4.39017e-08
2.27567e-09
4.38999e-08
2.16647e-09
4.38961e-08
2.07729e-09
4.38918e-08
2.00756e-09
4.3887e-08
1.95395e-09
4.3881e-08
1.91343e-09
4.38719e-08
1.883e-09
4.38571e-08
1.85673e-09
4.38342e-08
1.82634e-09
4.38024e-08
1.78555e-09
4.37628e-08
1.73261e-09
4.37182e-08
1.66958e-09
4.36725e-08
1.60135e-09
4.36293e-08
1.53551e-09
4.35898e-08
1.47995e-09
4.3552e-08
1.4385e-09
4.35123e-08
1.40863e-09
4.34672e-08
1.3835e-09
4.34146e-08
1.35585e-09
4.33544e-08
1.3209e-09
4.32885e-08
1.27725e-09
4.32198e-08
1.22684e-09
4.31502e-08
1.17417e-09
4.30795e-08
1.12371e-09
4.30059e-08
1.07612e-09
4.29282e-08
1.02777e-09
4.28472e-08
9.74635e-10
4.27652e-08
9.16099e-10
4.26841e-08
8.54817e-10
4.26045e-08
7.94068e-10
4.25258e-08
7.35514e-10
4.24471e-08
6.78801e-10
4.23682e-08
6.22716e-10
4.22893e-08
5.66738e-10
4.22108e-08
5.11462e-10
4.21333e-08
4.579e-10
4.2057e-08
4.06884e-10
4.19826e-08
3.59103e-10
4.19105e-08
3.15093e-10
4.18414e-08
2.75312e-10
4.17757e-08
2.40102e-10
4.17138e-08
2.09729e-10
4.16553e-08
1.84223e-10
4.16002e-08
1.63179e-10
4.15478e-08
1.45848e-10
4.14979e-08
1.31341e-10
4.14501e-08
1.18897e-10
4.14043e-08
1.0792e-10
4.13602e-08
9.78944e-11
4.13179e-08
8.83744e-11
4.12775e-08
7.89955e-11
4.12393e-08
6.9556e-11
4.12037e-08
6.00984e-11
4.11709e-08
5.07796e-11
4.11411e-08
4.18783e-11
4.11143e-08
3.36509e-11
4.10904e-08
2.61587e-11
4.10693e-08
1.94829e-11
4.1051e-08
1.35228e-11
4.10353e-08
8.29542e-12
4.10221e-08
3.8144e-12
4.10112e-08
1.54305e-13
4.10025e-08
-2.63887e-12
4.09955e-08
-4.54319e-12
4.099e-08
-5.62165e-12
4.09857e-08
-5.99621e-12
4.09821e-08
-5.82979e-12
4.09792e-08
-5.31999e-12
4.09766e-08
-4.60701e-12
4.09743e-08
-3.86002e-12
4.09722e-08
-3.12622e-12
4.09702e-08
-2.5027e-12
4.09683e-08
-1.9638e-12
4.09665e-08
-1.55268e-12
4.09648e-08
-1.20933e-12
4.09633e-08
-9.69097e-13
4.09619e-08
-7.49969e-13
4.09605e-08
-6.11564e-13
4.09593e-08
-4.55711e-13
4.09582e-08
-3.6744e-13
4.09572e-08
-2.37333e-13
4.09563e-08
-1.74599e-13
4.09555e-08
-5.33789e-14
4.09547e-08
-7.06941e-15
4.09541e-08
1.06717e-13
4.09534e-08
1.3442e-13
2.27587e-13
4.3972e-08
2.01109e-09
-4.3906e-08
4.40854e-08
2.29113e-09
4.42511e-08
2.55508e-09
4.44525e-08
2.78845e-09
4.46568e-08
2.94936e-09
4.48443e-08
3.02292e-09
4.50089e-08
3.02155e-09
4.51512e-08
2.96537e-09
4.52703e-08
2.87498e-09
4.53632e-08
2.76352e-09
4.5429e-08
2.63723e-09
4.54719e-08
2.50468e-09
4.5498e-08
2.37712e-09
4.55125e-08
2.26121e-09
4.55197e-08
2.15927e-09
4.55233e-08
2.07367e-09
4.55257e-08
2.00524e-09
4.5528e-08
1.95159e-09
4.55314e-08
1.91003e-09
4.55359e-08
1.87854e-09
4.554e-08
1.85265e-09
4.55415e-08
1.82481e-09
4.55387e-08
1.78838e-09
4.55304e-08
1.74088e-09
4.55167e-08
1.68324e-09
4.54994e-08
1.61863e-09
4.54816e-08
1.55335e-09
4.54658e-08
1.49573e-09
4.54528e-08
1.45149e-09
4.54415e-08
1.41997e-09
4.54298e-08
1.39523e-09
4.54155e-08
1.3701e-09
4.53972e-08
1.33924e-09
4.53745e-08
1.29993e-09
4.53488e-08
1.25254e-09
4.53218e-08
1.20114e-09
4.52941e-08
1.15137e-09
4.52646e-08
1.10562e-09
4.52317e-08
1.06076e-09
4.51947e-08
1.01162e-09
4.51547e-08
9.56032e-10
4.51134e-08
8.96107e-10
4.50717e-08
8.35815e-10
4.50293e-08
7.77867e-10
4.49857e-08
7.22467e-10
4.49401e-08
6.68279e-10
4.48925e-08
6.14327e-10
4.48432e-08
5.60806e-10
4.47925e-08
5.08588e-10
4.47409e-08
4.58503e-10
4.46888e-08
4.11175e-10
4.46369e-08
3.66997e-10
4.45859e-08
3.26311e-10
4.45365e-08
2.89506e-10
4.44891e-08
2.57096e-10
4.44439e-08
2.29456e-10
4.44006e-08
2.06514e-10
4.43587e-08
1.87703e-10
4.43179e-08
1.72186e-10
4.42776e-08
1.59124e-10
4.42378e-08
1.47805e-10
4.41981e-08
1.37593e-10
4.41585e-08
1.27905e-10
4.41193e-08
1.18176e-10
4.40809e-08
1.08039e-10
4.40436e-08
9.73832e-11
4.4008e-08
8.63746e-11
4.39745e-08
7.53627e-11
4.39434e-08
6.47453e-11
4.39148e-08
5.47521e-11
4.38888e-08
4.55328e-11
4.38652e-08
3.70536e-11
4.38442e-08
2.93302e-11
4.38256e-08
2.23776e-11
4.38095e-08
1.6306e-11
4.37956e-08
1.12079e-11
4.37839e-08
7.18461e-12
4.37741e-08
4.22621e-12
4.37658e-08
2.26223e-12
4.37588e-08
1.12865e-12
4.37529e-08
6.20535e-13
4.37477e-08
5.43233e-13
4.37432e-08
6.94734e-13
4.37391e-08
9.55639e-13
4.37354e-08
1.21392e-12
4.3732e-08
1.42802e-12
4.37289e-08
1.57332e-12
4.3726e-08
1.64897e-12
4.37234e-08
1.66644e-12
4.3721e-08
1.64376e-12
4.37188e-08
1.59021e-12
4.37168e-08
1.52483e-12
4.3715e-08
1.45491e-12
4.37134e-08
1.3837e-12
4.37119e-08
1.32654e-12
4.37105e-08
1.26398e-12
4.37093e-08
1.23081e-12
4.37082e-08
1.17336e-12
4.37072e-08
1.16249e-12
1.0967e-12
4.57154e-08
1.94645e-09
-4.56508e-08
4.58174e-08
2.18913e-09
4.59589e-08
2.4136e-09
4.61321e-08
2.61525e-09
4.63154e-08
2.76608e-09
4.64902e-08
2.84818e-09
4.66463e-08
2.86544e-09
4.67813e-08
2.8303e-09
4.6896e-08
2.76027e-09
4.69895e-08
2.67004e-09
4.70604e-08
2.56634e-09
4.71104e-08
2.45466e-09
4.71438e-08
2.34371e-09
4.71649e-08
2.24019e-09
4.71772e-08
2.14691e-09
4.71844e-08
2.06646e-09
4.71891e-08
2.0006e-09
4.71929e-08
1.94776e-09
4.71977e-08
1.90527e-09
4.72046e-08
1.87157e-09
4.72136e-08
1.84365e-09
4.72231e-08
1.81531e-09
4.72311e-08
1.78039e-09
4.72357e-08
1.73635e-09
4.72353e-08
1.68356e-09
4.723e-08
1.62394e-09
4.72213e-08
1.56203e-09
4.7212e-08
1.50507e-09
4.72043e-08
1.45915e-09
4.71994e-08
1.42491e-09
4.71969e-08
1.39772e-09
4.71956e-08
1.3714e-09
4.71937e-08
1.34114e-09
4.71897e-08
1.30395e-09
4.71832e-08
1.25903e-09
4.71751e-08
1.20927e-09
4.71662e-08
1.1602e-09
4.71567e-08
1.11517e-09
4.71454e-08
1.07206e-09
4.71313e-08
1.02573e-09
4.71141e-08
9.73181e-10
4.70946e-08
9.15677e-10
4.70733e-08
8.57054e-10
4.70507e-08
8.00488e-10
4.70264e-08
7.46738e-10
4.7e-08
6.94685e-10
4.69712e-08
6.4318e-10
4.69399e-08
5.92087e-10
4.69064e-08
5.42039e-10
4.68712e-08
4.93743e-10
4.68347e-08
4.47717e-10
4.67974e-08
4.04227e-10
4.67602e-08
3.63517e-10
4.67237e-08
3.25996e-10
4.66885e-08
2.92362e-10
4.66546e-08
2.63296e-10
4.66221e-08
2.39088e-10
4.65903e-08
2.1944e-10
4.65589e-08
2.03641e-10
4.65272e-08
1.90812e-10
4.64949e-08
1.80127e-10
4.64616e-08
1.70797e-10
4.64275e-08
1.62062e-10
4.63925e-08
1.53149e-10
4.63571e-08
1.43483e-10
4.63217e-08
1.32777e-10
4.62869e-08
1.21135e-10
4.62534e-08
1.0893e-10
4.62214e-08
9.66798e-11
4.61914e-08
8.47719e-11
4.61635e-08
7.34776e-11
4.61377e-08
6.28556e-11
4.6114e-08
5.29611e-11
4.60926e-08
4.38175e-11
4.60733e-08
3.55613e-11
4.60562e-08
2.83075e-11
4.60412e-08
2.22187e-11
4.60281e-08
1.73288e-11
4.60167e-08
1.36305e-11
4.60069e-08
1.0975e-11
4.59983e-08
9.18444e-12
4.59908e-08
8.02876e-12
4.59842e-08
7.3074e-12
4.59783e-08
6.83223e-12
4.59731e-08
6.49829e-12
4.59683e-08
6.185e-12
4.5964e-08
5.89982e-12
4.59601e-08
5.5608e-12
4.59565e-08
5.24021e-12
4.59533e-08
4.86663e-12
4.59503e-08
4.53914e-12
4.59477e-08
4.16617e-12
4.59452e-08
3.8788e-12
4.59431e-08
3.5333e-12
4.59411e-08
3.314e-12
4.59394e-08
3.00354e-12
4.59377e-08
2.86279e-12
4.59363e-08
2.57535e-12
4.5935e-08
2.5131e-12
2.22889e-12
4.75114e-08
1.88397e-09
-4.74489e-08
4.76042e-08
2.09632e-09
4.77281e-08
2.28965e-09
4.78786e-08
2.46474e-09
4.8042e-08
2.60266e-09
4.82029e-08
2.6873e-09
4.83502e-08
2.71812e-09
4.84788e-08
2.70176e-09
4.85886e-08
2.65045e-09
4.86805e-08
2.57819e-09
4.87535e-08
2.49324e-09
4.88082e-08
2.4e-09
4.88471e-08
2.30481e-09
4.88735e-08
2.2138e-09
4.88904e-08
2.12999e-09
4.89011e-08
2.05581e-09
4.89082e-08
1.99346e-09
4.89138e-08
1.94218e-09
4.89196e-08
1.89946e-09
4.89273e-08
1.86383e-09
4.89376e-08
1.83338e-09
4.89495e-08
1.80344e-09
4.89611e-08
1.76876e-09
4.89705e-08
1.72699e-09
4.89758e-08
1.67828e-09
4.89759e-08
1.62383e-09
4.89712e-08
1.56669e-09
4.89639e-08
1.51242e-09
4.89567e-08
1.46635e-09
4.89518e-08
1.42977e-09
4.89502e-08
1.39936e-09
4.89513e-08
1.37022e-09
4.89539e-08
1.33855e-09
4.89562e-08
1.30174e-09
4.89566e-08
1.25855e-09
4.89552e-08
1.2107e-09
4.89526e-08
1.16275e-09
4.89498e-08
1.11806e-09
4.89464e-08
1.0754e-09
4.89417e-08
1.03049e-09
4.89345e-08
9.80339e-10
4.89246e-08
9.25562e-10
4.89124e-08
8.6932e-10
4.88982e-08
8.14643e-10
4.88823e-08
7.62613e-10
4.88645e-08
7.125e-10
4.88444e-08
6.63282e-10
4.88219e-08
6.14637e-10
4.8797e-08
5.66915e-10
4.87701e-08
5.20591e-10
4.87418e-08
4.76035e-10
4.87126e-08
4.33417e-10
4.86832e-08
3.92925e-10
4.86542e-08
3.54992e-10
4.86261e-08
3.20457e-10
4.85992e-08
2.90262e-10
4.85732e-08
2.65043e-10
4.85479e-08
2.44793e-10
4.85225e-08
2.28976e-10
4.84966e-08
2.16729e-10
4.84696e-08
2.07126e-10
4.84412e-08
1.99197e-10
4.84113e-08
1.91982e-10
4.83799e-08
1.84486e-10
4.83475e-08
1.75927e-10
4.83144e-08
1.65838e-10
4.82813e-08
1.54235e-10
4.82488e-08
1.41476e-10
4.82173e-08
1.28158e-10
4.81873e-08
1.14794e-10
4.8159e-08
1.01794e-10
4.81325e-08
8.93241e-11
4.8108e-08
7.75213e-11
4.80853e-08
6.64386e-11
4.80646e-08
5.62448e-11
4.80459e-08
4.70626e-11
4.8029e-08
3.90942e-11
4.8014e-08
3.2393e-11
4.80006e-08
2.70053e-11
4.79888e-08
2.27934e-11
4.79783e-08
1.96243e-11
4.79691e-08
1.7244e-11
4.79609e-08
1.54823e-11
4.79537e-08
1.40919e-11
4.79472e-08
1.29976e-11
4.79414e-08
1.19991e-11
4.79361e-08
1.11494e-11
4.79314e-08
1.02756e-11
4.79271e-08
9.52089e-12
4.79233e-08
8.70829e-12
4.79198e-08
8.04003e-12
4.79166e-08
7.2926e-12
4.79138e-08
6.74107e-12
4.79112e-08
6.06734e-12
4.79089e-08
5.65331e-12
4.79069e-08
5.04877e-12
4.79049e-08
4.77905e-12
4.79033e-08
4.22023e-12
4.79017e-08
4.09645e-12
3.55186e-12
4.93639e-08
1.82372e-09
-4.93036e-08
4.94491e-08
2.01105e-09
4.95596e-08
2.17919e-09
4.96921e-08
2.33222e-09
4.98376e-08
2.45714e-09
4.99841e-08
2.54086e-09
5.01216e-08
2.58058e-09
5.02439e-08
2.5795e-09
5.03493e-08
2.54503e-09
5.04388e-08
2.4887e-09
5.05123e-08
2.41971e-09
5.05697e-08
2.34263e-09
5.06125e-08
2.26202e-09
5.06432e-08
2.18308e-09
5.06643e-08
2.10885e-09
5.06787e-08
2.04146e-09
5.0689e-08
1.98311e-09
5.06974e-08
1.93386e-09
5.07052e-08
1.89165e-09
5.0714e-08
1.85496e-09
5.07249e-08
1.82248e-09
5.07374e-08
1.79094e-09
5.075e-08
1.75618e-09
5.07609e-08
1.71612e-09
5.07684e-08
1.67078e-09
5.07712e-08
1.62099e-09
5.07691e-08
1.56877e-09
5.07635e-08
1.51804e-09
5.0757e-08
1.47291e-09
5.07519e-08
1.43479e-09
5.07498e-08
1.40152e-09
5.07506e-08
1.36943e-09
5.07534e-08
1.33569e-09
5.07568e-08
1.29839e-09
5.0759e-08
1.25631e-09
5.07594e-08
1.21035e-09
5.07583e-08
1.16385e-09
5.07568e-08
1.11956e-09
5.07553e-08
1.07683e-09
5.07533e-08
1.03248e-09
5.07496e-08
9.84091e-10
5.07432e-08
9.3191e-10
5.07343e-08
8.78291e-10
5.07232e-08
8.2575e-10
5.07103e-08
7.75457e-10
5.06957e-08
7.27103e-10
5.0679e-08
6.79943e-10
5.06601e-08
6.33584e-10
5.06389e-08
5.88104e-10
5.06158e-08
5.43715e-10
5.05912e-08
5.00606e-10
5.05658e-08
4.58843e-10
5.05401e-08
4.18591e-10
5.05148e-08
3.80331e-10
5.04902e-08
3.45041e-10
5.04666e-08
3.13892e-10
5.04438e-08
2.87816e-10
5.04215e-08
2.67085e-10
5.03991e-08
2.51361e-10
5.0376e-08
2.39827e-10
5.03517e-08
2.31475e-10
5.03257e-08
2.25153e-10
5.0298e-08
2.1968e-10
5.02687e-08
2.13833e-10
5.0238e-08
2.06631e-10
5.02064e-08
1.97442e-10
5.01744e-08
1.86196e-10
5.01427e-08
1.73217e-10
5.01117e-08
1.59153e-10
5.00819e-08
1.44606e-10
5.00535e-08
1.30116e-10
5.00269e-08
1.15963e-10
5.0002e-08
1.02391e-10
4.9979e-08
8.95054e-11
4.99577e-08
7.75222e-11
4.99382e-08
6.65699e-11
4.99204e-08
5.68779e-11
4.99043e-08
4.84971e-11
4.98898e-08
4.15136e-11
4.98768e-08
3.5787e-11
4.98652e-08
3.1233e-11
4.98548e-08
2.75765e-11
4.98456e-08
2.46945e-11
4.98374e-08
2.22886e-11
4.98301e-08
2.03302e-11
4.98236e-08
1.85432e-11
4.98177e-08
1.70366e-11
4.98124e-08
1.55436e-11
4.98076e-08
1.42853e-11
4.98034e-08
1.29708e-11
4.97995e-08
1.19132e-11
4.97961e-08
1.07445e-11
4.97929e-08
9.89529e-12
4.97901e-08
8.8571e-12
4.97875e-08
8.22502e-12
4.97853e-08
7.29642e-12
4.97832e-08
6.88266e-12
4.97814e-08
6.02597e-12
4.97796e-08
5.83324e-12
5.00164e-12
5.12767e-08
1.76574e-09
-5.12188e-08
5.13556e-08
1.93217e-09
5.14551e-08
2.07972e-09
5.15729e-08
2.21447e-09
5.17026e-08
2.3274e-09
5.18352e-08
2.40828e-09
5.19626e-08
2.45316e-09
5.20785e-08
2.46357e-09
5.21798e-08
2.44376e-09
5.22665e-08
2.402e-09
5.23391e-08
2.34708e-09
5.23977e-08
2.28409e-09
5.24431e-08
2.21661e-09
5.24773e-08
2.14882e-09
5.25024e-08
2.08375e-09
5.25206e-08
2.02327e-09
5.25345e-08
1.96927e-09
5.25459e-08
1.92246e-09
5.25561e-08
1.88143e-09
5.25664e-08
1.84459e-09
5.2578e-08
1.8109e-09
5.25907e-08
1.77823e-09
5.26034e-08
1.74353e-09
5.26145e-08
1.705e-09
5.26228e-08
1.66251e-09
5.26271e-08
1.61664e-09
5.26271e-08
1.56881e-09
5.26235e-08
1.52165e-09
5.26184e-08
1.47799e-09
5.26141e-08
1.4391e-09
5.26119e-08
1.40372e-09
5.26121e-08
1.36925e-09
5.26141e-08
1.33365e-09
5.26169e-08
1.29562e-09
5.26189e-08
1.25425e-09
5.26193e-08
1.20996e-09
5.26182e-08
1.16495e-09
5.26165e-08
1.12124e-09
5.26149e-08
1.07845e-09
5.2613e-08
1.03437e-09
5.26098e-08
9.87305e-10
5.26044e-08
9.37386e-10
5.25964e-08
8.86258e-10
5.25863e-08
8.35841e-10
5.25745e-08
7.87265e-10
5.2561e-08
7.40566e-10
5.25457e-08
6.95289e-10
5.25282e-08
6.5103e-10
5.25087e-08
6.07657e-10
5.24873e-08
5.6512e-10
5.24645e-08
5.23401e-10
5.24409e-08
4.8245e-10
5.2417e-08
4.4243e-10
5.23935e-08
4.03896e-10
5.23705e-08
3.67972e-10
5.23484e-08
3.36029e-10
5.2327e-08
3.09255e-10
5.23059e-08
2.88176e-10
5.22846e-08
2.72646e-10
5.22625e-08
2.61909e-10
5.22391e-08
2.5489e-10
5.2214e-08
2.50252e-10
5.21871e-08
2.46592e-10
5.21585e-08
2.42453e-10
5.21284e-08
2.36669e-10
5.20974e-08
2.28462e-10
5.20659e-08
2.17683e-10
5.20345e-08
2.04623e-10
5.20037e-08
1.89962e-10
5.19739e-08
1.74369e-10
5.19456e-08
1.58498e-10
5.19188e-08
1.42741e-10
5.18937e-08
1.27456e-10
5.18704e-08
1.12819e-10
5.18488e-08
9.91078e-11
5.18289e-08
8.646e-11
5.18107e-08
7.51295e-11
5.1794e-08
6.51528e-11
5.17789e-08
5.66447e-11
5.17652e-08
4.94499e-11
5.17529e-08
4.35307e-11
5.17419e-08
3.85885e-11
5.17321e-08
3.45546e-11
5.17233e-08
3.10842e-11
5.17154e-08
2.82047e-11
5.17084e-08
2.55686e-11
5.1702e-08
2.33471e-11
5.16964e-08
2.11809e-11
5.16913e-08
1.93725e-11
5.16868e-08
1.7514e-11
5.16827e-08
1.60336e-11
5.1679e-08
1.44122e-11
5.16756e-08
1.32419e-11
5.16727e-08
1.18153e-11
5.167e-08
1.09489e-11
5.16676e-08
9.67707e-12
5.16654e-08
9.10879e-12
5.16634e-08
7.9374e-12
5.16616e-08
7.67045e-12
6.53531e-12
5.32533e-08
1.71014e-09
-5.31977e-08
5.33265e-08
1.85899e-09
5.34166e-08
1.98959e-09
5.3522e-08
2.10912e-09
5.36382e-08
2.21123e-09
5.37582e-08
2.28822e-09
5.38756e-08
2.33578e-09
5.39846e-08
2.35461e-09
5.40813e-08
2.34706e-09
5.41649e-08
2.31839e-09
5.4236e-08
2.27595e-09
5.42949e-08
2.22517e-09
5.43422e-08
2.16932e-09