/*--------------------------------*- C++ -*----------------------------------*\
| =========                 |                                                 |
| \\      /  F ield         | OpenFOAM: The Open Source CFD Toolbox           |
|  \\    /   O peration     | Version:  2.3.0                                 |
|   \\  /    A nd           | Web:      www.OpenFOAM.org                      |
|    \\/     M anipulation  |                                                 |
\*---------------------------------------------------------------------------*/
FoamFile
{
    version     2.0;
    format      ascii;
    class       volScalarField;
    location    "0.65";
    object      p;
}
// * * * * * * * * * * * * * * * * * * * * * * * * * * * * * * * * * * * * * //

dimensions      [0 2 -2 0 0 0 0];

internalField   nonuniform List<scalar> 
2889
(
0.00253498
0.00199789
0.00148808
0.00111064
0.000809392
0.000544566
0.000310219
0.000109983
-5.43232e-05
-0.000183568
-0.000280335
-0.000348443
-0.000392569
-0.000417738
-0.00042879
-0.000429979
-0.000424761
-0.000415752
-0.000404801
-0.000393123
-0.000381448
-0.000370167
-0.000359445
-0.000349316
-0.000339738
-0.00033064
-0.000321943
-0.000313576
-0.000305478
-0.000297603
-0.000289915
-0.000282392
-0.000275017
-0.00026778
-0.000260677
-0.000253705
-0.000246864
-0.000240154
-0.000233577
-0.000227133
-0.000220825
-0.000214654
-0.000208622
-0.000202729
-0.000196977
-0.000191366
-0.000185896
-0.000180567
-0.00017538
-0.000170334
-0.000165428
-0.000160661
-0.000156033
-0.000151542
-0.000147187
-0.000142965
-0.000138875
-0.000134915
-0.000131082
-0.000127373
-0.000123786
-0.000120318
-0.000116965
-0.000113724
-0.000110592
-0.000107563
-0.000104635
-0.000101802
-9.90599e-05
-9.64039e-05
-9.38284e-05
-9.13278e-05
-8.88961e-05
-8.6527e-05
-8.42135e-05
-8.19485e-05
-7.97242e-05
-7.75324e-05
-7.53641e-05
-7.32099e-05
-7.10596e-05
-6.89022e-05
-6.67259e-05
-6.45181e-05
-6.22649e-05
-5.99516e-05
-5.75622e-05
-5.50793e-05
-5.24841e-05
-4.97562e-05
-4.68731e-05
-4.38106e-05
-4.05418e-05
-3.70368e-05
-3.32622e-05
-2.9179e-05
-2.47403e-05
-1.9881e-05
-1.44087e-05
-1.00351e-05
0.00225104
0.00186233
0.00145234
0.00111526
0.000830642
0.000573946
0.000343322
0.00014411
-2.07799e-05
-0.000151579
-0.000250504
-0.000321113
-0.000367888
-0.000395702
-0.000409284
-0.000412815
-0.00040971
-0.000402569
-0.000393242
-0.000382956
-0.000372465
-0.000362184
-0.000352307
-0.000342891
-0.000333918
-0.000325337
-0.000317085
-0.000309103
-0.000301342
-0.000293762
-0.000286338
-0.000279049
-0.000271885
-0.000264839
-0.000257908
-0.000251094
-0.000244397
-0.000237819
-0.000231363
-0.000225032
-0.000218828
-0.000212754
-0.000206811
-0.000201002
-0.000195328
-0.00018979
-0.000184389
-0.000179125
-0.000173999
-0.00016901
-0.000164158
-0.000159442
-0.000154863
-0.000150417
-0.000146105
-0.000141924
-0.000137874
-0.00013395
-0.000130153
-0.000126478
-0.000122923
-0.000119485
-0.000116162
-0.000112949
-0.000109843
-0.00010684
-0.000103936
-0.000101127
-9.84077e-05
-9.57734e-05
-9.32188e-05
-9.07384e-05
-8.83262e-05
-8.59758e-05
-8.36804e-05
-8.14329e-05
-7.92255e-05
-7.705e-05
-7.48975e-05
-7.27586e-05
-7.06231e-05
-6.848e-05
-6.63176e-05
-6.41232e-05
-6.18831e-05
-5.95824e-05
-5.72052e-05
-5.47341e-05
-5.21503e-05
-4.94333e-05
-4.65608e-05
-4.35083e-05
-4.0249e-05
-3.6753e-05
-3.29866e-05
-2.89105e-05
-2.44772e-05
-1.96181e-05
-1.40624e-05
-1.00933e-05
0.00204014
0.00174312
0.00140358
0.00109926
0.000832346
0.000589835
0.000370529
0.000178973
1.81439e-05
-0.000111691
-0.0002121
-0.000285917
-0.000336894
-0.000369267
-0.000387282
-0.000394802
-0.000395082
-0.000390683
-0.000383498
-0.00037484
-0.000365567
-0.000356192
-0.000346993
-0.000338094
-0.000329527
-0.000321275
-0.000313301
-0.000305561
-0.000298016
-0.000290633
-0.000283389
-0.000276267
-0.000269257
-0.000262355
-0.000255559
-0.00024887
-0.000242288
-0.000235819
-0.000229463
-0.000223226
-0.00021711
-0.000211117
-0.000205251
-0.000199513
-0.000193906
-0.000188431
-0.000183088
-0.00017788
-0.000172805
-0.000167865
-0.00016306
-0.000158388
-0.00015385
-0.000149444
-0.000145169
-0.000141024
-0.000137006
-0.000133115
-0.000129348
-0.000125702
-0.000122175
-0.000118764
-0.000115465
-0.000112277
-0.000109194
-0.000106214
-0.000103331
-0.000100543
-9.78431e-05
-9.52279e-05
-9.26917e-05
-9.02291e-05
-8.7834e-05
-8.55001e-05
-8.32208e-05
-8.09889e-05
-7.87966e-05
-7.66357e-05
-7.44976e-05
-7.23726e-05
-7.02506e-05
-6.81208e-05
-6.59713e-05
-6.37896e-05
-6.15618e-05
-5.92733e-05
-5.6908e-05
-5.44486e-05
-5.18763e-05
-4.91705e-05
-4.63092e-05
-4.32677e-05
-4.00194e-05
-3.65343e-05
-3.27792e-05
-2.87153e-05
-2.42968e-05
-1.94573e-05
-1.4004e-05
-1.09815e-05
0.00185818
0.00162175
0.00133872
0.00106934
0.000825269
0.000601452
0.000397424
0.000216925
6.29389e-05
-6.37478e-05
-0.000164042
-0.000240043
-0.000294746
-0.000331683
-0.000354522
-0.000366714
-0.000371252
-0.000370571
-0.00036653
-0.000360475
-0.000353322
-0.000345662
-0.000337846
-0.000330065
-0.000322408
-0.000314904
-0.000307552
-0.000300334
-0.000293234
-0.000286235
-0.000279325
-0.000272497
-0.000265748
-0.000259078
-0.00025249
-0.000245989
-0.000239578
-0.000233263
-0.000227049
-0.000220942
-0.000214946
-0.000209064
-0.0002033
-0.000197657
-0.000192139
-0.000186746
-0.000181481
-0.000176345
-0.000171339
-0.000166463
-0.000161718
-0.000157103
-0.000152618
-0.000148263
-0.000144036
-0.000139936
-0.000135962
-0.000132112
-0.000128383
-0.000124774
-0.000121282
-0.000117905
-0.000114638
-0.00011148
-0.000108427
-0.000105474
-0.000102618
-9.98554e-05
-9.71804e-05
-9.45888e-05
-9.20753e-05
-8.96345e-05
-8.72605e-05
-8.4947e-05
-8.26873e-05
-8.04744e-05
-7.83006e-05
-7.61577e-05
-7.4037e-05
-7.1929e-05
-6.98237e-05
-6.77102e-05
-6.55767e-05
-6.34107e-05
-6.11984e-05
-5.89252e-05
-5.6575e-05
-5.41307e-05
-5.15733e-05
-4.88826e-05
-4.60364e-05
-4.30102e-05
-3.97776e-05
-3.63092e-05
-3.25724e-05
-2.85311e-05
-2.41461e-05
-1.93749e-05
-1.42429e-05
-1.25595e-05
0.00169417
0.00150303
0.00126857
0.00103419
0.000814237
0.000609464
0.000420965
0.000252177
0.000106057
-1.62373e-05
-0.000115108
-0.000192081
-0.000249512
-0.000290299
-0.000317544
-0.000334247
-0.000343087
-0.000346303
-0.000345666
-0.000342504
-0.000337765
-0.000332095
-0.000325912
-0.000319472
-0.000312922
-0.000306342
-0.000299769
-0.000293218
-0.000286695
-0.000280201
-0.000273738
-0.000267308
-0.000260917
-0.00025457
-0.000248274
-0.000242038
-0.00023587
-0.000229776
-0.000223766
-0.000217844
-0.000212019
-0.000206295
-0.000200677
-0.00019517
-0.000189776
-0.0001845
-0.000179343
-0.000174309
-0.000169397
-0.00016461
-0.000159948
-0.000155411
-0.000151
-0.000146714
-0.000142552
-0.000138514
-0.000134598
-0.000130803
-0.000127126
-0.000123567
-0.000120122
-0.000116789
-0.000113565
-0.000110448
-0.000107433
-0.000104517
-0.000101696
-9.89668e-05
-9.63239e-05
-9.37631e-05
-9.12791e-05
-8.88666e-05
-8.65198e-05
-8.42326e-05
-8.19983e-05
-7.98099e-05
-7.76599e-05
-7.55401e-05
-7.34418e-05
-7.13557e-05
-6.92719e-05
-6.71793e-05
-6.50665e-05
-6.29209e-05
-6.07288e-05
-5.84757e-05
-5.61455e-05
-5.37213e-05
-5.11842e-05
-4.8514e-05
-4.56888e-05
-4.26844e-05
-3.94748e-05
-3.60315e-05
-3.23241e-05
-2.83214e-05
-2.39993e-05
-1.93713e-05
-1.47568e-05
-1.45198e-05
0.00155067
0.00139329
0.00119827
0.00099533
0.000798421
0.000611979
0.000438658
0.000281778
0.000144157
2.71636e-05
-6.92205e-05
-0.000146051
-0.000205147
-0.000248847
-0.000279732
-0.000300366
-0.000313102
-0.000319965
-0.000322603
-0.000322297
-0.000319998
-0.000316386
-0.000311927
-0.00030693
-0.000301593
-0.000296038
-0.00029034
-0.000284545
-0.000278681
-0.000272769
-0.000266822
-0.000260855
-0.000254882
-0.000248913
-0.000242962
-0.000237041
-0.000231162
-0.000225334
-0.000219568
-0.000213874
-0.000208258
-0.000202728
-0.000197291
-0.000191953
-0.000186717
-0.000181587
-0.000176568
-0.000171663
-0.000166872
-0.000162199
-0.000157644
-0.000153208
-0.000148892
-0.000144696
-0.000140619
-0.000136661
-0.000132821
-0.000129098
-0.000125489
-0.000121995
-0.000118611
-0.000115336
-0.000112168
-0.000109102
-0.000106137
-0.000103269
-0.000100494
-9.78075e-05
-9.52059e-05
-9.26845e-05
-9.02383e-05
-8.78621e-05
-8.555e-05
-8.32962e-05
-8.10941e-05
-7.89368e-05
-7.68168e-05
-7.47261e-05
-7.26562e-05
-7.05977e-05
-6.85409e-05
-6.64749e-05
-6.43882e-05
-6.22684e-05
-6.01021e-05
-5.78746e-05
-5.55703e-05
-5.31721e-05
-5.06615e-05
-4.80186e-05
-4.52216e-05
-4.2247e-05
-3.90694e-05
-3.56622e-05
-3.1998e-05
-2.80543e-05
-2.38307e-05
-1.94206e-05
-1.54238e-05
-1.63873e-05
0.00142488
0.00129231
0.00112853
0.000953066
0.00077787
0.000609141
0.000450635
0.00030564
0.000176822
6.56762e-05
-2.74945e-05
-0.000103339
-0.000163215
-0.000208973
-0.00024273
-0.000266652
-0.00028278
-0.000292919
-0.00029858
-0.000300974
-0.000301031
-0.000299445
-0.000296712
-0.00029318
-0.000289087
-0.000284595
-0.000279811
-0.000274808
-0.000269638
-0.000264338
-0.000258937
-0.000253461
-0.000247931
-0.000242366
-0.000236784
-0.000231201
-0.000225633
-0.000220093
-0.000214594
-0.000209147
-0.000203762
-0.000198447
-0.000193211
-0.00018806
-0.000183001
-0.000178038
-0.000173175
-0.000168416
-0.000163765
-0.000159223
-0.000154792
-0.000150473
-0.000146269
-0.000142178
-0.000138201
-0.000134338
-0.000130589
-0.000126951
-0.000123424
-0.000120007
-0.000116697
-0.000113493
-0.000110391
-0.000107389
-0.000104485
-0.000101675
-9.89546e-05
-9.63211e-05
-9.377e-05
-9.12968e-05
-8.88967e-05
-8.65646e-05
-8.4295e-05
-8.2082e-05
-7.99191e-05
-7.77996e-05
-7.57162e-05
-7.3661e-05
-7.16256e-05
-6.96008e-05
-6.75769e-05
-6.55432e-05
-6.34885e-05
-6.14005e-05
-5.92657e-05
-5.707e-05
-5.47977e-05
-5.24321e-05
-4.9955e-05
-4.73467e-05
-4.45861e-05
-4.16503e-05
-3.85152e-05
-3.51563e-05
-3.15511e-05
-2.76879e-05
-2.35954e-05
-1.94475e-05
-1.60329e-05
-1.76364e-05
0.0013135
0.00119955
0.0010606
0.00090888
0.000753763
0.000601863
0.00045755
0.000324126
0.000204128
9.9129e-05
9.68416e-06
-6.45125e-05
-0.000124425
-0.000171487
-0.000207408
-0.000233995
-0.000252998
-0.000266005
-0.000274384
-0.000279261
-0.00028153
-0.000281877
-0.000280817
-0.000278723
-0.000275866
-0.000272438
-0.000268575
-0.000264375
-0.00025991
-0.000255235
-0.000250392
-0.000245418
-0.000240342
-0.000235191
-0.000229987
-0.000224753
-0.000219506
-0.000214263
-0.00020904
-0.000203849
-0.000198704
-0.000193614
-0.000188588
-0.000183634
-0.000178761
-0.000173973
-0.000169275
-0.000164673
-0.00016017
-0.000155768
-0.00015147
-0.000147279
-0.000143194
-0.000139218
-0.00013535
-0.000131591
-0.000127941
-0.000124397
-0.000120961
-0.000117629
-0.000114402
-0.000111275
-0.000108248
-0.000105318
-0.000102482
-9.97367e-05
-9.7079e-05
-9.45051e-05
-9.2011e-05
-8.95924e-05
-8.72447e-05
-8.49628e-05
-8.27415e-05
-8.05748e-05
-7.84567e-05
-7.63804e-05
-7.43388e-05
-7.23242e-05
-7.03283e-05
-6.83421e-05
-6.6356e-05
-6.43596e-05
-6.23419e-05
-6.02906e-05
-5.81926e-05
-5.60341e-05
-5.37995e-05
-5.14726e-05
-4.90354e-05
-4.64689e-05
-4.37525e-05
-4.08644e-05
-3.7782e-05
-3.44836e-05
-3.09521e-05
-2.71879e-05
-2.32464e-05
-1.93587e-05
-1.63673e-05
-1.78923e-05
0.001214
0.00111451
0.00099542
0.000863953
0.000726996
0.000590787
0.000459892
0.00033759
0.000226305
0.000127634
4.23143e-05
-2.96828e-05
-8.89908e-05
-0.000136686
-0.000174124
-0.000202791
-0.000224168
-0.000239634
-0.000250411
-0.000257532
-0.000261841
-0.000264005
-0.00026454
-0.000263838
-0.000262191
-0.000259814
-0.000256867
-0.00025347
-0.000249714
-0.000245668
-0.000241389
-0.000236922
-0.000232305
-0.000227572
-0.000222752
-0.00021787
-0.000212948
-0.000208007
-0.000203063
-0.000198134
-0.000193232
-0.00018837
-0.000183558
-0.000178807
-0.000174123
-0.000169515
-0.000164987
-0.000160546
-0.000156195
-0.000151938
-0.000147779
-0.000143718
-0.000139759
-0.000135902
-0.000132148
-0.000128498
-0.000124951
-0.000121507
-0.000118165
-0.000114924
-0.000111783
-0.000108739
-0.000105792
-0.000102937
-0.000100174
-9.74979e-05
-9.49067e-05
-9.23964e-05
-8.99633e-05
-8.76032e-05
-8.53117e-05
-8.30837e-05
-8.09143e-05
-7.87976e-05
-7.67277e-05
-7.4698e-05
-7.27016e-05
-7.07308e-05
-6.87777e-05
-6.68334e-05
-6.48885e-05
-6.29329e-05
-6.09556e-05
-5.89447e-05
-5.68875e-05
-5.47702e-05
-5.25779e-05
-5.02945e-05
-4.79027e-05
-4.5384e-05
-4.27187e-05
-3.9886e-05
-3.68653e-05
-3.36378e-05
-3.01919e-05
-2.65382e-05
-2.27501e-05
-1.90777e-05
-1.62839e-05
-1.70675e-05
0.00112435
0.00103644
0.000933375
0.000819062
0.000698278
0.000576509
0.000458187
0.000346489
0.000243719
0.000151456
7.05552e-05
1.20712e-06
-5.6949e-05
-0.000104687
-0.000143058
-0.000173261
-0.000196532
-0.000214056
-0.000226909
-0.000236023
-0.000242185
-0.00024603
-0.000248069
-0.000248696
-0.000248217
-0.000246867
-0.000244823
-0.000242222
-0.000239171
-0.000235755
-0.000232039
-0.000228081
-0.000223926
-0.000219615
-0.000215181
-0.000210653
-0.00020606
-0.000201423
-0.000196762
-0.000192097
-0.000187441
-0.000182811
-0.000178217
-0.00017367
-0.000169179
-0.000164753
-0.000160399
-0.000156121
-0.000151926
-0.000147818
-0.000143799
-0.000139873
-0.000136042
-0.000132307
-0.00012867
-0.000125132
-0.000121691
-0.000118349
-0.000115105
-0.000111958
-0.000108906
-0.000105948
-0.000103082
-0.000100306
-9.76178e-05
-9.5014e-05
-9.24916e-05
-9.00475e-05
-8.76777e-05
-8.53785e-05
-8.31453e-05
-8.09735e-05
-7.8858e-05
-7.67933e-05
-7.47736e-05
-7.27926e-05
-7.08433e-05
-6.89184e-05
-6.70101e-05
-6.51098e-05
-6.32082e-05
-6.12955e-05
-5.9361e-05
-5.73931e-05
-5.53794e-05
-5.33063e-05
-5.11596e-05
-4.89234e-05
-4.65812e-05
-4.41151e-05
-4.15063e-05
-3.87355e-05
-3.57837e-05
-3.2635e-05
-2.92824e-05
-2.5743e-05
-2.20956e-05
-1.85697e-05
-1.57546e-05
-1.53672e-05
0.00104291
0.000964537
0.000874562
0.000774752
0.000668234
0.00055961
0.000452965
0.000351292
0.000256754
0.000170881
9.45986e-05
2.82572e-05
-2.82836e-05
-7.55455e-05
-0.000114319
-0.000145553
-0.000170264
-0.000189454
-0.000204056
-0.000214906
-0.00022272
-0.000228098
-0.000231529
-0.000233408
-0.000234045
-0.000233685
-0.00023252
-0.000230701
-0.000228347
-0.000225555
-0.000222402
-0.000218952
-0.00021526
-0.000211371
-0.000207325
-0.000203155
-0.000198892
-0.000194562
-0.000190188
-0.000185789
-0.000181384
-0.000176987
-0.000172614
-0.000168275
-0.000163981
-0.00015974
-0.000155562
-0.000151452
-0.000147416
-0.000143458
-0.000139584
-0.000135795
-0.000132095
-0.000128486
-0.000124969
-0.000121544
-0.000118214
-0.000114976
-0.000111832
-0.000108781
-0.000105821
-0.000102951
-0.00010017
-9.74744e-05
-9.48632e-05
-9.23334e-05
-8.9882e-05
-8.75059e-05
-8.52014e-05
-8.29647e-05
-8.07917e-05
-7.86777e-05
-7.66178e-05
-7.46068e-05
-7.26388e-05
-7.07079e-05
-6.88073e-05
-6.69298e-05
-6.50678e-05
-6.3213e-05
-6.13564e-05
-5.94884e-05
-5.75985e-05
-5.56755e-05
-5.37074e-05
-5.16811e-05
-4.95825e-05
-4.73967e-05
-4.51076e-05
-4.26981e-05
-4.01504e-05
-3.74465e-05
-3.45692e-05
-3.15048e-05
-2.82495e-05
-2.48221e-05
-2.12944e-05
-1.78465e-05
-1.48552e-05
-1.31715e-05
0.000968362
0.000898028
0.000818897
0.000731376
0.000637362
0.000540598
0.000444708
0.000352435
0.000265784
0.000186208
0.000114658
5.15983e-05
-2.941e-06
-4.92759e-05
-8.79767e-05
-0.000119778
-0.000145499
-0.000165975
-0.000182006
-0.000194325
-0.000203581
-0.000210328
-0.000215029
-0.000218068
-0.000219754
-0.000220337
-0.000220018
-0.000218958
-0.000217286
-0.000215108
-0.000212511
-0.000209566
-0.000206335
-0.000202868
-0.00019921
-0.000195399
-0.000191469
-0.000187448
-0.000183362
-0.000179233
-0.000175081
-0.000170922
-0.000166773
-0.000162645
-0.000158551
-0.000154501
-0.000150502
-0.000146563
-0.000142689
-0.000138887
-0.00013516
-0.000131512
-0.000127947
-0.000124466
-0.000121072
-0.000117766
-0.000114548
-0.000111418
-0.000108378
-0.000105425
-0.00010256
-9.97806e-05
-9.7086e-05
-9.4474e-05
-9.19426e-05
-8.94893e-05
-8.71112e-05
-8.48053e-05
-8.25682e-05
-8.03962e-05
-7.82853e-05
-7.6231e-05
-7.42286e-05
-7.2273e-05
-7.03586e-05
-6.84795e-05
-6.66293e-05
-6.48009e-05
-6.2987e-05
-6.11794e-05
-5.93695e-05
-5.7548e-05
-5.57047e-05
-5.38288e-05
-5.19085e-05
-4.99313e-05
-4.78838e-05
-4.57513e-05
-4.35186e-05
-4.11694e-05
-3.86868e-05
-3.60542e-05
-3.32559e-05
-3.02798e-05
-2.71233e-05
-2.38028e-05
-2.03738e-05
-1.69538e-05
-1.37188e-05
-1.08769e-05
0.000899613
0.000836202
0.000766185
0.000689126
0.000606038
0.000519903
0.00043385
0.000350334
0.000271178
0.00019774
0.000130964
7.13845e-05
1.91591e-05
-2.58638e-05
-6.40727e-05
-9.60189e-05
-0.000122349
-0.000143748
-0.000160891
-0.000174415
-0.000184895
-0.000192835
-0.00019867
-0.000202764
-0.00020542
-0.000206888
-0.000207372
-0.000207038
-0.000206025
-0.000204446
-0.000202393
-0.000199945
-0.000197169
-0.000194121
-0.00019085
-0.000187398
-0.000183801
-0.000180091
-0.000176295
-0.000172438
-0.000168542
-0.000164624
-0.000160702
-0.00015679
-0.0001529
-0.000149042
-0.000145228
-0.000141463
-0.000137756
-0.000134113
-0.000130538
-0.000127035
-0.000123609
-0.000120261
-0.000116993
-0.000113808
-0.000110707
-0.000107689
-0.000104755
-0.000101905
-9.91378e-05
-9.64526e-05
-9.38481e-05
-9.13226e-05
-8.8874e-05
-8.65e-05
-8.4198e-05
-8.19651e-05
-7.97981e-05
-7.76933e-05
-7.5647e-05
-7.36549e-05
-7.17123e-05
-6.98145e-05
-6.7956e-05
-6.6131e-05
-6.43333e-05
-6.25563e-05
-6.07926e-05
-5.90346e-05
-5.72737e-05
-5.55011e-05
-5.37068e-05
-5.18804e-05
-5.00107e-05
-4.80856e-05
-4.6092e-05
-4.40161e-05
-4.18433e-05
-3.95582e-05
-3.71449e-05
-3.45878e-05
-3.18724e-05
-2.89878e-05
-2.59307e-05
-2.27121e-05
-1.93667e-05
-1.59508e-05
-1.24833e-05
-8.78097e-06
0.000835772
0.000778421
0.00071617
0.000648075
0.000574532
0.000497883
0.000420779
0.00034537
0.000273287
0.000205779
0.000143755
8.77847e-05
3.81176e-05
-5.27134e-06
-4.2623e-05
-7.43348e-05
-0.000100905
-0.000122884
-0.000140834
-0.000155297
-0.000166778
-0.00017573
-0.000182552
-0.000187585
-0.00019112
-0.000193402
-0.000194635
-0.000194988
-0.000194603
-0.000193598
-0.000192072
-0.000190109
-0.00018778
-0.000185144
-0.000182256
-0.000179159
-0.000175894
-0.000172494
-0.000168989
-0.000165406
-0.000161768
-0.000158094
-0.000154402
-0.000150708
-0.000147026
-0.000143366
-0.000139739
-0.000136153
-0.000132618
-0.000129137
-0.000125718
-0.000122365
-0.000119082
-0.000115871
-0.000112734
-0.000109675
-0.000106694
-0.000103792
-0.000100969
-9.82252e-05
-9.556e-05
-9.29727e-05
-9.0462e-05
-8.80264e-05
-8.56641e-05
-8.33729e-05
-8.11504e-05
-7.89938e-05
-7.69e-05
-7.48656e-05
-7.28869e-05
-7.09599e-05
-6.90802e-05
-6.72429e-05
-6.54431e-05
-6.3675e-05
-6.19328e-05
-6.02098e-05
-5.84993e-05
-5.67935e-05
-5.50846e-05
-5.33637e-05
-5.16214e-05
-4.98477e-05
-4.80318e-05
-4.6162e-05
-4.4226e-05
-4.22105e-05
-4.01016e-05
-3.78847e-05
-3.55449e-05
-3.30676e-05
-3.04392e-05
-2.7649e-05
-2.46922e-05
-2.15728e-05
-1.83047e-05
-1.48937e-05
-1.12578e-05
-7.03961e-06
0.000776092
0.000724121
0.000668572
0.000608216
0.000543026
0.000474823
0.000405827
0.000337888
0.000272441
0.000210616
0.00015327
0.000100979
5.40529e-05
1.25609e-05
-2.36206e-05
-5.47622e-05
-8.12362e-05
-0.000103476
-0.000121939
-0.000137082
-0.000149342
-0.000159118
-0.000166771
-0.000172617
-0.00017693
-0.000179946
-0.000181865
-0.000182855
-0.00018306
-0.0001826
-0.000181578
-0.000180081
-0.000178184
-0.000175952
-0.000173438
-0.000170692
-0.000167755
-0.000164663
-0.000161448
-0.000158139
-0.00015476
-0.000151331
-0.000147872
-0.0001444
-0.000140927
-0.000137468
-0.000134033
-0.000130631
-0.00012727
-0.000123957
-0.000120699
-0.000117499
-0.000114363
-0.000111294
-0.000108293
-0.000105364
-0.000102508
-9.9726e-05
-9.70183e-05
-9.4385e-05
-9.1826e-05
-8.93406e-05
-8.69278e-05
-8.45861e-05
-8.2314e-05
-8.01094e-05
-7.797e-05
-7.58933e-05
-7.38763e-05
-7.19158e-05
-7.00082e-05
-6.81497e-05
-6.63361e-05
-6.45629e-05
-6.28249e-05
-6.1117e-05
-5.94334e-05
-5.77678e-05
-5.61136e-05
-5.44635e-05
-5.28098e-05
-5.11441e-05
-4.94573e-05
-4.77399e-05
-4.59815e-05
-4.4171e-05
-4.22965e-05
-4.03455e-05
-3.83048e-05
-3.61607e-05
-3.38991e-05
-3.15061e-05
-2.89689e-05
-2.62766e-05
-2.34222e-05
-2.04025e-05
-1.72139e-05
-1.3827e-05
-1.01109e-05
-5.68498e-06
0.000719939
0.0006728
0.000623108
0.000569486
0.000511628
0.000450946
0.000389278
0.000328196
0.000268946
0.000212533
0.000159747
0.000111155
6.70966e-05
2.77104e-05
-7.03753e-06
-3.73156e-05
-6.33909e-05
-8.5595e-05
-0.000104295
-0.000119868
-0.000132685
-0.000143095
-0.000151418
-0.000157943
-0.000162925
-0.000166586
-0.000169118
-0.000170687
-0.000171435
-0.000171483
-0.000170936
-0.000169882
-0.0001684
-0.000166556
-0.000164406
-0.000162002
-0.000159388
-0.0001566
-0.000153673
-0.000150637
-0.000147516
-0.000144333
-0.000141109
-0.00013786
-0.000134601
-0.000131345
-0.000128105
-0.00012489
-0.000121708
-0.000118567
-0.000115474
-0.000112432
-0.000109448
-0.000106525
-0.000103665
-0.000100871
-9.8144e-05
-9.54864e-05
-9.28983e-05
-9.03801e-05
-8.79317e-05
-8.55525e-05
-8.32418e-05
-8.09983e-05
-7.88205e-05
-7.67066e-05
-7.46544e-05
-7.26616e-05
-7.07252e-05
-6.88424e-05
-6.70097e-05
-6.52235e-05
-6.34797e-05
-6.1774e-05
-6.01016e-05
-5.84575e-05
-5.68361e-05
-5.52316e-05
-5.36373e-05
-5.20465e-05
-5.04518e-05
-4.8845e-05
-4.72177e-05
-4.55606e-05
-4.38638e-05
-4.21167e-05
-4.03082e-05
-3.84264e-05
-3.64587e-05
-3.43921e-05
-3.22135e-05
-2.99097e-05
-2.74683e-05
-2.48781e-05
-2.21297e-05
-1.92137e-05
-1.61137e-05
-1.27806e-05
-9.07349e-06
-4.67134e-06
0.000666769
0.000624014
0.000579496
0.000531783
0.000480393
0.000426414
0.000371363
0.000316562
0.000263077
0.00021179
0.000163419
0.000118501
7.73908e-05
4.027e-05
7.17217e-06
-2.19906e-05
-4.73989e-05
-6.9299e-05
-8.79779e-05
-0.000103742
-0.000116901
-0.000127755
-0.000136585
-0.00014365
-0.000149183
-0.000153391
-0.000156456
-0.000158538
-0.000159775
-0.000160288
-0.00016018
-0.000159542
-0.000158451
-0.000156977
-0.000155177
-0.000153104
-0.000150803
-0.000148313
-0.00014567
-0.000142903
-0.000140039
-0.000137102
-0.000134112
-0.000131088
-0.000128044
-0.000124995
-0.000121953
-0.000118928
-0.000115929
-0.000112964
-0.000110039
-0.00010716
-0.000104333
-0.00010156
-9.88444e-05
-9.61897e-05
-9.35974e-05
-9.10689e-05
-8.86051e-05
-8.62066e-05
-8.38733e-05
-8.16049e-05
-7.94008e-05
-7.72598e-05
-7.51806e-05
-7.31617e-05
-7.12009e-05
-6.9296e-05
-6.74444e-05
-6.56433e-05
-6.38895e-05
-6.21794e-05
-6.05094e-05
-5.88751e-05
-5.72722e-05
-5.56957e-05
-5.41405e-05
-5.26007e-05
-5.10704e-05
-4.95429e-05
-4.80111e-05
-4.64674e-05
-4.49037e-05
-4.33111e-05
-4.16804e-05
-4.00014e-05
-3.82636e-05
-3.64557e-05
-3.45659e-05
-3.25821e-05
-3.04918e-05
-2.82824e-05
-2.59419e-05
-2.34587e-05
-2.08213e-05
-1.80159e-05
-1.50182e-05
-1.17723e-05
-8.15112e-06
-3.92206e-06
0.000616114
0.000577371
0.00053747
0.000494986
0.000449331
0.000401343
0.00035227
0.000303215
0.00025508
0.00020863
0.000164506
0.000123207
8.50852e-05
5.03478e-05
1.90758e-05
-8.75704e-06
-3.32622e-05
-5.46149e-05
-7.30338e-05
-8.87627e-05
-0.000102056
-0.000113167
-0.000122339
-0.000129801
-0.000135763
-0.000140414
-0.000143926
-0.000146449
-0.000148116
-0.000149043
-0.000149334
-0.000149078
-0.000148352
-0.000147225
-0.000145758
-0.000144002
-0.000142003
-0.000139803
-0.000137437
-0.000134935
-0.000132325
-0.000129632
-0.000126877
-0.000124077
-0.00012125
-0.00011841
-0.000115568
-0.000112736
-0.000109924
-0.000107138
-0.000104386
-0.000101675
-9.90076e-05
-9.63896e-05
-9.3824e-05
-9.13134e-05
-8.88601e-05
-8.64655e-05
-8.41309e-05
-8.18567e-05
-7.96432e-05
-7.74903e-05
-7.53973e-05
-7.33634e-05
-7.13875e-05
-6.94679e-05
-6.76029e-05
-6.57903e-05
-6.40278e-05
-6.23127e-05
-6.06419e-05
-5.90122e-05
-5.742e-05
-5.58614e-05
-5.4332e-05
-5.28273e-05
-5.13422e-05
-4.98715e-05
-4.84092e-05
-4.69492e-05
-4.54847e-05
-4.40084e-05
-4.25128e-05
-4.09893e-05
-3.94293e-05
-3.78232e-05
-3.61611e-05
-3.44323e-05
-3.26258e-05
-3.07302e-05
-2.87336e-05
-2.66242e-05
-2.43903e-05
-2.20198e-05
-1.94999e-05
-1.68142e-05
-1.3935e-05
-1.08084e-05
-7.33258e-06
-3.35937e-06
0.00056756
0.000532522
0.000496783
0.000458966
0.000418428
0.000375815
0.000332151
0.000288352
0.000245174
0.000203273
0.000163213
0.000125449
9.03193e-05
5.80427e-05
2.87314e-05
2.40471e-06
-2.09951e-05
-4.15853e-05
-5.95271e-05
-7.50099e-05
-8.8239e-05
-9.9425e-05
-0.000108775
-0.000116489
-0.000122753
-0.000127739
-0.000131604
-0.000134488
-0.000136517
-0.000137803
-0.000138445
-0.000138531
-0.000138137
-0.000137332
-0.000136174
-0.000134717
-0.000133007
-0.000131085
-0.000128987
-0.000126744
-0.000124384
-0.000121932
-0.000119409
-0.000116834
-0.000114224
-0.000111593
-0.000108954
-0.000106318
-0.000103694
-0.000101091
-9.85163e-05
-9.59754e-05
-9.34735e-05
-9.10149e-05
-8.86034e-05
-8.62416e-05
-8.39319e-05
-8.1676e-05
-7.94751e-05
-7.73301e-05
-7.52411e-05
-7.32083e-05
-7.12312e-05
-6.93091e-05
-6.74409e-05
-6.56253e-05
-6.38605e-05
-6.21448e-05
-6.04757e-05
-5.88509e-05
-5.72675e-05
-5.57225e-05
-5.42123e-05
-5.27335e-05
-5.12818e-05
-4.98531e-05
-4.84425e-05
-4.7045e-05
-4.56551e-05
-4.42669e-05
-4.2874e-05
-4.14697e-05
-4.00467e-05
-3.85971e-05
-3.71127e-05
-3.55845e-05
-3.40031e-05
-3.23588e-05
-3.0641e-05
-2.88391e-05
-2.69421e-05
-2.49386e-05
-2.28171e-05
-2.05658e-05
-1.81711e-05
-1.56155e-05
-1.28715e-05
-9.8924e-06
-6.60364e-06
-2.92327e-06
0.000520732
0.000489135
0.000457181
0.000423564
0.000387628
0.000349864
0.000311115
0.000272137
0.00023356
0.000195939
0.000159764
0.000125443
9.32914e-05
6.35284e-05
3.62846e-05
1.1611e-05
-1.05091e-05
-3.01472e-05
-4.74166e-05
-6.24606e-05
-7.54413e-05
-8.65305e-05
-9.59022e-05
-0.000103727
-0.000110169
-0.00011538
-0.000119502
-0.000122666
-0.000124988
-0.000126573
-0.000127517
-0.000127903
-0.000127806
-0.000127292
-0.000126421
-0.000125243
-0.000123806
-0.000122149
-0.000120308
-0.000118316
-0.0001162
-0.000113985
-0.000111692
-0.00010934
-0.000106947
-0.000104526
-0.000102092
-9.96535e-05
-9.7222e-05
-9.48054e-05
-9.24109e-05
-9.00448e-05
-8.77122e-05
-8.54177e-05
-8.31648e-05
-8.09565e-05
-7.87953e-05
-7.6683e-05
-7.4621e-05
-7.261e-05
-7.06506e-05
-6.87429e-05
-6.68867e-05
-6.50812e-05
-6.33256e-05
-6.16188e-05
-5.99591e-05
-5.83448e-05
-5.6774e-05
-5.52441e-05
-5.37527e-05
-5.22969e-05
-5.08734e-05
-4.94789e-05
-4.81095e-05
-4.67613e-05
-4.54297e-05
-4.411e-05
-4.27971e-05
-4.14854e-05
-4.0169e-05
-3.88415e-05
-3.74961e-05
-3.61254e-05
-3.47217e-05
-3.32767e-05
-3.17817e-05
-3.02274e-05
-2.86042e-05
-2.69021e-05
-2.51107e-05
-2.32194e-05
-2.12171e-05
-1.90922e-05
-1.68311e-05
-1.44167e-05
-1.18241e-05
-9.01585e-06
-5.9418e-06
-2.56432e-06
0.000466785
0.000439015
0.000411175
0.000382076
0.000351072
0.000318516
0.000285072
0.00025134
0.00021782
0.000184963
0.000153176
0.00012281
9.41492e-05
6.74022e-05
4.27087e-05
2.01437e-05
-2.74557e-07
-1.8576e-05
-3.48291e-05
-4.91315e-05
-6.16017e-05
-7.2371e-05
-8.15772e-05
-8.93596e-05
-9.58548e-05
-0.000101194
-0.0001055
-0.000108889
-0.000111466
-0.000113327
-0.000114561
-0.000115247
-0.000115454
-0.000115246
-0.00011468
-0.000113806
-0.000112669
-0.000111308
-0.000109759
-0.000108053
-0.000106218
-0.000104277
-0.000102253
-0.000100164
-9.80269e-05
-9.58564e-05
-9.36652e-05
-9.14645e-05
-8.9264e-05
-8.7072e-05
-8.4896e-05
-8.2742e-05
-8.06154e-05
-7.85208e-05
-7.64617e-05
-7.44414e-05
-7.24623e-05
-7.05263e-05
-6.86349e-05
-6.6789e-05
-6.49894e-05
-6.32361e-05
-6.15292e-05
-5.9868e-05
-5.8252e-05
-5.668e-05
-5.51507e-05
-5.36626e-05
-5.22138e-05
-5.08022e-05
-4.94255e-05
-4.80809e-05
-4.67658e-05
-4.54767e-05
-4.42104e-05
-4.29631e-05
-4.17307e-05
-4.05088e-05
-3.92928e-05
-3.80774e-05
-3.68574e-05
-3.56267e-05
-3.43793e-05
-3.31083e-05
-3.18066e-05
-3.04668e-05
-2.90808e-05
-2.76402e-05
-2.61362e-05
-2.45597e-05
-2.29011e-05
-2.11507e-05
-1.92981e-05
-1.73322e-05
-1.52403e-05
-1.30068e-05
-1.06115e-05
-8.02818e-06
-5.23011e-06
-2.20785e-06
0.000404934
0.000381332
0.000357869
0.000333507
0.000307644
0.00028052
0.000252639
0.000224457
0.000196354
0.000168674
0.000141742
0.000115843
9.12179e-05
6.80534e-05
4.64853e-05
2.65996e-05
8.43784e-06
-7.99818e-06
-2.27397e-05
-3.58445e-05
-4.73908e-05
-5.74712e-05
-6.61872e-05
-7.36452e-05
-7.99529e-05
-8.5216e-05
-8.95368e-05
-9.30124e-05
-9.57335e-05
-9.77845e-05
-9.9243e-05
-0.00010018
-0.000100659
-0.000100739
-0.000100472
-9.99051e-05
-9.908e-05
-9.80344e-05
-9.68017e-05
-9.54117e-05
-9.38906e-05
-9.22619e-05
-9.05462e-05
-8.87619e-05
-8.69249e-05
-8.50495e-05
-8.3148e-05
-8.12312e-05
-7.93086e-05
-7.73885e-05
-7.54779e-05
-7.35829e-05
-7.17088e-05
-6.98599e-05
-6.804e-05
-6.62522e-05
-6.44989e-05
-6.27821e-05
-6.11034e-05
-5.94639e-05
-5.78641e-05
-5.63046e-05
-5.47852e-05
-5.33057e-05
-5.18655e-05
-5.04639e-05
-4.90995e-05
-4.77713e-05
-4.64774e-05
-4.52161e-05
-4.39854e-05
-4.27828e-05
-4.16059e-05
-4.04519e-05
-3.93176e-05
-3.81998e-05
-3.70949e-05
-3.59989e-05
-3.49077e-05
-3.38167e-05
-3.27211e-05
-3.16158e-05
-3.04951e-05
-2.93531e-05
-2.81835e-05
-2.69797e-05
-2.57346e-05
-2.44408e-05
-2.30905e-05
-2.16756e-05
-2.01878e-05
-1.86181e-05
-1.69575e-05
-1.5196e-05
-1.33226e-05
-1.13248e-05
-9.18824e-06
-6.898e-06
-4.44508e-06
-1.83885e-06
0.000340665
0.000321204
0.000302004
0.000282185
0.000261219
0.000239263
0.00021669
0.000193836
0.000170978
0.000148374
0.000126268
0.000104885
8.4419e-05
6.50272e-05
4.68316e-05
2.9918e-05
1.43383e-05
1.14127e-07
-1.27601e-05
-2.43125e-05
-3.45893e-05
-4.36509e-05
-5.15674e-05
-5.84158e-05
-6.42765e-05
-6.92308e-05
-7.33592e-05
-7.67399e-05
-7.94474e-05
-8.15523e-05
-8.31201e-05
-8.42118e-05
-8.48833e-05
-8.51856e-05
-8.51652e-05
-8.48641e-05
-8.43201e-05
-8.35673e-05
-8.26362e-05
-8.1554e-05
-8.0345e-05
-7.90306e-05
-7.76302e-05
-7.61606e-05
-7.46368e-05
-7.3072e-05
-7.14778e-05
-6.98643e-05
-6.82403e-05
-6.66137e-05
-6.49911e-05
-6.33783e-05
-6.17802e-05
-6.0201e-05
-5.86443e-05
-5.71131e-05
-5.56096e-05
-5.4136e-05
-5.26936e-05
-5.12836e-05
-4.99068e-05
-4.85636e-05
-4.72541e-05
-4.59782e-05
-4.47354e-05
-4.35252e-05
-4.23465e-05
-4.11983e-05
-4.00793e-05
-3.89879e-05
-3.79224e-05
-3.68808e-05
-3.58609e-05
-3.48603e-05
-3.38764e-05
-3.29063e-05
-3.19469e-05
-3.0995e-05
-3.00468e-05
-2.90985e-05
-2.81459e-05
-2.71846e-05
-2.62098e-05
-2.52165e-05
-2.41991e-05
-2.31521e-05
-2.20694e-05