/*--------------------------------*- C++ -*----------------------------------*\
| =========                 |                                                 |
| \\      /  F ield         | OpenFOAM: The Open Source CFD Toolbox           |
|  \\    /   O peration     | Version:  2.3.0                                 |
|   \\  /    A nd           | Web:      www.OpenFOAM.org                      |
|    \\/     M anipulation  |                                                 |
\*---------------------------------------------------------------------------*/
FoamFile
{
    version     2.0;
    format      ascii;
    class       volScalarField;
    location    "0.8";
    object      p;
}
// * * * * * * * * * * * * * * * * * * * * * * * * * * * * * * * * * * * * * //

dimensions      [0 2 -2 0 0 0 0];

internalField   nonuniform List<scalar> 
217
(
0.000462109
0.00045342
0.00038898
0.000316264
0.000260266
0.000227498
0.000197181
0.000170879
0.000151383
0.000132018
0.000117231
0.000101067
8.3249e-05
6.08278e-05
3.12974e-05
8.68452e-07
-4.28708e-05
-9.40271e-05
-0.000137787
-0.000182275
-0.000209584
-0.000208318
-0.000184086
-0.000128168
-4.93534e-05
0.000341011
0.000353873
0.000343814
0.000303697
0.000256378
0.000221399
0.000186877
0.000159388
0.000141302
0.000123074
0.000109408
9.43821e-05
7.73584e-05
5.59607e-05
2.77566e-05
-4.7474e-07
-4.22102e-05
-9.10004e-05
-0.000131768
-0.000173657
-0.000199924
-0.000198669
-0.000176785
-0.000122819
-4.54108e-05
0.000284341
0.000306563
0.000315246
0.000294749
0.0002572
0.00021904
0.00017948
0.000148976
0.000128709
0.000110884
9.81008e-05
8.38882e-05
6.86267e-05
4.95957e-05
2.36578e-05
-2.42957e-06
-4.0207e-05
-8.24187e-05
-0.000117081
-0.000152272
-0.000174265
-0.00017332
-0.000155102
-0.000109199
-3.94651e-05
0.000224559
0.000247592
0.000263783
0.000256746
0.000231628
0.000201132
0.000163484
0.000131252
0.000109765
9.22075e-05
8.06244e-05
6.88246e-05
5.61217e-05
4.10049e-05
1.81388e-05
-5.1301e-06
-3.58178e-05
-7.06833e-05
-0.000100075
-0.00012709
-0.00014419
-0.000144317
-0.000129081
-9.19088e-05
-3.28028e-05
0.000162588
0.000186772
0.000207438
0.000210361
0.000198137
0.000175703
0.000142676
0.000113379
9.25627e-05
7.38961e-05
6.34202e-05
5.48812e-05
4.4104e-05
3.2431e-05
1.46595e-05
-4.88457e-06
-2.84464e-05
-5.59294e-05
-7.92927e-05
-9.82603e-05
-0.000111567
-0.00011258
-9.94657e-05
-7.10795e-05
-2.50917e-05
0.000101147
0.000123841
0.000146304
0.000155082
0.00015223
0.000138279
0.000112857
8.9083e-05
7.01724e-05
5.42729e-05
4.61168e-05
3.8312e-05
3.06844e-05
2.34397e-05
1.08443e-05
-3.65248e-06
-2.04206e-05
-3.98119e-05
-5.62027e-05
-6.82977e-05
-7.77839e-05
-7.90089e-05
-6.86887e-05
-4.91714e-05
-1.78527e-05
2.20477e-05
3.57448e-05
5.31486e-05
6.26419e-05
6.55262e-05
6.3155e-05
5.09273e-05
3.96712e-05
3.16864e-05
2.16812e-05
1.7512e-05
1.52353e-05
1.16266e-05
9.22315e-06
4.20247e-06
-2.29117e-06
-7.6296e-06
-1.4471e-05
-2.21314e-05
-2.59292e-05
-2.85846e-05
-2.9976e-05
-2.55851e-05
-1.77742e-05
-6.57956e-06
0.000100222
0.000134598
0.000188885
0.000254311
0.000322564
0.000392728
0.000109781
0.000134367
0.000177415
0.000224745
0.000274415
0.000314431
0.000109405
0.000129177
0.000160684
0.000194757
0.000231251
0.00026094
0.000107282
0.000122098
0.000141761
0.000161818
0.000185682
0.000205781
9.82345e-05
0.000108604
0.000117516
0.000124534
0.000137176
0.000148258
8.1187e-05
8.67183e-05
8.75383e-05
8.51738e-05
8.70311e-05
9.07218e-05
4.10041e-05
4.22224e-05
3.82085e-05
2.97102e-05
2.2556e-05
1.88229e-05
)
;

boundaryField
{
    top
    {
        type            fixedValue;
        value           uniform 0;
    }
    inlet
    {
        type            zeroGradient;
    }
    outlet
    {
        type            fixedValue;
        value           uniform 0;
    }
    plate
    {
        type            zeroGradient;
    }
    symmBound
    {
        type            zeroGradient;
    }
    frontAndBack
    {
        type            empty;
    }
}


// ************************************************************************* //
