/*--------------------------------*- C++ -*----------------------------------*\
| =========                 |                                                 |
| \\      /  F ield         | OpenFOAM: The Open Source CFD Toolbox           |
|  \\    /   O peration     | Version:  2.3.0                                 |
|   \\  /    A nd           | Web:      www.OpenFOAM.org                      |
|    \\/     M anipulation  |                                                 |
\*---------------------------------------------------------------------------*/
FoamFile
{
    version     2.0;
    format      ascii;
    class       volScalarField;
    location    "0.1";
    object      p;
}
// * * * * * * * * * * * * * * * * * * * * * * * * * * * * * * * * * * * * * //

dimensions      [0 2 -2 0 0 0 0];

internalField   nonuniform List<scalar> 
217
(
0.000704664
0.000574017
0.000425536
0.00030522
0.000188485
0.000118454
8.30612e-05
1.82054e-05
-7.50575e-05
-0.000137068
-0.000142711
-0.000115307
-8.29789e-05
-5.74923e-05
-3.96287e-05
-2.7496e-05
-1.91981e-05
-1.34443e-05
-9.38482e-06
-6.48978e-06
-4.41391e-06
-2.91974e-06
-1.82658e-06
-9.93195e-07
-3.15782e-07
0.000548599
0.000453866
0.000375951
0.000300004
0.000187349
0.000105369
7.08453e-05
1.60093e-05
-6.91914e-05
-0.000128009
-0.000134008
-0.000109013
-7.9466e-05
-5.58962e-05
-3.89135e-05
-2.70437e-05
-1.88921e-05
-1.32331e-05
-9.23683e-06
-6.38635e-06
-4.34333e-06
-2.87288e-06
-1.79744e-06
-9.77282e-07
-3.10002e-07
0.000480712
0.00040042
0.000336159
0.000298025
0.00020192
9.93135e-05
5.39701e-05
1.98263e-05
-3.80661e-05
-8.67366e-05
-9.85259e-05
-8.48857e-05
-6.54789e-05
-4.86449e-05
-3.5449e-05
-2.53984e-05
-1.80098e-05
-1.27001e-05
-8.89196e-06
-6.15629e-06
-4.19012e-06
-2.77264e-06
-1.73547e-06
-9.44617e-07
-2.99664e-07
0.000392071
0.00033839
0.000276387
0.000251336
0.000187773
9.27342e-05
4.07159e-05
1.73011e-05
-2.27314e-05
-6.56948e-05
-8.20477e-05
-7.42812e-05
-5.89331e-05
-4.45397e-05
-3.27189e-05
-2.35229e-05
-1.67137e-05
-1.18027e-05
-8.27183e-06
-5.73026e-06
-3.90219e-06
-2.58322e-06
-1.61775e-06
-8.81565e-07
-2.79582e-07
0.000296229
0.000272176
0.00021789
0.000193392
0.000158526
8.78505e-05
3.41769e-05
1.32931e-05
-9.11082e-06
-3.81999e-05
-5.36886e-05
-5.18853e-05
-4.32503e-05
-3.43979e-05
-2.64838e-05
-1.96904e-05
-1.42803e-05
-1.02073e-05
-7.20552e-06
-5.01246e-06
-3.42166e-06
-2.26844e-06
-1.42217e-06
-7.76238e-07
-2.46466e-07
0.00020175
0.000193349
0.000156175
0.000133167
0.000114952
7.28214e-05
3.0476e-05
1.13551e-05
-1.89493e-06
-2.06378e-05
-3.40379e-05
-3.57254e-05
-3.10482e-05
-2.53002e-05
-1.98718e-05
-1.50017e-05
-1.09858e-05
-7.9018e-06
-5.60427e-06
-3.91231e-06
-2.67765e-06
-1.77877e-06
-1.11721e-06
-6.11574e-07
-1.95439e-07
7.15678e-05
7.1068e-05
6.07492e-05
5.10986e-05
4.48031e-05
3.1411e-05
1.44772e-05
4.5352e-06
-1.86534e-07
-5.57335e-06
-1.04784e-05
-1.20545e-05
-1.10241e-05
-9.28834e-06
-7.54959e-06
-5.89055e-06
-4.42865e-06
-3.25156e-06
-2.34422e-06
-1.65707e-06
-1.14434e-06
-7.64748e-07
-4.822e-07
-2.64317e-07
-8.37744e-08
5.72662e-05
0.000161547
0.000329237
0.000373723
0.000554551
0.000688304
6.82444e-05
0.000158826
0.000318159
0.000356111
0.000439622
0.000556794
7.31374e-05
0.000147417
0.000295289
0.000330911
0.000365071
0.00046306
7.85729e-05
0.000135655
0.000252714
0.000293008
0.000300638
0.000361773
7.57688e-05
0.000114778
0.000202606
0.000244941
0.000237976
0.000264095
6.36254e-05
8.98938e-05
0.000144801
0.000176077
0.00017114
0.000181135
2.98185e-05
3.75684e-05
5.52639e-05
6.81693e-05
6.79215e-05
6.74844e-05
)
;

boundaryField
{
    top
    {
        type            fixedValue;
        value           uniform 0;
    }
    inlet
    {
        type            zeroGradient;
    }
    outlet
    {
        type            fixedValue;
        value           uniform 0;
    }
    plate
    {
        type            zeroGradient;
    }
    symmBound
    {
        type            zeroGradient;
    }
    frontAndBack
    {
        type            empty;
    }
}


// ************************************************************************* //
