/*--------------------------------*- C++ -*----------------------------------*\
| =========                 |                                                 |
| \\      /  F ield         | OpenFOAM: The Open Source CFD Toolbox           |
|  \\    /   O peration     | Version:  2.3.0                                 |
|   \\  /    A nd           | Web:      www.OpenFOAM.org                      |
|    \\/     M anipulation  |                                                 |
\*---------------------------------------------------------------------------*/
FoamFile
{
    version     2.0;
    format      ascii;
    class       volVectorField;
    location    "0.1";
    object      U_0;
}
// * * * * * * * * * * * * * * * * * * * * * * * * * * * * * * * * * * * * * //

dimensions      [0 1 -1 0 0 0 0];

internalField   nonuniform List<vector> 
217
(
(0.195297 0.000822413 0)
(0.190747 0.00187582 0)
(0.184071 0.00255651 0)
(0.176866 0.00222129 0)
(0.171728 0.00166015 0)
(0.166895 0.00181452 0)
(0.160196 0.00221844 0)
(0.152497 0.00211209 0)
(0.145809 0.00151035 0)
(0.141172 0.000841262 0)
(0.138557 0.000371465 0)
(0.13738 0.000127332 0)
(0.13697 3.04006e-05 0)
(0.136864 1.58841e-06 0)
(0.136846 -3.99124e-06 0)
(0.136845 -3.69768e-06 0)
(0.136844 -2.57407e-06 0)
(0.136842 -1.71099e-06 0)
(0.13684 -1.1494e-06 0)
(0.136837 -7.82016e-07 0)
(0.136836 -5.36705e-07 0)
(0.136835 -3.47315e-07 0)
(0.136833 -2.32035e-07 0)
(0.136833 -1.10107e-07 0)
(0.136832 -8.29356e-09 0)
(0.198124 0.00168348 0)
(0.198752 0.00290519 0)
(0.198686 0.00396052 0)
(0.198273 0.00377275 0)
(0.198363 0.0028859 0)
(0.198174 0.00285412 0)
(0.197276 0.00355127 0)
(0.196352 0.003761 0)
(0.195814 0.00306318 0)
(0.195504 0.00196122 0)
(0.195301 0.00101107 0)
(0.195202 0.000421847 0)
(0.195171 0.000141768 0)
(0.195151 3.92197e-05 0)
(0.19512 1.1074e-05 0)
(0.195081 5.63134e-06 0)
(0.195044 4.79906e-06 0)
(0.195012 4.19326e-06 0)
(0.194987 3.31455e-06 0)
(0.194969 2.46054e-06 0)
(0.194956 1.6741e-06 0)
(0.194947 1.22912e-06 0)
(0.19494 7.62246e-07 0)
(0.194937 6.8345e-07 0)
(0.194932 5.26765e-07 0)
(0.198273 0.00159704 0)
(0.19875 0.00217543 0)
(0.199172 0.00280507 0)
(0.199359 0.00291688 0)
(0.199828 0.00247268 0)
(0.200166 0.00248799 0)
(0.200272 0.00298466 0)
(0.200646 0.0029855 0)
(0.201209 0.00222053 0)
(0.201461 0.00125674 0)
(0.201287 0.000563547 0)
(0.200933 0.000208313 0)
(0.2006 7.33782e-05 0)
(0.200348 3.8601e-05 0)
(0.20017 3.36911e-05 0)
(0.200051 3.12622e-05 0)
(0.199971 2.62888e-05 0)
(0.199918 2.028e-05 0)
(0.199881 1.46967e-05 0)
(0.199856 1.03552e-05 0)
(0.199839 6.96862e-06 0)
(0.199827 4.89735e-06 0)
(0.199818 3.09614e-06 0)
(0.199814 2.43886e-06 0)
(0.199807 1.58592e-06 0)
(0.198716 0.00165218 0)
(0.199046 0.00209207 0)
(0.199489 0.00242439 0)
(0.199526 0.00277147 0)
(0.199766 0.00274574 0)
(0.20018 0.00261976 0)
(0.200457 0.00275363 0)
(0.200824 0.00277823 0)
(0.201293 0.00235842 0)
(0.201497 0.00169086 0)
(0.201328 0.00108399 0)
(0.201001 0.00065291 0)
(0.200705 0.000382853 0)
(0.200488 0.000227196 0)
(0.200336 0.000141183 0)
(0.200231 9.24734e-05 0)
(0.200158 6.26581e-05 0)
(0.200108 4.3064e-05 0)
(0.200073 2.95048e-05 0)
(0.200048 2.02454e-05 0)
(0.200031 1.35058e-05 0)
(0.200019 9.3879e-06 0)
(0.20001 5.95031e-06 0)
(0.200006 4.56995e-06 0)
(0.2 2.85474e-06 0)
(0.199133 0.0016533 0)
(0.19926 0.00205219 0)
(0.199636 0.00221316 0)
(0.199665 0.00243595 0)
(0.199789 0.00259383 0)
(0.200183 0.00255243 0)
(0.200468 0.00251642 0)
(0.200649 0.0024252 0)
(0.200891 0.00206502 0)
(0.201057 0.00151474 0)
(0.201006 0.00100783 0)
(0.200816 0.000650035 0)
(0.200611 0.00042296 0)
(0.200442 0.00028201 0)
(0.200312 0.000193104 0)
(0.200216 0.000134506 0)
(0.200149 9.39966e-05 0)
(0.200102 6.54145e-05 0)
(0.20007 4.50091e-05 0)
(0.200047 3.09098e-05 0)
(0.200031 2.06481e-05 0)
(0.200021 1.43195e-05 0)
(0.200013 9.09389e-06 0)
(0.200009 6.92072e-06 0)
(0.200004 4.24774e-06 0)
(0.199482 0.00156686 0)
(0.199521 0.00192805 0)
(0.199793 0.00209258 0)
(0.199843 0.00222937 0)
(0.199852 0.00238919 0)
(0.200086 0.00239241 0)
(0.200331 0.00227505 0)
(0.200468 0.00212975 0)
(0.200605 0.00189156 0)
(0.200714 0.00153391 0)
(0.200699 0.00115179 0)
(0.200583 0.000829551 0)
(0.200447 0.000584832 0)
(0.20033 0.0004065 0)
(0.200238 0.000280526 0)
(0.200168 0.000193352 0)
(0.200117 0.000133131 0)
(0.200081 9.14621e-05 0)
(0.200056 6.23433e-05 0)
(0.200038 4.25221e-05 0)
(0.200025 2.82999e-05 0)
(0.200017 1.95359e-05 0)
(0.20001 1.23915e-05 0)
(0.200007 9.36961e-06 0)
(0.200003 5.68007e-06 0)
(0.199866 0.00158986 0)
(0.199848 0.00185749 0)
(0.199916 0.00201667 0)
(0.199946 0.00208948 0)
(0.199953 0.00219163 0)
(0.200037 0.0022353 0)
(0.200141 0.00214484 0)
(0.200192 0.00198141 0)
(0.200219 0.00176962 0)
(0.200246 0.00149054 0)
(0.200248 0.00117822 0)
(0.200219 0.000892948 0)
(0.200176 0.000661541 0)
(0.200136 0.000481883 0)
(0.200102 0.00034583 0)
(0.200075 0.000245448 0)
(0.200053 0.000172606 0)
(0.200037 0.000120389 0)
(0.200026 8.29686e-05 0)
(0.200018 5.70279e-05 0)
(0.200012 3.82098e-05 0)
(0.200008 2.64484e-05 0)
(0.200005 1.68474e-05 0)
(0.200004 1.26841e-05 0)
(0.200002 7.57461e-06 0)
(0.195044 -0.000549154 0)
(0.206982 -0.000577368 0)
(0.193946 0.00149957 0)
(0.203854 0.000769116 0)
(0.195221 -0.00015897 0)
(0.201575 1.28784e-05 0)
(0.199631 -0.000666206 0)
(0.199834 -0.000650795 0)
(0.198162 0.00189261 0)
(0.200109 0.0010825 0)
(0.199881 0.000183156 0)
(0.198518 0.000627192 0)
(0.200207 -0.000320287 0)
(0.19913 -0.000481647 0)
(0.198535 0.00119701 0)
(0.19993 0.00116618 0)
(0.200232 0.000484996 0)
(0.198944 0.000862547 0)
(0.200138 -0.000191966 0)
(0.199421 -0.000409235 0)
(0.198938 0.00107734 0)
(0.199723 0.00129588 0)
(0.200061 0.000652472 0)
(0.199302 0.000902092 0)
(0.200087 -5.92493e-05 0)
(0.199647 -0.000137817 0)
(0.19923 0.000767854 0)
(0.199663 0.00117222 0)
(0.200012 0.000973179 0)
(0.199627 0.0011281 0)
(0.200039 3.55458e-05 0)
(0.199804 2.51264e-05 0)
(0.199554 0.000643184 0)
(0.199738 0.00112626 0)
(0.199935 0.00115487 0)
(0.199767 0.00124342 0)
(0.20001 8.83002e-05 0)
(0.199947 0.000196662 0)
(0.199862 0.000615644 0)
(0.199887 0.0010361 0)
(0.19995 0.00121949 0)
(0.199937 0.00136892 0)
)
;

boundaryField
{
    top
    {
        type            zeroGradient;
    }
    inlet
    {
        type            fixedValue;
        value           uniform (0.2 0 0);
    }
    outlet
    {
        type            zeroGradient;
    }
    plate
    {
        type            fixedValue;
        value           uniform (0 0 0);
    }
    symmBound
    {
        type            zeroGradient;
    }
    frontAndBack
    {
        type            empty;
    }
}


// ************************************************************************* //
