/*--------------------------------*- C++ -*----------------------------------*\
| =========                 |                                                 |
| \\      /  F ield         | OpenFOAM: The Open Source CFD Toolbox           |
|  \\    /   O peration     | Version:  2.3.0                                 |
|   \\  /    A nd           | Web:      www.OpenFOAM.org                      |
|    \\/     M anipulation  |                                                 |
\*---------------------------------------------------------------------------*/
FoamFile
{
    version     2.0;
    format      ascii;
    class       surfaceScalarField;
    location    "0.8";
    object      phi;
}
// * * * * * * * * * * * * * * * * * * * * * * * * * * * * * * * * * * * * * //

dimensions      [0 3 -1 0 0 0 0];

internalField   nonuniform List<scalar> 
17305
(
2.83161e-08
2.88409e-09
-3.12002e-08
2.54494e-08
2.86669e-09
2.27595e-08
2.6899e-09
2.028e-08
2.47942e-09
1.80272e-08
2.25284e-09
1.60115e-08
2.01566e-09
1.42355e-08
1.77608e-09
1.26936e-08
1.54186e-09
1.1374e-08
1.3196e-09
1.02594e-08
1.11465e-09
9.32843e-09
9.30942e-10
8.55765e-09
7.7078e-10
7.92286e-09
6.34784e-10
7.40075e-09
5.22112e-10
6.96996e-09
4.30792e-10
6.61181e-09
3.58144e-10
6.31064e-09
3.01178e-10
6.05371e-09
2.56922e-10
5.83105e-09
2.2266e-10
5.635e-09
1.96056e-10
5.4598e-09
1.752e-10
5.3012e-09
1.58596e-10
5.15609e-09
1.45112e-10
5.02217e-09
1.33919e-10
4.89775e-09
1.2442e-10
4.78155e-09
1.16198e-10
4.67259e-09
1.08961e-10
4.57008e-09
1.02508e-10
4.47339e-09
9.66974e-11
4.38196e-09
9.14273e-11
4.29534e-09
8.66231e-11
4.21311e-09
8.22271e-11
4.13492e-09
7.8193e-11
4.06043e-09
7.4482e-11
3.98937e-09
7.10611e-11
3.92147e-09
6.79011e-11
3.8565e-09
6.49764e-11
3.79423e-09
6.22641e-11
3.73449e-09
5.97439e-11
3.67709e-09
5.73974e-11
3.62188e-09
5.52085e-11
3.56872e-09
5.31628e-11
3.51747e-09
5.12473e-11
3.46802e-09
4.94505e-11
3.42026e-09
4.77622e-11
3.37409e-09
4.61733e-11
3.32941e-09
4.46754e-11
3.28615e-09
4.32614e-11
3.24422e-09
4.19246e-11
3.20357e-09
4.0659e-11
3.16411e-09
3.94594e-11
3.12579e-09
3.83209e-11
3.08855e-09
3.7239e-11
3.05234e-09
3.62099e-11
3.01711e-09
3.52299e-11
2.98281e-09
3.42956e-11
2.94941e-09
3.34041e-11
2.91685e-09
3.25526e-11
2.88512e-09
3.17386e-11
2.85416e-09
3.09597e-11
2.82394e-09
3.02137e-11
2.79444e-09
2.94988e-11
2.76563e-09
2.88131e-11
2.73748e-09
2.81549e-11
2.70995e-09
2.75227e-11
2.68304e-09
2.6915e-11
2.65671e-09
2.63305e-11
2.63094e-09
2.5768e-11
2.60571e-09
2.52264e-11
2.58101e-09
2.47046e-11
2.55681e-09
2.42016e-11
2.53309e-09
2.37166e-11
2.50984e-09
2.32487e-11
2.48704e-09
2.27971e-11
2.46468e-09
2.23613e-11
2.44274e-09
2.19404e-11
2.42121e-09
2.1534e-11
2.40007e-09
2.11416e-11
2.3793e-09
2.07626e-11
2.35891e-09
2.03967e-11
2.33886e-09
2.00434e-11
2.31916e-09
1.97025e-11
2.29979e-09
1.93738e-11
2.28073e-09
1.90571e-11
2.26198e-09
1.87523e-11
2.24352e-09
1.84593e-11
2.22534e-09
1.81783e-11
2.20743e-09
1.79095e-11
2.18978e-09
1.76532e-11
2.17237e-09
1.74101e-11
2.15519e-09
1.71812e-11
2.13822e-09
1.69682e-11
2.12144e-09
1.6774e-11
2.10484e-09
1.66041e-11
2.08837e-09
1.64696e-11
2.07197e-09
1.63966e-11
2.05552e-09
1.64572e-11
2.03869e-09
1.68307e-11
2.02109e-09
1.75955e-11
5.27738e-11
3.33506e-08
3.16045e-09
-3.36269e-08
3.27605e-08
3.45681e-09
3.19384e-08
3.51202e-09
3.0961e-08
3.45681e-09
2.98838e-08
3.33005e-09
2.87523e-08
3.14711e-09
2.76035e-08
2.92485e-09
2.64657e-08
2.67966e-09
2.53598e-08
2.42551e-09
2.43005e-08
2.17396e-09
2.32973e-08
1.93415e-09
2.23555e-08
1.71262e-09
2.14769e-08
1.51332e-09
2.06612e-08
1.33785e-09
1.9906e-08
1.18594e-09
1.92082e-08
1.05602e-09
1.85636e-08
9.4574e-10
1.79681e-08
8.52415e-10
1.74174e-08
7.73372e-10
1.69073e-08
7.06147e-10
1.64339e-08
6.48592e-10
1.59936e-08
5.98911e-10
1.55831e-08
5.55643e-10
1.51994e-08
5.17626e-10
1.48398e-08
4.83946e-10
1.45021e-08
4.53887e-10
1.41842e-08
4.26888e-10
1.38842e-08
4.02506e-10
1.36005e-08
3.80386e-10
1.33317e-08
3.60241e-10
1.30765e-08
3.41832e-10
1.28338e-08
3.24962e-10
1.26025e-08
3.09459e-10
1.23818e-08
2.95179e-10
1.21709e-08
2.81993e-10
1.1969e-08
2.69792e-10
1.17755e-08
2.58477e-10
1.15898e-08
2.47961e-10
1.14114e-08
2.3817e-10
1.12397e-08
2.29034e-10
1.10744e-08
2.20495e-10
1.09151e-08
2.12498e-10
1.07614e-08
2.04997e-10
1.06129e-08
1.97948e-10
1.04693e-08
1.91314e-10
1.03304e-08
1.85062e-10
1.01959e-08
1.79159e-10
1.00656e-08
1.73579e-10
9.93924e-09
1.68298e-10
9.81661e-09
1.63292e-10
9.69753e-09
1.58543e-10
9.58182e-09
1.5403e-10
9.46932e-09
1.49738e-10
9.35988e-09
1.45652e-10
9.25335e-09
1.41757e-10
9.1496e-09
1.38041e-10
9.04852e-09
1.34492e-10
8.94997e-09
1.31099e-10
8.85385e-09
1.27854e-10
8.76007e-09
1.24746e-10
8.66851e-09
1.21768e-10
8.5791e-09
1.18911e-10
8.49175e-09
1.16169e-10
8.40637e-09
1.13535e-10
8.32289e-09
1.11003e-10
8.24123e-09
1.08567e-10
8.16134e-09
1.06223e-10
8.08315e-09
1.03965e-10
8.00658e-09
1.01788e-10
7.9316e-09
9.96899e-11
7.85813e-09
9.76653e-11
7.78614e-09
9.57111e-11
7.71556e-09
9.38238e-11
7.64636e-09
9.20004e-11
7.57848e-09
9.02381e-11
7.51189e-09
8.85343e-11
7.44654e-09
8.68865e-11
7.38239e-09
8.52927e-11
7.3194e-09
8.37509e-11
7.25754e-09
8.22593e-11
7.19676e-09
8.08162e-11
7.13705e-09
7.94205e-11
7.07835e-09
7.80709e-11
7.02064e-09
7.67665e-11
6.96388e-09
7.55068e-11
6.90805e-09
7.42913e-11
6.85311e-09
7.312e-11
6.79903e-09
7.19935e-11
6.74577e-09
7.09127e-11
6.6933e-09
6.98793e-11
6.64158e-09
6.88965e-11
6.59058e-09
6.79694e-11
6.54025e-09
6.71071e-11
6.49053e-09
6.63268e-11
6.44133e-09
6.56642e-11
6.39252e-09
6.52046e-11
6.34381e-09
6.51748e-11
6.29447e-09
6.61637e-11
6.2386e-09
7.34695e-11
1.3358e-10
3.47457e-08
3.01089e-09
-3.45961e-08
3.48063e-08
3.39619e-09
3.47406e-08
3.57778e-09
3.45539e-08
3.64344e-09
3.42571e-08
3.62692e-09
3.38642e-08
3.53993e-09
3.33929e-08
3.39622e-09
3.28608e-08
3.21175e-09
3.22847e-08
3.00162e-09
3.16794e-08
2.77918e-09
3.10579e-08
2.5557e-09
3.04305e-08
2.34005e-09
2.98053e-08
2.13845e-09
2.91886e-08
1.95457e-09
2.85847e-08
1.78991e-09
2.79963e-08
1.64434e-09
2.74255e-08
1.51662e-09
2.6873e-08
1.40491e-09
2.63392e-08
1.30712e-09
2.58242e-08
1.22117e-09
2.53276e-08
1.14519e-09
2.4849e-08
1.07752e-09
2.43878e-08
1.01682e-09
2.39435e-08
9.61966e-10
2.35153e-08
9.12075e-10
2.31028e-08
8.66441e-10
2.27052e-08
8.245e-10
2.23219e-08
7.85804e-10
2.19523e-08
7.49987e-10
2.15958e-08
7.16748e-10
2.12518e-08
6.85833e-10
2.09197e-08
6.57025e-10
2.0599e-08
6.30136e-10
2.02892e-08
6.05e-10
1.99897e-08
5.81469e-10
1.97001e-08
5.59411e-10
1.94199e-08
5.38707e-10
1.91486e-08
5.19247e-10
1.88858e-08
5.00936e-10
1.86312e-08
4.83683e-10
1.83843e-08
4.67409e-10
1.81447e-08
4.52038e-10
1.79122e-08
4.37506e-10
1.76864e-08
4.23749e-10
1.7467e-08
4.10713e-10
1.72537e-08
3.98347e-10
1.70463e-08
3.86604e-10
1.68444e-08
3.75441e-10
1.66479e-08
3.64819e-10
1.64565e-08
3.54702e-10
1.627e-08
3.45057e-10
1.60882e-08
3.35854e-10
1.59108e-08
3.27065e-10
1.57378e-08
3.18663e-10
1.55689e-08
3.10626e-10
1.54041e-08
3.02931e-10
1.5243e-08
2.95558e-10
1.50856e-08
2.88487e-10
1.49318e-08
2.81701e-10
1.47813e-08
2.75185e-10
1.46342e-08
2.68923e-10
1.44902e-08
2.629e-10
1.43492e-08
2.57104e-10
1.42112e-08
2.51523e-10
1.40761e-08
2.46146e-10
1.39437e-08
2.40961e-10
1.3814e-08
2.35959e-10
1.36868e-08
2.31131e-10
1.35621e-08
2.26468e-10
1.34399e-08
2.21962e-10
1.33199e-08
2.17605e-10
1.32022e-08
2.13392e-10
1.30867e-08
2.09315e-10
1.29734e-08
2.05368e-10
1.28621e-08
2.01545e-10
1.27528e-08
1.97842e-10
1.26454e-08
1.94254e-10
1.25399e-08
1.90776e-10
1.24363e-08
1.87404e-10
1.23344e-08
1.84135e-10
1.22342e-08
1.80965e-10
1.21358e-08
1.77891e-10
1.20389e-08
1.74912e-10
1.19437e-08
1.72025e-10
1.18499e-08
1.69229e-10
1.17577e-08
1.66523e-10
1.16669e-08
1.63906e-10
1.15775e-08
1.6138e-10
1.14895e-08
1.58945e-10
1.14028e-08
1.56606e-10
1.13173e-08
1.54367e-10
1.1233e-08
1.52239e-10
1.11499e-08
1.50238e-10
1.10678e-08
1.48397e-10
1.09867e-08
1.46783e-10
1.09064e-08
1.45559e-10
1.08264e-08
1.45164e-10
1.07455e-08
1.46998e-10
1.06581e-08
1.60882e-10
2.27733e-10
3.558e-08
2.82229e-09
-3.53914e-08
3.57718e-08
3.20433e-09
3.59224e-08
3.42719e-09
3.60193e-08
3.54655e-09
3.60558e-08
3.59036e-09
3.60281e-08
3.56763e-09
3.59367e-08
3.48764e-09
3.57857e-08
3.36282e-09
3.55812e-08
3.20607e-09
3.53309e-08
3.02948e-09
3.50428e-08
2.84384e-09
3.47247e-08
2.65816e-09
3.43838e-08
2.4793e-09
3.40265e-08
2.31187e-09
3.3658e-08
2.15844e-09
3.32824e-08
2.01994e-09
3.29029e-08
1.89608e-09
3.2522e-08
1.78581e-09
3.21415e-08
1.68767e-09
3.17626e-08
1.60008e-09
3.13863e-08
1.5215e-09
3.10132e-08
1.45053e-09
3.06441e-08
1.38599e-09
3.02792e-08
1.32688e-09
2.99188e-08
1.27241e-09
2.95634e-08
1.22191e-09
2.9213e-08
1.17489e-09
2.88678e-08
1.13093e-09
2.85281e-08
1.0897e-09
2.81939e-08
1.05093e-09
2.78654e-08
1.01439e-09
2.75425e-08
9.79889e-10
2.72254e-08
9.47273e-10
2.6914e-08
9.16394e-10
2.66083e-08
8.87123e-10
2.63084e-08
8.59347e-10
2.60142e-08
8.32962e-10
2.57255e-08
8.07876e-10
2.54425e-08
7.84001e-10
2.51649e-08
7.61259e-10
2.48927e-08
7.39579e-10
2.46259e-08
7.18894e-10
2.43642e-08
6.99143e-10
2.41077e-08
6.80269e-10
2.38562e-08
6.6222e-10
2.36096e-08
6.44947e-10
2.33678e-08
6.28406e-10
2.31307e-08
6.12555e-10
2.28981e-08
5.97355e-10
2.26701e-08
5.8277e-10
2.24464e-08
5.68765e-10
2.22269e-08
5.55311e-10
2.20116e-08
5.42377e-10
2.18003e-08
5.29936e-10
2.1593e-08
5.17961e-10
2.13895e-08
5.0643e-10
2.11897e-08
4.95319e-10
2.09936e-08
4.84608e-10
2.0801e-08
4.74275e-10
2.06119e-08
4.64303e-10
2.04262e-08
4.54674e-10
2.02437e-08
4.45371e-10
2.00644e-08
4.36379e-10
1.98883e-08
4.27683e-10
1.97151e-08
4.1927e-10
1.9545e-08
4.11125e-10
1.93777e-08
4.03238e-10
1.92132e-08
3.95596e-10
1.90515e-08
3.88189e-10
1.88925e-08
3.81007e-10
1.8736e-08
3.74039e-10
1.85821e-08
3.67277e-10
1.84307e-08
3.60712e-10
1.82818e-08
3.54336e-10
1.81352e-08
3.48143e-10
1.79909e-08
3.42125e-10
1.78489e-08
3.36275e-10
1.77091e-08
3.30588e-10
1.75714e-08
3.25058e-10
1.74359e-08
3.19681e-10
1.73024e-08
3.14451e-10
1.71709e-08
3.09366e-10
1.70414e-08
3.04421e-10
1.69138e-08
2.99615e-10
1.67881e-08
2.94945e-10
1.66642e-08
2.9041e-10
1.65421e-08
2.8601e-10
1.64217e-08
2.81747e-10
1.6303e-08
2.77623e-10
1.6186e-08
2.73642e-10
1.60706e-08
2.69814e-10
1.59567e-08
2.66154e-10
1.58442e-08
2.62687e-10
1.57331e-08
2.59463e-10
1.56233e-08
2.56583e-10
1.55146e-08
2.54294e-10
1.54065e-08
2.53261e-10
1.52978e-08
2.55726e-10
1.51858e-08
2.72835e-10
3.3393e-10
3.63306e-08
2.6573e-09
-3.61656e-08
3.65252e-08
3.0097e-09
3.67136e-08
3.23876e-09
3.68831e-08
3.37707e-09
3.70261e-08
3.44739e-09
3.71354e-08
3.45837e-09
3.72059e-08
3.4171e-09
3.72355e-08
3.33318e-09
3.72244e-08
3.21719e-09
3.71745e-08
3.07937e-09
3.70893e-08
2.92911e-09
3.69729e-08
2.77457e-09
3.68299e-08
2.62227e-09
3.66648e-08
2.47693e-09
3.64817e-08
2.34152e-09
3.62842e-08
2.21751e-09
3.6075e-08
2.10522e-09
3.58567e-08
2.0042e-09
3.56308e-08
1.91348e-09
3.5399e-08
1.8319e-09
3.51623e-08
1.75823e-09
3.49215e-08
1.69133e-09
3.46773e-08
1.63017e-09
3.44303e-08
1.57388e-09
3.4181e-08
1.52172e-09
3.39298e-08
1.47312e-09
3.36771e-08
1.42759e-09
3.34232e-08
1.38476e-09
3.31686e-08
1.34433e-09
3.29135e-08
1.30603e-09
3.26582e-08
1.26968e-09
3.2403e-08
1.23509e-09
3.21482e-08
1.20213e-09
3.18939e-08
1.17067e-09
3.16404e-08
1.1406e-09
3.13879e-08
1.11183e-09
3.11366e-08
1.08426e-09
3.08867e-08
1.05783e-09
3.06382e-08
1.03246e-09
3.03914e-08
1.00808e-09
3.01463e-08
9.8465e-10
2.99031e-08
9.62102e-10
2.96619e-08
9.40391e-10
2.94227e-08
9.19472e-10
2.91856e-08
8.99302e-10
2.89507e-08
8.79844e-10
2.8718e-08
8.61062e-10
2.84877e-08
8.42921e-10
2.82596e-08
8.25391e-10
2.8034e-08
8.08444e-10
2.78107e-08
7.92051e-10
2.75898e-08
7.76187e-10
2.73713e-08
7.60828e-10
2.71553e-08
7.45952e-10
2.69418e-08
7.31537e-10
2.67306e-08
7.17564e-10
2.65219e-08
7.04013e-10
2.63157e-08
6.90866e-10
2.61118e-08
6.78107e-10
2.59104e-08
6.65719e-10
2.57114e-08
6.53687e-10
2.55148e-08
6.41996e-10
2.53205e-08
6.30633e-10
2.51286e-08
6.19585e-10
2.49391e-08
6.08839e-10
2.47518e-08
5.98383e-10
2.45668e-08
5.88207e-10
2.43841e-08
5.78299e-10
2.42037e-08
5.6865e-10
2.40254e-08
5.59249e-10
2.38494e-08
5.50088e-10
2.36755e-08
5.41158e-10
2.35038e-08
5.3245e-10
2.33341e-08
5.23958e-10
2.31666e-08
5.15674e-10
2.30011e-08
5.07592e-10
2.28377e-08
4.99704e-10
2.26763e-08
4.92005e-10
2.25169e-08
4.8449e-10
2.23594e-08
4.77154e-10
2.22038e-08
4.69993e-10
2.20502e-08
4.63003e-10
2.18984e-08
4.56182e-10
2.17485e-08
4.49527e-10
2.16004e-08
4.43036e-10
2.14541e-08
4.3671e-10
2.13096e-08
4.30549e-10
2.11668e-08
4.24556e-10
2.10257e-08
4.18736e-10
2.08862e-08
4.13096e-10
2.07484e-08
4.07648e-10
2.06121e-08
4.02413e-10
2.04774e-08
3.97427e-10
2.03441e-08
3.92755e-10
2.02122e-08
3.88532e-10
2.00814e-08
3.85077e-10
1.99514e-08
3.83235e-10
1.98214e-08
3.85685e-10
1.96919e-08
4.0237e-10
4.49805e-10
3.70746e-08
2.51844e-09
-3.69358e-08
3.72486e-08
2.83572e-09
3.74294e-08
3.05797e-09
3.76049e-08
3.20152e-09
3.77689e-08
3.28347e-09
3.79151e-08
3.31214e-09
3.80385e-08
3.29371e-09
3.81356e-08
3.23602e-09
3.82049e-08
3.14792e-09
3.82461e-08
3.03819e-09
3.82602e-08
2.91495e-09
3.82494e-08
2.7854e-09
3.82162e-08
2.65546e-09
3.81635e-08
2.52962e-09
3.80942e-08
2.4109e-09
3.80107e-08
2.301e-09
3.79153e-08
2.20061e-09
3.78098e-08
2.10966e-09
3.76957e-08
2.02756e-09
3.75741e-08
1.95347e-09
3.7446e-08
1.88643e-09
3.73118e-08
1.82547e-09
3.71723e-08
1.76973e-09
3.70277e-08
1.71844e-09
3.68785e-08
1.67093e-09
3.6725e-08
1.62666e-09
3.65674e-08
1.58518e-09
3.6406e-08
1.54614e-09
3.62411e-08
1.50923e-09
3.60729e-08
1.47423e-09
3.59016e-08
1.44093e-09
3.57276e-08
1.40916e-09
3.55509e-08
1.3788e-09
3.53719e-08
1.34972e-09
3.51906e-08
1.32182e-09
3.50074e-08
1.29501e-09
3.48225e-08
1.26922e-09
3.46359e-08
1.24437e-09
3.4448e-08
1.2204e-09
3.42588e-08
1.19726e-09
3.40686e-08
1.17489e-09
3.38775e-08
1.15324e-09
3.36856e-08
1.13229e-09
3.3493e-08
1.11198e-09
3.33001e-08
1.09229e-09
3.31067e-08
1.07317e-09
3.29132e-08
1.05462e-09
3.27195e-08
1.03658e-09
3.25259e-08
1.01905e-09
3.23323e-08
1.00199e-09
3.2139e-08
9.85397e-10
3.19459e-08
9.69237e-10
3.17532e-08
9.53495e-10
3.1561e-08
9.38154e-10
3.13694e-08
9.23198e-10
3.11783e-08
9.08612e-10
3.0988e-08
8.94382e-10
3.07983e-08
8.80494e-10
3.06095e-08
8.66935e-10
3.04215e-08
8.53693e-10
3.02345e-08
8.40757e-10
3.00483e-08
8.28115e-10
2.98632e-08
8.15758e-10
2.96791e-08
8.03676e-10
2.94961e-08
7.9186e-10
2.93142e-08
7.80299e-10
2.91334e-08
7.68987e-10
2.89538e-08
7.57914e-10
2.87754e-08
7.47074e-10
2.85982e-08
7.36459e-10
2.84222e-08
7.26061e-10
2.82475e-08
7.15875e-10
2.8074e-08
7.05894e-10
2.79019e-08
6.96113e-10
2.7731e-08
6.86525e-10
2.75615e-08
6.77127e-10
2.73933e-08
6.67912e-10
2.72264e-08
6.58877e-10
2.70609e-08
6.50019e-10
2.68967e-08
6.41333e-10
2.67339e-08
6.32817e-10
2.65724e-08
6.24469e-10
2.64123e-08
6.16287e-10
2.62536e-08
6.0827e-10
2.60962e-08
6.0042e-10
2.59402e-08
5.92737e-10
2.57855e-08
5.85225e-10
2.56321e-08
5.77887e-10
2.54801e-08
5.70732e-10
2.53295e-08
5.63771e-10
2.51801e-08
5.5702e-10
2.5032e-08
5.50505e-10
2.48852e-08
5.44272e-10
2.47395e-08
5.384e-10
2.4595e-08
5.3305e-10
2.44515e-08
5.28588e-10
2.43088e-08
5.25931e-10
2.41668e-08
5.27671e-10
2.40281e-08
5.41126e-10
5.70996e-10
3.78239e-08
2.39988e-09
-3.77054e-08
3.79766e-08
2.68311e-09
3.81412e-08
2.89333e-09
3.83063e-08
3.03646e-09
3.84657e-08
3.12401e-09
3.86145e-08
3.16333e-09
3.87483e-08
3.15992e-09
3.8864e-08
3.12037e-09
3.89597e-08
3.05223e-09
3.90347e-08
2.96312e-09
3.90895e-08
2.86017e-09
3.91251e-08
2.74978e-09
3.91433e-08
2.6373e-09
3.9146e-08
2.52693e-09
3.91352e-08
2.42162e-09
3.9113e-08
2.32321e-09
3.90811e-08
2.2326e-09
3.90407e-08
2.14999e-09
3.89932e-08
2.07509e-09
3.89394e-08
2.00731e-09
3.88799e-08
1.94591e-09
3.88152e-08
1.89012e-09
3.87458e-08
1.83919e-09
3.86718e-08
1.79244e-09
3.85934e-08
1.74927e-09
3.85109e-08
1.70918e-09
3.84243e-08
1.67175e-09
3.83338e-08
1.63664e-09
3.82395e-08
1.60355e-09
3.81415e-08
1.57224e-09
3.80399e-08
1.54252e-09
3.79348e-08
1.51423e-09
3.78264e-08
1.48723e-09
3.77147e-08
1.46139e-09
3.75999e-08
1.43661e-09
3.74822e-08
1.41281e-09
3.73615e-08
1.3899e-09
3.7238e-08
1.36782e-09
3.71119e-08
1.3465e-09
3.69833e-08
1.32588e-09
3.68523e-08
1.30593e-09
3.67189e-08
1.28658e-09
3.65834e-08
1.26781e-09
3.64458e-08
1.24957e-09
3.63063e-08
1.23184e-09
3.61649e-08
1.21458e-09
3.60217e-08
1.19776e-09
3.58769e-08
1.18137e-09
3.57306e-08
1.16537e-09
3.55828e-08
1.14975e-09
3.54338e-08
1.13449e-09
3.52834e-08
1.11957e-09
3.5132e-08
1.10497e-09
3.49794e-08
1.09068e-09
3.48259e-08
1.07669e-09
3.46716e-08
1.06298e-09
3.45164e-08
1.04955e-09
3.43605e-08
1.03637e-09
3.4204e-08
1.02345e-09
3.40469e-08
1.01076e-09
3.38894e-08
9.98313e-10
3.37314e-08
9.86085e-10
3.35731e-08
9.74072e-10
3.34145e-08
9.62268e-10
3.32557e-08
9.50665e-10
3.30967e-08
9.39257e-10
3.29377e-08
9.28038e-10
3.27786e-08
9.17001e-10
3.26195e-08
9.06141e-10
3.24605e-08
8.95454e-10
3.23017e-08
8.84934e-10
3.2143e-08
8.74576e-10
3.19845e-08
8.64377e-10
3.18263e-08
8.54333e-10
3.16683e-08
8.4444e-10
3.15108e-08
8.34694e-10
3.13536e-08
8.25094e-10
3.11968e-08
8.15636e-10
3.10405e-08
8.06319e-10
3.08847e-08
7.97141e-10
3.07294e-08
7.88102e-10
3.05747e-08
7.792e-10
3.04206e-08
7.70436e-10
3.0267e-08
7.61812e-10
3.01141e-08
7.5333e-10
2.99619e-08
7.44993e-10
2.98103e-08
7.36808e-10
2.96594e-08
7.2878e-10
2.95092e-08
7.20922e-10
2.93597e-08
7.13246e-10
2.9211e-08
7.05775e-10
2.90629e-08
6.9854e-10
2.89156e-08
6.91593e-10
2.8769e-08
6.85025e-10
2.8623e-08
6.79012e-10
2.84777e-08
6.73924e-10
2.8333e-08
6.70629e-10
2.81894e-08
6.71204e-10
2.80507e-08
6.79858e-10
6.91772e-10
3.85803e-08
2.29652e-09
-3.84769e-08
3.87145e-08
2.54886e-09
3.88629e-08
2.74495e-09
3.90147e-08
2.88466e-09
3.91639e-08
2.97486e-09
3.93058e-08
3.02139e-09
3.94367e-08
3.02908e-09
3.95536e-08
3.00346e-09
3.96549e-08
2.95095e-09
3.97398e-08
2.87818e-09
3.98085e-08
2.79145e-09
3.98618e-08
2.69647e-09
3.9901e-08
2.5981e-09
3.99277e-08
2.50024e-09
3.99436e-08
2.40577e-09
3.99502e-08
2.31657e-09
3.99491e-08
2.23372e-09
3.99414e-08
2.15764e-09
3.99282e-08
2.08827e-09
3.99103e-08
2.02525e-09
3.98882e-08
1.96804e-09
3.98623e-08
1.91601e-09
3.98329e-08
1.86856e-09
3.98003e-08
1.82509e-09
3.97644e-08
1.78509e-09
3.97255e-08
1.74808e-09
3.96836e-08
1.71368e-09
3.96387e-08
1.68155e-09
3.95908e-08
1.65143e-09
3.954e-08
1.62306e-09
3.94863e-08
1.59627e-09
3.94296e-08
1.57088e-09
3.93701e-08
1.54675e-09
3.93077e-08
1.52376e-09
3.92425e-08
1.5018e-09
3.91746e-08
1.48078e-09
3.91038e-08
1.46061e-09
3.90304e-08
1.44124e-09
3.89543e-08
1.42258e-09
3.88756e-08
1.40459e-09
3.87944e-08
1.3872e-09
3.87106e-08
1.37038e-09
3.86243e-08
1.35408e-09
3.85356e-08
1.33826e-09
3.84445e-08
1.32289e-09
3.83512e-08
1.30794e-09
3.82556e-08
1.29337e-09
3.81578e-08
1.27916e-09
3.80579e-08
1.2653e-09
3.79559e-08
1.25174e-09
3.78519e-08
1.23849e-09
3.77459e-08
1.22551e-09
3.76381e-08
1.2128e-09
3.75284e-08
1.20033e-09
3.7417e-08
1.18809e-09
3.73039e-08
1.17608e-09
3.71892e-08
1.16427e-09
3.70729e-08
1.15266e-09
3.69551e-08
1.14124e-09
3.68359e-08
1.13e-09
3.67153e-08
1.11892e-09
3.65934e-08
1.10801e-09
3.64702e-08
1.09725e-09
3.63458e-08
1.08664e-09
3.62203e-08
1.07617e-09
3.60937e-08
1.06584e-09
3.59661e-08
1.05564e-09
3.58376e-08
1.04556e-09
3.57081e-08
1.0356e-09
3.55778e-08
1.02576e-09
3.54467e-08
1.01603e-09
3.53149e-08
1.00641e-09
3.51824e-08
9.96897e-10
3.50492e-08
9.87485e-10
3.49155e-08
9.78174e-10
3.47812e-08
9.6896e-10
3.46465e-08
9.59843e-10
3.45113e-08
9.50822e-10
3.43757e-08
9.41894e-10
3.42398e-08
9.33061e-10
3.41036e-08
9.24322e-10
3.39671e-08
9.15679e-10
3.38304e-08
9.07134e-10
3.36935e-08
8.98688e-10
3.35565e-08
8.90347e-10
3.34194e-08
8.82116e-10
3.32822e-08
8.74002e-10
3.31449e-08
8.66015e-10
3.30077e-08
8.58167e-10
3.28705e-08
8.50477e-10
3.27333e-08
8.42969e-10
3.25961e-08
8.35679e-10
3.2459e-08
8.28664e-10
3.23221e-08
8.2202e-10
3.21851e-08
8.15919e-10
3.20484e-08
8.10704e-10
3.19119e-08
8.07078e-10
3.17767e-08
8.06374e-10
3.16467e-08
8.09888e-10
8.06246e-10
3.93441e-08
2.20473e-09
-3.92523e-08
3.94631e-08
2.42984e-09
3.95968e-08
2.61124e-09
3.97358e-08
2.7457e-09
3.9874e-08
2.83661e-09
4.00072e-08
2.88824e-09
4.01317e-08
2.90461e-09
4.02448e-08
2.89034e-09
4.03449e-08
2.85087e-09
4.04311e-08
2.79189e-09
4.05036e-08
2.71896e-09
4.0563e-08
2.63715e-09
4.06102e-08
2.5509e-09
4.06466e-08
2.46381e-09
4.06737e-08
2.37864e-09
4.0693e-08
2.29731e-09
4.07057e-08
2.22101e-09
4.0713e-08
2.15033e-09
4.07159e-08
2.08542e-09
4.0715e-08
2.02611e-09
4.0711e-08
1.97203e-09
4.07043e-08
1.92273e-09
4.06952e-08
1.8777e-09
4.06838e-08
1.83645e-09
4.06704e-08
1.79853e-09
4.06549e-08
1.76354e-09
4.06375e-08
1.73111e-09
4.06181e-08
1.70094e-09
4.05967e-08
1.67277e-09
4.05734e-08
1.64637e-09
4.05481e-08
1.62154e-09
4.05209e-08
1.59814e-09
4.04916e-08
1.57601e-09
4.04603e-08
1.55504e-09
4.0427e-08
1.53512e-09
4.03916e-08
1.51614e-09
4.03542e-08
1.49804e-09
4.03147e-08
1.48074e-09
4.02731e-08
1.46416e-09
4.02295e-08
1.44824e-09
4.01837e-08
1.43295e-09
4.01359e-08
1.41821e-09
4.0086e-08
1.40399e-09
4.0034e-08
1.39026e-09
3.99799e-08
1.37696e-09
3.99238e-08
1.36407e-09
3.98656e-08
1.35156e-09
3.98054e-08
1.33939e-09
3.97431e-08
1.32755e-09
3.96789e-08
1.31601e-09
3.96126e-08
1.30474e-09
3.95444e-08
1.29373e-09
3.94742e-08
1.28296e-09
3.94021e-08
1.27242e-09
3.93282e-08
1.26207e-09
3.92523e-08
1.25193e-09
3.91746e-08
1.24196e-09
3.90951e-08
1.23215e-09
3.90139e-08
1.2225e-09
3.89309e-08
1.213e-09
3.88462e-08
1.20364e-09
3.87598e-08
1.1944e-09
3.86718e-08
1.18527e-09
3.85821e-08
1.17626e-09
3.8491e-08
1.16735e-09
3.83982e-08
1.15854e-09
3.83041e-08
1.14983e-09
3.82084e-08
1.14119e-09
3.81114e-08
1.13264e-09
3.8013e-08
1.12416e-09
3.79133e-08
1.11576e-09
3.78122e-08
1.10742e-09
3.771e-08
1.09915e-09
3.76065e-08
1.09094e-09
3.75019e-08
1.08279e-09
3.73962e-08
1.07469e-09
3.72894e-08
1.06666e-09
3.71815e-08
1.05867e-09
3.70727e-08
1.05074e-09
3.69629e-08
1.04286e-09
3.68522e-08
1.03504e-09
3.67406e-08
1.02728e-09
3.66281e-08
1.01957e-09
3.65149e-08
1.01193e-09
3.64009e-08
1.00435e-09
3.62862e-08
9.96847e-10
3.61707e-08
9.89426e-10
3.60547e-08
9.82099e-10
3.59379e-08
9.7488e-10
3.58206e-08
9.67788e-10
3.57027e-08
9.60851e-10
3.55843e-08
9.54108e-10
3.54654e-08
9.47616e-10
3.53459e-08
9.41468e-10
3.5226e-08
9.35823e-10
3.51058e-08
9.3096e-10
3.49855e-08
9.27353e-10
3.48663e-08
9.25553e-10
3.47516e-08
9.2456e-10
9.09513e-10
4.01159e-08
2.12198e-09
-4.00332e-08
4.02224e-08
2.32339e-09
4.03432e-08
2.49042e-09
4.04704e-08
2.61854e-09
4.05982e-08
2.70875e-09
4.07226e-08
2.76386e-09
4.08401e-08
2.7871e-09
4.09482e-08
2.78228e-09
4.10451e-08
2.75393e-09
4.11301e-08
2.70693e-09
4.12029e-08
2.64613e-09
4.1264e-08
2.57602e-09
4.13143e-08
2.50062e-09
4.13549e-08
2.42324e-09
4.1387e-08
2.34651e-09
4.1412e-08
2.27234e-09
4.1431e-08
2.202e-09
4.14451e-08
2.1362e-09
4.14553e-08
2.07526e-09
4.14622e-08
2.01916e-09
4.14665e-08
1.96771e-09
4.14687e-08
1.92059e-09
4.1469e-08
1.87741e-09
4.14676e-08
1.83778e-09
4.14648e-08
1.80132e-09
4.14607e-08
1.76766e-09
4.14553e-08
1.73651e-09
4.14487e-08
1.70757e-09
4.14409e-08
1.6806e-09
4.14318e-08
1.65541e-09
4.14216e-08
1.6318e-09
4.14101e-08
1.60962e-09
4.13974e-08
1.58873e-09
4.13834e-08
1.56902e-09
4.13681e-08
1.55038e-09
4.13516e-08
1.53272e-09
4.13337e-08
1.51595e-09
4.13144e-08
1.5e-09
4.12938e-08
1.4848e-09
4.12717e-08
1.47029e-09
4.12482e-08
1.45642e-09
4.12233e-08
1.44314e-09
4.11969e-08
1.4304e-09
4.1169e-08
1.41815e-09
4.11396e-08
1.40637e-09
4.11087e-08
1.39501e-09
4.10762e-08
1.38405e-09
4.10421e-08
1.37344e-09
4.10065e-08
1.36318e-09
4.09693e-08
1.35322e-09
4.09305e-08
1.34355e-09
4.08901e-08
1.33415e-09
4.0848e-08
1.32499e-09
4.08044e-08
1.31606e-09
4.07591e-08
1.30734e-09
4.07122e-08
1.29882e-09
4.06637e-08
1.29047e-09
4.06136e-08
1.28229e-09
4.05618e-08
1.27426e-09
4.05085e-08
1.26637e-09
4.04535e-08
1.2586e-09
4.03969e-08
1.25096e-09
4.03388e-08
1.24343e-09
4.0279e-08
1.236e-09
4.02177e-08
1.22866e-09
4.01549e-08
1.2214e-09
4.00905e-08
1.21422e-09
4.00246e-08
1.20711e-09
3.99571e-08
1.20007e-09
3.98882e-08
1.19308e-09
3.98178e-08
1.18614e-09
3.9746e-08
1.17926e-09
3.96727e-08
1.17241e-09
3.95981e-08
1.16561e-09
3.9522e-08
1.15884e-09
3.94446e-08
1.15211e-09
3.93658e-08
1.14541e-09
3.92858e-08
1.13874e-09
3.92044e-08
1.1321e-09
3.91218e-08
1.12549e-09
3.90379e-08
1.11891e-09
3.89528e-08
1.11235e-09
3.88666e-08
1.10583e-09
3.87792e-08
1.09935e-09
3.86906e-08
1.0929e-09
3.86009e-08
1.08651e-09
3.85102e-08
1.08017e-09
3.84184e-08
1.0739e-09
3.83255e-08
1.06772e-09
3.82317e-08
1.06164e-09
3.81369e-08
1.05569e-09
3.80411e-08
1.04991e-09
3.79443e-08
1.04436e-09
3.78467e-08
1.03912e-09
3.77482e-08
1.03433e-09
3.76489e-08
1.03018e-09
3.75494e-08
1.0269e-09
3.74506e-08
1.02436e-09
3.73551e-08
1.02007e-09
9.98382e-10
4.08963e-08
2.0465e-09
-4.08209e-08
4.09924e-08
2.22737e-09
4.1102e-08
2.38083e-09
4.12185e-08
2.50203e-09
4.13367e-08
2.59049e-09
4.14528e-08
2.64781e-09
4.15634e-08
2.67644e-09
4.16663e-08
2.67947e-09
4.17595e-08
2.66066e-09
4.18423e-08
2.62414e-09
4.19143e-08
2.57411e-09
4.19758e-08
2.51454e-09
4.20274e-08
2.44902e-09
4.20701e-08
2.3806e-09
4.21048e-08
2.31176e-09
4.21328e-08
2.24434e-09
4.21552e-08
2.17965e-09
4.21728e-08
2.11852e-09
4.21867e-08
2.06138e-09
4.21975e-08
2.00836e-09
4.22058e-08
1.95939e-09
4.22122e-08
1.91428e-09
4.22168e-08
1.87275e-09
4.22201e-08
1.8345e-09
4.22222e-08
1.79921e-09
4.22233e-08
1.76659e-09
4.22234e-08
1.73636e-09
4.22227e-08
1.70827e-09
4.22212e-08
1.68212e-09
4.22189e-08
1.6577e-09
4.22159e-08
1.63484e-09
4.22121e-08
1.61342e-09
4.22075e-08
1.59328e-09
4.22022e-08
1.57432e-09
4.21962e-08
1.55645e-09
4.21893e-08
1.53956e-09
4.21817e-08
1.52359e-09
4.21732e-08
1.50845e-09
4.21639e-08
1.49408e-09
4.21538e-08
1.48043e-09
4.21428e-08
1.46744e-09
4.21309e-08
1.45506e-09
4.2118e-08
1.44324e-09
4.21042e-08
1.43194e-09
4.20895e-08
1.42113e-09
4.20737e-08
1.41077e-09
4.20569e-08
1.40082e-09
4.20391e-08
1.39126e-09
4.20202e-08
1.38206e-09
4.20003e-08
1.37319e-09
4.19792e-08
1.36463e-09
4.1957e-08
1.35636e-09
4.19336e-08
1.34836e-09
4.19091e-08
1.3406e-09
4.18834e-08
1.33306e-09
4.18564e-08
1.32574e-09
4.18283e-08
1.31862e-09
4.17989e-08
1.31167e-09
4.17682e-08
1.3049e-09
4.17363e-08
1.29827e-09
4.17032e-08
1.29179e-09
4.16687e-08
1.28543e-09
4.16329e-08
1.2792e-09
4.15958e-08
1.27307e-09
4.15575e-08
1.26705e-09
4.15177e-08
1.26111e-09
4.14767e-08
1.25525e-09
4.14344e-08
1.24947e-09
4.13907e-08
1.24376e-09
4.13456e-08
1.2381e-09
4.12993e-08
1.2325e-09
4.12516e-08
1.22695e-09
4.12026e-08
1.22144e-09
4.11522e-08
1.21596e-09
4.11005e-08
1.21052e-09
4.10475e-08
1.20511e-09
4.09932e-08
1.19972e-09
4.09376e-08
1.19436e-09
4.08807e-08
1.18902e-09
4.08225e-08
1.1837e-09
4.0763e-08
1.1784e-09
4.07022e-08
1.17312e-09
4.06402e-08
1.16787e-09
4.05769e-08
1.16264e-09
4.05123e-08
1.15744e-09
4.04466e-08
1.15228e-09
4.03796e-08
1.14716e-09
4.03114e-08
1.1421e-09
4.0242e-08
1.13712e-09
4.01714e-08
1.13222e-09
4.00996e-08
1.12745e-09
4.00267e-08
1.12283e-09
3.99527e-08
1.11843e-09
3.98775e-08
1.1143e-09
3.98012e-08
1.11056e-09
3.97241e-08
1.10731e-09
3.96464e-08
1.10457e-09
3.95691e-08
1.10172e-09
3.94936e-08
1.09552e-09
1.07159e-09
4.1686e-08
1.977e-09
-4.16165e-08
4.17733e-08
2.14008e-09
4.18731e-08
2.28099e-09
4.19801e-08
2.39511e-09
4.20895e-08
2.48106e-09
4.21978e-08
2.53954e-09
4.23019e-08
2.57231e-09
4.23995e-08
2.58182e-09
4.2489e-08
2.57116e-09
4.25694e-08
2.5438e-09
4.26401e-08
2.50335e-09
4.27014e-08
2.45329e-09
4.27536e-08
2.39682e-09
4.27975e-08
2.33672e-09
4.28339e-08
2.27528e-09
4.2864e-08
2.21431e-09
4.28885e-08
2.1551e-09
4.29085e-08
2.09854e-09
4.29247e-08
2.04516e-09
4.29379e-08
1.99522e-09
4.29485e-08
1.94874e-09
4.29571e-08
1.90565e-09
4.29641e-08
1.86577e-09
4.29698e-08
1.82886e-09
4.29743e-08
1.7947e-09
4.29778e-08
1.76302e-09
4.29806e-08
1.73361e-09
4.29826e-08
1.70624e-09
4.2984e-08
1.68073e-09
4.29848e-08
1.6569e-09
4.29851e-08
1.6346e-09
4.29848e-08
1.61369e-09
4.2984e-08
1.59405e-09
4.29827e-08
1.57559e-09
4.2981e-08
1.55819e-09
4.29788e-08
1.54179e-09
4.29761e-08
1.52629e-09
4.29729e-08
1.51164e-09
4.29692e-08
1.49777e-09
4.2965e-08
1.48462e-09
4.29603e-08
1.47214e-09
4.29551e-08
1.46028e-09
4.29493e-08
1.44901e-09
4.2943e-08
1.43827e-09
4.29361e-08
1.42803e-09
4.29286e-08
1.41826e-09
4.29205e-08
1.40893e-09
4.29117e-08
1.40001e-09
4.29023e-08
1.39146e-09
4.28923e-08
1.38326e-09
4.28815e-08
1.3754e-09
4.287e-08
1.36784e-09
4.28578e-08
1.36057e-09
4.28448e-08
1.35357e-09
4.28311e-08
1.34682e-09
4.28165e-08
1.34029e-09
4.28012e-08
1.33399e-09
4.27849e-08
1.32788e-09
4.27679e-08
1.32196e-09
4.27499e-08
1.31621e-09
4.27311e-08
1.31063e-09
4.27113e-08
1.30519e-09
4.26907e-08
1.29989e-09
4.2669e-08
1.29471e-09
4.26464e-08
1.28965e-09
4.26228e-08
1.2847e-09
4.25982e-08
1.27984e-09
4.25726e-08
1.27507e-09
4.2546e-08
1.27038e-09
4.25183e-08
1.26577e-09
4.24896e-08
1.26122e-09
4.24598e-08
1.25673e-09
4.2429e-08
1.2523e-09
4.2397e-08
1.24791e-09
4.2364e-08
1.24356e-09
4.23298e-08
1.23926e-09
4.22946e-08
1.23498e-09
4.22582e-08
1.23074e-09
4.22207e-08
1.22653e-09
4.21821e-08
1.22234e-09
4.21423e-08
1.21818e-09
4.21014e-08
1.21405e-09
4.20593e-08
1.20994e-09
4.20161e-08
1.20586e-09
4.19717e-08
1.20181e-09
4.19262e-08
1.19781e-09
4.18795e-08
1.19385e-09
4.18316e-08
1.18995e-09
4.17826e-08
1.18613e-09
4.17324e-08
1.1824e-09
4.16811e-08
1.17879e-09
4.16286e-08
1.17533e-09
4.15749e-08
1.17208e-09
4.15202e-08
1.16909e-09
4.14643e-08
1.16642e-09
4.14075e-08
1.16411e-09
4.13501e-08
1.162e-09
4.12926e-08
1.15919e-09
4.12358e-08
1.15235e-09
1.12959e-09
4.24855e-08
1.91253e-09
-4.24211e-08
4.25654e-08
2.06016e-09
4.26568e-08
2.18964e-09
4.27551e-08
2.29675e-09
4.28565e-08
2.3797e-09
4.29575e-08
2.43851e-09
4.30555e-08
2.47437e-09
4.31481e-08
2.48918e-09
4.32338e-08
2.48544e-09
4.33116e-08
2.46606e-09
4.33808e-08
2.4341e-09
4.34415e-08
2.3926e-09
4.34939e-08
2.3444e-09
4.35386e-08
2.292e-09
4.35764e-08
2.23754e-09
4.3608e-08
2.18271e-09
4.36343e-08
2.12881e-09
4.36561e-08
2.07676e-09
4.36741e-08
2.02714e-09
4.3689e-08
1.9803e-09
4.37014e-08
1.93638e-09
4.37116e-08
1.89538e-09
4.37202e-08
1.85721e-09
4.37273e-08
1.82172e-09