/*--------------------------------*- C++ -*----------------------------------*\
| =========                 |                                                 |
| \\      /  F ield         | OpenFOAM: The Open Source CFD Toolbox           |
|  \\    /   O peration     | Version:  2.3.0                                 |
|   \\  /    A nd           | Web:      www.OpenFOAM.org                      |
|    \\/     M anipulation  |                                                 |
\*---------------------------------------------------------------------------*/
FoamFile
{
    version     2.0;
    format      ascii;
    class       volVectorField;
    location    "0.25";
    object      U;
}
// * * * * * * * * * * * * * * * * * * * * * * * * * * * * * * * * * * * * * //

dimensions      [0 1 -1 0 0 0 0];

internalField   nonuniform List<vector> 
3375
(
(0.17341 0.00612043 0)
(0.156948 0.00611008 0)
(0.141079 0.00565589 0)
(0.126075 0.00504261 0)
(0.112326 0.00437271 0)
(0.0999798 0.00369668 0)
(0.0890447 0.0030504 0)
(0.0794879 0.00245814 0)
(0.0712549 0.00193444 0)
(0.0642617 0.00148661 0)
(0.0583959 0.00111614 0)
(0.0535263 0.000819547 0)
(0.0495136 0.000589616 0)
(0.0462198 0.00041685 0)
(0.0435159 0.000290953 0)
(0.0412861 0.00020198 0)
(0.0394314 0.000141048 0)
(0.0378698 0.000100679 0)
(0.0365354 7.48589e-05 0)
(0.0353772 5.89497e-05 0)
(0.0343561 4.95086e-05 0)
(0.0334429 4.40832e-05 0)
(0.0326161 4.10011e-05 0)
(0.03186 3.91765e-05 0)
(0.0311629 3.79433e-05 0)
(0.0305162 3.69219e-05 0)
(0.0299134 3.59174e-05 0)
(0.0293495 3.48473e-05 0)
(0.0288204 3.36919e-05 0)
(0.0283228 3.24632e-05 0)
(0.027854 3.11859e-05 0)
(0.0274115 2.98865e-05 0)
(0.0269933 2.85889e-05 0)
(0.0265975 2.73117e-05 0)
(0.0262224 2.60683e-05 0)
(0.0258667 2.48674e-05 0)
(0.025529 2.37139e-05 0)
(0.0252081 2.261e-05 0)
(0.0249031 2.15557e-05 0)
(0.024613 2.05497e-05 0)
(0.0243371 1.95897e-05 0)
(0.0240747 1.86732e-05 0)
(0.0238252 1.7797e-05 0)
(0.023588 1.69582e-05 0)
(0.0233627 1.61541e-05 0)
(0.023149 1.53822e-05 0)
(0.0229465 1.46406e-05 0)
(0.022755 1.3928e-05 0)
(0.0225743 1.32436e-05 0)
(0.0224041 1.25865e-05 0)
(0.0222444 1.19549e-05 0)
(0.0220952 1.13439e-05 0)
(0.0219564 1.07434e-05 0)
(0.0218281 1.0135e-05 0)
(0.0217107 9.49003e-06 0)
(0.0216045 8.7675e-06 0)
(0.0215102 7.91608e-06 0)
(0.0214287 6.88066e-06 0)
(0.021361 5.62488e-06 0)
(0.0213082 4.19576e-06 0)
(0.0212713 2.77053e-06 0)
(0.0212511 1.50493e-06 0)
(0.0212475 4.53644e-07 0)
(0.0212556 -5.87189e-07 0)
(0.0212715 -1.41923e-06 0)
(0.0212927 -1.98987e-06 0)
(0.0213172 -2.29406e-06 0)
(0.0213433 -2.39716e-06 0)
(0.0213697 -2.36757e-06 0)
(0.0213954 -2.25174e-06 0)
(0.0214198 -2.08513e-06 0)
(0.0214425 -1.8919e-06 0)
(0.0214632 -1.69022e-06 0)
(0.021482 -1.49277e-06 0)
(0.0214989 -1.30766e-06 0)
(0.021514 -1.13936e-06 0)
(0.0215273 -9.89746e-07 0)
(0.0215392 -8.58705e-07 0)
(0.0215497 -7.45125e-07 0)
(0.021559 -6.47191e-07 0)
(0.0215671 -5.62954e-07 0)
(0.0215744 -4.90496e-07 0)
(0.0215807 -4.27995e-07 0)
(0.0215863 -3.73871e-07 0)
(0.0215912 -3.26811e-07 0)
(0.0215955 -2.8565e-07 0)
(0.0215993 -2.49533e-07 0)
(0.0216025 -2.17668e-07 0)
(0.0216053 -1.89569e-07 0)
(0.0216077 -1.64759e-07 0)
(0.0216098 -1.42985e-07 0)
(0.0216116 -1.2407e-07 0)
(0.0216131 -1.07992e-07 0)
(0.0216144 -9.49692e-08 0)
(0.0216155 -8.54763e-08 0)
(0.0216164 -8.06693e-08 0)
(0.0216173 -8.3225e-08 0)
(0.0216182 -1.0149e-07 0)
(0.0216192 -1.69294e-07 0)
(0.0216231 -5.85714e-07 0)
(0.192287 0.00952727 0)
(0.190145 0.00993576 0)
(0.186385 0.00968228 0)
(0.181402 0.00918058 0)
(0.175689 0.00854769 0)
(0.169582 0.00782727 0)
(0.163297 0.00705722 0)
(0.157001 0.00627172 0)
(0.150826 0.00549926 0)
(0.144872 0.00476337 0)
(0.139206 0.00408259 0)
(0.133869 0.00346983 0)
(0.12888 0.00293208 0)
(0.124242 0.00247082 0)
(0.119949 0.00208301 0)
(0.115984 0.00176231 0)
(0.112328 0.00150049 0)
(0.108957 0.00128851 0)
(0.105849 0.00111753 0)
(0.10298 0.000979505 0)
(0.100327 0.000867483 0)
(0.0978695 0.000775735 0)
(0.0955883 0.000699693 0)
(0.0934661 0.000635811 0)
(0.0914872 0.000581392 0)
(0.0896379 0.00053441 0)
(0.0879059 0.000493355 0)
(0.0862804 0.000457101 0)
(0.0847518 0.000424801 0)
(0.0833117 0.000395812 0)
(0.0819527 0.000369633 0)
(0.0806681 0.000345867 0)
(0.0794522 0.00032419 0)
(0.0782998 0.000304336 0)
(0.0772063 0.000286077 0)
(0.0761679 0.00026922 0)
(0.0751808 0.000253595 0)
(0.074242 0.000239055 0)
(0.0733488 0.00022547 0)
(0.0724987 0.000212725 0)
(0.0716897 0.000200719 0)
(0.0709199 0.00018936 0)
(0.0701877 0.000178569 0)
(0.0694918 0.000168273 0)
(0.0688312 0.000158409 0)
(0.0682049 0.000148919 0)
(0.0676122 0.000139753 0)
(0.0670525 0.000130866 0)
(0.0665254 0.000122217 0)
(0.0660308 0.000113767 0)
(0.0655686 0.000105474 0)
(0.0651388 9.72905e-05 0)
(0.0647419 8.91568e-05 0)
(0.0643782 8.09968e-05 0)
(0.0640486 7.27167e-05 0)
(0.0637541 6.42088e-05 0)
(0.0634957 5.53619e-05 0)
(0.0632748 4.60799e-05 0)
(0.0630924 3.63148e-05 0)
(0.0629493 2.61408e-05 0)
(0.0628454 1.58402e-05 0)
(0.0627798 5.84641e-06 0)
(0.0627509 -2.78506e-06 0)
(0.0627564 -8.87728e-06 0)
(0.0627839 -1.23039e-05 0)
(0.062826 -1.42872e-05 0)
(0.0628772 -1.53074e-05 0)
(0.0629335 -1.55542e-05 0)
(0.0629918 -1.52081e-05 0)
(0.0630498 -1.44399e-05 0)
(0.063106 -1.3417e-05 0)
(0.0631593 -1.2266e-05 0)
(0.0632091 -1.10786e-05 0)
(0.0632552 -9.91642e-06 0)
(0.0632974 -8.81824e-06 0)
(0.0633359 -7.80539e-06 0)
(0.0633709 -6.887e-06 0)
(0.0634025 -6.06334e-06 0)
(0.063431 -5.3297e-06 0)
(0.0634567 -4.67848e-06 0)
(0.0634798 -4.10122e-06 0)
(0.0635004 -3.58947e-06 0)
(0.0635188 -3.13534e-06 0)
(0.0635352 -2.73189e-06 0)
(0.0635497 -2.37322e-06 0)
(0.0635624 -2.05416e-06 0)
(0.0635736 -1.77059e-06 0)
(0.0635834 -1.51888e-06 0)
(0.0635919 -1.29619e-06 0)
(0.0635991 -1.10009e-06 0)
(0.0636053 -9.28647e-07 0)
(0.0636106 -7.80381e-07 0)
(0.063615 -6.54265e-07 0)
(0.0636187 -5.50141e-07 0)
(0.0636217 -4.69103e-07 0)
(0.0636243 -4.1539e-07 0)
(0.0636266 -4.01219e-07 0)
(0.0636287 -4.63487e-07 0)
(0.063631 -7.26934e-07 0)
(0.0636365 -1.77716e-06 0)
(0.195219 0.00893457 0)
(0.196167 0.00984423 0)
(0.19646 0.0101719 0)
(0.195979 0.0101851 0)
(0.194842 0.00997037 0)
(0.19316 0.00956519 0)
(0.191019 0.00901506 0)
(0.188504 0.00836924 0)
(0.185704 0.00767239 0)
(0.182706 0.00696247 0)
(0.179584 0.00627013 0)
(0.1764 0.0056181 0)
(0.173205 0.00502105 0)
(0.170036 0.00448631 0)
(0.166923 0.0040153 0)
(0.163885 0.00360513 0)
(0.160935 0.00325026 0)
(0.15808 0.00294388 0)
(0.155323 0.00267897 0)
(0.152665 0.00244894 0)
(0.150106 0.002248 0)
(0.147644 0.00207125 0)
(0.145275 0.00191468 0)
(0.142998 0.00177504 0)
(0.140808 0.00164974 0)
(0.138702 0.0015367 0)
(0.136679 0.00143426 0)
(0.134733 0.00134104 0)
(0.132862 0.00125593 0)
(0.131064 0.00117798 0)
(0.129335 0.00110638 0)
(0.127673 0.00104044 0)
(0.126075 0.000979538 0)
(0.124538 0.000923139 0)
(0.123061 0.000870762 0)
(0.121641 0.000821974 0)
(0.120277 0.00077639 0)
(0.118965 0.000733659 0)
(0.117706 0.000693466 0)
(0.116496 0.000655525 0)
(0.115335 0.000619578 0)
(0.114222 0.000585387 0)
(0.113156 0.00055274 0)
(0.112136 0.00052144 0)
(0.111161 0.000491309 0)
(0.110231 0.000462185 0)
(0.109346 0.00043392 0)
(0.108506 0.000406376 0)
(0.10771 0.000379425 0)
(0.106959 0.000352943 0)
(0.106254 0.000326806 0)
(0.105595 0.00030088 0)
(0.104983 0.000275022 0)
(0.104419 0.000249076 0)
(0.103905 0.000222882 0)
(0.103441 0.000196297 0)
(0.103029 0.000169231 0)
(0.10267 0.000141696 0)
(0.102365 0.000113858 0)
(0.102112 8.60781e-05 0)
(0.101911 5.89066e-05 0)
(0.101758 3.30519e-05 0)
(0.101647 9.46108e-06 0)
(0.101575 -1.02673e-05 0)
(0.101549 -2.43278e-05 0)
(0.101556 -3.26373e-05 0)
(0.101586 -3.69091e-05 0)
(0.101632 -3.86527e-05 0)
(0.101689 -3.8736e-05 0)
(0.101751 -3.76361e-05 0)
(0.101817 -3.5739e-05 0)
(0.101883 -3.33556e-05 0)
(0.101948 -3.0733e-05 0)
(0.102011 -2.80489e-05 0)
(0.102071 -2.54212e-05 0)
(0.102129 -2.29227e-05 0)
(0.102182 -2.05923e-05 0)
(0.102233 -1.84453e-05 0)
(0.102279 -1.64821e-05 0)
(0.102323 -1.46938e-05 0)
(0.102363 -1.30676e-05 0)
(0.1024 -1.15896e-05 0)
(0.102434 -1.02461e-05 0)
(0.102464 -9.02473e-06 0)
(0.102492 -7.91505e-06 0)
(0.102518 -6.90797e-06 0)
(0.10254 -5.99604e-06 0)
(0.102561 -5.17295e-06 0)
(0.102579 -4.43336e-06 0)
(0.102594 -3.77279e-06 0)
(0.102608 -3.18731e-06 0)
(0.10262 -2.67369e-06 0)
(0.10263 -2.22926e-06 0)
(0.102639 -1.85275e-06 0)
(0.102646 -1.54532e-06 0)
(0.102653 -1.31436e-06 0)
(0.102658 -1.18344e-06 0)
(0.102662 -1.22292e-06 0)
(0.102667 -1.65359e-06 0)
(0.102674 -3.18047e-06 0)
(0.19624 0.00823045 0)
(0.197528 0.00924322 0)
(0.198699 0.00977861 0)
(0.199565 0.0100114 0)
(0.200111 0.0100166 0)
(0.200343 0.00982549 0)
(0.200255 0.00947363 0)
(0.199852 0.00900301 0)
(0.199157 0.00845429 0)
(0.198204 0.0078638 0)
(0.197034 0.00726257 0)
(0.195688 0.00667538 0)
(0.194205 0.00612009 0)
(0.192619 0.00560786 0)
(0.190962 0.00514405 0)
(0.189257 0.00472951 0)
(0.187524 0.00436197 0)
(0.185778 0.00403729 0)
(0.18403 0.00375045 0)
(0.182287 0.00349629 0)
(0.180556 0.00326992 0)
(0.17884 0.00306703 0)
(0.177142 0.0028839 0)
(0.175465 0.00271748 0)
(0.17381 0.00256527 0)
(0.17218 0.00242525 0)
(0.170574 0.00229582 0)
(0.168995 0.00217566 0)
(0.167443 0.00206371 0)
(0.165918 0.00195909 0)
(0.164423 0.00186107 0)
(0.162957 0.00176899 0)
(0.161521 0.00168231 0)
(0.160116 0.00160052 0)
(0.158742 0.00152317 0)
(0.157399 0.00144986 0)
(0.156089 0.0013802 0)
(0.154811 0.00131384 0)
(0.153565 0.00125046 0)
(0.152353 0.00118974 0)
(0.151175 0.00113141 0)
(0.150031 0.00107519 0)
(0.148922 0.00102082 0)
(0.147849 0.000968067 0)
(0.146812 0.000916705 0)
(0.145812 0.000866518 0)
(0.144851 0.000817305 0)
(0.143928 0.00076887 0)
(0.143047 0.000721029 0)
(0.142207 0.000673597 0)
(0.14141 0.000626388 0)
(0.140658 0.000579212 0)
(0.139952 0.000531873 0)
(0.139295 0.000484181 0)
(0.138688 0.000435967 0)
(0.138133 0.000387126 0)
(0.13763 0.000337668 0)
(0.137183 0.000287794 0)
(0.13679 0.000237969 0)
(0.136451 0.000188996 0)
(0.136164 0.000142043 0)
(0.135927 9.8548e-05 0)
(0.135734 5.95777e-05 0)
(0.135579 2.5363e-05 0)
(0.135454 -3.60645e-06 0)
(0.13537 -2.60999e-05 0)
(0.135324 -4.1571e-05 0)
(0.135309 -5.09215e-05 0)
(0.135316 -5.58688e-05 0)
(0.135341 -5.77783e-05 0)
(0.135378 -5.76089e-05 0)
(0.135424 -5.60116e-05 0)
(0.135477 -5.34868e-05 0)
(0.135534 -5.04123e-05 0)
(0.135593 -4.70621e-05 0)
(0.135653 -4.36256e-05 0)
(0.135713 -4.02259e-05 0)
(0.135772 -3.69371e-05 0)
(0.135829 -3.37989e-05 0)
(0.135885 -3.08284e-05 0)
(0.135939 -2.80292e-05 0)
(0.135991 -2.53977e-05 0)
(0.13604 -2.29274e-05 0)
(0.136086 -2.06111e-05 0)
(0.13613 -1.84423e-05 0)
(0.13617 -1.64158e-05 0)
(0.136208 -1.45281e-05 0)
(0.136243 -1.27768e-05 0)
(0.136274 -1.11601e-05 0)
(0.136303 -9.67718e-06 0)
(0.136329 -8.32747e-06 0)
(0.136352 -7.11056e-06 0)
(0.136373 -6.02624e-06 0)
(0.136391 -5.07533e-06 0)
(0.136407 -4.26134e-06 0)
(0.13642 -3.59533e-06 0)
(0.136432 -3.10909e-06 0)
(0.136442 -2.89347e-06 0)
(0.136451 -3.22413e-06 0)
(0.136461 -4.94238e-06 0)
(0.196968 0.00764094 0)
(0.198106 0.00859159 0)
(0.199301 0.00915895 0)
(0.200402 0.00945828 0)
(0.201374 0.00955669 0)
(0.202201 0.00948222 0)
(0.202857 0.00926079 0)
(0.203321 0.00892402 0)
(0.203585 0.00850451 0)
(0.203652 0.00803275 0)
(0.203536 0.00753602 0)
(0.203256 0.00703724 0)
(0.202834 0.00655416 0)
(0.202292 0.00609904 0)
(0.201653 0.00567905 0)
(0.200935 0.0052972 0)
(0.200155 0.00495334 0)
(0.199326 0.00464524 0)
(0.198459 0.00436949 0)
(0.197562 0.0041222 0)
(0.19664 0.00389945 0)
(0.1957 0.00369766 0)
(0.194743 0.00351365 0)
(0.193773 0.00334475 0)
(0.192793 0.00318874 0)
(0.191804 0.00304381 0)
(0.190808 0.0029085 0)
(0.189808 0.00278162 0)
(0.188804 0.00266219 0)
(0.187799 0.00254941 0)
(0.186793 0.00244258 0)
(0.185789 0.00234114 0)
(0.184787 0.00224455 0)
(0.183789 0.00215235 0)
(0.182796 0.00206413 0)
(0.181811 0.0019795 0)
(0.180833 0.00189811 0)
(0.179865 0.00181961 0)
(0.178907 0.00174369 0)
(0.177961 0.00167006 0)
(0.177029 0.00159842 0)
(0.176112 0.0015285 0)
(0.175211 0.00146005 0)
(0.174328 0.00139281 0)
(0.173464 0.00132654 0)
(0.172621 0.00126101 0)
(0.171801 0.00119599 0)
(0.171005 0.00113128 0)
(0.170235 0.00106665 0)
(0.169494 0.0010019 0)
(0.168782 0.000936809 0)
(0.168103 0.00087117 0)
(0.167458 0.000804779 0)
(0.16685 0.000737458 0)
(0.166281 0.000669089 0)
(0.165753 0.000599664 0)
(0.165267 0.000529353 0)
(0.164824 0.000458587 0)
(0.164425 0.000388135 0)
(0.16407 0.000319151 0)
(0.163758 0.000253159 0)
(0.163486 0.000191921 0)
(0.163253 0.000137095 0)
(0.163055 8.96689e-05 0)
(0.162888 4.91504e-05 0)
(0.162745 1.48598e-05 0)
(0.162625 -1.30366e-05 0)
(0.162536 -3.42422e-05 0)
(0.162476 -4.90134e-05 0)
(0.162439 -5.85205e-05 0)
(0.162422 -6.41331e-05 0)
(0.162421 -6.68912e-05 0)
(0.162433 -6.75857e-05 0)
(0.162456 -6.68159e-05 0)
(0.162488 -6.50402e-05 0)
(0.162527 -6.2601e-05 0)
(0.16257 -5.97456e-05 0)
(0.162618 -5.66464e-05 0)
(0.162668 -5.34194e-05 0)
(0.16272 -5.01403e-05 0)
(0.162774 -4.68576e-05 0)
(0.162828 -4.3602e-05 0)
(0.162882 -4.03937e-05 0)
(0.162935 -3.72469e-05 0)
(0.162987 -3.41735e-05 0)
(0.163038 -3.11844e-05 0)
(0.163087 -2.82911e-05 0)
(0.163134 -2.55054e-05 0)
(0.163178 -2.28397e-05 0)
(0.16322 -2.03069e-05 0)
(0.163259 -1.79199e-05 0)
(0.163295 -1.56911e-05 0)
(0.163328 -1.36328e-05 0)
(0.163358 -1.17573e-05 0)
(0.163384 -1.00785e-05 0)
(0.163408 -8.61731e-06 0)
(0.163429 -7.41481e-06 0)
(0.163448 -6.57029e-06 0)
(0.163464 -6.36685e-06 0)
(0.16348 -7.68469e-06 0)
(0.197594 0.0071163 0)
(0.198551 0.00796831 0)
(0.199613 0.00852346 0)
(0.200662 0.00884679 0)
(0.20166 0.00899053 0)
(0.202588 0.00898033 0)
(0.203424 0.00883732 0)
(0.204145 0.00858698 0)
(0.204737 0.00825653 0)
(0.205196 0.00787203 0)
(0.205524 0.00745716 0)
(0.205729 0.00703226 0)
(0.205822 0.00661366 0)
(0.205817 0.00621324 0)
(0.205729 0.00583862 0)
(0.20557 0.00549375 0)
(0.205352 0.00517974 0)
(0.205087 0.00489563 0)
(0.204781 0.00463922 0)
(0.204442 0.00440766 0)
(0.204074 0.00419788 0)
(0.203681 0.00400692 0)
(0.203265 0.00383211 0)
(0.20283 0.00367108 0)
(0.202376 0.00352185 0)
(0.201904 0.00338275 0)
(0.201417 0.00325241 0)
(0.200915 0.00312971 0)
(0.2004 0.00301369 0)
(0.199871 0.00290359 0)
(0.199331 0.00279874 0)
(0.198781 0.00269855 0)
(0.19822 0.00260255 0)
(0.197652 0.00251026 0)
(0.197076 0.00242129 0)
(0.196493 0.00233526 0)
(0.195906 0.00225181 0)
(0.195314 0.00217063 0)
(0.19472 0.0020914 0)
(0.194124 0.00201382 0)
(0.193527 0.0019376 0)
(0.192932 0.00186246 0)
(0.192339 0.00178814 0)
(0.191749 0.00171438 0)
(0.191165 0.00164092 0)
(0.190588 0.00156752 0)
(0.190019 0.00149394 0)
(0.18946 0.00141994 0)
(0.188914 0.00134529 0)
(0.18838 0.00126976 0)
(0.187863 0.00119314 0)
(0.187363 0.0011152 0)
(0.186883 0.00103577 0)
(0.186425 0.000954691 0)
(0.185989 0.000871932 0)
(0.185579 0.000787593 0)
(0.185196 0.000702007 0)
(0.18484 0.00061581 0)
(0.184512 0.000530011 0)
(0.184212 0.00044601 0)
(0.18394 0.000365544 0)
(0.183695 0.000290508 0)
(0.183477 0.000222637 0)
(0.183284 0.000163077 0)
(0.183115 0.000112164 0)
(0.182968 6.94365e-05 0)
(0.18284 3.36742e-05 0)
(0.182725 4.06487e-06 0)
(0.182628 -1.95502e-05 0)
(0.182551 -3.74574e-05 0)
(0.182492 -5.04078e-05 0)
(0.18245 -5.94013e-05 0)
(0.182422 -6.53557e-05 0)
(0.182406 -6.89867e-05 0)
(0.182402 -7.08569e-05 0)
(0.182407 -7.14064e-05 0)
(0.182421 -7.09717e-05 0)
(0.182442 -6.98039e-05 0)
(0.18247 -6.80864e-05 0)
(0.182502 -6.59517e-05 0)
(0.182539 -6.34948e-05 0)
(0.18258 -6.07848e-05 0)
(0.182623 -5.78734e-05 0)
(0.182669 -5.48014e-05 0)
(0.182716 -5.16034e-05 0)
(0.182764 -4.83107e-05 0)
(0.182812 -4.49537e-05 0)
(0.182861 -4.15628e-05 0)
(0.182908 -3.81692e-05 0)
(0.182955 -3.4805e-05 0)
(0.183 -3.15028e-05 0)
(0.183043 -2.82955e-05 0)
(0.183083 -2.52163e-05 0)
(0.183121 -2.22981e-05 0)
(0.183157 -1.95755e-05 0)
(0.183189 -1.70877e-05 0)
(0.183219 -1.489e-05 0)
(0.183245 -1.30816e-05 0)
(0.183268 -1.18974e-05 0)
(0.183292 -1.19971e-05 0)
(0.198146 0.00665735 0)
(0.198959 0.00741008 0)
(0.199881 0.00793616 0)
(0.200827 0.00826445 0)
(0.201756 0.00843117 0)
(0.202645 0.00845891 0)
(0.203475 0.00836622 0)
(0.204229 0.00817452 0)
(0.204893 0.00790704 0)
(0.205463 0.0075864 0)
(0.205936 0.00723327 0)
(0.206318 0.00686567 0)
(0.206615 0.00649836 0)
(0.206837 0.00614248 0)
(0.206993 0.00580562 0)
(0.207094 0.00549224 0)
(0.20715 0.0052042 0)
(0.207167 0.0049415 0)
(0.207152 0.00470283 0)
(0.207111 0.00448618 0)
(0.207048 0.00428917 0)
(0.206964 0.00410939 0)
(0.206864 0.00394454 0)
(0.206747 0.00379256 0)
(0.206615 0.00365166 0)
(0.206468 0.0035203 0)
(0.206308 0.00339717 0)
(0.206135 0.00328121 0)
(0.205949 0.00317148 0)
(0.205751 0.00306723 0)
(0.205541 0.00296778 0)
(0.205319 0.00287257 0)
(0.205087 0.00278109 0)
(0.204844 0.00269288 0)
(0.204591 0.00260752 0)
(0.204328 0.00252465 0)
(0.204057 0.00244388 0)
(0.203777 0.00236489 0)
(0.203491 0.00228736 0)
(0.203197 0.00221097 0)
(0.202897 0.00213541 0)
(0.202592 0.00206041 0)
(0.202283 0.00198567 0)
(0.201971 0.00191091 0)
(0.201656 0.00183587 0)
(0.20134 0.00176029 0)
(0.201024 0.00168389 0)
(0.200709 0.00160643 0)
(0.200396 0.00152766 0)
(0.200086 0.00144734 0)
(0.199782 0.00136524 0)
(0.199483 0.00128116 0)
(0.199193 0.00119493 0)
(0.198911 0.00110646 0)
(0.19864 0.00101576 0)
(0.198379 0.000923039 0)
(0.198131 0.000828757 0)
(0.197896 0.000733688 0)
(0.197674 0.000638983 0)
(0.197465 0.000546163 0)
(0.19727 0.000457036 0)
(0.197088 0.000373508 0)
(0.19692 0.000297283 0)
(0.196767 0.000229541 0)
(0.196628 0.000170771 0)
(0.196503 0.000120795 0)
(0.196393 7.90203e-05 0)
(0.196294 4.43941e-05 0)
(0.196205 1.57115e-05 0)
(0.196125 -7.73122e-06 0)
(0.196057 -2.62579e-05 0)
(0.196 -4.05261e-05 0)
(0.195954 -5.13034e-05 0)
(0.195918 -5.92928e-05 0)
(0.195891 -6.50718e-05 0)
(0.195873 -6.9103e-05 0)
(0.195863 -7.17507e-05 0)
(0.19586 -7.32958e-05 0)
(0.195864 -7.39504e-05 0)
(0.195874 -7.38731e-05 0)
(0.19589 -7.31819e-05 0)
(0.19591 -7.1965e-05 0)
(0.195935 -7.02905e-05 0)
(0.195963 -6.82125e-05 0)
(0.195995 -6.57771e-05 0)
(0.196029 -6.3026e-05 0)
(0.196066 -5.99994e-05 0)
(0.196104 -5.67382e-05 0)
(0.196144 -5.32846e-05 0)
(0.196184 -4.96836e-05 0)
(0.196224 -4.59825e-05 0)
(0.196263 -4.22314e-05 0)
(0.196302 -3.8482e-05 0)
(0.19634 -3.47883e-05 0)
(0.196376 -3.12065e-05 0)
(0.19641 -2.77969e-05 0)
(0.196442 -2.46295e-05 0)
(0.196471 -2.17964e-05 0)
(0.196498 -1.9439e-05 0)
(0.196524 -1.77412e-05 0)
(0.198635 0.0062499 0)
(0.199337 0.00690965 0)
(0.20014 0.00739669 0)
(0.200983 0.00771825 0)
(0.201828 0.0078967 0)
(0.202649 0.0079504 0)
(0.203429 0.0078953 0)
(0.204152 0.00774926 0)
(0.204806 0.00753189 0)
(0.205387 0.00726269 0)
(0.205892 0.00695976 0)
(0.206324 0.00663907 0)
(0.206688 0.00631398 0)
(0.206991 0.00599491 0)
(0.207241 0.00568931 0)
(0.207447 0.00540191 0)
(0.207616 0.00513519 0)
(0.207755 0.00488984 0)
(0.207869 0.00466535 0)
(0.207964 0.00446038 0)
(0.208042 0.00427318 0)
(0.208106 0.00410184 0)
(0.208159 0.00394445 0)
(0.2082 0.00379924 0)
(0.208232 0.00366461 0)
(0.208255 0.00353917 0)
(0.20827 0.00342171 0)
(0.208275 0.0033112 0)
(0.208272 0.00320675 0)
(0.208262 0.0031076 0)
(0.208242 0.0030131 0)
(0.208215 0.00292266 0)
(0.20818 0.00283577 0)
(0.208137 0.00275196 0)
(0.208087 0.00267081 0)
(0.208028 0.00259191 0)
(0.207963 0.0025149 0)
(0.20789 0.00243942 0)
(0.20781 0.00236512 0)
(0.207724 0.00229169 0)
(0.207631 0.00221881 0)
(0.207533 0.00214616 0)
(0.207428 0.00207344 0)
(0.207319 0.00200037 0)
(0.207205 0.00192664 0)
(0.207086 0.00185197 0)
(0.206964 0.0017761 0)
(0.206839 0.00169874 0)
(0.206711 0.00161965 0)
(0.206582 0.00153857 0)
(0.206451 0.00145526 0)
(0.20632 0.00136955 0)
(0.206189 0.00128128 0)
(0.206058 0.00119039 0)
(0.205929 0.00109697 0)
(0.205802 0.00100129 0)
(0.205676 0.000903863 0)
(0.205553 0.000805547 0)
(0.205432 0.000707535 0)
(0.205314 0.000611355 0)
(0.205198 0.000518776 0)
(0.205086 0.000431627 0)
(0.204977 0.000351528 0)
(0.204874 0.000279634 0)
(0.204777 0.00021649 0)
(0.204687 0.000162076 0)
(0.204604 0.000115974 0)
(0.204529 7.74438e-05 0)
(0.204461 4.55103e-05 0)
(0.204399 1.9066e-05 0)
(0.204343 -2.67011e-06 0)
(0.204292 -2.02774e-05 0)
(0.204249 -3.43269e-05 0)
(0.204211 -4.54328e-05 0)
(0.20418 -5.41485e-05 0)
(0.204155 -6.09272e-05 0)
(0.204135 -6.61317e-05 0)
(0.20412 -7.0046e-05 0)
(0.204111 -7.28878e-05 0)
(0.204106 -7.48212e-05 0)
(0.204106 -7.59691e-05 0)
(0.204111 -7.64232e-05 0)
(0.204119 -7.62532e-05 0)
(0.204131 -7.55133e-05 0)
(0.204146 -7.42487e-05 0)
(0.204164 -7.2499e-05 0)
(0.204185 -7.03025e-05 0)
(0.204209 -6.76982e-05 0)
(0.204234 -6.4728e-05 0)
(0.204261 -6.14378e-05 0)
(0.204289 -5.78783e-05 0)
(0.204318 -5.41053e-05 0)
(0.204348 -5.01795e-05 0)
(0.204377 -4.61664e-05 0)
(0.204406 -4.21361e-05 0)
(0.204434 -3.81626e-05 0)
(0.204461 -3.43247e-05 0)
(0.204487 -3.06992e-05 0)
(0.20451 -2.73197e-05 0)
(0.204535 -2.38522e-05 0)
(0.199071 0.0058802 0)
(0.199686 0.00645622 0)
(0.20039 0.00690018 0)
(0.201141 0.00720799 0)
(0.201905 0.00739141 0)
(0.202657 0.00746395 0)
(0.203379 0.00743871 0)
(0.204058 0.00733036 0)
(0.204682 0.00715523 0)
(0.205245 0.00692996 0)
(0.205746 0.00667028 0)
(0.206185 0.00639035 0)
(0.206566 0.00610221 0)
(0.206896 0.00581553 0)
(0.20718 0.00553752 0)
(0.207425 0.00527305 0)
(0.207639 0.00502503 0)
(0.207826 0.00479474 0)
(0.207993 0.00458228 0)
(0.208143 0.00438696 0)
(0.20828 0.00420757 0)
(0.208407 0.00404267 0)
(0.208525 0.00389073 0)
(0.208635 0.00375027 0)
(0.20874 0.00361993 0)
(0.208838 0.00349845 0)
(0.208932 0.00338473 0)
(0.20902 0.00327783 0)
(0.209104 0.00317689 0)
(0.209183 0.00308119 0)
(0.209258 0.00299009 0)
(0.209327 0.002903 0)
(0.209393 0.00281942 0)
(0.209453 0.00273887 0)
(0.209509 0.00266093 0)
(0.20956 0.00258518 0)
(0.209606 0.00251126 0)
(0.209648 0.00243879 0)
(0.209685 0.00236743 0)
(0.209717 0.00229684 0)
(0.209745 0.00222669 0)
(0.209768 0.00215666 0)
(0.209786 0.00208644 0)
(0.2098 0.00201572 0)
(0.209809 0.0019442 0)
(0.209814 0.00187158 0)
(0.209815 0.00179759 0)
(0.209812 0.00172193 0)
(0.209805 0.00164436 0)
(0.209794 0.00156461 0)
(0.209779 0.00148246 0)
(0.209761 0.00139774 0)
(0.209739 0.00131033 0)
(0.209714 0.00122019 0)
(0.209685 0.00112744 0)
(0.209653 0.0010324 0)
(0.209616 0.000935613 0)
(0.209576 0.00083794 0)
(0.209531 0.000740547 0)
(0.209483 0.000644893 0)
(0.20943 0.000552636 0)
(0.209374 0.000465464 0)
(0.209316 0.000384877 0)
(0.209257 0.000311971 0)
(0.209198 0.000247321 0)
(0.20914 0.000191001 0)
(0.209086 0.00014271 0)
(0.209034 0.000101865 0)
(0.208987 6.76871e-05 0)
(0.208943 3.93029e-05 0)
(0.208903 1.57397e-05 0)
(0.208865 -3.74363e-06 0)
(0.208832 -1.9712e-05 0)
(0.208802 -3.27202e-05 0)
(0.208775 -4.32831e-05 0)
(0.208752 -5.18387e-05 0)
(0.208732 -5.87427e-05 0)
(0.208716 -6.42773e-05 0)
(0.208703 -6.86606e-05 0)
(0.208693 -7.20585e-05 0)
(0.208685 -7.45948e-05 0)
(0.208681 -7.63613e-05 0)
(0.20868 -7.7426e-05 0)
(0.208681 -7.78402e-05 0)
(0.208684 -7.76441e-05 0)
(0.208691 -7.68715e-05 0)
(0.208699 -7.55538e-05 0)
(0.208709 -7.3723e-05 0)
(0.208722 -7.1414e-05 0)
(0.208736 -6.86666e-05 0)
(0.208751 -6.55267e-05 0)
(0.208768 -6.20472e-05 0)
(0.208785 -5.82883e-05 0)
(0.208804 -5.43173e-05 0)
(0.208822 -5.02078e-05 0)
(0.208841 -4.60383e-05 0)
(0.208859 -4.1887e-05 0)
(0.208876 -3.7812e-05 0)
(0.208893 -3.37613e-05 0)
(0.208911 -2.90894e-05 0)
(0.19946 0.005539 0)
(0.200006 0.00604153 0)
(0.200629 0.0064422 0)
(0.201299 0.00673191 0)
(0.201989 0.00691509 0)
(0.202677 0.00700072 0)
(0.203344 0.00699909 0)
(0.203977 0.00692206 0)
(0.204566 0.00678307 0)
(0.205105 0.00659612 0)
(0.205591 0.00637478 0)
(0.206024 0.00613146 0)
(0.206408 0.00587693 0)
(0.206745 0.00562009 0)
(0.207042 0.00536777 0)
(0.207304 0.00512487 0)
(0.207537 0.00489457 0)
(0.207745 0.0046786 0)
(0.207935 0.00447757 0)
(0.208109 0.0042913 0)
(0.208271 0.0041191 0)
(0.208423 0.00395995 0)
(0.208568 0.00381268 0)
(0.208706 0.00367611 0)
(0.20884 0.00354908 0)
(0.20897 0.00343051 0)
(0.209096 0.00331944 0)
(0.209218 0.00321499 0)
(0.209338 0.00311638 0)
(0.209455 0.00302293 0)
(0.209569 0.00293403 0)
(0.209681 0.00284911 0)
(0.20979 0.00276768 0)
(0.209897 0.00268929 0)
(0.210001 0.00261349 0)
(0.210102 0.00253989 0)
(0.2102 0.00246812 0)
(0.210296 0.00239781 0)
(0.210389 0.0023286 0)
(0.210479 0.00226018 0)
(0.210566 0.00219219 0)
(0.210649 0.00212432 0)
(0.21073 0.00205627 0)
(0.210807 0.0019877 0)
(0.210881 0.00191834 0)
(0.210952 0.00184787 0)
(0.211019 0.00177602 0)
(0.211082 0.0017025 0)
(0.211141 0.00162707 0)
(0.211196 0.00154947 0)
(0.211247 0.0014695 0)
(0.211293 0.00138699 0)
(0.211334 0.00130185 0)
(0.21137 0.00121409 0)
(0.211401 0.00112383 0)
(0.211425 0.00103142 0)
(0.211443 0.000937396 0)
(0.211454 0.000842588 0)
(0.211458 0.000748094 0)
(0.211454 0.00065526 0)
(0.211443 0.000565592 0)
(0.211425 0.000480613 0)
(0.211402 0.000401682 0)
(0.211374 0.000329813 0)
(0.211343 0.000265584 0)
(0.211311 0.000209136 0)
(0.211278 0.000160264 0)
(0.211245 0.000118499 0)
(0.211214 8.3194e-05 0)
(0.211184 5.36089e-05 0)
(0.211157 2.89282e-05 0)
(0.211131 8.3779e-06 0)
(0.211107 -8.68214e-06 0)
(0.211085 -2.27974e-05 0)
(0.211065 -3.4451e-05 0)
(0.211047 -4.40661e-05 0)
(0.211031 -5.19918e-05 0)
(0.211017 -5.85084e-05 0)
(0.211004 -6.38353e-05 0)
(0.210994 -6.8141e-05 0)
(0.210985 -7.15522e-05 0)
(0.210978 -7.41628e-05 0)
(0.210972 -7.60417e-05 0)
(0.210968 -7.72395e-05 0)
(0.210965 -7.7794e-05 0)
(0.210964 -7.77353e-05 0)
(0.210965 -7.70898e-05 0)
(0.210967 -7.58831e-05 0)
(0.21097 -7.41437e-05 0)
(0.210975 -7.19045e-05 0)
(0.210981 -6.9205e-05 0)
(0.210987 -6.60923e-05 0)
(0.210995 -6.26219e-05 0)
(0.211003 -5.88576e-05 0)
(0.211012 -5.48709e-05 0)
(0.211022 -5.07377e-05 0)
(0.211031 -4.65307e-05 0)
(0.211041 -4.22921e-05 0)
(0.21105 -3.79318e-05 0)
(0.211061 -3.27926e-05 0)
(0.199808 0.00521988 0)
(0.200299 0.00565866 0)
(0.200854 0.0060179 0)
(0.201455 0.00628701 0)
(0.202079 0.0064659 0)
(0.202707 0.00655986 0)
(0.203322 0.00657654 0)
(0.203911 0.00652537 0)
(0.204466 0.00641724 0)
(0.204979 0.00626381 0)
(0.205448 0.00607661 0)
(0.205871 0.00586643 0)
(0.206251 0.00564282 0)
(0.20659 0.00541383 0)
(0.206893 0.00518589 0)
(0.207164 0.0049638 0)
(0.207407 0.00475085 0)
(0.207627 0.00454911 0)
(0.207829 0.00435959 0)
(0.208016 0.00418254 0)
(0.20819 0.00401769 0)
(0.208355 0.0038644 0)
(0.208513 0.00372185 0)
(0.208664 0.00358912 0)
(0.208811 0.00346526 0)
(0.208954 0.00334939 0)
(0.209093 0.00324065 0)
(0.20923 0.00313828 0)
(0.209364 0.00304157 0)
(0.209496 0.00294989 0)
(0.209626 0.00286266 0)
(0.209754 0.00277936 0)
(0.209881 0.0026995 0)
(0.210006 0.00262266 0)
(0.210129 0.0025484 0)
(0.21025 0.00247635 0)
(0.21037 0.00240613 0)
(0.210488 0.00233739 0)
(0.210604 0.00226979 0)
(0.210718 0.00220299 0)
(0.21083 0.00213668 0)
(0.21094 0.00207053 0)
(0.211048 0.00200423 0)
(0.211153 0.00193749 0)
(0.211256 0.00187002 0)
(0.211356 0.00180151 0)
(0.211453 0.00173169 0)
(0.211547 0.00166031 0)
(0.211637 0.00158711 0)
(0.211723 0.00151187 0)
(0.211805 0.00143439 0)
(0.211882 0.00135455 0)
(0.211955 0.00127226 0)
(0.212021 0.00118755 0)
(0.212082 0.00110059 0)
(0.212135 0.00101169 0)
(0.212181 0.00092141 0)
(0.21222 0.000830506 0)
(0.212249 0.000739992 0)
(0.212271 0.000651085 0)
(0.212283 0.00056513 0)
(0.212288 0.000483481 0)
(0.212286 0.000407347 0)
(0.212278 0.000337657 0)
(0.212265 0.000274967 0)
(0.212249 0.000219464 0)
(0.21223 0.000171019 0)
(0.212211 0.000129261 0)
(0.212191 9.36507e-05 0)
(0.212171 6.35474e-05 0)
(0.212152 3.82552e-05 0)
(0.212135 1.70839e-05 0)
(0.212118 -6.14196e-07 0)
(0.212102 -1.53785e-05 0)
(0.212087 -2.76784e-05 0)
(0.212074 -3.79219e-05 0)
(0.212061 -4.64502e-05 0)
(0.21205 -5.35411e-05 0)
(0.212039 -5.94151e-05 0)
(0.21203 -6.42438e-05 0)
(0.212021 -6.81579e-05 0)
(0.212014 -7.12553e-05 0)
(0.212007 -7.36081e-05 0)
(0.212001 -7.52689e-05 0)
(0.211996 -7.62763e-05 0)
(0.211991 -7.66601e-05 0)
(0.211988 -7.64446e-05 0)
(0.211985 -7.56529e-05 0)
(0.211984 -7.43094e-05 0)
(0.211983 -7.24427e-05 0)
(0.211983 -7.00877e-05 0)
(0.211983 -6.72866e-05 0)
(0.211985 -6.40904e-05 0)
(0.211987 -6.05586e-05 0)
(0.211989 -5.67583e-05 0)
(0.211992 -5.2761e-05 0)
(0.211995 -4.86332e-05 0)
(0.211999 -4.44094e-05 0)
(0.212003 -4.0009e-05 0)
(0.212008 -3.49724e-05 0)
(0.20012 0.00491824 0)
(0.200566 0.00530192 0)
(0.201065 0.00562266 0)
(0.201606 0.00587016 0)
(0.202172 0.00604185 0)
(0.202746 0.00614024 0)
(0.203313 0.00617073 0)
(0.203861 0.00614061 0)
(0.204382 0.0060586 0)
(0.204869 0.00593427 0)
(0.20532 0.00577733 0)
(0.205732 0.00559703 0)
(0.206105 0.00540177 0)
(0.206443 0.00519877 0)
(0.206749 0.00499397 0)
(0.207024 0.00479197 0)
(0.207275 0.00459611 0)
(0.207503 0.00440864 0)
(0.207714 0.00423089 0)
(0.207909 0.00406344 0)
(0.208093 0.00390637 0)
(0.208266 0.00375938 0)
(0.208432 0.00362195 0)
(0.208591 0.0034934 0)
(0.208745 0.003373 0)
(0.208895 0.00326004 0)
(0.209041 0.00315379 0)
(0.209185 0.00305358 0)
(0.209326 0.0029588 0)
(0.209464 0.00286886 0)
(0.209601 0.00278324 0)
(0.209736 0.00270145 0)
(0.20987 0.00262303 0)
(0.210002 0.00254758 0)
(0.210133 0.00247468 0)
(0.210262 0.00240397 0)
(0.210389 0.0023351 0)
(0.210516 0.00226771 0)
(0.210641 0.00220147 0)
(0.210764 0.00213608 0)
(0.210885 0.00207121 0)
(0.211005 0.00200655 0)
(0.211123 0.00194182 0)
(0.211239 0.00187672 0)
(0.211353 0.00181097 0)
(0.211464 0.00174429 0)
(0.211573 0.00167641 0)
(0.211679 0.0016071 0)
(0.211781 0.00153612 0)
(0.21188 0.00146327 0)
(0.211974 0.00138838 0)
(0.212064 0.00131134 0)
(0.212149 0.00123209 0)
(0.212229 0.00115068 0)
(0.212302 0.00106729 0)
(0.212368 0.000982248 0)
(0.212427 0.000896056 0)
(0.212478 0.000809432 0)
(0.21252 0.000723294 0)
(0.212554 0.000638726 0)
(0.212579 0.00055692 0)
(0.212596 0.000479067 0)
(0.212606 0.000406239 0)
(0.212609 0.000339271 0)
(0.212607 0.000278693 0)
(0.2126 0.000224717 0)
(0.212591 0.000177274 0)
(0.21258 0.000136076 0)
(0.212567 0.000100672 0)
(0.212554 7.05125e-05 0)
(0.212541 4.49922e-05 0)
(0.212528 2.3499e-05 0)
(0.212516 5.44005e-06 0)
(0.212504 -9.70796e-06 0)
(0.212493 -2.24e-05 0)
(0.212482 -3.3027e-05 0)
(0.212473 -4.19206e-05 0)