/*--------------------------------*- C++ -*----------------------------------*\
| =========                 |                                                 |
| \\      /  F ield         | OpenFOAM: The Open Source CFD Toolbox           |
|  \\    /   O peration     | Version:  2.3.0                                 |
|   \\  /    A nd           | Web:      www.OpenFOAM.org                      |
|    \\/     M anipulation  |                                                 |
\*---------------------------------------------------------------------------*/
FoamFile
{
    version     2.0;
    format      ascii;
    class       surfaceScalarField;
    location    "0.1";
    object      phi;
}
// * * * * * * * * * * * * * * * * * * * * * * * * * * * * * * * * * * * * * //

dimensions      [0 3 -1 0 0 0 0];

internalField   nonuniform List<scalar> 
6598
(
2.86132e-08
2.85592e-09
-3.14691e-08
2.57632e-08
2.84993e-09
2.30878e-08
2.67548e-09
2.06214e-08
2.46632e-09
1.83805e-08
2.24098e-09
1.63757e-08
2.00475e-09
1.46098e-08
1.76586e-09
1.30777e-08
1.53211e-09
1.17677e-08
1.31004e-09
1.06628e-08
1.10494e-09
9.74208e-09
9.20678e-10
8.98254e-09
7.5954e-10
8.36038e-09
6.22159e-10
7.85265e-09
5.07733e-10
7.4383e-09
4.14355e-10
7.09888e-09
3.39412e-10
6.81891e-09
2.79978e-10
6.58577e-09
2.33134e-10
6.38958e-09
1.96196e-10
6.22273e-09
1.66843e-10
6.07958e-09
1.43156e-10
5.956e-09
1.2358e-10
5.84917e-09
1.06831e-10
5.75738e-09
9.17891e-11
5.67992e-09
7.74563e-11
5.61692e-09
6.30019e-11
5.56915e-09
4.77676e-11
5.53785e-09
3.13008e-11
5.52417e-09
1.36803e-11
5.5258e-09
-1.62753e-12
5.53798e-09
-1.21841e-11
5.55716e-09
-1.91806e-11
5.58055e-09
-2.33837e-11
5.60543e-09
-2.48813e-11
5.62976e-09
-2.43284e-11
5.65228e-09
-2.25247e-11
5.67238e-09
-2.00981e-11
5.68985e-09
-1.74679e-11
5.70473e-09
-1.48882e-11
5.71723e-09
-1.24975e-11
5.72759e-09
-1.036e-11
5.73609e-09
-8.49588e-12
5.74299e-09
-6.89938e-12
5.74854e-09
-5.55095e-12
5.75296e-09
-4.42533e-12
5.75646e-09
-3.49575e-12
5.7592e-09
-2.73603e-12
5.76132e-09
-2.1217e-12
5.76295e-09
-1.63045e-12
5.76419e-09
-1.24208e-12
5.76513e-09
-9.3877e-13
5.76583e-09
-7.04725e-13
5.76636e-09
-5.26358e-13
5.76675e-09
-3.92057e-13
5.76704e-09
-2.92064e-13
5.76726e-09
-2.18361e-13
5.76743e-09
-1.64403e-13
5.76755e-09
-1.25072e-13
5.76765e-09
-9.63845e-14
5.76772e-09
-7.5372e-14
5.76778e-09
-5.97755e-14
5.76783e-09
-4.80103e-14
5.76787e-09
-3.89298e-14
5.7679e-09
-3.17784e-14
5.76793e-09
-2.60088e-14
5.76795e-09
-2.12702e-14
5.76797e-09
-1.73093e-14
5.76798e-09
-1.39857e-14
5.76799e-09
-1.11813e-14
5.768e-09
-8.81755e-15
5.76801e-09
-6.82024e-15
5.76801e-09
-5.14946e-15
5.76802e-09
-3.75281e-15
5.76802e-09
-2.61907e-15
5.76802e-09
-1.68067e-15
5.76802e-09
-9.32265e-16
5.76802e-09
-3.42914e-16
5.76802e-09
1.29914e-16
5.76802e-09
4.43187e-16
5.76802e-09
6.97325e-16
5.76802e-09
9.01945e-16
5.76802e-09
1.03891e-15
5.76802e-09
1.16556e-15
5.76802e-09
1.22783e-15
5.76801e-09
1.28197e-15
5.76801e-09
1.3248e-15
5.76801e-09
1.34572e-15
5.76801e-09
1.37899e-15
5.76801e-09
1.41487e-15
5.76801e-09
1.43013e-15
5.76801e-09
1.46277e-15
5.768e-09
1.47624e-15
5.768e-09
1.45795e-15
5.768e-09
1.45963e-15
5.768e-09
1.41757e-15
5.768e-09
1.3814e-15
5.768e-09
1.3497e-15
5.768e-09
1.26556e-15
5.768e-09
1.11802e-15
2.09081e-15
3.43264e-08
3.0968e-09
-3.45673e-08
3.37705e-08
3.40584e-09
3.29809e-08
3.46507e-09
3.20353e-08
3.41195e-09
3.09892e-08
3.28707e-09
2.98884e-08
3.10554e-09
2.87701e-08
2.88411e-09
2.76631e-08
2.63918e-09
2.65885e-08
2.38464e-09
2.55615e-08
2.13193e-09
2.4592e-08
1.8901e-09
2.3686e-08
1.66562e-09
2.28457e-08
1.46243e-09
2.20713e-08
1.28213e-09
2.13612e-08
1.12448e-09
2.07127e-08
9.87938e-10
2.01225e-08
8.70163e-10
1.95871e-08
7.68465e-10
1.91032e-08
6.80123e-10
1.86675e-08
6.02584e-10
1.82771e-08
5.33542e-10
1.79297e-08
4.70934e-10
1.76237e-08
4.12872e-10
1.73579e-08
3.57609e-10
1.71317e-08
3.03599e-10
1.6945e-08
2.49747e-10
1.6797e-08
1.95736e-10
1.66861e-08
1.42215e-10
1.66098e-08
9.00146e-11
1.65694e-08
3.87156e-11
1.6564e-08
-6.72549e-12
1.65838e-08
-3.9026e-11
1.66191e-08
-5.86846e-11
1.66629e-08
-6.8636e-11
1.671e-08
-7.14216e-11
1.67568e-08
-6.93962e-11
1.68012e-08
-6.44638e-11
1.68417e-08
-5.80148e-11
1.68778e-08
-5.09927e-11
1.69093e-08
-4.39987e-11
1.69364e-08
-3.73902e-11
1.69592e-08
-3.13602e-11
1.69783e-08
-2.59945e-11
1.69941e-08
-2.13119e-11
1.7007e-08
-1.72911e-11
1.70174e-08
-1.38881e-11
1.70257e-08
-1.10463e-11
1.70322e-08
-8.70396e-12
1.70374e-08
-6.79793e-12
1.70414e-08
-5.26664e-12
1.70446e-08
-4.0519e-12
1.70469e-08
-3.10017e-12
1.70488e-08
-2.36326e-12
1.70502e-08
-1.79897e-12
1.70513e-08
-1.37102e-12
1.70521e-08
-1.04904e-12
1.70527e-08
-8.08041e-13
1.70532e-08
-6.2804e-13
1.70536e-08
-4.93353e-13
1.7054e-08
-3.91961e-13
1.70542e-08
-3.14856e-13
1.70544e-08
-2.55375e-13
1.70546e-08
-2.08733e-13
1.70547e-08
-1.71511e-13
1.70548e-08
-1.41335e-13
1.70549e-08
-1.1651e-13
1.7055e-08
-9.5876e-14
1.70551e-08
-7.85879e-14
1.70551e-08
-6.40549e-14
1.70552e-08
-5.18114e-14
1.70552e-08
-4.1512e-14
1.70552e-08
-3.28587e-14
1.70553e-08
-2.56187e-14
1.70553e-08
-1.95898e-14
1.70553e-08
-1.46002e-14
1.70553e-08
-1.04719e-14
1.70553e-08
-7.10925e-15
1.70553e-08
-4.34746e-15
1.70553e-08
-2.14029e-15
1.70553e-08
-4.33622e-16
1.70553e-08
8.32434e-16
1.70553e-08
1.75328e-15
1.70553e-08
2.54691e-15
1.70553e-08
3.17238e-15
1.70553e-08
3.68773e-15
1.70553e-08
4.12612e-15
1.70553e-08
4.48376e-15
1.70553e-08
4.79615e-15
1.70553e-08
5.06807e-15
1.70553e-08
5.27261e-15
1.70553e-08
5.4368e-15
1.70553e-08
5.55165e-15
1.70553e-08
5.5876e-15
1.70553e-08
5.60759e-15
1.70553e-08
5.56461e-15
1.70553e-08
5.47973e-15
1.70553e-08
5.37088e-15
1.70553e-08
5.15846e-15
1.70553e-08
4.97468e-15
5.49549e-15
3.6421e-08
2.91303e-09
-3.62372e-08
3.65217e-08
3.30507e-09
3.64983e-08
3.48854e-09
3.6356e-08
3.55423e-09
3.61052e-08
3.53788e-09
3.57596e-08
3.45109e-09
3.53365e-08
3.30724e-09
3.48536e-08
3.12208e-09
3.43278e-08
2.91048e-09
3.37742e-08
2.68552e-09
3.3206e-08
2.45828e-09
3.26342e-08
2.23743e-09
3.20675e-08
2.02908e-09
3.15128e-08
1.83681e-09
3.09752e-08
1.6621e-09
3.04584e-08
1.50474e-09
2.99652e-08
1.36342e-09
2.94975e-08
1.23618e-09
2.90568e-08
1.12075e-09
2.86446e-08
1.0148e-09
2.82621e-08
9.16075e-10
2.79106e-08
8.22423e-10
2.75916e-08
7.31824e-10
2.73068e-08
6.42453e-10
2.70575e-08
5.52882e-10
2.68448e-08
4.62429e-10
2.66691e-08
3.71471e-10
2.65298e-08
2.81529e-10
2.64247e-08
1.95122e-10
2.63483e-08
1.15046e-10
2.62991e-08
4.25283e-11
2.62781e-08
-1.8075e-11
2.62815e-08
-6.20683e-11
2.6303e-08
-9.01637e-11
2.63372e-08
-1.05604e-10
2.63794e-08
-1.11569e-10
2.64258e-08
-1.10841e-10
2.64734e-08
-1.05678e-10
2.65202e-08
-9.77965e-11
2.65647e-08
-8.84439e-11
2.66058e-08
-7.84981e-11
2.6643e-08
-6.85586e-11
2.6676e-08
-5.90226e-11
2.67049e-08
-5.01419e-11
2.67296e-08
-4.20645e-11
2.67506e-08
-3.48642e-11
2.67681e-08
-2.85608e-11
2.67825e-08
-2.31351e-11
2.67943e-08
-1.85398e-11
2.68037e-08
-1.47083e-11
2.68112e-08
-1.15619e-11
2.68172e-08
-9.01603e-12
2.68218e-08
-6.98491e-12
2.68254e-08
-5.38588e-12
2.68281e-08
-4.14219e-12
2.68303e-08
-3.18511e-12
2.68319e-08
-2.45493e-12
2.68332e-08
-1.90127e-12
2.68342e-08
-1.48276e-12
2.6835e-08
-1.16629e-12
2.68356e-08
-9.26028e-13
2.68361e-08
-7.42184e-13
2.68364e-08
-5.9998e-13
2.68368e-08
-4.88494e-13
2.6837e-08
-3.99873e-13
2.68372e-08
-3.28428e-13
2.68374e-08
-2.70131e-13
2.68375e-08
-2.22058e-13
2.68377e-08
-1.82139e-13
2.68378e-08
-1.48813e-13
2.68378e-08
-1.20928e-13
2.68379e-08
-9.75656e-14
2.6838e-08
-7.80132e-14
2.6838e-08
-6.16714e-14
2.6838e-08
-4.80671e-14
2.68381e-08
-3.67383e-14
2.68381e-08
-2.73854e-14
2.68381e-08
-1.96556e-14
2.68381e-08
-1.33298e-14
2.68381e-08
-8.19452e-15
2.68381e-08
-4.0319e-15
2.68381e-08
-8.45974e-16
2.68381e-08
1.60772e-15
2.68381e-08
3.5819e-15
2.68381e-08
5.22784e-15
2.68381e-08
6.61545e-15
2.68381e-08
7.77029e-15
2.68381e-08
8.7354e-15
2.68381e-08
9.53884e-15
2.68381e-08
1.01678e-14
2.68381e-08
1.0647e-14
2.68381e-08
1.09993e-14
2.68381e-08
1.1198e-14
2.68381e-08
1.13099e-14
2.68381e-08
1.13179e-14
2.68381e-08
1.12185e-14
2.68381e-08
1.10445e-14
2.68381e-08
1.0721e-14
2.68381e-08
1.03533e-14
9.43021e-15
3.79954e-08
2.6933e-09
-3.77757e-08
3.82251e-08
3.0754e-09
3.84166e-08
3.297e-09
3.85573e-08
3.4135e-09
3.86408e-08
3.45443e-09
3.86627e-08
3.42914e-09
3.86233e-08
3.34661e-09
3.85265e-08
3.21892e-09
3.83783e-08
3.05864e-09
3.81864e-08
2.8775e-09
3.79587e-08
2.68591e-09
3.77036e-08
2.49254e-09
3.74287e-08
2.304e-09
3.71408e-08
2.12469e-09
3.68459e-08
1.95702e-09
3.65489e-08
1.80174e-09
3.62539e-08
1.65839e-09
3.59644e-08
1.52567e-09
3.56834e-08
1.40181e-09
3.54134e-08
1.28483e-09
3.51568e-08
1.17264e-09
3.4916e-08
1.06321e-09
3.46932e-08
9.54588e-10
3.44906e-08
8.45131e-10
3.43097e-08
7.3373e-10
3.41519e-08
6.20195e-10
3.40179e-08
5.05534e-10
3.39074e-08
3.91998e-10
3.38196e-08
2.82928e-10
3.37523e-08
1.82362e-10
3.37012e-08
9.36533e-11
3.36647e-08
1.83471e-11
3.36445e-08
-4.17948e-11
3.36392e-08
-8.48588e-11
3.36469e-08
-1.13308e-10
3.36652e-08
-1.29936e-10
3.36918e-08
-1.37441e-10
3.37243e-08
-1.38183e-10
3.37607e-08
-1.34102e-10
3.37989e-08
-1.26725e-10
3.38377e-08
-1.1723e-10
3.38756e-08
-1.0651e-10
3.39118e-08
-9.5238e-11
3.39456e-08
-8.39197e-11
3.39765e-08
-7.29301e-11
3.40042e-08
-6.25419e-11
3.40285e-08
-5.2945e-11
3.40497e-08
-4.42605e-11
3.40677e-08
-3.65513e-11
3.40828e-08
-2.98322e-11
3.40953e-08
-2.40781e-11
3.41055e-08
-1.92336e-11
3.41138e-08
-1.5221e-11
3.41203e-08
-1.19492e-11
3.41255e-08
-9.32037e-12
3.41296e-08
-7.23664e-12
3.41327e-08
-5.60498e-12
3.41352e-08
-4.34045e-12
3.4137e-08
-3.36843e-12
3.41385e-08
-2.62534e-12
3.41396e-08
-2.05875e-12
3.41405e-08
-1.62639e-12
3.41412e-08
-1.29514e-12
3.41418e-08
-1.03949e-12
3.41422e-08
-8.40304e-13
3.41426e-08
-6.83318e-13
3.41428e-08
-5.58124e-13
3.41431e-08
-4.57099e-13
3.41433e-08
-3.74766e-13
3.41434e-08
-3.07086e-13
3.41436e-08
-2.51109e-13
3.41437e-08
-2.04601e-13
3.41438e-08
-1.65867e-13
3.41438e-08
-1.33564e-13
3.41439e-08
-1.06653e-13
3.41439e-08
-8.4213e-14
3.4144e-08
-6.55859e-14
3.4144e-08
-5.01259e-14
3.4144e-08
-3.73581e-14
3.4144e-08
-2.68705e-14
3.41441e-08
-1.82531e-14
3.41441e-08
-1.12578e-14
3.41441e-08
-5.55902e-15
3.41441e-08
-1.03691e-15
3.41441e-08
2.55199e-15
3.41441e-08
5.53103e-15
3.41441e-08
8.00674e-15
3.41441e-08
1.00456e-14
3.41441e-08
1.17151e-14
3.41441e-08
1.30365e-14
3.41441e-08
1.40488e-14
3.41441e-08
1.48116e-14
3.41441e-08
1.53172e-14
3.41441e-08
1.56387e-14
3.41441e-08
1.57924e-14
3.41441e-08
1.57623e-14
3.4144e-08
1.55935e-14
3.4144e-08
1.52127e-14
3.4144e-08
1.45822e-14
1.24519e-14
3.95328e-08
2.4989e-09
-3.93384e-08
3.97627e-08
2.84548e-09
3.99894e-08
3.07032e-09
4.01993e-08
3.20361e-09
4.03851e-08
3.26866e-09
4.05396e-08
3.27464e-09
4.06578e-08
3.22846e-09
4.07373e-08
3.13938e-09
4.07783e-08
3.01762e-09
4.07828e-08
2.87301e-09
4.07542e-08
2.71449e-09
4.06969e-08
2.54981e-09
4.06158e-08
2.38511e-09
4.05158e-08
2.22479e-09
4.04012e-08
2.07154e-09
4.02764e-08
1.92659e-09
4.01448e-08
1.78997e-09
4.00096e-08
1.66089e-09
3.98734e-08
1.538e-09
3.97386e-08
1.41963e-09
3.96073e-08
1.30395e-09
3.94814e-08
1.18912e-09
3.93625e-08
1.07342e-09
3.92522e-08
9.55472e-10
3.91514e-08
8.34499e-10
3.90609e-08
7.1069e-10
3.8981e-08
5.85426e-10
3.89117e-08
4.613e-10
3.88527e-08
3.4193e-10
3.88035e-08
2.3156e-10
3.8763e-08
1.34192e-10
3.87294e-08
5.19286e-11
3.87029e-08
-1.53291e-11
3.86848e-08
-6.67067e-11
3.86751e-08
-1.03606e-10
3.86734e-08
-1.28244e-10
3.86789e-08
-1.42955e-10
3.86906e-08
-1.49863e-10
3.87073e-08
-1.50795e-10
3.87278e-08
-1.47258e-10
3.87511e-08
-1.4047e-10
3.87759e-08
-1.31405e-10
3.88016e-08
-1.20847e-10
3.88271e-08
-1.09426e-10
3.88518e-08
-9.7654e-11
3.88752e-08
-8.5942e-11
3.88969e-08
-7.46188e-11
3.89165e-08
-6.3938e-11
3.89341e-08
-5.40841e-11
3.89494e-08
-4.51787e-11
3.89626e-08
-3.7286e-11
3.89738e-08
-3.04204e-11
3.89831e-08
-2.4554e-11
3.89908e-08
-1.96267e-11
3.89971e-08
-1.5555e-11
3.90021e-08
-1.22414e-11
3.9006e-08
-9.5825e-12
3.90092e-08
-7.47584e-12
3.90116e-08
-5.82486e-12
3.90135e-08
-4.54236e-12
3.9015e-08
-3.55252e-12
3.90162e-08
-2.79135e-12
3.90171e-08
-2.20651e-12
3.90178e-08
-1.75607e-12
3.90184e-08
-1.40738e-12
3.90189e-08
-1.1354e-12
3.90192e-08
-9.21287e-13
3.90195e-08
-7.50957e-13
3.90197e-08
-6.14085e-13
3.90199e-08
-5.03037e-13
3.90201e-08
-4.12207e-13
3.90202e-08
-3.37418e-13
3.90203e-08
-2.7554e-13
3.90204e-08
-2.24163e-13
3.90205e-08
-1.81452e-13
3.90206e-08
-1.45873e-13
3.90206e-08
-1.16293e-13
3.90207e-08
-9.16975e-14
3.90207e-08
-7.13003e-14
3.90207e-08
-5.44476e-14
3.90208e-08
-4.05193e-14
3.90208e-08
-2.90848e-14
3.90208e-08
-1.96768e-14
3.90208e-08
-1.19473e-14
3.90208e-08
-5.62534e-15
3.90208e-08
-4.93278e-16
3.90208e-08
3.67192e-15
3.90208e-08
7.08395e-15
3.90208e-08
9.86337e-15
3.90208e-08
1.20788e-14
3.90208e-08
1.37976e-14
3.90208e-08
1.51178e-14
3.90208e-08
1.60612e-14
3.90208e-08
1.67109e-14
3.90208e-08
1.7115e-14
3.90208e-08
1.72567e-14
3.90208e-08
1.71897e-14
3.90208e-08
1.68436e-14
3.90208e-08
1.60773e-14
1.36566e-14
4.11099e-08
2.33122e-09
-4.09423e-08
4.13179e-08
2.63754e-09
4.15357e-08
2.85252e-09
4.17499e-08
2.98937e-09
4.1954e-08
3.06461e-09
4.21418e-08
3.08685e-09
4.23081e-08
3.06212e-09
4.24496e-08
2.99787e-09
4.25647e-08
2.90254e-09
4.26532e-08
2.78447e-09
4.27164e-08
2.65131e-09
4.27564e-08
2.5098e-09
4.27761e-08
2.36545e-09
4.27785e-08
2.22235e-09
4.27669e-08
2.08319e-09
4.27441e-08
1.94938e-09
4.27128e-08
1.82127e-09
4.26753e-08
1.69842e-09
4.26335e-08
1.5798e-09
4.2589e-08
1.46407e-09
4.25433e-08
1.34966e-09
4.24974e-08
1.23501e-09
4.24522e-08
1.11866e-09
4.24081e-08
9.99516e-10
4.23656e-08
8.77084e-10
4.23245e-08
7.5178e-10
4.22848e-08
6.25102e-10
4.22464e-08
4.99643e-10
4.22095e-08
3.78882e-10
4.21743e-08
2.66786e-10
4.21413e-08
1.67133e-10
4.21109e-08
8.23712e-11
4.2083e-08
1.25386e-11
4.2059e-08
-4.26683e-11
4.20396e-08
-8.42203e-11
4.20252e-08
-1.13887e-10
4.20159e-08
-1.33617e-10
4.20113e-08
-1.45265e-10
4.2011e-08
-1.50469e-10
4.20143e-08
-1.5063e-10
4.20208e-08
-1.46911e-10
4.20297e-08
-1.40275e-10
4.20403e-08
-1.31519e-10
4.20522e-08
-1.21311e-10
4.20648e-08
-1.10214e-10
4.20775e-08
-9.87016e-11
4.20901e-08
-8.71748e-11
4.21021e-08
-7.5963e-11
4.21134e-08
-6.53283e-11
4.21236e-08
-5.54677e-11
4.21329e-08
-4.65158e-11
4.2141e-08
-3.85486e-11
4.2148e-08
-3.15906e-11
4.2154e-08
-2.56221e-11
4.21591e-08
-2.0589e-11
4.21632e-08
-1.64124e-11
4.21667e-08
-1.29977e-11
4.21694e-08
-1.02438e-11
4.21717e-08
-8.04945e-12
4.21734e-08
-6.31867e-12
4.21748e-08
-4.96463e-12
4.2176e-08
-3.91139e-12
4.21768e-08
-3.09474e-12
4.21776e-08
-2.46175e-12
4.21781e-08
-1.97e-12
4.21786e-08
-1.58613e-12
4.21789e-08
-1.28444e-12
4.21792e-08
-1.04532e-12
4.21795e-08
-8.54117e-13
4.21797e-08
-6.99849e-13
4.21798e-08
-5.74355e-13
4.218e-08
-4.71535e-13
4.21801e-08
-3.86809e-13
4.21802e-08
-3.16672e-13
4.21802e-08
-2.58467e-13
4.21803e-08
-2.10032e-13
4.21804e-08
-1.69743e-13
4.21804e-08
-1.36214e-13
4.21804e-08
-1.08344e-13
4.21805e-08
-8.52411e-14
4.21805e-08
-6.6083e-14
4.21805e-08
-5.02671e-14
4.21805e-08
-3.71985e-14
4.21805e-08
-2.64014e-14
4.21806e-08
-1.74967e-14
4.21806e-08
-1.01444e-14
4.21806e-08
-4.11806e-15
4.21806e-08
7.74596e-16
4.21806e-08
4.7385e-15
4.21806e-08
7.91959e-15
4.21806e-08
1.04177e-14
4.21806e-08
1.23666e-14
4.21806e-08
1.38204e-14
4.21806e-08
1.48727e-14
4.21806e-08
1.55988e-14
4.21806e-08
1.59893e-14
4.21806e-08
1.61036e-14
4.21806e-08
1.58855e-14
4.21806e-08
1.5178e-14
1.31834e-14
4.27391e-08
2.18376e-09
-4.25917e-08
4.2925e-08
2.45165e-09
4.31261e-08
2.65139e-09
4.33295e-08
2.78603e-09
4.35283e-08
2.86579e-09
4.37173e-08
2.89783e-09
4.3892e-08
2.88748e-09
4.4049e-08
2.84082e-09
4.41866e-08
2.76491e-09
4.43043e-08
2.66685e-09
4.44023e-08
2.55328e-09
4.4482e-08
2.43009e-09
4.45452e-08
2.3022e-09
4.45942e-08
2.17338e-09
4.46312e-08
2.04624e-09
4.46583e-08
1.92228e-09
4.46775e-08
1.80207e-09
4.46904e-08
1.68546e-09
4.46985e-08
1.57173e-09
4.47027e-08
1.45982e-09
4.47039e-08
1.34849e-09
4.47025e-08
1.23645e-09
4.46986e-08
1.12254e-09
4.46922e-08
1.00592e-09
4.4683e-08
8.86313e-10
4.46705e-08
7.64254e-10
4.46544e-08
6.412e-10
4.46345e-08
5.19534e-10
4.4611e-08
4.02378e-10
4.45846e-08
2.93212e-10
4.45564e-08
1.95326e-10
4.45277e-08
1.11032e-10
4.44994e-08
4.08415e-11
4.44725e-08
-1.57721e-11
4.44481e-08
-5.97574e-11
4.44267e-08
-9.24885e-11
4.44086e-08
-1.1559e-10
4.4394e-08
-1.30664e-10
4.43827e-08
-1.39173e-10
4.43745e-08
-1.42399e-10
4.4369e-08
-1.41433e-10
4.43659e-08
-1.37201e-10
4.43649e-08
-1.30488e-10
4.43656e-08
-1.21962e-10
4.43676e-08
-1.122e-10
4.43705e-08
-1.01697e-10
4.43743e-08
-9.08826e-11
4.43784e-08
-8.01175e-11
4.43828e-08
-6.97006e-11
4.43872e-08
-5.98672e-11
4.43915e-08
-5.07905e-11
4.43955e-08
-4.25846e-11
4.43992e-08
-3.5309e-11
4.44026e-08
-2.89756e-11
4.44055e-08
-2.3557e-11
4.44081e-08
-1.89956e-11
4.44103e-08
-1.52132e-11
4.44122e-08
-1.21196e-11
4.44138e-08
-9.6202e-12
4.44151e-08
-7.62204e-12
4.44162e-08
-6.03835e-12
4.4417e-08
-4.79122e-12
4.44178e-08
-3.81321e-12
4.44183e-08
-3.04748e-12
4.44188e-08
-2.44749e-12
4.44192e-08
-1.97589e-12
4.44195e-08
-1.60334e-12
4.44198e-08
-1.30707e-12
4.442e-08
-1.06973e-12
4.44202e-08
-8.781e-13
4.44203e-08
-7.22242e-13
4.44205e-08
-5.94627e-13
4.44206e-08
-4.89549e-13
4.44206e-08
-4.02623e-13
4.44207e-08
-3.30503e-13
4.44208e-08
-2.70495e-13
4.44208e-08
-2.20544e-13
4.44209e-08
-1.78937e-13
4.44209e-08
-1.44297e-13
4.44209e-08
-1.15516e-13
4.4421e-08
-9.15936e-14
4.4421e-08
-7.17737e-14
4.4421e-08
-5.53496e-14
4.4421e-08
-4.17391e-14
4.4421e-08
-3.04781e-14
4.4421e-08
-2.11543e-14
4.4421e-08
-1.34654e-14
4.44211e-08
-7.16597e-15
4.44211e-08
-2.04144e-15
4.44211e-08
2.08542e-15
4.44211e-08
5.35804e-15
4.44211e-08
7.94287e-15
4.44211e-08
9.92507e-15
4.44211e-08
1.14068e-14
4.44211e-08
1.24857e-14
4.44211e-08
1.31636e-14
4.44211e-08
1.35049e-14
4.44211e-08
1.34788e-14
4.44211e-08
1.29672e-14
1.16412e-14
4.44232e-08
2.05109e-09
-4.42905e-08
4.45903e-08
2.28449e-09
4.47748e-08
2.46688e-09
4.49648e-08
2.59604e-09
4.51534e-08
2.67723e-09
4.53355e-08
2.71575e-09
4.55069e-08
2.71606e-09
4.56645e-08
2.68315e-09
4.58066e-08
2.62283e-09
4.59323e-08
2.54113e-09
4.60418e-08
2.44379e-09
4.6136e-08
2.33597e-09
4.62161e-08
2.22206e-09
4.62839e-08
2.10553e-09
4.63413e-08
1.98888e-09
4.63899e-08
1.87367e-09
4.64313e-08
1.76066e-09
4.64669e-08
1.64991e-09
4.64976e-08
1.54103e-09
4.65241e-08
1.43325e-09
4.6547e-08
1.32561e-09
4.65663e-08
1.21713e-09
4.6582e-08
1.10691e-09
4.65935e-08
9.94379e-10
4.66004e-08
8.79425e-10
4.6602e-08
7.62621e-10
4.65979e-08
6.45314e-10
4.65878e-08
5.29609e-10
4.6572e-08
4.18196e-10
4.65512e-08
3.14036e-10
4.65266e-08
2.19902e-10
4.64998e-08
1.3781e-10
4.64722e-08
6.8514e-11
4.64447e-08
1.16959e-11
4.64184e-08
-3.34778e-11
4.63941e-08
-6.81169e-11
4.6372e-08
-9.35669e-11
4.63526e-08
-1.11204e-10
4.63357e-08
-1.22323e-10
4.63214e-08
-1.2809e-10
4.63095e-08
-1.29524e-10
4.62998e-08
-1.27507e-10
4.62921e-08
-1.228e-10
4.62862e-08
-1.16062e-10
4.62819e-08
-1.07865e-10
4.62789e-08
-9.87109e-11
4.6277e-08
-8.90333e-11
4.62761e-08
-7.92045e-11
4.6276e-08
-6.95358e-11
4.62764e-08
-6.02778e-11
4.62772e-08
-5.16217e-11
4.62783e-08
-4.37012e-11
4.62796e-08
-3.65966e-11
4.6281e-08
-3.03408e-11
4.62824e-08
-2.4927e-11
4.62837e-08
-2.03164e-11
4.62849e-08
-1.64478e-11
4.6286e-08
-1.32452e-11
4.6287e-08
-1.06258e-11
4.62879e-08
-8.50543e-12
4.62887e-08
-6.80373e-12
4.62893e-08
-5.44695e-12
4.62899e-08
-4.37001e-12
4.62904e-08
-3.51709e-12
4.62908e-08
-2.84164e-12
4.62911e-08
-2.30565e-12
4.62914e-08
-1.87875e-12
4.62916e-08
-1.53696e-12
4.62918e-08
-1.26168e-12
4.6292e-08
-1.03855e-12
4.62921e-08
-8.56539e-13
4.62922e-08
-7.07219e-13
4.62923e-08
-5.84103e-13
4.62924e-08
-4.82156e-13
4.62924e-08
-3.97498e-13
4.62925e-08
-3.27007e-13
4.62925e-08
-2.6827e-13
4.62926e-08
-2.19295e-13
4.62926e-08
-1.78462e-13
4.62926e-08
-1.44472e-13
4.62927e-08
-1.16172e-13
4.62927e-08
-9.26634e-14
4.62927e-08
-7.31394e-14
4.62927e-08
-5.6924e-14
4.62927e-08
-4.34783e-14
4.62927e-08
-3.23288e-14
4.62928e-08
-2.31135e-14
4.62928e-08
-1.55381e-14
4.62928e-08
-9.34381e-15
4.62928e-08
-4.3169e-15
4.62928e-08
-2.96115e-16
4.62928e-08
2.90843e-15
4.62928e-08
5.41274e-15
4.62928e-08
7.32628e-15
4.62928e-08
8.76511e-15
4.62928e-08
9.74412e-15
4.62928e-08
1.03336e-14
4.62928e-08
1.05328e-14
4.62928e-08
1.02797e-14
9.56542e-15
4.61639e-08
1.92943e-09
-4.60423e-08
4.63157e-08
2.13268e-09
4.64853e-08
2.29737e-09
4.66623e-08
2.41902e-09
4.684e-08
2.49948e-09
4.70136e-08
2.54218e-09
4.7179e-08
2.55065e-09
4.73333e-08
2.52891e-09
4.74744e-08
2.48168e-09
4.76016e-08
2.414e-09
4.77146e-08
2.33078e-09
4.7814e-08
2.23652e-09
4.79009e-08
2.13512e-09
4.79767e-08
2.02974e-09
4.80429e-08
1.92276e-09
4.81008e-08
1.81576e-09
4.81518e-08
1.70962e-09
4.81971e-08
1.60464e-09
4.82375e-08
1.50066e-09
4.82735e-08
1.39719e-09
4.83056e-08
1.29357e-09
4.83336e-08
1.18908e-09
4.83574e-08
1.0831e-09
4.83765e-08
9.75251e-10
4.83904e-08
8.65568e-10
4.83984e-08
7.54641e-10
4.84e-08
6.43685e-10
4.83951e-08
5.34523e-10
4.83838e-08
4.29438e-10
4.8367e-08
3.30908e-10
4.83456e-08
2.41247e-10
4.83213e-08
1.62179e-10
4.82953e-08
9.4507e-11
4.82688e-08
3.81577e-11
4.82428e-08
-7.49033e-12
4.8218e-08
-4.33471e-11
4.8195e-08
-7.05142e-11
4.8174e-08
-9.01646e-11
4.81551e-08
-1.03438e-10
4.81384e-08
-1.11387e-10
4.81238e-08
-1.14954e-10
4.81113e-08
-1.14974e-10
4.81006e-08
-1.12178e-10
4.80918e-08
-1.07207e-10
4.80845e-08
-1.00624e-10
4.80788e-08
-9.29234e-11
4.80743e-08
-8.45372e-11
4.80709e-08
-7.5837e-11
4.80685e-08
-6.71361e-11
4.80669e-08
-5.86902e-11
4.8066e-08
-5.0698e-11
4.80656e-08
-4.33038e-11
4.80656e-08
-3.6601e-11
4.80659e-08
-3.06373e-11
4.80664e-08
-2.5422e-11
4.8067e-08
-2.09331e-11
4.80677e-08
-1.7125e-11
4.80684e-08
-1.39367e-11
4.8069e-08
-1.12984e-11
4.80697e-08
-9.13706e-12
4.80703e-08
-7.38126e-12
4.80708e-08
-5.96414e-12
4.80712e-08
-4.82564e-12
4.80716e-08
-3.91336e-12
4.8072e-08
-3.18286e-12
4.80723e-08
-2.59726e-12
4.80725e-08
-2.12658e-12
4.80727e-08
-1.7468e-12
4.80729e-08
-1.43892e-12
4.8073e-08
-1.18806e-12
4.80732e-08
-9.826e-13
4.80733e-08
-8.13519e-13
4.80734e-08
-6.73787e-13
4.80734e-08
-5.57877e-13
4.80735e-08
-4.61484e-13
4.80736e-08
-3.81132e-13
4.80736e-08
-3.14098e-13
4.80736e-08
-2.58144e-13
4.80737e-08
-2.11433e-13
4.80737e-08
-1.7249e-13
4.80737e-08
-1.40019e-13
4.80737e-08
-1.12991e-13
4.80738e-08
-9.05041e-14
4.80738e-08
-7.17963e-14
4.80738e-08
-5.62573e-14
4.80738e-08
-4.3358e-14
4.80738e-08
-3.26797e-14
4.80738e-08
-2.38825e-14
4.80738e-08
-1.66683e-14
4.80738e-08
-1.07841e-14
4.80738e-08
-6.04049e-15
4.80738e-08
-2.22996e-15
4.80738e-08
7.87636e-16
4.80739e-08
3.12989e-15
4.80739e-08
4.92791e-15
4.80739e-08
6.21197e-15
4.80739e-08
7.05892e-15
4.80739e-08
7.49824e-15
4.80739e-08
7.51848e-15
7.27375e-15
4.79637e-08
1.81619e-09
-4.78504e-08
4.8103e-08
1.99339e-09
4.82593e-08
2.14102e-09
4.84243e-08
2.254e-09
4.85917e-08
2.33209e-09
4.87568e-08
2.37715e-09
4.89156e-08
2.39178e-09
4.90654e-08
2.37913e-09
4.92041e-08
2.34297e-09
4.93306e-08
2.28746e-09
4.94447e-08
2.21674e-09
4.95465e-08
2.13469e-09
4.96369e-08
2.04475e-09
4.97169e-08
1.94976e-09
4.97877e-08
1.85196e-09
4.98505e-08
1.75292e-09
4.99065e-08
1.6536e-09
4.99567e-08
1.55447e-09
5.00018e-08
1.45558e-09
5.00423e-08
1.35669e-09
5.00785e-08
1.25739e-09
5.01103e-08
1.15721e-09
5.01377e-08
1.05576e-09
5.01601e-08
9.52834e-10
5.01771e-08
8.48592e-10
5.01881e-08
7.4362e-10
5.01928e-08
6.39009e-10
5.0191e-08
5.36328e-10
5.01829e-08
4.37502e-10
5.01692e-08
3.446e-10
5.01509e-08
2.59546e-10
5.01293e-08
1.83813e-10
5.01056e-08
1.18181e-10
5.0081e-08
6.27391e-11
5.00565e-08
1.70737e-11
5.00326e-08
-1.95304e-11
5.00101e-08
-4.79716e-11
4.99892e-08
-6.92419e-11
4.99701e-08
-8.43343e-11
4.99529e-08
-9.41914e-11
4.99376e-08
-9.96793e-11
4.99242e-08
-1.01578e-10
4.99126e-08
-1.00583e-10
4.99027e-08
-9.73111e-11
4.98944e-08
-9.23109e-11
4.98875e-08
-8.60651e-11
4.9882e-08
-7.89974e-11
4.98776e-08
-7.14743e-11
4.98743e-08
-6.38066e-11
4.98719e-08
-5.62501e-11
4.98702e-08
-4.9007e-11
4.98691e-08
-4.2228e-11
4.98685e-08
-3.6016e-11
4.98683e-08
-3.04307e-11
4.98684e-08
-2.5495e-11
4.98687e-08
-2.12015e-11
4.98691e-08
-1.75197e-11
4.98695e-08
-1.44028e-11
4.987e-08
-1.17939e-11
4.98705e-08
-9.63171e-12
4.9871e-08
-7.85433e-12
4.98714e-08
-6.40272e-12
4.98718e-08
-5.2228e-12
4.98722e-08
-4.26657e-12
4.98725e-08
-3.49261e-12
4.98727e-08
-2.86599e-12
4.9873e-08
-2.35783e-12
4.98732e-08
-1.94459e-12
4.98733e-08
-1.60737e-12
4.98735e-08
-1.3311e-12
4.98736e-08
-1.10384e-12
4.98737e-08
-9.16181e-13
4.98738e-08
-7.60682e-13
4.98739e-08
-6.31428e-13
4.98739e-08
-5.23757e-13
4.9874e-08
-4.3389e-13
4.9874e-08
-3.58824e-13
4.98741e-08
-2.96098e-13
4.98741e-08
-2.43674e-13
4.98741e-08
-1.99908e-13
4.98742e-08
-1.63372e-13
4.98742e-08
-1.3291e-13
4.98742e-08
-1.0753e-13
4.98742e-08
-8.63868e-14
4.98742e-08
-6.88018e-14
4.98742e-08
-5.41915e-14
4.98742e-08
-4.20828e-14
4.98742e-08
-3.20896e-14
4.98743e-08
-2.38758e-14
4.98743e-08
-1.71515e-14
4.98743e-08
-1.16989e-14
4.98743e-08
-7.29262e-15
4.98743e-08
-3.76862e-15
4.98743e-08
-1.00047e-15
4.98743e-08
1.15448e-15
4.98743e-08
2.74445e-15
4.98743e-08
3.85293e-15
4.98743e-08
4.53701e-15
4.98743e-08
4.82338e-15
4.92404e-15
4.98248e-08
1.70954e-09
-4.97182e-08
4.99539e-08
1.86432e-09
5.00989e-08
1.99605e-09
5.0253e-08
2.09989e-09
5.04106e-08
2.17443e-09
5.05674e-08
2.22038e-09
5.07197e-08
2.23947e-09
5.08648e-08
2.2341e-09
5.10005e-08
2.20724e-09
5.11257e-08
2.16225e-09
5.12399e-08
2.10259e-09
5.1343e-08
2.03155e-09
5.14356e-08
1.95214e-09
5.15185e-08
1.8669e-09
5.15925e-08
1.77789e-09
5.16588e-08
1.68662e-09
5.17183e-08
1.59412e-09
5.17718e-08
1.50097e-09
5.182e-08
1.4074e-09
5.18633e-08
1.31337e-09
5.1902e-08
1.21868e-09
5.19361e-08
1.12309e-09
5.19655e-08
1.02638e-09
5.19898e-08
9.28521e-10
5.20087e-08
8.29748e-10
5.20217e-08
7.30645e-10
5.20285e-08
6.32191e-10
5.20291e-08
5.35737e-10
5.20237e-08
4.42908e-10
5.20128e-08
3.55429e-10
5.19975e-08
2.74908e-10
5.19787e-08
2.02605e-10
5.19576e-08
1.39251e-10
5.19353e-08
8.50329e-11
5.19127e-08
3.97039e-11
5.18904e-08
2.72415e-12
5.18691e-08
-2.66305e-11
5.1849e-08
-4.91911e-11
5.18305e-08
-6.58144e-11
5.18137e-08
-7.73374e-11
5.17985e-08
-8.45469e-11
5.17851e-08
-8.81655e-11
5.17734e-08
-8.88483e-11
5.17633e-08
-8.71843e-11
5.17546e-08
-8.37e-11
5.17474e-08
-7.88635e-11
5.17415e-08
-7.30871e-11
5.17368e-08
-6.67291e-11
5.17331e-08
-6.00951e-11
5.17303e-08
-5.34391e-11
5.17282e-08
-4.69644e-11
5.17268e-08
-4.08263e-11
5.17259e-08
-3.51351e-11
5.17255e-08
-2.99606e-11
5.17253e-08
-2.53379e-11
5.17254e-08
-2.12728e-11
5.17256e-08
-1.77485e-11
5.17259e-08
-1.47317e-11
5.17263e-08
-1.2178e-11
5.17267e-08
-1.00372e-11
5.17271e-08
-8.25722e-12
5.17275e-08
-6.78685e-12
5.17279e-08
-5.57827e-12
5.17282e-08
-4.58823e-12
5.17285e-08
-3.77873e-12
5.17287e-08
-3.11715e-12
5.17289e-08
-2.57606e-12
5.17291e-08
-2.13277e-12
5.17293e-08
-1.7687e-12
5.17294e-08
-1.46884e-12
5.17296e-08
-1.22111e-12
5.17297e-08
-1.01582e-12
5.17297e-08
-8.45248e-13
5.17298e-08
-7.03158e-13
5.17299e-08
-5.84585e-13
5.17299e-08
-4.85485e-13
5.173e-08
-4.02604e-13
5.173e-08
-3.33272e-13
5.173e-08
-2.75267e-13
5.17301e-08
-2.26781e-13
5.17301e-08
-1.86262e-13
5.17301e-08
-1.52435e-13
5.17301e-08
-1.24216e-13
5.17301e-08
-1.00683e-13
5.17301e-08
-8.10901e-14
5.17302e-08
-6.48008e-14
5.17302e-08
-5.12881e-14
5.17302e-08
-4.01196e-14
5.17302e-08
-3.09216e-14
5.17302e-08
-2.33695e-14
5.17302e-08
-1.7217e-14
5.17302e-08
-1.22222e-14
5.17302e-08
-8.1986e-15
5.17302e-08
-5.00871e-15
5.17302e-08
-2.50025e-15
5.17302e-08
-6.05497e-16
5.17302e-08
7.65418e-16
5.17302e-08
1.6933e-15
5.17302e-08
2.23089e-15
2.5927e-15
5.175e-08
1.60822e-09
-5.16487e-08
5.18707e-08
1.74367e-09
5.20059e-08
1.86089e-09
5.21502e-08
1.95555e-09
5.22989e-08
2.02576e-09
5.24478e-08
2.07142e-09
5.25937e-08
2.09355e-09
5.27339e-08
2.0939e-09
5.28664e-08
2.07475e-09
5.29899e-08
2.03878e-09
5.31037e-08
1.98883e-09
5.32075e-08
1.92768e-09
5.33018e-08
1.85791e-09
5.33869e-08
1.78178e-09
5.34636e-08
1.70115e-09
5.35328e-08
1.61745e-09
5.35952e-08
1.53174e-09
5.36515e-08
1.44468e-09
5.37023e-08
1.35661e-09
5.3748e-08
1.26768e-09
5.37888e-08
1.17786e-09
5.38248e-08
1.08708e-09
5.38559e-08
9.95298e-10
5.38818e-08
9.02599e-10
5.39022e-08
8.09284e-10
5.3917e-08
7.15929e-10
5.39257e-08
6.23417e-10
5.39286e-08
5.32914e-10
5.39257e-08
4.45795e-10
5.39176e-08
3.63505e-10
5.39051e-08
2.87393e-10
5.38892e-08
2.18538e-10
5.38708e-08
1.57617e-10
5.3851e-08
1.04872e-10
5.38305e-08
6.01799e-11
5.38101e-08
2.31487e-11
5.37902e-08
-6.79575e-12
5.37714e-08
-3.03442e-11
5.37538e-08
-4.82257e-11
5.37376e-08
-6.11782e-11
5.3723e-08
-6.99095e-11
5.37099e-08
-7.50825e-11
5.36984e-08
-7.73079e-11
5.36883e-08
-7.7142e-11
5.36797e-08
-7.50868e-11
5.36725e-08
-7.15918e-11
5.36664e-08
-6.7055e-11
5.36615e-08
-6.18245e-11
5.36576e-08
-5.61989e-11
5.36546e-08
-5.04286e-11
5.36524e-08
-4.47166e-11
5.36508e-08
-3.92213e-11
5.36497e-08
-3.40589e-11
5.3649e-08
-2.93083e-11
5.36487e-08
-2.50147e-11
5.36486e-08
-2.11962e-11
5.36487e-08
-1.78484e-11
5.36489e-08
-1.49503e-11
5.36492e-08
-1.24696e-11
5.36496e-08
-1.03666e-11
5.36499e-08
-8.59844e-12
5.36502e-08
-7.12176e-12
5.36506e-08
-5.89501e-12
5.36508e-08
-4.87976e-12
5.36511e-08
-4.04164e-12
5.36513e-08
-3.35056e-12
5.36516e-08
-2.78081e-12
5.36517e-08
-2.31071e-12
5.36519e-08
-1.92226e-12
5.3652e-08
-1.60066e-12
5.36521e-08
-1.33382e-12
5.36522e-08
-1.11194e-12
5.36523e-08
-9.27055e-13
5.36524e-08
-7.727e-13
5.36524e-08
-6.4366e-13
5.36525e-08
-5.35658e-13
5.36525e-08
-4.45219e-13
5.36526e-08
-3.69482e-13
5.36526e-08
-3.06054e-13
5.36526e-08
-2.52977e-13
5.36526e-08
-2.08577e-13
5.36527e-08
-1.71467e-13
5.36527e-08
-1.40478e-13
5.36527e-08
-1.14613e-13
5.36527e-08
-9.30613e-14
5.36527e-08
-7.51333e-14
5.36527e-08
-6.02496e-14
5.36527e-08
-4.79318e-14
5.36527e-08
-3.77692e-14
5.36527e-08
-2.94055e-14
5.36527e-08
-2.25655e-14
5.36528e-08
-1.69925e-14
5.36528e-08
-1.24784e-14
5.36528e-08
-8.87367e-15
5.36528e-08
-6.0174e-15
5.36528e-08
-3.82167e-15
5.36528e-08
-2.19017e-15
5.36528e-08