/*--------------------------------*- C++ -*----------------------------------*\
| =========                 |                                                 |
| \\      /  F ield         | OpenFOAM: The Open Source CFD Toolbox           |
|  \\    /   O peration     | Version:  2.3.0                                 |
|   \\  /    A nd           | Web:      www.OpenFOAM.org                      |
|    \\/     M anipulation  |                                                 |
\*---------------------------------------------------------------------------*/
FoamFile
{
    version     2.0;
    format      ascii;
    class       surfaceScalarField;
    location    "0.3";
    object      phi_0;
}
// * * * * * * * * * * * * * * * * * * * * * * * * * * * * * * * * * * * * * //

dimensions      [0 3 -1 0 0 0 0];

internalField   nonuniform List<scalar> 
396
(
1.32439e-07
2.44382e-09
-1.34883e-07
1.28468e-07
3.97092e-09
1.24316e-07
4.1519e-09
1.20129e-07
4.18724e-09
1.15758e-07
4.37101e-09
1.11344e-07
4.41373e-09
1.06359e-07
4.98518e-09
1.01111e-07
5.24797e-09
9.63719e-08
4.73927e-09
9.1801e-08
4.5709e-09
8.70198e-08
4.78119e-09
8.20032e-08
5.01654e-09
7.66396e-08
5.3636e-09
7.12649e-08
5.37473e-09
6.64104e-08
4.8545e-09
6.19911e-08
4.41931e-09
5.79012e-08
4.08991e-09
5.47037e-08
3.19752e-09
5.29793e-08
1.7244e-09
5.26509e-08
3.28402e-10
5.30794e-08
-4.28539e-10
5.3712e-08
-6.3255e-10
5.42161e-08
-5.04133e-10
5.45899e-08
-3.73765e-10
-1.98951e-10
1.61893e-07
2.00701e-09
-1.61456e-07
1.62145e-07
3.71811e-09
1.62063e-07
4.23382e-09
1.61835e-07
4.41586e-09
1.61251e-07
4.95446e-09
1.60564e-07
5.10129e-09
1.59781e-07
5.76817e-09
1.58693e-07
6.33618e-09
1.57447e-07
5.98473e-09
1.56104e-07
5.91359e-09
1.54666e-07
6.21958e-09
1.53097e-07
6.58543e-09
1.51213e-07
7.24742e-09
1.49087e-07
7.50107e-09
1.46962e-07
6.97945e-09
1.44832e-07
6.54893e-09
1.42704e-07
6.21791e-09
1.40846e-07
5.05622e-09
1.3944e-07
3.12973e-09
1.38526e-07
1.24243e-09
1.38021e-07
7.64905e-11
1.3802e-07
-6.31171e-10
1.38295e-07
-7.79628e-10
1.38911e-07
-9.89623e-10
-7.39732e-10
1.92618e-07
1.94271e-09
-1.92554e-07
1.93008e-07
3.3283e-09
1.93319e-07
3.92316e-09
1.93604e-07
4.13047e-09
1.93705e-07
4.85392e-09
1.93625e-07
5.18098e-09
1.9375e-07
5.64358e-09
1.93874e-07
6.2113e-09
1.93748e-07
6.11156e-09
1.93529e-07
6.1324e-09
1.93343e-07
6.40513e-09
1.93203e-07
6.72564e-09
1.93096e-07
7.35421e-09
1.92963e-07
7.63474e-09
1.92751e-07
7.19092e-09
1.92466e-07
6.83409e-09
1.92142e-07
6.54165e-09
1.91813e-07
5.38514e-09
1.91409e-07
3.53437e-09
1.90933e-07
1.71785e-09
1.9049e-07
5.20197e-10
1.90216e-07
-3.57976e-10
1.90126e-07
-6.88914e-10
1.90231e-07
-1.09453e-09
-8.9816e-10
2.29416e-07
2.02135e-09
-2.29495e-07
2.29788e-07
2.95587e-09
2.30143e-07
3.56871e-09
2.30354e-07
3.91887e-09
2.30555e-07
4.65351e-09
2.30588e-07
5.14749e-09
2.30675e-07
5.55662e-09
2.30904e-07
5.98293e-09
2.31043e-07
5.97185e-09
2.31064e-07
6.11168e-09
2.31041e-07
6.42778e-09
2.3111e-07
6.65681e-09
2.3136e-07
7.10495e-09
2.31644e-07
7.3504e-09
2.3184e-07
6.99446e-09
2.32078e-07
6.5966e-09
2.32359e-07
6.2602e-09
2.32498e-07
5.24654e-09
2.3238e-07
3.65216e-09
2.32078e-07
2.02023e-09
2.31715e-07
8.83032e-10
2.31333e-07
2.35099e-11
2.31042e-07
-3.98023e-10
2.30765e-07
-8.16744e-10
-7.35438e-10
2.73464e-07
2.09789e-09
-2.7354e-07
2.73631e-07
2.78843e-09
2.73797e-07
3.4033e-09
2.73957e-07
3.75867e-09
2.74177e-07
4.43341e-09
2.74336e-07
4.98837e-09
2.74532e-07
5.36093e-09
2.74707e-07
5.80767e-09
2.74728e-07
5.95049e-09
2.748e-07
6.04002e-09
2.74903e-07
6.32432e-09
2.74974e-07
6.58595e-09
2.75193e-07
6.88647e-09
2.75509e-07
7.03459e-09
2.75751e-07
6.75164e-09
2.76017e-07
6.33135e-09
2.76337e-07
5.93983e-09
2.76538e-07
5.04601e-09
2.76486e-07
3.70366e-09
2.76226e-07
2.2808e-09
2.75853e-07
1.256e-09
2.7547e-07
4.06038e-10
2.75137e-07
-6.46515e-11
2.74832e-07
-5.12296e-10
-5.6327e-10
3.32452e-07
2.16787e-09
-3.32522e-07
3.32615e-07
2.62518e-09
3.32793e-07
3.22549e-09
3.32849e-07
3.7029e-09
3.33082e-07
4.19992e-09
3.33284e-07
4.78698e-09
3.33379e-07
5.26564e-09
3.33457e-07
5.72954e-09
3.33478e-07
5.93011e-09
3.33544e-07
5.97386e-09
3.33678e-07
6.19014e-09
3.33829e-07
6.43509e-09
3.34076e-07
6.63906e-09
3.34314e-07
6.7969e-09
3.34445e-07
6.62031e-09
3.34686e-07
6.0904e-09
3.35048e-07
5.57785e-09
3.352e-07
4.89459e-09
3.35077e-07
3.82609e-09
3.34854e-07
2.50352e-09
3.34629e-07
1.48136e-09
3.3434e-07
6.94653e-10
3.34067e-07
2.08422e-10
3.3375e-07
-1.94703e-10
-3.14938e-10
6.66155e-07
-6.66109e-07
6.66281e-07
6.66317e-07
6.66255e-07
6.66304e-07
6.6645e-07
6.66695e-07
6.66952e-07
6.66911e-07
6.66887e-07
6.67112e-07
6.67204e-07
6.67204e-07
6.67439e-07
6.67748e-07
6.67857e-07
6.67912e-07
6.6805e-07
6.68118e-07
6.67951e-07
6.6761e-07
6.67292e-07
6.67032e-07
6.66865e-07
1.37295e-07
-8.92086e-11
1.37232e-07
-4.273e-10
1.3701e-07
2.18327e-10
1.36531e-07
8.44369e-10
1.3569e-07
1.41832e-09
1.22235e-09
1.63087e-07
5.92933e-11
1.62798e-07
-1.37639e-10
1.62569e-07
4.46563e-10
1.62167e-07
1.24689e-09
1.61699e-07
1.88594e-09
1.46577e-09
1.94053e-07
1.26978e-10
1.93588e-07
3.2788e-10
1.93375e-07
6.59918e-10
1.93151e-07
1.47075e-09
1.92949e-07
2.08791e-09
1.86044e-09
2.30748e-07
2.28734e-10
2.30388e-07
6.88595e-10
2.30024e-07
1.02338e-09
2.29903e-07
1.59159e-09
2.29839e-07
2.15224e-09
2.20492e-09
2.74418e-07
3.39581e-10
2.7412e-07
9.86754e-10
2.73788e-07
1.35538e-09
2.73605e-07
1.77388e-09
2.73602e-07
2.15573e-09
2.26656e-09
3.33233e-07
4.3978e-10
3.32978e-07
1.24141e-09
3.3273e-07
1.60399e-09
3.3258e-07
1.92417e-09
3.32564e-07
2.17103e-09
2.3088e-09
6.66597e-07
6.66392e-07
6.6624e-07
6.66149e-07
6.66098e-07
)
;

boundaryField
{
    top
    {
        type            calculated;
        value           nonuniform List<scalar> 
31
(
2.1212e-09
2.49924e-09
3.18994e-09
3.76438e-09
4.15095e-09
4.64104e-09
5.02077e-09
5.47249e-09
5.9713e-09
5.99787e-09
5.96518e-09
6.34339e-09
6.63866e-09
6.56203e-09
6.31077e-09
5.98225e-09
5.52211e-09
4.75706e-09
3.75799e-09
2.67064e-09
1.82225e-09
1.01229e-09
4.68304e-10
-2.77223e-11
-2.61694e-10
5.09405e-10
1.44626e-09
1.75574e-09
2.01565e-09
2.22175e-09
2.29844e-09
)
;
    }
    inlet
    {
        type            calculated;
        value           nonuniform List<scalar> 7(-3.33333e-07 -6.66667e-07 -1.37264e-07 -1.63236e-07 -1.94121e-07 -2.3085e-07 -2.74529e-07);
    }
    outlet
    {
        type            calculated;
        value           nonuniform List<scalar> 7(3.33501e-07 6.66812e-07 5.47888e-08 1.39452e-07 1.90389e-07 2.30602e-07 2.7466e-07);
    }
    plate
    {
        type            calculated;
        value           uniform 0;
    }
    symmBound
    {
        type            calculated;
        value           nonuniform List<scalar> 6(5.85427e-11 4.89997e-10 4.12161e-12 -3.65198e-10 -5.77844e-10 -4.15034e-10);
    }
    frontAndBack
    {
        type            empty;
        value           nonuniform 0();
    }
}


// ************************************************************************* //
