/*--------------------------------*- C++ -*----------------------------------*\
| =========                 |                                                 |
| \\      /  F ield         | OpenFOAM: The Open Source CFD Toolbox           |
|  \\    /   O peration     | Version:  2.3.0                                 |
|   \\  /    A nd           | Web:      www.OpenFOAM.org                      |
|    \\/     M anipulation  |                                                 |
\*---------------------------------------------------------------------------*/
FoamFile
{
    version     2.0;
    format      ascii;
    class       volVectorField;
    location    "0.3";
    object      U;
}
// * * * * * * * * * * * * * * * * * * * * * * * * * * * * * * * * * * * * * //

dimensions      [0 1 -1 0 0 0 0];

internalField   nonuniform List<vector> 
217
(
(0.195577 0.00116079 0)
(0.189304 0.00190072 0)
(0.183418 0.00198353 0)
(0.178139 0.00210263 0)
(0.171837 0.00207295 0)
(0.165736 0.00201998 0)
(0.158963 0.00228922 0)
(0.150959 0.00218689 0)
(0.143722 0.00183735 0)
(0.137147 0.00175108 0)
(0.130296 0.00176917 0)
(0.12313 0.00184132 0)
(0.115463 0.00184352 0)
(0.107544 0.00160617 0)
(0.100085 0.00137426 0)
(0.0932364 0.0012568 0)
(0.0868892 0.000995441 0)
(0.0815365 0.000490993 0)
(0.0779912 -4.48517e-05 0)
(0.0765683 -0.000349985 0)
(0.0767148 -0.000393097 0)
(0.0775631 -0.00027134 0)
(0.0784627 -0.000133862 0)
(0.0790816 -4.39625e-05 0)
(0.0796117 -5.54625e-06 0)
(0.19874 0.00177208 0)
(0.198616 0.003127 0)
(0.198247 0.00342172 0)
(0.198125 0.00337216 0)
(0.197835 0.00358096 0)
(0.197306 0.0034533 0)
(0.196426 0.00366926 0)
(0.195208 0.00398818 0)
(0.193831 0.00364974 0)
(0.192187 0.00338486 0)
(0.190414 0.00344463 0)
(0.188504 0.00350677 0)
(0.186299 0.00370698 0)
(0.183956 0.00380627 0)
(0.181415 0.00349855 0)
(0.178592 0.00309673 0)
(0.175875 0.00283057 0)
(0.173634 0.00238289 0)
(0.171796 0.00158108 0)
(0.170242 0.000700446 0)
(0.169227 8.34632e-05 0)
(0.168718 -0.000200792 0)
(0.16911 -0.000251072 0)
(0.169393 -0.000249789 0)
(0.170675 -0.000151715 0)
(0.198897 0.00138031 0)
(0.198737 0.00238361 0)
(0.19886 0.0026319 0)
(0.199052 0.00261974 0)
(0.199276 0.00296193 0)
(0.199485 0.00306451 0)
(0.199593 0.00339007 0)
(0.199789 0.00365066 0)
(0.199875 0.00337396 0)
(0.199646 0.00324382 0)
(0.199318 0.00329364 0)
(0.199003 0.00337475 0)
(0.198815 0.00371998 0)
(0.19886 0.00380668 0)
(0.19877 0.0034062 0)
(0.19836 0.00315719 0)
(0.197989 0.0030284 0)
(0.197872 0.00238299 0)
(0.197654 0.00137675 0)
(0.197106 0.000485076 0)
(0.196467 1.15574e-05 0)
(0.195975 -0.000290853 0)
(0.19583 -0.000372453 0)
(0.195785 -0.000535754 0)
(0.196092 -0.000420523 0)
(0.199166 0.00142246 0)
(0.198864 0.00212638 0)
(0.199128 0.0025566 0)
(0.199371 0.00264517 0)
(0.19945 0.00302312 0)
(0.199712 0.00327196 0)
(0.19977 0.00344925 0)
(0.199867 0.00358349 0)
(0.200295 0.00350131 0)
(0.200437 0.00350894 0)
(0.200189 0.00356946 0)
(0.200048 0.00360786 0)
(0.20017 0.00376965 0)
(0.200513 0.00375616 0)
(0.200818 0.00347918 0)
(0.20093 0.00325322 0)
(0.201098 0.00297787 0)
(0.201438 0.00236601 0)
(0.201603 0.00160166 0)
(0.201377 0.000910015 0)
(0.200943 0.000417801 0)
(0.200544 1.71643e-05 0)
(0.200221 -0.000145662 0)
(0.200043 -0.000270393 0)
(0.199772 -0.00022646 0)
(0.199552 0.00151353 0)
(0.199252 0.00204406 0)
(0.199191 0.00241481 0)
(0.199493 0.00251953 0)
(0.199612 0.00287797 0)
(0.199729 0.00311124 0)
(0.199874 0.00328737 0)
(0.199938 0.00355676 0)
(0.200218 0.00348701 0)
(0.200447 0.00337676 0)
(0.200302 0.0034624 0)
(0.200163 0.00348116 0)
(0.200264 0.00352415 0)
(0.20054 0.00356971 0)
(0.200832 0.00335303 0)
(0.200998 0.00300151 0)
(0.201141 0.00270333 0)
(0.201436 0.00226817 0)
(0.201624 0.00162335 0)
(0.201487 0.000890232 0)
(0.201123 0.000390502 0)
(0.200812 2.92159e-05 0)
(0.200514 -0.00010695 0)
(0.20034 -0.000299731 0)
(0.200085 -0.000295105 0)
(0.199712 0.00157743 0)
(0.199484 0.0018509 0)
(0.199402 0.00224221 0)
(0.199669 0.00250784 0)
(0.199779 0.00275673 0)
(0.199901 0.00301213 0)
(0.200023 0.00319735 0)
(0.199862 0.00337866 0)
(0.200022 0.00341972 0)
(0.200397 0.00336257 0)
(0.200266 0.00337391 0)
(0.200082 0.00339963 0)
(0.200297 0.00342706 0)
(0.200534 0.00341652 0)
(0.200595 0.00320353 0)
(0.200707 0.00287309 0)
(0.200937 0.00260155 0)
(0.201142 0.00221083 0)
(0.201158 0.00162391 0)
(0.201049 0.00101275 0)
(0.20088 0.000598477 0)
(0.200724 0.000281296 0)
(0.20048 6.96644e-05 0)
(0.200368 -8.15254e-05 0)
(0.200104 -0.000110975 0)
(0.199934 0.00159702 0)
(0.1999 0.00180604 0)
(0.19979 0.00216271 0)
(0.199837 0.00248108 0)
(0.199907 0.00269 0)
(0.199915 0.0029303 0)
(0.19997 0.00305511 0)
(0.199978 0.00319153 0)
(0.200031 0.00340639 0)
(0.200165 0.00339133 0)
(0.200164 0.00328531 0)
(0.200113 0.00335405 0)
(0.200134 0.00338395 0)
(0.200157 0.00324788 0)
(0.200239 0.00305996 0)
(0.200387 0.00281772 0)
(0.200402 0.00248381 0)
(0.20037 0.00205062 0)
(0.200435 0.00158908 0)
(0.200491 0.00110999 0)
(0.200371 0.000718346 0)
(0.200211 0.000372938 0)
(0.20011 0.000164163 0)
(0.20008 -9.65109e-06 0)
(0.200044 -9.72335e-05 0)
(0.193912 -2.52737e-05 0)
(0.205483 -0.000146272 0)
(0.194607 2.51882e-07 0)
(0.203708 0.000202122 0)
(0.194488 0.000387371 0)
(0.201856 0.000333935 0)
(0.199195 -5.46804e-06 0)
(0.2003 -0.000155144 0)
(0.199178 0.000133237 0)
(0.199421 0.000469443 0)
(0.198793 0.000978334 0)
(0.198625 0.00089238 0)
(0.199942 3.12731e-05 0)
(0.199877 7.50769e-05 0)
(0.199616 0.000211036 0)
(0.199338 0.000620151 0)
(0.199265 0.00106886 0)
(0.199173 0.00103375 0)
(0.199983 4.82229e-05 0)
(0.199889 0.000172732 0)
(0.199725 0.000318274 0)
(0.199481 0.000649708 0)
(0.199455 0.00106281 0)
(0.199493 0.00124478 0)
(0.199984 7.94674e-05 0)
(0.199922 0.000278317 0)
(0.199814 0.000471754 0)
(0.199643 0.000760206 0)
(0.199588 0.00111599 0)
(0.199612 0.00133477 0)
(0.199988 0.00011299 0)
(0.19995 0.000376614 0)
(0.199894 0.000576375 0)
(0.19978 0.000843094 0)
(0.199748 0.00112052 0)
(0.199752 0.00138157 0)
(0.199997 0.000135451 0)
(0.199983 0.000465049 0)
(0.199974 0.00067693 0)
(0.199938 0.000912607 0)
(0.199925 0.00115972 0)
(0.199915 0.00138499 0)
)
;

boundaryField
{
    top
    {
        type            zeroGradient;
    }
    inlet
    {
        type            fixedValue;
        value           uniform (0.2 0 0);
    }
    outlet
    {
        type            zeroGradient;
    }
    plate
    {
        type            fixedValue;
        value           uniform (0 0 0);
    }
    symmBound
    {
        type            zeroGradient;
    }
    frontAndBack
    {
        type            empty;
    }
}


// ************************************************************************* //
