/*--------------------------------*- C++ -*----------------------------------*\
| =========                 |                                                 |
| \\      /  F ield         | OpenFOAM: The Open Source CFD Toolbox           |
|  \\    /   O peration     | Version:  2.3.0                                 |
|   \\  /    A nd           | Web:      www.OpenFOAM.org                      |
|    \\/     M anipulation  |                                                 |
\*---------------------------------------------------------------------------*/
FoamFile
{
    version     2.0;
    format      ascii;
    class       surfaceScalarField;
    location    "0.1";
    object      phi;
}
// * * * * * * * * * * * * * * * * * * * * * * * * * * * * * * * * * * * * * //

dimensions      [0 3 -1 0 0 0 0];

internalField   nonuniform List<scalar> 
11667
(
2.2639e-08
2.20411e-09
-2.48431e-08
1.99619e-08
2.67704e-09
1.72984e-08
2.66352e-09
1.48488e-08
2.44955e-09
1.26485e-08
2.20033e-09
1.07432e-08
1.90527e-09
9.18023e-09
1.563e-09
7.95965e-09
1.22058e-09
7.04839e-09
9.11257e-10
6.38829e-09
6.60107e-10
5.91483e-09
4.73458e-10
5.57091e-09
3.43915e-10
5.31246e-09
2.58457e-10
5.10827e-09
2.04182e-10
4.93736e-09
1.70911e-10
4.78687e-09
1.50499e-10
4.64988e-09
1.36982e-10
4.52316e-09
1.26721e-10
4.40532e-09
1.17845e-10
4.2958e-09
1.09514e-10
4.19435e-09
1.01457e-10
4.10067e-09
9.3678e-11
4.01442e-09
8.62436e-11
3.93522e-09
7.92063e-11
3.86259e-09
7.26281e-11
3.79604e-09
6.65454e-11
3.73512e-09
6.0926e-11
3.6794e-09
5.57143e-11
3.62853e-09
5.08698e-11
3.5822e-09
4.63336e-11
3.54017e-09
4.20313e-11
3.50225e-09
3.79187e-11
3.46827e-09
3.39852e-11
3.43806e-09
3.02048e-11
3.41155e-09
2.6514e-11
3.38867e-09
2.28817e-11
3.36937e-09
1.92954e-11
3.35365e-09
1.57207e-11
3.3415e-09
1.21447e-11
3.3329e-09
8.60725e-12
3.32771e-09
5.18271e-12
3.32584e-09
1.86954e-12
3.32673e-09
-8.80448e-13
3.32993e-09
-3.20629e-12
3.33502e-09
-5.08812e-12
3.34146e-09
-6.44264e-12
3.34877e-09
-7.30945e-12
3.35651e-09
-7.7415e-12
3.36432e-09
-7.80279e-12
3.37191e-09
-7.59e-12
3.3791e-09
-7.19035e-12
3.38577e-09
-6.67844e-12
3.39189e-09
-6.11333e-12
3.39743e-09
-5.54301e-12
3.40243e-09
-4.99882e-12
3.40693e-09
-4.49855e-12
3.41098e-09
-4.05082e-12
3.41464e-09
-3.65677e-12
3.41795e-09
-3.31184e-12
3.42096e-09
-3.00954e-12
3.4237e-09
-2.74203e-12
3.4262e-09
-2.50193e-12
3.42849e-09
-2.28394e-12
3.43057e-09
-2.08444e-12
3.43247e-09
-1.90105e-12
3.4342e-09
-1.73306e-12
3.43578e-09
-1.58035e-12
3.43723e-09
-1.44256e-12
3.43855e-09
-1.31949e-12
3.43976e-09
-1.21057e-12
3.44087e-09
-1.11467e-12
3.4419e-09
-1.03069e-12
3.44286e-09
-9.57228e-13
3.44375e-09
-8.92492e-13
3.44459e-09
-8.35346e-13
3.44537e-09
-7.84347e-13
3.44611e-09
-7.38442e-13
3.44681e-09
-6.9678e-13
3.44747e-09
-6.5863e-13
3.44809e-09
-6.23406e-13
3.44868e-09
-5.90624e-13
3.44924e-09
-5.59972e-13
3.44977e-09
-5.31161e-13
3.45027e-09
-5.04007e-13
3.45075e-09
-4.78371e-13
3.45121e-09
-4.54129e-13
3.45164e-09
-4.31109e-13
3.45205e-09
-4.0928e-13
3.45244e-09
-3.88565e-13
3.45281e-09
-3.68894e-13
3.45316e-09
-3.50188e-13
3.45349e-09
-3.32387e-13
3.4538e-09
-3.15442e-13
3.4541e-09
-2.99336e-13
3.45439e-09
-2.84025e-13
3.45466e-09
-2.69448e-13
3.45491e-09
-2.55569e-13
3.45515e-09
-2.42359e-13
3.45538e-09
-2.29787e-13
3.4556e-09
-2.17817e-13
3.45581e-09
-2.06419e-13
3.456e-09
-1.95579e-13
3.45619e-09
-1.85254e-13
3.45636e-09
-1.75434e-13
3.45653e-09
-1.66079e-13
3.45669e-09
-1.57194e-13
3.45684e-09
-1.4872e-13
3.45698e-09
-1.40682e-13
3.45711e-09
-1.33009e-13
3.45724e-09
-1.25749e-13
3.45735e-09
-1.18799e-13
3.45747e-09
-1.12236e-13
3.45757e-09
-1.05948e-13
3.45767e-09
-1.00025e-13
3.45777e-09
-9.4346e-14
3.45786e-09
-8.89933e-14
3.45794e-09
-8.38668e-14
3.45802e-09
-7.90319e-14
3.45809e-09
-7.44001e-14
3.45816e-09
-7.00439e-14
3.45823e-09
-6.58513e-14
3.45829e-09
-6.1932e-14
3.45835e-09
-5.81346e-14
3.4584e-09
-5.45922e-14
3.45846e-09
-5.11859e-14
3.4585e-09
-4.79388e-14
3.45855e-09
-4.49225e-14
3.45859e-09
-4.1916e-14
3.45863e-09
-3.92405e-14
3.45867e-09
-3.6485e-14
3.4587e-09
-3.40581e-14
3.45873e-09
-3.15656e-14
3.45876e-09
-2.93558e-14
3.45879e-09
-2.70469e-14
3.45881e-09
-2.51078e-14
3.45884e-09
-2.28836e-14
3.45886e-09
-2.12076e-14
3.45888e-09
-1.90868e-14
3.45889e-09
-1.75788e-14
3.45891e-09
-1.55801e-14
3.45892e-09
-1.42451e-14
3.45894e-09
-1.22685e-14
3.45895e-09
-1.11632e-14
3.45896e-09
-9.1879e-15
3.45896e-09
-8.25733e-15
3.45897e-09
-6.33288e-15
3.45898e-09
-5.5873e-15
3.45898e-09
-3.7221e-15
3.45898e-09
-3.21294e-15
-1.01678e-15
2.68912e-08
1.95924e-09
-2.66464e-08
2.67842e-08
2.78411e-09
2.62794e-08
3.16829e-09
2.55367e-08
3.19225e-09
2.46563e-08
3.08069e-09
2.36703e-08
2.89134e-09
2.26049e-08
2.62838e-09
2.15125e-08
2.31298e-09
2.04434e-08
1.98035e-09
1.94339e-08
1.66963e-09
1.85024e-08
1.40487e-09
1.7655e-08
1.19132e-09
1.68911e-08
1.02239e-09
1.62077e-08
8.87553e-10
1.55979e-08
7.80768e-10
1.5053e-08
6.95389e-10
1.45646e-08
6.25403e-10
1.41249e-08
5.66364e-10
1.37274e-08
5.15344e-10
1.33665e-08
4.70396e-10
1.30378e-08
4.30232e-10
1.27374e-08
3.94021e-10
1.24625e-08
3.61159e-10
1.22105e-08
3.31185e-10
1.19794e-08
3.03772e-10
1.17673e-08
2.78642e-10
1.15727e-08
2.55474e-10
1.13945e-08
2.3397e-10
1.12315e-08
2.13902e-10
1.10828e-08
1.95037e-10
1.09477e-08
1.77134e-10
1.08255e-08
1.60028e-10
1.07159e-08
1.43649e-10
1.06182e-08
1.27901e-10
1.05321e-08
1.12626e-10
1.04572e-08
9.77583e-11
1.03932e-08
8.32673e-11
1.03398e-08
6.91034e-11
1.02967e-08
5.52769e-11
1.02634e-08
4.19232e-11
1.02393e-08
2.93071e-11
1.02235e-08
1.76551e-11
1.02153e-08
7.30137e-12
1.02132e-08
-1.14445e-12
1.02163e-08
-8.19459e-12
1.02233e-08
-1.34405e-11
1.02331e-08
-1.70963e-11
1.02447e-08
-1.93091e-11
1.02572e-08
-2.02915e-11
1.02699e-08
-2.03373e-11
1.02825e-08
-1.97138e-11
1.02944e-08
-1.86537e-11
1.03057e-08
-1.73443e-11
1.03161e-08
-1.59378e-11
1.03256e-08
-1.45371e-11
1.03343e-08
-1.3205e-11
1.03422e-08
-1.19756e-11
1.03494e-08
-1.08611e-11
1.0356e-08
-9.85709e-12
1.03619e-08
-8.95293e-12
1.03673e-08
-8.13394e-12
1.03722e-08
-7.38661e-12
1.03766e-08
-6.70179e-12
1.03806e-08
-6.07322e-12
1.03842e-08
-5.49734e-12
1.03874e-08
-4.97373e-12
1.03904e-08
-4.50216e-12
1.0393e-08
-4.08121e-12
1.03954e-08
-3.70942e-12
1.03976e-08
-3.38379e-12
1.03996e-08
-3.1e-12
1.04014e-08
-2.8538e-12
1.04031e-08
-2.64021e-12
1.04046e-08
-2.45359e-12
1.04061e-08
-2.29005e-12
1.04074e-08
-2.14502e-12
1.04087e-08
-2.01532e-12
1.04099e-08
-1.89829e-12
1.0411e-08
-1.79167e-12
1.04121e-08
-1.69369e-12
1.04131e-08
-1.60293e-12
1.04141e-08
-1.51841e-12
1.0415e-08
-1.43926e-12
1.04159e-08
-1.36491e-12
1.04167e-08
-1.29492e-12
1.04174e-08
-1.2289e-12
1.04182e-08
-1.16637e-12
1.04189e-08
-1.10719e-12
1.04195e-08
-1.05112e-12
1.04202e-08
-9.97967e-13
1.04208e-08
-9.47475e-13
1.04213e-08
-8.99488e-13
1.04219e-08
-8.5385e-13
1.04224e-08
-8.10494e-13
1.04229e-08
-7.69307e-13
1.04233e-08
-7.30099e-13
1.04238e-08
-6.92782e-13
1.04242e-08
-6.57271e-13
1.04246e-08
-6.23485e-13
1.0425e-08
-5.91308e-13
1.04253e-08
-5.6067e-13
1.04256e-08
-5.31524e-13
1.0426e-08
-5.03758e-13
1.04263e-08
-4.77336e-13
1.04265e-08
-4.52161e-13
1.04268e-08
-4.28237e-13
1.04271e-08
-4.0541e-13
1.04273e-08
-3.83736e-13
1.04275e-08
-3.6305e-13
1.04278e-08
-3.43448e-13
1.0428e-08
-3.24686e-13
1.04282e-08
-3.0694e-13
1.04284e-08
-2.89944e-13
1.04285e-08
-2.73905e-13
1.04287e-08
-2.58526e-13
1.04288e-08
-2.44015e-13
1.0429e-08
-2.30103e-13
1.04291e-08
-2.1698e-13
1.04293e-08
-2.04382e-13
1.04294e-08
-1.92534e-13
1.04295e-08
-1.81112e-13
1.04296e-08
-1.70425e-13
1.04297e-08
-1.60059e-13
1.04298e-08
-1.50389e-13
1.04299e-08
-1.41042e-13
1.043e-08
-1.32206e-13
1.04301e-08
-1.23841e-13
1.04301e-08
-1.15712e-13
1.04302e-08
-1.08203e-13
1.04303e-08
-1.00778e-13
1.04303e-08
-9.39254e-14
1.04304e-08
-8.71907e-14
1.04304e-08
-8.09257e-14
1.04305e-08
-7.46899e-14
1.04305e-08
-6.91069e-14
1.04306e-08
-6.31468e-14
1.04306e-08
-5.82157e-14
1.04306e-08
-5.25436e-14
1.04307e-08
-4.80683e-14
1.04307e-08
-4.26842e-14
1.04307e-08
-3.86803e-14
1.04307e-08
-3.33441e-14
1.04308e-08
-2.99376e-14
1.04308e-08
-2.45574e-14
1.04308e-08
-2.16861e-14
1.04308e-08
-1.62774e-14
1.04308e-08
-1.40768e-14
1.04308e-08
-8.53848e-15
1.04308e-08
-7.31569e-15
-8.43686e-16
2.79238e-08
1.84331e-09
-2.78079e-08
2.82386e-08
2.46934e-09
2.84674e-08
2.93946e-09
2.85416e-08
3.11806e-09
2.85037e-08
3.11857e-09
2.83617e-08
3.03337e-09
2.81055e-08
2.88457e-09
2.77413e-08
2.67718e-09
2.72911e-08
2.43059e-09
2.67838e-08
2.17694e-09
2.62447e-08
1.94392e-09
2.56919e-08
1.74416e-09
2.51374e-08
1.57683e-09
2.45893e-08
1.43569e-09
2.40541e-08
1.31598e-09
2.35361e-08
1.21333e-09
2.30378e-08
1.12371e-09
2.25602e-08
1.04395e-09
2.21038e-08
9.71766e-10
2.16687e-08
9.05506e-10
2.12549e-08
8.44004e-10
2.08625e-08
7.86479e-10
2.04913e-08
7.3238e-10
2.01411e-08
6.81384e-10
1.98115e-08
6.33338e-10
1.95021e-08
5.88084e-10
1.92122e-08
5.45325e-10
1.89414e-08
5.04741e-10
1.86892e-08
4.66084e-10
1.84552e-08
4.29075e-10
1.82389e-08
3.93431e-10
1.804e-08
3.58982e-10
1.78579e-08
3.25669e-10
1.76924e-08
2.93412e-10
1.75431e-08
2.61996e-10
1.74095e-08
2.31347e-10
1.72913e-08
2.01467e-10
1.7188e-08
1.72361e-10
1.70992e-08
1.44061e-10
1.70244e-08
1.16786e-10
1.69627e-08
9.10218e-11
1.69131e-08
6.72243e-11
1.68746e-08
4.58213e-11
1.68462e-08
2.71712e-11
1.68268e-08
1.12768e-11
1.68146e-08
-1.22188e-12
1.68083e-08
-1.08787e-11
1.68069e-08
-1.78292e-11
1.68089e-08
-2.23757e-11
1.68136e-08
-2.49883e-11
1.682e-08
-2.60994e-11
1.68274e-08
-2.61144e-11
1.68355e-08
-2.53776e-11
1.68437e-08
-2.41869e-11
1.68519e-08
-2.27573e-11
1.686e-08
-2.1236e-11
1.68677e-08
-1.9716e-11
1.68751e-08
-1.82458e-11
1.68821e-08
-1.68412e-11
1.68886e-08
-1.55042e-11
1.68947e-08
-1.42267e-11
1.69003e-08
-1.3002e-11
1.69055e-08
-1.18301e-11
1.69101e-08
-1.07153e-11
1.69143e-08
-9.66542e-12
1.6918e-08
-8.69144e-12
1.69213e-08
-7.80238e-12
1.69242e-08
-7.00292e-12
1.69268e-08
-6.29555e-12
1.69291e-08
-5.67734e-12
1.69311e-08
-5.14203e-12
1.6933e-08
-4.68232e-12
1.69346e-08
-4.2883e-12
1.69361e-08
-3.94947e-12
1.69375e-08
-3.65746e-12
1.69387e-08
-3.40279e-12
1.69399e-08
-3.17909e-12
1.6941e-08
-2.9805e-12
1.6942e-08
-2.80222e-12
1.69429e-08
-2.64063e-12
1.69438e-08
-2.49273e-12
1.69447e-08
-2.35632e-12
1.69455e-08
-2.22969e-12
1.69462e-08
-2.11166e-12
1.69469e-08
-2.00124e-12
1.69476e-08
-1.89763e-12
1.69482e-08
-1.79992e-12
1.69488e-08
-1.70784e-12
1.69494e-08
-1.6209e-12
1.69499e-08
-1.53873e-12
1.69504e-08
-1.46082e-12
1.69509e-08
-1.38697e-12
1.69514e-08
-1.31684e-12
1.69518e-08
-1.25032e-12
1.69523e-08
-1.1872e-12
1.69526e-08
-1.12717e-12
1.6953e-08
-1.07008e-12
1.69534e-08
-1.01578e-12
1.69537e-08
-9.64138e-13
1.6954e-08
-9.14955e-13
1.69544e-08
-8.68136e-13
1.69546e-08
-8.23591e-13
1.69549e-08
-7.81134e-13
1.69552e-08
-7.40732e-13
1.69554e-08
-7.02215e-13
1.69557e-08
-6.65602e-13
1.69559e-08
-6.30629e-13
1.69561e-08
-5.97411e-13
1.69563e-08
-5.65681e-13
1.69565e-08
-5.35594e-13
1.69567e-08
-5.06756e-13
1.69569e-08
-4.7947e-13
1.6957e-08
-4.53289e-13
1.69572e-08
-4.28584e-13
1.69573e-08
-4.04832e-13
1.69575e-08
-3.82443e-13
1.69576e-08
-3.60897e-13
1.69577e-08
-3.40607e-13
1.69578e-08
-3.21036e-13
1.69579e-08
-3.02676e-13
1.69581e-08
-2.84878e-13
1.69581e-08
-2.68271e-13
1.69582e-08
-2.52059e-13
1.69583e-08
-2.37008e-13
1.69584e-08
-2.223e-13
1.69585e-08
-2.08556e-13
1.69586e-08
-1.95273e-13
1.69586e-08
-1.82659e-13
1.69587e-08
-1.70614e-13
1.69587e-08
-1.59093e-13
1.69588e-08
-1.48031e-13
1.69588e-08
-1.37527e-13
1.69589e-08
-1.27382e-13
1.69589e-08
-1.17596e-13
1.6959e-08
-1.08479e-13
1.6959e-08
-9.9114e-14
1.6959e-08
-9.09436e-14
1.69591e-08
-8.20074e-14
1.69591e-08
-7.45362e-14
1.69591e-08
-6.59487e-14
1.69591e-08
-5.92542e-14
1.69592e-08
-5.06278e-14
1.69592e-08
-4.48879e-14
1.69592e-08
-3.60652e-14
1.69592e-08
-3.12552e-14
1.69592e-08
-2.21454e-14
1.69592e-08
-1.85739e-14
1.69592e-08
-9.02752e-15
1.69592e-08
-7.15288e-15
3.61017e-15
2.89381e-08
1.7946e-09
-2.88894e-08
2.91677e-08
2.23975e-09
2.94637e-08
2.64348e-09
2.97099e-08
2.87181e-09
2.9898e-08
2.93046e-09
3.0037e-08
2.89439e-09
3.01182e-08
2.80343e-09
3.01288e-08
2.66659e-09
3.00659e-08
2.49339e-09
2.99394e-08
2.30353e-09
2.97638e-08
2.11953e-09
2.95524e-08
1.95551e-09
2.93145e-08
1.81471e-09
2.90562e-08
1.69397e-09
2.87832e-08
1.58905e-09
2.85001e-08
1.49643e-09
2.82105e-08
1.41326e-09
2.7917e-08
1.33741e-09
2.76215e-08
1.26728e-09
2.73254e-08
1.20162e-09
2.703e-08
1.13944e-09
2.67365e-08
1.07993e-09
2.64465e-08
1.02236e-09
2.61616e-08
9.66325e-10
2.58831e-08
9.11818e-10
2.56122e-08
8.58991e-10
2.53497e-08
8.07847e-10
2.50962e-08
7.58217e-10
2.48524e-08
7.09866e-10
2.46191e-08
6.62446e-10
2.43969e-08
6.15647e-10
2.41864e-08
5.69398e-10
2.39883e-08
5.23831e-10
2.38027e-08
4.79023e-10
2.36298e-08
4.34848e-10
2.34699e-08
3.91258e-10
2.33231e-08
3.48306e-10
2.31894e-08
3.06059e-10
2.30687e-08
2.64687e-10
2.29609e-08
2.24603e-10
2.28655e-08
1.86406e-10
2.27821e-08
1.5063e-10
2.27102e-08
1.178e-10
2.26489e-08
8.84247e-11
2.25974e-08
6.27422e-11
2.2555e-08
4.11753e-11
2.25207e-08
2.34549e-11
2.24935e-08
9.3666e-12
2.24724e-08
-1.28813e-12
2.24565e-08
-9.09437e-12
2.2445e-08
-1.45386e-11
2.2437e-08
-1.80987e-11
2.24318e-08
-2.02086e-11
2.24289e-08
-2.12895e-11
2.24278e-08
-2.16592e-11
2.24281e-08
-2.15624e-11
2.24296e-08
-2.11698e-11
2.24319e-08
-2.05856e-11
2.24349e-08
-1.98548e-11
2.24384e-08
-1.90017e-11
2.24422e-08
-1.80275e-11
2.24462e-08
-1.69369e-11
2.24501e-08
-1.57466e-11
2.24538e-08
-1.44843e-11
2.24574e-08
-1.31876e-11
2.24606e-08
-1.18986e-11
2.24634e-08
-1.06578e-11
2.24659e-08
-9.497e-12
2.24681e-08
-8.44048e-12
2.24699e-08
-7.50012e-12
2.24714e-08
-6.67841e-12
2.24727e-08
-5.97256e-12
2.24738e-08
-5.37094e-12
2.24747e-08
-4.86142e-12
2.24755e-08
-4.43087e-12
2.24761e-08
-4.06381e-12
2.24767e-08
-3.75055e-12
2.24772e-08
-3.4798e-12
2.24777e-08
-3.24355e-12
2.2478e-08
-3.03492e-12
2.24784e-08
-2.84851e-12
2.24787e-08
-2.68007e-12
2.2479e-08
-2.5265e-12
2.24793e-08
-2.38566e-12
2.24796e-08
-2.25562e-12
2.24798e-08
-2.13497e-12
2.248e-08
-2.02216e-12
2.24802e-08
-1.91678e-12
2.24804e-08
-1.81798e-12
2.24806e-08
-1.7252e-12
2.24808e-08
-1.63759e-12
2.24809e-08
-1.55495e-12
2.24811e-08
-1.4767e-12
2.24813e-08
-1.40272e-12
2.24814e-08
-1.33272e-12
2.24815e-08
-1.26623e-12
2.24817e-08
-1.20314e-12
2.24818e-08
-1.14318e-12
2.24819e-08
-1.08621e-12
2.2482e-08
-1.03196e-12
2.24822e-08
-9.80333e-13
2.24823e-08
-9.3122e-13
2.24824e-08
-8.8435e-13
2.24825e-08
-8.39754e-13
2.24826e-08
-7.97198e-13
2.24827e-08
-7.56728e-13
2.24827e-08
-7.17979e-13
2.24828e-08
-6.81176e-13
2.24829e-08
-6.45924e-13
2.2483e-08
-6.12513e-13
2.24831e-08
-5.80347e-13
2.24831e-08
-5.49954e-13
2.24832e-08
-5.2062e-13
2.24833e-08
-4.93017e-13
2.24833e-08
-4.6627e-13
2.24834e-08
-4.41171e-13
2.24834e-08
-4.16783e-13
2.24835e-08
-3.93947e-13
2.24835e-08
-3.71671e-13
2.24836e-08
-3.50919e-13
2.24836e-08
-3.3053e-13
2.24837e-08
-3.11687e-13
2.24837e-08
-2.92962e-13
2.24838e-08
-2.75844e-13
2.24838e-08
-2.58679e-13
2.24838e-08
-2.43018e-13
2.24839e-08
-2.27342e-13
2.24839e-08
-2.12916e-13
2.24839e-08
-1.98562e-13
2.24839e-08
-1.85289e-13
2.2484e-08
-1.72015e-13
2.2484e-08
-1.59777e-13
2.2484e-08
-1.47527e-13
2.2484e-08
-1.3599e-13
2.2484e-08
-1.24864e-13
2.24841e-08
-1.1372e-13
2.24841e-08
-1.03612e-13
2.24841e-08
-9.28416e-14
2.24841e-08
-8.35332e-14
2.24841e-08
-7.29566e-14
2.24841e-08
-6.45973e-14
2.24841e-08
-5.37515e-14
2.24841e-08
-4.65244e-14
2.24841e-08
-3.52258e-14
2.24841e-08
-2.91658e-14
2.24841e-08
-1.72258e-14
2.24841e-08
-1.27307e-14
2.24841e-08
-9.78802e-17
2.24841e-08
2.36954e-15
1.60707e-14
2.997e-08
1.74319e-09
-2.99186e-08
3.01293e-08
2.08043e-09
3.03732e-08
2.3996e-09
3.062e-08
2.62498e-09
3.08334e-08
2.71707e-09
3.10164e-08
2.71147e-09
3.11707e-08
2.64905e-09
3.12882e-08
2.5491e-09
3.1361e-08
2.42066e-09
3.13891e-08
2.27537e-09
3.138e-08
2.12865e-09
3.13423e-08
1.99317e-09
3.12824e-08
1.87461e-09
3.12043e-08
1.77213e-09
3.1111e-08
1.68236e-09
3.10052e-08
1.60216e-09
3.08893e-08
1.52924e-09
3.07646e-08
1.46206e-09
3.06324e-08
1.39951e-09
3.04934e-08
1.34067e-09
3.0348e-08
1.28475e-09
3.0197e-08
1.23094e-09
3.0041e-08
1.17835e-09
2.98811e-08
1.12624e-09
2.97186e-08
1.07438e-09
2.95546e-08
1.02294e-09
2.93903e-08
9.72169e-10
2.92263e-08
9.22221e-10
2.90632e-08
8.72985e-10
2.89016e-08
8.23998e-10
2.87426e-08
7.74711e-10
2.8587e-08
7.24942e-10
2.84359e-08
6.7493e-10
2.829e-08
6.24978e-10
2.81496e-08
5.75186e-10
2.80153e-08
5.25557e-10
2.78875e-08
4.76122e-10
2.77666e-08
4.26957e-10
2.7653e-08
3.78315e-10
2.75469e-08
3.3072e-10
2.74484e-08
2.84844e-10
2.73577e-08
2.41309e-10
2.72748e-08
2.00762e-10
2.71994e-08
1.63769e-10
2.71315e-08
1.30643e-10
2.7071e-08
1.01743e-10
2.70174e-08
7.70638e-11
2.69703e-08
5.64206e-11
2.69295e-08
3.9555e-11
2.68943e-08
2.6025e-11
2.68645e-08
1.53418e-11
2.68393e-08
7.07172e-12
2.68183e-08
8.17489e-13
2.68009e-08
-3.89064e-12
2.67866e-08
-7.41132e-12
2.67751e-08
-1.00583e-11
2.6766e-08
-1.20704e-11
2.6759e-08
-1.36132e-11
2.67539e-08
-1.47565e-11
2.67505e-08
-1.5544e-11
2.67484e-08
-1.5967e-11
2.67475e-08
-1.6019e-11
2.67475e-08
-1.57093e-11
2.67481e-08
-1.50702e-11
2.6749e-08
-1.41623e-11
2.67502e-08
-1.30583e-11
2.67514e-08
-1.18407e-11
2.67525e-08
-1.05869e-11
2.67534e-08
-9.36266e-12
2.67541e-08
-8.21617e-12
2.67546e-08
-7.17839e-12
2.67549e-08
-6.26773e-12
2.6755e-08
-5.48231e-12
2.6755e-08
-4.81856e-12
2.67548e-08
-4.26457e-12
2.67545e-08
-3.80059e-12
2.67542e-08
-3.41776e-12
2.67538e-08
-3.09707e-12
2.67534e-08
-2.82914e-12
2.6753e-08
-2.60217e-12
2.67525e-08
-2.40775e-12
2.67521e-08
-2.239e-12
2.67517e-08
-2.09078e-12
2.67512e-08
-1.95944e-12
2.67508e-08
-1.84179e-12
2.67504e-08
-1.73554e-12
2.675e-08
-1.63799e-12
2.67497e-08
-1.54894e-12
2.67493e-08
-1.46681e-12
2.6749e-08
-1.39087e-12
2.67487e-08
-1.31994e-12
2.67484e-08
-1.25387e-12
2.67481e-08
-1.19164e-12
2.67478e-08
-1.1334e-12
2.67476e-08
-1.07857e-12
2.67473e-08
-1.02678e-12
2.67471e-08
-9.77801e-13
2.67469e-08
-9.3138e-13
2.67467e-08
-8.8735e-13
2.67465e-08
-8.45454e-13
2.67463e-08
-8.05586e-13
2.67461e-08
-7.67684e-13
2.6746e-08
-7.31368e-13
2.67459e-08
-6.96834e-13
2.67457e-08
-6.63773e-13
2.67456e-08
-6.32273e-13
2.67455e-08
-6.01962e-13
2.67454e-08
-5.73158e-13
2.67453e-08
-5.45332e-13
2.67452e-08
-5.19032e-13
2.67451e-08
-4.93366e-13
2.6745e-08
-4.69258e-13
2.67449e-08
-4.45577e-13
2.67449e-08
-4.23508e-13
2.67448e-08
-4.01635e-13
2.67447e-08
-3.81385e-13
2.67447e-08
-3.61187e-13
2.67446e-08
-3.42569e-13
2.67446e-08
-3.23865e-13
2.67445e-08
-3.06777e-13
2.67445e-08
-2.89371e-13
2.67445e-08
-2.73724e-13
2.67444e-08
-2.57414e-13
2.67444e-08
-2.43104e-13
2.67444e-08
-2.27837e-13
2.67443e-08
-2.14604e-13
2.67443e-08
-2.00419e-13
2.67443e-08
-1.88011e-13
2.67443e-08
-1.74832e-13
2.67442e-08
-1.6317e-13
2.67442e-08
-1.50791e-13
2.67442e-08
-1.39803e-13
2.67442e-08
-1.28175e-13
2.67442e-08
-1.17569e-13
2.67441e-08
-1.06803e-13
2.67441e-08
-9.6293e-14
2.67441e-08
-8.63092e-14
2.67441e-08
-7.58502e-14
2.67441e-08
-6.65162e-14
2.67441e-08
-5.58736e-14
2.6744e-08
-4.73775e-14
2.6744e-08
-3.61118e-14
2.6744e-08
-2.86157e-14
2.6744e-08
-1.65543e-14
2.6744e-08
-1.01758e-14
2.67439e-08
2.91518e-15
2.67439e-08
7.83282e-15
2.67439e-08
2.18775e-14
2.67439e-08
2.48029e-14
3.94557e-14
3.10006e-08
1.68451e-09
-3.09419e-08
3.11258e-08
1.95523e-09
3.13186e-08
2.20683e-09
3.15352e-08
2.40835e-09
3.17365e-08
2.51571e-09
3.19133e-08
2.53471e-09
3.20679e-08
2.49442e-09
3.21987e-08
2.41838e-09
3.23005e-08
2.31882e-09
3.23716e-08
2.20427e-09
3.24155e-08
2.08475e-09
3.24383e-08
1.97033e-09
3.24456e-08
1.86734e-09
3.24408e-08
1.77694e-09
3.24261e-08
1.69702e-09
3.24033e-08
1.62502e-09
3.23735e-08
1.55906e-09
3.23376e-08
1.49794e-09
3.22962e-08
1.44084e-09
3.22498e-08
1.38711e-09
3.21984e-08
1.33619e-09
3.21419e-08
1.28738e-09
3.20805e-08
1.23978e-09
3.20143e-08
1.19246e-09
3.19438e-08
1.1449e-09
3.18697e-08
1.09703e-09
3.17927e-08
1.04917e-09
3.17132e-08
1.00172e-09
3.16314e-08
9.54794e-10
3.15474e-08
9.07961e-10
3.14617e-08
8.60449e-10
3.13748e-08
8.11818e-10
3.12875e-08
7.62211e-10
3.12004e-08
7.12052e-10
3.1114e-08
6.6166e-10
3.10284e-08
6.11145e-10
3.0944e-08
5.60539e-10
3.0861e-08
5.09876e-10
3.078e-08
4.59355e-10
3.07012e-08
4.09491e-10
3.06251e-08
3.60983e-10
3.05519e-08
3.14508e-10
3.04819e-08
2.707e-10
3.04156e-08
2.30137e-10
3.0353e-08
1.93228e-10
3.02944e-08
1.60303e-10
3.024e-08
1.31468e-10
3.01899e-08
1.06591e-10
3.0144e-08
8.5424e-11
3.01024e-08
6.76022e-11
3.0065e-08
5.27286e-11
3.00317e-08
4.04428e-11
3.00021e-08
3.03921e-11
2.9976e-08
2.22033e-11
2.99531e-08
1.55173e-11
2.9933e-08
1.00059e-11
2.99155e-08
5.38631e-12
2.99005e-08
1.42439e-12
2.98877e-08
-1.96528e-12
2.9877e-08
-4.86324e-12
2.98683e-08
-7.24142e-12
2.98614e-08
-9.06526e-12
2.98559e-08
-1.03072e-11
2.98519e-08
-1.09717e-11
2.98488e-08
-1.11044e-11
2.98465e-08
-1.07865e-11
2.98448e-08
-1.0117e-11
2.98434e-08
-9.2122e-12
2.98422e-08
-8.18066e-12
2.98411e-08
-7.1081e-12
2.984e-08
-6.06991e-12
2.98389e-08
-5.11467e-12
2.98377e-08
-4.26643e-12
2.98364e-08
-3.53866e-12
2.9835e-08
-2.93109e-12
2.98337e-08
-2.42765e-12
2.98323e-08
-2.02528e-12
2.98309e-08
-1.69885e-12
2.98295e-08
-1.44195e-12
2.98281e-08
-1.23801e-12
2.98268e-08
-1.07559e-12
2.98255e-08
-9.46537e-13
2.98243e-08
-8.42913e-13
2.98231e-08
-7.59187e-13
2.98219e-08
-6.91021e-13
2.98208e-08
-6.35585e-13
2.98198e-08
-5.88002e-13
2.98188e-08
-5.48911e-13
2.98178e-08
-5.15655e-13
2.98169e-08
-4.87181e-13
2.9816e-08
-4.62454e-13
2.98152e-08
-4.41263e-13
2.98145e-08
-4.2172e-13
2.98137e-08
-4.04847e-13
2.9813e-08
-3.89557e-13
2.98124e-08
-3.75661e-13
2.98118e-08
-3.62901e-13
2.98112e-08
-3.51032e-13
2.98106e-08
-3.39913e-13
2.98101e-08
-3.29389e-13
2.98096e-08
-3.19335e-13
2.98092e-08
-3.09764e-13
2.98088e-08
-3.00363e-13
2.98084e-08
-2.91348e-13
2.9808e-08
-2.82454e-13
2.98076e-08
-2.73886e-13
2.98073e-08
-2.6522e-13
2.9807e-08
-2.56994e-13
2.98067e-08
-2.4846e-13
2.98064e-08
-2.40572e-13
2.98061e-08
-2.3205e-13
2.98059e-08
-2.24409e-13
2.98056e-08
-2.15906e-13
2.98054e-08
-2.08505e-13
2.98052e-08
-2.00035e-13
2.9805e-08
-1.92814e-13
2.98049e-08
-1.84429e-13
2.98047e-08
-1.77353e-13
2.98045e-08
-1.69025e-13
2.98044e-08
-1.62159e-13
2.98043e-08
-1.53779e-13
2.98041e-08
-1.47211e-13
2.9804e-08
-1.38684e-13
2.98039e-08
-1.32419e-13
2.98038e-08
-1.2385e-13
2.98037e-08
-1.17673e-13
2.98036e-08
-1.09283e-13
2.98035e-08
-1.02976e-13
2.98035e-08
-9.48115e-14
2.98034e-08
-8.83905e-14
2.98033e-08
-8.02891e-14
2.98032e-08
-7.38126e-14
2.98032e-08
-6.57554e-14
2.98031e-08
-5.9017e-14
2.98031e-08
-5.11802e-14
2.9803e-08
-4.39464e-14
2.9803e-08
-3.63222e-14
2.98029e-08
-2.85532e-14
2.98029e-08
-2.11139e-14
2.98028e-08
-1.25919e-14
2.98028e-08
-5.54744e-15
2.98027e-08
4.08077e-15
2.98027e-08
1.05835e-14
2.98027e-08
2.14375e-14
2.98026e-08
2.72479e-14
2.98026e-08
3.95e-14
2.98026e-08
4.43019e-14
2.98025e-08
5.78834e-14
2.98025e-08
6.09882e-14
7.48261e-14
3.20373e-08
1.62298e-09
-3.19758e-08
3.21441e-08
1.84839e-09
3.22994e-08
2.05161e-09
3.24834e-08
2.22428e-09
3.26659e-08
2.33327e-09
3.28306e-08
2.36999e-09
3.29751e-08
2.34994e-09
3.30996e-08
2.29385e-09
3.32024e-08
2.21598e-09
3.3282e-08
2.12463e-09
3.334e-08
2.02679e-09
3.33806e-08
1.92978e-09
3.34085e-08
1.83941e-09
3.34273e-08
1.75807e-09
3.34394e-08
1.68501e-09
3.34459e-08
1.61845e-09
3.3448e-08
1.55696e-09
3.34463e-08
1.49962e-09
3.34414e-08
1.44576e-09
3.34336e-08
1.39492e-09
3.34231e-08
1.34671e-09
3.34099e-08
1.3006e-09
3.33938e-08
1.25582e-09
3.33748e-08
1.21147e-09
3.33528e-08
1.16689e-09
3.3328e-08
1.12181e-09
3.33008e-08
1.07643e-09
3.32713e-08
1.03122e-09
3.32396e-08
9.86478e-10
3.32056e-08
9.41927e-10
3.31693e-08
8.96755e-10
3.31308e-08
8.50333e-10
3.30904e-08
8.02643e-10
3.30483e-08
7.54089e-10
3.30049e-08
7.05092e-10
3.29602e-08
6.5587e-10
3.29142e-08
6.06486e-10
3.28672e-08
5.56946e-10
3.28191e-08
5.07392e-10
3.27704e-08
4.58267e-10
3.27211e-08
4.10206e-10
3.26718e-08
3.6384e-10
3.26227e-08
3.1976e-10
3.25743e-08
2.78537e-10
3.2527e-08
2.40604e-10
3.2481e-08
2.06272e-10
3.24368e-08
1.75699e-10
3.23945e-08
1.48818e-10
3.23546e-08
1.25397e-10
3.2317e-08
1.05111e-10
3.22821e-08
8.76337e-11
3.22499e-08
7.26665e-11
3.22204e-08
5.99474e-11
3.21934e-08
4.91995e-11
3.21688e-08
4.01203e-11
3.21464e-08
3.23958e-11
3.2126e-08
2.57198e-11
3.21076e-08
1.98292e-11
3.20911e-08
1.45687e-11
3.20764e-08
9.857e-12
3.20634e-08
5.7036e-12
3.20522e-08
2.16961e-12
3.20426e-08
-6.83255e-13
3.20344e-08
-2.81815e-12
3.20276e-08
-4.24366e-12
3.20218e-08
-5.01905e-12
3.20169e-08
-5.23851e-12
3.20127e-08
-5.02672e-12
3.20091e-08
-4.5163e-12
3.20058e-08
-3.8156e-12
3.20027e-08
-3.03902e-12
3.19999e-08
-2.26031e-12
3.19972e-08
-1.5335e-12
3.19945e-08
-8.92254e-13
3.19919e-08
-3.51379e-13
3.19894e-08
8.90729e-14
3.1987e-08
4.31878e-13
3.19846e-08
6.92087e-13
3.19822e-08
8.78888e-13
3.198e-08
1.00687e-12
3.19778e-08
1.08862e-12
3.19758e-08
1.1338e-12
3.19738e-08
1.15138e-12
3.19719e-08
1.14831e-12
3.197e-08
1.12984e-12
3.19683e-08
1.10019e-12
3.19666e-08
1.06361e-12
3.19651e-08
1.02127e-12
3.19636e-08
9.75486e-13
3.19622e-08
9.27732e-13
3.19608e-08
8.78933e-13
3.19596e-08
8.29869e-13
3.19584e-08
7.81667e-13
3.19572e-08
7.34002e-13
3.19561e-08
6.87548e-13
3.19551e-08
6.42528e-13
3.19542e-08
5.99129e-13
3.19533e-08
5.575e-13
3.19524e-08
5.17732e-13
3.19516e-08
4.79815e-13
3.19508e-08
4.43862e-13
3.19501e-08
4.09749e-13
3.19494e-08
3.77662e-13
3.19488e-08
3.47317e-13
3.19482e-08
3.18957e-13
3.19476e-08
2.92135e-13
3.19471e-08
2.67398e-13
3.19466e-08
2.43848e-13
3.19461e-08
2.22542e-13
3.19457e-08
2.01966e-13
3.19453e-08
1.83877e-13
3.19449e-08
1.66021e-13
3.19445e-08
1.50878e-13
3.19442e-08
1.35511e-13
3.19438e-08
1.23e-13
3.19435e-08
1.0994e-13
3.19432e-08
9.97462e-14
3.1943e-08
8.87883e-14
3.19427e-08
8.07076e-14
3.19425e-08
7.15426e-14
3.19423e-08
6.55207e-14
3.19421e-08
5.7829e-14
3.19419e-08
5.37689e-14
3.19417e-08
4.74029e-14
3.19415e-08
4.49617e-14
3.19414e-08
4.0038e-14
3.19412e-08
3.87753e-14
3.19411e-08
3.5387e-14
3.1941e-08
3.51382e-14
3.19408e-08
3.30801e-14
3.19407e-08
3.39432e-14
3.19406e-08
3.2987e-14
3.19405e-08
3.48936e-14
3.19404e-08
3.51279e-14
3.19403e-08
3.78021e-14
3.19402e-08
3.93783e-14
3.19402e-08
4.27052e-14
3.19401e-08
4.56384e-14
3.194e-08
4.95283e-14
3.194e-08
5.39461e-14
3.19399e-08
5.82045e-14
3.19398e-08
6.43001e-14
3.19398e-08
6.87499e-14
3.19397e-08
7.66251e-14
3.19397e-08
8.10535e-14
3.19396e-08
9.0775e-14
3.19396e-08
9.48957e-14
3.19395e-08
1.06388e-13
3.19395e-08
1.09332e-13
1.21179e-13
3.30866e-08
1.56229e-09
-3.30259e-08
3.31809e-08
1.75409e-09
3.33101e-08
1.92245e-09
3.34657e-08
2.06865e-09
3.36276e-08
2.17139e-09
3.37792e-08
2.21842e-09
3.39137e-08
2.21544e-09
3.40303e-08
2.17721e-09
3.4129e-08
2.11732e-09
3.4209e-08
2.04455e-09
3.42711e-08
1.96471e-09
3.43179e-08
1.88302e-09
3.43531e-08
1.80424e-09
3.43799e-08
1.73117e-09
3.44008e-08
1.66414e-09
3.44171e-08
1.60218e-09
3.44297e-08
1.54435e-09
3.44393e-08
1.49003e-09
3.44464e-08
1.43865e-09
3.44515e-08
1.3898e-09
3.4455e-08
1.34321e-09
3.44571e-08
1.29856e-09
3.44577e-08
1.2552e-09
3.44568e-08
1.21238e-09
3.44542e-08
1.16948e-09
3.44498e-08
1.12617e-09
3.44438e-08
1.08249e-09
3.44362e-08
1.0388e-09
3.44272e-08
9.9551e-10
3.44166e-08
9.52455e-10
3.44044e-08
9.08941e-10
3.43905e-08
8.64318e-10
3.43746e-08
8.18481e-10
3.4357e-08
7.71751e-10
3.43375e-08
7.24523e-10
3.43163e-08
6.77046e-10
3.42934e-08
6.29416e-10
3.42687e-08
5.81677e-10
3.42421e-08
5.33962e-10
3.42138e-08
4.86626e-10
3.41838e-08
4.40202e-10
3.41524e-08
3.95244e-10
3.41198e-08
3.52269e-10
3.40866e-08
3.11779e-10
3.4053e-08
2.74195e-10
3.40194e-08
2.39842e-10
3.39862e-08
2.08908e-10
3.39537e-08
1.81366e-10
3.39221e-08
1.56995e-10
3.38917e-08
1.35497e-10
3.38628e-08
1.16586e-10
3.38354e-08
1.00025e-10
3.38097e-08
8.56305e-11
3.37857e-08
7.32068e-11
3.37633e-08
6.25198e-11
3.37424e-08
5.32862e-11
3.37229e-08
4.51991e-11
3.37048e-08
3.79754e-11
3.36879e-08
3.14169e-11
3.36724e-08
2.54183e-11
3.36581e-08
1.99717e-11
3.36451e-08
1.51393e-11
3.36335e-08
1.10031e-11
3.3623e-08
7.62797e-12
3.36137e-08
5.03794e-12
3.36055e-08
3.20246e-12
3.35982e-08
2.04345e-12
3.35917e-08
1.44679e-12
3.3586e-08
1.28255e-12
3.35807e-08
1.42546e-12
3.35759e-08
1.75304e-12
3.35715e-08
2.17126e-12
3.35673e-08
2.60712e-12
3.35634e-08
3.01162e-12
3.35597e-08
3.35445e-12
3.35562e-08
3.62206e-12
3.35528e-08
3.811e-12
3.35496e-08
3.92673e-12
3.35465e-08
3.97701e-12
3.35435e-08
3.9725e-12
3.35407e-08
3.92453e-12
3.3538e-08
3.84267e-12
3.35354e-08
3.73563e-12
3.35329e-08
3.61072e-12
3.35306e-08
3.47369e-12
3.35284e-08
3.32903e-12
3.35262e-08
3.18074e-12
3.35242e-08
3.03101e-12
3.35223e-08
2.8819e-12
3.35205e-08
2.73496e-12
3.35188e-08
2.59117e-12
3.35172e-08
2.45131e-12
3.35157e-08
2.31616e-12
3.35142e-08
2.18573e-12
3.35128e-08
2.06032e-12
3.35115e-08
1.9401e-12
3.35103e-08
1.82512e-12
3.35091e-08
1.71539e-12
3.35081e-08
1.61089e-12
3.3507e-08
1.51144e-12
3.3506e-08
1.41708e-12
3.35051e-08
1.32752e-12
3.35043e-08
1.24282e-12
3.35035e-08
1.16255e-12
3.35027e-08
1.08695e-12
3.3502e-08
1.01526e-12
3.35013e-08
9.48178e-13
3.35006e-08
8.84346e-13
3.35e-08
8.2518e-13
3.34995e-08
7.685e-13
3.34989e-08
7.16627e-13
3.34984e-08
6.66431e-13
3.3498e-08
6.21218e-13
3.34975e-08
5.76955e-13
3.34971e-08
5.37719e-13
3.34967e-08
4.98899e-13
3.34964e-08
4.64995e-13
3.3496e-08
4.31102e-13
3.34957e-08
4.0204e-13
3.34954e-08
3.7247e-13
3.34951e-08
3.47959e-13
3.34948e-08
3.22127e-13
3.34946e-08
3.01815e-13
3.34944e-08
2.79392e-13
3.34941e-08
2.62655e-13
3.34939e-08
2.43598e-13
3.34938e-08
2.2977e-13
3.34936e-08
2.13963e-13
3.34934e-08
2.02763e-13
3.34932e-08
1.89754e-13
3.34931e-08
1.81182e-13
3.3493e-08
1.70561e-13
3.34928e-08
1.64401e-13
3.34927e-08
1.56132e-13
3.34926e-08
1.51971e-13
3.34925e-08
1.46098e-13
3.34924e-08
1.43678e-13
3.34923e-08
1.40149e-13
3.34922e-08
1.39273e-13
3.34921e-08
1.38075e-13
3.3492e-08
1.3855e-13
3.3492e-08
1.39715e-13
3.34919e-08
1.41302e-13
3.34918e-08
1.44897e-13
3.34918e-08
1.47302e-13
3.34917e-08
1.53301e-13
3.34916e-08
1.56224e-13
3.34916e-08
1.64503e-13
3.34915e-08
1.66972e-13
1.76154e-13
3.41526e-08