/*--------------------------------*- C++ -*----------------------------------*\
| =========                 |                                                 |
| \\      /  F ield         | OpenFOAM: The Open Source CFD Toolbox           |
|  \\    /   O peration     | Version:  2.3.0                                 |
|   \\  /    A nd           | Web:      www.OpenFOAM.org                      |
|    \\/     M anipulation  |                                                 |
\*---------------------------------------------------------------------------*/
FoamFile
{
    version     2.0;
    format      ascii;
    class       volVectorField;
    location    "0.1";
    object      U;
}
// * * * * * * * * * * * * * * * * * * * * * * * * * * * * * * * * * * * * * //

dimensions      [0 1 -1 0 0 0 0];

internalField   nonuniform List<vector> 
5940
(
(0.172539 0.00506862 0)
(0.151384 0.0068162 0)
(0.133085 0.00709552 0)
(0.115702 0.00643922 0)
(0.099049 0.00546028 0)
(0.0839233 0.00438769 0)
(0.0712514 0.00327077 0)
(0.0613052 0.00216107 0)
(0.0538192 0.00121498 0)
(0.0483103 0.00055328 0)
(0.044306 0.000172093 0)
(0.0413981 -6.15889e-06 0)
(0.039246 -6.2108e-05 0)
(0.0375904 -5.51665e-05 0)
(0.0362464 -2.21779e-05 0)
(0.0350936 1.50305e-05 0)
(0.0340613 4.54133e-05 0)
(0.0331134 6.56145e-05 0)
(0.0322334 7.64524e-05 0)
(0.0314147 8.02433e-05 0)
(0.0306546 7.94363e-05 0)
(0.0299513 7.59885e-05 0)
(0.0293028 7.12022e-05 0)
(0.0287063 6.58975e-05 0)
(0.0281588 6.06076e-05 0)
(0.027657 5.55883e-05 0)
(0.0271973 5.08757e-05 0)
(0.0267765 4.64536e-05 0)
(0.0263921 4.23063e-05 0)
(0.0260414 3.83671e-05 0)
(0.0257226 3.45451e-05 0)
(0.0254341 3.08092e-05 0)
(0.0251747 2.71958e-05 0)
(0.0249431 2.37318e-05 0)
(0.0247385 2.04102e-05 0)
(0.0245603 1.72421e-05 0)
(0.0244083 1.41963e-05 0)
(0.0242822 1.12107e-05 0)
(0.024182 8.24379e-06 0)
(0.0241076 5.30111e-06 0)
(0.0240585 2.47861e-06 0)
(0.0240337 -2.28565e-07 0)
(0.0240309 -3.90567e-06 0)
(0.0240464 -6.37643e-06 0)
(0.024077 -8.44996e-06 0)
(0.0241193 -9.86867e-06 0)
(0.0241695 -1.06993e-05 0)
(0.0242242 -1.09822e-05 0)
(0.0242807 -1.08037e-05 0)
(0.0243364 -1.03055e-05 0)
(0.02439 -9.60683e-06 0)
(0.0244401 -8.80495e-06 0)
(0.0244863 -7.97291e-06 0)
(0.0245284 -7.16829e-06 0)
(0.0245665 -6.42459e-06 0)
(0.0246007 -5.75815e-06 0)
(0.0246316 -5.17482e-06 0)
(0.0246594 -4.67112e-06 0)
(0.0246845 -4.23661e-06 0)
(0.0247073 -3.85979e-06 0)
(0.024728 -3.52814e-06 0)
(0.024747 -3.23026e-06 0)
(0.0247642 -2.95874e-06 0)
(0.02478 -2.70895e-06 0)
(0.0247944 -2.47709e-06 0)
(0.0248075 -2.26246e-06 0)
(0.0248194 -2.06593e-06 0)
(0.0248303 -1.88741e-06 0)
(0.0248403 -1.72682e-06 0)
(0.0248494 -1.58377e-06 0)
(0.0248578 -1.45708e-06 0)
(0.0248655 -1.34546e-06 0)
(0.0248727 -1.24742e-06 0)
(0.0248794 -1.16073e-06 0)
(0.0248856 -1.08372e-06 0)
(0.0248915 -1.01464e-06 0)
(0.024897 -9.52356e-07 0)
(0.0249021 -8.95753e-07 0)
(0.024907 -8.43822e-07 0)
(0.0249117 -7.95804e-07 0)
(0.024916 -7.51045e-07 0)
(0.0249202 -7.09196e-07 0)
(0.0249241 -6.6997e-07 0)
(0.0249279 -6.33103e-07 0)
(0.0249314 -5.9835e-07 0)
(0.0249348 -5.65539e-07 0)
(0.024938 -5.34465e-07 0)
(0.024941 -5.0511e-07 0)
(0.0249439 -4.77351e-07 0)
(0.0249466 -4.51057e-07 0)
(0.0249492 -4.26146e-07 0)
(0.0249517 -4.02574e-07 0)
(0.024954 -3.80237e-07 0)
(0.0249563 -3.59087e-07 0)
(0.0249584 -3.39061e-07 0)
(0.0249604 -3.20063e-07 0)
(0.0249623 -3.02057e-07 0)
(0.0249641 -2.85017e-07 0)
(0.0249658 -2.68892e-07 0)
(0.0249674 -2.5362e-07 0)
(0.0249689 -2.39143e-07 0)
(0.0249704 -2.25436e-07 0)
(0.0249717 -2.12456e-07 0)
(0.024973 -2.00178e-07 0)
(0.0249743 -1.8855e-07 0)
(0.0249755 -1.77564e-07 0)
(0.0249766 -1.67125e-07 0)
(0.0249776 -1.57275e-07 0)
(0.0249786 -1.47931e-07 0)
(0.0249795 -1.39144e-07 0)
(0.0249804 -1.30776e-07 0)
(0.0249812 -1.22923e-07 0)
(0.024982 -1.1544e-07 0)
(0.0249828 -1.08432e-07 0)
(0.0249835 -1.01746e-07 0)
(0.0249841 -9.54841e-08 0)
(0.0249848 -8.95198e-08 0)
(0.0249853 -8.39257e-08 0)
(0.0249859 -7.86009e-08 0)
(0.0249864 -7.36177e-08 0)
(0.0249869 -6.88558e-08 0)
(0.0249874 -6.44264e-08 0)
(0.0249878 -6.01664e-08 0)
(0.0249882 -5.62144e-08 0)
(0.0249886 -5.24381e-08 0)
(0.024989 -4.8858e-08 0)
(0.0249893 -4.55631e-08 0)
(0.0249896 -4.2277e-08 0)
(0.0249899 -3.94126e-08 0)
(0.0249902 -3.64182e-08 0)
(0.0249904 -3.38752e-08 0)
(0.0249907 -3.11895e-08 0)
(0.0249909 -2.89145e-08 0)
(0.0249911 -2.64593e-08 0)
(0.0249913 -2.44975e-08 0)
(0.0249914 -2.21619e-08 0)
(0.0249916 -2.0511e-08 0)
(0.0249918 -1.83033e-08 0)
(0.0249919 -1.68577e-08 0)
(0.024992 -1.48074e-08 0)
(0.0249921 -1.35517e-08 0)
(0.0249922 -1.15674e-08 0)
(0.0249923 -1.05538e-08 0)
(0.0249924 -8.61278e-09 0)
(0.0249924 -7.77257e-09 0)
(0.0249925 -5.94399e-09 0)
(0.0249925 -5.21508e-09 0)
(0.0249926 -3.48935e-09 0)
(0.0249926 -2.85324e-09 0)
(0.0249926 -1.07896e-09 0)
(0.189822 0.00900091 0)
(0.187802 0.0123593 0)
(0.185257 0.0137076 0)
(0.181596 0.013604 0)
(0.176398 0.0128352 0)
(0.16983 0.0117286 0)
(0.162481 0.0103536 0)
(0.154849 0.00875734 0)
(0.147289 0.0070917 0)
(0.140017 0.00554744 0)
(0.133178 0.00425323 0)
(0.126879 0.00324683 0)
(0.121171 0.00250308 0)
(0.11606 0.00197597 0)
(0.111511 0.00161384 0)
(0.107463 0.00136674 0)
(0.103848 0.00119304 0)
(0.100604 0.00106355 0)
(0.0976787 0.000960296 0)
(0.0950281 0.000872755 0)
(0.0926167 0.00079522 0)
(0.0904159 0.000724976 0)
(0.0884027 0.000660676 0)
(0.086558 0.000601505 0)
(0.0848661 0.000547089 0)
(0.0833134 0.000497234 0)
(0.0818886 0.000451494 0)
(0.0805822 0.000409302 0)
(0.0793861 0.0003702 0)
(0.0782935 0.000333692 0)
(0.0772987 0.000299256 0)
(0.0763971 0.00026656 0)
(0.0755847 0.000235481 0)
(0.0748578 0.000205882 0)
(0.0742137 0.000177503 0)
(0.0736496 0.000150218 0)
(0.0731633 0.000123952 0)
(0.0727526 9.85482e-05 0)
(0.0724151 7.40234e-05 0)
(0.0721482 5.0826e-05 0)
(0.0719483 2.96728e-05 0)
(0.0718099 1.07313e-05 0)
(0.0717274 -7.30121e-06 0)
(0.0716934 -2.37503e-05 0)
(0.0716989 -3.63384e-05 0)
(0.0717359 -4.42644e-05 0)
(0.0717962 -4.86762e-05 0)
(0.0718724 -5.03105e-05 0)
(0.0719578 -4.97431e-05 0)
(0.0720471 -4.76446e-05 0)
(0.0721363 -4.45677e-05 0)
(0.0722227 -4.09662e-05 0)
(0.0723043 -3.71811e-05 0)
(0.0723803 -3.34728e-05 0)
(0.0724503 -3.00006e-05 0)
(0.0725144 -2.68485e-05 0)
(0.0725727 -2.40491e-05 0)
(0.0726258 -2.15957e-05 0)
(0.072674 -1.94529e-05 0)
(0.0727177 -1.75774e-05 0)
(0.0727575 -1.59213e-05 0)
(0.0727935 -1.44418e-05 0)
(0.0728261 -1.3106e-05 0)
(0.0728555 -1.18925e-05 0)
(0.0728821 -1.07896e-05 0)
(0.072906 -9.78965e-06 0)
(0.0729276 -8.88739e-06 0)
(0.0729471 -8.07979e-06 0)
(0.0729647 -7.36356e-06 0)
(0.0729807 -6.73245e-06 0)
(0.0729952 -6.17841e-06 0)
(0.0730086 -5.69407e-06 0)
(0.0730208 -5.26977e-06 0)
(0.0730322 -4.89557e-06 0)
(0.0730428 -4.56522e-06 0)
(0.0730526 -4.26984e-06 0)
(0.0730619 -4.00351e-06 0)
(0.0730706 -3.76177e-06 0)
(0.0730788 -3.54057e-06 0)
(0.0730865 -3.3366e-06 0)
(0.0730938 -3.14733e-06 0)
(0.0731007 -2.9707e-06 0)
(0.0731073 -2.80503e-06 0)
(0.0731135 -2.64955e-06 0)
(0.0731193 -2.50346e-06 0)
(0.0731249 -2.36588e-06 0)
(0.0731302 -2.23582e-06 0)
(0.0731353 -2.11303e-06 0)
(0.07314 -1.99704e-06 0)
(0.0731446 -1.88746e-06 0)
(0.0731489 -1.78364e-06 0)
(0.0731529 -1.68523e-06 0)
(0.0731568 -1.59209e-06 0)
(0.0731605 -1.50403e-06 0)
(0.073164 -1.42069e-06 0)
(0.0731673 -1.34175e-06 0)
(0.0731705 -1.26695e-06 0)
(0.0731735 -1.19606e-06 0)
(0.0731763 -1.12889e-06 0)
(0.073179 -1.06525e-06 0)
(0.0731815 -1.00498e-06 0)
(0.073184 -9.47933e-07 0)
(0.0731863 -8.93833e-07 0)
(0.0731884 -8.42629e-07 0)
(0.0731905 -7.94101e-07 0)
(0.0731925 -7.48228e-07 0)
(0.0731943 -7.04742e-07 0)
(0.0731961 -6.63671e-07 0)
(0.0731977 -6.24661e-07 0)
(0.0731993 -5.87886e-07 0)
(0.0732008 -5.52895e-07 0)
(0.0732022 -5.1998e-07 0)
(0.0732035 -4.88646e-07 0)
(0.0732048 -4.59235e-07 0)
(0.073206 -4.31215e-07 0)
(0.0732071 -4.04905e-07 0)
(0.0732081 -3.79858e-07 0)
(0.0732091 -3.56336e-07 0)
(0.0732101 -3.33937e-07 0)
(0.073211 -3.1295e-07 0)
(0.0732118 -2.92888e-07 0)
(0.0732126 -2.74179e-07 0)
(0.0732133 -2.56196e-07 0)
(0.073214 -2.39476e-07 0)
(0.0732147 -2.23481e-07 0)
(0.0732153 -2.08371e-07 0)
(0.0732158 -1.94287e-07 0)
(0.0732164 -1.80513e-07 0)
(0.0732169 -1.68103e-07 0)
(0.0732173 -1.55638e-07 0)
(0.0732178 -1.44508e-07 0)
(0.0732182 -1.33349e-07 0)
(0.0732186 -1.23317e-07 0)
(0.0732189 -1.13157e-07 0)
(0.0732192 -1.04353e-07 0)
(0.0732195 -9.47831e-08 0)
(0.0732198 -8.71725e-08 0)
(0.07322 -7.81883e-08 0)
(0.0732203 -7.14206e-08 0)
(0.0732205 -6.30598e-08 0)
(0.0732207 -5.70952e-08 0)
(0.0732208 -4.90044e-08 0)
(0.073221 -4.40137e-08 0)
(0.073221 -3.6069e-08 0)
(0.0732212 -3.1896e-08 0)
(0.0732212 -2.42159e-08 0)
(0.0732213 -2.09412e-08 0)
(0.0732213 -1.33912e-08 0)
(0.0732214 -1.13689e-08 0)
(0.0732214 -2.77868e-09 0)
(0.190952 0.00892663 0)
(0.19143 0.0116802 0)
(0.192566 0.0134712 0)
(0.193815 0.014093 0)
(0.194453 0.013957 0)
(0.194111 0.013388 0)
(0.192789 0.0125025 0)
(0.190642 0.011367 0)
(0.187852 0.0100906 0)
(0.184589 0.00881637 0)
(0.180999 0.00765952 0)
(0.177227 0.00667198 0)
(0.17339 0.00585075 0)
(0.169578 0.00517282 0)
(0.165852 0.00461159 0)
(0.162244 0.004142 0)
(0.158771 0.00374214 0)
(0.155441 0.0033951 0)
(0.152256 0.00308904 0)
(0.149218 0.00281569 0)
(0.146325 0.00256925 0)
(0.143577 0.00234571 0)
(0.140974 0.00214219 0)
(0.138515 0.00195645 0)
(0.136198 0.00178662 0)
(0.13402 0.0016309 0)
(0.131978 0.00148749 0)
(0.130067 0.00135482 0)
(0.128284 0.00123159 0)
(0.126627 0.00111647 0)
(0.125093 0.00100812 0)
(0.123678 0.000905565 0)
(0.122379 0.000808305 0)
(0.121195 0.00071573 0)
(0.120123 0.000627007 0)
(0.119159 0.000541834 0)
(0.118301 0.000459969 0)
(0.117548 0.000381212 0)
(0.116894 0.000305596 0)
(0.116338 0.00023355 0)
(0.115874 0.000166534 0)
(0.115497 0.000106636 0)
(0.115198 5.46308e-05 0)
(0.114972 8.82115e-06 0)
(0.114811 -2.81947e-05 0)
(0.114705 -5.67088e-05 0)
(0.114644 -7.64317e-05 0)
(0.114619 -8.82227e-05 0)
(0.114623 -9.35686e-05 0)
(0.114647 -9.41475e-05 0)
(0.114686 -9.14066e-05 0)
(0.114734 -8.65089e-05 0)
(0.114787 -8.03696e-05 0)
(0.114843 -7.37404e-05 0)
(0.1149 -6.7112e-05 0)
(0.114956 -6.07827e-05 0)
(0.11501 -5.49174e-05 0)
(0.115061 -4.95793e-05 0)
(0.11511 -4.4755e-05 0)
(0.115157 -4.04036e-05 0)
(0.1152 -3.64644e-05 0)
(0.11524 -3.28828e-05 0)
(0.115277 -2.96209e-05 0)
(0.11531 -2.66457e-05 0)
(0.11534 -2.39399e-05 0)
(0.115367 -2.15038e-05 0)
(0.115391 -1.93286e-05 0)
(0.115412 -1.74004e-05 0)
(0.11543 -1.57093e-05 0)
(0.115447 -1.42386e-05 0)
(0.115462 -1.29638e-05 0)
(0.115475 -1.1863e-05 0)
(0.115487 -1.09119e-05 0)
(0.115497 -1.00833e-05 0)
(0.115507 -9.35939e-06 0)
(0.115516 -8.72002e-06 0)
(0.115524 -8.15007e-06 0)
(0.115532 -7.63677e-06 0)
(0.115539 -7.17111e-06 0)
(0.115546 -6.74479e-06 0)
(0.115552 -6.3518e-06 0)
(0.115558 -5.98797e-06 0)
(0.115563 -5.64863e-06 0)
(0.115569 -5.33101e-06 0)
(0.115574 -5.03341e-06 0)
(0.115578 -4.75414e-06 0)
(0.115583 -4.49102e-06 0)
(0.115587 -4.24338e-06 0)
(0.115591 -4.00978e-06 0)
(0.115595 -3.78955e-06 0)
(0.115598 -3.58163e-06 0)
(0.115602 -3.38482e-06 0)
(0.115605 -3.19829e-06 0)
(0.115608 -3.02205e-06 0)
(0.115611 -2.85548e-06 0)
(0.115614 -2.69777e-06 0)
(0.115616 -2.54847e-06 0)
(0.115619 -2.40711e-06 0)
(0.115621 -2.27324e-06 0)
(0.115624 -2.14632e-06 0)
(0.115626 -2.02602e-06 0)
(0.115628 -1.91221e-06 0)
(0.11563 -1.80432e-06 0)
(0.115632 -1.70207e-06 0)
(0.115633 -1.60514e-06 0)
(0.115635 -1.51342e-06 0)
(0.115637 -1.4264e-06 0)
(0.115638 -1.34419e-06 0)
(0.115639 -1.26615e-06 0)
(0.115641 -1.1925e-06 0)
(0.115642 -1.1224e-06 0)
(0.115643 -1.05636e-06 0)
(0.115644 -9.9345e-07 0)
(0.115646 -9.34319e-07 0)
(0.115647 -8.77946e-07 0)
(0.115648 -8.2499e-07 0)
(0.115648 -7.74489e-07 0)
(0.115649 -7.27075e-07 0)
(0.11565 -6.81801e-07 0)
(0.115651 -6.39419e-07 0)
(0.115652 -5.98799e-07 0)
(0.115652 -5.60944e-07 0)
(0.115653 -5.2445e-07 0)
(0.115654 -4.90539e-07 0)
(0.115654 -4.57931e-07 0)
(0.115655 -4.27331e-07 0)
(0.115655 -3.98366e-07 0)
(0.115656 -3.7062e-07 0)
(0.115656 -3.44793e-07 0)
(0.115657 -3.19795e-07 0)
(0.115657 -2.96445e-07 0)
(0.115657 -2.74043e-07 0)
(0.115658 -2.52914e-07 0)
(0.115658 -2.32453e-07 0)
(0.115658 -2.13767e-07 0)
(0.115658 -1.94531e-07 0)
(0.115659 -1.78121e-07 0)
(0.115659 -1.60093e-07 0)
(0.115659 -1.45358e-07 0)
(0.115659 -1.28464e-07 0)
(0.115659 -1.15429e-07 0)
(0.115659 -9.89294e-08 0)
(0.11566 -8.79233e-08 0)
(0.11566 -7.14802e-08 0)
(0.11566 -6.23648e-08 0)
(0.11566 -4.58957e-08 0)
(0.11566 -3.92147e-08 0)
(0.11566 -2.24348e-08 0)
(0.11566 -1.90148e-08 0)
(0.11566 -1.00512e-10 0)
(0.192119 0.00842152 0)
(0.192563 0.0103349 0)
(0.193693 0.0119261 0)
(0.195391 0.0127739 0)
(0.197159 0.0129543 0)
(0.198573 0.0126995 0)
(0.199451 0.0121597 0)
(0.199777 0.0114151 0)
(0.199596 0.0105387 0)
(0.198969 0.00962136 0)
(0.197963 0.00874972 0)
(0.196657 0.00797539 0)
(0.195127 0.00730935 0)
(0.193442 0.0067373 0)
(0.19165 0.00624007 0)
(0.189788 0.00580114 0)
(0.18788 0.00540773 0)
(0.185943 0.0050507 0)
(0.183988 0.00472325 0)
(0.182027 0.0044197 0)
(0.180066 0.00413545 0)
(0.178113 0.00386699 0)
(0.176178 0.00361167 0)
(0.174272 0.00336837 0)
(0.172403 0.00313709 0)
(0.170581 0.00291772 0)
(0.168813 0.00270922 0)
(0.167103 0.00251026 0)
(0.165454 0.00231977 0)
(0.163872 0.00213662 0)
(0.162362 0.00195983 0)
(0.160928 0.00178893 0)
(0.159574 0.00162386 0)
(0.158302 0.00146435 0)
(0.157115 0.0013095 0)
(0.156013 0.00115907 0)
(0.154997 0.00101319 0)
(0.154068 0.000871875 0)
(0.153226 0.00073547 0)
(0.152471 0.000605206 0)
(0.151799 0.000482849 0)
(0.151207 0.000369869 0)
(0.150693 0.000268018 0)
(0.150253 0.000179632 0)
(0.149881 0.000105006 0)
(0.149571 4.31537e-05 0)
(0.149318 -5.39364e-06 0)
(0.149115 -4.13508e-05 0)
(0.148957 -6.6597e-05 0)
(0.148835 -8.27448e-05 0)
(0.148746 -9.16827e-05 0)
(0.148682 -9.52849e-05 0)
(0.148639 -9.50498e-05 0)
(0.148613 -9.23195e-05 0)
(0.148601 -8.81213e-05 0)
(0.148599 -8.31587e-05 0)
(0.148605 -7.78803e-05 0)
(0.148618 -7.25436e-05 0)
(0.148637 -6.72537e-05 0)
(0.148659 -6.20636e-05 0)
(0.148683 -5.69729e-05 0)
(0.148709 -5.19893e-05 0)
(0.148735 -4.71458e-05 0)
(0.148761 -4.2493e-05 0)
(0.148785 -3.80825e-05 0)
(0.148808 -3.39764e-05 0)
(0.148828 -3.0231e-05 0)
(0.148845 -2.68721e-05 0)
(0.148861 -2.39086e-05 0)
(0.148874 -2.13308e-05 0)
(0.148885 -1.91148e-05 0)
(0.148894 -1.72255e-05 0)
(0.148902 -1.56188e-05 0)
(0.148909 -1.42492e-05 0)
(0.148914 -1.30795e-05 0)
(0.148919 -1.20684e-05 0)
(0.148923 -1.11897e-05 0)
(0.148926 -1.04152e-05 0)
(0.14893 -9.72604e-06 0)
(0.148932 -9.10683e-06 0)
(0.148935 -8.54424e-06 0)
(0.148937 -8.02996e-06 0)
(0.148939 -7.55679e-06 0)
(0.148941 -7.11871e-06 0)
(0.148943 -6.71129e-06 0)
(0.148944 -6.33155e-06 0)
(0.148946 -5.97528e-06 0)
(0.148947 -5.64174e-06 0)
(0.148949 -5.3287e-06 0)
(0.14895 -5.03435e-06 0)
(0.148951 -4.75729e-06 0)
(0.148952 -4.49653e-06 0)
(0.148953 -4.24985e-06 0)
(0.148954 -4.01687e-06 0)
(0.148955 -3.79697e-06 0)
(0.148956 -3.58901e-06 0)
(0.148957 -3.39225e-06 0)
(0.148958 -3.20607e-06 0)
(0.148959 -3.0299e-06 0)
(0.14896 -2.86297e-06 0)
(0.14896 -2.70482e-06 0)
(0.148961 -2.55504e-06 0)
(0.148962 -2.4131e-06 0)
(0.148963 -2.27865e-06 0)
(0.148963 -2.15104e-06 0)
(0.148964 -2.03024e-06 0)
(0.148964 -1.91546e-06 0)
(0.148965 -1.80691e-06 0)
(0.148966 -1.70374e-06 0)
(0.148966 -1.60636e-06 0)
(0.148967 -1.51348e-06 0)
(0.148967 -1.42601e-06 0)
(0.148967 -1.34247e-06 0)
(0.148968 -1.264e-06 0)
(0.148968 -1.18887e-06 0)
(0.148969 -1.11842e-06 0)
(0.148969 -1.05088e-06 0)
(0.148969 -9.87648e-07 0)
(0.14897 -9.26866e-07 0)
(0.14897 -8.70173e-07 0)
(0.14897 -8.15415e-07 0)
(0.148971 -7.64641e-07 0)
(0.148971 -7.15241e-07 0)
(0.148971 -6.69686e-07 0)
(0.148972 -6.25223e-07 0)
(0.148972 -5.84118e-07 0)
(0.148972 -5.44232e-07 0)
(0.148972 -5.06999e-07 0)
(0.148972 -4.71089e-07 0)
(0.148973 -4.37481e-07 0)
(0.148973 -4.0484e-07 0)
(0.148973 -3.74494e-07 0)
(0.148973 -3.449e-07 0)
(0.148973 -3.16907e-07 0)
(0.148973 -2.90576e-07 0)
(0.148973 -2.64149e-07 0)
(0.148974 -2.40734e-07 0)
(0.148974 -2.15837e-07 0)
(0.148974 -1.94678e-07 0)
(0.148974 -1.70973e-07 0)
(0.148974 -1.5229e-07 0)
(0.148974 -1.28701e-07 0)
(0.148974 -1.12912e-07 0)
(0.148974 -8.90158e-08 0)
(0.148974 -7.60636e-08 0)
(0.148974 -5.1473e-08 0)
(0.148974 -4.20339e-08 0)
(0.148974 -1.67157e-08 0)
(0.148974 -1.20377e-08 0)
(0.148973 1.57349e-08 0)
(0.193111 0.00797504 0)
(0.193519 0.00939557 0)
(0.194405 0.0107003 0)
(0.195791 0.0115585 0)
(0.197417 0.01188 0)
(0.19896 0.0117846 0)
(0.200227 0.0114181 0)
(0.201162 0.010879 0)
(0.201776 0.0102315 0)
(0.202097 0.00953557 0)
(0.202157 0.00885264 0)
(0.201997 0.00822881 0)
(0.20166 0.00768205 0)
(0.201186 0.00720661 0)
(0.200609 0.00678836 0)
(0.199951 0.00641405 0)
(0.199228 0.0060739 0)
(0.198448 0.00576131 0)
(0.197618 0.00547126 0)
(0.196744 0.00519941 0)
(0.195829 0.00494207 0)
(0.194875 0.00469572 0)
(0.193885 0.00445672 0)
(0.192867 0.00422256 0)
(0.191827 0.00399295 0)
(0.190774 0.00376888 0)
(0.189716 0.00355099 0)
(0.188658 0.00333909 0)
(0.187604 0.00313232 0)
(0.186558 0.00292894 0)
(0.185525 0.00272737 0)
(0.18451 0.00252741 0)
(0.183522 0.00233001 0)
(0.182566 0.00213592 0)
(0.181644 0.00194489 0)
(0.180759 0.00175672 0)
(0.179915 0.00157155 0)
(0.179115 0.00138972 0)
(0.17836 0.0012121 0)
(0.177653 0.00104035 0)
(0.176995 0.000876808 0)
(0.176386 0.000723641 0)
(0.175827 0.000583063 0)
(0.175318 0.000456617 0)
(0.174857 0.000344947 0)
(0.174443 0.000249804 0)
(0.174076 0.000170881 0)
(0.173752 0.000106938 0)
(0.173469 5.63417e-05 0)
(0.173226 1.76135e-05 0)
(0.173017 -1.10203e-05 0)
(0.172841 -3.14284e-05 0)
(0.172693 -4.55563e-05 0)
(0.17257 -5.4906e-05 0)
(0.172469 -6.07476e-05 0)
(0.172387 -6.41611e-05 0)
(0.172321 -6.59016e-05 0)
(0.17227 -6.64497e-05 0)
(0.172231 -6.60145e-05 0)
(0.172204 -6.47281e-05 0)
(0.172187 -6.26129e-05 0)
(0.172178 -5.97078e-05 0)
(0.172175 -5.61027e-05 0)
(0.172177 -5.1941e-05 0)
(0.172183 -4.74205e-05 0)
(0.17219 -4.27468e-05 0)
(0.172198 -3.8124e-05 0)
(0.172205 -3.37244e-05 0)
(0.172212 -2.96766e-05 0)
(0.172217 -2.60459e-05 0)
(0.172221 -2.28644e-05 0)
(0.172224 -2.01357e-05 0)
(0.172225 -1.78238e-05 0)
(0.172225 -1.5879e-05 0)
(0.172224 -1.42545e-05 0)
(0.172223 -1.28893e-05 0)
(0.172221 -1.17403e-05 0)
(0.172219 -1.07645e-05 0)
(0.172216 -9.92529e-06 0)
(0.172213 -9.19593e-06 0)
(0.17221 -8.55443e-06 0)
(0.172208 -7.98339e-06 0)
(0.172205 -7.47015e-06 0)
(0.172202 -7.00547e-06 0)
(0.172199 -6.58111e-06 0)
(0.172197 -6.1922e-06 0)
(0.172194 -5.83235e-06 0)
(0.172192 -5.49851e-06 0)
(0.172189 -5.18803e-06 0)
(0.172187 -4.89858e-06 0)
(0.172185 -4.62732e-06 0)
(0.172183 -4.37387e-06 0)
(0.172181 -4.13569e-06 0)
(0.17218 -3.91155e-06 0)
(0.172178 -3.70058e-06 0)
(0.172176 -3.50161e-06 0)
(0.172175 -3.31373e-06 0)
(0.172173 -3.1361e-06 0)
(0.172172 -2.96824e-06 0)
(0.172171 -2.80917e-06 0)
(0.17217 -2.6585e-06 0)
(0.172169 -2.51578e-06 0)
(0.172168 -2.38033e-06 0)
(0.172167 -2.25201e-06 0)
(0.172166 -2.13009e-06 0)
(0.172165 -2.01459e-06 0)
(0.172164 -1.90457e-06 0)
(0.172163 -1.80043e-06 0)
(0.172163 -1.70102e-06 0)
(0.172162 -1.60729e-06 0)
(0.172161 -1.51732e-06 0)
(0.172161 -1.43276e-06 0)
(0.17216 -1.3513e-06 0)
(0.17216 -1.27513e-06 0)
(0.17216 -1.20138e-06 0)
(0.172159 -1.13267e-06 0)
(0.172159 -1.0659e-06 0)
(0.172158 -1.00391e-06 0)
(0.172158 -9.43368e-07 0)
(0.172158 -8.87448e-07 0)
(0.172158 -8.32411e-07 0)
(0.172157 -7.82081e-07 0)
(0.172157 -7.31852e-07 0)
(0.172157 -6.86573e-07 0)
(0.172157 -6.40769e-07 0)
(0.172156 -5.99766e-07 0)
(0.172156 -5.58166e-07 0)
(0.172156 -5.20734e-07 0)
(0.172156 -4.82922e-07 0)
(0.172156 -4.48718e-07 0)
(0.172156 -4.14085e-07 0)
(0.172156 -3.8274e-07 0)
(0.172155 -3.51086e-07 0)
(0.172155 -3.21738e-07 0)
(0.172155 -2.93206e-07 0)
(0.172155 -2.65132e-07 0)
(0.172155 -2.39384e-07 0)
(0.172155 -2.12464e-07 0)
(0.172155 -1.89015e-07 0)
(0.172155 -1.62692e-07 0)
(0.172155 -1.4191e-07 0)
(0.172154 -1.15046e-07 0)
(0.172154 -9.72474e-08 0)
(0.172154 -6.94312e-08 0)
(0.172154 -5.46499e-08 0)
(0.172154 -2.57433e-08 0)
(0.172154 -1.49632e-08 0)
(0.172154 1.5336e-08 0)
(0.172154 2.1159e-08 0)
(0.172153 5.33977e-08 0)
(0.193929 0.00760853 0)
(0.194322 0.00874406 0)
(0.195058 0.00981505 0)
(0.196168 0.0106091 0)
(0.197511 0.0109963 0)
(0.19887 0.0110088 0)
(0.200073 0.0107578 0)
(0.201049 0.0103439 0)
(0.201793 0.0098326 0)
(0.202328 0.00927145 0)
(0.202683 0.00870555 0)
(0.202886 0.00817373 0)
(0.202967 0.00769703 0)
(0.202954 0.00727713 0)
(0.202873 0.00690525 0)
(0.202741 0.0065709 0)
(0.202567 0.00626563 0)
(0.202357 0.00598373 0)
(0.202113 0.00572133 0)
(0.201838 0.00547535 0)
(0.201532 0.00524296 0)
(0.201195 0.00502094 0)
(0.200826 0.00480532 0)
(0.200426 0.0045924 0)
(0.199998 0.00438053 0)
(0.199545 0.0041701 0)
(0.199071 0.00396242 0)
(0.198581 0.00375856 0)
(0.198077 0.00355847 0)
(0.197558 0.00336031 0)
(0.197026 0.00316137 0)
(0.196486 0.00296048 0)
(0.19594 0.00275855 0)
(0.195394 0.00255711 0)
(0.194851 0.00235703 0)
(0.194313 0.0021584 0)
(0.193781 0.00196129 0)
(0.193258 0.00176588 0)
(0.192745 0.00157293 0)
(0.192245 0.00138455 0)
(0.19176 0.00120336 0)
(0.191293 0.00103157 0)
(0.190845 0.000871214 0)
(0.190418 0.000724475 0)
(0.190014 0.000592949 0)
(0.189635 0.000477448 0)
(0.189281 0.000377701 0)
(0.188953 0.000293065 0)
(0.188653 0.000222699 0)
(0.188379 0.000165002 0)
(0.188132 0.00011831 0)
(0.187911 8.10721e-05 0)
(0.187715 5.15637e-05 0)
(0.187541 2.83926e-05 0)
(0.187389 1.02422e-05 0)
(0.187255 -4.11544e-06 0)
(0.187138 -1.56662e-05 0)
(0.187037 -2.50657e-05 0)
(0.18695 -3.27441e-05 0)
(0.186877 -3.87829e-05 0)
(0.186816 -4.31758e-05 0)
(0.186768 -4.58805e-05 0)
(0.186729 -4.69134e-05 0)
(0.1867 -4.63758e-05 0)
(0.186678 -4.44923e-05 0)
(0.186662 -4.15666e-05 0)
(0.18665 -3.79342e-05 0)
(0.18664 -3.39279e-05 0)
(0.186633 -2.98548e-05 0)
(0.186626 -2.59365e-05 0)
(0.186619 -2.23235e-05 0)
(0.186612 -1.91142e-05 0)
(0.186604 -1.63378e-05 0)
(0.186597 -1.39955e-05 0)
(0.186588 -1.20437e-05 0)
(0.18658 -1.04421e-05 0)
(0.186571 -9.1303e-06 0)
(0.186563 -8.063e-06 0)
(0.186554 -7.19147e-06 0)
(0.186545 -6.47106e-06 0)
(0.186537 -5.87244e-06 0)
(0.186529 -5.36876e-06 0)
(0.186521 -4.93943e-06 0)
(0.186513 -4.56916e-06 0)
(0.186506 -4.2468e-06 0)
(0.186499 -3.96028e-06 0)
(0.186492 -3.70756e-06 0)
(0.186485 -3.48105e-06 0)
(0.186479 -3.27571e-06 0)
(0.186474 -3.08849e-06 0)
(0.186468 -2.91693e-06 0)
(0.186463 -2.75776e-06 0)
(0.186458 -2.61223e-06 0)
(0.186453 -2.47732e-06 0)
(0.186449 -2.35118e-06 0)
(0.186445 -2.23306e-06 0)
(0.186441 -2.12221e-06 0)
(0.186437 -2.01777e-06 0)
(0.186433 -1.9193e-06 0)
(0.18643 -1.82605e-06 0)
(0.186427 -1.73764e-06 0)
(0.186424 -1.65375e-06 0)
(0.186421 -1.57381e-06 0)
(0.186419 -1.498e-06 0)
(0.186416 -1.42553e-06 0)
(0.186414 -1.35665e-06 0)
(0.186412 -1.29033e-06 0)
(0.18641 -1.22754e-06 0)
(0.186408 -1.16661e-06 0)
(0.186406 -1.10936e-06 0)
(0.186404 -1.05314e-06 0)
(0.186403 -1.00084e-06 0)
(0.186401 -9.48824e-07 0)
(0.1864 -9.0101e-07 0)
(0.186398 -8.52855e-07 0)
(0.186397 -8.08999e-07 0)
(0.186396 -7.64424e-07 0)
(0.186395 -7.24119e-07 0)
(0.186394 -6.82791e-07 0)
(0.186393 -6.45819e-07 0)
(0.186392 -6.07185e-07 0)
(0.186391 -5.73451e-07 0)
(0.186391 -5.37032e-07 0)
(0.18639 -5.06311e-07 0)
(0.186389 -4.72058e-07 0)
(0.186389 -4.43673e-07 0)
(0.186388 -4.11816e-07 0)
(0.186387 -3.85086e-07 0)
(0.186387 -3.55546e-07 0)
(0.186386 -3.30284e-07 0)
(0.186386 -3.02575e-07 0)
(0.186386 -2.78684e-07 0)
(0.186385 -2.52652e-07 0)
(0.186385 -2.29531e-07 0)
(0.186384 -2.05391e-07 0)
(0.186384 -1.82409e-07 0)
(0.186384 -1.60046e-07 0)
(0.186383 -1.37037e-07 0)
(0.186383 -1.16224e-07 0)
(0.186383 -9.26326e-08 0)
(0.186383 -7.37766e-08 0)
(0.186382 -4.8842e-08 0)
(0.186382 -3.22812e-08 0)
(0.186382 -5.42545e-09 0)
(0.186382 8.74485e-09 0)
(0.186381 3.74423e-08 0)
(0.186381 4.82211e-08 0)
(0.186381 7.90377e-08 0)
(0.186381 8.56687e-08 0)
(0.18638 1.17498e-07 0)
(0.19463 0.00729522 0)
(0.195006 0.00823431 0)
(0.195639 0.00911949 0)
(0.196547 0.00981698 0)
(0.19765 0.0102161 0)
(0.198804 0.010304 0)
(0.199875 0.0101478 0)
(0.200782 0.00983198 0)
(0.201506 0.00942156 0)
(0.20206 0.00896085 0)
(0.202471 0.00848496 0)
(0.202764 0.00802446 0)
(0.202963 0.00760037 0)
(0.203091 0.00721952 0)
(0.203169 0.00687788 0)
(0.203213 0.00656786 0)
(0.203231 0.00628279 0)
(0.203228 0.00601806 0)
(0.203205 0.00577063 0)
(0.203165 0.00553828 0)
(0.203109 0.00531887 0)
(0.203037 0.00510984 0)
(0.202948 0.00490783 0)
(0.202842 0.00470909 0)
(0.202717 0.0045109 0)
(0.202575 0.00431253 0)
(0.202416 0.00411508 0)
(0.202243 0.00392034 0)
(0.202057 0.00372924 0)
(0.201858 0.00354035 0)
(0.201645 0.00335048 0)
(0.201417 0.00315742 0)
(0.201177 0.00296139 0)
(0.200926 0.00276409 0)
(0.200666 0.00256709 0)
(0.200398 0.00237099 0)
(0.200123 0.00217592 0)
(0.199841 0.00198187 0)
(0.199552 0.00178952 0)
(0.199258 0.00160061 0)
(0.19896 0.00141742 0)
(0.19866 0.00124227 0)
(0.19836 0.00107749 0)
(0.198063 0.000925204 0)
(0.197771 0.000786557 0)
(0.197487 0.000662294 0)
(0.197212 0.00055289 0)
(0.196949 0.000458034 0)
(0.196698 0.000376656 0)
(0.196462 0.000307304 0)
(0.196242 0.000248617 0)
(0.196038 0.000199297 0)
(0.19585 0.000158251 0)
(0.195679 0.000124286 0)
(0.195522 9.61426e-05 0)
(0.19538 7.26215e-05 0)
(0.19525 5.26354e-05 0)
(0.195133 3.53516e-05 0)
(0.195027 2.0184e-05 0)
(0.194932 6.97763e-06 0)
(0.194848 -4.25137e-06 0)
(0.194775 -1.33618e-05 0)
(0.194712 -2.02272e-05 0)
(0.194658 -2.48188e-05 0)
(0.194613 -2.72561e-05 0)
(0.194575 -2.78114e-05 0)
(0.194543 -2.68425e-05 0)
(0.194515 -2.47742e-05 0)
(0.194492 -2.20073e-05 0)
(0.194471 -1.89177e-05 0)
(0.194452 -1.57957e-05 0)
(0.194434 -1.28411e-05 0)
(0.194417 -1.01803e-05 0)
(0.194401 -7.88658e-06 0)
(0.194385 -5.96384e-06 0)
(0.19437 -4.40573e-06 0)
(0.194355 -3.16685e-06 0)
(0.19434 -2.20558e-06 0)
(0.194325 -1.47404e-06 0)
(0.194312 -9.23181e-07 0)
(0.194298 -5.16374e-07 0)
(0.194285 -2.21264e-07 0)
(0.194273 -1.12519e-08 0)
(0.194261 1.34804e-07 0)
(0.19425 2.32113e-07 0)
(0.194239 2.95398e-07 0)
(0.194229 3.29325e-07 0)
(0.194219 3.42582e-07 0)
(0.19421 3.41513e-07 0)
(0.194201 3.30142e-07 0)
(0.194192 3.10587e-07 0)
(0.194184 2.86846e-07 0)
(0.194177 2.57979e-07 0)
(0.19417 2.26703e-07 0)
(0.194163 1.94782e-07 0)
(0.194157 1.62647e-07 0)
(0.194151 1.30821e-07 0)
(0.194145 9.98932e-08 0)
(0.19414 7.02887e-08 0)
(0.194135 4.2112e-08 0)
(0.19413 1.57659e-08 0)
(0.194125 -8.86437e-09 0)
(0.194121 -3.1445e-08 0)
(0.194117 -5.24635e-08 0)
(0.194113 -7.11525e-08 0)
(0.19411 -8.83682e-08 0)
(0.194107 -1.02896e-07 0)
(0.194103 -1.16623e-07 0)
(0.1941 -1.27183e-07 0)
(0.194098 -1.37744e-07 0)
(0.194095 -1.44574e-07 0)
(0.194093 -1.52402e-07 0)
(0.19409 -1.55828e-07 0)
(0.194088 -1.61112e-07 0)
(0.194086 -1.61587e-07 0)
(0.194084 -1.64516e-07 0)
(0.194082 -1.62535e-07 0)
(0.194081 -1.63364e-07 0)
(0.194079 -1.59238e-07 0)
(0.194078 -1.58441e-07 0)
(0.194076 -1.52057e-07 0)
(0.194075 -1.50175e-07 0)
(0.194074 -1.41571e-07 0)
(0.194073 -1.38798e-07 0)
(0.194072 -1.28531e-07 0)
(0.194071 -1.24453e-07 0)
(0.19407 -1.13375e-07 0)
(0.194069 -1.07594e-07 0)
(0.194068 -9.60035e-08 0)
(0.194067 -8.87817e-08 0)
(0.194067 -7.6368e-08 0)
(0.194066 -6.80722e-08 0)
(0.194065 -5.48785e-08 0)
(0.194065 -4.5216e-08 0)
(0.194064 -3.17252e-08 0)
(0.194064 -2.02837e-08 0)
(0.194063 -6.6741e-09 0)
(0.194063 6.63902e-09 0)
(0.194062 2.02795e-08 0)
(0.194062 3.58271e-08 0)
(0.194062 4.90622e-08 0)
(0.194061 6.72374e-08 0)
(0.194061 7.96489e-08 0)
(0.19406 1.00881e-07 0)
(0.19406 1.12138e-07 0)
(0.19406 1.36496e-07 0)
(0.19406 1.46103e-07 0)
(0.194059 1.73463e-07 0)
(0.194059 1.79892e-07 0)
(0.194058 2.07521e-07 0)
(0.195237 0.00701237 0)
(0.195593 0.00779877 0)
(0.196146 0.00853393 0)
(0.196905 0.00913172 0)
(0.197818 0.0095116 0)
(0.198793 0.00964535 0)
(0.199729 0.00956524 0)
(0.200552 0.00933298 0)
(0.201231 0.00900711 0)
(0.201767 0.00863003 0)
(0.202181 0.00823138 0)
(0.202496 0.00783511 0)
(0.202731 0.00745995 0)
(0.202904 0.00711502 0)
(0.203032 0.00679972 0)
(0.203132 0.00650944 0)
(0.203211 0.00624001 0)
(0.203271 0.00598814 0)
(0.203317 0.00575112 0)
(0.203351 0.00552708 0)
(0.203376 0.00531472 0)
(0.203393 0.00511221 0)
(0.2034 0.00491685 0)
(0.203399 0.00472538 0)
(0.203389 0.00453502 0)
(0.203368 0.00434442 0)
(0.203337 0.00415404 0)
(0.203296 0.00396572 0)
(0.203247 0.00378079 0)
(0.20319 0.00359842 0)
(0.203123 0.00341569 0)
(0.203046 0.00323006 0)
(0.202958 0.00304119 0)
(0.202859 0.00285052 0)
(0.20275 0.00265967 0)
(0.20263 0.0024696 0)
(0.2025 0.00228063 0)
(0.20236 0.00209282 0)
(0.202209 0.00190662 0)
(0.202047 0.0017233 0)
(0.201874 0.00154498 0)
(0.201693 0.00137391 0)
(0.201504 0.00121198 0)
(0.201309 0.0010608 0)
(0.201111 0.000921695 0)
(0.200912 0.000795812 0)
(0.200714 0.000683665 0)
(0.200519 0.00058486 0)
(0.200329 0.000498376 0)
(0.200145 0.000423001 0)
(0.19997 0.000357581 0)
(0.199803 0.000301124 0)
(0.199647 0.000252775 0)
(0.1995 0.0002116 0)
(0.199363 0.000176614 0)
(0.199236 0.000146724 0)
(0.199117 0.000120824 0)
(0.199006 9.79323e-05 0)
(0.198903 7.74155e-05 0)
(0.198807 5.89245e-05 0)
(0.198719 4.244e-05 0)
(0.198639 2.81446e-05 0)
(0.198566 1.62648e-05 0)
(0.198501 6.9468e-06 0)
(0.198443 1.95913e-07 0)
(0.198391 -4.15992e-06 0)
(0.198346 -6.4333e-06 0)
(0.198305 -7.04272e-06 0)
(0.198269 -6.41668e-06 0)
(0.198237 -4.99704e-06 0)
(0.198207 -3.15424e-06 0)
(0.19818 -1.169e-06 0)
(0.198155 7.44574e-07 0)
(0.198131 2.45878e-06 0)
(0.198109 3.89808e-06 0)
(0.198088 5.04125e-06 0)
(0.198067 5.89609e-06 0)
(0.198048 6.49388e-06 0)
(0.198029 6.87093e-06 0)
(0.198011 7.06556e-06 0)
(0.197994 7.11684e-06 0)
(0.197978 7.05759e-06 0)
(0.197962 6.9166e-06 0)
(0.197947 6.71733e-06 0)
(0.197933 6.47803e-06 0)
(0.19792 6.21066e-06 0)
(0.197907 5.92789e-06 0)
(0.197895 5.63687e-06 0)
(0.197883 5.34351e-06 0)
(0.197872 5.05191e-06 0)
(0.197862 4.7651e-06 0)
(0.197852 4.48497e-06 0)
(0.197843 4.21437e-06 0)
(0.197834 3.95374e-06 0)
(0.197825 3.70359e-06 0)
(0.197818 3.46423e-06 0)
(0.19781 3.23598e-06 0)
(0.197803 3.01907e-06 0)
(0.197796 2.81353e-06 0)