/*--------------------------------*- C++ -*----------------------------------*\
| =========                 |                                                 |
| \\      /  F ield         | OpenFOAM: The Open Source CFD Toolbox           |
|  \\    /   O peration     | Version:  2.3.0                                 |
|   \\  /    A nd           | Web:      www.OpenFOAM.org                      |
|    \\/     M anipulation  |                                                 |
\*---------------------------------------------------------------------------*/
FoamFile
{
    version     2.0;
    format      ascii;
    class       surfaceScalarField;
    location    "0.85";
    object      phi;
}
// * * * * * * * * * * * * * * * * * * * * * * * * * * * * * * * * * * * * * //

dimensions      [0 3 -1 0 0 0 0];

internalField   nonuniform List<scalar> 
1660
(
6.34757e-08
2.71445e-09
-6.61901e-08
5.97942e-08
3.68148e-09
5.58183e-08
3.97587e-09
5.18722e-08
3.94611e-09
4.79747e-08
3.89748e-09
4.40859e-08
3.88878e-09
4.02083e-08
3.87765e-09
3.63801e-08
3.82818e-09
3.26659e-08
3.7142e-09
2.91448e-08
3.52109e-09
2.59023e-08
3.2425e-09
2.30043e-08
2.89804e-09
2.05109e-08
2.49343e-09
1.84585e-08
2.05236e-09
1.68409e-08
1.61764e-09
1.5613e-08
1.22785e-09
1.47037e-08
9.09335e-10
1.40372e-08
6.66483e-10
1.35447e-08
4.92451e-10
1.31685e-08
3.7621e-10
1.2868e-08
3.00566e-10
1.26108e-08
2.57189e-10
1.23738e-08
2.36962e-10
1.21443e-08
2.29491e-10
1.19152e-08
2.29136e-10
1.16854e-08
2.29821e-10
1.14545e-08
2.30858e-10
1.12249e-08
2.29598e-10
1.09986e-08
2.26322e-10
1.07769e-08
2.21643e-10
1.05622e-08
2.14728e-10
1.03554e-08
2.06825e-10
1.01562e-08
1.99222e-10
9.96736e-09
1.88805e-10
9.78582e-09
1.81541e-10
9.61378e-09
1.72032e-10
9.45085e-09
1.62936e-10
9.29332e-09
1.57531e-10
9.14549e-09
1.47824e-10
9.00283e-09
1.4266e-10
8.86517e-09
1.3766e-10
8.73574e-09
1.29435e-10
8.60825e-09
1.27484e-10
8.48614e-09
1.22112e-10
8.36899e-09
1.17153e-10
8.25216e-09
1.16829e-10
8.13989e-09
1.12269e-10
8.02843e-09
1.11457e-10
7.91848e-09
1.09952e-10
1.21477e-10
7.27387e-08
2.50271e-09
-7.2527e-08
7.28649e-08
3.55529e-09
7.25312e-08
4.3096e-09
7.18541e-08
4.62316e-09
7.09868e-08
4.76483e-09
6.99734e-08
4.90213e-09
6.87799e-08
5.07115e-09
6.73871e-08
5.22098e-09
6.58122e-08
5.28913e-09
6.4087e-08
5.24627e-09
6.2241e-08
5.08853e-09
6.03154e-08
4.82363e-09
5.83507e-08
4.45814e-09
5.63926e-08
4.01047e-09
5.44835e-08
3.52669e-09
5.26603e-08
3.05103e-09
5.09411e-08
2.6286e-09
4.93324e-08
2.27518e-09
4.78279e-08
1.99689e-09
4.64161e-08
1.78808e-09
4.50975e-08
1.61913e-09
4.3864e-08
1.49065e-09
4.27044e-08
1.3966e-09
4.16127e-08
1.32122e-09
4.05799e-08
1.26191e-09
3.96036e-08
1.20612e-09
3.86765e-08
1.15797e-09
3.77982e-08
1.10793e-09
3.69624e-08
1.06211e-09
3.61697e-08
1.01428e-09
3.54147e-08
9.69783e-10
3.46992e-08
9.22276e-10
3.40163e-08
8.8218e-10
3.33708e-08
8.34325e-10
3.27528e-08
7.99456e-10
3.21688e-08
7.56054e-10
3.16096e-08
7.22179e-10
3.10786e-08
6.88556e-10
3.05695e-08
6.56906e-10
3.00861e-08
6.26072e-10
2.96181e-08
6.05608e-10
2.91767e-08
5.70808e-10
2.87449e-08
5.59318e-10
2.8337e-08
5.30017e-10
2.79374e-08
5.16803e-10
2.75568e-08
4.97399e-10
2.71818e-08
4.87299e-10
2.68235e-08
4.69673e-10
2.64654e-08
4.68075e-10
4.67788e-10
7.87677e-08
2.472e-09
-7.87369e-08
7.9085e-08
3.23789e-09
7.93631e-08
4.0315e-09
7.94916e-08
4.49469e-09
7.95132e-08
4.74329e-09
7.94962e-08
4.91912e-09
7.94564e-08
5.11089e-09
7.93631e-08
5.31436e-09
7.91841e-08
5.46805e-09
7.88984e-08
5.53198e-09
7.84997e-08
5.48725e-09
7.79868e-08
5.33654e-09
7.73596e-08
5.08534e-09
7.66292e-08
4.74084e-09
7.58124e-08
4.34352e-09
7.49371e-08
3.92633e-09
7.40238e-08
3.5419e-09
7.30941e-08
3.20488e-09
7.21534e-08
2.93759e-09
7.12156e-08
2.72583e-09
7.02738e-08
2.56094e-09
6.9336e-08
2.42845e-09
6.84002e-08
2.3324e-09
6.74717e-08
2.24978e-09
6.65454e-08
2.18819e-09
6.56276e-08
2.12391e-09
6.47116e-08
2.07395e-09
6.38068e-08
2.01274e-09
6.29048e-08
1.96409e-09
6.20171e-08
1.90205e-09
6.11349e-08
1.85191e-09
6.02696e-08
1.78759e-09
5.94124e-08
1.7394e-09
5.85757e-08
1.67105e-09
5.77471e-08
1.62803e-09
5.69437e-08
1.55942e-09
5.6148e-08
1.51793e-09
5.53792e-08
1.45735e-09
5.46198e-08
1.41624e-09
5.38866e-08
1.35928e-09
5.31638e-08
1.3284e-09
5.24691e-08
1.26552e-09
5.17804e-08
1.24802e-09
5.11245e-08
1.18599e-09
5.04704e-08
1.17091e-09
4.98476e-08
1.12013e-09
4.9227e-08
1.1079e-09
4.86344e-08
1.06233e-09
4.80383e-08
1.06411e-09
1.03187e-09
8.53439e-08
2.47561e-09
-8.53475e-08
8.55125e-08
3.06928e-09
8.58066e-08
3.73737e-09
8.60614e-08
4.23993e-09
8.62355e-08
4.56919e-09
8.63802e-08
4.77438e-09
8.65506e-08
4.9405e-09
8.67485e-08
5.11649e-09
8.69425e-08
5.27399e-09
8.71089e-08
5.36563e-09
8.72231e-08
5.37299e-09
8.72773e-08
5.28235e-09
8.72563e-08
5.10635e-09
8.71566e-08
4.84051e-09
8.69738e-08
4.52634e-09
8.67236e-08
4.17652e-09
8.64144e-08
3.85108e-09
8.60691e-08
3.55019e-09
8.56933e-08
3.31341e-09
8.53021e-08
3.11701e-09
8.48892e-08
2.97381e-09
8.44636e-08
2.85406e-09
8.40218e-08
2.77422e-09
8.35725e-08
2.69909e-09
8.3107e-08
2.6537e-09
8.26352e-08
2.59571e-09
8.21449e-08
2.56422e-09
8.16482e-08
2.50943e-09
8.11321e-08
2.48022e-09
8.06085e-08
2.42562e-09
8.00678e-08
2.39266e-09
7.95207e-08
2.33467e-09
7.89571e-08
2.30304e-09
7.8392e-08
2.23615e-09
7.78078e-08
2.21226e-09
7.72278e-08
2.13938e-09
7.663e-08
2.1157e-09
7.60356e-08
2.05178e-09
7.54312e-08
2.02068e-09
7.48265e-08
1.96391e-09
7.42148e-08
1.94013e-09
7.36089e-08
1.87141e-09
7.29897e-08
1.86718e-09
7.23847e-08
1.79103e-09
7.17668e-08
1.78881e-09
7.11596e-08
1.7273e-09
7.05461e-08
1.72141e-09
6.99414e-08
1.66703e-09
6.9328e-08
1.67748e-09
1.63181e-09
9.24373e-08
2.47262e-09
-9.24343e-08
9.25449e-08
2.96168e-09
9.27797e-08
3.50255e-09
9.30346e-08
3.98505e-09
9.32491e-08
4.3547e-09
9.34303e-08
4.59309e-09
9.36154e-08
4.7555e-09
9.38295e-08
4.90232e-09
9.40658e-08
5.03773e-09
9.4305e-08
5.12643e-09
9.45194e-08
5.15856e-09
9.47004e-08
5.10134e-09
9.48335e-08
4.97327e-09
9.49152e-08
4.75881e-09
9.49351e-08
4.50647e-09
9.49036e-08
4.20799e-09
9.48239e-08
3.93084e-09
9.4716e-08
3.65807e-09
9.45848e-08
3.44457e-09
9.44438e-08
3.25798e-09
9.42902e-08
3.12746e-09
9.41314e-08
3.0128e-09
9.39635e-08
2.94214e-09
9.37947e-08
2.86794e-09
9.36172e-08
2.83117e-09
9.34385e-08
2.77439e-09
9.32495e-08
2.75323e-09
9.30573e-08
2.70162e-09
9.28525e-08
2.68506e-09
9.26404e-08
2.63774e-09
9.2415e-08
2.61802e-09
9.21815e-08
2.56817e-09
9.19329e-08
2.55163e-09
9.16789e-08
2.49018e-09
9.14066e-08
2.48454e-09
9.11294e-08
2.41653e-09
9.08368e-08
2.4083e-09
9.05339e-08
2.35468e-09
9.02229e-08
2.33176e-09
8.98977e-08
2.28903e-09
8.95637e-08
2.27419e-09
8.92207e-08
2.21435e-09
8.88629e-08
2.225e-09
8.84992e-08
2.15471e-09
8.81243e-08
2.16373e-09
8.77373e-08
2.11431e-09
8.73451e-08
2.1136e-09
8.69396e-08
2.07254e-09
8.6528e-08
2.08909e-09
2.05516e-09
1.00077e-07
2.45954e-09
-1.00064e-07
1.00161e-07
2.87736e-09
1.00342e-07
3.32204e-09
1.00571e-07
3.75565e-09
1.00797e-07
4.12928e-09
1.01e-07
4.38956e-09
1.01187e-07
4.56818e-09
1.01389e-07
4.70081e-09
1.01609e-07
4.81801e-09
1.0184e-07
4.89504e-09
1.02059e-07
4.93967e-09
1.02254e-07
4.9068e-09
1.02411e-07
4.81597e-09
1.02526e-07
4.64329e-09
1.02592e-07
4.44056e-09
1.02614e-07
4.18577e-09
1.02596e-07
3.94888e-09
1.02554e-07
3.701e-09
1.02494e-07
3.50451e-09
1.02426e-07
3.32554e-09
1.02354e-07
3.19996e-09
1.0228e-07
3.08594e-09
1.02206e-07
3.01622e-09
1.02134e-07
2.94002e-09
1.02063e-07
2.9019e-09
1.01995e-07
2.84326e-09
1.01926e-07
2.82204e-09
1.01858e-07
2.7692e-09
1.01789e-07
2.75421e-09
1.01716e-07
2.71057e-09
1.01642e-07
2.69268e-09
1.01561e-07
2.64854e-09
1.01476e-07
2.63648e-09
1.01388e-07
2.57881e-09
1.01292e-07
2.57978e-09
1.01191e-07
2.51812e-09
1.01087e-07
2.51265e-09
1.00969e-07
2.47177e-09
1.00854e-07
2.44744e-09
1.00724e-07
2.41834e-09
1.00593e-07
2.40589e-09
1.00451e-07
2.35648e-09
1.00303e-07
2.37262e-09
1.00142e-07
2.31535e-09
9.99798e-08
2.32627e-09
9.98e-08
2.29414e-09
9.96198e-08
2.29383e-09
9.94216e-08
2.27069e-09
9.92215e-08
2.28924e-09
2.27075e-09
1.08313e-07
2.4399e-09
-1.08293e-07
1.08388e-07
2.80263e-09
1.08526e-07
3.18373e-09
1.08727e-07
3.55462e-09
1.08944e-07
3.91172e-09
1.09157e-07
4.17721e-09
1.09349e-07
4.37613e-09
1.09543e-07
4.50678e-09
1.09745e-07
4.61597e-09
1.09955e-07
4.68508e-09
1.10161e-07
4.73385e-09
1.1035e-07
4.71771e-09
1.10508e-07
4.65781e-09
1.10628e-07
4.52328e-09
1.10705e-07
4.3632e-09
1.10742e-07
4.14909e-09
1.10743e-07
3.94775e-09
1.10718e-07
3.72637e-09
1.10677e-07
3.54483e-09
1.10628e-07
3.37497e-09
1.10577e-07
3.25144e-09
1.10524e-07
3.13833e-09
1.10475e-07
3.06551e-09
1.10426e-07
2.98844e-09
1.10384e-07
2.94472e-09
1.10343e-07
2.88378e-09
1.10307e-07
2.85855e-09
1.10272e-07
2.80341e-09
1.10243e-07
2.78394e-09
1.1021e-07
2.74302e-09
1.10183e-07
2.71995e-09
1.10152e-07
2.67956e-09
1.10122e-07
2.66652e-09
1.1009e-07
2.61026e-09
1.10059e-07
2.61077e-09
1.10023e-07
2.55475e-09
1.09991e-07
2.54414e-09
1.0995e-07
2.51344e-09
1.09913e-07
2.48393e-09
1.0987e-07
2.46187e-09
1.09827e-07
2.44891e-09
1.09777e-07
2.40602e-09
1.09729e-07
2.42066e-09
1.0967e-07
2.37449e-09
1.09613e-07
2.38295e-09
1.09545e-07
2.36235e-09
1.09478e-07
2.36072e-09
1.09399e-07
2.34968e-09
1.0932e-07
2.36863e-09
2.3588e-09
1.17197e-07
2.41631e-09
-1.17173e-07
1.17264e-07
2.73529e-09
1.17381e-07
3.0674e-09
1.17548e-07
3.38773e-09
1.1775e-07
3.70961e-09
1.17956e-07
3.97064e-09
1.18154e-07
4.1789e-09
1.18341e-07
4.3189e-09
1.1853e-07
4.42727e-09
1.18719e-07
4.4961e-09
1.18908e-07
4.54454e-09
1.19086e-07
4.54012e-09
1.19239e-07
4.50476e-09
1.19358e-07
4.40396e-09
1.19441e-07
4.2809e-09
1.19485e-07
4.10469e-09
1.19497e-07
3.93553e-09
1.19482e-07
3.74216e-09
1.19451e-07
3.57579e-09
1.19409e-07
3.41667e-09
1.19365e-07
3.29539e-09
1.19319e-07
3.18402e-09
1.19277e-07
3.10743e-09
1.19236e-07
3.03005e-09
1.19199e-07
2.98118e-09
1.19165e-07
2.91766e-09
1.19136e-07
2.88817e-09
1.19108e-07
2.83129e-09
1.19086e-07
2.80569e-09
1.19062e-07
2.76672e-09
1.19045e-07
2.73753e-09
1.19026e-07
2.69841e-09
1.19009e-07
2.68392e-09
1.18991e-07
2.62754e-09
1.18977e-07
2.62544e-09
1.18957e-07
2.57398e-09
1.18945e-07
2.55695e-09
1.18926e-07
2.53202e-09
1.1891e-07
2.49947e-09
1.18894e-07
2.47853e-09
1.18877e-07
2.46546e-09
1.18858e-07
2.42574e-09
1.18841e-07
2.43715e-09
1.18818e-07
2.39804e-09
1.18796e-07
2.40409e-09
1.1877e-07
2.38914e-09
1.18743e-07
2.38728e-09
1.18711e-07
2.38166e-09
1.18679e-07
2.40105e-09
2.39483e-09
1.26784e-07
2.38817e-09
-1.26756e-07
1.26845e-07
2.674e-09
1.26946e-07
2.96683e-09
1.27087e-07
3.24705e-09
1.27266e-07
3.52993e-09
1.2746e-07
3.77668e-09
1.27654e-07
3.98568e-09
1.27837e-07
4.135e-09
1.28014e-07
4.25085e-09
1.28186e-07
4.32381e-09
1.28358e-07
4.37308e-09
1.2852e-07
4.37786e-09
1.28663e-07
4.36131e-09
1.28779e-07
4.28833e-09
1.28863e-07
4.19647e-09
1.28913e-07
4.0546e-09
1.28934e-07
3.9146e-09
1.28928e-07
3.74883e-09
1.28904e-07
3.59934e-09
1.28869e-07
3.45155e-09
1.28831e-07
3.334e-09
1.2879e-07
3.22459e-09
1.28752e-07
3.14544e-09
1.28715e-07
3.06701e-09
1.28681e-07
3.01486e-09
1.2865e-07
2.94876e-09
1.28623e-07
2.9153e-09
1.28597e-07
2.85754e-09
1.28576e-07
2.82651e-09
1.28555e-07
2.78765e-09
1.28538e-07
2.75449e-09
1.28522e-07
2.71434e-09
1.28508e-07
2.69865e-09
1.28493e-07
2.64229e-09
1.28481e-07
2.6369e-09
1.28467e-07
2.58864e-09
1.28456e-07
2.56743e-09
1.28444e-07
2.54386e-09
1.28432e-07
2.51155e-09
1.28422e-07
2.48869e-09
1.28411e-07
2.47632e-09
1.28399e-07
2.4381e-09
1.2839e-07
2.44656e-09
1.28375e-07
2.41232e-09
1.28363e-07
2.41655e-09
1.28348e-07
2.40416e-09
1.28331e-07
2.40397e-09
1.28314e-07
2.3992e-09
1.28295e-07
2.4197e-09
2.41542e-09
1.37135e-07
2.37022e-09
-1.37118e-07
1.37185e-07
2.6247e-09
1.37273e-07
2.87894e-09
1.37395e-07
3.12448e-09
1.3755e-07
3.37475e-09
1.37728e-07
3.5992e-09
1.37909e-07
3.80482e-09
1.38084e-07
3.96014e-09
1.3825e-07
4.08495e-09
1.38408e-07
4.16507e-09
1.38562e-07
4.21967e-09
1.38707e-07
4.23281e-09
1.38837e-07
4.23081e-09
1.38946e-07
4.17969e-09
1.39029e-07
4.11309e-09
1.39083e-07
4.00101e-09
1.39111e-07
3.88681e-09
1.39113e-07
3.74676e-09
1.39096e-07
3.61552e-09
1.39068e-07
3.47982e-09
1.39035e-07
3.36746e-09
1.38999e-07
3.25986e-09
1.38965e-07
3.17996e-09
1.38932e-07
3.09957e-09
1.38902e-07
3.04539e-09
1.38873e-07
2.97727e-09
1.38849e-07
2.93993e-09
1.38824e-07
2.88198e-09
1.38804e-07
2.84697e-09
1.38785e-07
2.80639e-09
1.38768e-07
2.77159e-09
1.38753e-07
2.72939e-09
1.3874e-07
2.71188e-09
1.38725e-07
2.65655e-09
1.38715e-07
2.64759e-09
1.38702e-07
2.6012e-09
1.38691e-07
2.57832e-09
1.38682e-07
2.55308e-09
1.3867e-07
2.52327e-09
1.38662e-07
2.49715e-09
1.38652e-07
2.48602e-09
1.38641e-07
2.44906e-09
1.38634e-07
2.45419e-09
1.38621e-07
2.42476e-09
1.38611e-07
2.42706e-09
1.38599e-07
2.41583e-09
1.38584e-07
2.41895e-09
1.38571e-07
2.41243e-09
1.38556e-07
2.43444e-09
2.43194e-09
1.70115e-07
2.32619e-09
-1.70071e-07
1.70184e-07
2.55535e-09
1.70283e-07
2.7799e-09
1.70411e-07
2.99707e-09
1.70566e-07
3.21917e-09
1.70742e-07
3.42363e-09
1.70928e-07
3.61827e-09
1.71108e-07
3.78034e-09
1.71279e-07
3.91409e-09
1.71441e-07
4.00282e-09
1.71593e-07
4.06741e-09
1.71736e-07
4.08997e-09
1.71866e-07
4.10079e-09
1.71978e-07
4.06835e-09
1.72067e-07
4.02379e-09
1.72128e-07
3.93958e-09
1.72165e-07
3.85027e-09
1.72176e-07
3.73599e-09
1.72166e-07
3.62503e-09
1.72142e-07
3.50403e-09
1.7211e-07
3.39951e-09
1.72077e-07
3.29298e-09
1.72043e-07
3.21365e-09
1.72012e-07
3.13055e-09
1.71983e-07
3.07458e-09
1.71955e-07
3.0053e-09
1.71931e-07
2.96403e-09
1.71906e-07
2.90654e-09
1.71885e-07
2.8687e-09
1.71866e-07
2.82524e-09
1.71847e-07
2.79018e-09
1.71831e-07
2.74568e-09
1.71817e-07
2.72527e-09
1.71802e-07
2.67203e-09
1.71791e-07
2.65864e-09
1.71778e-07
2.61359e-09
1.71766e-07
2.59076e-09
1.71758e-07
2.56131e-09
1.71745e-07
2.53617e-09
1.71736e-07
2.50575e-09
1.71726e-07
2.49596e-09
1.71714e-07
2.46097e-09
1.71707e-07
2.46149e-09
1.71693e-07
2.43847e-09
1.71683e-07
2.43793e-09
1.71672e-07
2.42677e-09
1.71655e-07
2.43525e-09
1.71642e-07
2.4254e-09
1.71628e-07
2.44881e-09
2.44858e-09
2.14583e-07
2.26982e-09
-2.14526e-07
2.14669e-07
2.46959e-09
2.14782e-07
2.66659e-09
2.14916e-07
2.86247e-09
2.1507e-07
3.0652e-09
2.15237e-07
3.25747e-09
2.1541e-07
3.44477e-09
2.15581e-07
3.60913e-09
2.15745e-07
3.75024e-09
2.15901e-07
3.84681e-09
2.16045e-07
3.92363e-09
2.16178e-07
3.95692e-09
2.16299e-07
3.97934e-09
2.16406e-07
3.96206e-09
2.16494e-07
3.93513e-09
2.1656e-07
3.87438e-09
2.16603e-07
3.80691e-09
2.16623e-07
3.71624e-09
2.16622e-07
3.62562e-09
2.16606e-07
3.51972e-09
2.16579e-07
3.42718e-09
2.16548e-07
3.32347e-09
2.16518e-07
3.24407e-09
2.1649e-07
3.15802e-09
2.16465e-07
3.09978e-09
2.16441e-07
3.02995e-09
2.16419e-07
2.98521e-09
2.16397e-07
2.92857e-09
2.16377e-07
2.88936e-09
2.16359e-07
2.843e-09
2.16341e-07
2.80849e-09
2.16324e-07
2.76207e-09
2.16312e-07
2.73788e-09
2.16296e-07
2.68766e-09
2.16286e-07
2.66889e-09
2.16274e-07
2.62496e-09
2.16262e-07
2.60347e-09
2.16255e-07
2.568e-09
2.16242e-07
2.54944e-09
2.16234e-07
2.51368e-09
2.16224e-07
2.50525e-09
2.16212e-07
2.47366e-09
2.16206e-07
2.46749e-09
2.16192e-07
2.45228e-09
2.16181e-07
2.44916e-09
2.16171e-07
2.43651e-09
2.16155e-07
2.45129e-09
2.16142e-07
2.43812e-09
2.16129e-07
2.46177e-09
2.46478e-09
2.70705e-07
2.19888e-09
-2.70634e-07
2.70803e-07
2.3713e-09
2.70921e-07
2.54915e-09
2.71048e-07
2.73501e-09
2.71182e-07
2.93158e-09
2.71316e-07
3.12311e-09
2.71448e-07
3.31305e-09
2.71581e-07
3.47571e-09
2.71713e-07
3.61842e-09
2.7184e-07
3.72001e-09
2.71957e-07
3.80689e-09
2.72064e-07
3.84933e-09
2.72162e-07
3.88131e-09
2.72249e-07
3.87539e-09
2.72323e-07
3.86067e-09
2.72381e-07
3.81635e-09
2.72424e-07
3.76442e-09
2.72448e-07
3.69171e-09
2.72457e-07
3.61711e-09
2.72452e-07
3.52427e-09
2.72436e-07
3.44338e-09
2.72415e-07
3.34499e-09
2.7239e-07
3.26901e-09
2.72369e-07
3.17854e-09
2.72352e-07
3.11654e-09
2.72336e-07
3.04636e-09
2.72322e-07
2.99917e-09
2.72307e-07
2.9438e-09
2.72292e-07
2.90439e-09
2.72279e-07
2.8561e-09
2.72265e-07
2.82246e-09
2.72251e-07
2.77527e-09
2.72242e-07
2.74695e-09
2.7223e-07
2.70019e-09
2.72223e-07
2.67599e-09
2.72215e-07
2.63304e-09
2.72205e-07
2.61349e-09
2.72201e-07
2.57167e-09
2.7219e-07
2.56016e-09
2.72184e-07
2.51946e-09
2.72178e-07
2.5115e-09
2.72167e-07
2.48445e-09
2.72164e-07
2.4713e-09
2.72153e-07
2.46316e-09
2.72144e-07
2.45776e-09
2.72137e-07
2.44364e-09
2.72124e-07
2.46405e-09
2.72115e-07
2.44779e-09
2.72104e-07
2.47239e-09
2.47591e-09
3.41659e-07
-3.4161e-07
3.41721e-07
3.41788e-07
3.41853e-07
3.41914e-07
3.41968e-07
3.42021e-07
3.42078e-07
3.42137e-07
3.42194e-07
3.42248e-07
3.42298e-07
3.42343e-07
3.42384e-07
3.42419e-07
3.42448e-07
3.42471e-07
3.42486e-07
3.42495e-07
3.42498e-07
3.42495e-07
3.42489e-07
3.4248e-07
3.42472e-07
3.42467e-07
3.42462e-07
3.42459e-07
3.42455e-07
3.42451e-07
3.42447e-07
3.42443e-07
3.42439e-07
3.42437e-07
3.42433e-07
3.42432e-07
3.4243e-07
3.42427e-07
3.42428e-07
3.42425e-07
3.42424e-07
3.42423e-07
3.4242e-07
3.4242e-07
3.42417e-07
3.42415e-07
3.42414e-07
3.4241e-07
3.42407e-07
3.42404e-07
6.90543e-08
-1.49309e-10
6.90454e-08
9.77766e-12
6.89746e-08
1.35623e-10
6.89119e-08
1.10751e-10
6.88256e-08
2.24645e-10
6.87402e-08
1.59501e-10
6.86265e-08
3.05538e-10
6.84952e-08
2.44117e-10
6.82631e-08
4.94482e-10
6.79331e-08
5.52543e-10
6.72712e-08
1.16335e-09
1.77597e-09
7.44567e-08
-7.11398e-11
7.4491e-08
-2.45886e-11
7.44105e-08
2.16122e-10
7.43774e-08
1.43842e-10
7.42633e-08
3.38784e-10
7.4183e-08
2.39775e-10
7.40237e-08
4.64808e-10
7.38624e-08
4.05438e-10
7.36003e-08
7.56658e-10
7.32329e-08
9.19934e-10
7.28101e-08
1.58613e-09
2.05908e-09
8.04279e-08
3.04377e-12
8.04139e-08
-1.06072e-11
8.03796e-08
2.50457e-10
8.02999e-08
2.23525e-10
8.02304e-08
4.08217e-10
8.00797e-08
3.90565e-10
7.99695e-08
5.74947e-10
7.97088e-08
6.66113e-10
7.95088e-08
9.567e-10
7.91471e-08
1.2816e-09
7.89697e-08
1.76356e-09
2.29186e-09
8.69118e-08
3.8325e-11
8.68483e-08
5.28275e-11
8.68383e-08
2.60511e-10
8.67419e-08
3.19932e-10
8.66746e-08
4.75443e-10
8.65136e-08
5.51611e-10
8.6371e-08
7.17504e-10
8.6137e-08
9.00127e-10
8.59164e-08
1.17737e-09
8.56604e-08
1.53759e-09
8.54895e-08
1.93445e-09
2.43383e-09
9.38885e-08
5.7793e-11
9.38169e-08
1.24491e-10
9.37916e-08
2.85742e-10
9.37051e-08
4.06512e-10
9.36176e-08
5.62904e-10
9.34661e-08
7.03078e-10
9.32978e-08
8.85801e-10
9.30911e-08
1.10689e-09
9.28788e-08
1.3896e-09
9.26837e-08
1.73275e-09
9.25192e-08
2.09888e-09
2.51881e-09
1.0141e-07
7.45246e-11
1.01349e-07
1.85337e-10
1.01296e-07
3.38743e-10
1.01216e-07
4.86647e-10
1.01111e-07
6.67383e-10
1.00969e-07
8.45395e-10
1.00796e-07
1.05873e-09
1.00607e-07
1.29592e-09
1.00415e-07
1.58169e-09
1.00254e-07
1.89382e-09
1.00121e-07
2.23192e-09
2.57548e-09
1.09529e-07
9.16505e-11
1.09478e-07
2.36936e-10
1.09407e-07
4.09104e-10
1.09321e-07
5.73425e-10
1.09207e-07
7.80446e-10
1.0907e-07
9.82903e-10
1.08906e-07
1.22285e-09
1.08734e-07
1.46822e-09
1.08566e-07
1.74958e-09
1.08431e-07
2.0287e-09
1.08331e-07
2.33163e-09
2.6134e-09
1.18299e-07
1.09644e-10
1.18252e-07
2.83948e-10
1.18173e-07
4.88112e-10
1.18077e-07
6.68916e-10
1.1796e-07
8.97329e-10
1.17826e-07
1.11729e-09
1.17675e-07
1.37342e-09
1.17522e-07
1.62125e-09
1.1738e-07
1.89137e-09
1.17269e-07
2.14e-09
1.17196e-07
2.40516e-09
2.63557e-09
1.2777e-07
1.28485e-10
1.27723e-07
3.3127e-10
1.27643e-07
5.68333e-10
1.27542e-07
7.69759e-10
1.27424e-07
1.01511e-09
1.27294e-07
1.24744e-09
1.27157e-07
1.50988e-09
1.27025e-07
1.75385e-09
1.26911e-07
2.00541e-09
1.26822e-07
2.22848e-09
1.26767e-07
2.46083e-09
2.64622e-09
1.38e-07
1.48123e-10
1.37951e-07
3.80937e-10
1.37872e-07
6.47209e-10
1.37769e-07
8.71919e-10
1.37654e-07
1.13073e-09
1.3753e-07
1.37098e-09
1.37408e-07
1.63225e-09
1.37294e-07
1.86764e-09
1.37208e-07
2.09167e-09
1.37145e-07
2.29111e-09
1.37117e-07
2.48864e-09
2.64616e-09
1.70995e-07
1.7173e-10
1.70931e-07
4.44617e-10
1.70836e-07
7.42236e-10
1.70716e-07
9.9161e-10
1.70586e-07
1.26134e-09
1.70453e-07
1.50431e-09
1.70328e-07
1.75661e-09
1.70223e-07
1.97267e-09
1.70143e-07
2.17193e-09
1.70086e-07
2.3481e-09
1.70058e-07
2.51605e-09
2.63385e-09
2.15441e-07
2.0006e-10
2.15362e-07
5.24306e-10
2.15248e-07
8.55985e-10
2.15113e-07
1.12659e-09
2.14972e-07
1.40255e-09
2.14835e-07
1.64089e-09
2.14714e-07
1.87824e-09
2.14625e-07
2.06136e-09
2.14548e-07
2.24849e-09
2.14505e-07
2.3919e-09
2.14496e-07
2.5247e-09
2.6033e-09
2.71445e-07
2.29862e-10
2.71362e-07
6.07138e-10
2.71244e-07
9.74165e-10
2.71108e-07
1.26222e-09
2.7097e-07
1.54118e-09
2.70848e-07
1.76285e-09
2.70756e-07
1.97001e-09
2.70674e-07
2.14372e-09
2.70613e-07
2.30919e-09
2.70584e-07
2.4209e-09
2.70589e-07
2.51982e-09
2.5583e-09
3.42018e-07
3.41965e-07
3.4189e-07
3.41804e-07
3.41719e-07
3.41665e-07
3.41615e-07
3.4158e-07
3.41559e-07
3.41557e-07
3.41572e-07
)
;

boundaryField
{
    top
    {
        type            calculated;
        value           nonuniform List<scalar> 
62
(
2.14972e-09
2.30952e-09
2.48242e-09
2.66983e-09
2.87054e-09
3.06922e-09
3.26023e-09
3.41806e-09
3.56021e-09
3.66269e-09
3.75322e-09
3.79939e-09
3.83579e-09
3.83484e-09
3.82519e-09
3.7875e-09
3.74164e-09
3.67654e-09
3.60835e-09
3.52145e-09
3.44614e-09
3.35086e-09
3.27754e-09
3.18689e-09
3.12189e-09
3.05071e-09
3.00246e-09
2.94787e-09
2.90874e-09
2.85989e-09
2.82658e-09
2.77941e-09
2.74898e-09
2.70406e-09
2.67698e-09
2.63463e-09
2.61624e-09
2.57121e-09
2.56313e-09
2.52015e-09
2.51231e-09
2.48774e-09
2.47089e-09
2.46663e-09
2.46009e-09
2.44464e-09
2.46756e-09
2.45081e-09
2.47603e-09
2.47815e-09
2.48687e-10
6.59748e-10
1.04978e-09
1.34787e-09
1.62606e-09
1.81715e-09
2.01962e-09
2.17889e-09
2.32996e-09
2.42386e-09
2.50407e-09
2.52031e-09
)
;
    }
    inlet
    {
        type            calculated;
        value           nonuniform List<scalar> 
14
(
-1.71018e-07
-2.1547e-07
-2.71475e-07
-3.42037e-07
-6.90099e-08
-7.45348e-08
-8.05021e-08
-8.6947e-08
-9.3908e-08
-1.01426e-07
-1.09546e-07
-1.18317e-07
-1.27789e-07
-1.3802e-07
)
;
    }
    outlet
    {
        type            calculated;
        value           nonuniform List<scalar> 
14
(
1.71611e-07
2.16113e-07
2.72093e-07
3.42401e-07
7.79701e-09
2.61191e-08
4.74743e-08
6.87281e-08
8.61046e-08
9.90059e-08
1.09232e-07
1.18643e-07
1.28274e-07
1.3854e-07
)
;
    }
    plate
    {
        type            calculated;
        value           uniform 0;
    }
    symmBound
    {
        type            calculated;
        value           nonuniform List<scalar> 
12
(
1.04958e-10
-8.77123e-13
-6.48513e-11
-4.80881e-11
-1.38367e-10
-7.40335e-11
-1.91893e-10
-1.12736e-10
-2.6245e-10
-2.22572e-10
-5.01423e-10
-6.94863e-10
)
;
    }
    frontAndBack
    {
        type            empty;
        value           nonuniform 0();
    }
}


// ************************************************************************* //
