/*--------------------------------*- C++ -*----------------------------------*\
| =========                 |                                                 |
| \\      /  F ield         | OpenFOAM: The Open Source CFD Toolbox           |
|  \\    /   O peration     | Version:  2.3.0                                 |
|   \\  /    A nd           | Web:      www.OpenFOAM.org                      |
|    \\/     M anipulation  |                                                 |
\*---------------------------------------------------------------------------*/
FoamFile
{
    version     2.0;
    format      ascii;
    class       surfaceScalarField;
    location    "0.85";
    object      phi_0;
}
// * * * * * * * * * * * * * * * * * * * * * * * * * * * * * * * * * * * * * //

dimensions      [0 3 -1 0 0 0 0];

internalField   nonuniform List<scalar> 
1660
(
6.34757e-08
2.71452e-09
-6.61902e-08
5.97942e-08
3.68145e-09
5.58184e-08
3.97586e-09
5.18723e-08
3.94609e-09
4.79747e-08
3.89754e-09
4.40859e-08
3.88885e-09
4.02082e-08
3.87774e-09
3.63799e-08
3.82821e-09
3.26658e-08
3.71411e-09
2.91448e-08
3.52105e-09
2.59024e-08
3.24243e-09
2.30043e-08
2.89801e-09
2.05109e-08
2.49342e-09
1.84586e-08
2.05236e-09
1.68409e-08
1.61767e-09
1.5613e-08
1.22785e-09
1.47037e-08
9.09361e-10
1.40372e-08
6.6644e-10
1.35448e-08
4.92442e-10
1.31686e-08
3.76211e-10
1.28681e-08
3.00527e-10
1.26108e-08
2.5722e-10
1.23739e-08
2.36962e-10
1.21444e-08
2.29485e-10
1.19153e-08
2.29118e-10
1.16855e-08
2.2979e-10
1.14546e-08
2.30856e-10
1.12251e-08
2.29551e-10
1.09988e-08
2.2632e-10
1.07771e-08
2.21633e-10
1.05624e-08
2.14677e-10
1.03556e-08
2.0686e-10
1.01564e-08
1.99149e-10
9.96767e-09
1.88771e-10
9.7861e-09
1.81567e-10
9.61423e-09
1.71875e-10
9.45123e-09
1.62995e-10
9.29376e-09
1.57476e-10
9.14606e-09
1.47694e-10
9.0033e-09
1.42766e-10
8.86581e-09
1.37487e-10
8.73643e-09
1.29382e-10
8.60891e-09
1.27518e-10
8.487e-09
1.21909e-10
8.36985e-09
1.17153e-10
8.25306e-09
1.16791e-10
8.14094e-09
1.12115e-10
8.02953e-09
1.11412e-10
7.91965e-09
1.09883e-10
1.21353e-10
7.27388e-08
2.50278e-09
-7.2527e-08
7.28649e-08
3.55527e-09
7.25312e-08
4.30957e-09
7.18542e-08
4.62309e-09
7.09868e-08
4.76493e-09
6.99735e-08
4.90221e-09
6.87799e-08
5.07135e-09
6.7387e-08
5.22109e-09
6.5812e-08
5.28908e-09
6.40868e-08
5.24624e-09
6.22409e-08
5.08838e-09
6.03153e-08
4.82356e-09
5.83507e-08
4.45809e-09
5.63926e-08
4.01044e-09
5.44836e-08
3.52669e-09
5.26604e-08
3.05099e-09
5.09412e-08
2.62861e-09
4.93325e-08
2.2751e-09
4.78281e-08
1.99691e-09
4.64162e-08
1.78808e-09
4.50976e-08
1.61907e-09
4.38642e-08
1.49071e-09
4.27045e-08
1.39659e-09
4.16128e-08
1.3212e-09
4.05801e-08
1.26185e-09
3.96038e-08
1.20604e-09
3.86768e-08
1.15793e-09
3.77985e-08
1.10782e-09
3.69627e-08
1.06208e-09
3.61701e-08
1.01422e-09
3.54151e-08
9.69666e-10
3.46997e-08
9.22294e-10
3.40169e-08
8.81999e-10
3.33714e-08
8.34214e-10
3.27536e-08
7.99429e-10
3.21697e-08
7.55715e-10
3.16105e-08
7.22223e-10
3.10796e-08
6.88363e-10
3.05707e-08
6.56609e-10
3.00873e-08
6.26148e-10
2.96196e-08
6.05182e-10
2.91784e-08
5.70606e-10
2.87467e-08
5.59222e-10
2.83391e-08
5.29514e-10
2.79396e-08
5.16656e-10
2.75592e-08
4.97133e-10
2.71845e-08
4.86852e-10
2.68265e-08
4.69386e-10
2.64687e-08
4.67725e-10
4.67346e-10
7.87677e-08
2.47204e-09
-7.87369e-08
7.9085e-08
3.23789e-09
7.93632e-08
4.03144e-09
7.94917e-08
4.49457e-09
7.95133e-08
4.74336e-09
7.94963e-08
4.91917e-09
7.94565e-08
5.11116e-09
7.9363e-08
5.31455e-09
7.9184e-08
5.46811e-09
7.88982e-08
5.53202e-09
7.84995e-08
5.4871e-09
7.79866e-08
5.33644e-09
7.73595e-08
5.08522e-09
7.66292e-08
4.74078e-09
7.58124e-08
4.34345e-09
7.49371e-08
3.9263e-09
7.40238e-08
3.54187e-09
7.30942e-08
3.2047e-09
7.21535e-08
2.93759e-09
7.12159e-08
2.72577e-09
7.0274e-08
2.56089e-09
6.93362e-08
2.42854e-09
6.84004e-08
2.33242e-09
6.74718e-08
2.24977e-09
6.65456e-08
2.18809e-09
6.56278e-08
2.12385e-09
6.47118e-08
2.07388e-09
6.3807e-08
2.01261e-09
6.2905e-08
1.96404e-09
6.20174e-08
1.9019e-09
6.11353e-08
1.85175e-09
6.02701e-08
1.78751e-09
5.9413e-08
1.7391e-09
5.85763e-08
1.67091e-09
5.77479e-08
1.62785e-09
5.69446e-08
1.55898e-09
5.61489e-08
1.51793e-09
5.53803e-08
1.45694e-09
5.4621e-08
1.4159e-09
5.3888e-08
1.35917e-09
5.31654e-08
1.32773e-09
5.24708e-08
1.26522e-09
5.17825e-08
1.24759e-09
5.11268e-08
1.18522e-09
5.04728e-08
1.17057e-09
4.98505e-08
1.11945e-09
4.92302e-08
1.10714e-09
4.86379e-08
1.06172e-09
4.80423e-08
1.06332e-09
1.031e-09
8.53439e-08
2.47564e-09
-8.53475e-08
8.55125e-08
3.06931e-09
8.58066e-08
3.73729e-09
8.60614e-08
4.23978e-09
8.62355e-08
4.56924e-09
8.63803e-08
4.77437e-09
8.65507e-08
4.9408e-09
8.67485e-08
5.1167e-09
8.69425e-08
5.27417e-09
8.71087e-08
5.36576e-09
8.7223e-08
5.37287e-09
8.72771e-08
5.28228e-09
8.72562e-08
5.10616e-09
8.71565e-08
4.84044e-09
8.69738e-08
4.52621e-09
8.67236e-08
4.1765e-09
8.64144e-08
3.85106e-09
8.60692e-08
3.54992e-09
8.56934e-08
3.31339e-09
8.53023e-08
3.11682e-09
8.48895e-08
2.97373e-09
8.44638e-08
2.85416e-09
8.4022e-08
2.77426e-09
8.35726e-08
2.69917e-09
8.31071e-08
2.65357e-09
8.26353e-08
2.59564e-09
8.21451e-08
2.56413e-09
8.16484e-08
2.50929e-09
8.11322e-08
2.48029e-09
8.06087e-08
2.42539e-09
8.00679e-08
2.39247e-09
7.95209e-08
2.33457e-09
7.89575e-08
2.30251e-09
7.83923e-08
2.23606e-09
7.78083e-08
2.21192e-09
7.72285e-08
2.13877e-09
7.66306e-08
2.11579e-09
7.60365e-08
2.05101e-09
7.5432e-08
2.02039e-09
7.48275e-08
1.96373e-09
7.42161e-08
1.93913e-09
7.36101e-08
1.87122e-09
7.29912e-08
1.86646e-09
7.23865e-08
1.78998e-09
7.17686e-08
1.78843e-09
7.11619e-08
1.72618e-09
7.05486e-08
1.72036e-09
6.99442e-08
1.66616e-09
6.93313e-08
1.67626e-09
1.63052e-09
9.24373e-08
2.47263e-09
-9.24343e-08
9.25449e-08
2.96171e-09
9.27797e-08
3.50248e-09
9.30345e-08
3.98492e-09
9.3249e-08
4.35474e-09
9.34304e-08
4.59303e-09
9.36154e-08
4.75577e-09
9.38296e-08
4.90252e-09
9.40658e-08
5.03797e-09
9.43049e-08
5.12662e-09
9.45193e-08
5.1585e-09
9.47002e-08
5.10135e-09
9.48333e-08
4.97306e-09
9.49151e-08
4.75871e-09
9.4935e-08
4.50628e-09
9.49036e-08
4.20794e-09
9.48238e-08
3.93084e-09
9.4716e-08
3.65772e-09
9.45848e-08
3.44454e-09
9.4444e-08
3.25768e-09
9.42904e-08
3.1273e-09
9.41317e-08
3.01289e-09
9.39637e-08
2.94217e-09
9.37948e-08
2.86809e-09
9.36173e-08
2.83109e-09
9.34386e-08
2.77432e-09
9.32497e-08
2.7531e-09
9.30575e-08
2.70144e-09
9.28525e-08
2.68527e-09
9.26404e-08
2.63755e-09
9.2415e-08
2.61783e-09
9.21814e-08
2.56813e-09
9.19331e-08
2.5509e-09
9.1679e-08
2.4901e-09
9.14068e-08
2.48416e-09
9.11298e-08
2.4157e-09
9.08371e-08
2.40855e-09
9.05345e-08
2.3536e-09
9.02235e-08
2.33141e-09
8.98983e-08
2.2889e-09
8.95645e-08
2.27289e-09
8.92215e-08
2.2143e-09
8.88637e-08
2.2242e-09
8.85003e-08
2.15342e-09
8.81253e-08
2.16341e-09
8.77385e-08
2.11295e-09
8.73466e-08
2.11233e-09
8.69412e-08
2.07151e-09
8.65299e-08
2.08757e-09
2.05357e-09
1.00077e-07
2.45952e-09
-1.00064e-07
1.00161e-07
2.87737e-09
1.00342e-07
3.32199e-09
1.00571e-07
3.75558e-09
1.00797e-07
4.12937e-09
1.01e-07
4.38948e-09
1.01187e-07
4.56843e-09
1.01389e-07
4.70097e-09
1.01609e-07
4.81825e-09
1.0184e-07
4.89523e-09
1.02059e-07
4.93965e-09
1.02253e-07
4.90692e-09
1.02411e-07
4.81579e-09
1.02526e-07
4.64317e-09
1.02592e-07
4.44031e-09
1.02614e-07
4.18569e-09
1.02596e-07
3.94891e-09
1.02553e-07
3.70059e-09
1.02494e-07
3.50449e-09
1.02426e-07
3.32518e-09
1.02354e-07
3.1997e-09
1.02281e-07
3.08598e-09
1.02206e-07
3.01627e-09
1.02134e-07
2.94018e-09
1.02064e-07
2.90186e-09
1.01995e-07
2.84327e-09
1.01926e-07
2.82184e-09
1.01858e-07
2.76895e-09
1.01789e-07
2.75459e-09
1.01716e-07
2.71041e-09
1.01642e-07
2.6925e-09
1.01561e-07
2.64863e-09
1.01476e-07
2.63556e-09
1.01388e-07
2.5787e-09
1.01292e-07
2.57945e-09
1.01191e-07
2.51705e-09
1.01087e-07
2.51305e-09
1.0097e-07
2.47054e-09
1.00854e-07
2.4469e-09
1.00725e-07
2.41832e-09
1.00593e-07
2.40439e-09
1.00451e-07
2.35646e-09
1.00303e-07
2.37191e-09
1.00143e-07
2.31396e-09
9.99803e-08
2.32599e-09
9.98005e-08
2.29273e-09
9.96204e-08
2.29248e-09
9.94223e-08
2.26958e-09
9.92223e-08
2.28755e-09
2.26898e-09
1.08313e-07
2.43985e-09
-1.08293e-07
1.08388e-07
2.80256e-09
1.08526e-07
3.18362e-09
1.08727e-07
3.55463e-09
1.08944e-07
3.9119e-09
1.09157e-07
4.17712e-09
1.09349e-07
4.37637e-09
1.09543e-07
4.50692e-09
1.09745e-07
4.61621e-09
1.09955e-07
4.6852e-09
1.10161e-07
4.73381e-09
1.1035e-07
4.71796e-09
1.10508e-07
4.65772e-09
1.10628e-07
4.52318e-09
1.10705e-07
4.36287e-09
1.10742e-07
4.14893e-09
1.10743e-07
3.94783e-09
1.10718e-07
3.72592e-09
1.10677e-07
3.54481e-09
1.10628e-07
3.37462e-09
1.10577e-07
3.25112e-09
1.10524e-07
3.13828e-09
1.10475e-07
3.06556e-09
1.10427e-07
2.98858e-09
1.10384e-07
2.94462e-09
1.10343e-07
2.88393e-09
1.10307e-07
2.85836e-09
1.10273e-07
2.80304e-09
1.10243e-07
2.7845e-09
1.1021e-07
2.74286e-09
1.10183e-07
2.71971e-09
1.10152e-07
2.67988e-09
1.10122e-07
2.66547e-09
1.1009e-07
2.61006e-09
1.10059e-07
2.61059e-09
1.10023e-07
2.55343e-09
1.09991e-07
2.54459e-09
1.0995e-07
2.51224e-09
1.09914e-07
2.48312e-09
1.0987e-07
2.46192e-09
1.09827e-07
2.44738e-09
1.09777e-07
2.40589e-09
1.09729e-07
2.42008e-09
1.0967e-07
2.37315e-09
1.09613e-07
2.38266e-09
1.09545e-07
2.36097e-09
1.09478e-07
2.3594e-09
1.09399e-07
2.34859e-09
1.0932e-07
2.36687e-09
2.35693e-09
1.17197e-07
2.41624e-09
-1.17173e-07
1.17264e-07
2.7351e-09
1.17381e-07
3.06717e-09
1.17548e-07
3.38779e-09
1.1775e-07
3.70993e-09
1.17956e-07
3.97057e-09
1.18154e-07
4.17909e-09
1.18341e-07
4.31905e-09
1.1853e-07
4.42756e-09
1.18719e-07
4.49614e-09
1.18909e-07
4.54437e-09
1.19086e-07
4.54046e-09
1.19239e-07
4.50481e-09
1.19358e-07
4.40388e-09
1.19441e-07
4.2805e-09
1.19485e-07
4.10441e-09
1.19497e-07
3.93566e-09
1.19482e-07
3.74171e-09
1.19451e-07
3.57575e-09
1.19409e-07
3.41638e-09
1.19365e-07
3.29505e-09
1.19319e-07
3.18387e-09
1.19277e-07
3.10744e-09
1.19236e-07
3.0302e-09
1.19199e-07
2.98097e-09
1.19165e-07
2.91789e-09
1.19136e-07
2.88809e-09
1.19108e-07
2.8308e-09
1.19086e-07
2.80638e-09
1.19062e-07
2.76657e-09
1.19045e-07
2.73715e-09
1.19026e-07
2.69892e-09
1.19009e-07
2.68284e-09
1.18991e-07
2.6272e-09
1.18977e-07
2.62543e-09
1.18957e-07
2.57249e-09
1.18945e-07
2.55732e-09
1.18926e-07
2.53096e-09
1.18911e-07
2.49844e-09
1.18894e-07
2.47856e-09
1.18877e-07
2.464e-09
1.18858e-07
2.42547e-09
1.18841e-07
2.43665e-09
1.18818e-07
2.3968e-09
1.18797e-07
2.40379e-09
1.1877e-07
2.38781e-09
1.18743e-07
2.38599e-09
1.18711e-07
2.38062e-09
1.18679e-07
2.39931e-09
2.39291e-09
1.26784e-07
2.38814e-09
-1.26756e-07
1.26845e-07
2.67372e-09
1.26946e-07
2.96649e-09
1.27087e-07
3.2471e-09
1.27266e-07
3.53035e-09
1.2746e-07
3.77669e-09
1.27654e-07
3.98576e-09
1.27837e-07
4.13514e-09
1.28014e-07
4.25122e-09
1.28186e-07
4.32385e-09
1.28358e-07
4.37276e-09
1.2852e-07
4.37819e-09
1.28663e-07
4.3615e-09
1.28779e-07
4.28827e-09
1.28863e-07
4.19607e-09
1.28914e-07
4.05422e-09
1.28934e-07
3.91472e-09
1.28928e-07
3.74843e-09
1.28904e-07
3.59927e-09
1.28869e-07
3.45131e-09
1.28831e-07
3.33368e-09
1.2879e-07
3.22439e-09
1.28752e-07
3.14537e-09
1.28715e-07
3.06716e-09
1.28682e-07
3.01461e-09
1.28651e-07
2.94896e-09
1.28623e-07
2.91536e-09
1.28597e-07
2.85704e-09
1.28576e-07
2.82721e-09
1.28555e-07
2.78757e-09
1.28538e-07
2.754e-09
1.28522e-07
2.71492e-09
1.28508e-07
2.69763e-09
1.28493e-07
2.64182e-09
1.28481e-07
2.63698e-09
1.28467e-07
2.58713e-09
1.28456e-07
2.56764e-09
1.28444e-07
2.54292e-09
1.28432e-07
2.5104e-09
1.28422e-07
2.48862e-09
1.28411e-07
2.47497e-09
1.28399e-07
2.43768e-09
1.2839e-07
2.44612e-09
1.28375e-07
2.41118e-09
1.28363e-07
2.41621e-09
1.28348e-07
2.40295e-09
1.28331e-07
2.40267e-09
1.28314e-07
2.39817e-09
1.28295e-07
2.41804e-09
2.4135e-09
1.37135e-07
2.37022e-09
-1.37117e-07
1.37185e-07
2.62439e-09
1.37273e-07
2.87857e-09
1.37395e-07
3.12449e-09
1.3755e-07
3.37517e-09
1.37728e-07
3.59931e-09
1.37909e-07
3.80482e-09
1.38084e-07
3.96025e-09
1.3825e-07
4.08535e-09
1.38408e-07
4.16517e-09
1.38562e-07
4.21931e-09
1.38707e-07
4.23303e-09
1.38837e-07
4.23105e-09
1.38946e-07
4.17964e-09
1.39029e-07
4.11276e-09
1.39083e-07
4.00058e-09
1.39111e-07
3.88689e-09
1.39113e-07
3.74641e-09
1.39097e-07
3.61541e-09
1.39068e-07
3.47964e-09
1.39035e-07
3.36716e-09
1.38999e-07
3.25965e-09
1.38965e-07
3.17982e-09
1.38932e-07
3.09968e-09
1.38902e-07
3.04516e-09
1.38874e-07
2.97738e-09
1.38849e-07
2.9401e-09
1.38824e-07
2.88155e-09
1.38804e-07
2.84757e-09
1.38785e-07
2.80637e-09
1.38768e-07
2.77107e-09
1.38753e-07
2.72989e-09
1.3874e-07
2.71098e-09
1.38725e-07
2.65602e-09
1.38715e-07
2.64763e-09
1.38702e-07
2.59977e-09
1.38691e-07
2.57835e-09
1.38682e-07
2.55221e-09
1.3867e-07
2.52211e-09
1.38662e-07
2.49694e-09
1.38652e-07
2.48479e-09
1.38642e-07
2.4485e-09
1.38634e-07
2.4538e-09
1.38621e-07
2.42371e-09
1.38611e-07
2.42663e-09
1.38599e-07
2.4148e-09
1.38584e-07
2.41763e-09
1.38571e-07
2.41135e-09
1.38556e-07
2.43291e-09
2.43006e-09
1.70115e-07
2.32622e-09
-1.70071e-07
1.70184e-07
2.55508e-09
1.70283e-07
2.77962e-09
1.70411e-07
2.99703e-09
1.70566e-07
3.21948e-09
1.70742e-07
3.42382e-09
1.70928e-07
3.61824e-09
1.71108e-07
3.78045e-09
1.71279e-07
3.91443e-09
1.71441e-07
4.003e-09
1.71593e-07
4.06714e-09
1.71736e-07
4.09006e-09
1.71866e-07
4.101e-09
1.71978e-07
4.06826e-09
1.72067e-07
4.02358e-09
1.72128e-07
3.93917e-09
1.72165e-07
3.85027e-09
1.72176e-07
3.73573e-09
1.72166e-07
3.62486e-09
1.72142e-07
3.5039e-09
1.7211e-07
3.39922e-09
1.72077e-07
3.29278e-09
1.72043e-07
3.21346e-09
1.72012e-07
3.13056e-09
1.71983e-07
3.07444e-09
1.71955e-07
3.0053e-09
1.71931e-07
2.96426e-09
1.71906e-07
2.90626e-09
1.71885e-07
2.86915e-09
1.71866e-07
2.82528e-09
1.71847e-07
2.78974e-09
1.71831e-07
2.74601e-09
1.71817e-07
2.72452e-09
1.71802e-07
2.67149e-09
1.71791e-07
2.65854e-09
1.71778e-07
2.61235e-09
1.71766e-07
2.59056e-09
1.71758e-07
2.56048e-09
1.71745e-07
2.53506e-09
1.71737e-07
2.50534e-09
1.71726e-07
2.49491e-09
1.71715e-07
2.46023e-09
1.71707e-07
2.46119e-09
1.71694e-07
2.43754e-09
1.71683e-07
2.43728e-09
1.71672e-07
2.426e-09
1.71655e-07
2.43394e-09
1.71643e-07
2.42418e-09
1.71628e-07
2.44741e-09
2.44677e-09
2.14583e-07
2.26988e-09
-2.14527e-07
2.14669e-07
2.4694e-09
2.14782e-07
2.66646e-09
2.14916e-07
2.86246e-09
2.1507e-07
3.06538e-09
2.15237e-07
3.25771e-09
2.1541e-07
3.44475e-09
2.15581e-07
3.60928e-09
2.15745e-07
3.75044e-09
2.15901e-07
3.84701e-09
2.16045e-07
3.92353e-09
2.16178e-07
3.9569e-09
2.163e-07
3.97949e-09
2.16406e-07
3.96189e-09
2.16494e-07
3.93504e-09
2.1656e-07
3.87402e-09
2.16603e-07
3.80682e-09
2.16623e-07
3.71607e-09
2.16622e-07
3.62537e-09
2.16606e-07
3.51963e-09
2.16579e-07
3.4269e-09
2.16548e-07
3.32328e-09
2.16518e-07
3.24389e-09
2.1649e-07
3.15791e-09
2.16465e-07
3.09974e-09
2.16441e-07
3.02986e-09
2.16419e-07
2.98544e-09
2.16397e-07
2.92844e-09
2.16377e-07
2.88964e-09
2.16359e-07
2.84307e-09
2.16341e-07
2.80817e-09
2.16324e-07
2.76217e-09
2.16312e-07
2.73728e-09
2.16296e-07
2.68714e-09
2.16286e-07
2.66859e-09
2.16274e-07
2.62399e-09
2.16262e-07
2.603e-09
2.16255e-07
2.56722e-09
2.16242e-07
2.54843e-09
2.16234e-07
2.51301e-09
2.16224e-07
2.50448e-09
2.16212e-07
2.47268e-09
2.16206e-07
2.46723e-09
2.16192e-07
2.45158e-09
2.16181e-07
2.44821e-09
2.16171e-07
2.43598e-09
2.16155e-07
2.45004e-09
2.16142e-07
2.43674e-09
2.16129e-07
2.46053e-09
2.46304e-09
2.70705e-07
2.19901e-09
-2.70634e-07
2.70803e-07
2.37126e-09
2.70921e-07
2.54923e-09
2.71048e-07
2.7351e-09
2.71182e-07
2.9317e-09
2.71316e-07
3.12337e-09
2.71448e-07
3.313e-09
2.71581e-07
3.4759e-09
2.71713e-07
3.61847e-09
2.7184e-07
3.7202e-09
2.71956e-07
3.80692e-09
2.72064e-07
3.84923e-09
2.72162e-07
3.88144e-09
2.72249e-07
3.87517e-09
2.72323e-07
3.86067e-09
2.72381e-07
3.81603e-09
2.72424e-07
3.76429e-09
2.72448e-07
3.69161e-09
2.72457e-07
3.61677e-09
2.72452e-07
3.52422e-09
2.72436e-07
3.44311e-09
2.72414e-07
3.34483e-09
2.7239e-07
3.26887e-09
2.72369e-07
3.17832e-09
2.72352e-07
3.11658e-09
2.72336e-07
3.04621e-09
2.72322e-07
2.99938e-09
2.72307e-07
2.94378e-09
2.72292e-07
2.90454e-09
2.72279e-07
2.85618e-09
2.72265e-07
2.82228e-09
2.72252e-07
2.77517e-09
2.72242e-07
2.74648e-09
2.7223e-07
2.69969e-09
2.72223e-07
2.67547e-09
2.72215e-07
2.63234e-09
2.72205e-07
2.61276e-09
2.72201e-07
2.57095e-09
2.7219e-07
2.55928e-09
2.72185e-07
2.51848e-09
2.72178e-07
2.51103e-09
2.72168e-07
2.48327e-09
2.72164e-07
2.47103e-09
2.72153e-07
2.46268e-09
2.72144e-07
2.45653e-09
2.72137e-07
2.44334e-09
2.72124e-07
2.46286e-09
2.72115e-07
2.44623e-09
2.72104e-07
2.4713e-09
2.47427e-09
3.4166e-07
-3.41611e-07
3.41721e-07
3.41788e-07
3.41853e-07
3.41914e-07
3.41968e-07
3.42021e-07
3.42078e-07
3.42137e-07
3.42194e-07
3.42248e-07
3.42298e-07
3.42343e-07
3.42384e-07
3.42419e-07
3.42448e-07
3.42471e-07
3.42486e-07
3.42495e-07
3.42498e-07
3.42495e-07
3.42489e-07
3.4248e-07
3.42472e-07
3.42467e-07
3.42462e-07
3.42459e-07
3.42455e-07
3.42451e-07
3.42447e-07
3.42443e-07
3.42439e-07
3.42437e-07
3.42433e-07
3.42432e-07
3.4243e-07
3.42427e-07
3.42428e-07
3.42425e-07
3.42424e-07
3.42423e-07
3.4242e-07
3.42421e-07
3.42417e-07
3.42415e-07
3.42414e-07
3.4241e-07
3.42407e-07
3.42403e-07
6.90543e-08
-1.49199e-10
6.90452e-08
1.05177e-11
6.89745e-08
1.34909e-10
6.89118e-08
1.10077e-10
6.88254e-08
2.24164e-10
6.874e-08
1.58936e-10
6.86264e-08
3.04959e-10
6.84952e-08
2.43619e-10
6.82632e-08
4.94217e-10
6.79332e-08
5.52712e-10
6.72713e-08
1.16353e-09
1.77621e-09
7.44567e-08
-7.10326e-11
7.4491e-08
-2.38584e-11
7.44105e-08
2.1548e-10
7.43773e-08
1.43262e-10
7.42631e-08
3.38386e-10
7.41828e-08
2.39198e-10
7.40236e-08
4.64148e-10
7.38624e-08
4.04785e-10
7.36003e-08
7.56362e-10
7.32329e-08
9.20075e-10
7.28102e-08
1.5863e-09
2.05936e-09
8.04279e-08
3.13485e-12
8.0414e-08
-9.95253e-12
8.03795e-08
2.49923e-10
8.02997e-08
2.23089e-10
8.02302e-08
4.0788e-10
8.00794e-08
3.89991e-10
7.99694e-08
5.74216e-10
7.97088e-08
6.65303e-10
7.95088e-08
9.56404e-10
7.91472e-08
1.2817e-09
7.89698e-08
1.76371e-09
2.29218e-09
8.69118e-08
3.84196e-11
8.68484e-08
5.33643e-11
8.68383e-08
2.60081e-10
8.67417e-08
3.19667e-10
8.66744e-08
4.75145e-10
8.65134e-08
5.51031e-10
8.63709e-08
7.16741e-10
8.6137e-08
8.99184e-10
8.59163e-08
1.17706e-09
8.56604e-08
1.53767e-09
8.54895e-08
1.93457e-09
2.4342e-09
9.38885e-08
5.78834e-11
9.38169e-08
1.24946e-10
9.37916e-08
2.85379e-10
9.37049e-08
4.06371e-10
9.36174e-08
5.62654e-10
9.3466e-08
7.02505e-10
9.32976e-08
8.85059e-10
9.3091e-08
1.10587e-09
9.28788e-08
1.38926e-09
9.26836e-08
1.73279e-09
9.25193e-08
2.09895e-09
2.51919e-09
1.0141e-07
7.45922e-11
1.01349e-07
1.85773e-10
1.01296e-07
3.38445e-10
1.01215e-07
4.86533e-10
1.01111e-07
6.6717e-10
1.00969e-07
8.44852e-10
1.00796e-07
1.05806e-09
1.00607e-07
1.29491e-09
1.00415e-07
1.58129e-09
1.00254e-07
1.8938e-09
1.00121e-07
2.23194e-09
2.57584e-09
1.09529e-07
9.16776e-11
1.09478e-07
2.3739e-10
1.09407e-07
4.08911e-10
1.09321e-07
5.73255e-10
1.09207e-07
7.80228e-10
1.0907e-07
9.82391e-10
1.08906e-07
1.22228e-09
1.08733e-07
1.46728e-09
1.08566e-07
1.74911e-09
1.08431e-07
2.0286e-09
1.08331e-07
2.33163e-09
2.61373e-09
1.18299e-07
1.09626e-10
1.18252e-07
2.84414e-10
1.18173e-07
4.88067e-10
1.18077e-07
6.68664e-10
1.1796e-07
8.97073e-10
1.17826e-07
1.11679e-09
1.17675e-07
1.37295e-09
1.17522e-07
1.62044e-09
1.1738e-07
1.89085e-09
1.17269e-07
2.13982e-09
1.17196e-07
2.40517e-09
2.6359e-09
1.2777e-07
1.28432e-10
1.27723e-07
3.31718e-10
1.27643e-07
5.68456e-10
1.27542e-07
7.69433e-10
1.27424e-07
1.0148e-09
1.27294e-07
1.24694e-09
1.27157e-07
1.50947e-09
1.27025e-07
1.7532e-09
1.26911e-07
2.00487e-09
1.26822e-07
2.22823e-09
1.26767e-07
2.46084e-09
2.64654e-09
1.38e-07
1.4805e-10
1.37951e-07
3.81346e-10
1.37872e-07
6.47483e-10
1.37769e-07
8.71544e-10
1.37654e-07
1.13037e-09
1.3753e-07
1.37048e-09
1.37408e-07
1.63183e-09
1.37294e-07
1.86713e-09
1.37208e-07
2.09115e-09
1.37145e-07
2.29085e-09
1.37117e-07
2.48866e-09
2.6464e-09
1.70995e-07
1.71646e-10
1.70931e-07
4.44985e-10
1.70836e-07
7.42615e-10
1.70716e-07
9.91191e-10
1.70586e-07
1.26092e-09
1.70453e-07
1.50382e-09
1.70328e-07
1.75615e-09
1.70223e-07
1.97229e-09
1.70143e-07
2.17146e-09
1.70086e-07
2.34787e-09
1.70058e-07
2.51606e-09
2.63392e-09
2.15441e-07
1.99971e-10
2.15362e-07
5.24639e-10
2.15248e-07
8.56383e-10
2.15113e-07
1.12612e-09
2.14972e-07
1.40206e-09
2.14835e-07
1.64038e-09
2.14714e-07
1.87769e-09
2.14625e-07
2.06108e-09
2.14548e-07
2.24806e-09
2.14505e-07
2.39171e-09
2.14496e-07
2.52476e-09
2.60321e-09
2.71445e-07
2.29765e-10
2.71362e-07
6.07451e-10
2.71244e-07
9.74469e-10
2.71109e-07
1.26168e-09
2.7097e-07
1.5406e-09
2.70848e-07
1.76229e-09
2.70757e-07
1.96933e-09
2.70674e-07
2.14347e-09
2.70613e-07
2.30876e-09
2.70584e-07
2.42069e-09
2.70589e-07
2.51995e-09
2.55815e-09
3.42018e-07
3.41966e-07
3.4189e-07
3.41805e-07
3.4172e-07
3.41666e-07
3.41616e-07
3.41581e-07
3.4156e-07
3.41557e-07
3.41573e-07
)
;

boundaryField
{
    top
    {
        type            calculated;
        value           nonuniform List<scalar> 
62
(
2.15002e-09
2.3097e-09
2.48272e-09
2.67004e-09
2.87067e-09
3.06943e-09
3.26019e-09
3.41826e-09
3.56017e-09
3.66288e-09
3.75331e-09
3.79927e-09
3.83593e-09
3.8346e-09
3.82524e-09
3.78719e-09
3.74152e-09
3.67646e-09
3.60796e-09
3.52144e-09
3.44586e-09
3.35072e-09
3.27743e-09
3.18662e-09
3.12197e-09
3.05052e-09
3.00263e-09
2.9479e-09
2.90884e-09
2.85996e-09
2.82648e-09
2.77922e-09
2.74857e-09
2.70356e-09
2.67634e-09
2.63409e-09
2.61538e-09
2.5705e-09
2.56232e-09
2.51902e-09
2.512e-09
2.48646e-09
2.47062e-09
2.46628e-09
2.45869e-09
2.44442e-09
2.46643e-09
2.44919e-09
2.47499e-09
2.47654e-09
2.48575e-10
6.60027e-10
1.04995e-09
1.34722e-09
1.62537e-09
1.81648e-09
2.01883e-09
2.1786e-09
2.32949e-09
2.42363e-09
2.50425e-09
2.52024e-09
)
;
    }
    inlet
    {
        type            calculated;
        value           nonuniform List<scalar> 
14
(
-1.71018e-07
-2.1547e-07
-2.71475e-07
-3.42037e-07
-6.90099e-08
-7.45348e-08
-8.05021e-08
-8.6947e-08
-9.3908e-08
-1.01426e-07
-1.09546e-07
-1.18317e-07
-1.27789e-07
-1.3802e-07
)
;
    }
    outlet
    {
        type            calculated;
        value           nonuniform List<scalar> 
14
(
1.71611e-07
2.16113e-07
2.72093e-07
3.42401e-07
7.79829e-09
2.61227e-08
4.74787e-08
6.87317e-08
8.61069e-08
9.90069e-08
1.09232e-07
1.18643e-07
1.28274e-07
1.38539e-07
)
;
    }
    plate
    {
        type            calculated;
        value           uniform 0;
    }
    symmBound
    {
        type            calculated;
        value           nonuniform List<scalar> 
12
(
1.04814e-10
-1.44568e-12
-6.41739e-11
-4.73831e-11
-1.3774e-10
-7.35277e-11
-1.91403e-10
-1.12371e-10
-2.62265e-10
-2.22732e-10
-5.01634e-10
-6.95093e-10
)
;
    }
    frontAndBack
    {
        type            empty;
        value           nonuniform 0();
    }
}


// ************************************************************************* //
