/*--------------------------------*- C++ -*----------------------------------*\
| =========                 |                                                 |
| \\      /  F ield         | OpenFOAM: The Open Source CFD Toolbox           |
|  \\    /   O peration     | Version:  2.3.0                                 |
|   \\  /    A nd           | Web:      www.OpenFOAM.org                      |
|    \\/     M anipulation  |                                                 |
\*---------------------------------------------------------------------------*/
FoamFile
{
    version     2.0;
    format      ascii;
    class       surfaceScalarField;
    location    "0.9";
    object      phi;
}
// * * * * * * * * * * * * * * * * * * * * * * * * * * * * * * * * * * * * * //

dimensions      [0 3 -1 0 0 0 0];

internalField   nonuniform List<scalar> 
5764
(
1.93876e-08
4.30176e-09
-2.36894e-08
1.56081e-08
3.77951e-09
1.25104e-08
3.09769e-09
1.0082e-08
2.42839e-09
8.25956e-09
1.82248e-09
6.94059e-09
1.31898e-09
6.00629e-09
9.34291e-10
5.34519e-09
6.61106e-10
4.86725e-09
4.77938e-10
4.50775e-09
3.59498e-10
4.22425e-09
2.835e-10
3.99076e-09
2.33494e-10
3.79193e-09
1.98826e-10
3.6187e-09
1.73228e-10
3.46547e-09
1.53235e-10
3.32849e-09
1.36977e-10
3.20508e-09
1.23413e-10
3.09316e-09
1.11917e-10
2.99109e-09
1.02072e-10
2.89752e-09
9.35701e-11
2.81135e-09
8.61748e-11
2.73165e-09
7.9697e-11
2.65767e-09
7.39852e-11
2.58875e-09
6.89174e-11
2.52435e-09
6.4395e-11
2.46401e-09
6.03381e-11
2.40733e-09
5.66815e-11
2.35396e-09
5.33715e-11
2.3036e-09
5.03637e-11
2.25598e-09
4.7621e-11
2.21087e-09
4.51119e-11
2.16806e-09
4.281e-11
2.12736e-09
4.06926e-11
2.08862e-09
3.874e-11
2.05169e-09
3.69356e-11
2.01642e-09
3.52644e-11
1.98271e-09
3.37138e-11
1.95044e-09
3.22723e-11
1.91951e-09
3.09301e-11
1.88983e-09
2.96784e-11
1.86132e-09
2.85092e-11
1.8339e-09
2.74156e-11
1.80751e-09
2.63913e-11
1.78208e-09
2.54306e-11
1.75755e-09
2.45287e-11
1.73387e-09
2.36807e-11
1.71099e-09
2.28826e-11
1.68886e-09
2.21307e-11
1.66744e-09
2.14216e-11
1.64668e-09
2.07522e-11
1.62657e-09
2.01196e-11
1.60704e-09
1.95215e-11
1.58809e-09
1.89554e-11
1.56967e-09
1.84193e-11
1.55176e-09
1.79113e-11
1.53433e-09
1.74297e-11
1.51736e-09
1.6973e-11
1.50082e-09
1.65398e-11
1.48469e-09
1.6129e-11
1.46895e-09
1.57396e-11
1.45358e-09
1.53706e-11
1.43855e-09
1.50213e-11
1.42386e-09
1.46912e-11
1.40948e-09
1.43799e-11
1.3954e-09
1.40872e-11
1.38158e-09
1.38131e-11
1.36803e-09
1.35581e-11
1.3547e-09
1.33231e-11
1.34159e-09
1.31102e-11
1.32867e-09
1.29243e-11
1.3159e-09
1.27726e-11
1.30317e-09
1.2724e-11
1.29046e-09
1.27148e-11
1.27828e-09
1.21728e-11
4.58435e-11
2.5775e-08
5.22581e-09
-2.6699e-08
2.43375e-08
5.21697e-09
2.26915e-08
4.74368e-09
2.10161e-08
4.10375e-09
1.94197e-08
3.41895e-09
1.79617e-08
2.77698e-09
1.66646e-08
2.23135e-09
1.5528e-08
1.79771e-09
1.45394e-08
1.46653e-09
1.36812e-08
1.21769e-09
1.29346e-08
1.03011e-09
1.22818e-08
8.86299e-10
1.17072e-08
7.73441e-10
1.11976e-08
6.82772e-10
1.07424e-08
6.08444e-10
1.03329e-08
5.46526e-10
9.96201e-09
4.94286e-10
9.62417e-09
4.49755e-10
9.31479e-09
4.11454e-10
9.03011e-09
3.78246e-10
8.76705e-09
3.49241e-10
8.52301e-09
3.23729e-10
8.29585e-09
3.01147e-10
8.08373e-09
2.81038e-10
7.88509e-09
2.63036e-10
7.69859e-09
2.4684e-10
7.52307e-09
2.32203e-10
7.35752e-09
2.18921e-10
7.20106e-09
2.06826e-10
7.0529e-09
1.95772e-10
6.91238e-09
1.85641e-10
6.77886e-09
1.76328e-10
6.6518e-09
1.67746e-10
6.53073e-09
1.59819e-10
6.41518e-09
1.52479e-10
6.30477e-09
1.45671e-10
6.19914e-09
1.39344e-10
6.09796e-09
1.33453e-10
6.00093e-09
1.27959e-10
5.90778e-09
1.22828e-10
5.81827e-09
1.18028e-10
5.73215e-09
1.13532e-10
5.64923e-09
1.09315e-10
5.5693e-09
1.05355e-10
5.4922e-09
1.01632e-10
5.41775e-09
9.81271e-11
5.34581e-09
9.48244e-11
5.27623e-09
9.17089e-11
5.20889e-09
8.87669e-11
5.14365e-09
8.59862e-11
5.08042e-09
8.33555e-11
5.01907e-09
8.08645e-11
4.95952e-09
7.85041e-11
4.90168e-09
7.62657e-11
4.84545e-09
7.41416e-11
4.79075e-09
7.21249e-11
4.73752e-09
7.02094e-11
4.68567e-09
6.83894e-11
4.63514e-09
6.666e-11
4.58586e-09
6.50167e-11
4.53777e-09
6.34558e-11
4.49082e-09
6.19741e-11
4.44494e-09
6.0569e-11
4.40008e-09
5.92387e-11
4.35619e-09
5.79818e-11
4.3132e-09
5.67981e-11
4.27107e-09
5.56886e-11
4.22974e-09
5.46563e-11
4.18914e-09
5.37082e-11
4.14921e-09
5.28609e-11
4.10984e-09
5.21433e-11
4.07075e-09
5.18062e-11
4.03227e-09
5.1199e-11
3.98824e-09
5.61991e-11
1.25448e-10
2.80586e-08
5.20953e-09
-2.80423e-08
2.77531e-08
5.52248e-09
2.7176e-08
5.32083e-09
2.64083e-08
4.87141e-09
2.55251e-08
4.30212e-09
2.45906e-08
3.71156e-09
2.3651e-08
3.17094e-09
2.27355e-08
2.71318e-09
2.18604e-08
2.34162e-09
2.10335e-08
2.04463e-09
2.02573e-08
1.80633e-09
1.95313e-08
1.61221e-09
1.88538e-08
1.45101e-09
1.82218e-08
1.31474e-09
1.76324e-08
1.19786e-09
1.70824e-08
1.09652e-09
1.65688e-08
1.00794e-09
1.60885e-08
9.30009e-10
1.56389e-08
8.61088e-10
1.52173e-08
7.99841e-10
1.48213e-08
7.45169e-10
1.44489e-08
6.9616e-10
1.4098e-08
6.5205e-10
1.37668e-08
6.12196e-10
1.34538e-08
5.76057e-10
1.31575e-08
5.43176e-10
1.28765e-08
5.13162e-10
1.26098e-08
4.85684e-10
1.23561e-08
4.60457e-10
1.21147e-08
4.37237e-10
1.18845e-08
4.15813e-10
1.16648e-08
3.96001e-10
1.14549e-08
3.77642e-10
1.12542e-08
3.60596e-10
1.10619e-08
3.44741e-10
1.08776e-08
3.29967e-10
1.07008e-08
3.1618e-10
1.05309e-08
3.03294e-10
1.03676e-08
2.91233e-10
1.02105e-08
2.7993e-10
1.00592e-08
2.69322e-10
9.91342e-09
2.59357e-10
9.77276e-09
2.49982e-10
9.63696e-09
2.41155e-10
9.50576e-09
2.32834e-10
9.3789e-09
2.24982e-10
9.25616e-09
2.17565e-10
9.13732e-09
2.10553e-10
9.02217e-09
2.03917e-10
8.91052e-09
1.97632e-10
8.8022e-09
1.91674e-10
8.69705e-09
1.86021e-10
8.5949e-09
1.80655e-10
8.49561e-09
1.75556e-10
8.39904e-09
1.70709e-10
8.30507e-09
1.66098e-10
8.21357e-09
1.6171e-10
8.12442e-09
1.57533e-10
8.03753e-09
1.53556e-10
7.95277e-09
1.49769e-10
7.87006e-09
1.46164e-10
7.78931e-09
1.42733e-10
7.7104e-09
1.39471e-10
7.63327e-09
1.36372e-10
7.55782e-09
1.33435e-10
7.48396e-09
1.30657e-10
7.41161e-09
1.2804e-10
7.34067e-09
1.2559e-10
7.27106e-09
1.23321e-10
7.20266e-09
1.21265e-10
7.13531e-09
1.19493e-10
7.06869e-09
1.18428e-10
7.00253e-09
1.17355e-10
6.92807e-09
1.30662e-10
2.20107e-10
2.93298e-08
4.9494e-09
-2.90697e-08
2.9455e-08
5.39727e-09
2.94035e-08
5.37233e-09
2.91852e-08
5.08974e-09
2.8826e-08
4.66129e-09
2.83625e-08
4.17504e-09
2.78311e-08
3.70243e-09
2.72606e-08
3.28363e-09
2.66718e-08
2.93046e-09
2.60781e-08
2.63833e-09
2.5488e-08
2.39639e-09
2.49068e-08
2.19336e-09
2.43379e-08
2.01993e-09
2.37834e-08
1.86926e-09
2.32447e-08
1.73654e-09
2.27228e-08
1.61841e-09
2.22183e-08
1.51246e-09
2.17314e-08
1.41689e-09
2.12622e-08
1.33029e-09
2.08105e-08
1.25152e-09
2.03761e-08
1.17962e-09
1.99584e-08
1.11381e-09
1.95571e-08
1.0534e-09
1.91715e-08
9.97806e-10
1.8801e-08
9.46528e-10
1.84451e-08
8.99126e-10
1.8103e-08
8.55219e-10
1.77742e-08
8.14472e-10
1.74581e-08
7.76592e-10
1.7154e-08
7.41317e-10
1.68614e-08
7.08419e-10
1.65797e-08
6.77691e-10
1.63084e-08
6.48953e-10
1.60469e-08
6.22039e-10
1.57949e-08
5.96802e-10
1.55517e-08
5.73112e-10
1.53171e-08
5.50849e-10
1.50905e-08
5.29904e-10
1.48715e-08
5.1018e-10
1.46599e-08
4.91587e-10
1.44551e-08
4.74045e-10
1.4257e-08
4.57479e-10
1.40652e-08
4.41821e-10
1.38793e-08
4.2701e-10
1.36992e-08
4.12987e-10
1.35244e-08
3.99701e-10
1.33549e-08
3.87103e-10
1.31903e-08
3.75147e-10
1.30304e-08
3.63794e-10
1.28751e-08
3.53005e-10
1.2724e-08
3.42744e-10
1.2577e-08
3.3298e-10
1.2434e-08
3.23682e-10
1.22947e-08
3.14823e-10
1.21591e-08
3.06378e-10
1.20268e-08
2.98323e-10
1.18979e-08
2.90638e-10
1.17721e-08
2.83302e-10
1.16494e-08
2.76299e-10
1.15296e-08
2.69613e-10
1.14125e-08
2.6323e-10
1.12981e-08
2.5714e-10
1.11862e-08
2.51331e-10
1.10768e-08
2.45798e-10
1.09697e-08
2.40534e-10
1.08648e-08
2.35537e-10
1.07621e-08
2.3081e-10
1.06613e-08
2.26361e-10
1.05624e-08
2.22212e-10
1.04652e-08
2.18417e-10
1.03696e-08
2.15106e-10
1.02752e-08
2.1283e-10
1.01809e-08
2.11714e-10
1.00798e-08
2.31702e-10
3.26622e-10
3.03417e-08
4.65339e-09
-3.00457e-08
3.05987e-08
5.14025e-09
3.07584e-08
5.21268e-09
3.08058e-08
5.04237e-09
3.07408e-08
4.72623e-09
3.05778e-08
4.3381e-09
3.03383e-08
3.94193e-09
3.00435e-08
3.57836e-09
2.97106e-08
3.2634e-09
2.93517e-08
2.99723e-09
2.89752e-08
2.77288e-09
2.85868e-08
2.58179e-09
2.81903e-08
2.41637e-09
2.77888e-08
2.27077e-09
2.73846e-08
2.14077e-09
2.69796e-08
2.02339e-09
2.65756e-08
1.91652e-09
2.61739e-08
1.81858e-09
2.57758e-08
1.72838e-09
2.53824e-08
1.64497e-09
2.49944e-08
1.56757e-09
2.46127e-08
1.49554e-09
2.42377e-08
1.42835e-09
2.387e-08
1.36552e-09
2.35099e-08
1.30666e-09
2.31576e-08
1.25143e-09
2.28133e-08
1.19953e-09
2.2477e-08
1.15069e-09
2.2149e-08
1.10467e-09
2.1829e-08
1.06127e-09
2.15171e-08
1.0203e-09
2.12132e-08
9.81588e-10
2.09172e-08
9.44981e-10
2.06289e-08
9.10337e-10
2.03482e-08
8.77529e-10
2.00749e-08
8.46439e-10
1.98087e-08
8.16959e-10
1.95497e-08
7.88988e-10
1.92974e-08
7.62434e-10
1.90518e-08
7.37211e-10
1.88126e-08
7.1324e-10
1.85796e-08
6.90446e-10
1.83527e-08
6.6876e-10
1.81316e-08
6.48118e-10
1.79161e-08
6.28458e-10
1.77061e-08
6.09725e-10
1.75013e-08
5.91865e-10
1.73016e-08
5.7483e-10
1.71069e-08
5.58572e-10
1.69168e-08
5.4305e-10
1.67313e-08
5.28221e-10
1.65503e-08
5.14049e-10
1.63734e-08
5.00498e-10
1.62007e-08
4.87536e-10
1.6032e-08
4.7513e-10
1.58671e-08
4.63255e-10
1.57058e-08
4.51882e-10
1.55481e-08
4.40989e-10
1.53939e-08
4.30555e-10
1.52429e-08
4.20559e-10
1.50952e-08
4.10984e-10
1.49505e-08
4.01817e-10
1.48088e-08
3.93045e-10
1.46699e-08
3.84658e-10
1.45338e-08
3.76651e-10
1.44003e-08
3.69022e-10
1.42693e-08
3.61774e-10
1.41408e-08
3.54921e-10
1.40145e-08
3.48495e-10
1.38903e-08
3.42573e-10
1.37681e-08
3.3735e-10
1.36474e-08
3.33511e-10
1.35267e-08
3.32393e-10
1.34026e-08
3.55851e-10
4.43679e-10
3.13046e-08
4.37757e-09
-3.10287e-08
3.15838e-08
4.86106e-09
3.18097e-08
4.98668e-09
3.19634e-08
4.8887e-09
3.20368e-08
4.65285e-09
3.20331e-08
4.3418e-09
3.19642e-08
4.01083e-09
3.18444e-08
3.69818e-09
3.16862e-08
3.4216e-09
3.14991e-08
3.18427e-09
3.12899e-08
2.98212e-09
3.10629e-08
2.80876e-09
3.08213e-08
2.65799e-09
3.05673e-08
2.52476e-09
3.03028e-08
2.40531e-09
3.00292e-08
2.29691e-09
2.97482e-08
2.19759e-09
2.94608e-08
2.1059e-09
2.91685e-08
2.02074e-09
2.88722e-08
1.94125e-09
2.8573e-08
1.86675e-09
2.82719e-08
1.79668e-09
2.79697e-08
1.73058e-09
2.76671e-08
1.66807e-09
2.73649e-08
1.60884e-09
2.70637e-08
1.55261e-09
2.67641e-08
1.49915e-09
2.64666e-08
1.44825e-09
2.61715e-08
1.39975e-09
2.58793e-08
1.35349e-09
2.55902e-08
1.30933e-09
2.53047e-08
1.26715e-09
2.50228e-08
1.22684e-09
2.47448e-08
1.18831e-09
2.44709e-08
1.15144e-09
2.42012e-08
1.11618e-09
2.39357e-08
1.08242e-09
2.36746e-08
1.0501e-09
2.34179e-08
1.01916e-09
2.31656e-08
9.89511e-10
2.29177e-08
9.6111e-10
2.26743e-08
9.33891e-10
2.24352e-08
9.07801e-10
2.22006e-08
8.82787e-10
2.19702e-08
8.58797e-10
2.17442e-08
8.35785e-10
2.15223e-08
8.13704e-10
2.13046e-08
7.92512e-10
2.10911e-08
7.72166e-10
2.08815e-08
7.52628e-10
2.06758e-08
7.3386e-10
2.04741e-08
7.15827e-10
2.02761e-08
6.98495e-10
2.00818e-08
6.81833e-10
1.98911e-08
6.65811e-10
1.97039e-08
6.50402e-10
1.95202e-08
6.35579e-10
1.93399e-08
6.21319e-10
1.91629e-08
6.076e-10
1.8989e-08
5.94404e-10
1.88183e-08
5.81713e-10
1.86506e-08
5.69512e-10
1.84858e-08
5.57791e-10
1.8324e-08
5.4654e-10
1.81649e-08
5.35756e-10
1.80084e-08
5.2544e-10
1.78546e-08
5.15598e-10
1.77033e-08
5.0625e-10
1.75543e-08
4.97443e-10
1.74076e-08
4.89275e-10
1.7263e-08
4.8201e-10
1.712e-08
4.76472e-10
1.69774e-08
4.75044e-10
1.68347e-08
4.98503e-10
5.69579e-10
3.22764e-08
4.13251e-09
-3.20313e-08
3.2543e-08
4.59443e-09
3.27789e-08
4.75076e-09
3.29653e-08
4.70235e-09
3.30933e-08
4.52479e-09
3.31625e-08
4.27261e-09
3.31798e-08
3.99354e-09
3.31553e-08
3.72267e-09
3.30986e-08
3.47832e-09
3.30171e-08
3.26577e-09
3.29161e-08
3.08318e-09
3.27989e-08
2.92595e-09
3.26678e-08
2.7891e-09
3.25242e-08
2.66832e-09
3.23693e-08
2.56021e-09
3.2204e-08
2.46224e-09
3.2029e-08
2.37253e-09
3.18453e-08
2.28967e-09
3.16534e-08
2.21259e-09
3.14542e-08
2.14045e-09
3.12484e-08
2.07258e-09
3.10366e-08
2.00846e-09
3.08196e-08
1.94764e-09
3.05978e-08
1.88978e-09
3.03721e-08
1.83458e-09
3.01429e-08
1.7818e-09
2.99108e-08
1.73123e-09
2.96764e-08
1.6827e-09
2.94401e-08
1.63608e-09
2.92023e-08
1.59123e-09
2.89636e-08
1.54806e-09
2.87243e-08
1.50647e-09
2.84847e-08
1.46638e-09
2.82453e-08
1.42772e-09
2.80063e-08
1.39043e-09
2.77681e-08
1.35445e-09
2.75308e-08
1.31972e-09
2.72947e-08
1.2862e-09
2.706e-08
1.25384e-09
2.68269e-08
1.2226e-09
2.65955e-08
1.19244e-09
2.63661e-08
1.16331e-09
2.61387e-08
1.13519e-09
2.59135e-08
1.10802e-09
2.56905e-08
1.08179e-09
2.54698e-08
1.05645e-09
2.52516e-08
1.03197e-09
2.50358e-08
1.00832e-09
2.48225e-08
9.85479e-10
2.46117e-08
9.63404e-10
2.44035e-08
9.42071e-10
2.41978e-08
9.21454e-10
2.39948e-08
9.01525e-10
2.37944e-08
8.82259e-10
2.35966e-08
8.63634e-10
2.34013e-08
8.45627e-10
2.32087e-08
8.28216e-10
2.30186e-08
8.11384e-10
2.28311e-08
7.95112e-10
2.26461e-08
7.79385e-10
2.24637e-08
7.6419e-10
2.22837e-08
7.49517e-10
2.21061e-08
7.35358e-10
2.19309e-08
7.21709e-10
2.17581e-08
7.0857e-10
2.15876e-08
6.95946e-10
2.14194e-08
6.83853e-10
2.12533e-08
6.72319e-10
2.10893e-08
6.61401e-10
2.09274e-08
6.51228e-10
2.07673e-08
6.42115e-10
2.06087e-08
6.35008e-10
2.04509e-08
6.32865e-10
2.02961e-08
6.53315e-10
7.01357e-10
3.32723e-08
3.91673e-09
-3.30565e-08
3.35174e-08
4.34928e-09
3.37444e-08
4.52381e-09
3.39344e-08
4.51231e-09
3.40794e-08
4.37982e-09
3.41776e-08
4.17438e-09
3.42338e-08
3.9374e-09
3.42557e-08
3.70076e-09
3.42513e-08
3.48276e-09
3.42268e-08
3.29022e-09
3.41868e-08
3.12316e-09
3.41342e-08
2.97855e-09
3.40708e-08
2.85253e-09
3.39976e-08
2.7415e-09
3.39153e-08
2.64247e-09
3.38245e-08
2.55311e-09
3.37254e-08
2.47164e-09
3.36183e-08
2.39669e-09
3.35037e-08
2.32719e-09
3.33819e-08
2.26231e-09
3.32531e-08
2.20138e-09
3.31177e-08
2.14385e-09
3.2976e-08
2.08929e-09
3.28285e-08
2.03732e-09
3.26754e-08
1.98766e-09
3.25172e-08
1.94005e-09
3.23541e-08
1.8943e-09
3.21866e-08
1.85023e-09
3.20149e-08
1.80771e-09
3.18395e-08
1.76663e-09
3.16607e-08
1.72687e-09
3.14788e-08
1.68837e-09
3.12941e-08
1.65105e-09
3.1107e-08
1.61484e-09
3.09177e-08
1.57971e-09
3.07266e-08
1.5456e-09
3.05338e-08
1.51247e-09
3.03398e-08
1.48029e-09
3.01446e-08
1.44903e-09
2.99485e-08
1.41865e-09
2.97518e-08
1.38913e-09
2.95547e-08
1.36044e-09
2.93573e-08
1.33257e-09
2.91599e-08
1.30547e-09
2.89625e-08
1.27914e-09
2.87654e-08
1.25354e-09
2.85687e-08
1.22867e-09
2.83726e-08
1.20449e-09
2.8177e-08
1.181e-09
2.79823e-08
1.15816e-09
2.77884e-08
1.13596e-09
2.75955e-08
1.11438e-09
2.74036e-08
1.0934e-09
2.72128e-08
1.07301e-09
2.70233e-08
1.05319e-09
2.6835e-08
1.03392e-09
2.6648e-08
1.0152e-09
2.64624e-08
9.97004e-10
2.62782e-08
9.79325e-10
2.60954e-08
9.62155e-10
2.59141e-08
9.45485e-10
2.57343e-08
9.29312e-10
2.5556e-08
9.13634e-10
2.53793e-08
8.98453e-10
2.52041e-08
8.83776e-10
2.50304e-08
8.69616e-10
2.48583e-08
8.55994e-10
2.46876e-08
8.42952e-10
2.45185e-08
8.30559e-10
2.43507e-08
8.18967e-10
2.41843e-08
8.08529e-10
2.40191e-08
8.00244e-10
2.38548e-08
7.97117e-10
2.36957e-08
8.12427e-10
8.34811e-10
3.4296e-08
3.72626e-09
-3.41055e-08
3.45187e-08
4.12655e-09
3.47315e-08
4.3111e-09
3.49153e-08
4.32846e-09
3.50623e-08
4.23279e-09
3.51704e-08
4.0663e-09
3.52428e-08
3.86505e-09
3.52858e-08
3.65774e-09
3.53063e-08
3.46224e-09
3.53101e-08
3.28647e-09
3.53012e-08
3.13198e-09
3.52827e-08
2.99713e-09
3.5256e-08
2.87915e-09
3.52224e-08
2.77513e-09
3.51824e-08
2.68253e-09
3.51362e-08
2.59926e-09
3.50842e-08
2.52369e-09
3.50263e-08
2.4545e-09
3.49629e-08
2.39068e-09
3.48938e-08
2.33139e-09
3.48192e-08
2.27597e-09
3.47392e-08
2.22386e-09
3.46538e-08
2.17462e-09
3.45633e-08
2.12787e-09
3.44677e-08
2.0833e-09
3.43671e-08
2.04065e-09
3.42616e-08
1.99971e-09
3.41516e-08
1.96029e-09
3.4037e-08
1.92226e-09
3.39182e-08
1.88549e-09
3.37952e-08
1.84986e-09
3.36682e-08
1.8153e-09
3.35376e-08
1.78173e-09
3.34033e-08
1.74909e-09
3.32657e-08
1.71731e-09
3.31249e-08
1.68637e-09
3.29812e-08
1.65622e-09
3.28347e-08
1.62682e-09
3.26856e-08
1.59814e-09
3.2534e-08
1.57017e-09
3.23803e-08
1.54287e-09
3.22245e-08
1.51622e-09
3.20669e-08
1.49021e-09
3.19075e-08
1.46481e-09
3.17467e-08
1.44001e-09
3.15844e-08
1.41579e-09
3.1421e-08
1.39214e-09
3.12564e-08
1.36904e-09
3.10909e-08
1.34648e-09
3.09246e-08
1.32445e-09
3.07577e-08
1.30292e-09
3.05901e-08
1.2819e-09
3.04222e-08
1.26136e-09
3.02539e-08
1.24129e-09
3.00854e-08
1.22169e-09
2.99168e-08
1.20255e-09
2.97481e-08
1.18386e-09
2.95795e-08
1.1656e-09
2.94111e-08
1.14778e-09
2.92428e-08
1.1304e-09
2.90749e-08
1.11344e-09
2.89073e-08
1.09692e-09
2.87401e-08
1.08083e-09
2.85733e-08
1.06519e-09
2.84071e-08
1.05e-09
2.82414e-08
1.0353e-09
2.80763e-08
1.0211e-09
2.79118e-08
1.00746e-09
2.77479e-08
9.94464e-10
2.75846e-08
9.82275e-10
2.74219e-08
9.71265e-10
2.72597e-08
9.62392e-10
2.70986e-08
9.58253e-10
2.69436e-08
9.67373e-10
9.65028e-10
3.53486e-08
3.55714e-09
-3.51795e-08
3.55503e-08
3.92489e-09
3.57478e-08
4.11356e-09
3.59226e-08
4.15372e-09
3.60664e-08
4.08898e-09
3.61767e-08
3.95599e-09
3.62556e-08
3.78614e-09
3.63083e-08
3.60507e-09
3.63407e-08
3.42985e-09
3.6358e-08
3.26912e-09
3.63643e-08
3.12565e-09
3.63625e-08
2.99901e-09
3.63542e-08
2.88739e-09
3.63408e-08
2.78858e-09
3.63228e-08
2.70051e-09
3.63007e-08
2.62138e-09
3.62746e-08
2.54972e-09
3.62448e-08
2.48433e-09
3.62112e-08
2.42425e-09
3.61739e-08
2.36869e-09
3.61329e-08
2.317e-09
3.60882e-08
2.26864e-09
3.60396e-08
2.22316e-09
3.59873e-08
2.18018e-09
3.59312e-08
2.1394e-09
3.58713e-08
2.10055e-09
3.58076e-08
2.0634e-09
3.57401e-08
2.02776e-09
3.56689e-08
1.99348e-09
3.5594e-08
1.96043e-09
3.55154e-08
1.92848e-09
3.54331e-08
1.89754e-09
3.53473e-08
1.86753e-09
3.5258e-08
1.83837e-09
3.51653e-08
1.81001e-09
3.50693e-08
1.7824e-09
3.497e-08
1.75549e-09
3.48676e-08
1.72923e-09
3.47622e-08
1.70361e-09
3.46538e-08
1.67858e-09
3.45425e-08
1.65412e-09
3.44285e-08
1.6302e-09
3.43119e-08
1.60681e-09
3.41928e-08
1.58392e-09
3.40713e-08
1.56152e-09
3.39475e-08
1.53959e-09
3.38215e-08
1.51811e-09
3.36935e-08
1.49708e-09
3.35635e-08
1.47647e-09
3.34317e-08
1.45628e-09
3.32981e-08
1.43649e-09
3.31629e-08
1.41709e-09
3.30262e-08
1.39807e-09
3.28881e-08
1.37943e-09
3.27486e-08
1.36116e-09
3.26079e-08
1.34324e-09
3.24661e-08
1.32567e-09
3.23233e-08
1.30845e-09
3.21795e-08
1.29159e-09
3.20348e-08
1.27506e-09
3.18893e-08
1.25889e-09
3.17432e-08
1.24307e-09
3.15964e-08
1.22762e-09
3.14491e-08
1.21254e-09
3.13012e-08
1.19785e-09
3.11529e-08
1.18359e-09
3.10042e-08
1.16978e-09
3.08552e-08
1.15649e-09
3.07058e-08
1.14381e-09
3.05562e-08
1.13191e-09
3.04063e-08
1.12114e-09
3.02564e-08
1.11235e-09
3.01072e-08
1.10741e-09
2.99642e-08
1.11034e-09
1.08716e-09
3.64308e-08
3.40595e-09
-3.62796e-08
3.66133e-08
3.74241e-09
3.6796e-08
3.93084e-09
3.69609e-08
3.98877e-09
3.70998e-08
3.95017e-09
3.72094e-08
3.84636e-09
3.7291e-08
3.70457e-09
3.73485e-08
3.54753e-09
3.73871e-08
3.39126e-09
3.74115e-08
3.24475e-09
3.74254e-08
3.11168e-09
3.74318e-08
2.99264e-09
3.74325e-08
2.88668e-09
3.74288e-08
2.79225e-09
3.74216e-08
2.70773e-09
3.74114e-08
2.63162e-09
3.73984e-08
2.56264e-09
3.7383e-08
2.49975e-09
3.73652e-08
2.44205e-09
3.73451e-08
2.38881e-09
3.73227e-08
2.33943e-09
3.72979e-08
2.29338e-09
3.72708e-08
2.25025e-09
3.72414e-08
2.20966e-09
3.72094e-08
2.17132e-09
3.7175e-08
2.13495e-09
3.71381e-08
2.10033e-09
3.70986e-08
2.06728e-09
3.70565e-08
2.03562e-09
3.70117e-08
2.00523e-09
3.69641e-08
1.97599e-09
3.69139e-08
1.94778e-09
3.68609e-08
1.92052e-09
3.68051e-08
1.89414e-09
3.67466e-08
1.86856e-09
3.66853e-08
1.84373e-09
3.66212e-08
1.81959e-09
3.65543e-08
1.79611e-09
3.64847e-08
1.77323e-09
3.64123e-08
1.75093e-09
3.63373e-08
1.72917e-09
3.62595e-08
1.70792e-09
3.61792e-08
1.68717e-09
3.60962e-08
1.66687e-09
3.60107e-08
1.64701e-09
3.59228e-08
1.62758e-09
3.58323e-08
1.60855e-09
3.57395e-08
1.5899e-09
3.56444e-08
1.57162e-09
3.55469e-08
1.55369e-09
3.54473e-08
1.53611e-09
3.53456e-08
1.51885e-09
3.52417e-08
1.50191e-09
3.51359e-08
1.48527e-09
3.50281e-08
1.46894e-09
3.49185e-08
1.45289e-09
3.4807e-08
1.43712e-09
3.46938e-08
1.42164e-09
3.4579e-08
1.40644e-09
3.44625e-08
1.39151e-09
3.43445e-08
1.37687e-09
3.42251e-08
1.36252e-09
3.41042e-08
1.34846e-09
3.39821e-08
1.33473e-09
3.38586e-08
1.32133e-09
3.37339e-08
1.30829e-09
3.3608e-08
1.29567e-09
3.3481e-08
1.28352e-09
3.33529e-08
1.27193e-09
3.32237e-08
1.26107e-09
3.30936e-08
1.25126e-09
3.29628e-08
1.24315e-09
3.28324e-08
1.23776e-09
3.27074e-08
1.23537e-09
1.19718e-09
3.75431e-08
3.26989e-09
-3.7407e-08
3.77084e-08
3.57711e-09
3.7877e-08
3.76217e-09
3.80322e-08
3.8336e-09
3.81654e-08
3.817e-09
3.82731e-08
3.73864e-09
3.83556e-08
3.62203e-09
3.8416e-08
3.48715e-09
3.84584e-08
3.34883e-09
3.84871e-08
3.21607e-09
3.85055e-08
3.09324e-09
3.85165e-08
2.98172e-09
3.85219e-08
2.8813e-09
3.85231e-08
2.79102e-09
3.85211e-08
2.70971e-09
3.85166e-08
2.63616e-09
3.85099e-08
2.56931e-09
3.85014e-08
2.50824e-09
3.84913e-08
2.45217e-09
3.84797e-08
2.40044e-09
3.84666e-08
2.35248e-09
3.84522e-08
2.30782e-09
3.84364e-08
2.26606e-09
3.84192e-08
2.22685e-09
3.84006e-08
2.18991e-09
3.83806e-08
2.15498e-09
3.8359e-08
2.12185e-09
3.8336e-08
2.09033e-09
3.83113e-08
2.06027e-09
3.8285e-08
2.03153e-09
3.8257e-08
2.00398e-09
3.82273e-08
1.97753e-09
3.81957e-08
1.95209e-09
3.81623e-08
1.92757e-09
3.81269e-08
1.90391e-09
3.80896e-08
1.88104e-09
3.80503e-08
1.85891e-09
3.8009e-08
1.83747e-09
3.79655e-08
1.81667e-09
3.792e-08
1.79648e-09
3.78723e-08
1.77685e-09
3.78224e-08
1.75776e-09
3.77704e-08
1.73918e-09
3.77162e-08
1.72107e-09
3.76598e-08
1.70341e-09
3.76012e-08
1.68618e-09
3.75404e-08
1.66935e-09
3.74774e-08
1.6529e-09
3.74122e-08
1.63681e-09
3.73449e-08
1.62106e-09
3.72753e-08
1.60564e-09
3.72037e-08
1.59053e-09
3.71299e-08
1.57571e-09
3.7054e-08
1.56118e-09
3.6976e-08
1.54692e-09
3.68959e-08
1.53292e-09
3.68139e-08
1.51918e-09
3.67298e-08
1.50568e-09
3.66439e-08
1.49243e-09
3.65559e-08
1.47942e-09
3.64662e-08
1.46666e-09
3.63745e-08
1.45415e-09
3.62811e-08
1.4419e-09
3.61859e-08
1.42993e-09
3.60889e-08
1.41827e-09
3.59903e-08
1.40694e-09
3.589e-08
1.39598e-09
3.5788e-08
1.38547e-09
3.56845e-08
1.37548e-09
3.55794e-08
1.36618e-09
3.54728e-08
1.35782e-09
3.53651e-08
1.35082e-09
3.52575e-08
1.3454e-09
3.51538e-08
1.33903e-09
1.29241e-09
3.86862e-08
3.1467e-09
-3.8563e-08
3.88362e-08
3.42712e-09
3.89917e-08
3.60667e-09
3.91373e-08
3.68799e-09
3.92646e-08
3.68974e-09
3.93697e-08
3.63351e-09
3.94523e-08
3.53942e-09
3.95145e-08
3.42496e-09
3.95597e-08
3.30365e-09
3.95915e-08
3.18427e-09
3.96131e-08
3.07162e-09
3.96271e-08
2.96771e-09
3.96355e-08
2.87296e-09
3.96396e-08
2.78693e-09
3.96404e-08
2.70883e-09
3.96388e-08
2.63777e-09
3.96352e-08
2.5729e-09
3.963e-08
2.51342e-09
3.96235e-08
2.45868e-09
3.96159e-08
2.40807e-09
3.96073e-08
2.36109e-09
3.95978e-08
2.31733e-09
3.95874e-08
2.27639e-09
3.95763e-08
2.23798e-09
3.95644e-08
2.20181e-09
3.95517e-08
2.16766e-09
3.95383e-08
2.13532e-09
3.9524e-08
2.10461e-09
3.95088e-08
2.0754e-09
3.94928e-08
2.04753e-09
3.94759e-08
2.02092e-09
3.9458e-08
1.99544e-09
3.94391e-08
1.97102e-09
3.94191e-08
1.94758e-09
3.93979e-08
1.92505e-09
3.93756e-08
1.90337e-09
3.9352e-08
1.88247e-09
3.93272e-08
1.86232e-09
3.9301e-08
1.84287e-09
3.92734e-08
1.82408e-09
3.92443e-08
1.8059e-09
3.92138e-08
1.7883e-09
3.91817e-08
1.77125e-09
3.91481e-08
1.75472e-09
3.91128e-08
1.73868e-09
3.90759e-08
1.7231e-09
3.90372e-08
1.70796e-09
3.89969e-08
1.69323e-09
3.89548e-08
1.67889e-09
3.8911e-08
1.66492e-09
3.88653e-08
1.6513e-09
3.88178e-08
1.638e-09
3.87685e-08
1.62502e-09
3.87174e-08
1.61233e-09
3.86644e-08
1.59993e-09
3.86095e-08
1.58779e-09
3.85527e-08
1.57592e-09
3.84941e-08
1.56429e-09
3.84337e-08
1.55291e-09
3.83713e-08
1.54177e-09
3.83071e-08
1.53088e-09
3.8241e-08
1.52024e-09
3.8173e-08
1.50985e-09
3.81032e-08
1.49974e-09
3.80316e-08
1.48992e-09
3.79581e-08
1.48043e-09
3.78828e-08
1.4713e-09
3.78056e-08
1.46261e-09
3.77267e-08
1.45443e-09
3.7646e-08
1.4469e-09
3.75636e-08
1.44021e-09
3.74799e-08
1.43454e-09
3.73959e-08
1.42942e-09
3.73143e-08
1.42061e-09
1.37174e-09
3.9861e-08
3.03454e-09
-3.97489e-08
3.99974e-08
3.29071e-09
4.01407e-08
3.46341e-09
4.02771e-08
3.55163e-09
4.03983e-08
3.56849e-09
4.05004e-08
3.53138e-09
4.05825e-08
3.45736e-09
4.06458e-08
3.36163e-09
4.06931e-08
3.25635e-09
4.07275e-08
3.14995e-09
4.07517e-08
3.04741e-09
4.07681e-08
2.95124e-09
4.07788e-08
2.86234e-09
4.07849e-08
2.78075e-09
4.07877e-08
2.70604e-09
4.07879e-08
2.63758e-09
4.07861e-08
2.57472e-09
4.07827e-08
2.51684e-09
4.0778e-08
2.46336e-09
4.07723e-08
2.41377e-09
4.07658e-08
2.36763e-09
4.07585e-08
2.32455e-09
4.07507e-08
2.28421e-09
4.07424e-08
2.2463e-09
4.07336e-08
2.21059e-09
4.07244e-08
2.17686e-09
4.07148e-08
2.14492e-09
4.07048e-08
2.11461e-09
4.06944e-08
2.08579e-09
4.06836e-08
2.05833e-09
4.06724e-08
2.03214e-09
4.06607e-08
2.00712e-09
4.06486e-08
1.98319e-09
4.06359e-08
1.96026e-09
4.06227e-08
1.93829e-09
4.06088e-08
1.9172e-09
4.05943e-08
1.89695e-09
4.05792e-08
1.87749e-09
4.05633e-08
1.85878e-09
4.05466e-08
1.84077e-09
4.0529e-08
1.82342e-09
4.05106e-08
1.80671e-09
4.04913e-08
1.79059e-09
4.0471e-08
1.77505e-09
4.04496e-08
1.76004e-09
4.04272e-08
1.74553e-09
4.04036e-08
1.73152e-09
4.03789e-08
1.71796e-09
4.0353e-08
1.70483e-09
4.03258e-08
1.69211e-09
4.02973e-08
1.67979e-09
4.02675e-08
1.66783e-09
4.02363e-08
1.65622e-09
4.02037e-08
1.64494e-09
4.01696e-08
1.63397e-09
4.01341e-08
1.62331e-09
4.00971e-08
1.61294e-09
4.00585e-08
1.60285e-09
4.00184e-08
1.59302e-09
3.99767e-08
1.58347e-09
3.99334e-08
1.57418e-09
3.98885e-08
1.56517e-09
3.98419e-08
1.55643e-09
3.97936e-08
1.54799e-09
3.97437e-08
1.53986e-09
3.96921e-08
1.53207e-09
3.96387e-08
1.52467e-09
3.95836e-08
1.51771e-09
3.95267e-08
1.51128e-09
3.94682e-08
1.50547e-09
3.9408e-08
1.50041e-09
3.93464e-08
1.49608e-09
3.92843e-08
1.4915e-09
3.92233e-08
1.48167e-09
1.43553e-09
4.10685e-08
2.93196e-09
-4.09659e-08
4.11928e-08
3.16636e-09
4.13248e-08
3.33146e-09
4.14523e-08
3.42415e-09
4.15675e-08
3.45329e-09
4.16662e-08
3.43259e-09
4.17472e-08
3.37635e-09
4.18112e-08
3.29769e-09
4.18601e-08
3.20744e-09
4.18965e-08
3.11352e-09
4.1923e-08
3.02097e-09
4.19416e-08
2.9326e-09
4.19542e-08
2.84974e-09
4.19622e-08
2.7728e-09
4.19665e-08
2.70166e-09
4.19681e-08
2.63598e-09
4.19676e-08
2.57528e-09
4.19653e-08
2.51908e-09
4.19618e-08
2.46692e-09
4.19572e-08
2.41838e-09
4.19517e-08
2.37306e-09
4.19456e-08
2.33064e-09
4.1939e-08
2.29081e-09
4.1932e-08
2.25332e-09
4.19247e-08
2.21794e-09
4.1917e-08
2.18448e-09
4.19092e-08
2.15276e-09
4.19012e-08
2.12264e-09
4.1893e-08
2.09399e-09
4.18846e-08
2.06669e-09
4.18761e-08
2.04066e-09
4.18674e-08
2.01579e-09
4.18586e-08
1.99202e-09
4.18496e-08
1.96928e-09
4.18404e-08
1.94751e-09
4.18309e-08
1.92665e-09
4.18212e-08
1.90665e-09
4.18112e-08
1.88747e-09
4.18009e-08
1.86907e-09
4.17903e-08
1.85141e-09
4.17793e-08
1.83445e-09
4.17678e-08
1.81817e-09
4.17559e-08
1.80252e-09
4.17434e-08
1.78748e-09
4.17305e-08
1.77302e-09
4.17169e-08
1.75912e-09
4.17027e-08
1.74574e-09
4.16877e-08
1.73286e-09
4.16721e-08
1.72046e-09
4.16557e-08
1.70852e-09
4.16385e-08
1.697e-09
4.16204e-08
1.6859e-09
4.16014e-08
1.6752e-09
4.15815e-08
1.66486e-09
4.15606e-08
1.65489e-09
4.15387e-08
1.64525e-09
4.15157e-08
1.63595e-09
4.14915e-08
1.62696e-09
4.14663e-08
1.61829e-09
4.14398e-08
1.60993e-09
4.14121e-08
1.60186e-09
4.13832e-08
1.59411e-09
4.13529e-08
1.58668e-09
4.13214e-08
1.57957e-09
4.12884e-08
1.57281e-09
4.1254e-08
1.56644e-09
4.12182e-08
1.56048e-09
4.11809e-08
1.555e-09
4.11422e-08
1.55006e-09
4.11019e-08
1.54574e-09
4.10602e-08
1.5421e-09
4.10173e-08
1.53896e-09
4.09738e-08
1.53506e-09
4.09301e-08
1.52536e-09
1.48529e-09
4.23095e-08
2.83776e-09
-4.22153e-08
4.24231e-08
3.05272e-09
4.25447e-08
3.20989e-09
4.26637e-08
3.30514e-09
4.27729e-08
3.34411e-09
4.28681e-08
3.3374e-09
4.29476e-08
3.29683e-09
4.30117e-08
3.23362e-09
4.30617e-08
3.15736e-09
4.30999e-08
3.07536e-09
4.31283e-08
2.99258e-09
4.31489e-08
2.91203e-09
4.31633e-08
2.83533e-09
4.31729e-08
2.7632e-09
4.31787e-08
2.69584e-09
4.31816e-08
2.63311e-09
4.31821e-08
2.57473e-09
4.31808e-08
2.52035e-09
4.31781e-08
2.46963e-09
4.31743e-08
2.42221e-09
4.31696e-08
2.37777e-09
4.31642e-08
2.33604e-09
4.31583e-08
2.29674e-09
4.31519e-08
2.25966e-09
4.31453e-08
2.22459e-09
4.31384e-08
2.19135e-09
4.31314e-08
2.15979e-09
4.31243e-08
2.12979e-09
4.3117e-08
2.10121e-09
4.31098e-08
2.07396e-09
4.31025e-08
2.04795e-09
4.30952e-08
2.0231e-09
4.30879e-08
1.99933e-09
4.30805e-08
1.9766e-09
4.30732e-08
1.95484e-09
4.30659e-08
1.93399e-09
4.30585e-08
1.91403e-09
4.30511e-08
1.89489e-09
4.30436e-08
1.87656e-09
4.3036e-08
1.85898e-09
4.30283e-08
1.84213e-09
4.30205e-08
1.82598e-09
4.30125e-08
1.81049e-09
4.30044e-08
1.79564e-09
4.2996e-08
1.78141e-09
4.29874e-08
1.76776e-09
4.29784e-08
1.75467e-09
4.29692e-08
1.74211e-09
4.29596e-08
1.73007e-09
4.29496e-08
1.71852e-09
4.29391e-08
1.70745e-09
4.29282e-08
1.69682e-09
4.29168e-08
1.68662e-09
4.29048e-08
1.67684e-09
4.28922e-08
1.66745e-09
4.2879e-08
1.65845e-09
4.28652e-08
1.64982e-09
4.28506e-08
1.64155e-09
4.28352e-08
1.63363e-09
4.28191e-08
1.62606e-09
4.28021e-08
1.61884e-09
4.27843e-08
1.61197e-09
4.27655e-08
1.60546e-09
4.27457e-08
1.59932e-09
4.2725e-08
1.59357e-09
4.27032e-08
1.58825e-09
4.26803e-08
1.58339e-09
4.26562e-08
1.57904e-09
4.2631e-08
1.57527e-09
4.26046e-08
1.57213e-09
4.25771e-08
1.56962e-09
4.25486e-08
1.56744e-09
4.25194e-08
1.56425e-09
4.24893e-08
1.55548e-09
1.52321e-09
4.35851e-08
2.75099e-09
-4.34983e-08
4.36892e-08
2.94861e-09
4.38012e-08
3.09786e-09
4.39122e-08
3.19418e-09
4.40154e-08
3.24088e-09
4.41068e-08
3.24599e-09
4.41845e-08
3.21913e-09
4.42483e-08
3.16985e-09
4.42991e-08
3.10652e-09
4.43387e-08
3.03582e-09
4.43687e-08
2.96252e-09
4.4391e-08
2.88971e-09
4.44071e-08
2.81924e-09
4.44183e-08
2.75208e-09
4.44254e-08
2.68865e-09
4.44295e-08
2.62903e-09
4.44311e-08
2.57312e-09
4.44308e-08
2.52071e-09
4.44289e-08
2.47154e-09
4.44257e-08
2.42534e-09
4.44216e-08
2.38187e-09
4.44168e-08
2.34089e-09
4.44113e-08
2.30218e-09