/*--------------------------------*- C++ -*----------------------------------*\
| =========                 |                                                 |
| \\      /  F ield         | OpenFOAM: The Open Source CFD Toolbox           |
|  \\    /   O peration     | Version:  2.3.0                                 |
|   \\  /    A nd           | Web:      www.OpenFOAM.org                      |
|    \\/     M anipulation  |                                                 |
\*---------------------------------------------------------------------------*/
FoamFile
{
    version     2.0;
    format      ascii;
    class       volVectorField;
    location    "0.9";
    object      U;
}
// * * * * * * * * * * * * * * * * * * * * * * * * * * * * * * * * * * * * * //

dimensions      [0 1 -1 0 0 0 0];

internalField   nonuniform List<vector> 
2945
(
(0.153788 0.00668152 0)
(0.125027 0.00576605 0)
(0.100444 0.00443544 0)
(0.0804737 0.00314339 0)
(0.0652432 0.0020659 0)
(0.0541383 0.00126812 0)
(0.0462366 0.000739062 0)
(0.0406526 0.00042049 0)
(0.0366594 0.000243937 0)
(0.0337129 0.000152833 0)
(0.0314396 0.000108152 0)
(0.0296027 8.62313e-05 0)
(0.0280602 7.43733e-05 0)
(0.0267285 6.65863e-05 0)
(0.0255575 6.0414e-05 0)
(0.0245152 5.50067e-05 0)
(0.0235791 5.01309e-05 0)
(0.0227325 4.57378e-05 0)
(0.0219623 4.18083e-05 0)
(0.0212579 3.83123e-05 0)
(0.0206105 3.52084e-05 0)
(0.0200129 3.24503e-05 0)
(0.019459 2.99932e-05 0)
(0.0189439 2.77966e-05 0)
(0.0184633 2.58255e-05 0)
(0.0180135 2.40503e-05 0)
(0.0175915 2.24459e-05 0)
(0.0171945 2.09911e-05 0)
(0.0168203 1.96682e-05 0)
(0.0164668 1.84617e-05 0)
(0.0161323 1.73588e-05 0)
(0.015815 1.63481e-05 0)
(0.0155137 1.54199e-05 0)
(0.0152271 1.45658e-05 0)
(0.0149539 1.37783e-05 0)
(0.0146934 1.30509e-05 0)
(0.0144444 1.23779e-05 0)
(0.0142062 1.17542e-05 0)
(0.0139781 1.11753e-05 0)
(0.0137593 1.06372e-05 0)
(0.0135492 1.01364e-05 0)
(0.0133474 9.66949e-06 0)
(0.0131531 9.23375e-06 0)
(0.012966 8.82654e-06 0)
(0.0127856 8.44556e-06 0)
(0.0126116 8.08864e-06 0)
(0.0124435 7.75396e-06 0)
(0.0122809 7.43974e-06 0)
(0.0121237 7.14445e-06 0)
(0.0119714 6.86667e-06 0)
(0.0118238 6.60512e-06 0)
(0.0116807 6.35866e-06 0)
(0.0115417 6.12622e-06 0)
(0.0114068 5.90685e-06 0)
(0.0112756 5.69971e-06 0)
(0.011148 5.50403e-06 0)
(0.0110237 5.31911e-06 0)
(0.0109027 5.14431e-06 0)
(0.0107847 4.97912e-06 0)
(0.0106696 4.82303e-06 0)
(0.0105573 4.67563e-06 0)
(0.0104475 4.53655e-06 0)
(0.0103402 4.40549e-06 0)
(0.0102352 4.28224e-06 0)
(0.0101324 4.16662e-06 0)
(0.0100317 4.05853e-06 0)
(0.00993282 3.95804e-06 0)
(0.00983575 3.86541e-06 0)
(0.0097403 3.78126e-06 0)
(0.0096463 3.7073e-06 0)
(0.00955349 3.64504e-06 0)
(0.00946212 3.62014e-06 0)
(0.00936519 3.65902e-06 0)
(0.00931233 2.23361e-06 0)
(0.0090177 2.23893e-05 0)
(0.184631 0.0109648 0)
(0.176255 0.0104473 0)
(0.165287 0.00906626 0)
(0.153353 0.00746921 0)
(0.141702 0.00589657 0)
(0.130935 0.0044979 0)
(0.121267 0.00335866 0)
(0.112737 0.00249503 0)
(0.105295 0.00187462 0)
(0.0988366 0.00144361 0)
(0.0932311 0.00114712 0)
(0.0883468 0.000940301 0)
(0.0840638 0.000791286 0)
(0.0802801 0.000679503 0)
(0.0769118 0.000592376 0)
(0.0738911 0.000522341 0)
(0.0711636 0.00046475 0)
(0.0686856 0.000416603 0)
(0.0664217 0.000375843 0)
(0.064343 0.000340978 0)
(0.0624257 0.000310886 0)
(0.0606503 0.000284703 0)
(0.0590003 0.000261752 0)
(0.0574616 0.000241498 0)
(0.0560227 0.000223516 0)
(0.0546733 0.000207465 0)
(0.0534047 0.000193067 0)
(0.0522094 0.000180095 0)
(0.0510808 0.000168363 0)
(0.050013 0.000157713 0)
(0.0490011 0.000148016 0)
(0.0480403 0.000139159 0)
(0.0471268 0.000131049 0)
(0.0462568 0.000123603 0)
(0.0454271 0.000116753 0)
(0.0446348 0.000110436 0)
(0.0438772 0.0001046 0)
(0.0431519 9.91987e-05 0)
(0.0424568 9.419e-05 0)
(0.0417898 8.95382e-05 0)
(0.0411492 8.5211e-05 0)
(0.0405331 8.11799e-05 0)
(0.0399402 7.74192e-05 0)
(0.039369 7.39061e-05 0)
(0.0388182 7.062e-05 0)
(0.0382866 6.75424e-05 0)
(0.0377731 6.46566e-05 0)
(0.0372767 6.19476e-05 0)
(0.0367964 5.94018e-05 0)
(0.0363313 5.70068e-05 0)
(0.0358806 5.47514e-05 0)
(0.0354435 5.26255e-05 0)
(0.0350194 5.06199e-05 0)
(0.0346076 4.87262e-05 0)
(0.0342073 4.69368e-05 0)
(0.0338182 4.52449e-05 0)
(0.0334395 4.36443e-05 0)
(0.0330708 4.21293e-05 0)
(0.0327116 4.06949e-05 0)
(0.0323614 3.93368e-05 0)
(0.0320198 3.80508e-05 0)
(0.0316864 3.68334e-05 0)
(0.0313607 3.56818e-05 0)
(0.0310423 3.45933e-05 0)
(0.0307309 3.35659e-05 0)
(0.0304261 3.25983e-05 0)
(0.0301274 3.16899e-05 0)
(0.0298346 3.08414e-05 0)
(0.0295472 3.00561e-05 0)
(0.0292646 2.93435e-05 0)
(0.0289864 2.87184e-05 0)
(0.0287125 2.83448e-05 0)
(0.0284316 2.784e-05 0)
(0.0282173 2.90259e-05 0)
(0.0275876 8.73875e-05 0)
(0.191304 0.0115779 0)
(0.190658 0.0118787 0)
(0.187724 0.0110951 0)
(0.182994 0.00984945 0)
(0.177221 0.0084257 0)
(0.170938 0.00702937 0)
(0.164494 0.0057981 0)
(0.158129 0.0047862 0)
(0.151996 0.00398683 0)
(0.146177 0.00336436 0)
(0.140704 0.00287766 0)
(0.135582 0.00249137 0)
(0.1308 0.00217907 0)
(0.12634 0.00192222 0)
(0.122181 0.00170796 0)
(0.118302 0.00152726 0)
(0.114681 0.00137349 0)
(0.111297 0.00124165 0)
(0.108131 0.00112783 0)
(0.105165 0.00102895 0)
(0.102382 0.000942502 0)
(0.0997656 0.000866489 0)
(0.0973026 0.000799277 0)
(0.09498 0.000739534 0)
(0.0927863 0.000686172 0)
(0.0907111 0.000638294 0)
(0.0887449 0.000595158 0)
(0.0868793 0.000556146 0)
(0.0851067 0.000520741 0)
(0.0834202 0.000488504 0)
(0.0818136 0.000459067 0)
(0.0802811 0.000432112 0)
(0.0788176 0.000407368 0)
(0.0774185 0.000384602 0)
(0.0760793 0.000363609 0)
(0.0747963 0.000344213 0)
(0.0735658 0.000326259 0)
(0.0723845 0.00030961 0)
(0.0712494 0.000294146 0)
(0.0701577 0.000279759 0)
(0.0691068 0.000266356 0)
(0.0680943 0.000253851 0)
(0.0671179 0.000242168 0)
(0.0661758 0.00023124 0)
(0.0652658 0.000221004 0)
(0.0643863 0.000211406 0)
(0.0635357 0.000202396 0)
(0.0627123 0.000193928 0)
(0.0619148 0.000185961 0)
(0.0611418 0.000178458 0)
(0.0603921 0.000171385 0)
(0.0596645 0.000164712 0)
(0.0589579 0.00015841 0)
(0.0582713 0.000152453 0)
(0.0576037 0.000146819 0)
(0.0569542 0.000141486 0)
(0.056322 0.000136435 0)
(0.0557062 0.000131649 0)
(0.0551062 0.000127112 0)
(0.0545211 0.000122809 0)
(0.0539502 0.000118729 0)
(0.053393 0.00011486 0)
(0.0528487 0.000111192 0)
(0.0523168 0.000107718 0)
(0.0517967 0.000104429 0)
(0.0512877 0.000101322 0)
(0.0507893 9.83927e-05 0)
(0.0503009 9.56429e-05 0)
(0.0498219 9.30797e-05 0)
(0.0493515 9.07265e-05 0)
(0.0488888 8.86333e-05 0)
(0.0484333 8.71709e-05 0)
(0.0479749 8.55094e-05 0)
(0.0475732 9.51057e-05 0)
(0.0467456 0.000183015 0)
(0.193214 0.0110366 0)
(0.194856 0.0118116 0)
(0.195291 0.0115262 0)
(0.194378 0.0106912 0)
(0.192391 0.00957187 0)
(0.189606 0.00837307 0)
(0.186262 0.00724858 0)
(0.182569 0.00627602 0)
(0.178694 0.00547043 0)
(0.174752 0.00481348 0)
(0.170815 0.00427612 0)
(0.166926 0.00383058 0)
(0.163111 0.00345484 0)
(0.159386 0.00313286 0)
(0.155762 0.00285339 0)
(0.152248 0.00260848 0)
(0.148847 0.00239234 0)
(0.145563 0.00220056 0)
(0.142396 0.00202966 0)
(0.139346 0.0018768 0)
(0.136411 0.0017396 0)
(0.133589 0.00161606 0)
(0.130877 0.00150449 0)
(0.128271 0.00140342 0)
(0.125768 0.00131162 0)
(0.123362 0.00122802 0)
(0.121051 0.00115168 0)
(0.11883 0.00108182 0)
(0.116695 0.00101772 0)
(0.114641 0.000958806 0)
(0.112665 0.000904532 0)
(0.110764 0.00085444 0)
(0.108933 0.000808125 0)
(0.107169 0.000765227 0)
(0.105469 0.00072543 0)
(0.103829 0.000688453 0)
(0.102247 0.000654047 0)
(0.10072 0.000621988 0)
(0.0992443 0.000592077 0)
(0.0978185 0.000564135 0)
(0.0964397 0.000538 0)
(0.0951058 0.000513527 0)
(0.0938145 0.000490585 0)
(0.0925639 0.000469055 0)
(0.0913519 0.000448829 0)
(0.0901767 0.000429809 0)
(0.0890367 0.000411905 0)
(0.0879303 0.000395036 0)
(0.0868558 0.000379127 0)
(0.0858118 0.000364111 0)
(0.084797 0.000349924 0)
(0.08381 0.000336511 0)
(0.0828497 0.000323818 0)
(0.0819148 0.000311799 0)
(0.0810043 0.000300409 0)
(0.0801171 0.000289608 0)
(0.0792522 0.00027936 0)
(0.0784087 0.000269632 0)
(0.0775857 0.000260394 0)
(0.0767823 0.000251618 0)
(0.0759977 0.00024328 0)
(0.0752311 0.000235357 0)
(0.0744817 0.000227832 0)
(0.0737488 0.000220686 0)
(0.0730317 0.000213907 0)
(0.0723297 0.000207484 0)
(0.071642 0.000201411 0)
(0.0709679 0.000195686 0)
(0.0703067 0.000190324 0)
(0.0696575 0.000185364 0)
(0.0690193 0.00018091 0)
(0.0683908 0.000177496 0)
(0.0677643 0.00017476 0)
(0.0671798 0.000192051 0)
(0.066219 0.000292289 0)
(0.194056 0.010381 0)
(0.196111 0.0113143 0)
(0.197648 0.0112984 0)
(0.198353 0.0107484 0)
(0.198271 0.00989503 0)
(0.197508 0.00891419 0)
(0.196182 0.00794879 0)
(0.19443 0.00708238 0)
(0.192381 0.0063425 0)
(0.190132 0.005723 0)
(0.18775 0.00520422 0)
(0.185278 0.00476466 0)
(0.182746 0.00438613 0)
(0.180173 0.00405495 0)
(0.177576 0.00376137 0)
(0.174968 0.00349851 0)
(0.172362 0.00326142 0)
(0.169766 0.00304639 0)
(0.16719 0.00285054 0)
(0.164641 0.00267154 0)
(0.162125 0.00250745 0)
(0.159647 0.00235665 0)
(0.157211 0.00221776 0)
(0.15482 0.00208956 0)
(0.152477 0.00197102 0)
(0.150184 0.00186124 0)
(0.147942 0.0017594 0)
(0.145751 0.00166479 0)
(0.143613 0.0015768 0)
(0.141528 0.00149485 0)
(0.139494 0.00141844 0)
(0.137513 0.00134712 0)
(0.135582 0.00128047 0)
(0.133702 0.00121813 0)
(0.131871 0.00115977 0)
(0.130088 0.00110508 0)
(0.128352 0.00105378 0)
(0.126662 0.00100561 0)
(0.125017 0.000960364 0)
(0.123415 0.000917812 0)
(0.121855 0.000877766 0)
(0.120336 0.000840049 0)
(0.118856 0.000804498 0)
(0.117414 0.000770962 0)
(0.116009 0.000739304 0)
(0.11464 0.000709397 0)
(0.113306 0.000681123 0)
(0.112004 0.000654373 0)
(0.110735 0.000629049 0)
(0.109497 0.000605057 0)
(0.108288 0.000582312 0)
(0.107109 0.000560734 0)
(0.105957 0.000540252 0)
(0.104833 0.000520797 0)
(0.103734 0.000502307 0)
(0.10266 0.000484724 0)
(0.101611 0.000467998 0)
(0.100585 0.000452077 0)
(0.0995808 0.00043692 0)
(0.0985987 0.000422485 0)
(0.0976376 0.000408735 0)
(0.0966966 0.000395639 0)
(0.095775 0.000383167 0)
(0.0948722 0.000371294 0)
(0.0939874 0.00036 0)
(0.0931199 0.000349268 0)
(0.092269 0.000339087 0)
(0.0914339 0.000329458 0)
(0.0906139 0.000320399 0)
(0.0898082 0.000311969 0)
(0.0890156 0.000304338 0)
(0.0882346 0.00029818 0)
(0.0874592 0.000294311 0)
(0.0867172 0.000315912 0)
(0.0856581 0.000413058 0)
(0.194638 0.00976132 0)
(0.196566 0.010716 0)
(0.198309 0.0108437 0)
(0.19955 0.0104777 0)
(0.200259 0.00982052 0)
(0.200464 0.00902037 0)
(0.20022 0.00820219 0)
(0.199608 0.00744661 0)
(0.198717 0.00678678 0)
(0.19762 0.00622436 0)
(0.196369 0.00574656 0)
(0.194997 0.0053369 0)
(0.193526 0.00498049 0)
(0.191973 0.0046656 0)
(0.190348 0.00438365 0)
(0.188663 0.00412849 0)
(0.186927 0.00389567 0)
(0.185147 0.00368189 0)
(0.183333 0.00348463 0)
(0.18149 0.00330187 0)
(0.179627 0.00313199 0)
(0.177748 0.00297365 0)
(0.17586 0.00282572 0)
(0.173968 0.00268723 0)
(0.172076 0.00255737 0)
(0.170188 0.00243542 0)
(0.168309 0.00232075 0)
(0.166441 0.00221282 0)
(0.164587 0.00211113 0)
(0.16275 0.00201524 0)
(0.160932 0.00192475 0)
(0.159135 0.00183931 0)
(0.157361 0.00175859 0)
(0.15561 0.00168228 0)
(0.153884 0.00161011 0)
(0.152184 0.00154182 0)
(0.15051 0.00147716 0)
(0.148864 0.00141593 0)
(0.147244 0.00135791 0)
(0.145653 0.00130292 0)
(0.144089 0.00125076 0)
(0.142553 0.00120128 0)
(0.141044 0.00115432 0)
(0.139563 0.00110972 0)
(0.138109 0.00106736 0)
(0.136682 0.0010271 0)
(0.135282 0.000988821 0)
(0.133907 0.000952407 0)
(0.132559 0.000917754 0)
(0.131236 0.000884761 0)
(0.129938 0.000853334 0)
(0.128664 0.000823386 0)
(0.127414 0.000794833 0)
(0.126188 0.0007676 0)
(0.124984 0.000741615 0)
(0.123803 0.000716812 0)
(0.122643 0.000693127 0)
(0.121505 0.000670505 0)
(0.120388 0.000648893 0)
(0.119291 0.000628241 0)
(0.118214 0.000608507 0)
(0.117155 0.000589649 0)
(0.116116 0.000571634 0)
(0.115095 0.00055443 0)
(0.114091 0.000538011 0)
(0.113105 0.000522359 0)
(0.112135 0.000507461 0)
(0.111181 0.000493319 0)
(0.110242 0.000479959 0)
(0.109318 0.000467463 0)
(0.108408 0.00045607 0)
(0.107509 0.000446599 0)
(0.106618 0.000441125 0)
(0.105758 0.00046301 0)
(0.104633 0.000545062 0)
(0.195132 0.00919929 0)
(0.196823 0.0101236 0)
(0.198479 0.0103362 0)
(0.199816 0.0100955 0)
(0.200779 0.00958031 0)
(0.201373 0.00891876 0)
(0.201626 0.00821942 0)
(0.201589 0.0075574 0)
(0.201326 0.00696825 0)
(0.200893 0.00645895 0)
(0.200329 0.00602195 0)
(0.19966 0.00564485 0)
(0.198901 0.00531542 0)
(0.198064 0.00502353 0)
(0.197156 0.00476143 0)
(0.196181 0.00452343 0)
(0.195146 0.00430534 0)
(0.194055 0.00410403 0)
(0.192913 0.00391711 0)
(0.191724 0.00374272 0)
(0.190492 0.00357937 0)
(0.189222 0.00342582 0)
(0.187918 0.0032811 0)
(0.186584 0.00314436 0)
(0.185224 0.0030149 0)
(0.183841 0.00289214 0)
(0.182439 0.00277556 0)
(0.181021 0.00266473 0)
(0.17959 0.00255927 0)
(0.178149 0.00245882 0)
(0.176701 0.0023631 0)
(0.175248 0.00227183 0)
(0.173793 0.00218477 0)
(0.172337 0.00210169 0)
(0.170883 0.00202239 0)
(0.169433 0.00194667 0)
(0.167988 0.00187436 0)
(0.166549 0.00180528 0)
(0.165119 0.00173928 0)
(0.163698 0.00167621 0)
(0.162287 0.00161594 0)
(0.160887 0.00155832 0)
(0.159499 0.00150322 0)
(0.158124 0.00145054 0)
(0.156762 0.00140015 0)
(0.155414 0.00135194 0)
(0.154081 0.00130581 0)
(0.152762 0.00126166 0)
(0.151458 0.00121939 0)
(0.15017 0.00117892 0)
(0.148897 0.00114015 0)
(0.14764 0.00110301 0)
(0.146398 0.00106742 0)
(0.145173 0.00103331 0)
(0.143963 0.0010006 0)
(0.142769 0.000969233 0)
(0.141591 0.000939149 0)
(0.140428 0.00091029 0)
(0.139281 0.000882602 0)
(0.13815 0.000856038 0)
(0.137033 0.000830552 0)
(0.135932 0.000806106 0)
(0.134846 0.000782662 0)
(0.133775 0.00076019 0)
(0.132718 0.000738666 0)
(0.131675 0.000718071 0)
(0.130646 0.000698396 0)
(0.12963 0.000679648 0)
(0.128628 0.000661864 0)
(0.127638 0.000645151 0)
(0.12666 0.000629811 0)
(0.125693 0.000616803 0)
(0.124733 0.00060908 0)
(0.123804 0.00062751 0)
(0.122654 0.000685946 0)
(0.195578 0.00870237 0)
(0.197037 0.00957438 0)
(0.198531 0.0098401 0)
(0.199813 0.00969134 0)
(0.200813 0.00928389 0)
(0.20153 0.00873074 0)
(0.201979 0.00812671 0)
(0.202198 0.00754082 0)
(0.202237 0.00700953 0)
(0.20214 0.00654377 0)
(0.201942 0.00614029 0)
(0.201664 0.00579019 0)
(0.201318 0.00548363 0)
(0.200913 0.00521192 0)
(0.200453 0.00496811 0)
(0.199941 0.00474691 0)
(0.199379 0.0045443 0)
(0.19877 0.00435725 0)
(0.198116 0.00418341 0)
(0.197417 0.00402093 0)
(0.196677 0.00386835 0)
(0.195896 0.00372446 0)
(0.195078 0.00358831 0)
(0.194224 0.00345908 0)
(0.193336 0.00333611 0)
(0.192417 0.00321886 0)
(0.191468 0.00310684 0)
(0.190491 0.00299968 0)
(0.18949 0.00289703 0)
(0.188465 0.00279861 0)
(0.187419 0.00270416 0)
(0.186354 0.00261346 0)
(0.185271 0.00252632 0)
(0.184174 0.00244257 0)
(0.183062 0.00236204 0)
(0.181939 0.00228459 0)
(0.180805 0.00221008 0)
(0.179663 0.0021384 0)
(0.178514 0.00206943 0)
(0.177359 0.00200306 0)
(0.1762 0.00193918 0)
(0.175037 0.0018777 0)
(0.173872 0.00181853 0)
(0.172707 0.00176156 0)
(0.171541 0.00170672 0)
(0.170377 0.00165392 0)
(0.169214 0.00160309 0)
(0.168055 0.00155414 0)
(0.166898 0.00150699 0)
(0.165746 0.00146159 0)
(0.164599 0.00141785 0)
(0.163457 0.00137572 0)
(0.162322 0.00133513 0)
(0.161192 0.00129602 0)
(0.16007 0.00125832 0)
(0.158954 0.001222 0)
(0.157847 0.00118699 0)
(0.156747 0.00115324 0)
(0.155655 0.00112072 0)
(0.154572 0.00108937 0)
(0.153498 0.00105917 0)
(0.152432 0.00103007 0)
(0.151375 0.00100205 0)
(0.150327 0.000975083 0)
(0.149289 0.000949148 0)
(0.148259 0.000924234 0)
(0.147238 0.000900339 0)
(0.146227 0.000877481 0)
(0.145224 0.00085571 0)
(0.14423 0.000835158 0)
(0.143244 0.000816178 0)
(0.142265 0.000799818 0)
(0.141294 0.000789348 0)
(0.140352 0.000801445 0)
(0.139223 0.000831564 0)
(0.195983 0.00826468 0)
(0.197241 0.0090745 0)
(0.198569 0.00937286 0)
(0.199751 0.00929574 0)
(0.200714 0.00897543 0)
(0.201446 0.0085117 0)
(0.201959 0.00798762 0)
(0.202281 0.00746606 0)
(0.202453 0.00698338 0)
(0.202513 0.00655352 0)
(0.202491 0.00617685 0)
(0.202408 0.00584762 0)
(0.202275 0.00555825 0)
(0.202101 0.00530151 0)
(0.201888 0.00507133 0)
(0.20164 0.00486286 0)
(0.201358 0.00467234 0)
(0.201043 0.00449683 0)
(0.200695 0.00433402 0)
(0.200315 0.0041821 0)
(0.199903 0.00403956 0)
(0.199459 0.00390523 0)
(0.198985 0.00377809 0)
(0.19848 0.00365735 0)
(0.197946 0.00354232 0)
(0.197383 0.00343245 0)
(0.196792 0.00332725 0)
(0.196174 0.00322635 0)
(0.195529 0.00312939 0)
(0.19486 0.00303611 0)
(0.194166 0.00294626 0)
(0.193449 0.00285962 0)
(0.19271 0.00277602 0)
(0.19195 0.0026953 0)
(0.19117 0.00261733 0)
(0.190372 0.00254196 0)
(0.189556 0.00246911 0)
(0.188723 0.00239865 0)
(0.187875 0.0023305 0)
(0.187013 0.00226457 0)
(0.186137 0.00220078 0)
(0.185249 0.00213906 0)
(0.18435 0.00207933 0)
(0.183441 0.00202152 0)
(0.182523 0.00196556 0)
(0.181596 0.00191141 0)
(0.180662 0.00185899 0)
(0.179721 0.00180824 0)
(0.178774 0.00175911 0)
(0.177823 0.00171154 0)
(0.176867 0.00166549 0)
(0.175908 0.0016209 0)
(0.174946 0.00157772 0)
(0.173981 0.00153591 0)
(0.173015 0.00149542 0)
(0.172049 0.00145621 0)
(0.171081 0.00141824 0)
(0.170114 0.00138148 0)
(0.169148 0.00134588 0)
(0.168182 0.00131142 0)
(0.167218 0.00127806 0)
(0.166256 0.00124579 0)
(0.165296 0.00121458 0)
(0.164338 0.00118442 0)
(0.163383 0.0011553 0)
(0.162431 0.00112721 0)
(0.161483 0.00110017 0)
(0.160538 0.00107419 0)
(0.159596 0.00104936 0)
(0.158658 0.00102582 0)
(0.157723 0.00100395 0)
(0.156792 0.000984812 0)
(0.155864 0.000971447 0)
(0.154965 0.000975523 0)
(0.153904 0.000976568 0)
(0.196351 0.00787709 0)
(0.19744 0.00862146 0)
(0.198614 0.00893787 0)
(0.19969 0.00891806 0)
(0.200593 0.00867097 0)
(0.201304 0.00828397 0)
(0.201828 0.00782982 0)
(0.202188 0.00736529 0)
(0.202416 0.00692584 0)
(0.202546 0.00652751 0)
(0.202606 0.00617372 0)
(0.202613 0.00586146 0)
(0.202582 0.0055853 0)
(0.20252 0.00533949 0)
(0.202431 0.00511886 0)
(0.202319 0.00491912 0)
(0.202184 0.00473684 0)
(0.202028 0.00456925 0)
(0.201852 0.00441416 0)
(0.201654 0.00426976 0)
(0.201436 0.00413462 0)
(0.201197 0.00400751 0)
(0.200937 0.00388746 0)
(0.200656 0.00377364 0)
(0.200354 0.00366534 0)
(0.20003 0.003562 0)
(0.199686 0.00346312 0)
(0.199321 0.0033683 0)
(0.198934 0.00327717 0)
(0.198527 0.00318945 0)
(0.198099 0.00310488 0)
(0.197651 0.00302325 0)
(0.197183 0.00294435 0)
(0.196695 0.00286804 0)
(0.196188 0.00279416 0)
(0.195662 0.0027226 0)
(0.195117 0.00265324 0)
(0.194555 0.00258597 0)
(0.193976 0.00252072 0)
(0.19338 0.0024574 0)
(0.192768 0.00239593 0)
(0.19214 0.00233624 0)
(0.191498 0.00227828 0)
(0.190841 0.00222198 0)
(0.19017 0.00216728 0)
(0.189487 0.00211413 0)
(0.188791 0.00206248 0)
(0.188083 0.00201229 0)
(0.187364 0.0019635 0)
(0.186635 0.00191607 0)
(0.185895 0.00186995 0)
(0.185146 0.00182512 0)
(0.184389 0.00178153 0)
(0.183623 0.00173914 0)
(0.182849 0.00169792 0)
(0.182069 0.00165784 0)
(0.181282 0.00161887 0)
(0.180488 0.00158097 0)
(0.17969 0.00154413 0)
(0.178886 0.00150832 0)
(0.178078 0.00147353 0)
(0.177265 0.00143973 0)
(0.176449 0.00140691 0)
(0.17563 0.00137508 0)
(0.174807 0.00134423 0)
(0.173982 0.00131436 0)
(0.173155 0.0012855 0)
(0.172325 0.00125769 0)
(0.171494 0.001231 0)
(0.170661 0.00120561 0)
(0.169827 0.00118189 0)
(0.168991 0.00116081 0)
(0.168157 0.00114479 0)
(0.167347 0.00114043 0)
(0.166395 0.00111521 0)
(0.196686 0.00753158 0)
(0.197633 0.00821133 0)
(0.198669 0.00853497 0)
(0.199644 0.00856085 0)
(0.200482 0.00837605 0)
(0.201159 0.00805604 0)
(0.201675 0.0076644 0)
(0.202046 0.00725201 0)
(0.202299 0.0068527 0)
(0.202462 0.00648385 0)
(0.20256 0.00615126 0)
(0.202611 0.0058543 0)
(0.202627 0.00558946 0)
(0.202617 0.00535241 0)
(0.202586 0.00513893 0)
(0.202538 0.00494535 0)
(0.202475 0.00476859 0)
(0.202397 0.00460616 0)
(0.202307 0.00445598 0)
(0.202205 0.00431638 0)
(0.202089 0.00418595 0)
(0.201962 0.00406353 0)
(0.201821 0.00394814 0)
(0.201668 0.00383898 0)
(0.201502 0.00373534 0)
(0.201323 0.00363664 0)
(0.20113 0.00354238 0)
(0.200923 0.00345215 0)
(0.200702 0.00336557 0)
(0.200466 0.00328235 0)
(0.200217 0.0032022 0)
(0.199952 0.0031249 0)
(0.199673 0.00305025 0)
(0.199378 0.00297807 0)
(0.199069 0.00290821 0)
(0.198744 0.00284053 0)
(0.198405 0.00277491 0)
(0.19805 0.00271124 0)
(0.197681 0.00264943 0)
(0.197297 0.00258939 0)
(0.196897 0.00253104 0)
(0.196484 0.00247431 0)
(0.196056 0.00241913 0)
(0.195614 0.00236544 0)
(0.195158 0.00231318 0)
(0.194688 0.0022623 0)
(0.194205 0.00221274 0)
(0.193709 0.00216447 0)
(0.1932 0.00211744 0)
(0.192679 0.0020716 0)
(0.192146 0.00202691 0)
(0.191601 0.00198335 0)
(0.191044 0.00194087 0)
(0.190476 0.00189944 0)
(0.189898 0.00185903 0)
(0.18931 0.00181962 0)
(0.188711 0.00178118 0)
(0.188103 0.00174368 0)
(0.187486 0.00170711 0)
(0.18686 0.00167145 0)
(0.186225 0.00163669 0)
(0.185582 0.00160282 0)
(0.184932 0.00156983 0)
(0.184274 0.00153773 0)
(0.183609 0.00150652 0)
(0.182937 0.00147622 0)
(0.182259 0.00144685 0)
(0.181574 0.00141847 0)
(0.180884 0.00139116 0)
(0.180187 0.0013651 0)
(0.179486 0.00134063 0)
(0.178779 0.00131854 0)
(0.178071 0.00130038 0)
(0.177382 0.00128828 0)
(0.176565 0.00124229 0)
(0.196991 0.00722153 0)
(0.197818 0.00783993 0)
(0.198733 0.00816276 0)
(0.199613 0.00822443 0)
(0.200387 0.00809254 0)
(0.201025 0.00783126 0)
(0.201525 0.00749592 0)
(0.201898 0.00713174 0)
(0.202162 0.00677049 0)
(0.202343 0.00643014 0)
(0.202462 0.00611828 0)
(0.202535 0.00583624 0)
(0.202575 0.00558224 0)
(0.20259 0.00535323 0)
(0.202587 0.00514593 0)
(0.202568 0.00495729 0)
(0.202538 0.00478466 0)
(0.202498 0.0046258 0)
(0.202449 0.00447884 0)
(0.202391 0.00434223 0)
(0.202326 0.00421466 0)
(0.202254 0.00409502 0)
(0.202174 0.00398239 0)
(0.202088 0.00387598 0)
(0.201994 0.00377511 0)
(0.201892 0.00367923 0)
(0.201783 0.00358782 0)
(0.201666 0.00350049 0)
(0.20154 0.00341686 0)
(0.201406 0.00333661 0)
(0.201264 0.00325948 0)
(0.201112 0.00318523 0)
(0.200951 0.00311364 0)
(0.20078 0.00304454 0)
(0.200599 0.00297776 0)
(0.200408 0.00291315 0)
(0.200206 0.00285058 0)
(0.199994 0.00278994 0)
(0.199771 0.00273113 0)
(0.199537 0.00267404 0)
(0.199292 0.00261859 0)
(0.199036 0.0025647 0)
(0.198768 0.0025123 0)
(0.198489 0.00246132 0)
(0.198198 0.00241169 0)
(0.197896 0.00236336 0)
(0.197582 0.00231626 0)
(0.197256 0.00227036 0)
(0.196919 0.00222561 0)
(0.19657 0.00218195 0)
(0.19621 0.00213934 0)
(0.195839 0.00209776 0)
(0.195456 0.00205715 0)
(0.195063 0.0020175 0)
(0.194658 0.00197876 0)
(0.194242 0.00194091 0)
(0.193816 0.00190392 0)
(0.193379 0.00186779 0)
(0.192932 0.00183247 0)
(0.192475 0.00179797 0)
(0.192008 0.00176426 0)
(0.19153 0.00173135 0)
(0.191044 0.00169923 0)
(0.190548 0.00166791 0)
(0.190042 0.00163739 0)
(0.189528 0.0016077 0)
(0.189005 0.00157888 0)
(0.188473 0.00155097 0)
(0.187932 0.00152406 0)
(0.187384 0.00149832 0)
(0.186827 0.00147404 0)
(0.186263 0.00145179 0)
(0.185696 0.00143218 0)
(0.185142 0.0014138 0)
(0.184473 0.00135403 0)
(0.197268 0.00694157 0)
(0.197994 0.00750313 0)
(0.198803 0.00781943 0)
(0.199596 0.00790843 0)
(0.200307 0.00782117 0)
(0.200907 0.00761129 0)
(0.201388 0.0073266 0)
(0.201755 0.00700706 0)
(0.202025 0.00668202 0)
(0.202217 0.00636949 0)
(0.202349 0.00607831 0)
(0.202436 0.00581139 0)
(0.20249 0.00556842 0)
(0.20252 0.00534751 0)
(0.202531 0.00514627 0)
(0.202528 0.00496226 0)
(0.202514 0.00479327 0)
(0.202491 0.00463734 0)
(0.202461 0.00449282 0)
(0.202424 0.0043583 0)
(0.202383 0.00423257 0)
(0.202336 0.00411462 0)
(0.202285 0.00400357 0)
(0.20223 0.00389868 0)
(0.202171 0.00379932 0)
(0.202109 0.00370494 0)
(0.202042 0.00361506 0)
(0.201971 0.00352929 0)
(0.201896 0.00344727 0)
(0.201816 0.00336869 0)
(0.201732 0.00329329 0)
(0.201643 0.00322081 0)
(0.201549 0.00315106 0)
(0.20145 0.00308386 0)
(0.201345 0.00301902 0)
(0.201234 0.00295641 0)
(0.201117 0.00289589 0)
(0.200993 0.00283734 0)
(0.200863 0.00278064 0)
(0.200725 0.0027257 0)
(0.20058 0.00267243 0)
(0.200428 0.00262073 0)
(0.200268 0.00257052 0)
(0.200101 0.00252174 0)
(0.199925 0.00247432 0)
(0.19974 0.00242818 0)
(0.199547 0.00238326 0)
(0.199345 0.00233953 0)
(0.199135 0.0022969 0)
(0.198915 0.00225535 0)
(0.198687 0.00221482 0)
(0.198449 0.00217527 0)
(0.198202 0.00213666 0)
(0.197945 0.00209895 0)
(0.197679 0.00206211 0)
(0.197403 0.00202611 0)
(0.197118 0.00199091 0)
(0.196823 0.00195651 0)
(0.196519 0.00192287 0)
(0.196205 0.00188998 0)
(0.195882 0.00185783 0)
(0.195549 0.00182641 0)
(0.195207 0.00179572 0)
(0.194855 0.00176577 0)
(0.194493 0.00173657 0)
(0.194122 0.00170814 0)
(0.193742 0.00168051 0)
(0.193353 0.00165375 0)
(0.192954 0.00162792 0)
(0.192546 0.00160319 0)
(0.192129 0.00157977 0)
(0.191705 0.00155797 0)
(0.191275 0.00153758 0)
(0.190854 0.00151478 0)
(0.19033 0.00144839 0)
(0.197521 0.00668733 0)
(0.198161 0.00719708 0)
(0.198877 0.00750301 0)
(0.19959 0.00761223 0)
(0.200243 0.00756227 0)
(0.200804 0.00739717 0)
(0.201262 0.00715788 0)
(0.201622 0.00687949 0)
(0.201893 0.0065888 0)
(0.202092 0.00630338 0)
(0.202233 0.00603285 0)
(0.202331 0.00578137 0)
(0.202395 0.00554983 0)
(0.202435 0.00533741 0)
(0.202455 0.00514251 0)
(0.202462 0.00496328 0)
(0.202457 0.00479794 0)
(0.202443 0.00464484 0)
(0.202423 0.00450254 0)
(0.202397 0.00436979 0)
(0.202366 0.0042455 0)
(0.202332 0.00412873 0)
(0.202294 0.00401869 0)
(0.202254 0.00391469 0)
(0.202212 0.00381614 0)
(0.202167 0.00372251 0)
(0.20212 0.00363336 0)
(0.202072 0.00354832 0)
(0.202021 0.00346703 0)
(0.201968 0.00338922 0)
(0.201914 0.00331461 0)
(0.201857 0.00324298 0)
(0.201798 0.00317413 0)
(0.201736 0.00310786 0)
(0.201672 0.00304403 0)
(0.201605 0.00298249 0)
(0.201534 0.00292309 0)
(0.201461 0.00286571 0)
(0.201384 0.00281026 0)
(0.201303 0.00275661 0)
(0.201218 0.00270468 0)
(0.201129 0.00265438 0)
(0.201035 0.00260561 0)
(0.200937 0.00255832 0)
(0.200834 0.00251242 0)
(0.200725 0.00246784 0)
(0.200611 0.00242452 0)
(0.200491 0.0023824 0)
(0.200365 0.00234142 0)
(0.200234 0.00230152 0)
(0.200095 0.00226267 0)
(0.199951 0.0022248 0)
(0.199799 0.00218788 0)
(0.199641 0.00215186 0)
(0.199476 0.00211671 0)
(0.199303 0.00208239 0)
(0.199123 0.00204888 0)
(0.198935 0.00201614 0)
(0.19874 0.00198415 0)
(0.198537 0.00195289 0)
(0.198326 0.00192235 0)
(0.198107 0.00189253 0)
(0.19788 0.00186341 0)
(0.197645 0.001835 0)
(0.197401 0.00180732 0)
(0.197149 0.00178038 0)
(0.196888 0.00175422 0)
(0.196619 0.00172889 0)
(0.196341 0.00170447 0)
(0.196055 0.00168107 0)
(0.19576 0.00165885 0)
(0.195457 0.00163785 0)
(0.19515 0.00161725 0)
(0.194846 0.00159187 0)
(0.194453 0.00152516 0)
(0.197751 0.00645528 0)
(0.198318 0.00691834 0)
(0.198953 0.00721151 0)
(0.199594 0.00733511 0)
(0.200191 0.00731599 0)
(0.200713 0.00718965 0)
(0.201149 0.00699086 0)
(0.201498 0.0067502 0)
(0.201768 0.00649189 0)
(0.20197 0.00623271 0)
(0.202119 0.00598269 0)
(0.202224 0.0057469 0)
(0.202297 0.00552722 0)
(0.202345 0.00532374 0)
(0.202373 0.00513558 0)
(0.202386 0.00496146 0)
(0.202388 0.00480002 0)
(0.202381 0.0046499 0)
(0.202366 0.0045099 0)
(0.202346 0.00437891 0)
(0.202322 0.00425598 0)
(0.202294 0.00414026 0)
(0.202263 0.00403104 0)
(0.20223 0.00392767 0)
(0.202195 0.00382961 0)
(0.202159 0.00373638 0)
(0.202122 0.00364757 0)
(0.202083 0.00356281 0)
(0.202044 0.00348179 0)
(0.202004 0.00340422 0)
(0.201963 0.00332987 0)
(0.201922 0.00325851 0)
(0.20188 0.00318995 0)
(0.201837 0.00312402 0)
(0.201793 0.00306055 0)
(0.201748 0.00299941 0)
(0.201702 0.00294046 0)
(0.201654 0.00288359 0)
(0.201605 0.00282869 0)
(0.201555 0.00277565 0)
(0.201503 0.00272438 0)
(0.201449 0.00267479 0)
(0.201392 0.00262679 0)
(0.201334 0.00258032 0)
(0.201272 0.00253528 0)
(0.201208 0.00249162 0)
(0.201141 0.00244927 0)
(0.201071 0.00240817 0)
(0.200997 0.00236825 0)
(0.20092 0.00232945 0)
(0.200839 0.00229174 0)
(0.200754 0.00225505 0)
(0.200665 0.00221933 0)
(0.200571 0.00218456 0)
(0.200473 0.00215067 0)
(0.200369 0.00211765 0)
(0.200261 0.00208545 0)
(0.200147 0.00205404 0)
(0.200028 0.00202341 0)
(0.199904 0.00199352 0)
(0.199773 0.00196437 0)
(0.199637 0.00193593 0)
(0.199494 0.00190822 0)
(0.199345 0.00188122 0)
(0.199189 0.00185495 0)
(0.199027 0.00182943 0)
(0.198858 0.0018047 0)
(0.198682 0.00178079 0)
(0.198498 0.00175777 0)
(0.198308 0.00173574 0)
(0.19811 0.00171476 0)
(0.197906 0.00169469 0)
(0.197697 0.00167426 0)
(0.197489 0.00164791 0)
(0.197204 0.00158559 0)
(0.197962 0.00624261 0)
(0.198465 0.00666387 0)
(0.19903 0.00694296 0)
(0.199606 0.00707623 0)
(0.20015 0.00708231 0)
(0.200635 0.00698933 0)
(0.201047 0.00682647 0)
(0.201384 0.00662022 0)
(0.20165 0.00639222 0)
(0.201854 0.00615826 0)
(0.202007 0.00592844 0)
(0.202119 0.00570844 0)
(0.202199 0.00550095 0)
(0.202253 0.00530682 0)
(0.202288 0.00512582 0)
(0.202307 0.00495719 0)
(0.202314 0.00479996 0)
(0.202312 0.00465308 0)
(0.202302 0.00451556 0)
(0.202287 0.00438647 0)
(0.202266 0.00426499 0)
(0.202242 0.00415036 0)
(0.202216 0.00404195 0)
(0.202187 0.00393917 0)
(0.202156 0.00384153 0)
(0.202124 0.00374858 0)
(0.202092 0.00365995 0)
(0.202058 0.00357529 0)
(0.202025 0.00349431 0)
(0.201991 0.00341675 0)
(0.201957 0.00334239 0)
(0.201922 0.003271 0)
(0.201888 0.00320241 0)
(0.201854 0.00313646 0)
(0.20182 0.00307299 0)
(0.201785 0.00301186 0)
(0.201751 0.00295296 0)
(0.201716 0.00289617 0)
(0.201681 0.00284138 0)
(0.201646 0.00278849 0)
(0.20161 0.0027374 0)
(0.201574 0.00268805 0)
(0.201537 0.00264033 0)
(0.201499 0.00259417 0)
(0.201461 0.00254951 0)
(0.201421 0.00250627 0)
(0.20138 0.00246438 0)
(0.201337 0.00242378 0)
(0.201293 0.00238441 0)
(0.201247 0.00234622 0)
(0.201199 0.00230915 0)
(0.201149 0.00227315 0)
(0.201097 0.00223816 0)
(0.201042 0.00220416 0)
(0.200985 0.00217109 0)
(0.200924 0.00213892 0)
(0.200861 0.00210761 0)
(0.200794 0.00207713 0)
(0.200724 0.00204745 0)
(0.200651 0.00201856 0)
(0.200573 0.00199043 0)
(0.200491 0.00196305 0)
(0.200406 0.00193642 0)
(0.200315 0.00191053 0)
(0.200221 0.0018854 0)
(0.200121 0.00186105 0)
(0.200016 0.0018375 0)
(0.199906 0.0018148 0)
(0.199791 0.001793 0)
(0.19967 0.00177216 0)
(0.199544 0.00175229 0)
(0.199412 0.00173308 0)
(0.199277 0.00171307 0)
(0.19914 0.00168698 0)
(0.19894 0.00163193 0)