/*--------------------------------*- C++ -*----------------------------------*\
| =========                 |                                                 |
| \\      /  F ield         | OpenFOAM: The Open Source CFD Toolbox           |
|  \\    /   O peration     | Version:  2.3.0                                 |
|   \\  /    A nd           | Web:      www.OpenFOAM.org                      |
|    \\/     M anipulation  |                                                 |
\*---------------------------------------------------------------------------*/
FoamFile
{
    version     2.0;
    format      ascii;
    class       surfaceScalarField;
    location    "0.15";
    object      phi_0;
}
// * * * * * * * * * * * * * * * * * * * * * * * * * * * * * * * * * * * * * //

dimensions      [0 3 -1 0 0 0 0];

internalField   nonuniform List<scalar> 
5764
(
2.01113e-08
4.97564e-09
-2.50869e-08
1.49657e-08
5.14553e-09
1.09681e-08
3.99763e-09
8.26239e-09
2.70571e-09
6.62289e-09
1.63951e-09
5.67765e-09
9.45233e-10
5.11236e-09
5.6529e-10
4.73753e-09
3.74837e-10
4.45356e-09
2.83962e-10
4.21651e-09
2.37055e-10
4.01114e-09
2.05372e-10
3.83167e-09
1.79465e-10
3.67444e-09
1.57233e-10
3.53657e-09
1.37866e-10
3.41503e-09
1.21543e-10
3.30724e-09
1.07789e-10
3.21192e-09
9.53156e-11
3.12795e-09
8.39739e-11
3.05364e-09
7.43102e-11
2.98766e-09
6.59798e-11
2.92959e-09
5.80744e-11
2.87939e-09
5.01975e-11
2.83671e-09
4.26827e-11
2.80075e-09
3.5953e-11
2.77096e-09
2.9794e-11
2.74747e-09
2.34865e-11
2.73086e-09
1.66162e-11
2.72134e-09
9.51719e-12
2.71847e-09
2.87065e-12
2.72094e-09
-2.47157e-12
2.72703e-09
-6.08634e-12
2.735e-09
-7.97169e-12
2.7436e-09
-8.59776e-12
2.75199e-09
-8.39888e-12
2.75978e-09
-7.78637e-12
2.7668e-09
-7.01738e-12
2.77306e-09
-6.26347e-12
2.77864e-09
-5.57713e-12
2.78361e-09
-4.97154e-12
2.78806e-09
-4.44481e-12
2.79204e-09
-3.98528e-12
2.79562e-09
-3.57647e-12
2.79882e-09
-3.20302e-12
2.80167e-09
-2.85303e-12
2.8042e-09
-2.52344e-12
2.80641e-09
-2.21515e-12
2.80835e-09
-1.93361e-12
2.81003e-09
-1.68197e-12
2.81149e-09
-1.46296e-12
2.81277e-09
-1.27482e-12
2.81388e-09
-1.11504e-12
2.81486e-09
-9.79109e-13
2.81572e-09
-8.62846e-13
2.81648e-09
-7.62548e-13
2.81716e-09
-6.74868e-13
2.81776e-09
-5.97883e-13
2.81829e-09
-5.29327e-13
2.81876e-09
-4.68659e-13
2.81917e-09
-4.13874e-13
2.81954e-09
-3.6575e-13
2.81986e-09
-3.21365e-13
2.82014e-09
-2.83502e-13
2.82039e-09
-2.47115e-13
2.8206e-09
-2.17588e-13
2.82079e-09
-1.87742e-13
2.82096e-09
-1.64408e-13
2.8211e-09
-1.40264e-13
2.82122e-09
-1.21609e-13
2.82132e-09
-1.01501e-13
2.82141e-09
-8.75072e-14
2.82148e-09
-6.97356e-14
2.82154e-09
-5.95791e-14
2.82158e-09
-4.46476e-14
2.82162e-09
-3.76007e-14
-2.72753e-14
2.70127e-08
4.82233e-09
-2.68594e-08
2.56736e-08
6.48459e-09
2.36321e-08
6.0392e-09
2.14528e-08
4.88494e-09
1.94313e-08
3.66101e-09
1.7682e-08
2.6946e-09
1.62162e-08
2.03102e-09
1.50117e-08
1.57936e-09
1.40285e-08
1.2672e-09
1.32205e-08
1.04504e-09
1.25456e-08
8.80317e-10
1.19704e-08
7.54665e-10
1.14718e-08
6.55779e-10
1.1035e-08
5.74658e-10
1.06496e-08
5.0697e-10
1.03081e-08
4.4931e-10
1.00054e-08
3.98011e-10
9.73724e-09
3.52107e-10
9.49955e-09
3.11997e-10
9.28922e-09
2.76311e-10
9.10456e-09
2.42739e-10
8.94445e-09
2.103e-10
8.80751e-09
1.7963e-10
8.69209e-09
1.51363e-10
8.59722e-09
1.24674e-10
8.5228e-09
9.79003e-11
8.46893e-09
7.0491e-11
8.43468e-09
4.37677e-11
8.41767e-09
1.98804e-11
8.41429e-09
9.09688e-13
8.42036e-09
-1.21567e-11
8.43196e-09
-1.95727e-11
8.44619e-09
-2.28293e-11
8.46111e-09
-2.33251e-11
8.47565e-09
-2.23216e-11
8.48928e-09
-2.06469e-11
8.50185e-09
-1.88365e-11
8.51336e-09
-1.70892e-11
8.52387e-09
-1.54725e-11
8.53342e-09
-1.39961e-11
8.54207e-09
-1.26404e-11
8.54987e-09
-1.13757e-11
8.55685e-09
-1.01792e-11
8.56303e-09
-9.03909e-12
8.56847e-09
-7.96335e-12
8.57322e-09
-6.96544e-12
8.57735e-09
-6.0643e-12
8.58094e-09
-5.2683e-12
8.58406e-09
-4.58155e-12
8.58678e-09
-3.9951e-12
8.58916e-09
-3.49856e-12
8.59126e-09
-3.07595e-12
8.59311e-09
-2.71447e-12
8.59475e-09
-2.40144e-12
8.5962e-09
-2.12793e-12
8.59749e-09
-1.88658e-12
8.59863e-09
-1.6723e-12
8.59965e-09
-1.48139e-12
8.60054e-09
-1.31025e-12
8.60134e-09
-1.15805e-12
8.60203e-09
-1.01992e-12
8.60265e-09
-8.99091e-13
8.60319e-09
-7.866e-13
8.60366e-09
-6.91374e-13
8.60408e-09
-5.99301e-13
8.60443e-09
-5.2404e-13
8.60474e-09
-4.48717e-13
8.60501e-09
-3.89177e-13
8.60524e-09
-3.2579e-13
8.60543e-09
-2.80942e-13
8.60558e-09
-2.24531e-13
8.60572e-09
-1.92727e-13
8.60581e-09
-1.42207e-13
8.6059e-09
-1.23759e-13
-8.37848e-14
2.8379e-08
4.15347e-09
-2.77101e-08
2.87204e-08
6.14318e-09
2.83963e-08
6.3633e-09
2.7646e-08
5.63519e-09
2.66724e-08
4.63464e-09
2.56108e-08
3.75624e-09
2.45312e-08
3.11052e-09
2.34679e-08
2.64268e-09
2.24522e-08
2.28291e-09
2.15099e-08
1.98731e-09
2.06518e-08
1.73844e-09
1.9874e-08
1.53252e-09
1.91671e-08
1.36268e-09
1.85236e-08
1.21809e-09
1.7939e-08
1.09161e-09
1.74094e-08
9.78864e-10
1.69311e-08
8.76363e-10
1.64998e-08
7.83397e-10
1.61116e-08
7.0015e-10
1.57636e-08
6.24373e-10
1.54537e-08
5.52659e-10
1.51805e-08
4.83482e-10
1.49425e-08
4.17638e-10
1.47379e-08
3.55903e-10
1.45656e-08
2.96963e-10
1.44251e-08
2.3845e-10
1.43158e-08
1.7982e-10
1.42361e-08
1.23445e-10
1.41829e-08
7.30889e-11
1.41516e-08
3.21753e-11
1.4137e-08
2.44991e-12
1.41338e-08
-1.63444e-11
1.41378e-08
-2.68627e-11
1.4146e-08
-3.15634e-11
1.41565e-08
-3.27576e-11
1.41679e-08
-3.2058e-11
1.41796e-08
-3.05583e-11
1.41913e-08
-2.8745e-11
1.42026e-08
-2.68362e-11
1.42135e-08
-2.49084e-11
1.42239e-08
-2.29651e-11
1.42335e-08
-2.09886e-11
1.42423e-08
-1.89766e-11
1.42502e-08
-1.69519e-11
1.42572e-08
-1.49705e-11
1.42633e-08
-1.30931e-11
1.42686e-08
-1.13795e-11
1.42732e-08
-9.86088e-12
1.42772e-08
-8.55206e-12
1.42807e-08
-7.43849e-12
1.42837e-08
-6.50075e-12
1.42863e-08
-5.70646e-12
1.42886e-08
-5.03122e-12
1.42906e-08
-4.44808e-12
1.42925e-08
-3.94133e-12
1.42941e-08
-3.49405e-12
1.42955e-08
-3.09891e-12
1.42968e-08
-2.74568e-12
1.42979e-08
-2.43099e-12
1.42989e-08
-2.14896e-12
1.42997e-08
-1.89573e-12
1.43005e-08
-1.6708e-12
1.43012e-08
-1.46526e-12
1.43018e-08
-1.28708e-12
1.43023e-08
-1.11875e-12
1.43028e-08
-9.78143e-13
1.43032e-08
-8.39105e-13
1.43035e-08
-7.28825e-13
1.43038e-08
-6.10631e-13
1.4304e-08
-5.27787e-13
1.43042e-08
-4.21712e-13
1.43044e-08
-3.64123e-13
1.43045e-08
-2.65756e-13
1.43046e-08
-2.34815e-13
-1.54162e-13
2.91791e-08
3.72691e-09
-2.87525e-08
2.98059e-08
5.51635e-09
3.00984e-08
6.07086e-09
3.00732e-08
5.66032e-09
2.9828e-08
4.87991e-09
2.94502e-08
4.13404e-09
2.89867e-08
3.57396e-09
2.84474e-08
3.18203e-09
2.78435e-08
2.88683e-09
2.72045e-08
2.62624e-09
2.65646e-08
2.37834e-09
2.59421e-08
2.155e-09
2.53382e-08
1.96662e-09
2.47503e-08
1.80595e-09
2.41822e-08
1.6597e-09
2.36412e-08
1.51994e-09
2.31316e-08
1.38594e-09
2.26544e-08
1.26061e-09
2.22096e-08
1.14496e-09
2.17979e-08
1.03604e-09
2.14204e-08
9.30153e-10
2.10778e-08
8.26044e-10
2.07704e-08
7.25038e-10
2.04981e-08
6.28281e-10
2.02606e-08
5.34442e-10
2.0058e-08
4.41068e-10
1.98899e-08
3.47924e-10
1.97551e-08
2.58213e-10
1.96513e-08
1.76932e-10
1.95746e-08
1.08837e-10
1.95204e-08
5.65995e-11
1.94841e-08
2.0035e-11
1.94609e-08
-3.66941e-12
1.94473e-08
-1.79885e-11
1.94406e-08
-2.60256e-11
1.94387e-08
-3.01463e-11
1.94402e-08
-3.20849e-11
1.94442e-08
-3.27415e-11
1.945e-08
-3.26191e-11
1.9457e-08
-3.19542e-11
1.94649e-08
-3.08175e-11
1.94731e-08
-2.92163e-11
1.94813e-08
-2.71781e-11
1.94891e-08
-2.47837e-11
1.94963e-08
-2.21825e-11
1.95028e-08
-1.95406e-11
1.95084e-08
-1.702e-11
1.95133e-08
-1.47261e-11
1.95175e-08
-1.27231e-11
1.9521e-08
-1.10123e-11
1.95241e-08
-9.57747e-12
1.95268e-08
-8.37066e-12
1.95291e-08
-7.35607e-12
1.95311e-08
-6.48724e-12
1.95329e-08
-5.7403e-12
1.95345e-08
-5.08387e-12
1.95359e-08
-4.50865e-12
1.95372e-08
-3.99405e-12
1.95383e-08
-3.53889e-12
1.95393e-08
-3.12866e-12
1.95401e-08
-2.76364e-12
1.95409e-08
-2.43587e-12
1.95416e-08
-2.13995e-12
1.95422e-08
-1.87992e-12
1.95427e-08
-1.63665e-12
1.95431e-08
-1.43216e-12
1.95435e-08
-1.22927e-12
1.95439e-08
-1.06978e-12
1.95442e-08
-8.95935e-13
1.95444e-08
-7.76282e-13
1.95446e-08
-6.18991e-13
1.95448e-08
-5.36963e-13
1.95449e-08
-3.88606e-13
1.9545e-08
-3.44999e-13
-2.20311e-13
3.00653e-08
3.48433e-09
-2.98227e-08
3.06286e-08
4.95308e-09
3.10487e-08
5.65075e-09
3.12485e-08
5.46048e-09
3.1286e-08
4.84245e-09
3.12317e-08
4.18828e-09
3.11251e-08
3.68057e-09
3.09629e-08
3.34428e-09
3.07269e-08
3.12277e-09
3.04216e-08
2.93152e-09
3.00785e-08
2.7215e-09
2.97264e-08
2.50709e-09
2.93695e-08
2.32355e-09
2.89976e-08
2.17783e-09
2.8609e-08
2.04829e-09
2.82142e-08
1.91473e-09
2.78238e-08
1.7763e-09
2.74418e-08
1.64266e-09
2.70691e-08
1.51763e-09
2.67085e-08
1.39667e-09
2.63639e-08
1.27471e-09
2.6039e-08
1.15097e-09
2.57362e-08
1.02788e-09
2.54573e-08
9.07153e-10
2.52042e-08
7.87552e-10
2.49783e-08
6.66951e-10
2.47804e-08
5.45807e-10
2.46106e-08
4.28064e-10
2.4468e-08
3.19479e-10
2.43512e-08
2.25704e-10
2.42574e-08
1.50371e-10
2.41836e-08
9.38583e-11
2.41264e-08
5.34442e-11
2.4083e-08
2.54113e-11
2.40507e-08
6.27226e-12
2.40273e-08
-6.68315e-12
2.40109e-08
-1.56513e-11
2.4e-08
-2.18935e-11
2.39937e-08
-2.62754e-11
2.3991e-08
-2.92965e-11
2.39913e-08
-3.11515e-11
2.3994e-08
-3.18646e-11
2.39982e-08
-3.14434e-11
2.40034e-08
-2.99791e-11
2.4009e-08
-2.77029e-11
2.40143e-08
-2.49179e-11
2.40193e-08
-2.19547e-11
2.40236e-08
-1.90691e-11
2.40273e-08
-1.64481e-11
2.40305e-08
-1.41616e-11
2.40332e-08
-1.22338e-11
2.40354e-08
-1.06179e-11
2.40373e-08
-9.27617e-12
2.4039e-08
-8.14137e-12
2.40404e-08
-7.18149e-12
2.40417e-08
-6.34582e-12
2.40428e-08
-5.62282e-12
2.40438e-08
-4.97749e-12
2.40446e-08
-4.41222e-12
2.40454e-08
-3.90063e-12
2.40461e-08
-3.4496e-12
2.40467e-08
-3.04116e-12
2.40472e-08
-2.67545e-12
2.40477e-08
-2.35171e-12
2.40481e-08
-2.04918e-12
2.40485e-08
-1.79545e-12
2.40488e-08
-1.54086e-12
2.40491e-08
-1.34315e-12
2.40493e-08
-1.12354e-12
2.40495e-08
-9.74968e-13
2.40497e-08
-7.74417e-13
2.40498e-08
-6.73208e-13
2.40499e-08
-4.82455e-13
2.405e-08
-4.2774e-13
-2.61939e-13
3.10254e-08
3.33588e-09
-3.0877e-08
3.14815e-08
4.49702e-09
3.19048e-08
5.22742e-09
3.21617e-08
5.20364e-09
3.22797e-08
4.72443e-09
3.23253e-08
4.14271e-09
3.23459e-08
3.65996e-09
3.23483e-08
3.34185e-09
3.23064e-08
3.16467e-09
3.22027e-08
3.03524e-09
3.20563e-08
2.86788e-09
3.1901e-08
2.66242e-09
3.17463e-08
2.4782e-09
3.15759e-08
2.34824e-09
3.13771e-08
2.24714e-09
3.11564e-08
2.13539e-09
3.09271e-08
2.00565e-09
3.06941e-08
1.87564e-09
3.04561e-08
1.75565e-09
3.02133e-08
1.63947e-09
2.99697e-08
1.5183e-09
2.97299e-08
1.39076e-09
2.9497e-08
1.26076e-09
2.92733e-08
1.13088e-09
2.90611e-08
9.99705e-10
2.8863e-08
8.65141e-10
2.86804e-08
7.28324e-10
2.85147e-08
5.93796e-10
2.83666e-08
4.67586e-10
2.82366e-08
3.55724e-10
2.81243e-08
2.62603e-10
2.80289e-08
1.89294e-10
2.79488e-08
1.33537e-10
2.78825e-08
9.17486e-11
2.78283e-08
6.0429e-11
2.77848e-08
3.68513e-11
2.77503e-08
1.8876e-11
2.77233e-08
5.08251e-12
2.77027e-08
-5.65227e-12
2.76875e-08
-1.41508e-11
2.76772e-08
-2.08107e-11
2.7671e-08
-2.56913e-11
2.76683e-08
-2.87134e-11
2.76681e-08
-2.98588e-11
2.76698e-08
-2.93307e-11
2.76724e-08
-2.75056e-11
2.76753e-08
-2.48843e-11
2.76781e-08
-2.19191e-11
2.76807e-08
-1.8992e-11
2.76828e-08
-1.63104e-11
2.76846e-08
-1.39976e-11
2.7686e-08
-1.2045e-11
2.76872e-08
-1.04366e-11
2.76881e-08
-9.09316e-12
2.76889e-08
-7.9792e-12
2.76896e-08
-7.0229e-12
2.76902e-08
-6.21066e-12
2.76907e-08
-5.48985e-12
2.76912e-08
-4.86711e-12
2.76916e-08
-4.30193e-12
2.76919e-08
-3.80895e-12
2.76922e-08
-3.35933e-12
2.76925e-08
-2.95915e-12
2.76928e-08
-2.60361e-12
2.7693e-08
-2.26985e-12
2.76932e-08
-1.99162e-12
2.76934e-08
-1.70819e-12
2.76935e-08
-1.4905e-12
2.76936e-08
-1.24398e-12
2.76937e-08
-1.07964e-12
2.76938e-08
-8.51645e-13
2.76939e-08
-7.39565e-13
2.76939e-08
-5.21071e-13
2.7694e-08
-4.5901e-13
-2.61437e-13
3.203e-08
3.22904e-09
-3.19232e-08
3.23867e-08
4.14041e-09
3.2782e-08
4.83209e-09
3.30581e-08
4.92753e-09
3.32054e-08
4.57714e-09
3.32763e-08
4.07175e-09
3.33237e-08
3.6126e-09
3.33707e-08
3.29485e-09
3.34006e-08
3.13478e-09
3.33873e-08
3.04858e-09
3.33362e-08
2.91899e-09
3.3279e-08
2.71956e-09
3.32321e-08
2.52517e-09
3.31803e-08
2.39998e-09
3.31048e-08
2.32266e-09
3.30066e-08
2.23355e-09
3.28988e-08
2.11347e-09
3.27873e-08
1.98719e-09
3.26684e-08
1.87449e-09
3.2539e-08
1.76892e-09
3.24008e-08
1.65642e-09
3.22582e-08
1.53342e-09
3.21136e-08
1.40537e-09
3.19682e-08
1.27628e-09
3.18235e-08
1.14439e-09
3.16816e-08
1.00707e-09
3.15441e-08
8.65765e-10
3.14125e-08
7.25389e-10
3.12883e-08
5.91861e-10
3.11729e-08
4.71029e-10
3.10679e-08
3.67624e-10
3.09738e-08
2.83434e-10
3.08905e-08
2.16863e-10
3.08176e-08
1.64576e-10
3.07549e-08
1.23177e-10
3.07016e-08
9.01099e-11
3.06569e-08
6.35542e-11
3.06198e-08
4.22608e-11
3.05891e-08
2.5044e-11
3.05641e-08
1.08216e-11
3.05444e-08
-1.08858e-12
3.05295e-08
-1.08586e-11
3.05192e-08
-1.83277e-11
3.05126e-08
-2.3275e-11
3.0509e-08
-2.5732e-11
3.05075e-08
-2.60058e-11
3.05073e-08
-2.46759e-11
3.05077e-08
-2.23552e-11
3.05084e-08
-1.96389e-11
3.0509e-08
-1.6913e-11
3.05094e-08
-1.44516e-11
3.05097e-08
-1.23259e-11
3.05098e-08
-1.05741e-11
3.05099e-08
-9.12332e-12
3.05098e-08
-7.94564e-12
3.05098e-08
-6.95168e-12
3.05097e-08
-6.12824e-12
3.05096e-08
-5.40416e-12
3.05095e-08
-4.79091e-12
3.05094e-08
-4.23325e-12
3.05094e-08
-3.75355e-12
3.05093e-08
-3.31285e-12
3.05093e-08
-2.92267e-12
3.05093e-08
-2.57514e-12
3.05093e-08
-2.24607e-12
3.05092e-08
-1.97372e-12
3.05092e-08
-1.69094e-12
3.05092e-08
-1.47582e-12
3.05092e-08
-1.22652e-12
3.05092e-08
-1.06266e-12
3.05091e-08
-8.27679e-13
3.05091e-08
-7.14941e-13
3.05091e-08
-4.86892e-13
3.0509e-08
-4.22721e-13
-2.08082e-13
3.30661e-08
3.13467e-09
-3.29717e-08
3.33432e-08
3.86331e-09
3.36969e-08
4.47841e-09
3.39779e-08
4.64655e-09
3.4145e-08
4.41002e-09
3.42284e-08
3.9883e-09
3.42775e-08
3.56354e-09
3.43263e-08
3.24609e-09
3.43732e-08
3.08787e-09
3.43949e-08
3.02686e-09
3.4386e-08
2.92792e-09
3.43691e-08
2.73645e-09
3.43631e-08
2.53113e-09
3.43603e-08
2.40275e-09
3.43432e-08
2.33976e-09
3.43091e-08
2.26763e-09
3.42684e-08
2.15425e-09
3.42269e-08
2.02862e-09
3.41812e-08
1.92019e-09
3.41262e-08
1.82397e-09
3.40618e-08
1.72079e-09
3.39912e-08
1.60406e-09
3.39161e-08
1.4805e-09
3.38365e-08
1.35587e-09
3.37526e-08
1.22827e-09
3.36655e-08
1.09419e-09
3.35763e-08
9.54946e-10
3.3486e-08
8.1566e-10
3.3396e-08
6.81912e-10
3.3308e-08
5.58962e-10
3.32242e-08
4.51461e-10
3.31459e-08
3.6176e-10
3.30737e-08
2.88974e-10
3.30082e-08
2.30129e-10
3.29494e-08
1.8193e-10
3.28976e-08
1.41945e-10
3.28524e-08
1.08707e-10
3.28134e-08
8.13235e-11
3.27797e-08
5.87563e-11
3.27507e-08
3.97832e-11
3.27262e-08
2.3426e-11
3.2706e-08
9.30499e-12
3.26901e-08
-2.4278e-12
3.26782e-08
-1.13616e-11
3.26698e-08
-1.7286e-11
3.26641e-08
-2.03135e-11
3.26604e-08
-2.09752e-11
3.2658e-08
-1.99458e-11
3.26563e-08
-1.79823e-11
3.2655e-08
-1.56354e-11
3.26539e-08
-1.33432e-11
3.26529e-08
-1.12804e-11
3.26519e-08
-9.56373e-12
3.26509e-08
-8.14587e-12
3.265e-08
-7.02064e-12
3.26491e-08
-6.08885e-12
3.26483e-08
-5.34271e-12
3.26476e-08
-4.69476e-12
3.2647e-08
-4.16237e-12
3.26464e-08
-3.67696e-12
3.26459e-08
-3.26813e-12
3.26455e-08
-2.88841e-12
3.26452e-08
-2.55455e-12
3.26448e-08
-2.25575e-12
3.26446e-08
-1.96899e-12
3.26443e-08
-1.73341e-12
3.26441e-08
-1.48195e-12
3.26439e-08
-1.29246e-12
3.26438e-08
-1.06536e-12
3.26436e-08
-9.18549e-13
3.26435e-08
-6.97775e-13
3.26434e-08
-5.94856e-13
3.26433e-08
-3.75544e-13
3.26431e-08
-3.14773e-13
-9.99892e-14
3.41264e-08
3.04058e-09
-3.40323e-08
3.43478e-08
3.64187e-09
3.46554e-08
4.17087e-09
3.49287e-08
4.3732e-09
3.51094e-08
4.22938e-09
3.52051e-08
3.89256e-09
3.52557e-08
3.51297e-09
3.52978e-08
3.20395e-09
3.53434e-08
3.0423e-09
3.53786e-08
2.99165e-09
3.53919e-08
2.91465e-09
3.53929e-08
2.73539e-09
3.53978e-08
2.52628e-09
3.54072e-08
2.3933e-09
3.5411e-08
2.33603e-09
3.54049e-08
2.27369e-09
3.53945e-08
2.16467e-09
3.53843e-08
2.0388e-09
3.53723e-08
1.93216e-09
3.53544e-08
1.84192e-09
3.53295e-08
1.7457e-09
3.52993e-08
1.6342e-09
3.5265e-08
1.51481e-09
3.5226e-08
1.39485e-09
3.51818e-08
1.27251e-09
3.51325e-08
1.14348e-09
3.50787e-08
1.00879e-09
3.50208e-08
8.73564e-10
3.49597e-08
7.42984e-10
3.48971e-08
6.21581e-10
3.48349e-08
5.13633e-10
3.47748e-08
4.21814e-10
3.47179e-08
3.45902e-10
3.46647e-08
2.83368e-10
3.46156e-08
2.31037e-10
3.4571e-08
1.86527e-10
3.45311e-08
1.48632e-10
3.44956e-08
1.16816e-10
3.4464e-08
9.02992e-11
3.44359e-08
6.78509e-11
3.44111e-08
4.8262e-11
3.43895e-08
3.09043e-11
3.43713e-08
1.58209e-11
3.43564e-08
3.51334e-12
3.43447e-08
-5.60197e-12
3.43358e-08
-1.14065e-11
3.43291e-08
-1.42998e-11
3.43241e-08
-1.49177e-11
3.43202e-08
-1.4095e-11
3.43171e-08
-1.24895e-11
3.43144e-08
-1.06767e-11
3.4312e-08
-8.92772e-12
3.43099e-08
-7.44479e-12
3.4308e-08
-6.21678e-12
3.43062e-08
-5.2701e-12
3.43047e-08
-4.50432e-12
3.43032e-08
-3.92333e-12
3.4302e-08
-3.42759e-12
3.43009e-08
-3.04237e-12
3.42999e-08
-2.68829e-12
3.4299e-08
-2.40226e-12
3.42982e-08
-2.12985e-12
3.42976e-08
-1.89377e-12
3.4297e-08
-1.67938e-12
3.42965e-08
-1.46847e-12
3.42961e-08
-1.29663e-12
3.42957e-08
-1.10359e-12
3.42954e-08
-9.59978e-13
3.42951e-08
-7.77099e-13
3.42948e-08
-6.61733e-13
3.42946e-08
-4.73775e-13
3.42944e-08
-3.89889e-13
3.42942e-08
-1.95061e-13
3.4294e-08
-1.42528e-13
5.69505e-14
3.52086e-08
2.94481e-09
-3.51128e-08
3.53944e-08
3.45607e-09
3.56588e-08
3.90646e-09
3.5915e-08
4.11696e-09
3.6101e-08
4.04342e-09
3.62083e-08
3.78525e-09
3.62641e-08
3.45716e-09
3.63018e-08
3.16623e-09
3.6342e-08
3.00214e-09
3.63824e-08
2.95128e-09
3.64101e-08
2.88696e-09
3.64224e-08
2.72304e-09
3.6429e-08
2.51971e-09
3.64374e-08
2.38488e-09
3.64464e-08
2.32701e-09
3.64522e-08
2.26792e-09
3.64546e-08
2.1623e-09
3.64555e-08
2.03786e-09
3.64551e-08
1.93255e-09
3.64516e-08
1.84543e-09
3.64439e-08
1.75345e-09
3.64321e-08
1.64592e-09
3.64168e-08
1.53014e-09
3.63975e-08
1.4142e-09
3.63735e-08
1.2965e-09
3.63446e-08
1.17238e-09
3.63108e-08
1.04259e-09
3.62722e-08
9.12116e-10
3.62295e-08
7.85696e-10
3.61839e-08
6.67185e-10
3.61371e-08
5.60397e-10
3.60908e-08
4.68111e-10
3.60461e-08
3.90639e-10
3.60035e-08
3.25925e-10
3.59636e-08
2.70988e-10
3.59266e-08
2.23498e-10
3.58929e-08
1.82394e-10
3.58623e-08
1.47403e-10
3.58346e-08
1.17995e-10
3.58094e-08
9.3024e-11
3.57865e-08
7.11565e-11
3.57659e-08
5.15546e-11
3.57476e-08
3.40981e-11
3.57318e-08
1.92761e-11
3.57186e-08
7.61291e-12
3.57078e-08
-5.89048e-13
3.56991e-08
-5.58398e-12
3.56921e-08
-7.91157e-12
3.56864e-08
-8.41079e-12
3.56817e-08
-7.77961e-12
3.56777e-08
-6.68252e-12
3.56742e-08
-5.46061e-12
3.56711e-08
-4.39057e-12
3.56684e-08
-3.49774e-12
3.5666e-08
-2.8461e-12
3.56638e-08
-2.34025e-12
3.56619e-08
-2.00124e-12
3.56602e-08
-1.7222e-12
3.56587e-08
-1.53876e-12
3.56574e-08
-1.36363e-12
3.56562e-08
-1.24174e-12
3.56552e-08
-1.11285e-12
3.56543e-08
-1.00716e-12
3.56535e-08
-9.04602e-13
3.56529e-08
-7.95746e-13
3.56523e-08
-7.08325e-13
3.56518e-08
-5.94691e-13
3.56513e-08
-5.12414e-13
3.56509e-08
-3.90743e-13
3.56506e-08
-3.17805e-13
3.56503e-08
-1.76871e-13
3.565e-08
-1.19133e-13
3.56498e-08
3.93737e-14
3.56496e-08
7.9945e-14
2.52472e-13
3.63137e-08
2.84945e-09
-3.62183e-08
3.64769e-08
3.29289e-09
3.67052e-08
3.67817e-09
3.69394e-08
3.88269e-09
3.71232e-08
3.85965e-09
3.72392e-08
3.6693e-09
3.73024e-08
3.39396e-09
3.73397e-08
3.1289e-09
3.73754e-08
2.9664e-09
3.74173e-08
2.90945e-09
3.74544e-08
2.84986e-09
3.74752e-08
2.7022e-09
3.74825e-08
2.51242e-09
3.74878e-08
2.37956e-09
3.74975e-08
2.31733e-09
3.75088e-08
2.25663e-09
3.75169e-08
2.15416e-09
3.75211e-08
2.03366e-09
3.75233e-08
1.93038e-09
3.75242e-08
1.84454e-09
3.75228e-08
1.75484e-09
3.75181e-08
1.65058e-09
3.75099e-08
1.53834e-09
3.74981e-08
1.426e-09
3.74824e-08
1.31218e-09
3.74625e-08
1.19234e-09
3.74379e-08
1.06715e-09
3.74088e-08
9.41275e-10
3.73755e-08
8.18972e-10
3.73391e-08
7.03559e-10
3.73011e-08
5.98433e-10
3.72628e-08
5.06342e-10
3.72255e-08
4.27955e-10
3.71898e-08
3.6167e-10
3.7156e-08
3.0479e-10
3.71244e-08
2.55095e-10
3.70952e-08
2.11609e-10
3.70684e-08
1.742e-10
3.70439e-08
1.42516e-10
3.70213e-08
1.15532e-10
3.70006e-08
9.18921e-11
3.69815e-08
7.06335e-11
3.69642e-08
5.14805e-11
3.69486e-08
3.48447e-11
3.69349e-08
2.12598e-11
3.69232e-08
1.11323e-11
3.69133e-08
4.31736e-12
3.6905e-08
3.83942e-13
3.68981e-08
-1.46851e-12
3.68922e-08
-1.92533e-12
3.68872e-08
-1.69342e-12
3.68829e-08
-1.15116e-12
3.68792e-08
-6.3163e-13
3.68759e-08
-1.89724e-13
3.68729e-08
7.30637e-14
3.68704e-08
2.4395e-13
3.68681e-08
2.8072e-13
3.68661e-08
2.93809e-13
3.68643e-08
2.34684e-13
3.68627e-08
1.96217e-13
3.68614e-08
1.2409e-13
3.68602e-08
8.39592e-14
3.68591e-08
3.60684e-14
3.68582e-08
7.81771e-15
3.68574e-08
-3.83141e-15
3.68567e-08
-1.50495e-14
3.68561e-08
4.54519e-15
3.68556e-08
1.4859e-14
3.68551e-08
6.35586e-14
3.68547e-08
8.6519e-14
3.68544e-08
1.70764e-13
3.68541e-08
1.97386e-13
3.68538e-08
3.1166e-13
3.68535e-08
3.37648e-13
4.75816e-13
3.74441e-08
2.75688e-09
-3.73516e-08
3.75916e-08
3.14542e-09
3.77912e-08
3.47862e-09
3.80026e-08
3.6713e-09
3.81789e-08
3.6833e-09
3.82997e-08
3.54847e-09
3.83703e-08
3.32334e-09
3.84104e-08
3.08886e-09
3.84442e-08
2.93255e-09
3.8486e-08
2.86765e-09
3.85283e-08
2.80759e-09
3.85551e-08
2.67536e-09
3.85642e-08
2.50341e-09
3.8568e-08
2.37566e-09
3.85778e-08
2.30761e-09
3.85918e-08
2.2426e-09
3.86027e-08
2.14323e-09
3.86079e-08
2.0285e-09
3.86102e-08
1.92807e-09
3.86121e-08
1.84262e-09
3.86128e-08
1.7541e-09
3.86105e-08
1.6529e-09
3.86044e-08
1.54442e-09
3.85949e-08
1.43555e-09
3.8582e-08
1.3251e-09
3.85652e-08
1.20908e-09
3.85442e-08
1.08815e-09
3.85189e-08
9.66566e-10
3.84898e-08
8.48077e-10
3.84578e-08
7.35603e-10
3.8424e-08
6.3222e-10
3.83898e-08
5.40563e-10
3.83562e-08
4.61516e-10
3.8324e-08
3.9387e-10
3.82935e-08
3.35281e-10
3.82649e-08
2.83715e-10
3.82383e-08
2.38264e-10
3.82136e-08
1.98843e-10
3.81909e-08
1.65192e-10
3.81701e-08
1.36403e-10
3.81508e-08
1.11171e-10
3.81329e-08
8.84955e-11
3.81164e-08
6.79874e-11
3.81013e-08
4.99597e-11
3.80877e-08
3.48888e-11
3.80756e-08
2.32118e-11
3.80651e-08
1.48438e-11
3.8056e-08
9.44828e-12
3.80483e-08
6.27879e-12
3.80416e-08
4.694e-12
3.8036e-08
3.97855e-12
3.80311e-08
3.74401e-12
3.80268e-08
3.61869e-12
3.80231e-08
3.52704e-12
3.80198e-08
3.33265e-12
3.8017e-08
3.11376e-12
3.80144e-08
2.80462e-12
3.80122e-08
2.51673e-12
3.80103e-08
2.18641e-12
3.80086e-08
1.91068e-12
3.80071e-08
1.62419e-12
3.80057e-08
1.39815e-12
3.80046e-08
1.18115e-12
3.80036e-08
1.00977e-12
3.80027e-08
8.65381e-13
3.8002e-08
7.46359e-13
3.80013e-08
6.62312e-13
3.80007e-08
5.93822e-13
3.80002e-08
5.61954e-13
3.79998e-08
5.30031e-13
3.79994e-08
5.51515e-13
3.79991e-08
5.43727e-13
3.79988e-08
6.08943e-13
3.79985e-08
6.18595e-13
7.1832e-13
3.86023e-08
2.66839e-09
-3.85139e-08
3.87372e-08
3.01051e-09
3.8914e-08
3.30191e-09
3.91039e-08
3.48133e-09
3.92701e-08
3.51712e-09
3.93923e-08
3.42629e-09
3.9469e-08
3.24665e-09
3.95133e-08
3.04455e-09
3.95477e-08
2.89814e-09
3.95892e-08
2.82617e-09
3.96335e-08
2.7633e-09
3.9664e-08
2.64483e-09
3.96756e-08
2.49179e-09
3.96803e-08
2.37101e-09
3.96904e-08
2.29746e-09
3.97056e-08
2.22741e-09
3.97178e-08
2.13103e-09
3.97235e-08
2.02279e-09
3.97259e-08
1.92572e-09
3.9728e-08
1.84045e-09
3.97294e-08
1.75274e-09
3.97277e-08
1.65459e-09
3.97221e-08
1.55005e-09
3.9713e-08
1.44465e-09
3.97008e-08
1.33734e-09
3.9685e-08
1.22486e-09
3.96651e-08
1.10798e-09
3.96413e-08
9.9041e-10
3.96139e-08
8.75441e-10
3.95838e-08
7.65702e-10
3.9552e-08
6.64032e-10
3.95197e-08
5.72915e-10
3.94878e-08
4.93341e-10
3.94573e-08
4.24438e-10
3.94283e-08
3.64235e-10
3.94011e-08
3.10947e-10
3.93756e-08
2.63743e-10
3.93519e-08
2.22526e-10
3.93301e-08
1.87062e-10
3.93099e-08
1.5654e-10
3.92914e-08
1.29744e-10
3.92741e-08
1.05702e-10
3.92582e-08
8.39612e-11
3.92434e-08
6.47404e-11
3.92299e-08
4.84255e-11
3.92176e-08
3.54353e-11
3.92068e-08
2.57025e-11
3.91973e-08
1.89634e-11
3.9189e-08
1.45258e-11
3.91819e-08
1.18067e-11
3.91758e-08
1.01026e-11
3.91705e-08
9.0336e-12
3.91659e-08
8.20287e-12
3.91619e-08
7.5222e-12
3.91584e-08
6.82348e-12
3.91554e-08
6.17649e-12
3.91527e-08
5.49073e-12
3.91503e-08
4.87744e-12
3.91482e-08
4.25601e-12
3.91464e-08
3.72695e-12
3.91448e-08
3.2122e-12
3.91434e-08
2.7891e-12
3.91422e-08
2.39253e-12
3.91412e-08
2.06999e-12
3.91402e-08
1.78473e-12
3.91394e-08
1.55199e-12
3.91387e-08
1.358e-12
3.91381e-08
1.20627e-12
3.91376e-08
1.08898e-12
3.91371e-08
9.98939e-13
3.91367e-08
9.53924e-13
3.91364e-08
9.0952e-13
3.91361e-08
9.22834e-13
3.91358e-08
9.1497e-13
9.74225e-13
3.97902e-08
2.58432e-09
-3.97061e-08
3.9914e-08
2.8867e-09
4.00721e-08
3.14385e-09
4.0243e-08
3.31045e-09
4.0398e-08
3.36208e-09
4.05188e-08
3.30552e-09
4.05997e-08
3.1657e-09
4.06487e-08
2.99555e-09
4.06853e-08
2.86157e-09
4.07266e-08
2.78483e-09
4.0771e-08
2.71892e-09
4.08035e-08
2.61233e-09
4.08181e-08
2.47718e-09
4.0825e-08
2.36411e-09
4.08361e-08
2.28641e-09
4.08515e-08
2.21195e-09
4.08641e-08
2.11844e-09
4.08704e-08
2.0165e-09
4.08732e-08
1.92293e-09
4.08756e-08
1.83808e-09
4.0877e-08
1.75129e-09
4.08754e-08
1.65622e-09
4.08698e-08
1.55566e-09
4.08607e-08
1.45371e-09
4.08486e-08
1.34948e-09
4.0833e-08
1.24044e-09
4.08135e-08
1.12743e-09
4.07903e-08
1.01366e-09
4.07638e-08
9.01977e-10
4.07346e-08
7.9481e-10
4.07039e-08
6.94806e-10
4.06725e-08
6.04291e-10
4.06415e-08
5.24298e-10
4.06117e-08
4.54236e-10
4.05835e-08
3.92503e-10
4.05568e-08
3.3759e-10
4.05318e-08
2.88756e-10
4.05085e-08
2.4587e-10
4.04869e-08
2.08682e-10
4.04669e-08
1.76457e-10
4.04486e-08
1.48087e-10
4.04316e-08
1.22664e-10
4.04159e-08
9.9711e-11
4.04013e-08
7.93685e-11
4.03878e-08
6.19219e-11
4.03754e-08
4.77448e-11
4.03644e-08
3.67601e-11
4.03546e-08
2.87572e-11
4.0346e-08
2.30922e-11
4.03386e-08
1.92445e-11
4.03322e-08
1.65324e-11
4.03266e-08
1.45957e-11
4.03218e-08
1.30215e-11
4.03176e-08
1.17151e-11
4.03139e-08
1.04795e-11
4.03107e-08
9.37742e-12
4.03079e-08
8.29289e-12
4.03055e-08
7.33657e-12
4.03033e-08
6.40944e-12
4.03014e-08
5.61547e-12
4.02998e-08
4.8623e-12
4.02983e-08
4.23419e-12
4.02971e-08
3.65049e-12
4.0296e-08
3.17114e-12
4.0295e-08
2.7392e-12
4.02942e-08
2.38857e-12
4.02935e-08
2.08022e-12
4.02928e-08
1.8421e-12
4.02923e-08
1.63609e-12
4.02918e-08
1.48558e-12
4.02914e-08
1.37162e-12
4.0291e-08
1.28901e-12
4.02907e-08
1.24865e-12
4.02904e-08
1.22244e-12
1.2402e-12
4.10091e-08
2.50455e-09
-4.09293e-08
4.11228e-08
2.77298e-09
4.12652e-08
3.00154e-09
4.14193e-08
3.15627e-09
4.15632e-08
3.2182e-09
4.16807e-08
3.18808e-09
4.17641e-08
3.08226e-09
4.18175e-08
2.94219e-09
4.18569e-08
2.82213e-09
4.18984e-08
2.74337e-09
4.19419e-08
2.67536e-09
4.19754e-08
2.57891e-09
4.19929e-08
2.45964e-09
4.20027e-08
2.35431e-09
4.20149e-08
2.27417e-09
4.20303e-08
2.19663e-09
4.20428e-08
2.10586e-09
4.20498e-08
2.00958e-09
4.20533e-08
1.91944e-09
4.20559e-08
1.83545e-09
4.20573e-08
1.7499e-09
4.20555e-08
1.65794e-09
4.20499e-08
1.5613e-09
4.20408e-08
1.4628e-09
4.20287e-08
1.36164e-09
4.20131e-08
1.256e-09
4.19938e-08
1.14674e-09
4.19709e-08
1.03655e-09
4.19449e-08
9.27967e-10
4.19165e-08
8.23246e-10
4.18864e-08
7.2486e-10
4.18557e-08
6.34985e-10
4.18253e-08
5.54674e-10
4.1796e-08
4.83568e-10
4.17681e-08
4.20405e-10
4.17417e-08
3.63956e-10
4.17169e-08
3.13582e-10
4.16937e-08
2.69112e-10
4.16721e-08
2.30265e-10
4.16522e-08
1.96366e-10
4.16339e-08
1.66415e-10
4.16169e-08
1.39593e-10
4.16012e-08
1.15417e-10
4.15866e-08
9.39674e-11
4.15731e-08
7.54321e-11
4.15607e-08
6.0129e-11
4.15495e-08
4.79549e-11
4.15396e-08
3.87388e-11
4.15308e-08
3.18767e-11
4.15231e-08
2.69098e-11
4.15165e-08
2.31821e-11
4.15107e-08
2.03588e-11
4.15057e-08
1.80171e-11
4.15014e-08
1.60601e-11
4.14976e-08
1.42646e-11
4.14943e-08
1.26873e-11
4.14914e-08
1.1187e-11
4.14888e-08
9.87394e-12
4.14866e-08
8.62947e-12
4.14847e-08
7.56143e-12
4.1483e-08
6.5616e-12
4.14815e-08
5.72219e-12
4.14802e-08
4.94524e-12
4.1479e-08
4.30459e-12
4.14781e-08
3.72134e-12
4.14772e-08
3.24948e-12
4.14765e-08
2.82333e-12
4.14758e-08
2.49627e-12
4.14752e-08
2.19901e-12
4.14747e-08
1.98615e-12
4.14743e-08
1.80143e-12
4.14739e-08
1.67933e-12
4.14736e-08
1.58403e-12
4.14733e-08
1.53884e-12
1.51447e-12
4.22603e-08
2.42889e-09
-4.21846e-08
4.23648e-08
2.66842e-09
4.24936e-08
2.87279e-09
4.26332e-08
3.01668e-09
4.27663e-08
3.08501e-09
4.28792e-08
3.07519e-09
4.29636e-08
2.99786e-09
4.30207e-08
2.88513e-09
4.30631e-08
2.77971e-09
4.31048e-08
2.70166e-09
4.31472e-08
2.63293e-09
4.3181e-08
2.54512e-09
4.32012e-08
2.43945e-09
4.3214e-08
2.34154e-09
4.32275e-08
2.26063e-09
4.32427e-08
2.1815e-09
4.32551e-08
2.09343e-09
4.32627e-08
2.00202e-09
4.32669e-08
1.91517e-09
4.32699e-08
1.83254e-09
4.32711e-08
1.74861e-09
4.32693e-08
1.65979e-09
4.32636e-08
1.56696e-09
4.32546e-08
1.47186e-09
4.32424e-08
1.37381e-09
4.32268e-08
1.27156e-09
4.32077e-08
1.1659e-09
4.31851e-08
1.05912e-09
4.31596e-08
9.53478e-10
4.31317e-08
8.511e-10
4.31023e-08
7.54279e-10
4.30722e-08
6.65065e-10
4.30424e-08
5.8453e-10
4.30135e-08
5.12503e-10
4.29858e-08
4.48024e-10
4.29597e-08
3.90131e-10
4.29349e-08
3.38291e-10
4.29118e-08
2.92304e-10
4.28902e-08
2.51852e-10
4.28702e-08
2.16315e-10
4.28518e-08
1.84796e-10
4.28349e-08
1.56567e-10
4.28191e-08
1.31154e-10
4.28045e-08
1.08593e-10
4.2791e-08
8.89811e-11
4.27785e-08
7.25794e-11
4.27672e-08
5.92511e-11
4.27571e-08
4.88548e-11
4.27481e-08
4.08196e-11
4.27403e-08
3.47449e-11
4.27335e-08
3.00008e-11
4.27276e-08
2.62813e-11
4.27224e-08
2.31566e-11
4.2718e-08
2.05316e-11
4.27141e-08
1.81586e-11
4.27107e-08
1.60905e-11
4.27077e-08
1.41606e-11
4.27051e-08
1.24793e-11
4.27028e-08
1.09075e-11
4.27008e-08
9.55742e-12
4.26991e-08
8.30375e-12
4.26975e-08
7.24751e-12
4.26962e-08
6.27198e-12
4.26951e-08
5.46606e-12
4.2694e-08
4.7275e-12
4.26932e-08
4.13143e-12
4.26924e-08
3.58455e-12
4.26917e-08
3.16626e-12
4.26912e-08
2.77565e-12
4.26906e-08
2.49874e-12
4.26902e-08
2.24174e-12
4.26898e-08
2.07906e-12
4.26895e-08
1.92774e-12
4.26891e-08
1.86309e-12
1.79602e-12
4.35448e-08
2.35718e-09
-4.34731e-08
4.36411e-08
2.57215e-09
4.3758e-08
2.75589e-09
4.38848e-08
2.88985e-09
4.40079e-08
2.96193e-09
4.41155e-08
2.9676e-09
4.41996e-08
2.91377e-09
4.42595e-08