/*--------------------------------*- C++ -*----------------------------------*\
| =========                 |                                                 |
| \\      /  F ield         | OpenFOAM: The Open Source CFD Toolbox           |
|  \\    /   O peration     | Version:  2.3.0                                 |
|   \\  /    A nd           | Web:      www.OpenFOAM.org                      |
|    \\/     M anipulation  |                                                 |
\*---------------------------------------------------------------------------*/
FoamFile
{
    version     2.0;
    format      ascii;
    class       volScalarField;
    location    "0.05";
    object      p;
}
// * * * * * * * * * * * * * * * * * * * * * * * * * * * * * * * * * * * * * //

dimensions      [0 2 -2 0 0 0 0];

internalField   nonuniform List<scalar> 
3105
(
0.00234927
0.00203167
0.00144196
0.000870485
0.000369966
-4.85841e-05
-0.000391039
-0.000658271
-0.000825937
-0.00089322
-0.000897707
-0.000871198
-0.000822654
-0.0007578
-0.000685906
-0.000612842
-0.000541911
-0.000472506
-0.000407708
-0.000350081
-0.000301173
-0.000261191
-0.000229329
-0.000204153
-0.000184057
-0.000167627
-0.000153791
-0.000141796
-0.000131172
-0.000121581
-0.000112838
-0.00010481
-9.74078e-05
-9.0564e-05
-8.42235e-05
-7.83407e-05
-7.28768e-05
-6.7794e-05
-6.3064e-05
-5.86586e-05
-5.4553e-05
-5.07251e-05
-4.71548e-05
-4.38238e-05
-4.07158e-05
-3.78155e-05
-3.51092e-05
-3.25839e-05
-3.02279e-05
-2.80302e-05
-2.59806e-05
-2.40699e-05
-2.2289e-05
-2.06298e-05
-1.90844e-05
-1.76457e-05
-1.63069e-05
-1.50615e-05
-1.39035e-05
-1.28274e-05
-1.18277e-05
-1.08997e-05
-1.00387e-05
-9.24014e-06
-8.49997e-06
-7.81419e-06
-7.1791e-06
-6.59127e-06
-6.04749e-06
-5.54476e-06
-5.08027e-06
-4.65134e-06
-4.25544e-06
-3.89016e-06
-3.55329e-06
-3.24272e-06
-2.95652e-06
-2.69291e-06
-2.45017e-06
-2.22675e-06
-2.02111e-06
-1.83187e-06
-1.65766e-06
-1.49728e-06
-1.34955e-06
-1.21343e-06
-1.08789e-06
-9.71968e-07
-8.6479e-07
-7.65382e-07
-6.73031e-07
-5.86761e-07
-5.05938e-07
-4.29762e-07
-3.57417e-07
-2.88505e-07
-2.21933e-07
-1.57451e-07
-9.40222e-08
-3.14815e-08
0.00193304
0.00175001
0.0013356
0.000841773
0.000369479
-2.74854e-05
-0.000349644
-0.000602644
-0.00076605
-0.000839375
-0.000855731
-0.0008407
-0.000801015
-0.000743413
-0.000677999
-0.000610915
-0.000542305
-0.000474095
-0.000409449
-0.000351493
-0.000302145
-0.000261783
-0.000229655
-0.000204297
-0.000184083
-0.000167592
-0.00015373
-0.00014172
-0.000131095
-0.000121503
-0.000112763
-0.000104738
-9.73386e-05
-9.04976e-05
-8.416e-05
-7.82802e-05
-7.2818e-05
-6.77395e-05
-6.30129e-05
-5.86107e-05
-5.45082e-05
-5.06832e-05
-4.71157e-05
-4.37874e-05
-4.06819e-05
-3.7784e-05
-3.50799e-05
-3.25567e-05
-3.02027e-05
-2.80068e-05
-2.59591e-05
-2.40499e-05
-2.22706e-05
-2.06128e-05
-1.90687e-05
-1.76313e-05
-1.62936e-05
-1.50492e-05
-1.38923e-05
-1.2817e-05
-1.18182e-05
-1.0891e-05
-1.00306e-05
-9.23279e-06
-8.49324e-06
-7.80802e-06
-7.17346e-06
-6.5861e-06
-6.04276e-06
-5.54045e-06
-5.07634e-06
-4.64776e-06
-4.25217e-06
-3.88719e-06
-3.55058e-06
-3.24026e-06
-2.95429e-06
-2.69088e-06
-2.44833e-06
-2.22509e-06
-2.0196e-06
-1.83051e-06
-1.65643e-06
-1.49618e-06
-1.34855e-06
-1.21254e-06
-1.08709e-06
-9.71249e-07
-8.6415e-07
-7.64812e-07
-6.72527e-07
-5.86319e-07
-5.05542e-07
-4.29434e-07
-3.57111e-07
-2.88269e-07
-2.21714e-07
-1.57284e-07
-9.38946e-08
-3.13822e-08
0.00164574
0.00152276
0.00123252
0.000825812
0.000396278
2.31999e-05
-0.000275056
-0.000508102
-0.000667278
-0.000751749
-0.00078487
-0.00078529
-0.000758492
-0.00071177
-0.000655473
-0.000595396
-0.000531992
-0.000467518
-0.000405635
-0.000349614
-0.000301464
-0.000261755
-0.000229895
-0.000204575
-0.00018429
-0.000167692
-0.000153734
-0.000141641
-0.000130979
-0.000121365
-0.00011261
-0.000104581
-9.71837e-05
-9.03474e-05
-8.40163e-05
-7.81437e-05
-7.26894e-05
-6.76186e-05
-6.28995e-05
-5.85046e-05
-5.44091e-05
-5.05908e-05
-4.70296e-05
-4.37073e-05
-4.06075e-05
-3.77149e-05
-3.50157e-05
-3.24972e-05
-3.01475e-05
-2.79557e-05
-2.59118e-05
-2.40062e-05
-2.22301e-05
-2.05754e-05
-1.90342e-05
-1.75994e-05
-1.62642e-05
-1.50222e-05
-1.38673e-05
-1.2794e-05
-1.17971e-05
-1.08716e-05
-1.00128e-05
-9.21642e-06
-8.47821e-06
-7.79424e-06
-7.16082e-06
-6.57453e-06
-6.03217e-06
-5.53077e-06
-5.06749e-06
-4.63968e-06
-4.24481e-06
-3.88048e-06
-3.54446e-06
-3.23469e-06
-2.94922e-06
-2.68628e-06
-2.44416e-06
-2.2213e-06
-2.01618e-06
-1.82741e-06
-1.65363e-06
-1.49365e-06
-1.34628e-06
-1.2105e-06
-1.08526e-06
-9.69619e-07
-8.62701e-07
-7.6353e-07
-6.71395e-07
-5.85338e-07
-5.04679e-07
-4.28714e-07
-3.5649e-07
-2.87774e-07
-2.21323e-07
-1.56992e-07
-9.37364e-08
-3.1339e-08
0.00145078
0.00134248
0.00112601
0.000803236
0.000424957
7.83595e-05
-0.000195324
-0.000408574
-0.000563575
-0.000654969
-0.000698284
-0.000710672
-0.000696664
-0.000661374
-0.000614714
-0.00056313
-0.000507923
-0.000451033
-0.000395411
-0.000344023
-0.00029893
-0.000261032
-0.000230049
-0.000205005
-0.000184682
-0.00016792
-0.000153789
-0.000141604
-0.000130809
-0.000121138
-0.000112356
-0.000104317
-9.69204e-05
-9.00915e-05
-8.37714e-05
-7.79117e-05
-7.24709e-05
-6.74134e-05
-6.27075e-05
-5.83252e-05
-5.42419e-05
-5.0435e-05
-4.68846e-05
-4.35725e-05
-4.04822e-05
-3.75986e-05
-3.49078e-05
-3.23971e-05
-3.00548e-05
-2.78699e-05
-2.58323e-05
-2.39327e-05
-2.21622e-05
-2.05126e-05
-1.89762e-05
-1.75459e-05
-1.62148e-05
-1.49767e-05
-1.38254e-05
-1.27554e-05
-1.17616e-05
-1.08389e-05
-9.98281e-06
-9.18886e-06
-8.45291e-06
-7.77102e-06
-7.13953e-06
-6.55502e-06
-6.01432e-06
-5.51444e-06
-5.05257e-06
-4.62605e-06
-4.23236e-06
-3.86913e-06
-3.53412e-06
-3.22527e-06
-2.94065e-06
-2.67849e-06
-2.43709e-06
-2.2149e-06
-2.01038e-06
-1.82216e-06
-1.64889e-06
-1.48938e-06
-1.34243e-06
-1.20704e-06
-1.08217e-06
-9.66861e-07
-8.60245e-07
-7.61364e-07
-6.69476e-07
-5.83681e-07
-5.03228e-07
-4.27493e-07
-3.55465e-07
-2.86934e-07
-2.20689e-07
-1.56522e-07
-9.34823e-08
-3.1274e-08
0.00129725
0.00119308
0.00101897
0.000764167
0.000440669
0.000125708
-0.000124607
-0.000319827
-0.00046948
-0.000564802
-0.000613604
-0.000633318
-0.000630196
-0.000606543
-0.000569459
-0.00052599
-0.000479086
-0.000430194
-0.000381329
-0.000335173
-0.000293889
-0.000258507
-0.000228988
-0.000204652
-0.000184572
-0.000167823
-0.00015361
-0.000141323
-0.00013047
-0.000120755
-0.000111951
-0.000103908
-9.65203e-05
-8.97075e-05
-8.34072e-05
-7.75688e-05
-7.21496e-05
-6.71133e-05
-6.24277e-05
-5.80648e-05
-5.39997e-05
-5.021e-05
-4.66756e-05
-4.33785e-05
-4.03022e-05
-3.74317e-05
-3.47531e-05
-3.22538e-05
-2.9922e-05
-2.7747e-05
-2.57186e-05
-2.38276e-05
-2.2065e-05
-2.04228e-05
-1.88934e-05
-1.74694e-05
-1.61443e-05
-1.49116e-05
-1.37654e-05
-1.27002e-05
-1.17108e-05
-1.07922e-05
-9.93987e-06
-9.14942e-06
-8.41668e-06
-7.73778e-06
-7.10905e-06
-6.52709e-06
-5.98874e-06
-5.49104e-06
-5.03118e-06
-4.60651e-06
-4.21452e-06
-3.85284e-06
-3.51927e-06
-3.21174e-06
-2.92835e-06
-2.66731e-06
-2.42694e-06
-2.20569e-06
-2.00203e-06
-1.81462e-06
-1.64207e-06
-1.48323e-06
-1.33689e-06
-1.20207e-06
-1.07771e-06
-9.62888e-07
-8.56702e-07
-7.58241e-07
-6.6671e-07
-5.81284e-07
-5.01138e-07
-4.25723e-07
-3.53989e-07
-2.85718e-07
-2.19771e-07
-1.55848e-07
-9.30936e-08
-3.11467e-08
0.00116826
0.00106828
0.000915956
0.000711727
0.000444869
0.000164695
-6.63848e-05
-0.000244472
-0.000385026
-0.00048232
-0.000535664
-0.000560036
-0.000565391
-0.000552631
-0.000524741
-0.000488486
-0.00044871
-0.000407099
-0.000364822
-0.000323976
-0.000286701
-0.000254176
-0.000226511
-0.000203228
-0.000183665
-0.000167137
-0.000152999
-0.000140716
-0.00012986
-0.00012014
-0.000111346
-0.000103323
-9.59633e-05
-8.9182e-05
-8.29147e-05
-7.71093e-05
-7.1722e-05
-6.6716e-05
-6.2059e-05
-5.77228e-05
-5.36826e-05
-4.9916e-05
-4.64032e-05
-4.31261e-05
-4.00684e-05
-3.72151e-05
-3.45526e-05
-3.20681e-05
-2.97502e-05
-2.7588e-05
-2.55716e-05
-2.36917e-05
-2.19394e-05
-2.03068e-05
-1.87863e-05
-1.73706e-05
-1.60531e-05
-1.48275e-05
-1.3688e-05
-1.26289e-05
-1.16451e-05
-1.07318e-05
-9.88435e-06
-9.09839e-06
-8.36982e-06
-7.69475e-06
-7.06958e-06
-6.49092e-06
-5.95561e-06
-5.46072e-06
-5.00345e-06
-4.58116e-06
-4.19137e-06
-3.83171e-06
-3.5e-06
-3.19419e-06
-2.91237e-06
-2.65278e-06
-2.41375e-06
-2.19372e-06
-1.99119e-06
-1.8048e-06
-1.63319e-06
-1.47522e-06
-1.32969e-06
-1.1956e-06
-1.07191e-06
-9.57712e-07
-8.52088e-07
-7.54168e-07
-6.63109e-07
-5.78156e-07
-4.98422e-07
-4.23411e-07
-3.52069e-07
-2.84139e-07
-2.18569e-07
-1.5498e-07
-9.25743e-08
-3.09703e-08
0.00105562
0.000961434
0.000822651
0.000656078
0.000440037
0.00019399
-1.87438e-05
-0.000179115
-0.000308499
-0.000407687
-0.000466139
-0.000492961
-0.000503085
-0.000499322
-0.000480473
-0.000451151
-0.000417752
-0.000382944
-0.000347084
-0.000311425
-0.000278079
-0.000248455
-0.00022279
-0.000200758
-0.000181919
-0.000165789
-0.000151867
-0.000139699
-0.000128918
-0.000119256
-0.000110514
-0.000102544
-9.52361e-05
-8.85055e-05
-8.22871e-05
-7.65279e-05
-7.11841e-05
-6.62184e-05
-6.15988e-05
-5.72972e-05
-5.32889e-05
-4.95519e-05
-4.60663e-05
-4.28144e-05
-3.978e-05
-3.69482e-05
-3.43056e-05
-3.18396e-05
-2.95388e-05
-2.73925e-05
-2.53909e-05
-2.35246e-05
-2.17851e-05
-2.01643e-05
-1.86546e-05
-1.72491e-05
-1.5941e-05
-1.47242e-05
-1.35928e-05
-1.25412e-05
-1.15644e-05
-1.06575e-05
-9.81604e-06
-9.0356e-06
-8.31213e-06
-7.64179e-06
-7.02099e-06
-6.44637e-06
-5.9148e-06
-5.42336e-06
-4.96927e-06
-4.54991e-06
-4.16281e-06
-3.80564e-06
-3.47622e-06
-3.17252e-06
-2.89264e-06
-2.63484e-06
-2.39745e-06
-2.17893e-06
-1.97778e-06
-1.79266e-06
-1.62222e-06
-1.46532e-06
-1.32077e-06
-1.18758e-06
-1.06473e-06
-9.51303e-07
-8.46379e-07
-7.49122e-07
-6.58657e-07
-5.74279e-07
-4.95067e-07
-4.20549e-07
-3.49696e-07
-2.82195e-07
-2.17083e-07
-1.53916e-07
-9.19311e-08
-3.07533e-08
0.000954674
0.000869741
0.000743029
0.00060133
0.000425944
0.000215398
2.26576e-05
-0.00012334
-0.000242387
-0.000340724
-0.000402448
-0.000430389
-0.000443214
-0.000447188
-0.000437535
-0.000415285
-0.000387599
-0.000358667
-0.000328584
-0.000297783
-0.0002682
-0.000241428
-0.00021785
-0.000197241
-0.000179311
-0.000163748
-0.000150182
-0.000138243
-0.000127621
-0.00011808
-0.000109437
-0.000101554
-9.43241e-05
-8.76657e-05
-8.15138e-05
-7.58157e-05
-7.05279e-05
-6.56135e-05
-6.10409e-05
-5.67824e-05
-5.28136e-05
-4.91129e-05
-4.56606e-05
-4.24394e-05
-3.94333e-05
-3.66276e-05
-3.40091e-05
-3.15654e-05
-2.92853e-05
-2.71582e-05
-2.51742e-05
-2.33244e-05
-2.16001e-05
-1.99934e-05
-1.84969e-05
-1.71035e-05
-1.58067e-05
-1.46004e-05
-1.34786e-05
-1.2436e-05
-1.14676e-05
-1.05684e-05
-9.7341e-06
-8.96027e-06
-8.24291e-06
-7.57822e-06
-6.96265e-06
-6.39288e-06
-5.86579e-06
-5.37848e-06
-4.9282e-06
-4.51235e-06
-4.12849e-06
-3.7743e-06
-3.44762e-06
-3.14645e-06
-2.86891e-06
-2.61325e-06
-2.37783e-06
-2.16112e-06
-1.96163e-06
-1.77804e-06
-1.609e-06
-1.45338e-06
-1.31002e-06
-1.17793e-06
-1.05607e-06
-9.43576e-07
-8.39498e-07
-7.43037e-07
-6.53295e-07
-5.69603e-07
-4.91028e-07
-4.17105e-07
-3.46838e-07
-2.79865e-07
-2.15296e-07
-1.52644e-07
-9.11606e-08
-3.04943e-08
0.00086415
0.000790104
0.000674906
0.000549413
0.00040644
0.00023078
5.70079e-05
-7.85137e-05
-0.000186035
-0.000278317
-0.000342104
-0.000373358
-0.000388998
-0.000398554
-0.000396531
-0.000380762
-0.000358046
-0.00033406
-0.00030919
-0.000283072
-0.000257192
-0.000233252
-0.000211817
-0.000192755
-0.000175883
-0.000161027
-0.000147938
-0.00013633
-0.000125947
-0.000116588
-0.000108092
-0.000100333
-9.32113e-05
-8.66487e-05
-8.05825e-05
-7.49616e-05
-6.97436e-05
-6.48925e-05
-6.03773e-05
-5.61711e-05
-5.225e-05
-4.85928e-05
-4.51805e-05
-4.1996e-05
-3.90235e-05
-3.62489e-05
-3.3659e-05
-3.12418e-05
-2.89861e-05
-2.68816e-05
-2.49187e-05
-2.30882e-05
-2.13819e-05
-1.97919e-05
-1.83108e-05
-1.69318e-05
-1.56483e-05
-1.44542e-05
-1.33439e-05
-1.2312e-05
-1.13533e-05
-1.04633e-05
-9.63736e-06
-8.87132e-06
-8.16117e-06
-7.50315e-06
-6.89375e-06
-6.32968e-06
-5.80787e-06
-5.32543e-06
-4.87965e-06
-4.46795e-06
-4.0879e-06
-3.73723e-06
-3.41379e-06
-3.11561e-06
-2.84082e-06
-2.5877e-06
-2.35461e-06
-2.14004e-06
-1.94251e-06
-1.76072e-06
-1.59334e-06
-1.43924e-06
-1.29728e-06
-1.16648e-06
-1.04582e-06
-9.34416e-07
-8.31345e-07
-7.35822e-07
-6.46942e-07
-5.64061e-07
-4.86246e-07
-4.13027e-07
-3.43453e-07
-2.77115e-07
-2.13181e-07
-1.51142e-07
-9.02549e-08
-3.01893e-08
0.000782658
0.000718688
0.000616089
0.000503464
0.000384099
0.000238184
8.38524e-05
-4.0776e-05
-0.000136666
-0.000221672
-0.000287683
-0.000323531
-0.000340847
-0.00035267
-0.000356139
-0.00034666
-0.000329004
-0.000309529
-0.000289351
-0.000267637
-0.000245325
-0.000224126
-0.000204815
-0.000187366
-0.000171661
-0.000157628
-0.000145123
-0.00013394
-0.000123874
-0.000114759
-0.00010646
-9.88641e-05
-9.18817e-05
-8.544e-05
-7.94802e-05
-7.3954e-05
-6.88206e-05
-6.40456e-05
-5.95991e-05
-5.54551e-05
-5.15905e-05
-4.79848e-05
-4.46197e-05
-4.14782e-05
-3.85454e-05
-3.58072e-05
-3.32508e-05
-3.08645e-05
-2.86374e-05
-2.65593e-05
-2.46208e-05
-2.2813e-05
-2.11277e-05
-1.95571e-05
-1.8094e-05
-1.67316e-05
-1.54636e-05
-1.42839e-05
-1.31869e-05
-1.21673e-05
-1.12201e-05
-1.03407e-05
-9.52454e-06
-8.76757e-06
-8.06581e-06
-7.41556e-06
-6.81335e-06
-6.25594e-06
-5.74027e-06
-5.26351e-06
-4.82296e-06
-4.41609e-06
-4.0405e-06
-3.69393e-06
-3.37427e-06
-3.07957e-06
-2.80799e-06
-2.55783e-06
-2.32746e-06
-2.11538e-06
-1.92015e-06
-1.74046e-06
-1.57502e-06
-1.42271e-06
-1.28239e-06
-1.15309e-06
-1.03382e-06
-9.23698e-07
-8.21807e-07
-7.27379e-07
-6.39513e-07
-5.57576e-07
-4.80653e-07
-4.08262e-07
-3.39495e-07
-2.73907e-07
-2.1071e-07
-1.49392e-07
-8.92024e-08
-2.98339e-08
0.00070928
0.000654027
0.000564823
0.000463142
0.000359696
0.000238879
0.000105777
-8.08882e-06
-9.58948e-05
-0.000173896
-0.000239101
-0.000277821
-0.000296311
-0.000309224
-0.000317048
-0.000313691
-0.000301112
-0.00028561
-0.00026938
-0.000251613
-0.000232685
-0.000214145
-0.000196928
-0.00018113
-0.000166678
-0.000153566
-0.000141741
-0.000131067
-0.00012139
-0.00011258
-0.000104525
-9.71318e-05
-9.03204e-05
-8.40258e-05
-7.81944e-05
-7.27813e-05
-6.77484e-05
-6.30631e-05
-5.86974e-05
-5.46262e-05
-5.08276e-05
-4.72819e-05
-4.39715e-05
-4.08801e-05
-3.79932e-05
-3.52971e-05
-3.27795e-05
-3.0429e-05
-2.82349e-05
-2.61873e-05
-2.4277e-05
-2.24954e-05
-2.08342e-05
-1.92861e-05
-1.78438e-05
-1.65007e-05
-1.52505e-05
-1.40873e-05
-1.30057e-05
-1.20003e-05
-1.10663e-05
-1.01991e-05
-9.39425e-06
-8.64775e-06
-7.95568e-06
-7.31439e-06
-6.72048e-06
-6.17073e-06
-5.66216e-06
-5.19195e-06
-4.75745e-06
-4.35615e-06
-3.98569e-06
-3.64385e-06
-3.32857e-06
-3.0379e-06
-2.77003e-06
-2.52327e-06
-2.29604e-06
-2.08685e-06
-1.89427e-06
-1.71702e-06
-1.55382e-06
-1.40356e-06
-1.26514e-06
-1.13759e-06
-1.01992e-06
-9.11286e-07
-8.10764e-07
-7.17602e-07
-6.30912e-07
-5.5007e-07
-4.74179e-07
-4.02751e-07
-3.34913e-07
-2.70201e-07
-2.07853e-07
-1.47371e-07
-8.79894e-08
-2.94242e-08
0.00064372
0.000595217
0.00051842
0.000427262
0.000335959
0.000235453
0.000122091
1.81866e-05
-6.31863e-05
-0.000133077
-0.000194125
-0.000234733
-0.000255736
-0.000269901
-0.000280576
-0.000282112
-0.000274165
-0.000262222
-0.00024936
-0.000235121
-0.000219405
-0.000203453
-0.000188286
-0.00017414
-0.000160992
-0.000148875
-0.000137805
-0.000127711
-0.000118488
-0.000110038
-0.000102274
-9.5122e-05
-8.85137e-05
-8.23932e-05
-7.67128e-05
-7.1432e-05
-6.65162e-05
-6.19353e-05
-5.76629e-05
-5.36759e-05
-4.99534e-05
-4.64768e-05
-4.32293e-05
-4.01954e-05
-3.7361e-05
-3.47133e-05
-3.22402e-05
-2.99306e-05
-2.77743e-05
-2.57617e-05
-2.38837e-05
-2.21319e-05
-2.04985e-05
-1.89759e-05
-1.75574e-05
-1.62363e-05
-1.50065e-05
-1.38623e-05
-1.27982e-05
-1.18091e-05
-1.08902e-05
-1.00369e-05
-9.24506e-06
-8.51053e-06
-7.82954e-06
-7.19851e-06
-6.61409e-06
-6.07313e-06
-5.57267e-06
-5.10995e-06
-4.68236e-06
-4.28744e-06
-3.92286e-06
-3.58645e-06
-3.27617e-06
-2.99011e-06
-2.72648e-06
-2.48364e-06
-2.26001e-06
-2.05412e-06
-1.86458e-06
-1.69012e-06
-1.52949e-06
-1.38159e-06
-1.24535e-06
-1.1198e-06
-1.00398e-06
-8.9704e-07
-7.98089e-07
-7.0638e-07
-6.21041e-07
-5.41456e-07
-4.66751e-07
-3.96431e-07
-3.29657e-07
-2.65955e-07
-2.04581e-07
-1.45053e-07
-8.66018e-08
-2.89563e-08
0.000585184
0.000541491
0.000475676
0.000395403
0.00031398
0.000228305
0.000132164
3.94668e-05
-3.5167e-05
-9.76629e-05
-0.000153963
-0.000195746
-0.000219551
-0.000234643
-0.000246584
-0.000251652
-0.000247962
-0.000239462
-0.000229582
-0.000218431
-0.000205676
-0.000192196
-0.00017901
-0.000166487
-0.00015466
-0.000143588
-0.000133332
-0.000123878
-0.000115165
-0.000107126
-9.96976e-05
-9.28235e-05
-8.645e-05
-8.05304e-05
-7.50239e-05
-6.98954e-05
-6.51139e-05
-6.06523e-05
-5.64867e-05
-5.25956e-05
-4.89598e-05
-4.55619e-05
-4.2386e-05
-3.94175e-05
-3.6643e-05
-3.40502e-05
-3.16276e-05
-2.93646e-05
-2.72512e-05
-2.52782e-05
-2.34369e-05
-2.17191e-05
-2.0117e-05
-1.86236e-05
-1.7232e-05
-1.59359e-05
-1.47293e-05
-1.36066e-05
-1.25624e-05
-1.15918e-05
-1.069e-05
-9.85262e-06
-9.07544e-06
-8.35451e-06
-7.68611e-06
-7.06674e-06
-6.4931e-06
-5.96211e-06
-5.47087e-06
-5.01667e-06
-4.59693e-06
-4.20926e-06
-3.85137e-06
-3.52113e-06
-3.21653e-06
-2.93571e-06
-2.67692e-06
-2.43852e-06
-2.21898e-06
-2.01685e-06
-1.83077e-06
-1.65948e-06
-1.50178e-06
-1.35657e-06
-1.2228e-06
-1.09953e-06
-9.85812e-07
-8.80811e-07
-7.83649e-07
-6.93596e-07
-6.09798e-07
-5.31645e-07
-4.58291e-07
-3.89236e-07
-3.23672e-07
-2.61123e-07
-2.00859e-07
-1.42416e-07
-8.50252e-08
-2.84255e-08
0.00053276
0.000492718
0.000436163
0.000366188
0.000293274
0.000218941
0.000137972
5.70716e-05
-1.13355e-05
-6.8347e-05
-0.000119784
-0.000160847
-0.000186531
-0.000202537
-0.000215131
-0.000222721
-0.000222755
-0.000217503
-0.000210259
-0.000201744
-0.000191642
-0.00018049
-0.000169208
-0.000158261
-0.000147751
-0.000137751
-0.000128351
-0.000119584
-0.000111427
-0.000103842
-9.6789e-05
-9.0228e-05
-8.41197e-05
-7.84273e-05
-7.31177e-05
-6.81613e-05
-6.35316e-05
-5.92049e-05
-5.51598e-05
-5.13771e-05
-4.78391e-05
-4.45299e-05
-4.14347e-05
-3.85399e-05
-3.58329e-05
-3.3302e-05
-3.09364e-05
-2.87258e-05
-2.66608e-05
-2.47326e-05
-2.29326e-05
-2.1253e-05
-1.96864e-05
-1.82258e-05
-1.68646e-05
-1.55967e-05
-1.44163e-05
-1.33178e-05
-1.22961e-05
-1.13464e-05
-1.04639e-05
-9.64441e-06
-8.88381e-06
-8.17824e-06
-7.52406e-06
-6.91784e-06
-6.35638e-06
-5.83664e-06
-5.35581e-06
-4.91122e-06
-4.50036e-06
-4.12088e-06
-3.77054e-06
-3.44726e-06
-3.14909e-06
-2.8742e-06
-2.62086e-06
-2.38749e-06
-2.17257e-06
-1.97469e-06
-1.79252e-06
-1.62482e-06
-1.47042e-06
-1.32826e-06
-1.19729e-06
-1.0766e-06
-9.65254e-07
-8.62443e-07
-7.67308e-07
-6.79128e-07
-5.97074e-07
-5.20545e-07
-4.48719e-07
-3.81098e-07
-3.16902e-07
-2.55659e-07
-1.96651e-07
-1.39433e-07
-8.32442e-08
-2.78268e-08
0.000485602
0.000448533
0.000399356
0.000338711
0.000274085
0.000209131
0.000140481
7.03047e-05
7.93136e-06
-4.43014e-05
-9.06633e-05
-0.000129519
-0.000156275
-0.000173462
-0.000186557
-0.000195732
-0.000198685
-0.000196345
-0.000191474
-0.000185224
-0.000177459
-0.000168465
-0.000158995
-0.000149563
-0.000140339
-0.000131416
-0.000122898
-0.00011485
-0.000107285
-0.000100191
-9.35469e-05
-8.73306e-05
-8.15157e-05
-7.60757e-05
-7.09851e-05
-6.62206e-05
-6.17602e-05
-5.75841e-05
-5.36736e-05
-5.00119e-05
-4.65833e-05
-4.33733e-05
-4.03683e-05
-3.7556e-05
-3.49245e-05
-3.24629e-05
-3.0161e-05
-2.80092e-05
-2.59985e-05
-2.41203e-05
-2.23666e-05
-2.07299e-05
-1.9203e-05
-1.77792e-05
-1.64522e-05
-1.52159e-05
-1.40648e-05
-1.29935e-05
-1.19971e-05
-1.10707e-05
-1.02099e-05
-9.41052e-06
-8.66854e-06
-7.98021e-06
-7.34198e-06
-6.75054e-06
-6.20274e-06
-5.69565e-06
-5.22651e-06
-4.79271e-06
-4.39181e-06
-4.02153e-06
-3.67967e-06
-3.36422e-06
-3.07327e-06
-2.80502e-06
-2.55782e-06
-2.33009e-06
-2.12036e-06
-1.92726e-06
-1.74949e-06
-1.58583e-06
-1.43515e-06
-1.2964e-06
-1.16858e-06
-1.05079e-06
-9.42122e-07
-8.41777e-07
-7.48921e-07
-6.62849e-07
-5.82758e-07
-5.08057e-07
-4.3795e-07
-3.71946e-07
-3.09288e-07
-2.49515e-07
-1.91921e-07
-1.3608e-07
-8.12427e-08
-2.71549e-08
0.000442797
0.000408398
0.00036521
0.000312903
0.000256221
0.00019901
0.000139932
7.93438e-05
2.34617e-05
-2.41549e-05
-6.59496e-05
-0.000102073
-0.000129057
-0.000147261
-0.000160734
-0.000170782
-0.000175862
-0.000176039
-0.000173323
-0.000169037
-0.000163296
-0.000156252
-0.00014848
-0.000140488
-0.000132504
-0.00012464
-0.000117011
-0.000109703
-0.000102756
-9.61799e-05
-8.9974e-05
-8.41298e-05
-7.86338e-05
-7.34693e-05
-6.86189e-05
-6.40654e-05
-5.97917e-05
-5.57817e-05
-5.20201e-05
-4.84923e-05
-4.51848e-05
-4.20847e-05
-3.91799e-05
-3.64592e-05
-3.39116e-05
-3.1527e-05
-2.92961e-05
-2.72097e-05
-2.52593e-05
-2.34369e-05
-2.17348e-05
-2.01459e-05
-1.86633e-05
-1.72805e-05
-1.59915e-05
-1.47905e-05
-1.36722e-05
-1.26313e-05
-1.16629e-05
-1.07627e-05
-9.9261e-06
-9.14914e-06
-8.42794e-06
-7.75886e-06
-7.13847e-06
-6.56352e-06
-6.03099e-06
-5.53802e-06
-5.08193e-06
-4.66019e-06
-4.27043e-06
-3.91042e-06
-3.57805e-06
-3.27135e-06
-2.98846e-06
-2.72765e-06
-2.4873e-06
-2.26588e-06
-2.06196e-06
-1.8742e-06
-1.70133e-06
-1.54219e-06
-1.39567e-06
-1.26075e-06
-1.13646e-06
-1.02191e-06
-9.16232e-07
-8.18645e-07
-7.2834e-07
-6.4463e-07
-5.66737e-07
-4.94082e-07
-4.25899e-07
-3.61707e-07
-3.0077e-07
-2.42642e-07
-1.86632e-07
-1.32329e-07
-7.90045e-08
-2.64044e-08
0.000403603
0.000371865
0.000333683
0.000288468
0.000238964
0.00018849
0.000137262
8.51575e-05
3.57662e-05
-7.49997e-06
-4.5387e-05
-7.85629e-05
-0.000104854
-0.00012361
-0.000137404
-0.000147933
-0.000154472
-0.000156696
-0.000155889
-0.00015331
-0.000149298
-0.000143979
-0.00013777
-0.00013113
-0.000124323
-0.000117487
-0.000110738
-0.000104175
-9.78605e-05
-9.1823e-05
-8.60769e-05
-8.06274e-05
-7.54722e-05
-7.06042e-05
-6.60137e-05
-6.16892e-05
-5.76188e-05
-5.37903e-05
-5.01915e-05
-4.68107e-05
-4.36362e-05
-4.06571e-05
-3.78627e-05
-3.52429e-05
-3.27879e-05
-3.04885e-05
-2.8336e-05
-2.63219e-05
-2.44384e-05
-2.26778e-05
-2.10329e-05
-1.9497e-05
-1.80634e-05
-1.67262e-05
-1.54794e-05
-1.43176e-05
-1.32356e-05
-1.22284e-05
-1.12914e-05
-1.04201e-05
-9.61043e-06
-8.8584e-06
-8.1603e-06
-7.51262e-06
-6.91204e-06
-6.35544e-06
-5.83989e-06
-5.36262e-06
-4.92104e-06
-4.51271e-06
-4.13533e-06
-3.78675e-06
-3.46493e-06
-3.16796e-06
-2.89405e-06
-2.64151e-06
-2.40878e-06
-2.19438e-06
-1.99692e-06
-1.8151e-06
-1.6477e-06
-1.49359e-06
-1.3517e-06
-1.22104e-06
-1.10067e-06
-9.89737e-07
-8.87393e-07
-7.92879e-07
-7.05416e-07
-6.24337e-07
-5.48891e-07
-4.78518e-07
-4.12478e-07
-3.50304e-07
-2.91285e-07
-2.34989e-07
-1.80745e-07
-1.28154e-07
-7.6513e-08
-2.55697e-08
0.000367443
0.00033838
0.000304418
0.00026512
0.000222059
0.000177778
0.000133202
8.82732e-05
4.49147e-05
5.88698e-06
-2.84397e-05
-5.86326e-05
-8.35769e-05
-0.000102381
-0.0001164
-0.000127183
-0.000134639
-0.000138414
-0.00013923
-0.000138131
-0.000135592
-0.000131769
-0.000126969
-0.000121582
-0.00011588
-0.000110022
-0.000104128
-9.83051e-05
-9.26264e-05
-8.71379e-05
-8.18666e-05
-7.68289e-05
-7.20326e-05
-6.74791e-05
-6.31658e-05
-5.9087e-05
-5.52357e-05
-5.16034e-05
-4.81813e-05
-4.49602e-05
-4.19308e-05
-3.90838e-05
-3.64101e-05
-3.39009e-05
-3.15475e-05
-2.93417e-05
-2.72753e-05
-2.53409e-05
-2.35309e-05
-2.18384e-05
-2.02566e-05
-1.87791e-05
-1.73998e-05
-1.61128e-05
-1.49127e-05
-1.37942e-05
-1.27524e-05
-1.17824e-05
-1.088e-05
-1.00408e-05
-9.26087e-06
-8.53642e-06
-7.86389e-06
-7.23989e-06
-6.66124e-06
-6.12495e-06
-5.62818e-06
-5.16829e-06
-4.74278e-06
-4.3493e-06
-3.98564e-06
-3.64971e-06
-3.33958e-06
-3.05338e-06
-2.78941e-06
-2.54604e-06
-2.32175e-06
-2.11512e-06
-1.92481e-06
-1.74958e-06
-1.58824e-06
-1.43971e-06
-1.30295e-06
-1.17701e-06
-1.06099e-06
-9.54063e-07
-8.55413e-07
-7.64306e-07
-6.79995e-07
-6.01834e-07
-5.29103e-07
-4.61262e-07
-3.97599e-07
-3.37663e-07
-2.80771e-07
-2.26505e-07
-1.74219e-07
-1.23527e-07
-7.37515e-08
-2.46454e-08
0.000333819
0.000307391
0.00027711
0.000242842
0.000205509
0.000166861
0.000127971
8.90567e-05
5.11933e-05
1.63576e-05
-1.4615e-05
-4.19655e-05
-6.51991e-05
-8.35539e-05
-9.75824e-05
-0.000108444
-0.000116413
-0.000121277
-0.000123402
-0.000123565
-0.00012227
-0.000119726
-0.000116172
-0.000111924
-0.000107247
-0.000102309
-9.72346e-05
-9.21321e-05
-8.70837e-05
-8.21463e-05
-7.73577e-05
-7.27433e-05
-6.83195e-05
-6.40952e-05
-6.0074e-05
-5.62559e-05
-5.2638e-05
-4.92158e-05
-4.59836e-05
-4.29348e-05
-4.00622e-05
-3.73584e-05
-3.48159e-05
-3.24271e-05
-3.01845e-05
-2.80808e-05
-2.61088e-05
-2.42615e-05
-2.25321e-05
-2.09143e-05
-1.94017e-05
-1.79884e-05
-1.66687e-05
-1.5437e-05
-1.42882e-05
-1.32173e-05
-1.22196e-05
-1.12907e-05
-1.04264e-05
-9.62253e-06
-8.87537e-06
-8.18131e-06
-7.53695e-06
-6.93905e-06
-6.38458e-06
-5.87067e-06
-5.39462e-06
-4.95389e-06
-4.5461e-06
-4.16899e-06
-3.82045e-06
-3.49849e-06
-3.20124e-06
-2.92693e-06
-2.67392e-06
-2.44066e-06
-2.22568e-06
-2.02762e-06
-1.84521e-06
-1.67724e-06
-1.52259e-06
-1.38021e-06
-1.24912e-06
-1.12839e-06
-1.01718e-06
-9.14671e-07
-8.20099e-07
-7.32755e-07
-6.51923e-07
-5.76985e-07
-5.07253e-07
-4.42208e-07
-3.8117e-07
-3.23707e-07
-2.69165e-07
-2.17141e-07
-1.67017e-07
-1.18419e-07
-7.07035e-08
-2.36252e-08
0.00030234
0.000278509
0.000251568
0.000221631
0.000189282
0.000155667
0.000121757
8.798e-05
5.50242e-05
2.42035e-05
-3.59032e-06
-2.82792e-05
-4.96273e-05
-6.71116e-05
-8.08705e-05
-9.16471e-05
-9.98328e-05
-0.000105385
-0.000108491
-0.000109682
-0.000109419
-0.000107944
-0.000105463
-0.000102233
-9.84892e-05
-9.44031e-05
-9.0102e-05
-8.56921e-05
-8.12596e-05
-7.68683e-05
-7.25641e-05
-6.83796e-05
-6.43379e-05
-6.04543e-05
-5.67379e-05
-5.31934e-05
-4.98221e-05
-4.6623e-05
-4.35932e-05
-4.07288e-05
-3.80246e-05
-3.54751e-05
-3.30743e-05
-3.08159e-05
-2.86934e-05
-2.67007e-05
-2.48312e-05
-2.30788e-05
-2.14374e-05
-1.99011e-05
-1.84641e-05
-1.7121e-05
-1.58664e-05
-1.46952e-05
-1.36026e-05
-1.25839e-05
-1.16347e-05
-1.07508e-05
-9.92821e-06
-9.16311e-06
-8.45191e-06
-7.79121e-06
-7.17776e-06
-6.60851e-06
-6.08058e-06
-5.59125e-06
-5.13795e-06
-4.71826e-06
-4.32993e-06
-3.97081e-06
-3.63888e-06
-3.33227e-06
-3.04917e-06
-2.78793e-06
-2.54696e-06
-2.3248e-06
-2.12005e-06
-1.93142e-06
-1.75768e-06
-1.5977e-06
-1.4504e-06
-1.31478e-06
-1.18991e-06
-1.07492e-06
-9.68988e-07
-8.71345e-07
-7.81258e-07
-6.98052e-07
-6.21048e-07
-5.49655e-07
-4.83222e-07
-4.21253e-07
-3.63103e-07
-3.0836e-07
-2.56402e-07
-2.06843e-07
-1.59098e-07
-1.12804e-07
-6.73528e-08
-2.25013e-08
0.000267031
0.000246255
0.000223016
0.000197602
0.000170408
0.00014213
0.000113516
8.50565e-05
5.72281e-05
3.08332e-05
6.63276e-06
-1.50811e-05
-3.41565e-05
-5.02896e-05
-6.34124e-05
-7.38905e-05
-8.20813e-05
-8.80756e-05
-9.19785e-05
-9.41081e-05
-9.48284e-05
-9.43895e-05
-9.29775e-05
-9.07926e-05
-8.80347e-05
-8.48663e-05
-8.14128e-05
-7.77773e-05
-7.40458e-05
-7.02863e-05
-6.65504e-05
-6.28769e-05
-5.92949e-05
-5.58252e-05
-5.24825e-05
-4.9276e-05
-4.62116e-05
-4.32917e-05
-4.05167e-05
-3.78853e-05
-3.53948e-05
-3.30417e-05
-3.08218e-05
-2.87302e-05
-2.67619e-05
-2.49117e-05
-2.31742e-05
-2.15442e-05
-2.00163e-05
-1.85854e-05
-1.72463e-05
-1.5994e-05
-1.48238e-05
-1.37311e-05
-1.27113e-05
-1.17603e-05
-1.0874e-05
-1.00485e-05
-9.28019e-06
-8.56545e-06
-7.90098e-06
-7.28362e-06
-6.71036e-06
-6.17836e-06
-5.68495e-06
-5.22758e-06
-4.80387e-06
-4.41157e-06
-4.04855e-06
-3.71283e-06
-3.40252e-06
-3.11587e-06
-2.8512e-06
-2.60695e-06
-2.38166e-06
-2.17395e-06
-1.98251e-06
-1.80614e-06
-1.6437e-06
-1.49411e-06
-1.35637e-06
-1.22956e-06
-1.1128e-06
-1.00528e-06
-9.06218e-07
-8.14909e-07
-7.30663e-07
-6.52847e-07
-5.80828e-07
-5.14056e-07
-4.51919e-07
-3.93959e-07
-3.39573e-07
-2.88372e-07
-2.39781e-07
-1.93432e-07
-1.48786e-07
-1.05491e-07
-6.29897e-08
-2.10382e-08
0.000227986
0.00021068
0.00019147
0.000170689
0.000148645
0.000125768
0.000102556
7.94208e-05
5.67258e-05
3.49736e-05
1.4713e-05
-3.72051e-06
-2.01614e-05
-3.44209e-05
-4.63846e-05
-5.61814e-05
-6.40434e-05
-7.01008e-05
-7.4439e-05
-7.72395e-05
-7.87526e-05
-7.9194e-05
-7.87298e-05
-7.7518e-05
-7.57176e-05
-7.34702e-05
-7.08914e-05
-6.80773e-05
-6.5109e-05
-6.20536e-05
-5.89646e-05
-5.58838e-05
-5.28442e-05
-4.98706e-05
-4.69818e-05
-4.41911e-05
-4.15079e-05
-3.89381e-05
-3.64852e-05
-3.41505e-05
-3.19338e-05
-2.98337e-05
-2.78477e-05
-2.59728e-05
-2.42055e-05
-2.25417e-05
-2.09773e-05
-1.95081e-05
-1.81297e-05
-1.68377e-05
-1.56277e-05
-1.44956e-05
-1.34372e-05
-1.24483e-05
-1.15252e-05
-1.06641e-05
-9.86127e-06
-9.1134e-06
-8.41714e-06
-7.76934e-06
-7.16702e-06
-6.60731e-06
-6.08754e-06
-5.60513e-06
-5.15766e-06
-4.74286e-06
-4.35855e-06
-4.00271e-06
-3.67342e-06
-3.36888e-06
-3.08738e-06
-2.82732e-06
-2.58721e-06
-2.36561e-06
-2.16121e-06
-1.97276e-06
-1.79907e-06
-1.63904e-06
-1.49164e-06
-1.35591e-06
-1.23094e-06
-1.11587e-06
-1.00992e-06
-9.12351e-07
-8.2246e-07
-7.39599e-07
-6.63144e-07
-5.92522e-07
-5.27157e-07
-4.66551e-07
-4.10153e-07
-3.57544e-07
-3.0818e-07
-2.61708e-07
-2.17609e-07
-1.75544e-07
-1.35029e-07
-9.57366e-08
-5.71685e-08
-1.90931e-08
0.000189033
0.000175105
0.000159742
0.000143228
0.000125816
0.000107788
8.94589e-05
7.11302e-05
5.30892e-05
3.56714e-05
1.92453e-05
4.10058e-06
-9.58449e-06
-2.16714e-05
-3.20641e-05
-4.07841e-05
-4.79463e-05
-5.36564e-05
-5.79927e-05
-6.10666e-05
-6.30368e-05
-6.40645e-05
-6.42876e-05
-6.38309e-05
-6.28171e-05
-6.13605e-05
-5.95604e-05
-5.75013e-05
-5.52555e-05
-5.28845e-05
-5.04394e-05
-4.79615e-05
-4.54842e-05
-4.30341e-05
-4.06316e-05
-3.82927e-05
-3.60288e-05
-3.38484e-05
-3.17571e-05
-2.97583e-05
-2.78539e-05
-2.60441e-05
-2.43283e-05
-2.27048e-05
-2.11715e-05
-1.97257e-05
-1.83644e-05
-1.70843e-05
-1.58821e-05
-1.47542e-05
-1.36972e-05
-1.27075e-05
-1.17817e-05
-1.09163e-05
-1.01082e-05
-9.354e-06
-8.65072e-06
-7.99536e-06
-7.38509e-06
-6.81718e-06
-6.28905e-06
-5.79822e-06
-5.34234e-06
-4.91918e-06
-4.52664e-06
-4.16272e-06
-3.82554e-06
-3.51331e-06
-3.22436e-06
-2.95711e-06
-2.71007e-06
-2.48184e-06
-2.27111e-06
-2.07663e-06
-1.89723e-06