/*--------------------------------*- C++ -*----------------------------------*\
| =========                 |                                                 |
| \\      /  F ield         | OpenFOAM: The Open Source CFD Toolbox           |
|  \\    /   O peration     | Version:  2.3.0                                 |
|   \\  /    A nd           | Web:      www.OpenFOAM.org                      |
|    \\/     M anipulation  |                                                 |
\*---------------------------------------------------------------------------*/
FoamFile
{
    version     2.0;
    format      ascii;
    class       volScalarField;
    location    "0.6";
    object      p;
}
// * * * * * * * * * * * * * * * * * * * * * * * * * * * * * * * * * * * * * //

dimensions      [0 2 -2 0 0 0 0];

internalField   nonuniform List<scalar> 
2700
(
0.00817477
0.00656321
0.00535338
0.00460541
0.00408746
0.0036307
0.00319267
0.00279671
0.0024821
0.00226763
0.002145
0.00208952
0.00207358
0.00207494
0.00207914
0.0020786
0.00207061
0.00205542
0.00203458
0.00200995
0.0019831
0.00195521
0.00192703
0.001899
0.00187134
0.00184411
0.00181731
0.00179088
0.00176475
0.00173886
0.00171316
0.0016876
0.00166214
0.00163675
0.00161143
0.00158615
0.0015609
0.00153569
0.0015105
0.00148533
0.00146018
0.00143505
0.00140994
0.00138484
0.00135976
0.0013347
0.00130965
0.00128461
0.00125959
0.00123459
0.00120959
0.00118461
0.00115964
0.00113468
0.00110973
0.00108479
0.00105986
0.00103495
0.00101004
0.000985138
0.00096025
0.000935367
0.000910496
0.00088563
0.000860774
0.000835924
0.000811085
0.000786248
0.000761426
0.000736603
0.000711798
0.000686989
0.000662202
0.00063741
0.000612645
0.00058787
0.000563134
0.000538383
0.00051368
0.00048896
0.000464304
0.000439624
0.000415031
0.000390407
0.000365895
0.000341348
0.000316949
0.000292504
0.000268253
0.000243949
0.000219898
0.00019578
0.000171998
0.000148133
0.00012471
0.00010118
7.82468e-05
5.51618e-05
3.29151e-05
1.03413e-05
0.00717938
0.00620585
0.00525854
0.0045544
0.00404541
0.00361571
0.00321147
0.00284331
0.00254239
0.00232826
0.00219865
0.00213399
0.00210902
0.00210228
0.00209983
0.00209424
0.00208268
0.00206509
0.00204269
0.00201701
0.00198943
0.00196098
0.00193234
0.00190392
0.0018759
0.00184836
0.00182126
0.00179456
0.00176819
0.00174209
0.00171619
0.00169045
0.00166482
0.00163929
0.00161383
0.00158843
0.00156307
0.00153775
0.00151246
0.0014872
0.00146196
0.00143675
0.00141157
0.0013864
0.00136126
0.00133614
0.00131103
0.00128594
0.00126087
0.00123582
0.00121078
0.00118575
0.00116074
0.00113574
0.00111076
0.00108578
0.00106082
0.00103587
0.00101094
0.000986006
0.000961091
0.000936181
0.000911285
0.000886395
0.000861517
0.000836644
0.000811785
0.000786926
0.000762086
0.000737242
0.00071242
0.000687593
0.000662789
0.00063798
0.0006132
0.000588408
0.000563658
0.000538891
0.000514175
0.00048944
0.000464773
0.000440077
0.000415473
0.000390835
0.000366313
0.000341751
0.000317344
0.000292884
0.000268626
0.000244307
0.000220251
0.000196117
0.000172332
0.00014845
0.000125027
0.000101479
7.85505e-05
5.5445e-05
3.32038e-05
1.0589e-05
0.00644874
0.00586627
0.00515678
0.00452221
0.00402193
0.00361243
0.00324572
0.00291388
0.00263313
0.00242033
0.00227893
0.0021975
0.00215654
0.00213691
0.00212457
0.0021118
0.00209549
0.00207504
0.00205102
0.00202445
0.00199632
0.00196747
0.00193847
0.00190969
0.00188131
0.0018534
0.00182594
0.0017989
0.00177221
0.0017458
0.00171963
0.00169364
0.00166779
0.00164206
0.00161642
0.00159084
0.00156534
0.00153988
0.00151447
0.0014891
0.00146376
0.00143846
0.00141319
0.00138794
0.00136273
0.00133753
0.00131236
0.00128722
0.00126209
0.00123698
0.0012119
0.00118682
0.00116177
0.00113673
0.00111171
0.0010867
0.00106171
0.00103672
0.00101176
0.000986799
0.000961856
0.00093692
0.000912
0.000887086
0.000862186
0.000837291
0.000812412
0.000787533
0.000762675
0.000737813
0.000712974
0.000688129
0.000663311
0.000638484
0.000613692
0.000588883
0.000564122
0.000539339
0.000514612
0.000489861
0.000465184
0.000440473
0.000415861
0.000391207
0.000366678
0.000342099
0.000317687
0.000293209
0.000268947
0.00024461
0.000220551
0.000196397
0.00017261
0.000148707
0.000125283
0.000101711
7.87825e-05
5.56523e-05
3.33782e-05
1.07039e-05
0.00590216
0.00553935
0.0050181
0.00447214
0.00399928
0.00360933
0.00327394
0.00297573
0.00271793
0.00251208
0.00236416
0.00226899
0.00221289
0.00217997
0.00215724
0.00213681
0.00211505
0.00209084
0.0020643
0.00203601
0.00200669
0.00197693
0.00194719
0.00191775
0.00188878
0.0018603
0.00183232
0.00180478
0.00177763
0.00175081
0.00172426
0.00169793
0.00167177
0.00164576
0.00161987
0.00159407
0.00156836
0.00154271
0.00151713
0.0014916
0.00146612
0.00144068
0.00141529
0.00138993
0.00136461
0.00133932
0.00131406
0.00128882
0.00126362
0.00123844
0.00121328
0.00118815
0.00116303
0.00113794
0.00111286
0.0010878
0.00106276
0.00103774
0.00101273
0.000987734
0.000962756
0.000937786
0.000912834
0.000887889
0.00086296
0.000838038
0.000813133
0.000788229
0.000763348
0.000738462
0.000713603
0.000688737
0.0006639
0.000639054
0.000614245
0.000589417
0.000564641
0.00053984
0.000515099
0.000490332
0.000465643
0.000440914
0.000416291
0.000391621
0.000367081
0.000342485
0.000318064
0.000293567
0.000269297
0.00024494
0.000220874
0.000196697
0.000172903
0.000148975
0.000125542
0.000101944
7.89958e-05
5.58394e-05
3.34901e-05
1.07473e-05
0.00546931
0.00522935
0.00484518
0.00439487
0.00396735
0.00360167
0.00329159
0.00302117
0.00278561
0.0025903
0.00244104
0.00233673
0.00226858
0.00222421
0.00219224
0.00216486
0.00213797
0.00211001
0.00208075
0.00205051
0.00201975
0.00198889
0.00195826
0.00192805
0.00189837
0.00186923
0.00184063
0.00181251
0.00178481
0.00175748
0.00173046
0.0017037
0.00167715
0.00165078
0.00162455
0.00159845
0.00157246
0.00154656
0.00152075
0.001495
0.00146932
0.00144371
0.00141814
0.00139263
0.00136716
0.00134173
0.00131634
0.001291
0.00126568
0.0012404
0.00121515
0.00118992
0.00116472
0.00113955
0.0011144
0.00108928
0.00106417
0.00103909
0.00101402
0.000988969
0.000963941
0.000938923
0.000913926
0.000888939
0.00086397
0.00083901
0.00081407
0.000789131
0.000764219
0.000739303
0.000714415
0.000689522
0.000664659
0.000639787
0.000614955
0.000590104
0.000565307
0.000540484
0.000515725
0.000490936
0.000466231
0.000441481
0.000416843
0.000392152
0.000367598
0.000342982
0.000318547
0.000294029
0.000269744
0.000245365
0.000221283
0.000197083
0.00017327
0.000149317
0.000125855
0.000102232
7.92357e-05
5.60482e-05
3.35864e-05
1.07681e-05
0.00511339
0.0049447
0.0046582
0.00429621
0.00392423
0.00358885
0.00330107
0.00305275
0.00283681
0.00265367
0.00250706
0.00239768
0.00232056
0.0022667
0.00222661
0.00219297
0.00216141
0.00212998
0.00209814
0.00206597
0.00203378
0.00200182
0.00197031
0.00193934
0.00190897
0.0018792
0.00184999
0.00182129
0.00179305
0.00176521
0.00173771
0.0017105
0.00168354
0.00165678
0.0016302
0.00160377
0.00157748
0.00155129
0.00152521
0.00149922
0.00147331
0.00144748
0.00142172
0.00139602
0.00137038
0.00134478
0.00131925
0.00129375
0.0012683
0.0012429
0.00121753
0.00119219
0.00116689
0.00114162
0.00111638
0.00109116
0.00106598
0.00104082
0.00101568
0.00099056
0.000965468
0.000940388
0.000915334
0.000890293
0.000865273
0.000840265
0.000815279
0.000790296
0.000765344
0.000740388
0.000715464
0.000690535
0.000665639
0.000640735
0.000615875
0.000590993
0.00056617
0.00054132
0.000516536
0.000491723
0.000466996
0.000442221
0.000417563
0.000392849
0.000368275
0.000343636
0.000319181
0.00029464
0.000270333
0.000245932
0.000221823
0.000197599
0.00017375
0.000149774
0.000126262
0.000102612
7.95374e-05
5.63098e-05
3.37051e-05
1.08053e-05
0.00481339
0.0046893
0.00447251
0.00418471
0.00386967
0.00356922
0.00330372
0.00307395
0.0028747
0.00270375
0.00256232
0.00245128
0.00236808
0.00230665
0.00225957
0.00222031
0.00218452
0.00214992
0.00211568
0.00208169
0.0020481
0.00201506
0.00198266
0.00195094
0.00191991
0.00188952
0.00185973
0.00183048
0.00180172
0.00177338
0.00174542
0.00171778
0.00169041
0.00166327
0.00163634
0.00160958
0.00158298
0.00155651
0.00153017
0.00150393
0.00147779
0.00145174
0.00142577
0.00139988
0.00137405
0.00134829
0.00132259
0.00129695
0.00127136
0.00124581
0.00122032
0.00119486
0.00116945
0.00114407
0.00111873
0.00109342
0.00106814
0.00104289
0.00101767
0.000992475
0.00096731
0.00094216
0.000917042
0.000891938
0.000866859
0.000841795
0.000816757
0.000791723
0.000766724
0.000741722
0.000716756
0.000691786
0.000666852
0.000641911
0.000617015
0.000592099
0.000567246
0.000542364
0.000517552
0.00049271
0.000467957
0.000443155
0.000418472
0.000393734
0.000369133
0.000344471
0.000319989
0.000295426
0.000271086
0.000246664
0.000222516
0.00019827
0.00017437
0.000150371
0.000126788
0.000103108
7.99275e-05
5.66473e-05
3.38783e-05
1.0895e-05
0.00455668
0.00446268
0.00429576
0.00406714
0.00380466
0.00354111
0.00329924
0.00308661
0.00290184
0.00274231
0.0026074
0.00249729
0.00241065
0.00234363
0.00229075
0.00224656
0.00220695
0.00216948
0.00213308
0.00209741
0.00206249
0.00202838
0.0019951
0.00196263
0.00193092
0.00189992
0.00186956
0.00183977
0.0018105
0.00178169
0.00175327
0.00172521
0.00169745
0.00166994
0.00164267
0.00161559
0.0015887
0.00156195
0.00153534
0.00150886
0.00148249
0.00145623
0.00143006
0.00140397
0.00137797
0.00135204
0.00132619
0.00130039
0.00127465
0.00124898
0.00122335
0.00119777
0.00117224
0.00114676
0.00112131
0.0010959
0.00107053
0.0010452
0.00101989
0.000994619
0.000969379
0.000944158
0.000918972
0.000893803
0.000868663
0.00084354
0.000818446
0.000793359
0.000768311
0.00074326
0.000718249
0.000693235
0.000668261
0.00064328
0.000618348
0.000593396
0.000568509
0.000543595
0.000518751
0.00049388
0.000469096
0.000444268
0.000419556
0.000394794
0.000370162
0.000345478
0.000320963
0.000296379
0.000272
0.000247559
0.000223361
0.000199095
0.000175131
0.000151108
0.000127436
0.000103721
8.04139e-05
5.70665e-05
3.41205e-05
1.10491e-05
0.00433451
0.00426172
0.00413099
0.00394854
0.0037316
0.00350418
0.00328714
0.00309167
0.00292013
0.0027711
0.00264319
0.00253579
0.00244794
0.00237723
0.00231984
0.00227149
0.00222852
0.0021885
0.00215015
0.00211296
0.0020768
0.00204166
0.00200751
0.00197429
0.00194191
0.0019103
0.00187938
0.00184907
0.0018193
0.00179002
0.00176117
0.00173269
0.00170455
0.00167668
0.00164908
0.00162169
0.00159449
0.00156747
0.00154061
0.00151389
0.0014873
0.00146082
0.00143445
0.00140818
0.001382
0.0013559
0.00132989
0.00130394
0.00127807
0.00125225
0.0012265
0.00120081
0.00117516
0.00114957
0.00112402
0.00109852
0.00107306
0.00104763
0.00102225
0.000996892
0.000971578
0.000946284
0.000921032
0.000895797
0.000870597
0.000845415
0.000820267
0.000795127
0.000770029
0.00074493
0.000719875
0.000694817
0.000669802
0.000644782
0.000619812
0.000594826
0.000569904
0.000544958
0.000520082
0.000495184
0.000470368
0.000445515
0.000420771
0.000395988
0.000371321
0.000346619
0.000322065
0.000297464
0.00027304
0.000248582
0.000224327
0.000200042
0.000176006
0.000151955
0.000128187
0.000104425
8.09818e-05
5.7552e-05
3.44229e-05
1.12489e-05
0.00414033
0.004083
0.00397917
0.00383246
0.00365357
0.0034595
0.00326754
0.00308967
0.00293095
0.00279173
0.00267084
0.0025672
0.00247985
0.00240718
0.0023466
0.00229491
0.00224908
0.00220683
0.00216676
0.00212821
0.00209093
0.00205482
0.00201983
0.00198587
0.00195284
0.00192064
0.00188917
0.00185834
0.00182809
0.00179836
0.00176908
0.0017402
0.00171167
0.00168346
0.00165552
0.00162781
0.00160033
0.00157304
0.00154592
0.00151896
0.00149214
0.00146546
0.00143889
0.00141243
0.00138608
0.00135981
0.00133364
0.00130754
0.00128153
0.00125558
0.00122971
0.00120389
0.00117814
0.00115243
0.00112679
0.00110118
0.00107563
0.00105012
0.00102466
0.000999224
0.000973836
0.000948472
0.000923154
0.000897856
0.000872596
0.000847357
0.000822154
0.000796963
0.000771816
0.000746671
0.000721571
0.000696471
0.000671416
0.000646359
0.000621351
0.000596332
0.000571375
0.0005464
0.00052149
0.000496568
0.000471718
0.000446844
0.000422066
0.000397265
0.000372561
0.000347844
0.000323249
0.000298632
0.00027416
0.000249686
0.000225372
0.000201066
0.000176955
0.000152871
0.000129002
0.000105184
8.16018e-05
5.80746e-05
3.4761e-05
1.146e-05
0.00396925
0.00392349
0.00384007
0.00372111
0.00357345
0.00340895
0.00324112
0.00308109
0.00293521
0.00280545
0.00269143
0.00259212
0.00250648
0.00243329
0.00237077
0.00231664
0.00226849
0.00222433
0.00218276
0.00214302
0.00210474
0.00206776
0.00203199
0.00199733
0.00196367
0.00193089
0.00189889
0.00186757
0.00183685
0.00180668
0.00177698
0.00174771
0.00171881
0.00169024
0.00166198
0.00163397
0.0016062
0.00157864
0.00155126
0.00152407
0.00149702
0.00147012
0.00144336
0.00141671
0.00139018
0.00136374
0.00133742
0.00131117
0.00128502
0.00125894
0.00123293
0.001207
0.00118113
0.00115532
0.00112958
0.00110388
0.00107823
0.00105264
0.00102709
0.00100158
0.00097612
0.000950685
0.000925302
0.000899941
0.000874621
0.000849327
0.000824069
0.000798829
0.000773632
0.000748442
0.000723297
0.000698158
0.000673061
0.00064797
0.000622923
0.000597874
0.000572881
0.000547879
0.000522935
0.000497992
0.000473105
0.000448213
0.000423401
0.000398582
0.000373841
0.000349111
0.000324473
0.00029984
0.000275322
0.000250829
0.000226457
0.000202124
0.000177941
0.000153814
0.000129848
0.000105962
8.22432e-05
5.86051e-05
3.51082e-05
1.1654e-05
0.00381754
0.00378061
0.00371293
0.00361572
0.00349351
0.00335453
0.00320903
0.0030665
0.00293351
0.00281313
0.00270592
0.00261122
0.00252809
0.0024555
0.00239215
0.00233645
0.00228657
0.00224086
0.00219804
0.00215727
0.00211813
0.00208039
0.00204392
0.00200861
0.00197436
0.00194103
0.00190852
0.00187673
0.00184557
0.00181497
0.00178486
0.00175521
0.00172595
0.00169704
0.00166845
0.00164014
0.00161208
0.00158425
0.00155663
0.00152919
0.00150192
0.00147481
0.00144784
0.00142101
0.0013943
0.0013677
0.00134121
0.00131482
0.00128852
0.00126231
0.00123618
0.00121012
0.00118414
0.00115822
0.00113237
0.00110658
0.00108085
0.00105517
0.00102953
0.00100395
0.000978413
0.000952909
0.00092746
0.000902036
0.000876655
0.000851307
0.000825994
0.000800704
0.000775458
0.000750224
0.000725034
0.000699856
0.000674717
0.000649593
0.000624506
0.000599428
0.000574399
0.000549372
0.000524392
0.000499428
0.000474506
0.000449596
0.00042475
0.000399913
0.000375135
0.00035039
0.000325712
0.00030106
0.000276497
0.000251982
0.000227553
0.000203188
0.000178935
0.000154759
0.000130697
0.000106733
8.28832e-05
5.91227e-05
3.54457e-05
1.18193e-05
0.0036823
0.00365222
0.00359685
0.00351688
0.00341536
0.00329804
0.00317256
0.00304666
0.00292642
0.00281544
0.00271505
0.00262515
0.00254505
0.00247386
0.00241062
0.00235416
0.00230315
0.00225629
0.00221246
0.00217086
0.002131
0.00209261
0.00205554
0.00201966
0.00198487
0.00195103
0.00191804
0.0018858
0.00185421
0.0018232
0.00179271
0.00176268
0.00173307
0.00170383
0.00167492
0.00164631
0.00161797
0.00158988
0.001562
0.00153432
0.00150683
0.00147951
0.00145234
0.00142532
0.00139843
0.00137166
0.00134501
0.00131847
0.00129203
0.00126569
0.00123943
0.00121325
0.00118716
0.00116113
0.00113518
0.00110929
0.00108346
0.0010577
0.00103198
0.00100632
0.000980708
0.000955136
0.000929619
0.000904134
0.000878692
0.000853289
0.00082792
0.000802581
0.000777285
0.000752007
0.000726771
0.000701555
0.000676373
0.000651216
0.00062609
0.000600983
0.000575918
0.000550864
0.00052585
0.000500865
0.000475908
0.000450978
0.000426099
0.000401242
0.000376429
0.000351666
0.00032695
0.000302275
0.00027767
0.000253127
0.000228644
0.000204242
0.000179922
0.000155687
0.000131534
0.000107484
8.35078e-05
5.96167e-05
3.57651e-05
1.19572e-05
0.00356124
0.00353654
0.0034909
0.00342471
0.00334004
0.00324092
0.00313302
0.00302247
0.00291456
0.00281294
0.00271944
0.00263449
0.00255776
0.00248857
0.00242615
0.00236965
0.0023181
0.00227049
0.00222593
0.00218368
0.00214325
0.00210434
0.00206677
0.0020304
0.00199513
0.00196083
0.00192741
0.00189474
0.00186275
0.00183136
0.00180049
0.00177011
0.00174016
0.0017106
0.00168138
0.00165248
0.00162386
0.0015955
0.00156737
0.00153946
0.00151175
0.00148421
0.00145685
0.00142963
0.00140257
0.00137563
0.00134882
0.00132213
0.00129555
0.00126907
0.00124268
0.00121638
0.00119018
0.00116404
0.00113799
0.001112
0.00108608
0.00106023
0.00103443
0.00100869
0.000983002
0.000957361
0.000931776
0.000906229
0.000880726
0.000855268
0.000829842
0.000804456
0.000779108
0.000753787
0.000728505
0.000703251
0.000678026
0.000652836
0.00062767
0.000602534
0.000577432
0.000552352
0.000527304
0.000502295
0.000477305
0.000452353
0.000427443
0.000402563
0.000377718
0.000352932
0.000328179
0.000303478
0.000278834
0.000254256
0.000229723
0.000205277
0.000180892
0.000156593
0.000132352
0.000108209
8.41103e-05
6.00839e-05
3.60646e-05
1.20746e-05
0.0034525
0.00343207
0.00339422
0.00333912
0.00326818
0.00318429
0.00309161
0.00299491
0.00289864
0.00280618
0.00271961
0.00263976
0.00256665
0.00249987
0.00243882
0.00238286
0.00233128
0.00228335
0.00223835
0.00219566
0.00215482
0.00211551
0.00207755
0.00204078
0.0020051
0.0019704
0.00193658
0.00190352
0.00187116
0.00183941
0.00180819
0.00177748
0.0017472
0.00171732
0.00168781
0.00165862
0.00162973
0.00160111
0.00157274
0.0015446
0.00151666
0.00148892
0.00146135
0.00143395
0.00140671
0.0013796
0.00135263
0.00132579
0.00129906
0.00127245
0.00124593
0.00121952
0.00119319
0.00116695
0.00114079
0.00111471
0.00108869
0.00106275
0.00103687
0.00101105
0.000985291
0.000959581
0.000933928
0.000908318
0.000882754
0.00085724
0.000831758
0.000806323
0.000780925
0.000755559
0.000730232
0.000704938
0.000679672
0.000654446
0.000629242
0.000604076
0.000578938
0.00055383
0.00052875
0.000503714
0.000478692
0.000453718
0.000428776
0.000403871
0.000378996
0.000354184
0.000329396
0.000304666
0.000279982
0.000255367
0.000230785
0.00020629
0.000181842
0.000157473
0.000133146
0.000108907
8.46882e-05
6.05251e-05
3.63453e-05
1.21779e-05
0.00335457
0.00333757
0.00330598
0.00325986
0.00320016
0.00312895
0.00304932
0.00296493
0.00287942
0.00279578
0.00271608
0.00264143
0.00257213
0.00250804
0.00244876
0.00239381
0.00234267
0.00229479
0.00224964
0.00220672
0.00216562
0.00212605
0.0020878
0.00205073
0.00201472
0.00197968
0.00194551
0.00191211
0.0018794
0.00184731
0.00181578
0.00178474
0.00175415
0.00172398
0.00169418
0.00166471
0.00163556
0.00160669
0.00157808
0.0015497
0.00152155
0.0014936
0.00146584
0.00143825
0.00141083
0.00138356
0.00135643
0.00132944
0.00130257
0.00127582
0.00124917
0.00122264
0.0011962
0.00116985
0.00114358
0.0011174
0.0010913
0.00106527
0.0010393
0.00101341
0.00098757
0.00096179
0.000936069
0.000910396
0.000884771
0.000859201
0.000833664
0.00080818
0.00078273
0.00075732
0.000731948
0.000706614
0.000681307
0.000656045
0.000630804
0.000605606
0.000580433
0.000555295
0.000530185
0.00050512
0.000480068
0.000455069
0.000430096
0.000405164
0.00038026
0.000355419
0.000330596
0.000305835
0.000281113
0.000256456
0.000231827
0.00020728
0.000182768
0.000158327
0.000133915
0.000109576
8.52408e-05
6.09427e-05
3.66093e-05
1.22715e-05
0.00326622
0.00325198
0.00322546
0.00318664
0.00313616
0.00307552
0.003007
0.00293341
0.00285767
0.00278233
0.00270935
0.00263991
0.00257457
0.00251339
0.00245616
0.00240257
0.00235223
0.00230476
0.00225974
0.00221681
0.00217562
0.00213591
0.00209748
0.00206019
0.00202394
0.00198862
0.00195415
0.00192045
0.00188744
0.00185505
0.00182321
0.00179188
0.001761
0.00173054
0.00170047
0.00167074
0.00164133
0.00161222
0.00158337
0.00155477
0.0015264
0.00149825
0.0014703
0.00144253
0.00141493
0.00138749
0.00136021
0.00133307
0.00130605
0.00127917
0.0012524
0.00122574
0.00119918
0.00117272
0.00114636
0.00112008
0.00109388
0.00106777
0.00104172
0.00101575
0.000989832
0.000963983
0.000938193
0.000912458
0.000886773
0.000861146
0.000835554
0.00081002
0.000784521
0.000759066
0.000733649
0.000708274
0.000682927
0.000657628
0.000632351
0.000607119
0.000581912
0.000556745
0.000531604
0.000506508
0.000481428
0.000456402
0.000431399
0.000406439
0.000381507
0.000356634
0.000331778
0.000306984
0.000282223
0.000257522
0.000232845
0.000208245
0.000183668
0.000159153
0.000134658
0.000110219
8.57683e-05
6.13386e-05
3.68585e-05
1.2358e-05
0.00318643
0.00317442
0.00315201
0.00311915
0.00307626
0.00302441
0.00296531
0.00290111
0.00283412
0.00276648
0.00269992
0.00263564
0.00257431
0.00251619
0.00246124
0.00240927
0.00236003
0.00231325
0.00226862
0.00222588
0.00218476
0.00214504
0.00210654
0.00206913
0.0020327
0.00199718
0.00196248
0.00192852
0.00189524
0.00186258
0.00183047
0.00179886
0.00176772
0.00173699
0.00170666
0.00167667
0.00164702
0.00161767
0.0015886
0.00155978
0.00153121
0.00150286
0.00147471
0.00144676
0.00141899
0.00139139
0.00136395
0.00133666
0.0013095
0.00128249
0.00125559
0.00122881
0.00120214
0.00117558
0.00114911
0.00112273
0.00109644
0.00107024
0.00104411
0.00101806
0.000992069
0.000966152
0.000940295
0.000914497
0.000888753
0.000863068
0.000837423
0.000811838
0.000786289
0.00076079
0.000735329
0.000709913
0.000684527
0.000659191
0.000633877
0.000608612
0.000583372
0.000558174
0.000533003
0.000507876
0.000482768
0.000457714
0.00043268
0.000407692
0.000382732
0.000357826
0.000332937
0.000308109
0.000283309
0.000258562
0.000233838
0.000209182
0.00018454
0.000159952
0.000135372
0.000110834
8.62711e-05
6.17141e-05
3.70939e-05
1.24388e-05
0.00311433
0.00310414
0.00308509
0.00305711
0.00302046
0.00297594
0.00292481
0.0028687
0.00280945
0.00274881
0.00268829
0.00262902
0.00257171
0.00251673
0.0024642
0.00241405
0.00236613
0.00232026
0.00227625
0.0022339
0.00219301
0.0021534
0.00211493
0.00207749
0.00204098
0.00200531
0.00197043
0.00193627
0.00190277
0.00186987
0.00183751
0.00180566
0.00177427
0.0017433
0.00171272
0.00168249
0.00165261
0.00162303
0.00159374
0.00156471
0.00153593
0.00150739
0.00147906
0.00145093
0.00142299
0.00139523
0.00136764
0.0013402
0.00131291
0.00128576
0.00125874
0.00123184
0.00120506
0.00117839
0.00115182
0.00112535
0.00109897
0.00107268
0.00104646
0.00102034
0.000994275
0.000968289
0.000942365
0.000916505
0.000890702
0.000864961
0.000839263
0.000813628
0.000788031
0.000762487
0.000736982
0.000711525
0.000686101
0.000660727
0.000635378
0.00061008
0.000584806
0.000559577
0.000534376
0.000509219
0.000484083
0.000459001
0.000433937
0.00040892
0.000383931
0.000358992
0.000334069
0.000309206
0.000284366
0.000259574
0.000234803
0.000210089
0.000185383
0.00016072
0.000136057
0.000111421
8.67494e-05
6.20696e-05
3.73164e-05
1.25154e-05
0.00304922
0.00304051
0.00302421
0.00300023
0.00296876
0.00293035
0.00288594
0.00283678
0.00278431
0.00272996
0.00267502
0.00262049
0.00256711
0.00251529
0.00246525
0.00241704
0.00237061
0.00232585
0.00228263
0.00224084
0.00220032
0.00216095
0.00212262
0.00208523
0.0020487
0.00201297
0.00197797
0.00194366
0.00190998
0.00187688
0.00184431
0.00181224
0.00178062
0.00174942
0.00171861
0.00168817
0.00165806
0.00162827
0.00159877
0.00156954
0.00154057
0.00151184
0.00148333
0.00145503
0.00142692
0.001399
0.00137126
0.00134368
0.00131625
0.00128897
0.00126183
0.00123482
0.00120792
0.00118115
0.00115448
0.00112791
0.00110144
0.00107507
0.00104878
0.00102257
0.000996439
0.000970385
0.000944395
0.000918474
0.000892614
0.000866816
0.000841067
0.000815382
0.000789737
0.000764148
0.000738602
0.000713103
0.000687642
0.00066223
0.000636847
0.000611515
0.000586209
0.00056095
0.000535719
0.000510531
0.000485368
0.000460256
0.000435163
0.000410117
0.000385099
0.000360126
0.000335171
0.000310272
0.000285391
0.000260554
0.000235735
0.000210964
0.000186194
0.000161457
0.000136713
0.00011198
8.72032e-05
6.24047e-05
3.75258e-05
1.25882e-05
0.0029793
0.00297204
0.00295845
0.00293843
0.00291208
0.00287977
0.00284214
0.00280008
0.00275464
0.00270694
0.00265802
0.00260875
0.0025598
0.00251166
0.00246459
0.00241876
0.0023742
0.00233089
0.00228878
0.0022478
0.00220787
0.00216891
0.00213086
0.00209363
0.00205717
0.00202143
0.00198637
0.00195193
0.00191809
0.0018848
0.00185202
0.00181972
0.00178787
0.00175643
0.00172538
0.00169469
0.00166434
0.00163431
0.00160458
0.00157512
0.00154593
0.00151698
0.00148827
0.00145977
0.00143148
0.00140338
0.00137546
0.00134772
0.00132013
0.00129271
0.00126542
0.00123827
0.00121125
0.00118435
0.00115757
0.00113089
0.00110432
0.00107785
0.00105146
0.00102517
0.000998949
0.000972815
0.00094675
0.000920757
0.000894829
0.000868966
0.000843157
0.000817413
0.000791714
0.000766073
0.000740477
0.000714931
0.000689425
0.00066397
0.000638548
0.000613175
0.000587832
0.000562536
0.000537271
0.000512047
0.000486853
0.000461705
0.000436578
0.000411498
0.000386445
0.000361432
0.00033644
0.000311496
0.000286568
0.000261677
0.000236802
0.000211961
0.000187117
0.000162294
0.000137455
0.00011261
8.77138e-05
6.2779e-05
3.77585e-05
1.26685e-05
0.00290742
0.00290151
0.00289043
0.00287409
0.0028525
0.00282589
0.00279465
0.00275938
0.00272081
0.00267974
0.00263696
0.0025932
0.00254906
0.00250501
0.00246136
0.00241834
0.00237606
0.0023346
0.00229395
0.00225411
0.00221505
0.00217674
0.00213915
0.00210225
0.00206599
0.00203036
0.00199531
0.00196083
0.00192688
0.00189344
0.00186048
0.00182797
0.00179589
0.00176421
0.00173291
0.00170197
0.00167137
0.00164108
0.0016111
0.0015814
0.00155196
0.00152279
0.00149384
0.00146513
0.00143663
0.00140833
0.00138022
0.00135229
0.00132453
0.00129693
0.00126949
0.00124219
0.00121502
0.00118799
0.00116107
0.00113427
0.00110758
0.00108099
0.0010545
0.00102811
0.00100179
0.000975569
0.000949418
0.000923344
0.000897338
0.000871402
0.000845524
0.000819713
0.000793952
0.000768252
0.000742599
0.000716999
0.000691443
0.000665938
0.00064047
0.000615052
0.000589666
0.000564329
0.000539022
0.000513759
0.000488527
0.000463338
0.000438173
0.000413053
0.000387958
0.0003629
0.000337863
0.000312868
0.000287885
0.000262932
0.00023799
0.00021307
0.00018814
0.000163218
0.00013827
0.0001133
8.827e-05
6.31856e-05
3.80072e-05
1.27512e-05
0.00284254
0.00283772
0.00282867
0.00281529
0.00279755
0.00277557
0.00274958
0.00271998
0.00268723
0.00265191
0.0026146
0.00257588
0.00253625
0.00249615
0.00245591
0.00241577
0.0023759
0.00233642
0.0022974
0.00225887
0.00222085
0.00218336
0.00214639
0.00210994
0.00207401
0.00203859
0.00200365
0.0019692
0.00193522
0.0019017
0.00186861
0.00183594
0.00180368
0.00177179
0.00174028
0.00170911
0.00167827
0.00164775
0.00161754
0.0015876
0.00155794
0.00152854
0.00149938
0.00147046
0.00144175
0.00141325
0.00138495
0.00135684
0.00132891
0.00130115
0.00127354
0.00124609
0.00121878
0.00119161
0.00116456
0.00113764
0.00111083
0.00108413
0.00105754
0.00103104
0.00100463
0.000978317
0.00095208
0.000925925
0.000899841
0.000873831
0.000847885
0.000822007
0.000796183
0.000770423
0.000744713
0.000719059
0.000693452
0.000667897
0.000642383
0.000616919
0.00059149
0.00056611
0.000540763
0.00051546
0.000490188
0.000464959
0.000439754
0.000414593
0.000389455
0.000364352
0.000339269
0.000314221
0.000289181
0.000264166
0.000239155
0.000214155
0.000189138
0.000164118
0.000139059
0.000113967
8.88052e-05
6.35772e-05
3.82435e-05
1.28204e-05
0.00278592
0.00278195
0.00277447
0.00276339
0.00274866
0.00273032
0.0027085
0.00268345
0.00265548
0.00262495
0.00259232
0.00255801
0.00252244
0.00248599
0.00244896
0.0024116
0.00237412
0.00233665
0.0022993
0.00226216
0.00222527
0.00218869
0.00215243
0.00211654
0.00208101
0.00204588
0.00201114
0.00197679
0.00194285
0.0019093
0.00187614
0.00184336
0.00181095
0.0017789
0.0017472
0.00171584
0.00168481
0.00165408
0.00162365
0.00159351
0.00156364
0.00153403
0.00150467
0.00147555
0.00144665
0.00141797
0.00138949
0.00136121
0.00133311
0.00130519
0.00127744
0.00124984
0.0012224
0.00119509
0.00116792
0.00114088
0.00111396
0.00108716
0.00106046
0.00103386
0.00100736
0.000980961
0.000954642
0.000928408
0.00090225
0.00087617
0.000850156
0.000824214
0.000798331
0.000772513
0.000746748
0.000721043
0.000695386
0.000669783
0.000644223
0.000618715
0.000593245
0.000567824
0.000542437
0.000517094
0.000491784
0.000466515
0.000441272
0.000416071
0.00039089
0.000365743
0.000340614
0.000315513
0.000290418
0.000265343
0.000240263
0.000215186
0.000190085
0.00016497
0.000139805
0.000114595
8.93093e-05
6.3948e-05
3.84736e-05
1.28855e-05
0.00273909
0.00273575
0.00272944
0.00272007
0.00270759
0.00269198
0.00267333
0.00265177
0.00262751
0.00260081
0.00257196
0.00254129
0.00250913
0.00247581
0.00244159
0.00240671
0.00237139
0.00233577
0.0023
0.00226418
0.00222839
0.00219271
0.00215719
0.00212187
0.00208679
0.00205199
0.00201748
0.00198329
0.00194942
0.0019159
0.00188271
0.00184987
0.00181736
0.00178519
0.00175335
0.00172183
0.00169063
0.00165973
0.00162912
0.00159879
0.00156874
0.00153896
0.00150942
0.00148012
0.00145106
0.00142221
0.00139358
0.00136514
0.0013369
0.00130884
0.00128095
0.00125323
0.00122565
0.00119823
0.00117095
0.00114381
0.00111678
0.00108988
0.00106309
0.00103641
0.00100983
0.000983349
0.000956955
0.000930652
0.000904426
0.000878283
0.000852209
0.00082621
0.000800273
0.000774403
0.000748589
0.000722837
0.000697135
0.000671489
0.000645889
0.000620341
0.000594834
0.000569375
0.000543952
0.000518574
0.000493228
0.000467923
0.000442646
0.000417406
0.000392187
0.000367
0.000341828
0.000316679
0.000291534
0.000266403
0.000241261
0.000216115
0.000190938
0.000165737
0.000140477
0.000115162
8.9762e-05
6.42793e-05
3.86959e-05
1.30345e-05
0.0027042
0.00270129
0.00269578
0.00268759
0.00267664
0.00266293
0.00264647
0.00262737
0.00260574
0.00258179
0.00255571
0.00252776
0.00249818
0.00246725
0.00243521
0.00240228
0.00236867
0.00233455
0.00230007
0.00226534
0.00223048
0.00219556
0.00216067
0.00212586
0.00209119
0.0020567
0.00202242
0.00198839
0.00195462
0.00192114
0.00188796
0.00185508
0.00182252
0.00179026
0.00175832
0.00172669
0.00169535
0.00166432
0.00163357
0.0016031
0.0015729
0.00154297
0.00151329
0.00148385
0.00145465
0.00142567
0.0013969
0.00136834
0.00133998
0.0013118
0.0012838
0.00125597
0.00122829
0.00120078
0.0011734
0.00114617
0.00111906
0.00109208
0.00106521
0.00103846
0.00101181
0.000985261
0.000958806
0.000932444
0.000906163
0.000879966
0.000853843
0.000827795
0.000801813
0.0007759
0.000750045
0.000724253
0.000698514
0.000672833
0.000647199
0.000621618
0.000596079
0.000570588
0.000545136
0.000519728
0.000494353
0.000469017