/*--------------------------------*- C++ -*----------------------------------*\
| =========                 |                                                 |
| \\      /  F ield         | OpenFOAM: The Open Source CFD Toolbox           |
|  \\    /   O peration     | Version:  2.3.0                                 |
|   \\  /    A nd           | Web:      www.OpenFOAM.org                      |
|    \\/     M anipulation  |                                                 |
\*---------------------------------------------------------------------------*/
FoamFile
{
    version     2.0;
    format      ascii;
    class       surfaceScalarField;
    location    "0.6";
    object      phi_0;
}
// * * * * * * * * * * * * * * * * * * * * * * * * * * * * * * * * * * * * * //

dimensions      [0 3 -1 0 0 0 0];

internalField   nonuniform List<scalar> 
5273
(
3.22995e-08
2.28548e-09
2.89637e-08
3.33585e-09
2.57745e-08
3.18916e-09
2.27032e-08
3.07129e-09
1.97343e-08
2.96898e-09
1.69805e-08
2.75376e-09
1.45841e-08
2.3964e-09
1.26048e-08
1.97934e-09
1.10517e-08
1.55306e-09
9.88719e-09
1.1645e-09
9.03942e-09
8.47771e-10
8.4293e-09
6.10124e-10
7.986e-09
4.43297e-10
7.65302e-09
3.32982e-10
7.38942e-09
2.63598e-10
7.16719e-09
2.22228e-10
6.96867e-09
1.9852e-10
6.78421e-09
1.84465e-10
6.60939e-09
1.74815e-10
6.44277e-09
1.66625e-10
6.28416e-09
1.58609e-10
6.13379e-09
1.50368e-10
5.99183e-09
1.41964e-10
5.85822e-09
1.3361e-10
5.7327e-09
1.25512e-10
5.61485e-09
1.17857e-10
5.50412e-09
1.10723e-10
5.39995e-09
1.04172e-10
5.30176e-09
9.81882e-11
5.20902e-09
9.27484e-11
5.1212e-09
8.78122e-11
5.03789e-09
8.33171e-11
4.95866e-09
7.92286e-11
4.88317e-09
7.54841e-11
4.81112e-09
7.20528e-11
4.74223e-09
6.88932e-11
4.67626e-09
6.59711e-11
4.61299e-09
6.3267e-11
4.55224e-09
6.07479e-11
4.49384e-09
5.84026e-11
4.43763e-09
5.62101e-11
4.38347e-09
5.41547e-11
4.33124e-09
5.22298e-11
4.28083e-09
5.04164e-11
4.23212e-09
4.87124e-11
4.18501e-09
4.71046e-11
4.13942e-09
4.55868e-11
4.09527e-09
4.41525e-11
4.05248e-09
4.27962e-11
4.01097e-09
4.15079e-11
3.97068e-09
4.02911e-11
3.93155e-09
3.91292e-11
3.89352e-09
3.80304e-11
3.85654e-09
3.69799e-11
3.82056e-09
3.59818e-11
3.78553e-09
3.50276e-11
3.75141e-09
3.41187e-11
3.71816e-09
3.32453e-11
3.68575e-09
3.24162e-11
3.65413e-09
3.16133e-11
3.62328e-09
3.08508e-11
3.59317e-09
3.01144e-11
3.56376e-09
2.94065e-11
3.53503e-09
2.87287e-11
3.50696e-09
2.80717e-11
3.47952e-09
2.7442e-11
3.45269e-09
2.68304e-11
3.42644e-09
2.62467e-11
3.40077e-09
2.56685e-11
3.37564e-09
2.51318e-11
3.35106e-09
2.45795e-11
3.32698e-09
2.40848e-11
3.30342e-09
2.35561e-11
3.28032e-09
2.30992e-11
3.25774e-09
2.25872e-11
3.23556e-09
2.21724e-11
3.2139e-09
2.16638e-11
3.1926e-09
2.12965e-11
3.17182e-09
2.07864e-11
3.15135e-09
2.04627e-11
3.13141e-09
1.99468e-11
3.11173e-09
1.96766e-11
3.09259e-09
1.91368e-11
3.07366e-09
1.89312e-11
3.0553e-09
1.83634e-11
3.03707e-09
1.82262e-11
3.01946e-09
1.76175e-11
3.00188e-09
1.75723e-11
2.98498e-09
1.69058e-11
2.96801e-09
1.69681e-11
2.95177e-09
1.62369e-11
2.93534e-09
1.64365e-11
2.91972e-09
1.56191e-11
2.90372e-09
1.59985e-11
2.88864e-09
1.5083e-11
2.87294e-09
1.56997e-11
2.85828e-09
1.46596e-11
2.84266e-09
1.56144e-11
2.82824e-09
1.44241e-11
1.73527e-11
3.6636e-08
1.51952e-09
3.6764e-08
3.20789e-09
3.632e-08
3.63317e-09
3.56875e-08
3.70372e-09
3.48598e-08
3.79672e-09
3.38056e-08
3.80799e-09
3.25629e-08
3.63907e-09
3.12199e-08
3.32235e-09
2.98568e-08
2.9161e-09
2.85334e-08
2.48796e-09
2.72862e-08
2.09497e-09
2.61315e-08
1.76477e-09
2.50737e-08
1.50116e-09
2.41097e-08
1.29699e-09
2.32355e-08
1.13774e-09
2.24437e-08
1.01409e-09
2.17243e-08
9.1784e-10
2.10682e-08
8.40647e-10
2.04667e-08
7.76223e-10
1.9913e-08
7.20332e-10
1.94011e-08
6.70524e-10
1.89261e-08
6.2536e-10
1.8484e-08
5.84095e-10
1.80713e-08
5.46308e-10
1.76851e-08
5.11713e-10
1.73228e-08
4.80137e-10
1.69822e-08
4.51334e-10
1.66613e-08
4.25129e-10
1.63582e-08
4.01277e-10
1.60714e-08
3.79562e-10
1.57994e-08
3.59776e-10
1.5541e-08
3.41683e-10
1.52951e-08
3.25133e-10
1.50607e-08
3.09915e-10
1.48368e-08
2.9591e-10
1.46228e-08
2.82967e-10
1.44178e-08
2.70976e-10
1.42212e-08
2.59844e-10
1.40325e-08
2.49473e-10
1.38511e-08
2.39797e-10
1.36765e-08
2.30753e-10
1.35084e-08
2.22269e-10
1.33463e-08
2.14323e-10
1.31899e-08
2.06836e-10
1.30388e-08
1.99804e-10
1.28927e-08
1.93162e-10
1.27514e-08
1.86904e-10
1.26146e-08
1.80978e-10
1.2482e-08
1.75386e-10
1.23534e-08
1.70066e-10
1.22287e-08
1.65048e-10
1.21076e-08
1.60251e-10
1.19899e-08
1.55724e-10
1.18755e-08
1.51383e-10
1.17642e-08
1.47278e-10
1.16559e-08
1.4333e-10
1.15504e-08
1.39596e-10
1.14477e-08
1.35985e-10
1.13475e-08
1.32579e-10
1.12498e-08
1.2926e-10
1.11546e-08
1.26136e-10
1.10616e-08
1.23081e-10
1.09708e-08
1.20197e-10
1.08822e-08
1.17374e-10
1.07955e-08
1.14708e-10
1.07109e-08
1.12079e-10
1.06281e-08
1.09608e-10
1.05472e-08
1.07155e-10
1.0468e-08
1.04844e-10
1.03906e-08
1.02558e-10
1.03148e-08
1.00381e-10
1.02406e-08
9.82414e-11
1.0168e-08
9.61865e-11
1.00969e-08
9.41729e-11
1.00273e-08
9.22207e-11
9.95914e-09
9.03318e-11
9.89236e-09
8.84496e-11
9.82697e-09
8.66872e-11
9.76289e-09
8.48615e-11
9.70015e-09
8.32072e-11
9.63867e-09
8.14288e-11
9.57845e-09
7.98922e-11
9.51946e-09
7.81241e-11
9.46168e-09
7.67182e-11
9.40508e-09
7.49563e-11
9.34963e-09
7.36757e-11
9.29535e-09
7.1903e-11
9.24214e-09
7.07835e-11
9.19006e-09
6.8979e-11
9.13899e-09
6.80374e-11
9.08902e-09
6.62114e-11
9.03997e-09
6.54905e-11
8.99195e-09
6.36357e-11
8.94475e-09
6.32017e-11
8.89847e-09
6.13542e-11
8.85288e-09
6.12932e-11
8.80804e-09
5.95032e-11
8.76363e-09
6.00197e-11
8.71956e-09
5.84961e-11
6.20927e-11
3.77193e-08
1.00296e-09
3.83634e-08
2.56388e-09
3.87096e-08
3.28697e-09
3.89172e-08
3.49611e-09
3.90805e-08
3.63337e-09
3.91376e-08
3.75092e-09
3.9025e-08
3.75164e-09
3.87461e-08
3.60129e-09
3.83298e-08
3.33238e-09
3.78132e-08
3.00458e-09
3.72323e-08
2.67581e-09
3.66139e-08
2.38318e-09
3.59757e-08
2.13941e-09
3.53305e-08
1.94213e-09
3.46865e-08
1.78181e-09
3.40497e-08
1.65087e-09
3.34245e-08
1.54303e-09
3.28132e-08
1.45195e-09
3.2217e-08
1.37239e-09
3.16368e-08
1.30054e-09
3.10732e-08
1.2342e-09
3.05265e-08
1.17203e-09
2.99971e-08
1.11343e-09
2.94853e-08
1.05811e-09
2.89911e-08
1.00592e-09
2.85144e-08
9.56844e-10
2.8055e-08
9.10754e-10
2.76125e-08
8.67605e-10
2.71866e-08
8.27251e-10
2.67766e-08
7.89551e-10
2.6382e-08
7.5437e-10
2.60022e-08
7.21485e-10
2.56365e-08
6.908e-10
2.52843e-08
6.62076e-10
2.4945e-08
6.35225e-10
2.46179e-08
6.10053e-10
2.43025e-08
5.86458e-10
2.3998e-08
5.643e-10
2.3704e-08
5.4348e-10
2.34199e-08
5.23876e-10
2.31452e-08
5.05433e-10
2.28795e-08
4.88004e-10
2.26222e-08
4.71596e-10
2.2373e-08
4.56041e-10
2.21315e-08
4.41375e-10
2.18972e-08
4.2744e-10
2.16698e-08
4.14278e-10
2.1449e-08
4.0174e-10
2.12345e-08
3.89892e-10
2.1026e-08
3.78555e-10
2.08232e-08
3.67854e-10
2.06259e-08
3.57565e-10
2.04338e-08
3.47858e-10
2.02467e-08
3.38489e-10
2.00643e-08
3.29649e-10
1.98866e-08
3.21082e-10
1.97131e-08
3.1301e-10
1.9544e-08
3.05134e-10
1.93788e-08
2.97748e-10
1.92176e-08
2.90476e-10
1.90601e-08
2.83687e-10
1.89062e-08
2.7696e-10
1.87557e-08
2.70688e-10
1.86086e-08
2.64438e-10
1.84647e-08
2.58639e-10
1.8324e-08
2.52791e-10
1.81862e-08
2.47419e-10
1.80514e-08
2.41931e-10
1.79193e-08
2.36922e-10
1.77901e-08
2.31763e-10
1.76634e-08
2.27072e-10
1.75395e-08
2.22195e-10
1.74179e-08
2.17797e-10
1.72989e-08
2.13156e-10
1.71821e-08
2.09019e-10
1.70678e-08
2.04594e-10
1.69556e-08
2.00665e-10
1.68458e-08
1.96444e-10
1.6738e-08
1.92705e-10
1.66326e-08
1.88637e-10
1.65289e-08
1.8508e-10
1.64277e-08
1.81159e-10
1.6328e-08
1.77734e-10
1.62308e-08
1.73956e-10
1.61351e-08
1.70674e-10
1.60418e-08
1.67001e-10
1.59498e-08
1.63856e-10
1.58603e-08
1.60313e-10
1.5772e-08
1.573e-10
1.56861e-08
1.53877e-10
1.56013e-08
1.5105e-10
1.5519e-08
1.47779e-10
1.54375e-08
1.45171e-10
1.53585e-08
1.42122e-10
1.52801e-08
1.3984e-10
1.52042e-08
1.37146e-10
1.51284e-08
1.35289e-10
1.5055e-08
1.33424e-10
1.49813e-08
1.32248e-10
1.33954e-10
3.88712e-08
7.16829e-10
3.94287e-08
2.00642e-09
3.98964e-08
2.81927e-09
4.02411e-08
3.15142e-09
4.05779e-08
3.29653e-09
4.09128e-08
3.416e-09
4.11876e-08
3.47682e-09
4.13649e-08
3.42399e-09
4.14359e-08
3.26143e-09
4.14114e-08
3.02911e-09
4.13111e-08
2.77607e-09
4.11538e-08
2.5405e-09
4.09538e-08
2.3394e-09
4.07213e-08
2.17465e-09
4.04626e-08
2.04045e-09
4.01833e-08
1.93017e-09
3.9888e-08
1.83835e-09
3.95798e-08
1.76014e-09
3.92607e-08
1.69146e-09
3.89323e-08
1.62898e-09
3.85958e-08
1.5707e-09
3.82526e-08
1.51523e-09
3.7904e-08
1.46203e-09
3.75513e-08
1.41076e-09
3.71959e-08
1.36136e-09
3.68389e-08
1.31384e-09
3.64815e-08
1.26819e-09
3.61246e-08
1.22446e-09
3.57692e-08
1.18262e-09
3.54162e-08
1.14262e-09
3.50661e-08
1.10446e-09
3.47196e-08
1.06797e-09
3.43772e-08
1.03321e-09
3.40393e-08
9.9996e-10
3.37062e-08
9.68269e-10
3.33783e-08
9.37948e-10
3.30558e-08
9.09019e-10
3.27388e-08
8.81332e-10
3.24273e-08
8.54901e-10
3.21216e-08
8.29571e-10
3.18217e-08
8.05409e-10
3.15275e-08
7.82198e-10
3.1239e-08
7.60086e-10
3.09562e-08
7.388e-10
3.06791e-08
7.18531e-10
3.04075e-08
6.98993e-10
3.01414e-08
6.80391e-10
2.98807e-08
6.62425e-10
2.96253e-08
6.45345e-10
2.9375e-08
6.28783e-10
2.91298e-08
6.13087e-10
2.88896e-08
5.97791e-10
2.86541e-08
5.83334e-10
2.84234e-08
5.69187e-10
2.81972e-08
5.55844e-10
2.79756e-08
5.42724e-10
2.77582e-08
5.30399e-10
2.75451e-08
5.18181e-10
2.73361e-08
5.0679e-10
2.71312e-08
4.95374e-10
2.69301e-08
4.84815e-10
2.67329e-08
4.74135e-10
2.65393e-08
4.64314e-10
2.63494e-08
4.54283e-10
2.61629e-08
4.45152e-10
2.598e-08
4.35669e-10
2.58003e-08
4.27175e-10
2.5624e-08
4.18185e-10
2.54507e-08
4.10246e-10
2.52807e-08
4.01701e-10
2.51136e-08
3.94264e-10
2.49497e-08
3.86092e-10
2.47883e-08
3.79133e-10
2.46302e-08
3.71257e-10
2.44745e-08
3.6474e-10
2.4322e-08
3.57124e-10
2.41717e-08
3.50984e-10
2.40245e-08
3.43592e-10
2.38794e-08
3.37818e-10
2.37375e-08
3.30559e-10
2.35974e-08
3.25154e-10
2.34606e-08
3.18e-10
2.33254e-08
3.1291e-10
2.31935e-08
3.05828e-10
2.30631e-08
3.01088e-10
2.29361e-08
2.93996e-10
2.28103e-08
2.89617e-10
2.26881e-08
2.82526e-10
2.25669e-08
2.78522e-10
2.24494e-08
2.71391e-10
2.23326e-08
2.67854e-10
2.22196e-08
2.60716e-10
2.21071e-08
2.57693e-10
2.19986e-08
2.50662e-10
2.18901e-08
2.48277e-10
2.17857e-08
2.41604e-10
2.1681e-08
2.39943e-10
2.158e-08
2.34416e-10
2.14785e-08
2.33771e-10
2.3181e-10
4.01879e-08
5.47646e-10
4.06127e-08
1.58155e-09
4.10566e-08
2.37538e-09
4.14165e-08
2.79159e-09
4.17381e-08
2.9749e-09
4.2072e-08
3.08211e-09
4.23964e-08
3.15238e-09
4.26752e-08
3.14523e-09
4.28873e-08
3.0493e-09
4.3031e-08
2.88544e-09
4.31167e-08
2.69039e-09
4.31583e-08
2.49886e-09
4.31669e-08
2.33076e-09
4.31498e-08
2.19177e-09
4.31114e-08
2.07888e-09
4.3055e-08
1.98656e-09
4.29835e-08
1.90984e-09
4.28989e-08
1.84476e-09
4.28022e-08
1.78818e-09
4.26938e-08
1.73732e-09
4.25741e-08
1.69041e-09
4.24434e-08
1.64599e-09
4.23019e-08
1.6035e-09
4.21502e-08
1.56243e-09
4.19889e-08
1.52268e-09
4.18186e-08
1.48418e-09
4.16399e-08
1.4469e-09
4.14535e-08
1.41084e-09
4.12601e-08
1.37602e-09
4.10604e-08
1.34234e-09
4.08549e-08
1.30989e-09
4.06445e-08
1.27845e-09
4.04295e-08
1.24819e-09
4.02106e-08
1.21882e-09
3.99884e-08
1.19052e-09
3.97633e-08
1.16304e-09
3.95358e-08
1.13653e-09
3.93064e-08
1.11075e-09
3.90754e-08
1.08588e-09
3.88433e-08
1.06164e-09
3.86104e-08
1.0383e-09
3.83771e-08
1.01548e-09
3.81437e-08
9.93552e-10
3.79104e-08
9.72052e-10
3.76775e-08
9.51432e-10
3.74453e-08
9.3118e-10
3.72139e-08
9.11784e-10
3.69837e-08
8.92682e-10
3.67546e-08
8.74456e-10
3.65269e-08
8.56408e-10
3.63007e-08
8.39289e-10
3.60763e-08
8.22226e-10
3.58535e-08
8.06129e-10
3.56327e-08
7.89995e-10
3.54137e-08
7.7485e-10
3.51968e-08
7.59568e-10
3.49819e-08
7.45331e-10
3.47693e-08
7.30807e-10
3.45586e-08
7.17441e-10
3.43504e-08
7.03605e-10
3.41442e-08
6.91036e-10
3.39405e-08
6.77853e-10
3.37388e-08
6.6601e-10
3.35396e-08
6.53407e-10
3.33425e-08
6.42279e-10
3.3148e-08
6.30153e-10
3.29555e-08
6.1971e-10
3.27657e-08
6.08016e-10
3.25777e-08
5.98184e-10
3.23926e-08
5.86883e-10
3.22092e-08
5.77627e-10
3.20286e-08
5.66632e-10
3.18498e-08
5.57951e-10
3.16739e-08
5.47171e-10
3.14996e-08
5.39045e-10
3.13283e-08
5.28435e-10
3.11585e-08
5.20802e-10
3.09918e-08
5.10316e-10
3.08264e-08
5.03188e-10
3.06643e-08
4.92695e-10
3.05033e-08
4.861e-10
3.03457e-08
4.75561e-10
3.01892e-08
4.69442e-10
3.00362e-08
4.58806e-10
2.98841e-08
4.53229e-10
2.97357e-08
4.42377e-10
2.9588e-08
4.37364e-10
2.94442e-08
4.26314e-10
2.93008e-08
4.21878e-10
2.91616e-08
4.10584e-10
2.90226e-08
4.06835e-10
2.8888e-08
3.95363e-10
2.87534e-08
3.92326e-10
2.86232e-08
3.80865e-10
2.84928e-08
3.7866e-10
2.83668e-08
3.67585e-10
2.82404e-08
3.66312e-10
2.81183e-08
3.56593e-10
2.79953e-08
3.56678e-10
3.50233e-10
4.16167e-08
4.36492e-10
4.19301e-08
1.26818e-09
4.23166e-08
1.98886e-09
4.26666e-08
2.44163e-09
4.29691e-08
2.67235e-09
4.32642e-08
2.7871e-09
4.3561e-08
2.85555e-09
4.38355e-08
2.87068e-09
4.40667e-08
2.81816e-09
4.42466e-08
2.70546e-09
4.43805e-08
2.55654e-09
4.44794e-08
2.39994e-09
4.45536e-08
2.25654e-09
4.461e-08
2.13538e-09
4.46527e-08
2.03624e-09
4.46842e-08
1.95502e-09
4.47067e-08
1.88738e-09
4.47216e-08
1.82988e-09
4.47296e-08
1.78013e-09
4.47311e-08
1.73585e-09
4.47258e-08
1.69567e-09
4.47136e-08
1.65817e-09
4.46943e-08
1.62282e-09
4.46678e-08
1.58898e-09
4.46339e-08
1.55653e-09
4.45928e-08
1.52527e-09
4.45445e-08
1.49518e-09
4.44892e-08
1.46616e-09
4.4427e-08
1.43826e-09
4.4358e-08
1.41127e-09
4.42826e-08
1.38538e-09
4.42008e-08
1.36022e-09
4.41129e-08
1.3361e-09
4.40191e-08
1.31256e-09
4.39197e-08
1.28996e-09
4.38149e-08
1.26783e-09
4.37049e-08
1.24654e-09
4.359e-08
1.22564e-09
4.34704e-08
1.20552e-09
4.33464e-08
1.18565e-09
4.32181e-08
1.16659e-09
4.30859e-08
1.14764e-09
4.29499e-08
1.12952e-09
4.28106e-08
1.11141e-09
4.26679e-08
1.09413e-09
4.25223e-08
1.07679e-09
4.23738e-08
1.0603e-09
4.22228e-08
1.04365e-09
4.20693e-08
1.02792e-09
4.19139e-08
1.01189e-09
4.17563e-08
9.96886e-10
4.15971e-08
9.81421e-10
4.14361e-08
9.67089e-10
4.12739e-08
9.52173e-10
4.11103e-08
9.38468e-10
4.09458e-08
9.24047e-10
4.07802e-08
9.10968e-10
4.0614e-08
8.96959e-10
4.0447e-08
8.84514e-10
4.02797e-08
8.7087e-10
4.01117e-08
8.59005e-10
3.99439e-08
8.45731e-10
3.97755e-08
8.34396e-10
3.96074e-08
8.21431e-10
3.94391e-08
8.10666e-10
3.92713e-08
7.97904e-10
3.91033e-08
7.87713e-10
3.89362e-08
7.75132e-10
3.87689e-08
7.65454e-10
3.86028e-08
7.53033e-10
3.84365e-08
7.43862e-10
3.82717e-08
7.3151e-10
3.81067e-08
7.22883e-10
3.79434e-08
7.10498e-10
3.778e-08
7.02423e-10
3.76185e-08
6.8997e-10
3.74569e-08
6.82389e-10
3.72974e-08
6.69831e-10
3.71378e-08
6.62787e-10
3.69805e-08
6.49959e-10
3.68231e-08
6.43514e-10
3.66683e-08
6.30392e-10
3.65133e-08
6.24465e-10
3.6361e-08
6.11008e-10
3.62086e-08
6.05703e-10
3.60592e-08
5.91766e-10
3.59095e-08
5.87097e-10
3.5763e-08
5.72753e-10
3.56162e-08
5.68709e-10
3.54728e-08
5.53917e-10
3.53291e-08
5.50623e-10
3.51889e-08
5.35504e-10
3.50483e-08
5.32946e-10
3.49114e-08
5.17765e-10
3.4774e-08
5.16087e-10
3.46403e-08
5.01292e-10
3.45059e-08
5.00666e-10
3.43752e-08
4.87275e-10
3.42436e-08
4.88261e-10
4.77861e-10
4.31278e-08
3.56435e-10
4.33579e-08
1.03808e-09
4.36816e-08
1.66512e-09
4.40056e-08
2.11763e-09
4.42946e-08
2.38341e-09
4.45619e-08
2.51979e-09
4.48259e-08
2.59152e-09
4.50776e-08
2.61896e-09
4.53e-08
2.5958e-09
4.54828e-08
2.52267e-09
4.56263e-08
2.41301e-09
4.57384e-08
2.28782e-09
4.58285e-08
2.16643e-09
4.59038e-08
2.06013e-09
4.59686e-08
1.97145e-09
4.60256e-08
1.89803e-09
4.60766e-08
1.8364e-09
4.6123e-08
1.78347e-09
4.61657e-08
1.73738e-09
4.62053e-08
1.69626e-09
4.62417e-08
1.65922e-09
4.6275e-08
1.62492e-09
4.63048e-08
1.59299e-09
4.63311e-08
1.56269e-09
4.63537e-08
1.534e-09
4.63724e-08
1.50653e-09
4.63872e-08
1.4804e-09
4.6398e-08
1.45531e-09
4.64048e-08
1.43148e-09
4.64076e-08
1.4085e-09
4.64062e-08
1.38676e-09
4.64008e-08
1.36566e-09
4.63912e-08
1.34572e-09
4.63775e-08
1.32626e-09
4.63596e-08
1.30786e-09
4.63376e-08
1.2898e-09
4.63114e-08
1.27271e-09
4.62812e-08
1.25583e-09
4.62469e-08
1.23988e-09
4.62086e-08
1.22396e-09
4.61662e-08
1.209e-09
4.61199e-08
1.19389e-09
4.60697e-08
1.17978e-09
4.60157e-08
1.16538e-09
4.59578e-08
1.15199e-09
4.58964e-08
1.13821e-09
4.58312e-08
1.12547e-09
4.57627e-08
1.11217e-09
4.56906e-08
1.10006e-09
4.56153e-08
1.08716e-09
4.55366e-08
1.0756e-09
4.5455e-08
1.06306e-09
4.53701e-08
1.05199e-09
4.52825e-08
1.03977e-09
4.51918e-08
1.02914e-09
4.50987e-08
1.01716e-09
4.50026e-08
1.007e-09
4.49044e-08
9.95155e-10
4.48035e-08
9.85471e-10
4.47006e-08
9.73726e-10
4.45952e-08
9.64438e-10
4.44881e-08
9.52822e-10
4.43786e-08
9.43891e-10
4.42677e-08
9.32306e-10
4.41546e-08
9.23824e-10
4.40403e-08
9.12141e-10
4.39239e-08
9.04109e-10
4.38067e-08
8.92341e-10
4.36875e-08
8.84684e-10
4.35677e-08
8.72811e-10
4.3446e-08
8.65552e-10
4.33241e-08
8.53463e-10
4.32003e-08
8.4667e-10
4.30765e-08
8.34251e-10
4.2951e-08
8.27942e-10
4.28258e-08
8.15188e-10
4.26989e-08
8.09271e-10
4.25726e-08
7.96161e-10
4.24446e-08
7.9073e-10
4.23176e-08
7.77043e-10
4.21889e-08
7.72174e-10
4.20613e-08
7.57961e-10
4.19323e-08
7.53493e-10
4.18046e-08
7.38725e-10
4.16755e-08
7.34839e-10
4.15479e-08
7.19333e-10
4.1419e-08
7.15987e-10
4.12918e-08
6.99938e-10
4.11634e-08
6.97079e-10
4.10369e-08
6.80416e-10
4.09094e-08
6.78217e-10
4.07837e-08
6.6113e-10
4.06572e-08
6.59503e-10
4.05326e-08
6.42316e-10
4.04072e-08
6.41485e-10
4.02839e-08
6.24657e-10
4.01597e-08
6.24869e-10
4.00375e-08
6.09412e-10
3.99145e-08
6.11318e-10
5.98703e-10
4.47078e-08
2.95766e-10
4.48815e-08
8.64366e-10
4.5146e-08
1.40067e-09
4.54347e-08
1.82897e-09
4.57074e-08
2.11068e-09
4.59568e-08
2.27038e-09
4.6195e-08
2.35333e-09
4.64236e-08
2.39035e-09
4.6632e-08
2.38738e-09
4.68105e-08
2.3442e-09
4.69559e-08
2.26759e-09
4.70723e-08
2.17141e-09
4.71672e-08
2.07151e-09
4.72477e-08
1.97964e-09
4.73184e-08
1.90072e-09
4.73822e-08
1.83426e-09
4.74407e-08
1.77789e-09
4.74954e-08
1.72884e-09
4.75471e-08
1.68565e-09
4.75966e-08
1.64671e-09
4.76443e-08
1.61152e-09
4.76903e-08
1.5789e-09
4.77346e-08
1.54872e-09
4.77772e-08
1.52014e-09
4.78179e-08
1.49329e-09
4.78568e-08
1.4676e-09
4.78938e-08
1.44339e-09
4.7929e-08
1.42013e-09
4.79622e-08
1.39827e-09
4.79935e-08
1.37718e-09
4.80228e-08
1.35746e-09
4.80502e-08
1.33831e-09
4.80754e-08
1.32048e-09
4.80986e-08
1.30306e-09
4.81196e-08
1.28687e-09
4.81385e-08
1.27093e-09
4.8155e-08
1.25618e-09
4.81693e-08
1.24149e-09
4.81812e-08
1.22801e-09
4.81908e-08
1.21435e-09
4.81978e-08
1.20197e-09
4.82025e-08
1.18922e-09
4.82045e-08
1.17775e-09
4.82041e-08
1.16579e-09
4.8201e-08
1.15511e-09
4.81954e-08
1.14379e-09
4.8187e-08
1.13386e-09
4.81762e-08
1.12302e-09
4.81624e-08
1.11379e-09
4.81463e-08
1.10333e-09
4.81272e-08
1.09469e-09
4.81057e-08
1.08458e-09
4.80812e-08
1.07642e-09
4.80544e-08
1.06661e-09
4.80246e-08
1.0589e-09
4.79925e-08
1.04925e-09
4.79575e-08
1.04204e-09
4.79202e-08
1.0324e-09
4.788e-08
1.02567e-09
4.78377e-08
1.01605e-09
4.77925e-08
1.00965e-09
4.77453e-08
1.00008e-09
4.76951e-08
9.94003e-10
4.76432e-08
9.84291e-10
4.75883e-08
9.78682e-10
4.75317e-08
9.68695e-10
4.74724e-08
9.63483e-10
4.74114e-08
9.53288e-10
4.73477e-08
9.48374e-10
4.72826e-08
9.37914e-10
4.72148e-08
9.33353e-10
4.71458e-08
9.22483e-10
4.70741e-08
9.18358e-10
4.70014e-08
9.06952e-10
4.69261e-08
9.03241e-10
4.68499e-08
8.9137e-10
4.67713e-08
8.87908e-10
4.66919e-08
8.75525e-10
4.66102e-08
8.72515e-10
4.65279e-08
8.59312e-10
4.64433e-08
8.56753e-10
4.63583e-08
8.42975e-10
4.62712e-08
8.40587e-10
4.61838e-08
8.26112e-10
4.60944e-08
8.24249e-10
4.60049e-08
8.08879e-10
4.59135e-08
8.073e-10
4.58221e-08
7.91423e-10
4.5729e-08
7.90109e-10
4.5636e-08
7.7349e-10
4.55415e-08
7.72663e-10
4.5447e-08
7.55654e-10
4.53514e-08
7.551e-10
4.52557e-08
7.37994e-10
4.51591e-08
7.38103e-10
4.50624e-08
7.21355e-10
4.49649e-08
7.22359e-10
4.48674e-08
7.0696e-10
4.47691e-08
7.09615e-10
6.96992e-10
4.63535e-08
2.48338e-10
4.64896e-08
7.28254e-10
4.67031e-08
1.18719e-09
4.69543e-08
1.57774e-09
4.72055e-08
1.85941e-09
4.74399e-08
2.036e-09
4.76593e-08
2.13398e-09
4.78679e-08
2.18172e-09
4.80617e-08
2.19356e-09
4.82333e-08
2.17261e-09
4.83782e-08
2.12273e-09
4.84972e-08
2.05237e-09
4.85954e-08
1.9733e-09
4.8679e-08
1.89608e-09
4.87526e-08
1.82708e-09
4.88194e-08
1.76753e-09
4.88809e-08
1.7164e-09
4.89383e-08
1.67134e-09
4.89928e-08
1.63122e-09
4.90449e-08
1.59454e-09
4.90953e-08
1.56113e-09
4.91443e-08
1.52995e-09
4.91919e-08
1.50111e-09
4.92383e-08
1.47373e-09
4.92835e-08
1.44811e-09
4.93276e-08
1.42351e-09
4.93705e-08
1.40047e-09
4.94124e-08
1.37819e-09
4.94533e-08
1.35743e-09
4.94932e-08
1.33725e-09
4.95321e-08
1.31856e-09
4.95701e-08
1.30032e-09
4.96071e-08
1.28349e-09
4.96432e-08
1.26697e-09
4.96782e-08
1.25182e-09
4.97124e-08
1.23679e-09
4.97454e-08
1.22316e-09
4.97775e-08
1.20939e-09
4.98084e-08
1.19712e-09
4.98383e-08
1.18445e-09
4.98669e-08
1.17334e-09
4.98945e-08
1.16168e-09
4.99207e-08
1.15155e-09
4.99457e-08
1.14077e-09
4.99693e-08
1.13153e-09
4.99916e-08
1.12143e-09
5.00124e-08
1.1131e-09
5.00319e-08
1.1035e-09
5.00497e-08
1.09598e-09
5.00662e-08
1.08684e-09
5.00809e-08
1.07997e-09
5.00942e-08
1.07128e-09
5.01057e-08
1.06496e-09
5.01157e-08
1.05661e-09
5.01237e-08
1.05085e-09
5.01303e-08
1.04265e-09
5.01348e-08
1.03753e-09
5.01379e-08
1.02933e-09
5.01388e-08
1.02475e-09
5.01382e-08
1.01665e-09
5.01355e-08
1.01239e-09
5.01312e-08
1.00438e-09
5.01246e-08
1.00054e-09
5.01166e-08
9.92292e-10
5.01063e-08
9.89045e-10
5.00945e-08
9.80498e-10
5.00803e-08
9.77622e-10
5.00647e-08
9.68919e-10
5.00467e-08
9.66327e-10
5.00273e-08
9.57321e-10
5.00056e-08
9.55125e-10
4.99824e-08
9.45637e-10
4.99569e-08
9.43905e-10
4.993e-08
9.33837e-10
4.99008e-08
9.32441e-10
4.98702e-08
9.2199e-10
4.98374e-08
9.20709e-10
4.98032e-08
9.09683e-10
4.97668e-08
9.08924e-10
4.97291e-08
8.96981e-10
4.96894e-08
8.96465e-10
4.96482e-08
8.84165e-10
4.96052e-08
8.83595e-10
4.95608e-08
8.70482e-10
4.95146e-08
8.70466e-10
4.9467e-08
8.56504e-10
4.94179e-08
8.56372e-10
4.93672e-08
8.42109e-10
4.93152e-08
8.42117e-10
4.92617e-08
8.26999e-10
4.92071e-08
8.2729e-10
4.91507e-08
8.12015e-10
4.90936e-08
8.12265e-10
4.90347e-08
7.96891e-10
4.89751e-08
7.9772e-10
4.89136e-08
7.8279e-10
4.88517e-08
7.84291e-10
4.87879e-08
7.70718e-10
4.87237e-08
7.73828e-10
7.62948e-10
4.80645e-08
2.10393e-10
4.81739e-08
6.1885e-10
4.83473e-08
1.0138e-09
4.85628e-08
1.36221e-09
4.87893e-08
1.63297e-09
4.90076e-08
1.81762e-09
4.92121e-08
1.92951e-09
4.94046e-08
1.98926e-09
4.95846e-08
2.01347e-09
4.9748e-08
2.00923e-09
4.98905e-08
1.9803e-09
5.00109e-08
1.93189e-09
5.01121e-08
1.87219e-09
5.01986e-08
1.80958e-09
5.02748e-08
1.75081e-09
5.0344e-08
1.69836e-09
5.04078e-08
1.65258e-09
5.04675e-08
1.6117e-09
5.05238e-08
1.57492e-09
5.05775e-08
1.54082e-09
5.06292e-08
1.50944e-09
5.06792e-08
1.47987e-09
5.07279e-08
1.45243e-09
5.07754e-08
1.42624e-09
5.08217e-08
1.40179e-09
5.08671e-08
1.37815e-09
5.09114e-08
1.35612e-09
5.0955e-08
1.33463e-09
5.09977e-08
1.31472e-09
5.10397e-08
1.29521e-09
5.10811e-08
1.27722e-09
5.11218e-08
1.25957e-09
5.1162e-08
1.24334e-09
5.12016e-08
1.22733e-09
5.12407e-08
1.21276e-09
5.12793e-08
1.19815e-09
5.13174e-08
1.18513e-09
5.1355e-08
1.17174e-09
5.13921e-08
1.16008e-09
5.14287e-08
1.14781e-09
5.14647e-08
1.1373e-09
5.15003e-08
1.1261e-09
5.15353e-08
1.11656e-09
5.15698e-08
1.10629e-09
5.16036e-08
1.09772e-09
5.16369e-08
1.0881e-09
5.16695e-08
1.08056e-09
5.17016e-08
1.07143e-09
5.17328e-08
1.06476e-09
5.17634e-08
1.05619e-09
5.17932e-08
1.05017e-09
5.18224e-08
1.04215e-09
5.18506e-08
1.03672e-09
5.18781e-08
1.02908e-09
5.19046e-08
1.02434e-09
5.19305e-08
1.01682e-09
5.19551e-08
1.01286e-09
5.19791e-08
1.00537e-09
5.20019e-08
1.00198e-09
5.20238e-08
9.9475e-10
5.20445e-08
9.91634e-10
5.20643e-08
9.84563e-10
5.20829e-08
9.82036e-10
5.21005e-08
9.74625e-10
5.21167e-08
9.72829e-10
5.2132e-08
9.65226e-10
5.21459e-08
9.63715e-10
5.21587e-08
9.56124e-10
5.21701e-08
9.54911e-10
5.21804e-08
9.47027e-10
5.21892e-08
9.46303e-10
5.21969e-08
9.37943e-10
5.22031e-08
9.37723e-10
5.22081e-08
9.28885e-10
5.22116e-08
9.28864e-10
5.22138e-08
9.19888e-10
5.22146e-08
9.19897e-10
5.2214e-08
9.10286e-10
5.22119e-08
9.10991e-10
5.22083e-08
9.00534e-10
5.22037e-08
9.01139e-10
5.21971e-08
8.90746e-10
5.21895e-08
8.91203e-10
5.21802e-08
8.798e-10
5.21697e-08
8.80928e-10
5.21572e-08
8.68974e-10
5.21441e-08
8.69478e-10
5.21288e-08
8.5747e-10
5.21126e-08
8.58239e-10
5.20944e-08
8.45258e-10
5.20756e-08
8.46057e-10
5.20543e-08
8.33336e-10
5.20327e-08
8.33903e-10
5.20086e-08
8.20994e-10
5.19841e-08
8.22154e-10
5.1957e-08
8.09889e-10
5.19298e-08
8.11509e-10
5.18999e-08
8.00588e-10
5.18699e-08
8.03862e-10
7.95496e-10
4.98418e-08
1.79524e-10
4.99313e-08
5.29394e-10
5.00741e-08
8.70975e-10
5.02576e-08
1.17869e-09
5.04586e-08
1.43205e-09
5.06593e-08
1.61693e-09
5.08501e-08
1.73864e-09
5.10294e-08
1.81e-09
5.11973e-08
1.84554e-09
5.13521e-08
1.85447e-09
5.14906e-08
1.84181e-09
5.16111e-08
1.81137e-09
5.17144e-08
1.76884e-09
5.18037e-08
1.72028e-09
5.18826e-08
1.67192e-09
5.19542e-08
1.62679e-09
5.20203e-08
1.58648e-09
5.20821e-08
1.54989e-09
5.21404e-08
1.51662e-09
5.21958e-08
1.4854e-09
5.22489e-08
1.4563e-09
5.23002e-08
1.42861e-09
5.23499e-08
1.40272e-09
5.23983e-08
1.37784e-09
5.24455e-08
1.35463e-09
5.24916e-08
1.332e-09
5.25367e-08
1.31101e-09
5.25811e-08
1.29033e-09
5.26245e-08
1.27125e-09
5.26673e-08
1.25241e-09
5.27095e-08
1.23504e-09
5.27511e-08
1.21797e-09
5.27922e-08
1.20223e-09
5.28329e-08
1.18668e-09
5.28731e-08
1.17256e-09
5.29129e-08
1.15828e-09
5.29524e-08
1.14569e-09
5.29916e-08
1.13254e-09
5.30303e-08
1.12129e-09
5.30689e-08
1.10926e-09
5.31071e-08
1.09908e-09
5.31451e-08
1.08816e-09
5.31827e-08
1.07889e-09
5.32201e-08
1.06891e-09
5.32572e-08
1.06065e-09
5.3294e-08
1.05123e-09
5.33305e-08
1.04411e-09
5.33668e-08
1.03514e-09
5.34027e-08
1.02888e-09
5.34383e-08
1.02057e-09
5.34736e-08
1.01486e-09
5.35085e-08
1.0072e-09
5.35431e-08
1.00211e-09
5.35774e-08
9.94795e-10
5.36113e-08
9.90514e-10
5.36448e-08
9.83256e-10
5.36778e-08
9.79848e-10
5.37105e-08
9.7267e-10
5.37428e-08
9.6975e-10
5.37745e-08
9.63043e-10
5.38058e-08
9.60312e-10
5.38366e-08
9.53793e-10
5.38668e-08
9.51844e-10
5.38965e-08
9.44852e-10
5.39256e-08
9.43726e-10
5.39541e-08
9.36722e-10
5.39822e-08
9.35696e-10
5.40094e-08
9.2892e-10
5.40361e-08
9.28205e-10
5.4062e-08
9.21119e-10
5.40873e-08
9.21006e-10
5.41117e-08
9.13474e-10
5.41356e-08
9.13862e-10
5.41584e-08
9.06044e-10
5.41809e-08
9.06425e-10
5.4202e-08
8.98771e-10
5.42227e-08
8.99162e-10
5.42423e-08
8.90735e-10
5.42612e-08
8.92055e-10
5.42788e-08
8.82984e-10
5.42962e-08
8.8373e-10
5.43117e-08
8.75211e-10
5.4327e-08
8.75901e-10
5.43408e-08
8.66028e-10
5.43542e-08
8.67544e-10
5.43655e-08
8.57626e-10
5.4377e-08
8.57959e-10
5.43864e-08
8.48134e-10
5.43955e-08
8.49129e-10
5.44025e-08
8.38202e-10
5.44097e-08
8.38903e-10
5.44143e-08
8.2875e-10
5.4419e-08
8.2922e-10
5.44213e-08
8.18657e-10
5.44237e-08
8.19803e-10
5.44234e-08
8.10175e-10
5.44232e-08
8.1164e-10
5.44206e-08
8.03268e-10
5.44179e-08
8.06509e-10
8.00531e-10
5.16871e-08
1.54082e-10
5.17613e-08
4.55242e-10
5.18806e-08
7.51673e-10
5.20364e-08
1.02283e-09
5.22132e-08
1.2553e-09
5.23953e-08
1.43486e-09
5.25724e-08
1.56148e-09
5.27401e-08
1.64231e-09
5.28975e-08
1.68812e-09
5.3044e-08
1.70805e-09
5.31776e-08
1.70821e-09
5.32968e-08
1.69217e-09
5.34013e-08
1.66428e-09
5.3493e-08
1.62863e-09
5.35744e-08
1.59052e-09
5.36483e-08
1.55288e-09
5.37166e-08
1.51813e-09
5.37806e-08
1.48591e-09
5.3841e-08
1.45622e-09
5.38983e-08
1.42805e-09
5.39532e-08
1.40144e-09
5.4006e-08
1.37584e-09
5.4057e-08
1.35167e-09
5.41066e-08
1.32825e-09
5.41549e-08
1.30637e-09
5.4202e-08
1.28484e-09
5.42481e-08
1.26494e-09
5.42933e-08
1.24513e-09
5.43376e-08
1.22691e-09
5.43812e-08
1.20883e-09
5.44242e-08
1.19208e-09
5.44665e-08
1.17565e-09
5.45083e-08
1.16039e-09
5.45497e-08
1.14534e-09
5.45906e-08
1.13165e-09
5.46312e-08
1.11771e-09
5.46713e-08
1.10554e-09
5.47112e-08
1.09264e-09
5.47507e-08
1.08174e-09
5.479e-08
1.06996e-09
5.48291e-08
1.06001e-09
5.48679e-08
1.0494e-09
5.49065e-08
1.04026e-09
5.49449e-08
1.03057e-09
5.4983e-08
1.02248e-09
5.5021e-08
1.01322e-09
5.50588e-08
1.00636e-09
5.50964e-08
9.97496e-10
5.51338e-08
9.9145e-10
5.51711e-08
9.8335e-10
5.52082e-08
9.77723e-10
5.5245e-08
9.70358e-10
5.52818e-08
9.65329e-10
5.53184e-08
9.58252e-10
5.53547e-08
9.54139e-10
5.5391e-08
9.47025e-10
5.5427e-08
9.43843e-10
5.54628e-08
9.36863e-10
5.54985e-08
9.34026e-10
5.55338e-08
9.27736e-10
5.55692e-08
9.24959e-10
5.56041e-08
9.18855e-10
5.56389e-08
9.1705e-10
5.56735e-08
9.10303e-10
5.57078e-08
9.09373e-10
5.57417e-08
9.0282e-10
5.57757e-08
9.01727e-10
5.5809e-08
8.95629e-10
5.58423e-08
8.94852e-10
5.58751e-08
8.88372e-10
5.59078e-08
8.8832e-10
5.59398e-08
8.81409e-10
5.59719e-08
8.81806e-10
5.60031e-08
8.74835e-10
5.60345e-08
8.74978e-10
5.60649e-08
8.68442e-10
5.60954e-08
8.68633e-10
5.6125e-08
8.61106e-10
5.61546e-08
8.62475e-10
5.6183e-08
8.54547e-10
5.6212e-08
8.54808e-10
5.62393e-08
8.47892e-10
5.62669e-08
8.48323e-10
5.62933e-08
8.39581e-10
5.63198e-08
8.41009e-10
5.63446e-08
8.32814e-10
5.63701e-08
8.32494e-10
5.63938e-08
8.24417e-10
5.64176e-08
8.25336e-10
5.64398e-08
8.15995e-10
5.64625e-08
8.16254e-10
5.6483e-08
8.08212e-10
5.65039e-08
8.08388e-10
5.65229e-08
7.99598e-10
5.65421e-08
8.00571e-10
5.65593e-08
7.93044e-10
5.65767e-08
7.94254e-10
5.65921e-08
7.87814e-10
5.66077e-08
7.90944e-10
7.86761e-10
5.36024e-08
1.3286e-10
5.36646e-08
3.9309e-10
5.37652e-08
6.51033e-10
5.3898e-08
8.90079e-10
5.40527e-08
1.10058e-09
5.42163e-08
1.27121e-09
5.43794e-08
1.39837e-09
5.45361e-08
1.48561e-09
5.46842e-08
1.54004e-09
5.48229e-08
1.56937e-09
5.49512e-08
1.57989e-09
5.5068e-08
1.57537e-09
5.51727e-08
1.55959e-09
5.5266e-08
1.53532e-09
5.53497e-08
1.5069e-09
5.54258e-08
1.47672e-09
5.54963e-08
1.44763e-09
5.55624e-08
1.41982e-09
5.56249e-08
1.39373e-09
5.56842e-08
1.36869e-09
5.5741e-08
1.34467e-09
5.57955e-08
1.32134e-09
5.58482e-08
1.29903e-09
5.58992e-08
1.2772e-09
5.59489e-08
1.25673e-09
5.59973e-08
1.23639e-09
5.60446e-08
1.21764e-09
5.6091e-08
1.19878e-09
5.61364e-08
1.18146e-09
5.61811e-08
1.16419e-09
5.62251e-08
1.1481e-09