/*--------------------------------*- C++ -*----------------------------------*\
| =========                 |                                                 |
| \\      /  F ield         | OpenFOAM: The Open Source CFD Toolbox           |
|  \\    /   O peration     | Version:  2.3.0                                 |
|   \\  /    A nd           | Web:      www.OpenFOAM.org                      |
|    \\/     M anipulation  |                                                 |
\*---------------------------------------------------------------------------*/
FoamFile
{
    version     2.0;
    format      ascii;
    class       volVectorField;
    location    "0.6";
    object      U;
}
// * * * * * * * * * * * * * * * * * * * * * * * * * * * * * * * * * * * * * //

dimensions      [0 1 -1 0 0 0 0];

internalField   nonuniform List<vector> 
2700
(
(0.188981 0.00340194 0)
(0.175075 0.00574082 0)
(0.159252 0.00577886 0)
(0.141379 0.0053441 0)
(0.123026 0.00494623 0)
(0.105658 0.00441718 0)
(0.0904141 0.00366477 0)
(0.0777804 0.00271074 0)
(0.067771 0.00172817 0)
(0.060143 0.000921456 0)
(0.0544888 0.000379259 0)
(0.0503668 7.15507e-05 0)
(0.0473704 -7.26354e-05 0)
(0.0451513 -0.000113875 0)
(0.0434414 -9.84615e-05 0)
(0.0420469 -5.86893e-05 0)
(0.040838 -1.47213e-05 0)
(0.0397365 2.24332e-05 0)
(0.0387022 4.8885e-05 0)
(0.0377182 6.50048e-05 0)
(0.0367803 7.30445e-05 0)
(0.0358887 7.55065e-05 0)
(0.035045 7.4524e-05 0)
(0.0342496 7.16579e-05 0)
(0.0335016 6.79159e-05 0)
(0.0327989 6.39382e-05 0)
(0.0321391 6.00322e-05 0)
(0.0315186 5.63752e-05 0)
(0.0309344 5.3009e-05 0)
(0.030383 4.99422e-05 0)
(0.0298616 4.71587e-05 0)
(0.0293674 4.4617e-05 0)
(0.028898 4.23032e-05 0)
(0.028451 4.01753e-05 0)
(0.0280249 3.82192e-05 0)
(0.0276177 3.64124e-05 0)
(0.0272282 3.47327e-05 0)
(0.0268547 3.3176e-05 0)
(0.0264965 3.1718e-05 0)
(0.0261521 3.0359e-05 0)
(0.0258211 2.9084e-05 0)
(0.0255021 2.78865e-05 0)
(0.0251948 2.6763e-05 0)
(0.024898 2.57034e-05 0)
(0.0246118 2.47054e-05 0)
(0.0243346 2.37652e-05 0)
(0.024067 2.28744e-05 0)
(0.0238074 2.20351e-05 0)
(0.0235564 2.12393e-05 0)
(0.0233124 2.04851e-05 0)
(0.0230764 1.97718e-05 0)
(0.0228464 1.90925e-05 0)
(0.0226238 1.84483e-05 0)
(0.0224066 1.78363e-05 0)
(0.0221962 1.7251e-05 0)
(0.0219904 1.6697e-05 0)
(0.0217911 1.6165e-05 0)
(0.0215957 1.56592e-05 0)
(0.0214067 1.51752e-05 0)
(0.0212208 1.47125e-05 0)
(0.0210411 1.42671e-05 0)
(0.0208639 1.38469e-05 0)
(0.0206929 1.34324e-05 0)
(0.0205236 1.30495e-05 0)
(0.0203608 1.26653e-05 0)
(0.0201988 1.2313e-05 0)
(0.0200435 1.1955e-05 0)
(0.0198883 1.16343e-05 0)
(0.0197402 1.12935e-05 0)
(0.0195911 1.10064e-05 0)
(0.0194498 1.06781e-05 0)
(0.0193064 1.04217e-05 0)
(0.0191717 1.0105e-05 0)
(0.0190334 9.87757e-06 0)
(0.018905 9.5669e-06 0)
(0.0187715 9.3739e-06 0)
(0.0186493 9.0589e-06 0)
(0.01852 8.90523e-06 0)
(0.0184039 8.58322e-06 0)
(0.0182784 8.46707e-06 0)
(0.0181684 8.13351e-06 0)
(0.0180461 8.06514e-06 0)
(0.0179424 7.70566e-06 0)
(0.0178227 7.69375e-06 0)
(0.0177255 7.30516e-06 0)
(0.0176078 7.35479e-06 0)
(0.0175174 6.92428e-06 0)
(0.0174007 7.05521e-06 0)
(0.0173176 6.56844e-06 0)
(0.0172009 6.79334e-06 0)
(0.0171258 6.23991e-06 0)
(0.0170077 6.5848e-06 0)
(0.0169414 5.94067e-06 0)
(0.01682 6.44088e-06 0)
(0.0167639 5.68245e-06 0)
(0.0166364 6.39085e-06 0)
(0.0165924 5.46858e-06 0)
(0.0164542 6.45855e-06 0)
(0.0164269 5.39381e-06 0)
(0.0162647 8.02449e-06 0)
(0.200079 0.00563385 0)
(0.202857 0.010296 0)
(0.203844 0.0111993 0)
(0.202051 0.0110639 0)
(0.197797 0.0108805 0)
(0.19183 0.0105331 0)
(0.184954 0.00983456 0)
(0.177637 0.00873304 0)
(0.170178 0.00736161 0)
(0.162811 0.00593907 0)
(0.155705 0.00464787 0)
(0.148988 0.00357826 0)
(0.14276 0.00274602 0)
(0.137063 0.00212692 0)
(0.1319 0.00168604 0)
(0.127238 0.00138491 0)
(0.123024 0.00118386 0)
(0.119197 0.00104771 0)
(0.115703 0.000950219 0)
(0.112495 0.000874244 0)
(0.109535 0.000810086 0)
(0.106793 0.000752713 0)
(0.104244 0.000699926 0)
(0.101867 0.000650957 0)
(0.0996445 0.000605576 0)
(0.0975618 0.000563859 0)
(0.0956057 0.000525709 0)
(0.093764 0.000491069 0)
(0.0920269 0.000459693 0)
(0.0903843 0.000431311 0)
(0.0888287 0.000405645 0)
(0.0873517 0.000382343 0)
(0.0859476 0.000361176 0)
(0.0846096 0.000341835 0)
(0.0833335 0.000324129 0)
(0.0821134 0.00030785 0)
(0.0809464 0.000292822 0)
(0.0798274 0.000278928 0)
(0.0787545 0.00026602 0)
(0.077723 0.000254015 0)
(0.0767319 0.000242821 0)
(0.0757767 0.00023235 0)
(0.0748573 0.000222562 0)
(0.0739692 0.000213368 0)
(0.0731131 0.000204745 0)
(0.0722844 0.000196629 0)
(0.0714845 0.00018899 0)
(0.0707085 0.000181783 0)
(0.0699588 0.000174989 0)
(0.06923 0.000168551 0)
(0.0685253 0.000162482 0)
(0.0678388 0.000156707 0)
(0.0671747 0.000151254 0)
(0.0665263 0.000146057 0)
(0.0658991 0.000141134 0)
(0.0652851 0.000136434 0)
(0.0646915 0.000131977 0)
(0.0641088 0.000127701 0)
(0.063546 0.000123655 0)
(0.0629918 0.000119751 0)
(0.0624572 0.000116053 0)
(0.061929 0.000112488 0)
(0.0614207 0.000109088 0)
(0.0609163 0.000105819 0)
(0.0604324 0.000102691 0)
(0.0599499 9.96736e-05 0)
(0.0594889 9.67845e-05 0)
(0.0590264 9.40026e-05 0)
(0.058587 9.13073e-05 0)
(0.0581429 8.87486e-05 0)
(0.0577241 8.6219e-05 0)
(0.0572969 8.38579e-05 0)
(0.0568978 8.14786e-05 0)
(0.0564859 7.92956e-05 0)
(0.0561061 7.70385e-05 0)
(0.0557081 7.50377e-05 0)
(0.0553472 7.28623e-05 0)
(0.0549617 7.1046e-05 0)
(0.0546195 6.89384e-05 0)
(0.054245 6.72889e-05 0)
(0.0539217 6.52305e-05 0)
(0.0535566 6.3769e-05 0)
(0.0532528 6.17135e-05 0)
(0.0528953 6.0455e-05 0)
(0.0526117 5.83952e-05 0)
(0.0522597 5.73437e-05 0)
(0.0519976 5.52456e-05 0)
(0.0516486 5.44506e-05 0)
(0.0514097 5.22827e-05 0)
(0.0510606 5.1769e-05 0)
(0.0508473 4.95216e-05 0)
(0.0504939 4.93523e-05 0)
(0.0503096 4.69909e-05 0)
(0.0499464 4.72459e-05 0)
(0.0497955 4.47755e-05 0)
(0.0494146 4.55557e-05 0)
(0.0493036 4.29917e-05 0)
(0.048893 4.44805e-05 0)
(0.0488332 4.18867e-05 0)
(0.0483713 4.73909e-05 0)
(0.200022 0.00371268 0)
(0.202939 0.00827237 0)
(0.206299 0.0100806 0)
(0.208905 0.0106227 0)
(0.210345 0.0108967 0)
(0.210714 0.0110315 0)
(0.210246 0.0108435 0)
(0.209068 0.0102394 0)
(0.207241 0.00930279 0)
(0.204832 0.00821028 0)
(0.201949 0.00713467 0)
(0.198719 0.00618212 0)
(0.195285 0.00538837 0)
(0.191761 0.00474331 0)
(0.188234 0.00422352 0)
(0.184753 0.00380451 0)
(0.181342 0.00346249 0)
(0.178011 0.00317635 0)
(0.174763 0.00293001 0)
(0.171601 0.00271209 0)
(0.168528 0.00251569 0)
(0.165546 0.00233657 0)
(0.162655 0.00217234 0)
(0.159858 0.00202161 0)
(0.157155 0.00188332 0)
(0.154546 0.0017568 0)
(0.15203 0.00164117 0)
(0.149606 0.00153576 0)
(0.147273 0.00143971 0)
(0.145027 0.00135219 0)
(0.142865 0.00127245 0)
(0.140784 0.0011996 0)
(0.138782 0.00113303 0)
(0.136853 0.00107197 0)
(0.134995 0.00101591 0)
(0.133204 0.000964278 0)
(0.131479 0.000916607 0)
(0.129813 0.000872498 0)
(0.128206 0.000831584 0)
(0.126652 0.00079354 0)
(0.125151 0.000758132 0)
(0.123698 0.00072504 0)
(0.122294 0.000694156 0)
(0.120932 0.000665174 0)
(0.119615 0.000638042 0)
(0.118335 0.000612505 0)
(0.117096 0.000588526 0)
(0.11589 0.000565885 0)
(0.114723 0.000544593 0)
(0.113584 0.0005244 0)
(0.112482 0.000505402 0)
(0.111404 0.000487308 0)
(0.11036 0.000470266 0)
(0.109338 0.000453986 0)
(0.108349 0.000438627 0)
(0.107377 0.000423907 0)
(0.106438 0.00041002 0)
(0.105512 0.000396636 0)
(0.104619 0.000384041 0)
(0.103736 0.000371824 0)
(0.102886 0.00036034 0)
(0.102042 0.000349164 0)
(0.101232 0.000338644 0)
(0.100424 0.000328374 0)
(0.0996509 0.000318723 0)
(0.0988756 0.00030923 0)
(0.0981383 0.000300348 0)
(0.0973933 0.00029156 0)
(0.0966897 0.000283331 0)
(0.0959725 0.000275185 0)
(0.0953012 0.000267531 0)
(0.0946093 0.000259944 0)
(0.0939693 0.000252814 0)
(0.0933005 0.000245718 0)
(0.092691 0.000239041 0)
(0.092043 0.000232411 0)
(0.0914639 0.000226102 0)
(0.0908344 0.000219911 0)
(0.0902856 0.000213936 0)
(0.0896721 0.00020812 0)
(0.0891544 0.000202442 0)
(0.0885542 0.000197006 0)
(0.0880686 0.000191546 0)
(0.0874788 0.000186482 0)
(0.0870271 0.00018124 0)
(0.086444 0.000176516 0)
(0.0860287 0.000171453 0)
(0.0854483 0.000167115 0)
(0.0850726 0.000162211 0)
(0.0844897 0.000158254 0)
(0.084158 0.000153549 0)
(0.0835661 0.000150023 0)
(0.0832841 0.000145544 0)
(0.0826748 0.000142516 0)
(0.0824498 0.000138394 0)
(0.081812 0.00013598 0)
(0.0816534 0.000132355 0)
(0.0809722 0.000131041 0)
(0.0808913 0.000127994 0)
(0.0801486 0.000132125 0)
(0.200008 0.00252626 0)
(0.201847 0.00633042 0)
(0.204533 0.00842031 0)
(0.207326 0.00932356 0)
(0.209692 0.00975033 0)
(0.211534 0.0100008 0)
(0.212949 0.0100237 0)
(0.213989 0.00973378 0)
(0.214631 0.00915294 0)
(0.214832 0.0083954 0)
(0.214587 0.00759723 0)
(0.213944 0.00686001 0)
(0.212989 0.00622959 0)
(0.21181 0.00571058 0)
(0.21048 0.00528554 0)
(0.209047 0.00493286 0)
(0.207537 0.00463422 0)
(0.205962 0.0043749 0)
(0.204332 0.00414399 0)
(0.202653 0.00393308 0)
(0.200929 0.00373697 0)
(0.199167 0.00355214 0)
(0.197374 0.00337688 0)
(0.195556 0.00321027 0)
(0.19372 0.00305189 0)
(0.191872 0.0029017 0)
(0.19002 0.00275947 0)
(0.188167 0.00262516 0)
(0.186321 0.00249852 0)
(0.184483 0.00237921 0)
(0.182661 0.00226703 0)
(0.180854 0.0021614 0)
(0.179069 0.00206219 0)
(0.177304 0.00196877 0)
(0.175566 0.00188097 0)
(0.173851 0.0017983 0)
(0.172167 0.0017205 0)
(0.170507 0.00164719 0)
(0.16888 0.00157815 0)
(0.167279 0.00151298 0)
(0.165711 0.0014516 0)
(0.164169 0.00139352 0)
(0.162662 0.0013388 0)
(0.161179 0.00128692 0)
(0.15973 0.00123801 0)
(0.158305 0.00119155 0)
(0.156916 0.00114771 0)
(0.155547 0.00110597 0)
(0.154213 0.00106658 0)
(0.152898 0.00102894 0)
(0.151619 0.000993454 0)
(0.150356 0.000959417 0)
(0.149129 0.000927327 0)
(0.147915 0.000896453 0)
(0.146738 0.000867346 0)
(0.14557 0.000839235 0)
(0.14444 0.000812775 0)
(0.143316 0.000787062 0)
(0.142232 0.000762953 0)
(0.141149 0.000739355 0)
(0.140108 0.0007173 0)
(0.139064 0.000695595 0)
(0.138064 0.000675347 0)
(0.137056 0.000655296 0)
(0.136097 0.000636692 0)
(0.135122 0.000618069 0)
(0.134201 0.000600934 0)
(0.133258 0.000583598 0)
(0.132375 0.000567739 0)
(0.13146 0.000551563 0)
(0.130614 0.000536848 0)
(0.129726 0.000521673 0)
(0.128916 0.000508012 0)
(0.128051 0.000493702 0)
(0.127278 0.000480984 0)
(0.126435 0.000467467 0)
(0.125699 0.000455558 0)
(0.124874 0.000442753 0)
(0.124176 0.000431607 0)
(0.123367 0.000419376 0)
(0.122707 0.000408946 0)
(0.12191 0.000397256 0)
(0.121292 0.000387436 0)
(0.120504 0.000376222 0)
(0.11993 0.000367038 0)
(0.119145 0.000356199 0)
(0.118619 0.000347624 0)
(0.117833 0.000337171 0)
(0.11736 0.000329217 0)
(0.116566 0.00031908 0)
(0.116152 0.00031185 0)
(0.115342 0.000302061 0)
(0.114993 0.000295618 0)
(0.114158 0.00028628 0)
(0.113885 0.000280789 0)
(0.113013 0.000272193 0)
(0.112823 0.000267712 0)
(0.1119 0.000260841 0)
(0.111804 0.00025748 0)
(0.110817 0.000256514 0)
(0.200008 0.00186503 0)
(0.201221 0.00499625 0)
(0.203187 0.00711731 0)
(0.205506 0.00824022 0)
(0.20772 0.00876881 0)
(0.209625 0.00902691 0)
(0.211244 0.00909399 0)
(0.21264 0.00893791 0)
(0.213824 0.00855315 0)
(0.214754 0.00800299 0)
(0.215398 0.00738669 0)
(0.215759 0.00679354 0)
(0.21588 0.0062744 0)
(0.215819 0.00584346 0)
(0.215634 0.0054908 0)
(0.215359 0.00519896 0)
(0.215019 0.00495228 0)
(0.214618 0.00473853 0)
(0.214162 0.00454898 0)
(0.213649 0.00437636 0)
(0.21308 0.00421602 0)
(0.212454 0.00406423 0)
(0.211775 0.00391914 0)
(0.211042 0.00377953 0)
(0.210261 0.00364488 0)
(0.20943 0.00351508 0)
(0.208558 0.00338997 0)
(0.207644 0.00326959 0)
(0.206696 0.0031539 0)
(0.20571 0.0030427 0)
(0.204699 0.00293608 0)
(0.203657 0.00283357 0)
(0.202595 0.00273542 0)
(0.201508 0.00264103 0)
(0.200407 0.00255064 0)
(0.199286 0.00246375 0)
(0.198157 0.00238048 0)
(0.197012 0.00230044 0)
(0.195864 0.00222377 0)
(0.194703 0.00214998 0)
(0.193545 0.00207939 0)
(0.192375 0.00201134 0)
(0.191213 0.00194634 0)
(0.190042 0.0018836 0)
(0.188882 0.00182372 0)
(0.187714 0.00176588 0)
(0.186561 0.0017107 0)
(0.185401 0.00165732 0)
(0.18426 0.00160651 0)
(0.18311 0.00155719 0)
(0.181984 0.00151039 0)
(0.180849 0.00146479 0)
(0.179741 0.00142162 0)
(0.178622 0.00137943 0)
(0.177534 0.00133958 0)
(0.176433 0.00130046 0)
(0.175367 0.00126367 0)
(0.174284 0.00122731 0)
(0.173242 0.00119334 0)
(0.172179 0.00115947 0)
(0.171161 0.00112802 0)
(0.170117 0.00109645 0)
(0.169125 0.00106728 0)
(0.1681 0.00103775 0)
(0.167136 0.00101073 0)
(0.166129 0.00098297 0)
(0.165192 0.000957916 0)
(0.164204 0.000931781 0)
(0.163295 0.000908474 0)
(0.162325 0.00088381 0)
(0.161446 0.000862114 0)
(0.16049 0.000838715 0)
(0.159642 0.000818542 0)
(0.158701 0.000796221 0)
(0.157886 0.000777451 0)
(0.156957 0.000756104 0)
(0.156175 0.000738582 0)
(0.155256 0.000718081 0)
(0.154512 0.00070178 0)
(0.1536 0.00068191 0)
(0.152894 0.000666791 0)
(0.151986 0.000647486 0)
(0.151324 0.000633431 0)
(0.150416 0.000614567 0)
(0.1498 0.000601645 0)
(0.148888 0.000583053 0)
(0.148324 0.000571238 0)
(0.147401 0.000552918 0)
(0.146896 0.000542231 0)
(0.145957 0.00052408 0)
(0.145516 0.00051464 0)
(0.144553 0.000496743 0)
(0.144184 0.000488561 0)
(0.143188 0.000471139 0)
(0.142901 0.000464333 0)
(0.141862 0.0004479 0)
(0.141664 0.000442474 0)
(0.140572 0.00042831 0)
(0.140471 0.000424637 0)
(0.139313 0.000416164 0)
(0.200006 0.00145136 0)
(0.200859 0.00404489 0)
(0.202315 0.00602768 0)
(0.204165 0.00725406 0)
(0.206078 0.00788508 0)
(0.207817 0.00817556 0)
(0.209329 0.00826795 0)
(0.210651 0.00818676 0)
(0.211814 0.00792866 0)
(0.212808 0.00752374 0)
(0.213612 0.00703833 0)
(0.214216 0.00654654 0)
(0.214645 0.00610047 0)
(0.214936 0.00572227 0)
(0.215139 0.00541013 0)
(0.215283 0.00515184 0)
(0.215392 0.00493422 0)
(0.215469 0.00474642 0)
(0.215522 0.00458108 0)
(0.215543 0.00443182 0)
(0.215536 0.00429476 0)
(0.215494 0.00416618 0)
(0.215421 0.00404436 0)
(0.215309 0.00392767 0)
(0.215166 0.00381553 0)
(0.214983 0.00370749 0)
(0.21477 0.00360336 0)
(0.214518 0.00350293 0)
(0.214237 0.00340623 0)
(0.213918 0.0033128 0)
(0.213572 0.00322296 0)
(0.21319 0.00313594 0)
(0.212784 0.00305225 0)
(0.212342 0.00297103 0)
(0.21188 0.00289282 0)
(0.211384 0.00281681 0)
(0.21087 0.0027435 0)
(0.210323 0.00267216 0)
(0.209763 0.00260334 0)
(0.20917 0.00253618 0)
(0.208568 0.0024715 0)
(0.207933 0.00240817 0)
(0.207294 0.0023473 0)
(0.206623 0.00228756 0)
(0.205951 0.00223021 0)
(0.205248 0.00217383 0)
(0.204548 0.00211979 0)
(0.203816 0.00206651 0)
(0.203093 0.00201564 0)
(0.202337 0.00196523 0)
(0.201595 0.00191735 0)
(0.200818 0.00186966 0)
(0.200061 0.00182457 0)
(0.199266 0.00177945 0)
(0.198498 0.00173698 0)
(0.197689 0.00169423 0)
(0.196914 0.00165429 0)
(0.196093 0.0016137 0)
(0.195313 0.00157617 0)
(0.194482 0.00153759 0)
(0.193701 0.00150229 0)
(0.192863 0.00146562 0)
(0.192083 0.00143239 0)
(0.191239 0.00139745 0)
(0.190465 0.00136626 0)
(0.189616 0.00133281 0)
(0.188849 0.00130357 0)
(0.187996 0.00127153 0)
(0.187239 0.00124405 0)
(0.186383 0.0012133 0)
(0.185639 0.00118751 0)
(0.184779 0.00115784 0)
(0.184052 0.00113372 0)
(0.183187 0.00110495 0)
(0.18248 0.00108243 0)
(0.18161 0.00105447 0)
(0.180925 0.00103339 0)
(0.18005 0.00100611 0)
(0.179391 0.000986517 0)
(0.178507 0.000959644 0)
(0.17788 0.000941536 0)
(0.176985 0.000915023 0)
(0.176392 0.000898266 0)
(0.175485 0.000871979 0)
(0.174932 0.000856691 0)
(0.174007 0.000830434 0)
(0.1735 0.000816569 0)
(0.172554 0.000790403 0)
(0.172099 0.000777957 0)
(0.171126 0.000751796 0)
(0.170729 0.000740875 0)
(0.169725 0.000714904 0)
(0.169394 0.000705451 0)
(0.168351 0.000680008 0)
(0.168093 0.000672143 0)
(0.167004 0.00064787 0)
(0.166826 0.000641683 0)
(0.165683 0.000619947 0)
(0.165593 0.000616117 0)
(0.164387 0.000599541 0)
(0.200005 0.00116854 0)
(0.200632 0.00332712 0)
(0.20173 0.00509807 0)
(0.203193 0.00632493 0)
(0.204804 0.0070327 0)
(0.206348 0.00737928 0)
(0.207726 0.00750924 0)
(0.208933 0.00748455 0)
(0.209996 0.00731868 0)
(0.210921 0.00702776 0)
(0.211703 0.00665286 0)
(0.21233 0.00625004 0)
(0.212819 0.00586733 0)
(0.213193 0.00553183 0)
(0.213494 0.00524927 0)
(0.213746 0.00501303 0)
(0.213976 0.00481301 0)
(0.214187 0.00463962 0)
(0.214391 0.00448667 0)
(0.214579 0.00434855 0)
(0.214759 0.00422242 0)
(0.214919 0.00410485 0)
(0.215069 0.00399457 0)
(0.215197 0.00388972 0)
(0.215314 0.00378991 0)
(0.215407 0.00369431 0)
(0.215488 0.00360289 0)
(0.215544 0.00351507 0)
(0.215589 0.00343113 0)
(0.215607 0.00335022 0)
(0.215615 0.00327297 0)
(0.215594 0.00319817 0)
(0.215564 0.00312673 0)
(0.215504 0.0030573 0)
(0.215436 0.00299085 0)
(0.215337 0.00292607 0)
(0.215232 0.00286394 0)
(0.215094 0.00280313 0)
(0.214952 0.00274483 0)
(0.214774 0.00268743 0)
(0.214596 0.00263251 0)
(0.21438 0.0025781 0)
(0.214166 0.00252618 0)
(0.213913 0.00247449 0)
(0.213665 0.00242521 0)
(0.213375 0.00237598 0)
(0.213094 0.00232916 0)
(0.212769 0.00228208 0)
(0.212458 0.00223761 0)
(0.212098 0.00219246 0)
(0.211758 0.00215016 0)
(0.211367 0.00210683 0)
(0.211 0.00206651 0)
(0.210577 0.00202489 0)
(0.210186 0.00198643 0)
(0.209734 0.00194635 0)
(0.209322 0.00190975 0)
(0.208842 0.00187099 0)
(0.208409 0.0018362 0)
(0.207903 0.00179869 0)
(0.207454 0.00176555 0)
(0.206923 0.00172927 0)
(0.20646 0.00169768 0)
(0.205905 0.00166245 0)
(0.20543 0.0016325 0)
(0.204852 0.00159811 0)
(0.204369 0.00156976 0)
(0.20377 0.00153619 0)
(0.203281 0.00150927 0)
(0.20266 0.00147646 0)
(0.20217 0.00145099 0)
(0.201528 0.00141873 0)
(0.201038 0.00139477 0)
(0.200375 0.00136288 0)
(0.199891 0.0013404 0)
(0.199206 0.00130885 0)
(0.19873 0.00128771 0)
(0.198024 0.00125641 0)
(0.19756 0.00123671 0)
(0.19683 0.00120536 0)
(0.196383 0.00118714 0)
(0.195629 0.00115578 0)
(0.195203 0.00113886 0)
(0.194424 0.00110739 0)
(0.194023 0.00109195 0)
(0.193215 0.00106017 0)
(0.192846 0.00104612 0)
(0.192007 0.00101423 0)
(0.191675 0.00100153 0)
(0.190802 0.000969459 0)
(0.190512 0.000958245 0)
(0.189602 0.000926277 0)
(0.189359 0.000916427 0)
(0.188408 0.000884989 0)
(0.188219 0.000876715 0)
(0.187222 0.000846486 0)
(0.187092 0.000840022 0)
(0.186046 0.000812372 0)
(0.18598 0.000808629 0)
(0.184878 0.000785546 0)
(0.200004 0.000960947 0)
(0.200479 0.00276658 0)
(0.201323 0.00431784 0)
(0.202481 0.00548272 0)
(0.203817 0.00622928 0)
(0.205163 0.00663433 0)
(0.206408 0.00681175 0)
(0.207511 0.00683687 0)
(0.208483 0.00674083 0)
(0.209331 0.00653922 0)
(0.210062 0.00625798 0)
(0.210668 0.00593647 0)
(0.211161 0.0056148 0)
(0.211553 0.00532103 0)
(0.211878 0.00506652 0)
(0.212154 0.00484985 0)
(0.212409 0.00466445 0)
(0.212646 0.00450218 0)
(0.21288 0.00435794 0)
(0.213102 0.00422671 0)
(0.213323 0.00410665 0)
(0.21353 0.00399467 0)
(0.213736 0.00389013 0)
(0.213927 0.00379105 0)
(0.214117 0.00369738 0)
(0.214292 0.00360789 0)
(0.214466 0.00352293 0)
(0.214623 0.00344143 0)
(0.214782 0.00336415 0)
(0.21492 0.0032897 0)
(0.215062 0.00321924 0)
(0.215182 0.00315105 0)
(0.215307 0.00308654 0)
(0.215408 0.00302383 0)
(0.215515 0.00296446 0)
(0.215596 0.00290646 0)
(0.215684 0.00285155 0)
(0.215744 0.00279755 0)
(0.215812 0.00274655 0)
(0.21585 0.00269594 0)
(0.215899 0.00264834 0)
(0.215912 0.00260069 0)
(0.215941 0.00255601 0)
(0.21593 0.00251098 0)
(0.215937 0.00246884 0)
(0.215902 0.00242606 0)
(0.215887 0.00238628 0)
(0.215826 0.00234535 0)
(0.215791 0.00230775 0)
(0.215703 0.00226843 0)
(0.215646 0.00223275 0)
(0.215532 0.00219492 0)
(0.215453 0.00216092 0)
(0.215312 0.00212443 0)
(0.215213 0.00209199 0)
(0.215045 0.00205658 0)
(0.214926 0.00202573 0)
(0.214731 0.00199112 0)
(0.214593 0.0019618 0)
(0.21437 0.00192797 0)
(0.214214 0.0018999 0)
(0.213964 0.00186687 0)
(0.213792 0.00184003 0)
(0.213514 0.00180748 0)
(0.213327 0.00178204 0)
(0.213022 0.00174976 0)
(0.212821 0.0017256 0)
(0.212489 0.00169366 0)
(0.212276 0.00167062 0)
(0.211916 0.00163894 0)
(0.211695 0.00161707 0)
(0.211307 0.00158541 0)
(0.211078 0.00156483 0)
(0.210662 0.001533 0)
(0.210429 0.00151366 0)
(0.209985 0.00148175 0)
(0.20975 0.00146343 0)
(0.209277 0.00143135 0)
(0.209043 0.0014143 0)
(0.208539 0.00138165 0)
(0.20831 0.00136585 0)
(0.207776 0.00133292 0)
(0.207554 0.00131804 0)
(0.206989 0.00128468 0)
(0.206778 0.00127111 0)
(0.20618 0.00123711 0)
(0.205984 0.00122456 0)
(0.205353 0.00119037 0)
(0.205174 0.00117881 0)
(0.204508 0.00114422 0)
(0.204351 0.00113387 0)
(0.203649 0.00109935 0)
(0.203517 0.00108997 0)
(0.202777 0.00105595 0)
(0.202675 0.00104796 0)
(0.201895 0.00101511 0)
(0.201825 0.0010088 0)
(0.201004 0.000978496 0)
(0.200969 0.000974952 0)
(0.200104 0.000948747 0)
(0.200003 0.00080087 0)
(0.200371 0.0023233 0)
(0.201032 0.00367229 0)
(0.201953 0.0047455 0)
(0.203054 0.00549483 0)
(0.20421 0.00594529 0)
(0.205321 0.00617168 0)
(0.206325 0.00624378 0)
(0.207217 0.00620335 0)
(0.207998 0.00607123 0)
(0.208679 0.005867 0)
(0.209257 0.00561762 0)
(0.209742 0.00535418 0)
(0.210138 0.00510224 0)
(0.210472 0.00487641 0)
(0.210756 0.00467939 0)
(0.211017 0.00450839 0)
(0.211258 0.00435691 0)
(0.211495 0.00422109 0)
(0.211718 0.0040963 0)
(0.211943 0.00398149 0)
(0.212154 0.00387389 0)
(0.212366 0.00377348 0)
(0.212566 0.00367821 0)
(0.212767 0.00358848 0)
(0.212955 0.0035026 0)
(0.213148 0.00342149 0)
(0.213326 0.00334344 0)
(0.21351 0.00326985 0)
(0.213678 0.00319873 0)
(0.213855 0.00313184 0)
(0.214014 0.00306694 0)
(0.214183 0.00300598 0)
(0.214333 0.00294657 0)
(0.214495 0.00289084 0)
(0.214636 0.00283617 0)
(0.21479 0.00278507 0)
(0.214921 0.00273445 0)
(0.215068 0.00268744 0)
(0.215187 0.00264033 0)
(0.215326 0.00259687 0)
(0.215434 0.00255289 0)
(0.215564 0.00251246 0)
(0.21566 0.00247124 0)
(0.215781 0.00243352 0)
(0.215863 0.00239457 0)
(0.215974 0.00235943 0)
(0.216042 0.00232232 0)
(0.216143 0.0022895 0)
(0.216196 0.00225406 0)
(0.216286 0.00222319 0)
(0.216322 0.00218929 0)
(0.216401 0.00216012 0)
(0.216421 0.00212751 0)
(0.216488 0.00209999 0)
(0.21649 0.00206831 0)
(0.216546 0.00204248 0)
(0.216528 0.00201144 0)
(0.216573 0.00198711 0)
(0.216535 0.00195679 0)
(0.216568 0.00193357 0)
(0.216511 0.00190392 0)
(0.216532 0.00188193 0)
(0.216453 0.00185243 0)
(0.216464 0.00183188 0)
(0.216363 0.00180241 0)
(0.216363 0.00178297 0)
(0.216239 0.0017537 0)
(0.216229 0.0017352 0)
(0.216083 0.00170593 0)
(0.216063 0.00168852 0)
(0.215892 0.00165895 0)
(0.215865 0.00164272 0)
(0.215669 0.00161271 0)
(0.215636 0.00159746 0)
(0.215414 0.00156728 0)
(0.215374 0.00155271 0)
(0.215127 0.00152208 0)
(0.215083 0.00150872 0)
(0.214809 0.0014772 0)
(0.214762 0.00146469 0)
(0.214461 0.00143299 0)
(0.214411 0.00142093 0)
(0.214083 0.00138853 0)
(0.214034 0.00137764 0)
(0.213677 0.0013445 0)
(0.21363 0.00133399 0)
(0.213245 0.0013008 0)
(0.213201 0.00129095 0)
(0.212786 0.00125713 0)
(0.212748 0.00124809 0)
(0.212304 0.00121451 0)
(0.212271 0.00120593 0)
(0.211799 0.00117279 0)
(0.211774 0.00116538 0)
(0.211272 0.00113342 0)
(0.211255 0.00112738 0)
(0.210724 0.00109792 0)
(0.210716 0.00109451 0)
(0.210158 0.00106889 0)
(0.200003 0.000674251 0)
(0.200292 0.00196814 0)
(0.200817 0.00313877 0)
(0.201556 0.00411053 0)
(0.202463 0.00483549 0)
(0.203445 0.0053114 0)
(0.204424 0.00558009 0)
(0.205332 0.00569595 0)
(0.20615 0.00570252 0)
(0.206871 0.00562552 0)
(0.207506 0.0054836 0)
(0.208054 0.0052962 0)
(0.208525 0.00508657 0)
(0.20892 0.00487582 0)
(0.209259 0.00467945 0)
(0.209549 0.00450289 0)
(0.209815 0.00434684 0)
(0.210056 0.00420667 0)
(0.210293 0.00407987 0)
(0.210514 0.00396221 0)
(0.210736 0.00385322 0)
(0.210944 0.00375035 0)
(0.211153 0.00365415 0)
(0.21135 0.0035625 0)
(0.211549 0.00347635 0)
(0.211735 0.00339354 0)
(0.211927 0.00331562 0)
(0.212104 0.00324021 0)
(0.212289 0.00316941 0)
(0.212459 0.00310062 0)
(0.212639 0.00303616 0)
(0.212803 0.00297338 0)
(0.212979 0.00291462 0)
(0.213137 0.00285713 0)
(0.213309 0.00280355 0)
(0.213462 0.00275063 0)
(0.213631 0.00270173 0)
(0.213779 0.00265278 0)
(0.213945 0.00260801 0)
(0.214087 0.00256261 0)
(0.21425 0.00252138 0)
(0.214387 0.00247925 0)
(0.214547 0.00244105 0)
(0.214678 0.00240177 0)
(0.214834 0.00236646 0)
(0.214959 0.0023294 0)
(0.215112 0.00229691 0)
(0.215229 0.00226169 0)
(0.21538 0.00223164 0)
(0.215489 0.00219825 0)
(0.215635 0.00217016 0)
(0.215737 0.00213846 0)
(0.215878 0.00211218 0)
(0.215971 0.0020818 0)
(0.216108 0.00205737 0)
(0.216192 0.00202785 0)
(0.216324 0.00200533 0)
(0.216396 0.00197646 0)
(0.216524 0.00195544 0)
(0.216585 0.00192751 0)
(0.216707 0.00190753 0)
(0.216757 0.00188029 0)
(0.216873 0.00186178 0)
(0.216911 0.00183447 0)
(0.217021 0.00181754 0)
(0.217045 0.00179036 0)
(0.21715 0.00177436 0)
(0.217159 0.00174753 0)
(0.217258 0.00173245 0)
(0.217253 0.00170553 0)
(0.217345 0.00169159 0)
(0.217324 0.00166429 0)
(0.217411 0.00165152 0)
(0.217374 0.00162382 0)
(0.217454 0.00161173 0)
(0.217401 0.0015841 0)
(0.217475 0.00157248 0)
(0.217404 0.00154421 0)
(0.217473 0.00153391 0)
(0.217384 0.00150478 0)
(0.217447 0.00149472 0)
(0.217341 0.00146587 0)
(0.217397 0.00145603 0)
(0.217272 0.00142612 0)
(0.217324 0.00141744 0)
(0.21718 0.00138712 0)
(0.217226 0.00137802 0)
(0.217065 0.00134787 0)
(0.217105 0.00133943 0)
(0.216924 0.00130845 0)
(0.216959 0.00130034 0)
(0.21676 0.00127004 0)
(0.216789 0.00126203 0)
(0.216572 0.00123199 0)
(0.216595 0.00122501 0)
(0.216362 0.00119636 0)
(0.216377 0.0011904 0)
(0.216127 0.00116417 0)
(0.216136 0.00116073 0)
(0.215871 0.00113824 0)
(0.200002 0.000572436 0)
(0.200233 0.00167895 0)
(0.200655 0.00269572 0)
(0.201253 0.00356692 0)
(0.202 0.00425046 0)
(0.202831 0.00473214 0)
(0.203684 0.00503139 0)
(0.204497 0.00518547 0)
(0.205244 0.00523293 0)
(0.205911 0.00520119 0)
(0.206504 0.0051098 0)
(0.207022 0.00497445 0)
(0.207476 0.00481292 0)
(0.207865 0.00464143 0)
(0.208206 0.00447471 0)
(0.2085 0.00431939 0)
(0.208769 0.00417899 0)
(0.209013 0.00405079 0)
(0.209248 0.00393363 0)
(0.209469 0.00382392 0)
(0.209688 0.00372148 0)
(0.209894 0.00362405 0)
(0.2101 0.00353255 0)
(0.210293 0.00344486 0)
(0.210488 0.00336248 0)
(0.210672 0.00328282 0)
(0.210859 0.00320811 0)
(0.211033 0.00313531 0)
(0.211214 0.00306717 0)
(0.211382 0.00300063 0)
(0.211558 0.00293831 0)
(0.21172 0.00287748 0)
(0.211892 0.00282056 0)
(0.21205 0.0027647 0)
(0.212218 0.00271285 0)
(0.212373 0.00266126 0)
(0.212539 0.00261404 0)
(0.212689 0.00256624 0)
(0.212854 0.00252304 0)
(0.213 0.0024788 0)
(0.213163 0.00243897 0)
(0.213307 0.00239808 0)
(0.213468 0.00236119 0)
(0.213609 0.00232311 0)
(0.213769 0.00228924 0)
(0.213906 0.0022532 0)
(0.214065 0.00222233 0)
(0.214198 0.0021881 0)
(0.214357 0.00215962 0)
(0.214486 0.00212741 0)
(0.214643 0.00210078 0)
(0.214769 0.0020704 0)
(0.214924 0.00204563 0)
(0.215047 0.00201651 0)
(0.2152 0.00199383 0)
(0.215318 0.00196544 0)
(0.21547 0.00194484 0)
(0.215582 0.00191722 0)
(0.215733 0.00189795 0)
(0.215841 0.00187162 0)
(0.215989 0.0018533 0)
(0.216092 0.00182762 0)
(0.216237 0.00181113 0)
(0.216333 0.00178518 0)
(0.216476 0.00177034 0)
(0.216566 0.00174485 0)
(0.216706 0.00173064 0)
(0.21679 0.00170576 0)
(0.216926 0.00169253 0)
(0.217003 0.0016675 0)
(0.217135 0.00165554 0)
(0.217205 0.00163017 0)
(0.217334 0.00161931 0)
(0.217395 0.00159384 0)
(0.217519 0.00158329 0)
(0.217573 0.00155828 0)
(0.217691 0.0015482 0)
(0.217737 0.00152227 0)
(0.21785 0.00151373 0)
(0.217886 0.00148732 0)
(0.217994 0.00147821 0)
(0.218023 0.00145267 0)
(0.218122 0.00144395 0)
(0.218142 0.00141684 0)
(0.218236 0.00140927 0)
(0.218247 0.00138251 0)
(0.218331 0.00137372 0)
(0.218335 0.00134717 0)
(0.21841 0.00133949 0)
(0.218404 0.00131202 0)
(0.21847 0.00130407 0)
(0.218458 0.00127787 0)
(0.218512 0.00126999 0)
(0.218491 0.00124372 0)
(0.218534 0.00123684 0)
(0.218507 0.00121231 0)
(0.218536 0.00120624 0)
(0.218502 0.00118393 0)
(0.218518 0.00118041 0)
(0.218479 0.00116185 0)
(0.200002 0.000489314 0)
(0.200188 0.00144027 0)
(0.20053 0.00232513 0)
(0.201019 0.0031016 0)
(0.201636 0.00373486 0)
(0.202337 0.00420689 0)
(0.203074 0.00452374 0)
(0.203796 0.00470834 0)
(0.204474 0.004791 0)
(0.205089 0.00479742 0)
(0.205642 0.00474756 0)
(0.206131 0.00465548 0)
(0.206566 0.00453576 0)
(0.206947 0.00440044 0)
(0.207285 0.00426267 0)
(0.207581 0.00412898 0)
(0.207852 0.0040048 0)
(0.208098 0.00388914 0)
(0.208334 0.00378208 0)
(0.208555 0.0036809 0)
(0.208771 0.00358557 0)
(0.208977 0.00349421 0)
(0.209179 0.0034079 0)
(0.209372 0.00332457 0)
(0.209563 0.00324625 0)
(0.209745 0.00316996 0)
(0.209928 0.0030986 0)
(0.210101 0.0030286 0)
(0.210278 0.00296316 0)
(0.210444 0.00289905 0)
(0.210615 0.00283887 0)
(0.210776 0.00278014 0)
(0.210943 0.002725 0)
(0.2111 0.00267085 0)
(0.211263 0.00262066 0)
(0.211416 0.0025704 0)
(0.211577 0.00252476 0)
(0.211727 0.00247809 0)
(0.211886 0.00243628 0)
(0.212033 0.00239318 0)
(0.21219 0.00235445 0)
(0.212335 0.00231477 0)
(0.21249 0.00227883 0)
(0.212634 0.00224184 0)
(0.212788 0.00220903 0)
(0.212929 0.00217381 0)
(0.213082 0.00214414 0)
(0.213221 0.00211067 0)
(0.213374 0.00208323 0)
(0.213511 0.002052 0)
(0.213662 0.00202616 0)
(0.213798 0.00199686 0)
(0.213948 0.00197292 0)
(0.214082 0.00194474 0)
(0.214231 0.00192309 0)
(0.214363 0.00189547 0)
(0.214512 0.00187596 0)
(0.214642 0.00184927 0)
(0.21479 0.0018308 0)
(0.214918 0.00180578 0)
(0.215063 0.0017881 0)
(0.215191 0.00176362 0)
(0.215335 0.00174816 0)
(0.21546 0.00172317 0)
(0.215603 0.00170933 0)
(0.215725 0.00168523 0)
(0.215866 0.00167159 0)
(0.215988 0.00164838 0)
(0.216124 0.0016358 0)
(0.216245 0.00161232 0)
(0.216379 0.00160117 0)
(0.216497 0.00157741 0)
(0.216628 0.00156723 0)
(0.216744 0.00154377 0)
(0.216871 0.00153346 0)
(0.216986 0.00151084 0)
(0.217108 0.00150115 0)
(0.217221 0.00147721 0)
(0.217339 0.00146931 0)
(0.217449 0.00144547 0)
(0.21756 0.00143609 0)
(0.217671 0.00141362 0)
(0.217774 0.00140515 0)
(0.217882 0.00138043 0)
(0.21798 0.00137306 0)
(0.218086 0.00134973 0)
(0.218174 0.0013404 0)
(0.218281 0.00131705 0)
(0.21836 0.00130965 0)
(0.218464 0.00128534 0)
(0.218533 0.00127695 0)
(0.218638 0.00125453 0)
(0.218694 0.00124654 0)
(0.218798 0.00122358 0)
(0.218843 0.00121658 0)
(0.218947 0.0011958 0)
(0.218977 0.00118955 0)
(0.219081 0.00117068 0)
(0.219097 0.00116711 0)
(0.219203 0.00115198 0)
(0.200002 0.000420546 0)
(0.200153 0.00124114 0)