/*--------------------------------*- C++ -*----------------------------------*\
| =========                 |                                                 |
| \\      /  F ield         | OpenFOAM: The Open Source CFD Toolbox           |
|  \\    /   O peration     | Version:  2.3.0                                 |
|   \\  /    A nd           | Web:      www.OpenFOAM.org                      |
|    \\/     M anipulation  |                                                 |
\*---------------------------------------------------------------------------*/
FoamFile
{
    version     2.0;
    format      ascii;
    class       surfaceScalarField;
    location    "0.15";
    object      phi_0;
}
// * * * * * * * * * * * * * * * * * * * * * * * * * * * * * * * * * * * * * //

dimensions      [0 3 -1 0 0 0 0];

internalField   nonuniform List<scalar> 
6598
(
2.88499e-08
2.98813e-09
-3.1838e-08
2.52629e-08
3.58699e-09
2.1749e-08
3.51388e-09
1.85668e-08
3.1822e-09
1.57811e-08
2.78571e-09
1.34041e-08
2.37702e-09
1.14245e-08
1.97952e-09
9.87936e-09
1.54517e-09
8.77123e-09
1.10813e-09
7.96246e-09
8.08776e-10
7.34097e-09
6.2149e-10
6.88563e-09
4.55338e-10
6.55402e-09
3.31612e-10
6.28772e-09
2.66292e-10
6.06864e-09
2.19082e-10
5.88183e-09
1.86813e-10
5.70872e-09
1.73106e-10
5.54968e-09
1.59046e-10
5.40819e-09
1.41487e-10
5.27765e-09
1.30537e-10
5.15534e-09
1.22311e-10
5.04288e-09
1.1246e-10
4.93679e-09
1.06089e-10
4.84056e-09
9.62327e-11
4.75652e-09
8.40361e-11
4.67921e-09
7.73178e-11
4.60844e-09
7.07667e-11
4.54526e-09
6.31801e-11
4.48698e-09
5.8276e-11
4.43648e-09
5.0505e-11
4.39183e-09
4.46508e-11
4.35153e-09
4.03014e-11
4.31957e-09
3.19587e-11
4.29328e-09
2.62894e-11
4.27017e-09
2.3106e-11
4.25618e-09
1.39966e-11
4.24736e-09
8.8187e-12
4.24052e-09
6.83539e-12
4.24311e-09
-2.5918e-12
4.25295e-09
-9.83127e-12
4.26447e-09
-1.15244e-11
4.27756e-09
-1.30928e-11
4.29327e-09
-1.57115e-11
4.30742e-09
-1.41429e-11
4.31966e-09
-1.2239e-11
4.33074e-09
-1.10882e-11
4.33905e-09
-8.3056e-12
4.34571e-09
-6.65681e-12
4.35182e-09
-6.1126e-12
4.35666e-09
-4.83943e-12
4.36067e-09
-4.01101e-12
4.36509e-09
-4.41602e-12
4.36872e-09
-3.63807e-12
4.37196e-09
-3.23341e-12
4.37599e-09
-4.03011e-12
4.3796e-09
-3.60891e-12
4.38234e-09
-2.74484e-12
4.3854e-09
-3.05735e-12
4.38874e-09
-3.33994e-12
4.39131e-09
-2.5708e-12
4.39361e-09
-2.29919e-12
4.39616e-09
-2.55187e-12
4.39836e-09
-2.20354e-12
4.40011e-09
-1.74553e-12
4.40189e-09
-1.77952e-12
4.40351e-09
-1.6182e-12
4.40477e-09
-1.2657e-12
4.40597e-09
-1.1976e-12
4.40725e-09
-1.27518e-12
4.40829e-09
-1.04546e-12
4.40913e-09
-8.37463e-13
4.41003e-09
-8.98029e-13
4.41089e-09
-8.63385e-13
4.41156e-09
-6.71171e-13
4.41218e-09
-6.15181e-13
4.41283e-09
-6.56573e-13
4.4134e-09
-5.70283e-13
4.41386e-09
-4.59025e-13
4.41432e-09
-4.54618e-13
4.41476e-09
-4.41278e-13
4.41512e-09
-3.66992e-13
4.41545e-09
-3.23649e-13
4.41577e-09
-3.22e-13
4.41606e-09
-2.85938e-13
4.41629e-09
-2.36517e-13
4.41651e-09
-2.1988e-13
4.41673e-09
-2.14226e-13
4.41691e-09
-1.84032e-13
4.41707e-09
-1.55249e-13
4.41721e-09
-1.42782e-13
4.41734e-09
-1.3445e-13
4.41746e-09
-1.14477e-13
4.41756e-09
-9.8638e-14
4.41764e-09
-8.51455e-14
4.41772e-09
-7.8747e-14
4.41778e-09
-6.25862e-14
4.41784e-09
-5.71903e-14
4.41788e-09
-4.24955e-14
4.41792e-09
-4.15029e-14
-3.05381e-14
3.42942e-08
2.81387e-09
-3.41199e-08
3.4118e-08
3.76313e-09
3.35267e-08
4.10522e-09
3.25232e-08
4.18572e-09
3.12364e-08
4.07245e-09
2.97878e-08
3.82566e-09
2.82626e-08
3.50473e-09
2.67504e-08
3.05739e-09
2.53664e-08
2.49205e-09
2.40971e-08
2.07809e-09
2.29137e-08
1.80489e-09
2.1845e-08
1.52403e-09
2.08991e-08
1.27754e-09
2.0061e-08
1.10443e-09
1.93201e-08
9.59903e-10
1.86558e-08
8.51127e-10
1.80527e-08
7.76232e-10
1.75109e-08
7.00842e-10
1.70273e-08
6.25118e-10
1.65885e-08
5.69338e-10
1.61871e-08
5.23678e-10
1.58203e-08
4.79223e-10
1.54813e-08
4.45156e-10
1.51735e-08
4.0398e-10
1.48971e-08
3.60498e-10
1.4644e-08
3.30336e-10
1.44138e-08
3.01004e-10
1.42059e-08
2.7113e-10
1.40168e-08
2.47317e-10
1.38502e-08
2.171e-10
1.37025e-08
1.92398e-10
1.35718e-08
1.71005e-10
1.34626e-08
1.41097e-10
1.33714e-08
1.17524e-10
1.32946e-08
9.98944e-11
1.32394e-08
6.924e-11
1.31999e-08
4.82694e-11
1.31718e-08
3.49224e-11
1.31629e-08
6.30362e-12
1.31694e-08
-1.62951e-11
1.31819e-08
-2.39927e-11
1.31998e-08
-3.10366e-11
1.32225e-08
-3.8425e-11
1.32439e-08
-3.54952e-11
1.32629e-08
-3.12898e-11
1.328e-08
-2.81098e-11
1.3293e-08
-2.13874e-11
1.33037e-08
-1.73639e-11
1.33133e-08
-1.56839e-11
1.33212e-08
-1.27007e-11
1.33281e-08
-1.09411e-11
1.33356e-08
-1.18866e-11
1.33421e-08
-1.01744e-11
1.33484e-08
-9.52516e-12
1.33557e-08
-1.13206e-11
1.33624e-08
-1.03043e-11
1.33681e-08
-8.46595e-12
1.33742e-08
-9.11674e-12
1.33804e-08
-9.59657e-12
1.33856e-08
-7.76305e-12
1.33904e-08
-7.03728e-12
1.33952e-08
-7.38927e-12
1.33994e-08
-6.4364e-12
1.3403e-08
-5.29172e-12
1.34064e-08
-5.20461e-12
1.34095e-08
-4.69213e-12
1.3412e-08
-3.82614e-12
1.34144e-08
-3.59102e-12
1.34168e-08
-3.66798e-12
1.34188e-08
-3.07326e-12
1.34206e-08
-2.57115e-12
1.34223e-08
-2.64955e-12
1.3424e-08
-2.49796e-12
1.34253e-08
-2.0263e-12
1.34266e-08
-1.86911e-12
1.34278e-08
-1.91246e-12
1.34289e-08
-1.67376e-12
1.34299e-08
-1.3985e-12
1.34308e-08
-1.35746e-12
1.34316e-08
-1.2903e-12
1.34324e-08
-1.09915e-12
1.3433e-08
-9.82372e-13
1.34336e-08
-9.53208e-13
1.34342e-08
-8.47334e-13
1.34347e-08
-7.20068e-13
1.34351e-08
-6.66621e-13
1.34356e-08
-6.35463e-13
1.34359e-08
-5.51125e-13
1.34362e-08
-4.7423e-13
1.34365e-08
-4.3348e-13
1.34368e-08
-4.02154e-13
1.3437e-08
-3.45552e-13
1.34372e-08
-3.00362e-13
1.34374e-08
-2.59791e-13
1.34376e-08
-2.36797e-13
1.34377e-08
-1.9068e-13
1.34378e-08
-1.7302e-13
1.34379e-08
-1.29375e-13
1.3438e-08
-1.28257e-13
-8.6624e-14
3.5846e-08
2.62149e-09
-3.56536e-08
3.62404e-08
3.36868e-09
3.67019e-08
3.64376e-09
3.66771e-08
4.21052e-09
3.65621e-08
4.18745e-09
3.63971e-08
3.99067e-09
3.59827e-08
3.91915e-09
3.54124e-08
3.62765e-09
3.47467e-08
3.1578e-09
3.40418e-08
2.78296e-09
3.33104e-08
2.53629e-09
3.25598e-08
2.27461e-09
3.17937e-08
2.04368e-09
3.10342e-08
1.86391e-09
3.03297e-08
1.66443e-09
2.96678e-08
1.513e-09
2.90218e-08
1.42227e-09
2.83991e-08
1.32349e-09
2.7812e-08
1.21219e-09
2.72572e-08
1.1242e-09
2.67336e-08
1.04729e-09
2.62405e-08
9.72236e-10
2.57707e-08
9.14984e-10
2.5331e-08
8.43732e-10
2.49236e-08
7.67902e-10
2.45422e-08
7.11676e-10
2.4189e-08
6.54221e-10
2.38632e-08
5.96939e-10
2.35599e-08
5.50585e-10
2.32864e-08
4.90667e-10
2.30395e-08
4.39265e-10
2.28146e-08
3.95945e-10
2.2618e-08
3.3767e-10
2.24465e-08
2.8903e-10
2.22967e-08
2.49641e-10
2.2176e-08
1.89921e-10
2.20782e-08
1.46123e-10
2.19968e-08
1.16276e-10
2.19385e-08
6.46446e-11
2.19035e-08
1.86925e-11
2.18798e-08
-3.3216e-13
2.18683e-08
-1.95235e-11
2.18681e-08
-3.81905e-11
2.18712e-08
-3.85863e-11
2.18761e-08
-3.61956e-11
2.18826e-08
-3.45901e-11
2.18875e-08
-2.63244e-11
2.1892e-08
-2.18917e-11
2.18966e-08
-2.02806e-11
2.18998e-08
-1.586e-11
2.19025e-08
-1.3593e-11
2.19066e-08
-1.60194e-11
2.19102e-08
-1.37763e-11
2.1914e-08
-1.33812e-11
2.19198e-08
-1.70846e-11
2.19255e-08
-1.60343e-11
2.19305e-08
-1.34585e-11
2.19364e-08
-1.49561e-11
2.1943e-08
-1.62293e-11
2.19486e-08
-1.33952e-11
2.19539e-08
-1.2269e-11
2.19594e-08
-1.29431e-11
2.19644e-08
-1.14192e-11
2.19685e-08
-9.38688e-12
2.19724e-08
-9.10066e-12
2.19759e-08
-8.21375e-12
2.19788e-08
-6.74933e-12
2.19815e-08
-6.26095e-12
2.19842e-08
-6.35616e-12
2.19865e-08
-5.34322e-12
2.19884e-08
-4.49731e-12
2.19903e-08
-4.59724e-12
2.19922e-08
-4.33044e-12
2.19937e-08
-3.54199e-12
2.19951e-08
-3.2607e-12
2.19965e-08
-3.31555e-12
2.19977e-08
-2.91013e-12
2.19988e-08
-2.44728e-12
2.19998e-08
-2.36342e-12
2.20007e-08
-2.24193e-12
2.20015e-08
-1.92055e-12
2.20023e-08
-1.71751e-12
2.2003e-08
-1.65919e-12
2.20036e-08
-1.47955e-12
2.20042e-08
-1.26537e-12
2.20047e-08
-1.16857e-12
2.20051e-08
-1.10938e-12
2.20056e-08
-9.6676e-13
2.20059e-08
-8.35927e-13
2.20062e-08
-7.62414e-13
2.20065e-08
-7.04983e-13
2.20068e-08
-6.08665e-13
2.2007e-08
-5.29742e-13
2.20072e-08
-4.59205e-13
2.20074e-08
-4.15778e-13
2.20076e-08
-3.37583e-13
2.20077e-08
-3.03016e-13
2.20078e-08
-2.28814e-13
2.20079e-08
-2.25822e-13
-1.47675e-13
3.73543e-08
2.4614e-09
-3.71942e-08
3.76461e-08
3.07686e-09
3.79308e-08
3.35909e-09
3.82979e-08
3.84342e-09
3.84677e-08
4.01758e-09
3.87857e-08
3.67275e-09
3.88369e-08
3.86789e-09
3.88161e-08
3.64849e-09
3.87136e-08
3.26029e-09
3.85562e-08
2.94034e-09
3.8365e-08
2.72751e-09
3.81078e-08
2.53183e-09
3.7764e-08
2.38749e-09
3.73549e-08
2.27298e-09
3.69594e-08
2.06e-09
3.65888e-08
1.8836e-09
3.62039e-08
1.8071e-09
3.5798e-08
1.72943e-09
3.53864e-08
1.62376e-09
3.49797e-08
1.5309e-09
3.45838e-08
1.44317e-09
3.41963e-08
1.35976e-09
3.38095e-08
1.3018e-09
3.34312e-08
1.22202e-09
3.30646e-08
1.13447e-09
3.27085e-08
1.06778e-09
3.23697e-08
9.93072e-10
3.20493e-08
9.17275e-10
3.17374e-08
8.62475e-10
3.14447e-08
7.83406e-10
3.1175e-08
7.08945e-10
3.09215e-08
6.49491e-10
3.06902e-08
5.68949e-10
3.04766e-08
5.02627e-10
3.02813e-08
4.4492e-10
3.01151e-08
3.56143e-10
2.99697e-08
2.91573e-10
2.98349e-08
2.50995e-10
2.97224e-08
1.77171e-10
2.96349e-08
1.06249e-10
2.95599e-08
7.46184e-11
2.94988e-08
4.15814e-11
2.94522e-08
8.37262e-12
2.94138e-08
-1.3938e-13
2.93832e-08
-5.59602e-12
2.93597e-08
-1.10682e-11
2.93394e-08
-6.00895e-12
2.93238e-08
-6.34739e-12
2.93125e-08
-8.9709e-12
2.93017e-08
-5.05995e-12
2.92915e-08
-3.39452e-12
2.92845e-08
-9.01424e-12
2.9278e-08
-7.24792e-12
2.92729e-08
-8.35437e-12
2.92711e-08
-1.51963e-11
2.92701e-08
-1.50723e-11
2.92692e-08
-1.25331e-11
2.92702e-08
-1.60108e-11
2.92734e-08
-1.94554e-11
2.92764e-08
-1.63272e-11
2.92795e-08
-1.53608e-11
2.92837e-08
-1.72136e-11
2.92881e-08
-1.57509e-11
2.92916e-08
-1.29222e-11
2.9295e-08
-1.2451e-11
2.9298e-08
-1.12438e-11
2.93004e-08
-9.19562e-12
2.93026e-08
-8.40961e-12
2.93048e-08
-8.57831e-12
2.93066e-08
-7.15984e-12
2.93081e-08
-5.96726e-12
2.93096e-08
-6.13029e-12
2.93111e-08
-5.81593e-12
2.93123e-08
-4.7324e-12
2.93134e-08
-4.33414e-12
2.93145e-08
-4.44604e-12
2.93155e-08
-3.90533e-12
2.93163e-08
-3.26467e-12
2.93171e-08
-3.1539e-12
2.93179e-08
-3.00749e-12
2.93185e-08
-2.57251e-12
2.93191e-08
-2.29038e-12
2.93197e-08
-2.21886e-12
2.93202e-08
-1.98472e-12
2.93206e-08
-1.69523e-12
2.9321e-08
-1.56327e-12
2.93214e-08
-1.48776e-12
2.93217e-08
-1.29926e-12
2.9322e-08
-1.12231e-12
2.93222e-08
-1.02301e-12
2.93225e-08
-9.46519e-13
2.93227e-08
-8.19203e-13
2.93229e-08
-7.10549e-13
2.9323e-08
-6.17484e-13
2.93232e-08
-5.54796e-13
2.93233e-08
-4.54167e-13
2.93234e-08
-3.98312e-13
2.93235e-08
-3.06326e-13
2.93235e-08
-2.93944e-13
-1.89004e-13
3.88895e-08
2.34875e-09
-3.87768e-08
3.91094e-08
2.8569e-09
3.93571e-08
3.11142e-09
3.9683e-08
3.51751e-09
3.98562e-08
3.84445e-09
4.02603e-08
3.26856e-09
4.02728e-08
3.85543e-09
4.04067e-08
3.51461e-09
4.0488e-08
3.17896e-09
4.0561e-08
2.86736e-09
4.06352e-08
2.65326e-09
4.0636e-08
2.53112e-09
4.05538e-08
2.46968e-09
4.04105e-08
2.41618e-09
4.02747e-08
2.19581e-09
4.01619e-08
1.99642e-09
4.0029e-08
1.94e-09
3.98607e-08
1.8978e-09
3.96695e-08
1.81492e-09
3.9474e-08
1.72644e-09
3.92847e-08
1.63238e-09
3.90913e-08
1.55316e-09
3.88845e-08
1.50862e-09
3.86698e-08
1.43673e-09
3.84467e-08
1.35759e-09
3.82193e-08
1.29513e-09
3.79959e-08
1.21649e-09
3.77836e-08
1.12963e-09
3.75657e-08
1.08033e-09
3.73502e-08
9.98941e-10
3.71453e-08
9.1378e-10
3.69454e-08
8.49387e-10
3.67587e-08
7.557e-10
3.65754e-08
6.85908e-10
3.63972e-08
6.23126e-10
3.62417e-08
5.11626e-10
3.61002e-08
4.3312e-10
3.59572e-08
3.93963e-10
3.58257e-08
3.08719e-10
3.57144e-08
2.17561e-10
3.56125e-08
1.7651e-10
3.55215e-08
1.32501e-10
3.54436e-08
8.63058e-11
3.53732e-08
7.02554e-11
3.5312e-08
5.56551e-11
3.52595e-08
4.14136e-11
3.52118e-08
4.16431e-11
3.51722e-08
3.32454e-11
3.51412e-08
2.20246e-11
3.5113e-08
2.31697e-11
3.50871e-08
2.25131e-11
3.50654e-08
1.27265e-11
3.50455e-08
1.25932e-11
3.50274e-08
9.77802e-12
3.50139e-08
-1.67675e-12
3.50034e-08
-4.56125e-12
3.49932e-08
-2.40026e-12
3.49858e-08
-8.54156e-12
3.49817e-08
-1.53667e-11
3.49783e-08
-1.29232e-11
3.49759e-08
-1.2999e-11
3.49762e-08
-1.74796e-11
3.49777e-08
-1.73114e-11
3.49792e-08
-1.43539e-11
3.49808e-08
-1.40991e-11
3.49824e-08
-1.28427e-11
3.49835e-08
-1.03214e-11
3.49845e-08
-9.41173e-12
3.49856e-08
-9.65346e-12
3.49864e-08
-7.90367e-12
3.49868e-08
-6.40073e-12
3.49874e-08
-6.71197e-12
3.4988e-08
-6.45403e-12
3.49884e-08
-5.15715e-12
3.49888e-08
-4.71306e-12
3.49893e-08
-4.94468e-12
3.49897e-08
-4.32832e-12
3.499e-08
-3.55971e-12
3.49903e-08
-3.46577e-12
3.49907e-08
-3.34116e-12
3.49909e-08
-2.82969e-12
3.49911e-08
-2.50263e-12
3.49914e-08
-2.44745e-12
3.49916e-08
-2.19074e-12
3.49917e-08
-1.85584e-12
3.49919e-08
-1.71353e-12
3.4992e-08
-1.64398e-12
3.49922e-08
-1.43276e-12
3.49923e-08
-1.2301e-12
3.49924e-08
-1.12293e-12
3.49925e-08
-1.0432e-12
3.49926e-08
-9.00962e-13
3.49926e-08
-7.75796e-13
3.49927e-08
-6.74362e-13
3.49927e-08
-6.00617e-13
3.49928e-08
-4.91593e-13
3.49928e-08
-4.1817e-13
3.49928e-08
-3.20817e-13
3.49928e-08
-2.97965e-13
-1.81206e-13
4.0485e-08
2.30595e-09
-4.04422e-08
4.06651e-08
2.67684e-09
4.08786e-08
2.89792e-09
4.11561e-08
3.24005e-09
4.13486e-08
3.65187e-09
4.16849e-08
2.93232e-09
4.17754e-08
3.76489e-09
4.18715e-08
3.4185e-09
4.19708e-08
3.07971e-09
4.20945e-08
2.74368e-09
4.21865e-08
2.56128e-09
4.22288e-08
2.48881e-09
4.22155e-08
2.48292e-09
4.21779e-08
2.45383e-09
4.21606e-08
2.21304e-09
4.21585e-08
1.99857e-09
4.21424e-08
1.95606e-09
4.20997e-08
1.94051e-09
4.20408e-08
1.87384e-09
4.19792e-08
1.788e-09
4.19284e-08
1.68322e-09
4.18738e-08
1.6078e-09
4.18057e-08
1.57665e-09
4.1728e-08
1.51446e-09
4.16317e-08
1.45384e-09
4.15263e-08
1.40058e-09
4.14175e-08
1.32527e-09
4.13219e-08
1.22525e-09
4.12114e-08
1.19083e-09
4.10988e-08
1.11152e-09
4.09892e-08
1.02336e-09
4.08742e-08
9.64457e-10
4.07655e-08
8.64319e-10
4.06479e-08
8.03575e-10
4.05227e-08
7.48309e-10
4.04156e-08
6.18758e-10
4.03172e-08
5.3147e-10
4.02068e-08
5.0439e-10
4.00951e-08
4.20409e-10
3.99959e-08
3.1679e-10
3.99012e-08
2.71172e-10
3.98134e-08
2.20331e-10
3.97341e-08
1.65611e-10
3.96584e-08
1.45959e-10
3.95898e-08
1.24186e-10
3.95287e-08
1.02555e-10
3.94708e-08
9.95636e-11
3.94206e-08
8.3374e-11
3.93804e-08
6.22379e-11
3.93433e-08
6.03006e-11
3.9309e-08
5.68391e-11
3.92788e-08
4.29073e-11
3.92506e-08
4.07721e-11
3.92232e-08
3.71614e-11
3.92011e-08
2.04379e-11
3.91828e-08
1.37609e-11
3.91651e-08
1.53099e-11
3.91502e-08
6.34768e-12
3.91392e-08
-4.35022e-12
3.91295e-08
-3.25043e-12
3.9121e-08
-4.4998e-12
3.91156e-08
-1.20749e-11
3.91124e-08
-1.40641e-11
3.91101e-08
-1.21457e-11
3.91089e-08
-1.28966e-11
3.91083e-08
-1.22225e-11
3.91075e-08
-9.45701e-12
3.91067e-08
-8.69415e-12
3.91063e-08
-9.17004e-12
3.91056e-08
-7.22061e-12
3.91046e-08
-5.47678e-12
3.91039e-08
-6.00449e-12
3.91034e-08
-5.94814e-12
3.91028e-08
-4.55142e-12
3.91023e-08
-4.15516e-12
3.91019e-08
-4.60139e-12
3.91016e-08
-3.99984e-12
3.91012e-08
-3.16851e-12
3.91009e-08
-3.14737e-12
3.91007e-08
-3.1093e-12
3.91004e-08
-2.5755e-12
3.91001e-08
-2.24505e-12
3.90999e-08
-2.24516e-12
3.90998e-08
-2.00736e-12
3.90996e-08
-1.66461e-12
3.90994e-08
-1.54257e-12
3.90993e-08
-1.50998e-12
3.90991e-08
-1.30604e-12
3.9099e-08
-1.10259e-12
3.90989e-08
-1.00979e-12
3.90988e-08
-9.49665e-13
3.90987e-08
-8.12046e-13
3.90986e-08
-6.8868e-13
3.90985e-08
-5.94003e-13
3.90985e-08
-5.24806e-13
3.90984e-08
-4.17964e-13
3.90983e-08
-3.43388e-13
3.90983e-08
-2.49135e-13
3.90982e-08
-2.23675e-13
-1.05062e-13
4.21528e-08
2.21528e-09
-4.20621e-08
4.22697e-08
2.55992e-09
4.24973e-08
2.67027e-09
4.26737e-08
3.0637e-09
4.28803e-08
3.44526e-09
4.31106e-08
2.70203e-09
4.33077e-08
3.56775e-09
4.34149e-08
3.31131e-09
4.34931e-08
3.00153e-09
4.36305e-08
2.60631e-09
4.3723e-08
2.46869e-09
4.37591e-08
2.45277e-09
4.37423e-08
2.49971e-09
4.37293e-08
2.46683e-09
4.37557e-08
2.18665e-09
4.37765e-08
1.97775e-09
4.37717e-08
1.96089e-09
4.37608e-08
1.95144e-09
4.37479e-08
1.88674e-09
4.37474e-08
1.78848e-09
4.37478e-08
1.68283e-09
4.37523e-08
1.60323e-09
4.37422e-08
1.58681e-09
4.37275e-08
1.52919e-09
4.36942e-08
1.48712e-09
4.36594e-08
1.43536e-09
4.36098e-08
1.37486e-09
4.3588e-08
1.24703e-09
4.35385e-08
1.24038e-09
4.34946e-08
1.1554e-09
4.34577e-08
1.06027e-09
4.34082e-08
1.01392e-09
4.33654e-08
9.0717e-10
4.33021e-08
8.66902e-10
4.32223e-08
8.28095e-10
4.31616e-08
6.79451e-10
4.31092e-08
5.83877e-10
4.30398e-08
5.73729e-10
4.29609e-08
4.99331e-10
4.2888e-08
3.8972e-10
4.28154e-08
3.43755e-10
4.27478e-08
2.87957e-10
4.26856e-08
2.27793e-10
4.26229e-08
2.08599e-10
4.25646e-08
1.82514e-10
4.25108e-08
1.56416e-10
4.24576e-08
1.52755e-10
4.24111e-08
1.29825e-10
4.23744e-08
9.89901e-11
4.23396e-08
9.50109e-11
4.23067e-08
8.97397e-11
4.22775e-08
7.21538e-11
4.2249e-08
6.92872e-11
4.222e-08
6.6103e-11
4.21957e-08
4.47459e-11
4.21752e-08
3.43155e-11
4.21546e-08
3.59172e-11
4.21365e-08
2.44564e-11
4.21225e-08
9.61439e-12
4.21096e-08
9.69551e-12
4.20973e-08
7.75477e-12
4.20878e-08
-2.60229e-12
4.20808e-08
-7.04842e-12
4.20751e-08
-6.39101e-12
4.20707e-08
-8.52813e-12
4.20674e-08
-8.98143e-12
4.20644e-08
-6.37662e-12
4.20617e-08
-6.06329e-12
4.20597e-08
-7.09481e-12
4.20575e-08
-5.10082e-12
4.20553e-08
-3.19436e-12
4.20533e-08
-4.03642e-12
4.20517e-08
-4.3074e-12
4.205e-08
-2.9151e-12
4.20485e-08
-2.66506e-12
4.20473e-08
-3.42001e-12
4.20463e-08
-2.93311e-12
4.20452e-08
-2.10212e-12
4.20443e-08
-2.21936e-12
4.20435e-08
-2.32782e-12
4.20428e-08
-1.82527e-12
4.2042e-08
-1.53363e-12
4.20414e-08
-1.6273e-12
4.20409e-08
-1.44801e-12
4.20403e-08
-1.13264e-12
4.20398e-08
-1.06237e-12
4.20394e-08
-1.09564e-12
4.20391e-08
-9.27003e-13
4.20387e-08
-7.46977e-13
4.20384e-08
-6.90898e-13
4.20381e-08
-6.71577e-13
4.20378e-08
-5.57555e-13
4.20376e-08
-4.52822e-13
4.20374e-08
-3.80131e-13
4.20372e-08
-3.29967e-13
4.2037e-08
-2.37884e-13
4.20369e-08
-1.73411e-13
4.20367e-08
-9.27189e-14
4.20365e-08
-6.89791e-14
3.68442e-14
4.38544e-08
2.10628e-09
-4.37454e-08
4.39018e-08
2.51253e-09
4.41534e-08
2.41871e-09
4.424e-08
2.97709e-09
4.45183e-08
3.16695e-09
4.45844e-08
2.63596e-09
4.49805e-08
3.17164e-09
4.49265e-08
3.36524e-09
4.50748e-08
2.85329e-09
4.52287e-08
2.45242e-09
4.53026e-08
2.39479e-09
4.53154e-08
2.43996e-09
4.52861e-08
2.52901e-09
4.53021e-08
2.45083e-09
4.53639e-08
2.12485e-09
4.53839e-08
1.95768e-09
4.53762e-08
1.96857e-09
4.53701e-08
1.95761e-09
4.53718e-08
1.88499e-09
4.53981e-08
1.76222e-09
4.5403e-08
1.67797e-09
4.54066e-08
1.59957e-09
4.54096e-08
1.58384e-09
4.54102e-08
1.52855e-09
4.54017e-08
1.49564e-09
4.53877e-08
1.44941e-09
4.53713e-08
1.39118e-09
4.53547e-08
1.26362e-09
4.53468e-08
1.24833e-09
4.53361e-08
1.16612e-09
4.53343e-08
1.06205e-09
4.53078e-08
1.04046e-09
4.52973e-08
9.17644e-10
4.52629e-08
9.01302e-10
4.52102e-08
8.80815e-10
4.51802e-08
7.09397e-10
4.51523e-08
6.11777e-10
4.51078e-08
6.18274e-10
4.50536e-08
5.53534e-10
4.50044e-08
4.38928e-10
4.49514e-08
3.96731e-10
4.49022e-08
3.37129e-10
4.48567e-08
2.73329e-10
4.48089e-08
2.56402e-10
4.47647e-08
2.26689e-10
4.47224e-08
1.98745e-10
4.46782e-08
1.9695e-10
4.46398e-08
1.68197e-10
4.46108e-08
1.28024e-10
4.45825e-08
1.23245e-10
4.45554e-08
1.16834e-10
4.45319e-08
9.57372e-11
4.45075e-08
9.36696e-11
4.44816e-08
9.19851e-11
4.44597e-08
6.66098e-11
4.44408e-08
5.32184e-11
4.44209e-08
5.58641e-11
4.4403e-08
4.22875e-11
4.43896e-08
2.30609e-11
4.43766e-08
2.27207e-11
4.43637e-08
2.06692e-11
4.4353e-08
8.05939e-12
4.43442e-08
1.73209e-12
4.43363e-08
1.57434e-12
4.43296e-08
-1.87843e-12
4.43242e-08
-3.56538e-12
4.43191e-08
-1.31186e-12
4.43148e-08
-1.76998e-12
4.43115e-08
-3.74571e-12
4.43082e-08
-1.8181e-12
4.43048e-08
1.56886e-13
4.43019e-08
-1.121e-12
4.42994e-08
-1.78596e-12
4.4297e-08
-4.55804e-13
4.42947e-08
-4.40799e-13
4.42929e-08
-1.59644e-12
4.42912e-08
-1.27375e-12
4.42896e-08
-5.01169e-13
4.42882e-08
-8.2099e-13
4.4287e-08
-1.12334e-12
4.42859e-08
-6.87411e-13
4.42848e-08
-4.71591e-13
4.42839e-08
-6.92726e-13
4.42831e-08
-5.97958e-13
4.42823e-08
-3.3663e-13
4.42815e-08
-3.45196e-13
4.42809e-08
-4.67717e-13
4.42803e-08
-3.53164e-13
4.42798e-08
-2.15157e-13
4.42793e-08
-2.13968e-13
4.42789e-08
-2.52513e-13
4.42785e-08
-1.75343e-13
4.42782e-08
-1.01997e-13
4.42779e-08
-6.354e-14
4.42776e-08
-4.33557e-14
4.42773e-08
2.44907e-14
4.42771e-08
7.16574e-14
4.42768e-08
1.29668e-13
4.42766e-08
1.47923e-13
2.30692e-13
4.55662e-08
2.03622e-09
-4.54962e-08
4.56415e-08
2.43728e-09
4.58113e-08
2.24893e-09
4.59575e-08
2.83084e-09
4.61664e-08
2.95803e-09
4.62469e-08
2.55545e-09
4.65043e-08
2.91423e-09
4.65045e-08
3.3651e-09
4.67124e-08
2.64539e-09
4.68214e-08
2.34344e-09
4.68993e-08
2.31689e-09
4.6901e-08
2.43824e-09
4.6916e-08
2.514e-09
4.69705e-08
2.39632e-09
4.70304e-08
2.06497e-09
4.70259e-08
1.96218e-09
4.70215e-08
1.97298e-09
4.70165e-08
1.96256e-09
4.70461e-08
1.85544e-09
4.70736e-08
1.73474e-09
4.7072e-08
1.67956e-09
4.70645e-08
1.60706e-09
4.70797e-08
1.56863e-09
4.70893e-08
1.51898e-09
4.70806e-08
1.50436e-09
4.70686e-08
1.46137e-09
4.70682e-08
1.39154e-09
4.70335e-08
1.29832e-09
4.70453e-08
1.2366e-09
4.70559e-08
1.15549e-09
4.70395e-08
1.07847e-09
4.70398e-08
1.0401e-09
4.7029e-08
9.28441e-10
4.70151e-08
9.15256e-10
4.69697e-08
9.26211e-10
4.69561e-08
7.23003e-10
4.69268e-08
6.41005e-10
4.68918e-08
6.5329e-10
4.68526e-08
5.92736e-10
4.68204e-08
4.71171e-10
4.67788e-08
4.3832e-10
4.67395e-08
3.76428e-10
4.67019e-08
3.10946e-10
4.66625e-08
2.95791e-10
4.66294e-08
2.59801e-10
4.65967e-08
2.31441e-10
4.65596e-08
2.33979e-10
4.65273e-08
2.00556e-10
4.65031e-08
1.52188e-10
4.64787e-08
1.47704e-10
4.64559e-08
1.39548e-10
4.64377e-08
1.14006e-10
4.64174e-08
1.1394e-10
4.63949e-08
1.14502e-10
4.63765e-08
8.50416e-11
4.63601e-08
6.96074e-11
4.63416e-08
7.43413e-11
4.63251e-08
5.87956e-11
4.63133e-08
3.48567e-11
4.63014e-08
3.4582e-11
4.62894e-08
3.27058e-11
4.62793e-08
1.81715e-11
4.62703e-08
1.07342e-11
4.62614e-08
1.04023e-11
4.62536e-08
5.94597e-12
4.62468e-08
3.22961e-12
4.62403e-08
5.17633e-12
4.62349e-08
3.6857e-12
4.62307e-08
4.34286e-13
4.62267e-08
2.2323e-12
4.62226e-08
4.20045e-12
4.62191e-08
2.3779e-12
4.6216e-08
1.29636e-12
4.6213e-08
2.54692e-12
4.62103e-08
2.25827e-12
4.62081e-08
6.3903e-13
4.6206e-08
7.83292e-13
4.62041e-08
1.45873e-12
4.62024e-08
8.8207e-13
4.62009e-08
3.55531e-13
4.61995e-08
7.06056e-13
4.61982e-08
8.18431e-13
4.61971e-08
4.4595e-13
4.6196e-08
4.42565e-13
4.61951e-08
6.32092e-13
4.61942e-08
5.24568e-13
4.61934e-08
2.96848e-13
4.61927e-08
3.47175e-13
4.61921e-08
4.31467e-13
4.61915e-08
3.65049e-13
4.6191e-08
2.56301e-13
4.61905e-08
2.89617e-13
4.61901e-08
3.23229e-13
4.61897e-08
3.19729e-13
4.61894e-08
3.01911e-13
4.61891e-08
3.40936e-13
4.61888e-08
3.65015e-13
4.61885e-08
3.95918e-13
4.61882e-08
4.04623e-13
4.5988e-13
4.73675e-08
1.95571e-09
-4.7287e-08
4.74461e-08
2.35869e-09
4.75025e-08
2.19251e-09
4.77328e-08
2.60052e-09
4.78466e-08
2.84421e-09
4.80049e-08
2.39716e-09
4.82992e-08
2.61997e-09
4.83611e-08
3.3032e-09
4.84797e-08
2.52682e-09
4.85177e-08
2.30538e-09
4.85748e-08
2.25975e-09
4.85753e-08
2.43779e-09
4.86239e-08
2.46537e-09
4.87118e-08
2.30843e-09
4.87381e-08
2.03867e-09
4.87263e-08
1.97398e-09
4.87243e-08
1.97498e-09
4.87339e-08
1.95296e-09
4.87744e-08
1.81493e-09
4.87859e-08
1.72326e-09
4.87822e-08
1.68327e-09
4.87841e-08
1.60512e-09
4.88052e-08
1.54758e-09
4.88093e-08
1.51491e-09
4.88018e-08
1.51179e-09
4.87935e-08
1.46968e-09
4.87901e-08
1.39499e-09
4.8773e-08
1.31543e-09
4.87822e-08
1.22736e-09
4.87879e-08
1.14981e-09
4.8757e-08
1.10938e-09
4.87752e-08
1.0219e-09
4.8769e-08
9.34604e-10
4.87578e-08
9.26461e-10
4.87072e-08
9.76809e-10
4.86976e-08
7.32637e-10
4.8676e-08
6.62548e-10
4.86394e-08
6.89893e-10
4.8606e-08
6.26207e-10
4.85801e-08
4.97017e-10
4.8542e-08
4.76415e-10
4.85073e-08
4.11118e-10
4.84719e-08
3.46373e-10
4.84354e-08
3.32256e-10
4.84093e-08
2.85968e-10
4.83829e-08
2.5781e-10
4.83504e-08
2.66458e-10
4.83214e-08
2.2958e-10
4.82984e-08
1.75177e-10
4.8274e-08
1.7216e-10
4.82527e-08
1.60787e-10
4.82376e-08
1.2913e-10
4.82194e-08
1.32123e-10
4.81986e-08
1.35335e-10
4.81827e-08
1.00927e-10
4.8168e-08
8.42492e-11
4.81505e-08
9.18662e-11
4.81352e-08
7.41417e-11
4.81247e-08
4.53271e-11
4.81136e-08
4.57136e-11
4.81023e-08
4.39918e-11
4.8093e-08
2.74236e-11
4.80843e-08
1.94531e-11
4.80753e-08
1.93914e-11
4.80671e-08
1.4135e-11
4.80596e-08
1.07342e-11
4.80522e-08
1.25823e-11
4.80461e-08
9.86566e-12
4.80414e-08
5.06107e-12
4.80369e-08
6.72757e-12
4.80325e-08
8.64874e-12
4.80287e-08
6.18543e-12
4.80253e-08
4.69516e-12
4.80219e-08
5.87589e-12
4.8019e-08
5.23063e-12
4.80165e-08
3.10601e-12
4.80142e-08
3.08343e-12
4.8012e-08
3.6415e-12
4.80101e-08
2.76306e-12
4.80085e-08
1.99575e-12
4.8007e-08
2.25463e-12
4.80055e-08
2.2448e-12
4.80043e-08
1.70537e-12
4.80031e-08
1.59841e-12
4.8002e-08
1.70517e-12
4.80011e-08
1.48453e-12
4.80002e-08
1.14067e-12
4.79995e-08
1.12256e-12
4.79987e-08
1.14712e-12
4.79981e-08
1.00449e-12
4.79975e-08
8.16385e-13
4.7997e-08
8.03505e-13
4.79966e-08
7.92612e-13
4.79961e-08
7.42439e-13
4.79958e-08
6.81129e-13
4.79954e-08
6.90299e-13
4.79951e-08
6.86792e-13
4.79948e-08
6.89565e-13
4.79945e-08
6.84667e-13
7.11425e-13
4.92216e-08
1.88697e-09
-4.91529e-08
4.92658e-08
2.31451e-09
4.93221e-08
2.13616e-09
4.95189e-08
2.40378e-09
4.96453e-08
2.71778e-09
4.97811e-08
2.26138e-09
4.99795e-08
2.42151e-09
5.01007e-08
3.18206e-09
5.02302e-08
2.39726e-09
5.02686e-08
2.26704e-09
5.02992e-08
2.22915e-09
5.02957e-08
2.44129e-09
5.03896e-08
2.37151e-09
5.04667e-08
2.23128e-09
5.04965e-08
2.00891e-09
5.04953e-08
1.97521e-09
5.05029e-08
1.96732e-09
5.05327e-08
1.92321e-09
5.05549e-08
1.79268e-09
5.05625e-08
1.71564e-09
5.0564e-08
1.6818e-09
5.05736e-08
1.59554e-09
5.05873e-08
1.53387e-09
5.05806e-08
1.52165e-09
5.05807e-08
1.51166e-09
5.05742e-08
1.47617e-09
5.05757e-08
1.39349e-09
5.05669e-08
1.32422e-09
5.05732e-08
1.22107e-09
5.05773e-08
1.14574e-09
5.056e-08
1.12666e-09
5.05524e-08
1.02951e-09
5.05535e-08
9.33431e-10
5.05424e-08
9.37633e-10
5.04898e-08
1.02943e-09
5.04844e-08
7.37972e-10
5.04724e-08
6.74543e-10
5.04288e-08
7.33511e-10
5.04006e-08
6.54439e-10
5.0375e-08
5.22601e-10
5.03357e-08
5.15655e-10
5.03044e-08
4.42504e-10
5.02693e-08
3.81462e-10
5.02333e-08
3.6825e-10
5.02105e-08
3.08767e-10
5.01865e-08
2.81763e-10
5.01565e-08
2.9644e-10
5.01299e-08
2.56253e-10
5.01067e-08
1.98372e-10
5.00808e-08
1.98082e-10
5.00601e-08
1.81475e-10
5.00466e-08
1.42607e-10
5.00283e-08
1.50423e-10
5.00074e-08
1.56214e-10
4.99929e-08
1.15403e-10
4.99789e-08
9.8311e-11
4.99617e-08
1.09053e-10
4.99474e-08
8.83807e-11
4.99378e-08
5.50028e-11
4.99266e-08
5.69141e-11
4.99154e-08
5.51912e-11
4.99065e-08
3.62555e-11
4.98979e-08
2.81041e-11
4.9889e-08
2.83273e-11
4.98809e-08
2.22129e-11
4.98731e-08
1.85302e-11
4.98651e-08
2.06031e-11
4.98584e-08
1.64993e-11
4.98536e-08
9.90002e-12
4.98488e-08
1.14884e-11
4.98441e-08
1.33324e-11
4.98402e-08
1.01429e-11
4.98366e-08
8.27889e-12
4.98331e-08
9.4103e-12
4.98299e-08
8.35665e-12
4.98273e-08
5.69933e-12
4.98249e-08
5.53929e-12
4.98226e-08
5.96874e-12
4.98206e-08
4.74689e-12
4.98188e-08
3.73304e-12
4.98172e-08
3.90181e-12
4.98157e-08
3.75575e-12
4.98143e-08
3.03958e-12
4.98131e-08
2.8285e-12
4.9812e-08
2.8448e-12
4.9811e-08
2.49981e-12
4.98101e-08
2.03165e-12
4.98092e-08
1.94434e-12
4.98085e-08
1.90669e-12
4.98078e-08
1.68097e-12
4.98072e-08
1.40588e-12
4.98067e-08
1.34747e-12
4.98062e-08
1.28938e-12
4.98057e-08
1.18913e-12
4.98053e-08
1.0804e-12
4.9805e-08
1.06046e-12
4.98046e-08
1.02598e-12
4.98043e-08
1.00089e-12
4.9804e-08
9.79052e-13
9.776e-13
5.11117e-08
1.85312e-09
-5.10779e-08
5.11398e-08
2.28642e-09
5.1228e-08
2.04796e-09
5.13702e-08
2.26161e-09
5.15283e-08
2.55963e-09
5.16106e-08
2.17911e-09
5.18051e-08
2.22698e-09
5.19822e-08
3.00499e-09
5.20386e-08
2.34089e-09
5.21022e-08
2.20335e-09
5.21045e-08
2.2269e-09
5.21327e-08
2.41307e-09
5.22613e-08
2.24294e-09
5.23157e-08
2.17687e-09
5.22971e-08
2.0275e-09
5.23155e-08
1.95685e-09
5.23594e-08
1.92341e-09
5.24089e-08
1.87369e-09
5.2404e-08
1.79756e-09
5.24114e-08
1.70823e-09
5.24055e-08
1.68777e-09
5.24192e-08
1.58181e-09
5.24255e-08
1.52758e-09
5.24203e-08
1.52686e-09
5.24135e-08
1.5184e-09
5.24177e-08
1.47203e-09
5.24353e-08
1.37586e-09
5.24241e-08
1.33541e-09
5.2429e-08
1.21618e-09
5.24366e-08
1.13811e-09
5.24182e-08
1.14512e-09
5.23969e-08
1.05081e-09
5.24034e-08
9.26849e-10
5.23801e-08
9.60941e-10
5.23549e-08
1.05467e-09
5.23388e-08
7.54055e-10
5.23285e-08
6.84857e-10
5.22681e-08
7.93903e-10
5.2262e-08
6.60501e-10
5.22294e-08
5.55226e-10
5.21912e-08
5.53912e-10
5.21633e-08
4.70361e-10
5.21264e-08
4.18342e-10
5.209e-08
4.04664e-10
5.20688e-08
3.30026e-10
5.2044e-08
3.06534e-10
5.20144e-08
3.26062e-10
5.19895e-08
2.81068e-10
5.1966e-08
2.21913e-10
5.19388e-08
2.25296e-10
5.19197e-08
2.00539e-10
5.19081e-08
1.54243e-10
5.18887e-08
1.69865e-10
5.18667e-08
1.78156e-10
5.18527e-08
1.29439e-10
5.1838e-08
1.12985e-10
5.18206e-08
1.26489e-10
5.18076e-08
1.01385e-10
5.17983e-08
6.42233e-11
5.17867e-08
6.85148e-11
5.17753e-08
6.6621e-11
5.17664e-08
4.51755e-11
5.17573e-08
3.71447e-11
5.17484e-08
3.72633e-11
5.17407e-08
2.99526e-11
5.17328e-08
2.63981e-11
5.17243e-08
2.90664e-11
5.17174e-08
2.3423e-11
5.17125e-08
1.48326e-11
5.17075e-08
1.64325e-11
5.17027e-08
1.81573e-11
5.16987e-08
1.41734e-11
5.1695e-08
1.19967e-11
5.16913e-08
1.30973e-11
5.16881e-08
1.15787e-11
5.16854e-08
8.37271e-12
5.16828e-08
8.11303e-12
5.16804e-08
8.40351e-12
5.16783e-08
6.796e-12
5.16765e-08
5.53822e-12
5.16748e-08
5.62151e-12
5.16732e-08
5.32761e-12
5.16718e-08
4.42967e-12
5.16706e-08
4.11543e-12
5.16694e-08
4.03418e-12
5.16683e-08
3.55513e-12
5.16674e-08
2.9556e-12
5.16665e-08
2.79957e-12
5.16657e-08
2.69944e-12
5.1665e-08
2.38392e-12
5.16644e-08
2.01459e-12
5.16639e-08
1.91309e-12
5.16633e-08
1.80618e-12
5.16629e-08
1.65251e-12
5.16625e-08
1.4934e-12
5.16621e-08
1.44584e-12
5.16617e-08
1.37785e-12
5.16614e-08
1.32505e-12
5.16611e-08
1.28398e-12
1.25462e-12
5.30246e-08
1.88124e-09
-5.30528e-08
5.30927e-08
2.21837e-09
5.3208e-08
1.93267e-09
5.32819e-08
2.18774e-09
5.34902e-08
2.35129e-09
5.35588e-08
2.11052e-09
5.36332e-08
2.15256e-09
5.38575e-08