/*--------------------------------*- C++ -*----------------------------------*\
| =========                 |                                                 |
| \\      /  F ield         | OpenFOAM: The Open Source CFD Toolbox           |
|  \\    /   O peration     | Version:  2.3.0                                 |
|   \\  /    A nd           | Web:      www.OpenFOAM.org                      |
|    \\/     M anipulation  |                                                 |
\*---------------------------------------------------------------------------*/
FoamFile
{
    version     2.0;
    format      ascii;
    class       surfaceScalarField;
    location    "0.6";
    object      phi;
}
// * * * * * * * * * * * * * * * * * * * * * * * * * * * * * * * * * * * * * //

dimensions      [0 3 -1 0 0 0 0];

internalField   nonuniform List<scalar> 
5273
(
3.15604e-08
3.0246e-09
2.8664e-08
2.89645e-09
2.60225e-08
2.64145e-09
2.35248e-08
2.49778e-09
2.11884e-08
2.33635e-09
1.90462e-08
2.14223e-09
1.71141e-08
1.93207e-09
1.53961e-08
1.71797e-09
1.38891e-08
1.50702e-09
1.25843e-08
1.30481e-09
1.14681e-08
1.1162e-09
1.05232e-08
9.44897e-10
9.72995e-09
7.93252e-10
9.06772e-09
6.62233e-10
8.51614e-09
5.51578e-10
8.05611e-09
4.6003e-10
7.67048e-09
3.85637e-10
7.34441e-09
3.26062e-10
7.06555e-09
2.78859e-10
6.82387e-09
2.41685e-10
6.61144e-09
2.12433e-10
6.42213e-09
1.89308e-10
6.25129e-09
1.7084e-10
6.09542e-09
1.5587e-10
5.95191e-09
1.43511e-10
5.81881e-09
1.33102e-10
5.69465e-09
1.24159e-10
5.57831e-09
1.16339e-10
5.46891e-09
1.09395e-10
5.36576e-09
1.03155e-10
5.26826e-09
9.74974e-11
5.17593e-09
9.2333e-11
5.08833e-09
8.75971e-11
5.00509e-09
8.32396e-11
4.92587e-09
7.92207e-11
4.85036e-09
7.55072e-11
4.77829e-09
7.20706e-11
4.70941e-09
6.88856e-11
4.64348e-09
6.59298e-11
4.58029e-09
6.31827e-11
4.51967e-09
6.06259e-11
4.46142e-09
5.82427e-11
4.40541e-09
5.60176e-11
4.35147e-09
5.39371e-11
4.29948e-09
5.19886e-11
4.24932e-09
5.01607e-11
4.20088e-09
4.84434e-11
4.15405e-09
4.68275e-11
4.10874e-09
4.53047e-11
4.06488e-09
4.38676e-11
4.02237e-09
4.25093e-11
3.98114e-09
4.12238e-11
3.94114e-09
4.00055e-11
3.90229e-09
3.88495e-11
3.86454e-09
3.77513e-11
3.82783e-09
3.67066e-11
3.79212e-09
3.57117e-11
3.75736e-09
3.47632e-11
3.7235e-09
3.38579e-11
3.69051e-09
3.29929e-11
3.65834e-09
3.21657e-11
3.62697e-09
3.13736e-11
3.59635e-09
3.06145e-11
3.56646e-09
2.98865e-11
3.53728e-09
2.91873e-11
3.50876e-09
2.85154e-11
3.48089e-09
2.7869e-11
3.45365e-09
2.72466e-11
3.427e-09
2.66469e-11
3.40093e-09
2.60684e-11
3.37542e-09
2.55099e-11
3.35045e-09
2.49703e-11
3.326e-09
2.44484e-11
3.30206e-09
2.39433e-11
3.27861e-09
2.34539e-11
3.25563e-09
2.29794e-11
3.23311e-09
2.25189e-11
3.21104e-09
2.20717e-11
3.1894e-09
2.16369e-11
3.16818e-09
2.1214e-11
3.14738e-09
2.08023e-11
3.12698e-09
2.04011e-11
3.10697e-09
2.00099e-11
3.08734e-09
1.96283e-11
3.06809e-09
1.92558e-11
3.0492e-09
1.8892e-11
3.03066e-09
1.85366e-11
3.01247e-09
1.81894e-11
2.99462e-09
1.78502e-11
2.9771e-09
1.75189e-11
2.9599e-09
1.71956e-11
2.94302e-09
1.68806e-11
2.92645e-09
1.65745e-11
2.91017e-09
1.62793e-11
2.89417e-09
1.59998e-11
2.87842e-09
1.57501e-11
2.86284e-09
1.55772e-11
2.84726e-09
1.5578e-11
2.83134e-09
1.59291e-11
4.48792e-11
3.64392e-08
2.45548e-09
3.61717e-08
3.16392e-09
3.55862e-08
3.22695e-09
3.48047e-08
3.27922e-09
3.38657e-08
3.27542e-09
3.28247e-08
3.18316e-09
3.17294e-08
3.02745e-09
3.06138e-08
2.83349e-09
2.95039e-08
2.61695e-09
2.84192e-08
2.38948e-09
2.73742e-08
2.16129e-09
2.63782e-08
1.94082e-09
2.54372e-08
1.73433e-09
2.45535e-08
1.54586e-09
2.37277e-08
1.37746e-09
2.29581e-08
1.22954e-09
2.22425e-08
1.10127e-09
2.15776e-08
9.90986e-10
2.09598e-08
8.9662e-10
2.03856e-08
8.1595e-10
1.98512e-08
7.4683e-10
1.93532e-08
6.87314e-10
1.88883e-08
6.35713e-10
1.84535e-08
5.90616e-10
1.80462e-08
5.50872e-10
1.76637e-08
5.15557e-10
1.73039e-08
4.8394e-10
1.69648e-08
4.55444e-10
1.66446e-08
4.29614e-10
1.63417e-08
4.0609e-10
1.60546e-08
3.84581e-10
1.57821e-08
3.6485e-10
1.5523e-08
3.46702e-10
1.52762e-08
3.29971e-10
1.5041e-08
3.14515e-10
1.48163e-08
3.0021e-10
1.46014e-08
2.86948e-10
1.43956e-08
2.74632e-10
1.41984e-08
2.63177e-10
1.40091e-08
2.52505e-10
1.38271e-08
2.42548e-10
1.36521e-08
2.33243e-10
1.34836e-08
2.24534e-10
1.33212e-08
2.16371e-10
1.31645e-08
2.08708e-10
1.30131e-08
2.01504e-10
1.28668e-08
1.94722e-10
1.27253e-08
1.88329e-10
1.25884e-08
1.82293e-10
1.24556e-08
1.76588e-10
1.2327e-08
1.71189e-10
1.22021e-08
1.66072e-10
1.20809e-08
1.61217e-10
1.19631e-08
1.56606e-10
1.18487e-08
1.52221e-10
1.17373e-08
1.48046e-10
1.1629e-08
1.44067e-10
1.15235e-08
1.40272e-10
1.14207e-08
1.36647e-10
1.13205e-08
1.33181e-10
1.12228e-08
1.29865e-10
1.11275e-08
1.26689e-10
1.10344e-08
1.23644e-10
1.09436e-08
1.20721e-10
1.08549e-08
1.17914e-10
1.07682e-08
1.15216e-10
1.06834e-08
1.12619e-10
1.06006e-08
1.10117e-10
1.05195e-08
1.07706e-10
1.04402e-08
1.0538e-10
1.03626e-08
1.03133e-10
1.02866e-08
1.00961e-10
1.02122e-08
9.88599e-11
1.01393e-08
9.6825e-11
1.00679e-08
9.48526e-11
9.99793e-09
9.2939e-11
9.92937e-09
9.10807e-11
9.86216e-09
8.92743e-11
9.79628e-09
8.75167e-11
9.73169e-09
8.5805e-11
9.66836e-09
8.41365e-11
9.60625e-09
8.25084e-11
9.54534e-09
8.09184e-11
9.48561e-09
7.93641e-11
9.42702e-09
7.78437e-11
9.36956e-09
7.6355e-11
9.3132e-09
7.48966e-11
9.25792e-09
7.34671e-11
9.2037e-09
7.20652e-11
9.15053e-09
7.06901e-11
9.09839e-09
6.93417e-11
9.04725e-09
6.80202e-11
8.99709e-09
6.67275e-11
8.9479e-09
6.54694e-11
8.89964e-09
6.42612e-11
8.85224e-09
6.31487e-11
8.80555e-09
6.22699e-11
8.75909e-09
6.20429e-11
8.70797e-09
6.70395e-11
1.12636e-10
3.78827e-08
1.77558e-09
3.83056e-08
2.74105e-09
3.84799e-08
3.05258e-09
3.85167e-08
3.24247e-09
3.84221e-08
3.37e-09
3.82036e-08
3.40164e-09
3.78814e-08
3.34971e-09
3.74757e-08
3.23911e-09
3.70049e-08
3.0878e-09
3.64852e-08
2.90916e-09
3.59314e-08
2.71513e-09
3.53559e-08
2.51624e-09
3.47693e-08
2.32097e-09
3.41797e-08
2.13548e-09
3.35934e-08
1.96374e-09
3.30151e-08
1.80783e-09
3.24481e-08
1.6683e-09
3.18945e-08
1.54459e-09
3.13556e-08
1.43545e-09
3.08323e-08
1.33927e-09
3.03248e-08
1.25433e-09
2.98332e-08
1.17896e-09
2.93572e-08
1.11168e-09
2.88966e-08
1.05119e-09
2.84511e-08
9.96399e-10
2.80202e-08
9.46441e-10
2.76036e-08
9.00606e-10
2.72007e-08
8.5833e-10
2.68111e-08
8.19167e-10
2.64344e-08
7.82759e-10
2.60702e-08
7.48817e-10
2.5718e-08
7.17103e-10
2.53772e-08
6.87417e-10
2.50476e-08
6.59589e-10
2.47287e-08
6.33471e-10
2.44199e-08
6.08932e-10
2.4121e-08
5.85853e-10
2.38315e-08
5.64128e-10
2.35511e-08
5.43659e-10
2.32792e-08
5.24357e-10
2.30156e-08
5.06139e-10
2.27599e-08
4.88929e-10
2.25118e-08
4.72658e-10
2.22709e-08
4.5726e-10
2.20369e-08
4.42677e-10
2.18096e-08
4.28851e-10
2.15886e-08
4.15734e-10
2.13736e-08
4.03277e-10
2.11645e-08
3.91436e-10
2.09609e-08
3.80172e-10
2.07627e-08
3.69446e-10
2.05695e-08
3.59226e-10
2.03812e-08
3.49477e-10
2.01977e-08
3.40171e-10
2.00186e-08
3.3128e-10
1.98439e-08
3.22779e-10
1.96733e-08
3.14644e-10
1.95067e-08
3.06852e-10
1.9344e-08
2.99384e-10
1.9185e-08
2.92219e-10
1.90295e-08
2.85341e-10
1.88774e-08
2.78732e-10
1.87287e-08
2.72377e-10
1.85832e-08
2.66261e-10
1.84407e-08
2.60371e-10
1.83012e-08
2.54694e-10
1.81646e-08
2.49218e-10
1.80308e-08
2.43931e-10
1.78997e-08
2.38823e-10
1.77712e-08
2.33883e-10
1.76452e-08
2.29103e-10
1.75217e-08
2.24473e-10
1.74006e-08
2.19985e-10
1.72818e-08
2.1563e-10
1.71652e-08
2.11401e-10
1.70509e-08
2.0729e-10
1.69387e-08
2.03291e-10
1.68285e-08
1.99396e-10
1.67205e-08
1.956e-10
1.66144e-08
1.91895e-10
1.65102e-08
1.88278e-10
1.6408e-08
1.8474e-10
1.63076e-08
1.81279e-10
1.62091e-08
1.77888e-10
1.61124e-08
1.74563e-10
1.60175e-08
1.713e-10
1.59243e-08
1.68095e-10
1.58328e-08
1.64945e-10
1.5743e-08
1.61846e-10
1.56549e-08
1.58796e-10
1.55684e-08
1.55795e-10
1.54836e-08
1.52842e-10
1.54004e-08
1.4994e-10
1.53188e-08
1.47099e-10
1.52387e-08
1.44348e-10
1.51601e-08
1.41772e-10
1.50827e-08
1.3964e-10
1.50057e-08
1.39018e-10
1.49252e-08
1.47531e-10
1.93236e-10
3.90452e-08
1.31546e-09
3.95339e-08
2.25232e-09
3.98916e-08
2.69487e-09
4.0177e-08
2.9571e-09
4.03998e-08
3.14718e-09
4.05487e-08
3.25277e-09
4.06223e-08
3.27606e-09
4.06255e-08
3.23598e-09
4.0564e-08
3.14926e-09
4.04447e-08
3.02844e-09
4.02752e-08
2.8846e-09
4.00636e-08
2.7279e-09
3.98175e-08
2.56703e-09
3.95442e-08
2.40876e-09
3.92501e-08
2.25793e-09
3.89403e-08
2.11756e-09
3.86194e-08
1.98918e-09
3.82909e-08
1.87313e-09
3.79574e-08
1.76894e-09
3.7621e-08
1.67565e-09
3.72833e-08
1.59204e-09
3.69455e-08
1.51683e-09
3.66083e-08
1.4488e-09
3.62727e-08
1.38687e-09
3.5939e-08
1.3301e-09
3.56077e-08
1.27769e-09
3.52793e-08
1.22903e-09
3.4954e-08
1.1836e-09
3.46322e-08
1.14101e-09
3.4314e-08
1.10092e-09
3.39997e-08
1.06308e-09
3.36896e-08
1.02728e-09
3.33836e-08
9.93364e-10
3.3082e-08
9.61174e-10
3.27849e-08
9.30589e-10
3.24923e-08
9.01503e-10
3.22044e-08
8.73818e-10
3.19211e-08
8.47447e-10
3.16424e-08
8.2231e-10
3.13684e-08
7.98335e-10
3.10991e-08
7.75453e-10
3.08344e-08
7.53601e-10
3.05744e-08
7.3272e-10
3.03189e-08
7.12755e-10
3.00679e-08
6.93653e-10
2.98214e-08
6.75368e-10
2.95793e-08
6.57854e-10
2.93415e-08
6.41069e-10
2.91079e-08
6.24973e-10
2.88786e-08
6.09528e-10
2.86533e-08
5.94701e-10
2.84321e-08
5.80457e-10
2.82148e-08
5.66767e-10
2.80014e-08
5.53602e-10
2.77917e-08
5.40934e-10
2.75858e-08
5.28737e-10
2.73834e-08
5.16987e-10
2.71846e-08
5.05662e-10
2.69893e-08
4.94739e-10
2.67973e-08
4.84199e-10
2.66086e-08
4.74022e-10
2.64231e-08
4.64191e-10
2.62408e-08
4.54686e-10
2.60616e-08
4.45493e-10
2.58854e-08
4.36596e-10
2.57121e-08
4.27979e-10
2.55417e-08
4.19629e-10
2.53741e-08
4.11532e-10
2.52092e-08
4.03676e-10
2.50471e-08
3.96047e-10
2.48875e-08
3.88635e-10
2.47306e-08
3.81428e-10
2.45761e-08
3.74414e-10
2.44242e-08
3.67585e-10
2.42747e-08
3.60928e-10
2.41275e-08
3.54435e-10
2.39827e-08
3.48097e-10
2.38402e-08
3.41903e-10
2.37e-08
3.35846e-10
2.35619e-08
3.29916e-10
2.34261e-08
3.24106e-10
2.32924e-08
3.18407e-10
2.31609e-08
3.12811e-10
2.30315e-08
3.07313e-10
2.29041e-08
3.01903e-10
2.27789e-08
2.96577e-10
2.26556e-08
2.91328e-10
2.25344e-08
2.8615e-10
2.24152e-08
2.81039e-10
2.2298e-08
2.75991e-10
2.21828e-08
2.71004e-10
2.20696e-08
2.66076e-10
2.19583e-08
2.61213e-10
2.1849e-08
2.56428e-10
2.17416e-08
2.51763e-10
2.1636e-08
2.47343e-10
2.15321e-08
2.4357e-10
2.14291e-08
2.42044e-10
2.13261e-08
2.50467e-10
2.85265e-10
4.03208e-08
1.01333e-09
4.07301e-08
1.8431e-09
4.10905e-08
2.33443e-09
4.14117e-08
2.63587e-09
4.17071e-08
2.85182e-09
4.19672e-08
2.99264e-09
4.21844e-08
3.05886e-09
4.23566e-08
3.06383e-09
4.24836e-08
3.02224e-09
4.25664e-08
2.94557e-09
4.26075e-08
2.84358e-09
4.26101e-08
2.72527e-09
4.25785e-08
2.5986e-09
4.25172e-08
2.47004e-09
4.24307e-08
2.34449e-09
4.2323e-08
2.22528e-09
4.21977e-08
2.11442e-09
4.20581e-08
2.0128e-09
4.19065e-08
1.92049e-09
4.17451e-08
1.83705e-09
4.15755e-08
1.76166e-09
4.13989e-08
1.69342e-09
4.12163e-08
1.63135e-09
4.10286e-08
1.57458e-09
4.08364e-08
1.52231e-09
4.06403e-08
1.47385e-09
4.04406e-08
1.42866e-09
4.0238e-08
1.38627e-09
4.00326e-08
1.34632e-09
3.9825e-08
1.30852e-09
3.96155e-08
1.27263e-09
3.94043e-08
1.23847e-09
3.91918e-08
1.20589e-09
3.89782e-08
1.17476e-09
3.87638e-08
1.14497e-09
3.85489e-08
1.11643e-09
3.83336e-08
1.08907e-09
3.81182e-08
1.06282e-09
3.7903e-08
1.0376e-09
3.76879e-08
1.01336e-09
3.74733e-08
9.90052e-10
3.72593e-08
9.6762e-10
3.7046e-08
9.46018e-10
3.68336e-08
9.25205e-10
3.66221e-08
9.05139e-10
3.64117e-08
8.85782e-10
3.62024e-08
8.671e-10
3.59944e-08
8.49059e-10
3.57878e-08
8.31628e-10
3.55825e-08
8.14778e-10
3.53787e-08
7.98482e-10
3.51765e-08
7.82712e-10
3.49758e-08
7.67446e-10
3.47768e-08
7.5266e-10
3.45794e-08
7.38332e-10
3.43837e-08
7.24441e-10
3.41897e-08
7.10968e-10
3.39974e-08
6.97894e-10
3.3807e-08
6.85201e-10
3.36183e-08
6.72873e-10
3.34314e-08
6.60894e-10
3.32464e-08
6.49248e-10
3.30631e-08
6.37921e-10
3.28817e-08
6.26898e-10
3.27022e-08
6.16166e-10
3.25244e-08
6.05711e-10
3.23485e-08
5.95523e-10
3.21745e-08
5.85588e-10
3.20023e-08
5.75894e-10
3.18319e-08
5.66431e-10
3.16633e-08
5.57187e-10
3.14966e-08
5.48151e-10
3.13317e-08
5.39313e-10
3.11686e-08
5.30663e-10
3.10074e-08
5.22191e-10
3.08479e-08
5.13886e-10
3.06903e-08
5.05739e-10
3.05344e-08
4.97741e-10
3.03804e-08
4.89881e-10
3.02282e-08
4.82151e-10
3.00777e-08
4.74541e-10
2.99291e-08
4.67043e-10
2.97823e-08
4.59648e-10
2.96372e-08
4.52347e-10
2.9494e-08
4.45133e-10
2.93526e-08
4.37997e-10
2.9213e-08
4.30932e-10
2.90752e-08
4.23932e-10
2.89392e-08
4.1699e-10
2.88051e-08
4.10103e-10
2.86729e-08
4.03266e-10
2.85425e-08
3.96479e-10
2.84139e-08
3.89748e-10
2.82873e-08
3.83091e-10
2.81625e-08
3.76558e-10
2.80395e-08
3.70302e-10
2.79183e-08
3.64797e-10
2.77986e-08
3.61718e-10
2.76823e-08
3.66787e-10
3.84574e-10
4.1712e-08
8.06939e-10
4.20332e-08
1.52185e-09
4.2355e-08
2.01269e-09
4.2657e-08
2.33381e-09
4.29466e-08
2.56223e-09
4.3219e-08
2.7203e-09
4.34665e-08
2.81129e-09
4.36856e-08
2.84474e-09
4.38747e-08
2.83314e-09
4.40332e-08
2.78711e-09
4.41613e-08
2.7155e-09
4.42603e-08
2.62628e-09
4.43323e-08
2.52659e-09
4.43799e-08
2.42241e-09
4.4406e-08
2.31838e-09
4.44134e-08
2.21786e-09
4.44048e-08
2.12303e-09
4.43825e-08
2.0351e-09
4.43485e-08
1.9545e-09
4.43045e-08
1.88111e-09
4.42516e-08
1.81449e-09
4.41911e-08
1.75398e-09
4.41236e-08
1.69886e-09
4.40497e-08
1.6484e-09
4.39701e-08
1.60195e-09
4.3885e-08
1.55892e-09
4.37949e-08
1.51882e-09
4.36999e-08
1.48123e-09
4.36004e-08
1.44582e-09
4.34966e-08
1.41231e-09
4.33888e-08
1.38049e-09
4.32771e-08
1.35017e-09
4.31618e-08
1.32121e-09
4.3043e-08
1.2935e-09
4.2921e-08
1.26693e-09
4.27961e-08
1.24142e-09
4.26682e-08
1.2169e-09
4.25377e-08
1.1933e-09
4.24048e-08
1.17056e-09
4.22695e-08
1.14863e-09
4.21321e-08
1.12747e-09
4.19927e-08
1.10702e-09
4.18515e-08
1.08726e-09
4.17085e-08
1.06814e-09
4.1564e-08
1.04963e-09
4.14181e-08
1.0317e-09
4.12709e-08
1.01431e-09
4.11225e-08
9.97447e-10
4.09731e-08
9.81073e-10
4.08227e-08
9.65167e-10
4.06714e-08
9.49708e-10
4.05195e-08
9.34674e-10
4.03669e-08
9.20045e-10
4.02137e-08
9.05802e-10
4.00601e-08
8.91928e-10
3.99062e-08
8.78405e-10
3.97519e-08
8.65218e-10
3.95975e-08
8.52353e-10
3.94429e-08
8.39795e-10
3.92882e-08
8.2753e-10
3.91336e-08
8.15546e-10
3.8979e-08
8.03831e-10
3.88245e-08
7.92373e-10
3.86703e-08
7.81161e-10
3.85162e-08
7.70183e-10
3.83625e-08
7.5943e-10
3.82092e-08
7.48892e-10
3.80562e-08
7.38557e-10
3.79037e-08
7.28418e-10
3.77516e-08
7.18464e-10
3.76001e-08
7.08686e-10
3.74492e-08
6.99075e-10
3.72989e-08
6.89622e-10
3.71492e-08
6.80318e-10
3.70003e-08
6.71154e-10
3.68521e-08
6.62121e-10
3.67046e-08
6.5321e-10
3.65579e-08
6.44412e-10
3.64121e-08
6.35719e-10
3.62671e-08
6.27121e-10
3.6123e-08
6.18609e-10
3.59799e-08
6.10176e-10
3.58377e-08
6.01811e-10
3.56966e-08
5.93506e-10
3.55565e-08
5.85254e-10
3.54174e-08
5.77045e-10
3.52795e-08
5.68873e-10
3.51427e-08
5.6073e-10
3.50071e-08
5.5261e-10
3.48726e-08
5.44508e-10
3.47395e-08
5.36421e-10
3.46076e-08
5.28349e-10
3.44771e-08
5.20296e-10
3.43479e-08
5.12284e-10
3.42201e-08
5.04368e-10
3.40937e-08
4.96699e-10
3.39687e-08
4.8972e-10
3.38457e-08
4.8472e-10
3.3728e-08
4.84566e-10
4.84056e-10
4.31956e-08
6.59088e-10
4.34465e-08
1.27089e-09
4.37241e-08
1.73514e-09
4.39971e-08
2.06083e-09
4.42638e-08
2.29555e-09
4.45209e-08
2.46319e-09
4.47621e-08
2.57005e-09
4.49834e-08
2.62347e-09
4.51828e-08
2.63369e-09
4.53596e-08
2.61034e-09
4.55136e-08
2.56155e-09
4.56453e-08
2.49453e-09
4.57562e-08
2.41572e-09
4.5848e-08
2.33062e-09
4.59227e-08
2.24362e-09
4.59826e-08
2.158e-09
4.60296e-08
2.07601e-09
4.60656e-08
1.99906e-09
4.60923e-08
1.92784e-09
4.61109e-08
1.8625e-09
4.61225e-08
1.80286e-09
4.6128e-08
1.7485e-09
4.6128e-08
1.6989e-09
4.61229e-08
1.6535e-09
4.6113e-08
1.61176e-09
4.60988e-08
1.57318e-09
4.60803e-08
1.53733e-09
4.60577e-08
1.50384e-09
4.60311e-08
1.4724e-09
4.60007e-08
1.44275e-09
4.59665e-08
1.41469e-09
4.59286e-08
1.38804e-09
4.58871e-08
1.36267e-09
4.58422e-08
1.33844e-09
4.57938e-08
1.31527e-09
4.57422e-08
1.29307e-09
4.56873e-08
1.27177e-09
4.56293e-08
1.25129e-09
4.55683e-08
1.23159e-09
4.55043e-08
1.21262e-09
4.54375e-08
1.19431e-09
4.53678e-08
1.17664e-09
4.52955e-08
1.15957e-09
4.52206e-08
1.14305e-09
4.51432e-08
1.12705e-09
4.50634e-08
1.11154e-09
4.49812e-08
1.0965e-09
4.48967e-08
1.08189e-09
4.48101e-08
1.0677e-09
4.47214e-08
1.05389e-09
4.46307e-08
1.04044e-09
4.4538e-08
1.02735e-09
4.44435e-08
1.01458e-09
4.43471e-08
1.00212e-09
4.42491e-08
9.8995e-10
4.41495e-08
9.78059e-10
4.40482e-08
9.66431e-10
4.39456e-08
9.55051e-10
4.38414e-08
9.43908e-10
4.3736e-08
9.32988e-10
4.36292e-08
9.22281e-10
4.35213e-08
9.11775e-10
4.34122e-08
9.0146e-10
4.33021e-08
8.91325e-10
4.31909e-08
8.81361e-10
4.30787e-08
8.71559e-10
4.29657e-08
8.6191e-10
4.28519e-08
8.52404e-10
4.27373e-08
8.43034e-10
4.26219e-08
8.33791e-10
4.2506e-08
8.24666e-10
4.23894e-08
8.15652e-10
4.22723e-08
8.0674e-10
4.21547e-08
7.97921e-10
4.20366e-08
7.89189e-10
4.19182e-08
7.80533e-10
4.17995e-08
7.71947e-10
4.16805e-08
7.63421e-10
4.15612e-08
7.54947e-10
4.14418e-08
7.46516e-10
4.13223e-08
7.38119e-10
4.12028e-08
7.29748e-10
4.10832e-08
7.21394e-10
4.09636e-08
7.13049e-10
4.08442e-08
7.04703e-10
4.07249e-08
6.96349e-10
4.06058e-08
6.87978e-10
4.04869e-08
6.79584e-10
4.03684e-08
6.71161e-10
4.02502e-08
6.62702e-10
4.01324e-08
6.54204e-10
4.00151e-08
6.45668e-10
3.98983e-08
6.37099e-10
3.9782e-08
6.28515e-10
3.96664e-08
6.19966e-10
3.95516e-08
6.11577e-10
3.94376e-08
6.03653e-10
3.93255e-08
5.96834e-10
3.92189e-08
5.91235e-10
5.75329e-10
4.47577e-08
5.48534e-10
4.49559e-08
1.07267e-09
4.51922e-08
1.49884e-09
4.54357e-08
1.81732e-09
4.56781e-08
2.05316e-09
4.59153e-08
2.226e-09
4.61418e-08
2.34356e-09
4.63533e-08
2.412e-09
4.65475e-08
2.43951e-09
4.67233e-08
2.43449e-09
4.68805e-08
2.40434e-09
4.70195e-08
2.35557e-09
4.71412e-08
2.29403e-09
4.7247e-08
2.22475e-09
4.73388e-08
2.15187e-09
4.74182e-08
2.07856e-09
4.74871e-08
2.00714e-09
4.7547e-08
1.93912e-09
4.75995e-08
1.87539e-09
4.76457e-08
1.81634e-09
4.76865e-08
1.76202e-09
4.77228e-08
1.71221e-09
4.77551e-08
1.66657e-09
4.77839e-08
1.62471e-09
4.78095e-08
1.58619e-09
4.7832e-08
1.55062e-09
4.78517e-08
1.51763e-09
4.78687e-08
1.48689e-09
4.78829e-08
1.45814e-09
4.78946e-08
1.43113e-09
4.79036e-08
1.40568e-09
4.791e-08
1.38161e-09
4.79139e-08
1.3588e-09
4.79152e-08
1.33712e-09
4.7914e-08
1.31647e-09
4.79103e-08
1.29679e-09
4.79041e-08
1.27797e-09
4.78954e-08
1.25998e-09
4.78843e-08
1.24273e-09
4.78707e-08
1.22619e-09
4.78547e-08
1.21031e-09
4.78363e-08
1.19503e-09
4.78155e-08
1.18033e-09
4.77924e-08
1.16615e-09
4.7767e-08
1.15248e-09
4.77393e-08
1.13926e-09
4.77093e-08
1.12649e-09
4.76771e-08
1.11412e-09
4.76426e-08
1.10213e-09
4.7606e-08
1.09049e-09
4.75673e-08
1.07919e-09
4.75264e-08
1.06821e-09
4.74835e-08
1.05751e-09
4.74385e-08
1.04709e-09
4.73916e-08
1.03693e-09
4.73426e-08
1.027e-09
4.72917e-08
1.0173e-09
4.7239e-08
1.00781e-09
4.71844e-08
9.98522e-10
4.71279e-08
9.89414e-10
4.70697e-08
9.80478e-10
4.70098e-08
9.71703e-10
4.69482e-08
9.63076e-10
4.68849e-08
9.54589e-10
4.68201e-08
9.4623e-10
4.67536e-08
9.3799e-10
4.66857e-08
9.2986e-10
4.66163e-08
9.21831e-10
4.65454e-08
9.13893e-10
4.64732e-08
9.06039e-10
4.63996e-08
8.98259e-10
4.63247e-08
8.90544e-10
4.62485e-08
8.82887e-10
4.61712e-08
8.75278e-10
4.60926e-08
8.6771e-10
4.6013e-08
8.60173e-10
4.59323e-08
8.52659e-10
4.58506e-08
8.45159e-10
4.57678e-08
8.37663e-10
4.56842e-08
8.30163e-10
4.55997e-08
8.2265e-10
4.55143e-08
8.15114e-10
4.54281e-08
8.07546e-10
4.53413e-08
7.99937e-10
4.52537e-08
7.92277e-10
4.51655e-08
7.84558e-10
4.50767e-08
7.76771e-10
4.49874e-08
7.68909e-10
4.48975e-08
7.60965e-10
4.48073e-08
7.52932e-10
4.47167e-08
7.44807e-10
4.46258e-08
7.3659e-10
4.45346e-08
7.28283e-10
4.44432e-08
7.19902e-10
4.43517e-08
7.11479e-10
4.42602e-08
7.03088e-10
4.4169e-08
6.94843e-10
4.40791e-08
6.8671e-10
4.39936e-08
6.76788e-10
6.51041e-10
4.63916e-08
4.62962e-10
4.65505e-08
9.13788e-10
4.67508e-08
1.29857e-09
4.69664e-08
1.60173e-09
4.71857e-08
1.83377e-09
4.74035e-08
2.0083e-09
4.76143e-08
2.13276e-09
4.78137e-08
2.2125e-09
4.79992e-08
2.25404e-09
4.81693e-08
2.26443e-09
4.83234e-08
2.25021e-09
4.84617e-08
2.21725e-09
4.8585e-08
2.1708e-09
4.86943e-08
2.11545e-09
4.87911e-08
2.05507e-09
4.88769e-08
1.9927e-09
4.89534e-08
1.93063e-09
4.90221e-08
1.87049e-09
4.90841e-08
1.81331e-09
4.91408e-08
1.75967e-09
4.9193e-08
1.70979e-09
4.92416e-08
1.66366e-09
4.9287e-08
1.6211e-09
4.93299e-08
1.58186e-09
4.93705e-08
1.54563e-09
4.9409e-08
1.51209e-09
4.94457e-08
1.48096e-09
4.94806e-08
1.45197e-09
4.95138e-08
1.42488e-09
4.95455e-08
1.39949e-09
4.95755e-08
1.37561e-09
4.96041e-08
1.35311e-09
4.9631e-08
1.33184e-09
4.96564e-08
1.31172e-09
4.96803e-08
1.29263e-09
4.97025e-08
1.2745e-09
4.97233e-08
1.25725e-09
4.97424e-08
1.24083e-09
4.976e-08
1.22517e-09
4.9776e-08
1.21022e-09
4.97903e-08
1.19594e-09
4.98031e-08
1.18228e-09
4.98142e-08
1.1692e-09
4.98237e-08
1.15666e-09
4.98316e-08
1.14462e-09
4.98378e-08
1.13306e-09
4.98423e-08
1.12194e-09
4.98452e-08
1.11123e-09
4.98464e-08
1.10091e-09
4.9846e-08
1.09095e-09
4.98438e-08
1.08132e-09
4.984e-08
1.07201e-09
4.98345e-08
1.06299e-09
4.98274e-08
1.05425e-09
4.98186e-08
1.04576e-09
4.98081e-08
1.0375e-09
4.97959e-08
1.02947e-09
4.97821e-08
1.02164e-09
4.97666e-08
1.01401e-09
4.97494e-08
1.00655e-09
4.97307e-08
9.99247e-10
4.97103e-08
9.92098e-10
4.96883e-08
9.85088e-10
4.96647e-08
9.78204e-10
4.96395e-08
9.71435e-10
4.96127e-08
9.6477e-10
4.95843e-08
9.582e-10
4.95544e-08
9.51713e-10
4.9523e-08
9.453e-10
4.94901e-08
9.38951e-10
4.94557e-08
9.32657e-10
4.94199e-08
9.26408e-10
4.93826e-08
9.20194e-10
4.93438e-08
9.14007e-10
4.93037e-08
9.07836e-10
4.92622e-08
9.01671e-10
4.92194e-08
8.95504e-10
4.91752e-08
8.89324e-10
4.91297e-08
8.83121e-10
4.9083e-08
8.76885e-10
4.90351e-08
8.70607e-10
4.89859e-08
8.64275e-10
4.89356e-08
8.57879e-10
4.88841e-08
8.51409e-10
4.88315e-08
8.44856e-10
4.87779e-08
8.38208e-10
4.87232e-08
8.31458e-10
4.86675e-08
8.24595e-10
4.86108e-08
8.17613e-10
4.85533e-08
8.10505e-10
4.84948e-08
8.03265e-10
4.84355e-08
7.95892e-10
4.83754e-08
7.88386e-10
4.83146e-08
7.80755e-10
4.8253e-08
7.73011e-10
4.8191e-08
7.65163e-10
4.81287e-08
7.57141e-10
4.8067e-08
7.4839e-10
4.80078e-08
7.35979e-10
7.06606e-10
4.80946e-08
3.94902e-10
4.82239e-08
7.84475e-10
4.83937e-08
1.12876e-09
4.85836e-08
1.41184e-09
4.87815e-08
1.63588e-09
4.89808e-08
1.80898e-09
4.91764e-08
1.93719e-09
4.93638e-08
2.02506e-09
4.95401e-08
2.07774e-09
4.97035e-08
2.10101e-09
4.98532e-08
2.10052e-09
4.99891e-08
2.08142e-09
5.01114e-08
2.04843e-09
5.02212e-08
2.00567e-09
5.03196e-08
1.95672e-09
5.04078e-08
1.90446e-09
5.04873e-08
1.85113e-09
5.05594e-08
1.79839e-09
5.06253e-08
1.74739e-09
5.06862e-08
1.69884e-09
5.07428e-08
1.65313e-09
5.07961e-08
1.6104e-09
5.08466e-08
1.57062e-09
5.08948e-08
1.53367e-09
5.0941e-08
1.49935e-09
5.09857e-08
1.46744e-09
5.10289e-08
1.43773e-09
5.10709e-08
1.40999e-09
5.11117e-08
1.38404e-09
5.11515e-08
1.3597e-09
5.11903e-08
1.33683e-09
5.12281e-08
1.31528e-09
5.1265e-08
1.29494e-09
5.1301e-08
1.27573e-09
5.13361e-08
1.25754e-09
5.13703e-08
1.2403e-09
5.14036e-08
1.22395e-09
5.1436e-08
1.20843e-09
5.14675e-08
1.19367e-09
5.14981e-08
1.17964e-09
5.15278e-08
1.16628e-09
5.15565e-08
1.15355e-09
5.15843e-08
1.14142e-09
5.16111e-08
1.12984e-09
5.16369e-08
1.11878e-09
5.16618e-08
1.10821e-09
5.16856e-08
1.0981e-09
5.17084e-08
1.08841e-09
5.17302e-08
1.07913e-09
5.17509e-08
1.07022e-09
5.17706e-08
1.06167e-09
5.17891e-08
1.05344e-09
5.18066e-08
1.04552e-09
5.1823e-08
1.03789e-09
5.18382e-08
1.03053e-09
5.18523e-08
1.02342e-09
5.18652e-08
1.01654e-09
5.1877e-08
1.00988e-09
5.18875e-08
1.00342e-09
5.18969e-08
9.97152e-10
5.19051e-08
9.91052e-10
5.19121e-08
9.8511e-10
5.19179e-08
9.79315e-10
5.19224e-08
9.73654e-10
5.19258e-08
9.68114e-10
5.19279e-08
9.62683e-10
5.19287e-08
9.57352e-10
5.19283e-08
9.52108e-10
5.19267e-08
9.4694e-10
5.19238e-08
9.41839e-10
5.19196e-08
9.36793e-10
5.19143e-08
9.31792e-10
5.19076e-08
9.26826e-10
5.18997e-08
9.21883e-10
5.18906e-08
9.16955e-10
5.18803e-08
9.12029e-10
5.18687e-08
9.07095e-10
5.18559e-08
9.02144e-10
5.18418e-08
8.97162e-10
5.18266e-08
8.9214e-10
5.18101e-08
8.87066e-10
5.17925e-08
8.81929e-10
5.17736e-08
8.76718e-10
5.17536e-08
8.71422e-10
5.17324e-08
8.66028e-10
5.17101e-08
8.60527e-10
5.16867e-08
8.54909e-10
5.16621e-08
8.49164e-10
5.16364e-08
8.43282e-10
5.16097e-08
8.37257e-10
5.15818e-08
8.31083e-10
5.1553e-08
8.24756e-10
5.15231e-08
8.18272e-10
5.14922e-08
8.11632e-10
5.14604e-08
8.04825e-10
5.14278e-08
7.97805e-10
5.13945e-08
7.90362e-10
5.13613e-08
7.81662e-10
5.13286e-08
7.6864e-10
7.40819e-10
4.98663e-08
3.39593e-10
4.9973e-08
6.77725e-10
5.01175e-08
9.8429e-10
5.02842e-08
1.24508e-09
5.04621e-08
1.458e-09
5.06441e-08
1.62697e-09
5.08251e-08
1.75622e-09
5.10007e-08
1.84942e-09
5.11679e-08
1.9106e-09
5.13245e-08
1.94439e-09
5.14695e-08
1.95554e-09
5.16024e-08
1.94853e-09
5.17233e-08
1.92748e-09
5.18329e-08
1.89612e-09
5.19319e-08
1.85767e-09
5.20216e-08
1.81484e-09
5.21029e-08
1.76979e-09
5.21771e-08
1.72416e-09
5.22454e-08
1.67917e-09
5.23086e-08
1.63563e-09
5.23677e-08
1.59405e-09
5.24233e-08
1.55471e-09
5.24763e-08
1.51771e-09
5.25269e-08
1.48303e-09
5.25757e-08
1.45058e-09
5.26229e-08
1.42024e-09
5.26688e-08
1.39184e-09
5.27135e-08
1.36522e-09
5.27573e-08
1.34025e-09
5.28002e-08
1.31678e-09
5.28424e-08
1.29468e-09
5.28838e-08
1.27384e-09
5.29246e-08
1.25417e-09
5.29647e-08
1.23557e-09
5.30043e-08
1.21798e-09
5.30433e-08
1.20131e-09
5.30817e-08
1.18551e-09
5.31196e-08
1.17053e-09
5.3157e-08
1.15631e-09
5.31938e-08
1.1428e-09
5.32302e-08
1.12996e-09
5.3266e-08
1.11776e-09
5.33012e-08
1.10615e-09
5.33359e-08
1.09511e-09
5.33701e-08
1.08459e-09
5.34038e-08
1.07456e-09
5.34369e-08
1.065e-09
5.34694e-08
1.05588e-09
5.35014e-08
1.04718e-09
5.35327e-08
1.03886e-09
5.35635e-08
1.0309e-09
5.35936e-08
1.02329e-09
5.36232e-08
1.016e-09
5.36521e-08
1.00901e-09
5.36803e-08
1.0023e-09
5.37079e-08
9.95856e-10
5.37347e-08
9.89661e-10
5.37609e-08
9.83696e-10
5.37864e-08
9.77946e-10
5.38112e-08
9.72398e-10
5.38352e-08
9.67035e-10
5.38584e-08
9.61846e-10
5.38809e-08
9.56816e-10
5.39027e-08
9.51934e-10
5.39236e-08
9.47186e-10
5.39437e-08
9.42561e-10
5.3963e-08
9.38047e-10
5.39815e-08
9.33632e-10
5.39991e-08
9.29307e-10
5.40159e-08
9.25058e-10
5.40318e-08
9.20877e-10
5.40469e-08
9.16751e-10
5.4061e-08
9.1267e-10
5.40743e-08
9.08622e-10
5.40866e-08
9.04598e-10
5.40981e-08
9.00585e-10
5.41086e-08
8.96573e-10
5.41182e-08
8.92549e-10
5.41268e-08
8.88504e-10
5.41346e-08
8.84425e-10
5.41413e-08
8.803e-10
5.41471e-08
8.76117e-10
5.4152e-08
8.71865e-10
5.41559e-08
8.67532e-10
5.41588e-08
8.63107e-10
5.41608e-08
8.58577e-10
5.41617e-08
8.53933e-10
5.41617e-08
8.49164e-10
5.41608e-08
8.44262e-10
5.41588e-08
8.39217e-10
5.41559e-08
8.34025e-10
5.41519e-08
8.28679e-10
5.4147e-08
8.23174e-10
5.41412e-08
8.17501e-10
5.41343e-08
8.11634e-10
5.41267e-08
8.05488e-10
5.41182e-08
7.98779e-10
5.41093e-08
7.90628e-10
5.40995e-08
7.78453e-10
7.55407e-10
5.17074e-08
2.93866e-10
5.17967e-08
5.88483e-10
5.19202e-08
8.60788e-10
5.20664e-08
1.0988e-09
5.22259e-08
1.29857e-09
5.23917e-08
1.46118e-09
5.25587e-08
1.58918e-09
5.27228e-08
1.68527e-09
5.28809e-08
1.75254e-09
5.30307e-08
1.79464e-09
5.31707e-08
1.81545e-09
5.33005e-08
1.81878e-09
5.34197e-08
1.80823e-09
5.35288e-08
1.78706e-09
5.36283e-08
1.7582e-09
5.3719e-08
1.72411e-09
5.38019e-08
1.68686e-09
5.3878e-08
1.64805e-09
5.39483e-08
1.60891e-09
5.40136e-08
1.57032e-09
5.40748e-08
1.5329e-09
5.41324e-08
1.49701e-09
5.41873e-08
1.46287e-09
5.42398e-08
1.43056e-09
5.42903e-08
1.40007e-09
5.43392e-08
1.37135e-09
5.43867e-08
1.34431e-09
5.4433e-08
1.31886e-09
5.44784e-08
1.29488e-09
5.45229e-08
1.27226e-09
5.45667e-08
1.25092e-09
5.46098e-08
1.23075e-09
5.46523e-08
1.21168e-09
5.46942e-08
1.19363e-09
5.47357e-08
1.17653e-09
5.47767e-08
1.16032e-09
5.48172e-08
1.14496e-09
5.48574e-08
1.13038e-09
5.48971e-08
1.11654e-09
5.49365e-08
1.1034e-09
5.49756e-08
1.09092e-09
5.50143e-08
1.07906e-09
5.50527e-08
1.06779e-09
5.50907e-08
1.05707e-09
5.51284e-08
1.04687e-09
5.51658e-08
1.03717e-09
5.52029e-08
1.02793e-09
5.52396e-08
1.01913e-09
5.52761e-08
1.01075e-09
5.53122e-08
1.00275e-09
5.53479e-08
9.95129e-10
5.53834e-08
9.87851e-10
5.54185e-08
9.80899e-10
5.54532e-08
9.74255e-10
5.54876e-08
9.67899e-10
5.55217e-08
9.61816e-10
5.55553e-08
9.55988e-10
5.55886e-08
9.504e-10
5.56215e-08
9.45036e-10
5.56541e-08
9.39882e-10
5.56862e-08
9.34924e-10
5.57179e-08
9.30149e-10
5.57491e-08
9.25544e-10
5.578e-08
9.21096e-10
5.58104e-08
9.16794e-10
5.58403e-08
9.12625e-10
5.58698e-08
9.08579e-10
5.58988e-08
9.04644e-10
5.59273e-08
9.00809e-10
5.59553e-08
8.97063e-10
5.59827e-08
8.93396e-10
5.60097e-08
8.89795e-10
5.60361e-08
8.86252e-10
5.6062e-08
8.82754e-10
5.60873e-08
8.79291e-10
5.6112e-08
8.75852e-10
5.61362e-08
8.72425e-10
5.61597e-08
8.69e-10
5.61826e-08
8.65564e-10
5.6205e-08
8.62107e-10
5.62267e-08
8.58616e-10
5.62477e-08
8.5508e-10
5.62681e-08
8.51487e-10
5.62878e-08
8.47825e-10
5.63068e-08
8.44083e-10
5.63251e-08
8.4025e-10
5.63427e-08
8.36314e-10
5.63596e-08
8.32268e-10
5.63758e-08
8.281e-10
5.63912e-08
8.23805e-10
5.64059e-08
8.19375e-10
5.64197e-08
8.14804e-10
5.64328e-08
8.10086e-10
5.64451e-08
8.05206e-10
5.64566e-08
8.00129e-10
5.64674e-08
7.94752e-10
5.64774e-08
7.88786e-10
5.64865e-08
7.81472e-10
5.6494e-08
7.71002e-10
7.53921e-10
5.36195e-08
2.55524e-10
5.3695e-08
5.1305e-10
5.38011e-08
7.54628e-10
5.39295e-08
9.70427e-10
5.40721e-08
1.15593e-09
5.42228e-08
1.31053e-09
5.43766e-08
1.43538e-09
5.45296e-08
1.53227e-09
5.46787e-08
1.60349e-09
5.48215e-08
1.65184e-09
5.49565e-08
1.68043e-09
5.50828e-08
1.69244e-09
5.52001e-08
1.69094e-09
5.53084e-08
1.67877e-09
5.54081e-08
1.65853e-09
5.54997e-08
1.63247e-09
5.55841e-08
1.60249e-09
5.5662e-08
1.57015e-09
5.57342e-08
1.53666e-09
5.58016e-08
1.50294e-09
5.58649e-08
1.46965e-09
5.59246e-08
1.43726e-09
5.59814e-08
1.40606e-09
5.60358e-08
1.3762e-09
5.60881e-08
1.34777e-09
5.61387e-08
1.32079e-09
5.61878e-08
1.29521e-09
5.62356e-08
1.271e-09
5.62824e-08
1.24808e-09
5.63283e-08
1.22639e-09
5.63734e-08
1.20584e-09