/*--------------------------------*- C++ -*----------------------------------*\
| =========                 |                                                 |
| \\      /  F ield         | OpenFOAM: The Open Source CFD Toolbox           |
|  \\    /   O peration     | Version:  2.3.0                                 |
|   \\  /    A nd           | Web:      www.OpenFOAM.org                      |
|    \\/     M anipulation  |                                                 |
\*---------------------------------------------------------------------------*/
FoamFile
{
    version     2.0;
    format      ascii;
    class       volScalarField;
    location    "0.45";
    object      p;
}
// * * * * * * * * * * * * * * * * * * * * * * * * * * * * * * * * * * * * * //

dimensions      [0 2 -2 0 0 0 0];

internalField   nonuniform List<scalar> 
1500
(
0.00194265
0.00137722
0.000922211
0.000601029
0.000340708
0.000110984
-8.8014e-05
-0.000251676
-0.000378569
-0.00046998
-0.00052899
-0.00056007
-0.000568592
-0.00056018
-0.000540094
-0.000512806
-0.000481811
-0.00044963
-0.00041793
-0.000387706
-0.000359461
-0.000333374
-0.000309425
-0.000287488
-0.00026739
-0.000248949
-0.000231996
-0.000216378
-0.000201968
-0.000188654
-0.000176346
-0.000164964
-0.000154441
-0.000144715
-0.000135734
-0.000127447
-0.000119809
-0.000112776
-0.000106307
-0.000100365
-9.49123e-05
-8.9916e-05
-8.53436e-05
-8.11651e-05
-7.73524e-05
-7.38791e-05
-7.07208e-05
-6.78547e-05
-6.52596e-05
-6.29159e-05
-6.08054e-05
-5.89111e-05
-5.7217e-05
-5.57084e-05
-5.43714e-05
-5.31927e-05
-5.21598e-05
-5.12608e-05
-5.0484e-05
-4.98182e-05
-4.92524e-05
-4.87756e-05
-4.83769e-05
-4.80453e-05
-4.77697e-05
-4.75389e-05
-4.73412e-05
-4.71649e-05
-4.69977e-05
-4.68271e-05
-4.66405e-05
-4.64248e-05
-4.61669e-05
-4.58534e-05
-4.54714e-05
-4.50076e-05
-4.44491e-05
-4.37827e-05
-4.29945e-05
-4.20691e-05
-4.09894e-05
-3.97355e-05
-3.82854e-05
-3.66171e-05
-3.47127e-05
-3.25633e-05
-3.01765e-05
-2.75748e-05
-2.48275e-05
-2.20047e-05
-1.91826e-05
-1.64432e-05
-1.3852e-05
-1.14296e-05
-9.20128e-06
-7.19326e-06
-5.39746e-06
-3.77445e-06
-2.26585e-06
-7.96103e-07
0.00165074
0.00126048
0.000895492
0.000608626
0.000363985
0.000142528
-5.26334e-05
-0.0002152
-0.000342638
-0.000435631
-0.0004969
-0.000530645
-0.000542021
-0.000536484
-0.000519166
-0.000494454
-0.000465792
-0.000435679
-0.000405778
-0.000377097
-0.000350164
-0.000325185
-0.000302169
-0.000281019
-0.000261586
-0.000243712
-0.000227243
-0.000212044
-0.000197996
-0.000185
-0.00017297
-0.000161834
-0.000151529
-0.000141999
-0.000133192
-0.000125063
-0.000117567
-0.000110662
-0.000104311
-9.84761e-05
-9.31224e-05
-8.82171e-05
-8.37288e-05
-7.96285e-05
-7.58885e-05
-7.24832e-05
-6.93886e-05
-6.65825e-05
-6.40441e-05
-6.1754e-05
-5.96944e-05
-5.78485e-05
-5.62006e-05
-5.47363e-05
-5.34417e-05
-5.23038e-05
-5.13103e-05
-5.04494e-05
-4.97095e-05
-4.90795e-05
-4.85486e-05
-4.81058e-05
-4.77403e-05
-4.74412e-05
-4.71974e-05
-4.69978e-05
-4.68308e-05
-4.66847e-05
-4.65472e-05
-4.64059e-05
-4.62481e-05
-4.60608e-05
-4.58307e-05
-4.55446e-05
-4.51895e-05
-4.4752e-05
-4.42193e-05
-4.35782e-05
-4.28147e-05
-4.19138e-05
-4.08583e-05
-3.96285e-05
-3.82026e-05
-3.65583e-05
-3.46762e-05
-3.25463e-05
-3.01735e-05
-2.75961e-05
-2.48617e-05
-2.20428e-05
-1.92197e-05
-1.64776e-05
-1.38848e-05
-1.14595e-05
-9.22735e-06
-7.21633e-06
-5.41833e-06
-3.79345e-06
-2.28296e-06
-8.15091e-07
0.00142532
0.00115044
0.000851552
0.000592855
0.000366657
0.00016151
-2.07402e-05
-0.000174741
-0.000297791
-0.000390006
-0.000453351
-0.00049114
-0.000507636
-0.000507522
-0.00049536
-0.000475178
-0.000450261
-0.000423093
-0.000395423
-0.000368385
-0.000342645
-0.000318534
-0.000296162
-0.000275508
-0.000256477
-0.000238944
-0.000222779
-0.000207858
-0.00019407
-0.000181318
-0.00016952
-0.000158602
-0.000148502
-0.000139164
-0.000130537
-0.000122574
-0.000115231
-0.00010847
-0.00010225
-9.65362e-05
-9.12943e-05
-8.64918e-05
-8.20985e-05
-7.80856e-05
-7.44265e-05
-7.10961e-05
-6.80709e-05
-6.53293e-05
-6.28509e-05
-6.0617e-05
-5.86099e-05
-5.68134e-05
-5.52121e-05
-5.37918e-05
-5.2539e-05
-5.14409e-05
-5.04854e-05
-4.96609e-05
-4.8956e-05
-4.83598e-05
-4.78616e-05
-4.74505e-05
-4.71159e-05
-4.6847e-05
-4.66328e-05
-4.64621e-05
-4.63236e-05
-4.62054e-05
-4.60955e-05
-4.59815e-05
-4.58505e-05
-4.56898e-05
-4.54859e-05
-4.52257e-05
-4.48961e-05
-4.44838e-05
-4.3976e-05
-4.33594e-05
-4.26202e-05
-4.17434e-05
-4.07118e-05
-3.95057e-05
-3.8103e-05
-3.6481e-05
-3.46199e-05
-3.25081e-05
-3.01473e-05
-2.75631e-05
-2.48236e-05
-2.2025e-05
-1.92194e-05
-1.64861e-05
-1.38997e-05
-1.14756e-05
-9.24203e-06
-7.23232e-06
-5.43823e-06
-3.81951e-06
-2.31895e-06
-8.76764e-07
0.00122173
0.00102238
0.000782527
0.000558741
0.000358097
0.000175348
1.14374e-05
-0.000129354
-0.000244211
-0.000332646
-0.000395859
-0.000436277
-0.000457226
-0.000462525
-0.000456037
-0.000441303
-0.000421314
-0.000398424
-0.000374361
-0.000350311
-0.00032702
-0.00030491
-0.000284179
-0.00026488
-0.00024698
-0.000230403
-0.000215055
-0.000200841
-0.000187671
-0.000175463
-0.000164146
-0.000153657
-0.000143939
-0.000134943
-0.000126622
-0.000118935
-0.000111841
-0.000105303
-9.92857e-05
-9.37557e-05
-8.86806e-05
-8.40302e-05
-7.97757e-05
-7.589e-05
-7.23476e-05
-6.91245e-05
-6.61985e-05
-6.35485e-05
-6.1155e-05
-5.9e-05
-5.70665e-05
-5.53385e-05
-5.38015e-05
-5.24414e-05
-5.12453e-05
-5.02007e-05
-4.92957e-05
-4.85191e-05
-4.78599e-05
-4.73074e-05
-4.68509e-05
-4.64799e-05
-4.61841e-05
-4.59526e-05
-4.57749e-05
-4.56398e-05
-4.5536e-05
-4.5452e-05
-4.53757e-05
-4.52949e-05
-4.51968e-05
-4.50687e-05
-4.48972e-05
-4.46693e-05
-4.43718e-05
-4.39917e-05
-4.3516e-05
-4.29316e-05
-4.22245e-05
-4.13798e-05
-4.03801e-05
-3.92054e-05
-3.78334e-05
-3.62408e-05
-3.44074e-05
-3.23216e-05
-2.99879e-05
-2.74357e-05
-2.47178e-05
-2.1901e-05
-1.90918e-05
-1.63928e-05
-1.38493e-05
-1.14601e-05
-9.24945e-06
-7.25829e-06
-5.4814e-06
-3.88343e-06
-2.42201e-06
-1.08065e-06
0.00103349
0.000888172
0.000702519
0.000516945
0.000344155
0.000184577
3.98126e-05
-8.64791e-05
-0.000191486
-0.000274289
-0.000335516
-0.000376903
-0.000400991
-0.000410806
-0.00040951
-0.000400093
-0.000385165
-0.000366851
-0.00034678
-0.000326125
-0.000305678
-0.000285935
-0.000267175
-0.00024953
-0.000233036
-0.00021767
-0.000203383
-0.00019011
-0.000177785
-0.000166341
-0.00015572
-0.000145866
-0.00013673
-0.000128265
-0.000120431
-0.000113188
-0.000106499
-0.000100331
-9.46507e-05
-8.94269e-05
-8.46303e-05
-8.0233e-05
-7.62084e-05
-7.25315e-05
-6.91789e-05
-6.61283e-05
-6.33591e-05
-6.08519e-05
-5.85886e-05
-5.65523e-05
-5.47272e-05
-5.30985e-05
-5.16524e-05
-5.03758e-05
-4.92565e-05
-4.82828e-05
-4.74436e-05
-4.6728e-05
-4.61256e-05
-4.56263e-05
-4.52198e-05
-4.48962e-05
-4.46454e-05
-4.4457e-05
-4.43206e-05
-4.42256e-05
-4.4161e-05
-4.41153e-05
-4.40771e-05
-4.4034e-05
-4.39738e-05
-4.38838e-05
-4.3751e-05
-4.35625e-05
-4.33052e-05
-4.29663e-05
-4.25328e-05
-4.19917e-05
-4.1329e-05
-4.05295e-05
-3.95758e-05
-3.84478e-05
-3.71231e-05
-3.55787e-05
-3.37947e-05
-3.17605e-05
-2.94821e-05
-2.69893e-05
-2.4337e-05
-2.16002e-05
-1.88725e-05
-1.62234e-05
-1.3683e-05
-1.13059e-05
-9.14434e-06
-7.20842e-06
-5.48606e-06
-3.9527e-06
-2.60231e-06
-1.54929e-06
0.000865808
0.000758757
0.000617539
0.000467727
0.000322366
0.000185667
6.02879e-05
-5.05722e-05
-0.000144338
-0.000219875
-0.000277377
-0.000318014
-0.000343661
-0.000356643
-0.00035947
-0.000354588
-0.000344204
-0.000330177
-0.000313989
-0.000296756
-0.000279274
-0.000262079
-0.000245509
-0.000229752
-0.000214901
-0.000200981
-0.00018798
-0.000175861
-0.00016458
-0.000154089
-0.000144338
-0.000135284
-0.000126882
-0.000119092
-0.000111878
-0.000105205
-9.90395e-05
-9.3351e-05
-8.811e-05
-8.32886e-05
-7.88601e-05
-7.47994e-05
-7.10823e-05
-6.76863e-05
-6.45901e-05
-6.17736e-05
-5.92178e-05
-5.69051e-05
-5.48191e-05
-5.29442e-05
-5.12661e-05
-4.97711e-05
-4.84466e-05
-4.72806e-05
-4.62618e-05
-4.53795e-05
-4.46233e-05
-4.39834e-05
-4.34499e-05
-4.30135e-05
-4.26647e-05
-4.23942e-05
-4.21924e-05
-4.20497e-05
-4.19563e-05
-4.19021e-05
-4.18766e-05
-4.18691e-05
-4.18685e-05
-4.18631e-05
-4.18412e-05
-4.17905e-05
-4.16986e-05
-4.1553e-05
-4.13411e-05
-4.10503e-05
-4.0668e-05
-4.01813e-05
-3.95763e-05
-3.88378e-05
-3.79486e-05
-3.6889e-05
-3.56375e-05
-3.41723e-05
-3.24754e-05
-3.0538e-05
-2.83677e-05
-2.59939e-05
-2.34696e-05
-2.08653e-05
-1.82626e-05
-1.57293e-05
-1.33104e-05
-1.10518e-05
-8.98733e-06
-7.12738e-06
-5.46786e-06
-3.99923e-06
-2.75745e-06
-2.0428e-06
0.00071576
0.000635598
0.000528996
0.000410988
0.000292214
0.000178259
7.24577e-05
-2.23283e-05
-0.000103831
-0.000170829
-0.000223173
-0.000261554
-0.000287283
-0.000302081
-0.000307878
-0.000306616
-0.000300106
-0.000289923
-0.000277367
-0.000263456
-0.000248951
-0.000234392
-0.000220141
-0.000206427
-0.000193382
-0.000181069
-0.000169507
-0.000158689
-0.000148592
-0.000139182
-0.000130425
-0.000122285
-0.000114726
-0.000107715
-0.00010122
-9.52091e-05
-8.96547e-05
-8.45289e-05
-7.98055e-05
-7.54596e-05
-7.14676e-05
-6.78068e-05
-6.4456e-05
-6.13949e-05
-5.86045e-05
-5.60669e-05
-5.37652e-05
-5.16836e-05
-4.98074e-05
-4.81227e-05
-4.66167e-05
-4.5277e-05
-4.40925e-05
-4.30524e-05
-4.21464e-05
-4.1365e-05
-4.06989e-05
-4.01391e-05
-3.96769e-05
-3.93036e-05
-3.90109e-05
-3.87901e-05
-3.86326e-05
-3.85296e-05
-3.84722e-05
-3.84511e-05
-3.84567e-05
-3.8479e-05
-3.85078e-05
-3.85324e-05
-3.85418e-05
-3.85247e-05
-3.84694e-05
-3.83643e-05
-3.81975e-05
-3.79572e-05
-3.76313e-05
-3.72072e-05
-3.66717e-05
-3.60101e-05
-3.5206e-05
-3.42409e-05
-3.30951e-05
-3.17494e-05
-3.01885e-05
-2.84063e-05
-2.64113e-05
-2.42313e-05
-2.19142e-05
-1.95231e-05
-1.71285e-05
-1.47919e-05
-1.25571e-05
-1.04639e-05
-8.54452e-06
-6.81456e-06
-5.2759e-06
-3.93178e-06
-2.84164e-06
-2.31236e-06
0.00057955
0.000519215
0.000439603
0.000349101
0.000255231
0.000163276
7.67025e-05
-1.89413e-06
-7.05373e-05
-0.000128026
-0.000173982
-0.000208732
-0.00023313
-0.000248397
-0.000255962
-0.000257319
-0.000253898
-0.000246988
-0.000237684
-0.000226876
-0.000215251
-0.000203323
-0.000191452
-0.000179883
-0.00016877
-0.000158204
-0.000148227
-0.000138854
-0.000130079
-0.000121885
-0.000114248
-0.000107142
-0.000100539
-9.44107e-05
-8.87314e-05
-8.34747e-05
-7.86158e-05
-7.4131e-05
-6.99976e-05
-6.6194e-05
-6.26998e-05
-5.94953e-05
-5.6562e-05
-5.38825e-05
-5.144e-05
-4.92192e-05
-4.72053e-05
-4.53845e-05
-4.37441e-05
-4.2272e-05
-4.09569e-05
-3.97883e-05
-3.87562e-05
-3.78512e-05
-3.70646e-05
-3.63877e-05
-3.58127e-05
-3.53315e-05
-3.49366e-05
-3.46204e-05
-3.43755e-05
-3.41945e-05
-3.40696e-05
-3.39932e-05
-3.39575e-05
-3.39541e-05
-3.39747e-05
-3.40104e-05
-3.40521e-05
-3.40904e-05
-3.41155e-05
-3.41172e-05
-3.40853e-05
-3.40093e-05
-3.38784e-05
-3.3682e-05
-3.34089e-05
-3.30477e-05
-3.2586e-05
-3.20106e-05
-3.13065e-05
-3.04574e-05
-2.94464e-05
-2.82576e-05
-2.6879e-05
-2.53068e-05
-2.35501e-05
-2.16334e-05
-1.95976e-05
-1.74961e-05
-1.53874e-05
-1.3324e-05
-1.13472e-05
-9.4926e-06
-7.78821e-06
-6.24855e-06
-4.87833e-06
-3.68642e-06
-2.72504e-06
-2.17157e-06
0.000460248
0.000414609
0.00035528
0.000286941
0.000214545
0.000142342
7.34491e-05
1.01491e-05
-4.58714e-05
-9.35226e-05
-0.000132336
-0.0001624
-0.000184239
-0.000198693
-0.000206792
-0.000209649
-0.000208365
-0.000203956
-0.000197312
-0.000189177
-0.000180144
-0.000170667
-0.000161083
-0.000151628
-0.00014246
-0.000133681
-0.000125347
-0.000117485
-0.000110102
-0.000103193
-9.67436e-05
-9.07356e-05
-8.51484e-05
-7.99604e-05
-7.51502e-05
-7.06964e-05
-6.65787e-05
-6.27773e-05
-5.92731e-05
-5.60481e-05
-5.3085e-05
-5.03674e-05
-4.78796e-05
-4.5607e-05
-4.35354e-05
-4.16519e-05
-3.99439e-05
-3.84e-05
-3.70093e-05
-3.57616e-05
-3.46473e-05
-3.36575e-05
-3.27837e-05
-3.20182e-05
-3.13533e-05
-3.07819e-05
-3.02972e-05
-2.98924e-05
-2.95612e-05
-2.92971e-05
-2.90939e-05
-2.89452e-05
-2.88446e-05
-2.87855e-05
-2.87612e-05
-2.87647e-05
-2.8789e-05
-2.88265e-05
-2.88694e-05
-2.89097e-05
-2.89391e-05
-2.8949e-05
-2.89305e-05
-2.88746e-05
-2.87722e-05
-2.86139e-05
-2.83901e-05
-2.80908e-05
-2.77051e-05
-2.72216e-05
-2.66275e-05
-2.59092e-05
-2.50528e-05
-2.40459e-05
-2.28794e-05
-2.15516e-05
-2.00706e-05
-1.84574e-05
-1.67451e-05
-1.49768e-05
-1.31995e-05
-1.14565e-05
-9.78363e-06
-8.21075e-06
-6.76093e-06
-5.44759e-06
-4.27685e-06
-3.25562e-06
-2.40708e-06
-1.76547e-06
0.000344181
0.000311338
0.000269348
0.000220668
0.00016828
0.000115201
6.38879e-05
1.61814e-05
-2.65716e-05
-6.34667e-05
-9.40393e-05
-0.000118232
-0.00013632
-0.00014883
-0.00015645
-0.000159951
-0.00016012
-0.000157705
-0.000153378
-0.000147715
-0.000141188
-0.000134173
-0.000126953
-0.000119736
-0.00011267
-0.00010585
-9.9338e-05
-9.31676e-05
-8.73542e-05
-8.19002e-05
-7.68e-05
-7.20428e-05
-6.76147e-05
-6.35003e-05
-5.96838e-05
-5.61489e-05
-5.288e-05
-4.98614e-05
-4.70786e-05
-4.4517e-05
-4.21633e-05
-4.00043e-05
-3.80277e-05
-3.62219e-05
-3.45758e-05
-3.30789e-05
-3.17216e-05
-3.04945e-05
-2.93892e-05
-2.83973e-05
-2.75115e-05
-2.67246e-05
-2.60299e-05
-2.54211e-05
-2.48922e-05
-2.44376e-05
-2.40517e-05
-2.37294e-05
-2.34654e-05
-2.32547e-05
-2.30923e-05
-2.29731e-05
-2.28921e-05
-2.2844e-05
-2.28235e-05
-2.28252e-05
-2.28433e-05
-2.28719e-05
-2.29049e-05
-2.29359e-05
-2.29584e-05
-2.29654e-05
-2.295e-05
-2.2905e-05
-2.28232e-05
-2.26969e-05
-2.25186e-05
-2.228e-05
-2.19725e-05
-2.1587e-05
-2.11133e-05
-2.05411e-05
-1.98598e-05
-1.90605e-05
-1.81371e-05
-1.7089e-05
-1.59233e-05
-1.46561e-05
-1.33128e-05
-1.19255e-05
-1.05295e-05
-9.15799e-06
-7.83933e-06
-6.59685e-06
-5.44858e-06
-4.40555e-06
-3.47245e-06
-2.64951e-06
-1.93037e-06
-1.25833e-06
0.00021708
0.000196896
0.000171498
0.000142016
0.00010998
7.71412e-05
4.50507e-05
1.49133e-05
-1.23829e-05
-3.62262e-05
-5.62688e-05
-7.24095e-05
-8.47584e-05
-9.35879e-05
-9.92818e-05
-0.000102288
-0.000103077
-0.000102107
-9.97987e-05
-9.65235e-05
-9.25924e-05
-8.82576e-05
-8.37162e-05
-7.91168e-05
-7.4567e-05
-7.01416e-05
-6.589e-05
-6.18424e-05
-5.8015e-05
-5.44141e-05
-5.10396e-05
-4.7887e-05
-4.49488e-05
-4.22162e-05
-3.96796e-05
-3.73288e-05
-3.51538e-05
-3.31447e-05
-3.12917e-05
-2.95855e-05
-2.80173e-05
-2.65785e-05
-2.52609e-05
-2.40569e-05
-2.29591e-05
-2.19606e-05
-2.1055e-05
-2.02361e-05
-1.94983e-05
-1.88362e-05
-1.82446e-05
-1.7719e-05
-1.72548e-05
-1.68478e-05
-1.64941e-05
-1.61899e-05
-1.59315e-05
-1.57154e-05
-1.55382e-05
-1.53965e-05
-1.5287e-05
-1.52063e-05
-1.5151e-05
-1.51177e-05
-1.51028e-05
-1.51027e-05
-1.51136e-05
-1.51316e-05
-1.51526e-05
-1.51724e-05
-1.51866e-05
-1.51907e-05
-1.51801e-05
-1.515e-05
-1.50956e-05
-1.50117e-05
-1.48932e-05
-1.47348e-05
-1.45305e-05
-1.42743e-05
-1.39597e-05
-1.35798e-05
-1.31283e-05
-1.25995e-05
-1.19903e-05
-1.13006e-05
-1.05354e-05
-9.70512e-06
-8.82587e-06
-7.91779e-06
-7.00297e-06
-6.10269e-06
-5.23548e-06
-4.41661e-06
-3.65771e-06
-2.96586e-06
-2.34294e-06
-1.78379e-06
-1.26755e-06
-7.21005e-07
7.55763e-05
6.85744e-05
5.98377e-05
4.97274e-05
3.87235e-05
2.73966e-05
1.62763e-05
5.78596e-06
-3.76036e-06
-1.21448e-05
-1.92392e-05
-2.49993e-05
-2.94533e-05
-3.26859e-05
-3.48219e-05
-3.60098e-05
-3.64074e-05
-3.6171e-05
-3.54457e-05
-3.4361e-05
-3.30269e-05
-3.15339e-05
-2.99536e-05
-2.83409e-05
-2.67364e-05
-2.51686e-05
-2.36571e-05
-2.22142e-05
-2.0847e-05
-1.95586e-05
-1.83499e-05
-1.72196e-05
-1.61656e-05
-1.51849e-05
-1.42743e-05
-1.34303e-05
-1.26493e-05
-1.19278e-05
-1.12623e-05
-1.06496e-05
-1.00865e-05
-9.56977e-06
-9.09664e-06
-8.66429e-06
-8.27012e-06
-7.91162e-06
-7.58649e-06
-7.29251e-06
-7.02762e-06
-6.7899e-06
-6.57753e-06
-6.3888e-06
-6.2221e-06
-6.07592e-06
-5.94883e-06
-5.83945e-06
-5.74646e-06
-5.66861e-06
-5.60466e-06
-5.55338e-06
-5.51357e-06
-5.48402e-06
-5.46351e-06
-5.4508e-06
-5.44462e-06
-5.44365e-06
-5.44653e-06
-5.45187e-06
-5.4582e-06
-5.46401e-06
-5.46773e-06
-5.46776e-06
-5.46243e-06
-5.45003e-06
-5.42881e-06
-5.39696e-06
-5.35261e-06
-5.29381e-06
-5.21847e-06
-5.12441e-06
-5.00933e-06
-4.87088e-06
-4.70687e-06
-4.51549e-06
-4.29572e-06
-4.04779e-06
-3.77355e-06
-3.47674e-06
-3.16295e-06
-2.83917e-06
-2.51301e-06
-2.19191e-06
-1.88238e-06
-1.58981e-06
-1.31824e-06
-1.06997e-06
-8.45096e-07
-6.40097e-07
-4.44147e-07
-2.29228e-07
1.36004e-05
1.4727e-05
1.73188e-05
2.13268e-05
2.68087e-05
3.39885e-05
4.31895e-05
5.47998e-05
6.92751e-05
8.71497e-05
0.000109045
0.000135682
0.000167892
0.000206642
0.000253071
0.000308546
0.000374767
0.000453931
0.000549042
0.000664477
0.000807127
0.000988913
0.00123313
0.00159812
0.00225879
1.34838e-05
1.45685e-05
1.7106e-05
2.10455e-05
2.64405e-05
3.35099e-05
4.25713e-05
5.40059e-05
6.82613e-05
8.58619e-05
0.000107418
0.000133633
0.000165322
0.000203425
0.000249046
0.0003035
0.000368402
0.000445816
0.0005385
0.000650358
0.000787253
0.000958512
0.00117936
0.0014714
0.00183672
1.32768e-05
1.43245e-05
1.67998e-05
2.06552e-05
2.59403e-05
3.28682e-05
4.17496e-05
5.29577e-05
6.69303e-05
8.41797e-05
0.000105301
0.000130981
0.000162008
0.00019929
0.000243881
0.000297024
0.000360217
0.000435321
0.000524732
0.000631648
0.000760432
0.000916884
0.00110709
0.00132814
0.00153022
1.29587e-05
1.3967e-05
1.63613e-05
2.0102e-05
2.5235e-05
3.19658e-05
4.05956e-05
5.14863e-05
6.5062e-05
8.18183e-05
0.00010233
0.000127256
0.000157351
0.000193475
0.000236615
0.000287909
0.000348691
0.000420546
0.000505381
0.000605486
0.000723434
0.000861362
0.00101801
0.001179
0.00129384
1.25015e-05
1.3463e-05
1.57528e-05
1.93404e-05
2.42688e-05
3.07335e-05
3.90231e-05
4.94844e-05
6.25232e-05
7.86128e-05
9.82999e-05
0.000122209
0.000151049
0.000185617
0.000226811
0.000275637
0.000333217
0.000400794
0.000479699
0.000571204
0.000676091
0.000793407
0.000917307
0.00103017
0.00109235
1.18735e-05
1.27784e-05
1.4936e-05
1.83248e-05
2.29852e-05
2.91003e-05
3.69421e-05
4.68378e-05
5.91697e-05
7.43818e-05
9.29854e-05
0.00011556
0.000142757
0.000175295
0.000213963
0.000259605
0.0003131
0.000375309
0.000446948
0.00052831
0.000618657
0.000714936
0.000809338
0.000885568
0.000916011
1.10391e-05
1.18745e-05
1.38667e-05
1.70017e-05
2.13172e-05
2.69814e-05
3.42454e-05
4.34112e-05
5.4831e-05
6.89122e-05
8.61215e-05
0.000106983
0.000132077
0.000162031
0.000197505
0.000239166
0.000287633
0.000343377
0.000406545
0.000476613
0.000551788
0.000627981
0.000697341
0.000746818
0.00075862
9.95932e-06
1.07092e-05
1.24962e-05
1.53118e-05
1.91912e-05
2.42844e-05
3.08163e-05
3.90574e-05
4.93223e-05
6.19734e-05
7.74227e-05
9.61286e-05
0.000118589
0.000145326
0.000176864
0.000213684
0.000256153
0.000304399
0.00035811
0.00041621
0.000476374
0.000534378
0.000583439
0.000614064
0.00061542
8.66623e-06
9.31772e-06
1.08665e-05
1.3308e-05
1.66741e-05
2.10947e-05
2.67639e-05
3.39156e-05
4.28211e-05
5.37911e-05
6.71767e-05
8.33634e-05
0.000102762
0.000125789
0.000152838
0.000184228
0.000220122
0.000260404
0.000304489
0.000351064
0.000397759
0.000440799
0.000474835
0.000493283
0.000489627
7.05112e-06
7.58255e-06
8.83963e-06
1.08207e-05
1.35534e-05
1.71431e-05
2.17467e-05
2.75534e-05
3.47817e-05
4.3681e-05
5.45302e-05
6.76319e-05
8.33004e-05
0.000101843
0.000123526
0.000148526
0.000176852
0.000208236
0.000241984
0.000276801
0.000310599
0.000340392
0.000362368
0.000372347
0.00036672
4.81004e-06
5.17528e-06
6.03253e-06
7.38174e-06
9.24315e-06
1.16887e-05
1.48249e-05
1.87802e-05
2.37021e-05
2.97585e-05
3.71348e-05
4.60293e-05
5.66425e-05
6.91601e-05
8.37268e-05
0.000100406
0.000119121
0.000139583
0.000161196
0.000182969
0.000203444
0.000220712
0.000232551
0.00023676
0.000231676
1.76084e-06
1.89691e-06
2.21298e-06
2.7091e-06
3.39334e-06
4.29235e-06
5.44538e-06
6.89965e-06
8.70939e-06
1.09359e-05
1.36467e-05
1.69129e-05
2.08047e-05
2.53846e-05
3.06954e-05
3.67451e-05
4.34836e-05
5.07768e-05
5.83763e-05
6.58948e-05
7.27962e-05
7.84164e-05
8.20308e-05
8.29726e-05
8.07893e-05
)
;

boundaryField
{
    top
    {
        type            fixedValue;
        value           uniform 0;
    }
    inlet
    {
        type            zeroGradient;
    }
    outlet
    {
        type            fixedValue;
        value           uniform 0;
    }
    plate
    {
        type            zeroGradient;
    }
    symmBound
    {
        type            zeroGradient;
    }
    frontAndBack
    {
        type            empty;
    }
}


// ************************************************************************* //
