/*--------------------------------*- C++ -*----------------------------------*\
| =========                 |                                                 |
| \\      /  F ield         | OpenFOAM: The Open Source CFD Toolbox           |
|  \\    /   O peration     | Version:  2.3.0                                 |
|   \\  /    A nd           | Web:      www.OpenFOAM.org                      |
|    \\/     M anipulation  |                                                 |
\*---------------------------------------------------------------------------*/
FoamFile
{
    version     2.0;
    format      ascii;
    class       volVectorField;
    location    "0.45";
    object      U_0;
}
// * * * * * * * * * * * * * * * * * * * * * * * * * * * * * * * * * * * * * //

dimensions      [0 1 -1 0 0 0 0];

internalField   nonuniform List<vector> 
1500
(
(0.170767 0.00605146 0)
(0.154005 0.00612535 0)
(0.137879 0.00570327 0)
(0.12259 0.0050946 0)
(0.108559 0.00441771 0)
(0.0959666 0.00372758 0)
(0.0848332 0.00306304 0)
(0.0751301 0.00245158 0)
(0.0668031 0.00191042 0)
(0.0597651 0.00144877 0)
(0.0538969 0.00106912 0)
(0.0490576 0.000768177 0)
(0.0450971 0.000538184 0)
(0.041867 0.000368688 0)
(0.0392289 0.00024829 0)
(0.0370604 0.000166002 0)
(0.0352579 0.000112084 0)
(0.033737 7.84172e-05 0)
(0.0324315 5.85728e-05 0)
(0.0312911 4.7689e-05 0)
(0.0302785 4.22589e-05 0)
(0.0293664 3.98801e-05 0)
(0.0285354 3.90011e-05 0)
(0.0277716 3.86888e-05 0)
(0.0270649 3.84344e-05 0)
(0.0264079 3.8001e-05 0)
(0.0257948 3.7313e-05 0)
(0.0252211 3.63815e-05 0)
(0.0246832 3.52564e-05 0)
(0.0241777 3.39986e-05 0)
(0.0237018 3.26657e-05 0)
(0.023253 3.13055e-05 0)
(0.0228289 2.9954e-05 0)
(0.0224275 2.86366e-05 0)
(0.0220468 2.73695e-05 0)
(0.021685 2.61619e-05 0)
(0.0213407 2.50179e-05 0)
(0.0210124 2.39383e-05 0)
(0.020699 2.29213e-05 0)
(0.0203991 2.19639e-05 0)
(0.020112 2.1062e-05 0)
(0.0198366 2.02115e-05 0)
(0.0195722 1.94081e-05 0)
(0.019318 1.86476e-05 0)
(0.0190735 1.79262e-05 0)
(0.0188381 1.72401e-05 0)
(0.0186112 1.6586e-05 0)
(0.0183924 1.59609e-05 0)
(0.0181814 1.53622e-05 0)
(0.0179778 1.47872e-05 0)
(0.0177812 1.42339e-05 0)
(0.0175914 1.37001e-05 0)
(0.0174082 1.31842e-05 0)
(0.0172312 1.26845e-05 0)
(0.0170604 1.21996e-05 0)
(0.0168955 1.1728e-05 0)
(0.0167364 1.12687e-05 0)
(0.016583 1.08206e-05 0)
(0.0164351 1.03826e-05 0)
(0.0162926 9.95391e-06 0)
(0.0161556 9.53367e-06 0)
(0.0160238 9.12115e-06 0)
(0.0158972 8.71567e-06 0)
(0.0157759 8.31664e-06 0)
(0.0156597 7.92349e-06 0)
(0.0155486 7.53573e-06 0)
(0.0154426 7.15291e-06 0)
(0.0153417 6.77461e-06 0)
(0.0152459 6.40046e-06 0)
(0.0151551 6.03014e-06 0)
(0.0150694 5.66343e-06 0)
(0.0149888 5.30023e-06 0)
(0.0149132 4.94066e-06 0)
(0.0148427 4.58513e-06 0)
(0.0147773 4.23441e-06 0)
(0.0147169 3.88956e-06 0)
(0.0146615 3.55175e-06 0)
(0.014611 3.22182e-06 0)
(0.0145655 2.89959e-06 0)
(0.0145249 2.58287e-06 0)
(0.0144891 2.26636e-06 0)
(0.0144582 1.94055e-06 0)
(0.0144322 1.59136e-06 0)
(0.0144113 1.20355e-06 0)
(0.0143957 7.78701e-07 0)
(0.0143855 3.66284e-07 0)
(0.0143812 6.21576e-08 0)
(0.0143823 -2.83556e-07 0)
(0.0143872 -5.3493e-07 0)
(0.0143948 -7.56217e-07 0)
(0.0144044 -9.10959e-07 0)
(0.014415 -9.78251e-07 0)
(0.0144261 -9.96406e-07 0)
(0.0144371 -9.71547e-07 0)
(0.0144477 -8.88753e-07 0)
(0.0144573 -7.62197e-07 0)
(0.0144657 -6.13393e-07 0)
(0.0144726 -4.51318e-07 0)
(0.0144777 -2.94307e-07 0)
(0.014482 -1.66188e-07 0)
(0.189995 0.00961349 0)
(0.187732 0.0101611 0)
(0.183893 0.00996886 0)
(0.178812 0.00949007 0)
(0.172972 0.00886308 0)
(0.166712 0.00813551 0)
(0.160249 0.00734719 0)
(0.153751 0.00653538 0)
(0.147353 0.00573193 0)
(0.141157 0.00496348 0)
(0.135233 0.00425129 0)
(0.129626 0.00361029 0)
(0.124358 0.00304874 0)
(0.119437 0.00256859 0)
(0.114858 0.00216655 0)
(0.110609 0.00183562 0)
(0.106674 0.00156661 0)
(0.103032 0.00134956 0)
(0.0996615 0.00117476 0)
(0.0965411 0.00103351 0)
(0.0936494 0.000918426 0)
(0.0909665 0.000823527 0)
(0.0884736 0.000744163 0)
(0.0861533 0.000676812 0)
(0.0839899 0.000618861 0)
(0.0819692 0.000568394 0)
(0.0800781 0.000524009 0)
(0.078305 0.000484673 0)
(0.0766393 0.000449609 0)
(0.0750717 0.000418214 0)
(0.0735935 0.000390009 0)
(0.0721971 0.0003646 0)
(0.0708756 0.000341653 0)
(0.0696228 0.000320879 0)
(0.068433 0.000302027 0)
(0.0673012 0.000284875 0)
(0.0662228 0.000269225 0)
(0.0651938 0.000254904 0)
(0.0642106 0.000241758 0)
(0.0632697 0.000229652 0)
(0.0623683 0.000218467 0)
(0.0615037 0.000208098 0)
(0.0606734 0.000198454 0)
(0.0598755 0.000189453 0)
(0.0591078 0.000181026 0)
(0.0583686 0.000173111 0)
(0.0576565 0.000165654 0)
(0.05697 0.000158608 0)
(0.0563078 0.000151929 0)
(0.0556688 0.000145581 0)
(0.0550519 0.000139531 0)
(0.0544564 0.00013375 0)
(0.0538813 0.000128211 0)
(0.053326 0.000122892 0)
(0.0527898 0.00011777 0)
(0.0522721 0.000112827 0)
(0.0517725 0.000108046 0)
(0.0512904 0.000103412 0)
(0.0508257 9.89099e-05 0)
(0.0503778 9.45278e-05 0)
(0.0499466 9.02541e-05 0)
(0.0495318 8.60788e-05 0)
(0.0491332 8.19926e-05 0)
(0.0487508 7.79874e-05 0)
(0.0483842 7.4056e-05 0)
(0.0480336 7.01922e-05 0)
(0.0476988 6.63906e-05 0)
(0.0473798 6.26465e-05 0)
(0.0470765 5.89565e-05 0)
(0.046789 5.53176e-05 0)
(0.0465173 5.17283e-05 0)
(0.0462613 4.8188e-05 0)
(0.0460211 4.46975e-05 0)
(0.0457966 4.12592e-05 0)
(0.0455879 3.78766e-05 0)
(0.045395 3.45542e-05 0)
(0.0452176 3.12966e-05 0)
(0.0450559 2.81065e-05 0)
(0.0449097 2.4983e-05 0)
(0.0447789 2.19193e-05 0)
(0.0446634 1.89009e-05 0)
(0.0445633 1.59051e-05 0)
(0.0444784 1.29029e-05 0)
(0.0444088 9.86513e-06 0)
(0.0443543 6.78354e-06 0)
(0.0443147 3.7079e-06 0)
(0.0442894 7.72583e-07 0)
(0.0442784 -1.87234e-06 0)
(0.0442802 -3.68665e-06 0)
(0.0442906 -4.75483e-06 0)
(0.0443068 -5.35515e-06 0)
(0.0443265 -5.5721e-06 0)
(0.0443482 -5.56013e-06 0)
(0.0443705 -5.37738e-06 0)
(0.0443923 -4.97871e-06 0)
(0.0444128 -4.39979e-06 0)
(0.0444312 -3.71676e-06 0)
(0.0444472 -2.95956e-06 0)
(0.0444602 -2.11537e-06 0)
(0.0444699 -9.47989e-07 0)
(0.193005 0.00916926 0)
(0.193752 0.0101553 0)
(0.193942 0.0105416 0)
(0.193409 0.0105997 0)
(0.192239 0.0104226 0)
(0.190531 0.0100457 0)
(0.18836 0.00951239 0)
(0.185802 0.00887277 0)
(0.182941 0.0081738 0)
(0.179858 0.00745612 0)
(0.176625 0.00675284 0)
(0.173307 0.00608863 0)
(0.169953 0.00547936 0)
(0.166605 0.00493286 0)
(0.163294 0.00445044 0)
(0.160041 0.0040288 0)
(0.156863 0.00366188 0)
(0.153769 0.00334244 0)
(0.150765 0.00306322 0)
(0.147854 0.00281759 0)
(0.145037 0.00259987 0)
(0.142313 0.00240546 0)
(0.139683 0.00223067 0)
(0.137145 0.00207264 0)
(0.134695 0.00192912 0)
(0.132333 0.00179836 0)
(0.130056 0.00167894 0)
(0.127862 0.00156971 0)
(0.125747 0.00146968 0)
(0.123709 0.001378 0)
(0.121745 0.00129392 0)
(0.119852 0.00121676 0)
(0.118028 0.00114588 0)
(0.11627 0.00108072 0)
(0.114575 0.00102075 0)
(0.11294 0.000965482 0)
(0.111362 0.000914482 0)
(0.10984 0.000867341 0)
(0.108369 0.000823691 0)
(0.106949 0.000783196 0)
(0.105577 0.000745552 0)
(0.10425 0.000710483 0)
(0.102967 0.000677741 0)
(0.101726 0.0006471 0)
(0.100524 0.000618358 0)
(0.099361 0.000591333 0)
(0.0982344 0.000565859 0)
(0.0971429 0.000541789 0)
(0.0960853 0.000518987 0)
(0.0950604 0.000497334 0)
(0.0940669 0.000476719 0)
(0.093104 0.000457044 0)
(0.0921707 0.000438218 0)
(0.0912661 0.000420161 0)
(0.0903896 0.000402798 0)
(0.0895405 0.000386062 0)
(0.0887182 0.000369892 0)
(0.0879222 0.000354233 0)
(0.087152 0.000339034 0)
(0.0864075 0.000324249 0)
(0.0856882 0.000309839 0)
(0.084994 0.000295764 0)
(0.0843246 0.000281993 0)
(0.0836799 0.000268496 0)
(0.08306 0.000255245 0)
(0.0824647 0.000242219 0)
(0.081894 0.000229398 0)
(0.081348 0.000216766 0)
(0.0808268 0.000204309 0)
(0.0803304 0.000192018 0)
(0.0798589 0.000179888 0)
(0.0794125 0.000167915 0)
(0.0789912 0.000156102 0)
(0.0785952 0.000144454 0)
(0.0782244 0.00013298 0)
(0.077879 0.000121691 0)
(0.077559 0.000110599 0)
(0.0772644 9.97125e-05 0)
(0.076995 8.90344e-05 0)
(0.0767509 7.85599e-05 0)
(0.0765319 6.82767e-05 0)
(0.0763379 5.817e-05 0)
(0.0761686 4.82327e-05 0)
(0.0760236 3.84825e-05 0)
(0.0759023 2.89799e-05 0)
(0.0758035 1.98345e-05 0)
(0.0757254 1.11854e-05 0)
(0.0756654 3.32797e-06 0)
(0.0756226 -3.40224e-06 0)
(0.0755998 -8.50734e-06 0)
(0.0755923 -1.16428e-05 0)
(0.0755952 -1.3105e-05 0)
(0.0756053 -1.34991e-05 0)
(0.0756201 -1.32399e-05 0)
(0.0756375 -1.24588e-05 0)
(0.075656 -1.12815e-05 0)
(0.0756743 -9.84947e-06 0)
(0.0756913 -8.18986e-06 0)
(0.0757061 -6.07086e-06 0)
(0.0757155 -2.44382e-06 0)
(0.194132 0.00849608 0)
(0.195127 0.00954914 0)
(0.196081 0.0101462 0)
(0.196786 0.010438 0)
(0.197208 0.0104987 0)
(0.197346 0.0103585 0)
(0.197188 0.0100502 0)
(0.196733 0.00961471 0)
(0.195995 0.00909291 0)
(0.195002 0.0085222 0)
(0.193789 0.00793482 0)
(0.192393 0.00735669 0)
(0.190852 0.00680663 0)
(0.189199 0.00629644 0)
(0.187465 0.0058318 0)
(0.185674 0.0054137 0)
(0.183846 0.00503993 0)
(0.181996 0.00470638 0)
(0.180135 0.00440816 0)
(0.178273 0.00414031 0)
(0.176414 0.00389823 0)
(0.174565 0.00367796 0)
(0.172727 0.0034762 0)
(0.170904 0.00329027 0)
(0.169099 0.00311809 0)
(0.167312 0.002958 0)
(0.165545 0.0028087 0)
(0.163801 0.00266915 0)
(0.162079 0.0025385 0)
(0.160382 0.00241606 0)
(0.158709 0.00230121 0)
(0.157062 0.0021934 0)
(0.155441 0.00209214 0)
(0.153846 0.00199698 0)
(0.152278 0.00190748 0)
(0.150737 0.00182327 0)
(0.149223 0.00174396 0)
(0.147736 0.0016692 0)
(0.146276 0.00159867 0)
(0.144843 0.00153206 0)
(0.143437 0.00146907 0)
(0.142058 0.00140945 0)
(0.140706 0.00135294 0)
(0.139379 0.0012993 0)
(0.13808 0.00124832 0)
(0.136806 0.00119978 0)
(0.135557 0.00115351 0)
(0.134335 0.00110931 0)
(0.133137 0.00106704 0)
(0.131965 0.00102652 0)
(0.130818 0.000987625 0)
(0.129697 0.000950213 0)
(0.128599 0.00091416 0)
(0.127527 0.00087935 0)
(0.126479 0.000845673 0)
(0.125456 0.000813029 0)
(0.124458 0.000781324 0)
(0.123485 0.000750469 0)
(0.122536 0.000720385 0)
(0.121613 0.000690995 0)
(0.120714 0.000662233 0)
(0.119841 0.000634033 0)
(0.118994 0.00060634 0)
(0.118172 0.000579102 0)
(0.117377 0.000552272 0)
(0.116608 0.000525809 0)
(0.115866 0.000499681 0)
(0.115151 0.000473856 0)
(0.114463 0.000448314 0)
(0.113804 0.000423036 0)
(0.113173 0.000398014 0)
(0.112571 0.000373245 0)
(0.111997 0.000348732 0)
(0.111454 0.000324488 0)
(0.11094 0.00030053 0)
(0.110457 0.00027688 0)
(0.110004 0.000253562 0)
(0.109581 0.000230602 0)
(0.10919 0.000208018 0)
(0.10883 0.000185829 0)
(0.1085 0.000164049 0)
(0.108201 0.000142705 0)
(0.107933 0.000121851 0)
(0.107695 0.000101595 0)
(0.107486 8.2132e-05 0)
(0.107304 6.37646e-05 0)
(0.107149 4.68663e-05 0)
(0.107018 3.17129e-05 0)
(0.106908 1.83117e-05 0)
(0.106815 7.00471e-06 0)
(0.106737 -1.86848e-06 0)
(0.106678 -8.69695e-06 0)
(0.106637 -1.36062e-05 0)
(0.106611 -1.63741e-05 0)
(0.106595 -1.72457e-05 0)
(0.106586 -1.67877e-05 0)
(0.106583 -1.54371e-05 0)
(0.106583 -1.33351e-05 0)
(0.106585 -1.00209e-05 0)
(0.106582 -3.28994e-06 0)
(0.195007 0.00797677 0)
(0.195806 0.00893388 0)
(0.196701 0.00954852 0)
(0.197541 0.00990174 0)
(0.198277 0.0100543 0)
(0.198892 0.0100347 0)
(0.199364 0.00986666 0)
(0.199668 0.0095794 0)
(0.199796 0.00920419 0)
(0.199747 0.00877099 0)
(0.19953 0.00830685 0)
(0.199162 0.00783476 0)
(0.198663 0.00737269 0)
(0.198051 0.00693319 0)
(0.197348 0.00652377 0)
(0.196571 0.00614773 0)
(0.195735 0.00580527 0)
(0.194854 0.00549451 0)
(0.193936 0.00521243 0)
(0.192989 0.00495557 0)
(0.192018 0.00472052 0)
(0.191027 0.00450419 0)
(0.19002 0.00430391 0)
(0.188999 0.00411751 0)
(0.187965 0.00394323 0)
(0.186921 0.00377968 0)
(0.185868 0.00362577 0)
(0.184807 0.00348062 0)
(0.18374 0.00334352 0)
(0.182667 0.00321384 0)
(0.18159 0.00309109 0)
(0.18051 0.00297477 0)
(0.179428 0.00286448 0)
(0.178344 0.00275982 0)
(0.17726 0.0026604 0)
(0.176176 0.00256589 0)
(0.175093 0.00247595 0)
(0.174013 0.00239026 0)
(0.172934 0.00230854 0)
(0.171859 0.00223049 0)
(0.170788 0.00215587 0)
(0.169721 0.00208441 0)
(0.16866 0.0020159 0)
(0.167604 0.00195012 0)
(0.166554 0.00188686 0)
(0.165511 0.00182594 0)
(0.164476 0.00176717 0)
(0.163448 0.0017104 0)
(0.162429 0.00165546 0)
(0.161418 0.00160221 0)
(0.160418 0.00155052 0)
(0.159427 0.00150025 0)
(0.158448 0.00145127 0)
(0.157479 0.00140348 0)
(0.156522 0.00135677 0)
(0.155578 0.00131104 0)
(0.154647 0.00126618 0)
(0.15373 0.00122211 0)
(0.152828 0.00117874 0)
(0.15194 0.001136 0)
(0.151068 0.00109381 0)
(0.150213 0.0010521 0)
(0.149375 0.00101081 0)
(0.148555 0.000969886 0)
(0.147754 0.000929276 0)
(0.146973 0.000888938 0)
(0.146212 0.000848836 0)
(0.145472 0.00080894 0)
(0.144754 0.00076923 0)
(0.14406 0.000729694 0)
(0.143388 0.000690328 0)
(0.142742 0.000651138 0)
(0.14212 0.000612141 0)
(0.141525 0.000573363 0)
(0.140956 0.000534841 0)
(0.140415 0.000496615 0)
(0.139901 0.000458736 0)
(0.139417 0.000421256 0)
(0.138961 0.000384229 0)
(0.138535 0.000347715 0)
(0.138139 0.000311784 0)
(0.137773 0.000276534 0)
(0.137437 0.00024211 0)
(0.13713 0.000208729 0)
(0.136852 0.000176708 0)
(0.136602 0.000146468 0)
(0.136379 0.000118496 0)
(0.13618 9.32763e-05 0)
(0.136005 7.12226e-05 0)
(0.135851 5.24689e-05 0)
(0.135717 3.66335e-05 0)
(0.1356 2.32163e-05 0)
(0.135496 1.22862e-05 0)
(0.135404 4.14047e-06 0)
(0.135325 -1.51122e-06 0)
(0.135259 -5.2925e-06 0)
(0.135204 -7.62624e-06 0)
(0.135161 -8.48829e-06 0)
(0.135128 -7.10176e-06 0)
(0.135095 -3.40803e-07 0)
(0.195789 0.00753787 0)
(0.19639 0.00836396 0)
(0.197105 0.00894626 0)
(0.197832 0.00931636 0)
(0.198525 0.00951353 0)
(0.199161 0.00956124 0)
(0.199721 0.00947821 0)
(0.200187 0.00928663 0)
(0.200545 0.00901126 0)
(0.200791 0.00867663 0)
(0.200927 0.00830538 0)
(0.200958 0.00791725 0)
(0.200896 0.00752829 0)
(0.200752 0.00715044 0)
(0.200539 0.00679166 0)
(0.20027 0.00645639 0)
(0.199954 0.00614632 0)
(0.199601 0.00586117 0)
(0.199218 0.00559945 0)
(0.198811 0.00535899 0)
(0.198383 0.00513744 0)
(0.197936 0.00493249 0)
(0.197474 0.00474205 0)
(0.196998 0.00456434 0)
(0.196507 0.00439783 0)
(0.196003 0.00424131 0)
(0.195487 0.00409375 0)
(0.194959 0.00395433 0)
(0.19442 0.00382235 0)
(0.193869 0.00369722 0)
(0.193307 0.00357844 0)
(0.192735 0.00346556 0)
(0.192153 0.00335816 0)
(0.191562 0.00325586 0)
(0.190961 0.00315831 0)
(0.190351 0.00306517 0)
(0.189733 0.00297614 0)
(0.189107 0.00289091 0)
(0.188473 0.00280921 0)
(0.187833 0.00273078 0)
(0.187185 0.00265536 0)
(0.186532 0.00258272 0)
(0.185872 0.00251264 0)
(0.185207 0.00244491 0)
(0.184538 0.00237933 0)
(0.183863 0.00231573 0)
(0.183185 0.00225393 0)
(0.182504 0.00219376 0)
(0.181819 0.00213508 0)
(0.181132 0.00207773 0)
(0.180444 0.00202158 0)
(0.179754 0.0019665 0)
(0.179064 0.00191237 0)
(0.178373 0.00185907 0)
(0.177684 0.00180649 0)
(0.176996 0.00175453 0)
(0.17631 0.00170309 0)
(0.175626 0.00165207 0)
(0.174947 0.00160139 0)
(0.174272 0.00155097 0)
(0.173601 0.00150073 0)
(0.172937 0.0014506 0)
(0.17228 0.00140052 0)
(0.171631 0.00135044 0)
(0.17099 0.0013003 0)
(0.170359 0.00125006 0)
(0.169738 0.0011997 0)
(0.169129 0.00114918 0)
(0.168532 0.0010985 0)
(0.167949 0.00104765 0)
(0.16738 0.000996641 0)
(0.166826 0.000945492 0)
(0.166289 0.000894237 0)
(0.165769 0.000842924 0)
(0.165268 0.000791613 0)
(0.164786 0.000740373 0)
(0.164323 0.000689287 0)
(0.163881 0.000638444 0)
(0.163461 0.000587944 0)
(0.163063 0.000537905 0)
(0.162688 0.000488468 0)
(0.162336 0.000439813 0)
(0.162006 0.000392188 0)
(0.1617 0.000345924 0)
(0.161417 0.000301448 0)
(0.161155 0.000259282 0)
(0.160916 0.000219988 0)
(0.160696 0.0001841 0)
(0.160497 0.000152016 0)
(0.160317 0.000123881 0)
(0.160154 9.9618e-05 0)
(0.160007 7.91659e-05 0)
(0.159875 6.23783e-05 0)
(0.159756 4.8805e-05 0)
(0.15965 3.78568e-05 0)
(0.159554 2.90251e-05 0)
(0.159469 2.2009e-05 0)
(0.159392 1.68429e-05 0)
(0.159324 1.40709e-05 0)
(0.159253 1.55586e-05 0)
(0.196501 0.00717615 0)
(0.196949 0.00787966 0)
(0.197499 0.0084135 0)
(0.198084 0.00878043 0)
(0.198663 0.00899994 0)
(0.199212 0.0090889 0)
(0.199714 0.00906231 0)
(0.200154 0.00893754 0)
(0.200523 0.00873427 0)
(0.200814 0.0084726 0)
(0.201029 0.00817145 0)
(0.20117 0.00784765 0)
(0.201245 0.00751536 0)
(0.201261 0.00718566 0)
(0.201228 0.00686649 0)
(0.201155 0.006563 0)
(0.201051 0.00627793 0)
(0.200921 0.00601228 0)
(0.200771 0.00576576 0)
(0.200607 0.00553734 0)
(0.200431 0.00532555 0)
(0.200246 0.00512882 0)
(0.200052 0.00494558 0)
(0.199851 0.0047744 0)
(0.199643 0.00461402 0)
(0.199428 0.00446335 0)
(0.199207 0.00432146 0)
(0.198979 0.00418757 0)
(0.198745 0.004061 0)
(0.198504 0.00394118 0)
(0.198255 0.00382758 0)
(0.198 0.00371975 0)
(0.197738 0.00361726 0)
(0.197469 0.00351974 0)
(0.197192 0.0034268 0)
(0.196909 0.00333813 0)
(0.196618 0.00325338 0)
(0.19632 0.00317227 0)
(0.196014 0.00309449 0)
(0.195702 0.00301979 0)
(0.195382 0.00294789 0)
(0.195055 0.00287856 0)
(0.194722 0.00281157 0)
(0.194381 0.00274669 0)
(0.194034 0.00268373 0)
(0.19368 0.00262248 0)
(0.19332 0.00256277 0)
(0.192954 0.00250443 0)
(0.192581 0.00244727 0)
(0.192203 0.00239116 0)
(0.19182 0.00233594 0)
(0.191432 0.00228148 0)
(0.191038 0.00222763 0)
(0.190641 0.00217428 0)
(0.190239 0.00212129 0)
(0.189834 0.00206856 0)
(0.189425 0.00201598 0)
(0.189014 0.00196345 0)
(0.188601 0.00191087 0)
(0.188186 0.00185814 0)
(0.18777 0.00180519 0)
(0.187354 0.00175193 0)
(0.186938 0.0016983 0)
(0.186522 0.00164423 0)
(0.186109 0.00158967 0)
(0.185697 0.00153458 0)
(0.185289 0.00147891 0)
(0.184884 0.00142265 0)
(0.184484 0.00136578 0)
(0.18409 0.00130831 0)
(0.183701 0.00125025 0)
(0.18332 0.00119162 0)
(0.182947 0.00113248 0)
(0.182582 0.00107289 0)
(0.182227 0.00101293 0)
(0.181882 0.000952694 0)
(0.181548 0.000892288 0)
(0.181226 0.000831842 0)
(0.180917 0.000771502 0)
(0.180621 0.000711442 0)
(0.180338 0.000651869 0)
(0.18007 0.000593047 0)
(0.179816 0.000535309 0)
(0.179576 0.000479077 0)
(0.17935 0.000424866 0)
(0.179139 0.000373263 0)
(0.178942 0.000324877 0)
(0.178758 0.000280265 0)
(0.178588 0.000239841 0)
(0.17843 0.000203809 0)
(0.178285 0.00017217 0)
(0.178152 0.000144813 0)
(0.17803 0.000121499 0)
(0.177919 0.000101851 0)
(0.177817 8.54504e-05 0)
(0.177725 7.19022e-05 0)
(0.17764 6.08952e-05 0)
(0.177563 5.2205e-05 0)
(0.177494 4.56459e-05 0)
(0.177421 4.05119e-05 0)
(0.197152 0.00687975 0)
(0.197485 0.00747798 0)
(0.197898 0.00795714 0)
(0.198351 0.00830785 0)
(0.198812 0.00853629 0)
(0.199258 0.00865258 0)
(0.199674 0.00866781 0)
(0.200047 0.00859508 0)
(0.200369 0.00844952 0)
(0.200634 0.00824714 0)
(0.200843 0.00800346 0)
(0.200996 0.00773274 0)
(0.201099 0.00744738 0)
(0.201157 0.00715751 0)
(0.201179 0.00687092 0)
(0.201169 0.00659315 0)
(0.201136 0.00632775 0)
(0.201085 0.00607668 0)
(0.201021 0.00584071 0)
(0.200947 0.00561976 0)
(0.200867 0.00541322 0)
(0.200782 0.0052202 0)
(0.200694 0.00503969 0)
(0.200604 0.00487066 0)
(0.200512 0.00471214 0)
(0.200419 0.00456322 0)
(0.200324 0.0044231 0)
(0.200228 0.00429109 0)
(0.200131 0.00416653 0)
(0.200032 0.00404886 0)
(0.19993 0.00393757 0)
(0.199827 0.00383219 0)
(0.199721 0.00373229 0)
(0.199612 0.00363746 0)
(0.199501 0.00354734 0)
(0.199386 0.00346155 0)
(0.199269 0.00337977 0)
(0.199148 0.00330168 0)
(0.199023 0.00322697 0)
(0.198895 0.00315536 0)
(0.198763 0.00308657 0)
(0.198627 0.00302035 0)
(0.198487 0.00295645 0)
(0.198343 0.00289464 0)
(0.198195 0.0028347 0)
(0.198043 0.00277642 0)
(0.197886 0.0027196 0)
(0.197725 0.00266406 0)
(0.19756 0.00260961 0)
(0.19739 0.00255608 0)
(0.197217 0.00250332 0)
(0.197039 0.00245116 0)
(0.196857 0.00239946 0)
(0.19667 0.00234807 0)
(0.196481 0.00229686 0)
(0.196287 0.0022457 0)
(0.19609 0.00219447 0)
(0.195889 0.00214305 0)
(0.195685 0.00209132 0)
(0.195479 0.00203919 0)
(0.195269 0.00198655 0)
(0.195058 0.00193332 0)
(0.194844 0.00187941 0)
(0.194629 0.00182474 0)
(0.194413 0.00176925 0)
(0.194195 0.00171289 0)
(0.193978 0.00165562 0)
(0.19376 0.00159739 0)
(0.193543 0.0015382 0)
(0.193326 0.00147804 0)
(0.193111 0.00141692 0)
(0.192899 0.00135489 0)
(0.192688 0.00129198 0)
(0.192481 0.00122827 0)
(0.192278 0.00116384 0)
(0.192079 0.00109881 0)
(0.191884 0.00103331 0)
(0.191694 0.000967491 0)
(0.191511 0.000901535 0)
(0.191333 0.000835659 0)
(0.191162 0.000770125 0)
(0.190997 0.000705253 0)
(0.19084 0.000641439 0)
(0.190689 0.000579162 0)
(0.190546 0.000518979 0)
(0.19041 0.000461505 0)
(0.190281 0.000407362 0)
(0.190159 0.000357107 0)
(0.190045 0.000311165 0)
(0.189937 0.00026977 0)
(0.189837 0.000232969 0)
(0.189744 0.000200678 0)
(0.189658 0.000172695 0)
(0.189579 0.000148691 0)
(0.189506 0.000128254 0)
(0.189438 0.000110955 0)
(0.189377 9.64007e-05 0)
(0.18932 8.42233e-05 0)
(0.18927 7.38684e-05 0)
(0.189215 6.35632e-05 0)
(0.197719 0.00664575 0)
(0.197967 0.00716191 0)
(0.198274 0.00759154 0)
(0.198617 0.00792209 0)
(0.198974 0.00815233 0)
(0.199325 0.00828681 0)
(0.199658 0.00833283 0)
(0.19996 0.0082999 0)
(0.200226 0.00819947 0)
(0.20045 0.00804412 0)
(0.200631 0.00784657 0)
(0.20077 0.00761889 0)
(0.200869 0.0073719 0)
(0.200934 0.00711487 0)
(0.200969 0.00685529 0)
(0.200979 0.00659886 0)
(0.20097 0.00634968 0)
(0.200946 0.0061104 0)
(0.200912 0.0058826 0)
(0.20087 0.00566697 0)
(0.200824 0.00546364 0)
(0.200774 0.0052723 0)
(0.200724 0.00509243 0)
(0.200672 0.00492339 0)
(0.200621 0.00476447 0)
(0.200571 0.00461498 0)
(0.200521 0.00447427 0)
(0.200471 0.00434169 0)
(0.200423 0.00421668 0)
(0.200375 0.0040987 0)
(0.200327 0.00398725 0)
(0.20028 0.00388186 0)
(0.200233 0.00378211 0)
(0.200186 0.00368759 0)
(0.200138 0.00359791 0)
(0.20009 0.00351271 0)
(0.200042 0.00343166 0)
(0.199993 0.00335441 0)
(0.199943 0.00328067 0)
(0.199892 0.00321013 0)
(0.19984 0.00314252 0)
(0.199787 0.00307756 0)
(0.199732 0.00301501 0)
(0.199676 0.00295463 0)
(0.199618 0.00289617 0)
(0.199558 0.00283943 0)
(0.199496 0.00278419 0)
(0.199433 0.00273026 0)
(0.199368 0.00267744 0)
(0.1993 0.00262556 0)
(0.199231 0.00257443 0)
(0.199159 0.0025239 0)
(0.199085 0.0024738 0)
(0.199009 0.00242398 0)
(0.19893 0.00237428 0)
(0.19885 0.00232458 0)
(0.198767 0.00227473 0)
(0.198682 0.0022246 0)
(0.198595 0.00217408 0)
(0.198506 0.00212304 0)
(0.198415 0.00207137 0)
(0.198323 0.00201897 0)
(0.198228 0.00196575 0)
(0.198132 0.00191162 0)
(0.198034 0.00185651 0)
(0.197936 0.00180034 0)
(0.197836 0.00174307 0)
(0.197735 0.00168466 0)
(0.197634 0.00162509 0)
(0.197532 0.00156433 0)
(0.19743 0.00150241 0)
(0.197328 0.00143935 0)
(0.197226 0.0013752 0)
(0.197125 0.00131002 0)
(0.197025 0.00124392 0)
(0.196926 0.00117701 0)
(0.196829 0.00110943 0)
(0.196733 0.00104135 0)
(0.196639 0.000972981 0)
(0.196548 0.000904556 0)
(0.196458 0.000836374 0)
(0.196372 0.00076879 0)
(0.196288 0.00070223 0)
(0.196206 0.000637195 0)
(0.196128 0.000574253 0)
(0.196052 0.000514014 0)
(0.195979 0.000457083 0)
(0.195909 0.000404003 0)
(0.195843 0.000355194 0)
(0.19578 0.000310908 0)
(0.195721 0.000271232 0)
(0.195666 0.000236107 0)
(0.195614 0.000205354 0)
(0.195566 0.000178672 0)
(0.195522 0.00015568 0)
(0.195481 0.000135975 0)
(0.195444 0.000119159 0)
(0.19541 0.000104796 0)
(0.19538 9.21777e-05 0)
(0.195345 7.96536e-05 0)
(0.198283 0.00645821 0)
(0.198458 0.006907 0)
(0.198674 0.00729052 0)
(0.198918 0.00759714 0)
(0.199176 0.00782229 0)
(0.199434 0.00796667 0)
(0.199681 0.00803431 0)
(0.199909 0.00803171 0)
(0.200112 0.00796725 0)
(0.200286 0.00785062 0)
(0.20043 0.00769199 0)
(0.200543 0.0075014 0)
(0.200627 0.00728818 0)
(0.200685 0.00706062 0)
(0.20072 0.00682577 0)
(0.200736 0.00658929 0)
(0.200737 0.00635557 0)
(0.200726 0.00612777 0)
(0.200707 0.00590806 0)
(0.200681 0.00569779 0)
(0.200652 0.00549768 0)
(0.20062 0.00530797 0)
(0.200587 0.00512859 0)
(0.200553 0.00495925 0)
(0.200521 0.00479955 0)
(0.200489 0.00464898 0)
(0.200458 0.00450705 0)
(0.200428 0.00437322 0)
(0.200399 0.00424699 0)
(0.200372 0.00412786 0)
(0.200346 0.00401536 0)
(0.200321 0.00390904 0)
(0.200297 0.00380848 0)
(0.200274 0.00371328 0)
(0.200251 0.00362304 0)
(0.20023 0.0035374 0)
(0.200209 0.00345602 0)
(0.200188 0.00337856 0)
(0.200168 0.00330471 0)
(0.200148 0.00323417 0)
(0.200129 0.00316665 0)
(0.200109 0.00310187 0)
(0.20009 0.00303959 0)
(0.20007 0.00297956 0)
(0.200051 0.00292153 0)
(0.200031 0.00286528 0)
(0.200011 0.0028106 0)
(0.19999 0.00275728 0)
(0.199969 0.00270513 0)
(0.199948 0.00265395 0)
(0.199926 0.00260357 0)
(0.199904 0.00255382 0)
(0.199881 0.00250452 0)
(0.199857 0.00245552 0)
(0.199832 0.00240666 0)
(0.199807 0.0023578 0)
(0.199781 0.00230878 0)
(0.199754 0.00225948 0)
(0.199726 0.00220976 0)
(0.199698 0.00215951 0)
(0.199668 0.00210859 0)
(0.199638 0.00205691 0)
(0.199607 0.00200435 0)
(0.199575 0.00195083 0)
(0.199543 0.00189627 0)
(0.199509 0.00184058 0)
(0.199475 0.00178372 0)
(0.19944 0.00172563 0)
(0.199405 0.00166629 0)
(0.199369 0.00160567 0)
(0.199333 0.00154379 0)
(0.199296 0.00148067 0)
(0.199259 0.00141635 0)
(0.199221 0.0013509 0)
(0.199184 0.00128442 0)
(0.199146 0.00121701 0)
(0.199109 0.00114884 0)
(0.199071 0.00108008 0)
(0.199034 0.00101095 0)
(0.198997 0.000941695 0)
(0.19896 0.000872641 0)
(0.198923 0.000804154 0)
(0.198887 0.000736669 0)
(0.198851 0.000670687 0)
(0.198816 0.000606765 0)
(0.198781 0.000545485 0)
(0.198747 0.000487425 0)
(0.198713 0.000433098 0)
(0.19868 0.000382912 0)
(0.198649 0.000337127 0)
(0.198619 0.000295854 0)
(0.19859 0.000259065 0)
(0.198564 0.000226608 0)
(0.198539 0.000198224 0)
(0.198516 0.000173574 0)
(0.198495 0.000152279 0)
(0.198476 0.000133941 0)
(0.198459 0.000118112 0)
(0.198443 0.000104173 0)
(0.198425 9.11694e-05 0)
(0.198887 0.00629218 0)
(0.198989 0.00668657 0)
(0.199117 0.00703064 0)
(0.199262 0.00731463 0)
(0.199419 0.00753278 0)
(0.199577 0.00768336 0)
(0.199732 0.00776783 0)
(0.199876 0.00779015 0)
(0.200007 0.00775615 0)
(0.200121 0.00767299 0)
(0.200216 0.00754864 0)
(0.200294 0.00739124 0)
(0.200354 0.00720874 0)
(0.200397 0.00700847 0)
(0.200425 0.0067969 0)
(0.200442 0.00657958 0)
(0.200448 0.00636098 0)
(0.200446 0.00614465 0)
(0.200437 0.0059332 0)
(0.200425 0.00572852 0)
(0.200409 0.00553184 0)
(0.200391 0.00534388 0)
(0.200373 0.00516499 0)
(0.200353 0.00499525 0)
(0.200334 0.00483452 0)
(0.200316 0.00468253 0)
(0.200298 0.00453893 0)
(0.200281 0.00440331 0)
(0.200264 0.00427526 0)
(0.200249 0.00415433 0)
(0.200234 0.00404008 0)
(0.20022 0.0039321 0)
(0.200208 0.00382997 0)
(0.200195 0.00373329 0)
(0.200184 0.00364168 0)
(0.200173 0.00355478 0)
(0.200164 0.00347223 0)
(0.200154 0.0033937 0)
(0.200145 0.00331888 0)
(0.200137 0.00324746 0)
(0.200129 0.00317915 0)
(0.200122 0.00311367 0)
(0.200115 0.00305076 0)
(0.200108 0.00299017 0)
(0.200102 0.00293167 0)
(0.200096 0.00287501 0)
(0.20009 0.00281998 0)
(0.200084 0.00276638 0)
(0.200079 0.002714 0)
(0.200074 0.00266266 0)
(0.200068 0.00261216 0)
(0.200063 0.00256233 0)
(0.200058 0.002513 0)
(0.200053 0.00246401 0)
(0.200047 0.0024152 0)
(0.200042 0.00236641 0)
(0.200037 0.00231751 0)
(0.200031 0.00226835 0)
(0.200026 0.00221879 0)
(0.20002 0.00216872 0)
(0.200014 0.00211801 0)
(0.200008 0.00206654 0)
(0.200002 0.00201422 0)
(0.199996 0.00196094 0)
(0.19999 0.00190663 0)
(0.199983 0.00185119 0)
(0.199976 0.00179459 0)
(0.199969 0.00173675 0)
(0.199961 0.00167765 0)
(0.199954 0.00161728 0)
(0.199946 0.00155563 0)
(0.199938 0.00149273 0)
(0.199929 0.00142862 0)
(0.199921 0.00136336 0)
(0.199912 0.00129705 0)
(0.199903 0.00122981 0)
(0.199893 0.00116178 0)
(0.199884 0.00109316 0)
(0.199874 0.00102416 0)
(0.199864 0.00095506 0)
(0.199854 0.000886165 0)
(0.199843 0.000817851 0)
(0.199832 0.000750551 0)
(0.19982 0.000684751 0)
(0.199809 0.000620979 0)
(0.199797 0.000559786 0)
(0.199784 0.000501706 0)
(0.199772 0.000447219 0)
(0.19976 0.000396709 0)
(0.199747 0.000350438 0)
(0.199736 0.000308531 0)
(0.199724 0.000270983 0)
(0.199714 0.000237673 0)
(0.199704 0.000208377 0)
(0.199695 0.000182796 0)
(0.199687 0.000160581 0)
(0.19968 0.000141361 0)
(0.199673 0.000124748 0)
(0.199667 0.000110327 0)
(0.19966 9.78253e-05 0)
(0.199518 0.0062108 0)
(0.199545 0.00657069 0)
(0.199582 0.00688727 0)
(0.199627 0.00715231 0)
(0.199677 0.00736016 0)
(0.199729 0.00750833 0)
(0.199782 0.00759717 0)
(0.199833 0.00762937 0)
(0.199881 0.00760941 0)
(0.199925 0.00754309 0)
(0.199963 0.00743704 0)
(0.199996 0.00729827 0)
(0.200023 0.00713377 0)
(0.200045 0.00695016 0)
(0.200062 0.00675345 0)
(0.200074 0.00654891 0)
(0.200083 0.00634098 0)
(0.200088 0.00613326 0)
(0.200091 0.00592856 0)
(0.200092 0.00572898 0)
(0.200092 0.00553601 0)
(0.20009 0.00535065 0)
(0.200088 0.00517347 0)
(0.200085 0.00500475 0)
(0.200082 0.00484453 0)
(0.200079 0.00469268 0)
(0.200076 0.00454896 0)
(0.200073 0.00441305 0)
(0.20007 0.00428458 0)
(0.200067 0.00416317 0)
(0.200064 0.0040484 0)
(0.200062 0.00393988 0)
(0.200059 0.00383721 0)
(0.200057 0.00374 0)
(0.200055 0.00364788 0)
(0.200053 0.00356049 0)
(0.200051 0.00347747 0)
(0.200049 0.0033985 0)
(0.200048 0.00332326 0)
(0.200047 0.00325144 0)
(0.200045 0.00318276 0)
(0.200044 0.00311694 0)
(0.200043 0.00305371 0)
(0.200042 0.00299283 0)
(0.200042 0.00293405 0)
(0.200041 0.00287715 0)
(0.200041 0.00282189 0)
(0.20004 0.00276809 0)
(0.20004 0.00271552 0)
(0.200039 0.002664 0)
(0.200039 0.00261335 0)
(0.200039 0.00256339 0)
(0.200039 0.00251394 0)
(0.200039 0.00246485 0)
(0.200039 0.00241594 0)
(0.200039 0.00236708 0)
(0.200039 0.00231812 0)
(0.200039 0.0022689 0)
(0.200039 0.00221931 0)
(0.200039 0.00216921 0)
(0.200039 0.00211849 0)
(0.200039 0.00206702 0)
(0.200039 0.00201471 0)
(0.20004 0.00196146 0)
(0.20004 0.00190718 0)
(0.20004 0.0018518 0)
(0.20004 0.00179525 0)
(0.20004 0.00173749 0)
(0.20004 0.00167848 0)
(0.20004 0.00161821 0)
(0.20004 0.00155667 0)
(0.200039 0.00149389 0)
(0.200039 0.00142992 0)
(0.200039 0.00136482 0)
(0.200038 0.00129868 0)
(0.200038 0.00123162 0)
(0.200037 0.0011638 0)
(0.200036 0.00109541 0)
(0.200035 0.00102667 0)
(0.200034 0.00095785 0)
(0.200033 0.000889273 0)
(0.200032 0.000821311 0)
(0.20003 0.000754388 0)
(0.200028 0.000688978 0)
(0.200026 0.000625588 0)
(0.200023 0.00056474 0)
(0.200021 0.000506938 0)
(0.200018 0.000452635 0)
(0.200015 0.000402197 0)
(0.200013 0.00035588 0)
(0.20001 0.000313812 0)
(0.200007 0.000276004 0)
(0.200004 0.000242352 0)
(0.200002 0.000212655 0)