/*--------------------------------*- C++ -*----------------------------------*\
| =========                 |                                                 |
| \\      /  F ield         | OpenFOAM: The Open Source CFD Toolbox           |
|  \\    /   O peration     | Version:  2.3.0                                 |
|   \\  /    A nd           | Web:      www.OpenFOAM.org                      |
|    \\/     M anipulation  |                                                 |
\*---------------------------------------------------------------------------*/
FoamFile
{
    version     2.0;
    format      ascii;
    class       surfaceScalarField;
    location    "0.7";
    object      phi_0;
}
// * * * * * * * * * * * * * * * * * * * * * * * * * * * * * * * * * * * * * //

dimensions      [0 3 -1 0 0 0 0];

internalField   nonuniform List<scalar> 
2863
(
2.80641e-08
2.92467e-09
-3.09888e-08
2.51571e-08
2.90703e-09
2.24275e-08
2.7296e-09
1.99106e-08
2.51689e-09
1.76244e-08
2.28618e-09
1.55812e-08
2.04317e-09
1.37846e-08
1.79659e-09
1.22298e-08
1.5548e-09
1.09049e-08
1.32495e-09
9.79188e-09
1.11299e-09
8.86853e-09
9.23354e-10
8.10986e-09
7.58668e-10
7.49018e-09
6.1968e-10
6.98471e-09
5.05466e-10
6.57088e-09
4.13833e-10
6.22909e-09
3.41793e-10
5.94306e-09
2.8603e-10
5.69978e-09
2.43279e-10
5.48919e-09
2.10586e-10
5.30375e-09
1.85446e-10
5.1379e-09
1.6585e-10
4.98764e-09
1.50256e-10
4.85011e-09
1.37527e-10
4.72326e-09
1.26856e-10
4.60557e-09
1.17686e-10
4.49593e-09
1.09641e-10
4.39346e-09
1.02474e-10
4.29744e-09
9.60189e-11
4.20727e-09
9.01672e-11
4.12243e-09
8.48416e-11
4.04245e-09
7.9985e-11
3.96689e-09
7.55516e-11
3.89539e-09
7.15024e-11
3.82759e-09
6.78023e-11
3.76317e-09
6.44189e-11
3.70185e-09
6.13221e-11
3.64336e-09
5.8484e-11
3.58749e-09
5.58787e-11
3.534e-09
5.34826e-11
3.48273e-09
5.12742e-11
3.43349e-09
4.9234e-11
3.38615e-09
4.73445e-11
3.34056e-09
4.55902e-11
3.2966e-09
4.39573e-11
3.25417e-09
4.24334e-11
3.21316e-09
4.10078e-11
3.17349e-09
3.96709e-11
3.13508e-09
3.84141e-11
3.09785e-09
3.72301e-11
3.06173e-09
3.61122e-11
3.02668e-09
3.50545e-11
2.99263e-09
3.40518e-11
2.95953e-09
3.30994e-11
2.92733e-09
3.21931e-11
2.89601e-09
3.13291e-11
2.8655e-09
3.0504e-11
2.83579e-09
2.97149e-11
2.80683e-09
2.89588e-11
2.7786e-09
2.82332e-11
2.75106e-09
2.75358e-11
2.72419e-09
2.68645e-11
2.69798e-09
2.62173e-11
2.67239e-09
2.55924e-11
2.6474e-09
2.49881e-11
2.62299e-09
2.44028e-11
2.59916e-09
2.38352e-11
2.57588e-09
2.32838e-11
2.55313e-09
2.27475e-11
2.5309e-09
2.2225e-11
2.50919e-09
2.17153e-11
2.48797e-09
2.12174e-11
2.46724e-09
2.07303e-11
2.44699e-09
2.02532e-11
2.4272e-09
1.97852e-11
2.40788e-09
1.93256e-11
2.389e-09
1.88738e-11
2.37057e-09
1.84292e-11
2.35258e-09
1.79913e-11
2.33502e-09
1.75596e-11
2.31789e-09
1.71338e-11
2.30117e-09
1.67137e-11
2.28487e-09
1.62992e-11
2.26898e-09
1.58904e-11
2.2535e-09
1.54872e-11
2.23841e-09
1.50902e-11
2.22371e-09
1.46999e-11
2.20939e-09
1.43171e-11
2.19545e-09
1.39428e-11
2.18187e-09
1.35785e-11
2.16864e-09
1.3226e-11
2.15576e-09
1.28878e-11
2.14319e-09
1.25674e-11
2.13092e-09
1.22693e-11
2.11892e-09
1.2001e-11
2.10714e-09
1.17753e-11
2.09552e-09
1.16181e-11
2.08393e-09
1.15921e-11
2.07213e-09
1.18052e-11
2.05893e-09
1.3196e-11
3.54517e-11
3.5982e-08
3.2177e-09
-3.6275e-08
3.53616e-08
3.52736e-09
3.44949e-08
3.59636e-09
3.34599e-08
3.55189e-09
3.23138e-08
3.43222e-09
3.11044e-08
3.25261e-09
2.98707e-08
3.03031e-09
2.86431e-08
2.7824e-09
2.74444e-08
2.52365e-09
2.62909e-08
2.26645e-09
2.51936e-08
2.02068e-09
2.41588e-08
1.79346e-09
2.31894e-08
1.58907e-09
2.22857e-08
1.4092e-09
2.1446e-08
1.2535e-09
2.06676e-08
1.12022e-09
1.99468e-08
1.0068e-09
1.92797e-08
9.10382e-10
1.86622e-08
8.28137e-10
1.80901e-08
7.57525e-10
1.75596e-08
6.96378e-10
1.70669e-08
6.42921e-10
1.66087e-08
5.95752e-10
1.61817e-08
5.53779e-10
1.57833e-08
5.16166e-10
1.54106e-08
4.82272e-10
1.50615e-08
4.51597e-10
1.47338e-08
4.23751e-10
1.44255e-08
3.98414e-10
1.41351e-08
3.75323e-10
1.38608e-08
3.5425e-10
1.36013e-08
3.34998e-10
1.33555e-08
3.17388e-10
1.3122e-08
3.01263e-10
1.28999e-08
2.86478e-10
1.26884e-08
2.72903e-10
1.24864e-08
2.60417e-10
1.22934e-08
2.48915e-10
1.21086e-08
2.38298e-10
1.19314e-08
2.28479e-10
1.17612e-08
2.1938e-10
1.15976e-08
2.1093e-10
1.14402e-08
2.03067e-10
1.12884e-08
1.95734e-10
1.11419e-08
1.8888e-10
1.10005e-08
1.82462e-10
1.08637e-08
1.7644e-10
1.07313e-08
1.70776e-10
1.06031e-08
1.65441e-10
1.04788e-08
1.60405e-10
1.03583e-08
1.55643e-10
1.02412e-08
1.51131e-10
1.01274e-08
1.4685e-10
1.00168e-08
1.42779e-10
9.90927e-09
1.38904e-10
9.80456e-09
1.35207e-10
9.7026e-09
1.31675e-10
9.60327e-09
1.28295e-10
9.50644e-09
1.25056e-10
9.41203e-09
1.21947e-10
9.31994e-09
1.18958e-10
9.23008e-09
1.1608e-10
9.14236e-09
1.13304e-10
9.05673e-09
1.10623e-10
8.9731e-09
1.08029e-10
8.89142e-09
1.05516e-10
8.81163e-09
1.03077e-10
8.73367e-09
1.00707e-10
8.6575e-09
9.83996e-11
8.58306e-09
9.61504e-11
8.51032e-09
9.39542e-11
8.43925e-09
9.18067e-11
8.3698e-09
8.97036e-11
8.30194e-09
8.7641e-11
8.23565e-09
8.56153e-11
8.1709e-09
8.36232e-11
8.10767e-09
8.16617e-11
8.04593e-09
7.97279e-11
7.98567e-09
7.78197e-11
7.92687e-09
7.59349e-11
7.86951e-09
7.40719e-11
7.81358e-09
7.22296e-11
7.75907e-09
7.04073e-11
7.70595e-09
6.86049e-11
7.65422e-09
6.6823e-11
7.60385e-09
6.50629e-11
7.55484e-09
6.33269e-11
7.50717e-09
6.16182e-11
7.4608e-09
5.99416e-11
7.41573e-09
5.83032e-11
7.3719e-09
5.67114e-11
7.32929e-09
5.51776e-11
7.28784e-09
5.37182e-11
7.24749e-09
5.23581e-11
7.20812e-09
5.11407e-11
7.16959e-09
5.01532e-11
7.13158e-09
4.95965e-11
7.09334e-09
5.00467e-11
7.05032e-09
5.62146e-11
9.54749e-11
4.06539e-08
3.05635e-09
-4.04926e-08
4.07311e-08
3.45021e-09
4.0679e-08
3.64843e-09
4.04995e-08
3.73141e-09
4.02003e-08
3.73136e-09
3.97939e-08
3.65905e-09
3.92968e-08
3.52739e-09
3.87271e-08
3.35209e-09
3.81023e-08
3.14842e-09
3.74387e-08
2.93012e-09
3.67503e-08
2.70901e-09
3.60493e-08
2.49444e-09
3.53454e-08
2.29299e-09
3.4646e-08
2.10858e-09
3.39567e-08
1.94281e-09
3.32814e-08
1.79557e-09
3.26226e-08
1.66558e-09
3.1982e-08
1.55095e-09
3.13606e-08
1.44957e-09
3.07587e-08
1.35938e-09
3.01766e-08
1.27855e-09
2.9614e-08
1.20553e-09
2.90706e-08
1.13907e-09
2.85463e-08
1.07816e-09
2.80404e-08
1.02205e-09
2.75525e-08
9.70149e-10
2.70821e-08
9.21987e-10
2.66287e-08
8.77204e-10
2.61916e-08
8.35505e-10
2.57702e-08
7.9664e-10
2.53641e-08
7.60394e-10
2.49725e-08
7.26574e-10
2.45949e-08
6.95004e-10
2.42306e-08
6.65522e-10
2.38792e-08
6.37975e-10
2.35398e-08
6.12222e-10
2.32121e-08
5.8813e-10
2.28955e-08
5.65573e-10
2.25893e-08
5.44436e-10
2.22932e-08
5.24611e-10
2.20066e-08
5.05997e-10
2.1729e-08
4.88502e-10
2.146e-08
4.72039e-10
2.11992e-08
4.5653e-10
2.09462e-08
4.41902e-10
2.07006e-08
4.28087e-10
2.0462e-08
4.15024e-10
2.02301e-08
4.02656e-10
2.00046e-08
3.90931e-10
1.97852e-08
3.79801e-10
1.95717e-08
3.69222e-10
1.93636e-08
3.59153e-10
1.91609e-08
3.49557e-10
1.89633e-08
3.404e-10
1.87706e-08
3.31649e-10
1.85825e-08
3.23276e-10
1.83989e-08
3.15253e-10
1.82197e-08
3.07555e-10
1.80446e-08
3.00159e-10
1.78735e-08
2.93042e-10
1.77062e-08
2.86186e-10
1.75427e-08
2.7957e-10
1.73829e-08
2.73179e-10
1.72265e-08
2.66994e-10
1.70735e-08
2.61001e-10
1.69239e-08
2.55185e-10
1.67774e-08
2.49533e-10
1.66341e-08
2.44032e-10
1.64938e-08
2.38669e-10
1.63565e-08
2.33435e-10
1.62222e-08
2.28317e-10
1.60907e-08
2.23305e-10
1.5962e-08
2.1839e-10
1.5836e-08
2.13564e-10
1.57128e-08
2.08817e-10
1.55923e-08
2.04142e-10
1.54745e-08
1.99531e-10
1.53592e-08
1.94978e-10
1.52466e-08
1.90477e-10
1.51365e-08
1.86023e-10
1.50289e-08
1.81611e-10
1.49239e-08
1.77237e-10
1.48214e-08
1.729e-10
1.47214e-08
1.68598e-10
1.46239e-08
1.64331e-10
1.45289e-08
1.60101e-10
1.44363e-08
1.55911e-10
1.43462e-08
1.51767e-10
1.42584e-08
1.47678e-10
1.41731e-08
1.43656e-10
1.40901e-08
1.39717e-10
1.40093e-08
1.35884e-10
1.39309e-08
1.32188e-10
1.38546e-08
1.2868e-10
1.37803e-08
1.25444e-10
1.37078e-08
1.22652e-10
1.36366e-08
1.20708e-10
1.35657e-08
1.20957e-10
1.34911e-08
1.30823e-10
1.73636e-10
4.51603e-08
2.85592e-09
-4.49599e-08
4.53763e-08
3.23422e-09
4.55561e-08
3.46865e-09
4.56838e-08
3.6037e-09
4.57503e-08
3.66483e-09
4.57489e-08
3.66046e-09
4.56776e-08
3.5987e-09
4.55387e-08
3.49094e-09
4.53376e-08
3.34952e-09
4.50815e-08
3.18623e-09
4.47788e-08
3.01176e-09
4.4438e-08
2.83518e-09
4.40676e-08
2.66345e-09
4.36748e-08
2.50134e-09
4.32661e-08
2.35158e-09
4.28464e-08
2.21522e-09
4.24199e-08
2.09209e-09
4.19896e-08
1.98126e-09
4.15578e-08
1.8814e-09
4.11261e-08
1.79105e-09
4.06958e-08
1.70882e-09
4.02679e-08
1.63346e-09
3.9843e-08
1.56394e-09
3.94218e-08
1.4994e-09
3.90046e-08
1.4392e-09
3.8592e-08
1.38281e-09
3.81841e-08
1.32983e-09
3.77814e-08
1.27994e-09
3.7384e-08
1.2329e-09
3.69921e-08
1.1885e-09
3.6606e-08
1.14656e-09
3.62256e-08
1.10691e-09
3.58512e-08
1.06942e-09
3.54828e-08
1.03395e-09
3.51204e-08
1.00037e-09
3.4764e-08
9.68575e-10
3.44137e-08
9.38441e-10
3.40694e-08
9.09866e-10
3.37311e-08
8.82749e-10
3.33987e-08
8.56996e-10
3.30722e-08
8.32517e-10
3.27515e-08
8.09229e-10
3.24365e-08
7.87054e-10
3.21271e-08
7.6592e-10
3.18232e-08
7.45759e-10
3.15248e-08
7.26508e-10
3.12317e-08
7.08108e-10
3.09439e-08
6.90505e-10
3.06612e-08
6.73647e-10
3.03835e-08
6.57487e-10
3.01107e-08
6.41981e-10
2.98428e-08
6.27087e-10
2.95796e-08
6.12767e-10
2.9321e-08
5.98985e-10
2.90669e-08
5.85707e-10
2.88173e-08
5.72902e-10
2.8572e-08
5.60539e-10
2.8331e-08
5.4859e-10
2.80941e-08
5.3703e-10
2.78613e-08
5.25832e-10
2.76325e-08
5.14974e-10
2.74077e-08
5.04433e-10
2.71867e-08
4.94187e-10
2.69694e-08
4.84217e-10
2.67559e-08
4.74503e-10
2.65461e-08
4.65026e-10
2.63399e-08
4.55768e-10
2.61372e-08
4.46713e-10
2.5938e-08
4.37845e-10
2.57423e-08
4.29148e-10
2.555e-08
4.20606e-10
2.53611e-08
4.12205e-10
2.51756e-08
4.03933e-10
2.49933e-08
3.95774e-10
2.48144e-08
3.87717e-10
2.46388e-08
3.7975e-10
2.44665e-08
3.71862e-10
2.42974e-08
3.64042e-10
2.41316e-08
3.56281e-10
2.39691e-08
3.4857e-10
2.38098e-08
3.40901e-10
2.36538e-08
3.3327e-10
2.3501e-08
3.25672e-10
2.33515e-08
3.18103e-10
2.32053e-08
3.10564e-10
2.30623e-08
3.03056e-10
2.29226e-08
2.95585e-10
2.27862e-08
2.88159e-10
2.26531e-08
2.80792e-10
2.25233e-08
2.735e-10
2.23967e-08
2.66311e-10
2.22733e-08
2.59259e-10
2.21531e-08
2.52395e-10
2.2036e-08
2.45797e-10
2.19218e-08
2.39596e-10
2.18104e-08
2.34054e-10
2.17014e-08
2.29791e-10
2.15936e-08
2.28759e-10
2.1486e-08
2.38341e-10
2.72973e-10
5.00484e-08
2.68533e-09
-4.98778e-08
5.02616e-08
3.02102e-09
5.04756e-08
3.25467e-09
5.06738e-08
3.40541e-09
5.08473e-08
3.49142e-09
5.0987e-08
3.52077e-09
5.10861e-08
3.49956e-09
5.11409e-08
3.4361e-09
5.11505e-08
3.33992e-09
5.11162e-08
3.22052e-09
5.10412e-08
3.08676e-09
5.093e-08
2.9464e-09
5.07877e-08
2.80581e-09
5.06193e-08
2.66966e-09
5.04299e-08
2.54104e-09
5.02235e-08
2.4216e-09
5.00037e-08
2.31188e-09
4.97733e-08
2.21168e-09
4.95344e-08
2.12029e-09
4.92887e-08
2.03677e-09
4.90373e-08
1.96016e-09
4.87813e-08
1.8895e-09
4.85213e-08
1.82397e-09
4.82578e-08
1.76287e-09
4.79914e-08
1.70565e-09
4.77223e-08
1.65184e-09
4.74511e-08
1.60109e-09
4.71779e-08
1.55312e-09
4.69031e-08
1.50769e-09
4.6627e-08
1.46463e-09
4.63498e-08
1.42376e-09
4.60717e-08
1.38495e-09
4.57931e-08
1.34807e-09
4.5514e-08
1.313e-09
4.52348e-08
1.27962e-09
4.49555e-08
1.24785e-09
4.46764e-08
1.21756e-09
4.43976e-08
1.18869e-09
4.41192e-08
1.16112e-09
4.38414e-08
1.13478e-09
4.35643e-08
1.10959e-09
4.32881e-08
1.08547e-09
4.30128e-08
1.06236e-09
4.27385e-08
1.04018e-09
4.24654e-08
1.01889e-09
4.21935e-08
9.98406e-10
4.19229e-08
9.78693e-10
4.16537e-08
9.59696e-10
4.1386e-08
9.4137e-10
4.11198e-08
9.23672e-10
4.08552e-08
9.0656e-10
4.05923e-08
8.89999e-10
4.03311e-08
8.73952e-10
4.00717e-08
8.58388e-10
3.98142e-08
8.43274e-10
3.95585e-08
8.28583e-10
3.93047e-08
8.14287e-10
3.9053e-08
8.00361e-10
3.88032e-08
7.86779e-10
3.85555e-08
7.73518e-10
3.831e-08
7.60557e-10
3.80665e-08
7.47875e-10
3.78253e-08
7.3545e-10
3.75862e-08
7.23263e-10
3.73494e-08
7.11297e-10
3.71149e-08
6.99531e-10
3.68827e-08
6.87949e-10
3.66529e-08
6.76534e-10
3.64255e-08
6.65268e-10
3.62005e-08
6.54135e-10
3.5978e-08
6.4312e-10
3.5758e-08
6.32207e-10
3.55405e-08
6.2138e-10
3.53257e-08
6.10626e-10
3.51135e-08
5.9993e-10
3.49039e-08
5.89277e-10
3.46971e-08
5.78657e-10
3.44931e-08
5.68055e-10
3.4292e-08
5.57462e-10
3.40937e-08
5.46866e-10
3.38983e-08
5.36259e-10
3.37059e-08
5.25635e-10
3.35166e-08
5.14988e-10
3.33304e-08
5.04314e-10
3.31474e-08
4.93615e-10
3.29675e-08
4.82892e-10
3.2791e-08
4.72155e-10
3.26177e-08
4.61415e-10
3.24478e-08
4.5069e-10
3.22813e-08
4.40005e-10
3.21182e-08
4.29398e-10
3.19585e-08
4.18916e-10
3.18023e-08
4.0863e-10
3.16495e-08
3.98645e-10
3.14999e-08
3.89137e-10
3.13535e-08
3.80438e-10
3.121e-08
3.73295e-10
3.10691e-08
3.69697e-10
3.09326e-08
3.74835e-10
3.92737e-10
5.54434e-08
2.54669e-09
-5.53048e-08
5.56285e-08
2.83599e-09
5.58282e-08
3.05496e-09
5.6026e-08
3.20755e-09
5.62133e-08
3.30416e-09
5.63825e-08
3.35154e-09
5.65273e-08
3.35474e-09
5.66434e-08
3.32004e-09
5.67284e-08
3.25486e-09
5.67821e-08
3.16688e-09
5.68055e-08
3.06337e-09
5.6801e-08
2.9509e-09
5.67717e-08
2.83504e-09
5.67213e-08
2.72011e-09
5.66531e-08
2.60921e-09
5.65704e-08
2.50429e-09
5.6476e-08
2.40635e-09
5.6372e-08
2.31567e-09
5.62602e-08
2.23204e-09
5.6142e-08
2.15499e-09
5.60183e-08
2.08389e-09
5.58897e-08
2.01808e-09
5.57567e-08
1.95693e-09
5.56197e-08
1.8999e-09
5.54788e-08
1.8465e-09
5.53343e-08
1.79636e-09
5.51863e-08
1.74913e-09
5.50348e-08
1.70457e-09
5.48801e-08
1.66245e-09
5.47221e-08
1.62258e-09
5.45611e-08
1.58481e-09
5.4397e-08
1.54899e-09
5.42301e-08
1.515e-09
5.40604e-08
1.48273e-09
5.38879e-08
1.45205e-09
5.37129e-08
1.42288e-09
5.35354e-08
1.3951e-09
5.33554e-08
1.36863e-09
5.31732e-08
1.34338e-09
5.29887e-08
1.31927e-09
5.2802e-08
1.29622e-09
5.26134e-08
1.27415e-09
5.24227e-08
1.25299e-09
5.22302e-08
1.23269e-09
5.20359e-08
1.21317e-09
5.184e-08
1.19438e-09
5.16424e-08
1.17627e-09
5.14433e-08
1.15878e-09
5.12428e-08
1.14188e-09
5.1041e-08
1.12552e-09
5.08379e-08
1.10965e-09
5.06336e-08
1.09425e-09
5.04283e-08
1.07927e-09
5.0222e-08
1.06468e-09
5.00148e-08
1.05046e-09
4.98068e-08
1.03657e-09
4.95981e-08
1.02298e-09
4.93888e-08
1.00968e-09
4.9179e-08
9.9663e-10
4.89687e-08
9.83814e-10
4.8758e-08
9.71208e-10
4.85471e-08
9.58792e-10
4.8336e-08
9.46544e-10
4.81248e-08
9.34445e-10
4.79137e-08
9.22476e-10
4.77026e-08
9.10619e-10
4.74917e-08
8.98854e-10
4.7281e-08
8.87164e-10
4.70708e-08
8.75532e-10
4.6861e-08
8.63941e-10
4.66517e-08
8.52373e-10
4.64431e-08
8.40812e-10
4.62352e-08
8.29241e-10
4.60282e-08
8.17645e-10
4.58222e-08
8.06008e-10
4.56171e-08
7.94314e-10
4.54132e-08
7.82551e-10
4.52106e-08
7.70702e-10
4.50093e-08
7.58757e-10
4.48094e-08
7.46703e-10
4.46112e-08
7.34531e-10
4.44146e-08
7.22233e-10
4.42198e-08
7.09802e-10
4.40268e-08
6.97237e-10
4.38359e-08
6.84537e-10
4.36471e-08
6.71707e-10
4.34605e-08
6.58757e-10
4.32762e-08
6.45704e-10
4.30943e-08
6.3257e-10
4.29149e-08
6.19388e-10
4.27381e-08
6.06205e-10
4.2564e-08
5.93081e-10
4.23925e-08
5.80105e-10
4.22237e-08
5.67403e-10
4.20577e-08
5.5518e-10
4.18943e-08
5.43794e-10
4.17337e-08
5.33946e-10
4.15763e-08
5.27074e-10
4.14259e-08
5.25259e-10
5.23807e-10
6.14084e-08
2.43324e-09
-6.1295e-08
6.1564e-08
2.68038e-09
6.17394e-08
2.87959e-09
6.19192e-08
3.02779e-09
6.20943e-08
3.12903e-09
6.22581e-08
3.18776e-09
6.24049e-08
3.2079e-09
6.25308e-08
3.19415e-09
6.26335e-08
3.1522e-09
6.27122e-08
3.08817e-09
6.27675e-08
3.00805e-09
6.2801e-08
2.91736e-09
6.28151e-08
2.82093e-09
6.28125e-08
2.7227e-09
6.27961e-08
2.6257e-09
6.27683e-08
2.53202e-09
6.27317e-08
2.44296e-09
6.26882e-08
2.35921e-09
6.26392e-08
2.28098e-09
6.25861e-08
2.20815e-09
6.25295e-08
2.14043e-09
6.24702e-08
2.07743e-09
6.24084e-08
2.01874e-09
6.23443e-08
1.96395e-09
6.22781e-08
1.9127e-09
6.22098e-08
1.86465e-09
6.21394e-08
1.81952e-09
6.20669e-08
1.77708e-09
6.19923e-08
1.73711e-09
6.19154e-08
1.69944e-09
6.18363e-08
1.6639e-09
6.1755e-08
1.63035e-09
6.16713e-08
1.59867e-09
6.15853e-08
1.56872e-09
6.14969e-08
1.54041e-09
6.14062e-08
1.51361e-09
6.13131e-08
1.48823e-09
6.12175e-08
1.46417e-09
6.11196e-08
1.44134e-09
6.10192e-08
1.41966e-09
6.09164e-08
1.39903e-09
6.08111e-08
1.3794e-09
6.07035e-08
1.36067e-09
6.05934e-08
1.34278e-09
6.04809e-08
1.32567e-09
6.0366e-08
1.30928e-09
6.02487e-08
1.29355e-09
6.0129e-08
1.27842e-09
6.00071e-08
1.26386e-09
5.98828e-08
1.2498e-09
5.97562e-08
1.23621e-09
5.96274e-08
1.22305e-09
5.94964e-08
1.21028e-09
5.93632e-08
1.19785e-09
5.92279e-08
1.18575e-09
5.90906e-08
1.17394e-09
5.89512e-08
1.16238e-09
5.88098e-08
1.15105e-09
5.86665e-08
1.13992e-09
5.85214e-08
1.12897e-09
5.83744e-08
1.11817e-09
5.82257e-08
1.1075e-09
5.80753e-08
1.09693e-09
5.79233e-08
1.08644e-09
5.77698e-08
1.07601e-09
5.76148e-08
1.06562e-09
5.74584e-08
1.05524e-09
5.73007e-08
1.04487e-09
5.71418e-08
1.03447e-09
5.69817e-08
1.02402e-09
5.68205e-08
1.01352e-09
5.66584e-08
1.00293e-09
5.64954e-08
9.92236e-10
5.63317e-08
9.81424e-10
5.61672e-08
9.70472e-10
5.60021e-08
9.59362e-10
5.58366e-08
9.48077e-10
5.56707e-08
9.366e-10
5.55046e-08
9.24916e-10
5.53383e-08
9.13009e-10
5.51719e-08
9.00868e-10
5.50057e-08
8.88482e-10
5.48396e-08
8.75843e-10
5.46739e-08
8.62947e-10
5.45087e-08
8.49794e-10
5.4344e-08
8.36389e-10
5.418e-08
8.22741e-10
5.40168e-08
8.08869e-10
5.38546e-08
7.948e-10
5.36934e-08
7.80571e-10
5.35334e-08
7.66235e-10
5.33746e-08
7.51864e-10
5.32171e-08
7.37555e-10
5.30611e-08
7.23447e-10
5.29065e-08
7.09746e-10
5.27536e-08
6.96774e-10
5.26025e-08
6.85028e-10
5.24544e-08
6.75117e-10
5.23133e-08
6.66439e-10
6.50068e-10
6.80023e-08
2.3401e-09
-6.79092e-08
6.81308e-08
2.55197e-09
6.82796e-08
2.73076e-09
6.84361e-08
2.87124e-09
6.85917e-08
2.9735e-09
6.87398e-08
3.03963e-09
6.88754e-08
3.07226e-09
6.89948e-08
3.07477e-09
6.90956e-08
3.05138e-09
6.9177e-08
3.00684e-09
6.9239e-08
2.94597e-09
6.9283e-08
2.87337e-09
6.93108e-08
2.7932e-09
6.93245e-08
2.709e-09
6.93265e-08
2.62364e-09
6.93193e-08
2.53928e-09
6.93048e-08
2.45745e-09
6.92849e-08
2.37911e-09
6.92611e-08
2.3048e-09
6.92344e-08
2.23475e-09
6.92059e-08
2.16897e-09
6.9176e-08
2.1073e-09
6.91452e-08
2.04955e-09
6.91137e-08
1.99545e-09
6.90817e-08
1.94475e-09
6.90491e-08
1.89721e-09
6.90161e-08
1.8526e-09
6.89824e-08
1.81071e-09
6.89482e-08
1.77136e-09
6.89132e-08
1.73437e-09
6.88775e-08
1.6996e-09
6.8841e-08
1.6669e-09
6.88035e-08
1.63614e-09
6.8765e-08
1.6072e-09
6.87255e-08
1.57996e-09
6.86848e-08
1.55431e-09
6.86429e-08
1.53015e-09
6.85997e-08
1.50737e-09
6.85551e-08
1.48589e-09
6.85091e-08
1.46562e-09
6.84617e-08
1.44646e-09
6.84128e-08
1.42835e-09
6.83622e-08
1.41119e-09
6.83101e-08
1.39493e-09
6.82563e-08
1.37949e-09
6.82008e-08
1.3648e-09
6.81435e-08
1.35082e-09
6.80844e-08
1.33748e-09
6.80236e-08
1.32472e-09
6.79609e-08
1.31251e-09
6.78963e-08
1.30079e-09
6.78298e-08
1.28951e-09
6.77615e-08
1.27865e-09
6.76912e-08
1.26815e-09
6.76189e-08
1.25798e-09
6.75448e-08
1.2481e-09
6.74687e-08
1.23849e-09
6.73906e-08
1.22911e-09
6.73106e-08
1.21993e-09
6.72286e-08
1.21092e-09
6.71448e-08
1.20205e-09
6.7059e-08
1.1933e-09
6.69713e-08
1.18463e-09
6.68817e-08
1.17603e-09
6.67902e-08
1.16747e-09
6.66969e-08
1.15892e-09
6.66018e-08
1.15036e-09
6.65049e-08
1.14177e-09
6.64062e-08
1.13312e-09
6.63059e-08
1.12438e-09
6.62038e-08
1.11554e-09
6.61002e-08
1.10657e-09
6.5995e-08
1.09744e-09
6.58883e-08
1.08815e-09
6.57801e-08
1.07865e-09
6.56705e-08
1.06893e-09
6.55596e-08
1.05898e-09
6.54475e-08
1.04876e-09
6.53341e-08
1.03825e-09
6.52197e-08
1.02745e-09
6.51042e-08
1.01633e-09
6.49878e-08
1.00488e-09
6.48706e-08
9.93095e-10
6.47526e-08
9.80957e-10
6.46339e-08
9.68467e-10
6.45146e-08
9.5563e-10
6.43949e-08
9.42453e-10
6.42748e-08
9.28955e-10
6.41545e-08
9.15163e-10
6.40339e-08
9.01119e-10
6.39133e-08
8.86875e-10
6.37926e-08
8.72509e-10
6.36721e-08
8.5812e-10
6.35517e-08
8.43845e-10
6.34316e-08
8.29866e-10
6.33119e-08
8.1642e-10
6.31932e-08
8.03747e-10
6.30766e-08
7.91759e-10
6.29645e-08
7.78526e-10
7.55662e-10
6.76716e-08
2.27125e-09
-6.76027e-08
6.7766e-08
2.45753e-09
6.78773e-08
2.61947e-09
6.79967e-08
2.75183e-09
6.81174e-08
2.85288e-09
6.82339e-08
2.92306e-09
6.83423e-08
2.96393e-09
6.84392e-08
2.97783e-09
6.85227e-08
2.96791e-09
6.85917e-08
2.93783e-09
6.86461e-08
2.89149e-09
6.86868e-08
2.83275e-09
6.87148e-08
2.76521e-09
6.87317e-08
2.69204e-09
6.87394e-08
2.61594e-09
6.87396e-08
2.53906e-09
6.8734e-08
2.46304e-09
6.87241e-08
2.38904e-09
6.87111e-08
2.31783e-09
6.86959e-08
2.24988e-09
6.86795e-08
2.18542e-09
6.86623e-08
2.12451e-09
6.86447e-08
2.0671e-09
6.86271e-08
2.01307e-09
6.86096e-08
1.96229e-09
6.85922e-08
1.91457e-09
6.85751e-08
1.86974e-09
6.85581e-08
1.82764e-09
6.85414e-08
1.78811e-09
6.85248e-08
1.75098e-09
6.85083e-08
1.71611e-09
6.84918e-08
1.68337e-09
6.84753e-08
1.65263e-09
6.84587e-08
1.62377e-09
6.8442e-08
1.59668e-09
6.84251e-08
1.57123e-09
6.84079e-08
1.54733e-09
6.83904e-08
1.52488e-09
6.83725e-08
1.50378e-09
6.83542e-08
1.48394e-09
6.83354e-08
1.46528e-09
6.8316e-08
1.44771e-09
6.82961e-08
1.43115e-09
6.82754e-08
1.41553e-09
6.82541e-08
1.40079e-09
6.82321e-08
1.38685e-09
6.82093e-08
1.37365e-09
6.81856e-08
1.36115e-09
6.8161e-08
1.34927e-09
6.81356e-08
1.33797e-09
6.81092e-08
1.3272e-09
6.80818e-08
1.31692e-09
6.80533e-08
1.30708e-09
6.80238e-08
1.29764e-09
6.79933e-08
1.28856e-09
6.79616e-08
1.2798e-09
6.79287e-08
1.27134e-09
6.78947e-08
1.26313e-09
6.78595e-08
1.25514e-09
6.78231e-08
1.24734e-09
6.77854e-08
1.2397e-09
6.77465e-08
1.2322e-09
6.77064e-08
1.2248e-09
6.76649e-08
1.21748e-09
6.76222e-08
1.2102e-09
6.75782e-08
1.20294e-09
6.75328e-08
1.19568e-09
6.74862e-08
1.18839e-09
6.74383e-08
1.18104e-09
6.73891e-08
1.17361e-09
6.73385e-08
1.16606e-09
6.72867e-08
1.15838e-09
6.72336e-08
1.15053e-09
6.71793e-08
1.1425e-09
6.71237e-08
1.13425e-09
6.70668e-08
1.12576e-09
6.70088e-08
1.11701e-09
6.69496e-08
1.10797e-09
6.68892e-08
1.09862e-09
6.68277e-08
1.08894e-09
6.67652e-08
1.0789e-09
6.67015e-08
1.0685e-09
6.66369e-08
1.05771e-09
6.65713e-08
1.04654e-09
6.65048e-08
1.03496e-09
6.64375e-08
1.02299e-09
6.63693e-08
1.01063e-09
6.63004e-08
9.97892e-10
6.62307e-08
9.84813e-10
6.61604e-08
9.71428e-10
6.60895e-08
9.57793e-10
6.6018e-08
9.43983e-10
6.59461e-08
9.30094e-10
6.58736e-08
9.16251e-10
6.58009e-08
9.02604e-10
6.5728e-08
8.89306e-10
6.56554e-08
8.76416e-10
6.55836e-08
8.63539e-10
6.55134e-08
8.48747e-10
8.26229e-10
8.54872e-08
2.20968e-09
-8.54256e-08
8.55708e-08
2.37395e-09
8.56701e-08
2.5201e-09
8.57784e-08
2.64361e-09
8.58892e-08
2.74198e-09
8.59978e-08
2.81453e-09
8.60999e-08
2.86178e-09
8.61926e-08
2.88519e-09
8.62736e-08
2.8869e-09
8.63418e-08
2.86964e-09
8.63968e-08
2.83645e-09
8.64391e-08
2.79046e-09
8.64696e-08
2.73472e-09
8.64896e-08
2.67204e-09
8.65006e-08
2.6049e-09
8.65043e-08
2.53538e-09
8.65022e-08
2.46517e-09
8.64956e-08
2.39559e-09
8.64859e-08
2.32758e-09
8.64739e-08
2.26182e-09
8.64606e-08
2.19873e-09
8.64466e-08
2.13858e-09
8.64322e-08
2.08147e-09
8.64178e-08
2.02742e-09
8.64037e-08
1.97639e-09
8.639e-08
1.92828e-09
8.63768e-08
1.88299e-09
8.6364e-08
1.84039e-09
8.63518e-08
1.80035e-09
8.634e-08
1.76273e-09
8.63287e-08
1.72741e-09
8.63179e-08
1.69424e-09
8.63074e-08
1.66312e-09
8.62972e-08
1.63392e-09
8.62874e-08
1.60653e-09
8.62778e-08
1.58084e-09
8.62683e-08
1.55674e-09
8.62591e-08
1.53413e-09
8.625e-08
1.51292e-09
8.62409e-08
1.49302e-09
8.62318e-08
1.47433e-09
8.62227e-08
1.45679e-09
8.62136e-08
1.44029e-09
8.62044e-08
1.42478e-09
8.6195e-08
1.41019e-09
8.61854e-08
1.39644e-09
8.61755e-08
1.38347e-09
8.61655e-08
1.37123e-09
8.61551e-08
1.35966e-09
8.61443e-08
1.3487e-09
8.61332e-08
1.33831e-09
8.61217e-08
1.32844e-09
8.61098e-08
1.31904e-09
8.60973e-08
1.31008e-09
8.60844e-08
1.30151e-09
8.60709e-08
1.29329e-09
8.60568e-08
1.28539e-09
8.60422e-08
1.27778e-09
8.60269e-08
1.27042e-09
8.60109e-08
1.26328e-09
8.59943e-08
1.25632e-09
8.5977e-08
1.24952e-09
8.59589e-08
1.24285e-09
8.59401e-08
1.23628e-09
8.59206e-08
1.22978e-09
8.59002e-08
1.22332e-09
8.5879e-08
1.21687e-09
8.5857e-08
1.21042e-09
8.58341e-08
1.20392e-09
8.58104e-08
1.19735e-09
8.57857e-08
1.19068e-09
8.57602e-08
1.18389e-09
8.57338e-08
1.17695e-09
8.57065e-08
1.16982e-09
8.56783e-08
1.1625e-09
8.56491e-08
1.15493e-09
8.5619e-08
1.14711e-09
8.5588e-08
1.139e-09
8.5556e-08
1.13057e-09
8.55231e-08
1.12182e-09
8.54893e-08
1.1127e-09
8.54546e-08
1.10321e-09
8.5419e-08
1.09333e-09
8.53825e-08
1.08305e-09
8.53451e-08
1.07235e-09
8.53069e-08
1.06125e-09
8.52678e-08
1.04974e-09
8.52278e-08
1.03784e-09
8.5187e-08
1.02557e-09
8.51455e-08
1.01299e-09
8.51032e-08
1.00013e-09
8.50601e-08
9.87074e-10
8.50162e-08
9.73907e-10
8.49718e-08
9.60737e-10
8.49267e-08
9.47675e-10
8.48812e-08
9.34809e-10
8.48355e-08
9.22107e-10
8.47898e-08
9.09205e-10
8.47436e-08
8.9499e-10
8.77505e-10
1.08014e-07
2.16394e-09
-1.07969e-07
1.08076e-07
2.312e-09
1.08151e-07
2.44577e-09
1.08233e-07
2.56151e-09
1.08318e-07
2.6566e-09
1.08403e-07
2.72979e-09
1.08484e-07
2.78091e-09
1.08558e-07
2.81074e-09
1.08624e-07
2.82072e-09
1.08681e-07
2.81287e-09
1.08728e-07
2.78957e-09
1.08765e-07
2.75338e-09
1.08793e-07
2.70689e-09
1.08812e-07
2.65259e-09
1.08824e-07
2.59275e-09
1.0883e-07
2.52936e-09
1.08832e-07
2.46412e-09
1.08829e-07
2.3984e-09
1.08823e-07
2.33329e-09
1.08815e-07
2.26958e-09
1.08806e-07
2.20787e-09
1.08796e-07
2.14854e-09
1.08786e-07
2.09183e-09
1.08775e-07
2.03788e-09
1.08765e-07
1.98673e-09
1.08755e-07
1.93835e-09
1.08745e-07
1.89269e-09
1.08736e-07
1.84967e-09
1.08727e-07
1.80917e-09
1.08719e-07
1.77109e-09
1.08711e-07
1.7353e-09
1.08703e-07
1.7017e-09
1.08696e-07
1.67016e-09
1.0869e-07
1.64056e-09
1.08683e-07
1.6128e-09
1.08678e-07
1.58676e-09
1.08672e-07
1.56234e-09
1.08667e-07
1.53945e-09
1.08662e-07
1.51798e-09
1.08657e-07
1.49784e-09
1.08652e-07
1.47895e-09
1.08648e-07
1.46122e-09
1.08643e-07
1.44457e-09
1.08639e-07
1.42894e-09
1.08635e-07
1.41424e-09
1.08631e-07
1.40041e-09
1.08627e-07
1.38738e-09
1.08623e-07
1.37511e-09
1.0862e-07
1.36353e-09
1.08616e-07
1.35258e-09
1.08612e-07
1.34222e-09
1.08608e-07
1.33241e-09
1.08604e-07
1.32308e-09
1.086e-07
1.31421e-09
1.08595e-07
1.30576e-09
1.08591e-07
1.29767e-09
1.08587e-07
1.28993e-09
1.08582e-07
1.28248e-09
1.08577e-07
1.27531e-09
1.08572e-07
1.26837e-09
1.08567e-07
1.26163e-09
1.08561e-07
1.25507e-09
1.08555e-07
1.24865e-09
1.08549e-07
1.24235e-09
1.08543e-07
1.23614e-09
1.08536e-07
1.22998e-09
1.08529e-07
1.22385e-09
1.08522e-07
1.21772e-09
1.08514e-07
1.21157e-09
1.08506e-07
1.20536e-09
1.08498e-07
1.19907e-09
1.08489e-07
1.19267e-09
1.0848e-07
1.18613e-09
1.0847e-07
1.17942e-09
1.0846e-07
1.17252e-09
1.0845e-07
1.1654e-09
1.08439e-07
1.15802e-09
1.08427e-07
1.15037e-09
1.08416e-07
1.14242e-09
1.08403e-07
1.13414e-09
1.0839e-07
1.12552e-09
1.08377e-07
1.11652e-09
1.08363e-07
1.10715e-09
1.08349e-07
1.09737e-09
1.08334e-07
1.08719e-09
1.08319e-07
1.07661e-09
1.08303e-07
1.06563e-09
1.08286e-07
1.05426e-09
1.08269e-07
1.04254e-09
1.08252e-07
1.0305e-09
1.08234e-07
1.01819e-09
1.08215e-07
1.00567e-09
1.08196e-07
9.93042e-10
1.08177e-07
9.8038e-10
1.08156e-07
9.67776e-10
1.08136e-07
9.55288e-10
1.08115e-07
9.42907e-10
1.08094e-07
9.30526e-10
1.08071e-07
9.18038e-10
9.06205e-10
1.36495e-07
-1.3648e-07
1.36517e-07
1.36545e-07
1.36577e-07
1.36612e-07
1.36648e-07
1.36683e-07
1.36717e-07
1.36748e-07
1.36776e-07
1.36801e-07
1.36821e-07
1.36838e-07
1.36851e-07
1.36861e-07
1.36868e-07
1.36873e-07
1.36876e-07
1.36877e-07
1.36877e-07
1.36877e-07
1.36875e-07
1.36873e-07
1.36871e-07
1.36869e-07
1.36867e-07
1.36865e-07
1.36863e-07
1.3686e-07
1.36858e-07
1.36856e-07
1.36854e-07
1.36853e-07
1.36851e-07
1.3685e-07
1.36848e-07
1.36847e-07
1.36845e-07
1.36844e-07
1.36843e-07
1.36842e-07
1.36841e-07
1.3684e-07
1.36839e-07
1.36838e-07
1.36837e-07
1.36837e-07
1.36836e-07
1.36835e-07
1.36834e-07
1.36834e-07
1.36833e-07
1.36832e-07
1.36832e-07
1.36831e-07
1.3683e-07
1.36829e-07
1.36828e-07
1.36827e-07
1.36827e-07
1.36826e-07
1.36824e-07
1.36823e-07
1.36822e-07
1.36821e-07
1.3682e-07
1.36818e-07
1.36817e-07
1.36815e-07
1.36813e-07
1.36812e-07
1.3681e-07
1.36808e-07
1.36805e-07
1.36803e-07
1.36801e-07
1.36798e-07
1.36795e-07
1.36792e-07
1.36789e-07
1.36786e-07
1.36782e-07
1.36779e-07
1.36775e-07
1.36771e-07
1.36767e-07
1.36762e-07
1.36758e-07
1.36753e-07
1.36748e-07
1.36742e-07
1.36737e-07
1.36731e-07
1.36725e-07
1.36718e-07
1.36712e-07
1.36705e-07
1.36698e-07
1.36689e-07
3.44604e-08
2.20089e-12
3.44581e-08
4.82997e-12
3.44546e-08
8.02116e-12
3.44499e-08
1.1896e-11
3.44436e-08
1.65926e-11
3.44356e-08
2.22693e-11
3.44255e-08
2.91069e-11
3.4413e-08
3.73084e-11
3.43974e-08
4.7101e-11
3.43784e-08
5.87398e-11
3.43553e-08
7.25133e-11
3.43273e-08
8.87522e-11
3.42936e-08
1.07845e-10
3.42532e-08
1.30265e-10
3.42049e-08
1.56613e-10
3.41471e-08
1.87693e-10
3.40779e-08
2.24655e-10
3.39944e-08
2.69239e-10
3.38928e-08
3.24278e-10
3.37664e-08
3.94747e-10
3.3604e-08
4.90297e-10
3.33832e-08
6.32225e-10
3.30513e-08
8.77218e-10
3.24431e-08
1.43171e-09
3.06226e-09
3.80474e-08
3.52111e-12
3.80449e-08
7.3366e-12
3.80411e-08
1.17879e-11
3.80359e-08
1.70735e-11
3.80291e-08
2.34015e-11
3.80204e-08
3.09996e-11
3.80094e-08
4.01174e-11
3.79957e-08
5.10292e-11
3.79787e-08
6.40381e-11
3.7958e-08
7.94824e-11
3.79328e-08
9.77438e-11
3.79023e-08
1.19261e-10
3.78655e-08
1.44553e-10
3.78216e-08
1.74255e-10
3.7769e-08
2.0919e-10
3.77062e-08
2.50473e-10
3.76311e-08
2.99718e-10
3.7541e-08
3.59403e-10
3.74317e-08
4.33573e-10
3.72971e-08
5.29312e-10
3.71273e-08
6.6006e-10
3.69057e-08
8.53898e-10
3.66071e-08
1.17574e-09
3.62518e-08
1.7871e-09
3.03904e-09
4.20078e-08
4.92678e-12
4.20051e-08
1.00438e-11
4.2001e-08
1.58583e-11
4.19954e-08
2.26729e-11
4.1988e-08
3.07696e-11
4.19786e-08
4.04495e-11
4.19667e-08
5.20366e-11
4.19518e-08
6.58821e-11
4.19335e-08
8.23708e-11
4.1911e-08
1.0193e-10
4.18837e-08
1.2504e-10
4.18507e-08
1.52252e-10
4.18111e-08
1.84219e-10
4.17636e-08
2.21741e-10
4.17069e-08
2.65855e-10
4.16394e-08
3.17971e-10
4.1559e-08
3.80124e-10
4.1463e-08
4.55418e-10
4.13477e-08
5.48845e-10
4.12082e-08
6.68887e-10
4.10375e-08
8.30761e-10
4.08282e-08
1.06313e-09
4.05831e-08
1.42086e-09
4.03699e-08
2.00029e-09
2.9164e-09
4.63804e-08
6.41727e-12
4.63775e-08
1.29404e-11