/*--------------------------------*- C++ -*----------------------------------*\
| =========                 |                                                 |
| \\      /  F ield         | OpenFOAM: The Open Source CFD Toolbox           |
|  \\    /   O peration     | Version:  2.3.0                                 |
|   \\  /    A nd           | Web:      www.OpenFOAM.org                      |
|    \\/     M anipulation  |                                                 |
\*---------------------------------------------------------------------------*/
FoamFile
{
    version     2.0;
    format      ascii;
    class       volVectorField;
    location    "0.7";
    object      U;
}
// * * * * * * * * * * * * * * * * * * * * * * * * * * * * * * * * * * * * * //

dimensions      [0 1 -1 0 0 0 0];

internalField   nonuniform List<vector> 
1500
(
(0.170766 0.0060515 0)
(0.154005 0.00612539 0)
(0.137878 0.0057033 0)
(0.122589 0.00509463 0)
(0.108558 0.00441774 0)
(0.0959656 0.00372762 0)
(0.084832 0.00306308 0)
(0.0751288 0.00245161 0)
(0.0668016 0.00191046 0)
(0.0597634 0.00144881 0)
(0.053895 0.00106916 0)
(0.0490555 0.00076822 0)
(0.0450947 0.000538229 0)
(0.0418643 0.000368736 0)
(0.0392259 0.000248342 0)
(0.0370571 0.000166059 0)
(0.0352542 0.000112145 0)
(0.0337328 7.84847e-05 0)
(0.0324269 5.86469e-05 0)
(0.0312859 4.77703e-05 0)
(0.0302726 4.2348e-05 0)
(0.0293599 3.99776e-05 0)
(0.0285282 3.91074e-05 0)
(0.0277635 3.88046e-05 0)
(0.0270559 3.85604e-05 0)
(0.0263978 3.81379e-05 0)
(0.0257836 3.74617e-05 0)
(0.0252087 3.65429e-05 0)
(0.0246693 3.54314e-05 0)
(0.0241623 3.41883e-05 0)
(0.0236848 3.28713e-05 0)
(0.0232341 3.15283e-05 0)
(0.022808 3.01953e-05 0)
(0.0224043 2.88977e-05 0)
(0.0220211 2.76519e-05 0)
(0.0216567 2.64671e-05 0)
(0.0213094 2.53477e-05 0)
(0.0209779 2.42943e-05 0)
(0.0206609 2.33054e-05 0)
(0.0203572 2.23779e-05 0)
(0.0200658 2.1508e-05 0)
(0.0197858 2.06917e-05 0)
(0.0195163 1.99246e-05 0)
(0.0192567 1.92027e-05 0)
(0.0190062 1.85223e-05 0)
(0.0187642 1.78798e-05 0)
(0.0185302 1.72719e-05 0)
(0.0183038 1.66957e-05 0)
(0.0180844 1.61485e-05 0)
(0.0178716 1.56281e-05 0)
(0.0176652 1.51323e-05 0)
(0.0174648 1.46591e-05 0)
(0.01727 1.42068e-05 0)
(0.0170806 1.3774e-05 0)
(0.0168963 1.33592e-05 0)
(0.016717 1.29611e-05 0)
(0.0165423 1.25787e-05 0)
(0.0163721 1.22108e-05 0)
(0.0162061 1.18566e-05 0)
(0.0160443 1.15151e-05 0)
(0.0158865 1.11855e-05 0)
(0.0157325 1.08672e-05 0)
(0.0155822 1.05594e-05 0)
(0.0154354 1.02614e-05 0)
(0.0152921 9.97284e-06 0)
(0.0151521 9.693e-06 0)
(0.0150154 9.42143e-06 0)
(0.0148818 9.15766e-06 0)
(0.0147513 8.90127e-06 0)
(0.0146238 8.65184e-06 0)
(0.0144992 8.40901e-06 0)
(0.0143774 8.17245e-06 0)
(0.0142585 7.94185e-06 0)
(0.0141423 7.71692e-06 0)
(0.0140287 7.49743e-06 0)
(0.0139179 7.28315e-06 0)
(0.0138096 7.07392e-06 0)
(0.0137038 6.86957e-06 0)
(0.0136006 6.67003e-06 0)
(0.0134999 6.4752e-06 0)
(0.0134016 6.28509e-06 0)
(0.0133057 6.09971e-06 0)
(0.0132122 5.91916e-06 0)
(0.0131211 5.7436e-06 0)
(0.0130323 5.57326e-06 0)
(0.0129457 5.40845e-06 0)
(0.0128614 5.2496e-06 0)
(0.0127793 5.09725e-06 0)
(0.0126993 4.95211e-06 0)
(0.0126214 4.81504e-06 0)
(0.0125456 4.68716e-06 0)
(0.0124716 4.57012e-06 0)
(0.0123994 4.4661e-06 0)
(0.0123288 4.37876e-06 0)
(0.0122597 4.3144e-06 0)
(0.0121918 4.28644e-06 0)
(0.0121244 4.32834e-06 0)
(0.0120565 4.43288e-06 0)
(0.0119945 4.78331e-06 0)
(0.0118147 2.48368e-05 0)
(0.189995 0.00961356 0)
(0.187731 0.0101611 0)
(0.183892 0.00996894 0)
(0.178811 0.00949016 0)
(0.172971 0.00886319 0)
(0.16671 0.00813563 0)
(0.160248 0.00734732 0)
(0.153749 0.00653552 0)
(0.147351 0.00573209 0)
(0.141154 0.00496367 0)
(0.13523 0.00425149 0)
(0.129623 0.00361051 0)
(0.124354 0.00304899 0)
(0.119432 0.00256886 0)
(0.114853 0.00216685 0)
(0.110603 0.00183596 0)
(0.106667 0.00156699 0)
(0.103024 0.00134998 0)
(0.0996525 0.00117523 0)
(0.0965309 0.00103403 0)
(0.0936379 0.000918998 0)
(0.0909534 0.000824159 0)
(0.0884588 0.000744861 0)
(0.0861366 0.00067758 0)
(0.0839711 0.000619706 0)
(0.0819479 0.000569322 0)
(0.0800542 0.000525028 0)
(0.0782782 0.000485791 0)
(0.0766093 0.000450833 0)
(0.075038 0.000419553 0)
(0.0735558 0.000391474 0)
(0.072155 0.000366201 0)
(0.0708286 0.000343402 0)
(0.0695703 0.000322788 0)
(0.0683745 0.000304108 0)
(0.0672361 0.000287142 0)
(0.0661504 0.000271694 0)
(0.0651133 0.00025759 0)
(0.0641212 0.000244678 0)
(0.0631706 0.000232824 0)
(0.0622584 0.00022191 0)
(0.061382 0.000211832 0)
(0.0605388 0.0002025 0)
(0.0597265 0.000193834 0)
(0.0589433 0.000185766 0)
(0.058187 0.000178234 0)
(0.0574562 0.000171187 0)
(0.0567493 0.000164577 0)
(0.0560648 0.000158363 0)
(0.0554015 0.000152511 0)
(0.0547582 0.000146987 0)
(0.0541338 0.000141765 0)
(0.0535274 0.000136818 0)
(0.052938 0.000132124 0)
(0.0523648 0.000127664 0)
(0.051807 0.000123418 0)
(0.0512641 0.000119371 0)
(0.0507351 0.000115508 0)
(0.0502197 0.000111816 0)
(0.0497172 0.000108282 0)
(0.0492271 0.000104894 0)
(0.048749 0.000101643 0)
(0.0482824 9.85189e-05 0)
(0.0478268 9.55133e-05 0)
(0.047382 9.2618e-05 0)
(0.0469476 8.98256e-05 0)
(0.0465232 8.71291e-05 0)
(0.0461086 8.45223e-05 0)
(0.0457035 8.19993e-05 0)
(0.0453076 7.95546e-05 0)
(0.0449207 7.7183e-05 0)
(0.0445427 7.48801e-05 0)
(0.0441733 7.26414e-05 0)
(0.0438123 7.04629e-05 0)
(0.0434597 6.83411e-05 0)
(0.0431152 6.62727e-05 0)
(0.0427787 6.42546e-05 0)
(0.0424501 6.22843e-05 0)
(0.0421292 6.03595e-05 0)
(0.0418161 5.84783e-05 0)
(0.0415106 5.66392e-05 0)
(0.0412127 5.48411e-05 0)
(0.0409222 5.30833e-05 0)
(0.040639 5.13656e-05 0)
(0.0403632 4.96886e-05 0)
(0.0400945 4.80532e-05 0)
(0.0398331 4.64611e-05 0)
(0.0395786 4.49151e-05 0)
(0.0393311 4.34187e-05 0)
(0.0390905 4.19769e-05 0)
(0.0388564 4.0596e-05 0)
(0.0386289 3.92854e-05 0)
(0.0384076 3.8058e-05 0)
(0.0381922 3.69345e-05 0)
(0.0379823 3.59514e-05 0)
(0.0377773 3.51851e-05 0)
(0.037576 3.48164e-05 0)
(0.037376 3.52972e-05 0)
(0.0371839 4.05462e-05 0)
(0.0368187 8.91174e-05 0)
(0.193005 0.00916939 0)
(0.193751 0.0101555 0)
(0.193942 0.0105418 0)
(0.193409 0.0105999 0)
(0.192238 0.0104228 0)
(0.190529 0.0100459 0)
(0.188358 0.00951267 0)
(0.185801 0.00887309 0)
(0.182939 0.00817417 0)
(0.179855 0.00745653 0)
(0.176623 0.00675331 0)
(0.173303 0.00608915 0)
(0.169949 0.00547994 0)
(0.166601 0.00493352 0)
(0.163289 0.00445118 0)
(0.160035 0.00402962 0)
(0.156856 0.0036628 0)
(0.153761 0.00334347 0)
(0.150756 0.00306437 0)
(0.147843 0.00281886 0)
(0.145024 0.0026013 0)
(0.142299 0.00240704 0)
(0.139667 0.00223242 0)
(0.137126 0.00207458 0)
(0.134674 0.00193127 0)
(0.13231 0.00180073 0)
(0.130029 0.00168157 0)
(0.127831 0.0015726 0)
(0.125712 0.00147287 0)
(0.123669 0.00138153 0)
(0.121701 0.0012978 0)
(0.119803 0.00122102 0)
(0.117972 0.00115057 0)
(0.116207 0.00108587 0)
(0.114504 0.00102639 0)
(0.112861 0.000971672 0)
(0.111273 0.000921262 0)
(0.10974 0.00087476 0)
(0.108259 0.000831803 0)
(0.106826 0.000792058 0)
(0.105439 0.000755224 0)
(0.104097 0.000721031 0)
(0.102796 0.000689232 0)
(0.101536 0.000659608 0)
(0.100313 0.000631961 0)
(0.0991265 0.000606112 0)
(0.0979743 0.000581902 0)
(0.0968549 0.000559186 0)
(0.0957665 0.000537834 0)
(0.0947079 0.000517732 0)
(0.0936776 0.000498773 0)
(0.0926743 0.000480863 0)
(0.0916969 0.000463917 0)
(0.0907442 0.000447857 0)
(0.0898152 0.000432614 0)
(0.0889089 0.000418124 0)
(0.0880244 0.00040433 0)
(0.0871609 0.00039118 0)
(0.0863175 0.000378624 0)
(0.0854936 0.000366621 0)
(0.0846883 0.000355129 0)
(0.0839012 0.000344112 0)
(0.0831315 0.000333536 0)
(0.0823788 0.000323371 0)
(0.0816425 0.000313587 0)
(0.0809221 0.000304158 0)
(0.0802172 0.000295061 0)
(0.0795274 0.000286272 0)
(0.0788523 0.00027777 0)
(0.0781915 0.000269536 0)
(0.0775448 0.000261552 0)
(0.0769119 0.000253801 0)
(0.0762924 0.000246267 0)
(0.0756862 0.000238937 0)
(0.075093 0.000231796 0)
(0.0745126 0.000224834 0)
(0.073945 0.000218038 0)
(0.0733898 0.000211399 0)
(0.072847 0.000204908 0)
(0.0723165 0.000198558 0)
(0.0717981 0.00019234 0)
(0.0712918 0.000186251 0)
(0.0707975 0.000180287 0)
(0.0703151 0.000174444 0)
(0.0698445 0.000168723 0)
(0.0693857 0.000163124 0)
(0.0689386 0.00015765 0)
(0.0685031 0.000152307 0)
(0.0680791 0.000147104 0)
(0.0676665 0.000142052 0)
(0.0672651 0.000137167 0)
(0.0668748 0.000132475 0)
(0.0664952 0.000128006 0)
(0.0661261 0.000123816 0)
(0.0657669 0.000119994 0)
(0.065417 0.000116732 0)
(0.0650748 0.000114484 0)
(0.064738 0.000114736 0)
(0.0644093 0.000126745 0)
(0.0639222 0.000187563 0)
(0.194132 0.00849625 0)
(0.195127 0.00954934 0)
(0.19608 0.0101464 0)
(0.196786 0.0104382 0)
(0.197208 0.010499 0)
(0.197345 0.0103588 0)
(0.197187 0.0100506 0)
(0.196732 0.00961518 0)
(0.195994 0.00909346 0)
(0.195001 0.00852282 0)
(0.193787 0.00793553 0)
(0.192391 0.0073575 0)
(0.190849 0.00680755 0)
(0.189196 0.00629747 0)
(0.187461 0.00583296 0)
(0.185669 0.00541502 0)
(0.18384 0.00504141 0)
(0.181989 0.00470805 0)
(0.180128 0.00441003 0)
(0.178264 0.0041424 0)
(0.176404 0.00390057 0)
(0.174553 0.00368058 0)
(0.172713 0.00347911 0)
(0.170888 0.00329352 0)
(0.16908 0.0031217 0)
(0.167291 0.00296201 0)
(0.165522 0.00281314 0)
(0.163774 0.00267408 0)
(0.162049 0.00254396 0)
(0.160347 0.0024221 0)
(0.158669 0.00230788 0)
(0.157017 0.00220076 0)
(0.155389 0.00210026 0)
(0.153788 0.00200593 0)
(0.152212 0.00191734 0)
(0.150662 0.00183412 0)
(0.149139 0.00175588 0)
(0.147641 0.0016823 0)
(0.14617 0.00161304 0)
(0.144724 0.00154782 0)
(0.143303 0.00148634 0)
(0.141908 0.00142835 0)
(0.140538 0.0013736 0)
(0.139191 0.00132187 0)
(0.137869 0.00127295 0)
(0.136571 0.00122665 0)
(0.135296 0.00118277 0)
(0.134043 0.00114117 0)
(0.132813 0.00110167 0)
(0.131605 0.00106415 0)
(0.130419 0.00102845 0)
(0.129253 0.000994471 0)
(0.128108 0.000962084 0)
(0.126983 0.000931187 0)
(0.125878 0.000901681 0)
(0.124792 0.000873475 0)
(0.123725 0.000846482 0)
(0.122677 0.000820625 0)
(0.121646 0.000795829 0)
(0.120634 0.000772025 0)
(0.119639 0.000749149 0)
(0.118661 0.000727143 0)
(0.117699 0.000705949 0)
(0.116755 0.000685516 0)
(0.115826 0.000665794 0)
(0.114913 0.000646739 0)
(0.114016 0.000628308 0)
(0.113134 0.000610459 0)
(0.112268 0.000593155 0)
(0.111416 0.000576362 0)
(0.11058 0.000560045 0)
(0.109758 0.000544173 0)
(0.10895 0.000528718 0)
(0.108157 0.000513651 0)
(0.107378 0.000498948 0)
(0.106614 0.000484585 0)
(0.105863 0.000470539 0)
(0.105127 0.000456791 0)
(0.104405 0.000443323 0)
(0.103696 0.000430119 0)
(0.103002 0.000417164 0)
(0.102322 0.000404447 0)
(0.101655 0.00039196 0)
(0.101003 0.000379694 0)
(0.100365 0.000367648 0)
(0.0997409 0.00035582 0)
(0.0991309 0.000344215 0)
(0.0985351 0.000332841 0)
(0.0979533 0.000321712 0)
(0.0973856 0.000310846 0)
(0.0968319 0.000300273 0)
(0.0962922 0.000290033 0)
(0.0957662 0.000280183 0)
(0.0952537 0.000270814 0)
(0.0947542 0.000262082 0)
(0.0942672 0.000254305 0)
(0.0937914 0.000248247 0)
(0.093325 0.000246385 0)
(0.0928705 0.000259614 0)
(0.0922852 0.000314528 0)
(0.195007 0.007977 0)
(0.195806 0.00893413 0)
(0.1967 0.00954881 0)
(0.19754 0.00990208 0)
(0.198276 0.0100547 0)
(0.198891 0.0100352 0)
(0.199362 0.00986718 0)
(0.199667 0.00958 0)
(0.199794 0.00920488 0)
(0.199745 0.00877178 0)
(0.199528 0.00830775 0)
(0.19916 0.0078358 0)
(0.19866 0.00737387 0)
(0.198048 0.00693453 0)
(0.197345 0.00652529 0)
(0.196567 0.00614946 0)
(0.195731 0.00580723 0)
(0.194849 0.00549672 0)
(0.19393 0.00521491 0)
(0.192982 0.00495837 0)
(0.19201 0.00472366 0)
(0.191018 0.00450771 0)
(0.19001 0.00430786 0)
(0.188987 0.00412192 0)
(0.187952 0.00394816 0)
(0.186906 0.00378519 0)
(0.18585 0.00363191 0)
(0.184787 0.00348745 0)
(0.183716 0.00335111 0)
(0.18264 0.00322228 0)
(0.181559 0.00310044 0)
(0.180475 0.00298515 0)
(0.179388 0.00287597 0)
(0.178298 0.00277252 0)
(0.177208 0.00267445 0)
(0.176117 0.00258139 0)
(0.175027 0.00249305 0)
(0.173937 0.00240911 0)
(0.172849 0.00232928 0)
(0.171763 0.00225331 0)
(0.170679 0.00218094 0)
(0.169598 0.00211195 0)
(0.168521 0.0020461 0)
(0.167448 0.00198321 0)
(0.166379 0.00192309 0)
(0.165315 0.00186556 0)
(0.164255 0.00181047 0)
(0.163201 0.00175766 0)
(0.162153 0.00170699 0)
(0.16111 0.00165835 0)
(0.160073 0.00161161 0)
(0.159043 0.00156665 0)
(0.15802 0.00152339 0)
(0.157003 0.00148171 0)
(0.155993 0.00144153 0)
(0.154991 0.00140277 0)
(0.153996 0.00136534 0)
(0.153009 0.00132918 0)
(0.15203 0.0012942 0)
(0.151058 0.00126036 0)
(0.150095 0.00122757 0)
(0.14914 0.00119579 0)
(0.148193 0.00116496 0)
(0.147255 0.00113503 0)
(0.146326 0.00110594 0)
(0.145405 0.00107765 0)
(0.144494 0.00105011 0)
(0.143591 0.00102327 0)
(0.142698 0.000997105 0)
(0.141815 0.000971564 0)
(0.140941 0.000946611 0)
(0.140076 0.00092221 0)
(0.139222 0.000898328 0)
(0.138377 0.00087493 0)
(0.137543 0.000851987 0)
(0.136719 0.000829469 0)
(0.135906 0.000807349 0)
(0.135103 0.000785601 0)
(0.134312 0.000764204 0)
(0.133531 0.000743136 0)
(0.132762 0.000722379 0)
(0.132004 0.000701918 0)
(0.131259 0.000681742 0)
(0.130525 0.000661841 0)
(0.129803 0.000642213 0)
(0.129094 0.000622857 0)
(0.128397 0.000603781 0)
(0.127713 0.000584997 0)
(0.127042 0.000566526 0)
(0.126385 0.000548397 0)
(0.12574 0.000530653 0)
(0.125109 0.000513352 0)
(0.124491 0.000496581 0)
(0.123887 0.000480469 0)
(0.123295 0.000465239 0)
(0.122716 0.000451321 0)
(0.12215 0.000439721 0)
(0.121594 0.000433326 0)
(0.121056 0.000441142 0)
(0.12041 0.000475574 0)
(0.195789 0.00753814 0)
(0.19639 0.00836427 0)
(0.197104 0.00894661 0)
(0.197832 0.00931676 0)
(0.198524 0.009514 0)
(0.19916 0.00956178 0)
(0.19972 0.00947883 0)
(0.200186 0.00928734 0)
(0.200544 0.00901207 0)
(0.20079 0.00867756 0)
(0.200925 0.00830645 0)
(0.200957 0.00791847 0)
(0.200894 0.00752968 0)
(0.20075 0.00715203 0)
(0.200537 0.00679346 0)
(0.200267 0.00645843 0)
(0.199951 0.00614863 0)
(0.199597 0.00586379 0)
(0.199214 0.00560241 0)
(0.198806 0.00536233 0)
(0.198377 0.0051412 0)
(0.19793 0.00493672 0)
(0.197467 0.00474681 0)
(0.196989 0.00456967 0)
(0.196497 0.00440381 0)
(0.195992 0.004248 0)
(0.195475 0.00410122 0)
(0.194945 0.00396267 0)
(0.194403 0.00383165 0)
(0.19385 0.00370759 0)
(0.193286 0.00358998 0)
(0.192711 0.00347839 0)
(0.192125 0.00337241 0)
(0.19153 0.00327167 0)
(0.190924 0.00317583 0)
(0.19031 0.00308458 0)
(0.189686 0.00299761 0)
(0.189054 0.00291464 0)
(0.188413 0.00283542 0)
(0.187764 0.00275969 0)
(0.187108 0.00268722 0)
(0.186444 0.00261779 0)
(0.185773 0.00255122 0)
(0.185095 0.00248731 0)
(0.184411 0.00242588 0)
(0.183721 0.00236678 0)
(0.183025 0.00230986 0)
(0.182323 0.00225498 0)
(0.181616 0.00220202 0)
(0.180904 0.00215085 0)
(0.180188 0.00210136 0)
(0.179467 0.00205346 0)
(0.178743 0.00200704 0)
(0.178015 0.00196203 0)
(0.177283 0.00191833 0)
(0.176549 0.00187588 0)
(0.175812 0.00183459 0)
(0.175073 0.00179441 0)
(0.174331 0.00175527 0)
(0.173588 0.00171711 0)
(0.172843 0.00167988 0)
(0.172097 0.00164352 0)
(0.171351 0.00160798 0)
(0.170604 0.00157322 0)
(0.169857 0.00153919 0)
(0.16911 0.00150584 0)
(0.168363 0.00147314 0)
(0.167617 0.00144105 0)
(0.166873 0.00140952 0)
(0.16613 0.00137852 0)
(0.165388 0.00134802 0)
(0.164649 0.00131799 0)
(0.163912 0.00128838 0)
(0.163178 0.00125917 0)
(0.162447 0.00123033 0)
(0.161719 0.00120183 0)
(0.160996 0.00117365 0)
(0.160276 0.00114577 0)
(0.159562 0.00111815 0)
(0.158852 0.00109078 0)
(0.158147 0.00106365 0)
(0.157448 0.00103673 0)
(0.156755 0.00101003 0)
(0.156069 0.000983537 0)
(0.155389 0.000957247 0)
(0.154717 0.00093117 0)
(0.154053 0.000905317 0)
(0.153396 0.000879711 0)
(0.152747 0.000854382 0)
(0.152108 0.000829374 0)
(0.151477 0.000804745 0)
(0.150855 0.000780578 0)
(0.150243 0.000756986 0)
(0.14964 0.000734137 0)
(0.149047 0.000712306 0)
(0.148464 0.000691994 0)
(0.14789 0.000674253 0)
(0.147326 0.00066155 0)
(0.146781 0.000658946 0)
(0.146146 0.00066516 0)
(0.1965 0.00717647 0)
(0.196949 0.00788002 0)
(0.197498 0.00841391 0)
(0.198083 0.0087809 0)
(0.198662 0.00900048 0)
(0.199211 0.00908952 0)
(0.199713 0.00906302 0)
(0.200153 0.00893834 0)
(0.200521 0.0087352 0)
(0.200813 0.00847366 0)
(0.201027 0.00817265 0)
(0.201169 0.00784902 0)
(0.201243 0.00751692 0)
(0.201259 0.00718743 0)
(0.201226 0.00686851 0)
(0.201153 0.00656529 0)
(0.201048 0.00628053 0)
(0.200918 0.00601522 0)
(0.200768 0.00576908 0)
(0.200603 0.00554108 0)
(0.200427 0.00532977 0)
(0.200241 0.00513357 0)
(0.200046 0.00495092 0)
(0.199844 0.00478039 0)
(0.199635 0.00462074 0)
(0.19942 0.00447088 0)
(0.199198 0.00432989 0)
(0.198969 0.004197 0)
(0.198733 0.00407154 0)
(0.19849 0.00395293 0)
(0.198241 0.00384069 0)
(0.197984 0.00373435 0)
(0.197719 0.00363351 0)
(0.197448 0.00353779 0)
(0.197168 0.00344686 0)
(0.196881 0.00336038 0)
(0.196587 0.00327805 0)
(0.196285 0.00319959 0)
(0.195975 0.00312473 0)
(0.195657 0.00305321 0)
(0.195331 0.0029848 0)
(0.194998 0.00291929 0)
(0.194657 0.00285647 0)
(0.194308 0.00279614 0)
(0.193951 0.00273813 0)
(0.193587 0.00268228 0)
(0.193215 0.00262843 0)
(0.192836 0.00257645 0)
(0.192449 0.0025262 0)
(0.192054 0.00247756 0)
(0.191652 0.00243042 0)
(0.191243 0.00238468 0)
(0.190827 0.00234024 0)
(0.190403 0.00229701 0)
(0.189973 0.00225491 0)
(0.189536 0.00221386 0)
(0.189093 0.00217379 0)
(0.188643 0.00213464 0)
(0.188187 0.00209633 0)
(0.187725 0.00205882 0)
(0.187257 0.00202204 0)
(0.186783 0.00198595 0)
(0.186304 0.00195049 0)
(0.185819 0.00191562 0)
(0.18533 0.00188129 0)
(0.184835 0.00184746 0)
(0.184337 0.00181409 0)
(0.183833 0.00178114 0)
(0.183326 0.00174857 0)
(0.182815 0.00171635 0)
(0.1823 0.00168444 0)
(0.181782 0.0016528 0)
(0.181261 0.00162142 0)
(0.180737 0.00159025 0)
(0.180211 0.00155926 0)
(0.179683 0.00152843 0)
(0.179153 0.00149774 0)
(0.178622 0.00146715 0)
(0.178089 0.00143666 0)
(0.177557 0.00140623 0)
(0.177023 0.00137585 0)
(0.17649 0.00134552 0)
(0.175957 0.00131522 0)
(0.175425 0.00128496 0)
(0.174895 0.00125473 0)
(0.174366 0.00122454 0)
(0.173839 0.00119443 0)
(0.173314 0.00116442 0)
(0.172792 0.00113454 0)
(0.172273 0.00110486 0)
(0.171758 0.00107545 0)
(0.171246 0.00104641 0)
(0.170739 0.00101789 0)
(0.170236 0.000990072 0)
(0.169738 0.000963261 0)
(0.169244 0.000937946 0)
(0.168756 0.000914994 0)
(0.168276 0.00089584 0)
(0.16781 0.000881337 0)
(0.167268 0.00086107 0)
(0.197151 0.00688011 0)
(0.197485 0.00747839 0)
(0.197898 0.00795761 0)
(0.198351 0.00830839 0)
(0.198812 0.0085369 0)
(0.199258 0.00865328 0)
(0.199673 0.00866861 0)
(0.200046 0.00859598 0)
(0.200368 0.00845055 0)
(0.200633 0.00824831 0)
(0.200841 0.00800479 0)
(0.200994 0.00773426 0)
(0.201097 0.0074491 0)
(0.201156 0.00715946 0)
(0.201177 0.00687313 0)
(0.201167 0.00659565 0)
(0.201134 0.00633058 0)
(0.201083 0.00607988 0)
(0.201018 0.00584432 0)
(0.200944 0.00562382 0)
(0.200863 0.0054178 0)
(0.200778 0.00522535 0)
(0.200689 0.00504548 0)
(0.200599 0.00487716 0)
(0.200507 0.00471942 0)
(0.200413 0.00457137 0)
(0.200318 0.00443223 0)
(0.200221 0.00430129 0)
(0.200122 0.00417793 0)
(0.200022 0.00406159 0)
(0.19992 0.00395177 0)
(0.199815 0.00384801 0)
(0.199707 0.0037499 0)
(0.199597 0.00365706 0)
(0.199484 0.00356911 0)
(0.199368 0.00348573 0)
(0.199248 0.0034066 0)
(0.199124 0.00333142 0)
(0.198997 0.00325991 0)
(0.198866 0.00319181 0)
(0.19873 0.00312687 0)
(0.198591 0.00306486 0)
(0.198446 0.00300557 0)
(0.198297 0.0029488 0)
(0.198144 0.00289436 0)
(0.197985 0.00284207 0)
(0.197821 0.00279179 0)
(0.197653 0.00274335 0)
(0.197479 0.00269661 0)
(0.197299 0.00265146 0)
(0.197115 0.00260776 0)
(0.196925 0.00256542 0)
(0.196729 0.00252431 0)
(0.196528 0.00248435 0)
(0.196321 0.00244546 0)
(0.196109 0.00240753 0)
(0.19589 0.00237051 0)
(0.195667 0.00233431 0)
(0.195437 0.00229887 0)
(0.195202 0.00226411 0)
(0.194962 0.00222999 0)
(0.194715 0.00219645 0)
(0.194464 0.00216342 0)
(0.194206 0.00213086 0)
(0.193944 0.00209873 0)
(0.193675 0.00206696 0)
(0.193402 0.00203552 0)
(0.193123 0.00200437 0)
(0.192839 0.00197345 0)
(0.192551 0.00194274 0)
(0.192257 0.0019122 0)
(0.191958 0.00188178 0)
(0.191655 0.00185144 0)
(0.191347 0.00182117 0)
(0.191036 0.00179092 0)
(0.190719 0.00176066 0)
(0.190399 0.00173036 0)
(0.190075 0.0017 0)
(0.189748 0.00166956 0)
(0.189417 0.001639 0)
(0.189084 0.00160831 0)
(0.188747 0.00157749 0)
(0.188407 0.00154652 0)
(0.188066 0.00151539 0)
(0.187722 0.00148412 0)
(0.187376 0.00145272 0)
(0.187029 0.00142121 0)
(0.186681 0.00138962 0)
(0.186332 0.00135801 0)
(0.185982 0.00132643 0)
(0.185631 0.00129498 0)
(0.185281 0.00126376 0)
(0.18493 0.00123294 0)
(0.18458 0.00120271 0)
(0.18423 0.00117336 0)
(0.183882 0.00114529 0)
(0.183535 0.00111902 0)
(0.183192 0.00109486 0)
(0.182858 0.00107077 0)
(0.182461 0.00103384 0)
(0.197719 0.00664616 0)
(0.197966 0.00716237 0)
(0.198273 0.00759206 0)
(0.198617 0.00792269 0)
(0.198973 0.008153 0)
(0.199325 0.00828758 0)
(0.199657 0.00833371 0)
(0.19996 0.00830089 0)
(0.200225 0.00820059 0)
(0.200449 0.0080454 0)
(0.20063 0.00784802 0)
(0.200768 0.00762053 0)
(0.200868 0.00737376 0)
(0.200932 0.00711698 0)
(0.200967 0.00685767 0)
(0.200977 0.00660155 0)
(0.200968 0.00635271 0)
(0.200944 0.00611382 0)
(0.20091 0.00588645 0)
(0.200868 0.0056713 0)
(0.200821 0.0054685 0)
(0.200771 0.00527776 0)
(0.20072 0.00509856 0)
(0.200668 0.00493026 0)
(0.200617 0.00477217 0)
(0.200566 0.00462361 0)
(0.200515 0.00448391 0)
(0.200465 0.00435247 0)
(0.200416 0.00422871 0)
(0.200367 0.00411212 0)
(0.200319 0.00400221 0)
(0.200271 0.00389852 0)
(0.200223 0.00380065 0)
(0.200174 0.0037082 0)
(0.200126 0.00362082 0)
(0.200077 0.00353815 0)
(0.200027 0.00345987 0)
(0.199976 0.00338569 0)
(0.199924 0.00331531 0)
(0.199871 0.00324846 0)
(0.199817 0.0031849 0)
(0.199761 0.00312439 0)
(0.199704 0.0030667 0)
(0.199645 0.00301163 0)
(0.199583 0.00295899 0)
(0.19952 0.00290859 0)
(0.199455 0.00286026 0)
(0.199387 0.00281385 0)
(0.199316 0.00276921 0)
(0.199243 0.00272621 0)
(0.199167 0.00268472 0)
(0.199089 0.00264462 0)
(0.199007 0.00260581 0)
(0.198922 0.00256817 0)
(0.198834 0.00253161 0)
(0.198743 0.00249605 0)
(0.198649 0.0024614 0)
(0.198551 0.00242758 0)
(0.19845 0.00239451 0)
(0.198345 0.00236213 0)
(0.198237 0.00233038 0)
(0.198125 0.00229918 0)
(0.19801 0.00226848 0)
(0.19789 0.00223822 0)
(0.197767 0.00220834 0)
(0.19764 0.0021788 0)
(0.19751 0.00214955 0)
(0.197375 0.00212053 0)
(0.197237 0.0020917 0)
(0.197095 0.00206301 0)
(0.196949 0.00203442 0)
(0.196799 0.00200589 0)
(0.196646 0.00197738 0)
(0.196489 0.00194884 0)
(0.196328 0.00192024 0)
(0.196164 0.00189154 0)
(0.195996 0.00186271 0)
(0.195824 0.00183372 0)
(0.195649 0.00180454 0)
(0.195471 0.00177513 0)
(0.195289 0.00174549 0)
(0.195105 0.0017156 0)
(0.194917 0.00168543 0)
(0.194727 0.00165499 0)
(0.194533 0.00162429 0)
(0.194337 0.00159332 0)
(0.194139 0.00156212 0)
(0.193938 0.00153072 0)
(0.193735 0.00149917 0)
(0.19353 0.00146754 0)
(0.193324 0.00143592 0)
(0.193115 0.00140443 0)
(0.192905 0.00137322 0)
(0.192694 0.00134249 0)
(0.192481 0.00131247 0)
(0.192268 0.00128345 0)
(0.192054 0.00125561 0)
(0.191842 0.00122855 0)
(0.191634 0.00119928 0)
(0.191376 0.00115733 0)
(0.198283 0.00645866 0)
(0.198457 0.00690751 0)
(0.198673 0.0072911 0)
(0.198918 0.00759779 0)
(0.199176 0.00782303 0)
(0.199434 0.00796751 0)
(0.199681 0.00803526 0)
(0.199909 0.00803278 0)
(0.200112 0.00796847 0)
(0.200286 0.007852 0)
(0.200429 0.00769355 0)
(0.200542 0.00750316 0)
(0.200626 0.00729017 0)
(0.200684 0.00706288 0)
(0.200719 0.00682831 0)
(0.200735 0.00659216 0)
(0.200736 0.00635879 0)
(0.200725 0.00613139 0)
(0.200705 0.00591214 0)
(0.200679 0.00570237 0)
(0.200649 0.00550282 0)
(0.200617 0.00531373 0)
(0.200584 0.00513505 0)
(0.20055 0.00496649 0)
(0.200517 0.00480764 0)
(0.200485 0.00465803 0)
(0.200453 0.00451716 0)
(0.200423 0.0043845 0)
(0.200394 0.00425957 0)
(0.200366 0.00414188 0)
(0.20034 0.00403097 0)
(0.200314 0.00392642 0)
(0.200289 0.0038278 0)
(0.200265 0.00373474 0)
(0.200242 0.00364687 0)
(0.200219 0.00356384 0)
(0.200197 0.00348533 0)
(0.200176 0.00341103 0)
(0.200154 0.00334066 0)
(0.200133 0.00327393 0)
(0.200112 0.00321059 0)
(0.200091 0.00315041 0)
(0.20007 0.00309315 0)
(0.200049 0.0030386 0)
(0.200027 0.00298657 0)
(0.200005 0.00293687 0)
(0.199983 0.00288932 0)
(0.19996 0.00284378 0)
(0.199936 0.00280008 0)
(0.199911 0.00275808 0)
(0.199886 0.00271766 0)
(0.19986 0.0026787 0)
(0.199833 0.00264108 0)
(0.199804 0.00260469 0)
(0.199775 0.00256943 0)
(0.199744 0.00253522 0)
(0.199712 0.00250195 0)
(0.199679 0.00246956 0)
(0.199644 0.00243797 0)
(0.199608 0.00240709 0)
(0.19957 0.00237686 0)
(0.199531 0.00234721 0)
(0.19949 0.00231809 0)
(0.199447 0.00228942 0)
(0.199403 0.00226116 0)
(0.199356 0.00223324 0)
(0.199308 0.00220561 0)
(0.199258 0.00217822 0)
(0.199206 0.00215102 0)
(0.199152 0.00212395 0)
(0.199096 0.00209698 0)
(0.199037 0.00207006 0)
(0.198977 0.00204313 0)
(0.198915 0.00201616 0)
(0.19885 0.0019891 0)
(0.198784 0.00196192 0)
(0.198715 0.00193457 0)
(0.198644 0.00190702 0)
(0.198571 0.00187924 0)
(0.198495 0.00185119 0)
(0.198418 0.00182285 0)
(0.198338 0.00179421 0)
(0.198257 0.00176524 0)
(0.198173 0.00173594 0)
(0.198087 0.00170631 0)
(0.197999 0.00167635 0)
(0.197909 0.00164609 0)
(0.197817 0.00161556 0)
(0.197724 0.00158482 0)
(0.197628 0.00155392 0)
(0.197531 0.00152297 0)
(0.197431 0.00149208 0)
(0.19733 0.00146139 0)
(0.197228 0.00143107 0)
(0.197123 0.00140131 0)
(0.197018 0.00137227 0)
(0.196912 0.00134396 0)
(0.196806 0.00131573 0)
(0.196699 0.00128528 0)
(0.196558 0.00124695 0)
(0.198886 0.00629267 0)
(0.198989 0.00668712 0)
(0.199116 0.00703126 0)
(0.199262 0.00731533 0)
(0.199418 0.00753358 0)
(0.199577 0.00768426 0)
(0.199731 0.00776885 0)
(0.199876 0.00779131 0)
(0.200006 0.00775745 0)
(0.20012 0.00767447 0)
(0.200216 0.0075503 0)
(0.200293 0.00739312 0)
(0.200353 0.00721086 0)
(0.200396 0.00701085 0)
(0.200424 0.00679959 0)
(0.200441 0.0065826 0)
(0.200447 0.00636438 0)
(0.200444 0.00614846 0)
(0.200436 0.00593748 0)
(0.200423 0.00573332 0)
(0.200407 0.00553722 0)
(0.200389 0.0053499 0)
(0.20037 0.00517174 0)
(0.200351 0.00500279 0)
(0.200332 0.00484295 0)
(0.200313 0.00469194 0)
(0.200295 0.00454943 0)
(0.200277 0.00441502 0)
(0.200261 0.0042883 0)
(0.200245 0.00416885 0)
(0.20023 0.00405623 0)
(0.200216 0.00395006 0)
(0.200202 0.00384992 0)
(0.20019 0.00375544 0)
(0.200178 0.00366625 0)
(0.200167 0.00358202 0)
(0.200156 0.00350241 0)
(0.200146 0.00342711 0)
(0.200136 0.00335583 0)
(0.200127 0.0032883 0)
(0.200119 0.00322426 0)
(0.20011 0.00316345 0)
(0.200102 0.00310566 0)
(0.200095 0.00305066 0)
(0.200087 0.00299826 0)
(0.20008 0.00294827 0)
(0.200072 0.0029005 0)
(0.200065 0.0028548 0)
(0.200058 0.00281102 0)
(0.200051 0.002769 0)
(0.200044 0.00272862 0)
(0.200037 0.00268975 0)
(0.200029 0.00265228 0)
(0.200022 0.00261609 0)
(0.200014 0.00258109 0)
(0.200006 0.00254718 0)
(0.199998 0.00251426 0)
(0.199989 0.00248227 0)
(0.199981 0.0024511 0)
(0.199971 0.00242069 0)
(0.199962 0.00239098 0)
(0.199952 0.00236188 0)
(0.199941 0.00233333 0)
(0.19993 0.00230528 0)
(0.199919 0.00227766 0)
(0.199907 0.00225042 0)
(0.199894 0.00222349 0)
(0.199881 0.00219683 0)
(0.199868 0.00217038 0)
(0.199853 0.0021441 0)
(0.199838 0.00211792 0)
(0.199822 0.00209181 0)
(0.199806 0.00206571 0)
(0.199788 0.00203959 0)
(0.19977 0.00201339 0)
(0.199751 0.00198708 0)
(0.199732 0.00196061 0)
(0.199711 0.00193394 0)
(0.19969 0.00190705 0)
(0.199667 0.00187989 0)
(0.199644 0.00185245 0)
(0.19962 0.0018247 0)
(0.199595 0.00179661 0)
(0.199569 0.00176819 0)
(0.199542 0.00173943 0)
(0.199514 0.00171034 0)
(0.199486 0.00168094 0)
(0.199456 0.00165126 0)
(0.199425 0.00162135 0)
(0.199393 0.00159128 0)
(0.19936 0.00156113 0)
(0.199327 0.00153103 0)
(0.199292 0.00150108 0)
(0.199256 0.00147145 0)
(0.199219 0.00144227 0)
(0.199182 0.00141364 0)
(0.199144 0.00138549 0)
(0.199105 0.00135745 0)
(0.199064 0.00132863 0)
(0.199006 0.00129832 0)
(0.199518 0.00621132 0)
(0.199545 0.00657128 0)
(0.199582 0.00688794 0)
(0.199627 0.00715306 0)
(0.199677 0.00736101 0)
(0.199729 0.00750929 0)
(0.199782 0.00759825 0)
(0.199833 0.00763059 0)
(0.199881 0.00761079 0)
(0.199925 0.00754465 0)
(0.199963 0.0074388 0)
(0.199996 0.00730025 0)
(0.200023 0.007136 0)
(0.200045 0.00695266 0)
(0.200061 0.00675626 0)
(0.200074 0.00655207 0)
(0.200082 0.00634453 0)
(0.200088 0.00613724 0)
(0.200091 0.00593302 0)
(0.200092 0.00573398 0)
(0.200091 0.00554161 0)
(0.20009 0.00535691 0)
(0.200087 0.00518047 0)
(0.200084 0.00501257 0)
(0.200081 0.00485326 0)
(0.200078 0.00470242 0)
(0.200075 0.00455982 0)
(0.200071 0.00442514 0)
(0.200068 0.00429804 0)
(0.200065 0.00417814 0)
(0.200062 0.00406505 0)
(0.200059 0.00395837 0)
(0.200057 0.00385774 0)
(0.200054 0.00376277 0)
(0.200052 0.00367312 0)
(0.20005 0.00358844 0)
(0.200048 0.00350842 0)
(0.200046 0.00343273 0)
(0.200044 0.0033611 0)
(0.200042 0.00329324 0)
(0.200041 0.0032289 0)
(0.200039 0.00316783 0)
(0.200038 0.00310979 0)
(0.200036 0.00305459 0)
(0.200035 0.003002 0)
(0.200034 0.00295185 0)
(0.200033 0.00290396 0)
(0.200031 0.00285815 0)
(0.20003 0.00281429 0)
(0.200029 0.00277221 0)
(0.200028 0.0027318 0)
(0.200027 0.00269292 0)
(0.200026 0.00265545 0)
(0.200025 0.00261929 0)
(0.200024 0.00258433 0)
(0.200023 0.00255048 0)
(0.200022 0.00251765 0)
(0.20002 0.00248575 0)
(0.200019 0.0024547 0)
(0.200018 0.00242443 0)
(0.200016 0.00239486 0)
(0.200015 0.00236592 0)
(0.200013 0.00233756 0)
(0.200012 0.0023097 0)
(0.20001 0.00228229 0)
(0.200008 0.00225526 0)
(0.200006 0.00222857 0)
(0.200004 0.00220216 0)
(0.200002 0.00217598 0)
(0.199999 0.00214997 0)
(0.199997 0.00212408 0)
(0.199994 0.00209827 0)
(0.199991 0.00207249 0)
(0.199988 0.00204669 0)
(0.199985 0.00202083 0)
(0.199981 0.00199487 0)
(0.199977 0.00196877 0)
(0.199973 0.00194248 0)
(0.199969 0.00191597 0)
(0.199965 0.00188921 0)
(0.19996 0.00186218 0)
(0.199955 0.00183485 0)
(0.19995 0.00180719 0)
(0.199945 0.00177921 0)
(0.199939 0.0017509 0)
(0.199933 0.00172227 0)
(0.199926 0.00169334 0)
(0.19992 0.00166415 0)
(0.199913 0.00163473 0)
(0.199905 0.00160517 0)
(0.199898 0.00157554 0)
(0.19989 0.00154594 0)
(0.199881 0.00151651 0)
(0.199872 0.00148736 0)
(0.199863 0.00145862 0)
(0.199854 0.00143034 0)
(0.199844 0.00140255 0)
(0.199834 0.00137519 0)
(0.199823 0.00134849 0)
(0.199806 0.00132414 0)