/*--------------------------------*- C++ -*----------------------------------*\
| =========                 |                                                 |
| \\      /  F ield         | OpenFOAM: The Open Source CFD Toolbox           |
|  \\    /   O peration     | Version:  2.3.0                                 |
|   \\  /    A nd           | Web:      www.OpenFOAM.org                      |
|    \\/     M anipulation  |                                                 |
\*---------------------------------------------------------------------------*/
FoamFile
{
    version     2.0;
    format      ascii;
    class       volScalarField;
    location    "0.6";
    object      p;
}
// * * * * * * * * * * * * * * * * * * * * * * * * * * * * * * * * * * * * * //

dimensions      [0 2 -2 0 0 0 0];

internalField   nonuniform List<scalar> 
6875
(
0.00245735
0.00187307
0.0013973
0.00105462
0.000771547
0.000517341
0.000292012
0.000100141
-5.67714e-05
-0.000179742
-0.000271358
-0.000335441
-0.00037667
-0.000400022
-0.000410236
-0.000411423
-0.000406882
-0.000399079
-0.000389729
-0.00037994
-0.000370361
-0.000361328
-0.000352968
-0.00034529
-0.000338237
-0.000331727
-0.000325673
-0.000319995
-0.000314625
-0.000309507
-0.000304596
-0.000299859
-0.000295269
-0.000290805
-0.000286453
-0.000282199
-0.000278032
-0.000273946
-0.000269933
-0.000265986
-0.000262101
-0.000258273
-0.000254498
-0.000250772
-0.000247091
-0.000243454
-0.000239857
-0.000236297
-0.000232774
-0.000229283
-0.000225825
-0.000222397
-0.000218996
-0.000215623
-0.000212275
-0.00020895
-0.000205648
-0.000202366
-0.000199103
-0.000195857
-0.000192626
-0.000189409
-0.000186202
-0.000183005
-0.000179814
-0.000176626
-0.000173439
-0.000170249
-0.000167053
-0.000163845
-0.000160623
-0.000157381
-0.000154113
-0.000150814
-0.000147477
-0.000144095
-0.00014066
-0.000137164
-0.000133596
-0.000129947
-0.000126206
-0.000122359
-0.000118393
-0.000114293
-0.000110044
-0.000105626
-0.000101021
-9.62069e-05
-9.11605e-05
-8.58561e-05
-8.02654e-05
-7.43574e-05
-6.80978e-05
-6.14483e-05
-5.4366e-05
-4.68013e-05
-3.86952e-05
-2.99713e-05
-2.04168e-05
-1.15503e-05
0.00218046
0.00176435
0.00137405
0.0010633
0.000794358
0.000547329
0.0003251
0.000133851
-2.38853e-05
-0.000148558
-0.00024242
-0.000309051
-0.000352938
-0.000378917
-0.000391621
-0.000395096
-0.000392606
-0.000386603
-0.000378809
-0.000370347
-0.000361892
-0.000353806
-0.000346243
-0.000339236
-0.000332753
-0.000326728
-0.000321092
-0.000315775
-0.000310721
-0.000305881
-0.000301217
-0.0002967
-0.000292307
-0.000288022
-0.000283831
-0.000279723
-0.000275692
-0.000271729
-0.000267829
-0.000263987
-0.000260198
-0.00025646
-0.000252768
-0.00024912
-0.000245513
-0.000241943
-0.00023841
-0.000234911
-0.000231444
-0.000228007
-0.000224599
-0.000221218
-0.000217863
-0.000214532
-0.000211225
-0.000207939
-0.000204673
-0.000201426
-0.000198197
-0.000194983
-0.000191783
-0.000188595
-0.000185416
-0.000182246
-0.000179081
-0.000175918
-0.000172755
-0.000169588
-0.000166414
-0.000163228
-0.000160027
-0.000156804
-0.000153556
-0.000150276
-0.000146957
-0.000143593
-0.000140175
-0.000136696
-0.000133144
-0.000129511
-0.000125785
-0.000121953
-0.000118002
-0.000113917
-0.000109681
-0.000105277
-0.000100685
-9.5884e-05
-9.08502e-05
-8.5558e-05
-7.99791e-05
-7.40825e-05
-6.78337e-05
-6.11945e-05
-5.41218e-05
-4.65657e-05
-3.84664e-05
-2.97456e-05
-2.01179e-05
-1.16213e-05
0.00197784
0.00166738
0.00133666
0.00105047
0.000797166
0.000563785
0.000352232
0.000167993
1.38216e-05
-0.000110218
-0.000205744
-0.000275621
-0.00032363
-0.000354001
-0.000370921
-0.000378155
-0.000378831
-0.000375381
-0.000369577
-0.000362632
-0.000355317
-0.000348086
-0.000341172
-0.000334667
-0.000328583
-0.000322886
-0.000317528
-0.000312454
-0.000307615
-0.00030297
-0.000298483
-0.000294128
-0.000289885
-0.000285738
-0.000281674
-0.000277684
-0.000273761
-0.000269899
-0.000266092
-0.000262336
-0.000258628
-0.000254964
-0.000251341
-0.000247757
-0.00024421
-0.000240697
-0.000237217
-0.000233767
-0.000230346
-0.000226953
-0.000223587
-0.000220245
-0.000216927
-0.000213632
-0.000210357
-0.000207103
-0.000203868
-0.000200649
-0.000197447
-0.000194259
-0.000191084
-0.00018792
-0.000184765
-0.000181617
-0.000178473
-0.000175331
-0.000172187
-0.000169039
-0.000165883
-0.000162716
-0.000159531
-0.000156326
-0.000153094
-0.00014983
-0.000146526
-0.000143177
-0.000139774
-0.000136309
-0.000132772
-0.000129153
-0.00012544
-0.000121621
-0.000117683
-0.000113611
-0.000109388
-0.000104997
-0.000100418
-9.5629e-05
-9.06075e-05
-8.53276e-05
-7.97609e-05
-7.38765e-05
-6.76399e-05
-6.10131e-05
-5.39531e-05
-4.64106e-05
-3.83274e-05
-2.96276e-05
-2.00823e-05
-1.24055e-05
0.00180627
0.00156417
0.00128425
0.00102631
0.000793105
0.000577209
0.000379754
0.000205442
5.72224e-05
-6.43031e-05
-0.000160123
-0.000232391
-0.000284158
-0.000318989
-0.000340537
-0.000352194
-0.000356864
-0.000356875
-0.000353983
-0.000349438
-0.000344076
-0.000338423
-0.000332783
-0.00032731
-0.000322068
-0.000317066
-0.000312287
-0.000307701
-0.000303279
-0.000298993
-0.00029482
-0.00029074
-0.000286741
-0.00028281
-0.00027894
-0.000275124
-0.000271359
-0.000267639
-0.000263962
-0.000260325
-0.000256725
-0.000253161
-0.00024963
-0.000246131
-0.000242663
-0.000239223
-0.000235811
-0.000232424
-0.000229063
-0.000225726
-0.000222411
-0.000219118
-0.000215846
-0.000212594
-0.000209361
-0.000206145
-0.000202946
-0.000199763
-0.000196593
-0.000193437
-0.000190292
-0.000187156
-0.000184028
-0.000180906
-0.000177787
-0.000174669
-0.000171548
-0.000168423
-0.000165288
-0.000162141
-0.000158977
-0.00015579
-0.000152577
-0.000149331
-0.000146045
-0.000142713
-0.000139327
-0.000135878
-0.000132358
-0.000128754
-0.000125057
-0.000121254
-0.000117332
-0.000113274
-0.000109067
-0.00010469
-0.000100126
-9.53527e-05
-9.03466e-05
-8.50821e-05
-7.95312e-05
-7.36629e-05
-6.74431e-05
-6.08341e-05
-5.37937e-05
-4.62747e-05
-3.82248e-05
-2.95865e-05
-2.03009e-05
-1.37642e-05
0.00165449
0.0014616
0.00122715
0.000998771
0.0007864
0.000587806
0.000404474
0.000240597
9.9213e-05
-1.86822e-05
-0.000113606
-0.000187162
-0.000241786
-0.00028044
-0.000306251
-0.000322201
-0.000330917
-0.000334563
-0.000334828
-0.000332957
-0.000329823
-0.000326009
-0.000321881
-0.000317656
-0.000313449
-0.000309315
-0.00030527
-0.000301315
-0.00029744
-0.000293632
-0.000289881
-0.000286176
-0.000282512
-0.000278883
-0.000275284
-0.000271714
-0.00026817
-0.000264652
-0.000261158
-0.000257688
-0.000254241
-0.000250817
-0.000247415
-0.000244034
-0.000240674
-0.000237335
-0.000234015
-0.000230715
-0.000227434
-0.000224171
-0.000220926
-0.000217698
-0.000214487
-0.000211291
-0.000208111
-0.000204946
-0.000201795
-0.000198656
-0.000195529
-0.000192412
-0.000189305
-0.000186205
-0.000183112
-0.000180022
-0.000176934
-0.000173845
-0.000170753
-0.000167655
-0.000164546
-0.000161424
-0.000158284
-0.000155121
-0.000151931
-0.000148707
-0.000145442
-0.000142131
-0.000138765
-0.000135336
-0.000131834
-0.00012825
-0.000124572
-0.000120788
-0.000116883
-0.000112845
-0.000108655
-0.000104298
-9.97521e-05
-9.49975e-05
-9.00107e-05
-8.47661e-05
-7.92358e-05
-7.33891e-05
-6.71924e-05
-6.06088e-05
-5.3598e-05
-4.61169e-05
-3.81255e-05
-2.9609e-05
-2.07417e-05
-1.5452e-05
0.0015239
0.00136664
0.0011698
0.000968701
0.000776085
0.000593809
0.000424111
0.000270765
0.00013673
2.32481e-05
-6.9834e-05
-0.000143677
-0.000200202
-0.000241838
-0.000271228
-0.000290958
-0.000303366
-0.000310433
-0.000313748
-0.000314524
-0.000313648
-0.000311737
-0.000309208
-0.000306324
-0.000303249
-0.000300076
-0.000296856
-0.000293615
-0.000290364
-0.000287107
-0.000283845
-0.000280578
-0.000277308
-0.000274033
-0.000270757
-0.000267479
-0.000264202
-0.000260927
-0.000257656
-0.000254391
-0.000251132
-0.00024788
-0.000244637
-0.000241403
-0.000238179
-0.000234966
-0.000231763
-0.000228571
-0.000225391
-0.000222222
-0.000219064
-0.000215918
-0.000212784
-0.00020966
-0.000206548
-0.000203445
-0.000200353
-0.000197271
-0.000194196
-0.00019113
-0.000188069
-0.000185014
-0.000181963
-0.000178913
-0.000175864
-0.000172811
-0.000169754
-0.000166688
-0.000163611
-0.00016052
-0.000157409
-0.000154274
-0.00015111
-0.000147912
-0.000144672
-0.000141386
-0.000138043
-0.000134637
-0.000131158
-0.000127596
-0.00012394
-0.000120177
-0.000116295
-0.000112278
-0.00010811
-0.000103774
-9.92511e-05
-9.45194e-05
-8.95562e-05
-8.43362e-05
-7.88318e-05
-7.30129e-05
-6.68467e-05
-6.02976e-05
-5.33281e-05
-4.59023e-05
-3.79988e-05
-2.96649e-05
-2.13081e-05
-1.71259e-05
0.00141128
0.00127966
0.00111289
0.000936159
0.000762229
0.00059549
0.000438915
0.000295969
0.000169468
6.0825e-05
-2.98019e-05
-0.000103193
-0.000160833
-0.00020469
-0.000236977
-0.000259917
-0.00027557
-0.00028573
-0.000291873
-0.000295159
-0.000296466
-0.00029643
-0.000295499
-0.000293976
-0.000292061
-0.000289883
-0.000287523
-0.000285031
-0.000282437
-0.000279763
-0.00027702
-0.00027422
-0.00027137
-0.000268477
-0.000265548
-0.000262587
-0.0002596
-0.000256592
-0.000253565
-0.000250525
-0.000247474
-0.000244415
-0.000241349
-0.000238281
-0.00023521
-0.000232139
-0.000229068
-0.000226
-0.000222935
-0.000219874
-0.000216817
-0.000213766
-0.00021072
-0.00020768
-0.000204645
-0.000201617
-0.000198594
-0.000195577
-0.000192564
-0.000189556
-0.000186551
-0.000183548
-0.000180546
-0.000177544
-0.000174539
-0.000171529
-0.000168512
-0.000165485
-0.000162444
-0.000159388
-0.00015631
-0.000153207
-0.000150075
-0.000146906
-0.000143696
-0.000140437
-0.000137122
-0.000133742
-0.000130289
-0.000126752
-0.000123121
-0.000119382
-0.000115524
-0.000111532
-0.000107389
-0.000103079
-9.85812e-05
-9.38762e-05
-8.89408e-05
-8.37501e-05
-7.82772e-05
-7.24926e-05
-6.63645e-05
-5.98595e-05
-5.29441e-05
-4.55915e-05
-3.78035e-05
-2.96939e-05
-2.18491e-05
-1.84149e-05
0.00131309
0.00120035
0.00105759
0.000902296
0.000745796
0.000593699
0.000449547
0.000316624
0.000197599
9.39984e-05
6.23465e-06
-6.61495e-05
-0.000124267
-0.000169692
-0.000204261
-0.000229871
-0.000248323
-0.000261225
-0.000269931
-0.00027554
-0.000278903
-0.000280661
-0.00028128
-0.000281092
-0.000280328
-0.000279145
-0.000277649
-0.000275914
-0.000273987
-0.000271905
-0.000269693
-0.00026737
-0.000264951
-0.00026245
-0.000259878
-0.000257244
-0.000254557
-0.000251824
-0.000249051
-0.000246246
-0.000243411
-0.000240553
-0.000237674
-0.000234779
-0.000231869
-0.000228948
-0.000226019
-0.000223082
-0.00022014
-0.000217194
-0.000214245
-0.000211295
-0.000208344
-0.000205394
-0.000202444
-0.000199495
-0.000196548
-0.000193601
-0.000190656
-0.000187711
-0.000184766
-0.00018182
-0.000178872
-0.000175921
-0.000172965
-0.000170001
-0.000167028
-0.000164043
-0.000161043
-0.000158024
-0.000154984
-0.000151916
-0.000148817
-0.000145681
-0.000142501
-0.000139273
-0.000135987
-0.000132635
-0.00012921
-0.000125701
-0.000122096
-0.000118385
-0.000114553
-0.000110588
-0.000106472
-0.000102189
-9.77202e-05
-9.3045e-05
-8.8141e-05
-8.29839e-05
-7.75474e-05
-7.18029e-05
-6.57203e-05
-5.92686e-05
-5.24192e-05
-4.51554e-05
-3.75027e-05
-2.9629e-05
-2.22133e-05
-1.90371e-05
0.00122664
0.00112829
0.00100478
0.000868066
0.000727506
0.000589031
0.000456524
0.000333155
0.000221451
0.000122994
3.83929e-05
-3.25412e-05
-9.06066e-05
-0.000137042
-0.000173352
-0.000201141
-0.000221973
-0.000237273
-0.000248278
-0.000256009
-0.000261285
-0.000264737
-0.00026684
-0.000267946
-0.000268307
-0.000268105
-0.000267467
-0.000266486
-0.000265227
-0.00026374
-0.00026206
-0.000260217
-0.000258232
-0.000256126
-0.000253914
-0.00025161
-0.000249226
-0.000246772
-0.000244256
-0.000241688
-0.000239074
-0.000236419
-0.00023373
-0.000231011
-0.000228266
-0.000225499
-0.000222712
-0.000219909
-0.000217093
-0.000214265
-0.000211427
-0.000208581
-0.000205728
-0.00020287
-0.000200007
-0.000197141
-0.000194271
-0.000191398
-0.000188522
-0.000185643
-0.00018276
-0.000179873
-0.000176981
-0.000174083
-0.000171177
-0.000168261
-0.000165334
-0.000162393
-0.000159434
-0.000156455
-0.000153452
-0.000150421
-0.000147356
-0.000144254
-0.000141107
-0.000137909
-0.000134653
-0.000131331
-0.000127934
-0.000124453
-0.000120876
-0.000117192
-0.000113388
-0.00010945
-0.000105363
-0.000101109
-9.66709e-05
-9.20276e-05
-8.71577e-05
-8.20374e-05
-7.66412e-05
-7.09419e-05
-6.49109e-05
-5.85203e-05
-5.17465e-05
-4.45826e-05
-3.70733e-05
-2.94182e-05
-2.22946e-05
-1.88784e-05
0.00114988
0.00106284
0.000954892
0.000834103
0.000707913
0.000582002
0.000460356
0.000346039
0.000241441
0.000148152
6.69252e-05
-2.20907e-06
-5.97847e-05
-0.000106752
-0.000144328
-0.000173856
-0.00019668
-0.000214056
-0.000227099
-0.000236754
-0.000243793
-0.000248832
-0.000252345
-0.000254694
-0.000256147
-0.000256904
-0.000257111
-0.000256877
-0.000256282
-0.000255386
-0.000254238
-0.000252874
-0.000251325
-0.000249614
-0.000247763
-0.00024579
-0.000243709
-0.000241534
-0.000239277
-0.000236947
-0.000234554
-0.000232104
-0.000229606
-0.000227064
-0.000224484
-0.000221871
-0.000219229
-0.000216561
-0.000213871
-0.000211162
-0.000208435
-0.000205694
-0.00020294
-0.000200175
-0.0001974
-0.000194616
-0.000191824
-0.000189025
-0.000186219
-0.000183406
-0.000180586
-0.000177758
-0.000174922
-0.000172078
-0.000169222
-0.000166355
-0.000163474
-0.000160576
-0.000157659
-0.00015472
-0.000151754
-0.000148759
-0.000145729
-0.00014266
-0.000139545
-0.000136378
-0.000133152
-0.000129859
-0.000126491
-0.000123037
-0.000119488
-0.000115832
-0.000112056
-0.000108146
-0.000104087
-9.98633e-05
-9.54561e-05
-9.0846e-05
-8.60118e-05
-8.09305e-05
-7.55777e-05
-6.99272e-05
-6.39527e-05
-5.7629e-05
-5.09375e-05
-4.38793e-05
-3.65109e-05
-2.90367e-05
-2.20542e-05
-1.80033e-05
0.00108117
0.00100329
0.000908044
0.000800866
0.000687504
0.000573097
0.00046153
0.000355737
0.000257976
0.000169814
9.20986e-05
2.50371e-05
-3.16853e-05
-7.87734e-05
-0.000117197
-0.000148065
-0.000172525
-0.000191673
-0.000206505
-0.000217885
-0.000226537
-0.000233051
-0.000237892
-0.000241426
-0.000243932
-0.000245621
-0.000246656
-0.000247157
-0.000247218
-0.00024691
-0.000246291
-0.000245406
-0.00024429
-0.000242974
-0.000241484
-0.000239842
-0.000238065
-0.000236171
-0.000234172
-0.000232081
-0.000229909
-0.000227665
-0.000225357
-0.000222993
-0.000220579
-0.000218121
-0.000215623
-0.000213091
-0.000210527
-0.000207937
-0.000205322
-0.000202686
-0.00020003
-0.000197358
-0.000194671
-0.000191969
-0.000189256
-0.00018653
-0.000183794
-0.000181047
-0.000178289
-0.000175521
-0.000172741
-0.000169949
-0.000167144
-0.000164325
-0.000161489
-0.000158634
-0.000155759
-0.000152858
-0.000149931
-0.000146971
-0.000143976
-0.000140939
-0.000137855
-0.000134719
-0.000131522
-0.000128258
-0.000124917
-0.000121491
-0.000117969
-0.00011434
-0.000110591
-0.000106709
-0.000102679
-9.84848e-05
-9.41093e-05
-8.95331e-05
-8.47357e-05
-7.96951e-05
-7.43876e-05
-6.87889e-05
-6.28744e-05
-5.66217e-05
-5.00164e-05
-4.30649e-05
-3.58272e-05
-2.84889e-05
-2.15181e-05
-1.66061e-05
0.00101926
0.000948947
0.00086421
0.000768665
0.000666678
0.000562731
0.000460468
0.000362661
0.000271433
0.000188302
0.000114176
4.93958e-05
-6.17412e-06
-5.30323e-05
-9.19339e-05
-0.000123786
-0.000149554
-0.000170188
-0.000186569
-0.000199481
-0.000209593
-0.000217465
-0.000223548
-0.000228204
-0.000231717
-0.000234308
-0.000236147
-0.000237369
-0.000238075
-0.000238349
-0.000238255
-0.000237844
-0.000237161
-0.000236239
-0.00023511
-0.000233798
-0.000232326
-0.000230712
-0.000228972
-0.00022712
-0.00022517
-0.000223132
-0.000221016
-0.00021883
-0.000216583
-0.000214279
-0.000211927
-0.00020953
-0.000207094
-0.000204622
-0.000202119
-0.000199588
-0.000197032
-0.000194453
-0.000191853
-0.000189234
-0.000186599
-0.000183947
-0.00018128
-0.000178599
-0.000175904
-0.000173194
-0.00017047
-0.000167731
-0.000164977
-0.000162205
-0.000159414
-0.000156602
-0.000153767
-0.000150906
-0.000148015
-0.00014509
-0.000142128
-0.000139124
-0.000136071
-0.000132964
-0.000129797
-0.00012656
-0.000123247
-0.000119848
-0.000116352
-0.00011275
-0.000109028
-0.000105174
-0.000101173
-9.70088e-05
-9.26653e-05
-8.81237e-05
-8.33642e-05
-7.83655e-05
-7.31052e-05
-6.75604e-05
-6.17085e-05
-5.55295e-05
-4.90121e-05
-4.21653e-05
-3.50446e-05
-2.78012e-05
-2.07553e-05
-1.49325e-05
0.000963115
0.000899198
0.000823262
0.000737686
0.000645744
0.000551257
0.000457544
0.000367184
0.000282158
0.000203924
0.000133414
7.10659e-05
1.68901e-05
-2.9441e-05
-6.84998e-05
-0.000101015
-0.000127793
-0.000149645
-0.000167347
-0.000181602
-0.000193023
-0.000202134
-0.000209368
-0.000215078
-0.000219547
-0.000223002
-0.00022562
-0.000227543
-0.000228882
-0.000229728
-0.000230152
-0.000230212
-0.000229958
-0.000229428
-0.000228659
-0.000227677
-0.000226508
-0.000225174
-0.000223694
-0.000222082
-0.000220355
-0.000218523
-0.000216599
-0.000214592
-0.000212511
-0.000210364
-0.000208157
-0.000205897
-0.000203588
-0.000201236
-0.000198846
-0.000196421
-0.000193964
-0.000191478
-0.000188966
-0.000186431
-0.000183873
-0.000181296
-0.000178699
-0.000176083
-0.00017345
-0.0001708
-0.000168132
-0.000165446
-0.000162742
-0.000160017
-0.000157271
-0.000154503
-0.000151708
-0.000148885
-0.000146031
-0.000143142
-0.000140213
-0.000137241
-0.000134219
-0.000131142
-0.000128003
-0.000124794
-0.000121508
-0.000118136
-0.000114667
-0.000111092
-0.000107397
-0.000103571
-9.95985e-05
-9.54653e-05
-9.11545e-05
-8.66483e-05
-8.19277e-05
-7.69723e-05
-7.1761e-05
-6.62721e-05
-6.04848e-05
-5.43813e-05
-4.79523e-05
-4.12064e-05
-3.41898e-05
-2.70114e-05
-1.98509e-05
-1.3209e-05
0.000911926
0.000853498
0.000785021
0.000708023
0.000624937
0.00053897
0.000453082
0.000369639
0.000290473
0.000216967
0.000150055
9.02418e-05
3.76503e-05
-7.90547e-06
-4.68436e-05
-7.97391e-05
-0.000107254
-0.000130078
-0.000148885
-0.000164299
-0.000176878
-0.000187108
-0.000195399
-0.00020209
-0.000207461
-0.000211738
-0.000215105
-0.000217706
-0.000219662
-0.000221067
-0.000222
-0.000222525
-0.000222695
-0.000222554
-0.000222142
-0.000221489
-0.000220623
-0.000219569
-0.000218347
-0.000216976
-0.000215471
-0.000213847
-0.000212115
-0.000210288
-0.000208375
-0.000206384
-0.000204323
-0.0002022
-0.00020002
-0.000197789
-0.000195511
-0.000193192
-0.000190835
-0.000188444
-0.000186021
-0.000183569
-0.000181091
-0.000178587
-0.000176061
-0.000173512
-0.000170942
-0.000168351
-0.000165739
-0.000163107
-0.000160453
-0.000157776
-0.000155076
-0.00015235
-0.000149596
-0.000146813
-0.000143996
-0.000141142
-0.000138247
-0.000135307
-0.000132316
-0.000129269
-0.000126159
-0.000122978
-0.00011972
-0.000116375
-0.000112933
-0.000109385
-0.000105718
-0.000101921
-9.79783e-05
-9.38766e-05
-8.95996e-05
-8.51301e-05
-8.04498e-05
-7.55395e-05
-7.03788e-05
-6.49478e-05
-5.92269e-05
-5.32003e-05
-4.68595e-05
-4.0211e-05
-3.32885e-05
-2.61584e-05
-1.88845e-05
-1.16017e-05
0.000865026
0.000811371
0.000749285
0.000679707
0.000604428
0.000526112
0.000447365
0.000370322
0.000296668
0.000227698
0.000164331
0.000107111
5.62494e-05
1.16729e-05
-2.69069e-05
-5.99324e-05
-8.794e-05
-0.000111508
-0.000131216
-0.000147615
-0.000161206
-0.000172435
-0.000181685
-0.000189282
-0.000195495
-0.00020055
-0.000204629
-0.000207884
-0.000210435
-0.000212385
-0.000213816
-0.000214797
-0.000215385
-0.000215629
-0.00021557
-0.000215243
-0.000214678
-0.000213903
-0.000212939
-0.000211808
-0.000210525
-0.000209108
-0.00020757
-0.000205923
-0.000204177
-0.000202344
-0.00020043
-0.000198444
-0.000196394
-0.000194284
-0.00019212
-0.000189908
-0.000187652
-0.000185356
-0.000183022
-0.000180655
-0.000178256
-0.000175828
-0.000173372
-0.000170891
-0.000168384
-0.000165853
-0.000163299
-0.00016072
-0.000158117
-0.000155489
-0.000152835
-0.000150153
-0.000147441
-0.000144696
-0.000141917
-0.000139099
-0.000136239
-0.000133332
-0.000130373
-0.000127356
-0.000124275
-0.000121124
-0.000117894
-0.000114577
-0.000111164
-0.000107644
-0.000104006
-0.000100238
-9.63267e-05
-9.22579e-05
-8.80162e-05
-8.3585e-05
-7.89468e-05
-7.40833e-05
-6.89754e-05
-6.36042e-05
-5.79517e-05
-5.20032e-05
-4.57505e-05
-3.91968e-05
-3.23623e-05
-2.52763e-05
-1.79181e-05
-1.02045e-05
0.000821863
0.000772407
0.000715852
0.000652727
0.000584334
0.000512882
0.000440632
0.000369495
0.000301003
0.000236362
0.000176457
0.000121855
7.28285e-05
2.93956e-05
-8.62493e-06
-4.15627e-05
-6.98445e-05
-9.39489e-05
-0.000114369
-0.000131586
-0.000146047
-0.000158156
-0.000168268
-0.000176691
-0.000183685
-0.000189468
-0.000194223
-0.0001981
-0.000201224
-0.000203701
-0.000205616
-0.000207042
-0.00020804
-0.000208662
-0.000208952
-0.000208947
-0.000208681
-0.000208183
-0.000207476
-0.000206583
-0.000205522
-0.000204312
-0.000202967
-0.0002015
-0.000199923
-0.000198246
-0.00019648
-0.000194633
-0.000192712
-0.000190724
-0.000188676
-0.000186571
-0.000184417
-0.000182216
-0.000179973
-0.00017769
-0.000175372
-0.00017302
-0.000170636
-0.000168222
-0.00016578
-0.00016331
-0.000160813
-0.000158289
-0.000155738
-0.00015316
-0.000150552
-0.000147915
-0.000145245
-0.000142541
-0.0001398
-0.000137019
-0.000134194
-0.000131321
-0.000128395
-0.000125409
-0.00012236
-0.000119238
-0.000116038
-0.00011275
-0.000109366
-0.000105876
-0.000102268
-9.85314e-05
-9.46528e-05
-9.06185e-05
-8.64138e-05
-8.20228e-05
-7.74288e-05
-7.26143e-05
-6.75613e-05
-6.22521e-05
-5.66699e-05
-5.0801e-05
-4.46365e-05
-3.81762e-05
-3.14278e-05
-2.43914e-05
-1.69931e-05
-9.04898e-06
0.000781979
0.000736248
0.000684521
0.00062704
0.000564737
0.000499435
0.000433087
0.000367387
0.000303715
0.000243185
0.000186638
0.000134646
8.75256e-05
4.53655e-05
8.07168e-06
-2.45904e-05
-5.29525e-05
-7.74046e-05
-9.83623e-05
-0.00011624
-0.000131433
-0.000144306
-0.000155184
-0.000164354
-0.000172063
-0.000178523
-0.000183911
-0.000188378
-0.00019205
-0.000195034
-0.000197417
-0.000199276
-0.000200674
-0.000201666
-0.000202298
-0.000202611
-0.00020264
-0.000202415
-0.000201962
-0.000201306
-0.000200467
-0.000199463
-0.00019831
-0.000197022
-0.000195614
-0.000194095
-0.000192477
-0.000190768
-0.000188977
-0.000187112
-0.000185178
-0.000183183
-0.00018113
-0.000179026
-0.000176873
-0.000174677
-0.00017244
-0.000170164
-0.000167853
-0.000165508
-0.000163131
-0.000160723
-0.000158285
-0.000155817
-0.000153318
-0.00015079
-0.00014823
-0.000145638
-0.000143012
-0.000140349
-0.000137648
-0.000134905
-0.000132116
-0.000129278
-0.000126385
-0.000123433
-0.000120415
-0.000117325
-0.000114155
-0.000110898
-0.000107545
-0.000104086
-0.00010051
-9.68058e-05
-9.29616e-05
-8.89638e-05
-8.47982e-05
-8.04495e-05
-7.59018e-05
-7.11386e-05
-6.61428e-05
-6.08979e-05
-5.53881e-05
-4.96002e-05
-4.35249e-05
-3.71581e-05
-3.04974e-05
-2.35222e-05
-1.61324e-05
-8.12424e-06
0.000744985
0.000702586
0.000655107
0.000602589
0.000545683
0.000485894
0.000424903
0.000364197
0.000305014
0.00024837
0.00019506
0.000145647
0.000100475
5.96856e-05
2.32556e-05
-8.97029e-06
-3.72424e-05
-6.1873e-05
-8.32073e-05
-0.000101599
-0.000117395
-0.000130918
-0.000142466
-0.000152303
-0.000160662
-0.000167744
-0.000173722
-0.000178744
-0.000182935
-0.000186402
-0.000189235
-0.000191512
-0.000193298
-0.000194651
-0.000195618
-0.000196243
-0.000196562
-0.000196606
-0.000196405
-0.000195984
-0.000195363
-0.000194564
-0.000193602
-0.000192494
-0.000191253
-0.000189892
-0.000188421
-0.000186852
-0.000185191
-0.000183448
-0.00018163
-0.000179744
-0.000177794
-0.000175786
-0.000173726
-0.000171616
-0.00016946
-0.000167263
-0.000165025
-0.000162749
-0.000160438
-0.000158093
-0.000155714
-0.000153302
-0.000150857
-0.00014838
-0.000145869
-0.000143323
-0.000140741
-0.000138121
-0.00013546
-0.000132756
-0.000130005
-0.000127203
-0.000124345
-0.000121427
-0.000118442
-0.000115385
-0.000112248
-0.000109023
-0.000105702
-0.000102275
-9.87329e-05
-9.50638e-05
-9.1256e-05
-8.72967e-05
-8.31722e-05
-7.88681e-05
-7.43691e-05
-6.96596e-05
-6.47235e-05
-5.95452e-05
-5.41099e-05
-4.84049e-05
-4.24201e-05
-3.61482e-05
-2.95792e-05
-2.268e-05
-1.53445e-05
-7.39649e-06
0.000710554
0.000671152
0.000627437
0.000579305
0.000527198
0.000472356
0.000416223
0.000360097
0.000305083
0.000252103
0.000201897
0.000155012
0.000111805
7.24575e-05
3.70014e-05
5.34704e-06
-2.26869e-05
-4.7345e-05
-6.89096e-05
-8.76796e-05
-0.000103954
-0.000118019
-0.000130143
-0.000140567
-0.000149508
-0.000157157
-0.00016368
-0.000169219
-0.000173899
-0.000177824
-0.000181088
-0.000183766
-0.000185927
-0.000187629
-0.000188923
-0.000189852
-0.000190454
-0.000190764
-0.000190811
-0.000190621
-0.000190217
-0.00018962
-0.000188848
-0.000187918
-0.000186844
-0.00018564
-0.000184316
-0.000182885
-0.000181355
-0.000179735
-0.000178033
-0.000176256
-0.000174409
-0.000172499
-0.00017053
-0.000168507
-0.000166434
-0.000164315
-0.000162151
-0.000159946
-0.000157702
-0.000155419
-0.000153101
-0.000150746
-0.000148356
-0.000145931
-0.000143469
-0.000140971
-0.000138434
-0.000135857
-0.000133238
-0.000130574
-0.000127862
-0.000125097
-0.000122275
-0.000119393
-0.000116443
-0.000113419
-0.000110316
-0.000107125
-0.000103838
-0.000100446
-9.69391e-05
-9.33067e-05
-8.95373e-05
-8.56186e-05
-8.15376e-05
-7.72804e-05
-7.28325e-05
-6.81792e-05
-6.33053e-05
-5.8196e-05
-5.28374e-05
-4.72172e-05
-4.13248e-05
-3.51503e-05
-2.86787e-05
-2.18713e-05
-1.46292e-05
-6.82477e-06
0.000678403
0.000641714
0.000601353
0.000557118
0.000509289
0.000458892
0.000407164
0.000355238
0.000304089
0.000254552
0.000207309
0.000162884
0.000121639
8.3781e-05
4.9385e-05
1.84144e-05
-9.25397e-06
-3.38061e-05
-5.54688e-05
-7.44913e-05
-9.1129e-05
-0.000105633
-0.000118241
-0.000129174
-0.000138631
-0.00014679
-0.00015381
-0.000159827
-0.000164963
-0.00016932
-0.000172991
-0.000176053
-0.000178574
-0.000180613
-0.000182223
-0.000183448
-0.000184327
-0.000184896
-0.000185186
-0.000185223
-0.000185033
-0.000184636
-0.000184052
-0.000183298
-0.00018239
-0.000181341
-0.000180164
-0.000178871
-0.000177471
-0.000175974
-0.000174388
-0.000172719
-0.000170976
-0.000169164
-0.000167287
-0.000165352
-0.000163362
-0.000161321
-0.000159232
-0.000157098
-0.000154921
-0.000152703
-0.000150445
-0.000148149
-0.000145814
-0.000143442
-0.000141031
-0.000138581
-0.000136091
-0.000133558
-0.000130982
-0.000128359
-0.000125687
-0.00012296
-0.000120177
-0.00011733
-0.000114416
-0.000111429
-0.000108361
-0.000105205
-0.000101954
-9.85984e-05
-9.51288e-05
-9.15351e-05
-8.78062e-05
-8.39304e-05
-7.98951e-05
-7.56872e-05
-7.12929e-05
-6.66982e-05
-6.18889e-05
-5.68511e-05
-5.15717e-05
-4.60385e-05
-4.02408e-05
-3.41669e-05
-2.77992e-05
-2.10985e-05
-1.39808e-05
-6.37042e-06
0.00064829
0.000614066
0.000576711
0.000535954
0.000491952
0.000445556
0.000397825
0.000349745
0.000302176
0.000255866
0.000211441
0.000169399
0.000130094
9.37532e-05
6.0482e-05
3.02868e-05
3.09255e-06
-2.12366e-05
-4.28792e-05
-6.20393e-05
-7.89329e-05
-9.37774e-05
-0.000106783
-0.000118147
-0.000128053
-0.000136666
-0.000144135
-0.000150589
-0.000156146
-0.000160908
-0.000164962
-0.000168388
-0.000171252
-0.000173615
-0.000175529
-0.00017704
-0.000178188
-0.00017901
-0.000179537
-0.000179797
-0.000179816
-0.000179616
-0.000179217
-0.000178637
-0.000177893
-0.000176999
-0.000175968
-0.000174812
-0.000173542
-0.000172167
-0.000170696
-0.000169137
-0.000167497
-0.000165782
-0.000163999
-0.000162151
-0.000160245
-0.000158283
-0.000156269
-0.000154206
-0.000152097
-0.000149944
-0.000147748
-0.000145511
-0.000143232
-0.000140914
-0.000138554
-0.000136154
-0.000133711
-0.000131224
-0.000128692
-0.000126111
-0.000123479
-0.000120793
-0.000118048
-0.00011524
-0.000112364
-0.000109413
-0.000106382
-0.000103264
-0.00010005
-9.67327e-05
-9.33024e-05
-8.97495e-05
-8.60632e-05
-8.22325e-05
-7.82452e-05
-7.4089e-05
-6.97507e-05
-6.52172e-05
-6.04751e-05
-5.55112e-05
-5.03133e-05
-4.48695e-05
-3.91691e-05
-3.31996e-05
-2.69425e-05
-2.03618e-05
-1.33911e-05
-6.0015e-06
0.000620003
0.00058803
0.000553382
0.000515742
0.000475174
0.000432385
0.000388285
0.000343727
0.000299469
0.000256179
0.000214427
0.000174679
0.000137281
0.000102467
7.03675e-05
4.10207e-05
1.43917e-05
-9.61323e-06
-3.11303e-05
-5.03239e-05
-6.73742e-05
-8.2467e-05
-9.57862e-05
-0.000107508
-0.000117798
-0.000126808
-0.000134676
-0.000141526
-0.00014747
-0.000152605
-0.000157018
-0.000160785
-0.000163975
-0.000166646
-0.000168852
-0.000170638
-0.000172047
-0.000173113
-0.000173871
-0.000174349
-0.000174573
-0.000174566
-0.000174349
-0.000173941
-0.000173359
-0.000172617
-0.00017173
-0.00017071
-0.000169568
-0.000168315
-0.000166959
-0.000165509
-0.000163972
-0.000162355
-0.000160665
-0.000158905
-0.000157082
-0.0001552
-0.000153262
-0.000151271
-0.000149231
-0.000147143
-0.000145009
-0.000142832
-0.00014061
-0.000138346
-0.000136039
-0.000133689
-0.000131294
-0.000128854
-0.000126367
-0.00012383
-0.00012124
-0.000118595
-0.000115891
-0.000113122
-0.000110285
-0.000107373
-0.000104381
-0.000101301
-9.81266e-05
-9.48492e-05
-9.14602e-05
-8.795e-05
-8.43086e-05
-8.05251e-05
-7.65882e-05
-7.24861e-05
-6.82063e-05
-6.37365e-05
-5.9064e-05
-5.41766e-05
-4.90626e-05
-4.37108e-05
-3.81104e-05
-3.22492e-05
-2.61093e-05
-1.96597e-05
-1.28518e-05
-5.69368e-06
0.000593359
0.000563447
0.000531247
0.000496414
0.000458937
0.000419408
0.000378607
0.000337277
0.00029608
0.00025561
0.000216387
0.00017884
0.000143304
0.000110013
7.91151e-05
5.06733e-05
2.46847e-05
1.09098e-06
-2.02079e-05
-3.93414e-05
-5.64572e-05
-7.17124e-05
-8.5266e-05
-9.72736e-05
-0.000107883
-0.000117234
-0.000125454
-0.000132658
-0.000138951
-0.000144429
-0.000149174
-0.000153261
-0.000156757
-0.00015972
-0.000162203
-0.000164254
-0.000165912
-0.000167215
-0.000168196
-0.000168886
-0.000169309
-0.000169491
-0.000169452
-0.000169213
-0.000168789
-0.000168198
-0.000167454
-0.000166568
-0.000165554
-0.000164421
-0.00016318
-0.000161838
-0.000160404
-0.000158884
-0.000157286
-0.000155615
-0.000153876
-0.000152073
-0.000150211
-0.000148293
-0.000146322
-0.0001443
-0.000142229
-0.000140112
-0.000137948
-0.00013574
-0.000133486
-0.000131187
-0.000128841
-0.000126449
-0.000124008
-0.000121515
-0.00011897
-0.000116367
-0.000113704
-0.000110976
-0.000108179
-0.000105308
-0.000102356
-9.93168e-05
-9.61834e-05
-9.2948e-05
-8.96022e-05
-8.61369e-05