/*--------------------------------*- C++ -*----------------------------------*\
| =========                 |                                                 |
| \\      /  F ield         | OpenFOAM: The Open Source CFD Toolbox           |
|  \\    /   O peration     | Version:  2.3.0                                 |
|   \\  /    A nd           | Web:      www.OpenFOAM.org                      |
|    \\/     M anipulation  |                                                 |
\*---------------------------------------------------------------------------*/
FoamFile
{
    version     2.0;
    format      ascii;
    class       volScalarField;
    location    "0.35";
    object      p;
}
// * * * * * * * * * * * * * * * * * * * * * * * * * * * * * * * * * * * * * //

dimensions      [0 2 -2 0 0 0 0];

internalField   nonuniform List<scalar> 
2000
(
0.00236199
0.0020358
0.0014352
0.000879964
0.00042193
3.36658e-05
-0.000292966
-0.000539372
-0.000685823
-0.000737547
-0.000721721
-0.000670292
-0.000607842
-0.000548933
-0.000499979
-0.000461974
-0.000433189
-0.000411136
-0.000393534
-0.000378538
-0.000364769
-0.000351396
-0.000338155
-0.000325132
-0.000312438
-0.000300053
-0.000287917
-0.000276059
-0.00026461
-0.000253695
-0.000243335
-0.000233468
-0.000224037
-0.000215062
-0.000206652
-0.000198895
-0.000191769
-0.00018515
-0.000178894
-0.00017293
-0.000167257
-0.000161876
-0.000156809
-0.000152122
-0.000147828
-0.000143869
-0.000140201
-0.000136779
-0.000133539
-0.000130449
-0.000127504
-0.000124694
-0.000121996
-0.000119391
-0.000116868
-0.000114421
-0.000112042
-0.000109716
-0.000107412
-0.000105084
-0.000102688
-0.000100186
-9.75495e-05
-9.4762e-05
-9.18163e-05
-8.87005e-05
-8.54068e-05
-8.19388e-05
-7.82867e-05
-7.44347e-05
-7.03813e-05
-6.61453e-05
-6.17407e-05
-5.71703e-05
-5.24928e-05
-4.78175e-05
-4.31607e-05
-3.86171e-05
-3.42998e-05
-3.02511e-05
-2.65275e-05
-2.3171e-05
-2.0206e-05
-1.76267e-05
-1.54146e-05
-1.35337e-05
-1.19415e-05
-1.05876e-05
-9.42345e-06
-8.40322e-06
-7.48746e-06
-6.6425e-06
-5.84194e-06
-5.06892e-06
-4.30768e-06
-3.55439e-06
-2.79529e-06
-2.03033e-06
-1.23986e-06
-4.26177e-07
0.00190811
0.00173859
0.001321
0.000846073
0.000416955
5.07719e-05
-0.000252634
-0.000480677
-0.000621868
-0.000679521
-0.000674114
-0.000633224
-0.000579872
-0.000528118
-0.000484495
-0.000450187
-0.000423808
-0.000403288
-0.0003867
-0.00037243
-0.000359221
-0.0003463
-0.000333444
-0.000320775
-0.000308419
-0.000296349
-0.000284495
-0.000272879
-0.000261642
-0.000250928
-0.000240758
-0.000231062
-0.000221776
-0.000212922
-0.000204621
-0.000196975
-0.000189965
-0.00018346
-0.000177307
-0.000171432
-0.000165842
-0.000160534
-0.000155531
-0.00015091
-0.000146685
-0.000142794
-0.000139191
-0.000135832
-0.000132651
-0.000129614
-0.00012672
-0.00012396
-0.000121311
-0.000118752
-0.000116272
-0.000113867
-0.00011153
-0.000109245
-0.000106983
-0.000104696
-0.000102339
-9.98749e-05
-9.72735e-05
-9.45194e-05
-9.16062e-05
-8.85214e-05
-8.52567e-05
-8.1817e-05
-7.81921e-05
-7.43637e-05
-7.03311e-05
-6.61154e-05
-6.17295e-05
-5.71959e-05
-5.25098e-05
-4.78535e-05
-4.3201e-05
-3.86549e-05
-3.4337e-05
-3.02839e-05
-2.65554e-05
-2.31936e-05
-2.02242e-05
-1.76408e-05
-1.54256e-05
-1.35423e-05
-1.19486e-05
-1.05938e-05
-9.42933e-06
-8.40902e-06
-7.4934e-06
-6.64852e-06
-5.84791e-06
-5.07466e-06
-4.31295e-06
-3.55915e-06
-2.79953e-06
-2.03412e-06
-1.24282e-06
-4.29499e-07
0.00158156
0.0014825
0.00120489
0.000822961
0.000437866
0.000100005
-0.000175937
-0.000384342
-0.00052204
-0.000591795
-0.000605979
-0.000584002
-0.00054556
-0.000504722
-0.000468204
-0.000437997
-0.000413755
-0.000394296
-0.00037828
-0.000364414
-0.000351578
-0.000339038
-0.000326582
-0.000314345
-0.000302455
-0.000290861
-0.000279464
-0.000268273
-0.000257422
-0.000247055
-0.000237194
-0.000227772
-0.000218726
-0.000210082
-0.000201974
-0.000194511
-0.000187671
-0.000181325
-0.000175313
-0.000169561
-0.000164082
-0.000158874
-0.000153957
-0.000149419
-0.000145279
-0.000141471
-0.00013795
-0.000134672
-0.000131563
-0.00012859
-0.000125756
-0.000123055
-0.000120462
-0.000117956
-0.000115526
-0.00011317
-0.000110879
-0.000108643
-0.00010643
-0.00010419
-0.000101878
-9.94581e-05
-9.68968e-05
-9.418e-05
-9.13032e-05
-8.82536e-05
-8.50215e-05
-8.16145e-05
-7.80225e-05
-7.42247e-05
-7.02185e-05
-6.60269e-05
-6.16625e-05
-5.71456e-05
-5.25302e-05
-4.7823e-05
-4.31743e-05
-3.86279e-05
-3.43224e-05
-3.02738e-05
-2.65471e-05
-2.31854e-05
-2.02165e-05
-1.76334e-05
-1.5419e-05
-1.35368e-05
-1.19447e-05
-1.05917e-05
-9.42918e-06
-8.41057e-06
-7.49678e-06
-6.65316e-06
-5.8537e-06
-5.08116e-06
-4.31979e-06
-3.56662e-06
-2.80684e-06
-2.04264e-06
-1.24922e-06
-4.36423e-07
0.00134965
0.0012738
0.00108112
0.00078684
0.000459188
0.000156742
-9.37073e-05
-0.000284992
-0.00041746
-0.000494718
-0.000524909
-0.000521218
-0.000498641
-0.000469507
-0.000441026
-0.000416163
-0.00039546
-0.00037839
-0.000364035
-0.000351398
-0.00033958
-0.000327965
-0.000316361
-0.0003049
-0.000293716
-0.000282771
-0.000271977
-0.000261354
-0.000251049
-0.000241192
-0.000231776
-0.000222721
-0.000213981
-0.000205609
-0.000197754
-0.00019053
-0.000183919
-0.000177797
-0.000172002
-0.000166442
-0.000161123
-0.00015605
-0.000151256
-0.00014684
-0.000142826
-0.000139147
-0.000135756
-0.000132601
-0.0001296
-0.000126721
-0.000123976
-0.000121358
-0.000118847
-0.000116421
-0.000114069
-0.000111789
-0.000109573
-0.000107409
-0.000105269
-0.000103101
-0.000100857
-9.85024e-05
-9.60037e-05
-9.33477e-05
-9.05314e-05
-8.75416e-05
-8.43676e-05
-8.10189e-05
-7.74854e-05
-7.37447e-05
-6.97934e-05
-6.56555e-05
-6.13436e-05
-5.68756e-05
-5.22957e-05
-4.76413e-05
-4.30183e-05
-3.85335e-05
-3.42295e-05
-3.01988e-05
-2.64895e-05
-2.31418e-05
-2.01847e-05
-1.761e-05
-1.54026e-05
-1.35254e-05
-1.19377e-05
-1.05877e-05
-9.42842e-06
-8.4122e-06
-7.50106e-06
-6.65902e-06
-5.86117e-06
-5.08985e-06
-4.32923e-06
-3.57822e-06
-2.81845e-06
-2.05816e-06
-1.2613e-06
-4.49744e-07
0.00116091
0.00109461
0.0009513
0.000728787
0.000463312
0.000202613
-2.14191e-05
-0.000196851
-0.000323066
-0.000403785
-0.000445029
-0.000455642
-0.00044664
-0.00042828
-0.000407604
-0.00038822
-0.000371385
-0.000357083
-0.00034475
-0.000333693
-0.000323237
-0.000312841
-0.000302294
-0.000291738
-0.000281379
-0.000271229
-0.000261198
-0.000251296
-0.000241677
-0.000232467
-0.000223624
-0.000215045
-0.000206729
-0.000198786
-0.00019135
-0.000184476
-0.000178136
-0.000172262
-0.000166737
-0.000161456
-0.000156389
-0.000151542
-0.00014695
-0.000142693
-0.000138809
-0.000135272
-0.000132045
-0.00012905
-0.000126195
-0.00012345
-0.000120824
-0.000118314
-0.000115906
-0.00011358
-0.000111325
-0.000109137
-0.000107016
-0.000104952
-0.000102912
-0.000100842
-9.86963e-05
-9.6437e-05
-9.40305e-05
-9.14657e-05
-8.87417e-05
-8.58464e-05
-8.27694e-05
-7.95212e-05
-7.6092e-05
-7.24596e-05
-6.8619e-05
-6.4593e-05
-6.03938e-05
-5.60389e-05
-5.1565e-05
-4.70222e-05
-4.25015e-05
-3.81055e-05
-3.38985e-05
-2.99463e-05
-2.63033e-05
-2.30072e-05
-2.00899e-05
-1.75428e-05
-1.53556e-05
-1.34905e-05
-1.19114e-05
-1.05655e-05
-9.41045e-06
-8.39626e-06
-7.48849e-06
-6.64896e-06
-5.8546e-06
-5.08759e-06
-4.32972e-06
-3.58574e-06
-2.82725e-06
-2.07608e-06
-1.27726e-06
-4.69937e-07
0.000996734
0.000937103
0.000825042
0.000656278
0.000448336
0.000232603
3.73924e-05
-0.00012179
-0.000240914
-0.000322087
-0.000369952
-0.000390912
-0.000392981
-0.000384251
-0.000370988
-0.00035699
-0.000344035
-0.000332563
-0.000322358
-0.000313007
-0.000304008
-0.000294866
-0.00028539
-0.000275793
-0.000266354
-0.000257091
-0.000247855
-0.000238651
-0.000229688
-0.00022114
-0.000212951
-0.000204958
-0.000197155
-0.000189712
-0.000182758
-0.000176272
-0.000170219
-0.000164617
-0.000159421
-0.000154479
-0.000149694
-0.000145105
-0.000140778
-0.000136733
-0.000133005
-0.000129634
-0.000126586
-0.000123755
-0.000121059
-0.000118475
-0.000115993
-0.000113607
-0.000111318
-0.000109116
-0.000106979
-0.000104903
-0.00010289
-0.000100934
-9.90016e-05
-9.70446e-05
-9.50154e-05
-9.28759e-05
-9.05939e-05
-8.81573e-05
-8.55623e-05
-8.28001e-05
-7.98627e-05
-7.67591e-05
-7.34808e-05
-7.00114e-05
-6.63445e-05
-6.24997e-05
-5.84875e-05
-5.43234e-05
-5.004e-05
-4.56955e-05
-4.13754e-05
-3.71626e-05
-3.31236e-05
-2.9318e-05
-2.58076e-05
-2.26217e-05
-1.97928e-05
-1.73115e-05
-1.51744e-05
-1.3343e-05
-1.17876e-05
-1.04567e-05
-9.31325e-06
-8.30809e-06
-7.40805e-06
-6.57775e-06
-5.79078e-06
-5.03557e-06
-4.28447e-06
-3.55546e-06
-2.80416e-06
-2.06918e-06
-1.28007e-06
-4.86786e-07
0.000851201
0.00079798
0.000708383
0.000579466
0.000419271
0.000246476
8.19118e-05
-5.90904e-05
-0.000169531
-0.000248943
-0.000300309
-0.000328349
-0.000338984
-0.000338452
-0.000332021
-0.000323241
-0.000314101
-0.000305442
-0.000297412
-0.000289836
-0.000282337
-0.000274486
-0.000266156
-0.000257634
-0.000249229
-0.00024091
-0.000232478
-0.000223982
-0.000215726
-0.000207905
-0.000200411
-0.000193019
-0.000185741
-0.000178825
-0.000172407
-0.000166386
-0.000160673
-0.000155349
-0.000150462
-0.000145835
-0.000141317
-0.000137013
-0.000133016
-0.000129235
-0.000125679
-0.000122477
-0.000119601
-0.000116909
-0.000114352
-0.000111929
-0.000109602
-0.000107351
-0.000105195
-0.000103127
-0.000101114
-9.91493e-05
-9.72455e-05
-9.53932e-05
-9.3562e-05
-9.17164e-05
-8.981e-05
-8.77982e-05
-8.56551e-05
-8.33704e-05
-8.09308e-05
-7.83314e-05
-7.55701e-05
-7.26496e-05
-6.95632e-05
-6.63056e-05
-6.28686e-05
-5.92643e-05
-5.55062e-05
-5.16114e-05
-4.76076e-05
-4.3551e-05
-3.95177e-05
-3.55712e-05
-3.17794e-05
-2.81997e-05
-2.48959e-05
-2.18855e-05
-1.91991e-05
-1.68291e-05
-1.47781e-05
-1.30093e-05
-1.14971e-05
-1.01986e-05
-9.0784e-06
-8.09476e-06
-7.21064e-06
-6.40053e-06
-5.62927e-06
-4.89648e-06
-4.16173e-06
-3.45593e-06
-2.72299e-06
-2.01066e-06
-1.24607e-06
-4.7762e-07
0.000721744
0.000675184
0.000603214
0.00050389
0.00038124
0.000245854
0.000111478
-9.4306e-06
-0.000108929
-0.000184336
-0.000236725
-0.000269179
-0.000285983
-0.000292008
-0.000291577
-0.000287663
-0.000282114
-0.000276095
-0.000270168
-0.000264376
-0.000258425
-0.000251938
-0.000244826
-0.000237434
-0.000230124
-0.000222817
-0.000215249
-0.000207528
-0.000200058
-0.000193028
-0.000186238
-0.000179436
-0.000172722
-0.000166415
-0.000160586
-0.000155051
-0.00014971
-0.000144702
-0.000140148
-0.000135853
-0.000131616
-0.000127612
-0.000123958
-0.000120457
-0.000117105
-0.000114108
-0.000111415
-0.000108852
-0.000106426
-0.000104165
-0.000101997
-9.98852e-05
-9.78631e-05
-9.59327e-05
-9.405e-05
-9.22061e-05
-9.04221e-05
-8.86806e-05
-8.69454e-05
-8.52023e-05
-8.34145e-05
-8.15293e-05
-7.95289e-05
-7.7408e-05
-7.5143e-05
-7.27302e-05
-7.01729e-05
-6.74652e-05
-6.46022e-05
-6.15899e-05
-5.84178e-05
-5.50939e-05
-5.164e-05
-4.80701e-05
-4.43999e-05
-4.06828e-05
-3.69946e-05
-3.33806e-05
-2.98984e-05
-2.66048e-05
-2.35618e-05
-2.07768e-05
-1.82742e-05
-1.60547e-05
-1.4122e-05
-1.24459e-05
-1.09996e-05
-9.75431e-06
-8.67347e-06
-7.72668e-06
-6.87144e-06
-6.09376e-06
-5.35111e-06
-4.65166e-06
-3.94775e-06
-3.27416e-06
-2.57497e-06
-1.89306e-06
-1.16868e-06
-4.35892e-07
0.000612114
0.000571896
0.00051336
0.000435235
0.00033992
0.000233733
0.000125596
2.45141e-05
-6.25422e-05
-0.000131892
-0.000182968
-0.000217298
-0.000237843
-0.000248444
-0.00025262
-0.000252678
-0.000250159
-0.000246414
-0.000242366
-0.000238233
-0.000233744
-0.000228537
-0.000222569
-0.000216266
-0.000210065
-0.000203822
-0.000197145
-0.000190177
-0.000183468
-0.000177241
-0.000171186
-0.000164986
-0.00015885
-0.000153178
-0.000147943
-0.000142866
-0.000137909
-0.000133291
-0.000129124
-0.000125157
-0.000121201
-0.000117514
-0.000114204
-0.000110979
-0.000107853
-0.000105091
-0.000102598
-0.000100178
-9.78951e-05
-9.57967e-05
-9.37831e-05
-9.1813e-05
-8.99331e-05
-8.81467e-05
-8.64011e-05
-8.46847e-05
-8.30263e-05
-8.14035e-05
-7.97736e-05
-7.81362e-05
-7.6466e-05
-7.47096e-05
-7.2856e-05
-7.09023e-05
-6.88174e-05
-6.66004e-05
-6.42593e-05
-6.17795e-05
-5.9156e-05
-5.64021e-05
-5.35084e-05
-5.04822e-05
-4.73498e-05
-4.41156e-05
-4.07879e-05
-3.74267e-05
-3.41053e-05
-3.08466e-05
-2.76927e-05
-2.47048e-05
-2.19406e-05
-1.93998e-05
-1.70992e-05
-1.50511e-05
-1.32578e-05
-1.16955e-05
-1.03348e-05
-9.16039e-06
-8.1349e-06
-7.23747e-06
-6.42415e-06
-5.68777e-06
-4.98574e-06
-4.3272e-06
-3.66687e-06
-3.03339e-06
-2.38082e-06
-1.73815e-06
-1.06647e-06
-3.81018e-07
0.000516394
0.000482099
0.000434376
0.000372409
0.000297779
0.00021454
0.000128533
4.58504e-05
-2.82282e-05
-8.99935e-05
-0.000137803
-0.00017198
-0.000194413
-0.00020797
-0.000215391
-0.000218467
-0.00021845
-0.000216675
-0.000214261
-0.000211576
-0.000208357
-0.000204275
-0.000199389
-0.000194193
-0.000189107
-0.000183894
-0.000178075
-0.000171852
-0.000165923
-0.00016054
-0.000155251
-0.000149657
-0.000144077
-0.000139036
-0.000134429
-0.00012985
-0.000125298
-0.000121109
-0.000117376
-0.000113749
-0.000110087
-0.000106755
-0.000103802
-0.000100849
-9.79668e-05
-9.54711e-05
-9.31998e-05
-9.09423e-05
-8.88267e-05
-8.69076e-05
-8.50575e-05
-8.3243e-05
-8.15212e-05
-7.98869e-05
-7.82841e-05
-7.67077e-05
-7.51863e-05
-7.3692e-05
-7.21855e-05
-7.06741e-05
-6.91335e-05
-6.75157e-05
-6.58211e-05
-6.40438e-05
-6.21464e-05
-6.01339e-05
-5.80173e-05
-5.57744e-05
-5.34049e-05
-5.09273e-05
-4.83255e-05
-4.56037e-05
-4.27961e-05
-3.99045e-05
-3.69308e-05
-3.39362e-05
-3.09863e-05
-2.80853e-05
-2.52626e-05
-2.25868e-05
-2.01099e-05
-1.78254e-05
-1.57417e-05
-1.38814e-05
-1.22441e-05
-1.0811e-05
-9.5518e-06
-8.46123e-06
-7.50481e-06
-6.66674e-06
-5.90637e-06
-5.2186e-06
-4.56673e-06
-3.95512e-06
-3.3473e-06
-2.76067e-06
-2.16355e-06
-1.56903e-06
-9.58443e-07
-3.33301e-07
0.000427788
0.000399224
0.000360869
0.000312217
0.000254386
0.000190054
0.000123
5.7185e-05
-3.713e-06
-5.65384e-05
-9.92599e-05
-0.000131465
-0.000154184
-0.000169299
-0.000178765
-0.00018397
-0.000185903
-0.000185743
-0.000184699
-0.000183264
-0.000181162
-0.000178096
-0.000174268
-0.00017021
-0.000166213
-0.000161944
-0.000156976
-0.000151599
-0.000146554
-0.000142043
-0.000137512
-0.000132549
-0.000127598
-0.000123244
-0.00011931
-0.000115283
-0.000111182
-0.000107465
-0.000104225
-0.000100994
-9.76708e-05
-9.47375e-05
-9.21752e-05
-8.95184e-05
-8.69207e-05
-8.47274e-05
-8.2703e-05
-8.06429e-05
-7.87367e-05
-7.70306e-05
-7.53677e-05
-7.37305e-05
-7.21909e-05
-7.07296e-05
-6.92864e-05
-6.78714e-05
-6.65125e-05
-6.5169e-05
-6.38087e-05
-6.24497e-05
-6.10633e-05
-5.96054e-05
-5.80896e-05
-5.65097e-05
-5.48245e-05
-5.30433e-05
-5.1173e-05
-4.91857e-05
-4.70928e-05
-4.49182e-05
-4.26335e-05
-4.02386e-05
-3.77788e-05
-3.52556e-05
-3.26607e-05
-3.00515e-05
-2.74867e-05
-2.49595e-05
-2.24907e-05
-2.01519e-05
-1.79862e-05
-1.59809e-05
-1.41381e-05
-1.24881e-05
-1.10297e-05
-9.74679e-06
-8.6115e-06
-7.62356e-06
-6.75501e-06
-5.99128e-06
-5.29808e-06
-4.67052e-06
-4.0797e-06
-3.52507e-06
-2.97928e-06
-2.44977e-06
-1.91716e-06
-1.38311e-06
-8.42763e-07
-2.88661e-07
0.000344982
0.00032195
0.000291844
0.000254384
0.000210423
0.000161759
0.000110758
5.99202e-05
1.16893e-05
-3.15319e-05
-6.78255e-05
-9.64251e-05
-0.000117772
-0.000133002
-0.000143342
-0.000149701
-0.000152814
-0.000153784
-0.000153871
-0.000153532
-0.000152345
-0.000150065
-0.000147142
-0.000144192
-0.000141286
-0.000137908
-0.00013375
-0.000129274
-0.00012519
-0.000121566
-0.000117775
-0.000113494
-0.000109287
-0.000105692
-0.000102413
-9.89497e-05
-9.53958e-05
-9.22392e-05
-8.95185e-05
-8.6721e-05
-8.38221e-05
-8.13483e-05
-7.91826e-05
-7.68488e-05
-7.45939e-05
-7.27399e-05
-7.09875e-05
-6.91734e-05
-6.75248e-05
-6.60585e-05
-6.46077e-05
-6.31783e-05
-6.18481e-05
-6.05856e-05
-5.93291e-05
-5.80992e-05
-5.69243e-05
-5.5757e-05
-5.457e-05
-5.33886e-05
-5.21836e-05
-5.09156e-05
-4.96053e-05
-4.82447e-05
-4.67941e-05
-4.52695e-05
-4.36753e-05
-4.19757e-05
-4.0183e-05
-3.83277e-05
-3.63854e-05
-3.43541e-05
-3.22735e-05
-3.01396e-05
-2.79423e-05
-2.57384e-05
-2.35776e-05
-2.14466e-05
-1.93603e-05
-1.73853e-05
-1.55533e-05
-1.38477e-05
-1.22695e-05
-1.08528e-05
-9.5973e-06
-8.48675e-06
-7.49866e-06
-6.63527e-06
-5.87532e-06
-5.20404e-06
-4.59447e-06
-4.04175e-06
-3.52399e-06
-3.0381e-06
-2.56373e-06
-2.10226e-06
-1.64222e-06
-1.18045e-06
-7.17414e-07
-2.44303e-07
0.000266604
0.000248899
0.000226158
0.00019828
0.000165982
0.000130484
9.31715e-05
5.54831e-05
1.89722e-05
-1.45887e-05
-4.35557e-05
-6.71113e-05
-8.54964e-05
-9.94454e-05
-0.000109505
-0.000115987
-0.000119455
-0.000121067
-0.00012201
-0.000122488
-0.000121898
-0.000120128
-0.000117955
-0.000116089
-0.000114294
-0.000111762
-0.000108302
-0.000104676
-0.000101623
-9.89628e-05
-9.59191e-05
-9.23234e-05
-8.89257e-05
-8.61779e-05
-8.3597e-05
-8.07067e-05
-7.77776e-05
-7.52968e-05
-7.31183e-05
-7.07501e-05
-6.83675e-05
-6.64376e-05
-6.46675e-05
-6.26871e-05
-6.08642e-05
-5.93992e-05
-5.7934e-05
-5.64094e-05
-5.50705e-05
-5.38718e-05
-5.26588e-05
-5.14774e-05
-5.03913e-05
-4.93493e-05
-4.83074e-05
-4.72961e-05
-4.63293e-05
-4.53635e-05
-4.43848e-05
-4.34113e-05
-4.24128e-05
-4.13664e-05
-4.02935e-05
-3.91785e-05
-3.7989e-05
-3.67454e-05
-3.54497e-05
-3.40687e-05
-3.2613e-05
-3.11094e-05
-2.95403e-05
-2.79046e-05
-2.62268e-05
-2.45001e-05
-2.27278e-05
-2.09646e-05
-1.9238e-05
-1.75258e-05
-1.58443e-05
-1.4255e-05
-1.27782e-05
-1.13957e-05
-1.01112e-05
-8.95672e-06
-7.93148e-06
-7.01835e-06
-6.20154e-06
-5.48501e-06
-4.85346e-06
-4.29346e-06
-3.78486e-06
-3.32404e-06
-2.89371e-06
-2.49043e-06
-2.09843e-06
-1.71727e-06
-1.3397e-06
-9.61478e-07
-5.83624e-07
-1.95996e-07
0.000191004
0.000178428
0.000162424
0.000143017
0.000120805
9.65993e-05
7.11137e-05
4.50435e-05
1.93427e-05
-4.67538e-06
-2.57219e-05
-4.31986e-05
-5.73942e-05
-6.87861e-05
-7.736e-05
-8.29497e-05
-8.60128e-05
-8.77041e-05
-8.90138e-05
-8.99096e-05
-8.97294e-05
-8.8427e-05
-8.68935e-05
-8.58691e-05
-8.49567e-05
-8.32017e-05
-8.04879e-05
-7.77452e-05
-7.57282e-05
-7.40445e-05
-7.17752e-05
-6.89104e-05
-6.6361e-05
-6.44925e-05
-6.2667e-05
-6.04061e-05
-5.81533e-05
-5.64332e-05
-5.48663e-05
-5.29553e-05
-5.11468e-05
-4.98363e-05
-4.85015e-05
-4.69138e-05
-4.55797e-05
-4.45433e-05
-4.33981e-05
-4.22121e-05
-4.12342e-05
-4.0345e-05
-3.94079e-05
-3.85138e-05
-3.77089e-05
-3.6918e-05
-3.61198e-05
-3.53588e-05
-3.46291e-05
-3.38921e-05
-3.31531e-05
-3.24199e-05
-3.16612e-05
-3.08704e-05
-3.00619e-05
-2.92195e-05
-2.83315e-05
-2.74079e-05
-2.6432e-05
-2.53908e-05
-2.43111e-05
-2.32007e-05
-2.20342e-05
-2.08181e-05
-1.95712e-05
-1.82862e-05
-1.69765e-05
-1.5686e-05
-1.44171e-05
-1.31442e-05
-1.18926e-05
-1.07179e-05
-9.62717e-06
-8.59853e-06
-7.63844e-06
-6.77554e-06
-6.00779e-06
-5.31959e-06
-4.70178e-06
-4.15824e-06
-3.67759e-06
-3.24949e-06
-2.86023e-06
-2.50791e-06
-2.17981e-06
-1.87226e-06
-1.57534e-06
-1.28683e-06
-1.00323e-06
-7.19389e-07
-4.38776e-07
-1.53151e-07
0.00011613
0.000108562
9.896e-05
8.73828e-05
7.42509e-05
6.00564e-05
4.51258e-05
2.97123e-05
1.4314e-05
-2.42248e-07
-1.31204e-05
-2.39578e-05
-3.29915e-05
-4.05106e-05
-4.63561e-05
-5.02343e-05
-5.23641e-05
-5.35893e-05
-5.46781e-05
-5.55714e-05
-5.5663e-05
-5.48225e-05
-5.37886e-05
-5.32827e-05
-5.29943e-05
-5.20454e-05
-5.02761e-05
-4.84661e-05
-4.73054e-05
-4.64546e-05
-4.50623e-05
-4.31422e-05
-4.15146e-05
-4.04594e-05
-3.94008e-05
-3.79145e-05
-3.64228e-05
-3.54336e-05
-3.45295e-05
-3.32324e-05
-3.20595e-05
-3.13462e-05
-3.05118e-05
-2.9423e-05
-2.86022e-05
-2.80073e-05
-2.7259e-05
-2.64811e-05
-2.58868e-05
-2.53384e-05
-2.47293e-05
-2.41586e-05
-2.36608e-05
-2.31603e-05
-2.26483e-05
-2.21714e-05
-2.1714e-05
-2.1244e-05
-2.07782e-05
-2.03168e-05
-1.98326e-05
-1.93339e-05
-1.88271e-05
-1.82901e-05
-1.77277e-05
-1.71541e-05
-1.65433e-05
-1.58858e-05
-1.52073e-05
-1.45089e-05
-1.37751e-05
-1.30217e-05
-1.2254e-05
-1.14532e-05
-1.06329e-05
-9.83233e-06
-9.04733e-06
-8.25385e-06
-7.47376e-06
-6.74656e-06
-6.07136e-06
-5.42815e-06
-4.82556e-06
-4.28453e-06
-3.80287e-06
-3.36806e-06
-2.9764e-06
-2.63215e-06
-2.32758e-06
-2.05606e-06
-1.80898e-06
-1.58523e-06
-1.37652e-06
-1.18064e-06
-9.91565e-07
-8.084e-07
-6.2759e-07
-4.4721e-07
-2.67993e-07
-9.13694e-08
3.92921e-05
3.67547e-05
3.35282e-05
2.964e-05
2.52524e-05
2.05453e-05
1.5619e-05
1.05136e-05
5.35271e-06
4.1092e-07
-3.99469e-06
-7.69965e-06
-1.07791e-05
-1.33719e-05
-1.54677e-05
-1.69378e-05
-1.77584e-05
-1.81888e-05
-1.85764e-05
-1.89469e-05
-1.90281e-05
-1.87203e-05
-1.83358e-05
-1.82091e-05
-1.82022e-05
-1.79152e-05
-1.72721e-05
-1.66045e-05
-1.62148e-05
-1.59722e-05
-1.55095e-05
-1.48255e-05
-1.42645e-05
-1.39347e-05
-1.35931e-05
-1.30601e-05
-1.25131e-05
-1.21873e-05
-1.19051e-05
-1.14381e-05
-1.10162e-05
-1.07983e-05
-1.0519e-05
-1.01194e-05
-9.83948e-06
-9.6545e-06
-9.39273e-06
-9.11566e-06
-8.9164e-06
-8.73003e-06
-8.51346e-06
-8.3144e-06
-8.14513e-06
-7.97069e-06
-7.79056e-06
-7.62623e-06
-7.46672e-06
-7.30142e-06
-7.14295e-06
-6.98607e-06
-6.81501e-06
-6.64322e-06
-6.47533e-06
-6.29153e-06
-6.09257e-06
-5.89606e-06
-5.69352e-06
-5.47035e-06
-5.23043e-06
-4.98035e-06
-4.72571e-06
-4.47356e-06
-4.2173e-06
-3.94022e-06
-3.65226e-06
-3.37434e-06
-3.10753e-06
-2.83794e-06
-2.57287e-06
-2.32611e-06
-2.0961e-06
-1.87547e-06
-1.66709e-06
-1.48138e-06
-1.3157e-06
-1.16703e-06
-1.03173e-06
-9.13036e-07
-8.06578e-07
-7.11656e-07
-6.24844e-07
-5.46899e-07
-4.74696e-07
-4.07766e-07
-3.44086e-07
-2.82005e-07
-2.21671e-07
-1.59779e-07
-9.72499e-08
-2.38087e-08
6.86147e-05
5.83209e-05
6.46622e-05
7.20479e-05
8.77431e-05
9.95034e-05
0.000119316
0.000135845
0.000161976
0.000185179
0.000218804
0.000249698
0.00029345
0.000335009
0.000391804
0.00044684
0.000521242
0.00059585
0.000696534
0.00080305
0.000949604
0.00111743
0.00135779
0.0016507
0.00204484
6.7866e-05
5.83647e-05
6.4542e-05
7.19995e-05
8.72988e-05
9.92381e-05
0.000118602
0.000135283
0.00016079
0.000184261
0.000217214
0.000248831
0.000291178
0.000333868
0.000388377
0.000445204
0.000515998
0.000593244
0.000688321
0.0007982
0.00093466
0.00110276
0.00131141
0.00156161
0.00179146
6.65882e-05
5.8632e-05
6.4148e-05
7.19208e-05
8.62354e-05
9.88817e-05
0.000117146
0.000134728
0.000158681
0.000183219
0.000214511
0.000247376
0.000287595
0.000331585
0.000383447
0.000441537
0.000508937
0.000587041
0.000677264
0.000785997
0.000912434
0.00106768
0.00123915
0.00142228
0.00155098
6.49713e-05
5.88364e-05
6.35871e-05
7.15556e-05
8.47885e-05
9.80291e-05
0.000115307
0.000133502
0.000156173
0.000181314
0.000211231
0.000244628
0.000283252
0.00032744
0.000377432
0.00043506
0.000500105
0.000576308
0.000662649
0.000765128
0.000880709
0.00101326
0.00114899
0.00127404
0.00134812
6.29053e-05
5.88605e-05
6.28628e-05
7.08181e-05
8.29758e-05
9.65443e-05
0.000113014
0.000131453
0.000153169
0.000178313
0.000207202
0.000240315
0.000277791
0.000321147
0.000369672
0.00042553
0.000488315
0.000560832
0.000642344
0.000735431
0.00083721
0.000945087
0.00104836
0.00113188
0.00117437
6.035e-05
5.83648e-05
6.19404e-05
6.96258e-05
8.07994e-05
9.42894e-05
0.000110138
0.000128421
0.000149422
0.000174054
0.000202068
0.000234283
0.000270658
0.000312533
0.000359397
0.00041268
0.000472478
0.000540069
0.000614879
0.000696725
0.000782625
0.000867851
0.000943901
0.000998744
0.00101922
5.7411e-05
5.71583e-05
6.06584e-05
6.78686e-05
7.81793e-05
9.11913e-05
0.000106485
0.000124263
0.000144602
0.000168369
0.000195423
0.000226333
0.000261334
0.000301259
0.000345922
0.000395958
0.000451691
0.000513236
0.000579663
0.000649406
0.000719397
0.000784837
0.000838971
0.000873245
0.000878463
5.41593e-05
5.50761e-05
5.87012e-05
6.54115e-05
7.49424e-05
8.72075e-05
0.000101831
0.00011884
0.000138371
0.000161021
0.000186851
0.00021614
0.000249309
0.000286826
0.000328577
0.000374667
0.000425256
0.000479789
0.000536893
0.00059454
0.000649806
0.00069852
0.000735464
0.00075479
0.000750318
5.07043e-05
5.22172e-05
5.59712e-05
6.22506e-05
7.10601e-05
8.24636e-05
9.62379e-05
0.000112291
0.000130794
0.000152143
0.000176468
0.000203889
0.000234825
0.000269543
0.00030781
0.000349442
0.000394335
0.000441605
0.000489635
0.000536398
0.000579341
0.000615057
0.000639657
0.000649102
0.000639535
4.69227e-05
4.86692e-05
5.2437e-05
5.83265e-05
6.64314e-05
7.69034e-05
8.96541e-05
0.000104568
0.000121803
0.000141642
0.000164187
0.000189459
0.0002178
0.000249342
0.000283684
0.000320473
0.000359436
0.00039955
0.000439101
0.000476261
0.000508997
0.000534659
0.000550421
0.000553498
0.000541553
4.24804e-05
4.42433e-05
4.78599e-05
5.33089e-05
6.06597e-05
7.00829e-05
8.1591e-05
9.51125e-05
0.000110753
0.000128733
0.000149116
0.000171816
0.000197071
0.000224924
0.000254826
0.000286323
0.000319082
0.000352071
0.00038362
0.000412179
0.00043628
0.000454056
0.000463422
0.000462501
0.000449945
3.72075e-05
3.88484e-05
4.21434e-05
4.70254e-05
5.35188e-05
6.17485e-05
7.17881e-05
8.36395e-05
9.73328e-05
0.000113039
0.000130821
0.000150501
0.00017218
0.000195842
0.000220899
0.000246846
0.000273331
0.00029942
0.000323638
0.000344744
0.000361808
0.000373589
0.000378542
0.000375434
0.000363597
3.09485e-05
3.23691e-05
3.51828e-05
3.93223e-05
4.47939e-05
5.16427e-05
5.99669e-05
6.98392e-05
8.12085e-05
9.41932e-05
0.000108887
0.000125073
0.000142714
0.000161736
0.000181635
0.000201933
0.000222257
0.000241823
0.000259458
0.000274302
0.000285853
0.000293254
0.000295371
0.000291461
0.000281321
2.35753e-05
2.46892e-05
2.68727e-05
3.00717e-05
3.43019e-05
3.95367e-05
4.58662e-05
5.34065e-05
6.20488e-05
7.18666e-05
8.29673e-05
9.51527e-05
0.00010832
0.000122335
0.000136825
0.000151443
0.000165833
0.000179345
0.00019118
0.000200894
0.000208221
0.000212544
0.000213068
0.000209413
0.000201645
1.50005e-05
1.57242e-05
1.71328e-05
1.91875e-05
2.19183e-05
2.52679e-05
2.92903e-05
3.41059e-05
3.96006e-05
4.58064e-05
5.28135e-05
6.04816e-05
6.87274e-05
7.74089e-05
8.62838e-05
9.51704e-05
0.000103807
0.000111739
0.000118538
0.00012402
0.00012806
0.000130263
0.000130143
0.000127541
0.000122609
5.20362e-06
5.45603e-06
5.94959e-06
6.66691e-06
7.62533e-06
8.79584e-06
1.01912e-05
1.1869e-05
1.37786e-05
1.59233e-05
1.83428e-05
2.09848e-05
2.3819e-05
2.67837e-05
2.97888e-05
3.27831e-05
3.56746e-05
3.83055e-05
4.05328e-05
4.23078e-05
4.35974e-05
4.42632e-05
4.41378e-05
4.31819e-05
4.14756e-05
)
;

boundaryField
{
    top
    {
        type            fixedValue;
        value           uniform 0;
    }
    inlet
    {
        type            zeroGradient;
    }
    outlet
    {
        type            fixedValue;
        value           uniform 0;
    }
    plate
    {
        type            zeroGradient;
    }
    symmBound
    {
        type            zeroGradient;
    }
    frontAndBack
    {
        type            empty;
    }
}


// ************************************************************************* //
