/*--------------------------------*- C++ -*----------------------------------*\
| =========                 |                                                 |
| \\      /  F ield         | OpenFOAM: The Open Source CFD Toolbox           |
|  \\    /   O peration     | Version:  2.3.0                                 |
|   \\  /    A nd           | Web:      www.OpenFOAM.org                      |
|    \\/     M anipulation  |                                                 |
\*---------------------------------------------------------------------------*/
FoamFile
{
    version     2.0;
    format      ascii;
    class       surfaceScalarField;
    location    "0.35";
    object      phi_0;
}
// * * * * * * * * * * * * * * * * * * * * * * * * * * * * * * * * * * * * * //

dimensions      [0 3 -1 0 0 0 0];

internalField   nonuniform List<scalar> 
3859
(
2.88248e-08
2.76921e-09
-3.1594e-08
2.53604e-08
3.46435e-09
2.19187e-08
3.44174e-09
1.87309e-08
3.18779e-09
1.58299e-08
2.90097e-09
1.3294e-08
2.53589e-09
1.1217e-08
2.07698e-09
9.61276e-09
1.60427e-09
8.44303e-09
1.16973e-09
7.62205e-09
8.20982e-10
7.0521e-09
5.69946e-10
6.64903e-09
4.03067e-10
6.35033e-09
2.98706e-10
6.11327e-09
2.37056e-10
5.90986e-09
2.03417e-10
5.72407e-09
1.8579e-10
5.54837e-09
1.75695e-10
5.38018e-09
1.68186e-10
5.21942e-09
1.60768e-10
5.067e-09
1.5242e-10
4.92388e-09
1.43119e-10
4.79041e-09
1.33469e-10
4.66624e-09
1.24165e-10
4.55072e-09
1.15519e-10
4.44328e-09
1.07447e-10
4.34343e-09
9.985e-11
4.25061e-09
9.28206e-11
4.16408e-09
8.65238e-11
4.08307e-09
8.10138e-11
4.00692e-09
7.61439e-11
3.93522e-09
7.17027e-11
3.86765e-09
6.7575e-11
3.8039e-09
6.37506e-11
3.74359e-09
6.03104e-11
3.68628e-09
5.73029e-11
3.63167e-09
5.46113e-11
3.57962e-09
5.20497e-11
3.53013e-09
4.94945e-11
3.48316e-09
4.69666e-11
3.43856e-09
4.45969e-11
3.39616e-09
4.24009e-11
3.35585e-09
4.03131e-11
3.31746e-09
3.83928e-11
3.28081e-09
3.665e-11
3.24586e-09
3.49464e-11
3.21261e-09
3.32466e-11
3.181e-09
3.16094e-11
3.15099e-09
3.00148e-11
3.12254e-09
2.84459e-11
3.0956e-09
2.69415e-11
3.0701e-09
2.5504e-11
3.046e-09
2.41017e-11
3.02328e-09
2.27214e-11
3.0019e-09
2.13741e-11
2.98183e-09
2.00745e-11
2.96301e-09
1.88202e-11
2.9454e-09
1.76037e-11
2.92898e-09
1.64191e-11
2.91374e-09
1.52435e-11
2.89968e-09
1.40632e-11
2.88679e-09
1.2887e-11
2.87507e-09
1.17192e-11
2.86451e-09
1.05618e-11
2.85507e-09
9.43474e-12
2.84674e-09
8.33248e-12
2.83949e-09
7.24974e-12
2.83329e-09
6.20109e-12
2.8281e-09
5.19552e-12
2.8239e-09
4.19786e-12
2.82068e-09
3.2212e-12
2.81839e-09
2.28969e-12
2.81696e-09
1.42408e-12
2.81638e-09
5.80443e-13
2.81657e-09
-1.91304e-13
2.81746e-09
-8.83551e-13
2.8189e-09
-1.44249e-12
2.8208e-09
-1.90095e-12
2.82298e-09
-2.17455e-12
2.82531e-09
-2.33668e-12
2.8277e-09
-2.38757e-12
2.83003e-09
-2.32991e-12
2.83221e-09
-2.17947e-12
2.83417e-09
-1.96212e-12
2.83589e-09
-1.72014e-12
2.83735e-09
-1.46175e-12
2.83857e-09
-1.21944e-12
2.83957e-09
-9.95705e-13
2.84038e-09
-8.09388e-13
2.84103e-09
-6.56332e-13
2.84157e-09
-5.35427e-13
2.84202e-09
-4.46394e-13
2.84239e-09
-3.75322e-13
2.84272e-09
-3.28709e-13
2.843e-09
-2.76611e-13
2.84324e-09
-2.4774e-13
2.84343e-09
-1.88761e-13
2.8436e-09
-1.64829e-13
2.84369e-09
-9.45916e-14
2.84377e-09
-8.0178e-14
-5.96348e-14
3.62407e-08
2.46977e-09
-3.59413e-08
3.6076e-08
3.62902e-09
3.53728e-08
4.14494e-09
3.43862e-08
4.17446e-09
3.32294e-08
4.05778e-09
3.19229e-08
3.84238e-09
3.04906e-08
3.50928e-09
2.90095e-08
3.08537e-09
2.7555e-08
2.62423e-09
2.61812e-08
2.19473e-09
2.49116e-08
1.83964e-09
2.37476e-08
1.56699e-09
2.26867e-08
1.35964e-09
2.17276e-08
1.19613e-09
2.08612e-08
1.06989e-09
2.0077e-08
9.6998e-10
1.93649e-08
8.8774e-10
1.87157e-08
8.17419e-10
1.81213e-08
7.55181e-10
1.75752e-08
6.9849e-10
1.70722e-08
6.46167e-10
1.66075e-08
5.98156e-10
1.61769e-08
5.54734e-10
1.57767e-08
5.1569e-10
1.54039e-08
4.80267e-10
1.50559e-08
4.47829e-10
1.47305e-08
4.18216e-10
1.44255e-08
3.91529e-10
1.41388e-08
3.67725e-10
1.38686e-08
3.46352e-10
1.36135e-08
3.26798e-10
1.33724e-08
3.08666e-10
1.31443e-08
2.91854e-10
1.29281e-08
2.76506e-10
1.27228e-08
2.62662e-10
1.25274e-08
2.49965e-10
1.23415e-08
2.37935e-10
1.21647e-08
2.26289e-10
1.19966e-08
2.15071e-10
1.18367e-08
2.0453e-10
1.16844e-08
1.94657e-10
1.15395e-08
1.85296e-10
1.14013e-08
1.76543e-10
1.12696e-08
1.68359e-10
1.11441e-08
1.60422e-10
1.10247e-08
1.52661e-10
1.09111e-08
1.45195e-10
1.08032e-08
1.37959e-10
1.07007e-08
1.30914e-10
1.06035e-08
1.24132e-10
1.05114e-08
1.17597e-10
1.04243e-08
1.11225e-10
1.0342e-08
1.04987e-10
1.02645e-08
9.8902e-11
1.01916e-08
9.29967e-11
1.01231e-08
8.72581e-11
1.00591e-08
8.1662e-11
9.99932e-09
7.61858e-11
9.94379e-09
7.07729e-11
9.89246e-09
6.53949e-11
9.84527e-09
6.00727e-11
9.80217e-09
5.48177e-11
9.7631e-09
4.96398e-11
9.72794e-09
4.45864e-11
9.69663e-09
3.96469e-11
9.66906e-09
3.48193e-11
9.64512e-09
3.01418e-11
9.62468e-09
2.56382e-11
9.60763e-09
2.12424e-11
9.59385e-09
1.70079e-11
9.58313e-09
1.30048e-11
9.57526e-09
9.29394e-12
9.57002e-09
5.82045e-12
9.56717e-09
2.65975e-12
9.56637e-09
-8.40101e-14
9.56725e-09
-2.32326e-12
9.56946e-09
-4.11416e-12
9.57256e-09
-5.27397e-12
9.57624e-09
-6.0097e-12
9.58017e-09
-6.32272e-12
9.5841e-09
-6.26175e-12
9.58781e-09
-5.88748e-12
9.59116e-09
-5.30703e-12
9.59407e-09
-4.63234e-12
9.59653e-09
-3.91928e-12
9.59855e-09
-3.24656e-12
9.6002e-09
-2.64401e-12
9.60154e-09
-2.14356e-12
9.60263e-09
-1.75252e-12
9.60354e-09
-1.44407e-12
9.60433e-09
-1.23855e-12
9.60502e-09
-1.06648e-12
9.60567e-09
-9.76556e-13
9.60624e-09
-8.48333e-13
9.6068e-09
-8.02741e-13
9.60726e-09
-6.48406e-13
9.6077e-09
-6.07559e-13
9.60803e-09
-4.24243e-13
9.60833e-09
-3.78401e-13
-3.2077e-13
4.02812e-08
2.34441e-09
-4.01558e-08
4.07087e-08
3.20151e-09
4.09755e-08
3.87817e-09
4.10509e-08
4.09902e-09
4.10109e-08
4.09782e-09
4.08516e-08
4.00166e-09
4.05377e-08
3.82314e-09
4.00695e-08
3.5536e-09
3.94769e-08
3.21684e-09
3.88033e-08
2.86825e-09
3.80855e-08
2.55747e-09
3.73466e-08
2.3059e-09
3.65992e-08
2.10701e-09
3.58494e-08
1.94595e-09
3.51052e-08
1.81415e-09
3.43716e-08
1.70351e-09
3.36522e-08
1.60714e-09
3.29493e-08
1.52029e-09
3.22647e-08
1.4398e-09
3.15994e-08
1.36381e-09
3.09539e-08
1.2917e-09
3.03284e-08
1.22364e-09
2.97234e-08
1.15972e-09
2.91395e-08
1.0996e-09
2.85771e-08
1.04266e-09
2.80365e-08
9.88474e-10
2.75176e-08
9.37058e-10
2.70204e-08
8.88754e-10
2.65442e-08
8.43881e-10
2.60883e-08
8.02271e-10
2.56518e-08
7.63357e-10
2.52338e-08
7.266e-10
2.48339e-08
6.91798e-10
2.44512e-08
6.59213e-10
2.40848e-08
6.29024e-10
2.3734e-08
6.00768e-10
2.33982e-08
5.7375e-10
2.30769e-08
5.47608e-10
2.27695e-08
5.22479e-10
2.24753e-08
4.98709e-10
2.21937e-08
4.76228e-10
2.19242e-08
4.54823e-10
2.16661e-08
4.34633e-10
2.14189e-08
4.1552e-10
2.11824e-08
3.96956e-10
2.09562e-08
3.78851e-10
2.074e-08
3.61363e-10
2.05336e-08
3.44375e-10
2.03367e-08
3.27836e-10
2.0149e-08
3.11864e-10
1.99702e-08
2.96405e-10
1.98001e-08
2.81303e-10
1.96386e-08
2.66496e-10
1.94855e-08
2.52008e-10
1.93406e-08
2.37871e-10
1.92038e-08
2.24066e-10
1.90749e-08
2.1056e-10
1.89538e-08
1.97307e-10
1.88403e-08
1.84214e-10
1.87345e-08
1.7124e-10
1.86361e-08
1.58417e-10
1.85452e-08
1.45761e-10
1.84615e-08
1.33294e-10
1.8385e-08
1.21101e-10
1.83155e-08
1.09164e-10
1.82528e-08
9.74904e-11
1.81968e-08
8.61526e-11
1.81473e-08
7.52084e-11
1.81039e-08
6.45689e-11
1.80666e-08
5.43379e-11
1.8035e-08
4.46407e-11
1.80086e-08
3.56081e-11
1.79873e-08
2.71876e-11
1.79704e-08
1.95379e-11
1.79576e-08
1.27525e-11
1.79482e-08
7.05938e-12
1.79417e-08
2.37261e-12
1.79374e-08
-1.00024e-12
1.79349e-08
-3.46694e-12
1.79336e-08
-5.00321e-12
1.7933e-08
-5.73542e-12
1.79329e-08
-5.76605e-12
1.79329e-08
-5.3333e-12
1.79329e-08
-4.61795e-12
1.79328e-08
-3.77768e-12
1.79325e-08
-2.93082e-12
1.7932e-08
-2.18837e-12
1.79314e-08
-1.57125e-12
1.79308e-08
-1.1496e-12
1.79302e-08
-8.30761e-13
1.79297e-08
-7.06537e-13
1.79292e-08
-6.01651e-13
1.79289e-08
-6.54604e-13
1.79287e-08
-6.06952e-13
1.79286e-08
-7.04543e-13
1.79285e-08
-6.02791e-13
1.79286e-08
-6.53673e-13
1.79287e-08
-5.10297e-13
1.79287e-08
-4.71205e-13
-4.87432e-13
4.47502e-08
2.28994e-09
-4.46957e-08
4.50675e-08
2.88416e-09
4.547e-08
3.47569e-09
4.57831e-08
3.78598e-09
4.60239e-08
3.85701e-09
4.62193e-08
3.80626e-09
4.63477e-08
3.6947e-09
4.63825e-08
3.51878e-09
4.6314e-08
3.28537e-09
4.61563e-08
3.02594e-09
4.59351e-08
2.77866e-09
4.5671e-08
2.57e-09
4.53751e-08
2.40298e-09
4.50513e-08
2.26975e-09
4.47046e-08
2.16077e-09
4.43395e-08
2.06861e-09
4.39591e-08
1.98761e-09
4.35657e-08
1.9137e-09
4.31614e-08
1.84403e-09
4.27482e-08
1.77702e-09
4.23275e-08
1.71241e-09
4.19005e-08
1.65061e-09
4.14683e-08
1.59192e-09
4.10318e-08
1.53611e-09
4.05919e-08
1.4826e-09
4.01496e-08
1.43079e-09
3.97065e-08
1.38015e-09
3.92648e-08
1.33048e-09
3.88265e-08
1.28209e-09
3.83934e-08
1.23537e-09
3.79662e-08
1.19064e-09
3.75448e-08
1.14799e-09
3.71292e-08
1.10739e-09
3.67194e-08
1.06897e-09
3.63159e-08
1.0326e-09
3.59193e-08
9.9737e-10
3.55307e-08
9.62324e-10
3.51511e-08
9.27162e-10
3.47811e-08
8.92486e-10
3.44207e-08
8.59147e-10
3.40697e-08
8.27215e-10
3.3728e-08
7.96526e-10
3.33953e-08
7.67302e-10
3.30717e-08
7.39169e-10
3.27574e-08
7.11273e-10
3.24527e-08
6.83521e-10
3.21579e-08
6.56173e-10
3.18731e-08
6.29152e-10
3.15984e-08
6.02552e-10
3.13336e-08
5.76657e-10
3.10786e-08
5.5142e-10
3.08333e-08
5.26601e-10
3.05977e-08
5.02088e-10
3.03718e-08
4.77906e-10
3.01556e-08
4.54067e-10
2.99491e-08
4.30543e-10
2.97524e-08
4.07317e-10
2.95653e-08
3.84349e-10
2.9388e-08
3.61518e-10
2.92204e-08
3.38821e-10
2.90625e-08
3.16333e-10
2.89142e-08
2.94078e-10
2.87754e-08
2.72095e-10
2.8646e-08
2.50523e-10
2.85258e-08
2.29329e-10
2.84148e-08
2.08518e-10
2.83127e-08
1.88191e-10
2.82195e-08
1.68455e-10
2.81349e-08
1.49213e-10
2.80586e-08
1.30637e-10
2.79903e-08
1.12891e-10
2.79297e-08
9.61984e-11
2.78764e-08
8.05217e-11
2.78298e-08
6.61259e-11
2.77894e-08
5.31004e-11
2.77547e-08
4.18042e-11
2.77249e-08
3.21742e-11
2.76994e-08
2.44542e-11
2.76777e-08
1.82527e-11
2.76591e-08
1.36244e-11
2.7643e-08
1.0325e-11
2.7629e-08
8.27988e-12
2.76166e-08
7.07267e-12
2.76054e-08
6.52342e-12
2.75954e-08
6.31126e-12
2.75861e-08
6.32188e-12
2.75776e-08
6.29594e-12
2.75698e-08
6.24358e-12
2.75627e-08
5.99074e-12
2.75562e-08
5.67595e-12
2.75503e-08
5.15691e-12
2.75451e-08
4.62158e-12
2.75404e-08
3.97792e-12
2.75364e-08
3.39289e-12
2.75329e-08
2.8166e-12
2.753e-08
2.30198e-12
2.75274e-08
1.94146e-12
2.75254e-08
1.46817e-12
2.75236e-08
1.38277e-12
7.88435e-13
4.96997e-08
2.22773e-09
-4.96374e-08
4.99166e-08
2.66718e-09
5.02726e-08
3.1197e-09
5.0615e-08
3.44355e-09
5.08979e-08
3.5742e-09
5.11374e-08
3.56673e-09
5.1346e-08
3.48612e-09
5.15078e-08
3.35697e-09
5.1606e-08
3.18712e-09
5.16395e-08
2.99244e-09
5.16216e-08
2.7966e-09
5.15704e-08
2.62123e-09
5.14965e-08
2.47686e-09
5.14039e-08
2.36233e-09
5.12952e-08
2.26952e-09
5.11722e-08
2.19159e-09
5.10364e-08
2.12342e-09
5.08887e-08
2.06136e-09
5.07299e-08
2.00285e-09
5.05605e-08
1.94642e-09
5.0381e-08
1.89186e-09
5.0192e-08
1.83964e-09
4.99937e-08
1.79028e-09
4.97859e-08
1.74387e-09
4.95683e-08
1.70018e-09
4.93404e-08
1.65868e-09
4.91023e-08
1.6183e-09
4.88548e-08
1.57795e-09
4.85997e-08
1.5372e-09
4.83389e-08
1.49614e-09
4.80742e-08
1.45533e-09
4.78067e-08
1.41553e-09
4.75365e-08
1.37754e-09
4.72632e-08
1.34233e-09
4.69857e-08
1.3101e-09
4.67035e-08
1.27955e-09
4.64171e-08
1.24876e-09
4.61279e-08
1.21629e-09
4.58383e-08
1.18212e-09
4.55501e-08
1.14735e-09
4.52645e-08
1.11284e-09
4.49815e-08
1.07952e-09
4.47002e-08
1.04861e-09
4.44196e-08
1.01971e-09
4.41397e-08
9.91164e-10
4.38612e-08
9.62057e-10
4.35853e-08
9.32073e-10
4.33135e-08
9.00992e-10
4.30466e-08
8.69369e-10
4.27852e-08
8.38093e-10
4.25292e-08
8.07413e-10
4.22787e-08
7.7711e-10
4.20338e-08
7.47007e-10
4.17946e-08
7.1711e-10
4.15613e-08
6.87401e-10
4.13341e-08
6.57732e-10
4.11134e-08
6.27972e-10
4.08998e-08
5.97993e-10
4.06937e-08
5.67615e-10
4.04956e-08
5.36916e-10
4.03058e-08
5.06149e-10
4.01244e-08
4.75461e-10
3.99515e-08
4.44985e-10
3.97871e-08
4.14951e-10
3.96311e-08
3.85333e-10
3.94835e-08
3.56118e-10
3.93443e-08
3.27384e-10
3.92135e-08
2.99238e-10
3.90911e-08
2.71558e-10
3.89772e-08
2.44609e-10
3.88715e-08
2.18552e-10
3.8774e-08
1.9371e-10
3.86844e-08
1.70089e-10
3.86024e-08
1.48167e-10
3.85275e-08
1.27959e-10
3.84594e-08
1.0995e-10
3.83975e-08
9.40228e-11
3.83414e-08
8.05774e-11
3.82906e-08
6.9086e-11
3.82445e-08
5.97388e-11
3.82027e-08
5.21069e-11
3.81647e-08
4.62688e-11
3.81301e-08
4.16088e-11
3.80986e-08
3.80422e-11
3.80698e-08
3.51129e-11
3.80435e-08
3.26973e-11
3.80192e-08
3.04995e-11
3.79971e-08
2.83828e-11
3.79768e-08
2.63451e-11
3.79583e-08
2.41656e-11
3.79413e-08
2.21686e-11
3.7926e-08
1.98664e-11
3.79119e-08
1.80534e-11
3.78996e-08
1.57522e-11
3.7888e-08
1.43441e-11
3.78782e-08
1.21305e-11
3.78689e-08
1.12644e-11
3.78613e-08
9.08791e-12
3.78539e-08
8.7699e-12
6.56448e-12
5.5142e-08
2.15288e-09
-5.50671e-08
5.53116e-08
2.49757e-09
5.55972e-08
2.83414e-09
5.5914e-08
3.12671e-09
5.61989e-08
3.2893e-09
5.64382e-08
3.32749e-09
5.66438e-08
3.28049e-09
5.68165e-08
3.18423e-09
5.69469e-08
3.05673e-09
5.70301e-08
2.90924e-09
5.70716e-08
2.75513e-09
5.70838e-08
2.60903e-09
5.70783e-08
2.48229e-09
5.70617e-08
2.37899e-09
5.70364e-08
2.29479e-09
5.70039e-08
2.2241e-09
5.69652e-08
2.16215e-09
5.6921e-08
2.10555e-09
5.68717e-08
2.05213e-09
5.68174e-08
2.00073e-09
5.67582e-08
1.95106e-09
5.66944e-08
1.90347e-09
5.66261e-08
1.85856e-09
5.65532e-08
1.81676e-09
5.6475e-08
1.77832e-09
5.63906e-08
1.74309e-09
5.62991e-08
1.70988e-09
5.62e-08
1.67704e-09
5.60937e-08
1.64345e-09
5.59813e-08
1.60857e-09
5.58641e-08
1.57258e-09
5.57433e-08
1.53624e-09
5.562e-08
1.50091e-09
5.54937e-08
1.46858e-09
5.53634e-08
1.44043e-09
5.52273e-08
1.41561e-09
5.50841e-08
1.39194e-09
5.49335e-08
1.3669e-09
5.47767e-08
1.33896e-09
5.4616e-08
1.30809e-09
5.44538e-08
1.27499e-09
5.42918e-08
1.24155e-09
5.41297e-08
1.2107e-09
5.3966e-08
1.18344e-09
5.37986e-08
1.1585e-09
5.36264e-08
1.13424e-09
5.34498e-08
1.10869e-09
5.32706e-08
1.08018e-09
5.30909e-08
1.0491e-09
5.29118e-08
1.01721e-09
5.27336e-08
9.85618e-10
5.25563e-08
9.544e-10
5.238e-08
9.23265e-10
5.2205e-08
8.92159e-10
5.20311e-08
8.61243e-10
5.18583e-08
8.30532e-10
5.16865e-08
7.99823e-10
5.15158e-08
7.68658e-10
5.1347e-08
7.36431e-10
5.11809e-08
7.02974e-10
5.10185e-08
6.68567e-10
5.08604e-08
6.33538e-10
5.07072e-08
5.98262e-10
5.05589e-08
5.63241e-10
5.04156e-08
5.28611e-10
5.02772e-08
4.94464e-10
5.01438e-08
4.60864e-10
5.00151e-08
4.27875e-10
4.98915e-08
3.95226e-10
4.97729e-08
3.63194e-10
4.96596e-08
3.31799e-10
4.95519e-08
3.01453e-10
4.94498e-08
2.72128e-10
4.93534e-08
2.4459e-10
4.92627e-08
2.18721e-10
4.91773e-08
1.95284e-10
4.90973e-08
1.74027e-10
4.90223e-08
1.5563e-10
4.8952e-08
1.39306e-10
4.88863e-08
1.25474e-10
4.88249e-08
1.13488e-10
4.87676e-08
1.03565e-10
4.87142e-08
9.50316e-11
4.86645e-08
8.77571e-11
4.86181e-08
8.1519e-11
4.8575e-08
7.57733e-11
4.85347e-08
7.08053e-11
4.84975e-08
6.55908e-11
4.84626e-08
6.12255e-11
4.84307e-08
5.60556e-11
4.84008e-08
5.21495e-11
4.83737e-08
4.68951e-11
4.83481e-08
4.36557e-11
4.83254e-08
3.84647e-11
4.83036e-08
3.61944e-11
4.82845e-08
3.11898e-11
4.82658e-08
2.99351e-11
4.82499e-08
2.5043e-11
4.82341e-08
2.45888e-11
1.9831e-11
6.11316e-08
2.07353e-09
-6.10523e-08
6.12784e-08
2.35074e-09
6.15015e-08
2.6111e-09
6.17768e-08
2.85139e-09
6.20453e-08
3.02078e-09
6.2281e-08
3.09176e-09
6.24796e-08
3.08195e-09
6.2645e-08
3.01878e-09
6.27769e-08
2.92486e-09
6.28726e-08
2.81353e-09
6.29336e-08
2.69414e-09
6.29666e-08
2.57603e-09
6.29811e-08
2.4678e-09
6.29852e-08
2.37489e-09
6.29827e-08
2.29728e-09
6.29754e-08
2.23139e-09
6.29644e-08
2.17317e-09
6.29505e-08
2.11946e-09
6.29341e-08
2.06851e-09
6.29154e-08
2.01945e-09
6.28945e-08
1.97192e-09
6.28719e-08
1.92609e-09
6.28479e-08
1.88256e-09
6.28227e-08
1.84197e-09
6.27961e-08
1.80491e-09
6.27677e-08
1.77147e-09
6.27369e-08
1.74063e-09
6.27033e-08
1.71067e-09
6.26665e-08
1.68024e-09
6.26265e-08
1.64855e-09
6.25837e-08
1.61538e-09
6.2539e-08
1.58096e-09
6.24934e-08
1.54656e-09
6.24473e-08
1.51468e-09
6.24004e-08
1.48731e-09
6.23517e-08
1.46435e-09
6.22995e-08
1.44413e-09
6.22423e-08
1.42404e-09
6.21798e-08
1.4015e-09
6.21129e-08
1.37497e-09
6.20437e-08
1.34418e-09
6.19742e-08
1.31113e-09
6.19052e-08
1.27964e-09
6.18366e-08
1.2521e-09
6.17664e-08
1.22868e-09
6.16923e-08
1.20837e-09
6.16128e-08
1.18816e-09
6.15285e-08
1.16445e-09
6.14413e-08
1.13633e-09
6.13528e-08
1.10571e-09
6.12637e-08
1.07472e-09
6.11739e-08
1.04423e-09
6.10832e-08
1.01389e-09
6.09921e-08
9.83325e-10
6.09006e-08
9.5274e-10
6.08085e-08
9.22603e-10
6.07152e-08
8.93091e-10
6.06202e-08
8.63695e-10
6.05233e-08
8.33345e-10
6.04249e-08
8.01312e-10
6.0326e-08
7.67511e-10
6.02274e-08
7.32181e-10
6.01298e-08
6.95806e-10
6.00339e-08
6.59139e-10
5.994e-08
6.22561e-10
5.9848e-08
5.86443e-10
5.97579e-08
5.50987e-10
5.96694e-08
5.16374e-10
5.95824e-08
4.82197e-10
5.94969e-08
4.48723e-10
5.9413e-08
4.15701e-10
5.93308e-08
3.83572e-10
5.92509e-08
3.52051e-10
5.91734e-08
3.22149e-10
5.90985e-08
2.93563e-10
5.90264e-08
2.67422e-10
5.89571e-08
2.43301e-10
5.88906e-08
2.22171e-10
5.88268e-08
2.03079e-10
5.87657e-08
1.86547e-10
5.87073e-08
1.71925e-10
5.86517e-08
1.59184e-10
5.85986e-08
1.48073e-10
5.85485e-08
1.37843e-10
5.85007e-08
1.29312e-10
5.84558e-08
1.20707e-10
5.84127e-08
1.13882e-10
5.83725e-08
1.05843e-10
5.83338e-08
9.99283e-11
5.8298e-08
9.17849e-11
5.82636e-08
8.65688e-11
5.82324e-08
7.81168e-11
5.82022e-08
7.38813e-11
5.81752e-08
6.54331e-11
5.81487e-08
6.26774e-11
5.81252e-08
5.47264e-11
5.81016e-08
5.3487e-11
5.80806e-08
4.60611e-11
5.80594e-08
4.57819e-11
3.8799e-11
6.77317e-08
1.99535e-09
-6.76535e-08
6.78606e-08
2.22179e-09
6.80414e-08
2.43038e-09
6.82698e-08
2.62294e-09
6.85107e-08
2.77986e-09
6.8735e-08
2.86748e-09
6.89276e-08
2.88933e-09
6.90867e-08
2.85971e-09
6.92148e-08
2.79677e-09
6.93133e-08
2.71498e-09
6.93834e-08
2.62403e-09
6.94284e-08
2.53108e-09
6.94541e-08
2.44205e-09
6.94677e-08
2.36136e-09
6.9474e-08
2.291e-09
6.94754e-08
2.22993e-09
6.94733e-08
2.17533e-09
6.94682e-08
2.12449e-09
6.94609e-08
2.07584e-09
6.94515e-08
2.02881e-09
6.94404e-08
1.98308e-09
6.94278e-08
1.93864e-09
6.94143e-08
1.89605e-09
6.94003e-08
1.85605e-09
6.93859e-08
1.81924e-09
6.93717e-08
1.78576e-09
6.93575e-08
1.75478e-09
6.93432e-08
1.72493e-09
6.93284e-08
1.69503e-09
6.93126e-08
1.66437e-09
6.92955e-08
1.63251e-09
6.92772e-08
1.59922e-09
6.92585e-08
1.56533e-09
6.92398e-08
1.5333e-09
6.92218e-08
1.50532e-09
6.92045e-08
1.48166e-09
6.91874e-08
1.46123e-09
6.91694e-08
1.44202e-09
6.91494e-08
1.42155e-09
6.91269e-08
1.39744e-09
6.91025e-08
1.36855e-09
6.90772e-08
1.33644e-09
6.90522e-08
1.3047e-09
6.90283e-08
1.27598e-09
6.90053e-08
1.25162e-09
6.89819e-08
1.23184e-09
6.89561e-08
1.21389e-09
6.89273e-08
1.19326e-09
6.8896e-08
1.16772e-09
6.88632e-08
1.1385e-09
6.88298e-08
1.10813e-09
6.87958e-08
1.07821e-09
6.87611e-08
1.04859e-09
6.87258e-08
1.01856e-09
6.86905e-08
9.88119e-10
6.8655e-08
9.58054e-10
6.8619e-08
9.29071e-10
6.85818e-08
9.00954e-10
6.85426e-08
8.72557e-10
6.85011e-08
8.4276e-10
6.84576e-08
8.11011e-10
6.84125e-08
7.77254e-10
6.83665e-08
7.41854e-10
6.83201e-08
7.05566e-10
6.82738e-08
6.68857e-10
6.82279e-08
6.32332e-10
6.81825e-08
5.96363e-10
6.81375e-08
5.61371e-10
6.80927e-08
5.26971e-10
6.80479e-08
4.93543e-10
6.8003e-08
4.60614e-10
6.79579e-08
4.2866e-10
6.79129e-08
3.97088e-10
6.7868e-08
3.67009e-10
6.78237e-08
3.3791e-10
6.77799e-08
3.11145e-10
6.7737e-08
2.86238e-10
6.76949e-08
2.64251e-10
6.76537e-08
2.44355e-10
6.76134e-08
2.26822e-10
6.75739e-08
2.11399e-10
6.75358e-08
1.9729e-10
6.74987e-08
1.85168e-10
6.74634e-08
1.73097e-10
6.74292e-08
1.63542e-10
6.73969e-08
1.53026e-10
6.73652e-08
1.45558e-10
6.73354e-08
1.35694e-10
6.73059e-08
1.29421e-10
6.72784e-08
1.19234e-10
6.72513e-08
1.13703e-10
6.72266e-08
1.02795e-10
6.72023e-08
9.81984e-11
6.71806e-08
8.71098e-11
6.71592e-08
8.41337e-11
6.71398e-08
7.40694e-11
6.71203e-08
7.30006e-11
6.7102e-08
6.43987e-11
6.70833e-08
6.44687e-11
5.69113e-11
6.79301e-08
1.93022e-09
-6.78649e-08
6.80315e-08
2.12041e-09
6.81689e-08
2.29297e-09
6.83394e-08
2.45239e-09
6.85293e-08
2.58996e-09
6.87156e-08
2.68126e-09
6.88828e-08
2.72211e-09
6.9024e-08
2.71848e-09
6.91389e-08
2.68187e-09
6.92293e-08
2.62455e-09
6.92972e-08
2.55613e-09
6.9345e-08
2.48329e-09
6.93762e-08
2.41092e-09
6.9395e-08
2.3425e-09
6.94059e-08
2.28013e-09
6.94117e-08
2.22414e-09
6.94138e-08
2.17317e-09
6.94131e-08
2.12517e-09
6.94101e-08
2.07886e-09
6.9405e-08
2.03394e-09
6.93979e-08
1.9902e-09
6.93891e-08
1.94741e-09
6.93792e-08
1.906e-09
6.93685e-08
1.86674e-09
6.93575e-08
1.83022e-09
6.93468e-08
1.79643e-09
6.93369e-08
1.76473e-09
6.93277e-08
1.73415e-09
6.93189e-08
1.70382e-09
6.93101e-08
1.67319e-09
6.93007e-08
1.64186e-09
6.92906e-08
1.60938e-09
6.92796e-08
1.5763e-09
6.92682e-08
1.54464e-09
6.92573e-08
1.51623e-09
6.92476e-08
1.49138e-09
6.92395e-08
1.46931e-09
6.92328e-08
1.44877e-09
6.92264e-08
1.42793e-09
6.92195e-08
1.40438e-09
6.92114e-08
1.37659e-09
6.92021e-08
1.3458e-09
6.91919e-08
1.31483e-09
6.91822e-08
1.28574e-09
6.91736e-08
1.26016e-09
6.91664e-08
1.23908e-09
6.91598e-08
1.22051e-09
6.91527e-08
1.20036e-09
6.91444e-08
1.17601e-09
6.9135e-08
1.14788e-09
6.9125e-08
1.11812e-09
6.91147e-08
1.08851e-09
6.91041e-08
1.0592e-09
6.90933e-08
1.02939e-09
6.90825e-08
9.98933e-10
6.90719e-08
9.68608e-10
6.90616e-08
9.39379e-10
6.90512e-08
9.11317e-10
6.90403e-08
8.83525e-10
6.90281e-08
8.54876e-10
6.90146e-08
8.24598e-10
6.89994e-08
7.92389e-10
6.89828e-08
7.5843e-10
6.89651e-08
7.23286e-10
6.89467e-08
6.87315e-10
6.89278e-08
6.51163e-10
6.89089e-08
6.15257e-10
6.88901e-08
5.80188e-10
6.88714e-08
5.45689e-10
6.88527e-08
5.12297e-10
6.88338e-08
4.79497e-10
6.88146e-08
4.47853e-10
6.8795e-08
4.16631e-10
6.87752e-08
3.86892e-10
6.87551e-08
3.58013e-10
6.87348e-08
3.31363e-10
6.87145e-08
3.06576e-10
6.86942e-08
2.84567e-10
6.86737e-08
2.64833e-10
6.86533e-08
2.47186e-10
6.86328e-08
2.31907e-10
6.86128e-08
2.17308e-10
6.8593e-08
2.04999e-10
6.85742e-08
1.91889e-10
6.85558e-08
1.81924e-10
6.85386e-08
1.70224e-10
6.85215e-08
1.6264e-10
6.85054e-08
1.51793e-10
6.84891e-08
1.4575e-10
6.84738e-08
1.34493e-10
6.84584e-08
1.29165e-10
6.84444e-08
1.16791e-10
6.84305e-08
1.12096e-10
6.84183e-08
9.93333e-11
6.84063e-08
9.60719e-11
6.83955e-08
8.48975e-11
6.83847e-08
8.3778e-11
6.83739e-08
7.5243e-11
6.83628e-08
7.55404e-11
6.88693e-11
7.51841e-08
1.86795e-09
-7.51218e-08
7.52746e-08
2.02985e-09
7.53932e-08
2.17446e-09
7.55371e-08
2.30847e-09
7.57002e-08
2.42679e-09
7.58656e-08
2.51592e-09
7.60202e-08
2.56748e-09
7.61554e-08
2.58333e-09
7.62678e-08
2.56947e-09
7.63578e-08
2.53447e-09
7.64276e-08
2.48635e-09
7.64795e-08
2.43135e-09
7.65164e-08
2.3741e-09
7.6541e-08
2.31782e-09
7.65569e-08
2.26428e-09
7.65668e-08
2.2142e-09
7.65726e-08
2.16736e-09
7.65752e-08
2.12262e-09
7.65749e-08
2.07912e-09
7.65721e-08
2.03679e-09
7.65669e-08
1.99538e-09
7.65598e-08
1.95451e-09
7.65513e-08
1.91445e-09
7.65419e-08
1.87614e-09
7.6532e-08
1.84018e-09
7.65221e-08
1.80631e-09
7.65129e-08
1.77392e-09
7.65046e-08
1.74248e-09
7.64969e-08
1.71149e-09
7.64895e-08
1.68065e-09
7.64817e-08
1.64959e-09
7.64733e-08
1.6178e-09
7.64639e-08
1.58568e-09
7.64538e-08
1.55472e-09
7.64439e-08
1.52616e-09
7.64351e-08
1.50021e-09
7.6428e-08
1.47634e-09
7.6423e-08
1.45385e-09
7.64193e-08
1.4316e-09
7.64161e-08
1.40757e-09
7.64123e-08
1.38038e-09
7.64071e-08
1.35102e-09
7.64005e-08
1.32139e-09
7.63936e-08
1.29268e-09
7.63874e-08
1.26638e-09
7.63828e-08
1.24364e-09
7.63802e-08
1.22318e-09
7.63785e-08
1.20197e-09
7.63767e-08
1.17783e-09
7.63741e-08
1.15054e-09
7.63707e-08
1.12151e-09
7.63669e-08
1.09224e-09
7.63631e-08
1.06306e-09
7.63591e-08
1.03334e-09
7.63552e-08
1.0029e-09
7.63514e-08
9.7238e-10
7.63481e-08
9.42701e-10
7.63453e-08
9.14071e-10
7.63429e-08
8.85962e-10
7.63403e-08
8.575e-10
7.63369e-08
8.27945e-10
7.63324e-08
7.96869e-10
7.63266e-08
7.64305e-10
7.63193e-08
7.3054e-10
7.63109e-08
6.95738e-10
7.63016e-08
6.60418e-10
7.62919e-08
6.24955e-10
7.62821e-08
5.89986e-10
7.62724e-08
5.55394e-10
7.62629e-08
5.21836e-10
7.62535e-08
4.88905e-10
7.62441e-08
4.57254e-10
7.62345e-08
4.26173e-10
7.62248e-08
3.966e-10
7.62149e-08
3.67949e-10
7.62048e-08
3.41477e-10
7.61944e-08
3.16997e-10
7.61838e-08
2.95166e-10
7.61727e-08
2.75861e-10
7.61615e-08
2.584e-10
7.61499e-08
2.43528e-10
7.61384e-08
2.28762e-10
7.6127e-08
2.16475e-10
7.61162e-08
2.02655e-10
7.61057e-08
1.92401e-10
7.60961e-08
1.798e-10
7.60866e-08
1.72171e-10
7.60777e-08
1.60679e-10
7.60685e-08
1.55012e-10
7.60598e-08
1.43147e-10
7.60508e-08
1.38162e-10
7.60428e-08
1.2482e-10
7.60348e-08
1.20027e-10
7.60281e-08
1.06068e-10
7.60218e-08
1.02363e-10
7.60162e-08
9.05572e-11
7.60108e-08
8.91443e-11
7.60048e-08
8.12792e-11
7.59987e-08
8.16065e-11
7.66608e-11
8.31918e-08
1.80988e-09
-8.31337e-08
8.3272e-08
1.94961e-09
8.33739e-08
2.07261e-09
8.34953e-08
2.1871e-09
8.36328e-08
2.28922e-09
8.37754e-08
2.37332e-09
8.39131e-08
2.42979e-09
8.40378e-08
2.4587e-09
8.41445e-08
2.46274e-09
8.42321e-08
2.44688e-09
8.43016e-08
2.41681e-09
8.43553e-08
2.3777e-09
8.43954e-08
2.33395e-09
8.44244e-08
2.28887e-09
8.44445e-08
2.24418e-09
8.44581e-08
2.20059e-09
8.4467e-08
2.15841e-09
8.44723e-08
2.11736e-09
8.44744e-08
2.07706e-09
8.44736e-08
2.03752e-09
8.44705e-08
1.99849e-09
8.44654e-08
1.95961e-09
8.44587e-08
1.92117e-09
8.44508e-08
1.88408e-09
8.44421e-08
1.84889e-09
8.44332e-08
1.81515e-09
8.44249e-08
1.78227e-09
8.44172e-08
1.75014e-09
8.441e-08
1.71867e-09
8.4403e-08
1.68768e-09
8.43958e-08
1.65677e-09
8.43882e-08
1.62543e-09
8.43798e-08
1.59409e-09
8.43707e-08
1.56383e-09
8.43615e-08
1.53532e-09
8.43532e-08
1.50854e-09
8.43464e-08
1.48315e-09
8.43414e-08
1.45886e-09
8.43379e-08
1.43506e-09
8.43354e-08
1.41012e-09
8.43326e-08
1.38312e-09
8.43287e-08
1.35494e-09
8.43235e-08
1.32656e-09
8.43177e-08
1.29848e-09
8.43121e-08
1.27198e-09
8.43078e-08
1.24794e-09
8.43055e-08
1.22545e-09
8.43048e-08
1.20266e-09
8.43045e-08
1.17815e-09
8.43036e-08
1.15141e-09
8.43021e-08
1.1231e-09
8.43001e-08
1.09423e-09
8.4298e-08
1.06514e-09
8.42958e-08
1.03547e-09
8.42936e-08
1.00512e-09
8.42914e-08
9.74566e-10
8.42896e-08
9.44529e-10
8.42885e-08
9.15207e-10
8.4288e-08
8.86422e-10
8.42879e-08
8.57614e-10
8.42876e-08
8.28229e-10
8.42867e-08
7.97833e-10
8.42846e-08
7.66388e-10
8.42812e-08
7.33897e-10
8.42766e-08
7.00373e-10
8.42709e-08
6.66125e-10
8.42644e-08
6.31407e-10
8.42576e-08
5.96764e-10
8.42508e-08
5.62251e-10
8.42441e-08
5.28564e-10
8.42375e-08
4.95462e-10
8.42311e-08
4.63643e-10
8.42248e-08
4.32521e-10
8.42185e-08
4.02895e-10
8.42121e-08
3.74311e-10
8.42057e-08
3.47891e-10
8.41991e-08
3.23619e-10
8.41923e-08
3.01907e-10
8.41852e-08
2.82953e-10
8.41779e-08
2.65699e-10
8.41703e-08
2.51172e-10
8.41627e-08
2.36318e-10
8.41552e-08
2.24012e-10
8.41482e-08
2.09626e-10
8.41416e-08
1.99074e-10
8.41356e-08
1.85721e-10
8.41298e-08
1.78031e-10
8.41244e-08
1.66046e-10
8.41187e-08
1.60764e-10
8.41133e-08
1.4851e-10
8.41076e-08
1.43881e-10
8.41026e-08
1.29817e-10
8.40977e-08
1.24893e-10
8.40938e-08
1.09973e-10
8.40904e-08
1.05767e-10
8.40874e-08
9.3532e-11
8.40848e-08
9.17257e-11
8.40814e-08
8.47118e-11
8.40781e-08
8.49499e-11
8.20088e-11
9.20342e-08
1.75802e-09
-9.19824e-08
9.21033e-08
1.88051e-09
9.21891e-08
1.98685e-09
9.22899e-08
2.0863e-09
9.24031e-08
2.17603e-09
9.25227e-08
2.2537e-09
9.26408e-08
2.31173e-09
9.27509e-08
2.3486e-09
9.28482e-08
2.36539e-09
9.29305e-08
2.36456e-09
9.29977e-08
2.34968e-09
9.30508e-08
2.32462e-09
9.30917e-08
2.29302e-09
9.31225e-08
2.25806e-09
9.31451e-08
2.22161e-09
9.31612e-08
2.18446e-09
9.31725e-08
2.14715e-09
9.31799e-08
2.10994e-09
9.3184e-08
2.07292e-09
9.31854e-08
2.03614e-09
9.31844e-08
1.99948e-09
9.31813e-08
1.96277e-09
9.31762e-08
1.9262e-09
9.31699e-08
1.89045e-09
9.31628e-08
1.85597e-09
9.31555e-08
1.82238e-09
9.31485e-08
1.78933e-09
9.31417e-08
1.75694e-09
9.3135e-08
1.72529e-09
9.31285e-08
1.69423e-09
9.31219e-08
1.66333e-09
9.31151e-08
1.63226e-09
9.31076e-08
1.60155e-09
9.30996e-08
1.57184e-09
9.30916e-08
1.54333e-09
9.30843e-08
1.5159e-09
9.30781e-08
1.48935e-09
9.30732e-08
1.46374e-09
9.30696e-08
1.43867e-09
9.30669e-08
1.4128e-09
9.30643e-08
1.38575e-09
9.30608e-08
1.35837e-09
9.30566e-08
1.33082e-09
9.30518e-08
1.30322e-09
9.30471e-08
1.27669e-09
9.30433e-08
1.25176e-09
9.30411e-08
1.22766e-09
9.30403e-08
1.20347e-09
9.304e-08
1.17844e-09
9.30394e-08
1.15196e-09
9.30383e-08
1.1242e-09
9.30369e-08
1.09571e-09
9.30352e-08
1.06676e-09
9.30335e-08
1.03717e-09
9.30317e-08
1.00696e-09
9.30298e-08
9.76445e-10
9.30282e-08
9.46167e-10
9.30271e-08
9.16247e-10
9.30268e-08
8.86785e-10
9.30269e-08
8.57462e-10
9.30272e-08
8.27952e-10
9.30272e-08
7.97889e-10
9.30263e-08
7.67236e-10
9.30245e-08
7.35736e-10
9.30215e-08
7.03339e-10
9.30175e-08
6.70147e-10
9.30126e-08
6.36307e-10
9.30071e-08
6.02198e-10
9.30014e-08
5.68034e-10
9.29955e-08
5.34438e-10
9.29896e-08
5.01345e-10
9.29838e-08
4.6944e-10
9.2978e-08
4.38311e-10
9.29723e-08
4.08608e-10
9.29666e-08
3.80013e-10
9.2961e-08
3.53537e-10
9.29553e-08
3.29289e-10
9.29496e-08
3.07552e-10
9.29439e-08
2.8874e-10
9.2938e-08
2.71592e-10
9.29319e-08
2.57226e-10
9.2926e-08
2.42239e-10
9.29202e-08
2.29802e-10
9.29149e-08
2.14895e-10
9.291e-08
2.0403e-10
9.29057e-08
1.9002e-10
9.29014e-08
1.82287e-10
9.28976e-08
1.69899e-10
9.28933e-08
1.65013e-10
9.28894e-08
1.52468e-10
9.2885e-08
1.48206e-10
9.28813e-08
1.33532e-10
9.28777e-08
1.28494e-10
9.2875e-08
1.1273e-10
9.28727e-08
1.08075e-10
9.28707e-08
9.54952e-11
9.28691e-08
9.33243e-11
9.28666e-08
8.71641e-11
9.28643e-08
8.72725e-11
8.63285e-11
1.018e-07
1.71407e-09
-1.01756e-07
1.01857e-07
1.82353e-09
1.01927e-07
1.91735e-09
1.02007e-07
2.0055e-09
1.02097e-07
2.08596e-09
1.02194e-07
2.15736e-09
1.0229e-07
2.21509e-09
1.02383e-07
2.25626e-09
1.02467e-07
2.28133e-09
1.0254e-07
2.29134e-09
1.02601e-07
2.28841e-09
1.02651e-07
2.27513e-09
1.0269e-07
2.25415e-09
1.0272e-07
2.22804e-09
1.02743e-07
2.19871e-09
1.0276e-07
2.16729e-09
1.02772e-07
2.13456e-09
1.02781e-07
2.10115e-09
1.02787e-07
2.0674e-09
1.02789e-07
2.03331e-09
1.0279e-07