/*--------------------------------*- C++ -*----------------------------------*\
| =========                 |                                                 |
| \\      /  F ield         | OpenFOAM: The Open Source CFD Toolbox           |
|  \\    /   O peration     | Version:  2.3.0                                 |
|   \\  /    A nd           | Web:      www.OpenFOAM.org                      |
|    \\/     M anipulation  |                                                 |
\*---------------------------------------------------------------------------*/
FoamFile
{
    version     2.0;
    format      ascii;
    class       volVectorField;
    location    "0.8";
    object      U_0;
}
// * * * * * * * * * * * * * * * * * * * * * * * * * * * * * * * * * * * * * //

dimensions      [0 1 -1 0 0 0 0];

internalField   nonuniform List<vector> 
2889
(
(0.17899 0.00424623 0)
(0.158127 0.00589663 0)
(0.13935 0.0061109 0)
(0.121217 0.00553825 0)
(0.103752 0.00474775 0)
(0.0876831 0.00387838 0)
(0.0740099 0.00293951 0)
(0.0631781 0.0019424 0)
(0.055063 0.00105026 0)
(0.0491772 0.000422925 0)
(0.0449651 7.52898e-05 0)
(0.0419525 -7.41373e-05 0)
(0.0397527 -0.000108855 0)
(0.0380758 -8.80039e-05 0)
(0.0367124 -4.55254e-05 0)
(0.0355268 -1.49083e-06 0)
(0.0344424 3.37104e-05 0)
(0.0334225 5.71666e-05 0)
(0.0324539 7.0179e-05 0)
(0.0315342 7.5521e-05 0)
(0.0306643 7.59289e-05 0)
(0.029845 7.35459e-05 0)
(0.0290758 6.98235e-05 0)
(0.0283547 6.56455e-05 0)
(0.0276788 6.14913e-05 0)
(0.0270445 5.75924e-05 0)
(0.0264481 5.40219e-05 0)
(0.0258859 5.07888e-05 0)
(0.025355 4.78595e-05 0)
(0.024852 4.52036e-05 0)
(0.0243747 4.27772e-05 0)
(0.0239207 4.05555e-05 0)
(0.0234881 3.85027e-05 0)
(0.0230751 3.66057e-05 0)
(0.0226805 3.48359e-05 0)
(0.0223026 3.31901e-05 0)
(0.0219406 3.16437e-05 0)
(0.0215932 3.02011e-05 0)
(0.0212598 2.88386e-05 0)
(0.0209391 2.75664e-05 0)
(0.0206308 2.63597e-05 0)
(0.0203337 2.52339e-05 0)
(0.0200477 2.41614e-05 0)
(0.0197715 2.31631e-05 0)
(0.0195054 2.2207e-05 0)
(0.0192479 2.13201e-05 0)
(0.0189996 2.04649e-05 0)
(0.0187588 1.96757e-05 0)
(0.0185265 1.8908e-05 0)
(0.0183008 1.82047e-05 0)
(0.0180829 1.75128e-05 0)
(0.0178708 1.68852e-05 0)
(0.0176659 1.62588e-05 0)
(0.017466 1.56983e-05 0)
(0.017273 1.51283e-05 0)
(0.0170843 1.46276e-05 0)
(0.0169021 1.41062e-05 0)
(0.0167235 1.36595e-05 0)
(0.0165513 1.31795e-05 0)
(0.0163818 1.27818e-05 0)
(0.0162187 1.23369e-05 0)
(0.0160577 1.19845e-05 0)
(0.015903 1.15689e-05 0)
(0.0157496 1.12587e-05 0)
(0.0156028 1.0867e-05 0)
(0.0154563 1.05969e-05 0)
(0.0153168 1.02242e-05 0)
(0.0151766 9.99249e-06 0)
(0.0150441 9.63399e-06 0)
(0.0149095 9.44024e-06 0)
(0.0147835 9.09093e-06 0)
(0.0146541 8.93554e-06 0)
(0.0145343 8.59019e-06 0)
(0.0144095 8.47443e-06 0)
(0.0142956 8.1278e-06 0)
(0.0141748 8.05363e-06 0)
(0.0140667 7.70037e-06 0)
(0.0139494 7.6707e-06 0)
(0.013847 7.30478e-06 0)
(0.0137326 7.32414e-06 0)
(0.0136357 6.93837e-06 0)
(0.0135236 7.01309e-06 0)
(0.0134324 6.59913e-06 0)
(0.0133219 6.73731e-06 0)
(0.0132365 6.28562e-06 0)
(0.0131267 6.49753e-06 0)
(0.0130473 5.99658e-06 0)
(0.0129374 6.29598e-06 0)
(0.0128644 5.73099e-06 0)
(0.0127531 6.13662e-06 0)
(0.012687 5.48837e-06 0)
(0.0125731 6.02584e-06 0)
(0.0125147 5.26854e-06 0)
(0.0123962 5.9748e-06 0)
(0.0123468 5.07031e-06 0)
(0.012221 6.00455e-06 0)
(0.0121825 4.88795e-06 0)
(0.0120451 6.15328e-06 0)
(0.0120221 4.81546e-06 0)
(0.0118592 8.07807e-06 0)
(0.194768 0.00761768 0)
(0.192818 0.0107303 0)
(0.190189 0.0118641 0)
(0.186365 0.0117305 0)
(0.181023 0.0111053 0)
(0.174296 0.0102306 0)
(0.166761 0.0091114 0)
(0.158903 0.00773571 0)
(0.151107 0.00623753 0)
(0.143615 0.00482734 0)
(0.136564 0.00365247 0)
(0.130055 0.00275349 0)
(0.124132 0.00210096 0)
(0.118807 0.00165029 0)
(0.11404 0.00135159 0)
(0.109765 0.00115657 0)
(0.105911 0.00102558 0)
(0.102413 0.000931034 0)
(0.099218 0.000856212 0)
(0.0962827 0.000792134 0)
(0.0935725 0.000734506 0)
(0.0910591 0.000681599 0)
(0.0887199 0.000632873 0)
(0.0865354 0.000588226 0)
(0.0844897 0.000547595 0)
(0.0825682 0.000510844 0)
(0.0807591 0.000477696 0)
(0.079051 0.000447827 0)
(0.077435 0.000420853 0)
(0.0759025 0.000396432 0)
(0.0744466 0.000374213 0)
(0.0730606 0.000353927 0)
(0.0717394 0.000335303 0)
(0.0704774 0.000318157 0)
(0.0692711 0.000302283 0)
(0.0681156 0.00028757 0)
(0.0670085 0.000273861 0)
(0.0659455 0.000261092 0)
(0.064925 0.000249136 0)
(0.063943 0.000237965 0)
(0.0629987 0.000227463 0)
(0.0620882 0.000217631 0)
(0.0612115 0.000208355 0)
(0.0603645 0.000199661 0)
(0.059548 0.00019143 0)
(0.0587577 0.000183711 0)
(0.0579952 0.000176375 0)
(0.0572557 0.000169497 0)
(0.0565417 0.000162932 0)
(0.0558479 0.000156782 0)
(0.0551778 0.000150883 0)
(0.0545253 0.000145367 0)
(0.053895 0.000140046 0)
(0.0532799 0.000135086 0)
(0.0526859 0.000130268 0)
(0.0521047 0.000125797 0)
(0.051544 0.000121416 0)
(0.0509937 0.000117379 0)
(0.0504635 0.00011338 0)
(0.0499413 0.000109729 0)
(0.0494394 0.000106063 0)
(0.0489428 0.00010276 0)
(0.048467 9.93835e-05 0)
(0.0479938 9.63943e-05 0)
(0.0475423 9.32708e-05 0)
(0.0470906 9.05677e-05 0)
(0.0466619 8.76634e-05 0)
(0.0462295 8.52232e-05 0)
(0.0458223 8.25075e-05 0)
(0.0454076 8.03124e-05 0)
(0.0450208 7.77564e-05 0)
(0.0446221 7.57934e-05 0)
(0.0442547 7.33699e-05 0)
(0.0438702 7.163e-05 0)
(0.0435216 6.93134e-05 0)
(0.0431498 6.77911e-05 0)
(0.0428195 6.55577e-05 0)
(0.0424586 6.42515e-05 0)
(0.0421463 6.20771e-05 0)
(0.0417946 6.09914e-05 0)
(0.0415003 5.88503e-05 0)
(0.0411558 5.79957e-05 0)
(0.0408798 5.58607e-05 0)
(0.0405405 5.52536e-05 0)
(0.0402831 5.30965e-05 0)
(0.0399466 5.27602e-05 0)
(0.0397089 5.05496e-05 0)
(0.0393724 5.05177e-05 0)
(0.0391557 4.82169e-05 0)
(0.0388157 4.85367e-05 0)
(0.0386218 4.61022e-05 0)
(0.0382743 4.68385e-05 0)
(0.038106 4.42194e-05 0)
(0.0377453 4.5461e-05 0)
(0.0376065 4.25977e-05 0)
(0.0372251 4.44678e-05 0)
(0.0371222 4.13011e-05 0)
(0.0367079 4.40301e-05 0)
(0.0366527 4.05957e-05 0)
(0.0361824 4.82419e-05 0)
(0.195784 0.00731776 0)
(0.19609 0.00990511 0)
(0.197021 0.0115316 0)
(0.198065 0.0120764 0)
(0.198564 0.0119937 0)
(0.198164 0.0115731 0)
(0.196841 0.0108652 0)
(0.194711 0.00988751 0)
(0.191926 0.0087346 0)
(0.188649 0.00756372 0)
(0.185025 0.0065083 0)
(0.181202 0.00562962 0)
(0.177298 0.00492208 0)
(0.173412 0.00435927 0)
(0.169597 0.0039091 0)
(0.165877 0.0035418 0)
(0.162262 0.00323361 0)
(0.158754 0.00296772 0)
(0.155356 0.00273319 0)
(0.152067 0.00252328 0)
(0.14889 0.00233382 0)
(0.145823 0.00216221 0)
(0.142868 0.00200664 0)
(0.140023 0.00186573 0)
(0.137286 0.00173825 0)
(0.134655 0.001623 0)
(0.132128 0.00151878 0)
(0.1297 0.00142443 0)
(0.127369 0.00133883 0)
(0.125128 0.00126101 0)
(0.122975 0.00119001 0)
(0.120905 0.00112507 0)
(0.118914 0.00106543 0)
(0.116997 0.00101054 0)
(0.115152 0.000959808 0)
(0.113373 0.000912835 0)
(0.111659 0.000869184 0)
(0.110004 0.000828569 0)
(0.108408 0.000790647 0)
(0.106865 0.000755225 0)
(0.105375 0.00072202 0)
(0.103932 0.000690908 0)
(0.102538 0.000661644 0)
(0.101185 0.000634158 0)
(0.0998782 0.000608221 0)
(0.0986081 0.000583815 0)
(0.09738 0.000560714 0)
(0.0961847 0.000538944 0)
(0.0950286 0.000518277 0)
(0.0939014 0.000498781 0)
(0.0928113 0.000480214 0)
(0.0917462 0.000462692 0)
(0.0907168 0.000445948 0)
(0.0897085 0.000430148 0)
(0.0887348 0.000414994 0)
(0.0877786 0.000400703 0)
(0.0868565 0.000386941 0)
(0.0859479 0.000373983 0)
(0.0850736 0.000361442 0)
(0.0842088 0.000349665 0)
(0.0833791 0.000338199 0)
(0.0825544 0.000327474 0)
(0.0817662 0.000316956 0)
(0.0809784 0.000307172 0)
(0.0802293 0.000297492 0)
(0.0794752 0.000288555 0)
(0.0787629 0.000279616 0)
(0.0780396 0.000271443 0)
(0.0773623 0.00026316 0)
(0.0766671 0.000255684 0)
(0.0760233 0.000247979 0)
(0.0753533 0.000241144 0)
(0.0747418 0.000233948 0)
(0.0740945 0.000227707 0)
(0.0735143 0.000220956 0)
(0.0728871 0.000215271 0)
(0.0723377 0.000208912 0)
(0.0717277 0.000203754 0)
(0.071209 0.000197735 0)
(0.0706134 0.000193085 0)
(0.0701255 0.000187359 0)
(0.0695412 0.000183209 0)
(0.0690847 0.000177729 0)
(0.0685082 0.000174082 0)
(0.0680844 0.000168808 0)
(0.0675117 0.000165677 0)
(0.0671223 0.00016057 0)
(0.0665489 0.00015798 0)
(0.0661964 0.000153006 0)
(0.0656166 0.000151002 0)
(0.0653046 0.000146131 0)
(0.0647117 0.000144773 0)
(0.0644449 0.000139993 0)
(0.0638301 0.000139359 0)
(0.0636152 0.000134691 0)
(0.0629668 0.000134887 0)
(0.0628134 0.000130396 0)
(0.0621154 0.000131829 0)
(0.0620368 0.000127638 0)
(0.0612675 0.000135495 0)
(0.196737 0.0068813 0)
(0.19704 0.00873094 0)
(0.198002 0.0102552 0)
(0.199532 0.0110439 0)
(0.201158 0.011221 0)
(0.202482 0.0110247 0)
(0.203326 0.0105704 0)
(0.203653 0.00990508 0)
(0.203481 0.00908957 0)
(0.202852 0.00822254 0)
(0.201827 0.00740506 0)
(0.200491 0.0066987 0)
(0.19893 0.00611768 0)
(0.19722 0.00564376 0)
(0.195411 0.00525138 0)
(0.19353 0.00491847 0)
(0.191591 0.00462829 0)
(0.189602 0.00436888 0)
(0.187569 0.00413211 0)
(0.185499 0.00391273 0)
(0.183398 0.00370751 0)
(0.181273 0.00351461 0)
(0.179132 0.00333295 0)
(0.176982 0.00316195 0)
(0.174831 0.00300115 0)
(0.172684 0.00285013 0)
(0.170548 0.00270841 0)
(0.168427 0.00257549 0)
(0.166327 0.00245083 0)
(0.16425 0.00233388 0)
(0.162201 0.00222413 0)
(0.160179 0.00212106 0)
(0.158192 0.00202421 0)
(0.156235 0.00193315 0)
(0.154316 0.00184744 0)
(0.15243 0.00176673 0)
(0.150584 0.00169065 0)
(0.148771 0.0016189 0)
(0.146999 0.00155118 0)
(0.14526 0.00148722 0)
(0.143562 0.00142675 0)
(0.141897 0.00136957 0)
(0.140273 0.00131543 0)
(0.13868 0.00126417 0)
(0.137127 0.00121556 0)
(0.135604 0.00116948 0)
(0.134121 0.00112571 0)
(0.132664 0.00108417 0)
(0.131247 0.00104466 0)
(0.129853 0.00100711 0)
(0.1285 0.000971339 0)
(0.127167 0.000937306 0)
(0.125875 0.000904838 0)
(0.124599 0.000873915 0)
(0.123364 0.000844365 0)
(0.122142 0.000816199 0)
(0.120962 0.00078924 0)
(0.11979 0.000763526 0)
(0.118663 0.000738869 0)
(0.117537 0.00071534 0)
(0.11646 0.000692734 0)
(0.115379 0.00067116 0)
(0.114349 0.000650386 0)
(0.113309 0.000630563 0)
(0.112325 0.000611429 0)
(0.111323 0.000593181 0)
(0.110383 0.000575519 0)
(0.109416 0.000558688 0)
(0.108519 0.00054235 0)
(0.107584 0.000526801 0)
(0.106728 0.000511654 0)
(0.105822 0.00049727 0)
(0.105007 0.000483196 0)
(0.104127 0.000469875 0)
(0.103352 0.000456773 0)
(0.102495 0.000444425 0)
(0.10176 0.000432208 0)
(0.100923 0.000420756 0)
(0.100228 0.000409349 0)
(0.0994066 0.00039873 0)
(0.0987537 0.000388065 0)
(0.0979439 0.000378232 0)
(0.0973339 0.000368255 0)
(0.0965314 0.00035917 0)
(0.0959663 0.000349841 0)
(0.0951661 0.000341478 0)
(0.0946488 0.000332772 0)
(0.0938447 0.000325119 0)
(0.0933792 0.000317027 0)
(0.0925641 0.000310089 0)
(0.0921553 0.000302628 0)
(0.0913204 0.000296428 0)
(0.0909748 0.000289649 0)
(0.0901095 0.000284245 0)
(0.0898355 0.000278229 0)
(0.0889263 0.000273796 0)
(0.0887344 0.000268583 0)
(0.0877648 0.000265914 0)
(0.087667 0.000261587 0)
(0.0866189 0.000265653 0)
(0.197465 0.00655852 0)
(0.197768 0.00797077 0)
(0.198534 0.00927528 0)
(0.199816 0.0101123 0)
(0.201354 0.0104127 0)
(0.202827 0.0103223 0)
(0.204048 0.009982 0)
(0.204955 0.00947202 0)
(0.205546 0.00884671 0)
(0.205836 0.00816974 0)
(0.20585 0.00751229 0)
(0.205632 0.00692798 0)
(0.205237 0.00643858 0)
(0.204717 0.006037 0)
(0.20411 0.00570474 0)
(0.203435 0.0054237 0)
(0.202701 0.00517976 0)
(0.201909 0.00496253 0)
(0.20106 0.00476464 0)
(0.200152 0.00458092 0)
(0.199188 0.00440801 0)
(0.198166 0.00424378 0)
(0.197092 0.00408701 0)
(0.195967 0.00393698 0)
(0.194796 0.00379329 0)
(0.193581 0.0036556 0)
(0.192329 0.00352368 0)
(0.19104 0.00339723 0)
(0.189723 0.00327601 0)
(0.188375 0.00315973 0)
(0.187007 0.00304817 0)
(0.185615 0.00294105 0)
(0.18421 0.0028382 0)
(0.182787 0.00273936 0)
(0.181357 0.00264441 0)
(0.179915 0.0025531 0)
(0.178472 0.00246537 0)
(0.177021 0.00238098 0)
(0.175574 0.00229991 0)
(0.174123 0.0022219 0)
(0.172682 0.00214698 0)
(0.171238 0.0020749 0)
(0.169809 0.00200569 0)
(0.16838 0.00193909 0)
(0.166969 0.00187518 0)
(0.165558 0.00181366 0)
(0.164171 0.00175465 0)
(0.162783 0.00169783 0)
(0.161423 0.00164335 0)
(0.160062 0.00159085 0)
(0.158731 0.00154055 0)
(0.157398 0.00149204 0)
(0.156101 0.00144558 0)
(0.154798 0.00140072 0)
(0.153534 0.00135779 0)
(0.152262 0.00131628 0)
(0.151034 0.00127659 0)
(0.149792 0.00123814 0)
(0.1486 0.00120141 0)
(0.14739 0.00116576 0)
(0.146235 0.00113176 0)
(0.145055 0.00109866 0)
(0.143937 0.00106715 0)
(0.142786 0.00103637 0)
(0.141707 0.00100715 0)
(0.140583 0.000978488 0)
(0.139542 0.000951367 0)
(0.138445 0.00092463 0)
(0.137443 0.000899441 0)
(0.13637 0.000874453 0)
(0.135407 0.000851046 0)
(0.134357 0.000827649 0)
(0.133433 0.000805886 0)
(0.132403 0.000783937 0)
(0.13152 0.000763702 0)
(0.130507 0.000743066 0)
(0.129667 0.000724262 0)
(0.128668 0.000704817 0)
(0.127871 0.000687363 0)
(0.126883 0.000669002 0)
(0.126131 0.000652832 0)
(0.12515 0.000635461 0)
(0.124447 0.000620527 0)
(0.123467 0.000604064 0)
(0.122816 0.000590342 0)
(0.121832 0.000574714 0)
(0.121237 0.000562205 0)
(0.120242 0.000547358 0)
(0.119708 0.000536086 0)
(0.118695 0.000521991 0)
(0.118229 0.000512007 0)
(0.117189 0.000498677 0)
(0.116797 0.000490054 0)
(0.115718 0.000477595 0)
(0.11541 0.000470391 0)
(0.11428 0.000459144 0)
(0.114065 0.000453323 0)
(0.112868 0.000444371 0)
(0.112758 0.000440145 0)
(0.111479 0.000437504 0)
(0.198061 0.00628999 0)
(0.198367 0.00744087 0)
(0.199008 0.0085375 0)
(0.200046 0.00933755 0)
(0.201345 0.00970839 0)
(0.202669 0.00970489 0)
(0.203843 0.00945003 0)
(0.204789 0.00903937 0)
(0.205501 0.00853248 0)
(0.205994 0.00797727 0)
(0.206291 0.00742442 0)
(0.206422 0.00691819 0)
(0.206427 0.00648294 0)
(0.206344 0.0061206 0)
(0.206207 0.00582 0)
(0.206032 0.0055668 0)
(0.20583 0.00534867 0)
(0.205597 0.00515622 0)
(0.205337 0.00498275 0)
(0.205041 0.00482338 0)
(0.204712 0.00467484 0)
(0.204343 0.0045348 0)
(0.203939 0.00440189 0)
(0.203494 0.00427504 0)
(0.203013 0.0041537 0)
(0.202492 0.00403729 0)
(0.201938 0.00392552 0)
(0.201343 0.00381791 0)
(0.200717 0.00371428 0)
(0.200053 0.00361416 0)
(0.199361 0.00351744 0)
(0.198631 0.00342368 0)
(0.197877 0.00333289 0)
(0.197088 0.00324461 0)
(0.196278 0.00315898 0)
(0.195434 0.00307553 0)
(0.194575 0.0029945 0)
(0.193683 0.00291543 0)
(0.192779 0.00283862 0)
(0.191845 0.00276358 0)
(0.190903 0.00269072 0)
(0.189933 0.00261949 0)
(0.18896 0.00255039 0)
(0.187959 0.00248279 0)
(0.186961 0.00241729 0)
(0.185935 0.00235318 0)
(0.184917 0.00229115 0)
(0.183871 0.00223038 0)
(0.18284 0.00217169 0)
(0.181779 0.00211414 0)
(0.180739 0.00205868 0)
(0.179667 0.00200421 0)
(0.178623 0.00195186 0)
(0.177544 0.00190034 0)
(0.176501 0.00185098 0)
(0.175418 0.00180227 0)
(0.174379 0.00175576 0)
(0.173296 0.00170972 0)
(0.172264 0.00166594 0)
(0.171182 0.00162242 0)
(0.170163 0.00158125 0)
(0.169084 0.00154009 0)
(0.168079 0.0015014 0)
(0.167004 0.00146246 0)
(0.166017 0.00142612 0)
(0.164947 0.00138925 0)
(0.16398 0.00135516 0)
(0.162916 0.00132021 0)
(0.161972 0.00128825 0)
(0.160914 0.00125507 0)
(0.159995 0.00122515 0)
(0.158942 0.0011936 0)
(0.158052 0.00116561 0)
(0.157002 0.00113556 0)
(0.156143 0.00110943 0)
(0.155096 0.00108073 0)
(0.154271 0.0010564 0)
(0.153224 0.00102892 0)
(0.152437 0.00100634 0)
(0.151387 0.000979968 0)
(0.150641 0.000959102 0)
(0.149586 0.000933719 0)
(0.148885 0.00091455 0)
(0.147819 0.000890057 0)
(0.147169 0.000872593 0)
(0.146088 0.000848899 0)
(0.145492 0.000833171 0)
(0.144391 0.000810212 0)
(0.143856 0.000796268 0)
(0.142727 0.000774025 0)
(0.142261 0.000761928 0)
(0.141096 0.000740457 0)
(0.140705 0.000730269 0)
(0.139494 0.000709765 0)
(0.139188 0.000701517 0)
(0.13792 0.000682462 0)
(0.137707 0.000676147 0)
(0.13637 0.000659712 0)
(0.136261 0.000655751 0)
(0.134841 0.000644883 0)
(0.198583 0.00604308 0)
(0.198882 0.00700985 0)
(0.199435 0.00793105 0)
(0.200287 0.0086514 0)
(0.201369 0.00904847 0)
(0.202515 0.00911928 0)
(0.203576 0.00894691 0)
(0.204464 0.00862118 0)
(0.20516 0.00820584 0)
(0.205673 0.00774453 0)
(0.206029 0.00727558 0)
(0.206251 0.00683341 0)
(0.206372 0.00644155 0)
(0.206422 0.00610752 0)
(0.206432 0.00582667 0)
(0.206416 0.00558862 0)
(0.206388 0.00538322 0)
(0.206346 0.00520207 0)
(0.206296 0.00503939 0)
(0.206228 0.00489078 0)
(0.206149 0.00475349 0)
(0.206048 0.00462521 0)
(0.205934 0.00450469 0)
(0.205796 0.0043906 0)
(0.205643 0.00428247 0)
(0.205464 0.00417935 0)
(0.205271 0.0040811 0)
(0.205051 0.00398689 0)
(0.204816 0.00389673 0)
(0.204551 0.00380981 0)
(0.204274 0.00372626 0)
(0.203965 0.00364526 0)
(0.203644 0.00356709 0)
(0.203291 0.00349091 0)
(0.202926 0.00341717 0)
(0.202528 0.00334498 0)
(0.202121 0.00327495 0)
(0.201678 0.00320613 0)
(0.20123 0.0031393 0)
(0.200743 0.00307341 0)
(0.200255 0.00300944 0)
(0.199726 0.00294618 0)
(0.199199 0.0028848 0)
(0.198631 0.00282396 0)
(0.198068 0.00276501 0)
(0.197461 0.00270642 0)
(0.196865 0.00264978 0)
(0.196222 0.00259333 0)
(0.195595 0.00253892 0)
(0.194918 0.00248451 0)
(0.194265 0.00243227 0)
(0.193557 0.00237984 0)
(0.19288 0.00232973 0)
(0.192143 0.0022792 0)
(0.191446 0.00223118 0)
(0.190682 0.0021825 0)
(0.189968 0.00213653 0)
(0.18918 0.00208964 0)
(0.188453 0.00204569 0)
(0.187642 0.00200052 0)
(0.186906 0.00195857 0)
(0.186074 0.00191504 0)
(0.185332 0.00187505 0)
(0.184482 0.0018331 0)
(0.183737 0.00179505 0)
(0.182869 0.00175459 0)
(0.182125 0.00171844 0)
(0.181241 0.00167939 0)
(0.180501 0.00164513 0)
(0.179601 0.00160738 0)
(0.17887 0.00157499 0)
(0.177954 0.00153846 0)
(0.177236 0.0015079 0)
(0.176304 0.00147249 0)
(0.175602 0.00144376 0)
(0.174653 0.00140937 0)
(0.173971 0.00138246 0)
(0.173006 0.00134899 0)
(0.172348 0.00132392 0)
(0.171363 0.00129126 0)
(0.170734 0.00126804 0)
(0.169728 0.00123612 0)
(0.169134 0.00121478 0)
(0.168103 0.0011835 0)
(0.167548 0.00116409 0)
(0.166489 0.0011334 0)
(0.165979 0.00111597 0)
(0.164888 0.00108584 0)
(0.164429 0.00107047 0)
(0.163301 0.00104093 0)
(0.1629 0.00102769 0)
(0.161727 0.000998874 0)
(0.161391 0.000987816 0)
(0.160168 0.00096001 0)
(0.159905 0.000951194 0)
(0.158622 0.000924963 0)
(0.15844 0.000918503 0)
(0.157088 0.000894986 0)
(0.156995 0.000891459 0)
(0.155566 0.000872697 0)
(0.199037 0.00580741 0)
(0.199324 0.00663016 0)
(0.199807 0.00740797 0)
(0.20052 0.00804008 0)
(0.201423 0.00843242 0)
(0.202405 0.00855761 0)
(0.203348 0.00846051 0)
(0.204164 0.00821269 0)
(0.204823 0.00787582 0)
(0.205324 0.00749296 0)
(0.20569 0.00709655 0)
(0.20594 0.00671334 0)
(0.206103 0.00636382 0)
(0.206199 0.00605777 0)
(0.206259 0.00579529 0)
(0.206292 0.0055698 0)
(0.206317 0.00537363 0)
(0.20633 0.00519952 0)
(0.206341 0.00504272 0)
(0.206341 0.00489927 0)
(0.206339 0.00476712 0)
(0.206322 0.00464401 0)
(0.206304 0.00452907 0)
(0.206271 0.00442072 0)
(0.206236 0.00431874 0)
(0.206183 0.00422185 0)
(0.206131 0.00413019 0)
(0.206059 0.00404255 0)
(0.205988 0.00395933 0)
(0.205896 0.00387928 0)
(0.205805 0.00380298 0)
(0.205691 0.00372911 0)
(0.205579 0.00365846 0)
(0.205442 0.00358961 0)
(0.205308 0.00352359 0)
(0.205145 0.00345883 0)
(0.204989 0.00339663 0)
(0.204799 0.00333526 0)
(0.204619 0.00327629 0)
(0.204402 0.00321777 0)
(0.204196 0.00316157 0)
(0.20395 0.00310549 0)
(0.203719 0.00305172 0)
(0.203443 0.00299776 0)
(0.203187 0.00294616 0)
(0.202881 0.00289409 0)
(0.2026 0.00284447 0)
(0.202262 0.00279408 0)
(0.201956 0.00274628 0)
(0.201588 0.00269743 0)
(0.201257 0.00265136 0)
(0.200857 0.0026039 0)
(0.200504 0.00255948 0)
(0.200073 0.00251334 0)
(0.199698 0.0024705 0)
(0.199236 0.00242557 0)
(0.198841 0.00238429 0)
(0.198348 0.00234049 0)
(0.197934 0.00230073 0)
(0.197412 0.002258 0)
(0.196981 0.00221973 0)
(0.196429 0.00217799 0)
(0.195984 0.00214122 0)
(0.195403 0.00210041 0)
(0.194946 0.00206513 0)
(0.194336 0.00202518 0)
(0.19387 0.0019914 0)
(0.193231 0.00195224 0)
(0.192759 0.00191996 0)
(0.19209 0.00188153 0)
(0.191616 0.00185078 0)
(0.190919 0.00181299 0)
(0.190444 0.00178379 0)
(0.189718 0.00174659 0)
(0.189247 0.00171895 0)
(0.188491 0.00168226 0)
(0.188027 0.00165624 0)
(0.187241 0.00161998 0)
(0.186789 0.00159562 0)
(0.185971 0.00155973 0)
(0.185534 0.00153708 0)
(0.184683 0.00150152 0)
(0.184267 0.00148063 0)
(0.18338 0.00144537 0)
(0.182989 0.00142631 0)
(0.182065 0.00139133 0)
(0.181704 0.00137419 0)
(0.180739 0.00133952 0)
(0.180413 0.00132437 0)
(0.179405 0.00129012 0)
(0.17912 0.00127703 0)
(0.178064 0.00124341 0)
(0.177825 0.00123247 0)
(0.176718 0.00119983 0)
(0.17653 0.00119115 0)
(0.175366 0.00116012 0)
(0.175236 0.00115395 0)
(0.17401 0.0011256 0)
(0.173944 0.00112259 0)
(0.172649 0.0010983 0)
(0.199424 0.00557899 0)
(0.199696 0.00628473 0)
(0.200122 0.00694772 0)
(0.200726 0.00749933 0)
(0.201486 0.00787124 0)
(0.202326 0.00803101 0)
(0.203157 0.00799723 0)
(0.203899 0.00781998 0)
(0.204517 0.00755301 0)
(0.205 0.0072379 0)
(0.205366 0.00690477 0)
(0.205628 0.00657564 0)
(0.205813 0.00626774 0)
(0.205935 0.00599078 0)
(0.206022 0.00574789 0)
(0.206078 0.00553552 0)
(0.206125 0.00534868 0)
(0.206156 0.0051813 0)
(0.206188 0.00502976 0)
(0.206207 0.00489039 0)
(0.206227 0.00476189 0)
(0.206234 0.00464195 0)
(0.206244 0.00453025 0)
(0.206239 0.0044249 0)
(0.20624 0.00432611 0)
(0.206225 0.00423214 0)
(0.206217 0.00414362 0)
(0.206192 0.00405885 0)
(0.206176 0.00397879 0)
(0.206141 0.00390163 0)
(0.206118 0.0038286 0)
(0.206073 0.00375774 0)
(0.206041 0.00369055 0)
(0.205986 0.00362488 0)
(0.205946 0.00356256 0)
(0.205878 0.00350119 0)
(0.20583 0.00344296 0)
(0.205749 0.00338519 0)
(0.205691 0.00333045 0)
(0.205597 0.00327572 0)
(0.205528 0.003224 0)
(0.205419 0.00317188 0)
(0.205339 0.00312281 0)
(0.205213 0.00307294 0)
(0.205121 0.00302622 0)
(0.204977 0.0029783 0)
(0.204873 0.0029337 0)
(0.204709 0.00288749 0)
(0.204592 0.00284481 0)
(0.204408 0.0028001 0)
(0.204278 0.00275919 0)
(0.204072 0.0027158 0)
(0.203929 0.00267654 0)
(0.2037 0.00263433 0)
(0.203543 0.00259662 0)
(0.203291 0.00255545 0)
(0.203121 0.00251922 0)
(0.202844 0.00247896 0)
(0.202661 0.00244413 0)
(0.202358 0.00240467 0)
(0.202163 0.00237121 0)
(0.201833 0.00233244 0)
(0.201626 0.0023003 0)
(0.201269 0.00226213 0)
(0.201052 0.00223129 0)
(0.200667 0.00219364 0)
(0.200441 0.00216409 0)
(0.200026 0.00212686 0)
(0.199792 0.0020986 0)
(0.199348 0.00206171 0)
(0.199108 0.00203475 0)
(0.198633 0.00199813 0)
(0.19839 0.00197248 0)
(0.197883 0.00193606 0)
(0.197637 0.00191173 0)
(0.197098 0.00187545 0)
(0.196853 0.00185248 0)
(0.19628 0.00181627 0)
(0.196038 0.00179471 0)
(0.195431 0.00175853 0)
(0.195195 0.00173842 0)
(0.194552 0.00170226 0)
(0.194325 0.00168365 0)
(0.193644 0.00164751 0)
(0.193429 0.00163046 0)
(0.19271 0.00159439 0)
(0.19251 0.00157896 0)
(0.19175 0.00154303 0)
(0.191569 0.0015293 0)
(0.190767 0.00149368 0)
(0.190609 0.00148172 0)
(0.189762 0.00144668 0)
(0.189629 0.00143659 0)
(0.188736 0.00140252 0)
(0.188633 0.00139447 0)
(0.18769 0.00136203 0)
(0.187619 0.00135638 0)
(0.186626 0.00132657 0)
(0.18659 0.00132396 0)
(0.185543 0.00129774 0)
(0.199749 0.00535721 0)
(0.200005 0.00596736 0)
(0.200382 0.00653888 0)
(0.200899 0.00702195 0)
(0.201546 0.0073675 0)
(0.202264 0.0075459 0)
(0.202992 0.00756133 0)
(0.20366 0.00744535 0)
(0.204236 0.00724083 0)
(0.204697 0.00698534 0)
(0.205059 0.00670769 0)
(0.205327 0.00642733 0)
(0.205528 0.00615913 0)
(0.205668 0.00591169 0)
(0.205774 0.00568967 0)
(0.205847 0.00549165 0)
(0.205908 0.00531515 0)
(0.205951 0.00515531 0)
(0.205994 0.00500974 0)
(0.206021 0.00487493 0)
(0.206052 0.00475034 0)
(0.206066 0.00463352 0)
(0.206086 0.00452478 0)
(0.20609 0.00442185 0)
(0.206102 0.0043255 0)
(0.206097 0.00423349 0)
(0.206103 0.00414703 0)
(0.206091 0.00406385 0)
(0.206092 0.00398557 0)
(0.206073 0.00390973 0)
(0.20607 0.00383833 0)
(0.206046 0.00376866 0)
(0.20604 0.00370306 0)
(0.206009 0.00363853 0)
(0.206001 0.00357784 0)
(0.205965 0.00351764 0)
(0.205954 0.00346115 0)
(0.205912 0.00340462 0)
(0.205899 0.00335176 0)
(0.205849 0.00329839 0)
(0.205834 0.00324873 0)
(0.205777 0.00319808 0)
(0.205759 0.00315127 0)
(0.205694 0.00310301 0)
(0.205672 0.00305875 0)
(0.205598 0.00301259 0)
(0.205573 0.00297065 0)
(0.205489 0.00292632 0)
(0.20546 0.0028865 0)
(0.205365 0.00284378 0)
(0.205332 0.00280592 0)
(0.205224 0.00276463 0)
(0.205187 0.00272859 0)
(0.205065 0.00268856 0)
(0.205023 0.00265423 0)
(0.204887 0.00261529 0)
(0.20484 0.00258257 0)
(0.204688 0.00254459 0)
(0.204636 0.00251338 0)
(0.204467 0.00247621 0)
(0.20441 0.00244645 0)
(0.204222 0.00240997 0)
(0.20416 0.00238158 0)
(0.203952 0.00234566 0)
(0.203886 0.00231859 0)
(0.203657 0.00228314 0)
(0.203586 0.00225735 0)
(0.203335 0.00222225 0)
(0.20326 0.00219772 0)
(0.202986 0.00216287 0)
(0.202907 0.00213958 0)
(0.202608 0.0021049 0)
(0.202526 0.00208281 0)
(0.202202 0.00204823 0)
(0.202118 0.00202734 0)
(0.201767 0.00199279 0)
(0.201682 0.00197309 0)
(0.201303 0.00193851 0)
(0.201218 0.00192002 0)
(0.200809 0.00188539 0)
(0.200726 0.00186811 0)
(0.200287 0.00183342 0)
(0.200206 0.00181739 0)
(0.199736 0.00178268 0)
(0.199659 0.0017679 0)
(0.199157 0.00173323 0)
(0.199086 0.00171975 0)
(0.19855 0.00168524 0)
(0.198485 0.00167312 0)
(0.197915 0.00163896 0)
(0.197859 0.00162825 0)
(0.197253 0.00159473 0)
(0.197206 0.00158555 0)
(0.196565 0.0015531 0)
(0.196529 0.00154567 0)
(0.19585 0.0015149 0)
(0.195826 0.00150964 0)
(0.19511 0.00148148 0)
(0.195099 0.00147901 0)
(0.194345 0.00145421 0)
(0.200019 0.00514289 0)
(0.200258 0.00567516 0)
(0.200593 0.0061731 0)
(0.201039 0.00659905 0)
(0.201593 0.00691727 0)
(0.20221 0.00710304 0)
(0.202846 0.00715408 0)
(0.203443 0.00708865 0)
(0.203973 0.00693877 0)
(0.204411 0.00673605 0)
(0.204764 0.00650745 0)
(0.205034 0.00627081 0)
(0.205245 0.00603967 0)
(0.205398 0.00582129 0)
(0.20552 0.005621 0)
(0.205606 0.00543854 0)
(0.205681 0.00527358 0)
(0.205733 0.00512232 0)
(0.205785 0.00498366 0)
(0.205819 0.00485425 0)
(0.205856 0.0047343 0)
(0.205876 0.00462113 0)
(0.205902 0.00451571 0)
(0.205911 0.00441541 0)
(0.205928 0.00432158 0)
(0.205928 0.00423149 0)
(0.205939 0.00414699 0)
(0.205931 0.0040652 0)
(0.205938 0.00398843 0)
(0.205924 0.00391358 0)
(0.205928 0.00384339 0)
(0.205909 0.00377442 0)
(0.205911 0.00370983 0)
(0.205889 0.00364583 0)
(0.20589 0.00358603 0)
(0.205863 0.00352624 0)
(0.205863 0.00347058 0)
(0.205833 0.00341439 0)
(0.205833 0.00336237 0)
(0.205799 0.00330931 0)
(0.2058 0.00326053 0)
(0.205761 0.00321021 0)
(0.205763 0.00316434 0)
(0.20572 0.00311646 0)
(0.205722 0.00307323 0)
(0.205674 0.0030275 0)
(0.205677 0.00298671 0)
(0.205624 0.00294288 0)
(0.205627 0.00290433 0)
(0.205569 0.00286221 0)
(0.205572 0.00282573 0)
(0.205507 0.00278514 0)
(0.205511 0.00275062 0)
(0.205439 0.00271139 0)
(0.205444 0.00267871 0)
(0.205363 0.00264068 0)
(0.205368 0.00260975 0)
(0.205279 0.00257279 0)
(0.205284 0.00254349 0)
(0.205185 0.00250746 0)
(0.205189 0.00247972 0)
(0.20508 0.00244449 0)
(0.205084 0.00241822 0)
(0.204962 0.00238366 0)
(0.204967 0.00235879 0)
(0.204832 0.0023248 0)
(0.204836 0.00230127 0)
(0.204688 0.00226773 0)
(0.204691 0.00224549 0)
(0.204528 0.00221232 0)
(0.204531 0.00219132 0)
(0.204352 0.00215843 0)
(0.204355 0.00213861 0)
(0.204159 0.00210593 0)
(0.204161 0.00208725 0)
(0.203947 0.00205471 0)
(0.203949 0.00203713 0)
(0.203716 0.00200468 0)
(0.203718 0.00198819 0)
(0.203465 0.0019558 0)
(0.203467 0.00194037 0)
(0.203193 0.00190806 0)
(0.203195 0.00189368 0)
(0.2029 0.00186149 0)
(0.202902 0.00184815 0)
(0.202585 0.00181616 0)
(0.202587 0.00180388 0)
(0.202248 0.00177222 0)
(0.20225 0.00176103 0)
(0.201887 0.00172989 0)
(0.201889 0.00171985 0)
(0.201503 0.00168952 0)
(0.201506 0.00168077 0)
(0.201094 0.00165163 0)
(0.201097 0.00164443 0)
(0.200662 0.00161709 0)
(0.200665 0.00161189 0)
(0.200204 0.00158715 0)
(0.200207 0.00158455 0)
(0.199723 0.00156309 0)
(0.200241 0.00493706 0)
(0.200463 0.0054057 0)
(0.200761 0.00584372 0)
(0.201148 0.00622212 0)
(0.201624 0.00651432 0)
(0.202156 0.0067003 0)
(0.202711 0.00677556 0)
(0.203243 0.00674991 0)
(0.203727 0.00664641 0)
(0.204138 0.00649013 0)
(0.20448 0.00630519 0)
(0.204748 0.00610788 0)
(0.204965 0.00591096 0)
(0.205127 0.00572062 0)
(0.20526 0.00554234 0)
(0.205357 0.0053764 0)
(0.205442 0.00522403 0)
(0.205504 0.00508237 0)
(0.205563 0.00495153 0)
(0.205603 0.00482836 0)
(0.205646 0.00471376 0)
(0.205672 0.00460489 0)
(0.205702 0.00450328 0)
(0.205715 0.00440601 0)
(0.205737 0.00431499 0)
(0.20574 0.00422709 0)
(0.205754 0.00414468 0)
(0.20575 0.00406445 0)
(0.205759 0.00398926 0)
(0.205749 0.0039155 0)
(0.205755 0.00384649 0)
(0.20574 0.00377826 0)
(0.205745 0.00371457 0)
(0.205726 0.00365105 0)
(0.205729 0.00359195 0)
(0.205707 0.00353246 0)
(0.20571 0.00347737 0)
(0.205685 0.00342134 0)
(0.205688 0.00336979 0)
(0.20566 0.0033168 0)
(0.205664 0.00326842 0)
(0.205633 0.00321813 0)
(0.205638 0.00317264 0)
(0.205605 0.00312475 0)
(0.205611 0.0030819 0)
(0.205576 0.00303616 0)
(0.205583 0.00299575 0)
(0.205545 0.00295194 0)
(0.205555 0.00291379 0)
(0.205513 0.00287173 0)
(0.205524 0.00283569 0)
(0.205479 0.00279521 0)
(0.205493 0.00276117 0)
(0.205444 0.00272211 0)
(0.20546 0.00268997 0)
(0.205407 0.0026522 0)
(0.205424 0.00262185 0)
(0.205367 0.00258526 0)
(0.205387 0.00255661 0)
(0.205324 0.00252106 0)
(0.205346 0.00249402 0)
(0.205277 0.00245939 0)
(0.205301 0.00243386 0)
(0.205227 0.00240005 0)
(0.205252 0.00237595 0)
(0.205171 0.00234285 0)
(0.205198 0.00232012 0)
(0.205109 0.00228763 0)
(0.205137 0.00226621 0)
(0.205041 0.00223425 0)
(0.20507 0.00221407 0)
(0.204965 0.00218257 0)
(0.204996 0.00216356 0)
(0.204881 0.00213246 0)
(0.204913 0.00211456 0)
(0.204788 0.00208379 0)
(0.20482 0.00206694 0)
(0.204685 0.00203647 0)
(0.204717 0.00202062 0)
(0.204571 0.00199043 0)
(0.204603 0.00197555 0)
(0.204445 0.00194565 0)
(0.204476 0.0019317 0)
(0.204306 0.00190215 0)
(0.204337 0.00188912 0)
(0.204154 0.00186 0)
(0.204183 0.00184789 0)
(0.203987 0.00181931 0)
(0.204014 0.00180817 0)
(0.203805 0.00178032 0)
(0.203829 0.00177022 0)
(0.203606 0.00174335 0)
(0.203627 0.00173445 0)
(0.203389 0.00170893 0)
(0.203406 0.00170152 0)
(0.203155 0.00167788 0)
(0.203167 0.00167244 0)
(0.202901 0.0016514 0)
(0.202908 0.0016485 0)
(0.202629 0.00163071 0)