/*--------------------------------*- C++ -*----------------------------------*\
| =========                 |                                                 |
| \\      /  F ield         | OpenFOAM: The Open Source CFD Toolbox           |
|  \\    /   O peration     | Version:  2.3.0                                 |
|   \\  /    A nd           | Web:      www.OpenFOAM.org                      |
|    \\/     M anipulation  |                                                 |
\*---------------------------------------------------------------------------*/
FoamFile
{
    version     2.0;
    format      ascii;
    class       volVectorField;
    location    "0.3";
    object      U_0;
}
// * * * * * * * * * * * * * * * * * * * * * * * * * * * * * * * * * * * * * //

dimensions      [0 1 -1 0 0 0 0];

internalField   nonuniform List<vector> 
3375
(
(0.175725 0.00437282 0)
(0.155265 0.00597191 0)
(0.136684 0.00612597 0)
(0.118533 0.00552706 0)
(0.101 0.00472094 0)
(0.0849498 0.00383135 0)
(0.0714428 0.00286628 0)
(0.0608758 0.00185012 0)
(0.0530412 0.000965507 0)
(0.0473931 0.00036467 0)
(0.0433674 4.41392e-05 0)
(0.0404965 -8.49117e-05 0)
(0.0384003 -0.000106743 0)
(0.0367924 -7.9601e-05 0)
(0.0354725 -3.6354e-05 0)
(0.0343185 5.22935e-06 0)
(0.0332628 3.73631e-05 0)
(0.0322714 5.82986e-05 0)
(0.0313313 6.92532e-05 0)
(0.0304416 7.28029e-05 0)
(0.0296053 7.18599e-05 0)
(0.0288235 6.87658e-05 0)
(0.0280938 6.48888e-05 0)
(0.0274125 6.08477e-05 0)
(0.0267756 5.69011e-05 0)
(0.0261794 5.31545e-05 0)
(0.0256208 4.96313e-05 0)
(0.0250968 4.63215e-05 0)
(0.024605 4.32374e-05 0)
(0.0241427 4.04246e-05 0)
(0.0237074 3.79162e-05 0)
(0.0232963 3.56955e-05 0)
(0.0229071 3.36958e-05 0)
(0.0225382 3.18444e-05 0)
(0.0221881 3.0104e-05 0)
(0.0218557 2.84567e-05 0)
(0.0215402 2.68816e-05 0)
(0.0212407 2.53761e-05 0)
(0.0209564 2.39509e-05 0)
(0.0206866 2.26033e-05 0)
(0.0204307 2.13144e-05 0)
(0.0201881 2.00668e-05 0)
(0.0199584 1.88508e-05 0)
(0.0197413 1.76745e-05 0)
(0.0195363 1.65579e-05 0)
(0.0193428 1.55175e-05 0)
(0.0191605 1.4549e-05 0)
(0.0189888 1.36358e-05 0)
(0.0188274 1.27625e-05 0)
(0.018676 1.1922e-05 0)
(0.0185344 1.11039e-05 0)
(0.0184024 1.03039e-05 0)
(0.0182799 9.51728e-06 0)
(0.0181668 8.73736e-06 0)
(0.0180631 7.95652e-06 0)
(0.0179687 7.17934e-06 0)
(0.0178835 6.40214e-06 0)
(0.0178074 5.61674e-06 0)
(0.0177406 4.8183e-06 0)
(0.0176827 4.01361e-06 0)
(0.0176338 3.19625e-06 0)
(0.0175937 2.38318e-06 0)
(0.0175623 1.62708e-06 0)
(0.0175394 9.60542e-07 0)
(0.0175248 3.72902e-07 0)
(0.017518 -1.28804e-07 0)
(0.0175188 -9.43218e-07 0)
(0.017526 -1.47237e-06 0)
(0.0175388 -2.00974e-06 0)
(0.0175559 -2.37994e-06 0)
(0.0175762 -2.65115e-06 0)
(0.0175984 -2.7768e-06 0)
(0.0176215 -2.7845e-06 0)
(0.0176444 -2.66933e-06 0)
(0.0176665 -2.50533e-06 0)
(0.0176872 -2.30147e-06 0)
(0.0177067 -2.09514e-06 0)
(0.0177246 -1.89058e-06 0)
(0.0177412 -1.71357e-06 0)
(0.0177564 -1.55038e-06 0)
(0.0177707 -1.41883e-06 0)
(0.017784 -1.29561e-06 0)
(0.0177965 -1.198e-06 0)
(0.0178082 -1.09572e-06 0)
(0.0178192 -1.01736e-06 0)
(0.0178295 -9.30663e-07 0)
(0.0178393 -8.64978e-07 0)
(0.0178483 -7.87643e-07 0)
(0.0178568 -7.31798e-07 0)
(0.0178647 -6.63252e-07 0)
(0.017872 -6.12888e-07 0)
(0.0178789 -5.53514e-07 0)
(0.017885 -5.08267e-07 0)
(0.0178909 -4.59568e-07 0)
(0.0178959 -4.15279e-07 0)
(0.017901 -3.77122e-07 0)
(0.0179048 -3.30747e-07 0)
(0.0179094 -3.09849e-07 0)
(0.0179118 -2.59001e-07 0)
(0.0179166 -2.80258e-07 0)
(0.190939 0.007748 0)
(0.189213 0.0108386 0)
(0.186756 0.0118931 0)
(0.182914 0.0117262 0)
(0.177437 0.0110888 0)
(0.170544 0.010187 0)
(0.16288 0.00901941 0)
(0.154957 0.00759329 0)
(0.147161 0.00607192 0)
(0.139706 0.00466847 0)
(0.132704 0.00351425 0)
(0.126244 0.00263903 0)
(0.12038 0.00201264 0)
(0.115126 0.00158581 0)
(0.11044 0.00130272 0)
(0.106252 0.00111552 0)
(0.102489 0.000989376 0)
(0.0990859 0.000899188 0)
(0.0959852 0.000826873 0)
(0.0931425 0.000762194 0)
(0.0905242 0.000702234 0)
(0.0881036 0.000647505 0)
(0.0858577 0.000598408 0)
(0.0837664 0.000554456 0)
(0.0818136 0.000514851 0)
(0.0799856 0.000478866 0)
(0.0782711 0.000445913 0)
(0.0766601 0.0004156 0)
(0.0751439 0.000387785 0)
(0.0737144 0.000362476 0)
(0.0723643 0.000339612 0)
(0.0710869 0.000318954 0)
(0.0698764 0.000300096 0)
(0.068728 0.000282636 0)
(0.0676379 0.000266327 0)
(0.0666027 0.000251023 0)
(0.0656194 0.000236582 0)
(0.0646854 0.000222918 0)
(0.0637983 0.000210005 0)
(0.0629557 0.000197787 0)
(0.0621557 0.000186168 0)
(0.0613965 0.000175055 0)
(0.0606765 0.000164388 0)
(0.0599943 0.000154161 0)
(0.0593487 0.000144407 0)
(0.0587383 0.000135153 0)
(0.058162 0.000126356 0)
(0.0576185 0.000117941 0)
(0.0571071 0.000109837 0)
(0.056627 0.000102004 0)
(0.0561778 9.43979e-05 0)
(0.0557587 8.69962e-05 0)
(0.0553696 7.9778e-05 0)
(0.0550098 7.27188e-05 0)
(0.0546793 6.57928e-05 0)
(0.0543776 5.90188e-05 0)
(0.0541044 5.23933e-05 0)
(0.0538593 4.59031e-05 0)
(0.053642 3.95514e-05 0)
(0.0534521 3.33771e-05 0)
(0.0532889 2.73645e-05 0)
(0.0531518 2.15271e-05 0)
(0.0530402 1.59543e-05 0)
(0.0529527 1.07758e-05 0)
(0.0528884 6.03746e-06 0)
(0.0528454 1.7943e-06 0)
(0.0528219 -2.30194e-06 0)
(0.0528154 -6.13361e-06 0)
(0.0528232 -9.089e-06 0)
(0.0528421 -1.0989e-05 0)
(0.0528694 -1.22237e-05 0)
(0.0529021 -1.27791e-05 0)
(0.0529381 -1.2787e-05 0)
(0.0529749 -1.23084e-05 0)
(0.0530115 -1.16399e-05 0)
(0.0530467 -1.08204e-05 0)
(0.0530804 -9.99047e-06 0)
(0.053112 -9.17239e-06 0)
(0.0531421 -8.45791e-06 0)
(0.0531704 -7.80023e-06 0)
(0.0531976 -7.25982e-06 0)
(0.0532234 -6.7507e-06 0)
(0.0532484 -6.33422e-06 0)
(0.0532722 -5.89758e-06 0)
(0.0532954 -5.54074e-06 0)
(0.0533173 -5.14622e-06 0)
(0.0533385 -4.82547e-06 0)
(0.0533585 -4.45294e-06 0)
(0.0533776 -4.16011e-06 0)
(0.0533957 -3.80868e-06 0)
(0.0534125 -3.53415e-06 0)
(0.0534286 -3.20782e-06 0)
(0.053443 -2.95643e-06 0)
(0.0534573 -2.66215e-06 0)
(0.053469 -2.42842e-06 0)
(0.0534817 -2.16437e-06 0)
(0.0534904 -1.95428e-06 0)
(0.0535023 -1.72945e-06 0)
(0.0535073 -1.58197e-06 0)
(0.0535199 -1.45486e-06 0)
(0.19203 0.00745344 0)
(0.192466 0.0100877 0)
(0.193547 0.0116602 0)
(0.194617 0.0121612 0)
(0.195034 0.0120533 0)
(0.194493 0.0116019 0)
(0.193016 0.0108474 0)
(0.190745 0.00981832 0)
(0.187855 0.00862821 0)
(0.184504 0.00744392 0)
(0.180827 0.00639601 0)
(0.176959 0.00553574 0)
(0.173019 0.00484907 0)
(0.169102 0.0043006 0)
(0.165255 0.00385303 0)
(0.161504 0.00347913 0)
(0.157867 0.00316273 0)
(0.154358 0.00289249 0)
(0.150983 0.00265691 0)
(0.147738 0.0024461 0)
(0.144616 0.00225495 0)
(0.14161 0.00208181 0)
(0.138718 0.00192538 0)
(0.135938 0.00178387 0)
(0.133271 0.00165565 0)
(0.130718 0.00153951 0)
(0.128277 0.00143419 0)
(0.125947 0.00133834 0)
(0.123722 0.00125081 0)
(0.121598 0.0011709 0)
(0.119569 0.00109805 0)
(0.117629 0.00103153 0)
(0.115773 0.000970418 0)
(0.113998 0.000913799 0)
(0.112299 0.000860991 0)
(0.110675 0.000811528 0)
(0.109121 0.000765026 0)
(0.107637 0.000721224 0)
(0.106218 0.000679955 0)
(0.104864 0.000641001 0)
(0.10357 0.000604059 0)
(0.102336 0.00056884 0)
(0.10116 0.000535136 0)
(0.100038 0.000502869 0)
(0.0989711 0.000472039 0)
(0.0979561 0.000442638 0)
(0.0969921 0.00041454 0)
(0.0960777 0.000387558 0)
(0.0952121 0.000361525 0)
(0.0943945 0.000336336 0)
(0.0936244 0.000311886 0)
(0.0929011 0.000288112 0)
(0.0922243 0.000264958 0)
(0.0915933 0.00024237 0)
(0.0910077 0.000220294 0)
(0.0904672 0.000198764 0)
(0.0899712 0.00017778 0)
(0.0895192 0.000157331 0)
(0.0891106 0.000137451 0)
(0.0887447 0.00011825 0)
(0.0884207 9.97402e-05 0)
(0.0881374 8.19438e-05 0)
(0.0878938 6.49514e-05 0)
(0.087688 4.89793e-05 0)
(0.0875185 3.41598e-05 0)
(0.0873826 2.07355e-05 0)
(0.0872776 8.98644e-06 0)
(0.0872002 -1.36178e-06 0)
(0.0871472 -9.51669e-06 0)
(0.087114 -1.61821e-05 0)
(0.0870972 -2.06561e-05 0)
(0.0870924 -2.32183e-05 0)
(0.087097 -2.43166e-05 0)
(0.0871073 -2.4097e-05 0)
(0.0871218 -2.32673e-05 0)
(0.0871382 -2.20285e-05 0)
(0.0871563 -2.06952e-05 0)
(0.0871746 -1.93396e-05 0)
(0.0871939 -1.81571e-05 0)
(0.087213 -1.70624e-05 0)
(0.087233 -1.61788e-05 0)
(0.0872529 -1.53257e-05 0)
(0.0872737 -1.46299e-05 0)
(0.0872946 -1.38696e-05 0)
(0.0873161 -1.32489e-05 0)
(0.0873375 -1.25112e-05 0)
(0.0873592 -1.19015e-05 0)
(0.0873807 -1.11434e-05 0)
(0.0874019 -1.05413e-05 0)
(0.0874229 -9.76862e-06 0)
(0.0874428 -9.16929e-06 0)
(0.087463 -8.39433e-06 0)
(0.0874808 -7.82313e-06 0)
(0.0875 -7.06283e-06 0)
(0.0875149 -6.5347e-06 0)
(0.0875331 -5.78215e-06 0)
(0.0875442 -5.34664e-06 0)
(0.0875622 -4.60537e-06 0)
(0.0875683 -4.36939e-06 0)
(0.0875875 -3.7994e-06 0)
(0.193061 0.00702506 0)
(0.193446 0.00893797 0)
(0.194529 0.0104373 0)
(0.196105 0.0111802 0)
(0.19769 0.0113219 0)
(0.198923 0.0110944 0)
(0.199652 0.0106051 0)
(0.199866 0.00989899 0)
(0.199596 0.00904516 0)
(0.198888 0.008155 0)
(0.1978 0.00733429 0)
(0.196412 0.00664011 0)
(0.194809 0.00607742 0)
(0.19306 0.00561919 0)
(0.191203 0.00523329 0)
(0.189258 0.00489576 0)
(0.187246 0.00459338 0)
(0.185187 0.00431877 0)
(0.183101 0.00406618 0)
(0.181001 0.00383213 0)
(0.178892 0.00361622 0)
(0.176779 0.00341845 0)
(0.174659 0.00323642 0)
(0.172531 0.00306587 0)
(0.170398 0.00290315 0)
(0.168266 0.00274671 0)
(0.166147 0.00259681 0)
(0.164055 0.00245442 0)
(0.161999 0.00232058 0)
(0.159986 0.00219591 0)
(0.158018 0.0020803 0)
(0.156093 0.0019728 0)
(0.15421 0.00187197 0)
(0.152367 0.00177653 0)
(0.150567 0.00168572 0)
(0.14881 0.00159906 0)
(0.147099 0.0015162 0)
(0.145437 0.00143695 0)
(0.143824 0.00136129 0)
(0.142262 0.00128915 0)
(0.140751 0.00122031 0)
(0.139291 0.00115445 0)
(0.137884 0.00109122 0)
(0.136528 0.00103045 0)
(0.135223 0.000972057 0)
(0.133969 0.000915981 0)
(0.132764 0.000861997 0)
(0.131608 0.000809796 0)
(0.130503 0.000759125 0)
(0.129446 0.000709845 0)
(0.12844 0.000661821 0)
(0.127485 0.000614977 0)
(0.12658 0.00056925 0)
(0.125726 0.00052457 0)
(0.124923 0.000480859 0)
(0.124172 0.000438165 0)
(0.123471 0.000396512 0)
(0.122822 0.000355889 0)
(0.122222 0.000316349 0)
(0.121672 0.000278075 0)
(0.121172 0.000241126 0)
(0.120719 0.000205571 0)
(0.120314 0.000171601 0)
(0.119954 0.000139614 0)
(0.119638 0.000109828 0)
(0.119363 8.24453e-05 0)
(0.119128 5.78986e-05 0)
(0.118928 3.70221e-05 0)
(0.118761 1.96664e-05 0)
(0.118622 5.12859e-06 0)
(0.118508 -5.76995e-06 0)
(0.118415 -1.32081e-05 0)
(0.11834 -1.79596e-05 0)
(0.118279 -2.09316e-05 0)
(0.11823 -2.22405e-05 0)
(0.118189 -2.24129e-05 0)
(0.118156 -2.20891e-05 0)
(0.118128 -2.14574e-05 0)
(0.118106 -2.09016e-05 0)
(0.118088 -2.03297e-05 0)
(0.118075 -1.99935e-05 0)
(0.118065 -1.96257e-05 0)
(0.118059 -1.94258e-05 0)
(0.118056 -1.90033e-05 0)
(0.118056 -1.87561e-05 0)
(0.118059 -1.82383e-05 0)
(0.118065 -1.78839e-05 0)
(0.118073 -1.71758e-05 0)
(0.118083 -1.66918e-05 0)
(0.118095 -1.58025e-05 0)
(0.118107 -1.5205e-05 0)
(0.118123 -1.4163e-05 0)
(0.118136 -1.35151e-05 0)
(0.118153 -1.23487e-05 0)
(0.118165 -1.1705e-05 0)
(0.118185 -1.04115e-05 0)
(0.118194 -9.87506e-06 0)
(0.118216 -8.49603e-06 0)
(0.118221 -8.19721e-06 0)
(0.118244 -7.04993e-06 0)
(0.193919 0.00672516 0)
(0.19427 0.0081851 0)
(0.195122 0.00948088 0)
(0.196442 0.0102783 0)
(0.197954 0.0105412 0)
(0.199359 0.0104197 0)
(0.200491 0.01005 0)
(0.201306 0.00950654 0)
(0.201819 0.00884528 0)
(0.202045 0.00814014 0)
(0.202005 0.00746999 0)
(0.201743 0.00688865 0)
(0.201316 0.00641336 0)
(0.200773 0.00603029 0)
(0.200137 0.00571264 0)
(0.199418 0.0054363 0)
(0.198623 0.00518613 0)
(0.197762 0.00495348 0)
(0.196843 0.00473316 0)
(0.195878 0.00452391 0)
(0.194874 0.00432836 0)
(0.193836 0.00414952 0)
(0.192763 0.0039874 0)
(0.191647 0.00383845 0)
(0.190481 0.00369725 0)
(0.189261 0.00355873 0)
(0.187991 0.00341971 0)
(0.186682 0.00327958 0)
(0.185346 0.00314038 0)
(0.183999 0.00300562 0)
(0.18265 0.00287843 0)
(0.181302 0.00275991 0)
(0.179954 0.00264887 0)
(0.178601 0.00254302 0)
(0.177243 0.00244041 0)
(0.175881 0.00233995 0)
(0.174521 0.00224133 0)
(0.173167 0.00214478 0)
(0.171824 0.00205057 0)
(0.170493 0.00195864 0)
(0.169178 0.00186882 0)
(0.167883 0.00178104 0)
(0.166611 0.00169544 0)
(0.165367 0.00161235 0)
(0.164153 0.00153201 0)
(0.162968 0.00145438 0)
(0.161813 0.00137907 0)
(0.160688 0.00130553 0)
(0.159593 0.00123333 0)
(0.15853 0.00116226 0)
(0.157501 0.00109219 0)
(0.156508 0.00102308 0)
(0.155552 0.000954953 0)
(0.154635 0.000887843 0)
(0.15376 0.00082176 0)
(0.152927 0.00075685 0)
(0.152138 0.000693222 0)
(0.151392 0.000630933 0)
(0.150691 0.000570073 0)
(0.150035 0.000510886 0)
(0.149423 0.000453494 0)
(0.148855 0.000398045 0)
(0.14833 0.00034481 0)
(0.147848 0.000294286 0)
(0.147409 0.000246791 0)
(0.147009 0.000202755 0)
(0.146649 0.000162654 0)
(0.146325 0.000127102 0)
(0.146035 9.62519e-05 0)
(0.145778 7.07075e-05 0)
(0.14555 5.00032e-05 0)
(0.145348 3.40516e-05 0)
(0.14517 2.20683e-05 0)
(0.145012 1.30107e-05 0)
(0.144873 6.57604e-06 0)
(0.144749 2.1772e-06 0)
(0.14464 -1.0606e-06 0)
(0.144542 -3.40621e-06 0)
(0.144456 -5.45441e-06 0)
(0.144378 -7.12296e-06 0)
(0.14431 -8.8351e-06 0)
(0.144249 -1.02496e-05 0)
(0.144195 -1.18545e-05 0)
(0.144148 -1.31809e-05 0)
(0.144108 -1.45892e-05 0)
(0.144074 -1.54411e-05 0)
(0.144045 -1.64862e-05 0)
(0.144023 -1.68643e-05 0)
(0.144005 -1.75324e-05 0)
(0.143993 -1.73959e-05 0)
(0.143983 -1.76786e-05 0)
(0.143981 -1.70563e-05 0)
(0.143977 -1.70708e-05 0)
(0.143982 -1.60154e-05 0)
(0.143983 -1.58432e-05 0)
(0.143995 -1.43786e-05 0)
(0.143996 -1.41503e-05 0)
(0.144013 -1.24206e-05 0)
(0.144015 -1.22461e-05 0)
(0.144035 -1.07122e-05 0)
(0.194634 0.0064883 0)
(0.194971 0.00766952 0)
(0.195674 0.00876348 0)
(0.196743 0.00953396 0)
(0.198023 0.00986972 0)
(0.199292 0.00983296 0)
(0.20039 0.00954699 0)
(0.201258 0.00910528 0)
(0.201901 0.00856519 0)
(0.202339 0.00797929 0)
(0.202586 0.00740647 0)
(0.202675 0.00689532 0)
(0.202648 0.0064689 0)
(0.202546 0.00612393 0)
(0.20239 0.0058413 0)
(0.202191 0.00559951 0)
(0.20195 0.00538241 0)
(0.201672 0.00517931 0)
(0.201357 0.00498356 0)
(0.201009 0.00479354 0)
(0.200636 0.00461299 0)
(0.200242 0.00444762 0)
(0.199828 0.00430095 0)
(0.199389 0.00417218 0)
(0.198916 0.00405635 0)
(0.198397 0.00394622 0)
(0.197827 0.00383479 0)
(0.197206 0.00371763 0)
(0.196542 0.00359434 0)
(0.195848 0.00346846 0)
(0.195135 0.00334549 0)
(0.194411 0.00323009 0)
(0.193676 0.0031238 0)
(0.192926 0.00302495 0)
(0.192153 0.00293029 0)
(0.191356 0.00283663 0)
(0.190536 0.00274223 0)
(0.189698 0.0026474 0)
(0.188845 0.00255341 0)
(0.187982 0.00246082 0)
(0.187106 0.00236895 0)
(0.18622 0.00227664 0)
(0.185329 0.00218358 0)
(0.18444 0.00209084 0)
(0.183558 0.002 0)
(0.182686 0.00191198 0)
(0.181823 0.00182656 0)
(0.180969 0.00174289 0)
(0.180123 0.00166014 0)
(0.179287 0.00157788 0)
(0.178462 0.00149579 0)
(0.177649 0.00141371 0)
(0.176851 0.0013316 0)
(0.176071 0.00124952 0)
(0.175312 0.00116762 0)
(0.174576 0.00108626 0)
(0.173865 0.00100577 0)
(0.173182 0.000926409 0)
(0.172528 0.000848425 0)
(0.171902 0.000772161 0)
(0.171308 0.000697812 0)
(0.170743 0.000625606 0)
(0.170209 0.000555848 0)
(0.169705 0.000489113 0)
(0.169232 0.000425815 0)
(0.168788 0.00036644 0)
(0.168375 0.00031152 0)
(0.167991 0.000261957 0)
(0.167636 0.000218098 0)
(0.167307 0.00018028 0)
(0.167005 0.000148092 0)
(0.166727 0.000121433 0)
(0.166472 9.96647e-05 0)
(0.166239 8.25369e-05 0)
(0.166026 6.87618e-05 0)
(0.165831 5.78121e-05 0)
(0.165654 4.87218e-05 0)
(0.165491 4.12372e-05 0)
(0.165344 3.45672e-05 0)
(0.165207 2.88315e-05 0)
(0.165083 2.33888e-05 0)
(0.164969 1.86788e-05 0)
(0.164865 1.39164e-05 0)
(0.164768 9.72246e-06 0)
(0.164681 5.45901e-06 0)
(0.164601 2.05314e-06 0)
(0.16453 -1.5862e-06 0)
(0.164467 -4.20295e-06 0)
(0.164411 -7.23821e-06 0)
(0.164364 -9.01596e-06 0)
(0.164321 -1.14703e-05 0)
(0.164289 -1.23806e-05 0)
(0.164259 -1.418e-05 0)
(0.164241 -1.42256e-05 0)
(0.16422 -1.54485e-05 0)
(0.164214 -1.47025e-05 0)
(0.164201 -1.54179e-05 0)
(0.164203 -1.4205e-05 0)
(0.164197 -1.44879e-05 0)
(0.164204 -1.33865e-05 0)
(0.195251 0.00627938 0)
(0.195571 0.00726271 0)
(0.19617 0.00818031 0)
(0.197049 0.00887644 0)
(0.198115 0.00924088 0)
(0.199217 0.00927694 0)
(0.200215 0.00907169 0)
(0.201035 0.00871664 0)
(0.201669 0.00827114 0)
(0.202131 0.0077787 0)
(0.202438 0.00728546 0)
(0.202615 0.00683253 0)
(0.2027 0.00644332 0)
(0.202726 0.00612173 0)
(0.202716 0.00585741 0)
(0.202682 0.00563344 0)
(0.202631 0.00543379 0)
(0.202563 0.00524651 0)
(0.202478 0.00506382 0)
(0.202375 0.00488342 0)
(0.202258 0.00470916 0)
(0.202132 0.00454801 0)
(0.202 0.00440576 0)
(0.201862 0.00428428 0)
(0.201712 0.00418066 0)
(0.201541 0.00408789 0)
(0.201342 0.00399708 0)
(0.201109 0.00390056 0)
(0.200844 0.00379452 0)
(0.200551 0.00368031 0)
(0.200241 0.00356365 0)
(0.199922 0.00345178 0)
(0.199598 0.00334965 0)
(0.199265 0.00325781 0)
(0.198918 0.00317323 0)
(0.198551 0.00309115 0)
(0.19816 0.0030076 0)
(0.197747 0.00292144 0)
(0.197318 0.00283436 0)
(0.196873 0.00274857 0)
(0.196412 0.00266416 0)
(0.195932 0.00257873 0)
(0.195432 0.00248979 0)
(0.194919 0.00239752 0)
(0.194402 0.00230459 0)
(0.193884 0.00221379 0)
(0.193366 0.00212606 0)
(0.192846 0.00204059 0)
(0.192323 0.00195614 0)
(0.191798 0.00187194 0)
(0.191269 0.0017875 0)
(0.190739 0.00170247 0)
(0.190206 0.0016165 0)
(0.189674 0.00152942 0)
(0.189144 0.00144124 0)
(0.188619 0.00135239 0)
(0.188102 0.00126338 0)
(0.187595 0.00117475 0)
(0.1871 0.00108701 0)
(0.186618 0.0010007 0)
(0.186151 0.000916135 0)
(0.185697 0.000833661 0)
(0.18526 0.000753624 0)
(0.184837 0.000676583 0)
(0.18443 0.000602896 0)
(0.184039 0.000533151 0)
(0.183666 0.000468025 0)
(0.183309 0.000408444 0)
(0.182971 0.000354684 0)
(0.18265 0.000307104 0)
(0.182347 0.000265522 0)
(0.18206 0.000230056 0)
(0.181792 0.00020003 0)
(0.181539 0.000174933 0)
(0.181304 0.000153533 0)
(0.181083 0.00013546 0)
(0.180879 0.000119741 0)
(0.180688 0.00010625 0)
(0.180511 9.40958e-05 0)
(0.180346 8.34941e-05 0)
(0.180193 7.35696e-05 0)
(0.180049 6.48404e-05 0)
(0.179914 5.63719e-05 0)
(0.179786 4.90504e-05 0)
(0.179667 4.15614e-05 0)
(0.179554 3.51332e-05 0)
(0.179449 2.82596e-05 0)
(0.179352 2.26904e-05 0)
(0.179262 1.64619e-05 0)
(0.179181 1.191e-05 0)
(0.179108 6.413e-06 0)
(0.179044 2.98568e-06 0)
(0.178986 -1.55173e-06 0)
(0.178939 -3.7904e-06 0)
(0.178896 -7.22642e-06 0)
(0.178864 -8.47145e-06 0)
(0.178835 -1.06665e-05 0)
(0.178813 -1.12696e-05 0)
(0.178798 -1.22496e-05 0)
(0.17878 -1.29057e-05 0)
(0.19579 0.00608372 0)
(0.196092 0.00691136 0)
(0.196609 0.00768103 0)
(0.197341 0.00828944 0)
(0.19823 0.00865105 0)
(0.199176 0.00874309 0)
(0.200066 0.00861356 0)
(0.200824 0.00833678 0)
(0.201426 0.00797095 0)
(0.201878 0.00755749 0)
(0.202196 0.00713509 0)
(0.2024 0.00673729 0)
(0.202521 0.00638499 0)
(0.202589 0.00608602 0)
(0.202623 0.00583676 0)
(0.20264 0.00562478 0)
(0.202647 0.0054354 0)
(0.202647 0.00525703 0)
(0.202637 0.00508219 0)
(0.202616 0.00490822 0)
(0.202584 0.00473817 0)
(0.202546 0.00457885 0)
(0.202504 0.00443683 0)
(0.202462 0.00431571 0)
(0.202419 0.00421474 0)
(0.202372 0.00412833 0)
(0.202317 0.00404741 0)
(0.202246 0.00396277 0)
(0.202158 0.00386838 0)
(0.202052 0.00376312 0)
(0.201934 0.00365132 0)
(0.20181 0.00354094 0)
(0.201684 0.00343935 0)
(0.201558 0.00334959 0)
(0.201428 0.00326991 0)
(0.201289 0.00319536 0)
(0.201137 0.00312039 0)
(0.200971 0.00304181 0)
(0.200792 0.00296051 0)
(0.200605 0.00288014 0)
(0.200408 0.0028028 0)
(0.200196 0.00272606 0)
(0.199966 0.00264514 0)
(0.199721 0.00255781 0)
(0.199466 0.0024665 0)
(0.199209 0.00237569 0)
(0.198949 0.0022881 0)
(0.198687 0.00220357 0)
(0.198421 0.00212059 0)
(0.198149 0.00203805 0)
(0.197873 0.00195541 0)
(0.197589 0.00187228 0)
(0.1973 0.00178809 0)
(0.197003 0.00170229 0)
(0.1967 0.00161457 0)
(0.196392 0.00152512 0)
(0.196082 0.00143443 0)
(0.19577 0.00134321 0)
(0.19546 0.00125221 0)
(0.195151 0.00116219 0)
(0.194845 0.00107363 0)
(0.194543 0.000987046 0)
(0.194245 0.000902813 0)
(0.19395 0.000821438 0)
(0.193659 0.000743219 0)
(0.193373 0.000668738 0)
(0.193094 0.000598566 0)
(0.192821 0.00053357 0)
(0.192556 0.00047415 0)
(0.192299 0.00042087 0)
(0.192052 0.000373668 0)
(0.191814 0.000332612 0)
(0.191587 0.00029692 0)
(0.191368 0.000266119 0)
(0.19116 0.000239043 0)
(0.190962 0.000215358 0)
(0.190776 0.000194133 0)
(0.190599 0.000175434 0)
(0.190434 0.000158419 0)
(0.190278 0.000143465 0)
(0.190131 0.000129653 0)
(0.189991 0.000117645 0)
(0.189858 0.000106245 0)
(0.189729 9.63559e-05 0)
(0.189606 8.63039e-05 0)
(0.189484 7.74775e-05 0)
(0.189369 6.78631e-05 0)
(0.189257 5.96195e-05 0)
(0.189153 5.03559e-05 0)
(0.189053 4.29525e-05 0)
(0.188961 3.44159e-05 0)
(0.188876 2.80428e-05 0)
(0.1888 2.05366e-05 0)
(0.188729 1.52377e-05 0)
(0.188671 9.31594e-06 0)
(0.188614 5.00388e-06 0)
(0.188574 1.19099e-06 0)
(0.188526 -2.43066e-06 0)
(0.188506 -4.13276e-06 0)
(0.188461 -7.73685e-06 0)
(0.196263 0.00589569 0)
(0.196545 0.00659608 0)
(0.196996 0.00724511 0)
(0.197614 0.00777186 0)
(0.198361 0.00811435 0)
(0.199168 0.00824323 0)
(0.199953 0.00817722 0)
(0.200643 0.00796959 0)
(0.201207 0.00767407 0)
(0.201643 0.00733062 0)
(0.201961 0.00697221 0)
(0.202179 0.00662657 0)
(0.202319 0.00631198 0)
(0.202409 0.00603727 0)
(0.202467 0.00580274 0)
(0.202505 0.00560028 0)
(0.202535 0.00541804 0)
(0.202559 0.00524613 0)
(0.202577 0.00507802 0)
(0.202585 0.00491069 0)
(0.202583 0.00474596 0)
(0.202571 0.00458981 0)
(0.202553 0.00444875 0)
(0.202534 0.00432697 0)
(0.202516 0.00422499 0)
(0.202501 0.00413876 0)
(0.202487 0.00406017 0)
(0.20247 0.00398008 0)
(0.202446 0.00389173 0)
(0.202413 0.00379242 0)
(0.202371 0.00368461 0)
(0.202323 0.0035755 0)
(0.202273 0.00347336 0)
(0.202224 0.00338288 0)
(0.202177 0.00330362 0)
(0.202129 0.00323139 0)
(0.202078 0.00316046 0)
(0.202021 0.00308621 0)
(0.201957 0.00300808 0)
(0.201889 0.00293003 0)
(0.201818 0.00285606 0)
(0.20174 0.00278499 0)
(0.201652 0.00271081 0)
(0.201552 0.00262881 0)
(0.201443 0.00254007 0)
(0.201331 0.00244983 0)
(0.201217 0.00236242 0)
(0.201102 0.00227862 0)
(0.200985 0.0021969 0)
(0.200865 0.00211587 0)
(0.200742 0.00203503 0)
(0.200615 0.00195416 0)
(0.200483 0.00187269 0)
(0.200344 0.00178982 0)
(0.2002 0.0017049 0)
(0.200048 0.00161781 0)
(0.19989 0.00152881 0)
(0.199728 0.0014386 0)
(0.199561 0.00134805 0)
(0.199391 0.00125809 0)
(0.199219 0.00116937 0)
(0.199045 0.00108251 0)
(0.198868 0.00099797 0)
(0.198689 0.000916247 0)
(0.198508 0.000837538 0)
(0.198324 0.000762211 0)
(0.198141 0.000690667 0)
(0.197958 0.000623802 0)
(0.197777 0.000562184 0)
(0.197598 0.000506438 0)
(0.197424 0.000456503 0)
(0.197253 0.000412485 0)
(0.197087 0.000373745 0)
(0.196925 0.000339828 0)
(0.196768 0.00030949 0)
(0.196616 0.000282296 0)
(0.196472 0.000257337 0)
(0.196333 0.00023486 0)
(0.196204 0.000214224 0)
(0.196079 0.000196007 0)
(0.195963 0.000179359 0)
(0.19585 0.000165028 0)
(0.195742 0.000151767 0)
(0.195634 0.000140511 0)
(0.19553 0.000129332 0)
(0.195423 0.000119502 0)
(0.19532 0.000108652 0)
(0.195213 9.89837e-05 0)
(0.195113 8.78985e-05 0)
(0.195012 7.83623e-05 0)
(0.19492 6.75254e-05 0)
(0.194826 5.83991e-05 0)
(0.194747 4.84692e-05 0)
(0.194663 3.98395e-05 0)
(0.1946 3.17681e-05 0)
(0.194527 2.38638e-05 0)
(0.194484 1.86225e-05 0)
(0.194417 1.13472e-05 0)
(0.194395 9.01356e-06 0)
(0.19433 1.91971e-06 0)
(0.196682 0.00571428 0)
(0.196944 0.00631043 0)
(0.197339 0.00686236 0)
(0.197867 0.00731877 0)
(0.198499 0.00763453 0)
(0.199187 0.00778266 0)
(0.199871 0.00776598 0)
(0.200493 0.00761932 0)
(0.201016 0.00738767 0)
(0.201432 0.00710683 0)
(0.201747 0.00680511 0)
(0.201972 0.00650692 0)
(0.202127 0.00622877 0)
(0.202234 0.00597881 0)
(0.202308 0.00575929 0)
(0.202362 0.0055662 0)
(0.202405 0.00539097 0)
(0.202444 0.00522545 0)
(0.202475 0.00506404 0)
(0.202497 0.00490381 0)
(0.202507 0.00474575 0)
(0.202506 0.00459475 0)
(0.202497 0.00445664 0)
(0.202484 0.00433533 0)
(0.20247 0.00423185 0)
(0.20246 0.00414339 0)
(0.202455 0.00406329 0)
(0.202453 0.00398344 0)
(0.20245 0.0038974 0)
(0.202442 0.0038019 0)
(0.202428 0.00369793 0)
(0.202407 0.00359119 0)
(0.202382 0.00348951 0)
(0.202357 0.0033981 0)
(0.202334 0.00331736 0)
(0.202313 0.00324421 0)
(0.202295 0.00317381 0)
(0.202276 0.0031012 0)
(0.202254 0.00302455 0)
(0.20223 0.00294711 0)
(0.202206 0.00287381 0)
(0.202181 0.0028049 0)
(0.202152 0.00273454 0)
(0.202116 0.00265652 0)
(0.202074 0.00257039 0)
(0.202028 0.00248114 0)
(0.20198 0.00239392 0)
(0.201931 0.00231029 0)
(0.201882 0.00222889 0)
(0.201832 0.00214826 0)
(0.201781 0.00206797 0)
(0.20173 0.00198808 0)
(0.201677 0.00190815 0)
(0.20162 0.00182737 0)
(0.20156 0.00174489 0)
(0.201495 0.00166034 0)
(0.201425 0.00157374 0)
(0.201349 0.00148563 0)
(0.20127 0.00139689 0)
(0.201185 0.00130852 0)
(0.201096 0.00122128 0)
(0.201003 0.00113588 0)
(0.200906 0.00105283 0)
(0.200804 0.00097263 0)
(0.200698 0.000895323 0)
(0.200586 0.000821061 0)
(0.200473 0.000750123 0)
(0.200356 0.000683341 0)
(0.200239 0.000621307 0)
(0.200122 0.000564674 0)
(0.200007 0.000513566 0)
(0.199892 0.000468237 0)
(0.19978 0.000428184 0)
(0.199668 0.000392878 0)
(0.19956 0.000360987 0)
(0.199453 0.000331886 0)
(0.199351 0.000304667 0)
(0.199251 0.00027963 0)
(0.199159 0.000256399 0)
(0.199069 0.000235732 0)
(0.198987 0.000217037 0)
(0.198905 0.000201172 0)
(0.198829 0.000187027 0)
(0.198749 0.000175461 0)
(0.198672 0.000164466 0)
(0.198588 0.000154983 0)
(0.198506 0.000144465 0)
(0.198416 0.000134678 0)
(0.198332 0.000123188 0)
(0.198239 0.000112514 0)
(0.198157 0.00010057 0)
(0.198066 8.93473e-05 0)
(0.197994 7.79337e-05 0)
(0.197907 6.63359e-05 0)
(0.197849 5.67463e-05 0)
(0.197768 4.52668e-05 0)
(0.197728 3.8871e-05 0)
(0.197652 2.79468e-05 0)
(0.197632 2.50524e-05 0)
(0.197556 1.45488e-05 0)
(0.197053 0.00553996 0)
(0.197296 0.00605114 0)
(0.197644 0.00652423 0)
(0.198098 0.00692096 0)
(0.198637 0.00720772 0)
(0.199224 0.007363 0)
(0.199818 0.00738328 0)
(0.200372 0.00728875 0)
(0.200853 0.00711299 0)
(0.201247 0.00688644 0)
(0.201554 0.00663439 0)
(0.201782 0.00637904 0)
(0.201947 0.00613532 0)
(0.202068 0.00591029 0)
(0.202156 0.00570702 0)
(0.202223 0.0055245 0)
(0.202277 0.00535703 0)
(0.202324 0.00519805 0)
(0.202364 0.00504319 0)
(0.202394 0.00489029 0)
(0.202412 0.0047399 0)
(0.202419 0.00459564 0)
(0.202416 0.00446207 0)
(0.202407 0.00434255 0)
(0.202396 0.0042383 0)
(0.202387 0.00414735 0)
(0.202384 0.00406434 0)
(0.202386 0.00398268 0)
(0.202389 0.00389696 0)
(0.20239 0.00380395 0)
(0.202387 0.0037037 0)
(0.202376 0.00360035 0)
(0.202359 0.00350048 0)
(0.202341 0.00340896 0)
(0.202323 0.00332661 0)
(0.202309 0.00325135 0)
(0.202299 0.00317961 0)
(0.20229 0.00310701 0)
(0.202281 0.00303103 0)
(0.202271 0.00295386 0)
(0.20226 0.00288016 0)
(0.202251 0.00281117 0)
(0.202243 0.00274206 0)
(0.202232 0.00266647 0)
(0.202216 0.00258281 0)
(0.202196 0.00249517 0)
(0.202173 0.00240864 0)
(0.202148 0.0023251 0)
(0.202124 0.00224352 0)
(0.2021 0.00216258 0)
(0.202076 0.00208196 0)
(0.202054 0.00200192 0)
(0.202031 0.00192226 0)
(0.202009 0.00184226 0)
(0.201985 0.00176109 0)
(0.201958 0.00167827 0)
(0.201928 0.00159362 0)
(0.201893 0.00150753 0)
(0.201856 0.00142075 0)
(0.201813 0.0013343 0)
(0.201767 0.00124899 0)
(0.201716 0.00116557 0)
(0.20166 0.00108459 0)
(0.201599 0.00100646 0)
(0.201534 0.000931171 0)
(0.201463 0.00085869 0)
(0.201389 0.000789106 0)
(0.201311 0.000723039 0)
(0.201233 0.000661136 0)
(0.201153 0.000604195 0)
(0.201075 0.000552602 0)
(0.200996 0.000506685 0)
(0.20092 0.000466068 0)
(0.200842 0.000430143 0)
(0.200767 0.000397562 0)
(0.20069 0.000367435 0)
(0.200618 0.000338821 0)
(0.200547 0.000311929 0)
(0.200482 0.000286702 0)
(0.200418 0.000264039 0)
(0.200362 0.000243776 0)
(0.200304 0.000226803 0)
(0.200253 0.000212321 0)
(0.200195 0.000200996 0)
(0.200141 0.000190973 0)
(0.200077 0.000182638 0)
(0.200016 0.000173528 0)
(0.199942 0.0001646 0)
(0.199875 0.000153925 0)
(0.199793 0.00014302 0)
(0.199725 0.000131026 0)
(0.199641 0.000118367 0)
(0.199578 0.00010628 0)
(0.199495 9.22162e-05 0)
(0.199444 8.16437e-05 0)
(0.199363 6.70172e-05 0)
(0.199328 5.97034e-05 0)
(0.19925 4.55113e-05 0)
(0.199232 4.20737e-05 0)
(0.199155 2.85092e-05 0)
(0.197385 0.0053731 0)
(0.197608 0.00581469 0)
(0.197916 0.00622298 0)
(0.198309 0.00656953 0)
(0.198771 0.00682873 0)
(0.199274 0.00698412 0)
(0.199788 0.00703025 0)
(0.200279 0.00697711 0)
(0.200716 0.00684812 0)
(0.201084 0.00666876 0)
(0.20138 0.00646129 0)
(0.201609 0.00624499 0)
(0.201781 0.00603324 0)
(0.201912 0.00583264 0)
(0.202011 0.00564647 0)
(0.202088 0.00547538 0)
(0.202151 0.00531625 0)
(0.202205 0.0051644 0)
(0.202251 0.00501662 0)
(0.202287 0.00487148 0)
(0.202311 0.00472929 0)
(0.202324 0.00459245 0)
(0.202327 0.0044643 0)
(0.202323 0.00434752 0)
(0.202316 0.00424335 0)
(0.20231 0.00415044 0)
(0.202308 0.00406454 0)
(0.202311 0.00398053 0)
(0.202316 0.0038943 0)
(0.20232 0.00380306 0)
(0.20232 0.0037062 0)
(0.202314 0.00360654 0)
(0.202302 0.00350931 0)
(0.202286 0.00341855 0)
(0.202271 0.0033351 0)
(0.202258 0.00325771 0)
(0.202249 0.00318398 0)
(0.202243 0.00311049 0)
(0.202238 0.00303477 0)
(0.202231 0.00295796 0)
(0.202224 0.00288378 0)
(0.202219 0.00281373 0)
(0.202216 0.00274429 0)
(0.202213 0.00266991 0)
(0.202207 0.0025885 0)
(0.202196 0.00250301 0)
(0.202181 0.00241773 0)
(0.202165 0.00233454 0)
(0.202149 0.00225277 0)
(0.202132 0.00217134 0)
(0.202117 0.00209012 0)
(0.202103 0.00200946 0)
(0.20209 0.00192935 0)
(0.202078 0.00184927 0)
(0.202065 0.00176855 0)
(0.202052 0.00168665 0)
(0.202037 0.00160335 0)
(0.202018 0.00151886 0)
(0.201997 0.00143382 0)
(0.201972 0.00134918 0)
(0.201943 0.0012658 0)
(0.20191 0.00118441 0)
(0.201873 0.00110554 0)
(0.201831 0.00102955 0)
(0.201785 0.000956392 0)
(0.201733 0.000885791 0)
(0.201679 0.000817619 0)
(0.201621 0.000752327 0)
(0.201562 0.000690699 0)
(0.201502 0.000633629 0)
(0.201443 0.000581731 0)
(0.201384 0.000535388 0)
(0.201326 0.000494421 0)
(0.201267 0.000458138 0)
(0.20121 0.000425207 0)
(0.201151 0.000394413 0)
(0.201097 0.000364803 0)
(0.201041 0.00033641 0)
(0.200993 0.000309515 0)
(0.200944 0.000285065 0)
(0.200903 0.000263417 0)
(0.200859 0.000245441 0)
(0.200823 0.000230827 0)