/*--------------------------------*- C++ -*----------------------------------*\
| =========                 |                                                 |
| \\      /  F ield         | OpenFOAM: The Open Source CFD Toolbox           |
|  \\    /   O peration     | Version:  2.3.0                                 |
|   \\  /    A nd           | Web:      www.OpenFOAM.org                      |
|    \\/     M anipulation  |                                                 |
\*---------------------------------------------------------------------------*/
FoamFile
{
    version     2.0;
    format      ascii;
    class       surfaceScalarField;
    location    "0.9";
    object      phi_0;
}
// * * * * * * * * * * * * * * * * * * * * * * * * * * * * * * * * * * * * * //

dimensions      [0 3 -1 0 0 0 0];

internalField   nonuniform List<scalar> 
3203
(
3.95878e-08
3.60931e-09
-4.31971e-08
3.50009e-08
4.58693e-09
3.04302e-08
4.57068e-09
2.61245e-08
4.30573e-09
2.21115e-08
4.01294e-09
1.85135e-08
3.59797e-09
1.55036e-08
3.00999e-09
1.31615e-08
2.34204e-09
1.14716e-08
1.68987e-09
1.03118e-08
1.15982e-09
9.52404e-09
7.87778e-10
8.97606e-09
5.47981e-10
8.57489e-09
4.01162e-10
8.25746e-09
3.17438e-10
7.98278e-09
2.74677e-10
7.72888e-09
2.53903e-10
7.48684e-09
2.42036e-10
7.25452e-09
2.32319e-10
7.03264e-09
2.21883e-10
6.82255e-09
2.10093e-10
6.62517e-09
1.9737e-10
6.44084e-09
1.84339e-10
6.26912e-09
1.71715e-10
6.10931e-09
1.59815e-10
5.9604e-09
1.48907e-10
5.82127e-09
1.3913e-10
5.69098e-09
1.30283e-10
5.56848e-09
1.22503e-10
5.45305e-09
1.15432e-10
5.34388e-09
1.09171e-10
5.24043e-09
1.03449e-10
5.14212e-09
9.83105e-11
5.04858e-09
9.35431e-11
4.95929e-09
8.92832e-11
4.8741e-09
8.51888e-11
4.7925e-09
8.16004e-11
4.71442e-09
7.80792e-11
4.63947e-09
7.49596e-11
4.56752e-09
7.19469e-11
4.49829e-09
6.92327e-11
4.43172e-09
6.6567e-11
4.36742e-09
6.43025e-11
4.30558e-09
6.18362e-11
4.24556e-09
6.00167e-11
4.18786e-09
5.77058e-11
4.13161e-09
5.62498e-11
4.07748e-09
5.41282e-11
4.02454e-09
5.29364e-11
3.97351e-09
5.10345e-11
3.92343e-09
5.0079e-11
3.87513e-09
4.82988e-11
3.82735e-09
4.77764e-11
3.78148e-09
4.58756e-11
3.73552e-09
4.59558e-11
3.69158e-09
4.3948e-11
3.64698e-09
4.45924e-11
3.60446e-09
4.2526e-11
3.56047e-09
4.39883e-11
3.51891e-09
4.15593e-11
4.84552e-11
4.672e-08
3.26591e-09
-4.63766e-08
4.64277e-08
4.87923e-09
4.54699e-08
5.52849e-09
4.416e-08
5.61562e-09
4.26152e-08
5.55775e-09
4.0852e-08
5.36119e-09
3.89112e-08
4.95075e-09
3.69047e-08
4.34858e-09
3.49483e-08
3.64629e-09
3.31272e-08
2.98089e-09
3.147e-08
2.44498e-09
2.9968e-08
2.05001e-09
2.86109e-08
1.75821e-09
2.73907e-08
1.53761e-09
2.62912e-08
1.37416e-09
2.52966e-08
1.24852e-09
2.43925e-08
1.14614e-09
2.35666e-08
1.05822e-09
2.28086e-08
9.79956e-10
2.21101e-08
9.08582e-10
2.14642e-08
8.43277e-10
2.08653e-08
7.83193e-10
2.03084e-08
7.28658e-10
1.97893e-08
6.7892e-10
1.93039e-08
6.34227e-10
1.88492e-08
5.93887e-10
1.84218e-08
5.57694e-10
1.80192e-08
5.25059e-10
1.76389e-08
4.95696e-10
1.72792e-08
4.6893e-10
1.69378e-08
4.44825e-10
1.66136e-08
4.22495e-10
1.63048e-08
4.0233e-10
1.60107e-08
3.8347e-10
1.57296e-08
3.66288e-10
1.5461e-08
3.50131e-10
1.52037e-08
3.35443e-10
1.49573e-08
3.21312e-10
1.47205e-08
3.08782e-10
1.44934e-08
2.96323e-10
1.42745e-08
2.8548e-10
1.40642e-08
2.74607e-10
1.3861e-08
2.65023e-10
1.36654e-08
2.55593e-10
1.3476e-08
2.47079e-10
1.32935e-08
2.38815e-10
1.31162e-08
2.31376e-10
1.29452e-08
2.23959e-10
1.27786e-08
2.1764e-10
1.26178e-08
2.10908e-10
1.24605e-08
2.05519e-10
1.23085e-08
1.99769e-10
1.21596e-08
1.94863e-10
1.20151e-08
1.90374e-10
1.1873e-08
1.86039e-10
1.1735e-08
1.8269e-10
1.15983e-08
1.79163e-10
1.14647e-08
1.77567e-10
1.13317e-08
1.74578e-10
1.82892e-10
4.92816e-08
3.07689e-09
-4.90926e-08
4.9754e-08
4.40691e-09
4.99572e-08
5.32525e-09
4.99538e-08
5.61905e-09
4.98288e-08
5.68274e-09
4.95603e-08
5.62966e-09
4.90894e-08
5.42172e-09
4.84148e-08
5.02314e-09
4.75792e-08
4.48191e-09
4.66489e-08
3.91113e-09
4.56781e-08
3.41578e-09
4.46948e-08
3.03333e-09
4.37088e-08
2.74427e-09
4.27271e-08
2.51929e-09
4.17589e-08
2.34232e-09
4.08097e-08
2.19772e-09
3.98821e-08
2.07374e-09
3.89783e-08
1.962e-09
3.80996e-08
1.85872e-09
3.72475e-08
1.76064e-09
3.64229e-08
1.66794e-09
3.56269e-08
1.57911e-09
3.48598e-08
1.49579e-09
3.41223e-08
1.41641e-09
3.34137e-08
1.34288e-09
3.27341e-08
1.27343e-09
3.20822e-08
1.20959e-09
3.14579e-08
1.14941e-09
3.08591e-08
1.09446e-09
3.02858e-08
1.04225e-09
2.97356e-08
9.95003e-10
2.92086e-08
9.49515e-10
2.87022e-08
9.08718e-10
2.82167e-08
8.68958e-10
2.77495e-08
8.33544e-10
2.73011e-08
7.98531e-10
2.68686e-08
7.67888e-10
2.64533e-08
7.36638e-10
2.60518e-08
7.1027e-10
2.5666e-08
6.82174e-10
2.52921e-08
6.59358e-10
2.49325e-08
6.34166e-10
2.45833e-08
6.14233e-10
2.42473e-08
5.91603e-10
2.39201e-08
5.74239e-10
2.36053e-08
5.53635e-10
2.32979e-08
5.38838e-10
2.30022e-08
5.19656e-10
2.27123e-08
5.07485e-10
2.24338e-08
4.89404e-10
2.21598e-08
4.79579e-10
2.18966e-08
4.62892e-10
2.16366e-08
4.54911e-10
2.13871e-08
4.39845e-10
2.11392e-08
4.33915e-10
2.09015e-08
4.20389e-10
2.06639e-08
4.16759e-10
2.04354e-08
4.06127e-10
2.02055e-08
4.04461e-10
4.05954e-10
5.19721e-08
3.01391e-09
-5.19091e-08
5.2356e-08
4.02295e-09
5.27539e-08
4.92738e-09
5.30293e-08
5.34363e-09
5.32561e-08
5.45594e-09
5.34504e-08
5.43538e-09
5.35621e-08
5.31002e-09
5.3545e-08
5.04024e-09
5.33864e-08
4.64046e-09
5.31122e-08
4.18541e-09
5.27614e-08
3.76654e-09
5.23634e-08
3.43133e-09
5.19277e-08
3.17992e-09
5.1459e-08
2.98805e-09
5.09635e-08
2.83776e-09
5.04474e-08
2.71389e-09
4.9913e-08
2.60809e-09
4.93633e-08
2.51168e-09
4.87995e-08
2.42258e-09
4.82243e-08
2.33586e-09
4.76389e-08
2.25326e-09
4.70468e-08
2.17125e-09
4.64491e-08
2.09349e-09
4.58494e-08
2.01612e-09
4.52484e-08
1.94383e-09
4.46497e-08
1.87214e-09
4.40534e-08
1.80591e-09
4.34628e-08
1.74005e-09
4.28773e-08
1.67991e-09
4.23002e-08
1.61939e-09
4.17302e-08
1.56502e-09
4.11704e-08
1.5093e-09
4.0619e-08
1.46013e-09
4.00791e-08
1.40877e-09
3.95484e-08
1.36433e-09
3.90301e-08
1.31679e-09
3.8521e-08
1.27697e-09
3.8025e-08
1.23261e-09
3.7538e-08
1.19731e-09
3.70644e-08
1.15577e-09
3.65992e-08
1.12453e-09
3.61476e-08
1.08577e-09
3.57037e-08
1.05812e-09
3.52734e-08
1.0219e-09
3.485e-08
9.97712e-10
3.44401e-08
9.63493e-10
3.4036e-08
9.42944e-10
3.36456e-08
9.101e-10
3.32597e-08
8.93335e-10
3.28875e-08
8.6158e-10
3.25187e-08
8.48419e-10
3.21636e-08
8.17957e-10
3.18105e-08
8.08095e-10
3.14711e-08
7.79204e-10
3.11322e-08
7.72781e-10
3.08068e-08
7.45804e-10
3.04805e-08
7.43044e-10
3.01668e-08
7.19894e-10
2.98502e-08
7.20977e-10
7.09645e-10
5.48239e-08
2.97326e-09
-5.47833e-08
5.50934e-08
3.7534e-09
5.54802e-08
4.54059e-09
5.58067e-08
5.01721e-09
5.60777e-08
5.1849e-09
5.63347e-08
5.17833e-09
5.65652e-08
5.0796e-09
5.67311e-08
4.87429e-09
5.68045e-08
4.56705e-09
5.67888e-08
4.20111e-09
5.67107e-08
3.84468e-09
5.65955e-08
3.54648e-09
5.64534e-08
3.32201e-09
5.62883e-08
3.15314e-09
5.61019e-08
3.02423e-09
5.58977e-08
2.91803e-09
5.56761e-08
2.82969e-09
5.54386e-08
2.74921e-09
5.51837e-08
2.67744e-09
5.49128e-08
2.6068e-09
5.46244e-08
2.54168e-09
5.43205e-08
2.47509e-09
5.40001e-08
2.41394e-09
5.3666e-08
2.35018e-09
5.33171e-08
2.29278e-09
5.29568e-08
2.2324e-09
5.25838e-08
2.17895e-09
5.22019e-08
2.12199e-09
5.18093e-08
2.07248e-09
5.14102e-08
2.01845e-09
5.10025e-08
1.97272e-09
5.05907e-08
1.92116e-09
5.01719e-08
1.8789e-09
4.97512e-08
1.8295e-09
4.93251e-08
1.79038e-09
4.88992e-08
1.74274e-09
4.84693e-08
1.70685e-09
4.80414e-08
1.66051e-09
4.76106e-08
1.62807e-09
4.71836e-08
1.5828e-09
4.67545e-08
1.55361e-09
4.63308e-08
1.50953e-09
4.59055e-08
1.48338e-09
4.5487e-08
1.4404e-09
4.50674e-08
1.41735e-09
4.46556e-08
1.37525e-09
4.4243e-08
1.35556e-09
4.38392e-08
1.31393e-09
4.34345e-08
1.29797e-09
4.30396e-08
1.25652e-09
4.26435e-08
1.24454e-09
4.2258e-08
1.20343e-09
4.18708e-08
1.19532e-09
4.14947e-08
1.15528e-09
4.11165e-08
1.15095e-09
4.07494e-08
1.1129e-09
4.03795e-08
1.11292e-09
4.00206e-08
1.07884e-09
3.96573e-08
1.08426e-09
1.06037e-09
5.78034e-08
2.92203e-09
-5.77522e-08
5.80016e-08
3.55522e-09
5.83356e-08
4.20654e-09
5.86639e-08
4.68894e-09
5.89401e-08
4.90873e-09
5.91868e-08
4.93164e-09
5.94157e-08
4.85067e-09
5.96064e-08
4.68356e-09
5.97337e-08
4.43978e-09
5.9793e-08
4.14181e-09
5.97992e-08
3.83849e-09
5.97763e-08
3.56931e-09
5.97365e-08
3.36186e-09
5.96859e-08
3.20377e-09
5.96244e-08
3.08566e-09
5.95552e-08
2.98728e-09
5.94773e-08
2.90753e-09
5.93928e-08
2.83373e-09
5.92993e-08
2.77098e-09
5.9198e-08
2.70813e-09
5.90859e-08
2.65378e-09
5.89647e-08
2.59623e-09
5.88315e-08
2.54717e-09
5.86888e-08
2.4929e-09
5.85335e-08
2.44808e-09
5.83688e-08
2.39712e-09
5.81914e-08
2.35627e-09
5.80051e-08
2.30835e-09
5.78063e-08
2.27124e-09
5.75991e-08
2.22562e-09
5.73799e-08
2.19196e-09
5.71531e-08
2.14801e-09
5.69146e-08
2.11738e-09
5.66693e-08
2.0748e-09
5.64128e-08
2.04683e-09
5.61506e-08
2.00497e-09
5.58779e-08
1.97959e-09
5.56005e-08
1.9379e-09
5.53132e-08
1.91537e-09
5.50225e-08
1.87354e-09
5.47224e-08
1.85368e-09
5.44202e-08
1.81174e-09
5.41092e-08
1.79438e-09
5.37973e-08
1.7523e-09
5.34774e-08
1.73726e-09
5.31574e-08
1.69518e-09
5.28305e-08
1.68254e-09
5.25043e-08
1.64012e-09
5.21717e-08
1.63057e-09
5.1841e-08
1.5872e-09
5.15042e-08
1.58132e-09
5.11703e-08
1.53733e-09
5.08308e-08
1.53482e-09
5.04946e-08
1.49148e-09
5.01536e-08
1.492e-09
4.98157e-08
1.45073e-09
4.94733e-08
1.45534e-09
4.91344e-08
1.41777e-09
4.87905e-08
1.42813e-09
1.39946e-09
6.09108e-08
2.85993e-09
-6.08487e-08
6.10718e-08
3.39427e-09
6.13476e-08
3.93074e-09
6.16556e-08
4.3809e-09
6.1931e-08
4.63329e-09
6.21676e-08
4.69504e-09
6.23799e-08
4.63844e-09
6.25626e-08
4.50087e-09
6.26977e-08
4.30461e-09
6.27787e-08
4.06084e-09
6.28113e-08
3.80589e-09
6.28151e-08
3.56547e-09
6.2804e-08
3.37303e-09
6.27865e-08
3.22128e-09
6.2763e-08
3.1091e-09
6.27365e-08
3.01378e-09
6.2706e-08
2.93809e-09
6.2674e-08
2.86568e-09
6.26386e-08
2.80637e-09
6.26017e-08
2.74503e-09
6.25603e-08
2.6952e-09
6.25163e-08
2.64019e-09
6.24665e-08
2.59699e-09
6.24133e-08
2.54609e-09
6.23535e-08
2.50791e-09
6.22898e-08
2.46082e-09
6.22188e-08
2.42725e-09
6.21436e-08
2.38352e-09
6.20607e-08
2.35422e-09
6.19732e-08
2.31305e-09
6.18776e-08
2.28759e-09
6.17772e-08
2.24839e-09
6.16684e-08
2.22622e-09
6.15545e-08
2.18865e-09
6.14318e-08
2.16957e-09
6.1304e-08
2.13275e-09
6.11671e-08
2.11648e-09
6.10253e-08
2.07976e-09
6.08742e-08
2.0664e-09
6.07182e-08
2.02953e-09
6.05531e-08
2.01883e-09
6.03833e-08
1.98155e-09
6.02043e-08
1.9734e-09
6.00207e-08
1.93582e-09
5.98287e-08
1.92933e-09
5.96318e-08
1.89207e-09
5.94272e-08
1.88712e-09
5.92178e-08
1.84948e-09
5.90011e-08
1.84733e-09
5.878e-08
1.80828e-09
5.85521e-08
1.80921e-09
5.83198e-08
1.76965e-09
5.80815e-08
1.7731e-09
5.78386e-08
1.73438e-09
5.75909e-08
1.73974e-09
5.73379e-08
1.70375e-09
5.70806e-08
1.7126e-09
5.68182e-08
1.6802e-09
5.6552e-08
1.69435e-09
1.67055e-09
6.4157e-08
2.79338e-09
-6.40905e-08
6.42986e-08
3.25269e-09
6.45252e-08
3.70415e-09
6.48026e-08
4.10354e-09
6.50686e-08
4.36731e-09
6.52995e-08
4.46408e-09
6.54986e-08
4.43931e-09
6.56694e-08
4.33008e-09
6.58023e-08
4.17171e-09
6.58915e-08
3.97171e-09
6.59374e-08
3.76e-09
6.59532e-08
3.54961e-09
6.59524e-08
3.37385e-09
6.59451e-08
3.22861e-09
6.59329e-08
3.12125e-09
6.59187e-08
3.02798e-09
6.59015e-08
2.95526e-09
6.5884e-08
2.88319e-09
6.58649e-08
2.82548e-09
6.58463e-08
2.76367e-09
6.5826e-08
2.71544e-09
6.58059e-08
2.66031e-09
6.57835e-08
2.61935e-09
6.57607e-08
2.56891e-09
6.57353e-08
2.53336e-09
6.57091e-08
2.48697e-09
6.56799e-08
2.45645e-09
6.56498e-08
2.41362e-09
6.56164e-08
2.38768e-09
6.55816e-08
2.34781e-09
6.55434e-08
2.32582e-09
6.55032e-08
2.28858e-09
6.54594e-08
2.27004e-09
6.54132e-08
2.23482e-09
6.53627e-08
2.22002e-09
6.53096e-08
2.18587e-09
6.52518e-08
2.17424e-09
6.51908e-08
2.14077e-09
6.51252e-08
2.13202e-09
6.50556e-08
2.09915e-09
6.49811e-08
2.09331e-09
6.49025e-08
2.06018e-09
6.48186e-08
2.05727e-09
6.47298e-08
2.02457e-09
6.46366e-08
2.0226e-09
6.45371e-08
1.99151e-09
6.44337e-08
1.99058e-09
6.43238e-08
1.95939e-09
6.42095e-08
1.96159e-09
6.40884e-08
1.92943e-09
6.39637e-08
1.93389e-09
6.38311e-08
1.90222e-09
6.36953e-08
1.90887e-09
6.3551e-08
1.87871e-09
6.34045e-08
1.88621e-09
6.32484e-08
1.85989e-09
6.30901e-08
1.87089e-09
6.29221e-08
1.84825e-09
6.27523e-08
1.8641e-09
1.85024e-09
6.75545e-08
2.72636e-09
-6.74875e-08
6.76823e-08
3.12489e-09
6.78738e-08
3.51259e-09
6.81174e-08
3.86001e-09
6.8366e-08
4.11867e-09
6.85902e-08
4.23986e-09
6.87809e-08
4.24862e-09
6.89415e-08
4.16944e-09
6.90696e-08
4.04365e-09
6.91617e-08
3.87962e-09
6.92167e-08
3.70503e-09
6.92421e-08
3.5242e-09
6.92486e-08
3.36732e-09
6.92468e-08
3.23044e-09
6.92399e-08
3.12813e-09
6.92306e-08
3.03727e-09
6.92185e-08
2.96736e-09
6.92054e-08
2.89634e-09
6.91909e-08
2.83991e-09
6.91767e-08
2.77796e-09
6.91619e-08
2.73021e-09
6.91474e-08
2.67477e-09
6.91324e-08
2.63436e-09
6.91174e-08
2.58397e-09
6.91017e-08
2.54904e-09
6.9086e-08
2.50262e-09
6.90696e-08
2.47289e-09
6.90532e-08
2.43006e-09
6.9036e-08
2.40478e-09
6.90185e-08
2.36535e-09
6.90007e-08
2.34362e-09
6.89818e-08
2.30747e-09
6.89627e-08
2.28917e-09
6.89425e-08
2.25503e-09
6.89214e-08
2.2411e-09
6.8899e-08
2.20825e-09
6.88758e-08
2.19745e-09
6.88503e-08
2.16626e-09
6.88245e-08
2.15782e-09
6.87956e-08
2.12804e-09
6.8766e-08
2.123e-09
6.87333e-08
2.09281e-09
6.86995e-08
2.09105e-09
6.86615e-08
2.06258e-09
6.86235e-08
2.0606e-09
6.85798e-08
2.03524e-09
6.8536e-08
2.03442e-09
6.84866e-08
2.00874e-09
6.84365e-08
2.01169e-09
6.83798e-08
1.98618e-09
6.83233e-08
1.99038e-09
6.82592e-08
1.96632e-09
6.81949e-08
1.97312e-09
6.81222e-08
1.95142e-09
6.80502e-08
1.95828e-09
6.79689e-08
1.94116e-09
6.78874e-08
1.95241e-09
6.77964e-08
1.9392e-09
6.77054e-08
1.95513e-09
1.95067e-09
7.11135e-08
2.66052e-09
-7.10477e-08
7.12297e-08
3.00872e-09
7.13965e-08
3.34576e-09
7.16083e-08
3.64821e-09
7.18353e-08
3.89174e-09
7.20486e-08
4.02651e-09
7.22327e-08
4.06456e-09
7.23858e-08
4.01633e-09
7.25089e-08
3.92058e-09
7.26011e-08
3.78738e-09
7.26621e-08
3.64406e-09
7.26956e-08
3.49066e-09
7.27093e-08
3.35364e-09
7.27124e-08
3.22737e-09
7.27096e-08
3.13084e-09
7.27037e-08
3.04321e-09
7.26951e-08
2.976e-09
7.26844e-08
2.90699e-09
7.26724e-08
2.85188e-09
7.26596e-08
2.7908e-09
7.26467e-08
2.74311e-09
7.26335e-08
2.68798e-09
7.26205e-08
2.64731e-09
7.26071e-08
2.5974e-09
7.2594e-08
2.56219e-09
7.25806e-08
2.51594e-09
7.25675e-08
2.48599e-09
7.25542e-08
2.44336e-09
7.25417e-08
2.41738e-09
7.25283e-08
2.37867e-09
7.25164e-08
2.35551e-09
7.25034e-08
2.32054e-09
7.24916e-08
2.30095e-09
7.24791e-08
2.26751e-09
7.24674e-08
2.25283e-09
7.24547e-08
2.22088e-09
7.24434e-08
2.20878e-09
7.24299e-08
2.17975e-09
7.24185e-08
2.16924e-09
7.24046e-08
2.14194e-09
7.23919e-08
2.13572e-09
7.23772e-08
2.10744e-09
7.23638e-08
2.1045e-09
7.23468e-08
2.0796e-09
7.23324e-08
2.075e-09
7.23135e-08
2.05417e-09
7.22962e-08
2.05164e-09
7.22754e-08
2.02961e-09
7.22558e-08
2.03128e-09
7.2231e-08
2.01098e-09
7.22084e-08
2.01293e-09
7.21804e-08
1.99433e-09
7.21537e-08
1.9998e-09
7.21208e-08
1.98439e-09
7.20896e-08
1.9894e-09
7.20522e-08
1.97861e-09
7.20153e-08
1.98933e-09
7.19717e-08
1.98274e-09
7.19287e-08
1.99811e-09
1.99997e-09
7.48439e-08
2.59636e-09
-7.47798e-08
7.495e-08
2.9027e-09
7.50976e-08
3.19809e-09
7.52822e-08
3.46361e-09
7.54862e-08
3.68778e-09
7.56849e-08
3.82784e-09
7.58613e-08
3.8881e-09
7.60087e-08
3.86899e-09
7.61276e-08
3.80169e-09
7.62186e-08
3.69631e-09
7.6283e-08
3.57966e-09
7.63229e-08
3.45083e-09
7.63433e-08
3.3332e-09
7.63513e-08
3.2194e-09
7.63525e-08
3.12958e-09
7.63496e-08
3.04617e-09
7.6344e-08
2.98162e-09
7.63356e-08
2.91537e-09
7.63258e-08
2.86167e-09
7.63142e-08
2.80238e-09
7.63026e-08
2.75475e-09
7.629e-08
2.70051e-09
7.6278e-08
2.65929e-09
7.62652e-08
2.61028e-09
7.62529e-08
2.57448e-09
7.62402e-08
2.52865e-09
7.62281e-08
2.49808e-09
7.62154e-08
2.456e-09
7.6204e-08
2.42877e-09
7.61916e-08
2.3911e-09
7.61812e-08
2.36595e-09
7.61695e-08
2.33221e-09
7.61594e-08
2.31101e-09
7.61489e-08
2.27805e-09
7.61395e-08
2.26219e-09
7.61294e-08
2.23104e-09
7.61213e-08
2.21684e-09
7.61112e-08
2.18988e-09
7.61037e-08
2.17673e-09
7.60945e-08
2.15117e-09
7.60867e-08
2.14349e-09
7.60777e-08
2.11638e-09
7.60708e-08
2.11148e-09
7.60608e-08
2.08952e-09
7.60541e-08
2.08173e-09
7.60444e-08
2.06392e-09
7.60362e-08
2.05976e-09
7.60262e-08
2.03969e-09
7.60178e-08
2.03959e-09
7.60059e-08
2.0229e-09
7.59963e-08
2.02252e-09
7.59836e-08
2.00706e-09
7.59723e-08
2.01113e-09
7.5957e-08
1.99968e-09
7.59434e-08
2.00302e-09
7.59262e-08
1.99573e-09
7.59096e-08
2.006e-09
7.58892e-08
2.00316e-09
7.58692e-08
2.01807e-09
2.02334e-09
7.87554e-08
2.53418e-09
-7.86932e-08
7.88523e-08
2.80572e-09
7.8984e-08
3.06648e-09
7.91459e-08
3.30171e-09
7.93275e-08
3.50609e-09
7.95094e-08
3.64601e-09
7.96761e-08
3.72136e-09
7.98179e-08
3.72724e-09
7.99333e-08
3.68625e-09
8.00228e-08
3.6068e-09
8.00888e-08
3.51369e-09
8.01329e-08
3.40666e-09
8.01591e-08
3.30703e-09
8.01719e-08
3.20658e-09
8.0177e-08
3.12447e-09
8.0177e-08
3.04621e-09
8.01741e-08
2.98454e-09
8.0168e-08
2.92145e-09
8.01603e-08
2.86936e-09
8.01502e-08
2.81246e-09
8.01398e-08
2.76518e-09
8.01281e-08
2.7122e-09
8.01169e-08
2.67052e-09
8.01046e-08
2.62255e-09
8.00929e-08
2.58622e-09
8.00807e-08
2.54089e-09
8.00691e-08
2.50963e-09
8.00569e-08
2.46824e-09
8.00459e-08
2.43973e-09
8.00339e-08
2.40309e-09
8.00237e-08
2.3761e-09
8.00127e-08
2.34328e-09
8.00029e-08
2.32076e-09
7.99929e-08
2.28805e-09
7.99841e-08
2.27099e-09
7.99746e-08
2.24053e-09
7.99672e-08
2.22427e-09
7.99582e-08
2.1989e-09
7.99513e-08
2.1836e-09
7.99435e-08
2.15895e-09
7.99369e-08
2.15013e-09
7.99295e-08
2.12377e-09
7.99241e-08
2.11691e-09
7.99165e-08
2.09713e-09
7.99114e-08
2.08684e-09
7.99047e-08
2.07057e-09
7.9899e-08
2.06549e-09
7.98923e-08
2.04635e-09
7.98872e-08
2.04475e-09
7.98798e-08
2.03026e-09
7.98739e-08
2.02837e-09
7.98666e-08
2.01444e-09
7.98602e-08
2.01754e-09
7.98515e-08
2.00836e-09
7.98437e-08
2.01075e-09
7.98343e-08
2.00516e-09
7.9825e-08
2.01535e-09
7.98138e-08
2.01429e-09
7.98028e-08
2.02909e-09
2.03605e-09
8.28577e-08
2.47446e-09
-8.27979e-08
8.29463e-08
2.71704e-09
8.30639e-08
2.9489e-09
8.32066e-08
3.15904e-09
8.33677e-08
3.34502e-09
8.35321e-08
3.48161e-09
8.36871e-08
3.56628e-09
8.38223e-08
3.59208e-09
8.39342e-08
3.57436e-09
8.40221e-08
3.51887e-09
8.40885e-08
3.44728e-09
8.41354e-08
3.35982e-09
8.41659e-08
3.27655e-09
8.41831e-08
3.18933e-09
8.41919e-08
3.11569e-09
8.41947e-08
3.04337e-09
8.41943e-08
2.98501e-09
8.41904e-08
2.92529e-09
8.41847e-08
2.87507e-09
8.41764e-08
2.82078e-09
8.41672e-08
2.77434e-09
8.41566e-08
2.7228e-09
8.41462e-08
2.68096e-09
8.41347e-08
2.63405e-09
8.41235e-08
2.59736e-09
8.41119e-08
2.55255e-09
8.41008e-08
2.52069e-09
8.40891e-08
2.47995e-09
8.40784e-08
2.45044e-09
8.4067e-08
2.41449e-09
8.40569e-08
2.38621e-09
8.40464e-08
2.35382e-09
8.40368e-08
2.33034e-09
8.40271e-08
2.29775e-09
8.40185e-08
2.27956e-09
8.40094e-08
2.2496e-09
8.4002e-08
2.23173e-09
8.39937e-08
2.20718e-09
8.39867e-08
2.19054e-09
8.39795e-08
2.16617e-09
8.39732e-08
2.15642e-09
8.39663e-08
2.13072e-09
8.3961e-08
2.12214e-09
8.39545e-08
2.10368e-09
8.39494e-08
2.09198e-09
8.39438e-08
2.07613e-09
8.39386e-08
2.07066e-09
8.3933e-08
2.05203e-09
8.39284e-08
2.04934e-09
8.39227e-08
2.03598e-09
8.39176e-08
2.03345e-09
8.39118e-08
2.02021e-09
8.39066e-08
2.02271e-09
8.39002e-08
2.0148e-09
8.38941e-08
2.01691e-09
8.38871e-08
2.01214e-09
8.38799e-08
2.02249e-09
8.3872e-08
2.02221e-09
8.38639e-08
2.03718e-09
2.04506e-09
8.7161e-08
2.41771e-09
-8.71043e-08
8.72418e-08
2.63621e-09
8.73468e-08
2.84391e-09
8.74729e-08
3.03301e-09
8.76152e-08
3.20266e-09
8.77627e-08
3.33417e-09
8.79048e-08
3.42411e-09
8.8032e-08
3.46491e-09
8.81395e-08
3.46682e-09
8.82256e-08
3.43283e-09
8.82917e-08
3.38111e-09
8.834e-08
3.31155e-09
8.83734e-08
3.24316e-09
8.83942e-08
3.16848e-09
8.84063e-08
3.10361e-09
8.84119e-08
3.03777e-09
8.84137e-08
2.98328e-09
8.84119e-08
2.92701e-09
8.84081e-08
2.87897e-09
8.84016e-08
2.82728e-09
8.83938e-08
2.78214e-09
8.83844e-08
2.73216e-09
8.83748e-08
2.69055e-09
8.83642e-08
2.64463e-09
8.83538e-08
2.60777e-09
8.83428e-08
2.56353e-09
8.83323e-08
2.53119e-09
8.83213e-08
2.49096e-09
8.83109e-08
2.46083e-09
8.83003e-08
2.42515e-09
8.82903e-08
2.39617e-09
8.82803e-08
2.36382e-09
8.8271e-08
2.33961e-09
8.82616e-08
2.30715e-09
8.82533e-08
2.28788e-09
8.82447e-08
2.2582e-09
8.82372e-08
2.23929e-09
8.82296e-08
2.21479e-09
8.82226e-08
2.19752e-09
8.82157e-08
2.1731e-09
8.82097e-08
2.16239e-09
8.8203e-08
2.1374e-09
8.81977e-08
2.12744e-09
8.81919e-08
2.10947e-09
8.81866e-08
2.09732e-09
8.81815e-08
2.08123e-09
8.81766e-08
2.07553e-09
8.81713e-08
2.05733e-09
8.81667e-08
2.05395e-09
8.81617e-08
2.04094e-09
8.81568e-08
2.03835e-09
8.81515e-08
2.02553e-09
8.81466e-08
2.02757e-09
8.8141e-08
2.0204e-09
8.81353e-08
2.02264e-09
8.81291e-08
2.01836e-09
8.81226e-08
2.02896e-09
8.81158e-08
2.02903e-09
8.81087e-08
2.04431e-09
2.05279e-09
9.16761e-08
2.36472e-09
-9.16231e-08
9.17492e-08
2.56316e-09
9.18426e-08
2.75046e-09
9.1954e-08
2.92169e-09
9.20795e-08
3.07716e-09
9.22108e-08
3.20278e-09
9.23396e-08
3.29539e-09
9.24574e-08
3.34704e-09
9.25594e-08
3.3649e-09
9.26427e-08
3.34945e-09
9.2708e-08
3.31582e-09
9.27568e-08
3.26279e-09
9.27919e-08
3.20806e-09
9.28153e-08
3.14505e-09
9.28301e-08
3.08883e-09
9.28382e-08
3.02969e-09
9.28419e-08
2.97953e-09
9.28422e-08
2.92677e-09
9.28399e-08
2.8812e-09
9.28352e-08
2.832e-09
9.28289e-08
2.78848e-09
9.28209e-08
2.74018e-09
9.28123e-08
2.69915e-09
9.28027e-08
2.65418e-09
9.27931e-08
2.61733e-09
9.2783e-08
2.57371e-09
9.27731e-08
2.54105e-09
9.27629e-08
2.50117e-09
9.2753e-08
2.47077e-09
9.27431e-08
2.43501e-09
9.27335e-08
2.40581e-09
9.2724e-08
2.37324e-09
9.27152e-08
2.34842e-09
9.27062e-08
2.31615e-09
9.26983e-08
2.29585e-09
9.26902e-08
2.26624e-09
9.26827e-08
2.24681e-09
9.26757e-08
2.22179e-09
9.26689e-08
2.20431e-09
9.26622e-08
2.17978e-09
9.26566e-08
2.16798e-09
9.26503e-08
2.14375e-09
9.2645e-08
2.13275e-09
9.26398e-08
2.11465e-09
9.26344e-08
2.10267e-09
9.26296e-08
2.08606e-09
9.2625e-08
2.08012e-09
9.262e-08
2.06236e-09
9.26154e-08
2.05855e-09
9.26109e-08
2.04548e-09
9.26062e-08
2.04305e-09
9.26011e-08
2.03062e-09
9.25964e-08
2.03228e-09
9.25912e-08
2.02555e-09
9.25857e-08
2.02813e-09
9.25799e-08
2.02422e-09
9.25738e-08
2.03506e-09
9.25675e-08
2.03534e-09
9.25608e-08
2.05097e-09
2.05992e-09
9.79408e-08
2.31556e-09
-9.78917e-08
9.80073e-08
2.49664e-09
9.80916e-08
2.6662e-09
9.81912e-08
2.82205e-09
9.83032e-08
2.96525e-09
9.84212e-08
3.08473e-09
9.8538e-08
3.17857e-09
9.86471e-08
3.23796e-09
9.87434e-08
3.26858e-09
9.8824e-08
3.26883e-09
9.88885e-08
3.25138e-09
9.89376e-08
3.21366e-09
9.89739e-08
3.17174e-09
9.89993e-08
3.11965e-09
9.90163e-08
3.07185e-09
9.90267e-08
3.01936e-09
9.90323e-08
2.97389e-09
9.90343e-08
2.92471e-09
9.90337e-08
2.88186e-09
9.90306e-08
2.83508e-09
9.90257e-08
2.7934e-09
9.90189e-08
2.74691e-09
9.90113e-08
2.70675e-09
9.90028e-08
2.66275e-09
9.89941e-08
2.62605e-09
9.89847e-08
2.58312e-09
9.89754e-08
2.55031e-09
9.8966e-08
2.51062e-09
9.89565e-08
2.48021e-09
9.89474e-08
2.44417e-09
9.89381e-08
2.41503e-09
9.89292e-08
2.38216e-09
9.89209e-08
2.35676e-09
9.89123e-08
2.32473e-09
9.89047e-08
2.30349e-09
9.88971e-08
2.27378e-09
9.88898e-08
2.25416e-09
9.88832e-08
2.22834e-09
9.88767e-08
2.21082e-09
9.88703e-08
2.18623e-09
9.8865e-08
2.17325e-09
9.8859e-08
2.14977e-09
9.88538e-08
2.13797e-09
9.8849e-08
2.11939e-09
9.88438e-08
2.1079e-09
9.88392e-08
2.09067e-09
9.88349e-08
2.08446e-09
9.88301e-08
2.06714e-09
9.88256e-08
2.063e-09
9.88213e-08
2.04978e-09
9.88168e-08
2.04753e-09
9.8812e-08
2.03548e-09
9.88074e-08
2.03688e-09
9.88025e-08
2.0304e-09
9.87973e-08
2.03341e-09
9.87916e-08
2.02984e-09
9.87859e-08
2.04083e-09
9.87799e-08
2.04135e-09
9.87735e-08
2.0573e-09
2.06662e-09
1.1002e-07
2.26578e-09
-1.09971e-07
1.10085e-07
2.43214e-09
1.10165e-07
2.58654e-09
1.10258e-07
2.72904e-09
1.10361e-07
2.86155e-09
1.10471e-07
2.97488e-09
1.1058e-07
3.0693e-09
1.10684e-07
3.13442e-09
1.10777e-07
3.17549e-09
1.10857e-07
3.18928e-09
1.10922e-07
3.18639e-09
1.10972e-07
3.16304e-09
1.1101e-07
3.1335e-09
1.11038e-07
3.09198e-09
1.11057e-07
3.0525e-09
1.1107e-07
3.00662e-09
1.11078e-07
2.96612e-09
1.11082e-07
2.92071e-09
1.11083e-07
2.88088e-09
1.11081e-07
2.8366e-09
1.11078e-07
2.79695e-09
1.11072e-07
2.75249e-09
1.11066e-07
2.71346e-09
1.11058e-07
2.67054e-09
1.1105e-07
2.63415e-09
1.11041e-07
2.59196e-09
1.11032e-07
2.55918e-09
1.11023e-07
2.51957e-09
1.11014e-07
2.4893e-09
1.11005e-07
2.45292e-09
1.10996e-07
2.42395e-09
1.10988e-07
2.39081e-09
1.10979e-07
2.36484e-09
1.10971e-07
2.33306e-09
1.10964e-07
2.31098e-09
1.10956e-07
2.28105e-09
1.10949e-07
2.2614e-09
1.10943e-07
2.2347e-09
1.10936e-07
2.21715e-09
1.1093e-07
2.19256e-09
1.10925e-07
2.17839e-09
1.10919e-07
2.1556e-09
1.10914e-07
2.14315e-09
1.10909e-07
2.12392e-09
1.10904e-07
2.11306e-09
1.109e-07
2.09514e-09
1.10896e-07
2.08869e-09
1.10891e-07
2.07183e-09
1.10887e-07
2.06729e-09
1.10882e-07
2.05406e-09
1.10878e-07
2.0519e-09
1.10873e-07
2.04017e-09
1.10869e-07
2.0415e-09
1.10864e-07
2.03511e-09
1.10859e-07
2.03856e-09
1.10853e-07
2.03539e-09
1.10848e-07
2.04643e-09
1.10842e-07
2.04723e-09
1.10836e-07
2.06349e-09
2.07311e-09
1.23582e-07
2.21733e-09
-1.23533e-07
1.23643e-07
2.37082e-09
1.23717e-07
2.51253e-09
1.23802e-07
2.64396e-09
1.23896e-07
2.76771e-09
1.23995e-07
2.87567e-09
1.24094e-07
2.97005e-09
1.24189e-07
3.03933e-09
1.24276e-07
3.0886e-09
1.24352e-07
3.11354e-09
1.24415e-07
3.12313e-09
1.24466e-07
3.11266e-09
1.24504e-07
3.09469e-09
1.24533e-07
3.06317e-09
1.24554e-07
3.03174e-09
1.24568e-07
2.99216e-09
1.24578e-07
2.95659e-09
1.24584e-07
2.91496e-09
1.24586e-07
2.87822e-09
1.24587e-07
2.83647e-09
1.24585e-07
2.7989e-09
1.2458e-07
2.75661e-09
1.24575e-07
2.71891e-09
1.24568e-07
2.67718e-09
1.24561e-07
2.64133e-09
1.24553e-07
2.59986e-09
1.24545e-07
2.56729e-09
1.24537e-07
2.52768e-09
1.24529e-07
2.49763e-09
1.24521e-07
2.46096e-09
1.24513e-07
2.43214e-09
1.24504e-07
2.39883e-09
1.24497e-07
2.37234e-09
1.24489e-07
2.34075e-09
1.24482e-07
2.31802e-09
1.24476e-07
2.28779e-09
1.24469e-07
2.26817e-09
1.24463e-07
2.24065e-09
1.24457e-07
2.22301e-09
1.24451e-07
2.19849e-09
1.24446e-07
2.18318e-09
1.24441e-07
2.16099e-09
1.24436e-07
2.148e-09
1.24432e-07
2.12809e-09
1.24427e-07
2.11792e-09
1.24423e-07
2.09924e-09
1.24419e-07
2.09266e-09
1.24414e-07
2.07625e-09
1.24411e-07
2.07114e-09
1.24406e-07
2.05818e-09
1.24402e-07
2.05599e-09
1.24398e-07
2.04442e-09
1.24394e-07
2.04597e-09
1.24389e-07
2.0395e-09
1.24384e-07
2.04337e-09
1.24379e-07
2.04066e-09
1.24374e-07
2.05163e-09
1.24368e-07
2.05275e-09
1.24363e-07
2.06931e-09
2.07915e-09
1.38807e-07
2.1727e-09
-1.38762e-07
1.38863e-07
2.31504e-09
1.38929e-07
2.44621e-09
1.39004e-07
2.56881e-09
1.39086e-07
2.6859e-09
1.39172e-07
2.78997e-09
1.39258e-07
2.88383e-09
1.39341e-07
2.95597e-09
1.39419e-07
3.01131e-09
1.39487e-07
3.04495e-09
1.39546e-07
3.06462e-09
1.39593e-07
3.06496e-09
1.39631e-07
3.05721e-09
1.39659e-07
3.03476e-09
1.3968e-07
3.01086e-09
1.39695e-07
2.97704e-09
1.39706e-07
2.94609e-09
1.39713e-07
2.90797e-09
1.39717e-07
2.87411e-09
1.39718e-07
2.8348e-09
1.39718e-07
2.79918e-09
1.39716e-07
2.75905e-09
1.39712e-07
2.72272e-09
1.39707e-07
2.68227e-09
1.39701e-07
2.64718e-09
1.39695e-07
2.60635e-09
1.39688e-07
2.57418e-09
1.39681e-07
2.53452e-09
1.39674e-07
2.50472e-09
1.39667e-07
2.46785e-09
1.3966e-07
2.43908e-09
1.39653e-07
2.40576e-09
1.39646e-07
2.37881e-09
1.3964e-07
2.34736e-09
1.39634e-07
2.32417e-09
1.39628e-07
2.29358e-09
1.39622e-07
2.27405e-09
1.39617e-07
2.24583e-09
1.39612e-07
2.22806e-09
1.39607e-07
2.20362e-09
1.39603e-07
2.18732e-09
1.39598e-07
2.16562e-09
1.39594e-07
2.15221e-09
1.3959e-07
2.13162e-09
1.39586e-07
2.12221e-09
1.39582e-07
2.10267e-09
1.39579e-07
2.09611e-09
1.39575e-07
2.08016e-09
1.39572e-07
2.07427e-09
1.39568e-07
2.0619e-09
1.39565e-07
2.05954e-09
1.39561e-07
2.04795e-09
1.39557e-07
2.05006e-09
1.39553e-07
2.04325e-09
1.39549e-07
2.04756e-09
1.39544e-07
2.04535e-09
1.3954e-07
2.05614e-09
1.39535e-07
2.05759e-09
1.3953e-07
2.07438e-09
2.08445e-09
1.559e-07
2.1342e-09
-1.55862e-07
1.55948e-07
2.2673e-09
1.56004e-07
2.39035e-09
1.56066e-07
2.5067e-09
1.56133e-07
2.61947e-09
1.56201e-07
2.72133e-09
1.56271e-07
2.81446e-09
1.56338e-07
2.88834e-09
1.56402e-07
2.9478e-09
1.56459e-07
2.9877e-09
1.56509e-07
3.01484e-09
1.5655e-07
3.02345e-09
1.56584e-07
3.02391e-09
1.56609e-07
3.00894e-09
1.56629e-07
2.99153e-09
1.56643e-07
2.96262e-09
1.56654e-07
2.93566e-09
1.56661e-07
2.90052e-09
1.56666e-07
2.86903e-09
1.56669e-07
2.83183e-09
1.5667e-07
2.79784e-09
1.5667e-07
2.75966e-09
1.56668e-07
2.72457e-09
1.56665e-07
2.68538e-09
1.56661e-07
2.65119e-09
1.56656e-07
2.6109e-09
1.56651e-07
2.57925e-09
1.56646e-07
2.53949e-09
1.56641e-07
2.50996e-09
1.56636e-07
2.47299e-09
1.56631e-07
2.44417e-09
1.56625e-07
2.41099e-09
1.56621e-07
2.38361e-09
1.56616e-07
2.35232e-09
1.56611e-07
2.32885e-09
1.56607e-07
2.2979e-09
1.56602e-07
2.27851e-09
1.56598e-07
2.24971e-09
1.56595e-07
2.23182e-09
1.56591e-07
2.2075e-09
1.56588e-07
2.19035e-09
1.56584e-07
2.16906e-09
1.56581e-07
2.15535e-09
1.56579e-07
2.13411e-09
1.56575e-07
2.1255e-09
1.56573e-07
2.10507e-09
1.5657e-07
2.09864e-09
1.56567e-07
2.08318e-09
1.56565e-07
2.07633e-09
1.56562e-07
2.06486e-09
1.5656e-07
2.06217e-09
1.56557e-07
2.05042e-09
1.56554e-07
2.05337e-09
1.56551e-07
2.04596e-09
1.56548e-07
2.05074e-09
1.56544e-07
2.04906e-09
1.56541e-07
2.05954e-09
1.56537e-07
2.06147e-09
1.56533e-07
2.07815e-09
2.08859e-09
1.75094e-07
2.1028e-09
-1.75062e-07
1.75131e-07
2.23026e-09
1.75171e-07
2.34959e-09
1.75215e-07
2.46303e-09
1.75261e-07
2.57368e-09
1.75308e-07
2.67467e-09
1.75355e-07
2.76694e-09
1.75402e-07
2.84167e-09
1.75446e-07
2.90343e-09
1.75487e-07
2.94712e-09
1.75523e-07
2.97887e-09
1.75553e-07
2.99279e-09
1.75579e-07
2.99868e-09
1.75599e-07
2.98881e-09
1.75614e-07
2.97603e-09
1.75626e-07
2.9506e-09
1.75635e-07
2.92656e-09
1.75642e-07
2.89353e-09
1.75648e-07
2.86364e-09
1.75652e-07
2.82797e-09
1.75654e-07
2.79507e-09
1.75656e-07
2.75839e-09
1.75656e-07
2.72421e-09