/*--------------------------------*- C++ -*----------------------------------*\
| =========                 |                                                 |
| \\      /  F ield         | OpenFOAM: The Open Source CFD Toolbox           |
|  \\    /   O peration     | Version:  2.3.0                                 |
|   \\  /    A nd           | Web:      www.OpenFOAM.org                      |
|    \\/     M anipulation  |                                                 |
\*---------------------------------------------------------------------------*/
FoamFile
{
    version     2.0;
    format      ascii;
    class       volVectorField;
    location    "0.9";
    object      U_0;
}
// * * * * * * * * * * * * * * * * * * * * * * * * * * * * * * * * * * * * * //

dimensions      [0 1 -1 0 0 0 0];

internalField   nonuniform List<vector> 
1650
(
(0.179796 0.00363169 0)
(0.159937 0.004948 0)
(0.141186 0.00497912 0)
(0.122585 0.00448512 0)
(0.104425 0.00390427 0)
(0.0874745 0.00323984 0)
(0.0728708 0.00245939 0)
(0.0613123 0.00155604 0)
(0.0528682 0.000737344 0)
(0.0469778 0.000200703 0)
(0.0429023 -5.56624e-05 0)
(0.0400595 -0.000140103 0)
(0.0380225 -0.000139758 0)
(0.0364765 -0.000103364 0)
(0.0352006 -5.55951e-05 0)
(0.0340597 -1.21384e-05 0)
(0.0329901 1.9729e-05 0)
(0.0319645 3.95428e-05 0)
(0.030983 4.9605e-05 0)
(0.0300469 5.30135e-05 0)
(0.0291659 5.24456e-05 0)
(0.0283378 4.98697e-05 0)
(0.0275683 4.65218e-05 0)
(0.0268484 4.30448e-05 0)
(0.0261819 3.97273e-05 0)
(0.0255555 3.67826e-05 0)
(0.0249748 3.40572e-05 0)
(0.0244238 3.17539e-05 0)
(0.0239121 2.95819e-05 0)
(0.023421 2.77543e-05 0)
(0.0229653 2.60054e-05 0)
(0.0225222 2.45253e-05 0)
(0.0221129 2.30638e-05 0)
(0.0217091 2.18707e-05 0)
(0.0213394 2.05943e-05 0)
(0.0209681 1.96274e-05 0)
(0.0206328 1.8517e-05 0)
(0.0202887 1.76951e-05 0)
(0.019984 1.67442e-05 0)
(0.0196623 1.60513e-05 0)
(0.0193853 1.51899e-05 0)
(0.0190818 1.46695e-05 0)
(0.0188304 1.38254e-05 0)
(0.0185413 1.34922e-05 0)
(0.0183139 1.26486e-05 0)
(0.0180354 1.24691e-05 0)
(0.0178312 1.16517e-05 0)
(0.0175595 1.15799e-05 0)
(0.0173782 1.08078e-05 0)
(0.0171095 1.08335e-05 0)
(0.0169514 1.00598e-05 0)
(0.0166811 1.02831e-05 0)
(0.0165473 9.37682e-06 0)
(0.0162705 9.8926e-06 0)
(0.0161626 8.83966e-06 0)
(0.0158727 9.63303e-06 0)
(0.0157941 8.42568e-06 0)
(0.0154817 9.58742e-06 0)
(0.0154393 8.19768e-06 0)
(0.0150817 1.18448e-05 0)
(0.193391 0.00633539 0)
(0.191689 0.008925 0)
(0.189143 0.00966131 0)
(0.185161 0.00947988 0)
(0.179561 0.00904296 0)
(0.172514 0.00842113 0)
(0.164627 0.0075407 0)
(0.156416 0.00634853 0)
(0.148348 0.00499953 0)
(0.140676 0.00374499 0)
(0.133507 0.00274827 0)
(0.126903 0.00202281 0)
(0.120912 0.0015185 0)
(0.115537 0.00118702 0)
(0.11073 0.000978299 0)
(0.106407 0.000846679 0)
(0.102505 0.000757904 0)
(0.0989472 0.000691262 0)
(0.0956967 0.000635435 0)
(0.0926977 0.000585052 0)
(0.0899368 0.000538246 0)
(0.0873683 0.00049449 0)
(0.084994 0.000454283 0)
(0.0827693 0.000417595 0)
(0.0807074 0.000384688 0)
(0.0787598 0.000355415 0)
(0.0769518 0.000329287 0)
(0.0752278 0.000306221 0)
(0.0736277 0.000285491 0)
(0.0720851 0.000267016 0)
(0.0706574 0.000250298 0)
(0.0692636 0.000235173 0)
(0.0679813 0.000221343 0)
(0.0667108 0.000208789 0)
(0.0655537 0.000197067 0)
(0.064386 0.000186496 0)
(0.0633387 0.000176513 0)
(0.0622568 0.000167408 0)
(0.0613072 0.000158923 0)
(0.0602967 0.000151038 0)
(0.0594356 0.000143677 0)
(0.0584835 0.000136982 0)
(0.0577042 0.000130412 0)
(0.0567982 0.000124816 0)
(0.0560965 0.000118893 0)
(0.055225 0.000114195 0)
(0.0545982 0.000108917 0)
(0.0537499 0.000104896 0)
(0.0531973 0.000100274 0)
(0.0523606 9.682e-05 0)
(0.0518833 9.26904e-05 0)
(0.0510453 9.00341e-05 0)
(0.0506467 8.60257e-05 0)
(0.0497925 8.43743e-05 0)
(0.0494789 8.04981e-05 0)
(0.0485898 7.97275e-05 0)
(0.0483711 7.61427e-05 0)
(0.0474222 7.64981e-05 0)
(0.047315 7.28769e-05 0)
(0.0462693 8.0469e-05 0)
(0.194119 0.00582269 0)
(0.194353 0.00811109 0)
(0.195172 0.00937175 0)
(0.195957 0.00975156 0)
(0.196158 0.00972675 0)
(0.195504 0.00947194 0)
(0.194001 0.00893632 0)
(0.191729 0.00808532 0)
(0.188831 0.00702358 0)
(0.185453 0.00594595 0)
(0.181745 0.0050185 0)
(0.177833 0.00429204 0)
(0.173858 0.00373756 0)
(0.169904 0.00331423 0)
(0.166034 0.0029828 0)
(0.16224 0.00271195 0)
(0.158556 0.00248057 0)
(0.15495 0.00227597 0)
(0.151461 0.00209154 0)
(0.148052 0.00192287 0)
(0.144772 0.00176875 0)
(0.141574 0.00162719 0)
(0.138518 0.00149868 0)
(0.135544 0.00138147 0)
(0.132722 0.00127615 0)
(0.129972 0.00118095 0)
(0.127381 0.00109576 0)
(0.124845 0.00101886 0)
(0.122474 0.000950051 0)
(0.120136 0.000887399 0)
(0.117969 0.00083138 0)
(0.115809 0.000779682 0)
(0.113828 0.000733427 0)
(0.111825 0.000690278 0)
(0.110015 0.000651526 0)
(0.108148 0.000615024 0)
(0.106494 0.00058238 0)
(0.104744 0.000550956 0)
(0.103234 0.00052341 0)
(0.101583 0.000496095 0)
(0.100206 0.000472595 0)
(0.098637 0.000448875 0)
(0.0973866 0.000428541 0)
(0.0958829 0.000407923 0)
(0.0947551 0.000390252 0)
(0.0932996 0.000372133 0)
(0.0922926 0.000356939 0)
(0.0908687 0.000340704 0)
(0.0899829 0.000327895 0)
(0.0885736 0.000313171 0)
(0.0878116 0.000302406 0)
(0.0863983 0.000289372 0)
(0.0857667 0.000280074 0)
(0.0843266 0.000268895 0)
(0.0838363 0.000261133 0)
(0.0823427 0.000251538 0)
(0.0820073 0.000245526 0)
(0.0804292 0.000238385 0)
(0.0802648 0.000233169 0)
(0.0785666 0.000236958 0)
(0.194905 0.00548128 0)
(0.1951 0.00720613 0)
(0.195947 0.00850814 0)
(0.197246 0.00911665 0)
(0.198572 0.00925653 0)
(0.199609 0.00912634 0)
(0.200254 0.0087625 0)
(0.200439 0.00815885 0)
(0.200171 0.00737378 0)
(0.199437 0.00653391 0)
(0.19832 0.0057723 0)
(0.196876 0.00515744 0)
(0.195244 0.0046871 0)
(0.19346 0.0043224 0)
(0.191623 0.00402894 0)
(0.189691 0.00378052 0)
(0.187738 0.0035622 0)
(0.18569 0.00336288 0)
(0.183634 0.00317836 0)
(0.181481 0.00300307 0)
(0.179338 0.00283766 0)
(0.177106 0.00267867 0)
(0.174911 0.002529 0)
(0.172634 0.00238541 0)
(0.170426 0.00225162 0)
(0.168136 0.0021241 0)
(0.165947 0.00200623 0)
(0.163671 0.00189406 0)
(0.16153 0.00179116 0)
(0.159288 0.00169265 0)
(0.157214 0.00160315 0)
(0.15502 0.00151661 0)
(0.153029 0.00143872 0)
(0.15089 0.00136269 0)
(0.148994 0.00129487 0)
(0.146914 0.00122784 0)
(0.145122 0.00116906 0)
(0.1431 0.0011095 0)
(0.141417 0.00105884 0)
(0.139449 0.00100569 0)
(0.13788 0.000961927 0)
(0.135961 0.000914566 0)
(0.134511 0.00087657 0)
(0.132629 0.000834259 0)
(0.131303 0.000801382 0)
(0.129447 0.000763169 0)
(0.128252 0.000735153 0)
(0.126407 0.000700064 0)
(0.125349 0.000676714 0)
(0.1235 0.000644186 0)
(0.122586 0.000624932 0)
(0.120716 0.000595074 0)
(0.119957 0.000579215 0)
(0.118042 0.000552046 0)
(0.117453 0.000539618 0)
(0.115466 0.000515057 0)
(0.115063 0.000505896 0)
(0.112976 0.000485534 0)
(0.112773 0.000478732 0)
(0.110552 0.000470268 0)
(0.195554 0.00532416 0)
(0.19574 0.00666438 0)
(0.196405 0.00785797 0)
(0.197507 0.00855228 0)
(0.198812 0.00877162 0)
(0.200014 0.0086788 0)
(0.20103 0.00837081 0)
(0.201759 0.00788127 0)
(0.202236 0.00725421 0)
(0.202383 0.00656887 0)
(0.202285 0.00592582 0)
(0.20191 0.00538891 0)
(0.201419 0.00497386 0)
(0.200776 0.00465308 0)
(0.200131 0.00439923 0)
(0.199375 0.00418543 0)
(0.198647 0.00400038 0)
(0.19779 0.00383095 0)
(0.196963 0.00367594 0)
(0.195984 0.00352672 0)
(0.195043 0.00338672 0)
(0.193934 0.00324871 0)
(0.192883 0.00311898 0)
(0.191651 0.00298986 0)
(0.190506 0.00286974 0)
(0.189164 0.00275002 0)
(0.187942 0.00263969 0)
(0.186504 0.00252929 0)
(0.185225 0.00242858 0)
(0.183705 0.00232674 0)
(0.182386 0.00223516 0)
(0.180798 0.00214111 0)
(0.179457 0.00205789 0)
(0.177811 0.00197099 0)
(0.176467 0.00189544 0)
(0.174771 0.00181496 0)
(0.17344 0.00174689 0)
(0.171703 0.00167201 0)
(0.1704 0.00161119 0)
(0.168628 0.00154141 0)
(0.167367 0.0014872 0)
(0.165563 0.00142239 0)
(0.164361 0.00137413 0)
(0.162522 0.00131387 0)
(0.161395 0.00127133 0)
(0.159518 0.00121493 0)
(0.15848 0.00117809 0)
(0.156561 0.00112484 0)
(0.155625 0.00109362 0)
(0.153657 0.00104313 0)
(0.152836 0.00101717 0)
(0.15081 0.000969475 0)
(0.150122 0.00094835 0)
(0.148018 0.000903655 0)
(0.147481 0.000887108 0)
(0.145284 0.000845948 0)
(0.144913 0.00083383 0)
(0.142601 0.000797784 0)
(0.142412 0.000790134 0)
(0.139962 0.000765186 0)
(0.196097 0.00520406 0)
(0.196281 0.00629785 0)
(0.196835 0.00732801 0)
(0.197719 0.00802757 0)
(0.198856 0.00830832 0)
(0.199948 0.00826157 0)
(0.200948 0.00800019 0)
(0.2017 0.00758466 0)
(0.202301 0.00706295 0)
(0.202624 0.00648463 0)
(0.202811 0.00592627 0)
(0.202749 0.00544055 0)
(0.20265 0.00505562 0)
(0.202391 0.00475362 0)
(0.202204 0.00451803 0)
(0.201896 0.00431964 0)
(0.201697 0.00415162 0)
(0.201356 0.00399672 0)
(0.20113 0.00385866 0)
(0.20073 0.00372437 0)
(0.200454 0.00360245 0)
(0.199973 0.00347996 0)
(0.199637 0.003369 0)
(0.199069 0.00325483 0)
(0.198672 0.00315285 0)
(0.198013 0.0030466 0)
(0.197559 0.00295293 0)
(0.196807 0.00285407 0)
(0.196299 0.00276816 0)
(0.195456 0.00267559 0)
(0.194899 0.00259687 0)
(0.193965 0.00250962 0)
(0.193367 0.00243736 0)
(0.192342 0.00235483 0)
(0.191711 0.00228828 0)
(0.190597 0.00220969 0)
(0.189941 0.00214866 0)
(0.188741 0.00207331 0)
(0.188069 0.00201785 0)
(0.186785 0.00194533 0)
(0.186108 0.00189506 0)
(0.18474 0.00182536 0)
(0.184072 0.00177989 0)
(0.182619 0.00171287 0)
(0.181974 0.001672 0)
(0.180434 0.00160749 0)
(0.179824 0.00157127 0)
(0.178198 0.00150888 0)
(0.177635 0.00147752 0)
(0.175921 0.00141683 0)
(0.175418 0.00139059 0)
(0.173611 0.00133166 0)
(0.173185 0.00131016 0)
(0.171278 0.00125395 0)
(0.170942 0.00123664 0)
(0.168927 0.00118412 0)
(0.168694 0.00117146 0)
(0.166564 0.00112395 0)
(0.166445 0.00111694 0)
(0.164188 0.00107904 0)
(0.196576 0.00508614 0)
(0.196748 0.00600067 0)
(0.197231 0.0068727 0)
(0.197938 0.00752219 0)
(0.19891 0.0078407 0)
(0.199856 0.0078491 0)
(0.200787 0.0076445 0)
(0.201479 0.00729437 0)
(0.202081 0.00685628 0)
(0.20241 0.00636502 0)
(0.202675 0.00588044 0)
(0.202685 0.00544004 0)
(0.202715 0.00508034 0)
(0.202556 0.00478899 0)
(0.202517 0.00456228 0)
(0.202326 0.00436866 0)
(0.202302 0.00420743 0)
(0.20211 0.00405585 0)
(0.2021 0.00392396 0)
(0.201887 0.00379301 0)
(0.201872 0.00367861 0)
(0.201623 0.00356085 0)
(0.201594 0.00345938 0)
(0.201299 0.00335116 0)
(0.201254 0.00325983 0)
(0.200909 0.00316016 0)
(0.200847 0.00307774 0)
(0.200446 0.00298563 0)
(0.200367 0.00291127 0)
(0.199906 0.00282532 0)
(0.199808 0.00275821 0)
(0.199283 0.00267727 0)
(0.199166 0.00261644 0)
(0.198574 0.00253987 0)
(0.198439 0.00248452 0)
(0.197774 0.00241121 0)
(0.197623 0.00236085 0)
(0.196883 0.0022899 0)
(0.196717 0.00224457 0)
(0.195899 0.00217548 0)
(0.195721 0.00213467 0)
(0.194822 0.00206732 0)
(0.194639 0.00203061 0)
(0.193653 0.00196493 0)
(0.19347 0.00193166 0)
(0.192398 0.00186794 0)
(0.192218 0.0018379 0)
(0.191059 0.00177569 0)
(0.190888 0.00174958 0)
(0.18964 0.00168799 0)
(0.189484 0.00166626 0)
(0.188145 0.00160574 0)
(0.188012 0.00158765 0)
(0.186579 0.00152961 0)
(0.186477 0.00151451 0)
(0.184949 0.00146024 0)
(0.184878 0.0014491 0)
(0.183256 0.00139943 0)
(0.183222 0.00139391 0)
(0.181505 0.00135263 0)
(0.197004 0.00496585 0)
(0.197161 0.00573931 0)
(0.197589 0.006477 0)
(0.198158 0.00705563 0)
(0.198986 0.00738695 0)
(0.199788 0.0074468 0)
(0.200641 0.00730387 0)
(0.201266 0.00701607 0)
(0.20185 0.00664906 0)
(0.202161 0.00623019 0)
(0.202453 0.00581209 0)
(0.202488 0.00541639 0)
(0.202572 0.00508392 0)
(0.202448 0.00480371 0)
(0.202462 0.0045844 0)
(0.202301 0.00439293 0)
(0.202328 0.00423553 0)
(0.20217 0.00408396 0)
(0.202221 0.00395449 0)
(0.202056 0.00382261 0)
(0.202117 0.00371075 0)
(0.201934 0.00359263 0)
(0.201999 0.00349487 0)
(0.201794 0.00338733 0)
(0.201863 0.00330054 0)
(0.201633 0.00320216 0)
(0.201707 0.00312493 0)
(0.201448 0.00303444 0)
(0.201527 0.00296577 0)
(0.201237 0.00288183 0)
(0.201319 0.00282068 0)
(0.200996 0.00274235 0)
(0.201079 0.00268758 0)
(0.20072 0.00261411 0)
(0.200803 0.00256535 0)
(0.200401 0.00249535 0)
(0.200485 0.00245186 0)
(0.200038 0.00238443 0)
(0.20012 0.00234591 0)
(0.199626 0.00228076 0)
(0.199703 0.00224668 0)
(0.199157 0.00218322 0)
(0.199232 0.00215328 0)
(0.198629 0.00209168 0)
(0.198701 0.00206433 0)
(0.198041 0.00200546 0)
(0.198107 0.0019803 0)
(0.197389 0.00192306 0)
(0.197449 0.00190164 0)
(0.19667 0.00184475 0)
(0.196724 0.00182684 0)
(0.195885 0.00177149 0)
(0.195932 0.00175631 0)
(0.195028 0.0017036 0)
(0.195069 0.00169023 0)
(0.194105 0.00164191 0)
(0.194135 0.00163197 0)
(0.19311 0.00158797 0)
(0.193129 0.00158314 0)
(0.192046 0.00154707 0)
(0.197387 0.0048443 0)
(0.197529 0.00550348 0)
(0.19791 0.00613095 0)
(0.198374 0.00663844 0)
(0.199077 0.00696393 0)
(0.199754 0.00706369 0)
(0.200517 0.00698014 0)
(0.201082 0.00675237 0)
(0.201636 0.00644827 0)
(0.201934 0.00609096 0)
(0.202232 0.0057312 0)
(0.202288 0.00537886 0)
(0.202399 0.00507543 0)
(0.202307 0.00480901 0)
(0.202342 0.0045979 0)
(0.202203 0.00440906 0)
(0.202241 0.00425499 0)
(0.202103 0.00410374 0)
(0.202159 0.00397594 0)
(0.202018 0.00384309 0)
(0.202086 0.00373205 0)
(0.201935 0.00361282 0)
(0.202008 0.00351611 0)
(0.201844 0.00340805 0)
(0.201924 0.00332255 0)
(0.201747 0.00322382 0)
(0.201836 0.00314822 0)
(0.201646 0.00305746 0)
(0.201745 0.00299042 0)
(0.20154 0.00290666 0)
(0.201648 0.00284682 0)
(0.20143 0.00276949 0)
(0.201544 0.00271595 0)
(0.201312 0.00264373 0)
(0.201433 0.00259689 0)
(0.201181 0.00252838 0)
(0.20131 0.00248699 0)
(0.201037 0.00242189 0)
(0.20117 0.00238503 0)
(0.200878 0.00232318 0)
(0.20101 0.002291 0)
(0.200695 0.0022308 0)
(0.200829 0.00220318 0)
(0.200486 0.00214581 0)
(0.200619 0.00211969 0)
(0.200251 0.00206656 0)
(0.200377 0.00204226 0)
(0.199982 0.00199068 0)
(0.200102 0.00197068 0)
(0.199676 0.00192005 0)
(0.199784 0.0019025 0)
(0.199331 0.00185436 0)
(0.199425 0.00183955 0)
(0.198939 0.00179447 0)
(0.199017 0.00178058 0)
(0.198502 0.00174059 0)
(0.198558 0.00173052 0)
(0.198011 0.00169477 0)
(0.198042 0.00168935 0)
(0.197466 0.00166152 0)
(0.197726 0.0047238 0)
(0.19786 0.00528887 0)
(0.198194 0.00582724 0)
(0.198582 0.00627069 0)
(0.199175 0.00657927 0)
(0.199747 0.00670481 0)
(0.200416 0.00667233 0)
(0.200927 0.00650101 0)
(0.201439 0.00625386 0)
(0.201732 0.00595096 0)
(0.202021 0.00564193 0)
(0.202102 0.00533053 0)
(0.202222 0.00505647 0)
(0.202166 0.00480656 0)
(0.202206 0.00460493 0)
(0.202099 0.00442032 0)
(0.20213 0.00426961 0)
(0.202019 0.00412003 0)
(0.202061 0.00399381 0)
(0.201949 0.00386143 0)
(0.201998 0.00375056 0)
(0.20188 0.00363113 0)
(0.201931 0.00353415 0)
(0.201806 0.00342612 0)
(0.20186 0.00334032 0)
(0.201728 0.00324139 0)
(0.201789 0.00316565 0)
(0.20165 0.00307471 0)
(0.20172 0.00300709 0)
(0.201575 0.00292372 0)
(0.20165 0.00286248 0)
(0.201504 0.00278624 0)
(0.201583 0.00273132 0)
(0.201432 0.00265981 0)
(0.201519 0.00261232 0)
(0.201361 0.0025447 0)
(0.201456 0.0025023 0)
(0.201291 0.00243939 0)
(0.201387 0.00240067 0)
(0.201221 0.00234164 0)
(0.201317 0.00230836 0)
(0.201142 0.00225046 0)
(0.201244 0.00222198 0)
(0.201059 0.00216842 0)
(0.201159 0.00213998 0)
(0.200969 0.00209193 0)
(0.201063 0.00206588 0)
(0.200864 0.00201857 0)
(0.200956 0.00199749 0)
(0.200746 0.00195238 0)
(0.200828 0.00193268 0)
(0.20061 0.00189051 0)
(0.200683 0.00187434 0)
(0.200451 0.00183581 0)
(0.20051 0.00181991 0)
(0.200268 0.00178667 0)
(0.200311 0.00177576 0)
(0.200055 0.00174679 0)
(0.200078 0.00174024 0)
(0.199809 0.0017192 0)
(0.198028 0.00460586 0)
(0.198157 0.00509333 0)
(0.198445 0.00555903 0)
(0.198777 0.005947 0)
(0.199273 0.0062334 0)
(0.199762 0.00637258 0)
(0.200336 0.0063799 0)
(0.200798 0.00625941 0)
(0.201258 0.006064 0)
(0.201549 0.00581073 0)
(0.201821 0.00554647 0)
(0.201927 0.00527299 0)
(0.202046 0.00502749 0)
(0.202027 0.00479603 0)
(0.202065 0.00460517 0)
(0.201993 0.0044267 0)
(0.202012 0.00427963 0)
(0.201931 0.00413313 0)
(0.201954 0.00400854 0)
(0.201873 0.00387812 0)
(0.201898 0.00376727 0)
(0.201814 0.00364872 0)
(0.201838 0.00355089 0)
(0.201749 0.00344364 0)
(0.201773 0.00335687 0)
(0.20168 0.00325815 0)
(0.201708 0.00318152 0)
(0.201611 0.00309093 0)
(0.201645 0.00302169 0)
(0.201547 0.00293933 0)
(0.201582 0.00287552 0)
(0.201488 0.00280066 0)
(0.201525 0.00274357 0)
(0.20143 0.0026726 0)
(0.201474 0.00262359 0)
(0.201375 0.00255679 0)
(0.201425 0.00251199 0)
(0.201328 0.0024514 0)
(0.201376 0.00240952 0)
(0.201283 0.0023527 0)
(0.201333 0.00231757 0)
(0.201236 0.00226107 0)
(0.201291 0.00223051 0)
(0.201193 0.00218022 0)
(0.201245 0.0021482 0)
(0.201151 0.00210385 0)
(0.2012 0.0020757 0)
(0.201101 0.00203085 0)
(0.201153 0.00200785 0)
(0.201052 0.0019668 0)
(0.201095 0.00194444 0)
(0.200995 0.00190597 0)
(0.201035 0.00188817 0)
(0.200928 0.00185405 0)
(0.20096 0.00183612 0)
(0.200851 0.00180689 0)
(0.200874 0.00179526 0)
(0.200759 0.00177045 0)
(0.200771 0.00176301 0)
(0.20065 0.001746 0)
(0.198297 0.00449166 0)
(0.198422 0.00491516 0)
(0.198668 0.00532066 0)
(0.198956 0.00566135 0)
(0.199369 0.005924 0)
(0.199789 0.00606828 0)
(0.200275 0.00610435 0)
(0.20069 0.00602741 0)
(0.201097 0.00587828 0)
(0.201382 0.00567073 0)
(0.201634 0.00544691 0)
(0.20176 0.00520839 0)
(0.201874 0.00498998 0)
(0.201886 0.0047779 0)
(0.201922 0.00459884 0)
(0.201881 0.0044282 0)
(0.20189 0.0042853 0)
(0.201836 0.00414294 0)
(0.201843 0.0040202 0)
(0.201788 0.00389276 0)
(0.201795 0.00378218 0)
(0.201738 0.00366521 0)
(0.201742 0.00356653 0)
(0.201681 0.00346047 0)
(0.201683 0.00337265 0)
(0.201618 0.00327433 0)
(0.201623 0.0031966 0)
(0.201556 0.00310666 0)
(0.201563 0.00303556 0)
(0.201498 0.00295442 0)
(0.201505 0.00288796 0)
(0.201444 0.00281431 0)
(0.201452 0.00275526 0)
(0.201392 0.00268453 0)
(0.201405 0.00263397 0)
(0.201343 0.00256789 0)
(0.201361 0.00252046 0)
(0.201303 0.00246189 0)
(0.201319 0.00241709 0)
(0.201265 0.00236159 0)
(0.201284 0.00232494 0)
(0.201227 0.00226925 0)
(0.20125 0.00223644 0)
(0.201196 0.00218873 0)
(0.201216 0.00215354 0)
(0.201166 0.00211132 0)
(0.201187 0.00208182 0)
(0.201133 0.0020381 0)
(0.201156 0.00201336 0)
(0.201104 0.00197491 0)
(0.201122 0.00195058 0)
(0.201071 0.00191401 0)
(0.20109 0.00189498 0)
(0.201035 0.00186346 0)
(0.201049 0.00184423 0)
(0.200994 0.00181695 0)
(0.201004 0.00180497 0)
(0.200945 0.00178229 0)
(0.20095 0.00177444 0)
(0.200888 0.0017594 0)
(0.198539 0.00438222 0)
(0.198657 0.00475276 0)
(0.198867 0.00510792 0)
(0.199117 0.00540859 0)
(0.19946 0.00564802 0)
(0.199821 0.005792 0)
(0.20023 0.00584774 0)
(0.200598 0.00580645 0)
(0.200955 0.00569769 0)
(0.201227 0.0055318 0)
(0.201459 0.00534508 0)
(0.201597 0.00513888 0)
(0.201708 0.0049459 0)
(0.201743 0.00475327 0)
(0.201779 0.00458669 0)
(0.201761 0.00442509 0)
(0.201766 0.00428713 0)
(0.201731 0.00414956 0)
(0.20173 0.00402909 0)
(0.201693 0.00390511 0)
(0.20169 0.00379532 0)
(0.20165 0.00368025 0)
(0.201644 0.00358109 0)
(0.201601 0.00347632 0)
(0.201591 0.0033877 0)
(0.201545 0.0032898 0)
(0.201537 0.00321101 0)
(0.201489 0.00312177 0)
(0.201481 0.00304903 0)
(0.201435 0.00296885 0)
(0.201428 0.0029003 0)
(0.201385 0.00282732 0)
(0.201379 0.00276681 0)
(0.201337 0.00269609 0)
(0.201335 0.00264408 0)
(0.201293 0.00257855 0)
(0.201294 0.00252887 0)
(0.201255 0.00247157 0)
(0.201256 0.00242474 0)
(0.201219 0.00236969 0)
(0.201224 0.00233193 0)
(0.201187 0.0022768 0)
(0.201194 0.00224196 0)
(0.201159 0.00219599 0)
(0.201165 0.00215871 0)
(0.201132 0.00211728 0)
(0.20114 0.00208717 0)
(0.201105 0.00204394 0)
(0.201114 0.0020179 0)
(0.201082 0.0019809 0)
(0.201089 0.00195551 0)
(0.201055 0.00191978 0)
(0.201064 0.00189999 0)
(0.201028 0.00186989 0)
(0.201035 0.00185009 0)
(0.200998 0.00182375 0)
(0.201002 0.00181169 0)
(0.200963 0.00178997 0)
(0.200966 0.00178212 0)
(0.200923 0.00176798 0)
(0.198755 0.00427836 0)
(0.198866 0.0046049 0)
(0.199044 0.00491784 0)
(0.199261 0.00518467 0)
(0.199546 0.00540249 0)
(0.199854 0.00554289 0)
(0.200198 0.00561154 0)
(0.200521 0.00559826 0)
(0.200832 0.00552382 0)
(0.201083 0.005395 0)
(0.201296 0.0052423 0)
(0.201437 0.0050661 0)
(0.201547 0.00489695 0)
(0.201596 0.00472334 0)
(0.201635 0.00456959 0)
(0.201633 0.00441773 0)
(0.201639 0.00428554 0)
(0.201617 0.00415311 0)
(0.201614 0.00403547 0)
(0.201588 0.00391506 0)
(0.201581 0.0038067 0)
(0.201552 0.00369367 0)
(0.201542 0.00359455 0)
(0.201509 0.00349104 0)
(0.201496 0.00340193 0)
(0.20146 0.0033045 0)
(0.201447 0.00322478 0)
(0.20141 0.00313609 0)
(0.201397 0.00306217 0)
(0.201361 0.00298242 0)
(0.201349 0.00291256 0)
(0.201314 0.00283966 0)
(0.201304 0.00277807 0)
(0.20127 0.00270733 0)
(0.201263 0.00265392 0)
(0.201231 0.00258872 0)
(0.201225 0.00253743 0)
(0.201195 0.00248046 0)
(0.201191 0.00243254 0)
(0.201161 0.0023774 0)
(0.201162 0.0023386 0)
(0.201132 0.00228409 0)
(0.201133 0.00224753 0)
(0.201107 0.0022024 0)
(0.201107 0.00216417 0)
(0.201081 0.00212263 0)
(0.201085 0.00209224 0)
(0.201058 0.00204936 0)
(0.201061 0.00202239 0)
(0.201037 0.001986 0)
(0.20104 0.00196027 0)
(0.201012 0.00192493 0)
(0.201018 0.00190461 0)
(0.200989 0.00187533 0)
(0.200993 0.0018554 0)
(0.200963 0.00182958 0)
(0.200965 0.00181762 0)
(0.200933 0.00179628 0)
(0.200935 0.00178863 0)
(0.2009 0.001775 0)
(0.19895 0.00418091 0)
(0.19905 0.00447091 0)
(0.199202 0.00474851 0)
(0.199387 0.0049867 0)
(0.199625 0.00518499 0)
(0.199886 0.0053199 0)
(0.200175 0.00539656 0)
(0.200453 0.00540448 0)
(0.200723 0.00535844 0)
(0.20095 0.00526163 0)
(0.201145 0.00513965 0)
(0.201283 0.0049912 0)
(0.20139 0.00484442 0)
(0.201448 0.00468908 0)
(0.20149 0.00454827 0)
(0.201498 0.00440646 0)
(0.201508 0.00428076 0)
(0.201495 0.00415367 0)
(0.201492 0.00403947 0)
(0.201473 0.00392257 0)
(0.201467 0.00381623 0)
(0.201444 0.00370538 0)
(0.201434 0.00360683 0)
(0.201408 0.00350456 0)
(0.201395 0.00341523 0)
(0.201365 0.00331838 0)
(0.201351 0.00323793 0)
(0.201321 0.00314955 0)
(0.201306 0.00307493 0)
(0.201277 0.00299509 0)
(0.201264 0.00292459 0)
(0.201234 0.00285139 0)
(0.201223 0.0027889 0)
(0.201194 0.00271822 0)
(0.201185 0.00266343 0)
(0.201159 0.00259831 0)
(0.201151 0.00254608 0)
(0.201126 0.00248863 0)
(0.201121 0.00244025 0)
(0.201095 0.00238488 0)
(0.201094 0.00234487 0)
(0.201069 0.00229111 0)
(0.201067 0.00225318 0)
(0.201045 0.00220809 0)
(0.201045 0.00216976 0)
(0.201022 0.0021277 0)
(0.201024 0.002097 0)
(0.201002 0.00205453 0)
(0.201003 0.00202695 0)
(0.200981 0.00199057 0)
(0.200984 0.00196492 0)
(0.200959 0.00192986 0)
(0.200963 0.00190906 0)
(0.200938 0.00188031 0)
(0.200941 0.00186051 0)
(0.200915 0.00183503 0)
(0.200916 0.00182324 0)
(0.200888 0.00180206 0)
(0.20089 0.00179464 0)
(0.200859 0.00178139 0)
(0.199126 0.00408987 0)
(0.199214 0.00434942 0)
(0.199342 0.00459739 0)
(0.199499 0.00481124 0)
(0.199697 0.0049922 0)
(0.199915 0.00512067 0)
(0.200157 0.0052019 0)
(0.200394 0.00522531 0)
(0.200626 0.00520219 0)
(0.200826 0.00513242 0)
(0.201002 0.00503761 0)
(0.201131 0.00491457 0)
(0.201235 0.00478879 0)
(0.201296 0.00465091 0)
(0.201341 0.00452303 0)
(0.201357 0.00439131 0)
(0.20137 0.00427267 0)
(0.201363 0.00415109 0)
(0.201363 0.00404087 0)
(0.201349 0.00392748 0)
(0.201344 0.00382361 0)
(0.201326 0.00371517 0)
(0.201318 0.00361768 0)
(0.201296 0.00351671 0)
(0.201285 0.00342744 0)
(0.20126 0.00333133 0)
(0.201247 0.00325041 0)
(0.201221 0.00316216 0)
(0.201208 0.00308722 0)
(0.201182 0.00300693 0)
(0.20117 0.00293625 0)
(0.201144 0.00286257 0)
(0.201134 0.00279924 0)
(0.201109 0.00272872 0)
(0.2011 0.00267264 0)
(0.201077 0.00260735 0)
(0.201069 0.00255466 0)
(0.201047 0.00249629 0)
(0.201043 0.00244772 0)
(0.20102 0.00239216 0)
(0.201018 0.0023508 0)
(0.200997 0.0022978 0)
(0.200995 0.00225884 0)
(0.200975 0.00221328 0)
(0.200975 0.00217528 0)
(0.200955 0.00213257 0)
(0.200956 0.00210151 0)
(0.200937 0.00205944 0)
(0.200937 0.00203147 0)
(0.200918 0.00199485 0)
(0.200921 0.00196933 0)
(0.200898 0.00193464 0)
(0.200902 0.00191339 0)
(0.20088 0.00188495 0)
(0.200882 0.00186547 0)
(0.200859 0.00184022 0)
(0.200859 0.00182856 0)
(0.200835 0.00180754 0)
(0.200836 0.00180032 0)
(0.200809 0.00178739 0)
(0.19929 0.00400302 0)
(0.199365 0.00423628 0)
(0.199471 0.00445882 0)
(0.199599 0.00465161 0)
(0.199761 0.00481725 0)
(0.199941 0.00493908 0)
(0.20014 0.00502268 0)
(0.200338 0.00505745 0)
(0.200534 0.00505288 0)
(0.200706 0.00500596 0)
(0.200861 0.00493515 0)
(0.200979 0.00483542 0)
(0.201076 0.00472956 0)
(0.201137 0.00460858 0)
(0.201184 0.00449369 0)
(0.201204 0.00437215 0)
(0.20122 0.00426099 0)
(0.201218 0.00414516 0)
(0.20122 0.00403938 0)
(0.20121 0.00392962 0)
(0.201208 0.00382856 0)
(0.201193 0.00372283 0)
(0.201187 0.00362686 0)
(0.201169 0.00352735 0)
(0.201161 0.00343846 0)
(0.20114 0.0033433 0)
(0.201129 0.00326222 0)
(0.201107 0.003174 0)
(0.201096 0.00309901 0)
(0.201074 0.00301815 0)
(0.201063 0.00294753 0)
(0.20104 0.00287334 0)
(0.201032 0.00280921 0)
(0.20101 0.00273888 0)
(0.201002 0.00268163 0)
(0.200983 0.00261604 0)
(0.200976 0.00256314 0)
(0.200957 0.00250367 0)
(0.200953 0.00245498 0)
(0.200933 0.00239931 0)
(0.200931 0.00235653 0)
(0.200913 0.00230425 0)
(0.200911 0.00226445 0)
(0.200894 0.0022182 0)
(0.200894 0.00218071 0)
(0.200876 0.00213727 0)
(0.200877 0.00210588 0)
(0.200861 0.00206419 0)
(0.200861 0.00203584 0)
(0.200844 0.00199906 0)
(0.200847 0.00197357 0)
(0.200827 0.00193923 0)
(0.20083 0.00191773 0)
(0.200811 0.00188935 0)
(0.200812 0.00187027 0)
(0.200793 0.00184529 0)
(0.200793 0.00183365 0)
(0.200772 0.00181283 0)
(0.200773 0.00180582 0)
(0.200749 0.00179314 0)
(0.199445 0.00391873 0)
(0.199505 0.00412858 0)
(0.199589 0.00432904 0)
(0.19969 0.00450368 0)
(0.199819 0.00465616 0)
(0.199962 0.00477194 0)
(0.200122 0.00485684 0)
(0.200282 0.00490026 0)
(0.200443 0.00491086 0)
(0.200586 0.00488333 0)
(0.200718 0.0048335 0)
(0.200821 0.00475492 0)
(0.200908 0.0046678 0)
(0.200966 0.00456306 0)
(0.201012 0.00446108 0)
(0.201034 0.00434964 0)
(0.201052 0.0042462 0)
(0.201055 0.00413623 0)
(0.201059 0.00403517 0)
(0.201052 0.00392914 0)
(0.201052 0.00383108 0)
(0.20104 0.00372834 0)
(0.201037 0.00363417 0)
(0.201022 0.00353634 0)
(0.201017 0.00344816 0)
(0.201 0.00335408 0)
(0.200992 0.00327318 0)
(0.200974 0.00318496 0)
(0.200965 0.00311013 0)
(0.200947 0.00302873 0)
(0.200938 0.00295822 0)
(0.200919 0.00288365 0)
(0.200912 0.00281875 0)
(0.200894 0.00274859 0)
(0.200887 0.00269035 0)
(0.200871 0.00262436 0)
(0.200865 0.00257136 0)
(0.20085 0.00251081 0)
(0.200846 0.00246195 0)
(0.20083 0.00240623 0)
(0.200829 0.00236207 0)
(0.200813 0.00231041 0)
(0.200812 0.00226989 0)
(0.200797 0.00222286 0)
(0.200797 0.002186 0)
(0.200783 0.00214172 0)
(0.200783 0.00211008 0)
(0.20077 0.00206879 0)
(0.20077 0.00203987 0)
(0.200756 0.00200317 0)
(0.200758 0.00197763 0)
(0.200741 0.00194346 0)
(0.200744 0.001922 0)
(0.200729 0.00189355 0)
(0.200729 0.00187478 0)
(0.200713 0.00185018 0)
(0.200714 0.00183847 0)
(0.200695 0.00181789 0)
(0.200697 0.00181107 0)
(0.200677 0.00179862 0)
(0.199587 0.00383868 0)
(0.199633 0.00402801 0)
(0.199696 0.00420984 0)
(0.199771 0.0043694 0)
(0.199869 0.0045113 0)
(0.199978 0.00462228 0)
(0.200101 0.00470812 0)
(0.200225 0.00475834 0)
(0.200351 0.00478106 0)
(0.200465 0.00476947 0)
(0.200572 0.00473722 0)
(0.200657 0.00467689 0)
(0.200731 0.00460658 0)
(0.200782 0.00451668 0)
(0.200824 0.00442696 0)
(0.200847 0.00432509 0)
(0.200865 0.0042292 0)
(0.20087 0.00412496 0)
(0.200876 0.00402855 0)
(0.200872 0.00392627 0)
(0.200873 0.00383115 0)
(0.200865 0.00373149 0)
(0.200864 0.00363923 0)
(0.200853 0.0035432 0)
(0.20085 0.00345606 0)
(0.200838 0.00336307 0)
(0.200832 0.00328271 0)
(0.200819 0.00319453 0)
(0.200811 0.00311997 0)
(0.200798 0.00303823 0)
(0.200791 0.00296776 0)
(0.200776 0.00289299 0)
(0.200771 0.00282742 0)
(0.200757 0.00275737 0)
(0.200752 0.0026984 0)
(0.200739 0.00263193 0)
(0.200735 0.00257892 0)
(0.200723 0.00251742 0)
(0.20072 0.00246834 0)
(0.200707 0.00241262 0)
(0.200707 0.00236718 0)
(0.200694 0.00231604 0)
(0.200694 0.0022749 0)
(0.200682 0.00222709 0)
(0.200682 0.00219089 0)
(0.200672 0.00214572 0)
(0.200671 0.0021139 0)
(0.200662 0.00207304 0)
(0.200662 0.00204336 0)
(0.20065 0.002007 0)
(0.200653 0.00198133 0)
(0.200639 0.00194713 0)
(0.200642 0.00192595 0)
(0.20063 0.00189732 0)
(0.20063 0.00187881 0)
(0.200618 0.00185463 0)
(0.200618 0.00184278 0)
(0.200604 0.00182248 0)
(0.200605 0.00181584 0)
(0.200589 0.00180355 0)
(0.199716 0.00376655 0)
(0.199748 0.00393857 0)
(0.199791 0.00410529 0)
(0.199842 0.00425303 0)
(0.19991 0.00438707 0)
(0.199987 0.00449479 0)
(0.200075 0.00458156 0)
(0.200165 0.0046372 0)
(0.200257 0.00466921 0)
(0.20034 0.00467006 0)
(0.20042 0.00465168 0)
(0.200485 0.004606 0)
(0.200543 0.00454974 0)
(0.200584 0.00447245 0)
(0.200618 0.00439358 0)
(0.200639 0.00430015 0)
(0.200655 0.0042112 0)
(0.200662 0.00411221 0)
(0.200668 0.00402002 0)
(0.200667 0.00392126 0)
(0.200669 0.00382882 0)
(0.200665 0.00373206 0)
(0.200666 0.00364166 0)
(0.200659 0.00354743 0)
(0.200658 0.00346158 0)
(0.20065 0.00336957 0)
(0.200646 0.00329004 0)
(0.200638 0.00320193 0)
(0.200633 0.00312782 0)
(0.200624 0.00304593 0)
(0.20062 0.00297546 0)
(0.200609 0.00290072 0)
(0.200606 0.0028346 0)
(0.200596 0.00276466 0)
(0.200593 0.00270524 0)
(0.200585 0.00263829 0)
(0.200582 0.00258536 0)
(0.200574 0.00252308 0)
(0.200572 0.00247379 0)
(0.200563 0.0024181 0)
(0.200563 0.00237161 0)
(0.200554 0.00232084 0)
(0.200555 0.00227928 0)
(0.200546 0.00223065 0)
(0.200547 0.00219522 0)
(0.20054 0.00214903 0)
(0.200539 0.00211727 0)
(0.200533 0.00207674 0)
(0.200533 0.00204616 0)
(0.200525 0.00201043 0)
(0.200528 0.00198448 0)
(0.200518 0.00195009 0)
(0.20052 0.00192954 0)
(0.200512 0.00190036 0)
(0.200512 0.00188229 0)
(0.200504 0.00185844 0)
(0.200504 0.00184638 0)
(0.200494 0.00182634 0)
(0.200495 0.00181999 0)
(0.200484 0.00180765 0)
(0.199832 0.00370879 0)
(0.19985 0.00386709 0)
(0.199874 0.00402243 0)
(0.199904 0.00416172 0)
(0.199944 0.0042905 0)
(0.19999 0.00439633 0)
(0.200044 0.00448397 0)
(0.200098 0.00454359 0)
(0.200156 0.00458203 0)
(0.200208 0.00459158 0)
(0.200259 0.00458299 0)
(0.200301 0.00454779 0)
(0.200339 0.00450184 0)
(0.200367 0.004434 0)