/*--------------------------------*- C++ -*----------------------------------*\
| =========                 |                                                 |
| \\      /  F ield         | OpenFOAM: The Open Source CFD Toolbox           |
|  \\    /   O peration     | Version:  2.3.0                                 |
|   \\  /    A nd           | Web:      www.OpenFOAM.org                      |
|    \\/     M anipulation  |                                                 |
\*---------------------------------------------------------------------------*/
FoamFile
{
    version     2.0;
    format      ascii;
    class       surfaceScalarField;
    location    "0.05";
    object      phi;
}
// * * * * * * * * * * * * * * * * * * * * * * * * * * * * * * * * * * * * * //

dimensions      [0 3 -1 0 0 0 0];

internalField   nonuniform List<scalar> 
6598
(
2.87166e-08
2.88216e-09
-3.15987e-08
2.58683e-08
2.84828e-09
2.32018e-08
2.66649e-09
2.0749e-08
2.45279e-09
1.85265e-08
2.22245e-09
1.65456e-08
1.98093e-09
1.4809e-08
1.73658e-09
1.3312e-08
1.49699e-09
1.20435e-08
1.26852e-09
1.09873e-08
1.05626e-09
1.01235e-08
8.63747e-10
9.43082e-09
6.92683e-10
8.88787e-09
5.42952e-10
8.47489e-09
4.12983e-10
8.17448e-09
3.00404e-10
7.97216e-09
2.02327e-10
7.8585e-09
1.13659e-10
7.82823e-09
3.02702e-11
7.85622e-09
-2.79969e-11
7.9096e-09
-5.33798e-11
7.96832e-09
-5.87165e-11
8.02233e-09
-5.40094e-11
8.06771e-09
-4.53759e-11
8.10387e-09
-3.61685e-11
8.13175e-09
-2.78802e-11
8.15275e-09
-2.0998e-11
8.16829e-09
-1.55414e-11
8.17967e-09
-1.13806e-11
8.18798e-09
-8.30061e-12
8.19405e-09
-6.07274e-12
8.19854e-09
-4.48981e-12
8.20192e-09
-3.37851e-12
8.20452e-09
-2.60182e-12
8.20657e-09
-2.0564e-12
8.20824e-09
-1.66753e-12
8.20963e-09
-1.3834e-12
8.21079e-09
-1.16912e-12
8.2118e-09
-1.00109e-12
8.21266e-09
-8.64557e-13
8.21341e-09
-7.50393e-13
8.21406e-09
-6.52903e-13
8.21463e-09
-5.68541e-13
8.21513e-09
-4.9498e-13
8.21556e-09
-4.30574e-13
8.21593e-09
-3.74129e-13
8.21626e-09
-3.24707e-13
8.21654e-09
-2.81445e-13
8.21678e-09
-2.43657e-13
8.21699e-09
-2.10727e-13
8.21717e-09
-1.82018e-13
8.21733e-09
-1.57019e-13
8.21747e-09
-1.35328e-13
8.21758e-09
-1.16529e-13
8.21768e-09
-1.00193e-13
8.21777e-09
-8.60515e-14
8.21784e-09
-7.38197e-14
8.21791e-09
-6.32657e-14
8.21796e-09
-5.41363e-14
8.21801e-09
-4.62673e-14
8.21805e-09
-3.94964e-14
8.21808e-09
-3.36708e-14
8.21811e-09
-2.86715e-14
8.21813e-09
-2.43748e-14
8.21815e-09
-2.06954e-14
8.21817e-09
-1.7548e-14
8.21819e-09
-1.48567e-14
8.2182e-09
-1.25613e-14
8.21821e-09
-1.0589e-14
8.21822e-09
-8.92157e-15
8.21823e-09
-7.4964e-15
8.21823e-09
-6.30093e-15
8.21824e-09
-5.26829e-15
8.21824e-09
-4.40381e-15
8.21825e-09
-3.66417e-15
8.21825e-09
-3.04705e-15
8.21825e-09
-2.53467e-15
8.21825e-09
-2.07848e-15
8.21825e-09
-1.71971e-15
8.21826e-09
-1.39643e-15
8.21826e-09
-1.14891e-15
8.21826e-09
-9.38693e-16
8.21826e-09
-7.45062e-16
8.21826e-09
-5.96224e-16
8.21826e-09
-4.53002e-16
8.21826e-09
-3.55473e-16
8.21826e-09
-2.7454e-16
8.21826e-09
-2.04765e-16
8.21826e-09
-1.51552e-16
8.21826e-09
-9.63823e-17
8.21826e-09
-6.10464e-17
8.21826e-09
-3.21823e-17
8.21826e-09
-1.01957e-17
8.21826e-09
4.74052e-18
8.21826e-09
2.52405e-17
8.21826e-09
4.39248e-17
8.21826e-09
6.07436e-17
8.21826e-09
6.71674e-17
8.21826e-09
7.15642e-17
8.21826e-09
6.34285e-17
7.45834e-17
3.44289e-08
3.11841e-09
-3.46652e-08
3.38836e-08
3.39361e-09
3.31123e-08
3.43774e-09
3.21915e-08
3.37359e-09
3.11779e-08
3.23611e-09
3.01186e-08
3.04019e-09
2.90527e-08
2.80243e-09
2.80112e-08
2.53855e-09
2.70181e-08
2.26164e-09
2.60922e-08
1.98216e-09
2.52481e-08
1.70785e-09
2.44971e-08
1.44364e-09
2.38482e-08
1.1919e-09
2.33078e-08
9.53356e-10
2.28799e-08
7.28314e-10
2.25648e-08
5.17397e-10
2.23553e-08
3.23155e-10
2.22332e-08
1.52402e-10
2.219e-08
1.51284e-11
2.22129e-08
-7.62074e-11
2.22749e-08
-1.20733e-10
2.2354e-08
-1.33157e-10
2.24356e-08
-1.26908e-10
2.25107e-08
-1.11297e-10
2.25752e-08
-9.23423e-11
2.26277e-08
-7.3565e-11
2.2669e-08
-5.67908e-11
2.27004e-08
-4.27855e-11
2.27237e-08
-3.16552e-11
2.27408e-08
-2.31449e-11
2.27532e-08
-1.68387e-11
2.27621e-08
-1.22819e-11
2.27685e-08
-9.0514e-12
2.27732e-08
-6.78836e-12
2.27768e-08
-5.20883e-12
2.27795e-08
-4.09972e-12
2.27816e-08
-3.30819e-12
2.27834e-08
-2.72832e-12
2.27848e-08
-2.2895e-12
2.2786e-08
-1.94589e-12
2.2787e-08
-1.66812e-12
2.27879e-08
-1.43765e-12
2.27886e-08
-1.24278e-12
2.27893e-08
-1.0759e-12
2.27898e-08
-9.31854e-13
2.27903e-08
-8.0702e-13
2.27907e-08
-6.9859e-13
2.27911e-08
-6.04338e-13
2.27914e-08
-5.22454e-13
2.27917e-08
-4.51307e-13
2.27919e-08
-3.89504e-13
2.27921e-08
-3.35883e-13
2.27923e-08
-2.89404e-13
2.27924e-08
-2.49087e-13
2.27925e-08
-2.14156e-13
2.27927e-08
-1.83935e-13
2.27928e-08
-1.57808e-13
2.27928e-08
-1.35225e-13
2.27929e-08
-1.1572e-13
2.2793e-08
-9.89153e-14
2.2793e-08
-8.44407e-14
2.27931e-08
-7.19899e-14
2.27931e-08
-6.12838e-14
2.27931e-08
-5.20926e-14
2.27932e-08
-4.42125e-14
2.27932e-08
-3.74536e-14
2.27932e-08
-3.16655e-14
2.27932e-08
-2.67104e-14
2.27932e-08
-2.24941e-14
2.27932e-08
-1.89109e-14
2.27932e-08
-1.58664e-14
2.27933e-08
-1.32713e-14
2.27933e-08
-1.106e-14
2.27933e-08
-9.19209e-15
2.27933e-08
-7.60329e-15
2.27933e-08
-6.27877e-15
2.27933e-08
-5.13599e-15
2.27933e-08
-4.19301e-15
2.27933e-08
-3.39394e-15
2.27933e-08
-2.72599e-15
2.27933e-08
-2.17626e-15
2.27933e-08
-1.68893e-15
2.27933e-08
-1.29999e-15
2.27933e-08
-9.69784e-16
2.27933e-08
-7.0929e-16
2.27933e-08
-5.03097e-16
2.27933e-08
-3.1946e-16
2.27933e-08
-1.77041e-16
2.27933e-08
-5.72671e-17
2.27933e-08
3.08717e-17
2.27933e-08
1.02947e-16
2.27933e-08
1.70098e-16
2.27933e-08
2.25626e-16
2.27933e-08
2.78515e-16
2.27933e-08
3.15784e-16
2.27933e-08
3.40785e-16
2.27933e-08
3.5078e-16
2.27933e-08
3.51381e-16
2.27933e-08
3.43673e-16
2.54607e-16
3.65217e-08
2.91949e-09
-3.63228e-08
3.6634e-08
3.28139e-09
3.66271e-08
3.44462e-09
3.65073e-08
3.49338e-09
3.62858e-08
3.45763e-09
3.59781e-08
3.34783e-09
3.56037e-08
3.17684e-09
3.5183e-08
2.9593e-09
3.4736e-08
2.70863e-09
3.4282e-08
2.43614e-09
3.38391e-08
2.15081e-09
3.34236e-08
1.85911e-09
3.30501e-08
1.56545e-09
3.27302e-08
1.27322e-09
3.24722e-08
9.863e-10
3.22794e-08
7.10242e-10
3.21487e-08
4.53798e-10
3.20709e-08
2.30231e-10
3.20327e-08
5.33074e-11
3.20301e-08
-7.36399e-11
3.20566e-08
-1.47178e-10
3.2104e-08
-1.80563e-10
3.21635e-08
-1.86402e-10
3.22274e-08
-1.75232e-10
3.229e-08
-1.54896e-10
3.23473e-08
-1.30854e-10
3.23971e-08
-1.06648e-10
3.24387e-08
-8.4387e-11
3.24722e-08
-6.51408e-11
3.24983e-08
-4.92646e-11
3.25182e-08
-3.66608e-11
3.25328e-08
-2.69738e-11
3.25435e-08
-1.97316e-11
3.25512e-08
-1.44408e-11
3.25566e-08
-1.0645e-11
3.25605e-08
-7.95547e-12
3.25632e-08
-6.06011e-12
3.25652e-08
-4.72069e-12
3.25667e-08
-3.763e-12
3.25678e-08
-3.06432e-12
3.25687e-08
-2.54072e-12
3.25694e-08
-2.1363e-12
3.257e-08
-1.81465e-12
3.25704e-08
-1.5522e-12
3.25708e-08
-1.33367e-12
3.25712e-08
-1.14905e-12
3.25715e-08
-9.91514e-13
3.25717e-08
-8.56203e-13
3.25719e-08
-7.39568e-13
3.25721e-08
-6.38789e-13
3.25723e-08
-5.5157e-13
3.25724e-08
-4.76045e-13
3.25725e-08
-4.10639e-13
3.25726e-08
-3.53954e-13
3.25727e-08
-3.04829e-13
3.25728e-08
-2.62301e-13
3.25729e-08
-2.25486e-13
3.25729e-08
-1.93631e-13
3.2573e-08
-1.66072e-13
3.2573e-08
-1.42281e-13
3.25731e-08
-1.21747e-13
3.25731e-08
-1.04041e-13
3.25731e-08
-8.87835e-14
3.25732e-08
-7.56498e-14
3.25732e-08
-6.43567e-14
3.25732e-08
-5.46426e-14
3.25732e-08
-4.62981e-14
3.25732e-08
-3.9144e-14
3.25732e-08
-3.3036e-14
3.25732e-08
-2.78357e-14
3.25732e-08
-2.33978e-14
3.25733e-08
-1.96135e-14
3.25733e-08
-1.63726e-14
3.25733e-08
-1.36307e-14
3.25733e-08
-1.12878e-14
3.25733e-08
-9.32341e-15
3.25733e-08
-7.64138e-15
3.25733e-08
-6.23366e-15
3.25733e-08
-5.05213e-15
3.25733e-08
-4.04747e-15
3.25733e-08
-3.21834e-15
3.25733e-08
-2.49573e-15
3.25733e-08
-1.90816e-15
3.25733e-08
-1.42305e-15
3.25733e-08
-1.02609e-15
3.25733e-08
-7.10284e-16
3.25733e-08
-4.30811e-16
3.25733e-08
-2.07896e-16
3.25733e-08
-2.28057e-17
3.25733e-08
1.25301e-16
3.25733e-08
2.43123e-16
3.25733e-08
3.45018e-16
3.25733e-08
4.26565e-16
3.25733e-08
4.94479e-16
3.25733e-08
5.38263e-16
3.25733e-08
5.62518e-16
3.25733e-08
5.69779e-16
3.25733e-08
5.65421e-16
3.25733e-08
5.45066e-16
3.65712e-16
3.80934e-08
2.68351e-09
-3.78574e-08
3.83346e-08
3.04016e-09
3.85399e-08
3.23929e-09
3.86986e-08
3.33475e-09
3.88046e-08
3.35158e-09
3.88551e-08
3.2973e-09
3.8852e-08
3.17996e-09
3.8801e-08
3.01027e-09
3.87107e-08
2.79897e-09
3.85912e-08
2.55563e-09
3.84537e-08
2.2883e-09
3.83094e-08
2.00345e-09
3.81684e-08
1.70644e-09
3.80391e-08
1.40251e-09
3.79273e-08
1.0981e-09
3.78355e-08
8.01994e-10
3.77632e-08
5.26153e-10
3.77077e-08
2.85725e-10
3.76663e-08
9.47037e-11
3.7637e-08
-4.42996e-11
3.76228e-08
-1.32971e-10
3.7623e-08
-1.80831e-10
3.76352e-08
-1.98614e-10
3.76559e-08
-1.95939e-10
3.76816e-08
-1.80579e-10
3.77092e-08
-1.58432e-10
3.77363e-08
-1.33721e-10
3.77612e-08
-1.09289e-10
3.77829e-08
-8.68877e-11
3.78011e-08
-6.74421e-11
3.78157e-08
-5.12799e-11
3.78271e-08
-3.83286e-11
3.78356e-08
-2.82738e-11
3.78419e-08
-2.06805e-11
3.78463e-08
-1.50811e-11
3.78494e-08
-1.10326e-11
3.78515e-08
-8.14876e-12
3.78529e-08
-6.11294e-12
3.78538e-08
-4.67861e-12
3.78544e-08
-3.66197e-12
3.78548e-08
-2.93093e-12
3.7855e-08
-2.39361e-12
3.78552e-08
-1.9879e-12
3.78553e-08
-1.6726e-12
3.78554e-08
-1.4208e-12
3.78555e-08
-1.21502e-12
3.78555e-08
-1.04374e-12
3.78556e-08
-8.99225e-13
3.78556e-08
-7.7616e-13
3.78556e-08
-6.70699e-13
3.78557e-08
-5.79904e-13
3.78557e-08
-5.01498e-13
3.78557e-08
-4.33671e-13
3.78557e-08
-3.74897e-13
3.78557e-08
-3.23914e-13
3.78558e-08
-2.797e-13
3.78558e-08
-2.41332e-13
3.78558e-08
-2.08045e-13
3.78558e-08
-1.79153e-13
3.78558e-08
-1.54123e-13
3.78558e-08
-1.32437e-13
3.78558e-08
-1.13663e-13
3.78558e-08
-9.74181e-14
3.78558e-08
-8.33743e-14
3.78559e-08
-7.12441e-14
3.78559e-08
-6.0762e-14
3.78559e-08
-5.17167e-14
3.78559e-08
-4.39318e-14
3.78559e-08
-3.72565e-14
3.78559e-08
-3.15502e-14
3.78559e-08
-2.66554e-14
3.78559e-08
-2.2465e-14
3.78559e-08
-1.8857e-14
3.78559e-08
-1.5792e-14
3.78559e-08
-1.31605e-14
3.78559e-08
-1.09411e-14
3.78559e-08
-9.04053e-15
3.78559e-08
-7.43543e-15
3.78559e-08
-6.08792e-15
3.78559e-08
-4.93178e-15
3.78559e-08
-3.97126e-15
3.78559e-08
-3.13865e-15
3.78559e-08
-2.45322e-15
3.78559e-08
-1.8919e-15
3.78559e-08
-1.42427e-15
3.78559e-08
-1.04818e-15
3.78559e-08
-7.14441e-16
3.78559e-08
-4.39801e-16
3.78559e-08
-2.10521e-16
3.78559e-08
-2.64837e-17
3.78559e-08
1.15613e-16
3.78559e-08
2.36548e-16
3.78559e-08
3.33226e-16
3.78559e-08
4.09021e-16
3.78559e-08
4.56229e-16
3.78559e-08
4.8004e-16
3.78559e-08
4.86679e-16
3.78559e-08
4.81814e-16
3.78559e-08
4.57016e-16
2.90306e-16
3.96272e-08
2.47389e-09
-3.94176e-08
3.98691e-08
2.7983e-09
4.01083e-08
3.00009e-09
4.03331e-08
3.10993e-09
4.05365e-08
3.14815e-09
4.0712e-08
3.12184e-09
4.08552e-08
3.03669e-09
4.0965e-08
2.9005e-09
4.10424e-08
2.72159e-09
4.10904e-08
2.50764e-09
4.11132e-08
2.26544e-09
4.11157e-08
2.00098e-09
4.11023e-08
1.71983e-09
4.10768e-08
1.42808e-09
4.10416e-08
1.13329e-09
4.09983e-08
8.45309e-10
4.09479e-08
5.76473e-10
4.08928e-08
3.40849e-10
4.08367e-08
1.50824e-10
4.07828e-08
9.61722e-12
4.0736e-08
-8.61896e-11
4.06987e-08
-1.4356e-10
4.06715e-08
-1.71358e-10
4.06534e-08
-1.77837e-10
4.06429e-08
-1.70072e-10
4.06382e-08
-1.53726e-10
4.06375e-08
-1.33085e-10
4.06394e-08
-1.11221e-10
4.06428e-08
-9.01897e-11
4.06465e-08
-7.12337e-11
4.06502e-08
-5.49723e-11
4.06535e-08
-4.15763e-11
4.06561e-08
-3.09168e-11
4.06581e-08
-2.26885e-11
4.06596e-08
-1.65042e-11
4.06605e-08
-1.19628e-11
4.0661e-08
-8.69171e-12
4.06613e-08
-6.37015e-12
4.06613e-08
-4.7378e-12
4.06613e-08
-3.59329e-12
4.06611e-08
-2.78705e-12
4.0661e-08
-2.21186e-12
4.06608e-08
-1.79325e-12
4.06606e-08
-1.48076e-12
4.06604e-08
-1.24087e-12
4.06602e-08
-1.05163e-12
4.06601e-08
-8.98693e-13
4.06599e-08
-7.72549e-13
4.06598e-08
-6.6688e-13
4.06597e-08
-5.77346e-13
4.06597e-08
-5.00808e-13
4.06596e-08
-4.34941e-13
4.06595e-08
-3.78002e-13
4.06595e-08
-3.28614e-13
4.06595e-08
-2.85656e-13
4.06594e-08
-2.48253e-13
4.06594e-08
-2.15629e-13
4.06594e-08
-1.87167e-13
4.06594e-08
-1.62306e-13
4.06594e-08
-1.40623e-13
4.06593e-08
-1.21701e-13
4.06593e-08
-1.05199e-13
4.06593e-08
-9.08137e-14
4.06593e-08
-7.82834e-14
4.06593e-08
-6.73777e-14
4.06593e-08
-5.78807e-14
4.06593e-08
-4.96242e-14
4.06593e-08
-4.24701e-14
4.06593e-08
-3.62933e-14
4.06593e-08
-3.09771e-14
4.06593e-08
-2.63802e-14
4.06593e-08
-2.24173e-14
4.06593e-08
-1.89782e-14
4.06593e-08
-1.60387e-14
4.06593e-08
-1.34976e-14
4.06593e-08
-1.13386e-14
4.06593e-08
-9.48198e-15
4.06593e-08
-7.89901e-15
4.06593e-08
-6.56437e-15
4.06593e-08
-5.40853e-15
4.06593e-08
-4.44019e-15
4.06593e-08
-3.6007e-15
4.06593e-08
-2.9023e-15
4.06593e-08
-2.33154e-15
4.06593e-08
-1.84956e-15
4.06593e-08
-1.4574e-15
4.06593e-08
-1.10766e-15
4.06593e-08
-8.14885e-16
4.06593e-08
-5.70502e-16
4.06593e-08
-3.70428e-16
4.06593e-08
-2.14077e-16
4.06593e-08
-8.20478e-17
4.06593e-08
2.39553e-17
4.06593e-08
1.05036e-16
4.06593e-08
1.55483e-16
4.06593e-08
1.81004e-16
4.06593e-08
1.9042e-16
4.06593e-08
1.90221e-16
4.06593e-08
1.74975e-16
7.74555e-17
4.12007e-08
2.29215e-09
-4.1019e-08
4.14207e-08
2.57826e-09
4.16505e-08
2.77031e-09
4.1878e-08
2.88243e-09
4.20968e-08
2.92933e-09
4.2301e-08
2.91772e-09
4.24854e-08
2.85228e-09
4.26468e-08
2.73903e-09
4.27837e-08
2.5847e-09
4.28956e-08
2.39573e-09
4.2983e-08
2.17806e-09
4.30468e-08
1.93721e-09
4.30879e-08
1.67876e-09
4.3107e-08
1.40897e-09
4.31048e-08
1.1355e-09
4.30822e-08
8.6788e-10
4.30413e-08
6.17377e-10
4.29861e-08
3.95993e-10
4.29231e-08
2.13829e-10
4.28581e-08
7.46109e-11
4.27961e-08
-2.41717e-11
4.27407e-08
-8.8109e-11
4.26935e-08
-1.24178e-10
4.2655e-08
-1.3932e-10
4.26246e-08
-1.39743e-10
4.26015e-08
-1.30622e-10
4.25845e-08
-1.16029e-10
4.25723e-08
-9.9006e-11
4.25638e-08
-8.16924e-11
4.2558e-08
-6.54763e-11
4.25542e-08
-5.11509e-11
4.25517e-08
-3.90625e-11
4.255e-08
-2.9244e-11
4.25488e-08
-2.1528e-11
4.2548e-08
-1.5638e-11
4.25473e-08
-1.1256e-11
4.25466e-08
-8.06799e-12
4.25461e-08
-5.79193e-12
4.25455e-08
-4.19057e-12
4.2545e-08
-3.07482e-12
4.25445e-08
-2.30041e-12
4.25441e-08
-1.76131e-12
4.25437e-08
-1.38215e-12
4.25433e-08
-1.11077e-12
4.2543e-08
-9.11924e-13
4.25427e-08
-7.6225e-13
4.25424e-08
-6.46408e-13
4.25422e-08
-5.54276e-13
4.2542e-08
-4.79238e-13
4.25418e-08
-4.16924e-13
4.25417e-08
-3.64323e-13
4.25416e-08
-3.19314e-13
4.25415e-08
-2.80418e-13
4.25414e-08
-2.46562e-13
4.25413e-08
-2.1691e-13
4.25413e-08
-1.90851e-13
4.25412e-08
-1.67859e-13
4.25412e-08
-1.47548e-13
4.25412e-08
-1.29566e-13
4.25411e-08
-1.13661e-13
4.25411e-08
-9.9579e-14
4.25411e-08
-8.71165e-14
4.25411e-08
-7.60959e-14
4.25411e-08
-6.63608e-14
4.25411e-08
-5.777e-14
4.25411e-08
-5.01863e-14
4.2541e-08
-4.35076e-14
4.2541e-08
-3.76522e-14
4.2541e-08
-3.25369e-14
4.2541e-08
-2.80829e-14
4.2541e-08
-2.41813e-14
4.2541e-08
-2.07798e-14
4.2541e-08
-1.7793e-14
4.2541e-08
-1.5217e-14
4.2541e-08
-1.29679e-14
4.2541e-08
-1.10372e-14
4.2541e-08
-9.36379e-15
4.2541e-08
-7.91968e-15
4.2541e-08
-6.69272e-15
4.2541e-08
-5.61789e-15
4.2541e-08
-4.70792e-15
4.2541e-08
-3.91657e-15
4.2541e-08
-3.25117e-15
4.2541e-08
-2.70663e-15
4.2541e-08
-2.24071e-15
4.2541e-08
-1.85647e-15
4.2541e-08
-1.51151e-15
4.2541e-08
-1.21841e-15
4.2541e-08
-9.73464e-16
4.2541e-08
-7.70108e-16
4.2541e-08
-6.08247e-16
4.2541e-08
-4.70124e-16
4.2541e-08
-3.57709e-16
4.2541e-08
-2.72509e-16
4.2541e-08
-2.1906e-16
4.2541e-08
-1.90649e-16
4.2541e-08
-1.76424e-16
4.2541e-08
-1.68672e-16
4.2541e-08
-1.67118e-16
-1.94742e-16
4.28262e-08
2.13186e-09
-4.26659e-08
4.30239e-08
2.38058e-09
4.32365e-08
2.5577e-09
4.34519e-08
2.667e-09
4.36637e-08
2.7176e-09
4.38662e-08
2.71515e-09
4.40549e-08
2.66364e-09
4.4226e-08
2.56791e-09
4.43772e-08
2.43352e-09
4.45068e-08
2.26608e-09
4.46139e-08
2.07097e-09
4.46977e-08
1.85339e-09
4.47577e-08
1.61878e-09
4.47934e-08
1.37326e-09
4.48048e-08
1.12409e-09
4.47928e-08
8.79946e-10
4.47595e-08
6.50621e-10
4.47094e-08
4.46069e-10
4.46488e-08
2.74439e-10
4.4584e-08
1.39411e-10
4.45201e-08
3.97546e-11
4.44607e-08
-2.87431e-11
4.44081e-08
-7.15507e-11
4.43632e-08
-9.43874e-11
4.4326e-08
-1.0258e-10
4.42961e-08
-1.00729e-10
4.42727e-08
-9.25811e-11
4.42547e-08
-8.10308e-11
4.42412e-08
-6.81943e-11
4.42312e-08
-5.5519e-11
4.4224e-08
-4.39061e-11
4.42188e-08
-3.38334e-11
4.4215e-08
-2.547e-11
4.42122e-08
-1.87767e-11
4.42102e-08
-1.35898e-11
4.42086e-08
-9.68362e-12
4.42074e-08
-6.81659e-12
4.42063e-08
-4.75999e-12
4.42055e-08
-3.31413e-12
4.42047e-08
-2.31484e-12
4.4204e-08
-1.63344e-12
4.42034e-08
-1.17307e-12
4.42029e-08
-8.63346e-13
4.42025e-08
-6.54593e-13
4.42021e-08
-5.1267e-13
4.42017e-08
-4.14629e-13
4.42014e-08
-3.45335e-13
4.42012e-08
-2.94838e-13
4.42009e-08
-2.5671e-13
4.42007e-08
-2.26854e-13
4.42006e-08
-2.02603e-13
4.42004e-08
-1.82202e-13
4.42003e-08
-1.6455e-13
4.42002e-08
-1.48954e-13
4.42002e-08
-1.34938e-13
4.42001e-08
-1.22212e-13
4.42e-08
-1.10551e-13
4.42e-08
-9.98418e-14
4.41999e-08
-8.99749e-14
4.41999e-08
-8.08999e-14
4.41999e-08
-7.25506e-14
4.41999e-08
-6.48886e-14
4.41998e-08
-5.78801e-14
4.41998e-08
-5.14908e-14
4.41998e-08
-4.5683e-14
4.41998e-08
-4.04112e-14
4.41998e-08
-3.56487e-14
4.41998e-08
-3.13771e-14
4.41998e-08
-2.7562e-14
4.41998e-08
-2.41689e-14
4.41998e-08
-2.11299e-14
4.41998e-08
-1.84309e-14
4.41998e-08
-1.60178e-14
4.41998e-08
-1.3907e-14
4.41998e-08
-1.20362e-14
4.41998e-08
-1.04057e-14
4.41998e-08
-8.97425e-15
4.41998e-08
-7.7186e-15
4.41998e-08
-6.63911e-15
4.41998e-08
-5.67974e-15
4.41998e-08
-4.85662e-15
4.41998e-08
-4.13689e-15
4.41998e-08
-3.52444e-15
4.41998e-08
-3.0208e-15
4.41998e-08
-2.58382e-15
4.41998e-08
-2.21759e-15
4.41998e-08
-1.88645e-15
4.41998e-08
-1.60104e-15
4.41998e-08
-1.36163e-15
4.41998e-08
-1.1601e-15
4.41998e-08
-9.96411e-16
4.41998e-08
-8.55282e-16
4.41998e-08
-7.39117e-16
4.41998e-08
-6.51136e-16
4.41998e-08
-5.95033e-16
4.41998e-08
-5.62946e-16
4.41998e-08
-5.42512e-16
4.41998e-08
-5.24924e-16
4.41998e-08
-5.04653e-16
-4.80756e-16
4.45063e-08
1.98758e-09
-4.43621e-08
4.46846e-08
2.20233e-09
4.48799e-08
2.36241e-09
4.50809e-08
2.46601e-09
4.52808e-08
2.51769e-09
4.54743e-08
2.52159e-09
4.5657e-08
2.48102e-09
4.5825e-08
2.39987e-09
4.59757e-08
2.28277e-09
4.61072e-08
2.13462e-09
4.62179e-08
1.96031e-09
4.63065e-08
1.76477e-09
4.63721e-08
1.55318e-09
4.6414e-08
1.33137e-09
4.6432e-08
1.10603e-09
4.64271e-08
8.84861e-10
4.64015e-08
6.76232e-10
4.63592e-08
4.88373e-10
4.63057e-08
3.27945e-10
4.62468e-08
1.98353e-10
4.61872e-08
9.92804e-11
4.61307e-08
2.78305e-11
4.60794e-08
-2.02571e-11
4.60346e-08
-4.95825e-11
4.59966e-08
-6.46579e-11
4.59654e-08
-6.94942e-11
4.59403e-08
-6.74689e-11
4.59205e-08
-6.12741e-11
4.59053e-08
-5.29487e-11
4.58937e-08
-4.39484e-11
4.5885e-08
-3.52401e-11
4.58786e-08
-2.73997e-11
4.58739e-08
-2.07075e-11
4.58703e-08
-1.52371e-11
4.58676e-08
-1.09279e-11
4.58656e-08
-7.64323e-12
4.5864e-08
-5.21397e-12
4.58627e-08
-3.46744e-12
4.58616e-08
-2.24545e-12
4.58607e-08
-1.41305e-12
4.586e-08
-8.61227e-13
4.58593e-08
-5.05833e-13
4.58587e-08
-2.84306e-13
4.58582e-08
-1.51645e-13
4.58578e-08
-7.64463e-14
4.58574e-08
-3.72882e-14
4.58571e-08
-2.00171e-14
4.58568e-08
-1.53904e-14
4.58566e-08
-1.75348e-14
4.58564e-08
-2.28478e-14
4.58562e-08
-2.91631e-14
4.5856e-08
-3.52116e-14
4.58559e-08
-4.03433e-14
4.58558e-08
-4.43028e-14
4.58557e-08
-4.70105e-14
4.58556e-08
-4.85358e-14
4.58556e-08
-4.8983e-14
4.58555e-08
-4.8532e-14
4.58555e-08
-4.73365e-14
4.58555e-08
-4.55613e-14
4.58554e-08
-4.33436e-14
4.58554e-08
-4.08202e-14
4.58554e-08
-3.81111e-14
4.58554e-08
-3.53116e-14
4.58554e-08
-3.24936e-14
4.58553e-08
-2.97094e-14
4.58553e-08
-2.70113e-14
4.58553e-08
-2.44468e-14
4.58553e-08
-2.20335e-14
4.58553e-08
-1.97857e-14
4.58553e-08
-1.76812e-14
4.58553e-08
-1.57463e-14
4.58553e-08
-1.39606e-14
4.58553e-08
-1.23603e-14
4.58553e-08
-1.09057e-14
4.58553e-08
-9.60659e-15
4.58553e-08
-8.44217e-15
4.58553e-08
-7.39656e-15
4.58553e-08
-6.48161e-15
4.58553e-08
-5.65308e-15
4.58553e-08
-4.92979e-15
4.58553e-08
-4.29205e-15
4.58553e-08
-3.74153e-15
4.58553e-08
-3.28475e-15
4.58553e-08
-2.88222e-15
4.58553e-08
-2.53849e-15
4.58553e-08
-2.2254e-15
4.58553e-08
-1.95175e-15
4.58553e-08
-1.72086e-15
4.58553e-08
-1.5237e-15
4.58553e-08
-1.36006e-15
4.58553e-08
-1.21752e-15
4.58553e-08
-1.09905e-15
4.58553e-08
-1.00902e-15
4.58553e-08
-9.50252e-16
4.58553e-08
-9.13757e-16
4.58553e-08
-8.85935e-16
4.58553e-08
-8.5735e-16
4.58553e-08
-8.18943e-16
-7.60824e-16
4.62427e-08
1.85554e-09
-4.61107e-08
4.64047e-08
2.04038e-09
4.65841e-08
2.18303e-09
4.67709e-08
2.27915e-09
4.69585e-08
2.33011e-09
4.71416e-08
2.33845e-09
4.73159e-08
2.30677e-09
4.74776e-08
2.23815e-09
4.76239e-08
2.13643e-09
4.77527e-08
2.00584e-09
4.78622e-08
1.85079e-09
4.79511e-08
1.67587e-09
4.80184e-08
1.48596e-09
4.80633e-08
1.28647e-09
4.80858e-08
1.08348e-09
4.80869e-08
8.83757e-10
4.80687e-08
6.94438e-10
4.80347e-08
5.22368e-10
4.79896e-08
3.73066e-10
4.79383e-08
2.4963e-10
4.78853e-08
1.52342e-10
4.78338e-08
7.93047e-11
4.77862e-08
2.73378e-11
4.77439e-08
-7.23799e-12
4.77074e-08
-2.8165e-11
4.76768e-08
-3.88921e-11
4.76517e-08
-4.24154e-11
4.76316e-08
-4.11921e-11
4.76158e-08
-3.71499e-11
4.76036e-08
-3.17152e-11
4.75942e-08
-2.58882e-11
4.75872e-08
-2.0314e-11
4.75818e-08
-1.53606e-11
4.75778e-08
-1.11965e-11
4.75747e-08
-7.85185e-12
4.75723e-08
-5.27053e-12
4.75705e-08
-3.35125e-12
4.7569e-08
-1.97539e-12
4.75677e-08
-1.02609e-12
4.75667e-08
-3.98637e-13
4.75659e-08
-5.32047e-15
4.75651e-08
2.23598e-13
4.75645e-08
3.41185e-13
4.7564e-08
3.86311e-13
4.75635e-08
3.86524e-13
4.75631e-08
3.60779e-13
4.75628e-08
3.21615e-13
4.75625e-08
2.77088e-13
4.75622e-08
2.32178e-13
4.7562e-08
1.89767e-13
4.75618e-08
1.51372e-13
4.75617e-08
1.17662e-13
4.75616e-08
8.87597e-14
4.75615e-08
6.44417e-14
4.75614e-08
4.43503e-14
4.75613e-08
2.80279e-14
4.75612e-08
1.50165e-14
4.75612e-08
4.82725e-15
4.75611e-08
-2.96472e-15
4.75611e-08
-8.75729e-15
4.75611e-08
-1.28974e-14
4.7561e-08
-1.57055e-14
4.7561e-08
-1.74591e-14
4.7561e-08
-1.83871e-14
4.7561e-08
-1.86751e-14
4.7561e-08
-1.84759e-14
4.7561e-08
-1.79232e-14
4.7561e-08
-1.71318e-14
4.75609e-08
-1.61749e-14
4.75609e-08
-1.51179e-14
4.75609e-08
-1.39888e-14
4.75609e-08
-1.28536e-14
4.75609e-08
-1.17268e-14
4.75609e-08
-1.06626e-14
4.75609e-08
-9.64541e-15
4.75609e-08
-8.69499e-15
4.75609e-08
-7.81122e-15
4.75609e-08
-6.98798e-15
4.75609e-08
-6.24757e-15
4.75609e-08
-5.5592e-15
4.75609e-08
-4.94398e-15
4.75609e-08
-4.39439e-15
4.75609e-08
-3.91119e-15
4.75609e-08
-3.50454e-15
4.75609e-08
-3.13965e-15
4.75609e-08
-2.8213e-15
4.75609e-08
-2.52901e-15
4.75609e-08
-2.27e-15
4.75609e-08
-2.0496e-15
4.75609e-08
-1.85855e-15
4.75609e-08
-1.69624e-15
4.75609e-08
-1.5534e-15
4.75609e-08
-1.43365e-15
4.75609e-08
-1.34199e-15
4.75609e-08
-1.2802e-15
4.75609e-08
-1.23843e-15
4.75609e-08
-1.20214e-15
4.75609e-08
-1.16183e-15
4.75609e-08
-1.10689e-15
-1.02649e-15
4.80375e-08
1.73311e-09
-4.79151e-08
4.81859e-08
1.89203e-09
4.8351e-08
2.01789e-09
4.85246e-08
2.10558e-09
4.87002e-08
2.15448e-09
4.88729e-08
2.16578e-09
4.90383e-08
2.14132e-09
4.91929e-08
2.08352e-09
4.93339e-08
1.99551e-09
4.94588e-08
1.8809e-09
4.9566e-08
1.74362e-09
4.9654e-08
1.58786e-09
4.97218e-08
1.41813e-09
4.97689e-08
1.23938e-09
4.97953e-08
1.05708e-09
4.98019e-08
8.77149e-10
4.97907e-08
7.05664e-10
4.97647e-08
5.48367e-10
4.97279e-08
4.09898e-10
4.96844e-08
2.93057e-10
4.96383e-08
1.98498e-10
4.95925e-08
1.25081e-10
4.95493e-08
7.04956e-11
4.95102e-08
3.18566e-11
4.9476e-08
6.11696e-12
4.94467e-08
-9.65367e-12
4.94224e-08
-1.80713e-11
4.94025e-08
-2.13412e-11
4.93866e-08
-2.12598e-11
4.93741e-08
-1.91902e-11
4.93644e-08
-1.61395e-11
4.93568e-08
-1.27961e-11
4.93511e-08
-9.59185e-12
4.93467e-08
-6.77299e-12
4.93432e-08
-4.44534e-12
4.93406e-08
-2.62371e-12
4.93385e-08
-1.26838e-12
4.93369e-08
-3.11055e-13
4.93355e-08
3.2528e-13
4.93344e-08
7.15313e-13
4.93335e-08
9.24808e-13
4.93327e-08
1.00801e-12
4.9332e-08
1.00733e-12
4.93314e-08
9.54438e-13
4.9331e-08
8.72054e-13
4.93305e-08
7.75898e-13
4.93302e-08
6.76299e-13
4.93299e-08
5.79702e-13
4.93296e-08
4.89871e-13
4.93294e-08
4.08742e-13
4.93292e-08
3.37033e-13
4.93291e-08
2.74707e-13
4.93289e-08
2.21282e-13
4.93288e-08
1.7601e-13
4.93287e-08
1.3806e-13
4.93286e-08
1.06556e-13
4.93286e-08
8.06646e-14
4.93285e-08
5.95757e-14
4.93285e-08
4.25818e-14
4.93284e-08
2.90415e-14
4.93284e-08
1.83902e-14
4.93284e-08
1.01208e-14
4.93284e-08
3.79442e-15
4.93283e-08
-9.52294e-16
4.93283e-08
-4.42262e-15
4.93283e-08
-6.87107e-15
4.93283e-08
-8.51539e-15
4.93283e-08
-9.53864e-15
4.93283e-08
-1.0073e-14
4.93283e-08
-1.02381e-14
4.93283e-08
-1.01132e-14
4.93283e-08
-9.80353e-15
4.93283e-08
-9.35784e-15
4.93283e-08
-8.84739e-15
4.93283e-08
-8.28114e-15
4.93283e-08
-7.69098e-15
4.93283e-08
-7.09705e-15
4.93283e-08
-6.50517e-15
4.93283e-08
-5.94706e-15
4.93283e-08
-5.40617e-15
4.93283e-08
-4.9057e-15
4.93283e-08
-4.44896e-15
4.93283e-08
-4.03715e-15
4.93283e-08
-3.6831e-15
4.93283e-08
-3.35831e-15
4.93283e-08
-3.06791e-15
4.93283e-08
-2.79876e-15
4.93283e-08
-2.55685e-15
4.93283e-08
-2.34861e-15
4.93283e-08
-2.16502e-15
4.93283e-08
-2.00519e-15
4.93283e-08
-1.86299e-15
4.93283e-08
-1.74279e-15
4.93283e-08
-1.64971e-15
4.93283e-08
-1.58437e-15
4.93283e-08
-1.53636e-15
4.93283e-08
-1.49069e-15
4.93283e-08
-1.43833e-15
4.93283e-08
-1.3688e-15
-1.2736e-15
4.98931e-08
1.61849e-09
-4.97784e-08
5.003e-08
1.75509e-09
5.01825e-08
1.86536e-09
5.03438e-08
1.94431e-09
5.0508e-08
1.99022e-09
5.06705e-08
2.00328e-09
5.08272e-08
1.98463e-09
5.09746e-08
1.93613e-09
5.11099e-08
1.86028e-09
5.12306e-08
1.76013e-09
5.13351e-08
1.63913e-09
5.14219e-08
1.50105e-09
5.14901e-08
1.34998e-09
5.15391e-08
1.1904e-09
5.1569e-08
1.02716e-09
5.15807e-08
8.65418e-10
5.1576e-08
7.10382e-10
5.15575e-08
5.66895e-10
5.15285e-08
4.38898e-10
5.14926e-08
3.28917e-10
5.14533e-08
2.37831e-10
5.14133e-08
1.65057e-10
5.13748e-08
1.08975e-10
5.13393e-08
6.73759e-11
5.13076e-08
3.78085e-11
5.12801e-08
1.78313e-11
5.12569e-08
5.19401e-12
5.12376e-08
-2.05739e-12
5.12219e-08
-5.5681e-12
5.12093e-08
-6.61715e-12
5.11994e-08
-6.19269e-12
5.11916e-08
-5.00081e-12
5.11855e-08
-3.51997e-12
5.11808e-08
-2.05378e-12
5.11771e-08
-7.71051e-13
5.11742e-08
2.53049e-13
5.1172e-08
1.00435e-12
5.11701e-08
1.50492e-12
5.11687e-08
1.79462e-12
5.11675e-08
1.91908e-12
5.11665e-08
1.92218e-12
5.11656e-08
1.84213e-12
5.11649e-08
1.70991e-12
5.11643e-08
1.54917e-12
5.11638e-08
1.37703e-12
5.11634e-08
1.20529e-12
5.1163e-08
1.04153e-12
5.11627e-08
8.90201e-13
5.11625e-08
7.53537e-13
5.11622e-08
6.32301e-13
5.11621e-08
5.26258e-13
5.11619e-08
4.34562e-13
5.11618e-08
3.56049e-13
5.11617e-08
2.89396e-13
5.11616e-08
2.3326e-13
5.11615e-08
1.86318e-13
5.11614e-08
1.47342e-13
5.11614e-08
1.15191e-13
5.11613e-08
8.8863e-14
5.11613e-08
6.74648e-14
5.11612e-08
5.02083e-14
5.11612e-08
3.63976e-14
5.11612e-08
2.54328e-14
5.11612e-08
1.68134e-14
5.11612e-08
1.01169e-14
5.11611e-08
4.98521e-15
5.11611e-08
1.11546e-15
5.11611e-08
-1.74577e-15
5.11611e-08
-3.79265e-15
5.11611e-08
-5.20043e-15
5.11611e-08
-6.09994e-15
5.11611e-08
-6.63374e-15
5.11611e-08
-6.88348e-15
5.11611e-08
-6.93767e-15
5.11611e-08
-6.83038e-15
5.11611e-08
-6.60783e-15
5.11611e-08
-6.30998e-15
5.11611e-08
-5.95625e-15
5.11611e-08
-5.58685e-15
5.11611e-08
-5.19939e-15
5.11611e-08
-4.81925e-15
5.11611e-08
-4.45902e-15
5.11611e-08
-4.12177e-15
5.11611e-08
-3.82241e-15
5.11611e-08
-3.5398e-15
5.11611e-08
-3.27982e-15
5.11611e-08
-3.03598e-15
5.11611e-08
-2.81337e-15
5.11611e-08
-2.61869e-15
5.11611e-08
-2.44368e-15
5.11611e-08
-2.28739e-15
5.11611e-08
-2.14672e-15
5.11611e-08
-2.02677e-15
5.11611e-08
-1.93232e-15
5.11611e-08
-1.86279e-15
5.11611e-08
-1.80757e-15
5.11611e-08
-1.75177e-15
5.11611e-08
-1.68741e-15
5.11611e-08
-1.60525e-15
-1.49978e-15
5.1812e-08
1.51039e-09
-5.17039e-08
5.19392e-08
1.62784e-09
5.20806e-08
1.72396e-09
5.22306e-08
1.7943e-09
5.23842e-08
1.83665e-09
5.2537e-08
1.85052e-09
5.26851e-08
1.8365e-09
5.28253e-08
1.79593e-09
5.29548e-08
1.7308e-09
5.30712e-08
1.64365e-09
5.31729e-08
1.53747e-09
5.32584e-08
1.41559e-09
5.33267e-08
1.28166e-09
5.33774e-08
1.13969e-09
5.34106e-08
9.93953e-10
5.34271e-08
8.48926e-10
5.34284e-08
7.09068e-10
5.34168e-08
5.78492e-10
5.33951e-08
4.60576e-10
5.33664e-08
3.57598e-10
5.33337e-08
2.7056e-10
5.32995e-08
1.99281e-10
5.32658e-08
1.42683e-10
5.3234e-08
9.91167e-11
5.32052e-08
6.66471e-11
5.31798e-08
4.32724e-11
5.31579e-08
2.70856e-11
5.31394e-08
1.63756e-11
5.31242e-08
9.67352e-12
5.31118e-08
5.78615e-12
5.31018e-08
3.77191e-12
5.30939e-08
2.92482e-12
5.30876e-08
2.73924e-12
5.30827e-08
2.87121e-12
5.30788e-08
3.1029e-12
5.30758e-08
3.30933e-12
5.30734e-08
3.42986e-12
5.30714e-08
3.44564e-12
5.30699e-08
3.36241e-12
5.30686e-08
3.19838e-12
5.30675e-08
2.97615e-12
5.30666e-08
2.71784e-12
5.30659e-08
2.44254e-12
5.30653e-08
2.16531e-12
5.30648e-08
1.89711e-12
5.30643e-08
1.64527e-12
5.3064e-08
1.41415e-12
5.30637e-08
1.20583e-12
5.30634e-08
1.02078e-12
5.30632e-08
8.58368e-13
5.3063e-08
7.1725e-13
5.30628e-08
5.95678e-13
5.30627e-08
4.91736e-13
5.30626e-08
4.03468e-13
5.30625e-08
3.28987e-13
5.30624e-08
2.66496e-13
5.30623e-08
2.14359e-13
5.30623e-08
1.7109e-13
5.30622e-08
1.35388e-13
5.30622e-08
1.061e-13
5.30621e-08
8.22121e-14
5.30621e-08
6.28382e-14
5.30621e-08
4.72188e-14
5.30621e-08
3.47152e-14
5.30621e-08
2.47841e-14
5.3062e-08
1.69633e-14
5.3062e-08
1.08635e-14
5.3062e-08
6.15967e-15
5.3062e-08
2.59339e-15
5.3062e-08
-6.5737e-17
5.3062e-08
-1.99961e-15
5.3062e-08
-3.38524e-15
5.3062e-08
-4.33583e-15
5.3062e-08
-4.95816e-15
5.3062e-08
-5.31201e-15
5.3062e-08
-5.46017e-15
5.3062e-08
-5.46173e-15
5.3062e-08
-5.35061e-15
5.3062e-08
-5.17468e-15
5.3062e-08
-4.94494e-15
5.3062e-08
-4.68927e-15
5.3062e-08
-4.42804e-15
5.3062e-08
-4.16748e-15
5.3062e-08
-3.92446e-15
5.3062e-08
-3.68579e-15
5.3062e-08
-3.45856e-15
5.3062e-08
-3.24197e-15
5.3062e-08
-3.04051e-15
5.3062e-08
-2.86054e-15
5.3062e-08
-2.695e-15
5.3062e-08
-2.54327e-15
5.3062e-08
-2.40498e-15
5.3062e-08
-2.28585e-15