/*--------------------------------*- C++ -*----------------------------------*\
| =========                 |                                                 |
| \\      /  F ield         | OpenFOAM: The Open Source CFD Toolbox           |
|  \\    /   O peration     | Version:  2.3.0                                 |
|   \\  /    A nd           | Web:      www.OpenFOAM.org                      |
|    \\/     M anipulation  |                                                 |
\*---------------------------------------------------------------------------*/
FoamFile
{
    version     2.0;
    format      ascii;
    class       surfaceScalarField;
    location    "0.75";
    object      phi;
}
// * * * * * * * * * * * * * * * * * * * * * * * * * * * * * * * * * * * * * //

dimensions      [0 3 -1 0 0 0 0];

internalField   nonuniform List<scalar> 
17305
(
2.83163e-08
2.88407e-09
-3.12004e-08
2.54496e-08
2.86668e-09
2.27597e-08
2.68989e-09
2.02803e-08
2.47941e-09
1.80275e-08
2.25282e-09
1.60118e-08
2.01565e-09
1.42358e-08
1.77607e-09
1.26939e-08
1.54185e-09
1.13743e-08
1.31959e-09
1.02597e-08
1.11464e-09
9.32875e-09
9.30936e-10
8.55798e-09
7.70773e-10
7.9232e-09
6.34778e-10
7.4011e-09
5.22104e-10
6.97032e-09
4.30783e-10
6.61218e-09
3.58134e-10
6.31102e-09
3.01165e-10
6.05411e-09
2.56908e-10
5.83146e-09
2.22645e-10
5.63542e-09
1.96039e-10
5.46024e-09
1.75181e-10
5.30167e-09
1.58576e-10
5.15658e-09
1.45091e-10
5.02268e-09
1.33896e-10
4.89828e-09
1.24396e-10
4.78211e-09
1.16173e-10
4.67318e-09
1.08935e-10
4.5707e-09
1.02481e-10
4.47403e-09
9.66688e-11
4.38263e-09
9.13974e-11
4.29604e-09
8.65919e-11
4.21384e-09
8.21945e-11
4.13568e-09
7.8159e-11
4.06124e-09
7.44466e-11
3.99021e-09
7.10241e-11
3.92235e-09
6.78625e-11
3.85741e-09
6.49361e-11
3.79519e-09
6.22221e-11
3.73549e-09
5.96999e-11
3.67814e-09
5.73516e-11
3.62298e-09
5.51607e-11
3.56987e-09
5.31128e-11
3.51867e-09
5.11951e-11
3.46928e-09
4.9396e-11
3.42157e-09
4.77054e-11
3.37546e-09
4.61139e-11
3.33084e-09
4.46134e-11
3.28765e-09
4.31967e-11
3.24579e-09
4.1857e-11
3.2052e-09
4.05885e-11
3.16582e-09
3.93858e-11
3.12757e-09
3.8244e-11
3.09041e-09
3.71588e-11
3.05429e-09
3.61261e-11
3.01914e-09
3.51424e-11
2.98494e-09
3.42043e-11
2.95163e-09
3.33088e-11
2.91918e-09
3.24531e-11
2.88754e-09
3.16347e-11
2.85669e-09
3.08512e-11
2.82659e-09
3.01005e-11
2.79721e-09
2.93806e-11
2.76852e-09
2.86897e-11
2.7405e-09
2.80261e-11
2.71311e-09
2.73882e-11
2.68633e-09
2.67747e-11
2.66015e-09
2.61841e-11
2.63453e-09
2.56153e-11
2.60947e-09
2.5067e-11
2.58493e-09
2.45383e-11
2.5609e-09
2.40282e-11
2.53736e-09
2.35357e-11
2.5143e-09
2.30601e-11
2.4917e-09
2.26006e-11
2.46955e-09
2.21564e-11
2.44782e-09
2.1727e-11
2.42651e-09
2.13117e-11
2.4056e-09
2.09101e-11
2.38508e-09
2.05217e-11
2.36493e-09
2.0146e-11
2.34515e-09
1.97828e-11
2.32572e-09
1.94317e-11
2.30662e-09
1.90926e-11
2.28786e-09
1.87653e-11
2.26941e-09
1.84498e-11
2.25126e-09
1.8146e-11
2.23341e-09
1.78542e-11
2.21583e-09
1.75747e-11
2.19853e-09
1.73078e-11
2.18147e-09
1.70545e-11
2.16466e-09
1.68158e-11
2.14806e-09
1.65935e-11
2.13167e-09
1.63909e-11
2.11546e-09
1.62135e-11
2.09939e-09
1.60726e-11
2.08339e-09
1.5994e-11
2.06734e-09
1.60487e-11
2.05093e-09
1.6412e-11
2.03377e-09
1.71606e-11
5.10357e-11
3.33508e-08
3.1604e-09
-3.36272e-08
3.27607e-08
3.45677e-09
3.19386e-08
3.51197e-09
3.09613e-08
3.45677e-09
2.98841e-08
3.33e-09
2.87527e-08
3.14707e-09
2.76039e-08
2.92481e-09
2.64662e-08
2.67961e-09
2.53603e-08
2.42547e-09
2.4301e-08
2.17392e-09
2.32979e-08
1.93411e-09
2.2356e-08
1.71258e-09
2.14775e-08
1.51328e-09
2.06618e-08
1.3378e-09
1.99067e-08
1.18589e-09
1.92089e-08
1.05597e-09
1.85644e-08
9.45683e-10
1.79689e-08
8.52354e-10
1.74183e-08
7.73308e-10
1.69082e-08
7.06079e-10
1.64349e-08
6.4852e-10
1.59946e-08
5.98835e-10
1.55842e-08
5.55563e-10
1.52005e-08
5.17543e-10
1.48411e-08
4.83859e-10
1.45034e-08
4.53795e-10
1.41856e-08
4.26792e-10
1.38857e-08
4.02405e-10
1.3602e-08
3.80281e-10
1.33333e-08
3.60131e-10
1.30782e-08
3.41717e-10
1.28355e-08
3.24842e-10
1.26044e-08
3.09334e-10
1.23838e-08
2.95047e-10
1.21729e-08
2.81856e-10
1.19711e-08
2.69648e-10
1.17777e-08
2.58326e-10
1.15922e-08
2.47804e-10
1.14139e-08
2.38005e-10
1.12424e-08
2.28862e-10
1.10772e-08
2.20315e-10
1.0918e-08
2.1231e-10
1.07644e-08
2.048e-10
1.0616e-08
1.97742e-10
1.04727e-08
1.91099e-10
1.03339e-08
1.84836e-10
1.01996e-08
1.78923e-10
1.00695e-08
1.73333e-10
9.9433e-09
1.6804e-10
9.82087e-09
1.63023e-10
9.702e-09
1.58261e-10
9.5865e-09
1.53735e-10
9.47423e-09
1.4943e-10
9.36503e-09
1.45329e-10
9.25875e-09
1.41419e-10
9.15527e-09
1.37688e-10
9.05446e-09
1.34122e-10
8.9562e-09
1.30713e-10
8.86038e-09
1.2745e-10
8.76691e-09
1.24323e-10
8.67568e-09
1.21325e-10
8.58662e-09
1.18448e-10
8.49962e-09
1.15685e-10
8.41462e-09
1.13029e-10
8.33153e-09
1.10474e-10
8.25029e-09
1.08014e-10
8.17083e-09
1.05644e-10
8.09309e-09
1.03359e-10
8.017e-09
1.01155e-10
7.94251e-09
9.90281e-11
7.86957e-09
9.69733e-11
7.79812e-09
9.49875e-11
7.72811e-09
9.30673e-11
7.6595e-09
9.12097e-11
7.59224e-09
8.94116e-11
7.5263e-09
8.76706e-11
7.46163e-09
8.59843e-11
7.39819e-09
8.43503e-11
7.33594e-09
8.27667e-11
7.27486e-09
8.12318e-11
7.2149e-09
7.9744e-11
7.15603e-09
7.8302e-11
7.09821e-09
7.69047e-11
7.04143e-09
7.55513e-11
6.98564e-09
7.42412e-11
6.93081e-09
7.29743e-11
6.87691e-09
7.17506e-11
6.82391e-09
7.0571e-11
6.77179e-09
6.94367e-11
6.72049e-09
6.83498e-11
6.66999e-09
6.7314e-11
6.62025e-09
6.63347e-11
6.57122e-09
6.54217e-11
6.52284e-09
6.45929e-11
6.47503e-09
6.38841e-11
6.42764e-09
6.33798e-11
6.38039e-09
6.33021e-11
6.33257e-09
6.42273e-11
6.27849e-09
7.12498e-11
1.28972e-10
3.47459e-08
3.01082e-09
-3.45964e-08
3.48066e-08
3.39613e-09
3.47408e-08
3.57771e-09
3.45542e-08
3.64337e-09
3.42574e-08
3.62684e-09
3.38646e-08
3.53986e-09
3.33933e-08
3.39615e-09
3.28612e-08
3.21168e-09
3.22851e-08
3.00154e-09
3.16799e-08
2.77909e-09
3.10584e-08
2.55561e-09
3.04311e-08
2.33996e-09
2.9806e-08
2.13836e-09
2.91893e-08
1.95447e-09
2.85854e-08
1.7898e-09
2.79972e-08
1.64423e-09
2.74263e-08
1.51651e-09
2.68739e-08
1.40479e-09
2.63402e-08
1.30699e-09
2.58253e-08
1.22103e-09
2.53287e-08
1.14504e-09
2.48502e-08
1.07737e-09
2.43891e-08
1.01666e-09
2.39449e-08
9.61796e-10
2.35168e-08
9.11897e-10
2.31044e-08
8.66254e-10
2.27069e-08
8.24304e-10
2.23237e-08
7.85599e-10
2.19542e-08
7.49772e-10
2.15978e-08
7.16523e-10
2.12539e-08
6.85597e-10
2.0922e-08
6.56778e-10
2.06014e-08
6.29878e-10
2.02917e-08
6.04729e-10
1.99924e-08
5.81186e-10
1.97029e-08
5.59114e-10
1.94229e-08
5.38395e-10
1.91518e-08
5.18921e-10
1.88892e-08
5.00594e-10
1.86347e-08
4.83326e-10
1.8388e-08
4.67034e-10
1.81486e-08
4.51646e-10
1.79164e-08
4.37095e-10
1.76908e-08
4.23319e-10
1.74716e-08
4.10262e-10
1.72586e-08
3.97875e-10
1.70514e-08
3.86109e-10
1.68498e-08
3.74922e-10
1.66536e-08
3.64276e-10
1.64625e-08
3.54133e-10
1.62763e-08
3.44461e-10
1.60948e-08
3.3523e-10
1.59178e-08
3.26411e-10
1.57451e-08
3.17979e-10
1.55766e-08
3.09909e-10
1.54121e-08
3.0218e-10
1.52515e-08
2.94771e-10
1.50945e-08
2.87663e-10
1.49412e-08
2.80838e-10
1.47912e-08
2.74281e-10
1.46445e-08
2.67976e-10
1.45011e-08
2.61908e-10
1.43607e-08
2.56065e-10
1.42233e-08
2.50435e-10
1.40888e-08
2.45006e-10
1.3957e-08
2.39767e-10
1.3828e-08
2.34708e-10
1.37015e-08
2.2982e-10
1.35776e-08
2.25095e-10
1.34561e-08
2.20524e-10
1.33369e-08
2.161e-10
1.32201e-08
2.11815e-10
1.31055e-08
2.07663e-10
1.29931e-08
2.03638e-10
1.28828e-08
1.99734e-10
1.27745e-08
1.95946e-10
1.26682e-08
1.92268e-10
1.25639e-08
1.88698e-10
1.24614e-08
1.85229e-10
1.23608e-08
1.81859e-10
1.22619e-08
1.78585e-10
1.21648e-08
1.75403e-10
1.20694e-08
1.72311e-10
1.19757e-08
1.69308e-10
1.18835e-08
1.66391e-10
1.17929e-08
1.63561e-10
1.17039e-08
1.60817e-10
1.16163e-08
1.58161e-10
1.15301e-08
1.55593e-10
1.14453e-08
1.5312e-10
1.13619e-08
1.50746e-10
1.12798e-08
1.48482e-10
1.11988e-08
1.46346e-10
1.11191e-08
1.44373e-10
1.10403e-08
1.42629e-10
1.09624e-08
1.41276e-10
1.0885e-08
1.40742e-10
1.08068e-08
1.42388e-10
1.07224e-08
1.55641e-10
2.19712e-10
3.55802e-08
2.82221e-09
-3.53916e-08
3.57721e-08
3.20425e-09
3.59227e-08
3.42711e-09
3.60196e-08
3.54646e-09
3.60562e-08
3.59027e-09
3.60285e-08
3.56753e-09
3.59371e-08
3.48754e-09
3.57861e-08
3.36271e-09
3.55817e-08
3.20595e-09
3.53314e-08
3.02936e-09
3.50433e-08
2.84371e-09
3.47252e-08
2.65803e-09
3.43844e-08
2.47916e-09
3.40272e-08
2.31172e-09
3.36587e-08
2.15828e-09
3.32831e-08
2.01977e-09
3.29037e-08
1.8959e-09
3.25229e-08
1.78562e-09
3.21424e-08
1.68747e-09
3.17636e-08
1.59987e-09
3.13874e-08
1.52127e-09
3.10144e-08
1.45029e-09
3.06454e-08
1.38574e-09
3.02805e-08
1.32662e-09
2.99203e-08
1.27213e-09
2.95649e-08
1.22162e-09
2.92147e-08
1.17459e-09
2.88696e-08
1.13061e-09
2.85301e-08
1.08936e-09
2.8196e-08
1.05057e-09
2.78676e-08
1.01401e-09
2.75449e-08
9.79499e-10
2.72279e-08
9.46863e-10
2.69166e-08
9.15963e-10
2.66112e-08
8.86671e-10
2.63114e-08
8.58873e-10
2.60173e-08
8.32465e-10
2.57289e-08
8.07353e-10
2.5446e-08
7.83453e-10
2.51687e-08
7.60685e-10
2.48967e-08
7.38976e-10
2.46301e-08
7.18262e-10
2.43687e-08
6.98479e-10
2.41125e-08
6.79573e-10
2.38613e-08
6.61489e-10
2.3615e-08
6.44181e-10
2.33735e-08
6.27602e-10
2.31367e-08
6.11711e-10
2.29045e-08
5.9647e-10
2.26768e-08
5.81841e-10
2.24534e-08
5.67792e-10
2.22344e-08
5.54289e-10
2.20195e-08
5.41305e-10
2.18087e-08
5.28812e-10
2.16018e-08
5.16782e-10
2.13988e-08
5.05194e-10
2.11995e-08
4.94022e-10
2.10039e-08
4.83247e-10
2.08119e-08
4.72848e-10
2.06234e-08
4.62806e-10
2.04383e-08
4.53104e-10
2.02565e-08
4.43724e-10
2.00779e-08
4.34652e-10
1.99024e-08
4.25871e-10
1.97301e-08
4.17369e-10
1.95607e-08
4.09132e-10
1.93943e-08
4.01147e-10
1.92307e-08
3.93403e-10
1.90699e-08
3.85889e-10
1.89118e-08
3.78593e-10
1.87564e-08
3.71508e-10
1.86036e-08
3.64622e-10
1.84533e-08
3.57927e-10
1.83056e-08
3.51416e-10
1.81602e-08
3.45081e-10
1.80172e-08
3.38913e-10
1.78766e-08
3.32908e-10
1.77382e-08
3.27058e-10
1.76021e-08
3.21357e-10
1.74682e-08
3.15802e-10
1.73364e-08
3.10387e-10
1.72067e-08
3.05108e-10
1.7079e-08
2.99963e-10
1.69534e-08
2.94948e-10
1.68297e-08
2.90061e-10
1.6708e-08
2.85302e-10
1.65881e-08
2.80671e-10
1.64701e-08
2.76169e-10
1.63539e-08
2.718e-10
1.62394e-08
2.6757e-10
1.61267e-08
2.63489e-10
1.60156e-08
2.59572e-10
1.59061e-08
2.55847e-10
1.57981e-08
2.52365e-10
1.56915e-08
2.49229e-10
1.55861e-08
2.46681e-10
1.54815e-08
2.45369e-10
1.53764e-08
2.47465e-10
1.52684e-08
2.63655e-10
3.22067e-10
3.63308e-08
2.6572e-09
-3.61658e-08
3.65255e-08
3.00961e-09
3.67139e-08
3.23866e-09
3.68834e-08
3.37696e-09
3.70264e-08
3.44728e-09
3.71357e-08
3.45825e-09
3.72063e-08
3.41697e-09
3.72359e-08
3.33305e-09
3.72248e-08
3.21705e-09
3.7175e-08
3.07922e-09
3.70897e-08
2.92895e-09
3.69734e-08
2.7744e-09
3.68304e-08
2.62209e-09
3.66654e-08
2.47674e-09
3.64824e-08
2.34131e-09
3.62849e-08
2.21729e-09
3.60758e-08
2.10499e-09
3.58574e-08
2.00395e-09
3.56317e-08
1.91322e-09
3.54e-08
1.83162e-09
3.51633e-08
1.75794e-09
3.49226e-08
1.69102e-09
3.46784e-08
1.62985e-09
3.44315e-08
1.57353e-09
3.41823e-08
1.52136e-09
3.39312e-08
1.47273e-09
3.36786e-08
1.42718e-09
3.34249e-08
1.38433e-09
3.31704e-08
1.34387e-09
3.29154e-08
1.30555e-09
3.26602e-08
1.26917e-09
3.24052e-08
1.23456e-09
3.21505e-08
1.20157e-09
3.18963e-08
1.17008e-09
3.1643e-08
1.13998e-09
3.13907e-08
1.11118e-09
3.11396e-08
1.08358e-09
3.08899e-08
1.05711e-09
3.06416e-08
1.0317e-09
3.0395e-08
1.00729e-09
3.01502e-08
9.83814e-10
2.99072e-08
9.61223e-10
2.96662e-08
9.39467e-10
2.94273e-08
9.18501e-10
2.91905e-08
8.98282e-10
2.89559e-08
8.78772e-10
2.87236e-08
8.59934e-10
2.84936e-08
8.41736e-10
2.82659e-08
8.24147e-10
2.80406e-08
8.07136e-10
2.78177e-08
7.90677e-10
2.75972e-08
7.74743e-10
2.73792e-08
7.59312e-10
2.71637e-08
7.44359e-10
2.69506e-08
7.29864e-10
2.674e-08
7.15806e-10
2.65318e-08
7.02166e-10
2.63262e-08
6.88927e-10
2.61229e-08
6.76069e-10
2.59222e-08
6.63579e-10
2.57238e-08
6.51439e-10
2.55279e-08
6.39635e-10
2.53344e-08
6.28154e-10
2.51433e-08
6.16981e-10
2.49546e-08
6.06104e-10
2.47682e-08
5.95511e-10
2.45842e-08
5.8519e-10
2.44024e-08
5.75131e-10
2.4223e-08
5.65322e-10
2.40458e-08
5.55754e-10
2.38709e-08
5.46417e-10
2.36982e-08
5.37303e-10
2.35278e-08
5.28402e-10
2.33595e-08
5.19707e-10
2.31934e-08
5.1121e-10
2.30294e-08
5.02904e-10
2.28675e-08
4.94782e-10
2.27077e-08
4.86837e-10
2.255e-08
4.79066e-10
2.23943e-08
4.71461e-10
2.22407e-08
4.64019e-10
2.20891e-08
4.56736e-10
2.19394e-08
4.49608e-10
2.17918e-08
4.42633e-10
2.1646e-08
4.35811e-10
2.15022e-08
4.2914e-10
2.13602e-08
4.22623e-10
2.12201e-08
4.16261e-10
2.10819e-08
4.1006e-10
2.09454e-08
4.04029e-10
2.08107e-08
3.98183e-10
2.06777e-08
3.92542e-10
2.05464e-08
3.87144e-10
2.04168e-08
3.82056e-10
2.02886e-08
3.77416e-10
2.01617e-08
3.73536e-10
2.00358e-08
3.71239e-10
1.99102e-08
3.73115e-10
1.97852e-08
3.88692e-10
4.33823e-10
3.70749e-08
2.51833e-09
-3.6936e-08
3.72489e-08
2.83561e-09
3.74297e-08
3.05785e-09
3.76052e-08
3.20139e-09
3.77692e-08
3.28334e-09
3.79154e-08
3.312e-09
3.80388e-08
3.29357e-09
3.8136e-08
3.23586e-09
3.82053e-08
3.14776e-09
3.82465e-08
3.03801e-09
3.82607e-08
2.91476e-09
3.82499e-08
2.7852e-09
3.82167e-08
2.65525e-09
3.81641e-08
2.5294e-09
3.80947e-08
2.41065e-09
3.80113e-08
2.30074e-09
3.79159e-08
2.20034e-09
3.78105e-08
2.10937e-09
3.76965e-08
2.02725e-09
3.7575e-08
1.95314e-09
3.74468e-08
1.88607e-09
3.73128e-08
1.8251e-09
3.71733e-08
1.76934e-09
3.70288e-08
1.71802e-09
3.68796e-08
1.67048e-09
3.67262e-08
1.62619e-09
3.65687e-08
1.58468e-09
3.64074e-08
1.54561e-09
3.62426e-08
1.50868e-09
3.60745e-08
1.47364e-09
3.59034e-08
1.44031e-09
3.57294e-08
1.40851e-09
3.55529e-08
1.37811e-09
3.5374e-08
1.34899e-09
3.51929e-08
1.32105e-09
3.50099e-08
1.29421e-09
3.48251e-08
1.26837e-09
3.46387e-08
1.24347e-09
3.4451e-08
1.21945e-09
3.4262e-08
1.19626e-09
3.4072e-08
1.17384e-09
3.38811e-08
1.15214e-09
3.36894e-08
1.13112e-09
3.34972e-08
1.11075e-09
3.33045e-08
1.09099e-09
3.31114e-08
1.07181e-09
3.29182e-08
1.05318e-09
3.27248e-08
1.03507e-09
3.25315e-08
1.01746e-09
3.23383e-08
1.00032e-09
3.21454e-08
9.8364e-10
3.19527e-08
9.67387e-10
3.17605e-08
9.51548e-10
3.15687e-08
9.36106e-10
3.13775e-08
9.21044e-10
3.1187e-08
9.06346e-10
3.09972e-08
8.91998e-10
3.08081e-08
8.77986e-10
3.06199e-08
8.64297e-10
3.04325e-08
8.50918e-10
3.02462e-08
8.37838e-10
3.00607e-08
8.25046e-10
2.98764e-08
8.1253e-10
2.96931e-08
8.00281e-10
2.95109e-08
7.88289e-10
2.93298e-08
7.76544e-10
2.915e-08
7.65038e-10
2.89714e-08
7.53762e-10
2.8794e-08
7.42707e-10
2.86179e-08
7.31867e-10
2.84431e-08
7.21233e-10
2.82696e-08
7.10798e-10
2.80974e-08
7.00556e-10
2.79266e-08
6.90499e-10
2.77572e-08
6.80623e-10
2.75892e-08
6.70922e-10
2.74226e-08
6.61389e-10
2.72574e-08
6.52021e-10
2.70936e-08
6.42812e-10
2.69313e-08
6.33759e-10
2.67705e-08
6.24859e-10
2.66111e-08
6.16109e-10
2.64532e-08
6.07507e-10
2.62968e-08
5.99052e-10
2.61419e-08
5.90745e-10
2.59884e-08
5.82586e-10
2.58365e-08
5.74579e-10
2.5686e-08
5.6673e-10
2.5537e-08
5.59045e-10
2.53895e-08
5.51538e-10
2.52435e-08
5.44226e-10
2.50989e-08
5.37138e-10
2.49557e-08
5.30321e-10
2.48139e-08
5.23857e-10
2.46734e-08
5.17908e-10
2.45341e-08
5.12833e-10
2.43958e-08
5.09528e-10
2.42584e-08
5.10493e-10
2.41244e-08
5.22743e-10
5.50806e-10
3.78242e-08
2.39976e-09
-3.77056e-08
3.79768e-08
2.68298e-09
3.81415e-08
2.8932e-09
3.83065e-08
3.03631e-09
3.8466e-08
3.12387e-09
3.86149e-08
3.16317e-09
3.87487e-08
3.15975e-09
3.88643e-08
3.12019e-09
3.896e-08
3.05204e-09
3.90351e-08
2.96292e-09
3.90899e-08
2.85996e-09
3.91256e-08
2.74955e-09
3.91438e-08
2.63706e-09
3.91465e-08
2.52668e-09
3.91358e-08
2.42135e-09
3.91136e-08
2.32292e-09
3.90817e-08
2.23229e-09
3.90414e-08
2.14966e-09
3.89939e-08
2.07474e-09
3.89401e-08
2.00693e-09
3.88807e-08
1.94551e-09
3.88161e-08
1.8897e-09
3.87467e-08
1.83874e-09
3.86727e-08
1.79196e-09
3.85944e-08
1.74876e-09
3.8512e-08
1.70864e-09
3.84255e-08
1.67119e-09
3.83351e-08
1.63604e-09
3.82408e-08
1.60291e-09
3.81429e-08
1.57157e-09
3.80414e-08
1.54181e-09
3.79364e-08
1.51348e-09
3.78281e-08
1.48643e-09
3.77166e-08
1.46054e-09
3.76019e-08
1.43572e-09
3.74842e-08
1.41187e-09
3.73637e-08
1.38891e-09
3.72404e-08
1.36677e-09
3.71145e-08
1.34539e-09
3.6986e-08
1.32471e-09
3.68551e-08
1.30469e-09
3.6722e-08
1.28528e-09
3.65867e-08
1.26644e-09
3.64493e-08
1.24813e-09
3.631e-08
1.23031e-09
3.61688e-08
1.21297e-09
3.6026e-08
1.19607e-09
3.58815e-08
1.17958e-09
3.57354e-08
1.16348e-09
3.5588e-08
1.14776e-09
3.54392e-08
1.13239e-09
3.52893e-08
1.11736e-09
3.51382e-08
1.10264e-09
3.49861e-08
1.08823e-09
3.4833e-08
1.0741e-09
3.46791e-08
1.06026e-09
3.45244e-08
1.04668e-09
3.43691e-08
1.03335e-09
3.42131e-08
1.02026e-09
3.40566e-08
1.00741e-09
3.38997e-08
9.94779e-10
3.37423e-08
9.82363e-10
3.35847e-08
9.70153e-10
3.34269e-08
9.58141e-10
3.32688e-08
9.46319e-10
3.31107e-08
9.34681e-10
3.29525e-08
9.23219e-10
3.27943e-08
9.11927e-10
3.26363e-08
9.00799e-10
3.24783e-08
8.89829e-10
3.23205e-08
8.79012e-10
3.2163e-08
8.68341e-10
3.20057e-08
8.57813e-10
3.18488e-08
8.47423e-10
3.16922e-08
8.37166e-10
3.15361e-08
8.27039e-10
3.13805e-08
8.17036e-10
3.12253e-08
8.07157e-10
3.10708e-08
7.97396e-10
3.09168e-08
7.87754e-10
3.07634e-08
7.78226e-10
3.06107e-08
7.68813e-10
3.04587e-08
7.59515e-10
3.03074e-08
7.50332e-10
3.01569e-08
7.41266e-10
3.00071e-08
7.3232e-10
2.98582e-08
7.23501e-10
2.97101e-08
7.14815e-10
2.95629e-08
7.06274e-10
2.94166e-08
6.97894e-10
2.92711e-08
6.89697e-10
2.91265e-08
6.81717e-10
2.89828e-08
6.74009e-10
2.884e-08
6.66666e-10
2.86981e-08
6.59864e-10
2.85569e-08
6.53972e-10
2.84166e-08
6.49834e-10
2.82776e-08
6.49456e-10
2.81435e-08
6.56874e-10
6.67482e-10
3.85805e-08
2.29638e-09
-3.84772e-08
3.87148e-08
2.54871e-09
3.88632e-08
2.7448e-09
3.9015e-08
2.8845e-09
3.91642e-08
2.97469e-09
3.93062e-08
3.02122e-09
3.9437e-08
3.02889e-09
3.95539e-08
3.00326e-09
3.96553e-08
2.95074e-09
3.97402e-08
2.87796e-09
3.98089e-08
2.79122e-09
3.98623e-08
2.69622e-09
3.99015e-08
2.59783e-09
3.99282e-08
2.49996e-09
3.99441e-08
2.40547e-09
3.99508e-08
2.31625e-09
3.99497e-08
2.23338e-09
3.99421e-08
2.15728e-09
3.99289e-08
2.08789e-09
3.9911e-08
2.02484e-09
3.98889e-08
1.9676e-09
3.98631e-08
1.91555e-09
3.98337e-08
1.86807e-09
3.98011e-08
1.82457e-09
3.97654e-08
1.78453e-09
3.97265e-08
1.74749e-09
3.96847e-08
1.71305e-09
3.96398e-08
1.68089e-09
3.9592e-08
1.65072e-09
3.95412e-08
1.62232e-09
3.94876e-08
1.59548e-09
3.9431e-08
1.57004e-09
3.93716e-08
1.54586e-09
3.93093e-08
1.52282e-09
3.92442e-08
1.50081e-09
3.91763e-08
1.47973e-09
3.91057e-08
1.45951e-09
3.90324e-08
1.44007e-09
3.89565e-08
1.42135e-09
3.88779e-08
1.40328e-09
3.87968e-08
1.38582e-09
3.87131e-08
1.36892e-09
3.8627e-08
1.35254e-09
3.85385e-08
1.33664e-09
3.84477e-08
1.32117e-09
3.83545e-08
1.30612e-09
3.82591e-08
1.29145e-09
3.81616e-08
1.27714e-09
3.80619e-08
1.26316e-09
3.79602e-08
1.24949e-09
3.78564e-08
1.23611e-09
3.77508e-08
1.223e-09
3.76433e-08
1.21015e-09
3.7534e-08
1.19753e-09
3.74229e-08
1.18514e-09
3.73102e-08
1.17297e-09
3.71959e-08
1.16099e-09
3.70801e-08
1.1492e-09
3.69627e-08
1.13759e-09
3.6844e-08
1.12614e-09
3.67239e-08
1.11486e-09
3.66026e-08
1.10373e-09
3.648e-08
1.09274e-09
3.63562e-08
1.08188e-09
3.62314e-08
1.07115e-09
3.61055e-08
1.06055e-09
3.59787e-08
1.05006e-09
3.5851e-08
1.03968e-09
3.57224e-08
1.0294e-09
3.5593e-08
1.01922e-09
3.54628e-08
1.00914e-09
3.5332e-08
9.99149e-10
3.52006e-08
9.89243e-10
3.50686e-08
9.79419e-10
3.49361e-08
9.69673e-10
3.48031e-08
9.60003e-10
3.46698e-08
9.50406e-10
3.4536e-08
9.40879e-10
3.4402e-08
9.31421e-10
3.42677e-08
9.2203e-10
3.41333e-08
9.12706e-10
3.39986e-08
9.03449e-10
3.38639e-08
8.94259e-10
3.37291e-08
8.8514e-10
3.35942e-08
8.76095e-10
3.34594e-08
8.67128e-10
3.33247e-08
8.58247e-10
3.319e-08
8.49462e-10
3.30555e-08
8.40786e-10
3.29212e-08
8.32238e-10
3.2787e-08
8.23845e-10
3.26531e-08
8.15644e-10
3.25194e-08
8.07696e-10
3.2386e-08
8.00099e-10
3.22528e-08
7.93028e-10
3.212e-08
7.86824e-10
3.19876e-08
7.82174e-10
3.18567e-08
7.8037e-10
3.17309e-08
7.82659e-10
7.78134e-10
3.93444e-08
2.20457e-09
-3.92526e-08
3.94634e-08
2.42968e-09
3.95971e-08
2.61107e-09
3.97361e-08
2.74553e-09
3.98744e-08
2.83643e-09
4.00075e-08
2.88805e-09
4.0132e-08
2.9044e-09
4.02452e-08
2.89013e-09
4.03453e-08
2.85064e-09
4.04316e-08
2.79165e-09
4.05041e-08
2.7187e-09
4.05634e-08
2.63688e-09
4.06106e-08
2.55061e-09
4.06471e-08
2.4635e-09
4.06743e-08
2.37831e-09
4.06936e-08
2.29696e-09
4.07063e-08
2.22064e-09
4.07136e-08
2.14994e-09
4.07165e-08
2.08501e-09
4.07157e-08
2.02567e-09
4.07117e-08
1.97156e-09
4.0705e-08
1.92222e-09
4.0696e-08
1.87716e-09
4.06846e-08
1.83588e-09
4.06712e-08
1.79793e-09
4.06558e-08
1.7629e-09
4.06384e-08
1.73044e-09
4.06191e-08
1.70023e-09
4.05978e-08
1.67201e-09
4.05746e-08
1.64556e-09
4.05493e-08
1.62069e-09
4.05222e-08
1.59724e-09
4.0493e-08
1.57506e-09
4.04617e-08
1.55403e-09
4.04285e-08
1.53405e-09
4.03932e-08
1.51502e-09
4.03559e-08
1.49685e-09
4.03165e-08
1.47947e-09
4.0275e-08
1.46282e-09
4.02315e-08
1.44683e-09
4.01858e-08
1.43145e-09
4.01381e-08
1.41663e-09
4.00883e-08
1.40232e-09
4.00365e-08
1.38849e-09
3.99826e-08
1.37509e-09
3.99266e-08
1.36209e-09
3.98686e-08
1.34947e-09
3.98085e-08
1.33719e-09
3.97465e-08
1.32522e-09
3.96824e-08
1.31354e-09
3.96164e-08
1.30214e-09
3.95484e-08
1.29098e-09
3.94785e-08
1.28006e-09
3.94067e-08
1.26935e-09
3.9333e-08
1.25883e-09
3.92575e-08
1.2485e-09
3.91801e-08
1.23834e-09
3.9101e-08
1.22834e-09
3.90201e-08
1.21847e-09
3.89375e-08
1.20875e-09
3.88532e-08
1.19914e-09
3.87673e-08
1.18965e-09
3.86798e-08
1.18027e-09
3.85907e-08
1.17098e-09
3.85e-08
1.16178e-09
3.84079e-08
1.15266e-09
3.83144e-08
1.14362e-09
3.82194e-08
1.13464e-09
3.81231e-08
1.12572e-09
3.80254e-08
1.11687e-09
3.79265e-08
1.10806e-09
3.78264e-08
1.0993e-09
3.7725e-08
1.09058e-09
3.76225e-08
1.0819e-09
3.7519e-08
1.07325e-09
3.74143e-08
1.06464e-09
3.73087e-08
1.05605e-09
3.72021e-08
1.04748e-09
3.70946e-08
1.03895e-09
3.69862e-08
1.03043e-09
3.68769e-08
1.02193e-09
3.67669e-08
1.01346e-09
3.66562e-08
1.00502e-09
3.65447e-08
9.96595e-10
3.64326e-08
9.88205e-10
3.63199e-08
9.79853e-10
3.62066e-08
9.71545e-10
3.60927e-08
9.63294e-10
3.59784e-08
9.55115e-10
3.58636e-08
9.47027e-10
3.57484e-08
9.39061e-10
3.56328e-08
9.31256e-10
3.55168e-08
9.23674e-10
3.54005e-08
9.16412e-10
3.52839e-08
9.09632e-10
3.51671e-08
9.03613e-10
3.50505e-08
8.98825e-10
3.4935e-08
8.9581e-10
3.48241e-08
8.93617e-10
8.77993e-10
4.01162e-08
2.12181e-09
-4.00334e-08
4.02227e-08
2.32322e-09
4.03435e-08
2.49023e-09
4.04707e-08
2.61834e-09
4.05986e-08
2.70855e-09
4.0723e-08
2.76365e-09
4.08405e-08
2.78688e-09
4.09486e-08
2.78205e-09
4.10455e-08
2.75368e-09
4.11305e-08
2.70667e-09
4.12033e-08
2.64585e-09
4.12645e-08
2.57573e-09
4.13148e-08
2.5003e-09
4.13554e-08
2.42291e-09
4.13875e-08
2.34616e-09
4.14125e-08
2.27197e-09
4.14316e-08
2.2016e-09
4.14457e-08
2.13578e-09
4.14559e-08
2.07481e-09
4.14629e-08
2.01868e-09
4.14673e-08
1.96721e-09
4.14694e-08
1.92006e-09
4.14697e-08
1.87685e-09
4.14685e-08
1.83718e-09
4.14657e-08
1.80068e-09
4.14616e-08
1.76699e-09
4.14563e-08
1.73579e-09
4.14497e-08
1.70681e-09
4.14419e-08
1.6798e-09
4.14329e-08
1.65456e-09
4.14227e-08
1.6309e-09
4.14113e-08
1.60866e-09
4.13986e-08
1.58772e-09
4.13847e-08
1.56795e-09
4.13695e-08
1.54925e-09
4.1353e-08
1.53152e-09
4.13352e-08
1.51468e-09
4.1316e-08
1.49865e-09
4.12954e-08
1.48338e-09
4.12735e-08
1.46879e-09
4.12501e-08
1.45483e-09
4.12253e-08
1.44146e-09
4.1199e-08
1.42862e-09
4.11712e-08
1.41627e-09
4.11419e-08
1.40438e-09
4.11111e-08
1.39291e-09
4.10787e-08
1.38182e-09
4.10448e-08
1.37109e-09
4.10094e-08
1.36069e-09
4.09723e-08
1.35059e-09
4.09337e-08
1.34077e-09
4.08934e-08
1.33121e-09
4.08516e-08
1.32189e-09
4.08082e-08
1.31278e-09
4.07631e-08
1.30387e-09
4.07165e-08
1.29515e-09
4.06682e-08
1.28659e-09
4.06184e-08
1.27819e-09
4.05669e-08
1.26993e-09
4.05139e-08
1.2618e-09
4.04592e-08
1.25378e-09
4.0403e-08
1.24586e-09
4.03452e-08
1.23804e-09
4.02859e-08
1.23031e-09
4.02251e-08
1.22265e-09
4.01627e-08
1.21505e-09
4.00988e-08
1.20752e-09
4.00334e-08
1.20003e-09
3.99665e-08
1.19259e-09
3.98982e-08
1.18518e-09
3.98285e-08
1.1778e-09
3.97573e-08
1.17045e-09
3.96848e-08
1.16311e-09
3.96109e-08
1.15579e-09
3.95357e-08
1.14848e-09
3.94591e-08
1.14117e-09
3.93813e-08
1.13386e-09
3.93022e-08
1.12655e-09
3.92219e-08
1.11924e-09
3.91405e-08
1.11192e-09
3.90578e-08
1.10459e-09
3.8974e-08
1.09725e-09
3.88891e-08
1.08991e-09
3.88032e-08
1.08256e-09
3.87161e-08
1.07521e-09
3.86281e-08
1.06787e-09
3.85391e-08
1.06055e-09
3.84492e-08
1.05325e-09
3.83583e-08
1.04599e-09
3.82665e-08
1.03879e-09
3.81739e-08
1.03169e-09
3.80804e-08
1.02472e-09
3.79862e-08
1.01795e-09
3.78911e-08
1.01146e-09
3.77954e-08
1.00539e-09
3.7699e-08
9.99941e-10
3.76025e-08
9.95351e-10
3.75068e-08
9.91515e-10
3.74144e-08
9.86045e-10
9.63951e-10
4.08966e-08
2.04632e-09
-4.08211e-08
4.09926e-08
2.22718e-09
4.11023e-08
2.38063e-09
4.12188e-08
2.50182e-09
4.1337e-08
2.59027e-09
4.14531e-08
2.64758e-09
4.15638e-08
2.6762e-09
4.16666e-08
2.67921e-09
4.17599e-08
2.66039e-09
4.18428e-08
2.62385e-09
4.19148e-08
2.5738e-09
4.19763e-08
2.51422e-09
4.20279e-08
2.44868e-09
4.20706e-08
2.38025e-09
4.21054e-08
2.31138e-09
4.21334e-08
2.24394e-09
4.21558e-08
2.17923e-09
4.21735e-08
2.11807e-09
4.21874e-08
2.0609e-09
4.21982e-08
2.00785e-09
4.22066e-08
1.95885e-09
4.22129e-08
1.91371e-09
4.22176e-08
1.87215e-09
4.22209e-08
1.83386e-09
4.22231e-08
1.79854e-09
4.22242e-08
1.76587e-09
4.22244e-08
1.7356e-09
4.22237e-08
1.70747e-09
4.22222e-08
1.68127e-09
4.222e-08
1.6568e-09
4.2217e-08
1.63389e-09
4.22132e-08
1.61241e-09
4.22088e-08
1.59222e-09
4.22035e-08
1.5732e-09
4.21975e-08
1.55526e-09
4.21907e-08
1.5383e-09
4.21831e-08
1.52226e-09
4.21747e-08
1.50704e-09
4.21655e-08
1.49259e-09
4.21555e-08
1.47886e-09
4.21445e-08
1.46577e-09
4.21327e-08
1.45329e-09
4.21199e-08
1.44137e-09
4.21062e-08
1.42997e-09
4.20916e-08
1.41904e-09
4.20759e-08
1.40856e-09
4.20593e-08
1.39849e-09
4.20415e-08
1.38879e-09
4.20228e-08
1.37945e-09
4.20029e-08
1.37043e-09
4.1982e-08
1.36172e-09
4.19599e-08
1.35328e-09
4.19367e-08
1.3451e-09
4.19124e-08
1.33715e-09
4.18868e-08
1.32942e-09
4.18601e-08
1.32189e-09
4.18321e-08
1.31455e-09
4.18029e-08
1.30737e-09
4.17725e-08
1.30035e-09
4.17409e-08
1.29346e-09
4.17079e-08
1.2867e-09
4.16737e-08
1.28006e-09
4.16383e-08
1.27352e-09
4.16015e-08
1.26707e-09
4.15634e-08
1.2607e-09
4.15241e-08
1.25441e-09
4.14834e-08
1.24817e-09
4.14415e-08
1.24199e-09
4.13982e-08
1.23585e-09
4.13537e-08
1.22974e-09
4.13078e-08
1.22367e-09
4.12606e-08
1.21762e-09
4.12122e-08
1.21158e-09
4.11624e-08
1.20555e-09
4.11114e-08
1.19952e-09
4.1059e-08
1.19349e-09
4.10055e-08
1.18745e-09
4.09506e-08
1.1814e-09
4.08945e-08
1.17534e-09
4.08372e-08
1.16925e-09
4.07786e-08
1.16315e-09
4.07188e-08
1.15703e-09
4.06579e-08
1.15089e-09
4.05957e-08
1.14473e-09
4.05324e-08
1.13855e-09
4.04679e-08
1.13236e-09
4.04022e-08
1.12618e-09
4.03355e-08
1.12e-09
4.02676e-08
1.11385e-09
4.01986e-08
1.10775e-09
4.01286e-08
1.10173e-09
4.00575e-08
1.09582e-09
3.99854e-08
1.09008e-09
3.99122e-08
1.0846e-09
3.98382e-08
1.07947e-09
3.97633e-08
1.07481e-09
3.9688e-08
1.07066e-09
3.96131e-08
1.06644e-09
3.954e-08
1.05907e-09
1.03478e-09
4.16863e-08
1.9768e-09
-4.16168e-08
4.17736e-08
2.13987e-09
4.18734e-08
2.28078e-09
4.19804e-08
2.39488e-09
4.20898e-08
2.48082e-09
4.21981e-08
2.53929e-09
4.23023e-08
2.57205e-09
4.23999e-08
2.58155e-09
4.24894e-08
2.57087e-09
4.25698e-08
2.54349e-09
4.26406e-08
2.50302e-09
4.27019e-08
2.45295e-09
4.27541e-08
2.39646e-09
4.2798e-08
2.33633e-09
4.28345e-08
2.27488e-09
4.28645e-08
2.21388e-09
4.28891e-08
2.15465e-09
4.29091e-08
2.09806e-09
4.29254e-08
2.04466e-09
4.29386e-08
1.99468e-09
4.29492e-08
1.94817e-09
4.29579e-08
1.90505e-09
4.29649e-08
1.86513e-09
4.29706e-08
1.82819e-09
4.29751e-08
1.79398e-09
4.29787e-08
1.76227e-09
4.29815e-08
1.73281e-09
4.29836e-08
1.7054e-09
4.2985e-08
1.67984e-09
4.29859e-08
1.65596e-09
4.29862e-08
1.6336e-09
4.29859e-08
1.61264e-09
4.29852e-08
1.59294e-09
4.2984e-08
1.57441e-09
4.29823e-08
1.55695e-09
4.29801e-08
1.54047e-09
4.29775e-08
1.5249e-09
4.29744e-08
1.51017e-09
4.29707e-08
1.49621e-09
4.29666e-08
1.48298e-09
4.2962e-08
1.4704e-09
4.29568e-08
1.45845e-09
4.29512e-08
1.44706e-09
4.29449e-08
1.43622e-09
4.29381e-08
1.42586e-09
4.29307e-08
1.41597e-09
4.29227e-08
1.40651e-09
4.2914e-08
1.39744e-09
4.29047e-08
1.38875e-09
4.28947e-08
1.3804e-09
4.28841e-08
1.37237e-09
4.28727e-08
1.36464e-09
4.28606e-08
1.35719e-09
4.28478e-08
1.34999e-09
4.28342e-08
1.34303e-09
4.28198e-08
1.33629e-09
4.28046e-08
1.32976e-09
4.27885e-08
1.32341e-09
4.27716e-08
1.31723e-09
4.27539e-08
1.31122e-09
4.27353e-08
1.30535e-09
4.27157e-08
1.2996e-09
4.26952e-08
1.29398e-09
4.26738e-08
1.28847e-09
4.26515e-08
1.28305e-09
4.26282e-08
1.27772e-09
4.26039e-08
1.27247e-09
4.25786e-08
1.26728e-09
4.25523e-08
1.26215e-09
4.25249e-08
1.25707e-09
4.24966e-08
1.25202e-09
4.24672e-08
1.24701e-09
4.24368e-08
1.24202e-09
4.24053e-08
1.23705e-09
4.23727e-08
1.23209e-09
4.2339e-08
1.22713e-09
4.23043e-08
1.22218e-09
4.22685e-08
1.21721e-09
4.22316e-08
1.21224e-09
4.21936e-08
1.20725e-09
4.21545e-08
1.20224e-09
4.21143e-08
1.19722e-09
4.2073e-08
1.19217e-09
4.20307e-08
1.18711e-09
4.19872e-08
1.18204e-09
4.19426e-08
1.17695e-09
4.18969e-08
1.17187e-09
4.18501e-08
1.16679e-09
4.18022e-08
1.16174e-09
4.17532e-08
1.15673e-09
4.17032e-08
1.1518e-09
4.1652e-08
1.14697e-09
4.15998e-08
1.14231e-09
4.15465e-08
1.13787e-09
4.14923e-08
1.13373e-09
4.14372e-08
1.12993e-09
4.13815e-08
1.12634e-09
4.13258e-08
1.12212e-09
4.12708e-08
1.11411e-09
1.09094e-09
4.24858e-08
1.91232e-09
-4.24213e-08
4.25657e-08
2.05994e-09
4.26571e-08
2.18941e-09
4.27555e-08
2.29651e-09
4.28568e-08
2.37944e-09
4.29579e-08
2.43825e-09
4.30559e-08
2.47409e-09
4.31485e-08
2.48889e-09
4.32342e-08
2.48513e-09
4.3312e-08
2.46573e-09
4.33813e-08
2.43375e-09
4.3442e-08
2.39223e-09
4.34944e-08
2.34401e-09
4.35392e-08
2.2916e-09
4.35769e-08
2.23711e-09
4.36086e-08
2.18226e-09
4.36349e-08
2.12833e-09
4.36567e-08
2.07625e-09
4.36748e-08
2.0266e-09
4.36897e-08
1.97973e-09
4.37021e-08
1.93578e-09
4.37124e-08
1.89475e-09
4.3721e-08
1.85654e-09