/*--------------------------------*- C++ -*----------------------------------*\
| =========                 |                                                 |
| \\      /  F ield         | OpenFOAM: The Open Source CFD Toolbox           |
|  \\    /   O peration     | Version:  2.3.0                                 |
|   \\  /    A nd           | Web:      www.OpenFOAM.org                      |
|    \\/     M anipulation  |                                                 |
\*---------------------------------------------------------------------------*/
FoamFile
{
    version     2.0;
    format      ascii;
    class       surfaceScalarField;
    location    "0.9";
    object      phi_0;
}
// * * * * * * * * * * * * * * * * * * * * * * * * * * * * * * * * * * * * * //

dimensions      [0 3 -1 0 0 0 0];

internalField   nonuniform List<scalar> 
5764
(
2.00245e-08
5.01077e-09
-2.50352e-08
1.48945e-08
5.13002e-09
1.09258e-08
3.96867e-09
8.23218e-09
2.6936e-09
6.59104e-09
1.64114e-09
5.64069e-09
9.50353e-10
5.07061e-09
5.70072e-10
4.69085e-09
3.79765e-10
4.40177e-09
2.89084e-10
4.15921e-09
2.42557e-10
3.94683e-09
2.12379e-10
3.7589e-09
1.87926e-10
3.59237e-09
1.66535e-10
3.44435e-09
1.4802e-10
3.31196e-09
1.32385e-10
3.19264e-09
1.19322e-10
3.08426e-09
1.08379e-10
2.98517e-09
9.90877e-11
2.89407e-09
9.11015e-11
2.80994e-09
8.41362e-11
2.73192e-09
7.80196e-11
2.65933e-09
7.25899e-11
2.59157e-09
6.77612e-11
2.52814e-09
6.34242e-11
2.46861e-09
5.95314e-11
2.41261e-09
5.60018e-11
2.3598e-09
5.28095e-11
2.30991e-09
4.98892e-11
2.26268e-09
4.72352e-11
2.21789e-09
4.47836e-11
2.17534e-09
4.25524e-11
2.13487e-09
4.04714e-11
2.09629e-09
3.85745e-11
2.0595e-09
3.67928e-11
2.02433e-09
3.51658e-11
1.99071e-09
3.3626e-11
1.95848e-09
3.22245e-11
1.9276e-09
3.08795e-11
1.89794e-09
2.96694e-11
1.86945e-09
2.84847e-11
1.84202e-09
2.74351e-11
1.81563e-09
2.63844e-11
1.79016e-09
2.54703e-11
1.76563e-09
2.45321e-11
1.74189e-09
2.3735e-11
1.719e-09
2.28898e-11
1.6968e-09
2.2199e-11
1.67538e-09
2.14249e-11
1.65455e-09
2.0834e-11
1.63443e-09
2.01168e-11
1.61482e-09
1.96118e-11
1.59587e-09
1.89452e-11
1.57735e-09
1.852e-11
1.55947e-09
1.78838e-11
1.54192e-09
1.75486e-11
1.525e-09
1.69234e-11
1.50832e-09
1.6678e-11
1.49226e-09
1.60572e-11
1.47636e-09
1.59e-11
1.46109e-09
1.52704e-11
1.44588e-09
1.52129e-11
1.43132e-09
1.45563e-11
1.41671e-09
1.46154e-11
1.4028e-09
1.39084e-11
1.38868e-09
1.41133e-11
1.37536e-09
1.33213e-11
1.36166e-09
1.37045e-11
1.34885e-09
1.28091e-11
1.33544e-09
1.34082e-11
1.32308e-09
1.23615e-11
1.30982e-09
1.32618e-11
1.29783e-09
1.19886e-11
1.28451e-09
1.33216e-11
1.27277e-09
1.174e-11
1.48621e-11
2.69244e-08
4.90542e-09
-2.6819e-08
2.55752e-08
6.47914e-09
2.35613e-08
5.98263e-09
2.14035e-08
4.85138e-09
1.93767e-08
3.66796e-09
1.76079e-08
2.71913e-09
1.61242e-08
2.05375e-09
1.49062e-08
1.59782e-09
1.39103e-08
1.28496e-09
1.30872e-08
1.0656e-09
1.23933e-08
9.0631e-10
1.17959e-08
7.85377e-10
1.12727e-08
6.89682e-10
1.08089e-08
6.1188e-10
1.03936e-08
5.47666e-10
1.00188e-08
4.94101e-10
9.6782e-09
4.48979e-10
9.36677e-09
4.10519e-10
9.08048e-09
3.77387e-10
8.81609e-09
3.48525e-10
8.57093e-09
3.23188e-10
8.34276e-09
3.00751e-10
8.12974e-09
2.80789e-10
7.93026e-09
2.629e-10
7.74297e-09
2.46819e-10
7.5667e-09
2.32272e-10
7.40043e-09
2.19081e-10
7.24327e-09
2.07051e-10
7.09443e-09
1.96072e-10
6.95324e-09
1.85981e-10
6.81906e-09
1.76731e-10
6.69136e-09
1.68169e-10
6.56965e-09
1.60289e-10
6.45348e-09
1.5296e-10
6.34246e-09
1.46184e-10
6.23623e-09
1.39855e-10
6.13446e-09
1.33993e-10
6.03686e-09
1.28481e-10
5.94315e-09
1.23383e-10
5.85308e-09
1.18548e-10
5.76643e-09
1.1409e-10
5.68299e-09
1.09824e-10
5.60255e-09
1.05905e-10
5.52497e-09
1.0212e-10
5.45004e-09
9.86604e-11
5.37765e-09
9.52837e-11
5.30762e-09
9.22272e-11
5.23986e-09
8.91853e-11
5.1742e-09
8.64913e-11
5.11059e-09
8.3731e-11
5.04885e-09
8.13469e-11
4.98896e-09
7.88382e-11
4.93075e-09
7.67286e-11
4.87422e-09
7.44173e-11
4.81918e-09
7.25863e-11
4.76568e-09
7.04186e-11
4.71351e-09
6.88522e-11
4.66276e-09
6.68065e-11
4.61317e-09
6.54865e-11
4.56491e-09
6.35324e-11
4.51766e-09
6.24697e-11
4.47164e-09
6.05695e-11
4.42647e-09
5.97877e-11
4.38248e-09
5.78956e-11
4.33915e-09
5.74459e-11
4.29697e-09
5.54961e-11
4.25524e-09
5.54405e-11
4.21464e-09
5.34111e-11
4.17423e-09
5.38136e-11
4.13495e-09
5.16388e-11
4.09555e-09
5.26612e-11
4.0573e-09
5.02465e-11
4.01848e-09
5.21357e-11
3.98072e-09
4.94996e-11
5.51731e-11
2.83082e-08
4.27274e-09
-2.76755e-08
2.86202e-08
6.1671e-09
2.83092e-08
6.29367e-09
2.7591e-08
5.56955e-09
2.6629e-08
4.62994e-09
2.5549e-08
3.79911e-09
2.44386e-08
3.16413e-09
2.33504e-08
2.68605e-09
2.23185e-08
2.31685e-09
2.13597e-08
2.02445e-09
2.04772e-08
1.7888e-09
1.96675e-08
1.59506e-09
1.89249e-08
1.43229e-09
1.82434e-08
1.29342e-09
1.7617e-08
1.174e-09
1.70403e-08
1.07086e-09
1.65078e-08
9.81478e-10
1.60147e-08
9.03616e-10
1.55567e-08
8.35389e-10
1.513e-08
7.75208e-10
1.47314e-08
7.21814e-10
1.4358e-08
6.7416e-10
1.40073e-08
6.31426e-10
1.36773e-08
5.92917e-10
1.3366e-08
5.5807e-10
1.30719e-08
5.2642e-10
1.27934e-08
4.97554e-10
1.25293e-08
4.71159e-10
1.22785e-08
4.4693e-10
1.20398e-08
4.24641e-10
1.18125e-08
4.04076e-10
1.15956e-08
3.85062e-10
1.13884e-08
3.67431e-10
1.11903e-08
3.51077e-10
1.10007e-08
3.35829e-10
1.08189e-08
3.21656e-10
1.06445e-08
3.08384e-10
1.04769e-08
2.9601e-10
1.03159e-08
2.84394e-10
1.0161e-08
2.73526e-10
1.00117e-08
2.63299e-10
9.86786e-09
2.53708e-10
9.72911e-09
2.44651e-10
9.59508e-09
2.36153e-10
9.46565e-09
2.28092e-10
9.3404e-09
2.20531e-10
9.2193e-09
2.13333e-10
9.10192e-09
2.06564e-10
8.98828e-09
2.00127e-10
8.87797e-09
1.94041e-10
8.77107e-09
1.88249e-10
8.66713e-09
1.8278e-10
8.56631e-09
1.77546e-10
8.46813e-09
1.72596e-10
8.37282e-09
1.67897e-10
8.27987e-09
1.63374e-10
8.18956e-09
1.59158e-10
8.10134e-09
1.55026e-10
8.01559e-09
1.51238e-10
7.93167e-09
1.47451e-10
7.85006e-09
1.44081e-10
7.77004e-09
1.40591e-10
7.69218e-09
1.37644e-10
7.61568e-09
1.34399e-10
7.5412e-09
1.31921e-10
7.46785e-09
1.28848e-10
7.39639e-09
1.26901e-10
7.32579e-09
1.2401e-10
7.25696e-09
1.22647e-10
7.18869e-09
1.19906e-10
7.12203e-09
1.19321e-10
7.05559e-09
1.16683e-10
6.99049e-09
1.17244e-10
6.92519e-09
1.14793e-10
1.20822e-10
2.91278e-08
3.8633e-09
-2.87183e-08
2.97212e-08
5.57369e-09
3.0007e-08
6.00785e-09
3.00099e-08
5.56667e-09
2.97925e-08
4.84733e-09
2.94115e-08
4.18013e-09
2.89156e-08
3.66002e-09
2.83406e-08
3.26104e-09
2.77174e-08
2.94003e-09
2.70703e-08
2.67163e-09
2.64153e-08
2.44374e-09
2.57627e-08
2.24768e-09
2.51192e-08
2.07581e-09
2.44899e-08
1.9227e-09
2.38788e-08
1.78506e-09
2.32887e-08
1.66096e-09
2.27213e-08
1.54894e-09
2.21772e-08
1.44772e-09
2.16565e-08
1.35602e-09
2.1159e-08
1.27275e-09
2.06839e-08
1.19692e-09
2.02303e-08
1.12771e-09
1.97974e-08
1.06436e-09
1.9384e-08
1.0063e-09
1.89892e-08
9.52902e-10
1.86118e-08
9.03786e-10
1.8251e-08
8.58389e-10
1.79057e-08
8.16488e-10
1.7575e-08
7.7758e-10
1.72581e-08
7.41548e-10
1.69542e-08
7.07951e-10
1.66625e-08
6.76754e-10
1.63824e-08
6.4753e-10
1.61131e-08
6.20366e-10
1.58542e-08
5.94777e-10
1.56049e-08
5.70995e-10
1.53648e-08
5.48473e-10
1.51332e-08
5.27538e-10
1.491e-08
5.07621e-10
1.46944e-08
4.89114e-10
1.44863e-08
4.71408e-10
1.4285e-08
4.54993e-10
1.40905e-08
4.39168e-10
1.39021e-08
4.24568e-10
1.37198e-08
4.10352e-10
1.3543e-08
3.97336e-10
1.33719e-08
3.84516e-10
1.32055e-08
3.72867e-10
1.30444e-08
3.6127e-10
1.28876e-08
3.50824e-10
1.27356e-08
3.4026e-10
1.25875e-08
3.30915e-10
1.24438e-08
3.21235e-10
1.23035e-08
3.1285e-10
1.21674e-08
3.03989e-10
1.20344e-08
2.96437e-10
1.19052e-08
2.88292e-10
1.17787e-08
2.81527e-10
1.1656e-08
2.7399e-10
1.15355e-08
2.67957e-10
1.14186e-08
2.60979e-10
1.13035e-08
2.5563e-10
1.1192e-08
2.49177e-10
1.10819e-08
2.4447e-10
1.09753e-08
2.38561e-10
1.08697e-08
2.34435e-10
1.07675e-08
2.29108e-10
1.06659e-08
2.25626e-10
1.05676e-08
2.20907e-10
1.04695e-08
2.18089e-10
1.03746e-08
2.14209e-10
1.02792e-08
2.12032e-10
1.01869e-08
2.09598e-10
1.00936e-08
2.08035e-10
2.12418e-10
3.00302e-08
3.62074e-09
-2.97876e-08
3.05685e-08
5.03536e-09
3.09673e-08
5.6091e-09
3.11776e-08
5.35631e-09
3.12441e-08
4.7808e-09
3.12021e-08
4.22221e-09
3.10727e-08
3.78938e-09
3.08704e-08
3.46334e-09
3.06091e-08
3.20133e-09
3.03022e-08
2.97851e-09
2.99603e-08
2.78564e-09
2.95905e-08
2.61753e-09
2.91978e-08
2.4685e-09
2.87869e-08
2.33358e-09
2.83625e-08
2.20948e-09
2.79289e-08
2.09457e-09
2.749e-08
1.98781e-09
2.70492e-08
1.88854e-09
2.66092e-08
1.79595e-09
2.61725e-08
1.70953e-09
2.57408e-08
1.62858e-09
2.53157e-08
1.55281e-09
2.48984e-08
1.48165e-09
2.44897e-08
1.41497e-09
2.40904e-08
1.3522e-09
2.37008e-08
1.29337e-09
2.33214e-08
1.23787e-09
2.2952e-08
1.18586e-09
2.25929e-08
1.13667e-09
2.22439e-08
1.09057e-09
2.1905e-08
1.04686e-09
2.15758e-08
1.0059e-09
2.12564e-08
9.66933e-10
2.09463e-08
9.30493e-10
2.06454e-08
8.95638e-10
2.03533e-08
8.63148e-10
2.00698e-08
8.31896e-10
1.97945e-08
8.02855e-10
1.95274e-08
7.74755e-10
1.92678e-08
7.48749e-10
1.90158e-08
7.23389e-10
1.87707e-08
7.00075e-10
1.85328e-08
6.77096e-10
1.83012e-08
6.5618e-10
1.80762e-08
6.35271e-10
1.78571e-08
6.16497e-10
1.76442e-08
5.97401e-10
1.74365e-08
5.80522e-10
1.72348e-08
5.63026e-10
1.70377e-08
5.47856e-10
1.68463e-08
5.31713e-10
1.66591e-08
5.18139e-10
1.64772e-08
5.03147e-10
1.6299e-08
4.91004e-10
1.61259e-08
4.77066e-10
1.59562e-08
4.66209e-10
1.57913e-08
4.53168e-10
1.56292e-08
4.4356e-10
1.5472e-08
4.3125e-10
1.53171e-08
4.22838e-10
1.51669e-08
4.11171e-10
1.50186e-08
4.03921e-10
1.4875e-08
3.92812e-10
1.47327e-08
3.8671e-10
1.45952e-08
3.76143e-10
1.44585e-08
3.71148e-10
1.43264e-08
3.61134e-10
1.41947e-08
3.57368e-10
1.40677e-08
3.47913e-10
1.39403e-08
3.45434e-10
1.38177e-08
3.3685e-10
1.36941e-08
3.35594e-10
1.35749e-08
3.28842e-10
1.34543e-08
3.28598e-10
3.2952e-10
3.1001e-08
3.4618e-09
-3.08421e-08
3.14452e-08
4.59121e-09
3.18422e-08
5.21208e-09
3.20895e-08
5.10898e-09
3.22239e-08
4.64644e-09
3.22881e-08
4.15805e-09
3.23004e-08
3.77705e-09
3.22677e-08
3.49607e-09
3.21951e-08
3.27389e-09
3.2089e-08
3.08465e-09
3.19548e-08
2.9198e-09
3.17957e-08
2.77662e-09
3.16131e-08
2.65109e-09
3.14081e-08
2.53864e-09
3.11821e-08
2.43545e-09
3.09371e-08
2.33954e-09
3.06754e-08
2.24955e-09
3.0399e-08
2.16498e-09
3.011e-08
2.08489e-09
2.98105e-08
2.00906e-09
2.95024e-08
1.93667e-09
2.91875e-08
1.86777e-09
2.88674e-08
1.80166e-09
2.85438e-08
1.73863e-09
2.8218e-08
1.67797e-09
2.78912e-08
1.62016e-09
2.75647e-08
1.56439e-09
2.72392e-08
1.51137e-09
2.69158e-08
1.46009e-09
2.65949e-08
1.41145e-09
2.62774e-08
1.36432e-09
2.59636e-08
1.31975e-09
2.56541e-08
1.2764e-09
2.5349e-08
1.23561e-09
2.50489e-08
1.19574e-09
2.47536e-08
1.15847e-09
2.44637e-08
1.1218e-09
2.41788e-08
1.08776e-09
2.38995e-08
1.05403e-09
2.36253e-08
1.02297e-09
2.33568e-08
9.91885e-10
2.30933e-08
9.63585e-10
2.28355e-08
9.34874e-10
2.25825e-08
9.09134e-10
2.23353e-08
8.82542e-10
2.20926e-08
8.59177e-10
2.18555e-08
8.34481e-10
2.16227e-08
8.13287e-10
2.13955e-08
7.90288e-10
2.11722e-08
7.71116e-10
2.09544e-08
7.49562e-10
2.07402e-08
7.32337e-10
2.05313e-08
7.12013e-10
2.03257e-08
6.96588e-10
2.01254e-08
6.77386e-10
1.9928e-08
6.63633e-10
1.97358e-08
6.45364e-10
1.95461e-08
6.33282e-10
1.93616e-08
6.15743e-10
1.91791e-08
6.05302e-10
1.90019e-08
5.88376e-10
1.88262e-08
5.79577e-10
1.86559e-08
5.63135e-10
1.84866e-08
5.56007e-10
1.83228e-08
5.40008e-10
1.81594e-08
5.34535e-10
1.80015e-08
5.18986e-10
1.78436e-08
5.15336e-10
1.76912e-08
5.00256e-10
1.75381e-08
4.98498e-10
1.73907e-08
4.8433e-10
1.72419e-08
4.84322e-10
1.70984e-08
4.72404e-10
1.69532e-08
4.73811e-10
4.6989e-10
3.20116e-08
3.34064e-09
-3.18904e-08
3.23678e-08
4.23498e-09
3.27398e-08
4.84005e-09
3.2992e-08
4.85682e-09
3.31373e-08
4.50107e-09
3.32234e-08
4.072e-09
3.32749e-08
3.72555e-09
3.32988e-08
3.47212e-09
3.3298e-08
3.27476e-09
3.32762e-08
3.10644e-09
3.32377e-08
2.95823e-09
3.3185e-08
2.82937e-09
3.31183e-08
2.71778e-09
3.3037e-08
2.61993e-09
3.29408e-08
2.53165e-09
3.28296e-08
2.45077e-09
3.27038e-08
2.37537e-09
3.25637e-08
2.30503e-09
3.24101e-08
2.23847e-09
3.22435e-08
2.17566e-09
3.20648e-08
2.11537e-09
3.18747e-08
2.05791e-09
3.16742e-08
2.00214e-09
3.14641e-08
1.94874e-09
3.12456e-08
1.8965e-09
3.10193e-08
1.84644e-09
3.07865e-08
1.79717e-09
3.05478e-08
1.75005e-09
3.03044e-08
1.70347e-09
3.00568e-08
1.65906e-09
2.98062e-08
1.61499e-09
2.95527e-08
1.57317e-09
2.92977e-08
1.53142e-09
2.90412e-08
1.49212e-09
2.87844e-08
1.4526e-09
2.85271e-08
1.41577e-09
2.82704e-08
1.37841e-09
2.80142e-08
1.34399e-09
2.77595e-08
1.30872e-09
2.75059e-08
1.27665e-09
2.72544e-08
1.24334e-09
2.70044e-08
1.21354e-09
2.67573e-08
1.18205e-09
2.65119e-08
1.15449e-09
2.62698e-08
1.12468e-09
2.60296e-08
1.09931e-09
2.57931e-08
1.07104e-09
2.55586e-08
1.04776e-09
2.5328e-08
1.02091e-09
2.50995e-08
9.99636e-10
2.4875e-08
9.73986e-10
2.46526e-08
9.54752e-10
2.44345e-08
9.30118e-10
2.42183e-08
9.12835e-10
2.40065e-08
8.89142e-10
2.37964e-08
8.73735e-10
2.3591e-08
8.50787e-10
2.33869e-08
8.3732e-10
2.31878e-08
8.14913e-10
2.29897e-08
8.03404e-10
2.27966e-08
7.81423e-10
2.26043e-08
7.71925e-10
2.24172e-08
7.50215e-10
2.22304e-08
7.42818e-10
2.20491e-08
7.21344e-10
2.18675e-08
7.16047e-10
2.16917e-08
6.94859e-10
2.15151e-08
6.91863e-10
2.13444e-08
6.71024e-10
2.11725e-08
6.70399e-10
2.10063e-08
6.50516e-10
2.08386e-08
6.52046e-10
2.06762e-08
6.34787e-10
2.05119e-08
6.38114e-10
6.28746e-10
3.30507e-08
3.23268e-09
-3.29428e-08
3.33342e-08
3.95149e-09
3.36711e-08
4.50321e-09
3.39218e-08
4.60607e-09
3.40712e-08
4.35168e-09
3.41603e-08
3.98291e-09
3.422e-08
3.66584e-09
3.42598e-08
3.43229e-09
3.42818e-08
3.25276e-09
3.42887e-08
3.0996e-09
3.42846e-08
2.96231e-09
3.42726e-08
2.84137e-09
3.42539e-08
2.73651e-09
3.42279e-08
2.64588e-09
3.41942e-08
2.56535e-09
3.41521e-08
2.49288e-09
3.41015e-08
2.42601e-09
3.40419e-08
2.36463e-09
3.39734e-08
2.307e-09
3.38955e-08
2.25351e-09
3.38085e-08
2.20238e-09
3.3712e-08
2.15435e-09
3.36065e-08
2.10766e-09
3.34918e-08
2.06348e-09
3.33684e-08
2.01989e-09
3.32363e-08
1.97855e-09
3.30962e-08
1.93724e-09
3.29481e-08
1.89813e-09
3.27929e-08
1.85865e-09
3.26306e-08
1.82141e-09
3.24621e-08
1.78347e-09
3.22874e-08
1.7479e-09
3.21075e-08
1.71128e-09
3.19224e-08
1.6773e-09
3.17331e-08
1.64184e-09
3.15395e-08
1.60942e-09
3.13427e-08
1.57512e-09
3.11425e-08
1.54426e-09
3.09401e-08
1.51113e-09
3.07348e-08
1.48187e-09
3.05283e-08
1.44983e-09
3.03197e-08
1.42218e-09
3.01106e-08
1.39116e-09
2.98999e-08
1.36518e-09
2.96895e-08
1.33512e-09
2.94779e-08
1.31089e-09
2.92672e-08
1.28173e-09
2.90557e-08
1.25923e-09
2.88457e-08
1.23092e-09
2.86352e-08
1.21016e-09
2.84267e-08
1.18253e-09
2.82178e-08
1.16364e-09
2.80113e-08
1.13655e-09
2.78046e-08
1.11953e-09
2.76008e-08
1.09296e-09
2.73968e-08
1.07779e-09
2.7196e-08
1.05157e-09
2.69949e-08
1.0384e-09
2.67975e-08
1.01233e-09
2.65997e-08
1.00123e-09
2.64059e-08
9.75248e-10
2.62114e-08
9.66338e-10
2.60214e-08
9.40286e-10
2.58305e-08
9.33716e-10
2.56442e-08
9.07596e-10
2.54569e-08
9.03366e-10
2.52744e-08
8.77334e-10
2.50906e-08
8.75662e-10
2.49118e-08
8.49838e-10
2.47314e-08
8.50796e-10
2.4556e-08
8.25975e-10
2.43787e-08
8.29306e-10
2.42061e-08
8.07403e-10
2.40314e-08
8.12811e-10
7.98423e-10
3.41128e-08
3.12797e-09
-3.40081e-08
3.43423e-08
3.72199e-09
3.4639e-08
4.20647e-09
3.48828e-08
4.36225e-09
3.50366e-08
4.19791e-09
3.51273e-08
3.89218e-09
3.51886e-08
3.60457e-09
3.52332e-08
3.3877e-09
3.52633e-08
3.22269e-09
3.52801e-08
3.08277e-09
3.52873e-08
2.95505e-09
3.52885e-08
2.84018e-09
3.52859e-08
2.73916e-09
3.52796e-08
2.65215e-09
3.52697e-08
2.57527e-09
3.52556e-08
2.50699e-09
3.52374e-08
2.44423e-09
3.52146e-08
2.3874e-09
3.51874e-08
2.33423e-09
3.51551e-08
2.2858e-09
3.51178e-08
2.23968e-09
3.50748e-08
2.19731e-09
3.50263e-08
2.15612e-09
3.49717e-08
2.11809e-09
3.49113e-08
2.08033e-09
3.48444e-08
2.04547e-09
3.47715e-08
2.01014e-09
3.4692e-08
1.97765e-09
3.46065e-08
1.94415e-09
3.45144e-08
1.91349e-09
3.44165e-08
1.88136e-09
3.43122e-08
1.85225e-09
3.42023e-08
1.82111e-09
3.40863e-08
1.79332e-09
3.39653e-08
1.76289e-09
3.38384e-08
1.73627e-09
3.3707e-08
1.70648e-09
3.35703e-08
1.681e-09
3.34297e-08
1.65178e-09
3.32841e-08
1.62747e-09
3.31352e-08
1.59872e-09
3.29818e-08
1.57556e-09
3.28258e-08
1.54719e-09
3.26657e-08
1.52523e-09
3.25037e-08
1.49716e-09
3.2338e-08
1.47655e-09
3.2171e-08
1.44876e-09
3.20007e-08
1.42949e-09
3.18297e-08
1.40196e-09
3.16558e-08
1.38409e-09
3.14816e-08
1.35664e-09
3.13049e-08
1.34039e-09
3.11286e-08
1.31289e-09
3.09498e-08
1.29827e-09
3.0772e-08
1.27079e-09
3.05919e-08
1.25785e-09
3.04133e-08
1.23021e-09
3.02325e-08
1.21916e-09
3.00537e-08
1.19119e-09
2.98728e-08
1.18212e-09
2.96942e-08
1.15384e-09
2.95136e-08
1.14693e-09
2.93357e-08
1.11817e-09
2.91558e-08
1.11362e-09
2.89789e-08
1.08446e-09
2.88001e-08
1.08222e-09
2.86244e-08
1.05298e-09
2.84468e-08
1.0533e-09
2.82725e-08
1.02413e-09
2.80962e-08
1.02707e-09
2.79232e-08
9.98973e-10
2.77483e-08
1.00427e-09
2.75763e-08
9.79329e-10
2.74023e-08
9.86805e-10
9.68881e-10
3.5196e-08
3.02493e-09
-3.50929e-08
3.53881e-08
3.52989e-09
3.56454e-08
3.94919e-09
3.58766e-08
4.13103e-09
3.60335e-08
4.04099e-09
3.61274e-08
3.79828e-09
3.61895e-08
3.54245e-09
3.62361e-08
3.34116e-09
3.62702e-08
3.18851e-09
3.62922e-08
3.06082e-09
3.63045e-08
2.94279e-09
3.63104e-08
2.83428e-09
3.63128e-08
2.7367e-09
3.63127e-08
2.65226e-09
3.63105e-08
2.57748e-09
3.63059e-08
2.51164e-09
3.62991e-08
2.45094e-09
3.62901e-08
2.39647e-09
3.6279e-08
2.34526e-09
3.62656e-08
2.29928e-09
3.62499e-08
2.25534e-09
3.62314e-08
2.2158e-09
3.62104e-08
2.17715e-09
3.61861e-08
2.14242e-09
3.61588e-08
2.10759e-09
3.61278e-08
2.07649e-09
3.60935e-08
2.04446e-09
3.6055e-08
2.01613e-09
3.60129e-08
1.98624e-09
3.59663e-08
1.9601e-09
3.59158e-08
1.9318e-09
3.58606e-08
1.9075e-09
3.58014e-08
1.88033e-09
3.57371e-08
1.85757e-09
3.56689e-08
1.83113e-09
3.55955e-08
1.80963e-09
3.55183e-08
1.78375e-09
3.54358e-08
1.7634e-09
3.53497e-08
1.73794e-09
3.52584e-08
1.71874e-09
3.51636e-08
1.69353e-09
3.50638e-08
1.67537e-09
3.49607e-08
1.65025e-09
3.48528e-08
1.63314e-09
3.47421e-08
1.60793e-09
3.46266e-08
1.592e-09
3.45087e-08
1.56669e-09
3.43863e-08
1.55188e-09
3.42618e-08
1.52645e-09
3.41331e-08
1.51284e-09
3.40027e-08
1.48701e-09
3.38682e-08
1.47484e-09
3.37326e-08
1.4485e-09
3.35932e-08
1.4377e-09
3.3453e-08
1.411e-09
3.33091e-08
1.40169e-09
3.3165e-08
1.37438e-09
3.30173e-08
1.36681e-09
3.28698e-08
1.33875e-09
3.2719e-08
1.33291e-09
3.25686e-08
1.30422e-09
3.24151e-08
1.30038e-09
3.22624e-08
1.27087e-09
3.21068e-08
1.26926e-09
3.19522e-08
1.23908e-09
3.17949e-08
1.23947e-09
3.16388e-08
1.20915e-09
3.14802e-08
1.21191e-09
3.13227e-08
1.18161e-09
3.1163e-08
1.18671e-09
3.10044e-08
1.15759e-09
3.08439e-08
1.16482e-09
3.06841e-08
1.13908e-09
3.05225e-08
1.14841e-09
1.1292e-09
3.63015e-08
2.92504e-09
-3.62016e-08
3.64679e-08
3.36349e-09
3.66901e-08
3.72697e-09
3.69046e-08
3.91652e-09
3.7062e-08
3.88361e-09
3.716e-08
3.70027e-09
3.72236e-08
3.47885e-09
3.72712e-08
3.29357e-09
3.73081e-08
3.15165e-09
3.73338e-08
3.03507e-09
3.73498e-08
2.92685e-09
3.73585e-08
2.82551e-09
3.73633e-08
2.7319e-09
3.73655e-08
2.65011e-09
3.73659e-08
2.57709e-09
3.73643e-08
2.51323e-09
3.73613e-08
2.45395e-09
3.73566e-08
2.4011e-09
3.7351e-08
2.35088e-09
3.7344e-08
2.30627e-09
3.73362e-08
2.26317e-09
3.73269e-08
2.22505e-09
3.73168e-08
2.18732e-09
3.7305e-08
2.15422e-09
3.72921e-08
2.12048e-09
3.72773e-08
2.09129e-09
3.72612e-08
2.06058e-09
3.72428e-08
2.03447e-09
3.72229e-08
2.00617e-09
3.72004e-08
1.9826e-09
3.71761e-08
1.95613e-09
3.71488e-08
1.93477e-09
3.71195e-08
1.90967e-09
3.70868e-08
1.8902e-09
3.70519e-08
1.86605e-09
3.70134e-08
1.84812e-09
3.69725e-08
1.82469e-09
3.69277e-08
1.80816e-09
3.68804e-08
1.78525e-09
3.68291e-08
1.77008e-09
3.67751e-08
1.7475e-09
3.67169e-08
1.73354e-09
3.66561e-08
1.71105e-09
3.6591e-08
1.69825e-09
3.65233e-08
1.67559e-09
3.64513e-08
1.66401e-09
3.63768e-08
1.64118e-09
3.6298e-08
1.6307e-09
3.62168e-08
1.60765e-09
3.61313e-08
1.59838e-09
3.60436e-08
1.57468e-09
3.59516e-08
1.56683e-09
3.58577e-08
1.54243e-09
3.57596e-08
1.53576e-09
3.56598e-08
1.51084e-09
3.55559e-08
1.50556e-09
3.54505e-08
1.47977e-09
3.53412e-08
1.47612e-09
3.52305e-08
1.4494e-09
3.51163e-08
1.44717e-09
3.50008e-08
1.41968e-09
3.4882e-08
1.41924e-09
3.47621e-08
1.39074e-09
3.4639e-08
1.39235e-09
3.45149e-08
1.36315e-09
3.43882e-08
1.36624e-09
3.42603e-08
1.33697e-09
3.41301e-08
1.34216e-09
3.39987e-08
1.31302e-09
3.38653e-08
1.3201e-09
3.37306e-08
1.29232e-09
3.35942e-08
1.30115e-09
3.34563e-08
1.277e-09
3.33169e-08
1.28779e-09
1.26972e-09
3.74316e-08
2.82999e-09
-3.73365e-08
3.75794e-08
3.21573e-09
3.77724e-08
3.53395e-09
3.79682e-08
3.72064e-09
3.81229e-08
3.729e-09
3.82247e-08
3.5984e-09
3.82906e-08
3.41294e-09
3.83391e-08
3.24508e-09
3.83778e-08
3.11302e-09
3.84065e-08
3.00629e-09
3.84258e-08
2.90759e-09
3.84372e-08
2.81409e-09
3.84439e-08
2.72521e-09
3.84475e-08
2.64652e-09
3.84493e-08
2.57534e-09
3.8449e-08
2.51344e-09
3.84475e-08
2.4555e-09
3.84444e-08
2.40418e-09
3.84405e-08
2.35474e-09
3.84356e-08
2.31119e-09
3.84303e-08
2.2685e-09
3.84241e-08
2.23128e-09
3.84176e-08
2.19381e-09
3.84102e-08
2.16163e-09
3.84025e-08
2.12813e-09
3.83939e-08
2.09993e-09
3.83849e-08
2.06953e-09
3.83749e-08
2.04453e-09
3.83644e-08
2.01665e-09
3.83526e-08
1.99439e-09
3.83402e-08
1.96847e-09
3.83263e-08
1.94868e-09
3.83117e-08
1.92427e-09
3.82953e-08
1.90665e-09
3.82779e-08
1.88341e-09
3.82585e-08
1.86757e-09
3.82379e-08
1.84525e-09
3.8215e-08
1.83106e-09
3.81908e-08
1.80942e-09
3.8164e-08
1.79687e-09
3.81358e-08
1.77575e-09
3.81047e-08
1.76464e-09
3.8072e-08
1.74376e-09
3.80362e-08
1.73405e-09
3.79987e-08
1.71309e-09
3.7958e-08
1.70474e-09
3.79154e-08
1.68378e-09
3.78695e-08
1.67661e-09
3.78216e-08
1.6555e-09
3.77702e-08
1.64974e-09
3.7717e-08
1.62794e-09
3.76601e-08
1.62367e-09
3.76013e-08
1.6013e-09
3.7539e-08
1.59807e-09
3.74746e-08
1.57524e-09
3.74067e-08
1.57344e-09
3.73368e-08
1.54967e-09
3.72635e-08
1.54945e-09
3.7188e-08
1.52489e-09
3.71094e-08
1.52575e-09
3.70286e-08
1.50051e-09
3.69448e-08
1.50302e-09
3.68588e-08
1.47675e-09
3.677e-08
1.48112e-09
3.66787e-08
1.45446e-09
3.65853e-08
1.45969e-09
3.64891e-08
1.43312e-09
3.6391e-08
1.44021e-09
3.629e-08
1.41409e-09
3.61875e-08
1.4226e-09
3.60817e-08
1.39809e-09
3.59749e-08
1.40793e-09
3.58646e-08
1.3873e-09
3.57534e-08
1.39904e-09
1.38411e-09
3.85887e-08
2.74067e-09
-3.84993e-08
3.87217e-08
3.08266e-09
3.88911e-08
3.36457e-09
3.90684e-08
3.54339e-09
3.92173e-08
3.58003e-09
3.93218e-08
3.49391e-09
3.93906e-08
3.34417e-09
3.94402e-08
3.1955e-09
3.948e-08
3.07321e-09
3.95111e-08
2.97519e-09
3.95333e-08
2.88536e-09
3.95474e-08
2.80001e-09
3.9556e-08
2.71657e-09
3.9561e-08
2.64154e-09
3.95639e-08
2.57245e-09
3.95647e-08
2.51261e-09
3.95641e-08
2.45609e-09
3.95619e-08
2.40638e-09
3.95589e-08
2.35779e-09
3.95548e-08
2.31529e-09
3.95503e-08
2.27296e-09
3.95451e-08
2.23651e-09
3.95398e-08
2.19916e-09
3.95337e-08
2.16764e-09
3.95277e-08
2.13413e-09
3.95212e-08
2.10653e-09
3.95146e-08
2.07607e-09
3.95075e-08
2.05166e-09
3.95004e-08
2.02372e-09
3.94927e-08
2.00213e-09
3.9485e-08
1.97614e-09
3.94765e-08
1.95716e-09
3.9468e-08
1.93274e-09
3.94587e-08
1.91603e-09
3.94491e-08
1.89295e-09
3.94385e-08
1.87814e-09
3.94277e-08
1.85611e-09
3.94156e-08
1.84315e-09
3.94031e-08
1.82191e-09
3.93892e-08
1.81077e-09
3.93747e-08
1.79023e-09
3.93586e-08
1.78073e-09
3.93418e-08
1.7606e-09
3.93231e-08
1.7527e-09
3.93036e-08
1.73266e-09
3.92821e-08
1.72622e-09
3.92594e-08
1.70645e-09
3.92348e-08
1.70129e-09
3.92087e-08
1.6815e-09
3.91805e-08
1.67802e-09
3.91508e-08
1.65765e-09
3.91187e-08
1.65569e-09
3.90849e-08
1.63513e-09
3.90489e-08
1.63407e-09
3.9011e-08
1.6132e-09
3.89706e-08
1.61375e-09
3.89283e-08
1.59202e-09
3.88836e-08
1.59409e-09
3.88365e-08
1.57203e-09
3.87874e-08
1.57484e-09
3.87356e-08
1.55231e-09
3.86818e-08
1.55678e-09
3.86253e-08
1.53332e-09
3.8567e-08
1.53942e-09
3.85052e-08
1.51623e-09
3.84423e-08
1.52263e-09
3.83757e-08
1.49966e-09
3.83082e-08
1.50778e-09
3.82365e-08
1.48577e-09
3.81641e-08
1.49495e-09
3.80874e-08
1.47483e-09
3.80104e-08
1.48498e-09
3.79287e-08
1.46891e-09
3.78467e-08
1.48111e-09
1.47047e-09
3.97748e-08
2.65717e-09
-3.96913e-08
3.98954e-08
2.96201e-09
4.00457e-08
3.21432e-09
4.02055e-08
3.38355e-09
4.03468e-08
3.43877e-09
4.04521e-08
3.38864e-09
4.05237e-08
3.27249e-09
4.05748e-08
3.14446e-09
4.06155e-08
3.03253e-09
4.06482e-08
2.94242e-09
4.0673e-08
2.86064e-09
4.06896e-08
2.78335e-09
4.07003e-08
2.70589e-09
4.07068e-08
2.63507e-09
4.07108e-08
2.56845e-09
4.07126e-08
2.51078e-09
4.07129e-08
2.4558e-09
4.07115e-08
2.40777e-09
4.07091e-08
2.36018e-09
4.07056e-08
2.3188e-09
4.07016e-08
2.27695e-09
4.06969e-08
2.24125e-09
4.0692e-08
2.20406e-09
4.06865e-08
2.17311e-09
4.0681e-08
2.1396e-09
4.06751e-08
2.11243e-09
4.06693e-08
2.0819e-09
4.06631e-08
2.05782e-09
4.06571e-08
2.02974e-09
4.06507e-08
2.0085e-09
4.06446e-08
1.98229e-09
4.06381e-08
1.96369e-09
4.06318e-08
1.93906e-09
4.06251e-08
1.92273e-09
4.06185e-08
1.89953e-09
4.06115e-08
1.88513e-09
4.06045e-08
1.86305e-09
4.05971e-08
1.8506e-09
4.05896e-08
1.82937e-09
4.05816e-08
1.81882e-09
4.05734e-08
1.79843e-09
4.05645e-08
1.7896e-09
4.05554e-08
1.76975e-09
4.05454e-08
1.76265e-09
4.0535e-08
1.74309e-09
4.05238e-08
1.73742e-09
4.05118e-08
1.71842e-09
4.0499e-08
1.71412e-09
4.04853e-08
1.69516e-09
4.04706e-08
1.69281e-09
4.04548e-08
1.67345e-09
4.0438e-08
1.67249e-09
4.04196e-08
1.65348e-09
4.04004e-08
1.65331e-09
4.03795e-08
1.6341e-09
4.03574e-08
1.6358e-09
4.03335e-08
1.61591e-09
4.03087e-08
1.61892e-09
4.02813e-08
1.59938e-09
4.02533e-08
1.60285e-09
4.02226e-08
1.58303e-09
4.01911e-08
1.5883e-09
4.01567e-08
1.56775e-09
4.01218e-08
1.57431e-09
4.00831e-08
1.55492e-09
4.00443e-08
1.56144e-09
4.00017e-08
1.54225e-09
3.9959e-08
1.55046e-09
3.99119e-08
1.53283e-09
3.9865e-08
1.54189e-09
3.98134e-08
1.52644e-09
3.97621e-08
1.53629e-09
3.97061e-08
1.52488e-09
3.96501e-08
1.53713e-09
1.53097e-09
4.09915e-08
2.5792e-09
-4.09136e-08
4.11013e-08
2.85223e-09
4.12358e-08
3.07982e-09
4.13801e-08
3.23931e-09
4.15125e-08
3.30635e-09
4.16167e-08
3.28442e-09
4.16908e-08
3.19841e-09
4.17436e-08
3.09164e-09
4.17851e-08
2.99104e-09
4.1819e-08
2.9085e-09
4.18457e-08
2.83394e-09
4.18647e-08
2.76432e-09
4.18774e-08
2.69317e-09
4.18855e-08
2.62704e-09
4.18906e-08
2.5633e-09
4.18934e-08
2.50795e-09
4.18946e-08
2.45464e-09
4.1894e-08
2.40833e-09
4.18923e-08
2.36193e-09
4.18894e-08
2.32172e-09
4.18858e-08
2.2805e-09
4.18815e-08
2.24556e-09
4.18769e-08
2.20865e-09
4.18718e-08
2.17822e-09
4.18666e-08
2.14483e-09
4.1861e-08
2.11799e-09
4.18554e-08
2.08749e-09
4.18496e-08
2.06361e-09
4.18439e-08
2.03545e-09
4.1838e-08
2.0144e-09
4.18323e-08
1.988e-09
4.18264e-08
1.96956e-09
4.18208e-08
1.94474e-09
4.1815e-08
1.92848e-09
4.18094e-08
1.90519e-09
4.18037e-08
1.8908e-09
4.17981e-08
1.86866e-09
4.17924e-08
1.85627e-09
4.17868e-08
1.83501e-09
4.17811e-08
1.82451e-09
4.17753e-08
1.80417e-09
4.17695e-08
1.79542e-09
4.17636e-08
1.77571e-09
4.17575e-08
1.76871e-09
4.17511e-08
1.74951e-09
4.17447e-08
1.7438e-09
4.17377e-08
1.72542e-09
4.17307e-08
1.72115e-09
4.1723e-08
1.70278e-09
4.17152e-08
1.70066e-09
4.17065e-08
1.68214e-09
4.16979e-08
1.68111e-09
4.16878e-08
1.66352e-09
4.16779e-08
1.66321e-09
4.16667e-08
1.64538e-09
4.16552e-08
1.64723e-09
4.16422e-08
1.62897e-09
4.16293e-08
1.63177e-09
4.16141e-08
1.61462e-09
4.15993e-08
1.61768e-09
4.1582e-08
1.60028e-09
4.15649e-08
1.60542e-09
4.15451e-08
1.58755e-09
4.15259e-08
1.59349e-09
4.15031e-08
1.5777e-09
4.1481e-08
1.58357e-09
4.14555e-08
1.56779e-09
4.14306e-08
1.57533e-09
4.14017e-08
1.56174e-09
4.13735e-08
1.5701e-09
4.1341e-08
1.55889e-09
4.13092e-08
1.56806e-09
4.12734e-08
1.56071e-09
4.12378e-08
1.57275e-09
1.57055e-09
4.22404e-08
2.50631e-09
-4.21675e-08
4.23406e-08
2.75207e-09
4.24618e-08
2.95859e-09
4.25923e-08
3.10881e-09
4.27155e-08
3.18313e-09
4.28171e-08
3.18284e-09
4.28926e-08
3.12288e-09
4.29473e-08
3.037e-09
4.29896e-08
2.94869e-09
4.30244e-08
2.87375e-09
4.30525e-08
2.8058e-09
4.30736e-08
2.74325e-09
4.30883e-08
2.67848e-09
4.30979e-08
2.61739e-09
4.31042e-08
2.55698e-09
4.31081e-08
2.50411e-09
4.31101e-08
2.45264e-09
4.31104e-08
2.40806e-09
4.31093e-08
2.36301e-09
4.3107e-08
2.32402e-09
4.31039e-08
2.2836e-09
4.31e-08
2.24943e-09
4.30957e-08
2.21293e-09
4.3091e-08
2.18298e-09
4.30859e-08
2.14986e-09
4.30807e-08
2.12326e-09
4.30752e-08
2.09294e-09
4.30697e-08
2.06915e-09
4.30641e-08
2.04103e-09
4.30584e-08
2.02006e-09
4.30528e-08
1.99358e-09
4.30473e-08
1.97515e-09
4.30417e-08
1.95028e-09
4.30363e-08
1.93386e-09
4.30309e-08
1.9106e-09
4.30257e-08
1.896e-09
4.30205e-08
1.87389e-09
4.30155e-08
1.8613e-09
4.30104e-08
1.84008e-09
4.30056e-08
1.82934e-09
4.30006e-08
1.80911e-09
4.2996e-08
1.80008e-09
4.29911e-08
1.78054e-09
4.29866e-08
1.7732e-09
4.29817e-08
1.75443e-09
4.29773e-08
1.74818e-09
4.29723e-08
1.73041e-09
4.29678e-08
1.7257e-09
4.29628e-08
1.7078e-09
4.29581e-08
1.70537e-09
4.29525e-08
1.68766e-09
4.29478e-08
1.68586e-09
4.29417e-08
1.6696e-09
4.29364e-08
1.66855e-09
4.29299e-08
1.65185e-09
4.29239e-08
1.65325e-09
4.29164e-08
1.63644e-09
4.29099e-08
1.63824e-09
4.29013e-08
1.62327e-09
4.28937e-08
1.62528e-09
4.28841e-08
1.60987e-09
4.28752e-08
1.61431e-09
4.2864e-08
1.5988e-09
4.2854e-08
1.6034e-09
4.2841e-08
1.59071e-09
4.28291e-08
1.59554e-09
4.28143e-08
1.58253e-09
4.28007e-08
1.58899e-09
4.27837e-08
1.57874e-09
4.27677e-08
1.58611e-09
4.27482e-08
1.57831e-09
4.27296e-08
1.58671e-09
4.27078e-08
1.58248e-09
4.26864e-08
1.59419e-09
1.59505e-09
4.35227e-08
2.43808e-09
-4.34544e-08
4.36143e-08
2.66044e-09
4.37241e-08
2.84878e-09
4.38426e-08
2.99036e-09
4.39567e-08
3.06894e-09
4.40546e-08
3.08503e-09
4.41305e-08
3.04697e-09
4.41867e-08
2.98074e-09
4.423e-08
2.90536e-09
4.42654e-08
2.83836e-09
4.42946e-08
2.77664e-09
4.43173e-08
2.72052e-09
4.43338e-08
2.66198e-09
4.43451e-08
2.60612e-09
4.43526e-08
2.54946e-09
4.43575e-08
2.49926e-09
4.43603e-08
2.44981e-09
4.43614e-08
2.40696e-09
4.4361e-08
2.36341e-09
4.43593e-08
2.32568e-09
4.43567e-08
2.28621e-09
4.43533e-08
2.25283e-09
4.43493e-08
2.2169e-09
4.43449e-08
2.18738e-09
4.43401e-08