/*--------------------------------*- C++ -*----------------------------------*\
| =========                 |                                                 |
| \\      /  F ield         | OpenFOAM: The Open Source CFD Toolbox           |
|  \\    /   O peration     | Version:  2.3.0                                 |
|   \\  /    A nd           | Web:      www.OpenFOAM.org                      |
|    \\/     M anipulation  |                                                 |
\*---------------------------------------------------------------------------*/
FoamFile
{
    version     2.0;
    format      ascii;
    class       volVectorField;
    location    "0.9";
    object      U_0;
}
// * * * * * * * * * * * * * * * * * * * * * * * * * * * * * * * * * * * * * //

dimensions      [0 1 -1 0 0 0 0];

internalField   nonuniform List<vector> 
2945
(
(0.160864 0.00623861 0)
(0.121927 0.00658582 0)
(0.0902668 0.0046861 0)
(0.0670994 0.00259335 0)
(0.052445 0.00111101 0)
(0.0437226 0.000363241 0)
(0.0384456 9.76961e-05 0)
(0.0350846 4.29793e-05 0)
(0.0327146 5.5847e-05 0)
(0.0308335 7.56838e-05 0)
(0.0292177 8.43947e-05 0)
(0.0277884 8.2529e-05 0)
(0.026518 7.54344e-05 0)
(0.0253886 6.73219e-05 0)
(0.0243809 6.00479e-05 0)
(0.0234758 5.39474e-05 0)
(0.0226565 4.88479e-05 0)
(0.0219099 4.44905e-05 0)
(0.0212249 4.07124e-05 0)
(0.0205937 3.73791e-05 0)
(0.0200093 3.44338e-05 0)
(0.0194666 3.17993e-05 0)
(0.0189604 2.94553e-05 0)
(0.0184876 2.73411e-05 0)
(0.018044 2.54499e-05 0)
(0.0176276 2.37305e-05 0)
(0.0172347 2.21847e-05 0)
(0.0168646 2.07668e-05 0)
(0.0165138 1.94903e-05 0)
(0.0161822 1.8305e-05 0)
(0.0158665 1.72418e-05 0)
(0.0155676 1.6241e-05 0)
(0.0152816 1.53462e-05 0)
(0.0150104 1.44951e-05 0)
(0.0147498 1.37357e-05 0)
(0.0145025 1.30048e-05 0)
(0.0142636 1.23597e-05 0)
(0.0140371 1.17236e-05 0)
(0.0138171 1.11765e-05 0)
(0.0136088 1.06171e-05 0)
(0.0134051 1.0152e-05 0)
(0.0132128 9.65621e-06 0)
(0.0130233 9.25983e-06 0)
(0.0128454 8.81664e-06 0)
(0.0126682 8.47972e-06 0)
(0.0125031 8.07875e-06 0)
(0.0123367 7.7971e-06 0)
(0.0121832 7.42556e-06 0)
(0.0120261 7.19737e-06 0)
(0.0118833 6.84758e-06 0)
(0.0117342 6.66508e-06 0)
(0.0116012 6.33473e-06 0)
(0.011459 6.19511e-06 0)
(0.0113353 5.87196e-06 0)
(0.0111987 5.78351e-06 0)
(0.0110838 5.4555e-06 0)
(0.0109518 5.41878e-06 0)
(0.0108455 5.0829e-06 0)
(0.0107168 5.09685e-06 0)
(0.010619 4.7453e-06 0)
(0.0104925 4.81739e-06 0)
(0.0104032 4.43892e-06 0)
(0.0102776 4.5794e-06 0)
(0.0101971 4.15958e-06 0)
(0.0100708 4.38534e-06 0)
(0.0099997 3.90285e-06 0)
(0.00987102 4.23184e-06 0)
(0.0098099 3.67504e-06 0)
(0.00967661 4.12741e-06 0)
(0.0096267 3.46512e-06 0)
(0.0094859 4.08935e-06 0)
(0.00944897 3.2699e-06 0)
(0.00929635 4.14322e-06 0)
(0.00927598 3.10594e-06 0)
(0.00910007 4.97468e-06 0)
(0.190301 0.0112381 0)
(0.182785 0.013718 0)
(0.171673 0.0121788 0)
(0.157825 0.00927032 0)
(0.143402 0.00631871 0)
(0.129937 0.00404024 0)
(0.118209 0.0025713 0)
(0.108534 0.0017256 0)
(0.10075 0.00126362 0)
(0.0944451 0.00100596 0)
(0.0892079 0.000846732 0)
(0.0847378 0.000732645 0)
(0.0808431 0.000641262 0)
(0.0774031 0.000564975 0)
(0.0743339 0.000501171 0)
(0.0715738 0.000447938 0)
(0.0690728 0.000403342 0)
(0.0667928 0.000365523 0)
(0.0647012 0.000333068 0)
(0.0627744 0.000304855 0)
(0.06099 0.000280151 0)
(0.0593332 0.000258315 0)
(0.0577872 0.000238954 0)
(0.056343 0.000221645 0)
(0.054987 0.000206153 0)
(0.0537141 0.000192176 0)
(0.0525125 0.000179568 0)
(0.0513802 0.0001681 0)
(0.0503061 0.000157697 0)
(0.0492911 0.000148156 0)
(0.0483238 0.000139475 0)
(0.0474078 0.00013145 0)
(0.0465309 0.000124128 0)
(0.0456995 0.000117319 0)
(0.0448998 0.000111087 0)
(0.0441413 0.000105259 0)
(0.0434082 9.9926e-05 0)
(0.0427132 9.48907e-05 0)
(0.0420375 9.03079e-05 0)
(0.0413982 8.59241e-05 0)
(0.0407725 8.1965e-05 0)
(0.0401825 7.81242e-05 0)
(0.0396003 7.46867e-05 0)
(0.0390543 7.1301e-05 0)
(0.0385101 6.83062e-05 0)
(0.0380036 6.53011e-05 0)
(0.0374925 6.26946e-05 0)
(0.037022 5.99955e-05 0)
(0.0365396 5.77381e-05 0)
(0.0361021 5.52922e-05 0)
(0.0356445 5.33321e-05 0)
(0.0352376 5.11092e-05 0)
(0.0348013 4.9413e-05 0)
(0.0344232 4.73582e-05 0)
(0.0340045 4.59305e-05 0)
(0.033654 4.39911e-05 0)
(0.0332496 4.28175e-05 0)
(0.0329259 4.09719e-05 0)
(0.0325323 4.00344e-05 0)
(0.0322352 3.8251e-05 0)
(0.0318488 3.75589e-05 0)
(0.0315785 3.57989e-05 0)
(0.0311953 3.53717e-05 0)
(0.0309527 3.35892e-05 0)
(0.0305683 3.3469e-05 0)
(0.030355 3.15999e-05 0)
(0.0299642 3.18349e-05 0)
(0.0297826 2.98511e-05 0)
(0.029379 3.04916e-05 0)
(0.0292326 2.83194e-05 0)
(0.0288078 2.94971e-05 0)
(0.0287022 2.70285e-05 0)
(0.0282441 2.89379e-05 0)
(0.0281891 2.6145e-05 0)
(0.0276744 3.10927e-05 0)
(0.191274 0.0103304 0)
(0.192717 0.0140686 0)
(0.193364 0.0139467 0)
(0.191017 0.011933 0)
(0.185755 0.00949491 0)
(0.178655 0.00740022 0)
(0.170791 0.00582507 0)
(0.162963 0.00467749 0)
(0.155577 0.0038275 0)
(0.148759 0.00318583 0)
(0.142499 0.00269601 0)
(0.136753 0.00231613 0)
(0.131476 0.00201477 0)
(0.126633 0.00177034 0)
(0.122183 0.00156906 0)
(0.118091 0.00140162 0)
(0.114317 0.00126109 0)
(0.110829 0.0011419 0)
(0.107592 0.00103975 0)
(0.104583 0.000951257 0)
(0.101773 0.000873956 0)
(0.0991468 0.000805864 0)
(0.0966807 0.000745543 0)
(0.0943651 0.000691745 0)
(0.0921798 0.000643567 0)
(0.0901204 0.000600185 0)
(0.0881681 0.000560987 0)
(0.0863228 0.00052541 0)
(0.0845659 0.000493041 0)
(0.0829018 0.000463453 0)
(0.0813107 0.000436396 0)
(0.0798015 0.000411509 0)
(0.0783523 0.000388644 0)
(0.0769768 0.000367521 0)
(0.0756499 0.000348019 0)
(0.0743908 0.000329941 0)
(0.07317 0.000313193 0)
(0.0720129 0.000297594 0)
(0.0708845 0.00028313 0)
(0.0698177 0.00026958 0)
(0.06877 0.000257012 0)
(0.0677836 0.000245175 0)
(0.0668066 0.000234192 0)
(0.0658924 0.000223799 0)
(0.0649774 0.000214153 0)
(0.0641285 0.000204983 0)
(0.0632677 0.000196488 0)
(0.0624784 0.000188336 0)
(0.0616649 0.000180848 0)
(0.0609307 0.000173561 0)
(0.0601581 0.000166927 0)
(0.0594752 0.000160403 0)
(0.0587376 0.000154509 0)
(0.0581034 0.000148616 0)
(0.057395 0.00014342 0)
(0.0568074 0.000138036 0)
(0.0561227 0.000133474 0)
(0.0555807 0.000128537 0)
(0.0549139 0.000124539 0)
(0.0544173 0.000119982 0)
(0.0537625 0.000116529 0)
(0.0533119 0.000112279 0)
(0.0526625 0.000109371 0)
(0.0522596 0.000105352 0)
(0.0516083 0.000103028 0)
(0.0512559 9.9141e-05 0)
(0.0505942 9.74568e-05 0)
(0.0502965 9.36788e-05 0)
(0.0496141 9.26803e-05 0)
(0.0493771 8.89427e-05 0)
(0.0486608 8.88013e-05 0)
(0.0484934 8.50265e-05 0)
(0.0477249 8.60137e-05 0)
(0.0476408 8.23023e-05 0)
(0.0467933 8.83839e-05 0)
(0.191874 0.00900418 0)
(0.193591 0.0125701 0)
(0.196723 0.0132353 0)
(0.198864 0.0120174 0)
(0.198878 0.0102288 0)
(0.196953 0.00861158 0)
(0.193754 0.00735599 0)
(0.189898 0.00638526 0)
(0.185752 0.00559941 0)
(0.181486 0.00494427 0)
(0.177165 0.0043945 0)
(0.172835 0.00393053 0)
(0.168536 0.00353412 0)
(0.164314 0.00319075 0)
(0.160197 0.00289088 0)
(0.156215 0.00262822 0)
(0.152377 0.00239787 0)
(0.148696 0.00219542 0)
(0.145168 0.00201687 0)
(0.141798 0.00185873 0)
(0.138575 0.00171806 0)
(0.135503 0.00159242 0)
(0.132565 0.00147975 0)
(0.129766 0.00137834 0)
(0.127088 0.0012867 0)
(0.124535 0.00120367 0)
(0.122087 0.0011281 0)
(0.119754 0.00105923 0)
(0.117511 0.000996156 0)
(0.115373 0.000938361 0)
(0.113312 0.00088517 0)
(0.111347 0.000836208 0)
(0.109447 0.000790919 0)
(0.107636 0.000749109 0)
(0.105878 0.000710227 0)
(0.104206 0.000674266 0)
(0.102574 0.000640665 0)
(0.101025 0.00060952 0)
(0.099505 0.000580317 0)
(0.0980682 0.000553189 0)
(0.0966474 0.000527657 0)
(0.0953118 0.000503916 0)
(0.0939791 0.000481465 0)
(0.0927356 0.000460605 0)
(0.0914811 0.000440759 0)
(0.0903221 0.00042236 0)
(0.0891366 0.000404748 0)
(0.0880558 0.000388435 0)
(0.0869308 0.00037276 0)
(0.0859231 0.000358245 0)
(0.0848506 0.000344209 0)
(0.0839118 0.000331292 0)
(0.0828845 0.000318662 0)
(0.0820115 0.000307111 0)
(0.0810219 0.000295766 0)
(0.0802128 0.000285372 0)
(0.0792536 0.000275159 0)
(0.0785073 0.000265814 0)
(0.0775711 0.00025658 0)
(0.0768878 0.000248172 0)
(0.0759665 0.000239841 0)
(0.0753475 0.000232264 0)
(0.0744325 0.000224781 0)
(0.0738804 0.000217938 0)
(0.0729618 0.000211309 0)
(0.0724809 0.000205081 0)
(0.0715474 0.000199331 0)
(0.0711437 0.000193728 0)
(0.0701816 0.000188861 0)
(0.0698634 0.000183852 0)
(0.0688558 0.000180054 0)
(0.0686344 0.000175599 0)
(0.0675596 0.000173317 0)
(0.0674493 0.000169408 0)
(0.0662814 0.000173968 0)
(0.192839 0.00822207 0)
(0.194048 0.0112193 0)
(0.196839 0.0122185 0)
(0.199701 0.0114815 0)
(0.201389 0.0100888 0)
(0.201684 0.00877339 0)
(0.200946 0.00775673 0)
(0.199617 0.00697956 0)
(0.197959 0.00634484 0)
(0.196075 0.00580055 0)
(0.193984 0.00532793 0)
(0.1917 0.00491556 0)
(0.189243 0.00455072 0)
(0.186651 0.0042223 0)
(0.183951 0.00392312 0)
(0.181184 0.00364953 0)
(0.178367 0.00339919 0)
(0.175533 0.00317023 0)
(0.172691 0.00296058 0)
(0.169869 0.00276848 0)
(0.167068 0.0025921 0)
(0.164312 0.00243011 0)
(0.161595 0.00228102 0)
(0.15894 0.00214384 0)
(0.156334 0.00201726 0)
(0.1538 0.00190059 0)
(0.151318 0.0017926 0)
(0.148915 0.00169288 0)
(0.146563 0.00160027 0)
(0.144293 0.00151459 0)
(0.142069 0.00143476 0)
(0.139931 0.00136078 0)
(0.137831 0.00129157 0)
(0.135819 0.0012274 0)
(0.133838 0.00116709 0)
(0.131947 0.00111119 0)
(0.130077 0.00105838 0)
(0.128299 0.00100946 0)
(0.126532 0.000963036 0)
(0.124861 0.00092006 0)
(0.123188 0.000879044 0)
(0.121619 0.000841175 0)
(0.120032 0.000804764 0)
(0.118557 0.000771306 0)
(0.117048 0.000738828 0)
(0.115663 0.000709198 0)
(0.114225 0.000680114 0)
(0.112925 0.000653786 0)
(0.111549 0.000627652 0)
(0.110331 0.000604216 0)
(0.10901 0.000580586 0)
(0.107869 0.000559751 0)
(0.106596 0.000538265 0)
(0.105532 0.0005197 0)
(0.104298 0.000500146 0)
(0.103309 0.000483563 0)
(0.102106 0.000465684 0)
(0.101193 0.000450932 0)
(0.100013 0.000434474 0)
(0.0991762 0.000421401 0)
(0.0980104 0.000406213 0)
(0.0972524 0.000394687 0)
(0.0960906 0.000380638 0)
(0.0954154 0.000370552 0)
(0.0942459 0.000357591 0)
(0.0936593 0.00034882 0)
(0.0924689 0.000336921 0)
(0.0919787 0.000329515 0)
(0.0907516 0.000318636 0)
(0.0903676 0.00031259 0)
(0.089085 0.000302966 0)
(0.0888197 0.000298195 0)
(0.0874589 0.000290619 0)
(0.087326 0.000286829 0)
(0.0858628 0.000287422 0)
(0.193631 0.00777208 0)
(0.194617 0.0102076 0)
(0.196834 0.0113466 0)
(0.199425 0.0109473 0)
(0.201352 0.00981645 0)
(0.202283 0.0086656 0)
(0.202424 0.00776929 0)
(0.202137 0.00710105 0)
(0.201645 0.00656654 0)
(0.20103 0.00610836 0)
(0.200278 0.00570729 0)
(0.199378 0.00535609 0)
(0.198312 0.00504532 0)
(0.197101 0.0047647 0)
(0.195744 0.00450631 0)
(0.19427 0.0042661 0)
(0.192677 0.0040416 0)
(0.190995 0.00383166 0)
(0.189219 0.00363463 0)
(0.187381 0.00344968 0)
(0.185472 0.0032754 0)
(0.183528 0.0031114 0)
(0.181532 0.00295652 0)
(0.179525 0.00281075 0)
(0.177483 0.00267291 0)
(0.175451 0.0025433 0)
(0.173396 0.00242061 0)
(0.171367 0.00230539 0)
(0.169324 0.00219618 0)
(0.167322 0.00209372 0)
(0.16531 0.00199647 0)
(0.163352 0.00190534 0)
(0.161384 0.00181862 0)
(0.159482 0.00173757 0)
(0.157567 0.00166013 0)
(0.155729 0.001588 0)
(0.153873 0.00151876 0)
(0.152105 0.00145448 0)
(0.150308 0.00139247 0)
(0.148613 0.00133513 0)
(0.146877 0.00127942 0)
(0.145256 0.00122824 0)
(0.14358 0.00117805 0)
(0.142034 0.00113234 0)
(0.140414 0.00108698 0)
(0.138943 0.00104614 0)
(0.137376 0.00100499 0)
(0.135981 0.000968457 0)
(0.134462 0.000931033 0)
(0.133142 0.000898349 0)
(0.131666 0.000864114 0)
(0.130421 0.000834963 0)
(0.128983 0.000803474 0)
(0.127813 0.000777472 0)
(0.126407 0.000748456 0)
(0.125314 0.000725274 0)
(0.123931 0.000698384 0)
(0.122917 0.000677861 0)
(0.12155 0.000652759 0)
(0.120618 0.000634718 0)
(0.119258 0.000611185 0)
(0.118413 0.000595491 0)
(0.117049 0.00057332 0)
(0.116296 0.000559874 0)
(0.114917 0.000538957 0)
(0.114263 0.000527629 0)
(0.112855 0.000507906 0)
(0.112309 0.000498778 0)
(0.110856 0.00048019 0)
(0.11043 0.000473244 0)
(0.108912 0.000456145 0)
(0.108618 0.000451166 0)
(0.107015 0.000436779 0)
(0.106866 0.000433221 0)
(0.105154 0.000427821 0)
(0.194281 0.0074609 0)
(0.195154 0.00941703 0)
(0.19694 0.0105631 0)
(0.199153 0.0104279 0)
(0.200975 0.00952866 0)
(0.202036 0.00850632 0)
(0.202434 0.00768211 0)
(0.202479 0.00707318 0)
(0.202385 0.00659532 0)
(0.202252 0.00618695 0)
(0.202063 0.0058268 0)
(0.201806 0.00551129 0)
(0.201448 0.00523492 0)
(0.201005 0.00498928 0)
(0.200457 0.00476557 0)
(0.19983 0.00455882 0)
(0.199102 0.00436545 0)
(0.1983 0.00418423 0)
(0.197399 0.00401297 0)
(0.196434 0.00385112 0)
(0.195374 0.00369673 0)
(0.194262 0.00354989 0)
(0.193062 0.00340895 0)
(0.191826 0.00327457 0)
(0.190509 0.0031451 0)
(0.189171 0.00302171 0)
(0.187758 0.00290254 0)
(0.186342 0.00278918 0)
(0.184857 0.00267949 0)
(0.183385 0.0025754 0)
(0.181847 0.00247452 0)
(0.18034 0.00237909 0)
(0.178767 0.00228634 0)
(0.177242 0.00219904 0)
(0.175649 0.00211383 0)
(0.174122 0.00203413 0)
(0.172521 0.00195595 0)
(0.171004 0.0018833 0)
(0.169407 0.0018116 0)
(0.167911 0.00174547 0)
(0.166323 0.00167966 0)
(0.164857 0.00161957 0)
(0.163283 0.00155911 0)
(0.161856 0.00150461 0)
(0.1603 0.00144895 0)
(0.158916 0.00139962 0)
(0.157379 0.00134829 0)
(0.156044 0.00130367 0)
(0.154527 0.00125624 0)
(0.153246 0.00121596 0)
(0.151746 0.00117192 0)
(0.150523 0.00113574 0)
(0.149038 0.00109467 0)
(0.147878 0.00106224 0)
(0.146405 0.00102386 0)
(0.145311 0.000994884 0)
(0.143845 0.000958816 0)
(0.142823 0.000933171 0)
(0.141357 0.000899043 0)
(0.140413 0.00087657 0)
(0.138939 0.000844137 0)
(0.138079 0.000824729 0)
(0.136588 0.000793731 0)
(0.13582 0.000777325 0)
(0.134302 0.000747635 0)
(0.133634 0.000734095 0)
(0.132077 0.000705667 0)
(0.131519 0.000695086 0)
(0.129907 0.000667895 0)
(0.129472 0.000660221 0)
(0.127787 0.000634795 0)
(0.127487 0.000629667 0)
(0.125711 0.00060762 0)
(0.125558 0.000604392 0)
(0.12367 0.000591634 0)
(0.194847 0.00719858 0)
(0.195637 0.00877732 0)
(0.197105 0.00984164 0)
(0.198979 0.00989857 0)
(0.200636 0.00921747 0)
(0.201707 0.00832628 0)
(0.202195 0.00756596 0)
(0.202352 0.00699925 0)
(0.202375 0.00655967 0)
(0.202387 0.00618444 0)
(0.202377 0.0058489 0)
(0.20235 0.00555188 0)
(0.202263 0.00529199 0)
(0.202142 0.00506411 0)
(0.201955 0.00485947 0)
(0.201739 0.00467296 0)
(0.201453 0.00449982 0)
(0.201139 0.00433908 0)
(0.200749 0.00418773 0)
(0.20033 0.00404579 0)
(0.199829 0.00391034 0)
(0.199303 0.00378205 0)
(0.198689 0.00365824 0)
(0.198058 0.00354032 0)
(0.197334 0.00342555 0)
(0.196601 0.00331606 0)
(0.195773 0.00320878 0)
(0.194948 0.00310657 0)
(0.194024 0.00300591 0)
(0.193116 0.00291023 0)
(0.192106 0.00281563 0)
(0.191128 0.00272604 0)
(0.190042 0.002637 0)
(0.189006 0.00255322 0)
(0.187855 0.00246939 0)
(0.186772 0.00239121 0)
(0.185568 0.00231243 0)
(0.184451 0.00223966 0)
(0.183202 0.00216572 0)
(0.182063 0.00209815 0)
(0.180777 0.00202874 0)
(0.179628 0.00196619 0)
(0.178311 0.00190102 0)
(0.177161 0.00184332 0)
(0.175821 0.00178209 0)
(0.17468 0.00172908 0)
(0.173321 0.00167151 0)
(0.172196 0.00162292 0)
(0.17082 0.00156874 0)
(0.16972 0.00152436 0)
(0.168331 0.00147317 0)
(0.167263 0.00143294 0)
(0.165859 0.00138439 0)
(0.164832 0.00134807 0)
(0.163413 0.00130199 0)
(0.162433 0.00126935 0)
(0.160996 0.00122539 0)
(0.160071 0.00119643 0)
(0.158613 0.00115423 0)
(0.157751 0.00112884 0)
(0.156266 0.00108821 0)
(0.155476 0.00106635 0)
(0.153957 0.00102701 0)
(0.153247 0.00100868 0)
(0.151686 0.000970548 0)
(0.151067 0.000955599 0)
(0.149454 0.000918716 0)
(0.148936 0.000907248 0)
(0.147258 0.000871662 0)
(0.146854 0.000863593 0)
(0.145097 0.000830038 0)
(0.144818 0.000824906 0)
(0.142965 0.000795298 0)
(0.142823 0.000792503 0)
(0.14086 0.000772079 0)
(0.19535 0.00695155 0)
(0.19607 0.00824802 0)
(0.197299 0.00919298 0)
(0.198884 0.00937521 0)
(0.200365 0.0088895 0)
(0.201412 0.0081352 0)
(0.20195 0.00744154 0)
(0.202169 0.00691126 0)
(0.202237 0.00650211 0)
(0.202293 0.0061543 0)
(0.20233 0.00583875 0)
(0.202374 0.00555456 0)
(0.20237 0.0053032 0)
(0.20236 0.00508361 0)
(0.202298 0.00488774 0)
(0.202241 0.00471123 0)
(0.202131 0.00454812 0)
(0.20203 0.00439819 0)
(0.201869 0.00425755 0)
(0.201718 0.00412724 0)
(0.201498 0.00400328 0)
(0.201291 0.00388736 0)
(0.201004 0.00377547 0)
(0.200735 0.00367018 0)
(0.200377 0.00356724 0)
(0.200042 0.00347015 0)
(0.199608 0.00337414 0)
(0.199207 0.00328367 0)
(0.198695 0.00319334 0)
(0.198227 0.00310843 0)
(0.197638 0.00302295 0)
(0.197105 0.00294296 0)
(0.19644 0.00286164 0)
(0.195846 0.00278614 0)
(0.195107 0.00270849 0)
(0.194459 0.0026372 0)
(0.193651 0.00256304 0)
(0.192954 0.00249582 0)
(0.192081 0.00242502 0)
(0.191343 0.00236177 0)
(0.190408 0.0022941 0)
(0.189637 0.00223472 0)
(0.188647 0.00216997 0)
(0.18785 0.00211443 0)
(0.186808 0.00205243 0)
(0.185995 0.00200077 0)
(0.184904 0.00194137 0)
(0.184083 0.00189345 0)
(0.182947 0.00183654 0)
(0.182125 0.00179227 0)
(0.180947 0.00173753 0)
(0.180134 0.00169703 0)
(0.178914 0.0016442 0)
(0.178117 0.00160735 0)
(0.176857 0.00155639 0)
(0.176085 0.00152308 0)
(0.174784 0.0014737 0)
(0.174046 0.00144401 0)
(0.1727 0.00139592 0)
(0.172005 0.00136984 0)
(0.170613 0.00132294 0)
(0.16997 0.0013005 0)
(0.168527 0.00125455 0)
(0.167946 0.00123582 0)
(0.166446 0.00119082 0)
(0.165937 0.00117564 0)
(0.164373 0.0011318 0)
(0.163946 0.00112028 0)
(0.16231 0.00107773 0)
(0.161975 0.00106976 0)
(0.160257 0.00102947 0)
(0.160026 0.00102457 0)
(0.158213 0.000988652 0)
(0.158095 0.000986349 0)
(0.156177 0.000959251 0)
(0.195801 0.00671171 0)
(0.196457 0.00780063 0)
(0.197502 0.00862385 0)
(0.198849 0.0088775 0)
(0.200158 0.00855574 0)
(0.20116 0.00793773 0)
(0.201727 0.00731547 0)
(0.201997 0.00681982 0)
(0.202095 0.0064362 0)
(0.202174 0.00611295 0)
(0.202224 0.00581688 0)
(0.202292 0.00554539 0)
(0.202312 0.00530087 0)
(0.20234 0.00508636 0)
(0.202314 0.00489488 0)
(0.20231 0.00472353 0)
(0.202255 0.0045651 0)
(0.202233 0.00442042 0)
(0.202153 0.00428445 0)
(0.202111 0.00415974 0)
(0.202002 0.00404101 0)
(0.201937 0.00393148 0)
(0.201794 0.00382556 0)
(0.201703 0.00372748 0)
(0.201522 0.00363111 0)
(0.2014 0.00354188 0)
(0.201175 0.00345286 0)
(0.201018 0.00337065 0)
(0.200745 0.00328754 0)
(0.20055 0.00321108 0)
(0.200224 0.00313278 0)
(0.199989 0.00306126 0)
(0.199607 0.00298684 0)
(0.199331 0.00291961 0)
(0.198889 0.00284837 0)
(0.198572 0.00278493 0)
(0.19807 0.00271651 0)
(0.197713 0.00265659 0)
(0.19715 0.00259077 0)
(0.196755 0.00253425 0)
(0.19613 0.00247071 0)
(0.195701 0.00241738 0)
(0.195015 0.00235586 0)
(0.194556 0.00230568 0)
(0.193809 0.00224595 0)
(0.193325 0.00219899 0)
(0.192518 0.00214096 0)
(0.192015 0.0020971 0)
(0.19115 0.00204071 0)
(0.190632 0.00199993 0)
(0.18971 0.00194483 0)
(0.189185 0.00190734 0)
(0.188206 0.00185332 0)
(0.187681 0.00181901 0)
(0.186644 0.0017662 0)
(0.186127 0.00173504 0)
(0.185032 0.00168314 0)
(0.18453 0.00165532 0)
(0.183377 0.0016041 0)
(0.182897 0.00157958 0)
(0.181684 0.00152909 0)
(0.181235 0.00150802 0)
(0.179959 0.00145804 0)
(0.17955 0.00144055 0)
(0.178207 0.00139118 0)
(0.177846 0.00137699 0)
(0.176433 0.00132872 0)
(0.176129 0.00131801 0)
(0.17464 0.00127099 0)
(0.174402 0.00126362 0)
(0.172831 0.00121903 0)
(0.172667 0.00121457 0)
(0.171008 0.00117467 0)
(0.170925 0.00117283 0)
(0.169171 0.00114123 0)
(0.196206 0.00648087 0)
(0.196803 0.00741387 0)
(0.197703 0.00812936 0)
(0.198856 0.00841597 0)
(0.200005 0.00822344 0)
(0.200946 0.00773359 0)
(0.201525 0.00718673 0)
(0.201839 0.00672673 0)
(0.201964 0.00636547 0)
(0.202063 0.00606431 0)
(0.202118 0.00578768 0)
(0.202201 0.00553036 0)
(0.202228 0.00529354 0)
(0.202274 0.00508392 0)
(0.202258 0.00489563 0)
(0.202275 0.00472794 0)
(0.202234 0.00457226 0)
(0.202239 0.00443075 0)
(0.202181 0.00429685 0)
(0.202179 0.0041749 0)
(0.202105 0.00405814 0)
(0.202095 0.00395161 0)
(0.202003 0.00384794 0)
(0.201986 0.00375337 0)
(0.201874 0.00365965 0)
(0.201847 0.0035745 0)
(0.201713 0.00348857 0)
(0.201674 0.00341098 0)
(0.201512 0.00333141 0)
(0.201459 0.00326008 0)
(0.201267 0.00318567 0)
(0.201197 0.00311976 0)
(0.20097 0.00304949 0)
(0.200881 0.00298825 0)
(0.200615 0.00292129 0)
(0.200505 0.00286403 0)
(0.200196 0.00279989 0)
(0.200064 0.00274623 0)
(0.199709 0.00268454 0)
(0.199554 0.0026343 0)
(0.19915 0.00257468 0)
(0.198973 0.00252753 0)
(0.198517 0.00246959 0)
(0.198318 0.00242538 0)
(0.197809 0.00236875 0)
(0.19759 0.00232751 0)
(0.197025 0.00227212 0)
(0.196788 0.00223361 0)
(0.196166 0.0021794 0)
(0.195914 0.00214365 0)
(0.195234 0.0020901 0)
(0.194971 0.00205733 0)
(0.194232 0.00200428 0)
(0.193961 0.00197422 0)
(0.193162 0.00192191 0)
(0.192888 0.00189463 0)
(0.192028 0.00184268 0)
(0.191757 0.00181842 0)
(0.190834 0.00176666 0)
(0.190571 0.00174521 0)
(0.189584 0.00169383 0)
(0.189335 0.00167547 0)
(0.188283 0.00162423 0)
(0.188053 0.00160913 0)
(0.186933 0.00155827 0)
(0.186729 0.00154586 0)
(0.185539 0.0014961 0)
(0.185367 0.00148679 0)
(0.184105 0.0014383 0)
(0.183971 0.00143182 0)
(0.182633 0.00138592 0)
(0.182542 0.00138194 0)
(0.181127 0.00134098 0)
(0.181081 0.00133947 0)
(0.179587 0.00130623 0)
(0.196569 0.00626236 0)
(0.197112 0.00707298 0)
(0.197894 0.00769859 0)
(0.19889 0.00799397 0)
(0.199894 0.00789794 0)
(0.200767 0.00752231 0)
(0.201342 0.00705259 0)
(0.20169 0.00663109 0)
(0.201842 0.00629092 0)
(0.20196 0.00600953 0)
(0.20202 0.00575177 0)
(0.202113 0.00550993 0)
(0.202145 0.00528238 0)
(0.202204 0.00507858 0)
(0.202192 0.00489355 0)
(0.202221 0.00472934 0)
(0.202183 0.00457602 0)
(0.202201 0.00443727 0)
(0.202148 0.00430475 0)
(0.202161 0.00418471 0)
(0.202095 0.00406869 0)
(0.202106 0.00396383 0)
(0.202028 0.00386076 0)
(0.202038 0.00376796 0)
(0.201948 0.00367489 0)
(0.201959 0.00359173 0)
(0.201856 0.00350663 0)
(0.201866 0.0034313 0)
(0.201748 0.00335284 0)
(0.201757 0.00328416 0)
(0.201623 0.00321111 0)
(0.20163 0.00314831 0)
(0.201474 0.00307966 0)
(0.201478 0.00302198 0)
(0.201299 0.00295695 0)
(0.201297 0.00290359 0)
(0.201092 0.00284163 0)
(0.201084 0.00279218 0)
(0.200848 0.00273283 0)
(0.200832 0.0026871 0)
(0.200563 0.00262997 0)
(0.200539 0.00258754 0)
(0.200233 0.00253214 0)
(0.200198 0.0024928 0)
(0.199852 0.00243864 0)
(0.199808 0.00240229 0)
(0.199419 0.00234937 0)
(0.199365 0.00231568 0)
(0.198931 0.00226383 0)
(0.198867 0.0022329 0)
(0.198385 0.00218142 0)
(0.198313 0.00215338 0)
(0.19778 0.00210227 0)
(0.197701 0.00207656 0)
(0.197117 0.00202603 0)
(0.197032 0.00200292 0)
(0.196393 0.00195244 0)
(0.196307 0.00193211 0)
(0.195611 0.00188169 0)
(0.195525 0.00186362 0)
(0.194772 0.00181348 0)
(0.194688 0.00179812 0)
(0.193877 0.00174792 0)
(0.193798 0.00173548 0)
(0.192926 0.00168573 0)
(0.192856 0.00167515 0)
(0.191924 0.0016266 0)
(0.191865 0.00161872 0)
(0.190871 0.00157161 0)
(0.190825 0.00156592 0)
(0.189768 0.00152156 0)
(0.189738 0.00151784 0)
(0.188619 0.00147863 0)
(0.188605 0.00147722 0)
(0.187424 0.00144515 0)
(0.196894 0.00605784 0)
(0.19739 0.0067684 0)
(0.198073 0.00732005 0)
(0.198939 0.00761087 0)
(0.199817 0.007584 0)
(0.200618 0.00730567 0)
(0.201177 0.00691168 0)
(0.201549 0.006532 0)
(0.201724 0.00621333 0)
(0.201861 0.00594988 0)
(0.201927 0.00570977 0)
(0.202028 0.00548406 0)
(0.202064 0.00526723 0)
(0.202133 0.00507048 0)
(0.202127 0.00488928 0)
(0.202165 0.00472874 0)
(0.202129 0.00457787 0)
(0.202155 0.00444198 0)
(0.202103 0.00431089 0)
(0.202124 0.00419267 0)
(0.20206 0.00407718 0)
(0.202079 0.00397362 0)
(0.202005 0.00387065 0)
(0.202025 0.00377901 0)
(0.201942 0.00368586 0)
(0.201965 0.00360379 0)
(0.201873 0.00351859 0)
(0.2019 0.00344438 0)
(0.201798 0.00336587 0)
(0.201829 0.00329849 0)
(0.201717 0.00322544 0)
(0.201753 0.00316421 0)
(0.201628 0.0030957 0)
(0.201669 0.00303984 0)
(0.20153 0.00297522 0)
(0.201574 0.00292391 0)
(0.201419 0.0028626 0)
(0.201465 0.00281551 0)
(0.201293 0.00275698 0)
(0.201341 0.00271389 0)
(0.201147 0.00265783 0)
(0.201196 0.0026183 0)
(0.200979 0.00256419 0)
(0.201028 0.00252801 0)
(0.200784 0.00247529 0)
(0.200833 0.0024422 0)
(0.20056 0.002391 0)
(0.200606 0.00236061 0)
(0.200302 0.00231058 0)
(0.200346 0.0022832 0)
(0.200007 0.00223352 0)
(0.200049 0.00220902 0)
(0.199673 0.00215999 0)
(0.19971 0.00213752 0)
(0.199297 0.00208917 0)
(0.199331 0.00206934 0)
(0.198876 0.00202096 0)
(0.198908 0.00200375 0)
(0.19841 0.00195574 0)
(0.198437 0.00194023 0)
(0.197896 0.00189264 0)
(0.19792 0.00187963 0)
(0.197333 0.00183193 0)
(0.197356 0.00182151 0)
(0.196722 0.00177477 0)
(0.196742 0.00176536 0)
(0.196062 0.00171991 0)
(0.19608 0.00171291 0)
(0.195352 0.00166927 0)
(0.195367 0.0016639 0)
(0.194592 0.00162319 0)
(0.194604 0.0016193 0)
(0.193784 0.00158385 0)
(0.193792 0.00158226 0)
(0.192926 0.00155346 0)
(0.197188 0.00586726 0)
(0.19764 0.0064939 0)
(0.198239 0.00698418 0)
(0.198998 0.00726408 0)
(0.199767 0.00728542 0)
(0.200496 0.00708705 0)
(0.201029 0.00676433 0)
(0.201414 0.00642896 0)
(0.20161 0.00613329 0)
(0.201764 0.00588666 0)
(0.201837 0.00566273 0)
(0.201944 0.005453 0)
(0.201985 0.00524797 0)
(0.202062 0.00505947 0)
(0.202062 0.00488287 0)
(0.202107 0.00472629 0)
(0.202075 0.00457809 0)
(0.202105 0.00444521 0)
(0.202057 0.00431581 0)
(0.202081 0.00419955 0)
(0.202021 0.00408473 0)
(0.202043 0.00398243 0)
(0.201972 0.00387955 0)
(0.201995 0.00378887 0)
(0.201916 0.00369556 0)
(0.201942 0.00361423 0)
(0.201855 0.00352874 0)
(0.201886 0.00345513 0)
(0.201792 0.00337625 0)
(0.201828 0.00330951 0)
(0.201727 0.003236 0)
(0.201769 0.00317551 0)
(0.20166 0.00310657 0)
(0.201708 0.00305151 0)
(0.201591 0.00298665 0)
(0.201646 0.00293621 0)
(0.201519 0.00287481 0)
(0.20158 0.00282877 0)
(0.201442 0.00277026 0)
(0.201509 0.00272839 0)
(0.201359 0.00267258 0)
(0.201431 0.00263444 0)
(0.201267 0.00258077 0)
(0.201344 0.00254618 0)
(0.201164 0.00249415 0)
(0.201245 0.00246266 0)
(0.201048 0.00241254 0)
(0.201131 0.00238381 0)
(0.200915 0.00233498 0)
(0.201001 0.0023096 0)
(0.200762 0.00226126 0)
(0.20085 0.00223864 0)
(0.200589 0.00219155 0)
(0.200675 0.00217072 0)
(0.20039 0.00212445 0)
(0.200476 0.00210648 0)
(0.200163 0.00206029 0)
(0.200248 0.00204473 0)
(0.199906 0.00199957 0)
(0.199987 0.00198524 0)
(0.199617 0.00194069 0)
(0.199693 0.00192889 0)
(0.199292 0.00188433 0)
(0.199364 0.00187472 0)
(0.198932 0.00183198 0)
(0.198995 0.00182276 0)
(0.198531 0.00178129 0)
(0.198588 0.00177434 0)
(0.198092 0.0017352 0)
(0.198137 0.00172952 0)
(0.197609 0.00169351 0)
(0.197641 0.00168895 0)
(0.197083 0.00165815 0)
(0.197102 0.00165616 0)
(0.196513 0.00163162 0)
(0.197454 0.0056897 0)
(0.197865 0.00624514 0)
(0.198394 0.00668374 0)
(0.199062 0.00695015 0)
(0.199737 0.00700452 0)
(0.200397 0.00687024 0)
(0.2009 0.00661197 0)
(0.201287 0.00632177 0)
(0.201499 0.00605103 0)
(0.201668 0.00582089 0)
(0.20175 0.00561176 0)
(0.201861 0.00541727 0)
(0.201907 0.00522462 0)
(0.201989 0.00504536 0)
(0.201996 0.00487426 0)
(0.202046 0.004722 0)
(0.202021 0.00457673 0)
(0.202053 0.00444695 0)
(0.20201 0.00431956 0)
(0.202035 0.00420538 0)
(0.20198 0.0040915 0)
(0.202002 0.0039905 0)
(0.201937 0.0038879 0)
(0.201959 0.00379809 0)
(0.201886 0.00370477 0)
(0.20191 0.003624 0)
(0.20183 0.00353836 0)
(0.201857 0.00346508 0)
(0.201773 0.00338588 0)
(0.201804 0.00331946 0)
(0.201714 0.00324547 0)
(0.201751 0.00318529 0)
(0.201655 0.00311587 0)
(0.201698 0.00306102 0)
(0.201597 0.00299583 0)
(0.201646 0.00294556 0)
(0.20154 0.0028839 0)
(0.201595 0.00283812 0)
(0.201482 0.00277942 0)
(0.201544 0.00273784 0)
(0.201424 0.002682 0)
(0.201492 0.0026442 0)
(0.201364 0.00259065 0)
(0.201438 0.00255649 0)
(0.201301 0.00250488 0)
(0.201381 0.00247368 0)
(0.201235 0.00242434 0)
(0.201318 0.00239599 0)
(0.201162 0.00234794 0)
(0.20125 0.00232323 0)
(0.20108 0.00227595 0)
(0.201172 0.00225369 0)
(0.200991 0.00220839 0)
(0.201082 0.00218775 0)
(0.200888 0.00214329 0)
(0.200981 0.00212585 0)
(0.20077 0.00208169 0)
(0.200863 0.00206628 0)
(0.200637 0.00202404 0)
(0.200726 0.00200949 0)
(0.200484 0.00196795 0)
(0.20057 0.00195618 0)
(0.200308 0.00191483 0)
(0.20039 0.00190473 0)
(0.200111 0.00186623 0)
(0.200182 0.00185627 0)
(0.199885 0.00181878 0)
(0.199949 0.00181107 0)
(0.199632 0.00177654 0)
(0.199683 0.00176995 0)
(0.199347 0.00173869 0)
(0.199383 0.00173313 0)
(0.199029 0.00170685 0)
(0.199049 0.0017043 0)
(0.198676 0.00168403 0)
(0.197695 0.00552404 0)
(0.19807 0.00601879 0)
(0.198538 0.00641327 0)
(0.199127 0.00666553 0)
(0.199722 0.00674227 0)
(0.200318 0.00665846 0)
(0.200787 0.0064566 0)
(0.201168 0.00621058 0)
(0.201393 0.00596647 0)
(0.201573 0.00575314 0)
(0.201665 0.00555781 0)
(0.201778 0.0053775 0)
(0.201829 0.00519735 0)
(0.201913 0.00502803 0)
(0.201929 0.00486335 0)
(0.201981 0.00471581 0)
(0.201964 0.00457382 0)
(0.201997 0.00444718 0)
(0.201962 0.00432209 0)
(0.201985 0.00421009 0)
(0.201938 0.00409748 0)
(0.201957 0.0039978 0)
(0.2019 0.00389574 0)
(0.201918 0.00380671 0)
(0.201854 0.00371364 0)
(0.201872 0.00363327 0)
(0.201803 0.00354772 0)
(0.201823 0.00347459 0)
(0.201749 0.00339527 0)
(0.201772 0.00332896 0)
(0.201694 0.00325465 0)
(0.201722 0.0031945 0)
(0.201639 0.0031248 0)
(0.201672 0.00306975 0)
(0.201586 0.00300442 0)
(0.201623 0.00295387 0)
(0.201535 0.00289209 0)
(0.201577 0.00284607 0)
(0.201485 0.00278728 0)
(0.201533 0.00274542 0)
(0.201437 0.00268959 0)
(0.20149 0.0026515 0)
(0.201389 0.00259808 0)
(0.201448 0.00256359 0)
(0.201343 0.00251244 0)
(0.201406 0.00248064 0)
(0.201298 0.00243207 0)
(0.201364 0.00240325 0)
(0.201251 0.00235582 0)
(0.201322 0.00233088 0)
(0.201201 0.0022846 0)
(0.201276 0.00226157 0)
(0.201151 0.002218 0)
(0.201225 0.00219654 0)
(0.201094 0.00215362 0)
(0.201171 0.00213577 0)
(0.201031 0.00209346 0)
(0.201108 0.00207703 0)
(0.200962 0.00203758 0)
(0.201035 0.00202184 0)
(0.200883 0.00198293 0)
(0.200954 0.00197039 0)
(0.20079 0.00193196 0)
(0.200859 0.00192039 0)
(0.200687 0.00188579 0)
(0.200747 0.00187453 0)
(0.200565 0.0018405 0)
(0.200619 0.00183148 0)
(0.200427 0.00180102 0)
(0.200469 0.00179318 0)
(0.200267 0.00176604 0)
(0.200297 0.00175937 0)
(0.200084 0.00173683 0)
(0.200101 0.00173368 0)
(0.199876 0.00171698 0)
(0.197914 0.00536924 0)