/*--------------------------------*- C++ -*----------------------------------*\
| =========                 |                                                 |
| \\      /  F ield         | OpenFOAM: The Open Source CFD Toolbox           |
|  \\    /   O peration     | Version:  2.3.0                                 |
|   \\  /    A nd           | Web:      www.OpenFOAM.org                      |
|    \\/     M anipulation  |                                                 |
\*---------------------------------------------------------------------------*/
FoamFile
{
    version     2.0;
    format      ascii;
    class       volScalarField;
    location    "0.65";
    object      p;
}
// * * * * * * * * * * * * * * * * * * * * * * * * * * * * * * * * * * * * * //

dimensions      [0 2 -2 0 0 0 0];

internalField   nonuniform List<scalar> 
2700
(
0.00839174
0.00626755
0.00514307
0.00464238
0.00425905
0.00388262
0.00353715
0.00323845
0.00298471
0.00277118
0.00259453
0.00245162
0.00233848
0.0022504
0.00218247
0.00212996
0.0020887
0.00205522
0.00202677
0.00200136
0.00197757
0.00195448
0.00193152
0.00190839
0.00188496
0.00186118
0.00183707
0.00181268
0.00178806
0.00176328
0.00173836
0.00171334
0.00168827
0.00166314
0.00163798
0.0016128
0.0015876
0.00156239
0.00153717
0.00151194
0.0014867
0.00146146
0.00143621
0.00141095
0.0013857
0.00136044
0.00133518
0.00130991
0.00128466
0.0012594
0.00123415
0.0012089
0.00118366
0.00115842
0.0011332
0.00110797
0.00108276
0.00105756
0.00103236
0.00100718
0.000982002
0.000956834
0.000931675
0.000906524
0.000881382
0.000856248
0.000831121
0.000806001
0.000780888
0.000755781
0.00073068
0.000705583
0.000680491
0.000655403
0.000630318
0.000605236
0.000580156
0.000555078
0.000530003
0.000504928
0.000479856
0.000454785
0.000429717
0.00040465
0.000379587
0.000354529
0.000329475
0.000304429
0.000279391
0.000254364
0.000229351
0.000204355
0.000179379
0.000154428
0.000129506
0.000104621
7.97804e-05
5.50077e-05
3.04385e-05
3.98958e-06
0.00726466
0.00603547
0.00511984
0.0046343
0.00426458
0.00390335
0.00356622
0.00327079
0.00301792
0.00280393
0.00262591
0.00248102
0.00236554
0.00227497
0.00220453
0.0021496
0.00210608
0.00207054
0.00204026
0.00201323
0.00198804
0.00196375
0.00193977
0.00191577
0.00189159
0.00186717
0.00184252
0.00181767
0.00179265
0.0017675
0.00174227
0.00171698
0.00169166
0.00166632
0.00164096
0.0016156
0.00159024
0.00156488
0.00153952
0.00151417
0.00148882
0.00146347
0.00143812
0.00141278
0.00138743
0.0013621
0.00133676
0.00131144
0.00128611
0.0012608
0.00123549
0.00121019
0.0011849
0.00115962
0.00113435
0.00110908
0.00108383
0.00105859
0.00103336
0.00100814
0.000982932
0.000957733
0.000932545
0.000907367
0.000882198
0.000857039
0.000831888
0.000806745
0.00078161
0.000756482
0.00073136
0.000706244
0.000681133
0.000656026
0.000630924
0.000605825
0.000580729
0.000555636
0.000530545
0.000505456
0.00048037
0.000455286
0.000430204
0.000405125
0.00038005
0.000354979
0.000329914
0.000304856
0.000279808
0.00025477
0.000229747
0.000204741
0.000179755
0.000154795
0.000129864
0.00010497
8.01224e-05
5.53468e-05
3.08786e-05
3.82886e-06
0.00648404
0.00582612
0.00509797
0.00461025
0.00424397
0.00390241
0.00358243
0.00329813
0.00305225
0.00284215
0.00266524
0.00251917
0.00240086
0.00230646
0.00223175
0.00217258
0.00212515
0.00208619
0.00205308
0.00202377
0.0019968
0.00197114
0.00194612
0.00192133
0.00189655
0.00187167
0.00184665
0.00182148
0.0017962
0.00177083
0.00174539
0.00171992
0.00169442
0.00166892
0.00164342
0.00161792
0.00159243
0.00156695
0.00154149
0.00151603
0.00149058
0.00146514
0.00143971
0.00141429
0.00138888
0.00136347
0.00133808
0.00131269
0.00128731
0.00126195
0.00123659
0.00121125
0.00118591
0.00116059
0.00113528
0.00110998
0.0010847
0.00105943
0.00103417
0.00100892
0.000983683
0.000958459
0.000933247
0.000908046
0.000882855
0.000857675
0.000832504
0.000807342
0.000782189
0.000757044
0.000731905
0.000706773
0.000681647
0.000656526
0.000631409
0.000606297
0.000581188
0.000556082
0.000530979
0.000505879
0.000480781
0.000455686
0.000430593
0.000405504
0.000380419
0.000355338
0.000330264
0.000305197
0.000280139
0.000255093
0.000230061
0.000205047
0.000180053
0.000155084
0.000130146
0.000105243
8.03831e-05
5.55908e-05
3.0985e-05
2.66726e-06
0.00593393
0.00555754
0.00499863
0.00454589
0.00419772
0.00388381
0.00358859
0.00332149
0.0030871
0.00288435
0.00271129
0.00256606
0.00244627
0.00234879
0.00227006
0.00220647
0.00215462
0.00211153
0.00207471
0.0020422
0.00201252
0.0019846
0.00195773
0.00193143
0.00190541
0.00187951
0.00185364
0.00182777
0.0018019
0.00177602
0.00175014
0.00172429
0.00169845
0.00167265
0.00164688
0.00162115
0.00159544
0.00156977
0.00154413
0.00151851
0.00149291
0.00146734
0.00144178
0.00141625
0.00139073
0.00136523
0.00133974
0.00131427
0.00128882
0.00126338
0.00123795
0.00121255
0.00118715
0.00116178
0.00113642
0.00111107
0.00108574
0.00106043
0.00103513
0.00100984
0.000984569
0.000959312
0.000934068
0.000908837
0.000883618
0.00085841
0.000833214
0.000808028
0.000782851
0.000757684
0.000732524
0.000707372
0.000682227
0.000657087
0.000631953
0.000606824
0.000581699
0.000556578
0.00053146
0.000506346
0.000481234
0.000456126
0.00043102
0.000405919
0.000380822
0.00035573
0.000330644
0.000305566
0.000280498
0.000255442
0.0002304
0.000205375
0.000180372
0.000155393
0.000130443
0.000105526
8.06429e-05
5.57861e-05
3.0785e-05
8.28467e-07
0.00550702
0.00527372
0.00485907
0.00446691
0.00414609
0.00385899
0.00358824
0.00333924
0.00311742
0.00292323
0.0027554
0.00261247
0.00249255
0.00239312
0.00231123
0.00224379
0.00218784
0.00214073
0.00210016
0.00206429
0.0020317
0.00200131
0.00197236
0.00194434
0.00191688
0.00188979
0.00186292
0.0018362
0.00180959
0.00178308
0.00175665
0.00173031
0.00170403
0.00167783
0.0016517
0.00162564
0.00159964
0.00157369
0.00154779
0.00152194
0.00149613
0.00147036
0.00144463
0.00141893
0.00139325
0.00136761
0.00134199
0.0013164
0.00129084
0.00126529
0.00123977
0.00121428
0.0011888
0.00116334
0.00113791
0.0011125
0.0010871
0.00106173
0.00103637
0.00101103
0.000985711
0.000960407
0.000935119
0.000909847
0.000884588
0.000859344
0.000834113
0.000808893
0.000783685
0.000758488
0.0007333
0.000708121
0.00068295
0.000657786
0.000632629
0.000607478
0.000582332
0.00055719
0.000532053
0.00050692
0.000481791
0.000456665
0.000431544
0.000406427
0.000381314
0.000356207
0.000331107
0.000306016
0.000280934
0.000255864
0.00023081
0.000205773
0.000180756
0.000155765
0.0001308
0.000105862
8.09348e-05
5.59454e-05
3.03702e-05
-1.08955e-06
0.00516283
0.00500937
0.00470436
0.00437667
0.00408727
0.00382532
0.00357792
0.00334755
0.00313932
0.0029548
0.00279341
0.00265408
0.00253533
0.00243519
0.00235123
0.00228086
0.00222156
0.00217096
0.00212704
0.00208807
0.00205272
0.00201992
0.0019889
0.00195911
0.00193017
0.00190181
0.00187386
0.00184622
0.00181881
0.00179159
0.00176454
0.00173764
0.00171086
0.00168421
0.00165766
0.00163122
0.00160486
0.00157859
0.0015524
0.00152627
0.00150021
0.00147421
0.00144825
0.00142235
0.00139649
0.00137067
0.00134489
0.00131914
0.00129343
0.00126776
0.00124212
0.0012165
0.00119092
0.00116536
0.00113983
0.00111433
0.00108885
0.0010634
0.00103797
0.00101256
0.000987174
0.000961809
0.000936463
0.000911135
0.000885826
0.000860533
0.000835255
0.000809992
0.000784743
0.000759506
0.000734281
0.000709067
0.000683863
0.000658667
0.00063348
0.0006083
0.000583126
0.000557959
0.000532796
0.000507639
0.000482487
0.00045734
0.000432197
0.00040706
0.000381928
0.000356803
0.000331684
0.000306575
0.000281477
0.000256391
0.00023132
0.000206267
0.000181235
0.000156226
0.000131242
0.000106273
8.12839e-05
5.61138e-05
2.99553e-05
-2.3671e-06
0.00487725
0.00477105
0.00454433
0.00427553
0.00402005
0.00378329
0.00355861
0.00334712
0.0031532
0.00297908
0.00282492
0.00269007
0.00257347
0.00247359
0.00238851
0.00231607
0.00225414
0.00220067
0.00215386
0.00211215
0.00207427
0.00203922
0.00200624
0.00197475
0.00194434
0.00191472
0.00188569
0.00185711
0.00182888
0.00180094
0.00177325
0.00174577
0.00171848
0.00169135
0.00166437
0.00163753
0.0016108
0.00158419
0.00155768
0.00153127
0.00150493
0.00147867
0.00145248
0.00142635
0.00140028
0.00137427
0.00134831
0.0013224
0.00129653
0.00127071
0.00124492
0.00121918
0.00119347
0.0011678
0.00114216
0.00111655
0.00109098
0.00106543
0.00103992
0.00101443
0.000988965
0.000963527
0.000938112
0.00091272
0.000887348
0.000861997
0.000836664
0.000811349
0.00078605
0.000760766
0.000735496
0.000710239
0.000684993
0.000659759
0.000634535
0.000609319
0.000584112
0.000558913
0.00053372
0.000508534
0.000483354
0.00045818
0.000433011
0.000407849
0.000382694
0.000357545
0.000332405
0.000307275
0.000282155
0.000257049
0.000231959
0.000206887
0.000181835
0.000156806
0.000131797
0.000106793
8.17312e-05
5.63828e-05
2.98146e-05
-2.41803e-06
0.00463464
0.00455791
0.00438652
0.00416805
0.00394664
0.00373504
0.00353217
0.00333916
0.0031597
0.00299637
0.00284995
0.00272023
0.00260655
0.00250776
0.00242237
0.00234864
0.00228477
0.00222903
0.00217981
0.00213572
0.00209562
0.00205853
0.00202373
0.00199064
0.00195884
0.00192801
0.00189793
0.00186842
0.00183939
0.00181073
0.0017824
0.00175434
0.00172652
0.00169892
0.0016715
0.00164426
0.00161716
0.00159021
0.00156338
0.00153666
0.00151004
0.00148352
0.00145709
0.00143073
0.00140445
0.00137824
0.00135209
0.001326
0.00129997
0.00127399
0.00124806
0.00122217
0.00119633
0.00117054
0.00114479
0.00111907
0.00109339
0.00106775
0.00104214
0.00101656
0.000991019
0.000965502
0.000940013
0.000914549
0.000889111
0.000863695
0.000838302
0.000812928
0.000787574
0.000762238
0.000736918
0.000711614
0.000686323
0.000661046
0.00063578
0.000610525
0.00058528
0.000560045
0.000534818
0.000509599
0.000484387
0.000459182
0.000433985
0.000408795
0.000383613
0.000358438
0.000333273
0.000308118
0.000282975
0.000257847
0.000232734
0.00020764
0.000182566
0.000157514
0.000132478
0.000107436
8.23103e-05
5.68408e-05
3.01527e-05
-1.03642e-06
0.00442486
0.00436748
0.0042356
0.00405844
0.00386898
0.00368181
0.00349968
0.00332443
0.00315932
0.00300701
0.00286874
0.00274472
0.00263461
0.00253764
0.00245268
0.00237835
0.00231319
0.00225571
0.00220456
0.00215848
0.00211644
0.00207755
0.00204109
0.00200653
0.00197341
0.00194142
0.00191032
0.00187992
0.00185009
0.00182072
0.00179176
0.00176313
0.00173479
0.00170671
0.00167886
0.00165121
0.00162374
0.00159644
0.00156929
0.00154227
0.00151538
0.00148859
0.00146191
0.00143533
0.00140883
0.00138242
0.00135608
0.00132981
0.00130361
0.00127747
0.00125139
0.00122537
0.0011994
0.00117348
0.0011476
0.00112178
0.00109599
0.00107025
0.00104455
0.00101888
0.00099325
0.000967652
0.000942086
0.00091655
0.000891042
0.00086556
0.000840104
0.000814671
0.00078926
0.000763869
0.000738497
0.000713143
0.000687805
0.000662482
0.000637173
0.000611877
0.000586593
0.00056132
0.000536056
0.000510802
0.000485557
0.000460321
0.000435093
0.000409873
0.000384662
0.00035946
0.000334268
0.000309087
0.000283919
0.000258766
0.000233629
0.000208511
0.000183415
0.000158338
0.000133276
0.000108202
8.30348e-05
5.75343e-05
3.10267e-05
1.54574e-06
0.004241
0.00419693
0.00409373
0.00394973
0.00378887
0.00362477
0.00346224
0.00330392
0.00315283
0.00301161
0.00288176
0.00276385
0.00265786
0.00256332
0.00247943
0.00240514
0.00233927
0.00228059
0.00222794
0.00218024
0.00213656
0.00209608
0.00205815
0.00202223
0.00198789
0.00195481
0.00192274
0.00189147
0.00186086
0.00183081
0.00180122
0.00177202
0.00174317
0.00171461
0.00168633
0.00165828
0.00163044
0.00160279
0.00157532
0.001548
0.00152082
0.00149378
0.00146685
0.00144004
0.00141333
0.00138671
0.00136018
0.00133373
0.00130736
0.00128106
0.00125483
0.00122867
0.00120257
0.00117652
0.00115053
0.00112459
0.0010987
0.00107286
0.00104706
0.0010213
0.000995586
0.000969907
0.000944264
0.000918654
0.000893076
0.000867528
0.000842008
0.000816515
0.000791046
0.000765601
0.000740176
0.000714772
0.000689387
0.000664018
0.000638666
0.000613328
0.000588004
0.000562692
0.000537392
0.000512103
0.000486824
0.000461555
0.000436295
0.000411046
0.000385806
0.000360576
0.000335357
0.000310149
0.000284956
0.000259777
0.000234616
0.000209474
0.000184354
0.000159254
0.000134168
0.000109071
8.38935e-05
5.84527e-05
3.23446e-05
4.80198e-06
0.00407822
0.00404365
0.00396165
0.00384403
0.00370802
0.00356516
0.00342095
0.00327859
0.00314101
0.00301074
0.00288945
0.00277796
0.00267652
0.00258494
0.00250269
0.002429
0.00236295
0.00230356
0.00224984
0.00220088
0.00215585
0.00211403
0.0020748
0.00203766
0.00200221
0.00196811
0.00193511
0.00190301
0.00187166
0.00184093
0.00181072
0.00178097
0.0017516
0.00172258
0.00169386
0.00166541
0.0016372
0.00160921
0.00158141
0.00155379
0.00152634
0.00149903
0.00147186
0.00144481
0.00141788
0.00139106
0.00136434
0.00133771
0.00131117
0.00128472
0.00125834
0.00123203
0.00120579
0.00117962
0.00115351
0.00112746
0.00110146
0.00107552
0.00104963
0.00102378
0.000997977
0.000972217
0.000946496
0.000920813
0.000895165
0.000869551
0.000843968
0.000818414
0.000792888
0.000767388
0.000741912
0.000716458
0.000691025
0.000665611
0.000640215
0.000614836
0.000589471
0.000564122
0.000538785
0.000513461
0.000488149
0.000462847
0.000437557
0.000412277
0.000387008
0.00036175
0.000336504
0.000311271
0.000286051
0.000260848
0.000235662
0.000210496
0.000185352
0.00016023
0.000135124
0.000110016
8.48563e-05
5.95401e-05
3.39274e-05
8.14958e-06
0.00393296
0.00390537
0.00383936
0.00374271
0.00362787
0.0035041
0.00337679
0.00324934
0.00312462
0.00300502
0.00289228
0.00278741
0.00269086
0.00260266
0.00252253
0.00244994
0.00238421
0.00232455
0.00227017
0.0022203
0.00217421
0.00213128
0.00209094
0.00205273
0.00201627
0.00198124
0.00194738
0.0019145
0.00188243
0.00185105
0.00182024
0.00178994
0.00176007
0.00173059
0.00170144
0.00167259
0.00164401
0.00161567
0.00158755
0.00155963
0.00153189
0.00150432
0.0014769
0.00144962
0.00142248
0.00139545
0.00136854
0.00134173
0.00131502
0.0012884
0.00126187
0.00123542
0.00120905
0.00118275
0.00115652
0.00113036
0.00110425
0.00107821
0.00105222
0.00102628
0.00100039
0.000974552
0.000948754
0.000922998
0.000897281
0.0008716
0.000845954
0.00082034
0.000794757
0.000769202
0.000743674
0.000718171
0.00069269
0.000667231
0.000641792
0.000616372
0.000590968
0.000565581
0.000540208
0.000514849
0.000489504
0.00046417
0.000438849
0.00041354
0.000388242
0.000362957
0.000337683
0.000312424
0.000287179
0.00026195
0.00023674
0.00021155
0.000186383
0.00016124
0.000136118
0.000111008
8.58848e-05
6.07214e-05
3.55848e-05
1.11425e-05
0.00380253
0.0037802
0.00372645
0.00364655
0.00354951
0.00344263
0.00333068
0.00321703
0.0031044
0.00299507
0.00289076
0.00279258
0.00270114
0.00261666
0.00253906
0.00246801
0.00240303
0.00234353
0.00228887
0.00223841
0.00219155
0.00214774
0.00210649
0.00206737
0.00203002
0.00199414
0.0019595
0.00192588
0.00189314
0.00186113
0.00182975
0.00179891
0.00176855
0.00173861
0.00170904
0.00167979
0.00165085
0.00162216
0.00159372
0.0015655
0.00153748
0.00150964
0.00148197
0.00145446
0.00142709
0.00139986
0.00137275
0.00134576
0.00131888
0.0012921
0.00126542
0.00123883
0.00121232
0.0011859
0.00115955
0.00113327
0.00110706
0.00108091
0.00105483
0.0010288
0.00100282
0.000976899
0.000951023
0.000925193
0.000899406
0.000873659
0.00084795
0.000822276
0.000796636
0.000771026
0.000745446
0.000719894
0.000694366
0.000668862
0.00064338
0.000617918
0.000592476
0.000567051
0.000541642
0.000516249
0.00049087
0.000465505
0.000440154
0.000414815
0.000389489
0.000364175
0.000338875
0.000313589
0.000288319
0.000263065
0.00023783
0.000212617
0.000187427
0.000162264
0.000137128
0.00011202
8.69412e-05
6.19247e-05
3.71681e-05
1.35512e-05
0.00368487
0.0036666
0.00362239
0.00355591
0.00347378
0.00338161
0.00328347
0.00318244
0.00308108
0.00298152
0.00288539
0.00279388
0.00270768
0.00262717
0.00255242
0.00248328
0.00241944
0.00236046
0.00230587
0.00225514
0.00220779
0.00216334
0.00212136
0.00208148
0.00204337
0.00200676
0.0019714
0.00193711
0.00190373
0.00187113
0.0018392
0.00180785
0.00177702
0.00174663
0.00171664
0.001687
0.00165769
0.00162867
0.00159991
0.00157138
0.00154308
0.00151498
0.00148706
0.00145932
0.00143173
0.00140429
0.00137699
0.00134981
0.00132276
0.00129582
0.00126898
0.00124225
0.0012156
0.00118905
0.00116258
0.00113618
0.00110987
0.00108362
0.00105743
0.00103131
0.00100525
0.000979247
0.000953293
0.000927389
0.000901532
0.000875718
0.000849946
0.000824212
0.000798515
0.000772851
0.000747219
0.000721617
0.000696042
0.000670493
0.000644968
0.000619466
0.000593984
0.000568521
0.000543077
0.000517649
0.000492238
0.000466841
0.000441459
0.000416091
0.000390736
0.000365395
0.000340068
0.000314756
0.00028946
0.00026418
0.000238921
0.000213683
0.000188471
0.000163288
0.000138139
0.000113034
8.79942e-05
6.30945e-05
3.85887e-05
1.53405e-05
0.00357835
0.00356324
0.00352658
0.00347092
0.00340122
0.00332177
0.00323589
0.00314631
0.00305535
0.00296496
0.0028767
0.00279173
0.00271082
0.00263444
0.00256279
0.00249586
0.00243348
0.00237536
0.00232115
0.00227045
0.00222286
0.002178
0.00213549
0.00209501
0.00205627
0.00201901
0.00198303
0.00194813
0.00191417
0.00188102
0.00184857
0.00181673
0.00178543
0.00175461
0.00172422
0.0016942
0.00166453
0.00163517
0.00160609
0.00157727
0.00154869
0.00152032
0.00149216
0.00146418
0.00143637
0.00140872
0.00138123
0.00135387
0.00132664
0.00129954
0.00127255
0.00124566
0.00121888
0.0011922
0.00116561
0.0011391
0.00111267
0.00108632
0.00106004
0.00103383
0.00100768
0.000981591
0.000955559
0.000929581
0.000903653
0.000877773
0.000851937
0.000826143
0.000800388
0.00077467
0.000748986
0.000723334
0.000697713
0.000672119
0.000646551
0.000621007
0.000595486
0.000569987
0.000544506
0.000519044
0.0004936
0.000468172
0.000442759
0.000417361
0.000391978
0.000366609
0.000341255
0.000315916
0.000290594
0.000265289
0.000240004
0.000214741
0.000189506
0.000164302
0.000139139
0.000114033
8.90202e-05
6.41945e-05
3.98116e-05
1.65963e-05
0.00348165
0.00346906
0.00343841
0.00339155
0.0033322
0.00326366
0.00318858
0.00310929
0.00302784
0.00294599
0.0028652
0.00278657
0.0027109
0.00263874
0.00257036
0.00250587
0.00244522
0.00238824
0.00233469
0.00228428
0.00223671
0.00219164
0.00214879
0.00210787
0.00206863
0.00203085
0.00199433
0.00195889
0.00192441
0.00189075
0.00185781
0.00182551
0.00179378
0.00176254
0.00173175
0.00170137
0.00167134
0.00164165
0.00161226
0.00158315
0.00155429
0.00152566
0.00149724
0.00146903
0.001441
0.00141315
0.00138546
0.00135792
0.00133051
0.00130325
0.0012761
0.00124908
0.00122216
0.00119534
0.00116863
0.00114201
0.00111547
0.00108901
0.00106264
0.00103633
0.0010101
0.000983925
0.000957815
0.000931763
0.000905765
0.000879817
0.000853918
0.000828064
0.000802251
0.000776479
0.000750743
0.000725042
0.000699373
0.000673734
0.000648123
0.000622539
0.000596979
0.000571442
0.000545926
0.000520429
0.000494952
0.000469492
0.000444048
0.000418621
0.000393209
0.000367812
0.000342431
0.000317065
0.000291716
0.000266385
0.000241074
0.000215786
0.000190526
0.0001653
0.000140119
0.000115006
9.00024e-05
6.52053e-05
4.08383e-05
1.74497e-05
0.00339373
0.00338315
0.00335735
0.00331767
0.00326696
0.00320772
0.00314208
0.00307196
0.00299913
0.00292517
0.00285139
0.00277884
0.0027083
0.00264036
0.00257535
0.00251347
0.00245476
0.00239916
0.00234652
0.00229664
0.00224929
0.00220423
0.00216121
0.00212
0.0020804
0.0020422
0.00200522
0.00196933
0.00193438
0.00190027
0.00186688
0.00183415
0.001802
0.00177037
0.00173921
0.00170846
0.0016781
0.00164809
0.00161839
0.00158898
0.00155985
0.00153096
0.0015023
0.00147386
0.00144562
0.00141756
0.00138967
0.00136194
0.00133437
0.00130694
0.00127964
0.00125247
0.00122541
0.00119847
0.00117163
0.00114489
0.00111825
0.00109169
0.00106522
0.00103882
0.0010125
0.000986243
0.000960054
0.000933928
0.000907859
0.000881846
0.000855883
0.000829968
0.000804099
0.000778272
0.000752484
0.000726734
0.000701018
0.000675335
0.000649681
0.000624056
0.000598457
0.000572882
0.000547331
0.0005218
0.00049629
0.000470798
0.000445324
0.000419867
0.000394426
0.000369002
0.000343593
0.0003182
0.000292824
0.000267466
0.000242128
0.000216814
0.000191527
0.000166277
0.000141075
0.000115944
9.09304e-05
6.612e-05
4.16904e-05
1.80265e-05
0.00331371
0.00330475
0.00328289
0.0032491
0.00320559
0.00315429
0.00309684
0.00303484
0.00296977
0.00290303
0.00283577
0.00276896
0.00270338
0.0026396
0.00257801
0.00251885
0.00246224
0.00240821
0.00235668
0.00230753
0.0022606
0.00221573
0.00217271
0.00213137
0.00209152
0.00205301
0.00201568
0.0019794
0.00194405
0.00190953
0.00187575
0.00184262
0.00181009
0.00177808
0.00174656
0.00171547
0.00168478
0.00165445
0.00162446
0.00159477
0.00156537
0.00153623
0.00150733
0.00147865
0.00145019
0.00142193
0.00139385
0.00136594
0.0013382
0.0013106
0.00128315
0.00125583
0.00122864
0.00120157
0.00117461
0.00114776
0.001121
0.00109434
0.00106777
0.00104128
0.00101487
0.000988537
0.000962271
0.000936071
0.000909932
0.000883852
0.000857826
0.000831851
0.000805925
0.000780044
0.000754205
0.000728405
0.000702643
0.000676915
0.000651219
0.000625553
0.000599916
0.000574304
0.000548717
0.000523152
0.000497609
0.000472086
0.000446581
0.000421095
0.000395625
0.000370172
0.000344736
0.000319315
0.000293912
0.000268527
0.000243162
0.000217819
0.000192505
0.000167227
0.000141997
0.000116841
9.17973e-05
6.69391e-05
4.23956e-05
1.84223e-05
0.00324088
0.00323325
0.0032146
0.00318567
0.00314818
0.00310362
0.00305327
0.00299839
0.00294027
0.00288006
0.00281881
0.0027574
0.00269654
0.0026368
0.00257859
0.0025222
0.0024678
0.00241547
0.0023652
0.00231695
0.00227063
0.0022261
0.00218323
0.00214189
0.00210192
0.00206321
0.00202561
0.00198903
0.00195335
0.00191848
0.00188434
0.00185085
0.00181797
0.00178561
0.00175375
0.00172234
0.00169134
0.00166071
0.00163043
0.00160047
0.0015708
0.00154141
0.00151228
0.00148338
0.00145471
0.00142624
0.00139797
0.00136989
0.00134197
0.00131422
0.00128662
0.00125916
0.00123183
0.00120463
0.00117755
0.00115058
0.00112372
0.00109696
0.00107029
0.00104371
0.00101722
0.000990798
0.000964455
0.000938182
0.000911974
0.000885828
0.00085974
0.000833706
0.000807724
0.000781789
0.000755899
0.000730051
0.000704243
0.000678471
0.000652733
0.000627027
0.000601351
0.000575703
0.000550081
0.000524482
0.000498907
0.000473352
0.000447817
0.000422301
0.000396803
0.000371322
0.000345858
0.00032041
0.000294979
0.000269566
0.000244172
0.000218801
0.000193456
0.000168147
0.000142885
0.000117691
9.26019e-05
6.76699e-05
4.29833e-05
1.87024e-05
0.00317466
0.00316808
0.00315205
0.00312713
0.00309468
0.00305583
0.00301159
0.00296296
0.002911
0.00285669
0.00280094
0.00274454
0.00268815
0.00263229
0.00257741
0.00252379
0.00247165
0.00242112
0.00237225
0.00232503
0.00227944
0.0022354
0.00219281
0.00215159
0.00211162
0.0020728
0.00203503
0.00199821
0.00196226
0.00192709
0.00189264
0.00185884
0.00182563
0.00179296
0.00176078
0.00172906
0.00169776
0.00166685
0.00163629
0.00160606
0.00157614
0.00154651
0.00151715
0.00148803
0.00145915
0.00143049
0.00140204
0.00137377
0.00134569
0.00131778
0.00129002
0.00126242
0.00123496
0.00120764
0.00118044
0.00115336
0.00112639
0.00109953
0.00107277
0.0010461
0.00101951
0.000993017
0.000966597
0.000940252
0.000913975
0.000887764
0.000861615
0.000835523
0.000809484
0.000783497
0.000757557
0.000731661
0.000705807
0.000679992
0.000654213
0.000628467
0.000602754
0.000577069
0.000551412
0.000525781
0.000500173
0.000474587
0.000449023
0.000423477
0.000397951
0.000372442
0.000346949
0.000321474
0.000296015
0.000270574
0.000245151
0.000219749
0.000194372
0.000169028
0.000143728
0.000118489
9.33391e-05
6.83157e-05
4.34742e-05
1.88992e-05
0.00310328
0.00309776
0.00308432
0.00306335
0.00303589
0.00300277
0.00296473
0.00292253
0.00287699
0.00282892
0.00277908
0.00272813
0.00267667
0.00262519
0.00257409
0.00252371
0.00247427
0.00242594
0.00237882
0.00233296
0.00228838
0.00224506
0.00220296
0.00216201
0.00212216
0.00208333
0.00204545
0.00200845
0.00197225
0.00193681
0.00190204
0.00186791
0.00183437
0.00180135
0.00176884
0.00173678
0.00170515
0.00167392
0.00164305
0.00161252
0.00158232
0.00155241
0.00152278
0.00149342
0.0014643
0.00143541
0.00140674
0.00137828
0.00135
0.00132191
0.00129398
0.00126622
0.0012386
0.00121113
0.00118379
0.00115658
0.00112949
0.00110251
0.00107564
0.00104887
0.00102219
0.000995595
0.000969087
0.000942657
0.000916302
0.000890015
0.000863794
0.000837634
0.000811531
0.000785483
0.000759484
0.000733533
0.000707626
0.000681761
0.000655934
0.000630142
0.000604385
0.000578658
0.000552961
0.000527291
0.000501646
0.000476024
0.000450424
0.000424845
0.000399285
0.000373743
0.000348218
0.000322709
0.000297217
0.000271741
0.000246282
0.000220843
0.000195425
0.000170036
0.000144683
0.000119381
9.41467e-05
6.90013e-05
4.39746e-05
1.90675e-05
0.00302957
0.00302506
0.003014
0.00299667
0.00297383
0.00294608
0.00291393
0.00287794
0.00283872
0.00279688
0.00275304
0.00270774
0.00266148
0.00261471
0.00256779
0.00252105
0.00247472
0.002429
0.00238403
0.0023399
0.00229667
0.00225438
0.00221302
0.00217259
0.00213305
0.00209437
0.0020565
0.00201941
0.00198306
0.00194738
0.00191234
0.00187791
0.00184403
0.00181067
0.00177781
0.0017454
0.00171342
0.00168184
0.00165063
0.00161978
0.00158926
0.00155905
0.00152913
0.00149948
0.0014701
0.00144095
0.00141204
0.00138334
0.00135485
0.00132655
0.00129842
0.00127047
0.00124268
0.00121505
0.00118755
0.00116019
0.00113296
0.00110585
0.00107885
0.00105196
0.00102516
0.000998467
0.000971859
0.000945334
0.000918888
0.000892516
0.000866214
0.000839977
0.000813801
0.000787683
0.000761619
0.000735605
0.000709639
0.000683716
0.000657835
0.000631992
0.000606184
0.000580411
0.000554668
0.000528954
0.000503267
0.000477604
0.000451965
0.000426347
0.000400749
0.000375169
0.000349606
0.00032406
0.000298529
0.000273012
0.00024751
0.000222024
0.000196555
0.000171107
0.000145684
0.000120295
9.49477e-05
6.96488e-05
4.44107e-05
1.9199e-05
0.00296256
0.00295884
0.00294969
0.00293531
0.00291627
0.00289298
0.00286581
0.00283513
0.00280138
0.00276503
0.00272656
0.00268639
0.00264494
0.0026026
0.00255968
0.00251649
0.00247326
0.00243021
0.00238748
0.00234521
0.00230349
0.00226238
0.00222193
0.00218216
0.00214308
0.00210469
0.00206697
0.00202991
0.00199348
0.00195766
0.00192242
0.00188774
0.00185359
0.00181993
0.00178675
0.00175402
0.00172172
0.00168981
0.00165828
0.00162712
0.00159629
0.00156578
0.00153557
0.00150565
0.001476
0.00144661
0.00141745
0.00138852
0.00135981
0.0013313
0.00130298
0.00127485
0.00124688
0.00121908
0.00119142
0.00116391
0.00113654
0.00110929
0.00108217
0.00105515
0.00102825
0.00100144
0.000974733
0.000948111
0.000921574
0.000895115
0.00086873
0.000842415
0.000816165
0.000789976
0.000763844
0.000737766
0.000711738
0.000685758
0.00065982
0.000633924
0.000608066
0.000582244
0.000556454
0.000530695
0.000504964
0.000479259
0.000453579
0.00042792
0.000402282
0.000376663
0.00035106
0.000325473
0.0002999
0.000274339
0.00024879
0.000223252
0.000197724
0.000172207
0.000146702
0.000121211
9.57347e-05
7.02721e-05
4.48275e-05
1.93505e-05
0.00290369
0.00290058
0.00289294
0.0028809
0.00286488
0.00284518
0.00282203
0.0027957
0.00276649
0.00273477
0.00270086
0.00266513
0.00262791
0.00258951
0.00255022
0.0025103
0.00246999
0.00242949
0.00238895
0.00234854
0.00230837
0.00226852
0.00222907
0.00219007
0.00215156
0.00211356
0.0020761
0.00203917
0.00200277
0.00196689
0.00193154
0.00189668
0.00186232
0.00182842
0.00179498
0.00176197
0.00172938
0.00169718
0.00166537
0.00163391
0.0016028
0.00157202
0.00154155
0.00151137
0.00148147
0.00145184
0.00142245
0.00139331
0.00136439
0.00133569
0.00130718
0.00127887
0.00125073
0.00122277
0.00119497
0.00116732
0.00113981
0.00111243
0.00108519
0.00105806
0.00103105
0.00100414
0.000977335
0.000950623
0.000923999
0.000897458
0.000870996
0.000844608
0.000818288
0.000792033
0.000765838
0.000739701
0.000713616
0.000687581
0.000661593
0.000635647
0.000609742
0.000583874
0.000558041
0.00053224
0.000506469
0.000480725
0.000455007
0.000429311
0.000403636
0.00037798
0.00035234
0.000326714
0.0003011
0.000275496
0.000249899
0.000224308
0.000198718
0.000173127
0.000147533
0.000121932
9.63206e-05
7.06933e-05
4.50603e-05
1.93861e-05
0.00285476
0.00285213
0.00284563
0.00283535
0.00282164
0.00280469
0.00278466
0.00276173
0.00273612
0.00270809
0.00267789
0.00264581
0.0026121
0.00257703
0.00254085
0.00250378
0.00246605
0.00242783
0.00238931
0.00235064
0.00231194
0.00227332
0.00223487
0.00219667
0.00215878
0.00212125
0.0020841
0.00204738
0.00201108
0.00197523
0.00193983
0.00190487
0.00187036
0.00183628
0.00180263
0.0017694
0.00173657
0.00170413
0.00167207
0.00164036
0.00160901
0.00157798
0.00154727
0.00151686
0.00148674
0.00145689
0.0014273
0.00139796
0.00136885
0.00133996
0.00131129
0.00128281
0.00125452
0.00122641
0.00119846
0.00117068
0.00114305
0.00111555
0.00108819
0.00106096
0.00103385
0.00100684
0.000979944
0.000953144
0.000926438
0.00089982
0.000873283
0.000846824
0.000820437
0.000794119
0.000767864
0.000741668
0.000715528
0.000689441
0.000663402
0.000637408
0.000611457
0.000585544
0.000559669
0.000533827
0.000508016
0.000482233
0.000456476
0.000430743
0.000405031
0.000379337
0.000353659
0.000327994
0.000302339
0.00027669
0.000251044
0.000225397
0.000199742
0.000174073
0.000148383
0.000122664
9.69068e-05
7.11041e-05
4.52739e-05
1.93991e-05
0.00281821
0.00281589
0.00281017
0.00280112
0.00278899
0.00277395
0.00275611
0.00273557
0.00271251
0.00268712
0.0026596
0.00263017
0.00259905
0.00256646
0.00253261
0.00249771
0.00246195
0.00242552
0.00238859
0.0023513
0.00231379
0.00227618
0.00223857
0.00220106
0.00216371
0.00212659
0.00208975
0.00205323
0.00201706
0.00198127
0.00194586
0.00191086
0.00187626
0.00184206
0.00180827
0.00177488
0.00174188
0.00170926
0.00167701
0.00164512
0.00161358
0.00158237
0.00155147
0.00152089
0.00149059
0.00146058
0.00143083
0.00140134
0.00137208
0.00134306
0.00131425
0.00128565
0.00125724
0.00122901
0.00120096
0.00117308
0.00114535
0.00111776
0.00109032
0.001063
0.00103581
0.00100874
0.00098177
0.000954906
0.000928138
0.000901462
0.00087487
0.000848359
0.000821922
0.000795556
0.000769257
0.000743019
0.000716839
0.000690712
0.000664637
0.000638608
0.000612623
0.000586679
0.000560772
0.0005349