/*--------------------------------*- C++ -*----------------------------------*\
| =========                 |                                                 |
| \\      /  F ield         | OpenFOAM: The Open Source CFD Toolbox           |
|  \\    /   O peration     | Version:  2.3.0                                 |
|   \\  /    A nd           | Web:      www.OpenFOAM.org                      |
|    \\/     M anipulation  |                                                 |
\*---------------------------------------------------------------------------*/
FoamFile
{
    version     2.0;
    format      ascii;
    class       volVectorField;
    location    "0.65";
    object      U;
}
// * * * * * * * * * * * * * * * * * * * * * * * * * * * * * * * * * * * * * //

dimensions      [0 1 -1 0 0 0 0];

internalField   nonuniform List<vector> 
2700
(
(0.185025 0.0050203 0)
(0.173514 0.00578136 0)
(0.158817 0.00543639 0)
(0.143355 0.00502214 0)
(0.128973 0.00454764 0)
(0.115969 0.00399868 0)
(0.104222 0.00342418 0)
(0.0936846 0.00286641 0)
(0.0843682 0.00234806 0)
(0.0762549 0.00188217 0)
(0.0692814 0.00147676 0)
(0.0633536 0.00113514 0)
(0.0583608 0.000856105 0)
(0.0541841 0.00063493 0)
(0.0507037 0.000464636 0)
(0.0478045 0.000337142 0)
(0.0453814 0.000244251 0)
(0.0433417 0.00017835 0)
(0.0416074 0.000132818 0)
(0.0401139 0.000102173 0)
(0.0388099 8.20596e-05 0)
(0.0376553 6.9145e-05 0)
(0.0366193 6.09662e-05 0)
(0.0356787 5.57702e-05 0)
(0.0348162 5.2358e-05 0)
(0.0340188 4.99451e-05 0)
(0.0332768 4.80439e-05 0)
(0.0325829 4.6371e-05 0)
(0.0319314 4.47755e-05 0)
(0.0313179 4.31894e-05 0)
(0.0307385 4.15916e-05 0)
(0.0301904 3.99859e-05 0)
(0.0296708 3.83866e-05 0)
(0.0291774 3.6811e-05 0)
(0.0287081 3.52745e-05 0)
(0.0282612 3.37896e-05 0)
(0.0278349 3.23647e-05 0)
(0.0274277 3.1005e-05 0)
(0.0270383 2.9713e-05 0)
(0.0266652 2.84889e-05 0)
(0.0263075 2.73314e-05 0)
(0.0259641 2.62382e-05 0)
(0.0256339 2.52062e-05 0)
(0.0253162 2.42321e-05 0)
(0.0250101 2.33123e-05 0)
(0.0247149 2.24434e-05 0)
(0.0244299 2.16219e-05 0)
(0.0241546 2.08446e-05 0)
(0.0238883 2.01084e-05 0)
(0.0236306 1.94106e-05 0)
(0.0233809 1.87484e-05 0)
(0.0231389 1.81193e-05 0)
(0.022904 1.75213e-05 0)
(0.0226761 1.69521e-05 0)
(0.0224546 1.64098e-05 0)
(0.0222393 1.58928e-05 0)
(0.0220299 1.53993e-05 0)
(0.0218261 1.4928e-05 0)
(0.0216277 1.44774e-05 0)
(0.0214344 1.40462e-05 0)
(0.0212459 1.36333e-05 0)
(0.0210621 1.32377e-05 0)
(0.0208828 1.28583e-05 0)
(0.0207077 1.24941e-05 0)
(0.0205368 1.21444e-05 0)
(0.0203697 1.18084e-05 0)
(0.0202065 1.14852e-05 0)
(0.020047 1.11744e-05 0)
(0.0198909 1.0875e-05 0)
(0.0197382 1.05866e-05 0)
(0.0195887 1.03088e-05 0)
(0.0194424 1.00407e-05 0)
(0.0192992 9.78216e-06 0)
(0.0191588 9.53259e-06 0)
(0.0190213 9.29156e-06 0)
(0.0188865 9.05865e-06 0)
(0.0187544 8.83357e-06 0)
(0.0186248 8.61598e-06 0)
(0.0184977 8.4055e-06 0)
(0.0183731 8.20188e-06 0)
(0.0182508 8.00485e-06 0)
(0.0181307 7.81417e-06 0)
(0.0180129 7.62957e-06 0)
(0.0178972 7.45086e-06 0)
(0.0177835 7.27788e-06 0)
(0.017672 7.11047e-06 0)
(0.0175624 6.94844e-06 0)
(0.0174547 6.79163e-06 0)
(0.0173488 6.63996e-06 0)
(0.0172448 6.49332e-06 0)
(0.0171426 6.35165e-06 0)
(0.0170421 6.21494e-06 0)
(0.0169433 6.08339e-06 0)
(0.0168461 5.95776e-06 0)
(0.0167504 5.84028e-06 0)
(0.0166562 5.73828e-06 0)
(0.0165632 5.68001e-06 0)
(0.0164703 5.66534e-06 0)
(0.0163902 4.83222e-06 0)
(0.0161582 3.38367e-05 0)
(0.200885 0.00843009 0)
(0.202375 0.00989666 0)
(0.200757 0.00956134 0)
(0.196718 0.00920163 0)
(0.191612 0.00878855 0)
(0.185983 0.00823184 0)
(0.179998 0.00757463 0)
(0.173805 0.00687102 0)
(0.167569 0.00615346 0)
(0.161427 0.00544485 0)
(0.155474 0.00476522 0)
(0.149776 0.0041312 0)
(0.144372 0.00355472 0)
(0.139284 0.00304272 0)
(0.134519 0.00259756 0)
(0.130074 0.00221768 0)
(0.125937 0.00189862 0)
(0.122093 0.00163397 0)
(0.118521 0.00141637 0)
(0.115203 0.00123834 0)
(0.112117 0.00109278 0)
(0.109243 0.00097339 0)
(0.106563 0.000874799 0)
(0.104059 0.00079259 0)
(0.101715 0.000723242 0)
(0.0995167 0.000664005 0)
(0.0974506 0.000612776 0)
(0.095505 0.000567957 0)
(0.0936695 0.000528346 0)
(0.0919345 0.000493032 0)
(0.0902917 0.000461327 0)
(0.0887334 0.000432695 0)
(0.087253 0.00040672 0)
(0.0858443 0.000383064 0)
(0.0845018 0.000361454 0)
(0.0832206 0.000341657 0)
(0.0819962 0.000323479 0)
(0.0808246 0.000306748 0)
(0.079702 0.000291317 0)
(0.0786251 0.000277055 0)
(0.0775909 0.000263848 0)
(0.0765965 0.000251593 0)
(0.0756394 0.000240201 0)
(0.0747173 0.00022959 0)
(0.0738281 0.000219688 0)
(0.0729697 0.000210433 0)
(0.0721404 0.000201766 0)
(0.0713384 0.000193638 0)
(0.0705624 0.000186002 0)
(0.0698107 0.000178818 0)
(0.0690822 0.000172049 0)
(0.0683756 0.000165663 0)
(0.0676898 0.000159629 0)
(0.0670237 0.000153922 0)
(0.0663764 0.000148516 0)
(0.0657469 0.00014339 0)
(0.0651344 0.000138523 0)
(0.0645382 0.000133899 0)
(0.0639574 0.0001295 0)
(0.0633914 0.00012531 0)
(0.0628396 0.000121317 0)
(0.0623013 0.000117507 0)
(0.0617759 0.000113869 0)
(0.061263 0.000110391 0)
(0.060762 0.000107065 0)
(0.0602725 0.000103881 0)
(0.059794 0.000100829 0)
(0.0593261 9.79043e-05 0)
(0.0588684 9.5097e-05 0)
(0.0584206 9.24015e-05 0)
(0.0579822 8.98114e-05 0)
(0.057553 8.73207e-05 0)
(0.0571326 8.4924e-05 0)
(0.0567207 8.26165e-05 0)
(0.0563171 8.03931e-05 0)
(0.0559215 7.82497e-05 0)
(0.0555336 7.6182e-05 0)
(0.0551532 7.41863e-05 0)
(0.0547801 7.22588e-05 0)
(0.054414 7.03964e-05 0)
(0.0540548 6.85958e-05 0)
(0.0537023 6.68542e-05 0)
(0.0533563 6.51687e-05 0)
(0.0530165 6.3537e-05 0)
(0.052683 6.19566e-05 0)
(0.0523554 6.04254e-05 0)
(0.0520336 5.89415e-05 0)
(0.0517175 5.75029e-05 0)
(0.051407 5.6108e-05 0)
(0.051102 5.47555e-05 0)
(0.0508022 5.34439e-05 0)
(0.0505076 5.21728e-05 0)
(0.0502181 5.09424e-05 0)
(0.0499335 4.97562e-05 0)
(0.0496537 4.86268e-05 0)
(0.0493784 4.75952e-05 0)
(0.0491071 4.67939e-05 0)
(0.0488377 4.65778e-05 0)
(0.0485852 5.0187e-05 0)
(0.0481141 0.000112104 0)
(0.201535 0.00623593 0)
(0.204572 0.00851791 0)
(0.206672 0.00908198 0)
(0.207307 0.00942222 0)
(0.207014 0.00959799 0)
(0.2061 0.00950851 0)
(0.204629 0.0091946 0)
(0.202656 0.00873066 0)
(0.200277 0.00817094 0)
(0.197592 0.00755548 0)
(0.194688 0.00691844 0)
(0.191638 0.00628848 0)
(0.188503 0.00568737 0)
(0.185331 0.0051298 0)
(0.182163 0.00462405 0)
(0.179027 0.00417308 0)
(0.175944 0.00377585 0)
(0.172929 0.00342863 0)
(0.169991 0.00312621 0)
(0.167135 0.00286279 0)
(0.164363 0.00263266 0)
(0.161678 0.00243062 0)
(0.159077 0.00225213 0)
(0.15656 0.00209339 0)
(0.154125 0.00195127 0)
(0.15177 0.00182326 0)
(0.149492 0.00170732 0)
(0.14729 0.00160184 0)
(0.145161 0.0015055 0)
(0.143102 0.00141723 0)
(0.141111 0.00133615 0)
(0.139186 0.00126151 0)
(0.137324 0.00119267 0)
(0.135523 0.00112907 0)
(0.13378 0.00107024 0)
(0.132093 0.00101573 0)
(0.130461 0.000965171 0)
(0.12888 0.000918203 0)
(0.127348 0.000874516 0)
(0.125864 0.000833828 0)
(0.124425 0.000795883 0)
(0.12303 0.00076045 0)
(0.121676 0.000727317 0)
(0.120362 0.000696296 0)
(0.119086 0.000667213 0)
(0.117847 0.000639913 0)
(0.116642 0.000614253 0)
(0.11547 0.000590105 0)
(0.114331 0.000567353 0)
(0.113221 0.000545889 0)
(0.112142 0.000525617 0)
(0.11109 0.00050645 0)
(0.110065 0.000488306 0)
(0.109065 0.000471114 0)
(0.10809 0.000454805 0)
(0.10714 0.000439318 0)
(0.106211 0.000424599 0)
(0.105305 0.000410594 0)
(0.10442 0.000397257 0)
(0.103554 0.000384545 0)
(0.102709 0.000372417 0)
(0.101882 0.000360837 0)
(0.101073 0.00034977 0)
(0.100282 0.000339186 0)
(0.0995069 0.000329055 0)
(0.0987484 0.00031935 0)
(0.0980056 0.000310047 0)
(0.0972779 0.000301122 0)
(0.0965647 0.000292553 0)
(0.0958658 0.000284321 0)
(0.0951805 0.000276407 0)
(0.0945085 0.000268794 0)
(0.0938493 0.000261465 0)
(0.0932025 0.000254404 0)
(0.0925679 0.000247599 0)
(0.091945 0.000241035 0)
(0.0913334 0.000234699 0)
(0.090733 0.000228581 0)
(0.0901434 0.00022267 0)
(0.0895642 0.000216954 0)
(0.0889953 0.000211424 0)
(0.0884363 0.000206071 0)
(0.087887 0.000200887 0)
(0.0873473 0.000195864 0)
(0.0868168 0.000190994 0)
(0.0862953 0.000186271 0)
(0.0857827 0.000181687 0)
(0.0852788 0.000177238 0)
(0.0847834 0.000172917 0)
(0.0842962 0.00016872 0)
(0.0838173 0.000164643 0)
(0.0833463 0.000160682 0)
(0.0828832 0.000156838 0)
(0.0824277 0.000153117 0)
(0.0819798 0.000149549 0)
(0.081539 0.000146229 0)
(0.0811047 0.000143466 0)
(0.0806751 0.000142449 0)
(0.0802592 0.000152946 0)
(0.0796481 0.000223181 0)
(0.200979 0.00442483 0)
(0.20338 0.00699412 0)
(0.205872 0.00811945 0)
(0.207687 0.00879099 0)
(0.208964 0.00923222 0)
(0.209884 0.00940418 0)
(0.210456 0.00933336 0)
(0.210656 0.00908498 0)
(0.210499 0.00871238 0)
(0.21002 0.00825511 0)
(0.209261 0.00774699 0)
(0.208263 0.00721773 0)
(0.207067 0.00669149 0)
(0.205713 0.00618618 0)
(0.204234 0.00571367 0)
(0.202662 0.00528056 0)
(0.201022 0.00488924 0)
(0.199334 0.004539 0)
(0.197615 0.00422712 0)
(0.195876 0.00394976 0)
(0.194127 0.00370265 0)
(0.192374 0.00348159 0)
(0.190624 0.00328271 0)
(0.188879 0.00310264 0)
(0.187143 0.0029385 0)
(0.185419 0.00278795 0)
(0.183709 0.00264908 0)
(0.182015 0.00252035 0)
(0.180337 0.00240054 0)
(0.178678 0.00228868 0)
(0.177039 0.00218395 0)
(0.17542 0.00208572 0)
(0.173824 0.00199342 0)
(0.172249 0.00190658 0)
(0.170697 0.00182481 0)
(0.169169 0.00174773 0)
(0.167664 0.00167503 0)
(0.166184 0.0016064 0)
(0.164727 0.00154157 0)
(0.163295 0.00148029 0)
(0.161887 0.00142233 0)
(0.160503 0.00136748 0)
(0.159143 0.00131553 0)
(0.157807 0.0012663 0)
(0.156494 0.00121962 0)
(0.155205 0.00117533 0)
(0.153939 0.00113327 0)
(0.152695 0.00109331 0)
(0.151473 0.00105531 0)
(0.150274 0.00101916 0)
(0.149096 0.000984743 0)
(0.147938 0.000951953 0)
(0.146802 0.000920693 0)
(0.145685 0.000890871 0)
(0.144589 0.000862403 0)
(0.143512 0.000835209 0)
(0.142453 0.000809216 0)
(0.141413 0.000784354 0)
(0.140391 0.000760559 0)
(0.139387 0.00073777 0)
(0.1384 0.000715932 0)
(0.13743 0.000694991 0)
(0.136477 0.000674899 0)
(0.135539 0.000655609 0)
(0.134617 0.000637078 0)
(0.133711 0.000619266 0)
(0.132819 0.000602135 0)
(0.131942 0.000585649 0)
(0.131079 0.000569775 0)
(0.13023 0.000554481 0)
(0.129395 0.000539738 0)
(0.128573 0.000525518 0)
(0.127764 0.000511794 0)
(0.126968 0.000498543 0)
(0.126184 0.00048574 0)
(0.125413 0.000473363 0)
(0.124653 0.000461393 0)
(0.123905 0.000449808 0)
(0.123169 0.000438591 0)
(0.122444 0.000427724 0)
(0.12173 0.000417191 0)
(0.121026 0.000406975 0)
(0.120333 0.000397063 0)
(0.119651 0.000387439 0)
(0.118979 0.000378092 0)
(0.118317 0.000369008 0)
(0.117664 0.000360176 0)
(0.117022 0.000351585 0)
(0.116389 0.000343226 0)
(0.115765 0.00033509 0)
(0.115151 0.000327168 0)
(0.114546 0.000319454 0)
(0.11395 0.000311948 0)
(0.113363 0.00030466 0)
(0.112785 0.000297635 0)
(0.112216 0.000291025 0)
(0.111654 0.000285336 0)
(0.111099 0.000282649 0)
(0.110558 0.000294824 0)
(0.109861 0.000354491 0)
(0.200608 0.00333606 0)
(0.202297 0.00577234 0)
(0.204389 0.00710326 0)
(0.206231 0.00789296 0)
(0.207777 0.00842493 0)
(0.20914 0.00872282 0)
(0.21033 0.00880138 0)
(0.21131 0.00870722 0)
(0.21206 0.00848564 0)
(0.212583 0.00817153 0)
(0.212888 0.00779448 0)
(0.212993 0.00738119 0)
(0.212915 0.00695452 0)
(0.212677 0.00653246 0)
(0.212302 0.00612794 0)
(0.211811 0.00574926 0)
(0.211224 0.00540078 0)
(0.210558 0.00508377 0)
(0.209827 0.00479736 0)
(0.209042 0.0045393 0)
(0.208213 0.00430664 0)
(0.207346 0.00409618 0)
(0.206447 0.00390486 0)
(0.205521 0.00372989 0)
(0.204571 0.00356885 0)
(0.2036 0.00341972 0)
(0.20261 0.00328084 0)
(0.201604 0.00315088 0)
(0.200584 0.00302876 0)
(0.199552 0.00291362 0)
(0.198509 0.00280478 0)
(0.197457 0.00270167 0)
(0.196398 0.00260382 0)
(0.195333 0.00251084 0)
(0.194263 0.00242238 0)
(0.19319 0.00233816 0)
(0.192115 0.00225789 0)
(0.191038 0.00218134 0)
(0.189962 0.00210829 0)
(0.188886 0.00203854 0)
(0.187813 0.00197189 0)
(0.186741 0.00190818 0)
(0.185673 0.00184723 0)
(0.184609 0.00178891 0)
(0.18355 0.00173306 0)
(0.182495 0.00167955 0)
(0.181446 0.00162827 0)
(0.180404 0.0015791 0)
(0.179367 0.00153191 0)
(0.178338 0.00148663 0)
(0.177316 0.00144314 0)
(0.176301 0.00140136 0)
(0.175294 0.0013612 0)
(0.174294 0.00132258 0)
(0.173304 0.00128543 0)
(0.172321 0.00124968 0)
(0.171347 0.00121525 0)
(0.170381 0.0011821 0)
(0.169425 0.00115015 0)
(0.168477 0.00111934 0)
(0.167538 0.00108964 0)
(0.166608 0.00106098 0)
(0.165687 0.00103332 0)
(0.164775 0.0010066 0)
(0.163873 0.000980802 0)
(0.162979 0.000955868 0)
(0.162094 0.000931762 0)
(0.161219 0.000908447 0)
(0.160352 0.00088589 0)
(0.159495 0.000864055 0)
(0.158647 0.000842912 0)
(0.157807 0.00082243 0)
(0.156976 0.00080258 0)
(0.156155 0.000783334 0)
(0.155342 0.000764667 0)
(0.154538 0.000746552 0)
(0.153743 0.000728967 0)
(0.152956 0.000711887 0)
(0.152178 0.000695292 0)
(0.151409 0.00067916 0)
(0.150648 0.000663471 0)
(0.149895 0.000648207 0)
(0.149151 0.000633348 0)
(0.148416 0.000618879 0)
(0.147689 0.000604781 0)
(0.14697 0.000591041 0)
(0.146259 0.000577642 0)
(0.145557 0.000564571 0)
(0.144863 0.000551816 0)
(0.144177 0.000539364 0)
(0.143499 0.000527205 0)
(0.142829 0.000515332 0)
(0.142167 0.000503742 0)
(0.141514 0.00049245 0)
(0.140868 0.000481515 0)
(0.14023 0.000471133 0)
(0.1396 0.000461961 0)
(0.138978 0.000456503 0)
(0.138372 0.00046491 0)
(0.137642 0.000501866 0)
(0.200397 0.00261525 0)
(0.201585 0.00476246 0)
(0.203226 0.0061306 0)
(0.204837 0.00698665 0)
(0.206289 0.00757063 0)
(0.207631 0.00794076 0)
(0.208881 0.00811179 0)
(0.210011 0.00811781 0)
(0.210999 0.00799805 0)
(0.211838 0.00778484 0)
(0.212527 0.00750509 0)
(0.213072 0.00718273 0)
(0.213482 0.00683859 0)
(0.213766 0.00648955 0)
(0.21394 0.00614827 0)
(0.214018 0.00582344 0)
(0.214011 0.00552025 0)
(0.213934 0.00524111 0)
(0.213795 0.00498632 0)
(0.213605 0.00475478 0)
(0.21337 0.00454454 0)
(0.213095 0.00435327 0)
(0.212786 0.00417859 0)
(0.212444 0.00401822 0)
(0.212074 0.00387012 0)
(0.211676 0.00373256 0)
(0.211254 0.00360406 0)
(0.210807 0.00348342 0)
(0.210338 0.00336968 0)
(0.209848 0.00326202 0)
(0.209338 0.00315983 0)
(0.208809 0.00306258 0)
(0.208262 0.00296984 0)
(0.207697 0.00288126 0)
(0.207117 0.00279654 0)
(0.206522 0.0027154 0)
(0.205912 0.00263763 0)
(0.20529 0.00256301 0)
(0.204655 0.00249136 0)
(0.204008 0.00242251 0)
(0.203351 0.00235631 0)
(0.202684 0.00229261 0)
(0.202008 0.00223128 0)
(0.201323 0.0021722 0)
(0.20063 0.00211526 0)
(0.19993 0.00206034 0)
(0.199224 0.00200735 0)
(0.198511 0.0019562 0)
(0.197793 0.00190679 0)
(0.197071 0.00185905 0)
(0.196344 0.0018129 0)
(0.195613 0.00176826 0)
(0.194879 0.00172507 0)
(0.194142 0.00168327 0)
(0.193403 0.0016428 0)
(0.192661 0.00160359 0)
(0.191918 0.00156559 0)
(0.191174 0.00152876 0)
(0.190429 0.00149305 0)
(0.189684 0.0014584 0)
(0.188938 0.00142479 0)
(0.188193 0.00139216 0)
(0.187447 0.00136047 0)
(0.186703 0.0013297 0)
(0.18596 0.0012998 0)
(0.185217 0.00127074 0)
(0.184477 0.00124249 0)
(0.183738 0.00121502 0)
(0.183 0.00118829 0)
(0.182265 0.00116229 0)
(0.181533 0.00113697 0)
(0.180803 0.00111232 0)
(0.180075 0.00108832 0)
(0.179351 0.00106493 0)
(0.178629 0.00104213 0)
(0.177911 0.00101991 0)
(0.177195 0.000998231 0)
(0.176484 0.000977083 0)
(0.175776 0.000956443 0)
(0.175071 0.000936292 0)
(0.174371 0.000916611 0)
(0.173674 0.000897382 0)
(0.172982 0.000878587 0)
(0.172294 0.00086021 0)
(0.17161 0.000842234 0)
(0.17093 0.000824644 0)
(0.170255 0.000807426 0)
(0.169585 0.000790566 0)
(0.168919 0.000774051 0)
(0.168258 0.000757869 0)
(0.167602 0.000742009 0)
(0.166951 0.000726464 0)
(0.166306 0.000711233 0)
(0.165665 0.000696334 0)
(0.16503 0.000681833 0)
(0.1644 0.000667946 0)
(0.163775 0.000655349 0)
(0.163158 0.000646274 0)
(0.162559 0.000647077 0)
(0.161859 0.000656248 0)
(0.200273 0.0021094 0)
(0.20113 0.00396219 0)
(0.202406 0.00528602 0)
(0.203764 0.00617344 0)
(0.205051 0.00678874 0)
(0.206267 0.00720015 0)
(0.207423 0.00742857 0)
(0.208502 0.00750123 0)
(0.209484 0.00745182 0)
(0.210359 0.0073103 0)
(0.211127 0.00710158 0)
(0.21179 0.00684737 0)
(0.212352 0.0065666 0)
(0.212821 0.00627489 0)
(0.213205 0.00598429 0)
(0.213515 0.00570344 0)
(0.213761 0.00543794 0)
(0.213951 0.00519086 0)
(0.214095 0.00496334 0)
(0.214198 0.00475511 0)
(0.214267 0.00456502 0)
(0.214306 0.00439143 0)
(0.214317 0.0042325 0)
(0.214305 0.0040864 0)
(0.21427 0.00395142 0)
(0.214213 0.00382604 0)
(0.214137 0.00370896 0)
(0.214041 0.0035991 0)
(0.213927 0.00349553 0)
(0.213794 0.00339753 0)
(0.213644 0.00330448 0)
(0.213476 0.00321589 0)
(0.213292 0.00313135 0)
(0.213091 0.00305052 0)
(0.212874 0.0029731 0)
(0.212642 0.00289885 0)
(0.212394 0.00282754 0)
(0.212132 0.00275898 0)
(0.211855 0.002693 0)
(0.211565 0.00262944 0)
(0.211261 0.00256816 0)
(0.210943 0.00250903 0)
(0.210614 0.00245192 0)
(0.210271 0.00239674 0)
(0.209917 0.00234337 0)
(0.209552 0.00229171 0)
(0.209175 0.00224169 0)
(0.208788 0.00219322 0)
(0.208391 0.00214622 0)
(0.207983 0.00210062 0)
(0.207566 0.00205636 0)
(0.20714 0.00201337 0)
(0.206705 0.00197159 0)
(0.206261 0.00193098 0)
(0.205809 0.00189148 0)
(0.20535 0.00185304 0)
(0.204883 0.00181563 0)
(0.204409 0.00177919 0)
(0.203928 0.00174368 0)
(0.203441 0.00170908 0)
(0.202948 0.00167534 0)
(0.202449 0.00164244 0)
(0.201944 0.00161033 0)
(0.201434 0.001579 0)
(0.20092 0.00154841 0)
(0.2004 0.00151854 0)
(0.199877 0.00148935 0)
(0.199349 0.00146084 0)
(0.198817 0.00143296 0)
(0.198282 0.00140571 0)
(0.197744 0.00137905 0)
(0.197202 0.00135297 0)
(0.196658 0.00132745 0)
(0.196111 0.00130247 0)
(0.195562 0.001278 0)
(0.195011 0.00125404 0)
(0.194458 0.00123056 0)
(0.193903 0.00120755 0)
(0.193347 0.00118499 0)
(0.19279 0.00116286 0)
(0.192232 0.00114115 0)
(0.191673 0.00111985 0)
(0.191113 0.00109894 0)
(0.190553 0.0010784 0)
(0.189993 0.00105822 0)
(0.189432 0.00103839 0)
(0.188872 0.0010189 0)
(0.188312 0.000999727 0)
(0.187753 0.000980872 0)
(0.187195 0.00096232 0)
(0.186637 0.000944062 0)
(0.186081 0.000926093 0)
(0.185526 0.000908413 0)
(0.184972 0.00089104 0)
(0.18442 0.000874039 0)
(0.18387 0.0008576 0)
(0.183322 0.000842265 0)
(0.18278 0.00082945 0)
(0.182253 0.000821215 0)
(0.181645 0.000804143 0)
(0.200197 0.00173912 0)
(0.200832 0.00333138 0)
(0.20183 0.00456555 0)
(0.20296 0.00544829 0)
(0.204081 0.00607673 0)
(0.205162 0.00651246 0)
(0.206201 0.00678053 0)
(0.207186 0.00690381 0)
(0.208098 0.00691022 0)
(0.208929 0.00682644 0)
(0.209675 0.0066753 0)
(0.210338 0.00647659 0)
(0.210921 0.0062476 0)
(0.211429 0.00600279 0)
(0.211869 0.00575366 0)
(0.212251 0.00550874 0)
(0.212581 0.00527387 0)
(0.212867 0.00505264 0)
(0.213117 0.00484685 0)
(0.213336 0.00465694 0)
(0.21353 0.00448244 0)
(0.213702 0.00432231 0)
(0.213855 0.00417522 0)
(0.213991 0.00403975 0)
(0.214112 0.00391451 0)
(0.21422 0.00379822 0)
(0.214314 0.00368974 0)
(0.214396 0.00358811 0)
(0.214466 0.00349248 0)
(0.214524 0.00340218 0)
(0.21457 0.00331663 0)
(0.214605 0.00323534 0)
(0.214628 0.00315791 0)
(0.214639 0.003084 0)
(0.21464 0.00301333 0)
(0.214628 0.00294564 0)
(0.214606 0.00288072 0)
(0.214573 0.00281836 0)
(0.214528 0.0027584 0)
(0.214473 0.00270067 0)
(0.214407 0.00264504 0)
(0.21433 0.00259137 0)
(0.214242 0.00253955 0)
(0.214143 0.00248946 0)
(0.214035 0.002441 0)
(0.213916 0.00239408 0)
(0.213786 0.00234861 0)
(0.213647 0.00230451 0)
(0.213497 0.00226171 0)
(0.213338 0.00222013 0)
(0.213169 0.00217971 0)
(0.212991 0.0021404 0)
(0.212803 0.00210213 0)
(0.212606 0.00206485 0)
(0.2124 0.00202852 0)
(0.212185 0.00199309 0)
(0.211961 0.00195852 0)
(0.211729 0.00192477 0)
(0.211488 0.00189181 0)
(0.211239 0.00185959 0)
(0.210982 0.00182809 0)
(0.210718 0.00179728 0)
(0.210445 0.00176712 0)
(0.210165 0.0017376 0)
(0.209878 0.00170868 0)
(0.209583 0.00168035 0)
(0.209282 0.00165257 0)
(0.208973 0.00162534 0)
(0.208659 0.00159863 0)
(0.208337 0.00157241 0)
(0.20801 0.00154668 0)
(0.207677 0.00152141 0)
(0.207337 0.00149659 0)
(0.206993 0.00147219 0)
(0.206642 0.00144822 0)
(0.206287 0.00142464 0)
(0.205926 0.00140145 0)
(0.205561 0.00137863 0)
(0.20519 0.00135616 0)
(0.204816 0.00133404 0)
(0.204437 0.00131226 0)
(0.204053 0.00129079 0)
(0.203666 0.00126962 0)
(0.203275 0.00124875 0)
(0.202881 0.00122817 0)
(0.202483 0.00120786 0)
(0.202082 0.00118781 0)
(0.201678 0.00116801 0)
(0.201271 0.00114846 0)
(0.200862 0.00112914 0)
(0.20045 0.00111005 0)
(0.200036 0.00109119 0)
(0.199619 0.00107255 0)
(0.199201 0.00105415 0)
(0.198781 0.00103603 0)
(0.198361 0.00101833 0)
(0.197939 0.00100133 0)
(0.19752 0.00098542 0)
(0.197113 0.000969035 0)
(0.196639 0.000932317 0)
(0.200147 0.00145748 0)
(0.20063 0.00282779 0)
(0.201417 0.00395272 0)
(0.202354 0.00480391 0)
(0.203321 0.00543064 0)
(0.204275 0.00587977 0)
(0.205204 0.00617609 0)
(0.206093 0.0063392 0)
(0.206928 0.00639182 0)
(0.207698 0.00635692 0)
(0.208399 0.00625506 0)
(0.209031 0.0061042 0)
(0.209595 0.00592008 0)
(0.210096 0.00571612 0)
(0.210539 0.00550317 0)
(0.210932 0.00528958 0)
(0.211281 0.00508133 0)
(0.211592 0.0048824 0)
(0.211873 0.0046951 0)
(0.212128 0.00452048 0)
(0.212362 0.00435865 0)
(0.212579 0.00420913 0)
(0.212781 0.00407106 0)
(0.212971 0.00394342 0)
(0.213151 0.00382513 0)
(0.213321 0.00371515 0)
(0.213484 0.00361254 0)
(0.213638 0.00351646 0)
(0.213785 0.00342616 0)
(0.213925 0.00334102 0)
(0.214058 0.00326051 0)
(0.214185 0.00318418 0)
(0.214305 0.00311164 0)
(0.214418 0.00304256 0)
(0.214524 0.00297667 0)
(0.214624 0.0029137 0)
(0.214716 0.00285345 0)
(0.214803 0.00279572 0)
(0.214882 0.00274033 0)
(0.214954 0.00268713 0)
(0.21502 0.00263597 0)
(0.215078 0.00258673 0)
(0.21513 0.00253927 0)
(0.215174 0.00249349 0)
(0.215212 0.00244928 0)
(0.215242 0.00240655 0)
(0.215265 0.0023652 0)
(0.215281 0.00232516 0)
(0.21529 0.00228634 0)
(0.215292 0.00224868 0)
(0.215286 0.00221211 0)
(0.215273 0.00217656 0)
(0.215253 0.00214199 0)
(0.215226 0.00210833 0)
(0.215191 0.00207553 0)
(0.21515 0.00204356 0)
(0.215101 0.00201235 0)
(0.215044 0.00198189 0)
(0.214981 0.00195212 0)
(0.21491 0.00192301 0)
(0.214833 0.00189454 0)
(0.214748 0.00186666 0)
(0.214656 0.00183935 0)
(0.214558 0.00181258 0)
(0.214452 0.00178634 0)
(0.214339 0.00176058 0)
(0.21422 0.00173529 0)
(0.214094 0.00171046 0)
(0.213961 0.00168605 0)
(0.213822 0.00166206 0)
(0.213676 0.00163845 0)
(0.213524 0.00161522 0)
(0.213366 0.00159235 0)
(0.213201 0.00156982 0)
(0.21303 0.00154762 0)
(0.212853 0.00152574 0)
(0.21267 0.00150415 0)
(0.212481 0.00148285 0)
(0.212286 0.00146182 0)
(0.212086 0.00144106 0)
(0.21188 0.00142054 0)
(0.211669 0.00140026 0)
(0.211452 0.0013802 0)
(0.21123 0.00136036 0)
(0.211003 0.00134072 0)
(0.210771 0.00132128 0)
(0.210534 0.00130203 0)
(0.210293 0.00128295 0)
(0.210047 0.00126403 0)
(0.209796 0.00124529 0)
(0.209541 0.00122669 0)
(0.209282 0.00120825 0)
(0.209019 0.00118996 0)
(0.208752 0.00117182 0)
(0.208481 0.00115385 0)
(0.208207 0.0011361 0)
(0.20793 0.00111855 0)
(0.207654 0.00110068 0)
(0.207384 0.00107861 0)
(0.207061 0.00103134 0)
(0.200113 0.00123656 0)
(0.200487 0.00242 0)
(0.201115 0.00343238 0)
(0.201891 0.00423507 0)
(0.202721 0.00484734 0)
(0.203559 0.00530021 0)
(0.204386 0.00561496 0)
(0.205187 0.00580831 0)
(0.205948 0.00589862 0)
(0.206658 0.00590523 0)
(0.207311 0.00584618 0)
(0.207906 0.00573758 0)
(0.208443 0.00559366 0)
(0.208925 0.0054267 0)
(0.209358 0.00524686 0)
(0.209745 0.00506218 0)
(0.210092 0.00487865 0)
(0.210407 0.00470051 0)
(0.210693 0.00453045 0)
(0.210955 0.00437 0)
(0.211199 0.00421978 0)
(0.211427 0.00407979 0)
(0.211642 0.0039496 0)
(0.211847 0.00382857 0)
(0.212043 0.00371591 0)
(0.212232 0.00361085 0)
(0.212415 0.00351262 0)
(0.212592 0.00342052 0)
(0.212764 0.00333393 0)
(0.212932 0.00325229 0)
(0.213096 0.00317513 0)
(0.213255 0.00310205 0)
(0.213411 0.00303268 0)
(0.213562 0.00296672 0)
(0.21371 0.0029039 0)
(0.213855 0.00284398 0)
(0.213995 0.00278676 0)
(0.214132 0.00273204 0)
(0.214265 0.00267965 0)
(0.214394 0.00262945 0)
(0.21452 0.00258128 0)
(0.214641 0.00253502 0)
(0.214759 0.00249055 0)
(0.214873 0.00244775 0)
(0.214982 0.00240652 0)
(0.215088 0.00236676 0)
(0.215189 0.00232839 0)
(0.215286 0.00229132 0)
(0.215379 0.00225546 0)
(0.215468 0.00222076 0)
(0.215552 0.00218713 0)
(0.215631 0.00215452 0)
(0.215706 0.00212286 0)
(0.215777 0.00209211 0)
(0.215843 0.0020622 0)
(0.215904 0.0020331 0)
(0.21596 0.00200474 0)
(0.216011 0.0019771 0)
(0.216058 0.00195014 0)
(0.216099 0.0019238 0)
(0.216136 0.00189807 0)
(0.216167 0.0018729 0)
(0.216194 0.00184827 0)
(0.216215 0.00182415 0)
(0.216232 0.00180051 0)
(0.216243 0.00177732 0)
(0.216249 0.00175457 0)
(0.21625 0.00173222 0)
(0.216245 0.00171026 0)
(0.216236 0.00168867 0)
(0.216221 0.00166742 0)
(0.216201 0.0016465 0)
(0.216176 0.0016259 0)
(0.216145 0.00160558 0)
(0.216109 0.00158555 0)
(0.216068 0.00156578 0)
(0.216022 0.00154626 0)
(0.215971 0.00152697 0)
(0.215915 0.00150791 0)
(0.215853 0.00148905 0)
(0.215786 0.00147039 0)
(0.215715 0.0014519 0)
(0.215638 0.00143359 0)
(0.215556 0.00141544 0)
(0.215469 0.00139744 0)
(0.215377 0.00137958 0)
(0.215281 0.00136185 0)
(0.215179 0.00134424 0)
(0.215073 0.00132674 0)
(0.214962 0.00130934 0)
(0.214846 0.00129205 0)
(0.214726 0.00127485 0)
(0.214601 0.00125774 0)
(0.214471 0.0012407 0)
(0.214338 0.00122374 0)
(0.2142 0.00120678 0)
(0.214059 0.00118958 0)
(0.213916 0.00117098 0)
(0.213774 0.00114627 0)
(0.213595 0.00109727 0)
(0.200088 0.00105899 0)
(0.200384 0.00208518 0)
(0.20089 0.00298985 0)
(0.201534 0.00373483 0)
(0.202243 0.00432239 0)
(0.202976 0.0047704 0)
(0.20371 0.00509505 0)
(0.20443 0.00531013 0)
(0.205122 0.0054304 0)
(0.205774 0.00547177 0)
(0.206381 0.00544973 0)
(0.206939 0.00537846 0)
(0.207449 0.00527068 0)
(0.207911 0.0051375 0)
(0.208329 0.00498834 0)
(0.208707 0.0048308 0)
(0.209049 0.0046708 0)
(0.20936 0.00451266 0)
(0.209645 0.00435937 0)
(0.209907 0.00421282 0)
(0.210152 0.00407405 0)
(0.210381 0.00394346 0)
(0.210599 0.003821 0)
(0.210806 0.00370637 0)
(0.211005 0.00359907 0)
(0.211198 0.00349855 0)
(0.211384 0.00340425 0)
(0.211566 0.0033156 0)
(0.211744 0.00323209 0)
(0.211918 0.00315327 0)
(0.212088 0.00307872 0)
(0.212256 0.00300809 0)
(0.212421 0.00294104 0)
(0.212583 0.0028773 0)
(0.212743 0.00281663 0)
(0.212901 0.00275881 0)
(0.213056 0.00270363 0)
(0.21321 0.00265092 0)
(0.213361 0.00260052 0)
(0.21351 0.00255228 0)
(0.213657 0.00250607 0)
(0.213801 0.00246176 0)
(0.213944 0.00241922 0)
(0.214084 0.00237836 0)
(0.214223 0.00233908 0)
(0.214359 0.00230127 0)
(0.214493 0.00226485 0)
(0.214625 0.00222973 0)
(0.214754 0.00219585 0)
(0.214881 0.00216312 0)
(0.215006 0.00213148 0)
(0.215128 0.00210086 0)
(0.215248 0.00207121 0)
(0.215365 0.00204247 0)
(0.21548 0.00201458 0)
(0.215592 0.0019875 0)
(0.215701 0.00196117 0)
(0.215808 0.00193557 0)
(0.215912 0.00191064 0)
(0.216013 0.00188635 0)
(0.21611 0.00186267 0)
(0.216205 0.00183955 0)
(0.216297 0.00181696 0)
(0.216386 0.00179489 0)
(0.216472 0.00177329 0)
(0.216554 0.00175214 0)
(0.216633 0.00173142 0)
(0.216709 0.0017111 0)
(0.216782 0.00169116 0)
(0.216851 0.00167157 0)
(0.216916 0.00165233 0)
(0.216978 0.00163339 0)
(0.217037 0.00161476 0)
(0.217092 0.00159641 0)
(0.217143 0.00157832 0)
(0.217191 0.00156048 0)
(0.217235 0.00154287 0)
(0.217276 0.00152547 0)
(0.217312 0.00150828 0)
(0.217345 0.00149127 0)
(0.217374 0.00147443 0)
(0.217399 0.00145776 0)
(0.21742 0.00144123 0)
(0.217438 0.00142483 0)
(0.217451 0.00140856 0)
(0.217461 0.0013924 0)
(0.217467 0.00137635 0)
(0.217468 0.00136039 0)
(0.217466 0.00134451 0)
(0.21746 0.00132871 0)
(0.21745 0.00131298 0)
(0.217435 0.00129731 0)
(0.217417 0.00128169 0)
(0.217395 0.0012661 0)
(0.217369 0.0012505 0)
(0.217339 0.00123476 0)
(0.217306 0.00121845 0)
(0.21727 0.00120019 0)
(0.217232 0.00117555 0)
(0.217171 0.00113134 0)
(0.20007 0.000913473 0)
(0.200308 0.0018067 0)
(0.200719 0.00261204 0)
(0.201255 0.00329569 0)
(0.20186 0.00385133 0)
(0.202498 0.00428729 0)
(0.203148 0.00461459 0)
(0.203793 0.00484397 0)
(0.20442 0.0049871 0)
(0.205018 0.00505686 0)
(0.205581 0.00506623 0)
(0.206104 0.0050275 0)
(0.206586 0.00495187 0)
(0.207028 0.00484932 0)
(0.207431 0.00472842 0)
(0.207799 0.00459632 0)
(0.208134 0.0044587 0)
(0.208441 0.00431989 0)
(0.208723 0.00418306 0)
(0.208984 0.00405036 0)
(0.209228 0.00392313 0)
(0.209457 0.00380212 0)
(0.209675 0.00368761 0)
(0.209882 0.00357959 0)
(0.210081 0.00347782 0)
(0.210273 0.00338198 0)
(0.210459 0.00329167 0)
(0.210641 0.00320649 0)
(0.210818 0.00312602 0)
(0.210992 0.00304991 0)
(0.211163 0.00297781 0)
(0.211331 0.00290941 0)
(0.211496 0.00284443 0)
(0.21166 0.00278262 0)
(0.211821 0.00272377 0)
(0.211981 0.00266767 0)
(0.212138 0.00261414 0)
(0.212295 0.00256301 0)
(0.212449 0.00251415 0)
(0.212602 0.0024674 0)
(0.212754 0.00242264 0)
(0.212905 0.00237974 0)
(0.213054 0.00233861 0)
(0.213202 0.00229913 0)
(0.213348 0.00226121 0)
(0.213494 0.00222475 0)
(0.213638 0.00218968 0)
(0.213781 0.00215591 0)
(0.213922 0.00212336 0)
(0.214063 0.00209197 0)
(0.214202 0.00206167 0)
(0.21434 0.00203239 0)
(0.214476 0.00200408 0)
(0.214612 0.00197669 0)
(0.214745 0.00195016 0)
(0.214878 0.00192444 0)
(0.215009 0.00189949 0)
(0.215139 0.00187526 0)
(0.215267 0.00185172 0)
(0.215393 0.00182882 0)
(0.215519 0.00180653 0)
(0.215642 0.00178482 0)
(0.215764 0.00176366 0)
(0.215884 0.001743 0)
(0.216003 0.00172284 0)
(0.21612 0.00170313 0)
(0.216235 0.00168385 0)
(0.216348 0.00166498 0)
(0.216459 0.0016465 0)
(0.216569 0.00162837 0)
(0.216676 0.00161059 0)
(0.216782 0.00159313 0)
(0.216885 0.00157598 0)
(0.216986 0.00155911 0)
(0.217086 0.0015425 0)
(0.217183 0.00152614 0)
(0.217277 0.00151001 0)
(0.21737 0.0014941 0)
(0.21746 0.00147839 0)
(0.217548 0.00146287 0)
(0.217633 0.00144752 0)
(0.217716 0.00143233 0)
(0.217797 0.00141728 0)
(0.217875 0.00140236 0)
(0.21795 0.00138756 0)
(0.218023 0.00137288 0)
(0.218093 0.00135829 0)
(0.21816 0.00134379 0)
(0.218225 0.00132937 0)
(0.218287 0.00131502 0)
(0.218346 0.00130074 0)
(0.218402 0.0012865 0)
(0.218455 0.00127231 0)
(0.218505 0.00125813 0)
(0.218553 0.00124389 0)
(0.218597 0.00122942 0)
(0.218639 0.00121424 0)
(0.218677 0.00119702 0)
(0.218712 0.00117435 0)
(0.218737 0.0011384 0)
(0.200057 0.000792342 0)
(0.20025 0.00157241 0)