/*--------------------------------*- C++ -*----------------------------------*\
| =========                 |                                                 |
| \\      /  F ield         | OpenFOAM: The Open Source CFD Toolbox           |
|  \\    /   O peration     | Version:  2.3.0                                 |
|   \\  /    A nd           | Web:      www.OpenFOAM.org                      |
|    \\/     M anipulation  |                                                 |
\*---------------------------------------------------------------------------*/
FoamFile
{
    version     2.0;
    format      ascii;
    class       surfaceScalarField;
    location    "0.3";
    object      phi;
}
// * * * * * * * * * * * * * * * * * * * * * * * * * * * * * * * * * * * * * //

dimensions      [0 3 -1 0 0 0 0];

internalField   nonuniform List<scalar> 
5644
(
2.94437e-08
2.7107e-09
-3.21544e-08
2.60285e-08
3.41512e-09
2.26136e-08
3.41491e-09
1.94447e-08
3.16888e-09
1.65542e-08
2.89052e-09
1.4008e-08
2.54618e-09
1.18937e-08
2.1143e-09
1.02345e-08
1.65928e-09
9.00308e-09
1.23139e-09
8.12424e-09
8.78837e-10
7.50553e-09
6.18708e-10
7.06425e-09
4.41281e-10
6.73719e-09
3.27067e-10
6.48018e-09
2.57009e-10
6.26349e-09
2.16683e-10
6.06928e-09
1.94209e-10
5.88849e-09
1.80794e-10
5.71742e-09
1.7107e-10
5.55506e-09
1.62355e-10
5.40144e-09
1.53624e-10
5.25674e-09
1.44704e-10
5.12097e-09
1.35767e-10
4.9939e-09
1.27067e-10
4.87509e-09
1.18811e-10
4.76396e-09
1.11131e-10
4.65988e-09
1.0408e-10
4.56222e-09
9.76588e-11
4.47039e-09
9.18279e-11
4.38387e-09
8.65287e-11
4.30217e-09
8.16964e-11
4.2249e-09
7.72661e-11
4.15172e-09
7.31857e-11
4.0823e-09
6.94137e-11
4.0164e-09
6.59065e-11
3.95377e-09
6.26248e-11
3.89423e-09
5.95379e-11
3.83761e-09
5.66217e-11
3.78375e-09
5.38625e-11
3.7325e-09
5.12483e-11
3.68374e-09
4.87622e-11
3.63735e-09
4.63886e-11
3.59324e-09
4.41128e-11
3.55132e-09
4.19213e-11
3.51151e-09
3.98103e-11
3.47373e-09
3.77787e-11
3.43791e-09
3.58182e-11
3.40399e-09
3.39185e-11
3.37192e-09
3.20738e-11
3.34164e-09
3.02789e-11
3.31311e-09
2.85279e-11
3.2863e-09
2.68117e-11
3.26117e-09
2.5127e-11
3.2377e-09
2.34735e-11
3.21585e-09
2.18501e-11
3.19559e-09
2.02544e-11
3.17691e-09
1.86872e-11
3.15977e-09
1.7138e-11
3.14417e-09
1.55944e-11
3.13012e-09
1.40525e-11
3.11761e-09
1.25172e-11
3.10662e-09
1.09852e-11
3.09716e-09
9.46092e-12
3.08921e-09
7.95332e-12
3.08273e-09
6.47264e-12
3.07772e-09
5.01694e-12
3.07411e-09
3.60468e-12
3.07184e-09
2.26734e-12
3.0708e-09
1.0431e-12
3.07084e-09
-3.61512e-14
3.07173e-09
-8.938e-13
3.07327e-09
-1.54221e-12
3.07525e-09
-1.98093e-12
3.0775e-09
-2.24226e-12
3.07983e-09
-2.33784e-12
3.08214e-09
-2.30822e-12
3.08429e-09
-2.14994e-12
3.0862e-09
-1.91211e-12
3.08781e-09
-1.60351e-12
3.08911e-09
-1.30642e-12
3.09014e-09
-1.02235e-12
3.09096e-09
-8.2615e-13
3.09163e-09
-6.62553e-13
3.09221e-09
-5.89006e-13
3.09272e-09
-5.06636e-13
3.09322e-09
-4.96238e-13
3.09365e-09
-4.30233e-13
3.09408e-09
-4.31376e-13
3.09441e-09
-3.32303e-13
3.09472e-09
-3.10724e-13
3.09488e-09
-1.59535e-13
3.09502e-09
-1.41736e-13
3.09501e-09
1.63599e-14
3.09504e-09
-3.06033e-14
3.09493e-09
1.06617e-13
3.09493e-09
4.69309e-15
3.09475e-09
1.73431e-13
3.09466e-09
9.50025e-14
3.09431e-09
3.52058e-13
3.09398e-09
3.29937e-13
7.05391e-13
3.47428e-08
2.41141e-09
-3.44435e-08
3.46058e-08
3.55211e-09
3.39459e-08
4.07489e-09
3.29944e-08
4.12033e-09
3.1872e-08
4.0129e-09
3.06096e-08
3.80866e-09
2.92338e-08
3.4901e-09
2.78141e-08
3.07893e-09
2.64212e-08
2.62428e-09
2.51078e-08
2.19227e-09
2.3899e-08
1.82754e-09
2.27991e-08
1.54111e-09
2.18039e-08
1.32227e-09
2.09093e-08
1.15167e-09
2.01052e-08
1.02072e-09
1.93805e-08
9.18924e-10
1.87242e-08
8.37066e-10
1.81267e-08
7.68562e-10
1.75798e-08
7.09252e-10
1.70768e-08
6.56684e-10
1.6612e-08
6.09457e-10
1.6181e-08
5.66759e-10
1.578e-08
5.28081e-10
1.54058e-08
4.93042e-10
1.50556e-08
4.61316e-10
1.47271e-08
4.32584e-10
1.44182e-08
4.06539e-10
1.41272e-08
3.82876e-10
1.38524e-08
3.61305e-10
1.35925e-08
3.41558e-10
1.33464e-08
3.23393e-10
1.3113e-08
3.0661e-10
1.28914e-08
2.91045e-10
1.26807e-08
2.76542e-10
1.24804e-08
2.6296e-10
1.22897e-08
2.50184e-10
1.21082e-08
2.38122e-10
1.19354e-08
2.26706e-10
1.17708e-08
2.15879e-10
1.16139e-08
2.05573e-10
1.14646e-08
1.95728e-10
1.13224e-08
1.86288e-10
1.11871e-08
1.77206e-10
1.10585e-08
1.68454e-10
1.09363e-08
1.60013e-10
1.08202e-08
1.5185e-10
1.07102e-08
1.43929e-10
1.06061e-08
1.36224e-10
1.05076e-08
1.2871e-10
1.04148e-08
1.21365e-10
1.03275e-08
1.14162e-10
1.02455e-08
1.07087e-10
1.01688e-08
1.00131e-10
1.00974e-08
9.32881e-11
1.00311e-08
8.6549e-11
9.96989e-09
7.99093e-11
9.91368e-09
7.33423e-11
9.86246e-09
6.68216e-11
9.81616e-09
6.03463e-11
9.77474e-09
5.39337e-11
9.73814e-09
4.7591e-11
9.70625e-09
4.13449e-11
9.67897e-09
3.52361e-11
9.65614e-09
2.93076e-11
9.63756e-09
2.35934e-11
9.62299e-09
1.81709e-11
9.61212e-09
1.31453e-11
9.60452e-09
8.64138e-12
9.59973e-09
4.74733e-12
9.59727e-09
1.57011e-12
9.59653e-09
-7.99497e-13
9.59703e-09
-2.48408e-12
9.59833e-09
-3.53685e-12
9.60003e-09
-4.03778e-12
9.60183e-09
-4.11391e-12
9.60349e-09
-3.81228e-12
9.60486e-09
-3.27427e-12
9.60582e-09
-2.56692e-12
9.6064e-09
-1.88239e-12
9.60662e-09
-1.24881e-12
9.60661e-09
-8.1518e-13
9.60642e-09
-4.72277e-13
9.60615e-09
-3.19522e-13
9.6058e-09
-1.54906e-13
9.60543e-09
-1.27364e-13
9.60498e-09
2.05449e-14
9.6045e-09
4.76578e-14
9.60388e-09
2.83618e-13
9.6032e-09
3.72191e-13
9.60232e-09
7.22774e-13
9.60139e-09
7.92265e-13
9.60026e-09
1.14382e-12
9.59917e-09
1.05959e-12
9.59791e-09
1.36e-12
9.59676e-09
1.16093e-12
9.5954e-09
1.53276e-12
9.59408e-09
1.41112e-12
9.59249e-09
1.94131e-12
9.59081e-09
2.00894e-12
2.70961e-12
3.62839e-08
2.27397e-09
-3.61464e-08
3.66814e-08
3.15462e-09
3.69309e-08
3.82539e-09
3.69907e-08
4.06046e-09
3.69295e-08
4.07412e-09
3.67513e-08
3.9869e-09
3.64303e-08
3.81105e-09
3.59685e-08
3.54078e-09
3.53921e-08
3.20063e-09
3.47408e-08
2.84361e-09
3.40497e-08
2.51864e-09
3.33421e-08
2.24874e-09
3.26321e-08
2.03227e-09
3.19269e-08
1.85683e-09
3.12337e-08
1.71394e-09
3.05568e-08
1.5958e-09
2.98986e-08
1.49529e-09
2.92602e-08
1.40693e-09
2.86424e-08
1.32708e-09
2.80455e-08
1.25357e-09
2.74698e-08
1.18518e-09
2.69153e-08
1.12123e-09
2.6382e-08
1.06138e-09
2.58697e-08
1.00537e-09
2.53779e-08
9.5304e-10
2.49063e-08
9.04185e-10
2.44543e-08
8.586e-10
2.40211e-08
8.16052e-10
2.36061e-08
7.76302e-10
2.32086e-08
7.39108e-10
2.28277e-08
7.04231e-10
2.24629e-08
6.7146e-10
2.21133e-08
6.4061e-10
2.17783e-08
6.11497e-10
2.14574e-08
5.83947e-10
2.11497e-08
5.57801e-10
2.08549e-08
5.3292e-10
2.05725e-08
5.09199e-10
2.03018e-08
4.86544e-10
2.00425e-08
4.64853e-10
1.97942e-08
4.44023e-10
1.95565e-08
4.23956e-10
1.93292e-08
4.04568e-10
1.91118e-08
3.85803e-10
1.89042e-08
3.67619e-10
1.87061e-08
3.49957e-10
1.85173e-08
3.32751e-10
1.83376e-08
3.15948e-10
1.81668e-08
2.99506e-10
1.80048e-08
2.83378e-10
1.78514e-08
2.67518e-10
1.77066e-08
2.51898e-10
1.75702e-08
2.36499e-10
1.74422e-08
2.21298e-10
1.73225e-08
2.06287e-10
1.72109e-08
1.91459e-10
1.71075e-08
1.76777e-10
1.70121e-08
1.62199e-10
1.69247e-08
1.47736e-10
1.68452e-08
1.33421e-10
1.67736e-08
1.19285e-10
1.67095e-08
1.05389e-10
1.66529e-08
9.18294e-11
1.66035e-08
7.87004e-11
1.6561e-08
6.6095e-11
1.6525e-08
5.416e-11
1.64951e-08
4.30964e-11
1.64706e-08
3.31206e-11
1.64509e-08
2.44232e-11
1.64353e-08
1.71619e-11
1.64231e-08
1.14253e-11
1.64135e-08
7.1134e-12
1.64059e-08
4.08655e-12
1.63997e-08
2.16881e-12
1.63944e-08
1.15163e-12
1.63897e-08
8.93983e-13
1.63853e-08
1.16766e-12
1.63809e-08
1.79132e-12
1.63765e-08
2.47752e-12
1.63722e-08
3.11033e-12
1.63679e-08
3.50179e-12
1.63636e-08
3.75191e-12
1.63596e-08
3.77837e-12
1.63556e-08
3.81204e-12
1.63517e-08
3.7163e-12
1.6348e-08
3.78006e-12
1.63443e-08
3.75155e-12
1.63406e-08
4.00491e-12
1.63368e-08
4.13036e-12
1.63329e-08
4.58926e-12
1.6329e-08
4.72495e-12
1.6325e-08
5.18685e-12
1.63209e-08
5.10125e-12
1.63168e-08
5.45564e-12
1.63128e-08
5.20212e-12
1.63087e-08
5.60167e-12
1.63046e-08
5.49193e-12
1.63005e-08
6.03038e-12
1.62963e-08
6.23263e-12
6.98728e-12
3.78392e-08
2.21774e-09
-3.77829e-08
3.81352e-08
2.85856e-09
3.84969e-08
3.46372e-09
3.87773e-08
3.78011e-09
3.89918e-08
3.85956e-09
3.91596e-08
3.81916e-09
3.92621e-08
3.70854e-09
3.92758e-08
3.52702e-09
3.91929e-08
3.28354e-09
3.90259e-08
3.01061e-09
3.87963e-08
2.74823e-09
3.85235e-08
2.52154e-09
3.82195e-08
2.33627e-09
3.78904e-08
2.18601e-09
3.75417e-08
2.06256e-09
3.71784e-08
1.95918e-09
3.68034e-08
1.87025e-09
3.6419e-08
1.79135e-09
3.60268e-08
1.7193e-09
3.56283e-08
1.65204e-09
3.52251e-08
1.58837e-09
3.48187e-08
1.52765e-09
3.44105e-08
1.46954e-09
3.4002e-08
1.41387e-09
3.35945e-08
1.36056e-09
3.31892e-08
1.30951e-09
3.27871e-08
1.26065e-09
3.23893e-08
1.21386e-09
3.19966e-08
1.16902e-09
3.16097e-08
1.12602e-09
3.12292e-08
1.0847e-09
3.08558e-08
1.04495e-09
3.04897e-08
1.00667e-09
3.01314e-08
9.69752e-10
2.97813e-08
9.34087e-10
2.94395e-08
8.9957e-10
2.91063e-08
8.66113e-10
2.87819e-08
8.33647e-10
2.84663e-08
8.02111e-10
2.81597e-08
7.71434e-10
2.78622e-08
7.41544e-10
2.75738e-08
7.12357e-10
2.72946e-08
6.83799e-10
2.70246e-08
6.55826e-10
2.67638e-08
6.28403e-10
2.65123e-08
6.01478e-10
2.627e-08
5.74992e-10
2.60371e-08
5.48889e-10
2.58135e-08
5.23127e-10
2.55992e-08
4.97656e-10
2.53943e-08
4.72429e-10
2.51987e-08
4.47419e-10
2.50126e-08
4.22609e-10
2.4836e-08
3.97958e-10
2.46688e-08
3.73467e-10
2.45111e-08
3.49145e-10
2.43629e-08
3.24963e-10
2.42242e-08
3.00877e-10
2.40951e-08
2.76927e-10
2.39753e-08
2.53161e-10
2.3865e-08
2.29642e-10
2.37639e-08
2.06457e-10
2.36719e-08
1.83776e-10
2.35889e-08
1.61746e-10
2.35144e-08
1.40544e-10
2.34482e-08
1.20376e-10
2.33898e-08
1.01549e-10
2.33386e-08
8.43462e-11
2.32939e-08
6.90741e-11
2.32551e-08
5.59329e-11
2.32215e-08
4.50699e-11
2.31922e-08
3.63672e-11
2.31666e-08
2.96771e-11
2.31441e-08
2.47301e-11
2.31239e-08
2.13107e-11
2.31057e-08
1.91422e-11
2.30889e-08
1.79707e-11
2.30732e-08
1.74259e-11
2.30585e-08
1.71837e-11
2.30447e-08
1.69407e-11
2.30316e-08
1.65637e-11
2.30194e-08
1.60272e-11
2.30077e-08
1.53938e-11
2.29968e-08
1.47654e-11
2.29863e-08
1.41804e-11
2.29764e-08
1.3748e-11
2.29667e-08
1.34302e-11
2.29573e-08
1.33697e-11
2.2948e-08
1.34126e-11
2.29389e-08
1.37101e-11
2.29297e-08
1.39104e-11
2.29207e-08
1.42566e-11
2.29115e-08
1.4291e-11
2.29024e-08
1.44818e-11
2.28932e-08
1.44069e-11
2.28843e-08
1.45554e-11
2.2875e-08
1.47344e-11
2.28662e-08
1.48935e-11
2.2857e-08
1.53865e-11
1.57539e-11
3.94339e-08
2.15852e-09
-3.93747e-08
3.96399e-08
2.65256e-09
3.99578e-08
3.14583e-09
4.02589e-08
3.47902e-09
4.05109e-08
3.60748e-09
4.0731e-08
3.59908e-09
4.09223e-08
3.51726e-09
4.10685e-08
3.38081e-09
4.11549e-08
3.19715e-09
4.11807e-08
2.98485e-09
4.11575e-08
2.77138e-09
4.10995e-08
2.57955e-09
4.10161e-08
2.41971e-09
4.0912e-08
2.29006e-09
4.07906e-08
2.18399e-09
4.06543e-08
2.09541e-09
4.0505e-08
2.01959e-09
4.03435e-08
1.95288e-09
4.01702e-08
1.89255e-09
3.99856e-08
1.83666e-09
3.979e-08
1.78396e-09
3.95839e-08
1.7337e-09
3.93681e-08
1.68543e-09
3.9143e-08
1.6389e-09
3.89097e-08
1.59393e-09
3.86687e-08
1.55043e-09
3.84211e-08
1.50827e-09
3.81676e-08
1.46736e-09
3.79091e-08
1.42758e-09
3.76462e-08
1.38884e-09
3.73799e-08
1.35101e-09
3.71109e-08
1.314e-09
3.68398e-08
1.27774e-09
3.65674e-08
1.24214e-09
3.62943e-08
1.20713e-09
3.60213e-08
1.17264e-09
3.57488e-08
1.13861e-09
3.54774e-08
1.10498e-09
3.52078e-08
1.07173e-09
3.49405e-08
1.0388e-09
3.46759e-08
1.00616e-09
3.44145e-08
9.73755e-10
3.41567e-08
9.41529e-10
3.39031e-08
9.09466e-10
3.36539e-08
8.7755e-10
3.34097e-08
8.45738e-10
3.31707e-08
8.13991e-10
3.29373e-08
7.82269e-10
3.27099e-08
7.50559e-10
3.24887e-08
7.18825e-10
3.22741e-08
6.87042e-10
3.20663e-08
6.55197e-10
3.18656e-08
6.2329e-10
3.16723e-08
5.91269e-10
3.14866e-08
5.5915e-10
3.13088e-08
5.26953e-10
3.11391e-08
4.94685e-10
3.09777e-08
4.62315e-10
3.08246e-08
4.29948e-10
3.06801e-08
3.97664e-10
3.05442e-08
3.65574e-10
3.04169e-08
3.3377e-10
3.02982e-08
3.02494e-10
3.0188e-08
2.71912e-10
3.00862e-08
2.42309e-10
2.99927e-08
2.13929e-10
2.9907e-08
1.87205e-10
2.98289e-08
1.6245e-10
2.97579e-08
1.40115e-10
2.96934e-08
1.20387e-10
2.9635e-08
1.03494e-10
2.95822e-08
8.92252e-11
2.95343e-08
7.75426e-11
2.94909e-08
6.81111e-11
2.94513e-08
6.09127e-11
2.94149e-08
5.55241e-11
2.93811e-08
5.17821e-11
2.93496e-08
4.89525e-11
2.932e-08
4.67567e-11
2.92924e-08
4.4504e-11
2.92667e-08
4.23227e-11
2.92428e-08
3.98846e-11
2.92205e-08
3.77073e-11
2.91998e-08
3.54964e-11
2.91801e-08
3.38269e-11
2.91617e-08
3.22124e-11
2.91438e-08
3.12895e-11
2.91268e-08
3.03823e-11
2.911e-08
3.02306e-11
2.90938e-08
2.98689e-11
2.90776e-08
3.01633e-11
2.9062e-08
2.98695e-11
2.9046e-08
3.02542e-11
2.90307e-08
2.98096e-11
2.90146e-08
3.04726e-11
2.89991e-08
3.00472e-11
2.89825e-08
3.13081e-11
2.89665e-08
3.08863e-11
2.89497e-08
3.22645e-11
3.20694e-11
4.10551e-08
2.08705e-09
-4.09837e-08
4.12164e-08
2.49132e-09
4.14756e-08
2.88663e-09
4.17544e-08
3.20016e-09
4.20029e-08
3.35903e-09
4.22183e-08
3.38364e-09
4.24097e-08
3.32585e-09
4.25724e-08
3.21815e-09
4.26958e-08
3.07375e-09
4.27759e-08
2.90476e-09
4.28185e-08
2.72878e-09
4.2834e-08
2.56407e-09
4.28313e-08
2.42241e-09
4.28155e-08
2.30579e-09
4.27895e-08
2.21004e-09
4.27548e-08
2.13008e-09
4.27127e-08
2.06175e-09
4.26635e-08
2.002e-09
4.26075e-08
1.94857e-09
4.25444e-08
1.89974e-09
4.24741e-08
1.85432e-09
4.23963e-08
1.81151e-09
4.23109e-08
1.77079e-09
4.2218e-08
1.7318e-09
4.21177e-08
1.6943e-09
4.201e-08
1.65812e-09
4.18951e-08
1.62311e-09
4.17734e-08
1.5891e-09
4.1645e-08
1.55596e-09
4.15103e-08
1.52358e-09
4.13695e-08
1.49179e-09
4.1223e-08
1.46048e-09
4.10712e-08
1.42957e-09
4.09144e-08
1.39895e-09
4.0753e-08
1.36853e-09
4.05874e-08
1.33825e-09
4.0418e-08
1.30803e-09
4.02451e-08
1.27781e-09
4.00694e-08
1.24751e-09
3.9891e-08
1.21711e-09
3.97106e-08
1.18657e-09
3.95286e-08
1.15582e-09
3.93453e-08
1.12479e-09
3.91613e-08
1.09349e-09
3.89769e-08
1.06191e-09
3.87927e-08
1.03e-09
3.8609e-08
9.9771e-10
3.84262e-08
9.64995e-10
3.82449e-08
9.31853e-10
3.80655e-08
8.98245e-10
3.78884e-08
8.64173e-10
3.77139e-08
8.29641e-10
3.75425e-08
7.94684e-10
3.73746e-08
7.59232e-10
3.72104e-08
7.23316e-10
3.70504e-08
6.86936e-10
3.6895e-08
6.5011e-10
3.67445e-08
6.12779e-10
3.65994e-08
5.7513e-10
3.64597e-08
5.37294e-10
3.63258e-08
4.99499e-10
3.61977e-08
4.6183e-10
3.60756e-08
4.24593e-10
3.59596e-08
3.8791e-10
3.58498e-08
3.52164e-10
3.57462e-08
3.17558e-10
3.56487e-08
2.84665e-10
3.55574e-08
2.53789e-10
3.54718e-08
2.25639e-10
3.53919e-08
2.00348e-10
3.53171e-08
1.78239e-10
3.52476e-08
1.58769e-10
3.51831e-08
1.42004e-10
3.51238e-08
1.27485e-10
3.50689e-08
1.15775e-10
3.5018e-08
1.06445e-10
3.497e-08
9.97847e-11
3.49245e-08
9.44516e-11
3.4881e-08
9.02674e-11
3.48398e-08
8.56463e-11
3.48009e-08
8.11894e-11
3.47649e-08
7.58928e-11
3.47314e-08
7.12964e-11
3.47005e-08
6.6318e-11
3.46715e-08
6.28121e-11
3.46447e-08
5.90381e-11
3.46188e-08
5.72149e-11
3.45944e-08
5.48151e-11
3.457e-08
5.46405e-11
3.45467e-08
5.30772e-11
3.45231e-08
5.38111e-11
3.45009e-08
5.20752e-11
3.4478e-08
5.31531e-11
3.44567e-08
5.11135e-11
3.4434e-08
5.31414e-11
3.44124e-08
5.16547e-11
3.43886e-08
5.50939e-11
3.4365e-08
5.45057e-11
3.43395e-08
5.77732e-11
5.80933e-11
4.27125e-08
2.0091e-09
-4.26345e-08
4.28515e-08
2.35231e-09
4.30623e-08
2.67584e-09
4.33086e-08
2.95386e-09
4.35435e-08
3.12407e-09
4.37497e-08
3.17745e-09
4.39299e-08
3.14566e-09
4.40854e-08
3.06264e-09
4.42115e-08
2.9477e-09
4.43043e-08
2.81194e-09
4.43661e-08
2.66701e-09
4.44039e-08
2.5262e-09
4.4426e-08
2.40035e-09
4.4438e-08
2.29383e-09
4.44429e-08
2.20509e-09
4.44426e-08
2.13042e-09
4.44381e-08
2.06628e-09
4.443e-08
2.01003e-09
4.44188e-08
1.95982e-09
4.44043e-08
1.91422e-09
4.43864e-08
1.87217e-09
4.4365e-08
1.83293e-09
4.43398e-08
1.79599e-09
4.43107e-08
1.76093e-09
4.42775e-08
1.72748e-09
4.42402e-08
1.69545e-09
4.41986e-08
1.66466e-09
4.41528e-08
1.6349e-09
4.41028e-08
1.60603e-09
4.40484e-08
1.57796e-09
4.39897e-08
1.55047e-09
4.39267e-08
1.52343e-09
4.38596e-08
1.49676e-09
4.37882e-08
1.47033e-09
4.37127e-08
1.44402e-09
4.36332e-08
1.41774e-09
4.35498e-08
1.39145e-09
4.34625e-08
1.36505e-09
4.33716e-08
1.33841e-09
4.32773e-08
1.31147e-09
4.31796e-08
1.28424e-09
4.30788e-08
1.25661e-09
4.29751e-08
1.22846e-09
4.28688e-08
1.19978e-09
4.27601e-08
1.17061e-09
4.26493e-08
1.14088e-09
4.25365e-08
1.1105e-09
4.24221e-08
1.0794e-09
4.23063e-08
1.04759e-09
4.21896e-08
1.01499e-09
4.20722e-08
9.81587e-10
4.19544e-08
9.47391e-10
4.18366e-08
9.1249e-10
4.17191e-08
8.76788e-10
4.1602e-08
8.40351e-10
4.14858e-08
8.03157e-10
4.13707e-08
7.65241e-10
4.1257e-08
7.26425e-10
4.11452e-08
6.86903e-10
4.10357e-08
6.46795e-10
4.09287e-08
6.06514e-10
4.08244e-08
5.66151e-10
4.07229e-08
5.26123e-10
4.06243e-08
4.86451e-10
4.05288e-08
4.47659e-10
4.04366e-08
4.09797e-10
4.03477e-08
3.73526e-10
4.02626e-08
3.38957e-10
4.0181e-08
3.07176e-10
4.01031e-08
2.78329e-10
4.00282e-08
2.53074e-10
3.99567e-08
2.30277e-10
3.98888e-08
2.09934e-10
3.98253e-08
1.90991e-10
3.97662e-08
1.74825e-10
3.97115e-08
1.61174e-10
3.96597e-08
1.51594e-10
3.961e-08
1.44159e-10
3.95611e-08
1.39115e-10
3.95136e-08
1.33202e-10
3.94672e-08
1.27571e-10
3.94234e-08
1.19678e-10
3.9382e-08
1.12714e-10
3.93442e-08
1.04119e-10
3.93088e-08
9.81878e-11
3.92768e-08
9.1017e-11
3.92461e-08
8.7954e-11
3.92177e-08
8.31867e-11
3.91889e-08
8.35021e-11
3.91616e-08
8.03612e-11
3.91328e-08
8.25935e-11
3.91061e-08
7.88179e-11
3.90779e-08
8.13074e-11
3.90525e-08
7.64742e-11
3.90256e-08
8.01125e-11
3.90004e-08
7.68363e-11
3.89726e-08
8.28597e-11
3.89439e-08
8.32824e-11
3.89126e-08
8.90455e-11
9.28733e-11
4.44125e-08
1.93028e-09
-4.43337e-08
4.45377e-08
2.22711e-09
4.47141e-08
2.49946e-09
4.49277e-08
2.74023e-09
4.51439e-08
2.90789e-09
4.534e-08
2.98133e-09
4.55107e-08
2.975e-09
4.56574e-08
2.91589e-09
4.57796e-08
2.82552e-09
4.58751e-08
2.71646e-09
4.59443e-08
2.59782e-09
4.59915e-08
2.479e-09
4.60231e-08
2.36872e-09
4.60448e-08
2.27214e-09
4.606e-08
2.18988e-09
4.60707e-08
2.11976e-09
4.60779e-08
2.059e-09
4.60827e-08
2.0053e-09
4.60854e-08
1.9571e-09
4.60863e-08
1.91326e-09
4.60856e-08
1.87288e-09
4.60833e-08
1.8353e-09
4.60792e-08
1.80009e-09
4.60733e-08
1.76683e-09
4.60655e-08
1.73521e-09
4.60559e-08
1.70505e-09
4.60444e-08
1.67621e-09
4.60309e-08
1.64842e-09
4.60153e-08
1.62156e-09
4.59977e-08
1.59556e-09
4.5978e-08
1.57022e-09
4.59561e-08
1.54535e-09
4.59319e-08
1.52089e-09
4.59055e-08
1.49674e-09
4.58768e-08
1.47275e-09
4.58457e-08
1.44878e-09
4.58123e-08
1.42486e-09
4.57765e-08
1.4009e-09
4.57382e-08
1.3767e-09
4.56975e-08
1.35215e-09
4.56544e-08
1.32732e-09
4.56089e-08
1.30211e-09
4.55611e-08
1.27632e-09
4.5511e-08
1.24989e-09
4.54586e-08
1.22293e-09
4.54042e-08
1.19536e-09
4.53476e-08
1.16709e-09
4.5289e-08
1.13798e-09
4.52285e-08
1.1081e-09
4.51662e-08
1.07728e-09
4.51023e-08
1.04551e-09
4.50369e-08
1.01275e-09
4.49703e-08
9.79139e-10
4.49025e-08
9.44555e-10
4.48337e-08
9.09109e-10
4.47641e-08
8.72761e-10
4.46937e-08
8.35649e-10
4.46227e-08
7.9747e-10
4.45512e-08
7.58357e-10
4.44798e-08
7.18265e-10
4.44085e-08
6.77787e-10
4.43376e-08
6.36995e-10
4.42673e-08
5.96461e-10
4.41977e-08
5.5605e-10
4.41288e-08
5.16543e-10
4.40608e-08
4.77838e-10
4.39936e-08
4.40725e-10
4.39277e-08
4.04855e-10
4.38632e-08
3.71624e-10
4.38005e-08
3.41107e-10
4.37389e-08
3.1467e-10
4.36785e-08
2.906e-10
4.36196e-08
2.68854e-10
4.35635e-08
2.47124e-10
4.35108e-08
2.27463e-10
4.34625e-08
2.09494e-10
4.34173e-08
1.96866e-10
4.33741e-08
1.87324e-10
4.33308e-08
1.82433e-10
4.32873e-08
1.76707e-10
4.32428e-08
1.72087e-10
4.31992e-08
1.63229e-10
4.31565e-08
1.5545e-10
4.31171e-08
1.43485e-10
4.308e-08
1.35325e-10
4.30473e-08
1.23644e-10
4.30163e-08
1.18961e-10
4.2989e-08
1.1052e-10
4.29607e-08
1.11749e-10
4.29345e-08
1.06613e-10
4.29052e-08
1.11922e-10
4.28778e-08
1.0614e-10
4.28478e-08
1.11336e-10
4.28212e-08
1.03101e-10
4.27932e-08
1.08106e-10
4.27675e-08
1.02495e-10
4.27405e-08
1.09931e-10
4.27107e-08
1.1304e-10
4.26793e-08
1.20498e-10
1.3212e-10
4.61595e-08
1.8534e-09
-4.60826e-08
4.62738e-08
2.11279e-09
4.64266e-08
2.34663e-09
4.66117e-08
2.55518e-09
4.6807e-08
2.71257e-09
4.69911e-08
2.79725e-09
4.71536e-08
2.81253e-09
4.72932e-08
2.77624e-09
4.74109e-08
2.70786e-09
4.75062e-08
2.62112e-09
4.75793e-08
2.52471e-09
4.76326e-08
2.42575e-09
4.76705e-08
2.33081e-09
4.76979e-08
2.24471e-09
4.77184e-08
2.16936e-09
4.77341e-08
2.10404e-09
4.77463e-08
2.04682e-09
4.77558e-08
1.99579e-09
4.77633e-08
1.94962e-09
4.77692e-08
1.9074e-09
4.77737e-08
1.86835e-09
4.7777e-08
1.83195e-09
4.77793e-08
1.79785e-09
4.77805e-08
1.76566e-09
4.77806e-08
1.73503e-09
4.77798e-08
1.70584e-09
4.77781e-08
1.67794e-09
4.77755e-08
1.65107e-09
4.77719e-08
1.62509e-09
4.77675e-08
1.59998e-09
4.77622e-08
1.57556e-09
4.77559e-08
1.55159e-09
4.77488e-08
1.52804e-09
4.77407e-08
1.50487e-09
4.77315e-08
1.48188e-09
4.77214e-08
1.45891e-09
4.77103e-08
1.43603e-09
4.7698e-08
1.41319e-09
4.76845e-08
1.39016e-09
4.76699e-08
1.36677e-09
4.76541e-08
1.34314e-09
4.7637e-08
1.31921e-09
4.76185e-08
1.29474e-09
4.75988e-08
1.26958e-09
4.75779e-08
1.2439e-09
4.75556e-08
1.21766e-09
4.75319e-08
1.19075e-09
4.75069e-08
1.16299e-09
4.74805e-08
1.13451e-09
4.74527e-08
1.10511e-09
4.74234e-08
1.07475e-09
4.73929e-08
1.0433e-09
4.7361e-08
1.01098e-09
4.7328e-08
9.77603e-10
4.72938e-08
9.4333e-10
4.72585e-08
9.08081e-10
4.72219e-08
8.72179e-10
4.71841e-08
8.35271e-10
4.7145e-08
7.97467e-10
4.71048e-08
7.58446e-10
4.70637e-08
7.18918e-10
4.70219e-08
6.78841e-10
4.69794e-08
6.38949e-10
4.69366e-08
5.98861e-10
4.68934e-08
5.59699e-10
4.685e-08
5.2126e-10
4.6806e-08
4.84694e-10
4.67618e-08
4.49085e-10
4.67173e-08
4.16059e-10
4.66732e-08
3.85278e-10
4.66289e-08
3.58968e-10
4.65846e-08
3.34868e-10
4.65402e-08
3.13264e-10
4.64971e-08
2.90244e-10
4.64561e-08
2.68424e-10
4.6419e-08
2.46661e-10
4.63848e-08
2.31051e-10
4.63531e-08
2.18988e-10
4.63211e-08
2.14419e-10
4.62884e-08
2.09465e-10
4.62529e-08
2.07599e-10
4.62165e-08
1.99577e-10
4.61786e-08
1.9332e-10
4.61429e-08
1.79263e-10
4.61081e-08
1.70112e-10
4.60782e-08
1.53462e-10
4.60502e-08
1.47024e-10
4.60273e-08
1.33387e-10
4.60036e-08
1.35511e-10
4.59825e-08
1.27625e-10
4.59571e-08
1.3735e-10
4.59332e-08
1.30077e-10
4.5905e-08
1.39472e-10
4.58798e-08
1.28326e-10
4.58538e-08
1.34147e-10
4.58299e-08
1.26411e-10
4.58071e-08
1.32676e-10
4.57799e-08
1.40223e-10
4.57534e-08
1.47056e-10
1.70562e-10
4.7957e-08
1.77915e-09
-4.78828e-08
4.80622e-08
2.00766e-09
4.81978e-08
2.21101e-09
4.83597e-08
2.39332e-09
4.85345e-08
2.53771e-09
4.87049e-08
2.62686e-09
4.8859e-08
2.65843e-09
4.89927e-08
2.64251e-09
4.91063e-08
2.59427e-09
4.92005e-08
2.52696e-09
4.92757e-08
2.44952e-09
4.93333e-08
2.36809e-09
4.93764e-08
2.28774e-09
4.94087e-08
2.21246e-09
4.94334e-08
2.14459e-09
4.9453e-08
2.08453e-09
4.94686e-08
2.03122e-09
4.94811e-08
1.9832e-09
4.94914e-08
1.93941e-09
4.94997e-08
1.89906e-09
4.95065e-08
1.86153e-09
4.95121e-08
1.82638e-09
4.95166e-08
1.79336e-09
4.95201e-08
1.76214e-09
4.95228e-08
1.73236e-09
4.95247e-08
1.70392e-09
4.95259e-08
1.67671e-09
4.95265e-08
1.65046e-09
4.95266e-08
1.62501e-09
4.95262e-08
1.60037e-09
4.95253e-08
1.57642e-09
4.95241e-08
1.55287e-09
4.95224e-08
1.52971e-09
4.95203e-08
1.50694e-09
4.95178e-08
1.48436e-09
4.9515e-08
1.46176e-09
4.95118e-08
1.43925e-09
4.95081e-08
1.41683e-09
4.9504e-08
1.39426e-09
4.94995e-08
1.37131e-09
4.94945e-08
1.34815e-09
4.94889e-08
1.32474e-09
4.94828e-08
1.30084e-09
4.94762e-08
1.27623e-09
4.9469e-08
1.25112e-09
4.94611e-08
1.22548e-09
4.94527e-08
1.19923e-09
4.94435e-08
1.17215e-09
4.94336e-08
1.14442e-09
4.94229e-08
1.11584e-09
4.94112e-08
1.08639e-09
4.93987e-08
1.05582e-09
4.93853e-08
1.0244e-09
4.9371e-08
9.91896e-10
4.93558e-08
9.58501e-10
4.93398e-08
9.2405e-10
4.93229e-08
8.89085e-10
4.93049e-08
8.53266e-10
4.92856e-08
8.16801e-10
4.9265e-08
7.79072e-10
4.9243e-08
7.40875e-10
4.92199e-08
7.01927e-10
4.91958e-08
6.63097e-10
4.9171e-08
6.23637e-10
4.91457e-08
5.85032e-10
4.912e-08
5.46981e-10
4.90934e-08
5.11257e-10
4.9066e-08
4.76487e-10
4.90374e-08
4.44614e-10
4.90082e-08
4.14533e-10
4.8978e-08
3.89185e-10
4.89473e-08
3.65554e-10
4.89159e-08
3.44635e-10
4.88852e-08
3.20945e-10
4.88557e-08
2.97916e-10
4.88293e-08
2.73095e-10
4.88053e-08
2.55013e-10
4.87841e-08
2.4022e-10
4.87628e-08
2.35716e-10
4.87411e-08
2.31158e-10
4.87161e-08
2.3258e-10
4.86894e-08
2.2627e-10
4.86593e-08
2.23435e-10
4.86298e-08
2.08767e-10
4.85995e-08
2.00383e-10
4.8574e-08
1.79047e-10
4.85498e-08
1.71164e-10
4.85321e-08
1.51121e-10
4.85138e-08
1.53804e-10
4.84992e-08
1.42212e-10
4.84796e-08
1.56955e-10
4.84609e-08
1.48781e-10
4.84369e-08
1.63433e-10
4.84146e-08
1.5067e-10
4.83921e-08
1.56612e-10
4.83708e-08
1.47742e-10
4.83537e-08
1.49814e-10
4.83306e-08
1.63257e-10
4.83112e-08
1.66496e-10
2.04636e-10
4.98086e-08
1.70743e-09
-4.97369e-08
4.99058e-08
1.91039e-09
5.00279e-08
2.08895e-09
5.01713e-08
2.24995e-09
5.03275e-08
2.38145e-09
5.04836e-08
2.47079e-09
5.06285e-08
2.51349e-09
5.07566e-08
2.51446e-09
5.08665e-08
2.48433e-09
5.09591e-08
2.4344e-09
5.10352e-08
2.37345e-09
5.10959e-08
2.3074e-09
5.11431e-08
2.24048e-09
5.11797e-08
2.17592e-09
5.12083e-08
2.11595e-09
5.12312e-08
2.06159e-09
5.12499e-08
2.01256e-09
5.12652e-08
1.9679e-09
5.12778e-08
1.9268e-09
5.12882e-08
1.88866e-09
5.12968e-08
1.85292e-09
5.1304e-08
1.81923e-09
5.13099e-08
1.78746e-09
5.13147e-08
1.7573e-09
5.13186e-08
1.72845e-09
5.13217e-08
1.7008e-09
5.13242e-08
1.67428e-09
5.1326e-08
1.64862e-09
5.13273e-08
1.62367e-09
5.13283e-08
1.59945e-09
5.13288e-08
1.57587e-09
5.1329e-08
1.55264e-09
5.1329e-08
1.52973e-09
5.13288e-08
1.50719e-09
5.13283e-08
1.48484e-09
5.13276e-08
1.46242e-09
5.13268e-08
1.44007e-09
5.13258e-08
1.4178e-09
5.13247e-08
1.3954e-09
5.13234e-08
1.37262e-09
5.13219e-08
1.34963e-09
5.13203e-08
1.32639e-09
5.13184e-08
1.30271e-09
5.13163e-08
1.27832e-09
5.1314e-08
1.25343e-09
5.13115e-08
1.22801e-09
5.13087e-08
1.20202e-09
5.13056e-08
1.17524e-09
5.13021e-08
1.14788e-09
5.12982e-08
1.11973e-09
5.12938e-08
1.0908e-09
5.12888e-08
1.06079e-09
5.12833e-08
1.02997e-09
5.12771e-08
9.98031e-10
5.12704e-08
9.65236e-10
5.12632e-08
9.3129e-10
5.12553e-08
8.96931e-10
5.12467e-08
8.61843e-10
5.12371e-08
8.26448e-10
5.12263e-08
7.89889e-10
5.12141e-08
7.53057e-10
5.12007e-08
7.15328e-10
5.11861e-08
6.7766e-10
5.11709e-08
6.38853e-10
5.11552e-08
6.0073e-10
5.11394e-08
5.62821e-10
5.11229e-08
5.27698e-10
5.11057e-08
4.93713e-10
5.1087e-08
4.63366e-10
5.10669e-08
4.34588e-10
5.10453e-08
4.10781e-10
5.10231e-08
3.87778e-10
5.10003e-08
3.67452e-10
5.09783e-08
3.42945e-10
5.09572e-08
3.1902e-10
5.09385e-08
2.91729e-10
5.09216e-08
2.71956e-10
5.09071e-08
2.54698e-10
5.08927e-08
2.50152e-10
5.08785e-08
2.45305e-10
5.08614e-08
2.49663e-10
5.08428e-08
2.44917e-10
5.08199e-08
2.46376e-10
5.07966e-08
2.32055e-10
5.0771e-08
2.25954e-10
5.07495e-08
2.00581e-10
5.07287e-08
1.91882e-10
5.0715e-08
1.64872e-10
5.0701e-08
1.67814e-10
5.06914e-08
1.51784e-10
5.06769e-08
1.71511e-10
5.06627e-08
1.62894e-10
5.0643e-08
1.83143e-10
5.06235e-08
1.70185e-10
5.06046e-08
1.75502e-10
5.05856e-08
1.66782e-10
5.05733e-08
1.62142e-10
5.05541e-08
1.82432e-10
5.05411e-08
1.79513e-10
2.33467e-10
5.17175e-08
1.6382e-09
-5.16482e-08
5.18079e-08
1.81996e-09
5.19187e-08
1.97813e-09
5.20471e-08
2.12161e-09
5.2187e-08
2.24147e-09
5.23292e-08
2.32863e-09
5.24644e-08
2.37832e-09
5.25864e-08
2.39247e-09
5.26927e-08
2.37796e-09
5.27835e-08
2.34361e-09
5.28596e-08
2.29731e-09
5.29222e-08
2.24483e-09
5.29726e-08
2.19008e-09
5.30128e-08
2.13574e-09
5.30449e-08
2.0838e-09
5.3071e-08
2.03549e-09
5.30925e-08
1.99106e-09
5.31104e-08
1.95005e-09
5.31252e-08
1.91194e-09
5.31377e-08
1.87625e-09
5.3148e-08
1.84256e-09
5.31567e-08
1.81058e-09
5.31639e-08
1.78023e-09
5.31699e-08
1.75129e-09
5.31749e-08
1.72349e-09
5.31789e-08
1.69674e-09
5.31822e-08
1.67098e-09
5.31849e-08
1.64599e-09
5.31869e-08
1.6216e-09
5.31886e-08
1.59784e-09
5.31898e-08
1.57464e-09
5.31907e-08
1.55174e-09
5.31913e-08
1.52911e-09
5.31917e-08
1.50678e-09
5.31919e-08
1.48461e-09
5.3192e-08
1.46237e-09
5.31919e-08
1.44015e-09
5.31918e-08
1.41796e-09
5.31915e-08
1.39566e-09
5.31911e-08
1.37298e-09
5.31907e-08
1.35007e-09
5.31902e-08
1.32689e-09
5.31896e-08
1.30331e-09
5.31889e-08
1.27903e-09
5.31881e-08
1.25426e-09
5.31871e-08
1.22894e-09
5.31861e-08
1.20306e-09
5.31849e-08
1.1764e-09
5.31835e-08
1.14926e-09
5.31819e-08
1.12135e-09
5.318e-08
1.09277e-09
5.31776e-08
1.06314e-09
5.31748e-08
1.03277e-09
5.31716e-08
1.00125e-09
5.31679e-08
9.68908e-10
5.31639e-08
9.35324e-10
5.31594e-08
9.01397e-10
5.31545e-08
8.66798e-10
5.31487e-08
8.32227e-10
5.31419e-08
7.96661e-10
5.31338e-08
7.61125e-10
5.31246e-08
7.24588e-10
5.31142e-08
6.88078e-10
5.31031e-08
6.49898e-10
5.30917e-08
6.12184e-10
5.30803e-08
5.74203e-10
5.30686e-08
5.39385e-10
5.30564e-08
5.05941e-10
5.30426e-08
4.77174e-10
5.30271e-08
4.50008e-10
5.30098e-08
4.28117e-10
5.29918e-08
4.0579e-10
5.29735e-08
3.85777e-10
5.29564e-08
3.60015e-10
5.29403e-08
3.35109e-10
5.29263e-08
3.05697e-10
5.29133e-08
2.84993e-10
5.29022e-08
2.65832e-10
5.28909e-08
2.61443e-10
5.28804e-08
2.55823e-10
5.28675e-08
2.62515e-10
5.28537e-08
2.58685e-10
5.28357e-08
2.6444e-10
5.2817e-08
2.50725e-10
5.27952e-08
2.47747e-10
5.27769e-08
2.18924e-10
5.27587e-08
2.10054e-10
5.27474e-08
1.76146e-10
5.27359e-08
1.79321e-10
5.2729e-08
1.5865e-10
5.27175e-08
1.83084e-10
5.2706e-08
1.74363e-10
5.26892e-08
1.99969e-10
5.26715e-08
1.87871e-10
5.26551e-08
1.9186e-10
5.26376e-08
1.84356e-10
5.26283e-08
1.71432e-10
5.26117e-08
1.99005e-10
5.26029e-08
1.88344e-10
2.5813e-10
5.3687e-08
1.57158e-09
-5.36203e-08
5.37713e-08
1.73564e-09
5.38725e-08
1.8769e-09
5.39883e-08
2.00584e-09
5.41142e-08
2.11553e-09
5.42435e-08
2.19939e-09
5.43687e-08
2.25308e-09
5.44842e-08
2.27702e-09
5.45867e-08
2.27546e-09
5.46755e-08
2.25481e-09
5.47511e-08
2.22164e-09
5.48147e-08
2.18128e-09
5.48673e-08
2.13748e-09
5.49103e-08
2.09269e-09
5.49455e-08
2.04862e-09
5.49745e-08
2.00653e-09
5.49986e-08
1.96696e-09
5.50188e-08
1.92984e-09
5.50358e-08
1.89492e-09
5.50501e-08
1.86193e-09
5.50622e-08
1.8305e-09
5.50723e-08
1.80044e-09
5.50809e-08