/*--------------------------------*- C++ -*----------------------------------*\
| =========                 |                                                 |
| \\      /  F ield         | OpenFOAM: The Open Source CFD Toolbox           |
|  \\    /   O peration     | Version:  2.3.0                                 |
|   \\  /    A nd           | Web:      www.OpenFOAM.org                      |
|    \\/     M anipulation  |                                                 |
\*---------------------------------------------------------------------------*/
FoamFile
{
    version     2.0;
    format      ascii;
    class       surfaceScalarField;
    location    "0.6";
    object      phi;
}
// * * * * * * * * * * * * * * * * * * * * * * * * * * * * * * * * * * * * * //

dimensions      [0 3 -1 0 0 0 0];

internalField   nonuniform List<scalar> 
6598
(
2.89625e-08
2.75192e-09
-3.17145e-08
2.55254e-08
3.43715e-09
2.21126e-08
3.41274e-09
1.89466e-08
3.16606e-09
1.60606e-08
2.88599e-09
1.3531e-08
2.52959e-09
1.14486e-08
2.08241e-09
9.83102e-09
1.61757e-09
8.64336e-09
1.18766e-09
7.80251e-09
8.40853e-10
7.21278e-09
5.89729e-10
6.79181e-09
4.20968e-10
6.47821e-09
3.136e-10
6.22946e-09
2.48747e-10
6.01746e-09
2.12008e-10
5.82591e-09
1.91544e-10
5.64696e-09
1.78947e-10
5.47763e-09
1.69337e-10
5.31721e-09
1.60422e-10
5.16578e-09
1.51425e-10
5.02348e-09
1.42301e-10
4.89021e-09
1.33274e-10
4.7656e-09
1.24601e-10
4.64913e-09
1.16473e-10
4.54014e-09
1.08996e-10
4.43794e-09
1.02199e-10
4.34188e-09
9.60587e-11
4.25136e-09
9.0523e-11
4.16583e-09
8.5524e-11
4.08484e-09
8.09952e-11
4.00796e-09
7.68715e-11
3.93487e-09
7.30997e-11
3.86523e-09
6.96317e-11
3.7988e-09
6.64301e-11
3.73534e-09
6.34614e-11
3.67464e-09
6.06994e-11
3.61652e-09
5.8121e-11
3.56081e-09
5.57085e-11
3.50737e-09
5.34453e-11
3.45605e-09
5.13198e-11
3.40673e-09
4.93182e-11
3.3593e-09
4.74338e-11
3.31364e-09
4.56532e-11
3.26967e-09
4.3974e-11
3.22729e-09
4.2382e-11
3.18641e-09
4.08782e-11
3.14696e-09
3.94476e-11
3.10887e-09
3.80938e-11
3.07207e-09
3.68013e-11
3.03649e-09
3.55765e-11
3.00209e-09
3.4403e-11
2.9688e-09
3.32904e-11
2.93658e-09
3.22198e-11
2.90537e-09
3.12054e-11
2.87515e-09
3.02227e-11
2.84585e-09
2.92944e-11
2.81747e-09
2.83872e-11
2.78993e-09
2.75334e-11
2.76324e-09
2.66921e-11
2.73734e-09
2.5903e-11
2.71222e-09
2.51197e-11
2.68783e-09
2.43865e-11
2.66418e-09
2.36536e-11
2.64121e-09
2.29705e-11
2.61893e-09
2.22812e-11
2.59728e-09
2.16422e-11
2.5763e-09
2.09891e-11
2.55591e-09
2.03893e-11
2.53614e-09
1.97679e-11
2.51694e-09
1.92024e-11
2.49833e-09
1.86091e-11
2.48025e-09
1.80735e-11
2.46275e-09
1.75075e-11
2.44575e-09
1.69982e-11
2.4293e-09
1.64498e-11
2.41333e-09
1.59681e-11
2.39789e-09
1.54358e-11
2.38291e-09
1.49803e-11
2.36845e-09
1.44614e-11
2.35442e-09
1.40347e-11
2.34089e-09
1.35286e-11
2.32776e-09
1.3126e-11
2.31514e-09
1.26263e-11
2.30288e-09
1.22566e-11
2.29112e-09
1.17573e-11
2.27968e-09
1.14415e-11
2.26875e-09
1.09358e-11
2.25806e-09
1.06833e-11
2.24791e-09
1.01518e-11
2.23793e-09
9.97561e-12
2.22851e-09
9.42202e-12
2.21915e-09
9.36416e-12
2.21037e-09
8.77353e-12
2.2015e-09
8.8698e-12
2.1933e-09
8.20687e-12
2.18479e-09
8.5129e-12
2.177e-09
7.78474e-12
2.16865e-09
8.35414e-12
2.1611e-09
7.54184e-12
8.87195e-12
3.41555e-08
2.48159e-09
-3.38851e-08
3.39755e-08
3.61708e-09
3.32887e-08
4.09956e-09
3.23222e-08
4.13255e-09
3.11856e-08
4.02261e-09
2.9904e-08
3.81116e-09
2.85082e-08
3.47824e-09
2.70741e-08
3.05167e-09
2.56746e-08
2.58718e-09
2.43614e-08
2.15406e-09
2.31567e-08
1.79438e-09
2.20628e-08
1.51487e-09
2.10756e-08
1.30081e-09
2.01902e-08
1.13421e-09
1.93956e-08
1.00652e-09
1.86804e-08
9.06786e-10
1.80333e-08
8.26041e-10
1.74446e-08
7.58073e-10
1.69059e-08
6.9905e-10
1.64106e-08
6.46729e-10
1.59531e-08
5.99828e-10
1.55288e-08
5.5759e-10
1.51339e-08
5.19513e-10
1.47652e-08
4.85204e-10
1.44198e-08
4.54312e-10
1.40955e-08
4.26495e-10
1.37902e-08
4.01413e-10
1.3502e-08
3.78748e-10
1.32293e-08
3.58196e-10
1.29708e-08
3.39491e-10
1.27253e-08
3.22392e-10
1.24917e-08
3.06701e-10
1.22691e-08
2.92242e-10
1.20566e-08
2.78871e-10
1.18536e-08
2.66465e-10
1.16594e-08
2.54919e-10
1.14734e-08
2.44143e-10
1.1295e-08
2.34063e-10
1.11239e-08
2.24613e-10
1.09594e-08
2.15739e-10
1.08014e-08
2.07389e-10
1.06493e-08
1.99525e-10
1.05028e-08
1.92099e-10
1.03617e-08
1.85088e-10
1.02256e-08
1.78448e-10
1.00944e-08
1.72164e-10
9.96762e-09
1.66194e-10
9.84518e-09
1.6053e-10
9.72685e-09
1.55133e-10
9.61242e-09
1.50003e-10
9.50172e-09
1.45101e-10
9.39458e-09
1.40432e-10
9.29085e-09
1.35957e-10
9.19036e-09
1.3169e-10
9.093e-09
1.27582e-10
8.99863e-09
1.23666e-10
8.90714e-09
1.19875e-10
8.81841e-09
1.16263e-10
8.73236e-09
1.12749e-10
8.64886e-09
1.094e-10
8.56785e-09
1.06129e-10
8.48923e-09
1.03009e-10
8.41293e-09
9.99481e-11
8.33887e-09
9.7029e-11
8.267e-09
9.41518e-11
8.19724e-09
9.14077e-11
8.12954e-09
8.86868e-11
8.06383e-09
8.6096e-11
8.00009e-09
8.3511e-11
7.93824e-09
8.10531e-11
7.87826e-09
7.85882e-11
7.82009e-09
7.62445e-11
7.76371e-09
7.38903e-11
7.70906e-09
7.16442e-11
7.65614e-09
6.93745e-11
7.60488e-09
6.72228e-11
7.55529e-09
6.50288e-11
7.50731e-09
6.29628e-11
7.46093e-09
6.08358e-11
7.41611e-09
5.8856e-11
7.37285e-09
5.67919e-11
7.33109e-09
5.48842e-11
7.29084e-09
5.28709e-11
7.25205e-09
5.10526e-11
7.21473e-09
4.90802e-11
7.17877e-09
4.73938e-11
7.14426e-09
4.5452e-11
7.11102e-09
4.39151e-11
7.0792e-09
4.19745e-11
7.04856e-09
4.06142e-11
7.01928e-09
3.87077e-11
6.99104e-09
3.76046e-11
6.96407e-09
3.57389e-11
6.93799e-09
3.49485e-11
6.91308e-09
3.31241e-11
6.88887e-09
3.27234e-11
6.86556e-09
3.1095e-11
6.84281e-09
3.11041e-11
6.82042e-09
2.99295e-11
3.08853e-11
3.56586e-08
2.3513e-09
-3.55283e-08
3.60377e-08
3.238e-09
3.62587e-08
3.87851e-09
3.6301e-08
4.09027e-09
3.62267e-08
4.09688e-09
3.60316e-08
4.00624e-09
3.56876e-08
3.82229e-09
3.51999e-08
3.53938e-09
3.45988e-08
3.18824e-09
3.39263e-08
2.82658e-09
3.32175e-08
2.50323e-09
3.24947e-08
2.23762e-09
3.17709e-08
2.0246e-09
3.10535e-08
1.85159e-09
3.03498e-08
1.71031e-09
2.96637e-08
1.59283e-09
2.89976e-08
1.49217e-09
2.83525e-08
1.40317e-09
2.7729e-08
1.32252e-09
2.71275e-08
1.24824e-09
2.65481e-08
1.17927e-09
2.59907e-08
1.115e-09
2.54551e-08
1.05509e-09
2.4941e-08
9.99322e-10
2.44478e-08
9.47482e-10
2.39749e-08
8.99356e-10
2.35216e-08
8.54702e-10
2.30871e-08
8.13268e-10
2.26705e-08
7.74794e-10
2.2271e-08
7.39031e-10
2.18876e-08
7.05735e-10
2.15197e-08
6.7469e-10
2.11662e-08
6.45694e-10
2.08265e-08
6.18567e-10
2.04998e-08
5.93147e-10
2.01855e-08
5.69286e-10
1.98827e-08
5.46855e-10
1.95911e-08
5.25733e-10
1.93099e-08
5.05819e-10
1.90386e-08
4.87017e-10
1.87767e-08
4.69243e-10
1.85238e-08
4.5242e-10
1.82795e-08
4.36475e-10
1.80432e-08
4.2135e-10
1.78147e-08
4.06978e-10
1.75935e-08
3.93316e-10
1.73794e-08
3.80302e-10
1.7172e-08
3.67903e-10
1.69711e-08
3.56064e-10
1.67764e-08
3.44761e-10
1.65875e-08
3.33945e-10
1.64043e-08
3.23599e-10
1.62266e-08
3.13675e-10
1.60541e-08
3.04166e-10
1.58867e-08
2.95018e-10
1.57241e-08
2.86243e-10
1.55662e-08
2.77771e-10
1.54129e-08
2.69637e-10
1.52639e-08
2.61758e-10
1.51191e-08
2.54182e-10
1.49784e-08
2.46825e-10
1.48417e-08
2.39735e-10
1.47088e-08
2.32836e-10
1.45796e-08
2.26172e-10
1.44541e-08
2.19673e-10
1.43321e-08
2.13378e-10
1.42136e-08
2.07225e-10
1.40984e-08
2.01252e-10
1.39865e-08
1.954e-10
1.38779e-08
1.89705e-10
1.37724e-08
1.84121e-10
1.36699e-08
1.7866e-10
1.35705e-08
1.73319e-10
1.34741e-08
1.68057e-10
1.33806e-08
1.62912e-10
1.329e-08
1.57833e-10
1.32021e-08
1.52863e-10
1.31171e-08
1.47944e-10
1.30348e-08
1.43136e-10
1.29553e-08
1.38368e-10
1.28784e-08
1.33711e-10
1.28042e-08
1.29063e-10
1.27326e-08
1.24545e-10
1.26636e-08
1.20035e-10
1.2597e-08
1.15647e-10
1.25331e-08
1.1133e-10
1.24715e-08
1.07073e-10
1.24124e-08
1.02961e-10
1.23556e-08
9.88188e-11
1.23012e-08
9.49278e-11
1.2249e-08
9.10039e-11
1.21991e-08
8.74233e-11
1.21511e-08
8.3805e-11
1.21054e-08
8.05647e-11
1.20612e-08
7.73642e-11
1.20194e-08
7.45198e-11
1.19784e-08
7.21118e-11
1.19398e-08
6.9717e-11
1.19012e-08
6.8531e-11
6.72891e-11
3.71811e-08
2.29853e-09
-3.71283e-08
3.74728e-08
2.94628e-09
3.78141e-08
3.53722e-09
3.80763e-08
3.82808e-09
3.82793e-08
3.89381e-09
3.84363e-08
3.84934e-09
3.85242e-08
3.73433e-09
3.8519e-08
3.5446e-09
3.84149e-08
3.29228e-09
3.82274e-08
3.01409e-09
3.79793e-08
2.7514e-09
3.76895e-08
2.52741e-09
3.73689e-08
2.34522e-09
3.70233e-08
2.19714e-09
3.66588e-08
2.07487e-09
3.62798e-08
1.97177e-09
3.58896e-08
1.88242e-09
3.54901e-08
1.80261e-09
3.50832e-08
1.72942e-09
3.46704e-08
1.661e-09
3.42534e-08
1.5963e-09
3.38337e-08
1.53476e-09
3.34126e-08
1.4761e-09
3.29918e-08
1.42018e-09
3.25724e-08
1.3669e-09
3.21555e-08
1.31619e-09
3.17423e-08
1.26792e-09
3.13336e-08
1.22199e-09
3.09301e-08
1.17827e-09
3.05325e-08
1.13663e-09
3.01413e-08
1.09695e-09
2.97569e-08
1.0591e-09
2.93796e-08
1.02298e-09
2.90097e-08
9.88481e-10
2.86473e-08
9.55514e-10
2.82926e-08
9.23981e-10
2.79457e-08
8.93815e-10
2.76065e-08
8.64929e-10
2.7275e-08
8.37274e-10
2.69513e-08
8.10771e-10
2.66351e-08
7.8538e-10
2.63265e-08
7.6103e-10
2.60253e-08
7.37681e-10
2.57314e-08
7.15272e-10
2.54446e-08
6.93764e-10
2.51648e-08
6.73101e-10
2.48919e-08
6.53249e-10
2.46256e-08
6.34152e-10
2.43659e-08
6.15789e-10
2.41125e-08
5.98099e-10
2.38654e-08
5.81074e-10
2.36244e-08
5.64649e-10
2.33892e-08
5.48822e-10
2.31599e-08
5.33532e-10
2.29361e-08
5.18773e-10
2.27178e-08
5.04497e-10
2.25049e-08
4.90689e-10
2.22973e-08
4.77314e-10
2.20947e-08
4.64357e-10
2.18971e-08
4.51777e-10
2.17043e-08
4.39581e-10
2.15163e-08
4.27699e-10
2.1333e-08
4.16182e-10
2.11542e-08
4.04917e-10
2.09799e-08
3.93998e-10
2.081e-08
3.83273e-10
2.06444e-08
3.72878e-10
2.0483e-08
3.62622e-10
2.03257e-08
3.5269e-10
2.01726e-08
3.42833e-10
2.00234e-08
3.33318e-10
1.98783e-08
3.23798e-10
1.97369e-08
3.14662e-10
1.95995e-08
3.05419e-10
1.94659e-08
2.96598e-10
1.93361e-08
2.87606e-10
1.92099e-08
2.79068e-10
1.90875e-08
2.70283e-10
1.89687e-08
2.62015e-10
1.88536e-08
2.53414e-10
1.87419e-08
2.4541e-10
1.8634e-08
2.36936e-10
1.85294e-08
2.29188e-10
1.84286e-08
2.20847e-10
1.83309e-08
2.13363e-10
1.8237e-08
2.05212e-10
1.8146e-08
1.98028e-10
1.8059e-08
1.90047e-10
1.79746e-08
1.83185e-10
1.78942e-08
1.75351e-10
1.78161e-08
1.69026e-10
1.77421e-08
1.61416e-10
1.76701e-08
1.55827e-10
1.76023e-08
1.48437e-10
1.75358e-08
1.43799e-10
1.74736e-08
1.36724e-10
1.74122e-08
1.33549e-10
1.73548e-08
1.27068e-10
1.72976e-08
1.25793e-10
1.20835e-10
3.87623e-08
2.24836e-09
-3.87121e-08
3.89642e-08
2.74436e-09
3.92684e-08
3.23305e-09
3.95517e-08
3.54475e-09
3.97896e-08
3.65587e-09
3.99992e-08
3.6398e-09
4.01795e-08
3.55398e-09
4.0312e-08
3.41209e-09
4.03824e-08
3.22186e-09
4.0392e-08
3.00454e-09
4.0354e-08
2.78938e-09
4.02825e-08
2.5989e-09
4.01862e-08
2.44159e-09
4.00693e-08
2.31403e-09
3.9935e-08
2.20917e-09
3.97857e-08
2.12099e-09
3.96232e-08
2.04497e-09
3.94481e-08
1.97765e-09
3.92611e-08
1.91648e-09
3.90624e-08
1.8597e-09
3.88525e-08
1.80619e-09
3.8632e-08
1.75528e-09
3.84015e-08
1.70659e-09
3.81618e-08
1.65989e-09
3.79137e-08
1.61504e-09
3.76579e-08
1.57194e-09
3.73954e-08
1.53046e-09
3.71268e-08
1.49051e-09
3.68531e-08
1.45198e-09
3.6575e-08
1.41475e-09
3.62932e-08
1.37876e-09
3.60084e-08
1.3439e-09
3.57213e-08
1.31013e-09
3.54324e-08
1.27736e-09
3.51423e-08
1.24556e-09
3.48517e-08
1.21464e-09
3.45609e-08
1.1846e-09
3.42705e-08
1.15535e-09
3.39808e-08
1.12692e-09
3.36924e-08
1.09922e-09
3.34055e-08
1.07229e-09
3.31205e-08
1.04605e-09
3.28376e-08
1.02055e-09
3.25572e-08
9.95703e-10
3.22794e-08
9.7155e-10
3.20045e-08
9.48002e-10
3.17326e-08
9.2511e-10
3.1464e-08
9.02774e-10
3.11987e-08
8.81068e-10
3.09369e-08
8.5987e-10
3.06787e-08
8.39282e-10
3.04242e-08
8.19156e-10
3.01734e-08
7.99613e-10
2.99265e-08
7.80483e-10
2.96833e-08
7.61904e-10
2.94441e-08
7.43693e-10
2.92088e-08
7.25999e-10
2.89775e-08
7.08627e-10
2.87501e-08
6.91753e-10
2.85268e-08
6.75139e-10
2.83073e-08
6.59023e-10
2.80919e-08
6.43083e-10
2.78805e-08
6.27661e-10
2.76731e-08
6.12327e-10
2.74695e-08
5.97529e-10
2.72701e-08
5.82726e-10
2.70745e-08
5.68485e-10
2.68829e-08
5.54145e-10
2.66952e-08
5.40407e-10
2.65116e-08
5.26452e-10
2.63317e-08
5.13179e-10
2.6156e-08
4.99541e-10
2.5984e-08
4.867e-10
2.58161e-08
4.73306e-10
2.56518e-08
4.60832e-10
2.54918e-08
4.4765e-10
2.53354e-08
4.35514e-10
2.51831e-08
4.22486e-10
2.50345e-08
4.10693e-10
2.48901e-08
3.97777e-10
2.47492e-08
3.8634e-10
2.46127e-08
3.73449e-10
2.44795e-08
3.62388e-10
2.43508e-08
3.49505e-10
2.42253e-08
3.3886e-10
2.41045e-08
3.26035e-10
2.39866e-08
3.15904e-10
2.38736e-08
3.03072e-10
2.37632e-08
2.93533e-10
2.3658e-08
2.80618e-10
2.3555e-08
2.72008e-10
2.34573e-08
2.59096e-10
2.33614e-08
2.51704e-10
2.32711e-08
2.38809e-10
2.3182e-08
2.32875e-10
2.30985e-08
2.20226e-10
2.30157e-08
2.16317e-10
2.29383e-08
2.04498e-10
2.2861e-08
2.03077e-10
1.93188e-10
4.03754e-08
2.18988e-09
-4.03169e-08
4.05296e-08
2.59023e-09
4.07789e-08
2.98376e-09
4.10424e-08
3.28122e-09
4.12755e-08
3.42279e-09
4.14786e-08
3.43663e-09
4.16591e-08
3.37345e-09
4.18099e-08
3.26135e-09
4.19198e-08
3.11192e-09
4.19861e-08
2.93829e-09
4.20158e-08
2.75966e-09
4.20199e-08
2.59483e-09
4.20068e-08
2.45467e-09
4.19812e-08
2.33967e-09
4.19454e-08
2.24497e-09
4.1901e-08
2.16539e-09
4.1849e-08
2.09697e-09
4.17898e-08
2.03682e-09
4.17235e-08
1.98282e-09
4.16497e-08
1.9334e-09
4.15684e-08
1.88749e-09
4.14794e-08
1.84434e-09
4.13825e-08
1.80351e-09
4.12777e-08
1.76465e-09
4.11651e-08
1.72759e-09
4.1045e-08
1.69211e-09
4.09173e-08
1.6581e-09
4.07825e-08
1.62539e-09
4.06406e-08
1.59385e-09
4.0492e-08
1.56335e-09
4.03369e-08
1.5338e-09
4.01758e-08
1.50506e-09
4.00088e-08
1.47712e-09
3.98363e-08
1.44984e-09
3.96587e-08
1.42322e-09
3.94762e-08
1.39715e-09
3.92891e-08
1.37164e-09
3.90979e-08
1.34656e-09
3.89029e-08
1.32197e-09
3.87043e-08
1.29773e-09
3.85027e-08
1.27396e-09
3.82982e-08
1.25051e-09
3.80912e-08
1.22752e-09
3.78821e-08
1.20482e-09
3.76711e-08
1.18257e-09
3.74585e-08
1.16057e-09
3.72446e-08
1.139e-09
3.70298e-08
1.11764e-09
3.68141e-08
1.09671e-09
3.65981e-08
1.07595e-09
3.63817e-08
1.05564e-09
3.61654e-08
1.03547e-09
3.59492e-08
1.01578e-09
3.57335e-08
9.96168e-10
3.55184e-08
9.77045e-10
3.53041e-08
9.57962e-10
3.50908e-08
9.39368e-10
3.48786e-08
9.20763e-10
3.46677e-08
9.02677e-10
3.44583e-08
8.84505e-10
3.42505e-08
8.66908e-10
3.40444e-08
8.49115e-10
3.38401e-08
8.31982e-10
3.36379e-08
8.1453e-10
3.34376e-08
7.97819e-10
3.32397e-08
7.80649e-10
3.30439e-08
7.64317e-10
3.28506e-08
7.47376e-10
3.26596e-08
7.31399e-10
3.24715e-08
7.14625e-10
3.22856e-08
6.98993e-10
3.21029e-08
6.82319e-10
3.19225e-08
6.67025e-10
3.17455e-08
6.50373e-10
3.15709e-08
6.35366e-10
3.13999e-08
6.18716e-10
3.12314e-08
6.03997e-10
3.10666e-08
5.87279e-10
3.09044e-08
5.72888e-10
3.07461e-08
5.56041e-10
3.05904e-08
5.42027e-10
3.0439e-08
5.24931e-10
3.029e-08
5.11365e-10
3.01455e-08
4.93987e-10
3.00034e-08
4.80962e-10
2.98661e-08
4.63346e-10
2.9731e-08
4.51021e-10
2.9601e-08
4.33061e-10
2.9473e-08
4.21563e-10
2.93504e-08
4.03171e-10
2.92295e-08
3.92938e-10
2.91143e-08
3.74254e-10
2.90004e-08
3.65606e-10
2.88925e-08
3.46718e-10
2.87855e-08
3.39866e-10
2.86845e-08
3.21194e-10
2.85841e-08
3.16749e-10
2.84895e-08
2.99134e-10
2.83949e-08
2.97665e-10
2.82392e-10
4.20236e-08
2.12648e-09
-4.19602e-08
4.21528e-08
2.46101e-09
4.23548e-08
2.78174e-09
4.25881e-08
3.04791e-09
4.28084e-08
3.20251e-09
4.30013e-08
3.24376e-09
4.31699e-08
3.20486e-09
4.33139e-08
3.11731e-09
4.34277e-08
2.99813e-09
4.35079e-08
2.85813e-09
4.35575e-08
2.71e-09
4.35845e-08
2.56782e-09
4.3597e-08
2.44221e-09
4.36001e-08
2.33652e-09
4.35967e-08
2.24842e-09
4.35882e-08
2.17391e-09
4.35756e-08
2.10956e-09
4.35595e-08
2.05288e-09
4.35402e-08
2.00215e-09
4.35175e-08
1.95604e-09
4.34914e-08
1.91364e-09
4.34615e-08
1.8742e-09
4.34277e-08
1.83731e-09
4.33898e-08
1.80256e-09
4.33477e-08
1.76975e-09
4.33011e-08
1.73864e-09
4.32501e-08
1.70909e-09
4.31946e-08
1.6809e-09
4.31345e-08
1.65397e-09
4.30698e-08
1.62808e-09
4.30004e-08
1.60318e-09
4.29264e-08
1.57909e-09
4.28477e-08
1.55581e-09
4.27644e-08
1.53314e-09
4.26765e-08
1.51115e-09
4.2584e-08
1.48963e-09
4.2487e-08
1.46867e-09
4.23855e-08
1.44801e-09
4.22797e-08
1.42782e-09
4.21696e-08
1.40781e-09
4.20553e-08
1.38821e-09
4.19371e-08
1.36872e-09
4.1815e-08
1.34963e-09
4.16892e-08
1.33062e-09
4.15598e-08
1.31201e-09
4.14269e-08
1.29341e-09
4.12907e-08
1.27519e-09
4.11515e-08
1.25689e-09
4.10092e-08
1.23897e-09
4.08643e-08
1.2209e-09
4.07167e-08
1.20326e-09
4.05667e-08
1.1854e-09
4.04145e-08
1.16804e-09
4.02602e-08
1.15039e-09
4.0104e-08
1.13326e-09
3.99462e-08
1.11577e-09
3.97868e-08
1.09882e-09
3.96261e-08
1.08144e-09
3.94641e-08
1.06468e-09
3.93013e-08
1.04735e-09
3.91374e-08
1.03075e-09
3.89731e-08
1.01344e-09
3.88081e-08
9.97015e-10
3.86429e-08
9.79686e-10
3.84773e-08
9.63409e-10
3.83119e-08
9.4601e-10
3.81464e-08
9.2984e-10
3.79815e-08
9.12309e-10
3.78166e-08
8.96241e-10
3.76527e-08
8.78532e-10
3.74891e-08
8.626e-10
3.73268e-08
8.44646e-10
3.7165e-08
8.28864e-10
3.70048e-08
8.10563e-10
3.68453e-08
7.94884e-10
3.66878e-08
7.76215e-10
3.65311e-08
7.60688e-10
3.63767e-08
7.41599e-10
3.62233e-08
7.26315e-10
3.60726e-08
7.06715e-10
3.59229e-08
6.91737e-10
3.57764e-08
6.71451e-10
3.56309e-08
6.569e-10
3.5489e-08
6.35907e-10
3.5348e-08
6.21966e-10
3.5211e-08
6.00347e-10
3.50748e-08
5.87181e-10
3.49431e-08
5.64764e-10
3.48122e-08
5.52486e-10
3.46861e-08
5.29261e-10
3.45606e-08
5.1844e-10
3.44402e-08
4.94657e-10
3.43202e-08
4.85554e-10
3.42056e-08
4.6133e-10
3.40914e-08
4.54102e-10
3.39825e-08
4.30107e-10
3.38737e-08
4.25483e-10
3.37701e-08
4.02742e-10
3.36664e-08
4.01414e-10
3.81369e-10
4.37137e-08
2.06245e-09
-4.36496e-08
4.38275e-08
2.34717e-09
4.39944e-08
2.61487e-09
4.41964e-08
2.84585e-09
4.4399e-08
2.99992e-09
4.45816e-08
3.06121e-09
4.47399e-08
3.04651e-09
4.48751e-08
2.98211e-09
4.49857e-08
2.8876e-09
4.50692e-08
2.77457e-09
4.51268e-08
2.65248e-09
4.51632e-08
2.53137e-09
4.51852e-08
2.42016e-09
4.51983e-08
2.32349e-09
4.52054e-08
2.24131e-09
4.52083e-08
2.171e-09
4.52081e-08
2.1098e-09
4.52054e-08
2.05549e-09
4.52009e-08
2.00667e-09
4.51947e-08
1.96222e-09
4.51869e-08
1.92144e-09
4.51775e-08
1.88365e-09
4.51663e-08
1.8485e-09
4.51533e-08
1.81553e-09
4.51385e-08
1.78461e-09
4.51217e-08
1.75541e-09
4.51029e-08
1.72789e-09
4.50821e-08
1.70175e-09
4.5059e-08
1.67699e-09
4.50338e-08
1.65331e-09
4.50062e-08
1.63074e-09
4.49763e-08
1.60901e-09
4.49439e-08
1.5882e-09
4.4909e-08
1.56803e-09
4.48715e-08
1.54868e-09
4.48313e-08
1.5298e-09
4.47884e-08
1.51162e-09
4.47427e-08
1.49375e-09
4.4694e-08
1.47647e-09
4.46425e-08
1.45933e-09
4.4588e-08
1.44271e-09
4.45306e-08
1.42613e-09
4.44701e-08
1.41006e-09
4.44068e-08
1.39396e-09
4.43404e-08
1.37839e-09
4.42711e-08
1.3627e-09
4.41988e-08
1.34753e-09
4.41236e-08
1.33211e-09
4.40453e-08
1.31721e-09
4.39643e-08
1.30191e-09
4.38804e-08
1.2872e-09
4.37938e-08
1.27199e-09
4.37044e-08
1.25745e-09
4.36125e-08
1.24231e-09
4.35178e-08
1.22791e-09
4.34208e-08
1.21277e-09
4.33212e-08
1.19841e-09
4.32195e-08
1.18318e-09
4.31153e-08
1.16885e-09
4.30092e-08
1.15345e-09
4.29008e-08
1.13912e-09
4.27908e-08
1.12349e-09
4.26787e-08
1.10914e-09
4.25651e-08
1.09324e-09
4.24496e-08
1.07888e-09
4.2333e-08
1.06265e-09
4.22146e-08
1.0482e-09
4.20954e-08
1.03153e-09
4.19747e-08
1.01698e-09
4.18534e-08
9.99803e-10
4.17308e-08
9.85233e-10
4.16079e-08
9.67484e-10
4.14839e-08
9.52934e-10
4.13599e-08
9.34479e-10
4.1235e-08
9.19854e-10
4.11106e-08
9.00618e-10
4.09853e-08
8.85978e-10
4.08609e-08
8.65965e-10
4.07357e-08
8.51487e-10
4.06119e-08
8.30596e-10
4.04873e-08
8.16343e-10
4.03644e-08
7.9429e-10
4.0241e-08
7.80328e-10
4.01198e-08
7.57062e-10
3.99981e-08
7.43713e-10
3.98789e-08
7.19551e-10
3.97591e-08
7.06995e-10
3.96422e-08
6.81591e-10
3.95251e-08
6.69657e-10
3.94113e-08
6.43082e-10
3.9297e-08
6.32663e-10
3.91862e-08
6.05464e-10
3.9075e-08
5.96742e-10
3.89675e-08
5.68829e-10
3.88599e-08
5.617e-10
3.8756e-08
5.3405e-10
3.86519e-08
5.29569e-10
3.85512e-08
5.03445e-10
3.84501e-08
5.0248e-10
4.79191e-10
4.54519e-08
2.0001e-09
-4.53895e-08
4.5554e-08
2.24506e-09
4.56961e-08
2.47272e-09
4.587e-08
2.67198e-09
4.60525e-08
2.81742e-09
4.62232e-08
2.89053e-09
4.63729e-08
2.89683e-09
4.65006e-08
2.85436e-09
4.66067e-08
2.78146e-09
4.66906e-08
2.69074e-09
4.67523e-08
2.59073e-09
4.67948e-08
2.48886e-09
4.6823e-08
2.39203e-09
4.68416e-08
2.30492e-09
4.68539e-08
2.22901e-09
4.68618e-08
2.16307e-09
4.68665e-08
2.10512e-09
4.68687e-08
2.05324e-09
4.68691e-08
2.00628e-09
4.68681e-08
1.96326e-09
4.68658e-08
1.9237e-09
4.68625e-08
1.88697e-09
4.68582e-08
1.85283e-09
4.68529e-08
1.82082e-09
4.68466e-08
1.79084e-09
4.68395e-08
1.76254e-09
4.68315e-08
1.73592e-09
4.68226e-08
1.71065e-09
4.68128e-08
1.6868e-09
4.68021e-08
1.66401e-09
4.67904e-08
1.6424e-09
4.67778e-08
1.6216e-09
4.67642e-08
1.60182e-09
4.67496e-08
1.58266e-09
4.67338e-08
1.56443e-09
4.6717e-08
1.54666e-09
4.66988e-08
1.52974e-09
4.66795e-08
1.5131e-09
4.66587e-08
1.49722e-09
4.66366e-08
1.48144e-09
4.6613e-08
1.46635e-09
4.65879e-08
1.45122e-09
4.65611e-08
1.43679e-09
4.65329e-08
1.42223e-09
4.65028e-08
1.40841e-09
4.64712e-08
1.39437e-09
4.64376e-08
1.38108e-09
4.64023e-08
1.36739e-09
4.63651e-08
1.35448e-09
4.6326e-08
1.34097e-09
4.62849e-08
1.32831e-09
4.6242e-08
1.3149e-09
4.6197e-08
1.30248e-09
4.61501e-08
1.28915e-09
4.61011e-08
1.27692e-09
4.60503e-08
1.26361e-09
4.59972e-08
1.25147e-09
4.59423e-08
1.23804e-09
4.58853e-08
1.22592e-09
4.58264e-08
1.21228e-09
4.57654e-08
1.20015e-09
4.57027e-08
1.18618e-09
4.56378e-08
1.17403e-09
4.55714e-08
1.15969e-09
4.55028e-08
1.14749e-09
4.54327e-08
1.13271e-09
4.53605e-08
1.12041e-09
4.5287e-08
1.10501e-09
4.52115e-08
1.09253e-09
4.51348e-08
1.07642e-09
4.50562e-08
1.06388e-09
4.49767e-08
1.04698e-09
4.48952e-08
1.03445e-09
4.4813e-08
1.01664e-09
4.47289e-08
1.00397e-09
4.46445e-08
9.85061e-10
4.45582e-08
9.72202e-10
4.44719e-08
9.52265e-10
4.43839e-08
9.39534e-10
4.4296e-08
9.18488e-10
4.42063e-08
9.05993e-10
4.41172e-08
8.83476e-10
4.40264e-08
8.71113e-10
4.39366e-08
8.4685e-10
4.38454e-08
8.34926e-10
4.37552e-08
8.09738e-10
4.36634e-08
7.98735e-10
4.35729e-08
7.72174e-10
4.34813e-08
7.61233e-10
4.33914e-08
7.33014e-10
4.33005e-08
7.2347e-10
4.32112e-08
6.9485e-10
4.31208e-08
6.87141e-10
4.30319e-08
6.5767e-10
4.29428e-08
6.50857e-10
4.28552e-08
6.21568e-10
4.27675e-08
6.17279e-10
4.26811e-08
5.89921e-10
4.2594e-08
5.89585e-10
5.64963e-10
4.72432e-08
1.94025e-09
-4.71833e-08
4.73355e-08
2.15271e-09
4.74595e-08
2.3487e-09
4.76099e-08
2.52159e-09
4.77723e-08
2.65503e-09
4.79295e-08
2.7333e-09
4.80707e-08
2.75573e-09
4.81921e-08
2.73292e-09
4.8294e-08
2.67957e-09
4.83767e-08
2.60798e-09
4.84407e-08
2.52672e-09
4.84877e-08
2.44193e-09
4.85207e-08
2.35895e-09
4.85438e-08
2.28182e-09
4.85601e-08
2.21273e-09
4.85716e-08
2.15156e-09
4.85795e-08
2.09719e-09
4.85847e-08
2.04807e-09
4.85877e-08
2.00327e-09
4.85891e-08
1.96191e-09
4.85891e-08
1.9237e-09
4.8588e-08
1.88805e-09
4.85859e-08
1.85488e-09
4.85831e-08
1.82367e-09
4.85795e-08
1.79445e-09
4.85752e-08
1.76677e-09
4.85704e-08
1.74075e-09
4.85651e-08
1.71597e-09
4.85593e-08
1.69261e-09
4.85531e-08
1.67022e-09
4.85464e-08
1.64905e-09
4.85394e-08
1.62861e-09
4.8532e-08
1.60924e-09
4.85242e-08
1.59042e-09
4.8516e-08
1.57262e-09
4.85075e-08
1.55519e-09
4.84985e-08
1.53873e-09
4.84891e-08
1.52247e-09
4.84793e-08
1.50712e-09
4.84689e-08
1.49179e-09
4.8458e-08
1.47731e-09
4.84465e-08
1.46268e-09
4.84344e-08
1.44892e-09
4.84217e-08
1.43493e-09
4.84082e-08
1.42186e-09
4.83941e-08
1.40845e-09
4.83792e-08
1.39603e-09
4.83635e-08
1.38305e-09
4.83469e-08
1.37113e-09
4.83295e-08
1.35839e-09
4.8311e-08
1.34682e-09
4.82916e-08
1.33423e-09
4.82711e-08
1.32299e-09
4.82497e-08
1.31055e-09
4.8227e-08
1.29959e-09
4.82034e-08
1.28724e-09
4.81784e-08
1.27646e-09
4.81524e-08
1.26404e-09
4.8125e-08
1.25335e-09
4.80965e-08
1.24076e-09
4.80665e-08
1.23015e-09
4.80355e-08
1.21723e-09
4.80028e-08
1.20667e-09
4.79692e-08
1.19336e-09
4.79338e-08
1.18281e-09
4.78975e-08
1.16908e-09
4.78594e-08
1.15851e-09
4.78203e-08
1.14412e-09
4.77794e-08
1.13339e-09
4.77376e-08
1.11818e-09
4.76941e-08
1.10746e-09
4.76497e-08
1.09135e-09
4.76035e-08
1.0807e-09
4.75564e-08
1.06366e-09
4.75075e-08
1.05291e-09
4.74579e-08
1.03464e-09
4.74066e-08
1.02354e-09
4.73547e-08
1.00411e-09
4.73011e-08
9.93156e-10
4.72471e-08
9.72518e-10
4.71912e-08
9.61897e-10
4.71349e-08
9.3974e-10
4.70768e-08
9.29222e-10
4.70187e-08
9.04907e-10
4.69593e-08
8.94371e-10
4.68998e-08
8.69219e-10
4.68387e-08
8.59859e-10
4.67771e-08
8.33744e-10
4.67144e-08
8.23945e-10
4.66519e-08
7.95483e-10
4.65887e-08
7.86676e-10
4.65255e-08
7.58133e-10
4.6461e-08
7.51635e-10
4.6396e-08
7.22584e-10
4.63308e-08
7.16086e-10
4.62655e-08
6.86878e-10
4.62002e-08
6.82558e-10
4.61346e-08
6.55598e-10
4.6068e-08
6.56122e-10
6.31869e-10
4.90916e-08
1.88302e-09
-4.90344e-08
4.91757e-08
2.06863e-09
4.92855e-08
2.23891e-09
4.94169e-08
2.39018e-09
4.95607e-08
2.5112e-09
4.97038e-08
2.59018e-09
4.98358e-08
2.6238e-09
4.99512e-08
2.61745e-09
5.00492e-08
2.58158e-09
5.01303e-08
2.52691e-09
5.01952e-08
2.46183e-09
5.02451e-08
2.39202e-09
5.02822e-08
2.3219e-09
5.03092e-08
2.25476e-09
5.0329e-08
2.19291e-09
5.03437e-08
2.13692e-09
5.03544e-08
2.08647e-09
5.03621e-08
2.04041e-09
5.03672e-08
1.9981e-09
5.03705e-08
1.9587e-09
5.03721e-08
1.92209e-09
5.03724e-08
1.88771e-09
5.03716e-08
1.85564e-09
5.037e-08
1.82532e-09
5.03675e-08
1.7969e-09
5.03645e-08
1.76986e-09
5.03608e-08
1.74443e-09
5.03567e-08
1.72009e-09
5.03521e-08
1.69715e-09
5.03473e-08
1.67507e-09
5.03421e-08
1.6542e-09
5.03368e-08
1.63397e-09
5.03312e-08
1.61484e-09
5.03254e-08
1.59616e-09
5.03195e-08
1.57854e-09
5.03135e-08
1.56119e-09
5.03073e-08
1.5449e-09
5.03011e-08
1.5287e-09
5.02947e-08
1.51352e-09
5.02883e-08
1.49825e-09
5.02816e-08
1.48396e-09
5.02749e-08
1.46942e-09
5.02679e-08
1.45587e-09
5.02609e-08
1.44197e-09
5.02536e-08
1.42914e-09
5.02462e-08
1.41583e-09
5.02385e-08
1.40371e-09
5.02307e-08
1.39086e-09
5.02225e-08
1.37932e-09
5.02142e-08
1.36676e-09
5.02054e-08
1.35563e-09
5.01963e-08
1.34324e-09
5.01868e-08
1.33251e-09
5.01771e-08
1.32032e-09
5.01667e-08
1.30991e-09
5.01561e-08
1.29789e-09
5.01448e-08
1.28773e-09
5.01332e-08
1.27568e-09
5.01208e-08
1.2657e-09
5.01081e-08
1.25352e-09
5.00945e-08
1.24371e-09
5.00805e-08
1.23123e-09
5.00656e-08
1.22155e-09
5.00503e-08
1.20872e-09
5.0034e-08
1.1991e-09
5.00172e-08
1.18589e-09
4.99993e-08
1.17638e-09
4.99809e-08
1.16252e-09
4.99614e-08
1.15291e-09
4.99414e-08
1.13818e-09
4.99201e-08
1.1287e-09
4.98984e-08
1.11304e-09
4.98755e-08
1.10368e-09
4.98519e-08
1.08719e-09
4.9827e-08
1.0778e-09
4.98015e-08
1.06014e-09
4.97748e-08
1.05025e-09
4.97476e-08
1.03138e-09
4.9719e-08
1.02168e-09
4.969e-08
1.00158e-09
4.96595e-08
9.92323e-10
4.96285e-08
9.70828e-10
4.95959e-08
9.61811e-10
4.95627e-08
9.3804e-10
4.95288e-08
9.28351e-10
4.94942e-08
9.03749e-10
4.94586e-08
8.95457e-10
4.94217e-08
8.70715e-10
4.93837e-08
8.61907e-10
4.93451e-08
8.34089e-10
4.93062e-08
8.25599e-10
4.92665e-08
7.97834e-10
4.92258e-08
7.92273e-10
4.91835e-08
7.64931e-10
4.91409e-08
7.58693e-10
4.90971e-08
7.30633e-10
4.90536e-08
7.2606e-10
4.9009e-08
7.0018e-10
4.89636e-08
7.01595e-10
6.78799e-10
5.10009e-08
1.82843e-09
-5.09463e-08
5.10778e-08
1.99173e-09
5.11759e-08
2.14084e-09
5.12918e-08
2.27425e-09
5.14193e-08
2.38375e-09
5.15486e-08
2.46085e-09
5.16708e-08
2.50158e-09
5.17801e-08
2.50815e-09
5.18743e-08
2.48741e-09
5.19534e-08
2.44779e-09
5.20183e-08
2.39694e-09
5.207e-08
2.34029e-09
5.21101e-08
2.28185e-09
5.21405e-08
2.22433e-09
5.21635e-08
2.16991e-09
5.2181e-08
2.11943e-09
5.21943e-08
2.0732e-09
5.22042e-08
2.03046e-09
5.22114e-08
1.99089e-09
5.22164e-08
1.95371e-09
5.22195e-08
1.91896e-09
5.22212e-08
1.88607e-09
5.22216e-08
1.85526e-09
5.22209e-08
1.82596e-09
5.22194e-08
1.79845e-09
5.22171e-08
1.77214e-09
5.22142e-08
1.74736e-09
5.22107e-08
1.72354e-09
5.22068e-08
1.70104e-09
5.22026e-08
1.6793e-09
5.21981e-08
1.65874e-09
5.21933e-08
1.63872e-09
5.21883e-08
1.61981e-09
5.21832e-08
1.60124e-09
5.2178e-08
1.58376e-09
5.21728e-08
1.56645e-09
5.21674e-08
1.55025e-09
5.21621e-08
1.53403e-09
5.21567e-08
1.5189e-09
5.21513e-08
1.5036e-09
5.2146e-08
1.48934e-09
5.21406e-08
1.47476e-09
5.21352e-08
1.46124e-09
5.21299e-08
1.44728e-09
5.21246e-08
1.43448e-09
5.21193e-08
1.42109e-09
5.2114e-08
1.40902e-09
5.21088e-08
1.39607e-09
5.21035e-08
1.38462e-09
5.20983e-08
1.37197e-09
5.2093e-08
1.36097e-09
5.20877e-08
1.3485e-09
5.20823e-08
1.33792e-09
5.20769e-08
1.32569e-09
5.20714e-08
1.31543e-09
5.20659e-08
1.30342e-09
5.20602e-08
1.29345e-09
5.20544e-08
1.28144e-09
5.20484e-08
1.27169e-09
5.20424e-08
1.25957e-09
5.2036e-08
1.25006e-09
5.20296e-08
1.23765e-09
5.20228e-08
1.22833e-09
5.20159e-08
1.21563e-09
5.20086e-08
1.20639e-09
5.20012e-08
1.19334e-09
5.19932e-08
1.18432e-09
5.19851e-08
1.17064e-09
5.19764e-08
1.1616e-09
5.19676e-08
1.147e-09
5.19581e-08
1.1382e-09
5.19484e-08
1.12271e-09
5.19381e-08
1.114e-09
5.19275e-08
1.09784e-09
5.19161e-08
1.08914e-09
5.19043e-08
1.07198e-09
5.18919e-08
1.06264e-09
5.1879e-08
1.04425e-09
5.18655e-08
1.03521e-09
5.18515e-08
1.01556e-09
5.18368e-08
1.00702e-09
5.18215e-08
9.86163e-10
5.18053e-08
9.78051e-10
5.17882e-08
9.55128e-10
5.17708e-08
9.4572e-10
5.17527e-08
9.21822e-10
5.17343e-08
9.13856e-10
5.17144e-08
8.90668e-10
5.16937e-08
8.82598e-10
5.16719e-08
8.55827e-10
5.16502e-08
8.47331e-10
5.16276e-08
8.20466e-10
5.16045e-08
8.15339e-10
5.15793e-08
7.90128e-10
5.15539e-08
7.84136e-10
5.15269e-08
7.57619e-10
5.15002e-08
7.52791e-10
5.14724e-08
7.27955e-10
5.14439e-08
7.30066e-10
7.09104e-10
5.29744e-08
1.77652e-09
-5.29225e-08
5.3045e-08
1.92116e-09
5.31331e-08
2.05269e-09
5.32362e-08
2.17119e-09
5.33495e-08
2.27045e-09
5.34659e-08
2.3444e-09
5.35783e-08
2.38922e-09
5.3681e-08
2.40543e-09
5.37712e-08
2.39726e-09
5.38481e-08
2.37084e-09
5.39124e-08
2.33263e-09
5.39651e-08
2.28765e-09
5.40072e-08
2.23973e-09
5.40403e-08
2.19122e-09
5.40661e-08
2.14415e-09
5.40861e-08
2.09937e-09
5.41017e-08
2.05759e-09
5.41138e-08
2.01838e-09
5.41229e-08
1.98177e-09
5.41296e-08
1.94702e-09
5.41343e-08
1.91433e-09
5.41372e-08
1.88312e-09
5.41387e-08
1.85374e-09
5.41391e-08
1.82562e-09