/*--------------------------------*- C++ -*----------------------------------*\
| =========                 |                                                 |
| \\      /  F ield         | OpenFOAM: The Open Source CFD Toolbox           |
|  \\    /   O peration     | Version:  2.3.0                                 |
|   \\  /    A nd           | Web:      www.OpenFOAM.org                      |
|    \\/     M anipulation  |                                                 |
\*---------------------------------------------------------------------------*/
FoamFile
{
    version     2.0;
    format      ascii;
    class       volVectorField;
    location    "0.05";
    object      U_0;
}
// * * * * * * * * * * * * * * * * * * * * * * * * * * * * * * * * * * * * * //

dimensions      [0 1 -1 0 0 0 0];

internalField   nonuniform List<vector> 
3375
(
(0.173801 0.0060552 0)
(0.157451 0.00606076 0)
(0.141703 0.00561073 0)
(0.126826 0.00499796 0)
(0.113222 0.00432683 0)
(0.101047 0.00364807 0)
(0.0903126 0.00299792 0)
(0.0809888 0.00240109 0)
(0.0730253 0.00187246 0)
(0.0663431 0.00141938 0)
(0.0608363 0.00104308 0)
(0.0563833 0.000739608 0)
(0.0528591 0.000501449 0)
(0.0501448 0.000319445 0)
(0.0481329 0.000183879 0)
(0.0467294 8.2129e-05 0)
(0.0458619 -3.79537e-06 0)
(0.0455058 -7.65788e-05 0)
(0.0456048 -0.000111967 0)
(0.0458751 -9.67717e-05 0)
(0.0462104 -6.78021e-05 0)
(0.0465395 -4.33878e-05 0)
(0.0468235 -2.68709e-05 0)
(0.0470528 -1.69211e-05 0)
(0.0472309 -1.12049e-05 0)
(0.0473655 -7.94444e-06 0)
(0.0474655 -6.11753e-06 0)
(0.0475388 -4.98494e-06 0)
(0.0475921 -4.14321e-06 0)
(0.0476311 -3.44038e-06 0)
(0.0476597 -2.8378e-06 0)
(0.0476811 -2.33283e-06 0)
(0.0476974 -1.92468e-06 0)
(0.0477103 -1.60386e-06 0)
(0.0477206 -1.35241e-06 0)
(0.0477291 -1.14976e-06 0)
(0.0477362 -9.81714e-07 0)
(0.0477423 -8.41919e-07 0)
(0.0477476 -7.25e-07 0)
(0.0477522 -6.26183e-07 0)
(0.0477561 -5.41713e-07 0)
(0.0477596 -4.68905e-07 0)
(0.0477626 -4.05782e-07 0)
(0.0477652 -3.50824e-07 0)
(0.0477675 -3.02935e-07 0)
(0.0477695 -2.61262e-07 0)
(0.0477712 -2.25002e-07 0)
(0.0477727 -1.93509e-07 0)
(0.0477739 -1.6622e-07 0)
(0.0477751 -1.42565e-07 0)
(0.047776 -1.221e-07 0)
(0.0477768 -1.04474e-07 0)
(0.0477776 -8.92981e-08 0)
(0.0477782 -7.61934e-08 0)
(0.0477787 -6.49396e-08 0)
(0.0477791 -5.52905e-08 0)
(0.0477795 -4.70228e-08 0)
(0.0477799 -3.99276e-08 0)
(0.0477801 -3.38621e-08 0)
(0.0477804 -2.86932e-08 0)
(0.0477806 -2.42752e-08 0)
(0.0477808 -2.05194e-08 0)
(0.0477809 -1.73115e-08 0)
(0.047781 -1.45972e-08 0)
(0.0477812 -1.22936e-08 0)
(0.0477812 -1.03395e-08 0)
(0.0477813 -8.69197e-09 0)
(0.0477814 -7.28367e-09 0)
(0.0477814 -6.10937e-09 0)
(0.0477815 -5.11386e-09 0)
(0.0477815 -4.27513e-09 0)
(0.0477816 -3.56441e-09 0)
(0.0477816 -2.96256e-09 0)
(0.0477816 -2.47024e-09 0)
(0.0477816 -2.05456e-09 0)
(0.0477816 -1.71439e-09 0)
(0.0477817 -1.41309e-09 0)
(0.0477817 -1.1657e-09 0)
(0.0477817 -9.66839e-10 0)
(0.0477817 -7.95078e-10 0)
(0.0477817 -6.69363e-10 0)
(0.0477817 -5.34822e-10 0)
(0.0477817 -4.36516e-10 0)
(0.0477817 -3.45092e-10 0)
(0.0477817 -2.77161e-10 0)
(0.0477817 -2.30834e-10 0)
(0.0477817 -1.77252e-10 0)
(0.0477817 -1.47287e-10 0)
(0.0477817 -1.06351e-10 0)
(0.0477817 -8.83574e-11 0)
(0.0477817 -7.35484e-11 0)
(0.0477817 -5.79304e-11 0)
(0.0477817 -5.65946e-11 0)
(0.0477817 -3.40368e-11 0)
(0.0477817 -2.35386e-11 0)
(0.0477817 -9.96089e-12 0)
(0.0477817 -2.46907e-12 0)
(0.0477817 -5.73945e-12 0)
(0.0477817 -9.87877e-12 0)
(0.0477817 -4.05093e-12 0)
(0.192716 0.00944809 0)
(0.190693 0.00986149 0)
(0.18708 0.00959544 0)
(0.182272 0.00907529 0)
(0.176772 0.00842069 0)
(0.170928 0.00767486 0)
(0.164968 0.00687524 0)
(0.15907 0.00605548 0)
(0.153384 0.00524326 0)
(0.14803 0.0044608 0)
(0.143102 0.00372464 0)
(0.138671 0.00304479 0)
(0.134794 0.00242513 0)
(0.131516 0.00186554 0)
(0.128867 0.0013648 0)
(0.126857 0.000920556 0)
(0.125478 0.000528004 0)
(0.124649 0.000188565 0)
(0.124237 -6.78443e-05 0)
(0.124259 -0.000211191 0)
(0.124549 -0.000256807 0)
(0.124975 -0.000245836 0)
(0.125439 -0.000209295 0)
(0.12588 -0.000165882 0)
(0.126264 -0.00012519 0)
(0.126581 -9.11932e-05 0)
(0.126832 -6.48635e-05 0)
(0.127024 -4.55205e-05 0)
(0.127168 -3.1843e-05 0)
(0.127273 -2.24483e-05 0)
(0.127348 -1.61297e-05 0)
(0.127403 -1.19311e-05 0)
(0.127442 -9.14371e-06 0)
(0.127471 -7.26876e-06 0)
(0.127492 -5.96802e-06 0)
(0.127508 -5.01986e-06 0)
(0.127521 -4.28801e-06 0)
(0.127531 -3.69589e-06 0)
(0.12754 -3.20024e-06 0)
(0.127546 -2.77603e-06 0)
(0.127552 -2.40821e-06 0)
(0.127557 -2.08734e-06 0)
(0.127562 -1.80691e-06 0)
(0.127565 -1.56187e-06 0)
(0.127569 -1.34809e-06 0)
(0.127571 -1.16202e-06 0)
(0.127574 -1.00034e-06 0)
(0.127576 -8.60121e-07 0)
(0.127578 -7.38771e-07 0)
(0.127579 -6.33822e-07 0)
(0.127581 -5.43151e-07 0)
(0.127582 -4.64994e-07 0)
(0.127583 -3.97693e-07 0)
(0.127584 -3.39691e-07 0)
(0.127584 -2.89819e-07 0)
(0.127585 -2.46999e-07 0)
(0.127586 -2.10271e-07 0)
(0.127586 -1.7876e-07 0)
(0.127586 -1.51776e-07 0)
(0.127587 -1.28712e-07 0)
(0.127587 -1.09001e-07 0)
(0.127587 -9.2194e-08 0)
(0.127588 -7.78572e-08 0)
(0.127588 -6.56616e-08 0)
(0.127588 -5.52945e-08 0)
(0.127588 -4.64827e-08 0)
(0.127588 -3.90183e-08 0)
(0.127588 -3.26697e-08 0)
(0.127588 -2.73207e-08 0)
(0.127588 -2.28045e-08 0)
(0.127588 -1.89966e-08 0)
(0.127588 -1.5785e-08 0)
(0.127589 -1.30662e-08 0)
(0.127589 -1.08007e-08 0)
(0.127589 -8.89475e-09 0)
(0.127589 -7.31275e-09 0)
(0.127589 -5.96901e-09 0)
(0.127589 -4.84892e-09 0)
(0.127589 -3.93183e-09 0)
(0.127589 -3.15642e-09 0)
(0.127589 -2.538e-09 0)
(0.127589 -1.98121e-09 0)
(0.127589 -1.53494e-09 0)
(0.127589 -1.16576e-09 0)
(0.127589 -8.70667e-10 0)
(0.127589 -6.55954e-10 0)
(0.127589 -4.49028e-10 0)
(0.127589 -3.02442e-10 0)
(0.127589 -1.63446e-10 0)
(0.127589 -7.10391e-11 0)
(0.127589 -7.5746e-13 0)
(0.127589 7.18311e-11 0)
(0.127589 1.15699e-10 0)
(0.127589 1.80201e-10 0)
(0.127589 2.18816e-10 0)
(0.127589 2.46449e-10 0)
(0.127589 2.61387e-10 0)
(0.127589 2.56144e-10 0)
(0.127589 2.48254e-10 0)
(0.127589 1.80556e-10 0)
(0.195642 0.00879388 0)
(0.196687 0.00969265 0)
(0.197101 0.00999392 0)
(0.196769 0.00997108 0)
(0.195815 0.00971262 0)
(0.194363 0.00925463 0)
(0.192511 0.00864082 0)
(0.190359 0.00791839 0)
(0.188013 0.0071293 0)
(0.185583 0.00630781 0)
(0.18317 0.0054799 0)
(0.180867 0.00466302 0)
(0.17876 0.00386747 0)
(0.176921 0.0030997 0)
(0.175403 0.00236597 0)
(0.174236 0.00167533 0)
(0.173421 0.00104404 0)
(0.172925 0.000499424 0)
(0.172655 7.10827e-05 0)
(0.172571 -0.000213602 0)
(0.172661 -0.000367071 0)
(0.172884 -0.000423121 0)
(0.173189 -0.000416608 0)
(0.173531 -0.000375129 0)
(0.173874 -0.000318077 0)
(0.174194 -0.000257897 0)
(0.174476 -0.00020181 0)
(0.174714 -0.000153433 0)
(0.174906 -0.000113986 0)
(0.175058 -8.32152e-05 0)
(0.175173 -6.00728e-05 0)
(0.175258 -4.31869e-05 0)
(0.175321 -3.11627e-05 0)
(0.175365 -2.27527e-05 0)
(0.175397 -1.69315e-05 0)
(0.175419 -1.29086e-05 0)
(0.175435 -1.01043e-05 0)
(0.175447 -8.11096e-06 0)
(0.175455 -6.65268e-06 0)
(0.175461 -5.54884e-06 0)
(0.175466 -4.6839e-06 0)
(0.17547 -3.98521e-06 0)
(0.175473 -3.40729e-06 0)
(0.175476 -2.92117e-06 0)
(0.175478 -2.50776e-06 0)
(0.17548 -2.15394e-06 0)
(0.175481 -1.85002e-06 0)
(0.175483 -1.58847e-06 0)
(0.175484 -1.36332e-06 0)
(0.175485 -1.1694e-06 0)
(0.175486 -1.00235e-06 0)
(0.175486 -8.58554e-07 0)
(0.175487 -7.34849e-07 0)
(0.175488 -6.28365e-07 0)
(0.175488 -5.36782e-07 0)
(0.175488 -4.58111e-07 0)
(0.175489 -3.90565e-07 0)
(0.175489 -3.32583e-07 0)
(0.175489 -2.82849e-07 0)
(0.17549 -2.40273e-07 0)
(0.17549 -2.03837e-07 0)
(0.17549 -1.72695e-07 0)
(0.17549 -1.46096e-07 0)
(0.17549 -1.23403e-07 0)
(0.17549 -1.04074e-07 0)
(0.175491 -8.75929e-08 0)
(0.175491 -7.35839e-08 0)
(0.175491 -6.16697e-08 0)
(0.175491 -5.15911e-08 0)
(0.175491 -4.30805e-08 0)
(0.175491 -3.58773e-08 0)
(0.175491 -2.97989e-08 0)
(0.175491 -2.46448e-08 0)
(0.175491 -2.03266e-08 0)
(0.175491 -1.66876e-08 0)
(0.175491 -1.36475e-08 0)
(0.175491 -1.10878e-08 0)
(0.175491 -8.9488e-09 0)
(0.175491 -7.1795e-09 0)
(0.175491 -5.69555e-09 0)
(0.175491 -4.46778e-09 0)
(0.175491 -3.43213e-09 0)
(0.175491 -2.57187e-09 0)
(0.175491 -1.89631e-09 0)
(0.175491 -1.33141e-09 0)
(0.175491 -9.04061e-10 0)
(0.175491 -5.18479e-10 0)
(0.175491 -2.21725e-10 0)
(0.175491 1.95164e-11 0)
(0.175491 2.10054e-10 0)
(0.175491 3.49309e-10 0)
(0.175491 4.88622e-10 0)
(0.175491 5.86617e-10 0)
(0.175491 6.82292e-10 0)
(0.175491 7.41063e-10 0)
(0.175491 7.66221e-10 0)
(0.175491 7.78482e-10 0)
(0.175491 7.63709e-10 0)
(0.175491 7.38985e-10 0)
(0.175491 5.3662e-10 0)
(0.196654 0.00804873 0)
(0.198023 0.00903981 0)
(0.199291 0.00953834 0)
(0.200271 0.00972096 0)
(0.200956 0.00966349 0)
(0.201358 0.00939533 0)
(0.201481 0.0089494 0)
(0.201339 0.00836444 0)
(0.20097 0.00767692 0)
(0.200422 0.00691792 0)
(0.199755 0.00611229 0)
(0.199025 0.00527886 0)
(0.198291 0.00443201 0)
(0.1976 0.00358493 0)
(0.19699 0.00275343 0)
(0.196481 0.00195906 0)
(0.196076 0.00123189 0)
(0.195765 0.000610685 0)
(0.19553 0.000126692 0)
(0.195344 -0.00020188 0)
(0.195234 -0.000396964 0)
(0.195206 -0.000488352 0)
(0.195247 -0.000507285 0)
(0.195339 -0.000480302 0)
(0.195463 -0.000427671 0)
(0.195603 -0.000363838 0)
(0.195743 -0.00029845 0)
(0.195875 -0.00023746 0)
(0.195991 -0.000184071 0)
(0.196089 -0.000139537 0)
(0.196169 -0.000103829 0)
(0.196231 -7.61478e-05 0)
(0.196278 -5.53072e-05 0)
(0.196312 -4.00075e-05 0)
(0.196337 -2.9008e-05 0)
(0.196354 -2.12252e-05 0)
(0.196365 -1.57726e-05 0)
(0.196373 -1.19621e-05 0)
(0.196378 -9.28335e-06 0)
(0.196381 -7.37253e-06 0)
(0.196383 -5.9783e-06 0)
(0.196384 -4.93198e-06 0)
(0.196385 -4.12305e-06 0)
(0.196385 -3.47992e-06 0)
(0.196386 -2.95634e-06 0)
(0.196386 -2.5223e-06 0)
(0.196386 -2.15774e-06 0)
(0.196386 -1.84875e-06 0)
(0.196386 -1.58543e-06 0)
(0.196387 -1.36016e-06 0)
(0.196387 -1.16694e-06 0)
(0.196387 -1.00096e-06 0)
(0.196387 -8.58323e-07 0)
(0.196387 -7.35584e-07 0)
(0.196387 -6.29948e-07 0)
(0.196387 -5.39084e-07 0)
(0.196387 -4.60927e-07 0)
(0.196387 -3.93706e-07 0)
(0.196387 -3.35899e-07 0)
(0.196387 -2.86274e-07 0)
(0.196387 -2.43684e-07 0)
(0.196387 -2.07161e-07 0)
(0.196387 -1.75868e-07 0)
(0.196388 -1.49072e-07 0)
(0.196388 -1.26169e-07 0)
(0.196388 -1.06565e-07 0)
(0.196388 -8.98344e-08 0)
(0.196388 -7.55656e-08 0)
(0.196388 -6.34468e-08 0)
(0.196388 -5.31814e-08 0)
(0.196388 -4.44572e-08 0)
(0.196388 -3.70689e-08 0)
(0.196388 -3.07831e-08 0)
(0.196388 -2.54905e-08 0)
(0.196388 -2.1016e-08 0)
(0.196388 -1.72571e-08 0)
(0.196388 -1.40899e-08 0)
(0.196388 -1.14311e-08 0)
(0.196388 -9.21845e-09 0)
(0.196388 -7.36096e-09 0)
(0.196388 -5.80324e-09 0)
(0.196388 -4.50737e-09 0)
(0.196388 -3.41621e-09 0)
(0.196388 -2.56452e-09 0)
(0.196388 -1.84231e-09 0)
(0.196388 -1.2823e-09 0)
(0.196388 -7.85502e-10 0)
(0.196388 -3.8563e-10 0)
(0.196388 -6.51659e-11 0)
(0.196388 2.0031e-10 0)
(0.196388 3.89656e-10 0)
(0.196388 5.67172e-10 0)
(0.196388 6.93229e-10 0)
(0.196388 7.98148e-10 0)
(0.196388 8.61182e-10 0)
(0.196388 8.78972e-10 0)
(0.196388 8.85402e-10 0)
(0.196388 8.64286e-10 0)
(0.196388 8.23608e-10 0)
(0.196388 5.64472e-10 0)
(0.197371 0.0074219 0)
(0.198579 0.00834291 0)
(0.199856 0.00886644 0)
(0.20105 0.00910702 0)
(0.202129 0.00913134 0)
(0.20308 0.00896527 0)
(0.203883 0.00863148 0)
(0.20452 0.00815761 0)
(0.204991 0.00757147 0)
(0.205305 0.00689793 0)
(0.205481 0.00615824 0)
(0.205544 0.00537045 0)
(0.205517 0.00455083 0)
(0.205419 0.00371659 0)
(0.205267 0.00288884 0)
(0.20507 0.00209464 0)
(0.204833 0.0013678 0)
(0.204564 0.000746664 0)
(0.20428 0.000262077 0)
(0.203994 -8.49659e-05 0)
(0.203735 -0.00030682 0)
(0.203525 -0.000428129 0)
(0.203366 -0.000475236 0)
(0.203257 -0.00047154 0)
(0.20319 -0.000436046 0)
(0.203155 -0.000383272 0)
(0.203144 -0.0003237 0)
(0.203149 -0.000264444 0)
(0.203162 -0.000209926 0)
(0.203179 -0.000162509 0)
(0.203197 -0.000123067 0)
(0.203212 -9.14678e-05 0)
(0.203225 -6.69622e-05 0)
(0.203235 -4.84936e-05 0)
(0.203243 -3.49178e-05 0)
(0.203247 -2.51471e-05 0)
(0.20325 -1.82314e-05 0)
(0.203251 -1.33915e-05 0)
(0.203251 -1.00207e-05 0)
(0.203251 -7.6666e-06 0)
(0.20325 -6.00434e-06 0)
(0.203249 -4.80803e-06 0)
(0.203248 -3.92512e-06 0)
(0.203247 -3.25474e-06 0)
(0.203245 -2.73108e-06 0)
(0.203245 -2.31155e-06 0)
(0.203244 -1.96841e-06 0)
(0.203243 -1.68316e-06 0)
(0.203242 -1.4433e-06 0)
(0.203242 -1.23994e-06 0)
(0.203241 -1.06645e-06 0)
(0.203241 -9.17803e-07 0)
(0.203241 -7.90118e-07 0)
(0.20324 -6.80159e-07 0)
(0.20324 -5.85316e-07 0)
(0.20324 -5.03477e-07 0)
(0.20324 -4.32806e-07 0)
(0.20324 -3.71758e-07 0)
(0.20324 -3.18995e-07 0)
(0.203239 -2.7346e-07 0)
(0.203239 -2.34161e-07 0)
(0.203239 -2.00261e-07 0)
(0.203239 -1.71043e-07 0)
(0.203239 -1.45869e-07 0)
(0.203239 -1.24219e-07 0)
(0.203239 -1.05569e-07 0)
(0.203239 -8.95514e-08 0)
(0.203239 -7.58143e-08 0)
(0.203239 -6.40776e-08 0)
(0.203239 -5.40796e-08 0)
(0.203239 -4.5528e-08 0)
(0.203239 -3.82405e-08 0)
(0.203239 -3.20032e-08 0)
(0.203239 -2.67178e-08 0)
(0.203239 -2.22243e-08 0)
(0.203239 -1.84233e-08 0)
(0.203239 -1.52063e-08 0)
(0.203239 -1.24883e-08 0)
(0.203239 -1.02102e-08 0)
(0.203239 -8.28918e-09 0)
(0.203239 -6.65937e-09 0)
(0.203239 -5.30721e-09 0)
(0.203239 -4.15672e-09 0)
(0.203239 -3.25776e-09 0)
(0.203239 -2.48792e-09 0)
(0.203239 -1.87886e-09 0)
(0.203239 -1.33959e-09 0)
(0.203239 -8.91355e-10 0)
(0.203239 -5.32972e-10 0)
(0.203239 -2.3219e-10 0)
(0.203239 -1.77174e-11 0)
(0.203239 1.79597e-10 0)
(0.203239 3.24842e-10 0)
(0.203239 4.37461e-10 0)
(0.203239 5.07456e-10 0)
(0.203239 5.26872e-10 0)
(0.203239 5.36257e-10 0)
(0.203239 5.21432e-10 0)
(0.203239 4.85889e-10 0)
(0.203239 2.89519e-10 0)
(0.197981 0.00686207 0)
(0.199001 0.00767796 0)
(0.200134 0.00818406 0)
(0.201264 0.00844344 0)
(0.20235 0.00850702 0)
(0.203375 0.00839802 0)
(0.204318 0.00813414 0)
(0.205158 0.00773673 0)
(0.205881 0.00722834 0)
(0.206482 0.00662987 0)
(0.206963 0.00596004 0)
(0.207326 0.00523588 0)
(0.207575 0.00447406 0)
(0.207715 0.00369301 0)
(0.207749 0.00291496 0)
(0.207679 0.00216714 0)
(0.207513 0.00148119 0)
(0.207267 0.000890087 0)
(0.206967 0.000419305 0)
(0.206646 7.19482e-05 0)
(0.206331 -0.000162301 0)
(0.206045 -0.000303373 0)
(0.205799 -0.000373052 0)
(0.205596 -0.000391481 0)
(0.205434 -0.000375799 0)
(0.20531 -0.000339669 0)
(0.205218 -0.000293373 0)
(0.205151 -0.000244212 0)
(0.205104 -0.000197014 0)
(0.205072 -0.000154642 0)
(0.205051 -0.000118481 0)
(0.205036 -8.88664e-05 0)
(0.205027 -6.54509e-05 0)
(0.20502 -4.74977e-05 0)
(0.205015 -3.41013e-05 0)
(0.205011 -2.434e-05 0)
(0.205008 -1.73693e-05 0)
(0.205004 -1.24706e-05 0)
(0.205001 -9.06589e-06 0)
(0.204999 -6.71165e-06 0)
(0.204996 -5.08076e-06 0)
(0.204994 -3.94013e-06 0)
(0.204991 -3.1287e-06 0)
(0.20499 -2.53786e-06 0)
(0.204988 -2.09573e-06 0)
(0.204986 -1.75547e-06 0)
(0.204985 -1.48664e-06 0)
(0.204984 -1.26919e-06 0)
(0.204983 -1.08998e-06 0)
(0.204982 -9.40118e-07 0)
(0.204981 -8.13312e-07 0)
(0.20498 -7.05e-07 0)
(0.20498 -6.11914e-07 0)
(0.20498 -5.315e-07 0)
(0.204979 -4.61757e-07 0)
(0.204979 -4.01138e-07 0)
(0.204979 -3.48333e-07 0)
(0.204978 -3.02285e-07 0)
(0.204978 -2.62072e-07 0)
(0.204978 -2.26992e-07 0)
(0.204978 -1.96376e-07 0)
(0.204978 -1.69662e-07 0)
(0.204978 -1.46378e-07 0)
(0.204978 -1.26086e-07 0)
(0.204978 -1.08441e-07 0)
(0.204978 -9.3069e-08 0)
(0.204978 -7.97245e-08 0)
(0.204978 -6.81669e-08 0)
(0.204977 -5.8194e-08 0)
(0.204977 -4.9616e-08 0)
(0.204977 -4.22001e-08 0)
(0.204977 -3.58166e-08 0)
(0.204977 -3.03003e-08 0)
(0.204977 -2.55833e-08 0)
(0.204977 -2.15384e-08 0)
(0.204977 -1.80841e-08 0)
(0.204977 -1.5137e-08 0)
(0.204977 -1.26247e-08 0)
(0.204977 -1.04979e-08 0)
(0.204977 -8.69112e-09 0)
(0.204977 -7.13823e-09 0)
(0.204977 -5.84748e-09 0)
(0.204977 -4.73798e-09 0)
(0.204977 -3.86734e-09 0)
(0.204977 -3.1143e-09 0)
(0.204977 -2.50697e-09 0)
(0.204977 -1.9681e-09 0)
(0.204977 -1.51069e-09 0)
(0.204977 -1.14549e-09 0)
(0.204977 -8.32375e-10 0)
(0.204977 -6.02362e-10 0)
(0.204977 -3.91572e-10 0)
(0.204977 -2.30778e-10 0)
(0.204977 -1.10542e-10 0)
(0.204977 -3.26406e-11 0)
(0.204977 -6.96668e-12 0)
(0.204977 1.03245e-11 0)
(0.204977 9.14742e-12 0)
(0.204977 -4.44244e-12 0)
(0.204977 -9.46605e-11 0)
(0.198513 0.00637014 0)
(0.199383 0.00708144 0)
(0.200369 0.00755415 0)
(0.201384 0.00781483 0)
(0.202388 0.00789783 0)
(0.203357 0.00782331 0)
(0.204272 0.00760657 0)
(0.205113 0.00726524 0)
(0.205866 0.00681841 0)
(0.206521 0.00628444 0)
(0.207071 0.00568035 0)
(0.207513 0.00502227 0)
(0.207843 0.00432662 0)
(0.208058 0.00361158 0)
(0.208159 0.0028985 0)
(0.208145 0.00221238 0)
(0.208025 0.00158085 0)
(0.207815 0.00103108 0)
(0.207543 0.000583455 0)
(0.207239 0.000242947 0)
(0.206931 1.75323e-06 0)
(0.206641 -0.000155089 0)
(0.206381 -0.000245114 0)
(0.206158 -0.000285268 0)
(0.205971 -0.000290497 0)
(0.20582 -0.000273157 0)
(0.205701 -0.000242895 0)
(0.205609 -0.000206843 0)
(0.20554 -0.000169959 0)
(0.205489 -0.000135414 0)
(0.205452 -0.000104991 0)
(0.205425 -7.94431e-05 0)
(0.205405 -5.88169e-05 0)
(0.205391 -4.27205e-05 0)
(0.20538 -3.05307e-05 0)
(0.205372 -2.15435e-05 0)
(0.205366 -1.50732e-05 0)
(0.20536 -1.05105e-05 0)
(0.205356 -7.34828e-06 0)
(0.205352 -5.18577e-06 0)
(0.205349 -3.71958e-06 0)
(0.205346 -2.72837e-06 0)
(0.205343 -2.05581e-06 0)
(0.205341 -1.59444e-06 0)
(0.205339 -1.27215e-06 0)
(0.205337 -1.04148e-06 0)
(0.205335 -8.71578e-07 0)
(0.205334 -7.42366e-07 0)
(0.205333 -6.40965e-07 0)
(0.205332 -5.59094e-07 0)
(0.205331 -4.91273e-07 0)
(0.20533 -4.33786e-07 0)
(0.20533 -3.84228e-07 0)
(0.205329 -3.40956e-07 0)
(0.205329 -3.02785e-07 0)
(0.205329 -2.6889e-07 0)
(0.205328 -2.38627e-07 0)
(0.205328 -2.11548e-07 0)
(0.205328 -1.87251e-07 0)
(0.205328 -1.65475e-07 0)
(0.205327 -1.45951e-07 0)
(0.205327 -1.28459e-07 0)
(0.205327 -1.12827e-07 0)
(0.205327 -9.8871e-08 0)
(0.205327 -8.64567e-08 0)
(0.205327 -7.53982e-08 0)
(0.205327 -6.55997e-08 0)
(0.205327 -5.6954e-08 0)
(0.205327 -4.93567e-08 0)
(0.205327 -4.27063e-08 0)
(0.205327 -3.68499e-08 0)
(0.205327 -3.17246e-08 0)
(0.205327 -2.72273e-08 0)
(0.205327 -2.33283e-08 0)
(0.205327 -1.994e-08 0)
(0.205327 -1.70056e-08 0)
(0.205327 -1.44703e-08 0)
(0.205327 -1.22809e-08 0)
(0.205327 -1.04017e-08 0)
(0.205327 -8.78783e-09 0)
(0.205327 -7.37918e-09 0)
(0.205327 -6.2023e-09 0)
(0.205327 -5.17939e-09 0)
(0.205327 -4.37047e-09 0)
(0.205327 -3.66298e-09 0)
(0.205327 -3.08042e-09 0)
(0.205327 -2.56123e-09 0)
(0.205327 -2.11214e-09 0)
(0.205327 -1.75252e-09 0)
(0.205327 -1.43879e-09 0)
(0.205327 -1.20116e-09 0)
(0.205327 -9.82958e-10 0)
(0.205327 -8.10946e-10 0)
(0.205327 -6.84433e-10 0)
(0.205327 -5.99384e-10 0)
(0.205327 -5.65466e-10 0)
(0.205327 -5.37854e-10 0)
(0.205327 -5.21742e-10 0)
(0.205327 -5.06693e-10 0)
(0.205327 -5.05442e-10 0)
(0.198979 0.00593188 0)
(0.199732 0.0065458 0)
(0.20059 0.00697584 0)
(0.201494 0.00722692 0)
(0.202403 0.00731938 0)
(0.203291 0.00726925 0)
(0.204139 0.00708959 0)
(0.20493 0.00679501 0)
(0.205647 0.0064017 0)
(0.206281 0.00592589 0)
(0.206823 0.00538319 0)
(0.207268 0.00478891 0)
(0.207609 0.00415883 0)
(0.207843 0.0035103 0)
(0.207968 0.00286303 0)
(0.207986 0.0022392 0)
(0.207904 0.00166236 0)
(0.207737 0.00115477 0)
(0.207509 0.000732924 0)
(0.207246 0.000402438 0)
(0.206973 0.000158676 0)
(0.206709 -9.55336e-06 0)
(0.206467 -0.00011599 0)
(0.206254 -0.000174732 0)
(0.206072 -0.000198703 0)
(0.205922 -0.000198913 0)
(0.2058 -0.000184239 0)
(0.205704 -0.000161469 0)
(0.205629 -0.000135509 0)
(0.205573 -0.000109672 0)
(0.20553 -8.599e-05 0)
(0.205498 -6.55214e-05 0)
(0.205475 -4.86267e-05 0)
(0.205457 -3.52109e-05 0)
(0.205444 -2.49125e-05 0)
(0.205434 -1.72447e-05 0)
(0.205426 -1.1693e-05 0)
(0.20542 -7.77685e-06 0)
(0.205415 -5.08129e-06 0)
(0.20541 -3.26867e-06 0)
(0.205407 -2.07699e-06 0)
(0.205403 -1.31068e-06 0)
(0.2054 -8.28865e-07 0)
(0.205398 -5.33026e-07 0)
(0.205396 -3.56083e-07 0)
(0.205394 -2.53489e-07 0)
(0.205392 -1.96318e-07 0)
(0.205391 -1.65961e-07 0)
(0.20539 -1.50771e-07 0)
(0.205389 -1.43667e-07 0)
(0.205388 -1.40373e-07 0)
(0.205387 -1.38314e-07 0)
(0.205387 -1.36146e-07 0)
(0.205386 -1.33252e-07 0)
(0.205386 -1.29373e-07 0)
(0.205385 -1.24494e-07 0)
(0.205385 -1.18706e-07 0)
(0.205385 -1.12224e-07 0)
(0.205385 -1.05214e-07 0)
(0.205384 -9.78964e-08 0)
(0.205384 -9.04349e-08 0)
(0.205384 -8.29836e-08 0)
(0.205384 -7.56956e-08 0)
(0.205384 -6.86577e-08 0)
(0.205384 -6.19651e-08 0)
(0.205384 -5.56348e-08 0)
(0.205384 -4.97316e-08 0)
(0.205384 -4.42883e-08 0)
(0.205384 -3.93069e-08 0)
(0.205384 -3.4782e-08 0)
(0.205384 -3.06507e-08 0)
(0.205384 -2.69238e-08 0)
(0.205384 -2.35645e-08 0)
(0.205384 -2.05839e-08 0)
(0.205384 -1.79354e-08 0)
(0.205384 -1.55899e-08 0)
(0.205384 -1.35222e-08 0)
(0.205384 -1.17021e-08 0)
(0.205384 -1.01088e-08 0)
(0.205384 -8.71911e-09 0)
(0.205384 -7.48263e-09 0)
(0.205384 -6.44039e-09 0)
(0.205384 -5.52271e-09 0)
(0.205384 -4.78819e-09 0)
(0.205384 -4.13746e-09 0)
(0.205384 -3.58926e-09 0)
(0.205384 -3.09793e-09 0)
(0.205384 -2.66552e-09 0)
(0.205384 -2.3169e-09 0)
(0.205384 -2.00791e-09 0)
(0.205384 -1.76616e-09 0)
(0.205384 -1.54389e-09 0)
(0.205384 -1.36396e-09 0)
(0.205384 -1.23241e-09 0)
(0.205384 -1.14096e-09 0)
(0.205384 -1.09744e-09 0)
(0.205384 -1.05781e-09 0)
(0.205384 -1.02251e-09 0)
(0.205384 -9.78075e-10 0)
(0.205384 -9.12603e-10 0)
(0.199389 0.00553373 0)
(0.200048 0.00606039 0)
(0.2008 0.0064444 0)
(0.201603 0.00667956 0)
(0.202421 0.00677565 0)
(0.203228 0.00674398 0)
(0.204006 0.0065952 0)
(0.204735 0.00634127 0)
(0.205404 0.00599583 0)
(0.205999 0.00557315 0)
(0.206514 0.00508749 0)
(0.20694 0.00455319 0)
(0.207273 0.00398521 0)
(0.207509 0.00339973 0)
(0.207647 0.00281464 0)
(0.207687 0.00224939 0)
(0.207638 0.00172396 0)
(0.207513 0.00125674 0)
(0.20733 0.000861327 0)
(0.207112 0.000543389 0)
(0.20688 0.000300568 0)
(0.206651 0.000124848 0)
(0.206436 5.47412e-06 0)
(0.206243 -6.9006e-05 0)
(0.206075 -0.000109502 0)
(0.205934 -0.000125672 0)
(0.205818 -0.000125533 0)
(0.205724 -0.00011541 0)
(0.20565 -0.000100044 0)
(0.205593 -8.27887e-05 0)
(0.205549 -6.58523e-05 0)
(0.205515 -5.05447e-05 0)
(0.20549 -3.75049e-05 0)
(0.205471 -2.69084e-05 0)
(0.205456 -1.86382e-05 0)
(0.205445 -1.24148e-05 0)
(0.205436 -7.89086e-06 0)
(0.205429 -4.71256e-06 0)
(0.205423 -2.55788e-06 0)
(0.205419 -1.154e-06 0)
(0.205415 -2.82466e-07 0)
(0.205411 2.24087e-07 0)
(0.205408 4.88853e-07 0)
(0.205406 5.99384e-07 0)
(0.205404 6.16074e-07 0)
(0.205402 5.79291e-07 0)
(0.2054 5.15097e-07 0)
(0.205399 4.39899e-07 0)
(0.205398 3.63582e-07 0)
(0.205397 2.91694e-07 0)
(0.205396 2.27062e-07 0)
(0.205395 1.70917e-07 0)
(0.205394 1.23396e-07 0)
(0.205394 8.40161e-08 0)
(0.205393 5.20404e-08 0)
(0.205393 2.66031e-08 0)
(0.205393 6.8269e-09 0)
(0.205392 -8.19372e-09 0)
(0.205392 -1.92278e-08 0)
(0.205392 -2.70031e-08 0)
(0.205392 -3.2136e-08 0)
(0.205392 -3.51748e-08 0)
(0.205392 -3.66092e-08 0)
(0.205392 -3.68072e-08 0)
(0.205392 -3.61029e-08 0)
(0.205391 -3.4724e-08 0)
(0.205391 -3.29027e-08 0)
(0.205391 -3.08145e-08 0)
(0.205391 -2.8574e-08 0)
(0.205391 -2.6278e-08 0)
(0.205391 -2.39604e-08 0)
(0.205391 -2.17085e-08 0)
(0.205391 -1.95527e-08 0)
(0.205391 -1.75453e-08 0)
(0.205391 -1.56811e-08 0)
(0.205391 -1.39615e-08 0)
(0.205391 -1.23912e-08 0)
(0.205391 -1.09653e-08 0)
(0.205391 -9.6792e-09 0)
(0.205391 -8.53103e-09 0)
(0.205391 -7.48297e-09 0)
(0.205391 -6.58699e-09 0)
(0.205391 -5.78486e-09 0)
(0.205391 -5.13156e-09 0)
(0.205391 -4.54365e-09 0)
(0.205391 -4.03575e-09 0)
(0.205391 -3.57738e-09 0)
(0.205391 -3.16728e-09 0)
(0.205391 -2.83317e-09 0)
(0.205391 -2.53241e-09 0)
(0.205391 -2.28903e-09 0)
(0.205391 -2.06494e-09 0)
(0.205391 -1.87949e-09 0)
(0.205391 -1.74361e-09 0)
(0.205391 -1.646e-09 0)
(0.205391 -1.59161e-09 0)
(0.205391 -1.53846e-09 0)
(0.205391 -1.48291e-09 0)
(0.205391 -1.41079e-09 0)
(0.205391 -1.30265e-09 0)
(0.199748 0.00516671 0)
(0.200333 0.00561714 0)
(0.200996 0.00595562 0)
(0.201709 0.00617122 0)
(0.202444 0.00626652 0)
(0.203176 0.00624853 0)
(0.203885 0.00612543 0)
(0.204555 0.00590694 0)
(0.205173 0.00560445 0)
(0.205728 0.00523036 0)
(0.206211 0.00479755 0)
(0.206615 0.00431924 0)
(0.206936 0.00380931 0)
(0.20717 0.00328264 0)
(0.207315 0.00275528 0)
(0.207375 0.00224421 0)
(0.207355 0.00176642 0)
(0.207267 0.00133723 0)
(0.207126 0.000968049 0)
(0.20695 0.000664355 0)
(0.206758 0.000425372 0)
(0.206563 0.000245589 0)
(0.206376 0.000116803 0)
(0.206205 2.97909e-05 0)
(0.206055 -2.45698e-05 0)
(0.205925 -5.45857e-05 0)
(0.205817 -6.73961e-05 0)
(0.205728 -6.88171e-05 0)
(0.205656 -6.33579e-05 0)
(0.2056 -5.43306e-05 0)
(0.205556 -4.40356e-05 0)
(0.205522 -3.3948e-05 0)
(0.205496 -2.49208e-05 0)
(0.205476 -1.73536e-05 0)
(0.20546 -1.13364e-05 0)
(0.205448 -6.77145e-06 0)
(0.205439 -3.46261e-06 0)
(0.205431 -1.17797e-06 0)
(0.205425 3.12146e-07 0)
(0.20542 1.2126e-06 0)
(0.205416 1.69367e-06 0)
(0.205412 1.88944e-06 0)
(0.205409 1.90074e-06 0)
(0.205407 1.80031e-06 0)
(0.205404 1.63874e-06 0)
(0.205402 1.4499e-06 0)
(0.205401 1.25536e-06 0)
(0.205399 1.06815e-06 0)
(0.205398 8.95585e-07 0)
(0.205397 7.41153e-07 0)
(0.205396 6.0589e-07 0)
(0.205396 4.89433e-07 0)
(0.205395 3.90553e-07 0)
(0.205395 3.07568e-07 0)
(0.205394 2.38669e-07 0)
(0.205394 1.82045e-07 0)
(0.205394 1.35987e-07 0)
(0.205393 9.88772e-08 0)
(0.205393 6.93103e-08 0)
(0.205393 4.60366e-08 0)
(0.205393 2.79672e-08 0)
(0.205393 1.41495e-08 0)
(0.205393 3.7514e-09 0)
(0.205392 -3.88594e-09 0)
(0.205392 -9.33835e-09 0)
(0.205392 -1.30518e-08 0)
(0.205392 -1.54283e-08 0)
(0.205392 -1.67886e-08 0)
(0.205392 -1.73665e-08 0)
(0.205392 -1.73652e-08 0)
(0.205392 -1.69202e-08 0)
(0.205392 -1.61952e-08 0)
(0.205392 -1.5287e-08 0)
(0.205392 -1.42888e-08 0)
(0.205392 -1.32378e-08 0)
(0.205392 -1.21677e-08 0)
(0.205392 -1.11145e-08 0)
(0.205392 -1.00997e-08 0)
(0.205392 -9.13615e-09 0)
(0.205392 -8.2423e-09 0)
(0.205392 -7.39481e-09 0)
(0.205392 -6.65364e-09 0)
(0.205392 -5.97428e-09 0)
(0.205392 -5.40723e-09 0)
(0.205392 -4.88651e-09 0)
(0.205392 -4.42383e-09 0)
(0.205392 -4.0025e-09 0)
(0.205392 -3.6193e-09 0)
(0.205392 -3.3025e-09 0)
(0.205392 -3.01266e-09 0)
(0.205392 -2.76982e-09 0)
(0.205392 -2.54578e-09 0)
(0.205392 -2.35682e-09 0)
(0.205392 -2.21705e-09 0)
(0.205392 -2.11305e-09 0)
(0.205392 -2.04648e-09 0)
(0.205392 -1.9784e-09 0)
(0.205392 -1.90219e-09 0)
(0.205392 -1.80503e-09 0)
(0.205392 -1.66838e-09 0)
(0.200064 0.00482467 0)
(0.200587 0.00520932 0)
(0.201176 0.00550486 0)
(0.201812 0.00569912 0)
(0.202471 0.00579034 0)
(0.203133 0.00578208 0)
(0.203778 0.00568026 0)
(0.204392 0.00549261 0)
(0.204962 0.00522857 0)
(0.205476 0.00489878 0)
(0.205928 0.00451467 0)
(0.20631 0.00408825 0)
(0.206618 0.00363219 0)
(0.206848 0.00315997 0)
(0.207 0.00268588 0)
(0.207076 0.00222471 0)
(0.207081 0.00179095 0)
(0.207025 0.00139748 0)
(0.206921 0.00105402 0)
(0.206784 0.000765749 0)
(0.206627 0.000532973 0)
(0.206465 0.000352073 0)
(0.206306 0.000216927 0)
(0.206157 0.000120255 0)
(0.206023 5.45402e-05 0)
(0.205907 1.27005e-05 0)
(0.205807 -1.15213e-05 0)
(0.205724 -2.33742e-05 0)
(0.205657 -2.70472e-05 0)
(0.205602 -2.57485e-05 0)
(0.205559 -2.18003e-05 0)
(0.205525 -1.67921e-05 0)
(0.205499 -1.17419e-05 0)
(0.205478 -7.23013e-06 0)
(0.205462 -3.52559e-06 0)
(0.20545 -6.93486e-07 0)
(0.20544 1.32287e-06 0)
(0.205432 2.64193e-06 0)
(0.205425 3.40483e-06 0)
(0.20542 3.74984e-06 0)
(0.205416 3.79875e-06 0)
(0.205412 3.6513e-06 0)
(0.205409 3.38447e-06 0)
(0.205407 3.05467e-06 0)
(0.205404 2.70129e-06 0)
(0.205402 2.35046e-06 0)
(0.205401 2.0183e-06 0)
(0.205399 1.71378e-06 0)
(0.205398 1.44107e-06 0)
(0.205397 1.20118e-06 0)
(0.205397 9.93089e-07 0)
(0.205396 8.14651e-07 0)
(0.205395 6.63124e-07 0)
(0.205395 5.35531e-07 0)
(0.205394 4.28924e-07 0)
(0.205394 3.40488e-07 0)
(0.205394 2.67644e-07 0)
(0.205393 2.08034e-07 0)
(0.205393 1.59605e-07 0)
(0.205393 1.20557e-07 0)
(0.205393 8.93178e-08 0)
(0.205393 6.45245e-08 0)
(0.205393 4.49996e-08 0)
(0.205393 2.97874e-08 0)
(0.205393 1.8067e-08 0)
(0.205392 9.17046e-09 0)
(0.205392 2.52233e-09 0)
(0.205392 -2.34639e-09 0)
(0.205392 -5.79432e-09 0)
(0.205392 -8.1347e-09 0)
(0.205392 -9.60588e-09 0)
(0.205392 -1.04466e-08 0)
(0.205392 -1.08175e-08 0)
(0.205392 -1.08535e-08 0)
(0.205392 -1.06351e-08 0)
(0.205392 -1.02313e-08 0)
(0.205392 -9.7098e-09 0)
(0.205392 -9.11925e-09 0)
(0.205392 -8.49082e-09 0)
(0.205392 -7.86206e-09 0)
(0.205392 -7.22528e-09 0)
(0.205392 -6.64615e-09 0)
(0.205392 -6.09522e-09 0)
(0.205392 -5.61889e-09 0)
(0.205392 -5.16915e-09 0)
(0.205392 -4.75638e-09 0)
(0.205392 -4.37583e-09 0)
(0.205392 -4.02354e-09 0)
(0.205392 -3.72653e-09 0)
(0.205392 -3.44979e-09 0)
(0.205392 -3.20958e-09 0)
(0.205392 -2.98722e-09 0)
(0.205392 -2.79652e-09 0)
(0.205392 -2.65307e-09 0)
(0.205392 -2.54218e-09 0)
(0.205392 -2.46218e-09 0)
(0.205392 -2.37797e-09 0)
(0.205392 -2.28125e-09 0)
(0.205392 -2.162e-09 0)
(0.205392 -2.00559e-09 0)
(0.200343 0.00450326 0)
(0.200814 0.00483147 0)
(0.20134 0.0050877 0)
(0.201908 0.00526029 0)
(0.2025 0.00534524 0)
(0.203098 0.00534357 0)
(0.203684 0.00525928 0)
(0.204245 0.00509836 0)
(0.204769 0.00486854 0)
(0.205246 0.00457885 0)
(0.205667 0.0042393 0)
(0.206028 0.00386063 0)
(0.206322 0.00345424 0)
(0.206548 0.00303219 0)
(0.206705 0.00260712 0)
(0.206795 0.00219187 0)
(0.206821 0.00179882 0)
(0.206794 0.00143892 0)
(0.206722 0.00112053 0)
(0.206618 0.000848479 0)
(0.206494 0.00062381 0)
(0.206361 0.000444323 0)
(0.206228 0.00030558 0)
(0.206101 0.000201922 0)
(0.205985 0.00012726 0)
(0.205881 7.56463e-05 0)
(0.205791 4.16651e-05 0)
(0.205715 2.06426e-05 0)
(0.205652 8.73906e-06 0)
(0.205601 2.91737e-06 0)
(0.205559 8.89688e-07 0)
(0.205526 1.00361e-06 0)
(0.2055 2.134e-06 0)
(0.205479 3.56707e-06 0)
(0.205463 4.88955e-06 0)
(0.20545 5.89792e-06 0)
(0.20544 6.52608e-06 0)
(0.205432 6.79028e-06 0)
(0.205425 6.74857e-06 0)
(0.20542 6.47453e-06 0)
(0.205416 6.04116e-06 0)
(0.205412 5.51225e-06 0)
(0.205409 4.9389e-06 0)
(0.205406 4.35912e-06 0)
(0.205404 3.79923e-06 0)
(0.205402 3.27606e-06 0)
(0.205401 2.79903e-06 0)
(0.205399 2.37214e-06 0)