/*--------------------------------*- C++ -*----------------------------------*\
| =========                 |                                                 |
| \\      /  F ield         | OpenFOAM: The Open Source CFD Toolbox           |
|  \\    /   O peration     | Version:  2.3.0                                 |
|   \\  /    A nd           | Web:      www.OpenFOAM.org                      |
|    \\/     M anipulation  |                                                 |
\*---------------------------------------------------------------------------*/
FoamFile
{
    version     2.0;
    format      ascii;
    class       surfaceScalarField;
    location    "0.25";
    object      phi_0;
}
// * * * * * * * * * * * * * * * * * * * * * * * * * * * * * * * * * * * * * //

dimensions      [0 3 -1 0 0 0 0];

internalField   nonuniform List<scalar> 
5273
(
3.15604e-08
3.0246e-09
2.8664e-08
2.89643e-09
2.60226e-08
2.64143e-09
2.35248e-08
2.49775e-09
2.11885e-08
2.33631e-09
1.90463e-08
2.14219e-09
1.71143e-08
1.93201e-09
1.53964e-08
1.7179e-09
1.38895e-08
1.50694e-09
1.25847e-08
1.30472e-09
1.14687e-08
1.11609e-09
1.05239e-08
9.44779e-10
9.73075e-09
7.93121e-10
9.06867e-09
6.62086e-10
8.51725e-09
5.51414e-10
8.05741e-09
4.59847e-10
7.67197e-09
3.85433e-10
7.34614e-09
3.25833e-10
7.06754e-09
2.78602e-10
6.82614e-09
2.41396e-10
6.61403e-09
2.12108e-10
6.42509e-09
1.88943e-10
6.25466e-09
1.7043e-10
6.09925e-09
1.5541e-10
5.95625e-09
1.42995e-10
5.82373e-09
1.32524e-10
5.70022e-09
1.23513e-10
5.5846e-09
1.15617e-10
5.47601e-09
1.08589e-10
5.37375e-09
1.02256e-10
5.27726e-09
9.64959e-11
5.18604e-09
9.12183e-11
5.09968e-09
8.63576e-11
5.01782e-09
8.18627e-11
4.94013e-09
7.76926e-11
4.86631e-09
7.3813e-11
4.79612e-09
7.0194e-11
4.72931e-09
6.68092e-11
4.66568e-09
6.36347e-11
4.60503e-09
6.06487e-11
4.5472e-09
5.78311e-11
4.49203e-09
5.51637e-11
4.4394e-09
5.26296e-11
4.38919e-09
5.02133e-11
4.34129e-09
4.79006e-11
4.29561e-09
4.56787e-11
4.25208e-09
4.35357e-11
4.21061e-09
4.14609e-11
4.17117e-09
3.94447e-11
4.13369e-09
3.74784e-11
4.09814e-09
3.55541e-11
4.06447e-09
3.36637e-11
4.03267e-09
3.17991e-11
4.00272e-09
2.99509e-11
3.97462e-09
2.81081e-11
3.94836e-09
2.62579e-11
3.92397e-09
2.43863e-11
3.90149e-09
2.24792e-11
3.88097e-09
2.05251e-11
3.86245e-09
1.8518e-11
3.84599e-09
1.6461e-11
3.83162e-09
1.43685e-11
3.81935e-09
1.22683e-11
3.80915e-09
1.02007e-11
3.80093e-09
8.21588e-12
3.79457e-09
6.36812e-12
3.78986e-09
4.70857e-12
3.78658e-09
3.27712e-12
3.78448e-09
2.09697e-12
3.78331e-09
1.17245e-12
3.78282e-09
4.91044e-13
3.78277e-09
4.98447e-14
3.78294e-09
-1.65708e-13
3.78316e-09
-2.2314e-13
3.78333e-09
-1.66995e-13
3.78333e-09
-3.75205e-15
3.78306e-09
2.71875e-13
3.78241e-09
6.45755e-13
3.78136e-09
1.0549e-12
3.7799e-09
1.45752e-12
3.77808e-09
1.82498e-12
3.77594e-09
2.13797e-12
3.77355e-09
2.38522e-12
3.77099e-09
2.56261e-12
3.76832e-09
2.67181e-12
3.7656e-09
2.71879e-12
3.76289e-09
2.71218e-12
3.76022e-09
2.66187e-12
3.75765e-09
2.57777e-12
3.75518e-09
2.46921e-12
3.75283e-09
2.34467e-12
3.75062e-09
2.21179e-12
3.74854e-09
2.07802e-12
3.74659e-09
1.95212e-12
3.74474e-09
1.84695e-12
3.74296e-09
1.78548e-12
3.74114e-09
1.81717e-12
3.73909e-09
2.05468e-12
3.73635e-09
2.73192e-12
9.37653e-12
3.64392e-08
2.45547e-09
3.61717e-08
3.1639e-09
3.55862e-08
3.2269e-09
3.48048e-08
3.27916e-09
3.38658e-08
3.27533e-09
3.28249e-08
3.18306e-09
3.17296e-08
3.02731e-09
3.06142e-08
2.83333e-09
2.95044e-08
2.61675e-09
2.84199e-08
2.38924e-09
2.7375e-08
2.16101e-09
2.63792e-08
1.94049e-09
2.54384e-08
1.73396e-09
2.45551e-08
1.54544e-09
2.37295e-08
1.37698e-09
2.29603e-08
1.22899e-09
2.22451e-08
1.10064e-09
2.15807e-08
9.90269e-10
2.09635e-08
8.95806e-10
2.03899e-08
8.15026e-10
1.98562e-08
7.45782e-10
1.9359e-08
6.86125e-10
1.88951e-08
6.34368e-10
1.84614e-08
5.89096e-10
1.80552e-08
5.49155e-10
1.76741e-08
5.1362e-10
1.73159e-08
4.81757e-10
1.69785e-08
4.52986e-10
1.66603e-08
4.26849e-10
1.63595e-08
4.02983e-10
1.60749e-08
3.81093e-10
1.58052e-08
3.60939e-10
1.55493e-08
3.4232e-10
1.5306e-08
3.25066e-10
1.50747e-08
3.0903e-10
1.48544e-08
2.94083e-10
1.46445e-08
2.80111e-10
1.44443e-08
2.6701e-10
1.42533e-08
2.5469e-10
1.40709e-08
2.43064e-10
1.38966e-08
2.32058e-10
1.37302e-08
2.21601e-10
1.35712e-08
2.11628e-10
1.34193e-08
2.02082e-10
1.32743e-08
1.92907e-10
1.31359e-08
1.84054e-10
1.3004e-08
1.75477e-10
1.28783e-08
1.67133e-10
1.27588e-08
1.58984e-10
1.26453e-08
1.50992e-10
1.25377e-08
1.43125e-10
1.2436e-08
1.35349e-10
1.23402e-08
1.27632e-10
1.22502e-08
1.19939e-10
1.21661e-08
1.12235e-10
1.20878e-08
1.04488e-10
1.20156e-08
9.6663e-11
1.19493e-08
8.87378e-11
1.18891e-08
8.07028e-11
1.18351e-08
7.2571e-11
1.17871e-08
6.43851e-11
1.17453e-08
5.62222e-11
1.17094e-08
4.81944e-11
1.16791e-08
4.04437e-11
1.16542e-08
3.31303e-11
1.16342e-08
2.64168e-11
1.16184e-08
2.04478e-11
1.16064e-08
1.53308e-11
1.15973e-08
1.11222e-11
1.15907e-08
7.82277e-12
1.15858e-08
5.38015e-12
1.15822e-08
3.70347e-12
1.15793e-08
2.69701e-12
1.15768e-08
2.27957e-12
1.15742e-08
2.40141e-12
1.15712e-08
3.00454e-12
1.15675e-08
3.97705e-12
1.1563e-08
5.17897e-12
1.15576e-08
6.47063e-12
1.15513e-08
7.73777e-12
1.15442e-08
8.89244e-12
1.15365e-08
9.87262e-12
1.15282e-08
1.06409e-11
1.15196e-08
1.1182e-11
1.15108e-08
1.14988e-11
1.15019e-08
1.16073e-11
1.14931e-08
1.15323e-11
1.14844e-08
1.13027e-11
1.1476e-08
1.09481e-11
1.1468e-08
1.04972e-11
1.14604e-08
9.97661e-12
1.14532e-08
9.41122e-12
1.14464e-08
8.82594e-12
1.14401e-08
8.2498e-12
1.14343e-08
7.72401e-12
1.14287e-08
7.31995e-12
1.14234e-08
7.18482e-12
1.14178e-08
7.66419e-12
1.14104e-08
1.00736e-11
2.16857e-11
3.78827e-08
1.77556e-09
3.83056e-08
2.74101e-09
3.848e-08
3.05252e-09
3.85167e-08
3.24238e-09
3.84222e-08
3.36988e-09
3.82038e-08
3.40148e-09
3.78816e-08
3.34951e-09
3.74761e-08
3.23886e-09
3.70053e-08
3.08749e-09
3.64858e-08
2.90879e-09
3.59321e-08
2.71469e-09
3.53569e-08
2.51572e-09
3.47704e-08
2.32036e-09
3.41811e-08
2.13477e-09
3.35952e-08
1.96292e-09
3.30173e-08
1.80689e-09
3.24507e-08
1.66721e-09
3.18976e-08
1.54334e-09
3.13594e-08
1.43401e-09
3.08368e-08
1.33762e-09
3.03302e-08
1.25245e-09
2.98395e-08
1.17682e-09
2.93646e-08
1.10924e-09
2.89053e-08
1.0484e-09
2.84612e-08
9.93237e-10
2.8032e-08
9.42852e-10
2.76172e-08
8.96537e-10
2.72164e-08
8.53724e-10
2.68293e-08
8.13958e-10
2.64554e-08
7.76874e-10
2.60944e-08
7.42176e-10
2.57457e-08
7.09616e-10
2.5409e-08
6.78986e-10
2.5084e-08
6.50105e-10
2.47702e-08
6.22813e-10
2.44673e-08
5.96967e-10
2.4175e-08
5.72436e-10
2.38929e-08
5.49098e-10
2.36208e-08
5.26841e-10
2.33583e-08
5.05559e-10
2.31052e-08
4.85153e-10
2.28612e-08
4.65527e-10
2.26263e-08
4.46593e-10
2.24001e-08
4.28265e-10
2.21825e-08
4.10463e-10
2.19735e-08
3.93108e-10
2.17728e-08
3.7613e-10
2.15805e-08
3.59456e-10
2.13965e-08
3.43022e-10
2.12207e-08
3.26763e-10
2.10532e-08
3.10618e-10
2.0894e-08
2.94528e-10
2.07432e-08
2.78434e-10
2.06009e-08
2.62276e-10
2.04671e-08
2.46e-10
2.03421e-08
2.29556e-10
2.02258e-08
2.12905e-10
2.01185e-08
1.96032e-10
2.00203e-08
1.78951e-10
1.99311e-08
1.61723e-10
1.9851e-08
1.4446e-10
1.97799e-08
1.27334e-10
1.97176e-08
1.10572e-10
1.96636e-08
9.44453e-11
1.96174e-08
7.92478e-11
1.95786e-08
6.52689e-11
1.95463e-08
5.27614e-11
1.95197e-08
4.19113e-11
1.9498e-08
3.28178e-11
1.94803e-08
2.54876e-11
1.94659e-08
1.98445e-11
1.94538e-08
1.57563e-11
1.94434e-08
1.3076e-11
1.94341e-08
1.16619e-11
1.94251e-08
1.13799e-11
1.9416e-08
1.20671e-11
1.94065e-08
1.35016e-11
1.93962e-08
1.54321e-11
1.93851e-08
1.76146e-11
1.9373e-08
1.9838e-11
1.93599e-08
2.19314e-11
1.93461e-08
2.37674e-11
1.93314e-08
2.52614e-11
1.93162e-08
2.63682e-11
1.93007e-08
2.7076e-11
1.92849e-08
2.7398e-11
1.9269e-08
2.73649e-11
1.92533e-08
2.70172e-11
1.92379e-08
2.63997e-11
1.92228e-08
2.55575e-11
1.92083e-08
2.45347e-11
1.91943e-08
2.33748e-11
1.9181e-08
2.21234e-11
1.91684e-08
2.08351e-11
1.91566e-08
1.95881e-11
1.91454e-08
1.85153e-11
1.91347e-08
1.7886e-11
1.9124e-08
1.8349e-11
1.91119e-08
2.2095e-11
3.64668e-11
3.90452e-08
1.31544e-09
3.95339e-08
2.25227e-09
3.98916e-08
2.69479e-09
4.0177e-08
2.95699e-09
4.03999e-08
3.14703e-09
4.05488e-08
3.25257e-09
4.06225e-08
3.2758e-09
4.06257e-08
3.23566e-09
4.05643e-08
3.14887e-09
4.04451e-08
3.02797e-09
4.02758e-08
2.88403e-09
4.00643e-08
2.72722e-09
3.98184e-08
2.56623e-09
3.95454e-08
2.40783e-09
3.92515e-08
2.25684e-09
3.89421e-08
2.11629e-09
3.86216e-08
1.9877e-09
3.82935e-08
1.87142e-09
3.79606e-08
1.76696e-09
3.76248e-08
1.67337e-09
3.72878e-08
1.58942e-09
3.69508e-08
1.51382e-09
3.66147e-08
1.44536e-09
3.62802e-08
1.38293e-09
3.59478e-08
1.3256e-09
3.56181e-08
1.27256e-09
3.52915e-08
1.22319e-09
3.49682e-08
1.17695e-09
3.46487e-08
1.13345e-09
3.43333e-08
1.09234e-09
3.40221e-08
1.05336e-09
3.37154e-08
1.01628e-09
3.34135e-08
9.80918e-10
3.31165e-08
9.47114e-10
3.28246e-08
9.14726e-10
3.25379e-08
8.83623e-10
3.22567e-08
8.53689e-10
3.1981e-08
8.24812e-10
3.17109e-08
7.96887e-10
3.14467e-08
7.69812e-10
3.11883e-08
7.43491e-10
3.0936e-08
7.17828e-10
3.06899e-08
6.9273e-10
3.045e-08
6.68108e-10
3.02166e-08
6.43874e-10
2.99898e-08
6.1994e-10
2.97697e-08
5.96222e-10
2.95565e-08
5.72637e-10
2.93504e-08
5.49104e-10
2.91517e-08
5.25545e-10
2.89604e-08
5.0188e-10
2.87769e-08
4.78033e-10
2.86014e-08
4.53928e-10
2.84342e-08
4.29495e-10
2.82755e-08
4.04668e-10
2.81257e-08
3.79395e-10
2.79849e-08
3.5365e-10
2.78535e-08
3.27441e-10
2.77316e-08
3.00826e-10
2.76194e-08
2.73928e-10
2.7517e-08
2.46946e-10
2.74241e-08
2.20155e-10
2.73408e-08
1.93902e-10
2.72667e-08
1.68588e-10
2.72013e-08
1.44635e-10
2.71441e-08
1.22457e-10
2.70944e-08
1.0241e-10
2.70516e-08
8.47641e-11
2.70147e-08
6.96738e-11
2.6983e-08
5.71769e-11
2.69557e-08
4.72074e-11
2.69318e-08
3.96256e-11
2.69106e-08
3.42557e-11
2.68914e-08
3.09022e-11
2.68734e-08
2.9351e-11
2.68561e-08
2.93425e-11
2.68391e-08
3.05595e-11
2.68219e-08
3.26546e-11
2.68042e-08
3.52891e-11
2.67859e-08
3.81603e-11
2.67668e-08
4.10138e-11
2.67469e-08
4.36499e-11
2.67262e-08
4.59249e-11
2.67049e-08
4.77479e-11
2.66829e-08
4.90728e-11
2.66604e-08
4.98889e-11
2.66375e-08
5.02109e-11
2.66145e-08
5.00695e-11
2.65914e-08
4.95038e-11
2.65684e-08
4.85568e-11
2.65456e-08
4.72729e-11
2.65233e-08
4.56994e-11
2.65015e-08
4.38905e-11
2.64805e-08
4.19176e-11
2.64602e-08
3.98889e-11
2.64407e-08
3.79946e-11
2.64219e-08
3.66188e-11
2.64036e-08
3.66689e-11
2.6385e-08
4.07533e-11
5.57753e-11
4.03208e-08
1.0133e-09
4.07301e-08
1.84304e-09
4.10905e-08
2.33434e-09
4.14118e-08
2.63574e-09
4.17072e-08
2.85164e-09
4.19673e-08
2.9924e-09
4.21846e-08
3.05857e-09
4.23568e-08
3.06346e-09
4.24838e-08
3.02179e-09
4.25668e-08
2.94502e-09
4.26079e-08
2.84292e-09
4.26106e-08
2.72448e-09
4.25792e-08
2.59766e-09
4.25181e-08
2.46894e-09
4.24318e-08
2.34319e-09
4.23243e-08
2.22377e-09
4.21993e-08
2.11265e-09
4.206e-08
2.01074e-09
4.19088e-08
1.91811e-09
4.17479e-08
1.83429e-09
4.15789e-08
1.75849e-09
4.14029e-08
1.68976e-09
4.12211e-08
1.62714e-09
4.10343e-08
1.56975e-09
4.08432e-08
1.51676e-09
4.06482e-08
1.46751e-09
4.045e-08
1.4214e-09
4.0249e-08
1.37799e-09
4.00455e-08
1.33687e-09
3.98401e-08
1.29776e-09
3.96331e-08
1.26039e-09
3.94248e-08
1.22457e-09
3.92156e-08
1.19011e-09
3.90058e-08
1.15687e-09
3.87958e-08
1.12472e-09
3.85859e-08
1.09354e-09
3.83764e-08
1.06321e-09
3.81676e-08
1.03365e-09
3.79597e-08
1.00473e-09
3.77532e-08
9.76372e-10
3.75482e-08
9.48476e-10
3.73451e-08
9.20945e-10
3.71441e-08
8.93687e-10
3.69456e-08
8.66608e-10
3.67499e-08
8.39615e-10
3.65572e-08
8.12614e-10
3.63679e-08
7.85512e-10
3.61823e-08
7.58217e-10
3.60008e-08
7.30637e-10
3.58237e-08
7.0268e-10
3.56513e-08
6.74258e-10
3.5484e-08
6.45279e-10
3.53223e-08
6.1566e-10
3.51665e-08
5.85322e-10
3.50169e-08
5.54198e-10
3.48741e-08
5.22244e-10
3.47383e-08
4.8945e-10
3.46099e-08
4.55857e-10
3.44891e-08
4.21569e-10
3.43763e-08
3.86773e-10
3.42715e-08
3.51744e-10
3.41748e-08
3.16851e-10
3.40862e-08
2.82542e-10
3.40054e-08
2.49324e-10
3.39323e-08
2.17728e-10
3.38665e-08
1.88265e-10
3.38076e-08
1.6138e-10
3.37549e-08
1.37416e-10
3.3708e-08
1.16588e-10
3.36662e-08
9.89801e-11
3.36288e-08
8.4556e-11
3.35953e-08
7.31928e-11
3.35648e-08
6.47105e-11
3.35368e-08
5.88877e-11
3.35107e-08
5.54616e-11
3.34859e-08
5.41132e-11
3.3462e-08
5.44649e-11
3.34386e-08
5.6108e-11
3.34152e-08
5.86409e-11
3.33917e-08
6.16967e-11
3.33678e-08
6.49598e-11
3.33432e-08
6.81738e-11
3.3318e-08
7.1144e-11
3.3292e-08
7.37344e-11
3.32652e-08
7.58591e-11
3.32377e-08
7.74726e-11
3.32093e-08
7.85578e-11
3.31803e-08
7.91158e-11
3.31506e-08
7.91577e-11
3.31205e-08
7.8699e-11
3.309e-08
7.77586e-11
3.30593e-08
7.63602e-11
3.30287e-08
7.45394e-11
3.29982e-08
7.23568e-11
3.29682e-08
6.99232e-11
3.29387e-08
6.74544e-11
3.291e-08
6.54e-11
3.28818e-08
6.47884e-11
3.28544e-08
6.82174e-11
8.1586e-11
4.1712e-08
8.06907e-10
4.20332e-08
1.52178e-09
4.2355e-08
2.01258e-09
4.26571e-08
2.33366e-09
4.29467e-08
2.56203e-09
4.32191e-08
2.72003e-09
4.34667e-08
2.81096e-09
4.36858e-08
2.84432e-09
4.3875e-08
2.83263e-09
4.40335e-08
2.7865e-09
4.41616e-08
2.71476e-09
4.42607e-08
2.6254e-09
4.43328e-08
2.52555e-09
4.43806e-08
2.42118e-09
4.44068e-08
2.31694e-09
4.44144e-08
2.21617e-09
4.4406e-08
2.12106e-09
4.43839e-08
2.03281e-09
4.43502e-08
1.95184e-09
4.43065e-08
1.87804e-09
4.4254e-08
1.81093e-09
4.41939e-08
1.74987e-09
4.41269e-08
1.69412e-09
4.40537e-08
1.64295e-09
4.39748e-08
1.59569e-09
4.38906e-08
1.55173e-09
4.38014e-08
1.51058e-09
4.37076e-08
1.4718e-09
4.36094e-08
1.43504e-09
4.35072e-08
1.40001e-09
4.34011e-08
1.36646e-09
4.32915e-08
1.3342e-09
4.31785e-08
1.30304e-09
4.30626e-08
1.27286e-09
4.29438e-08
1.24351e-09
4.28224e-08
1.21487e-09
4.26988e-08
1.18684e-09
4.25732e-08
1.1593e-09
4.24457e-08
1.13217e-09
4.23168e-08
1.10532e-09
4.21866e-08
1.07867e-09
4.20554e-08
1.05212e-09
4.19235e-08
1.02556e-09
4.17912e-08
9.98896e-10
4.16588e-08
9.72023e-10
4.15266e-08
9.44839e-10
4.13949e-08
9.17242e-10
4.1264e-08
8.89127e-10
4.11342e-08
8.60391e-10
4.1006e-08
8.3093e-10
4.08796e-08
8.00642e-10
4.07554e-08
7.69426e-10
4.06339e-08
7.3719e-10
4.05154e-08
7.03849e-10
4.04002e-08
6.69338e-10
4.02889e-08
6.3362e-10
4.01816e-08
5.96702e-10
4.00788e-08
5.58649e-10
3.99808e-08
5.19604e-10
3.98877e-08
4.79801e-10
3.97999e-08
4.39572e-10
3.97174e-08
3.9935e-10
3.96403e-08
3.59651e-10
3.95686e-08
3.21054e-10
3.95022e-08
2.84158e-10
3.94409e-08
2.49539e-10
3.93846e-08
2.17705e-10
3.93329e-08
1.89056e-10
3.92856e-08
1.63857e-10
3.92424e-08
1.42237e-10
3.92027e-08
1.24201e-10
3.91663e-08
1.09654e-10
3.91326e-08
9.84295e-11
3.91011e-08
9.03043e-11
3.90716e-08
8.4999e-11
3.90435e-08
8.21717e-11
3.90166e-08
8.14228e-11
3.89904e-08
8.23209e-11
3.89646e-08
8.44391e-11
3.89389e-08
8.73824e-11
3.8913e-08
9.08058e-11
3.88868e-08
9.44234e-11
3.88599e-08
9.80113e-11
3.88323e-08
1.01404e-10
3.88036e-08
1.04488e-10
3.87739e-08
1.07185e-10
3.8743e-08
1.09448e-10
3.87109e-08
1.11242e-10
3.86775e-08
1.12539e-10
3.86429e-08
1.13311e-10
3.86071e-08
1.13532e-10
3.85703e-08
1.13177e-10
3.85326e-08
1.1223e-10
3.84943e-08
1.10708e-10
3.84555e-08
1.08682e-10
3.84166e-08
1.06341e-10
3.83779e-08
1.04115e-10
3.83397e-08
1.02978e-10
3.83028e-08
1.05132e-10
1.14781e-10
4.31956e-08
6.59051e-10
4.34466e-08
1.27081e-09
4.37241e-08
1.73502e-09
4.39971e-08
2.06066e-09
4.42638e-08
2.29532e-09
4.4521e-08
2.4629e-09
4.47622e-08
2.56969e-09
4.49835e-08
2.62301e-09
4.5183e-08
2.63314e-09
4.53599e-08
2.60967e-09
4.55139e-08
2.56075e-09
4.56457e-08
2.49358e-09
4.57567e-08
2.4146e-09
4.58485e-08
2.3293e-09
4.59234e-08
2.24207e-09
4.59834e-08
2.15619e-09
4.60305e-08
2.0739e-09
4.60667e-08
1.99661e-09
4.60936e-08
1.92499e-09
4.61124e-08
1.8592e-09
4.61243e-08
1.79905e-09
4.61301e-08
1.7441e-09
4.61304e-08
1.69382e-09
4.61257e-08
1.64765e-09
4.61163e-08
1.60503e-09
4.61026e-08
1.56545e-09
4.60847e-08
1.52847e-09
4.60628e-08
1.49369e-09
4.60371e-08
1.46079e-09
4.60076e-08
1.42948e-09
4.59745e-08
1.39954e-09
4.5938e-08
1.37077e-09
4.5898e-08
1.343e-09
4.58548e-08
1.31607e-09
4.58085e-08
1.28985e-09
4.57591e-08
1.26421e-09
4.57069e-08
1.23905e-09
4.5652e-08
1.21424e-09
4.55945e-08
1.18968e-09
4.55345e-08
1.16527e-09
4.54723e-08
1.14088e-09
4.5408e-08
1.11643e-09
4.53418e-08
1.0918e-09
4.52738e-08
1.06687e-09
4.52043e-08
1.04154e-09
4.51334e-08
1.01569e-09
4.50614e-08
9.8922e-10
4.49886e-08
9.62e-10
4.4915e-08
9.33919e-10
4.48411e-08
9.04863e-10
4.4767e-08
8.74719e-10
4.46931e-08
8.43377e-10
4.46195e-08
8.10735e-10
4.45467e-08
7.76707e-10
4.44748e-08
7.41227e-10
4.44041e-08
7.04264e-10
4.4335e-08
6.65835e-10
4.42676e-08
6.26023e-10
4.42023e-08
5.84992e-10
4.41391e-08
5.43001e-10
4.40782e-08
5.00414e-10
4.40199e-08
4.57693e-10
4.39641e-08
4.15385e-10
4.39111e-08
3.741e-10
4.38608e-08
3.34466e-10
4.38132e-08
2.97091e-10
4.37684e-08
2.62512e-10
4.37263e-08
2.31163e-10
4.36868e-08
2.03347e-10
4.36498e-08
1.79232e-10
4.36152e-08
1.5886e-10
4.35827e-08
1.42169e-10
4.35521e-08
1.29019e-10
4.35232e-08
1.19199e-10
4.34957e-08
1.12437e-10
4.34695e-08
1.08396e-10
4.34442e-08
1.06684e-10
4.34197e-08
1.06878e-10
4.33956e-08
1.08557e-10
4.33716e-08
1.11329e-10
4.33476e-08
1.14848e-10
4.33232e-08
1.18826e-10
4.32982e-08
1.23032e-10
4.32723e-08
1.27294e-10
4.32453e-08
1.31484e-10
4.32169e-08
1.35512e-10
4.31871e-08
1.39306e-10
4.31555e-08
1.42805e-10
4.31221e-08
1.45946e-10
4.30868e-08
1.48657e-10
4.30495e-08
1.50857e-10
4.30102e-08
1.52458e-10
4.2969e-08
1.53377e-10
4.29262e-08
1.53553e-10
4.28819e-08
1.52977e-10
4.28365e-08
1.51755e-10
4.27904e-08
1.50207e-10
4.27443e-08
1.49081e-10
4.26995e-08
1.4989e-10
1.54626e-10
4.47577e-08
5.48494e-10
4.49559e-08
1.07259e-09
4.51923e-08
1.49871e-09
4.54358e-08
1.81714e-09
4.56782e-08
2.05291e-09
4.59154e-08
2.22568e-09
4.61419e-08
2.34316e-09
4.63534e-08
2.41151e-09
4.65477e-08
2.43892e-09
4.67236e-08
2.43378e-09
4.68808e-08
2.40349e-09
4.70198e-08
2.35456e-09
4.71416e-08
2.29284e-09
4.72475e-08
2.22335e-09
4.73394e-08
2.15023e-09
4.74189e-08
2.07665e-09
4.74879e-08
2.00491e-09
4.7548e-08
1.93653e-09
4.76006e-08
1.8724e-09
4.76469e-08
1.81288e-09
4.76879e-08
1.75802e-09
4.77244e-08
1.70759e-09
4.7757e-08
1.66126e-09
4.7786e-08
1.61859e-09
4.78119e-08
1.57916e-09
4.78348e-08
1.54256e-09
4.78549e-08
1.50838e-09
4.78723e-08
1.47631e-09
4.7887e-08
1.44603e-09
4.78992e-08
1.4173e-09
4.79089e-08
1.38988e-09
4.7916e-08
1.3636e-09
4.79208e-08
1.33828e-09
4.7923e-08
1.31378e-09
4.79229e-08
1.28994e-09
4.79205e-08
1.26666e-09
4.79157e-08
1.24381e-09
4.79087e-08
1.22127e-09
4.78995e-08
1.19893e-09
4.7888e-08
1.17668e-09
4.78745e-08
1.1544e-09
4.7859e-08
1.13199e-09
4.78415e-08
1.10932e-09
4.7822e-08
1.08628e-09
4.78008e-08
1.06275e-09
4.77779e-08
1.03862e-09
4.77534e-08
1.01375e-09
4.77273e-08
9.88032e-10
4.76999e-08
9.61333e-10
4.76713e-08
9.33533e-10
4.76415e-08
9.04512e-10
4.76107e-08
8.74155e-10
4.75791e-08
8.42357e-10
4.75467e-08
8.09027e-10
4.75139e-08
7.74103e-10
4.74806e-08
7.37555e-10
4.7447e-08
6.99408e-10
4.74133e-08
6.59753e-10
4.73795e-08
6.1876e-10
4.73458e-08
5.76697e-10
4.73123e-08
5.3393e-10
4.72791e-08
4.90924e-10
4.72462e-08
4.48225e-10
4.72139e-08
4.06436e-10
4.71822e-08
3.66184e-10
4.71512e-08
3.28071e-10
4.71211e-08
2.92642e-10
4.70919e-08
2.60339e-10
4.70637e-08
2.31487e-10
4.70367e-08
2.06281e-10
4.70108e-08
1.84795e-10
4.69859e-08
1.67002e-10
4.69622e-08
1.52787e-10
4.69394e-08
1.41966e-10
4.69175e-08
1.34287e-10
4.68965e-08
1.29436e-10
4.68761e-08
1.27049e-10
4.68563e-08
1.26731e-10
4.68368e-08
1.28087e-10
4.68173e-08
1.3075e-10
4.67978e-08
1.34395e-10
4.67779e-08
1.38749e-10
4.67573e-08
1.43596e-10
4.67358e-08
1.48772e-10
4.67132e-08
1.54155e-10
4.6689e-08
1.59653e-10
4.66631e-08
1.65192e-10
4.66352e-08
1.70695e-10
4.66051e-08
1.76076e-10
4.65725e-08
1.8123e-10
4.65374e-08
1.86026e-10
4.64995e-08
1.90313e-10
4.6459e-08
1.93932e-10
4.64158e-08
1.96728e-10
4.63702e-08
1.98586e-10
4.63224e-08
1.9948e-10
4.62731e-08
1.99547e-10
4.6223e-08
1.9919e-10
4.61738e-08
1.99081e-10
1.98924e-10
4.63916e-08
4.62918e-10
4.65505e-08
9.13696e-10
4.67508e-08
1.29843e-09
4.69664e-08
1.60153e-09
4.71858e-08
1.8335e-09
4.74035e-08
2.00795e-09
4.76144e-08
2.13233e-09
4.78139e-08
2.21198e-09
4.79994e-08
2.25341e-09
4.81695e-08
2.26367e-09
4.83237e-08
2.24931e-09
4.84621e-08
2.21618e-09
4.85854e-08
2.16954e-09
4.86947e-08
2.11398e-09
4.87916e-08
2.05335e-09
4.88776e-08
1.9907e-09
4.89542e-08
1.92831e-09
4.90229e-08
1.8678e-09
4.90851e-08
1.8102e-09
4.91419e-08
1.75608e-09
4.91943e-08
1.70565e-09
4.9243e-08
1.65889e-09
4.92886e-08
1.61562e-09
4.93317e-08
1.57556e-09
4.93724e-08
1.53839e-09
4.94112e-08
1.5038e-09
4.94481e-08
1.47147e-09
4.94833e-08
1.44111e-09
4.95169e-08
1.41247e-09
4.95488e-08
1.38532e-09
4.95793e-08
1.35946e-09
4.96082e-08
1.3347e-09
4.96355e-08
1.3109e-09
4.96614e-08
1.28789e-09
4.96858e-08
1.26557e-09
4.97087e-08
1.24379e-09
4.97301e-08
1.22244e-09
4.97499e-08
1.2014e-09
4.97683e-08
1.18057e-09
4.97851e-08
1.15982e-09
4.98005e-08
1.13905e-09
4.98143e-08
1.11813e-09
4.98267e-08
1.09696e-09
4.98376e-08
1.07541e-09
4.9847e-08
1.05336e-09
4.98549e-08
1.03069e-09
4.98614e-08
1.00728e-09
4.98664e-08
9.82992e-10
4.987e-08
9.57706e-10
4.98723e-08
9.31297e-10
4.98731e-08
9.03642e-10
4.98727e-08
8.74625e-10
4.98709e-08
8.44143e-10
4.98678e-08
8.12107e-10
4.98635e-08
7.78456e-10
4.98578e-08
7.43167e-10
4.9851e-08
7.06266e-10
4.98429e-08
6.67845e-10
4.98336e-08
6.28076e-10
4.98231e-08
5.87217e-10
4.98114e-08
5.45624e-10
4.97985e-08
5.03742e-10
4.97847e-08
4.6209e-10
4.97699e-08
4.21246e-10
4.97542e-08
3.81805e-10
4.9738e-08
3.44346e-10
4.97212e-08
3.09394e-10
4.97042e-08
2.77385e-10
4.9687e-08
2.48649e-10
4.96699e-08
2.23397e-10
4.9653e-08
2.01727e-10
4.96363e-08
1.8364e-10
4.96201e-08
1.6905e-10
4.96042e-08
1.57801e-10
4.95888e-08
1.49669e-10
4.95739e-08
1.44373e-10
4.95594e-08
1.41585e-10
4.95452e-08
1.4095e-10
4.95311e-08
1.42113e-10
4.95171e-08
1.44741e-10
4.9503e-08
1.48542e-10
4.94885e-08
1.53271e-10
4.94733e-08
1.58738e-10
4.94573e-08
1.64799e-10
4.94401e-08
1.71351e-10
4.94214e-08
1.78315e-10
4.9401e-08
1.85623e-10
4.93785e-08
1.93203e-10
4.93536e-08
2.00958e-10
4.93261e-08
2.08763e-10
4.92957e-08
2.16451e-10
4.92622e-08
2.23819e-10
4.92255e-08
2.30633e-10
4.91855e-08
2.36644e-10
4.91425e-08
2.41617e-10
4.90966e-08
2.45369e-10
4.90484e-08
2.4781e-10
4.89986e-08
2.4895e-10
4.89491e-08
2.48627e-10
2.44662e-10
4.80946e-08
3.94854e-10
4.82239e-08
7.84375e-10
4.83937e-08
1.1286e-09
4.85837e-08
1.41162e-09
4.87816e-08
1.63559e-09
4.89809e-08
1.80861e-09
4.91765e-08
1.93673e-09
4.9364e-08
2.0245e-09
4.95403e-08
2.07707e-09
4.97038e-08
2.10021e-09
4.98535e-08
2.09956e-09
4.99894e-08
2.0803e-09
5.01118e-08
2.04711e-09
5.02217e-08
2.00414e-09
5.03201e-08
1.95493e-09
5.04084e-08
1.90238e-09
5.0488e-08
1.84872e-09
5.05602e-08
1.79561e-09
5.06262e-08
1.74418e-09
5.06872e-08
1.69513e-09
5.07439e-08
1.64886e-09
5.07973e-08
1.60549e-09
5.0848e-08
1.56499e-09
5.08963e-08
1.52721e-09
5.09427e-08
1.49196e-09
5.09876e-08
1.45898e-09
5.1031e-08
1.42806e-09
5.10731e-08
1.39895e-09
5.11142e-08
1.37144e-09
5.11542e-08
1.34534e-09
5.11931e-08
1.32047e-09
5.12312e-08
1.29666e-09
5.12683e-08
1.27378e-09
5.13045e-08
1.25169e-09
5.13398e-08
1.23027e-09
5.13742e-08
1.20939e-09
5.14077e-08
1.18894e-09
5.14403e-08
1.16882e-09
5.14719e-08
1.14891e-09
5.15027e-08
1.1291e-09
5.15324e-08
1.10928e-09
5.15612e-08
1.08934e-09
5.1589e-08
1.06916e-09
5.16158e-08
1.04864e-09
5.16415e-08
1.02764e-09
5.16662e-08
1.00604e-09
5.16897e-08
9.83736e-10
5.17121e-08
9.60589e-10
5.17333e-08
9.3648e-10
5.17533e-08
9.11285e-10
5.17721e-08
8.84888e-10
5.17896e-08
8.57177e-10
5.18056e-08
8.28051e-10
5.18203e-08
7.97431e-10
5.18335e-08
7.65259e-10
5.18452e-08
7.31519e-10
5.18552e-08
6.96239e-10
5.18635e-08
6.59511e-10
5.18701e-08
6.215e-10
5.18749e-08
5.82452e-10
5.18778e-08
5.427e-10
5.18789e-08
5.02657e-10
5.18782e-08
4.6281e-10
5.18757e-08
4.23691e-10
5.18717e-08
3.85852e-10
5.18662e-08
3.49835e-10
5.18594e-08
3.16131e-10
5.18517e-08
2.8516e-10
5.18431e-08
2.57242e-10
5.18339e-08
2.32595e-10
5.18243e-08
2.11333e-10
5.18144e-08
1.93479e-10
5.18045e-08
1.78973e-10
5.17946e-08
1.67685e-10
5.17849e-08
1.59425e-10
5.17753e-08
1.53945e-10
5.17659e-08
1.50957e-10
5.17567e-08
1.50149e-10
5.17476e-08
1.51209e-10
5.17385e-08
1.53844e-10
5.17293e-08
1.57798e-10
5.17197e-08
1.62862e-10
5.17095e-08
1.68874e-10
5.16986e-08
1.75718e-10
5.16867e-08
1.83316e-10
5.16734e-08
1.91611e-10
5.16584e-08
2.00552e-10
5.16416e-08
2.10078e-10
5.16224e-08
2.20098e-10
5.16007e-08
2.30479e-10
5.15761e-08
2.41032e-10
5.15484e-08
2.51515e-10
5.15174e-08
2.61632e-10
5.1483e-08
2.71045e-10
5.14452e-08
2.79403e-10
5.14042e-08
2.86361e-10
5.13605e-08
2.91594e-10
5.13147e-08
2.9473e-10
5.12684e-08
2.9492e-10
2.88802e-10
4.98663e-08
3.39543e-10
4.9973e-08
6.77619e-10
5.01175e-08
9.84124e-10
5.02843e-08
1.24485e-09
5.04622e-08
1.4577e-09
5.06442e-08
1.62658e-09
5.08252e-08
1.75574e-09
5.10009e-08
1.84883e-09
5.11681e-08
1.90989e-09
5.13247e-08
1.94355e-09
5.14697e-08
1.95454e-09
5.16027e-08
1.94735e-09
5.17237e-08
1.92611e-09
5.18333e-08
1.89452e-09
5.19324e-08
1.85582e-09
5.20221e-08
1.81269e-09
5.21035e-08
1.7673e-09
5.21779e-08
1.72129e-09
5.22462e-08
1.67586e-09
5.23095e-08
1.63182e-09
5.23687e-08
1.58968e-09
5.24245e-08
1.54969e-09
5.24775e-08
1.51196e-09
5.25283e-08
1.47645e-09
5.25772e-08
1.44306e-09
5.26245e-08
1.41164e-09
5.26705e-08
1.38203e-09
5.27154e-08
1.35404e-09
5.27594e-08
1.32752e-09
5.28024e-08
1.30228e-09
5.28447e-08
1.2782e-09
5.28862e-08
1.25512e-09
5.29271e-08
1.23292e-09
5.29673e-08
1.21147e-09
5.30069e-08
1.19067e-09
5.30459e-08
1.1704e-09
5.30843e-08
1.15055e-09
5.31221e-08
1.13103e-09
5.31593e-08
1.11172e-09
5.31958e-08
1.09252e-09
5.32318e-08
1.07333e-09
5.32671e-08
1.05404e-09
5.33017e-08
1.03454e-09
5.33356e-08
1.01472e-09
5.33688e-08
9.94459e-10
5.34012e-08
9.73649e-10
5.34328e-08
9.52171e-10
5.34635e-08
9.29907e-10
5.34932e-08
9.06739e-10
5.35219e-08
8.82553e-10
5.35496e-08
8.57237e-10
5.35761e-08
8.30688e-10
5.36013e-08
8.02816e-10
5.36252e-08
7.73546e-10
5.36476e-08
7.42833e-10
5.36685e-08
7.10665e-10
5.36876e-08
6.77074e-10
5.3705e-08
6.42151e-10
5.37204e-08
6.06053e-10
5.37339e-08
5.6901e-10
5.37452e-08
5.31331e-10
5.37545e-08
4.93396e-10
5.37617e-08
4.55648e-10
5.37668e-08
4.18573e-10
5.377e-08
3.82676e-10
5.37713e-08
3.48453e-10
5.37711e-08
3.16359e-10
5.37695e-08
2.86785e-10
5.37667e-08
2.60039e-10
5.3763e-08
2.36337e-10
5.37585e-08
2.15803e-10
5.37535e-08
1.98474e-10
5.37481e-08
1.84313e-10
5.37426e-08
1.73216e-10
5.3737e-08
1.65022e-10
5.37314e-08
1.59517e-10
5.3726e-08
1.56453e-10
5.37205e-08
1.55558e-10
5.37152e-08
1.56562e-10
5.37098e-08
1.59214e-10
5.37043e-08
1.63293e-10
5.36986e-08
1.68624e-10
5.36924e-08
1.75077e-10
5.36855e-08
1.82565e-10
5.36778e-08
1.91034e-10
5.3669e-08
2.00452e-10
5.36587e-08
2.10791e-10
5.36468e-08
2.22008e-10
5.36329e-08
2.34022e-10
5.36166e-08
2.46703e-10
5.35978e-08
2.59854e-10
5.35761e-08
2.73204e-10
5.35513e-08
2.86407e-10
5.35233e-08
2.99056e-10
5.34921e-08
3.10689e-10
5.34576e-08
3.20813e-10
5.34203e-08
3.2889e-10
5.33808e-08
3.34222e-10
5.33402e-08
3.35487e-10
3.28892e-10
5.17074e-08
2.93812e-10
5.17967e-08
5.88371e-10
5.19202e-08
8.60613e-10
5.20665e-08
1.09856e-09
5.22259e-08
1.29825e-09
5.23917e-08
1.46077e-09
5.25588e-08
1.58868e-09
5.2723e-08
1.68466e-09
5.28811e-08
1.7518e-09
5.30308e-08
1.79376e-09
5.3171e-08
1.81441e-09
5.33008e-08
1.81757e-09
5.34201e-08
1.80681e-09
5.35292e-08
1.78541e-09
5.36287e-08
1.75628e-09
5.37195e-08
1.72189e-09
5.38025e-08
1.6843e-09
5.38787e-08
1.6451e-09
5.3949e-08
1.60552e-09
5.40144e-08
1.56643e-09
5.40756e-08
1.52844e-09
5.41334e-08
1.4919e-09
5.41884e-08
1.45703e-09
5.42409e-08
1.42388e-09
5.42916e-08
1.39244e-09
5.43406e-08
1.36266e-09
5.43882e-08
1.33441e-09
5.44346e-08
1.30758e-09
5.44801e-08
1.28205e-09
5.45247e-08
1.25769e-09
5.45685e-08
1.23438e-09
5.46116e-08
1.21199e-09
5.46541e-08
1.19041e-09
5.46961e-08
1.16955e-09
5.47375e-08
1.14929e-09
5.47783e-08
1.12953e-09
5.48187e-08
1.11018e-09
5.48586e-08
1.09115e-09
5.4898e-08
1.07232e-09
5.49369e-08
1.05361e-09
5.49753e-08
1.03492e-09
5.50132e-08
1.01614e-09
5.50506e-08
9.97168e-10
5.50874e-08
9.77905e-10
5.51236e-08
9.5824e-10
5.51592e-08
9.38066e-10
5.51941e-08
9.17272e-10
5.52282e-08
8.95747e-10
5.52616e-08
8.73384e-10
5.52941e-08
8.50075e-10
5.53256e-08
8.25719e-10
5.5356e-08
8.00223e-10
5.53854e-08
7.73505e-10
5.54134e-08
7.45502e-10
5.54401e-08
7.16178e-10
5.54652e-08
6.85526e-10
5.54887e-08
6.53584e-10
5.55104e-08
6.20442e-10
5.55302e-08
5.86248e-10
5.5548e-08
5.51217e-10
5.55637e-08
5.15633e-10
5.55772e-08
4.79842e-10
5.55886e-08
4.44246e-10
5.55979e-08
4.09286e-10
5.56052e-08
3.75418e-10
5.56105e-08
3.43093e-10
5.56142e-08
3.12726e-10
5.56163e-08
2.84681e-10
5.56171e-08
2.59247e-10
5.56168e-08
2.36634e-10
5.56156e-08
2.1697e-10
5.56138e-08
2.00304e-10
5.56115e-08
1.86619e-10
5.56089e-08
1.75832e-10
5.56061e-08
1.67807e-10
5.56032e-08
1.62366e-10
5.56004e-08
1.59293e-10
5.55976e-08
1.58356e-10
5.55948e-08
1.59325e-10
5.55921e-08
1.61983e-10
5.55892e-08
1.66147e-10
5.55862e-08
1.71672e-10
5.55828e-08
1.78457e-10
5.55789e-08
1.8644e-10
5.55743e-08
1.95595e-10
5.55689e-08
2.0591e-10
5.55623e-08
2.17381e-10
5.55543e-08
2.29981e-10
5.55447e-08
2.43647e-10
5.55331e-08
2.58254e-10
5.55194e-08
2.73602e-10
5.55032e-08
2.89404e-10
5.54843e-08
3.05277e-10
5.54626e-08
3.20755e-10
5.5438e-08
3.35288e-10
5.54106e-08
3.48258e-10
5.53805e-08
3.58946e-10
5.53483e-08
3.66416e-10
5.53147e-08
3.69087e-10
3.63326e-10
5.36195e-08
2.55468e-10
5.3695e-08
5.12933e-10
5.38011e-08
7.54445e-10
5.39295e-08
9.70171e-10
5.40722e-08
1.15559e-09
5.42229e-08
1.3101e-09
5.43767e-08
1.43485e-09
5.45297e-08
1.53163e-09
5.46788e-08
1.60273e-09
5.48216e-08
1.65093e-09
5.49567e-08
1.67936e-09
5.5083e-08
1.69119e-09
5.52004e-08
1.68947e-09
5.53087e-08
1.67707e-09
5.54084e-08
1.65656e-09
5.55001e-08
1.63019e-09
5.55846e-08
1.59987e-09
5.56625e-08
1.56714e-09
5.57348e-08
1.5332e-09
5.58023e-08
1.49897e-09
5.58656e-08
1.46512e-09
5.59255e-08
1.43208e-09
5.59823e-08
1.40013e-09
5.60368e-08
1.36945e-09
5.60891e-08
1.34008e-09
5.61398e-08
1.31202e-09
5.61889e-08
1.28524e-09
5.62369e-08
1.25967e-09
5.62837e-08
1.23522e-09
5.63296e-08
1.21179e-09