/*--------------------------------*- C++ -*----------------------------------*\
| =========                 |                                                 |
| \\      /  F ield         | OpenFOAM: The Open Source CFD Toolbox           |
|  \\    /   O peration     | Version:  2.3.0                                 |
|   \\  /    A nd           | Web:      www.OpenFOAM.org                      |
|    \\/     M anipulation  |                                                 |
\*---------------------------------------------------------------------------*/
FoamFile
{
    version     2.0;
    format      ascii;
    class       volVectorField;
    location    "0.25";
    object      U;
}
// * * * * * * * * * * * * * * * * * * * * * * * * * * * * * * * * * * * * * //

dimensions      [0 1 -1 0 0 0 0];

internalField   nonuniform List<vector> 
2700
(
(0.185025 0.00502029 0)
(0.173514 0.00578134 0)
(0.158817 0.00543637 0)
(0.143356 0.00502209 0)
(0.128974 0.00454758 0)
(0.11597 0.00399861 0)
(0.104223 0.00342409 0)
(0.0936859 0.00286631 0)
(0.0843699 0.00234795 0)
(0.0762572 0.00188204 0)
(0.0692843 0.00147663 0)
(0.0633571 0.001135 0)
(0.0583649 0.000855948 0)
(0.054189 0.000634764 0)
(0.0507095 0.000464461 0)
(0.0478113 0.000336957 0)
(0.0453892 0.000244054 0)
(0.0433508 0.00017814 0)
(0.0416178 0.000132592 0)
(0.0401259 0.000101929 0)
(0.0388237 8.1795e-05 0)
(0.037671 6.8857e-05 0)
(0.0366372 6.06521e-05 0)
(0.0356991 5.54274e-05 0)
(0.0348393 5.19837e-05 0)
(0.034045 4.95364e-05 0)
(0.0333064 4.7598e-05 0)
(0.0326164 4.58847e-05 0)
(0.0319692 4.42457e-05 0)
(0.0313605 4.26126e-05 0)
(0.0307865 4.09642e-05 0)
(0.0302444 3.93041e-05 0)
(0.0297314 3.76465e-05 0)
(0.0292454 3.60082e-05 0)
(0.0287844 3.44047e-05 0)
(0.0283465 3.28481e-05 0)
(0.0279303 3.13468e-05 0)
(0.0275343 2.99059e-05 0)
(0.0271572 2.85276e-05 0)
(0.0267978 2.7212e-05 0)
(0.0264552 2.59577e-05 0)
(0.0261284 2.47622e-05 0)
(0.0258165 2.36223e-05 0)
(0.0255189 2.25346e-05 0)
(0.0252349 2.14954e-05 0)
(0.024964 2.05011e-05 0)
(0.0247056 1.95485e-05 0)
(0.0244593 1.86344e-05 0)
(0.0242248 1.77563e-05 0)
(0.0240018 1.69118e-05 0)
(0.0237899 1.60987e-05 0)
(0.023589 1.53146e-05 0)
(0.0233989 1.45558e-05 0)
(0.0232194 1.38169e-05 0)
(0.0230505 1.30898e-05 0)
(0.0228922 1.23634e-05 0)
(0.0227446 1.16233e-05 0)
(0.0226077 1.08533e-05 0)
(0.0224819 1.00371e-05 0)
(0.0223675 9.16112e-06 0)
(0.0222646 8.21806e-06 0)
(0.0221737 7.20954e-06 0)
(0.0220949 6.1485e-06 0)
(0.0220281 5.05942e-06 0)
(0.021973 3.9773e-06 0)
(0.0219292 2.94432e-06 0)
(0.0218956 2.00455e-06 0)
(0.0218712 1.19735e-06 0)
(0.0218546 5.44503e-07 0)
(0.0218443 4.49162e-08 0)
(0.0218388 -3.09644e-07 0)
(0.0218369 -5.29764e-07 0)
(0.021837 -6.66946e-07 0)
(0.0218381 -7.07586e-07 0)
(0.0218393 -7.19028e-07 0)
(0.0218399 -7.17521e-07 0)
(0.0218395 -5.92659e-07 0)
(0.0218372 -3.84217e-07 0)
(0.0218326 -1.45712e-07 0)
(0.0218257 9.35418e-08 0)
(0.0218165 3.15537e-07 0)
(0.0218054 5.08499e-07 0)
(0.0217925 6.65502e-07 0)
(0.0217783 7.84038e-07 0)
(0.0217633 8.65338e-07 0)
(0.0217477 9.13073e-07 0)
(0.021732 9.32578e-07 0)
(0.0217164 9.29832e-07 0)
(0.0217011 9.1067e-07 0)
(0.0216864 8.80473e-07 0)
(0.0216723 8.43951e-07 0)
(0.021659 8.05192e-07 0)
(0.0216464 7.68118e-07 0)
(0.0216346 7.3751e-07 0)
(0.0216235 7.20658e-07 0)
(0.0216129 7.31145e-07 0)
(0.0216024 7.98879e-07 0)
(0.0215912 9.85485e-07 0)
(0.0215792 1.29321e-06 0)
(0.0215371 7.43491e-06 0)
(0.200885 0.00843006 0)
(0.202375 0.00989661 0)
(0.200758 0.00956125 0)
(0.196718 0.00920151 0)
(0.191613 0.00878839 0)
(0.185984 0.00823164 0)
(0.179999 0.00757438 0)
(0.173807 0.00687071 0)
(0.167571 0.0061531 0)
(0.16143 0.00544443 0)
(0.155478 0.00476473 0)
(0.149781 0.00413065 0)
(0.144378 0.00355409 0)
(0.139291 0.00304201 0)
(0.134528 0.00259676 0)
(0.130085 0.00221679 0)
(0.12595 0.00189762 0)
(0.122108 0.00163285 0)
(0.11854 0.00141512 0)
(0.115224 0.00123693 0)
(0.112142 0.0010912 0)
(0.109273 0.000971628 0)
(0.106597 0.00087283 0)
(0.104099 0.000790391 0)
(0.101761 0.000720787 0)
(0.0995696 0.00066127 0)
(0.0975113 0.000609731 0)
(0.0955747 0.000564571 0)
(0.0937492 0.000524584 0)
(0.0920256 0.000488858 0)
(0.0903955 0.000456699 0)
(0.0888516 0.00042757 0)
(0.0873874 0.00040105 0)
(0.0859968 0.000376798 0)
(0.0846747 0.000354535 0)
(0.0834163 0.000334025 0)
(0.0822175 0.000315069 0)
(0.0810745 0.000297491 0)
(0.0799838 0.000281138 0)
(0.0789426 0.000265875 0)
(0.0779481 0.000251582 0)
(0.076998 0.000238152 0)
(0.0760902 0.000225487 0)
(0.0752228 0.000213504 0)
(0.0743943 0.000202123 0)
(0.0736032 0.000191277 0)
(0.0728483 0.000180904 0)
(0.0721286 0.000170948 0)
(0.0714432 0.00016136 0)
(0.0707916 0.000152096 0)
(0.0701731 0.000143116 0)
(0.0695873 0.000134382 0)
(0.0690339 0.000125857 0)
(0.0685129 0.000117502 0)
(0.0680243 0.000109275 0)
(0.0675681 0.000101131 0)
(0.0671446 9.3026e-05 0)
(0.0667542 8.49179e-05 0)
(0.0663973 7.67788e-05 0)
(0.0660741 6.86014e-05 0)
(0.065785 6.04093e-05 0)
(0.0655297 5.22641e-05 0)
(0.065308 4.42675e-05 0)
(0.0651187 3.65568e-05 0)
(0.0649605 2.92941e-05 0)
(0.0648311 2.2649e-05 0)
(0.0647277 1.6777e-05 0)
(0.0646472 1.17971e-05 0)
(0.064586 7.76761e-06 0)
(0.0645405 4.67375e-06 0)
(0.064507 2.44745e-06 0)
(0.0644823 9.90624e-07 0)
(0.0644636 1.6427e-07 0)
(0.0644485 -9.36294e-08 0)
(0.0644347 9.92822e-08 0)
(0.0644199 6.61926e-07 0)
(0.0644019 1.59537e-06 0)
(0.0643797 2.76955e-06 0)
(0.0643529 4.02183e-06 0)
(0.0643211 5.22986e-06 0)
(0.0642846 6.30841e-06 0)
(0.0642439 7.20267e-06 0)
(0.0641998 7.88358e-06 0)
(0.0641531 8.34332e-06 0)
(0.0641046 8.59141e-06 0)
(0.0640552 8.64941e-06 0)
(0.0640057 8.54623e-06 0)
(0.0639568 8.31376e-06 0)
(0.0639091 7.98336e-06 0)
(0.063863 7.58408e-06 0)
(0.0638189 7.14189e-06 0)
(0.063777 6.67993e-06 0)
(0.0637376 6.22045e-06 0)
(0.0637007 5.789e-06 0)
(0.0636662 5.42209e-06 0)
(0.0636339 5.18454e-06 0)
(0.0636032 5.21402e-06 0)
(0.0635725 5.83441e-06 0)
(0.0635411 8.10607e-06 0)
(0.0634665 2.23876e-05 0)
(0.201535 0.00623589 0)
(0.204572 0.00851782 0)
(0.206672 0.00908184 0)
(0.207308 0.00942201 0)
(0.207014 0.0095977 0)
(0.2061 0.00950814 0)
(0.20463 0.00919414 0)
(0.202657 0.00873009 0)
(0.200279 0.00817025 0)
(0.197595 0.00755467 0)
(0.194692 0.00691749 0)
(0.191643 0.00628737 0)
(0.188508 0.00568609 0)
(0.185338 0.00512833 0)
(0.182172 0.00462237 0)
(0.179037 0.00417116 0)
(0.175957 0.00377366 0)
(0.172944 0.00342615 0)
(0.170009 0.00312339 0)
(0.167157 0.00285959 0)
(0.164389 0.00262904 0)
(0.161708 0.00242653 0)
(0.159113 0.00224752 0)
(0.156602 0.0020882 0)
(0.154174 0.00194543 0)
(0.151827 0.00181669 0)
(0.149559 0.00169995 0)
(0.147367 0.00159357 0)
(0.14525 0.00149623 0)
(0.143205 0.00140686 0)
(0.141229 0.00132456 0)
(0.139322 0.00124856 0)
(0.13748 0.00117823 0)
(0.135701 0.00111298 0)
(0.133984 0.00105232 0)
(0.132327 0.000995811 0)
(0.130726 0.000943039 0)
(0.129182 0.000893644 0)
(0.127692 0.000847295 0)
(0.126254 0.00080369 0)
(0.124868 0.000762555 0)
(0.123531 0.000723637 0)
(0.122242 0.000686705 0)
(0.121001 0.000651548 0)
(0.119807 0.000617972 0)
(0.118659 0.0005858 0)
(0.117555 0.000554868 0)
(0.116497 0.000525028 0)
(0.115482 0.000496143 0)
(0.114512 0.000468087 0)
(0.113586 0.000440746 0)
(0.112705 0.000414011 0)
(0.111867 0.000387776 0)
(0.111075 0.000361941 0)
(0.110328 0.000336408 0)
(0.109627 0.000311089 0)
(0.108973 0.000285906 0)
(0.108366 0.00026081 0)
(0.107807 0.000235797 0)
(0.107296 0.000210917 0)
(0.106834 0.000186297 0)
(0.106421 0.000162148 0)
(0.106055 0.000138756 0)
(0.105736 0.000116474 0)
(0.105461 9.56863e-05 0)
(0.105226 7.6772e-05 0)
(0.10503 6.0055e-05 0)
(0.104867 4.57626e-05 0)
(0.104734 3.39956e-05 0)
(0.104625 2.47195e-05 0)
(0.104536 1.77774e-05 0)
(0.104463 1.29261e-05 0)
(0.104402 9.90843e-06 0)
(0.104349 8.48366e-06 0)
(0.104299 8.46067e-06 0)
(0.104251 9.64351e-06 0)
(0.104202 1.17382e-05 0)
(0.10415 1.4394e-05 0)
(0.104093 1.72761e-05 0)
(0.104032 2.0108e-05 0)
(0.103965 2.26773e-05 0)
(0.103894 2.48352e-05 0)
(0.103818 2.64937e-05 0)
(0.103738 2.76173e-05 0)
(0.103656 2.82136e-05 0)
(0.103572 2.83214e-05 0)
(0.103487 2.79997e-05 0)
(0.103402 2.73175e-05 0)
(0.103318 2.63456e-05 0)
(0.103236 2.51519e-05 0)
(0.103156 2.37998e-05 0)
(0.103078 2.23477e-05 0)
(0.103004 2.08535e-05 0)
(0.102934 1.93824e-05 0)
(0.102867 1.80237e-05 0)
(0.102805 1.69281e-05 0)
(0.102745 1.64017e-05 0)
(0.102687 1.7185e-05 0)
(0.10263 2.19134e-05 0)
(0.102532 4.1287e-05 0)
(0.200979 0.00442477 0)
(0.20338 0.00699399 0)
(0.205872 0.00811925 0)
(0.207688 0.0087907 0)
(0.208964 0.00923183 0)
(0.209885 0.00940368 0)
(0.210457 0.00933273 0)
(0.210657 0.0090842 0)
(0.2105 0.00871143 0)
(0.210022 0.00825397 0)
(0.209263 0.00774564 0)
(0.208266 0.00721613 0)
(0.207071 0.00668963 0)
(0.205718 0.00618402 0)
(0.20424 0.00571117 0)
(0.20267 0.00527768 0)
(0.201032 0.00488594 0)
(0.199346 0.00453522 0)
(0.197629 0.0042228 0)
(0.195893 0.00394482 0)
(0.194148 0.00369703 0)
(0.192399 0.0034752 0)
(0.190653 0.00327547 0)
(0.188914 0.00309443 0)
(0.187185 0.00292921 0)
(0.185468 0.00277745 0)
(0.183766 0.00263723 0)
(0.182081 0.002507 0)
(0.180415 0.00238551 0)
(0.178769 0.00227177 0)
(0.177144 0.00216497 0)
(0.175542 0.00206442 0)
(0.173964 0.00196955 0)
(0.172411 0.00187986 0)
(0.170884 0.00179493 0)
(0.169384 0.00171436 0)
(0.167911 0.00163778 0)
(0.166467 0.00156488 0)
(0.165052 0.00149535 0)
(0.163666 0.00142889 0)
(0.16231 0.00136523 0)
(0.160985 0.00130413 0)
(0.159692 0.00124533 0)
(0.158431 0.0011886 0)
(0.157202 0.00113373 0)
(0.156007 0.00108051 0)
(0.154846 0.00102875 0)
(0.153721 0.000978244 0)
(0.152631 0.000928833 0)
(0.151578 0.000880346 0)
(0.150564 0.000832626 0)
(0.149588 0.000785521 0)
(0.148653 0.000738887 0)
(0.14776 0.000692587 0)
(0.14691 0.000646495 0)
(0.146105 0.000600506 0)
(0.145345 0.000554551 0)
(0.144633 0.00050861 0)
(0.143969 0.000462743 0)
(0.143355 0.000417105 0)
(0.142792 0.000371966 0)
(0.142278 0.00032772 0)
(0.141814 0.00028487 0)
(0.141398 0.000244005 0)
(0.14103 0.000205748 0)
(0.140706 0.000170704 0)
(0.140423 0.000139388 0)
(0.140178 0.000112166 0)
(0.139967 8.92175e-05 0)
(0.139785 7.05256e-05 0)
(0.139629 5.5898e-05 0)
(0.139494 4.50184e-05 0)
(0.139375 3.75209e-05 0)
(0.13927 3.30299e-05 0)
(0.139173 3.11788e-05 0)
(0.139081 3.15538e-05 0)
(0.138992 3.36533e-05 0)
(0.138904 3.6932e-05 0)
(0.138814 4.08647e-05 0)
(0.138722 4.49926e-05 0)
(0.138626 4.89419e-05 0)
(0.138526 5.24307e-05 0)
(0.138422 5.52686e-05 0)
(0.138314 5.73488e-05 0)
(0.138202 5.86351e-05 0)
(0.138088 5.91457e-05 0)
(0.137971 5.89356e-05 0)
(0.137852 5.80827e-05 0)
(0.137733 5.66744e-05 0)
(0.137614 5.48006e-05 0)
(0.137495 5.25498e-05 0)
(0.137378 5.00091e-05 0)
(0.137263 4.72695e-05 0)
(0.137152 4.44383e-05 0)
(0.137043 4.16636e-05 0)
(0.136939 3.9191e-05 0)
(0.13684 3.75056e-05 0)
(0.136743 3.77563e-05 0)
(0.136649 4.34844e-05 0)
(0.136519 6.49657e-05 0)
(0.200608 0.00333599 0)
(0.202297 0.00577219 0)
(0.204389 0.00710302 0)
(0.206232 0.00789262 0)
(0.207777 0.00842447 0)
(0.20914 0.00872222 0)
(0.210331 0.00880062 0)
(0.211311 0.00870627 0)
(0.212061 0.0084845 0)
(0.212584 0.00817015 0)
(0.21289 0.00779283 0)
(0.212995 0.00737924 0)
(0.212918 0.00695223 0)
(0.212681 0.00652978 0)
(0.212307 0.00612483 0)
(0.211817 0.00574566 0)
(0.211231 0.00539662 0)
(0.210567 0.00507898 0)
(0.209838 0.00479186 0)
(0.209055 0.00453299 0)
(0.208228 0.00429941 0)
(0.207364 0.00408793 0)
(0.206469 0.00389545 0)
(0.205547 0.00371917 0)
(0.204601 0.00355667 0)
(0.203635 0.00340589 0)
(0.202652 0.00326517 0)
(0.201654 0.00313313 0)
(0.200642 0.0030087 0)
(0.19962 0.00289097 0)
(0.198588 0.00277924 0)
(0.19755 0.0026729 0)
(0.196506 0.00257146 0)
(0.195458 0.00247447 0)
(0.194408 0.00238157 0)
(0.193358 0.00229239 0)
(0.192309 0.00220664 0)
(0.191263 0.00212402 0)
(0.19022 0.00204424 0)
(0.189184 0.00196706 0)
(0.188154 0.00189222 0)
(0.187133 0.00181948 0)
(0.186121 0.00174862 0)
(0.185121 0.0016794 0)
(0.184134 0.00161162 0)
(0.183162 0.00154506 0)
(0.182205 0.00147953 0)
(0.181265 0.00141484 0)
(0.180345 0.00135079 0)
(0.179446 0.00128721 0)
(0.178569 0.00122394 0)
(0.177716 0.00116079 0)
(0.17689 0.00109763 0)
(0.176092 0.0010343 0)
(0.175324 0.00097068 0)
(0.174588 0.000906693 0)
(0.173886 0.000842301 0)
(0.173219 0.000777552 0)
(0.17259 0.000712599 0)
(0.172 0.000647725 0)
(0.171449 0.00058336 0)
(0.170939 0.000520085 0)
(0.170469 0.000458611 0)
(0.170039 0.000399746 0)
(0.169649 0.000344329 0)
(0.169295 0.000293162 0)
(0.168978 0.00024693 0)
(0.168694 0.000206135 0)
(0.168441 0.000171049 0)
(0.168215 0.000141711 0)
(0.168014 0.000117952 0)
(0.167834 9.94482e-05 0)
(0.167671 8.57891e-05 0)
(0.167524 7.65129e-05 0)
(0.167387 7.11186e-05 0)
(0.167259 6.90344e-05 0)
(0.167137 6.96035e-05 0)
(0.167019 7.2125e-05 0)
(0.166902 7.59186e-05 0)
(0.166786 8.03751e-05 0)
(0.166668 8.49817e-05 0)
(0.166548 8.93328e-05 0)
(0.166424 9.31324e-05 0)
(0.166298 9.61861e-05 0)
(0.166167 9.83869e-05 0)
(0.166032 9.96968e-05 0)
(0.165894 0.000100127 0)
(0.165752 9.97213e-05 0)
(0.165606 9.85399e-05 0)
(0.165457 9.66518e-05 0)
(0.165307 9.41303e-05 0)
(0.165155 9.10537e-05 0)
(0.165002 8.7513e-05 0)
(0.164849 8.36286e-05 0)
(0.164698 7.95828e-05 0)
(0.164549 7.56916e-05 0)
(0.164402 7.25811e-05 0)
(0.16426 7.16793e-05 0)
(0.164122 7.67924e-05 0)
(0.163949 9.70805e-05 0)
(0.200397 0.00261517 0)
(0.201585 0.00476228 0)
(0.203226 0.00613032 0)
(0.204837 0.00698626 0)
(0.206289 0.0075701 0)
(0.207632 0.00794008 0)
(0.208882 0.00811093 0)
(0.210012 0.00811674 0)
(0.211 0.00799675 0)
(0.211839 0.00778328 0)
(0.212528 0.00750323 0)
(0.213074 0.00718053 0)
(0.213484 0.00683599 0)
(0.213769 0.00648651 0)
(0.213944 0.00614473 0)
(0.214022 0.00581933 0)
(0.214016 0.00551549 0)
(0.21394 0.00523561 0)
(0.213803 0.00497998 0)
(0.213614 0.00474749 0)
(0.21338 0.00453617 0)
(0.213108 0.00434368 0)
(0.2128 0.00416762 0)
(0.212462 0.00400569 0)
(0.212094 0.00385584 0)
(0.2117 0.0037163 0)
(0.211282 0.00358557 0)
(0.210841 0.00346244 0)
(0.210378 0.00334588 0)
(0.209894 0.00323507 0)
(0.209392 0.00312934 0)
(0.208872 0.00302814 0)
(0.208335 0.00293098 0)
(0.207783 0.00283746 0)
(0.207216 0.00274723 0)
(0.206637 0.00265996 0)
(0.206046 0.00257536 0)
(0.205445 0.00249316 0)
(0.204834 0.0024131 0)
(0.204216 0.00233493 0)
(0.20359 0.00225842 0)
(0.202959 0.00218334 0)
(0.202324 0.00210946 0)
(0.201686 0.00203656 0)
(0.201047 0.00196444 0)
(0.200408 0.00189287 0)
(0.19977 0.00182167 0)
(0.199135 0.00175062 0)
(0.198505 0.00167954 0)
(0.197881 0.00160823 0)
(0.197265 0.00153652 0)
(0.196658 0.00146424 0)
(0.196063 0.00139123 0)
(0.195481 0.00131735 0)
(0.194914 0.00124248 0)
(0.194364 0.00116658 0)
(0.193833 0.00108966 0)
(0.193322 0.00101183 0)
(0.192834 0.000933335 0)
(0.192368 0.000854576 0)
(0.191927 0.000776119 0)
(0.191512 0.000698696 0)
(0.191122 0.000623183 0)
(0.190759 0.000550553 0)
(0.190421 0.000481808 0)
(0.190109 0.000417897 0)
(0.189821 0.000359638 0)
(0.189557 0.000307642 0)
(0.189314 0.000262276 0)
(0.189093 0.00022365 0)
(0.18889 0.000191646 0)
(0.188704 0.000165972 0)
(0.188533 0.000146215 0)
(0.188374 0.000131879 0)
(0.188225 0.000122399 0)
(0.188086 0.000117117 0)
(0.187952 0.000115294 0)
(0.187824 0.000116144 0)
(0.187698 0.000118901 0)
(0.187575 0.000122868 0)
(0.187451 0.000127445 0)
(0.187326 0.000132147 0)
(0.187199 0.0001366 0)
(0.187069 0.00014054 0)
(0.186935 0.000143793 0)
(0.186796 0.000146263 0)
(0.186652 0.0001479 0)
(0.186502 0.000148691 0)
(0.186346 0.000148639 0)
(0.186184 0.000147754 0)
(0.186016 0.000146053 0)
(0.185843 0.000143558 0)
(0.185665 0.000140311 0)
(0.185483 0.000136391 0)
(0.185298 0.000131961 0)
(0.185111 0.00012734 0)
(0.184924 0.000123198 0)
(0.184739 0.00012101 0)
(0.184558 0.000124268 0)
(0.184342 0.000140112 0)
(0.200273 0.00210931 0)
(0.20113 0.00396199 0)
(0.202406 0.0052857 0)
(0.203764 0.00617299 0)
(0.205051 0.00678814 0)
(0.206268 0.00719939 0)
(0.207424 0.00742762 0)
(0.208503 0.00750006 0)
(0.209484 0.0074504 0)
(0.21036 0.00730859 0)
(0.211129 0.00709955 0)
(0.211792 0.00684497 0)
(0.212354 0.00656378 0)
(0.212823 0.00627158 0)
(0.213208 0.00598044 0)
(0.213519 0.00569897 0)
(0.213765 0.00543276 0)
(0.213956 0.00518488 0)
(0.2141 0.00495643 0)
(0.214205 0.00474716 0)
(0.214275 0.00455589 0)
(0.214314 0.00438096 0)
(0.214328 0.00422052 0)
(0.214317 0.0040727 0)
(0.214284 0.00393577 0)
(0.21423 0.0038082 0)
(0.214156 0.00368865 0)
(0.214063 0.00357599 0)
(0.213952 0.00346929 0)
(0.213824 0.00336775 0)
(0.213678 0.00327074 0)
(0.213516 0.00317771 0)
(0.213338 0.00308819 0)
(0.213144 0.00300178 0)
(0.212936 0.00291812 0)
(0.212713 0.00283691 0)
(0.212477 0.00275784 0)
(0.212228 0.00268064 0)
(0.211966 0.00260505 0)
(0.211692 0.00253082 0)
(0.211408 0.00245771 0)
(0.211113 0.00238549 0)
(0.210809 0.00231392 0)
(0.210497 0.00224278 0)
(0.210177 0.00217184 0)
(0.209849 0.00210089 0)
(0.209516 0.0020297 0)
(0.209179 0.00195807 0)
(0.208837 0.00188579 0)
(0.208493 0.00181266 0)
(0.208147 0.00173848 0)
(0.207802 0.00166309 0)
(0.207457 0.0015863 0)
(0.207115 0.001508 0)
(0.206776 0.00142809 0)
(0.206442 0.00134652 0)
(0.206115 0.00126336 0)
(0.205795 0.00117876 0)
(0.205484 0.00109305 0)
(0.205182 0.00100669 0)
(0.204891 0.000920342 0)
(0.204611 0.000834832 0)
(0.204343 0.000751133 0)
(0.204087 0.000670312 0)
(0.203844 0.000593464 0)
(0.203613 0.000521623 0)
(0.203396 0.00045569 0)
(0.203191 0.000396352 0)
(0.202999 0.000344049 0)
(0.202819 0.000298962 0)
(0.20265 0.000261037 0)
(0.202492 0.000230029 0)
(0.202344 0.000205556 0)
(0.202204 0.000187128 0)
(0.202072 0.000174165 0)
(0.201946 0.000165989 0)
(0.201825 0.000161839 0)
(0.201709 0.000160911 0)
(0.201596 0.000162418 0)
(0.201484 0.000165636 0)
(0.201373 0.000169936 0)
(0.201261 0.000174798 0)
(0.201147 0.000179814 0)
(0.20103 0.000184684 0)
(0.200909 0.000189195 0)
(0.200783 0.000193206 0)
(0.20065 0.00019662 0)
(0.200509 0.000199369 0)
(0.200361 0.000201392 0)
(0.200204 0.000202629 0)
(0.200038 0.000203014 0)
(0.199863 0.000202483 0)
(0.199678 0.000200986 0)
(0.199486 0.000198512 0)
(0.199285 0.000195134 0)
(0.199079 0.000191094 0)
(0.198867 0.000186969 0)
(0.198654 0.000184029 0)
(0.198443 0.00018496 0)
(0.198193 0.000194033 0)
(0.200197 0.00173901 0)
(0.200832 0.00333116 0)
(0.20183 0.00456519 0)
(0.202961 0.00544779 0)
(0.204081 0.00607607 0)
(0.205162 0.00651162 0)
(0.206202 0.00677949 0)
(0.207186 0.00690254 0)
(0.208099 0.00690868 0)
(0.20893 0.0068246 0)
(0.209676 0.00667312 0)
(0.210339 0.00647402 0)
(0.210922 0.00624458 0)
(0.211431 0.00599927 0)
(0.211872 0.00574957 0)
(0.212253 0.00550399 0)
(0.212584 0.00526837 0)
(0.212871 0.0050463 0)
(0.213122 0.00483955 0)
(0.213342 0.00464855 0)
(0.213536 0.0044728 0)
(0.213709 0.00431126 0)
(0.213863 0.00416257 0)
(0.214 0.00402529 0)
(0.214122 0.003898 0)
(0.214231 0.0037794 0)
(0.214327 0.00366831 0)
(0.214411 0.00356372 0)
(0.214483 0.00346478 0)
(0.214543 0.00337074 0)
(0.214592 0.00328097 0)
(0.214629 0.00319496 0)
(0.214656 0.00311223 0)
(0.214671 0.00303238 0)
(0.214676 0.00295506 0)
(0.21467 0.00287994 0)
(0.214654 0.00280671 0)
(0.214627 0.0027351 0)
(0.214591 0.00266483 0)
(0.214544 0.00259565 0)
(0.214488 0.00252729 0)
(0.214423 0.00245953 0)
(0.214348 0.0023921 0)
(0.214265 0.00232477 0)
(0.214174 0.00225731 0)
(0.214074 0.00218948 0)
(0.213967 0.00212105 0)
(0.213854 0.0020518 0)
(0.213733 0.0019815 0)
(0.213607 0.00190994 0)
(0.213475 0.00183692 0)
(0.213339 0.00176224 0)
(0.213198 0.00168575 0)
(0.213054 0.00160731 0)
(0.212906 0.00152682 0)
(0.212757 0.00144428 0)
(0.212606 0.00135976 0)
(0.212454 0.00127345 0)
(0.212302 0.00118569 0)
(0.21215 0.00109701 0)
(0.211998 0.00100809 0)
(0.211847 0.000919789 0)
(0.211698 0.000833112 0)
(0.211551 0.000749153 0)
(0.211406 0.000669026 0)
(0.211264 0.000593793 0)
(0.211126 0.000524381 0)
(0.210991 0.000461518 0)
(0.210862 0.000405692 0)
(0.210737 0.000357141 0)
(0.210617 0.000315872 0)
(0.210502 0.000281699 0)
(0.210392 0.000254287 0)
(0.210286 0.00023318 0)
(0.210185 0.000217819 0)
(0.210089 0.000207549 0)
(0.209995 0.000201635 0)
(0.209905 0.000199302 0)
(0.209816 0.000199788 0)
(0.209729 0.000202388 0)
(0.209642 0.000206488 0)
(0.209554 0.000211574 0)
(0.209465 0.000217241 0)
(0.209372 0.000223184 0)
(0.209274 0.00022918 0)
(0.209172 0.00023507 0)
(0.209062 0.000240732 0)
(0.208944 0.000246059 0)
(0.208817 0.000250941 0)
(0.20868 0.000255253 0)
(0.208532 0.000258849 0)
(0.208372 0.000261566 0)
(0.2082 0.000263242 0)
(0.208015 0.000263738 0)
(0.20782 0.000262989 0)
(0.207614 0.000261077 0)
(0.207398 0.000258365 0)
(0.207177 0.000255705 0)
(0.206956 0.000254656 0)
(0.20669 0.000256235 0)
(0.200147 0.00145737 0)
(0.20063 0.00282754 0)
(0.201417 0.00395233 0)
(0.202354 0.00480337 0)
(0.203322 0.00542993 0)
(0.204276 0.00587886 0)
(0.205204 0.00617496 0)
(0.206094 0.00633784 0)
(0.206929 0.00639017 0)
(0.207699 0.00635496 0)
(0.2084 0.00625274 0)
(0.209032 0.00610147 0)
(0.209596 0.0059169 0)
(0.210098 0.00571241 0)
(0.210541 0.00549887 0)
(0.210934 0.00528459 0)
(0.211284 0.00507557 0)
(0.211596 0.00487577 0)
(0.211877 0.00468748 0)
(0.212132 0.00451173 0)
(0.212367 0.00434863 0)
(0.212584 0.00419766 0)
(0.212787 0.00405794 0)
(0.212978 0.00392844 0)
(0.213159 0.00380805 0)
(0.21333 0.0036957 0)
(0.213493 0.00359041 0)
(0.213649 0.0034913 0)
(0.213797 0.00339759 0)
(0.213939 0.00330862 0)
(0.214073 0.00322379 0)
(0.214201 0.00314262 0)
(0.214323 0.00306464 0)
(0.214438 0.00298946 0)
(0.214546 0.00291674 0)
(0.214648 0.00284613 0)
(0.214744 0.00277735 0)
(0.214833 0.0027101 0)
(0.214915 0.00264411 0)
(0.214991 0.00257912 0)
(0.215061 0.00251486 0)
(0.215124 0.00245108 0)
(0.21518 0.00238754 0)
(0.21523 0.00232397 0)
(0.215274 0.00226014 0)
(0.215311 0.00219581 0)
(0.215342 0.00213073 0)
(0.215367 0.00206467 0)
(0.215386 0.0019974 0)
(0.215398 0.00192869 0)
(0.215405 0.00185835 0)
(0.215405 0.00178617 0)
(0.2154 0.00171198 0)
(0.21539 0.00163567 0)
(0.215374 0.00155713 0)
(0.215352 0.00147638 0)
(0.215325 0.00139348 0)
(0.215293 0.00130866 0)
(0.215255 0.00122226 0)
(0.215213 0.00113479 0)
(0.215165 0.00104695 0)
(0.215112 0.000959567 0)
(0.215054 0.000873629 0)
(0.214993 0.000790195 0)
(0.214927 0.000710351 0)
(0.214858 0.000635131 0)
(0.214786 0.000565447 0)
(0.214713 0.00050203 0)
(0.214639 0.000445391 0)
(0.214564 0.000395806 0)
(0.21449 0.000353334 0)
(0.214417 0.000317847 0)
(0.214346 0.000289062 0)
(0.214276 0.000266571 0)
(0.214208 0.000249863 0)
(0.214142 0.000238329 0)
(0.214078 0.000231289 0)
(0.214016 0.000228026 0)
(0.213955 0.000227831 0)
(0.213894 0.00023005 0)
(0.213834 0.00023411 0)
(0.213772 0.00023953 0)
(0.213709 0.000245935 0)
(0.213643 0.000253037 0)
(0.213573 0.000260629 0)
(0.213498 0.000268557 0)
(0.213415 0.000276695 0)
(0.213325 0.000284924 0)
(0.213226 0.000293104 0)
(0.213116 0.000301065 0)
(0.212995 0.000308594 0)
(0.212861 0.000315438 0)
(0.212713 0.00032132 0)
(0.212552 0.000325963 0)
(0.212376 0.00032913 0)
(0.212188 0.000330693 0)
(0.211988 0.000330711 0)
(0.211778 0.000329497 0)
(0.211566 0.000327387 0)
(0.211305 0.000322414 0)
(0.200113 0.00123643 0)
(0.200487 0.00241973 0)
(0.201115 0.00343196 0)
(0.201891 0.00423449 0)
(0.202721 0.00484657 0)
(0.203559 0.00529924 0)
(0.204386 0.00561376 0)
(0.205188 0.00580685 0)
(0.205949 0.00589687 0)
(0.206659 0.00590315 0)
(0.207312 0.00584373 0)
(0.207907 0.00573471 0)
(0.208444 0.00559032 0)
(0.208927 0.00542281 0)
(0.20936 0.00524236 0)
(0.209747 0.00505698 0)
(0.210095 0.00487267 0)
(0.21041 0.00469362 0)
(0.210696 0.00452255 0)
(0.210959 0.00436095 0)
(0.211203 0.00420944 0)
(0.211432 0.00406797 0)
(0.211647 0.00393611 0)
(0.211853 0.00381319 0)
(0.21205 0.00369841 0)
(0.212239 0.00359094 0)
(0.212423 0.00349 0)
(0.212601 0.00339485 0)
(0.212774 0.00330482 0)
(0.212943 0.00321932 0)
(0.213107 0.00313782 0)
(0.213267 0.00305986 0)
(0.213424 0.00298502 0)
(0.213576 0.00291293 0)
(0.213725 0.00284325 0)
(0.21387 0.00277566 0)
(0.214012 0.00270987 0)
(0.214149 0.0026456 0)
(0.214283 0.00258258 0)
(0.214413 0.00252055 0)
(0.214539 0.00245925 0)
(0.214661 0.00239842 0)
(0.214779 0.00233783 0)
(0.214892 0.00227721 0)
(0.215002 0.00221633 0)
(0.215107 0.00215494 0)
(0.215207 0.0020928 0)
(0.215303 0.00202968 0)
(0.215394 0.00196534 0)
(0.21548 0.00189957 0)
(0.215561 0.00183216 0)
(0.215637 0.00176291 0)
(0.215707 0.00169167 0)
(0.215772 0.00161831 0)
(0.21583 0.00154276 0)
(0.215882 0.00146501 0)
(0.215928 0.00138517 0)
(0.215967 0.00130343 0)
(0.215999 0.00122015 0)
(0.216024 0.0011358 0)
(0.216041 0.00105106 0)
(0.21605 0.000966709 0)
(0.216052 0.000883672 0)
(0.216046 0.000802944 0)
(0.216033 0.000725544 0)
(0.216014 0.000652445 0)
(0.215989 0.000584515 0)
(0.21596 0.00052246 0)
(0.215926 0.000466789 0)
(0.215889 0.000417802 0)
(0.21585 0.000375594 0)
(0.21581 0.000340086 0)
(0.215768 0.000311048 0)
(0.215727 0.000288125 0)
(0.215686 0.000270861 0)
(0.215646 0.000258709 0)
(0.215606 0.000251053 0)
(0.215567 0.000247248 0)
(0.215529 0.000246654 0)
(0.215491 0.000248681 0)
(0.215454 0.000252809 0)
(0.215415 0.00025861 0)
(0.215375 0.000265746 0)
(0.215332 0.000273967 0)
(0.215286 0.000283094 0)
(0.215235 0.000292994 0)
(0.215178 0.00030356 0)
(0.215114 0.000314676 0)
(0.215042 0.000326196 0)
(0.21496 0.000337926 0)
(0.214868 0.000349606 0)
(0.214763 0.000360913 0)
(0.214644 0.000371467 0)
(0.214512 0.000380855 0)
(0.214366 0.000388666 0)
(0.214206 0.000394536 0)
(0.214033 0.000398186 0)
(0.213849 0.000399361 0)
(0.21366 0.000397303 0)
(0.213422 0.00038788 0)
(0.200088 0.00105885 0)
(0.200384 0.00208489 0)
(0.20089 0.0029894 0)
(0.201534 0.00373421 0)
(0.202243 0.00432157 0)
(0.202976 0.00476937 0)
(0.203711 0.00509378 0)
(0.20443 0.00530859 0)
(0.205122 0.00542856 0)
(0.205775 0.00546958 0)
(0.206382 0.00544716 0)
(0.206941 0.00537545 0)
(0.20745 0.00526718 0)
(0.207913 0.00513345 0)
(0.208331 0.00498365 0)
(0.208709 0.00482541 0)
(0.209051 0.0046646 0)
(0.209362 0.00450554 0)
(0.209648 0.00435123 0)
(0.209911 0.00420351 0)
(0.210156 0.00406342 0)
(0.210386 0.00393134 0)
(0.210604 0.0038072 0)
(0.210811 0.00369066 0)
(0.211011 0.00358122 0)
(0.211204 0.00347829 0)
(0.211391 0.00338127 0)
(0.211573 0.00328956 0)
(0.211751 0.00320262 0)
(0.211926 0.00311994 0)
(0.212097 0.00304105 0)
(0.212265 0.00296555 0)
(0.212431 0.00289306 0)
(0.212593 0.00282323 0)
(0.212754 0.00275574 0)
(0.212911 0.00269031 0)
(0.213067 0.00262664 0)
(0.21322 0.00256448 0)
(0.21337 0.00250356 0)
(0.213518 0.00244363 0)
(0.213664 0.00238445 0)
(0.213807 0.00232577 0)
(0.213948 0.00226735 0)
(0.214085 0.00220894 0)
(0.21422 0.00215032 0)
(0.214352 0.00209124 0)
(0.214481 0.00203148 0)
(0.214606 0.0019708 0)
(0.214728 0.00190898 0)
(0.214845 0.00184581 0)
(0.214959 0.0017811 0)
(0.215068 0.00171466 0)
(0.215173 0.00164635 0)
(0.215272 0.00157605 0)
(0.215366 0.00150369 0)
(0.215454 0.0014293 0)
(0.215535 0.00135296 0)
(0.215609 0.00127488 0)
(0.215676 0.00119539 0)
(0.215736 0.00111495 0)
(0.215787 0.00103417 0)
(0.21583 0.000953783 0)
(0.215864 0.000874638 0)
(0.21589 0.000797646 0)
(0.215908 0.000723743 0)
(0.215919 0.000653825 0)
(0.215922 0.000588697 0)
(0.215919 0.000529025 0)
(0.215911 0.000475301 0)
(0.215898 0.00042783 0)
(0.215882 0.000386735 0)
(0.215864 0.000351974 0)
(0.215843 0.000323363 0)
(0.215821 0.000300602 0)
(0.215799 0.000283288 0)
(0.215777 0.000270937 0)
(0.215755 0.000263005 0)
(0.215733 0.000258916 0)
(0.215711 0.000258104 0)
(0.21569 0.000260045 0)
(0.215669 0.00026428 0)
(0.215647 0.000270432 0)
(0.215623 0.000278212 0)
(0.215598 0.00028741 0)
(0.21557 0.000297882 0)
(0.215538 0.000309527 0)
(0.215502 0.000322264 0)
(0.215459 0.000335995 0)
(0.21541 0.000350583 0)
(0.215352 0.000365828 0)
(0.215285 0.000381443 0)
(0.215207 0.000397055 0)
(0.215118 0.000412201 0)
(0.215015 0.000426348 0)
(0.2149 0.000438919 0)
(0.214772 0.000449325 0)
(0.214631 0.000456958 0)
(0.21448 0.000461052 0)
(0.214322 0.00046002 0)
(0.214118 0.000448632 0)
(0.20007 0.000913326 0)
(0.200308 0.0018064 0)
(0.200719 0.00261157 0)
(0.201255 0.00329503 0)
(0.20186 0.00385047 0)
(0.202499 0.0042862 0)
(0.203148 0.00461325 0)
(0.203794 0.00484235 0)
(0.204421 0.00498517 0)
(0.205019 0.00505457 0)
(0.205582 0.00506355 0)
(0.206105 0.00502437 0)
(0.206588 0.00494824 0)
(0.207029 0.00484511 0)
(0.207433 0.00472358 0)
(0.2078 0.00459075 0)
(0.208136 0.00445231 0)
(0.208443 0.00431258 0)
(0.208725 0.0041747 0)
(0.208987 0.00404081 0)
(0.209231 0.00391226 0)
(0.209461 0.00378974 0)
(0.209679 0.00367355 0)
(0.209886 0.00356361 0)
(0.210085 0.0034597 0)
(0.210278 0.00336145 0)
(0.210465 0.00326842 0)
(0.210646 0.00318018 0)
(0.210824 0.00309629 0)
(0.210998 0.00301634 0)
(0.211169 0.00293993 0)
(0.211338 0.00286671 0)
(0.211503 0.00279634 0)
(0.211667 0.00272851 0)
(0.211828 0.00266292 0)
(0.211987 0.00259932 0)
(0.212144 0.00253743 0)
(0.2123 0.00247701 0)
(0.212453 0.00241782 0)
(0.212605 0.0023596 0)
(0.212755 0.00230214 0)
(0.212902 0.00224519 0)
(0.213048 0.00218853 0)
(0.213192 0.00213194 0)
(0.213334 0.00207517 0)
(0.213473 0.00201802 0)
(0.21361 0.00196026 0)
(0.213744 0.00190167 0)
(0.213875 0.00184205 0)
(0.214002 0.00178119 0)
(0.214127 0.00171893 0)
(0.214247 0.00165508 0)
(0.214364 0.00158953 0)
(0.214476 0.00152216 0)
(0.214582 0.00145294 0)
(0.214684 0.00138188 0)
(0.214779 0.00130908 0)
(0.214868 0.00123475 0)
(0.214949 0.00115918 0)
(0.215024 0.00108282 0)
(0.21509 0.00100623 0)
(0.215148 0.000930076 0)
(0.215198 0.000855126 0)
(0.21524 0.00078221 0)
(0.215273 0.000712174 0)
(0.215299 0.000645834 0)
(0.215318 0.000583927 0)
(0.21533 0.00052707 0)
(0.215336 0.000475728 0)
(0.215338 0.000430203 0)
(0.215336 0.000390634 0)
(0.21533 0.000357009 0)
(0.215323 0.000329186 0)
(0.215314 0.000306908 0)
(0.215303 0.000289829 0)
(0.215293 0.000277522 0)
(0.215282 0.000269509 0)
(0.215271 0.000265286 0)
(0.21526 0.000264354 0)
(0.21525 0.000266252 0)
(0.215239 0.000270581 0)
(0.215228 0.000277016 0)
(0.215217 0.000285311 0)
(0.215203 0.000295299 0)
(0.215188 0.00030687 0)
(0.21517 0.000319959 0)
(0.215148 0.00033451 0)
(0.215122 0.000350452 0)
(0.21509 0.000367663 0)
(0.215051 0.000385947 0)
(0.215005 0.000405006 0)
(0.21495 0.000424432 0)
(0.214885 0.000443698 0)