/*--------------------------------*- C++ -*----------------------------------*\
| =========                 |                                                 |
| \\      /  F ield         | OpenFOAM: The Open Source CFD Toolbox           |
|  \\    /   O peration     | Version:  2.3.0                                 |
|   \\  /    A nd           | Web:      www.OpenFOAM.org                      |
|    \\/     M anipulation  |                                                 |
\*---------------------------------------------------------------------------*/
FoamFile
{
    version     2.0;
    format      ascii;
    class       volVectorField;
    location    "0.25";
    object      U_0;
}
// * * * * * * * * * * * * * * * * * * * * * * * * * * * * * * * * * * * * * //

dimensions      [0 1 -1 0 0 0 0];

internalField   nonuniform List<vector> 
2700
(
(0.185025 0.00502029 0)
(0.173514 0.00578134 0)
(0.158817 0.00543636 0)
(0.143356 0.00502209 0)
(0.128974 0.00454758 0)
(0.11597 0.00399861 0)
(0.104223 0.00342409 0)
(0.093686 0.00286631 0)
(0.08437 0.00234795 0)
(0.0762572 0.00188204 0)
(0.0692843 0.00147662 0)
(0.0633571 0.00113499 0)
(0.058365 0.000855944 0)
(0.0541891 0.00063476 0)
(0.0507096 0.000464457 0)
(0.0478115 0.000336953 0)
(0.0453894 0.00024405 0)
(0.043351 0.000178136 0)
(0.0416181 0.000132588 0)
(0.0401262 0.000101924 0)
(0.038824 8.17893e-05 0)
(0.0376713 6.88508e-05 0)
(0.0366376 6.06454e-05 0)
(0.0356995 5.542e-05 0)
(0.0348398 5.19757e-05 0)
(0.0340455 4.95278e-05 0)
(0.0333071 4.75886e-05 0)
(0.0326171 4.58745e-05 0)
(0.0319701 4.42346e-05 0)
(0.0313614 4.26006e-05 0)
(0.0307876 4.09512e-05 0)
(0.0302455 3.929e-05 0)
(0.0297327 3.76313e-05 0)
(0.0292469 3.59919e-05 0)
(0.028786 3.43871e-05 0)
(0.0283484 3.28293e-05 0)
(0.0279324 3.13265e-05 0)
(0.0275366 2.98842e-05 0)
(0.0271598 2.85044e-05 0)
(0.0268007 2.71873e-05 0)
(0.0264584 2.59314e-05 0)
(0.0261319 2.47342e-05 0)
(0.0258204 2.35926e-05 0)
(0.0255232 2.25031e-05 0)
(0.0252397 2.14621e-05 0)
(0.0249693 2.0466e-05 0)
(0.0247114 1.95115e-05 0)
(0.0244658 1.85956e-05 0)
(0.0242319 1.77158e-05 0)
(0.0240096 1.68697e-05 0)
(0.0237985 1.60552e-05 0)
(0.0235984 1.52694e-05 0)
(0.0234091 1.45086e-05 0)
(0.0232306 1.37668e-05 0)
(0.0230627 1.30352e-05 0)
(0.0229055 1.23018e-05 0)
(0.0227591 1.15518e-05 0)
(0.0226236 1.07683e-05 0)
(0.0224992 9.93512e-06 0)
(0.0223863 9.03948e-06 0)
(0.0222853 8.07534e-06 0)
(0.0221962 7.04639e-06 0)
(0.0221194 5.968e-06 0)
(0.0220546 4.86716e-06 0)
(0.0220016 3.78111e-06 0)
(0.0219597 2.75363e-06 0)
(0.0219281 1.82936e-06 0)
(0.0219053 1.04607e-06 0)
(0.0218901 4.1999e-07 0)
(0.0218809 -5.26675e-08 0)
(0.0218764 -3.79929e-07 0)
(0.0218751 -5.79532e-07 0)
(0.0218757 -6.92491e-07 0)
(0.021877 -7.21616e-07 0)
(0.0218782 -7.28215e-07 0)
(0.0218787 -7.13546e-07 0)
(0.0218781 -5.69599e-07 0)
(0.0218754 -3.50407e-07 0)
(0.0218705 -1.07072e-07 0)
(0.0218632 1.32823e-07 0)
(0.0218536 3.52456e-07 0)
(0.0218421 5.40905e-07 0)
(0.0218289 6.9209e-07 0)
(0.0218145 8.04349e-07 0)
(0.0217993 8.79486e-07 0)
(0.0217837 9.21678e-07 0)
(0.0217679 9.36504e-07 0)
(0.0217523 9.30026e-07 0)
(0.0217372 9.08057e-07 0)
(0.0217225 8.75831e-07 0)
(0.0217086 8.37902e-07 0)
(0.0216954 7.98216e-07 0)
(0.021683 7.60554e-07 0)
(0.0216714 7.29603e-07 0)
(0.0216604 7.12709e-07 0)
(0.02165 7.23585e-07 0)
(0.0216397 7.92502e-07 0)
(0.0216287 9.82232e-07 0)
(0.0216168 1.30293e-06 0)
(0.0215752 7.34023e-06 0)
(0.200885 0.00843006 0)
(0.202375 0.00989661 0)
(0.200758 0.00956125 0)
(0.196718 0.0092015 0)
(0.191613 0.00878839 0)
(0.185984 0.00823163 0)
(0.179999 0.00757438 0)
(0.173807 0.0068707 0)
(0.167571 0.00615309 0)
(0.16143 0.00544442 0)
(0.155478 0.00476472 0)
(0.149781 0.00413063 0)
(0.144378 0.00355408 0)
(0.139291 0.003042 0)
(0.134528 0.00259674 0)
(0.130085 0.00221677 0)
(0.125951 0.0018976 0)
(0.122109 0.00163282 0)
(0.11854 0.00141509 0)
(0.115225 0.0012369 0)
(0.112143 0.00109117 0)
(0.109273 0.00097159 0)
(0.106598 0.000872786 0)
(0.1041 0.000790342 0)
(0.101762 0.000720733 0)
(0.0995707 0.00066121 0)
(0.0975127 0.000609664 0)
(0.0955762 0.000564496 0)
(0.093751 0.000524501 0)
(0.0920276 0.000488766 0)
(0.0903978 0.000456597 0)
(0.0888543 0.000427458 0)
(0.0873903 0.000400926 0)
(0.0860002 0.000376661 0)
(0.0846785 0.000354383 0)
(0.0834207 0.000333859 0)
(0.0822224 0.000314886 0)
(0.08108 0.00029729 0)
(0.0799901 0.000280918 0)
(0.0789497 0.000265635 0)
(0.0779561 0.000251319 0)
(0.077007 0.000237865 0)
(0.0761002 0.000225175 0)
(0.075234 0.000213164 0)
(0.0744068 0.000201754 0)
(0.0736171 0.000190877 0)
(0.0728638 0.000180471 0)
(0.0721459 0.00017048 0)
(0.0714625 0.000160856 0)
(0.070813 0.000151554 0)
(0.0701968 0.000142535 0)
(0.0696135 0.000133759 0)
(0.0690629 0.000125189 0)
(0.0685449 0.000116785 0)
(0.0680595 0.000108503 0)
(0.0676069 0.000100298 0)
(0.0671873 9.21243e-05 0)
(0.066801 8.39417e-05 0)
(0.0664486 7.57246e-05 0)
(0.0661302 6.74705e-05 0)
(0.065846 5.92102e-05 0)
(0.065596 5.10133e-05 0)
(0.0653796 4.299e-05 0)
(0.0651957 3.52853e-05 0)
(0.0650426 2.80663e-05 0)
(0.0649181 2.15039e-05 0)
(0.0648192 1.57508e-05 0)
(0.0647427 1.09179e-05 0)
(0.0646848 7.04883e-06 0)
(0.064642 4.11535e-06 0)
(0.0646106 2.04028e-06 0)
(0.0645874 7.14297e-07 0)
(0.0645698 6.91645e-09 0)
(0.0645554 -1.51864e-07 0)
(0.0645418 1.25386e-07 0)
(0.0645266 7.65306e-07 0)
(0.0645081 1.7655e-06 0)
(0.0644852 2.97884e-06 0)
(0.0644574 4.24516e-06 0)
(0.0644247 5.44717e-06 0)
(0.0643874 6.50486e-06 0)
(0.0643459 7.3682e-06 0)
(0.0643011 8.01241e-06 0)
(0.0642539 8.43358e-06 0)
(0.064205 8.64416e-06 0)
(0.0641555 8.66797e-06 0)
(0.0641059 8.53519e-06 0)
(0.0640571 8.27817e-06 0)
(0.0640096 7.92822e-06 0)
(0.0639638 7.5139e-06 0)
(0.0639201 7.06051e-06 0)
(0.0638787 6.59057e-06 0)
(0.0638398 6.12571e-06 0)
(0.0638035 5.69104e-06 0)
(0.0637696 5.32294e-06 0)
(0.0637379 5.08635e-06 0)
(0.0637078 5.11944e-06 0)
(0.0636778 5.74733e-06 0)
(0.0636469 8.02449e-06 0)
(0.0635736 2.20981e-05 0)
(0.201535 0.00623589 0)
(0.204572 0.00851782 0)
(0.206672 0.00908183 0)
(0.207308 0.00942201 0)
(0.207014 0.00959769 0)
(0.206101 0.00950814 0)
(0.20463 0.00919413 0)
(0.202657 0.00873008 0)
(0.200279 0.00817024 0)
(0.197595 0.00755465 0)
(0.194692 0.00691747 0)
(0.191643 0.00628734 0)
(0.188508 0.00568606 0)
(0.185338 0.0051283 0)
(0.182172 0.00462233 0)
(0.179038 0.00417111 0)
(0.175957 0.00377361 0)
(0.172945 0.00342609 0)
(0.17001 0.00312333 0)
(0.167157 0.00285952 0)
(0.16439 0.00262896 0)
(0.161709 0.00242644 0)
(0.159114 0.00224742 0)
(0.156603 0.00208808 0)
(0.154175 0.0019453 0)
(0.151828 0.00181654 0)
(0.14956 0.00169978 0)
(0.147369 0.00159338 0)
(0.145252 0.00149603 0)
(0.143207 0.00140663 0)
(0.141232 0.0013243 0)
(0.139325 0.00124827 0)
(0.137483 0.0011779 0)
(0.135705 0.00111262 0)
(0.133989 0.00105193 0)
(0.132332 0.000995369 0)
(0.130732 0.000942549 0)
(0.129189 0.000893101 0)
(0.1277 0.000846694 0)
(0.126263 0.000803027 0)
(0.124877 0.000761823 0)
(0.123542 0.000722831 0)
(0.122255 0.000685819 0)
(0.121016 0.000650576 0)
(0.119823 0.000616907 0)
(0.118677 0.000584634 0)
(0.117576 0.000553595 0)
(0.116519 0.000523641 0)
(0.115508 0.000494635 0)
(0.114541 0.000466452 0)
(0.113618 0.000438975 0)
(0.11274 0.000412094 0)
(0.111907 0.000385705 0)
(0.111119 0.000359705 0)
(0.110377 0.000333996 0)
(0.109681 0.000308489 0)
(0.109032 0.000283109 0)
(0.108431 0.000257815 0)
(0.107879 0.000232608 0)
(0.107375 0.000207554 0)
(0.10692 0.000182797 0)
(0.106514 0.000158563 0)
(0.106156 0.000135157 0)
(0.105844 0.000112945 0)
(0.105576 9.23186e-05 0)
(0.105348 7.36532e-05 0)
(0.105158 5.72618e-05 0)
(0.105001 4.33514e-05 0)
(0.104872 3.19969e-05 0)
(0.104768 2.31364e-05 0)
(0.104683 1.65875e-05 0)
(0.104612 1.20927e-05 0)
(0.104553 9.39199e-06 0)
(0.104501 8.25255e-06 0)
(0.104452 8.48764e-06 0)
(0.104404 9.89007e-06 0)
(0.104354 1.21477e-05 0)
(0.104302 1.49043e-05 0)
(0.104244 1.78303e-05 0)
(0.104182 2.06578e-05 0)
(0.104114 2.31845e-05 0)
(0.104041 2.52726e-05 0)
(0.103965 2.68439e-05 0)
(0.103884 2.78725e-05 0)
(0.103801 2.83731e-05 0)
(0.103717 2.83903e-05 0)
(0.103632 2.79866e-05 0)
(0.103547 2.72326e-05 0)
(0.103463 2.61997e-05 0)
(0.10338 2.49554e-05 0)
(0.103301 2.35619e-05 0)
(0.103224 2.2077e-05 0)
(0.103151 2.05574e-05 0)
(0.103081 1.90678e-05 0)
(0.103015 1.7697e-05 0)
(0.102953 1.65957e-05 0)
(0.102895 1.60703e-05 0)
(0.102838 1.68599e-05 0)
(0.102782 2.15684e-05 0)
(0.102686 4.07142e-05 0)
(0.200979 0.00442477 0)
(0.20338 0.00699399 0)
(0.205872 0.00811924 0)
(0.207688 0.0087907 0)
(0.208964 0.00923182 0)
(0.209885 0.00940367 0)
(0.210457 0.00933271 0)
(0.210657 0.00908418 0)
(0.2105 0.00871141 0)
(0.210022 0.00825394 0)
(0.209263 0.00774561 0)
(0.208266 0.0072161 0)
(0.207072 0.00668959 0)
(0.205718 0.00618398 0)
(0.204241 0.00571112 0)
(0.20267 0.00527762 0)
(0.201032 0.00488587 0)
(0.199346 0.00453514 0)
(0.19763 0.0042227 0)
(0.195894 0.00394472 0)
(0.194148 0.00369691 0)
(0.1924 0.00347506 0)
(0.190654 0.00327531 0)
(0.188915 0.00309424 0)
(0.187186 0.00292901 0)
(0.185469 0.00277722 0)
(0.183768 0.00263697 0)
(0.182083 0.0025067 0)
(0.180417 0.00238518 0)
(0.178771 0.0022714 0)
(0.177147 0.00216454 0)
(0.175545 0.00206394 0)
(0.173968 0.00196901 0)
(0.172415 0.00187927 0)
(0.170889 0.00179426 0)
(0.169389 0.00171361 0)
(0.167917 0.00163695 0)
(0.166473 0.00156396 0)
(0.165059 0.00149432 0)
(0.163674 0.00142775 0)
(0.16232 0.00136397 0)
(0.160996 0.00130273 0)
(0.159704 0.00124378 0)
(0.158444 0.0011869 0)
(0.157218 0.00113185 0)
(0.156025 0.00107845 0)
(0.154866 0.00102648 0)
(0.153743 0.000975762 0)
(0.152657 0.00092612 0)
(0.151607 0.000877387 0)
(0.150596 0.000829404 0)
(0.149624 0.000782019 0)
(0.148694 0.000735086 0)
(0.147805 0.000688469 0)
(0.14696 0.000642043 0)
(0.146161 0.000595707 0)
(0.145407 0.000549396 0)
(0.144702 0.000503105 0)
(0.144045 0.000456909 0)
(0.143438 0.000410984 0)
(0.142882 0.000365628 0)
(0.142376 0.000321259 0)
(0.14192 0.000278406 0)
(0.141513 0.000237675 0)
(0.141152 0.000199697 0)
(0.140835 0.000165072 0)
(0.140559 0.000134295 0)
(0.140321 0.000107704 0)
(0.140115 8.54385e-05 0)
(0.139939 6.74427e-05 0)
(0.139787 5.34899e-05 0)
(0.139655 4.32422e-05 0)
(0.139539 3.6325e-05 0)
(0.139435 3.23627e-05 0)
(0.13934 3.0982e-05 0)
(0.139249 3.17539e-05 0)
(0.13916 3.41606e-05 0)
(0.139072 3.76515e-05 0)
(0.138982 4.17062e-05 0)
(0.138889 4.5876e-05 0)
(0.138792 4.98008e-05 0)
(0.138691 5.32138e-05 0)
(0.138586 5.59398e-05 0)
(0.138477 5.78864e-05 0)
(0.138364 5.90292e-05 0)
(0.138249 5.93954e-05 0)
(0.138131 5.90464e-05 0)
(0.138012 5.80637e-05 0)
(0.137892 5.65367e-05 0)
(0.137772 5.45559e-05 0)
(0.137654 5.22094e-05 0)
(0.137537 4.95843e-05 0)
(0.137422 4.67713e-05 0)
(0.137311 4.38777e-05 0)
(0.137204 4.10523e-05 0)
(0.137101 3.85413e-05 0)
(0.137002 3.68302e-05 0)
(0.136906 3.70646e-05 0)
(0.136814 4.27487e-05 0)
(0.136686 6.4045e-05 0)
(0.200608 0.00333599 0)
(0.202297 0.00577218 0)
(0.204389 0.00710302 0)
(0.206232 0.00789261 0)
(0.207777 0.00842446 0)
(0.20914 0.00872221 0)
(0.210331 0.0088006 0)
(0.211311 0.00870625 0)
(0.212061 0.00848447 0)
(0.212584 0.00817012 0)
(0.21289 0.00779279 0)
(0.212995 0.00737919 0)
(0.212918 0.00695218 0)
(0.212681 0.00652973 0)
(0.212307 0.00612477 0)
(0.211817 0.00574558 0)
(0.211232 0.00539652 0)
(0.210567 0.00507887 0)
(0.209838 0.00479174 0)
(0.209055 0.00453285 0)
(0.208228 0.00429925 0)
(0.207365 0.00408774 0)
(0.206469 0.00389524 0)
(0.205547 0.00371893 0)
(0.204602 0.0035564 0)
(0.203636 0.00340558 0)
(0.202653 0.00326482 0)
(0.201655 0.00313274 0)
(0.200643 0.00300825 0)
(0.199621 0.00289047 0)
(0.19859 0.00277867 0)
(0.197552 0.00267226 0)
(0.196508 0.00257073 0)
(0.195461 0.00247366 0)
(0.194412 0.00238065 0)
(0.193362 0.00229137 0)
(0.192313 0.0022055 0)
(0.191268 0.00212274 0)
(0.190226 0.00204282 0)
(0.18919 0.00196547 0)
(0.188162 0.00189045 0)
(0.187141 0.00181752 0)
(0.186131 0.00174644 0)
(0.185133 0.00167699 0)
(0.184147 0.00160895 0)
(0.183176 0.00154212 0)
(0.182221 0.0014763 0)
(0.181284 0.00141128 0)
(0.180367 0.00134689 0)
(0.17947 0.00128294 0)
(0.178596 0.00121927 0)
(0.177747 0.00115571 0)
(0.176925 0.0010921 0)
(0.176131 0.00102829 0)
(0.175367 0.000964185 0)
(0.174636 0.00089969 0)
(0.173939 0.000834786 0)
(0.173279 0.00076954 0)
(0.172656 0.000704128 0)
(0.172072 0.000638862 0)
(0.171528 0.000574206 0)
(0.171025 0.000510772 0)
(0.170562 0.000449302 0)
(0.170139 0.000390623 0)
(0.169755 0.000335582 0)
(0.169409 0.000284972 0)
(0.169098 0.000239455 0)
(0.168819 0.000199493 0)
(0.168571 0.000165316 0)
(0.168351 0.000136916 0)
(0.168154 0.000114083 0)
(0.167977 9.64665e-05 0)
(0.167818 8.3639e-05 0)
(0.167673 7.51286e-05 0)
(0.167538 7.04206e-05 0)
(0.167412 6.89254e-05 0)
(0.167291 6.99693e-05 0)
(0.167173 7.28452e-05 0)
(0.167056 7.68771e-05 0)
(0.166939 8.14667e-05 0)
(0.166821 8.61161e-05 0)
(0.1667 9.04374e-05 0)
(0.166576 9.41523e-05 0)
(0.166448 9.70829e-05 0)
(0.166316 9.91365e-05 0)
(0.16618 0.000100286 0)
(0.16604 0.00010055 0)
(0.165897 9.99774e-05 0)
(0.16575 9.86311e-05 0)
(0.165601 9.65813e-05 0)
(0.165449 9.39019e-05 0)
(0.165296 9.0672e-05 0)
(0.165142 8.69842e-05 0)
(0.164989 8.29607e-05 0)
(0.164838 7.87866e-05 0)
(0.164689 7.47812e-05 0)
(0.164544 7.15733e-05 0)
(0.164402 7.05893e-05 0)
(0.164265 7.56109e-05 0)
(0.164094 9.5777e-05 0)
(0.200397 0.00261516 0)
(0.201585 0.00476228 0)
(0.203226 0.00613031 0)
(0.204837 0.00698625 0)
(0.206289 0.00757009 0)
(0.207632 0.00794006 0)
(0.208882 0.00811091 0)
(0.210012 0.00811672 0)
(0.211 0.00799672 0)
(0.211839 0.00778324 0)
(0.212529 0.00750319 0)
(0.213074 0.00718048 0)
(0.213484 0.00683594 0)
(0.213769 0.00648644 0)
(0.213944 0.00614465 0)
(0.214022 0.00581924 0)
(0.214016 0.00551539 0)
(0.21394 0.00523549 0)
(0.213803 0.00497984 0)
(0.213614 0.00474733 0)
(0.21338 0.00453598 0)
(0.213108 0.00434347 0)
(0.2128 0.00416738 0)
(0.212462 0.00400541 0)
(0.212095 0.00385552 0)
(0.211701 0.00371594 0)
(0.211283 0.00358516 0)
(0.210841 0.00346197 0)
(0.210378 0.00334535 0)
(0.209895 0.00323447 0)
(0.209393 0.00312866 0)
(0.208873 0.00302737 0)
(0.208336 0.00293011 0)
(0.207784 0.00283648 0)
(0.207219 0.00274613 0)
(0.20664 0.00265872 0)
(0.206049 0.00257397 0)
(0.205448 0.0024916 0)
(0.204838 0.00241136 0)
(0.20422 0.00233299 0)
(0.203595 0.00225625 0)
(0.202965 0.00218092 0)
(0.202331 0.00210677 0)
(0.201694 0.00203358 0)
(0.201056 0.00196113 0)
(0.200418 0.00188922 0)
(0.199782 0.00181763 0)
(0.199149 0.00174617 0)
(0.19852 0.00167465 0)
(0.197898 0.00160287 0)
(0.197284 0.00153066 0)
(0.19668 0.00145784 0)
(0.196088 0.00138425 0)
(0.195509 0.00130976 0)
(0.194946 0.00123427 0)
(0.1944 0.00115773 0)
(0.193872 0.00108016 0)
(0.193366 0.00100172 0)
(0.192882 0.000922664 0)
(0.192421 0.000843431 0)
(0.191986 0.000764625 0)
(0.191575 0.000687014 0)
(0.191191 0.000611507 0)
(0.190832 0.000539096 0)
(0.1905 0.00047079 0)
(0.190192 0.000407529 0)
(0.189909 0.000350102 0)
(0.189649 0.000299081 0)
(0.189412 0.000254782 0)
(0.189194 0.000217266 0)
(0.188995 0.000186374 0)
(0.188812 0.000161779 0)
(0.188643 0.000143048 0)
(0.188487 0.000129667 0)
(0.188341 0.000121052 0)
(0.188202 0.000116526 0)
(0.18807 0.000115333 0)
(0.187942 0.000116679 0)
(0.187817 0.000119803 0)
(0.187694 0.000124017 0)
(0.18757 0.00012874 0)
(0.187445 0.0001335 0)
(0.187317 0.000137943 0)
(0.187186 0.000141823 0)
(0.18705 0.00014498 0)
(0.18691 0.000147327 0)
(0.186764 0.000148822 0)
(0.186612 0.000149455 0)
(0.186454 0.000149232 0)
(0.18629 0.000148162 0)
(0.186121 0.000146262 0)
(0.185946 0.000143554 0)
(0.185766 0.000140083 0)
(0.185582 0.000135932 0)
(0.185396 0.000131268 0)
(0.185209 0.000126417 0)
(0.185022 0.000122056 0)
(0.184836 0.000119667 0)
(0.184656 0.000122739 0)
(0.18444 0.000138484 0)
(0.200273 0.0021093 0)
(0.20113 0.00396199 0)
(0.202406 0.00528569 0)
(0.203764 0.00617298 0)
(0.205051 0.00678813 0)
(0.206268 0.00719937 0)
(0.207424 0.0074276 0)
(0.208503 0.00750003 0)
(0.209485 0.00745037 0)
(0.21036 0.00730855 0)
(0.211129 0.0070995 0)
(0.211792 0.00684492 0)
(0.212354 0.00656372 0)
(0.212823 0.00627151 0)
(0.213208 0.00598036 0)
(0.213519 0.00569887 0)
(0.213765 0.00543265 0)
(0.213956 0.00518474 0)
(0.2141 0.00495628 0)
(0.214205 0.00474699 0)
(0.214275 0.00455569 0)
(0.214315 0.00438073 0)
(0.214328 0.00422025 0)
(0.214317 0.0040724 0)
(0.214284 0.00393543 0)
(0.21423 0.00380781 0)
(0.214156 0.0036882 0)
(0.214064 0.00357548 0)
(0.213953 0.0034687 0)
(0.213824 0.00336709 0)
(0.213679 0.00326999 0)
(0.213517 0.00317686 0)
(0.213339 0.00308723 0)
(0.213145 0.00300069 0)
(0.212937 0.0029169 0)
(0.212715 0.00283553 0)
(0.212479 0.00275629 0)
(0.21223 0.0026789 0)
(0.211968 0.0026031 0)
(0.211695 0.00252864 0)
(0.211411 0.00245528 0)
(0.211117 0.00238277 0)
(0.210814 0.00231089 0)
(0.210502 0.00223941 0)
(0.210182 0.0021681 0)
(0.209856 0.00209674 0)
(0.209524 0.00202512 0)
(0.209187 0.00195301 0)
(0.208846 0.00188022 0)
(0.208504 0.00180653 0)
(0.208159 0.00173177 0)
(0.207815 0.00165575 0)
(0.207472 0.00157831 0)
(0.207132 0.00149931 0)
(0.206795 0.00141867 0)
(0.206464 0.00133638 0)
(0.206139 0.00125249 0)
(0.205821 0.00116721 0)
(0.205513 0.00108086 0)
(0.205214 0.000993981 0)
(0.204926 0.000907248 0)
(0.204649 0.000821532 0)
(0.204384 0.000737836 0)
(0.204131 0.000657249 0)
(0.203891 0.000580871 0)
(0.203664 0.000509725 0)
(0.203449 0.000444682 0)
(0.203247 0.000386389 0)
(0.203058 0.000335239 0)
(0.20288 0.00029136 0)
(0.202714 0.000254655 0)
(0.202558 0.000224844 0)
(0.202412 0.00020152 0)
(0.202274 0.000184172 0)
(0.202143 0.000172197 0)
(0.202019 0.000164898 0)
(0.2019 0.000161497 0)
(0.201784 0.000161184 0)
(0.201672 0.000163175 0)
(0.20156 0.000166756 0)
(0.201449 0.000171313 0)
(0.201337 0.000176343 0)
(0.201222 0.000181455 0)
(0.201104 0.000186365 0)
(0.200982 0.000190874 0)
(0.200853 0.000194848 0)
(0.200718 0.000198195 0)
(0.200576 0.000200848 0)
(0.200425 0.000202745 0)
(0.200266 0.000203821 0)
(0.200097 0.000204009 0)
(0.199919 0.000203241 0)
(0.199732 0.000201467 0)
(0.199536 0.00019868 0)
(0.199334 0.000194959 0)
(0.199125 0.000190556 0)
(0.198912 0.000186058 0)
(0.198697 0.000182753 0)
(0.198486 0.000183349 0)
(0.198235 0.000192258 0)
(0.200197 0.00173901 0)
(0.200832 0.00333115 0)
(0.20183 0.00456518 0)
(0.202961 0.00544778 0)
(0.204081 0.00607606 0)
(0.205162 0.0065116 0)
(0.206202 0.00677946 0)
(0.207186 0.00690251 0)
(0.208099 0.00690865 0)
(0.20893 0.00682456 0)
(0.209676 0.00667307 0)
(0.21034 0.00647397 0)
(0.210922 0.00624452 0)
(0.211431 0.0059992 0)
(0.211872 0.00574948 0)
(0.212254 0.00550389 0)
(0.212584 0.00526825 0)
(0.212871 0.00504616 0)
(0.213122 0.00483939 0)
(0.213342 0.00464836 0)
(0.213536 0.00447259 0)
(0.213709 0.00431102 0)
(0.213863 0.00416229 0)
(0.214 0.00402497 0)
(0.214123 0.00389764 0)
(0.214232 0.00377898 0)
(0.214328 0.00366783 0)
(0.214411 0.00356318 0)
(0.214483 0.00346416 0)
(0.214543 0.00337004 0)
(0.214592 0.00328018 0)
(0.21463 0.00319406 0)
(0.214657 0.00311122 0)
(0.214672 0.00303124 0)
(0.214677 0.00295377 0)
(0.214671 0.00287849 0)
(0.214655 0.00280508 0)
(0.214628 0.00273326 0)
(0.214592 0.00266277 0)
(0.214546 0.00259334 0)
(0.21449 0.00252471 0)
(0.214424 0.00245664 0)
(0.21435 0.00238888 0)
(0.214267 0.00232119 0)
(0.214176 0.00225333 0)
(0.214077 0.00218507 0)
(0.213971 0.00211617 0)
(0.213858 0.0020464 0)
(0.213738 0.00197555 0)
(0.213612 0.0019034 0)
(0.213481 0.00182974 0)
(0.213345 0.0017544 0)
(0.213205 0.00167719 0)
(0.213062 0.00159801 0)
(0.212915 0.00151676 0)
(0.212767 0.00143345 0)
(0.212617 0.00134816 0)
(0.212466 0.00126113 0)
(0.212315 0.00117273 0)
(0.212164 0.0010835 0)
(0.212013 0.000994181 0)
(0.211864 0.000905668 0)
(0.211715 0.000818992 0)
(0.211569 0.000735266 0)
(0.211426 0.000655611 0)
(0.211285 0.000581076 0)
(0.211148 0.000512562 0)
(0.211015 0.000450758 0)
(0.210887 0.000396103 0)
(0.210763 0.00034879 0)
(0.210645 0.000308781 0)
(0.210531 0.000275855 0)
(0.210422 0.000249649 0)
(0.210318 0.000229683 0)
(0.210218 0.000215377 0)
(0.210122 0.000206056 0)
(0.21003 0.000200971 0)
(0.20994 0.00019934 0)
(0.209852 0.000200404 0)
(0.209765 0.000203468 0)
(0.209678 0.00020793 0)
(0.20959 0.000213296 0)
(0.209499 0.000219174 0)
(0.209405 0.000225275 0)
(0.209307 0.000231388 0)
(0.209202 0.000237358 0)
(0.20909 0.000243065 0)
(0.20897 0.000248401 0)
(0.208841 0.000253248 0)
(0.2087 0.000257473 0)
(0.208549 0.000260922 0)
(0.208385 0.000263423 0)
(0.20821 0.00026481 0)
(0.208022 0.000264944 0)
(0.207823 0.000263764 0)
(0.207613 0.000261363 0)
(0.207395 0.000258117 0)
(0.207172 0.000254904 0)
(0.206949 0.000253326 0)
(0.206682 0.000254568 0)
(0.200147 0.00145736 0)
(0.20063 0.00282754 0)
(0.201417 0.00395232 0)
(0.202354 0.00480336 0)
(0.203322 0.00542992 0)
(0.204276 0.00587884 0)
(0.205204 0.00617494 0)
(0.206094 0.00633781 0)
(0.206929 0.00639014 0)
(0.207699 0.00635492 0)
(0.2084 0.00625269 0)
(0.209032 0.00610141 0)
(0.209596 0.00591683 0)
(0.210098 0.00571233 0)
(0.210541 0.00549877 0)
(0.210934 0.00528448 0)
(0.211284 0.00507545 0)
(0.211596 0.00487563 0)
(0.211877 0.00468732 0)
(0.212132 0.00451154 0)
(0.212367 0.00434841 0)
(0.212584 0.00419741 0)
(0.212787 0.00405766 0)
(0.212978 0.00392811 0)
(0.213159 0.00380767 0)
(0.21333 0.00369527 0)
(0.213494 0.00358992 0)
(0.213649 0.00349074 0)
(0.213797 0.00339696 0)
(0.213939 0.0033079 0)
(0.214074 0.00322299 0)
(0.214202 0.0031417 0)
(0.214323 0.0030636 0)
(0.214438 0.00298829 0)
(0.214547 0.00291542 0)
(0.214649 0.00284465 0)
(0.214744 0.00277568 0)
(0.214833 0.00270822 0)
(0.214916 0.00264201 0)
(0.214992 0.00257676 0)
(0.215061 0.00251222 0)
(0.215125 0.00244813 0)
(0.215181 0.00238424 0)
(0.215231 0.00232031 0)
(0.215275 0.00225607 0)
(0.215312 0.00219129 0)
(0.215343 0.00212573 0)
(0.215368 0.00205915 0)
(0.215387 0.00199131 0)
(0.2154 0.00192201 0)
(0.215406 0.00185102 0)
(0.215407 0.00177815 0)
(0.215402 0.00170325 0)
(0.215392 0.00162618 0)
(0.215376 0.00154688 0)
(0.215354 0.00146536 0)
(0.215327 0.0013817 0)
(0.215295 0.00129617 0)
(0.215257 0.00120912 0)
(0.215214 0.00112112 0)
(0.215166 0.00103289 0)
(0.215113 0.000945302 0)
(0.215056 0.000859363 0)
(0.214994 0.000776155 0)
(0.214928 0.000696766 0)
(0.214859 0.00062222 0)
(0.214787 0.000553406 0)
(0.214714 0.000491018 0)
(0.21464 0.000435522 0)
(0.214566 0.000387154 0)
(0.214492 0.000345929 0)
(0.214419 0.000311684 0)
(0.214348 0.000284108 0)
(0.214279 0.000262772 0)
(0.214211 0.000247139 0)
(0.214146 0.000236586 0)
(0.214082 0.000230418 0)
(0.21402 0.000227911 0)
(0.21396 0.000228361 0)
(0.213899 0.000231123 0)
(0.213839 0.000235636 0)
(0.213777 0.000241436 0)
(0.213713 0.000248162 0)
(0.213646 0.000255541 0)
(0.213575 0.000263375 0)
(0.213498 0.000271512 0)
(0.213413 0.000279829 0)
(0.213321 0.000288196 0)
(0.213219 0.000296465 0)
(0.213106 0.00030445 0)
(0.212981 0.000311922 0)
(0.212843 0.000318616 0)
(0.212692 0.000324241 0)
(0.212526 0.000328513 0)
(0.212347 0.000331196 0)
(0.212155 0.000332168 0)
(0.211951 0.000331506 0)
(0.211738 0.000329549 0)
(0.211523 0.000326692 0)
(0.21126 0.000321123 0)
(0.200113 0.00123643 0)
(0.200487 0.00241973 0)
(0.201115 0.00343195 0)
(0.201891 0.00423447 0)
(0.202721 0.00484655 0)
(0.203559 0.00529922 0)
(0.204386 0.00561374 0)
(0.205188 0.00580682 0)
(0.205949 0.00589684 0)
(0.206659 0.0059031 0)
(0.207312 0.00584367 0)
(0.207907 0.00573465 0)
(0.208444 0.00559024 0)
(0.208927 0.00542273 0)
(0.20936 0.00524226 0)
(0.209747 0.00505687 0)
(0.210095 0.00487254 0)
(0.21041 0.00469347 0)
(0.210696 0.00452238 0)
(0.210959 0.00436076 0)
(0.211203 0.00420921 0)
(0.211432 0.00406771 0)
(0.211648 0.00393582 0)
(0.211853 0.00381286 0)
(0.21205 0.00369803 0)
(0.21224 0.00359051 0)
(0.212423 0.00348951 0)
(0.212601 0.00339429 0)
(0.212774 0.00330418 0)
(0.212943 0.00321859 0)
(0.213107 0.003137 0)
(0.213267 0.00305893 0)
(0.213424 0.00298397 0)
(0.213577 0.00291175 0)
(0.213725 0.00284192 0)
(0.21387 0.00277416 0)
(0.214012 0.00270819 0)
(0.214149 0.00264372 0)
(0.214283 0.00258047 0)
(0.214413 0.00251818 0)
(0.214539 0.0024566 0)
(0.214661 0.00239547 0)
(0.214779 0.00233454 0)
(0.214892 0.00227355 0)
(0.215002 0.00221227 0)
(0.215107 0.00215044 0)
(0.215207 0.00208783 0)
(0.215303 0.00202419 0)
(0.215394 0.0019593 0)
(0.21548 0.00189293 0)
(0.21556 0.00182488 0)
(0.215636 0.00175497 0)
(0.215706 0.00168303 0)
(0.21577 0.00160894 0)
(0.215828 0.00153264 0)
(0.21588 0.00145415 0)
(0.215925 0.00137359 0)
(0.215963 0.00129117 0)
(0.215994 0.00120727 0)
(0.216018 0.00112243 0)
(0.216034 0.00103732 0)
(0.216042 0.000952775 0)
(0.216043 0.000869741 0)
(0.216036 0.000789227 0)
(0.216023 0.000712256 0)
(0.216003 0.000639793 0)
(0.215977 0.000572684 0)
(0.215946 0.000511603 0)
(0.215912 0.000457021 0)
(0.215875 0.000409196 0)
(0.215835 0.000368188 0)
(0.215795 0.000333883 0)
(0.215754 0.000306024 0)
(0.215712 0.000284234 0)
(0.215671 0.000268034 0)
(0.215631 0.000256863 0)
(0.215591 0.000250093 0)
(0.215553 0.000247073 0)
(0.215515 0.000247168 0)
(0.215477 0.000249794 0)
(0.215439 0.000254447 0)
(0.2154 0.000260711 0)
(0.215359 0.000268265 0)
(0.215315 0.000276871 0)
(0.215268 0.000286357 0)
(0.215216 0.000296596 0)
(0.215157 0.000307473 0)
(0.215091 0.000318865 0)
(0.215017 0.000330611 0)
(0.214932 0.000342495 0)
(0.214836 0.000354236 0)
(0.214727 0.000365488 0)
(0.214605 0.000375851 0)
(0.214469 0.000384896 0)
(0.214319 0.000392204 0)
(0.214154 0.000397415 0)
(0.213977 0.000400264 0)
(0.21379 0.000400526 0)
(0.213598 0.000397499 0)
(0.213357 0.000387176 0)
(0.200088 0.00105885 0)
(0.200384 0.00208489 0)
(0.20089 0.00298939 0)
(0.201534 0.0037342 0)
(0.202243 0.00432156 0)
(0.202976 0.00476934 0)
(0.203711 0.00509375 0)
(0.20443 0.00530855 0)
(0.205122 0.00542852 0)
(0.205775 0.00546954 0)
(0.206382 0.0054471 0)
(0.206941 0.00537539 0)
(0.20745 0.0052671 0)
(0.207913 0.00513336 0)
(0.208331 0.00498355 0)
(0.208709 0.00482529 0)
(0.209051 0.00466446 0)
(0.209363 0.00450539 0)
(0.209648 0.00435105 0)
(0.209911 0.00420331 0)
(0.210156 0.00406319 0)
(0.210386 0.00393108 0)
(0.210604 0.0038069 0)
(0.210811 0.00369032 0)
(0.211011 0.00358084 0)
(0.211204 0.00347785 0)
(0.211391 0.00338077 0)
(0.211573 0.00328899 0)
(0.211752 0.00320198 0)
(0.211926 0.00311921 0)
(0.212097 0.00304023 0)
(0.212265 0.00296463 0)
(0.212431 0.00289201 0)
(0.212593 0.00282205 0)
(0.212754 0.00275442 0)
(0.212911 0.00268882 0)
(0.213067 0.00262497 0)
(0.21322 0.00256261 0)
(0.21337 0.00250147 0)
(0.213518 0.00244129 0)
(0.213664 0.00238184 0)
(0.213807 0.00232286 0)
(0.213947 0.00226411 0)
(0.214085 0.00220534 0)
(0.21422 0.00214633 0)
(0.214351 0.00208682 0)
(0.21448 0.0020266 0)
(0.214605 0.00196542 0)
(0.214726 0.00190307 0)
(0.214844 0.00183933 0)
(0.214957 0.00177401 0)
(0.215066 0.00170693 0)
(0.21517 0.00163795 0)
(0.215268 0.00156695 0)
(0.215361 0.0014939 0)
(0.215448 0.00141881 0)
(0.215529 0.00134179 0)
(0.215602 0.00126308 0)
(0.215668 0.00118303 0)
(0.215726 0.00110213 0)
(0.215776 0.00102102 0)
(0.215818 0.000940458 0)
(0.215851 0.000861321 0)
(0.215875 0.000784533 0)
(0.215892 0.000711032 0)
(0.215901 0.000641706 0)
(0.215903 0.000577344 0)
(0.215899 0.000518581 0)
(0.21589 0.000465876 0)
(0.215876 0.000419499 0)
(0.21586 0.000379539 0)
(0.21584 0.000345923 0)
(0.21582 0.000318441 0)
(0.215798 0.000296771 0)
(0.215775 0.000280491 0)
(0.215753 0.000269102 0)
(0.21573 0.00026205 0)
(0.215708 0.000258757 0)
(0.215687 0.000258658 0)
(0.215665 0.000261237 0)
(0.215644 0.000266049 0)
(0.215621 0.000272732 0)
(0.215597 0.000281009 0)
(0.215571 0.000290683 0)
(0.215542 0.000301618 0)
(0.215509 0.000313716 0)
(0.215471 0.000326888 0)
(0.215427 0.000341027 0)
(0.215376 0.000355975 0)
(0.215315 0.000371507 0)
(0.215245 0.000387309 0)
(0.215164 0.000402974 0)
(0.215071 0.000418012 0)
(0.214965 0.000431867 0)
(0.214846 0.000443946 0)
(0.214714 0.000453654 0)
(0.21457 0.000460395 0)
(0.214415 0.000463431 0)
(0.214254 0.000461225 0)
(0.214047 0.000448636 0)
(0.20007 0.000913323 0)
(0.200308 0.00180639 0)
(0.200719 0.00261156 0)
(0.201255 0.00329502 0)
(0.20186 0.00385045 0)
(0.202499 0.00428618 0)
(0.203148 0.00461323 0)
(0.203794 0.00484231 0)
(0.204421 0.00498513 0)
(0.205019 0.00505452 0)
(0.205582 0.00506349 0)
(0.206105 0.0050243 0)
(0.206588 0.00494816 0)
(0.207029 0.00484502 0)
(0.207433 0.00472347 0)
(0.2078 0.00459063 0)
(0.208136 0.00445217 0)
(0.208443 0.00431242 0)
(0.208725 0.00417452 0)
(0.208987 0.00404061 0)
(0.209231 0.00391202 0)
(0.209461 0.00378948 0)
(0.209679 0.00367324 0)
(0.209886 0.00356327 0)
(0.210086 0.00345931 0)
(0.210278 0.003361 0)
(0.210465 0.00326792 0)
(0.210647 0.00317961 0)
(0.210824 0.00309565 0)
(0.210998 0.00301561 0)
(0.21117 0.00293911 0)
(0.211338 0.00286578 0)
(0.211503 0.00279529 0)
(0.211667 0.00272733 0)
(0.211828 0.00266161 0)
(0.211987 0.00259784 0)
(0.212144 0.00253578 0)
(0.2123 0.00247516 0)
(0.212453 0.00241575 0)
(0.212605 0.00235729 0)
(0.212754 0.00229956 0)
(0.212902 0.00224233 0)
(0.213048 0.00218535 0)
(0.213191 0.00212841 0)
(0.213333 0.00207127 0)
(0.213472 0.00201371 0)
(0.213608 0.0019555 0)
(0.213742 0.00189644 0)
(0.213873 0.00183631 0)
(0.214 0.00177491 0)
(0.214124 0.00171207 0)
(0.214244 0.00164763 0)
(0.21436 0.00158144 0)
(0.214471 0.00151343 0)
(0.214577 0.00144356 0)
(0.214678 0.00137185 0)
(0.214772 0.00129843 0)
(0.214859 0.00122352 0)
(0.21494 0.00114745 0)
(0.215013 0.00107067 0)
(0.215078 0.000993789 0)
(0.215134 0.000917487 0)
(0.215183 0.000842555 0)
(0.215223 0.000769834 0)
(0.215255 0.000700174 0)
(0.215279 0.000634384 0)
(0.215296 0.000573185 0)
(0.215307 0.00051717 0)
(0.215312 0.000466776 0)
(0.215313 0.000422272 0)
(0.21531 0.000383767 0)
(0.215304 0.000351222 0)
(0.215296 0.000324468 0)
(0.215286 0.000303231 0)
(0.215276 0.000287145 0)
(0.215265 0.000275771 0)
(0.215253 0.000268622 0)
(0.215243 0.000265192 0)
(0.215232 0.000264984 0)
(0.215221 0.000267546 0)
(0.21521 0.00027249 0)
(0.215199 0.000279505 0)
(0.215187 0.00028836 0)
(0.215173 0.000298899 0)
(0.215157 0.000311019 0)
(0.215138 0.000324657 0)
(0.215114 0.000339751 0)
(0.215087 0.000356215 0)
(0.215053 0.000373906 0)
(0.215012 0.000392599 0)
(0.214963 0.000411962 0)
(0.214905 0.000431548 0)