/*--------------------------------*- C++ -*----------------------------------*\
| =========                 |                                                 |
| \\      /  F ield         | OpenFOAM: The Open Source CFD Toolbox           |
|  \\    /   O peration     | Version:  2.3.0                                 |
|   \\  /    A nd           | Web:      www.OpenFOAM.org                      |
|    \\/     M anipulation  |                                                 |
\*---------------------------------------------------------------------------*/
FoamFile
{
    version     2.0;
    format      ascii;
    class       surfaceScalarField;
    location    "0.4";
    object      phi;
}
// * * * * * * * * * * * * * * * * * * * * * * * * * * * * * * * * * * * * * //

dimensions      [0 3 -1 0 0 0 0];

internalField   nonuniform List<scalar> 
11667
(
2.25845e-08
2.21175e-09
-2.47963e-08
1.99007e-08
2.68384e-09
1.72321e-08
2.66858e-09
1.47794e-08
2.45271e-09
1.25769e-08
2.20251e-09
1.06698e-08
1.90714e-09
9.10523e-09
1.56452e-09
7.88397e-09
1.22126e-09
6.97253e-09
9.11443e-10
6.31173e-09
6.60802e-10
5.83654e-09
4.75185e-10
5.48992e-09
3.46622e-10
5.22782e-09
2.621e-10
5.01894e-09
2.08881e-10
4.84229e-09
1.76651e-10
4.68515e-09
1.57142e-10
4.54072e-09
1.44429e-10
4.40583e-09
1.34888e-10
4.27919e-09
1.26641e-10
4.16029e-09
1.18898e-10
4.04886e-09
1.11436e-10
3.94458e-09
1.04275e-10
3.84708e-09
9.75018e-11
3.75588e-09
9.11977e-11
3.67047e-09
8.54077e-11
3.59033e-09
8.01393e-11
3.51496e-09
7.53714e-11
3.4439e-09
7.10654e-11
3.37672e-09
6.71735e-11
3.31308e-09
6.36459e-11
3.25264e-09
6.04351e-11
3.19514e-09
5.74992e-11
3.14034e-09
5.48028e-11
3.08802e-09
5.23164e-11
3.03801e-09
5.00153e-11
2.99013e-09
4.78778e-11
2.94425e-09
4.58854e-11
2.90022e-09
4.40223e-11
2.85795e-09
4.22756e-11
2.81731e-09
4.06349e-11
2.77822e-09
3.90917e-11
2.74058e-09
3.76383e-11
2.70432e-09
3.62678e-11
2.66934e-09
3.49735e-11
2.63559e-09
3.37494e-11
2.603e-09
3.25898e-11
2.57151e-09
3.14897e-11
2.54107e-09
3.04446e-11
2.51162e-09
2.945e-11
2.48312e-09
2.8502e-11
2.45552e-09
2.75966e-11
2.42879e-09
2.67306e-11
2.40289e-09
2.59013e-11
2.37778e-09
2.51067e-11
2.35344e-09
2.43452e-11
2.32982e-09
2.36156e-11
2.3069e-09
2.29164e-11
2.28466e-09
2.22462e-11
2.26305e-09
2.1603e-11
2.24207e-09
2.09847e-11
2.22168e-09
2.03893e-11
2.20187e-09
1.98144e-11
2.18261e-09
1.92579e-11
2.16389e-09
1.87183e-11
2.1457e-09
1.81943e-11
2.12801e-09
1.76853e-11
2.11082e-09
1.71911e-11
2.09411e-09
1.67121e-11
2.07786e-09
1.62485e-11
2.06206e-09
1.58004e-11
2.04669e-09
1.53671e-11
2.03174e-09
1.49476e-11
2.0172e-09
1.454e-11
2.00306e-09
1.41424e-11
1.98931e-09
1.37526e-11
1.97594e-09
1.33694e-11
1.96295e-09
1.2992e-11
1.95033e-09
1.26208e-11
1.93807e-09
1.22564e-11
1.92617e-09
1.19003e-11
1.91462e-09
1.15529e-11
1.9034e-09
1.12152e-11
1.89252e-09
1.08861e-11
1.88195e-09
1.05647e-11
1.8717e-09
1.02487e-11
1.86177e-09
9.93667e-12
1.85214e-09
9.62667e-12
1.84282e-09
9.31875e-12
1.83381e-09
9.01255e-12
1.8251e-09
8.70974e-12
1.81669e-09
8.41076e-12
1.80857e-09
8.11723e-12
1.80074e-09
7.82867e-12
1.7932e-09
7.5454e-12
1.78593e-09
7.26571e-12
1.77894e-09
6.98919e-12
1.77223e-09
6.71401e-12
1.76579e-09
6.4402e-12
1.75962e-09
6.16655e-12
1.75373e-09
5.89373e-12
1.74811e-09
5.62087e-12
1.74276e-09
5.34912e-12
1.73768e-09
5.07781e-12
1.73287e-09
4.80864e-12
1.72833e-09
4.541e-12
1.72405e-09
4.27682e-12
1.72004e-09
4.01486e-12
1.71628e-09
3.75665e-12
1.71278e-09
3.49985e-12
1.70953e-09
3.24591e-12
1.70654e-09
2.99173e-12
1.7038e-09
2.73963e-12
1.70132e-09
2.48615e-12
1.69908e-09
2.23545e-12
1.6971e-09
1.98313e-12
1.69536e-09
1.73579e-12
1.69388e-09
1.48742e-12
1.69263e-09
1.24782e-12
1.69162e-09
1.0083e-12
1.69084e-09
7.8237e-13
1.69028e-09
5.57615e-13
1.68993e-09
3.51967e-13
1.68978e-09
1.44248e-13
1.68982e-09
-3.39518e-14
1.69002e-09
-2.06813e-13
1.69037e-09
-3.49237e-13
1.69086e-09
-4.83556e-13
1.69143e-09
-5.76911e-13
1.6921e-09
-6.67392e-13
1.69281e-09
-7.1094e-13
1.69357e-09
-7.54823e-13
1.69432e-09
-7.4835e-13
1.69506e-09
-7.47961e-13
1.69576e-09
-6.99466e-13
1.69643e-09
-6.70105e-13
1.69702e-09
-5.91602e-13
1.69757e-09
-5.46945e-13
1.69802e-09
-4.53231e-13
1.69843e-09
-4.09849e-13
1.69875e-09
-3.13555e-13
1.69903e-09
-2.81615e-13
1.69922e-09
-1.89543e-13
1.69939e-09
-1.73466e-13
1.69948e-09
-8.69856e-14
1.69957e-09
-8.58556e-14
1.69957e-09
-3.37779e-15
1.69958e-09
-1.4626e-14
1.69952e-09
6.21514e-14
1.69948e-09
3.95894e-14
9.10003e-14
2.68362e-08
1.97202e-09
-2.65965e-08
2.67219e-08
2.79819e-09
2.62094e-08
3.18112e-09
2.54592e-08
3.20282e-09
2.45718e-08
3.08999e-09
2.35779e-08
2.901e-09
2.25034e-08
2.639e-09
2.14006e-08
2.32411e-09
2.03201e-08
1.99194e-09
1.92986e-08
1.68223e-09
1.8355e-08
1.41887e-09
1.74947e-08
1.20691e-09
1.67171e-08
1.03965e-09
1.6019e-08
9.07021e-10
1.53929e-08
8.02777e-10
1.48301e-08
7.19876e-10
1.43222e-08
6.52324e-10
1.38614e-08
5.95715e-10
1.34409e-08
5.47099e-10
1.30552e-08
5.04593e-10
1.26997e-08
4.66998e-10
1.23704e-08
4.33521e-10
1.20643e-08
4.03594e-10
1.17788e-08
3.76783e-10
1.15114e-08
3.52727e-10
1.12605e-08
3.31107e-10
1.10242e-08
3.11634e-10
1.08012e-08
2.94049e-10
1.05903e-08
2.78118e-10
1.03903e-08
2.63631e-10
1.02003e-08
2.50404e-10
1.00195e-08
2.38278e-10
9.84723e-09
2.27121e-10
9.68272e-09
2.16821e-10
9.52546e-09
2.07281e-10
9.37491e-09
1.98419e-10
9.23064e-09
1.90162e-10
9.09221e-09
1.82447e-10
8.95927e-09
1.75223e-10
8.83146e-09
1.68444e-10
8.70848e-09
1.62073e-10
8.59004e-09
1.56075e-10
8.47588e-09
1.50421e-10
8.36578e-09
1.45083e-10
8.25949e-09
1.40033e-10
8.15683e-09
1.3525e-10
8.05761e-09
1.30712e-10
7.96165e-09
1.26401e-10
7.8688e-09
1.223e-10
7.77891e-09
1.18391e-10
7.69185e-09
1.1466e-10
7.60749e-09
1.11095e-10
7.5257e-09
1.07683e-10
7.44639e-09
1.04416e-10
7.36945e-09
1.01286e-10
7.29478e-09
9.82855e-11
7.22229e-09
9.54074e-11
7.15189e-09
9.26448e-11
7.08351e-09
8.99899e-11
7.01706e-09
8.74352e-11
6.95247e-09
8.49726e-11
6.88969e-09
8.25949e-11
6.82866e-09
8.02952e-11
6.76931e-09
7.80677e-11
6.71159e-09
7.59079e-11
6.65546e-09
7.38128e-11
6.60088e-09
7.17805e-11
6.54778e-09
6.98099e-11
6.49613e-09
6.78997e-11
6.44588e-09
6.60485e-11
6.39699e-09
6.4253e-11
6.34943e-09
6.2509e-11
6.30316e-09
6.08108e-11
6.25815e-09
5.91532e-11
6.21437e-09
5.75303e-11
6.1718e-09
5.5939e-11
6.13042e-09
5.43765e-11
6.09019e-09
5.28434e-11
6.05111e-09
5.13401e-11
6.01314e-09
4.98692e-11
5.97626e-09
4.84308e-11
5.94045e-09
4.70253e-11
5.90569e-09
4.56495e-11
5.87196e-09
4.43004e-11
5.83923e-09
4.29718e-11
5.80751e-09
4.16604e-11
5.77677e-09
4.03615e-11
5.74702e-09
3.90752e-11
5.71823e-09
3.78003e-11
5.6904e-09
3.65404e-11
5.66351e-09
3.52959e-11
5.63756e-09
3.40696e-11
5.61253e-09
3.28597e-11
5.58841e-09
3.16662e-11
5.56519e-09
3.04845e-11
5.54287e-09
2.93134e-11
5.52143e-09
2.81484e-11
5.50088e-09
2.69897e-11
5.48121e-09
2.58346e-11
5.46242e-09
2.46847e-11
5.44451e-09
2.35383e-11
5.42746e-09
2.23981e-11
5.41127e-09
2.12628e-11
5.39594e-09
2.01365e-11
5.38147e-09
1.90177e-11
5.36783e-09
1.7911e-11
5.35503e-09
1.68132e-11
5.34306e-09
1.57283e-11
5.33191e-09
1.46508e-11
5.32157e-09
1.35848e-11
5.31204e-09
1.25237e-11
5.30331e-09
1.14739e-11
5.29536e-09
1.04285e-11
5.2882e-09
9.39851e-12
5.28181e-09
8.37529e-12
5.27617e-09
7.37589e-12
5.27127e-09
6.38813e-12
5.26708e-09
5.43681e-12
5.26358e-09
4.50364e-12
5.26075e-09
3.62183e-12
5.25854e-09
2.76523e-12
5.25691e-09
1.97823e-12
5.25583e-09
1.2224e-12
5.25524e-09
5.54515e-13
5.2551e-09
-6.27064e-14
5.25533e-09
-5.79868e-13
5.25589e-09
-1.04293e-12
5.25669e-09
-1.37933e-12
5.2577e-09
-1.67777e-12
5.25883e-09
-1.83794e-12
5.26005e-09
-1.97347e-12
5.26127e-09
-1.96979e-12
5.26249e-09
-1.96278e-12
5.26362e-09
-1.8302e-12
5.26468e-09
-1.73318e-12
5.2656e-09
-1.51611e-12
5.26643e-09
-1.37555e-12
5.2671e-09
-1.1213e-12
5.26768e-09
-9.86978e-13
5.2681e-09
-7.32318e-13
5.26845e-09
-6.32957e-13
5.26865e-09
-3.95574e-13
5.26882e-09
-3.41973e-13
5.26886e-09
-1.23125e-13
5.26888e-09
-1.11097e-13
5.26878e-09
9.64241e-14
5.26869e-09
7.76765e-14
5.26848e-09
2.68552e-13
5.26829e-09
2.31688e-13
3.47774e-13
2.78665e-08
1.85909e-09
-2.77535e-08
2.81769e-08
2.48777e-09
2.84002e-08
2.95778e-09
2.84685e-08
3.13452e-09
2.84248e-08
3.13367e-09
2.82768e-08
3.04906e-09
2.80135e-08
2.90227e-09
2.76405e-08
2.69715e-09
2.71794e-08
2.45296e-09
2.66597e-08
2.20201e-09
2.61068e-08
1.97169e-09
2.55394e-08
1.77438e-09
2.49694e-08
1.60964e-09
2.44045e-08
1.47193e-09
2.38507e-08
1.35654e-09
2.33118e-08
1.25873e-09
2.279e-08
1.17419e-09
2.22862e-08
1.09954e-09
2.18008e-08
1.03241e-09
2.13342e-08
9.71256e-10
2.08861e-08
9.15114e-10
2.04562e-08
8.63358e-10
2.00443e-08
8.15548e-10
1.96497e-08
7.71364e-10
1.92719e-08
7.30533e-10
1.89102e-08
6.92802e-10
1.85639e-08
6.57929e-10
1.82323e-08
6.25679e-10
1.79146e-08
5.95826e-10
1.761e-08
5.68155e-10
1.7318e-08
5.42464e-10
1.70377e-08
5.18569e-10
1.67685e-08
4.96305e-10
1.65098e-08
4.75526e-10
1.6261e-08
4.56099e-10
1.60215e-08
4.37905e-10
1.57908e-08
4.20836e-10
1.55685e-08
4.04793e-10
1.5354e-08
3.89692e-10
1.5147e-08
3.75455e-10
1.4947e-08
3.62015e-10
1.47538e-08
3.49311e-10
1.45669e-08
3.37287e-10
1.43861e-08
3.2589e-10
1.42111e-08
3.15074e-10
1.40416e-08
3.04794e-10
1.38773e-08
2.9501e-10
1.3718e-08
2.85688e-10
1.35635e-08
2.76795e-10
1.34136e-08
2.683e-10
1.32681e-08
2.60175e-10
1.31268e-08
2.52394e-10
1.29895e-08
2.44935e-10
1.28561e-08
2.37779e-10
1.27265e-08
2.30909e-10
1.26005e-08
2.24309e-10
1.24779e-08
2.17965e-10
1.23587e-08
2.11862e-10
1.22427e-08
2.05986e-10
1.21298e-08
2.0032e-10
1.202e-08
1.9485e-10
1.1913e-08
1.89563e-10
1.18088e-08
1.84443e-10
1.17074e-08
1.79481e-10
1.16087e-08
1.74665e-10
1.15125e-08
1.69991e-10
1.14188e-08
1.65452e-10
1.13276e-08
1.61044e-10
1.12387e-08
1.56764e-10
1.11522e-08
1.52608e-10
1.10678e-08
1.48569e-10
1.09857e-08
1.44639e-10
1.09057e-08
1.40807e-10
1.08278e-08
1.37063e-10
1.07519e-08
1.33397e-10
1.06781e-08
1.29802e-10
1.06062e-08
1.26273e-10
1.05362e-08
1.2281e-10
1.04681e-08
1.19413e-10
1.04019e-08
1.16084e-10
1.03375e-08
1.12822e-10
1.02749e-08
1.09628e-10
1.02141e-08
1.06495e-10
1.0155e-08
1.03417e-10
1.00976e-08
1.00384e-10
1.00418e-08
9.7389e-11
9.98777e-09
9.44241e-11
9.93536e-09
9.14888e-11
9.88458e-09
8.85809e-11
9.83541e-09
8.57054e-11
9.78784e-09
8.28623e-11
9.74186e-09
8.00555e-11
9.69744e-09
7.72814e-11
9.65456e-09
7.45392e-11
9.61323e-09
7.1821e-11
9.57342e-09
6.91244e-11
9.53512e-09
6.64421e-11
9.49834e-09
6.37741e-11
9.46306e-09
6.11161e-11
9.42927e-09
5.84708e-11
9.39697e-09
5.58354e-11
9.36616e-09
5.32148e-11
9.33681e-09
5.06067e-11
9.30893e-09
4.8018e-11
9.2825e-09
4.54466e-11
9.25751e-09
4.29001e-11
9.23395e-09
4.03742e-11
9.21181e-09
3.78751e-11
9.19106e-09
3.53954e-11
9.1717e-09
3.2942e-11
9.15372e-09
3.0506e-11
9.1371e-09
2.80986e-11
9.12181e-09
2.57109e-11
9.10785e-09
2.33621e-11
9.09519e-09
2.10408e-11
9.08378e-09
1.87764e-11
9.07362e-09
1.65524e-11
9.06465e-09
1.44107e-11
9.05682e-09
1.23257e-11
9.05009e-09
1.03519e-11
9.04441e-09
8.45212e-12
9.03969e-09
6.69917e-12
9.03587e-09
5.03833e-12
9.03286e-09
3.56183e-12
9.0306e-09
2.19742e-12
9.02898e-09
1.04174e-12
9.02792e-09
2.18087e-14
9.0273e-09
-7.57823e-13
9.02705e-09
-1.43247e-12
9.02706e-09
-1.85089e-12
9.02728e-09
-2.1916e-12
9.0276e-09
-2.28389e-12
9.02797e-09
-2.33841e-12
9.02832e-09
-2.17887e-12
9.02864e-09
-2.05246e-12
9.02885e-09
-1.73126e-12
9.02899e-09
-1.51444e-12
9.02899e-09
-1.12281e-12
9.02892e-09
-9.10653e-13
9.0287e-09
-5.17684e-13
9.02843e-09
-3.63435e-13
9.02804e-09
-2.02199e-15
9.02762e-09
7.4964e-14
9.0271e-09
4.025e-13
9.02657e-09
4.12038e-13
9.02595e-09
7.17324e-13
9.02535e-09
6.83853e-13
9.02466e-09
9.58168e-13
9.02398e-09
9.12606e-13
1.06428e-12
2.88773e-08
1.81338e-09
-2.88316e-08
2.91037e-08
2.26135e-09
2.93958e-08
2.66565e-09
2.96376e-08
2.89277e-09
2.98211e-08
2.95016e-09
2.99556e-08
2.91454e-09
3.0032e-08
2.82584e-09
3.00369e-08
2.69225e-09
2.9967e-08
2.52287e-09
2.98318e-08
2.33723e-09
2.96462e-08
2.1573e-09
2.94238e-08
1.99678e-09
2.91741e-08
1.85938e-09
2.89032e-08
1.74283e-09
2.86164e-08
1.64334e-09
2.83178e-08
1.55734e-09
2.80103e-08
1.48167e-09
2.76961e-08
1.41373e-09
2.73769e-08
1.3516e-09
2.70542e-08
1.29398e-09
2.67293e-08
1.24003e-09
2.64034e-08
1.18921e-09
2.60777e-08
1.14121e-09
2.57533e-08
1.0958e-09
2.5431e-08
1.05282e-09
2.51117e-08
1.01214e-09
2.4796e-08
9.7363e-10
2.44845e-08
9.37164e-10
2.41777e-08
9.02621e-10
2.3876e-08
8.69878e-10
2.35796e-08
8.38815e-10
2.32889e-08
8.09317e-10
2.30039e-08
7.81281e-10
2.27248e-08
7.54608e-10
2.24517e-08
7.29211e-10
2.21846e-08
7.0501e-10
2.19235e-08
6.81932e-10
2.16684e-08
6.5991e-10
2.14192e-08
6.38886e-10
2.11758e-08
6.18805e-10
2.09382e-08
5.99615e-10
2.07063e-08
5.81269e-10
2.04798e-08
5.63719e-10
2.02588e-08
5.46917e-10
2.00431e-08
5.30819e-10
1.98325e-08
5.15379e-10
1.96269e-08
5.00559e-10
1.94263e-08
4.86323e-10
1.92305e-08
4.72637e-10
1.90393e-08
4.5947e-10
1.88527e-08
4.46794e-10
1.86705e-08
4.34582e-10
1.84926e-08
4.22811e-10
1.83189e-08
4.11458e-10
1.81493e-08
4.00504e-10
1.79837e-08
3.8993e-10
1.7822e-08
3.79717e-10
1.7664e-08
3.69846e-10
1.75097e-08
3.60298e-10
1.73589e-08
3.51052e-10
1.72117e-08
3.42089e-10
1.70679e-08
3.33392e-10
1.69274e-08
3.24943e-10
1.67901e-08
3.16728e-10
1.6656e-08
3.08735e-10
1.65251e-08
3.00953e-10
1.63972e-08
2.93376e-10
1.62722e-08
2.85997e-10
1.61502e-08
2.7881e-10
1.6031e-08
2.71809e-10
1.59145e-08
2.64984e-10
1.58009e-08
2.58323e-10
1.56899e-08
2.51813e-10
1.55815e-08
2.45439e-10
1.54757e-08
2.39186e-10
1.53724e-08
2.33045e-10
1.52717e-08
2.27008e-10
1.51734e-08
2.21074e-10
1.50776e-08
2.15241e-10
1.49842e-08
2.09514e-10
1.48931e-08
2.0389e-10
1.48044e-08
1.98369e-10
1.47179e-08
1.92941e-10
1.46338e-08
1.87599e-10
1.45518e-08
1.82326e-10
1.44721e-08
1.77113e-10
1.43946e-08
1.71948e-10
1.43192e-08
1.66829e-10
1.4246e-08
1.61754e-10
1.4175e-08
1.56729e-10
1.41061e-08
1.51753e-10
1.40394e-08
1.46832e-10
1.39747e-08
1.4196e-10
1.39121e-08
1.37135e-10
1.38516e-08
1.32347e-10
1.37931e-08
1.27592e-10
1.37367e-08
1.22858e-10
1.36823e-08
1.18147e-10
1.363e-08
1.13452e-10
1.35797e-08
1.08776e-10
1.35314e-08
1.04118e-10
1.34851e-08
9.94815e-11
1.34409e-08
9.48659e-11
1.33986e-08
9.02802e-11
1.33583e-08
8.57227e-11
1.332e-08
8.12041e-11
1.32837e-08
7.67197e-11
1.32493e-08
7.22788e-11
1.32168e-08
6.78726e-11
1.31862e-08
6.35112e-11
1.31575e-08
5.91845e-11
1.31307e-08
5.49088e-11
1.31058e-08
5.06747e-11
1.30826e-08
4.65099e-11
1.30613e-08
4.24026e-11
1.30416e-08
3.8394e-11
1.30237e-08
3.44668e-11
1.30075e-08
3.0679e-11
1.29928e-08
2.70016e-11
1.29796e-08
2.35088e-11
1.29679e-08
2.01562e-11
1.29576e-08
1.70422e-11
1.29485e-08
1.4101e-11
1.29406e-08
1.14542e-11
1.29338e-08
9.00926e-12
1.29279e-08
6.90196e-12
1.29229e-08
5.01779e-12
1.29187e-08
3.51007e-12
1.2915e-08
2.20471e-12
1.29119e-08
1.28499e-12
1.29092e-08
5.2414e-13
1.29068e-08
1.28867e-13
1.29046e-08
-1.59064e-13
1.29026e-08
-1.45271e-13
1.29006e-08
-1.25973e-13
1.28988e-08
1.56406e-13
1.28969e-08
3.43694e-13
1.2895e-08
7.53937e-13
1.28931e-08
9.61099e-13
1.28912e-08
1.38972e-12
1.28893e-08
1.53349e-12
1.28874e-08
1.92447e-12
1.28855e-08
1.97373e-12
1.28836e-08
2.31686e-12
1.28817e-08
2.28797e-12
1.28799e-08
2.59235e-12
1.2878e-08
2.52668e-12
1.28762e-08
2.78029e-12
1.28744e-08
2.72406e-12
2.82053e-12
2.9906e-08
1.76479e-09
-2.98574e-08
3.00626e-08
2.10473e-09
3.03033e-08
2.42493e-09
3.05463e-08
2.64985e-09
3.07553e-08
2.74108e-09
3.09341e-08
2.73582e-09
3.10844e-08
2.67555e-09
3.11975e-08
2.57911e-09
3.12653e-08
2.45505e-09
3.12879e-08
2.31472e-09
3.12722e-08
2.17292e-09
3.12272e-08
2.04181e-09
3.11593e-08
1.92725e-09
3.10729e-08
1.82931e-09
3.09708e-08
1.74539e-09
3.08555e-08
1.67264e-09
3.07286e-08
1.60858e-09
3.05911e-08
1.55118e-09
3.04439e-08
1.49883e-09
3.02875e-08
1.45036e-09
3.01226e-08
1.40495e-09
2.99498e-08
1.36206e-09
2.97697e-08
1.32132e-09
2.9583e-08
1.28251e-09
2.93904e-08
1.24543e-09
2.91925e-08
1.20997e-09
2.89901e-08
1.17601e-09
2.87838e-08
1.14346e-09
2.85742e-08
1.11223e-09
2.83619e-08
1.08223e-09
2.81473e-08
1.05338e-09
2.7931e-08
1.0256e-09
2.77135e-08
9.98821e-10
2.74951e-08
9.7297e-10
2.72763e-08
9.47988e-10
2.70575e-08
9.23819e-10
2.68391e-08
9.00416e-10
2.66212e-08
8.77743e-10
2.64043e-08
8.5577e-10
2.61887e-08
8.34476e-10
2.59744e-08
8.13843e-10
2.57619e-08
7.93853e-10
2.55511e-08
7.74488e-10
2.53423e-08
7.55724e-10
2.51356e-08
7.37532e-10
2.49311e-08
7.19882e-10
2.47289e-08
7.02744e-10
2.45291e-08
6.86088e-10
2.43319e-08
6.69889e-10
2.41372e-08
6.54128e-10
2.39452e-08
6.38787e-10
2.37559e-08
6.23856e-10
2.35694e-08
6.09326e-10
2.33857e-08
5.95192e-10
2.32047e-08
5.81444e-10
2.30266e-08
5.68073e-10
2.28513e-08
5.55065e-10
2.26787e-08
5.42401e-10
2.25089e-08
5.30061e-10
2.2342e-08
5.18024e-10
2.21778e-08
5.06268e-10
2.20164e-08
4.94777e-10
2.18578e-08
4.83538e-10
2.1702e-08
4.72539e-10
2.1549e-08
4.61776e-10
2.13987e-08
4.51245e-10
2.12511e-08
4.40941e-10
2.11062e-08
4.30863e-10
2.0964e-08
4.21002e-10
2.08245e-08
4.11351e-10
2.06876e-08
4.01897e-10
2.05533e-08
3.92625e-10
2.04216e-08
3.83518e-10
2.02925e-08
3.74559e-10
2.01659e-08
3.65734e-10
2.00419e-08
3.57035e-10
1.99205e-08
3.48455e-10
1.98015e-08
3.39996e-10
1.96851e-08
3.31657e-10
1.95712e-08
3.23443e-10
1.94597e-08
3.15351e-10
1.93507e-08
3.0738e-10
1.92442e-08
2.99517e-10
1.914e-08
2.91751e-10
1.90383e-08
2.84063e-10
1.89389e-08
2.76441e-10
1.8842e-08
2.68872e-10
1.87475e-08
2.61354e-10
1.86554e-08
2.53885e-10
1.85656e-08
2.46473e-10
1.84782e-08
2.39119e-10
1.83933e-08
2.31828e-10
1.83106e-08
2.24594e-10
1.82303e-08
2.17414e-10
1.81524e-08
2.10273e-10
1.80768e-08
2.03167e-10
1.80036e-08
1.96082e-10
1.79327e-08
1.89018e-10
1.78642e-08
1.8197e-10
1.77981e-08
1.74943e-10
1.77342e-08
1.67934e-10
1.76728e-08
1.60949e-10
1.76137e-08
1.53987e-10
1.75569e-08
1.4706e-10
1.75024e-08
1.40168e-10
1.74503e-08
1.33322e-10
1.74005e-08
1.26522e-10
1.7353e-08
1.19776e-10
1.73078e-08
1.13079e-10
1.72649e-08
1.06441e-10
1.72242e-08
9.98554e-11
1.71858e-08
9.33401e-11
1.71496e-08
8.6891e-11
1.71155e-08
8.05393e-11
1.70836e-08
7.42802e-11
1.70539e-08
6.81599e-11
1.70262e-08
6.21688e-11
1.70005e-08
5.63721e-11
1.69767e-08
5.07484e-11
1.69549e-08
4.53798e-11
1.69348e-08
4.02285e-11
1.69164e-08
3.54022e-11
1.68997e-08
3.08423e-11
1.68845e-08
2.66791e-11
1.68707e-08
2.28235e-11
1.68581e-08
1.94198e-11
1.68468e-08
1.63525e-11
1.68365e-08
1.37818e-11
1.68272e-08
1.1539e-11
1.68187e-08
9.79251e-12
1.68109e-08
8.32995e-12
1.68037e-08
7.32507e-12
1.6797e-08
6.53557e-12
1.67907e-08
6.12443e-12
1.67848e-08
5.81156e-12
1.67791e-08
5.80468e-12
1.67737e-08
5.77196e-12
1.67685e-08
5.97745e-12
1.67634e-08
6.03121e-12
1.67585e-08
6.29573e-12
1.67537e-08
6.31692e-12
1.67491e-08
6.55347e-12
1.67446e-08
6.49732e-12
1.67402e-08
6.67678e-12
1.67359e-08
6.56343e-12
1.67318e-08
6.6857e-12
1.67278e-08
6.56651e-12
1.6724e-08
6.62031e-12
1.67201e-08
6.54775e-12
6.42847e-12
3.09338e-08
1.70877e-09
-3.08777e-08
3.10564e-08
1.98209e-09
3.12463e-08
2.23508e-09
3.14593e-08
2.43683e-09
3.16564e-08
2.54392e-09
3.18288e-08
2.56341e-09
3.19792e-08
2.52519e-09
3.21057e-08
2.45262e-09
3.22032e-08
2.35749e-09
3.227e-08
2.24799e-09
3.23092e-08
2.1337e-09
3.23269e-08
2.02414e-09
3.23285e-08
1.92564e-09
3.23178e-08
1.84001e-09
3.22971e-08
1.76607e-09
3.2268e-08
1.70175e-09
3.22315e-08
1.64512e-09
3.21881e-08
1.59456e-09
3.21381e-08
1.54879e-09
3.20817e-08
1.50679e-09
3.20188e-08
1.46781e-09
3.19496e-08
1.43129e-09
3.18741e-08
1.39686e-09
3.17923e-08
1.36422e-09
3.17046e-08
1.33317e-09
3.1611e-08
1.30353e-09
3.15119e-08
1.27518e-09
3.14073e-08
1.248e-09
3.12977e-08
1.2219e-09
3.11831e-08
1.19678e-09
3.1064e-08
1.17256e-09
3.09404e-08
1.14916e-09
3.08127e-08
1.12652e-09
3.06811e-08
1.10455e-09
3.05459e-08
1.08319e-09
3.04074e-08
1.06237e-09
3.02657e-08
1.04205e-09
3.01213e-08
1.02218e-09
2.99743e-08
1.00274e-09
2.98251e-08
9.83695e-10
2.96739e-08
9.65054e-10
2.95209e-08
9.46812e-10
2.93665e-08
9.2897e-10
2.92107e-08
9.11523e-10
2.90537e-08
8.9446e-10
2.88958e-08
8.77759e-10
2.87372e-08
8.61393e-10
2.8578e-08
8.45332e-10
2.84183e-08
8.29546e-10
2.82584e-08
8.1401e-10
2.80985e-08
7.9871e-10
2.79387e-08
7.83639e-10
2.77792e-08
7.68805e-10
2.76202e-08
7.54219e-10
2.74618e-08
7.39896e-10
2.7304e-08
7.25849e-10
2.7147e-08
7.12079e-10
2.69908e-08
6.98579e-10
2.68355e-08
6.8533e-10
2.66812e-08
6.72304e-10
2.6528e-08
6.59472e-10
2.6376e-08
6.46808e-10
2.62252e-08
6.34294e-10
2.60759e-08
6.21926e-10
2.59279e-08
6.09707e-10
2.57815e-08
5.97652e-10
2.56367e-08
5.85778e-10
2.54934e-08
5.74097e-10
2.53518e-08
5.62615e-10
2.52119e-08
5.51324e-10
2.50736e-08
5.40205e-10
2.49369e-08
5.29234e-10
2.48021e-08
5.18381e-10
2.4669e-08
5.07623e-10
2.45378e-08
4.96942e-10
2.44085e-08
4.86338e-10
2.42811e-08
4.75814e-10
2.41558e-08
4.65385e-10
2.40323e-08
4.55064e-10
2.39109e-08
4.44865e-10
2.37915e-08
4.34783e-10
2.36741e-08
4.24815e-10
2.35586e-08
4.14939e-10
2.34453e-08
4.05134e-10
2.33339e-08
3.95374e-10
2.32247e-08
3.85647e-10
2.31177e-08
3.75939e-10
2.30128e-08
3.66258e-10
2.291e-08
3.56607e-10
2.28095e-08
3.47002e-10
2.27112e-08
3.37448e-10
2.26151e-08
3.27951e-10
2.25212e-08
3.18503e-10
2.24295e-08
3.09095e-10
2.234e-08
2.99708e-10
2.22529e-08
2.90335e-10
2.2168e-08
2.80961e-10
2.20854e-08
2.71587e-10
2.20052e-08
2.62211e-10
2.19273e-08
2.52839e-10
2.18517e-08
2.43473e-10
2.17786e-08
2.34121e-10
2.17078e-08
2.24785e-10
2.16394e-08
2.15477e-10
2.15733e-08
2.06201e-10
2.15097e-08
1.96967e-10
2.14484e-08
1.87779e-10
2.13896e-08
1.78642e-10
2.13331e-08
1.69557e-10
2.1279e-08
1.6053e-10
2.12273e-08
1.51565e-10
2.1178e-08
1.42674e-10
2.1131e-08
1.33872e-10
2.10863e-08
1.2518e-10
2.1044e-08
1.16617e-10
2.10039e-08
1.08219e-10
2.09661e-08
1.00003e-10
2.09305e-08
9.20178e-11
2.08969e-08
8.4275e-11
2.08655e-08
7.68339e-11
2.0836e-08
6.96961e-11
2.08085e-08
6.29389e-11
2.07828e-08
5.65516e-11
2.07588e-08
5.06247e-11
2.07365e-08
4.51261e-11
2.07158e-08
4.01512e-11
2.06965e-08
3.56492e-11
2.06786e-08
3.1714e-11
2.06618e-08
2.8262e-11
2.06463e-08
2.53652e-11
2.06317e-08
2.29205e-11
2.0618e-08
2.09716e-11
2.06051e-08
1.9408e-11
2.0593e-08
1.82368e-11
2.05815e-08
1.73347e-11
2.05706e-08
1.67155e-11
2.05601e-08
1.62346e-11
2.05502e-08
1.5932e-11
2.05406e-08
1.56443e-11
2.05314e-08
1.54618e-11
2.05225e-08
1.52189e-11
2.0514e-08
1.50338e-11
2.05057e-08
1.47783e-11
2.04979e-08
1.45368e-11
2.04902e-08
1.42853e-11
2.04829e-08
1.39771e-11
2.04757e-08
1.37772e-11
2.04689e-08
1.33948e-11
2.04621e-08
1.32979e-11
1.27494e-11
3.19682e-08
1.64993e-09
-3.19093e-08
3.20724e-08
1.87785e-09
3.22248e-08
2.08273e-09
3.24054e-08
2.25622e-09
3.25837e-08
2.36559e-09
3.27439e-08
2.40318e-09
3.28839e-08
2.38521e-09
3.3004e-08
2.33249e-09
3.31026e-08
2.25888e-09
3.31783e-08
2.17237e-09
3.32323e-08
2.07969e-09
3.32686e-08
1.98779e-09
3.3292e-08
1.90229e-09
3.3306e-08
1.826e-09
3.3313e-08
1.75903e-09
3.33145e-08
1.7002e-09
3.33116e-08
1.64807e-09
3.33047e-08
1.60141e-09
3.32943e-08
1.55919e-09
3.32805e-08
1.52063e-09
3.32632e-08
1.48507e-09
3.32425e-08
1.45202e-09
3.32183e-08
1.42111e-09
3.31904e-08
1.39205e-09
3.3159e-08
1.36461e-09
3.31239e-08
1.33861e-09
3.30852e-08
1.31391e-09
3.30428e-08
1.29037e-09
3.29968e-08
1.26791e-09
3.29472e-08
1.24642e-09
3.28939e-08
1.22581e-09
3.28371e-08
1.20601e-09
3.27767e-08
1.18693e-09
3.27127e-08
1.16849e-09
3.26453e-08
1.15062e-09
3.25744e-08
1.13324e-09
3.25002e-08
1.11629e-09
3.24227e-08
1.09969e-09
3.2342e-08
1.08341e-09
3.22583e-08
1.06741e-09
3.21717e-08
1.05168e-09
3.20823e-08
1.03622e-09
3.19902e-08
1.02104e-09
3.18956e-08
1.00614e-09
3.17985e-08
9.91528e-10
3.16991e-08
9.77183e-10
3.15974e-08
9.63083e-10
3.14935e-08
9.4919e-10
3.13876e-08
9.35461e-10
3.12798e-08
9.21853e-10
3.11701e-08
9.08333e-10
3.10589e-08
8.94882e-10
3.09462e-08
8.81499e-10
3.08322e-08
8.68202e-10
3.07171e-08
8.55021e-10
3.0601e-08
8.4199e-10
3.04839e-08
8.29138e-10
3.0366e-08
8.16477e-10
3.02473e-08
8.04001e-10
3.0128e-08
7.91681e-10
3.0008e-08
7.79473e-10
2.98874e-08
7.67329e-10
2.97665e-08
7.55207e-10
2.96454e-08
7.43082e-10
2.95241e-08
7.30954e-10
2.94029e-08
7.18848e-10
2.92819e-08
7.06805e-10
2.91611e-08
6.94871e-10
2.90407e-08
6.83083e-10
2.89205e-08
6.71457e-10
2.88008e-08
6.59978e-10
2.86814e-08
6.48613e-10
2.85625e-08
6.37303e-10
2.84441e-08
6.25999e-10
2.83264e-08
6.14658e-10
2.82094e-08
6.03267e-10
2.80934e-08
5.91838e-10
2.79784e-08
5.80412e-10
2.78644e-08
5.69031e-10
2.77515e-08
5.57741e-10
2.76398e-08
5.46559e-10
2.75291e-08
5.35486e-10
2.74195e-08
5.24483e-10
2.73112e-08
5.1351e-10
2.7204e-08
5.02512e-10
2.70982e-08
4.91459e-10
2.69938e-08
4.80331e-10
2.68909e-08
4.69148e-10
2.67896e-08
4.57931e-10
2.66899e-08
4.46721e-10
2.65918e-08
4.35539e-10
2.64954e-08
4.24402e-10
2.64006e-08
4.13297e-10
2.63074e-08
4.02208e-10
2.6216e-08
3.91103e-10
2.61264e-08
3.79963e-10
2.60386e-08
3.68769e-10
2.59527e-08
3.57521e-10
2.58687e-08
3.46222e-10
2.57866e-08
3.34882e-10
2.57066e-08
3.23512e-10
2.56286e-08
3.12122e-10
2.55526e-08
3.00729e-10
2.54788e-08
2.89341e-10
2.5407e-08
2.77977e-10
2.53373e-08
2.66637e-10
2.52698e-08
2.55338e-10
2.52043e-08
2.44064e-10
2.51411e-08
2.32836e-10
2.508e-08
2.2163e-10
2.5021e-08
2.10485e-10
2.49643e-08
1.9938e-10
2.49098e-08
1.88378e-10
2.48575e-08
1.77465e-10
2.48074e-08
1.66722e-10
2.47595e-08
1.56134e-10
2.47137e-08
1.45793e-10
2.46701e-08
1.35684e-10
2.46284e-08
1.25901e-10
2.45889e-08
1.16423e-10
2.45512e-08
1.0735e-10
2.45155e-08
9.8657e-11
2.44816e-08
9.04514e-11
2.44495e-08
8.27027e-11
2.44191e-08
7.55204e-11
2.43904e-08
6.88584e-11
2.43632e-08
6.28295e-11
2.43376e-08
5.73571e-11
2.43133e-08
5.25556e-11
2.42904e-08
4.82877e-11
2.42686e-08
4.46858e-11
2.4248e-08
4.15352e-11
2.42284e-08
3.90022e-11
2.42099e-08
3.67868e-11
2.41921e-08
3.50926e-11
2.41753e-08
3.35614e-11
2.41591e-08
3.24398e-11
2.41437e-08
3.13226e-11
2.41288e-08
3.05263e-11
2.41147e-08
2.95907e-11
2.41009e-08
2.89543e-11
2.40879e-08
2.80488e-11
2.40752e-08
2.75049e-11
2.40632e-08
2.65576e-11
2.40514e-08
2.61111e-11
2.40402e-08
2.51056e-11
2.40292e-08
2.47908e-11
2.40189e-08
2.37208e-11
2.40086e-08
2.35879e-11
2.23827e-11
3.30158e-08
1.59205e-09
-3.29579e-08
3.31074e-08
1.78628e-09
3.32336e-08
1.95651e-09
3.33858e-08
2.10403e-09
3.35436e-08
2.20775e-09
3.36907e-08
2.25607e-09
3.38207e-08
2.25528e-09
3.39329e-08
2.2203e-09
3.40273e-08
2.16446e-09
3.41034e-08
2.09626e-09
3.41617e-08
2.02136e-09
3.42047e-08
1.94485e-09
3.42357e-08
1.87126e-09
3.42581e-08
1.80356e-09
3.42744e-08
1.74279e-09
3.4286e-08
1.68858e-09
3.4294e-08
1.64004e-09
3.42992e-08
1.59623e-09
3.4302e-08
1.55639e-09
3.43027e-08
1.5199e-09
3.43016e-08
1.48626e-09
3.42985e-08
1.45505e-09
3.42937e-08
1.42596e-09
3.4287e-08
1.3987e-09
3.42786e-08
1.37308e-09
3.42682e-08
1.34892e-09
3.42561e-08
1.32607e-09
3.4242e-08
1.30441e-09
3.42261e-08
1.28386e-09
3.42082e-08
1.2643e-09
3.41884e-08
1.24567e-09
3.41665e-08
1.22788e-09
3.41425e-08
1.21086e-09
3.41165e-08
1.19454e-09
3.40883e-08
1.17883e-09
3.40579e-08
1.16366e-09
3.40252e-08
1.14894e-09
3.39903e-08
1.13459e-09
3.39531e-08
1.12057e-09
3.39137e-08
1.10683e-09
3.38721e-08
1.09333e-09
3.38282e-08
1.08008e-09
3.37822e-08
1.06708e-09
3.3734e-08
1.05435e-09
3.36836e-08
1.04188e-09
3.36311e-08
1.02969e-09
3.35764e-08
1.01774e-09
3.35196e-08
1.00601e-09
3.34607e-08
9.94426e-10
3.33996e-08
9.82945e-10
3.33364e-08
9.71504e-10
3.32712e-08
9.6006e-10
3.32041e-08
9.4859e-10
3.31352e-08
9.37102e-10
3.30646e-08
9.25624e-10
3.29924e-08
9.14204e-10
3.29187e-08
9.02891e-10
3.28434e-08
8.91727e-10
3.27667e-08
8.80728e-10
3.26885e-08
8.69878e-10
3.26088e-08
8.5913e-10
3.25277e-08
8.48414e-10
3.24453e-08
8.37653e-10
3.23616e-08
8.26783e-10
3.22768e-08
8.15771e-10
3.2191e-08
8.04626e-10
3.21044e-08
7.93394e-10
3.20171e-08
7.82153e-10
3.19292e-08
7.70982e-10
3.18407e-08
7.59944e-10
3.17517e-08
7.49058e-10
3.1662e-08
7.383e-10
3.15717e-08
7.27596e-10
3.14808e-08
7.16854e-10
3.13895e-08
7.05977e-10
3.12979e-08
6.94909e-10
3.12061e-08
6.83633e-10
3.11143e-08
6.72197e-10
3.10226e-08
6.60675e-10
3.09312e-08
6.49171e-10
3.084e-08
6.37754e-10
3.0749e-08
6.26463e-10
3.06583e-08
6.15268e-10
3.05677e-08
6.04103e-10
3.04773e-08
5.92867e-10
3.03873e-08
5.81479e-10
3.02977e-08
5.69881e-10
3.02088e-08
5.58081e-10
3.01206e-08
5.46116e-10
3.00333e-08
5.34066e-10
2.99468e-08
5.21995e-10
2.98613e-08
5.09952e-10
2.97766e-08
4.9794e-10
2.96929e-08
4.85936e-10
2.96101e-08
4.7389e-10
2.95283e-08
4.61754e-10
2.94476e-08
4.49497e-10
2.9368e-08
4.37102e-10
2.92897e-08
4.24577e-10
2.92126e-08
4.11928e-10
2.91369e-08
3.99185e-10
2.90627e-08
3.86352e-10
2.899e-08
3.73477e-10
2.89187e-08
3.6056e-10
2.88491e-08
3.4766e-10
2.87809e-08
3.34757e-10
2.87144e-08
3.21903e-10
2.86494e-08
3.09037e-10
2.8586e-08
2.96214e-10
2.85243e-08
2.83346e-10
2.84643e-08
2.70527e-10
2.8406e-08
2.57664e-10
2.83495e-08
2.44905e-10
2.82948e-08
2.32157e-10
2.82419e-08
2.19615e-10
2.81908e-08
2.0717e-10
2.81416e-08
1.95049e-10
2.80941e-08
1.83111e-10
2.80484e-08
1.71612e-10
2.80045e-08
1.60366e-10
2.79622e-08
1.49656e-10
2.79216e-08
1.3926e-10
2.78825e-08
1.29492e-10
2.78452e-08
1.20098e-10
2.78092e-08
1.11425e-10
2.77749e-08
1.03177e-10
2.7742e-08
9.57386e-11
2.77106e-08
8.87542e-11
2.76805e-08
8.26475e-11
2.76519e-08
7.69653e-11
2.76243e-08
7.21915e-11
2.75981e-08
6.77407e-11
2.7573e-08
6.4186e-11
2.7549e-08
6.07846e-11
2.75258e-08
5.82245e-11
2.75038e-08
5.56015e-11
2.74825e-08
5.37586e-11
2.74622e-08
5.16131e-11
2.74425e-08
5.02299e-11
2.74238e-08
4.8305e-11
2.74055e-08
4.72077e-11
2.73882e-08
4.53419e-11
2.73713e-08
4.44544e-11
2.73552e-08
4.25762e-11
2.73395e-08
4.18901e-11
2.73246e-08
3.99803e-11
2.73099e-08
3.95177e-11
2.7296e-08
3.75594e-11
2.72822e-08
3.73778e-11
3.53273e-11
3.40807e-08
1.53699e-09
-3.40257e-08
3.41623e-08
1.70475e-09
3.427e-08
1.84878e-09
3.43992e-08
1.97486e-09
3.45373e-08
2.06959e-09
3.46707e-08
2.12266e-09
3.47912e-08
2.13483e-09
3.48963e-08
2.1152e-09
3.4986e-08
2.0747e-09
3.50606e-08
2.02169e-09
3.51203e-08
1.96163e-09
3.51666e-08
1.89858e-09
3.52018e-08
1.83606e-09
3.52286e-08
1.77678e-09
3.52492e-08
1.7222e-09
3.52651e-08
1.67262e-09
3.52776e-08
1.62762e-09
3.52872e-08
1.58658e-09
3.52946e-08
1.54896e-09
3.53002e-08
1.51428e-09
3.53043e-08
1.48217e-09