/*--------------------------------*- C++ -*----------------------------------*\
| =========                 |                                                 |
| \\      /  F ield         | OpenFOAM: The Open Source CFD Toolbox           |
|  \\    /   O peration     | Version:  2.3.0                                 |
|   \\  /    A nd           | Web:      www.OpenFOAM.org                      |
|    \\/     M anipulation  |                                                 |
\*---------------------------------------------------------------------------*/
FoamFile
{
    version     2.0;
    format      ascii;
    class       surfaceScalarField;
    location    "0.4";
    object      phi_0;
}
// * * * * * * * * * * * * * * * * * * * * * * * * * * * * * * * * * * * * * //

dimensions      [0 3 -1 0 0 0 0];

internalField   nonuniform List<scalar> 
11667
(
2.25846e-08
2.21175e-09
-2.47963e-08
1.99007e-08
2.68385e-09
1.72321e-08
2.6686e-09
1.47794e-08
2.45271e-09
1.25769e-08
2.20251e-09
1.06698e-08
1.90714e-09
9.10526e-09
1.56451e-09
7.884e-09
1.22126e-09
6.97256e-09
9.11441e-10
6.31176e-09
6.60802e-10
5.83657e-09
4.75185e-10
5.48995e-09
3.46622e-10
5.22785e-09
2.62099e-10
5.01897e-09
2.0888e-10
4.84232e-09
1.76651e-10
4.68518e-09
1.57142e-10
4.54075e-09
1.44429e-10
4.40586e-09
1.34886e-10
4.27923e-09
1.26638e-10
4.16033e-09
1.18895e-10
4.0489e-09
1.11434e-10
3.94462e-09
1.04273e-10
3.84712e-09
9.75001e-11
3.75593e-09
9.11953e-11
3.67052e-09
8.54043e-11
3.59039e-09
8.01354e-11
3.51502e-09
7.53677e-11
3.44396e-09
7.10623e-11
3.37679e-09
6.71711e-11
3.31314e-09
6.36438e-11
3.25271e-09
6.04329e-11
3.19521e-09
5.74968e-11
3.14041e-09
5.48002e-11
3.0881e-09
5.23139e-11
3.03809e-09
5.00126e-11
2.99021e-09
4.78748e-11
2.94433e-09
4.58816e-11
2.90031e-09
4.40176e-11
2.85804e-09
4.22701e-11
2.81741e-09
4.0629e-11
2.77833e-09
3.90859e-11
2.74069e-09
3.76329e-11
2.70443e-09
3.62629e-11
2.66946e-09
3.49692e-11
2.63572e-09
3.37454e-11
2.60313e-09
3.25859e-11
2.57165e-09
3.14858e-11
2.5412e-09
3.04403e-11
2.51176e-09
2.94451e-11
2.48326e-09
2.84961e-11
2.45567e-09
2.75897e-11
2.42895e-09
2.67226e-11
2.40306e-09
2.58924e-11
2.37796e-09
2.50974e-11
2.35363e-09
2.4336e-11
2.33002e-09
2.36069e-11
2.30711e-09
2.29085e-11
2.28487e-09
2.2239e-11
2.26328e-09
2.15963e-11
2.2423e-09
2.09781e-11
2.22191e-09
2.0382e-11
2.20211e-09
1.98061e-11
2.18286e-09
1.92481e-11
2.16415e-09
1.87069e-11
2.14597e-09
1.81814e-11
2.1283e-09
1.76713e-11
2.11112e-09
1.71768e-11
2.09443e-09
1.66981e-11
2.07819e-09
1.62353e-11
2.0624e-09
1.57883e-11
2.04705e-09
1.53559e-11
2.03211e-09
1.49367e-11
2.01758e-09
1.45285e-11
2.00345e-09
1.41295e-11
1.98971e-09
1.37377e-11
1.97636e-09
1.33523e-11
1.96339e-09
1.2973e-11
1.95079e-09
1.26005e-11
1.93855e-09
1.22357e-11
1.92667e-09
1.188e-11
1.91514e-09
1.15336e-11
1.90394e-09
1.11969e-11
1.89307e-09
1.08684e-11
1.88253e-09
1.05468e-11
1.8723e-09
1.02296e-11
1.86238e-09
9.91566e-12
1.85278e-09
9.60343e-12
1.84349e-09
9.29346e-12
1.8345e-09
8.98577e-12
1.82582e-09
8.68224e-12
1.81743e-09
8.38321e-12
1.80934e-09
8.09003e-12
1.80154e-09
7.80184e-12
1.79402e-09
7.51865e-12
1.78678e-09
7.23852e-12
1.77982e-09
6.96108e-12
1.77314e-09
6.68458e-12
1.76673e-09
6.40925e-12
1.7606e-09
6.13398e-12
1.75474e-09
5.85957e-12
1.74915e-09
5.58522e-12
1.74384e-09
5.31218e-12
1.7388e-09
5.03987e-12
1.73403e-09
4.77004e-12
1.72953e-09
4.50206e-12
1.72529e-09
4.23773e-12
1.72131e-09
3.97562e-12
1.7176e-09
3.71707e-12
1.71414e-09
3.45963e-12
1.71093e-09
3.20467e-12
1.70798e-09
2.9492e-12
1.70529e-09
2.69559e-12
1.70285e-09
2.44066e-12
1.70066e-09
2.18853e-12
1.69872e-09
1.93514e-12
1.69704e-09
1.68691e-12
1.6956e-09
1.43823e-12
1.6944e-09
1.19853e-12
1.69344e-09
9.59531e-13
1.69271e-09
7.34296e-13
1.69219e-09
5.10756e-13
1.69189e-09
3.06401e-13
1.69179e-09
9.93891e-14
1.69186e-09
-7.53334e-14
1.69211e-09
-2.44879e-13
1.69249e-09
-3.85247e-13
1.69301e-09
-5.13745e-13
1.69361e-09
-6.0379e-13
1.6943e-09
-6.89525e-13
1.69503e-09
-7.28394e-13
1.6958e-09
-7.67403e-13
1.69655e-09
-7.55235e-13
1.6973e-09
-7.51469e-13
1.698e-09
-6.99538e-13
1.69867e-09
-6.67155e-13
1.69926e-09
-5.87116e-13
1.6998e-09
-5.41173e-13
1.70025e-09
-4.47684e-13
1.70065e-09
-4.04538e-13
1.70096e-09
-3.09769e-13
1.70124e-09
-2.78796e-13
1.70143e-09
-1.88753e-13
1.7016e-09
-1.73621e-13
1.70169e-09
-8.91176e-14
1.70178e-09
-8.86518e-14
1.70179e-09
-7.95299e-15
1.70181e-09
-1.94333e-14
1.70175e-09
5.5471e-14
1.70172e-09
3.31941e-14
8.25042e-14
2.68363e-08
1.97203e-09
-2.65966e-08
2.67219e-08
2.79821e-09
2.62094e-08
3.18114e-09
2.54593e-08
3.20283e-09
2.45718e-08
3.09e-09
2.35779e-08
2.90099e-09
2.25034e-08
2.63898e-09
2.14006e-08
2.32409e-09
2.03201e-08
1.99193e-09
1.92987e-08
1.68222e-09
1.8355e-08
1.41886e-09
1.74947e-08
1.2069e-09
1.67172e-08
1.03965e-09
1.6019e-08
9.07021e-10
1.53929e-08
8.02778e-10
1.48302e-08
7.19876e-10
1.43223e-08
6.52322e-10
1.38615e-08
5.95709e-10
1.3441e-08
5.4709e-10
1.30553e-08
5.04583e-10
1.26998e-08
4.66989e-10
1.23705e-08
4.33513e-10
1.20644e-08
4.03586e-10
1.17789e-08
3.76775e-10
1.15116e-08
3.52717e-10
1.12606e-08
3.31095e-10
1.10243e-08
3.11623e-10
1.08014e-08
2.94039e-10
1.05904e-08
2.78109e-10
1.03904e-08
2.63622e-10
1.02005e-08
2.50394e-10
1.00197e-08
2.38268e-10
9.8474e-09
2.27111e-10
9.68291e-09
2.1681e-10
9.52565e-09
2.07269e-10
9.37512e-09
1.98406e-10
9.23086e-09
1.90147e-10
9.09244e-09
1.82431e-10
8.95951e-09
1.75205e-10
8.83171e-09
1.68425e-10
8.70874e-09
1.62054e-10
8.59032e-09
1.56057e-10
8.47618e-09
1.50404e-10
8.36608e-09
1.45065e-10
8.25981e-09
1.40016e-10
8.15717e-09
1.35233e-10
8.05796e-09
1.30694e-10
7.96202e-09
1.26382e-10
7.86918e-09
1.22278e-10
7.77931e-09
1.18367e-10
7.69227e-09
1.14634e-10
7.60792e-09
1.11066e-10
7.52616e-09
1.07652e-10
7.44688e-09
1.04384e-10
7.36996e-09
1.01254e-10
7.29531e-09
9.82536e-11
7.22284e-09
9.53767e-11
7.15247e-09
9.2615e-11
7.0841e-09
8.99604e-11
7.01768e-09
8.74047e-11
6.95312e-09
8.494e-11
6.89037e-09
8.2559e-11
6.82936e-09
8.02551e-11
6.77004e-09
7.80234e-11
6.71237e-09
7.58597e-11
6.65627e-09
7.37619e-11
6.60172e-09
7.17283e-11
6.54866e-09
6.97579e-11
6.49705e-09
6.78489e-11
6.44684e-09
6.5999e-11
6.39799e-09
6.42041e-11
6.35047e-09
6.24593e-11
6.30424e-09
6.07585e-11
6.25927e-09
5.90963e-11
6.21554e-09
5.74678e-11
6.17302e-09
5.58706e-11
6.13169e-09
5.43029e-11
6.09153e-09
5.27663e-11
6.0525e-09
5.12614e-11
6.01459e-09
4.97906e-11
5.97777e-09
4.83531e-11
5.94202e-09
4.69485e-11
5.90732e-09
4.55722e-11
5.87364e-09
4.42207e-11
5.84098e-09
4.28877e-11
5.80933e-09
4.15705e-11
5.77867e-09
4.02651e-11
5.74899e-09
3.89729e-11
5.72028e-09
3.76936e-11
5.69253e-09
3.64309e-11
5.66573e-09
3.5185e-11
5.63986e-09
3.3958e-11
5.61492e-09
3.27472e-11
5.59088e-09
3.15518e-11
5.56775e-09
3.03671e-11
5.54552e-09
2.91918e-11
5.52419e-09
2.80218e-11
5.50374e-09
2.68577e-11
5.48418e-09
2.56971e-11
5.46549e-09
2.45419e-11
5.44769e-09
2.33905e-11
5.43075e-09
2.2246e-11
5.41469e-09
2.11071e-11
5.39948e-09
1.99779e-11
5.38512e-09
1.8857e-11
5.37161e-09
1.77484e-11
5.35894e-09
1.66488e-11
5.3471e-09
1.55616e-11
5.33607e-09
1.44812e-11
5.32587e-09
1.34115e-11
5.31647e-09
1.23463e-11
5.30787e-09
1.12923e-11
5.30007e-09
1.02432e-11
5.29305e-09
9.20994e-12
5.2868e-09
8.18469e-12
5.2813e-09
7.18415e-12
5.27654e-09
6.19703e-12
5.2725e-09
5.2473e-12
5.26914e-09
4.31755e-12
5.26643e-09
3.44007e-12
5.26435e-09
2.58988e-12
5.26285e-09
1.81017e-12
5.26188e-09
1.06283e-12
5.2614e-09
4.05548e-13
5.26136e-09
-1.97174e-13
5.26167e-09
-7.03351e-13
5.26231e-09
-1.14666e-12
5.26317e-09
-1.46928e-12
5.26423e-09
-1.75073e-12
5.2654e-09
-1.89451e-12
5.26665e-09
-2.01409e-12
5.26788e-09
-1.9932e-12
5.26911e-09
-1.97546e-12
5.27024e-09
-1.83265e-12
5.2713e-09
-1.72748e-12
5.27222e-09
-1.50633e-12
5.27304e-09
-1.36308e-12
5.27371e-09
-1.10996e-12
5.27428e-09
-9.77288e-13
5.2747e-09
-7.27268e-13
5.27505e-09
-6.3148e-13
5.27526e-09
-3.9992e-13
5.27544e-09
-3.4974e-13
5.27548e-09
-1.36312e-13
5.27552e-09
-1.26845e-13
5.27544e-09
7.62064e-14
5.27536e-09
5.59766e-14
5.27517e-09
2.43034e-13
5.275e-09
2.05829e-13
3.1896e-13
2.78665e-08
1.8591e-09
-2.77536e-08
2.81769e-08
2.4878e-09
2.84002e-08
2.9578e-09
2.84685e-08
3.13454e-09
2.84249e-08
3.13368e-09
2.82768e-08
3.04906e-09
2.80135e-08
2.90226e-09
2.76405e-08
2.69713e-09
2.71795e-08
2.45293e-09
2.66597e-08
2.20198e-09
2.61069e-08
1.97167e-09
2.55394e-08
1.77436e-09
2.49695e-08
1.60963e-09
2.44046e-08
1.47192e-09
2.38508e-08
1.35654e-09
2.33119e-08
1.25873e-09
2.27901e-08
1.17419e-09
2.22862e-08
1.09954e-09
2.18009e-08
1.0324e-09
2.13343e-08
9.71242e-10
2.08862e-08
9.15096e-10
2.04563e-08
8.63338e-10
2.00444e-08
8.15527e-10
1.96498e-08
7.71341e-10
1.9272e-08
7.30509e-10
1.89104e-08
6.92779e-10
1.85641e-08
6.57908e-10
1.82324e-08
6.2566e-10
1.79147e-08
5.95809e-10
1.76102e-08
5.68138e-10
1.73182e-08
5.42446e-10
1.70379e-08
5.18549e-10
1.67687e-08
4.96282e-10
1.651e-08
4.75501e-10
1.62612e-08
4.56072e-10
1.60218e-08
4.37876e-10
1.57911e-08
4.20804e-10
1.55688e-08
4.04759e-10
1.53543e-08
3.89656e-10
1.51473e-08
3.75418e-10
1.49474e-08
3.61977e-10
1.47542e-08
3.49274e-10
1.45673e-08
3.3725e-10
1.43866e-08
3.25854e-10
1.42115e-08
3.15037e-10
1.4042e-08
3.04755e-10
1.38777e-08
2.9497e-10
1.37185e-08
2.85645e-10
1.3564e-08
2.76748e-10
1.34141e-08
2.68249e-10
1.32686e-08
2.60119e-10
1.31274e-08
2.52334e-10
1.29902e-08
2.44871e-10
1.28568e-08
2.37713e-10
1.27272e-08
2.30841e-10
1.26012e-08
2.24242e-10
1.24787e-08
2.17899e-10
1.23595e-08
2.11796e-10
1.22436e-08
2.05919e-10
1.21307e-08
2.00251e-10
1.20209e-08
1.94777e-10
1.1914e-08
1.89483e-10
1.18099e-08
1.84356e-10
1.17085e-08
1.79386e-10
1.16098e-08
1.74564e-10
1.15137e-08
1.69884e-10
1.14201e-08
1.65342e-10
1.13289e-08
1.60933e-10
1.12401e-08
1.56654e-10
1.11536e-08
1.52499e-10
1.10693e-08
1.48459e-10
1.09873e-08
1.44526e-10
1.09073e-08
1.40688e-10
1.08295e-08
1.36935e-10
1.07537e-08
1.33259e-10
1.06799e-08
1.29653e-10
1.06081e-08
1.26114e-10
1.05382e-08
1.22644e-10
1.04703e-08
1.19243e-10
1.04041e-08
1.15912e-10
1.03398e-08
1.1265e-10
1.02773e-08
1.09456e-10
1.02166e-08
1.0632e-10
1.01576e-08
1.03236e-10
1.01003e-08
1.00193e-10
1.00447e-08
9.71866e-11
9.99071e-09
9.42092e-11
9.93842e-09
9.12624e-11
9.88777e-09
8.83452e-11
9.83873e-09
8.54631e-11
9.7913e-09
8.26155e-11
9.74546e-09
7.98052e-11
9.70118e-09
7.70271e-11
9.65845e-09
7.42793e-11
9.61726e-09
7.15535e-11
9.57761e-09
6.88473e-11
9.53947e-09
6.61542e-11
9.50286e-09
6.34749e-11
9.46775e-09
6.08054e-11
9.43414e-09
5.81491e-11
9.40203e-09
5.55034e-11
9.3714e-09
5.28734e-11
9.34225e-09
5.02572e-11
9.31457e-09
4.76616e-11
9.28834e-09
4.50846e-11
9.26355e-09
4.25331e-11
9.2402e-09
4.00021e-11
9.21827e-09
3.74974e-11
9.19774e-09
3.50113e-11
9.1786e-09
3.25506e-11
9.16084e-09
3.01069e-11
9.14444e-09
2.7692e-11
9.12938e-09
2.5298e-11
9.11565e-09
2.29441e-11
9.10321e-09
2.06203e-11
9.09204e-09
1.83554e-11
9.0821e-09
1.61345e-11
9.07335e-09
1.39982e-11
9.06575e-09
1.1922e-11
9.05923e-09
9.95925e-12
9.05374e-09
8.07452e-12
9.04922e-09
6.33902e-12
9.04558e-09
4.69936e-12
9.04274e-09
3.24652e-12
9.04063e-09
1.91062e-12
9.03915e-09
7.81419e-13
9.0382e-09
-1.9831e-13
9.03768e-09
-9.48941e-13
9.03751e-09
-1.58899e-12
9.03759e-09
-1.97423e-12
9.03786e-09
-2.28392e-12
9.03821e-09
-2.34249e-12
9.03861e-09
-2.37671e-12
9.03898e-09
-2.1971e-12
9.03931e-09
-2.05563e-12
9.03953e-09
-1.72648e-12
9.03967e-09
-1.50495e-12
9.03967e-09
-1.11503e-12
9.0396e-09
-9.06234e-13
9.0394e-09
-5.2133e-13
9.03914e-09
-3.73992e-13
9.03876e-09
-2.26756e-14
9.03837e-09
4.75226e-14
9.03786e-09
3.66031e-13
9.03737e-09
3.70207e-13
9.03677e-09
6.68449e-13
9.0362e-09
6.31363e-13
9.03554e-09
9.00617e-13
9.03489e-09
8.53216e-13
1.00221e-12
2.88773e-08
1.81339e-09
-2.88316e-08
2.91037e-08
2.26137e-09
2.93959e-08
2.66568e-09
2.96376e-08
2.8928e-09
2.98211e-08
2.95018e-09
2.99556e-08
2.91454e-09
3.00321e-08
2.82583e-09
3.0037e-08
2.69223e-09
2.9967e-08
2.52284e-09
2.98318e-08
2.3372e-09
2.96462e-08
2.15726e-09
2.94239e-08
1.99674e-09
2.91741e-08
1.85936e-09
2.89032e-08
1.74281e-09
2.86164e-08
1.64333e-09
2.83178e-08
1.55734e-09
2.80104e-08
1.48167e-09
2.76962e-08
1.41373e-09
2.7377e-08
1.3516e-09
2.70542e-08
1.29397e-09
2.67293e-08
1.24001e-09
2.64035e-08
1.18919e-09
2.60778e-08
1.14118e-09
2.57534e-08
1.09576e-09
2.54311e-08
1.05278e-09
2.51118e-08
1.0121e-09
2.47961e-08
9.7359e-10
2.44847e-08
9.3713e-10
2.41779e-08
9.02593e-10
2.38762e-08
8.69854e-10
2.35798e-08
8.38793e-10
2.32891e-08
8.09294e-10
2.30041e-08
7.81252e-10
2.2725e-08
7.54572e-10
2.24519e-08
7.29168e-10
2.21848e-08
7.04959e-10
2.19238e-08
6.81875e-10
2.16687e-08
6.59848e-10
2.14195e-08
6.38822e-10
2.11762e-08
6.18741e-10
2.09386e-08
5.99554e-10
2.07067e-08
5.81212e-10
2.04803e-08
5.63664e-10
2.02593e-08
5.46863e-10
2.00435e-08
5.30763e-10
1.9833e-08
5.15319e-10
1.96274e-08
5.00494e-10
1.94268e-08
4.8625e-10
1.9231e-08
4.72557e-10
1.90399e-08
4.59383e-10
1.88533e-08
4.467e-10
1.86712e-08
4.34482e-10
1.84933e-08
4.22707e-10
1.83197e-08
4.11351e-10
1.81501e-08
4.00397e-10
1.79846e-08
3.89822e-10
1.78229e-08
3.79609e-10
1.76649e-08
3.69737e-10
1.75106e-08
3.60186e-10
1.736e-08
3.50934e-10
1.72128e-08
3.41964e-10
1.7069e-08
3.33257e-10
1.69286e-08
3.24797e-10
1.67914e-08
3.16571e-10
1.66574e-08
3.08568e-10
1.65265e-08
3.00778e-10
1.63986e-08
2.93195e-10
1.62737e-08
2.85813e-10
1.61518e-08
2.78625e-10
1.60326e-08
2.71623e-10
1.59163e-08
2.64796e-10
1.58027e-08
2.5813e-10
1.56918e-08
2.51609e-10
1.55835e-08
2.45221e-10
1.54778e-08
2.38952e-10
1.53747e-08
2.32794e-10
1.5274e-08
2.26742e-10
1.51759e-08
2.20796e-10
1.50802e-08
2.14955e-10
1.49869e-08
2.09223e-10
1.48959e-08
2.03597e-10
1.48073e-08
1.98073e-10
1.4721e-08
1.92639e-10
1.46369e-08
1.87286e-10
1.45551e-08
1.81997e-10
1.44755e-08
1.76765e-10
1.43982e-08
1.7158e-10
1.4323e-08
1.66443e-10
1.425e-08
1.61352e-10
1.41791e-08
1.56315e-10
1.41104e-08
1.5133e-10
1.40438e-08
1.46401e-10
1.39793e-08
1.4152e-10
1.39169e-08
1.36685e-10
1.38566e-08
1.31883e-10
1.37983e-08
1.27111e-10
1.37421e-08
1.22359e-10
1.3688e-08
1.17629e-10
1.36359e-08
1.12914e-10
1.35858e-08
1.08221e-10
1.35378e-08
1.03544e-10
1.34917e-08
9.88919e-11
1.34477e-08
9.42619e-11
1.34057e-08
8.96638e-11
1.33657e-08
8.50956e-11
1.33277e-08
8.05674e-11
1.32916e-08
7.60736e-11
1.32575e-08
7.16227e-11
1.32253e-08
6.72055e-11
1.3195e-08
6.28322e-11
1.31666e-08
5.84935e-11
1.31401e-08
5.42063e-11
1.31154e-08
4.9963e-11
1.30926e-08
4.57913e-11
1.30715e-08
4.16812e-11
1.30522e-08
3.76733e-11
1.30346e-08
3.37523e-11
1.30186e-08
2.99748e-11
1.30042e-08
2.6313e-11
1.29914e-08
2.28395e-11
1.29799e-08
1.95126e-11
1.29698e-08
1.64283e-11
1.2961e-08
1.35228e-11
1.29533e-08
1.09157e-11
1.29467e-08
8.51653e-12
1.29411e-08
6.45585e-12
1.29362e-08
4.62842e-12
1.29321e-08
3.17295e-12
1.29286e-08
1.92188e-12
1.29256e-08
1.05513e-12
1.29229e-08
3.42235e-13
1.29206e-08
2.5988e-15
1.29185e-08
-2.54602e-13
1.29165e-08
-2.07463e-13
1.29146e-08
-1.63817e-13
1.29127e-08
1.32634e-13
1.29109e-08
3.28523e-13
1.2909e-08
7.38135e-13
1.29072e-08
9.41358e-13
1.29053e-08
1.35957e-12
1.29034e-08
1.49352e-12
1.29016e-08
1.87105e-12
1.28997e-08
1.9099e-12
1.28978e-08
2.24123e-12
1.2896e-08
2.20356e-12
1.28942e-08
2.49919e-12
1.28924e-08
2.42707e-12
1.28906e-08
2.67493e-12
1.28888e-08
2.61493e-12
2.7096e-12
2.9906e-08
1.7648e-09
-2.98575e-08
3.00627e-08
2.10476e-09
3.03034e-08
2.42496e-09
3.05463e-08
2.64988e-09
3.07554e-08
2.7411e-09
3.09341e-08
2.73582e-09
3.10844e-08
2.67554e-09
3.11975e-08
2.57908e-09
3.12653e-08
2.45501e-09
3.12879e-08
2.31467e-09
3.12723e-08
2.17287e-09
3.12272e-08
2.04176e-09
3.11594e-08
1.92721e-09
3.10729e-08
1.82928e-09
3.09709e-08
1.74537e-09
3.08556e-08
1.67263e-09
3.07287e-08
1.60858e-09
3.05912e-08
1.55118e-09
3.0444e-08
1.49883e-09
3.02876e-08
1.45035e-09
3.01227e-08
1.40494e-09
2.99498e-08
1.36203e-09
2.97697e-08
1.32129e-09
2.9583e-08
1.28246e-09
2.93904e-08
1.24537e-09
2.91926e-08
1.20991e-09
2.89903e-08
1.17595e-09
2.8784e-08
1.14341e-09
2.85744e-08
1.11218e-09
2.83621e-08
1.08219e-09
2.81475e-08
1.05335e-09
2.79312e-08
1.02558e-09
2.77137e-08
9.98797e-10
2.74953e-08
9.7294e-10
2.72765e-08
9.47945e-10
2.70577e-08
9.23759e-10
2.68393e-08
9.0034e-10
2.66215e-08
8.77652e-10
2.64046e-08
8.5567e-10
2.6189e-08
8.34373e-10
2.59748e-08
8.13744e-10
2.57622e-08
7.93764e-10
2.55515e-08
7.74409e-10
2.53427e-08
7.55654e-10
2.5136e-08
7.37466e-10
2.49315e-08
7.19814e-10
2.47293e-08
7.02666e-10
2.45296e-08
6.85996e-10
2.43324e-08
6.69781e-10
2.41378e-08
6.54001e-10
2.39458e-08
6.38646e-10
2.37566e-08
6.23704e-10
2.35701e-08
6.0917e-10
2.33864e-08
5.95035e-10
2.32055e-08
5.81291e-10
2.30274e-08
5.67925e-10
2.28521e-08
5.5492e-10
2.26796e-08
5.42256e-10
2.25099e-08
5.2991e-10
2.2343e-08
5.17861e-10
2.21788e-08
5.0609e-10
2.20175e-08
4.94581e-10
2.1859e-08
4.83322e-10
2.17033e-08
4.72307e-10
2.15503e-08
4.61531e-10
2.14001e-08
4.50991e-10
2.12526e-08
4.40684e-10
2.11078e-08
4.30603e-10
2.09657e-08
4.20742e-10
2.08262e-08
4.11089e-10
2.06894e-08
4.01628e-10
2.05552e-08
3.92345e-10
2.04236e-08
3.8322e-10
2.02945e-08
3.7424e-10
2.01681e-08
3.65391e-10
2.00442e-08
3.56669e-10
1.99229e-08
3.48068e-10
1.98041e-08
3.39593e-10
1.96878e-08
3.31243e-10
1.9574e-08
3.23023e-10
1.94627e-08
3.14926e-10
1.93538e-08
3.06949e-10
1.92474e-08
2.99074e-10
1.91434e-08
2.91291e-10
1.90418e-08
2.83579e-10
1.89426e-08
2.7593e-10
1.88459e-08
2.68331e-10
1.87515e-08
2.60787e-10
1.86596e-08
2.53295e-10
1.857e-08
2.45866e-10
1.84829e-08
2.38497e-10
1.83981e-08
2.31194e-10
1.83156e-08
2.23946e-10
1.82356e-08
2.16748e-10
1.81579e-08
2.09585e-10
1.80825e-08
2.02454e-10
1.80096e-08
1.95341e-10
1.79389e-08
1.8825e-10
1.78707e-08
1.81174e-10
1.78048e-08
1.7412e-10
1.77412e-08
1.67085e-10
1.768e-08
1.60076e-10
1.76212e-08
1.53093e-10
1.75647e-08
1.46146e-10
1.75106e-08
1.39237e-10
1.74588e-08
1.32376e-10
1.74093e-08
1.2556e-10
1.73621e-08
1.18799e-10
1.73172e-08
1.12086e-10
1.72746e-08
1.0543e-10
1.72343e-08
9.88275e-11
1.71962e-08
9.22964e-11
1.71603e-08
8.58347e-11
1.71267e-08
7.94742e-11
1.70951e-08
7.32117e-11
1.70657e-08
6.70933e-11
1.70384e-08
6.11115e-11
1.7013e-08
5.53299e-11
1.69896e-08
4.97285e-11
1.6968e-08
4.43876e-11
1.69483e-08
3.92721e-11
1.69302e-08
3.44876e-11
1.69138e-08
2.99776e-11
1.68988e-08
2.58697e-11
1.68852e-08
2.20764e-11
1.6873e-08
1.87388e-11
1.68618e-08
1.5746e-11
1.68518e-08
1.32495e-11
1.68426e-08
1.10814e-11
1.68343e-08
9.40897e-12
1.68266e-08
8.01446e-12
1.68195e-08
7.07934e-12
1.68129e-08
6.34076e-12
1.68067e-08
5.97652e-12
1.68009e-08
5.69929e-12
1.67953e-08
5.71579e-12
1.67899e-08
5.69766e-12
1.67847e-08
5.90626e-12
1.67797e-08
5.95776e-12
1.67749e-08
6.21205e-12
1.67701e-08
6.22208e-12
1.67656e-08
6.44411e-12
1.67611e-08
6.37464e-12
1.67568e-08
6.54151e-12
1.67526e-08
6.41611e-12
1.67486e-08
6.52912e-12
1.67446e-08
6.4007e-12
1.67408e-08
6.44867e-12
1.67371e-08
6.37012e-12
6.25042e-12
3.09338e-08
1.70878e-09
-3.08778e-08
3.10564e-08
1.98211e-09
3.12463e-08
2.23511e-09
3.14593e-08
2.43686e-09
3.16565e-08
2.54394e-09
3.18289e-08
2.56342e-09
3.19792e-08
2.52518e-09
3.21057e-08
2.4526e-09
3.22033e-08
2.35745e-09
3.227e-08
2.24794e-09
3.23092e-08
2.13364e-09
3.23269e-08
2.02409e-09
3.23285e-08
1.92558e-09
3.23178e-08
1.83996e-09
3.22972e-08
1.76604e-09
3.22681e-08
1.70173e-09
3.22315e-08
1.64511e-09
3.21882e-08
1.59457e-09
3.21382e-08
1.54879e-09
3.20818e-08
1.50679e-09
3.20189e-08
1.4678e-09
3.19496e-08
1.43128e-09
3.18741e-08
1.39683e-09
3.17924e-08
1.36417e-09
3.17047e-08
1.3331e-09
3.16111e-08
1.30345e-09
3.1512e-08
1.27509e-09
3.14075e-08
1.24792e-09
3.12978e-08
1.22182e-09
3.11833e-08
1.19672e-09
3.10641e-08
1.17252e-09
3.09406e-08
1.14914e-09
3.08129e-08
1.1265e-09
3.06813e-08
1.10453e-09
3.05461e-08
1.08316e-09
3.04075e-08
1.06232e-09
3.02659e-08
1.04198e-09
3.01214e-08
1.02208e-09
2.99745e-08
1.00261e-09
2.98253e-08
9.83551e-10
2.96742e-08
9.64907e-10
2.95213e-08
9.46674e-10
2.93668e-08
9.2885e-10
2.9211e-08
9.11425e-10
2.90541e-08
8.9438e-10
2.88963e-08
8.7769e-10
2.87376e-08
8.61323e-10
2.85783e-08
8.45247e-10
2.84187e-08
8.29435e-10
2.82588e-08
8.13866e-10
2.80989e-08
7.98532e-10
2.79392e-08
7.83434e-10
2.77798e-08
7.68582e-10
2.76208e-08
7.53992e-10
2.74625e-08
7.39678e-10
2.73047e-08
7.25647e-10
2.71478e-08
7.11896e-10
2.69916e-08
6.98409e-10
2.68364e-08
6.85162e-10
2.66821e-08
6.72124e-10
2.65289e-08
6.59266e-10
2.63769e-08
6.46567e-10
2.62262e-08
6.34015e-10
2.60769e-08
6.21612e-10
2.59291e-08
6.09368e-10
2.57828e-08
5.97302e-10
2.5638e-08
5.85428e-10
2.54949e-08
5.73757e-10
2.53533e-08
5.62285e-10
2.52134e-08
5.51e-10
2.50752e-08
5.39877e-10
2.49386e-08
5.28888e-10
2.48039e-08
5.18004e-10
2.46709e-08
5.07206e-10
2.45398e-08
4.96485e-10
2.44106e-08
4.85844e-10
2.42834e-08
4.75291e-10
2.41581e-08
4.64847e-10
2.40349e-08
4.54519e-10
2.39136e-08
4.44318e-10
2.37943e-08
4.34236e-10
2.3677e-08
4.2426e-10
2.35617e-08
4.14366e-10
2.34484e-08
4.04533e-10
2.33373e-08
3.94735e-10
2.32282e-08
3.84966e-10
2.31213e-08
3.75216e-10
2.30166e-08
3.655e-10
2.29141e-08
3.5582e-10
2.28138e-08
3.46196e-10
2.27156e-08
3.36626e-10
2.26197e-08
3.27114e-10
2.2526e-08
3.17646e-10
2.24346e-08
3.08213e-10
2.23453e-08
2.98795e-10
2.22584e-08
2.89385e-10
2.21738e-08
2.79972e-10
2.20915e-08
2.7056e-10
2.20115e-08
2.61145e-10
2.19339e-08
2.51738e-10
2.18586e-08
2.42339e-10
2.17858e-08
2.32956e-10
2.17153e-08
2.23591e-10
2.16471e-08
2.14258e-10
2.15814e-08
2.04958e-10
2.15181e-08
1.95703e-10
2.14572e-08
1.86493e-10
2.13986e-08
1.77333e-10
2.13425e-08
1.68225e-10
2.12887e-08
1.59173e-10
2.12374e-08
1.50184e-10
2.11884e-08
1.41272e-10
2.11418e-08
1.32453e-10
2.10975e-08
1.2375e-10
2.10555e-08
1.15185e-10
2.10158e-08
1.0679e-10
2.09784e-08
9.85864e-11
2.09431e-08
9.06207e-11
2.09099e-08
8.2906e-11
2.08788e-08
7.54999e-11
2.08497e-08
6.84061e-11
2.08224e-08
6.17004e-11
2.07971e-08
5.53739e-11
2.07734e-08
4.9515e-11
2.07514e-08
4.40924e-11
2.07309e-08
3.91998e-11
2.07119e-08
3.47877e-11
2.06942e-08
3.09455e-11
2.06777e-08
2.7586e-11
2.06623e-08
2.47824e-11
2.06479e-08
2.24239e-11
2.06344e-08
2.05604e-11
2.06217e-08
1.90658e-11
2.06097e-08
1.79558e-11
2.05983e-08
1.71016e-11
2.05875e-08
1.65165e-11
2.05772e-08
1.60579e-11
2.05673e-08
1.57648e-11
2.05578e-08
1.54784e-11
2.05487e-08
1.52892e-11
2.05399e-08
1.50356e-11
2.05315e-08
1.48384e-11
2.05233e-08
1.45682e-11
2.05155e-08
1.43161e-11
2.05079e-08
1.40507e-11
2.05007e-08
1.37343e-11
2.04936e-08
1.35233e-11
2.04869e-08
1.31362e-11
2.04802e-08
1.30311e-11
1.24844e-11
3.19682e-08
1.64994e-09
-3.19093e-08
3.20724e-08
1.87787e-09
3.22248e-08
2.08275e-09
3.24054e-08
2.25625e-09
3.25837e-08
2.36561e-09
3.2744e-08
2.40319e-09
3.28839e-08
2.38521e-09
3.30041e-08
2.33247e-09
3.31027e-08
2.25885e-09
3.31783e-08
2.17232e-09
3.32323e-08
2.07963e-09
3.32687e-08
1.98773e-09
3.3292e-08
1.90224e-09
3.3306e-08
1.82595e-09
3.33131e-08
1.759e-09
3.33146e-08
1.70018e-09
3.33117e-08
1.64806e-09
3.33048e-08
1.60141e-09
3.32944e-08
1.5592e-09
3.32806e-08
1.52064e-09
3.32633e-08
1.48507e-09
3.32426e-08
1.45201e-09
3.32183e-08
1.42109e-09
3.31905e-08
1.392e-09
3.3159e-08
1.36454e-09
3.3124e-08
1.33852e-09
3.30853e-08
1.3138e-09
3.30429e-08
1.29027e-09
3.29969e-08
1.26781e-09
3.29473e-08
1.24634e-09
3.28941e-08
1.22575e-09
3.28372e-08
1.20597e-09
3.27768e-08
1.18691e-09
3.27129e-08
1.16848e-09
3.26454e-08
1.15061e-09
3.25745e-08
1.13321e-09
3.25003e-08
1.11623e-09
3.24228e-08
1.09959e-09
3.23421e-08
1.08326e-09
3.22584e-08
1.06723e-09
3.21719e-08
1.05149e-09
3.20825e-08
1.03603e-09
3.19905e-08
1.02087e-09
3.18959e-08
1.006e-09
3.17989e-08
9.91422e-10
3.16994e-08
9.77107e-10
3.15977e-08
9.63024e-10
3.14939e-08
9.49128e-10
3.13879e-08
9.35375e-10
3.12801e-08
9.21724e-10
3.11704e-08
9.08151e-10
3.10592e-08
8.94646e-10
3.09466e-08
8.8122e-10
3.08327e-08
8.679e-10
3.07176e-08
8.54719e-10
3.06016e-08
8.4171e-10
3.04846e-08
8.28894e-10
3.03667e-08
8.16271e-10
3.02481e-08
8.03822e-10
3.01287e-08
7.91508e-10
3.00087e-08
7.7928e-10
2.98881e-08
7.6709e-10
2.97673e-08
7.54904e-10
2.96462e-08
7.42711e-10
2.9525e-08
7.30526e-10
2.94039e-08
7.18385e-10
2.9283e-08
7.06335e-10
2.91623e-08
6.94421e-10
2.9042e-08
6.82667e-10
2.89219e-08
6.71075e-10
2.88021e-08
6.59616e-10
2.86828e-08
6.48243e-10
2.85639e-08
6.36897e-10
2.84456e-08
6.25531e-10
2.83279e-08
6.14115e-10
2.82111e-08
6.02652e-10
2.80953e-08
5.91169e-10
2.79804e-08
5.79715e-10
2.78666e-08
5.68332e-10
2.77538e-08
5.5706e-10
2.76422e-08
5.45899e-10
2.75316e-08
5.34836e-10
2.74221e-08
5.23822e-10
2.73139e-08
5.12811e-10
2.72068e-08
5.01752e-10
2.71012e-08
4.90629e-10
2.6997e-08
4.79433e-10
2.68943e-08
4.68195e-10
2.67931e-08
4.56941e-10
2.66936e-08
4.45713e-10
2.65957e-08
4.34522e-10
2.64995e-08
4.23378e-10
2.64049e-08
4.12257e-10
2.63119e-08
4.0114e-10
2.62207e-08
3.89994e-10
2.61313e-08
3.78803e-10
2.60437e-08
3.67554e-10
2.5958e-08
3.56252e-10
2.58743e-08
3.449e-10
2.57925e-08
3.33513e-10
2.57128e-08
3.221e-10
2.5635e-08
3.10673e-10
2.55594e-08
2.99248e-10
2.54858e-08
2.87832e-10
2.54143e-08
2.76443e-10
2.53449e-08
2.65079e-10
2.52777e-08
2.53753e-10
2.52126e-08
2.4245e-10
2.51496e-08
2.31187e-10
2.50888e-08
2.19946e-10
2.50302e-08
2.08766e-10
2.49739e-08
1.97632e-10
2.49197e-08
1.86606e-10
2.48678e-08
1.7568e-10
2.48181e-08
1.64933e-10
2.47705e-08
1.54352e-10
2.47251e-08
1.44028e-10
2.46817e-08
1.33944e-10
2.46404e-08
1.24196e-10
2.46012e-08
1.1476e-10
2.45639e-08
1.05736e-10
2.45284e-08
9.71015e-11
2.44949e-08
8.89632e-11
2.44631e-08
8.12898e-11
2.4433e-08
7.41922e-11
2.44046e-08
6.76226e-11
2.43777e-08
6.16942e-11
2.43523e-08
5.63278e-11
2.43282e-08
5.16328e-11
2.43055e-08
4.74735e-11
2.4284e-08
4.39731e-11
2.42636e-08
4.09222e-11
2.42442e-08
3.8473e-11
2.42258e-08
3.63324e-11
2.42082e-08
3.46971e-11
2.41916e-08
3.32107e-11
2.41755e-08
3.21184e-11
2.41602e-08
3.10188e-11
2.41455e-08
3.02273e-11
2.41315e-08
2.92914e-11
2.41179e-08
2.86459e-11
2.4105e-08
2.77337e-11
2.40924e-08
2.71759e-11
2.40805e-08
2.6222e-11
2.40688e-08
2.57623e-11
2.40577e-08
2.47511e-11
2.40468e-08
2.44248e-11
2.40366e-08
2.33531e-11
2.40264e-08
2.32101e-11
2.20108e-11
3.30158e-08
1.59205e-09
-3.29579e-08
3.31074e-08
1.78629e-09
3.32336e-08
1.95653e-09
3.33858e-08
2.10405e-09
3.35437e-08
2.20777e-09
3.36908e-08
2.25608e-09
3.38207e-08
2.25528e-09
3.39329e-08
2.22028e-09
3.40273e-08
2.16442e-09
3.41034e-08
2.09621e-09
3.41618e-08
2.0213e-09
3.42047e-08
1.94479e-09
3.42357e-08
1.87119e-09
3.42582e-08
1.8035e-09
3.42744e-08
1.74274e-09
3.42861e-08
1.68855e-09
3.42941e-08
1.64002e-09
3.42993e-08
1.59623e-09
3.43021e-08
1.5564e-09
3.43028e-08
1.51991e-09
3.43016e-08
1.48626e-09
3.42986e-08
1.45505e-09
3.42937e-08
1.42593e-09
3.42871e-08
1.39866e-09
3.42786e-08
1.37301e-09
3.42683e-08
1.34882e-09
3.42562e-08
1.32596e-09
3.42421e-08
1.3043e-09
3.42262e-08
1.28374e-09
3.42083e-08
1.2642e-09
3.41885e-08
1.24559e-09
3.41666e-08
1.22783e-09
3.41427e-08
1.21084e-09
3.41166e-08
1.19454e-09
3.40884e-08
1.17883e-09
3.4058e-08
1.16365e-09
3.40253e-08
1.14889e-09
3.39904e-08
1.13451e-09
3.39532e-08
1.12043e-09
3.39138e-08
1.10664e-09
3.38722e-08
1.09311e-09
3.38284e-08
1.07985e-09
3.37824e-08
1.06686e-09
3.37342e-08
1.05416e-09
3.36839e-08
1.04174e-09
3.36314e-08
1.02959e-09
3.35768e-08
1.01769e-09
3.35199e-08
1.00597e-09
3.34609e-08
9.94375e-10
3.33998e-08
9.82852e-10
3.33366e-08
9.71346e-10
3.32714e-08
9.59825e-10
3.32044e-08
9.48283e-10
3.31355e-08
9.36741e-10
3.3065e-08
9.25241e-10
3.29929e-08
9.13833e-10
3.29192e-08
9.02563e-10
3.2844e-08
8.91461e-10
3.27673e-08
8.80524e-10
3.26891e-08
8.69715e-10
3.26094e-08
8.58973e-10
3.25283e-08
8.48219e-10
3.24458e-08
8.37381e-10
3.23621e-08
8.26409e-10
3.22773e-08
8.15294e-10
3.21917e-08
8.04067e-10
3.21052e-08
7.92796e-10
3.2018e-08
7.81563e-10
3.19303e-08
7.70442e-10
3.18419e-08
7.59475e-10
3.17528e-08
7.48657e-10
3.16631e-08
7.37934e-10
3.15728e-08
7.27215e-10
3.14819e-08
7.16406e-10
3.13906e-08
7.05421e-10
3.12991e-08
6.94229e-10
3.12074e-08
6.82843e-10
3.11158e-08
6.71335e-10
3.10243e-08
6.59796e-10
3.0933e-08
6.48321e-10
3.0842e-08
6.3696e-10
3.07511e-08
6.25725e-10
3.06604e-08
6.14556e-10
3.05698e-08
6.03369e-10
3.04795e-08
5.92062e-10
3.03896e-08
5.80568e-10
3.03001e-08
5.68855e-10
3.02114e-08
5.56955e-10
3.01234e-08
5.44924e-10
3.00363e-08
5.32847e-10
2.995e-08
5.20777e-10
2.98646e-08
5.08749e-10
2.97801e-08
4.96743e-10
2.96966e-08
4.84724e-10
2.96139e-08
4.72637e-10
2.95323e-08
4.6044e-10
2.94517e-08
4.4811e-10
2.93723e-08
4.35638e-10
2.92942e-08
4.2304e-10
2.92174e-08
4.10324e-10
2.9142e-08
3.97522e-10
2.9068e-08
3.84642e-10
2.89955e-08
3.71728e-10
2.89246e-08
3.58785e-10
2.88551e-08
3.45866e-10
2.87873e-08
3.32946e-10
2.8721e-08
3.2007e-10
2.86562e-08
3.07173e-10
2.85931e-08
2.94308e-10
2.85317e-08
2.81393e-10
2.84719e-08
2.68522e-10
2.84139e-08
2.55613e-10
2.83577e-08
2.42817e-10
2.83034e-08
2.30046e-10
2.82508e-08
2.17497e-10
2.82001e-08
2.05059e-10
2.81511e-08
1.92961e-10
2.8104e-08
1.81059e-10
2.80586e-08
1.69603e-10
2.8015e-08
1.58409e-10
2.7973e-08
1.47757e-10
2.79326e-08
1.37424e-10
2.78939e-08
1.27728e-10
2.78567e-08
1.1841e-10
2.78211e-08
1.09824e-10
2.77871e-08
1.0167e-10
2.77544e-08
9.43358e-11
2.77233e-08
8.74622e-11
2.76935e-08
8.14702e-11
2.7665e-08
7.59063e-11
2.76378e-08
7.12454e-11
2.76118e-08
6.69064e-11
2.75868e-08
6.34474e-11
2.7563e-08
6.01338e-11
2.754e-08
5.76404e-11
2.75182e-08
5.50731e-11
2.7497e-08
5.32628e-11
2.74769e-08
5.11432e-11
2.74574e-08
4.9766e-11
2.74388e-08
4.78479e-11
2.74207e-08
4.67434e-11
2.74036e-08
4.48768e-11
2.73868e-08
4.39794e-11
2.73709e-08
4.20991e-11
2.73553e-08
4.14029e-11
2.73405e-08
3.94913e-11
2.73259e-08
3.90166e-11
2.73122e-08
3.70621e-11
2.72986e-08
3.68676e-11
3.48301e-11
3.40808e-08
1.53699e-09
-3.40257e-08
3.41623e-08
1.70475e-09
3.427e-08
1.8488e-09
3.43992e-08
1.97488e-09
3.45374e-08
2.06961e-09
3.46708e-08
2.12267e-09
3.47912e-08
2.13483e-09
3.48963e-08
2.11519e-09
3.49861e-08
2.07467e-09
3.50606e-08
2.02164e-09
3.51204e-08
1.96157e-09
3.51667e-08
1.89852e-09
3.52018e-08
1.836e-09
3.52286e-08
1.77672e-09
3.52492e-08
1.72216e-09
3.52652e-08
1.67258e-09
3.52776e-08
1.6276e-09
3.52873e-08
1.58658e-09
3.52947e-08
1.54896e-09
3.53003e-08
1.51429e-09
3.53044e-08
1.48218e-09
3.53071e-08