/*--------------------------------*- C++ -*----------------------------------*\
| =========                 |                                                 |
| \\      /  F ield         | OpenFOAM: The Open Source CFD Toolbox           |
|  \\    /   O peration     | Version:  2.3.0                                 |
|   \\  /    A nd           | Web:      www.OpenFOAM.org                      |
|    \\/     M anipulation  |                                                 |
\*---------------------------------------------------------------------------*/
FoamFile
{
    version     2.0;
    format      ascii;
    class       volScalarField;
    location    "1";
    object      p;
}
// * * * * * * * * * * * * * * * * * * * * * * * * * * * * * * * * * * * * * //

dimensions      [0 2 -2 0 0 0 0];

internalField   nonuniform List<scalar> 
3105
(
0.00252356
0.00222484
0.00163322
0.00106991
0.000600222
0.000202388
-0.000133694
-0.00039254
-0.000555455
-0.00062604
-0.000629147
-0.000595132
-0.000547752
-0.000501284
-0.00046234
-0.000432456
-0.000410454
-0.000394222
-0.000381723
-0.000371397
-0.000362193
-0.000353487
-0.000344952
-0.000336451
-0.000327953
-0.000319478
-0.000311062
-0.000302742
-0.000294546
-0.000286496
-0.000278602
-0.000270871
-0.000263303
-0.000255899
-0.000248652
-0.000241564
-0.000234627
-0.000227843
-0.000221204
-0.000214714
-0.000208366
-0.000202164
-0.000196103
-0.000190186
-0.000184407
-0.000178773
-0.000173274
-0.000167918
-0.000162695
-0.000157613
-0.000152659
-0.000147845
-0.000143155
-0.000138601
-0.000134166
-0.000129863
-0.000125673
-0.000121612
-0.000117656
-0.000113826
-0.000110093
-0.000106481
-0.000102959
-9.95529e-05
-9.62263e-05
-9.3013e-05
-8.9868e-05
-8.68327e-05
-8.38539e-05
-8.09814e-05
-7.81523e-05
-7.54265e-05
-7.27294e-05
-7.01334e-05
-6.75496e-05
-6.50654e-05
-6.25746e-05
-6.0183e-05
-5.77634e-05
-5.54439e-05
-5.30716e-05
-5.08022e-05
-4.84508e-05
-4.62073e-05
-4.38475e-05
-4.16036e-05
-3.92021e-05
-3.69287e-05
-3.44476e-05
-3.21124e-05
-2.95073e-05
-2.70742e-05
-2.42926e-05
-2.17209e-05
-1.86979e-05
-1.5943e-05
-1.25929e-05
-9.61096e-06
-5.79147e-06
-2.58495e-06
0.00209753
0.00193921
0.00152261
0.00103697
0.000595062
0.000217978
-9.62466e-05
-0.000337915
-0.000495998
-0.000572287
-0.000585256
-0.000561034
-0.000521994
-0.000482032
-0.000447876
-0.000421284
-0.000401433
-0.000386592
-0.000375023
-0.000365363
-0.000356677
-0.000348404
-0.000340248
-0.000332088
-0.000323897
-0.000315701
-0.000307535
-0.000299442
-0.00029145
-0.000283585
-0.000275858
-0.00026828
-0.000260852
-0.000253575
-0.000246447
-0.000239468
-0.000232633
-0.000225943
-0.000219392
-0.000212985
-0.000206714
-0.000200584
-0.00019459
-0.000188737
-0.000183018
-0.00017744
-0.000171994
-0.000166689
-0.000161512
-0.000156475
-0.000151564
-0.00014679
-0.000142138
-0.00013762
-0.000133219
-0.00012895
-0.00012479
-0.000120759
-0.000116831
-0.000113028
-0.000109321
-0.000105734
-0.000102234
-9.88509e-05
-9.5545e-05
-9.23527e-05
-8.92266e-05
-8.62105e-05
-8.32489e-05
-8.03942e-05
-7.75806e-05
-7.48714e-05
-7.21884e-05
-6.96079e-05
-6.70369e-05
-6.45671e-05
-6.20879e-05
-5.97099e-05
-5.73006e-05
-5.4994e-05
-5.26308e-05
-5.03736e-05
-4.80302e-05
-4.57985e-05
-4.34454e-05
-4.12129e-05
-3.88169e-05
-3.65547e-05
-3.40777e-05
-3.17536e-05
-2.91511e-05
-2.67292e-05
-2.39483e-05
-2.13884e-05
-1.83635e-05
-1.56218e-05
-1.22656e-05
-9.29955e-06
-5.47343e-06
-2.30412e-06
0.00180078
0.00170475
0.00141621
0.00101457
0.000611123
0.000258926
-3.01853e-05
-0.000253158
-0.000407053
-0.000493388
-0.000523352
-0.000515746
-0.000489884
-0.000459677
-0.000432077
-0.000409489
-0.000391918
-0.000378356
-0.000367563
-0.000358454
-0.000350236
-0.000342405
-0.000334682
-0.000326943
-0.000319156
-0.000311337
-0.000303518
-0.000295738
-0.000288027
-0.000280412
-0.000272908
-0.000265528
-0.000258277
-0.00025116
-0.000244175
-0.000237327
-0.00023061
-0.000224028
-0.000217577
-0.000211261
-0.000205074
-0.000199024
-0.000193103
-0.000187318
-0.000181663
-0.000176145
-0.000170754
-0.000165501
-0.000160374
-0.000155383
-0.000150515
-0.000145783
-0.000141169
-0.000136689
-0.000132322
-0.000128086
-0.000123957
-0.000119957
-0.000116056
-0.000112281
-0.000108598
-0.000105037
-0.000101559
-9.81991e-05
-9.49131e-05
-9.17422e-05
-8.8634e-05
-8.56379e-05
-8.26923e-05
-7.98562e-05
-7.7057e-05
-7.43652e-05
-7.16951e-05
-6.9131e-05
-6.65713e-05
-6.41173e-05
-6.16479e-05
-5.92851e-05
-5.68843e-05
-5.45925e-05
-5.22364e-05
-4.99937e-05
-4.7656e-05
-4.54388e-05
-4.30899e-05
-4.08721e-05
-3.84787e-05
-3.62316e-05
-3.37555e-05
-3.14472e-05
-2.88437e-05
-2.64387e-05
-2.36546e-05
-2.11131e-05
-1.80824e-05
-1.53612e-05
-1.19979e-05
-9.05415e-06
-5.25322e-06
-2.15019e-06
0.00159642
0.00151919
0.00130806
0.000983633
0.000628118
0.000305053
3.85727e-05
-0.000167907
-0.000315803
-0.000407904
-0.000451588
-0.000459878
-0.00044796
-0.000428271
-0.000408104
-0.000390611
-0.000376489
-0.000365285
-0.000356158
-0.000348293
-0.000341062
-0.000334064
-0.000327073
-0.000319996
-0.000312807
-0.000305528
-0.000298192
-0.000290842
-0.000283512
-0.000276235
-0.000269031
-0.000261919
-0.000254907
-0.000248006
-0.000241216
-0.000234545
-0.00022799
-0.000221558
-0.000215243
-0.000209054
-0.000202985
-0.000197044
-0.000191223
-0.000185534
-0.000179965
-0.00017453
-0.000169215
-0.000164035
-0.000158974
-0.000154048
-0.000149238
-0.000144562
-0.00014
-0.00013557
-0.000131249
-0.000127058
-0.00012297
-0.000119009
-0.000115145
-0.000111406
-0.000107755
-0.000104226
-0.000100777
-9.74476e-05
-9.41875e-05
-9.1044e-05
-8.79589e-05
-8.4988e-05
-8.20631e-05
-7.92503e-05
-7.64696e-05
-7.37996e-05
-7.1146e-05
-6.86023e-05
-6.60573e-05
-6.36226e-05
-6.11662e-05
-5.88218e-05
-5.64324e-05
-5.41584e-05
-5.18122e-05
-4.95869e-05
-4.72575e-05
-4.50574e-05
-4.27155e-05
-4.05149e-05
-3.81271e-05
-3.58973e-05
-3.34254e-05
-3.1135e-05
-2.85342e-05
-2.6148e-05
-2.33653e-05
-2.08436e-05
-1.7814e-05
-1.51126e-05
-1.17561e-05
-8.83319e-06
-5.09551e-06
-2.07187e-06
0.00143487
0.00136321
0.0011974
0.000936916
0.000632884
0.00034289
9.80961e-05
-9.3931e-05
-0.000235122
-0.000329298
-0.000382136
-0.000402834
-0.000402889
-0.000392807
-0.000379752
-0.000367405
-0.000357012
-0.000348534
-0.000341434
-0.000335123
-0.000329134
-0.000323177
-0.000317094
-0.000310831
-0.00030438
-0.000297772
-0.000291045
-0.000284245
-0.00027741
-0.000270578
-0.000263773
-0.000257021
-0.000250332
-0.000243725
-0.0002372
-0.000230772
-0.000224438
-0.00021821
-0.000212083
-0.000206067
-0.000200158
-0.000194366
-0.000188684
-0.000183124
-0.000177676
-0.000172354
-0.000167145
-0.000162065
-0.000157097
-0.000152258
-0.000147531
-0.000142934
-0.000138444
-0.000134084
-0.000129827
-0.000125699
-0.000121668
-0.000117764
-0.000113951
-0.000110263
-0.000106658
-0.000103175
-9.97676e-05
-9.64794e-05
-9.32563e-05
-9.01505e-05
-8.70987e-05
-8.41623e-05
-8.12673e-05
-7.84863e-05
-7.57325e-05
-7.30918e-05
-7.04623e-05
-6.79459e-05
-6.54227e-05
-6.30134e-05
-6.05767e-05
-5.82563e-05
-5.58846e-05
-5.36333e-05
-5.13031e-05
-4.90996e-05
-4.67847e-05
-4.46057e-05
-4.22769e-05
-4.00969e-05
-3.7721e-05
-3.55117e-05
-3.30509e-05
-3.07808e-05
-2.81909e-05
-2.58248e-05
-2.30537e-05
-2.05515e-05
-1.75369e-05
-1.48529e-05
-1.15248e-05
-8.62203e-06
-4.97943e-06
-2.03716e-06
0.00129733
0.00122856
0.00109103
0.000879999
0.000625034
0.00037021
0.000147312
-3.15001e-05
-0.000165967
-0.000259866
-0.00031831
-0.000348207
-0.00035812
-0.000356577
-0.000350147
-0.000342723
-0.000335968
-0.000330202
-0.000325156
-0.000320438
-0.000315728
-0.000310838
-0.000305682
-0.000300248
-0.000294553
-0.00028864
-0.000282549
-0.000276334
-0.000270031
-0.000263685
-0.000257321
-0.000250972
-0.00024465
-0.000238379
-0.000232162
-0.000226018
-0.000219945
-0.000213959
-0.000208055
-0.00020225
-0.000196535
-0.000190926
-0.000185414
-0.000180014
-0.000174716
-0.000169536
-0.00016446
-0.000159505
-0.000154655
-0.00014993
-0.000145308
-0.000140811
-0.000136415
-0.000132146
-0.000127973
-0.000123926
-0.000119971
-0.000116141
-0.000112396
-0.000108774
-0.000105231
-0.000101809
-9.84565e-05
-9.52232e-05
-9.20503e-05
-8.89947e-05
-8.59883e-05
-8.30978e-05
-8.0244e-05
-7.7505e-05
-7.47886e-05
-7.21866e-05
-6.95913e-05
-6.71107e-05
-6.46186e-05
-6.22426e-05
-5.98343e-05
-5.7545e-05
-5.51996e-05
-5.29775e-05
-5.06716e-05
-4.84957e-05
-4.62037e-05
-4.40509e-05
-4.17439e-05
-3.95889e-05
-3.72342e-05
-3.5049e-05
-3.26094e-05
-3.03624e-05
-2.7795e-05
-2.54505e-05
-2.27054e-05
-2.02224e-05
-1.72417e-05
-1.45732e-05
-1.1299e-05
-8.41832e-06
-4.8939e-06
-2.02365e-06
0.00117706
0.00111133
0.00099373
0.000820333
0.000608026
0.000387689
0.00018724
2.14998e-05
-0.000106288
-0.000198709
-0.000260359
-0.000296839
-0.000314662
-0.000320565
-0.000320233
-0.000317468
-0.000314198
-0.000311063
-0.000308041
-0.000304921
-0.000301509
-0.000297709
-0.000293497
-0.000288902
-0.000283967
-0.00027875
-0.000273298
-0.000267668
-0.000261901
-0.000256044
-0.000250127
-0.000244186
-0.000238238
-0.00023231
-0.00022641
-0.000220559
-0.000214757
-0.000209024
-0.000203357
-0.000197773
-0.000192265
-0.000186852
-0.000181524
-0.0001763
-0.000171166
-0.000166143
-0.000161214
-0.000156401
-0.000151684
-0.000147086
-0.000142585
-0.000138204
-0.000133917
-0.000129753
-0.00012568
-0.000121728
-0.000117864
-0.000114121
-0.000110458
-0.000106916
-0.000103448
-0.000100098
-9.68142e-05
-9.3648e-05
-9.05374e-05
-8.75433e-05
-8.45939e-05
-8.17599e-05
-7.89584e-05
-7.62715e-05
-7.36031e-05
-7.10492e-05
-6.84981e-05
-6.6062e-05
-6.36108e-05
-6.12762e-05
-5.89061e-05
-5.66553e-05
-5.43456e-05
-5.21595e-05
-4.98875e-05
-4.77454e-05
-4.54859e-05
-4.3365e-05
-4.10899e-05
-3.89648e-05
-3.66424e-05
-3.4485e-05
-3.20793e-05
-2.98579e-05
-2.73278e-05
-2.50063e-05
-2.23048e-05
-1.9841e-05
-1.69155e-05
-1.42633e-05
-1.10687e-05
-8.2143e-06
-4.82249e-06
-2.00252e-06
0.00107093
0.00100884
0.000906762
0.000762151
0.000585061
0.000396358
0.000218357
6.61115e-05
-5.47152e-05
-0.000144909
-0.000208168
-0.000249199
-0.000273157
-0.000285335
-0.000290461
-0.000292018
-0.000292042
-0.000291423
-0.000290372
-0.000288841
-0.000286745
-0.000284063
-0.000280821
-0.000277084
-0.000272921
-0.000268406
-0.000263596
-0.000258552
-0.000253321
-0.000247953
-0.000242482
-0.000236949
-0.000231375
-0.000225791
-0.000220207
-0.000214649
-0.00020912
-0.000203641
-0.000198211
-0.00019285
-0.000187553
-0.000182338
-0.000177198
-0.000172151
-0.000167186
-0.000162324
-0.000157548
-0.000152881
-0.000148303
-0.000143838
-0.000139463
-0.000135205
-0.000131034
-0.000126982
-0.000123015
-0.000119167
-0.0001154
-0.000111752
-0.00010818
-0.000104726
-0.00010134
-9.80719e-05
-9.48644e-05
-9.17732e-05
-8.87333e-05
-8.58086e-05
-8.29247e-05
-8.0155e-05
-7.74142e-05
-7.47869e-05
-7.2175e-05
-6.96764e-05
-6.7178e-05
-6.47934e-05
-6.23917e-05
-6.01051e-05
-5.77817e-05
-5.55756e-05
-5.33105e-05
-5.11663e-05
-4.89374e-05
-4.68344e-05
-4.46173e-05
-4.25328e-05
-4.03003e-05
-3.82091e-05
-3.59307e-05
-3.38045e-05
-3.14459e-05
-2.92526e-05
-2.6775e-05
-2.44782e-05
-2.18379e-05
-1.93953e-05
-1.65453e-05
-1.39138e-05
-1.08208e-05
-7.99867e-06
-4.74568e-06
-1.95036e-06
0.000976835
0.00091878
0.000829441
0.000707176
0.000558503
0.000397496
0.000241046
0.000102702
-1.05994e-05
-9.78748e-05
-0.000161596
-0.000205613
-0.000234139
-0.000251392
-0.000261222
-0.000266679
-0.000269759
-0.000271515
-0.000272354
-0.000272378
-0.000271596
-0.000270045
-0.000267789
-0.000264925
-0.000261543
-0.000257735
-0.000253567
-0.00024911
-0.000244414
-0.000239536
-0.000234512
-0.000229389
-0.000224189
-0.000218951
-0.000213685
-0.000208423
-0.000203168
-0.000197945
-0.000192754
-0.000187619
-0.000182533
-0.000177519
-0.000172567
-0.000167701
-0.000162906
-0.000158206
-0.000153585
-0.000149066
-0.000144629
-0.0001403
-0.000136054
-0.00013192
-0.000127868
-0.000123931
-0.000120074
-0.000116332
-0.000112667
-0.000109117
-0.000105638
-0.000102276
-9.89772e-05
-9.5794e-05
-9.26676e-05
-8.96553e-05
-8.66909e-05
-8.38397e-05
-8.10263e-05
-7.83251e-05
-7.56503e-05
-7.30869e-05
-7.05371e-05
-6.80981e-05
-6.56583e-05
-6.33294e-05
-6.09835e-05
-5.87488e-05
-5.64789e-05
-5.43214e-05
-5.21082e-05
-5.00093e-05
-4.78314e-05
-4.57707e-05
-4.36047e-05
-4.15596e-05
-3.93792e-05
-3.73245e-05
-3.51008e-05
-3.30081e-05
-3.07085e-05
-2.85458e-05
-2.61338e-05
-2.38646e-05
-2.13e-05
-1.88833e-05
-1.61245e-05
-1.35216e-05
-1.05454e-05
-7.76331e-06
-4.64836e-06
-1.86101e-06
0.000892969
0.000839083
0.000760417
0.000655887
0.000530057
0.000392632
0.000256072
0.000131665
2.65056e-05
-5.71103e-05
-0.000120355
-0.000166144
-0.000197919
-0.000219105
-0.000232834
-0.0002417
-0.000247555
-0.000251524
-0.000254152
-0.000255671
-0.000256173
-0.000255742
-0.000254473
-0.000252485
-0.000249885
-0.000246782
-0.000243255
-0.000239384
-0.000235223
-0.000230835
-0.00022626
-0.000221548
-0.000216727
-0.000211838
-0.000206894
-0.000201931
-0.000196954
-0.000191992
-0.000187044
-0.000182137
-0.000177266
-0.000172456
-0.000167696
-0.000163013
-0.000158391
-0.000153858
-0.000149394
-0.000145026
-0.000140732
-0.000136542
-0.000132428
-0.000128421
-0.000124491
-0.000120671
-0.000116926
-0.000113293
-0.000109731
-0.000106282
-0.0001029
-9.96309e-05
-9.64227e-05
-9.33263e-05
-9.02841e-05
-8.73527e-05
-8.44672e-05
-8.16915e-05
-7.89521e-05
-7.63214e-05
-7.37164e-05
-7.12188e-05
-6.8735e-05
-6.63575e-05
-6.39807e-05
-6.17093e-05
-5.94238e-05
-5.72429e-05
-5.50315e-05
-5.29244e-05
-5.07686e-05
-4.87168e-05
-4.6596e-05
-4.45793e-05
-4.2471e-05
-4.0467e-05
-3.83461e-05
-3.63297e-05
-3.41687e-05
-3.21118e-05
-2.98798e-05
-2.77506e-05
-2.54135e-05
-2.31763e-05
-2.0697e-05
-1.83131e-05
-1.56551e-05
-1.30915e-05
-1.02392e-05
-7.5067e-06
-4.5245e-06
-1.74562e-06
0.000817738
0.000767976
0.000698374
0.000608232
0.000500903
0.000383296
0.000264549
0.00015363
5.70542e-05
-2.21696e-05
-8.40958e-05
-0.000130675
-0.000164616
-0.000188722
-0.000205558
-0.000217306
-0.000225619
-0.000231609
-0.000235906
-0.000238838
-0.00024057
-0.000241227
-0.000240925
-0.000239801
-0.000237977
-0.000235573
-0.000232682
-0.000229392
-0.000225763
-0.000221865
-0.000217739
-0.000213441
-0.000209002
-0.000204464
-0.000199848
-0.000195188
-0.000190493
-0.000185796
-0.000181096
-0.000176423
-0.000171772
-0.00016717
-0.000162608
-0.000158111
-0.000153668
-0.000149304
-0.000145002
-0.000140789
-0.000136644
-0.000132595
-0.000128617
-0.00012474
-0.000120935
-0.000117235
-0.000113607
-0.000110085
-0.000106631
-0.000103285
-0.000100003
-9.68296e-05
-9.37151e-05
-9.07076e-05
-8.7753e-05
-8.49045e-05
-8.21012e-05
-7.94026e-05
-7.67408e-05
-7.4182e-05
-7.16503e-05
-6.92198e-05
-6.68058e-05
-6.4491e-05
-6.21809e-05
-5.99682e-05
-5.7747e-05
-5.5621e-05
-5.34723e-05
-5.14166e-05
-4.93225e-05
-4.73189e-05
-4.52597e-05
-4.32883e-05
-4.12425e-05
-3.92812e-05
-3.72249e-05
-3.52488e-05
-3.31557e-05
-3.11374e-05
-2.89783e-05
-2.68868e-05
-2.46296e-05
-2.24307e-05
-2.00411e-05
-1.76992e-05
-1.51455e-05
-1.26333e-05
-9.90489e-06
-7.23289e-06
-4.37671e-06
-1.6231e-06
0.000749797
0.000704017
0.000642211
0.000563959
0.000471803
0.000370798
0.000267682
0.000169405
8.15567e-05
7.33887e-06
-5.25027e-05
-9.90351e-05
-0.000134254
-0.000160411
-0.000179623
-0.000193718
-0.000204141
-0.000211933
-0.000217754
-0.000221998
-0.000224883
-0.000226573
-0.000227202
-0.000226918
-0.000225851
-0.000224134
-0.000221869
-0.000219151
-0.000216049
-0.000212636
-0.000208959
-0.000205075
-0.000201019
-0.000196836
-0.000192549
-0.000188197
-0.00018379
-0.000179361
-0.000174915
-0.000170479
-0.000166054
-0.000161664
-0.000157305
-0.000153
-0.00014874
-0.00014455
-0.000140415
-0.000136361
-0.000132369
-0.000128466
-0.000124629
-0.000120887
-0.000117212
-0.000113636
-0.000110128
-0.000106721
-0.00010338
-0.00010014
-9.69629e-05
-9.38877e-05
-9.0871e-05
-8.79552e-05
-8.50923e-05
-8.2329e-05
-7.96119e-05
-7.69927e-05
-7.44122e-05
-7.19273e-05
-6.94727e-05
-6.71112e-05
-6.47706e-05
-6.25202e-05
-6.02805e-05
-5.81279e-05
-5.59748e-05
-5.39051e-05
-5.18227e-05
-4.98199e-05
-4.77912e-05
-4.58375e-05
-4.38435e-05
-4.19193e-05
-3.99395e-05
-3.80232e-05
-3.60347e-05
-3.41022e-05
-3.20798e-05
-3.01044e-05
-2.80205e-05
-2.59725e-05
-2.37968e-05
-2.1644e-05
-1.9345e-05
-1.70552e-05
-1.46053e-05
-1.21563e-05
-9.54777e-06
-6.94787e-06
-4.21202e-06
-1.50884e-06
0.000688045
0.000646058
0.000591037
0.000522763
0.000443205
0.000356141
0.000266584
0.000179862
0.00010058
3.1783e-05
-2.5314e-05
-7.10676e-05
-0.000106813
-0.000134288
-0.000155221
-0.000171148
-0.000183312
-0.000192659
-0.000199837
-0.000205268
-0.000209213
-0.000211863
-0.000213369
-0.000213885
-0.000213549
-0.000212498
-0.000210841
-0.000208684
-0.000206099
-0.000203164
-0.000199931
-0.000196458
-0.000192784
-0.000188957
-0.000185002
-0.000180958
-0.000176842
-0.000172686
-0.000168496
-0.000164303
-0.000160108
-0.000155936
-0.000151784
-0.000147676
-0.000143605
-0.000139594
-0.000135631
-0.000131741
-0.000127907
-0.000124155
-0.000120464
-0.00011686
-0.000113321
-0.000109874
-0.000106492
-0.000103203
-9.99786e-05
-9.68488e-05
-9.37815e-05
-9.08085e-05
-8.78942e-05
-8.50734e-05
-8.23066e-05
-7.96317e-05
-7.70051e-05
-7.44682e-05
-7.19731e-05
-6.9565e-05
-6.71914e-05
-6.49015e-05
-6.2638e-05
-6.04546e-05
-5.82888e-05
-5.61989e-05
-5.41171e-05
-5.21063e-05
-5.00933e-05
-4.81461e-05
-4.61856e-05
-4.42847e-05
-4.23585e-05
-4.04848e-05
-3.85732e-05
-3.67058e-05
-3.47868e-05
-3.29026e-05
-3.09522e-05
-2.90253e-05
-2.70172e-05
-2.50196e-05
-2.29254e-05
-2.08272e-05
-1.86178e-05
-1.63905e-05
-1.4042e-05
-1.16672e-05
-9.17319e-06
-6.65649e-06
-4.03742e-06
-1.40941e-06
0.000631579
0.000593183
0.000544124
0.000484328
0.000415345
0.00034004
0.000262182
0.000185843
0.000114726
5.1545e-05
-2.2899e-06
-4.66315e-05
-8.22523e-05
-0.000110416
-0.000132497
-0.000149773
-0.000163309
-0.000173945
-0.000182288
-0.000188765
-0.00019366
-0.000197182
-0.000199496
-0.00020076
-0.000201115
-0.0002007
-0.00019963
-0.000198014
-0.000195932
-0.000193464
-0.000190666
-0.000187599
-0.000184304
-0.00018083
-0.000177206
-0.000173473
-0.000169649
-0.000165768
-0.000161839
-0.000157892
-0.000153931
-0.00014998
-0.00014604
-0.000142134
-0.000138256
-0.000134429
-0.000130644
-0.000126922
-0.000123253
-0.000119655
-0.000116116
-0.000112656
-0.000109258
-0.000105943
-0.000102692
-9.95264e-05
-9.64245e-05
-9.34093e-05
-9.04562e-05
-8.75897e-05
-8.47824e-05
-8.20608e-05
-7.93944e-05
-7.68119e-05
-7.42799e-05
-7.18291e-05
-6.94234e-05
-6.70956e-05
-6.48067e-05
-6.2592e-05
-6.04091e-05
-5.82962e-05
-5.62075e-05
-5.41839e-05
-5.21763e-05
-5.02282e-05
-4.82872e-05
-4.63995e-05
-4.45094e-05
-4.26654e-05
-4.08088e-05
-3.89902e-05
-3.71482e-05
-3.53348e-05
-3.34864e-05
-3.1656e-05
-2.97782e-05
-2.79063e-05
-2.59741e-05
-2.40344e-05
-2.2021e-05
-1.9986e-05
-1.78651e-05
-1.57095e-05
-1.34603e-05
-1.11687e-05
-8.78515e-06
-6.3614e-06
-3.85765e-06
-1.32408e-06
0.000579656
0.000544647
0.000500871
0.000448353
0.000388329
0.000322997
0.000255215
0.000188104
0.000124604
6.70352e-05
1.68194e-05
-2.55857e-05
-6.05169e-05
-8.88209e-05
-0.000111546
-0.000129731
-0.000144281
-0.000155928
-0.00016523
-0.000172596
-0.000178317
-0.000182612
-0.000185654
-0.000187602
-0.000188598
-0.000188781
-0.000188267
-0.000187169
-0.00018557
-0.000183553
-0.000181178
-0.000178508
-0.000175585
-0.00017246
-0.000169166
-0.000165742
-0.000162211
-0.000158605
-0.00015494
-0.000151241
-0.000147517
-0.000143792
-0.000140068
-0.000136367
-0.000132688
-0.000129049
-0.000125448
-0.000121899
-0.000118399
-0.000114962
-0.00011158
-0.000108268
-0.000105016
-0.000101839
-9.87239e-05
-9.56867e-05
-9.27118e-05
-8.98161e-05
-8.69819e-05
-8.42267e-05
-8.15309e-05
-7.89131e-05
-7.63516e-05
-7.3866e-05
-7.14325e-05
-6.90724e-05
-6.67597e-05
-6.45168e-05
-6.23161e-05
-6.01809e-05
-5.80818e-05
-5.60437e-05
-5.40351e-05
-5.20822e-05
-5.01515e-05
-4.82703e-05
-4.64038e-05
-4.458e-05
-4.27625e-05
-4.09802e-05
-3.9195e-05
-3.74366e-05
-3.56656e-05
-3.39117e-05
-3.21348e-05
-3.03643e-05
-2.85597e-05
-2.67495e-05
-2.48934e-05
-2.30188e-05
-2.10864e-05
-1.91223e-05
-1.70896e-05
-1.50137e-05
-1.28624e-05
-1.06617e-05
-8.38628e-06
-6.06341e-06
-3.67509e-06
-1.24892e-06
0.000531639
0.000499827
0.000460771
0.000414559
0.000362185
0.000305356
0.000246259
0.000187297
0.000130794
7.86825e-05
3.22877e-05
-7.7751e-06
-4.15358e-05
-6.94997e-05
-9.24214e-05
-0.000111119
-0.000126344
-0.000138731
-0.000148777
-0.000156864
-0.000163276
-0.000168234
-0.000171913
-0.000174472
-0.00017605
-0.000176783
-0.000176789
-0.000176177
-0.000175037
-0.000173451
-0.000171483
-0.000169196
-0.000166636
-0.000163854
-0.000160884
-0.000157767
-0.000154527
-0.000151198
-0.000147796
-0.000144347
-0.000140864
-0.000137367
-0.000133863
-0.000130372
-0.000126895
-0.00012345
-0.000120035
-0.000116666
-0.000113339
-0.000110068
-0.000106847
-0.00010369
-0.000100589
-9.75553e-05
-9.4581e-05
-9.16775e-05
-8.88345e-05
-8.60636e-05
-8.33529e-05
-8.07143e-05
-7.81344e-05
-7.56256e-05
-7.31729e-05
-7.07893e-05
-6.84585e-05
-6.61938e-05
-6.3978e-05
-6.18247e-05
-5.97156e-05
-5.76648e-05
-5.56527e-05
-5.36942e-05
-5.17686e-05
-4.9891e-05
-4.80399e-05
-4.62306e-05
-4.44408e-05
-4.26861e-05
-4.09432e-05
-3.92277e-05
-3.75157e-05
-3.58228e-05
-3.41244e-05
-3.24356e-05
-3.07318e-05
-2.9027e-05
-2.72969e-05
-2.55545e-05
-2.37757e-05
-2.19727e-05
-2.01223e-05
-1.82359e-05
-1.62921e-05
-1.43026e-05
-1.22494e-05
-1.01456e-05
-7.97815e-06
-5.76225e-06
-3.49056e-06
-1.1798e-06
0.000486972
0.000458188
0.000423389
0.000382691
0.000336904
0.000287363
0.000235764
0.000183974
0.000133828
8.69154e-05
4.44098e-05
6.97623e-06
-2.52209e-05
-5.24278e-05
-7.51489e-05
-9.40003e-05
-0.000109589
-0.000122451
-0.000133025
-0.000141658
-0.00014862
-0.000154123
-0.000158341
-0.000161429
-0.000163522
-0.000164751
-0.00016523
-0.000165069
-0.000164358
-0.000163179
-0.000161598
-0.000159678
-0.000157469
-0.00015502
-0.000152367
-0.000149552
-0.0001466
-0.000143545
-0.000140406
-0.000137209
-0.000133967
-0.000130701
-0.00012742
-0.000124142
-0.000120872
-0.000117624
-0.000114401
-0.000111215
-0.000108067
-0.000104967
-0.000101913
-9.89152e-05
-9.59697e-05
-9.30853e-05
-9.02568e-05
-8.74926e-05
-8.47863e-05
-8.21457e-05
-7.95633e-05
-7.70466e-05
-7.45872e-05
-7.21926e-05
-6.98533e-05
-6.75768e-05
-6.53527e-05
-6.31887e-05
-6.10736e-05
-5.9015e-05
-5.70011e-05
-5.50396e-05
-5.31179e-05
-5.12439e-05
-4.94044e-05
-4.76072e-05
-4.58385e-05
-4.4106e-05
-4.23957e-05
-4.07149e-05
-3.90491e-05
-3.74055e-05
-3.57691e-05
-3.41468e-05
-3.25233e-05
-3.09049e-05
-2.92762e-05
-2.76426e-05
-2.5989e-05
-2.43201e-05
-2.26207e-05
-2.08951e-05
-1.91288e-05
-1.73257e-05
-1.5473e-05
-1.35751e-05
-1.16218e-05
-9.6195e-06
-7.56151e-06
-5.45721e-06
-3.304e-06
-1.11358e-06
0.000445146
0.000419247
0.000388327
0.000352509
0.000312447
0.000269192
0.000224082
0.000178592
0.000134183
9.21461e-05
5.34905e-05
1.88628e-05
-1.14672e-05
-3.75643e-05
-5.97336e-05
-7.84141e-05
-9.40772e-05
-0.000107165
-0.000118056
-0.000127059
-0.000134422
-0.000140347
-0.000145
-0.000148528
-0.000151062
-0.000152724
-0.000153628
-0.000153876
-0.000153559
-0.000152758
-0.00015154
-0.000149969
-0.000148094
-0.000145966
-0.000143621
-0.0001411
-0.000138433
-0.000135649
-0.000132772
-0.000129825
-0.000126825
-0.000123792
-0.000120736
-0.000117674
-0.000114613
-0.000111567
-0.00010854
-0.000105542
-0.000102577
-9.96529e-05
-9.67706e-05
-9.39376e-05
-9.11528e-05
-8.84229e-05
-8.57453e-05
-8.3126e-05
-8.05613e-05
-7.80566e-05
-7.56072e-05
-7.32181e-05
-7.08838e-05
-6.86089e-05
-6.63874e-05
-6.42234e-05
-6.21103e-05
-6.00522e-05
-5.80418e-05
-5.60831e-05
-5.41683e-05
-5.23011e-05
-5.04735e-05
-4.8689e-05
-4.6939e-05
-4.52271e-05
-4.35441e-05
-4.18933e-05
-4.02655e-05
-3.86635e-05
-3.70779e-05
-3.5511e-05
-3.39531e-05
-3.24063e-05
-3.08605e-05
-2.93173e-05
-2.77666e-05
-2.62093e-05
-2.46351e-05
-2.30446e-05
-2.14276e-05
-1.97845e-05
-1.81052e-05
-1.63906e-05
-1.46317e-05
-1.28302e-05
-1.09792e-05
-9.08268e-06
-7.13648e-06
-5.14751e-06
-3.11501e-06
-1.04821e-06
0.00040572
0.000382539
0.000355187
0.000323767
0.000288742
0.000250949
0.00021148
0.000171531
0.000132273
9.47566e-05
5.98312e-05
2.80888e-05
-1.57855e-07
-2.48591e-05
-4.61721e-05
-6.43893e-05
-7.9861e-05
-9.29393e-05
-0.000103941
-0.000113138
-0.000120752
-0.000126969
-0.000131946
-0.000135819
-0.000138712
-0.000140741
-0.000142011
-0.000142621
-0.000142659
-0.000142203
-0.000141322
-0.000140077
-0.000138519
-0.000136696
-0.000134649
-0.000132414
-0.000130024
-0.000127507
-0.000124889
-0.000122192
-0.000119434
-0.000116634
-0.000113805
-0.000110962
-0.000108114
-0.000105272
-0.000102445
-9.964e-05
-9.68624e-05
-9.41195e-05
-9.14135e-05
-8.87507e-05
-8.61318e-05
-8.35618e-05
-8.10403e-05
-7.85714e-05
-7.61535e-05
-7.37902e-05
-7.1479e-05
-6.92229e-05
-6.70187e-05
-6.48691e-05
-6.27701e-05
-6.07239e-05
-5.87264e-05
-5.67794e-05
-5.48782e-05
-5.30244e-05
-5.12129e-05
-4.94451e-05
-4.77155e-05
-4.60254e-05
-4.43689e-05
-4.2747e-05
-4.11534e-05
-3.9589e-05
-3.80474e-05
-3.65289e-05
-3.50268e-05
-3.35413e-05
-3.20653e-05
-3.05987e-05
-2.9134e-05
-2.76708e-05
-2.62014e-05
-2.4725e-05
-2.32337e-05
-2.17265e-05
-2.01954e-05
-1.86394e-05
-1.70509e-05
-1.54292e-05
-1.37676e-05
-1.20667e-05
-1.03214e-05
-8.53433e-06
-6.70283e-06
-4.83247e-06
-2.92311e-06
-9.8249e-07
0.00036844
0.000347586
0.000323601
0.000296218
0.000265667
0.000232668
0.000198152
0.0001631
0.000128462
9.50997e-05
6.37263e-05
3.48658e-05
8.83394e-06
-1.42558e-05
-3.44598e-05
-5.19571e-05
-6.6995e-05
-7.98431e-05
-9.07597e-05
-9.99755e-05
-0.000107688
-0.000114064
-0.000119248
-0.000123365
-0.000126529
-0.000128848
-0.00013042
-0.000131338
-0.000131685
-0.000131537
-0.000130961
-0.000130016
-0.000128753
-0.000127219
-0.000125454
-0.000123494
-0.000121373
-0.000119118
-0.000116754
-0.000114304
-0.000111787
-0.000109221
-0.00010662
-0.000103998
-0.000101365
-9.87328e-05
-9.61085e-05
-9.3501e-05
-9.09154e-05
-8.83586e-05
-8.58338e-05
-8.33467e-05
-8.08989e-05
-7.84945e-05
-7.61344e-05
-7.38216e-05
-7.15559e-05
-6.93398e-05
-6.71721e-05
-6.50547e-05
-6.29858e-05
-6.09669e-05
-5.89955e-05
-5.70727e-05
-5.51956e-05
-5.33651e-05
-5.15778e-05
-4.98341e-05
-4.81304e-05
-4.6467e-05
-4.48399e-05
-4.3249e-05
-4.16902e-05
-4.0163e-05
-3.8663e-05
-3.71897e-05
-3.57382e-05
-3.43078e-05
-3.28932e-05
-3.14936e-05
-3.01034e-05
-2.87214e-05
-2.73418e-05
-2.5963e-05
-2.45789e-05
-2.31879e-05
-2.17835e-05
-2.0364e-05
-1.89229e-05
-1.74585e-05
-1.59647e-05
-1.44403e-05
-1.28799e-05
-1.12837e-05
-9.64752e-06
-7.97365e-06
-6.2601e-06
-4.51149e-06
-2.72798e-06
-9.15887e-07
0.000325281
0.00030765
0.000287707
0.000264626
0.000238805
0.000210908
0.000181657
0.000151808
0.000122115
9.32741e-05
6.58698e-05
4.03492e-05
1.70087e-05
-4.00266e-06
-2.26645e-05
-3.90582e-05
-5.33329e-05
-6.56738e-05
-7.62741e-05
-8.53183e-05
-9.29716e-05
-9.93794e-05
-0.000104668
-0.000108949
-0.000112325
-0.000114891
-0.000116739
-0.000117951
-0.000118605
-0.000118771
-0.000118512
-0.000117886
-0.000116942
-0.000115726
-0.000114275
-0.000112627
-0.000110811
-0.000108857
-0.000106789
-0.000104628
-0.000102395
-0.000100105
-9.77747e-05
-9.54167e-05
-9.3042e-05
-9.06612e-05
-8.82825e-05
-8.59141e-05
-8.35618e-05
-8.12318e-05
-7.89283e-05
-7.66562e-05
-7.44179e-05
-7.2217e-05
-7.00551e-05
-6.79347e-05
-6.58565e-05
-6.38221e-05
-6.18315e-05
-5.98858e-05
-5.79842e-05
-5.61274e-05
-5.4314e-05
-5.25444e-05
-5.08167e-05
-4.91309e-05
-4.74849e-05
-4.58783e-05
-4.43087e-05
-4.27754e-05
-4.12756e-05
-3.98086e-05
-3.83713e-05
-3.69625e-05
-3.5579e-05
-3.42194e-05
-3.28803e-05
-3.156e-05
-3.02546e-05
-2.89624e-05
-2.76793e-05
-2.64032e-05
-2.51297e-05
-2.38565e-05
-2.2579e-05
-2.12948e-05
-1.99989e-05
-1.8689e-05
-1.73599e-05
-1.60098e-05
-1.46337e-05
-1.32301e-05
-1.17949e-05
-1.03279e-05
-8.82617e-06
-7.29122e-06
-5.72201e-06
-4.12194e-06
-2.49165e-06
-8.35694e-07
0.000280991
0.00026553
0.000247833
0.000228607
0.000207684
0.000185119
0.000161299
0.000136791
0.000112208
8.81198e-05
6.50075e-05
4.32416e-05
2.3081e-05
4.67984e-06
-1.19e-05
-2.66729e-05
-3.97106e-05
-5.11231e-05
-6.10398e-05
-6.95944e-05
-7.69147e-05
-8.31182e-05
-8.83098e-05
-9.25851e-05
-9.60315e-05
-9.87319e-05
-0.000100764
-0.0001022
-0.00010311
-0.000103556
-0.000103595
-0.00010328
-0.000102657
-0.000101769
-0.000100652
-9.93392e-05
-9.78602e-05
-9.62419e-05
-9.45074e-05
-9.2678e-05
-9.07719e-05
-8.88059e-05
-8.67941e-05
-8.47494e-05
-8.26827e-05
-8.06041e-05
-7.85217e-05
-7.64432e-05
-7.43748e-05
-7.23222e-05
-7.02898e-05
-6.82821e-05
-6.63021e-05
-6.43528e-05
-6.24363e-05
-6.05549e-05
-5.87096e-05
-5.69017e-05
-5.51318e-05
-5.34007e-05
-5.1708e-05
-5.00544e-05
-4.84389e-05
-4.68615e-05
-4.53212e-05
-4.38176e-05
-4.23492e-05
-4.09153e-05
-3.95142e-05
-3.8145e-05
-3.68057e-05
-3.54952e-05
-3.4211e-05
-3.2952e-05
-3.17155e-05
-3.05001e-05
-2.93028e-05
-2.81221e-05
-2.69547e-05
-2.57988e-05
-2.46511e-05
-2.35095e-05
-2.23702e-05
-2.12312e-05
-2.00884e-05
-1.89397e-05
-1.77809e-05
-1.66098e-05
-1.54222e-05
-1.42163e-05
-1.29882e-05
-1.17364e-05
-1.04578e-05
-9.15213e-06
-7.81733e-06
-6.4545e-06
-5.06317e-06
-3.64584e-06
-2.2032e-06
-7.38561e-07
0.00023088
0.000218913
0.000206158
0.000191701
0.000175507
0.000157778
0.000138861
0.000119217
9.93511e-05
7.97402e-05
6.078e-05
4.27729e-05
2.59325e-05
1.0394e-05
-3.77193e-06
-1.65488e-05
-2.79624e-05
-3.80705e-05
-4.6951e-05
-5.46921e-05
-6.13844e-05
-6.71157e-05
-7.19684e-05
-7.60199e-05
-7.93427e-05
-8.20054e-05
-8.40726e-05
-8.56057e-05
-8.66624e-05
-8.72968e-05
-8.75589e-05
-8.74946e-05
-8.7145e-05
-8.65476e-05
-8.57355e-05
-8.4739e-05
-8.35847e-05
-8.22969e-05
-8.0897e-05
-7.94041e-05
-7.78354e-05
-7.62059e-05
-7.45291e-05
-7.28167e-05
-7.10791e-05
-6.93255e-05
-6.75637e-05
-6.58007e-05
-6.40425e-05
-6.22944e-05
-6.05606e-05
-5.88454e-05
-5.71516e-05
-5.54821e-05
-5.3839e-05
-5.22245e-05
-5.06397e-05
-4.90858e-05
-4.75636e-05
-4.60738e-05
-4.46164e-05
-4.31918e-05
-4.17994e-05
-4.04394e-05
-3.91108e-05
-3.78133e-05
-3.65459e-05
-3.53079e-05
-3.40979e-05
-3.29151e-05
-3.17578e-05
-3.06252e-05
-2.95151e-05
-2.84265e-05
-2.73572e-05
-2.63059e-05
-2.52702e-05
-2.42486e-05
-2.32384e-05
-2.22381e-05