/*--------------------------------*- C++ -*----------------------------------*\
| =========                 |                                                 |
| \\      /  F ield         | OpenFOAM: The Open Source CFD Toolbox           |
|  \\    /   O peration     | Version:  2.3.0                                 |
|   \\  /    A nd           | Web:      www.OpenFOAM.org                      |
|    \\/     M anipulation  |                                                 |
\*---------------------------------------------------------------------------*/
FoamFile
{
    version     2.0;
    format      ascii;
    class       surfaceScalarField;
    location    "1";
    object      phi_0;
}
// * * * * * * * * * * * * * * * * * * * * * * * * * * * * * * * * * * * * * //

dimensions      [0 3 -1 0 0 0 0];

internalField   nonuniform List<scalar> 
6068
(
2.91043e-08
2.73932e-09
-3.18436e-08
2.56758e-08
3.42849e-09
2.22597e-08
3.4161e-09
1.90907e-08
3.16902e-09
1.62029e-08
2.88784e-09
1.36682e-08
2.53466e-09
1.15757e-08
2.09251e-09
9.94485e-09
1.63085e-09
8.74338e-09
1.20147e-09
7.89067e-09
8.52703e-10
7.29197e-09
5.987e-10
6.86467e-09
4.27305e-10
6.54674e-09
3.17934e-10
6.29513e-09
2.51603e-10
6.08124e-09
2.1389e-10
5.88832e-09
1.92926e-10
5.70816e-09
1.80156e-10
5.5376e-09
1.70562e-10
5.37587e-09
1.61732e-10
5.22303e-09
1.52833e-10
5.07925e-09
1.4378e-10
4.94446e-09
1.34798e-10
4.81833e-09
1.2613e-10
4.70034e-09
1.17989e-10
4.58986e-09
1.10476e-10
4.48622e-09
1.03645e-10
4.38876e-09
9.74604e-11
4.29686e-09
9.18914e-11
4.21001e-09
8.68532e-11
4.12771e-09
8.23006e-11
4.04956e-09
7.81479e-11
3.9752e-09
7.43646e-11
3.90432e-09
7.08765e-11
3.83665e-09
6.76729e-11
3.77196e-09
6.46897e-11
3.71003e-09
6.19337e-11
3.65068e-09
5.9346e-11
3.59373e-09
5.69471e-11
3.53905e-09
5.46793e-11
3.48648e-09
5.25743e-11
3.43591e-09
5.05721e-11
3.38719e-09
4.87146e-11
3.34025e-09
4.69369e-11
3.29496e-09
4.52909e-11
3.25126e-09
4.37047e-11
3.20902e-09
4.22411e-11
3.1682e-09
4.08193e-11
3.12868e-09
3.95141e-11
3.09045e-09
3.82339e-11
3.05338e-09
3.70671e-11
3.01747e-09
3.59091e-11
2.98261e-09
3.48639e-11
2.9488e-09
3.38116e-11
2.91593e-09
3.2874e-11
2.88401e-09
3.19132e-11
2.85294e-09
3.10716e-11
2.82275e-09
3.01901e-11
2.79332e-09
2.94347e-11
2.76469e-09
2.86218e-11
2.73675e-09
2.79448e-11
2.70956e-09
2.71909e-11
2.68297e-09
2.6586e-11
2.65709e-09
2.58825e-11
2.63175e-09
2.53443e-11
2.60706e-09
2.46835e-11
2.58285e-09
2.42081e-11
2.55927e-09
2.35824e-11
2.5361e-09
2.31671e-11
2.51353e-09
2.25697e-11
2.49132e-09
2.22127e-11
2.46969e-09
2.16367e-11
2.44835e-09
2.13375e-11
2.42757e-09
2.07759e-11
2.40704e-09
2.05352e-11
2.38706e-09
1.9981e-11
2.36726e-09
1.98007e-11
2.34801e-09
1.92464e-11
2.32888e-09
1.91301e-11
2.31031e-09
1.85675e-11
2.29179e-09
1.85205e-11
2.27385e-09
1.79403e-11
2.25588e-09
1.797e-11
2.23852e-09
1.73616e-11
2.22104e-09
1.74782e-11
2.20421e-09
1.6829e-11
2.18717e-09
1.7046e-11
2.17082e-09
1.63408e-11
2.15415e-09
1.66763e-11
2.13825e-09
1.5896e-11
2.12188e-09
1.63742e-11
2.10638e-09
1.54949e-11
2.09023e-09
1.61491e-11
2.0751e-09
1.51387e-11
2.05908e-09
1.60157e-11
2.04425e-09
1.48307e-11
2.02825e-09
1.60015e-11
2.01367e-09
1.45774e-11
1.99749e-09
1.61843e-11
1.98301e-09
1.44725e-11
1.87823e-11
3.43482e-08
2.45644e-09
-3.40654e-08
3.41823e-08
3.59446e-09
3.35028e-08
4.09557e-09
3.25377e-08
4.13414e-09
3.14014e-08
4.02407e-09
3.01225e-08
3.81358e-09
2.87303e-08
3.48474e-09
2.72981e-08
3.06306e-09
2.58979e-08
2.60168e-09
2.45818e-08
2.16877e-09
2.33732e-08
1.80735e-09
2.22748e-08
1.52563e-09
2.12827e-08
1.31011e-09
2.0392e-08
1.14227e-09
1.95923e-08
1.01363e-09
1.88719e-08
9.13324e-10
1.82198e-08
8.32272e-10
1.76262e-08
7.64164e-10
1.70828e-08
7.05056e-10
1.6583e-08
6.52679e-10
1.61211e-08
6.057e-10
1.56925e-08
5.63375e-10
1.52934e-08
5.25172e-10
1.49207e-08
4.90734e-10
1.45715e-08
4.59691e-10
1.42434e-08
4.31745e-10
1.39343e-08
4.06526e-10
1.36425e-08
3.83754e-10
1.33662e-08
3.63091e-10
1.31042e-08
3.44314e-10
1.28552e-08
3.27136e-10
1.26182e-08
3.11409e-10
1.23922e-08
2.96899e-10
1.21763e-08
2.83522e-10
1.19699e-08
2.71086e-10
1.17723e-08
2.59558e-10
1.15829e-08
2.48772e-10
1.14011e-08
2.38735e-10
1.12265e-08
2.29294e-10
1.10585e-08
2.20485e-10
1.0897e-08
2.12161e-10
1.07413e-08
2.04383e-10
1.05912e-08
1.97e-10
1.04464e-08
1.90098e-10
1.03066e-08
1.83516e-10
1.01715e-08
1.77366e-10
1.00408e-08
1.7147e-10
9.91437e-09
1.65968e-10
9.79194e-09
1.60665e-10
9.67328e-09
1.55727e-10
9.55825e-09
1.50937e-10
9.44663e-09
1.46492e-10
9.33829e-09
1.42148e-10
9.23303e-09
1.38137e-10
9.13076e-09
1.34183e-10
9.03127e-09
1.30557e-10
8.93452e-09
1.26943e-10
8.84029e-09
1.2366e-10
8.74857e-09
1.20345e-10
8.65915e-09
1.17369e-10
8.57202e-09
1.14318e-10
8.48698e-09
1.1162e-10
8.40407e-09
1.088e-10
8.32306e-09
1.06355e-10
8.244e-09
1.03737e-10
8.16668e-09
1.01525e-10
8.09118e-09
9.90834e-11
8.01726e-09
9.7087e-11
7.94503e-09
9.47988e-11
7.87424e-09
9.30048e-11
7.80503e-09
9.08481e-11
7.73712e-09
8.92464e-11
7.6707e-09
8.72009e-11
7.60545e-09
8.57848e-11
7.5416e-09
8.38311e-11
7.4788e-09
8.25972e-11
7.41733e-09
8.07161e-11
7.3568e-09
7.96646e-11
7.29753e-09
7.78371e-11
7.23908e-09
7.69723e-11
7.18184e-09
7.51787e-11
7.1253e-09
7.45092e-11
7.06993e-09
7.27283e-11
7.01514e-09
7.22683e-11
6.96149e-09
7.04775e-11
6.90829e-09
7.02474e-11
6.85621e-09
6.84211e-11
6.80444e-09
6.84497e-11
6.75377e-09
6.65589e-11
6.70326e-09
6.68853e-11
6.65386e-09
6.48966e-11
6.60444e-09
6.5574e-11
6.55613e-09
6.34487e-11
6.50759e-09
6.45493e-11
6.46018e-09
6.22441e-11
6.41231e-09
6.38715e-11
6.36554e-09
6.13432e-11
6.31798e-09
6.37476e-11
6.27127e-09
6.1186e-11
6.80606e-11
3.58508e-08
2.32508e-09
-3.57194e-08
3.6237e-08
3.20823e-09
3.64696e-08
3.86297e-09
3.65176e-08
4.08611e-09
3.64459e-08
4.09575e-09
3.62541e-08
4.0054e-09
3.59155e-08
3.82332e-09
3.54342e-08
3.54438e-09
3.4839e-08
3.19692e-09
3.41709e-08
2.83687e-09
3.34652e-08
2.51305e-09
3.27446e-08
2.24616e-09
3.20226e-08
2.03216e-09
3.13064e-08
1.8585e-09
3.06031e-08
1.71685e-09
2.99171e-08
1.59932e-09
2.92506e-08
1.49882e-09
2.86046e-08
1.41014e-09
2.79798e-08
1.32982e-09
2.73766e-08
1.2559e-09
2.67951e-08
1.18721e-09
2.62353e-08
1.12319e-09
2.5697e-08
1.06346e-09
2.51799e-08
1.00783e-09
2.46835e-08
9.56069e-10
2.42073e-08
9.0802e-10
2.37504e-08
8.63401e-10
2.33121e-08
8.22017e-10
2.28917e-08
7.83559e-10
2.24881e-08
7.47841e-10
2.21007e-08
7.14563e-10
2.17285e-08
6.83576e-10
2.13708e-08
6.54609e-10
2.10268e-08
6.2756e-10
2.06957e-08
6.02183e-10
2.03768e-08
5.78425e-10
2.00695e-08
5.56058e-10
1.97732e-08
5.35071e-10
1.94872e-08
5.15248e-10
1.92111e-08
4.96614e-10
1.89443e-08
4.7896e-10
1.86864e-08
4.6234e-10
1.84368e-08
4.46547e-10
1.81952e-08
4.31664e-10
1.79613e-08
4.17477e-10
1.77345e-08
4.04102e-10
1.75147e-08
3.9131e-10
1.73014e-08
3.79249e-10
1.70944e-08
3.67676e-10
1.68934e-08
3.56768e-10
1.66981e-08
3.46262e-10
1.65082e-08
3.3637e-10
1.63235e-08
3.26804e-10
1.61438e-08
3.17812e-10
1.59689e-08
3.09077e-10
1.57986e-08
3.00886e-10
1.56327e-08
2.92887e-10
1.54709e-08
2.85413e-10
1.53132e-08
2.78069e-10
1.51593e-08
2.71238e-10
1.50092e-08
2.64477e-10
1.48626e-08
2.58227e-10
1.47194e-08
2.51987e-10
1.45795e-08
2.46263e-10
1.44427e-08
2.40489e-10
1.4309e-08
2.35245e-10
1.41782e-08
2.29887e-10
1.40502e-08
2.25081e-10
1.39249e-08
2.20097e-10
1.38022e-08
2.15696e-10
1.3682e-08
2.11045e-10
1.35642e-08
2.0702e-10
1.34488e-08
2.02668e-10
1.33356e-08
1.98996e-10
1.32245e-08
1.94909e-10
1.31155e-08
1.91571e-10
1.30085e-08
1.87722e-10
1.29035e-08
1.84704e-10
1.28002e-08
1.81065e-10
1.26988e-08
1.7836e-10
1.25991e-08
1.74906e-10
1.25011e-08
1.72511e-10
1.24046e-08
1.69219e-10
1.23098e-08
1.67136e-10
1.22162e-08
1.63987e-10
1.21243e-08
1.62226e-10
1.20335e-08
1.59198e-10
1.19442e-08
1.57779e-10
1.18559e-08
1.54857e-10
1.17689e-08
1.53807e-10
1.16829e-08
1.50977e-10
1.15981e-08
1.50336e-10
1.1514e-08
1.47593e-10
1.14311e-08
1.47422e-10
1.13486e-08
1.44767e-10
1.12673e-08
1.45175e-10
1.1186e-08
1.42611e-10
1.11057e-08
1.44038e-10
1.10251e-08
1.41826e-10
1.4838e-10
3.73869e-08
2.27482e-09
-3.73366e-08
3.76773e-08
2.91787e-09
3.80255e-08
3.51473e-09
3.82938e-08
3.81785e-09
3.84996e-08
3.88994e-09
3.86583e-08
3.84665e-09
3.87493e-08
3.73235e-09
3.87487e-08
3.54498e-09
3.865e-08
3.29562e-09
3.84675e-08
3.01938e-09
3.82235e-08
2.75701e-09
3.79373e-08
2.53238e-09
3.762e-08
2.34942e-09
3.72776e-08
2.20089e-09
3.6916e-08
2.0785e-09
3.65397e-08
1.97559e-09
3.61519e-08
1.88663e-09
3.57547e-08
1.80737e-09
3.53497e-08
1.73478e-09
3.49386e-08
1.667e-09
3.45229e-08
1.6029e-09
3.41042e-08
1.54195e-09
3.36838e-08
1.48381e-09
3.32633e-08
1.42837e-09
3.28438e-08
1.37552e-09
3.24266e-08
1.32522e-09
3.20127e-08
1.27732e-09
3.1603e-08
1.23178e-09
3.11981e-08
1.1884e-09
3.07988e-08
1.14713e-09
3.04056e-08
1.10777e-09
3.00189e-08
1.07027e-09
2.96391e-08
1.03446e-09
2.92663e-08
1.00031e-09
2.89008e-08
9.67651e-10
2.85428e-08
9.36477e-10
2.81922e-08
9.06628e-10
2.78492e-08
8.78125e-10
2.75136e-08
8.50807e-10
2.71855e-08
8.24715e-10
2.68648e-08
7.99686e-10
2.65513e-08
7.75778e-10
2.62451e-08
7.52826e-10
2.59458e-08
7.309e-10
2.56535e-08
7.09832e-10
2.53679e-08
6.89707e-10
2.50888e-08
6.70349e-10
2.48162e-08
6.51858e-10
2.45498e-08
6.34053e-10
2.42896e-08
6.17047e-10
2.40352e-08
6.00652e-10
2.37865e-08
5.84995e-10
2.35435e-08
5.69879e-10
2.33058e-08
5.55449e-10
2.30734e-08
5.41497e-10
2.28461e-08
5.28181e-10
2.26237e-08
5.15288e-10
2.24061e-08
5.02988e-10
2.21932e-08
4.91058e-10
2.19847e-08
4.79684e-10
2.17806e-08
4.68633e-10
2.15807e-08
4.58103e-10
2.13848e-08
4.47855e-10
2.1193e-08
4.38097e-10
2.10049e-08
4.28583e-10
2.08206e-08
4.19531e-10
2.06398e-08
4.10689e-10
2.04626e-08
4.02286e-10
2.02886e-08
3.94062e-10
2.01181e-08
3.86253e-10
1.99505e-08
3.78599e-10
1.97862e-08
3.71338e-10
1.96247e-08
3.64211e-10
1.94662e-08
3.57457e-10
1.93103e-08
3.50818e-10
1.91573e-08
3.44534e-10
1.90067e-08
3.38354e-10
1.88589e-08
3.32507e-10
1.87132e-08
3.26758e-10
1.85702e-08
3.21321e-10
1.84292e-08
3.15984e-10
1.82907e-08
3.10935e-10
1.8154e-08
3.05995e-10
1.80198e-08
3.01316e-10
1.7887e-08
2.96765e-10
1.77568e-08
2.92445e-10
1.76277e-08
2.88283e-10
1.75012e-08
2.84318e-10
1.73755e-08
2.80553e-10
1.72523e-08
2.76948e-10
1.71297e-08
2.73602e-10
1.70097e-08
2.70379e-10
1.68898e-08
2.6748e-10
1.67725e-08
2.64698e-10
1.6655e-08
2.62272e-10
1.65401e-08
2.601e-10
1.64245e-08
2.58131e-10
1.63113e-08
2.57265e-10
1.61971e-08
2.56001e-10
2.60053e-10
3.89782e-08
2.22518e-09
-3.89285e-08
3.91776e-08
2.71843e-09
3.94845e-08
3.2078e-09
3.9773e-08
3.52941e-09
4.00144e-08
3.64849e-09
4.02256e-08
3.63542e-09
4.04076e-08
3.55038e-09
4.05428e-08
3.40978e-09
4.06169e-08
3.22158e-09
4.06302e-08
3.00606e-09
4.05955e-08
2.7917e-09
4.05268e-08
2.60106e-09
4.0433e-08
2.4432e-09
4.03187e-08
2.31527e-09
4.01868e-08
2.21032e-09
4.00401e-08
2.12235e-09
3.988e-08
2.04673e-09
3.97074e-08
1.97997e-09
3.95227e-08
1.91943e-09
3.93264e-08
1.86335e-09
3.91187e-08
1.81053e-09
3.89004e-08
1.76033e-09
3.86719e-08
1.71229e-09
3.8434e-08
1.66624e-09
3.81875e-08
1.622e-09
3.79333e-08
1.5795e-09
3.7672e-08
1.5386e-09
3.74045e-08
1.49925e-09
3.71316e-08
1.4613e-09
3.6854e-08
1.42469e-09
3.65725e-08
1.3893e-09
3.62877e-08
1.35507e-09
3.60003e-08
1.32189e-09
3.57109e-08
1.28975e-09
3.542e-08
1.25854e-09
3.51282e-08
1.22826e-09
3.4836e-08
1.19884e-09
3.45438e-08
1.17026e-09
3.42522e-08
1.14249e-09
3.39614e-08
1.11551e-09
3.36718e-08
1.08928e-09
3.33837e-08
1.0638e-09
3.30975e-08
1.03905e-09
3.28134e-08
1.015e-09
3.25316e-08
9.91651e-10
3.22523e-08
9.68965e-10
3.19757e-08
9.46953e-10
3.1702e-08
9.25567e-10
3.14312e-08
9.04834e-10
3.11636e-08
8.84684e-10
3.08991e-08
8.65171e-10
3.06379e-08
8.46194e-10
3.03799e-08
8.27842e-10
3.01254e-08
8.09978e-10
2.98742e-08
7.92729e-10
2.96264e-08
7.75915e-10
2.9382e-08
7.59714e-10
2.91411e-08
7.43889e-10
2.89035e-08
7.28681e-10
2.86694e-08
7.13786e-10
2.84385e-08
6.99518e-10
2.82111e-08
6.85494e-10
2.79868e-08
6.72117e-10
2.7766e-08
6.58906e-10
2.75482e-08
6.46372e-10
2.73338e-08
6.33919e-10
2.71224e-08
6.22185e-10
2.69142e-08
6.10435e-10
2.67088e-08
5.99464e-10
2.65067e-08
5.88365e-10
2.63072e-08
5.78121e-10
2.61109e-08
5.67623e-10
2.5917e-08
5.58076e-10
2.57263e-08
5.48132e-10
2.55379e-08
5.39257e-10
2.53526e-08
5.29821e-10
2.51694e-08
5.21602e-10
2.49892e-08
5.12629e-10
2.4811e-08
5.05055e-10
2.46358e-08
4.96504e-10
2.44622e-08
4.89571e-10
2.42917e-08
4.81404e-10
2.41226e-08
4.75119e-10
2.39566e-08
4.673e-10
2.37917e-08
4.61678e-10
2.363e-08
4.54177e-10
2.3469e-08
4.49244e-10
2.33113e-08
4.42039e-10
2.3154e-08
4.37832e-10
2.3e-08
4.30917e-10
2.28461e-08
4.27482e-10
2.26956e-08
4.20882e-10
2.25449e-08
4.18263e-10
2.23975e-08
4.12071e-10
2.22495e-08
4.10286e-10
2.21048e-08
4.04764e-10
2.19592e-08
4.03787e-10
2.18166e-08
3.99783e-10
2.16727e-08
3.99902e-10
4.00041e-10
4.05972e-08
2.16537e-09
-4.05374e-08
4.07501e-08
2.56551e-09
4.10001e-08
2.95784e-09
4.12673e-08
3.26218e-09
4.15043e-08
3.41152e-09
4.17099e-08
3.42984e-09
4.1892e-08
3.36822e-09
4.20448e-08
3.25705e-09
4.21574e-08
3.10896e-09
4.22266e-08
2.93685e-09
4.2259e-08
2.75929e-09
4.22653e-08
2.59476e-09
4.22541e-08
2.45438e-09
4.22303e-08
2.33914e-09
4.21962e-08
2.24441e-09
4.21535e-08
2.16504e-09
4.21032e-08
2.09701e-09
4.20458e-08
2.03739e-09
4.19812e-08
1.984e-09
4.19093e-08
1.93526e-09
4.18298e-08
1.89004e-09
4.17425e-08
1.84759e-09
4.16474e-08
1.80744e-09
4.15443e-08
1.76927e-09
4.14335e-08
1.73286e-09
4.1315e-08
1.69803e-09
4.11889e-08
1.66467e-09
4.10555e-08
1.63262e-09
4.0915e-08
1.60177e-09
4.07677e-08
1.57198e-09
4.06139e-08
1.54317e-09
4.04537e-08
1.5152e-09
4.02876e-08
1.48804e-09
4.01158e-08
1.46154e-09
3.99386e-08
1.43572e-09
3.97564e-08
1.41045e-09
3.95695e-08
1.38577e-09
3.93782e-08
1.36155e-09
3.91828e-08
1.33787e-09
3.89838e-08
1.31458e-09
3.87813e-08
1.29181e-09
3.85757e-08
1.26937e-09
3.83673e-08
1.24746e-09
3.81565e-08
1.22582e-09
3.79434e-08
1.20473e-09
3.77285e-08
1.18387e-09
3.75119e-08
1.16357e-09
3.7294e-08
1.14346e-09
3.70749e-08
1.12395e-09
3.6855e-08
1.10457e-09
3.66343e-08
1.08583e-09
3.64133e-08
1.06717e-09
3.6192e-08
1.0492e-09
3.59707e-08
1.03125e-09
3.57494e-08
1.01403e-09
3.55286e-08
9.96766e-10
3.5308e-08
9.80311e-10
3.50881e-08
9.63713e-10
3.48688e-08
9.48009e-10
3.46505e-08
9.32059e-10
3.44329e-08
9.171e-10
3.42167e-08
9.01775e-10
3.40012e-08
8.87555e-10
3.37873e-08
8.72827e-10
3.35743e-08
8.59341e-10
3.33631e-08
8.45181e-10
3.31528e-08
8.32423e-10
3.29445e-08
8.18799e-10
3.27372e-08
8.06766e-10
3.25319e-08
7.93645e-10
3.23277e-08
7.82335e-10
3.21256e-08
7.69679e-10
3.19246e-08
7.59095e-10
3.17259e-08
7.46865e-10
3.15281e-08
7.37013e-10
3.13328e-08
7.2517e-10
3.11383e-08
7.16061e-10
3.09464e-08
7.04563e-10
3.07552e-08
6.96217e-10
3.05667e-08
6.85022e-10
3.03788e-08
6.77463e-10
3.01937e-08
6.66531e-10
3.0009e-08
6.59793e-10
2.98272e-08
6.49087e-10
2.96457e-08
6.43213e-10
2.94672e-08
6.327e-10
2.92887e-08
6.27742e-10
2.91133e-08
6.17405e-10
2.89377e-08
6.13421e-10
2.87654e-08
6.03265e-10
2.85925e-08
6.00314e-10
2.8423e-08
5.90394e-10
2.82527e-08
5.88524e-10
2.80858e-08
5.78984e-10
2.79179e-08
5.78215e-10
2.77533e-08
5.69392e-10
2.75873e-08
5.69742e-10
2.74246e-08
5.62496e-10
2.72602e-08
5.64294e-10
5.60269e-10
4.22499e-08
2.09979e-09
-4.21843e-08
4.23792e-08
2.4362e-09
4.25812e-08
2.75583e-09
4.2817e-08
3.02639e-09
4.30408e-08
3.18771e-09
4.32366e-08
3.23402e-09
4.34072e-08
3.19757e-09
4.35532e-08
3.1111e-09
4.36692e-08
2.9929e-09
4.3752e-08
2.85415e-09
4.38041e-08
2.70716e-09
4.38332e-08
2.56564e-09
4.38474e-08
2.44021e-09
4.3852e-08
2.33451e-09
4.38499e-08
2.2465e-09
4.38427e-08
2.17224e-09
4.38314e-08
2.10832e-09
4.38166e-08
2.05218e-09
4.37986e-08
2.00206e-09
4.37772e-08
1.95661e-09
4.37523e-08
1.91491e-09
4.37237e-08
1.87617e-09
4.36912e-08
1.83999e-09
4.36545e-08
1.80592e-09
4.36136e-08
1.7738e-09
4.35683e-08
1.74334e-09
4.35185e-08
1.71448e-09
4.34642e-08
1.68694e-09
4.34052e-08
1.66074e-09
4.33416e-08
1.63557e-09
4.32733e-08
1.61149e-09
4.32003e-08
1.58819e-09
4.31225e-08
1.56579e-09
4.30401e-08
1.54396e-09
4.29529e-08
1.5229e-09
4.28612e-08
1.50223e-09
4.27647e-08
1.48223e-09
4.26638e-08
1.46248e-09
4.25583e-08
1.44336e-09
4.24485e-08
1.42437e-09
4.23343e-08
1.40598e-09
4.2216e-08
1.38764e-09
4.20936e-08
1.36989e-09
4.19673e-08
1.35209e-09
4.18371e-08
1.33491e-09
4.17034e-08
1.3176e-09
4.1566e-08
1.30096e-09
4.14254e-08
1.28409e-09
4.12814e-08
1.26795e-09
4.11345e-08
1.25149e-09
4.09845e-08
1.23583e-09
4.08319e-08
1.21975e-09
4.06765e-08
1.20458e-09
4.05189e-08
1.18887e-09
4.03587e-08
1.17418e-09
4.01967e-08
1.15881e-09
4.00324e-08
1.14461e-09
3.98665e-08
1.12958e-09
3.96987e-08
1.11588e-09
3.95295e-08
1.10117e-09
3.93587e-08
1.08798e-09
3.91869e-08
1.07359e-09
3.90135e-08
1.06091e-09
3.88395e-08
1.04682e-09
3.86642e-08
1.03469e-09
3.84885e-08
1.02087e-09
3.83116e-08
1.0093e-09
3.81347e-08
9.95737e-10
3.79567e-08
9.84755e-10
3.77789e-08
9.71429e-10
3.76002e-08
9.61059e-10
3.74219e-08
9.47943e-10
3.72428e-08
9.38212e-10
3.70644e-08
9.25278e-10
3.68852e-08
9.16222e-10
3.67069e-08
9.0344e-10
3.65279e-08
8.95096e-10
3.635e-08
8.82435e-10
3.61714e-08
8.74849e-10
3.59941e-08
8.62277e-10
3.58161e-08
8.55498e-10
3.56396e-08
8.42985e-10
3.54623e-08
8.37071e-10
3.52868e-08
8.24593e-10
3.51104e-08
8.19607e-10
3.4936e-08
8.07149e-10
3.47606e-08
8.03157e-10
3.45872e-08
7.90726e-10
3.44129e-08
7.87798e-10
3.42407e-08
7.75432e-10
3.40674e-08
7.73634e-10
3.38963e-08
7.61428e-10
3.37241e-08
7.60812e-10
3.35541e-08
7.48962e-10
3.33827e-08
7.49569e-10
3.32137e-08
7.38459e-10
3.3043e-08
7.40383e-10
3.28747e-08
7.30798e-10
3.27047e-08
7.34353e-10
7.27237e-10
4.39447e-08
2.03345e-09
-4.38784e-08
4.40593e-08
2.32158e-09
4.42264e-08
2.58877e-09
4.44301e-08
2.8227e-09
4.46355e-08
2.98224e-09
4.48211e-08
3.04847e-09
4.49818e-08
3.03683e-09
4.51191e-08
2.97389e-09
4.52316e-08
2.88032e-09
4.53175e-08
2.76832e-09
4.53773e-08
2.64735e-09
4.54158e-08
2.52712e-09
4.54396e-08
2.41643e-09
4.54541e-08
2.32001e-09
4.54625e-08
2.23809e-09
4.54666e-08
2.16812e-09
4.54675e-08
2.10741e-09
4.5466e-08
2.05367e-09
4.54626e-08
2.00552e-09
4.54575e-08
1.96174e-09
4.54507e-08
1.92171e-09
4.54422e-08
1.88462e-09
4.5432e-08
1.85023e-09
4.542e-08
1.81795e-09
4.5406e-08
1.78777e-09
4.53901e-08
1.75923e-09
4.53721e-08
1.73245e-09
4.53521e-08
1.70697e-09
4.53299e-08
1.68298e-09
4.53054e-08
1.66e-09
4.52786e-08
1.63831e-09
4.52494e-08
1.61736e-09
4.52177e-08
1.59752e-09
4.51835e-08
1.57819e-09
4.51465e-08
1.55985e-09
4.51069e-08
1.54183e-09
4.50644e-08
1.52471e-09
4.50192e-08
1.50773e-09
4.49709e-08
1.49163e-09
4.49198e-08
1.4755e-09
4.48655e-08
1.46024e-09
4.48084e-08
1.44481e-09
4.4748e-08
1.43027e-09
4.46846e-08
1.41543e-09
4.46181e-08
1.40151e-09
4.45485e-08
1.38715e-09
4.44757e-08
1.37378e-09
4.43999e-08
1.35984e-09
4.43209e-08
1.34697e-09
4.4239e-08
1.33337e-09
4.41539e-08
1.32096e-09
4.4066e-08
1.30766e-09
4.39749e-08
1.29568e-09
4.38812e-08
1.28263e-09
4.37843e-08
1.27107e-09
4.36848e-08
1.25823e-09
4.35824e-08
1.24708e-09
4.34775e-08
1.23442e-09
4.33698e-08
1.22367e-09
4.32598e-08
1.21116e-09
4.31469e-08
1.20083e-09
4.30321e-08
1.18844e-09
4.29144e-08
1.17853e-09
4.2795e-08
1.16624e-09
4.26729e-08
1.15676e-09
4.25493e-08
1.14455e-09
4.2423e-08
1.13553e-09
4.22954e-08
1.12336e-09
4.21653e-08
1.11482e-09
4.20341e-08
1.10267e-09
4.19005e-08
1.09464e-09
4.1766e-08
1.08248e-09
4.16292e-08
1.07501e-09
4.14916e-08
1.06282e-09
4.13519e-08
1.05593e-09
4.12117e-08
1.04368e-09
4.10694e-08
1.03743e-09
4.09267e-08
1.02509e-09
4.0782e-08
1.01953e-09
4.06372e-08
1.00708e-09
4.04905e-08
1.00226e-09
4.03437e-08
9.89695e-10
4.01951e-08
9.85682e-10
4.00467e-08
9.72985e-10
3.98965e-08
9.69841e-10
3.97466e-08
9.57028e-10
3.9595e-08
9.54819e-10
3.94438e-08
9.41926e-10
3.92908e-08
9.40718e-10
3.91385e-08
9.27822e-10
3.89844e-08
9.27677e-10
3.88309e-08
9.14916e-10
3.86758e-08
9.15891e-10
3.85213e-08
9.03498e-10
3.83652e-08
9.05665e-10
3.82096e-08
8.94045e-10
3.80524e-08
8.97569e-10
3.78958e-08
8.87399e-10
3.77377e-08
8.92529e-10
8.84377e-10
4.56881e-08
1.96897e-09
-4.56236e-08
4.57913e-08
2.21837e-09
4.59341e-08
2.44603e-09
4.61092e-08
2.64762e-09
4.6294e-08
2.79743e-09
4.64674e-08
2.875e-09
4.66196e-08
2.88461e-09
4.67495e-08
2.844e-09
4.68576e-08
2.77222e-09
4.69435e-08
2.68243e-09
4.70074e-08
2.58348e-09
4.70519e-08
2.48257e-09
4.70818e-08
2.38653e-09
4.71019e-08
2.29992e-09
4.71155e-08
2.22448e-09
4.71247e-08
2.15897e-09
4.71305e-08
2.1016e-09
4.71338e-08
2.05033e-09
4.71352e-08
2.00411e-09
4.71352e-08
1.96179e-09
4.71338e-08
1.92304e-09
4.71314e-08
1.88703e-09
4.71279e-08
1.85373e-09
4.71235e-08
1.82242e-09
4.7118e-08
1.79327e-09
4.71116e-08
1.76563e-09
4.71042e-08
1.73984e-09
4.70959e-08
1.71522e-09
4.70867e-08
1.69222e-09
4.70766e-08
1.67011e-09
4.70654e-08
1.64945e-09
4.70534e-08
1.62942e-09
4.70402e-08
1.61069e-09
4.7026e-08
1.59236e-09
4.70106e-08
1.57525e-09
4.69941e-08
1.55832e-09
4.69763e-08
1.54255e-09
4.69573e-08
1.52678e-09
4.69367e-08
1.51216e-09
4.69149e-08
1.49736e-09
4.68914e-08
1.48373e-09
4.68664e-08
1.46974e-09
4.68398e-08
1.45696e-09
4.68115e-08
1.44366e-09
4.67814e-08
1.43165e-09
4.67496e-08
1.41893e-09
4.67158e-08
1.4076e-09
4.66802e-08
1.39538e-09
4.66425e-08
1.38467e-09
4.6603e-08
1.37286e-09
4.65613e-08
1.36272e-09
4.65177e-08
1.35126e-09
4.64717e-08
1.34164e-09
4.64239e-08
1.33048e-09
4.63736e-08
1.32136e-09
4.63214e-08
1.31043e-09
4.62667e-08
1.30179e-09
4.621e-08
1.29104e-09
4.61509e-08
1.28286e-09
4.60898e-08
1.27226e-09
4.60261e-08
1.26452e-09
4.59605e-08
1.25402e-09
4.58923e-08
1.24673e-09
4.58223e-08
1.23628e-09
4.57496e-08
1.22945e-09
4.56751e-08
1.21901e-09
4.5598e-08
1.21264e-09
4.55192e-08
1.20219e-09
4.54377e-08
1.19628e-09
4.53546e-08
1.18578e-09
4.52689e-08
1.18036e-09
4.51816e-08
1.16977e-09
4.50917e-08
1.16488e-09
4.50004e-08
1.15416e-09
4.49065e-08
1.14981e-09
4.48112e-08
1.13896e-09
4.47135e-08
1.13519e-09
4.46144e-08
1.12416e-09
4.45129e-08
1.12101e-09
4.44102e-08
1.10981e-09
4.43051e-08
1.10732e-09
4.41989e-08
1.09594e-09
4.40904e-08
1.09415e-09
4.39808e-08
1.0826e-09
4.38691e-08
1.08157e-09
4.37562e-08
1.06988e-09
4.36414e-08
1.06965e-09
4.35254e-08
1.05789e-09
4.34076e-08
1.05852e-09
4.32887e-08
1.04678e-09
4.3168e-08
1.04832e-09
4.30461e-08
1.03679e-09
4.29227e-08
1.03929e-09
4.2798e-08
1.02821e-09
4.26719e-08
1.03178e-09
4.25444e-08
1.02155e-09
4.24156e-08
1.0264e-09
4.22854e-08
1.0176e-09
4.2154e-08
1.0239e-09
1.01693e-09
4.74847e-08
1.9071e-09
-4.74228e-08
4.75783e-08
2.12472e-09
4.77033e-08
2.32109e-09
4.78548e-08
2.49607e-09
4.80191e-08
2.63309e-09
4.81789e-08
2.71528e-09
4.83225e-08
2.74098e-09
4.84462e-08
2.72031e-09
4.85501e-08
2.66833e-09
4.86348e-08
2.59772e-09
4.87007e-08
2.51751e-09
4.87496e-08
2.43371e-09
4.87844e-08
2.3517e-09
4.88091e-08
2.27527e-09
4.88267e-08
2.20685e-09
4.88395e-08
2.14622e-09
4.88485e-08
2.09254e-09
4.88548e-08
2.04407e-09
4.88588e-08
2.0001e-09
4.88611e-08
1.95947e-09
4.8862e-08
1.92214e-09
4.88618e-08
1.88724e-09
4.88606e-08
1.85497e-09
4.88585e-08
1.82449e-09
4.88556e-08
1.79618e-09
4.8852e-08
1.76919e-09
4.88478e-08
1.74408e-09
4.88431e-08
1.71996e-09
4.88377e-08
1.69754e-09
4.8832e-08
1.67584e-09
4.88258e-08
1.65569e-09
4.88192e-08
1.63601e-09
4.88121e-08
1.61778e-09
4.88047e-08
1.59978e-09
4.87968e-08
1.58317e-09
4.87885e-08
1.56659e-09
4.87797e-08
1.55137e-09
4.87705e-08
1.53598e-09
4.87607e-08
1.52197e-09
4.87504e-08
1.50759e-09
4.87395e-08
1.49465e-09
4.87281e-08
1.48114e-09
4.87159e-08
1.46914e-09
4.87032e-08
1.4564e-09
4.86896e-08
1.44525e-09
4.86754e-08
1.43316e-09
4.86602e-08
1.42281e-09
4.86442e-08
1.41129e-09
4.86272e-08
1.40166e-09
4.86095e-08
1.39064e-09
4.85905e-08
1.38169e-09
4.85706e-08
1.3711e-09
4.85495e-08
1.36278e-09
4.85274e-08
1.35257e-09
4.85039e-08
1.34485e-09
4.84794e-08
1.33495e-09
4.84534e-08
1.32781e-09
4.84263e-08
1.31817e-09
4.83975e-08
1.31158e-09
4.83676e-08
1.30216e-09
4.8336e-08
1.29611e-09
4.83032e-08
1.28684e-09
4.82686e-08
1.28132e-09
4.82327e-08
1.27218e-09
4.8195e-08
1.26717e-09
4.81559e-08
1.2581e-09
4.8115e-08
1.25361e-09
4.80726e-08
1.24457e-09
4.80282e-08
1.2406e-09
4.79825e-08
1.23156e-09
4.79347e-08
1.2281e-09
4.78855e-08
1.21903e-09
4.78343e-08
1.2161e-09
4.77815e-08
1.20695e-09
4.77267e-08
1.20457e-09
4.76703e-08
1.19533e-09
4.7612e-08
1.1935e-09
4.7552e-08
1.18416e-09
4.74901e-08
1.1829e-09
4.74265e-08
1.17345e-09
4.7361e-08
1.17279e-09
4.72937e-08
1.16323e-09
4.72247e-08
1.16319e-09
4.71538e-08
1.15355e-09
4.70812e-08
1.15415e-09
4.70066e-08
1.14449e-09
4.69304e-08
1.14577e-09
4.68522e-08
1.13615e-09
4.67726e-08
1.13814e-09
4.66907e-08
1.12869e-09
4.66075e-08
1.13143e-09
4.6522e-08
1.12234e-09
4.64354e-08
1.12589e-09
4.63462e-08
1.1174e-09
4.62561e-08
1.12189e-09
4.61633e-08
1.11439e-09
4.60696e-08
1.12004e-09
4.59732e-08
1.11399e-09
4.58761e-08
1.12098e-09
1.11671e-09
4.93381e-08
1.84785e-09
-4.92789e-08
4.94236e-08
2.0392e-09
4.95346e-08
2.21016e-09
4.96672e-08
2.3634e-09
4.98128e-08
2.4875e-09
4.99582e-08
2.56989e-09
5.00925e-08
2.60663e-09
5.02103e-08
2.60253e-09
5.03104e-08
2.56829e-09
5.03934e-08
2.51471e-09
5.04602e-08
2.45073e-09
5.05119e-08
2.38192e-09
5.05507e-08
2.31289e-09
5.05794e-08
2.24661e-09
5.06006e-08
2.18562e-09
5.06166e-08
2.1303e-09
5.06284e-08
2.08066e-09
5.06372e-08
2.03531e-09
5.06434e-08
1.99389e-09
5.06476e-08
1.95527e-09
5.06501e-08
1.91961e-09
5.06513e-08
1.88602e-09
5.06514e-08
1.85492e-09
5.06505e-08
1.82536e-09
5.06488e-08
1.79792e-09
5.06464e-08
1.77161e-09
5.06433e-08
1.74716e-09
5.06397e-08
1.72353e-09
5.06357e-08
1.7016e-09
5.06313e-08
1.68023e-09
5.06265e-08
1.66046e-09
5.06215e-08
1.641e-09
5.06162e-08
1.62307e-09
5.06108e-08
1.60522e-09
5.06051e-08
1.58887e-09
5.05993e-08
1.57239e-09
5.05932e-08
1.55741e-09
5.05871e-08
1.5421e-09
5.05808e-08
1.52833e-09
5.05743e-08
1.51403e-09
5.05676e-08
1.50133e-09
5.05609e-08
1.48792e-09
5.05538e-08
1.47618e-09
5.05467e-08
1.46355e-09
5.05392e-08
1.45271e-09
5.05316e-08
1.44076e-09
5.05237e-08
1.43075e-09
5.05155e-08
1.41943e-09
5.0507e-08
1.41019e-09
5.04982e-08
1.39941e-09
5.0489e-08
1.39091e-09
5.04795e-08
1.38062e-09
5.04695e-08
1.37281e-09
5.04591e-08
1.36296e-09
5.04481e-08
1.35582e-09
5.04367e-08
1.34635e-09
5.04247e-08
1.33985e-09
5.04121e-08
1.33072e-09
5.03989e-08
1.32484e-09
5.0385e-08
1.316e-09
5.03704e-08
1.31072e-09
5.03551e-08
1.30214e-09
5.0339e-08
1.29744e-09
5.03221e-08
1.28907e-09
5.03043e-08
1.28494e-09
5.02857e-08
1.27674e-09
5.02661e-08
1.27318e-09
5.02456e-08
1.26512e-09
5.02241e-08
1.26211e-09
5.02015e-08
1.25415e-09
5.01779e-08
1.25169e-09
5.01531e-08
1.24381e-09
5.01273e-08
1.24189e-09
5.01002e-08
1.23407e-09
5.00721e-08
1.23269e-09
5.00425e-08
1.22491e-09
5.00119e-08
1.22408e-09
4.99797e-08
1.21633e-09
4.99466e-08
1.21604e-09
4.99117e-08
1.20833e-09
4.98759e-08
1.20859e-09
4.98382e-08
1.20093e-09
4.97996e-08
1.20175e-09
4.9759e-08
1.19419e-09
4.97176e-08
1.19557e-09
4.96739e-08
1.18816e-09
4.96296e-08
1.19013e-09
4.95828e-08
1.18295e-09
4.95354e-08
1.18553e-09
4.94853e-08
1.17871e-09
4.94348e-08
1.18195e-09
4.93815e-08
1.17566e-09
4.93278e-08
1.17963e-09
4.9271e-08
1.17412e-09
4.9214e-08
1.17896e-09
4.91538e-08
1.17457e-09
4.90933e-08
1.18051e-09
4.90297e-08
1.17762e-09
4.89658e-08
1.18488e-09
1.18378e-09
5.12519e-08
1.79117e-09
-5.11952e-08
5.13303e-08
1.96073e-09
5.14297e-08
2.11078e-09
5.1547e-08
2.24609e-09
5.16762e-08
2.35835e-09
5.18076e-08
2.43847e-09
5.19321e-08
2.4821e-09
5.20437e-08
2.49094e-09
5.214e-08
2.472e-09
5.22211e-08
2.43363e-09
5.22879e-08
2.38397e-09
5.23414e-08
2.32836e-09
5.23832e-08
2.2711e-09
5.24153e-08
2.21455e-09
5.24397e-08
2.16116e-09
5.24586e-08
2.11148e-09
5.24731e-08
2.06617e-09
5.24841e-08
2.02422e-09
5.24924e-08
1.98562e-09
5.24984e-08
1.94927e-09
5.25025e-08
1.91553e-09
5.2505e-08
1.88348e-09
5.25063e-08
1.8537e-09
5.25064e-08
1.82522e-09
5.25056e-08
1.79875e-09
5.2504e-08
1.77322e-09
5.25016e-08
1.74949e-09
5.24988e-08
1.72641e-09
5.24954e-08
1.705e-09
5.24916e-08
1.68401e-09
5.24874e-08
1.6646e-09
5.2483e-08
1.64539e-09
5.24784e-08
1.62772e-09
5.24736e-08
1.61003e-09
5.24686e-08
1.59386e-09
5.24635e-08
1.57748e-09
5.24583e-08
1.56262e-09
5.2453e-08
1.54736e-09
5.24477e-08
1.53367e-09
5.24423e-08
1.51939e-09
5.24369e-08
1.50675e-09
5.24315e-08
1.49334e-09
5.2426e-08
1.48165e-09
5.24205e-08
1.46902e-09
5.2415e-08
1.45822e-09
5.24095e-08
1.44629e-09
5.2404e-08
1.43631e-09
5.23984e-08
1.42501e-09
5.23927e-08
1.41581e-09
5.23871e-08
1.40509e-09
5.23813e-08
1.39664e-09
5.23755e-08
1.38644e-09
5.23696e-08
1.37869e-09
5.23636e-08
1.36897e-09
5.23575e-08
1.36191e-09
5.23513e-08
1.35262e-09
5.23449e-08
1.34622e-09
5.23383e-08
1.33733e-09
5.23316e-08
1.33156e-09
5.23245e-08
1.32303e-09
5.23174e-08
1.31789e-09
5.23098e-08
1.30969e-09
5.23021e-08
1.30514e-09
5.2294e-08
1.29724e-09
5.22856e-08
1.29328e-09
5.22767e-08
1.28564e-09
5.22676e-08
1.28226e-09
5.22579e-08
1.27486e-09
5.2248e-08
1.27204e-09
5.22373e-08
1.26485e-09
5.22264e-08
1.26258e-09
5.22146e-08
1.2556e-09
5.22026e-08
1.25387e-09
5.21896e-08
1.24708e-09
5.21764e-08
1.24587e-09
5.21621e-08
1.23926e-09
5.21476e-08
1.23858e-09
5.21317e-08
1.23216e-09
5.21158e-08
1.23199e-09
5.20983e-08
1.22577e-09
5.20808e-08
1.22612e-09
5.20616e-08
1.22011e-09
5.20424e-08
1.22098e-09
5.20213e-08
1.21525e-09
5.20003e-08
1.21664e-09
5.19772e-08
1.21123e-09
5.19541e-08
1.21317e-09
5.19289e-08
1.20817e-09
5.19038e-08
1.21068e-09
5.18763e-08
1.2062e-09
5.18489e-08
1.20934e-09
5.1819e-08
1.20556e-09
5.17892e-08
1.20943e-09
5.17568e-08
1.20655e-09
5.17244e-08
1.21131e-09
5.16893e-08
1.20964e-09
5.16543e-08
1.21553e-09
5.16165e-08
1.2154e-09
5.15788e-08
1.22266e-09
1.2243e-09
5.32292e-08
1.7371e-09
-5.31751e-08
5.33014e-08
1.88848e-09
5.3391e-08
2.02119e-09
5.34956e-08
2.14156e-09
5.36105e-08
2.24337e-09
5.3729e-08
2.32001e-09
5.38436e-08
2.36752e-09
5.39486e-08
2.38595e-09
5.40409e-08
2.37968e-09
5.41198e-08
2.35467e-09
5.4186e-08
2.31777e-09
5.42405e-08
2.27391e-09
5.42843e-08
2.22722e-09
5.43191e-08
2.1798e-09
5.43464e-08
2.13387e-09
5.43678e-08
2.09003e-09
5.43847e-08
2.04928e-09
5.4398e-08
2.01096e-09
5.44082e-08
1.97537e-09
5.4416e-08
1.94154e-09
5.44216e-08
1.90991e-09
5.44255e-08
1.87961e-09
5.44278e-08
1.85131e-09
5.4429e-08
1.82407e-09