/*--------------------------------*- C++ -*----------------------------------*\
| =========                 |                                                 |
| \\      /  F ield         | OpenFOAM: The Open Source CFD Toolbox           |
|  \\    /   O peration     | Version:  2.3.0                                 |
|   \\  /    A nd           | Web:      www.OpenFOAM.org                      |
|    \\/     M anipulation  |                                                 |
\*---------------------------------------------------------------------------*/
FoamFile
{
    version     2.0;
    format      ascii;
    class       volVectorField;
    location    "1";
    object      U;
}
// * * * * * * * * * * * * * * * * * * * * * * * * * * * * * * * * * * * * * //

dimensions      [0 1 -1 0 0 0 0];

internalField   nonuniform List<vector> 
3105
(
(0.176796 0.00434452 0)
(0.156086 0.00594974 0)
(0.137389 0.00612157 0)
(0.119253 0.00553051 0)
(0.101762 0.00473149 0)
(0.0857162 0.00384854 0)
(0.0721535 0.00288942 0)
(0.0614931 0.0018765 0)
(0.0535639 0.000988259 0)
(0.0478409 0.000380496 0)
(0.043758 5.37278e-05 0)
(0.0408412 -8.07698e-05 0)
(0.0387093 -0.000107109 0)
(0.0370771 -8.23821e-05 0)
(0.0357414 -3.88814e-05 0)
(0.0345728 4.3183e-06 0)
(0.0335003 3.77796e-05 0)
(0.0324909 5.93713e-05 0)
(0.0315336 7.0801e-05 0)
(0.0306267 7.49863e-05 0)
(0.0297712 7.46306e-05 0)
(0.0289674 7.18062e-05 0)
(0.0282145 6.7856e-05 0)
(0.0275099 6.36006e-05 0)
(0.0268506 5.9447e-05 0)
(0.0262325 5.56026e-05 0)
(0.0256521 5.20993e-05 0)
(0.0251053 4.895e-05 0)
(0.0245893 4.60951e-05 0)
(0.0241007 4.35203e-05 0)
(0.0236375 4.11593e-05 0)
(0.0231969 3.90097e-05 0)
(0.0227775 3.70121e-05 0)
(0.0223771 3.51795e-05 0)
(0.021995 3.34572e-05 0)
(0.0216289 3.18712e-05 0)
(0.0212788 3.03672e-05 0)
(0.0209425 2.89816e-05 0)
(0.0206203 2.76578e-05 0)
(0.0203101 2.6441e-05 0)
(0.0200124 2.52697e-05 0)
(0.0197251 2.41981e-05 0)
(0.0194491 2.3158e-05 0)
(0.0191821 2.22127e-05 0)
(0.0189255 2.12857e-05 0)
(0.0186765 2.04509e-05 0)
(0.0184371 1.96217e-05 0)
(0.0182043 1.88836e-05 0)
(0.0179803 1.81386e-05 0)
(0.0177619 1.74855e-05 0)
(0.0175518 1.68128e-05 0)
(0.0173464 1.62347e-05 0)
(0.0171489 1.56241e-05 0)
(0.0169551 1.51125e-05 0)
(0.016769 1.45551e-05 0)
(0.0165857 1.41031e-05 0)
(0.01641 1.35909e-05 0)
(0.0162361 1.31928e-05 0)
(0.0160699 1.27188e-05 0)
(0.0159047 1.237e-05 0)
(0.0157472 1.1928e-05 0)
(0.0155897 1.16248e-05 0)
(0.0154403 1.12092e-05 0)
(0.0152897 1.09488e-05 0)
(0.0151478 1.05542e-05 0)
(0.0150036 1.03344e-05 0)
(0.0148686 9.95584e-06 0)
(0.01473 9.77566e-06 0)
(0.0146015 9.40815e-06 0)
(0.014468 9.26714e-06 0)
(0.0143457 8.90575e-06 0)
(0.0142166 8.80426e-06 0)
(0.0141001 8.44392e-06 0)
(0.0139749 8.38328e-06 0)
(0.0138641 8.01873e-06 0)
(0.0137422 8.00111e-06 0)
(0.0136368 7.62649e-06 0)
(0.0135177 7.65527e-06 0)
(0.0134176 7.2642e-06 0)
(0.0133007 7.34406e-06 0)
(0.0132059 6.92913e-06 0)
(0.0130904 7.06627e-06 0)
(0.013001 6.61882e-06 0)
(0.0128863 6.82158e-06 0)
(0.0128024 6.33122e-06 0)
(0.0126877 6.61035e-06 0)
(0.0126096 6.06429e-06 0)
(0.0124939 6.43417e-06 0)
(0.012422 5.81633e-06 0)
(0.0123042 6.29604e-06 0)
(0.0122391 5.58536e-06 0)
(0.0121177 6.20148e-06 0)
(0.0120603 5.36913e-06 0)
(0.0119335 6.16018e-06 0)
(0.0118852 5.16357e-06 0)
(0.0117504 6.19203e-06 0)
(0.0117134 4.96068e-06 0)
(0.0115662 6.34285e-06 0)
(0.0115451 4.88338e-06 0)
(0.0113709 8.5209e-06 0)
(0.192273 0.00771255 0)
(0.190396 0.0107983 0)
(0.187818 0.0118839 0)
(0.183959 0.0117273 0)
(0.178521 0.011094 0)
(0.171682 0.0102051 0)
(0.164057 0.00905899 0)
(0.156137 0.00765122 0)
(0.148307 0.00613248 0)
(0.1408 0.00472082 0)
(0.133749 0.00355871 0)
(0.127253 0.00267745 0)
(0.121357 0.00204298 0)
(0.116068 0.00160846 0)
(0.111342 0.00132223 0)
(0.107108 0.00113546 0)
(0.103295 0.00100907 0)
(0.0998377 0.000916646 0)
(0.0966833 0.000842509 0)
(0.0937875 0.000778472 0)
(0.0911166 0.00072067 0)
(0.0886417 0.00066766 0)
(0.0863409 0.000618954 0)
(0.0841939 0.000574511 0)
(0.0821856 0.000534191 0)
(0.0803003 0.000497866 0)
(0.0785273 0.000465166 0)
(0.076854 0.00043579 0)
(0.0752728 0.000409271 0)
(0.0737736 0.000385319 0)
(0.0723513 0.000363507 0)
(0.0709971 0.000343639 0)
(0.0697082 0.000325367 0)
(0.0684768 0.000308591 0)
(0.0673014 0.000293026 0)
(0.0661752 0.000278654 0)
(0.065098 0.000265225 0)
(0.0640629 0.00025278 0)
(0.0630711 0.000241086 0)
(0.0621157 0.000230227 0)
(0.0611989 0.000219972 0)
(0.0603137 0.000210445 0)
(0.0594633 0.000201403 0)
(0.0586401 0.000193006 0)
(0.0578488 0.000184995 0)
(0.0570809 0.000177567 0)
(0.0563423 0.000170437 0)
(0.0556237 0.000163842 0)
(0.0549326 0.00015747 0)
(0.0542582 0.000151598 0)
(0.0536098 0.000145877 0)
(0.0529751 0.000140634 0)
(0.0523654 0.000135478 0)
(0.0517666 0.000130786 0)
(0.0511921 0.000126118 0)
(0.0506257 0.000121913 0)
(0.0500833 0.00011767 0)
(0.0495462 0.000113895 0)
(0.0490333 0.000110022 0)
(0.0485226 0.000106633 0)
(0.0480369 0.000103081 0)
(0.0475502 0.000100038 0)
(0.0470896 9.67669e-05 0)
(0.0466246 9.40381e-05 0)
(0.0461873 9.10088e-05 0)
(0.0457419 8.85674e-05 0)
(0.0453263 8.57467e-05 0)
(0.0448986 8.35711e-05 0)
(0.0445035 8.09286e-05 0)
(0.0440915 7.90018e-05 0)
(0.0437158 7.6509e-05 0)
(0.0433178 7.48179e-05 0)
(0.0429606 7.24482e-05 0)
(0.0425748 7.09844e-05 0)
(0.0422354 6.87122e-05 0)
(0.04186 6.74712e-05 0)
(0.041538 6.52712e-05 0)
(0.0411714 6.42529e-05 0)
(0.0408663 6.20997e-05 0)
(0.0405066 6.13091e-05 0)
(0.0402186 5.91761e-05 0)
(0.0398637 5.86232e-05 0)
(0.039593 5.64818e-05 0)
(0.0392408 5.61834e-05 0)
(0.0389879 5.40021e-05 0)
(0.038636 5.39824e-05 0)
(0.0384018 5.17249e-05 0)
(0.0380472 5.20182e-05 0)
(0.0378331 4.96424e-05 0)
(0.0374724 5.02958e-05 0)
(0.0372805 4.77505e-05 0)
(0.0369094 4.88292e-05 0)
(0.0367426 4.60511e-05 0)
(0.0363556 4.76457e-05 0)
(0.0362181 4.45566e-05 0)
(0.0358075 4.67968e-05 0)
(0.0357063 4.33117e-05 0)
(0.03526 4.64715e-05 0)
(0.0352072 4.26231e-05 0)
(0.0347016 5.14545e-05 0)
(0.193243 0.00742909 0)
(0.1936 0.010028 0)
(0.194591 0.0116175 0)
(0.195635 0.0121308 0)
(0.196078 0.0120319 0)
(0.19559 0.0115968 0)
(0.194174 0.0108663 0)
(0.19195 0.00986129 0)
(0.189078 0.00868681 0)
(0.185718 0.00750699 0)
(0.18202 0.00645429 0)
(0.178131 0.00558321 0)
(0.174172 0.00488365 0)
(0.170241 0.00432725 0)
(0.166389 0.00388098 0)
(0.162637 0.00351518 0)
(0.158996 0.00320672 0)
(0.155467 0.00293964 0)
(0.152054 0.0027036 0)
(0.148756 0.00249233 0)
(0.145574 0.0023018 0)
(0.142508 0.00212955 0)
(0.139558 0.00197369 0)
(0.136722 0.00183288 0)
(0.134 0.00170571 0)
(0.131386 0.00159102 0)
(0.12888 0.00148744 0)
(0.126474 0.00139387 0)
(0.124168 0.00130906 0)
(0.121953 0.00123208 0)
(0.119829 0.00116187 0)
(0.117788 0.00109776 0)
(0.115828 0.00103887 0)
(0.113942 0.000984775 0)
(0.112129 0.000934753 0)
(0.110382 0.000888548 0)
(0.108701 0.000845571 0)
(0.107078 0.000805705 0)
(0.105516 0.000768431 0)
(0.104003 0.000733746 0)
(0.102547 0.000701169 0)
(0.101135 0.000670784 0)
(0.099774 0.000642128 0)
(0.0984514 0.000615359 0)
(0.0971772 0.00059001 0)
(0.0959357 0.00056631 0)
(0.0947398 0.000543776 0)
(0.0935717 0.000522702 0)
(0.0924471 0.000502578 0)
(0.0913456 0.000483768 0)
(0.0902861 0.000465722 0)
(0.0892451 0.000448876 0)
(0.0882451 0.00043263 0)
(0.0872592 0.000417497 0)
(0.086314 0.000402818 0)
(0.0853782 0.000389189 0)
(0.0844834 0.00037588 0)
(0.0835932 0.000363578 0)
(0.0827451 0.000351469 0)
(0.0818966 0.000340345 0)
(0.0810917 0.000329292 0)
(0.0802811 0.000319218 0)
(0.0795166 0.000309096 0)
(0.0787403 0.000299964 0)
(0.0780136 0.000290662 0)
(0.0772686 0.000282379 0)
(0.0765774 0.000273802 0)
(0.0758605 0.000266289 0)
(0.0752031 0.000258351 0)
(0.0745113 0.000251544 0)
(0.073886 0.000244169 0)
(0.0732166 0.00023801 0)
(0.0726222 0.000231129 0)
(0.0719724 0.000225574 0)
(0.0714079 0.000219126 0)
(0.0707748 0.000214139 0)
(0.0702397 0.000208066 0)
(0.0696204 0.000203621 0)
(0.0691144 0.000197869 0)
(0.0685059 0.000193949 0)
(0.0680292 0.000188468 0)
(0.0674282 0.000185063 0)
(0.0669813 0.000179806 0)
(0.0663841 0.000176919 0)
(0.0659683 0.000171837 0)
(0.0653708 0.000169481 0)
(0.0649878 0.000164527 0)
(0.0643852 0.000162728 0)
(0.0640376 0.000157854 0)
(0.0634242 0.000156652 0)
(0.0631156 0.000151815 0)
(0.0624844 0.000151267 0)
(0.0622199 0.000146426 0)
(0.0615619 0.000146608 0)
(0.0613484 0.000141744 0)
(0.060652 0.000142768 0)
(0.0604997 0.000137883 0)
(0.0597485 0.000140234 0)
(0.0596715 0.000135401 0)
(0.0588439 0.000145155 0)
(0.194243 0.00701006 0)
(0.194571 0.00887723 0)
(0.195578 0.0103783 0)
(0.197116 0.0111337 0)
(0.198708 0.0112881 0)
(0.199972 0.0110767 0)
(0.200748 0.0106066 0)
(0.201006 0.00992287 0)
(0.200765 0.00909096 0)
(0.200066 0.00821493 0)
(0.198972 0.00739671 0)
(0.197569 0.00669483 0)
(0.195947 0.00611882 0)
(0.19418 0.00564789 0)
(0.192318 0.00525598 0)
(0.190384 0.00492147 0)
(0.188395 0.00462818 0)
(0.186357 0.00436485 0)
(0.184278 0.00412378 0)
(0.182163 0.00390016 0)
(0.180021 0.00369091 0)
(0.177857 0.00349439 0)
(0.175682 0.0033095 0)
(0.1735 0.00313576 0)
(0.171323 0.00297258 0)
(0.169152 0.00281963 0)
(0.166998 0.00267626 0)
(0.164861 0.00254208 0)
(0.162751 0.00241635 0)
(0.160664 0.00229866 0)
(0.158611 0.0021883 0)
(0.156588 0.0020849 0)
(0.154603 0.00198779 0)
(0.15265 0.0018967 0)
(0.150739 0.00181101 0)
(0.148861 0.00173054 0)
(0.147027 0.00165469 0)
(0.145226 0.00158339 0)
(0.143471 0.00151607 0)
(0.141748 0.00145271 0)
(0.140071 0.00139278 0)
(0.138423 0.00133632 0)
(0.136822 0.00128282 0)
(0.135247 0.00123237 0)
(0.13372 0.00118446 0)
(0.132216 0.00113927 0)
(0.13076 0.00109625 0)
(0.129323 0.00105564 0)
(0.127934 0.0010169 0)
(0.126561 0.000980324 0)
(0.125237 0.000945338 0)
(0.123923 0.000912307 0)
(0.12266 0.000880627 0)
(0.121403 0.000850728 0)
(0.120197 0.000821967 0)
(0.118993 0.000794841 0)
(0.117842 0.000768665 0)
(0.116686 0.000744005 0)
(0.115588 0.000720124 0)
(0.114477 0.000697662 0)
(0.113428 0.000675824 0)
(0.11236 0.00065533 0)
(0.111357 0.000635316 0)
(0.110328 0.000616588 0)
(0.10937 0.000598203 0)
(0.108376 0.000581066 0)
(0.107462 0.000564142 0)
(0.106499 0.000548442 0)
(0.105627 0.000532831 0)
(0.104694 0.000518435 0)
(0.103861 0.000504005 0)
(0.102954 0.000490797 0)
(0.102161 0.000477431 0)
(0.101276 0.000465311 0)
(0.100522 0.000452908 0)
(0.0996556 0.00044179 0)
(0.0989402 0.000430259 0)
(0.0980894 0.000420069 0)
(0.0974129 0.000409331 0)
(0.0965736 0.000400009 0)
(0.0959367 0.000389994 0)
(0.0951045 0.00038149 0)
(0.0945086 0.000372139 0)
(0.0936788 0.000364416 0)
(0.0931258 0.000355678 0)
(0.092293 0.000348709 0)
(0.0917858 0.000340544 0)
(0.0909436 0.000334314 0)
(0.090486 0.000326698 0)
(0.089627 0.000321204 0)
(0.0892241 0.000314125 0)
(0.0883391 0.000309383 0)
(0.0879976 0.000302853 0)
(0.0870758 0.000298909 0)
(0.0868043 0.000292946 0)
(0.0858319 0.000289975 0)
(0.0856414 0.000284522 0)
(0.0846019 0.000283391 0)
(0.0845051 0.000278469 0)
(0.0833801 0.000284892 0)
(0.195073 0.00671344 0)
(0.195387 0.00813347 0)
(0.196179 0.00942161 0)
(0.197463 0.0102274 0)
(0.198969 0.0105011 0)
(0.20039 0.010393 0)
(0.201551 0.0100394 0)
(0.2024 0.00951653 0)
(0.202938 0.00887924 0)
(0.203174 0.00819438 0)
(0.203136 0.00753474 0)
(0.202867 0.00695278 0)
(0.202425 0.00646696 0)
(0.201859 0.00606774 0)
(0.20121 0.00573571 0)
(0.200492 0.00545306 0)
(0.199717 0.00520603 0)
(0.198882 0.00498486 0)
(0.197991 0.00478244 0)
(0.197039 0.00459404 0)
(0.196032 0.00441638 0)
(0.194966 0.0042476 0)
(0.193851 0.00408642 0)
(0.192683 0.0039323 0)
(0.191474 0.00378471 0)
(0.190219 0.00364349 0)
(0.188932 0.00350825 0)
(0.187607 0.00337883 0)
(0.186259 0.00325484 0)
(0.184879 0.00313613 0)
(0.183485 0.00302228 0)
(0.182065 0.00291321 0)
(0.180638 0.00280852 0)
(0.179192 0.00270816 0)
(0.177745 0.00261178 0)
(0.176284 0.00251936 0)
(0.174829 0.00243058 0)
(0.173363 0.00234546 0)
(0.171909 0.00226368 0)
(0.170447 0.00218528 0)
(0.169003 0.00210997 0)
(0.167552 0.0020378 0)
(0.166125 0.00196846 0)
(0.164691 0.00190204 0)
(0.163285 0.00183823 0)
(0.161873 0.00177712 0)
(0.160495 0.00171841 0)
(0.159108 0.00166218 0)
(0.157759 0.00160815 0)
(0.156401 0.00155642 0)
(0.155085 0.0015067 0)
(0.153756 0.00145908 0)
(0.152475 0.00141332 0)
(0.151177 0.00136947 0)
(0.149932 0.00132732 0)
(0.148665 0.00128691 0)
(0.147457 0.00124807 0)
(0.14622 0.00121082 0)
(0.14505 0.001175 0)
(0.143844 0.00114062 0)
(0.142712 0.00110756 0)
(0.141534 0.0010758 0)
(0.140441 0.00104528 0)
(0.139291 0.00101591 0)
(0.138236 0.000987706 0)
(0.137112 0.000960514 0)
(0.136095 0.000934434 0)
(0.134996 0.000909228 0)
(0.134017 0.0008851 0)
(0.13294 0.000861706 0)
(0.132 0.000839377 0)
(0.130942 0.000817636 0)
(0.130042 0.000796967 0)
(0.129 0.000776735 0)
(0.12814 0.000757608 0)
(0.127112 0.000738754 0)
(0.126293 0.000721066 0)
(0.125275 0.000703473 0)
(0.124498 0.000687135 0)
(0.123487 0.000670696 0)
(0.122754 0.00065564 0)
(0.121744 0.000640259 0)
(0.121058 0.000626428 0)
(0.120045 0.000612021 0)
(0.119409 0.000599378 0)
(0.118386 0.00058587 0)
(0.117803 0.000574397 0)
(0.116764 0.000561727 0)
(0.116241 0.000551425 0)
(0.115176 0.000539551 0)
(0.114718 0.000530436 0)
(0.11362 0.000519355 0)
(0.113234 0.000511448 0)
(0.11209 0.000501245 0)
(0.111785 0.000494524 0)
(0.110582 0.000485518 0)
(0.11037 0.000479834 0)
(0.109093 0.000473146 0)
(0.108984 0.000468651 0)
(0.107616 0.000468774 0)
(0.195756 0.00647544 0)
(0.196067 0.00762441 0)
(0.196726 0.00870596 0)
(0.197762 0.00947867 0)
(0.199032 0.00982207 0)
(0.200307 0.0097986 0)
(0.201425 0.00952998 0)
(0.202317 0.00910826 0)
(0.202981 0.00859133 0)
(0.203427 0.00802837 0)
(0.203681 0.00747159 0)
(0.20377 0.00696519 0)
(0.203737 0.00653152 0)
(0.203617 0.00617049 0)
(0.203448 0.00586974 0)
(0.203241 0.00561489 0)
(0.203008 0.00539381 0)
(0.202744 0.00519763 0)
(0.202453 0.00501987 0)
(0.202123 0.00485604 0)
(0.201762 0.00470291 0)
(0.201359 0.0045584 0)
(0.200923 0.00442105 0)
(0.200442 0.00428997 0)
(0.19993 0.00416449 0)
(0.199374 0.00404422 0)
(0.198788 0.0039287 0)
(0.198158 0.00381763 0)
(0.197503 0.00371064 0)
(0.196804 0.00360745 0)
(0.196083 0.00350775 0)
(0.195321 0.00341129 0)
(0.19454 0.00331785 0)
(0.193719 0.00322723 0)
(0.192885 0.00313928 0)
(0.192011 0.00305385 0)
(0.191129 0.00297085 0)
(0.190209 0.00289014 0)
(0.189286 0.0028117 0)
(0.188326 0.00273537 0)
(0.187368 0.0026612 0)
(0.186373 0.00258902 0)
(0.185387 0.00251892 0)
(0.184364 0.00245067 0)
(0.183356 0.00238446 0)
(0.18231 0.00232 0)
(0.181286 0.00225752 0)
(0.180221 0.00219668 0)
(0.179187 0.00213779 0)
(0.178109 0.00208041 0)
(0.177068 0.00202497 0)
(0.175981 0.00197091 0)
(0.17494 0.00191877 0)
(0.173847 0.00186786 0)
(0.172808 0.00181888 0)
(0.171713 0.00177098 0)
(0.170681 0.00172501 0)
(0.169586 0.00167995 0)
(0.168564 0.00163686 0)
(0.16747 0.00159448 0)
(0.166462 0.00155411 0)
(0.165371 0.00151426 0)
(0.16438 0.00147648 0)
(0.163293 0.00143899 0)
(0.162321 0.00140366 0)
(0.161238 0.00136838 0)
(0.160287 0.00133539 0)
(0.159209 0.00130216 0)
(0.158282 0.00127138 0)
(0.157208 0.00124005 0)
(0.156308 0.00121138 0)
(0.155236 0.00118181 0)
(0.154364 0.00115514 0)
(0.153294 0.00112719 0)
(0.152454 0.00110244 0)
(0.151383 0.00107597 0)
(0.150577 0.00105307 0)
(0.149503 0.00102796 0)
(0.148734 0.00100685 0)
(0.147653 0.000982972 0)
(0.146925 0.000963604 0)
(0.145834 0.000940845 0)
(0.145149 0.000923199 0)
(0.144044 0.000901448 0)
(0.143408 0.000885515 0)
(0.142283 0.000864679 0)
(0.1417 0.000850465 0)
(0.140548 0.000830469 0)
(0.140025 0.000817994 0)
(0.138839 0.000798799 0)
(0.138382 0.000788085 0)
(0.137154 0.00076972 0)
(0.13677 0.000760767 0)
(0.135489 0.000743393 0)
(0.135187 0.000736138 0)
(0.133842 0.000720196 0)
(0.133632 0.00071451 0)
(0.132209 0.000701152 0)
(0.132101 0.000697381 0)
(0.130587 0.000689763 0)
(0.196341 0.0062609 0)
(0.196644 0.00721843 0)
(0.19721 0.00812288 0)
(0.198059 0.0088186 0)
(0.199114 0.00918951 0)
(0.200216 0.00923926 0)
(0.201226 0.00905191 0)
(0.202062 0.00871501 0)
(0.202712 0.00829012 0)
(0.203182 0.00782085 0)
(0.2035 0.00734638 0)
(0.203683 0.00690157 0)
(0.203771 0.00650891 0)
(0.203788 0.00617452 0)
(0.20377 0.00589246 0)
(0.203726 0.00565213 0)
(0.203675 0.00544335 0)
(0.203607 0.00525821 0)
(0.203533 0.00509108 0)
(0.203439 0.00493796 0)
(0.203337 0.00479606 0)
(0.20321 0.00466333 0)
(0.203072 0.00453837 0)
(0.202907 0.00442007 0)
(0.202732 0.00430778 0)
(0.202526 0.00420078 0)
(0.202311 0.00409872 0)
(0.202063 0.00400101 0)
(0.201806 0.0039074 0)
(0.201515 0.00381731 0)
(0.201216 0.00373063 0)
(0.200879 0.00364678 0)
(0.200538 0.00356576 0)
(0.200156 0.00348703 0)
(0.199772 0.00341072 0)
(0.199346 0.00333626 0)
(0.19892 0.00326395 0)
(0.198449 0.00319316 0)
(0.197982 0.00312433 0)
(0.197468 0.00305677 0)
(0.196962 0.00299107 0)
(0.196406 0.00292643 0)
(0.195864 0.0028636 0)
(0.195268 0.00280166 0)
(0.194691 0.00274152 0)
(0.194057 0.00268211 0)
(0.193449 0.00262454 0)
(0.19278 0.00256754 0)
(0.192144 0.00251244 0)
(0.191441 0.00245775 0)
(0.190779 0.00240504 0)
(0.190045 0.00235258 0)
(0.189363 0.0023022 0)
(0.1886 0.0022519 0)
(0.187899 0.00220381 0)
(0.187111 0.00215558 0)
(0.186395 0.00210974 0)
(0.185582 0.00206353 0)
(0.184856 0.00201989 0)
(0.18402 0.00197561 0)
(0.183286 0.00193414 0)
(0.18243 0.00189172 0)
(0.181692 0.00185237 0)
(0.180817 0.00181174 0)
(0.180078 0.00177448 0)
(0.179185 0.00173555 0)
(0.178449 0.00170033 0)
(0.177538 0.00166301 0)
(0.176808 0.00162981 0)
(0.17588 0.00159401 0)
(0.17516 0.0015628 0)
(0.174215 0.00152841 0)
(0.173508 0.00149916 0)
(0.172546 0.00146609 0)
(0.171856 0.00143878 0)
(0.170874 0.00140694 0)
(0.170205 0.00138156 0)
(0.169204 0.00135083 0)
(0.16856 0.00132738 0)
(0.167536 0.00129767 0)
(0.166921 0.00127616 0)
(0.165873 0.00124738 0)
(0.165291 0.00122782 0)
(0.164215 0.00119987 0)
(0.163672 0.0011823 0)
(0.162563 0.00115512 0)
(0.162064 0.00113956 0)
(0.160918 0.00111311 0)
(0.160469 0.0010996 0)
(0.15928 0.00107388 0)
(0.158888 0.00106245 0)
(0.157649 0.00103756 0)
(0.15732 0.00102819 0)
(0.156025 0.00100437 0)
(0.155766 0.000997024 0)
(0.154404 0.000974772 0)
(0.154225 0.000969424 0)
(0.152787 0.000949815 0)
(0.152695 0.000946929 0)
(0.151173 0.000931974 0)
(0.196852 0.00605771 0)
(0.197142 0.00686568 0)
(0.197634 0.00762413 0)
(0.198342 0.00823241 0)
(0.199221 0.00859993 0)
(0.200162 0.00870381 0)
(0.201058 0.00859058 0)
(0.201824 0.00833076 0)
(0.20244 0.00798413 0)
(0.202899 0.007593 0)
(0.203229 0.00718994 0)
(0.203443 0.00680214 0)
(0.203574 0.00644963 0)
(0.20364 0.00614134 0)
(0.203673 0.00587629 0)
(0.20368 0.00564755 0)
(0.203683 0.00544729 0)
(0.203672 0.00526864 0)
(0.203664 0.00510695 0)
(0.20364 0.00495865 0)
(0.203619 0.00482161 0)
(0.20358 0.0046938 0)
(0.203544 0.00457421 0)
(0.203488 0.00446146 0)
(0.203437 0.00435515 0)
(0.203363 0.00425422 0)
(0.203294 0.00415861 0)
(0.203201 0.00406735 0)
(0.203115 0.00398057 0)
(0.203001 0.00389728 0)
(0.202897 0.00381777 0)
(0.20276 0.00374098 0)
(0.202636 0.00366743 0)
(0.202476 0.00359597 0)
(0.202329 0.00352732 0)
(0.202144 0.00346026 0)
(0.201975 0.00339571 0)
(0.201762 0.00333233 0)
(0.20157 0.00327126 0)
(0.201329 0.00321102 0)
(0.201113 0.00315298 0)
(0.200842 0.00309545 0)
(0.200601 0.00304008 0)
(0.200301 0.00298494 0)
(0.200035 0.00293198 0)
(0.199703 0.00287898 0)
(0.199413 0.00282822 0)
(0.199049 0.00277716 0)
(0.198735 0.00272845 0)
(0.19834 0.00267917 0)
(0.198003 0.0026324 0)
(0.197576 0.00258477 0)
(0.197216 0.00253984 0)
(0.196758 0.00249375 0)
(0.196378 0.0024506 0)
(0.195888 0.00240596 0)
(0.195489 0.00236454 0)
(0.194968 0.00232127 0)
(0.194552 0.00228155 0)
(0.194 0.00223958 0)
(0.193569 0.00220154 0)
(0.192987 0.0021608 0)
(0.192542 0.00212442 0)
(0.19193 0.00208485 0)
(0.191475 0.00205012 0)
(0.190833 0.00201166 0)
(0.190371 0.00197859 0)
(0.189698 0.00194116 0)
(0.189231 0.00190977 0)
(0.188529 0.00187331 0)
(0.18806 0.0018436 0)
(0.187327 0.00180805 0)
(0.186859 0.00178003 0)
(0.186096 0.00174532 0)
(0.185633 0.00171903 0)
(0.184838 0.00168509 0)
(0.184383 0.00166055 0)
(0.183556 0.00162731 0)
(0.183113 0.00160458 0)
(0.182251 0.00157198 0)
(0.181824 0.00155109 0)
(0.180927 0.00151907 0)
(0.18052 0.00150007 0)
(0.179584 0.0014686 0)
(0.179202 0.00145153 0)
(0.178225 0.00142059 0)
(0.177873 0.00140551 0)
(0.176852 0.00137512 0)
(0.176533 0.00136207 0)
(0.175465 0.0013323 0)
(0.175186 0.00132131 0)
(0.174065 0.00129233 0)
(0.173831 0.00128341 0)
(0.172653 0.00125552 0)
(0.17247 0.00124866 0)
(0.17123 0.00122239 0)
(0.171103 0.00121772 0)
(0.169794 0.00119404 0)
(0.169729 0.00119202 0)
(0.168347 0.0011721 0)
(0.197301 0.00586177 0)
(0.197574 0.00654839 0)
(0.198007 0.00718916 0)
(0.198604 0.00771646 0)
(0.199341 0.00806425 0)
(0.200142 0.00820278 0)
(0.200928 0.00815206 0)
(0.201623 0.00796186 0)
(0.202199 0.00768457 0)
(0.202641 0.00736074 0)
(0.202973 0.00702012 0)
(0.203199 0.00668488 0)
(0.203355 0.00637207 0)
(0.203446 0.00609102 0)
(0.203507 0.00584404 0)
(0.203536 0.00562729 0)
(0.203562 0.00543552 0)
(0.20357 0.00526294 0)
(0.203583 0.00510597 0)
(0.20358 0.00496126 0)
(0.203584 0.00482744 0)
(0.203569 0.0047024 0)
(0.203564 0.00458567 0)
(0.203538 0.00447555 0)
(0.203525 0.00437207 0)
(0.20349 0.00427375 0)
(0.20347 0.00418099 0)
(0.203426 0.00409234 0)
(0.203399 0.00400847 0)
(0.203345 0.00392787 0)
(0.203312 0.00385143 0)
(0.203248 0.0037775 0)
(0.203208 0.00370726 0)
(0.203134 0.00363888 0)
(0.203086 0.00357382 0)
(0.203 0.00351008 0)
(0.202944 0.00344942 0)
(0.202845 0.0033896 0)
(0.20278 0.00333271 0)
(0.202667 0.00327624 0)
(0.202592 0.00322263 0)
(0.202463 0.00316906 0)
(0.202378 0.00311835 0)
(0.202231 0.00306731 0)
(0.202135 0.00301918 0)
(0.20197 0.00297036 0)
(0.201862 0.00292457 0)
(0.201676 0.00287772 0)
(0.201556 0.00283407 0)
(0.201349 0.00278897 0)
(0.201216 0.00274728 0)
(0.200987 0.00270376 0)
(0.200841 0.00266391 0)
(0.200588 0.00262179 0)
(0.20043 0.00258367 0)
(0.200152 0.00254283 0)
(0.199981 0.00250634 0)
(0.199677 0.00246665 0)
(0.199494 0.00243174 0)
(0.199163 0.0023931 0)
(0.198969 0.00235971 0)
(0.19861 0.00232201 0)
(0.198405 0.00229011 0)
(0.198018 0.00225326 0)
(0.197803 0.00222283 0)
(0.197387 0.00218674 0)
(0.197163 0.00215777 0)
(0.196717 0.00212237 0)
(0.196487 0.00209485 0)
(0.196009 0.00206007 0)
(0.195773 0.002034 0)
(0.195263 0.00199977 0)
(0.195025 0.00197519 0)
(0.194481 0.00194144 0)
(0.194241 0.00191836 0)
(0.193664 0.00188504 0)
(0.193425 0.00186349 0)
(0.192812 0.00183055 0)
(0.192577 0.00181057 0)
(0.191927 0.00177798 0)
(0.191698 0.00175961 0)
(0.19101 0.00172734 0)
(0.19079 0.00171063 0)
(0.190062 0.00167869 0)
(0.189855 0.00166367 0)
(0.189085 0.00163209 0)
(0.188892 0.00161881 0)
(0.188079 0.00158766 0)
(0.187905 0.00157615 0)
(0.187046 0.00154556 0)
(0.186894 0.00153586 0)
(0.185987 0.00150606 0)
(0.185859 0.00149818 0)
(0.184901 0.0014695 0)
(0.184802 0.00146352 0)
(0.183791 0.00143651 0)
(0.183722 0.00143262 0)
(0.182655 0.00140813 0)
(0.182621 0.00140676 0)
(0.181497 0.0013854 0)
(0.197696 0.00567258 0)
(0.19795 0.00625998 0)
(0.198333 0.00680659 0)
(0.198843 0.00726428 0)
(0.199467 0.00758573 0)
(0.200149 0.00774298 0)
(0.200835 0.00774103 0)
(0.201457 0.00761136 0)
(0.201991 0.00739584 0)
(0.202413 0.00713107 0)
(0.20274 0.00684515 0)
(0.202973 0.00655741 0)
(0.203145 0.00628261 0)
(0.203254 0.00602925 0)
(0.203334 0.00580154 0)
(0.20338 0.00559789 0)
(0.203421 0.00541553 0)
(0.20344 0.00524977 0)
(0.203465 0.00509816 0)
(0.20347 0.00495747 0)
(0.203484 0.00482703 0)
(0.203477 0.00470461 0)
(0.203483 0.00459033 0)
(0.203467 0.00448218 0)
(0.203466 0.00438069 0)
(0.203442 0.00428391 0)
(0.203436 0.0041928 0)
(0.203405 0.00410538 0)
(0.203397 0.00402294 0)
(0.20336 0.00394336 0)
(0.203349 0.00386824 0)
(0.203308 0.00379526 0)
(0.203295 0.00372634 0)
(0.203248 0.00365892 0)
(0.203234 0.00359527 0)
(0.203181 0.00353256 0)
(0.203166 0.00347345 0)
(0.203107 0.00341478 0)
(0.20309 0.00335962 0)
(0.203024 0.00330445 0)
(0.203005 0.00325277 0)
(0.202932 0.00320066 0)
(0.202911 0.0031521 0)
(0.20283 0.00310267 0)
(0.202806 0.00305691 0)
(0.202715 0.00300987 0)
(0.202689 0.00296667 0)
(0.202587 0.00292175 0)
(0.202558 0.00288089 0)
(0.202444 0.00283786 0)
(0.202411 0.00279916 0)
(0.202284 0.00275783 0)
(0.202248 0.00272114 0)
(0.202106 0.00268131 0)
(0.202066 0.0026465 0)
(0.201909 0.00260803 0)
(0.201864 0.00257499 0)
(0.20169 0.00253771 0)
(0.20164 0.00250635 0)
(0.201448 0.00247014 0)
(0.201394 0.00244038 0)
(0.201182 0.00240512 0)
(0.201123 0.00237689 0)
(0.20089 0.00234246 0)
(0.200828 0.00231572 0)
(0.200573 0.00228201 0)
(0.200506 0.00225671 0)
(0.200227 0.00222363 0)
(0.200157 0.00219975 0)
(0.199854 0.00216722 0)
(0.19978 0.00214473 0)
(0.199451 0.00211266 0)
(0.199375 0.00209155 0)
(0.199019 0.00205989 0)
(0.198941 0.00204016 0)
(0.198557 0.00200884 0)
(0.198478 0.00199048 0)
(0.198064 0.00195947 0)
(0.197986 0.00194249 0)
(0.197541 0.00191176 0)
(0.197464 0.00189618 0)
(0.196987 0.00186574 0)
(0.196913 0.00185157 0)
(0.196402 0.00182144 0)
(0.196332 0.00180869 0)
(0.195787 0.00177892 0)
(0.195722 0.00176761 0)
(0.195141 0.00173832 0)
(0.195082 0.00172846 0)
(0.194464 0.00169982 0)
(0.194414 0.00169144 0)
(0.193758 0.00166368 0)
(0.193716 0.00165681 0)
(0.193021 0.00163029 0)
(0.192989 0.00162505 0)
(0.192254 0.00160028 0)
(0.192233 0.00159693 0)
(0.191457 0.00157465 0)
(0.191447 0.00157354 0)
(0.190631 0.00155404 0)
(0.198044 0.0054908 0)
(0.198279 0.0059971 0)
(0.198619 0.00646775 0)
(0.199059 0.00686703 0)
(0.199592 0.00716077 0)
(0.200173 0.00732534 0)
(0.200769 0.00735882 0)
(0.201323 0.00727927 0)
(0.201813 0.00711787 0)
(0.20221 0.00690531 0)
(0.20253 0.00666762 0)
(0.202765 0.0064224 0)
(0.202947 0.00618305 0)
(0.203069 0.00595699 0)
(0.203165 0.00574936 0)
(0.203224 0.00555994 0)
(0.203277 0.0053881 0)
(0.203306 0.00523015 0)
(0.203339 0.00508481 0)
(0.203351 0.00494895 0)
(0.203372 0.00482255 0)
(0.203371 0.00470324 0)
(0.203382 0.00459171 0)
(0.203371 0.00448566 0)
(0.203375 0.00438617 0)
(0.203356 0.00429088 0)
(0.203355 0.00420125 0)
(0.20333 0.00411483 0)
(0.203327 0.00403348 0)
(0.203297 0.00395455 0)
(0.203292 0.00388026 0)
(0.203258 0.0038077 0)
(0.203253 0.00373944 0)
(0.203214 0.0036723 0)
(0.203209 0.00360924 0)
(0.203168 0.00354674 0)
(0.203164 0.0034882 0)
(0.203118 0.00342972 0)
(0.203115 0.00337517 0)
(0.203066 0.0033202 0)
(0.203064 0.0032692 0)
(0.203012 0.00321734 0)
(0.203011 0.00316954 0)
(0.202954 0.00312044 0)
(0.202955 0.00307556 0)
(0.202893 0.00302893 0)
(0.202895 0.00298673 0)
(0.202827 0.00294233 0)
(0.202831 0.0029026 0)
(0.202757 0.00286022 0)
(0.202762 0.00282279 0)
(0.202682 0.00278222 0)
(0.202688 0.00274695 0)
(0.202599 0.00270802 0)
(0.202606 0.00267477 0)
(0.202509 0.00263731 0)
(0.202517 0.00260597 0)
(0.20241 0.00256985 0)
(0.202418 0.00254031 0)
(0.202301 0.00250539 0)
(0.20231 0.00247756 0)
(0.202181 0.00244372 0)
(0.20219 0.00241753 0)
(0.202048 0.00238463 0)
(0.202057 0.00236001 0)
(0.201902 0.00232796 0)
(0.201911 0.00230484 0)
(0.201741 0.00227354 0)
(0.20175 0.00225186 0)
(0.201564 0.00222124 0)
(0.201573 0.00220096 0)
(0.20137 0.00217092 0)
(0.201379 0.002152 0)
(0.201158 0.00212248 0)
(0.201166 0.00210488 0)
(0.200926 0.00207585 0)
(0.200935 0.00205953 0)
(0.200675 0.00203094 0)
(0.200683 0.00201589 0)
(0.200402 0.00198773 0)
(0.20041 0.00197393 0)
(0.200107 0.0019462 0)
(0.200115 0.00193363 0)
(0.199789 0.00190638 0)
(0.199797 0.00189501 0)
(0.199447 0.00186832 0)
(0.199455 0.00185816 0)
(0.199081 0.00183213 0)
(0.19909 0.00182317 0)
(0.19869 0.00179798 0)
(0.198698 0.00179025 0)
(0.198274 0.00176613 0)
(0.198281 0.0017597 0)
(0.197831 0.00173697 0)
(0.197838 0.00173198 0)
(0.197361 0.00171112 0)
(0.197366 0.00170786 0)
(0.196863 0.00168948 0)
(0.196867 0.00168825 0)
(0.196338 0.0016725 0)
(0.19835 0.00531715 0)
(0.198568 0.00575693 0)
(0.198871 0.00616552 0)
(0.199252 0.00651593 0)
(0.19971 0.00678302 0)
(0.200208 0.00694764 0)
(0.200726 0.00700534 0)
(0.201215 0.00696556 0)
(0.20166 0.00685031 0)
(0.202032 0.00668371 0)
(0.20234 0.00648886 0)
(0.202574 0.00628174 0)
(0.20276 0.006075 0)
(0.202892 0.00587524 0)
(0.202999 0.00568795 0)
(0.203069 0.00551367 0)
(0.203132 0.00535332 0)
(0.20317 0.00520416 0)
(0.20321 0.00506593 0)
(0.203229 0.0049357 0)
(0.203255 0.00481403 0)
(0.20326 0.00469843 0)
(0.203275 0.00459009 0)
(0.203268 0.00448655 0)
(0.203276 0.0043893 0)
(0.203261 0.00429573 0)
(0.203263 0.00420771 0)
(0.203242 0.00412245 0)
(0.203241 0.00404223 0)
(0.203215 0.00396404 0)
(0.203212 0.00389051 0)
(0.203182 0.00381838 0)
(0.203179 0.00375065 0)
(0.203145 0.00368373 0)
(0.203142 0.00362103 0)
(0.203106 0.0035586 0)
(0.203103 0.00350032 0)
(0.203065 0.00344182 0)
(0.203063 0.00338746 0)
(0.203022 0.00333243 0)
(0.203023 0.00328158 0)
(0.202979 0.00322963 0)
(0.202982 0.00318197 0)
(0.202936 0.00313279 0)
(0.20294 0.00308806 0)
(0.202892 0.00304139 0)
(0.202899 0.00299936 0)
(0.202847 0.00295496 0)
(0.202857 0.00291545 0)
(0.202802 0.00287313 0)
(0.202815 0.00283597 0)
(0.202756 0.00279555 0)
(0.202771 0.0027606 0)
(0.202709 0.00272191 0)
(0.202726 0.00268904 0)
(0.20266 0.00265194 0)
(0.20268 0.00262104 0)
(0.202609 0.00258539 0)
(0.202631 0.00255635 0)
(0.202554 0.00252203 0)
(0.202579 0.00249477 0)
(0.202496 0.00246167 0)
(0.202523 0.00243609 0)
(0.202434 0.0024041 0)
(0.202463 0.00238012 0)
(0.202366 0.00234915 0)
(0.202397 0.0023267 0)
(0.202292 0.00229665 0)
(0.202325 0.00227567 0)
(0.202212 0.00224647 0)
(0.202246 0.00222689 0)
(0.202124 0.00219847 0)
(0.202159 0.00218023 0)
(0.202026 0.00215254 0)
(0.202063 0.00213559 0)
(0.20192 0.00210859 0)
(0.201956 0.00209287 0)
(0.201802 0.00206653 0)
(0.201839 0.00205201 0)
(0.201673 0.00202633 0)
(0.20171 0.00201296 0)
(0.201531 0.00198796 0)
(0.201568 0.00197571 0)
(0.201376 0.00195142 0)
(0.201411 0.00194026 0)
(0.201206 0.00191677 0)
(0.201239 0.00190669 0)
(0.20102 0.00188409 0)
(0.201052 0.00187509 0)
(0.200818 0.00185354 0)
(0.200846 0.00184566 0)
(0.200598 0.00182538 0)
(0.200623 0.00181871 0)
(0.200359 0.00179998 0)
(0.200379 0.00179471 0)
(0.200101 0.00177794 0)
(0.200116 0.00177438 0)
(0.199822 0.00176006 0)
(0.199831 0.00175847 0)
(0.199523 0.00174673 0)