/*--------------------------------*- C++ -*----------------------------------*\
| =========                 |                                                 |
| \\      /  F ield         | OpenFOAM: The Open Source CFD Toolbox           |
|  \\    /   O peration     | Version:  2.3.0                                 |
|   \\  /    A nd           | Web:      www.OpenFOAM.org                      |
|    \\/     M anipulation  |                                                 |
\*---------------------------------------------------------------------------*/
FoamFile
{
    version     2.0;
    format      ascii;
    class       surfaceScalarField;
    location    "0.95";
    object      phi;
}
// * * * * * * * * * * * * * * * * * * * * * * * * * * * * * * * * * * * * * //

dimensions      [0 3 -1 0 0 0 0];

internalField   nonuniform List<scalar> 
3859
(
2.80018e-08
2.91597e-09
-3.09177e-08
2.51066e-08
2.89515e-09
2.2391e-08
2.71558e-09
1.98899e-08
2.50117e-09
1.76206e-08
2.26929e-09
1.55948e-08
2.02579e-09
1.38153e-08
1.77945e-09
1.22767e-08
1.5386e-09
1.09664e-08
1.31032e-09
9.86602e-09
1.1004e-09
8.95294e-09
9.13078e-10
8.20214e-09
7.50802e-10
7.588e-09
6.1414e-10
7.08595e-09
5.02045e-10
6.6737e-09
4.12249e-10
6.33196e-09
3.41742e-10
6.04474e-09
2.87219e-10
5.79929e-09
2.4545e-10
5.58577e-09
2.13523e-10
5.39679e-09
1.88978e-10
5.22695e-09
1.69838e-10
5.07236e-09
1.54589e-10
4.93025e-09
1.42114e-10
4.79863e-09
1.3162e-10
4.67607e-09
1.22558e-10
4.56151e-09
1.14561e-10
4.45413e-09
1.07386e-10
4.35325e-09
1.00876e-10
4.25832e-09
9.49259e-11
4.16886e-09
8.9466e-11
4.08441e-09
8.44449e-11
4.00459e-09
7.98229e-11
3.92902e-09
7.55667e-11
3.85738e-09
7.16465e-11
3.78934e-09
6.80346e-11
3.72464e-09
6.47053e-11
3.663e-09
6.16341e-11
3.60421e-09
5.87983e-11
3.54803e-09
5.61767e-11
3.49428e-09
5.37498e-11
3.44278e-09
5.14996e-11
3.39337e-09
4.941e-11
3.3459e-09
4.74662e-11
3.30025e-09
4.56549e-11
3.25628e-09
4.39644e-11
3.2139e-09
4.23838e-11
3.173e-09
4.09036e-11
3.13348e-09
3.95154e-11
3.09527e-09
3.82113e-11
3.05829e-09
3.69844e-11
3.02246e-09
3.58286e-11
2.98772e-09
3.47383e-11
2.95401e-09
3.37084e-11
2.92128e-09
3.27342e-11
2.88946e-09
3.18118e-11
2.85853e-09
3.09372e-11
2.82842e-09
3.0107e-11
2.7991e-09
2.93181e-11
2.77053e-09
2.85676e-11
2.74268e-09
2.78528e-11
2.71551e-09
2.71714e-11
2.68899e-09
2.6521e-11
2.66309e-09
2.58996e-11
2.63778e-09
2.53054e-11
2.61305e-09
2.47365e-11
2.58886e-09
2.41915e-11
2.56519e-09
2.36689e-11
2.54202e-09
2.31672e-11
2.51933e-09
2.26852e-11
2.49711e-09
2.22219e-11
2.47534e-09
2.1776e-11
2.45399e-09
2.13468e-11
2.43306e-09
2.09333e-11
2.41252e-09
2.05346e-11
2.39237e-09
2.01502e-11
2.37259e-09
1.97793e-11
2.35317e-09
1.94213e-11
2.3341e-09
1.90757e-11
2.31535e-09
1.8742e-11
2.29693e-09
1.84199e-11
2.27883e-09
1.8109e-11
2.26102e-09
1.7809e-11
2.2435e-09
1.75198e-11
2.22626e-09
1.72412e-11
2.20928e-09
1.69731e-11
2.19257e-09
1.67156e-11
2.1761e-09
1.64688e-11
2.15986e-09
1.62329e-11
2.14386e-09
1.60085e-11
2.12806e-09
1.57961e-11
2.11246e-09
1.55968e-11
2.09705e-09
1.54123e-11
2.08181e-09
1.52453e-11
2.0667e-09
1.5101e-11
2.05171e-09
1.49904e-11
2.03678e-09
1.49392e-11
2.02176e-09
1.50164e-11
2.00643e-09
1.53248e-11
1.98927e-09
1.71624e-11
4.71391e-11
3.59109e-08
3.19939e-09
-3.61943e-08
3.53025e-08
3.5035e-09
3.44502e-08
3.56787e-09
3.3432e-08
3.51936e-09
3.23049e-08
3.39639e-09
3.11162e-08
3.21453e-09
2.99044e-08
2.99121e-09
2.86995e-08
2.74355e-09
2.75235e-08
2.48628e-09
2.63923e-08
2.2316e-09
2.53162e-08
1.98917e-09
2.43012e-08
1.76586e-09
2.33497e-08
1.56566e-09
2.24617e-08
1.39006e-09
2.16354e-08
1.23855e-09
2.08678e-08
1.10928e-09
2.01554e-08
9.99602e-10
1.94943e-08
9.06627e-10
1.88803e-08
8.27521e-10
1.83095e-08
7.59735e-10
1.77782e-08
7.01099e-10
1.7283e-08
6.49843e-10
1.68205e-08
6.04566e-10
1.6388e-08
5.64187e-10
1.59826e-08
5.27879e-10
1.56022e-08
4.95014e-10
1.52445e-08
4.65111e-10
1.49075e-08
4.37798e-10
1.45897e-08
4.1278e-10
1.42893e-08
3.89815e-10
1.40051e-08
3.687e-10
1.37356e-08
3.49262e-10
1.34799e-08
3.31345e-10
1.32367e-08
3.14813e-10
1.30052e-08
2.99542e-10
1.27845e-08
2.85418e-10
1.25738e-08
2.7234e-10
1.23724e-08
2.60213e-10
1.21796e-08
2.48955e-10
1.19948e-08
2.38486e-10
1.18176e-08
2.28739e-10
1.16474e-08
2.1965e-10
1.14837e-08
2.11162e-10
1.13261e-08
2.03225e-10
1.11743e-08
1.95792e-10
1.10278e-08
1.88821e-10
1.08865e-08
1.82275e-10
1.07499e-08
1.7612e-10
1.06177e-08
1.70326e-10
1.04899e-08
1.64864e-10
1.0366e-08
1.59709e-10
1.02459e-08
1.54839e-10
1.01294e-08
1.50232e-10
1.00162e-08
1.4587e-10
9.9063e-09
1.41735e-10
9.79943e-09
1.37811e-10
9.69545e-09
1.34084e-10
9.59423e-09
1.30539e-10
9.49563e-09
1.27166e-10
9.39954e-09
1.23952e-10
9.30582e-09
1.20886e-10
9.21438e-09
1.1796e-10
9.12512e-09
1.15164e-10
9.03793e-09
1.12489e-10
8.95274e-09
1.09929e-10
8.86946e-09
1.07476e-10
8.788e-09
1.05124e-10
8.7083e-09
1.02867e-10
8.63029e-09
1.00698e-10
8.5539e-09
9.86133e-11
8.47906e-09
9.66078e-11
8.40573e-09
9.46769e-11
8.33385e-09
9.28168e-11
8.26336e-09
9.10236e-11
8.19422e-09
8.92941e-11
8.12637e-09
8.76251e-11
8.05978e-09
8.60138e-11
7.9944e-09
8.44577e-11
7.93019e-09
8.29544e-11
7.8671e-09
8.1502e-11
7.80511e-09
8.00988e-11
7.74418e-09
7.87431e-11
7.68427e-09
7.74339e-11
7.62534e-09
7.617e-11
7.56736e-09
7.4951e-11
7.5103e-09
7.37765e-11
7.45412e-09
7.26466e-11
7.39879e-09
7.15617e-11
7.34428e-09
7.0523e-11
7.29054e-09
6.95327e-11
7.23754e-09
6.85937e-11
7.18524e-09
6.77114e-11
7.13359e-09
6.6895e-11
7.08253e-09
6.61619e-11
7.03198e-09
6.55483e-11
6.98177e-09
6.51412e-11
6.93163e-09
6.51612e-11
6.88067e-09
6.62815e-11
6.82291e-09
7.49238e-11
1.28384e-10
4.05732e-08
3.02728e-09
-4.04011e-08
4.06627e-08
3.41401e-09
4.06248e-08
3.60576e-09
4.04613e-08
3.68282e-09
4.01801e-08
3.67764e-09
3.97933e-08
3.60134e-09
3.93173e-08
3.46713e-09
3.877e-08
3.29087e-09
3.81684e-08
3.08786e-09
3.75283e-08
2.87173e-09
3.68634e-08
2.65407e-09
3.61853e-08
2.44398e-09
3.55032e-08
2.24774e-09
3.48242e-08
2.069e-09
3.41537e-08
1.90915e-09
3.34951e-08
1.76788e-09
3.28509e-08
1.64378e-09
3.22227e-08
1.53485e-09
3.16113e-08
1.43891e-09
3.10172e-08
1.35384e-09
3.04405e-08
1.27777e-09
2.98812e-08
1.20911e-09
2.93392e-08
1.14658e-09
2.88142e-08
1.08917e-09
2.8306e-08
1.03611e-09
2.78142e-08
9.86816e-10
2.73385e-08
9.4083e-10
2.68785e-08
8.9781e-10
2.64338e-08
8.57485e-10
2.60039e-08
8.19632e-10
2.55886e-08
7.84068e-10
2.51872e-08
7.50633e-10
2.47994e-08
7.19185e-10
2.44246e-08
6.89592e-10
2.40624e-08
6.61737e-10
2.37123e-08
6.35507e-10
2.33738e-08
6.10797e-10
2.30465e-08
5.87509e-10
2.27299e-08
5.65552e-10
2.24236e-08
5.44838e-10
2.2127e-08
5.25287e-10
2.18399e-08
5.06823e-10
2.15617e-08
4.89375e-10
2.1292e-08
4.72878e-10
2.10305e-08
4.5727e-10
2.07769e-08
4.42494e-10
2.05306e-08
4.28496e-10
2.02915e-08
4.15227e-10
2.00592e-08
4.0264e-10
1.98334e-08
3.90691e-10
1.96138e-08
3.79342e-10
1.94e-08
3.68554e-10
1.9192e-08
3.58292e-10
1.89893e-08
3.48524e-10
1.87918e-08
3.39219e-10
1.85993e-08
3.30348e-10
1.84115e-08
3.21886e-10
1.82282e-08
3.13807e-10
1.80493e-08
3.06089e-10
1.78746e-08
2.98709e-10
1.77038e-08
2.91647e-10
1.75369e-08
2.84885e-10
1.73736e-08
2.78405e-10
1.72139e-08
2.7219e-10
1.70576e-08
2.66226e-10
1.69046e-08
2.60498e-10
1.67547e-08
2.54992e-10
1.66079e-08
2.49696e-10
1.6464e-08
2.44599e-10
1.63229e-08
2.3969e-10
1.61846e-08
2.34958e-10
1.60489e-08
2.30395e-10
1.59157e-08
2.25991e-10
1.5785e-08
2.2174e-10
1.56566e-08
2.17632e-10
1.55306e-08
2.13662e-10
1.54068e-08
2.09823e-10
1.52851e-08
2.0611e-10
1.51656e-08
2.02517e-10
1.5048e-08
1.9904e-10
1.49325e-08
1.95675e-10
1.48188e-08
1.92418e-10
1.4707e-08
1.89265e-10
1.45969e-08
1.86216e-10
1.44886e-08
1.83267e-10
1.4382e-08
1.80419e-10
1.42769e-08
1.77669e-10
1.41735e-08
1.7502e-10
1.40715e-08
1.72474e-10
1.3971e-08
1.70032e-10
1.38719e-08
1.67703e-10
1.37741e-08
1.65495e-10
1.36776e-08
1.63427e-10
1.35822e-08
1.61532e-10
1.34879e-08
1.59882e-10
1.33944e-08
1.58647e-10
1.33013e-08
1.5828e-10
1.32071e-08
1.6045e-10
1.31068e-08
1.75227e-10
2.33888e-10
4.50676e-08
2.81496e-09
-4.48552e-08
4.52967e-08
3.18488e-09
4.5491e-08
3.41146e-09
4.56345e-08
3.5393e-09
4.57181e-08
3.59405e-09
4.5735e-08
3.58449e-09
4.5683e-08
3.51905e-09
4.55646e-08
3.40934e-09
4.53847e-08
3.26777e-09
4.51503e-08
3.1061e-09
4.48695e-08
2.93485e-09
4.45506e-08
2.76286e-09
4.42015e-08
2.59682e-09
4.38293e-08
2.44121e-09
4.344e-08
2.29849e-09
4.30384e-08
2.16949e-09
4.26283e-08
2.05386e-09
4.22127e-08
1.9505e-09
4.17936e-08
1.85795e-09
4.13728e-08
1.77464e-09
4.09515e-08
1.6991e-09
4.05306e-08
1.63001e-09
4.01109e-08
1.56627e-09
3.9693e-08
1.50701e-09
3.92776e-08
1.45154e-09
3.88651e-08
1.39933e-09
3.84559e-08
1.34998e-09
3.80506e-08
1.30319e-09
3.76493e-08
1.25873e-09
3.72525e-08
1.2164e-09
3.68605e-08
1.17608e-09
3.64735e-08
1.13763e-09
3.60918e-08
1.10095e-09
3.57154e-08
1.06595e-09
3.53446e-08
1.03253e-09
3.49795e-08
1.00062e-09
3.46201e-08
9.70147e-10
3.42666e-08
9.41029e-10
3.3919e-08
9.13201e-10
3.35772e-08
8.866e-10
3.32413e-08
8.61164e-10
3.29113e-08
8.36834e-10
3.25872e-08
8.13554e-10
3.22688e-08
7.91272e-10
3.19561e-08
7.69939e-10
3.16491e-08
7.49506e-10
3.13476e-08
7.29931e-10
3.10517e-08
7.11169e-10
3.07612e-08
6.93181e-10
3.04759e-08
6.7593e-10
3.01959e-08
6.59379e-10
2.99209e-08
6.43493e-10
2.9651e-08
6.2824e-10
2.93859e-08
6.13589e-10
2.91256e-08
5.99511e-10
2.887e-08
5.85978e-10
2.86189e-08
5.72963e-10
2.83723e-08
5.60441e-10
2.813e-08
5.48387e-10
2.78919e-08
5.3678e-10
2.7658e-08
5.25596e-10
2.7428e-08
5.14817e-10
2.7202e-08
5.04421e-10
2.69798e-08
4.9439e-10
2.67614e-08
4.84708e-10
2.65465e-08
4.75356e-10
2.63352e-08
4.6632e-10
2.61273e-08
4.57584e-10
2.59227e-08
4.49135e-10
2.57215e-08
4.40958e-10
2.55234e-08
4.33041e-10
2.53284e-08
4.25373e-10
2.51365e-08
4.17942e-10
2.49475e-08
4.10738e-10
2.47613e-08
4.03752e-10
2.4578e-08
3.96973e-10
2.43975e-08
3.90395e-10
2.42196e-08
3.84008e-10
2.40443e-08
3.77807e-10
2.38715e-08
3.71786e-10
2.37013e-08
3.65937e-10
2.35334e-08
3.60257e-10
2.33679e-08
3.54742e-10
2.32048e-08
3.49388e-10
2.30439e-08
3.44193e-10
2.28851e-08
3.39156e-10
2.27285e-08
3.34277e-10
2.2574e-08
3.29557e-10
2.24214e-08
3.24999e-10
2.22709e-08
3.2061e-10
2.21222e-08
3.16399e-10
2.19753e-08
3.12382e-10
2.18301e-08
3.08588e-10
2.16866e-08
3.05069e-10
2.15445e-08
3.01935e-10
2.14037e-08
2.99444e-10
2.12637e-08
2.98303e-10
2.11232e-08
3.0097e-10
2.09811e-08
3.17324e-10
3.65931e-10
4.9941e-08
2.63111e-09
-4.97572e-08
5.01688e-08
2.95713e-09
5.03985e-08
3.18172e-09
5.06136e-08
3.32421e-09
5.08046e-08
3.40301e-09
5.09626e-08
3.42647e-09
5.10807e-08
3.401e-09
5.1155e-08
3.33509e-09
5.11843e-08
3.23838e-09
5.11701e-08
3.12037e-09
5.11151e-08
2.98978e-09
5.10238e-08
2.85418e-09
5.0901e-08
2.71967e-09
5.07515e-08
2.59067e-09
5.058e-08
2.46997e-09
5.03905e-08
2.35898e-09
5.01864e-08
2.25801e-09
4.99702e-08
2.16665e-09
4.97442e-08
2.08404e-09
4.95097e-08
2.0091e-09
4.92681e-08
1.94072e-09
4.90202e-08
1.87787e-09
4.87668e-08
1.81965e-09
4.85085e-08
1.76531e-09
4.82458e-08
1.71424e-09
4.79792e-08
1.66596e-09
4.77091e-08
1.62011e-09
4.74359e-08
1.57641e-09
4.716e-08
1.53464e-09
4.68817e-08
1.49465e-09
4.66015e-08
1.45631e-09
4.63196e-08
1.4195e-09
4.60364e-08
1.38414e-09
4.57522e-08
1.35016e-09
4.54673e-08
1.31748e-09
4.51819e-08
1.28605e-09
4.48962e-08
1.2558e-09
4.46105e-08
1.22668e-09
4.43251e-08
1.19864e-09
4.40401e-08
1.17164e-09
4.37556e-08
1.14561e-09
4.34719e-08
1.12053e-09
4.31891e-08
1.09634e-09
4.29074e-08
1.07301e-09
4.26268e-08
1.0505e-09
4.23476e-08
1.02877e-09
4.20697e-08
1.00779e-09
4.17934e-08
9.87527e-10
4.15186e-08
9.67946e-10
4.12455e-08
9.4902e-10
4.09742e-08
9.3072e-10
4.07046e-08
9.13019e-10
4.0437e-08
8.95892e-10
4.01713e-08
8.79314e-10
3.99075e-08
8.63262e-10
3.96458e-08
8.47713e-10
3.93861e-08
8.32646e-10
3.91285e-08
8.1804e-10
3.8873e-08
8.03876e-10
3.86196e-08
7.90135e-10
3.83684e-08
7.768e-10
3.81194e-08
7.63852e-10
3.78725e-08
7.51277e-10
3.76279e-08
7.39058e-10
3.73854e-08
7.2718e-10
3.71451e-08
7.1563e-10
3.69071e-08
7.04394e-10
3.66712e-08
6.93459e-10
3.64375e-08
6.82814e-10
3.6206e-08
6.72445e-10
3.59767e-08
6.62344e-10
3.57496e-08
6.52499e-10
3.55246e-08
6.42901e-10
3.53018e-08
6.3354e-10
3.50812e-08
6.24409e-10
3.48626e-08
6.15499e-10
3.46462e-08
6.06803e-10
3.44319e-08
5.98315e-10
3.42197e-08
5.90029e-10
3.40096e-08
5.81939e-10
3.38014e-08
5.74041e-10
3.35954e-08
5.66332e-10
3.33913e-08
5.58809e-10
3.31892e-08
5.51469e-10
3.29891e-08
5.44313e-10
3.27909e-08
5.37341e-10
3.25946e-08
5.30554e-10
3.24002e-08
5.23958e-10
3.22077e-08
5.17559e-10
3.20169e-08
5.11366e-10
3.18279e-08
5.05394e-10
3.16406e-08
4.99668e-10
3.1455e-08
4.94227e-10
3.12709e-08
4.89141e-10
3.10883e-08
4.84555e-10
3.0907e-08
4.80793e-10
3.07266e-08
4.78696e-10
3.05468e-08
4.80742e-10
3.03704e-08
4.93704e-10
5.22e-10
5.5318e-08
2.47752e-09
-5.51644e-08
5.55195e-08
2.75562e-09
5.5737e-08
2.96422e-09
5.59537e-08
3.1075e-09
5.61606e-08
3.19614e-09
5.63499e-08
3.23714e-09
5.65151e-08
3.23582e-09
5.66516e-08
3.1986e-09
5.6757e-08
3.13299e-09
5.68307e-08
3.04663e-09
5.68738e-08
2.9467e-09
5.68884e-08
2.83955e-09
5.68776e-08
2.73048e-09
5.68447e-08
2.62357e-09
5.67931e-08
2.52161e-09
5.67258e-08
2.42627e-09
5.66455e-08
2.3383e-09
5.65544e-08
2.25775e-09
5.64542e-08
2.18424e-09
5.63462e-08
2.1171e-09
5.62313e-08
2.05557e-09
5.61103e-08
1.99887e-09
5.59837e-08
1.9463e-09
5.58518e-08
1.89723e-09
5.57149e-08
1.85115e-09
5.55732e-08
1.80762e-09
5.5427e-08
1.76632e-09
5.52764e-08
1.72699e-09
5.51216e-08
1.68941e-09
5.49628e-08
1.65343e-09
5.48002e-08
1.61893e-09
5.46339e-08
1.58579e-09
5.44641e-08
1.55393e-09
5.4291e-08
1.52328e-09
5.41147e-08
1.49377e-09
5.39354e-08
1.46535e-09
5.37532e-08
1.43797e-09
5.35684e-08
1.41156e-09
5.33809e-08
1.38609e-09
5.3191e-08
1.36152e-09
5.29989e-08
1.33779e-09
5.28045e-08
1.31487e-09
5.26081e-08
1.29273e-09
5.24098e-08
1.27132e-09
5.22097e-08
1.25061e-09
5.20079e-08
1.23058e-09
5.18045e-08
1.21118e-09
5.15997e-08
1.19239e-09
5.13934e-08
1.17418e-09
5.11859e-08
1.15653e-09
5.09772e-08
1.13941e-09
5.07675e-08
1.12279e-09
5.05567e-08
1.10666e-09
5.0345e-08
1.09098e-09
5.01325e-08
1.07575e-09
4.99193e-08
1.06094e-09
4.97054e-08
1.04653e-09
4.9491e-08
1.0325e-09
4.9276e-08
1.01884e-09
4.90606e-08
1.00553e-09
4.88449e-08
9.92552e-10
4.86288e-08
9.79894e-10
4.84126e-08
9.67541e-10
4.81961e-08
9.5548e-10
4.79796e-08
9.43698e-10
4.77631e-08
9.32183e-10
4.75465e-08
9.20923e-10
4.73301e-08
9.09907e-10
4.71138e-08
8.99126e-10
4.68976e-08
8.8857e-10
4.66818e-08
8.7823e-10
4.64662e-08
8.68096e-10
4.62509e-08
8.58163e-10
4.6036e-08
8.48421e-10
4.58216e-08
8.38866e-10
4.56076e-08
8.2949e-10
4.53941e-08
8.20288e-10
4.51811e-08
8.11257e-10
4.49688e-08
8.02391e-10
4.4757e-08
7.93688e-10
4.45459e-08
7.85145e-10
4.43355e-08
7.7676e-10
4.41258e-08
7.68535e-10
4.39168e-08
7.60468e-10
4.37085e-08
7.52563e-10
4.3501e-08
7.44822e-10
4.32943e-08
7.37251e-10
4.30884e-08
7.29858e-10
4.28834e-08
7.22653e-10
4.26791e-08
7.15652e-10
4.24756e-08
7.08875e-10
4.22729e-08
7.02354e-10
4.2071e-08
6.96137e-10
4.18698e-08
6.9031e-10
4.16693e-08
6.85031e-10
4.14695e-08
6.80631e-10
4.12703e-08
6.77862e-10
4.10727e-08
6.78421e-10
4.08815e-08
6.8482e-10
6.90162e-10
6.12601e-08
2.347e-09
-6.11296e-08
6.14347e-08
2.58106e-09
6.16306e-08
2.76829e-09
6.18322e-08
2.9059e-09
6.20301e-08
2.99827e-09
6.22171e-08
3.05012e-09
6.23873e-08
3.06558e-09
6.25364e-08
3.04947e-09
6.26619e-08
3.00753e-09
6.27628e-08
2.94579e-09
6.28393e-08
2.87011e-09
6.28931e-08
2.78577e-09
6.29263e-08
2.69733e-09
6.29414e-08
2.60844e-09
6.29412e-08
2.52177e-09
6.29284e-08
2.43913e-09
6.29051e-08
2.36153e-09
6.28735e-08
2.28941e-09
6.2835e-08
2.22274e-09
6.27909e-08
2.16124e-09
6.2742e-08
2.10444e-09
6.2689e-08
2.05184e-09
6.26324e-08
2.00292e-09
6.25724e-08
1.9572e-09
6.25093e-08
1.91428e-09
6.24431e-08
1.87379e-09
6.2374e-08
1.83545e-09
6.2302e-08
1.79902e-09
6.22271e-08
1.76431e-09
6.21494e-08
1.73117e-09
6.20688e-08
1.69947e-09
6.19855e-08
1.66912e-09
6.18994e-08
1.64003e-09
6.18105e-08
1.61212e-09
6.1719e-08
1.58533e-09
6.16248e-08
1.55959e-09
6.15279e-08
1.53487e-09
6.14283e-08
1.5111e-09
6.13262e-08
1.48824e-09
6.12214e-08
1.46624e-09
6.11142e-08
1.44506e-09
6.10044e-08
1.42467e-09
6.08921e-08
1.40502e-09
6.07773e-08
1.38607e-09
6.06601e-08
1.3678e-09
6.05405e-08
1.35017e-09
6.04186e-08
1.33314e-09
6.02943e-08
1.31668e-09
6.01677e-08
1.30078e-09
6.00388e-08
1.28539e-09
5.99077e-08
1.2705e-09
5.97745e-08
1.25608e-09
5.9639e-08
1.2421e-09
5.95015e-08
1.22854e-09
5.93618e-08
1.21538e-09
5.92202e-08
1.2026e-09
5.90765e-08
1.19018e-09
5.89309e-08
1.17811e-09
5.87834e-08
1.16635e-09
5.8634e-08
1.1549e-09
5.84828e-08
1.14374e-09
5.83299e-08
1.13285e-09
5.81752e-08
1.12223e-09
5.80188e-08
1.11184e-09
5.78608e-08
1.10169e-09
5.77013e-08
1.09176e-09
5.75401e-08
1.08204e-09
5.73775e-08
1.07251e-09
5.72135e-08
1.06317e-09
5.70481e-08
1.05401e-09
5.68813e-08
1.04501e-09
5.67132e-08
1.03617e-09
5.65439e-08
1.02748e-09
5.63734e-08
1.01894e-09
5.62017e-08
1.01054e-09
5.60289e-08
1.00226e-09
5.58551e-08
9.94118e-10
5.56802e-08
9.86095e-10
5.55044e-08
9.78192e-10
5.53277e-08
9.70406e-10
5.51501e-08
9.62736e-10
5.49717e-08
9.55181e-10
5.47925e-08
9.47743e-10
5.46125e-08
9.40423e-10
5.44319e-08
9.33224e-10
5.42506e-08
9.26154e-10
5.40686e-08
9.19219e-10
5.3886e-08
9.12429e-10
5.37029e-08
9.058e-10
5.35192e-08
8.99348e-10
5.33349e-08
8.931e-10
5.31502e-08
8.87092e-10
5.2965e-08
8.81378e-10
5.27792e-08
8.76042e-10
5.2593e-08
8.71231e-10
5.24065e-08
8.67204e-10
5.22199e-08
8.6441e-10
5.20349e-08
8.63392e-10
5.18567e-08
8.63028e-10
8.51057e-10
6.78247e-08
2.2341e-09
-6.77118e-08
6.79753e-08
2.43051e-09
6.81483e-08
2.59527e-09
6.83306e-08
2.72355e-09
6.85131e-08
2.8158e-09
6.86888e-08
2.87441e-09
6.88522e-08
2.90221e-09
6.8999e-08
2.90266e-09
6.91266e-08
2.87997e-09
6.92336e-08
2.83876e-09
6.93201e-08
2.78364e-09
6.93869e-08
2.71893e-09
6.94358e-08
2.64846e-09
6.94688e-08
2.57541e-09
6.94883e-08
2.50229e-09
6.94965e-08
2.43089e-09
6.94956e-08
2.36242e-09
6.94875e-08
2.29755e-09
6.94737e-08
2.23658e-09
6.94554e-08
2.17952e-09
6.94336e-08
2.12619e-09
6.94091e-08
2.07633e-09
6.93824e-08
2.02963e-09
6.93539e-08
1.98575e-09
6.93237e-08
1.94442e-09
6.92922e-08
1.90536e-09
6.92593e-08
1.86834e-09
6.92251e-08
1.83318e-09
6.91897e-08
1.79971e-09
6.91531e-08
1.7678e-09
6.91152e-08
1.73734e-09
6.90761e-08
1.70824e-09
6.90357e-08
1.68041e-09
6.8994e-08
1.6538e-09
6.8951e-08
1.62833e-09
6.89067e-08
1.60395e-09
6.88609e-08
1.58061e-09
6.88138e-08
1.55825e-09
6.87652e-08
1.53684e-09
6.87151e-08
1.51632e-09
6.86635e-08
1.49666e-09
6.86103e-08
1.47782e-09
6.85556e-08
1.45975e-09
6.84992e-08
1.44242e-09
6.84413e-08
1.42579e-09
6.83816e-08
1.40983e-09
6.83202e-08
1.39451e-09
6.82571e-08
1.37979e-09
6.81922e-08
1.36564e-09
6.81256e-08
1.35204e-09
6.80572e-08
1.33895e-09
6.79869e-08
1.32635e-09
6.79148e-08
1.31421e-09
6.78408e-08
1.30251e-09
6.7765e-08
1.29123e-09
6.76872e-08
1.28033e-09
6.76076e-08
1.26981e-09
6.75261e-08
1.25964e-09
6.74426e-08
1.2498e-09
6.73573e-08
1.24026e-09
6.727e-08
1.23102e-09
6.71808e-08
1.22206e-09
6.70896e-08
1.21336e-09
6.69966e-08
1.2049e-09
6.69016e-08
1.19666e-09
6.68047e-08
1.18865e-09
6.67059e-08
1.18083e-09
6.66052e-08
1.1732e-09
6.65027e-08
1.16575e-09
6.63982e-08
1.15847e-09
6.62919e-08
1.15134e-09
6.61837e-08
1.14435e-09
6.60737e-08
1.13751e-09
6.59618e-08
1.13079e-09
6.58482e-08
1.12419e-09
6.57327e-08
1.1177e-09
6.56155e-08
1.11132e-09
6.54966e-08
1.10505e-09
6.53759e-08
1.09887e-09
6.52535e-08
1.0928e-09
6.51294e-08
1.08681e-09
6.50037e-08
1.08092e-09
6.48763e-08
1.07513e-09
6.47473e-08
1.06943e-09
6.46167e-08
1.06383e-09
6.44845e-08
1.05834e-09
6.43508e-08
1.05296e-09
6.42155e-08
1.04771e-09
6.40787e-08
1.0426e-09
6.39404e-08
1.03766e-09
6.38006e-08
1.03291e-09
6.36593e-08
1.02838e-09
6.35165e-08
1.02413e-09
6.33724e-08
1.02022e-09
6.32268e-08
1.01678e-09
6.30801e-08
1.01391e-09
6.29328e-08
1.01171e-09
6.27865e-08
1.00974e-09
6.26445e-08
1.00502e-09
9.85925e-10
6.79877e-08
2.14379e-09
-6.78974e-08
6.81066e-08
2.31165e-09
6.82448e-08
2.45705e-09
6.83931e-08
2.57526e-09
6.85439e-08
2.66499e-09
6.86913e-08
2.72697e-09
6.88306e-08
2.76293e-09
6.8958e-08
2.77527e-09
6.90709e-08
2.76704e-09
6.9168e-08
2.74169e-09
6.92488e-08
2.70285e-09
6.93137e-08
2.654e-09
6.93638e-08
2.59833e-09
6.94007e-08
2.53858e-09
6.9426e-08
2.47701e-09
6.94415e-08
2.41537e-09
6.9449e-08
2.35492e-09
6.945e-08
2.29649e-09
6.9446e-08
2.24058e-09
6.94381e-08
2.18742e-09
6.94273e-08
2.13705e-09
6.94142e-08
2.08942e-09
6.93995e-08
2.04436e-09
6.93835e-08
2.00172e-09
6.93666e-08
1.9613e-09
6.9349e-08
1.92292e-09
6.9331e-08
1.88643e-09
6.93124e-08
1.85169e-09
6.92936e-08
1.81856e-09
6.92744e-08
1.78696e-09
6.9255e-08
1.75677e-09
6.92353e-08
1.72793e-09
6.92153e-08
1.70038e-09
6.91951e-08
1.67403e-09
6.91746e-08
1.64885e-09
6.91537e-08
1.62479e-09
6.91326e-08
1.60178e-09
6.9111e-08
1.57979e-09
6.90891e-08
1.55878e-09
6.90667e-08
1.5387e-09
6.90439e-08
1.51951e-09
6.90205e-08
1.50118e-09
6.89966e-08
1.48366e-09
6.89721e-08
1.46691e-09
6.8947e-08
1.45092e-09
6.89212e-08
1.43562e-09
6.88947e-08
1.42101e-09
6.88674e-08
1.40704e-09
6.88394e-08
1.39368e-09
6.88105e-08
1.3809e-09
6.87808e-08
1.36868e-09
6.87502e-08
1.35698e-09
6.87186e-08
1.34578e-09
6.86861e-08
1.33506e-09
6.86525e-08
1.32478e-09
6.86179e-08
1.31493e-09
6.85822e-08
1.30549e-09
6.85455e-08
1.29642e-09
6.85075e-08
1.28772e-09
6.84684e-08
1.27935e-09
6.84282e-08
1.27131e-09
6.83867e-08
1.26356e-09
6.83439e-08
1.25611e-09
6.82999e-08
1.24892e-09
6.82546e-08
1.24198e-09
6.8208e-08
1.23527e-09
6.816e-08
1.22879e-09
6.81107e-08
1.22252e-09
6.806e-08
1.21644e-09
6.80079e-08
1.21055e-09
6.79544e-08
1.20482e-09
6.78995e-08
1.19926e-09
6.78432e-08
1.19384e-09
6.77854e-08
1.18857e-09
6.77262e-08
1.18342e-09
6.76655e-08
1.1784e-09
6.76033e-08
1.1735e-09
6.75396e-08
1.16871e-09
6.74745e-08
1.16403e-09
6.74078e-08
1.15945e-09
6.73396e-08
1.15497e-09
6.727e-08
1.15059e-09
6.71988e-08
1.14631e-09
6.71261e-08
1.14214e-09
6.70518e-08
1.13806e-09
6.69761e-08
1.1341e-09
6.68988e-08
1.13026e-09
6.68199e-08
1.12655e-09
6.67396e-08
1.12299e-09
6.66576e-08
1.11959e-09
6.65741e-08
1.11639e-09
6.64891e-08
1.11342e-09
6.64025e-08
1.11071e-09
6.63144e-08
1.10834e-09
6.62248e-08
1.10634e-09
6.6134e-08
1.10474e-09
6.60424e-08
1.10334e-09
6.59508e-08
1.10128e-09
6.58604e-08
1.09545e-09
1.07742e-09
7.52266e-08
2.06327e-09
-7.51461e-08
7.53308e-08
2.20751e-09
7.54523e-08
2.33552e-09
7.55842e-08
2.44334e-09
7.57202e-08
2.52903e-09
7.58548e-08
2.59232e-09
7.59837e-08
2.63401e-09
7.61034e-08
2.6556e-09
7.62113e-08
2.65917e-09
7.63057e-08
2.64725e-09
7.6386e-08
2.62253e-09
7.64523e-08
2.58775e-09
7.65051e-08
2.54549e-09
7.65456e-08
2.49806e-09
7.65752e-08
2.44744e-09
7.65953e-08
2.39525e-09
7.66075e-08
2.34273e-09
7.66132e-08
2.29081e-09
7.66137e-08
2.24011e-09
7.66101e-08
2.19104e-09
7.66033e-08
2.14382e-09
7.65941e-08
2.09856e-09
7.65833e-08
2.05525e-09
7.65711e-08
2.01386e-09
7.65581e-08
1.97432e-09
7.65445e-08
1.93653e-09
7.65305e-08
1.90041e-09
7.65163e-08
1.86587e-09
7.65021e-08
1.83283e-09
7.64878e-08
1.80122e-09
7.64736e-08
1.77098e-09
7.64595e-08
1.74204e-09
7.64455e-08
1.71435e-09
7.64317e-08
1.68786e-09
7.6418e-08
1.66253e-09
7.64045e-08
1.63831e-09
7.63911e-08
1.61516e-09
7.63779e-08
1.59304e-09
7.63647e-08
1.57191e-09
7.63517e-08
1.55174e-09
7.63387e-08
1.53248e-09
7.63258e-08
1.5141e-09
7.63129e-08
1.49657e-09
7.63e-08
1.47984e-09
7.6287e-08
1.46388e-09
7.6274e-08
1.44867e-09
7.62608e-08
1.43416e-09
7.62475e-08
1.42033e-09
7.6234e-08
1.40715e-09
7.62204e-08
1.39458e-09
7.62064e-08
1.3826e-09
7.61922e-08
1.37118e-09
7.61777e-08
1.3603e-09
7.61628e-08
1.34992e-09
7.61476e-08
1.34003e-09
7.61319e-08
1.33059e-09
7.61158e-08
1.32159e-09
7.60993e-08
1.313e-09
7.60822e-08
1.3048e-09
7.60646e-08
1.29698e-09
7.60464e-08
1.2895e-09
7.60276e-08
1.28236e-09
7.60081e-08
1.27554e-09
7.5988e-08
1.26901e-09
7.59672e-08
1.26276e-09
7.59457e-08
1.25678e-09
7.59235e-08
1.25104e-09
7.59005e-08
1.24554e-09
7.58766e-08
1.24027e-09
7.5852e-08
1.2352e-09
7.58265e-08
1.23033e-09
7.58001e-08
1.22564e-09
7.57728e-08
1.22113e-09
7.57446e-08
1.21678e-09
7.57154e-08
1.21259e-09
7.56853e-08
1.20854e-09
7.56542e-08
1.20464e-09
7.5622e-08
1.20087e-09
7.55888e-08
1.19723e-09
7.55545e-08
1.19371e-09
7.55192e-08
1.19032e-09
7.54828e-08
1.18704e-09
7.54452e-08
1.18389e-09
7.54065e-08
1.18085e-09
7.53666e-08
1.17795e-09
7.53255e-08
1.17517e-09
7.52832e-08
1.17254e-09
7.52397e-08
1.17006e-09
7.5195e-08
1.16774e-09
7.5149e-08
1.16561e-09
7.51016e-08
1.1637e-09
7.5053e-08
1.16202e-09
7.50031e-08
1.16063e-09
7.49519e-08
1.15954e-09
7.48995e-08
1.15877e-09
7.4846e-08
1.15825e-09
7.47916e-08
1.1577e-09
7.47367e-08
1.1562e-09
7.46807e-08
1.1515e-09
1.13924e-09
8.32221e-08
1.99222e-09
-8.3151e-08
8.33123e-08
2.11723e-09
8.34176e-08
2.23024e-09
8.35328e-08
2.32815e-09
8.36528e-08
2.40903e-09
8.37731e-08
2.47207e-09
8.38897e-08
2.51741e-09
8.39994e-08
2.54587e-09
8.40998e-08
2.55878e-09
8.41892e-08
2.55785e-09
8.42667e-08
2.54505e-09
8.4332e-08
2.52244e-09
8.43854e-08
2.49205e-09
8.44277e-08
2.45577e-09
8.44599e-08
2.41527e-09
8.44831e-08
2.37202e-09
8.44987e-08
2.3272e-09
8.45077e-08
2.28174e-09
8.45115e-08
2.23635e-09
8.4511e-08
2.19155e-09
8.45071e-08
2.1477e-09
8.45006e-08
2.10504e-09
8.44922e-08
2.06369e-09
8.44823e-08
2.02375e-09
8.44714e-08
1.98524e-09
8.44598e-08
1.94815e-09
8.44477e-08
1.91247e-09
8.44354e-08
1.87818e-09
8.4423e-08
1.84523e-09
8.44106e-08
1.81359e-09
8.43984e-08
1.78323e-09
8.43863e-08
1.7541e-09
8.43745e-08
1.72618e-09
8.43629e-08
1.69943e-09
8.43516e-08
1.6738e-09
8.43407e-08
1.64928e-09
8.433e-08
1.62582e-09
8.43197e-08
1.60339e-09
8.43096e-08
1.58195e-09
8.42999e-08
1.56148e-09
8.42904e-08
1.54193e-09
8.42813e-08
1.52327e-09
8.42724e-08
1.50547e-09
8.42637e-08
1.4885e-09
8.42553e-08
1.47232e-09
8.4247e-08
1.4569e-09
8.4239e-08
1.44221e-09
8.42311e-08
1.42822e-09
8.42234e-08
1.4149e-09
8.42157e-08
1.40221e-09
8.42082e-08
1.39014e-09
8.42007e-08
1.37865e-09
8.41933e-08
1.36772e-09
8.41859e-08
1.35732e-09
8.41785e-08
1.34743e-09
8.41711e-08
1.33802e-09
8.41636e-08
1.32906e-09
8.41561e-08
1.32055e-09
8.41484e-08
1.31245e-09
8.41406e-08
1.30474e-09
8.41327e-08
1.29741e-09
8.41247e-08
1.29044e-09
8.41164e-08
1.2838e-09
8.41079e-08
1.27748e-09
8.40992e-08
1.27147e-09
8.40903e-08
1.26574e-09
8.4081e-08
1.26028e-09
8.40715e-08
1.25508e-09
8.40616e-08
1.25013e-09
8.40514e-08
1.24541e-09
8.40408e-08
1.2409e-09
8.40299e-08
1.2366e-09
8.40185e-08
1.2325e-09
8.40067e-08
1.22858e-09
8.39944e-08
1.22485e-09
8.39817e-08
1.22128e-09
8.39685e-08
1.21787e-09
8.39547e-08
1.21462e-09
8.39404e-08
1.21152e-09
8.39256e-08
1.20857e-09
8.39101e-08
1.20576e-09
8.38941e-08
1.20309e-09
8.38774e-08
1.20057e-09
8.386e-08
1.19819e-09
8.3842e-08
1.19596e-09
8.38233e-08
1.19389e-09
8.38039e-08
1.19198e-09
8.37837e-08
1.19025e-09
8.37627e-08
1.18871e-09
8.3741e-08
1.18738e-09
8.37184e-08
1.18628e-09
8.3695e-08
1.18544e-09
8.36707e-08
1.18488e-09
8.36456e-08
1.18463e-09
8.36197e-08
1.18466e-09
8.35931e-08
1.1849e-09
8.35657e-08
1.18506e-09
8.35374e-08
1.18451e-09
8.35068e-08
1.18207e-09
1.17648e-09
9.20542e-08
1.93092e-09
-9.19929e-08
9.21309e-08
2.04058e-09
9.222e-08
2.14112e-09
9.23179e-08
2.2302e-09
9.24208e-08
2.30612e-09
9.2525e-08
2.36788e-09
9.26272e-08
2.41525e-09
9.27246e-08
2.44852e-09
9.28149e-08
2.46846e-09
9.28965e-08
2.47618e-09
9.29685e-08
2.47306e-09
9.30304e-08
2.46058e-09
9.30821e-08
2.4403e-09
9.31242e-08
2.41373e-09
9.31572e-08
2.38226e-09
9.31821e-08
2.34714e-09
9.31998e-08
2.30948e-09
9.32114e-08
2.27017e-09
9.32177e-08
2.22996e-09
9.32199e-08
2.18942e-09
9.32186e-08
2.14902e-09
9.32145e-08
2.10909e-09
9.32083e-08
2.06987e-09
9.32005e-08
2.03154e-09
9.31916e-08
1.99421e-09
9.31817e-08
1.95797e-09
9.31713e-08
1.92286e-09
9.31606e-08
1.88892e-09
9.31497e-08
1.85615e-09
9.31387e-08
1.82455e-09
9.31278e-08
1.79413e-09
9.3117e-08
1.76486e-09
9.31065e-08
1.73674e-09
9.30962e-08
1.70973e-09
9.30862e-08
1.68382e-09
9.30765e-08
1.65899e-09
9.30671e-08
1.6352e-09
9.3058e-08
1.61244e-09
9.30493e-08
1.59066e-09
9.30409e-08
1.56985e-09
9.30329e-08
1.54996e-09
9.30252e-08
1.53097e-09
9.30178e-08
1.51285e-09
9.30108e-08
1.49556e-09
9.3004e-08
1.47908e-09
9.29975e-08
1.46338e-09
9.29913e-08
1.44841e-09
9.29854e-08
1.43416e-09
9.29797e-08
1.4206e-09
9.29742e-08
1.40769e-09
9.29689e-08
1.3954e-09
9.29639e-08
1.38372e-09
9.2959e-08
1.3726e-09
9.29543e-08
1.36204e-09
9.29497e-08
1.352e-09
9.29453e-08
1.34245e-09
9.29409e-08
1.33338e-09
9.29367e-08
1.32476e-09
9.29326e-08
1.31657e-09
9.29286e-08
1.30879e-09
9.29246e-08
1.30141e-09
9.29206e-08
1.29439e-09
9.29167e-08
1.28772e-09
9.29128e-08
1.28139e-09
9.29089e-08
1.27537e-09
9.29049e-08
1.26966e-09
9.2901e-08
1.26424e-09
9.2897e-08
1.25908e-09
9.28929e-08
1.25418e-09
9.28888e-08
1.24953e-09
9.28846e-08
1.24511e-09
9.28803e-08
1.24092e-09
9.28759e-08
1.23693e-09
9.28713e-08
1.23314e-09
9.28666e-08
1.22955e-09
9.28617e-08
1.22614e-09
9.28567e-08
1.22291e-09
9.28515e-08
1.21985e-09
9.2846e-08
1.21695e-09
9.28404e-08
1.21422e-09
9.28345e-08
1.21165e-09
9.28284e-08
1.20923e-09
9.2822e-08
1.20698e-09
9.28153e-08
1.20489e-09
9.28083e-08
1.20296e-09
9.2801e-08
1.20121e-09
9.27933e-08
1.19964e-09
9.27853e-08
1.19827e-09
9.27769e-08
1.1971e-09
9.27681e-08
1.19616e-09
9.27589e-08
1.19548e-09
9.27493e-08
1.19506e-09
9.27392e-08
1.19494e-09
9.27287e-08
1.19512e-09
9.27178e-08
1.19559e-09
9.27064e-08
1.19629e-09
9.26944e-08
1.19704e-09
9.26814e-08
1.19754e-09
9.2666e-08
1.19746e-09
1.19715e-09
1.01812e-07
1.88014e-09
-1.01761e-07
1.01875e-07
1.97792e-09
1.01947e-07
2.06853e-09
1.02027e-07
2.15022e-09
1.02112e-07
2.22154e-09
1.02198e-07
2.28153e-09
1.02284e-07
2.32973e-09
1.02366e-07
2.36612e-09
1.02443e-07
2.39108e-09
1.02514e-07
2.40527e-09
1.02578e-07
2.4096e-09
1.02633e-07
2.40514e-09
1.0268e-07
2.39305e-09
1.0272e-07
2.37449e-09
1.02751e-07
2.35062e-09
1.02776e-07
2.32251e-09
1.02794e-07
2.29113e-09
1.02807e-07
2.25733e-09
1.02815e-07
2.22185e-09
1.02819e-07
2.1853e-09
1.0282e-07
2.14818e-09
1.02818e-07
2.11091e-09
1.02814e-07
2.07381e-09
1.02809e-07
2.03713e-09
1.02802e-07
2.00106e-09
1.02794e-07
1.96574e-09
1.02786e-07