/*--------------------------------*- C++ -*----------------------------------*\
| =========                 |                                                 |
| \\      /  F ield         | OpenFOAM: The Open Source CFD Toolbox           |
|  \\    /   O peration     | Version:  2.3.0                                 |
|   \\  /    A nd           | Web:      www.OpenFOAM.org                      |
|    \\/     M anipulation  |                                                 |
\*---------------------------------------------------------------------------*/
FoamFile
{
    version     2.0;
    format      ascii;
    class       surfaceScalarField;
    location    "0.4";
    object      phi;
}
// * * * * * * * * * * * * * * * * * * * * * * * * * * * * * * * * * * * * * //

dimensions      [0 3 -1 0 0 0 0];

internalField   nonuniform List<scalar> 
6598
(
2.86377e-08
2.90243e-09
-3.15402e-08
2.57717e-08
2.866e-09
2.30853e-08
2.68644e-09
2.06092e-08
2.47605e-09
1.83597e-08
2.2495e-09
1.63473e-08
2.01246e-09
1.4574e-08
1.77326e-09
1.30345e-08
1.53951e-09
1.17169e-08
1.31763e-09
1.0604e-08
1.11288e-09
9.67487e-09
9.29122e-10
8.90621e-09
7.68653e-10
8.2741e-09
6.32119e-10
7.75536e-09
5.18736e-10
7.32875e-09
4.26609e-10
6.97561e-09
3.53139e-10
6.68021e-09
2.95406e-10
6.42971e-09
2.50494e-10
6.214e-09
2.15715e-10
6.02525e-09
1.88742e-10
5.8576e-09
1.67659e-10
5.70664e-09
1.50952e-10
5.56918e-09
1.37465e-10
5.44283e-09
1.26345e-10
5.32586e-09
1.16971e-10
5.21695e-09
1.08908e-10
5.11511e-09
1.01849e-10
5.01952e-09
9.55805e-11
4.92957e-09
8.99546e-11
4.8447e-09
8.48655e-11
4.76447e-09
8.02363e-11
4.68846e-09
7.60084e-11
4.61632e-09
7.21356e-11
4.54774e-09
6.85797e-11
4.48244e-09
6.53081e-11
4.42014e-09
6.22924e-11
4.36064e-09
5.95073e-11
4.30371e-09
5.69301e-11
4.24917e-09
5.45405e-11
4.19685e-09
5.23202e-11
4.14659e-09
5.02528e-11
4.09827e-09
4.83235e-11
4.05175e-09
4.6519e-11
4.00692e-09
4.48275e-11
3.96368e-09
4.32383e-11
3.92194e-09
4.17419e-11
3.88161e-09
4.03295e-11
3.84262e-09
3.89936e-11
3.80489e-09
3.77271e-11
3.76837e-09
3.65236e-11
3.73299e-09
3.53775e-11
3.69871e-09
3.42835e-11
3.66547e-09
3.32368e-11
3.63324e-09
3.22331e-11
3.60197e-09
3.12682e-11
3.57163e-09
3.03385e-11
3.54219e-09
2.94404e-11
3.51362e-09
2.85707e-11
3.48589e-09
2.77264e-11
3.45899e-09
2.69046e-11
3.43289e-09
2.61026e-11
3.40757e-09
2.53178e-11
3.38302e-09
2.45478e-11
3.35923e-09
2.37902e-11
3.33619e-09
2.30429e-11
3.31388e-09
2.23035e-11
3.29231e-09
2.15701e-11
3.27147e-09
2.08407e-11
3.25136e-09
2.01132e-11
3.23197e-09
1.93861e-11
3.21332e-09
1.86574e-11
3.19539e-09
1.79256e-11
3.1782e-09
1.71893e-11
3.16176e-09
1.64468e-11
3.14606e-09
1.56965e-11
3.13112e-09
1.49364e-11
3.11696e-09
1.41639e-11
3.10358e-09
1.33756e-11
3.09102e-09
1.25673e-11
3.07928e-09
1.17337e-11
3.06841e-09
1.08694e-11
3.05844e-09
9.96945e-12
3.04941e-09
9.03031e-12
3.04136e-09
8.05168e-12
3.03432e-09
7.03791e-12
3.02832e-09
5.99913e-12
3.02337e-09
4.95193e-12
3.01945e-09
3.9191e-12
3.01652e-09
2.9285e-12
3.01451e-09
2.01038e-12
3.01332e-09
1.19188e-12
3.01282e-09
4.99032e-13
3.01284e-09
-1.73039e-14
3.01317e-09
-3.25244e-13
3.01366e-09
-4.90646e-13
3.01421e-09
-5.53293e-13
3.01474e-09
-5.27439e-13
3.01515e-09
-4.10135e-13
3.01531e-09
-1.65544e-13
8.23498e-13
3.43415e-08
3.15789e-09
-3.45969e-08
3.37732e-08
3.43423e-09
3.29743e-08
3.48534e-09
3.20195e-08
3.43088e-09
3.09639e-08
3.30509e-09
2.98531e-08
3.12329e-09
2.87239e-08
2.90249e-09
2.76045e-08
2.65885e-09
2.65161e-08
2.40609e-09
2.54733e-08
2.15562e-09
2.44859e-08
1.91651e-09
2.35593e-08
1.6953e-09
2.26955e-08
1.49595e-09
2.18941e-08
1.32012e-09
2.1153e-08
1.16767e-09
2.04691e-08
1.03709e-09
1.98383e-08
9.26137e-10
1.92567e-08
8.3219e-10
1.87197e-08
7.5262e-10
1.82235e-08
6.8498e-10
1.7764e-08
6.27127e-10
1.73377e-08
5.77255e-10
1.69413e-08
5.33891e-10
1.65718e-08
4.95855e-10
1.62266e-08
4.62217e-10
1.59032e-08
4.32248e-10
1.55997e-08
4.05376e-10
1.53141e-08
3.81151e-10
1.50449e-08
3.59213e-10
1.47905e-08
3.3927e-10
1.45496e-08
3.21082e-10
1.43212e-08
3.04448e-10
1.41041e-08
2.89197e-10
1.38975e-08
2.75181e-10
1.37005e-08
2.62272e-10
1.35125e-08
2.50356e-10
1.33327e-08
2.39334e-10
1.31605e-08
2.29117e-10
1.29954e-08
2.19627e-10
1.28369e-08
2.10792e-10
1.26846e-08
2.02552e-10
1.25381e-08
1.94848e-10
1.2397e-08
1.87632e-10
1.22609e-08
1.80858e-10
1.21297e-08
1.74485e-10
1.2003e-08
1.68477e-10
1.18805e-08
1.62802e-10
1.17621e-08
1.57428e-10
1.16474e-08
1.5233e-10
1.15365e-08
1.47483e-10
1.1429e-08
1.42863e-10
1.13248e-08
1.38451e-10
1.12238e-08
1.34228e-10
1.11259e-08
1.30175e-10
1.10309e-08
1.26277e-10
1.09387e-08
1.22518e-10
1.08493e-08
1.18883e-10
1.07625e-08
1.15361e-10
1.06783e-08
1.11938e-10
1.05966e-08
1.08602e-10
1.05173e-08
1.05341e-10
1.04405e-08
1.02145e-10
1.03661e-08
9.90043e-11
1.02939e-08
9.59074e-11
1.02241e-08
9.28454e-11
1.01566e-08
8.98087e-11
1.00914e-08
8.67885e-11
1.00285e-08
8.3776e-11
9.96782e-09
8.07629e-11
9.90947e-09
7.77411e-11
9.85342e-09
7.47032e-11
9.79971e-09
7.16418e-11
9.74835e-09
6.85498e-11
9.69937e-09
6.54204e-11
9.65282e-09
6.22462e-11
9.60874e-09
5.90193e-11
9.56717e-09
5.57309e-11
9.52818e-09
5.23708e-11
9.49182e-09
4.89283e-11
9.45816e-09
4.53927e-11
9.42727e-09
4.17553e-11
9.39923e-09
3.80122e-11
9.37409e-09
3.4168e-11
9.3519e-09
3.02392e-11
9.33268e-09
2.62579e-11
9.31641e-09
2.22737e-11
9.30301e-09
1.8353e-11
9.29235e-09
1.45766e-11
9.28425e-09
1.10326e-11
9.27845e-09
7.80813e-12
9.27466e-09
4.97644e-12
9.27257e-09
2.58817e-12
9.27187e-09
6.90475e-13
9.27215e-09
-6.05245e-13
9.273e-09
-1.34895e-12
9.27416e-09
-1.70768e-12
9.27539e-09
-1.76146e-12
9.27649e-09
-1.50409e-12
9.27708e-09
-7.59849e-13
1.67688e-12
3.6435e-08
2.97443e-09
-3.62515e-08
3.65273e-08
3.34189e-09
3.64962e-08
3.51644e-09
3.63463e-08
3.58079e-09
3.6087e-08
3.56438e-09
3.5732e-08
3.47827e-09
3.52983e-08
3.3362e-09
3.48033e-08
3.15383e-09
3.42635e-08
2.94587e-09
3.36937e-08
2.72541e-09
3.31067e-08
2.50357e-09
3.25128e-08
2.28914e-09
3.19205e-08
2.08832e-09
3.13358e-08
1.90484e-09
3.07631e-08
1.7403e-09
3.02055e-08
1.59469e-09
2.96648e-08
1.46687e-09
2.91419e-08
1.35507e-09
2.86373e-08
1.25725e-09
2.81509e-08
1.17139e-09
2.76824e-08
1.0956e-09
2.72314e-08
1.02823e-09
2.67974e-08
9.67916e-10
2.63797e-08
9.13522e-10
2.59778e-08
8.64145e-10
2.5591e-08
8.19061e-10
2.52187e-08
7.77698e-10
2.48602e-08
7.39595e-10
2.45151e-08
7.04381e-10
2.41826e-08
6.71751e-10
2.38622e-08
6.41449e-10
2.35534e-08
6.13256e-10
2.32556e-08
5.86984e-10
2.29683e-08
5.62466e-10
2.2691e-08
5.39553e-10
2.24233e-08
5.18112e-10
2.21646e-08
4.98022e-10
2.19145e-08
4.79172e-10
2.16727e-08
4.61463e-10
2.14387e-08
4.44802e-10
2.12121e-08
4.29106e-10
2.09927e-08
4.14298e-10
2.078e-08
4.00307e-10
2.05738e-08
3.87067e-10
2.03738e-08
3.7452e-10
2.01796e-08
3.62609e-10
1.99912e-08
3.51285e-10
1.98081e-08
3.40499e-10
1.96302e-08
3.30208e-10
1.94573e-08
3.20372e-10
1.92892e-08
3.10952e-10
1.91258e-08
3.01914e-10
1.89668e-08
2.93223e-10
1.88121e-08
2.84849e-10
1.86616e-08
2.76762e-10
1.85152e-08
2.68934e-10
1.83727e-08
2.61338e-10
1.82342e-08
2.5395e-10
1.80993e-08
2.46744e-10
1.79683e-08
2.39697e-10
1.78408e-08
2.32787e-10
1.7717e-08
2.25992e-10
1.75967e-08
2.1929e-10
1.74799e-08
2.1266e-10
1.73667e-08
2.06083e-10
1.7257e-08
1.99538e-10
1.71507e-08
1.93007e-10
1.7048e-08
1.8647e-10
1.69489e-08
1.7991e-10
1.68533e-08
1.73308e-10
1.67614e-08
1.66649e-10
1.66731e-08
1.59915e-10
1.65886e-08
1.5309e-10
1.65078e-08
1.4616e-10
1.6431e-08
1.39108e-10
1.63581e-08
1.31919e-10
1.62892e-08
1.24575e-10
1.62245e-08
1.17062e-10
1.61641e-08
1.09364e-10
1.6108e-08
1.01469e-10
1.60564e-08
9.33741e-11
1.60093e-08
8.50874e-11
1.59669e-08
7.66356e-11
1.5929e-08
6.80697e-11
1.58958e-08
5.94689e-11
1.58671e-08
5.09429e-11
1.58429e-08
4.26292e-11
1.58228e-08
3.46864e-11
1.58065e-08
2.72816e-11
1.57937e-08
2.05751e-11
1.5784e-08
1.47e-11
1.57769e-08
9.74245e-12
1.57718e-08
5.71259e-12
1.57687e-08
2.53719e-12
1.57672e-08
1.91772e-13
1.57667e-08
-1.27182e-12
1.57669e-08
-1.96443e-12
1.57674e-08
-1.96227e-12
1.57676e-08
-9.59564e-13
2.97995e-12
3.80068e-08
2.75182e-09
-3.77842e-08
3.82312e-08
3.11752e-09
3.84166e-08
3.33102e-09
3.85514e-08
3.44603e-09
3.86282e-08
3.48752e-09
3.86427e-08
3.46376e-09
3.8595e-08
3.38399e-09
3.84884e-08
3.26034e-09
3.8329e-08
3.1053e-09
3.81238e-08
2.93059e-09
3.78807e-08
2.74672e-09
3.76073e-08
2.56253e-09
3.73108e-08
2.38478e-09
3.69976e-08
2.21809e-09
3.66728e-08
2.06509e-09
3.63407e-08
1.92682e-09
3.60045e-08
1.80307e-09
3.56666e-08
1.69291e-09
3.53289e-08
1.59495e-09
3.49927e-08
1.50765e-09
3.46588e-08
1.42949e-09
3.43279e-08
1.35909e-09
3.40006e-08
1.29525e-09
3.36772e-08
1.23696e-09
3.33579e-08
1.18341e-09
3.3043e-08
1.13392e-09
3.27328e-08
1.08796e-09
3.24273e-08
1.04512e-09
3.21266e-08
1.00504e-09
3.18309e-08
9.67448e-10
3.15402e-08
9.32111e-10
3.12547e-08
8.98833e-10
3.09742e-08
8.67444e-10
3.06989e-08
8.37795e-10
3.04287e-08
8.09756e-10
3.01636e-08
7.83207e-10
2.99036e-08
7.5804e-10
2.96486e-08
7.34157e-10
2.93986e-08
7.11467e-10
2.91535e-08
6.89886e-10
2.89133e-08
6.69337e-10
2.86778e-08
6.49748e-10
2.84471e-08
6.31052e-10
2.82209e-08
6.13185e-10
2.79994e-08
5.9609e-10
2.77823e-08
5.79712e-10
2.75696e-08
5.63999e-10
2.73612e-08
5.48903e-10
2.7157e-08
5.34377e-10
2.6957e-08
5.20379e-10
2.67611e-08
5.06867e-10
2.65692e-08
4.93801e-10
2.63813e-08
4.81143e-10
2.61972e-08
4.68858e-10
2.60171e-08
4.56909e-10
2.58408e-08
4.45263e-10
2.56682e-08
4.33886e-10
2.54994e-08
4.22746e-10
2.53344e-08
4.11812e-10
2.5173e-08
4.01051e-10
2.50154e-08
3.90434e-10
2.48614e-08
3.7993e-10
2.47112e-08
3.69508e-10
2.45647e-08
3.59139e-10
2.4422e-08
3.48793e-10
2.42831e-08
3.38441e-10
2.41481e-08
3.28054e-10
2.40169e-08
3.17602e-10
2.38898e-08
3.07057e-10
2.37667e-08
2.96392e-10
2.36478e-08
2.85579e-10
2.35331e-08
2.74593e-10
2.34228e-08
2.63407e-10
2.33169e-08
2.51997e-10
2.32157e-08
2.40337e-10
2.31192e-08
2.28404e-10
2.30276e-08
2.16176e-10
2.2941e-08
2.03631e-10
2.28597e-08
1.90755e-10
2.27836e-08
1.77542e-10
2.2713e-08
1.63999e-10
2.26479e-08
1.50158e-10
2.25885e-08
1.36076e-10
2.25347e-08
1.21849e-10
2.24865e-08
1.07613e-10
2.24439e-08
9.3546e-11
2.24067e-08
7.98621e-11
2.23746e-08
6.68009e-11
2.23472e-08
5.46087e-11
2.23243e-08
4.35161e-11
2.23053e-08
3.37105e-11
2.22897e-08
2.53102e-11
2.22771e-08
1.8339e-11
2.22669e-08
1.27271e-11
2.22588e-08
8.3265e-12
2.22525e-08
4.96779e-12
2.2248e-08
2.56049e-12
2.22448e-08
1.23401e-12
2.22424e-08
1.50418e-12
6.06841e-12
3.95408e-08
2.55451e-09
-3.93434e-08
3.97676e-08
2.89064e-09
3.99897e-08
3.10898e-09
4.01949e-08
3.24081e-09
4.03756e-08
3.3068e-09
4.05244e-08
3.31494e-09
4.06362e-08
3.27225e-09
4.07084e-08
3.18808e-09
4.07411e-08
3.07265e-09
4.07358e-08
2.93582e-09
4.06959e-08
2.78667e-09
4.06253e-08
2.63311e-09
4.05286e-08
2.48152e-09
4.04101e-08
2.33656e-09
4.0274e-08
2.20123e-09
4.01237e-08
2.07707e-09
3.99623e-08
1.9645e-09
3.9792e-08
1.86316e-09
3.96148e-08
1.77219e-09
3.9432e-08
1.69048e-09
3.92446e-08
1.61685e-09
3.90535e-08
1.55017e-09
3.88594e-08
1.48941e-09
3.86626e-08
1.43371e-09
3.84637e-08
1.38231e-09
3.8263e-08
1.33462e-09
3.80608e-08
1.29015e-09
3.78574e-08
1.24849e-09
3.76532e-08
1.20933e-09
3.74482e-08
1.1724e-09
3.72428e-08
1.13749e-09
3.70373e-08
1.10441e-09
3.68317e-08
1.07302e-09
3.66263e-08
1.04317e-09
3.64213e-08
1.01476e-09
3.62168e-08
9.87662e-10
3.60131e-08
9.61797e-10
3.58102e-08
9.37073e-10
3.56082e-08
9.13411e-10
3.54074e-08
8.90736e-10
3.52077e-08
8.68981e-10
3.50094e-08
8.48083e-10
3.48125e-08
8.27982e-10
3.4617e-08
8.08623e-10
3.44232e-08
7.89954e-10
3.4231e-08
7.71925e-10
3.40405e-08
7.54491e-10
3.38518e-08
7.37606e-10
3.36649e-08
7.21229e-10
3.348e-08
7.05319e-10
3.3297e-08
6.89835e-10
3.31161e-08
6.74742e-10
3.29372e-08
6.6e-10
3.27605e-08
6.45575e-10
3.2586e-08
6.31429e-10
3.24137e-08
6.17529e-10
3.22437e-08
6.03839e-10
3.20762e-08
5.90324e-10
3.1911e-08
5.7695e-10
3.17484e-08
5.63681e-10
3.15884e-08
5.50481e-10
3.1431e-08
5.37317e-10
3.12763e-08
5.24152e-10
3.11245e-08
5.10949e-10
3.09756e-08
4.97673e-10
3.08298e-08
4.84286e-10
3.06871e-08
4.70752e-10
3.05477e-08
4.57034e-10
3.04116e-08
4.43095e-10
3.02791e-08
4.28899e-10
3.01503e-08
4.14409e-10
3.00253e-08
3.99591e-10
2.99043e-08
3.84409e-10
2.97874e-08
3.6883e-10
2.9675e-08
3.52823e-10
2.9567e-08
3.36356e-10
2.94638e-08
3.19402e-10
2.93655e-08
3.01942e-10
2.92723e-08
2.83961e-10
2.91843e-08
2.65464e-10
2.91019e-08
2.46476e-10
2.9025e-08
2.27052e-10
2.89538e-08
2.07286e-10
2.88883e-08
1.87321e-10
2.88286e-08
1.67348e-10
2.87745e-08
1.4761e-10
2.8726e-08
1.28392e-10
2.86828e-08
1.10004e-10
2.86446e-08
9.27608e-11
2.86112e-08
7.69513e-11
2.85821e-08
6.28068e-11
2.85569e-08
5.0472e-11
2.85353e-08
3.99827e-11
2.85167e-08
3.12645e-11
2.85009e-08
2.41543e-11
2.84874e-08
1.8468e-11
2.84759e-08
1.40813e-11
2.84661e-08
1.10167e-11
2.84578e-08
9.77418e-12
1.29069e-11
4.1115e-08
2.38435e-09
-4.09448e-08
4.13213e-08
2.68432e-09
4.15356e-08
2.89468e-09
4.1746e-08
3.03043e-09
4.19459e-08
3.10692e-09
4.2129e-08
3.1318e-09
4.22902e-08
3.11105e-09
4.2426e-08
3.05226e-09
4.25347e-08
2.96393e-09
4.26161e-08
2.85446e-09
4.26711e-08
2.73166e-09
4.27018e-08
2.60245e-09
4.27107e-08
2.47261e-09
4.27007e-08
2.34651e-09
4.26748e-08
2.22718e-09
4.26354e-08
2.1164e-09
4.2585e-08
2.01495e-09
4.25253e-08
1.92284e-09
4.24579e-08
1.83961e-09
4.23839e-08
1.76448e-09
4.23042e-08
1.69655e-09
4.22194e-08
1.63492e-09
4.21301e-08
1.57873e-09
4.20366e-08
1.52721e-09
4.19392e-08
1.4797e-09
4.18382e-08
1.43565e-09
4.17337e-08
1.3946e-09
4.1626e-08
1.35618e-09
4.15153e-08
1.32006e-09
4.14017e-08
1.28601e-09
4.12854e-08
1.25381e-09
4.11665e-08
1.22328e-09
4.10452e-08
1.19427e-09
4.09218e-08
1.16666e-09
4.07962e-08
1.14032e-09
4.06687e-08
1.11515e-09
4.05394e-08
1.09107e-09
4.04085e-08
1.068e-09
4.02761e-08
1.04584e-09
4.01423e-08
1.02454e-09
4.00072e-08
1.00404e-09
3.9871e-08
9.84262e-10
3.97339e-08
9.65162e-10
3.95958e-08
9.46685e-10
3.9457e-08
9.28782e-10
3.93175e-08
9.11405e-10
3.91775e-08
8.94512e-10
3.9037e-08
8.78059e-10
3.88962e-08
8.62006e-10
3.87552e-08
8.46312e-10
3.86141e-08
8.30941e-10
3.8473e-08
8.15854e-10
3.8332e-08
8.01015e-10
3.81912e-08
7.86387e-10
3.80507e-08
7.71933e-10
3.79106e-08
7.57618e-10
3.7771e-08
7.43404e-10
3.76321e-08
7.29256e-10
3.74939e-08
7.15135e-10
3.73566e-08
7.01004e-10
3.72203e-08
6.86823e-10
3.7085e-08
6.72554e-10
3.6951e-08
6.58155e-10
3.68184e-08
6.43586e-10
3.66872e-08
6.28805e-10
3.65578e-08
6.13768e-10
3.64301e-08
5.98432e-10
3.63044e-08
5.82754e-10
3.61808e-08
5.66688e-10
3.60595e-08
5.50192e-10
3.59407e-08
5.3322e-10
3.58245e-08
5.1573e-10
3.57113e-08
4.9768e-10
3.56011e-08
4.79029e-10
3.54941e-08
4.59739e-10
3.53907e-08
4.39774e-10
3.5291e-08
4.19106e-10
3.51952e-08
3.97713e-10
3.51036e-08
3.75589e-10
3.50163e-08
3.52748e-10
3.49336e-08
3.29232e-10
3.48555e-08
3.05121e-10
3.47822e-08
2.80545e-10
3.47139e-08
2.55683e-10
3.46505e-08
2.30778e-10
3.45919e-08
2.06123e-10
3.45383e-08
1.8206e-10
3.44893e-08
1.58953e-10
3.44449e-08
1.37168e-10
3.44048e-08
1.17037e-10
3.43688e-08
9.88228e-11
3.43366e-08
8.26915e-11
3.43079e-08
6.86928e-11
3.42824e-08
5.67615e-11
3.42598e-08
4.67448e-11
3.42398e-08
3.84597e-11
3.42221e-08
3.17593e-11
3.42065e-08
2.66142e-11
3.41929e-08
2.33776e-11
2.34503e-11
4.27422e-08
2.23494e-09
-4.25927e-08
4.29272e-08
2.4993e-09
4.31256e-08
2.69622e-09
4.33257e-08
2.8304e-09
4.35209e-08
2.91173e-09
4.37059e-08
2.9468e-09
4.38761e-08
2.94081e-09
4.40284e-08
2.9e-09
4.41608e-08
2.8315e-09
4.42727e-08
2.74253e-09
4.43645e-08
2.63988e-09
4.44373e-08
2.52964e-09
4.44929e-08
2.417e-09
4.45334e-08
2.30602e-09
4.45609e-08
2.19965e-09
4.45776e-08
2.09978e-09
4.45851e-08
2.00741e-09
4.45851e-08
1.92285e-09
4.45788e-08
1.84592e-09
4.45671e-08
1.77613e-09
4.45508e-08
1.71284e-09
4.45305e-08
1.65531e-09
4.45063e-08
1.60285e-09
4.44787e-08
1.5548e-09
4.44479e-08
1.51057e-09
4.44139e-08
1.46968e-09
4.43768e-08
1.43168e-09
4.43367e-08
1.39622e-09
4.42938e-08
1.36301e-09
4.4248e-08
1.3318e-09
4.41994e-08
1.30237e-09
4.41482e-08
1.27456e-09
4.40942e-08
1.24821e-09
4.40377e-08
1.22318e-09
4.39786e-08
1.19937e-09
4.39171e-08
1.17666e-09
4.38532e-08
1.15497e-09
4.3787e-08
1.13422e-09
4.37185e-08
1.11431e-09
4.36479e-08
1.0952e-09
4.35751e-08
1.0768e-09
4.35003e-08
1.05906e-09
4.34236e-08
1.04191e-09
4.33449e-08
1.02532e-09
4.32645e-08
1.00923e-09
4.31823e-08
9.93581e-10
4.30985e-08
9.7834e-10
4.30131e-08
9.63458e-10
4.29262e-08
9.48894e-10
4.28379e-08
9.34608e-10
4.27483e-08
9.20558e-10
4.26574e-08
9.06707e-10
4.25654e-08
8.93014e-10
4.24724e-08
8.79441e-10
4.23784e-08
8.65949e-10
4.22835e-08
8.525e-10
4.21878e-08
8.39053e-10
4.20915e-08
8.25568e-10
4.19947e-08
8.12005e-10
4.18973e-08
7.98321e-10
4.17997e-08
7.84474e-10
4.17018e-08
7.70419e-10
4.16039e-08
7.5611e-10
4.1506e-08
7.41502e-10
4.14082e-08
7.26545e-10
4.13108e-08
7.11191e-10
4.12138e-08
6.95391e-10
4.11175e-08
6.79092e-10
4.10219e-08
6.62245e-10
4.09273e-08
6.44797e-10
4.08339e-08
6.26698e-10
4.07417e-08
6.07897e-10
4.0651e-08
5.88345e-10
4.05621e-08
5.67995e-10
4.0475e-08
5.46803e-10
4.039e-08
5.24731e-10
4.03074e-08
5.01747e-10
4.02273e-08
4.77832e-10
4.01499e-08
4.52985e-10
4.00754e-08
4.2723e-10
4.0004e-08
4.00622e-10
3.99359e-08
3.73265e-10
3.98711e-08
3.45309e-10
3.98098e-08
3.16969e-10
3.97521e-08
2.88519e-10
3.96979e-08
2.6029e-10
3.96473e-08
2.32658e-10
3.96002e-08
2.06026e-10
3.95566e-08
1.80788e-10
3.95164e-08
1.57304e-10
3.94793e-08
1.35856e-10
3.94454e-08
1.16629e-10
3.94144e-08
9.96854e-11
3.93862e-08
8.49761e-11
3.93606e-08
7.23644e-11
3.93373e-08
6.16754e-11
3.93163e-08
5.27504e-11
3.92975e-08
4.5503e-11
3.92808e-08
4.00177e-11
3.6256e-11
4.44249e-08
2.1008e-09
-4.42907e-08
4.45916e-08
2.33262e-09
4.4774e-08
2.51374e-09
4.49612e-08
2.6432e-09
4.51466e-08
2.72638e-09
4.53251e-08
2.76828e-09
4.54926e-08
2.77331e-09
4.56461e-08
2.74655e-09
4.57836e-08
2.69395e-09
4.59045e-08
2.62166e-09
4.60088e-08
2.53556e-09
4.60974e-08
2.44105e-09
4.61716e-08
2.34274e-09
4.62332e-08
2.24442e-09
4.6284e-08
2.1489e-09
4.63257e-08
2.05813e-09
4.63598e-08
1.97325e-09
4.63879e-08
1.89481e-09
4.64109e-08
1.82286e-09
4.64299e-08
1.75717e-09
4.64454e-08
1.69729e-09
4.6458e-08
1.64269e-09
4.64681e-08
1.59281e-09
4.64758e-08
1.54709e-09
4.64813e-08
1.50505e-09
4.64848e-08
1.46623e-09
4.64862e-08
1.43025e-09
4.64856e-08
1.39679e-09
4.64831e-08
1.36555e-09
4.64786e-08
1.3363e-09
4.64721e-08
1.30884e-09
4.64637e-08
1.28298e-09
4.64533e-08
1.25859e-09
4.6441e-08
1.23552e-09
4.64267e-08
1.21366e-09
4.64105e-08
1.19291e-09
4.63923e-08
1.17316e-09
4.63721e-08
1.15434e-09
4.63501e-08
1.13636e-09
4.63261e-08
1.11916e-09
4.63003e-08
1.10266e-09
4.62725e-08
1.0868e-09
4.62429e-08
1.07152e-09
4.62115e-08
1.05677e-09
4.61782e-08
1.04249e-09
4.61432e-08
1.02863e-09
4.61064e-08
1.01515e-09
4.60678e-08
1.00199e-09
4.60276e-08
9.89124e-10
4.59857e-08
9.76493e-10
4.59422e-08
9.64059e-10
4.58971e-08
9.5178e-10
4.58505e-08
9.39613e-10
4.58025e-08
9.27516e-10
4.5753e-08
9.15448e-10
4.57021e-08
9.03366e-10
4.56499e-08
8.91225e-10
4.55965e-08
8.78983e-10
4.55419e-08
8.66594e-10
4.54862e-08
8.54011e-10
4.54295e-08
8.41188e-10
4.53719e-08
8.28074e-10
4.53134e-08
8.14619e-10
4.52541e-08
8.00772e-10
4.51941e-08
7.86478e-10
4.51337e-08
7.71683e-10
4.50727e-08
7.56331e-10
4.50114e-08
7.40364e-10
4.495e-08
7.23724e-10
4.48884e-08
7.06355e-10
4.48269e-08
6.88197e-10
4.47656e-08
6.69194e-10
4.47047e-08
6.49292e-10
4.46442e-08
6.28437e-10
4.45844e-08
6.0658e-10
4.45255e-08
5.83681e-10
4.44675e-08
5.59707e-10
4.44107e-08
5.3464e-10
4.43552e-08
5.08482e-10
4.43012e-08
4.81263e-10
4.42488e-08
4.53053e-10
4.41981e-08
4.23964e-10
4.41492e-08
3.94167e-10
4.41023e-08
3.63891e-10
4.40574e-08
3.33431e-10
4.40145e-08
3.03136e-10
4.39738e-08
2.73399e-10
4.39352e-08
2.44638e-10
4.38987e-08
2.1726e-10
4.38644e-08
1.91635e-10
4.38322e-08
1.68057e-10
4.38021e-08
1.46719e-10
4.37741e-08
1.27701e-10
4.37481e-08
1.10969e-10
4.3724e-08
9.64067e-11
4.37019e-08
8.3851e-11
4.36815e-08
7.31333e-11
4.36629e-08
6.40991e-11
4.36464e-08
5.65367e-11
4.92566e-11
4.6165e-08
1.97804e-09
-4.60422e-08
4.63165e-08
2.18112e-09
4.64844e-08
2.3458e-09
4.66591e-08
2.46852e-09
4.68341e-08
2.55141e-09
4.70045e-08
2.59787e-09
4.71664e-08
2.61138e-09
4.73169e-08
2.59608e-09
4.7454e-08
2.55682e-09
4.75769e-08
2.49878e-09
4.76854e-08
2.42702e-09
4.77802e-08
2.34626e-09
4.78623e-08
2.26063e-09
4.79332e-08
2.17357e-09
4.79943e-08
2.08777e-09
4.80473e-08
2.00515e-09
4.80936e-08
1.92699e-09
4.81344e-08
1.85397e-09
4.81709e-08
1.78637e-09
4.82039e-08
1.72415e-09
4.82341e-08
1.66706e-09
4.82621e-08
1.61472e-09
4.82882e-08
1.56671e-09
4.83127e-08
1.5226e-09
4.83358e-08
1.48198e-09
4.83575e-08
1.44446e-09
4.83781e-08
1.40971e-09
4.83974e-08
1.37742e-09
4.84156e-08
1.34734e-09
4.84327e-08
1.31923e-09
4.84486e-08
1.29292e-09
4.84634e-08
1.26822e-09
4.8477e-08
1.245e-09
4.84894e-08
1.22312e-09
4.85006e-08
1.20246e-09
4.85106e-08
1.18292e-09
4.85193e-08
1.16441e-09
4.85268e-08
1.14684e-09
4.85331e-08
1.13013e-09
4.8538e-08
1.1142e-09
4.85417e-08
1.099e-09
4.8544e-08
1.08444e-09
4.85451e-08
1.07048e-09
4.85448e-08
1.05706e-09
4.85431e-08
1.04412e-09
4.85402e-08
1.0316e-09
4.85359e-08
1.01947e-09
4.85302e-08
1.00767e-09
4.85232e-08
9.96149e-10
4.85148e-08
9.84868e-10
4.85051e-08
9.7378e-10
4.8494e-08
9.6284e-10
4.84816e-08
9.52002e-10
4.84679e-08
9.41224e-10
4.84529e-08
9.30459e-10
4.84366e-08
9.19662e-10
4.8419e-08
9.08786e-10
4.84002e-08
8.97785e-10
4.83802e-08
8.8661e-10
4.8359e-08
8.7521e-10
4.83367e-08
8.63535e-10
4.83132e-08
8.51531e-10
4.82887e-08
8.39143e-10
4.82631e-08
8.26316e-10
4.82366e-08
8.12991e-10
4.82092e-08
7.99108e-10
4.81809e-08
7.84607e-10
4.81519e-08
7.69426e-10
4.81221e-08
7.53502e-10
4.80917e-08
7.36771e-10
4.80607e-08
7.19171e-10
4.80293e-08
7.00641e-10
4.79974e-08
6.8112e-10
4.79653e-08
6.60551e-10
4.7933e-08
6.38884e-10
4.79006e-08
6.16074e-10
4.78682e-08
5.92088e-10
4.7836e-08
5.6691e-10
4.78039e-08
5.40543e-10
4.77721e-08
5.13023e-10
4.77408e-08
4.84424e-10
4.77099e-08
4.54867e-10
4.76795e-08
4.24527e-10
4.76498e-08
3.93642e-10
4.76207e-08
3.62509e-10
4.75923e-08
3.31481e-10
4.75648e-08
3.00951e-10
4.75381e-08
2.71333e-10
4.75123e-08
2.43032e-10
4.74875e-08
2.16416e-10
4.74638e-08
1.91779e-10
4.74412e-08
1.69319e-10
4.74198e-08
1.49127e-10
4.73996e-08
1.3119e-10
4.73806e-08
1.1541e-10
4.73628e-08
1.01638e-10
4.73462e-08
8.96995e-11
4.73309e-08
7.93788e-11
4.73172e-08
7.02414e-11
6.05423e-11
4.79645e-08
1.86396e-09
-4.78504e-08
4.81036e-08
2.04202e-09
4.82587e-08
2.19064e-09
4.84218e-08
2.30542e-09
4.85868e-08
2.38642e-09
4.87491e-08
2.4356e-09
4.89049e-08
2.45558e-09
4.90513e-08
2.44963e-09
4.91865e-08
2.42166e-09
4.93093e-08
2.37596e-09
4.94195e-08
2.31684e-09
4.95174e-08
2.24839e-09
4.96037e-08
2.17426e-09
4.96797e-08
2.09757e-09
4.97467e-08
2.02082e-09
4.98059e-08
1.94591e-09
4.98588e-08
1.87414e-09
4.99064e-08
1.80634e-09
4.99499e-08
1.74292e-09
4.999e-08
1.68403e-09
5.00275e-08
1.62956e-09
5.00629e-08
1.5793e-09
5.00967e-08
1.53296e-09
5.01291e-08
1.4902e-09
5.01603e-08
1.4507e-09
5.01907e-08
1.41414e-09
5.02201e-08
1.38023e-09
5.02489e-08
1.3487e-09
5.02769e-08
1.31933e-09
5.03042e-08
1.29191e-09
5.03308e-08
1.26626e-09
5.03569e-08
1.24222e-09
5.03822e-08
1.21964e-09
5.04069e-08
1.19842e-09
5.04309e-08
1.17842e-09
5.04543e-08
1.15956e-09
5.0477e-08
1.14173e-09
5.0499e-08
1.12486e-09
5.05202e-08
1.10886e-09
5.05408e-08
1.09367e-09
5.05606e-08
1.07921e-09
5.05796e-08
1.06542e-09
5.05978e-08
1.05224e-09
5.06153e-08
1.03962e-09
5.06319e-08
1.02749e-09
5.06477e-08
1.01581e-09
5.06626e-08
1.00452e-09
5.06767e-08
9.93584e-10
5.06899e-08
9.82943e-10
5.07022e-08
9.72552e-10
5.07136e-08
9.62367e-10
5.07241e-08
9.52341e-10
5.07337e-08
9.42428e-10
5.07424e-08
9.32583e-10
5.07501e-08
9.22759e-10
5.07568e-08
9.12908e-10
5.07626e-08
9.02984e-10
5.07675e-08
8.92936e-10
5.07714e-08
8.82715e-10
5.07743e-08
8.72268e-10
5.07763e-08
8.61542e-10
5.07773e-08
8.50482e-10
5.07775e-08
8.39031e-10
5.07766e-08
8.2713e-10
5.07749e-08
8.14718e-10
5.07723e-08
8.01734e-10
5.07688e-08
7.88114e-10
5.07644e-08
7.73792e-10
5.07592e-08
7.58703e-10
5.07532e-08
7.42782e-10
5.07464e-08
7.25963e-10
5.07389e-08
7.08181e-10
5.07306e-08
6.89373e-10
5.07217e-08
6.69483e-10
5.07121e-08
6.48456e-10
5.07019e-08
6.26248e-10
5.06912e-08
6.02826e-10
5.06799e-08
5.78174e-10
5.06682e-08
5.523e-10
5.0656e-08
5.2524e-10
5.06433e-08
4.97071e-10
5.06303e-08
4.67915e-10
5.06168e-08
4.37947e-10
5.06031e-08
4.07401e-10
5.0589e-08
3.76568e-10
5.05747e-08
3.45791e-10
5.05602e-08
3.15449e-10
5.05456e-08
2.85942e-10
5.0531e-08
2.5766e-10
5.05164e-08
2.30956e-10
5.05021e-08
2.06118e-10
5.04881e-08
1.83344e-10
5.04745e-08
1.62734e-10
5.04614e-08
1.44291e-10
5.04488e-08
1.27938e-10
5.04369e-08
1.13541e-10
5.04257e-08
1.00925e-10
5.04153e-08
8.9839e-11
5.04057e-08
7.97498e-11
6.89419e-11
4.98258e-08
1.75668e-09
-4.97185e-08
4.99548e-08
1.91306e-09
5.00988e-08
2.04658e-09
5.02514e-08
2.15284e-09
5.04071e-08
2.23076e-09
5.05615e-08
2.28117e-09
5.07112e-08
2.3059e-09
5.08534e-08
2.30746e-09
5.09861e-08
2.28896e-09
5.11081e-08
2.25392e-09
5.1219e-08
2.20594e-09
5.13189e-08
2.14853e-09
5.14082e-08
2.08489e-09
5.1488e-08
2.01781e-09
5.15592e-08
1.9496e-09
5.16231e-08
1.88207e-09
5.16807e-08
1.81654e-09
5.17331e-08
1.75391e-09
5.17813e-08
1.69471e-09
5.18261e-08
1.6392e-09
5.18682e-08
1.58744e-09
5.19082e-08
1.53934e-09
5.19464e-08
1.49471e-09
5.19833e-08
1.45332e-09
5.20191e-08
1.41493e-09
5.2054e-08
1.37928e-09
5.2088e-08
1.34613e-09
5.21215e-08
1.31526e-09
5.21544e-08
1.28647e-09
5.21867e-08
1.25956e-09
5.22186e-08
1.23438e-09
5.225e-08
1.21078e-09
5.22811e-08
1.18862e-09
5.23117e-08
1.1678e-09
5.23419e-08
1.1482e-09
5.23717e-08
1.12973e-09
5.24011e-08
1.1123e-09
5.24302e-08
1.09582e-09
5.24588e-08
1.08023e-09
5.2487e-08
1.06544e-09
5.25149e-08
1.05139e-09
5.25423e-08
1.03802e-09
5.25692e-08
1.02528e-09
5.25957e-08
1.01309e-09
5.26218e-08
1.00142e-09
5.26474e-08
9.90207e-10
5.26725e-08
9.79401e-10
5.26972e-08
9.68954e-10
5.27213e-08
9.58818e-10
5.27449e-08
9.48948e-10
5.2768e-08
9.39296e-10
5.27905e-08
9.29818e-10
5.28124e-08
9.20467e-10
5.28338e-08
9.11198e-10
5.28546e-08
9.01963e-10
5.28748e-08
8.92715e-10
5.28944e-08
8.83407e-10
5.29133e-08
8.7399e-10
5.29317e-08
8.64411e-10
5.29493e-08
8.5462e-10
5.29663e-08
8.44562e-10
5.29826e-08
8.34182e-10
5.29982e-08
8.23422e-10
5.30131e-08
8.12224e-10
5.30273e-08
8.00526e-10
5.30408e-08
7.88265e-10
5.30535e-08
7.75378e-10
5.30655e-08
7.61799e-10
5.30767e-08
7.47462e-10
5.30872e-08
7.32301e-10
5.30969e-08
7.16249e-10
5.31059e-08
6.99243e-10
5.3114e-08
6.81219e-10
5.31214e-08
6.6212e-10
5.31279e-08
6.41893e-10
5.31337e-08
6.20495e-10
5.31386e-08
5.97896e-10
5.31427e-08
5.7408e-10
5.3146e-08
5.49057e-10
5.31483e-08
5.22866e-10
5.31498e-08
4.95582e-10
5.31504e-08
4.67326e-10
5.31501e-08
4.38269e-10
5.31489e-08
4.08634e-10
5.31467e-08
3.78699e-10
5.31437e-08
3.48789e-10
5.31399e-08
3.19262e-10
5.31354e-08
2.90494e-10
5.31302e-08
2.62851e-10
5.31245e-08
2.36668e-10
5.31184e-08
2.12218e-10
5.3112e-08
1.89696e-10
5.31055e-08
1.69207e-10
5.30991e-08
1.50768e-10
5.30927e-08
1.34321e-10
5.30865e-08
1.19749e-10
5.30805e-08
1.06885e-10
5.30749e-08
9.54721e-11
5.30696e-08
8.49974e-11
7.41448e-11
5.17516e-08
1.65481e-09
-5.16498e-08
5.18722e-08
1.79244e-09
5.20068e-08
1.91205e-09
5.21499e-08
2.00969e-09
5.2297e-08
2.08369e-09
5.2444e-08
2.13412e-09
5.25878e-08
2.16215e-09
5.27256e-08
2.16962e-09
5.28556e-08
2.15897e-09
5.29765e-08
2.13303e-09
5.30877e-08
2.09479e-09
5.3189e-08
2.04723e-09
5.32808e-08
1.99311e-09
5.33637e-08
1.93491e-09
5.34385e-08
1.87473e-09
5.35063e-08
1.81427e-09
5.35681e-08
1.75483e-09
5.36246e-08
1.69733e-09
5.36769e-08
1.6424e-09
5.37257e-08
1.5904e-09
5.37717e-08
1.54149e-09
5.38153e-08
1.49569e-09
5.38571e-08
1.45292e-09
5.38974e-08
1.41304e-09
5.39364e-08
1.37587e-09
5.39745e-08
1.34122e-09
5.40117e-08
1.30891e-09
5.40483e-08
1.27873e-09
5.40842e-08
1.25053e-09
5.41196e-08
1.22414e-09
5.41546e-08
1.19941e-09
5.41891e-08
1.17622e-09
5.42233e-08
1.15443e-09
5.42572e-08
1.13395e-09
5.42907e-08
1.11467e-09
5.4324e-08
1.0965e-09
5.43569e-08
1.07935e-09
5.43896e-08
1.06315e-09
5.4422e-08
1.04783e-09
5.44541e-08
1.0333e-09
5.4486e-08
1.01952e-09
5.45176e-08
1.00642e-09
5.45489e-08
9.93938e-10
5.458e-08
9.82023e-10
5.46108e-08
9.70621e-10
5.46413e-08
9.59682e-10
5.46715e-08
9.49157e-10
5.47015e-08
9.38998e-10
5.47312e-08
9.29158e-10
5.47605e-08
9.19591e-10
5.47896e-08
9.10253e-10
5.48183e-08
9.01097e-10
5.48467e-08
8.92079e-10
5.48747e-08
8.83154e-10
5.49024e-08
8.74275e-10
5.49297e-08
8.65397e-10
5.49567e-08
8.56471e-10
5.49832e-08
8.47449e-10
5.50093e-08
8.38282e-10
5.5035e-08
8.28918e-10
5.50603e-08
8.19305e-10
5.50851e-08
8.09386e-10
5.51094e-08
7.99107e-10
5.51332e-08
7.88409e-10
5.51565e-08
7.77232e-10
5.51793e-08
7.65515e-10
5.52014e-08
7.53194e-10
5.5223e-08
7.40206e-10
5.5244e-08
7.26487e-10
5.52643e-08
7.1197e-10
5.5284e-08
6.96592e-10
5.5303e-08
6.80291e-10
5.53212e-08
6.63005e-10
5.53386e-08
6.44679e-10
5.53552e-08
6.25264e-10
5.5371e-08
6.04719e-10
5.53859e-08
5.83015e-10
5.53998e-08
5.60142e-10
5.54128e-08
5.3611e-10
5.54247e-08
5.10961e-10
5.54355e-08
4.84767e-10
5.54452e-08
4.57647e-10
5.54537e-08
4.29763e-10
5.5461e-08
4.01327e-10
5.54671e-08
3.72598e-10
5.5472e-08
3.43881e-10
5.54758e-08
3.15507e-10
5.54784e-08
2.87824e-10
5.54801e-08
2.61172e-10
5.54809e-08
2.35862e-10
5.5481e-08
2.12151e-10
5.54804e-08
1.90227e-10
5.54795e-08
1.70196e-10
5.54781e-08
1.52088e-10
5.54766e-08
1.35861e-10
5.54749e-08
1.21415e-10
5.54732e-08
1.086e-10
5.54715e-08
9.71808e-11
5.54698e-08
8.67385e-11
7.64717e-11
5.37446e-08
1.55733e-09
-5.36471e-08
5.38583e-08
1.6787e-09
5.39847e-08
1.7857e-09
5.41195e-08
1.87489e-09
5.42587e-08
1.94445e-09
5.43988e-08
1.99397e-09
5.45369e-08
2.02406e-09
5.46705e-08
2.03605e-09
5.47977e-08
2.03179e-09
5.49172e-08
2.01354e-09
5.50282e-08
1.98373e-09
5.51306e-08
1.94487e-09
5.52244e-08
1.89933e-09
5.531e-08
1.84927e-09
5.53882e-08
1.79658e-09
5.54596e-08
1.74284e-09
5.55251e-08
1.68929e-09
5.55856e-08
1.63687e-09
5.56418e-08
1.58624e-09
5.56943e-08
1.53784e-09
5.57439e-08
1.49191e-09
5.5791e-08
1.44857e-09
5.58361e-08
1.40783e-09
5.58796e-08