/*--------------------------------*- C++ -*----------------------------------*\
| =========                 |                                                 |
| \\      /  F ield         | OpenFOAM: The Open Source CFD Toolbox           |
|  \\    /   O peration     | Version:  2.3.0                                 |
|   \\  /    A nd           | Web:      www.OpenFOAM.org                      |
|    \\/     M anipulation  |                                                 |
\*---------------------------------------------------------------------------*/
FoamFile
{
    version     2.0;
    format      ascii;
    class       surfaceScalarField;
    location    "0.4";
    object      phi_0;
}
// * * * * * * * * * * * * * * * * * * * * * * * * * * * * * * * * * * * * * //

dimensions      [0 3 -1 0 0 0 0];

internalField   nonuniform List<scalar> 
6598
(
2.86377e-08
2.90243e-09
-3.15402e-08
2.57717e-08
2.866e-09
2.30853e-08
2.68644e-09
2.06092e-08
2.47605e-09
1.83597e-08
2.2495e-09
1.63473e-08
2.01246e-09
1.4574e-08
1.77326e-09
1.30345e-08
1.53951e-09
1.17169e-08
1.31763e-09
1.0604e-08
1.11288e-09
9.67487e-09
9.29122e-10
8.90622e-09
7.68652e-10
8.2741e-09
6.32119e-10
7.75536e-09
5.18735e-10
7.32875e-09
4.26609e-10
6.97561e-09
3.53139e-10
6.68021e-09
2.95406e-10
6.42971e-09
2.50494e-10
6.214e-09
2.15715e-10
6.02526e-09
1.88742e-10
5.8576e-09
1.67659e-10
5.70665e-09
1.50951e-10
5.56918e-09
1.37465e-10
5.44284e-09
1.26344e-10
5.32587e-09
1.16971e-10
5.21696e-09
1.08908e-10
5.11511e-09
1.01848e-10
5.01953e-09
9.55799e-11
4.92958e-09
8.99539e-11
4.84471e-09
8.48648e-11
4.76448e-09
8.02355e-11
4.68847e-09
7.60075e-11
4.61633e-09
7.21346e-11
4.54776e-09
6.85786e-11
4.48245e-09
6.5307e-11
4.42016e-09
6.22912e-11
4.36065e-09
5.95059e-11
4.30372e-09
5.69285e-11
4.24918e-09
5.45388e-11
4.19687e-09
5.23184e-11
4.14661e-09
5.02507e-11
4.09829e-09
4.83212e-11
4.05178e-09
4.65165e-11
4.00695e-09
4.48248e-11
3.96372e-09
4.32353e-11
3.92198e-09
4.17385e-11
3.88165e-09
4.03259e-11
3.84266e-09
3.89895e-11
3.80494e-09
3.77226e-11
3.76842e-09
3.65187e-11
3.73305e-09
3.53722e-11
3.69877e-09
3.42776e-11
3.66554e-09
3.32304e-11
3.63332e-09
3.22261e-11
3.60205e-09
3.12605e-11
3.57172e-09
3.03301e-11
3.54229e-09
2.94313e-11
3.51373e-09
2.85608e-11
3.48602e-09
2.77156e-11
3.45912e-09
2.68928e-11
3.43303e-09
2.60898e-11
3.40773e-09
2.53039e-11
3.3832e-09
2.45328e-11
3.35942e-09
2.37739e-11
3.3364e-09
2.30252e-11
3.31411e-09
2.22845e-11
3.29256e-09
2.15496e-11
3.27175e-09
2.08185e-11
3.25166e-09
2.00894e-11
3.2323e-09
1.93604e-11
3.21367e-09
1.86298e-11
3.19577e-09
1.78961e-11
3.17861e-09
1.71576e-11
3.1622e-09
1.6413e-11
3.14654e-09
1.56604e-11
3.13164e-09
1.48978e-11
3.11752e-09
1.41226e-11
3.10419e-09
1.33312e-11
3.09167e-09
1.25194e-11
3.07999e-09
1.1682e-11
3.06917e-09
1.08133e-11
3.05926e-09
9.90837e-12
3.0503e-09
8.96402e-12
3.04232e-09
7.98013e-12
3.03536e-09
6.96151e-12
3.02944e-09
5.91876e-12
3.02457e-09
4.86904e-12
3.02074e-09
3.83565e-12
3.01789e-09
2.84687e-12
3.01596e-09
1.933e-12
3.01483e-09
1.1208e-12
3.0144e-09
4.36935e-13
3.01446e-09
-6.15675e-14
3.01481e-09
-3.55524e-13
3.01533e-09
-5.12681e-13
3.0159e-09
-5.69704e-13
3.01644e-09
-5.40075e-13
3.01686e-09
-4.21371e-13
3.01704e-09
-1.78341e-13
7.81698e-13
3.43415e-08
3.15789e-09
-3.45969e-08
3.37732e-08
3.43423e-09
3.29743e-08
3.48534e-09
3.20195e-08
3.43088e-09
3.09639e-08
3.30509e-09
2.98531e-08
3.12329e-09
2.87239e-08
2.90249e-09
2.76045e-08
2.65885e-09
2.65161e-08
2.40609e-09
2.54733e-08
2.15562e-09
2.4486e-08
1.91651e-09
2.35593e-08
1.6953e-09
2.26955e-08
1.49594e-09
2.18941e-08
1.32012e-09
2.1153e-08
1.16767e-09
2.04691e-08
1.03709e-09
1.98383e-08
9.26136e-10
1.92567e-08
8.3219e-10
1.87197e-08
7.52619e-10
1.82235e-08
6.84979e-10
1.7764e-08
6.27126e-10
1.73377e-08
5.77254e-10
1.69413e-08
5.3389e-10
1.65718e-08
4.95854e-10
1.62266e-08
4.62215e-10
1.59032e-08
4.32246e-10
1.55997e-08
4.05374e-10
1.53141e-08
3.81149e-10
1.50449e-08
3.59211e-10
1.47905e-08
3.39268e-10
1.45496e-08
3.21079e-10
1.43212e-08
3.04445e-10
1.41041e-08
2.89194e-10
1.38975e-08
2.75177e-10
1.37006e-08
2.62268e-10
1.35125e-08
2.50351e-10
1.33327e-08
2.39329e-10
1.31605e-08
2.29111e-10
1.29954e-08
2.1962e-10
1.2837e-08
2.10785e-10
1.26847e-08
2.02544e-10
1.25381e-08
1.9484e-10
1.2397e-08
1.87622e-10
1.2261e-08
1.80847e-10
1.21298e-08
1.74473e-10
1.20031e-08
1.68464e-10
1.18806e-08
1.62787e-10
1.17622e-08
1.57413e-10
1.16476e-08
1.52313e-10
1.15366e-08
1.47464e-10
1.14292e-08
1.42842e-10
1.1325e-08
1.38428e-10
1.1224e-08
1.34202e-10
1.11261e-08
1.30147e-10
1.10311e-08
1.26246e-10
1.0939e-08
1.22484e-10
1.08496e-08
1.18847e-10
1.07628e-08
1.15321e-10
1.06786e-08
1.11894e-10
1.0597e-08
1.08553e-10
1.05178e-08
1.05288e-10
1.0441e-08
1.02088e-10
1.03666e-08
9.89417e-11
1.02945e-08
9.58393e-11
1.02248e-08
9.27714e-11
1.01573e-08
8.97284e-11
1.00922e-08
8.67014e-11
1.00293e-08
8.36816e-11
9.96873e-09
8.06608e-11
9.91046e-09
7.7631e-11
9.85451e-09
7.45845e-11
9.80089e-09
7.1514e-11
9.74963e-09
6.84126e-11
9.70077e-09
6.52732e-11
9.65434e-09
6.20884e-11
9.61039e-09
5.88502e-11
9.56896e-09
5.55497e-11
9.53012e-09
5.21766e-11
9.49392e-09
4.87201e-11
9.46043e-09
4.51694e-11
9.42973e-09
4.15162e-11
9.40188e-09
3.77569e-11
9.37695e-09
3.38969e-11
9.35497e-09
2.99538e-11
9.33597e-09
2.59611e-11
9.31992e-09
2.19698e-11
9.30674e-09
1.8048e-11
9.2963e-09
1.42773e-11
9.2884e-09
1.07467e-11
9.28279e-09
7.54261e-12
9.27918e-09
4.73688e-12
9.27724e-09
2.37753e-12
9.27665e-09
5.21509e-13
9.27702e-09
-7.25952e-13
9.27794e-09
-1.43406e-12
9.27915e-09
-1.7711e-12
9.28042e-09
-1.81116e-12
9.28154e-09
-1.54842e-12
9.28217e-09
-8.07942e-13
1.5795e-12
3.6435e-08
2.97443e-09
-3.62515e-08
3.65273e-08
3.34189e-09
3.64962e-08
3.51644e-09
3.63463e-08
3.58079e-09
3.6087e-08
3.56438e-09
3.5732e-08
3.47827e-09
3.52983e-08
3.3362e-09
3.48033e-08
3.15383e-09
3.42635e-08
2.94587e-09
3.36937e-08
2.72541e-09
3.31067e-08
2.50357e-09
3.25128e-08
2.28914e-09
3.19205e-08
2.08832e-09
3.13358e-08
1.90484e-09
3.07631e-08
1.7403e-09
3.02055e-08
1.59469e-09
2.96648e-08
1.46687e-09
2.91419e-08
1.35507e-09
2.86373e-08
1.25725e-09
2.81509e-08
1.17139e-09
2.76824e-08
1.0956e-09
2.72314e-08
1.02823e-09
2.67974e-08
9.67914e-10
2.63797e-08
9.1352e-10
2.59778e-08
8.64142e-10
2.5591e-08
8.19058e-10
2.52187e-08
7.77694e-10
2.48602e-08
7.39591e-10
2.45151e-08
7.04377e-10
2.41826e-08
6.71746e-10
2.38622e-08
6.41444e-10
2.35534e-08
6.1325e-10
2.32556e-08
5.86978e-10
2.29684e-08
5.62459e-10
2.26911e-08
5.39545e-10
2.24233e-08
5.18103e-10
2.21646e-08
4.98012e-10
2.19146e-08
4.79161e-10
2.16728e-08
4.6145e-10
2.14388e-08
4.44788e-10
2.12122e-08
4.29091e-10
2.09928e-08
4.14281e-10
2.07801e-08
4.00288e-10
2.05739e-08
3.87046e-10
2.03739e-08
3.74496e-10
2.01798e-08
3.62583e-10
1.99913e-08
3.51256e-10
1.98082e-08
3.40467e-10
1.96304e-08
3.30173e-10
1.94575e-08
3.20333e-10
1.92894e-08
3.10909e-10
1.9126e-08
3.01866e-10
1.8967e-08
2.9317e-10
1.88124e-08
2.8479e-10
1.86619e-08
2.76697e-10
1.85156e-08
2.68863e-10
1.83732e-08
2.6126e-10
1.82346e-08
2.53864e-10
1.80999e-08
2.4665e-10
1.79688e-08
2.39594e-10
1.78414e-08
2.32674e-10
1.77177e-08
2.25868e-10
1.75974e-08
2.19154e-10
1.74808e-08
2.12512e-10
1.73676e-08
2.05921e-10
1.7258e-08
1.99362e-10
1.71519e-08
1.92815e-10
1.70493e-08
1.86262e-10
1.69503e-08
1.79684e-10
1.68548e-08
1.73064e-10
1.6763e-08
1.66385e-10
1.66749e-08
1.5963e-10
1.65905e-08
1.52784e-10
1.651e-08
1.4583e-10
1.64333e-08
1.38754e-10
1.63606e-08
1.31538e-10
1.6292e-08
1.24168e-10
1.62276e-08
1.16625e-10
1.61674e-08
1.08897e-10
1.61116e-08
1.00971e-10
1.60603e-08
9.28437e-11
1.60135e-08
8.45258e-11
1.59713e-08
7.60452e-11
1.59338e-08
6.74551e-11
1.5901e-08
5.88372e-11
1.58726e-08
5.03038e-11
1.58487e-08
4.19949e-11
1.58289e-08
3.40706e-11
1.58129e-08
2.6699e-11
1.58004e-08
2.00392e-11
1.5791e-08
1.42218e-11
1.5784e-08
9.32817e-12
1.57792e-08
5.36001e-12
1.57762e-08
2.23624e-12
1.57748e-08
-4.54487e-14
1.57745e-08
-1.44448e-12
1.57748e-08
-2.10041e-12
1.57753e-08
-2.07919e-12
1.57756e-08
-1.07163e-12
2.81306e-12
3.80068e-08
2.75182e-09
-3.77842e-08
3.82312e-08
3.11752e-09
3.84166e-08
3.33102e-09
3.85514e-08
3.44603e-09
3.86282e-08
3.48752e-09
3.86427e-08
3.46376e-09
3.8595e-08
3.38399e-09
3.84884e-08
3.26034e-09
3.8329e-08
3.1053e-09
3.81238e-08
2.93059e-09
3.78807e-08
2.74672e-09
3.76073e-08
2.56252e-09
3.73108e-08
2.38478e-09
3.69976e-08
2.21809e-09
3.66728e-08
2.06509e-09
3.63407e-08
1.92681e-09
3.60045e-08
1.80307e-09
3.56666e-08
1.69291e-09
3.53289e-08
1.59495e-09
3.49927e-08
1.50764e-09
3.46588e-08
1.42948e-09
3.43279e-08
1.35908e-09
3.40006e-08
1.29524e-09
3.36772e-08
1.23696e-09
3.33579e-08
1.1834e-09
3.30431e-08
1.13391e-09
3.27328e-08
1.08796e-09
3.24273e-08
1.04511e-09
3.21266e-08
1.00503e-09
3.18309e-08
9.67441e-10
3.15403e-08
9.32104e-10
3.12547e-08
8.98824e-10
3.09742e-08
8.67434e-10
3.06989e-08
8.37784e-10
3.04287e-08
8.09744e-10
3.01636e-08
7.83193e-10
2.99036e-08
7.58025e-10
2.96486e-08
7.3414e-10
2.93986e-08
7.11448e-10
2.91535e-08
6.89865e-10
2.89133e-08
6.69314e-10
2.86779e-08
6.49722e-10
2.84472e-08
6.31022e-10
2.8221e-08
6.13152e-10
2.79995e-08
5.96053e-10
2.77824e-08
5.79671e-10
2.75697e-08
5.63954e-10
2.73613e-08
5.48852e-10
2.71572e-08
5.34321e-10
2.69572e-08
5.20317e-10
2.67613e-08
5.06798e-10
2.65694e-08
4.93725e-10
2.63815e-08
4.81059e-10
2.61976e-08
4.68764e-10
2.60175e-08
4.56805e-10
2.58412e-08
4.45149e-10
2.56687e-08
4.3376e-10
2.54999e-08
4.22608e-10
2.53349e-08
4.11659e-10
2.51736e-08
4.00884e-10
2.50161e-08
3.9025e-10
2.48622e-08
3.79728e-10
2.47121e-08
3.69287e-10
2.45657e-08
3.58897e-10
2.44231e-08
3.48528e-10
2.42843e-08
3.38152e-10
2.41494e-08
3.27738e-10
2.40184e-08
3.17258e-10
2.38914e-08
3.06683e-10
2.37684e-08
2.95986e-10
2.36497e-08
2.8514e-10
2.35352e-08
2.74118e-10
2.34251e-08
2.62894e-10
2.33195e-08
2.51443e-10
2.32185e-08
2.39741e-10
2.31223e-08
2.27764e-10
2.30309e-08
2.15489e-10
2.29447e-08
2.02895e-10
2.28636e-08
1.89969e-10
2.27879e-08
1.76705e-10
2.27176e-08
1.63112e-10
2.26529e-08
1.49222e-10
2.25939e-08
1.35098e-10
2.25405e-08
1.20837e-10
2.24927e-08
1.06579e-10
2.24505e-08
9.25051e-11
2.24137e-08
7.88335e-11
2.2382e-08
6.58054e-11
2.2355e-08
5.36678e-11
2.23324e-08
4.26494e-11
2.23137e-08
3.29337e-11
2.22984e-08
2.46322e-11
2.2286e-08
1.77603e-11
2.2276e-08
1.22393e-11
2.2268e-08
7.9134e-12
2.22619e-08
4.611e-12
2.22576e-08
2.24931e-12
2.22545e-08
9.6881e-13
2.22522e-08
1.2682e-12
5.79641e-12
3.95408e-08
2.5545e-09
-3.93434e-08
3.97676e-08
2.89064e-09
3.99897e-08
3.10898e-09
4.01949e-08
3.24081e-09
4.03756e-08
3.3068e-09
4.05244e-08
3.31494e-09
4.06362e-08
3.27225e-09
4.07084e-08
3.18808e-09
4.07411e-08
3.07265e-09
4.07358e-08
2.93582e-09
4.06959e-08
2.78666e-09
4.06253e-08
2.63311e-09
4.05286e-08
2.48152e-09
4.04101e-08
2.33656e-09
4.0274e-08
2.20123e-09
4.01237e-08
2.07706e-09
3.99623e-08
1.9645e-09
3.9792e-08
1.86316e-09
3.96148e-08
1.77219e-09
3.9432e-08
1.69048e-09
3.92446e-08
1.61684e-09
3.90535e-08
1.55016e-09
3.88594e-08
1.48941e-09
3.86626e-08
1.4337e-09
3.84637e-08
1.38231e-09
3.8263e-08
1.33462e-09
3.80608e-08
1.29014e-09
3.78575e-08
1.24848e-09
3.76532e-08
1.20932e-09
3.74482e-08
1.17239e-09
3.72428e-08
1.13748e-09
3.70373e-08
1.1044e-09
3.68317e-08
1.07301e-09
3.66263e-08
1.04316e-09
3.64213e-08
1.01474e-09
3.62169e-08
9.87645e-10
3.60131e-08
9.61777e-10
3.58102e-08
9.37051e-10
3.56083e-08
9.13386e-10
3.54074e-08
8.90708e-10
3.52078e-08
8.6895e-10
3.50095e-08
8.48048e-10
3.48126e-08
8.27943e-10
3.46171e-08
8.08579e-10
3.44233e-08
7.89905e-10
3.42311e-08
7.71871e-10
3.40406e-08
7.5443e-10
3.38519e-08
7.37539e-10
3.36651e-08
7.21154e-10
3.34802e-08
7.05235e-10
3.32972e-08
6.89742e-10
3.31163e-08
6.74638e-10
3.29375e-08
6.59885e-10
3.27608e-08
6.45448e-10
3.25863e-08
6.31289e-10
3.24141e-08
6.17374e-10
3.22442e-08
6.03667e-10
3.20766e-08
5.90134e-10
3.19116e-08
5.7674e-10
3.1749e-08
5.63449e-10
3.1589e-08
5.50227e-10
3.14317e-08
5.37037e-10
3.12772e-08
5.23844e-10
3.11254e-08
5.10611e-10
3.09767e-08
4.97303e-10
3.08309e-08
4.83881e-10
3.06884e-08
4.7031e-10
3.05491e-08
4.56552e-10
3.04132e-08
4.4257e-10
3.02808e-08
4.28328e-10
3.01522e-08
4.13789e-10
3.00274e-08
3.98918e-10
2.99066e-08
3.83682e-10
2.979e-08
3.68045e-10
2.96778e-08
3.51976e-10
2.95701e-08
3.35445e-10
2.94672e-08
3.18425e-10
2.93692e-08
3.00895e-10
2.92763e-08
2.82844e-10
2.91887e-08
2.64276e-10
2.91066e-08
2.45219e-10
2.90301e-08
2.2573e-10
2.89593e-08
2.05908e-10
2.88942e-08
1.85898e-10
2.88349e-08
1.65899e-10
2.87813e-08
1.46155e-10
2.87331e-08
1.26955e-10
2.86903e-08
1.08613e-10
2.86525e-08
9.14421e-11
2.86195e-08
7.57295e-11
2.85907e-08
6.17008e-11
2.85658e-08
4.9493e-11
2.85445e-08
3.91317e-11
2.85262e-08
3.05326e-11
2.85106e-08
2.35248e-11
2.84973e-08
1.79236e-11
2.84859e-08
1.3607e-11
2.84763e-08
1.05941e-11
2.84682e-08
9.37499e-12
1.24978e-11
4.1115e-08
2.38435e-09
-4.09448e-08
4.13213e-08
2.68432e-09
4.15356e-08
2.89468e-09
4.1746e-08
3.03043e-09
4.19459e-08
3.10692e-09
4.2129e-08
3.1318e-09
4.22902e-08
3.11105e-09
4.2426e-08
3.05226e-09
4.25347e-08
2.96393e-09
4.26161e-08
2.85446e-09
4.26711e-08
2.73166e-09
4.27018e-08
2.60245e-09
4.27107e-08
2.47261e-09
4.27007e-08
2.34651e-09
4.26748e-08
2.22718e-09
4.26354e-08
2.1164e-09
4.2585e-08
2.01495e-09
4.25253e-08
1.92284e-09
4.24579e-08
1.8396e-09
4.23839e-08
1.76447e-09
4.23042e-08
1.69655e-09
4.22194e-08
1.63492e-09
4.21301e-08
1.57873e-09
4.20366e-08
1.52721e-09
4.19392e-08
1.4797e-09
4.18382e-08
1.43565e-09
4.17337e-08
1.3946e-09
4.16261e-08
1.35617e-09
4.15153e-08
1.32005e-09
4.14017e-08
1.286e-09
4.12854e-08
1.2538e-09
4.11665e-08
1.22327e-09
4.10453e-08
1.19426e-09
4.09218e-08
1.16664e-09
4.07962e-08
1.1403e-09
4.06687e-08
1.11513e-09
4.05395e-08
1.09105e-09
4.04085e-08
1.06797e-09
4.02761e-08
1.04581e-09
4.01423e-08
1.02451e-09
4.00073e-08
1.004e-09
3.98711e-08
9.8422e-10
3.97339e-08
9.65115e-10
3.95959e-08
9.46632e-10
3.9457e-08
9.28723e-10
3.93176e-08
9.1134e-10
3.91776e-08
8.94439e-10
3.90371e-08
8.77977e-10
3.88964e-08
8.61914e-10
3.87554e-08
8.46211e-10
3.86143e-08
8.30828e-10
3.84732e-08
8.15728e-10
3.83322e-08
8.00875e-10
3.81914e-08
7.86231e-10
3.8051e-08
7.7176e-10
3.79109e-08
7.57426e-10
3.77714e-08
7.43192e-10
3.76325e-08
7.29021e-10
3.74944e-08
7.14876e-10
3.73571e-08
7.00717e-10
3.72208e-08
6.86507e-10
3.70857e-08
6.72206e-10
3.69517e-08
6.57772e-10
3.68192e-08
6.43165e-10
3.66881e-08
6.28343e-10
3.65587e-08
6.13261e-10
3.64312e-08
5.97878e-10
3.63056e-08
5.82148e-10
3.61821e-08
5.66027e-10
3.6061e-08
5.49471e-10
3.59423e-08
5.32437e-10
3.58264e-08
5.14881e-10
3.57133e-08
4.9676e-10
3.56033e-08
4.78034e-10
3.54966e-08
4.58665e-10
3.53934e-08
4.38618e-10
3.5294e-08
4.17864e-10
3.51985e-08
3.96383e-10
3.51072e-08
3.7417e-10
3.50202e-08
3.5124e-10
3.49378e-08
3.27638e-10
3.48601e-08
3.03449e-10
3.47872e-08
2.78804e-10
3.47192e-08
2.5389e-10
3.46561e-08
2.28952e-10
3.4598e-08
2.04291e-10
3.45447e-08
1.8025e-10
3.44961e-08
1.57198e-10
3.44521e-08
1.35498e-10
3.44123e-08
1.15479e-10
3.43766e-08
9.73981e-11
3.43447e-08
8.14127e-11
3.43163e-08
6.75617e-11
3.4291e-08
5.57702e-11
3.42687e-08
4.58778e-11
3.42489e-08
3.76993e-11
3.42314e-08
3.10874e-11
3.4216e-08
2.60092e-11
3.42026e-08
2.28128e-11
2.29043e-11
4.27422e-08
2.23494e-09
-4.25927e-08
4.29272e-08
2.4993e-09
4.31256e-08
2.69622e-09
4.33257e-08
2.83039e-09
4.35209e-08
2.91173e-09
4.37059e-08
2.9468e-09
4.38761e-08
2.94081e-09
4.40284e-08
2.9e-09
4.41608e-08
2.8315e-09
4.42727e-08
2.74253e-09
4.43645e-08
2.63988e-09
4.44373e-08
2.52964e-09
4.44929e-08
2.417e-09
4.45334e-08
2.30602e-09
4.45609e-08
2.19965e-09
4.45776e-08
2.09978e-09
4.45851e-08
2.00741e-09
4.45851e-08
1.92285e-09
4.45788e-08
1.84592e-09
4.45671e-08
1.77613e-09
4.45508e-08
1.71283e-09
4.45305e-08
1.65531e-09
4.45063e-08
1.60285e-09
4.44788e-08
1.55479e-09
4.44479e-08
1.51057e-09
4.44139e-08
1.46967e-09
4.43768e-08
1.43167e-09
4.43367e-08
1.39621e-09
4.42938e-08
1.363e-09
4.4248e-08
1.33179e-09
4.41994e-08
1.30236e-09
4.41482e-08
1.27455e-09
4.40942e-08
1.24819e-09
4.40377e-08
1.22316e-09
4.39787e-08
1.19935e-09
4.39172e-08
1.17664e-09
4.38533e-08
1.15495e-09
4.3787e-08
1.13419e-09
4.37186e-08
1.11428e-09
4.36479e-08
1.09516e-09
4.35752e-08
1.07676e-09
4.35004e-08
1.05901e-09
4.34236e-08
1.04186e-09
4.3345e-08
1.02526e-09
4.32646e-08
1.00916e-09
4.31824e-08
9.93508e-10
4.30986e-08
9.78257e-10
4.30132e-08
9.63366e-10
4.29263e-08
9.48792e-10
4.2838e-08
9.34493e-10
4.27484e-08
9.2043e-10
4.26576e-08
9.06564e-10
4.25656e-08
8.92855e-10
4.24726e-08
8.79264e-10
4.23786e-08
8.65753e-10
4.22837e-08
8.52281e-10
4.21881e-08
8.3881e-10
4.20918e-08
8.253e-10
4.1995e-08
8.11708e-10
4.18977e-08
7.97993e-10
4.18001e-08
7.84111e-10
4.17023e-08
7.70018e-10
4.16044e-08
7.55669e-10
4.15066e-08
7.41015e-10
4.14089e-08
7.26011e-10
4.13116e-08
7.10605e-10
4.12147e-08
6.94748e-10
4.11184e-08
6.78389e-10
4.1023e-08
6.61477e-10
4.09285e-08
6.43959e-10
4.08352e-08
6.25786e-10
4.07431e-08
6.06906e-10
4.06526e-08
5.8727e-10
4.05638e-08
5.66832e-10
4.04769e-08
5.45547e-10
4.03922e-08
5.23378e-10
4.03097e-08
5.00294e-10
4.02299e-08
4.76276e-10
4.01527e-08
4.51325e-10
4.00785e-08
4.25466e-10
4.00074e-08
3.98761e-10
3.99395e-08
3.71312e-10
3.9875e-08
3.43279e-10
3.9814e-08
3.1488e-10
3.97566e-08
2.86393e-10
3.97027e-08
2.58156e-10
3.96524e-08
2.30549e-10
3.96056e-08
2.03975e-10
3.95623e-08
1.78829e-10
3.95223e-08
1.55464e-10
3.94856e-08
1.3416e-10
3.94519e-08
1.15088e-10
3.94211e-08
9.83035e-11
3.93932e-08
8.37461e-11
3.93678e-08
7.1272e-11
3.93448e-08
6.07035e-11
3.9324e-08
5.18803e-11
3.93053e-08
4.47137e-11
3.92888e-08
3.92867e-11
3.55732e-11
4.44249e-08
2.1008e-09
-4.42907e-08
4.45916e-08
2.33262e-09
4.4774e-08
2.51374e-09
4.49612e-08
2.6432e-09
4.51466e-08
2.72638e-09
4.53251e-08
2.76828e-09
4.54926e-08
2.77331e-09
4.56461e-08
2.74655e-09
4.57836e-08
2.69395e-09
4.59045e-08
2.62166e-09
4.60088e-08
2.53556e-09
4.60974e-08
2.44104e-09
4.61716e-08
2.34274e-09
4.62332e-08
2.24442e-09
4.6284e-08
2.1489e-09
4.63257e-08
2.05813e-09
4.63598e-08
1.97325e-09
4.63879e-08
1.8948e-09
4.64109e-08
1.82286e-09
4.64299e-08
1.75717e-09
4.64454e-08
1.69729e-09
4.6458e-08
1.64269e-09
4.64681e-08
1.5928e-09
4.64758e-08
1.54708e-09
4.64813e-08
1.50504e-09
4.64848e-08
1.46622e-09
4.64862e-08
1.43024e-09
4.64856e-08
1.39678e-09
4.64831e-08
1.36554e-09
4.64786e-08
1.33629e-09
4.64721e-08
1.30882e-09
4.64637e-08
1.28297e-09
4.64533e-08
1.25857e-09
4.6441e-08
1.2355e-09
4.64267e-08
1.21364e-09
4.64105e-08
1.19288e-09
4.63923e-08
1.17314e-09
4.63722e-08
1.15431e-09
4.63501e-08
1.13633e-09
4.63261e-08
1.11912e-09
4.63003e-08
1.10261e-09
4.62725e-08
1.08675e-09
4.62429e-08
1.07146e-09
4.62115e-08
1.0567e-09
4.61783e-08
1.04242e-09
4.61432e-08
1.02855e-09
4.61064e-08
1.01506e-09
4.60679e-08
1.0019e-09
4.60277e-08
9.89013e-10
4.59858e-08
9.7637e-10
4.59423e-08
9.63922e-10
4.58972e-08
9.51626e-10
4.58506e-08
9.39442e-10
4.58026e-08
9.27326e-10
4.57531e-08
9.15236e-10
4.57022e-08
9.0313e-10
4.56501e-08
8.90963e-10
4.55967e-08
8.78692e-10
4.55421e-08
8.66271e-10
4.54865e-08
8.53654e-10
4.54298e-08
8.40793e-10
4.53722e-08
8.27638e-10
4.53137e-08
8.14138e-10
4.52545e-08
8.00242e-10
4.51946e-08
7.85895e-10
4.51342e-08
7.71043e-10
4.50733e-08
7.55628e-10
4.50121e-08
7.39594e-10
4.49507e-08
7.22882e-10
4.48892e-08
7.05435e-10
4.48278e-08
6.87196e-10
4.47666e-08
6.68105e-10
4.47057e-08
6.4811e-10
4.46454e-08
6.27157e-10
4.45858e-08
6.05198e-10
4.4527e-08
5.82192e-10
4.44691e-08
5.58107e-10
4.44125e-08
5.32926e-10
4.43572e-08
5.06654e-10
4.43033e-08
4.79324e-10
4.42511e-08
4.51006e-10
4.42005e-08
4.2182e-10
4.41519e-08
3.91939e-10
4.41052e-08
3.616e-10
4.40605e-08
3.311e-10
4.40178e-08
3.00796e-10
4.39773e-08
2.71083e-10
4.39389e-08
2.4238e-10
4.39026e-08
2.15094e-10
4.38685e-08
1.89591e-10
4.38365e-08
1.66158e-10
4.38066e-08
1.44978e-10
4.37788e-08
1.26122e-10
4.3753e-08
1.09547e-10
4.37291e-08
9.51281e-11
4.37071e-08
8.27e-11
4.36869e-08
7.20919e-11
4.36685e-08
6.31479e-11
4.36521e-08
5.56576e-11
4.84485e-11
4.6165e-08
1.97804e-09
-4.60422e-08
4.63165e-08
2.18112e-09
4.64844e-08
2.3458e-09
4.66591e-08
2.46852e-09
4.68341e-08
2.55141e-09
4.70045e-08
2.59787e-09
4.71664e-08
2.61138e-09
4.73169e-08
2.59608e-09
4.7454e-08
2.55682e-09
4.75769e-08
2.49878e-09
4.76854e-08
2.42702e-09
4.77802e-08
2.34626e-09
4.78623e-08
2.26063e-09
4.79332e-08
2.17357e-09
4.79943e-08
2.08777e-09
4.80473e-08
2.00515e-09
4.80936e-08
1.92698e-09
4.81344e-08
1.85397e-09
4.81709e-08
1.78637e-09
4.82039e-08
1.72415e-09
4.82341e-08
1.66705e-09
4.82621e-08
1.61471e-09
4.82882e-08
1.5667e-09
4.83127e-08
1.5226e-09
4.83358e-08
1.48197e-09
4.83575e-08
1.44446e-09
4.83781e-08
1.4097e-09
4.83974e-08
1.37741e-09
4.84156e-08
1.34733e-09
4.84327e-08
1.31922e-09
4.84486e-08
1.29291e-09
4.84634e-08
1.26821e-09
4.8477e-08
1.24498e-09
4.84894e-08
1.2231e-09
4.85006e-08
1.20244e-09
4.85106e-08
1.18289e-09
4.85193e-08
1.16438e-09
4.85268e-08
1.14681e-09
4.85331e-08
1.13009e-09
4.8538e-08
1.11416e-09
4.85417e-08
1.09895e-09
4.85441e-08
1.08439e-09
4.85451e-08
1.07043e-09
4.85448e-08
1.05699e-09
4.85432e-08
1.04404e-09
4.85402e-08
1.03152e-09
4.85359e-08
1.01938e-09
4.85302e-08
1.00757e-09
4.85232e-08
9.96035e-10
4.85148e-08
9.8474e-10
4.85051e-08
9.73637e-10
4.8494e-08
9.6268e-10
4.84817e-08
9.51824e-10
4.8468e-08
9.41025e-10
4.8453e-08
9.30238e-10
4.84367e-08
9.19416e-10
4.84191e-08
9.08513e-10
4.84003e-08
8.97482e-10
4.83803e-08
8.86274e-10
4.83592e-08
8.74838e-10
4.83368e-08
8.63122e-10
4.83134e-08
8.51075e-10
4.82889e-08
8.3864e-10
4.82634e-08
8.25761e-10
4.82369e-08
8.1238e-10
4.82095e-08
7.98437e-10
4.81812e-08
7.83871e-10
4.81522e-08
7.68619e-10
4.81225e-08
7.52618e-10
4.80921e-08
7.35806e-10
4.80612e-08
7.1812e-10
4.80298e-08
6.99497e-10
4.7998e-08
6.79878e-10
4.7966e-08
6.59206e-10
4.79337e-08
6.37431e-10
4.79014e-08
6.14508e-10
4.78691e-08
5.90406e-10
4.78369e-08
5.65108e-10
4.7805e-08
5.38623e-10
4.77733e-08
5.10987e-10
4.7742e-08
4.82277e-10
4.77112e-08
4.52619e-10
4.7681e-08
4.22193e-10
4.76513e-08
3.91243e-10
4.76224e-08
3.60069e-10
4.75941e-08
3.29029e-10
4.75667e-08
2.98521e-10
4.75401e-08
2.68959e-10
4.75145e-08
2.40748e-10
4.74898e-08
2.1425e-10
4.74662e-08
1.89754e-10
4.74438e-08
1.67449e-10
4.74225e-08
1.47416e-10
4.74024e-08
1.29634e-10
4.73835e-08
1.13998e-10
4.73658e-08
1.00355e-10
4.73494e-08
8.85295e-11
4.73343e-08
7.83039e-11
4.73207e-08
6.9247e-11
5.96318e-11
4.79645e-08
1.86396e-09
-4.78504e-08
4.81036e-08
2.04202e-09
4.82587e-08
2.19064e-09
4.84218e-08
2.30542e-09
4.85868e-08
2.38642e-09
4.87491e-08
2.4356e-09
4.89049e-08
2.45558e-09
4.90513e-08
2.44963e-09
4.91865e-08
2.42166e-09
4.93093e-08
2.37596e-09
4.94195e-08
2.31684e-09
4.95174e-08
2.24839e-09
4.96037e-08
2.17426e-09
4.96797e-08
2.09757e-09
4.97467e-08
2.02082e-09
4.98059e-08
1.94591e-09
4.98588e-08
1.87414e-09
4.99064e-08
1.80633e-09
4.99499e-08
1.74292e-09
4.999e-08
1.68402e-09
5.00275e-08
1.62955e-09
5.00629e-08
1.57929e-09
5.00967e-08
1.53295e-09
5.01291e-08
1.49019e-09
5.01603e-08
1.45069e-09
5.01907e-08
1.41413e-09
5.02201e-08
1.38022e-09
5.02489e-08
1.34869e-09
5.02769e-08
1.31932e-09
5.03042e-08
1.2919e-09
5.03308e-08
1.26625e-09
5.03569e-08
1.2422e-09
5.03822e-08
1.21963e-09
5.04069e-08
1.1984e-09
5.0431e-08
1.1784e-09
5.04543e-08
1.15953e-09
5.0477e-08
1.1417e-09
5.0499e-08
1.12482e-09
5.05202e-08
1.10882e-09
5.05408e-08
1.09363e-09
5.05606e-08
1.07916e-09
5.05796e-08
1.06537e-09
5.05978e-08
1.05218e-09
5.06153e-08
1.03955e-09
5.06319e-08
1.02742e-09
5.06477e-08
1.01573e-09
5.06626e-08
1.00443e-09
5.06767e-08
9.9348e-10
5.06899e-08
9.82826e-10
5.07023e-08
9.72422e-10
5.07137e-08
9.62222e-10
5.07242e-08
9.52179e-10
5.07337e-08
9.42248e-10
5.07424e-08
9.32382e-10
5.07501e-08
9.22535e-10
5.07569e-08
9.12659e-10
5.07627e-08
9.02707e-10
5.07675e-08
8.92628e-10
5.07714e-08
8.82373e-10
5.07744e-08
8.7189e-10
5.07764e-08
8.61123e-10
5.07774e-08
8.50019e-10
5.07775e-08
8.3852e-10
5.07767e-08
8.26566e-10
5.0775e-08
8.14098e-10
5.07724e-08
8.01052e-10
5.07689e-08
7.87364e-10
5.07646e-08
7.72971e-10
5.07594e-08
7.57805e-10
5.07534e-08
7.41801e-10
5.07466e-08
7.24893e-10
5.07391e-08
7.07016e-10
5.07308e-08
6.8811e-10
5.07219e-08
6.68114e-10
5.07124e-08
6.46977e-10
5.07022e-08
6.24655e-10
5.06915e-08
6.01116e-10
5.06803e-08
5.76345e-10
5.06686e-08
5.50351e-10
5.06564e-08
5.23175e-10
5.06438e-08
4.94895e-10
5.06307e-08
4.65638e-10
5.06174e-08
4.35585e-10
5.06036e-08
4.04973e-10
5.05896e-08
3.74099e-10
5.05753e-08
3.4331e-10
5.05608e-08
3.12988e-10
5.05463e-08
2.83533e-10
5.05317e-08
2.55335e-10
5.05172e-08
2.28743e-10
5.05029e-08
2.04038e-10
5.04889e-08
1.81411e-10
5.04754e-08
1.60954e-10
5.04624e-08
1.4266e-10
5.04499e-08
1.26447e-10
5.04381e-08
1.12177e-10
5.0427e-08
9.9673e-11
5.04166e-08
8.86832e-11
5.04072e-08
7.86783e-11
6.79574e-11
4.98258e-08
1.75668e-09
-4.97185e-08
4.99548e-08
1.91306e-09
5.00988e-08
2.04658e-09
5.02514e-08
2.15284e-09
5.04071e-08
2.23075e-09
5.05615e-08
2.28116e-09
5.07112e-08
2.3059e-09
5.08534e-08
2.30746e-09
5.09861e-08
2.28896e-09
5.11081e-08
2.25392e-09
5.1219e-08
2.20594e-09
5.13189e-08
2.14853e-09
5.14082e-08
2.08489e-09
5.1488e-08
2.01781e-09
5.15592e-08
1.9496e-09
5.16231e-08
1.88207e-09
5.16807e-08
1.81654e-09
5.17331e-08
1.75391e-09
5.17813e-08
1.69471e-09
5.18261e-08
1.6392e-09
5.18682e-08
1.58744e-09
5.19082e-08
1.53933e-09
5.19464e-08
1.4947e-09
5.19833e-08
1.45332e-09
5.20191e-08
1.41492e-09
5.2054e-08
1.37927e-09
5.20881e-08
1.34612e-09
5.21215e-08
1.31525e-09
5.21544e-08
1.28645e-09
5.21867e-08
1.25955e-09
5.22186e-08
1.23436e-09
5.225e-08
1.21076e-09
5.22811e-08
1.18861e-09
5.23117e-08
1.16778e-09
5.23419e-08
1.14818e-09
5.23717e-08
1.12971e-09
5.24011e-08
1.11227e-09
5.24302e-08
1.09579e-09
5.24588e-08
1.08019e-09
5.2487e-08
1.06539e-09
5.25149e-08
1.05134e-09
5.25423e-08
1.03797e-09
5.25692e-08
1.02522e-09
5.25957e-08
1.01303e-09
5.26218e-08
1.00135e-09
5.26474e-08
9.90124e-10
5.26725e-08
9.79308e-10
5.26972e-08
9.68849e-10
5.27213e-08
9.58702e-10
5.27449e-08
9.48817e-10
5.2768e-08
9.39151e-10
5.27905e-08
9.29656e-10
5.28125e-08
9.20286e-10
5.28338e-08
9.10996e-10
5.28546e-08
9.01738e-10
5.28748e-08
8.92466e-10
5.28944e-08
8.8313e-10
5.29134e-08
8.73682e-10
5.29317e-08
8.6407e-10
5.29493e-08
8.54242e-10
5.29663e-08
8.44144e-10
5.29826e-08
8.3372e-10
5.29982e-08
8.22913e-10
5.30131e-08
8.11662e-10
5.30273e-08
7.99907e-10
5.30408e-08
7.87585e-10
5.30535e-08
7.74632e-10
5.30655e-08
7.60981e-10
5.30767e-08
7.46567e-10
5.30872e-08
7.31324e-10
5.30969e-08
7.15184e-10
5.31058e-08
6.98084e-10
5.3114e-08
6.79962e-10
5.31213e-08
6.60759e-10
5.31279e-08
6.40424e-10
5.31336e-08
6.18914e-10
5.31385e-08
5.96198e-10
5.31426e-08
5.72266e-10
5.31459e-08
5.47126e-10
5.31482e-08
5.20821e-10
5.31497e-08
4.93431e-10
5.31502e-08
4.65078e-10
5.31499e-08
4.35937e-10
5.31486e-08
4.06239e-10
5.31464e-08
3.76264e-10
5.31434e-08
3.46341e-10
5.31396e-08
3.16831e-10
5.3135e-08
2.8811e-10
5.31298e-08
2.60545e-10
5.31241e-08
2.34465e-10
5.3118e-08
2.10139e-10
5.31116e-08
1.87754e-10
5.31052e-08
1.67408e-10
5.30987e-08
1.49111e-10
5.30924e-08
1.32797e-10
5.30862e-08
1.18348e-10
5.30803e-08
1.05592e-10
5.30747e-08
9.42747e-11
5.30695e-08
8.38841e-11
7.31147e-11
5.17516e-08
1.65481e-09
-5.16498e-08
5.18722e-08
1.79244e-09
5.20068e-08
1.91205e-09
5.21499e-08
2.00969e-09
5.2297e-08
2.08369e-09
5.2444e-08
2.13412e-09
5.25878e-08
2.16214e-09
5.27256e-08
2.16962e-09
5.28556e-08
2.15897e-09
5.29765e-08
2.13303e-09
5.30877e-08
2.09479e-09
5.3189e-08
2.04723e-09
5.32808e-08
1.99311e-09
5.33637e-08
1.93491e-09
5.34385e-08
1.87473e-09
5.35063e-08
1.81427e-09
5.35681e-08
1.75482e-09
5.36246e-08
1.69733e-09
5.36769e-08
1.6424e-09
5.37257e-08
1.5904e-09
5.37717e-08
1.54149e-09
5.38153e-08
1.49569e-09
5.38571e-08
1.45292e-09
5.38974e-08
1.41304e-09
5.39364e-08
1.37587e-09
5.39745e-08
1.34122e-09
5.40117e-08
1.3089e-09
5.40483e-08
1.27872e-09
5.40842e-08
1.25052e-09
5.41196e-08
1.22412e-09
5.41546e-08
1.1994e-09
5.41891e-08
1.1762e-09
5.42233e-08
1.15441e-09
5.42572e-08
1.13393e-09
5.42907e-08
1.11465e-09
5.4324e-08
1.09647e-09
5.43569e-08
1.07932e-09
5.43896e-08
1.06312e-09
5.4422e-08
1.04779e-09
5.44541e-08
1.03326e-09
5.4486e-08
1.01948e-09
5.45176e-08
1.00637e-09
5.45489e-08
9.93879e-10
5.458e-08
9.81957e-10
5.46108e-08
9.70547e-10
5.46413e-08
9.59599e-10
5.46716e-08
9.49064e-10
5.47015e-08
9.38894e-10
5.47312e-08
9.29042e-10
5.47605e-08
9.19462e-10
5.47896e-08
9.10108e-10
5.48183e-08
9.00936e-10
5.48467e-08
8.919e-10
5.48747e-08
8.82954e-10
5.49024e-08
8.74053e-10
5.49297e-08
8.6515e-10
5.49567e-08
8.56197e-10
5.49832e-08
8.47145e-10
5.50093e-08
8.37945e-10
5.5035e-08
8.28545e-10
5.50603e-08
8.18892e-10
5.50851e-08
8.08931e-10
5.51094e-08
7.98605e-10
5.51332e-08
7.87855e-10
5.51565e-08
7.76623e-10
5.51792e-08
7.64845e-10
5.52014e-08
7.5246e-10
5.52229e-08
7.39402e-10
5.52439e-08
7.25607e-10
5.52642e-08
7.1101e-10
5.52839e-08
6.95547e-10
5.53028e-08
6.79154e-10
5.5321e-08
6.61773e-10
5.53384e-08
6.43346e-10
5.5355e-08
6.23826e-10
5.53707e-08
6.03172e-10
5.53856e-08
5.81357e-10
5.53995e-08
5.58371e-10
5.54124e-08
5.34228e-10
5.54242e-08
5.0897e-10
5.5435e-08
4.82675e-10
5.54446e-08
4.55463e-10
5.5453e-08
4.275e-10
5.54603e-08
3.99003e-10
5.54663e-08
3.70237e-10
5.54711e-08
3.41507e-10
5.54748e-08
3.13147e-10
5.54774e-08
2.85508e-10
5.5479e-08
2.58927e-10
5.54798e-08
2.33711e-10
5.54798e-08
2.10114e-10
5.54792e-08
1.88316e-10
5.54782e-08
1.68418e-10
5.54769e-08
1.50442e-10
5.54753e-08
1.3434e-10
5.54737e-08
1.20011e-10
5.5472e-08
1.073e-10
5.54703e-08
9.59725e-11
5.54686e-08
8.56114e-11
7.54206e-11
5.37446e-08
1.55733e-09
-5.36471e-08
5.38583e-08
1.6787e-09
5.39847e-08
1.78569e-09
5.41195e-08
1.87489e-09
5.42587e-08
1.94445e-09
5.43988e-08
1.99397e-09
5.45369e-08
2.02406e-09
5.46705e-08
2.03605e-09
5.47977e-08
2.03179e-09
5.49172e-08
2.01353e-09
5.50282e-08
1.98373e-09
5.51306e-08
1.94487e-09
5.52244e-08
1.89932e-09
5.531e-08
1.84927e-09
5.53882e-08
1.79658e-09
5.54596e-08
1.74284e-09
5.55251e-08
1.68929e-09
5.55856e-08
1.63687e-09
5.56418e-08
1.58624e-09
5.56943e-08
1.53783e-09
5.57439e-08
1.49191e-09
5.5791e-08
1.44857e-09
5.58361e-08
1.40782e-09
5.58796e-08
1.3696e-09
5.59216e-08