/*--------------------------------*- C++ -*----------------------------------*\
| =========                 |                                                 |
| \\      /  F ield         | OpenFOAM: The Open Source CFD Toolbox           |
|  \\    /   O peration     | Version:  2.3.0                                 |
|   \\  /    A nd           | Web:      www.OpenFOAM.org                      |
|    \\/     M anipulation  |                                                 |
\*---------------------------------------------------------------------------*/
FoamFile
{
    version     2.0;
    format      ascii;
    class       surfaceScalarField;
    location    "0.3";
    object      phi_0;
}
// * * * * * * * * * * * * * * * * * * * * * * * * * * * * * * * * * * * * * //

dimensions      [0 3 -1 0 0 0 0];

internalField   nonuniform List<scalar> 
17305
(
2.83298e-08
2.88263e-09
-3.12124e-08
2.54641e-08
2.86572e-09
2.2775e-08
2.68903e-09
2.02964e-08
2.47862e-09
1.80443e-08
2.25212e-09
1.60293e-08
2.01502e-09
1.42538e-08
1.77551e-09
1.27124e-08
1.54137e-09
1.13932e-08
1.31916e-09
1.0279e-08
1.11424e-09
9.34845e-09
9.3055e-10
8.57808e-09
7.70369e-10
7.94375e-09
6.34328e-10
7.42217e-09
5.21585e-10
6.99199e-09
4.30174e-10
6.63457e-09
3.57421e-10
6.33423e-09
3.00341e-10
6.07826e-09
2.55969e-10
5.85667e-09
2.21591e-10
5.6618e-09
1.94873e-10
5.48789e-09
1.73908e-10
5.33069e-09
1.57197e-10
5.18708e-09
1.4361e-10
5.05477e-09
1.32314e-10
4.93206e-09
1.22713e-10
4.81767e-09
1.14387e-10
4.71063e-09
1.07043e-10
4.61015e-09
1.00478e-10
4.5156e-09
9.45498e-11
4.42644e-09
8.91555e-11
4.34222e-09
8.42196e-11
4.26254e-09
7.96837e-11
4.18704e-09
7.55005e-11
4.11541e-09
7.16309e-11
4.04737e-09
6.8041e-11
3.98267e-09
6.47011e-11
3.92108e-09
6.15847e-11
3.86241e-09
5.86685e-11
3.80648e-09
5.59311e-11
3.75313e-09
5.33537e-11
3.70221e-09
5.09192e-11
3.6536e-09
4.86124e-11
3.60718e-09
4.64195e-11
3.56285e-09
4.43281e-11
3.52052e-09
4.2327e-11
3.48012e-09
4.0406e-11
3.44156e-09
3.8556e-11
3.40479e-09
3.67685e-11
3.36976e-09
3.50358e-11
3.3364e-09
3.33509e-11
3.3047e-09
3.17071e-11
3.2746e-09
3.00986e-11
3.24608e-09
2.85203e-11
3.21911e-09
2.69676e-11
3.19367e-09
2.54364e-11
3.16975e-09
2.39229e-11
3.14733e-09
2.24224e-11
3.1264e-09
2.09283e-11
3.10697e-09
1.94306e-11
3.08906e-09
1.79141e-11
3.0727e-09
1.6357e-11
3.05797e-09
1.47308e-11
3.04497e-09
1.30021e-11
3.03383e-09
1.11362e-11
3.02472e-09
9.10548e-12
3.01783e-09
6.89508e-12
3.01333e-09
4.49635e-12
3.01139e-09
1.9429e-12
3.01173e-09
-3.4011e-13
3.01373e-09
-1.99807e-12
3.01694e-09
-3.21169e-12
3.02102e-09
-4.07632e-12
3.02565e-09
-4.63677e-12
3.03059e-09
-4.9379e-12
3.03563e-09
-5.03441e-12
3.0406e-09
-4.97307e-12
3.0454e-09
-4.79664e-12
3.04994e-09
-4.54843e-12
3.0542e-09
-4.25365e-12
3.05813e-09
-3.93512e-12
3.06175e-09
-3.61293e-12
3.06504e-09
-3.29764e-12
3.06804e-09
-2.99468e-12
3.07075e-09
-2.708e-12
3.07319e-09
-2.44011e-12
3.07538e-09
-2.19158e-12
3.07734e-09
-1.96126e-12
3.07909e-09
-1.74731e-12
3.08063e-09
-1.54786e-12
3.082e-09
-1.36103e-12
3.08318e-09
-1.1848e-12
3.0842e-09
-1.0169e-12
3.08505e-09
-8.54762e-13
3.08575e-09
-6.9518e-13
3.08628e-09
-5.34148e-13
3.08665e-09
-3.67648e-13
3.08684e-09
-1.93689e-13
3.08684e-09
9.88493e-16
3.08661e-09
2.30159e-13
7.92687e-13
3.33653e-08
3.15752e-09
-3.36402e-08
3.27767e-08
3.4543e-09
3.19562e-08
3.50956e-09
3.09805e-08
3.45434e-09
2.9905e-08
3.32757e-09
2.87754e-08
3.14464e-09
2.76285e-08
2.92239e-09
2.64927e-08
2.6772e-09
2.53888e-08
2.42304e-09
2.43316e-08
2.17145e-09
2.33306e-08
1.93157e-09
2.2391e-08
1.70994e-09
2.15149e-08
1.5105e-09
2.07016e-08
1.33485e-09
1.9949e-08
1.18273e-09
1.92539e-08
1.05258e-09
1.86122e-08
9.42046e-10
1.80197e-08
8.48455e-10
1.74721e-08
7.69136e-10
1.69654e-08
7.01625e-10
1.64955e-08
6.43774e-10
1.60589e-08
5.93787e-10
1.56523e-08
5.50202e-10
1.52728e-08
5.11854e-10
1.49177e-08
4.77826e-10
1.45847e-08
4.474e-10
1.42717e-08
4.20012e-10
1.3977e-08
3.95217e-10
1.36989e-08
3.72657e-10
1.3436e-08
3.52042e-10
1.31871e-08
3.33132e-10
1.2951e-08
3.15725e-10
1.27269e-08
2.99648e-10
1.25137e-08
2.84754e-10
1.23109e-08
2.70911e-10
1.21176e-08
2.58006e-10
1.19332e-08
2.45939e-10
1.17573e-08
2.34618e-10
1.15892e-08
2.23965e-10
1.14287e-08
2.13908e-10
1.12752e-08
2.04383e-10
1.11285e-08
1.95333e-10
1.09882e-08
1.86705e-10
1.08541e-08
1.78452e-10
1.07259e-08
1.70531e-10
1.06034e-08
1.62904e-10
1.04864e-08
1.55535e-10
1.03748e-08
1.48389e-10
1.02684e-08
1.41437e-10
1.01671e-08
1.34651e-10
1.00708e-08
1.28003e-10
9.97942e-09
1.2147e-10
9.89291e-09
1.15029e-10
9.81122e-09
1.08659e-10
9.73431e-09
1.0234e-10
9.66218e-09
9.60527e-11
9.59483e-09
8.97734e-11
9.53229e-09
8.34749e-11
9.47459e-09
7.71217e-11
9.42184e-09
7.06684e-11
9.37414e-09
6.40595e-11
9.33164e-09
5.72326e-11
9.29451e-09
5.01272e-11
9.26295e-09
4.26981e-11
9.23712e-09
3.49351e-11
9.21713e-09
2.68829e-11
9.20298e-09
1.86431e-11
9.19459e-09
1.03363e-11
9.19187e-09
2.38253e-12
9.1939e-09
-4.02517e-12
9.19921e-09
-8.52895e-12
9.2068e-09
-1.16602e-11
9.21588e-09
-1.37155e-11
9.22584e-09
-1.48987e-11
9.2362e-09
-1.54015e-11
9.24661e-09
-1.53829e-11
9.2568e-09
-1.49814e-11
9.26658e-09
-1.43285e-11
9.27583e-09
-1.3509e-11
9.28449e-09
-1.25956e-11
9.29253e-09
-1.1649e-11
9.29994e-09
-1.07049e-11
9.30673e-09
-9.78387e-12
9.31292e-09
-8.90039e-12
9.31854e-09
-8.06344e-12
9.32363e-09
-7.27637e-12
9.3282e-09
-6.53768e-12
9.3323e-09
-5.84371e-12
9.33594e-09
-5.19027e-12
9.33915e-09
-4.57281e-12
9.34196e-09
-3.98633e-12
9.34436e-09
-3.42508e-12
9.34639e-09
-2.88236e-12
9.34805e-09
-2.34988e-12
9.34933e-09
-1.81727e-12
9.35023e-09
-1.27247e-12
9.35074e-09
-7.04485e-13
9.35085e-09
-1.08044e-13
9.35046e-09
6.21815e-13
1.72582e-12
3.47605e-08
3.00684e-09
-3.46098e-08
3.48224e-08
3.39237e-09
3.47581e-08
3.57389e-09
3.4573e-08
3.63938e-09
3.42779e-08
3.6227e-09
3.3887e-08
3.53557e-09
3.34176e-08
3.39171e-09
3.28878e-08
3.20708e-09
3.2314e-08
2.99678e-09
3.17113e-08
2.77413e-09
3.10925e-08
2.55042e-09
3.04679e-08
2.3345e-09
2.98458e-08
2.13258e-09
2.92323e-08
1.94834e-09
2.86318e-08
1.78327e-09
2.80471e-08
1.63727e-09
2.74801e-08
1.50908e-09
2.69317e-08
1.39688e-09
2.64022e-08
1.29856e-09
2.58918e-08
1.21207e-09
2.54e-08
1.13551e-09
2.49266e-08
1.06725e-09
2.44709e-08
1.00592e-09
2.40323e-08
9.50403e-10
2.36103e-08
8.99811e-10
2.32043e-08
8.53432e-10
2.28136e-08
8.107e-10
2.24377e-08
7.71159e-10
2.20759e-08
7.34438e-10
2.17277e-08
7.00232e-10
2.13926e-08
6.6828e-10
2.10699e-08
6.38361e-10
2.07593e-08
6.10281e-10
2.04602e-08
5.83866e-10
2.01721e-08
5.58962e-10
1.98947e-08
5.3543e-10
1.96275e-08
5.13144e-10
1.93701e-08
4.91986e-10
1.91222e-08
4.71852e-10
1.88835e-08
4.52642e-10
1.86536e-08
4.34267e-10
1.84323e-08
4.16643e-10
1.82193e-08
3.99691e-10
1.80144e-08
3.8334e-10
1.78174e-08
3.67521e-10
1.76282e-08
3.52172e-10
1.74465e-08
3.37231e-10
1.72722e-08
3.22643e-10
1.71053e-08
3.08353e-10
1.69457e-08
2.94311e-10
1.67932e-08
2.80468e-10
1.66479e-08
2.66778e-10
1.65097e-08
2.53198e-10
1.63787e-08
2.39685e-10
1.62548e-08
2.26199e-10
1.61382e-08
2.12697e-10
1.60288e-08
1.99133e-10
1.59268e-08
1.85455e-10
1.58324e-08
1.716e-10
1.57455e-08
1.57498e-10
1.56665e-08
1.43074e-10
1.55955e-08
1.28253e-10
1.55326e-08
1.12985e-10
1.54781e-08
9.72649e-11
1.54318e-08
8.11649e-11
1.53938e-08
6.4875e-11
1.53638e-08
4.8735e-11
1.53409e-08
3.32302e-11
1.53245e-08
1.87401e-11
1.53151e-08
5.41099e-12
1.53122e-08
-5.65984e-12
1.53142e-08
-1.36186e-11
1.53196e-08
-1.91099e-11
1.53273e-08
-2.26811e-11
1.53367e-08
-2.47627e-11
1.5347e-08
-2.56906e-11
1.53578e-08
-2.57494e-11
1.53686e-08
-2.52021e-11
1.53794e-08
-2.42249e-11
1.53897e-08
-2.29691e-11
1.53996e-08
-2.15603e-11
1.5409e-08
-2.00785e-11
1.54178e-08
-1.85756e-11
1.5426e-08
-1.70889e-11
1.54336e-08
-1.5644e-11
1.54406e-08
-1.42546e-11
1.54469e-08
-1.29249e-11
1.54528e-08
-1.16535e-11
1.5458e-08
-1.04374e-11
1.54627e-08
-9.27181e-12
1.54669e-08
-8.15071e-12
1.54705e-08
-7.06646e-12
1.54736e-08
-6.00945e-12
1.54763e-08
-4.96722e-12
1.54784e-08
-3.9232e-12
1.54799e-08
-2.85566e-12
1.5481e-08
-1.73682e-12
1.54814e-08
-5.53339e-13
1.54812e-08
8.40854e-13
2.53241e-12
3.55949e-08
2.81727e-09
-3.54053e-08
3.57879e-08
3.19938e-09
3.59397e-08
3.42209e-09
3.60379e-08
3.54119e-09
3.60759e-08
3.5847e-09
3.60498e-08
3.56166e-09
3.59601e-08
3.48136e-09
3.5811e-08
3.3562e-09
3.56087e-08
3.19909e-09
3.53607e-08
3.02212e-09
3.50751e-08
2.83606e-09
3.47597e-08
2.64991e-09
3.44217e-08
2.47052e-09
3.40675e-08
2.30252e-09
3.37024e-08
2.14846e-09
3.33303e-08
2.00928e-09
3.29547e-08
1.8847e-09
3.25779e-08
1.77366e-09
3.22018e-08
1.67472e-09
3.18276e-08
1.58627e-09
3.14563e-08
1.50679e-09
3.10887e-08
1.43487e-09
3.07253e-08
1.36934e-09
3.03665e-08
1.30917e-09
3.00127e-08
1.25357e-09
2.96643e-08
1.20189e-09
2.93214e-08
1.1536e-09
2.89843e-08
1.10828e-09
2.86531e-08
1.06559e-09
2.83281e-08
1.02526e-09
2.80093e-08
9.87052e-10
2.76969e-08
9.50766e-10
2.7391e-08
9.16229e-10
2.70915e-08
8.83285e-10
2.67987e-08
8.51798e-10
2.65125e-08
8.21639e-10
2.6233e-08
7.92692e-10
2.59601e-08
7.64851e-10
2.56939e-08
7.38014e-10
2.54345e-08
7.12087e-10
2.51818e-08
6.86981e-10
2.49358e-08
6.62612e-10
2.46966e-08
6.38899e-10
2.44642e-08
6.15765e-10
2.42385e-08
5.93138e-10
2.40198e-08
5.70945e-10
2.38079e-08
5.49118e-10
2.36029e-08
5.27591e-10
2.3405e-08
5.06297e-10
2.32141e-08
4.85175e-10
2.30304e-08
4.64162e-10
2.2854e-08
4.43198e-10
2.2685e-08
4.22226e-10
2.25235e-08
4.01186e-10
2.23697e-08
3.80021e-10
2.22237e-08
3.58671e-10
2.20858e-08
3.37069e-10
2.19561e-08
3.15147e-10
2.18348e-08
2.92825e-10
2.17223e-08
2.70024e-10
2.16187e-08
2.46667e-10
2.15243e-08
2.22698e-10
2.14392e-08
1.9811e-10
2.13634e-08
1.72975e-10
2.12971e-08
1.47485e-10
2.124e-08
1.21991e-10
2.11917e-08
9.7026e-11
2.11517e-08
7.3287e-11
2.11189e-08
5.15025e-11
2.10921e-08
3.21803e-11
2.10713e-08
1.51202e-11
2.10574e-08
3.40876e-13
2.10495e-08
-1.12308e-11
2.10463e-08
-1.94279e-11
2.10465e-08
-2.50438e-11
2.10495e-08
-2.86125e-11
2.10543e-08
-3.0589e-11
2.10605e-08
-3.13934e-11
2.10676e-08
-3.13129e-11
2.10752e-08
-3.06009e-11
2.10831e-08
-2.94695e-11
2.10911e-08
-2.8063e-11
2.1099e-08
-2.64826e-11
2.11067e-08
-2.48047e-11
2.11142e-08
-2.30854e-11
2.11213e-08
-2.13615e-11
2.1128e-08
-1.96527e-11
2.11343e-08
-1.79687e-11
2.11402e-08
-1.63139e-11
2.11456e-08
-1.46893e-11
2.11506e-08
-1.30922e-11
2.1155e-08
-1.15171e-11
2.11589e-08
-9.95472e-12
2.11624e-08
-8.39136e-12
2.11653e-08
-6.80645e-12
2.11676e-08
-5.16935e-12
2.11693e-08
-3.43275e-12
2.11703e-08
-1.53931e-12
2.11704e-08
6.42347e-13
3.18763e-12
3.63458e-08
2.65138e-09
-3.61799e-08
3.65414e-08
3.00373e-09
3.67309e-08
3.23259e-09
3.69016e-08
3.37056e-09
3.70458e-08
3.4405e-09
3.71564e-08
3.45106e-09
3.72284e-08
3.40934e-09
3.72596e-08
3.32495e-09
3.72503e-08
3.20845e-09
3.72023e-08
3.07008e-09
3.71191e-08
2.91923e-09
3.7005e-08
2.76403e-09
3.68645e-08
2.61103e-09
3.67021e-08
2.46491e-09
3.65219e-08
2.32866e-09
3.63274e-08
2.20375e-09
3.61216e-08
2.0905e-09
3.59068e-08
1.98845e-09
3.56849e-08
1.89665e-09
3.54573e-08
1.81392e-09
3.5225e-08
1.73903e-09
3.49891e-08
1.67085e-09
3.47501e-08
1.60832e-09
3.45087e-08
1.55057e-09
3.42654e-08
1.49687e-09
3.40206e-08
1.44662e-09
3.37749e-08
1.39933e-09
3.35286e-08
1.35462e-09
3.3282e-08
1.31217e-09
3.30355e-08
1.27172e-09
3.27895e-08
1.23305e-09
3.25443e-08
1.19598e-09
3.23002e-08
1.16035e-09
3.20575e-08
1.12602e-09
3.18164e-08
1.09286e-09
3.15773e-08
1.06077e-09
3.13403e-08
1.02963e-09
3.11058e-08
9.99354e-10
3.0874e-08
9.69843e-10
3.06451e-08
9.41013e-10
3.04193e-08
9.12779e-10
3.01968e-08
8.85063e-10
2.99779e-08
8.57788e-10
2.97628e-08
8.30877e-10
2.95517e-08
8.04258e-10
2.93448e-08
7.77858e-10
2.91423e-08
7.51607e-10
2.89445e-08
7.25433e-10
2.87515e-08
6.99267e-10
2.85636e-08
6.73039e-10
2.83811e-08
6.4668e-10
2.82042e-08
6.20122e-10
2.80331e-08
5.93297e-10
2.78682e-08
5.66135e-10
2.77096e-08
5.38568e-10
2.75578e-08
5.10523e-10
2.74129e-08
4.81924e-10
2.72754e-08
4.5269e-10
2.71454e-08
4.22741e-10
2.70235e-08
3.91999e-10
2.69097e-08
3.60406e-10
2.68045e-08
3.27943e-10
2.67079e-08
2.94663e-10
2.66202e-08
2.60728e-10
2.65412e-08
2.26451e-10
2.64709e-08
1.92325e-10
2.64089e-08
1.5903e-10
2.63548e-08
1.27389e-10
2.6308e-08
9.82339e-11
2.6268e-08
7.21983e-11
2.62336e-08
4.9541e-11
2.62037e-08
3.02317e-11
2.61787e-08
1.38286e-11
2.61592e-08
7.08523e-14
2.61448e-08
-1.06652e-11
2.61346e-08
-1.8395e-11
2.61277e-08
-2.3771e-11
2.61237e-08
-2.73371e-11
2.61218e-08
-2.94601e-11
2.61217e-08
-3.04869e-11
2.6123e-08
-3.07148e-11
2.61253e-08
-3.03532e-11
2.61283e-08
-2.95584e-11
2.6132e-08
-2.84539e-11
2.6136e-08
-2.71353e-11
2.61403e-08
-2.56713e-11
2.61448e-08
-2.41058e-11
2.61493e-08
-2.24667e-11
2.61537e-08
-2.07733e-11
2.61581e-08
-1.90377e-11
2.61623e-08
-1.72658e-11
2.61662e-08
-1.54585e-11
2.61699e-08
-1.36106e-11
2.61732e-08
-1.17104e-11
2.61761e-08
-9.73638e-12
2.61786e-08
-7.65167e-12
2.61806e-08
-5.3908e-12
2.61819e-08
-2.8397e-12
2.61824e-08
1.36597e-13
3.86462e-12
3.70901e-08
2.51163e-09
-3.69503e-08
3.72651e-08
2.82877e-09
3.74469e-08
3.05076e-09
3.76235e-08
3.19394e-09
3.77886e-08
3.27545e-09
3.7936e-08
3.30364e-09
3.80606e-08
3.28468e-09
3.81592e-08
3.22641e-09
3.82299e-08
3.1377e-09
3.82727e-08
3.02729e-09
3.82886e-08
2.90333e-09
3.82797e-08
2.77298e-09
3.82485e-08
2.64219e-09
3.8198e-08
2.51542e-09
3.8131e-08
2.39568e-09
3.805e-08
2.2847e-09
3.79574e-08
2.18316e-09
3.78549e-08
2.09097e-09
3.7744e-08
2.00755e-09
3.76258e-08
1.93206e-09
3.75013e-08
1.86352e-09
3.73712e-08
1.80098e-09
3.7236e-08
1.74356e-09
3.70961e-08
1.69046e-09
3.69519e-08
1.64103e-09
3.68038e-08
1.59471e-09
3.66521e-08
1.55105e-09
3.64971e-08
1.50966e-09
3.6339e-08
1.47024e-09
3.61782e-08
1.43253e-09
3.60149e-08
1.39633e-09
3.58494e-08
1.36145e-09
3.56821e-08
1.32773e-09
3.5513e-08
1.29505e-09
3.53426e-08
1.26326e-09
3.51711e-08
1.23228e-09
3.49988e-08
1.20198e-09
3.48258e-08
1.17228e-09
3.46526e-08
1.14308e-09
3.44793e-08
1.1143e-09
3.43062e-08
1.08586e-09
3.41336e-08
1.05766e-09
3.39618e-08
1.02965e-09
3.37909e-08
1.00173e-09
3.36213e-08
9.7384e-10
3.34533e-08
9.45893e-10
3.32871e-08
9.17818e-10
3.3123e-08
8.89537e-10
3.29613e-08
8.60976e-10
3.28023e-08
8.32058e-10
3.26462e-08
8.02707e-10
3.24935e-08
7.72846e-10
3.23444e-08
7.42399e-10
3.21993e-08
7.11287e-10
3.20584e-08
6.79432e-10
3.19222e-08
6.46753e-10
3.17909e-08
6.13168e-10
3.1665e-08
5.78592e-10
3.15448e-08
5.42948e-10
3.14306e-08
5.06171e-10
3.13228e-08
4.68229e-10
3.12216e-08
4.29145e-10
3.11272e-08
3.89036e-10
3.10398e-08
3.48147e-10
3.09594e-08
3.06887e-10
3.08859e-08
2.65856e-10
3.08191e-08
2.25828e-10
3.07588e-08
1.87693e-10
3.07047e-08
1.52325e-10
3.06565e-08
1.20408e-10
3.06137e-08
9.23056e-11
3.05758e-08
6.80804e-11
3.05421e-08
4.75695e-11
3.05117e-08
3.04933e-11
3.04846e-08
1.64073e-11
3.04614e-08
4.77489e-12
3.04422e-08
-4.53354e-12
3.04264e-08
-1.15336e-11
3.04135e-08
-1.65976e-11
3.04032e-08
-2.01562e-11
3.0395e-08
-2.25556e-11
3.03887e-08
-2.40413e-11
3.0384e-08
-2.48091e-11
3.03805e-08
-2.50206e-11
3.03782e-08
-2.48058e-11
3.03768e-08
-2.4263e-11
3.03762e-08
-2.34594e-11
3.03761e-08
-2.24422e-11
3.03766e-08
-2.12465e-11
3.03775e-08
-1.98975e-11
3.03786e-08
-1.84118e-11
3.038e-08
-1.67978e-11
3.03814e-08
-1.50563e-11
3.03829e-08
-1.31788e-11
3.03843e-08
-1.11446e-11
3.03855e-08
-8.91295e-12
3.03866e-08
-6.40467e-12
3.03872e-08
-3.47235e-12
3.03872e-08
9.84582e-14
5.1146e-12
3.78397e-08
2.39219e-09
-3.77203e-08
3.79933e-08
2.67519e-09
3.81589e-08
2.8851e-09
3.8325e-08
3.02782e-09
3.84856e-08
3.1149e-09
3.86355e-08
3.15368e-09
3.87705e-08
3.14969e-09
3.88875e-08
3.1095e-09
3.89845e-08
3.04066e-09
3.9061e-08
2.95079e-09
3.91173e-08
2.84703e-09
3.91545e-08
2.73574e-09
3.91744e-08
2.6223e-09
3.9179e-08
2.51089e-09
3.91702e-08
2.40444e-09
3.91501e-08
2.30481e-09
3.91204e-08
2.21289e-09
3.90824e-08
2.12888e-09
3.90375e-08
2.05249e-09
3.89865e-08
1.98311e-09
3.893e-08
1.92002e-09
3.88685e-08
1.86241e-09
3.88025e-08
1.80954e-09
3.87323e-08
1.76072e-09
3.8658e-08
1.71534e-09
3.85798e-08
1.67288e-09
3.84979e-08
1.63291e-09
3.84125e-08
1.59507e-09
3.83237e-08
1.55906e-09
3.82316e-08
1.52461e-09
3.81364e-08
1.49151e-09
3.80383e-08
1.45959e-09
3.79374e-08
1.42867e-09
3.78338e-08
1.39861e-09
3.77278e-08
1.36929e-09
3.76194e-08
1.34059e-09
3.7509e-08
1.31241e-09
3.73967e-08
1.28463e-09
3.72826e-08
1.25717e-09
3.7167e-08
1.22993e-09
3.705e-08
1.20282e-09
3.69319e-08
1.17576e-09
3.68129e-08
1.14867e-09
3.66932e-08
1.12145e-09
3.6573e-08
1.09404e-09
3.64525e-08
1.06633e-09
3.63321e-08
1.03825e-09
3.62119e-08
1.00972e-09
3.60922e-08
9.80654e-10
3.59733e-08
9.50961e-10
3.58555e-08
9.20559e-10
3.57389e-08
8.89362e-10
3.56241e-08
8.57284e-10
3.55111e-08
8.24237e-10
3.54004e-08
7.90135e-10
3.52923e-08
7.54889e-10
3.5187e-08
7.18412e-10
3.5085e-08
6.8062e-10
3.49865e-08
6.41442e-10
3.48919e-08
6.00829e-10
3.48013e-08
5.58774e-10
3.47151e-08
5.15342e-10
3.46334e-08
4.70699e-10
3.45564e-08
4.25153e-10
3.44841e-08
3.79183e-10
3.44166e-08
3.3345e-10
3.43536e-08
2.88776e-10
3.42952e-08
2.46074e-10
3.42413e-08
2.06225e-10
3.41918e-08
1.69924e-10
3.41465e-08
1.37583e-10
3.41053e-08
1.09333e-10
3.40678e-08
8.50875e-11
3.40336e-08
6.46012e-11
3.40026e-08
4.74928e-11
3.3974e-08
3.33727e-11
3.39476e-08
2.18383e-11
3.39236e-08
1.24626e-11
3.39022e-08
4.842e-12
3.38833e-08
-1.27509e-12
3.38667e-08
-6.00259e-12
3.38522e-08
-9.54575e-12
3.38396e-08
-1.21461e-11
3.38285e-08
-1.3996e-11
3.3819e-08
-1.5245e-11
3.38107e-08
-1.6006e-11
3.38036e-08
-1.63592e-11
3.37975e-08
-1.6365e-11
3.37924e-08
-1.60711e-11
3.3788e-08
-1.55132e-11
3.37843e-08
-1.47159e-11
3.37812e-08
-1.36937e-11
3.37786e-08
-1.24512e-11
3.37764e-08
-1.0982e-11
3.37745e-08
-9.26521e-12
3.37728e-08
-7.25747e-12
3.37713e-08
-4.87214e-12
3.37698e-08
-1.96486e-12
3.37681e-08
1.82721e-12
7.80516e-12
3.85963e-08
2.28794e-09
-3.84921e-08
3.87315e-08
2.53999e-09
3.88809e-08
2.73571e-09
3.90338e-08
2.87497e-09
3.9184e-08
2.96465e-09
3.93271e-08
3.01061e-09
3.94591e-08
3.01767e-09
3.95772e-08
2.99135e-09
3.96798e-08
2.93809e-09
3.97661e-08
2.86451e-09
3.98362e-08
2.77689e-09
3.9891e-08
2.68094e-09
3.99318e-08
2.58153e-09
3.99602e-08
2.48254e-09
3.99778e-08
2.38684e-09
3.99862e-08
2.29633e-09
3.99871e-08
2.21207e-09
3.99815e-08
2.13447e-09
3.99705e-08
2.06348e-09
3.99549e-08
1.99872e-09
3.99352e-08
1.93966e-09
3.9912e-08
1.88565e-09
3.98854e-08
1.83608e-09
3.98558e-08
1.79034e-09
3.98233e-08
1.7479e-09
3.97879e-08
1.70829e-09
3.97497e-08
1.67109e-09
3.97088e-08
1.63596e-09
3.96653e-08
1.6026e-09
3.96191e-08
1.57076e-09
3.95704e-08
1.54023e-09
3.95192e-08
1.51081e-09
3.94655e-08
1.48234e-09
3.94094e-08
1.45467e-09
3.93511e-08
1.42767e-09
3.92904e-08
1.4012e-09
3.92277e-08
1.37517e-09
3.91629e-08
1.34945e-09
3.90961e-08
1.32395e-09
3.90274e-08
1.29857e-09
3.8957e-08
1.27321e-09
3.8885e-08
1.24778e-09
3.88115e-08
1.22218e-09
3.87367e-08
1.19632e-09
3.86606e-08
1.17011e-09
3.85834e-08
1.14347e-09
3.85054e-08
1.11629e-09
3.84267e-08
1.08848e-09
3.83474e-08
1.05995e-09
3.82677e-08
1.03061e-09
3.81879e-08
1.00035e-09
3.81082e-08
9.69093e-10
3.80287e-08
9.36734e-10
3.79498e-08
9.03178e-10
3.78716e-08
8.68331e-10
3.77944e-08
8.32099e-10
3.77184e-08
7.94392e-10
3.76439e-08
7.55128e-10
3.75711e-08
7.14242e-10
3.75002e-08
6.71701e-10
3.74315e-08
6.2752e-10
3.7365e-08
5.81794e-10
3.7301e-08
5.34727e-10
3.72395e-08
4.86666e-10
3.71806e-08
4.38127e-10
3.71242e-08
3.89793e-10
3.70705e-08
3.42496e-10
3.70194e-08
2.97137e-10
3.69711e-08
2.54576e-10
3.69255e-08
2.15505e-10
3.68827e-08
1.80358e-10
3.68427e-08
1.49308e-10
3.68055e-08
1.22319e-10
3.67709e-08
9.91938e-11
3.67388e-08
7.96089e-11
3.6709e-08
6.32005e-11
3.66812e-08
4.95658e-11
3.66554e-08
3.82853e-11
3.66313e-08
2.90071e-11
3.66086e-08
2.14098e-11
3.65874e-08
1.52044e-11
3.65677e-08
1.01549e-11
3.65495e-08
6.05498e-12
3.65327e-08
2.72692e-12
3.65174e-08
6.0577e-14
3.65034e-08
-2.00414e-12
3.64906e-08
-3.54223e-12
3.64789e-08
-4.63461e-12
3.64682e-08
-5.3427e-12
3.64584e-08
-5.71075e-12
3.64494e-08
-5.7687e-12
3.64413e-08
-5.53386e-12
3.64338e-08
-5.01167e-12
3.6427e-08
-4.19513e-12
3.64208e-08
-3.06161e-12
3.64151e-08
-1.56729e-12
3.64099e-08
3.50992e-13
3.6405e-08
2.89344e-12
3.64003e-08
6.54217e-12
1.27901e-11
3.93604e-08
2.19526e-09
-3.92677e-08
3.94804e-08
2.42002e-09
3.96151e-08
2.60099e-09
3.97551e-08
2.73497e-09
3.98944e-08
2.82533e-09
4.00287e-08
2.87633e-09
4.01543e-08
2.89202e-09
4.02687e-08
2.87702e-09
4.037e-08
2.83674e-09
4.04576e-08
2.77689e-09
4.05315e-08
2.70301e-09
4.05923e-08
2.62019e-09
4.0641e-08
2.53282e-09
4.0679e-08
2.44454e-09
4.07078e-08
2.35807e-09
4.07287e-08
2.27535e-09
4.07432e-08
2.19756e-09
4.07524e-08
2.12528e-09
4.07572e-08
2.05866e-09
4.07585e-08
1.99751e-09
4.07567e-08
1.94146e-09
4.07523e-08
1.89005e-09
4.07456e-08
1.84277e-09
4.07368e-08
1.79911e-09
4.07261e-08
1.7586e-09
4.07136e-08
1.72083e-09
4.06992e-08
1.68542e-09
4.06831e-08
1.65204e-09
4.06653e-08
1.62042e-09
4.06458e-08
1.5903e-09
4.06245e-08
1.56148e-09
4.06016e-08
1.53377e-09
4.05769e-08
1.507e-09
4.05506e-08
1.48102e-09
4.05225e-08
1.45569e-09
4.04928e-08
1.43089e-09
4.04615e-08
1.4065e-09
4.04286e-08
1.38239e-09
4.03941e-08
1.35847e-09
4.0358e-08
1.33463e-09
4.03204e-08
1.31077e-09
4.02814e-08
1.28678e-09
4.0241e-08
1.26258e-09
4.01993e-08
1.23805e-09
4.01563e-08
1.2131e-09
4.01122e-08
1.18763e-09
4.00669e-08
1.16155e-09
4.00206e-08
1.13474e-09
3.99734e-08
1.10712e-09
3.99255e-08
1.07857e-09
3.98768e-08
1.049e-09
3.98276e-08
1.01829e-09
3.9778e-08
9.86357e-10
3.97281e-08
9.53088e-10
3.96781e-08
9.18385e-10
3.9628e-08
8.8215e-10
3.95781e-08
8.44294e-10
3.95285e-08
8.04737e-10
3.94793e-08
7.63422e-10
3.94307e-08
7.20328e-10
3.93827e-08
6.75488e-10
3.93355e-08
6.29019e-10
3.92891e-08
5.81148e-10
3.92435e-08
5.32239e-10
3.91988e-08
4.82815e-10
3.9155e-08
4.33557e-10
3.91123e-08
3.85274e-10
3.90706e-08
3.38829e-10
3.90301e-08
2.95046e-10
3.8991e-08
2.54597e-10
3.89535e-08
2.17921e-10
3.89175e-08
1.85227e-10
3.88833e-08
1.56515e-10
3.88509e-08
1.31634e-10
3.88202e-08
1.10309e-10
3.87912e-08
9.22096e-11
3.87638e-08
7.69638e-11
3.87379e-08
6.41834e-11
3.87134e-08
5.35226e-11
3.86901e-08
4.46568e-11
3.86681e-08
3.72831e-11
3.86471e-08
3.11496e-11
3.86271e-08
2.60481e-11
3.8608e-08
2.18086e-11
3.85898e-08
1.82921e-11
3.85724e-08
1.53857e-11
3.85558e-08
1.30024e-11
3.85401e-08
1.10739e-11
3.85252e-08
9.54558e-12
3.85111e-08
8.37676e-12
3.84978e-08
7.53974e-12
3.84853e-08
7.0191e-12
3.84734e-08
6.81139e-12
3.84623e-08
6.92588e-12
3.84519e-08
7.38782e-12
3.84421e-08
8.24686e-12
3.84328e-08
9.60093e-12
3.84241e-08
1.16511e-11
3.84158e-08
1.48449e-11
2.05564e-11
4.01325e-08
2.11162e-09
-4.00488e-08
4.02399e-08
2.31262e-09
4.03617e-08
2.47917e-09
4.04899e-08
2.60676e-09
4.06189e-08
2.69637e-09
4.07444e-08
2.75082e-09
4.08631e-08
2.77334e-09
4.09723e-08
2.76774e-09
4.10706e-08
2.73853e-09
4.11568e-08
2.69061e-09
4.1231e-08
2.62881e-09
4.12936e-08
2.55763e-09
4.13454e-08
2.48106e-09
4.13875e-08
2.40243e-09
4.14212e-08
2.32435e-09
4.14478e-08
2.24873e-09
4.14686e-08
2.17682e-09
4.14845e-08
2.10935e-09
4.14965e-08
2.04661e-09
4.15054e-08
1.9886e-09
4.15118e-08
1.9351e-09
4.15161e-08
1.88578e-09
4.15186e-08
1.84025e-09
4.15196e-08
1.79809e-09
4.15193e-08
1.75892e-09
4.15178e-08
1.72236e-09
4.15151e-08
1.68808e-09
4.15113e-08
1.65579e-09
4.15065e-08
1.62522e-09
4.15007e-08
1.59614e-09
4.14938e-08
1.56835e-09
4.14859e-08
1.54167e-09
4.1477e-08
1.51593e-09
4.1467e-08
1.49098e-09
4.1456e-08
1.46669e-09
4.1444e-08
1.44293e-09
4.14309e-08
1.41958e-09
4.14168e-08
1.39653e-09
4.14016e-08
1.37365e-09
4.13854e-08
1.35086e-09
4.13681e-08
1.32804e-09
4.13498e-08
1.30508e-09
4.13305e-08
1.2819e-09
4.13101e-08
1.25837e-09
4.12888e-08
1.23441e-09
4.12666e-08
1.2099e-09
4.12434e-08
1.18475e-09
4.12193e-08
1.15885e-09
4.11943e-08
1.13208e-09
4.11685e-08
1.10435e-09
4.1142e-08
1.07555e-09
4.11147e-08
1.04557e-09
4.10867e-08
1.0143e-09
4.10582e-08
9.8164e-10
4.10291e-08
9.47484e-10
4.09995e-08
9.11736e-10
4.09695e-08
8.74307e-10
4.09391e-08
8.35123e-10
4.09084e-08
7.94135e-10
4.08774e-08
7.51333e-10
4.08461e-08
7.06765e-10
4.08146e-08
6.6056e-10
4.07828e-08
6.12954e-10
4.07507e-08
5.64315e-10
4.07183e-08
5.15157e-10
4.06858e-08
4.66135e-10
4.0653e-08
4.18014e-10
4.06202e-08
3.71607e-10
4.05876e-08
3.27688e-10
4.05553e-08
2.86897e-10
4.05236e-08
2.49672e-10
4.04925e-08
2.16241e-10
4.04624e-08
1.86639e-10
4.04333e-08
1.60756e-10
4.04052e-08
1.38362e-10
4.03783e-08
1.19163e-10
4.03524e-08
1.02822e-10
4.03276e-08
8.89839e-11
4.03038e-08
7.73189e-11
4.0281e-08
6.75141e-11
4.0259e-08
5.92762e-11
4.02378e-08
5.23532e-11
4.02173e-08
4.6534e-11
4.01975e-08
4.16407e-11
4.01782e-08
3.7522e-11
4.01596e-08
3.40508e-11
4.01414e-08
3.11269e-11
4.01238e-08
2.86723e-11
4.01068e-08
2.66253e-11
4.00902e-08
2.494e-11
4.00742e-08
2.35843e-11
4.00586e-08
2.25394e-11
4.00436e-08
2.18001e-11
4.00292e-08
2.13748e-11
4.00153e-08
2.12899e-11
4.00019e-08
2.15971e-11
3.99891e-08
2.23955e-11
3.99769e-08
2.38734e-11
3.99654e-08
2.64159e-11
3.10299e-11
4.09131e-08
2.03525e-09
-4.08368e-08
4.10101e-08
2.21565e-09
4.11207e-08
2.36858e-09
4.12383e-08
2.4892e-09
4.13576e-08
2.57702e-09
4.14748e-08
2.63363e-09
4.15866e-08
2.66149e-09
4.16907e-08
2.66369e-09
4.17852e-08
2.64398e-09
4.18694e-08
2.60649e-09
4.19428e-08
2.55541e-09
4.20057e-08
2.49472e-09
4.20587e-08
2.42798e-09
4.21029e-08
2.35826e-09
4.21393e-08
2.288e-09
4.21689e-08
2.21907e-09
4.2193e-08
2.15277e-09
4.22124e-08
2.0899e-09
4.22281e-08
2.0309e-09
4.22408e-08
1.97589e-09
4.22511e-08
1.9248e-09
4.22595e-08
1.87741e-09
4.22663e-08
1.83344e-09
4.22718e-08
1.79257e-09
4.22763e-08
1.75448e-09
4.22798e-08
1.71885e-09
4.22825e-08
1.6854e-09
4.22844e-08
1.65385e-09
4.22857e-08
1.62396e-09
4.22863e-08
1.59553e-09
4.22863e-08
1.56837e-09
4.22857e-08
1.54229e-09
4.22844e-08
1.51715e-09
4.22826e-08
1.4928e-09
4.22802e-08
1.46911e-09
4.22772e-08
1.44594e-09
4.22736e-08
1.4232e-09
4.22694e-08
1.40075e-09
4.22645e-08
1.37849e-09
4.22591e-08
1.35632e-09
4.2253e-08
1.33413e-09
4.22462e-08
1.31182e-09
4.22389e-08
1.28927e-09
4.22308e-08
1.2664e-09
4.22221e-08
1.2431e-09
4.22128e-08
1.21925e-09
4.22028e-08
1.19476e-09
4.21921e-08
1.16952e-09
4.21808e-08
1.14343e-09
4.21687e-08
1.11636e-09
4.21561e-08
1.08823e-09
4.21427e-08
1.05891e-09
4.21287e-08
1.0283e-09
4.21141e-08
9.96297e-10
4.20988e-08
9.62798e-10
4.20828e-08
9.27707e-10
4.20662e-08
8.90943e-10
4.20488e-08
8.52436e-10
4.20308e-08
8.12147e-10
4.20121e-08
7.70077e-10
4.19926e-08
7.26282e-10
4.19722e-08
6.80901e-10
4.1951e-08
6.34173e-10
4.19289e-08
5.86457e-10
4.19058e-08
5.38245e-10
4.18818e-08
4.90156e-10
4.18569e-08
4.42902e-10
4.18312e-08
3.97238e-10
4.1805e-08
3.5388e-10
4.17785e-08
3.13431e-10
4.17519e-08
2.76318e-10
4.17253e-08
2.4278e-10
4.16991e-08
2.12884e-10
4.16733e-08
1.86553e-10
4.16481e-08
1.63599e-10
4.16234e-08
1.43766e-10
4.15995e-08
1.26753e-10
4.15763e-08
1.12238e-10
4.15537e-08
9.99105e-11
4.15317e-08
8.94751e-11
4.15103e-08
8.06525e-11
4.14895e-08
7.31971e-11
4.14691e-08
6.68982e-11
4.14492e-08
6.15745e-11
4.14296e-08
5.7069e-11
4.14104e-08
5.32475e-11
4.13916e-08
5.00006e-11
4.1373e-08
4.72402e-11
4.13547e-08
4.48956e-11
4.13368e-08
4.29117e-11
4.13191e-08
4.12486e-11
4.13018e-08
3.98805e-11
4.12848e-08
3.87961e-11
4.12681e-08
3.79997e-11
4.12519e-08
3.75146e-11
4.12361e-08
3.73895e-11
4.12208e-08
3.77147e-11
4.1206e-08
3.86505e-11
4.1192e-08
4.04851e-11
4.37853e-11
4.1703e-08
1.96484e-09
-4.16326e-08
4.17913e-08
2.1274e-09
4.18921e-08
2.26774e-09
4.20001e-08
2.38123e-09
4.21106e-08
2.46649e-09
4.222e-08
2.52422e-09
4.23253e-08
2.55618e-09
4.24242e-08
2.56481e-09
4.2515e-08
2.5532e-09
4.25967e-08
2.52483e-09
4.26688e-08
2.48328e-09
4.27315e-08
2.43204e-09
4.27852e-08
2.3743e-09
4.28306e-08
2.31284e-09
4.28687e-08
2.24994e-09
4.29003e-08
2.1874e-09
4.29266e-08
2.12651e-09
4.29483e-08
2.06816e-09
4.29664e-08
2.01286e-09
4.29814e-08
1.96085e-09
4.2994e-08
1.91218e-09
4.30047e-08
1.86674e-09
4.30138e-08
1.82434e-09
4.30216e-08
1.78475e-09
4.30284e-08
1.74769e-09
4.30343e-08
1.71293e-09
4.30395e-08
1.68019e-09
4.30441e-08
1.64927e-09
4.30482e-08
1.61993e-09
4.30517e-08
1.59199e-09
4.30548e-08
1.56526e-09
4.30575e-08
1.5396e-09
4.30598e-08
1.51484e-09
4.30618e-08
1.49086e-09
4.30633e-08
1.46752e-09
4.30646e-08
1.44471e-09
4.30655e-08
1.42231e-09
4.3066e-08
1.40021e-09
4.30662e-08
1.3783e-09
4.3066e-08
1.35648e-09
4.30655e-08
1.33465e-09
4.30646e-08
1.31271e-09
4.30633e-08
1.29055e-09
4.30617e-08
1.26807e-09
4.30596e-08
1.24517e-09
4.30571e-08
1.22174e-09
4.30542e-08
1.19769e-09
4.30508e-08
1.1729e-09
4.30469e-08
1.14728e-09
4.30426e-08
1.12071e-09
4.30377e-08
1.09309e-09
4.30323e-08
1.06431e-09
4.30264e-08
1.03427e-09
4.30198e-08
1.00287e-09
4.30126e-08
9.70002e-10
4.30047e-08
9.35585e-10
4.29961e-08
8.9954e-10
4.29867e-08
8.61809e-10
4.29765e-08
8.22361e-10
4.29654e-08
7.81206e-10
4.29533e-08
7.3841e-10
4.29401e-08
6.94115e-10
4.29257e-08
6.48558e-10
4.291e-08
6.02086e-10
4.28931e-08
5.55163e-10
4.28749e-08
5.08365e-10
4.28555e-08
4.6235e-10
4.28349e-08
4.1781e-10
4.28134e-08
3.75406e-10
4.27911e-08
3.35698e-10
4.27683e-08
2.99097e-10
4.27452e-08
2.65849e-10
4.27221e-08
2.36041e-10
4.2699e-08
2.09629e-10
4.26762e-08
1.86462e-10
4.26536e-08
1.66321e-10
4.26314e-08
1.48939e-10
4.26096e-08
1.34027e-10
4.25882e-08
1.21296e-10
4.25672e-08
1.10469e-10
4.25466e-08
1.01283e-10
4.25263e-08
9.34997e-11
4.25063e-08
8.69121e-11
4.24865e-08
8.13381e-11
4.2467e-08
7.66177e-11
4.24476e-08
7.26122e-11
4.24284e-08
6.92049e-11
4.24094e-08
6.62991e-11
4.23904e-08
6.3815e-11
4.23717e-08
6.16885e-11
4.2353e-08
5.98707e-11
4.23346e-08
5.83276e-11
4.23163e-08
5.70405e-11
4.22983e-08
5.60072e-11
4.22806e-08
5.52448e-11
4.22632e-08
5.47945e-11
4.22462e-08
5.47322e-11
4.22297e-08
5.51808e-11
4.22138e-08
5.63211e-11
5.833e-11
4.25028e-08
1.89947e-09
-4.24374e-08
4.25837e-08
2.04652e-09
4.2676e-08
2.17538e-09
4.27754e-08
2.28182e-09
4.28779e-08
2.36402e-09
4.29801e-08
2.42205e-09
4.30792e-08
2.45705e-09
4.31731e-08
2.47094e-09
4.32601e-08
2.4662e-09
4.33391e-08
2.44575e-09
4.34098e-08
2.41264e-09
4.34719e-08
2.36991e-09
4.35258e-08
2.32039e-09
4.35721e-08
2.26658e-09
4.36114e-08
2.2106e-09
4.36446e-08
2.15415e-09
4.36726e-08