/*--------------------------------*- C++ -*----------------------------------*\
| =========                 |                                                 |
| \\      /  F ield         | OpenFOAM: The Open Source CFD Toolbox           |
|  \\    /   O peration     | Version:  2.3.0                                 |
|   \\  /    A nd           | Web:      www.OpenFOAM.org                      |
|    \\/     M anipulation  |                                                 |
\*---------------------------------------------------------------------------*/
FoamFile
{
    version     2.0;
    format      ascii;
    class       surfaceScalarField;
    location    "0.95";
    object      phi;
}
// * * * * * * * * * * * * * * * * * * * * * * * * * * * * * * * * * * * * * //

dimensions      [0 3 -1 0 0 0 0];

internalField   nonuniform List<scalar> 
11667
(
2.25812e-08
2.21215e-09
-2.47934e-08
1.98971e-08
2.68413e-09
1.72283e-08
2.66882e-09
1.47754e-08
2.45289e-09
1.25728e-08
2.20264e-09
1.06656e-08
1.90719e-09
9.10107e-09
1.56449e-09
7.87988e-09
1.22119e-09
6.96854e-09
9.11344e-10
6.30783e-09
6.60713e-10
5.83269e-09
4.75131e-10
5.48608e-09
3.46617e-10
5.22393e-09
2.62146e-10
5.01496e-09
2.08975e-10
4.83817e-09
1.76783e-10
4.68087e-09
1.57299e-10
4.53627e-09
1.44603e-10
4.4012e-09
1.35075e-10
4.27436e-09
1.2684e-10
4.15525e-09
1.19107e-10
4.04359e-09
1.11654e-10
3.93909e-09
1.045e-10
3.84136e-09
9.77338e-11
3.74992e-09
9.14388e-11
3.66426e-09
8.5661e-11
3.58385e-09
8.04076e-11
3.5082e-09
7.56557e-11
3.43683e-09
7.13649e-11
3.36935e-09
6.74869e-11
3.30537e-09
6.39724e-11
3.2446e-09
6.07752e-11
3.18674e-09
5.7854e-11
3.13157e-09
5.51732e-11
3.07887e-09
5.27028e-11
3.02845e-09
5.04173e-11
2.98015e-09
4.82957e-11
2.93383e-09
4.63201e-11
2.88936e-09
4.44757e-11
2.84661e-09
4.27498e-11
2.80548e-09
4.11314e-11
2.76587e-09
3.96111e-11
2.72769e-09
3.81807e-11
2.69085e-09
3.68327e-11
2.65529e-09
3.55608e-11
2.62093e-09
3.43588e-11
2.58771e-09
3.32217e-11
2.55557e-09
3.21445e-11
2.52444e-09
3.11232e-11
2.49429e-09
3.01533e-11
2.46506e-09
2.92317e-11
2.4367e-09
2.83547e-11
2.40918e-09
2.75197e-11
2.38246e-09
2.67235e-11
2.3565e-09
2.59642e-11
2.33126e-09
2.52387e-11
2.30671e-09
2.45457e-11
2.28283e-09
2.38825e-11
2.25958e-09
2.32481e-11
2.23694e-09
2.26399e-11
2.21488e-09
2.20575e-11
2.19339e-09
2.14983e-11
2.17242e-09
2.09622e-11
2.15198e-09
2.04466e-11
2.13203e-09
1.9952e-11
2.11255e-09
1.94757e-11
2.09353e-09
1.90184e-11
2.07495e-09
1.85773e-11
2.0568e-09
1.81536e-11
2.03906e-09
1.77443e-11
2.02171e-09
1.73511e-11
2.00473e-09
1.69706e-11
1.98813e-09
1.66051e-11
1.97188e-09
1.62508e-11
1.95597e-09
1.59104e-11
1.94039e-09
1.55799e-11
1.92513e-09
1.52626e-11
1.91017e-09
1.49538e-11
1.89551e-09
1.46576e-11
1.88115e-09
1.43685e-11
1.86705e-09
1.40918e-11
1.85323e-09
1.38207e-11
1.83967e-09
1.35619e-11
1.82636e-09
1.33074e-11
1.8133e-09
1.30651e-11
1.80047e-09
1.28258e-11
1.78787e-09
1.25988e-11
1.7755e-09
1.23733e-11
1.76334e-09
1.21606e-11
1.75139e-09
1.19478e-11
1.73964e-09
1.17484e-11
1.7281e-09
1.15472e-11
1.71674e-09
1.13604e-11
1.70557e-09
1.11698e-11
1.69457e-09
1.09947e-11
1.68376e-09
1.08137e-11
1.67311e-09
1.06498e-11
1.66263e-09
1.04775e-11
1.65231e-09
1.03242e-11
1.64215e-09
1.01598e-11
1.63213e-09
1.00168e-11
1.62227e-09
9.85931e-12
1.61254e-09
9.72629e-12
1.60297e-09
9.57489e-12
1.59352e-09
9.45169e-12
1.58421e-09
9.30553e-12
1.57502e-09
9.19204e-12
1.56597e-09
9.05019e-12
1.55702e-09
8.94649e-12
1.54822e-09
8.80804e-12
1.5395e-09
8.71436e-12
1.53092e-09
8.57827e-12
1.52243e-09
8.49496e-12
1.51407e-09
8.36014e-12
1.50578e-09
8.28783e-12
1.49763e-09
8.15304e-12
1.48953e-09
8.09248e-12
1.48158e-09
7.9563e-12
1.47367e-09
7.9086e-12
1.4659e-09
7.76943e-12
1.45816e-09
7.73598e-12
1.45057e-09
7.59189e-12
1.443e-09
7.57448e-12
1.43557e-09
7.42324e-12
1.42815e-09
7.42421e-12
1.42089e-09
7.26306e-12
1.4136e-09
7.2853e-12
1.40649e-09
7.11098e-12
1.39933e-09
7.15816e-12
1.39237e-09
6.96659e-12
1.38532e-09
7.04337e-12
1.37849e-09
6.82951e-12
1.37155e-09
6.94184e-12
1.36485e-09
6.69937e-12
1.358e-09
6.8548e-12
1.35142e-09
6.57571e-12
1.34464e-09
6.78405e-12
1.33818e-09
6.45803e-12
1.33145e-09
6.73208e-12
1.3251e-09
6.34564e-12
1.3184e-09
6.70247e-12
1.31216e-09
6.23765e-12
1.30546e-09
6.70063e-12
1.29933e-09
6.13284e-12
1.29259e-09
6.73541e-12
1.28656e-09
6.02994e-12
1.27974e-09
6.82461e-12
1.27381e-09
5.93139e-12
1.26678e-09
7.02892e-12
1.26086e-09
5.91844e-12
8.59844e-12
2.68329e-08
1.97274e-09
-2.65935e-08
2.67182e-08
2.79886e-09
2.62053e-08
3.18174e-09
2.54548e-08
3.20339e-09
2.45669e-08
3.09053e-09
2.35726e-08
2.90149e-09
2.24976e-08
2.63943e-09
2.13943e-08
2.3245e-09
2.03134e-08
1.99231e-09
1.92915e-08
1.68261e-09
1.83473e-08
1.41928e-09
1.74866e-08
1.20737e-09
1.67086e-08
1.04014e-09
1.601e-08
9.07553e-10
1.53834e-08
8.03343e-10
1.48203e-08
7.20472e-10
1.43119e-08
6.52949e-10
1.38506e-08
5.96371e-10
1.34297e-08
5.47792e-10
1.30434e-08
5.05325e-10
1.26873e-08
4.67769e-10
1.23575e-08
4.34329e-10
1.20508e-08
4.04439e-10
1.17646e-08
3.77668e-10
1.14966e-08
3.53658e-10
1.12449e-08
3.32089e-10
1.10079e-08
3.12671e-10
1.07841e-08
2.9514e-10
1.05723e-08
2.7926e-10
1.03715e-08
2.64824e-10
1.01806e-08
2.51651e-10
9.99887e-09
2.39583e-10
9.82556e-09
2.28486e-10
9.66001e-09
2.18249e-10
9.50166e-09
2.08772e-10
9.34998e-09
1.99974e-10
9.20452e-09
1.91784e-10
9.06485e-09
1.84142e-10
8.9306e-09
1.76996e-10
8.80144e-09
1.70299e-10
8.67703e-09
1.64013e-10
8.55711e-09
1.58102e-10
8.44141e-09
1.52534e-10
8.32969e-09
1.47283e-10
8.22173e-09
1.42322e-10
8.11732e-09
1.37631e-10
8.01627e-09
1.33188e-10
7.91842e-09
1.28975e-10
7.8236e-09
1.24976e-10
7.73166e-09
1.21175e-10
7.64245e-09
1.17559e-10
7.55586e-09
1.14116e-10
7.47175e-09
1.10833e-10
7.39001e-09
1.07701e-10
7.31054e-09
1.04709e-10
7.23323e-09
1.0185e-10
7.158e-09
9.91144e-11
7.08475e-09
9.64965e-11
7.01341e-09
9.39873e-11
6.94388e-09
9.15829e-11
6.87611e-09
8.92749e-11
6.81001e-09
8.70608e-11
6.74552e-09
8.49324e-11
6.68258e-09
8.28884e-11
6.62114e-09
8.09209e-11
6.56113e-09
7.90298e-11
6.5025e-09
7.72071e-11
6.4452e-09
7.54539e-11
6.38918e-09
7.37618e-11
6.3344e-09
7.21334e-11
6.28081e-09
7.05596e-11
6.22837e-09
6.90444e-11
6.17704e-09
6.75781e-11
6.12679e-09
6.61661e-11
6.07757e-09
6.47976e-11
6.02935e-09
6.34797e-11
5.98211e-09
6.22004e-11
5.93579e-09
6.09687e-11
5.89039e-09
5.9771e-11
5.84586e-09
5.86184e-11
5.80219e-09
5.74953e-11
5.75934e-09
5.64157e-11
5.71728e-09
5.53611e-11
5.676e-09
5.43486e-11
5.63547e-09
5.3357e-11
5.59566e-09
5.24067e-11
5.55656e-09
5.14728e-11
5.51814e-09
5.05802e-11
5.48039e-09
4.96994e-11
5.44328e-09
4.88604e-11
5.4068e-09
4.80286e-11
5.37092e-09
4.72397e-11
5.33563e-09
4.64529e-11
5.30092e-09
4.57108e-11
5.26677e-09
4.49652e-11
5.23315e-09
4.42672e-11
5.20007e-09
4.35595e-11
5.16749e-09
4.29032e-11
5.13542e-09
4.22302e-11
5.10382e-09
4.16133e-11
5.07271e-09
4.09719e-11
5.04204e-09
4.03927e-11
5.01184e-09
3.978e-11
4.98205e-09
3.92371e-11
4.95271e-09
3.86502e-11
4.92376e-09
3.81425e-11
4.89523e-09
3.75786e-11
4.86707e-09
3.71054e-11
4.83932e-09
3.65616e-11
4.81191e-09
3.61226e-11
4.78489e-09
3.5596e-11
4.75819e-09
3.51913e-11
4.73187e-09
3.46789e-11
4.70585e-09
3.43091e-11
4.6802e-09
3.38076e-11
4.65482e-09
3.34738e-11
4.62979e-09
3.29798e-11
4.60502e-09
3.26838e-11
4.58059e-09
3.21933e-11
4.55639e-09
3.19376e-11
4.53254e-09
3.14463e-11
4.50888e-09
3.12344e-11
4.48556e-09
3.07373e-11
4.46241e-09
3.05736e-11
4.43961e-09
3.00647e-11
4.41694e-09
2.9955e-11
4.39463e-09
2.94276e-11
4.37241e-09
2.93793e-11
4.35055e-09
2.8825e-11
4.32874e-09
2.88475e-11
4.30732e-09
2.82562e-11
4.2859e-09
2.83614e-11
4.26488e-09
2.77209e-11
4.24381e-09
2.79238e-11
4.22316e-09
2.72189e-11
4.20241e-09
2.75389e-11
4.18212e-09
2.67507e-11
4.16164e-09
2.72123e-11
4.14166e-09
2.63172e-11
4.12141e-09
2.69522e-11
4.10173e-09
2.59203e-11
4.08166e-09
2.67702e-11
4.06223e-09
2.55644e-11
4.04228e-09
2.66842e-11
4.02305e-09
2.52604e-11
4.00315e-09
2.67284e-11
3.98403e-09
2.50482e-11
3.96402e-09
2.70354e-11
3.94467e-09
2.52679e-11
2.9715e-11
2.78631e-08
1.86001e-09
-2.77503e-08
2.81732e-08
2.48871e-09
2.83963e-08
2.95868e-09
2.84643e-08
3.13539e-09
2.84203e-08
3.13452e-09
2.82719e-08
3.04991e-09
2.80082e-08
2.90312e-09
2.76347e-08
2.698e-09
2.71732e-08
2.45382e-09
2.66529e-08
2.20291e-09
2.60995e-08
1.97267e-09
2.55314e-08
1.77544e-09
2.49608e-08
1.61077e-09
2.43952e-08
1.47313e-09
2.38407e-08
1.3578e-09
2.33012e-08
1.26004e-09
2.27786e-08
1.17555e-09
2.2274e-08
1.10094e-09
2.17879e-08
1.03387e-09
2.13205e-08
9.7278e-10
2.08715e-08
9.16711e-10
2.04408e-08
8.65035e-10
2.0028e-08
8.17309e-10
1.96324e-08
7.73216e-10
1.92536e-08
7.32481e-10
1.88908e-08
6.94851e-10
1.85434e-08
6.60081e-10
1.82106e-08
6.27934e-10
1.78917e-08
5.98183e-10
1.75859e-08
5.70615e-10
1.72925e-08
5.45032e-10
1.70109e-08
5.21254e-10
1.67402e-08
4.99115e-10
1.648e-08
4.78467e-10
1.62296e-08
4.59177e-10
1.59884e-08
4.41124e-10
1.5756e-08
4.24203e-10
1.55319e-08
4.08317e-10
1.53155e-08
3.93379e-10
1.51065e-08
3.79314e-10
1.49044e-08
3.6605e-10
1.4709e-08
3.53527e-10
1.45198e-08
3.41687e-10
1.43366e-08
3.30479e-10
1.41591e-08
3.19855e-10
1.3987e-08
3.09776e-10
1.382e-08
3.00202e-10
1.36578e-08
2.91098e-10
1.35004e-08
2.82431e-10
1.33474e-08
2.74174e-10
1.31986e-08
2.66299e-10
1.3054e-08
2.58782e-10
1.29132e-08
2.516e-10
1.27762e-08
2.44734e-10
1.26427e-08
2.38163e-10
1.25127e-08
2.31871e-10
1.2386e-08
2.25839e-10
1.22624e-08
2.20057e-10
1.21419e-08
2.14506e-10
1.20243e-08
2.09178e-10
1.19095e-08
2.04056e-10
1.17974e-08
1.99134e-10
1.1688e-08
1.94397e-10
1.1581e-08
1.89841e-10
1.14765e-08
1.8545e-10
1.13743e-08
1.81223e-10
1.12744e-08
1.77145e-10
1.11766e-08
1.73216e-10
1.10809e-08
1.69422e-10
1.09873e-08
1.65763e-10
1.08956e-08
1.62226e-10
1.08059e-08
1.58814e-10
1.07179e-08
1.55512e-10
1.06318e-08
1.52325e-10
1.05473e-08
1.49236e-10
1.04646e-08
1.46256e-10
1.03834e-08
1.43363e-10
1.03038e-08
1.40572e-10
1.02257e-08
1.37859e-10
1.01491e-08
1.35241e-10
1.00739e-08
1.32694e-10
1.00001e-08
1.30236e-10
9.92759e-09
1.2784e-10
9.85641e-09
1.25531e-10
9.78649e-09
1.23276e-10
9.71779e-09
1.21104e-10
9.65029e-09
1.18977e-10
9.58394e-09
1.16932e-10
9.51871e-09
1.14925e-10
9.45457e-09
1.12999e-10
9.3915e-09
1.11101e-10
9.32945e-09
1.09286e-10
9.26842e-09
1.0749e-10
9.20835e-09
1.05778e-10
9.14924e-09
1.04076e-10
9.09105e-09
1.0246e-10
9.03376e-09
1.00846e-10
8.97734e-09
9.93212e-11
8.92178e-09
9.7787e-11
8.86705e-09
9.63483e-11
8.81313e-09
9.48879e-11
8.76e-09
9.35308e-11
8.70764e-09
9.21385e-11
8.65601e-09
9.08592e-11
8.60514e-09
8.95293e-11
8.55495e-09
8.83246e-11
8.50548e-09
8.70514e-11
8.45667e-09
8.59189e-11
8.40853e-09
8.46972e-11
8.36102e-09
8.36348e-11
8.31416e-09
8.24593e-11
8.26788e-09
8.1466e-11
8.22223e-09
8.03315e-11
8.17713e-09
7.94068e-11
8.13263e-09
7.83079e-11
8.08865e-09
7.74521e-11
8.04525e-09
7.63831e-11
8.00234e-09
7.55977e-11
7.95998e-09
7.45527e-11
7.91807e-09
7.384e-11
7.87671e-09
7.28127e-11
7.83577e-09
7.21762e-11
7.79534e-09
7.11596e-11
7.75531e-09
7.06044e-11
7.71579e-09
6.95908e-11
7.67662e-09
6.91235e-11
7.63794e-09
6.8104e-11
7.59959e-09
6.77333e-11
7.56172e-09
6.66978e-11
7.52413e-09
6.64347e-11
7.48701e-09
6.53715e-11
7.45014e-09
6.52301e-11
7.41374e-09
6.41255e-11
7.37754e-09
6.41231e-11
7.3418e-09
6.29612e-11
7.30622e-09
6.31193e-11
7.27109e-09
6.18816e-11
7.23607e-09
6.22268e-11
7.2015e-09
6.08923e-11
7.16699e-09
6.14568e-11
7.13291e-09
6.00027e-11
7.09885e-09
6.0825e-11
7.06519e-09
5.92299e-11
7.03152e-09
6.0355e-11
6.99817e-09
5.86077e-11
6.96481e-09
6.00945e-11
6.93163e-09
5.82244e-11
6.89839e-09
6.02749e-11
6.86506e-09
5.85943e-11
6.32817e-11
2.88738e-08
1.81452e-09
-2.88283e-08
2.91e-08
2.26251e-09
2.93919e-08
2.66679e-09
2.96334e-08
2.89389e-09
2.98166e-08
2.95126e-09
2.99509e-08
2.91565e-09
3.00271e-08
2.82697e-09
3.00316e-08
2.69341e-09
2.99614e-08
2.52409e-09
2.98258e-08
2.33853e-09
2.96397e-08
2.1587e-09
2.94169e-08
1.99831e-09
2.91666e-08
1.86104e-09
2.88951e-08
1.7446e-09
2.86077e-08
1.64521e-09
2.83084e-08
1.55931e-09
2.80003e-08
1.48372e-09
2.76853e-08
1.41586e-09
2.73654e-08
1.35382e-09
2.70419e-08
1.2963e-09
2.67161e-08
1.24246e-09
2.63894e-08
1.19177e-09
2.60628e-08
1.14391e-09
2.57373e-08
1.09865e-09
2.5414e-08
1.05585e-09
2.50935e-08
1.01534e-09
2.47766e-08
9.77015e-10
2.44638e-08
9.40729e-10
2.41556e-08
9.0636e-10
2.38524e-08
8.73788e-10
2.35545e-08
8.42897e-10
2.32622e-08
8.13579e-10
2.29756e-08
7.85732e-10
2.26948e-08
7.59264e-10
2.24199e-08
7.34088e-10
2.21509e-08
7.10126e-10
2.18878e-08
6.87303e-10
2.16306e-08
6.65552e-10
2.13791e-08
6.4481e-10
2.11334e-08
6.2502e-10
2.08933e-08
6.06126e-10
2.06588e-08
5.88078e-10
2.04296e-08
5.70829e-10
2.02058e-08
5.54335e-10
1.99871e-08
5.38552e-10
1.97734e-08
5.23444e-10
1.95647e-08
5.08972e-10
1.93607e-08
4.95103e-10
1.91613e-08
4.81803e-10
1.89664e-08
4.69045e-10
1.87759e-08
4.56796e-10
1.85897e-08
4.45034e-10
1.84075e-08
4.3373e-10
1.82294e-08
4.22864e-10
1.80552e-08
4.1241e-10
1.78847e-08
4.02352e-10
1.77178e-08
3.92665e-10
1.75546e-08
3.83337e-10
1.73947e-08
3.74345e-10
1.72382e-08
3.65678e-10
1.7085e-08
3.57315e-10
1.69349e-08
3.49249e-10
1.67878e-08
3.41459e-10
1.66437e-08
3.3394e-10
1.65025e-08
3.26672e-10
1.6364e-08
3.19652e-10
1.62283e-08
3.1286e-10
1.60953e-08
3.06297e-10
1.59647e-08
2.99942e-10
1.58367e-08
2.93798e-10
1.57111e-08
2.87843e-10
1.55878e-08
2.82084e-10
1.54668e-08
2.76497e-10
1.53481e-08
2.71092e-10
1.52314e-08
2.65845e-10
1.51169e-08
2.60767e-10
1.50045e-08
2.55832e-10
1.4894e-08
2.51056e-10
1.47854e-08
2.46409e-10
1.46788e-08
2.41913e-10
1.45739e-08
2.37534e-10
1.44709e-08
2.33297e-10
1.43695e-08
2.29165e-10
1.42699e-08
2.25169e-10
1.41719e-08
2.21267e-10
1.40755e-08
2.17495e-10
1.39807e-08
2.13805e-10
1.38874e-08
2.10243e-10
1.37956e-08
2.06751e-10
1.37052e-08
2.03384e-10
1.36162e-08
2.00075e-10
1.35286e-08
1.96891e-10
1.34423e-08
1.93753e-10
1.33574e-08
1.9074e-10
1.32737e-08
1.87761e-10
1.31912e-08
1.84908e-10
1.311e-08
1.82078e-10
1.30299e-08
1.79376e-10
1.2951e-08
1.76683e-10
1.28733e-08
1.74124e-10
1.27966e-08
1.71559e-10
1.2721e-08
1.69136e-10
1.26464e-08
1.66689e-10
1.25729e-08
1.64394e-10
1.25004e-08
1.62057e-10
1.24288e-08
1.59885e-10
1.23582e-08
1.5765e-10
1.22885e-08
1.55596e-10
1.22198e-08
1.53455e-10
1.21519e-08
1.51515e-10
1.20849e-08
1.4946e-10
1.20187e-08
1.4763e-10
1.19534e-08
1.45654e-10
1.18889e-08
1.43932e-10
1.18252e-08
1.42028e-10
1.17622e-08
1.40413e-10
1.17e-08
1.38574e-10
1.16386e-08
1.37065e-10
1.15778e-08
1.35283e-10
1.15178e-08
1.33882e-10
1.14584e-08
1.32149e-10
1.13998e-08
1.30858e-10
1.13418e-08
1.29167e-10
1.12844e-08
1.27989e-10
1.12276e-08
1.26332e-10
1.11715e-08
1.25273e-10
1.11159e-08
1.23642e-10
1.1061e-08
1.22708e-10
1.10066e-08
1.21094e-10
1.09527e-08
1.20295e-10
1.08994e-08
1.18688e-10
1.08466e-08
1.18035e-10
1.07943e-08
1.16425e-10
1.07425e-08
1.15933e-10
1.06911e-08
1.1431e-10
1.06403e-08
1.13995e-10
1.05898e-08
1.12349e-10
1.05398e-08
1.1223e-10
1.04901e-08
1.10555e-10
1.04409e-08
1.10652e-10
1.0392e-08
1.08946e-10
1.03435e-08
1.09281e-10
1.02952e-08
1.07553e-10
1.02474e-08
1.08151e-10
1.01996e-08
1.06429e-10
1.01523e-08
1.07336e-10
1.01049e-08
1.05691e-10
1.0058e-08
1.07182e-10
1.00106e-08
1.05927e-10
1.09878e-10
2.99024e-08
1.76616e-09
-2.98541e-08
3.00588e-08
2.10612e-09
3.02993e-08
2.42631e-09
3.0542e-08
2.65121e-09
3.07508e-08
2.74242e-09
3.09293e-08
2.73716e-09
3.10794e-08
2.67691e-09
3.11923e-08
2.58052e-09
3.12599e-08
2.45652e-09
3.12821e-08
2.31629e-09
3.12662e-08
2.17462e-09
3.12208e-08
2.04366e-09
3.11526e-08
1.92927e-09
3.10657e-08
1.83149e-09
3.09632e-08
1.74772e-09
3.08474e-08
1.6751e-09
3.072e-08
1.61116e-09
3.05819e-08
1.55388e-09
3.04341e-08
1.50165e-09
3.02771e-08
1.4533e-09
3.01115e-08
1.40803e-09
2.9938e-08
1.36531e-09
2.97572e-08
1.32476e-09
2.95697e-08
1.28616e-09
2.93762e-08
1.24932e-09
2.91774e-08
1.21412e-09
2.8974e-08
1.18044e-09
2.87666e-08
1.14816e-09
2.85557e-08
1.1172e-09
2.8342e-08
1.08746e-09
2.81261e-08
1.05887e-09
2.79083e-08
1.03134e-09
2.76892e-08
1.00481e-09
2.74693e-08
9.79235e-10
2.72488e-08
9.54545e-10
2.70282e-08
9.30699e-10
2.68079e-08
9.07655e-10
2.65881e-08
8.85375e-10
2.6369e-08
8.63825e-10
2.61511e-08
8.42975e-10
2.59344e-08
8.22794e-10
2.57192e-08
8.03259e-10
2.55057e-08
7.84342e-10
2.5294e-08
7.66022e-10
2.50843e-08
7.48276e-10
2.48767e-08
7.31085e-10
2.46712e-08
7.14427e-10
2.4468e-08
6.98285e-10
2.42672e-08
6.82638e-10
2.40688e-08
6.67472e-10
2.38728e-08
6.52767e-10
2.36793e-08
6.3851e-10
2.34884e-08
6.24682e-10
2.33e-08
6.11273e-10
2.31141e-08
5.98262e-10
2.29308e-08
5.85642e-10
2.27501e-08
5.73393e-10
2.25719e-08
5.61508e-10
2.23963e-08
5.4997e-10
2.22232e-08
5.38772e-10
2.20526e-08
5.27896e-10
2.18845e-08
5.17338e-10
2.17189e-08
5.07081e-10
2.15557e-08
4.97121e-10
2.1395e-08
4.8744e-10
2.12366e-08
4.78038e-10
2.10805e-08
4.68896e-10
2.09268e-08
4.60016e-10
2.07754e-08
4.51378e-10
2.06262e-08
4.42985e-10
2.04792e-08
4.34817e-10
2.03344e-08
4.26881e-10
2.01918e-08
4.19153e-10
2.00512e-08
4.11644e-10
1.99127e-08
4.04328e-10
1.97763e-08
3.97219e-10
1.96418e-08
3.90288e-10
1.95093e-08
3.83554e-10
1.93788e-08
3.76984e-10
1.92501e-08
3.70602e-10
1.91232e-08
3.6437e-10
1.89982e-08
3.58318e-10
1.8875e-08
3.52404e-10
1.87535e-08
3.46662e-10
1.86337e-08
3.41045e-10
1.85156e-08
3.35594e-10
1.83991e-08
3.30256e-10
1.82843e-08
3.25079e-10
1.81711e-08
3.20003e-10
1.80594e-08
3.15085e-10
1.79492e-08
3.10255e-10
1.78405e-08
3.0558e-10
1.77333e-08
3.0098e-10
1.76275e-08
2.96535e-10
1.75231e-08
2.92152e-10
1.74201e-08
2.87924e-10
1.73184e-08
2.83744e-10
1.7218e-08
2.79722e-10
1.7119e-08
2.75733e-10
1.70212e-08
2.71905e-10
1.69247e-08
2.68095e-10
1.68294e-08
2.64453e-10
1.67352e-08
2.60811e-10
1.66423e-08
2.57345e-10
1.65505e-08
2.53861e-10
1.64598e-08
2.50562e-10
1.63702e-08
2.47226e-10
1.62817e-08
2.44089e-10
1.61943e-08
2.40891e-10
1.61079e-08
2.37908e-10
1.60225e-08
2.34841e-10
1.59382e-08
2.32007e-10
1.58547e-08
2.29061e-10
1.57723e-08
2.26372e-10
1.56908e-08
2.23539e-10
1.56102e-08
2.20992e-10
1.55305e-08
2.18264e-10
1.54517e-08
2.15855e-10
1.53738e-08
2.13227e-10
1.52967e-08
2.10955e-10
1.52204e-08
2.08418e-10
1.5145e-08
2.06283e-10
1.50704e-08
2.03831e-10
1.49965e-08
2.01833e-10
1.49234e-08
1.99461e-10
1.48511e-08
1.97601e-10
1.47794e-08
1.95303e-10
1.47085e-08
1.93585e-10
1.46383e-08
1.91357e-10
1.45688e-08
1.89784e-10
1.44998e-08
1.87622e-10
1.44317e-08
1.86199e-10
1.4364e-08
1.84102e-10
1.42971e-08
1.82836e-10
1.42306e-08
1.80805e-10
1.41649e-08
1.79701e-10
1.40995e-08
1.77742e-10
1.40349e-08
1.76806e-10
1.39705e-08
1.74931e-10
1.3907e-08
1.74168e-10
1.38436e-08
1.724e-10
1.3781e-08
1.71816e-10
1.37184e-08
1.70189e-10
1.36568e-08
1.69799e-10
1.35948e-08
1.6836e-10
1.35339e-08
1.68232e-10
1.34726e-08
1.67051e-10
1.34122e-08
1.67537e-10
1.33513e-08
1.66875e-10
1.69445e-10
3.09301e-08
1.71036e-09
-3.08743e-08
3.10525e-08
1.9837e-09
3.12421e-08
2.23669e-09
3.14549e-08
2.43843e-09
3.16518e-08
2.5455e-09
3.1824e-08
2.56499e-09
3.19741e-08
2.52678e-09
3.21004e-08
2.45426e-09
3.21977e-08
2.3592e-09
3.22642e-08
2.2498e-09
3.23032e-08
2.13564e-09
3.23206e-08
2.02626e-09
3.23219e-08
1.92793e-09
3.23109e-08
1.84248e-09
3.22899e-08
1.76872e-09
3.22604e-08
1.70457e-09
3.22235e-08
1.64809e-09
3.21797e-08
1.59768e-09
3.21293e-08
1.55205e-09
3.20724e-08
1.51019e-09
3.20091e-08
1.47137e-09
3.19393e-08
1.43505e-09
3.18633e-08
1.40083e-09
3.1781e-08
1.36844e-09
3.16926e-08
1.33767e-09
3.15984e-08
1.30835e-09
3.14985e-08
1.28034e-09
3.13931e-08
1.25352e-09
3.12826e-08
1.22778e-09
3.1167e-08
1.20302e-09
3.10467e-08
1.17914e-09
3.0922e-08
1.15608e-09
3.0793e-08
1.13376e-09
3.06602e-08
1.11211e-09
3.05236e-08
1.0911e-09
3.03836e-08
1.07067e-09
3.02405e-08
1.05077e-09
3.00945e-08
1.03139e-09
2.99458e-08
1.01249e-09
2.97948e-08
9.94034e-10
2.96416e-08
9.76012e-10
2.94864e-08
9.58403e-10
2.93296e-08
9.41188e-10
2.91712e-08
9.24354e-10
2.90116e-08
9.07886e-10
2.88509e-08
8.91774e-10
2.86894e-08
8.76006e-10
2.85271e-08
8.60574e-10
2.83642e-08
8.45466e-10
2.8201e-08
8.30679e-10
2.80376e-08
8.16201e-10
2.78741e-08
8.02028e-10
2.77106e-08
7.8815e-10
2.75473e-08
7.74565e-10
2.73843e-08
7.61264e-10
2.72217e-08
7.48244e-10
2.70596e-08
7.35495e-10
2.68981e-08
7.23018e-10
2.67373e-08
7.10801e-10
2.65772e-08
6.98846e-10
2.6418e-08
6.8714e-10
2.62596e-08
6.75688e-10
2.61022e-08
6.64475e-10
2.59458e-08
6.53506e-10
2.57905e-08
6.42767e-10
2.56363e-08
6.32264e-10
2.54832e-08
6.2198e-10
2.53313e-08
6.11924e-10
2.51806e-08
6.02077e-10
2.50311e-08
5.92451e-10
2.48829e-08
5.83025e-10
2.4736e-08
5.7381e-10
2.45904e-08
5.64787e-10
2.4446e-08
5.55969e-10
2.4303e-08
5.47331e-10
2.41614e-08
5.38892e-10
2.4021e-08
5.30625e-10
2.3882e-08
5.22549e-10
2.37444e-08
5.14635e-10
2.36081e-08
5.06907e-10
2.34731e-08
4.99332e-10
2.33395e-08
4.91936e-10
2.32072e-08
4.84684e-10
2.30763e-08
4.77606e-10
2.29466e-08
4.70662e-10
2.28183e-08
4.63889e-10
2.26914e-08
4.57239e-10
2.25657e-08
4.50757e-10
2.24413e-08
4.44388e-10
2.23182e-08
4.38182e-10
2.21964e-08
4.32081e-10
2.20758e-08
4.2614e-10
2.19565e-08
4.20294e-10
2.18384e-08
4.14606e-10
2.17216e-08
4.09002e-10
2.1606e-08
4.03557e-10
2.14915e-08
3.98184e-10
2.13783e-08
3.92969e-10
2.12662e-08
3.87816e-10
2.11553e-08
3.82822e-10
2.10455e-08
3.77878e-10
2.09368e-08
3.73096e-10
2.08293e-08
3.68351e-10
2.07229e-08
3.63771e-10
2.06175e-08
3.59216e-10
2.05133e-08
3.54829e-10
2.041e-08
3.50455e-10
2.03079e-08
3.46254e-10
2.02067e-08
3.42052e-10
2.01066e-08
3.3803e-10
2.00074e-08
3.33992e-10
1.99093e-08
3.30142e-10
1.98121e-08
3.26262e-10
1.97159e-08
3.22577e-10
1.96206e-08
3.18847e-10
1.95262e-08
3.15323e-10
1.94328e-08
3.11738e-10
1.93403e-08
3.08369e-10
1.92486e-08
3.04924e-10
1.91578e-08
3.01706e-10
1.90678e-08
2.98397e-10
1.89788e-08
2.95326e-10
1.88905e-08
2.92151e-10
1.88031e-08
2.89223e-10
1.87164e-08
2.8618e-10
1.86306e-08
2.83392e-10
1.85454e-08
2.80482e-10
1.84611e-08
2.77831e-10
1.83774e-08
2.75058e-10
1.82947e-08
2.7254e-10
1.82124e-08
2.69909e-10
1.81311e-08
2.67521e-10
1.80501e-08
2.65042e-10
1.79702e-08
2.62779e-10
1.78905e-08
2.60468e-10
1.78119e-08
2.58326e-10
1.77334e-08
2.56203e-10
1.76561e-08
2.54175e-10
1.75787e-08
2.52271e-10
1.75025e-08
2.50353e-10
1.74262e-08
2.48706e-10
1.73512e-08
2.46899e-10
1.72758e-08
2.45554e-10
1.72017e-08
2.43884e-10
1.71272e-08
2.42886e-10
1.7054e-08
2.41459e-10
1.69801e-08
2.40865e-10
1.69076e-08
2.40064e-10
1.68344e-08
2.40077e-10
2.40926e-10
3.19644e-08
1.65175e-09
-3.19058e-08
3.20684e-08
1.87969e-09
3.22205e-08
2.08458e-09
3.24009e-08
2.25807e-09
3.2579e-08
2.36742e-09
3.2739e-08
2.405e-09
3.28787e-08
2.38705e-09
3.29986e-08
2.33437e-09
3.3097e-08
2.26083e-09
3.31723e-08
2.17442e-09
3.32261e-08
2.08188e-09
3.32622e-08
1.99014e-09
3.32853e-08
1.90484e-09
3.32991e-08
1.82874e-09
3.33058e-08
1.76196e-09
3.33071e-08
1.70331e-09
3.33038e-08
1.65136e-09
3.32966e-08
1.60486e-09
3.32859e-08
1.5628e-09
3.32717e-08
1.5244e-09
3.3254e-08
1.48901e-09
3.32329e-08
1.45616e-09
3.32083e-08
1.42548e-09
3.318e-08
1.39668e-09
3.31481e-08
1.36955e-09
3.31126e-08
1.3439e-09
3.30733e-08
1.31959e-09
3.30304e-08
1.29648e-09
3.29837e-08
1.27444e-09
3.29334e-08
1.25338e-09
3.28793e-08
1.23319e-09
3.28216e-08
1.21379e-09
3.27603e-08
1.1951e-09
3.26953e-08
1.17704e-09
3.26269e-08
1.15955e-09
3.2555e-08
1.14259e-09
3.24796e-08
1.12609e-09
3.2401e-08
1.11003e-09
3.23191e-08
1.09436e-09
3.22341e-08
1.07905e-09
3.21461e-08
1.06408e-09
3.2055e-08
1.04941e-09
3.19612e-08
1.03503e-09
3.18646e-08
1.02092e-09
3.17655e-08
1.00707e-09
3.16638e-08
9.9345e-10
3.15597e-08
9.80058e-10
3.14534e-08
9.66884e-10
3.1345e-08
9.53915e-10
3.12345e-08
9.41146e-10
3.11221e-08
9.28567e-10
3.1008e-08
9.16175e-10
3.08922e-08
9.03961e-10
3.07748e-08
8.91925e-10
3.0656e-08
8.80058e-10
3.05359e-08
8.68361e-10
3.04146e-08
8.56828e-10
3.02921e-08
8.45459e-10
3.01687e-08
8.34248e-10
3.00443e-08
8.23199e-10
2.99192e-08
8.12303e-10
2.97933e-08
8.01565e-10
2.96668e-08
7.90978e-10
2.95397e-08
7.80547e-10
2.94122e-08
7.70264e-10
2.92844e-08
7.60135e-10
2.91562e-08
7.5015e-10
2.90278e-08
7.40319e-10
2.88993e-08
7.30629e-10
2.87706e-08
7.21091e-10
2.8642e-08
7.11692e-10
2.85133e-08
7.02444e-10
2.83848e-08
6.93331e-10
2.82564e-08
6.84368e-10
2.81282e-08
6.75538e-10
2.80002e-08
6.66855e-10
2.78725e-08
6.58303e-10
2.77452e-08
6.49895e-10
2.76182e-08
6.41615e-10
2.74916e-08
6.33479e-10
2.73655e-08
6.25466e-10
2.72398e-08
6.17594e-10
2.71147e-08
6.09843e-10
2.69901e-08
6.02231e-10
2.6866e-08
5.94735e-10
2.67425e-08
5.87376e-10
2.66196e-08
5.80129e-10
2.64973e-08
5.73017e-10
2.63757e-08
5.66014e-10
2.62548e-08
5.59142e-10
2.61345e-08
5.52376e-10
2.60149e-08
5.45738e-10
2.5896e-08
5.39201e-10
2.57778e-08
5.3279e-10
2.56603e-08
5.26477e-10
2.55436e-08
5.20286e-10
2.54276e-08
5.1419e-10
2.53123e-08
5.08213e-10
2.51978e-08
5.02327e-10
2.50841e-08
4.96556e-10
2.49711e-08
4.90874e-10
2.48589e-08
4.85303e-10
2.47474e-08
4.7982e-10
2.46367e-08
4.74441e-10
2.45268e-08
4.6915e-10
2.44177e-08
4.63958e-10
2.43093e-08
4.58854e-10
2.42017e-08
4.53841e-10
2.40948e-08
4.4892e-10
2.39888e-08
4.44079e-10
2.38834e-08
4.39337e-10
2.37789e-08
4.34662e-10
2.36751e-08
4.30095e-10
2.35721e-08
4.25579e-10
2.34697e-08
4.21185e-10
2.33682e-08
4.16822e-10
2.32674e-08
4.12599e-10
2.31674e-08
4.08382e-10
2.3068e-08
4.04331e-10
2.29694e-08
4.00253e-10
2.28714e-08
3.96375e-10
2.27743e-08
3.92429e-10
2.26777e-08
3.88728e-10
2.25821e-08
3.84906e-10
2.24869e-08
3.81387e-10
2.23926e-08
3.77682e-10
2.22987e-08
3.74355e-10
2.22058e-08
3.70757e-10
2.21132e-08
3.67633e-10
2.20216e-08
3.64132e-10
2.19303e-08
3.61228e-10
2.184e-08
3.57814e-10
2.17499e-08
3.55152e-10
2.16608e-08
3.51813e-10
2.15719e-08
3.49419e-10
2.14841e-08
3.46142e-10
2.13962e-08
3.4405e-10
2.13096e-08
3.40825e-10
2.12228e-08
3.39075e-10
2.11372e-08
3.35896e-10
2.10514e-08
3.34531e-10
2.09669e-08
3.31409e-10
2.0882e-08
3.30474e-10
2.07984e-08
3.27455e-10
2.07143e-08
3.26987e-10
2.06316e-08
3.2421e-10
2.05482e-08
3.24259e-10
2.04661e-08
3.22091e-10
2.03834e-08
3.22804e-10
3.21889e-10
3.3012e-08
1.59408e-09
-3.29543e-08
3.31033e-08
1.78836e-09
3.32293e-08
1.95861e-09
3.33812e-08
2.10613e-09
3.35388e-08
2.20984e-09
3.36857e-08
2.25815e-09
3.38153e-08
2.25738e-09
3.39273e-08
2.22242e-09
3.40215e-08
2.16665e-09
3.40973e-08
2.09855e-09
3.41554e-08
2.02379e-09
3.41981e-08
1.94745e-09
3.42289e-08
1.87404e-09
3.42511e-08
1.80654e-09
3.42671e-08
1.74597e-09
3.42784e-08
1.69196e-09
3.42862e-08
1.6436e-09
3.42911e-08
1.59997e-09
3.42936e-08
1.56031e-09
3.4294e-08
1.52399e-09
3.42925e-08
1.49053e-09
3.42891e-08
1.45953e-09
3.42839e-08
1.43067e-09
3.42769e-08
1.40369e-09
3.4268e-08
1.37839e-09
3.42573e-08
1.3546e-09
3.42448e-08
1.33217e-09
3.42303e-08
1.31096e-09
3.42138e-08
1.29088e-09
3.41954e-08
1.27181e-09
3.4175e-08
1.25365e-09
3.41524e-08
1.23632e-09
3.41278e-08
1.21973e-09
3.4101e-08
1.20382e-09
3.4072e-08
1.18853e-09
3.40408e-08
1.17378e-09
3.40074e-08
1.15954e-09
3.39717e-08
1.14575e-09
3.39337e-08
1.13238e-09
3.38933e-08
1.11938e-09
3.38507e-08
1.10672e-09
3.38057e-08
1.09437e-09
3.37584e-08
1.08231e-09
3.37089e-08
1.07052e-09
3.3657e-08
1.05896e-09
3.36028e-08
1.04762e-09
3.35464e-08
1.03649e-09
3.34877e-08
1.02555e-09
3.34268e-08
1.01478e-09
3.33638e-08
1.00418e-09
3.32986e-08
9.93732e-10
3.32314e-08
9.83427e-10
3.31621e-08
9.73256e-10
3.30908e-08
9.63214e-10
3.30175e-08
9.53292e-10
3.29424e-08
9.43486e-10
3.28655e-08
9.3379e-10
3.27867e-08
9.24201e-10
3.27063e-08
9.14714e-10
3.26241e-08
9.05327e-10
3.25404e-08
8.96036e-10
3.24551e-08
8.8684e-10
3.23684e-08
8.77736e-10
3.22802e-08
8.68723e-10
3.21906e-08
8.59799e-10
3.20998e-08
8.50965e-10
3.20078e-08
8.42217e-10
3.19145e-08
8.33557e-10
3.18202e-08
8.24982e-10
3.17248e-08
8.16495e-10
3.16284e-08
8.08093e-10
3.1531e-08
7.99777e-10
3.14328e-08
7.91546e-10
3.13338e-08
7.83401e-10
3.1234e-08
7.75342e-10
3.11335e-08
7.67368e-10
3.10323e-08
7.59481e-10
3.09305e-08
7.51678e-10
3.08281e-08
7.43962e-10
3.07253e-08
7.3633e-10
3.0622e-08
7.28787e-10
3.05182e-08
7.21326e-10
3.04141e-08
7.13956e-10
3.03097e-08
7.06666e-10
3.0205e-08
6.99468e-10
3.01e-08
6.92348e-10
2.99948e-08
6.85324e-10
2.98894e-08
6.78373e-10
2.97839e-08
6.71521e-10
2.96783e-08
6.64738e-10
2.95727e-08
6.58058e-10
2.94669e-08
6.51442e-10
2.93612e-08
6.44934e-10
2.92555e-08
6.38482e-10
2.91499e-08
6.32144e-10
2.90443e-08
6.25854e-10
2.89388e-08
6.19686e-10
2.88335e-08
6.13556e-10
2.87282e-08
6.07557e-10
2.86232e-08
6.01583e-10
2.85183e-08
5.95752e-10
2.84137e-08
5.8993e-10
2.83092e-08
5.84267e-10
2.82051e-08
5.78594e-10
2.81011e-08
5.73098e-10
2.79975e-08
5.6757e-10
2.78941e-08
5.62241e-10
2.77911e-08
5.56852e-10
2.76884e-08
5.51691e-10
2.7586e-08
5.46436e-10
2.74839e-08
5.41444e-10
2.73822e-08
5.36318e-10
2.72808e-08
5.31498e-10
2.71799e-08
5.26494e-10
2.70793e-08
5.21849e-10
2.69791e-08
5.1696e-10
2.68792e-08
5.12494e-10
2.67799e-08
5.07714e-10
2.66808e-08
5.03434e-10
2.65823e-08
4.98753e-10
2.6484e-08
4.94667e-10
2.63863e-08
4.90077e-10
2.62889e-08
4.86196e-10
2.61921e-08
4.81687e-10
2.60955e-08
4.78025e-10
2.59996e-08
4.73584e-10
2.59038e-08
4.70158e-10
2.58087e-08
4.65773e-10
2.57138e-08
4.62604e-10
2.56196e-08
4.58262e-10
2.55255e-08
4.55375e-10
2.54322e-08
4.51062e-10
2.53389e-08
4.48487e-10
2.52465e-08
4.44188e-10
2.5154e-08
4.41959e-10
2.50625e-08
4.37662e-10
2.49707e-08
4.3582e-10
2.488e-08
4.31516e-10
2.4789e-08
4.30103e-10
2.46991e-08
4.25797e-10
2.46088e-08
4.24854e-10
2.45196e-08
4.20571e-10
2.44299e-08
4.20137e-10
2.43414e-08
4.15946e-10
2.42524e-08
4.16054e-10
2.41645e-08
4.12111e-10
2.40759e-08
4.12814e-10
2.39886e-08
4.09441e-10
2.39005e-08
4.10828e-10
4.08394e-10
3.40768e-08
1.53926e-09
-3.4022e-08
3.41581e-08
1.70708e-09
3.42656e-08
1.85114e-09
3.43945e-08
1.97722e-09
3.45324e-08
2.07195e-09
3.46655e-08
2.12501e-09
3.47857e-08
2.13719e-09
3.48906e-08
2.11759e-09
3.49801e-08
2.07715e-09
3.50544e-08
2.02424e-09
3.51139e-08
1.96431e-09
3.51599e-08
1.90142e-09
3.51949e-08
1.83909e-09
3.52214e-08
1.78001e-09
3.52417e-08
1.72564e-09
3.52574e-08
1.67626e-09
3.52696e-08
1.63145e-09
3.52789e-08
1.59061e-09
3.52861e-08
1.55317e-09
3.52914e-08
1.51868e-09
3.52952e-08
1.48677e-09
3.52976e-08
1.45712e-09
3.52988e-08
1.42949e-09
3.52988e-08