/*--------------------------------*- C++ -*----------------------------------*\
| =========                 |                                                 |
| \\      /  F ield         | OpenFOAM: The Open Source CFD Toolbox           |
|  \\    /   O peration     | Version:  2.3.0                                 |
|   \\  /    A nd           | Web:      www.OpenFOAM.org                      |
|    \\/     M anipulation  |                                                 |
\*---------------------------------------------------------------------------*/
FoamFile
{
    version     2.0;
    format      ascii;
    class       surfaceScalarField;
    location    "0.95";
    object      phi_0;
}
// * * * * * * * * * * * * * * * * * * * * * * * * * * * * * * * * * * * * * //

dimensions      [0 3 -1 0 0 0 0];

internalField   nonuniform List<scalar> 
11667
(
2.25812e-08
2.21215e-09
-2.47934e-08
1.98971e-08
2.68413e-09
1.72283e-08
2.66882e-09
1.47754e-08
2.45289e-09
1.25728e-08
2.20264e-09
1.06656e-08
1.90719e-09
9.10107e-09
1.56449e-09
7.87988e-09
1.22119e-09
6.96854e-09
9.11344e-10
6.30783e-09
6.60713e-10
5.83269e-09
4.75131e-10
5.48608e-09
3.46617e-10
5.22393e-09
2.62146e-10
5.01496e-09
2.08975e-10
4.83817e-09
1.76783e-10
4.68087e-09
1.57299e-10
4.53627e-09
1.44603e-10
4.4012e-09
1.35075e-10
4.27436e-09
1.2684e-10
4.15525e-09
1.19107e-10
4.04359e-09
1.11654e-10
3.9391e-09
1.045e-10
3.84136e-09
9.77338e-11
3.74992e-09
9.14388e-11
3.66426e-09
8.5661e-11
3.58385e-09
8.04076e-11
3.5082e-09
7.56557e-11
3.43683e-09
7.13649e-11
3.36935e-09
6.74869e-11
3.30537e-09
6.39724e-11
3.2446e-09
6.07751e-11
3.18674e-09
5.7854e-11
3.13157e-09
5.51732e-11
3.07887e-09
5.27028e-11
3.02845e-09
5.04172e-11
2.98016e-09
4.82956e-11
2.93384e-09
4.632e-11
2.88936e-09
4.44757e-11
2.84661e-09
4.27497e-11
2.80548e-09
4.11314e-11
2.76587e-09
3.9611e-11
2.72769e-09
3.81807e-11
2.69086e-09
3.68326e-11
2.65529e-09
3.55607e-11
2.62094e-09
3.43587e-11
2.58771e-09
3.32217e-11
2.55557e-09
3.21444e-11
2.52445e-09
3.11231e-11
2.49429e-09
3.01532e-11
2.46506e-09
2.92316e-11
2.43671e-09
2.83546e-11
2.40919e-09
2.75196e-11
2.38246e-09
2.67234e-11
2.3565e-09
2.5964e-11
2.33126e-09
2.52386e-11
2.30672e-09
2.45456e-11
2.28283e-09
2.38824e-11
2.25959e-09
2.32479e-11
2.23695e-09
2.26398e-11
2.21489e-09
2.20573e-11
2.19339e-09
2.14981e-11
2.17243e-09
2.0962e-11
2.15198e-09
2.04465e-11
2.13203e-09
1.99518e-11
2.11255e-09
1.94755e-11
2.09354e-09
1.90182e-11
2.07496e-09
1.85771e-11
2.05681e-09
1.81534e-11
2.03906e-09
1.77441e-11
2.02171e-09
1.73509e-11
2.00474e-09
1.69704e-11
1.98814e-09
1.66048e-11
1.97189e-09
1.62505e-11
1.95598e-09
1.59102e-11
1.9404e-09
1.55796e-11
1.92513e-09
1.52623e-11
1.91018e-09
1.49535e-11
1.89552e-09
1.46573e-11
1.88115e-09
1.43682e-11
1.86706e-09
1.40914e-11
1.85324e-09
1.38204e-11
1.83968e-09
1.35615e-11
1.82637e-09
1.3307e-11
1.81331e-09
1.30647e-11
1.80048e-09
1.28254e-11
1.78789e-09
1.25984e-11
1.77551e-09
1.23729e-11
1.76335e-09
1.21601e-11
1.75141e-09
1.19473e-11
1.73966e-09
1.17479e-11
1.72811e-09
1.15467e-11
1.71675e-09
1.13598e-11
1.70558e-09
1.11692e-11
1.69459e-09
1.09941e-11
1.68377e-09
1.08131e-11
1.67313e-09
1.06492e-11
1.66265e-09
1.04769e-11
1.65232e-09
1.03236e-11
1.64217e-09
1.01592e-11
1.63215e-09
1.00161e-11
1.62229e-09
9.85862e-12
1.61257e-09
9.72556e-12
1.60299e-09
9.57415e-12
1.59354e-09
9.45091e-12
1.58424e-09
9.30474e-12
1.57504e-09
9.19121e-12
1.56599e-09
9.04935e-12
1.55705e-09
8.94561e-12
1.54824e-09
8.80715e-12
1.53953e-09
8.71342e-12
1.53095e-09
8.57732e-12
1.52246e-09
8.49396e-12
1.5141e-09
8.35914e-12
1.50581e-09
8.28676e-12
1.49766e-09
8.15198e-12
1.48957e-09
8.09135e-12
1.48161e-09
7.95518e-12
1.47371e-09
7.9074e-12
1.46594e-09
7.76824e-12
1.4582e-09
7.73471e-12
1.45061e-09
7.59063e-12
1.44304e-09
7.57315e-12
1.43562e-09
7.42192e-12
1.42819e-09
7.4228e-12
1.42093e-09
7.26168e-12
1.41365e-09
7.28381e-12
1.40654e-09
7.10953e-12
1.39938e-09
7.1566e-12
1.39242e-09
6.96508e-12
1.38538e-09
7.04173e-12
1.37855e-09
6.82794e-12
1.37161e-09
6.94012e-12
1.36491e-09
6.69773e-12
1.35806e-09
6.85301e-12
1.35148e-09
6.57402e-12
1.3447e-09
6.78219e-12
1.33824e-09
6.45629e-12
1.33151e-09
6.73014e-12
1.32517e-09
6.34387e-12
1.31847e-09
6.70047e-12
1.31223e-09
6.23586e-12
1.30554e-09
6.69856e-12
1.2994e-09
6.13104e-12
1.29267e-09
6.7333e-12
1.28664e-09
6.02816e-12
1.27982e-09
6.82245e-12
1.27389e-09
5.92966e-12
1.26686e-09
7.02666e-12
1.26095e-09
5.9167e-12
8.5954e-12
2.68329e-08
1.97274e-09
-2.65935e-08
2.67182e-08
2.79886e-09
2.62053e-08
3.18174e-09
2.54548e-08
3.20339e-09
2.45669e-08
3.09053e-09
2.35726e-08
2.90149e-09
2.24976e-08
2.63943e-09
2.13943e-08
2.3245e-09
2.03134e-08
1.99231e-09
1.92915e-08
1.68261e-09
1.83473e-08
1.41928e-09
1.74866e-08
1.20737e-09
1.67086e-08
1.04014e-09
1.601e-08
9.07553e-10
1.53834e-08
8.03343e-10
1.48203e-08
7.20472e-10
1.43119e-08
6.52949e-10
1.38506e-08
5.96371e-10
1.34297e-08
5.47792e-10
1.30434e-08
5.05325e-10
1.26873e-08
4.67769e-10
1.23575e-08
4.34329e-10
1.20508e-08
4.04439e-10
1.17646e-08
3.77668e-10
1.14966e-08
3.53658e-10
1.12449e-08
3.32089e-10
1.10079e-08
3.1267e-10
1.07841e-08
2.95139e-10
1.05723e-08
2.7926e-10
1.03715e-08
2.64824e-10
1.01806e-08
2.5165e-10
9.99887e-09
2.39582e-10
9.82556e-09
2.28486e-10
9.66002e-09
2.18248e-10
9.50166e-09
2.08772e-10
9.34998e-09
1.99974e-10
9.20452e-09
1.91784e-10
9.06485e-09
1.84142e-10
8.93061e-09
1.76995e-10
8.80144e-09
1.70299e-10
8.67704e-09
1.64013e-10
8.55712e-09
1.58101e-10
8.44142e-09
1.52534e-10
8.3297e-09
1.47283e-10
8.22173e-09
1.42322e-10
8.11732e-09
1.37631e-10
8.01628e-09
1.33187e-10
7.91843e-09
1.28975e-10
7.82361e-09
1.24975e-10
7.73166e-09
1.21175e-10
7.64246e-09
1.17559e-10
7.55586e-09
1.14115e-10
7.47175e-09
1.10832e-10
7.39002e-09
1.077e-10
7.31055e-09
1.04708e-10
7.23324e-09
1.0185e-10
7.15801e-09
9.91139e-11
7.08476e-09
9.64959e-11
7.01342e-09
9.39867e-11
6.94389e-09
9.15823e-11
6.87612e-09
8.92743e-11
6.81002e-09
8.70601e-11
6.74553e-09
8.49317e-11
6.6826e-09
8.28877e-11
6.62115e-09
8.09202e-11
6.56114e-09
7.90291e-11
6.50251e-09
7.72063e-11
6.44521e-09
7.54531e-11
6.3892e-09
7.3761e-11
6.33441e-09
7.21325e-11
6.28083e-09
7.05587e-11
6.22839e-09
6.90435e-11
6.17706e-09
6.75771e-11
6.12681e-09
6.6165e-11
6.07759e-09
6.47965e-11
6.02937e-09
6.34786e-11
5.98213e-09
6.21992e-11
5.93582e-09
6.09675e-11
5.89042e-09
5.97697e-11
5.84589e-09
5.86171e-11
5.80222e-09
5.7494e-11
5.75936e-09
5.64142e-11
5.71731e-09
5.53596e-11
5.67603e-09
5.43471e-11
5.6355e-09
5.33554e-11
5.59569e-09
5.2405e-11
5.55659e-09
5.14711e-11
5.51818e-09
5.05784e-11
5.48042e-09
4.96976e-11
5.44331e-09
4.88585e-11
5.40683e-09
4.80266e-11
5.37096e-09
4.72377e-11
5.33568e-09
4.64508e-11
5.30096e-09
4.57086e-11
5.26681e-09
4.4963e-11
5.2332e-09
4.42648e-11
5.20011e-09
4.35571e-11
5.16754e-09
4.29006e-11
5.13547e-09
4.22276e-11
5.10387e-09
4.16106e-11
5.07276e-09
4.09691e-11
5.0421e-09
4.03898e-11
5.0119e-09
3.9777e-11
4.98211e-09
3.9234e-11
4.95277e-09
3.86471e-11
4.92382e-09
3.81392e-11
4.8953e-09
3.75752e-11
4.86714e-09
3.71019e-11
4.83939e-09
3.6558e-11
4.81199e-09
3.61188e-11
4.78497e-09
3.55922e-11
4.75828e-09
3.51873e-11
4.73196e-09
3.46748e-11
4.70594e-09
3.43048e-11
4.68029e-09
3.38033e-11
4.65491e-09
3.34692e-11
4.62989e-09
3.29751e-11
4.60512e-09
3.26789e-11
4.5807e-09
3.21884e-11
4.55651e-09
3.19325e-11
4.53265e-09
3.14411e-11
4.509e-09
3.12289e-11
4.48569e-09
3.07318e-11
4.46254e-09
3.05678e-11
4.43975e-09
3.00589e-11
4.41708e-09
2.99489e-11
4.39477e-09
2.94215e-11
4.37255e-09
2.93729e-11
4.3507e-09
2.88186e-11
4.3289e-09
2.88407e-11
4.30748e-09
2.82495e-11
4.28607e-09
2.83542e-11
4.26505e-09
2.77138e-11
4.24399e-09
2.79163e-11
4.22335e-09
2.72116e-11
4.2026e-09
2.75311e-11
4.18231e-09
2.67431e-11
4.16184e-09
2.72042e-11
4.14187e-09
2.63093e-11
4.12163e-09
2.69438e-11
4.10195e-09
2.59122e-11
4.08189e-09
2.67615e-11
4.06247e-09
2.55561e-11
4.04252e-09
2.66753e-11
4.0233e-09
2.52521e-11
4.0034e-09
2.67192e-11
3.98429e-09
2.50399e-11
3.96429e-09
2.70259e-11
3.94495e-09
2.52594e-11
2.9704e-11
2.78631e-08
1.86001e-09
-2.77503e-08
2.81732e-08
2.48871e-09
2.83963e-08
2.95868e-09
2.84643e-08
3.13539e-09
2.84203e-08
3.13452e-09
2.82719e-08
3.04991e-09
2.80082e-08
2.90312e-09
2.76347e-08
2.698e-09
2.71732e-08
2.45382e-09
2.66529e-08
2.20291e-09
2.60995e-08
1.97267e-09
2.55314e-08
1.77544e-09
2.49608e-08
1.61077e-09
2.43952e-08
1.47313e-09
2.38407e-08
1.3578e-09
2.33012e-08
1.26004e-09
2.27786e-08
1.17554e-09
2.2274e-08
1.10094e-09
2.17879e-08
1.03387e-09
2.13205e-08
9.7278e-10
2.08715e-08
9.16711e-10
2.04408e-08
8.65035e-10
2.0028e-08
8.17309e-10
1.96324e-08
7.73215e-10
1.92536e-08
7.32481e-10
1.88908e-08
6.94851e-10
1.85434e-08
6.60081e-10
1.82106e-08
6.27934e-10
1.78917e-08
5.98182e-10
1.75859e-08
5.70614e-10
1.72925e-08
5.45032e-10
1.70109e-08
5.21253e-10
1.67402e-08
4.99114e-10
1.648e-08
4.78467e-10
1.62296e-08
4.59176e-10
1.59885e-08
4.41124e-10
1.5756e-08
4.24202e-10
1.55319e-08
4.08316e-10
1.53155e-08
3.93379e-10
1.51065e-08
3.79313e-10
1.49044e-08
3.6605e-10
1.4709e-08
3.53527e-10
1.45198e-08
3.41686e-10
1.43367e-08
3.30478e-10
1.41591e-08
3.19855e-10
1.3987e-08
3.09776e-10
1.382e-08
3.00201e-10
1.36578e-08
2.91097e-10
1.35004e-08
2.8243e-10
1.33474e-08
2.74173e-10
1.31986e-08
2.66298e-10
1.3054e-08
2.58782e-10
1.29132e-08
2.51599e-10
1.27762e-08
2.44733e-10
1.26427e-08
2.38162e-10
1.25127e-08
2.3187e-10
1.2386e-08
2.25838e-10
1.22624e-08
2.20056e-10
1.21419e-08
2.14505e-10
1.20243e-08
2.09177e-10
1.19095e-08
2.04055e-10
1.17975e-08
1.99133e-10
1.1688e-08
1.94396e-10
1.1581e-08
1.89839e-10
1.14765e-08
1.85449e-10
1.13743e-08
1.81222e-10
1.12744e-08
1.77143e-10
1.11766e-08
1.73214e-10
1.1081e-08
1.6942e-10
1.09873e-08
1.65761e-10
1.08957e-08
1.62224e-10
1.08059e-08
1.58812e-10
1.0718e-08
1.5551e-10
1.06318e-08
1.52323e-10
1.05474e-08
1.49234e-10
1.04646e-08
1.46253e-10
1.03834e-08
1.43361e-10
1.03038e-08
1.40569e-10
1.02257e-08
1.37856e-10
1.01491e-08
1.35238e-10
1.00739e-08
1.32691e-10
1.00001e-08
1.30233e-10
9.92763e-09
1.27837e-10
9.85645e-09
1.25528e-10
9.78654e-09
1.23272e-10
9.71784e-09
1.211e-10
9.65034e-09
1.18973e-10
9.58399e-09
1.16928e-10
9.51876e-09
1.14921e-10
9.45463e-09
1.12994e-10
9.39156e-09
1.11097e-10
9.32951e-09
1.09281e-10
9.26848e-09
1.07486e-10
9.20842e-09
1.05773e-10
9.14931e-09
1.04071e-10
9.09112e-09
1.02455e-10
9.03383e-09
1.00841e-10
8.97742e-09
9.93156e-11
8.92187e-09
9.77813e-11
8.86713e-09
9.63423e-11
8.81322e-09
9.48818e-11
8.76009e-09
9.35244e-11
8.70773e-09
9.21319e-11
8.65611e-09
9.08524e-11
8.60524e-09
8.95222e-11
8.55506e-09
8.83173e-11
8.50559e-09
8.70439e-11
8.45678e-09
8.5911e-11
8.40865e-09
8.46891e-11
8.36114e-09
8.36264e-11
8.31428e-09
8.24507e-11
8.26801e-09
8.1457e-11
8.22237e-09
8.03223e-11
8.17727e-09
7.93972e-11
8.13278e-09
7.82981e-11
8.08881e-09
7.74419e-11
8.04541e-09
7.63727e-11
8.0025e-09
7.55868e-11
7.96015e-09
7.45417e-11
7.91825e-09
7.38284e-11
7.87689e-09
7.28009e-11
7.83596e-09
7.21639e-11
7.79554e-09
7.11471e-11
7.75552e-09
7.05913e-11
7.716e-09
6.95775e-11
7.67684e-09
6.91096e-11
7.63817e-09
6.809e-11
7.59983e-09
6.77187e-11
7.56196e-09
6.6683e-11
7.52438e-09
6.64193e-11
7.48728e-09
6.5356e-11
7.45042e-09
6.52138e-11
7.41402e-09
6.41092e-11
7.37783e-09
6.41059e-11
7.3421e-09
6.29441e-11
7.30653e-09
6.31014e-11
7.27141e-09
6.18638e-11
7.2364e-09
6.22081e-11
7.20184e-09
6.08738e-11
7.16735e-09
6.14373e-11
7.13328e-09
5.99835e-11
7.09923e-09
6.08047e-11
7.06558e-09
5.92101e-11
7.03192e-09
6.03341e-11
6.99858e-09
5.85875e-11
6.96523e-09
6.0073e-11
6.93207e-09
5.82038e-11
6.89884e-09
6.02528e-11
6.86553e-09
5.85732e-11
6.32575e-11
2.88738e-08
1.81452e-09
-2.88283e-08
2.91e-08
2.26251e-09
2.93919e-08
2.66679e-09
2.96334e-08
2.89388e-09
2.98166e-08
2.95126e-09
2.99509e-08
2.91565e-09
3.00271e-08
2.82697e-09
3.00316e-08
2.69341e-09
2.99614e-08
2.52409e-09
2.98258e-08
2.33853e-09
2.96397e-08
2.1587e-09
2.94169e-08
1.9983e-09
2.91666e-08
1.86104e-09
2.88951e-08
1.7446e-09
2.86077e-08
1.64521e-09
2.83084e-08
1.55931e-09
2.80003e-08
1.48371e-09
2.76853e-08
1.41586e-09
2.73654e-08
1.35382e-09
2.70419e-08
1.2963e-09
2.67161e-08
1.24246e-09
2.63894e-08
1.19177e-09
2.60628e-08
1.14391e-09
2.57373e-08
1.09865e-09
2.5414e-08
1.05585e-09
2.50935e-08
1.01534e-09
2.47766e-08
9.77014e-10
2.44638e-08
9.40728e-10
2.41556e-08
9.06359e-10
2.38524e-08
8.73788e-10
2.35545e-08
8.42896e-10
2.32622e-08
8.13578e-10
2.29756e-08
7.85732e-10
2.26948e-08
7.59264e-10
2.24199e-08
7.34088e-10
2.21509e-08
7.10125e-10
2.18878e-08
6.87302e-10
2.16306e-08
6.65551e-10
2.13791e-08
6.44809e-10
2.11334e-08
6.25019e-10
2.08933e-08
6.06125e-10
2.06588e-08
5.88077e-10
2.04297e-08
5.70828e-10
2.02058e-08
5.54334e-10
1.99871e-08
5.38551e-10
1.97734e-08
5.23443e-10
1.95647e-08
5.0897e-10
1.93607e-08
4.95102e-10
1.91613e-08
4.81802e-10
1.89664e-08
4.69043e-10
1.87759e-08
4.56795e-10
1.85897e-08
4.45032e-10
1.84075e-08
4.33728e-10
1.82294e-08
4.22862e-10
1.80552e-08
4.12408e-10
1.78847e-08
4.0235e-10
1.77179e-08
3.92663e-10
1.75546e-08
3.83335e-10
1.73947e-08
3.74343e-10
1.72382e-08
3.65675e-10
1.7085e-08
3.57313e-10
1.69349e-08
3.49247e-10
1.67878e-08
3.41457e-10
1.66437e-08
3.33937e-10
1.65025e-08
3.26669e-10
1.63641e-08
3.19649e-10
1.62284e-08
3.12857e-10
1.60953e-08
3.06294e-10
1.59648e-08
2.99939e-10
1.58367e-08
2.93795e-10
1.57111e-08
2.8784e-10
1.55878e-08
2.8208e-10
1.54669e-08
2.76494e-10
1.53481e-08
2.71089e-10
1.52315e-08
2.65841e-10
1.5117e-08
2.60762e-10
1.50045e-08
2.55827e-10
1.4894e-08
2.51051e-10
1.47855e-08
2.46405e-10
1.46788e-08
2.41908e-10
1.4574e-08
2.37529e-10
1.44709e-08
2.33292e-10
1.43696e-08
2.2916e-10
1.427e-08
2.25164e-10
1.4172e-08
2.21261e-10
1.40756e-08
2.17489e-10
1.39807e-08
2.13799e-10
1.38874e-08
2.10236e-10
1.37956e-08
2.06744e-10
1.37052e-08
2.03377e-10
1.36163e-08
2.00068e-10
1.35287e-08
1.96883e-10
1.34424e-08
1.93745e-10
1.33574e-08
1.90732e-10
1.32738e-08
1.87753e-10
1.31913e-08
1.849e-10
1.31101e-08
1.82069e-10
1.303e-08
1.79367e-10
1.29511e-08
1.76673e-10
1.28734e-08
1.74114e-10
1.27967e-08
1.71548e-10
1.27211e-08
1.69125e-10
1.26466e-08
1.66677e-10
1.2573e-08
1.64382e-10
1.25005e-08
1.62045e-10
1.2429e-08
1.59873e-10
1.23584e-08
1.57637e-10
1.22887e-08
1.55583e-10
1.22199e-08
1.53441e-10
1.21521e-08
1.515e-10
1.20851e-08
1.49445e-10
1.20189e-08
1.47615e-10
1.19536e-08
1.45638e-10
1.18891e-08
1.43916e-10
1.18254e-08
1.42011e-10
1.17624e-08
1.40396e-10
1.17002e-08
1.38555e-10
1.16388e-08
1.37046e-10
1.1578e-08
1.35263e-10
1.1518e-08
1.33862e-10
1.14587e-08
1.32128e-10
1.14e-08
1.30836e-10
1.1342e-08
1.29145e-10
1.12846e-08
1.27966e-10
1.12279e-08
1.26309e-10
1.11718e-08
1.25249e-10
1.11162e-08
1.23617e-10
1.10613e-08
1.22683e-10
1.10069e-08
1.21068e-10
1.0953e-08
1.20268e-10
1.08997e-08
1.1866e-10
1.08469e-08
1.18007e-10
1.07947e-08
1.16396e-10
1.07429e-08
1.15903e-10
1.06915e-08
1.14279e-10
1.06407e-08
1.13963e-10
1.05902e-08
1.12317e-10
1.05402e-08
1.12196e-10
1.04906e-08
1.10521e-10
1.04414e-08
1.10617e-10
1.03925e-08
1.08911e-10
1.0344e-08
1.09245e-10
1.02957e-08
1.07517e-10
1.02479e-08
1.08113e-10
1.02001e-08
1.06392e-10
1.01529e-08
1.07297e-10
1.01055e-08
1.05653e-10
1.00586e-08
1.07142e-10
1.00113e-08
1.05887e-10
1.09835e-10
2.99024e-08
1.76616e-09
-2.98541e-08
3.00588e-08
2.10612e-09
3.02993e-08
2.42631e-09
3.0542e-08
2.65121e-09
3.07508e-08
2.74242e-09
3.09293e-08
2.73716e-09
3.10794e-08
2.67691e-09
3.11923e-08
2.58052e-09
3.12599e-08
2.45652e-09
3.12821e-08
2.31629e-09
3.12662e-08
2.17462e-09
3.12208e-08
2.04366e-09
3.11526e-08
1.92927e-09
3.10657e-08
1.83149e-09
3.09632e-08
1.74771e-09
3.08474e-08
1.6751e-09
3.072e-08
1.61116e-09
3.05819e-08
1.55387e-09
3.04341e-08
1.50165e-09
3.02771e-08
1.4533e-09
3.01115e-08
1.40803e-09
2.9938e-08
1.36531e-09
2.97572e-08
1.32476e-09
2.95697e-08
1.28616e-09
2.93762e-08
1.24932e-09
2.91774e-08
1.21412e-09
2.8974e-08
1.18043e-09
2.87666e-08
1.14816e-09
2.85557e-08
1.1172e-09
2.8342e-08
1.08746e-09
2.81261e-08
1.05886e-09
2.79083e-08
1.03134e-09
2.76892e-08
1.00481e-09
2.74693e-08
9.79234e-10
2.72488e-08
9.54544e-10
2.70282e-08
9.30698e-10
2.68079e-08
9.07654e-10
2.65881e-08
8.85374e-10
2.6369e-08
8.63824e-10
2.61511e-08
8.42973e-10
2.59344e-08
8.22793e-10
2.57192e-08
8.03257e-10
2.55057e-08
7.8434e-10
2.5294e-08
7.66021e-10
2.50843e-08
7.48275e-10
2.48767e-08
7.31084e-10
2.46712e-08
7.14425e-10
2.4468e-08
6.98283e-10
2.42672e-08
6.82636e-10
2.40688e-08
6.6747e-10
2.38728e-08
6.52765e-10
2.36793e-08
6.38508e-10
2.34884e-08
6.2468e-10
2.33e-08
6.1127e-10
2.31141e-08
5.9826e-10
2.29308e-08
5.85639e-10
2.27501e-08
5.7339e-10
2.25719e-08
5.61506e-10
2.23963e-08
5.49967e-10
2.22232e-08
5.38769e-10
2.20526e-08
5.27893e-10
2.18846e-08
5.17335e-10
2.17189e-08
5.07077e-10
2.15558e-08
4.97117e-10
2.1395e-08
4.87436e-10
2.12366e-08
4.78035e-10
2.10806e-08
4.68892e-10
2.09268e-08
4.60012e-10
2.07754e-08
4.51373e-10
2.06262e-08
4.42981e-10
2.04793e-08
4.34813e-10
2.03345e-08
4.26876e-10
2.01918e-08
4.19148e-10
2.00513e-08
4.11639e-10
1.99128e-08
4.04322e-10
1.97763e-08
3.97213e-10
1.96419e-08
3.90282e-10
1.95094e-08
3.83548e-10
1.93788e-08
3.76978e-10
1.92501e-08
3.70595e-10
1.91233e-08
3.64363e-10
1.89983e-08
3.58311e-10
1.8875e-08
3.52396e-10
1.87535e-08
3.46653e-10
1.86338e-08
3.41036e-10
1.85157e-08
3.35585e-10
1.83992e-08
3.30247e-10
1.82844e-08
3.2507e-10
1.81711e-08
3.19993e-10
1.80594e-08
3.15075e-10
1.79493e-08
3.10244e-10
1.78406e-08
3.05569e-10
1.77333e-08
3.00969e-10
1.76276e-08
2.96523e-10
1.75232e-08
2.9214e-10
1.74202e-08
2.87911e-10
1.73185e-08
2.83731e-10
1.72182e-08
2.79708e-10
1.71191e-08
2.75718e-10
1.70213e-08
2.7189e-10
1.69248e-08
2.6808e-10
1.68295e-08
2.64437e-10
1.67354e-08
2.60794e-10
1.66424e-08
2.57327e-10
1.65506e-08
2.53843e-10
1.646e-08
2.50544e-10
1.63704e-08
2.47207e-10
1.62819e-08
2.44069e-10
1.61945e-08
2.40871e-10
1.61081e-08
2.37887e-10
1.60227e-08
2.34819e-10
1.59383e-08
2.31984e-10
1.58549e-08
2.29037e-10
1.57725e-08
2.26347e-10
1.5691e-08
2.23514e-10
1.56104e-08
2.20965e-10
1.55308e-08
2.18237e-10
1.5452e-08
2.15827e-10
1.5374e-08
2.13198e-10
1.5297e-08
2.10925e-10
1.52207e-08
2.08387e-10
1.51453e-08
2.0625e-10
1.50707e-08
2.03798e-10
1.49968e-08
2.01798e-10
1.49237e-08
1.99425e-10
1.48514e-08
1.97564e-10
1.47797e-08
1.95265e-10
1.47089e-08
1.93546e-10
1.46386e-08
1.91317e-10
1.45692e-08
1.89742e-10
1.45002e-08
1.87579e-10
1.44321e-08
1.86155e-10
1.43644e-08
1.84057e-10
1.42975e-08
1.82789e-10
1.42311e-08
1.80758e-10
1.41654e-08
1.79652e-10
1.41e-08
1.77692e-10
1.40354e-08
1.76754e-10
1.39711e-08
1.74879e-10
1.39076e-08
1.74114e-10
1.38441e-08
1.72346e-10
1.37816e-08
1.71759e-10
1.3719e-08
1.70132e-10
1.36574e-08
1.6974e-10
1.35955e-08
1.68301e-10
1.35346e-08
1.68171e-10
1.34733e-08
1.66991e-10
1.34129e-08
1.67474e-10
1.3352e-08
1.66812e-10
1.69379e-10
3.09301e-08
1.71036e-09
-3.08743e-08
3.10525e-08
1.9837e-09
3.12421e-08
2.23669e-09
3.14549e-08
2.43843e-09
3.16518e-08
2.5455e-09
3.1824e-08
2.56499e-09
3.19741e-08
2.52678e-09
3.21004e-08
2.45426e-09
3.21977e-08
2.3592e-09
3.22642e-08
2.2498e-09
3.23032e-08
2.13564e-09
3.23206e-08
2.02626e-09
3.23219e-08
1.92793e-09
3.23109e-08
1.84248e-09
3.22899e-08
1.76872e-09
3.22604e-08
1.70457e-09
3.22235e-08
1.64809e-09
3.21797e-08
1.59768e-09
3.21293e-08
1.55205e-09
3.20724e-08
1.51019e-09
3.20091e-08
1.47137e-09
3.19393e-08
1.43505e-09
3.18633e-08
1.40083e-09
3.1781e-08
1.36844e-09
3.16926e-08
1.33767e-09
3.15984e-08
1.30835e-09
3.14985e-08
1.28034e-09
3.13931e-08
1.25352e-09
3.12826e-08
1.22778e-09
3.1167e-08
1.20302e-09
3.10467e-08
1.17914e-09
3.0922e-08
1.15608e-09
3.0793e-08
1.13376e-09
3.06602e-08
1.11211e-09
3.05236e-08
1.0911e-09
3.03836e-08
1.07066e-09
3.02405e-08
1.05077e-09
3.00945e-08
1.03139e-09
2.99458e-08
1.01248e-09
2.97948e-08
9.94032e-10
2.96416e-08
9.76011e-10
2.94864e-08
9.58401e-10
2.93296e-08
9.41186e-10
2.91712e-08
9.24352e-10
2.90116e-08
9.07884e-10
2.88509e-08
8.91772e-10
2.86894e-08
8.76004e-10
2.85271e-08
8.60571e-10
2.83643e-08
8.45464e-10
2.8201e-08
8.30677e-10
2.80376e-08
8.16198e-10
2.78741e-08
8.02025e-10
2.77106e-08
7.88147e-10
2.75473e-08
7.74563e-10
2.73843e-08
7.61261e-10
2.72217e-08
7.4824e-10
2.70596e-08
7.35491e-10
2.68981e-08
7.23014e-10
2.67373e-08
7.10797e-10
2.65772e-08
6.98842e-10
2.6418e-08
6.87136e-10
2.62596e-08
6.75684e-10
2.61022e-08
6.64471e-10
2.59459e-08
6.53502e-10
2.57905e-08
6.42762e-10
2.56363e-08
6.32259e-10
2.54832e-08
6.21975e-10
2.53313e-08
6.11918e-10
2.51806e-08
6.02072e-10
2.50312e-08
5.92445e-10
2.48829e-08
5.83018e-10
2.4736e-08
5.73804e-10
2.45904e-08
5.6478e-10
2.44461e-08
5.55962e-10
2.43031e-08
5.47324e-10
2.41614e-08
5.38885e-10
2.40211e-08
5.30617e-10
2.38821e-08
5.22541e-10
2.37444e-08
5.14627e-10
2.36081e-08
5.06898e-10
2.34732e-08
4.99322e-10
2.33395e-08
4.91926e-10
2.32073e-08
4.84673e-10
2.30763e-08
4.77596e-10
2.29467e-08
4.70651e-10
2.28184e-08
4.63878e-10
2.26914e-08
4.57227e-10
2.25658e-08
4.50744e-10
2.24414e-08
4.44374e-10
2.23183e-08
4.38169e-10
2.21965e-08
4.32066e-10
2.20759e-08
4.26126e-10
2.19566e-08
4.20278e-10
2.18385e-08
4.1459e-10
2.17217e-08
4.08986e-10
2.1606e-08
4.03539e-10
2.14916e-08
3.98166e-10
2.13784e-08
3.92951e-10
2.12663e-08
3.87797e-10
2.11554e-08
3.82802e-10
2.10456e-08
3.77858e-10
2.0937e-08
3.73074e-10
2.08294e-08
3.68329e-10
2.0723e-08
3.63748e-10
2.06177e-08
3.59192e-10
2.05134e-08
3.54804e-10
2.04102e-08
3.50429e-10
2.0308e-08
3.46227e-10
2.02069e-08
3.42024e-10
2.01068e-08
3.38001e-10
2.00076e-08
3.33962e-10
1.99095e-08
3.30111e-10
1.98123e-08
3.26229e-10
1.97161e-08
3.22543e-10
1.96208e-08
3.18812e-10
1.95265e-08
3.15287e-10
1.9433e-08
3.11701e-10
1.93405e-08
3.0833e-10
1.92488e-08
3.04884e-10
1.91581e-08
3.01664e-10
1.90681e-08
2.98355e-10
1.89791e-08
2.95281e-10
1.88908e-08
2.92105e-10
1.88034e-08
2.89175e-10
1.87167e-08
2.86131e-10
1.86309e-08
2.83341e-10
1.85458e-08
2.80431e-10
1.84615e-08
2.77777e-10
1.83778e-08
2.75002e-10
1.82951e-08
2.72482e-10
1.82128e-08
2.6985e-10
1.81315e-08
2.6746e-10
1.80506e-08
2.64979e-10
1.79707e-08
2.62715e-10
1.7891e-08
2.60402e-10
1.78124e-08
2.58257e-10
1.7734e-08
2.56134e-10
1.76566e-08
2.54104e-10
1.75793e-08
2.52198e-10
1.75031e-08
2.50278e-10
1.74269e-08
2.4863e-10
1.73518e-08
2.4682e-10
1.72765e-08
2.45474e-10
1.72024e-08
2.43802e-10
1.71279e-08
2.42803e-10
1.70547e-08
2.41373e-10
1.69809e-08
2.40779e-10
1.69084e-08
2.39975e-10
1.68352e-08
2.39988e-10
2.40833e-10
3.19644e-08
1.65175e-09
-3.19058e-08
3.20684e-08
1.87969e-09
3.22205e-08
2.08458e-09
3.24009e-08
2.25807e-09
3.2579e-08
2.36742e-09
3.2739e-08
2.405e-09
3.28787e-08
2.38705e-09
3.29986e-08
2.33437e-09
3.3097e-08
2.26083e-09
3.31724e-08
2.17442e-09
3.32261e-08
2.08188e-09
3.32622e-08
1.99014e-09
3.32853e-08
1.90484e-09
3.32991e-08
1.82874e-09
3.33058e-08
1.76196e-09
3.33071e-08
1.70331e-09
3.33038e-08
1.65136e-09
3.32966e-08
1.60485e-09
3.32859e-08
1.5628e-09
3.32717e-08
1.5244e-09
3.3254e-08
1.48901e-09
3.32329e-08
1.45616e-09
3.32083e-08
1.42548e-09
3.318e-08
1.39668e-09
3.31481e-08
1.36955e-09
3.31126e-08
1.3439e-09
3.30733e-08
1.31959e-09
3.30304e-08
1.29648e-09
3.29837e-08
1.27444e-09
3.29334e-08
1.25338e-09
3.28793e-08
1.23319e-09
3.28216e-08
1.21379e-09
3.27603e-08
1.19509e-09
3.26953e-08
1.17703e-09
3.26269e-08
1.15955e-09
3.2555e-08
1.14258e-09
3.24796e-08
1.12609e-09
3.2401e-08
1.11003e-09
3.23191e-08
1.09436e-09
3.22341e-08
1.07905e-09
3.21461e-08
1.06407e-09
3.20551e-08
1.04941e-09
3.19612e-08
1.03503e-09
3.18646e-08
1.02092e-09
3.17655e-08
1.00706e-09
3.16638e-08
9.93447e-10
3.15597e-08
9.80056e-10
3.14534e-08
9.66882e-10
3.1345e-08
9.53912e-10
3.12345e-08
9.41143e-10
3.11221e-08
9.28564e-10
3.1008e-08
9.16172e-10
3.08922e-08
9.03958e-10
3.07748e-08
8.91921e-10
3.0656e-08
8.80054e-10
3.05359e-08
8.68357e-10
3.04146e-08
8.56824e-10
3.02921e-08
8.45455e-10
3.01687e-08
8.34244e-10
3.00443e-08
8.23194e-10
2.99192e-08
8.12298e-10
2.97933e-08
8.0156e-10
2.96668e-08
7.90973e-10
2.95398e-08
7.80542e-10
2.94123e-08
7.70258e-10
2.92844e-08
7.60129e-10
2.91562e-08
7.50144e-10
2.90278e-08
7.40312e-10
2.88993e-08
7.30622e-10
2.87706e-08
7.21084e-10
2.8642e-08
7.11685e-10
2.85133e-08
7.02436e-10
2.83848e-08
6.93323e-10
2.82564e-08
6.84359e-10
2.81282e-08
6.75529e-10
2.80002e-08
6.66846e-10
2.78726e-08
6.58293e-10
2.77452e-08
6.49885e-10
2.76182e-08
6.41605e-10
2.74917e-08
6.33468e-10
2.73655e-08
6.25454e-10
2.72399e-08
6.17582e-10
2.71147e-08
6.0983e-10
2.69901e-08
6.02217e-10
2.6866e-08
5.94721e-10
2.67426e-08
5.87362e-10
2.66197e-08
5.80114e-10
2.64974e-08
5.73002e-10
2.63758e-08
5.65998e-10
2.62548e-08
5.59126e-10
2.61345e-08
5.52358e-10
2.60149e-08
5.4572e-10
2.5896e-08
5.39182e-10
2.57779e-08
5.3277e-10
2.56604e-08
5.26456e-10
2.55437e-08
5.20265e-10
2.54277e-08
5.14168e-10
2.53124e-08
5.0819e-10
2.51979e-08
5.02303e-10
2.50842e-08
4.96531e-10
2.49712e-08
4.90848e-10
2.4859e-08
4.85276e-10
2.47475e-08
4.79792e-10
2.46369e-08
4.74412e-10
2.45269e-08
4.6912e-10
2.44178e-08
4.63926e-10
2.43094e-08
4.58822e-10
2.42018e-08
4.53806e-10
2.4095e-08
4.48885e-10
2.39889e-08
4.44042e-10
2.38836e-08
4.39299e-10
2.37791e-08
4.34622e-10
2.36753e-08
4.30054e-10
2.35723e-08
4.25536e-10
2.34699e-08
4.21141e-10
2.33685e-08
4.16776e-10
2.32676e-08
4.12552e-10
2.31676e-08
4.08333e-10
2.30682e-08
4.0428e-10
2.29697e-08
4.002e-10
2.28717e-08
3.96321e-10
2.27746e-08
3.92372e-10
2.26781e-08
3.88669e-10
2.25824e-08
3.84845e-10
2.24872e-08
3.81325e-10
2.23929e-08
3.77617e-10
2.22991e-08
3.74288e-10
2.22061e-08
3.70687e-10
2.21136e-08
3.67562e-10
2.2022e-08
3.64059e-10
2.19307e-08
3.61153e-10
2.18404e-08
3.57736e-10
2.17503e-08
3.55072e-10
2.16613e-08
3.51729e-10
2.15724e-08
3.49333e-10
2.14846e-08
3.46054e-10
2.13968e-08
3.4396e-10
2.13101e-08
3.40732e-10
2.12234e-08
3.38979e-10
2.11378e-08
3.35798e-10
2.1052e-08
3.34431e-10
2.09676e-08
3.31306e-10
2.08827e-08
3.30369e-10
2.07991e-08
3.27347e-10
2.0715e-08
3.26878e-10
2.06323e-08
3.24098e-10
2.05489e-08
3.24145e-10
2.04669e-08
3.21974e-10
2.03843e-08
3.22686e-10
3.21767e-10
3.3012e-08
1.59408e-09
-3.29543e-08
3.31033e-08
1.78836e-09
3.32293e-08
1.95861e-09
3.33812e-08
2.10613e-09
3.35388e-08
2.20984e-09
3.36857e-08
2.25815e-09
3.38153e-08
2.25738e-09
3.39273e-08
2.22242e-09
3.40215e-08
2.16665e-09
3.40973e-08
2.09855e-09
3.41554e-08
2.02379e-09
3.41981e-08
1.94745e-09
3.42289e-08
1.87404e-09
3.42511e-08
1.80654e-09
3.42671e-08
1.74597e-09
3.42784e-08
1.69196e-09
3.42862e-08
1.6436e-09
3.42911e-08
1.59997e-09
3.42936e-08
1.56031e-09
3.4294e-08
1.52399e-09
3.42925e-08
1.49053e-09
3.42891e-08
1.45953e-09
3.42839e-08
1.43067e-09
3.42769e-08
1.40369e-09
3.4268e-08
1.37839e-09
3.42573e-08
1.3546e-09
3.42448e-08
1.33216e-09
3.42303e-08
1.31096e-09
3.42138e-08
1.29088e-09
3.41954e-08
1.27181e-09
3.4175e-08
1.25365e-09
3.41524e-08
1.23631e-09
3.41278e-08
1.21973e-09
3.4101e-08
1.20382e-09
3.4072e-08
1.18852e-09
3.40408e-08
1.17378e-09
3.40074e-08
1.15954e-09
3.39717e-08
1.14575e-09
3.39337e-08
1.13237e-09
3.38933e-08
1.11937e-09
3.38507e-08
1.10672e-09
3.38057e-08
1.09437e-09
3.37584e-08
1.08231e-09
3.37089e-08
1.07051e-09
3.3657e-08
1.05896e-09
3.36028e-08
1.04762e-09
3.35464e-08
1.03649e-09
3.34877e-08
1.02555e-09
3.34268e-08
1.01478e-09
3.33638e-08
1.00418e-09
3.32986e-08
9.93729e-10
3.32314e-08
9.83424e-10
3.31621e-08
9.73253e-10
3.30908e-08
9.6321e-10
3.30176e-08
9.53288e-10
3.29424e-08
9.43482e-10
3.28655e-08
9.33786e-10
3.27867e-08
9.24197e-10
3.27063e-08
9.14709e-10
3.26241e-08
9.05322e-10
3.25404e-08
8.9603e-10
3.24551e-08
8.86834e-10
3.23684e-08
8.7773e-10
3.22802e-08
8.68717e-10
3.21907e-08
8.59792e-10
3.20998e-08
8.50958e-10
3.20078e-08
8.42209e-10
3.19145e-08
8.33549e-10
3.18202e-08
8.24975e-10
3.17248e-08
8.16487e-10
3.16284e-08
8.08084e-10
3.1531e-08
7.99768e-10
3.14328e-08
7.91537e-10
3.13338e-08
7.83392e-10
3.1234e-08
7.75332e-10
3.11335e-08
7.67357e-10
3.10323e-08
7.5947e-10
3.09305e-08
7.51666e-10
3.08282e-08
7.4395e-10
3.07253e-08
7.36317e-10
3.0622e-08
7.28774e-10
3.05183e-08
7.21312e-10
3.04142e-08
7.13941e-10
3.03097e-08
7.0665e-10
3.0205e-08
6.99453e-10
3.01e-08
6.92332e-10
2.99948e-08
6.85306e-10
2.98895e-08
6.78355e-10
2.9784e-08
6.71502e-10
2.96784e-08
6.64718e-10
2.95727e-08
6.58038e-10
2.9467e-08
6.51421e-10
2.93613e-08
6.44911e-10
2.92556e-08
6.38458e-10
2.91499e-08
6.3212e-10
2.90444e-08
6.25829e-10
2.89389e-08
6.1966e-10
2.88335e-08
6.13529e-10
2.87283e-08
6.07529e-10
2.86233e-08
6.01553e-10
2.85184e-08
5.95721e-10
2.84138e-08
5.89898e-10
2.83093e-08
5.84234e-10
2.82052e-08
5.78559e-10
2.81013e-08
5.73062e-10
2.79977e-08
5.67532e-10
2.78943e-08
5.62202e-10
2.77913e-08
5.56811e-10
2.76885e-08
5.51649e-10
2.75862e-08
5.46392e-10
2.74841e-08
5.41399e-10
2.73824e-08
5.36271e-10
2.7281e-08
5.31449e-10
2.71801e-08
5.26443e-10
2.70794e-08
5.21796e-10
2.69793e-08
5.16905e-10
2.68794e-08
5.12437e-10
2.67801e-08
5.07655e-10
2.6681e-08
5.03373e-10
2.65825e-08
4.98689e-10
2.64842e-08
4.94602e-10
2.63866e-08
4.90009e-10
2.62892e-08
4.86126e-10
2.61924e-08
4.81613e-10
2.60958e-08
4.77949e-10
2.59999e-08
4.73505e-10
2.59041e-08
4.70077e-10
2.58091e-08
4.6569e-10
2.57141e-08
4.62518e-10
2.562e-08
4.58173e-10
2.55259e-08
4.55283e-10
2.54327e-08
4.50967e-10
2.53393e-08
4.48388e-10
2.5247e-08
4.44086e-10
2.51545e-08
4.41855e-10
2.5063e-08
4.37554e-10
2.49712e-08
4.35709e-10
2.48805e-08
4.31402e-10
2.47895e-08
4.29986e-10
2.46997e-08
4.25676e-10
2.46094e-08
4.24731e-10
2.45202e-08
4.20444e-10
2.44306e-08
4.20008e-10
2.43421e-08
4.15812e-10
2.42531e-08
4.15919e-10
2.41652e-08
4.11972e-10
2.40767e-08
4.12672e-10
2.39893e-08
4.09296e-10
2.39014e-08
4.10681e-10
4.08243e-10
3.40768e-08
1.53926e-09
-3.4022e-08
3.41581e-08
1.70708e-09
3.42656e-08
1.85114e-09
3.43945e-08
1.97722e-09
3.45324e-08
2.07195e-09
3.46655e-08
2.12501e-09
3.47857e-08
2.13719e-09
3.48906e-08
2.11759e-09
3.49801e-08
2.07715e-09
3.50544e-08
2.02423e-09
3.51139e-08
1.96431e-09
3.51599e-08
1.90142e-09
3.51949e-08
1.83909e-09
3.52214e-08
1.78001e-09
3.52417e-08
1.72564e-09
3.52574e-08
1.67625e-09
3.52696e-08
1.63145e-09
3.5279e-08
1.59061e-09
3.52861e-08
1.55317e-09
3.52914e-08
1.51868e-09
3.52952e-08
1.48677e-09
3.52976e-08
1.45712e-09
3.52988e-08
1.42949e-09
3.52988e-08
1.40365e-09