/*--------------------------------*- C++ -*----------------------------------*\
| =========                 |                                                 |
| \\      /  F ield         | OpenFOAM: The Open Source CFD Toolbox           |
|  \\    /   O peration     | Version:  2.3.0                                 |
|   \\  /    A nd           | Web:      www.OpenFOAM.org                      |
|    \\/     M anipulation  |                                                 |
\*---------------------------------------------------------------------------*/
FoamFile
{
    version     2.0;
    format      ascii;
    class       volScalarField;
    location    "0.35";
    object      p;
}
// * * * * * * * * * * * * * * * * * * * * * * * * * * * * * * * * * * * * * //

dimensions      [0 2 -2 0 0 0 0];

internalField   nonuniform List<scalar> 
3375
(
0.00222717
0.00165084
0.00118287
0.000846491
0.000569256
0.000321115
0.000102248
-8.27441e-05
-0.000232374
-0.000347719
-0.000431487
-0.000487653
-0.000521046
-0.000536771
-0.000539653
-0.00053385
-0.000522669
-0.000508558
-0.000493199
-0.00047766
-0.000462554
-0.00044818
-0.000434641
-0.000421928
-0.000409971
-0.000398685
-0.000387982
-0.000377785
-0.00036803
-0.000358668
-0.000349663
-0.000340988
-0.000332624
-0.000324558
-0.00031678
-0.000309283
-0.000302062
-0.000295111
-0.000288428
-0.000282007
-0.000275846
-0.000269939
-0.000264282
-0.00025887
-0.000253697
-0.000248758
-0.000244045
-0.00023955
-0.000235266
-0.000231183
-0.000227291
-0.000223578
-0.000220033
-0.000216641
-0.000213388
-0.000210257
-0.000207231
-0.00020429
-0.000201412
-0.000198575
-0.000195753
-0.000192919
-0.000190045
-0.000187097
-0.000184041
-0.000180835
-0.00017743
-0.000173769
-0.00016978
-0.000165379
-0.000160474
-0.000154968
-0.000148778
-0.000141858
-0.000134224
-0.000125982
-0.000117297
-0.000108355
-9.93456e-05
-9.04492e-05
-8.18117e-05
-7.35495e-05
-6.57452e-05
-5.84528e-05
-5.17001e-05
-4.54935e-05
-3.98233e-05
-3.46679e-05
-2.99973e-05
-2.57771e-05
-2.19703e-05
-1.85397e-05
-1.54486e-05
-1.26619e-05
-1.01465e-05
-7.87111e-06
-5.80552e-06
-3.91827e-06
-2.16605e-06
-3.07434e-07
0.00195014
0.00154199
0.00115955
0.000855299
0.000592384
0.000351552
0.000135869
-4.84533e-05
-0.000198887
-0.000315937
-0.000401974
-0.000460724
-0.000496821
-0.000515222
-0.000520645
-0.000517179
-0.000508095
-0.000495826
-0.00048206
-0.000467881
-0.000453925
-0.000440522
-0.000427801
-0.000415777
-0.000404406
-0.00039362
-0.000383347
-0.000373524
-0.000364097
-0.000355024
-0.000346277
-0.000337832
-0.000329676
-0.000321798
-0.000314191
-0.000306851
-0.000299773
-0.000292955
-0.000286394
-0.000280087
-0.000274031
-0.000268223
-0.000262659
-0.000257334
-0.000252244
-0.000247382
-0.000242742
-0.000238317
-0.000234099
-0.000230079
-0.000226248
-0.000222593
-0.000219103
-0.000215765
-0.000212564
-0.000209484
-0.000206506
-0.000203612
-0.00020078
-0.000197988
-0.00019521
-0.000192419
-0.000189586
-0.00018668
-0.000183664
-0.000180499
-0.000177136
-0.000173518
-0.000169574
-0.000165221
-0.000160365
-0.000154908
-0.000148765
-0.000141893
-0.000134307
-0.000126088
-0.000117412
-0.000108472
-9.9462e-05
-9.0564e-05
-8.19227e-05
-7.36554e-05
-6.58448e-05
-5.85458e-05
-5.17863e-05
-4.55731e-05
-3.98966e-05
-3.47352e-05
-3.0059e-05
-2.58335e-05
-2.20219e-05
-1.85867e-05
-1.54914e-05
-1.27009e-05
-1.01819e-05
-7.90319e-06
-5.83485e-06
-3.94572e-06
-2.19272e-06
-2.92326e-07
0.00174433
0.00144318
0.00112119
0.000842171
0.000595493
0.000368835
0.000164224
-1.28563e-05
-0.000159651
-0.00027613
-0.000363994
-0.00042621
-0.000466667
-0.000489685
-0.000499513
-0.000499949
-0.000494128
-0.000484468
-0.000472718
-0.000460059
-0.000447235
-0.000434672
-0.000422583
-0.000411047
-0.000400064
-0.000389599
-0.0003796
-0.000370019
-0.000360809
-0.000351936
-0.000343373
-0.000335099
-0.000327101
-0.00031937
-0.000311901
-0.000304688
-0.000297729
-0.000291023
-0.000284565
-0.000278355
-0.000272391
-0.000266668
-0.000261184
-0.000255934
-0.000250915
-0.00024612
-0.000241544
-0.00023718
-0.000233019
-0.000229055
-0.000225276
-0.000221672
-0.000218231
-0.00021494
-0.000211785
-0.000208749
-0.000205814
-0.000202963
-0.000200172
-0.00019742
-0.000194681
-0.00019193
-0.000189136
-0.000186269
-0.000183292
-0.000180166
-0.000176843
-0.000173265
-0.000169363
-0.000165054
-0.000160242
-0.000154827
-0.000148719
-0.000141845
-0.000134241
-0.000126045
-0.000117415
-0.000108498
-9.94952e-05
-9.06004e-05
-8.19608e-05
-7.36951e-05
-6.58855e-05
-5.85868e-05
-5.18268e-05
-4.56128e-05
-3.99352e-05
-3.47724e-05
-3.00947e-05
-2.58678e-05
-2.20546e-05
-1.8618e-05
-1.55211e-05
-1.27291e-05
-1.02086e-05
-7.92848e-06
-5.85828e-06
-3.96468e-06
-2.19233e-06
-2.17417e-07
0.00156746
0.00133593
0.00106614
0.000816617
0.000591108
0.000382868
0.000193112
2.64979e-05
-0.00011403
-0.000227877
-0.000316075
-0.000380838
-0.000425275
-0.000453
-0.000467698
-0.000472772
-0.000471125
-0.000465071
-0.000456344
-0.000446169
-0.000435361
-0.000424423
-0.000413643
-0.000403166
-0.000393048
-0.000383295
-0.000373892
-0.000364813
-0.000356034
-0.000347534
-0.000339296
-0.00033131
-0.000323568
-0.000316066
-0.000308802
-0.000301775
-0.000294986
-0.000288433
-0.000282118
-0.000276038
-0.000270194
-0.000264583
-0.000259203
-0.000254051
-0.000249122
-0.000244413
-0.000239917
-0.000235629
-0.000231541
-0.000227644
-0.000223931
-0.000220389
-0.000217008
-0.000213774
-0.000210674
-0.000207691
-0.000204809
-0.000202007
-0.000199266
-0.000196561
-0.00019387
-0.000191165
-0.000188417
-0.000185595
-0.000182664
-0.000179583
-0.000176306
-0.000172774
-0.000168917
-0.000164651
-0.00015988
-0.000154502
-0.000148427
-0.000141595
-0.000134003
-0.000125768
-0.000117153
-0.000108318
-9.93845e-05
-9.05355e-05
-8.19244e-05
-7.36799e-05
-6.58874e-05
-5.86029e-05
-5.18538e-05
-4.56478e-05
-3.99756e-05
-3.48164e-05
-3.01408e-05
-2.59148e-05
-2.21018e-05
-1.86647e-05
-1.5567e-05
-1.27739e-05
-1.02522e-05
-7.9705e-06
-5.89738e-06
-3.99527e-06
-2.19135e-06
-1.33634e-07
0.00140939
0.00122802
0.00100532
0.000786981
0.000583631
0.000393787
0.000219053
6.35556e-05
-6.968e-05
-0.00017965
-0.000266881
-0.000333001
-0.000380461
-0.00041223
-0.00043143
-0.000441031
-0.000443638
-0.000441396
-0.000435968
-0.000428576
-0.000420076
-0.000411036
-0.000401811
-0.000392611
-0.000383551
-0.000374683
-0.00036603
-0.000357596
-0.000349377
-0.000341369
-0.000333567
-0.000325971
-0.000318578
-0.000311392
-0.000304414
-0.000297646
-0.000291093
-0.000284757
-0.000278638
-0.00027274
-0.000267062
-0.000261604
-0.000256365
-0.000251344
-0.000246537
-0.00024194
-0.00023755
-0.00023336
-0.000229365
-0.000225555
-0.000221923
-0.000218459
-0.000215152
-0.000211988
-0.000208954
-0.000206036
-0.000203214
-0.000200472
-0.000197787
-0.000195139
-0.000192502
-0.00018985
-0.000187155
-0.000184385
-0.000181505
-0.000178475
-0.000175247
-0.000171763
-0.000167953
-0.000163731
-0.000159003
-0.000153667
-0.000147637
-0.00014086
-0.00013335
-0.000125221
-0.000116615
-0.000107775
-9.89443e-05
-9.02207e-05
-8.17139e-05
-7.3546e-05
-6.58089e-05
-5.8567e-05
-5.1851e-05
-4.56707e-05
-4.00176e-05
-3.48721e-05
-3.02059e-05
-2.59859e-05
-2.21764e-05
-1.87411e-05
-1.5644e-05
-1.28506e-05
-1.03279e-05
-8.0444e-06
-5.96765e-06
-4.05576e-06
-2.22279e-06
-1.213e-07
0.00127242
0.00112722
0.000943471
0.000754048
0.000571896
0.000399567
0.000239478
9.53258e-05
-2.99674e-05
-0.000135144
-0.000220343
-0.000286711
-0.000336148
-0.000371052
-0.000394022
-0.000407606
-0.0004141
-0.000415451
-0.000413218
-0.000408591
-0.000402441
-0.000395374
-0.0003878
-0.000379982
-0.000372083
-0.000364201
-0.000356391
-0.000348687
-0.000341106
-0.000333662
-0.000326361
-0.000319214
-0.000312226
-0.000305406
-0.000298761
-0.000292297
-0.000286021
-0.000279937
-0.000274052
-0.000268368
-0.000262887
-0.000257611
-0.00025254
-0.000247674
-0.000243012
-0.000238549
-0.000234284
-0.00023021
-0.000226323
-0.000222615
-0.000219078
-0.000215703
-0.000212479
-0.000209395
-0.000206436
-0.000203588
-0.000200834
-0.000198156
-0.000195533
-0.000192944
-0.000190365
-0.000187769
-0.000185129
-0.000182412
-0.000179585
-0.000176606
-0.000173427
-0.000169991
-0.000166227
-0.000162052
-0.000157373
-0.000152094
-0.000146135
-0.000139451
-0.000132064
-0.000124079
-0.000115647
-0.000106965
-9.82019e-05
-8.95549e-05
-8.11911e-05
-7.3169e-05
-6.55536e-05
-5.84051e-05
-5.17594e-05
-4.56332e-05
-4.00217e-05
-3.49077e-05
-3.02648e-05
-2.60617e-05
-2.2264e-05
-1.88366e-05
-1.57445e-05
-1.29541e-05
-1.0433e-05
-8.14974e-06
-6.07139e-06
-4.15438e-06
-2.31212e-06
-2.5675e-07
0.00115352
0.00103419
0.000881457
0.00071788
0.000555901
0.000400402
0.000254544
0.000121715
4.66848e-06
-9.51704e-05
-0.000177608
-0.00024338
-0.000293914
-0.00033111
-0.000357107
-0.000374059
-0.000383966
-0.000388568
-0.000389305
-0.00038731
-0.000383443
-0.000378331
-0.000372418
-0.000366008
-0.000359306
-0.000352446
-0.000345517
-0.000338578
-0.000331667
-0.000324815
-0.000318042
-0.000311368
-0.000304808
-0.000298375
-0.000292081
-0.000285939
-0.000279957
-0.000274143
-0.000268506
-0.000263049
-0.000257778
-0.000252696
-0.000247805
-0.000243105
-0.000238596
-0.000234276
-0.000230143
-0.000226192
-0.000222419
-0.000218817
-0.000215379
-0.000212096
-0.000208958
-0.000205953
-0.00020307
-0.000200292
-0.000197605
-0.000194989
-0.000192427
-0.000189895
-0.00018737
-0.000184828
-0.000182238
-0.000179572
-0.000176793
-0.000173861
-0.000170728
-0.000167337
-0.000163619
-0.000159495
-0.000154876
-0.000149674
-0.000143818
-0.000137271
-0.000130059
-0.000122278
-0.000114073
-0.00010562
-9.70919e-05
-8.86456e-05
-8.04067e-05
-7.2508e-05
-6.50455e-05
-5.80404e-05
-5.15132e-05
-4.54796e-05
-3.99389e-05
-3.48798e-05
-3.0279e-05
-2.6108e-05
-2.23344e-05
-1.89249e-05
-1.5846e-05
-1.30652e-05
-1.0551e-05
-8.27278e-06
-6.19823e-06
-4.28612e-06
-2.46462e-06
-5.61669e-07
0.00104924
0.000948875
0.000820747
0.000679843
0.000536719
0.00039717
0.000264879
0.000143054
3.42793e-05
-5.99181e-05
-0.000139078
-0.000203589
-0.000254479
-0.000293225
-0.000321558
-0.00034128
-0.000354109
-0.000361584
-0.000365011
-0.000365454
-0.000363743
-0.000360509
-0.000356214
-0.000351194
-0.000345685
-0.000339853
-0.000333814
-0.000327651
-0.000321422
-0.000315174
-0.00030894
-0.000302748
-0.000296623
-0.000290585
-0.000284651
-0.000278836
-0.000273153
-0.000267614
-0.000262228
-0.000257002
-0.000251945
-0.000247059
-0.000242348
-0.000237815
-0.00023346
-0.000229282
-0.00022528
-0.000221451
-0.000217789
-0.000214291
-0.000210948
-0.000207753
-0.000204697
-0.000201768
-0.000198954
-0.000196241
-0.000193614
-0.000191055
-0.000188544
-0.000186062
-0.000183585
-0.000181087
-0.000178541
-0.000175916
-0.000173178
-0.000170285
-0.000167192
-0.000163842
-0.000160171
-0.000156101
-0.000151553
-0.000146449
-0.000140725
-0.000134354
-0.000127363
-0.000119839
-0.000111913
-0.000103747
-9.55009e-05
-8.73197e-05
-7.93334e-05
-7.16489e-05
-6.43377e-05
-5.74669e-05
-5.10794e-05
-4.51706e-05
-3.97323e-05
-3.47539e-05
-3.0216e-05
-2.60941e-05
-2.23589e-05
-1.89793e-05
-1.59236e-05
-1.31609e-05
-1.0661e-05
-8.39454e-06
-6.3313e-06
-4.43602e-06
-2.66248e-06
-9.77665e-07
0.000956932
0.000871005
0.000762472
0.000641082
0.000515154
0.000390475
0.000270962
0.000159694
5.90962e-05
-2.92716e-05
-0.000104752
-0.00016745
-0.000218059
-0.000257695
-0.000287736
-0.000309664
-0.00032494
-0.000334904
-0.000340729
-0.000343393
-0.000343687
-0.000342229
-0.00033949
-0.000335823
-0.000331488
-0.000326676
-0.000321526
-0.000316142
-0.0003106
-0.000304961
-0.000299271
-0.000293567
-0.000287883
-0.000282242
-0.00027667
-0.000271185
-0.000265803
-0.00026054
-0.000255406
-0.000250413
-0.000245568
-0.000240878
-0.000236347
-0.000231979
-0.000227776
-0.000223738
-0.000219865
-0.000216153
-0.0002126
-0.000209201
-0.000205949
-0.000202837
-0.000199856
-0.000196996
-0.000194245
-0.00019159
-0.000189015
-0.000186504
-0.000184038
-0.000181597
-0.000179158
-0.000176696
-0.000174185
-0.000171594
-0.000168888
-0.000166029
-0.00016297
-0.000159659
-0.000156033
-0.000152024
-0.000147558
-0.000142567
-0.000136999
-0.000130833
-0.000124095
-0.000116863
-0.000109256
-0.000101417
-9.34933e-05
-8.56206e-05
-7.79205e-05
-7.04925e-05
-6.34132e-05
-5.67388e-05
-5.04985e-05
-4.47137e-05
-3.93921e-05
-3.45147e-05
-3.00594e-05
-2.60036e-05
-2.23208e-05
-1.8983e-05
-1.59608e-05
-1.32251e-05
-1.07474e-05
-8.50005e-06
-6.45586e-06
-4.58748e-06
-2.87611e-06
-1.40272e-06
0.000874543
0.000799985
0.000707181
0.000602385
0.000491867
0.000380887
0.000273318
0.000172096
7.94874e-05
-2.96292e-06
-7.44657e-05
-0.000134902
-0.000184688
-0.000224635
-0.000255813
-0.000279426
-0.000296693
-0.00030877
-0.000316693
-0.000321352
-0.000323484
-0.000323685
-0.000322423
-0.000320057
-0.000316866
-0.000313056
-0.000308788
-0.00030418
-0.000299326
-0.000294298
-0.000289155
-0.000283943
-0.000278702
-0.000273463
-0.000268256
-0.000263103
-0.000258025
-0.000253039
-0.00024816
-0.0002434
-0.000238769
-0.000234275
-0.000229925
-0.000225723
-0.000221671
-0.000217772
-0.000214026
-0.00021043
-0.000206983
-0.00020368
-0.000200516
-0.000197484
-0.000194575
-0.00019178
-0.000189088
-0.000186485
-0.000183958
-0.000181489
-0.000179062
-0.000176656
-0.00017425
-0.000171819
-0.000169336
-0.000166773
-0.000164095
-0.000161265
-0.000158239
-0.000154967
-0.00015139
-0.000147448
-0.000143074
-0.000138211
-0.000132814
-0.00012687
-0.000120403
-0.000113484
-0.000106216
-9.87289e-05
-9.11534e-05
-8.36155e-05
-7.62276e-05
-6.90842e-05
-6.22593e-05
-5.58063e-05
-4.97593e-05
-4.41376e-05
-3.89429e-05
-3.41704e-05
-2.98084e-05
-2.58318e-05
-2.22142e-05
-1.89294e-05
-1.59504e-05
-1.32502e-05
-1.08022e-05
-8.58099e-06
-6.56259e-06
-4.72743e-06
-3.07798e-06
-1.75544e-06
0.000800445
0.000735108
0.00065508
0.000564335
0.000467459
0.000368967
0.000272472
0.000180728
9.58391e-05
1.93004e-05
-4.80213e-05
-0.000105838
-0.000154342
-0.00019409
-0.000225892
-0.000250704
-0.00026953
-0.000283352
-0.000293073
-0.000299489
-0.000303281
-0.000305009
-0.000305129
-0.000304001
-0.00030191
-0.000299076
-0.000295672
-0.000291832
-0.000287662
-0.000283245
-0.00027865
-0.000273932
-0.000269137
-0.000264304
-0.000259465
-0.000254648
-0.000249878
-0.000245173
-0.000240551
-0.000236028
-0.000231613
-0.000227319
-0.000223151
-0.000219116
-0.000215218
-0.000211459
-0.000207841
-0.000204363
-0.000201022
-0.000197816
-0.00019474
-0.000191787
-0.00018895
-0.000186219
-0.000183584
-0.000181032
-0.000178551
-0.000176124
-0.000173733
-0.000171361
-0.000168985
-0.000166582
-0.000164127
-0.000161591
-0.000158941
-0.000156141
-0.000153149
-0.000149919
-0.000146398
-0.00014253
-0.000138259
-0.000133534
-0.00012832
-0.000122608
-0.000116421
-0.000109822
-0.000102903
-9.57762e-05
-8.85609e-05
-8.13713e-05
-7.43111e-05
-6.74688e-05
-6.09145e-05
-5.47009e-05
-4.88627e-05
-4.34196e-05
-3.83779e-05
-3.37341e-05
-2.94752e-05
-2.55839e-05
-2.20399e-05
-1.88175e-05
-1.58904e-05
-1.32337e-05
-1.08225e-05
-8.63358e-06
-6.64631e-06
-4.8471e-06
-3.25009e-06
-2.00522e-06
0.000733349
0.000675678
0.000606174
0.000527328
0.000442429
0.00035521
0.000268903
0.000186031
0.00010853
3.78199e-05
-2.51994e-05
-8.0121e-05
-0.000126961
-0.000166068
-0.000198033
-0.000223597
-0.000243574
-0.000258784
-0.000270003
-0.000277935
-0.000283196
-0.000286307
-0.000287701
-0.000287733
-0.000286688
-0.000284792
-0.000282228
-0.00027914
-0.000275644
-0.000271833
-0.000267784
-0.00026356
-0.000259213
-0.000254787
-0.00025032
-0.000245843
-0.000241383
-0.000236964
-0.000232604
-0.00022832
-0.000224127
-0.000220035
-0.000216053
-0.000212189
-0.000208448
-0.000204834
-0.000201347
-0.000197989
-0.000194759
-0.000191652
-0.000188666
-0.000185795
-0.000183031
-0.000180366
-0.000177791
-0.000175293
-0.000172859
-0.000170474
-0.000168122
-0.000165785
-0.000163441
-0.000161069
-0.000158644
-0.000156137
-0.000153518
-0.000150752
-0.000147801
-0.00014462
-0.000141163
-0.000137379
-0.00013322
-0.000128643
-0.00012362
-0.000118145
-0.000112242
-0.000105964
-9.93929e-05
-9.26284e-05
-8.57762e-05
-7.89398e-05
-7.22142e-05
-6.56815e-05
-5.94084e-05
-5.34456e-05
-4.78278e-05
-4.25761e-05
-3.76989e-05
-3.3195e-05
-2.9055e-05
-2.5264e-05
-2.18025e-05
-1.86488e-05
-1.57807e-05
-1.31744e-05
-1.08065e-05
-8.65561e-06
-6.70376e-06
-4.94102e-06
-3.38435e-06
-2.16106e-06
0.00067222
0.000621053
0.000560338
0.0004916
0.000417166
0.000340047
0.000263046
0.000188421
0.000117932
5.29044e-05
-5.76447e-06
-5.75904e-05
-0.000102457
-0.000140546
-0.000172267
-0.000198178
-0.000218925
-0.000235182
-0.000247605
-0.000256808
-0.00026334
-0.000267677
-0.000270227
-0.000271329
-0.000271263
-0.000270258
-0.000268499
-0.000266139
-0.000263301
-0.000260086
-0.000256577
-0.000252843
-0.000248943
-0.000244925
-0.00024083
-0.000236695
-0.000232549
-0.000228418
-0.000224324
-0.000220285
-0.000216316
-0.000212432
-0.000208641
-0.000204953
-0.000201373
-0.000197907
-0.000194557
-0.000191324
-0.000188207
-0.000185204
-0.000182313
-0.000179528
-0.000176842
-0.000174247
-0.000171735
-0.000169294
-0.000166912
-0.000164574
-0.000162265
-0.000159966
-0.00015766
-0.000155323
-0.000152932
-0.00015046
-0.000147878
-0.000145154
-0.000142251
-0.000139129
-0.000135745
-0.000132055
-0.000128018
-0.000123598
-0.000118773
-0.000113539
-0.000107918
-0.000101959
-9.57336e-05
-8.9328e-05
-8.28369e-05
-7.63535e-05
-6.99644e-05
-6.37455e-05
-5.77596e-05
-5.20551e-05
-4.66667e-05
-4.16159e-05
-3.69131e-05
-3.25593e-05
-2.85477e-05
-2.4866e-05
-2.14974e-05
-1.8423e-05
-1.56217e-05
-1.3072e-05
-1.0753e-05
-8.64517e-06
-6.73228e-06
-5.00579e-06
-3.47944e-06
-2.24735e-06
0.000616214
0.000570658
0.000517377
0.000457271
0.000391961
0.000323843
0.000255292
0.000188287
0.000124403
6.48602e-05
1.05265e-05
-3.80717e-05
-8.07229e-05
-0.00011748
-0.000148602
-0.000174497
-0.000195662
-0.000212643
-0.000225986
-0.000236216
-0.000243816
-0.000249216
-0.000252791
-0.000254861
-0.000255697
-0.000255523
-0.000254527
-0.000252863
-0.00025066
-0.000248023
-0.000245042
-0.000241792
-0.000238333
-0.000234721
-0.000230999
-0.000227206
-0.000223376
-0.000219536
-0.00021571
-0.000211919
-0.00020818
-0.000204506
-0.000200911
-0.000197404
-0.000193991
-0.000190678
-0.000187469
-0.000184365
-0.000181368
-0.000178475
-0.000175683
-0.000172988
-0.000170385
-0.000167867
-0.000165423
-0.000163045
-0.000160719
-0.000158434
-0.000156173
-0.00015392
-0.000151656
-0.00014936
-0.000147011
-0.000144581
-0.000142045
-0.000139371
-0.000136525
-0.000133472
-0.000130172
-0.000126588
-0.000122683
-0.000118429
-0.000113806
-0.000108816
-0.000103478
-9.7834e-05
-9.19481e-05
-8.58963e-05
-7.97621e-05
-7.36292e-05
-6.75761e-05
-6.16728e-05
-5.59777e-05
-5.05371e-05
-4.53848e-05
-4.05429e-05
-3.60232e-05
-3.18284e-05
-2.79542e-05
-2.43906e-05
-2.11236e-05
-1.8136e-05
-1.54091e-05
-1.29235e-05
-1.066e-05
-8.60052e-06
-6.72993e-06
-5.03958e-06
-3.5374e-06
-2.28631e-06
0.000564636
0.000523983
0.000477065
0.000424373
0.000367021
0.000306898
0.000245982
0.00018598
0.00012828
7.39855e-05
2.39191e-05
-2.13792e-05
-6.16347e-05
-9.68026e-05
-0.000127024
-0.00015258
-0.000173845
-0.000191248
-0.000205237
-0.000216255
-0.000224719
-0.000231013
-0.000235474
-0.000238402
-0.000240052
-0.000240642
-0.000240355
-0.000239347
-0.000237748
-0.000235668
-0.000233199
-0.000230419
-0.000227395
-0.000224182
-0.000220829
-0.000217377
-0.000213862
-0.000210314
-0.000206759
-0.000203218
-0.000199711
-0.000196254
-0.000192858
-0.000189536
-0.000186294
-0.00018314
-0.000180077
-0.000177109
-0.000174236
-0.000171457
-0.000168771
-0.000166173
-0.000163659
-0.000161222
-0.000158853
-0.000156543
-0.000154281
-0.000152054
-0.000149848
-0.000147647
-0.000145433
-0.000143186
-0.000140886
-0.000138507
-0.000136025
-0.000133411
-0.000130633
-0.000127659
-0.000124455
-0.000120987
-0.000117225
-0.000113144
-0.00010873
-0.000103985
-9.89279e-05
-9.35962e-05
-8.8045e-05
-8.23414e-05
-7.65594e-05
-7.07737e-05
-6.50552e-05
-5.94679e-05
-5.40662e-05
-4.88939e-05
-4.39836e-05
-3.93576e-05
-3.50287e-05
-3.10013e-05
-2.72731e-05
-2.38363e-05
-2.06789e-05
-1.77861e-05
-1.51412e-05
-1.27266e-05
-1.05246e-05
-8.51843e-06
-6.69384e-06
-5.04101e-06
-3.56144e-06
-2.29403e-06
0.000516902
0.000480579
0.000439166
0.000392883
0.000342485
0.00028945
0.000235412
0.000181816
0.000129873
8.05658e-05
3.46569e-05
-7.32081e-06
-4.50549e-05
-7.84306e-05
-0.000107498
-0.000132434
-0.000153511
-0.000171058
-0.000185435
-0.000197009
-0.000206136
-0.00021315
-0.000218355
-0.000222022
-0.00022439
-0.000225665
-0.000226027
-0.000225627
-0.000224596
-0.000223043
-0.000221064
-0.000218738
-0.000216134
-0.000213312
-0.000210322
-0.000207208
-0.000204006
-0.000200749
-0.000197465
-0.000194177
-0.000190905
-0.000187666
-0.000184474
-0.000181341
-0.000178275
-0.000175284
-0.000172373
-0.000169545
-0.000166802
-0.000164144
-0.000161569
-0.000159074
-0.000156655
-0.000154305
-0.000152018
-0.000149783
-0.000147591
-0.00014543
-0.000143286
-0.000141144
-0.000138987
-0.000136798
-0.000134555
-0.000132236
-0.000129818
-0.000127273
-0.000124574
-0.000121691
-0.000118593
-0.000115253
-0.000111642
-0.000107743
-0.000103543
-9.90462e-05
-9.42693e-05
-8.92462e-05
-8.4025e-05
-7.86645e-05
-7.32299e-05
-6.77878e-05
-6.24021e-05
-5.7131e-05
-5.20247e-05
-4.71244e-05
-4.24615e-05
-3.8058e-05
-3.39274e-05
-3.00755e-05
-2.65016e-05
-2.31999e-05
-2.01604e-05
-1.73705e-05
-1.48151e-05
-1.24784e-05
-1.03443e-05
-8.397e-06
-6.62259e-06
-5.00977e-06
-3.55447e-06
-2.27876e-06
0.000472513
0.00044005
0.000403444
0.000362741
0.000318436
0.000271687
0.000223829
0.000176078
0.000129469
8.48719e-05
4.29786e-05
4.2998e-06
-3.08353e-05
-6.22645e-05
-8.9969e-05
-0.000114046
-0.000134681
-0.000152119
-0.000166644
-0.000178553
-0.000188145
-0.000195708
-0.000201508
-0.00020579
-0.000208774
-0.000210651
-0.000211593
-0.000211746
-0.000211237
-0.000210177
-0.000208659
-0.000206766
-0.000204567
-0.000202123
-0.000199486
-0.000196702
-0.000193809
-0.000190841
-0.000187827
-0.000184791
-0.000181756
-0.000178737
-0.000175752
-0.000172811
-0.000169925
-0.000167102
-0.000164348
-0.000161666
-0.000159058
-0.000156526
-0.000154069
-0.000151683
-0.000149365
-0.00014711
-0.00014491
-0.000142757
-0.000140642
-0.000138554
-0.00013648
-0.000134405
-0.000132314
-0.00013019
-0.000128014
-0.000125765
-0.00012342
-0.000120956
-0.000118346
-0.000115564
-0.000112585
-0.000109382
-0.000105933
-0.000102222
-9.82421e-05
-9.39954e-05
-8.94985e-05
-8.47814e-05
-7.98859e-05
-7.48638e-05
-6.97724e-05
-6.46706e-05
-5.96159e-05
-5.46609e-05
-4.98519e-05
-4.52272e-05
-4.08167e-05
-3.66419e-05
-3.27168e-05
-2.90482e-05
-2.56368e-05
-2.24786e-05
-1.95654e-05
-1.68862e-05
-1.4428e-05
-1.21765e-05
-1.01167e-05
-8.23402e-06
-6.51455e-06
-4.94556e-06
-3.51876e-06
-2.24487e-06
0.000431043
0.000402047
0.000369673
0.000333858
0.000294913
0.000253744
0.000211437
0.000169003
0.000127324
8.71528e-05
4.91114e-05
1.36768e-05
-1.8821e-05
-4.81911e-05
-7.43657e-05
-9.73798e-05
-0.00011735
-0.000134452
-0.000148901
-0.000160936
-0.000170803
-0.000178744
-0.000184991
-0.000189761
-0.000193252
-0.000195642
-0.000197089
-0.000197733
-0.000197698
-0.000197089
-0.000196
-0.000194513
-0.000192698
-0.000190617
-0.000188321
-0.000185858
-0.000183268
-0.000180585
-0.000177838
-0.000175054
-0.000172255
-0.000169459
-0.000166682
-0.000163937
-0.000161235
-0.000158584
-0.000155991
-0.00015346
-0.000150994
-0.000148594
-0.00014626
-0.000143989
-0.000141779
-0.000139624
-0.000137519
-0.000135456
-0.000133426
-0.000131418
-0.000129421
-0.000127422
-0.000125406
-0.000123356
-0.000121256
-0.000119086
-0.000116825
-0.000114451
-0.000111942
-0.000109273
-0.000106422
-0.000103367
-0.000100089
-9.6575e-05
-9.28191e-05
-8.88254e-05
-8.46088e-05
-8.01955e-05
-7.56224e-05
-7.09347e-05
-6.61825e-05
-6.14182e-05
-5.66929e-05
-5.20542e-05
-4.75442e-05
-4.31985e-05
-3.90453e-05
-3.51055e-05
-3.1393e-05
-2.79154e-05
-2.46748e-05
-2.16684e-05
-1.88898e-05
-1.63297e-05
-1.39766e-05
-1.18176e-05
-9.83911e-06
-8.02722e-06
-6.36817e-06
-4.84812e-06
-3.45581e-06
-2.19438e-06
0.000392123
0.000366262
0.000337647
0.000306144
0.000271935
0.00023573
0.000198409
0.000160808
0.000123669
8.76391e-05
5.32685e-05
2.09941e-05
-8.86481e-06
-3.61034e-05
-6.06209e-05
-8.24061e-05
-0.000101521
-0.000118086
-0.000132258
-0.000144225
-0.000154183
-0.000162337
-0.000168884
-0.000174012
-0.000177898
-0.000180704
-0.000182574
-0.000183642
-0.000184022
-0.000183818
-0.00018312
-0.000182008
-0.000180551
-0.000178811
-0.000176841
-0.000174687
-0.00017239
-0.000169984
-0.000167501
-0.000164966
-0.000162402
-0.000159829
-0.000157262
-0.000154715
-0.0001522
-0.000149725
-0.000147297
-0.000144922
-0.000142602
-0.00014034
-0.000138135
-0.000135986
-0.00013389
-0.000131843
-0.00012984
-0.000127874
-0.000125936
-0.000124016
-0.000122105
-0.00012019
-0.000118257
-0.000116291
-0.000114276
-0.000112195
-0.000110028
-0.000107756
-0.000105358
-0.000102814
-0.000100102
-9.72049e-05
-9.41065e-05
-9.07962e-05
-8.727e-05
-8.35321e-05
-7.95962e-05
-7.54853e-05
-7.12319e-05
-6.68751e-05
-6.2459e-05
-5.80296e-05
-5.36324e-05
-4.931e-05
-4.51007e-05
-4.10373e-05
-3.7146e-05
-3.3447e-05
-2.99541e-05
-2.66752e-05
-2.36134e-05
-2.07671e-05
-1.81315e-05
-1.56986e-05
-1.34585e-05
-1.13997e-05
-9.50951e-06
-7.77498e-06
-6.18247e-06
-4.71741e-06
-3.36673e-06
-2.12784e-06
0.000355405
0.000332396
0.00030714
0.000279468
0.000249469
0.000217698
0.00018487
0.000151669
0.000118715
8.6559e-05
5.568e-05
2.64712e-05
-7.67144e-07
-2.58278e-05
-4.85899e-05
-6.90096e-05
-8.71081e-05
-0.000102959
-0.000116674
-0.000128395
-0.000138278
-0.000146488
-0.000153192
-0.000158553
-0.000162723
-0.000165849
-0.000168061
-0.000169481
-0.000170219
-0.00017037
-0.000170021
-0.00016925
-0.000168125
-0.000166704
-0.000165041
-0.000163182
-0.000161167
-0.000159031
-0.000156805
-0.000154515
-0.000152185
-0.000149833
-0.000147477
-0.00014513
-0.000142804
-0.000140508
-0.00013825
-0.000136035
-0.000133867
-0.000131748
-0.000129678
-0.000127658
-0.000125683
-0.000123751
-0.000121857
-0.000119995
-0.000118157
-0.000116335
-0.000114518
-0.000112695
-0.000110854
-0.000108982
-0.000107063
-0.00010508
-0.000103019
-0.000100859
-9.85835e-05
-9.61737e-05
-9.3612e-05
-9.08825e-05
-8.79724e-05
-8.48731e-05
-8.15818e-05
-7.81029e-05
-7.44487e-05
-7.06397e-05
-6.6704e-05
-6.26757e-05
-5.85932e-05
-5.44969e-05
-5.0427e-05
-4.64216e-05
-4.25152e-05
-3.87375e-05
-3.51132e-05
-3.16611e-05
-2.83947e-05
-2.53223e-05
-2.24476e-05
-1.97701e-05
-1.7286e-05
-1.49889e-05
-1.28702e-05
-1.09194e-05
-9.12523e-06
-7.47529e-06
-5.9563e-06
-4.55344e-06
-3.25279e-06
-2.0451e-06
0.000314088
0.000294177
0.000272508
0.000248893
0.000223346
0.000196281
0.000168251
0.000139794
0.000111403
8.35275e-05
5.65681e-05
3.08646e-05
6.68786e-06
-1.5762e-05
-3.63533e-05
-5.50171e-05
-7.17393e-05
-8.65518e-05
-9.95229e-05
-0.000110749
-0.000120344
-0.000128435
-0.000135154
-0.000140633
-0.000145002
-0.000148384
-0.000150894
-0.000152641
-0.000153723
-0.000154229
-0.000154239
-0.000153826
-0.000153054
-0.000151981
-0.000150657
-0.000149127
-0.000147431
-0.000145603
-0.000143674
-0.000141669
-0.000139611
-0.000137521
-0.000135415
-0.000133307
-0.000131209
-0.00012913
-0.000127078
-0.000125059
-0.000123078
-0.000121135
-0.000119234
-0.000117373
-0.00011555
-0.000113764
-0.000112008
-0.00011028
-0.00010857
-0.000106873
-0.000105178
-0.000103476
-0.000101756
-0.000100006
-9.82121e-05
-9.63603e-05
-9.44356e-05
-9.24226e-05
-9.03055e-05
-8.80687e-05
-8.56975e-05
-8.31791e-05
-8.0503e-05
-7.76629e-05
-7.4657e-05
-7.14899e-05
-6.81723e-05
-6.47216e-05
-6.11617e-05
-5.75213e-05
-5.38328e-05
-5.01304e-05
-4.64487e-05
-4.28205e-05
-3.9276e-05
-3.58418e-05
-3.254e-05
-2.93881e-05
-2.63989e-05
-2.35806e-05
-2.09376e-05
-1.84704e-05
-1.61764e-05
-1.40506e-05
-1.20857e-05
-1.02727e-05
-8.60157e-06
-7.06078e-06
-5.63765e-06
-4.3176e-06
-3.08694e-06
-1.92597e-06
0.000268275
0.000251631
0.000233669
0.000214201
0.000193197
0.000170948
0.000147864
0.000124351
0.000100781
7.75026e-05
5.48339e-05
3.30533e-05
1.2392e-05
-6.96993e-06
-2.4903e-05
-4.13258e-05
-5.62001e-05
-6.9526e-05
-8.1335e-05
-9.1684e-05
-0.000100649
-0.000108318
-0.00011479
-0.000120165
-0.000124545
-0.00012803
-0.000130717
-0.000132695
-0.000134049
-0.000134858
-0.000135193
-0.000135119
-0.000134696
-0.000133975
-0.000133003
-0.000131824
-0.000130474
-0.000128985
-0.000127388
-0.000125706
-0.000123963
-0.000122177
-0.000120365
-0.00011854
-0.000116714
-0.000114897
-0.000113097
-0.000111318
-0.000109567
-0.000107845
-0.000106155
-0.000104496
-0.000102867
-0.000101267
-9.96912e-05
-9.81358e-05
-9.65952e-05
-9.50628e-05
-9.35308e-05
-9.19907e-05
-9.0433e-05
-8.88471e-05
-8.72218e-05
-8.55449e-05
-8.3804e-05
-8.1986e-05
-8.0078e-05
-7.80673e-05
-7.59422e-05
-7.36926e-05
-7.13107e-05
-6.87918e-05
-6.61354e-05
-6.33456e-05
-6.04314e-05
-5.74073e-05
-5.42926e-05
-5.11106e-05
-4.78875e-05
-4.46514e-05
-4.14305e-05
-3.82523e-05
-3.51422e-05
-3.21228e-05
-2.92135e-05
-2.64297e-05
-2.3783e-05
-2.12816e-05
-1.89299e-05
-1.67292e-05
-1.46782e-05
-1.2773e-05
-1.10079e-05
-9.37541e-06
-7.86676e-06
-6.47173e-06
-5.17864e-06
-3.97383e-06
-2.8444e-06
-1.76778e-06
0.000222317
0.000208816
0.000194357
0.000178766
0.000161988
0.000144224
0.00012577
0.000106919
8.7946e-05
6.91096e-05
5.0653e-05
3.27948e-05
1.57226e-05
-4.10657e-07
-1.54877e-05
-2.94261e-05
-4.21764e-05
-5.37188e-05
-6.4059e-05
-7.32248e-05
-8.12607e-05
-8.82249e-05
-9.41843e-05
-9.9212e-05
-0.000103384
-0.000106778
-0.000109468
-0.000111529
-0.000113029
-0.000114034
-0.000114605
-0.000114798
-0.000114664
-0.00011425
-0.000113597
-0.000112744
-0.000111723
-0.000110566
-0.000109298
-0.000107942
-0.00010652
-0.00010505
-0.000103545
-0.00010202
-0.000100486
-9.89513e-05
-9.74238e-05
-9.59095e-05
-9.44128e-05
-9.29367e-05
-9.1483e-05
-9.00524e-05
-8.86445e-05
-8.72575e-05
-8.5889e-05
-8.45354e-05
-8.31922e-05
-8.18539e-05
-8.05143e-05
-7.91661e-05
-7.78016e-05
-7.64121e-05
-7.49882e-05
-7.35201e-05
-7.19976e-05
-7.04101e-05
-6.87475e-05
-6.69998e-05
-6.51579e-05
-6.32141e-05
-6.11628e-05
-5.90009e-05
-5.67283e-05
-5.43486e-05
-5.18695e-05
-4.93023e-05
-4.66623e-05
-4.39677e-05
-4.12393e-05
-3.84992e-05
-3.577e-05