/*--------------------------------*- C++ -*----------------------------------*\
| =========                 |                                                 |
| \\      /  F ield         | OpenFOAM: The Open Source CFD Toolbox           |
|  \\    /   O peration     | Version:  2.3.0                                 |
|   \\  /    A nd           | Web:      www.OpenFOAM.org                      |
|    \\/     M anipulation  |                                                 |
\*---------------------------------------------------------------------------*/
FoamFile
{
    version     2.0;
    format      ascii;
    class       surfaceScalarField;
    location    "0.35";
    object      phi_0;
}
// * * * * * * * * * * * * * * * * * * * * * * * * * * * * * * * * * * * * * //

dimensions      [0 3 -1 0 0 0 0];

internalField   nonuniform List<scalar> 
6598
(
2.81601e-08
2.8973e-09
-3.10574e-08
2.5284e-08
2.87609e-09
2.25864e-08
2.69763e-09
2.01009e-08
2.48542e-09
1.78441e-08
2.2568e-09
1.58267e-08
2.01741e-09
1.40511e-08
1.77562e-09
1.25118e-08
1.53934e-09
1.11965e-08
1.31531e-09
1.00875e-08
1.109e-09
9.16304e-09
9.24415e-10
8.39917e-09
7.63869e-10
7.77123e-09
6.27947e-10
7.25551e-09
5.15719e-10
6.8304e-09
4.25103e-10
6.4771e-09
3.53306e-10
6.17987e-09
2.97233e-10
5.92603e-09
2.53833e-10
5.7057e-09
2.20331e-10
5.51134e-09
1.9436e-10
5.33735e-09
1.73996e-10
5.1796e-09
1.57745e-10
5.03511e-09
1.44487e-10
4.90171e-09
1.33408e-10
4.77777e-09
1.2393e-10
4.66212e-09
1.15655e-10
4.55381e-09
1.08306e-10
4.45212e-09
1.01696e-10
4.35642e-09
9.5695e-11
4.26621e-09
9.02107e-11
4.18104e-09
8.51747e-11
4.1005e-09
8.05344e-11
4.02426e-09
7.62469e-11
3.95198e-09
7.22759e-11
3.88339e-09
6.85897e-11
3.81823e-09
6.51603e-11
3.75627e-09
6.19624e-11
3.6973e-09
5.89734e-11
3.64112e-09
5.61729e-11
3.58758e-09
5.35424e-11
3.53651e-09
5.10655e-11
3.48779e-09
4.87274e-11
3.44127e-09
4.65148e-11
3.39686e-09
4.44157e-11
3.35444e-09
4.24193e-11
3.31392e-09
4.0516e-11
3.27522e-09
3.86971e-11
3.23827e-09
3.69546e-11
3.20299e-09
3.52813e-11
3.16932e-09
3.36706e-11
3.1372e-09
3.21166e-11
3.10659e-09
3.06137e-11
3.07743e-09
2.91568e-11
3.04969e-09
2.77411e-11
3.02333e-09
2.63623e-11
2.99831e-09
2.50162e-11
2.97461e-09
2.3699e-11
2.9522e-09
2.2407e-11
2.93107e-09
2.11371e-11
2.91118e-09
1.98865e-11
2.89253e-09
1.86529e-11
2.87509e-09
1.74346e-11
2.85886e-09
1.62303e-11
2.84382e-09
1.50384e-11
2.82997e-09
1.3856e-11
2.81729e-09
1.26771e-11
2.8058e-09
1.149e-11
2.79553e-09
1.02739e-11
2.78653e-09
8.99692e-12
2.77892e-09
7.61474e-12
2.77284e-09
6.07562e-12
2.76852e-09
4.3203e-12
2.76623e-09
2.28624e-12
2.76608e-09
1.57987e-13
2.76761e-09
-1.53261e-12
2.77049e-09
-2.88177e-12
2.77445e-09
-3.96362e-12
2.77924e-09
-4.7866e-12
2.7846e-09
-5.36294e-12
2.79032e-09
-5.71784e-12
2.7962e-09
-5.87841e-12
2.80208e-09
-5.88134e-12
2.80784e-09
-5.76003e-12
2.81339e-09
-5.54706e-12
2.81866e-09
-5.27073e-12
2.82361e-09
-4.95483e-12
2.82823e-09
-4.61834e-12
2.83251e-09
-4.27556e-12
2.83644e-09
-3.93684e-12
2.84005e-09
-3.60909e-12
2.84335e-09
-3.2966e-12
2.84635e-09
-3.00161e-12
2.84908e-09
-2.72487e-12
2.85154e-09
-2.46611e-12
2.85377e-09
-2.22444e-12
2.85577e-09
-1.99902e-12
2.85756e-09
-1.79267e-12
2.8592e-09
-1.63627e-12
2.86093e-09
-1.73609e-12
-3.65594e-12
3.38327e-08
3.18146e-09
-3.41168e-08
3.32323e-08
3.47648e-09
3.23973e-08
3.53255e-09
3.14048e-08
3.47792e-09
3.03107e-08
3.35095e-09
2.91609e-08
3.16716e-09
2.79929e-08
2.94362e-09
2.68354e-08
2.69692e-09
2.57094e-08
2.44127e-09
2.463e-08
2.18839e-09
2.36068e-08
1.94758e-09
2.26453e-08
1.72543e-09
2.17474e-08
1.52588e-09
2.09126e-08
1.35044e-09
2.0139e-08
1.19877e-09
1.94231e-08
1.06916e-09
1.87612e-08
9.59176e-10
1.81489e-08
8.66049e-10
1.75822e-08
7.87053e-10
1.70569e-08
7.19696e-10
1.65691e-08
6.61822e-10
1.61152e-08
6.11642e-10
1.56919e-08
5.67712e-10
1.52965e-08
5.28892e-10
1.49261e-08
4.94293e-10
1.45785e-08
4.63222e-10
1.42517e-08
4.35139e-10
1.39438e-08
4.09618e-10
1.36531e-08
3.8632e-10
1.33784e-08
3.64969e-10
1.31182e-08
3.45335e-10
1.28715e-08
3.27224e-10
1.26373e-08
3.10472e-10
1.24147e-08
2.94933e-10
1.22028e-08
2.80483e-10
1.20009e-08
2.6701e-10
1.18085e-08
2.54416e-10
1.16248e-08
2.42614e-10
1.14495e-08
2.31525e-10
1.12819e-08
2.2108e-10
1.11218e-08
2.11217e-10
1.09686e-08
2.01881e-10
1.08221e-08
1.93022e-10
1.06819e-08
1.84594e-10
1.05478e-08
1.76558e-10
1.04194e-08
1.68876e-10
1.02966e-08
1.61516e-10
1.01791e-08
1.54446e-10
1.00668e-08
1.47639e-10
9.95937e-09
1.4107e-10
9.85677e-09
1.34715e-10
9.75884e-09
1.28552e-10
9.66543e-09
1.2256e-10
9.57645e-09
1.16721e-10
9.4918e-09
1.11017e-10
9.41138e-09
1.05432e-10
9.33513e-09
9.99492e-11
9.26298e-09
9.45545e-11
9.19489e-09
8.92344e-11
9.1308e-09
8.39765e-11
9.07068e-09
7.87698e-11
9.01451e-09
7.36039e-11
8.96227e-09
6.84686e-11
8.91396e-09
6.33516e-11
8.86958e-09
5.8236e-11
8.82916e-09
5.30957e-11
8.79276e-09
4.78909e-11
8.76047e-09
4.25637e-11
8.73243e-09
3.70375e-11
8.70882e-09
3.12216e-11
8.68987e-09
2.50262e-11
8.67581e-09
1.83813e-11
8.66687e-09
1.12259e-11
8.66337e-09
3.66301e-12
8.66491e-09
-3.07903e-12
8.6703e-09
-8.2669e-12
8.67855e-09
-1.22158e-11
8.68892e-09
-1.5159e-11
8.70078e-09
-1.72244e-11
8.7136e-09
-1.85302e-11
8.7269e-09
-1.91864e-11
8.74034e-09
-1.93176e-11
8.75362e-09
-1.90357e-11
8.76651e-09
-1.84461e-11
8.77888e-09
-1.76401e-11
8.79062e-09
-1.66936e-11
8.80167e-09
-1.56676e-11
8.812e-09
-1.46083e-11
8.82162e-09
-1.35494e-11
8.83052e-09
-1.25141e-11
8.83874e-09
-1.15173e-11
8.84631e-09
-1.05674e-11
8.85325e-09
-9.66845e-12
8.85961e-09
-8.82108e-12
8.86541e-09
-8.02462e-12
8.87069e-09
-7.28048e-12
8.8755e-09
-6.60597e-12
8.87997e-09
-6.09955e-12
8.88449e-09
-6.25764e-12
-8.83433e-12
3.59155e-08
3.03115e-09
-3.57652e-08
3.59775e-08
3.41451e-09
3.59125e-08
3.59752e-09
3.57252e-08
3.66522e-09
3.54256e-08
3.65057e-09
3.50276e-08
3.56516e-09
3.45485e-08
3.4227e-09
3.40062e-08
3.23921e-09
3.34176e-08
3.02988e-09
3.27978e-08
2.80817e-09
3.21599e-08
2.58549e-09
3.15146e-08
2.37074e-09
3.08703e-08
2.17015e-09
3.02334e-08
1.98734e-09
2.96085e-08
1.82374e-09
2.89985e-08
1.67913e-09
2.84055e-08
1.5522e-09
2.78305e-08
1.44101e-09
2.72741e-08
1.34346e-09
2.67364e-08
1.25743e-09
2.62172e-08
1.18104e-09
2.57161e-08
1.11266e-09
2.52329e-08
1.05096e-09
2.47669e-08
9.9484e-10
2.43178e-08
9.43451e-10
2.38849e-08
8.96115e-10
2.34677e-08
8.52296e-10
2.30658e-08
8.11572e-10
2.26785e-08
7.73598e-10
2.23054e-08
7.38092e-10
2.19459e-08
7.04814e-10
2.15996e-08
6.73562e-10
2.12659e-08
6.44156e-10
2.09444e-08
6.16437e-10
2.06346e-08
5.90265e-10
2.03361e-08
5.65509e-10
2.00485e-08
5.42053e-10
1.97713e-08
5.19791e-10
1.95042e-08
4.98624e-10
1.92468e-08
4.78464e-10
1.89988e-08
4.59228e-10
1.87598e-08
4.40839e-10
1.85296e-08
4.23228e-10
1.83079e-08
4.0633e-10
1.80944e-08
3.90086e-10
1.78888e-08
3.74438e-10
1.7691e-08
3.59335e-10
1.75007e-08
3.44729e-10
1.73178e-08
3.30574e-10
1.7142e-08
3.16827e-10
1.69733e-08
3.03448e-10
1.68114e-08
2.90398e-10
1.66563e-08
2.77642e-10
1.65079e-08
2.65144e-10
1.63661e-08
2.52874e-10
1.62307e-08
2.40798e-10
1.61018e-08
2.28887e-10
1.59792e-08
2.17114e-10
1.5863e-08
2.05451e-10
1.57531e-08
1.93873e-10
1.56495e-08
1.82356e-10
1.55522e-08
1.70877e-10
1.54613e-08
1.59412e-10
1.53767e-08
1.47931e-10
1.52985e-08
1.36401e-10
1.52269e-08
1.24771e-10
1.51618e-08
1.12977e-10
1.51034e-08
1.00935e-10
1.50519e-08
8.85481e-11
1.50074e-08
7.57259e-11
1.497e-08
6.24176e-11
1.49397e-08
4.8673e-11
1.49162e-08
3.47077e-11
1.48991e-08
2.0773e-11
1.48891e-08
6.95496e-12
1.48863e-08
-5.48191e-12
1.48892e-08
-1.51651e-11
1.48965e-08
-2.2415e-11
1.4907e-08
-2.76951e-11
1.49198e-08
-3.1326e-11
1.49341e-08
-3.3564e-11
1.49495e-08
-3.46722e-11
1.49653e-08
-3.48777e-11
1.49813e-08
-3.43922e-11
1.4997e-08
-3.3397e-11
1.50124e-08
-3.20458e-11
1.50272e-08
-3.0463e-11
1.50413e-08
-2.87457e-11
1.50547e-08
-2.69674e-11
1.50674e-08
-2.51807e-11
1.50793e-08
-2.34218e-11
1.50905e-08
-2.17142e-11
1.51009e-08
-2.00716e-11
1.51105e-08
-1.85009e-11
1.51195e-08
-1.70059e-11
1.51278e-08
-1.55934e-11
1.51355e-08
-1.42946e-11
1.51427e-08
-1.32454e-11
1.51494e-08
-1.29958e-11
-1.47914e-11
3.74732e-08
2.84053e-09
-3.72826e-08
3.76695e-08
3.21828e-09
3.78257e-08
3.44134e-09
3.79285e-08
3.56235e-09
3.79708e-08
3.60833e-09
3.79478e-08
3.58815e-09
3.78595e-08
3.51096e-09
3.77097e-08
3.38902e-09
3.75044e-08
3.23519e-09
3.72511e-08
3.06152e-09
3.69578e-08
2.8788e-09
3.66325e-08
2.696e-09
3.62827e-08
2.51993e-09
3.59149e-08
2.35516e-09
3.55345e-08
2.20418e-09
3.51457e-08
2.06785e-09
3.47521e-08
1.94582e-09
3.43561e-08
1.837e-09
3.39597e-08
1.7399e-09
3.35642e-08
1.65291e-09
3.31707e-08
1.5745e-09
3.27801e-08
1.5033e-09
3.23929e-08
1.43812e-09
3.20098e-08
1.378e-09
3.16311e-08
1.32217e-09
3.12572e-08
1.27e-09
3.08885e-08
1.22102e-09
3.05252e-08
1.17482e-09
3.01677e-08
1.13111e-09
2.98162e-08
1.08964e-09
2.94708e-08
1.05019e-09
2.91317e-08
1.01259e-09
2.87992e-08
9.76692e-10
2.84733e-08
9.42358e-10
2.81541e-08
9.0947e-10
2.78417e-08
8.77919e-10
2.75361e-08
8.47607e-10
2.72375e-08
8.18442e-10
2.69458e-08
7.90342e-10
2.6661e-08
7.63228e-10
2.63832e-08
7.37027e-10
2.61124e-08
7.11671e-10
2.58485e-08
6.87096e-10
2.55916e-08
6.63242e-10
2.53416e-08
6.4005e-10
2.50986e-08
6.17466e-10
2.48625e-08
5.95439e-10
2.46333e-08
5.73918e-10
2.4411e-08
5.52856e-10
2.41956e-08
5.32206e-10
2.39872e-08
5.11924e-10
2.37856e-08
4.91966e-10
2.35909e-08
4.7229e-10
2.34032e-08
4.52856e-10
2.32225e-08
4.33622e-10
2.30487e-08
4.14551e-10
2.2882e-08
3.95604e-10
2.27224e-08
3.76744e-10
2.25699e-08
3.57935e-10
2.24246e-08
3.39143e-10
2.22866e-08
3.20333e-10
2.21561e-08
3.01472e-10
2.20329e-08
2.82522e-10
2.19174e-08
2.63442e-10
2.18097e-08
2.44181e-10
2.17097e-08
2.24676e-10
2.16179e-08
2.04848e-10
2.15342e-08
1.84612e-10
2.14589e-08
1.63884e-10
2.1392e-08
1.42616e-10
2.13335e-08
1.20844e-10
2.12835e-08
9.87536e-11
2.12414e-08
7.67458e-11
2.12068e-08
5.54259e-11
2.11783e-08
3.54071e-11
2.11563e-08
1.6556e-11
2.1142e-08
-8.64613e-13
2.11349e-08
-1.53128e-11
2.11335e-08
-2.62746e-11
2.11365e-08
-3.4399e-11
2.11431e-08
-4.01242e-11
2.11523e-08
-4.38823e-11
2.11635e-08
-4.60321e-11
2.1176e-08
-4.69112e-11
2.11894e-08
-4.6808e-11
2.12033e-08
-4.59707e-11
2.12175e-08
-4.46042e-11
2.12316e-08
-4.2873e-11
2.12455e-08
-4.09064e-11
2.12591e-08
-3.88018e-11
2.12724e-08
-3.66311e-11
2.12851e-08
-3.4445e-11
2.12973e-08
-3.22779e-11
2.13089e-08
-3.01523e-11
2.132e-08
-2.80834e-11
2.13305e-08
-2.6087e-11
2.13404e-08
-2.42001e-11
2.13497e-08
-2.25438e-11
2.13582e-08
-2.15022e-11
-2.14852e-11
3.89905e-08
2.67412e-09
-3.88241e-08
3.91893e-08
3.01949e-09
3.93836e-08
3.24707e-09
3.95598e-08
3.38612e-09
3.97099e-08
3.45819e-09
3.98263e-08
3.47177e-09
3.99035e-08
3.43382e-09
3.99388e-08
3.35371e-09
3.99321e-08
3.24185e-09
3.98853e-08
3.10834e-09
3.98016e-08
2.96246e-09
3.96854e-08
2.81224e-09
3.95412e-08
2.66411e-09
3.93737e-08
2.52267e-09
3.9187e-08
2.39083e-09
3.89849e-08
2.27e-09
3.87702e-08
2.16045e-09
3.85455e-08
2.06169e-09
3.83127e-08
1.97274e-09
3.80732e-08
1.89245e-09
3.78281e-08
1.81958e-09
3.75784e-08
1.753e-09
3.73248e-08
1.6917e-09
3.7068e-08
1.63484e-09
3.68084e-08
1.5817e-09
3.65467e-08
1.53173e-09
3.62833e-08
1.48446e-09
3.60185e-08
1.43955e-09
3.5753e-08
1.39669e-09
3.54869e-08
1.35567e-09
3.52208e-08
1.31629e-09
3.4955e-08
1.27839e-09
3.46899e-08
1.24183e-09
3.44258e-08
1.20651e-09
3.41629e-08
1.17231e-09
3.39017e-08
1.13915e-09
3.36424e-08
1.10694e-09
3.33852e-08
1.0756e-09
3.31305e-08
1.04508e-09
3.28784e-08
1.01529e-09
3.26293e-08
9.86181e-10
3.23832e-08
9.57696e-10
3.21405e-08
9.29779e-10
3.19014e-08
9.02379e-10
3.1666e-08
8.75447e-10
3.14345e-08
8.48933e-10
3.12072e-08
8.22793e-10
3.09841e-08
7.9698e-10
3.07655e-08
7.71452e-10
3.05516e-08
7.46164e-10
3.03424e-08
7.21073e-10
3.01383e-08
6.96138e-10
2.99392e-08
6.71315e-10
2.97455e-08
6.46565e-10
2.95573e-08
6.21843e-10
2.93747e-08
5.97111e-10
2.9198e-08
5.72325e-10
2.90273e-08
5.47447e-10
2.88628e-08
5.22436e-10
2.87047e-08
4.97252e-10
2.85532e-08
4.71856e-10
2.84084e-08
4.46206e-10
2.82707e-08
4.20259e-10
2.81402e-08
3.93966e-10
2.80171e-08
3.67267e-10
2.79017e-08
3.40098e-10
2.77941e-08
3.12382e-10
2.76947e-08
2.8405e-10
2.76035e-08
2.55057e-10
2.75207e-08
2.2542e-10
2.74463e-08
1.95274e-10
2.73801e-08
1.6493e-10
2.73219e-08
1.3492e-10
2.72714e-08
1.05971e-10
2.7228e-08
7.88416e-11
2.71905e-08
5.4059e-11
2.71578e-08
3.17817e-11
2.71309e-08
1.15634e-11
2.71109e-08
-6.23677e-12
2.7097e-08
-2.0544e-11
2.70884e-08
-3.14439e-11
2.7084e-08
-3.95334e-11
2.70832e-08
-4.52553e-11
2.70854e-08
-4.90463e-11
2.70898e-08
-5.12795e-11
2.70962e-08
-5.22875e-11
2.71039e-08
-5.23506e-11
2.71127e-08
-5.17011e-11
2.71224e-08
-5.05274e-11
2.71325e-08
-4.89779e-11
2.71431e-08
-4.71676e-11
2.71538e-08
-4.51832e-11
2.71646e-08
-4.30889e-11
2.71754e-08
-4.09308e-11
2.71861e-08
-3.87428e-11
2.71965e-08
-3.65531e-11
2.72067e-08
-3.43973e-11
2.72165e-08
-3.23441e-11
2.72255e-08
-3.05009e-11
-2.8248e-11
4.05462e-08
2.5345e-09
-4.04066e-08
4.07237e-08
2.84207e-09
4.09098e-08
3.06098e-09
4.10915e-08
3.20435e-09
4.12621e-08
3.28766e-09
4.14149e-08
3.31894e-09
4.15445e-08
3.30417e-09
4.16473e-08
3.25091e-09
4.17214e-08
3.16775e-09
4.17665e-08
3.06324e-09
4.17837e-08
2.94532e-09
4.17749e-08
2.82101e-09
4.17429e-08
2.69609e-09
4.16907e-08
2.57491e-09
4.16211e-08
2.4604e-09
4.15369e-08
2.35423e-09
4.14403e-08
2.25705e-09
4.13332e-08
2.16875e-09
4.12172e-08
2.08878e-09
4.10934e-08
2.01627e-09
4.09626e-08
1.9503e-09
4.08257e-08
1.88992e-09
4.06831e-08
1.83428e-09
4.05353e-08
1.78263e-09
4.03827e-08
1.73433e-09
4.02256e-08
1.68885e-09
4.00643e-08
1.64576e-09
3.98991e-08
1.60472e-09
3.97304e-08
1.56544e-09
3.95584e-08
1.5277e-09
3.93833e-08
1.49131e-09
3.92056e-08
1.45611e-09
3.90255e-08
1.42197e-09
3.88432e-08
1.38877e-09
3.86591e-08
1.35641e-09
3.84734e-08
1.32482e-09
3.82865e-08
1.2939e-09
3.80985e-08
1.26358e-09
3.79098e-08
1.2338e-09
3.77206e-08
1.20449e-09
3.75311e-08
1.17561e-09
3.73418e-08
1.14709e-09
3.71526e-08
1.11888e-09
3.69641e-08
1.09094e-09
3.67763e-08
1.06321e-09
3.65896e-08
1.03566e-09
3.64042e-08
1.00823e-09
3.62203e-08
9.80886e-10
3.60381e-08
9.53582e-10
3.5858e-08
9.26274e-10
3.56802e-08
8.9892e-10
3.55048e-08
8.71477e-10
3.53322e-08
8.43901e-10
3.51627e-08
8.1615e-10
3.49963e-08
7.8818e-10
3.48335e-08
7.59946e-10
3.46744e-08
7.31407e-10
3.45193e-08
7.02517e-10
3.43685e-08
6.73234e-10
3.42223e-08
6.43515e-10
3.40808e-08
6.13315e-10
3.39444e-08
5.8259e-10
3.38134e-08
5.5129e-10
3.3688e-08
5.19364e-10
3.35685e-08
4.86754e-10
3.34552e-08
4.53397e-10
3.33484e-08
4.19233e-10
3.32482e-08
3.84221e-10
3.31549e-08
3.48362e-10
3.30686e-08
3.11743e-10
3.29893e-08
2.74586e-10
3.29169e-08
2.373e-10
3.28513e-08
2.00503e-10
3.27923e-08
1.6497e-10
3.27396e-08
1.31509e-10
3.26929e-08
1.00754e-10
3.26517e-08
7.30715e-11
3.26146e-08
4.86258e-11
3.25811e-08
2.72613e-11
3.25521e-08
8.45269e-12
3.25283e-08
-7.6526e-12
3.25093e-08
-2.05518e-11
3.24946e-08
-3.05177e-11
3.24836e-08
-3.80458e-11
3.24758e-08
-4.35337e-11
3.24709e-08
-4.73547e-11
3.24684e-08
-4.98286e-11
3.24679e-08
-5.12308e-11
3.24692e-08
-5.17906e-11
3.24719e-08
-5.16953e-11
3.24758e-08
-5.10955e-11
3.24807e-08
-5.01099e-11
3.24865e-08
-4.88305e-11
3.24929e-08
-4.73279e-11
3.24998e-08
-4.56555e-11
3.25071e-08
-4.38538e-11
3.25147e-08
-4.19533e-11
3.25223e-08
-3.99596e-11
3.25295e-08
-3.77083e-11
-3.36962e-11
4.21534e-08
2.4156e-09
-4.20345e-08
4.23086e-08
2.6868e-09
4.24779e-08
2.8917e-09
4.26486e-08
3.03361e-09
4.28141e-08
3.12219e-09
4.29688e-08
3.16421e-09
4.31081e-08
3.1649e-09
4.32286e-08
3.13048e-09
4.33282e-08
3.06812e-09
4.34063e-08
2.98513e-09
4.34632e-08
2.88838e-09
4.35002e-08
2.78404e-09
4.3519e-08
2.67728e-09
4.35218e-08
2.57215e-09
4.35107e-08
2.4715e-09
4.34878e-08
2.37713e-09
4.34549e-08
2.28993e-09
4.34136e-08
2.2101e-09
4.3365e-08
2.13736e-09
4.33101e-08
2.07117e-09
4.32496e-08
2.0108e-09
4.3184e-08
1.95551e-09
4.31137e-08
1.90459e-09
4.3039e-08
1.85737e-09
4.296e-08
1.81329e-09
4.2877e-08
1.77186e-09
4.27901e-08
1.73268e-09
4.26994e-08
1.6954e-09
4.2605e-08
1.65976e-09
4.25072e-08
1.62551e-09
4.24061e-08
1.59248e-09
4.23017e-08
1.56048e-09
4.21943e-08
1.5294e-09
4.20839e-08
1.49911e-09
4.19708e-08
1.4695e-09
4.18552e-08
1.44048e-09
4.17371e-08
1.41197e-09
4.16168e-08
1.38388e-09
4.14944e-08
1.35616e-09
4.13702e-08
1.32873e-09
4.12443e-08
1.30153e-09
4.11169e-08
1.27451e-09
4.09881e-08
1.24761e-09
4.08583e-08
1.22078e-09
4.07275e-08
1.19397e-09
4.05961e-08
1.16712e-09
4.04641e-08
1.1402e-09
4.03318e-08
1.11315e-09
4.01995e-08
1.08592e-09
4.00673e-08
1.05847e-09
3.99355e-08
1.03075e-09
3.98042e-08
1.00272e-09
3.96738e-08
9.74318e-10
3.95445e-08
9.45508e-10
3.94164e-08
9.16238e-10
3.92899e-08
8.8646e-10
3.91652e-08
8.56126e-10
3.90425e-08
8.25186e-10
3.89221e-08
7.93594e-10
3.88043e-08
7.613e-10
3.86894e-08
7.28257e-10
3.85776e-08
6.94415e-10
3.84691e-08
6.59724e-10
3.83644e-08
6.24129e-10
3.82636e-08
5.87577e-10
3.81669e-08
5.50015e-10
3.80748e-08
5.11402e-10
3.79873e-08
4.71727e-10
3.79046e-08
4.31036e-10
3.78269e-08
3.89475e-10
3.77541e-08
3.47334e-10
3.76863e-08
3.05083e-10
3.76234e-08
2.6338e-10
3.75654e-08
2.23018e-10
3.75121e-08
1.848e-10
3.74635e-08
1.4939e-10
3.74193e-08
1.17234e-10
3.73794e-08
8.85827e-11
3.73432e-08
6.34541e-11
3.73099e-08
4.17265e-11
3.72791e-08
2.30913e-11
3.72516e-08
7.03409e-12
3.72276e-08
-6.53902e-12
3.7207e-08
-1.75011e-11
3.71896e-08
-2.61376e-11
3.71751e-08
-3.28375e-11
3.71632e-08
-3.79204e-11
3.71537e-08
-4.16724e-11
3.71462e-08
-4.43363e-11
3.71406e-08
-4.61167e-11
3.71367e-08
-4.71821e-11
3.71343e-08
-4.76695e-11
3.71331e-08
-4.76888e-11
3.71331e-08
-4.73265e-11
3.71341e-08
-4.66499e-11
3.7136e-08
-4.57076e-11
3.71385e-08
-4.4523e-11
3.71416e-08
-4.30513e-11
3.71449e-08
-4.09554e-11
-3.63781e-11
4.38148e-08
2.31218e-09
-4.37114e-08
4.3951e-08
2.55067e-09
4.41032e-08
2.73951e-09
4.426e-08
2.87679e-09
4.44146e-08
2.96754e-09
4.4562e-08
3.01682e-09
4.46979e-08
3.02903e-09
4.48191e-08
3.00924e-09
4.49238e-08
2.96342e-09
4.50112e-08
2.89776e-09
4.50814e-08
2.81822e-09
4.51352e-08
2.73021e-09
4.51741e-08
2.63837e-09
4.51998e-08
2.54644e-09
4.52141e-08
2.45716e-09
4.52189e-08
2.37239e-09
4.52156e-08
2.2932e-09
4.52057e-08
2.22002e-09
4.51902e-08
2.15283e-09
4.51701e-08
2.09132e-09
4.51459e-08
2.03499e-09
4.51181e-08
1.98327e-09
4.50871e-08
1.93559e-09
4.50531e-08
1.89139e-09
4.50162e-08
1.85017e-09
4.49766e-08
1.8115e-09
4.49343e-08
1.77501e-09
4.48893e-08
1.74037e-09
4.48417e-08
1.70731e-09
4.47916e-08
1.67561e-09
4.4739e-08
1.64509e-09
4.46839e-08
1.61556e-09
4.46265e-08
1.5869e-09
4.45666e-08
1.55897e-09
4.45044e-08
1.53167e-09
4.444e-08
1.5049e-09
4.43734e-08
1.47856e-09
4.43047e-08
1.45259e-09
4.4234e-08
1.42688e-09
4.41613e-08
1.40139e-09
4.40868e-08
1.37604e-09
4.40105e-08
1.35077e-09
4.39326e-08
1.32551e-09
4.38532e-08
1.30022e-09
4.37723e-08
1.27482e-09
4.36902e-08
1.24927e-09
4.36069e-08
1.22351e-09
4.35225e-08
1.1975e-09
4.34373e-08
1.17116e-09
4.33513e-08
1.14446e-09
4.32647e-08
1.11733e-09
4.31777e-08
1.08972e-09
4.30905e-08
1.06159e-09
4.30031e-08
1.03287e-09
4.29158e-08
1.00351e-09
4.28288e-08
9.73457e-10
4.27423e-08
9.42656e-10
4.26564e-08
9.11052e-10
4.25714e-08
8.78591e-10
4.24875e-08
8.4522e-10
4.24049e-08
8.10885e-10
4.23238e-08
7.75534e-10
4.22444e-08
7.39113e-10
4.21669e-08
7.0157e-10
4.20917e-08
6.62856e-10
4.20187e-08
6.22928e-10
4.19484e-08
5.81765e-10
4.18807e-08
5.39385e-10
4.18159e-08
4.95871e-10
4.17539e-08
4.51411e-10
4.16949e-08
4.06336e-10
4.16389e-08
3.61144e-10
4.15858e-08
3.165e-10
4.15356e-08
2.73178e-10
4.14884e-08
2.31958e-10
4.14443e-08
1.935e-10
4.14033e-08
1.58275e-10
4.13653e-08
1.2657e-10
4.13303e-08
9.84756e-11
4.12981e-08
7.39401e-11
4.12684e-08
5.27676e-11
4.12407e-08
3.46816e-11
4.12149e-08
1.93228e-11
4.11911e-08
6.24548e-12
4.11698e-08
-4.75819e-12
4.11507e-08
-1.37585e-11
4.11338e-08
-2.09994e-11
4.11189e-08
-2.67684e-11
4.11058e-08
-3.13044e-11
4.10945e-08
-3.48129e-11
4.10848e-08
-3.74669e-11
4.10765e-08
-3.94097e-11
4.10696e-08
-4.07589e-11
4.10639e-08
-4.16091e-11
4.10593e-08
-4.20345e-11
4.10557e-08
-4.20877e-11
4.10529e-08
-4.1787e-11
4.10509e-08
-4.10633e-11
4.10495e-08
-3.95422e-11
-3.56271e-11
4.55325e-08
2.22057e-09
-4.54409e-08
4.56527e-08
2.4305e-09
4.57892e-08
2.60292e-09
4.59324e-08
2.73365e-09
4.60755e-08
2.82446e-09
4.62136e-08
2.8787e-09
4.63428e-08
2.89985e-09
4.646e-08
2.89202e-09
4.65634e-08
2.86005e-09
4.6652e-08
2.80915e-09
4.67258e-08
2.74443e-09
4.67854e-08
2.67061e-09
4.68319e-08
2.59182e-09
4.68669e-08
2.51149e-09
4.68918e-08
2.43223e-09
4.69083e-08
2.35589e-09
4.69178e-08
2.28367e-09
4.69217e-08
2.21619e-09
4.69209e-08
2.15362e-09
4.69163e-08
2.09587e-09
4.69087e-08
2.04264e-09
4.68984e-08
1.99352e-09
4.68859e-08
1.94808e-09
4.68714e-08
1.90585e-09
4.68552e-08
1.86644e-09
4.68372e-08
1.82945e-09
4.68177e-08
1.79456e-09
4.67966e-08
1.76148e-09
4.67739e-08
1.72995e-09
4.67498e-08
1.69976e-09
4.67242e-08
1.67072e-09
4.6697e-08
1.64268e-09
4.66684e-08
1.6155e-09
4.66384e-08
1.58904e-09
4.66068e-08
1.5632e-09
4.65738e-08
1.53788e-09
4.65394e-08
1.51298e-09
4.65036e-08
1.48843e-09
4.64663e-08
1.46413e-09
4.64277e-08
1.44001e-09
4.63878e-08
1.41601e-09
4.63465e-08
1.39206e-09
4.63039e-08
1.36808e-09
4.62601e-08
1.34402e-09
4.62151e-08
1.31982e-09
4.6169e-08
1.29541e-09
4.61217e-08
1.27073e-09
4.60735e-08
1.24573e-09
4.60243e-08
1.22035e-09
4.59743e-08
1.19452e-09
4.59234e-08
1.16819e-09
4.58718e-08
1.14129e-09
4.58196e-08
1.11377e-09
4.57669e-08
1.08557e-09
4.57138e-08
1.05662e-09
4.56604e-08
1.02687e-09
4.56068e-08
9.96251e-10
4.55532e-08
9.64709e-10
4.54996e-08
9.32184e-10
4.54462e-08
8.98617e-10
4.53931e-08
8.63951e-10
4.53405e-08
8.28131e-10
4.52885e-08
7.91102e-10
4.52373e-08
7.52814e-10
4.51869e-08
7.13223e-10
4.51375e-08
6.723e-10
4.50893e-08
6.3004e-10
4.50422e-08
5.86483e-10
4.49963e-08
5.41741e-10
4.49517e-08
4.96025e-10
4.49083e-08
4.49686e-10
4.48663e-08
4.03222e-10
4.48255e-08
3.57278e-10
4.47861e-08
3.12587e-10
4.47481e-08
2.69889e-10
4.47118e-08
2.29818e-10
4.46773e-08
1.9285e-10
4.46445e-08
1.59287e-10
4.46138e-08
1.29258e-10
4.45849e-08
1.02752e-10
4.45581e-08
7.96338e-11
4.45331e-08
5.96827e-11
4.45098e-08
4.26116e-11
4.44879e-08
2.81045e-11
4.44673e-08
1.58256e-11
4.44482e-08
5.41815e-12
4.44305e-08
-3.34037e-12
4.44143e-08
-1.05858e-11
4.43995e-08
-1.65149e-11
4.43861e-08
-2.13329e-11
4.43738e-08
-2.52105e-11
4.43627e-08
-2.82921e-11
4.43526e-08
-3.06981e-11
4.43435e-08
-3.25271e-11
4.43354e-08
-3.38577e-11
4.4328e-08
-3.47455e-11
4.43214e-08
-3.52098e-11
4.43156e-08
-3.51863e-11
4.43104e-08
-3.43732e-11
-3.17897e-11
4.73085e-08
2.13825e-09
-4.72262e-08
4.74154e-08
2.3236e-09
4.75381e-08
2.48022e-09
4.76685e-08
2.60329e-09
4.78003e-08
2.69261e-09
4.7929e-08
2.75001e-09
4.80508e-08
2.77809e-09
4.81627e-08
2.78008e-09
4.82629e-08
2.75988e-09
4.83502e-08
2.72179e-09
4.84245e-08
2.67014e-09
4.84861e-08
2.60901e-09
4.85359e-08
2.54205e-09
4.85751e-08
2.47234e-09
4.86049e-08
2.40235e-09
4.86269e-08
2.33389e-09
4.86424e-08
2.26822e-09
4.86525e-08
2.20607e-09
4.86583e-08
2.14782e-09
4.86607e-08
2.09352e-09
4.86602e-08
2.04306e-09
4.86576e-08
1.99616e-09
4.86532e-08
1.95252e-09
4.86472e-08
1.9118e-09
4.864e-08
1.87366e-09
4.86317e-08
1.83778e-09
4.86223e-08
1.80389e-09
4.86121e-08
1.77171e-09
4.8601e-08
1.74103e-09
4.85891e-08
1.71165e-09
4.85764e-08
1.68341e-09
4.8563e-08
1.65613e-09
4.85488e-08
1.6297e-09
4.85338e-08
1.60399e-09
4.85181e-08
1.5789e-09
4.85017e-08
1.55432e-09
4.84845e-08
1.53016e-09
4.84666e-08
1.50634e-09
4.84479e-08
1.48279e-09
4.84285e-08
1.45941e-09
4.84084e-08
1.43615e-09
4.83875e-08
1.41293e-09
4.83659e-08
1.38969e-09
4.83436e-08
1.36636e-09
4.83205e-08
1.34287e-09
4.82968e-08
1.31917e-09
4.82723e-08
1.29518e-09
4.82472e-08
1.27085e-09
4.82214e-08
1.24612e-09
4.8195e-08
1.22092e-09
4.8168e-08
1.19519e-09
4.81405e-08
1.16886e-09
4.81124e-08
1.14187e-09
4.80838e-08
1.11416e-09
4.80547e-08
1.08567e-09
4.80253e-08
1.05632e-09
4.79955e-08
1.02605e-09
4.79654e-08
9.94812e-10
4.7935e-08
9.62529e-10
4.79045e-08
9.29145e-10
4.78738e-08
8.946e-10
4.78431e-08
8.58839e-10
4.78124e-08
8.21809e-10
4.77818e-08
7.83463e-10
4.77512e-08
7.43765e-10
4.77208e-08
7.02695e-10
4.76906e-08
6.60265e-10
4.76606e-08
6.16532e-10
4.76307e-08
5.71624e-10
4.76009e-08
5.25768e-10
4.75713e-08
4.79312e-10
4.75418e-08
4.32738e-10
4.75124e-08
3.86652e-10
4.74833e-08
3.41736e-10
4.74545e-08
2.98672e-10
4.74263e-08
2.58061e-10
4.73987e-08
2.20365e-10
4.73721e-08
1.85893e-10
4.73466e-08
1.54799e-10
4.73222e-08
1.27101e-10
4.72992e-08
1.02705e-10
4.72774e-08
8.14325e-11
4.7257e-08
6.30447e-11
4.72378e-08
4.72683e-11
4.72198e-08
3.38133e-11
4.72029e-08
2.23907e-11
4.71868e-08
1.27219e-11
4.71717e-08
4.53981e-12
4.71575e-08
-2.34745e-12
4.71443e-08
-8.07898e-12
4.71318e-08
-1.28065e-11
4.71202e-08
-1.66754e-11
4.71093e-08
-1.98073e-11
4.70991e-08
-2.23035e-11
4.70895e-08
-2.42469e-11
4.70805e-08
-2.5698e-11
4.70719e-08
-2.66847e-11
4.70639e-08
-2.71697e-11
4.70565e-08
-2.69767e-11
-2.57507e-11
4.91454e-08
2.06348e-09
-4.90706e-08
4.92412e-08
2.22777e-09
4.93517e-08
2.36972e-09
4.94703e-08
2.4847e-09
4.95915e-08
2.57138e-09
4.9711e-08
2.63049e-09
4.98253e-08
2.66382e-09
4.99316e-08
2.67382e-09
5.00279e-08
2.66358e-09
5.01131e-08
2.63661e-09
5.01867e-08
2.59651e-09
5.02489e-08
2.54679e-09
5.03003e-08
2.49063e-09
5.03419e-08
2.43079e-09
5.03747e-08
2.36953e-09
5.04e-08
2.30862e-09
5.04189e-08
2.2493e-09
5.04325e-08
2.19241e-09
5.04419e-08
2.13845e-09
5.04478e-08
2.0876e-09
5.0451e-08
2.03989e-09
5.0452e-08
1.99519e-09
5.04512e-08
1.95331e-09
5.0449e-08
1.91399e-09
5.04457e-08
1.87698e-09
5.04414e-08
1.84203e-09
5.04364e-08
1.8089e-09
5.04308e-08
1.77737e-09
5.04245e-08
1.74725e-09
5.04178e-08
1.71836e-09
5.04107e-08
1.69054e-09
5.04032e-08
1.66366e-09
5.03953e-08
1.63758e-09
5.03871e-08
1.61221e-09
5.03786e-08
1.58743e-09
5.03697e-08
1.56315e-09
5.03606e-08
1.53929e-09
5.03512e-08
1.51576e-09
5.03415e-08
1.49248e-09
5.03315e-08
1.46939e-09
5.03212e-08
1.44642e-09
5.03107e-08
1.42348e-09
5.02999e-08
1.40053e-09
5.02887e-08
1.37749e-09
5.02773e-08
1.35429e-09
5.02656e-08
1.33089e-09
5.02536e-08
1.3072e-09
5.02412e-08
1.28318e-09
5.02286e-08
1.25875e-09
5.02157e-08
1.23386e-09
5.02024e-08
1.20843e-09
5.01889e-08
1.18241e-09
5.0175e-08
1.15572e-09
5.01609e-08
1.12831e-09
5.01464e-08
1.10011e-09
5.01317e-08
1.07105e-09
5.01167e-08
1.04107e-09
5.01014e-08
1.0101e-09
5.00858e-08
9.78085e-10
5.007e-08
9.44961e-10
5.0054e-08
9.1067e-10
5.00376e-08
8.75158e-10
5.00211e-08
8.38375e-10
5.00043e-08
8.00282e-10
4.99872e-08
7.60849e-10
4.99698e-08
7.20068e-10
4.99521e-08
6.77962e-10
4.9934e-08
6.34604e-10
4.99155e-08
5.90131e-10
4.98965e-08
5.44774e-10
4.9877e-08
4.9887e-10
4.98568e-08
4.52873e-10
4.98361e-08
4.07342e-10
4.9815e-08
3.62898e-10
4.97935e-08
3.20166e-10
4.97718e-08
2.79703e-10
4.97503e-08
2.41949e-10
4.97289e-08
2.0721e-10
4.97081e-08
1.75655e-10
4.96879e-08
1.47329e-10
4.96684e-08
1.22171e-10
4.96498e-08
1.00039e-10
4.96321e-08
8.07313e-11
4.96154e-08
6.4012e-11
4.95995e-08
4.96256e-11
4.95846e-08
3.73141e-11
4.95705e-08
2.6827e-11
4.95571e-08
1.79302e-11
4.95444e-08
1.04096e-11
4.95322e-08
4.07134e-12
4.95206e-08
-1.23755e-12
4.95096e-08
-5.63755e-12
4.9499e-08
-9.24267e-12
4.94889e-08
-1.21578e-11
4.94791e-08
-1.44704e-11
4.94697e-08
-1.62479e-11
4.94605e-08
-1.75322e-11
4.94517e-08
-1.83244e-11
4.94433e-08
-1.85753e-11
-1.83632e-11
5.10456e-08
1.99504e-09
-5.09771e-08
5.1132e-08
2.1413e-09
5.12318e-08
2.26994e-09
5.13397e-08
2.3768e-09
5.1451e-08
2.46009e-09
5.15617e-08
2.51977e-09
5.16686e-08
2.55691e-09
5.17691e-08
2.57334e-09
5.18612e-08
2.57146e-09
5.19438e-08
2.55406e-09
5.20161e-08
2.52414e-09
5.20783e-08
2.48465e-09
5.21306e-08
2.43833e-09
5.21737e-08
2.38764e-09
5.22086e-08
2.33463e-09
5.22363e-08
2.28094e-09
5.22578e-08
2.22783e-09
5.2274e-08
2.17618e-09
5.22859e-08
2.12654e-09
5.22943e-08
2.07924e-09
5.22998e-08
2.0344e-09
5.23029e-08
1.99202e-09
5.23043e-08
1.95198e-09
5.23041e-08
1.91414e-09
5.23028e-08
1.87831e-09
5.23005e-08
1.84431e-09
5.22975e-08
1.81194e-09
5.22938e-08
1.78102e-09
5.22897e-08
1.75139e-09
5.22851e-08
1.72289e-09
5.22803e-08
1.69539e-09
5.22752e-08
1.66876e-09
5.22699e-08
1.64289e-09
5.22644e-08
1.61768e-09
5.22588e-08
1.59302e-09
5.22531e-08
1.56884e-09
5.22474e-08
1.54506e-09
5.22415e-08
1.52159e-09
5.22356e-08
1.49836e-09
5.22297e-08
1.4753e-09
5.22238e-08
1.45236e-09
5.22178e-08
1.42945e-09
5.22118e-08
1.40652e-09
5.22058e-08
1.3835e-09
5.21998e-08
1.36033e-09
5.21937e-08
1.33696e-09
5.21876e-08
1.31331e-09
5.21815e-08
1.28933e-09
5.21753e-08
1.26495e-09
5.2169e-08
1.24011e-09
5.21627e-08
1.21475e-09
5.21563e-08
1.18881e-09
5.21498e-08
1.16222e-09
5.21432e-08
1.13491e-09
5.21365e-08
1.10683e-09
5.21296e-08
1.07791e-09
5.21226e-08
1.04808e-09
5.21154e-08
1.01728e-09
5.2108e-08
9.85461e-10
5.21004e-08
9.52552e-10
5.20926e-08
9.18503e-10
5.20845e-08
8.83264e-10
5.20761e-08
8.46789e-10
5.20673e-08
8.09047e-10
5.20582e-08
7.70017e-10
5.20485e-08
7.29702e-10
5.20384e-08
6.88137e-10
5.20276e-08
6.45403e-10
5.2016e-08
6.01645e-10
5.20037e-08
5.57089e-10
5.19905e-08
5.12058e-10
5.19764e-08
4.66973e-10
5.19614e-08
4.22344e-10
5.19456e-08
3.78731e-10
5.19291e-08
3.367e-10
5.1912e-08
2.96762e-10
5.18946e-08
2.5933e-10
5.18771e-08
2.24702e-10
5.18597e-08
1.93056e-10
5.18426e-08
1.64457e-10
5.18259e-08
1.38872e-10
5.18097e-08
1.16193e-10
5.17942e-08
9.62518e-11
5.17794e-08
7.88456e-11
5.17653e-08
6.375e-11
5.17519e-08
5.07343e-11
5.17391e-08
3.9572e-11
5.1727e-08
3.00483e-11
5.17154e-08
2.1965e-11
5.17044e-08
1.51426e-11
5.16937e-08
9.42221e-12
5.16834e-08
4.66242e-12
5.16734e-08
7.42905e-13
5.16637e-08
-2.43615e-12
5.16542e-08
-4.96127e-12
5.16448e-08
-6.90857e-12
5.16357e-08
-8.33669e-12
5.16266e-08
-9.28587e-12
5.16178e-08
-9.80686e-12
-1.01944e-11
5.30119e-08
1.93205e-09
-5.29489e-08
5.30903e-08
2.06286e-09
5.31807e-08
2.17956e-09
5.32789e-08
2.27861e-09
5.33809e-08
2.35806e-09
5.34833e-08
2.4174e-09
5.3583e-08
2.45719e-09
5.36777e-08
2.47869e-09
5.37654e-08
2.48372e-09
5.3845e-08
2.47451e-09
5.39156e-08
2.45347e-09
5.39772e-08
2.42308e-09
5.40298e-08
2.38569e-09
5.40741e-08
2.34342e-09
5.41106e-08