/*--------------------------------*- C++ -*----------------------------------*\
| =========                 |                                                 |
| \\      /  F ield         | OpenFOAM: The Open Source CFD Toolbox           |
|  \\    /   O peration     | Version:  2.3.0                                 |
|   \\  /    A nd           | Web:      www.OpenFOAM.org                      |
|    \\/     M anipulation  |                                                 |
\*---------------------------------------------------------------------------*/
FoamFile
{
    version     2.0;
    format      ascii;
    class       volVectorField;
    location    "0.7";
    object      U_0;
}
// * * * * * * * * * * * * * * * * * * * * * * * * * * * * * * * * * * * * * //

dimensions      [0 1 -1 0 0 0 0];

internalField   nonuniform List<vector> 
8750
(
(0.171308 0.00595381 0)
(0.154862 0.00602803 0)
(0.139049 0.00561167 0)
(0.124057 0.00501469 0)
(0.110298 0.00435475 0)
(0.0979413 0.00368523 0)
(0.0869992 0.00304289 0)
(0.0774377 0.00245315 0)
(0.0692009 0.00193151 0)
(0.0622041 0.00148578 0)
(0.056334 0.00111766 0)
(0.0514577 0.000823683 0)
(0.0474348 0.000596482 0)
(0.0441261 0.000426352 0)
(0.041402 0.000302785 0)
(0.0391466 0.000215665 0)
(0.0372611 0.000156014 0)
(0.0356639 0.000116336 0)
(0.0342902 9.06675e-05 0)
(0.0330896 7.4465e-05 0)
(0.032024 6.44022e-05 0)
(0.031065 5.81429e-05 0)
(0.0301917 5.41172e-05 0)
(0.0293889 5.13208e-05 0)
(0.0286452 4.9146e-05 0)
(0.0279523 4.72504e-05 0)
(0.0273037 4.54588e-05 0)
(0.0266944 4.36959e-05 0)
(0.0261203 4.19403e-05 0)
(0.0255782 4.01973e-05 0)
(0.0250651 3.8482e-05 0)
(0.0245785 3.68111e-05 0)
(0.0241161 3.51985e-05 0)
(0.0236761 3.3654e-05 0)
(0.0232567 3.21836e-05 0)
(0.0228563 3.07896e-05 0)
(0.0224734 2.9472e-05 0)
(0.0221068 2.82289e-05 0)
(0.0217553 2.70572e-05 0)
(0.0214179 2.59531e-05 0)
(0.0210935 2.49127e-05 0)
(0.0207814 2.39317e-05 0)
(0.0204808 2.30062e-05 0)
(0.0201909 2.21322e-05 0)
(0.0199111 2.13062e-05 0)
(0.0196407 2.05247e-05 0)
(0.0193793 1.97845e-05 0)
(0.0191264 1.90829e-05 0)
(0.0188814 1.8417e-05 0)
(0.0186439 1.77846e-05 0)
(0.0184136 1.71833e-05 0)
(0.0181901 1.66111e-05 0)
(0.0179731 1.60661e-05 0)
(0.0177622 1.55465e-05 0)
(0.0175572 1.50507e-05 0)
(0.0173577 1.45773e-05 0)
(0.0171635 1.41248e-05 0)
(0.0169745 1.36921e-05 0)
(0.0167903 1.3278e-05 0)
(0.0166107 1.28813e-05 0)
(0.0164357 1.25011e-05 0)
(0.0162649 1.21365e-05 0)
(0.0160982 1.17866e-05 0)
(0.0159355 1.14506e-05 0)
(0.0157766 1.11278e-05 0)
(0.0156214 1.08175e-05 0)
(0.0154696 1.05191e-05 0)
(0.0153213 1.02319e-05 0)
(0.0151763 9.95552e-06 0)
(0.0150344 9.68935e-06 0)
(0.0148956 9.43295e-06 0)
(0.0147597 9.18589e-06 0)
(0.0146268 8.9478e-06 0)
(0.0144965 8.71827e-06 0)
(0.014369 8.49702e-06 0)
(0.014244 8.28374e-06 0)
(0.0141216 8.07811e-06 0)
(0.0140016 7.87997e-06 0)
(0.013884 7.68907e-06 0)
(0.0137687 7.50522e-06 0)
(0.0136556 7.3283e-06 0)
(0.0135446 7.15818e-06 0)
(0.0134357 6.99481e-06 0)
(0.0133289 6.83811e-06 0)
(0.013224 6.6881e-06 0)
(0.013121 6.54485e-06 0)
(0.0130198 6.40847e-06 0)
(0.0129203 6.27914e-06 0)
(0.0128226 6.15716e-06 0)
(0.0127264 6.04295e-06 0)
(0.0126318 5.9372e-06 0)
(0.0125386 5.84089e-06 0)
(0.0124467 5.75569e-06 0)
(0.012356 5.68458e-06 0)
(0.0122663 5.63336e-06 0)
(0.0121773 5.61468e-06 0)
(0.0120886 5.66463e-06 0)
(0.0119981 5.84477e-06 0)
(0.0119218 5.09992e-06 0)
(0.0116793 3.39783e-05 0)
(0.190151 0.00939831 0)
(0.187822 0.00990666 0)
(0.183881 0.00968203 0)
(0.178688 0.00918447 0)
(0.172747 0.00855234 0)
(0.166409 0.00783178 0)
(0.159897 0.00706072 0)
(0.15338 0.00627398 0)
(0.146993 0.00550077 0)
(0.140835 0.00476502 0)
(0.134976 0.00408544 0)
(0.129454 0.00347495 0)
(0.12429 0.00294035 0)
(0.119485 0.00248285 0)
(0.115032 0.00209908 0)
(0.110914 0.0017824 0)
(0.107111 0.0015243 0)
(0.103598 0.00131559 0)
(0.100352 0.00114734 0)
(0.0973485 0.00101147 0)
(0.0945639 0.000901052 0)
(0.091977 0.000810423 0)
(0.0895681 0.000735093 0)
(0.0873195 0.000671599 0)
(0.0852152 0.000617328 0)
(0.0832412 0.000570327 0)
(0.0813848 0.00052915 0)
(0.0796351 0.000492719 0)
(0.0779823 0.000460225 0)
(0.0764178 0.000431054 0)
(0.0749339 0.000404724 0)
(0.0735239 0.000380853 0)
(0.0721817 0.000359131 0)
(0.0709019 0.000339298 0)
(0.0696797 0.000321136 0)
(0.0685108 0.000304456 0)
(0.0673914 0.000289099 0)
(0.0663179 0.000274923 0)
(0.0652871 0.000261805 0)
(0.0642963 0.00024964 0)
(0.0633427 0.000238331 0)
(0.0624241 0.000227798 0)
(0.0615383 0.000217966 0)
(0.0606832 0.000208771 0)
(0.0598572 0.000200157 0)
(0.0590585 0.000192073 0)
(0.0582855 0.000184473 0)
(0.057537 0.000177318 0)
(0.0568116 0.000170572 0)
(0.0561081 0.000164201 0)
(0.0554253 0.000158178 0)
(0.0547623 0.000152476 0)
(0.0541182 0.000147072 0)
(0.0534919 0.000141943 0)
(0.0528827 0.000137071 0)
(0.0522898 0.000132437 0)
(0.0517125 0.000128025 0)
(0.0511502 0.000123821 0)
(0.0506021 0.000119811 0)
(0.0500676 0.000115982 0)
(0.0495464 0.000112323 0)
(0.0490377 0.000108824 0)
(0.0485411 0.000105474 0)
(0.0480563 0.000102264 0)
(0.0475826 9.91877e-05 0)
(0.0471198 9.62356e-05 0)
(0.0466674 9.34011e-05 0)
(0.0462251 9.06777e-05 0)
(0.0457925 8.80593e-05 0)
(0.0453693 8.55402e-05 0)
(0.0449553 8.31151e-05 0)
(0.0445501 8.07793e-05 0)
(0.0441534 7.85283e-05 0)
(0.0437649 7.63577e-05 0)
(0.0433846 7.4264e-05 0)
(0.043012 7.22435e-05 0)
(0.042647 7.02929e-05 0)
(0.0422894 6.84093e-05 0)
(0.0419389 6.659e-05 0)
(0.0415954 6.48325e-05 0)
(0.0412587 6.31347e-05 0)
(0.0409286 6.14947e-05 0)
(0.0406049 5.99108e-05 0)
(0.0402874 5.83817e-05 0)
(0.0399761 5.69064e-05 0)
(0.0396706 5.54843e-05 0)
(0.0393709 5.41152e-05 0)
(0.0390768 5.27993e-05 0)
(0.0387881 5.15374e-05 0)
(0.0385046 5.03314e-05 0)
(0.0382261 4.91842e-05 0)
(0.0379525 4.8101e-05 0)
(0.0376834 4.70903e-05 0)
(0.0374186 4.6168e-05 0)
(0.0371577 4.53661e-05 0)
(0.0369 4.47581e-05 0)
(0.0366446 4.45385e-05 0)
(0.0363877 4.52005e-05 0)
(0.0361485 4.97097e-05 0)
(0.0356618 0.000116841 0)
(0.193137 0.00903215 0)
(0.19392 0.00998721 0)
(0.194038 0.0103173 0)
(0.193345 0.010319 0)
(0.191958 0.010093 0)
(0.190002 0.00967735 0)
(0.18757 0.00911712 0)
(0.184752 0.00846193 0)
(0.181643 0.00775699 0)
(0.178333 0.00704059 0)
(0.174899 0.00634349 0)
(0.171406 0.00568831 0)
(0.167905 0.00508952 0)
(0.164437 0.00455413 0)
(0.16103 0.00408324 0)
(0.157703 0.00367365 0)
(0.15447 0.00331959 0)
(0.151338 0.00301411 0)
(0.148311 0.00275009 0)
(0.145388 0.0025209 0)
(0.14257 0.00232072 0)
(0.139853 0.00214467 0)
(0.137235 0.00198875 0)
(0.134713 0.00184975 0)
(0.132284 0.00172509 0)
(0.129942 0.00161271 0)
(0.127687 0.00151097 0)
(0.125512 0.0014185 0)
(0.123416 0.0013342 0)
(0.121395 0.00125715 0)
(0.119444 0.00118653 0)
(0.117563 0.00112168 0)
(0.115746 0.00106199 0)
(0.113991 0.00100695 0)
(0.112295 0.000956092 0)
(0.110656 0.000909016 0)
(0.109071 0.000865359 0)
(0.107536 0.000824799 0)
(0.106051 0.00078705 0)
(0.104611 0.000751855 0)
(0.103216 0.000718987 0)
(0.101864 0.000688241 0)
(0.100551 0.000659435 0)
(0.0992774 0.000632405 0)
(0.09804 0.000607003 0)
(0.0968376 0.000583097 0)
(0.0956688 0.000560568 0)
(0.0945319 0.000539308 0)
(0.0934256 0.00051922 0)
(0.0923486 0.000500217 0)
(0.0912996 0.000482217 0)
(0.0902776 0.000465148 0)
(0.0892814 0.000448944 0)
(0.0883099 0.000433546 0)
(0.0873623 0.000418897 0)
(0.0864375 0.000404947 0)
(0.0855347 0.00039165 0)
(0.084653 0.000378964 0)
(0.0837918 0.00036685 0)
(0.0829502 0.00035527 0)
(0.0821276 0.000344193 0)
(0.0813233 0.000333588 0)
(0.0805366 0.000323426 0)
(0.0797671 0.000313682 0)
(0.079014 0.00030433 0)
(0.078277 0.000295348 0)
(0.0775554 0.000286717 0)
(0.0768488 0.000278415 0)
(0.0761568 0.000270425 0)
(0.0754789 0.00026273 0)
(0.0748148 0.000255315 0)
(0.0741639 0.000248165 0)
(0.0735261 0.000241266 0)
(0.0729008 0.000234606 0)
(0.0722879 0.000228174 0)
(0.0716869 0.000221957 0)
(0.0710976 0.000215948 0)
(0.0705196 0.000210135 0)
(0.0699528 0.000204511 0)
(0.0693968 0.000199068 0)
(0.0688514 0.000193799 0)
(0.0683164 0.000188698 0)
(0.0677915 0.000183758 0)
(0.0672765 0.000178977 0)
(0.0667712 0.000174349 0)
(0.0662753 0.000169872 0)
(0.0657886 0.000165544 0)
(0.065311 0.000161365 0)
(0.0648422 0.000157336 0)
(0.064382 0.00015346 0)
(0.0639301 0.000149743 0)
(0.0634863 0.000146197 0)
(0.0630502 0.000142843 0)
(0.0626215 0.000139716 0)
(0.0621997 0.000136893 0)
(0.0617841 0.000134551 0)
(0.0613732 0.000133156 0)
(0.0609634 0.000134123 0)
(0.0605671 0.000147814 0)
(0.0599381 0.000231371 0)
(0.194162 0.00839459 0)
(0.19533 0.00944885 0)
(0.196381 0.0100031 0)
(0.197099 0.0102422 0)
(0.197462 0.0102493 0)
(0.197481 0.0100566 0)
(0.197151 0.00970008 0)
(0.196482 0.00922263 0)
(0.195501 0.00866616 0)
(0.194246 0.00806804 0)
(0.192762 0.00745999 0)
(0.191093 0.00686718 0)
(0.18928 0.00630761 0)
(0.18736 0.00579235 0)
(0.185366 0.00532652 0)
(0.183324 0.00491067 0)
(0.181252 0.00454221 0)
(0.179168 0.00421675 0)
(0.177081 0.00392908 0)
(0.175 0.00367391 0)
(0.172932 0.00344634 0)
(0.17088 0.00324206 0)
(0.168848 0.00305741 0)
(0.166839 0.00288941 0)
(0.164853 0.00273562 0)
(0.162894 0.00259412 0)
(0.160963 0.00246335 0)
(0.15906 0.00234206 0)
(0.157186 0.00222924 0)
(0.155342 0.00212406 0)
(0.153529 0.0020258 0)
(0.151747 0.00193387 0)
(0.149996 0.00184772 0)
(0.148277 0.00176691 0)
(0.14659 0.001691 0)
(0.144934 0.00161963 0)
(0.14331 0.00155246 0)
(0.141716 0.00148918 0)
(0.140154 0.0014295 0)
(0.138621 0.00137317 0)
(0.137119 0.00131994 0)
(0.135646 0.0012696 0)
(0.134203 0.00122196 0)
(0.132788 0.00117681 0)
(0.1314 0.00113401 0)
(0.13004 0.00109338 0)
(0.128707 0.00105479 0)
(0.1274 0.0010181 0)
(0.126119 0.000983194 0)
(0.124862 0.000949951 0)
(0.12363 0.000918269 0)
(0.122422 0.000888051 0)
(0.121237 0.000859207 0)
(0.120075 0.000831653 0)
(0.118935 0.000805312 0)
(0.117817 0.000780111 0)
(0.116719 0.000755985 0)
(0.115642 0.00073287 0)
(0.114585 0.000710708 0)
(0.113548 0.000689446 0)
(0.11253 0.000669033 0)
(0.11153 0.000649422 0)
(0.110549 0.000630569 0)
(0.109585 0.000612433 0)
(0.108639 0.000594975 0)
(0.107709 0.00057816 0)
(0.106796 0.000561953 0)
(0.105899 0.000546324 0)
(0.105018 0.000531243 0)
(0.104153 0.000516681 0)
(0.103303 0.000502613 0)
(0.102467 0.000489015 0)
(0.101646 0.000475864 0)
(0.100839 0.000463139 0)
(0.100046 0.000450819 0)
(0.0992673 0.000438886 0)
(0.0985016 0.000427322 0)
(0.0977491 0.000416112 0)
(0.0970095 0.00040524 0)
(0.0962827 0.000394693 0)
(0.0955684 0.000384458 0)
(0.0948663 0.000374524 0)
(0.0941764 0.000364881 0)
(0.0934983 0.00035552 0)
(0.092832 0.000346434 0)
(0.0921772 0.000337618 0)
(0.0915337 0.000329067 0)
(0.0909014 0.000320781 0)
(0.0902799 0.000312759 0)
(0.0896692 0.000305008 0)
(0.0890691 0.000297536 0)
(0.0884791 0.000290363 0)
(0.0878991 0.000283521 0)
(0.0873288 0.00027707 0)
(0.0867675 0.000271136 0)
(0.0862146 0.000266008 0)
(0.0856688 0.000262455 0)
(0.0851268 0.000262998 0)
(0.0845977 0.00028157 0)
(0.0838707 0.000362849 0)
(0.194873 0.00789211 0)
(0.195916 0.00888829 0)
(0.197024 0.0094835 0)
(0.198024 0.00979775 0)
(0.198873 0.00990462 0)
(0.199555 0.00983397 0)
(0.200043 0.00961213 0)
(0.200316 0.00927166 0)
(0.200366 0.00884637 0)
(0.200199 0.00836793 0)
(0.199832 0.0078645 0)
(0.199284 0.00735968 0)
(0.19858 0.00687157 0)
(0.197746 0.00641251 0)
(0.196805 0.00598958 0)
(0.195776 0.00560555 0)
(0.194679 0.00525998 0)
(0.193526 0.0049504 0)
(0.192329 0.00467319 0)
(0.191097 0.00442432 0)
(0.189836 0.00419983 0)
(0.188551 0.0039961 0)
(0.187246 0.00381001 0)
(0.185925 0.00363891 0)
(0.184591 0.00348067 0)
(0.183245 0.00333355 0)
(0.18189 0.00319615 0)
(0.180528 0.00306737 0)
(0.179162 0.00294629 0)
(0.177792 0.00283216 0)
(0.17642 0.00272437 0)
(0.175048 0.00262239 0)
(0.173677 0.00252577 0)
(0.17231 0.0024341 0)
(0.170946 0.00234704 0)
(0.169587 0.00226427 0)
(0.168234 0.0021855 0)
(0.166887 0.00211047 0)
(0.165549 0.00203895 0)
(0.16422 0.00197071 0)
(0.162899 0.00190557 0)
(0.161589 0.00184333 0)
(0.160289 0.00178383 0)
(0.159 0.00172691 0)
(0.157722 0.00167242 0)
(0.156456 0.00162024 0)
(0.155203 0.00157022 0)
(0.153961 0.00152226 0)
(0.152733 0.00147624 0)
(0.151517 0.00143206 0)
(0.150315 0.00138964 0)
(0.149125 0.00134886 0)
(0.147949 0.00130966 0)
(0.146786 0.00127195 0)
(0.145637 0.00123566 0)
(0.144501 0.00120072 0)
(0.143379 0.00116705 0)
(0.14227 0.0011346 0)
(0.141175 0.00110331 0)
(0.140093 0.00107313 0)
(0.139024 0.00104399 0)
(0.137969 0.00101585 0)
(0.136927 0.000988663 0)
(0.135899 0.000962385 0)
(0.134883 0.000936972 0)
(0.133881 0.000912384 0)
(0.132892 0.000888584 0)
(0.131915 0.000865534 0)
(0.130951 0.000843202 0)
(0.13 0.000821555 0)
(0.129062 0.000800562 0)
(0.128136 0.000780195 0)
(0.127223 0.000760425 0)
(0.126322 0.000741228 0)
(0.125433 0.000722578 0)
(0.124556 0.000704453 0)
(0.123691 0.000686831 0)
(0.122839 0.000669692 0)
(0.121998 0.000653016 0)
(0.121169 0.000636788 0)
(0.120352 0.00062099 0)
(0.119546 0.000605608 0)
(0.118752 0.000590629 0)
(0.11797 0.000576043 0)
(0.117199 0.000561839 0)
(0.116439 0.000548011 0)
(0.11569 0.000534554 0)
(0.114953 0.000521466 0)
(0.114227 0.000508749 0)
(0.113511 0.000496411 0)
(0.112807 0.000484466 0)
(0.112113 0.00047294 0)
(0.11143 0.000461879 0)
(0.110756 0.000451369 0)
(0.110093 0.000441583 0)
(0.109438 0.000432916 0)
(0.108792 0.000426411 0)
(0.108152 0.000425391 0)
(0.107528 0.000443593 0)
(0.106737 0.000509772 0)
(0.195474 0.00746056 0)
(0.196349 0.00836005 0)
(0.197338 0.00894542 0)
(0.19831 0.0092864 0)
(0.199217 0.0094412 0)
(0.200042 0.00943749 0)
(0.20076 0.00929692 0)
(0.201348 0.00904569 0)
(0.201791 0.00871206 0)
(0.202083 0.00832314 0)
(0.202228 0.00790346 0)
(0.202235 0.00747409 0)
(0.202115 0.0070518 0)
(0.201885 0.00664866 0)
(0.201559 0.00627226 0)
(0.201151 0.00592641 0)
(0.200676 0.00561193 0)
(0.200143 0.00532764 0)
(0.199561 0.0050711 0)
(0.198938 0.00483929 0)
(0.198277 0.00462903 0)
(0.197584 0.00443733 0)
(0.19686 0.00426149 0)
(0.19611 0.0040992 0)
(0.195334 0.00394852 0)
(0.194534 0.00380786 0)
(0.193713 0.00367594 0)
(0.192871 0.00355171 0)
(0.192009 0.00343431 0)
(0.19113 0.00332306 0)
(0.190234 0.00321738 0)
(0.189323 0.00311677 0)
(0.188397 0.00302084 0)
(0.187459 0.00292923 0)
(0.186508 0.00284161 0)
(0.185547 0.00275772 0)
(0.184576 0.00267732 0)
(0.183596 0.00260017 0)
(0.182609 0.00252609 0)
(0.181614 0.00245488 0)
(0.180614 0.00238639 0)
(0.179609 0.00232046 0)
(0.1786 0.00225695 0)
(0.177587 0.00219574 0)
(0.176571 0.00213671 0)
(0.175554 0.00207975 0)
(0.174535 0.00202475 0)
(0.173516 0.00197163 0)
(0.172496 0.00192029 0)
(0.171477 0.00187065 0)
(0.17046 0.00182263 0)
(0.169444 0.00177617 0)
(0.16843 0.00173119 0)
(0.167418 0.00168764 0)
(0.16641 0.00164543 0)
(0.165405 0.00160453 0)
(0.164403 0.00156488 0)
(0.163406 0.00152642 0)
(0.162414 0.0014891 0)
(0.161426 0.00145288 0)
(0.160443 0.00141772 0)
(0.159466 0.00138357 0)
(0.158494 0.00135038 0)
(0.157528 0.00131813 0)
(0.156568 0.00128677 0)
(0.155615 0.00125627 0)
(0.154668 0.00122659 0)
(0.153728 0.00119771 0)
(0.152795 0.00116959 0)
(0.151869 0.0011422 0)
(0.15095 0.00111551 0)
(0.150039 0.0010895 0)
(0.149135 0.00106414 0)
(0.148239 0.0010394 0)
(0.147351 0.00101527 0)
(0.14647 0.000991715 0)
(0.145598 0.000968721 0)
(0.144734 0.000946267 0)
(0.143878 0.000924333 0)
(0.143031 0.000902903 0)
(0.142192 0.000881961 0)
(0.141361 0.000861492 0)
(0.14054 0.000841485 0)
(0.139727 0.000821928 0)
(0.138923 0.000802812 0)
(0.138127 0.000784133 0)
(0.137341 0.000765886 0)
(0.136564 0.000748072 0)
(0.135796 0.000730697 0)
(0.135037 0.000713771 0)
(0.134287 0.000697316 0)
(0.133546 0.000681366 0)
(0.132814 0.000665982 0)
(0.13209 0.000651273 0)
(0.131376 0.000637455 0)
(0.13067 0.000625005 0)
(0.129971 0.000615129 0)
(0.12928 0.000611342 0)
(0.128608 0.000624753 0)
(0.127793 0.000668328 0)
(0.195998 0.00709103 0)
(0.196736 0.00789381 0)
(0.197595 0.0084528 0)
(0.198474 0.00880127 0)
(0.199327 0.00898082 0)
(0.200133 0.00901625 0)
(0.200872 0.00892689 0)
(0.201524 0.00873504 0)
(0.202076 0.00846506 0)
(0.202521 0.00814064 0)
(0.202858 0.00778339 0)
(0.203091 0.00741205 0)
(0.203229 0.00704187 0)
(0.203281 0.00668426 0)
(0.203258 0.00634682 0)
(0.20317 0.00603384 0)
(0.203027 0.00574695 0)
(0.202838 0.00548586 0)
(0.202608 0.00524902 0)
(0.202344 0.00503417 0)
(0.20205 0.00483879 0)
(0.201727 0.00466036 0)
(0.201379 0.00449657 0)
(0.201007 0.00434534 0)
(0.200612 0.00420491 0)
(0.200195 0.00407381 0)
(0.199757 0.00395082 0)
(0.199298 0.00383493 0)
(0.198819 0.00372532 0)
(0.19832 0.00362131 0)
(0.197803 0.00352234 0)
(0.197268 0.00342794 0)
(0.196715 0.0033377 0)
(0.196144 0.00325129 0)
(0.195558 0.0031684 0)
(0.194955 0.00308877 0)
(0.194338 0.00301217 0)
(0.193706 0.0029384 0)
(0.19306 0.00286727 0)
(0.1924 0.00279861 0)
(0.191728 0.00273227 0)
(0.191044 0.00266812 0)
(0.190349 0.00260603 0)
(0.189642 0.0025459 0)
(0.188926 0.00248761 0)
(0.188199 0.00243108 0)
(0.187463 0.00237622 0)
(0.186719 0.00232294 0)
(0.185967 0.00227118 0)
(0.185208 0.00222086 0)
(0.184441 0.00217193 0)
(0.183668 0.00212432 0)
(0.182889 0.00207797 0)
(0.182105 0.00203284 0)
(0.181316 0.00198888 0)
(0.180522 0.00194604 0)
(0.179724 0.00190427 0)
(0.178923 0.00186354 0)
(0.178119 0.00182381 0)
(0.177312 0.00178504 0)
(0.176502 0.00174719 0)
(0.175691 0.00171024 0)
(0.174878 0.00167414 0)
(0.174065 0.00163887 0)
(0.17325 0.00160441 0)
(0.172435 0.00157071 0)
(0.17162 0.00153776 0)
(0.170806 0.00150552 0)
(0.169992 0.00147398 0)
(0.169179 0.00144311 0)
(0.168367 0.00141289 0)
(0.167557 0.00138329 0)
(0.166749 0.00135429 0)
(0.165942 0.00132588 0)
(0.165139 0.00129803 0)
(0.164337 0.00127073 0)
(0.163539 0.00124396 0)
(0.162744 0.0012177 0)
(0.161953 0.00119193 0)
(0.161165 0.00116665 0)
(0.160382 0.00114184 0)
(0.159602 0.00111749 0)
(0.158827 0.00109359 0)
(0.158056 0.00107013 0)
(0.15729 0.00104711 0)
(0.15653 0.00102452 0)
(0.155774 0.00100237 0)
(0.155024 0.000980658 0)
(0.15428 0.000959393 0)
(0.153541 0.000938596 0)
(0.152808 0.000918294 0)
(0.152081 0.000898532 0)
(0.151361 0.000879385 0)
(0.150646 0.00086098 0)
(0.149937 0.000843564 0)
(0.149234 0.000827654 0)
(0.148538 0.000814466 0)
(0.147848 0.000807088 0)
(0.147179 0.000812859 0)
(0.146384 0.000831116 0)
(0.196459 0.00677216 0)
(0.197092 0.00748571 0)
(0.197837 0.00800963 0)
(0.19862 0.00835438 0)
(0.199398 0.00854721 0)
(0.200147 0.00860896 0)
(0.200847 0.00855676 0)
(0.201483 0.00840966 0)
(0.202043 0.00818865 0)
(0.202519 0.00791448 0)
(0.202911 0.0076063 0)
(0.203222 0.00728094 0)
(0.203456 0.00695232 0)
(0.203623 0.00663117 0)
(0.203729 0.00632498 0)
(0.203785 0.00603837 0)
(0.203797 0.00577354 0)
(0.203773 0.00553091 0)
(0.203719 0.00530963 0)
(0.203639 0.00510812 0)
(0.203536 0.00492441 0)
(0.203414 0.00475643 0)
(0.203273 0.00460219 0)
(0.203115 0.00445988 0)
(0.202941 0.0043279 0)
(0.202751 0.00420488 0)
(0.202545 0.00408967 0)
(0.202324 0.00398131 0)
(0.202088 0.00387899 0)
(0.201838 0.00378204 0)
(0.201572 0.0036899 0)
(0.201291 0.0036021 0)
(0.200996 0.00351824 0)
(0.200686 0.00343795 0)
(0.200362 0.00336095 0)
(0.200023 0.00328695 0)
(0.199671 0.00321574 0)
(0.199305 0.0031471 0)
(0.198925 0.00308085 0)
(0.198532 0.00301682 0)
(0.198126 0.00295486 0)
(0.197706 0.00289483 0)
(0.197275 0.00283662 0)
(0.196831 0.00278012 0)
(0.196374 0.00272521 0)
(0.195906 0.00267182 0)
(0.195427 0.00261986 0)
(0.194937 0.00256926 0)
(0.194435 0.00251993 0)
(0.193923 0.00247183 0)
(0.193401 0.00242489 0)
(0.192869 0.00237906 0)
(0.192328 0.00233428 0)
(0.191778 0.00229051 0)
(0.191218 0.00224771 0)
(0.19065 0.00220583 0)
(0.190074 0.00216485 0)
(0.18949 0.00212471 0)
(0.188899 0.0020854 0)
(0.1883 0.00204687 0)
(0.187695 0.0020091 0)
(0.187083 0.00197206 0)
(0.186465 0.00193573 0)
(0.185841 0.00190007 0)
(0.185212 0.00186507 0)
(0.184578 0.0018307 0)
(0.183939 0.00179694 0)
(0.183295 0.00176377 0)
(0.182648 0.00173117 0)
(0.181996 0.00169912 0)
(0.181341 0.00166761 0)
(0.180683 0.00163661 0)
(0.180022 0.0016061 0)
(0.179358 0.00157608 0)
(0.178693 0.00154653 0)
(0.178025 0.00151743 0)
(0.177355 0.00148876 0)
(0.176685 0.00146053 0)
(0.176013 0.00143271 0)
(0.175341 0.0014053 0)
(0.174668 0.00137828 0)
(0.173995 0.00135166 0)
(0.173322 0.00132541 0)
(0.17265 0.00129955 0)
(0.171978 0.00127406 0)
(0.171307 0.00124895 0)
(0.170637 0.00122423 0)
(0.169969 0.00119991 0)
(0.169303 0.00117599 0)
(0.168639 0.0011525 0)
(0.167976 0.00112949 0)
(0.167316 0.001107 0)
(0.166659 0.00108512 0)
(0.166004 0.00106399 0)
(0.165352 0.00104387 0)
(0.164703 0.00102527 0)
(0.164057 0.00100925 0)
(0.163417 0.000998065 0)
(0.162796 0.000995137 0)
(0.162064 0.000989542 0)
(0.196868 0.00649146 0)
(0.197417 0.00712508 0)
(0.198067 0.00761023 0)
(0.198764 0.00794464 0)
(0.199468 0.0081443 0)
(0.200155 0.00822541 0)
(0.200805 0.00820263 0)
(0.201404 0.00809208 0)
(0.201941 0.00791168 0)
(0.202409 0.00767951 0)
(0.202807 0.00741258 0)
(0.203137 0.00712599 0)
(0.203403 0.00683249 0)
(0.203611 0.00654215 0)
(0.203769 0.00626229 0)
(0.203883 0.00599772 0)
(0.203962 0.00575109 0)
(0.204011 0.00552339 0)
(0.204036 0.00531441 0)
(0.20404 0.00512312 0)
(0.204027 0.00494808 0)
(0.204 0.00478765 0)
(0.203961 0.00464015 0)
(0.203909 0.00450404 0)
(0.203848 0.00437789 0)
(0.203776 0.00426045 0)
(0.203694 0.00415067 0)
(0.203602 0.00404762 0)
(0.203501 0.00395054 0)
(0.203389 0.00385877 0)
(0.203268 0.00377176 0)
(0.203138 0.00368903 0)
(0.202997 0.00361017 0)
(0.202846 0.00353484 0)
(0.202685 0.00346272 0)
(0.202514 0.00339354 0)
(0.202333 0.00332706 0)
(0.202141 0.00326307 0)
(0.201939 0.00320138 0)
(0.201727 0.00314181 0)
(0.201504 0.0030842 0)
(0.201271 0.00302843 0)
(0.201028 0.00297436 0)
(0.200774 0.00292188 0)
(0.20051 0.00287088 0)
(0.200236 0.00282127 0)
(0.199952 0.00277296 0)
(0.199657 0.00272588 0)
(0.199353 0.00267995 0)
(0.199038 0.00263511 0)
(0.198714 0.00259129 0)
(0.19838 0.00254844 0)
(0.198036 0.00250651 0)
(0.197683 0.00246544 0)
(0.197321 0.00242521 0)
(0.196949 0.00238576 0)
(0.196568 0.00234706 0)
(0.196178 0.00230907 0)
(0.19578 0.00227176 0)
(0.195373 0.0022351 0)
(0.194958 0.00219907 0)
(0.194535 0.00216362 0)
(0.194104 0.00212875 0)
(0.193665 0.00209442 0)
(0.193218 0.00206061 0)
(0.192765 0.00202731 0)
(0.192304 0.00199449 0)
(0.191836 0.00196212 0)
(0.191362 0.00193021 0)
(0.190881 0.00189872 0)
(0.190395 0.00186764 0)
(0.189902 0.00183696 0)
(0.189403 0.00180666 0)
(0.1889 0.00177673 0)
(0.188391 0.00174716 0)
(0.187877 0.00171792 0)
(0.187358 0.00168902 0)
(0.186835 0.00166044 0)
(0.186308 0.00163218 0)
(0.185777 0.00160422 0)
(0.185242 0.00157656 0)
(0.184704 0.00154919 0)
(0.184163 0.00152212 0)
(0.183619 0.00149533 0)
(0.183072 0.00146884 0)
(0.182523 0.00144264 0)
(0.181972 0.00141675 0)
(0.181419 0.00139118 0)
(0.180865 0.00136595 0)
(0.180309 0.00134109 0)
(0.179752 0.00131664 0)
(0.179194 0.00129267 0)
(0.178635 0.00126926 0)
(0.178075 0.00124656 0)
(0.177516 0.00122483 0)
(0.176956 0.0012045 0)
(0.176397 0.00118639 0)
(0.175843 0.00117175 0)
(0.175304 0.00116064 0)
(0.174665 0.00113574 0)
(0.197231 0.00624011 0)
(0.197715 0.00680359 0)
(0.198286 0.00724965 0)
(0.198907 0.00756971 0)
(0.199543 0.00777157 0)
(0.20017 0.00786694 0)
(0.20077 0.00786789 0)
(0.201329 0.00778794 0)
(0.201836 0.00764228 0)
(0.202285 0.00744657 0)
(0.202674 0.00721578 0)
(0.203004 0.00696346 0)
(0.203277 0.00670121 0)
(0.2035 0.00643843 0)
(0.203677 0.0061822 0)
(0.203816 0.0059374 0)
(0.203923 0.00570702 0)
(0.204004 0.0054925 0)
(0.204063 0.00529414 0)
(0.204104 0.00511145 0)
(0.204131 0.00494342 0)
(0.204147 0.00478882 0)
(0.204153 0.00464631 0)
(0.20415 0.00451456 0)
(0.204141 0.00439237 0)
(0.204124 0.00427862 0)
(0.204101 0.00417234 0)
(0.204072 0.00407269 0)
(0.204037 0.00397895 0)
(0.203996 0.00389048 0)
(0.203949 0.00380676 0)
(0.203896 0.00372733 0)
(0.203837 0.00365177 0)
(0.203772 0.00357974 0)
(0.203701 0.00351094 0)
(0.203624 0.00344508 0)
(0.20354 0.00338194 0)
(0.203449 0.00332129 0)
(0.203352 0.00326293 0)
(0.203248 0.00320669 0)
(0.203137 0.00315242 0)
(0.203019 0.00309996 0)
(0.202894 0.00304919 0)
(0.202762 0.00299999 0)
(0.202622 0.00295225 0)
(0.202475 0.00290587 0)
(0.202321 0.00286075 0)
(0.202158 0.00281682 0)
(0.201989 0.002774 0)
(0.201811 0.00273222 0)
(0.201626 0.00269142 0)
(0.201434 0.00265152 0)
(0.201233 0.00261249 0)
(0.201025 0.00257427 0)
(0.200808 0.0025368 0)
(0.200584 0.00250005 0)
(0.200353 0.00246398 0)
(0.200113 0.00242855 0)
(0.199866 0.00239372 0)
(0.199611 0.00235947 0)
(0.199348 0.00232575 0)
(0.199078 0.00229254 0)
(0.1988 0.00225982 0)
(0.198514 0.00222756 0)
(0.198222 0.00219573 0)
(0.197921 0.00216431 0)
(0.197614 0.00213329 0)
(0.1973 0.00210264 0)
(0.196978 0.00207234 0)
(0.196649 0.00204238 0)
(0.196314 0.00201273 0)
(0.195972 0.00198339 0)
(0.195623 0.00195433 0)
(0.195268 0.00192556 0)
(0.194907 0.00189704 0)
(0.19454 0.00186877 0)
(0.194166 0.00184074 0)
(0.193787 0.00181294 0)
(0.193402 0.00178536 0)
(0.193012 0.001758 0)
(0.192616 0.00173084 0)
(0.192216 0.00170389 0)
(0.19181 0.00167714 0)
(0.1914 0.0016506 0)
(0.190985 0.00162426 0)
(0.190565 0.00159813 0)
(0.190142 0.00157223 0)
(0.189714 0.00154657 0)
(0.189283 0.00152117 0)
(0.188848 0.00149607 0)
(0.18841 0.00147131 0)
(0.187968 0.00144696 0)
(0.187523 0.00142312 0)
(0.187076 0.00139992 0)
(0.186626 0.00137759 0)
(0.186173 0.00135648 0)
(0.18572 0.0013371 0)
(0.185268 0.00131974 0)
(0.184828 0.00130203 0)
(0.184298 0.00126402 0)
(0.197556 0.00601208 0)
(0.197986 0.00651459 0)
(0.198492 0.00692309 0)
(0.199046 0.00722644 0)
(0.199621 0.00742693 0)
(0.200193 0.00753239 0)
(0.200746 0.00755242 0)
(0.201265 0.00749822 0)
(0.201742 0.00738257 0)
(0.202169 0.00721891 0)
(0.202545 0.00702036 0)
(0.202867 0.00679895 0)
(0.20314 0.00656522 0)
(0.203367 0.00632786 0)
(0.203554 0.00609362 0)
(0.203704 0.00586739 0)
(0.203825 0.00565236 0)
(0.203921 0.00545032 0)
(0.203996 0.005262 0)
(0.204055 0.00508733 0)
(0.204101 0.00492573 0)
(0.204136 0.00477632 0)
(0.204163 0.00463805 0)
(0.204182 0.00450986 0)
(0.204195 0.00439071 0)
(0.204203 0.00427965 0)
(0.204206 0.00417581 0)
(0.204205 0.00407843 0)
(0.2042 0.00398684 0)
(0.204192 0.00390046 0)
(0.204179 0.00381878 0)
(0.204163 0.00374136 0)
(0.204144 0.00366782 0)
(0.204121 0.00359781 0)
(0.204094 0.00353104 0)
(0.204063 0.00346723 0)
(0.204029 0.00340616 0)
(0.203991 0.00334759 0)
(0.203949 0.00329136 0)
(0.203903 0.00323726 0)
(0.203852 0.00318516 0)
(0.203798 0.0031349 0)
(0.203739 0.00308634 0)
(0.203676 0.00303938 0)
(0.203608 0.0029939 0)
(0.203535 0.00294979 0)
(0.203458 0.00290697 0)
(0.203376 0.00286535 0)
(0.203289 0.00282484 0)
(0.203196 0.00278538 0)
(0.203099 0.00274689 0)
(0.202996 0.00270932 0)
(0.202887 0.0026726 0)
(0.202773 0.00263669 0)
(0.202654 0.00260153 0)
(0.202529 0.00256707 0)
(0.202398 0.00253327 0)
(0.202261 0.00250009 0)
(0.202119 0.00246749 0)
(0.20197 0.00243543 0)
(0.201816 0.00240389 0)
(0.201656 0.00237283 0)
(0.201489 0.00234222 0)
(0.201317 0.00231203 0)
(0.201138 0.00228223 0)
(0.200953 0.00225281 0)
(0.200762 0.00222373 0)
(0.200565 0.00219498 0)
(0.200362 0.00216653 0)
(0.200153 0.00213837 0)
(0.199938 0.00211047 0)
(0.199717 0.00208282 0)
(0.199489 0.00205541 0)
(0.199256 0.00202821 0)
(0.199016 0.00200121 0)
(0.198771 0.00197441 0)
(0.19852 0.00194778 0)
(0.198263 0.00192131 0)
(0.198 0.00189501 0)
(0.197732 0.00186885 0)
(0.197458 0.00184284 0)
(0.197179 0.00181696 0)
(0.196894 0.00179122 0)
(0.196604 0.00176562 0)
(0.196309 0.00174015 0)
(0.196008 0.00171484 0)
(0.195703 0.00168968 0)
(0.195393 0.0016647 0)
(0.195078 0.00163992 0)
(0.194758 0.00161538 0)
(0.194434 0.00159112 0)
(0.194105 0.0015672 0)
(0.193772 0.00154373 0)
(0.193435 0.00152083 0)
(0.193094 0.00149869 0)
(0.192749 0.00147756 0)
(0.192402 0.00145762 0)
(0.192055 0.00143843 0)
(0.191715 0.00141622 0)
(0.191297 0.00137148 0)
(0.197847 0.00580303 0)
(0.198233 0.00625272 0)
(0.198684 0.00662613 0)
(0.199181 0.00691163 0)
(0.1997 0.00710811 0)
(0.200223 0.00722027 0)
(0.200732 0.00725548 0)
(0.201214 0.00722288 0)
(0.201661 0.00713313 0)
(0.202066 0.00699769 0)
(0.202426 0.00682794 0)
(0.20274 0.00663457 0)
(0.203009 0.00642703 0)
(0.203237 0.00621333 0)
(0.203427 0.00599985 0)
(0.203584 0.00579137 0)
(0.203713 0.0055912 0)
(0.203818 0.00540139 0)
(0.203903 0.005223 0)
(0.203972 0.00505631 0)
(0.204028 0.00490111 0)
(0.204074 0.00475682 0)
(0.204111 0.00462269 0)
(0.204141 0.00449787 0)
(0.204165 0.00438151 0)
(0.204185 0.00427281 0)
(0.2042 0.00417101 0)
(0.204211 0.00407543 0)
(0.20422 0.00398546 0)
(0.204226 0.00390058 0)
(0.204229 0.0038203 0)
(0.204229 0.00374422 0)
(0.204227 0.00367197 0)
(0.204223 0.00360323 0)
(0.204216 0.0035377 0)
(0.204208 0.00347514 0)
(0.204196 0.00341531 0)
(0.204183 0.00335799 0)
(0.204168 0.00330302 0)
(0.20415 0.0032502 0)
(0.204129 0.00319939 0)
(0.204107 0.00315045 0)
(0.204081 0.00310324 0)
(0.204054 0.00305765 0)
(0.204023 0.00301356 0)
(0.20399 0.00297087 0)
(0.203954 0.0029295 0)
(0.203915 0.00288935 0)
(0.203873 0.00285034 0)
(0.203828 0.0028124 0)
(0.20378 0.00277546 0)
(0.203729 0.00273945 0)
(0.203674 0.00270432 0)
(0.203616 0.00267001 0)
(0.203554 0.00263647 0)
(0.203488 0.00260365 0)
(0.203419 0.0025715 0)
(0.203346 0.00253998 0)
(0.203269 0.00250906 0)
(0.203188 0.00247868 0)
(0.203103 0.00244882 0)
(0.203014 0.00241944 0)
(0.20292 0.00239052 0)
(0.202822 0.00236201 0)
(0.20272 0.00233389 0)
(0.202614 0.00230614 0)
(0.202502 0.00227873 0)
(0.202387 0.00225163 0)
(0.202266 0.00222483 0)
(0.202141 0.00219829 0)
(0.202012 0.002172 0)
(0.201877 0.00214594 0)
(0.201738 0.00212009 0)
(0.201594 0.00209444 0)
(0.201445 0.00206896 0)
(0.201291 0.00204365 0)
(0.201132 0.00201848 0)
(0.200968 0.00199345 0)
(0.2008 0.00196854 0)
(0.200626 0.00194375 0)
(0.200448 0.00191907 0)
(0.200264 0.00189449 0)
(0.200076 0.00187001 0)
(0.199883 0.00184563 0)
(0.199685 0.00182134 0)
(0.199482 0.00179717 0)
(0.199274 0.00177311 0)
(0.199062 0.00174919 0)
(0.198844 0.00172543 0)
(0.198622 0.00170187 0)
(0.198396 0.00167855 0)
(0.198164 0.00165553 0)
(0.197928 0.00163291 0)
(0.197688 0.00161079 0)
(0.197443 0.00158932 0)
(0.197194 0.00156863 0)
(0.196943 0.00154869 0)
(0.19669 0.00152852 0)
(0.19644 0.00150389 0)