/*--------------------------------*- C++ -*----------------------------------*\
| =========                 |                                                 |
| \\      /  F ield         | OpenFOAM: The Open Source CFD Toolbox           |
|  \\    /   O peration     | Version:  2.3.0                                 |
|   \\  /    A nd           | Web:      www.OpenFOAM.org                      |
|    \\/     M anipulation  |                                                 |
\*---------------------------------------------------------------------------*/
FoamFile
{
    version     2.0;
    format      ascii;
    class       surfaceScalarField;
    location    "0.15";
    object      phi_0;
}
// * * * * * * * * * * * * * * * * * * * * * * * * * * * * * * * * * * * * * //

dimensions      [0 3 -1 0 0 0 0];

internalField   nonuniform List<scalar> 
17305
(
2.83973e-08
2.87588e-09
-3.12732e-08
2.5536e-08
2.86126e-09
2.2851e-08
2.68508e-09
2.03759e-08
2.475e-09
1.81271e-08
2.24887e-09
1.6115e-08
2.01212e-09
1.4342e-08
1.77293e-09
1.2803e-08
1.53904e-09
1.1486e-08
1.31702e-09
1.03738e-08
1.11217e-09
9.44538e-09
9.28417e-10
8.67735e-09
7.68029e-10
8.04571e-09
6.31636e-10
7.52731e-09
5.18409e-10
7.1009e-09
4.26405e-10
6.74793e-09
3.52974e-10
6.45277e-09
2.95155e-10
6.20277e-09
2.50003e-10
5.98795e-09
2.14817e-10
5.80068e-09
1.87271e-10
5.63522e-09
1.65457e-10
5.48735e-09
1.47874e-10
5.35397e-09
1.33384e-10
5.23282e-09
1.21145e-10
5.12227e-09
1.10551e-10
5.0211e-09
1.01171e-10
4.92839e-09
9.27077e-11
4.84344e-09
8.49513e-11
4.76568e-09
7.77566e-11
4.69467e-09
7.10163e-11
4.63003e-09
6.46403e-11
4.57149e-09
5.85359e-11
4.5189e-09
5.25919e-11
4.47223e-09
4.66672e-11
4.43164e-09
4.05917e-11
4.39746e-09
3.41766e-11
4.37026e-09
2.72058e-11
4.35084e-09
1.9418e-11
4.3402e-09
1.06403e-11
4.33856e-09
1.63946e-12
4.34363e-09
-5.06819e-12
4.35335e-09
-9.71914e-12
4.36622e-09
-1.28721e-11
4.38096e-09
-1.47432e-11
4.39648e-09
-1.55171e-11
4.41192e-09
-1.54423e-11
4.4267e-09
-1.47771e-11
4.44045e-09
-1.37484e-11
4.45298e-09
-1.25334e-11
4.46424e-09
-1.12576e-11
4.47424e-09
-1.00024e-11
4.48306e-09
-8.81655e-12
4.49078e-09
-7.72514e-12
4.49752e-09
-6.73809e-12
4.50338e-09
-5.85594e-12
4.50845e-09
-5.0739e-12
4.51283e-09
-4.38461e-12
4.51661e-09
-3.77973e-12
4.51987e-09
-3.25096e-12
4.52266e-09
-2.79043e-12
4.52505e-09
-2.39089e-12
4.52709e-09
-2.04578e-12
4.52884e-09
-1.74909e-12
4.53034e-09
-1.49542e-12
4.53162e-09
-1.27979e-12
4.53271e-09
-1.09766e-12
4.53366e-09
-9.4475e-13
4.53448e-09
-8.1719e-13
4.53519e-09
-7.11302e-13
4.53581e-09
-6.23802e-13
4.53636e-09
-5.517e-13
4.53686e-09
-4.92304e-13
4.5373e-09
-4.43236e-13
4.5377e-09
-4.0243e-13
4.53807e-09
-3.6812e-13
4.53841e-09
-3.38897e-13
4.53872e-09
-3.1355e-13
4.53901e-09
-2.91145e-13
4.53928e-09
-2.70949e-13
4.53954e-09
-2.524e-13
4.53977e-09
-2.35112e-13
4.53999e-09
-2.18769e-13
4.54019e-09
-2.03162e-13
4.54038e-09
-1.88143e-13
4.54055e-09
-1.73631e-13
4.54071e-09
-1.59549e-13
4.54086e-09
-1.45867e-13
4.54099e-09
-1.3253e-13
4.54111e-09
-1.19502e-13
4.54122e-09
-1.06734e-13
4.54131e-09
-9.41559e-14
4.54139e-09
-8.16934e-14
4.54146e-09
-6.92659e-14
4.54152e-09
-5.67465e-14
4.54156e-09
-4.38206e-14
4.5416e-09
-3.02994e-14
4.54161e-09
-1.61524e-14
4.54161e-09
-2.59386e-15
4.5416e-09
1.19484e-14
1.0955e-13
3.34376e-08
3.14391e-09
-3.37056e-08
3.28561e-08
3.44269e-09
3.2043e-08
3.49817e-09
3.10751e-08
3.44288e-09
3.00079e-08
3.31609e-09
2.88869e-08
3.13314e-09
2.7749e-08
2.91082e-09
2.66226e-08
2.66549e-09
2.55285e-08
2.41108e-09
2.44816e-08
2.15908e-09
2.34914e-08
1.91857e-09
2.25634e-08
1.69609e-09
2.16995e-08
1.49555e-09
2.08993e-08
1.31857e-09
2.01608e-08
1.1649e-09
1.94808e-08
1.03297e-09
1.88555e-08
9.2047e-10
1.82808e-08
8.24719e-10
1.77525e-08
7.43047e-10
1.72668e-08
6.72981e-10
1.68199e-08
6.12359e-10
1.64084e-08
5.5936e-10
1.60293e-08
5.12495e-10
1.56799e-08
4.7057e-10
1.53578e-08
4.32636e-10
1.50611e-08
3.97943e-10
1.47879e-08
3.65897e-10
1.45368e-08
3.3602e-10
1.43066e-08
3.07919e-10
1.40964e-08
2.81256e-10
1.39053e-08
2.55713e-10
1.37329e-08
2.30969e-10
1.35788e-08
2.06682e-10
1.3443e-08
1.82479e-10
1.33256e-08
1.57981e-10
1.32269e-08
1.32842e-10
1.31473e-08
1.06844e-10
1.30867e-08
7.99852e-11
1.30449e-08
5.24862e-11
1.30222e-08
2.43252e-11
1.30184e-08
-1.30508e-12
1.30291e-08
-2.0408e-11
1.30492e-08
-3.29667e-11
1.30753e-08
-4.07834e-11
1.31046e-08
-4.48689e-11
1.31353e-08
-4.60902e-11
1.31657e-08
-4.52466e-11
1.3195e-08
-4.30291e-11
1.32225e-08
-3.99898e-11
1.32477e-08
-3.65381e-11
1.32707e-08
-3.29582e-11
1.32913e-08
-2.94359e-11
1.33097e-08
-2.60838e-11
1.33259e-08
-2.29641e-11
1.33402e-08
-2.01052e-11
1.33526e-08
-1.75146e-11
1.33634e-08
-1.51874e-11
1.33727e-08
-1.31118e-11
1.33807e-08
-1.12728e-11
1.33876e-08
-9.65344e-12
1.33935e-08
-8.23678e-12
1.33984e-08
-7.00576e-12
1.34026e-08
-5.94362e-12
1.34062e-08
-5.034e-12
1.34091e-08
-4.26102e-12
1.34116e-08
-3.60936e-12
1.34138e-08
-3.06428e-12
1.34156e-08
-2.61177e-12
1.34171e-08
-2.23866e-12
1.34184e-08
-1.93271e-12
1.34195e-08
-1.68289e-12
1.34205e-08
-1.47924e-12
1.34214e-08
-1.31303e-12
1.34222e-08
-1.17668e-12
1.34229e-08
-1.0638e-12
1.34235e-08
-9.69154e-13
1.34241e-08
-8.8848e-13
1.34246e-08
-8.18393e-13
1.34251e-08
-7.56273e-13
1.34255e-08
-7.00114e-13
1.34259e-08
-6.48456e-13
1.34263e-08
-6.00233e-13
1.34267e-08
-5.54673e-13
1.3427e-08
-5.11233e-13
1.34273e-08
-4.69549e-13
1.34276e-08
-4.29357e-13
1.34278e-08
-3.90488e-13
1.3428e-08
-3.52766e-13
1.34282e-08
-3.16035e-13
1.34284e-08
-2.80135e-13
1.34285e-08
-2.44885e-13
1.34287e-08
-2.10058e-13
1.34288e-08
-1.75448e-13
1.34289e-08
-1.4076e-13
1.34289e-08
-1.05376e-13
1.3429e-08
-6.91147e-14
1.3429e-08
-3.25945e-14
1.3429e-08
4.72714e-15
1.34289e-08
6.31548e-14
2.41872e-13
3.4833e-08
2.98798e-09
-3.4677e-08
3.49011e-08
3.3746e-09
3.48434e-08
3.55581e-09
3.46658e-08
3.62054e-09
3.43788e-08
3.60308e-09
3.39968e-08
3.51515e-09
3.35372e-08
3.37043e-09
3.30178e-08
3.18485e-09
3.24554e-08
2.97345e-09
3.1865e-08
2.74949e-09
3.12594e-08
2.5242e-09
3.06491e-08
2.3064e-09
3.00424e-08
2.10225e-09
2.94455e-08
1.91542e-09
2.8863e-08
1.74741e-09
2.82979e-08
1.59809e-09
2.77521e-08
1.46622e-09
2.72269e-08
1.34994e-09
2.67228e-08
1.24714e-09
2.62401e-08
1.15571e-09
2.57787e-08
1.07372e-09
2.53386e-08
9.99486e-10
2.49195e-08
9.31575e-10
2.45213e-08
8.68806e-10
2.41437e-08
8.10217e-10
2.37866e-08
7.55021e-10
2.34499e-08
7.02575e-10
2.31336e-08
6.52339e-10
2.28377e-08
6.03844e-10
2.25623e-08
5.56662e-10
2.23076e-08
5.10371e-10
2.20741e-08
4.64539e-10
2.1862e-08
4.18713e-10
2.16721e-08
3.72444e-10
2.15047e-08
3.25331e-10
2.13604e-08
2.77125e-10
2.12394e-08
2.27858e-10
2.11414e-08
1.78022e-10
2.10651e-08
1.28824e-10
2.10074e-08
8.20222e-11
2.09676e-08
3.85005e-11
2.09474e-08
-2.17016e-13
2.09448e-08
-3.03692e-11
2.09551e-08
-5.11063e-11
2.09746e-08
-6.43873e-11
2.10003e-08
-7.17926e-11
2.10298e-08
-7.47227e-11
2.10612e-08
-7.44056e-11
2.1093e-08
-7.18593e-11
2.11244e-08
-6.78813e-11
2.11545e-08
-6.30659e-11
2.11829e-08
-5.7839e-11
2.12093e-08
-5.24939e-11
2.12336e-08
-4.72258e-11
2.12556e-08
-4.21598e-11
2.12755e-08
-3.73727e-11
2.12932e-08
-3.29091e-11
2.13089e-08
-2.87922e-11
2.13226e-08
-2.50314e-11
2.13346e-08
-2.16267e-11
2.13449e-08
-1.85719e-11
2.13538e-08
-1.58556e-11
2.13613e-08
-1.34629e-11
2.13676e-08
-1.13753e-11
2.1373e-08
-9.57216e-12
2.13774e-08
-8.03033e-12
2.1381e-08
-6.72542e-12
2.13841e-08
-5.63211e-12
2.13865e-08
-4.72497e-12
2.13886e-08
-3.97901e-12
2.13903e-08
-3.37046e-12
2.13917e-08
-2.8771e-12
2.13928e-08
-2.47873e-12
2.13938e-08
-2.15739e-12
2.13947e-08
-1.89751e-12
2.13954e-08
-1.6859e-12
2.1396e-08
-1.5117e-12
2.13965e-08
-1.36605e-12
2.1397e-08
-1.24198e-12
2.13975e-08
-1.13406e-12
2.13979e-08
-1.0382e-12
2.13982e-08
-9.51382e-13
2.13985e-08
-8.71376e-13
2.13988e-08
-7.96576e-13
2.13991e-08
-7.25854e-13
2.13993e-08
-6.58418e-13
2.13995e-08
-5.93725e-13
2.13997e-08
-5.31319e-13
2.13998e-08
-4.70807e-13
2.14e-08
-4.11844e-13
2.14001e-08
-3.54098e-13
2.14002e-08
-2.97156e-13
2.14002e-08
-2.40728e-13
2.14003e-08
-1.84456e-13
2.14003e-08
-1.27645e-13
2.14003e-08
-7.02193e-14
2.14003e-08
-1.36288e-14
2.14002e-08
5.21846e-14
2.14001e-08
1.615e-13
3.98355e-13
3.56683e-08
2.79394e-09
-3.54742e-08
3.58665e-08
3.17639e-09
3.60239e-08
3.39841e-09
3.61282e-08
3.51623e-09
3.6173e-08
3.55831e-09
3.61544e-08
3.53372e-09
3.60731e-08
3.45175e-09
3.59332e-08
3.32477e-09
3.5741e-08
3.16564e-09
3.55041e-08
2.98638e-09
3.52306e-08
2.7977e-09
3.49284e-08
2.60856e-09
3.46049e-08
2.42575e-09
3.42665e-08
2.25385e-09
3.39185e-08
2.09541e-09
3.35653e-08
1.95131e-09
3.32103e-08
1.82125e-09
3.28561e-08
1.70414e-09
3.25047e-08
1.59847e-09
3.21578e-08
1.50259e-09
3.18167e-08
1.41488e-09
3.14823e-08
1.33386e-09
3.11557e-08
1.25824e-09
3.08375e-08
1.18691e-09
3.05288e-08
1.11895e-09
3.02303e-08
1.05357e-09
2.99427e-08
9.9013e-10
2.9667e-08
9.28058e-10
2.9404e-08
8.6685e-10
2.91546e-08
8.06029e-10
2.89199e-08
7.45125e-10
2.87007e-08
6.83662e-10
2.84983e-08
6.21169e-10
2.83135e-08
5.57225e-10
2.81473e-08
4.91545e-10
2.80003e-08
4.24101e-10
2.78729e-08
3.55294e-10
2.77648e-08
2.86125e-10
2.76753e-08
2.18352e-10
2.76029e-08
1.5437e-10
2.75449e-08
9.65464e-11
2.74992e-08
4.54179e-11
2.74676e-08
1.28737e-12
2.74501e-08
-3.36818e-11
2.74446e-08
-5.88764e-11
2.74488e-08
-7.59341e-11
2.74605e-08
-8.64311e-11
2.74779e-08
-9.18133e-11
2.74994e-08
-9.33499e-11
2.75236e-08
-9.20953e-11
2.75494e-08
-8.88865e-11
2.75759e-08
-8.43653e-11
2.76025e-08
-7.90112e-11
2.76284e-08
-7.3176e-11
2.76534e-08
-6.71147e-11
2.7677e-08
-6.10121e-11
2.76991e-08
-5.50021e-11
2.77195e-08
-4.91832e-11
2.77381e-08
-4.36281e-11
2.77548e-08
-3.83912e-11
2.77698e-08
-3.35122e-11
2.77829e-08
-2.90188e-11
2.77944e-08
-2.49283e-11
2.78043e-08
-2.12479e-11
2.78127e-08
-1.79759e-11
2.78198e-08
-1.51023e-11
2.78256e-08
-1.26095e-11
2.78305e-08
-1.04737e-11
2.78344e-08
-8.66616e-12
2.78376e-08
-7.15471e-12
2.78401e-08
-5.90535e-12
2.78421e-08
-4.88358e-12
2.78437e-08
-4.05581e-12
2.7845e-08
-3.3903e-12
2.78459e-08
-2.85807e-12
2.78467e-08
-2.43337e-12
2.78472e-08
-2.09396e-12
2.78477e-08
-1.82108e-12
2.78481e-08
-1.59935e-12
2.78483e-08
-1.41636e-12
2.78486e-08
-1.26241e-12
2.78487e-08
-1.13008e-12
2.78489e-08
-1.01376e-12
2.7849e-08
-9.09281e-13
2.78491e-08
-8.1361e-13
2.78492e-08
-7.24594e-13
2.78492e-08
-6.40727e-13
2.78492e-08
-5.60863e-13
2.78492e-08
-4.84089e-13
2.78492e-08
-4.09706e-13
2.78492e-08
-3.37138e-13
2.78492e-08
-2.65707e-13
2.78491e-08
-1.94966e-13
2.78491e-08
-1.24666e-13
2.7849e-08
-5.5529e-14
2.78489e-08
1.3663e-14
2.78488e-08
9.04305e-14
2.78487e-08
1.88418e-13
2.78485e-08
3.38289e-13
6.06847e-13
3.64205e-08
2.62383e-09
-3.62504e-08
3.66209e-08
2.97599e-09
3.68154e-08
3.20388e-09
3.69914e-08
3.3403e-09
3.71413e-08
3.40838e-09
3.72581e-08
3.41688e-09
3.7337e-08
3.37289e-09
3.73758e-08
3.28599e-09
3.73747e-08
3.16671e-09
3.73358e-08
3.02522e-09
3.72627e-08
2.87087e-09
3.71595e-08
2.71174e-09
3.7031e-08
2.55427e-09
3.68817e-08
2.40314e-09
3.67158e-08
2.26126e-09
3.65371e-08
2.13006e-09
3.63485e-08
2.0098e-09
3.61527e-08
1.89996e-09
3.59517e-08
1.79951e-09
3.57471e-08
1.70717e-09
3.55403e-08
1.62164e-09
3.53326e-08
1.54162e-09
3.51248e-08
1.46595e-09
3.49181e-08
1.39361e-09
3.47134e-08
1.32371e-09
3.45115e-08
1.25547e-09
3.43134e-08
1.18823e-09
3.412e-08
1.1214e-09
3.39325e-08
1.05444e-09
3.37517e-08
9.86833e-10
3.35787e-08
9.1808e-10
3.34147e-08
8.47691e-10
3.32606e-08
7.75219e-10
3.31175e-08
7.00316e-10
3.29862e-08
6.22839e-10
3.28673e-08
5.42986e-10
3.27612e-08
4.61462e-10
3.26677e-08
3.79615e-10
3.25865e-08
2.99503e-10
3.25172e-08
2.23709e-10
3.24589e-08
1.54815e-10
3.24099e-08
9.44892e-11
3.23684e-08
4.27248e-11
3.23355e-08
-7.57972e-13
3.23118e-08
-3.52145e-11
3.22967e-08
-6.07884e-11
3.22891e-08
-7.8867e-11
3.22881e-08
-9.08205e-11
3.22927e-08
-9.79002e-11
3.23018e-08
-1.01195e-10
3.23145e-08
-1.01608e-10
3.233e-08
-9.98663e-11
3.23475e-08
-9.65382e-11
3.23664e-08
-9.20637e-11
3.23861e-08
-8.67815e-11
3.2406e-08
-8.09541e-11
3.24258e-08
-7.47877e-11
3.24451e-08
-6.8448e-11
3.24635e-08
-6.20716e-11
3.24809e-08
-5.57728e-11
3.2497e-08
-4.9649e-11
3.25118e-08
-4.37824e-11
3.25251e-08
-3.82414e-11
3.25369e-08
-3.30806e-11
3.25473e-08
-2.83403e-11
3.25563e-08
-2.40469e-11
3.25639e-08
-2.02125e-11
3.25702e-08
-1.68364e-11
3.25755e-08
-1.39056e-11
3.25797e-08
-1.1397e-11
3.25831e-08
-9.27955e-12
3.25857e-08
-7.51635e-12
3.25877e-08
-6.06711e-12
3.25892e-08
-4.89031e-12
3.25903e-08
-3.94509e-12
3.25911e-08
-3.1928e-12
3.25916e-08
-2.59819e-12
3.25919e-08
-2.13e-12
3.2592e-08
-1.76139e-12
3.25921e-08
-1.46986e-12
3.25921e-08
-1.23703e-12
3.2592e-08
-1.04833e-12
3.25919e-08
-8.92387e-13
3.25917e-08
-7.60454e-13
3.25916e-08
-6.45988e-13
3.25914e-08
-5.44199e-13
3.25912e-08
-4.51663e-13
3.2591e-08
-3.65859e-13
3.25908e-08
-2.84911e-13
3.25906e-08
-2.07517e-13
3.25904e-08
-1.32919e-13
3.25902e-08
-6.07171e-14
3.259e-08
1.07355e-14
3.25898e-08
8.40974e-14
3.25895e-08
1.60866e-13
3.25893e-08
2.43029e-13
3.25891e-08
3.3596e-13
3.25888e-08
4.52392e-13
3.25885e-08
6.20379e-13
8.88405e-13
3.71662e-08
2.47996e-09
-3.70223e-08
3.73457e-08
2.79647e-09
3.75323e-08
3.01726e-09
3.77139e-08
3.1587e-09
3.78842e-08
3.23811e-09
3.80371e-08
3.26391e-09
3.81677e-08
3.24229e-09
3.82727e-08
3.18105e-09
3.83504e-08
3.08902e-09
3.84007e-08
2.97492e-09
3.84247e-08
2.84681e-09
3.84246e-08
2.71182e-09
3.84031e-08
2.57581e-09
3.83631e-08
2.44319e-09
3.83074e-08
2.3169e-09
3.82389e-08
2.19861e-09
3.81598e-08
2.08892e-09
3.80721e-08
1.98766e-09
3.79774e-08
1.89416e-09
3.78771e-08
1.80745e-09
3.77723e-08
1.72644e-09
3.76639e-08
1.65004e-09
3.75527e-08
1.57719e-09
3.74393e-08
1.50694e-09
3.73246e-08
1.43842e-09
3.72092e-08
1.37089e-09
3.70938e-08
1.30367e-09
3.6979e-08
1.23613e-09
3.68658e-08
1.16771e-09
3.67547e-08
1.09787e-09
3.66467e-08
1.0261e-09
3.65425e-08
9.51918e-10
3.64428e-08
8.74908e-10
3.63483e-08
7.94806e-10
3.62595e-08
7.11592e-10
3.61769e-08
6.2563e-10
3.61006e-08
5.37806e-10
3.60305e-08
4.49634e-10
3.59668e-08
3.63249e-10
3.59093e-08
2.81203e-10
3.58581e-08
2.0601e-10
3.58131e-08
1.3952e-10
3.57733e-08
8.25174e-11
3.5738e-08
3.45427e-11
3.57078e-08
-5.01075e-12
3.56832e-08
-3.62566e-11
3.56643e-08
-5.98854e-11
3.56505e-08
-7.70951e-11
3.56417e-08
-8.90249e-11
3.56372e-08
-9.66901e-11
3.56365e-08
-1.00959e-10
3.56392e-08
-1.02548e-10
3.56447e-08
-1.02035e-10
3.56525e-08
-9.9877e-11
3.56621e-08
-9.6438e-11
3.56732e-08
-9.20081e-11
3.56852e-08
-8.68243e-11
3.56979e-08
-8.10845e-11
3.57108e-08
-7.49598e-11
3.57236e-08
-6.86016e-11
3.57361e-08
-6.21466e-11
3.5748e-08
-5.57187e-11
3.57592e-08
-4.94299e-11
3.57695e-08
-4.33789e-11
3.57788e-08
-3.765e-11
3.57871e-08
-3.23114e-11
3.57943e-08
-2.74144e-11
3.58004e-08
-2.29922e-11
3.58056e-08
-1.9061e-11
3.58098e-08
-1.56205e-11
3.58132e-08
-1.26559e-11
3.58158e-08
-1.01404e-11
3.58178e-08
-8.03825e-12
3.58192e-08
-6.30727e-12
3.58202e-08
-4.90216e-12
3.58208e-08
-3.77677e-12
3.5821e-08
-2.88647e-12
3.58211e-08
-2.18962e-12
3.5821e-08
-1.64883e-12
3.58208e-08
-1.23142e-12
3.58204e-08
-9.09694e-13
3.582e-08
-6.60975e-13
3.58196e-08
-4.67097e-13
3.58192e-08
-3.13761e-13
3.58187e-08
-1.89959e-13
3.58183e-08
-8.73446e-14
3.58178e-08
8.04458e-16
3.58174e-08
7.94508e-14
3.58169e-08
1.51589e-13
3.58165e-08
2.19428e-13
3.58161e-08
2.84828e-13
3.58157e-08
3.49541e-13
3.58153e-08
4.14955e-13
3.58149e-08
4.82424e-13
3.58145e-08
5.53982e-13
3.58141e-08
6.3283e-13
3.58137e-08
7.24762e-13
3.58133e-08
8.41608e-13
3.58129e-08
1.00573e-12
1.24733e-12
3.79171e-08
2.35643e-09
-3.77936e-08
3.80752e-08
2.63844e-09
3.82455e-08
2.84691e-09
3.84165e-08
2.98772e-09
3.85821e-08
3.07251e-09
3.87373e-08
3.10868e-09
3.88778e-08
3.10176e-09
3.90006e-08
3.05829e-09
3.91038e-08
2.98579e-09
3.91869e-08
2.89183e-09
3.92502e-08
2.78349e-09
3.9295e-08
2.66708e-09
3.93229e-08
2.54791e-09
3.9336e-08
2.43008e-09
3.93364e-08
2.31646e-09
3.93262e-08
2.20884e-09
3.93071e-08
2.10801e-09
3.92807e-08
2.01408e-09
3.92482e-08
1.92666e-09
3.92106e-08
1.84501e-09
3.91688e-08
1.76826e-09
3.91234e-08
1.69546e-09
3.90749e-08
1.62567e-09
3.90238e-08
1.55803e-09
3.89705e-08
1.49171e-09
3.89155e-08
1.42597e-09
3.8859e-08
1.36013e-09
3.88016e-08
1.29358e-09
3.87435e-08
1.22573e-09
3.86854e-08
1.15604e-09
3.86275e-08
1.08399e-09
3.85703e-08
1.00913e-09
3.85141e-08
9.31087e-10
3.84592e-08
8.49672e-10
3.84059e-08
7.64953e-10
3.83541e-08
6.77387e-10
3.8304e-08
5.87933e-10
3.82555e-08
4.98122e-10
3.82087e-08
4.10018e-10
3.81639e-08
3.26013e-10
3.81215e-08
2.48439e-10
3.80819e-08
1.79096e-10
3.80455e-08
1.18958e-10
3.80119e-08
6.81029e-11
3.79811e-08
2.58108e-11
3.79535e-08
-8.6792e-12
3.79296e-08
-3.59205e-11
3.79093e-08
-5.67963e-11
3.78926e-08
-7.2319e-11
3.78793e-08
-8.34142e-11
3.78692e-08
-9.08868e-11
3.78621e-08
-9.54138e-11
3.78576e-08
-9.75498e-11
3.78554e-08
-9.77423e-11
3.78554e-08
-9.63512e-11
3.7857e-08
-9.36683e-11
3.78601e-08
-8.99352e-11
3.78644e-08
-8.5358e-11
3.78696e-08
-8.01182e-11
3.78753e-08
-7.43813e-11
3.78815e-08
-6.83015e-11
3.78878e-08
-6.2024e-11
3.78941e-08
-5.56853e-11
3.79001e-08
-4.94123e-11
3.79058e-08
-4.33195e-11
3.7911e-08
-3.75069e-11
3.79156e-08
-3.20576e-11
3.79196e-08
-2.70356e-11
3.79231e-08
-2.24853e-11
3.79259e-08
-1.84313e-11
3.79281e-08
-1.48796e-11
3.79298e-08
-1.18195e-11
3.7931e-08
-9.22647e-12
3.79317e-08
-7.06531e-12
3.79321e-08
-5.29341e-12
3.79322e-08
-3.86395e-12
3.7932e-08
-2.72889e-12
3.79317e-08
-1.84131e-12
3.79312e-08
-1.15735e-12
3.79306e-08
-6.37424e-13
3.793e-08
-2.46496e-13
3.79292e-08
4.59468e-14
3.79285e-08
2.64196e-13
3.79278e-08
4.26491e-13
3.7927e-08
5.47488e-13
3.79263e-08
6.38892e-13
3.79256e-08
7.09703e-13
3.79249e-08
7.66752e-13
3.79243e-08
8.15209e-13
3.79236e-08
8.58881e-13
3.7923e-08
9.00619e-13
3.79224e-08
9.42734e-13
3.79218e-08
9.86978e-13
3.79213e-08
1.03499e-12
3.79207e-08
1.08903e-12
3.79202e-08
1.15246e-12
3.79197e-08
1.2309e-12
3.79192e-08
1.33439e-12
3.79188e-08
1.47892e-12
1.67825e-12
3.86751e-08
2.2481e-09
-3.85667e-08
3.88147e-08
2.49883e-09
3.89687e-08
2.69288e-09
3.91264e-08
2.83006e-09
3.92816e-08
2.91728e-09
3.94299e-08
2.96043e-09
3.95673e-08
2.96434e-09
3.96911e-08
2.93452e-09
3.97995e-08
2.87734e-09
3.9892e-08
2.79938e-09
3.99686e-08
2.70689e-09
4.00302e-08
2.60549e-09
4.00781e-08
2.5e-09
4.01139e-08
2.39422e-09
4.01394e-08
2.29096e-09
4.01563e-08
2.19201e-09
4.01659e-08
2.09837e-09
4.01696e-08
2.01034e-09
4.01685e-08
1.92774e-09
4.01635e-08
1.85009e-09
4.01551e-08
1.77667e-09
4.01438e-08
1.7067e-09
4.01301e-08
1.63937e-09
4.01143e-08
1.57389e-09
4.00965e-08
1.5095e-09
4.00769e-08
1.44549e-09
4.00559e-08
1.38121e-09
4.00334e-08
1.31604e-09
4.00097e-08
1.24943e-09
3.99849e-08
1.18083e-09
3.99592e-08
1.10975e-09
3.99325e-08
1.03577e-09
3.9905e-08
9.58578e-10
3.98767e-08
8.78032e-10
3.98474e-08
7.94262e-10
3.9817e-08
7.07765e-10
3.97854e-08
6.195e-10
3.97526e-08
5.30922e-10
3.97187e-08
4.43939e-10
3.9684e-08
3.60718e-10
3.96491e-08
2.83366e-10
3.96146e-08
2.13551e-10
3.95813e-08
1.5227e-10
3.95496e-08
9.97959e-11
3.95196e-08
5.57691e-11
3.94916e-08
1.93928e-11
3.94658e-08
-1.01246e-11
3.94425e-08
-3.35129e-11
3.94218e-08
-5.16177e-11
3.94036e-08
-6.52759e-11
3.9388e-08
-7.52291e-11
3.93747e-08
-8.21102e-11
3.93636e-08
-8.64456e-11
3.93545e-08
-8.8666e-11
3.93473e-08
-8.91219e-11
3.93417e-08
-8.81001e-11
3.93376e-08
-8.58403e-11
3.93348e-08
-8.25482e-11
3.93331e-08
-7.84071e-11
3.93323e-08
-7.35858e-11
3.93322e-08
-6.8244e-11
3.93328e-08
-6.25349e-11
3.93337e-08
-5.66057e-11
3.93349e-08
-5.05962e-11
3.93362e-08
-4.46371e-11
3.93375e-08
-3.88461e-11
3.93388e-08
-3.33258e-11
3.93399e-08
-2.81602e-11
3.93408e-08
-2.34137e-11
3.93415e-08
-1.91297e-11
3.9342e-08
-1.53313e-11
3.93422e-08
-1.20227e-11
3.93422e-08
-9.19142e-12
3.93419e-08
-6.81152e-12
3.93415e-08
-4.8467e-12
3.93408e-08
-3.25386e-12
3.93401e-08
-1.98633e-12
3.93393e-08
-9.96657e-13
3.93383e-08
-2.38138e-13
3.93374e-08
3.33153e-13
3.93364e-08
7.55002e-13
3.93354e-08
1.05896e-12
3.93343e-08
1.27213e-12
3.93334e-08
1.4173e-12
3.93324e-08
1.51291e-12
3.93315e-08
1.57349e-12
3.93306e-08
1.61023e-12
3.93297e-08
1.63161e-12
3.93289e-08
1.64403e-12
3.93281e-08
1.65222e-12
3.93273e-08
1.65967e-12
3.93266e-08
1.66909e-12
3.93259e-08
1.68257e-12
3.93252e-08
1.70204e-12
3.93246e-08
1.72983e-12
3.9324e-08
1.76923e-12
3.93234e-08
1.82529e-12
3.93228e-08
1.90592e-12
3.93223e-08
2.02111e-12
2.171e-12
3.94405e-08
2.15132e-09
-3.93437e-08
3.95648e-08
2.37448e-09
3.97041e-08
2.55355e-09
3.98489e-08
2.68525e-09
3.99932e-08
2.77297e-09
4.01327e-08
2.821e-09
4.02637e-08
2.83335e-09
4.03836e-08
2.81464e-09
4.04907e-08
2.77022e-09
4.05843e-08
2.70578e-09
4.06644e-08
2.62679e-09
4.07316e-08
2.53827e-09
4.0787e-08
2.44457e-09
4.0832e-08
2.34923e-09
4.0868e-08
2.25493e-09
4.08966e-08
2.1635e-09
4.09189e-08
2.07603e-09
4.09362e-08
1.993e-09
4.09495e-08
1.91444e-09
4.09596e-08
1.84004e-09
4.0967e-08
1.76929e-09
4.09721e-08
1.70153e-09
4.09754e-08
1.63609e-09
4.0977e-08
1.57227e-09
4.09771e-08
1.50938e-09
4.09758e-08
1.44678e-09
4.09732e-08
1.38384e-09
4.09693e-08
1.32e-09
4.0964e-08
1.2547e-09
4.09574e-08
1.18744e-09
4.09493e-08
1.11777e-09
4.09398e-08
1.04532e-09
4.09286e-08
9.69801e-10
4.09155e-08
8.91143e-10
4.09002e-08
8.09508e-10
4.08826e-08
7.254e-10
4.08623e-08
6.39731e-10
4.08394e-08
5.53844e-10
4.08139e-08
4.69453e-10
4.07861e-08
3.88484e-10
4.07567e-08
3.12805e-10
4.07263e-08
2.43931e-10
4.06958e-08
1.82822e-10
4.06657e-08
1.29835e-10
4.06367e-08
8.47949e-11
4.0609e-08
4.71445e-11
4.05827e-08
1.61228e-11
4.05582e-08
-9.03724e-12
4.05357e-08
-2.90623e-11
4.05151e-08
-4.46871e-11
4.04965e-08
-5.65912e-11
4.04797e-08
-6.53644e-11
4.04648e-08
-7.15047e-11
4.04515e-08
-7.54259e-11
4.04399e-08
-7.74687e-11
4.04297e-08
-7.79156e-11
4.04209e-08
-7.70041e-11
4.04132e-08
-7.49398e-11
4.04067e-08
-7.19064e-11
4.04012e-08
-6.80738e-11
4.03966e-08
-6.36034e-11
4.03927e-08
-5.86508e-11
4.03895e-08
-5.33668e-11
4.03868e-08
-4.78963e-11
4.03845e-08
-4.23761e-11
4.03826e-08
-3.69319e-11
4.03809e-08
-3.16752e-11
4.03795e-08
-2.67006e-11
4.03782e-08
-2.20833e-11
4.03769e-08
-1.78781e-11
4.03757e-08
-1.41193e-11
4.03745e-08
-1.08217e-11
4.03733e-08
-7.98236e-12
4.03721e-08
-5.58364e-12
4.03708e-08
-3.59616e-12
4.03695e-08
-1.98216e-12
4.03682e-08
-6.98477e-13
4.03669e-08
3.00946e-13
4.03656e-08
1.06095e-12
4.03644e-08
1.62283e-12
4.03631e-08
2.02454e-12
4.03618e-08
2.29984e-12
4.03606e-08
2.47782e-12
4.03595e-08
2.58304e-12
4.03584e-08
2.6355e-12
4.03573e-08
2.65109e-12
4.03562e-08
2.64211e-12
4.03553e-08
2.61795e-12
4.03543e-08
2.58569e-12
4.03534e-08
2.55059e-12
4.03526e-08
2.51656e-12
4.03517e-08
2.48659e-12
4.0351e-08
2.463e-12
4.03502e-08
2.44789e-12
4.03495e-08
2.44359e-12
4.03488e-08
2.45319e-12
4.03482e-08
2.48098e-12
4.03475e-08
2.53274e-12
4.03469e-08
2.61344e-12
2.71322e-12
4.02138e-08
2.06358e-09
-4.01261e-08
4.03256e-08
2.26272e-09
4.0452e-08
2.42713e-09
4.0585e-08
2.55225e-09
4.07189e-08
2.63905e-09
4.08496e-08
2.69034e-09
4.09736e-08
2.70934e-09
4.10884e-08
2.69983e-09
4.11923e-08
2.6663e-09
4.12845e-08
2.61358e-09
4.13648e-08
2.54646e-09
4.14337e-08
2.46939e-09
4.1492e-08
2.38627e-09
4.15408e-08
2.30039e-09
4.15815e-08
2.21427e-09
4.16153e-08
2.12973e-09
4.16434e-08
2.04795e-09
4.16668e-08
1.96953e-09
4.16866e-08
1.89467e-09
4.17034e-08
1.82322e-09
4.17179e-08
1.75483e-09
4.17304e-08
1.68901e-09
4.17413e-08
1.62519e-09
4.17508e-08
1.56276e-09
4.17591e-08
1.50113e-09
4.17661e-08
1.43972e-09
4.1772e-08
1.37795e-09
4.17767e-08
1.3153e-09
4.17802e-08
1.25126e-09
4.17822e-08
1.18537e-09
4.17828e-08
1.11723e-09
4.17816e-08
1.0465e-09
4.17784e-08
9.72964e-10
4.1773e-08
8.9658e-10
4.1765e-08
8.17538e-10
4.1754e-08
7.36331e-10
4.174e-08
6.53807e-10
4.17226e-08
5.71182e-10
4.17021e-08
4.89976e-10
4.16787e-08
4.11882e-10
4.1653e-08
3.38542e-10
4.16256e-08
2.71314e-10
4.15973e-08
2.11101e-10
4.15688e-08
1.583e-10
4.15408e-08
1.1285e-10
4.15136e-08
7.43526e-11
4.14875e-08
4.22067e-11
4.14627e-08
1.57161e-11
4.14395e-08
-5.81089e-12
4.14178e-08
-2.30257e-11
4.13978e-08
-3.65402e-11
4.13793e-08
-4.69011e-11
4.13624e-08
-5.45784e-11
4.13469e-08
-5.99682e-11
4.13329e-08
-6.3402e-11
4.13201e-08
-6.51579e-11
4.13086e-08
-6.54725e-11
4.12982e-08
-6.45518e-11
4.12889e-08
-6.25807e-11
4.12805e-08
-5.97305e-11
4.12731e-08
-5.61634e-11
4.12665e-08
-5.20361e-11
4.12606e-08
-4.75001e-11
4.12554e-08
-4.27016e-11
4.12508e-08
-3.77786e-11
4.12467e-08
-3.28592e-11
4.12431e-08
-2.80581e-11
4.12399e-08
-2.34735e-11
4.1237e-08
-1.91859e-11
4.12344e-08
-1.52555e-11
4.1232e-08
-1.17232e-11
4.12298e-08
-8.61037e-12
4.12277e-08
-5.921e-12
4.12258e-08
-3.64399e-12
4.12239e-08
-1.7561e-12
4.12222e-08
-2.2469e-13
4.12205e-08
9.88766e-13
4.12188e-08
1.92512e-12
4.12173e-08
2.6254e-12
4.12158e-08
3.12938e-12
4.12143e-08
3.47408e-12
4.12129e-08
3.6928e-12
4.12116e-08
3.81449e-12
4.12103e-08
3.8637e-12
4.12091e-08
3.86064e-12
4.12079e-08
3.82147e-12
4.12068e-08
3.75886e-12
4.12057e-08
3.68251e-12
4.12047e-08
3.59984e-12
4.12038e-08
3.51637e-12
4.12028e-08
3.43624e-12
4.1202e-08
3.36262e-12
4.12011e-08
3.29797e-12
4.12003e-08
3.24447e-12
4.11996e-08
3.20441e-12
4.11988e-08
3.18058e-12
4.11981e-08
3.17646e-12
4.11975e-08
3.19592e-12
4.11969e-08
3.24013e-12
3.2931e-12
4.09957e-08
1.98308e-09
-4.09152e-08
4.1097e-08
2.16139e-09
4.12122e-08
2.31196e-09
4.13345e-08
2.42992e-09
4.14588e-08
2.51474e-09
4.15812e-08
2.56802e-09
4.16983e-08
2.59218e-09
4.18079e-08
2.59029e-09
4.19081e-08
2.56606e-09
4.19981e-08
2.52359e-09
4.20776e-08
2.467e-09
4.21467e-08
2.40023e-09
4.22062e-08
2.32677e-09
4.2257e-08
2.24961e-09
4.23001e-08
2.17114e-09
4.23367e-08
2.09314e-09
4.23678e-08
2.01681e-09
4.23945e-08
1.94286e-09
4.24176e-08
1.87162e-09
4.24377e-08
1.80307e-09
4.24555e-08
1.73702e-09
4.24714e-08
1.67309e-09
4.24858e-08
1.61084e-09
4.24988e-08
1.54977e-09
4.25106e-08
1.48934e-09
4.25212e-08
1.42906e-09
4.25308e-08
1.36841e-09
4.25391e-08
1.30692e-09
4.25463e-08
1.24412e-09
4.2552e-08
1.17961e-09
4.25562e-08
1.11302e-09
4.25587e-08
1.04408e-09
4.2559e-08
9.72612e-10
4.2557e-08
8.98607e-10
4.25523e-08
8.22273e-10
4.25445e-08
7.44084e-10
4.25335e-08
6.6482e-10
4.25191e-08
5.85569e-10
4.25014e-08
5.07675e-10
4.24807e-08
4.32617e-10
4.24574e-08
3.61835e-10
4.24322e-08
2.96539e-10
4.24057e-08
2.37565e-10
4.23787e-08
1.8533e-10
4.23517e-08
1.39854e-10
4.23252e-08
1.00856e-10
4.22995e-08
6.78586e-11
4.22749e-08
4.02829e-11
4.22516e-08
1.75146e-11
4.22296e-08
-1.0461e-12
4.2209e-08
-1.5954e-11
4.21899e-08
-2.771e-11
4.2172e-08
-3.67546e-11
4.21555e-08
-4.34659e-11
4.21403e-08
-4.8165e-11
4.21263e-08
-5.11252e-11
4.21134e-08
-5.25818e-11
4.21016e-08
-5.27414e-11
4.20908e-08
-5.17902e-11
4.20809e-08
-4.99008e-11
4.2072e-08
-4.72365e-11
4.20639e-08
-4.39542e-11
4.20566e-08
-4.02053e-11
4.20501e-08
-3.61354e-11
4.20442e-08
-3.1882e-11
4.20389e-08
-2.75726e-11
4.20341e-08
-2.33219e-11
4.20299e-08
-1.9229e-11
4.20261e-08
-1.53757e-11
4.20227e-08
-1.18252e-11
4.20196e-08
-8.62154e-12
4.20167e-08
-5.79048e-12
4.20142e-08
-3.3409e-12
4.20118e-08
-1.2669e-12
4.20096e-08
4.49595e-13
4.20075e-08
1.83562e-12
4.20056e-08
2.92411e-12
4.20038e-08
3.75147e-12
4.2002e-08
4.35531e-12
4.20004e-08
4.77251e-12
4.19988e-08
5.03778e-12
4.19973e-08
5.18261e-12
4.19959e-08
5.23466e-12
4.19946e-08
5.21755e-12
4.19933e-08
5.15091e-12
4.1992e-08
5.05058e-12
4.19909e-08
4.92914e-12
4.19897e-08
4.7963e-12
4.19887e-08
4.65951e-12
4.19877e-08
4.52444e-12
4.19867e-08
4.39531e-12
4.19858e-08
4.27539e-12
4.19849e-08
4.16722e-12
4.19841e-08
4.073e-12
4.19833e-08
3.99493e-12
4.19826e-08
3.93545e-12
4.19818e-08
3.89729e-12
4.19812e-08
3.88272e-12
4.19805e-08
3.89023e-12
3.90128e-12
4.17868e-08
1.90855e-09
-4.17123e-08
4.18794e-08
2.06878e-09
4.19848e-08
2.20656e-09
4.20975e-08
2.31718e-09
4.2213e-08
2.39927e-09
4.23276e-08
2.45349e-09
4.24382e-08
2.48156e-09
4.25425e-08
2.48593e-09
4.2639e-08
2.46963e-09
4.27265e-08
2.43608e-09
4.28046e-08
2.38885e-09
4.28735e-08
2.33136e-09
4.29335e-08
2.26673e-09
4.29855e-08
2.19768e-09
4.30302e-08
2.12642e-09
4.30687e-08
2.05467e-09
4.31018e-08
1.98364e-09
4.31306e-08
1.9141e-09
4.31557e-08
1.84648e-09
4.31779e-08
1.7809e-09
4.31977e-08
1.71726e-09
4.32155e-08
1.65531e-09
4.32316e-08
1.59471e-09
4.32463e-08
1.53505e-09
4.32597e-08
1.4759e-09
4.3272e-08
1.4168e-09
4.32831e-08
1.35732e-09
4.3293e-08
1.29702e-09
4.33016e-08
1.2355e-09
4.33088e-08
1.1724e-09
4.33144e-08
1.10741e-09
4.33182e-08
1.04028e-09
4.33199e-08
9.70899e-10
4.33193e-08
8.99278e-10
4.33159e-08
8.25636e-10
4.33096e-08
7.50422e-10
4.33e-08
6.74349e-10
4.32872e-08
5.9839e-10
4.32712e-08
5.23728e-10
4.32521e-08
4.51656e-10
4.32305e-08
3.83437e-10
4.32069e-08
3.20144e-10
4.31819e-08
2.62551e-10
4.31562e-08
2.11076e-10
4.31302e-08
1.65801e-10
4.31046e-08
1.26537e-10
4.30795e-08
9.291e-11
4.30554e-08
6.44401e-11
4.30323e-08
4.05996e-11
4.30104e-08
2.08569e-11
4.29897e-08
4.70619e-12
4.29703e-08
-8.31416e-12
4.29522e-08
-1.86136e-11
4.29353e-08
-2.65503e-11
4.29195e-08
-3.24339e-11
4.29049e-08
-3.65316e-11
4.28914e-08
-3.90762e-11
4.2879e-08
-4.02743e-11
4.28675e-08
-4.03126e-11
4.28569e-08
-3.93648e-11
4.28473e-08
-3.75946e-11
4.28385e-08
-3.5159e-11
4.28305e-08
-3.22087e-11
4.28233e-08
-2.88879e-11
4.28167e-08
-2.53327e-11
4.28108e-08
-2.16689e-11
4.28055e-08
-1.80099e-11
4.28007e-08
-1.44541e-11
4.27964e-08
-1.10835e-11
4.27926e-08
-7.96215e-12
4.27891e-08
-5.13628e-12
4.27859e-08
-2.63463e-12
4.27831e-08
-4.69847e-13
4.27804e-08
1.35953e-12
4.2778e-08
2.86651e-12
4.27758e-08
4.07299e-12
4.27737e-08
5.00717e-12
4.27717e-08
5.7011e-12
4.27699e-08
6.18841e-12
4.27682e-08
6.50255e-12
4.27665e-08
6.67531e-12
4.2765e-08
6.73582e-12
4.27635e-08
6.70993e-12
4.27621e-08
6.61991e-12
4.27608e-08
6.48441e-12
4.27595e-08
6.31869e-12
4.27583e-08
6.13493e-12
4.27572e-08
5.94268e-12
4.27561e-08
5.74932e-12
4.2755e-08
5.56048e-12
4.2754e-08
5.38045e-12
4.27531e-08
5.21251e-12
4.27522e-08
5.05922e-12
4.27514e-08
4.92278e-12
4.27506e-08
4.80525e-12
4.27498e-08
4.70874e-12
4.2749e-08
4.63529e-12
4.27483e-08
4.5859e-12
4.27477e-08
4.55741e-12
4.53129e-12
4.25877e-08
1.83902e-09
-4.25182e-08
4.2673e-08
1.98355e-09
4.27699e-08
2.10964e-09
4.2874e-08
2.21302e-09