/*--------------------------------*- C++ -*----------------------------------*\
| =========                 |                                                 |
| \\      /  F ield         | OpenFOAM: The Open Source CFD Toolbox           |
|  \\    /   O peration     | Version:  2.3.0                                 |
|   \\  /    A nd           | Web:      www.OpenFOAM.org                      |
|    \\/     M anipulation  |                                                 |
\*---------------------------------------------------------------------------*/
FoamFile
{
    version     2.0;
    format      ascii;
    class       volVectorField;
    location    "0.15";
    object      U_0;
}
// * * * * * * * * * * * * * * * * * * * * * * * * * * * * * * * * * * * * * //

dimensions      [0 1 -1 0 0 0 0];

internalField   nonuniform List<vector> 
8750
(
(0.171746 0.00592407 0)
(0.15534 0.00601005 0)
(0.139562 0.00559966 0)
(0.124596 0.00500668 0)
(0.11086 0.00434983 0)
(0.0985249 0.00368267 0)
(0.087602 0.00304206 0)
(0.0780575 0.00245354 0)
(0.0698359 0.00193261 0)
(0.0628534 0.00148713 0)
(0.0569973 0.00111885 0)
(0.0521359 0.00082438 0)
(0.0481297 0.000596445 0)
(0.0448406 0.000425439 0)
(0.0421396 0.000300939 0)
(0.0399116 0.00021289 0)
(0.0380581 0.000152355 0)
(0.0364981 0.000111861 0)
(0.0351668 8.5461e-05 0)
(0.034014 6.86135e-05 0)
(0.0330016 5.79892e-05 0)
(0.0321014 5.12422e-05 0)
(0.0312926 4.67892e-05 0)
(0.0305601 4.36111e-05 0)
(0.029893 4.10872e-05 0)
(0.029283 3.88657e-05 0)
(0.0287242 3.67685e-05 0)
(0.028212 3.4723e-05 0)
(0.0277428 3.27143e-05 0)
(0.0273137 3.07495e-05 0)
(0.0269223 2.88279e-05 0)
(0.0265668 2.69152e-05 0)
(0.0262459 2.49217e-05 0)
(0.0259591 2.26892e-05 0)
(0.0257069 1.99982e-05 0)
(0.0254906 1.66288e-05 0)
(0.025313 1.25144e-05 0)
(0.0251779 7.8127e-06 0)
(0.0250906 2.8265e-06 0)
(0.0250575 -9.67025e-07 0)
(0.0250723 -4.62543e-06 0)
(0.025117 -7.02239e-06 0)
(0.0251836 -9.07116e-06 0)
(0.0252645 -1.03475e-05 0)
(0.0253526 -1.07535e-05 0)
(0.0254425 -1.05042e-05 0)
(0.0255301 -9.85202e-06 0)
(0.0256127 -8.99028e-06 0)
(0.0256886 -8.05053e-06 0)
(0.0257573 -7.11592e-06 0)
(0.0258186 -6.23457e-06 0)
(0.0258729 -5.43055e-06 0)
(0.0259205 -4.7125e-06 0)
(0.0259622 -4.07985e-06 0)
(0.0259985 -3.52707e-06 0)
(0.0260299 -3.04636e-06 0)
(0.0260571 -2.62933e-06 0)
(0.0260806 -2.2679e-06 0)
(0.0261009 -1.95486e-06 0)
(0.0261182 -1.68388e-06 0)
(0.0261331 -1.44955e-06 0)
(0.0261459 -1.24725e-06 0)
(0.0261568 -1.07303e-06 0)
(0.0261661 -9.23515e-07 0)
(0.0261741 -7.9572e-07 0)
(0.0261809 -6.87084e-07 0)
(0.0261868 -5.95182e-07 0)
(0.0261919 -5.17887e-07 0)
(0.0261963 -4.53155e-07 0)
(0.0262001 -3.99177e-07 0)
(0.0262035 -3.54305e-07 0)
(0.0262065 -3.17007e-07 0)
(0.0262092 -2.85921e-07 0)
(0.0262116 -2.59839e-07 0)
(0.0262138 -2.37713e-07 0)
(0.0262159 -2.18727e-07 0)
(0.0262178 -2.02139e-07 0)
(0.0262195 -1.87383e-07 0)
(0.0262211 -1.74016e-07 0)
(0.0262226 -1.61695e-07 0)
(0.026224 -1.502e-07 0)
(0.0262254 -1.39329e-07 0)
(0.0262266 -1.28958e-07 0)
(0.0262277 -1.19005e-07 0)
(0.0262287 -1.09429e-07 0)
(0.0262297 -1.00181e-07 0)
(0.0262306 -9.12503e-08 0)
(0.0262314 -8.25988e-08 0)
(0.0262321 -7.42084e-08 0)
(0.0262328 -6.60463e-08 0)
(0.0262334 -5.80608e-08 0)
(0.0262339 -5.02e-08 0)
(0.0262343 -4.24016e-08 0)
(0.0262347 -3.45457e-08 0)
(0.026235 -2.63448e-08 0)
(0.0262352 -1.7536e-08 0)
(0.0262353 -8.26679e-09 0)
(0.0262354 -1.67685e-09 0)
(0.0262354 1.1086e-09 0)
(0.0262349 9.29847e-08 0)
(0.190614 0.00936585 0)
(0.188333 0.00988323 0)
(0.184445 0.00966022 0)
(0.179305 0.00916288 0)
(0.173418 0.00853112 0)
(0.167138 0.00781111 0)
(0.160686 0.00704062 0)
(0.154231 0.00625442 0)
(0.147909 0.00548156 0)
(0.14182 0.00474583 0)
(0.136032 0.00406579 0)
(0.130586 0.00345428 0)
(0.125501 0.00291807 0)
(0.120782 0.0024584 0)
(0.116419 0.00207195 0)
(0.112399 0.00175216 0)
(0.1087 0.0014906 0)
(0.1053 0.00127817 0)
(0.102176 0.00110599 0)
(0.0993042 0.000966008 0)
(0.0966629 0.000851318 0)
(0.0942319 0.000756243 0)
(0.0919928 0.000676269 0)
(0.0899293 0.000607904 0)
(0.0880273 0.000548497 0)
(0.0862742 0.000496061 0)
(0.0846594 0.000449118 0)
(0.083174 0.000406567 0)
(0.0818102 0.000367577 0)
(0.080562 0.000331493 0)
(0.0794243 0.000297756 0)
(0.0783935 0.000265825 0)
(0.0774674 0.000235126 0)
(0.0766448 0.00020501 0)
(0.0759262 0.000174752 0)
(0.0753129 0.000143623 0)
(0.0748071 0.000111105 0)
(0.0744103 7.70784e-05 0)
(0.0741216 4.16588e-05 0)
(0.0739367 6.46566e-06 0)
(0.073866 -2.45801e-05 0)
(0.0738948 -4.46904e-05 0)
(0.0739873 -5.54121e-05 0)
(0.0741219 -6.05192e-05 0)
(0.0742819 -6.18038e-05 0)
(0.0744542 -6.02212e-05 0)
(0.0746291 -5.66777e-05 0)
(0.0747995 -5.2002e-05 0)
(0.0749611 -4.68316e-05 0)
(0.075111 -4.16027e-05 0)
(0.0752479 -3.65871e-05 0)
(0.0753715 -3.19364e-05 0)
(0.0754819 -2.77199e-05 0)
(0.0755799 -2.39547e-05 0)
(0.0756661 -2.06276e-05 0)
(0.0757416 -1.77093e-05 0)
(0.0758074 -1.51634e-05 0)
(0.0758643 -1.29522e-05 0)
(0.0759133 -1.10391e-05 0)
(0.0759553 -9.39015e-06 0)
(0.0759912 -7.97471e-06 0)
(0.0760217 -6.76504e-06 0)
(0.0760475 -5.73615e-06 0)
(0.0760693 -4.86556e-06 0)
(0.0760877 -4.13291e-06 0)
(0.0761031 -3.51988e-06 0)
(0.0761162 -3.00975e-06 0)
(0.0761272 -2.58744e-06 0)
(0.0761366 -2.23928e-06 0)
(0.0761446 -1.95307e-06 0)
(0.0761514 -1.71811e-06 0)
(0.0761574 -1.52493e-06 0)
(0.0761626 -1.36541e-06 0)
(0.0761673 -1.23262e-06 0)
(0.0761714 -1.12074e-06 0)
(0.0761752 -1.02516e-06 0)
(0.0761786 -9.42095e-07 0)
(0.0761817 -8.68606e-07 0)
(0.0761846 -8.0243e-07 0)
(0.0761872 -7.41851e-07 0)
(0.0761897 -6.85657e-07 0)
(0.0761919 -6.32942e-07 0)
(0.076194 -5.83061e-07 0)
(0.0761959 -5.35564e-07 0)
(0.0761976 -4.90168e-07 0)
(0.0761993 -4.46636e-07 0)
(0.0762007 -4.04836e-07 0)
(0.076202 -3.64595e-07 0)
(0.0762032 -3.25763e-07 0)
(0.0762043 -2.8818e-07 0)
(0.0762052 -2.51645e-07 0)
(0.076206 -2.15921e-07 0)
(0.0762066 -1.80774e-07 0)
(0.0762072 -1.4584e-07 0)
(0.0762076 -1.10356e-07 0)
(0.0762079 -7.40936e-08 0)
(0.076208 -3.7747e-08 0)
(0.0762081 -3.35297e-09 0)
(0.076208 4.54803e-08 0)
(0.0762072 2.53552e-07 0)
(0.1936 0.00897524 0)
(0.194421 0.00993516 0)
(0.194584 0.0102652 0)
(0.193939 0.0102658 0)
(0.192604 0.0100389 0)
(0.190705 0.00962262 0)
(0.188335 0.00906163 0)
(0.185585 0.00840543 0)
(0.182549 0.00769911 0)
(0.179317 0.00698075 0)
(0.175968 0.00628097 0)
(0.172567 0.00562231 0)
(0.169165 0.00501917 0)
(0.165802 0.00447861 0)
(0.162509 0.00400175 0)
(0.159306 0.00358544 0)
(0.156207 0.00322398 0)
(0.15322 0.00291041 0)
(0.15035 0.00263762 0)
(0.147598 0.00239893 0)
(0.144967 0.00218848 0)
(0.142454 0.00200129 0)
(0.140059 0.00183327 0)
(0.137782 0.0016811 0)
(0.135619 0.0015421 0)
(0.133572 0.00141412 0)
(0.131638 0.0012954 0)
(0.129818 0.00118449 0)
(0.128112 0.00108015 0)
(0.126519 0.000981289 0)
(0.125041 0.000886866 0)
(0.12368 0.000795859 0)
(0.122437 0.000707219 0)
(0.121316 0.000619894 0)
(0.12032 0.000532911 0)
(0.119451 0.000445529 0)
(0.118712 0.000357476 0)
(0.118102 0.000269224 0)
(0.11762 0.000182181 0)
(0.117253 9.78922e-05 0)
(0.116978 2.0174e-05 0)
(0.116809 -4.43672e-05 0)
(0.116753 -8.96794e-05 0)
(0.11678 -0.000116866 0)
(0.116868 -0.000130821 0)
(0.116997 -0.000135395 0)
(0.117154 -0.000133375 0)
(0.117326 -0.000126987 0)
(0.117504 -0.000117977 0)
(0.117681 -0.000107636 0)
(0.117853 -9.68581e-05 0)
(0.118017 -8.62293e-05 0)
(0.11817 -7.61078e-05 0)
(0.118311 -6.6693e-05 0)
(0.11844 -5.8079e-05 0)
(0.118557 -5.0293e-05 0)
(0.118662 -4.33224e-05 0)
(0.118754 -3.71319e-05 0)
(0.118836 -3.16743e-05 0)
(0.118908 -2.68964e-05 0)
(0.11897 -2.27434e-05 0)
(0.119023 -1.91597e-05 0)
(0.119069 -1.60909e-05 0)
(0.119107 -1.34836e-05 0)
(0.119139 -1.12862e-05 0)
(0.119166 -9.44932e-06 0)
(0.119189 -7.92599e-06 0)
(0.119207 -6.67218e-06 0)
(0.119222 -5.64716e-06 0)
(0.119235 -4.81373e-06 0)
(0.119245 -4.13872e-06 0)
(0.119254 -3.5928e-06 0)
(0.119261 -3.15061e-06 0)
(0.119267 -2.7906e-06 0)
(0.119272 -2.4948e-06 0)
(0.119276 -2.24865e-06 0)
(0.11928 -2.0405e-06 0)
(0.119283 -1.8612e-06 0)
(0.119286 -1.70374e-06 0)
(0.119288 -1.56282e-06 0)
(0.11929 -1.43456e-06 0)
(0.119293 -1.31619e-06 0)
(0.119294 -1.20567e-06 0)
(0.119296 -1.10158e-06 0)
(0.119298 -1.00291e-06 0)
(0.119299 -9.08952e-07 0)
(0.1193 -8.19216e-07 0)
(0.119301 -7.33235e-07 0)
(0.119302 -6.5058e-07 0)
(0.119303 -5.70845e-07 0)
(0.119304 -4.93611e-07 0)
(0.119304 -4.18374e-07 0)
(0.119305 -3.44754e-07 0)
(0.119305 -2.72221e-07 0)
(0.119305 -1.99626e-07 0)
(0.119305 -1.26629e-07 0)
(0.119305 -5.54946e-08 0)
(0.119305 2.07909e-08 0)
(0.119305 1.44611e-07 0)
(0.119304 4.45822e-07 0)
(0.194626 0.00832087 0)
(0.195826 0.00937749 0)
(0.196913 0.00993033 0)
(0.19767 0.0101664 0)
(0.198076 0.0101702 0)
(0.198141 0.00997413 0)
(0.197864 0.00961396 0)
(0.197253 0.00913256 0)
(0.196335 0.00857171 0)
(0.19515 0.00796857 0)
(0.193742 0.00735469 0)
(0.192156 0.0067551 0)
(0.190433 0.00618771 0)
(0.188612 0.00566352 0)
(0.186725 0.00518764 0)
(0.184799 0.00476061 0)
(0.182855 0.00437982 0)
(0.180909 0.00404084 0)
(0.178974 0.0037384 0)
(0.17706 0.00346712 0)
(0.175174 0.00322197 0)
(0.173323 0.00299848 0)
(0.171511 0.00279284 0)
(0.169744 0.00260186 0)
(0.168027 0.00242293 0)
(0.166363 0.0022539 0)
(0.164757 0.00209301 0)
(0.163213 0.00193876 0)
(0.161737 0.00178988 0)
(0.160333 0.0016452 0)
(0.159006 0.0015036 0)
(0.157761 0.00136396 0)
(0.156606 0.00122517 0)
(0.155544 0.00108621 0)
(0.154582 0.000946293 0)
(0.153724 0.000805129 0)
(0.152973 0.000663243 0)
(0.152329 0.000522376 0)
(0.151789 0.000385954 0)
(0.151349 0.000258784 0)
(0.150999 0.000144278 0)
(0.150714 4.32269e-05 0)
(0.150498 -4.0608e-05 0)
(0.150367 -0.000102854 0)
(0.150307 -0.000144336 0)
(0.150306 -0.000169147 0)
(0.150352 -0.000181269 0)
(0.150435 -0.00018404 0)
(0.150543 -0.000180219 0)
(0.15067 -0.000171999 0)
(0.150808 -0.000161044 0)
(0.150953 -0.000148567 0)
(0.151099 -0.000135428 0)
(0.151243 -0.000122214 0)
(0.151383 -0.000109318 0)
(0.151517 -9.69973e-05 0)
(0.151642 -8.54108e-05 0)
(0.151759 -7.46549e-05 0)
(0.151865 -6.47813e-05 0)
(0.151962 -5.58114e-05 0)
(0.152049 -4.77443e-05 0)
(0.152126 -4.05621e-05 0)
(0.152193 -3.4233e-05 0)
(0.152251 -2.87142e-05 0)
(0.152301 -2.39534e-05 0)
(0.152343 -1.98912e-05 0)
(0.152379 -1.64631e-05 0)
(0.152408 -1.36013e-05 0)
(0.152432 -1.12374e-05 0)
(0.152451 -9.30381e-06 0)
(0.152467 -7.73634e-06 0)
(0.152479 -6.47499e-06 0)
(0.152488 -5.4654e-06 0)
(0.152496 -4.65944e-06 0)
(0.152502 -4.01552e-06 0)
(0.152507 -3.49862e-06 0)
(0.15251 -3.07991e-06 0)
(0.152513 -2.73611e-06 0)
(0.152515 -2.44892e-06 0)
(0.152517 -2.20417e-06 0)
(0.152518 -1.99117e-06 0)
(0.152519 -1.80206e-06 0)
(0.15252 -1.63107e-06 0)
(0.152521 -1.47403e-06 0)
(0.152521 -1.32798e-06 0)
(0.152522 -1.19086e-06 0)
(0.152522 -1.06123e-06 0)
(0.152522 -9.37947e-07 0)
(0.152522 -8.20024e-07 0)
(0.152523 -7.06669e-07 0)
(0.152522 -5.97134e-07 0)
(0.152522 -4.90565e-07 0)
(0.152522 -3.86402e-07 0)
(0.152522 -2.84488e-07 0)
(0.152521 -1.85233e-07 0)
(0.152521 -8.75337e-08 0)
(0.152521 1.3423e-08 0)
(0.15252 1.35101e-07 0)
(0.152519 3.25708e-07 0)
(0.152518 6.92052e-07 0)
(0.195338 0.00780354 0)
(0.196411 0.00880032 0)
(0.197551 0.00939319 0)
(0.198584 0.00970319 0)
(0.199469 0.00980501 0)
(0.200189 0.00972885 0)
(0.20072 0.00950105 0)
(0.20104 0.00915411 0)
(0.201141 0.00872174 0)
(0.20103 0.00823546 0)
(0.200724 0.00772326 0)
(0.200244 0.00720855 0)
(0.199615 0.0067093 0)
(0.198861 0.00623776 0)
(0.198007 0.00580091 0)
(0.197075 0.00540146 0)
(0.196083 0.0050389 0)
(0.195045 0.00471064 0)
(0.193975 0.00441295 0)
(0.192881 0.00414162 0)
(0.191772 0.00389252 0)
(0.190656 0.00366179 0)
(0.189536 0.00344606 0)
(0.18842 0.00324242 0)
(0.187312 0.00304844 0)
(0.186217 0.00286207 0)
(0.18514 0.0026816 0)
(0.184085 0.00250553 0)
(0.183059 0.00233257 0)
(0.182067 0.00216151 0)
(0.181114 0.00199118 0)
(0.180206 0.00182047 0)
(0.179349 0.00164834 0)
(0.178548 0.00147394 0)
(0.177809 0.00129685 0)
(0.177136 0.00111737 0)
(0.17653 0.00093683 0)
(0.175994 0.000757988 0)
(0.175525 0.000585173 0)
(0.175121 0.000423916 0)
(0.17478 0.000279595 0)
(0.174495 0.000154509 0)
(0.174252 4.80533e-05 0)
(0.174049 -3.88283e-05 0)
(0.173897 -0.000104561 0)
(0.173794 -0.000150752 0)
(0.173734 -0.000180856 0)
(0.173712 -0.000198285 0)
(0.173723 -0.000206011 0)
(0.173761 -0.000206526 0)
(0.173821 -0.000201838 0)
(0.173898 -0.000193517 0)
(0.173988 -0.000182752 0)
(0.174087 -0.000170438 0)
(0.174191 -0.000157235 0)
(0.174299 -0.000143637 0)
(0.174406 -0.000130008 0)
(0.174512 -0.000116628 0)
(0.174613 -0.000103708 0)
(0.17471 -9.14114e-05 0)
(0.1748 -7.98624e-05 0)
(0.174884 -6.91532e-05 0)
(0.174959 -5.93474e-05 0)
(0.175027 -5.04817e-05 0)
(0.175087 -4.25679e-05 0)
(0.175138 -3.55949e-05 0)
(0.175183 -2.95307e-05 0)
(0.17522 -2.43259e-05 0)
(0.175251 -1.99172e-05 0)
(0.175277 -1.62308e-05 0)
(0.175297 -1.31868e-05 0)
(0.175313 -1.07029e-05 0)
(0.175325 -8.69822e-06 0)
(0.175335 -7.09549e-06 0)
(0.175341 -5.82376e-06 0)
(0.175346 -4.81964e-06 0)
(0.17535 -4.02818e-06 0)
(0.175352 -3.40287e-06 0)
(0.175353 -2.90544e-06 0)
(0.175353 -2.50504e-06 0)
(0.175353 -2.17743e-06 0)
(0.175353 -1.90405e-06 0)
(0.175353 -1.67082e-06 0)
(0.175352 -1.46723e-06 0)
(0.175351 -1.28572e-06 0)
(0.17535 -1.12089e-06 0)
(0.175349 -9.68957e-07 0)
(0.175348 -8.27162e-07 0)
(0.175347 -6.93355e-07 0)
(0.175346 -5.66009e-07 0)
(0.175345 -4.4405e-07 0)
(0.175344 -3.2675e-07 0)
(0.175343 -2.12294e-07 0)
(0.175341 -9.84517e-08 0)
(0.17534 1.51983e-08 0)
(0.175339 1.30808e-07 0)
(0.175338 2.58267e-07 0)
(0.175336 4.1768e-07 0)
(0.175335 6.51561e-07 0)
(0.175333 1.04046e-06 0)
(0.19594 0.00735746 0)
(0.196844 0.00825609 0)
(0.197863 0.0088384 0)
(0.198865 0.00917448 0)
(0.199805 0.00932332 0)
(0.200664 0.00931292 0)
(0.201419 0.00916495 0)
(0.202046 0.00890556 0)
(0.202531 0.00856294 0)
(0.20287 0.00816407 0)
(0.203065 0.00773332 0)
(0.203125 0.00729161 0)
(0.203064 0.00685554 0)
(0.202897 0.00643706 0)
(0.20264 0.00604366 0)
(0.202308 0.00567898 0)
(0.201915 0.00534376 0)
(0.201471 0.00503664 0)
(0.200987 0.004755 0)
(0.20047 0.0044956 0)
(0.199926 0.00425503 0)
(0.199361 0.00402999 0)
(0.19878 0.00381747 0)
(0.198185 0.00361482 0)
(0.197581 0.00341973 0)
(0.196972 0.00323022 0)
(0.196361 0.00304457 0)
(0.195752 0.00286129 0)
(0.195148 0.00267902 0)
(0.194555 0.00249653 0)
(0.193975 0.00231264 0)
(0.193413 0.00212627 0)
(0.192873 0.0019365 0)
(0.192359 0.00174271 0)
(0.191874 0.00154485 0)
(0.191421 0.00134368 0)
(0.191001 0.00114113 0)
(0.190614 0.00094053 0)
(0.190261 0.000746583 0)
(0.189941 0.00056492 0)
(0.189654 0.000401009 0)
(0.1894 0.000258478 0)
(0.189178 0.000137908 0)
(0.188979 3.77579e-05 0)
(0.188804 -4.26729e-05 0)
(0.18866 -0.000103953 0)
(0.188545 -0.000148303 0)
(0.188459 -0.000178685 0)
(0.1884 -0.000197886 0)
(0.188365 -0.000208315 0)
(0.188352 -0.000211984 0)
(0.188358 -0.000210519 0)
(0.188381 -0.000205205 0)
(0.188417 -0.000197045 0)
(0.188463 -0.000186817 0)
(0.188519 -0.00017513 0)
(0.18858 -0.00016247 0)
(0.188646 -0.000149228 0)
(0.188714 -0.000135731 0)
(0.188782 -0.000122256 0)
(0.188849 -0.000109038 0)
(0.188914 -9.62802e-05 0)
(0.188976 -8.41532e-05 0)
(0.189033 -7.27955e-05 0)
(0.189084 -6.23132e-05 0)
(0.189131 -5.27795e-05 0)
(0.189172 -4.42351e-05 0)
(0.189207 -3.66894e-05 0)
(0.189237 -3.01235e-05 0)
(0.189262 -2.4494e-05 0)
(0.189282 -1.97374e-05 0)
(0.189297 -1.5776e-05 0)
(0.189309 -1.25228e-05 0)
(0.189318 -9.88675e-06 0)
(0.189324 -7.7774e-06 0)
(0.189328 -6.10833e-06 0)
(0.18933 -4.80012e-06 0)
(0.189331 -3.78202e-06 0)
(0.189331 -2.9929e-06 0)
(0.18933 -2.38135e-06 0)
(0.189329 -1.9052e-06 0)
(0.189327 -1.53104e-06 0)
(0.189324 -1.23279e-06 0)
(0.189322 -9.90154e-07 0)
(0.18932 -7.87904e-07 0)
(0.189317 -6.14841e-07 0)
(0.189315 -4.62377e-07 0)
(0.189313 -3.24503e-07 0)
(0.18931 -1.97305e-07 0)
(0.189308 -7.80754e-08 0)
(0.189306 3.52654e-08 0)
(0.189303 1.44293e-07 0)
(0.189301 2.51534e-07 0)
(0.189299 3.60158e-07 0)
(0.189297 4.73007e-07 0)
(0.189295 5.9415e-07 0)
(0.189293 7.31724e-07 0)
(0.189291 9.02978e-07 0)
(0.189289 1.14361e-06 0)
(0.189286 1.50862e-06 0)
(0.196464 0.00697362 0)
(0.197231 0.00777431 0)
(0.198118 0.00832957 0)
(0.199027 0.00867268 0)
(0.199911 0.00884571 0)
(0.20075 0.00887372 0)
(0.201522 0.00877606 0)
(0.20221 0.00857499 0)
(0.2028 0.00829478 0)
(0.203284 0.00795902 0)
(0.203664 0.00758916 0)
(0.203943 0.00720381 0)
(0.204129 0.00681805 0)
(0.204233 0.00644314 0)
(0.204265 0.00608654 0)
(0.204237 0.00575239 0)
(0.204158 0.00544214 0)
(0.204038 0.00515533 0)
(0.203883 0.00489017 0)
(0.2037 0.00464415 0)
(0.203492 0.00441447 0)
(0.203265 0.00419828 0)
(0.20302 0.00399288 0)
(0.202761 0.00379582 0)
(0.202489 0.00360492 0)
(0.202207 0.00341824 0)
(0.201917 0.00323407 0)
(0.201621 0.00305092 0)
(0.201321 0.00286739 0)
(0.201018 0.00268224 0)
(0.200717 0.00249432 0)
(0.200417 0.0023026 0)
(0.200122 0.00210629 0)
(0.199834 0.00190499 0)
(0.199553 0.00169889 0)
(0.19928 0.00148909 0)
(0.199015 0.0012778 0)
(0.198759 0.00106852 0)
(0.198512 0.000865942 0)
(0.198274 0.000675451 0)
(0.198047 0.000502157 0)
(0.197834 0.000349756 0)
(0.197636 0.000219837 0)
(0.197455 0.000111636 0)
(0.197288 2.31422e-05 0)
(0.197135 -4.72067e-05 0)
(0.197001 -0.000101065 0)
(0.196886 -0.000140782 0)
(0.19679 -0.000168847 0)
(0.196713 -0.000187491 0)
(0.196652 -0.000198615 0)
(0.196608 -0.000203785 0)
(0.196578 -0.000204267 0)
(0.196561 -0.000201066 0)
(0.196556 -0.000194982 0)
(0.196561 -0.000186655 0)
(0.196573 -0.000176606 0)
(0.196593 -0.00016527 0)
(0.196618 -0.000153024 0)
(0.196647 -0.000140199 0)
(0.196678 -0.000127093 0)
(0.196711 -0.000113977 0)
(0.196743 -0.000101093 0)
(0.196775 -8.86575e-05 0)
(0.196806 -7.6854e-05 0)
(0.196834 -6.58326e-05 0)
(0.19686 -5.57068e-05 0)
(0.196883 -4.65525e-05 0)
(0.196902 -3.84084e-05 0)
(0.196918 -3.12784e-05 0)
(0.196931 -2.51356e-05 0)
(0.196941 -1.99271e-05 0)
(0.196949 -1.55802e-05 0)
(0.196954 -1.20089e-05 0)
(0.196956 -9.11958e-06 0)
(0.196958 -6.81647e-06 0)
(0.196957 -5.00659e-06 0)
(0.196956 -3.60303e-06 0)
(0.196954 -2.52751e-06 0)
(0.196951 -1.71164e-06 0)
(0.196948 -1.09682e-06 0)
(0.196944 -6.33921e-07 0)
(0.19694 -2.84241e-07 0)
(0.196936 -1.85631e-08 0)
(0.196933 1.85615e-07 0)
(0.196929 3.45697e-07 0)
(0.196925 4.75316e-07 0)
(0.196921 5.84389e-07 0)
(0.196918 6.79798e-07 0)
(0.196914 7.66509e-07 0)
(0.196911 8.48391e-07 0)
(0.196908 9.28701e-07 0)
(0.196905 1.00991e-06 0)
(0.196902 1.0941e-06 0)
(0.196899 1.1843e-06 0)
(0.196897 1.28534e-06 0)
(0.196894 1.40544e-06 0)
(0.196891 1.56031e-06 0)
(0.196889 1.77722e-06 0)
(0.196886 2.08629e-06 0)
(0.196926 0.00664051 0)
(0.197585 0.0073509 0)
(0.198358 0.00787038 0)
(0.199171 0.0082093 0)
(0.199979 0.00839514 0)
(0.200759 0.00844891 0)
(0.201492 0.00838777 0)
(0.202162 0.00823073 0)
(0.202757 0.00799867 0)
(0.20327 0.00771225 0)
(0.203701 0.00739048 0)
(0.204053 0.00705003 0)
(0.20433 0.00670467 0)
(0.204542 0.00636497 0)
(0.204696 0.00603826 0)
(0.204802 0.00572899 0)
(0.204867 0.00543917 0)
(0.204899 0.00516901 0)
(0.204905 0.00491742 0)
(0.204888 0.00468253 0)
(0.204852 0.00446207 0)
(0.204801 0.00425361 0)
(0.204737 0.00405478 0)
(0.204661 0.00386334 0)
(0.204575 0.00367724 0)
(0.20448 0.00349464 0)
(0.204376 0.00331387 0)
(0.204265 0.00313344 0)
(0.204147 0.00295198 0)
(0.204023 0.00276826 0)
(0.203894 0.00258117 0)
(0.20376 0.00238978 0)
(0.203622 0.0021934 0)
(0.203479 0.0019918 0)
(0.203332 0.00178534 0)
(0.20318 0.00157526 0)
(0.203023 0.00136384 0)
(0.202859 0.00115449 0)
(0.202688 0.000951617 0)
(0.202513 0.000760155 0)
(0.202335 0.000584746 0)
(0.202157 0.000428865 0)
(0.201983 0.000294294 0)
(0.201817 0.000181054 0)
(0.20166 8.7612e-05 0)
(0.201511 1.1852e-05 0)
(0.201373 -4.81329e-05 0)
(0.201248 -9.43103e-05 0)
(0.201135 -0.000128826 0)
(0.201036 -0.000153713 0)
(0.20095 -0.000170741 0)
(0.200877 -0.000181396 0)
(0.200815 -0.000186892 0)
(0.200763 -0.000188211 0)
(0.200722 -0.000186143 0)
(0.20069 -0.000181327 0)
(0.200665 -0.000174292 0)
(0.200648 -0.000165484 0)
(0.200637 -0.000155295 0)
(0.200631 -0.000144076 0)
(0.200629 -0.00013215 0)
(0.20063 -0.000119819 0)
(0.200634 -0.000107364 0)
(0.200639 -9.5042e-05 0)
(0.200646 -8.30839e-05 0)
(0.200653 -7.16895e-05 0)
(0.20066 -6.10231e-05 0)
(0.200666 -5.12106e-05 0)
(0.200671 -4.23378e-05 0)
(0.200675 -3.44508e-05 0)
(0.200678 -2.7559e-05 0)
(0.20068 -2.16389e-05 0)
(0.20068 -1.664e-05 0)
(0.200679 -1.24909e-05 0)
(0.200678 -9.10617e-06 0)
(0.200675 -6.39256e-06 0)
(0.200671 -4.25477e-06 0)
(0.200667 -2.60005e-06 0)
(0.200663 -1.34111e-06 0)
(0.200658 -3.98629e-07 0)
(0.200653 2.95635e-07 0)
(0.200648 7.98859e-07 0)
(0.200643 1.15766e-06 0)
(0.200637 1.40874e-06 0)
(0.200632 1.58126e-06 0)
(0.200628 1.69817e-06 0)
(0.200623 1.77695e-06 0)
(0.200618 1.8307e-06 0)
(0.200614 1.86924e-06 0)
(0.20061 1.89974e-06 0)
(0.200606 1.92738e-06 0)
(0.200602 1.95613e-06 0)
(0.200599 1.9889e-06 0)
(0.200595 2.02829e-06 0)
(0.200592 2.07763e-06 0)
(0.200589 2.14172e-06 0)
(0.200586 2.22814e-06 0)
(0.200583 2.34964e-06 0)
(0.20058 2.52431e-06 0)
(0.200576 2.76056e-06 0)
(0.197334 0.00634554 0)
(0.19791 0.00697508 0)
(0.198587 0.00745508 0)
(0.199312 0.00778313 0)
(0.200046 0.00797532 0)
(0.200763 0.00804796 0)
(0.201445 0.0080157 0)
(0.202077 0.00789462 0)
(0.202648 0.00770254 0)
(0.203153 0.00745746 0)
(0.203588 0.00717623 0)
(0.203956 0.00687381 0)
(0.204262 0.00656279 0)
(0.204512 0.00625308 0)
(0.204713 0.00595184 0)
(0.204873 0.00566369 0)
(0.204998 0.00539109 0)
(0.205096 0.00513481 0)
(0.205172 0.00489436 0)
(0.205229 0.00466846 0)
(0.205272 0.00445533 0)
(0.205303 0.00425297 0)
(0.205323 0.00405932 0)
(0.205335 0.0038724 0)
(0.205339 0.00369034 0)
(0.205336 0.00351141 0)
(0.205326 0.00333403 0)
(0.20531 0.00315677 0)
(0.205286 0.00297831 0)
(0.205257 0.00279748 0)
(0.20522 0.00261324 0)
(0.205176 0.00242475 0)
(0.205124 0.00223145 0)
(0.205064 0.00203321 0)
(0.204993 0.0018305 0)
(0.204911 0.0016246 0)
(0.204816 0.00141771 0)
(0.204708 0.00121301 0)
(0.204587 0.0010145 0)
(0.204453 0.000826571 0)
(0.204309 0.000653365 0)
(0.204158 0.00049805 0)
(0.204004 0.000362398 0)
(0.203852 0.000246722 0)
(0.203703 0.000150098 0)
(0.203561 7.07442e-05 0)
(0.203425 6.62941e-06 0)
(0.203297 -4.41451e-05 0)
(0.203179 -8.34625e-05 0)
(0.203071 -0.000113148 0)
(0.202973 -0.000134836 0)
(0.202884 -0.000149926 0)
(0.202805 -0.000159579 0)
(0.202735 -0.000164749 0)
(0.202673 -0.00016621 0)
(0.202618 -0.000164599 0)
(0.20257 -0.000160444 0)
(0.202529 -0.000154197 0)
(0.202494 -0.000146256 0)
(0.202464 -0.000136979 0)
(0.202439 -0.000126701 0)
(0.202418 -0.000115736 0)
(0.2024 -0.000104382 0)
(0.202385 -9.29135e-05 0)
(0.202373 -8.15855e-05 0)
(0.202363 -7.06231e-05 0)
(0.202354 -6.02185e-05 0)
(0.202346 -5.05267e-05 0)
(0.202339 -4.16631e-05 0)
(0.202333 -3.37022e-05 0)
(0.202327 -2.66802e-05 0)
(0.202321 -2.05971e-05 0)
(0.202315 -1.54226e-05 0)
(0.202309 -1.11015e-05 0)
(0.202302 -7.56046e-06 0)
(0.202296 -4.71471e-06 0)
(0.20229 -2.47339e-06 0)
(0.202283 -7.44521e-07 0)
(0.202277 5.60051e-07 0)
(0.20227 1.52085e-06 0)
(0.202264 2.20814e-06 0)
(0.202257 2.68147e-06 0)
(0.202251 2.99149e-06 0)
(0.202245 3.18055e-06 0)
(0.20224 3.28281e-06 0)
(0.202234 3.32491e-06 0)
(0.202229 3.32711e-06 0)
(0.202224 3.30454e-06 0)
(0.202219 3.26843e-06 0)
(0.202214 3.22691e-06 0)
(0.20221 3.18585e-06 0)
(0.202206 3.14966e-06 0)
(0.202202 3.12163e-06 0)
(0.202198 3.10463e-06 0)
(0.202194 3.10197e-06 0)
(0.202191 3.1181e-06 0)
(0.202187 3.15952e-06 0)
(0.202184 3.23574e-06 0)
(0.202181 3.35679e-06 0)
(0.202178 3.51414e-06 0)
(0.197697 0.0060799 0)
(0.198206 0.00663845 0)
(0.198804 0.00707867 0)
(0.199452 0.00739182 0)
(0.200118 0.00758572 0)
(0.200775 0.00767211 0)
(0.201406 0.00766307 0)
(0.201997 0.00757206 0)
(0.202538 0.00741418 0)
(0.203022 0.00720498 0)
(0.203447 0.00695932 0)
(0.203814 0.00669058 0)
(0.204126 0.00641022 0)
(0.204388 0.00612749 0)
(0.204607 0.00584927 0)
(0.204788 0.00558029 0)
(0.204939 0.00532332 0)
(0.205064 0.00507959 0)
(0.205169 0.00484913 0)
(0.205258 0.00463116 0)
(0.205335 0.00442439 0)
(0.2054 0.0042272 0)
(0.205458 0.00403787 0)
(0.205508 0.00385469 0)
(0.205551 0.00367598 0)
(0.205589 0.00350017 0)
(0.205621 0.0033258 0)
(0.205647 0.00315154 0)
(0.205667 0.00297616 0)
(0.20568 0.00279857 0)
(0.205687 0.00261783 0)
(0.205686 0.00243319 0)
(0.205675 0.00224422 0)
(0.205654 0.00205087 0)
(0.205622 0.00185369 0)
(0.205575 0.00165391 0)
(0.205514 0.00145359 0)
(0.205437 0.00125563 0)
(0.205344 0.00106357 0)
(0.205235 0.000881298 0)
(0.205113 0.000712439 0)
(0.204982 0.000559844 0)
(0.204844 0.000425204 0)
(0.204703 0.000308982 0)
(0.204563 0.000210587 0)
(0.204427 0.000128679 0)
(0.204295 6.15154e-05 0)
(0.20417 7.25482e-06 0)
(0.204052 -3.58309e-05 0)
(0.203941 -6.93846e-05 0)
(0.203838 -9.49093e-05 0)
(0.203743 -0.000113713 0)
(0.203656 -0.000126903 0)
(0.203577 -0.0001354 0)
(0.203504 -0.000139966 0)
(0.203438 -0.000141232 0)
(0.203379 -0.000139729 0)
(0.203325 -0.000135914 0)
(0.203276 -0.000130189 0)
(0.203233 -0.00012292 0)
(0.203194 -0.000114447 0)
(0.20316 -0.000105092 0)
(0.203129 -9.51563e-05 0)
(0.203102 -8.49258e-05 0)
(0.203078 -7.46627e-05 0)
(0.203057 -6.46033e-05 0)
(0.203038 -5.49523e-05 0)
(0.203021 -4.58788e-05 0)
(0.203006 -3.75137e-05 0)
(0.202993 -2.9948e-05 0)
(0.20298 -2.32342e-05 0)
(0.202969 -1.73887e-05 0)
(0.202959 -1.23966e-05 0)
(0.202949 -8.21673e-06 0)
(0.20294 -4.78789e-06 0)
(0.202931 -2.035e-06 0)
(0.202922 1.25087e-07 0)
(0.202914 1.77791e-06 0)
(0.202906 3.00592e-06 0)
(0.202899 3.88522e-06 0)
(0.202892 4.48508e-06 0)
(0.202885 4.86678e-06 0)
(0.202878 5.08278e-06 0)
(0.202871 5.17672e-06 0)
(0.202865 5.1838e-06 0)
(0.202859 5.13162e-06 0)
(0.202854 5.04139e-06 0)
(0.202848 4.92904e-06 0)
(0.202843 4.80648e-06 0)
(0.202838 4.68238e-06 0)
(0.202834 4.56301e-06 0)
(0.202829 4.45305e-06 0)
(0.202825 4.35596e-06 0)
(0.202821 4.27474e-06 0)
(0.202817 4.21253e-06 0)
(0.202814 4.17332e-06 0)
(0.20281 4.16239e-06 0)
(0.202807 4.18618e-06 0)
(0.202804 4.24826e-06 0)
(0.2028 4.32865e-06 0)
(0.19802 0.00583752 0)
(0.198476 0.00633434 0)
(0.199008 0.00673633 0)
(0.199589 0.00703219 0)
(0.200192 0.00722422 0)
(0.200794 0.0073202 0)
(0.201378 0.00732974 0)
(0.201929 0.00726397 0)
(0.202439 0.00713559 0)
(0.2029 0.00695792 0)
(0.20331 0.00674397 0)
(0.203669 0.00650563 0)
(0.20398 0.00625329 0)
(0.204245 0.00599549 0)
(0.204471 0.00573881 0)
(0.204662 0.00548794 0)
(0.204825 0.0052459 0)
(0.204963 0.00501424 0)
(0.205082 0.00479344 0)
(0.205186 0.00458316 0)
(0.205277 0.00438252 0)
(0.205358 0.00419028 0)
(0.20543 0.00400505 0)
(0.205496 0.00382536 0)
(0.205556 0.00364976 0)
(0.20561 0.00347686 0)
(0.205659 0.00330532 0)
(0.205702 0.00313395 0)
(0.20574 0.00296162 0)
(0.205771 0.00278734 0)
(0.205795 0.00261028 0)
(0.205812 0.00242981 0)
(0.205819 0.00224558 0)
(0.205815 0.00205763 0)
(0.205799 0.00186654 0)
(0.205769 0.00167349 0)
(0.205724 0.00148036 0)
(0.205663 0.00128977 0)
(0.205585 0.00110483 0)
(0.205492 0.000928933 0)
(0.205385 0.000765256 0)
(0.205267 0.000616337 0)
(0.205141 0.000483761 0)
(0.205011 0.000368079 0)
(0.204879 0.000268928 0)
(0.204749 0.000185279 0)
(0.204623 0.000115708 0)
(0.204501 5.86208e-05 0)
(0.204385 1.24049e-05 0)
(0.204275 -2.44373e-05 0)
(0.204172 -5.3276e-05 0)
(0.204076 -7.53344e-05 0)
(0.203987 -9.16625e-05 0)
(0.203904 -0.000103147 0)
(0.203827 -0.000110534 0)
(0.203756 -0.000114447 0)
(0.203691 -0.00011542 0)
(0.203632 -0.000113914 0)
(0.203577 -0.000110337 0)
(0.203527 -0.000105061 0)
(0.203482 -9.84316e-05 0)
(0.203441 -9.07729e-05 0)
(0.203404 -8.23913e-05 0)
(0.203371 -7.35739e-05 0)
(0.203341 -6.45861e-05 0)
(0.203314 -5.56673e-05 0)
(0.203289 -4.70267e-05 0)
(0.203268 -3.88391e-05 0)
(0.203248 -3.12426e-05 0)
(0.203231 -2.43369e-05 0)
(0.203215 -1.81844e-05 0)
(0.203201 -1.28128e-05 0)
(0.203188 -8.21845e-06 0)
(0.203176 -4.37156e-06 0)
(0.203165 -1.22195e-06 0)
(0.203155 1.29516e-06 0)
(0.203145 3.25306e-06 0)
(0.203136 4.72803e-06 0)
(0.203127 5.79559e-06 0)
(0.203119 6.5279e-06 0)
(0.203111 6.99139e-06 0)
(0.203104 7.245e-06 0)
(0.203097 7.33935e-06 0)
(0.20309 7.31685e-06 0)
(0.203084 7.21203e-06 0)
(0.203078 7.05228e-06 0)
(0.203072 6.85881e-06 0)
(0.203067 6.64772e-06 0)
(0.203061 6.43105e-06 0)
(0.203056 6.21765e-06 0)
(0.203052 6.01397e-06 0)
(0.203047 5.82475e-06 0)
(0.203043 5.65354e-06 0)
(0.203039 5.50331e-06 0)
(0.203035 5.37699e-06 0)
(0.203031 5.27801e-06 0)
(0.203027 5.21039e-06 0)
(0.203024 5.17791e-06 0)
(0.203021 5.17945e-06 0)
(0.203017 5.18892e-06 0)
(0.19831 0.00561408 0)
(0.198721 0.00605736 0)
(0.199198 0.00642361 0)
(0.199721 0.00670106 0)
(0.200269 0.00688855 0)
(0.20082 0.00699075 0)
(0.201359 0.00701496 0)
(0.201873 0.0069703 0)
(0.202352 0.00686732 0)
(0.20279 0.00671737 0)
(0.203184 0.00653175 0)
(0.203534 0.00632097 0)
(0.203839 0.00609437 0)
(0.204105 0.00585981 0)
(0.204333 0.00562348 0)
(0.204529 0.00539001 0)
(0.204698 0.00516249 0)
(0.204844 0.00494277 0)
(0.204971 0.00473166 0)
(0.205083 0.0045292 0)
(0.205182 0.00433485 0)
(0.20527 0.00414774 0)
(0.205351 0.00396676 0)
(0.205423 0.0037907 0)
(0.20549 0.00361832 0)
(0.205551 0.00344839 0)
(0.205606 0.00327977 0)
(0.205656 0.00311134 0)
(0.2057 0.00294213 0)
(0.205738 0.00277124 0)
(0.205769 0.00259797 0)
(0.205791 0.00242177 0)
(0.205805 0.0022424 0)
(0.205808 0.00205996 0)
(0.205798 0.00187503 0)
(0.205776 0.00168873 0)
(0.205738 0.00150279 0)
(0.205685 0.00131952 0)
(0.205617 0.00114167 0)
(0.205533 0.000972199 0)
(0.205436 0.000813875 0)
(0.205328 0.000668953 0)
(0.205211 0.000538903 0)
(0.20509 0.000424326 0)
(0.204967 0.000325035 0)
(0.204843 0.000240243 0)
(0.204723 0.000168783 0)
(0.204605 0.000109297 0)
(0.204493 6.03731e-05 0)
(0.204386 2.06353e-05 0)
(0.204285 -1.11792e-05 0)
(0.20419 -3.61929e-05 0)
(0.2041 -5.54004e-05 0)
(0.204017 -6.96547e-05 0)
(0.20394 -7.96805e-05 0)
(0.203868 -8.60951e-05 0)
(0.203801 -8.94295e-05 0)
(0.203739 -9.01475e-05 0)
(0.203683 -8.86631e-05 0)
(0.20363 -8.53529e-05 0)
(0.203583 -8.05659e-05 0)
(0.203539 -7.46293e-05 0)
(0.203499 -6.78506e-05 0)
(0.203463 -6.05173e-05 0)
(0.20343 -5.28949e-05 0)