/*--------------------------------*- C++ -*----------------------------------*\
| =========                 |                                                 |
| \\      /  F ield         | OpenFOAM: The Open Source CFD Toolbox           |
|  \\    /   O peration     | Version:  2.3.0                                 |
|   \\  /    A nd           | Web:      www.OpenFOAM.org                      |
|    \\/     M anipulation  |                                                 |
\*---------------------------------------------------------------------------*/
FoamFile
{
    version     2.0;
    format      ascii;
    class       volVectorField;
    location    "0.3";
    object      U;
}
// * * * * * * * * * * * * * * * * * * * * * * * * * * * * * * * * * * * * * //

dimensions      [0 1 -1 0 0 0 0];

internalField   nonuniform List<vector> 
2945
(
(0.160991 0.00627918 0)
(0.121922 0.00660468 0)
(0.0902479 0.00468317 0)
(0.0671191 0.00258961 0)
(0.0524898 0.00111126 0)
(0.0437887 0.000363111 0)
(0.0385231 9.58944e-05 0)
(0.0351649 4.13039e-05 0)
(0.0327936 5.54833e-05 0)
(0.0309102 7.56931e-05 0)
(0.0292974 8.38979e-05 0)
(0.0278773 8.17001e-05 0)
(0.0266186 7.46565e-05 0)
(0.0254994 6.65889e-05 0)
(0.0245013 5.91229e-05 0)
(0.0236078 5.26616e-05 0)
(0.0228038 4.7207e-05 0)
(0.0220755 4.27128e-05 0)
(0.0214103 3.90836e-05 0)
(0.0207976 3.61438e-05 0)
(0.0202297 3.35801e-05 0)
(0.019702 3.10882e-05 0)
(0.019212 2.85911e-05 0)
(0.0187582 2.60922e-05 0)
(0.0183391 2.36267e-05 0)
(0.0179523 2.14093e-05 0)
(0.0175939 1.96585e-05 0)
(0.0172593 1.83483e-05 0)
(0.0169448 1.7262e-05 0)
(0.0166489 1.61635e-05 0)
(0.0163717 1.49793e-05 0)
(0.0161132 1.38186e-05 0)
(0.0158723 1.27867e-05 0)
(0.0156479 1.1856e-05 0)
(0.0154392 1.09402e-05 0)
(0.0152461 9.99533e-06 0)
(0.0150685 9.05831e-06 0)
(0.0149062 8.18046e-06 0)
(0.0147583 7.3788e-06 0)
(0.0146243 6.64002e-06 0)
(0.0145035 5.95237e-06 0)
(0.0143956 5.2879e-06 0)
(0.0143005 4.63146e-06 0)
(0.014218 3.97833e-06 0)
(0.0141481 3.33263e-06 0)
(0.0140907 2.673e-06 0)
(0.0140458 1.97823e-06 0)
(0.0140136 1.22848e-06 0)
(0.0139939 5.19232e-07 0)
(0.0139865 -3.81676e-08 0)
(0.01399 -7.18845e-07 0)
(0.0140022 -1.2102e-06 0)
(0.0140204 -1.53042e-06 0)
(0.014042 -1.65299e-06 0)
(0.0140645 -1.62459e-06 0)
(0.0140864 -1.50811e-06 0)
(0.0141066 -1.34343e-06 0)
(0.0141251 -1.18778e-06 0)
(0.0141417 -1.03731e-06 0)
(0.0141568 -9.24181e-07 0)
(0.0141705 -8.17947e-07 0)
(0.0141834 -7.4504e-07 0)
(0.0141951 -6.66142e-07 0)
(0.0142062 -6.12838e-07 0)
(0.0142163 -5.43051e-07 0)
(0.0142257 -4.98047e-07 0)
(0.0142343 -4.36538e-07 0)
(0.0142422 -3.98408e-07 0)
(0.0142494 -3.4797e-07 0)
(0.0142557 -3.12698e-07 0)
(0.0142617 -2.7161e-07 0)
(0.0142664 -2.33571e-07 0)
(0.0142715 -2.02763e-07 0)
(0.0142743 -1.64007e-07 0)
(0.0142792 -1.61557e-07 0)
(0.190449 0.0112563 0)
(0.182829 0.0137414 0)
(0.171649 0.0121772 0)
(0.157802 0.0092509 0)
(0.143433 0.00630113 0)
(0.130064 0.00403097 0)
(0.118405 0.00256942 0)
(0.108744 0.00172796 0)
(0.100944 0.00126624 0)
(0.0946239 0.00100501 0)
(0.0893876 0.000841351 0)
(0.0849372 0.000725559 0)
(0.0810747 0.000635138 0)
(0.0776696 0.000559906 0)
(0.0746343 0.000495666 0)
(0.0719076 0.000440801 0)
(0.0694427 0.000394402 0)
(0.0672014 0.000355587 0)
(0.0651518 0.000323214 0)
(0.0632675 0.000295898 0)
(0.0615283 0.000271989 0)
(0.0599189 0.000250077 0)
(0.0584272 0.000229622 0)
(0.057044 0.000210465 0)
(0.0557603 0.000192605 0)
(0.0545672 0.000176566 0)
(0.0534551 0.000162849 0)
(0.0524148 0.000151206 0)
(0.0514393 0.000140818 0)
(0.0505247 0.000130849 0)
(0.0496691 0.000121016 0)
(0.0488704 0.000111626 0)
(0.0481256 0.000102967 0)
(0.0474321 9.49067e-05 0)
(0.0467875 8.71442e-05 0)
(0.0461911 7.95254e-05 0)
(0.0456414 7.2153e-05 0)
(0.0451372 6.5168e-05 0)
(0.0446769 5.85996e-05 0)
(0.044259 5.23814e-05 0)
(0.0438825 4.64556e-05 0)
(0.0435466 4.07247e-05 0)
(0.0432508 3.51437e-05 0)
(0.0429948 2.97042e-05 0)
(0.0427778 2.44308e-05 0)
(0.0425995 1.92795e-05 0)
(0.0424589 1.42338e-05 0)
(0.0423555 9.28938e-06 0)
(0.0422873 4.67478e-06 0)
(0.0422516 6.77899e-07 0)
(0.0422433 -2.98157e-06 0)
(0.0422566 -5.52289e-06 0)
(0.0422843 -7.01404e-06 0)
(0.0423207 -7.57613e-06 0)
(0.0423599 -7.48202e-06 0)
(0.0423993 -7.00958e-06 0)
(0.0424363 -6.34418e-06 0)
(0.042471 -5.71451e-06 0)
(0.0425028 -5.11857e-06 0)
(0.042533 -4.66463e-06 0)
(0.0425609 -4.24128e-06 0)
(0.042588 -3.93609e-06 0)
(0.0426132 -3.60426e-06 0)
(0.0426378 -3.35953e-06 0)
(0.0426606 -3.04619e-06 0)
(0.0426825 -2.82135e-06 0)
(0.0427027 -2.52274e-06 0)
(0.0427216 -2.31733e-06 0)
(0.0427392 -2.04421e-06 0)
(0.0427545 -1.85181e-06 0)
(0.0427697 -1.60078e-06 0)
(0.0427811 -1.41634e-06 0)
(0.0427944 -1.18833e-06 0)
(0.042801 -1.05058e-06 0)
(0.0428143 -8.90323e-07 0)
(0.191399 0.0103715 0)
(0.192795 0.0141246 0)
(0.193367 0.0139701 0)
(0.190976 0.0119155 0)
(0.185721 0.00945498 0)
(0.178702 0.00735598 0)
(0.170948 0.00579691 0)
(0.163202 0.00467384 0)
(0.15585 0.00383787 0)
(0.149024 0.00319348 0)
(0.142737 0.00269113 0)
(0.136977 0.00230016 0)
(0.13172 0.0019947 0)
(0.126925 0.0017511 0)
(0.122542 0.0015512 0)
(0.118518 0.00138336 0)
(0.114807 0.00124083 0)
(0.111373 0.00111944 0)
(0.108187 0.00101595 0)
(0.105226 0.000927165 0)
(0.102474 0.0008495 0)
(0.0999157 0.000779843 0)
(0.0975338 0.000716484 0)
(0.0953131 0.000658441 0)
(0.0932386 0.000605241 0)
(0.0912962 0.000557375 0)
(0.0894735 0.000515304 0)
(0.08776 0.000478273 0)
(0.0861478 0.000444607 0)
(0.0846319 0.000412676 0)
(0.0832092 0.000381895 0)
(0.0818763 0.000352725 0)
(0.0806293 0.000325577 0)
(0.0794642 0.000300123 0)
(0.0783777 0.000275755 0)
(0.0773677 0.000252163 0)
(0.0764319 0.00022948 0)
(0.0755686 0.000207892 0)
(0.0747754 0.000187394 0)
(0.0740508 0.00016782 0)
(0.0733933 0.000149027 0)
(0.0728023 0.000130829 0)
(0.0722768 0.000113159 0)
(0.0718164 9.6018e-05 0)
(0.0714198 7.94709e-05 0)
(0.0710862 6.34859e-05 0)
(0.0708136 4.81222e-05 0)
(0.0706006 3.34955e-05 0)
(0.0704431 2.00098e-05 0)
(0.0703367 8.2156e-06 0)
(0.0702734 -1.37187e-06 0)
(0.0702451 -8.61962e-06 0)
(0.0702415 -1.29954e-05 0)
(0.0702547 -1.49657e-05 0)
(0.0702763 -1.52673e-05 0)
(0.0703028 -1.46303e-05 0)
(0.0703298 -1.351e-05 0)
(0.0703573 -1.23991e-05 0)
(0.0703837 -1.13432e-05 0)
(0.0704106 -1.05581e-05 0)
(0.0704367 -9.82314e-06 0)
(0.0704637 -9.30015e-06 0)
(0.07049 -8.69667e-06 0)
(0.0705171 -8.24261e-06 0)
(0.0705432 -7.61962e-06 0)
(0.0705693 -7.15887e-06 0)
(0.0705944 -6.50645e-06 0)
(0.0706182 -6.04909e-06 0)
(0.0706415 -5.39208e-06 0)
(0.0706618 -4.94608e-06 0)
(0.0706831 -4.28358e-06 0)
(0.0706985 -3.87344e-06 0)
(0.0707184 -3.20345e-06 0)
(0.070727 -2.95374e-06 0)
(0.0707475 -2.37235e-06 0)
(0.19197 0.00905396 0)
(0.19367 0.0126379 0)
(0.196754 0.013275 0)
(0.19884 0.0120087 0)
(0.198823 0.0101804 0)
(0.196929 0.00854085 0)
(0.19382 0.00729276 0)
(0.190073 0.00635265 0)
(0.186019 0.00559719 0)
(0.181795 0.00495633 0)
(0.177461 0.00440244 0)
(0.173083 0.00392321 0)
(0.168745 0.0035098 0)
(0.164523 0.00315396 0)
(0.160462 0.00284809 0)
(0.156575 0.00258498 0)
(0.15285 0.00235741 0)
(0.149265 0.00215819 0)
(0.145808 0.00198113 0)
(0.142483 0.00182175 0)
(0.139302 0.00167675 0)
(0.136283 0.00154431 0)
(0.133431 0.00142391 0)
(0.130742 0.00131462 0)
(0.128203 0.00121526 0)
(0.125796 0.00112561 0)
(0.123508 0.00104548 0)
(0.121329 0.000973423 0)
(0.119256 0.000906967 0)
(0.117288 0.000843751 0)
(0.115426 0.000782935 0)
(0.113668 0.000725204 0)
(0.112011 0.000671163 0)
(0.110452 0.00062031 0)
(0.108988 0.000571705 0)
(0.107618 0.000524833 0)
(0.106339 0.000479817 0)
(0.105149 0.00043683 0)
(0.104045 0.00039578 0)
(0.103026 0.000356367 0)
(0.102092 0.000318336 0)
(0.101241 0.000281417 0)
(0.100474 0.000245531 0)
(0.0997895 0.000210713 0)
(0.0991873 0.0001771 0)
(0.0986667 0.000144723 0)
(0.0982249 0.000113755 0)
(0.0978599 8.44668e-05 0)
(0.0975668 5.75738e-05 0)
(0.0973405 3.40149e-05 0)
(0.0971717 1.49779e-05 0)
(0.0970521 4.53322e-07 0)
(0.0969697 -9.01589e-06 0)
(0.096916 -1.47503e-05 0)
(0.0968805 -1.70577e-05 0)
(0.0968586 -1.74435e-05 0)
(0.0968441 -1.68023e-05 0)
(0.0968363 -1.5977e-05 0)
(0.0968321 -1.50817e-05 0)
(0.096833 -1.45133e-05 0)
(0.0968367 -1.39532e-05 0)
(0.096845 -1.36639e-05 0)
(0.0968557 -1.31741e-05 0)
(0.0968702 -1.2857e-05 0)
(0.0968864 -1.21968e-05 0)
(0.096905 -1.17549e-05 0)
(0.096925 -1.09126e-05 0)
(0.0969451 -1.03737e-05 0)
(0.0969672 -9.39304e-06 0)
(0.0969862 -8.80189e-06 0)
(0.0970093 -7.6909e-06 0)
(0.0970246 -7.12776e-06 0)
(0.0970484 -5.89399e-06 0)
(0.097057 -5.57408e-06 0)
(0.0970827 -4.43263e-06 0)
(0.192914 0.00826855 0)
(0.194116 0.0112873 0)
(0.196886 0.0122704 0)
(0.199709 0.0114877 0)
(0.201357 0.0100466 0)
(0.201647 0.00869315 0)
(0.20096 0.00766699 0)
(0.199722 0.00691248 0)
(0.198171 0.00631414 0)
(0.196369 0.00580044 0)
(0.194304 0.00534237 0)
(0.191982 0.00492644 0)
(0.189454 0.00454307 0)
(0.186797 0.00418787 0)
(0.184087 0.00386278 0)
(0.181379 0.00357275 0)
(0.178688 0.00332038 0)
(0.175999 0.00310146 0)
(0.173286 0.00290589 0)
(0.170535 0.00272266 0)
(0.167766 0.00254405 0)
(0.16502 0.0023689 0)
(0.162341 0.00220147 0)
(0.159761 0.00204617 0)
(0.157292 0.00190538 0)
(0.154921 0.00177972 0)
(0.152625 0.0016674 0)
(0.150391 0.00156461 0)
(0.148217 0.00146738 0)
(0.146115 0.00137296 0)
(0.144095 0.00128093 0)
(0.142161 0.00119264 0)
(0.140313 0.00110903 0)
(0.138553 0.00102958 0)
(0.136882 0.00095324 0)
(0.135302 0.000879524 0)
(0.133814 0.000808679 0)
(0.132414 0.000740869 0)
(0.131101 0.000675834 0)
(0.129874 0.000613068 0)
(0.128731 0.000552151 0)
(0.127675 0.000492713 0)
(0.126706 0.000434691 0)
(0.125826 0.000378185 0)
(0.125033 0.000323445 0)
(0.12433 0.000270641 0)
(0.123713 0.000220128 0)
(0.123181 0.000172383 0)
(0.12273 0.00012845 0)
(0.122355 8.95633e-05 0)
(0.122047 5.71697e-05 0)
(0.121799 3.21452e-05 0)
(0.1216 1.44154e-05 0)
(0.121442 2.46962e-06 0)
(0.121313 -4.25828e-06 0)
(0.12121 -7.73906e-06 0)
(0.121123 -9.24408e-06 0)
(0.121052 -1.01906e-05 0)
(0.120992 -1.08151e-05 0)
(0.120943 -1.15918e-05 0)
(0.120902 -1.21762e-05 0)
(0.120871 -1.30108e-05 0)
(0.120847 -1.34479e-05 0)
(0.120831 -1.4038e-05 0)
(0.120821 -1.39977e-05 0)
(0.120817 -1.4206e-05 0)
(0.120819 -1.36848e-05 0)
(0.120823 -1.35649e-05 0)
(0.120834 -1.26131e-05 0)
(0.120843 -1.22601e-05 0)
(0.120861 -1.09095e-05 0)
(0.12087 -1.04649e-05 0)
(0.120893 -8.76789e-06 0)
(0.120898 -8.50472e-06 0)
(0.120925 -6.85463e-06 0)
(0.193689 0.00781573 0)
(0.194677 0.0102771 0)
(0.19689 0.0114088 0)
(0.199461 0.0109669 0)
(0.201357 0.00978292 0)
(0.202269 0.00858332 0)
(0.202432 0.00766211 0)
(0.202203 0.00700439 0)
(0.201802 0.00650442 0)
(0.201274 0.00608629 0)
(0.200576 0.00571734 0)
(0.199666 0.00538133 0)
(0.198542 0.00506296 0)
(0.197239 0.00475197 0)
(0.195817 0.0044498 0)
(0.194336 0.00416825 0)
(0.192828 0.00392145 0)
(0.191292 0.00371518 0)
(0.189688 0.00354207 0)
(0.187972 0.00338491 0)
(0.186124 0.00322495 0)
(0.184165 0.00305285 0)
(0.18215 0.00287179 0)
(0.180138 0.00269122 0)
(0.178177 0.00252217 0)
(0.176282 0.0023734 0)
(0.174429 0.00224555 0)
(0.172581 0.00213084 0)
(0.170723 0.00201964 0)
(0.168868 0.00190679 0)
(0.167043 0.0017932 0)
(0.165261 0.00168233 0)
(0.163525 0.00157581 0)
(0.161839 0.00147271 0)
(0.160209 0.00137176 0)
(0.158646 0.00127308 0)
(0.157156 0.00117776 0)
(0.155739 0.00108641 0)
(0.154392 0.00099864 0)
(0.153115 0.000913609 0)
(0.151908 0.000830584 0)
(0.150772 0.000749 0)
(0.149709 0.000668766 0)
(0.148723 0.000590052 0)
(0.147816 0.000513253 0)
(0.14699 0.000438751 0)
(0.146245 0.00036719 0)
(0.145582 0.000299317 0)
(0.144997 0.000236466 0)
(0.144487 0.000180204 0)
(0.144045 0.00013234 0)
(0.143667 9.37686e-05 0)
(0.143343 6.45635e-05 0)
(0.143068 4.38373e-05 0)
(0.142832 2.99741e-05 0)
(0.142631 2.08045e-05 0)
(0.142455 1.48182e-05 0)
(0.142304 1.01704e-05 0)
(0.14217 6.4648e-06 0)
(0.142055 2.93458e-06 0)
(0.141954 -4.37811e-08 0)
(0.141867 -3.12951e-06 0)
(0.141792 -5.50032e-06 0)
(0.14173 -8.06424e-06 0)
(0.141679 -9.6442e-06 0)
(0.141638 -1.14648e-05 0)
(0.141607 -1.21112e-05 0)
(0.141584 -1.32547e-05 0)
(0.141571 -1.30113e-05 0)
(0.14156 -1.35724e-05 0)
(0.141562 -1.25049e-05 0)
(0.141558 -1.26705e-05 0)
(0.141571 -1.0935e-05 0)
(0.14157 -1.09825e-05 0)
(0.14159 -9.18335e-06 0)
(0.194326 0.00750267 0)
(0.195207 0.00948526 0)
(0.197003 0.0106279 0)
(0.199212 0.0104531 0)
(0.201016 0.00950038 0)
(0.202056 0.00842496 0)
(0.20246 0.00756621 0)
(0.202533 0.00695675 0)
(0.202504 0.00650779 0)
(0.20244 0.00614246 0)
(0.202309 0.00582585 0)
(0.202064 0.00554201 0)
(0.20168 0.00527356 0)
(0.201159 0.00500368 0)
(0.200534 0.00472803 0)
(0.199854 0.00445872 0)
(0.199157 0.00421696 0)
(0.198456 0.0040199 0)
(0.197727 0.00387023 0)
(0.196912 0.00375179 0)
(0.195956 0.00363582 0)
(0.194844 0.00349972 0)
(0.193605 0.00333799 0)
(0.192292 0.00315736 0)
(0.190972 0.00297353 0)
(0.189698 0.00280784 0)
(0.18847 0.00267331 0)
(0.187235 0.00256365 0)
(0.185942 0.00245996 0)
(0.184588 0.00234801 0)
(0.183208 0.00222787 0)
(0.181832 0.00210752 0)
(0.180463 0.00199127 0)
(0.179097 0.00187705 0)
(0.17774 0.00176177 0)
(0.17641 0.00164567 0)
(0.175122 0.00153166 0)
(0.173884 0.00142196 0)
(0.172693 0.00131668 0)
(0.171547 0.00121469 0)
(0.170445 0.00111476 0)
(0.169389 0.00101592 0)
(0.16838 0.000917898 0)
(0.167423 0.000820801 0)
(0.166522 0.000725102 0)
(0.165681 0.000631387 0)
(0.164903 0.000540651 0)
(0.164191 0.000454003 0)
(0.163543 0.000373163 0)
(0.162959 0.000299988 0)
(0.162434 0.000236504 0)
(0.161968 0.000183791 0)
(0.161552 0.000142179 0)
(0.161185 0.000110616 0)
(0.160859 8.75142e-05 0)
(0.160572 7.04963e-05 0)
(0.160316 5.78871e-05 0)
(0.16009 4.77077e-05 0)
(0.159887 3.94499e-05 0)
(0.159706 3.18312e-05 0)
(0.159542 2.52671e-05 0)
(0.159398 1.87885e-05 0)
(0.159267 1.34169e-05 0)
(0.159153 7.8896e-06 0)
(0.159053 3.74726e-06 0)
(0.158967 -6.8067e-07 0)
(0.158895 -3.41557e-06 0)
(0.158833 -6.84024e-06 0)
(0.158788 -8.24839e-06 0)
(0.158747 -1.0599e-05 0)
(0.158724 -1.06378e-05 0)
(0.1587 -1.20516e-05 0)
(0.158694 -1.10622e-05 0)
(0.158682 -1.17604e-05 0)
(0.158686 -1.05848e-05 0)
(0.194881 0.00723653 0)
(0.195685 0.00883876 0)
(0.197172 0.00990227 0)
(0.199054 0.00992478 0)
(0.200707 0.00919321 0)
(0.201759 0.00824888 0)
(0.202245 0.00744862 0)
(0.202406 0.00687193 0)
(0.202469 0.00645432 0)
(0.202525 0.00612142 0)
(0.202566 0.00583507 0)
(0.202559 0.00558036 0)
(0.202477 0.0053421 0)
(0.202307 0.0051001 0)
(0.202066 0.00484369 0)
(0.201787 0.0045823 0)
(0.201499 0.00433928 0)
(0.201228 0.004139 0)
(0.200974 0.00399639 0)
(0.200694 0.00390391 0)
(0.20032 0.00382842 0)
(0.199817 0.00373484 0)
(0.199187 0.00360722 0)
(0.198456 0.00344449 0)
(0.197673 0.00325783 0)
(0.196914 0.00307581 0)
(0.196222 0.0029303 0)
(0.195553 0.00282814 0)
(0.194827 0.00274445 0)
(0.194007 0.00264913 0)
(0.193125 0.00253484 0)
(0.192224 0.00241451 0)
(0.191315 0.00229916 0)
(0.190381 0.00218683 0)
(0.189417 0.00207024 0)
(0.18844 0.00194738 0)
(0.187475 0.00182265 0)
(0.186535 0.00170115 0)
(0.185621 0.00158472 0)
(0.184731 0.00147245 0)
(0.183862 0.00136261 0)
(0.183013 0.00125366 0)
(0.182184 0.00114494 0)
(0.18138 0.00103629 0)
(0.180604 0.00092804 0)
(0.179861 0.000820805 0)
(0.179155 0.000715839 0)
(0.178492 0.000614648 0)
(0.177873 0.000519398 0)
(0.177299 0.000432261 0)
(0.176769 0.000355521 0)
(0.176284 0.000290368 0)
(0.175839 0.000237237 0)
(0.175435 0.00019509 0)
(0.175067 0.000162488 0)
(0.174735 0.000136969 0)
(0.174433 0.000116943 0)
(0.174162 0.000100275 0)
(0.173914 8.64439e-05 0)
(0.173689 7.39056e-05 0)
(0.173482 6.30718e-05 0)
(0.173294 5.25527e-05 0)
(0.17312 4.35397e-05 0)
(0.172963 3.44775e-05 0)
(0.172819 2.71857e-05 0)
(0.172691 1.94432e-05 0)
(0.172578 1.37972e-05 0)
(0.172478 7.27636e-06 0)
(0.172396 3.33721e-06 0)
(0.172324 -1.59193e-06 0)
(0.17227 -3.67302e-06 0)
(0.172223 -6.95151e-06 0)
(0.172189 -7.76187e-06 0)
(0.172165 -9.40684e-06 0)
(0.172142 -9.9728e-06 0)
(0.195378 0.00698345 0)
(0.196114 0.0082998 0)
(0.197369 0.00924687 0)
(0.19897 0.00940031 0)
(0.200459 0.00886771 0)
(0.20149 0.00806213 0)
(0.202021 0.00732669 0)
(0.202227 0.00677953 0)
(0.202314 0.006386 0)
(0.202391 0.00607826 0)
(0.202469 0.00581353 0)
(0.202531 0.00557626 0)
(0.202556 0.00535565 0)
(0.202525 0.00513129 0)
(0.202445 0.00488761 0)
(0.202338 0.00463181 0)
(0.202222 0.00438681 0)
(0.202116 0.00417793 0)
(0.202044 0.0040291 0)
(0.201989 0.00394552 0)
(0.201894 0.00389554 0)
(0.201719 0.00383442 0)
(0.201456 0.00373832 0)
(0.201106 0.0036001 0)
(0.200685 0.00342048 0)
(0.200261 0.00322425 0)
(0.199905 0.00305956 0)
(0.199612 0.00295607 0)
(0.199294 0.0028923 0)
(0.198885 0.00282061 0)
(0.1984 0.00271859 0)
(0.197893 0.00260129 0)
(0.19738 0.00248997 0)
(0.196843 0.00238632 0)
(0.196259 0.00227816 0)
(0.195637 0.00215804 0)
(0.195003 0.00202999 0)
(0.194376 0.00190232 0)
(0.193762 0.00177979 0)
(0.193159 0.00166249 0)
(0.192561 0.00154845 0)
(0.191968 0.0014356 0)
(0.191376 0.0013228 0)
(0.190788 0.00120948 0)
(0.190205 0.00109562 0)
(0.189632 0.000981593 0)
(0.189072 0.000868652 0)
(0.188532 0.000758538 0)
(0.188015 0.000653856 0)
(0.187525 0.000557178 0)
(0.18706 0.00047103 0)
(0.186625 0.000396639 0)
(0.186215 0.000334574 0)
(0.185835 0.00028386 0)
(0.185481 0.000243199 0)
(0.185155 0.000210099 0)
(0.184854 0.000183086 0)
(0.184579 0.000160058 0)
(0.184325 0.000140717 0)
(0.184092 0.000123393 0)
(0.183872 0.000108479 0)
(0.183669 9.41974e-05 0)
(0.183476 8.18186e-05 0)
(0.183297 6.93562e-05 0)
(0.183128 5.89001e-05 0)
(0.182973 4.77583e-05 0)
(0.18283 3.88741e-05 0)
(0.182703 2.89594e-05 0)
(0.182589 2.18552e-05 0)
(0.182491 1.38948e-05 0)
(0.182406 8.84744e-06 0)
(0.18234 3.4352e-06 0)
(0.182276 -2.20911e-07 0)
(0.182241 -2.92761e-06 0)
(0.182187 -6.41664e-06 0)
(0.195825 0.0067368 0)
(0.196499 0.00784204 0)
(0.197576 0.00866941 0)
(0.198941 0.00889878 0)
(0.200267 0.00853337 0)
(0.201254 0.00786766 0)
(0.201815 0.00720584 0)
(0.202058 0.0066897 0)
(0.202162 0.00631615 0)
(0.202242 0.00602947 0)
(0.202325 0.00578271 0)
(0.202406 0.00555761 0)
(0.202471 0.0053482 0)
(0.202498 0.00513577 0)
(0.202487 0.00490116 0)
(0.202454 0.00465108 0)
(0.202404 0.0044081 0)
(0.202347 0.00419339 0)
(0.202315 0.00403388 0)
(0.202317 0.00394781 0)
(0.202315 0.00390938 0)
(0.202273 0.00386673 0)
(0.202189 0.00379105 0)
(0.202053 0.00367479 0)
(0.201848 0.00350893 0)
(0.201612 0.00330506 0)
(0.201425 0.00311816 0)
(0.201315 0.0030031 0)
(0.201217 0.00295148 0)
(0.201055 0.00290234 0)
(0.200823 0.00281391 0)
(0.200571 0.00269867 0)
(0.200325 0.00258904 0)
(0.200067 0.00249409 0)
(0.199767 0.00239806 0)
(0.199423 0.0022862 0)
(0.199053 0.00215988 0)
(0.198681 0.00202985 0)
(0.198314 0.00190427 0)
(0.197951 0.00178489 0)
(0.197588 0.00166985 0)
(0.197221 0.00155669 0)
(0.196849 0.0014439 0)
(0.19647 0.00133055 0)
(0.196084 0.00121619 0)
(0.195694 0.00110079 0)
(0.1953 0.00098527 0)
(0.194911 0.00087136 0)
(0.194528 0.000761972 0)
(0.194157 0.000660082 0)
(0.193797 0.000568473 0)
(0.193452 0.000488436 0)
(0.19312 0.000420616 0)
(0.192807 0.000364085 0)
(0.192508 0.000317648 0)
(0.19223 0.000278794 0)
(0.191967 0.000246168 0)
(0.191726 0.000217826 0)
(0.191499 0.000193815 0)
(0.19129 0.000172535 0)
(0.191089 0.000154426 0)
(0.190901 0.000137352 0)
(0.190716 0.000122505 0)
(0.190542 0.000107523 0)
(0.190371 9.46476e-05 0)
(0.190211 8.08295e-05 0)
(0.190056 6.91571e-05 0)
(0.189917 5.61986e-05 0)
(0.189783 4.5722e-05 0)
(0.189672 3.47715e-05 0)
(0.189563 2.61295e-05 0)
(0.189486 1.86551e-05 0)
(0.189395 1.13556e-05 0)
(0.189354 7.68877e-06 0)
(0.189271 4.05769e-07 0)
(0.196229 0.00649922 0)
(0.196844 0.00744432 0)
(0.197779 0.00816457 0)
(0.198949 0.008431 0)
(0.20012 0.00819857 0)
(0.201048 0.00766596 0)
(0.201625 0.0070847 0)
(0.201903 0.00660287 0)
(0.202027 0.0062465 0)
(0.202111 0.0059774 0)
(0.202194 0.00574659 0)
(0.202282 0.00553137 0)
(0.202366 0.00533018 0)
(0.202424 0.00512718 0)
(0.202448 0.00490016 0)
(0.202451 0.0046566 0)
(0.202431 0.00442047 0)
(0.202387 0.00420631 0)
(0.202349 0.00403801 0)
(0.202344 0.0039444 0)
(0.202353 0.00390822 0)
(0.202351 0.0038728 0)
(0.202339 0.00380576 0)
(0.202308 0.00370429 0)
(0.202226 0.00355486 0)
(0.202096 0.00335224 0)
(0.20198 0.00314768 0)
(0.201929 0.00301603 0)
(0.201914 0.00296727 0)
(0.201868 0.0029346 0)
(0.20177 0.00285787 0)
(0.201656 0.00274311 0)
(0.201554 0.00263182 0)
(0.201454 0.00254212 0)
(0.201326 0.00245701 0)
(0.201161 0.00235474 0)
(0.200969 0.00223259 0)
(0.200769 0.00210248 0)
(0.200569 0.00197559 0)
(0.200369 0.00185548 0)
(0.200168 0.00174061 0)
(0.199963 0.00162841 0)
(0.19975 0.00151717 0)
(0.19953 0.00140573 0)
(0.199298 0.00129333 0)
(0.199057 0.00117951 0)
(0.198807 0.00106474 0)
(0.198552 0.000950445 0)
(0.198294 0.000839652 0)
(0.198039 0.000735691 0)
(0.197787 0.000641641 0)
(0.197541 0.000558886 0)
(0.197299 0.00048805 0)
(0.197066 0.000428222 0)
(0.19684 0.00037826 0)
(0.196626 0.000335659 0)
(0.196421 0.000299086 0)
(0.196231 0.000266787 0)
(0.19605 0.000239178 0)
(0.195885 0.00021497 0)
(0.195723 0.00019472 0)
(0.19557 0.000176068 0)
(0.195414 0.000159987 0)
(0.195264 0.000143825 0)
(0.195109 0.0001297 0)
(0.194964 0.000114426 0)
(0.194813 0.000100828 0)
(0.194679 8.57353e-05 0)
(0.19454 7.22518e-05 0)
(0.194428 5.88697e-05 0)
(0.194306 4.64958e-05 0)
(0.194227 3.72422e-05 0)
(0.194119 2.59056e-05 0)
(0.194077 2.14987e-05 0)
(0.193973 1.00624e-05 0)
(0.196593 0.00627403 0)
(0.197152 0.00709198 0)
(0.197971 0.0077223 0)
(0.19898 0.00800209 0)
(0.200011 0.00787041 0)
(0.20087 0.00745678 0)
(0.201447 0.00695875 0)
(0.201756 0.00651558 0)
(0.201904 0.00617587 0)
(0.201997 0.00592193 0)
(0.202082 0.00570568 0)
(0.202173 0.00549924 0)
(0.202269 0.00530474 0)
(0.202346 0.00511012 0)
(0.202392 0.00489048 0)
(0.202415 0.00465426 0)
(0.202412 0.00442837 0)
(0.202375 0.00422083 0)
(0.202325 0.00404826 0)
(0.2023 0.00394598 0)
(0.202299 0.0039065 0)
(0.202303 0.00387109 0)
(0.202314 0.00380421 0)
(0.20233 0.00370975 0)
(0.202315 0.00357564 0)
(0.202249 0.003382 0)
(0.202165 0.00316902 0)
(0.202118 0.00302213 0)
(0.202112 0.00296909 0)
(0.202105 0.00294478 0)
(0.20207 0.00287617 0)
(0.202022 0.00276143 0)
(0.201984 0.00264698 0)
(0.201954 0.00255889 0)
(0.201912 0.00248108 0)
(0.201846 0.00238686 0)
(0.201757 0.00226945 0)
(0.201658 0.00214071 0)
(0.201554 0.00201381 0)
(0.201449 0.00189372 0)
(0.20134 0.00177933 0)
(0.201229 0.00166813 0)
(0.201112 0.00155844 0)
(0.200989 0.00144904 0)
(0.200856 0.00133903 0)
(0.200716 0.00122763 0)
(0.200564 0.00111484 0)
(0.200407 0.00100172 0)
(0.200243 0.000891182 0)
(0.200079 0.000786848 0)
(0.199913 0.000692089 0)
(0.199749 0.000608423 0)
(0.199584 0.000536389 0)
(0.199423 0.000475069 0)
(0.199263 0.000423289 0)
(0.199111 0.000378549 0)
(0.198961 0.000339415 0)
(0.198824 0.000304328 0)
(0.198692 0.000274024 0)
(0.198573 0.000247733 0)
(0.198453 0.000226183 0)
(0.198342 0.000207024 0)
(0.198221 0.000190845 0)
(0.198105 0.00017482 0)
(0.197976 0.000160626 0)
(0.197855 0.000145217 0)
(0.19772 0.000130713 0)
(0.197601 0.000114666 0)
(0.197467 9.88317e-05 0)
(0.197364 8.38256e-05 0)
(0.197239 6.79215e-05 0)
(0.197165 5.73499e-05 0)
(0.197049 4.20285e-05 0)
(0.197011 3.70981e-05 0)
(0.196896 2.16187e-05 0)
(0.196922 0.00606282 0)
(0.19743 0.00677637 0)
(0.19815 0.00733262 0)
(0.199026 0.00761242 0)
(0.199932 0.00755379 0)
(0.200718 0.00724115 0)
(0.201283 0.0068251 0)
(0.201615 0.00642552 0)
(0.201787 0.00610411 0)
(0.201893 0.00586354 0)
(0.201983 0.00566022 0)
(0.202077 0.00546193 0)
(0.202179 0.00527332 0)
(0.202269 0.00508659 0)
(0.20233 0.00487497 0)
(0.202365 0.00464697 0)
(0.202372 0.00443278 0)
(0.202343 0.00423578 0)
(0.20229 0.00406363 0)
(0.20225 0.00395359 0)
(0.202235 0.00390739 0)
(0.202239 0.00386775 0)
(0.202256 0.00379654 0)
(0.202288 0.00370323 0)
(0.202308 0.00358093 0)
(0.202283 0.0034007 0)
(0.20222 0.00318913 0)
(0.202162 0.0030324 0)
(0.202139 0.0029711 0)
(0.202136 0.0029472 0)
(0.202129 0.0028826 0)
(0.202112 0.0027685 0)
(0.202097 0.00265162 0)
(0.20209 0.00256285 0)
(0.202081 0.00248835 0)
(0.202063 0.00239941 0)
(0.202029 0.00228636 0)
(0.201983 0.00216009 0)
(0.201928 0.0020344 0)
(0.201869 0.00191506 0)
(0.201806 0.00180131 0)
(0.201741 0.00169089 0)
(0.201671 0.00158228 0)
(0.201598 0.00147437 0)
(0.201518 0.00136619 0)
(0.201433 0.00125686 0)
(0.20134 0.00114599 0)
(0.201241 0.00103429 0)
(0.201137 0.000924469 0)
(0.201032 0.000820355 0)
(0.200923 0.000725564 0)
(0.200816 0.000641813 0)
(0.200706 0.000569535 0)
(0.200597 0.000507778 0)
(0.200486 0.000455215 0)
(0.200381 0.000409341 0)
(0.200275 0.000368535 0)
(0.200179 0.000331445 0)
(0.200086 0.000299029 0)
(0.200005 0.000271185 0)
(0.199921 0.00024882 0)
(0.199845 0.000229843 0)
(0.199757 0.000214327 0)
(0.199673 0.000199449 0)
(0.19957 0.000186123 0)
(0.199474 0.000171705 0)
(0.199357 0.00015719 0)
(0.199258 0.000141254 0)
(0.199134 0.000123774 0)
(0.199045 0.000107951 0)
(0.198923 8.89601e-05 0)
(0.198858 7.74949e-05 0)
(0.198742 5.85119e-05 0)
(0.198708 5.3196e-05 0)
(0.198591 3.40687e-05 0)
(0.197219 0.00586568 0)
(0.197679 0.00649205 0)
(0.198315 0.00698657 0)
(0.199079 0.00725919 0)
(0.199877 0.00725234 0)
(0.20059 0.0070227 0)
(0.201133 0.00668398 0)
(0.20148 0.00633157 0)
(0.201676 0.00603089 0)
(0.201796 0.00580231 0)
(0.201894 0.00561023 0)
(0.201991 0.00542009 0)
(0.202094 0.00523742 0)
(0.202191 0.00505826 0)
(0.202263 0.00485546 0)
(0.202305 0.0046367 0)
(0.202318 0.00443425 0)
(0.202298 0.00424921 0)
(0.20225 0.00408119 0)
(0.202202 0.00396527 0)
(0.20218 0.00391039 0)
(0.202183 0.00386405 0)
(0.202203 0.00378706 0)
(0.202237 0.0036917 0)
(0.20227 0.00357708 0)
(0.202272 0.00341125 0)
(0.202226 0.00320865 0)
(0.202161 0.00304858 0)
(0.202118 0.00297772 0)
(0.202109 0.00294793 0)
(0.202113 0.00288349 0)
(0.202111 0.00277102 0)
(0.202102 0.00265365 0)
(0.202098 0.00256328 0)
(0.202099 0.0024888 0)
(0.202101 0.00240237 0)
(0.202093 0.00229299 0)
(0.202074 0.00217004 0)
(0.202042 0.0020467 0)
(0.202004 0.00192883 0)
(0.20196 0.00181599 0)
(0.201914 0.00170627 0)
(0.201864 0.0015984 0)
(0.201813 0.0014914 0)
(0.201757 0.00138437 0)
(0.201698 0.0012764 0)
(0.201633 0.00116688 0)
(0.201566 0.00105627 0)
(0.201494 0.000947041 0)
(0.201422 0.00084316 0)
(0.201347 0.000748431 0)
(0.201273 0.000664835 0)
(0.201195 0.000592693 0)
(0.201119 0.000531001 0)
(0.201039 0.000478157 0)
(0.200963 0.000431658 0)
(0.200885 0.000389625 0)
(0.200817 0.000350959 0)
(0.20075 0.000316731 0)
(0.200695 0.000287591 0)
(0.200636 0.00026458 0)
(0.200586 0.000246102 0)
(0.200521 0.00023163 0)
(0.200461 0.000218534 0)
(0.200378 0.000206677 0)
(0.200304 0.000194024 0)
(0.200203 0.000180121 0)
(0.20012 0.000165065 0)
(0.200008 0.00014654 0)
(0.199931 0.000130523 0)
(0.199816 0.000108944 0)
(0.199759 9.68833e-05 0)
(0.199647 7.46649e-05 0)
(0.199617 6.90082e-05 0)
(0.199504 4.66795e-05 0)
(0.197487 0.00568191 0)
(0.197905 0.00623474 0)
(0.198468 0.00667671 0)
(0.199137 0.00693875 0)
(0.19984 0.0069689 0)
(0.200485 0.00680619 0)
(0.200999 0.0065368 0)
(0.201353 0.00623244 0)
(0.201568 0.00595518 0)
(0.201703 0.00573836 0)
(0.201809 0.00555625 0)
(0.20191 0.0053746 0)
(0.202012 0.00519842 0)
(0.202112 0.00502654 0)
(0.20219 0.00483307 0)
(0.202237 0.00462449 0)
(0.202255 0.00443319 0)
(0.202244 0.00425976 0)
(0.202204 0.00409817 0)
(0.202158 0.00397868 0)
(0.202132 0.00391441 0)
(0.202136 0.00386004 0)
(0.202156 0.00377752 0)
(0.202187 0.00367913 0)
(0.202222 0.00356866 0)
(0.202238 0.00341592 0)
(0.202206 0.00322656 0)
(0.202141 0.00306865 0)
(0.202087 0.00298869 0)
(0.202071 0.002949 0)
(0.202078 0.00288177 0)
(0.202083 0.00277168 0)
(0.202076 0.00265573 0)
(0.202069 0.00256368 0)
(0.202072 0.00248708 0)
(0.202081 0.00240101 0)
(0.202085 0.00229462 0)
(0.202077 0.00217553 0)
(0.202056 0.00205537 0)
(0.202027 0.00193957 0)
(0.201991 0.00182793 0)
(0.201953 0.001719 0)
(0.20191 0.00161174 0)
(0.201867 0.00150535 0)
(0.20182 0.00139899 0)
(0.201773 0.00129182 0)
(0.20172 0.00118309 0)
(0.201667 0.00107313 0)
(0.201611 0.000964227 0)
(0.201555 0.000860426 0)
(0.201497 0.000765663 0)
(0.20144 0.000682217 0)
(0.20138 0.000610298 0)
(0.201321 0.000548864 0)
(0.201257 0.00049594 0)
(0.201198 0.000449019 0)
(0.201136 0.00040592 0)
(0.201084 0.00036586 0)
(0.201031 0.000329933 0)
(0.200992 0.00029959 0)
(0.200947 0.000275929 0)
(0.200912 0.000258037 0)
(0.200862 0.000244721 0)
(0.200817 0.000233728 0)
(0.200748 0.000223649 0)
(0.200688 0.000213209 0)
(0.200598 0.000200277 0)
(0.200529 0.000186553 0)
(0.200425 0.000167396 0)
(0.200359 0.000151574 0)
(0.20025 0.000127841 0)
(0.2002 0.000115353 0)
(0.200092 9.02902e-05 0)
(0.200066 8.42702e-05 0)
(0.199959 5.90924e-05 0)
(0.197731 0.00551055 0)
(0.198109 0.00600112 0)
(0.198609 0.00639766 0)
(0.199197 0.00664762 0)
(0.199819 0.00670462 0)
(0.200399 0.00659515 0)
(0.20088 0.00638528 0)
(0.201234 0.00612748 0)
(0.201463 0.00587631 0)
(0.201612 0.00567214 0)
(0.201728 0.00549923 0)
(0.201833 0.00532617 0)
(0.201933 0.00515702 0)
(0.202032 0.00499231 0)
(0.202114 0.00480852 0)
(0.202164 0.00461083 0)
(0.202185 0.00442991 0)
(0.202182 0.00426686 0)
(0.202153 0.00411273 0)
(0.202113 0.00399179 0)
(0.202088 0.0039185 0)
(0.202093 0.0038557 0)
(0.202113 0.00376857 0)
(0.202138 0.0036675 0)
(0.20217 0.00355883 0)
(0.20219 0.00341682 0)
(0.20217 0.00324205 0)
(0.20211 0.00308987 0)
(0.202054 0.00300222 0)
(0.202033 0.00295092 0)
(0.20204 0.00287907 0)
(0.202048 0.00277159 0)
(0.202041 0.0026583 0)
(0.202032 0.00256481 0)
(0.202033 0.00248499 0)
(0.202044 0.002398 0)
(0.202052 0.00229404 0)
(0.202049 0.00217897 0)
(0.202033 0.00206241 0)
(0.202008 0.00194902 0)
(0.201977 0.00183881 0)
(0.201942 0.00173082 0)
(0.201903 0.0016242 0)
(0.201864 0.00151833 0)
(0.201821 0.00141243 0)
(0.201777 0.00130576 0)
(0.201731 0.00119747 0)
(0.201684 0.00108788 0)
(0.201634 0.000979095 0)
(0.201586 0.000875261 0)
(0.201535 0.000780372 0)
(0.201487 0.000697016 0)
(0.201434 0.000625312 0)
(0.201384 0.0005642 0)
(0.201328 0.000511262 0)
(0.201276 0.000463971 0)
(0.201222 0.00041982 0)
(0.201178 0.000378414 0)
(0.201133 0.000340815 0)
(0.201101 0.000309297 0)
(0.201063 0.00028493 0)