/*--------------------------------*- C++ -*----------------------------------*\
| =========                 |                                                 |
| \\      /  F ield         | OpenFOAM: The Open Source CFD Toolbox           |
|  \\    /   O peration     | Version:  2.3.0                                 |
|   \\  /    A nd           | Web:      www.OpenFOAM.org                      |
|    \\/     M anipulation  |                                                 |
\*---------------------------------------------------------------------------*/
FoamFile
{
    version     2.0;
    format      ascii;
    class       surfaceScalarField;
    location    "0.2";
    object      phi;
}
// * * * * * * * * * * * * * * * * * * * * * * * * * * * * * * * * * * * * * //

dimensions      [0 3 -1 0 0 0 0];

internalField   nonuniform List<scalar> 
396
(
1.32522e-07
1.89637e-09
-1.34419e-07
1.28982e-07
3.54032e-09
1.24868e-07
4.11362e-09
1.21035e-07
3.83298e-09
1.16825e-07
4.21022e-09
1.11676e-07
5.14945e-09
1.06555e-07
5.12047e-09
1.01987e-07
4.56869e-09
9.72043e-08
4.78227e-09
9.20989e-08
5.1055e-09
8.73367e-08
4.7622e-09
8.27495e-08
4.58713e-09
7.78667e-08
4.88285e-09
7.32585e-08
4.60814e-09
6.99903e-08
3.26818e-09
6.84103e-08
1.58003e-09
6.80531e-08
3.57202e-10
6.8246e-08
-1.92899e-10
6.85559e-08
-3.09907e-10
6.8809e-08
-2.53092e-10
6.89713e-08
-1.62329e-10
6.90655e-08
-9.41126e-11
6.91172e-08
-5.17229e-11
6.91485e-08
-3.13287e-11
-1.3613e-11
1.61769e-07
1.58767e-09
-1.6146e-07
1.6222e-07
3.089e-09
1.62121e-07
4.21231e-09
1.61829e-07
4.12496e-09
1.61473e-07
4.56698e-09
1.60818e-07
5.80414e-09
1.59914e-07
6.02438e-09
1.59037e-07
5.44528e-09
1.58052e-07
5.76769e-09
1.56714e-07
6.4439e-09
1.55262e-07
6.21331e-09
1.53901e-07
5.94826e-09
1.52444e-07
6.34052e-09
1.50817e-07
6.23507e-09
1.49388e-07
4.69655e-09
1.48553e-07
2.41554e-09
1.48353e-07
5.56968e-10
1.48626e-07
-4.6624e-10
1.4909e-07
-7.73095e-10
1.49547e-07
-7.10913e-10
1.49893e-07
-5.08018e-10
1.50117e-07
-3.17839e-10
1.50244e-07
-1.78804e-10
1.50315e-07
-1.0249e-10
-4.10906e-11
1.92597e-07
1.78662e-09
-1.92796e-07
1.92876e-07
2.80931e-09
1.93242e-07
3.84709e-09
1.93321e-07
4.04558e-09
1.93386e-07
4.50173e-09
1.93653e-07
5.53725e-09
1.9386e-07
5.81766e-09
1.93913e-07
5.39231e-09
1.94011e-07
5.66983e-09
1.94077e-07
6.37796e-09
1.93998e-07
6.29184e-09
1.93993e-07
5.95356e-09
1.94129e-07
6.2043e-09
1.94196e-07
6.16769e-09
1.94037e-07
4.85618e-09
1.93708e-07
2.7439e-09
1.93388e-07
8.77388e-10
1.9313e-07
-2.08094e-10
1.92984e-07
-6.27505e-10
1.92911e-07
-6.37218e-10
1.92881e-07
-4.78118e-10
1.92874e-07
-3.11023e-10
1.92875e-07
-1.79949e-10
1.92879e-07
-1.06949e-10
-4.27797e-11
2.29511e-07
2.05572e-09
-2.29781e-07
2.29646e-07
2.67488e-09
2.30051e-07
3.44176e-09
2.30179e-07
3.91775e-09
2.30171e-07
4.50983e-09
2.30532e-07
5.17601e-09
2.30917e-07
5.43283e-09
2.30953e-07
5.35607e-09
2.31079e-07
5.54442e-09
2.31489e-07
5.96728e-09
2.31771e-07
6.01023e-09
2.31867e-07
5.85714e-09
2.32131e-07
5.9405e-09
2.32578e-07
5.72067e-09
2.32855e-07
4.57925e-09
2.32737e-07
2.8623e-09
2.32286e-07
1.32846e-09
2.31746e-07
3.31538e-10
2.31295e-07
-1.7691e-10
2.30995e-07
-3.36585e-10
2.30835e-07
-3.18576e-10
2.30769e-07
-2.45145e-10
2.30751e-07
-1.61588e-10
2.30752e-07
-1.08213e-10
-4.33188e-11
2.73559e-07
2.27947e-09
-2.73783e-07
2.735e-07
2.73393e-09
2.73679e-07
3.26318e-09
2.73893e-07
3.70307e-09
2.7404e-07
4.36283e-09
2.74286e-07
4.93083e-09
2.74594e-07
5.12472e-09
2.74747e-07
5.20313e-09
2.7489e-07
5.40098e-09
2.75198e-07
5.65896e-09
2.75448e-07
5.76103e-09
2.756e-07
5.70502e-09
2.7592e-07
5.62042e-09
2.76342e-07
5.29793e-09
2.76515e-07
4.40652e-09
2.76312e-07
3.06586e-09
2.75913e-07
1.7273e-09
2.7549e-07
7.54695e-10
2.75129e-07
1.84056e-10
2.74867e-07
-7.48587e-11
2.74698e-07
-1.495e-10
2.74601e-07
-1.48365e-10
2.7455e-07
-1.10885e-10
2.74524e-07
-8.22805e-11
-3.13998e-11
3.32566e-07
2.43116e-09
-3.32717e-07
3.32504e-07
2.79614e-09
3.32651e-07
3.11561e-09
3.32913e-07
3.44151e-09
3.33093e-07
4.18266e-09
3.33228e-07
4.79563e-09
3.33448e-07
4.90432e-09
3.33595e-07
5.05704e-09
3.33654e-07
5.34117e-09
3.3388e-07
5.433e-09
3.34218e-07
5.42304e-09
3.3443e-07
5.49363e-09
3.34578e-07
5.47199e-09
3.34791e-07
5.08551e-09
3.34964e-07
4.23273e-09
3.34952e-07
3.07817e-09
3.34711e-07
1.96788e-09
3.34334e-07
1.13222e-09
3.33951e-07
5.66641e-10
3.33652e-07
2.24515e-10
3.3346e-07
4.20702e-11
3.33361e-07
-4.91377e-11
3.33321e-07
-7.02939e-11
3.33307e-07
-6.88281e-11
-2.33496e-11
6.66334e-07
-6.66353e-07
6.66285e-07
6.66214e-07
6.66261e-07
6.66461e-07
6.66618e-07
6.66753e-07
6.66933e-07
6.67056e-07
6.67186e-07
6.67361e-07
6.67509e-07
6.67674e-07
6.67895e-07
6.68014e-07
6.67853e-07
6.67523e-07
6.6723e-07
6.67044e-07
6.66935e-07
6.66876e-07
6.66832e-07
6.66785e-07
6.66743e-07
1.37312e-07
-6.28069e-10
1.37177e-07
1.20374e-10
1.36807e-07
1.70209e-09
1.36308e-07
1.94367e-09
1.35384e-07
2.20988e-09
1.20191e-09
1.63018e-07
-4.10077e-10
1.62726e-07
4.11755e-10
1.62583e-07
1.84515e-09
1.62283e-07
2.24385e-09
1.6194e-07
2.55254e-09
1.68243e-09
1.93965e-07
-2.53976e-10
1.93485e-07
8.91574e-10
1.93506e-07
1.82402e-09
1.93438e-07
2.31213e-09
1.93301e-07
2.6897e-09
2.1876e-09
2.30681e-07
-8.46513e-11
2.30325e-07
1.24749e-09
2.3012e-07
2.02882e-09
2.30126e-07
2.30583e-09
2.30103e-07
2.71358e-09
2.50956e-09
2.7432e-07
1.24353e-10
2.74094e-07
1.47355e-09
2.73817e-07
2.30512e-09
2.73818e-07
2.30542e-09
2.73931e-07
2.59992e-09
2.65807e-09
3.33124e-07
3.33643e-10
3.33011e-07
1.58689e-09
3.32791e-07
2.52512e-09
3.3267e-07
2.42662e-09
3.32774e-07
2.49546e-09
2.71459e-09
6.66491e-07
6.66399e-07
6.66284e-07
6.66171e-07
6.66243e-07
)
;

boundaryField
{
    top
    {
        type            calculated;
        value           nonuniform List<scalar> 
31
(
2.45003e-09
2.84522e-09
3.18631e-09
3.39435e-09
3.98307e-09
4.63902e-09
4.76863e-09
4.87728e-09
5.2182e-09
5.30276e-09
5.24858e-09
5.34503e-09
5.30764e-09
4.86432e-09
4.11406e-09
3.23883e-09
2.2978e-09
1.42508e-09
7.52821e-10
3.33074e-10
1.01197e-10
-4.84265e-12
-2.37253e-11
-2.65199e-11
-1.41457e-13
5.09649e-10
1.67879e-09
2.64009e-09
2.53984e-09
2.42346e-09
2.6042e-09
)
;
    }
    inlet
    {
        type            calculated;
        value           nonuniform List<scalar> 7(-3.33333e-07 -6.66667e-07 -1.37264e-07 -1.63236e-07 -1.94121e-07 -2.3085e-07 -2.74529e-07);
    }
    outlet
    {
        type            calculated;
        value           nonuniform List<scalar> 7(3.33299e-07 6.6672e-07 6.91621e-08 1.50342e-07 1.92881e-07 2.30753e-07 2.74513e-07);
    }
    plate
    {
        type            calculated;
        value           uniform 0;
    }
    symmBound
    {
        type            calculated;
        value           nonuniform List<scalar> 6(5.80406e-10 1.42535e-11 -1.33161e-09 -1.44441e-09 -1.28611e-09 -2.3678e-10);
    }
    frontAndBack
    {
        type            empty;
        value           nonuniform 0();
    }
}


// ************************************************************************* //
