/*--------------------------------*- C++ -*----------------------------------*\
| =========                 |                                                 |
| \\      /  F ield         | OpenFOAM: The Open Source CFD Toolbox           |
|  \\    /   O peration     | Version:  2.3.0                                 |
|   \\  /    A nd           | Web:      www.OpenFOAM.org                      |
|    \\/     M anipulation  |                                                 |
\*---------------------------------------------------------------------------*/
FoamFile
{
    version     2.0;
    format      ascii;
    class       volVectorField;
    location    "0.2";
    object      U_0;
}
// * * * * * * * * * * * * * * * * * * * * * * * * * * * * * * * * * * * * * //

dimensions      [0 1 -1 0 0 0 0];

internalField   nonuniform List<vector> 
217
(
(0.194741 0.000702285 0)
(0.189851 0.00163646 0)
(0.184652 0.00187382 0)
(0.178997 0.00181116 0)
(0.17351 0.00216038 0)
(0.166762 0.0024012 0)
(0.158854 0.0021079 0)
(0.151842 0.00192604 0)
(0.145251 0.00203829 0)
(0.137828 0.00192337 0)
(0.130535 0.00168942 0)
(0.123875 0.00172178 0)
(0.116887 0.00172282 0)
(0.109727 0.0012887 0)
(0.103963 0.000597135 0)
(0.100629 7.72406e-05 0)
(0.0994495 -0.000120365 0)
(0.0994923 -0.000150256 0)
(0.0999384 -0.000101197 0)
(0.10037 -4.95268e-05 0)
(0.100668 -1.81051e-05 0)
(0.100847 -4.98615e-06 0)
(0.100946 -1.18501e-06 0)
(0.101 -6.86242e-07 0)
(0.101037 -2.80728e-07 0)
(0.198436 0.00149027 0)
(0.198452 0.00281257 0)
(0.198598 0.00345696 0)
(0.198063 0.00318698 0)
(0.197738 0.00331243 0)
(0.19773 0.00400992 0)
(0.196848 0.0039903 0)
(0.195423 0.0034047 0)
(0.194279 0.00346631 0)
(0.192942 0.00378635 0)
(0.1911 0.0035313 0)
(0.18925 0.00322575 0)
(0.18758 0.00335395 0)
(0.185819 0.00327981 0)
(0.183989 0.0025006 0)
(0.18256 0.00136319 0)
(0.181896 0.000440905 0)
(0.181978 -1.4687e-05 0)
(0.182499 -0.000163334 0)
(0.183113 -0.000169109 0)
(0.183612 -0.000122652 0)
(0.183953 -7.67651e-05 0)
(0.18415 -4.35205e-05 0)
(0.184257 -2.59432e-05 0)
(0.184319 -1.09635e-05 0)
(0.198834 0.00108688 0)
(0.198658 0.00189245 0)
(0.198955 0.00252425 0)
(0.198729 0.0024524 0)
(0.198613 0.00277381 0)
(0.199465 0.00348633 0)
(0.200042 0.00344664 0)
(0.199837 0.00298281 0)
(0.199824 0.00318062 0)
(0.200022 0.00353865 0)
(0.199873 0.00327605 0)
(0.199678 0.00302183 0)
(0.199856 0.00321426 0)
(0.20017 0.00310694 0)
(0.200204 0.00221642 0)
(0.19988 0.00099274 0)
(0.199444 4.88242e-05 0)
(0.199105 -0.000399352 0)
(0.198878 -0.000505943 0)
(0.198772 -0.000424314 0)
(0.19873 -0.000285055 0)
(0.198726 -0.000167233 0)
(0.198724 -8.752e-05 0)
(0.198733 -4.58908e-05 0)
(0.198737 -1.67206e-05 0)
(0.199127 0.00139537 0)
(0.19902 0.0018783 0)
(0.199351 0.00239471 0)
(0.199101 0.00266138 0)
(0.198765 0.00295034 0)
(0.199528 0.0033006 0)
(0.200272 0.0034248 0)
(0.200149 0.00328247 0)
(0.2001 0.0032639 0)
(0.20047 0.00341306 0)
(0.200686 0.00338621 0)
(0.200685 0.00324822 0)
(0.200887 0.00316014 0)
(0.20137 0.00289889 0)
(0.20179 0.00222861 0)
(0.201859 0.00136097 0)
(0.201528 0.000663042 0)
(0.200994 0.000203461 0)
(0.200507 -2.59898e-05 0)
(0.200189 -9.32143e-05 0)
(0.200011 -9.24762e-05 0)
(0.199938 -7.29704e-05 0)
(0.19991 -4.90709e-05 0)
(0.199913 -3.40456e-05 0)
(0.199916 -1.42993e-05 0)
(0.199391 0.00165525 0)
(0.19939 0.00198756 0)
(0.199588 0.00225595 0)
(0.199316 0.00245863 0)
(0.199019 0.0028722 0)
(0.199662 0.00317421 0)
(0.200236 0.00317983 0)
(0.200093 0.00311465 0)
(0.200176 0.00315507 0)
(0.200551 0.00324334 0)
(0.200589 0.00318147 0)
(0.200524 0.00300008 0)
(0.20081 0.00288528 0)
(0.201281 0.00269268 0)
(0.201541 0.00216261 0)
(0.201472 0.0013592 0)
(0.201182 0.000589774 0)
(0.200836 0.000104725 0)
(0.200528 -0.000107502 0)
(0.200306 -0.000159317 0)
(0.200154 -0.000139901 0)
(0.200071 -9.9676e-05 0)
(0.20002 -6.04644e-05 0)
(0.200003 -3.66773e-05 0)
(0.199987 -1.27584e-05 0)
(0.199518 0.00172118 0)
(0.199549 0.00195759 0)
(0.199774 0.00214064 0)
(0.1997 0.00231981 0)
(0.199408 0.00272938 0)
(0.19975 0.00300875 0)
(0.20021 0.00297411 0)
(0.200123 0.00300552 0)
(0.200116 0.00310553 0)
(0.200384 0.00304671 0)
(0.200465 0.00293574 0)
(0.200462 0.00290246 0)
(0.200651 0.00282115 0)
(0.20089 0.00251919 0)
(0.201002 0.00198469 0)
(0.201015 0.00138031 0)
(0.200933 0.000869617 0)
(0.200732 0.000505449 0)
(0.200469 0.000260071 0)
(0.20025 0.000105762 0)
(0.200104 1.98428e-05 0)
(0.20003 -1.83898e-05 0)
(0.199992 -2.64536e-05 0)
(0.199985 -2.64081e-05 0)
(0.199979 -1.00836e-05 0)
(0.199857 0.00179346 0)
(0.199886 0.00202506 0)
(0.199962 0.00221491 0)
(0.199923 0.00229546 0)
(0.19976 0.00255127 0)
(0.199862 0.00286464 0)
(0.200088 0.00288148 0)
(0.200075 0.00285424 0)
(0.200053 0.00296378 0)
(0.20018 0.00296603 0)
(0.200225 0.00285329 0)
(0.200181 0.00277861 0)
(0.200234 0.00265436 0)
(0.20036 0.00236236 0)
(0.200431 0.00193961 0)
(0.200409 0.0014668 0)
(0.200316 0.000986814 0)
(0.200208 0.000574467 0)
(0.200128 0.000282656 0)
(0.200087 0.000115196 0)
(0.200064 3.07719e-05 0)
(0.200053 -2.25141e-06 0)
(0.200038 -1.02618e-05 0)
(0.20003 -1.04487e-05 0)
(0.200015 2.59992e-07 0)
(0.194041 -0.000183656 0)
(0.205233 1.92464e-05 0)
(0.194526 0.00057977 0)
(0.203411 0.00070542 0)
(0.194259 0.000697732 0)
(0.201388 0.000115918 0)
(0.19929 -0.000155003 0)
(0.19988 7.37042e-05 0)
(0.199155 0.0007335 0)
(0.199529 0.000910666 0)
(0.198864 0.0012464 0)
(0.198723 0.000880754 0)
(0.200001 -9.28031e-05 0)
(0.199466 0.000252165 0)
(0.199585 0.000636766 0)
(0.199686 0.0009911 0)
(0.1994 0.0013457 0)
(0.199226 0.00115302 0)
(0.200032 -6.17399e-05 0)
(0.199567 0.000403805 0)
(0.199729 0.000749793 0)
(0.199816 0.00100051 0)
(0.199438 0.00131728 0)
(0.199313 0.00133747 0)
(0.200035 8.70824e-06 0)
(0.199653 0.000466781 0)
(0.199777 0.000835064 0)
(0.199945 0.000964754 0)
(0.199632 0.00130429 0)
(0.199447 0.00154874 0)
(0.200021 6.56456e-05 0)
(0.199775 0.000503782 0)
(0.199855 0.000949568 0)
(0.200005 0.00106393 0)
(0.199764 0.00126834 0)
(0.199552 0.00154424 0)
(0.200011 0.000138349 0)
(0.199923 0.00054222 0)
(0.199926 0.000978956 0)
(0.200001 0.00112441 0)
(0.19994 0.00125822 0)
(0.199852 0.00155032 0)
)
;

boundaryField
{
    top
    {
        type            zeroGradient;
    }
    inlet
    {
        type            fixedValue;
        value           uniform (0.2 0 0);
    }
    outlet
    {
        type            zeroGradient;
    }
    plate
    {
        type            fixedValue;
        value           uniform (0 0 0);
    }
    symmBound
    {
        type            zeroGradient;
    }
    frontAndBack
    {
        type            empty;
    }
}


// ************************************************************************* //
