/*--------------------------------*- C++ -*----------------------------------*\
| =========                 |                                                 |
| \\      /  F ield         | OpenFOAM: The Open Source CFD Toolbox           |
|  \\    /   O peration     | Version:  2.3.0                                 |
|   \\  /    A nd           | Web:      www.OpenFOAM.org                      |
|    \\/     M anipulation  |                                                 |
\*---------------------------------------------------------------------------*/
FoamFile
{
    version     2.0;
    format      ascii;
    class       volScalarField;
    location    "1";
    object      p;
}
// * * * * * * * * * * * * * * * * * * * * * * * * * * * * * * * * * * * * * //

dimensions      [0 2 -2 0 0 0 0];

internalField   nonuniform List<scalar> 
2889
(
0.00269267
0.00241425
0.00182732
0.00125503
0.000771639
0.000360244
1.11348e-05
-0.000261365
-0.000438447
-0.000522048
-0.000535517
-0.000508945
-0.000466732
-0.000423993
-0.00038806
-0.000360984
-0.000341866
-0.000328685
-0.000319381
-0.000312324
-0.000306391
-0.000300895
-0.000295463
-0.000289931
-0.000284254
-0.000278448
-0.00027255
-0.000266605
-0.000260647
-0.000254706
-0.000248801
-0.000242947
-0.00023715
-0.000231418
-0.00022575
-0.000220152
-0.000214621
-0.000209163
-0.000203775
-0.000198463
-0.000193225
-0.000188068
-0.000182988
-0.000177995
-0.000173083
-0.000168263
-0.000163528
-0.000158889
-0.000154337
-0.000149884
-0.00014552
-0.000141257
-0.000137081
-0.000133008
-0.000129022
-0.000125139
-0.000121339
-0.000117642
-0.000114025
-0.000110509
-0.000107068
-0.000103729
-0.000100457
-9.72841e-05
-9.41722e-05
-9.11583e-05
-8.8196e-05
-8.53302e-05
-8.2506e-05
-7.97767e-05
-7.70774e-05
-7.4472e-05
-7.18831e-05
-6.93874e-05
-6.68929e-05
-6.44916e-05
-6.20738e-05
-5.97502e-05
-5.73895e-05
-5.51253e-05
-5.27997e-05
-5.05748e-05
-4.82598e-05
-4.60517e-05
-4.37193e-05
-4.15034e-05
-3.9122e-05
-3.68705e-05
-3.44033e-05
-3.20851e-05
-2.94888e-05
-2.70689e-05
-2.42916e-05
-2.17302e-05
-1.87073e-05
-1.59605e-05
-1.26064e-05
-9.6312e-06
-5.80244e-06
-2.6029e-06
0.00226608
0.00212114
0.00171287
0.00122156
0.000766558
0.000375213
4.74463e-05
-0.000207539
-0.000378867
-0.000467456
-0.000490554
-0.00047382
-0.000440107
-0.000404055
-0.000373087
-0.000349457
-0.000332606
-0.000320889
-0.000312558
-0.000306189
-0.000300784
-0.000295726
-0.000290675
-0.000285486
-0.000280118
-0.000274592
-0.000268947
-0.00026323
-0.000257478
-0.000251724
-0.000245989
-0.00024029
-0.000234634
-0.000229033
-0.000223485
-0.000217998
-0.00021257
-0.000207208
-0.000201909
-0.000196681
-0.000191521
-0.000186438
-0.000181427
-0.000176499
-0.000171648
-0.000166886
-0.000162205
-0.000157618
-0.000153114
-0.000148708
-0.000144386
-0.000140165
-0.000136028
-0.000131993
-0.000128042
-0.000124192
-0.000120424
-0.000116758
-0.000113169
-0.000109682
-0.000106267
-0.000102953
-9.97048e-05
-9.65559e-05
-9.34655e-05
-9.04732e-05
-8.75305e-05
-8.46847e-05
-8.18782e-05
-7.91675e-05
-7.64844e-05
-7.38961e-05
-7.13219e-05
-6.88422e-05
-6.63609e-05
-6.39747e-05
-6.15688e-05
-5.92594e-05
-5.69093e-05
-5.46585e-05
-5.23424e-05
-5.01302e-05
-4.78234e-05
-4.56275e-05
-4.33022e-05
-4.10981e-05
-3.87224e-05
-3.64825e-05
-3.40196e-05
-3.1713e-05
-2.91193e-05
-2.67111e-05
-2.39345e-05
-2.13854e-05
-1.83605e-05
-1.56274e-05
-1.22671e-05
-9.3083e-06
-5.47316e-06
-2.31199e-06
0.00197004
0.00188241
0.00160236
0.00119777
0.000782532
0.000415763
0.000112646
-0.000123213
-0.000289207
-0.000386785
-0.0004265
-0.000426609
-0.00040646
-0.000380589
-0.000356593
-0.000337296
-0.000322937
-0.000312613
-0.000305101
-0.000299291
-0.000294344
-0.000289712
-0.000285079
-0.000280301
-0.000275329
-0.000270176
-0.000264876
-0.000259472
-0.000254001
-0.0002485
-0.000242988
-0.00023749
-0.000232014
-0.000226573
-0.00022117
-0.000215815
-0.000210506
-0.000205254
-0.000200055
-0.00019492
-0.000189845
-0.000184841
-0.000179903
-0.000175045
-0.000170258
-0.000165557
-0.000160932
-0.000156398
-0.000151944
-0.000147585
-0.000143307
-0.000139128
-0.000135031
-0.000131033
-0.000127117
-0.000123302
-0.000119565
-0.00011593
-0.00011237
-0.000108911
-0.000105521
-0.000102233
-9.90072e-05
-9.58823e-05
-9.28123e-05
-8.98421e-05
-8.69177e-05
-8.40924e-05
-8.13025e-05
-7.86109e-05
-7.59425e-05
-7.33722e-05
-7.08112e-05
-6.83485e-05
-6.58789e-05
-6.35089e-05
-6.11133e-05
-5.88195e-05
-5.64782e-05
-5.42426e-05
-5.19338e-05
-4.97366e-05
-4.74357e-05
-4.52548e-05
-4.29338e-05
-4.07448e-05
-3.83719e-05
-3.61475e-05
-3.36855e-05
-3.13952e-05
-2.88006e-05
-2.64097e-05
-2.36298e-05
-2.10996e-05
-1.80689e-05
-1.53568e-05
-1.19896e-05
-9.05335e-06
-5.24542e-06
-2.15284e-06
0.00176663
0.0016943
0.00148985
0.00116391
0.000798227
0.000461149
0.000180683
-3.8361e-05
-0.000197537
-0.000299948
-0.000352822
-0.000368795
-0.000362939
-0.000348035
-0.000331869
-0.000317967
-0.000307262
-0.000299419
-0.000293639
-0.000289101
-0.000285151
-0.000281351
-0.000277448
-0.000273326
-0.00026895
-0.000264336
-0.000259519
-0.000254546
-0.000249457
-0.000244294
-0.000239084
-0.000233853
-0.000228617
-0.000223392
-0.000218183
-0.000213005
-0.000207858
-0.000202754
-0.000197691
-0.000192682
-0.000187724
-0.000182829
-0.000177992
-0.000173228
-0.000168529
-0.00016391
-0.000159362
-0.0001549
-0.000150513
-0.000146218
-0.000142
-0.000137877
-0.000133832
-0.000129885
-0.000126015
-0.000122246
-0.00011855
-0.000114956
-0.000111432
-0.00010801
-0.000104653
-0.000101398
-9.82019e-05
-9.51075e-05
-9.20638e-05
-8.91216e-05
-8.62209e-05
-8.34214e-05
-8.06526e-05
-7.7985e-05
-7.53355e-05
-7.27876e-05
-7.02435e-05
-6.78019e-05
-6.53473e-05
-6.29972e-05
-6.06149e-05
-5.83401e-05
-5.60105e-05
-5.37933e-05
-5.14946e-05
-4.93153e-05
-4.7023e-05
-4.48597e-05
-4.2546e-05
-4.03746e-05
-3.80075e-05
-3.5801e-05
-3.33433e-05
-3.10714e-05
-2.84797e-05
-2.6108e-05
-2.33298e-05
-2.08197e-05
-1.77905e-05
-1.50985e-05
-1.17388e-05
-8.82357e-06
-5.08236e-06
-2.07211e-06
0.00160498
0.00153617
0.00137504
0.00111342
0.000800777
0.000497859
0.000239535
3.52551e-05
-0.000116685
-0.000220492
-0.000281995
-0.000310228
-0.000316551
-0.000311609
-0.000302889
-0.00029439
-0.000287591
-0.000282587
-0.0002789
-0.00027595
-0.000273255
-0.000270498
-0.000267499
-0.000264185
-0.000260541
-0.000256594
-0.000252381
-0.000247955
-0.000243358
-0.000238638
-0.000233824
-0.000228951
-0.000224036
-0.000219103
-0.000214158
-0.000209221
-0.000204293
-0.00019939
-0.000194512
-0.000189675
-0.000184875
-0.000180127
-0.000175427
-0.000170791
-0.000166211
-0.000161705
-0.000157261
-0.000152899
-0.000148604
-0.000144397
-0.00014026
-0.000136216
-0.000132244
-0.000128367
-0.000124562
-0.000120855
-0.000117217
-0.00011368
-0.000110207
-0.000106837
-0.000103526
-0.000100318
-9.71634e-05
-9.41111e-05
-9.1105e-05
-8.82013e-05
-8.53344e-05
-8.25701e-05
-7.98318e-05
-7.71966e-05
-7.45746e-05
-7.20567e-05
-6.95374e-05
-6.71236e-05
-6.46915e-05
-6.23675e-05
-6.00053e-05
-5.77552e-05
-5.54438e-05
-5.325e-05
-5.09678e-05
-4.88109e-05
-4.65336e-05
-4.4392e-05
-4.20919e-05
-3.99417e-05
-3.7587e-05
-3.54014e-05
-3.29554e-05
-3.07042e-05
-2.8124e-05
-2.57728e-05
-2.30069e-05
-2.05166e-05
-1.75034e-05
-1.48286e-05
-1.14991e-05
-8.6041e-06
-4.96225e-06
-2.03624e-06
0.00146634
0.00139929
0.00126494
0.00105261
0.000790206
0.000523731
0.000288052
9.73595e-05
-4.75158e-05
-0.000150587
-0.000217263
-0.000254491
-0.000270753
-0.000274602
-0.000272783
-0.00026944
-0.000266445
-0.000264262
-0.000262693
-0.000261369
-0.000259965
-0.000258277
-0.000256201
-0.00025371
-0.000250813
-0.000247551
-0.000243966
-0.000240115
-0.000236042
-0.0002318
-0.000227421
-0.000222945
-0.000218391
-0.000213788
-0.000209146
-0.000204487
-0.000199815
-0.00019515
-0.000190491
-0.000185859
-0.000181248
-0.00017668
-0.000172146
-0.000167668
-0.000163235
-0.000158868
-0.000154554
-0.000150316
-0.000146137
-0.000142041
-0.000138008
-0.000134063
-0.000130184
-0.000126397
-0.000122675
-0.00011905
-0.000115487
-0.000112023
-0.000108619
-0.000105315
-0.000102066
-9.89184e-05
-9.58196e-05
-9.28227e-05
-8.98672e-05
-8.70141e-05
-8.41931e-05
-8.14753e-05
-7.87788e-05
-7.61863e-05
-7.36024e-05
-7.11239e-05
-6.86394e-05
-6.62621e-05
-6.38618e-05
-6.15718e-05
-5.9239e-05
-5.70206e-05
-5.47363e-05
-5.25723e-05
-5.03154e-05
-4.81867e-05
-4.5933e-05
-4.38183e-05
-4.15408e-05
-3.94162e-05
-3.70836e-05
-3.49225e-05
-3.24988e-05
-3.0271e-05
-2.77145e-05
-2.53852e-05
-2.26467e-05
-2.01754e-05
-1.7198e-05
-1.45385e-05
-1.12655e-05
-8.39281e-06
-4.87367e-06
-2.02169e-06
0.00134422
0.00127954
0.00116414
0.000989218
0.000770262
0.000539444
0.000327089
0.000149936
1.20279e-05
-8.92536e-05
-0.000158802
-0.000202397
-0.000226559
-0.000238007
-0.000242507
-0.000244026
-0.000244671
-0.000245218
-0.00024573
-0.000246033
-0.000245939
-0.000245343
-0.000244205
-0.000242546
-0.0002404
-0.000237823
-0.000234864
-0.000231587
-0.000228038
-0.000224275
-0.000220333
-0.000216256
-0.000212068
-0.0002078
-0.000203466
-0.000199092
-0.000194683
-0.000190264
-0.000185834
-0.000181416
-0.000177006
-0.000172627
-0.000168272
-0.000163963
-0.000159689
-0.000155474
-0.000151304
-0.000147203
-0.000143154
-0.000139182
-0.000135267
-0.000131436
-0.000127663
-0.000123979
-0.000120355
-0.000116824
-0.00011335
-0.000109972
-0.000106649
-0.000103424
-0.00010025
-9.71749e-05
-9.41441e-05
-9.12142e-05
-8.83209e-05
-8.55294e-05
-8.27657e-05
-8.01047e-05
-7.74609e-05
-7.49209e-05
-7.23856e-05
-6.99557e-05
-6.7516e-05
-6.51839e-05
-6.28253e-05
-6.05774e-05
-5.82834e-05
-5.61043e-05
-5.38566e-05
-5.17294e-05
-4.95072e-05
-4.74131e-05
-4.5193e-05
-4.31107e-05
-4.08663e-05
-3.87721e-05
-3.6473e-05
-3.43403e-05
-3.19519e-05
-2.97501e-05
-2.72324e-05
-2.49262e-05
-2.22333e-05
-1.97812e-05
-1.68614e-05
-1.42181e-05
-1.10279e-05
-8.18204e-06
-4.7998e-06
-1.99864e-06
0.00123564
0.00117414
0.00107368
0.000927404
0.000744243
0.000546041
0.000357015
0.000193907
6.32729e-05
-3.55335e-05
-0.00010644
-0.000154388
-0.000184618
-0.000202419
-0.000212537
-0.000218548
-0.000222619
-0.000225769
-0.000228298
-0.000230211
-0.00023144
-0.000231961
-0.000231789
-0.00023098
-0.000229595
-0.000227706
-0.000225375
-0.000222669
-0.000219642
-0.000216355
-0.000212847
-0.000209168
-0.000205342
-0.000201408
-0.00019738
-0.000193289
-0.000189143
-0.000184968
-0.000180766
-0.000176562
-0.000172354
-0.000168165
-0.000163989
-0.000159851
-0.000155739
-0.000151679
-0.000147655
-0.000143695
-0.00013978
-0.000135937
-0.000132144
-0.000128431
-0.00012477
-0.000121196
-0.000117675
-0.000114244
-0.000110866
-0.000107582
-0.000104347
-0.000101208
-9.81151e-05
-9.51202e-05
-9.2165e-05
-8.93092e-05
-8.64861e-05
-8.37636e-05
-8.10651e-05
-7.84681e-05
-7.5885e-05
-7.34046e-05
-7.0926e-05
-6.85517e-05
-6.61651e-05
-6.38849e-05
-6.15764e-05
-5.93768e-05
-5.71304e-05
-5.49965e-05
-5.27943e-05
-5.07095e-05
-4.85315e-05
-4.6477e-05
-4.43006e-05
-4.22552e-05
-4.00548e-05
-3.79949e-05
-3.57414e-05
-3.36401e-05
-3.13006e-05
-2.91271e-05
-2.6664e-05
-2.43826e-05
-2.17532e-05
-1.93225e-05
-1.64808e-05
-1.38584e-05
-1.07732e-05
-7.96049e-06
-4.7207e-06
-1.94347e-06
0.0011386
0.00108076
0.000992701
0.000868788
0.000714539
0.000544852
0.000378196
0.000229588
0.00010684
1.11889e-05
-5.99805e-05
-0.00011075
-0.000145466
-0.000168367
-0.000183291
-0.000193327
-0.00020056
-0.000206154
-0.000210609
-0.00021409
-0.000216633
-0.000218281
-0.000219088
-0.000219142
-0.000218525
-0.000217327
-0.000215621
-0.000213485
-0.000210976
-0.000208163
-0.000205087
-0.000201803
-0.000198339
-0.000194738
-0.000191015
-0.000187208
-0.000183324
-0.000179394
-0.000175419
-0.000171431
-0.000167423
-0.000163426
-0.000159429
-0.000155463
-0.000151513
-0.000147608
-0.000143731
-0.000139913
-0.000136132
-0.000132419
-0.00012875
-0.000125157
-0.00012161
-0.000118147
-0.000114732
-0.000111404
-0.000108124
-0.000104935
-0.000101791
-9.87416e-05
-9.57336e-05
-9.28216e-05
-8.99459e-05
-8.71677e-05
-8.44189e-05
-8.17687e-05
-7.914e-05
-7.66108e-05
-7.40932e-05
-7.16763e-05
-6.92597e-05
-6.69447e-05
-6.46168e-05
-6.23922e-05
-6.01398e-05
-5.79924e-05
-5.58e-05
-5.3715e-05
-5.15655e-05
-4.95263e-05
-4.74003e-05
-4.53885e-05
-4.32643e-05
-4.12587e-05
-3.91118e-05
-3.70887e-05
-3.48915e-05
-3.28241e-05
-3.05453e-05
-2.84026e-05
-2.60072e-05
-2.37537e-05
-2.12023e-05
-1.87977e-05
-1.605e-05
-1.34568e-05
-1.04917e-05
-7.72012e-06
-4.62108e-06
-1.85073e-06
0.0010513
0.000997336
0.000919786
0.000813764
0.000682848
0.000537459
0.000391439
0.000257367
0.000143164
5.14205e-05
-1.91033e-05
-7.15191e-05
-0.000109409
-0.000136235
-0.00015511
-0.000168633
-0.000178714
-0.000186566
-0.000192832
-0.000197814
-0.000201638
-0.000204399
-0.000206183
-0.0002071
-0.000207249
-0.000206738
-0.000205651
-0.000204079
-0.000202084
-0.000199741
-0.000197096
-0.000194207
-0.000191105
-0.000187837
-0.000184422
-0.000180899
-0.000177279
-0.000173595
-0.000169851
-0.000166079
-0.000162275
-0.000158469
-0.000154655
-0.000150861
-0.000147075
-0.000143327
-0.0001396
-0.000135925
-0.00013228
-0.000128699
-0.000125155
-0.000121683
-0.000118253
-0.000114902
-0.000111594
-0.000108371
-0.000105191
-0.000102099
-9.90489e-05
-9.60897e-05
-9.31693e-05
-9.03417e-05
-8.75482e-05
-8.48488e-05
-8.21772e-05
-7.9601e-05
-7.70452e-05
-7.45852e-05
-7.21366e-05
-6.97845e-05
-6.74336e-05
-6.51795e-05
-6.29144e-05
-6.07469e-05
-5.85552e-05
-5.64613e-05
-5.43279e-05
-5.22931e-05
-5.02017e-05
-4.82097e-05
-4.61416e-05
-4.4174e-05
-4.21085e-05
-4.01442e-05
-3.80581e-05
-3.60737e-05
-3.39405e-05
-3.19092e-05
-2.96998e-05
-2.75909e-05
-2.52722e-05
-2.30512e-05
-2.05872e-05
-1.82161e-05
-1.55714e-05
-1.30187e-05
-1.018e-05
-7.45952e-06
-4.49504e-06
-1.73265e-06
0.000972152
0.0009221
0.000853584
0.000762224
0.000650336
0.00052543
0.000397901
0.000277899
0.000172697
8.56048e-05
1.65487e-05
-3.6567e-05
-7.65687e-05
-0.000106291
-0.000128283
-0.000144716
-0.000157283
-0.000167176
-0.000175119
-0.000181512
-0.000186559
-0.000190397
-0.000193136
-0.000194901
-0.000195804
-0.000195969
-0.000195492
-0.000194475
-0.000192988
-0.00019111
-0.000188892
-0.000186396
-0.000183656
-0.000180722
-0.000177616
-0.00017438
-0.000171025
-0.00016759
-0.000164079
-0.000160526
-0.000156928
-0.000153318
-0.000149688
-0.00014607
-0.000142451
-0.000138863
-0.000135288
-0.000131758
-0.000128254
-0.000124806
-0.000121391
-0.000118043
-0.000114732
-0.000111495
-0.000108298
-0.000105181
-0.000102104
-9.91107e-05
-9.61574e-05
-9.32903e-05
-9.04605e-05
-8.77188e-05
-8.50104e-05
-8.23914e-05
-7.98001e-05
-7.7299e-05
-7.48192e-05
-7.24295e-05
-7.00531e-05
-6.7767e-05
-6.54851e-05
-6.32927e-05
-6.10941e-05
-5.89845e-05
-5.68571e-05
-5.48177e-05
-5.27472e-05
-5.07635e-05
-4.87343e-05
-4.67904e-05
-4.47847e-05
-4.28623e-05
-4.08603e-05
-3.89388e-05
-3.69184e-05
-3.49745e-05
-3.29106e-05
-3.09182e-05
-2.8783e-05
-2.67124e-05
-2.4475e-05
-2.2293e-05
-1.99203e-05
-1.75923e-05
-1.50537e-05
-1.25539e-05
-9.84106e-06
-7.18271e-06
-4.3454e-06
-1.60872e-06
0.000899796
0.000853604
0.000792981
0.000713894
0.000617753
0.000510102
0.000398847
0.000292041
0.000195975
0.000114135
4.72825e-05
-5.73656e-06
-4.69863e-05
-7.87305e-05
-0.000103068
-0.000121824
-0.000136483
-0.000148165
-0.000157621
-0.000165314
-0.000171504
-0.000176362
-0.000180015
-0.000182597
-0.000184232
-0.000185054
-0.000185171
-0.000184695
-0.000183705
-0.000182285
-0.00018049
-0.000178384
-0.000176004
-0.000173403
-0.000170605
-0.000167655
-0.000164569
-0.000161384
-0.000158108
-0.000154776
-0.000151388
-0.000147975
-0.000144534
-0.000141094
-0.000137647
-0.00013422
-0.000130802
-0.000127421
-0.00012406
-0.000120749
-0.000117467
-0.000114245
-0.000111057
-0.000107937
-0.000104855
-0.000101846
-9.88769e-05
-9.59847e-05
-9.31318e-05
-9.0359e-05
-8.76235e-05
-8.49699e-05
-8.23503e-05
-7.98135e-05
-7.73061e-05
-7.48819e-05
-7.24817e-05
-7.01639e-05
-6.78632e-05
-6.56445e-05
-6.34352e-05
-6.13059e-05
-5.9177e-05
-5.71268e-05
-5.50672e-05
-5.30834e-05
-5.10793e-05
-4.91481e-05
-4.71846e-05
-4.52903e-05
-4.33503e-05
-4.14751e-05
-3.95398e-05
-3.76635e-05
-3.57117e-05
-3.38117e-05
-3.18195e-05
-2.98705e-05
-2.78116e-05
-2.57851e-05
-2.36303e-05
-2.14954e-05
-1.92146e-05
-1.69399e-05
-1.45066e-05
-1.20716e-05
-9.48007e-06
-6.89547e-06
-4.1793e-06
-1.49416e-06
0.000833076
0.000790663
0.000737058
0.000668442
0.000585537
0.000492508
0.000395461
0.000300755
0.000213633
0.000137411
7.33593e-05
2.11129e-05
-2.06644e-05
-5.36917e-05
-7.96843e-05
-0.000100195
-0.000116529
-0.000129718
-0.000140499
-0.00014936
-0.000156593
-0.000162393
-0.0001669
-0.000170253
-0.000172583
-0.000174033
-0.000174722
-0.000174769
-0.000174261
-0.000173287
-0.000171905
-0.000170181
-0.000168157
-0.000165885
-0.000163395
-0.000160731
-0.000157913
-0.000154978
-0.00015194
-0.00014883
-0.000145654
-0.000142442
-0.000139192
-0.000135933
-0.00013266
-0.000129399
-0.000126141
-0.000122912
-0.000119698
-0.000116528
-0.000113382
-0.00011029
-0.000107229
-0.00010423
-0.000101267
-9.83697e-05
-9.55116e-05
-9.27237e-05
-8.99752e-05
-8.72998e-05
-8.46625e-05
-8.20997e-05
-7.95727e-05
-7.71209e-05
-7.47011e-05
-7.23564e-05
-7.00394e-05
-6.7796e-05
-6.55746e-05
-6.34256e-05
-6.12922e-05
-5.92284e-05
-5.71725e-05
-5.51839e-05
-5.31951e-05
-5.12695e-05
-4.93346e-05
-4.74585e-05
-4.55632e-05
-4.37214e-05
-4.18495e-05
-4.00248e-05
-3.81581e-05
-3.63309e-05
-3.44492e-05
-3.25978e-05
-3.06783e-05
-2.87785e-05
-2.67962e-05
-2.48209e-05
-2.27485e-05
-2.06692e-05
-1.8479e-05
-1.6268e-05
-1.39373e-05
-1.1578e-05
-9.10223e-06
-6.60236e-06
-4.00363e-06
-1.39497e-06
0.000770987
0.000732249
0.000684999
0.000625467
0.000553854
0.000473366
0.000388757
0.000305008
0.000226384
0.000155878
9.50421e-05
4.41223e-05
2.43046e-06
-3.12459e-05
-5.82843e-05
-8.00192e-05
-9.76123e-05
-0.000112009
-0.000123905
-0.000133784
-0.000141945
-0.000148595
-0.000153878
-0.000157941
-0.000160918
-0.000162958
-0.000164187
-0.000164731
-0.000164684
-0.000164138
-0.000163157
-0.000161805
-0.000160129
-0.000158181
-0.000155993
-0.000153612
-0.00015106
-0.000148376
-0.000145574
-0.000142688
-0.000139725
-0.000136715
-0.000133659
-0.000130584
-0.000127489
-0.000124396
-0.000121301
-0.000118227
-0.000115166
-0.000112138
-0.000109134
-0.000106174
-0.000103245
-0.00010037
-9.75295e-05
-9.47483e-05
-9.20055e-05
-8.93256e-05
-8.66854e-05
-8.41109e-05
-8.15757e-05
-7.91074e-05
-7.66767e-05
-7.43133e-05
-7.19847e-05
-6.97229e-05
-6.74925e-05
-6.53268e-05
-6.31879e-05
-6.1112e-05
-5.90575e-05
-5.70625e-05
-5.50825e-05
-5.31589e-05
-5.12436e-05
-4.93796e-05
-4.75162e-05
-4.56989e-05
-4.38739e-05
-4.20887e-05
-4.02864e-05
-3.85166e-05
-3.67198e-05
-3.49467e-05
-3.31359e-05
-3.13388e-05
-2.94923e-05
-2.76481e-05
-2.57423e-05
-2.38257e-05
-2.18349e-05
-1.98198e-05
-1.7719e-05
-1.55809e-05
-1.33504e-05
-1.10759e-05
-8.71139e-06
-6.30583e-06
-3.82302e-06
-1.30998e-06
0.00071269
0.000677483
0.000636033
0.000584422
0.000522602
0.00045309
0.000379504
0.000305639
0.000234911
0.00016999
0.000112594
6.34386e-05
2.23673e-05
-1.13943e-05
-3.89338e-05
-6.14079e-05
-7.98656e-05
-9.51711e-05
-0.000107967
-0.000118702
-0.000127667
-0.000135061
-0.000141034
-0.000145732
-0.000149296
-0.000151876
-0.000153607
-0.000154616
-0.000155005
-0.000154866
-0.000154267
-0.000153274
-0.000151934
-0.0001503
-0.000148409
-0.000146305
-0.000144016
-0.000141579
-0.000139014
-0.000136351
-0.000133602
-0.000130794
-0.000127934
-0.000125045
-0.00012213
-0.000119208
-0.00011628
-0.000113364
-0.000110457
-0.000107577
-0.000104717
-0.000101894
-9.91006e-05
-9.63531e-05
-9.36396e-05
-9.09781e-05
-8.83543e-05
-8.57865e-05
-8.32585e-05
-8.0789e-05
-7.83595e-05
-7.59897e-05
-7.3659e-05
-7.13879e-05
-6.9154e-05
-6.69791e-05
-6.48384e-05
-6.27544e-05
-6.07011e-05
-5.87023e-05
-5.67295e-05
-5.48072e-05
-5.29057e-05
-5.10513e-05
-4.92117e-05
-4.74136e-05
-4.56237e-05
-4.38698e-05
-4.21167e-05
-4.03928e-05
-3.86617e-05
-3.69519e-05
-3.5226e-05
-3.35125e-05
-3.17734e-05
-3.00365e-05
-2.82636e-05
-2.64815e-05
-2.46523e-05
-2.28015e-05
-2.08923e-05
-1.8949e-05
-1.6937e-05
-1.48798e-05
-1.27481e-05
-1.05657e-05
-8.31015e-06
-6.00659e-06
-3.63977e-06
-1.23505e-06
0.000657753
0.000625953
0.000589507
0.000544652
0.000491516
0.000431877
0.000368197
0.00030322
0.000239686
0.000180047
0.000126174
7.91382e-05
3.91854e-05
5.87435e-06
-2.16564e-05
-4.44222e-05
-6.33768e-05
-7.93056e-05
-9.2785e-05
-0.000104212
-0.000113847
-0.000121873
-0.000128438
-0.000133688
-0.000137768
-0.000140832
-0.000143017
-0.000144454
-0.000145248
-0.000145492
-0.000145254
-0.000144601
-0.000143583
-0.000142253
-0.000140648
-0.000138815
-0.000136784
-0.000134591
-0.000132259
-0.000129818
-0.000127282
-0.000124678
-0.000122014
-0.000119313
-0.000116579
-0.000113831
-0.000111072
-0.000108318
-0.000105569
-0.000102839
-0.000100127
-9.74455e-05
-9.47905e-05
-9.21751e-05
-8.95921e-05
-8.70545e-05
-8.45535e-05
-8.2102e-05
-7.96898e-05
-7.73298e-05
-7.50096e-05
-7.27426e-05
-7.05153e-05
-6.8341e-05
-6.62051e-05
-6.41214e-05
-6.20737e-05
-6.00758e-05
-5.81109e-05
-5.61937e-05
-5.43053e-05
-5.24603e-05
-5.06397e-05
-4.88589e-05
-4.70973e-05
-4.53697e-05
-4.36554e-05
-4.19696e-05
-4.02903e-05
-3.86326e-05
-3.69742e-05
-3.53297e-05
-3.36762e-05
-3.20277e-05
-3.03616e-05
-2.86906e-05
-2.69923e-05
-2.52785e-05
-2.35268e-05
-2.17483e-05
-1.99215e-05
-1.80567e-05
-1.61343e-05
-1.41644e-05
-1.21315e-05
-1.00469e-05
-7.90005e-06
-5.70435e-06
-3.45465e-06
-1.166e-06
0.000606934
0.000578203
0.000545039
0.000505847
0.000460677
0.00041008
0.000355271
0.000298107
0.000240914
0.000186107
0.000135739
9.11399e-05
5.28034e-05
2.04872e-05
-6.52812e-06
-2.91537e-05
-4.82558e-05
-6.45335e-05
-7.84822e-05
-9.04307e-05
-0.000100593
-0.000109128
-0.000116176
-0.000121884
-0.0001264
-0.00012988
-0.000132466
-0.000134287
-0.000135449
-0.000136044
-0.000136142
-0.000135809
-0.000135095
-0.000134052
-0.000132723
-0.000131152
-0.000129371
-0.000127416
-0.000125314
-0.000123091
-0.000120767
-0.000118365
-0.000115898
-0.000113385
-0.000110835
-0.000108262
-0.000105675
-0.000103085
-0.000100496
-9.79209e-05
-9.53594e-05
-9.28231e-05
-9.03104e-05
-8.78312e-05
-8.53823e-05
-8.29729e-05
-8.05985e-05
-7.82677e-05
-7.59751e-05
-7.37289e-05
-7.15217e-05
-6.93621e-05
-6.72416e-05
-6.51686e-05
-6.3134e-05
-6.11462e-05
-5.91946e-05
-5.72873e-05
-5.5414e-05
-5.35827e-05
-5.17817e-05
-5.00184e-05
-4.82816e-05
-4.6579e-05
-4.48979e-05
-4.32455e-05
-4.16092e-05
-3.99961e-05
-3.83928e-05
-3.68062e-05
-3.52225e-05
-3.36481e-05
-3.2069e-05
-3.04907e-05
-2.88994e-05
-2.72997e-05
-2.5678e-05
-2.40379e-05
-2.23658e-05
-2.0665e-05
-1.89227e-05
-1.7142e-05
-1.5311e-05
-1.34335e-05
-1.1501e-05
-9.51882e-06
-7.48195e-06
-5.39853e-06
-3.2677e-06
-1.09977e-06
0.000564504
0.000534552
0.000502533
0.000469017
0.000431519
0.000389048
0.00034175
0.000290948
0.000238925
0.000188285
0.000141286
9.93907e-05
6.3158e-05
3.23828e-05
6.38616e-06
-1.56803e-05
-3.45969e-05
-5.09608e-05
-6.51674e-05
-7.74615e-05
-8.79998e-05
-9.69111e-05
-0.000104324
-0.000110386
-0.000115249
-0.00011907
-0.000121993
-0.000124146
-0.000125634
-0.000126546
-0.00012695
-0.000126911
-0.00012648
-0.000125709
-0.000124641
-0.00012332
-0.00012178
-0.000120057
-0.000118178
-0.000116171
-0.000114056
-0.000111855
-0.000109584
-0.00010726
-0.000104893
-0.000102498
-0.000100083
-9.76608e-05
-9.52352e-05
-9.28171e-05
-9.04096e-05
-8.80218e-05
-8.56548e-05
-8.33161e-05
-8.10049e-05
-7.8728e-05
-7.64838e-05
-7.42784e-05
-7.21091e-05
-6.99812e-05
-6.78909e-05
-6.58432e-05
-6.38334e-05
-6.18662e-05
-5.99366e-05
-5.80491e-05
-5.61972e-05
-5.43849e-05
-5.26066e-05
-5.08658e-05
-4.91553e-05
-4.74783e-05
-4.58282e-05
-4.42084e-05
-4.26107e-05
-4.1038e-05
-3.94824e-05
-3.79467e-05
-3.64222e-05
-3.49111e-05
-3.3405e-05
-3.19053e-05
-3.04032e-05
-2.88997e-05
-2.73859e-05
-2.58623e-05
-2.43197e-05
-2.27581e-05
-2.11684e-05
-1.95504e-05
-1.78954e-05
-1.62034e-05
-1.44667e-05
-1.26861e-05
-1.08565e-05
-8.98055e-06
-7.05591e-06
-5.0883e-06
-3.0785e-06
-1.03429e-06
0.000502289
0.000482751
0.000462127
0.000436691
0.000406786
0.000371148
0.000329351
0.000282842
0.000234375
0.000186959
0.000143022
0.000103993
7.02832e-05
4.15461e-05
1.70325e-05
-4.08736e-06
-2.2508e-05
-3.87073e-05
-5.29618e-05
-6.54196e-05
-7.61732e-05
-8.53166e-05
-9.29673e-05
-9.92698e-05
-0.000104382
-0.000108461
-0.000111652
-0.000114079
-0.000115843
-0.000117029
-0.000117705
-0.000117931
-0.000117758
-0.000117238
-0.000116413
-0.000115328
-0.000114018
-0.000112518
-0.000110855
-0.000109059
-0.000107149
-0.000105147
-0.00010307
-0.000100935
-9.87516e-05
-9.65355e-05
-9.42952e-05
-9.20421e-05
-8.9782e-05
-8.75243e-05
-8.52737e-05
-8.30382e-05
-8.08204e-05
-7.8626e-05
-7.64562e-05
-7.43161e-05
-7.22059e-05
-7.01302e-05
-6.80881e-05
-6.60832e-05
-6.41135e-05
-6.21822e-05
-6.02869e-05
-5.84302e-05
-5.66093e-05
-5.48267e-05
-5.30781e-05
-5.13655e-05
-4.96857e-05
-4.80399e-05
-4.64233e-05
-4.4837e-05
-4.32771e-05
-4.17444e-05
-4.02335e-05
-3.87447e-05
-3.72731e-05
-3.5819e-05
-3.43764e-05
-3.29454e-05
-3.15199e-05
-3.00994e-05
-2.86775e-05
-2.72533e-05
-2.58203e-05
-2.43771e-05
-2.29172e-05
-2.14386e-05
-1.99346e-05
-1.84037e-05
-1.68395e-05
-1.52406e-05
-1.36013e-05
-1.19215e-05
-1.01978e-05
-8.4316e-06
-6.62196e-06
-4.77308e-06
-2.88667e-06
-9.68917e-07
0.000464614
0.000444781
0.000425492
0.000409459
0.000388484
0.000358451
0.000319661
0.000274988
0.000228231
0.000182919
0.000141575
0.000105407
7.44768e-05
4.81303e-05
2.54491e-05
5.58261e-06
-1.20802e-05
-2.78863e-05
-4.19831e-05
-5.4417e-05
-6.52152e-05
-7.44378e-05
-8.21902e-05
-8.86157e-05
-9.38739e-05
-9.8123e-05
-0.000101505
-0.000104139
-0.000106123
-0.000107536
-0.000108442
-0.000108897
-0.000108952
-0.000108657
-0.000108055
-0.000107189
-0.000106094
-0.000104805
-0.00010335
-0.000101757
-0.000100046
-9.82406e-05
-9.63555e-05
-9.44069e-05
-9.24073e-05
-9.03702e-05
-8.83054e-05
-8.62234e-05
-8.41307e-05
-8.20362e-05
-7.99455e-05
-7.78658e-05
-7.58005e-05
-7.37545e-05
-7.173e-05
-6.9731e-05
-6.77589e-05
-6.58173e-05
-6.39067e-05
-6.20292e-05
-6.01843e-05
-5.83741e-05
-5.65973e-05
-5.48556e-05
-5.31476e-05
-5.14743e-05
-4.98329e-05
-4.82245e-05
-4.66472e-05
-4.51008e-05
-4.35819e-05
-4.20906e-05
-4.06246e-05
-3.91833e-05
-3.77627e-05
-3.63622e-05
-3.49783e-05
-3.361e-05
-3.22529e-05
-3.09059e-05
-2.95647e-05
-2.82275e-05
-2.68894e-05
-2.55486e-05
-2.42002e-05
-2.28417e-05
-2.14682e-05
-2.0077e-05
-1.86627e-05
-1.72233e-05
-1.57537e-05
-1.42522e-05
-1.27141e-05
-1.1139e-05
-9.52454e-06
-7.87166e-06
-6.18001e-06
-4.45281e-06
-2.69204e-06
-9.05263e-07
0.000359997
0.000360287
0.000376421
0.000383797
0.000374878
0.000349448
0.000311397
0.000266382
0.000219903
0.000176111
0.000137391
0.00010449
7.69076e-05
5.35287e-05
3.31862e-05
1.49889e-05
-1.5762e-06
-1.67025e-05
-3.0391e-05
-4.25786e-05
-5.3226e-05
-6.23598e-05
-7.00737e-05
-7.65081e-05
-8.18218e-05
-8.61699e-05
-8.96886e-05
-9.2491e-05
-9.46667e-05
-9.62875e-05
-9.74127e-05
-9.8095e-05
-9.83826e-05
-9.83222e-05
-9.79571e-05
-9.73277e-05
-9.64696e-05
-9.54155e-05
-9.41942e-05
-9.28319e-05
-9.13511e-05
-8.97721e-05
-8.8111e-05
-8.63826e-05
-8.45998e-05
-8.27756e-05
-8.09203e-05
-7.90434e-05
-7.71521e-05
-7.52547e-05
-7.33577e-05
-7.14672e-05
-6.95874e-05
-6.77224e-05
-6.58753e-05
-6.40493e-05
-6.22466e-05
-6.04702e-05
-5.87213e-05
-5.70013e-05
-5.53104e-05
-5.36501e-05
-5.20199e-05
-5.04211e-05
-4.8853e-05
-4.73156e-05
-4.58074e-05
-4.43286e-05
-4.28786e-05
-4.14561e-05
-4.00587e-05
-3.86861e-05
-3.73368e-05
-3.60098e-05
-3.47017e-05
-3.34115e-05
-3.21368e-05
-3.08759e-05
-2.96254e-05
-2.83838e-05
-2.71476e-05
-2.59147e-05
-2.46811e-05
-2.34448e-05
-2.22016e-05
-2.09492e-05
-1.96832e-05
-1.84009e-05
-1.70981e-05
-1.57727e-05
-1.44205e-05
-1.30398e-05
-1.16268e-05
-1.01812e-05
-8.70109e-06
-7.1875e-06
-5.64019e-06
-4.06206e-06
-2.4535e-06
-8.16442e-07
0.000280962
0.000291211
0.000326115
0.00035313
0.000357311
0.000337371
0.000299722
0.000253535
0.000206839
0.000164719
0.000129242
0.0001003
7.66382e-05
5.66577e-05
3.89976e-05
2.27955e-05
7.68077e-06
-6.37631e-06
-1.92461e-05
-3.07827e-05
-4.09056e-05
-4.96245e-05
-5.70266e-05
-6.32469e-05
-6.8436e-05
-7.27375e-05
-7.62747e-05
-7.91475e-05
-8.14341e-05
-8.31974e-05
-8.44902e-05
-8.53604e-05
-8.5853e-05
-8.60111e-05
-8.58752e-05
-8.54828e-05
-8.48677e-05
-8.40609e-05
-8.30901e-05
-8.19805e-05
-8.07539e-05
-7.94294e-05
-7.80225e-05
-7.65468e-05
-7.50149e-05
-7.34391e-05
-7.18295e-05
-7.01948e-05
-6.85426e-05
-6.68808e-05
-6.5216e-05
-6.35537e-05
-6.18979e-05
-6.02524e-05
-5.86203e-05
-5.70049e-05
-5.54088e-05
-5.38347e-05
-5.22836e-05
-5.07569e-05
-4.92551e-05
-4.77793e-05
-4.63297e-05
-4.49074e-05
-4.35121e-05
-4.21433e-05
-4.08e-05
-3.94825e-05
-3.81904e-05
-3.69223e-05
-3.56762e-05
-3.44519e-05
-3.32485e-05
-3.20643e-05
-3.08968e-05
-2.9745e-05
-2.8607e-05
-2.74809e-05
-2.6364e-05
-2.52548e-05
-2.41505e-05
-2.3049e-05
-2.19468e-05
-2.0842e-05
-1.97314e-05
-1.86125e-05
-1.74818e-05
-1.63366e-05
-1.51738e-05
-1.39913e-05
-1.27858e-05
-1.15557e-05
-1.02981e-05
-9.01278e-06
-7.69861e-06
-6.35613e-06
-4.98566e-06
-3.5895e-06
-2.16889e-06
-7.2563e-07
0.00020635
0.000223367
0.000270311
0.000307541
0.000318998
0.00030373
0.000269402
0.000226636
0.000184249
0.000147268
0.000117196
9.32807e-05
7.381e-05
5.70816e-05
4.18905e-05
2.76183e-05
1.41059e-05
1.45494e-06
-1.015e-05
-2.05583e-05
-2.97046e-05
-3.76132e-05
-4.43742e-05
-5.01119e-05
-5.49571e-05
-5.90297e-05
-6.243e-05
-6.52379e-05
-6.75165e-05
-6.93181e-05
-7.06886e-05
-7.16711e-05
-7.23067e-05
-7.26343e-05
-7.26897e-05
-7.25059e-05
-7.21132e-05
-7.154e-05
-7.08124e-05
-6.99537e-05
-6.8984e-05
-6.79205e-05
-6.67773e-05
-6.55669e-05
-6.43011e-05
-6.29909e-05
-6.16454e-05
-6.02726e-05
-5.88802e-05
-5.74758e-05
-5.60661e-05
-5.46558e-05
-5.3248e-05
-5.18462e-05
-5.04536e-05
-4.90734e-05
-4.77085e-05
-4.63613e-05
-4.50325e-05
-4.37231e-05
-4.2434e-05
-4.11662e-05
-3.99201e-05
-3.86968e-05
-3.74963e-05
-3.63179e-05
-3.51607e-05
-3.40256e-05
-3.29119e-05
-3.18182e-05
-3.07431e-05
-2.96867e-05
-2.86482e-05
-2.76258e-05
-2.66177e-05
-2.56229e-05
-2.46399e-05
-2.3667e-05
-2.27019e-05
-2.17432e-05
-2.07887e-05
-1.98363e-05
-1.88835e-05
-1.79283e-05