/*--------------------------------*- C++ -*----------------------------------*\
| =========                 |                                                 |
| \\      /  F ield         | OpenFOAM: The Open Source CFD Toolbox           |
|  \\    /   O peration     | Version:  2.3.0                                 |
|   \\  /    A nd           | Web:      www.OpenFOAM.org                      |
|    \\/     M anipulation  |                                                 |
\*---------------------------------------------------------------------------*/
FoamFile
{
    version     2.0;
    format      ascii;
    class       surfaceScalarField;
    location    "1";
    object      phi_0;
}
// * * * * * * * * * * * * * * * * * * * * * * * * * * * * * * * * * * * * * //

dimensions      [0 3 -1 0 0 0 0];

internalField   nonuniform List<scalar> 
5644
(
2.94402e-08
2.71172e-09
-3.2152e-08
2.6024e-08
3.41622e-09
2.26078e-08
3.41624e-09
1.94374e-08
3.17043e-09
1.65452e-08
2.89216e-09
1.39975e-08
2.54774e-09
1.18819e-08
2.11555e-09
1.02217e-08
1.66016e-09
8.98982e-09
1.23192e-09
8.11065e-09
8.79166e-10
7.49165e-09
6.18998e-10
7.05001e-09
4.41648e-10
6.72245e-09
3.2756e-10
6.46478e-09
2.5767e-10
6.24724e-09
2.17533e-10
6.05199e-09
1.9525e-10
5.86999e-09
1.82003e-10
5.69756e-09
1.72429e-10
5.53372e-09
1.63839e-10
5.3785e-09
1.55228e-10
5.23208e-09
1.46416e-10
5.09448e-09
1.37599e-10
4.96546e-09
1.29018e-10
4.84456e-09
1.209e-10
4.7312e-09
1.13361e-10
4.62473e-09
1.06475e-10
4.52451e-09
1.00217e-10
4.42994e-09
9.45685e-11
4.34049e-09
8.94476e-11
4.25568e-09
8.48157e-11
4.17509e-09
8.05864e-11
4.09836e-09
7.6733e-11
4.02518e-09
7.3178e-11
3.95526e-09
6.99137e-11
3.88839e-09
6.68717e-11
3.82433e-09
6.40615e-11
3.76291e-09
6.14199e-11
3.70394e-09
5.89706e-11
3.64729e-09
5.66517e-11
3.59279e-09
5.44986e-11
3.54034e-09
5.2447e-11
3.4898e-09
5.05433e-11
3.44108e-09
4.87175e-11
3.39406e-09
4.7027e-11
3.34866e-09
4.53944e-11
3.30477e-09
4.38882e-11
3.26235e-09
4.24217e-11
3.22128e-09
4.1076e-11
3.18152e-09
3.97529e-11
3.14297e-09
3.85478e-11
3.10563e-09
3.73488e-11
3.06936e-09
3.62676e-11
3.03418e-09
3.51762e-11
2.99998e-09
3.42049e-11
2.96677e-09
3.32069e-11
2.93444e-09
3.23338e-11
2.90302e-09
3.14169e-11
2.87239e-09
3.06324e-11
2.8426e-09
2.97857e-11
2.81352e-09
2.90818e-11
2.78522e-09
2.82958e-11
2.75756e-09
2.76661e-11
2.73063e-09
2.69319e-11
2.70426e-09
2.63711e-11
2.67857e-09
2.5681e-11
2.65339e-09
2.5185e-11
2.62886e-09
2.45313e-11
2.60476e-09
2.40975e-11
2.58129e-09
2.34733e-11
2.55819e-09
2.30998e-11
2.53569e-09
2.24981e-11
2.5135e-09
2.21845e-11
2.49191e-09
2.1598e-11
2.47056e-09
2.13448e-11
2.4498e-09
2.07666e-11
2.42922e-09
2.05761e-11
2.40922e-09
1.99984e-11
2.38935e-09
1.98738e-11
2.37006e-09
1.92883e-11
2.35082e-09
1.92351e-11
2.33219e-09
1.86325e-11
2.31353e-09
1.86582e-11
2.29551e-09
1.80274e-11
2.27736e-09
1.81422e-11
2.25989e-09
1.74707e-11
2.2422e-09
1.76883e-11
2.22524e-09
1.69605e-11
2.20794e-09
1.7299e-11
2.19145e-09
1.64957e-11
2.17447e-09
1.69799e-11
2.15839e-09
1.60765e-11
2.14165e-09
1.67397e-11
2.12595e-09
1.57041e-11
2.10936e-09
1.65937e-11
2.09397e-09
1.53817e-11
2.0774e-09
1.65696e-11
2.06229e-09
1.51156e-11
2.04554e-09
1.67467e-11
2.03054e-09
1.50024e-11
1.94125e-11
3.47395e-08
2.41326e-09
-3.44411e-08
3.46014e-08
3.55433e-09
3.39401e-08
4.07753e-09
3.29871e-08
4.12339e-09
3.1863e-08
4.01633e-09
3.05984e-08
3.81228e-09
2.92203e-08
3.49367e-09
2.77982e-08
3.08226e-09
2.64029e-08
2.62729e-09
2.5087e-08
2.19506e-09
2.38757e-08
1.83026e-09
2.27734e-08
1.54394e-09
2.17757e-08
1.32525e-09
2.08785e-08
1.15488e-09
2.00718e-08
1.02425e-09
1.93442e-08
9.22831e-10
1.86848e-08
8.41364e-10
1.8084e-08
7.73271e-10
1.75335e-08
7.14363e-10
1.70265e-08
6.62217e-10
1.65575e-08
6.15412e-10
1.61219e-08
5.73175e-10
1.5716e-08
5.34972e-10
1.53364e-08
5.00461e-10
1.49805e-08
4.69286e-10
1.46458e-08
4.41172e-10
1.43302e-08
4.15763e-10
1.4032e-08
3.92796e-10
1.37495e-08
3.71933e-10
1.34814e-08
3.52963e-10
1.32264e-08
3.35597e-10
1.29834e-08
3.19692e-10
1.27516e-08
3.05011e-10
1.253e-08
2.91472e-10
1.2318e-08
2.78878e-10
1.21149e-08
2.67198e-10
1.192e-08
2.56261e-10
1.17329e-08
2.46076e-10
1.15531e-08
2.36486e-10
1.13801e-08
2.27533e-10
1.12134e-08
2.1906e-10
1.10529e-08
2.11139e-10
1.0898e-08
2.03608e-10
1.07484e-08
1.96565e-10
1.0604e-08
1.89838e-10
1.04643e-08
1.83549e-10
1.03292e-08
1.77511e-10
1.01984e-08
1.71875e-10
1.00718e-08
1.66433e-10
9.94893e-09
1.61366e-10
9.82984e-09
1.56441e-10
9.71424e-09
1.51872e-10
9.60201e-09
1.47399e-10
9.49295e-09
1.4327e-10
9.38696e-09
1.39191e-10
9.28385e-09
1.35452e-10
9.18354e-09
1.31719e-10
9.08585e-09
1.28329e-10
8.99073e-09
1.24901e-10
8.89799e-09
1.21824e-10
8.80762e-09
1.18664e-10
8.71942e-09
1.15871e-10
8.6334e-09
1.12947e-10
8.54936e-09
1.10414e-10
8.46734e-09
1.07697e-10
8.38713e-09
1.05402e-10
8.30879e-09
1.02866e-10
8.2321e-09
1.00793e-10
8.15716e-09
9.8415e-11
8.08371e-09
9.65497e-11
8.0119e-09
9.43085e-11
7.94144e-09
9.26413e-11
7.87252e-09
9.05155e-11
7.80483e-09
8.90394e-11
7.73858e-09
8.70095e-11
7.67344e-09
8.57215e-11
7.60967e-09
8.37683e-11
7.54687e-09
8.26681e-11
7.48539e-09
8.07722e-11
7.42476e-09
7.9864e-11
7.36539e-09
7.80057e-11
7.30675e-09
7.72982e-11
7.24932e-09
7.54559e-11
7.1925e-09
7.4963e-11
7.13686e-09
7.31139e-11
7.08169e-09
7.28563e-11
7.02767e-09
7.09747e-11
6.97399e-09
7.09807e-11
6.92145e-09
6.90373e-11
6.86908e-09
6.93465e-11
6.81785e-09
6.73074e-11
6.76662e-09
6.79727e-11
6.71652e-09
6.57993e-11
6.66622e-09
6.68937e-11
6.61706e-09
6.45419e-11
6.56746e-09
6.61701e-11
6.51898e-09
6.35954e-11
6.46972e-09
6.60148e-11
6.42131e-09
6.34097e-11
7.04171e-11
3.62806e-08
2.27658e-09
-3.61439e-08
3.66771e-08
3.15777e-09
3.69256e-08
3.82904e-09
3.69844e-08
4.06464e-09
3.69219e-08
4.0788e-09
3.67422e-08
3.99198e-09
3.64195e-08
3.81633e-09
3.59557e-08
3.54608e-09
3.53771e-08
3.20585e-09
3.47234e-08
2.84876e-09
3.40298e-08
2.52386e-09
3.33196e-08
2.2542e-09
3.26068e-08
2.03807e-09
3.18986e-08
1.86308e-09
3.12021e-08
1.72075e-09
3.05216e-08
1.60328e-09
2.98595e-08
1.50348e-09
2.92169e-08
1.4159e-09
2.85944e-08
1.33685e-09
2.79924e-08
1.26418e-09
2.74112e-08
1.19665e-09
2.68507e-08
1.13365e-09
2.63109e-08
1.07478e-09
2.57915e-08
1.01985e-09
2.52922e-08
9.68658e-10
2.48123e-08
9.21059e-10
2.43512e-08
8.76786e-10
2.39084e-08
8.35667e-10
2.34829e-08
7.97397e-10
2.30741e-08
7.61811e-10
2.26811e-08
7.28612e-10
2.23031e-08
6.97666e-10
2.19394e-08
6.68702e-10
2.15892e-08
6.4163e-10
2.12519e-08
6.162e-10
2.09267e-08
5.92369e-10
2.06131e-08
5.69906e-10
2.03104e-08
5.48807e-10
2.0018e-08
5.28852e-10
1.97354e-08
5.10076e-10
1.94622e-08
4.92261e-10
1.91979e-08
4.75476e-10
1.8942e-08
4.59502e-10
1.86941e-08
4.44436e-10
1.84539e-08
4.30055e-10
1.8221e-08
4.16485e-10
1.7995e-08
4.0349e-10
1.77757e-08
3.91228e-10
1.75626e-08
3.79445e-10
1.73557e-08
3.68333e-10
1.71545e-08
3.57615e-10
1.69589e-08
3.47518e-10
1.67685e-08
3.3774e-10
1.65832e-08
3.28546e-10
1.64028e-08
3.19601e-10
1.62271e-08
3.1121e-10
1.60558e-08
3.03006e-10
1.58888e-08
2.95337e-10
1.57259e-08
2.87792e-10
1.55669e-08
2.80772e-10
1.54118e-08
2.73816e-10
1.52603e-08
2.67384e-10
1.51123e-08
2.60956e-10
1.49676e-08
2.55057e-10
1.48262e-08
2.49102e-10
1.46879e-08
2.43689e-10
1.45526e-08
2.38159e-10
1.44202e-08
2.33194e-10
1.42906e-08
2.28045e-10
1.41637e-08
2.23493e-10
1.40393e-08
2.18686e-10
1.39174e-08
2.14518e-10
1.37979e-08
2.10019e-10
1.36807e-08
2.06211e-10
1.35658e-08
2.01987e-10
1.3453e-08
1.98522e-10
1.33422e-08
1.94544e-10
1.32334e-08
1.91408e-10
1.31266e-08
1.87649e-10
1.30216e-08
1.84832e-10
1.29183e-08
1.81269e-10
1.28169e-08
1.78769e-10
1.27169e-08
1.75377e-10
1.26187e-08
1.73197e-10
1.25219e-08
1.69956e-10
1.24266e-08
1.68105e-10
1.23326e-08
1.64996e-10
1.22401e-08
1.63492e-10
1.21486e-08
1.60498e-10
1.20586e-08
1.59369e-10
1.19694e-08
1.56478e-10
1.18816e-08
1.55763e-10
1.17945e-08
1.52968e-10
1.17086e-08
1.52729e-10
1.16231e-08
1.50033e-10
1.15389e-08
1.5038e-10
1.14548e-08
1.47779e-10
1.13716e-08
1.49172e-10
1.12881e-08
1.46928e-10
1.53568e-10
3.78358e-08
2.22114e-09
-3.77804e-08
3.8131e-08
2.86258e-09
3.84918e-08
3.46831e-09
3.87711e-08
3.78527e-09
3.89847e-08
3.86524e-09
3.91513e-08
3.82531e-09
3.92527e-08
3.71502e-09
3.92651e-08
3.53368e-09
3.91806e-08
3.29027e-09
3.9012e-08
3.01744e-09
3.87806e-08
2.75525e-09
3.85058e-08
2.52892e-09
3.81998e-08
2.34417e-09
3.78682e-08
2.19459e-09
3.75171e-08
2.07194e-09
3.71508e-08
1.9695e-09
3.67727e-08
1.88162e-09
3.63847e-08
1.80387e-09
3.59886e-08
1.73301e-09
3.55857e-08
1.66703e-09
3.51777e-08
1.60471e-09
3.47658e-08
1.54545e-09
3.43517e-08
1.48889e-09
3.39367e-08
1.43491e-09
3.35219e-08
1.38339e-09
3.31087e-08
1.33432e-09
3.26979e-08
1.28753e-09
3.22906e-08
1.24299e-09
3.18875e-08
1.20052e-09
3.14892e-08
1.16007e-09
3.10964e-08
1.12144e-09
3.07095e-08
1.08461e-09
3.03288e-08
1.04938e-09
2.99547e-08
1.01575e-09
2.95873e-08
9.83536e-10
2.92269e-08
9.52753e-10
2.88736e-08
9.23233e-10
2.85274e-08
8.95007e-10
2.81884e-08
8.6791e-10
2.78564e-08
8.41993e-10
2.75316e-08
8.17092e-10
2.72138e-08
7.93271e-10
2.6903e-08
7.70366e-10
2.65989e-08
7.48455e-10
2.63016e-08
7.27367e-10
2.60109e-08
7.07196e-10
2.57266e-08
6.87765e-10
2.54487e-08
6.6918e-10
2.51769e-08
6.51258e-10
2.49111e-08
6.34121e-10
2.46511e-08
6.17575e-10
2.43969e-08
6.01756e-10
2.41482e-08
5.86465e-10
2.39049e-08
5.7185e-10
2.36668e-08
5.57704e-10
2.34338e-08
5.44187e-10
2.32057e-08
5.31086e-10
2.29825e-08
5.18574e-10
2.27638e-08
5.06429e-10
2.25498e-08
4.94834e-10
2.234e-08
4.83564e-10
2.21346e-08
4.7281e-10
2.19332e-08
4.62341e-10
2.17359e-08
4.52358e-10
2.15424e-08
4.42625e-10
2.13527e-08
4.33349e-10
2.11666e-08
4.24293e-10
2.09841e-08
4.15668e-10
2.08049e-08
4.07236e-10
2.06292e-08
3.9921e-10
2.04565e-08
3.91356e-10
2.02872e-08
3.83884e-10
2.01206e-08
3.76566e-10
1.99572e-08
3.69605e-10
1.97964e-08
3.62788e-10
1.96386e-08
3.56304e-10
1.94832e-08
3.49957e-10
1.93307e-08
3.43917e-10
1.91803e-08
3.38016e-10
1.90328e-08
3.32391e-10
1.88871e-08
3.26917e-10
1.87442e-08
3.21686e-10
1.8603e-08
3.16624e-10
1.84644e-08
3.11769e-10
1.83272e-08
3.07112e-10
1.81927e-08
3.02622e-10
1.80594e-08
2.98371e-10
1.79286e-08
2.94239e-10
1.77987e-08
2.90406e-10
1.76714e-08
2.86637e-10
1.75447e-08
2.8324e-10
1.74206e-08
2.79858e-10
1.72966e-08
2.76926e-10
1.71754e-08
2.73992e-10
1.70538e-08
2.71547e-10
1.6935e-08
2.69236e-10
1.68155e-08
2.67255e-10
1.66984e-08
2.66287e-10
1.65803e-08
2.65023e-10
2.69061e-10
3.94306e-08
2.16273e-09
-3.93722e-08
3.96357e-08
2.65748e-09
3.99526e-08
3.15138e-09
4.02527e-08
3.48519e-09
4.05038e-08
3.61417e-09
4.07229e-08
3.60624e-09
4.09131e-08
3.52476e-09
4.10582e-08
3.38855e-09
4.11435e-08
3.20503e-09
4.1168e-08
2.9929e-09
4.11436e-08
2.77968e-09
4.10842e-08
2.58827e-09
4.09993e-08
2.42904e-09
4.08937e-08
2.3002e-09
4.07706e-08
2.19511e-09
4.06324e-08
2.10768e-09
4.04809e-08
2.03313e-09
4.03169e-08
1.96784e-09
4.01409e-08
1.909e-09
3.99532e-08
1.85472e-09
3.97542e-08
1.80374e-09
3.95443e-08
1.75536e-09
3.93241e-08
1.70909e-09
3.90942e-08
1.66475e-09
3.88555e-08
1.62215e-09
3.86086e-08
1.58121e-09
3.83543e-08
1.5418e-09
3.80934e-08
1.50386e-09
3.78267e-08
1.46725e-09
3.75549e-08
1.43191e-09
3.72786e-08
1.39771e-09
3.69986e-08
1.36461e-09
3.67155e-08
1.3325e-09
3.64299e-08
1.30136e-09
3.61423e-08
1.27109e-09
3.58534e-08
1.24168e-09
3.55636e-08
1.21306e-09
3.52733e-08
1.18523e-09
3.49831e-08
1.15813e-09
3.46933e-08
1.13177e-09
3.44043e-08
1.1061e-09
3.41165e-08
1.08113e-09
3.383e-08
1.05682e-09
3.35453e-08
1.03316e-09
3.32625e-08
1.01016e-09
3.2982e-08
9.87764e-10
3.27037e-08
9.66006e-10
3.24281e-08
9.44825e-10
3.21551e-08
9.24265e-10
3.18849e-08
9.04243e-10
3.16177e-08
8.84832e-10
3.13535e-08
8.65918e-10
3.10924e-08
8.47607e-10
3.08345e-08
8.29747e-10
3.05797e-08
8.12489e-10
3.03283e-08
7.9563e-10
3.008e-08
7.79378e-10
2.98351e-08
7.63467e-10
2.95933e-08
7.48173e-10
2.9355e-08
7.33157e-10
2.91198e-08
7.18777e-10
2.8888e-08
7.04604e-10
2.86592e-08
6.91093e-10
2.84339e-08
6.77711e-10
2.82115e-08
6.65029e-10
2.79924e-08
6.52387e-10
2.77762e-08
6.40496e-10
2.75634e-08
6.28543e-10
2.73532e-08
6.17409e-10
2.71463e-08
6.06097e-10
2.6942e-08
5.95689e-10
2.67409e-08
5.84971e-10
2.65422e-08
5.75263e-10
2.63467e-08
5.65093e-10
2.61534e-08
5.56065e-10
2.59633e-08
5.464e-10
2.57753e-08
5.38037e-10
2.55903e-08
5.28833e-10
2.54072e-08
5.21128e-10
2.52273e-08
5.12345e-10
2.50489e-08
5.05296e-10
2.48737e-08
4.96897e-10
2.46998e-08
4.90513e-10
2.45291e-08
4.82461e-10
2.43595e-08
4.76759e-10
2.4193e-08
4.69026e-10
2.40274e-08
4.64034e-10
2.3865e-08
4.56598e-10
2.37031e-08
4.52353e-10
2.35445e-08
4.45209e-10
2.3386e-08
4.41757e-10
2.32309e-08
4.34932e-10
2.30755e-08
4.32316e-10
2.29236e-08
4.25907e-10
2.2771e-08
4.24141e-10
2.26218e-08
4.18419e-10
2.24716e-08
4.17472e-10
2.23246e-08
4.13305e-10
2.21761e-08
4.13476e-10
4.13498e-10
4.10519e-08
2.0921e-09
-4.09813e-08
4.12122e-08
2.49717e-09
4.14704e-08
2.8932e-09
4.17482e-08
3.20739e-09
4.19956e-08
3.36681e-09
4.221e-08
3.39185e-09
4.24003e-08
3.3344e-09
4.2562e-08
3.22693e-09
4.26843e-08
3.08269e-09
4.27634e-08
2.91386e-09
4.28049e-08
2.73815e-09
4.28193e-08
2.57386e-09
4.28155e-08
2.43284e-09
4.27986e-08
2.31709e-09
4.27713e-08
2.22243e-09
4.27352e-08
2.14373e-09
4.26916e-08
2.07682e-09
4.26407e-08
2.01865e-09
4.25829e-08
1.96689e-09
4.25177e-08
1.91987e-09
4.2445e-08
1.87641e-09
4.23647e-08
1.83573e-09
4.22764e-08
1.79732e-09
4.21804e-08
1.76085e-09
4.20764e-08
1.7261e-09
4.19647e-08
1.6929e-09
4.18454e-08
1.6611e-09
4.17187e-08
1.63055e-09
4.15848e-08
1.60116e-09
4.14439e-08
1.57277e-09
4.12963e-08
1.54532e-09
4.11423e-08
1.51865e-09
4.09821e-08
1.49274e-09
4.0816e-08
1.46745e-09
4.06443e-08
1.4428e-09
4.04673e-08
1.41863e-09
4.02854e-08
1.39502e-09
4.00988e-08
1.37179e-09
3.99078e-08
1.34908e-09
3.97129e-08
1.32668e-09
3.95143e-08
1.30477e-09
3.93123e-08
1.28313e-09
3.91071e-08
1.26197e-09
3.88993e-08
1.24103e-09
3.86888e-08
1.22059e-09
3.84763e-08
1.20032e-09
3.82617e-08
1.18059e-09
3.80455e-08
1.16098e-09
3.78278e-08
1.14194e-09
3.76091e-08
1.12298e-09
3.73893e-08
1.10464e-09
3.71689e-08
1.08632e-09
3.69478e-08
1.06867e-09
3.67266e-08
1.05097e-09
3.65051e-08
1.03402e-09
3.62838e-08
1.01695e-09
3.60625e-08
1.00069e-09
3.58417e-08
9.84225e-10
3.56212e-08
9.68668e-10
3.54016e-08
9.52795e-10
3.51824e-08
9.37939e-10
3.49644e-08
9.22641e-10
3.4747e-08
9.08485e-10
3.45309e-08
8.93742e-10
3.43157e-08
8.80288e-10
3.4102e-08
8.66075e-10
3.38892e-08
8.53323e-10
3.36781e-08
8.39614e-10
3.34679e-08
8.27567e-10
3.32597e-08
8.1433e-10
3.30524e-08
8.02994e-10
3.28472e-08
7.90198e-10
3.26429e-08
7.79578e-10
3.24408e-08
7.67187e-10
3.22395e-08
7.57295e-10
3.20407e-08
7.45274e-10
3.18426e-08
7.36126e-10
3.1647e-08
7.24435e-10
3.1452e-08
7.16055e-10
3.12597e-08
7.04654e-10
3.1068e-08
6.97069e-10
3.08789e-08
6.85922e-10
3.06903e-08
6.79169e-10
3.05045e-08
6.68239e-10
3.03189e-08
6.62365e-10
3.01363e-08
6.51622e-10
2.99537e-08
6.4668e-10
2.97741e-08
6.36108e-10
2.95943e-08
6.32156e-10
2.94178e-08
6.21767e-10
2.92407e-08
6.18863e-10
2.90669e-08
6.08713e-10
2.88923e-08
6.06906e-10
2.87211e-08
5.97144e-10
2.85488e-08
5.96451e-10
2.83797e-08
5.87423e-10
2.82094e-08
5.87862e-10
2.80422e-08
5.80442e-10
2.78733e-08
5.82353e-10
5.78168e-10
4.27094e-08
2.01503e-09
-4.26324e-08
4.28474e-08
2.35916e-09
4.30571e-08
2.6835e-09
4.33023e-08
2.96224e-09
4.35361e-08
3.13301e-09
4.37411e-08
3.1868e-09
4.39202e-08
3.1553e-09
4.40747e-08
3.07248e-09
4.41997e-08
2.95768e-09
4.42915e-08
2.82205e-09
4.43523e-08
2.67736e-09
4.43892e-08
2.53696e-09
4.44103e-08
2.41174e-09
4.44212e-08
2.30613e-09
4.44251e-08
2.21856e-09
4.44236e-08
2.14523e-09
4.44178e-08
2.08262e-09
4.44084e-08
2.02804e-09
4.43957e-08
1.97962e-09
4.43796e-08
1.93592e-09
4.43601e-08
1.89598e-09
4.43368e-08
1.85901e-09
4.43095e-08
1.82457e-09
4.42782e-08
1.79221e-09
4.42425e-08
1.76177e-09
4.42025e-08
1.73293e-09
4.41579e-08
1.70566e-09
4.41088e-08
1.67964e-09
4.40551e-08
1.65491e-09
4.39967e-08
1.63115e-09
4.39336e-08
1.60846e-09
4.38657e-08
1.58648e-09
4.37931e-08
1.56538e-09
4.37157e-08
1.54479e-09
4.36336e-08
1.52494e-09
4.35468e-08
1.50543e-09
4.34552e-08
1.48657e-09
4.33591e-08
1.4679e-09
4.32584e-08
1.44982e-09
4.31533e-08
1.43183e-09
4.30436e-08
1.41441e-09
4.29298e-08
1.39696e-09
4.28117e-08
1.3801e-09
4.26896e-08
1.36312e-09
4.25634e-08
1.34675e-09
4.24335e-08
1.33018e-09
4.22999e-08
1.31426e-09
4.21628e-08
1.29805e-09
4.20222e-08
1.28257e-09
4.18785e-08
1.26669e-09
4.17315e-08
1.25162e-09
4.15818e-08
1.23605e-09
4.1429e-08
1.2214e-09
4.12739e-08
1.20613e-09
4.1116e-08
1.1919e-09
4.0956e-08
1.17692e-09
4.07936e-08
1.16312e-09
4.06294e-08
1.14841e-09
4.0463e-08
1.13506e-09
4.02952e-08
1.12061e-09
4.01254e-08
1.10773e-09
3.99545e-08
1.09354e-09
3.97819e-08
1.08113e-09
3.96084e-08
1.06719e-09
3.94334e-08
1.05529e-09
3.92579e-08
1.04158e-09
3.9081e-08
1.03021e-09
3.89039e-08
1.01672e-09
3.87256e-08
1.00591e-09
3.85473e-08
9.92615e-10
3.83679e-08
9.82398e-10
3.81888e-08
9.69277e-10
3.80087e-08
9.59682e-10
3.78292e-08
9.46713e-10
3.76487e-08
9.3778e-10
3.7469e-08
9.24936e-10
3.72884e-08
9.16709e-10
3.71089e-08
9.03961e-10
3.69285e-08
8.96487e-10
3.67493e-08
8.83809e-10
3.65692e-08
8.77141e-10
3.63907e-08
8.64505e-10
3.62111e-08
8.58703e-10
3.60333e-08
8.46089e-10
3.58544e-08
8.41219e-10
3.56774e-08
8.28616e-10
3.54994e-08
8.24747e-10
3.53233e-08
8.12164e-10
3.51461e-08
8.09365e-10
3.4971e-08
7.96846e-10
3.47947e-08
7.95181e-10
3.46206e-08
7.82827e-10
3.44451e-08
7.82348e-10
3.42719e-08
7.70361e-10
3.40973e-08
7.71109e-10
3.39248e-08
7.59879e-10
3.37507e-08
7.61954e-10
3.35789e-08
7.52271e-10
3.34053e-08
7.55992e-10
7.4878e-10
4.44097e-08
1.93716e-09
-4.43318e-08
4.45338e-08
2.23505e-09
4.4709e-08
2.50831e-09
4.49214e-08
2.74986e-09
4.51363e-08
2.91811e-09
4.53312e-08
2.99192e-09
4.55007e-08
2.98582e-09
4.56463e-08
2.92685e-09
4.57674e-08
2.83656e-09
4.58619e-08
2.72756e-09
4.59302e-08
2.60912e-09
4.59764e-08
2.49066e-09
4.60072e-08
2.38103e-09
4.60279e-08
2.28537e-09
4.60421e-08
2.20438e-09
4.60517e-08
2.13567e-09
4.60577e-08
2.07654e-09
4.60612e-08
2.02456e-09
4.60626e-08
1.97826e-09
4.60621e-08
1.93635e-09
4.60599e-08
1.89819e-09
4.6056e-08
1.86296e-09
4.60501e-08
1.8304e-09
4.60424e-08
1.79992e-09
4.60327e-08
1.7715e-09
4.6021e-08
1.74466e-09
4.60071e-08
1.71953e-09
4.59911e-08
1.69561e-09
4.59729e-08
1.67315e-09
4.59524e-08
1.65163e-09
4.59295e-08
1.63135e-09
4.59043e-08
1.61174e-09
4.58764e-08
1.59323e-09
4.58461e-08
1.57515e-09
4.5813e-08
1.55805e-09
4.57772e-08
1.54119e-09
4.57385e-08
1.52523e-09
4.56971e-08
1.50933e-09
4.56526e-08
1.49429e-09
4.56053e-08
1.47916e-09
4.55548e-08
1.46489e-09
4.55014e-08
1.45038e-09
4.54448e-08
1.43675e-09
4.53851e-08
1.42275e-09
4.53222e-08
1.40967e-09
4.52563e-08
1.39608e-09
4.51871e-08
1.38349e-09
4.51149e-08
1.37024e-09
4.50393e-08
1.35809e-09
4.49609e-08
1.34512e-09
4.48792e-08
1.33338e-09
4.47946e-08
1.32064e-09
4.47067e-08
1.30927e-09
4.46161e-08
1.29672e-09
4.45223e-08
1.28572e-09
4.44259e-08
1.27333e-09
4.43263e-08
1.26269e-09
4.42243e-08
1.25043e-09
4.41192e-08
1.24016e-09
4.40118e-08
1.228e-09
4.39014e-08
1.21809e-09
4.3789e-08
1.20601e-09
4.36736e-08
1.19649e-09
4.35563e-08
1.18447e-09
4.34363e-08
1.17535e-09
4.33145e-08
1.16336e-09
4.319e-08
1.15467e-09
4.30641e-08
1.14268e-09
4.29355e-08
1.13446e-09
4.28057e-08
1.12246e-09
4.26734e-08
1.11473e-09
4.25399e-08
1.10268e-09
4.24041e-08
1.09548e-09
4.22675e-08
1.08338e-09
4.21285e-08
1.07675e-09
4.19889e-08
1.06456e-09
4.1847e-08
1.05856e-09
4.17047e-08
1.04626e-09
4.15603e-08
1.04094e-09
4.14156e-08
1.02852e-09
4.12688e-08
1.02394e-09
4.11219e-08
1.01138e-09
4.0973e-08
1.00759e-09
4.08242e-08
9.94894e-10
4.06734e-08
9.91971e-10
4.05229e-08
9.79154e-10
4.03705e-08
9.77162e-10
4.02184e-08
9.64265e-10
4.00645e-08
9.6327e-10
3.9911e-08
9.50374e-10
3.97557e-08
9.50434e-10
3.96008e-08
9.37681e-10
3.94443e-08
9.38855e-10
3.92882e-08
9.26485e-10
3.91305e-08
9.28845e-10
3.89731e-08
9.17269e-10
3.88141e-08
9.20988e-10
3.86554e-08
9.10886e-10
3.84952e-08
9.16211e-10
9.08127e-10
4.6157e-08
1.86132e-09
-4.60812e-08
4.62702e-08
2.12192e-09
4.64217e-08
2.35681e-09
4.66053e-08
2.56618e-09
4.67993e-08
2.72417e-09
4.6982e-08
2.80915e-09
4.71432e-08
2.82462e-09
4.72817e-08
2.78837e-09
4.73983e-08
2.71999e-09
4.74927e-08
2.63318e-09
4.75649e-08
2.53691e-09
4.76173e-08
2.43824e-09
4.76543e-08
2.34398e-09
4.76809e-08
2.25884e-09
4.77004e-08
2.18488e-09
4.7715e-08
2.12104e-09
4.7726e-08
2.06555e-09
4.77343e-08
2.01628e-09
4.77404e-08
1.97211e-09
4.77449e-08
1.93183e-09
4.7748e-08
1.89511e-09
4.77499e-08
1.8611e-09
4.77505e-08
1.82978e-09
4.775e-08
1.80041e-09
4.77483e-08
1.77316e-09
4.77457e-08
1.74735e-09
4.77419e-08
1.72332e-09
4.77371e-08
1.70038e-09
4.77312e-08
1.67901e-09
4.77244e-08
1.65844e-09
4.77165e-08
1.63928e-09
4.77076e-08
1.62066e-09
4.76975e-08
1.60332e-09
4.76863e-08
1.58629e-09
4.76739e-08
1.57047e-09
4.76604e-08
1.55474e-09
4.76454e-08
1.54016e-09
4.76293e-08
1.5255e-09
4.76116e-08
1.51197e-09
4.75926e-08
1.49818e-09
4.75719e-08
1.48556e-09
4.75498e-08
1.47249e-09
4.75259e-08
1.46065e-09
4.75005e-08
1.44818e-09
4.74731e-08
1.43703e-09
4.74441e-08
1.42507e-09
4.74131e-08
1.41453e-09
4.73803e-08
1.403e-09
4.73454e-08
1.39301e-09
4.73087e-08
1.38184e-09
4.72697e-08
1.37236e-09
4.72289e-08
1.36148e-09
4.71857e-08
1.35248e-09
4.71405e-08
1.34183e-09
4.7093e-08
1.33328e-09
4.70435e-08
1.32282e-09
4.69915e-08
1.31471e-09
4.69375e-08
1.30438e-09
4.6881e-08
1.29669e-09
4.68225e-08
1.28646e-09
4.67614e-08
1.27919e-09
4.66984e-08
1.26902e-09
4.66327e-08
1.26217e-09
4.65652e-08
1.25202e-09
4.6495e-08
1.24559e-09
4.64229e-08
1.23543e-09
4.63481e-08
1.22944e-09
4.62716e-08
1.21923e-09
4.61923e-08
1.21369e-09
4.61114e-08
1.2034e-09
4.60278e-08
1.19833e-09
4.59425e-08
1.18793e-09
4.58547e-08
1.18337e-09
4.57652e-08
1.17283e-09
4.56732e-08
1.1688e-09
4.55796e-08
1.1581e-09
4.54836e-08
1.15463e-09
4.53861e-08
1.14376e-09
4.52861e-08
1.14091e-09
4.51848e-08
1.12985e-09
4.50811e-08
1.12764e-09
4.49761e-08
1.11639e-09
4.48688e-08
1.11488e-09
4.47602e-08
1.10347e-09
4.46495e-08
1.1027e-09
4.45375e-08
1.09116e-09
4.44234e-08
1.09119e-09
4.43081e-08
1.07958e-09
4.41909e-08
1.08046e-09
4.40724e-08
1.06889e-09
4.39522e-08
1.07066e-09
4.38305e-08
1.05932e-09
4.37073e-08
1.06204e-09
4.35827e-08
1.05117e-09
4.34566e-08
1.05495e-09
4.33289e-08
1.04496e-09
4.31999e-08
1.05001e-09
4.30693e-08
1.04147e-09
4.29375e-08
1.04797e-09
1.04127e-09
4.7955e-08
1.78823e-09
-4.78819e-08
4.80588e-08
2.01815e-09
4.8193e-08
2.22267e-09
4.83533e-08
2.40584e-09
4.85266e-08
2.55082e-09
4.86956e-08
2.64019e-09
4.88483e-08
2.67189e-09
4.89808e-08
2.65588e-09
4.90933e-08
2.60752e-09
4.91865e-08
2.53994e-09
4.92609e-08
2.46252e-09
4.93178e-08
2.38132e-09
4.93601e-08
2.3017e-09
4.93915e-08
2.22745e-09
4.94153e-08
2.16112e-09
4.94337e-08
2.10261e-09
4.94481e-08
2.05114e-09
4.94595e-08
2.00491e-09
4.94684e-08
1.96321e-09
4.94754e-08
1.92481e-09
4.94808e-08
1.88971e-09
4.94849e-08
1.85699e-09
4.94878e-08
1.82689e-09
4.94897e-08
1.79852e-09
4.94906e-08
1.77228e-09
4.94906e-08
1.74727e-09
4.94899e-08
1.72409e-09
4.94885e-08
1.70179e-09
4.94864e-08
1.68113e-09
4.94837e-08
1.66108e-09
4.94804e-08
1.64255e-09
4.94767e-08
1.62438e-09
4.94724e-08
1.60764e-09
4.94677e-08
1.59104e-09
4.94623e-08
1.5758e-09
4.94566e-08
1.56049e-09
4.94502e-08
1.54654e-09
4.94434e-08
1.5323e-09
4.94359e-08
1.51945e-09
4.9428e-08
1.50613e-09
4.94193e-08
1.49423e-09
4.94101e-08
1.48169e-09
4.94001e-08
1.47065e-09
4.93895e-08
1.45877e-09
4.9378e-08
1.44851e-09
4.93659e-08
1.4372e-09
4.93528e-08
1.42765e-09
4.93389e-08
1.41684e-09
4.9324e-08
1.40794e-09
4.93083e-08
1.39756e-09
4.92913e-08
1.38928e-09
4.92736e-08
1.37927e-09
4.92545e-08
1.37156e-09
4.92344e-08
1.36187e-09
4.9213e-08
1.35471e-09
4.91905e-08
1.34528e-09
4.91666e-08
1.33866e-09
4.91415e-08
1.32944e-09
4.91149e-08
1.32334e-09
4.9087e-08
1.31429e-09
4.90575e-08
1.30869e-09
4.90268e-08
1.29977e-09
4.89943e-08
1.29467e-09
4.89605e-08
1.28583e-09
4.89249e-08
1.28122e-09
4.88879e-08
1.27244e-09
4.8849e-08
1.26832e-09
4.88087e-08
1.25954e-09
4.87664e-08
1.25592e-09
4.87227e-08
1.24713e-09
4.8677e-08
1.244e-09
4.86298e-08
1.23516e-09
4.85806e-08
1.23255e-09
4.85298e-08
1.22363e-09
4.84771e-08
1.22154e-09
4.84227e-08
1.21252e-09
4.83663e-08
1.21098e-09
4.83082e-08
1.20186e-09
4.82482e-08
1.20088e-09
4.81864e-08
1.19165e-09
4.81228e-08
1.19126e-09
4.80573e-08
1.18193e-09
4.799e-08
1.18215e-09
4.79207e-08
1.17275e-09
4.78498e-08
1.1736e-09
4.77768e-08
1.16419e-09
4.77023e-08
1.16571e-09
4.76255e-08
1.15637e-09
4.75474e-08
1.15858e-09
4.74668e-08
1.14945e-09
4.73851e-08
1.1524e-09
4.73008e-08
1.14364e-09
4.72154e-08
1.14739e-09
4.71273e-08
1.13926e-09
4.70383e-08
1.14394e-09
4.69465e-08
1.13682e-09
4.68538e-08
1.14267e-09
4.67582e-08
1.13703e-09
4.6662e-08
1.14421e-09
1.14038e-09
4.98072e-08
1.71779e-09
-4.97367e-08
4.99029e-08
1.92242e-09
5.00232e-08
2.10231e-09
5.01649e-08
2.26415e-09
5.03196e-08
2.39619e-09
5.04741e-08
2.48569e-09
5.06175e-08
2.52846e-09
5.07442e-08
2.52917e-09
5.0853e-08
2.49867e-09
5.09448e-08
2.4482e-09
5.10202e-08
2.38714e-09
5.10802e-08
2.32126e-09
5.11268e-08
2.25517e-09
5.11625e-08
2.19174e-09
5.11901e-08
2.13348e-09
5.1212e-08
2.08077e-09
5.12294e-08
2.03368e-09
5.12435e-08
1.99083e-09
5.12548e-08
1.9519e-09
5.12639e-08
1.91572e-09
5.12711e-08
1.88249e-09
5.12768e-08
1.85129e-09
5.12812e-08
1.82256e-09
5.12844e-08
1.79531e-09
5.12865e-08
1.77013e-09
5.12878e-08
1.74598e-09
5.12883e-08
1.72362e-09
5.12881e-08
1.70196e-09
5.12873e-08
1.68195e-09
5.1286e-08
1.66237e-09
5.12842e-08
1.64434e-09
5.12821e-08
1.62653e-09
5.12795e-08
1.6102e-09
5.12767e-08
1.59386e-09
5.12735e-08
1.57898e-09
5.12701e-08
1.56388e-09
5.12664e-08
1.55025e-09
5.12625e-08
1.53619e-09
5.12583e-08
1.52364e-09
5.1254e-08
1.51048e-09
5.12493e-08
1.49889e-09
5.12445e-08
1.4865e-09
5.12394e-08
1.47578e-09
5.12341e-08
1.46407e-09
5.12284e-08
1.45415e-09
5.12226e-08
1.44304e-09
5.12164e-08
1.43387e-09
5.12099e-08
1.42329e-09
5.12031e-08
1.41481e-09
5.11959e-08
1.4047e-09
5.11883e-08
1.39688e-09
5.11804e-08
1.3872e-09
5.1172e-08
1.38001e-09
5.11631e-08
1.3707e-09
5.11537e-08
1.36412e-09
5.11439e-08
1.35514e-09
5.11334e-08
1.34915e-09
5.11223e-08
1.34046e-09
5.11106e-08
1.33505e-09
5.10983e-08
1.32661e-09
5.10853e-08
1.32176e-09
5.10715e-08
1.31353e-09
5.10569e-08
1.30923e-09
5.10416e-08
1.30118e-09
5.10254e-08
1.29742e-09
5.10083e-08
1.28952e-09
5.09903e-08
1.28629e-09
5.09714e-08
1.27851e-09
5.09515e-08
1.27581e-09
5.09305e-08
1.26813e-09
5.09085e-08
1.26595e-09
5.08854e-08
1.25833e-09
5.08612e-08
1.25668e-09
5.08357e-08
1.24911e-09
5.08093e-08
1.24799e-09
5.07813e-08
1.24046e-09
5.07525e-08
1.23987e-09
5.07219e-08
1.23238e-09
5.06905e-08
1.23232e-09
5.06573e-08
1.22488e-09
5.06232e-08
1.22535e-09
5.05871e-08
1.21798e-09
5.05503e-08
1.219e-09
5.05113e-08
1.21174e-09
5.04716e-08
1.21332e-09
5.04295e-08
1.20623e-09
5.03869e-08
1.20838e-09
5.03417e-08
1.20156e-09
5.02959e-08
1.20431e-09
5.02475e-08
1.19788e-09
5.01986e-08
1.20129e-09
5.01468e-08
1.19542e-09
5.00947e-08
1.19954e-09
5.00395e-08
1.19447e-09
4.99839e-08
1.19947e-09
4.99252e-08
1.19554e-09
4.98662e-08
1.20165e-09
4.9804e-08
1.19926e-09
4.97415e-08
1.20668e-09
1.2061e-09
5.17167e-08
1.65001e-09
-5.1649e-08
5.18054e-08
1.8338e-09
5.19142e-08
1.99346e-09
5.20407e-08
2.13763e-09
5.2179e-08
2.25793e-09
5.23194e-08
2.34532e-09
5.24528e-08
2.39501e-09
5.25734e-08
2.40859e-09
5.26787e-08
2.39334e-09
5.27689e-08
2.35808e-09
5.28445e-08
2.31149e-09
5.29066e-08
2.25918e-09
5.29564e-08
2.20542e-09
5.29957e-08
2.15238e-09
5.30268e-08
2.10234e-09
5.30518e-08
2.05577e-09
5.30721e-08
2.01337e-09
5.30888e-08
1.97418e-09
5.31024e-08
1.93829e-09
5.31135e-08
1.9046e-09
5.31225e-08
1.87351e-09
5.31297e-08
1.84407e-09
5.31354e-08
1.81688e-09
5.31398e-08
1.79092e-09
5.3143e-08
1.76691e-09
5.31453e-08
1.74372e-09
5.31466e-08
1.72226e-09
5.31473e-08
1.70132e-09
5.31472e-08
1.68198e-09
5.31467e-08
1.66293e-09
5.31456e-08
1.64542e-09
5.31441e-08
1.62799e-09
5.31423e-08
1.61205e-09
5.31402e-08
1.59599e-09
5.31378e-08
1.5814e-09
5.31351e-08
1.5665e-09
5.31323e-08
1.55309e-09
5.31293e-08
1.53918e-09
5.31261e-08
1.5268e-09
5.31229e-08
1.51375e-09
5.31195e-08
1.50229e-09
5.3116e-08
1.48999e-09
5.31124e-08
1.47938e-09
5.31087e-08
1.46775e-09
5.31049e-08
1.45792e-09
5.31011e-08
1.44689e-09
5.30972e-08
1.43779e-09
5.30931e-08
1.4273e-09
5.3089e-08
1.4189e-09
5.30849e-08
1.4089e-09
5.30806e-08
1.40116e-09
5.30762e-08
1.39161e-09
5.30717e-08
1.38451e-09
5.3067e-08
1.37537e-09
5.30622e-08
1.36888e-09
5.30573e-08
1.36012e-09
5.30522e-08
1.35423e-09
5.30468e-08
1.34582e-09
5.30413e-08
1.34052e-09
5.30355e-08
1.33242e-09
5.30296e-08
1.32769e-09
5.30233e-08
1.31988e-09
5.30168e-08
1.31571e-09
5.30098e-08
1.30816e-09
5.30027e-08
1.30454e-09
5.29949e-08
1.29724e-09
5.29871e-08
1.29415e-09
5.29785e-08
1.28707e-09
5.29698e-08
1.28452e-09
5.29603e-08
1.27764e-09
5.29506e-08
1.27562e-09
5.294e-08
1.26892e-09
5.29293e-08
1.26741e-09
5.29175e-08
1.2609e-09
5.29056e-08
1.2599e-09
5.28925e-08
1.25357e-09
5.28793e-08
1.25308e-09
5.28647e-08
1.24694e-09
5.28501e-08
1.24696e-09
5.28339e-08
1.24103e-09
5.28177e-08
1.24154e-09
5.27999e-08
1.23585e-09
5.2782e-08
1.23688e-09
5.27623e-08
1.23147e-09
5.27426e-08
1.233e-09
5.27209e-08
1.22794e-09
5.26993e-08
1.23001e-09
5.26754e-08
1.22538e-09
5.26517e-08
1.22803e-09
5.26256e-08
1.22396e-09
5.25997e-08
1.22724e-09
5.25712e-08
1.22389e-09
5.25429e-08
1.22789e-09
5.25119e-08
1.22547e-09
5.2481e-08
1.23036e-09
5.24473e-08
1.22917e-09
5.24138e-08
1.23519e-09
5.23775e-08
1.23557e-09
5.23412e-08
1.24298e-09
1.24516e-09
5.36872e-08
1.58529e-09
-5.36225e-08
5.37692e-08
1.75178e-09
5.38682e-08
1.89446e-09
5.39821e-08
2.02371e-09
5.41061e-08
2.13391e-09
5.42332e-08
2.21823e-09
5.43565e-08
2.27176e-09
5.44705e-08
2.29457e-09
5.45722e-08
2.29165e-09
5.46606e-08
2.26966e-09
5.4736e-08
2.23605e-09
5.47993e-08
2.19595e-09
5.48513e-08
2.1534e-09
5.48935e-08
2.11015e-09
5.49277e-08
2.06819e-09
5.49555e-08
2.02794e-09
5.49784e-08
1.99045e-09
5.49975e-08
1.95515e-09
5.50133e-08
1.92249e-09
5.50263e-08
1.89153e-09
5.50371e-08
1.86278e-09
5.50458e-08
1.83533e-09