/*--------------------------------*- C++ -*----------------------------------*\
| =========                 |                                                 |
| \\      /  F ield         | OpenFOAM: The Open Source CFD Toolbox           |
|  \\    /   O peration     | Version:  2.3.0                                 |
|   \\  /    A nd           | Web:      www.OpenFOAM.org                      |
|    \\/     M anipulation  |                                                 |
\*---------------------------------------------------------------------------*/
FoamFile
{
    version     2.0;
    format      ascii;
    class       volScalarField;
    location    "0.2";
    object      p;
}
// * * * * * * * * * * * * * * * * * * * * * * * * * * * * * * * * * * * * * //

dimensions      [0 2 -2 0 0 0 0];

internalField   nonuniform List<scalar> 
1650
(
0.00201015
0.0017108
0.00123716
0.000802235
0.000430957
0.000103287
-0.000194297
-0.000436272
-0.000586491
-0.000645257
-0.000640066
-0.000600249
-0.000547709
-0.000496927
-0.000455991
-0.000427301
-0.000408904
-0.000396847
-0.000387718
-0.000379651
-0.000371785
-0.000363543
-0.000354386
-0.000343871
-0.000331618
-0.000317326
-0.00030085
-0.000282277
-0.000261731
-0.000238989
-0.000214551
-0.000189572
-0.0001648
-0.000141953
-0.00012139
-0.000103351
-8.77363e-05
-7.42651e-05
-6.26296e-05
-5.25678e-05
-4.38733e-05
-3.63863e-05
-2.99783e-05
-2.45459e-05
-1.99932e-05
-1.62249e-05
-1.31369e-05
-1.06258e-05
-8.58757e-06
-6.93296e-06
-5.58101e-06
-4.47194e-06
-3.55332e-06
-2.79015e-06
-2.14963e-06
-1.61104e-06
-1.15297e-06
-7.60983e-07
-4.23885e-07
-1.25896e-07
0.00168201
0.00152624
0.00117439
0.000781415
0.000423861
0.000109794
-0.000171731
-0.000399805
-0.000545924
-0.000609986
-0.000613015
-0.000580128
-0.000532776
-0.000485818
-0.000447767
-0.000421156
-0.00040417
-0.000393046
-0.000384535
-0.000376917
-0.000369418
-0.000361511
-0.00035271
-0.000342544
-0.000330619
-0.000316626
-0.000300413
-0.000282073
-0.000261722
-0.000239378
-0.000214728
-0.000189868
-0.000165042
-0.00014218
-0.000121572
-0.0001035
-8.78599e-05
-7.43678e-05
-6.27142e-05
-5.26368e-05
-4.39293e-05
-3.64311e-05
-3.00133e-05
-2.45729e-05
-2.00138e-05
-1.62409e-05
-1.31497e-05
-1.06365e-05
-8.59682e-06
-6.94115e-06
-5.58823e-06
-4.47827e-06
-3.55882e-06
-2.7948e-06
-2.15358e-06
-1.61421e-06
-1.15565e-06
-7.62862e-07
-4.2556e-07
-1.26758e-07
0.00146307
0.00136765
0.00110883
0.000768105
0.00043126
0.00013151
-0.000129168
-0.000338298
-0.000479746
-0.000553172
-0.000570716
-0.000550583
-0.000512801
-0.00047278
-0.000438764
-0.000414106
-0.000398177
-0.000387747
-0.000379618
-0.000372191
-0.000364905
-0.000357311
-0.000348876
-0.000339095
-0.000327567
-0.000313976
-0.000298162
-0.000280216
-0.000260266
-0.000238275
-0.000214541
-0.000189386
-0.000164675
-0.000142044
-0.000121541
-0.000103531
-8.79238e-05
-7.44449e-05
-6.27944e-05
-5.2714e-05
-4.39984e-05
-3.64889e-05
-3.00585e-05
-2.46061e-05
-2.00371e-05
-1.62571e-05
-1.31613e-05
-1.06458e-05
-8.60486e-06
-6.94858e-06
-5.59521e-06
-4.48478e-06
-3.56483e-06
-2.8002e-06
-2.15844e-06
-1.61839e-06
-1.15931e-06
-7.65668e-07
-4.27494e-07
-1.27472e-07
0.00130191
0.00122729
0.00103319
0.000747415
0.000439828
0.000157987
-8.34985e-05
-0.000275605
-0.00041013
-0.000488453
-0.000518353
-0.00051175
-0.000484913
-0.00045258
-0.000423498
-0.000401609
-0.000387252
-0.000377951
-0.00037066
-0.000363783
-0.000356904
-0.000349677
-0.000341603
-0.00033222
-0.000321146
-0.00030805
-0.000292772
-0.000275419
-0.000256116
-0.000234807
-0.000211714
-0.000187418
-0.000163755
-0.000141224
-0.000121064
-0.000103289
-8.78256e-05
-7.44284e-05
-6.28265e-05
-5.27774e-05
-4.40817e-05
-3.6582e-05
-3.0152e-05
-2.46927e-05
-2.01125e-05
-1.63196e-05
-1.32117e-05
-1.06858e-05
-8.63681e-06
-6.97437e-06
-5.61655e-06
-4.50265e-06
-3.5802e-06
-2.81338e-06
-2.17003e-06
-1.62831e-06
-1.16794e-06
-7.72675e-07
-4.32492e-07
-1.30238e-07
0.00116939
0.00110221
0.000948649
0.000713366
0.000442013
0.000182766
-4.10574e-05
-0.000218627
-0.000345999
-0.000426748
-0.000465714
-0.000470113
-0.000453175
-0.000428664
-0.000404922
-0.000385907
-0.00037305
-0.000364908
-0.000358534
-0.000352217
-0.000345721
-0.000338825
-0.00033103
-0.000321957
-0.000311303
-0.000298733
-0.000284098
-0.000267507
-0.000249046
-0.00022868
-0.000206644
-0.000183567
-0.000160874
-0.000139306
-0.000119804
-0.000102501
-8.73412e-05
-7.41462e-05
-6.26792e-05
-5.27259e-05
-4.41005e-05
-3.665e-05
-3.02504e-05
-2.48048e-05
-2.02252e-05
-1.64238e-05
-1.33025e-05
-1.07615e-05
-8.69857e-06
-7.02394e-06
-5.65659e-06
-4.53506e-06
-3.60716e-06
-2.83585e-06
-2.1894e-06
-1.64477e-06
-1.18213e-06
-7.84378e-07
-4.41061e-07
-1.35449e-07
0.00105392
0.000990016
0.000862363
0.000670064
0.000437934
0.000204103
-2.98302e-06
-0.000168143
-0.000288843
-0.00037006
-0.000415056
-0.000428124
-0.000420129
-0.000403195
-0.000384713
-0.000368658
-0.000357395
-0.000350325
-0.000344706
-0.000338894
-0.000332817
-0.000326261
-0.00031868
-0.000309829
-0.000299541
-0.000287486
-0.000273504
-0.000257708
-0.000240167
-0.000220849
-0.000200008
-0.000178298
-0.000156859
-0.000136428
-0.000117758
-0.000101071
-8.6356e-05
-7.3474e-05
-6.22295e-05
-5.244e-05
-4.39413e-05
-3.65884e-05
-3.0262e-05
-2.48665e-05
-2.03155e-05
-1.65246e-05
-1.34008e-05
-1.08495e-05
-8.77323e-06
-7.08483e-06
-5.70572e-06
-4.57437e-06
-3.63931e-06
-2.86232e-06
-2.21196e-06
-1.66398e-06
-1.19866e-06
-7.98209e-07
-4.51207e-07
-1.41556e-07
0.00095057
0.000889512
0.000780816
0.000623234
0.000427447
0.00022
3.00957e-05
-0.000123327
-0.000237437
-0.000317965
-0.000367165
-0.000387061
-0.000386685
-0.000376777
-0.000363425
-0.000350336
-0.000340713
-0.000334704
-0.000329788
-0.000324494
-0.000318909
-0.000312741
-0.000305396
-0.000296794
-0.000286887
-0.000275331
-0.000261998
-0.000247033
-0.000230442
-0.000212183
-0.000192572
-0.000172264
-0.000152141
-0.000132873
-0.00011511
-9.91246e-05
-8.49346e-05
-7.24364e-05
-6.14778e-05
-5.19099e-05
-4.35845e-05
-3.63683e-05
-3.0148e-05
-2.48323e-05
-2.03362e-05
-1.65776e-05
-1.34678e-05
-1.09176e-05
-8.83524e-06
-7.13739e-06
-5.74886e-06
-4.60907e-06
-3.66766e-06
-2.88573e-06
-2.23198e-06
-1.68134e-06
-1.21375e-06
-8.11144e-07
-4.60653e-07
-1.47015e-07
0.000857596
0.000799936
0.000705785
0.000574997
0.000410848
0.000230034
5.82846e-05
-8.35622e-05
-0.000191292
-0.000270672
-0.000322805
-0.000347607
-0.000353199
-0.000349674
-0.000341369
-0.000331134
-0.000323107
-0.000318239
-0.00031405
-0.000309277
-0.000304258
-0.000298561
-0.000291501
-0.000283204
-0.000273726
-0.00026268
-0.000250002
-0.000235889
-0.000220272
-0.000203082
-0.000184694
-0.000165745
-0.000146925
-0.000128818
-0.000111999
-9.67615e-05
-8.31481e-05
-7.10856e-05
-6.04625e-05
-5.11581e-05
-4.30414e-05
-3.59915e-05
-2.99042e-05
-2.46913e-05
-2.02703e-05
-1.65623e-05
-1.34818e-05
-1.09456e-05
-8.86691e-06
-7.16699e-06
-5.77437e-06
-4.63013e-06
-3.68522e-06
-2.90069e-06
-2.24529e-06
-1.69356e-06
-1.22486e-06
-8.2116e-07
-4.68047e-07
-1.5116e-07
0.000773693
0.000719525
0.000636856
0.000527317
0.000390236
0.00023437
8.07709e-05
-4.94639e-05
-0.000150588
-0.000227878
-0.000281632
-0.000309976
-0.000320224
-0.000322232
-0.000318711
-0.00031121
-0.000304693
-0.000301037
-0.000297639
-0.000293355
-0.000288943
-0.00028383
-0.000277109
-0.000269138
-0.000260145
-0.000249661
-0.000237643
-0.000224386
-0.000209769
-0.000193652
-0.000176452
-0.000158815
-0.000141286
-0.000124335
-0.000108476
-9.40176e-05
-8.10217e-05
-6.94394e-05
-5.9193e-05
-5.01879e-05
-4.23118e-05
-3.54566e-05
-2.95264e-05
-2.44372e-05
-2.01103e-05
-1.64694e-05
-1.34327e-05
-1.09229e-05
-8.85855e-06
-7.16521e-06
-5.77525e-06
-4.63192e-06
-3.68761e-06
-2.90379e-06
-2.24927e-06
-1.6986e-06
-1.23052e-06
-8.27143e-07
-4.72785e-07
-1.53905e-07
0.000697327
0.000646887
0.000574024
0.000481595
0.00036665
0.000232767
9.70101e-05
-2.08551e-05
-0.000114652
-0.000189039
-0.000243521
-0.000274535
-0.000288316
-0.000294729
-0.00029551
-0.000290712
-0.000285626
-0.000283162
-0.000280635
-0.000276813
-0.000272971
-0.000268545
-0.000262255
-0.00025461
-0.000246132
-0.000236281
-0.000224948
-0.000212538
-0.000198922
-0.000183883
-0.000167854
-0.000151499
-0.00013524
-0.000119433
-0.000104543
-9.08906e-05
-7.85498e-05
-6.74888e-05
-5.76585e-05
-4.899e-05
-4.13879e-05
-3.47558e-05
-2.90065e-05
-2.40616e-05
-1.98468e-05
-1.62876e-05
-1.33124e-05
-1.08424e-05
-8.80359e-06
-7.12636e-06
-5.74677e-06
-4.61058e-06
-3.67175e-06
-2.89258e-06
-2.24205e-06
-1.69497e-06
-1.22965e-06
-8.28303e-07
-4.74542e-07
-1.553e-07
0.000627401
0.000580996
0.000516553
0.000437679
0.000340915
0.00022652
0.000107787
2.58772e-06
-8.33457e-05
-0.00015429
-0.0002086
-0.00024125
-0.000257626
-0.000267499
-0.000271962
-0.000269764
-0.000266055
-0.000264677
-0.000263066
-0.000259727
-0.000256368
-0.000252661
-0.000246939
-0.000239659
-0.000231681
-0.000222507
-0.000211905
-0.000200331
-0.000187706
-0.000173756
-0.000158897
-0.00014379
-0.000128773
-0.0001141
-0.000100192
-8.73709e-05
-7.57206e-05
-6.52205e-05
-5.58455e-05
-4.75497e-05
-4.02547e-05
-3.38746e-05
-2.83312e-05
-2.35532e-05
-1.94707e-05
-1.60136e-05
-1.31129e-05
-1.06968e-05
-8.69588e-06
-7.04509e-06
-5.68453e-06
-4.56252e-06
-3.63477e-06
-2.86477e-06
-2.22187e-06
-1.68135e-06
-1.22128e-06
-8.24137e-07
-4.73038e-07
-1.55354e-07
0.000563124
0.000520414
0.000463273
0.000395855
0.00031452
0.000217046
0.000113499
2.05636e-05
-5.66525e-05
-0.000123313
-0.000176825
-0.000210197
-0.000228256
-0.000240859
-0.000248358
-0.000248443
-0.000246077
-0.000245697
-0.000244959
-0.000242146
-0.000239205
-0.000236167
-0.000231135
-0.000224319
-0.000216803
-0.000208285
-0.000198466
-0.000187761
-0.000176123
-0.000163257
-0.000149558
-0.000135677
-0.000121878
-0.000108332
-9.54132e-05
-8.34447e-05
-7.25157e-05
-6.26141e-05
-5.37332e-05
-4.58478e-05
-3.88941e-05
-3.2797e-05
-2.74872e-05
-2.29003e-05
-1.89713e-05
-1.5635e-05
-1.28261e-05
-1.04792e-05
-8.52942e-06
-6.9165e-06
-5.58433e-06
-4.48417e-06
-3.57377e-06
-2.81802e-06
-2.18691e-06
-1.65634e-06
-1.20442e-06
-8.13938e-07
-4.67897e-07
-1.54041e-07
0.000503899
0.000464248
0.000413602
0.000356404
0.000288004
0.00020496
0.00011491
3.34115e-05
-3.44618e-05
-9.58207e-05
-0.000148257
-0.000181709
-0.000200215
-0.000214857
-0.000225032
-0.000226926
-0.000225724
-0.000226353
-0.000226383
-0.000224063
-0.000221563
-0.000219119
-0.000214785
-0.000208558
-0.000201522
-0.000193596
-0.000184589
-0.000174831
-0.000164191
-0.000152377
-0.000139818
-0.000127147
-0.000114547
-0.00010211
-9.01826e-05
-7.90874e-05
-6.89144e-05
-5.96519e-05
-5.13054e-05
-4.38677e-05
-3.72904e-05
-3.15083e-05
-2.64606e-05
-2.20899e-05
-1.83371e-05
-1.51418e-05
-1.24435e-05
-1.01821e-05
-8.29789e-06
-6.73505e-06
-5.44157e-06
-4.37179e-06
-3.48573e-06
-2.74992e-06
-2.13528e-06
-1.61849e-06
-1.17802e-06
-7.9704e-07
-4.58755e-07
-1.51306e-07
0.000449385
0.000412511
0.000366914
0.000318597
0.00026152
0.000191218
0.000113217
4.15709e-05
-1.71663e-05
-7.17256e-05
-0.000122445
-0.000156006
-0.000173828
-0.000189428
-0.000202145
-0.000205514
-0.000205017
-0.000206676
-0.00020747
-0.000205496
-0.00020346
-0.000201591
-0.000197844
-0.000192287
-0.000185875
-0.000178509
-0.000170255
-0.000161503
-0.000151912
-0.00014111
-0.000129633
-0.000118151
-0.000106748
-9.54201e-05
-8.44908e-05
-7.42931e-05
-6.49104e-05
-5.63228e-05
-4.85455e-05
-4.15911e-05
-3.54255e-05
-2.99918e-05
-2.52363e-05
-2.1109e-05
-1.75568e-05
-1.45246e-05
-1.19567e-05
-9.79828e-06
-7.99485e-06
-6.49528e-06
-5.25164e-06
-4.22156e-06
-3.36752e-06
-2.65795e-06
-2.065e-06
-1.5663e-06
-1.14099e-06
-7.7274e-07
-4.45225e-07
-1.47052e-07
0.000398811
0.000365257
0.0003229
0.000281813
0.000235278
0.000176384
0.000109059
4.58124e-05
-4.74628e-06
-5.11784e-05
-9.88303e-05
-0.000133062
-0.000149741
-0.000164528
-0.00017947
-0.000184595
-0.00018419
-0.000186543
-0.000188299
-0.000186567
-0.000184861
-0.000183619
-0.00018036
-0.000175435
-0.000169857
-0.000163123
-0.000155466
-0.000147666
-0.000139209
-0.000129432
-0.000118973
-0.000108664
-9.84872e-05
-8.8279e-05
-7.83415e-05
-6.90483e-05
-6.04831e-05
-5.26055e-05
-4.54338e-05
-3.90002e-05
-3.32839e-05
-2.82337e-05
-2.38017e-05
-1.99459e-05
-1.66199e-05
-1.3774e-05
-1.13573e-05
-9.3203e-06
-7.61397e-06
-6.19179e-06
-5.01e-06
-4.0297e-06
-3.21605e-06
-2.53963e-06
-1.97411e-06
-1.49829e-06
-1.09225e-06
-7.4033e-07
-4.26914e-07
-1.41171e-07
0.000350311
0.000321708
0.000281747
0.0002456
0.000208633
0.000160421
0.000102995
4.73692e-05
3.38351e-06
-3.47189e-05
-7.70972e-05
-0.000111963
-0.000128192
-0.000140462
-0.000156521
-0.000164105
-0.000163472
-0.000165672
-0.000168668
-0.000167364
-0.000165598
-0.000164969
-0.000162331
-0.000157915
-0.000153218
-0.000147274
-0.000140094
-0.000133101
-0.000125898
-0.000117287
-0.00010781
-9.8603e-05
-8.96618e-05
-8.05987e-05
-7.16531e-05
-6.3276e-05
-5.55701e-05
-4.84532e-05
-4.19315e-05
-3.60594e-05
-3.08329e-05
-2.62045e-05
-2.21308e-05
-1.8578e-05
-1.55071e-05
-1.28734e-05
-1.06312e-05
-8.73645e-06
-7.1454e-06
-5.81632e-06
-4.70979e-06
-3.79055e-06
-3.02674e-06
-2.39129e-06
-1.85976e-06
-1.4123e-06
-1.03024e-06
-6.98778e-07
-4.03247e-07
-1.3352e-07
0.000300914
0.000279243
0.000242593
0.000209257
0.000180245
0.000142703
9.50987e-05
4.69523e-05
8.29254e-06
-2.23259e-05
-5.71234e-05
-9.11679e-05
-0.00010839
-0.000117534
-0.000132491
-0.000142802
-0.000142542
-0.000143642
-0.000147699
-0.000147298
-0.000145109
-0.00014488
-0.000143202
-0.000139192
-0.000135134
-0.000130225
-0.000123711
-0.000117397
-0.000111471
-0.000104217
-9.57417e-05
-8.7544e-05
-7.98622e-05
-7.20514e-05
-6.41675e-05
-5.67497e-05
-4.99664e-05
-4.36851e-05
-3.78795e-05
-3.26287e-05
-2.79515e-05
-2.38021e-05
-2.01383e-05
-1.69343e-05
-1.41593e-05
-1.17742e-05
-9.73832e-06
-8.0135e-06
-6.56175e-06
-5.3464e-06
-4.33264e-06
-3.4892e-06
-2.78758e-06
-2.20341e-06
-1.7145e-06
-1.30267e-06
-9.5082e-07
-6.45289e-07
-3.72604e-07
-1.23513e-07
0.00024894
0.00023522
0.000204391
0.000173121
0.000149498
0.000122277
8.49623e-05
4.45715e-05
1.0912e-05
-1.37042e-05
-3.99232e-05
-7.03212e-05
-8.91209e-05
-9.60582e-05
-0.000107525
-0.000119577
-0.000120992
-0.000120494
-0.000124574
-0.000125641
-0.000123214
-0.000122812
-0.000122184
-0.000118746
-0.000115108
-0.000111444
-0.000105994
-0.000100218
-9.53332e-05
-8.96076e-05
-8.23512e-05
-7.51708e-05
-6.87682e-05
-6.23407e-05
-5.56314e-05
-4.92305e-05
-4.34388e-05
-3.80897e-05
-3.30951e-05
-2.85491e-05
-2.45003e-05
-2.09051e-05
-1.77192e-05
-1.49245e-05
-1.24995e-05
-1.04111e-05
-8.62406e-06
-7.10623e-06
-5.8258e-06
-4.75161e-06
-3.85385e-06
-3.10575e-06
-2.48266e-06
-1.96339e-06
-1.52851e-06
-1.16193e-06
-8.48548e-07
-5.76171e-07
-3.32878e-07
-1.10479e-07
0.000194994
0.000188389
0.000165525
0.000137579
0.000117364
9.88912e-05
7.19232e-05
3.98361e-05
1.18296e-05
-8.08659e-06
-2.66769e-05
-5.05338e-05
-6.93222e-05
-7.58477e-05
-8.30046e-05
-9.43894e-05
-9.81039e-05
-9.6646e-05
-9.94913e-05
-0.000101884
-9.98228e-05
-9.87942e-05
-9.90115e-05
-9.66205e-05
-9.33225e-05
-9.06411e-05
-8.64964e-05
-8.13736e-05
-7.73378e-05
-7.32295e-05
-6.75105e-05
-6.14432e-05
-5.62616e-05
-5.12728e-05
-4.5877e-05
-4.05955e-05
-3.58755e-05
-3.15593e-05
-2.74841e-05
-2.37388e-05
-2.04039e-05
-1.7444e-05
-1.48114e-05
-1.24937e-05
-1.04791e-05
-8.74136e-06
-7.25091e-06
-5.98194e-06
-4.90928e-06
-4.00775e-06
-3.25302e-06
-2.62322e-06
-2.09809e-06
-1.66009e-06
-1.29302e-06
-9.83388e-07
-7.18502e-07
-4.88116e-07
-2.82085e-07
-9.38705e-08
0.00014025
0.000138275
0.000123811
0.000101895
8.4911e-05
7.26786e-05
5.54552e-05
3.24925e-05
1.08931e-05
-4.65773e-06
-1.69072e-05
-3.29762e-05
-4.92206e-05
-5.59788e-05
-5.93573e-05
-6.77751e-05
-7.32188e-05
-7.2059e-05
-7.28448e-05
-7.54367e-05
-7.45013e-05
-7.32648e-05
-7.38026e-05
-7.24205e-05
-6.94841e-05
-6.74581e-05
-6.48038e-05
-6.08416e-05
-5.76407e-05
-5.4931e-05
-5.08812e-05
-4.61417e-05
-4.21956e-05
-3.86585e-05
-3.47234e-05
-3.072e-05
-2.71686e-05
-2.39737e-05
-2.09295e-05
-1.80975e-05
-1.55757e-05
-1.33421e-05
-1.13491e-05
-9.58744e-06
-8.05334e-06
-6.72806e-06
-5.58872e-06
-4.61623e-06
-3.79239e-06
-3.09863e-06
-2.51679e-06
-2.03053e-06
-1.62461e-06
-1.28577e-06
-1.00162e-06
-7.61842e-07
-5.56596e-07
-3.78122e-07
-2.18357e-07
-7.16403e-08
8.51598e-05
8.52206e-05
7.79093e-05
6.40305e-05
5.19879e-05
4.46801e-05
3.55989e-05
2.17805e-05
7.81062e-06
-2.26782e-06
-9.40435e-06
-1.85322e-05
-2.93924e-05
-3.47996e-05
-3.62086e-05
-4.11259e-05
-4.57811e-05
-4.51108e-05
-4.48207e-05
-4.70832e-05
-4.71152e-05
-4.57714e-05
-4.59043e-05
-4.53883e-05
-4.35134e-05
-4.22378e-05
-4.08407e-05
-3.82922e-05
-3.60585e-05
-3.44818e-05
-3.21214e-05
-2.90691e-05
-2.65227e-05
-2.44003e-05
-2.20033e-05
-1.94609e-05
-1.72087e-05
-1.52216e-05
-1.33194e-05
-1.15275e-05
-9.92994e-06
-8.51867e-06
-7.25662e-06
-6.13689e-06
-5.16038e-06
-4.31622e-06
-3.58949e-06
-2.96813e-06
-2.44103e-06
-1.99655e-06
-1.62332e-06
-1.31099e-06
-1.05002e-06
-8.3187e-07
-6.48796e-07
-4.94038e-07
-3.61491e-07
-2.45955e-07
-1.43079e-07
-5.01143e-08
2.87374e-05
2.90018e-05
2.68799e-05
2.21196e-05
1.76886e-05
1.51859e-05
1.23591e-05
7.75654e-06
2.95811e-06
-6.23665e-07
-3.14274e-06
-6.00818e-06
-9.65483e-06
-1.19007e-05
-1.25087e-05
-1.39525e-05
-1.54897e-05
-1.53416e-05
-1.53985e-05
-1.64381e-05
-1.63882e-05
-1.55442e-05
-1.5525e-05
-1.56171e-05
-1.50951e-05
-1.46175e-05
-1.41187e-05
-1.31948e-05
-1.23692e-05
-1.18623e-05
-1.11094e-05
-1.00474e-05
-9.14303e-06
-8.42381e-06
-7.61317e-06
-6.7303e-06
-5.94758e-06
-5.26754e-06
-4.61626e-06
-3.99756e-06
-3.44528e-06
-2.95851e-06
-2.52261e-06
-2.13462e-06
-1.7955e-06
-1.50187e-06
-1.24847e-06
-1.03135e-06
-8.46736e-07
-6.90873e-07
-5.59811e-07
-4.50287e-07
-3.58819e-07
-2.82731e-07
-2.18949e-07
-1.65495e-07
-1.1966e-07
-8.00592e-08
-4.3837e-08
-1.04548e-08
0.000275311
0.000256303
0.000280955
0.000308904
0.000351667
0.000412329
0.000505661
0.000530895
0.000601435
0.000714241
0.00088523
0.000977048
0.00114941
0.00140384
0.00176419
0.000270629
0.000256973
0.000280484
0.000309275
0.000349731
0.00041095
0.000490964
0.00052951
0.000598009
0.000711431
0.00085609
0.000969856
0.00112157
0.00133938
0.00157144
0.000266309
0.000257902
0.000279466
0.000308806
0.000346682
0.000408356
0.00048068
0.000526515
0.000592429
0.000703847
0.000834611
0.00095032
0.00108028
0.00125831
0.00141358
0.000261622
0.00025805
0.000277958
0.000307302
0.000343198
0.000404388
0.000471282
0.000520852
0.000585233
0.000692068
0.000812483
0.000920073
0.00103266
0.00117201
0.00128202
0.000256505
0.000257326
0.000276063
0.000304857
0.000339122
0.00039885
0.000462179
0.000512823
0.000575962
0.000676591
0.000787824
0.000884031
0.000979662
0.00108734
0.00116676
0.000251107
0.000255514
0.000273713
0.000301443
0.00033433
0.000391846
0.000452792
0.0005027
0.000564042
0.000657858
0.000759919
0.000844033
0.000922632
0.00100587
0.00106241
0.000245483
0.000252444
0.00027071
0.00029711
0.00032869
0.000383463
0.000442501
0.000490616
0.000549194
0.000636213
0.000728913
0.000800916
0.000863645
0.000927655
0.000966746
0.000239624
0.000248091
0.00026675
0.000291839
0.000322064
0.000373879
0.000430836
0.000476621
0.000531505
0.000611725
0.000695106
0.0007556
0.000804035
0.000852447
0.000878563
0.000233385
0.000242545
0.000261579
0.000285501
0.000314351
0.000363159
0.00041756
0.000460602
0.000511097
0.000584463
0.000658918
0.000708908
0.000744769
0.000780296
0.000797046
0.000226588
0.000235903
0.000255105
0.000277924
0.000305326
0.000351299
0.000402673
0.000442425
0.000488065
0.000554693
0.000620856
0.000661417
0.000686402
0.000711384
0.000721446
0.000219026
0.000228179
0.000247354
0.000268986
0.000294679
0.000338148
0.000386334
0.000422105
0.000462461
0.000522709
0.0005814
0.000613509
0.000629225
0.000645876
0.000651241
0.000210542
0.000219297
0.000238326
0.000258694
0.000282187
0.000323348
0.000368647
0.000399909
0.000434376
0.000488627
0.000540967
0.000565659
0.000573433
0.000583653
0.000586074
0.000201034
0.000209156
0.000227901
0.000247141
0.000267811
0.00030643
0.000349551
0.000376311
0.000404046
0.000452367
0.000499841
0.000518491
0.000519187
0.000524224
0.000525345
0.000190425
0.000197652
0.000215861
0.000234386
0.000251741
0.000287015
0.000328701
0.00035176
0.000371978
0.000413814
0.000457977
0.000472569
0.000466816
0.000467008
0.000468078
0.000178623
0.000184743
0.000201992
0.000220306
0.000234279
0.000264999
0.0003055
0.000326455
0.00033902
0.000373122
0.000414869
0.000428004
0.000416897
0.00041183
0.000413166
0.000165403
0.000170338
0.000186013
0.000204403
0.000215592
0.000240527
0.000279162
0.000299867
0.000305815
0.000330664
0.000369543
0.000383836
0.000369512
0.000358671
0.000359328
0.00015005
0.000153891
0.000167291
0.000185517
0.000195021
0.000213323
0.000248359
0.000270067
0.000271695
0.000286247
0.000320245
0.000337336
0.000322932
0.000306541
0.000304795
0.000131713
0.000134716
0.000145268
0.000162444
0.00017138
0.000183235
0.000212337
0.000234867
0.000235277
0.000240262
0.000266546
0.000286003
0.000275045
0.000255048
0.000249402
0.000109838
0.000112273
0.000119848
0.000134671
0.000143473
0.000150305
0.000171721
0.000193201
0.000194813
0.000193181
0.000210099
0.000229315
0.000223977
0.000203957
0.000194397
8.39309e-05
8.59001e-05
9.08258e-05
0.000102063
0.000110119
0.000113781
0.000127358
0.00014509
0.000148336
0.000143951
0.000152335
0.000168092
0.000167852
0.000151554
0.000140271
5.36163e-05
5.49875e-05
5.77452e-05
6.46766e-05
7.057e-05
7.24209e-05
7.94618e-05
9.11013e-05
9.4528e-05
9.06447e-05
9.33933e-05
0.000103438
0.000105534
9.53085e-05
8.59888e-05
1.86678e-05
1.9177e-05
2.00595e-05
2.23951e-05
2.46119e-05
2.52012e-05
2.7287e-05
3.13401e-05
3.28527e-05
3.13575e-05
3.17407e-05
3.51451e-05
3.63699e-05
3.29538e-05
2.92716e-05
)
;

boundaryField
{
    top
    {
        type            fixedValue;
        value           uniform 0;
    }
    inlet
    {
        type            zeroGradient;
    }
    outlet
    {
        type            fixedValue;
        value           uniform 0;
    }
    plate
    {
        type            zeroGradient;
    }
    symmBound
    {
        type            zeroGradient;
    }
    frontAndBack
    {
        type            empty;
    }
}


// ************************************************************************* //
