/*--------------------------------*- C++ -*----------------------------------*\
| =========                 |                                                 |
| \\      /  F ield         | OpenFOAM: The Open Source CFD Toolbox           |
|  \\    /   O peration     | Version:  2.3.0                                 |
|   \\  /    A nd           | Web:      www.OpenFOAM.org                      |
|    \\/     M anipulation  |                                                 |
\*---------------------------------------------------------------------------*/
FoamFile
{
    version     2.0;
    format      ascii;
    class       volScalarField;
    location    "0.2";
    object      p;
}
// * * * * * * * * * * * * * * * * * * * * * * * * * * * * * * * * * * * * * //

dimensions      [0 2 -2 0 0 0 0];

internalField   nonuniform List<scalar> 
2000
(
0.00206968
0.00149513
0.00102981
0.000697079
0.000424484
0.000182139
-2.96408e-05
-0.000206167
-0.000345978
-0.000450346
-0.000522319
-0.000566299
-0.000587549
-0.000591557
-0.000583444
-0.000567554
-0.000547287
-0.000525099
-0.000502631
-0.000480876
-0.000460357
-0.000441289
-0.000423694
-0.000407493
-0.000392562
-0.000378767
-0.000365982
-0.0003541
-0.000343028
-0.000332691
-0.000323026
-0.000313978
-0.000305496
-0.00029753
-0.000290032
-0.000282947
-0.000276219
-0.000269787
-0.000263582
-0.000257527
-0.000251536
-0.000245504
-0.000239305
-0.000232779
-0.000225727
-0.000217903
-0.000209012
-0.000198775
-0.000186918
-0.000173627
-0.000159044
-0.00014362
-0.000127786
-0.000112035
-9.68107e-05
-8.24632e-05
-6.92404e-05
-5.72838e-05
-4.66442e-05
-3.73043e-05
-2.92001e-05
-2.22398e-05
-1.63173e-05
-1.13232e-05
-7.15037e-06
-3.69795e-06
-8.73844e-07
1.40514e-06
3.21304e-06
4.61531e-06
5.66963e-06
6.42679e-06
6.9314e-06
7.22279e-06
7.33572e-06
7.30086e-06
7.14545e-06
6.89367e-06
6.56716e-06
6.18511e-06
5.76454e-06
5.31876e-06
4.86382e-06
4.40518e-06
3.95584e-06
3.51986e-06
3.10355e-06
2.71525e-06
2.35511e-06
2.02334e-06
1.72015e-06
1.44583e-06
1.20035e-06
9.81445e-07
7.8641e-07
6.12408e-07
4.56177e-07
3.14689e-07
1.84241e-07
6.03623e-08
0.00178013
0.0013798
0.00100394
0.000705233
0.000448094
0.00021382
5.70629e-06
-0.000169867
-0.00031034
-0.000416377
-0.000490666
-0.00053734
-0.000561449
-0.000568316
-0.000562939
-0.000549585
-0.000531606
-0.000511442
-0.000490732
-0.000470484
-0.000451249
-0.000433266
-0.00041659
-0.000401168
-0.000386902
-0.000373679
-0.00036139
-0.000349941
-0.000339252
-0.000329256
-0.000319897
-0.000311126
-0.000302896
-0.000295162
-0.000287877
-0.000280991
-0.000274449
-0.000268192
-0.000262152
-0.000256255
-0.000250417
-0.000244535
-0.000238487
-0.000232116
-0.000225224
-0.000217559
-0.000208836
-0.000198736
-0.000187151
-0.000173977
-0.000159457
-0.000144024
-0.000128157
-0.000112377
-9.7125e-05
-8.27499e-05
-6.9499e-05
-5.75151e-05
-4.68499e-05
-3.74862e-05
-2.93603e-05
-2.23802e-05
-1.64398e-05
-1.14296e-05
-7.24213e-06
-3.77664e-06
-9.4082e-07
1.34859e-06
3.16575e-06
4.57619e-06
5.63766e-06
6.40102e-06
6.91096e-06
7.20687e-06
7.32355e-06
7.29181e-06
7.13899e-06
6.88933e-06
6.5645e-06
6.18374e-06
5.76417e-06
5.32116e-06
4.86472e-06
4.40578e-06
3.95701e-06
3.52116e-06
3.10466e-06
2.71655e-06
2.3564e-06
2.02451e-06
1.72115e-06
1.44662e-06
1.20101e-06
9.82006e-07
7.86878e-07
6.1281e-07
4.56522e-07
3.14998e-07
1.84567e-07
6.07049e-08
0.00155725
0.00127194
0.000962041
0.000691444
0.000452607
0.000234391
3.88628e-05
-0.000128501
-0.000264929
-0.000370487
-0.000447089
-0.000497972
-0.000527301
-0.000539644
-0.000539441
-0.000530617
-0.000516372
-0.000499138
-0.000480641
-0.000462018
-0.000443955
-0.000426819
-0.000410763
-0.000395813
-0.000381923
-0.000369018
-0.000357012
-0.000345824
-0.000335383
-0.000325625
-0.000316495
-0.000307946
-0.000299931
-0.000292404
-0.000285319
-0.000278625
-0.00027227
-0.000266192
-0.000260326
-0.000254599
-0.000248926
-0.000243209
-0.000237325
-0.000231121
-0.000224395
-0.000216897
-0.000208325
-0.000198339
-0.00018664
-0.000173342
-0.000158991
-0.00014386
-0.000128168
-0.000112465
-9.72532e-05
-8.29024e-05
-6.96668e-05
-5.76896e-05
-4.70244e-05
-3.7656e-05
-2.9522e-05
-2.25315e-05
-1.65796e-05
-1.1557e-05
-7.35727e-06
-3.87966e-06
-1.03217e-06
1.26827e-06
3.09574e-06
4.51571e-06
5.58587e-06
6.35708e-06
6.87403e-06
7.17613e-06
7.29821e-06
7.27108e-06
7.12215e-06
6.87571e-06
6.55353e-06
6.17488e-06
5.75693e-06
5.31489e-06
4.86057e-06
4.40592e-06
3.95565e-06
3.51906e-06
3.10133e-06
2.71344e-06
2.35355e-06
2.02194e-06
1.71879e-06
1.44454e-06
1.19931e-06
9.80653e-07
7.85824e-07
6.12042e-07
4.56055e-07
3.14864e-07
1.84947e-07
6.23048e-08
0.00135691
0.00114696
0.000895964
0.000660166
0.000446686
0.00025055
7.29484e-05
-8.16724e-05
-0.000210383
-0.000312603
-0.000389449
-0.000443257
-0.00047725
-0.000495139
-0.000500682
-0.000497327
-0.000487995
-0.000474997
-0.000460045
-0.000444331
-0.000428626
-0.000413393
-0.000398876
-0.000385177
-0.000372317
-0.00036027
-0.00034899
-0.000338426
-0.000328528
-0.000319248
-0.000310546
-0.00030238
-0.000294713
-0.000287504
-0.000280711
-0.000274288
-0.000268185
-0.000262345
-0.000256704
-0.000251192
-0.000245725
-0.000240205
-0.00023451
-0.000228483
-0.00022192
-0.000214567
-0.000206122
-0.000196279
-0.000184835
-0.000171741
-0.000157253
-0.000142202
-0.000126942
-0.00011167
-9.67938e-05
-8.26948e-05
-6.96502e-05
-5.7814e-05
-4.72479e-05
-3.79445e-05
-2.98485e-05
-2.28758e-05
-1.69269e-05
-1.18969e-05
-7.68264e-06
-4.18595e-06
-1.31664e-06
1.00704e-06
2.85824e-06
4.30177e-06
5.39484e-06
6.18793e-06
6.72552e-06
7.04682e-06
7.18657e-06
7.17551e-06
7.04104e-06
6.80748e-06
6.49663e-06
6.12783e-06
5.71827e-06
5.28298e-06
4.83412e-06
4.38321e-06
3.93734e-06
3.50545e-06
3.09558e-06
2.70846e-06
2.34911e-06
2.01768e-06
1.71452e-06
1.44038e-06
1.1958e-06
9.77836e-07
7.83684e-07
6.10585e-07
4.55339e-07
3.1498e-07
1.86369e-07
6.74542e-08
0.00117268
0.00101657
0.00081955
0.000621738
0.000435818
0.000262457
0.000103513
-3.71552e-05
-0.000156581
-0.000253712
-0.000329055
-0.000384231
-0.000421666
-0.00044428
-0.000455137
-0.000457147
-0.000452862
-0.000444376
-0.000433311
-0.000420854
-0.000407831
-0.000394781
-0.000382037
-0.000369785
-0.000358118
-0.000347069
-0.000336639
-0.000326812
-0.000317562
-0.000308863
-0.000300683
-0.000292994
-0.000285763
-0.000278956
-0.000272534
-0.000266454
-0.00026067
-0.000255127
-0.000249764
-0.000244511
-0.000239285
-0.000233988
-0.000228497
-0.000222655
-0.000216262
-0.000209073
-0.000200811
-0.000191212
-0.000180112
-0.000167525
-0.000153722
-0.000138982
-0.000124037
-0.00010937
-9.51382e-05
-8.1591e-05
-6.89944e-05
-5.75136e-05
-4.72212e-05
-3.81208e-05
-3.01696e-05
-2.3295e-05
-1.7408e-05
-1.24125e-05
-8.21209e-06
-4.71429e-06
-1.83297e-06
5.10444e-07
2.38672e-06
3.85892e-06
4.98293e-06
5.80819e-06
6.37841e-06
6.73218e-06
6.90372e-06
6.92338e-06
6.8182e-06
6.61225e-06
6.32711e-06
5.98194e-06
5.59381e-06
5.17761e-06
4.74584e-06
4.3096e-06
3.87694e-06
3.45612e-06
3.05446e-06
2.67516e-06
2.3225e-06
1.99715e-06
1.70017e-06
1.43147e-06
1.18981e-06
9.73817e-07
7.81082e-07
6.09148e-07
4.55045e-07
3.15927e-07
1.89408e-07
7.72871e-08
0.00100998
0.000891875
0.000738955
0.000576533
0.000417601
0.000266583
0.000126407
5.01576e-07
-0.000108364
-0.000198882
-0.000271089
-0.000326011
-0.000365396
-0.000391457
-0.00040661
-0.000413232
-0.000413483
-0.000409204
-0.00040188
-0.000392653
-0.00038236
-0.000371592
-0.000360743
-0.000350068
-0.00033972
-0.000329786
-0.000320309
-0.000311307
-0.000302781
-0.000294721
-0.000287112
-0.000279935
-0.000273166
-0.000266777
-0.000260734
-0.000255
-0.00024953
-0.000244274
-0.000239173
-0.000234158
-0.00022915
-0.000224049
-0.000218736
-0.00021306
-0.000206835
-0.000199842
-0.000191845
-0.000182635
-0.000172089
-0.000160241
-0.000147305
-0.000133582
-0.0001195
-0.000105538
-9.20888e-05
-7.93303e-05
-6.74206e-05
-5.65082e-05
-4.66731e-05
-3.79303e-05
-3.02509e-05
-2.35774e-05
-1.78344e-05
-1.2938e-05
-8.80186e-06
-5.34158e-06
-2.47739e-06
-1.3568e-07
1.75051e-06
3.24135e-06
4.39051e-06
5.24571e-06
5.84927e-06
6.23872e-06
6.44737e-06
6.50481e-06
6.43745e-06
6.26879e-06
6.01991e-06
5.70952e-06
5.35429e-06
4.96878e-06
4.56543e-06
4.15503e-06
3.74611e-06
3.34669e-06
2.96365e-06
2.60101e-06
2.26229e-06
1.94887e-06
1.6617e-06
1.40099e-06
1.16635e-06
9.56328e-07
7.68637e-07
6.0098e-07
4.50721e-07
3.15847e-07
1.94617e-07
8.89715e-08
0.000866215
0.000774623
0.00065584
0.000524662
0.00039167
0.000262657
0.000141247
3.05684e-05
-6.68778e-05
-0.000149657
-0.000217425
-0.000270703
-0.000310657
-0.000338889
-0.000357237
-0.000367584
-0.000371705
-0.00037117
-0.000367298
-0.000361146
-0.000353526
-0.000345043
-0.000336131
-0.000327089
-0.00031812
-0.000309357
-0.00030088
-0.000292741
-0.000284964
-0.000277562
-0.000270534
-0.000263872
-0.000257562
-0.000251583
-0.000245908
-0.000240503
-0.000235329
-0.000230337
-0.000225474
-0.000220672
-0.000215855
-0.000210929
-0.00020578
-0.000200271
-0.000194238
-0.000187497
-0.000179859
-0.000171166
-0.000161332
-0.000150395
-0.000138523
-0.000125984
-0.00011312
-0.000100272
-8.7802e-05
-7.59594e-05
-6.48923e-05
-5.47076e-05
-4.54768e-05
-3.72232e-05
-2.99314e-05
-2.35587e-05
-1.80446e-05
-1.33186e-05
-9.30583e-06
-5.93166e-06
-3.12415e-06
-8.1598e-07
1.05483e-06
2.54454e-06
3.70377e-06
4.57782e-06
5.20707e-06
5.62747e-06
5.87102e-06
5.96623e-06
5.93853e-06
5.81059e-06
5.60269e-06
5.33288e-06
5.01719e-06
4.66966e-06
4.30238e-06
3.92579e-06
3.54848e-06
3.17809e-06
2.82104e-06
2.48164e-06
2.16329e-06
1.86782e-06
1.5963e-06
1.34915e-06
1.12591e-06
9.25362e-07
7.45579e-07
5.84529e-07
4.39905e-07
3.09888e-07
1.93398e-07
9.37725e-08
0.000738017
0.000665706
0.000573215
0.000468723
0.000359704
0.000251667
0.000148403
5.28153e-05
-3.28398e-05
-0.000107105
-0.000169372
-0.000219767
-0.000258982
-0.000288113
-0.0003085
-0.000321584
-0.000328778
-0.00033138
-0.000330523
-0.000327149
-0.00032202
-0.000315723
-0.000308706
-0.000301296
-0.000293729
-0.000286171
-0.000278736
-0.000271501
-0.000264516
-0.000257808
-0.000251395
-0.000245278
-0.000239452
-0.000233905
-0.000228614
-0.000223552
-0.000218683
-0.000213965
-0.000209347
-0.000204766
-0.000200151
-0.000195416
-0.000190458
-0.000185157
-0.000179376
-0.000172964
-0.000165779
-0.000157704
-0.000148684
-0.000138754
-0.000128051
-0.000116789
-0.000105241
-9.36879e-05
-8.2392e-05
-7.16065e-05
-6.14907e-05
-5.21425e-05
-4.36221e-05
-3.59584e-05
-2.91476e-05
-2.31607e-05
-1.79512e-05
-1.34618e-05
-9.62982e-06
-6.39075e-06
-3.68135e-06
-1.4414e-06
3.85275e-07
1.85029e-06
3.00052e-06
3.87821e-06
4.52129e-06
4.96367e-06
5.23565e-06
5.36428e-06
5.37373e-06
5.28555e-06
5.11902e-06
4.89129e-06
4.61755e-06
4.31116e-06
3.98369e-06
3.64507e-06
3.30367e-06
2.9667e-06
2.64017e-06
2.32846e-06
2.03487e-06
1.76139e-06
1.50922e-06
1.27882e-06
1.06987e-06
8.81477e-07
7.12043e-07
5.59792e-07
4.22706e-07
2.99077e-07
1.87708e-07
8.97031e-08
0.000628235
0.000569965
0.000496905
0.000413546
0.000324813
0.00023523
0.000148296
6.66574e-05
-7.66802e-06
-7.32875e-05
-0.000129462
-0.000176052
-0.000213401
-0.000242216
-0.000263445
-0.000278158
-0.000287456
-0.000292386
-0.000293896
-0.000292805
-0.000289797
-0.000285426
-0.000280127
-0.000274234
-0.000267999
-0.000261609
-0.0002552
-0.000248868
-0.000242679
-0.000236678
-0.000230893
-0.000225337
-0.000220014
-0.000214916
-0.000210029
-0.00020533
-0.000200789
-0.000196368
-0.000192022
-0.000187693
-0.000183318
-0.000178819
-0.000174106
-0.000169077
-0.000163619
-0.000157613
-0.000150951
-0.000143549
-0.000135373
-0.000126457
-0.000116906
-0.000106894
-9.66348e-05
-8.63562e-05
-7.62766e-05
-6.65954e-05
-5.74672e-05
-4.89909e-05
-4.12255e-05
-3.42024e-05
-2.79263e-05
-2.23793e-05
-1.75269e-05
-1.33237e-05
-9.71797e-06
-6.65516e-06
-4.08049e-06
-1.94093e-06
-1.86316e-07
1.22996e-06
2.35067e-06
3.21466e-06
3.85703e-06
4.30932e-06
4.59982e-06
4.75386e-06
4.7941e-06
4.74078e-06
4.61196e-06
4.42373e-06
4.19035e-06
3.92432e-06
3.63654e-06
3.33636e-06
3.03173e-06
2.72941e-06
2.43499e-06
2.15272e-06
1.88578e-06
1.63623e-06
1.40533e-06
1.19362e-06
1.00094e-06
8.26586e-07
6.69244e-07
5.27363e-07
3.99144e-07
2.82894e-07
1.76992e-07
7.99543e-08
0.000531486
0.000484239
0.00042622
0.000359852
0.00028825
0.000214849
0.000142609
7.38411e-05
1.03111e-05
-4.67061e-05
-9.64328e-05
-0.000138563
-0.000173193
-0.000200736
-0.000221827
-0.000237238
-0.000247797
-0.00025433
-0.000257608
-0.000258323
-0.000257072
-0.000254356
-0.000250581
-0.000246073
-0.000241086
-0.000235815
-0.000230406
-0.000224969
-0.000219582
-0.000214303
-0.000209167
-0.000204197
-0.000199403
-0.000194786
-0.000190335
-0.000186034
-0.000181858
-0.000177773
-0.000173741
-0.00016971
-0.000165625
-0.000161418
-0.000157012
-0.000152322
-0.000147257
-0.000141725
-0.000135644
-0.000128957
-0.000121641
-0.000113728
-0.000105304
-9.65029e-05
-8.74931e-05
-7.84571e-05
-6.95742e-05
-6.10079e-05
-5.28883e-05
-4.53089e-05
-3.83305e-05
-3.19873e-05
-2.62896e-05
-2.12279e-05
-1.67778e-05
-1.29043e-05
-9.56555e-06
-6.71625e-06
-4.30978e-06
-2.30026e-06
-6.43648e-07
7.01449e-07
1.77339e-06
2.60733e-06
3.23519e-06
3.68586e-06
3.98531e-06
4.15687e-06
4.22147e-06
4.1978e-06
4.10257e-06
3.95064e-06
3.75518e-06
3.52776e-06
3.27847e-06
3.01601e-06
2.74779e-06
2.48008e-06
2.21804e-06
1.96571e-06
1.72611e-06
1.5013e-06
1.29255e-06
1.10049e-06
9.25066e-07
7.65744e-07
6.21458e-07
4.9086e-07
3.72336e-07
2.64195e-07
1.645e-07
7.04222e-08
0.000441446
0.000403517
0.000357852
0.000305714
0.000248998
0.000190161
0.000131528
7.50022e-05
2.20705e-05
-2.61539e-05
-6.89253e-05
-0.000105856
-0.000136879
-0.00016219
-0.000182181
-0.000197378
-0.000208379
-0.000215807
-0.000220266
-0.000222319
-0.000222465
-0.000221138
-0.000218702
-0.000215458
-0.000211646
-0.000207458
-0.000203044
-0.000198517
-0.000193962
-0.000189443
-0.000185003
-0.000180671
-0.000176462
-0.000172381
-0.000168426
-0.000164584
-0.000160836
-0.000157153
-0.000153503
-0.000149843
-0.000146126
-0.000142293
-0.000138282
-0.000134025
-0.00012945
-0.000124488
-0.000119078
-0.000113182
-0.000106789
-9.99242e-05
-9.26558e-05
-8.50872e-05
-7.73482e-05
-6.95813e-05
-6.19291e-05
-5.45231e-05
-4.74723e-05
-4.08592e-05
-3.47405e-05
-2.91504e-05
-2.41044e-05
-1.95997e-05
-1.56203e-05
-1.21403e-05
-9.12697e-06
-6.54373e-06
-4.35212e-06
-2.51355e-06
-9.90409e-07
2.53111e-07
1.25051e-06
2.03275e-06
2.62816e-06
3.06248e-06
3.35901e-06
3.53869e-06
3.62038e-06
3.62093e-06
3.55542e-06
3.43725e-06
3.27833e-06
3.08909e-06
2.87868e-06
2.65496e-06
2.42466e-06
2.19347e-06
1.96607e-06
1.74616e-06
1.53653e-06
1.33916e-06
1.15528e-06
9.85545e-07
8.30001e-07
6.88251e-07
5.5943e-07
4.42378e-07
3.35645e-07
2.37588e-07
1.46223e-07
5.88417e-08
0.000356838
0.000327026
0.000291761
0.00025167
0.000207869
0.000162031
0.000115872
7.08667e-05
2.82033e-05
-1.11948e-05
-4.66662e-05
-7.78107e-05
-0.00010447
-0.000126695
-0.000144698
-0.000158814
-0.000169451
-0.000177056
-0.000182082
-0.000184963
-0.0001861
-0.00018585
-0.000184523
-0.000182379
-0.000179636
-0.000176471
-0.000173023
-0.000169406
-0.000165702
-0.000161977
-0.000158277
-0.000154634
-0.000151067
-0.000147587
-0.000144193
-0.000140879
-0.00013763
-0.000134424
-0.000131235
-0.000128028
-0.000124765
-0.000121398
-0.000117879
-0.000114154
-0.000110169
-0.000105874
-0.000101226
-9.61993e-05
-9.07889e-05
-8.50174e-05
-7.89363e-05
-7.26234e-05
-6.61761e-05
-5.97028e-05
-5.33133e-05
-4.71103e-05
-4.1182e-05
-3.5598e-05
-3.04083e-05
-2.56444e-05
-2.13232e-05
-1.74481e-05
-1.40094e-05
-1.09887e-05
-8.36166e-06
-6.09977e-06
-4.17243e-06
-2.54834e-06
-1.19652e-06
-8.70789e-08
8.08204e-07
1.51564e-06
2.05949e-06
2.4619e-06
2.74299e-06
2.92095e-06
3.01215e-06
3.03127e-06
2.99144e-06
2.90435e-06
2.78037e-06
2.62863e-06
2.45709e-06
2.27268e-06
2.08128e-06
1.88788e-06
1.69661e-06
1.51075e-06
1.33281e-06
1.1646e-06
1.00731e-06
8.6156e-07
7.27506e-07
6.04867e-07
4.92967e-07
3.90828e-07
2.97178e-07
2.10492e-07
1.28915e-07
4.99735e-08
0.000276215
0.00025365
0.000227354
0.000197617
0.000165069
0.000130805
9.6019e-05
6.17798e-05
2.89805e-05
-1.66121e-06
-2.96046e-05
-5.44893e-05
-7.61283e-05
-9.44892e-05
-0.000109667
-0.000121856
-0.000131316
-0.000138351
-0.000143279
-0.00014642
-0.000148075
-0.000148521
-0.000148004
-0.000146737
-0.000144903
-0.000142651
-0.000140106
-0.000137366
-0.000134509
-0.000131594
-0.000128666
-0.000125756
-0.000122887
-0.000120068
-0.000117303
-0.00011459
-0.000111918
-0.000109272
-0.000106631
-0.000103968
-0.000101255
-9.84551e-05
-9.55321e-05
-9.24463e-05
-8.91589e-05
-8.56344e-05
-8.18444e-05
-7.77721e-05
-7.34167e-05
-6.87961e-05
-6.3948e-05
-5.89287e-05
-5.38088e-05
-4.86671e-05
-4.35844e-05
-3.86377e-05
-3.38947e-05
-2.94104e-05
-2.52265e-05
-2.13707e-05
-1.78578e-05
-1.46939e-05
-1.18751e-05
-9.38925e-06
-7.21874e-06
-5.34261e-06
-3.7378e-06
-2.38019e-06
-1.24555e-06
-3.1022e-07
4.48394e-07
1.05152e-06
1.51884e-06
1.86847e-06
2.11692e-06
2.27916e-06
2.3687e-06
2.39769e-06
2.37699e-06
2.3163e-06
2.22421e-06
2.1083e-06
1.97519e-06
1.83061e-06
1.67949e-06
1.52595e-06
1.37344e-06
1.2247e-06
1.08186e-06
9.46439e-07
8.19477e-07
7.01539e-07
5.92783e-07
4.93009e-07
4.01684e-07
3.17987e-07
2.40816e-07
1.68806e-07
1.00381e-07
3.41968e-08
0.000198164
0.000182264
0.000163948
0.000143338
0.000120776
9.69349e-05
7.25859e-05
4.84428e-05
2.51195e-05
3.12463e-06
-1.71431e-05
-3.54005e-05
-5.14789e-05
-6.53148e-05
-7.69352e-05
-8.6439e-05
-9.39792e-05
-9.97443e-05
-0.000103942
-0.000106787
-0.000108486
-0.000109237
-0.000109219
-0.000108588
-0.000107483
-0.00010602
-0.000104296
-0.000102388
-0.000100361
-9.82645e-05
-9.61349e-05
-9.4e-05
-9.18786e-05
-8.97819e-05
-8.77147e-05
-8.56762e-05
-8.36605e-05
-8.16574e-05
-7.96523e-05
-7.76274e-05
-7.5561e-05
-7.34292e-05
-7.12059e-05
-6.88644e-05
-6.63786e-05
-6.37253e-05
-6.08867e-05
-5.78529e-05
-5.46246e-05
-5.12149e-05
-4.76497e-05
-4.39671e-05
-4.02147e-05
-3.6446e-05
-3.27166e-05
-2.90798e-05
-2.55835e-05
-2.22679e-05
-1.91639e-05
-1.62934e-05
-1.36691e-05
-1.12963e-05
-9.17537e-06
-7.29895e-06
-5.65468e-06
-4.22828e-06
-3.00385e-06
-1.96432e-06
-1.09223e-06
-3.70355e-07
2.179e-07
6.88238e-07
1.05532e-06
1.33269e-06
1.53274e-06
1.66675e-06
1.7449e-06
1.77639e-06
1.76941e-06
1.73132e-06
1.66862e-06
1.58707e-06
1.49168e-06
1.38684e-06
1.27628e-06
1.16319e-06
1.05019e-06
9.39413e-07
8.32526e-07
7.30753e-07
6.34932e-07
5.45556e-07
4.62798e-07
3.86552e-07
3.1644e-07
2.5183e-07
1.91811e-07
1.35154e-07
8.02293e-08
2.49221e-08
0.000120351
0.000110807
9.99057e-05
8.76907e-05
7.43306e-05
6.01888e-05
4.5694e-05
3.12521e-05
1.72197e-05
3.89937e-06
-8.4656e-06
-1.96953e-05
-2.96742e-05
-3.83475e-05
-4.5714e-05
-5.18163e-05
-5.67314e-05
-6.05599e-05
-6.34173e-05
-6.54256e-05
-6.67067e-05
-6.73772e-05
-6.75454e-05
-6.73087e-05
-6.67527e-05
-6.59512e-05
-6.49662e-05
-6.38492e-05
-6.26417e-05
-6.13767e-05
-6.00797e-05
-5.87695e-05
-5.74593e-05
-5.61575e-05
-5.48683e-05
-5.35919e-05
-5.23257e-05
-5.10639e-05
-4.97981e-05
-4.85176e-05
-4.721e-05
-4.58609e-05
-4.44552e-05
-4.29773e-05
-4.14124e-05
-3.97475e-05
-3.79727e-05
-3.60829e-05
-3.40792e-05
-3.19694e-05
-2.97687e-05
-2.74992e-05
-2.51883e-05
-2.28672e-05
-2.05681e-05
-1.83227e-05
-1.61597e-05
-1.41036e-05
-1.21737e-05
-1.03841e-05
-8.74327e-06
-7.25501e-06
-5.92078e-06
-4.73784e-06
-3.69832e-06
-2.794e-06
-2.01571e-06
-1.35327e-06
-7.96098e-07
-3.33638e-07
4.43444e-08
3.47605e-07
5.85306e-07
7.65949e-07
8.97349e-07
9.86637e-07
1.04028e-06
1.06412e-06
1.06338e-06
1.04274e-06
1.00636e-06
9.57897e-07
9.00568e-07
8.37151e-07
7.70031e-07
7.01219e-07
6.32384e-07
5.64867e-07
4.99711e-07
4.37685e-07
3.79308e-07
3.24877e-07
2.74487e-07
2.28048e-07
1.85288e-07
1.45742e-07
1.08703e-07
7.31272e-08
3.74637e-08
6.98718e-11
4.08452e-05
3.75889e-05
3.38728e-05
2.97236e-05
2.51987e-05
2.04149e-05
1.55112e-05
1.0621e-05
5.86251e-06
1.33703e-06
-2.87324e-06
-6.70677e-06
-1.01232e-05
-1.31021e-05
-1.56412e-05
-1.77529e-05
-1.94615e-05
-2.07994e-05
-2.18044e-05
-2.25172e-05
-2.29783e-05
-2.32272e-05
-2.33007e-05
-2.3232e-05
-2.30507e-05
-2.27821e-05
-2.2448e-05
-2.20663e-05
-2.16515e-05
-2.12154e-05
-2.07667e-05
-2.03124e-05
-1.98569e-05
-1.94035e-05
-1.89535e-05
-1.85073e-05
-1.80637e-05
-1.76211e-05
-1.71764e-05
-1.67262e-05
-1.62662e-05
-1.57918e-05
-1.52978e-05
-1.47792e-05
-1.42313e-05
-1.36499e-05
-1.3032e-05
-1.23763e-05
-1.16832e-05
-1.09556e-05
-1.01987e-05
-9.4197e-06
-8.6277e-06
-7.83294e-06
-7.04612e-06
-6.27765e-06
-5.53708e-06
-4.83259e-06
-4.17069e-06
-3.55623e-06
-2.99279e-06
-2.48215e-06
-2.02348e-06
-1.61485e-06
-1.25526e-06
-9.42107e-07
-6.72133e-07
-4.41877e-07
-2.47768e-07
-8.62316e-08
4.62169e-08
1.52902e-07
2.36944e-07
3.01239e-07
3.48442e-07
3.80972e-07
4.01018e-07
4.10551e-07
4.11337e-07
4.04956e-07
3.92813e-07
3.76153e-07
3.56075e-07
3.33538e-07
3.09378e-07
2.84311e-07
2.58942e-07
2.33773e-07
2.09208e-07
1.85561e-07
1.6306e-07
1.41856e-07
1.22027e-07
1.03578e-07
8.64344e-08
7.04114e-08
5.51151e-08
3.9643e-08
2.15373e-08
-6.38002e-09
6.75352e-05
7.0144e-05
7.6052e-05
8.49105e-05
9.64918e-05
0.000110858
0.000128207
0.000148775
0.000172839
0.00020072
0.0002328
0.000269532
0.000311454
0.000359224
0.000413662
0.000475823
0.000547114
0.000629478
0.000725714
0.000840061
0.000979348
0.00115551
0.00139192
0.00174706
0.00239597
6.72655e-05
6.9787e-05
7.55956e-05
8.43432e-05
9.57973e-05
0.000110017
0.000127193
0.000147561
0.000171389
0.000198992
0.000230745
0.000267086
0.00030854
0.000355739
0.00040947
0.000470737
0.000540863
0.000621654
0.000715662
0.00082665
0.000960419
0.00112631
0.00133966
0.00162228
0.00197664
6.67861e-05
6.92393e-05
7.49481e-05
8.35767e-05
9.48895e-05
0.00010894
0.000125917
0.000146049
0.000169599
0.000196874
0.000228235
0.000264109
0.000304995
0.000351495
0.000404347
0.00046448
0.000533096
0.000611795
0.000702759
0.000809041
0.000934936
0.00108627
0.00126924
0.00148121
0.00167282
6.60476e-05
6.8436e-05
7.40245e-05
8.24998e-05
9.3626e-05
0.000107452
0.000124158
0.00014397
0.000167139
0.000193962
0.000224785
0.000260011
0.000300109
0.000345634
0.000397256
0.000455797
0.000522289
0.000598046
0.000684755
0.000784549
0.000899927
0.00103305
0.00118278
0.00133503
0.00143972
6.49812e-05
6.72998e-05
7.2742e-05
8.10218e-05
9.19065e-05
0.000105438
0.00012179
0.000141179
0.000163847
0.000190073
0.000220183
0.000254551
0.000293603
0.000337836
0.000387828
0.000444261
0.000507949
0.000579853
0.000661064
0.000752686
0.000855411
0.0009683
0.00108564
0.00119006
0.00124228
6.35072e-05
6.57474e-05
7.10142e-05
7.90494e-05
8.96265e-05
0.00010278
0.000118677
0.00013752
0.000159537
0.00018499
0.000214177
0.000247434
0.000285136
0.000327702
0.000375599
0.000429342
0.000489487
0.000556592
0.000631115
0.000713154
0.000801861
0.000894174
0.000982395
0.00105046
0.00107105
6.15309e-05
6.36801e-05
6.87362e-05
7.6467e-05
8.66557e-05
9.93303e-05
0.000114646
0.000132792
0.000153981
0.000178448
0.00020646
0.000238307
0.000274303
0.000314774
0.000360059
0.000410484
0.000466324
0.000527726
0.000594544
0.000666026
0.000740229
0.000813023
0.00087663
0.000918187
0.00092017
5.89413e-05
6.09824e-05
6.57844e-05
7.3139e-05
8.28418e-05
9.49146e-05
0.000109499
0.000126769
0.000146915
0.000170146
0.000196688
0.000226781
0.000260665
0.000298568
0.000340687
0.000387149
0.000437957
0.000492874
0.000551256
0.000611741
0.000671804
0.000727121
0.00077093
0.000793875
0.000785351
5.57757e-05
5.76935e-05
6.22042e-05
6.91199e-05
7.82505e-05
8.96123e-05
0.000103333
0.000119568
0.000138485
0.000160263
0.000185086
0.000213141
0.000244593
0.000279573
0.000318144
0.000360256
0.000405677
0.000453884
0.000503898
0.000554053
0.000601694
0.000642875
0.000672202
0.000683183
0.000669521
5.20025e-05
5.37806e-05
5.79591e-05
6.43694e-05
7.28372e-05
8.33739e-05
9.60919e-05
0.000111128
0.000128625
0.000148729
0.000171586
0.000197325
0.000226045
0.000257782
0.000292484
0.000329954
0.000369782
0.000411253
0.000453212
0.000493916
0.000530872
0.000560758
0.000579515
0.000582824
0.000567075
4.73365e-05
4.89476e-05
5.2729e-05
5.85319e-05
6.61997e-05
7.57397e-05
8.72477e-05
0.000100839
0.000116631
0.000134737
0.000155261
0.000178281
0.00020383
0.000231864
0.000262235
0.000294634
0.000328541
0.00036314
0.000397243
0.000429207
0.000456888
0.000477682
0.000488718
0.000487275
0.00047142
4.16329e-05
4.30448e-05
4.63535e-05
5.14312e-05
5.81415e-05
6.6488e-05
7.65491e-05
8.84183e-05
0.000102186
0.000117933
0.000135726
0.000155596
0.000177523
0.000201403
0.000227022
0.000254012
0.000281808
0.000309596
0.000336274
0.000360425
0.000380342
0.000394115
0.00039983
0.000395872
0.000381299
3.47463e-05
3.59219e-05
3.86718e-05
4.28905e-05
4.84653e-05
5.53968e-05
6.37459e-05
7.35833e-05
8.49738e-05
9.79706e-05
0.000112607
0.000128879
0.000146731
0.000166027
0.000186528
0.000207861
0.000229488
0.000250685
0.000270523
0.000287885
0.000301509
0.000310089
0.000312426
0.000307622
0.000295283
2.65449e-05
2.74427e-05
2.95373e-05
3.27486e-05
3.69912e-05
4.22643e-05
4.8611e-05
5.60805e-05
6.47147e-05
7.45437e-05
8.55776e-05
9.77944e-05
0.000111124
0.000125431
0.000140496
0.000155997
0.00017149
0.000186405
0.000200049
0.000211624
0.000220284
0.000225207
0.000225697
0.000221298
0.000211889
1.69333e-05
1.75075e-05
1.88422e-05
2.0886e-05
2.35849e-05
2.69378e-05
3.09706e-05
3.57119e-05
4.11847e-05
4.74025e-05
5.43641e-05
6.20449e-05
7.03874e-05
7.92896e-05
8.85945e-05
9.80796e-05
0.000107451
0.000116342
0.000124322
0.000130917
0.000135645
0.000138063
0.000137819
0.000134713
0.000128734
5.88695e-06
6.08897e-06
6.5558e-06
7.26926e-06
8.21086e-06
9.38033e-06
1.07866e-05
1.24393e-05
1.4346e-05
1.65104e-05
1.8931e-05
2.15971e-05
2.44864e-05
2.75601e-05
3.07601e-05
3.40053e-05
3.71903e-05
4.01859e-05
4.28434e-05
4.50026e-05
4.65044e-05
4.72071e-05
4.70041e-05
4.58404e-05
4.3724e-05
)
;

boundaryField
{
    top
    {
        type            fixedValue;
        value           uniform 0;
    }
    inlet
    {
        type            zeroGradient;
    }
    outlet
    {
        type            fixedValue;
        value           uniform 0;
    }
    plate
    {
        type            zeroGradient;
    }
    symmBound
    {
        type            zeroGradient;
    }
    frontAndBack
    {
        type            empty;
    }
}


// ************************************************************************* //
