/*--------------------------------*- C++ -*----------------------------------*\
| =========                 |                                                 |
| \\      /  F ield         | OpenFOAM: The Open Source CFD Toolbox           |
|  \\    /   O peration     | Version:  2.3.0                                 |
|   \\  /    A nd           | Web:      www.OpenFOAM.org                      |
|    \\/     M anipulation  |                                                 |
\*---------------------------------------------------------------------------*/
FoamFile
{
    version     2.0;
    format      ascii;
    class       surfaceScalarField;
    location    "0.2";
    object      phi_0;
}
// * * * * * * * * * * * * * * * * * * * * * * * * * * * * * * * * * * * * * //

dimensions      [0 3 -1 0 0 0 0];

internalField   nonuniform List<scalar> 
3859
(
2.80115e-08
2.9144e-09
-3.09258e-08
2.51176e-08
2.89388e-09
2.24033e-08
2.71428e-09
1.99035e-08
2.4998e-09
1.76356e-08
2.26786e-09
1.56113e-08
2.02429e-09
1.38335e-08
1.77789e-09
1.22965e-08
1.53698e-09
1.09878e-08
1.30863e-09
9.88921e-09
1.09864e-09
8.97798e-09
9.11227e-10
8.22915e-09
7.4883e-10
7.61714e-09
6.12013e-10
7.11741e-09
4.99722e-10
6.70772e-09
4.09692e-10
6.36881e-09
3.38912e-10
6.08473e-09
2.84082e-10
5.84275e-09
2.41977e-10
5.63306e-09
2.09688e-10
5.44831e-09
1.84757e-10
5.28309e-09
1.65212e-10
5.13356e-09
1.49538e-10
4.99694e-09
1.36618e-10
4.87128e-09
1.25657e-10
4.75518e-09
1.16104e-10
4.64759e-09
1.07589e-10
4.54772e-09
9.98676e-11
4.45494e-09
9.27778e-11
4.36873e-09
8.62129e-11
4.28863e-09
8.00994e-11
4.21425e-09
7.43835e-11
4.14522e-09
6.9023e-11
4.08124e-09
6.39819e-11
4.02201e-09
5.92281e-11
3.96728e-09
5.47321e-11
3.91682e-09
5.04665e-11
3.87041e-09
4.64067e-11
3.82788e-09
4.25299e-11
3.78906e-09
3.88156e-11
3.75382e-09
3.52432e-11
3.72203e-09
3.17883e-11
3.69362e-09
2.84148e-11
3.66855e-09
2.5064e-11
3.64691e-09
2.16421e-11
3.6289e-09
1.80083e-11
3.61497e-09
1.39323e-11
3.60586e-09
9.11501e-12
3.60246e-09
3.39454e-12
3.60424e-09
-1.77535e-12
3.60987e-09
-5.63497e-12
3.61845e-09
-8.58276e-12
3.6293e-09
-1.08496e-11
3.64171e-09
-1.24028e-11
3.655e-09
-1.32895e-11
3.66857e-09
-1.35739e-11
3.68193e-09
-1.33567e-11
3.69469e-09
-1.27665e-11
3.70662e-09
-1.1929e-11
3.71757e-09
-1.09503e-11
3.72748e-09
-9.91192e-12
3.73636e-09
-8.87157e-12
3.74422e-09
-7.86743e-12
3.75115e-09
-6.92252e-12
3.75719e-09
-6.0491e-12
3.76245e-09
-5.2521e-12
3.76698e-09
-4.53166e-12
3.77086e-09
-3.88511e-12
3.77417e-09
-3.3082e-12
3.77697e-09
-2.79594e-12
3.77931e-09
-2.34312e-12
3.78126e-09
-1.9447e-12
3.78285e-09
-1.5958e-12
3.78414e-09
-1.29192e-12
3.78517e-09
-1.02889e-12
3.78597e-09
-8.02839e-13
3.78658e-09
-6.1017e-13
3.78703e-09
-4.4772e-13
3.78735e-09
-3.12687e-13
3.78755e-09
-2.02709e-13
3.78766e-09
-1.15825e-13
3.78771e-09
-4.95646e-14
3.78771e-09
1.74479e-15
3.78767e-09
4.62266e-14
3.78758e-09
8.21093e-14
3.78747e-09
1.10665e-13
3.78734e-09
1.32073e-13
3.7872e-09
1.40337e-13
3.78706e-09
1.41587e-13
3.78692e-09
1.3966e-13
3.78678e-09
1.35487e-13
3.78665e-09
1.28729e-13
3.78654e-09
1.17899e-13
3.78643e-09
1.05753e-13
3.78634e-09
9.31446e-14
3.78626e-09
8.05871e-14
3.78619e-09
6.83661e-14
3.78613e-09
5.64004e-14
3.78609e-09
4.42203e-14
3.78606e-09
3.10268e-14
1.72563e-14
3.59222e-08
3.19615e-09
-3.62039e-08
3.53157e-08
3.50037e-09
3.44655e-08
3.56448e-09
3.34497e-08
3.51562e-09
3.23252e-08
3.39228e-09
3.11395e-08
3.21003e-09
2.99311e-08
2.98629e-09
2.87299e-08
2.73818e-09
2.75581e-08
2.48043e-09
2.64315e-08
2.22523e-09
2.53605e-08
1.98222e-09
2.43511e-08
1.75826e-09
2.34058e-08
1.55733e-09
2.25246e-08
1.38092e-09
2.17058e-08
1.2285e-09
2.09464e-08
1.09822e-09
2.02431e-08
9.87446e-10
1.95918e-08
8.93276e-10
1.89886e-08
8.12879e-10
1.84296e-08
7.43701e-10
1.79113e-08
6.8357e-10
1.74301e-08
6.30709e-10
1.6983e-08
5.83711e-10
1.65672e-08
5.41485e-10
1.61801e-08
5.03194e-10
1.58195e-08
4.68202e-10
1.54833e-08
4.36015e-10
1.51699e-08
4.0625e-10
1.48775e-08
3.78601e-10
1.46048e-08
3.52812e-10
1.43505e-08
3.28669e-10
1.41135e-08
3.05985e-10
1.38929e-08
2.84593e-10
1.36878e-08
2.64344e-10
1.34974e-08
2.45099e-10
1.33212e-08
2.26734e-10
1.31584e-08
2.09136e-10
1.30088e-08
1.92197e-10
1.28718e-08
1.75817e-10
1.27471e-08
1.59893e-10
1.26346e-08
1.44312e-10
1.25341e-08
1.28932e-10
1.24456e-08
1.13566e-10
1.23693e-08
9.7962e-11
1.23055e-08
8.18058e-11
1.22546e-08
6.47459e-11
1.22173e-08
4.64521e-11
1.21942e-08
2.64852e-11
1.21867e-08
5.74438e-12
1.21929e-08
-1.18621e-11
1.22088e-08
-2.44467e-11
1.22315e-08
-3.36063e-11
1.2259e-08
-3.98688e-11
1.22894e-08
-4.36709e-11
1.23212e-08
-4.53529e-11
1.23531e-08
-4.52954e-11
1.23843e-08
-4.39196e-11
1.2414e-08
-4.16257e-11
1.24418e-08
-3.87565e-11
1.24674e-08
-3.55812e-11
1.24909e-08
-3.22986e-11
1.2512e-08
-2.90467e-11
1.2531e-08
-2.59155e-11
1.25479e-08
-2.29595e-11
1.25629e-08
-2.02083e-11
1.2576e-08
-1.76745e-11
1.25875e-08
-1.53597e-11
1.25975e-08
-1.32589e-11
1.2606e-08
-1.13634e-11
1.26134e-08
-9.66221e-12
1.26196e-08
-8.14374e-12
1.26248e-08
-6.79601e-12
1.26291e-08
-5.60714e-12
1.26326e-08
-4.56554e-12
1.26355e-08
-3.65988e-12
1.26377e-08
-2.87911e-12
1.26395e-08
-2.21267e-12
1.26408e-08
-1.65055e-12
1.26418e-08
-1.18328e-12
1.26425e-08
-8.01792e-13
1.2643e-08
-4.96953e-13
1.26432e-08
-2.60716e-13
1.26433e-08
-8.19433e-14
1.26434e-08
5.33864e-14
1.26433e-08
1.70133e-13
1.26432e-08
2.60752e-13
1.2643e-08
3.1241e-13
1.26428e-08
3.40844e-13
1.26426e-08
3.54379e-13
1.26424e-08
3.56115e-13
1.26422e-08
3.46895e-13
1.2642e-08
3.24508e-13
1.26418e-08
2.96188e-13
1.26416e-08
2.64639e-13
1.26414e-08
2.31852e-13
1.26413e-08
1.98942e-13
1.26412e-08
1.66141e-13
1.26411e-08
1.32449e-13
1.2641e-08
9.60366e-14
4.82795e-14
4.05853e-08
3.02261e-09
-4.04118e-08
4.06765e-08
3.40916e-09
4.06406e-08
3.6004e-09
4.04794e-08
3.67681e-09
4.02008e-08
3.67089e-09
3.98171e-08
3.59378e-09
3.93447e-08
3.45869e-09
3.88014e-08
3.28148e-09
3.82044e-08
3.07742e-09
3.75695e-08
2.86015e-09
3.69104e-08
2.64125e-09
3.62389e-08
2.42976e-09
3.55643e-08
2.23198e-09
3.48937e-08
2.05154e-09
3.42324e-08
1.8898e-09
3.35841e-08
1.74645e-09
3.29515e-08
1.62008e-09
3.23361e-08
1.50868e-09
3.17389e-08
1.41006e-09
3.11605e-08
1.32208e-09
3.06013e-08
1.24285e-09
3.00612e-08
1.17079e-09
2.95403e-08
1.10457e-09
2.90386e-08
1.04319e-09
2.8556e-08
9.85835e-10
2.80923e-08
9.31902e-10
2.76474e-08
8.80911e-10
2.72211e-08
8.32491e-10
2.68134e-08
7.8634e-10
2.6424e-08
7.42208e-10
2.60528e-08
6.99878e-10
2.56996e-08
6.59159e-10
2.53643e-08
6.19875e-10
2.50468e-08
5.81861e-10
2.4747e-08
5.44962e-10
2.44647e-08
5.09032e-10
2.41999e-08
4.73927e-10
2.39526e-08
4.39506e-10
2.37227e-08
4.05627e-10
2.35105e-08
3.72132e-10
2.3316e-08
3.38845e-10
2.31394e-08
3.05548e-10
2.29809e-08
2.71979e-10
2.28411e-08
2.37829e-10
2.27201e-08
2.02787e-10
2.26182e-08
1.66655e-10
2.2535e-08
1.29608e-10
2.2469e-08
9.25119e-11
2.24184e-08
5.63118e-11
2.23862e-08
2.04114e-11
2.23742e-08
-1.25046e-11
2.23787e-08
-3.80527e-11
2.23952e-08
-5.64365e-11
2.24207e-08
-6.91576e-11
2.24525e-08
-7.71007e-11
2.24883e-08
-8.10908e-11
2.25263e-08
-8.19643e-11
2.25652e-08
-8.05013e-11
2.26038e-08
-7.73796e-11
2.26414e-08
-7.31554e-11
2.26773e-08
-6.82627e-11
2.27113e-08
-6.30256e-11
2.27431e-08
-5.76775e-11
2.27725e-08
-5.23803e-11
2.27995e-08
-4.72421e-11
2.28242e-08
-4.23321e-11
2.28465e-08
-3.76925e-11
2.28666e-08
-3.33468e-11
2.28846e-08
-2.93064e-11
2.29005e-08
-2.55744e-11
2.29145e-08
-2.21489e-11
2.29267e-08
-1.90246e-11
2.29373e-08
-1.61939e-11
2.29464e-08
-1.36471e-11
2.29541e-08
-1.13731e-11
2.29606e-08
-9.35975e-12
2.2966e-08
-7.59335e-12
2.29704e-08
-6.05939e-12
2.29739e-08
-4.74225e-12
2.29767e-08
-3.62498e-12
2.29789e-08
-2.68894e-12
2.29806e-08
-1.91428e-12
2.29818e-08
-1.28038e-12
2.29826e-08
-7.77539e-13
2.29832e-08
-3.95416e-13
2.29836e-08
-1.20747e-13
2.29838e-08
6.49231e-14
2.29839e-08
2.09683e-13
2.2984e-08
3.18073e-13
2.29839e-08
3.90001e-13
2.29839e-08
4.28851e-13
2.29838e-08
4.33452e-13
2.29836e-08
4.19079e-13
2.29835e-08
3.91245e-13
2.29834e-08
3.54856e-13
2.29833e-08
3.13029e-13
2.29832e-08
2.67388e-13
2.29831e-08
2.17141e-13
2.2983e-08
1.59216e-13
7.26772e-14
4.50807e-08
2.80894e-09
-4.4867e-08
4.53114e-08
3.17842e-09
4.55075e-08
3.40432e-09
4.5653e-08
3.53127e-09
4.57389e-08
3.585e-09
4.57584e-08
3.57428e-09
4.57095e-08
3.50757e-09
4.55946e-08
3.39645e-09
4.54187e-08
3.25331e-09
4.51889e-08
3.08992e-09
4.49134e-08
2.91677e-09
4.46005e-08
2.74266e-09
4.42582e-08
2.57428e-09
4.38937e-08
2.41607e-09
4.3513e-08
2.27049e-09
4.31211e-08
2.13833e-09
4.2722e-08
2.01922e-09
4.23186e-08
1.91205e-09
4.19133e-08
1.81533e-09
4.15079e-08
1.72748e-09
4.11038e-08
1.64698e-09
4.07021e-08
1.5725e-09
4.03038e-08
1.5029e-09
3.99097e-08
1.43728e-09
3.95206e-08
1.3749e-09
3.91373e-08
1.3152e-09
3.87605e-08
1.25772e-09
3.83909e-08
1.20212e-09
3.80291e-08
1.14811e-09
3.76759e-08
1.09546e-09
3.73318e-08
1.04397e-09
3.69975e-08
9.93459e-10
3.66736e-08
9.43756e-10
3.63607e-08
8.94708e-10
3.60595e-08
8.46161e-10
3.57706e-08
7.97967e-10
3.54946e-08
7.49978e-10
3.5232e-08
7.02041e-10
3.49837e-08
6.53994e-10
3.47501e-08
6.05659e-10
3.45321e-08
5.56834e-10
3.43304e-08
5.07284e-10
3.41456e-08
4.56753e-10
3.39785e-08
4.04996e-10
3.38294e-08
3.51863e-10
3.36986e-08
2.97459e-10
3.35858e-08
2.42356e-10
3.34906e-08
1.87769e-10
3.34115e-08
1.35397e-10
3.33451e-08
8.67662e-11
3.3291e-08
4.16319e-11
3.32528e-08
1.47312e-13
3.32311e-08
-3.46925e-11
3.32233e-08
-6.14422e-11
3.32273e-08
-8.11041e-11
3.32409e-08
-9.46407e-11
3.3262e-08
-1.03066e-10
3.32889e-08
-1.0737e-10
3.33199e-08
-1.0846e-10
3.33539e-08
-1.07125e-10
3.33897e-08
-1.04018e-10
3.34263e-08
-9.96621e-11
3.34631e-08
-9.44617e-11
3.34994e-08
-8.87256e-11
3.35349e-08
-8.26842e-11
3.35691e-08
-7.65075e-11
3.36017e-08
-7.03207e-11
3.36326e-08
-6.42159e-11
3.36615e-08
-5.82614e-11
3.36884e-08
-5.25088e-11
3.37133e-08
-4.69978e-11
3.3736e-08
-4.17595e-11
3.37567e-08
-3.68183e-11
3.37752e-08
-3.21938e-11
3.37917e-08
-2.79005e-11
3.38063e-08
-2.39487e-11
3.38191e-08
-2.03444e-11
3.38301e-08
-1.70888e-11
3.38395e-08
-1.41788e-11
3.38475e-08
-1.16059e-11
3.38542e-08
-9.35641e-12
3.38597e-08
-7.41238e-12
3.38641e-08
-5.75322e-12
3.38677e-08
-4.36182e-12
3.38706e-08
-3.21733e-12
3.38727e-08
-2.291e-12
3.38744e-08
-1.55929e-12
3.38755e-08
-9.87398e-13
3.38764e-08
-5.53877e-13
3.38771e-08
-2.41519e-13
3.38775e-08
-2.76037e-14
3.38778e-08
1.06978e-13
3.38781e-08
1.98222e-13
3.38782e-08
2.50758e-13
3.38783e-08
2.72808e-13
3.38783e-08
2.70999e-13
3.38783e-08
2.50573e-13
3.38783e-08
2.13034e-13
3.38783e-08
1.56568e-13
5.36152e-14
4.99553e-08
2.62373e-09
-4.97701e-08
5.01846e-08
2.94911e-09
5.04161e-08
3.17286e-09
5.06331e-08
3.3143e-09
5.08262e-08
3.39187e-09
5.09865e-08
3.41394e-09
5.11072e-08
3.3869e-09
5.11844e-08
3.31924e-09
5.12171e-08
3.22058e-09
5.12067e-08
3.1004e-09
5.1156e-08
2.96739e-09
5.10696e-08
2.82911e-09
5.09522e-08
2.69163e-09
5.0809e-08
2.55932e-09
5.06445e-08
2.43495e-09
5.0463e-08
2.3199e-09
5.02677e-08
2.21446e-09
5.00616e-08
2.11818e-09
4.98468e-08
2.03015e-09
4.9625e-08
1.94927e-09
4.93976e-08
1.87439e-09
4.91656e-08
1.80444e-09
4.89301e-08
1.73846e-09
4.86917e-08
1.67564e-09
4.84513e-08
1.61533e-09
4.82095e-08
1.55698e-09
4.7967e-08
1.50017e-09
4.77246e-08
1.44454e-09
4.74829e-08
1.38982e-09
4.72426e-08
1.33576e-09
4.70044e-08
1.28214e-09
4.67691e-08
1.22879e-09
4.65373e-08
1.17552e-09
4.63099e-08
1.12217e-09
4.60875e-08
1.06857e-09
4.58709e-08
1.01457e-09
4.56609e-08
9.59992e-10
4.54582e-08
9.04676e-10
4.52638e-08
8.48443e-10
4.50783e-08
7.91102e-10
4.49027e-08
7.32448e-10
4.47377e-08
6.72265e-10
4.45841e-08
6.10355e-10
4.44425e-08
5.46589e-10
4.43134e-08
4.81011e-10
4.41969e-08
4.13982e-10
4.40929e-08
3.46338e-10
4.40012e-08
2.79464e-10
4.39215e-08
2.15125e-10
4.38532e-08
1.55074e-10
4.37942e-08
1.00574e-10
4.37425e-08
5.1872e-11
4.36992e-08
8.56087e-12
4.36663e-08
-2.85006e-11
4.36433e-08
-5.81259e-11
4.36296e-08
-8.09207e-11
4.36243e-08
-9.7783e-11
4.36265e-08
-1.09599e-10
4.36353e-08
-1.17237e-10
4.36497e-08
-1.21494e-10
4.36687e-08
-1.23066e-10
4.36916e-08
-1.22537e-10
4.37175e-08
-1.20383e-10
4.37458e-08
-1.16986e-10
4.37758e-08
-1.12648e-10
4.38069e-08
-1.07605e-10
4.38386e-08
-1.02044e-10
4.38705e-08
-9.61122e-11
4.39021e-08
-8.99283e-11
4.39332e-08
-8.35903e-11
4.39634e-08
-7.71814e-11
4.39924e-08
-7.07741e-11
4.402e-08
-6.44338e-11
4.40461e-08
-5.82201e-11
4.40703e-08
-5.2188e-11
4.40928e-08
-4.6388e-11
4.41133e-08
-4.08658e-11
4.41319e-08
-3.56615e-11
4.41485e-08
-3.08087e-11
4.41632e-08
-2.63334e-11
4.41761e-08
-2.2253e-11
4.41873e-08
-1.85764e-11
4.41968e-08
-1.53049e-11
4.42049e-08
-1.24352e-11
4.42117e-08
-9.95537e-12
4.42172e-08
-7.84258e-12
4.42217e-08
-6.07119e-12
4.42253e-08
-4.60741e-12
4.42282e-08
-3.41901e-12
4.42304e-08
-2.47329e-12
4.42321e-08
-1.73487e-12
4.42334e-08
-1.17542e-12
4.42344e-08
-7.5727e-13
4.42351e-08
-4.54785e-13
4.42356e-08
-2.44732e-13
4.4236e-08
-1.07888e-13
4.42363e-08
-2.77463e-14
4.42365e-08
6.85016e-15
4.42366e-08
2.37492e-15
-5.88462e-14
5.53334e-08
2.46871e-09
-5.51783e-08
5.55365e-08
2.74599e-09
5.57558e-08
2.95359e-09
5.59744e-08
3.09567e-09
5.61833e-08
3.18293e-09
5.63749e-08
3.22236e-09
5.65425e-08
3.21926e-09
5.66817e-08
3.18005e-09
5.67901e-08
3.11221e-09
5.68671e-08
3.02337e-09
5.69139e-08
2.92066e-09
5.69326e-08
2.81043e-09
5.69263e-08
2.69793e-09
5.68984e-08
2.5872e-09
5.68523e-08
2.48101e-09
5.67912e-08
2.38098e-09
5.67178e-08
2.28783e-09
5.66345e-08
2.20156e-09
5.65429e-08
2.12175e-09
5.64445e-08
2.04768e-09
5.63403e-08
1.97853e-09
5.62313e-08
1.91349e-09
5.6118e-08
1.85176e-09
5.60009e-08
1.79268e-09
5.58806e-08
1.73564e-09
5.57575e-08
1.68014e-09
5.56318e-08
1.62577e-09
5.55042e-08
1.57219e-09
5.53749e-08
1.51909e-09
5.52445e-08
1.46621e-09
5.51133e-08
1.41334e-09
5.49818e-08
1.36026e-09
5.48506e-08
1.30677e-09
5.472e-08
1.25268e-09
5.45908e-08
1.19783e-09
5.44633e-08
1.14202e-09
5.43383e-08
1.08507e-09
5.42161e-08
1.02681e-09
5.40975e-08
9.67041e-10
5.39831e-08
9.05579e-10
5.38733e-08
8.42232e-10
5.37687e-08
7.76829e-10
5.36698e-08
7.09246e-10
5.35769e-08
6.39474e-10
5.34902e-08
5.67705e-10
5.34098e-08
4.94455e-10
5.33354e-08
4.20663e-10
5.32672e-08
3.4771e-10
5.32051e-08
2.77266e-10
5.31491e-08
2.11008e-10
5.30994e-08
1.50319e-10
5.30551e-08
9.61094e-11
5.30151e-08
4.85958e-11
5.29793e-08
7.33663e-12
5.29489e-08
-2.78122e-11
5.29243e-08
-5.62741e-11
5.29054e-08
-7.88409e-11
5.2892e-08
-9.62276e-11
5.28839e-08
-1.0918e-10
5.28808e-08
-1.18407e-10
5.28823e-08
-1.24547e-10
5.28879e-08
-1.28156e-10
5.28973e-08
-1.29697e-10
5.29098e-08
-1.29554e-10
5.29252e-08
-1.28037e-10
5.2943e-08
-1.25398e-10
5.29628e-08
-1.21836e-10
5.29842e-08
-1.17514e-10
5.30068e-08
-1.12567e-10
5.30304e-08
-1.07108e-10
5.30544e-08
-1.01235e-10
5.30787e-08
-9.50389e-11
5.31028e-08
-8.86021e-11
5.31266e-08
-8.20053e-11
5.31498e-08
-7.53272e-11
5.3172e-08
-6.86454e-11
5.31932e-08
-6.20361e-11
5.32131e-08
-5.55727e-11
5.32316e-08
-4.9325e-11
5.32486e-08
-4.33567e-11
5.32641e-08
-3.77237e-11
5.3278e-08
-3.24725e-11
5.32904e-08
-2.764e-11
5.33012e-08
-2.32533e-11
5.33105e-08
-1.93272e-11
5.33186e-08
-1.58618e-11
5.33253e-08
-1.28474e-11
5.3331e-08
-1.02628e-11
5.33357e-08
-8.07996e-12
5.33394e-08
-6.26602e-12
5.33425e-08
-4.78252e-12
5.33449e-08
-3.59177e-12
5.33468e-08
-2.6506e-12
5.33483e-08
-1.92083e-12
5.33494e-08
-1.36708e-12
5.33502e-08
-9.574e-13
5.33509e-08
-6.63997e-13
5.33513e-08
-4.65229e-13
5.33517e-08
-3.42966e-13
-2.86808e-13
6.12766e-08
2.33671e-09
-6.11446e-08
6.14528e-08
2.56977e-09
6.16505e-08
2.75584e-09
6.18541e-08
2.8921e-09
6.20541e-08
2.98294e-09
6.22434e-08
3.03305e-09
6.24161e-08
3.04655e-09
6.25679e-08
3.02825e-09
6.26963e-08
2.98385e-09
6.28002e-08
2.91939e-09
6.28802e-08
2.84066e-09
6.29377e-08
2.75294e-09
6.29749e-08
2.66074e-09
6.29945e-08
2.56767e-09
6.29991e-08
2.47637e-09
6.29915e-08
2.3886e-09
6.2974e-08
2.30535e-09
6.29485e-08
2.22697e-09
6.29169e-08
2.15341e-09
6.28802e-08
2.08432e-09
6.28396e-08
2.01918e-09
6.27957e-08
1.95742e-09
6.2749e-08
1.89846e-09
6.26999e-08
1.84174e-09
6.26488e-08
1.78676e-09
6.25958e-08
1.73309e-09
6.25412e-08
1.68036e-09
6.24852e-08
1.62821e-09
6.24279e-08
1.57637e-09
6.23696e-08
1.52457e-09
6.23104e-08
1.47257e-09
6.22505e-08
1.42016e-09
6.21901e-08
1.36713e-09
6.21295e-08
1.31329e-09
6.20689e-08
1.25843e-09
6.20085e-08
1.20237e-09
6.19487e-08
1.14492e-09
6.18896e-08
1.0859e-09
6.18315e-08
1.02512e-09
6.17747e-08
9.62411e-10
6.17193e-08
8.97618e-10
6.16655e-08
8.30619e-10
6.16134e-08
7.61367e-10
6.15629e-08
6.89944e-10
6.1514e-08
6.16633e-10
6.14664e-08
5.42006e-10
6.14201e-08
4.66983e-10
6.1375e-08
3.92823e-10
6.13313e-08
3.21006e-10
6.12893e-08
2.53021e-10
6.12494e-08
1.90154e-10
6.12122e-08
1.33355e-10
6.11776e-08
8.31672e-11
6.11454e-08
3.95482e-11
6.11156e-08
1.99202e-12
6.10889e-08
-2.96051e-11
6.10657e-08
-5.55782e-11
6.10459e-08
-7.65153e-11
6.10298e-08
-9.30475e-11
6.10172e-08
-1.0579e-10
6.1008e-08
-1.15312e-10
6.10019e-08
-1.22119e-10
6.09989e-08
-1.26647e-10
6.09986e-08
-1.29261e-10
6.10008e-08
-1.30262e-10
6.10053e-08
-1.29899e-10
6.10118e-08
-1.28372e-10
6.10202e-08
-1.25846e-10
6.10301e-08
-1.22458e-10
6.10413e-08
-1.18321e-10
6.10536e-08
-1.13539e-10
6.10667e-08
-1.08201e-10
6.10805e-08
-1.02396e-10
6.10947e-08
-9.62081e-11
6.11091e-08
-8.97233e-11
6.11235e-08
-8.30286e-11
6.11377e-08
-7.62126e-11
6.11515e-08
-6.93646e-11
6.11647e-08
-6.25735e-11
6.11773e-08
-5.59251e-11
6.11891e-08
-4.95001e-11
6.12e-08
-4.33718e-11
6.121e-08
-3.7604e-11
6.12189e-08
-3.22499e-11
6.1227e-08
-2.7349e-11
6.1234e-08
-2.29256e-11
6.12402e-08
-1.89896e-11
6.12454e-08
-1.5537e-11
6.12499e-08
-1.25523e-11
6.12537e-08
-1.00109e-11
6.12568e-08
-7.87931e-12
6.12593e-08
-6.12005e-12
6.12613e-08
-4.68989e-12
6.1263e-08
-3.54608e-12
6.12642e-08
-2.6473e-12
6.12652e-08
-1.95459e-12
6.1266e-08
-1.43243e-12
6.12666e-08
-1.04985e-12
6.1267e-08
-7.77389e-13
-5.78064e-13
6.78421e-08
2.22226e-09
-6.77276e-08
6.79943e-08
2.41751e-09
6.81692e-08
2.58095e-09
6.83536e-08
2.70772e-09
6.85383e-08
2.79828e-09
6.87163e-08
2.85498e-09
6.88822e-08
2.88064e-09
6.90318e-08
2.87871e-09
6.91623e-08
2.85336e-09
6.92725e-08
2.8092e-09
6.93623e-08
2.7508e-09
6.94328e-08
2.68245e-09
6.94856e-08
2.60794e-09
6.95229e-08
2.53043e-09
6.95469e-08
2.45236e-09
6.956e-08
2.3755e-09
6.95643e-08
2.301e-09
6.95618e-08
2.22949e-09
6.9554e-08
2.1612e-09
6.95423e-08
2.0961e-09
6.95275e-08
2.03394e-09
6.95105e-08
1.9744e-09
6.94919e-08
1.91707e-09
6.94721e-08
1.86157e-09
6.94513e-08
1.80752e-09
6.94298e-08
1.75456e-09
6.94078e-08
1.70237e-09
6.93854e-08
1.65065e-09
6.93626e-08
1.59915e-09
6.93395e-08
1.54762e-09
6.93163e-08
1.49583e-09
6.92929e-08
1.44357e-09
6.92694e-08
1.39065e-09
6.92458e-08
1.33686e-09
6.92222e-08
1.28202e-09
6.91986e-08
1.22595e-09
6.91751e-08
1.16846e-09
6.91516e-08
1.1094e-09
6.91281e-08
1.04859e-09
6.91046e-08
9.8589e-10
6.90811e-08
9.21194e-10
6.90572e-08
8.54434e-10
6.9033e-08
7.85626e-10
6.9008e-08
7.14916e-10
6.8982e-08
6.42629e-10
6.89547e-08
5.69329e-10
6.89258e-08
4.95851e-10
6.88954e-08
4.23282e-10
6.88635e-08
3.52871e-10
6.88306e-08
2.8588e-10
6.87974e-08
2.23427e-10
6.87643e-08
1.66379e-10
6.87322e-08
1.15289e-10
6.87014e-08
7.03458e-11
6.86721e-08
3.13374e-11
6.86445e-08
-2.06844e-12
6.86192e-08
-3.02384e-11
6.85963e-08
-5.36023e-11
6.85759e-08
-7.26804e-11
6.85581e-08
-8.79989e-11
6.85429e-08
-1.00056e-10
6.85301e-08
-1.09307e-10
6.85196e-08
-1.16151e-10
6.85112e-08
-1.20933e-10
6.85049e-08
-1.23944e-10
6.85004e-08
-1.25426e-10
6.84977e-08
-1.25582e-10
6.84964e-08
-1.24578e-10
6.84965e-08
-1.22554e-10
6.84978e-08
-1.19629e-10
6.85002e-08
-1.1591e-10
6.85035e-08
-1.11491e-10
6.85075e-08
-1.06463e-10
6.85122e-08
-1.00915e-10
6.85174e-08
-9.49362e-11
6.8523e-08
-8.86188e-11
6.85289e-08
-8.20564e-11
6.85349e-08
-7.5345e-11
6.85409e-08
-6.85812e-11
6.85468e-08
-6.18603e-11
6.85526e-08
-5.5274e-11
6.85581e-08
-4.89075e-11
6.85633e-08
-4.28378e-11
6.85682e-08
-3.71311e-11
6.85727e-08
-3.18405e-11
6.85768e-08
-2.70039e-11
6.85804e-08
-2.26441e-11
6.85837e-08
-1.87693e-11
6.85865e-08
-1.53743e-11
6.85889e-08
-1.24426e-11
6.8591e-08
-9.94762e-12
6.85927e-08
-7.85602e-12
6.85942e-08
-6.12826e-12
6.85953e-08
-4.72275e-12
6.85963e-08
-3.59782e-12
6.85971e-08
-2.71299e-12
6.85977e-08
-2.0302e-12
6.85981e-08
-1.5144e-12
6.85985e-08
-1.13102e-12
-8.38177e-13
6.80042e-08
2.13051e-09
-6.79124e-08
6.81246e-08
2.29706e-09
6.82646e-08
2.441e-09
6.84147e-08
2.55756e-09
6.85676e-08
2.64544e-09
6.87172e-08
2.70536e-09
6.88588e-08
2.73902e-09
6.89887e-08
2.7488e-09
6.91044e-08
2.73772e-09
6.92043e-08
2.70923e-09
6.92882e-08
2.66689e-09
6.93565e-08
2.61418e-09
6.94102e-08
2.55423e-09
6.94509e-08
2.48977e-09
6.94802e-08
2.423e-09
6.95001e-08
2.35562e-09
6.95122e-08
2.28885e-09
6.95183e-08
2.22348e-09
6.95195e-08
2.15993e-09
6.95172e-08
2.09839e-09
6.95123e-08
2.03885e-09
6.95056e-08
1.98115e-09
6.94976e-08
1.92509e-09
6.94887e-08
1.87041e-09
6.94794e-08
1.81685e-09
6.94698e-08
1.76414e-09
6.94602e-08
1.71202e-09
6.94506e-08
1.66025e-09
6.94411e-08
1.60862e-09
6.94318e-08
1.5569e-09
6.94228e-08
1.5049e-09
6.94139e-08
1.45242e-09
6.94053e-08
1.39928e-09
6.93968e-08
1.3453e-09
6.93886e-08
1.29031e-09
6.93804e-08
1.23414e-09
6.93722e-08
1.17664e-09
6.93639e-08
1.11766e-09
6.93555e-08
1.05706e-09
6.93466e-08
9.94748e-10
6.93371e-08
9.30642e-10
6.93269e-08
8.64725e-10
6.93154e-08
7.97063e-10
6.93025e-08
7.27836e-10
6.92877e-08
6.57383e-10
6.92708e-08
5.86231e-10
6.92516e-08
5.1512e-10
6.92299e-08
4.44974e-10
6.92059e-08
3.76839e-10
6.918e-08
3.11774e-10
6.91527e-08
2.50733e-10
6.91246e-08
1.94481e-10
6.90964e-08
1.43533e-10
6.90686e-08
9.81288e-11
6.90417e-08
5.82316e-11
6.9016e-08
2.36196e-11
6.89918e-08
-6.05093e-12
6.89694e-08
-3.11533e-11
6.89488e-08
-5.21109e-11
6.89302e-08
-6.93698e-11
6.89135e-08
-8.33656e-11
6.88987e-08
-9.45043e-11
6.88857e-08
-1.03152e-10
6.88744e-08
-1.09632e-10
6.88647e-08
-1.14223e-10
6.88564e-08
-1.17161e-10
6.88495e-08
-1.18647e-10
6.88437e-08
-1.18853e-10
6.88391e-08
-1.17922e-10
6.88354e-08
-1.1598e-10
6.88327e-08
-1.1314e-10
6.88307e-08
-1.09502e-10
6.88294e-08
-1.05166e-10
6.88287e-08
-1.00224e-10
6.88285e-08
-9.47717e-11
6.88288e-08
-8.89061e-11
6.88295e-08
-8.27254e-11
6.88305e-08
-7.63297e-11
6.88317e-08
-6.98194e-11
6.88331e-08
-6.32939e-11
6.88347e-08
-5.68486e-11
6.88364e-08
-5.05732e-11
6.88381e-08
-4.45486e-11
6.88398e-08
-3.88457e-11
6.88415e-08
-3.35222e-11
6.88431e-08
-2.86216e-11
6.88446e-08
-2.41723e-11
6.88461e-08
-2.01886e-11
6.88474e-08
-1.66709e-11
6.88485e-08
-1.36081e-11
6.88496e-08
-1.09789e-11
6.88505e-08
-8.75401e-12
6.88512e-08
-6.89816e-12
6.88519e-08
-5.37285e-12
6.88524e-08
-4.13855e-12
6.88529e-08
-3.15617e-12
6.88532e-08
-2.38821e-12
6.88535e-08
-1.79936e-12
6.88537e-08
-1.35525e-12
-1.0201e-12
7.52435e-08
2.04853e-09
-7.51615e-08
7.53493e-08
2.19133e-09
7.54725e-08
2.31773e-09
7.56063e-08
2.42375e-09
7.57443e-08
2.50744e-09
7.58812e-08
2.56851e-09
7.60125e-08
2.60773e-09
7.61347e-08
2.62658e-09
7.62453e-08
2.62712e-09
7.63427e-08
2.61185e-09
7.64262e-08
2.58343e-09
7.64958e-08
2.54457e-09
7.65522e-08
2.49781e-09
7.65965e-08
2.44542e-09
7.66302e-08
2.38934e-09
7.66547e-08
2.33115e-09
7.66715e-08
2.27204e-09
7.66821e-08
2.21288e-09
7.66877e-08
2.15426e-09
7.66896e-08
2.09651e-09
7.66887e-08
2.03979e-09
7.66857e-08
1.98414e-09
7.66813e-08
1.92949e-09
7.6676e-08
1.87573e-09
7.66701e-08
1.8227e-09
7.6664e-08
1.77023e-09
7.66579e-08
1.71814e-09
7.66519e-08
1.66624e-09
7.66462e-08
1.61437e-09
7.66407e-08
1.56234e-09
7.66356e-08
1.51e-09
7.66309e-08
1.45717e-09
7.66265e-08
1.40369e-09
7.66224e-08
1.34942e-09
7.66185e-08
1.29419e-09
7.66147e-08
1.23788e-09
7.6611e-08
1.18035e-09
7.66072e-08
1.12148e-09
7.66031e-08
1.06118e-09
7.65985e-08
9.99361e-10
7.65931e-08
9.36007e-10
7.65867e-08
8.71137e-10
7.65789e-08
8.0485e-10
7.65694e-08
7.3735e-10
7.65578e-08
6.6897e-10
7.65438e-08
6.00193e-10
7.65273e-08
5.31659e-10
7.65081e-08
4.64147e-10
7.64864e-08
3.98522e-10
7.64626e-08
3.3566e-10
7.64369e-08
2.76362e-10
7.64101e-08
2.21289e-10
7.63827e-08
1.70909e-10
7.63554e-08
1.25478e-10
7.63286e-08
8.50428e-11
7.63027e-08
4.94866e-11
7.62781e-08
1.85713e-11
7.6255e-08
-8.01552e-12
7.62335e-08
-3.06183e-11
7.62137e-08
-4.96082e-11
7.61957e-08
-6.53582e-11
7.61794e-08
-7.82252e-11
7.61648e-08
-8.85395e-11
7.61518e-08
-9.65986e-11
7.61402e-08
-1.02666e-10
7.613e-08
-1.0697e-10
7.61211e-08
-1.09711e-10
7.61133e-08
-1.1106e-10
7.61065e-08
-1.11166e-10
7.61007e-08
-1.10162e-10
7.60957e-08
-1.08165e-10
7.60915e-08
-1.05287e-10
7.6088e-08
-1.01632e-10
7.60851e-08
-9.73018e-11
7.60827e-08
-9.23977e-11
7.60808e-08
-8.70223e-11
7.60794e-08
-8.12788e-11
7.60783e-08
-7.52715e-11
7.60776e-08
-6.91042e-11
7.60772e-08
-6.28785e-11
7.6077e-08
-5.6692e-11
7.60771e-08
-5.06357e-11
7.60773e-08
-4.47922e-11
7.60777e-08
-3.92335e-11
7.60782e-08
-3.4019e-11
7.60788e-08
-2.91944e-11
7.60794e-08
-2.47911e-11
7.608e-08
-2.08264e-11
7.60807e-08
-1.73049e-11
7.60813e-08
-1.42191e-11
7.60819e-08
-1.1552e-11
7.60824e-08
-9.27853e-12
7.60829e-08
-7.36745e-12
7.60833e-08
-5.78395e-12
7.60836e-08
-4.49154e-12
7.60839e-08
-3.45361e-12
7.60842e-08
-2.63453e-12
7.60844e-08
-2.00046e-12
7.60845e-08
-1.51936e-12
-1.1637e-12
8.3239e-08
1.97603e-09
-8.31665e-08
8.33309e-08
2.09946e-09
8.34379e-08
2.21071e-09
8.3555e-08
2.30669e-09
8.3677e-08
2.38541e-09
8.37995e-08
2.44607e-09
8.39184e-08
2.48878e-09
8.40306e-08
2.51433e-09
8.41338e-08
2.52402e-09
8.4226e-08
2.51955e-09
8.43066e-08
2.50285e-09
8.43753e-08
2.47594e-09
8.44322e-08
2.44083e-09
8.44783e-08
2.39935e-09
8.45145e-08
2.35316e-09
8.4542e-08
2.30365e-09
8.45621e-08
2.25197e-09
8.45759e-08
2.19901e-09
8.45848e-08
2.14541e-09
8.45897e-08
2.09164e-09
8.45915e-08
2.03799e-09
8.4591e-08
1.98464e-09
8.45888e-08
1.93165e-09
8.45855e-08
1.87902e-09
8.45815e-08
1.82672e-09
8.45771e-08
1.77464e-09
8.45725e-08
1.7227e-09
8.4568e-08
1.67077e-09
8.45636e-08
1.61873e-09
8.45595e-08
1.56645e-09
8.45557e-08
1.5138e-09
8.45522e-08
1.46064e-09
8.45491e-08
1.40685e-09
8.45462e-08
1.3523e-09
8.45435e-08
1.29686e-09
8.4541e-08
1.24042e-09
8.45384e-08
1.18289e-09
8.45357e-08
1.12417e-09
8.45327e-08
1.06419e-09
8.45292e-08
1.00292e-09
8.45248e-08
9.40359e-10
8.45194e-08
8.7657e-10
8.45126e-08
8.11675e-10
8.4504e-08
7.45887e-10
8.44935e-08
6.79527e-10
8.44806e-08
6.13028e-10
8.44654e-08
5.46944e-10
8.44476e-08
4.81926e-10
8.44274e-08
4.18688e-10
8.44051e-08
3.57952e-10
8.43811e-08
3.00387e-10
8.43558e-08
2.46558e-10
8.43298e-08
1.96886e-10
8.43037e-08
1.51628e-10
8.42779e-08
1.10881e-10
8.42527e-08
7.46012e-11
8.42287e-08
4.26381e-11
8.42059e-08
1.47653e-11
8.41846e-08
-9.29675e-12
8.41648e-08
-2.9848e-11
8.41467e-08
-4.72028e-11
8.41301e-08
-6.16699e-11
8.41151e-08
-7.35425e-11
8.41016e-08
-8.30912e-11
8.40895e-08
-9.05614e-11
8.40787e-08
-9.61723e-11
8.40691e-08
-1.00118e-10
8.40606e-08
-1.0257e-10
8.40531e-08
-1.0368e-10
8.40466e-08
-1.03587e-10
8.40408e-08
-1.02415e-10
8.40358e-08
-1.00281e-10
8.40315e-08
-9.72978e-11
8.40277e-08
-9.35746e-11
8.40246e-08
-8.92197e-11
8.40219e-08
-8.43414e-11
8.40196e-08
-7.90482e-11
8.40178e-08
-7.34483e-11
8.40164e-08
-6.76487e-11
8.40152e-08
-6.17532e-11
8.40144e-08
-5.58609e-11
8.40138e-08
-5.00638e-11
8.40135e-08
-4.4445e-11
8.40133e-08
-3.9077e-11
8.40133e-08
-3.40198e-11
8.40135e-08
-2.93203e-11
8.40137e-08
-2.50118e-11
8.4014e-08
-2.11139e-11
8.40143e-08
-1.76339e-11
8.40146e-08
-1.45681e-11
8.4015e-08
-1.19027e-11
8.40153e-08
-9.61648e-12
8.40157e-08
-7.68214e-12
8.40159e-08
-6.06845e-12
8.40162e-08
-4.74212e-12
8.40164e-08
-3.66928e-12
8.40166e-08
-2.8166e-12
8.40167e-08
-2.1522e-12
8.40169e-08
-1.64629e-12
-1.2735e-12
9.20707e-08
1.91332e-09
-9.2008e-08
9.21489e-08
2.02128e-09
9.22397e-08
2.11993e-09
9.23394e-08
2.20694e-09
9.24443e-08
2.28055e-09
9.25506e-08
2.33979e-09
9.2655e-08
2.38436e-09
9.27548e-08
2.41455e-09
9.28477e-08
2.43111e-09
9.29321e-08
2.43511e-09
9.30071e-08
2.42788e-09
9.30721e-08
2.41091e-09
9.31273e-08
2.3857e-09
9.31729e-08
2.35371e-09
9.32098e-08
2.3163e-09
9.32387e-08
2.2747e-09
9.32608e-08
2.22993e-09
9.32769e-08
2.18286e-09
9.32882e-08
2.13417e-09
9.32954e-08
2.0844e-09
9.32995e-08
2.03392e-09
9.33011e-08
1.98302e-09
9.33009e-08
1.93187e-09
9.32993e-08
1.88058e-09
9.32968e-08
1.82918e-09
9.32938e-08
1.77768e-09
9.32904e-08
1.72606e-09
9.3287e-08
1.67424e-09
9.32835e-08
1.62217e-09
9.32802e-08
1.56974e-09
9.32772e-08
1.51689e-09
9.32743e-08
1.46349e-09
9.32717e-08
1.40946e-09
9.32693e-08
1.3547e-09
9.3267e-08
1.29912e-09
9.32648e-08
1.24262e-09
9.32626e-08
1.18513e-09
9.32602e-08
1.12659e-09
9.32574e-08
1.06698e-09
9.3254e-08
1.00627e-09
9.32499e-08
9.445e-10
9.32447e-08
8.81757e-10
9.32382e-08
8.18179e-10
9.32301e-08
7.53983e-10
9.32202e-08
6.8947e-10
9.32082e-08
6.25028e-10
9.3194e-08
5.61134e-10
9.31776e-08
4.98336e-10
9.3159e-08
4.37225e-10
9.31386e-08
3.78398e-10
9.31166e-08
3.22416e-10
9.30934e-08
2.69761e-10
9.30694e-08
2.20808e-10
9.30453e-08
1.75809e-10
9.30212e-08
1.3489e-10
9.29978e-08
9.80622e-11
9.29752e-08
6.52405e-11
9.29537e-08
3.62686e-11
9.29334e-08
1.0939e-11
9.29146e-08
-1.09959e-11
9.28972e-08
-2.97901e-11
9.28812e-08
-4.57094e-11
9.28667e-08
-5.90102e-11
9.28535e-08
-6.99355e-11
9.28417e-08
-7.87117e-11
9.2831e-08
-8.5546e-11
9.28216e-08
-9.06258e-11
9.28131e-08
-9.41206e-11
9.28056e-08
-9.61841e-11
9.2799e-08
-9.69572e-11
9.27931e-08
-9.65705e-11
9.2788e-08
-9.51476e-11
9.27835e-08
-9.28075e-11
9.27796e-08
-8.96662e-11
9.27762e-08
-8.58385e-11
9.27733e-08
-8.14385e-11
9.27709e-08
-7.65798e-11
9.27688e-08
-7.13748e-11
9.27671e-08
-6.59333e-11
9.27657e-08
-6.03617e-11
9.27646e-08
-5.47605e-11
9.27637e-08
-4.92225e-11
9.27631e-08
-4.38315e-11
9.27627e-08
-3.86604e-11
9.27625e-08
-3.37697e-11
9.27623e-08
-2.92073e-11
9.27623e-08
-2.50076e-11
9.27624e-08
-2.11925e-11
9.27626e-08
-1.77715e-11
9.27627e-08
-1.47436e-11
9.27629e-08
-1.20984e-11
9.27631e-08
-9.81776e-12
9.27633e-08
-7.87787e-12
9.27635e-08
-6.25074e-12
9.27637e-08
-4.90606e-12
9.27638e-08
-3.81256e-12
9.27639e-08
-2.93917e-12
9.2764e-08
-2.25599e-12
9.27641e-08
-1.73525e-12
-1.35612e-12
1.01827e-07
1.86125e-09
-1.01775e-07
1.01891e-07
1.95721e-09