/*--------------------------------*- C++ -*----------------------------------*\
| =========                 |                                                 |
| \\      /  F ield         | OpenFOAM: The Open Source CFD Toolbox           |
|  \\    /   O peration     | Version:  2.3.0                                 |
|   \\  /    A nd           | Web:      www.OpenFOAM.org                      |
|    \\/     M anipulation  |                                                 |
\*---------------------------------------------------------------------------*/
FoamFile
{
    version     2.0;
    format      ascii;
    class       surfaceScalarField;
    location    "0.6";
    object      phi;
}
// * * * * * * * * * * * * * * * * * * * * * * * * * * * * * * * * * * * * * //

dimensions      [0 3 -1 0 0 0 0];

internalField   nonuniform List<scalar> 
6598
(
2.86377e-08
2.90244e-09
-3.15401e-08
2.57717e-08
2.866e-09
2.30853e-08
2.68645e-09
2.06092e-08
2.47606e-09
1.83597e-08
2.24951e-09
1.63472e-08
2.01247e-09
1.4574e-08
1.77327e-09
1.30344e-08
1.53952e-09
1.17168e-08
1.31764e-09
1.06039e-08
1.11288e-09
9.67478e-09
9.29131e-10
8.90612e-09
7.68662e-10
8.27399e-09
6.3213e-10
7.75524e-09
5.18748e-10
7.32862e-09
4.26623e-10
6.97546e-09
3.53154e-10
6.68004e-09
2.95424e-10
6.42953e-09
2.50514e-10
6.21379e-09
2.15737e-10
6.02502e-09
1.88766e-10
5.85734e-09
1.67686e-10
5.70635e-09
1.50983e-10
5.56885e-09
1.375e-10
5.44247e-09
1.26383e-10
5.32546e-09
1.17014e-10
5.2165e-09
1.08956e-10
5.1146e-09
1.01902e-10
5.01896e-09
9.56395e-11
4.92894e-09
9.00202e-11
4.844e-09
8.49384e-11
4.76368e-09
8.03172e-11
4.68759e-09
7.60982e-11
4.61535e-09
7.22352e-11
4.54666e-09
6.86901e-11
4.48123e-09
6.54305e-11
4.4188e-09
6.2428e-11
4.35914e-09
5.96575e-11
4.30205e-09
5.70963e-11
4.24732e-09
5.47245e-11
4.1948e-09
5.25237e-11
4.14432e-09
5.04777e-11
4.09575e-09
4.8572e-11
4.04896e-09
4.67935e-11
4.00383e-09
4.51305e-11
3.96025e-09
4.35726e-11
3.91814e-09
4.21105e-11
3.87741e-09
4.07358e-11
3.83797e-09
3.94411e-11
3.79975e-09
3.82197e-11
3.76268e-09
3.70657e-11
3.72671e-09
3.59736e-11
3.69177e-09
3.49386e-11
3.65781e-09
3.39563e-11
3.62479e-09
3.30227e-11
3.59266e-09
3.21344e-11
3.56137e-09
3.12879e-11
3.53089e-09
3.04803e-11
3.50118e-09
2.97089e-11
3.47221e-09
2.89713e-11
3.44394e-09
2.82651e-11
3.41635e-09
2.75884e-11
3.38941e-09
2.69391e-11
3.3631e-09
2.63155e-11
3.33738e-09
2.5716e-11
3.31224e-09
2.5139e-11
3.28766e-09
2.45832e-11
3.26361e-09
2.40473e-11
3.24008e-09
2.353e-11
3.21705e-09
2.30302e-11
3.19451e-09
2.25468e-11
3.17243e-09
2.20788e-11
3.1508e-09
2.16254e-11
3.12962e-09
2.11857e-11
3.10886e-09
2.07587e-11
3.08851e-09
2.03438e-11
3.06857e-09
1.99401e-11
3.04903e-09
1.95471e-11
3.02986e-09
1.9164e-11
3.01107e-09
1.87903e-11
2.99265e-09
1.84254e-11
2.97458e-09
1.80688e-11
2.95686e-09
1.772e-11
2.93948e-09
1.73785e-11
2.92244e-09
1.70441e-11
2.90572e-09
1.67163e-11
2.88932e-09
1.63949e-11
2.87325e-09
1.60797e-11
2.85747e-09
1.57706e-11
2.84201e-09
1.54675e-11
2.82684e-09
1.51707e-11
2.81196e-09
1.48803e-11
2.79736e-09
1.45969e-11
2.78304e-09
1.43215e-11
2.76898e-09
1.40564e-11
2.75517e-09
1.38066e-11
2.74159e-09
1.35856e-11
2.72815e-09
1.34358e-11
2.71471e-09
1.34475e-11
2.70076e-09
1.39487e-11
3.76627e-11
3.43414e-08
3.1579e-09
-3.45969e-08
3.37732e-08
3.43423e-09
3.29743e-08
3.48535e-09
3.20195e-08
3.43089e-09
3.09639e-08
3.3051e-09
2.9853e-08
3.12331e-09
2.87238e-08
2.90251e-09
2.76045e-08
2.65887e-09
2.6516e-08
2.40611e-09
2.54732e-08
2.15565e-09
2.44858e-08
1.91654e-09
2.35591e-08
1.69533e-09
2.26953e-08
1.49598e-09
2.18939e-08
1.32017e-09
2.11528e-08
1.16771e-09
2.04688e-08
1.03714e-09
1.9838e-08
9.26194e-10
1.92563e-08
8.32255e-10
1.87193e-08
7.52692e-10
1.8223e-08
6.85062e-10
1.77635e-08
6.27219e-10
1.73371e-08
5.77358e-10
1.69406e-08
5.34007e-10
1.6571e-08
4.95984e-10
1.62257e-08
4.62362e-10
1.59022e-08
4.3241e-10
1.55986e-08
4.05558e-10
1.53128e-08
3.81354e-10
1.50434e-08
3.59439e-10
1.47888e-08
3.39523e-10
1.45478e-08
3.21364e-10
1.43191e-08
3.04763e-10
1.41018e-08
2.89548e-10
1.38949e-08
2.75572e-10
1.36977e-08
2.62707e-10
1.35092e-08
2.50841e-10
1.3329e-08
2.39874e-10
1.31564e-08
2.29718e-10
1.29908e-08
2.20295e-10
1.28318e-08
2.11535e-10
1.26789e-08
2.03376e-10
1.25317e-08
1.95764e-10
1.23899e-08
1.88648e-10
1.2253e-08
1.81985e-10
1.21209e-08
1.75735e-10
1.19931e-08
1.69862e-10
1.18695e-08
1.64336e-10
1.17498e-08
1.59126e-10
1.16338e-08
1.54209e-10
1.15213e-08
1.4956e-10
1.14122e-08
1.45158e-10
1.13061e-08
1.40986e-10
1.1203e-08
1.37025e-10
1.11028e-08
1.3326e-10
1.10053e-08
1.29676e-10
1.09103e-08
1.26262e-10
1.08178e-08
1.23004e-10
1.07276e-08
1.19893e-10
1.06396e-08
1.16918e-10
1.05538e-08
1.1407e-10
1.04701e-08
1.11341e-10
1.03883e-08
1.08723e-10
1.03084e-08
1.06209e-10
1.02303e-08
1.03792e-10
1.0154e-08
1.01466e-10
1.00794e-08
9.92255e-11
1.00063e-08
9.7065e-11
9.93489e-09
9.49796e-11
9.86496e-09
9.29646e-11
9.79649e-09
9.10155e-11
9.72944e-09
8.91283e-11
9.66377e-09
8.72991e-11
9.59943e-09
8.55242e-11
9.53639e-09
8.38002e-11
9.47461e-09
8.21237e-11
9.41405e-09
8.04916e-11
9.3547e-09
7.8901e-11
9.29652e-09
7.7349e-11
9.23947e-09
7.5833e-11
9.18355e-09
7.43504e-11
9.12872e-09
7.28989e-11
9.07496e-09
7.14761e-11
9.02226e-09
7.00801e-11
8.9706e-09
6.87088e-11
8.91995e-09
6.73607e-11
8.87031e-09
6.6034e-11
8.82166e-09
6.47276e-11
8.77399e-09
6.34403e-11
8.72729e-09
6.21717e-11
8.68154e-09
6.09213e-11
8.63673e-09
5.96896e-11
8.59285e-09
5.84777e-11
8.54988e-09
5.72886e-11
8.50781e-09
5.6129e-11
8.4666e-09
5.5015e-11
8.4262e-09
5.39903e-11
8.38645e-09
5.31817e-11
8.34691e-09
5.29844e-11
8.30353e-09
5.73351e-11
9.52149e-11
3.64349e-08
2.97444e-09
-3.62515e-08
3.65273e-08
3.34191e-09
3.64962e-08
3.51646e-09
3.63462e-08
3.58081e-09
3.60869e-08
3.5644e-09
3.57319e-08
3.4783e-09
3.52982e-08
3.33623e-09
3.48032e-08
3.15386e-09
3.42634e-08
2.94591e-09
3.36936e-08
2.72545e-09
3.31065e-08
2.50362e-09
3.25127e-08
2.28919e-09
3.19203e-08
2.08838e-09
3.13355e-08
1.90491e-09
3.07629e-08
1.74038e-09
3.02052e-08
1.59478e-09
2.96644e-08
1.46697e-09
2.91415e-08
1.35519e-09
2.86368e-08
1.25739e-09
2.81503e-08
1.17154e-09
2.76818e-08
1.09577e-09
2.72307e-08
1.02842e-09
2.67966e-08
9.68131e-10
2.63788e-08
9.13765e-10
2.59768e-08
8.64417e-10
2.55898e-08
8.19368e-10
2.52173e-08
7.78042e-10
2.48587e-08
7.39981e-10
2.45133e-08
7.04814e-10
2.41806e-08
6.72236e-10
2.386e-08
6.41992e-10
2.35509e-08
6.13864e-10
2.32528e-08
5.87665e-10
2.29651e-08
5.63227e-10
2.26874e-08
5.40404e-10
2.24192e-08
5.19063e-10
2.216e-08
4.99084e-10
2.19093e-08
4.80358e-10
2.16668e-08
4.62786e-10
2.14321e-08
4.46278e-10
2.12047e-08
4.30751e-10
2.09844e-08
4.1613e-10
2.07707e-08
4.02347e-10
2.05633e-08
3.89338e-10
2.0362e-08
3.77046e-10
2.01664e-08
3.65418e-10
1.99764e-08
3.54406e-10
1.97915e-08
3.43965e-10
1.96117e-08
3.34055e-10
1.94366e-08
3.2464e-10
1.92661e-08
3.15684e-10
1.90999e-08
3.07156e-10
1.89379e-08
2.99027e-10
1.87799e-08
2.91271e-10
1.86257e-08
2.83863e-10
1.84752e-08
2.76781e-10
1.83282e-08
2.70003e-10
1.81846e-08
2.6351e-10
1.80442e-08
2.57284e-10
1.7907e-08
2.51309e-10
1.77727e-08
2.45568e-10
1.76414e-08
2.40048e-10
1.75129e-08
2.34735e-10
1.73871e-08
2.29617e-10
1.72639e-08
2.24682e-10
1.71432e-08
2.19918e-10
1.70249e-08
2.15316e-10
1.6909e-08
2.10865e-10
1.67954e-08
2.06557e-10
1.66841e-08
2.02383e-10
1.65749e-08
1.98335e-10
1.64678e-08
1.94404e-10
1.63627e-08
1.90584e-10
1.62596e-08
1.86867e-10
1.61585e-08
1.83247e-10
1.60593e-08
1.79717e-10
1.59619e-08
1.7627e-10
1.58664e-08
1.72902e-10
1.57726e-08
1.69605e-10
1.56806e-08
1.66375e-10
1.55903e-08
1.63206e-10
1.55016e-08
1.60093e-10
1.54147e-08
1.57032e-10
1.53294e-08
1.54018e-10
1.52457e-08
1.51047e-10
1.51636e-08
1.48115e-10
1.50831e-08
1.45218e-10
1.50042e-08
1.42355e-10
1.49269e-08
1.39522e-10
1.48511e-08
1.36719e-10
1.47768e-08
1.33944e-10
1.47041e-08
1.312e-10
1.46329e-08
1.28492e-10
1.45632e-08
1.25831e-10
1.44949e-08
1.23247e-10
1.44281e-08
1.20822e-10
1.43625e-08
1.18802e-10
1.42973e-08
1.18139e-10
1.42294e-08
1.25312e-10
1.63789e-10
3.80068e-08
2.75183e-09
-3.77842e-08
3.82312e-08
3.11754e-09
3.84166e-08
3.33104e-09
3.85513e-08
3.44606e-09
3.86282e-08
3.48755e-09
3.86427e-08
3.46379e-09
3.85949e-08
3.38403e-09
3.84884e-08
3.26038e-09
3.83289e-08
3.10535e-09
3.81237e-08
2.93064e-09
3.78806e-08
2.74678e-09
3.76072e-08
2.5626e-09
3.73107e-08
2.38486e-09
3.69974e-08
2.21819e-09
3.66726e-08
2.06521e-09
3.63404e-08
1.92694e-09
3.60042e-08
1.80322e-09
3.56663e-08
1.69308e-09
3.53285e-08
1.59514e-09
3.49922e-08
1.50786e-09
3.46582e-08
1.42973e-09
3.43273e-08
1.35936e-09
3.39999e-08
1.29556e-09
3.36763e-08
1.23731e-09
3.33569e-08
1.1838e-09
3.30419e-08
1.13436e-09
3.27315e-08
1.08847e-09
3.24258e-08
1.04568e-09
3.2125e-08
1.00568e-09
3.1829e-08
9.68166e-10
3.15381e-08
9.32919e-10
3.12522e-08
8.9974e-10
3.09714e-08
8.68462e-10
3.06957e-08
8.38938e-10
3.04251e-08
8.11037e-10
3.01595e-08
7.84643e-10
2.98989e-08
7.59648e-10
2.96433e-08
7.35958e-10
2.93926e-08
7.13482e-10
2.91468e-08
6.9214e-10
2.89057e-08
6.71857e-10
2.86692e-08
6.52563e-10
2.84374e-08
6.34195e-10
2.821e-08
6.16694e-10
2.79871e-08
6.00004e-10
2.77684e-08
5.84075e-10
2.7554e-08
5.6886e-10
2.73436e-08
5.54316e-10
2.71373e-08
5.40402e-10
2.69348e-08
5.2708e-10
2.67362e-08
5.14316e-10
2.65413e-08
5.02075e-10
2.635e-08
4.90329e-10
2.61622e-08
4.79049e-10
2.59779e-08
4.68207e-10
2.57969e-08
4.57779e-10
2.56191e-08
4.47743e-10
2.54446e-08
4.38075e-10
2.52731e-08
4.28756e-10
2.51046e-08
4.19766e-10
2.49391e-08
4.11087e-10
2.47764e-08
4.02702e-10
2.46166e-08
3.94595e-10
2.44595e-08
3.86751e-10
2.4305e-08
3.79155e-10
2.41531e-08
3.71794e-10
2.40038e-08
3.64654e-10
2.38569e-08
3.57723e-10
2.37125e-08
3.5099e-10
2.35704e-08
3.44442e-10
2.34307e-08
3.38069e-10
2.32932e-08
3.31861e-10
2.3158e-08
3.25807e-10
2.3025e-08
3.19897e-10
2.28941e-08
3.14122e-10
2.27653e-08
3.08473e-10
2.26387e-08
3.0294e-10
2.25141e-08
2.97516e-10
2.23915e-08
2.92191e-10
2.22709e-08
2.86958e-10
2.21523e-08
2.81807e-10
2.20356e-08
2.76733e-10
2.1921e-08
2.71726e-10
2.18082e-08
2.6678e-10
2.16974e-08
2.61888e-10
2.15884e-08
2.57044e-10
2.14814e-08
2.52242e-10
2.13763e-08
2.47478e-10
2.12731e-08
2.42746e-10
2.11717e-08
2.38044e-10
2.10723e-08
2.33371e-10
2.09748e-08
2.28728e-10
2.08791e-08
2.24121e-10
2.07854e-08
2.19568e-10
2.06935e-08
2.15111e-10
2.06035e-08
2.10871e-10
2.05151e-08
2.07214e-10
2.04277e-08
2.05548e-10
2.03405e-08
2.12481e-10
2.42262e-10
3.95407e-08
2.55452e-09
-3.93434e-08
3.97676e-08
2.89066e-09
3.99896e-08
3.10901e-09
4.01949e-08
3.24084e-09
4.03756e-08
3.30684e-09
4.05244e-08
3.31498e-09
4.06361e-08
3.27229e-09
4.07084e-08
3.18813e-09
4.0741e-08
3.07271e-09
4.07358e-08
2.93589e-09
4.06958e-08
2.78674e-09
4.06252e-08
2.6332e-09
4.05284e-08
2.48163e-09
4.04099e-08
2.33668e-09
4.02738e-08
2.20137e-09
4.01235e-08
2.07722e-09
3.9962e-08
1.96468e-09
3.97918e-08
1.86337e-09
3.96145e-08
1.77242e-09
3.94316e-08
1.69074e-09
3.92442e-08
1.61715e-09
3.9053e-08
1.55051e-09
3.88588e-08
1.4898e-09
3.86619e-08
1.43415e-09
3.84629e-08
1.38281e-09
3.82621e-08
1.33519e-09
3.80598e-08
1.29079e-09
3.78563e-08
1.24921e-09
3.76518e-08
1.21014e-09
3.74467e-08
1.17331e-09
3.72411e-08
1.13852e-09
3.70352e-08
1.10558e-09
3.68294e-08
1.07433e-09
3.66236e-08
1.04465e-09
3.64183e-08
1.01642e-09
3.62134e-08
9.89528e-10
3.60091e-08
9.63893e-10
3.58057e-08
9.39426e-10
3.56031e-08
9.1605e-10
3.54015e-08
8.93696e-10
3.52011e-08
8.72298e-10
3.50019e-08
8.51798e-10
3.48039e-08
8.32141e-10
3.46073e-08
8.13276e-10
3.44122e-08
7.95157e-10
3.42185e-08
7.77739e-10
3.40264e-08
7.60984e-10
3.38359e-08
7.44854e-10
3.36469e-08
7.29314e-10
3.34597e-08
7.14331e-10
3.32741e-08
6.99876e-10
3.30903e-08
6.85921e-10
3.29082e-08
6.72439e-10
3.27278e-08
6.59405e-10
3.25492e-08
6.46797e-10
3.23724e-08
6.34592e-10
3.21974e-08
6.2277e-10
3.20242e-08
6.11312e-10
3.18527e-08
6.00199e-10
3.16831e-08
5.89415e-10
3.15152e-08
5.78942e-10
3.13491e-08
5.68766e-10
3.11849e-08
5.5887e-10
3.10224e-08
5.49243e-10
3.08617e-08
5.39868e-10
3.07027e-08
5.30735e-10
3.05456e-08
5.21829e-10
3.03901e-08
5.1314e-10
3.02365e-08
5.04654e-10
3.00846e-08
4.96361e-10
2.99344e-08
4.8825e-10
2.97859e-08
4.8031e-10
2.96392e-08
4.7253e-10
2.94942e-08
4.64899e-10
2.93509e-08
4.57408e-10
2.92093e-08
4.50046e-10
2.90695e-08
4.42803e-10
2.89313e-08
4.35669e-10
2.87949e-08
4.28634e-10
2.86601e-08
4.21688e-10
2.85271e-08
4.14822e-10
2.83958e-08
4.08027e-10
2.82663e-08
4.01292e-10
2.81384e-08
3.9461e-10
2.80124e-08
3.87971e-10
2.7888e-08
3.81367e-10
2.77655e-08
3.7479e-10
2.76447e-08
3.68234e-10
2.75258e-08
3.61693e-10
2.74087e-08
3.55163e-10
2.72934e-08
3.48641e-10
2.718e-08
3.42129e-10
2.70685e-08
3.35634e-10
2.69589e-08
3.29177e-10
2.68512e-08
3.22813e-10
2.67454e-08
3.16686e-10
2.66413e-08
3.11234e-10
2.65389e-08
3.07941e-10
2.64396e-08
3.11834e-10
3.27522e-10
4.1115e-08
2.38438e-09
-4.09448e-08
4.13213e-08
2.68435e-09
4.15356e-08
2.89471e-09
4.17459e-08
3.03047e-09
4.19458e-08
3.10696e-09
4.2129e-08
3.13184e-09
4.22902e-08
3.1111e-09
4.2426e-08
3.05232e-09
4.25347e-08
2.964e-09
4.2616e-08
2.85454e-09
4.2671e-08
2.73175e-09
4.27017e-08
2.60256e-09
4.27106e-08
2.47273e-09
4.27006e-08
2.34665e-09
4.26746e-08
2.22734e-09
4.26353e-08
2.11658e-09
4.25848e-08
2.01515e-09
4.25251e-08
1.92307e-09
4.24576e-08
1.83987e-09
4.23836e-08
1.76478e-09
4.23039e-08
1.6969e-09
4.2219e-08
1.63532e-09
4.21297e-08
1.57918e-09
4.20361e-08
1.52772e-09
4.19386e-08
1.48028e-09
4.18375e-08
1.43631e-09
4.1733e-08
1.39534e-09
4.16252e-08
1.35701e-09
4.15143e-08
1.32101e-09
4.14005e-08
1.28708e-09
4.1284e-08
1.25502e-09
4.1165e-08
1.22464e-09
4.10435e-08
1.19581e-09
4.09197e-08
1.16839e-09
4.07939e-08
1.14227e-09
4.0666e-08
1.11736e-09
4.05364e-08
1.09355e-09
4.0405e-08
1.07078e-09
4.02721e-08
1.04898e-09
4.01377e-08
1.02807e-09
4.0002e-08
1.00799e-09
3.98651e-08
9.887e-10
3.97271e-08
9.70141e-10
3.95882e-08
9.52267e-10
3.94483e-08
9.35036e-10
3.93076e-08
9.18409e-10
3.91662e-08
9.0235e-10
3.90243e-08
8.86825e-10
3.88818e-08
8.71803e-10
3.87389e-08
8.57257e-10
3.85956e-08
8.43158e-10
3.8452e-08
8.29483e-10
3.83082e-08
8.16208e-10
3.81643e-08
8.03312e-10
3.80204e-08
7.90776e-10
3.78764e-08
7.78579e-10
3.77324e-08
7.66705e-10
3.75886e-08
7.55137e-10
3.74449e-08
7.43859e-10
3.73015e-08
7.32856e-10
3.71583e-08
7.22115e-10
3.70155e-08
7.11623e-10
3.6873e-08
7.01366e-10
3.67309e-08
6.91332e-10
3.65892e-08
6.8151e-10
3.64481e-08
6.71888e-10
3.63075e-08
6.62455e-10
3.61674e-08
6.53201e-10
3.60279e-08
6.44115e-10
3.58891e-08
6.35186e-10
3.5751e-08
6.26406e-10
3.56135e-08
6.17763e-10
3.54768e-08
6.09247e-10
3.53408e-08
6.00849e-10
3.52057e-08
5.92559e-10
3.50714e-08
5.84367e-10
3.49379e-08
5.76261e-10
3.48054e-08
5.68234e-10
3.46737e-08
5.60273e-10
3.4543e-08
5.5237e-10
3.44133e-08
5.44513e-10
3.42847e-08
5.36692e-10
3.41571e-08
5.28897e-10
3.40306e-08
5.21119e-10
3.39052e-08
5.13347e-10
3.3781e-08
5.05572e-10
3.3658e-08
4.97785e-10
3.35362e-08
4.89979e-10
3.34158e-08
4.82146e-10
3.32967e-08
4.74281e-10
3.31789e-08
4.66382e-10
3.30626e-08
4.5845e-10
3.29477e-08
4.50493e-10
3.28344e-08
4.42535e-10
3.27226e-08
4.34633e-10
3.26123e-08
4.26939e-10
3.25037e-08
4.19865e-10
3.2397e-08
4.14591e-10
3.22951e-08
4.13794e-10
4.13887e-10
4.27421e-08
2.23497e-09
-4.25927e-08
4.29271e-08
2.49933e-09
4.31256e-08
2.69625e-09
4.33256e-08
2.83043e-09
4.35208e-08
2.91177e-09
4.37058e-08
2.94685e-09
4.38761e-08
2.94087e-09
4.40283e-08
2.90006e-09
4.41607e-08
2.83158e-09
4.42727e-08
2.74262e-09
4.43644e-08
2.63998e-09
4.44372e-08
2.52976e-09
4.44928e-08
2.41713e-09
4.45333e-08
2.30617e-09
4.45608e-08
2.19982e-09
4.45774e-08
2.09998e-09
4.45849e-08
2.00763e-09
4.45849e-08
1.9231e-09
4.45786e-08
1.84621e-09
4.45669e-08
1.77646e-09
4.45506e-08
1.71321e-09
4.45301e-08
1.65574e-09
4.4506e-08
1.60334e-09
4.44784e-08
1.55535e-09
4.44474e-08
1.5112e-09
4.44133e-08
1.47039e-09
4.43762e-08
1.43248e-09
4.43361e-08
1.39714e-09
4.4293e-08
1.36405e-09
4.42471e-08
1.33297e-09
4.41985e-08
1.3037e-09
4.4147e-08
1.27606e-09
4.4093e-08
1.2499e-09
4.40362e-08
1.2251e-09
4.3977e-08
1.20153e-09
4.39152e-08
1.1791e-09
4.38511e-08
1.15772e-09
4.37845e-08
1.13731e-09
4.37157e-08
1.1178e-09
4.36447e-08
1.09912e-09
4.35715e-08
1.08121e-09
4.34961e-08
1.06401e-09
4.34188e-08
1.04748e-09
4.33395e-08
1.03157e-09
4.32583e-08
1.01624e-09
4.31752e-08
1.00145e-09
4.30904e-08
9.87159e-10
4.30039e-08
9.73338e-10
4.29158e-08
9.59954e-10
4.2826e-08
9.46982e-10
4.27348e-08
9.34393e-10
4.26421e-08
9.22164e-10
4.25481e-08
9.10273e-10
4.24527e-08
8.98698e-10
4.2356e-08
8.87421e-10
4.22582e-08
8.76423e-10
4.21592e-08
8.65688e-10
4.20591e-08
8.55199e-10
4.19581e-08
8.44942e-10
4.1856e-08
8.34903e-10
4.17531e-08
8.25068e-10
4.16493e-08
8.15426e-10
4.15447e-08
8.05964e-10
4.14393e-08
7.9667e-10
4.13333e-08
7.87535e-10
4.12266e-08
7.78547e-10
4.11194e-08
7.69696e-10
4.10116e-08
7.60973e-10
4.09034e-08
7.52367e-10
4.07947e-08
7.43868e-10
4.06856e-08
7.35467e-10
4.05762e-08
7.27155e-10
4.04666e-08
7.18921e-10
4.03567e-08
7.10756e-10
4.02466e-08
7.0265e-10
4.01363e-08
6.94593e-10
4.0026e-08
6.86575e-10
3.99157e-08
6.78586e-10
3.98053e-08
6.70615e-10
3.96951e-08
6.62652e-10
3.95849e-08
6.54685e-10
3.94749e-08
6.46704e-10
3.93651e-08
6.38698e-10
3.92555e-08
6.30657e-10
3.91463e-08
6.22568e-10
3.90375e-08
6.14424e-10
3.8929e-08
6.06212e-10
3.88211e-08
5.97926e-10
3.87137e-08
5.89556e-10
3.86069e-08
5.81098e-10
3.85007e-08
5.72548e-10
3.83952e-08
5.63906e-10
3.82905e-08
5.55182e-10
3.81867e-08
5.46399e-10
3.80837e-08
5.37609e-10
3.79817e-08
5.28943e-10
3.78809e-08
5.20704e-10
3.77819e-08
5.13531e-10
3.76879e-08
5.07779e-10
4.94314e-10
4.44249e-08
2.10082e-09
-4.42907e-08
4.45915e-08
2.33266e-09
4.4774e-08
2.51378e-09
4.49612e-08
2.64325e-09
4.51465e-08
2.72642e-09
4.53251e-08
2.76834e-09
4.54926e-08
2.77337e-09
4.5646e-08
2.74662e-09
4.57835e-08
2.69403e-09
4.59044e-08
2.62175e-09
4.60087e-08
2.53567e-09
4.60973e-08
2.44117e-09
4.61715e-08
2.34288e-09
4.62331e-08
2.24458e-09
4.62839e-08
2.14909e-09
4.63255e-08
2.05834e-09
4.63597e-08
1.97349e-09
4.63877e-08
1.89508e-09
4.64107e-08
1.82317e-09
4.64297e-08
1.75752e-09
4.64452e-08
1.69769e-09
4.64578e-08
1.64315e-09
4.64678e-08
1.59332e-09
4.64755e-08
1.54768e-09
4.6481e-08
1.50571e-09
4.64844e-08
1.46698e-09
4.64857e-08
1.43111e-09
4.64851e-08
1.39776e-09
4.64825e-08
1.36665e-09
4.6478e-08
1.33754e-09
4.64714e-08
1.31024e-09
4.64629e-08
1.28457e-09
4.64524e-08
1.26039e-09
4.644e-08
1.23755e-09
4.64255e-08
1.21596e-09
4.64091e-08
1.1955e-09
4.63908e-08
1.17608e-09
4.63704e-08
1.15763e-09
4.63482e-08
1.14007e-09
4.63239e-08
1.12334e-09
4.62978e-08
1.10736e-09
4.62697e-08
1.09209e-09
4.62397e-08
1.07747e-09
4.62079e-08
1.06345e-09
4.61741e-08
1.05e-09
4.61385e-08
1.03706e-09
4.6101e-08
1.02461e-09
4.60618e-08
1.0126e-09
4.60207e-08
1.00101e-09
4.59779e-08
9.89802e-10
4.59333e-08
9.78956e-10
4.58871e-08
9.68442e-10
4.58391e-08
9.58237e-10
4.57895e-08
9.4832e-10
4.57382e-08
9.3867e-10
4.56854e-08
9.29268e-10
4.5631e-08
9.20096e-10
4.5575e-08
9.11137e-10
4.55176e-08
9.02377e-10
4.54587e-08
8.93799e-10
4.53984e-08
8.85391e-10
4.53367e-08
8.7714e-10
4.52736e-08
8.69032e-10
4.52092e-08
8.61055e-10
4.51436e-08
8.53199e-10
4.50767e-08
8.45453e-10
4.50085e-08
8.37804e-10
4.49393e-08
8.30244e-10
4.48689e-08
8.22761e-10
4.47974e-08
8.15346e-10
4.47249e-08
8.07989e-10
4.46514e-08
8.00678e-10
4.45769e-08
7.93405e-10
4.45015e-08
7.86158e-10
4.44252e-08
7.78927e-10
4.43481e-08
7.71703e-10
4.42702e-08
7.64473e-10
4.41915e-08
7.57227e-10
4.41122e-08
7.49954e-10
4.40322e-08
7.42642e-10
4.39516e-08
7.35279e-10
4.38705e-08
7.27853e-10
4.37888e-08
7.20354e-10
4.37067e-08
7.12768e-10
4.36242e-08
7.05084e-10
4.35413e-08
6.97291e-10
4.34582e-08
6.89377e-10
4.33748e-08
6.81334e-10
4.32912e-08
6.73152e-10
4.32074e-08
6.64824e-10
4.31236e-08
6.56348e-10
4.30398e-08
6.47722e-10
4.2956e-08
6.38954e-10
4.28724e-08
6.30062e-10
4.27889e-08
6.21089e-10
4.27057e-08
6.12121e-10
4.26231e-08
6.033e-10
4.2542e-08
5.94689e-10
4.24649e-08
5.84885e-10
5.62311e-10
4.61649e-08
1.97807e-09
-4.60422e-08
4.63164e-08
2.18115e-09
4.64844e-08
2.34584e-09
4.66591e-08
2.46857e-09
4.6834e-08
2.55147e-09
4.70044e-08
2.59792e-09
4.71663e-08
2.61145e-09
4.73168e-08
2.59616e-09
4.74539e-08
2.55691e-09
4.75768e-08
2.49888e-09
4.76853e-08
2.42714e-09
4.77801e-08
2.34639e-09
4.78622e-08
2.26078e-09
4.79331e-08
2.17374e-09
4.79942e-08
2.08796e-09
4.80472e-08
2.00537e-09
4.80934e-08
1.92724e-09
4.81342e-08
1.85426e-09
4.81707e-08
1.7867e-09
4.82037e-08
1.72452e-09
4.82339e-08
1.66748e-09
4.82619e-08
1.61519e-09
4.8288e-08
1.56725e-09
4.83124e-08
1.52322e-09
4.83354e-08
1.48268e-09
4.83572e-08
1.44525e-09
4.83777e-08
1.4106e-09
4.8397e-08
1.37843e-09
4.84152e-08
1.34848e-09
4.84322e-08
1.32053e-09
4.84481e-08
1.29438e-09
4.84628e-08
1.26988e-09
4.84763e-08
1.24687e-09
4.84886e-08
1.22522e-09
4.84997e-08
1.20484e-09
4.85096e-08
1.18561e-09
4.85183e-08
1.16744e-09
4.85256e-08
1.15025e-09
4.85318e-08
1.13397e-09
4.85366e-08
1.11853e-09
4.854e-08
1.10387e-09
4.85422e-08
1.08993e-09
4.8543e-08
1.07666e-09
4.85425e-08
1.064e-09
4.85405e-08
1.05191e-09
4.85372e-08
1.04036e-09
4.85326e-08
1.0293e-09
4.85265e-08
1.01869e-09
4.8519e-08
1.0085e-09
4.85101e-08
9.98712e-10
4.84997e-08
9.89282e-10
4.8488e-08
9.80187e-10
4.84748e-08
9.71404e-10
4.84602e-08
9.62908e-10
4.84442e-08
9.54678e-10
4.84268e-08
9.46693e-10
4.8408e-08
9.38934e-10
4.83877e-08
9.31384e-10
4.83661e-08
9.24025e-10
4.8343e-08
9.16842e-10
4.83186e-08
9.09819e-10
4.82928e-08
9.02943e-10
4.82656e-08
8.96199e-10
4.82371e-08
8.89574e-10
4.82073e-08
8.83056e-10
4.81761e-08
8.76632e-10
4.81436e-08
8.70292e-10
4.81098e-08
8.64022e-10
4.80748e-08
8.57813e-10
4.80385e-08
8.51652e-10
4.80009e-08
8.45528e-10
4.79622e-08
8.39431e-10
4.79222e-08
8.33348e-10
4.78811e-08
8.2727e-10
4.78388e-08
8.21183e-10
4.77955e-08
8.15076e-10
4.7751e-08
8.08939e-10
4.77055e-08
8.02757e-10
4.76589e-08
7.96519e-10
4.76113e-08
7.90212e-10
4.75628e-08
7.83823e-10
4.75133e-08
7.7734e-10
4.74629e-08
7.70748e-10
4.74117e-08
7.64035e-10
4.73595e-08
7.57187e-10
4.73066e-08
7.50193e-10
4.7253e-08
7.43039e-10
4.71986e-08
7.35715e-10
4.71435e-08
7.28212e-10
4.70878e-08
7.20521e-10
4.70316e-08
7.12637e-10
4.69747e-08
7.04559e-10
4.69174e-08
6.96291e-10
4.68596e-08
6.87847e-10
4.68014e-08
6.79249e-10
4.6743e-08
6.7053e-10
4.66847e-08
6.61672e-10
4.66271e-08
6.52276e-10
4.6572e-08
6.39984e-10
6.1354e-10
4.79644e-08
1.864e-09
-4.78504e-08
4.81035e-08
2.04205e-09
4.82587e-08
2.19068e-09
4.84218e-08
2.30547e-09
4.85868e-08
2.38648e-09
4.8749e-08
2.43566e-09
4.89048e-08
2.45565e-09
4.90513e-08
2.44971e-09
4.91864e-08
2.42175e-09
4.93093e-08
2.37606e-09
4.94194e-08
2.31696e-09
4.95173e-08
2.24853e-09
4.96036e-08
2.17442e-09
4.96796e-08
2.09775e-09
4.97466e-08
2.02103e-09
4.98058e-08
1.94614e-09
4.98586e-08
1.8744e-09
4.99063e-08
1.80663e-09
4.99497e-08
1.74326e-09
4.99898e-08
1.68441e-09
5.00273e-08
1.62999e-09
5.00627e-08
1.57979e-09
5.00964e-08
1.53352e-09
5.01288e-08
1.49083e-09
5.01601e-08
1.45142e-09
5.01904e-08
1.41495e-09
5.02198e-08
1.38115e-09
5.02485e-08
1.34974e-09
5.02765e-08
1.32051e-09
5.03038e-08
1.29324e-09
5.03304e-08
1.26776e-09
5.03563e-08
1.24391e-09
5.03817e-08
1.22156e-09
5.04063e-08
1.20058e-09
5.04303e-08
1.18086e-09
5.04536e-08
1.1623e-09
5.04762e-08
1.14483e-09
5.04981e-08
1.12835e-09
5.05193e-08
1.11279e-09
5.05397e-08
1.09809e-09
5.05594e-08
1.08418e-09
5.05783e-08
1.07102e-09
5.05965e-08
1.05854e-09
5.06138e-08
1.04669e-09
5.06302e-08
1.03543e-09
5.06459e-08
1.02473e-09
5.06606e-08
1.01453e-09
5.06745e-08
1.00481e-09
5.06875e-08
9.95523e-10
5.06996e-08
9.86647e-10
5.07107e-08
9.7815e-10
5.07209e-08
9.70004e-10
5.07301e-08
9.62182e-10
5.07384e-08
9.54663e-10
5.07456e-08
9.47422e-10
5.07519e-08
9.40438e-10
5.07571e-08
9.33692e-10
5.07613e-08
9.27165e-10
5.07645e-08
9.20839e-10
5.07667e-08
9.14698e-10
5.07677e-08
9.08725e-10
5.07678e-08
9.02905e-10
5.07668e-08
8.97223e-10
5.07647e-08
8.91666e-10
5.07615e-08
8.8622e-10
5.07573e-08
8.80873e-10
5.07519e-08
8.7561e-10
5.07455e-08
8.7042e-10
5.07381e-08
8.65291e-10
5.07295e-08
8.60209e-10
5.07199e-08
8.55164e-10
5.07092e-08
8.50143e-10
5.06974e-08
8.45133e-10
5.06845e-08
8.40122e-10
5.06706e-08
8.35099e-10
5.06556e-08
8.30049e-10
5.06396e-08
8.2496e-10
5.06226e-08
8.19819e-10
5.06045e-08
8.14612e-10
5.05854e-08
8.09325e-10
5.05652e-08
8.03945e-10
5.05441e-08
7.98456e-10
5.0522e-08
7.92846e-10
5.0499e-08
7.87099e-10
5.04749e-08
7.81201e-10
5.045e-08
7.75138e-10
5.04241e-08
7.68899e-10
5.03974e-08
7.62469e-10
5.03698e-08
7.55839e-10
5.03413e-08
7.49e-10
5.0312e-08
7.41946e-10
5.02818e-08
7.34673e-10
5.0251e-08
7.27183e-10
5.02193e-08
7.19481e-10
5.0187e-08
7.11573e-10
5.01541e-08
7.03439e-10
5.01208e-08
6.94935e-10
5.00877e-08
6.85402e-10
5.00554e-08
6.7228e-10
6.46511e-10
4.98258e-08
1.75671e-09
-4.97185e-08
4.99548e-08
1.9131e-09
5.00988e-08
2.04662e-09
5.02514e-08
2.1529e-09
5.04071e-08
2.23081e-09
5.05615e-08
2.28123e-09
5.07112e-08
2.30597e-09
5.08533e-08
2.30755e-09
5.0986e-08
2.28906e-09
5.11081e-08
2.25403e-09
5.12189e-08
2.20607e-09
5.13188e-08
2.14868e-09
5.14082e-08
2.08506e-09
5.14879e-08
2.018e-09
5.15591e-08
1.94982e-09
5.16229e-08
1.88231e-09
5.16805e-08
1.81682e-09
5.17329e-08
1.75422e-09
5.17811e-08
1.69506e-09
5.1826e-08
1.6396e-09
5.18681e-08
1.58789e-09
5.1908e-08
1.53985e-09
5.19462e-08
1.49528e-09
5.19831e-08
1.45397e-09
5.20189e-08
1.41567e-09
5.20537e-08
1.38011e-09
5.20878e-08
1.34707e-09
5.21212e-08
1.31633e-09
5.2154e-08
1.28767e-09
5.21863e-08
1.26091e-09
5.22182e-08
1.23591e-09
5.22496e-08
1.2125e-09
5.22806e-08
1.19057e-09
5.23112e-08
1.17e-09
5.23414e-08
1.15068e-09
5.23711e-08
1.13252e-09
5.24005e-08
1.11544e-09
5.24295e-08
1.09936e-09
5.24581e-08
1.0842e-09
5.24863e-08
1.06991e-09
5.2514e-08
1.05642e-09
5.25414e-08
1.04367e-09
5.25683e-08
1.03163e-09
5.25948e-08
1.02022e-09
5.26208e-08
1.00943e-09
5.26463e-08
9.99188e-10
5.26714e-08
9.89473e-10
5.26959e-08
9.80245e-10
5.272e-08
9.71469e-10
5.27435e-08
9.63116e-10
5.27665e-08
9.55154e-10
5.2789e-08
9.47557e-10
5.28108e-08
9.403e-10
5.28321e-08
9.33357e-10
5.28529e-08
9.26707e-10
5.2873e-08
9.20328e-10
5.28925e-08
9.142e-10
5.29113e-08
9.08304e-10
5.29295e-08
9.02623e-10
5.29471e-08
8.97138e-10
5.2964e-08
8.91834e-10
5.29802e-08
8.86695e-10
5.29957e-08
8.81707e-10
5.30105e-08
8.76855e-10
5.30246e-08
8.72125e-10
5.3038e-08
8.67504e-10
5.30506e-08
8.62978e-10
5.30625e-08
8.58535e-10
5.30736e-08
8.54162e-10
5.3084e-08
8.49846e-10
5.30936e-08
8.45574e-10
5.31024e-08
8.41335e-10
5.31104e-08
8.37114e-10
5.31176e-08
8.329e-10
5.31241e-08
8.28678e-10
5.31297e-08
8.24437e-10
5.31345e-08
8.20162e-10
5.31385e-08
8.15839e-10
5.31416e-08
8.11454e-10
5.31439e-08
8.06994e-10
5.31454e-08
8.02442e-10
5.31461e-08
7.97784e-10
5.3146e-08
7.93006e-10
5.3145e-08
7.88092e-10
5.31431e-08
7.83028e-10
5.31405e-08
7.77799e-10
5.3137e-08
7.72392e-10
5.31327e-08
7.66794e-10
5.31275e-08
7.60994e-10
5.31215e-08
7.54983e-10
5.31147e-08
7.48753e-10
5.31071e-08
7.42301e-10
5.30986e-08
7.35625e-10
5.30894e-08
7.28724e-10
5.30794e-08
7.21586e-10
5.30687e-08
7.14157e-10
5.30574e-08
7.06221e-10
5.30457e-08
6.97053e-10
5.30336e-08
6.84442e-10
6.6232e-10
5.17516e-08
1.65484e-09
-5.16497e-08
5.18722e-08
1.79248e-09
5.20067e-08
1.9121e-09
5.21499e-08
2.00975e-09
5.2297e-08
2.08375e-09
5.2444e-08
2.13419e-09
5.25877e-08
2.16223e-09
5.27256e-08
2.16971e-09
5.28556e-08
2.15907e-09
5.29765e-08
2.13315e-09
5.30876e-08
2.09493e-09
5.31889e-08
2.04738e-09
5.32807e-08
1.99328e-09
5.33636e-08
1.9351e-09
5.34384e-08
1.87495e-09
5.35062e-08
1.81452e-09
5.35679e-08
1.75511e-09
5.36245e-08
1.69765e-09
5.36768e-08
1.64277e-09
5.37256e-08
1.59081e-09
5.37715e-08
1.54196e-09
5.38151e-08
1.49622e-09
5.38569e-08
1.45351e-09
5.38972e-08
1.41371e-09
5.39362e-08
1.37663e-09
5.39743e-08
1.34208e-09
5.40115e-08
1.30987e-09
5.4048e-08
1.27982e-09
5.40839e-08
1.25175e-09
5.41193e-08
1.22551e-09
5.41542e-08
1.20096e-09
5.41888e-08
1.17796e-09
5.42229e-08
1.1564e-09
5.42568e-08
1.13617e-09
5.42903e-08
1.11717e-09
5.43235e-08
1.09931e-09
5.43564e-08
1.08252e-09
5.43891e-08
1.06671e-09
5.44214e-08
1.05183e-09
5.44535e-08
1.0378e-09
5.44854e-08
1.02457e-09
5.4517e-08
1.01209e-09
5.45483e-08
1.0003e-09
5.45794e-08
9.89166e-10
5.46101e-08
9.78633e-10
5.46407e-08
9.68665e-10
5.46709e-08
9.59224e-10
5.47009e-08
9.50275e-10
5.47306e-08
9.41785e-10
5.476e-08
9.33722e-10
5.47891e-08
9.26058e-10
5.48179e-08
9.18766e-10
5.48463e-08
9.11821e-10
5.48745e-08
9.05199e-10
5.49023e-08
8.98878e-10
5.49298e-08
8.92835e-10
5.4957e-08
8.87053e-10
5.49838e-08
8.81512e-10
5.50102e-08
8.76193e-10
5.50362e-08
8.71081e-10
5.50619e-08
8.66159e-10
5.50872e-08
8.61412e-10
5.51121e-08
8.56825e-10
5.51366e-08
8.52384e-10
5.51606e-08
8.48074e-10
5.51842e-08
8.43883e-10
5.52074e-08
8.39798e-10
5.52301e-08
8.35805e-10
5.52524e-08
8.31892e-10
5.52742e-08
8.28046e-10
5.52955e-08
8.24255e-10
5.53163e-08
8.20506e-10
5.53367e-08
8.16786e-10
5.53565e-08
8.13082e-10
5.53758e-08
8.09381e-10
5.53946e-08
8.0567e-10
5.54128e-08
8.01935e-10
5.54305e-08
7.98163e-10
5.54476e-08
7.94338e-10
5.54641e-08
7.90447e-10
5.54801e-08
7.86475e-10
5.54955e-08
7.82408e-10
5.55102e-08
7.78229e-10
5.55244e-08
7.73925e-10
5.5538e-08
7.6948e-10
5.55509e-08
7.64881e-10
5.55632e-08
7.60114e-10
5.55748e-08
7.55166e-10
5.55858e-08
7.50027e-10
5.5596e-08
7.44688e-10
5.56057e-08
7.39141e-10
5.56146e-08
7.33383e-10
5.56228e-08
7.27409e-10
5.56303e-08
7.21215e-10
5.56371e-08
7.14778e-10
5.56432e-08
7.08026e-10
5.56487e-08
7.00727e-10
5.56535e-08
6.92242e-10
5.5657e-08
6.80983e-10
6.63759e-10
5.37445e-08
1.55738e-09
-5.36471e-08
5.38583e-08
1.67875e-09
5.39846e-08
1.78575e-09
5.41194e-08
1.87495e-09
5.42587e-08
1.94452e-09
5.43988e-08
1.99404e-09
5.45369e-08
2.02415e-09
5.46705e-08
2.03614e-09
5.47976e-08
2.0319e-09
5.49171e-08
2.01366e-09
5.50282e-08
1.98387e-09
5.51305e-08
1.94503e-09
5.52243e-08
1.8995e-09
5.53099e-08
1.84947e-09
5.53881e-08
1.79681e-09
5.54595e-08
1.7431e-09
5.5525e-08
1.68958e-09
5.55855e-08
1.6372e-09
5.56416e-08
1.58661e-09
5.56942e-08
1.53826e-09
5.57438e-08
1.49239e-09
5.57909e-08
1.44911e-09
5.5836e-08
1.40843e-09
5.58794e-08
1.37029e-09