/*--------------------------------*- C++ -*----------------------------------*\
| =========                 |                                                 |
| \\      /  F ield         | OpenFOAM: The Open Source CFD Toolbox           |
|  \\    /   O peration     | Version:  2.3.0                                 |
|   \\  /    A nd           | Web:      www.OpenFOAM.org                      |
|    \\/     M anipulation  |                                                 |
\*---------------------------------------------------------------------------*/
FoamFile
{
    version     2.0;
    format      ascii;
    class       surfaceScalarField;
    location    "0.7";
    object      phi_0;
}
// * * * * * * * * * * * * * * * * * * * * * * * * * * * * * * * * * * * * * //

dimensions      [0 3 -1 0 0 0 0];

internalField   nonuniform List<scalar> 
3859
(
2.80018e-08
2.91597e-09
-3.09178e-08
2.51067e-08
2.89515e-09
2.23911e-08
2.71557e-09
1.98899e-08
2.50116e-09
1.76206e-08
2.26929e-09
1.55949e-08
2.02578e-09
1.38154e-08
1.77945e-09
1.22768e-08
1.5386e-09
1.09665e-08
1.31031e-09
9.86611e-09
1.10039e-09
8.95304e-09
9.13071e-10
8.20224e-09
7.50795e-10
7.58811e-09
6.14132e-10
7.08607e-09
5.02036e-10
6.67383e-09
4.12239e-10
6.3321e-09
3.41731e-10
6.0449e-09
2.87206e-10
5.79946e-09
2.45436e-10
5.58595e-09
2.13508e-10
5.39699e-09
1.88961e-10
5.22717e-09
1.69819e-10
5.0726e-09
1.54569e-10
4.93051e-09
1.42092e-10
4.79891e-09
1.31596e-10
4.67638e-09
1.22532e-10
4.56185e-09
1.14533e-10
4.45449e-09
1.07356e-10
4.35365e-09
1.00843e-10
4.25876e-09
9.48903e-11
4.16933e-09
8.94274e-11
4.08493e-09
8.44031e-11
4.00515e-09
7.97777e-11
3.92964e-09
7.55178e-11
3.85804e-09
7.15936e-11
3.79006e-09
6.79774e-11
3.72542e-09
6.46434e-11
3.66385e-09
6.15672e-11
3.60513e-09
5.8726e-11
3.54903e-09
5.60985e-11
3.49536e-09
5.36653e-11
3.44396e-09
5.14084e-11
3.39464e-09
4.93114e-11
3.34728e-09
4.73598e-11
3.30174e-09
4.55401e-11
3.2579e-09
4.38405e-11
3.21565e-09
4.22502e-11
3.17489e-09
4.07597e-11
3.13553e-09
3.93602e-11
3.09749e-09
3.80441e-11
3.06069e-09
3.68044e-11
3.02505e-09
3.56348e-11
2.99052e-09
3.45297e-11
2.95704e-09
3.3484e-11
2.92454e-09
3.2493e-11
2.89299e-09
3.15524e-11
2.86233e-09
3.06585e-11
2.83253e-09
2.98078e-11
2.80353e-09
2.89969e-11
2.77531e-09
2.82229e-11
2.74782e-09
2.74831e-11
2.72105e-09
2.67751e-11
2.69495e-09
2.60964e-11
2.66951e-09
2.5445e-11
2.64469e-09
2.48188e-11
2.62047e-09
2.42161e-11
2.59684e-09
2.36352e-11
2.57376e-09
2.30746e-11
2.55123e-09
2.25327e-11
2.52922e-09
2.20083e-11
2.50772e-09
2.15002e-11
2.48671e-09
2.10073e-11
2.46618e-09
2.05285e-11
2.44612e-09
2.00629e-11
2.42651e-09
1.96097e-11
2.40734e-09
1.91681e-11
2.38861e-09
1.87375e-11
2.37029e-09
1.83173e-11
2.35238e-09
1.7907e-11
2.33488e-09
1.75063e-11
2.31776e-09
1.71147e-11
2.30103e-09
1.67323e-11
2.28467e-09
1.63587e-11
2.26868e-09
1.59941e-11
2.25304e-09
1.56386e-11
2.23774e-09
1.52926e-11
2.22279e-09
1.49564e-11
2.20816e-09
1.46308e-11
2.19384e-09
1.43166e-11
2.17983e-09
1.40149e-11
2.1661e-09
1.37272e-11
2.15264e-09
1.34557e-11
2.13944e-09
1.32028e-11
2.12647e-09
1.29726e-11
2.1137e-09
1.27715e-11
2.10109e-09
1.26106e-11
2.08857e-09
1.25145e-11
2.07603e-09
1.25444e-11
2.06322e-09
1.28041e-11
2.04893e-09
1.42917e-11
3.80487e-11
3.59109e-08
3.19938e-09
-3.61943e-08
3.53026e-08
3.50349e-09
3.44503e-08
3.56786e-09
3.34321e-08
3.51934e-09
3.2305e-08
3.39638e-09
3.11163e-08
3.21452e-09
2.99045e-08
2.99119e-09
2.86996e-08
2.74353e-09
2.75237e-08
2.48625e-09
2.63925e-08
2.23157e-09
2.53164e-08
1.98914e-09
2.43014e-08
1.76583e-09
2.33499e-08
1.56563e-09
2.24619e-08
1.39003e-09
2.16356e-08
1.23852e-09
2.08681e-08
1.10924e-09
2.01558e-08
9.99557e-10
1.94946e-08
9.06578e-10
1.88807e-08
8.27467e-10
1.831e-08
7.59676e-10
1.77787e-08
7.01034e-10
1.72835e-08
6.49772e-10
1.68211e-08
6.04489e-10
1.63886e-08
5.64103e-10
1.59834e-08
5.27787e-10
1.5603e-08
4.94914e-10
1.52453e-08
4.65002e-10
1.49085e-08
4.3768e-10
1.45907e-08
4.12652e-10
1.42905e-08
3.89675e-10
1.40064e-08
3.68549e-10
1.3737e-08
3.49097e-10
1.34814e-08
3.31166e-10
1.32384e-08
3.14619e-10
1.3007e-08
2.9933e-10
1.27865e-08
2.85189e-10
1.25759e-08
2.72091e-10
1.23747e-08
2.59944e-10
1.21822e-08
2.48662e-10
1.19977e-08
2.38169e-10
1.18207e-08
2.28396e-10
1.16507e-08
2.19278e-10
1.14873e-08
2.1076e-10
1.13301e-08
2.02789e-10
1.11786e-08
1.9532e-10
1.10325e-08
1.8831e-10
1.08916e-08
1.81723e-10
1.07554e-08
1.75523e-10
1.06238e-08
1.69681e-10
1.04964e-08
1.64167e-10
1.03731e-08
1.58956e-10
1.02536e-08
1.54026e-10
1.01377e-08
1.49355e-10
1.00253e-08
1.44924e-10
9.91611e-09
1.40715e-10
9.81005e-09
1.36712e-10
9.70696e-09
1.329e-10
9.60669e-09
1.29265e-10
9.50912e-09
1.25794e-10
9.41413e-09
1.22475e-10
9.3216e-09
1.19299e-10
9.23145e-09
1.16254e-10
9.14356e-09
1.13331e-10
9.05786e-09
1.10522e-10
8.97426e-09
1.07818e-10
8.89268e-09
1.05212e-10
8.81306e-09
1.02698e-10
8.73532e-09
1.00268e-10
8.65941e-09
9.79161e-11
8.58528e-09
9.56375e-11
8.51286e-09
9.34269e-11
8.44211e-09
9.12793e-11
8.37298e-09
8.91905e-11
8.30543e-09
8.71564e-11
8.23943e-09
8.51734e-11
8.17493e-09
8.32381e-11
8.11189e-09
8.13476e-11
8.0503e-09
7.94994e-11
7.99012e-09
7.76911e-11
7.93131e-09
7.59209e-11
7.87386e-09
7.41873e-11
7.81773e-09
7.24893e-11
7.76289e-09
7.08263e-11
7.70933e-09
6.91982e-11
7.65702e-09
6.76054e-11
7.60593e-09
6.60491e-11
7.55603e-09
6.45309e-11
7.50729e-09
6.30536e-11
7.45969e-09
6.16206e-11
7.41318e-09
6.0237e-11
7.36772e-09
5.89094e-11
7.32328e-09
5.76469e-11
7.27979e-09
5.64629e-11
7.23718e-09
5.53786e-11
7.19536e-09
5.44322e-11
7.15417e-09
5.37057e-11
7.11332e-09
5.3395e-11
7.07204e-09
5.40829e-11
7.02555e-09
6.07792e-11
1.0264e-10
4.05732e-08
3.02726e-09
-4.04011e-08
4.06627e-08
3.41399e-09
4.06248e-08
3.60574e-09
4.04614e-08
3.6828e-09
4.01801e-08
3.67762e-09
3.97934e-08
3.60131e-09
3.93174e-08
3.4671e-09
3.87701e-08
3.29084e-09
3.81686e-08
3.08782e-09
3.75285e-08
2.87169e-09
3.68636e-08
2.65403e-09
3.61855e-08
2.44392e-09
3.55034e-08
2.24768e-09
3.48245e-08
2.06894e-09
3.41539e-08
1.90908e-09
3.34954e-08
1.7678e-09
3.28513e-08
1.64369e-09
3.22231e-08
1.53475e-09
3.16117e-08
1.4388e-09
3.10177e-08
1.35373e-09
3.04411e-08
1.27764e-09
2.98819e-08
1.20897e-09
2.93399e-08
1.14643e-09
2.8815e-08
1.089e-09
2.83069e-08
1.03593e-09
2.78152e-08
9.86616e-10
2.73396e-08
9.40613e-10
2.68797e-08
8.97573e-10
2.64351e-08
8.57226e-10
2.60054e-08
8.1935e-10
2.55902e-08
7.83761e-10
2.5189e-08
7.50298e-10
2.48014e-08
7.18819e-10
2.44268e-08
6.89195e-10
2.40648e-08
6.61304e-10
2.3715e-08
6.35036e-10
2.33768e-08
6.10284e-10
2.30498e-08
5.86952e-10
2.27335e-08
5.64946e-10
2.24275e-08
5.44179e-10
2.21313e-08
5.24571e-10
2.18445e-08
5.06046e-10
2.15668e-08
4.88532e-10
2.12976e-08
4.71963e-10
2.10366e-08
4.56277e-10
2.07835e-08
4.41417e-10
2.05379e-08
4.27328e-10
2.02995e-08
4.13961e-10
2.00679e-08
4.01268e-10
1.98429e-08
3.89206e-10
1.96241e-08
3.77734e-10
1.94113e-08
3.66814e-10
1.92042e-08
3.5641e-10
1.90027e-08
3.46489e-10
1.88064e-08
3.37019e-10
1.86151e-08
3.27972e-10
1.84287e-08
3.1932e-10
1.82469e-08
3.11037e-10
1.80696e-08
3.03099e-10
1.78966e-08
2.95484e-10
1.77277e-08
2.88171e-10
1.75628e-08
2.8114e-10
1.74018e-08
2.74372e-10
1.72445e-08
2.6785e-10
1.70907e-08
2.61557e-10
1.69405e-08
2.55477e-10
1.67936e-08
2.49598e-10
1.66499e-08
2.43904e-10
1.65095e-08
2.38383e-10
1.63721e-08
2.33023e-10
1.62377e-08
2.27813e-10
1.61062e-08
2.22742e-10
1.59776e-08
2.17802e-10
1.58518e-08
2.12982e-10
1.57287e-08
2.08274e-10
1.56083e-08
2.03671e-10
1.54904e-08
1.99166e-10
1.53752e-08
1.94753e-10
1.52625e-08
1.90426e-10
1.51522e-08
1.86179e-10
1.50444e-08
1.82011e-10
1.4939e-08
1.77916e-10
1.48359e-08
1.73894e-10
1.47351e-08
1.69943e-10
1.46367e-08
1.66063e-10
1.45405e-08
1.62255e-10
1.44465e-08
1.58522e-10
1.43547e-08
1.5487e-10
1.4265e-08
1.51303e-10
1.41774e-08
1.47832e-10
1.40918e-08
1.4447e-10
1.40082e-08
1.41234e-10
1.39266e-08
1.38151e-10
1.38467e-08
1.35263e-10
1.37685e-08
1.32644e-10
1.36917e-08
1.30455e-10
1.3616e-08
1.29093e-10
1.35402e-08
1.29937e-10
1.34601e-08
1.40853e-10
1.86435e-10
4.50676e-08
2.81493e-09
-4.48553e-08
4.52967e-08
3.18485e-09
4.54911e-08
3.41143e-09
4.56346e-08
3.53927e-09
4.57182e-08
3.59402e-09
4.5735e-08
3.58445e-09
4.56831e-08
3.51901e-09
4.55647e-08
3.40929e-09
4.53848e-08
3.26772e-09
4.51504e-08
3.10603e-09
4.48697e-08
2.93478e-09
4.45508e-08
2.76278e-09
4.42018e-08
2.59673e-09
4.38296e-08
2.44111e-09
4.34403e-08
2.29839e-09
4.30387e-08
2.16938e-09
4.26287e-08
2.05374e-09
4.2213e-08
1.95036e-09
4.17941e-08
1.85779e-09
4.13733e-08
1.77447e-09
4.0952e-08
1.69891e-09
4.05312e-08
1.6298e-09
4.01116e-08
1.56604e-09
3.96938e-08
1.50676e-09
3.92785e-08
1.45127e-09
3.88661e-08
1.39903e-09
3.8457e-08
1.34965e-09
3.80518e-08
1.30283e-09
3.76507e-08
1.25833e-09
3.72541e-08
1.21597e-09
3.68622e-08
1.1756e-09
3.64754e-08
1.13711e-09
3.60939e-08
1.10038e-09
3.57177e-08
1.06533e-09
3.53472e-08
1.03185e-09
3.49823e-08
9.99881e-10
3.46233e-08
9.69336e-10
3.42701e-08
9.40145e-10
3.39228e-08
9.12238e-10
3.35814e-08
8.85551e-10
3.3246e-08
8.6002e-10
3.29164e-08
8.35588e-10
3.25928e-08
8.12198e-10
3.22749e-08
7.89797e-10
3.19629e-08
7.68335e-10
3.16565e-08
7.47763e-10
3.13558e-08
7.28035e-10
3.10607e-08
7.0911e-10
3.0771e-08
6.90946e-10
3.04867e-08
6.73503e-10
3.02077e-08
6.56745e-10
2.99339e-08
6.40636e-10
2.96651e-08
6.25143e-10
2.94014e-08
6.10233e-10
2.91425e-08
5.95875e-10
2.88885e-08
5.82041e-10
2.86391e-08
5.68701e-10
2.83943e-08
5.5583e-10
2.8154e-08
5.43401e-10
2.79181e-08
5.3139e-10
2.76865e-08
5.19774e-10
2.74591e-08
5.08529e-10
2.72358e-08
4.97635e-10
2.70166e-08
4.8707e-10
2.68013e-08
4.76815e-10
2.659e-08
4.66852e-10
2.63824e-08
4.57161e-10
2.61786e-08
4.47726e-10
2.59784e-08
4.38531e-10
2.57819e-08
4.29559e-10
2.55889e-08
4.20797e-10
2.53994e-08
4.12229e-10
2.52134e-08
4.03842e-10
2.50308e-08
3.95624e-10
2.48515e-08
3.87563e-10
2.46755e-08
3.79648e-10
2.45028e-08
3.71868e-10
2.43333e-08
3.64216e-10
2.41671e-08
3.56681e-10
2.4004e-08
3.49258e-10
2.38441e-08
3.41939e-10
2.36873e-08
3.34721e-10
2.35335e-08
3.27599e-10
2.33829e-08
3.20572e-10
2.32353e-08
3.1364e-10
2.30908e-08
3.06804e-10
2.29492e-08
3.00068e-10
2.28107e-08
2.93441e-10
2.26751e-08
2.86931e-10
2.25423e-08
2.80553e-10
2.24125e-08
2.74328e-10
2.22854e-08
2.68284e-10
2.21611e-08
2.62461e-10
2.20394e-08
2.56926e-10
2.19203e-08
2.51795e-10
2.18034e-08
2.4731e-10
2.16885e-08
2.44082e-10
2.15743e-08
2.44114e-10
2.146e-08
2.55163e-10
2.92179e-10
4.99411e-08
2.63108e-09
-4.97572e-08
5.01688e-08
2.9571e-09
5.03986e-08
3.18169e-09
5.06137e-08
3.32418e-09
5.08047e-08
3.40297e-09
5.09627e-08
3.42642e-09
5.10808e-08
3.40094e-09
5.11551e-08
3.33503e-09
5.11845e-08
3.23832e-09
5.11702e-08
3.1203e-09
5.11153e-08
2.98969e-09
5.1024e-08
2.85409e-09
5.09012e-08
2.71957e-09
5.07517e-08
2.59055e-09
5.05803e-08
2.46984e-09
5.03908e-08
2.35883e-09
5.01867e-08
2.25785e-09
4.99706e-08
2.16648e-09
4.97445e-08
2.08384e-09
4.95101e-08
2.00888e-09
4.92686e-08
1.94048e-09
4.90208e-08
1.87761e-09
4.87674e-08
1.81936e-09
4.85092e-08
1.76499e-09
4.82466e-08
1.71388e-09
4.79801e-08
1.66556e-09
4.77101e-08
1.61967e-09
4.7437e-08
1.57593e-09
4.71612e-08
1.53412e-09
4.68831e-08
1.49408e-09
4.6603e-08
1.45567e-09
4.63213e-08
1.41881e-09
4.60383e-08
1.38338e-09
4.57543e-08
1.34932e-09
4.54696e-08
1.31657e-09
4.51844e-08
1.28505e-09
4.4899e-08
1.25471e-09
4.46137e-08
1.22549e-09
4.43286e-08
1.19734e-09
4.40439e-08
1.17021e-09
4.37599e-08
1.14405e-09
4.34767e-08
1.11883e-09
4.31944e-08
1.09448e-09
4.29132e-08
1.07099e-09
4.26332e-08
1.04829e-09
4.23546e-08
1.02636e-09
4.20775e-08
1.00517e-09
4.18019e-08
9.84671e-10
4.1528e-08
9.64837e-10
4.12559e-08
9.45637e-10
4.09856e-08
9.27041e-10
4.07172e-08
9.0902e-10
4.04508e-08
8.91547e-10
4.01865e-08
8.74594e-10
3.99242e-08
8.58137e-10
3.96641e-08
8.42152e-10
3.94062e-08
8.26613e-10
3.91505e-08
8.11499e-10
3.88971e-08
7.96788e-10
3.86461e-08
7.82457e-10
3.83973e-08
7.68487e-10
3.8151e-08
7.54857e-10
3.79071e-08
7.41548e-10
3.76656e-08
7.28541e-10
3.74266e-08
7.15818e-10
3.71901e-08
7.03361e-10
3.69561e-08
6.91154e-10
3.67247e-08
6.79179e-10
3.64958e-08
6.67422e-10
3.62695e-08
6.55866e-10
3.60458e-08
6.44497e-10
3.58247e-08
6.333e-10
3.56063e-08
6.22262e-10
3.53905e-08
6.11371e-10
3.51775e-08
6.00613e-10
3.49672e-08
5.89978e-10
3.47596e-08
5.79454e-10
3.45548e-08
5.69033e-10
3.43527e-08
5.58704e-10
3.41535e-08
5.48462e-10
3.39572e-08
5.38299e-10
3.37637e-08
5.28212e-10
3.35731e-08
5.18196e-10
3.33854e-08
5.08251e-10
3.32007e-08
4.98378e-10
3.30189e-08
4.8858e-10
3.28401e-08
4.78866e-10
3.26643e-08
4.69244e-10
3.24915e-08
4.59732e-10
3.23217e-08
4.50349e-10
3.21549e-08
4.41124e-10
3.19911e-08
4.32097e-10
3.18302e-08
4.23326e-10
3.16722e-08
4.14898e-10
3.15171e-08
4.06968e-10
3.13645e-08
3.99843e-10
3.12144e-08
3.9425e-10
3.10663e-08
3.92207e-10
3.09224e-08
3.99086e-10
4.18781e-10
5.5318e-08
2.47748e-09
-5.51644e-08
5.55196e-08
2.75558e-09
5.57371e-08
2.96418e-09
5.59538e-08
3.10745e-09
5.61607e-08
3.19609e-09
5.635e-08
3.23708e-09
5.65152e-08
3.23575e-09
5.66517e-08
3.19853e-09
5.67571e-08
3.13291e-09
5.68309e-08
3.04654e-09
5.6874e-08
2.9466e-09
5.68886e-08
2.83944e-09
5.68778e-08
2.73036e-09
5.68449e-08
2.62343e-09
5.67933e-08
2.52146e-09
5.6726e-08
2.4261e-09
5.66458e-08
2.33811e-09
5.65547e-08
2.25755e-09
5.64545e-08
2.18401e-09
5.63466e-08
2.11685e-09
5.62318e-08
2.05529e-09
5.61108e-08
1.99856e-09
5.59842e-08
1.94596e-09
5.58524e-08
1.89685e-09
5.57155e-08
1.85073e-09
5.55739e-08
1.80716e-09
5.54278e-08
1.76581e-09
5.52773e-08
1.72642e-09
5.51226e-08
1.68879e-09
5.49639e-08
1.65275e-09
5.48015e-08
1.61817e-09
5.46353e-08
1.58496e-09
5.44657e-08
1.55302e-09
5.42927e-08
1.52228e-09
5.41166e-08
1.49267e-09
5.39375e-08
1.46415e-09
5.37556e-08
1.43664e-09
5.3571e-08
1.41011e-09
5.33838e-08
1.3845e-09
5.31942e-08
1.35977e-09
5.30024e-08
1.33588e-09
5.28084e-08
1.31278e-09
5.26125e-08
1.29044e-09
5.24146e-08
1.26882e-09
5.22151e-08
1.24788e-09
5.20138e-08
1.2276e-09
5.18111e-08
1.20792e-09
5.16069e-08
1.18884e-09
5.14014e-08
1.17031e-09
5.11948e-08
1.15231e-09
5.0987e-08
1.1348e-09
5.07782e-08
1.11778e-09
5.05686e-08
1.1012e-09
5.03581e-08
1.08504e-09
5.0147e-08
1.06929e-09
4.99352e-08
1.05391e-09
4.9723e-08
1.03889e-09
4.95103e-08
1.0242e-09
4.92972e-08
1.00982e-09
4.90839e-08
9.95743e-10
4.88705e-08
9.81935e-10
4.8657e-08
9.68383e-10
4.84435e-08
9.55067e-10
4.823e-08
9.41969e-10
4.80168e-08
9.29072e-10
4.78038e-08
9.16359e-10
4.75911e-08
9.03813e-10
4.73789e-08
8.91418e-10
4.71671e-08
8.79159e-10
4.6956e-08
8.6702e-10
4.67455e-08
8.54987e-10
4.65357e-08
8.43046e-10
4.63268e-08
8.31182e-10
4.61188e-08
8.19384e-10
4.59118e-08
8.07638e-10
4.57058e-08
7.95933e-10
4.5501e-08
7.84258e-10
4.52975e-08
7.72604e-10
4.50952e-08
7.60962e-10
4.48943e-08
7.49325e-10
4.4695e-08
7.37686e-10
4.44971e-08
7.26043e-10
4.43009e-08
7.14392e-10
4.41064e-08
7.02734e-10
4.39137e-08
6.91072e-10
4.37229e-08
6.79412e-10
4.3534e-08
6.67765e-10
4.33471e-08
6.56145e-10
4.31623e-08
6.44573e-10
4.29795e-08
6.33077e-10
4.2799e-08
6.21694e-10
4.26206e-08
6.10475e-10
4.24444e-08
5.99492e-10
4.22705e-08
5.88851e-10
4.20987e-08
5.78728e-10
4.19291e-08
5.69447e-10
4.17617e-08
5.6167e-10
4.15971e-08
5.56809e-10
4.14393e-08
5.56903e-10
5.56715e-10
6.12602e-08
2.34696e-09
-6.11297e-08
6.14347e-08
2.58102e-09
6.16307e-08
2.76824e-09
6.18323e-08
2.90585e-09
6.20302e-08
2.99821e-09
6.22172e-08
3.05005e-09
6.23874e-08
3.0655e-09
6.25366e-08
3.04939e-09
6.2662e-08
3.00744e-09
6.27629e-08
2.94569e-09
6.28395e-08
2.87e-09
6.28933e-08
2.78565e-09
6.29265e-08
2.6972e-09
6.29416e-08
2.60828e-09
6.29415e-08
2.5216e-09
6.29286e-08
2.43894e-09
6.29054e-08
2.36132e-09
6.28738e-08
2.28918e-09
6.28353e-08
2.22248e-09
6.27912e-08
2.16095e-09
6.27424e-08
2.10412e-09
6.26895e-08
2.05149e-09
6.26329e-08
2.00253e-09
6.2573e-08
1.95677e-09
6.25099e-08
1.9138e-09
6.24438e-08
1.87326e-09
6.23747e-08
1.83487e-09
6.23028e-08
1.79838e-09
6.22279e-08
1.76361e-09
6.21503e-08
1.73039e-09
6.20698e-08
1.69862e-09
6.19866e-08
1.66819e-09
6.19006e-08
1.639e-09
6.18119e-08
1.61099e-09
6.17205e-08
1.58408e-09
6.16264e-08
1.55823e-09
6.15297e-08
1.53337e-09
6.14304e-08
1.50945e-09
6.13284e-08
1.48643e-09
6.1224e-08
1.46426e-09
6.11169e-08
1.44289e-09
6.10074e-08
1.42229e-09
6.08955e-08
1.40241e-09
6.07811e-08
1.38322e-09
6.06643e-08
1.36467e-09
6.05451e-08
1.34675e-09
6.04237e-08
1.3294e-09
6.02999e-08
1.3126e-09
6.01739e-08
1.29631e-09
6.00457e-08
1.28052e-09
5.99153e-08
1.26518e-09
5.97828e-08
1.25027e-09
5.96483e-08
1.23576e-09
5.95117e-08
1.22163e-09
5.93731e-08
1.20785e-09
5.92326e-08
1.1944e-09
5.90902e-08
1.18126e-09
5.8946e-08
1.16839e-09
5.88001e-08
1.15578e-09
5.86524e-08
1.14341e-09
5.85031e-08
1.13125e-09
5.83522e-08
1.11929e-09
5.81998e-08
1.1075e-09
5.80459e-08
1.09587e-09
5.78905e-08
1.08437e-09
5.77339e-08
1.07299e-09
5.7576e-08
1.06171e-09
5.74169e-08
1.05051e-09
5.72567e-08
1.03937e-09
5.70955e-08
1.02827e-09
5.69332e-08
1.01721e-09
5.67701e-08
1.00616e-09
5.66062e-08
9.95102e-10
5.64416e-08
9.84031e-10
5.62763e-08
9.72928e-10
5.61104e-08
9.61781e-10
5.59441e-08
9.50577e-10
5.57774e-08
9.39305e-10
5.56104e-08
9.27955e-10
5.54432e-08
9.16519e-10
5.52759e-08
9.04988e-10
5.51086e-08
8.9336e-10
5.49414e-08
8.81631e-10
5.47743e-08
8.69801e-10
5.46075e-08
8.57874e-10
5.4441e-08
8.45858e-10
5.4275e-08
8.33765e-10
5.41096e-08
8.21612e-10
5.39447e-08
8.09424e-10
5.37806e-08
7.97233e-10
5.36172e-08
7.85083e-10
5.34546e-08
7.73034e-10
5.3293e-08
7.61165e-10
5.31322e-08
7.49592e-10
5.29725e-08
7.38487e-10
5.28138e-08
7.28126e-10
5.26565e-08
7.18943e-10
5.25019e-08
7.1145e-10
5.23539e-08
7.04827e-10
6.89438e-10
6.78248e-08
2.23405e-09
-6.77119e-08
6.79753e-08
2.43046e-09
6.81484e-08
2.59521e-09
6.83307e-08
2.72348e-09
6.85132e-08
2.81574e-09
6.86889e-08
2.87433e-09
6.88523e-08
2.90212e-09
6.89991e-08
2.90257e-09
6.91267e-08
2.87987e-09
6.92337e-08
2.83864e-09
6.93202e-08
2.78351e-09
6.93871e-08
2.71879e-09
6.9436e-08
2.64831e-09
6.9469e-08
2.57524e-09
6.94885e-08
2.5021e-09
6.94968e-08
2.43068e-09
6.94959e-08
2.36219e-09
6.94878e-08
2.29729e-09
6.9474e-08
2.2363e-09
6.94557e-08
2.1792e-09
6.9434e-08
2.12584e-09
6.94095e-08
2.07595e-09
6.93829e-08
2.0292e-09
6.93544e-08
1.98528e-09
6.93243e-08
1.9439e-09
6.92927e-08
1.90479e-09
6.92599e-08
1.86771e-09
6.92258e-08
1.83248e-09
6.91905e-08
1.79894e-09
6.91539e-08
1.76696e-09
6.91161e-08
1.73641e-09
6.90771e-08
1.70722e-09
6.90368e-08
1.67929e-09
6.89952e-08
1.65257e-09
6.89523e-08
1.62697e-09
6.89081e-08
1.60246e-09
6.88625e-08
1.57897e-09
6.88155e-08
1.55646e-09
6.8767e-08
1.53487e-09
6.87171e-08
1.51416e-09
6.86657e-08
1.4943e-09
6.86128e-08
1.47522e-09
6.85583e-08
1.45691e-09
6.85022e-08
1.4393e-09
6.84445e-08
1.42238e-09
6.83851e-08
1.4061e-09
6.83241e-08
1.39042e-09
6.82614e-08
1.37532e-09
6.81969e-08
1.36075e-09
6.81308e-08
1.34669e-09
6.80628e-08
1.33311e-09
6.79931e-08
1.31997e-09
6.79217e-08
1.30724e-09
6.78484e-08
1.29491e-09
6.77733e-08
1.28293e-09
6.76964e-08
1.27129e-09
6.76177e-08
1.25996e-09
6.75372e-08
1.2489e-09
6.74549e-08
1.23811e-09
6.73707e-08
1.22754e-09
6.72848e-08
1.21719e-09
6.71971e-08
1.20701e-09
6.71076e-08
1.19701e-09
6.70163e-08
1.18713e-09
6.69233e-08
1.17738e-09
6.68286e-08
1.16773e-09
6.67321e-08
1.15814e-09
6.6634e-08
1.14861e-09
6.65343e-08
1.13912e-09
6.64329e-08
1.12964e-09
6.633e-08
1.12015e-09
6.62255e-08
1.11064e-09
6.61195e-08
1.10109e-09
6.60121e-08
1.09147e-09
6.59032e-08
1.08178e-09
6.5793e-08
1.07199e-09
6.56815e-08
1.06209e-09
6.55687e-08
1.05207e-09
6.54548e-08
1.04192e-09
6.53397e-08
1.03162e-09
6.52235e-08
1.02116e-09
6.51063e-08
1.01054e-09
6.49882e-08
9.99759e-10
6.48692e-08
9.88806e-10
6.47494e-08
9.77688e-10
6.46288e-08
9.66413e-10
6.45076e-08
9.54991e-10
6.43857e-08
9.43442e-10
6.42634e-08
9.31793e-10
6.41405e-08
9.20077e-10
6.40173e-08
9.08342e-10
6.38937e-08
8.96651e-10
6.37697e-08
8.85084e-10
6.36456e-08
8.73754e-10
6.35213e-08
8.62804e-10
6.3397e-08
8.52418e-10
6.32732e-08
8.42748e-10
6.31511e-08
8.33552e-10
6.30333e-08
8.22576e-10
8.0075e-10
6.79878e-08
2.14374e-09
-6.78975e-08
6.81067e-08
2.31159e-09
6.82449e-08
2.45698e-09
6.83932e-08
2.57519e-09
6.8544e-08
2.66491e-09
6.86914e-08
2.72689e-09
6.88307e-08
2.76284e-09
6.89581e-08
2.77517e-09
6.90711e-08
2.76692e-09
6.91681e-08
2.74157e-09
6.92489e-08
2.70272e-09
6.93139e-08
2.65385e-09
6.9364e-08
2.59816e-09
6.94009e-08
2.53839e-09
6.94262e-08
2.47681e-09
6.94417e-08
2.41515e-09
6.94492e-08
2.35467e-09
6.94503e-08
2.29621e-09
6.94463e-08
2.24027e-09
6.94385e-08
2.18708e-09
6.94276e-08
2.13668e-09
6.94146e-08
2.089e-09
6.93999e-08
2.04391e-09
6.93839e-08
2.00122e-09
6.93671e-08
1.96074e-09
6.93496e-08
1.92231e-09
6.93315e-08
1.88576e-09
6.93131e-08
1.85095e-09
6.92943e-08
1.81775e-09
6.92752e-08
1.78606e-09
6.92558e-08
1.75578e-09
6.92362e-08
1.72685e-09
6.92163e-08
1.69918e-09
6.91961e-08
1.67272e-09
6.91757e-08
1.64742e-09
6.91549e-08
1.62321e-09
6.91338e-08
1.60005e-09
6.91124e-08
1.57789e-09
6.90906e-08
1.55669e-09
6.90683e-08
1.53641e-09
6.90456e-08
1.517e-09
6.90224e-08
1.49843e-09
6.89987e-08
1.48064e-09
6.89744e-08
1.46361e-09
6.89494e-08
1.4473e-09
6.89239e-08
1.43167e-09
6.88976e-08
1.41668e-09
6.88706e-08
1.4023e-09
6.88429e-08
1.3885e-09
6.88143e-08
1.37524e-09
6.87849e-08
1.36249e-09
6.87547e-08
1.35022e-09
6.87235e-08
1.33841e-09
6.86914e-08
1.32701e-09
6.86584e-08
1.316e-09
6.86243e-08
1.30535e-09
6.85892e-08
1.29504e-09
6.85531e-08
1.28504e-09
6.85159e-08
1.27532e-09
6.84776e-08
1.26585e-09
6.84381e-08
1.25662e-09
6.83976e-08
1.24758e-09
6.83558e-08
1.23873e-09
6.83129e-08
1.23003e-09
6.82689e-08
1.22147e-09
6.82236e-08
1.21301e-09
6.81771e-08
1.20463e-09
6.81294e-08
1.19632e-09
6.80805e-08
1.18804e-09
6.80303e-08
1.17979e-09
6.79789e-08
1.17153e-09
6.79263e-08
1.16324e-09
6.78725e-08
1.1549e-09
6.78175e-08
1.1465e-09
6.77612e-08
1.13802e-09
6.77038e-08
1.12943e-09
6.76452e-08
1.12072e-09
6.75854e-08
1.11187e-09
6.75244e-08
1.10287e-09
6.74624e-08
1.0937e-09
6.73992e-08
1.08436e-09
6.73349e-08
1.07483e-09
6.72695e-08
1.06511e-09
6.72031e-08
1.0552e-09
6.71357e-08
1.04509e-09
6.70673e-08
1.0348e-09
6.6998e-08
1.02434e-09
6.69277e-08
1.01372e-09
6.68565e-08
1.00297e-09
6.67845e-08
9.92122e-10
6.67116e-08
9.81232e-10
6.66379e-08
9.70359e-10
6.65634e-08
9.5958e-10
6.64882e-08
9.48993e-10
6.64123e-08
9.38711e-10
6.63359e-08
9.28829e-10
6.62593e-08
9.19305e-10
6.61833e-08
9.09562e-10
6.61085e-08
8.97313e-10
8.7617e-10
7.52267e-08
2.06321e-09
-7.51462e-08
7.53308e-08
2.20745e-09
7.54524e-08
2.33545e-09
7.55843e-08
2.44326e-09
7.57203e-08
2.52895e-09
7.58549e-08
2.59223e-09
7.59838e-08
2.63391e-09
7.61035e-08
2.65549e-09
7.62114e-08
2.65905e-09
7.63059e-08
2.64711e-09
7.63862e-08
2.62238e-09
7.64525e-08
2.58759e-09
7.65053e-08
2.54531e-09
7.65458e-08
2.49786e-09
7.65754e-08
2.44722e-09
7.65956e-08
2.395e-09
7.66078e-08
2.34246e-09
7.66135e-08
2.29051e-09
7.6614e-08
2.23978e-09
7.66104e-08
2.19067e-09
7.66036e-08
2.14342e-09
7.65945e-08
2.09811e-09
7.65837e-08
2.05476e-09
7.65716e-08
2.01333e-09
7.65586e-08
1.97373e-09
7.6545e-08
1.93588e-09
7.65311e-08
1.8997e-09
7.65169e-08
1.86509e-09
7.65027e-08
1.83197e-09
7.64885e-08
1.80027e-09
7.64744e-08
1.76993e-09
7.64603e-08
1.74089e-09
7.64464e-08
1.71309e-09
7.64327e-08
1.68648e-09
7.64191e-08
1.66101e-09
7.64056e-08
1.63664e-09
7.63923e-08
1.61333e-09
7.63792e-08
1.59104e-09
7.63662e-08
1.56972e-09
7.63532e-08
1.54934e-09
7.63404e-08
1.52985e-09
7.63276e-08
1.51122e-09
7.63148e-08
1.49341e-09
7.63021e-08
1.47638e-09
7.62893e-08
1.4601e-09
7.62764e-08
1.44453e-09
7.62634e-08
1.42964e-09
7.62504e-08
1.41539e-09
7.62371e-08
1.40175e-09
7.62237e-08
1.38868e-09
7.621e-08
1.37615e-09
7.61961e-08
1.36414e-09
7.61819e-08
1.35261e-09
7.61674e-08
1.34153e-09
7.61525e-08
1.33087e-09
7.61372e-08
1.32061e-09
7.61216e-08
1.31071e-09
7.61054e-08
1.30115e-09
7.60889e-08
1.2919e-09
7.60718e-08
1.28293e-09
7.60542e-08
1.27421e-09
7.6036e-08
1.26573e-09
7.60173e-08
1.25746e-09
7.5998e-08
1.24936e-09
7.5978e-08
1.24142e-09
7.59574e-08
1.2336e-09
7.59362e-08
1.2259e-09
7.59142e-08
1.21827e-09
7.58916e-08
1.21071e-09
7.58682e-08
1.20318e-09
7.5844e-08
1.19566e-09
7.58191e-08
1.18813e-09
7.57935e-08
1.18058e-09
7.5767e-08
1.17296e-09
7.57397e-08
1.16528e-09
7.57117e-08
1.1575e-09
7.56828e-08
1.14961e-09
7.5653e-08
1.1416e-09
7.56225e-08
1.13343e-09
7.55911e-08
1.12511e-09
7.55588e-08
1.11662e-09
7.55257e-08
1.10794e-09
7.54917e-08
1.09908e-09
7.54569e-08
1.09003e-09
7.54212e-08
1.08078e-09
7.53847e-08
1.07135e-09
7.53472e-08
1.06175e-09
7.5309e-08
1.052e-09
7.52698e-08
1.04211e-09
7.52298e-08
1.03214e-09
7.51889e-08
1.02212e-09
7.51471e-08
1.01211e-09
7.51045e-08
1.0022e-09
7.50611e-08
9.92449e-10
7.50168e-08
9.82956e-10
7.49719e-08
9.73753e-10
7.49265e-08
9.64716e-10
7.48808e-08
9.55275e-10
7.48343e-08
9.43834e-10
9.27317e-10
8.32221e-08
1.99216e-09
-8.31511e-08
8.33124e-08
2.11716e-09
8.34177e-08
2.23016e-09
8.35329e-08
2.32807e-09
8.36529e-08
2.40893e-09
8.37732e-08
2.47197e-09
8.38898e-08
2.5173e-09
8.39995e-08
2.54575e-09
8.40999e-08
2.55864e-09
8.41893e-08
2.5577e-09
8.42668e-08
2.54489e-09
8.43322e-08
2.52226e-09
8.43856e-08
2.49185e-09
8.44279e-08
2.45555e-09
8.44601e-08
2.41503e-09
8.44834e-08
2.37176e-09
8.44989e-08
2.32691e-09
8.4508e-08
2.28141e-09
8.45118e-08
2.23599e-09
8.45113e-08
2.19116e-09
8.45075e-08
2.14727e-09
8.4501e-08
2.10456e-09
8.44926e-08
2.06317e-09
8.44827e-08
2.02318e-09
8.44719e-08
1.98461e-09
8.44603e-08
1.94746e-09
8.44483e-08
1.91171e-09
8.4436e-08
1.87734e-09
8.44237e-08
1.84431e-09
8.44113e-08
1.81259e-09
8.43991e-08
1.78213e-09
8.43871e-08
1.7529e-09
8.43754e-08
1.72486e-09
8.43639e-08
1.69798e-09
8.43527e-08
1.67222e-09
8.43418e-08
1.64754e-09
8.43312e-08
1.62391e-09
8.43209e-08
1.6013e-09
8.4311e-08
1.57966e-09
8.43014e-08
1.55897e-09
8.4292e-08
1.53918e-09
8.4283e-08
1.52027e-09
8.42742e-08
1.50219e-09
8.42657e-08
1.4849e-09
8.42574e-08
1.46839e-09
8.42493e-08
1.4526e-09
8.42415e-08
1.43751e-09
8.42338e-08
1.42309e-09
8.42262e-08
1.40929e-09
8.42188e-08
1.3961e-09
8.42115e-08
1.38346e-09
8.42043e-08
1.37137e-09
8.41971e-08
1.35977e-09
8.419e-08
1.34865e-09
8.41829e-08
1.33798e-09
8.41758e-08
1.32772e-09
8.41686e-08
1.31784e-09
8.41615e-08
1.30833e-09
8.41542e-08
1.29915e-09
8.41469e-08
1.29027e-09
8.41394e-08
1.28167e-09
8.41318e-08
1.27332e-09
8.41241e-08
1.26519e-09
8.41162e-08
1.25727e-09
8.41081e-08
1.24952e-09
8.40998e-08
1.24192e-09
8.40912e-08
1.23444e-09
8.40824e-08
1.22707e-09
8.40734e-08
1.21977e-09
8.4064e-08
1.21253e-09
8.40544e-08
1.20532e-09
8.40444e-08
1.19812e-09
8.40341e-08
1.1909e-09
8.40234e-08
1.18365e-09
8.40123e-08
1.17634e-09
8.40009e-08
1.16895e-09
8.3989e-08
1.16147e-09
8.39767e-08
1.15387e-09
8.3964e-08
1.14615e-09
8.39508e-08
1.13828e-09
8.39372e-08
1.13026e-09
8.39231e-08
1.12207e-09
8.39084e-08
1.11371e-09
8.38933e-08
1.10518e-09
8.38776e-08
1.09647e-09
8.38614e-08
1.08759e-09
8.38446e-08
1.07856e-09
8.38272e-08
1.06939e-09
8.38092e-08
1.06012e-09
8.37905e-08
1.05077e-09
8.37713e-08
1.04139e-09
8.37513e-08
1.03204e-09
8.37307e-08
1.0228e-09
8.37094e-08
1.01372e-09
8.36875e-08
1.00489e-09
8.3665e-08
9.96311e-10
8.36418e-08
9.87888e-10
8.36178e-08
9.79265e-10
8.35919e-08
9.69709e-10
9.58595e-10
9.20543e-08
1.93085e-09
-9.1993e-08
9.21309e-08
2.04051e-09
9.22201e-08
2.14103e-09
9.2318e-08
2.23011e-09
9.24209e-08
2.30602e-09
9.25251e-08
2.36777e-09
9.26273e-08
2.41513e-09
9.27247e-08
2.44838e-09
9.2815e-08
2.46831e-09
9.28967e-08
2.47602e-09
9.29687e-08
2.47288e-09
9.30306e-08
2.46039e-09
9.30823e-08
2.44009e-09
9.31244e-08
2.41349e-09
9.31574e-08
2.382e-09
9.31823e-08
2.34686e-09
9.32e-08
2.30917e-09
9.32116e-08
2.26983e-09
9.3218e-08
2.22958e-09
9.32202e-08
2.18901e-09
9.32189e-08
2.14857e-09
9.32149e-08
2.10859e-09
9.32087e-08
2.06932e-09
9.3201e-08
2.03094e-09
9.3192e-08
1.99355e-09
9.31822e-08
1.95724e-09
9.31719e-08
1.92207e-09
9.31612e-08
1.88805e-09
9.31503e-08
1.85519e-09
9.31394e-08
1.8235e-09
9.31285e-08
1.79298e-09
9.31178e-08
1.7636e-09
9.31073e-08
1.73535e-09
9.30971e-08
1.70822e-09
9.30872e-08
1.68217e-09
9.30775e-08
1.65718e-09
9.30682e-08
1.63322e-09
9.30592e-08
1.61026e-09
9.30506e-08
1.58828e-09
9.30424e-08
1.56724e-09
9.30344e-08
1.54711e-09
9.30268e-08
1.52786e-09
9.30196e-08
1.50944e-09
9.30126e-08
1.49184e-09
9.3006e-08
1.47502e-09
9.29997e-08
1.45894e-09
9.29936e-08
1.44356e-09
9.29879e-08
1.42887e-09
9.29823e-08
1.41482e-09
9.2977e-08
1.40138e-09
9.2972e-08
1.38852e-09
9.29671e-08
1.37621e-09
9.29625e-08
1.36442e-09
9.2958e-08
1.35312e-09
9.29537e-08
1.34228e-09
9.29496e-08
1.33187e-09
9.29456e-08
1.32186e-09
9.29417e-08
1.31222e-09
9.29379e-08
1.30293e-09
9.29342e-08
1.29396e-09
9.29306e-08
1.28528e-09
9.2927e-08
1.27686e-09
9.29235e-08
1.26868e-09
9.29201e-08
1.26072e-09
9.29167e-08
1.25294e-09
9.29132e-08
1.24533e-09
9.29098e-08
1.23786e-09
9.29064e-08
1.2305e-09
9.29029e-08
1.22323e-09
9.28995e-08
1.21602e-09
9.28959e-08
1.20886e-09
9.28923e-08
1.20172e-09
9.28886e-08
1.19458e-09
9.28849e-08
1.18742e-09
9.2881e-08
1.18021e-09
9.2877e-08
1.17295e-09
9.28728e-08
1.16559e-09
9.28686e-08
1.15815e-09
9.28641e-08
1.15058e-09
9.28595e-08
1.14289e-09
9.28547e-08
1.13506e-09
9.28497e-08
1.12708e-09
9.28445e-08
1.11894e-09
9.2839e-08
1.11065e-09
9.28333e-08
1.1022e-09
9.28273e-08
1.09361e-09
9.2821e-08
1.08488e-09
9.28143e-08
1.07604e-09
9.28073e-08
1.06711e-09
9.28e-08
1.05813e-09
9.27922e-08
1.04915e-09
9.2784e-08
1.04022e-09
9.27754e-08
1.03141e-09
9.27663e-08
1.0228e-09
9.27568e-08
1.01444e-09
9.27467e-08
1.00637e-09
9.2736e-08
9.9857e-10
9.27244e-08
9.9095e-10
9.27106e-08
9.83431e-10
9.76592e-10
1.01812e-07
1.88006e-09
-1.01761e-07
1.01875e-07
1.97784e-09
1.01947e-07
2.06844e-09
1.02027e-07
2.15012e-09
1.02112e-07
2.22144e-09
1.02198e-07
2.28142e-09
1.02284e-07
2.3296e-09
1.02366e-07
2.36598e-09
1.02444e-07
2.39093e-09
1.02514e-07
2.4051e-09
1.02578e-07
2.40942e-09
1.02633e-07
2.40494e-09
1.02681e-07
2.39282e-09
1.0272e-07
2.37424e-09
1.02752e-07
2.35035e-09
1.02776e-07
2.32221e-09
1.02795e-07
2.2908e-09
1.02807e-07
2.25697e-09
1.02816e-07
2.22145e-09
1.0282e-07
2.18486e-09
1.02821e-07
2.1477e-09
1.02819e-07
2.11039e-09
1.02815e-07
2.07324e-09
1.02809e-07