/*--------------------------------*- C++ -*----------------------------------*\
| =========                 |                                                 |
| \\      /  F ield         | OpenFOAM: The Open Source CFD Toolbox           |
|  \\    /   O peration     | Version:  2.3.0                                 |
|   \\  /    A nd           | Web:      www.OpenFOAM.org                      |
|    \\/     M anipulation  |                                                 |
\*---------------------------------------------------------------------------*/
FoamFile
{
    version     2.0;
    format      ascii;
    class       volScalarField;
    location    "0.45";
    object      p;
}
// * * * * * * * * * * * * * * * * * * * * * * * * * * * * * * * * * * * * * //

dimensions      [0 2 -2 0 0 0 0];

internalField   nonuniform List<scalar> 
8750
(
0.00320723
0.00261407
0.00212965
0.00178013
0.00149098
0.00123078
0.000999385
0.000801392
0.000638292
0.000509069
0.000411151
0.000340746
0.000293205
0.000263571
0.000247117
0.00023973
0.000238095
0.00023973
0.000242896
0.000246465
0.000249768
0.000252456
0.00025439
0.000255554
0.000256001
0.00025581
0.000255069
0.000253857
0.000252246
0.000250291
0.000248039
0.000245526
0.000242779
0.000239822
0.00023667
0.000233339
0.000229839
0.00022618
0.00022237
0.000218416
0.000214326
0.000210105
0.000205758
0.00020129
0.000196707
0.000192012
0.00018721
0.000182305
0.000177301
0.000172201
0.000167009
0.000161729
0.000156365
0.00015092
0.000145399
0.000139806
0.000134144
0.000128419
0.000122636
0.000116799
0.000110914
0.000104988
9.90268e-05
9.30379e-05
8.70293e-05
8.10094e-05
7.49877e-05
6.89744e-05
6.29807e-05
5.70188e-05
5.11021e-05
4.52451e-05
3.94636e-05
3.37745e-05
2.81963e-05
2.27489e-05
1.74537e-05
1.23335e-05
7.41326e-06
2.72005e-06
-1.71641e-06
-5.86323e-06
-9.68376e-06
-1.31372e-05
-1.6179e-05
-1.87614e-05
-2.08364e-05
-2.23586e-05
-2.32908e-05
-2.36102e-05
-2.3315e-05
-2.24294e-05
-2.10024e-05
-1.9103e-05
-1.68425e-05
-1.4295e-05
-1.15394e-05
-8.62686e-06
-5.58315e-06
-2.41149e-06
0.00292687
0.00250367
0.00210584
0.00178857
0.00151366
0.0012607
0.00103245
0.000835091
0.000671172
0.000540248
0.000440083
0.000367127
0.000316923
0.000284659
0.00026571
0.000256029
0.000252339
0.000252167
0.000253772
0.000256008
0.000258182
0.000259919
0.000261051
0.000261541
0.000261415
0.000260737
0.000259576
0.000258002
0.000256073
0.00025384
0.000251341
0.000248607
0.000245663
0.000242528
0.000239215
0.000235736
0.000232102
0.00022832
0.000224396
0.000220339
0.000216152
0.000211841
0.00020741
0.000202865
0.000198209
0.000193446
0.00018858
0.000183614
0.000178553
0.000173399
0.000168156
0.000162828
0.000157418
0.00015193
0.000146368
0.000140735
0.000135035
0.000129274
0.000123455
0.000117585
0.000111668
0.00010571
9.9719e-05
9.37009e-05
8.76638e-05
8.16162e-05
7.55676e-05
6.95279e-05
6.35085e-05
5.75214e-05
5.158e-05
4.56986e-05
3.98931e-05
3.41804e-05
2.85789e-05
2.31084e-05
1.77904e-05
1.26476e-05
7.70493e-06
2.98937e-06
-1.46942e-06
-5.63867e-06
-9.48186e-06
-1.29583e-05
-1.60235e-05
-1.86298e-05
-2.0729e-05
-2.22754e-05
-2.32313e-05
-2.3573e-05
-2.32973e-05
-2.24271e-05
-2.10125e-05
-1.91334e-05
-1.68704e-05
-1.43233e-05
-1.15655e-05
-8.64852e-06
-5.5842e-06
-2.45983e-06
0.00272264
0.00240613
0.00206861
0.00177604
0.00151674
0.00127741
0.00105983
0.000869492
0.000709153
0.000578881
0.000477069
0.000400878
0.000346553
0.000309885
0.000286697
0.000273227
0.000266334
0.000263572
0.00026315
0.000263837
0.000264843
0.0002657
0.000266165
0.000266137
0.000265601
0.000264585
0.00026314
0.000261317
0.000259169
0.000256737
0.000254057
0.000251158
0.000248062
0.000244787
0.000241344
0.000237746
0.000234002
0.000230117
0.0002261
0.000221954
0.000217686
0.000213299
0.000208798
0.000204187
0.00019947
0.000194649
0.000189729
0.000184713
0.000179604
0.000174406
0.000169121
0.000163752
0.000158304
0.00015278
0.000147183
0.000141517
0.000135786
0.000129994
0.000124147
0.000118249
0.000112305
0.000106321
0.000100305
9.42623e-05
8.82015e-05
8.21308e-05
7.60596e-05
6.99978e-05
6.39566e-05
5.79482e-05
5.19857e-05
4.60836e-05
4.02575e-05
3.45244e-05
2.89027e-05
2.34121e-05
1.80739e-05
1.2911e-05
7.9483e-06
3.21256e-06
-1.26659e-06
-5.45641e-06
-9.32045e-06
-1.2818e-05
-1.59045e-05
-1.85322e-05
-2.06525e-05
-2.22192e-05
-2.3194e-05
-2.35529e-05
-2.32918e-05
-2.2433e-05
-2.10258e-05
-1.91453e-05
-1.6882e-05
-1.43429e-05
-1.1597e-05
-8.69371e-06
-5.64389e-06
-2.65216e-06
0.00254994
0.00230231
0.00201613
0.00175203
0.00151289
0.00129109
0.00108766
0.000907295
0.00075295
0.000625231
0.000523159
0.000444602
0.000386532
0.000345404
0.000317574
0.000299655
0.000288736
0.000282476
0.000279103
0.000277351
0.000276368
0.000275614
0.000274776
0.00027369
0.000272289
0.00027056
0.000268518
0.000266193
0.000263614
0.000260811
0.000257808
0.000254625
0.000251277
0.000247777
0.000244134
0.000240356
0.000236447
0.000232415
0.000228263
0.000223994
0.000219613
0.000215122
0.000210526
0.000205827
0.000201027
0.000196131
0.00019114
0.000186059
0.000180888
0.000175632
0.000170293
0.000164874
0.000159378
0.000153808
0.000148168
0.000142462
0.000136693
0.000130865
0.000124982
0.000119051
0.000113075
0.000107061
0.000101016
9.4945e-05
8.88569e-05
8.27598e-05
7.66629e-05
7.05762e-05
6.45107e-05
5.84785e-05
5.24926e-05
4.65674e-05
4.07186e-05
3.4963e-05
2.9319e-05
2.38062e-05
1.84459e-05
1.32608e-05
8.27586e-06
3.51774e-06
-9.83963e-07
-5.19654e-06
-9.08354e-06
-1.26042e-05
-1.57139e-05
-1.83645e-05
-2.05072e-05
-2.20956e-05
-2.3091e-05
-2.34688e-05
-2.32251e-05
-2.23824e-05
-2.09909e-05
-1.91266e-05
-1.688e-05
-1.43485e-05
-1.16195e-05
-8.75659e-06
-5.77259e-06
-3.04418e-06
0.00239732
0.00219917
0.0019589
0.00172461
0.0015064
0.00130197
0.00111272
0.000942844
0.00079538
0.000671332
0.000570195
0.000490382
0.000429476
0.000384534
0.000352439
0.000330212
0.000315223
0.000305296
0.000298732
0.000294271
0.000291025
0.000288399
0.000286018
0.000283658
0.000281198
0.00027858
0.000275785
0.000272812
0.000269672
0.000266377
0.000262939
0.000259369
0.000255675
0.000251864
0.00024794
0.000243908
0.000239769
0.000235528
0.000231184
0.000226742
0.000222201
0.000217565
0.000212835
0.000208012
0.0002031
0.000198099
0.000193011
0.00018784
0.000182586
0.000177252
0.000171841
0.000166354
0.000160795
0.000155167
0.000149472
0.000143714
0.000137896
0.000132022
0.000126096
0.000120123
0.000114109
0.000108058
0.000101977
9.58726e-05
8.97523e-05
8.36244e-05
7.74979e-05
7.13826e-05
6.52894e-05
5.92303e-05
5.32182e-05
4.72675e-05
4.13936e-05
3.56133e-05
2.99448e-05
2.44078e-05
1.90232e-05
1.3814e-05
8.80473e-06
4.02216e-06
-5.04185e-07
-4.7416e-06
-8.65365e-06
-1.21995e-05
-1.53346e-05
-1.80109e-05
-2.01795e-05
-2.17942e-05
-2.28164e-05
-2.32219e-05
-2.30072e-05
-2.21952e-05
-2.08368e-05
-1.90085e-05
-1.68022e-05
-1.43148e-05
-1.16332e-05
-8.82769e-06
-5.96201e-06
-3.64536e-06
0.00226612
0.00210377
0.00190142
0.00169464
0.0014963
0.00130825
0.0011327
0.000973409
0.000833341
0.000713751
0.000614497
0.000534433
0.000471654
0.000423746
0.000388077
0.000362064
0.000343366
0.000329996
0.000320354
0.000313214
0.00030768
0.000303122
0.000299115
0.000295388
0.000291773
0.000288173
0.000284534
0.00028083
0.00027705
0.000273191
0.00026925
0.000265231
0.000261132
0.000256955
0.000252699
0.000248364
0.00024395
0.000239457
0.000234883
0.000230228
0.000225493
0.000220678
0.000215783
0.000210808
0.000205755
0.000200623
0.000195415
0.000190132
0.000184774
0.000179343
0.000173842
0.000168272
0.000162635
0.000156934
0.000151171
0.000145349
0.000139471
0.000133541
0.000127563
0.000121542
0.000115481
0.000109387
0.000103265
9.71221e-05
9.09654e-05
8.48029e-05
7.86435e-05
7.24969e-05
6.63738e-05
6.02861e-05
5.42464e-05
4.8269e-05
4.23692e-05
3.65635e-05
3.08701e-05
2.53084e-05
1.98993e-05
1.46656e-05
9.63176e-06
4.82442e-06
2.73023e-07
-3.98977e-06
-7.92766e-06
-1.15e-05
-1.46624e-05
-1.73674e-05
-1.95666e-05
-2.12147e-05
-2.2274e-05
-2.27213e-05
-2.25539e-05
-2.1795e-05
-2.04957e-05
-1.8732e-05
-1.65952e-05
-1.41816e-05
-1.15807e-05
-8.87697e-06
-6.19414e-06
-4.37202e-06
0.00215306
0.00201646
0.00184441
0.00166218
0.00148264
0.00131021
0.00114784
0.000999004
0.000866521
0.000751816
0.000655059
0.000575482
0.000511617
0.000461506
0.000422949
0.000393724
0.00037177
0.00035529
0.000342798
0.000333124
0.000325381
0.000318922
0.000313292
0.000308181
0.000303384
0.000298769
0.000294252
0.000289784
0.000285332
0.000280876
0.000276404
0.000271907
0.000267376
0.000262807
0.000258195
0.000253534
0.000248822
0.000244054
0.000239228
0.000234341
0.000229392
0.000224379
0.000219301
0.000214156
0.000208945
0.000203668
0.000198324
0.000192914
0.000187439
0.000181899
0.000176296
0.000170631
0.000164906
0.000159122
0.000153282
0.000147388
0.000141443
0.000135451
0.000129414
0.000123338
0.000117226
0.000111085
0.000104918
9.87335e-05
9.25378e-05
8.63387e-05
8.0145e-05
7.39662e-05
6.78127e-05
6.16961e-05
5.56291e-05
4.96256e-05
4.37007e-05
3.78708e-05
3.21538e-05
2.65689e-05
2.11369e-05
1.58802e-05
1.08232e-05
5.99246e-06
1.41718e-06
-2.87017e-06
-6.8336e-06
-1.04329e-05
-1.36245e-05
-1.63617e-05
-1.85976e-05
-2.02882e-05
-2.13976e-05
-2.1904e-05
-2.1806e-05
-2.1127e-05
-1.99173e-05
-1.82511e-05
-1.62177e-05
-1.39125e-05
-1.14286e-05
-8.86676e-06
-6.40875e-06
-5.05876e-06
0.00205456
0.00193692
0.00178903
0.0016284
0.0014664
0.00130869
0.00115881
0.00102005
0.000895095
0.000785478
0.000691625
0.00061309
0.000548775
0.000497115
0.000456285
0.000424391
0.000399632
0.000380397
0.000365322
0.000353304
0.000343482
0.000335206
0.000328003
0.000321536
0.000315568
0.00030994
0.000304543
0.000299303
0.000294169
0.000289108
0.000284094
0.000279108
0.000274136
0.000269166
0.000264187
0.000259191
0.000254171
0.000249121
0.000244034
0.000238907
0.000233735
0.000228516
0.000223246
0.000217924
0.000212549
0.000207118
0.000201632
0.000196089
0.000190491
0.000184836
0.000179125
0.00017336
0.000167542
0.000161671
0.00015575
0.000149781
0.000143766
0.000137708
0.000131611
0.000125478
0.000119314
0.000113123
0.000106911
0.000100685
9.44504e-05
8.82154e-05
8.19884e-05
7.57787e-05
6.95965e-05
6.34533e-05
5.73614e-05
5.13346e-05
4.53875e-05
3.95366e-05
3.37993e-05
2.81945e-05
2.27429e-05
1.74667e-05
1.23899e-05
7.53883e-06
2.94242e-06
-1.36726e-06
-5.35478e-06
-8.98077e-06
-1.22027e-05
-1.49755e-05
-1.7254e-05
-1.89966e-05
-2.01694e-05
-2.07527e-05
-2.07461e-05
-2.01731e-05
-1.90825e-05
-1.75457e-05
-1.5649e-05
-1.34859e-05
-1.11527e-05
-8.76457e-06
-6.54555e-06
-5.55277e-06
0.00196791
0.00186472
0.0017362
0.00159427
0.00144831
0.00130429
0.00116612
0.00103698
0.000919392
0.000814963
0.000724312
0.000647261
0.000583025
0.000530374
0.000487814
0.000453743
0.0004266
0.000404955
0.000387567
0.000373408
0.000361652
0.000351661
0.000342953
0.000335172
0.00032806
0.000321434
0.000315163
0.000309153
0.000303338
0.00029767
0.000292111
0.000286635
0.000281218
0.000275844
0.000270496
0.000265162
0.000259831
0.000254495
0.000249144
0.000243774
0.000238377
0.000232949
0.000227485
0.000221984
0.000216441
0.000210856
0.000205225
0.000199548
0.000193823
0.000188052
0.000182233
0.000176366
0.000170453
0.000164495
0.000158492
0.000152447
0.000146361
0.000140238
0.00013408
0.000127892
0.000121676
0.000115438
0.000109183
0.000102916
9.66449e-05
9.03764e-05
8.41189e-05
7.78813e-05
7.16738e-05
6.55075e-05
5.93946e-05
5.33484e-05
4.73835e-05
4.15159e-05
3.57627e-05
3.01428e-05
2.46762e-05
1.93849e-05
1.42927e-05
9.42539e-06
4.81154e-06
4.82599e-07
-3.52681e-06
-7.17847e-06
-1.04314e-05
-1.32424e-05
-1.55689e-05
-1.73717e-05
-1.86196e-05
-1.9295e-05
-1.93987e-05
-1.89537e-05
-1.8007e-05
-1.66262e-05
-1.4894e-05
-1.29012e-05
-1.07455e-05
-8.5512e-06
-6.55914e-06
-5.76092e-06
0.00189105
0.00179921
0.00168633
0.00156043
0.00142894
0.00129755
0.0011703
0.00105026
0.000939831
0.000840615
0.000753376
0.000678158
0.000614437
0.000561275
0.000517459
0.000481654
0.000452515
0.000428784
0.000409345
0.000393245
0.000379707
0.00036811
0.000357972
0.000348929
0.000340707
0.000333105
0.000325972
0.000319201
0.000312709
0.000306436
0.000300334
0.000294367
0.000288505
0.000282725
0.000277007
0.000271334
0.000265692
0.000260069
0.000254454
0.000248839
0.000243216
0.000237578
0.000231921
0.000226239
0.000220529
0.000214787
0.000209011
0.000203199
0.000197349
0.000191461
0.000185533
0.000179565
0.000173558
0.000167513
0.000161429
0.000155308
0.000149154
0.000142966
0.00013675
0.000130507
0.000124241
0.000117957
0.000111661
0.000105357
9.90514e-05
9.27523e-05
8.64674e-05
8.02053e-05
7.39761e-05
6.77905e-05
6.16605e-05
5.55991e-05
4.96207e-05
4.37408e-05
3.79764e-05
3.23458e-05
2.68688e-05
2.15669e-05
1.64636e-05
1.15841e-05
6.95647e-06
2.61128e-06
-1.41784e-06
-5.0941e-06
-8.37832e-06
-1.12297e-05
-1.36083e-05
-1.54778e-05
-1.68099e-05
-1.75891e-05
-1.7817e-05
-1.75164e-05
-1.67316e-05
-1.55264e-05
-1.3979e-05
-1.21767e-05
-1.02167e-05
-8.22449e-06
-6.4316e-06
-5.67291e-06
0.00182233
0.00173966
0.00163956
0.00152736
0.00140876
0.00128895
0.00117183
0.00106037
0.000956824
0.000862776
0.000779087
0.000705973
0.000643131
0.000589866
0.000545215
0.000508073
0.000477296
0.000451787
0.000430546
0.000412706
0.000397538
0.000384448
0.000372964
0.000362717
0.000353425
0.000344872
0.000336897
0.000329375
0.000322213
0.000315339
0.000308695
0.000302239
0.000295933
0.000289748
0.000283659
0.000277646
0.000271692
0.000265782
0.000259901
0.000254041
0.000248191
0.000242343
0.000236491
0.000230628
0.00022475
0.000218852
0.000212931
0.000206984
0.000201008
0.000195003
0.000188967
0.000182898
0.000176797
0.000170665
0.000164501
0.000158306
0.000152083
0.000145832
0.000139558
0.000133262
0.000126948
0.00012062
0.000114284
0.000107944
0.000101607
9.52802e-05
8.89703e-05
8.26866e-05
7.64385e-05
7.02366e-05
6.40927e-05
5.80194e-05
5.20309e-05
4.61423e-05
4.03702e-05
3.47325e-05
2.92487e-05
2.39398e-05
1.88286e-05
1.39401e-05
9.30136e-06
4.94211e-06
8.94751e-07
-2.80554e-06
-6.1216e-06
-9.01517e-06
-1.14491e-05
-1.33901e-05
-1.48127e-05
-1.57035e-05
-1.60651e-05
-1.59194e-05
-1.5308e-05
-1.42906e-05
-1.29408e-05
-1.13417e-05
-9.58699e-06
-7.79664e-06
-6.17226e-06
-5.34676e-06
0.00176048
0.0016854
0.00159585
0.00149535
0.0013882
0.0012789
0.00117114
0.00106772
0.000970749
0.000881773
0.000801709
0.000730906
0.000669241
0.000616224
0.000571107
0.000532986
0.000500901
0.000473899
0.000451099
0.000431714
0.00041507
0.000400604
0.00038786
0.000376473
0.000366157
0.000356687
0.00034789
0.000339632
0.00033181
0.000324341
0.00031716
0.000310216
0.000303467
0.000296877
0.000290418
0.000284066
0.000277799
0.0002716
0.000265453
0.000259347
0.000253269
0.000247211
0.000241162
0.000235118
0.000229071
0.000223016
0.000216949
0.000210866
0.000204764
0.000198642
0.000192496
0.000186327
0.000180132
0.000173913
0.000167668
0.0001614
0.000155108
0.000148795
0.000142463
0.000136115
0.000129754
0.000123383
0.000117008
0.000110634
0.000104267
9.79126e-05
9.15794e-05
8.52755e-05
7.90102e-05
7.27939e-05
6.6638e-05
6.05549e-05
5.45584e-05
4.86632e-05
4.28855e-05
3.7243e-05
3.17545e-05
2.64406e-05
2.13236e-05
1.64278e-05
1.17793e-05
7.40691e-06
3.34172e-06
-3.82855e-07
-3.73179e-06
-6.6694e-06
-9.16137e-06
-1.11775e-05
-1.26949e-05
-1.37023e-05
-1.42028e-05
-1.42176e-05
-1.37857e-05
-1.29627e-05
-1.18171e-05
-1.04272e-05
-8.88119e-06
-7.28788e-06
-5.80813e-06
-4.87288e-06
0.00170447
0.0016358
0.00155509
0.00146461
0.00136756
0.00126777
0.00116862
0.00107268
0.000981957
0.000897916
0.000821501
0.00075316
0.000692912
0.00064044
0.000595176
0.000556398
0.000523303
0.000495078
0.000470948
0.000450208
0.00043224
0.000416519
0.000402608
0.00039015
0.000378859
0.000368508
0.000358916
0.000349942
0.000341472
0.000333417
0.000325705
0.000318278
0.000311088
0.000304095
0.000297266
0.000290574
0.000283994
0.000277506
0.000271093
0.00026474
0.000258433
0.000252162
0.000245917
0.00023969
0.000233472
0.000227259
0.000221045
0.000214826
0.000208597
0.000202357
0.000196102
0.00018983
0.000183542
0.000177235
0.00017091
0.000164567
0.000158206
0.000151831
0.000145441
0.00013904
0.000132632
0.000126218
0.000119805
0.000113397
0.000106999
0.000100618
9.42622e-05
8.79387e-05
8.16569e-05
7.54269e-05
6.92597e-05
6.31675e-05
5.71637e-05
5.12627e-05
4.54803e-05
3.98337e-05
3.43413e-05
2.9023e-05
2.39007e-05
1.89978e-05
1.43396e-05
9.95382e-06
5.87009e-06
2.12006e-06
-1.26339e-06
-4.24714e-06
-6.79968e-06
-8.89365e-06
-1.05088e-05
-1.16354e-05
-1.22776e-05
-1.24554e-05
-1.22052e-05
-1.15786e-05
-1.06394e-05
-9.46014e-06
-8.1223e-06
-6.72028e-06
-5.37245e-06
-4.33967e-06
0.00165348
0.00159031
0.00151709
0.00143523
0.00134708
0.00125586
0.00116457
0.0010756
0.000990772
0.000911495
0.00083871
0.00077293
0.000714289
0.000662608
0.000617477
0.000578325
0.000544492
0.000515292
0.000490049
0.000468138
0.000448998
0.000432142
0.000417158
0.000403702
0.000391493
0.000380303
0.000369947
0.000360278
0.000351177
0.000342548
0.000334313
0.000326409
0.000318782
0.000311388
0.000304191
0.00029716
0.000290267
0.00028349
0.00027681
0.000270209
0.000263673
0.000257189
0.000250746
0.000244335
0.000237946
0.000231574
0.000225212
0.000218855
0.000212498
0.000206138
0.000199772
0.000193398
0.000187014
0.000180619
0.000174212
0.000167794
0.000161364
0.000154925
0.000148477
0.000142024
0.000135567
0.00012911
0.000122658
0.000116215
0.000109787
0.000103379
9.69997e-05
9.06563e-05
8.43576e-05
7.81135e-05
7.19348e-05
6.58332e-05
5.98219e-05
5.39148e-05
4.81274e-05
4.24763e-05
3.69795e-05
3.16565e-05
2.65281e-05
2.16173e-05
1.69483e-05
1.25478e-05
8.44392e-06
4.66651e-06
1.24633e-06
-1.78596e-06
-4.40151e-06
-6.57566e-06
-8.29046e-06
-9.53797e-06
-1.03227e-05
-1.06638e-05
-1.05951e-05
-1.01646e-05
-9.43089e-06
-8.46114e-06
-7.32893e-06
-6.11365e-06
-4.89601e-06
-3.81332e-06
0.00160685
0.00154846
0.00148165
0.00140724
0.00132693
0.00124341
0.0011593
0.00107676
0.000997487
0.000922779
0.000853567
0.000790407
0.000733516
0.00068283
0.000638068
0.000598792
0.000564467
0.000534519
0.000508367
0.000485461
0.000465297
0.000447428
0.000431468
0.000417091
0.000404022
0.000392038
0.000380953
0.000370615
0.000360903
0.000351715
0.000342968
0.000334594
0.000326535
0.000318745
0.000311183
0.000303815
0.000296611
0.000289546
0.000282598
0.00027575
0.000268984
0.000262286
0.000255644
0.000249047
0.000242487
0.000235954
0.000229443
0.000222947
0.000216461
0.000209981
0.000203503
0.000197025
0.000190544
0.00018406
0.00017757
0.000171075
0.000164576
0.000158072
0.000151565
0.000145057
0.000138551
0.00013205
0.000125558
0.00011908
0.00011262
0.000106185
9.97812e-05
9.3417e-05
8.71006e-05
8.08415e-05
7.46503e-05
6.85384e-05
6.25186e-05
5.66044e-05
5.08109e-05
4.51542e-05
3.96518e-05
3.43225e-05
2.91867e-05
2.42663e-05
1.95848e-05
1.51675e-05
1.10411e-05
7.23382e-06
3.77432e-06
6.90882e-07
-1.99016e-06
-4.24661e-06
-6.0627e-06
-7.4319e-06
-8.35918e-06
-8.86272e-06
-8.97415e-06
-8.73758e-06
-8.20721e-06
-7.44435e-06
-6.51473e-06
-5.48371e-06
-4.4027e-06
-3.33224e-06
0.00156401
0.00150983
0.00144857
0.00138063
0.00130725
0.00123062
0.00115305
0.00107645
0.00100237
0.000932017
0.000866294
0.000805774
0.000750737
0.00070121
0.000657017
0.000617834
0.000583237
0.000552749
0.000525878
0.000502144
0.000481098
0.000462335
0.000445497
0.000430277
0.000416412
0.000403683
0.000391906
0.00038093
0.000370628
0.000360898
0.000351652
0.000342819
0.000334337
0.000326156
0.000318233
0.00031053
0.000303017
0.000295665
0.000288452
0.000281356
0.000274359
0.000267447
0.000260606
0.000253824
0.000247091
0.000240397
0.000233735
0.000227099
0.000220483
0.000213881
0.00020729
0.000200707
0.000194129
0.000187554
0.000180981
0.000174408
0.000167837
0.000161267
0.0001547
0.000148137
0.000141581
0.000135035
0.000128502
0.000121987
0.000115494
0.00010903
0.000102601
9.6215e-05
8.98796e-05
8.36043e-05
7.73993e-05
7.12758e-05
6.5246e-05
5.93233e-05
5.35221e-05
4.78582e-05
4.23484e-05
3.70111e-05
3.18658e-05
2.69336e-05
2.22372e-05
1.78005e-05
1.3649e-05
9.80911e-06
6.30744e-06
3.17011e-06
4.21102e-07
-1.91966e-06
-3.83837e-06
-5.32978e-06
-6.39917e-06
-7.06384e-06
-7.35321e-06
-7.30801e-06
-6.97798e-06
-6.41893e-06
-5.68909e-06
-4.84189e-06
-3.90861e-06
-2.91122e-06
0.00152452
0.00147406
0.00141764
0.00135537
0.0012881
0.00121766
0.00114601
0.00107488
0.00100565
0.000939435
0.000877094
0.000819206
0.000766093
0.000717853
0.000674396
0.000635493
0.000600816
0.000569977
0.000542563
0.000518158
0.000496368
0.000476828
0.00045921
0.000443226
0.000428629
0.000415207
0.00040278
0.000391197
0.000380332
0.00037008
0.00036035
0.00035107
0.000342174
0.000333609
0.000325331
0.000317299
0.000309479
0.000301842
0.000294364
0.000287022
0.000279796
0.00027267
0.00026563
0.000258662
0.000251755
0.000244899
0.000238087
0.00023131
0.000224562
0.000217838
0.000211133
0.000204444
0.000197767
0.0001911
0.000184442
0.000177791
0.000171147
0.00016451
0.000157881
0.000151262
0.000144655
0.000138062
0.000131487
0.000124933
0.000118407
0.000111913
0.000105457
9.90475e-05
9.26916e-05
8.63986e-05
8.01783e-05
7.40414e-05
6.8e-05
6.2067e-05
5.62563e-05
5.05832e-05
4.50641e-05
3.97166e-05
3.45595e-05
2.96132e-05
2.48992e-05
2.04405e-05
1.6261e-05
1.23855e-05
8.8387e-06
5.64471e-06
2.82528e-06
3.98274e-07
-1.62426e-06
-3.23821e-06
-4.44911e-06
-5.27337e-06
-5.73838e-06
-5.88168e-06
-5.74887e-06
-5.39058e-06
-4.8583e-06
-4.19602e-06
-3.42314e-06
-2.54934e-06
0.00148798
0.00144086
0.00138869
0.0013314
0.00126955
0.00120464
0.00113838
0.00107226
0.00100754
0.000945242
0.00088616
0.000830869
0.00077972
0.000732862
0.000690278
0.000651815
0.000617229
0.000586209
0.000558411
0.000533484
0.00051108
0.000490875
0.000472573
0.000455907
0.000440644
0.000426582
0.000413548
0.000401394
0.000389994
0.000379241
0.000369046
0.000359332
0.000350033
0.000341094
0.000332467
0.00032411
0.000315988
0.000308071
0.00030033
0.000292743
0.000285289
0.00027795
0.000270711
0.000263557
0.000256476
0.000249459
0.000242495
0.000235576
0.000228696
0.000221849
0.000215029
0.000208232
0.000201456
0.000194696
0.000187952
0.000181221
0.000174503
0.000167798
0.000161107
0.000154431
0.000147771
0.00014113
0.000134511
0.000127919
0.000121357
0.000114831
0.000108347
0.000101913
9.55348e-05
8.92225e-05
8.29852e-05
7.68334e-05
7.07786e-05
6.48333e-05
5.90112e-05
5.33268e-05
4.77961e-05
4.24361e-05
3.72648e-05
3.23018e-05
2.75676e-05
2.30839e-05
1.88734e-05
1.49593e-05
1.13645e-05
8.11111e-06
5.21889e-06
2.70379e-06
5.76306e-07
-1.16045e-06
-2.51218e-06
-3.49447e-06
-4.1328e-06
-4.46177e-06
-4.52314e-06
-4.36283e-06
-4.02651e-06
-3.55119e-06
-2.95073e-06
-2.23775e-06
0.00145407
0.00140994
0.00136154
0.00130864
0.00125161
0.00119167
0.00113028
0.00106877
0.00100824
0.000949625
0.000893666
0.000840919
0.000791749
0.000746344
0.00070474
0.000666853
0.000632504
0.000601453
0.000573419
0.000548104
0.00052521
0.00050445
0.000485558
0.000468289
0.000452427
0.000437781
0.000424186
0.000411497
0.000399592
0.000388364
0.000377723
0.000367591
0.000357902
0.000348599
0.000339631
0.000330956
0.000322538
0.000314343
0.000306343
0.000298514
0.000290833
0.000283283
0.000275845
0.000268506
0.000261252
0.000254072
0.000246956
0.000239896
0.000232883
0.000225912
0.000218976
0.000212072
0.000205195
0.000198341
0.00019151
0.000184698
0.000177906
0.000171132
0.000164377
0.000157641
0.000150928
0.000144238
0.000137574
0.000130941
0.000124343
0.000117784
0.000111271
0.000104809
9.84082e-05
9.20749e-05
8.58188e-05
7.96502e-05
7.35801e-05
6.76207e-05
6.17851e-05
5.60873e-05
5.05428e-05
4.51678e-05
3.99799e-05
3.49975e-05
3.02402e-05
2.57288e-05
2.14844e-05
1.75287e-05
1.3883e-05
1.05675e-05
7.60024e-06
4.9953e-06
2.76182e-06
9.02041e-07
-5.89859e-07
-1.72866e-06
-2.53809e-06
-3.05005e-06
-3.30278e-06
-3.33801e-06
-3.19652e-06
-2.91052e-06
-2.4927e-06
-1.96525e-06
0.0014225
0.00138107
0.00133603
0.00128704
0.00123429
0.00117881
0.00112185
0.00106456
0.00100791
0.000952755
0.000899775
0.000849503
0.000802307
0.000758399
0.000717861
0.00068066
0.000646677
0.000615728
0.000587589
0.000562012
0.000538743
0.000517532
0.000498139
0.000480346
0.000463952
0.000448779
0.000434669
0.000421485
0.000409106
0.000397429
0.000386364
0.000375832
0.000365767
0.000356111
0.000346812
0.000337827
0.000329118
0.000320651
0.000312396
0.000304328
0.000296423
0.000288663
0.000281028
0.000273505
0.000266078
0.000258736
0.000251469
0.000244266
0.000237121
0.000230025
0.000222974
0.000215961
0.000208982
0.000202034
0.000195115
0.000188221
0.000181353
0.000174509
0.000167689
0.000160894
0.000154125
0.000147385
0.000140675
0.000134
0.000127364
0.00012077
0.000114226
0.000107737
0.000101311
9.49547e-05
8.86782e-05
8.2491e-05
7.64038e-05
7.04282e-05
6.45769e-05
5.88636e-05
5.3303e-05
4.79107e-05
4.27034e-05
3.7699e-05
3.2916e-05
2.83739e-05
2.40927e-05
2.00925e-05
1.63932e-05
1.30131e-05
9.96849e-06
7.27207e-06
4.93162e-06
2.94863e-06
1.3172e-06
2.33262e-08
-9.55111e-07
-1.64755e-06
-2.08908e-06
-2.3177e-06
-2.37027e-06
-2.27588e-06
-2.04856e-06
-1.72147e-06
0.00139303
0.00135406
0.00131202
0.00126652
0.0012176
0.00116613
0.00111318
0.00105975
0.0010067
0.000954784
0.000904636
0.000856757
0.000811511
0.000769128
0.000729719
0.000693294
0.000659783
0.000629053
0.000600927
0.000575203
0.000551667
0.000530101
0.000510297
0.000492055
0.000475196
0.000459551
0.000444975
0.000431336
0.000418517
0.000406419
0.000394952
0.00038404
0.000373615
0.000363619
0.000354
0.000344714
0.000335721
0.000326987
0.000318482
0.000310179
0.000302053
0.000294085
0.000286256
0.00027855
0.000270951
0.000263448
0.00025603
0.000248686
0.000241407
0.000234187
0.000227019
0.000219896
0.000212816
0.000205773
0.000198765
0.000191789
0.000184844
0.000177928
0.000171043
0.000164187
0.000157362
0.00015057
0.000143813
0.000137095
0.000130419
0.00012379
0.000117213
0.000110695
0.000104241
9.78612e-05
9.15625e-05
8.53548e-05
7.92485e-05
7.32548e-05
6.73858e-05
6.16547e-05
5.60756e-05
5.06636e-05
4.54345e-05
4.04054e-05
3.55939e-05
3.10183e-05
2.66974e-05
2.265e-05
1.88943e-05
1.54471e-05
1.23232e-05
9.53373e-06
7.08539e-06
4.97903e-06
3.2087e-06
1.76109e-06
6.15595e-07
-2.55014e-07
-8.82992e-07
-1.30312e-06
-1.54914e-06
-1.64824e-06
-1.61706e-06
-1.49815e-06
0.00136544
0.00132872
0.00128939
0.001247
0.00120153
0.00115367
0.00110436
0.00105446
0.00100473
0.000955848
0.000908383
0.000862808
0.000819476
0.000778625
0.00074039
0.000704814
0.000671865
0.000641454
0.000613446
0.000587678
0.000563973
0.000542145
0.000522012
0.000503397
0.000486136
0.000470077
0.000455083
0.000441029
0.000427806
0.000415315
0.000403472
0.000392199
0.000381432
0.00037111
0.000361183
0.000351606
0.000342338
0.000333345
0.000324595
0.00031606
0.000307718
0.000299545
0.000291524
0.000283636
0.000275868
0.000268205
0.000260636
0.00025315
0.000245739
0.000238394
0.000231109
0.000223878
0.000216695
0.000209556
0.000202459
0.0001954
0.000188377
0.000181389
0.000174437
0.000167519
0.000160637
0.000153792
0.000146987
0.000140224
0.000133508
0.000126841
0.000120231
0.000113681
0.0001072
0.000100793
9.44708e-05
8.82408e-05
8.21134e-05
7.60995e-05
7.02107e-05
6.44596e-05
5.88598e-05
5.34256e-05
4.81722e-05
4.31158e-05
3.8273e-05
3.36612e-05
2.92979e-05
2.52005e-05
2.13858e-05
1.78692e-05
1.4664e-05
1.178e-05
9.22297e-06
6.99309e-06
5.08445e-06
3.48438e-06
2.17363e-06
1.127e-06
3.14727e-07
-2.95223e-07
-7.34104e-07
-1.02808e-06
-1.19667e-06
-1.28926e-06
0.00133957
0.0013049
0.00126801
0.00122843
0.00118605
0.00114146
0.00109545
0.00104879
0.00100213
0.00095607
0.000911141
0.000867774
0.000826308
0.000786983
0.00074995
0.000715278
0.000682966
0.000652959
0.000625161
0.000599443
0.000575659
0.000553655
0.000533271
0.000514354
0.000496755
0.000480337
0.000464973
0.000450546
0.000436954
0.000424102
0.000411907
0.000400296
0.000389204
0.000378573
0.000368351
0.000358493
0.000348959
0.000339714
0.000330725
0.000321966
0.000313411
0.000305037
0.000296826
0.00028876
0.000280823
0.000273001
0.000265283
0.000257657
0.000250113
0.000242645
0.000235243
0.000227902
0.000220616
0.000213382
0.000206195
0.000199051
0.00019195
0.00018489
0.00017787
0.000170889
0.000163949
0.00015705
0.000150196
0.000143387
0.000136629
0.000129924
0.000123278
0.000116696
0.000110184
0.00010375
9.7402e-05
9.11479e-05
8.49976e-05
7.89615e-05
7.30507e-05
6.72774e-05
6.16545e-05
5.61957e-05
5.09155e-05
4.58292e-05
4.09526e-05
3.63018e-05
3.18933e-05
2.77433e-05
2.38672e-05
2.0279e-05
1.69906e-05
1.40108e-05
1.13442e-05
8.99071e-06
6.94431e-06
5.19297e-06
3.71867e-06
2.49801e-06
1.50342e-06
7.05215e-07
7.40985e-08
-4.15559e-07
-7.85962e-07
-1.09064e-06
0.00131525
0.00128246
0.00124778
0.00121073
0.00117114
0.0011295
0.00108651
0.0010428
0.000998977
0.000955558
0.000913019
0.000871761
0.000832105
0.00079429
0.000758474
0.000724746
0.00069313
0.000663601
0.000636092
0.000610506
0.000586727
0.000564624
0.000544064
0.000524912
0.000507037
0.000490314
0.000474627
0.000459869
0.000445944
0.000432761
0.000420242
0.000408316
0.000396919
0.000385994
0.000375491
0.000365365
0.000355575
0.000346086
0.000336867
0.000327888
0.000319125
0.000310555
0.000302158
0.000293916
0.000285813
0.000277834
0.000269968
0.000262202
0.000254528
0.000246935
0.000239417
0.000231967
0.000224579
0.000217248
0.00020997
0.000202743
0.000195563
0.000188429
0.00018134
0.000174296
0.000167297
0.000160344
0.000153438
0.000146583
0.000139781
0.000133036
0.000126353
0.000119737
0.000113194
0.000106731
0.000100355
9.40752e-05
8.79e-05
8.18396e-05
7.59048e-05
7.01071e-05
6.44588e-05
5.89731e-05
5.36636e-05
4.85448e-05
4.36316e-05
3.89393e-05
3.44831e-05
3.02779e-05
2.6338e-05
2.2676e-05
1.93027e-05
1.62258e-05
1.3449e-05
1.09718e-05
8.78814e-06
6.88666e-06
5.2504e-06
3.85756e-06
2.68251e-06
1.69755e-06
8.74938e-07
1.89321e-07
-3.83702e-07
-8.99558e-07
0.00129233
0.00126127
0.00122862
0.00119385
0.00115679
0.00111783
0.00107757
0.00103658
0.000995372
0.000954409
0.000914118
0.000874869
0.000836962
0.000800628
0.000766033
0.000733276
0.000702403
0.000673411
0.00064626
0.00062088
0.000597179
0.000575051
0.000554383
0.00053506
0.000516967
0.000499991
0.000484029
0.000468982
0.00045476
0.000441278
0.000428463
0.000416245
0.000404563
0.000393362
0.000382593
0.000372211
0.000362176
0.000352453
0.000343011