/*--------------------------------*- C++ -*----------------------------------*\
| =========                 |                                                 |
| \\      /  F ield         | OpenFOAM: The Open Source CFD Toolbox           |
|  \\    /   O peration     | Version:  2.3.0                                 |
|   \\  /    A nd           | Web:      www.OpenFOAM.org                      |
|    \\/     M anipulation  |                                                 |
\*---------------------------------------------------------------------------*/
FoamFile
{
    version     2.0;
    format      ascii;
    class       surfaceScalarField;
    location    "0.45";
    object      phi_0;
}
// * * * * * * * * * * * * * * * * * * * * * * * * * * * * * * * * * * * * * //

dimensions      [0 3 -1 0 0 0 0];

internalField   nonuniform List<scalar> 
17305
(
2.83734e-08
2.87911e-09
-3.12525e-08
2.55097e-08
2.86366e-09
2.28223e-08
2.68742e-09
2.03449e-08
2.47737e-09
1.80937e-08
2.25125e-09
1.60791e-08
2.01452e-09
1.43038e-08
1.77535e-09
1.27623e-08
1.54151e-09
1.14427e-08
1.31954e-09
1.03279e-08
1.1148e-09
9.39675e-09
9.31194e-10
8.62573e-09
7.71024e-10
7.9908e-09
6.34923e-10
7.46874e-09
5.22066e-10
7.03823e-09
4.30509e-10
6.68063e-09
3.57597e-10
6.38027e-09
3.00362e-10
6.12442e-09
2.55852e-10
5.90306e-09
2.21362e-10
5.70849e-09
1.94561e-10
5.53495e-09
1.73543e-10
5.37814e-09
1.56807e-10
5.23492e-09
1.4322e-10
5.10298e-09
1.31946e-10
4.98059e-09
1.22384e-10
4.86648e-09
1.14111e-10
4.75965e-09
1.06833e-10
4.65931e-09
1.00344e-10
4.56481e-09
9.45e-11
4.47561e-09
8.91988e-11
4.39124e-09
8.43639e-11
4.31131e-09
7.99369e-11
4.23544e-09
7.58712e-11
4.16331e-09
7.21276e-11
4.09464e-09
6.86727e-11
4.02916e-09
6.54776e-11
3.96664e-09
6.25163e-11
3.90688e-09
5.9766e-11
3.84967e-09
5.72061e-11
3.79485e-09
5.48183e-11
3.74226e-09
5.25862e-11
3.69177e-09
5.04953e-11
3.64324e-09
4.85325e-11
3.59655e-09
4.66861e-11
3.55161e-09
4.49456e-11
3.5083e-09
4.33017e-11
3.46656e-09
4.1746e-11
3.42629e-09
4.0271e-11
3.38742e-09
3.88697e-11
3.34988e-09
3.7536e-11
3.31362e-09
3.62643e-11
3.27857e-09
3.50494e-11
3.24468e-09
3.38867e-11
3.21191e-09
3.27719e-11
3.18021e-09
3.17011e-11
3.14954e-09
3.06706e-11
3.11986e-09
2.96771e-11
3.09114e-09
2.87174e-11
3.06335e-09
2.77887e-11
3.03647e-09
2.68881e-11
3.01045e-09
2.60133e-11
2.98529e-09
2.51618e-11
2.96096e-09
2.43314e-11
2.93744e-09
2.35199e-11
2.91471e-09
2.27255e-11
2.89277e-09
2.19462e-11
2.87159e-09
2.11801e-11
2.85116e-09
2.04257e-11
2.83148e-09
1.96812e-11
2.81254e-09
1.89452e-11
2.79432e-09
1.82161e-11
2.77683e-09
1.74925e-11
2.76005e-09
1.67732e-11
2.744e-09
1.6057e-11
2.72865e-09
1.53428e-11
2.71402e-09
1.46298e-11
2.70011e-09
1.39175e-11
2.6869e-09
1.3205e-11
2.67441e-09
1.24919e-11
2.66263e-09
1.1777e-11
2.65157e-09
1.10583e-11
2.64124e-09
1.03326e-11
2.63165e-09
9.59496e-12
2.62281e-09
8.83869e-12
2.61475e-09
8.05536e-12
2.60752e-09
7.23614e-12
2.60114e-09
6.37326e-12
2.59568e-09
5.46258e-12
2.59117e-09
4.50681e-12
2.58766e-09
3.51889e-12
2.58513e-09
2.52481e-12
2.58357e-09
1.56144e-12
2.58289e-09
6.83241e-13
2.58289e-09
-2.43137e-15
2.58331e-09
-4.26634e-13
2.58396e-09
-6.49746e-13
2.58465e-09
-6.84762e-13
2.58515e-09
-5.03497e-13
2.5852e-09
-4.65772e-14
2.52303e-12
3.34119e-08
3.15033e-09
-3.36831e-08
3.2827e-08
3.44855e-09
3.20101e-08
3.50427e-09
3.10381e-08
3.44939e-09
2.99663e-08
3.32304e-09
2.88403e-08
3.14055e-09
2.76969e-08
2.91874e-09
2.65645e-08
2.67397e-09
2.54638e-08
2.42019e-09
2.44097e-08
2.16891e-09
2.34116e-08
1.92925e-09
2.24749e-08
1.70775e-09
2.16015e-08
1.50837e-09
2.07908e-08
1.33272e-09
2.00408e-08
1.18056e-09
1.9348e-08
1.05035e-09
1.87086e-08
9.3976e-10
1.81183e-08
8.46134e-10
1.75729e-08
7.66808e-10
1.70681e-08
6.99326e-10
1.66001e-08
6.41542e-10
1.61653e-08
5.91658e-10
1.57603e-08
5.48212e-10
1.53822e-08
5.10037e-10
1.50284e-08
4.76213e-10
1.46965e-08
4.4602e-10
1.43844e-08
4.18895e-10
1.40904e-08
3.9439e-10
1.38127e-08
3.72149e-10
1.355e-08
3.51883e-10
1.3301e-08
3.33352e-10
1.30646e-08
3.16356e-10
1.28398e-08
3.00725e-10
1.26256e-08
2.86312e-10
1.24213e-08
2.7299e-10
1.22261e-08
2.60646e-10
1.20394e-08
2.49184e-10
1.18607e-08
2.38516e-10
1.16893e-08
2.28565e-10
1.15249e-08
2.19264e-10
1.13669e-08
2.10551e-10
1.1215e-08
2.02372e-10
1.10689e-08
1.9468e-10
1.09281e-08
1.87431e-10
1.07925e-08
1.80587e-10
1.06617e-08
1.74112e-10
1.05355e-08
1.67975e-10
1.04136e-08
1.62147e-10
1.02958e-08
1.56604e-10
1.01821e-08
1.51321e-10
1.0072e-08
1.46277e-10
9.96564e-09
1.41453e-10
9.8627e-09
1.3683e-10
9.76308e-09
1.32392e-10
9.66665e-09
1.28124e-10
9.57331e-09
1.24012e-10
9.48295e-09
1.20042e-10
9.39546e-09
1.16202e-10
9.31077e-09
1.12481e-10
9.22879e-09
1.08867e-10
9.14945e-09
1.05352e-10
9.07269e-09
1.01924e-10
8.99845e-09
9.85754e-11
8.92667e-09
9.52974e-11
8.85731e-09
9.20818e-11
8.79034e-09
8.89207e-11
8.72571e-09
8.58068e-11
8.6634e-09
8.27331e-11
8.60339e-09
7.96926e-11
8.54566e-09
7.66789e-11
8.49019e-09
7.36859e-11
8.43697e-09
7.07077e-11
8.38601e-09
6.77387e-11
8.33729e-09
6.47741e-11
8.29082e-09
6.18091e-11
8.24661e-09
5.88397e-11
8.20467e-09
5.58622e-11
8.165e-09
5.28728e-11
8.12763e-09
4.98674e-11
8.09256e-09
4.68406e-11
8.05984e-09
4.37849e-11
8.02948e-09
4.069e-11
8.00153e-09
3.75426e-11
7.97604e-09
3.4327e-11
7.95307e-09
3.10265e-11
7.93268e-09
2.76283e-11
7.91492e-09
2.41278e-11
7.89985e-09
2.05361e-11
7.88747e-09
1.68866e-11
7.87775e-09
1.3241e-11
7.87058e-09
9.68951e-12
7.8658e-09
6.345e-12
7.86315e-09
3.33024e-12
7.86232e-09
8.36482e-13
7.86277e-09
-8.77507e-13
7.86393e-09
-1.81666e-12
7.86534e-09
-2.09162e-12
7.86647e-09
-1.63433e-12
7.86658e-09
-1.57577e-13
5.47119e-12
3.48073e-08
2.99689e-09
-3.46539e-08
3.48724e-08
3.38344e-09
3.48114e-08
3.56526e-09
3.463e-08
3.63088e-09
3.43386e-08
3.61439e-09
3.39516e-08
3.52752e-09
3.34864e-08
3.38395e-09
3.29608e-08
3.19965e-09
3.23913e-08
2.98965e-09
3.17929e-08
2.76727e-09
3.11784e-08
2.54377e-09
3.05582e-08
2.32799e-09
2.99404e-08
2.12615e-09
2.93312e-08
1.94194e-09
2.87348e-08
1.77688e-09
2.81543e-08
1.63088e-09
2.75914e-08
1.50272e-09
2.70469e-08
1.39057e-09
2.65214e-08
1.29235e-09
2.60147e-08
1.20601e-09
2.55266e-08
1.12966e-09
2.50566e-08
1.06167e-09
2.46041e-08
1.00066e-09
2.41686e-08
9.45523e-10
2.37495e-08
8.95367e-10
2.3346e-08
8.49478e-10
2.29576e-08
8.0729e-10
2.25837e-08
7.6835e-10
2.22235e-08
7.32288e-10
2.18766e-08
6.98801e-10
2.15423e-08
6.67633e-10
2.12201e-08
6.38566e-10
2.09094e-08
6.11409e-10
2.06098e-08
5.85996e-10
2.03206e-08
5.62177e-10
2.00414e-08
5.3982e-10
1.97718e-08
5.18804e-10
1.95113e-08
4.99019e-10
1.92595e-08
4.80368e-10
1.9016e-08
4.6276e-10
1.87804e-08
4.46112e-10
1.85524e-08
4.30351e-10
1.83317e-08
4.15406e-10
1.81179e-08
4.01216e-10
1.79108e-08
3.87723e-10
1.771e-08
3.74875e-10
1.75154e-08
3.62621e-10
1.73266e-08
3.50919e-10
1.71435e-08
3.39725e-10
1.69658e-08
3.29003e-10
1.67934e-08
3.18715e-10
1.6626e-08
3.0883e-10
1.64635e-08
2.99316e-10
1.63057e-08
2.90144e-10
1.61526e-08
2.81288e-10
1.60039e-08
2.72721e-10
1.58595e-08
2.6442e-10
1.57193e-08
2.56363e-10
1.55833e-08
2.48527e-10
1.54513e-08
2.40892e-10
1.53232e-08
2.3344e-10
1.5199e-08
2.26151e-10
1.50785e-08
2.19007e-10
1.49618e-08
2.11993e-10
1.48488e-08
2.0509e-10
1.47395e-08
1.98284e-10
1.46337e-08
1.9156e-10
1.45315e-08
1.84902e-10
1.44329e-08
1.78297e-10
1.43379e-08
1.71732e-10
1.42464e-08
1.65192e-10
1.41584e-08
1.58666e-10
1.4074e-08
1.52142e-10
1.39932e-08
1.45609e-10
1.39159e-08
1.39057e-10
1.38423e-08
1.32476e-10
1.37723e-08
1.25858e-10
1.3706e-08
1.19192e-10
1.36434e-08
1.12471e-10
1.35845e-08
1.05683e-10
1.35295e-08
9.88137e-11
1.34783e-08
9.18475e-11
1.34311e-08
8.47652e-11
1.33879e-08
7.7548e-11
1.33487e-08
7.01809e-11
1.33137e-08
6.26604e-11
1.32828e-08
5.50035e-11
1.32561e-08
4.72584e-11
1.32335e-08
3.95149e-11
1.32148e-08
3.19107e-11
1.31999e-08
2.46298e-11
1.31883e-08
1.78883e-11
1.31798e-08
1.18982e-11
1.31738e-08
6.81724e-12
1.31701e-08
2.76027e-12
1.31684e-08
-4.49343e-14
1.31677e-08
-1.40039e-12
1.31673e-08
-1.23723e-12
1.31662e-08
8.83867e-13
9.29066e-12
3.56425e-08
2.80499e-09
-3.54506e-08
3.58381e-08
3.18778e-09
3.59927e-08
3.41067e-09
3.60939e-08
3.52972e-09
3.6135e-08
3.57321e-09
3.61124e-08
3.5502e-09
3.60264e-08
3.46997e-09
3.58811e-08
3.34492e-09
3.56828e-08
3.18793e-09
3.5439e-08
3.01107e-09
3.51577e-08
2.82509e-09
3.48467e-08
2.63898e-09
3.45132e-08
2.45961e-09
3.41636e-08
2.29158e-09
3.3803e-08
2.1375e-09
3.34355e-08
1.99831e-09
3.30645e-08
1.87374e-09
3.26923e-08
1.76277e-09
3.23207e-08
1.66395e-09
3.1951e-08
1.57571e-09
3.15842e-08
1.49651e-09
3.12209e-08
1.42495e-09
3.08617e-08
1.35986e-09
3.0507e-08
1.30023e-09
3.01571e-08
1.24524e-09
2.98123e-08
1.19426e-09
2.94728e-08
1.14676e-09
2.91389e-08
1.10232e-09
2.88105e-08
1.06062e-09
2.8488e-08
1.02137e-09
2.81713e-08
9.84351e-10
2.78605e-08
9.49369e-10
2.75556e-08
9.16257e-10
2.72567e-08
8.8487e-10
2.69638e-08
8.55079e-10
2.66769e-08
8.26766e-10
2.63959e-08
7.99827e-10
2.61207e-08
7.74166e-10
2.58514e-08
7.49694e-10
2.55878e-08
7.26332e-10
2.53299e-08
7.04004e-10
2.50776e-08
6.82641e-10
2.48309e-08
6.6218e-10
2.45895e-08
6.42562e-10
2.43535e-08
6.23729e-10
2.41228e-08
6.05632e-10
2.38972e-08
5.88221e-10
2.36766e-08
5.71451e-10
2.34611e-08
5.5528e-10
2.32504e-08
5.39666e-10
2.30445e-08
5.24571e-10
2.28434e-08
5.0996e-10
2.26469e-08
4.95798e-10
2.2455e-08
4.82052e-10
2.22676e-08
4.68691e-10
2.20847e-08
4.55684e-10
2.19061e-08
4.43002e-10
2.17318e-08
4.30618e-10
2.15618e-08
4.18505e-10
2.13961e-08
4.06637e-10
2.12346e-08
3.94988e-10
2.10772e-08
3.83534e-10
2.09239e-08
3.72251e-10
2.07748e-08
3.61115e-10
2.06298e-08
3.50104e-10
2.04889e-08
3.39195e-10
2.03521e-08
3.28367e-10
2.02194e-08
3.17599e-10
2.00908e-08
3.06868e-10
1.99664e-08
2.96156e-10
1.98461e-08
2.85442e-10
1.97301e-08
2.74707e-10
1.96183e-08
2.63934e-10
1.95108e-08
2.53105e-10
1.94077e-08
2.42203e-10
1.93089e-08
2.31214e-10
1.92147e-08
2.20122e-10
1.91249e-08
2.08914e-10
1.90398e-08
1.97575e-10
1.89594e-08
1.86087e-10
1.88838e-08
1.74434e-10
1.88131e-08
1.62595e-10
1.87473e-08
1.50553e-10
1.86865e-08
1.38294e-10
1.86309e-08
1.25813e-10
1.85804e-08
1.13132e-10
1.85351e-08
1.00302e-10
1.8495e-08
8.74219e-11
1.84598e-08
7.46503e-11
1.84295e-08
6.22064e-11
1.84038e-08
5.03651e-11
1.83822e-08
3.94328e-11
1.83644e-08
2.97032e-11
1.83499e-08
2.14002e-11
1.8338e-08
1.46482e-11
1.83284e-08
9.47831e-12
1.83211e-08
5.98242e-12
1.83153e-08
4.4847e-12
1.83102e-08
6.07516e-12
1.59406e-11
3.63944e-08
2.63691e-09
-3.62263e-08
3.65924e-08
2.9897e-09
3.67845e-08
3.21866e-09
3.69577e-08
3.35652e-09
3.71046e-08
3.4263e-09
3.7218e-08
3.43673e-09
3.72931e-08
3.39491e-09
3.73276e-08
3.31043e-09
3.73216e-08
3.19386e-09
3.72773e-08
3.05542e-09
3.71979e-08
2.90449e-09
3.70877e-08
2.74921e-09
3.69512e-08
2.59609e-09
3.67929e-08
2.44986e-09
3.66169e-08
2.31349e-09
3.64267e-08
2.18849e-09
3.62253e-08
2.0752e-09
3.60149e-08
1.97317e-09
3.57974e-08
1.88146e-09
3.55742e-08
1.79891e-09
3.53464e-08
1.7243e-09
3.51148e-08
1.65649e-09
3.48802e-08
1.59445e-09
3.46432e-08
1.53729e-09
3.44041e-08
1.4843e-09
3.41635e-08
1.43488e-09
3.39217e-08
1.38854e-09
3.36791e-08
1.34491e-09
3.34361e-08
1.30368e-09
3.31928e-08
1.26458e-09
3.29498e-08
1.22742e-09
3.27071e-08
1.19203e-09
3.24651e-08
1.15825e-09
3.2224e-08
1.12595e-09
3.19841e-08
1.09503e-09
3.17455e-08
1.06539e-09
3.15084e-08
1.03693e-09
3.12729e-08
1.00958e-09
3.10394e-08
9.83268e-10
3.08078e-08
9.57918e-10
3.05783e-08
9.33472e-10
3.03511e-08
9.09873e-10
3.01262e-08
8.87068e-10
2.99038e-08
8.65008e-10
2.96838e-08
8.43645e-10
2.94665e-08
8.22937e-10
2.92519e-08
8.02842e-10
2.904e-08
7.83321e-10
2.8831e-08
7.64337e-10
2.86248e-08
7.45855e-10
2.84215e-08
7.27842e-10
2.82212e-08
7.10263e-10
2.80239e-08
6.93088e-10
2.78297e-08
6.76286e-10
2.76386e-08
6.59828e-10
2.74506e-08
6.43683e-10
2.72657e-08
6.27825e-10
2.70841e-08
6.12225e-10
2.69058e-08
5.96854e-10
2.67307e-08
5.81687e-10
2.6559e-08
5.66697e-10
2.63907e-08
5.51855e-10
2.62258e-08
5.37137e-10
2.60644e-08
5.22516e-10
2.59066e-08
5.07966e-10
2.57523e-08
4.9346e-10
2.56017e-08
4.78973e-10
2.54548e-08
4.64479e-10
2.53117e-08
4.49953e-10
2.51725e-08
4.35369e-10
2.50372e-08
4.20704e-10
2.4906e-08
4.05933e-10
2.47789e-08
3.91032e-10
2.4656e-08
3.75981e-10
2.45375e-08
3.60756e-10
2.44234e-08
3.45339e-10
2.43138e-08
3.2971e-10
2.42088e-08
3.1385e-10
2.41087e-08
2.97739e-10
2.40134e-08
2.81359e-10
2.39231e-08
2.64691e-10
2.3838e-08
2.47716e-10
2.37582e-08
2.30421e-10
2.36836e-08
2.12804e-10
2.36146e-08
1.94882e-10
2.3551e-08
1.76704e-10
2.34929e-08
1.58366e-10
2.34403e-08
1.40023e-10
2.33931e-08
1.21899e-10
2.3351e-08
1.04288e-10
2.33138e-08
8.75415e-11
2.32812e-08
7.20339e-11
2.32528e-08
5.81154e-11
2.32282e-08
4.60516e-11
2.32068e-08
3.59886e-11
2.31883e-08
2.79702e-11
2.31722e-08
2.20744e-11
2.31581e-08
1.86068e-11
2.31454e-08
1.87821e-11
2.75375e-11
3.71397e-08
2.495e-09
-3.69978e-08
3.7317e-08
2.8124e-09
3.75013e-08
3.03443e-09
3.76803e-08
3.17746e-09
3.78479e-08
3.25876e-09
3.79979e-08
3.28672e-09
3.81252e-08
3.26755e-09
3.82266e-08
3.20907e-09
3.83003e-08
3.12015e-09
3.83462e-08
3.00955e-09
3.83653e-08
2.88537e-09
3.83597e-08
2.75481e-09
3.8332e-08
2.6238e-09
3.8285e-08
2.4968e-09
3.82217e-08
2.37686e-09
3.81444e-08
2.26571e-09
3.80556e-08
2.16404e-09
3.7957e-08
2.07179e-09
3.785e-08
1.98841e-09
3.77359e-08
1.91303e-09
3.76155e-08
1.84473e-09
3.74894e-08
1.78253e-09
3.73583e-08
1.72557e-09
3.72225e-08
1.67307e-09
3.70825e-08
1.62437e-09
3.69384e-08
1.57893e-09
3.67907e-08
1.53628e-09
3.66395e-08
1.49607e-09
3.64852e-08
1.458e-09
3.6328e-08
1.42183e-09
3.6168e-08
1.38735e-09
3.60057e-08
1.3544e-09
3.58411e-08
1.32283e-09
3.56745e-08
1.29253e-09
3.55062e-08
1.26339e-09
3.53362e-08
1.23532e-09
3.51649e-08
1.20823e-09
3.49924e-08
1.18206e-09
3.4819e-08
1.15673e-09
3.46447e-08
1.13219e-09
3.44698e-08
1.10838e-09
3.42944e-08
1.08524e-09
3.41188e-08
1.06274e-09
3.39429e-08
1.04083e-09
3.37671e-08
1.01947e-09
3.35914e-08
9.98613e-10
3.34161e-08
9.78234e-10
3.32411e-08
9.58294e-10
3.30667e-08
9.38762e-10
3.28929e-08
9.19606e-10
3.272e-08
9.00796e-10
3.25479e-08
8.82303e-10
3.23769e-08
8.64098e-10
3.2207e-08
8.46154e-10
3.20384e-08
8.28442e-10
3.18712e-08
8.10936e-10
3.17054e-08
7.93608e-10
3.15412e-08
7.76432e-10
3.13787e-08
7.5938e-10
3.12179e-08
7.42426e-10
3.10591e-08
7.25542e-10
3.09022e-08
7.08702e-10
3.07475e-08
6.91877e-10
3.0595e-08
6.7504e-10
3.04448e-08
6.58163e-10
3.0297e-08
6.41218e-10
3.01518e-08
6.24176e-10
3.00093e-08
6.07009e-10
2.98695e-08
5.89688e-10
2.97327e-08
5.72185e-10
2.95989e-08
5.54472e-10
2.94684e-08
5.36521e-10
2.93411e-08
5.18305e-10
2.92173e-08
4.99798e-10
2.90971e-08
4.80975e-10
2.89806e-08
4.61812e-10
2.8868e-08
4.42286e-10
2.87595e-08
4.22375e-10
2.86552e-08
4.02058e-10
2.85552e-08
3.81316e-10
2.84598e-08
3.60129e-10
2.8369e-08
3.38485e-10
2.8283e-08
3.16379e-10
2.8202e-08
2.93825e-10
2.8126e-08
2.70864e-10
2.80552e-08
2.47577e-10
2.79894e-08
2.24104e-10
2.79288e-08
2.0065e-10
2.78732e-08
1.77499e-10
2.78225e-08
1.55005e-10
2.77764e-08
1.33577e-10
2.77348e-08
1.13639e-10
2.76974e-08
9.55776e-11
2.76637e-08
7.96891e-11
2.76336e-08
6.61497e-11
2.76065e-08
5.50361e-11
2.75822e-08
4.64347e-11
2.75601e-08
4.06347e-11
2.75402e-08
3.87266e-11
4.42337e-11
3.78904e-08
2.37341e-09
-3.77688e-08
3.80463e-08
2.65652e-09
3.82143e-08
2.8664e-09
3.83828e-08
3.00894e-09
3.85458e-08
3.09577e-09
3.86983e-08
3.13428e-09
3.88358e-08
3.13e-09
3.89554e-08
3.08953e-09
3.90551e-08
3.02041e-09
3.91344e-08
2.93025e-09
3.91936e-08
2.82619e-09
3.92338e-08
2.7146e-09
3.92567e-08
2.60086e-09
3.92644e-08
2.48914e-09
3.92588e-08
2.38242e-09
3.9242e-08
2.28255e-09
3.92156e-08
2.19044e-09
3.91811e-08
2.10631e-09
3.91396e-08
2.02988e-09
3.90921e-08
1.96056e-09
3.90392e-08
1.89764e-09
3.89814e-08
1.84032e-09
3.89191e-08
1.78787e-09
3.88525e-08
1.73961e-09
3.8782e-08
1.69494e-09
3.87076e-08
1.65335e-09
3.86294e-08
1.61442e-09
3.85477e-08
1.57779e-09
3.84625e-08
1.54318e-09
3.8374e-08
1.51035e-09
3.82823e-08
1.47909e-09
3.81874e-08
1.44923e-09
3.80896e-08
1.42064e-09
3.7989e-08
1.3932e-09
3.78856e-08
1.36678e-09
3.77796e-08
1.34131e-09
3.76711e-08
1.3167e-09
3.75603e-08
1.29287e-09
3.74473e-08
1.26976e-09
3.73321e-08
1.24731e-09
3.72151e-08
1.22546e-09
3.70961e-08
1.20417e-09
3.69755e-08
1.18338e-09
3.68533e-08
1.16305e-09
3.67296e-08
1.14315e-09
3.66046e-08
1.12363e-09
3.64784e-08
1.10446e-09
3.6351e-08
1.08561e-09
3.62228e-08
1.06705e-09
3.60936e-08
1.04874e-09
3.59638e-08
1.03065e-09
3.58333e-08
1.01276e-09
3.57024e-08
9.95037e-10
3.55711e-08
9.77454e-10
3.54395e-08
9.59983e-10
3.53079e-08
9.42596e-10
3.51762e-08
9.25266e-10
3.50447e-08
9.07967e-10
3.49134e-08
8.90669e-10
3.47825e-08
8.73345e-10
3.4652e-08
8.55966e-10
3.45222e-08
8.38504e-10
3.43932e-08
8.2093e-10
3.4265e-08
8.03213e-10
3.41379e-08
7.85324e-10
3.40118e-08
7.67231e-10
3.38871e-08
7.48903e-10
3.37638e-08
7.3031e-10
3.36421e-08
7.11419e-10
3.35221e-08
6.92199e-10
3.34039e-08
6.72618e-10
3.32878e-08
6.52645e-10
3.31739e-08
6.32249e-10
3.30623e-08
6.11401e-10
3.29532e-08
5.90073e-10
3.28467e-08
5.68238e-10
3.27432e-08
5.45869e-10
3.26426e-08
5.22943e-10
3.25452e-08
4.99438e-10
3.24512e-08
4.75333e-10
3.23607e-08
4.50614e-10
3.22739e-08
4.25274e-10
3.2191e-08
3.99319e-10
3.2112e-08
3.7278e-10
3.20372e-08
3.4572e-10
3.19665e-08
3.18253e-10
3.19e-08
2.90553e-10
3.18378e-08
2.62871e-10
3.17798e-08
2.35534e-10
3.17258e-08
2.08943e-10
3.16759e-08
1.83545e-10
3.16297e-08
1.59796e-10
3.15872e-08
1.38105e-10
3.15481e-08
1.18791e-10
3.15122e-08
1.02054e-10
3.14792e-08
8.79963e-11
3.14489e-08
7.67128e-11
3.14211e-08
6.84489e-11
3.13959e-08
6.39754e-11
6.4875e-11
3.86481e-08
2.26698e-09
-3.85417e-08
3.87856e-08
2.51901e-09
3.89374e-08
2.71463e-09
3.90927e-08
2.85368e-09
3.92454e-08
2.94308e-09
3.93909e-08
2.98873e-09
3.95255e-08
2.99545e-09
3.96462e-08
2.96881e-09
3.97514e-08
2.91521e-09
3.98403e-08
2.84128e-09
3.99132e-08
2.75331e-09
3.99708e-08
2.65701e-09
4.00144e-08
2.55724e-09
4.00457e-08
2.45791e-09
4.00662e-08
2.36189e-09
4.00777e-08
2.27109e-09
4.00815e-08
2.18659e-09
4.0079e-08
2.10883e-09
4.00711e-08
2.03775e-09
4.00587e-08
1.973e-09
4.00423e-08
1.91406e-09
4.00223e-08
1.86029e-09
3.99991e-08
1.8111e-09
3.99728e-08
1.76588e-09
3.99436e-08
1.72411e-09
3.99116e-08
1.68534e-09
3.98769e-08
1.64916e-09
3.98394e-08
1.61524e-09
3.97993e-08
1.5833e-09
3.97566e-08
1.5531e-09
3.97112e-08
1.52444e-09
3.96633e-08
1.49717e-09
3.96128e-08
1.47112e-09
3.95598e-08
1.44617e-09
3.95044e-08
1.42222e-09
3.94466e-08
1.39916e-09
3.93863e-08
1.37692e-09
3.93238e-08
1.35541e-09
3.9259e-08
1.33457e-09
3.9192e-08
1.31433e-09
3.91228e-08
1.29463e-09
3.90515e-08
1.27543e-09
3.89782e-08
1.25666e-09
3.8903e-08
1.2383e-09
3.88259e-08
1.22028e-09
3.87469e-08
1.20258e-09
3.86662e-08
1.18516e-09
3.85838e-08
1.16797e-09
3.84999e-08
1.151e-09
3.84144e-08
1.13419e-09
3.83275e-08
1.11753e-09
3.82393e-08
1.10098e-09
3.81499e-08
1.08451e-09
3.80592e-08
1.06809e-09
3.79675e-08
1.05169e-09
3.78748e-08
1.03528e-09
3.77813e-08
1.01883e-09
3.76869e-08
1.00231e-09
3.75919e-08
9.85688e-10
3.74963e-08
9.68937e-10
3.74003e-08
9.52025e-10
3.73038e-08
9.34919e-10
3.72072e-08
9.17587e-10
3.71104e-08
8.99996e-10
3.70136e-08
8.82113e-10
3.69169e-08
8.63903e-10
3.68205e-08
8.45331e-10
3.67245e-08
8.26363e-10
3.66289e-08
8.06963e-10
3.6534e-08
7.87095e-10
3.64399e-08
7.66724e-10
3.63467e-08
7.45815e-10
3.62547e-08
7.24334e-10
3.61638e-08
7.02247e-10
3.60744e-08
6.79523e-10
3.59865e-08
6.5613e-10
3.59003e-08
6.32042e-10
3.5816e-08
6.07231e-10
3.57338e-08
5.81675e-10
3.56537e-08
5.55355e-10
3.55761e-08
5.28259e-10
3.5501e-08
5.00386e-10
3.54286e-08
4.71755e-10
3.53589e-08
4.4241e-10
3.52922e-08
4.12436e-10
3.52285e-08
3.8197e-10
3.51678e-08
3.51216e-10
3.51102e-08
3.20456e-10
3.50557e-08
2.90048e-10
3.50043e-08
2.60421e-10
3.49558e-08
2.32043e-10
3.49102e-08
2.05387e-10
3.48674e-08
1.80877e-10
3.48273e-08
1.58842e-10
3.47899e-08
1.395e-10
3.47549e-08
1.2297e-10
3.47223e-08
1.09345e-10
3.4692e-08
9.87847e-11
3.46643e-08
9.16379e-11
8.76069e-11
3.94133e-08
2.1721e-09
-3.93184e-08
3.95356e-08
2.39673e-09
3.96727e-08
2.57752e-09
3.98152e-08
2.71124e-09
3.9957e-08
2.80128e-09
4.00937e-08
2.85194e-09
4.02219e-08
2.86726e-09
4.03389e-08
2.85189e-09
4.04428e-08
2.81123e-09
4.05331e-08
2.751e-09
4.06097e-08
2.67673e-09
4.06732e-08
2.59351e-09
4.07247e-08
2.50576e-09
4.07655e-08
2.4171e-09
4.07971e-08
2.33029e-09
4.08209e-08
2.24725e-09
4.08383e-08
2.1692e-09
4.08504e-08
2.09672e-09
4.08582e-08
2.02998e-09
4.08624e-08
1.96881e-09
4.08636e-08
1.91285e-09
4.08623e-08
1.86165e-09
4.08586e-08
1.8147e-09
4.0853e-08
1.77153e-09
4.08454e-08
1.73166e-09
4.08361e-08
1.6947e-09
4.0825e-08
1.66028e-09
4.08121e-08
1.6281e-09
4.07975e-08
1.59788e-09
4.07812e-08
1.5694e-09
4.07632e-08
1.54247e-09
4.07434e-08
1.51692e-09
4.07219e-08
1.4926e-09
4.06987e-08
1.4694e-09
4.06737e-08
1.44719e-09
4.0647e-08
1.42588e-09
4.06185e-08
1.40539e-09
4.05883e-08
1.38563e-09
4.05564e-08
1.36653e-09
4.05227e-08
1.34803e-09
4.04872e-08
1.33006e-09
4.04501e-08
1.31257e-09
4.04113e-08
1.2955e-09
4.03707e-08
1.27882e-09
4.03286e-08
1.26247e-09
4.02847e-08
1.24641e-09
4.02393e-08
1.2306e-09
4.01923e-08
1.215e-09
4.01437e-08
1.19957e-09
4.00936e-08
1.18429e-09
4.0042e-08
1.1691e-09
3.9989e-08
1.15399e-09
3.99346e-08
1.13891e-09
3.98789e-08
1.12383e-09
3.98219e-08
1.10872e-09
3.97636e-08
1.09354e-09
3.97041e-08
1.07827e-09
3.96436e-08
1.06287e-09
3.9582e-08
1.0473e-09
3.95194e-08
1.03154e-09
3.94559e-08
1.01554e-09
3.93915e-08
9.99268e-10
3.93264e-08
9.82694e-10
3.92606e-08
9.65778e-10
3.91942e-08
9.48481e-10
3.91274e-08
9.30767e-10
3.90601e-08
9.12596e-10
3.89926e-08
8.93929e-10
3.89248e-08
8.74726e-10
3.88569e-08
8.54948e-10
3.87891e-08
8.34555e-10
3.87214e-08
8.13507e-10
3.8654e-08
7.91767e-10
3.85869e-08
7.69297e-10
3.85204e-08
7.46062e-10
3.84545e-08
7.22028e-10
3.83894e-08
6.97164e-10
3.83252e-08
6.71442e-10
3.8262e-08
6.44838e-10
3.82e-08
6.17334e-10
3.81394e-08
5.88922e-10
3.80801e-08
5.59607e-10
3.80225e-08
5.29415e-10
3.79665e-08
4.98404e-10
3.79122e-08
4.66673e-10
3.78598e-08
4.34379e-10
3.78093e-08
4.01744e-10
3.77607e-08
3.69069e-10
3.7714e-08
3.3673e-10
3.76693e-08
3.05164e-10
3.76265e-08
2.74851e-10
3.75856e-08
2.46265e-10
3.75466e-08
2.19833e-10
3.75096e-08
1.9589e-10
3.74744e-08
1.74665e-10
3.74411e-08
1.56287e-10
3.74096e-08
1.40832e-10
3.738e-08
1.28358e-10
3.73529e-08
1.18799e-10
1.10454e-10
4.01865e-08
2.08623e-09
-4.01007e-08
4.02963e-08
2.287e-09
4.04205e-08
2.45329e-09
4.05512e-08
2.58056e-09
4.06826e-08
2.66981e-09
4.08107e-08
2.72388e-09
4.0932e-08
2.746e-09
4.10439e-08
2.73998e-09
4.11447e-08
2.71036e-09
4.12337e-08
2.66202e-09
4.13106e-08
2.5998e-09
4.1376e-08
2.5282e-09
4.14305e-08
2.45121e-09
4.14754e-08
2.37218e-09
4.1512e-08
2.29374e-09
4.15414e-08
2.21778e-09
4.1565e-08
2.1456e-09
4.15838e-08
2.07791e-09
4.15988e-08
2.01504e-09
4.16106e-08
1.95698e-09
4.16199e-08
1.90355e-09
4.16271e-08
1.85441e-09
4.16327e-08
1.80919e-09
4.16367e-08
1.7675e-09
4.16394e-08
1.72894e-09
4.16409e-08
1.69317e-09
4.16414e-08
1.65986e-09
4.16407e-08
1.62874e-09
4.1639e-08
1.59956e-09
4.16363e-08
1.57211e-09
4.16326e-08
1.5462e-09
4.16278e-08
1.52167e-09
4.16221e-08
1.49839e-09
4.16152e-08
1.47623e-09
4.16073e-08
1.45509e-09
4.15984e-08
1.43485e-09
4.15883e-08
1.41545e-09
4.15771e-08
1.39679e-09
4.15649e-08
1.37881e-09
4.15514e-08
1.36144e-09
4.15369e-08
1.34461e-09
4.15212e-08
1.32828e-09
4.15043e-08
1.31239e-09
4.14862e-08
1.29688e-09
4.1467e-08
1.28171e-09
4.14466e-08
1.26684e-09
4.14249e-08
1.25222e-09
4.14021e-08
1.23781e-09
4.13781e-08
1.22357e-09
4.1353e-08
1.20947e-09
4.13266e-08
1.19547e-09
4.12991e-08
1.18152e-09
4.12704e-08
1.1676e-09
4.12405e-08
1.15366e-09
4.12096e-08
1.13968e-09
4.11775e-08
1.12561e-09
4.11444e-08
1.11142e-09
4.11102e-08
1.09708e-09
4.10749e-08
1.08254e-09
4.10387e-08
1.06776e-09
4.10015e-08
1.05272e-09
4.09634e-08
1.03737e-09
4.09244e-08
1.02167e-09
4.08846e-08
1.00558e-09
4.0844e-08
9.89066e-10
4.08027e-08
9.72075e-10
4.07608e-08
9.54571e-10
4.07182e-08
9.36508e-10
4.06751e-08
9.17844e-10
4.06315e-08
8.98535e-10
4.05875e-08
8.78538e-10
4.05432e-08
8.57809e-10
4.04986e-08
8.36307e-10
4.0454e-08
8.13991e-10
4.04092e-08
7.90822e-10
4.03645e-08
7.66763e-10
4.03198e-08
7.41781e-10
4.02754e-08
7.15846e-10
4.02313e-08
6.88933e-10
4.01876e-08
6.61026e-10
4.01445e-08
6.32119e-10
4.01018e-08
6.02221e-10
4.00599e-08
5.71366e-10
4.00187e-08
5.39621e-10
3.99782e-08
5.07094e-10
3.99387e-08
4.73954e-10
3.99e-08
4.40435e-10
3.98622e-08
4.06843e-10
3.98254e-08
3.73559e-10
3.97895e-08
3.41021e-10
3.97547e-08
3.097e-10
3.97209e-08
2.80066e-10
3.96882e-08
2.52538e-10
3.96566e-08
2.27453e-10
3.96262e-08
2.05042e-10
3.95971e-08
1.8544e-10
3.95692e-08
1.68701e-10
3.95428e-08
1.54787e-10
3.95183e-08
1.43312e-10
1.31826e-10
4.09683e-08
2.00758e-09
-4.08897e-08
4.10677e-08
2.18767e-09
4.11807e-08
2.34026e-09
4.13007e-08
2.46052e-09
4.14226e-08
2.54792e-09
4.15424e-08
2.60411e-09
4.16569e-08
2.63152e-09
4.17636e-08
2.63327e-09
4.18609e-08
2.61311e-09
4.19477e-08
2.57516e-09
4.20239e-08
2.52363e-09
4.20896e-08
2.46249e-09
4.21455e-08
2.39531e-09
4.21925e-08
2.32517e-09
4.22317e-08
2.25453e-09
4.22642e-08
2.18525e-09
4.22912e-08
2.11865e-09
4.23135e-08
2.05556e-09
4.23322e-08
1.9964e-09
4.23478e-08
1.94134e-09
4.23611e-08
1.89029e-09
4.23724e-08
1.84307e-09
4.23822e-08
1.7994e-09
4.23907e-08
1.75897e-09
4.23982e-08
1.72148e-09
4.24048e-08
1.68662e-09
4.24105e-08
1.65411e-09
4.24155e-08
1.62372e-09
4.24199e-08
1.59521e-09
4.24236e-08
1.56839e-09
4.24267e-08
1.54309e-09
4.24292e-08
1.51916e-09
4.24312e-08
1.49647e-09
4.24325e-08
1.4749e-09
4.24332e-08
1.45435e-09
4.24334e-08
1.43471e-09
4.24329e-08
1.41592e-09
4.24318e-08
1.39788e-09
4.24301e-08
1.38053e-09
4.24277e-08
1.3638e-09
4.24247e-08
1.34764e-09
4.2421e-08
1.33198e-09
4.24166e-08
1.31677e-09
4.24115e-08
1.30197e-09
4.24057e-08
1.28752e-09
4.23992e-08
1.27337e-09
4.23919e-08
1.2595e-09
4.23839e-08
1.24585e-09
4.2375e-08
1.23238e-09
4.23655e-08
1.21905e-09
4.23551e-08
1.20583e-09
4.23439e-08
1.19268e-09
4.2332e-08
1.17956e-09
4.23192e-08
1.16643e-09
4.23056e-08
1.15325e-09
4.22912e-08
1.13999e-09
4.22761e-08
1.12661e-09
4.22601e-08
1.11307e-09
4.22433e-08
1.09933e-09
4.22257e-08
1.08535e-09
4.22073e-08
1.07108e-09
4.21882e-08
1.0565e-09
4.21683e-08
1.04156e-09
4.21477e-08
1.02621e-09
4.21264e-08
1.0104e-09
4.21043e-08
9.94106e-10
4.20816e-08
9.77269e-10
4.20583e-08
9.59845e-10
4.20343e-08
9.41789e-10
4.20098e-08
9.23053e-10
4.19848e-08
9.03592e-10
4.19592e-08
8.83359e-10
4.19332e-08
8.6231e-10
4.19068e-08
8.40402e-10
4.188e-08
8.17592e-10
4.1853e-08
7.93842e-10
4.18256e-08
7.69117e-10
4.17981e-08
7.43387e-10
4.17704e-08
7.16626e-10
4.17426e-08
6.88818e-10
4.17148e-08
6.5996e-10
4.16869e-08
6.30066e-10
4.16591e-08
5.99173e-10
4.16314e-08
5.67355e-10
4.16037e-08
5.34728e-10
4.15762e-08
5.01465e-10
4.15489e-08
4.67801e-10
4.15217e-08
4.34044e-10
4.14946e-08
4.00567e-10
4.14679e-08
3.67798e-10
4.14414e-08
3.36195e-10
4.14152e-08
3.06211e-10
4.13895e-08
2.78252e-10
4.13643e-08
2.52649e-10
4.13397e-08
2.29635e-10
4.13158e-08
2.09342e-10
4.12927e-08
1.91806e-10
4.12706e-08
1.76914e-10
4.12498e-08
1.64099e-10
1.50775e-10
4.17594e-08
1.93486e-09
-4.16867e-08
4.18501e-08
2.09702e-09
4.19534e-08
2.23696e-09
4.20639e-08
2.35001e-09
4.2177e-08
2.43481e-09
4.2289e-08
2.49207e-09
4.2397e-08
2.52354e-09
4.24986e-08
2.53168e-09
4.25921e-08
2.51958e-09
4.26766e-08
2.49071e-09
4.27515e-08
2.44867e-09
4.2817e-08
2.39695e-09
4.28736e-08
2.33875e-09
4.29219e-08
2.27685e-09
4.29629e-08
2.21355e-09
4.29975e-08
2.15064e-09
4.30267e-08
2.08944e-09
4.30514e-08
2.03085e-09
4.30725e-08
1.97538e-09
4.30905e-08
1.92331e-09
4.31061e-08
1.87467e-09
4.31198e-08
1.82938e-09
4.31319e-08
1.78726e-09
4.31428e-08
1.74809e-09
4.31527e-08
1.71162e-09
4.31617e-08
1.6776e-09
4.317e-08
1.64581e-09
4.31777e-08
1.61602e-09
4.31849e-08
1.58804e-09
4.31916e-08
1.56169e-09
4.31978e-08
1.53682e-09
4.32037e-08
1.51329e-09
4.32092e-08
1.49097e-09
4.32144e-08
1.46975e-09
4.32192e-08
1.44954e-09
4.32237e-08
1.43025e-09
4.32278e-08
1.41178e-09
4.32316e-08
1.39408e-09
4.32351e-08
1.37706e-09
4.32382e-08
1.36068e-09
4.3241e-08
1.34486e-09
4.32434e-08
1.32955e-09
4.32455e-08
1.3147e-09
4.32472e-08
1.30027e-09
4.32485e-08
1.2862e-09
4.32494e-08
1.27245e-09
4.32499e-08
1.25898e-09
4.325e-08
1.24575e-09
4.32497e-08
1.23271e-09
4.32489e-08
1.21982e-09
4.32477e-08
1.20705e-09
4.3246e-08
1.19437e-09
4.32439e-08
1.18172e-09
4.32412e-08
1.16907e-09
4.32381e-08
1.15639e-09
4.32344e-08
1.14363e-09
4.32303e-08
1.13076e-09
4.32256e-08
1.11774e-09
4.32204e-08
1.10453e-09
4.32147e-08
1.09108e-09
4.32084e-08
1.07736e-09
4.32016e-08
1.06332e-09
4.31942e-08
1.04891e-09
4.31863e-08
1.03411e-09
4.31779e-08
1.01885e-09
4.31689e-08
1.00309e-09
4.31594e-08
9.86791e-10
4.31493e-08
9.69899e-10
4.31388e-08
9.52369e-10
4.31277e-08
9.3415e-10
4.3116e-08
9.15196e-10
4.3104e-08
8.95459e-10
4.30914e-08
8.74893e-10
4.30783e-08
8.53452e-10
4.30648e-08
8.31095e-10
4.30509e-08
8.07781e-10
4.30365e-08
7.83475e-10
4.30218e-08
7.58145e-10
4.30066e-08
7.31768e-10
4.29911e-08
7.0433e-10
4.29752e-08
6.75828e-10
4.2959e-08
6.4628e-10
4.29425e-08
6.15728e-10
4.29256e-08
5.84249e-10
4.29083e-08
5.51962e-10
4.28908e-08
5.1904e-10
4.28729e-08
4.85718e-10
4.28546e-08
4.52295e-10
4.2836e-08
4.19133e-10
4.28172e-08
3.86643e-10
4.27981e-08
3.5526e-10
4.27789e-08
3.25416e-10
4.27597e-08
2.97502e-10
4.27405e-08
2.71838e-10
4.27215e-08
2.48652e-10
4.27027e-08
2.28074e-10
4.26844e-08
2.10126e-10
4.26667e-08
1.94652e-10
4.26497e-08
1.81033e-10
1.66983e-10
4.25604e-08
1.86713e-09
-4.24926e-08
4.26437e-08
2.01372e-09
4.27385e-08
2.1421e-09
4.28405e-08
2.24804e-09
4.29456e-08
2.32973e-09
4.30504e-08
2.38723e-09
4.31523e-08
2.42169e-09
4.32489e-08
2.43505e-09
4.33387e-08
2.42978e-09
4.34206e-08
2.40879e-09
4.34941e-08
2.37516e-09
4.35592e-08
2.33192e-09
4.3616e-08
2.28191e-09
4.36652e-08
2.22764e-09
4.37075e-08
2.17123e-09
4.37438e-08
2.1144e-09
4.37748e-08
2.05843e-09
4.38014e-08
2.00426e-09
4.38243e-08
1.95248e-09
4.38441e-08
1.90344e-09
4.38615e-08
1.85727e-09
4.38769e-08
1.81399e-09
4.38907e-08
1.77349e-09
4.39032e-08