/*--------------------------------*- C++ -*----------------------------------*\
| =========                 |                                                 |
| \\      /  F ield         | OpenFOAM: The Open Source CFD Toolbox           |
|  \\    /   O peration     | Version:  2.3.0                                 |
|   \\  /    A nd           | Web:      www.OpenFOAM.org                      |
|    \\/     M anipulation  |                                                 |
\*---------------------------------------------------------------------------*/
FoamFile
{
    version     2.0;
    format      ascii;
    class       volVectorField;
    location    "0.9";
    object      U;
}
// * * * * * * * * * * * * * * * * * * * * * * * * * * * * * * * * * * * * * //

dimensions      [0 1 -1 0 0 0 0];

internalField   nonuniform List<vector> 
1500
(
(0.17595 0.00442376 0)
(0.15519 0.00605632 0)
(0.136302 0.00621987 0)
(0.117836 0.00560896 0)
(0.0999866 0.00478771 0)
(0.083642 0.00387351 0)
(0.0699252 0.0028776 0)
(0.0592447 0.00182273 0)
(0.0513817 0.000902631 0)
(0.0457643 0.000283192 0)
(0.0418011 -3.93933e-05 0)
(0.0390021 -0.000160345 0)
(0.0369758 -0.000169994 0)
(0.0354333 -0.000129537 0)
(0.0341692 -7.20841e-05 0)
(0.0330548 -1.74201e-05 0)
(0.0320216 2.44523e-05 0)
(0.0310409 5.14592e-05 0)
(0.0301063 6.59014e-05 0)
(0.0292203 7.14148e-05 0)
(0.028387 7.1346e-05 0)
(0.0276088 6.82238e-05 0)
(0.0268858 6.37325e-05 0)
(0.0262158 5.88962e-05 0)
(0.0255955 5.42568e-05 0)
(0.0250204 5.00544e-05 0)
(0.024486 4.63478e-05 0)
(0.0239877 4.31231e-05 0)
(0.0235213 4.03178e-05 0)
(0.023083 3.78713e-05 0)
(0.0226697 3.57153e-05 0)
(0.0222783 3.38044e-05 0)
(0.0219067 3.20882e-05 0)
(0.0215526 3.05403e-05 0)
(0.0212147 2.91241e-05 0)
(0.0208913 2.78277e-05 0)
(0.0205814 2.6623e-05 0)
(0.0202836 2.55084e-05 0)
(0.0199975 2.44609e-05 0)
(0.0197219 2.34857e-05 0)
(0.0194564 2.25619e-05 0)
(0.0192 2.17001e-05 0)
(0.0189526 2.08789e-05 0)
(0.018713 2.01135e-05 0)
(0.0184815 1.93801e-05 0)
(0.0182569 1.86983e-05 0)
(0.0180396 1.80411e-05 0)
(0.0178281 1.74325e-05 0)
(0.0176234 1.68413e-05 0)
(0.0174238 1.62963e-05 0)
(0.0172304 1.57618e-05 0)
(0.0170413 1.5272e-05 0)
(0.0168581 1.47855e-05 0)
(0.0166786 1.43438e-05 0)
(0.0165047 1.38977e-05 0)
(0.0163338 1.34977e-05 0)
(0.0161684 1.30856e-05 0)
(0.0160054 1.2722e-05 0)
(0.0158478 1.23387e-05 0)
(0.0156921 1.20074e-05 0)
(0.0155417 1.16482e-05 0)
(0.0153927 1.13464e-05 0)
(0.0152491 1.10071e-05 0)
(0.0151062 1.07327e-05 0)
(0.014969 1.041e-05 0)
(0.0148318 1.01613e-05 0)
(0.0147007 9.85231e-06 0)
(0.0145687 9.62818e-06 0)
(0.0144434 9.33001e-06 0)
(0.0143162 9.13028e-06 0)
(0.0141965 8.83974e-06 0)
(0.0140737 8.66485e-06 0)
(0.0139594 8.37899e-06 0)
(0.0138406 8.22944e-06 0)
(0.0137316 7.94552e-06 0)
(0.0136165 7.8226e-06 0)
(0.0135127 7.53693e-06 0)
(0.0134008 7.44353e-06 0)
(0.0133022 7.15171e-06 0)
(0.0131931 7.09127e-06 0)
(0.0130997 6.78932e-06 0)
(0.0129929 6.76575e-06 0)
(0.0129048 6.44899e-06 0)
(0.0127998 6.46838e-06 0)
(0.0127172 6.13053e-06 0)
(0.0126132 6.20115e-06 0)
(0.0125364 5.8344e-06 0)
(0.0124327 5.96762e-06 0)
(0.012362 5.56193e-06 0)
(0.0122574 5.77314e-06 0)
(0.0121935 5.31545e-06 0)
(0.0120866 5.62589e-06 0)
(0.0120302 5.09605e-06 0)
(0.0119192 5.53907e-06 0)
(0.0118714 4.90409e-06 0)
(0.0117536 5.53445e-06 0)
(0.0117166 4.73545e-06 0)
(0.0115875 5.65135e-06 0)
(0.0115656 4.69642e-06 0)
(0.011411 7.56339e-06 0)
(0.19135 0.00786945 0)
(0.189609 0.0110281 0)
(0.187175 0.0121608 0)
(0.183425 0.0120375 0)
(0.178096 0.0114217 0)
(0.171367 0.0105297 0)
(0.163862 0.0093649 0)
(0.156038 0.00792258 0)
(0.148255 0.00635782 0)
(0.14073 0.0048965 0)
(0.133602 0.00368852 0)
(0.12698 0.00276841 0)
(0.120922 0.00210433 0)
(0.115456 0.00164975 0)
(0.11055 0.00135091 0)
(0.106145 0.00115598 0)
(0.102177 0.00102341 0)
(0.0985848 0.00092527 0)
(0.0953182 0.000845384 0)
(0.0923351 0.000775501 0)
(0.0896011 0.000711942 0)
(0.0870869 0.000653393 0)
(0.0847684 0.00059957 0)
(0.0826236 0.00055055 0)
(0.0806341 0.000506391 0)
(0.0787829 0.000467026 0)
(0.0770556 0.000432194 0)
(0.0754386 0.000401526 0)
(0.0739207 0.000374538 0)
(0.072491 0.00035075 0)
(0.0711414 0.000329665 0)
(0.0698633 0.000310873 0)
(0.0686507 0.000293982 0)
(0.0674968 0.00027871 0)
(0.0663975 0.000264783 0)
(0.0653471 0.000252028 0)
(0.0643431 0.000240255 0)
(0.0633804 0.000229373 0)
(0.0624576 0.000219243 0)
(0.0615701 0.000209823 0)
(0.0607173 0.000201004 0)
(0.059895 0.000192774 0)
(0.0591031 0.000185037 0)
(0.0583375 0.000177802 0)
(0.0575991 0.000170974 0)
(0.0568833 0.000164583 0)
(0.056192 0.000158528 0)
(0.0555202 0.000152854 0)
(0.0548707 0.000147456 0)
(0.054238 0.000142394 0)
(0.0536258 0.000137554 0)
(0.0530279 0.000133014 0)
(0.0524493 0.000128647 0)
(0.0518827 0.000124554 0)
(0.0513344 0.000120589 0)
(0.0507961 0.000116879 0)
(0.0502756 0.000113257 0)
(0.0497629 0.000109878 0)
(0.0492679 0.00010655 0)
(0.0487786 0.00010346 0)
(0.048307 0.000100385 0)
(0.0478391 9.75496e-05 0)
(0.0473896 9.46938e-05 0)
(0.0469413 9.20863e-05 0)
(0.0465123 8.94204e-05 0)
(0.046082 8.70181e-05 0)
(0.0456725 8.45185e-05 0)
(0.0452588 8.23031e-05 0)
(0.0448678 7.99481e-05 0)
(0.0444694 7.7906e-05 0)
(0.0440961 7.56753e-05 0)
(0.0437116 7.37966e-05 0)
(0.0433555 7.16722e-05 0)
(0.0429837 6.99486e-05 0)
(0.0426444 6.79151e-05 0)
(0.0422839 6.63415e-05 0)
(0.0419613 6.43821e-05 0)
(0.0416109 6.29598e-05 0)
(0.0413049 6.1057e-05 0)
(0.0409631 5.97896e-05 0)
(0.0406739 5.79294e-05 0)
(0.0403393 5.6823e-05 0)
(0.0400673 5.49911e-05 0)
(0.039738 5.4059e-05 0)
(0.0394839 5.22391e-05 0)
(0.0391579 5.15021e-05 0)
(0.0389227 4.96764e-05 0)
(0.0385974 4.91652e-05 0)
(0.0383825 4.7314e-05 0)
(0.0380547 4.70709e-05 0)
(0.0378622 4.51727e-05 0)
(0.0375278 4.5255e-05 0)
(0.0373604 4.32799e-05 0)
(0.0370137 4.3771e-05 0)
(0.0368756 4.16795e-05 0)
(0.0365087 4.26948e-05 0)
(0.0364063 4.04485e-05 0)
(0.0360066 4.22383e-05 0)
(0.0359521 3.98294e-05 0)
(0.0354952 4.68863e-05 0)
(0.192594 0.00760062 0)
(0.192917 0.0101823 0)
(0.193861 0.0117895 0)
(0.194892 0.0123479 0)
(0.19541 0.0122848 0)
(0.195093 0.0118677 0)
(0.193918 0.0111476 0)
(0.191968 0.0101559 0)
(0.189376 0.00899961 0)
(0.186284 0.00784035 0)
(0.182832 0.00680767 0)
(0.179162 0.00595324 0)
(0.175392 0.00526566 0)
(0.171622 0.00471571 0)
(0.167903 0.00426847 0)
(0.164258 0.00389311 0)
(0.160699 0.00356696 0)
(0.15723 0.00327565 0)
(0.153858 0.00301101 0)
(0.150584 0.00276873 0)
(0.147413 0.00254645 0)
(0.144347 0.00234281 0)
(0.141391 0.00215678 0)
(0.138546 0.00198752 0)
(0.135812 0.00183416 0)
(0.133188 0.00169578 0)
(0.130674 0.00157134 0)
(0.128266 0.00145974 0)
(0.125961 0.00135976 0)
(0.123755 0.00127019 0)
(0.121644 0.00118982 0)
(0.119622 0.00111754 0)
(0.117686 0.00105232 0)
(0.115829 0.000993294 0)
(0.11405 0.000939633 0)
(0.112339 0.000890699 0)
(0.110698 0.000845879 0)
(0.109117 0.000804721 0)
(0.107597 0.000766767 0)
(0.10613 0.000731706 0)
(0.104717 0.000699189 0)
(0.103351 0.000669003 0)
(0.102033 0.000640872 0)
(0.100755 0.000614653 0)
(0.0995206 0.000590113 0)
(0.0983211 0.000567164 0)
(0.0971616 0.000545598 0)
(0.096032 0.000525368 0)
(0.0949394 0.000506282 0)
(0.0938724 0.000488328 0)
(0.0928401 0.000471322 0)
(0.0918293 0.000455283 0)
(0.0908516 0.000440029 0)
(0.0898916 0.00042561 0)
(0.0889636 0.00041184 0)
(0.0880498 0.000398802 0)
(0.0871674 0.000386296 0)
(0.0862955 0.00037444 0)
(0.0854553 0.000363022 0)
(0.0846217 0.000352187 0)
(0.0838206 0.000341707 0)
(0.0830221 0.000331764 0)
(0.0822576 0.0003221 0)
(0.0814912 0.000312941 0)
(0.0807612 0.000303991 0)
(0.0800243 0.000295525 0)
(0.079327 0.000287205 0)
(0.0786171 0.000279357 0)
(0.077951 0.000271594 0)
(0.0772659 0.000264301 0)
(0.0766299 0.000257031 0)
(0.0759674 0.000250242 0)
(0.0753605 0.00024341 0)
(0.0747184 0.00023708 0)
(0.0741404 0.000230642 0)
(0.0735164 0.000224735 0)
(0.0729669 0.000218647 0)
(0.0723589 0.000213139 0)
(0.0718382 0.000207363 0)
(0.0712436 0.000202238 0)
(0.0707523 0.000196745 0)
(0.0701684 0.00019199 0)
(0.0697074 0.000186761 0)
(0.0691313 0.000182375 0)
(0.0687021 0.000177392 0)
(0.06813 0.00017339 0)
(0.0677348 0.000168645 0)
(0.0671624 0.000165052 0)
(0.066804 0.000160546 0)
(0.0662259 0.000157405 0)
(0.0659081 0.000153158 0)
(0.0653174 0.000150524 0)
(0.0650455 0.000146574 0)
(0.064433 0.00014453 0)
(0.0642142 0.000140934 0)
(0.0635676 0.00013962 0)
(0.0634119 0.000136415 0)
(0.0627143 0.000136473 0)
(0.0626353 0.000133485 0)
(0.0618647 0.000140934 0)
(0.193782 0.00719954 0)
(0.194053 0.00898238 0)
(0.194916 0.0104344 0)
(0.196271 0.0112073 0)
(0.197728 0.0113946 0)
(0.198943 0.0112014 0)
(0.199748 0.0107431 0)
(0.200094 0.0100816 0)
(0.199984 0.00928797 0)
(0.199452 0.00845917 0)
(0.198557 0.00768814 0)
(0.19738 0.00702816 0)
(0.196004 0.00648659 0)
(0.194499 0.00604182 0)
(0.192911 0.00566734 0)
(0.191263 0.00534138 0)
(0.189564 0.00504858 0)
(0.18782 0.0047791 0)
(0.186035 0.00452702 0)
(0.18421 0.00428897 0)
(0.182352 0.00406312 0)
(0.180464 0.00384851 0)
(0.178555 0.00364468 0)
(0.17663 0.00345146 0)
(0.174698 0.00326875 0)
(0.172761 0.00309648 0)
(0.17083 0.00293449 0)
(0.168905 0.00278253 0)
(0.166994 0.00264021 0)
(0.165098 0.00250703 0)
(0.163224 0.00238248 0)
(0.16137 0.00226599 0)
(0.159544 0.00215701 0)
(0.157741 0.00205501 0)
(0.155969 0.0019595 0)
(0.154224 0.00187003 0)
(0.152512 0.00178617 0)
(0.150827 0.00170752 0)
(0.149178 0.00163374 0)
(0.147556 0.00156448 0)
(0.14597 0.00149944 0)
(0.144411 0.00143831 0)
(0.142888 0.00138084 0)
(0.141391 0.00132675 0)
(0.13993 0.00127582 0)
(0.138493 0.00122782 0)
(0.137093 0.00118255 0)
(0.135713 0.00113979 0)
(0.13437 0.0010994 0)
(0.133045 0.00106115 0)
(0.131758 0.00102495 0)
(0.130485 0.00099058 0)
(0.12925 0.000957989 0)
(0.128026 0.000926959 0)
(0.126842 0.000897475 0)
(0.125664 0.000869325 0)
(0.124527 0.000842529 0)
(0.123392 0.000816867 0)
(0.1223 0.000792407 0)
(0.121205 0.000768903 0)
(0.120157 0.00074648 0)
(0.1191 0.000724862 0)
(0.118093 0.000704223 0)
(0.117071 0.000684258 0)
(0.116104 0.000665193 0)
(0.115114 0.000646681 0)
(0.114186 0.000629016 0)
(0.113225 0.000611784 0)
(0.112335 0.000595368 0)
(0.111402 0.000579273 0)
(0.110548 0.000563976 0)
(0.10964 0.000548892 0)
(0.108824 0.000534606 0)
(0.107938 0.000520422 0)
(0.107158 0.000507059 0)
(0.106292 0.000493679 0)
(0.10555 0.000481163 0)
(0.1047 0.000468511 0)
(0.103996 0.000456778 0)
(0.10316 0.000444788 0)
(0.102496 0.000433799 0)
(0.10167 0.000422408 0)
(0.101047 0.000412145 0)
(0.100227 0.000401311 0)
(0.0996486 0.000391769 0)
(0.0988292 0.000381465 0)
(0.0982989 0.000372665 0)
(0.0974746 0.000362882 0)
(0.0969968 0.000354873 0)
(0.0961604 0.000345623 0)
(0.0957407 0.000338489 0)
(0.0948835 0.000329822 0)
(0.094529 0.000323658 0)
(0.0936399 0.000315715 0)
(0.0933595 0.000310579 0)
(0.0924248 0.00030373 0)
(0.0922292 0.000299503 0)
(0.0912324 0.000294968 0)
(0.0911331 0.000291469 0)
(0.0900562 0.000294629 0)
(0.194785 0.006911 0)
(0.195027 0.00822515 0)
(0.195655 0.00941541 0)
(0.196692 0.010204 0)
(0.197955 0.0105126 0)
(0.19919 0.0104424 0)
(0.200225 0.0101169 0)
(0.200991 0.00962392 0)
(0.201477 0.00902916 0)
(0.201694 0.00839593 0)
(0.201671 0.00778711 0)
(0.201451 0.0072471 0)
(0.201089 0.00679166 0)
(0.200636 0.00641224 0)
(0.200127 0.00609122 0)
(0.19958 0.005812 0)
(0.199003 0.00556219 0)
(0.198393 0.00533342 0)
(0.197751 0.00512035 0)
(0.19707 0.00491956 0)
(0.19635 0.00472897 0)
(0.195588 0.00454723 0)
(0.194789 0.00437354 0)
(0.193949 0.00420739 0)
(0.193076 0.00404854 0)
(0.192166 0.00389677 0)
(0.191228 0.00375197 0)
(0.190257 0.0036139 0)
(0.189263 0.0034824 0)
(0.188241 0.00335711 0)
(0.187201 0.00323778 0)
(0.186136 0.00312399 0)
(0.185057 0.0030155 0)
(0.183957 0.00291187 0)
(0.182847 0.00281293 0)
(0.181719 0.00271825 0)
(0.180586 0.00262776 0)
(0.179436 0.00254104 0)
(0.178286 0.0024581 0)
(0.177121 0.00237852 0)
(0.17596 0.00230238 0)
(0.174785 0.00222925 0)
(0.173618 0.00215928 0)
(0.172438 0.002092 0)
(0.17127 0.00202762 0)
(0.170089 0.00196565 0)
(0.168925 0.00190637 0)
(0.167748 0.00184923 0)
(0.166591 0.00179458 0)
(0.16542 0.00174181 0)
(0.164275 0.00169138 0)
(0.163112 0.00164257 0)
(0.161981 0.00159596 0)
(0.16083 0.00155074 0)
(0.159715 0.0015076 0)
(0.158576 0.00146562 0)
(0.15748 0.00142563 0)
(0.156355 0.00138657 0)
(0.15528 0.00134946 0)
(0.15417 0.00131302 0)
(0.153117 0.00127852 0)
(0.152022 0.00124446 0)
(0.150993 0.00121233 0)
(0.149914 0.00118042 0)
(0.14891 0.00115045 0)
(0.147846 0.00112046 0)
(0.146869 0.00109249 0)
(0.14582 0.00106422 0)
(0.144871 0.00103809 0)
(0.143835 0.00101135 0)
(0.142916 0.000986914 0)
(0.141893 0.000961557 0)
(0.141006 0.000938691 0)
(0.139993 0.000914553 0)
(0.13914 0.000893167 0)
(0.138136 0.000870103 0)
(0.137318 0.000850113 0)
(0.136321 0.000828004 0)
(0.135541 0.000809342 0)
(0.134548 0.000788072 0)
(0.13381 0.000770711 0)
(0.132817 0.000750168 0)
(0.132123 0.000734102 0)
(0.131126 0.0007142 0)
(0.130481 0.000699446 0)
(0.129475 0.000680122 0)
(0.128885 0.000666726 0)
(0.127864 0.000647958 0)
(0.127334 0.000635988 0)
(0.12629 0.000617805 0)
(0.125827 0.000607355 0)
(0.124752 0.000589877 0)
(0.124363 0.000581021 0)
(0.123248 0.000564539 0)
(0.122942 0.00055728 0)
(0.121773 0.000542396 0)
(0.121561 0.000536635 0)
(0.120324 0.000524703 0)
(0.120216 0.000520727 0)
(0.118896 0.000515504 0)
(0.195651 0.00667573 0)
(0.19587 0.00770589 0)
(0.19635 0.00866449 0)
(0.197116 0.00938398 0)
(0.198089 0.00975542 0)
(0.199107 0.00979328 0)
(0.200026 0.00958427 0)
(0.200764 0.00921598 0)
(0.2013 0.00875457 0)
(0.201639 0.00825108 0)
(0.201805 0.00774965 0)
(0.201828 0.00728556 0)
(0.201751 0.0068781 0)
(0.201609 0.00652868 0)
(0.201437 0.00622848 0)
(0.20125 0.00596584 0)
(0.201061 0.00573089 0)
(0.200865 0.00551635 0)
(0.200667 0.00531761 0)
(0.200454 0.00513154 0)
(0.200231 0.00495635 0)
(0.199988 0.00479058 0)
(0.199731 0.00463349 0)
(0.199451 0.00448422 0)
(0.199157 0.00434248 0)
(0.198839 0.00420766 0)
(0.198508 0.00407967 0)
(0.198151 0.00395795 0)
(0.197782 0.00384246 0)
(0.197388 0.00373254 0)
(0.196982 0.00362817 0)
(0.19655 0.00352861 0)
(0.196108 0.00343388 0)
(0.195637 0.00334319 0)
(0.19516 0.00325667 0)
(0.194652 0.00317351 0)
(0.19414 0.00309398 0)
(0.193596 0.00301724 0)
(0.19305 0.00294373 0)
(0.192472 0.00287252 0)
(0.191894 0.00280423 0)
(0.191282 0.00273784 0)
(0.190674 0.00267414 0)
(0.19003 0.00261199 0)
(0.189394 0.00255235 0)
(0.18872 0.00249397 0)
(0.188058 0.00243797 0)
(0.187356 0.00238294 0)
(0.186672 0.00233023 0)
(0.185943 0.0022782 0)
(0.185238 0.00222847 0)
(0.184485 0.00217914 0)
(0.183763 0.00213213 0)
(0.182987 0.00208525 0)
(0.182251 0.00204074 0)
(0.181454 0.00199608 0)
(0.180706 0.00195387 0)
(0.179891 0.00191122 0)
(0.179133 0.00187117 0)
(0.178301 0.00183035 0)
(0.177538 0.00179231 0)
(0.17669 0.00175318 0)
(0.175924 0.00171704 0)
(0.175061 0.00167944 0)
(0.174295 0.00164509 0)
(0.173418 0.00160889 0)
(0.172656 0.00157627 0)
(0.171767 0.00154133 0)
(0.171011 0.00151037 0)
(0.170109 0.00147657 0)
(0.169363 0.00144721 0)
(0.168448 0.00141443 0)
(0.167716 0.00138663 0)
(0.166788 0.00135476 0)
(0.166073 0.00132848 0)
(0.165132 0.0012974 0)
(0.164437 0.00127264 0)
(0.163481 0.00124225 0)
(0.162812 0.00121898 0)
(0.16184 0.00118919 0)
(0.1612 0.00116743 0)
(0.160209 0.00113814 0)
(0.159603 0.00111794 0)
(0.158591 0.00108909 0)
(0.158025 0.00107049 0)
(0.156987 0.00104205 0)
(0.156467 0.00102512 0)
(0.1554 0.000997127 0)
(0.154932 0.000981946 0)
(0.153829 0.000954496 0)
(0.15342 0.000941171 0)
(0.152275 0.000914475 0)
(0.151932 0.000903113 0)
(0.150738 0.000877562 0)
(0.15047 0.000868252 0)
(0.149218 0.000844496 0)
(0.149032 0.000837426 0)
(0.147712 0.000816657 0)
(0.147617 0.000812559 0)
(0.146218 0.000797005 0)
(0.196418 0.00646591 0)
(0.196612 0.00729366 0)
(0.196984 0.00806516 0)
(0.197551 0.00868344 0)
(0.198279 0.00906397 0)
(0.199073 0.00918366 0)
(0.199831 0.00908275 0)
(0.200472 0.00882641 0)
(0.200964 0.00847461 0)
(0.201298 0.00807392 0)
(0.201495 0.0076605 0)
(0.201576 0.00726202 0)
(0.201574 0.00689706 0)
(0.201515 0.00657252 0)
(0.201433 0.00628651 0)
(0.201337 0.00603215 0)
(0.201247 0.00580249 0)
(0.201157 0.00559147 0)
(0.201077 0.00539546 0)
(0.200992 0.00521168 0)
(0.200912 0.00503899 0)
(0.200823 0.00487598 0)
(0.200738 0.00472237 0)
(0.200639 0.00457705 0)
(0.200545 0.00444004 0)
(0.200436 0.00431029 0)
(0.200332 0.00418805 0)
(0.200213 0.00407224 0)
(0.200098 0.00396325 0)
(0.199966 0.0038599 0)
(0.199841 0.00376268 0)
(0.199695 0.00367024 0)
(0.199557 0.00358321 0)
(0.199396 0.0035001 0)
(0.199243 0.00342174 0)
(0.199064 0.00334651 0)
(0.198897 0.00327546 0)
(0.198699 0.00320684 0)
(0.198514 0.00314199 0)
(0.198295 0.00307896 0)
(0.198093 0.00301939 0)
(0.197852 0.0029611 0)
(0.197632 0.00290604 0)
(0.197368 0.00285177 0)
(0.197128 0.0028006 0)
(0.19684 0.00274977 0)
(0.196581 0.00270195 0)
(0.196268 0.00265406 0)
(0.19599 0.00260916 0)
(0.195651 0.00256376 0)
(0.195354 0.00252142 0)
(0.194989 0.00247815 0)
(0.194673 0.00243805 0)
(0.194282 0.00239659 0)
(0.193948 0.00235847 0)
(0.19353 0.00231857 0)
(0.19318 0.00228221 0)
(0.192735 0.00224361 0)
(0.192369 0.00220886 0)
(0.191896 0.00217136 0)
(0.191517 0.00213808 0)
(0.191017 0.00210151 0)
(0.190625 0.00206957 0)
(0.190097 0.0020338 0)
(0.189694 0.00200313 0)
(0.189139 0.00196801 0)
(0.188728 0.00193856 0)
(0.188145 0.00190396 0)
(0.187728 0.00187569 0)
(0.187116 0.00184151 0)
(0.186695 0.00181439 0)
(0.186055 0.00178054 0)
(0.185634 0.00175455 0)
(0.184964 0.00172094 0)
(0.184545 0.00169609 0)
(0.183846 0.00166262 0)
(0.183432 0.00163894 0)
(0.182702 0.00160556 0)
(0.182298 0.00158304 0)
(0.181536 0.00154969 0)
(0.181145 0.0015284 0)
(0.180349 0.00149503 0)
(0.179975 0.00147503 0)
(0.179144 0.00144164 0)
(0.178792 0.00142299 0)
(0.177924 0.00138962 0)
(0.177598 0.00137241 0)
(0.17669 0.00133916 0)
(0.176395 0.0013235 0)
(0.175445 0.00129055 0)
(0.175187 0.0012766 0)
(0.17419 0.00124422 0)
(0.173974 0.00123218 0)
(0.172926 0.00120081 0)
(0.172757 0.00119094 0)
(0.171655 0.00116123 0)
(0.171539 0.00115402 0)
(0.170377 0.00112701 0)
(0.170318 0.00112335 0)
(0.169091 0.00110022 0)
(0.197109 0.00626931 0)
(0.197273 0.00694247 0)
(0.197559 0.00756739 0)
(0.197976 0.00808819 0)
(0.198511 0.00844781 0)
(0.199108 0.00861657 0)
(0.199706 0.00860405 0)
(0.200235 0.00844746 0)
(0.200662 0.0081927 0)
(0.200966 0.00788042 0)
(0.201162 0.00754326 0)
(0.201259 0.00720495 0)
(0.201289 0.00688255 0)
(0.201265 0.0065849 0)
(0.201218 0.00631481 0)
(0.201154 0.0060693 0)
(0.201095 0.00584466 0)
(0.201034 0.00563611 0)
(0.200984 0.00544128 0)
(0.200929 0.00525749 0)
(0.200885 0.00508444 0)
(0.200832 0.00492058 0)
(0.200789 0.00476636 0)
(0.200735 0.00462031 0)
(0.200692 0.00448307 0)
(0.200637 0.00435305 0)
(0.200595 0.00423109 0)
(0.200539 0.00411544 0)
(0.200498 0.0040072 0)
(0.200441 0.00390442 0)
(0.200402 0.0038084 0)
(0.200343 0.00371697 0)
(0.200304 0.00363165 0)
(0.200242 0.00355003 0)
(0.200202 0.00347393 0)
(0.200136 0.00340067 0)
(0.200095 0.00333245 0)
(0.200023 0.00326629 0)
(0.199979 0.0032048 0)
(0.199901 0.00314468 0)
(0.199854 0.00308895 0)
(0.199767 0.00303395 0)
(0.199715 0.00298318 0)
(0.199618 0.00293254 0)
(0.199562 0.00288604 0)
(0.199454 0.00283912 0)
(0.199392 0.00279631 0)
(0.199271 0.00275252 0)
(0.199203 0.00271291 0)
(0.199069 0.00267176 0)
(0.198994 0.00263494 0)
(0.198844 0.002596 0)
(0.198762 0.00256159 0)
(0.198597 0.00252451 0)
(0.198507 0.00249218 0)
(0.198324 0.00245663 0)
(0.198227 0.00242615 0)
(0.198025 0.00239183 0)
(0.197921 0.00236299 0)
(0.197699 0.00232964 0)
(0.197587 0.00230223 0)
(0.197345 0.00226967 0)
(0.197226 0.00224354 0)
(0.196962 0.00221156 0)
(0.196837 0.0021866 0)
(0.19655 0.00215503 0)
(0.196418 0.00213115 0)
(0.196107 0.00209984 0)
(0.195971 0.00207695 0)
(0.195634 0.00204578 0)
(0.195494 0.0020238 0)
(0.195131 0.00199267 0)
(0.194987 0.00197158 0)
(0.194598 0.00194035 0)
(0.194452 0.00192014 0)
(0.194034 0.00188872 0)
(0.193888 0.00186934 0)
(0.193441 0.00183771 0)
(0.193296 0.00181914 0)
(0.192818 0.00178724 0)
(0.192677 0.00176953 0)
(0.192167 0.00173732 0)
(0.19203 0.00172047 0)
(0.191488 0.001688 0)
(0.191359 0.00167206 0)
(0.190782 0.00163938 0)
(0.190662 0.00162445 0)
(0.19005 0.00159171 0)
(0.189942 0.00157787 0)
(0.189293 0.00154527 0)
(0.189199 0.00153274 0)
(0.188512 0.00150057 0)
(0.188434 0.00148963 0)
(0.187708 0.00145836 0)
(0.187647 0.00144936 0)
(0.186881 0.00141963 0)
(0.18684 0.00141324 0)
(0.186031 0.00138602 0)
(0.186012 0.0013831 0)
(0.18516 0.00135897 0)
(0.197704 0.00609746 0)
(0.197837 0.00665736 0)
(0.198056 0.00717639 0)
(0.198364 0.00761894 0)
(0.198757 0.00794826 0)
(0.1992 0.0081388 0)
(0.199657 0.00818674 0)
(0.200075 0.00810847 0)
(0.200428 0.00793432 0)
(0.20069 0.0076962 0)
(0.200871 0.00742327 0)
(0.20097 0.00713702 0)
(0.201014 0.00685386 0)
(0.201009 0.00658299 0)
(0.200985 0.00633002 0)
(0.20094 0.0060947 0)
(0.2009 0.00587626 0)
(0.200852 0.00567117 0)
(0.200816 0.00547838 0)
(0.200774 0.00529525 0)
(0.200743 0.00512225 0)
(0.200702 0.00495757 0)
(0.200673 0.00480239 0)
(0.200631 0.00465489 0)
(0.200603 0.00451641 0)
(0.200562 0.00438482 0)
(0.200537 0.00426165 0)
(0.200497 0.0041445 0)
(0.200475 0.00403516 0)
(0.200437 0.00393096 0)
(0.200419 0.003834 0)
(0.200381 0.0037413 0)
(0.200367 0.00365525 0)
(0.20033 0.00357258 0)
(0.200318 0.00349605 0)
(0.200281 0.00342203 0)
(0.200272 0.00335372 0)
(0.200235 0.00328711 0)
(0.200228 0.00322589 0)
(0.200189 0.00316561 0)
(0.200185 0.00311051 0)
(0.200143 0.00305566 0)
(0.20014 0.00300584 0)
(0.200095 0.00295564 0)
(0.200093 0.0029104 0)
(0.200044 0.00286418 0)
(0.200043 0.00282293 0)
(0.199989 0.00278008 0)
(0.199988 0.00274232 0)
(0.199929 0.00270233 0)
(0.199928 0.0026676 0)
(0.199862 0.00263005 0)
(0.199861 0.00259796 0)
(0.199787 0.00256246 0)
(0.199785 0.00253267 0)
(0.199703 0.00249888 0)
(0.199701 0.00247113 0)
(0.199609 0.00243872 0)
(0.199607 0.00241278 0)
(0.199504 0.00238151 0)
(0.199501 0.00235713 0)
(0.199387 0.0023268 0)
(0.199383 0.0023038 0)
(0.199257 0.00227418 0)
(0.199251 0.00225243 0)
(0.199112 0.00222334 0)
(0.199106 0.00220273 0)
(0.198953 0.002174 0)
(0.198945 0.00215438 0)
(0.198777 0.00212592 0)
(0.198768 0.00210718 0)
(0.198584 0.00207885 0)
(0.198574 0.00206095 0)
(0.198373 0.00203259 0)
(0.198363 0.00201548 0)
(0.198144 0.00198704 0)
(0.198134 0.00197059 0)
(0.197897 0.00194206 0)
(0.197886 0.00192625 0)
(0.197629 0.00189751 0)
(0.197618 0.00188235 0)
(0.197342 0.00185344 0)
(0.197331 0.00183883 0)
(0.197034 0.0018098 0)
(0.197024 0.00179582 0)
(0.196705 0.00176667 0)
(0.196697 0.00175338 0)
(0.196356 0.00172432 0)
(0.196349 0.00171178 0)
(0.195985 0.001683 0)
(0.195979 0.00167146 0)
(0.195593 0.00164323 0)
(0.195589 0.00163297 0)
(0.195179 0.00160582 0)
(0.195177 0.00159726 0)
(0.194744 0.0015718 0)
(0.194743 0.00156561 0)
(0.194286 0.00154275 0)
(0.194286 0.00153972 0)
(0.193805 0.00151994 0)
(0.198276 0.00595656 0)
(0.198376 0.00643219 0)
(0.198534 0.00687226 0)
(0.198749 0.00725216 0)
(0.199023 0.00754818 0)
(0.199333 0.00774068 0)
(0.19966 0.00782262 0)
(0.199966 0.00779915 0)
(0.200236 0.00768817 0)
(0.200445 0.00751172 0)
(0.200598 0.00729379 0)
(0.200688 0.00705322 0)
(0.200736 0.00680604 0)
(0.200744 0.00656148 0)
(0.200735 0.00632683 0)
(0.200708 0.00610356 0)
(0.200682 0.00589325 0)
(0.200648 0.00569355 0)
(0.200623 0.00550467 0)
(0.200592 0.00532407 0)
(0.20057 0.00515278 0)
(0.20054 0.00498879 0)
(0.200519 0.00483382 0)
(0.200488 0.0046858 0)
(0.200469 0.00454666 0)
(0.200438 0.00441396 0)
(0.20042 0.00428977 0)
(0.20039 0.00417126 0)
(0.200375 0.00406075 0)
(0.200347 0.00395509 0)
(0.200335 0.00385689 0)
(0.200308 0.0037627 0)
(0.2003 0.00367545 0)
(0.200274 0.00359135 0)
(0.200268 0.00351372 0)
(0.200243 0.00343842 0)
(0.200241 0.00336918 0)
(0.200216 0.00330147 0)
(0.200216 0.00323952 0)
(0.200192 0.00317835 0)
(0.200195 0.00312271 0)
(0.20017 0.00306718 0)
(0.200175 0.00301701 0)
(0.200149 0.00296633 0)
(0.200157 0.00292093 0)
(0.20013 0.0028744 0)
(0.20014 0.00283316 0)
(0.200111 0.00279019 0)
(0.200123 0.00275259 0)
(0.200093 0.00271266 0)
(0.200106 0.00267822 0)
(0.200073 0.00264092 0)
(0.200089 0.00260923 0)
(0.200053 0.00257416 0)
(0.20007 0.00254489 0)
(0.200031 0.00251169 0)
(0.20005 0.00248458 0)
(0.200007 0.00245295 0)
(0.200027 0.00242771 0)
(0.199981 0.00239742 0)
(0.200002 0.00237381 0)
(0.199951 0.00234464 0)
(0.199974 0.00232248 0)
(0.199918 0.00229422 0)
(0.199941 0.00227336 0)
(0.19988 0.00224581 0)
(0.199905 0.00222611 0)
(0.199838 0.00219915 0)
(0.199863 0.00218043 0)
(0.19979 0.00215396 0)
(0.199816 0.00213612 0)
(0.199737 0.00210997 0)
(0.199763 0.00209297 0)
(0.199676 0.002067 0)
(0.199704 0.00205072 0)
(0.199609 0.00202496 0)
(0.199636 0.00200923 0)
(0.199535 0.0019836 0)
(0.199562 0.00196846 0)
(0.199452 0.00194283 0)
(0.199478 0.0019282 0)
(0.19936 0.00190271 0)
(0.199386 0.00188847 0)
(0.199259 0.00186307 0)
(0.199284 0.00184939 0)
(0.199147 0.00182408 0)
(0.199171 0.00181091 0)
(0.199025 0.00178596 0)
(0.199048 0.00177341 0)
(0.198892 0.00174894 0)
(0.198913 0.00173727 0)
(0.198747 0.00171357 0)
(0.198765 0.00170304 0)
(0.19859 0.00168067 0)
(0.198604 0.00167178 0)
(0.198419 0.00165129 0)
(0.19843 0.00164467 0)
(0.198234 0.00162689 0)
(0.19824 0.00162332 0)
(0.198035 0.00160888 0)
(0.198891 0.00584122 0)
(0.198952 0.00624966 0)
(0.199046 0.00662704 0)
(0.199172 0.00695595 0)
(0.199333 0.00722064 0)
(0.199516 0.0074063 0)
(0.199712 0.00750603 0)
(0.199901 0.00751969 0)
(0.200072 0.0074568 0)
(0.200211 0.00733087 0)
(0.200318 0.00715982 0)
(0.200385 0.00695914 0)
(0.200427 0.00674393 0)
(0.20044 0.00652363 0)
(0.200442 0.00630665 0)
(0.200429 0.00609582 0)
(0.200417 0.00589437 0)
(0.200398 0.00570114 0)
(0.200385 0.00551724 0)
(0.200366 0.0053405 0)
(0.200354 0.00517218 0)
(0.200336 0.00501029 0)
(0.200325 0.00485668 0)
(0.200306 0.00470938 0)
(0.200295 0.00457048 0)
(0.200276 0.00443766 0)
(0.200265 0.00431311 0)
(0.200247 0.00419408 0)
(0.200238 0.0040829 0)
(0.20022 0.0039765 0)
(0.200213 0.00387741 0)
(0.200197 0.00378234 0)
(0.200191 0.00369408 0)
(0.200176 0.00360906 0)
(0.200172 0.00353039 0)
(0.200157 0.00345418 0)
(0.200156 0.00338395 0)
(0.200141 0.00331542 0)
(0.200141 0.00325253 0)
(0.200127 0.00319068 0)
(0.200129 0.00313417 0)
(0.200115 0.00307809 0)
(0.200118 0.00302711 0)
(0.200105 0.00297601 0)
(0.200109 0.00292987 0)
(0.200096 0.00288304 0)
(0.200102 0.00284114 0)
(0.200088 0.00279798 0)
(0.200095 0.00275976 0)
(0.20008 0.00271979 0)
(0.200088 0.00268473 0)
(0.200074 0.00264754 0)
(0.200083 0.00261524 0)
(0.200067 0.0025804 0)
(0.200078 0.00255058 0)
(0.200061 0.0025177 0)
(0.200073 0.00249005 0)
(0.200056 0.00245888 0)
(0.200068 0.00243307 0)
(0.20005 0.00240342 0)
(0.200063 0.00237921 0)
(0.200043 0.00235081 0)
(0.200058 0.00232806 0)
(0.200037 0.00230068 0)
(0.200052 0.00227924 0)
(0.20003 0.00225272 0)
(0.200045 0.00223238 0)
(0.200022 0.00220665 0)
(0.200038 0.00218723 0)
(0.200013 0.00216214 0)
(0.20003 0.0021436 0)
(0.200003 0.00211894 0)
(0.20002 0.00210124 0)
(0.199992 0.00207696 0)
(0.20001 0.00205986 0)
(0.199979 0.00203601 0)
(0.199997 0.00201944 0)
(0.199965 0.00199581 0)
(0.199983 0.00197986 0)
(0.199949 0.00195642 0)
(0.199966 0.00194086 0)
(0.19993 0.00191779 0)
(0.199947 0.00190262 0)
(0.199909 0.0018797 0)
(0.199925 0.00186516 0)
(0.199884 0.00184248 0)
(0.1999 0.0018284 0)
(0.199857 0.00180625 0)
(0.199871 0.00179286 0)
(0.199826 0.00177126 0)
(0.199839 0.00175882 0)
(0.199791 0.00173815 0)
(0.199802 0.00172691 0)
(0.199752 0.00170764 0)
(0.199761 0.00169823 0)
(0.199708 0.00168093 0)
(0.199714 0.00167389 0)
(0.199658 0.00165929 0)
(0.199661 0.00165549 0)
(0.199602 0.00164435 0)
(0.199568 0.00577552 0)
(0.199585 0.00614278 0)
(0.199613 0.00648143 0)
(0.199652 0.00677829 0)
(0.199702 0.00702123 0)
(0.199761 0.00719859 0)
(0.199825 0.007304 0)
(0.199888 0.0073354 0)
(0.199948 0.00729821 0)
(0.199998 0.00720124 0)
(0.200039 0.00705823 0)
(0.200067 0.00688209 0)
(0.200085 0.00668678 0)
(0.200094 0.00648188 0)
(0.200099 0.00627632 0)
(0.200097 0.0060739 0)
(0.200096 0.00587857 0)
(0.200092 0.00569009 0)
(0.200089 0.00550993 0)
(0.200085 0.00533636 0)
(0.200083 0.00517053 0)
(0.200079 0.00501072 0)
(0.200077 0.00485857 0)
(0.200072 0.00471241 0)
(0.200069 0.00457417 0)
(0.200064 0.0044419 0)
(0.200062 0.00431754 0)
(0.200057 0.00419875 0)
(0.200055 0.00408751 0)
(0.20005 0.00398119 0)
(0.200049 0.00388188 0)
(0.200044 0.00378677 0)
(0.200043 0.00369815 0)
(0.200039 0.00361301 0)
(0.200038 0.00353393 0)
(0.200034 0.00345758 0)
(0.200034 0.00338689 0)
(0.20003 0.00331826 0)
(0.200031 0.0032549 0)
(0.200027 0.003193 0)
(0.200028 0.00313601 0)
(0.200024 0.00307994 0)
(0.200026 0.0030285 0)
(0.200022 0.00297745 0)
(0.200024 0.00293087 0)
(0.20002 0.00288414 0)
(0.200023 0.00284179 0)
(0.200019 0.0027988 0)
(0.200022 0.0027601 0)
(0.200017 0.00272038 0)
(0.200021 0.00268483 0)
(0.200016 0.00264795 0)
(0.20002 0.00261516 0)
(0.200016 0.00258066 0)
(0.20002 0.00255034 0)
(0.200015 0.00251785 0)
(0.200019 0.00248968 0)
(0.200015 0.00245899 0)
(0.200019 0.0024326 0)
(0.200014 0.0024035 0)
(0.200019 0.00237869 0)
(0.200014 0.00235088 0)
(0.200019 0.00232753 0)
(0.200014 0.00230077 0)
(0.200019 0.0022787 0)
(0.200013 0.00225289 0)
(0.200018 0.00223185 0)
(0.200013 0.00220691 0)
(0.200018 0.00218676 0)
(0.200012 0.00216249 0)
(0.200018 0.00214324 0)
(0.200012 0.00211943 0)
(0.200017 0.00210097 0)
(0.200011 0.00207765 0)
(0.200017 0.00205972 0)
(0.20001 0.00203688 0)
(0.200016 0.00201952 0)
(0.200009 0.0019969 0)
(0.200015 0.00198014 0)
(0.200008 0.00195782 0)
(0.200013 0.00194138 0)
(0.200006 0.00191947 0)
(0.200011 0.00190352 0)
(0.200004 0.00188173 0)
(0.200009 0.00186639 0)
(0.200001 0.00184497 0)
(0.200006 0.00183007 0)
(0.199998 0.00180918 0)
(0.200002 0.00179506 0)
(0.199994 0.00177476 0)
(0.199998 0.0017616 0)
(0.199989 0.00174231 0)
(0.199993 0.00173044 0)
(0.199983 0.00171254 0)
(0.199986 0.00170259 0)
(0.199977 0.00168672 0)
(0.199978 0.00167923 0)
(0.199968 0.00166607 0)
(0.199969 0.00166191 0)
(0.199958 0.00165235 0)
(0.204161 9.565e-05 0)
(0.195609 -7.80481e-05 0)