/*--------------------------------*- C++ -*----------------------------------*\
| =========                 |                                                 |
| \\      /  F ield         | OpenFOAM: The Open Source CFD Toolbox           |
|  \\    /   O peration     | Version:  2.3.0                                 |
|   \\  /    A nd           | Web:      www.OpenFOAM.org                      |
|    \\/     M anipulation  |                                                 |
\*---------------------------------------------------------------------------*/
FoamFile
{
    version     2.0;
    format      ascii;
    class       surfaceScalarField;
    location    "0.9";
    object      phi;
}
// * * * * * * * * * * * * * * * * * * * * * * * * * * * * * * * * * * * * * //

dimensions      [0 3 -1 0 0 0 0];

internalField   nonuniform List<scalar> 
5764
(
2.00245e-08
5.01077e-09
-2.50352e-08
1.48945e-08
5.13002e-09
1.09258e-08
3.96867e-09
8.23218e-09
2.6936e-09
6.59104e-09
1.64114e-09
5.64069e-09
9.50353e-10
5.07061e-09
5.70072e-10
4.69085e-09
3.79765e-10
4.40176e-09
2.89083e-10
4.15921e-09
2.42557e-10
3.94683e-09
2.12379e-10
3.7589e-09
1.87926e-10
3.59237e-09
1.66535e-10
3.44435e-09
1.4802e-10
3.31196e-09
1.32386e-10
3.19264e-09
1.19322e-10
3.08426e-09
1.08379e-10
2.98517e-09
9.90879e-11
2.89407e-09
9.11017e-11
2.80993e-09
8.41363e-11
2.73191e-09
7.80198e-11
2.65932e-09
7.25901e-11
2.59156e-09
6.77614e-11
2.52814e-09
6.34245e-11
2.46861e-09
5.95317e-11
2.4126e-09
5.60022e-11
2.35979e-09
5.281e-11
2.30991e-09
4.98894e-11
2.26267e-09
4.72359e-11
2.21789e-09
4.47839e-11
2.17533e-09
4.25528e-11
2.13486e-09
4.04719e-11
2.09629e-09
3.85749e-11
2.05949e-09
3.67935e-11
2.02433e-09
3.51666e-11
1.9907e-09
3.36265e-11
1.95847e-09
3.22256e-11
1.92759e-09
3.088e-11
1.89792e-09
2.96704e-11
1.86944e-09
2.84854e-11
1.842e-09
2.74361e-11
1.81562e-09
2.63855e-11
1.79015e-09
2.54715e-11
1.76561e-09
2.45334e-11
1.74188e-09
2.37364e-11
1.71898e-09
2.28909e-11
1.69678e-09
2.22009e-11
1.67536e-09
2.14261e-11
1.65452e-09
2.08357e-11
1.6344e-09
2.01189e-11
1.61479e-09
1.96135e-11
1.59584e-09
1.89473e-11
1.57732e-09
1.85227e-11
1.55943e-09
1.78856e-11
1.54188e-09
1.75516e-11
1.52496e-09
1.69259e-11
1.50828e-09
1.66807e-11
1.49222e-09
1.60603e-11
1.47631e-09
1.59034e-11
1.46104e-09
1.52736e-11
1.44582e-09
1.52166e-11
1.43126e-09
1.45599e-11
1.41664e-09
1.46196e-11
1.40273e-09
1.39119e-11
1.38861e-09
1.41184e-11
1.37529e-09
1.33258e-11
1.36158e-09
1.37089e-11
1.34876e-09
1.2814e-11
1.33535e-09
1.34135e-11
1.32298e-09
1.23662e-11
1.30972e-09
1.32679e-11
1.29772e-09
1.19937e-11
1.28439e-09
1.33273e-11
1.27265e-09
1.17451e-11
1.48694e-11
2.69244e-08
4.90541e-09
-2.6819e-08
2.55752e-08
6.47914e-09
2.35613e-08
5.98263e-09
2.14035e-08
4.85138e-09
1.93767e-08
3.66796e-09
1.76079e-08
2.71913e-09
1.61242e-08
2.05375e-09
1.49062e-08
1.59781e-09
1.39103e-08
1.28496e-09
1.30872e-08
1.0656e-09
1.23933e-08
9.06311e-10
1.17959e-08
7.85378e-10
1.12727e-08
6.89683e-10
1.08089e-08
6.1188e-10
1.03936e-08
5.47667e-10
1.00188e-08
4.94102e-10
9.67819e-09
4.48979e-10
9.36676e-09
4.10519e-10
9.08048e-09
3.77388e-10
8.81609e-09
3.48525e-10
8.57092e-09
3.23188e-10
8.34276e-09
3.00751e-10
8.12973e-09
2.8079e-10
7.93025e-09
2.62901e-10
7.74296e-09
2.4682e-10
7.56669e-09
2.32273e-10
7.40042e-09
2.19083e-10
7.24326e-09
2.07052e-10
7.09442e-09
1.96074e-10
6.95322e-09
1.85982e-10
6.81904e-09
1.76732e-10
6.69134e-09
1.68171e-10
6.56963e-09
1.60291e-10
6.45346e-09
1.52962e-10
6.34244e-09
1.46187e-10
6.23621e-09
1.39858e-10
6.13443e-09
1.33997e-10
6.03683e-09
1.28483e-10
5.94311e-09
1.23387e-10
5.85305e-09
1.18551e-10
5.76639e-09
1.14094e-10
5.68295e-09
1.09828e-10
5.60251e-09
1.05909e-10
5.52492e-09
1.02125e-10
5.44999e-09
9.86657e-11
5.37759e-09
9.52887e-11
5.30756e-09
9.22339e-11
5.23979e-09
8.91909e-11
5.17413e-09
8.64982e-11
5.11051e-09
8.37388e-11
5.04877e-09
8.13542e-11
4.98887e-09
7.88466e-11
4.93066e-09
7.67386e-11
4.87412e-09
7.44255e-11
4.81907e-09
7.25975e-11
4.76557e-09
7.0429e-11
4.71338e-09
6.88635e-11
4.66263e-09
6.68189e-11
4.61303e-09
6.54999e-11
4.56476e-09
6.35461e-11
4.51749e-09
6.24847e-11
4.47146e-09
6.05849e-11
4.42628e-09
5.98046e-11
4.38228e-09
5.79116e-11
4.33893e-09
5.74659e-11
4.29674e-09
5.5515e-11
4.25499e-09
5.546e-11
4.21437e-09
5.34321e-11
4.17395e-09
5.38359e-11
4.13466e-09
5.16604e-11
4.09524e-09
5.26862e-11
4.05696e-09
5.02693e-11
4.01813e-09
5.21606e-11
3.98035e-09
4.95234e-11
5.52025e-11
2.83082e-08
4.27274e-09
-2.76755e-08
2.86202e-08
6.1671e-09
2.83092e-08
6.29367e-09
2.7591e-08
5.56955e-09
2.6629e-08
4.62995e-09
2.5549e-08
3.79912e-09
2.44386e-08
3.16413e-09
2.33504e-08
2.68605e-09
2.23185e-08
2.31685e-09
2.13597e-08
2.02445e-09
2.04772e-08
1.7888e-09
1.96675e-08
1.59506e-09
1.89249e-08
1.43229e-09
1.82434e-08
1.29342e-09
1.7617e-08
1.174e-09
1.70403e-08
1.07086e-09
1.65078e-08
9.8148e-10
1.60147e-08
9.03617e-10
1.55567e-08
8.35391e-10
1.513e-08
7.7521e-10
1.47314e-08
7.21816e-10
1.43579e-08
6.74161e-10
1.40073e-08
6.31428e-10
1.36773e-08
5.92919e-10
1.3366e-08
5.58073e-10
1.30719e-08
5.26423e-10
1.27934e-08
4.97557e-10
1.25293e-08
4.71162e-10
1.22784e-08
4.46934e-10
1.20398e-08
4.24644e-10
1.18124e-08
4.0408e-10
1.15955e-08
3.85066e-10
1.13884e-08
3.67435e-10
1.11903e-08
3.51082e-10
1.10006e-08
3.35835e-10
1.08188e-08
3.21661e-10
1.06444e-08
3.08391e-10
1.04769e-08
2.96015e-10
1.03159e-08
2.84401e-10
1.01609e-08
2.73533e-10
1.00117e-08
2.63307e-10
9.8678e-09
2.53717e-10
9.72905e-09
2.44661e-10
9.59501e-09
2.36163e-10
9.46557e-09
2.28103e-10
9.34032e-09
2.20542e-10
9.21921e-09
2.13347e-10
9.10182e-09
2.06576e-10
8.98818e-09
2.00142e-10
8.87786e-09
1.94058e-10
8.77095e-09
1.88266e-10
8.66699e-09
1.82799e-10
8.56617e-09
1.77568e-10
8.46797e-09
1.72616e-10
8.37265e-09
1.67921e-10
8.27968e-09
1.63398e-10
8.18936e-09
1.59184e-10
8.10113e-09
1.55054e-10
8.01536e-09
1.51268e-10
7.93142e-09
1.47482e-10
7.84979e-09
1.44115e-10
7.76975e-09
1.40626e-10
7.69187e-09
1.37682e-10
7.61535e-09
1.34437e-10
7.54085e-09
1.31966e-10
7.46747e-09
1.28892e-10
7.39599e-09
1.26946e-10
7.32536e-09
1.24058e-10
7.2565e-09
1.22698e-10
7.1882e-09
1.19957e-10
7.12151e-09
1.19378e-10
7.05504e-09
1.16738e-10
6.9899e-09
1.17303e-10
6.92457e-09
1.14851e-10
1.20889e-10
2.91278e-08
3.8633e-09
-2.87183e-08
2.97212e-08
5.57368e-09
3.0007e-08
6.00785e-09
3.00099e-08
5.56667e-09
2.97925e-08
4.84733e-09
2.94115e-08
4.18014e-09
2.89156e-08
3.66002e-09
2.83406e-08
3.26104e-09
2.77174e-08
2.94003e-09
2.70703e-08
2.67163e-09
2.64153e-08
2.44374e-09
2.57627e-08
2.24768e-09
2.51192e-08
2.07581e-09
2.44899e-08
1.9227e-09
2.38788e-08
1.78506e-09
2.32887e-08
1.66096e-09
2.27213e-08
1.54895e-09
2.21771e-08
1.44772e-09
2.16565e-08
1.35602e-09
2.1159e-08
1.27276e-09
2.06839e-08
1.19692e-09
2.02303e-08
1.12771e-09
1.97974e-08
1.06436e-09
1.9384e-08
1.0063e-09
1.89892e-08
9.52906e-10
1.86118e-08
9.0379e-10
1.8251e-08
8.58394e-10
1.79056e-08
8.16492e-10
1.7575e-08
7.77586e-10
1.72581e-08
7.41553e-10
1.69542e-08
7.07957e-10
1.66625e-08
6.76761e-10
1.63824e-08
6.47537e-10
1.61131e-08
6.20374e-10
1.58542e-08
5.94786e-10
1.56048e-08
5.71004e-10
1.53647e-08
5.48484e-10
1.51332e-08
5.27548e-10
1.491e-08
5.07634e-10
1.46944e-08
4.89127e-10
1.44862e-08
4.71422e-10
1.4285e-08
4.55008e-10
1.40904e-08
4.39184e-10
1.3902e-08
4.24586e-10
1.37197e-08
4.10371e-10
1.35429e-08
3.97356e-10
1.33717e-08
3.84539e-10
1.32054e-08
3.72889e-10
1.30443e-08
3.61295e-10
1.28875e-08
3.50852e-10
1.27355e-08
3.40288e-10
1.25873e-08
3.30947e-10
1.24436e-08
3.21271e-10
1.23033e-08
3.12884e-10
1.21672e-08
3.0403e-10
1.20341e-08
2.96478e-10
1.1905e-08
2.88337e-10
1.17785e-08
2.81575e-10
1.16557e-08
2.74042e-10
1.15352e-08
2.68012e-10
1.14182e-08
2.61037e-10
1.13032e-08
2.55692e-10
1.11916e-08
2.49243e-10
1.10815e-08
2.44537e-10
1.09748e-08
2.38639e-10
1.08692e-08
2.34513e-10
1.0767e-08
2.29189e-10
1.06653e-08
2.25713e-10
1.0567e-08
2.20999e-10
1.04688e-08
2.18182e-10
1.03739e-08
2.14311e-10
1.02785e-08
2.12132e-10
1.01861e-08
2.09705e-10
1.00928e-08
2.08142e-10
2.12537e-10
3.00302e-08
3.62074e-09
-2.97876e-08
3.05685e-08
5.03536e-09
3.09673e-08
5.6091e-09
3.11776e-08
5.35631e-09
3.12442e-08
4.7808e-09
3.12021e-08
4.22222e-09
3.10727e-08
3.78939e-09
3.08704e-08
3.46334e-09
3.06091e-08
3.20133e-09
3.03022e-08
2.97851e-09
2.99603e-08
2.78564e-09
2.95905e-08
2.61753e-09
2.91978e-08
2.4685e-09
2.87869e-08
2.33358e-09
2.83625e-08
2.20948e-09
2.79289e-08
2.09458e-09
2.749e-08
1.98782e-09
2.70492e-08
1.88855e-09
2.66092e-08
1.79596e-09
2.61725e-08
1.70953e-09
2.57408e-08
1.62858e-09
2.53157e-08
1.55282e-09
2.48984e-08
1.48166e-09
2.44897e-08
1.41497e-09
2.40904e-08
1.35221e-09
2.37008e-08
1.29338e-09
2.33213e-08
1.23788e-09
2.2952e-08
1.18587e-09
2.25929e-08
1.13668e-09
2.22438e-08
1.09058e-09
2.19049e-08
1.04686e-09
2.15758e-08
1.00591e-09
2.12564e-08
9.66943e-10
2.09462e-08
9.30506e-10
2.06454e-08
8.95651e-10
2.03532e-08
8.63161e-10
2.00698e-08
8.31912e-10
1.97945e-08
8.0287e-10
1.95273e-08
7.74772e-10
1.92677e-08
7.48767e-10
1.90157e-08
7.23409e-10
1.87706e-08
7.00097e-10
1.85327e-08
6.7712e-10
1.83011e-08
6.56206e-10
1.80761e-08
6.35299e-10
1.7857e-08
6.16526e-10
1.76441e-08
5.97435e-10
1.74364e-08
5.80556e-10
1.72346e-08
5.63063e-10
1.70376e-08
5.47898e-10
1.68461e-08
5.31754e-10
1.66589e-08
5.18186e-10
1.6477e-08
5.032e-10
1.62988e-08
4.91055e-10
1.61257e-08
4.77126e-10
1.59559e-08
4.66271e-10
1.5791e-08
4.53234e-10
1.56289e-08
4.43632e-10
1.54717e-08
4.31327e-10
1.53167e-08
4.2292e-10
1.51665e-08
4.11259e-10
1.50182e-08
4.04015e-10
1.48745e-08
3.92912e-10
1.47323e-08
3.86813e-10
1.45946e-08
3.76259e-10
1.44579e-08
3.71267e-10
1.43258e-08
3.61258e-10
1.4194e-08
3.57502e-10
1.4067e-08
3.48054e-10
1.39396e-08
3.45578e-10
1.38169e-08
3.37007e-10
1.36933e-08
3.35751e-10
1.3574e-08
3.29009e-10
1.34533e-08
3.28767e-10
3.29703e-10
3.1001e-08
3.46179e-09
-3.08421e-08
3.14452e-08
4.5912e-09
3.18422e-08
5.21207e-09
3.20895e-08
5.10898e-09
3.22239e-08
4.64644e-09
3.22881e-08
4.15806e-09
3.23004e-08
3.77706e-09
3.22677e-08
3.49607e-09
3.21951e-08
3.2739e-09
3.2089e-08
3.08465e-09
3.19548e-08
2.9198e-09
3.17957e-08
2.77661e-09
3.16131e-08
2.65109e-09
3.14081e-08
2.53864e-09
3.11821e-08
2.43545e-09
3.09371e-08
2.33954e-09
3.06754e-08
2.24956e-09
3.0399e-08
2.16498e-09
3.011e-08
2.0849e-09
2.98105e-08
2.00906e-09
2.95024e-08
1.93667e-09
2.91875e-08
1.86777e-09
2.88674e-08
1.80167e-09
2.85438e-08
1.73864e-09
2.8218e-08
1.67797e-09
2.78912e-08
1.62017e-09
2.75647e-08
1.5644e-09
2.72392e-08
1.51137e-09
2.69158e-08
1.4601e-09
2.65949e-08
1.41146e-09
2.62774e-08
1.36433e-09
2.59636e-08
1.31976e-09
2.56541e-08
1.27642e-09
2.5349e-08
1.23563e-09
2.50489e-08
1.19576e-09
2.47535e-08
1.15848e-09
2.44636e-08
1.12182e-09
2.41787e-08
1.08778e-09
2.38994e-08
1.05405e-09
2.36252e-08
1.02299e-09
2.33567e-08
9.91912e-10
2.30932e-08
9.63614e-10
2.28354e-08
9.34905e-10
2.25825e-08
9.09169e-10
2.23352e-08
8.82579e-10
2.20925e-08
8.59216e-10
2.18554e-08
8.34525e-10
2.16226e-08
8.13332e-10
2.13953e-08
7.90338e-10
2.11721e-08
7.71172e-10
2.09542e-08
7.49618e-10
2.074e-08
7.32401e-10
2.05311e-08
7.12084e-10
2.03255e-08
6.96657e-10
2.01252e-08
6.77467e-10
1.99277e-08
6.63718e-10
1.97355e-08
6.45453e-10
1.95457e-08
6.3338e-10
1.93612e-08
6.15849e-10
1.91787e-08
6.05414e-10
1.90015e-08
5.88496e-10
1.88258e-08
5.79706e-10
1.86554e-08
5.63272e-10
1.84861e-08
5.5615e-10
1.83222e-08
5.40168e-10
1.81588e-08
5.34699e-10
1.80009e-08
5.19159e-10
1.78428e-08
5.15521e-10
1.76904e-08
5.00452e-10
1.75373e-08
4.98701e-10
1.73898e-08
4.84549e-10
1.7241e-08
4.84544e-10
1.70974e-08
4.72639e-10
1.69521e-08
4.74051e-10
4.70148e-10
3.20116e-08
3.34064e-09
-3.18904e-08
3.23678e-08
4.23497e-09
3.27398e-08
4.84004e-09
3.2992e-08
4.85682e-09
3.31373e-08
4.50107e-09
3.32234e-08
4.07201e-09
3.32749e-08
3.72556e-09
3.32988e-08
3.47212e-09
3.3298e-08
3.27476e-09
3.32762e-08
3.10644e-09
3.32377e-08
2.95823e-09
3.3185e-08
2.82937e-09
3.31183e-08
2.71778e-09
3.3037e-08
2.61993e-09
3.29408e-08
2.53166e-09
3.28296e-08
2.45077e-09
3.27037e-08
2.37537e-09
3.25637e-08
2.30504e-09
3.24101e-08
2.23848e-09
3.22435e-08
2.17566e-09
3.20648e-08
2.11537e-09
3.18747e-08
2.05791e-09
3.16742e-08
2.00215e-09
3.14641e-08
1.94875e-09
3.12456e-08
1.89651e-09
3.10193e-08
1.84645e-09
3.07865e-08
1.79718e-09
3.05478e-08
1.75006e-09
3.03044e-08
1.70348e-09
3.00568e-08
1.65907e-09
2.98061e-08
1.615e-09
2.95527e-08
1.57318e-09
2.92977e-08
1.53144e-09
2.90412e-08
1.49214e-09
2.87843e-08
1.45262e-09
2.8527e-08
1.41579e-09
2.82704e-08
1.37844e-09
2.80142e-08
1.34401e-09
2.77595e-08
1.30875e-09
2.75058e-08
1.27667e-09
2.72543e-08
1.24337e-09
2.70044e-08
1.21358e-09
2.67572e-08
1.18209e-09
2.65118e-08
1.15454e-09
2.62697e-08
1.12473e-09
2.60295e-08
1.09936e-09
2.5793e-08
1.0711e-09
2.55585e-08
1.04781e-09
2.53278e-08
1.02097e-09
2.50993e-08
9.99707e-10
2.48749e-08
9.74057e-10
2.46524e-08
9.54833e-10
2.44343e-08
9.30207e-10
2.42181e-08
9.12923e-10
2.40063e-08
8.89244e-10
2.37962e-08
8.73842e-10
2.35907e-08
8.50901e-10
2.33866e-08
8.37445e-10
2.31874e-08
8.15049e-10
2.29893e-08
8.03546e-10
2.27962e-08
7.81576e-10
2.26038e-08
7.7209e-10
2.24167e-08
7.5039e-10
2.22299e-08
7.43001e-10
2.20485e-08
7.2155e-10
2.18669e-08
7.16258e-10
2.1691e-08
6.95083e-10
2.15144e-08
6.92103e-10
2.13436e-08
6.71278e-10
2.11716e-08
6.70663e-10
2.10054e-08
6.50802e-10
2.08376e-08
6.52336e-10
2.06751e-08
6.35095e-10
2.05108e-08
6.38431e-10
6.29084e-10
3.30507e-08
3.23267e-09
-3.29428e-08
3.33342e-08
3.95148e-09
3.36711e-08
4.50321e-09
3.39218e-08
4.60606e-09
3.40712e-08
4.35169e-09
3.41603e-08
3.98291e-09
3.422e-08
3.66585e-09
3.42598e-08
3.4323e-09
3.42818e-08
3.25276e-09
3.42887e-08
3.0996e-09
3.42846e-08
2.96231e-09
3.42726e-08
2.84136e-09
3.42539e-08
2.7365e-09
3.42279e-08
2.64588e-09
3.41942e-08
2.56536e-09
3.41521e-08
2.49289e-09
3.41015e-08
2.42602e-09
3.40419e-08
2.36464e-09
3.39733e-08
2.30701e-09
3.38955e-08
2.25351e-09
3.38085e-08
2.20238e-09
3.3712e-08
2.15436e-09
3.36065e-08
2.10766e-09
3.34918e-08
2.06349e-09
3.33684e-08
2.0199e-09
3.32363e-08
1.97857e-09
3.30962e-08
1.93726e-09
3.29481e-08
1.89815e-09
3.27929e-08
1.85867e-09
3.26306e-08
1.82142e-09
3.24621e-08
1.78348e-09
3.22874e-08
1.74792e-09
3.21075e-08
1.71129e-09
3.19223e-08
1.67732e-09
3.17331e-08
1.64187e-09
3.15394e-08
1.60944e-09
3.13427e-08
1.57515e-09
3.11424e-08
1.54429e-09
3.094e-08
1.51116e-09
3.07348e-08
1.4819e-09
3.05283e-08
1.44986e-09
3.03197e-08
1.42222e-09
3.01105e-08
1.39121e-09
2.98998e-08
1.36524e-09
2.96894e-08
1.33517e-09
2.94778e-08
1.31095e-09
2.92671e-08
1.28179e-09
2.90556e-08
1.25929e-09
2.88456e-08
1.23099e-09
2.86351e-08
1.21024e-09
2.84265e-08
1.18261e-09
2.82176e-08
1.16374e-09
2.80112e-08
1.13666e-09
2.78045e-08
1.11963e-09
2.76006e-08
1.09308e-09
2.73965e-08
1.07792e-09
2.71957e-08
1.0517e-09
2.69946e-08
1.03854e-09
2.67972e-08
1.01249e-09
2.65993e-08
1.0014e-09
2.64055e-08
9.75432e-10
2.6211e-08
9.66538e-10
2.60209e-08
9.40497e-10
2.583e-08
9.33939e-10
2.56437e-08
9.07848e-10
2.54563e-08
9.03621e-10
2.52738e-08
8.77606e-10
2.509e-08
8.75956e-10
2.49111e-08
8.50149e-10
2.47306e-08
8.51121e-10
2.45551e-08
8.26327e-10
2.43778e-08
8.29664e-10
2.42051e-08
8.07785e-10
2.40303e-08
8.13204e-10
7.98841e-10
3.41128e-08
3.12797e-09
-3.40081e-08
3.43423e-08
3.72199e-09
3.4639e-08
4.20647e-09
3.48828e-08
4.36225e-09
3.50366e-08
4.19791e-09
3.51273e-08
3.89219e-09
3.51886e-08
3.60458e-09
3.52332e-08
3.38771e-09
3.52633e-08
3.2227e-09
3.52801e-08
3.08278e-09
3.52873e-08
2.95505e-09
3.52885e-08
2.84018e-09
3.52859e-08
2.73916e-09
3.52796e-08
2.65215e-09
3.52697e-08
2.57527e-09
3.52556e-08
2.507e-09
3.52374e-08
2.44423e-09
3.52146e-08
2.38741e-09
3.51874e-08
2.33424e-09
3.51551e-08
2.28581e-09
3.51178e-08
2.23969e-09
3.50748e-08
2.19731e-09
3.50263e-08
2.15612e-09
3.49717e-08
2.11809e-09
3.49113e-08
2.08034e-09
3.48444e-08
2.04548e-09
3.47715e-08
2.01016e-09
3.4692e-08
1.97766e-09
3.46065e-08
1.94417e-09
3.45144e-08
1.9135e-09
3.44165e-08
1.88138e-09
3.43121e-08
1.85226e-09
3.42023e-08
1.82112e-09
3.40863e-08
1.79334e-09
3.39652e-08
1.76292e-09
3.38384e-08
1.73631e-09
3.3707e-08
1.70651e-09
3.35703e-08
1.68103e-09
3.34296e-08
1.65181e-09
3.3284e-08
1.6275e-09
3.31351e-08
1.59876e-09
3.29818e-08
1.5756e-09
3.28257e-08
1.54724e-09
3.26657e-08
1.52529e-09
3.25036e-08
1.49722e-09
3.2338e-08
1.47662e-09
3.21709e-08
1.44883e-09
3.20006e-08
1.42956e-09
3.18296e-08
1.40204e-09
3.16557e-08
1.38419e-09
3.14815e-08
1.35674e-09
3.13048e-08
1.3405e-09
3.11284e-08
1.31301e-09
3.09497e-08
1.29838e-09
3.07718e-08
1.27093e-09
3.05917e-08
1.25799e-09
3.04131e-08
1.23036e-09
3.02323e-08
1.21933e-09
3.00534e-08
1.19138e-09
2.98725e-08
1.18231e-09
2.96939e-08
1.15405e-09
2.95133e-08
1.14716e-09
2.93353e-08
1.11841e-09
2.91554e-08
1.11388e-09
2.89785e-08
1.08476e-09
2.87996e-08
1.08252e-09
2.86239e-08
1.05329e-09
2.84462e-08
1.05364e-09
2.82719e-08
1.0245e-09
2.80955e-08
1.02746e-09
2.79225e-08
9.99386e-10
2.77474e-08
1.00469e-09
2.75755e-08
9.7978e-10
2.74014e-08
9.87271e-10
9.69377e-10
3.5196e-08
3.02493e-09
-3.50929e-08
3.53881e-08
3.52989e-09
3.56454e-08
3.94919e-09
3.58766e-08
4.13103e-09
3.60335e-08
4.04099e-09
3.61274e-08
3.79828e-09
3.61895e-08
3.54245e-09
3.62361e-08
3.34117e-09
3.62702e-08
3.18851e-09
3.62922e-08
3.06082e-09
3.63045e-08
2.94279e-09
3.63104e-08
2.83428e-09
3.63128e-08
2.7367e-09
3.63127e-08
2.65226e-09
3.63105e-08
2.57748e-09
3.63059e-08
2.51165e-09
3.62991e-08
2.45095e-09
3.62901e-08
2.39648e-09
3.6279e-08
2.34527e-09
3.62656e-08
2.29929e-09
3.62499e-08
2.25534e-09
3.62314e-08
2.2158e-09
3.62104e-08
2.17715e-09
3.6186e-08
2.14242e-09
3.61588e-08
2.1076e-09
3.61278e-08
2.0765e-09
3.60934e-08
2.04448e-09
3.6055e-08
2.01615e-09
3.60129e-08
1.98626e-09
3.59663e-08
1.96012e-09
3.59158e-08
1.93181e-09
3.58606e-08
1.90752e-09
3.58014e-08
1.88034e-09
3.57371e-08
1.85759e-09
3.56689e-08
1.83116e-09
3.55955e-08
1.80967e-09
3.55182e-08
1.78379e-09
3.54358e-08
1.76344e-09
3.53497e-08
1.73798e-09
3.52584e-08
1.71877e-09
3.51636e-08
1.69357e-09
3.50638e-08
1.67542e-09
3.49607e-08
1.6503e-09
3.48528e-08
1.63321e-09
3.4742e-08
1.608e-09
3.46266e-08
1.59207e-09
3.45086e-08
1.56677e-09
3.43862e-08
1.55195e-09
3.42617e-08
1.52654e-09
3.4133e-08
1.51294e-09
3.40026e-08
1.48711e-09
3.38682e-08
1.47496e-09
3.37325e-08
1.44864e-09
3.35931e-08
1.43783e-09
3.34529e-08
1.41115e-09
3.3309e-08
1.40185e-09
3.31648e-08
1.37455e-09
3.30171e-08
1.36699e-09
3.28696e-08
1.33897e-09
3.27187e-08
1.33313e-09
3.25683e-08
1.30445e-09
3.24149e-08
1.30064e-09
3.22621e-08
1.27113e-09
3.21065e-08
1.26954e-09
3.19518e-08
1.23942e-09
3.17945e-08
1.23981e-09
3.16383e-08
1.2095e-09
3.14797e-08
1.21229e-09
3.13222e-08
1.18202e-09
3.11625e-08
1.18714e-09
3.10038e-08
1.15806e-09
3.08432e-08
1.16529e-09
3.06834e-08
1.13959e-09
3.05217e-08
1.14894e-09
1.12976e-09
3.63015e-08
2.92504e-09
-3.62016e-08
3.64679e-08
3.36349e-09
3.66901e-08
3.72697e-09
3.69046e-08
3.91652e-09
3.7062e-08
3.88361e-09
3.716e-08
3.70027e-09
3.72236e-08
3.47885e-09
3.72712e-08
3.29358e-09
3.73081e-08
3.15166e-09
3.73338e-08
3.03507e-09
3.73497e-08
2.92685e-09
3.73585e-08
2.82551e-09
3.73633e-08
2.7319e-09
3.73655e-08
2.65011e-09
3.73659e-08
2.57709e-09
3.73643e-08
2.51323e-09
3.73613e-08
2.45396e-09
3.73566e-08
2.40111e-09
3.7351e-08
2.3509e-09
3.7344e-08
2.30628e-09
3.73362e-08
2.26317e-09
3.73269e-08
2.22505e-09
3.73168e-08
2.18731e-09
3.7305e-08
2.15422e-09
3.72921e-08
2.12048e-09
3.72773e-08
2.0913e-09
3.72612e-08
2.0606e-09
3.72428e-08
2.03449e-09
3.72229e-08
2.00619e-09
3.72004e-08
1.98262e-09
3.71761e-08
1.95615e-09
3.71488e-08
1.93479e-09
3.71194e-08
1.90968e-09
3.70868e-08
1.89021e-09
3.70519e-08
1.86608e-09
3.70134e-08
1.84815e-09
3.69725e-08
1.82474e-09
3.69277e-08
1.8082e-09
3.68804e-08
1.78529e-09
3.6829e-08
1.77011e-09
3.67751e-08
1.74755e-09
3.67169e-08
1.73358e-09
3.66561e-08
1.71111e-09
3.6591e-08
1.69832e-09
3.65233e-08
1.67566e-09
3.64513e-08
1.66408e-09
3.63768e-08
1.64127e-09
3.6298e-08
1.63078e-09
3.62168e-08
1.60773e-09
3.61312e-08
1.59849e-09
3.60435e-08
1.57478e-09
3.59515e-08
1.56695e-09
3.58576e-08
1.54259e-09
3.57595e-08
1.5359e-09
3.56597e-08
1.511e-09
3.55558e-08
1.50574e-09
3.54504e-08
1.47995e-09
3.53411e-08
1.47631e-09
3.52304e-08
1.44964e-09
3.51161e-08
1.4474e-09
3.50006e-08
1.41993e-09
3.48818e-08
1.41953e-09
3.47619e-08
1.39102e-09
3.46388e-08
1.39265e-09
3.45146e-08
1.36353e-09
3.43878e-08
1.36661e-09
3.426e-08
1.33735e-09
3.41297e-08
1.34257e-09
3.39983e-08
1.31347e-09
3.38648e-08
1.32057e-09
3.37301e-08
1.29284e-09
3.35937e-08
1.30167e-09
3.34557e-08
1.27756e-09
3.33163e-08
1.28837e-09
1.27034e-09
3.74316e-08
2.82999e-09
-3.73365e-08
3.75794e-08
3.21573e-09
3.77724e-08
3.53395e-09
3.79682e-08
3.72064e-09
3.81229e-08
3.729e-09
3.82247e-08
3.5984e-09
3.82906e-08
3.41294e-09
3.83391e-08
3.24509e-09
3.83778e-08
3.11302e-09
3.84065e-08
3.00629e-09
3.84258e-08
2.90759e-09
3.84372e-08
2.81409e-09
3.84439e-08
2.72521e-09
3.84475e-08
2.64652e-09
3.84492e-08
2.57534e-09
3.8449e-08
2.51345e-09
3.84475e-08
2.45551e-09
3.84444e-08
2.40419e-09
3.84405e-08
2.35475e-09
3.84356e-08
2.3112e-09
3.84303e-08
2.26851e-09
3.84241e-08
2.23129e-09
3.84176e-08
2.19381e-09
3.84102e-08
2.16163e-09
3.84025e-08
2.12814e-09
3.83939e-08
2.09994e-09
3.83849e-08
2.06955e-09
3.83748e-08
2.04455e-09
3.83644e-08
2.01667e-09
3.83526e-08
1.99441e-09
3.83402e-08
1.96848e-09
3.83263e-08
1.9487e-09
3.83117e-08
1.92428e-09
3.82953e-08
1.90666e-09
3.82779e-08
1.88345e-09
3.82585e-08
1.8676e-09
3.82379e-08
1.84529e-09
3.8215e-08
1.83111e-09
3.81908e-08
1.80947e-09
3.8164e-08
1.7969e-09
3.81358e-08
1.77579e-09
3.81047e-08
1.76469e-09
3.8072e-08
1.74381e-09
3.80362e-08
1.73412e-09
3.79987e-08
1.71317e-09
3.79579e-08
1.70481e-09
3.79153e-08
1.68387e-09
3.78694e-08
1.6767e-09
3.78216e-08
1.65558e-09
3.77702e-08
1.64986e-09
3.77169e-08
1.62806e-09
3.76601e-08
1.62379e-09
3.76012e-08
1.60147e-09
3.75389e-08
1.59822e-09
3.74745e-08
1.5754e-09
3.74066e-08
1.57363e-09
3.73367e-08
1.54985e-09
3.72634e-08
1.54963e-09
3.71879e-08
1.52514e-09
3.71093e-08
1.526e-09
3.70284e-08
1.50077e-09
3.69446e-08
1.50333e-09
3.68586e-08
1.47705e-09
3.67698e-08
1.48142e-09
3.66785e-08
1.45486e-09
3.6585e-08
1.4601e-09
3.64888e-08
1.43352e-09
3.63908e-08
1.44064e-09
3.62897e-08
1.41457e-09
3.61871e-08
1.42311e-09
3.60813e-08
1.39866e-09
3.59745e-08
1.40849e-09
3.58642e-08
1.38788e-09
3.57529e-08
1.39966e-09
1.38478e-09
3.85887e-08
2.74067e-09
-3.84993e-08
3.87217e-08
3.08266e-09
3.88911e-08
3.36457e-09
3.90684e-08
3.54339e-09
3.92173e-08
3.58003e-09
3.93218e-08
3.49392e-09
3.93906e-08
3.34417e-09
3.94402e-08
3.19551e-09
3.948e-08
3.07321e-09
3.95111e-08
2.97519e-09
3.95333e-08
2.88537e-09
3.95474e-08
2.80001e-09
3.9556e-08
2.71657e-09
3.9561e-08
2.64154e-09
3.95639e-08
2.57246e-09
3.95647e-08
2.51262e-09
3.95641e-08
2.4561e-09
3.95619e-08
2.40638e-09
3.95589e-08
2.3578e-09
3.95548e-08
2.31529e-09
3.95503e-08
2.27297e-09
3.95451e-08
2.23652e-09
3.95397e-08
2.19916e-09
3.95337e-08
2.16764e-09
3.95277e-08
2.13414e-09
3.95211e-08
2.10654e-09
3.95146e-08
2.0761e-09
3.95075e-08
2.05167e-09
3.95004e-08
2.02374e-09
3.94927e-08
2.00216e-09
3.9485e-08
1.97616e-09
3.94765e-08
1.95717e-09
3.9468e-08
1.93276e-09
3.94586e-08
1.91604e-09
3.94491e-08
1.89298e-09
3.94385e-08
1.87818e-09
3.94277e-08
1.85615e-09
3.94156e-08
1.8432e-09
3.94031e-08
1.82196e-09
3.93892e-08
1.81081e-09
3.93747e-08
1.79028e-09
3.93586e-08
1.78078e-09
3.93418e-08
1.76065e-09
3.93231e-08
1.75277e-09
3.93036e-08
1.73275e-09
3.92821e-08
1.72628e-09
3.92594e-08
1.70655e-09
3.92347e-08
1.70139e-09
3.92087e-08
1.68157e-09
3.91804e-08
1.67815e-09
3.91507e-08
1.65778e-09
3.91187e-08
1.65579e-09
3.90849e-08
1.6353e-09
3.90489e-08
1.63424e-09
3.90109e-08
1.61335e-09
3.89706e-08
1.61395e-09
3.89282e-08
1.59223e-09
3.88836e-08
1.59426e-09
3.88364e-08
1.5723e-09
3.87873e-08
1.57512e-09
3.87355e-08
1.55257e-09
3.86817e-08
1.55711e-09
3.86251e-08
1.53365e-09
3.85669e-08
1.53969e-09
3.85051e-08
1.51664e-09
3.84421e-08
1.52307e-09
3.83755e-08
1.50008e-09
3.8308e-08
1.50822e-09
3.82363e-08
1.48626e-09
3.81639e-08
1.49547e-09
3.80871e-08
1.47543e-09
3.80101e-08
1.48558e-09
3.79284e-08
1.46952e-09
3.78463e-08
1.48175e-09
1.47117e-09
3.97748e-08
2.65718e-09
-3.96913e-08
3.98954e-08
2.96201e-09
4.00457e-08
3.21433e-09
4.02055e-08
3.38355e-09
4.03468e-08
3.43877e-09
4.04521e-08
3.38864e-09
4.05237e-08
3.27249e-09
4.05748e-08
3.14446e-09
4.06155e-08
3.03253e-09
4.06482e-08
2.94242e-09
4.0673e-08
2.86064e-09
4.06896e-08
2.78335e-09
4.07003e-08
2.70589e-09
4.07068e-08
2.63508e-09
4.07108e-08
2.56845e-09
4.07126e-08
2.51079e-09
4.07129e-08
2.45581e-09
4.07115e-08
2.40777e-09
4.07091e-08
2.36019e-09
4.07056e-08
2.31881e-09
4.07016e-08
2.27695e-09
4.06969e-08
2.24127e-09
4.0692e-08
2.20406e-09
4.06865e-08
2.17311e-09
4.0681e-08
2.13962e-09
4.06751e-08
2.11244e-09
4.06693e-08
2.08193e-09
4.06631e-08
2.05784e-09
4.06571e-08
2.02976e-09
4.06507e-08
2.00853e-09
4.06446e-08
1.9823e-09
4.06381e-08
1.96371e-09
4.06317e-08
1.93908e-09
4.0625e-08
1.92274e-09
4.06185e-08
1.89957e-09
4.06115e-08
1.88517e-09
4.06045e-08
1.86309e-09
4.05971e-08
1.85065e-09
4.05896e-08
1.82942e-09
4.05816e-08
1.81886e-09
4.05734e-08
1.79847e-09
4.05645e-08
1.78965e-09
4.05554e-08
1.7698e-09
4.05454e-08
1.76271e-09
4.0535e-08
1.74319e-09
4.05238e-08
1.73748e-09
4.05118e-08
1.71851e-09
4.0499e-08
1.71423e-09
4.04853e-08
1.69523e-09
4.04705e-08
1.69292e-09
4.04547e-08
1.6736e-09
4.04379e-08
1.67257e-09
4.04196e-08
1.65366e-09
4.04003e-08
1.6535e-09
4.03794e-08
1.63424e-09
4.03574e-08
1.636e-09
4.03335e-08
1.61614e-09
4.03086e-08
1.61908e-09
4.02813e-08
1.59965e-09
4.02533e-08
1.60315e-09
4.02225e-08
1.58328e-09
4.0191e-08
1.58864e-09
4.01566e-08
1.56811e-09
4.01217e-08
1.57457e-09
4.0083e-08
1.55531e-09
4.00442e-08
1.56193e-09
4.00015e-08
1.5427e-09
3.99589e-08
1.55089e-09
3.99118e-08
1.53332e-09
3.98648e-08
1.54242e-09
3.98132e-08
1.52707e-09
3.97619e-08
1.53692e-09
3.97059e-08
1.52551e-09
3.96499e-08
1.53778e-09
1.5317e-09
4.09915e-08
2.5792e-09
-4.09136e-08
4.11013e-08
2.85223e-09
4.12358e-08
3.07982e-09
4.13801e-08
3.23931e-09
4.15125e-08
3.30635e-09
4.16167e-08
3.28443e-09
4.16908e-08
3.19841e-09
4.17436e-08
3.09165e-09
4.17851e-08
2.99105e-09
4.1819e-08
2.9085e-09
4.18457e-08
2.83395e-09
4.18647e-08
2.76432e-09
4.18774e-08
2.69317e-09
4.18855e-08
2.62704e-09
4.18906e-08
2.56331e-09
4.18934e-08
2.50796e-09
4.18946e-08
2.45465e-09
4.1894e-08
2.40833e-09
4.18923e-08
2.36194e-09
4.18894e-08
2.32173e-09
4.18858e-08
2.2805e-09
4.18815e-08
2.24558e-09
4.18769e-08
2.20865e-09
4.18718e-08
2.17822e-09
4.18666e-08
2.14485e-09
4.1861e-08
2.11799e-09
4.18554e-08
2.08752e-09
4.18496e-08
2.06363e-09
4.18439e-08
2.03546e-09
4.1838e-08
2.01443e-09
4.18323e-08
1.98801e-09
4.18264e-08
1.96957e-09
4.18207e-08
1.94477e-09
4.1815e-08
1.92848e-09
4.18093e-08
1.90522e-09
4.18037e-08
1.89084e-09
4.17981e-08
1.8687e-09
4.17924e-08
1.85632e-09
4.17868e-08
1.83506e-09
4.17811e-08
1.82455e-09
4.17753e-08
1.80422e-09
4.17695e-08
1.79548e-09
4.17635e-08
1.77576e-09
4.17575e-08
1.76876e-09
4.1751e-08
1.74962e-09
4.17447e-08
1.74387e-09
4.17377e-08
1.7255e-09
4.17306e-08
1.72129e-09
4.1723e-08
1.70284e-09
4.17152e-08
1.70076e-09
4.17064e-08
1.68232e-09
4.16978e-08
1.68119e-09
4.16878e-08
1.66368e-09
4.16779e-08
1.66343e-09
4.16666e-08
1.64551e-09
4.16552e-08
1.64742e-09
4.16421e-08
1.62923e-09
4.16293e-08
1.63191e-09
4.16141e-08
1.61487e-09
4.15992e-08
1.61801e-09
4.1582e-08
1.60051e-09
4.15648e-08
1.60575e-09
4.1545e-08
1.58796e-09
4.15258e-08
1.59374e-09
4.15031e-08
1.57806e-09
4.14809e-08
1.58409e-09
4.14554e-08
1.56827e-09
4.14305e-08
1.57576e-09
4.14016e-08
1.56223e-09
4.13734e-08
1.57063e-09
4.13409e-08
1.55952e-09
4.13091e-08
1.56872e-09
4.12733e-08
1.56136e-09
4.12376e-08
1.57339e-09
1.57128e-09
4.22404e-08
2.50631e-09
-4.21675e-08
4.23406e-08
2.75207e-09
4.24618e-08
2.95859e-09
4.25923e-08
3.10882e-09
4.27155e-08
3.18313e-09
4.28171e-08
3.18284e-09
4.28926e-08
3.12288e-09
4.29473e-08
3.037e-09
4.29896e-08
2.94869e-09
4.30244e-08
2.87376e-09
4.30525e-08
2.80581e-09
4.30736e-08
2.74325e-09
4.30883e-08
2.67848e-09
4.30979e-08
2.61739e-09
4.31042e-08
2.55699e-09
4.31081e-08
2.50411e-09
4.31101e-08
2.45265e-09
4.31104e-08
2.40806e-09
4.31093e-08
2.36302e-09
4.3107e-08
2.32403e-09
4.31039e-08
2.28359e-09
4.31e-08
2.24945e-09
4.30957e-08
2.21295e-09
4.3091e-08
2.18298e-09
4.30859e-08
2.14988e-09
4.30807e-08
2.12326e-09
4.30752e-08
2.09297e-09
4.30697e-08
2.06918e-09
4.30641e-08
2.04103e-09
4.30584e-08
2.02009e-09
4.30528e-08
1.9936e-09
4.30473e-08
1.97516e-09
4.30417e-08
1.95032e-09
4.30363e-08
1.93386e-09
4.30309e-08
1.91064e-09
4.30257e-08
1.89605e-09
4.30205e-08
1.87393e-09
4.30155e-08
1.86135e-09
4.30104e-08
1.84013e-09
4.30055e-08
1.82938e-09
4.30006e-08
1.80915e-09
4.2996e-08
1.80014e-09
4.29911e-08
1.78061e-09
4.29866e-08
1.77325e-09
4.29817e-08
1.75455e-09
4.29773e-08
1.74826e-09
4.29723e-08
1.73047e-09
4.29678e-08
1.72586e-09
4.29627e-08
1.70787e-09
4.2958e-08
1.70545e-09
4.29525e-08
1.68787e-09
4.29478e-08
1.68593e-09
4.29417e-08
1.66974e-09
4.29363e-08
1.66881e-09
4.29298e-08
1.65198e-09
4.29239e-08
1.65341e-09
4.29163e-08
1.63674e-09
4.29099e-08
1.63836e-09
4.29013e-08
1.6235e-09
4.28936e-08
1.62565e-09
4.2884e-08
1.6101e-09
4.28752e-08
1.61462e-09
4.28639e-08
1.59925e-09
4.2854e-08
1.60364e-09
4.2841e-08
1.59103e-09
4.2829e-08
1.59608e-09
4.28142e-08
1.58304e-09
4.28006e-08
1.58941e-09
4.27836e-08
1.57922e-09
4.27676e-08
1.58663e-09
4.27482e-08
1.57895e-09
4.27295e-08
1.5874e-09
4.27077e-08
1.58314e-09
4.26863e-08
1.59483e-09
1.59577e-09
4.35227e-08
2.43809e-09
-4.34544e-08
4.36143e-08
2.66044e-09
4.37241e-08
2.84879e-09
4.38426e-08
2.99037e-09
4.39567e-08
3.06894e-09
4.40546e-08
3.08504e-09
4.41305e-08
3.04697e-09
4.41867e-08
2.98074e-09
4.423e-08
2.90537e-09
4.42654e-08
2.83836e-09
4.42946e-08
2.77665e-09
4.43173e-08
2.72052e-09
4.43338e-08
2.66198e-09
4.43451e-08
2.60612e-09
4.43526e-08
2.54947e-09
4.43575e-08
2.49927e-09
4.43603e-08
2.44983e-09
4.43614e-08
2.40697e-09
4.4361e-08
2.36342e-09
4.43593e-08
2.32569e-09
4.43567e-08
2.28621e-09
4.43533e-08
2.25285e-09
4.43493e-08
2.21692e-09