/*--------------------------------*- C++ -*----------------------------------*\
| =========                 |                                                 |
| \\      /  F ield         | OpenFOAM: The Open Source CFD Toolbox           |
|  \\    /   O peration     | Version:  2.3.0                                 |
|   \\  /    A nd           | Web:      www.OpenFOAM.org                      |
|    \\/     M anipulation  |                                                 |
\*---------------------------------------------------------------------------*/
FoamFile
{
    version     2.0;
    format      ascii;
    class       volVectorField;
    location    "1";
    object      U;
}
// * * * * * * * * * * * * * * * * * * * * * * * * * * * * * * * * * * * * * //

dimensions      [0 1 -1 0 0 0 0];

internalField   nonuniform List<vector> 
8750
(
(0.171303 0.0059542 0)
(0.154856 0.00602827 0)
(0.139043 0.00561183 0)
(0.12405 0.0050148 0)
(0.110291 0.00435482 0)
(0.0979342 0.00368526 0)
(0.0869919 0.0030429 0)
(0.0774302 0.00245315 0)
(0.0691932 0.00193149 0)
(0.0621963 0.00148575 0)
(0.056326 0.00111763 0)
(0.0514496 0.00082366 0)
(0.0474265 0.000596466 0)
(0.0441177 0.000426345 0)
(0.0413934 0.000302789 0)
(0.0391377 0.000215679 0)
(0.0372519 0.000156038 0)
(0.0356544 0.000116369 0)
(0.0342803 9.07086e-05 0)
(0.0330793 7.45129e-05 0)
(0.0320133 6.44557e-05 0)
(0.0310539 5.82009e-05 0)
(0.0301801 5.4179e-05 0)
(0.0293767 5.13855e-05 0)
(0.0286325 4.92133e-05 0)
(0.0279389 4.73199e-05 0)
(0.0272897 4.55305e-05 0)
(0.0266797 4.37695e-05 0)
(0.026105 4.2016e-05 0)
(0.0255622 4.0275e-05 0)
(0.0250483 3.8562e-05 0)
(0.0245609 3.68934e-05 0)
(0.0240978 3.52833e-05 0)
(0.023657 3.37414e-05 0)
(0.0232367 3.22737e-05 0)
(0.0228353 3.08826e-05 0)
(0.0224515 2.9568e-05 0)
(0.0220839 2.8328e-05 0)
(0.0217313 2.71596e-05 0)
(0.0213928 2.60589e-05 0)
(0.0210673 2.5022e-05 0)
(0.020754 2.40446e-05 0)
(0.0204521 2.31229e-05 0)
(0.0201609 2.22528e-05 0)
(0.0198797 2.14308e-05 0)
(0.019608 2.06535e-05 0)
(0.0193451 1.99176e-05 0)
(0.0190906 1.92205e-05 0)
(0.018844 1.85593e-05 0)
(0.0186048 1.79316e-05 0)
(0.0183728 1.73353e-05 0)
(0.0181475 1.67682e-05 0)
(0.0179285 1.62284e-05 0)
(0.0177156 1.57143e-05 0)
(0.0175085 1.52241e-05 0)
(0.0173068 1.47564e-05 0)
(0.0171104 1.431e-05 0)
(0.0169189 1.38834e-05 0)
(0.0167322 1.34756e-05 0)
(0.0165501 1.30855e-05 0)
(0.0163723 1.2712e-05 0)
(0.0161987 1.23543e-05 0)
(0.0160291 1.20115e-05 0)
(0.0158633 1.16828e-05 0)
(0.0157011 1.13675e-05 0)
(0.0155425 1.10649e-05 0)
(0.0153873 1.07743e-05 0)
(0.0152353 1.04952e-05 0)
(0.0150864 1.0227e-05 0)
(0.0149406 9.96914e-06 0)
(0.0147976 9.72125e-06 0)
(0.0146574 9.48283e-06 0)
(0.0145198 9.25347e-06 0)
(0.0143849 9.03278e-06 0)
(0.0142524 8.82044e-06 0)
(0.0141223 8.61608e-06 0)
(0.0139945 8.41941e-06 0)
(0.013869 8.23016e-06 0)
(0.0137455 8.04808e-06 0)
(0.0136241 7.87291e-06 0)
(0.0135047 7.70444e-06 0)
(0.0133873 7.54249e-06 0)
(0.0132716 7.38693e-06 0)
(0.0131577 7.23757e-06 0)
(0.0130455 7.09428e-06 0)
(0.0129349 6.95701e-06 0)
(0.0128259 6.82573e-06 0)
(0.0127183 6.70041e-06 0)
(0.0126122 6.58112e-06 0)
(0.0125074 6.46808e-06 0)
(0.0124039 6.36162e-06 0)
(0.0123016 6.26243e-06 0)
(0.0122004 6.17185e-06 0)
(0.0121002 6.09256e-06 0)
(0.0120008 6.03007e-06 0)
(0.0119021 5.99738e-06 0)
(0.0118034 6.03284e-06 0)
(0.0117025 6.19914e-06 0)
(0.0116198 5.22775e-06 0)
(0.0113394 3.89407e-05 0)
(0.190146 0.00939873 0)
(0.187816 0.00990696 0)
(0.183874 0.00968231 0)
(0.178681 0.00918475 0)
(0.172739 0.0085526 0)
(0.1664 0.00783204 0)
(0.159888 0.00706096 0)
(0.15337 0.00627422 0)
(0.146981 0.005501 0)
(0.140823 0.00476524 0)
(0.134963 0.00408565 0)
(0.129441 0.00347516 0)
(0.124275 0.00294057 0)
(0.11947 0.00248308 0)
(0.115016 0.00209933 0)
(0.110897 0.00178267 0)
(0.107092 0.0015246 0)
(0.103579 0.00131591 0)
(0.100332 0.00114769 0)
(0.0973266 0.00101184 0)
(0.0945407 0.000901452 0)
(0.0919525 0.000810847 0)
(0.0895422 0.000735538 0)
(0.0872922 0.000672066 0)
(0.0851864 0.000617816 0)
(0.0832108 0.000570836 0)
(0.0813528 0.000529678 0)
(0.0796014 0.000493267 0)
(0.0779468 0.000460795 0)
(0.0763805 0.000431644 0)
(0.0748946 0.000405336 0)
(0.0734825 0.000381488 0)
(0.0721381 0.000359789 0)
(0.0708561 0.000339981 0)
(0.0696316 0.000321843 0)
(0.0684603 0.00030519 0)
(0.0673382 0.000289859 0)
(0.066262 0.000275711 0)
(0.0652285 0.000262623 0)
(0.0642347 0.000250487 0)
(0.063278 0.00023921 0)
(0.0623562 0.000228709 0)
(0.061467 0.00021891 0)
(0.0606084 0.000209751 0)
(0.0597786 0.000201173 0)
(0.058976 0.000193126 0)
(0.058199 0.000185565 0)
(0.0574462 0.000178451 0)
(0.0567163 0.000171746 0)
(0.0560081 0.00016542 0)
(0.0553205 0.000159442 0)
(0.0546524 0.000153787 0)
(0.0540029 0.000148431 0)
(0.053371 0.000143353 0)
(0.052756 0.000138533 0)
(0.052157 0.000133954 0)
(0.0515732 0.000129599 0)
(0.0510041 0.000125453 0)
(0.050449 0.000121504 0)
(0.0499072 0.000117738 0)
(0.0493782 0.000114145 0)
(0.0488614 0.000110713 0)
(0.0483564 0.000107434 0)
(0.0478626 0.000104298 0)
(0.0473797 0.000101296 0)
(0.0469071 9.84226e-05 0)
(0.0464445 9.56691e-05 0)
(0.0459916 9.30296e-05 0)
(0.0455478 9.04979e-05 0)
(0.045113 8.80684e-05 0)
(0.0446867 8.5736e-05 0)
(0.0442686 8.34958e-05 0)
(0.0438585 8.13433e-05 0)
(0.0434561 7.92744e-05 0)
(0.043061 7.72852e-05 0)
(0.0426731 7.53721e-05 0)
(0.042292 7.35317e-05 0)
(0.0419176 7.17611e-05 0)
(0.0415495 7.00573e-05 0)
(0.0411876 6.84178e-05 0)
(0.0408317 6.68399e-05 0)
(0.0404815 6.53217e-05 0)
(0.0401369 6.38611e-05 0)
(0.0397976 6.24563e-05 0)
(0.0394634 6.11056e-05 0)
(0.0391342 5.98077e-05 0)
(0.0388098 5.85617e-05 0)
(0.0384899 5.73665e-05 0)
(0.0381744 5.6222e-05 0)
(0.0378631 5.51285e-05 0)
(0.0375558 5.40873e-05 0)
(0.0372523 5.31013e-05 0)
(0.0369523 5.21774e-05 0)
(0.0366556 5.13295e-05 0)
(0.0363619 5.05885e-05 0)
(0.0360705 5.00317e-05 0)
(0.0357804 4.98717e-05 0)
(0.0354873 5.06462e-05 0)
(0.035216 5.58394e-05 0)
(0.0346487 0.000135068 0)
(0.193132 0.00903287 0)
(0.193914 0.00998787 0)
(0.194032 0.0103179 0)
(0.193338 0.0103197 0)
(0.191951 0.0100936 0)
(0.189994 0.00967803 0)
(0.187561 0.00911781 0)
(0.184742 0.00846262 0)
(0.181632 0.00775768 0)
(0.178321 0.0070413 0)
(0.174885 0.00634421 0)
(0.171391 0.00568905 0)
(0.16789 0.00509028 0)
(0.164421 0.00455494 0)
(0.161012 0.00408408 0)
(0.157684 0.00367453 0)
(0.15445 0.00332052 0)
(0.151316 0.00301509 0)
(0.148287 0.00275112 0)
(0.145363 0.00252197 0)
(0.142543 0.00232184 0)
(0.139824 0.00214584 0)
(0.137205 0.00198998 0)
(0.134681 0.00185103 0)
(0.132249 0.00172642 0)
(0.129906 0.00161409 0)
(0.127647 0.0015124 0)
(0.125471 0.00141999 0)
(0.123372 0.00133576 0)
(0.121348 0.00125876 0)
(0.119395 0.00118821 0)
(0.11751 0.00112342 0)
(0.11569 0.0010638 0)
(0.113932 0.00100883 0)
(0.112233 0.000958045 0)
(0.11059 0.000911046 0)
(0.109001 0.000867468 0)
(0.107463 0.000826991 0)
(0.105973 0.000789328 0)
(0.10453 0.000754223 0)
(0.10313 0.000721448 0)
(0.101773 0.000690799 0)
(0.100456 0.000662093 0)
(0.0991766 0.000635167 0)
(0.0979338 0.000609874 0)
(0.0967258 0.000586081 0)
(0.095551 0.000563669 0)
(0.0944078 0.000542531 0)
(0.093295 0.00052257 0)
(0.0922111 0.000503698 0)
(0.091155 0.000485835 0)
(0.0901254 0.000468909 0)
(0.0891212 0.000452854 0)
(0.0881414 0.00043761 0)
(0.087185 0.000423121 0)
(0.0862511 0.000409338 0)
(0.0853387 0.000396215 0)
(0.0844469 0.000383709 0)
(0.0835751 0.000371782 0)
(0.0827225 0.000360397 0)
(0.0818882 0.000349523 0)
(0.0810716 0.000339129 0)
(0.0802722 0.000329186 0)
(0.0794891 0.000319669 0)
(0.078722 0.000310554 0)
(0.0779701 0.000301818 0)
(0.0772329 0.000293442 0)
(0.0765101 0.000285405 0)
(0.0758009 0.000277691 0)
(0.0751051 0.000270282 0)
(0.0744221 0.000263163 0)
(0.0737514 0.00025632 0)
(0.0730928 0.00024974 0)
(0.0724458 0.00024341 0)
(0.07181 0.000237318 0)
(0.071185 0.000231455 0)
(0.0705706 0.000225809 0)
(0.0699663 0.000220372 0)
(0.0693718 0.000215135 0)
(0.0687868 0.000210091 0)
(0.0682111 0.00020523 0)
(0.0676442 0.000200548 0)
(0.067086 0.000196038 0)
(0.0665361 0.000191693 0)
(0.0659942 0.00018751 0)
(0.0654601 0.000183483 0)
(0.0649336 0.00017961 0)
(0.0644142 0.000175886 0)
(0.0639018 0.000172311 0)
(0.0633961 0.000168884 0)
(0.0628968 0.000165608 0)
(0.0624037 0.000162488 0)
(0.0619163 0.000159541 0)
(0.0614344 0.000156798 0)
(0.0609574 0.000154333 0)
(0.0604846 0.000152334 0)
(0.0600146 0.000151314 0)
(0.0595432 0.000152864 0)
(0.0590866 0.000169292 0)
(0.0583501 0.000268888 0)
(0.194157 0.00839553 0)
(0.195324 0.00944976 0)
(0.196374 0.010004 0)
(0.197092 0.0102431 0)
(0.197455 0.0102503 0)
(0.197473 0.0100577 0)
(0.197143 0.00970115 0)
(0.196473 0.00922373 0)
(0.195491 0.00866731 0)
(0.194235 0.00806922 0)
(0.19275 0.00746121 0)
(0.19108 0.00686846 0)
(0.189266 0.00630895 0)
(0.187345 0.00579376 0)
(0.18535 0.005328 0)
(0.183306 0.00491222 0)
(0.181233 0.00454385 0)
(0.179147 0.00421847 0)
(0.177059 0.00393088 0)
(0.174976 0.00367581 0)
(0.172906 0.00344833 0)
(0.170853 0.00324413 0)
(0.168819 0.00305958 0)
(0.166807 0.00289167 0)
(0.16482 0.00273798 0)
(0.162858 0.00259657 0)
(0.160924 0.0024659 0)
(0.159018 0.00234472 0)
(0.157142 0.00223201 0)
(0.155295 0.00212694 0)
(0.153479 0.0020288 0)
(0.151694 0.00193699 0)
(0.14994 0.00185097 0)
(0.148217 0.00177029 0)
(0.146526 0.00169452 0)
(0.144866 0.0016233 0)
(0.143237 0.00155627 0)
(0.141639 0.00149315 0)
(0.140072 0.00143363 0)
(0.138535 0.00137746 0)
(0.137028 0.00132441 0)
(0.13555 0.00127426 0)
(0.1341 0.0012268 0)
(0.132679 0.00118186 0)
(0.131285 0.00113926 0)
(0.129919 0.00109885 0)
(0.128579 0.00106048 0)
(0.127264 0.00102402 0)
(0.125975 0.000989359 0)
(0.124711 0.000956368 0)
(0.12347 0.00092495 0)
(0.122253 0.000895006 0)
(0.121059 0.000866448 0)
(0.119886 0.000839191 0)
(0.118736 0.00081316 0)
(0.117606 0.000788282 0)
(0.116497 0.000764492 0)
(0.115408 0.000741727 0)
(0.114339 0.00071993 0)
(0.113288 0.000699048 0)
(0.112256 0.00067903 0)
(0.111241 0.000659831 0)
(0.110244 0.000641407 0)
(0.109264 0.000623718 0)
(0.1083 0.000606725 0)
(0.107353 0.000590394 0)
(0.106421 0.000574692 0)
(0.105504 0.000559587 0)
(0.104602 0.000545051 0)
(0.103714 0.000531058 0)
(0.10284 0.000517581 0)
(0.10198 0.000504597 0)
(0.101134 0.000492084 0)
(0.1003 0.000480021 0)
(0.0994783 0.000468388 0)
(0.0986692 0.000457168 0)
(0.097872 0.000446344 0)
(0.0970864 0.000435899 0)
(0.096312 0.000425819 0)
(0.0955486 0.00041609 0)
(0.0947959 0.000406699 0)
(0.0940535 0.000397635 0)
(0.0933212 0.000388887 0)
(0.0925987 0.000380444 0)
(0.0918857 0.000372298 0)
(0.0911819 0.000364441 0)
(0.0904871 0.000356867 0)
(0.0898009 0.000349569 0)
(0.0891232 0.000342546 0)
(0.0884535 0.000335796 0)
(0.0877916 0.000329321 0)
(0.0871373 0.000323134 0)
(0.08649 0.000317257 0)
(0.0858495 0.000311744 0)
(0.0852153 0.000306717 0)
(0.0845865 0.000302481 0)
(0.0839617 0.000299893 0)
(0.0833373 0.000301837 0)
(0.082725 0.000324932 0)
(0.0818736 0.000422679 0)
(0.194868 0.00789324 0)
(0.19591 0.00888941 0)
(0.197017 0.00948464 0)
(0.198017 0.00979894 0)
(0.198866 0.00990587 0)
(0.199547 0.00983528 0)
(0.200035 0.00961351 0)
(0.200307 0.0092731 0)
(0.200357 0.00884788 0)
(0.200189 0.00836951 0)
(0.199821 0.00786617 0)
(0.199272 0.00736143 0)
(0.198568 0.00687341 0)
(0.197733 0.00641445 0)
(0.19679 0.00599163 0)
(0.195761 0.00560771 0)
(0.194662 0.00526227 0)
(0.193508 0.00495281 0)
(0.19231 0.00467573 0)
(0.191076 0.00442699 0)
(0.189813 0.00420263 0)
(0.188527 0.00399904 0)
(0.18722 0.00381308 0)
(0.185897 0.00364213 0)
(0.184561 0.00348404 0)
(0.183213 0.00333707 0)
(0.181856 0.00319983 0)
(0.180491 0.00307121 0)
(0.179122 0.0029503 0)
(0.177749 0.00283635 0)
(0.176375 0.00272874 0)
(0.175 0.00262696 0)
(0.173626 0.00253053 0)
(0.172255 0.00243907 0)
(0.170887 0.00235222 0)
(0.169524 0.00226967 0)
(0.168167 0.00219113 0)
(0.166816 0.00211634 0)
(0.165473 0.00204507 0)
(0.164139 0.0019771 0)
(0.162813 0.00191223 0)
(0.161497 0.00185028 0)
(0.160192 0.00179108 0)
(0.158896 0.00173446 0)
(0.157612 0.0016803 0)
(0.15634 0.00162844 0)
(0.155079 0.00157878 0)
(0.15383 0.00153118 0)
(0.152594 0.00148554 0)
(0.15137 0.00144176 0)
(0.150158 0.00139975 0)
(0.148959 0.00135941 0)
(0.147773 0.00132065 0)
(0.1466 0.00128341 0)
(0.14544 0.00124761 0)
(0.144292 0.00121317 0)
(0.143158 0.00118003 0)
(0.142036 0.00114814 0)
(0.140927 0.00111743 0)
(0.139831 0.00108784 0)
(0.138748 0.00105933 0)
(0.137677 0.00103185 0)
(0.136618 0.00100534 0)
(0.135572 0.000979774 0)
(0.134538 0.000955103 0)
(0.133516 0.000931288 0)
(0.132506 0.000908293 0)
(0.131507 0.000886084 0)
(0.130521 0.000864628 0)
(0.129546 0.000843893 0)
(0.128582 0.000823851 0)
(0.127629 0.000804473 0)
(0.126687 0.000785734 0)
(0.125757 0.000767609 0)
(0.124836 0.000750075 0)
(0.123927 0.000733109 0)
(0.123027 0.000716692 0)
(0.122138 0.000700803 0)
(0.121259 0.000685425 0)
(0.120389 0.000670541 0)
(0.119529 0.000656135 0)
(0.118678 0.000642192 0)
(0.117837 0.000628698 0)
(0.117005 0.000615642 0)
(0.116181 0.000603012 0)
(0.115366 0.000590798 0)
(0.11456 0.000578992 0)
(0.113761 0.000567589 0)
(0.112971 0.000556583 0)
(0.112189 0.000545976 0)
(0.111414 0.000535771 0)
(0.110646 0.000525985 0)
(0.109886 0.000516652 0)
(0.109132 0.000507845 0)
(0.108384 0.000499735 0)
(0.107642 0.000492742 0)
(0.106904 0.000488029 0)
(0.106168 0.000489444 0)
(0.105446 0.000513398 0)
(0.104522 0.000594231 0)
(0.195468 0.00746187 0)
(0.196343 0.00836137 0)
(0.197332 0.00894677 0)
(0.198303 0.00928781 0)
(0.19921 0.00944268 0)
(0.200034 0.00943905 0)
(0.200752 0.00929856 0)
(0.20134 0.00904742 0)
(0.201782 0.00871388 0)
(0.202074 0.00832505 0)
(0.202218 0.00790548 0)
(0.202224 0.00747623 0)
(0.202104 0.00705406 0)
(0.201872 0.00665104 0)
(0.201545 0.00627478 0)
(0.201137 0.00592907 0)
(0.200661 0.00561475 0)
(0.200127 0.00533062 0)
(0.199544 0.00507425 0)
(0.198919 0.0048426 0)
(0.198257 0.00463252 0)
(0.197563 0.004441 0)
(0.196838 0.00426535 0)
(0.196086 0.00410325 0)
(0.195308 0.00395277 0)
(0.194507 0.00381232 0)
(0.193683 0.00368061 0)
(0.192839 0.0035566 0)
(0.191976 0.00343944 0)
(0.191094 0.00332843 0)
(0.190196 0.003223 0)
(0.189282 0.00312266 0)
(0.188353 0.003027 0)
(0.187412 0.00293566 0)
(0.186458 0.00284834 0)
(0.185493 0.00276476 0)
(0.184518 0.00268468 0)
(0.183535 0.00260786 0)
(0.182543 0.00253412 0)
(0.181544 0.00246328 0)
(0.180539 0.00239516 0)
(0.179529 0.00232963 0)
(0.178515 0.00226653 0)
(0.177496 0.00220575 0)
(0.176475 0.00214716 0)
(0.175451 0.00209067 0)
(0.174426 0.00203615 0)
(0.173399 0.00198354 0)
(0.172372 0.00193272 0)
(0.171346 0.00188364 0)
(0.17032 0.0018362 0)
(0.169295 0.00179033 0)
(0.168271 0.00174598 0)
(0.16725 0.00170307 0)
(0.166231 0.00166155 0)
(0.165215 0.00162136 0)
(0.164202 0.00158245 0)
(0.163192 0.00154476 0)
(0.162186 0.00150826 0)
(0.161185 0.00147288 0)
(0.160187 0.0014386 0)
(0.159194 0.00140536 0)
(0.158206 0.00137314 0)
(0.157223 0.00134188 0)
(0.156245 0.00131157 0)
(0.155273 0.00128216 0)
(0.154305 0.00125362 0)
(0.153344 0.00122593 0)
(0.152388 0.00119905 0)
(0.151438 0.00117295 0)
(0.150494 0.00114761 0)
(0.149555 0.00112301 0)
(0.148623 0.00109911 0)
(0.147697 0.00107591 0)
(0.146777 0.00105337 0)
(0.145864 0.00103147 0)
(0.144956 0.00101021 0)
(0.144055 0.000989549 0)
(0.14316 0.000969482 0)
(0.142271 0.00094999 0)
(0.141389 0.000931058 0)
(0.140512 0.000912673 0)
(0.139642 0.000894822 0)
(0.138778 0.000877493 0)
(0.13792 0.000860676 0)
(0.137068 0.000844362 0)
(0.136222 0.000828544 0)
(0.135382 0.000813218 0)
(0.134547 0.000798382 0)
(0.133718 0.000784038 0)
(0.132895 0.000770195 0)
(0.132077 0.000756876 0)
(0.131265 0.000744126 0)
(0.130457 0.000732039 0)
(0.129654 0.000720825 0)
(0.128855 0.000710993 0)
(0.12806 0.000703892 0)
(0.127267 0.000703609 0)
(0.126492 0.000723427 0)
(0.125544 0.000778709 0)
(0.195992 0.00709252 0)
(0.196731 0.00789532 0)
(0.197589 0.00845436 0)
(0.198467 0.00880289 0)
(0.19932 0.00898252 0)
(0.200126 0.00901804 0)
(0.200864 0.00892877 0)
(0.201516 0.00873702 0)
(0.202067 0.00846715 0)
(0.202512 0.00814284 0)
(0.202848 0.00778571 0)
(0.203081 0.0074145 0)
(0.203218 0.00704447 0)
(0.203269 0.00668701 0)
(0.203245 0.00634972 0)
(0.203157 0.00603691 0)
(0.203013 0.0057502 0)
(0.202823 0.0054893 0)
(0.202593 0.00525265 0)
(0.202328 0.00503801 0)
(0.202032 0.00484284 0)
(0.201709 0.00466463 0)
(0.201359 0.00450106 0)
(0.200986 0.00435007 0)
(0.20059 0.00420989 0)
(0.200171 0.00407904 0)
(0.199731 0.00395632 0)
(0.199271 0.0038407 0)
(0.19879 0.00373137 0)
(0.19829 0.00362766 0)
(0.19777 0.00352901 0)
(0.197233 0.00343493 0)
(0.196677 0.00334503 0)
(0.196105 0.00325898 0)
(0.195516 0.00317646 0)
(0.19491 0.00309721 0)
(0.19429 0.00302102 0)
(0.193655 0.00294767 0)
(0.193005 0.00287697 0)
(0.192342 0.00280877 0)
(0.191666 0.00274291 0)
(0.190978 0.00267925 0)
(0.190278 0.00261769 0)
(0.189567 0.00255809 0)
(0.188845 0.00250038 0)
(0.188113 0.00244444 0)
(0.187372 0.00239019 0)
(0.186622 0.00233756 0)
(0.185863 0.00228647 0)
(0.185096 0.00223686 0)
(0.184323 0.00218866 0)
(0.183542 0.00214182 0)
(0.182755 0.00209627 0)
(0.181962 0.00205198 0)
(0.181163 0.00200889 0)
(0.18036 0.00196696 0)
(0.179552 0.00192615 0)
(0.178739 0.00188642 0)
(0.177923 0.00184773 0)
(0.177104 0.00181005 0)
(0.176281 0.00177334 0)
(0.175456 0.00173757 0)
(0.174628 0.00170271 0)
(0.173799 0.00166874 0)
(0.172968 0.00163563 0)
(0.172135 0.00160335 0)
(0.171302 0.00157188 0)
(0.170467 0.00154119 0)
(0.169632 0.00151126 0)
(0.168797 0.00148207 0)
(0.167962 0.00145361 0)
(0.167127 0.00142585 0)
(0.166292 0.00139877 0)
(0.165458 0.00137236 0)
(0.164624 0.0013466 0)
(0.163792 0.00132147 0)
(0.162961 0.00129697 0)
(0.162131 0.00127307 0)
(0.161303 0.00124976 0)
(0.160476 0.00122704 0)
(0.15965 0.00120489 0)
(0.158827 0.0011833 0)
(0.158006 0.00116226 0)
(0.157186 0.00114176 0)
(0.156369 0.0011218 0)
(0.155554 0.00110237 0)
(0.154741 0.00108347 0)
(0.15393 0.00106509 0)
(0.153122 0.00104725 0)
(0.152316 0.00102994 0)
(0.151512 0.00101319 0)
(0.15071 0.000997017 0)
(0.149911 0.000981482 0)
(0.149114 0.000966696 0)
(0.148319 0.000952897 0)
(0.147525 0.00094063 0)
(0.146733 0.000931252 0)
(0.145944 0.000928353 0)
(0.145175 0.000940708 0)
(0.144254 0.000967401 0)
(0.196454 0.00677384 0)
(0.197086 0.00748742 0)
(0.19783 0.00801139 0)
(0.198613 0.00835622 0)
(0.199391 0.00854913 0)
(0.200139 0.00861097 0)
(0.200839 0.00855887 0)
(0.201475 0.00841188 0)
(0.202034 0.00819099 0)
(0.20251 0.00791694 0)
(0.202901 0.0076089 0)
(0.203211 0.00728368 0)
(0.203446 0.00695522 0)
(0.203611 0.00663423 0)
(0.203717 0.00632822 0)
(0.203772 0.00604179 0)
(0.203784 0.00577716 0)
(0.203759 0.00553473 0)
(0.203704 0.00531367 0)
(0.203623 0.00511239 0)
(0.20352 0.00492891 0)
(0.203397 0.00476118 0)
(0.203255 0.0046072 0)
(0.203096 0.00446516 0)
(0.202921 0.00433346 0)
(0.202729 0.00421073 0)
(0.202523 0.00409582 0)
(0.202301 0.00398778 0)
(0.202063 0.00388579 0)
(0.201811 0.00378919 0)
(0.201543 0.00369741 0)
(0.201261 0.00360999 0)
(0.200964 0.00352652 0)
(0.200652 0.00344665 0)
(0.200326 0.00337007 0)
(0.199985 0.00329653 0)
(0.199631 0.0032258 0)
(0.199262 0.00315765 0)
(0.198879 0.00309191 0)
(0.198483 0.00302842 0)
(0.198074 0.00296703 0)
(0.197651 0.00290759 0)
(0.197216 0.00285 0)
(0.196768 0.00279414 0)
(0.196308 0.00273991 0)
(0.195836 0.00268722 0)
(0.195352 0.002636 0)
(0.194856 0.00258617 0)
(0.19435 0.00253765 0)
(0.193832 0.00249039 0)
(0.193304 0.00244433 0)
(0.192766 0.00239942 0)
(0.192218 0.0023556 0)
(0.19166 0.00231284 0)
(0.191093 0.00227109 0)
(0.190517 0.00223032 0)
(0.189932 0.00219049 0)
(0.189339 0.00215156 0)
(0.188738 0.0021135 0)
(0.188129 0.00207629 0)
(0.187512 0.0020399 0)
(0.186889 0.0020043 0)
(0.186258 0.00196948 0)
(0.185621 0.0019354 0)
(0.184978 0.00190205 0)
(0.184328 0.0018694 0)
(0.183673 0.00183745 0)
(0.183013 0.00180617 0)
(0.182347 0.00177554 0)
(0.181676 0.00174555 0)
(0.181001 0.00171619 0)
(0.180321 0.00168744 0)
(0.179637 0.00165929 0)
(0.178949 0.00163173 0)
(0.178257 0.00160474 0)
(0.177562 0.00157831 0)
(0.176863 0.00155245 0)
(0.176161 0.00152713 0)
(0.175457 0.00150235 0)
(0.17475 0.00147809 0)
(0.17404 0.00145437 0)
(0.173328 0.00143116 0)
(0.172614 0.00140847 0)
(0.171897 0.00138629 0)
(0.171179 0.00136461 0)
(0.17046 0.00134345 0)
(0.169738 0.0013228 0)
(0.169015 0.00130265 0)
(0.168291 0.00128303 0)
(0.167565 0.00126395 0)
(0.166838 0.00124542 0)
(0.16611 0.00122748 0)
(0.165381 0.00121019 0)
(0.16465 0.00119369 0)
(0.163919 0.0011782 0)
(0.163186 0.00116427 0)
(0.162453 0.00115306 0)
(0.161722 0.00114717 0)
(0.16101 0.00115068 0)
(0.160164 0.0011505 0)
(0.196862 0.00649331 0)
(0.197411 0.00712699 0)
(0.198061 0.00761219 0)
(0.198757 0.00794669 0)
(0.199461 0.00814643 0)
(0.200147 0.00822764 0)
(0.200797 0.00820497 0)
(0.201395 0.00809453 0)
(0.201932 0.00791425 0)
(0.2024 0.00768223 0)
(0.202798 0.00741544 0)
(0.203127 0.007129 0)
(0.203392 0.00683567 0)
(0.2036 0.0065455 0)
(0.203757 0.00626583 0)
(0.203871 0.00600145 0)
(0.203949 0.00575504 0)
(0.203997 0.00552756 0)
(0.204021 0.00531881 0)
(0.204025 0.00512776 0)
(0.204012 0.00495298 0)
(0.203984 0.00479281 0)
(0.203943 0.0046456 0)
(0.203891 0.00450977 0)
(0.203829 0.00438392 0)
(0.203756 0.00426681 0)
(0.203673 0.00415736 0)
(0.20358 0.00405466 0)
(0.203477 0.00395794 0)
(0.203365 0.00386655 0)
(0.203243 0.00377994 0)
(0.203111 0.00369763 0)
(0.202968 0.00361921 0)
(0.202816 0.00354434 0)
(0.202654 0.0034727 0)
(0.202481 0.00340402 0)
(0.202298 0.00333807 0)
(0.202104 0.00327463 0)
(0.2019 0.00321352 0)
(0.201685 0.00315455 0)
(0.20146 0.00309758 0)
(0.201225 0.00304247 0)
(0.200979 0.0029891 0)
(0.200722 0.00293734 0)
(0.200455 0.00288711 0)
(0.200178 0.0028383 0)
(0.19989 0.00279083 0)
(0.199591 0.00274462 0)
(0.199283 0.00269961 0)
(0.198964 0.00265573 0)
(0.198635 0.00261291 0)
(0.198296 0.00257111 0)
(0.197947 0.00253028 0)
(0.197588 0.00249038 0)
(0.19722 0.00245135 0)
(0.196841 0.00241316 0)
(0.196454 0.00237579 0)
(0.196057 0.00233919 0)
(0.195651 0.00230333 0)
(0.195236 0.00226819 0)
(0.194812 0.00223374 0)
(0.194379 0.00219997 0)
(0.193938 0.00216684 0)
(0.193488 0.00213433 0)
(0.19303 0.00210244 0)
(0.192564 0.00207113 0)
(0.19209 0.0020404 0)
(0.191609 0.00201024 0)
(0.19112 0.00198061 0)
(0.190623 0.00195153 0)
(0.19012 0.00192296 0)
(0.189609 0.00189491 0)
(0.189092 0.00186736 0)
(0.188568 0.0018403 0)
(0.188037 0.00181372 0)
(0.187501 0.00178763 0)
(0.186958 0.001762 0)
(0.186409 0.00173684 0)
(0.185854 0.00171214 0)
(0.185294 0.0016879 0)
(0.184729 0.00166412 0)
(0.184158 0.00164078 0)
(0.183581 0.0016179 0)
(0.183 0.00159546 0)
(0.182414 0.00157348 0)
(0.181824 0.00155196 0)
(0.181228 0.00153089 0)
(0.180629 0.0015103 0)
(0.180024 0.00149019 0)
(0.179416 0.00147057 0)
(0.178803 0.00145148 0)
(0.178187 0.00143296 0)
(0.177566 0.00141508 0)
(0.176941 0.00139795 0)
(0.176313 0.00138182 0)
(0.175681 0.00136712 0)
(0.175047 0.00135472 0)
(0.174413 0.00134601 0)
(0.173795 0.00134105 0)
(0.173058 0.00131916 0)
(0.197226 0.00624215 0)
(0.197709 0.00680569 0)
(0.19828 0.00725182 0)
(0.1989 0.00757196 0)
(0.199536 0.00777392 0)
(0.200162 0.00786939 0)
(0.200762 0.00787045 0)
(0.20132 0.00779063 0)
(0.201827 0.0076451 0)
(0.202276 0.00744953 0)
(0.202664 0.0072189 0)
(0.202994 0.00696674 0)
(0.203267 0.00670466 0)
(0.203489 0.00644207 0)
(0.203666 0.00618603 0)
(0.203804 0.00594144 0)
(0.203911 0.00571127 0)
(0.20399 0.00549699 0)
(0.204049 0.00529887 0)
(0.20409 0.00511643 0)
(0.204116 0.00494868 0)
(0.204131 0.00479435 0)
(0.204136 0.00465213 0)
(0.204133 0.0045207 0)
(0.204122 0.00439883 0)
(0.204105 0.00428541 0)
(0.204081 0.00417949 0)
(0.204051 0.00408021 0)
(0.204015 0.00398686 0)
(0.203973 0.0038988 0)
(0.203925 0.0038155 0)
(0.203871 0.00373651 0)
(0.203811 0.00366142 0)
(0.203745 0.00358989 0)
(0.203672 0.0035216 0)
(0.203593 0.00345629 0)
(0.203508 0.00339371 0)
(0.203416 0.00333366 0)
(0.203317 0.00327592 0)
(0.203211 0.00322034 0)
(0.203098 0.00316675 0)
(0.202978 0.00311502 0)
(0.202851 0.003065 0)
(0.202716 0.00301659 0)
(0.202574 0.00296968 0)
(0.202425 0.00292417 0)
(0.202267 0.00287997 0)
(0.202102 0.002837 0)
(0.20193 0.00279518 0)
(0.201749 0.00275445 0)
(0.20156 0.00271475 0)
(0.201364 0.00267601 0)
(0.201159 0.00263819 0)
(0.200946 0.00260123 0)
(0.200726 0.0025651 0)
(0.200497 0.00252975 0)
(0.20026 0.00249514 0)
(0.200015 0.00246124 0)
(0.199761 0.00242802 0)
(0.1995 0.00239545 0)
(0.19923 0.00236349 0)
(0.198953 0.00233214 0)
(0.198667 0.00230135 0)
(0.198373 0.00227112 0)
(0.198072 0.00224142 0)
(0.197762 0.00221224 0)
(0.197445 0.00218355 0)
(0.197119 0.00215535 0)
(0.196786 0.00212761 0)
(0.196446 0.00210034 0)
(0.196097 0.0020735 0)
(0.195741 0.00204711 0)
(0.195378 0.00202114 0)
(0.195007 0.00199558 0)
(0.194629 0.00197044 0)
(0.194244 0.0019457 0)
(0.193851 0.00192136 0)
(0.193451 0.00189742 0)
(0.193045 0.00187387 0)
(0.192631 0.0018507 0)
(0.192211 0.00182792 0)
(0.191784 0.00180553 0)
(0.191351 0.00178353 0)
(0.190911 0.00176192 0)
(0.190464 0.0017407 0)
(0.190011 0.00171988 0)
(0.189552 0.00169948 0)
(0.189087 0.00167948 0)
(0.188616 0.00165993 0)
(0.188138 0.00164082 0)
(0.187655 0.0016222 0)
(0.187166 0.00160411 0)
(0.186671 0.00158662 0)
(0.18617 0.00156983 0)
(0.185663 0.00155395 0)
(0.185152 0.00153931 0)
(0.184636 0.0015264 0)
(0.18412 0.00151545 0)
(0.183615 0.00150359 0)
(0.183005 0.00146697 0)
(0.19755 0.0060143 0)
(0.19798 0.00651688 0)
(0.198486 0.00692546 0)
(0.199039 0.0072289 0)
(0.199614 0.0074295 0)
(0.200186 0.00753507 0)
(0.200738 0.00755521 0)
(0.201257 0.00750115 0)
(0.201733 0.00738564 0)
(0.20216 0.00722213 0)
(0.202535 0.00702373 0)
(0.202857 0.00680249 0)
(0.20313 0.00656894 0)
(0.203356 0.00633177 0)
(0.203542 0.00609774 0)
(0.203692 0.00587172 0)
(0.203812 0.00565692 0)
(0.203907 0.00545512 0)
(0.203982 0.00526706 0)
(0.204041 0.00509265 0)
(0.204086 0.00493133 0)
(0.20412 0.00478221 0)
(0.204146 0.00464424 0)
(0.204165 0.00451637 0)
(0.204177 0.00439756 0)
(0.204184 0.00428685 0)
(0.204187 0.00418338 0)
(0.204185 0.00408639 0)
(0.204179 0.0039952 0)
(0.204169 0.00390925 0)
(0.204156 0.00382802 0)
(0.204139 0.00375107 0)
(0.204118 0.00367801 0)
(0.204094 0.00360852 0)
(0.204066 0.00354229 0)
(0.204034 0.00347905 0)
(0.203999 0.00341857 0)
(0.203959 0.00336064 0)
(0.203916 0.00330506 0)
(0.203868 0.00325166 0)
(0.203817 0.00320028 0)
(0.20376 0.00315077 0)
(0.2037 0.00310302 0)
(0.203635 0.0030569 0)
(0.203565 0.00301229 0)
(0.20349 0.00296911 0)
(0.203411 0.00292725 0)
(0.203326 0.00288664 0)
(0.203236 0.0028472 0)
(0.203141 0.00280886 0)
(0.203041 0.00277155 0)
(0.202935 0.00273521 0)
(0.202824 0.00269979 0)
(0.202707 0.00266523 0)
(0.202584 0.00263149 0)
(0.202455 0.00259852 0)
(0.20232 0.00256629 0)
(0.202179 0.00253475 0)
(0.202032 0.00250388 0)
(0.201879 0.00247363 0)
(0.201719 0.00244399 0)
(0.201553 0.00241492 0)
(0.201381 0.00238639 0)
(0.201202 0.00235839 0)
(0.201017 0.0023309 0)
(0.200825 0.00230388 0)
(0.200627 0.00227733 0)
(0.200422 0.00225123 0)
(0.20021 0.00222556 0)
(0.199992 0.00220031 0)
(0.199767 0.00217546 0)
(0.199535 0.00215101 0)
(0.199297 0.00212695 0)
(0.199051 0.00210326 0)
(0.198799 0.00207994 0)
(0.198541 0.00205697 0)
(0.198275 0.00203437 0)
(0.198003 0.00201211 0)
(0.197724 0.0019902 0)
(0.197438 0.00196863 0)
(0.197146 0.0019474 0)
(0.196846 0.00192652 0)
(0.196541 0.00190598 0)
(0.196228 0.00188579 0)
(0.195909 0.00186595 0)
(0.195583 0.00184647 0)
(0.195251 0.00182735 0)
(0.194912 0.00180861 0)
(0.194566 0.00179027 0)
(0.194214 0.00177235 0)
(0.193855 0.00175487 0)
(0.19349 0.00173788 0)
(0.193118 0.00172145 0)
(0.19274 0.00170566 0)
(0.192355 0.00169068 0)
(0.191965 0.00167669 0)
(0.19157 0.00166382 0)
(0.191174 0.00165139 0)
(0.190784 0.00163481 0)
(0.190302 0.00159065 0)
(0.197842 0.00580544 0)
(0.198227 0.00625521 0)
(0.198678 0.0066287 0)
(0.199174 0.0069143 0)
(0.199694 0.00711089 0)
(0.200216 0.00722318 0)
(0.200724 0.00725851 0)
(0.201206 0.00722604 0)
(0.201653 0.00713644 0)
(0.202057 0.00700115 0)
(0.202417 0.00683158 0)
(0.20273 0.00663838 0)
(0.202999 0.00643103 0)
(0.203226 0.00621753 0)
(0.203416 0.00600426 0)
(0.203572 0.005796 0)
(0.2037 0.00559607 0)
(0.203805 0.00540651 0)
(0.203889 0.00522838 0)
(0.203958 0.00506197 0)
(0.204013 0.00490705 0)
(0.204058 0.00476306 0)
(0.204095 0.00462924 0)
(0.204124 0.00450476 0)
(0.204147 0.00438875 0)
(0.204166 0.00428041 0)
(0.204181 0.00417899 0)
(0.204191 0.00408381 0)
(0.204199 0.00399426 0)
(0.204204 0.00390982 0)
(0.204206 0.00383 0)
(0.204205 0.00375441 0)
(0.204202 0.00368267 0)
(0.204197 0.00361446 0)
(0.20419 0.00354949 0)
(0.20418 0.00348752 0)
(0.204167 0.0034283 0)
(0.204153 0.00337164 0)
(0.204136 0.00331734 0)
(0.204117 0.00326524 0)
(0.204095 0.00321519 0)
(0.204071 0.00316703 0)
(0.204044 0.00312065 0)
(0.204015 0.00307593 0)
(0.203983 0.00303276 0)
(0.203948 0.00299103 0)
(0.20391 0.00295066 0)
(0.203869 0.00291157 0)
(0.203825 0.00287367 0)
(0.203778 0.00283689 0)
(0.203728 0.00280118 0)
(0.203674 0.00276646 0)
(0.203617 0.00273268 0)
(0.203556 0.00269979 0)
(0.203491 0.00266774 0)
(0.203423 0.00263648 0)
(0.203351 0.00260597 0)
(0.203274 0.00257618 0)
(0.203194 0.00254706 0)
(0.203109 0.00251858 0)
(0.20302 0.00249071 0)
(0.202927 0.00246343 0)
(0.202829 0.0024367 0)
(0.202727 0.0024105 0)
(0.202619 0.0023848 0)
(0.202508 0.00235959 0)
(0.202391 0.00233484 0)
(0.202269 0.00231054 0)
(0.202142 0.00228667 0)
(0.202011 0.00226321 0)
(0.201874 0.00224015 0)
(0.201732 0.00221748 0)
(0.201584 0.00219518 0)
(0.201432 0.00217324 0)
(0.201273 0.00215166 0)
(0.20111 0.00213043 0)
(0.20094 0.00210953 0)
(0.200766 0.00208897 0)
(0.200585 0.00206874 0)
(0.200399 0.00204883 0)
(0.200207 0.00202925 0)
(0.200009 0.00200999 0)
(0.199806 0.00199105 0)
(0.199596 0.00197244 0)
(0.199381 0.00195416 0)
(0.19916 0.00193622 0)
(0.198932 0.00191863 0)
(0.198699 0.00190139 0)
(0.19846 0.00188452 0)
(0.198214 0.00186806 0)
(0.197962 0.00185201 0)
(0.197705 0.00183643 0)
(0.197441 0.00182137 0)
(0.19717 0.00180691 0)
(0.196894 0.00179313 0)
(0.196613 0.00178011 0)
(0.196326 0.00176766 0)
(0.196038 0.0017545 0)
(0.195752 0.0017354 0)
(0.195388 0.00168989 0)
(0.198104 0.0056124 0)