/*--------------------------------*- C++ -*----------------------------------*\
| =========                 |                                                 |
| \\      /  F ield         | OpenFOAM: The Open Source CFD Toolbox           |
|  \\    /   O peration     | Version:  2.3.0                                 |
|   \\  /    A nd           | Web:      www.OpenFOAM.org                      |
|    \\/     M anipulation  |                                                 |
\*---------------------------------------------------------------------------*/
FoamFile
{
    version     2.0;
    format      ascii;
    class       volVectorField;
    location    "1";
    object      U_0;
}
// * * * * * * * * * * * * * * * * * * * * * * * * * * * * * * * * * * * * * //

dimensions      [0 1 -1 0 0 0 0];

internalField   nonuniform List<vector> 
8750
(
(0.171303 0.0059542 0)
(0.154856 0.00602827 0)
(0.139043 0.00561183 0)
(0.12405 0.0050148 0)
(0.110291 0.00435482 0)
(0.0979342 0.00368526 0)
(0.0869919 0.0030429 0)
(0.0774302 0.00245315 0)
(0.0691932 0.00193149 0)
(0.0621963 0.00148575 0)
(0.056326 0.00111763 0)
(0.0514496 0.00082366 0)
(0.0474265 0.000596466 0)
(0.0441177 0.000426345 0)
(0.0413934 0.000302789 0)
(0.0391377 0.000215679 0)
(0.0372519 0.000156038 0)
(0.0356544 0.000116369 0)
(0.0342803 9.07085e-05 0)
(0.0330793 7.45129e-05 0)
(0.0320133 6.44556e-05 0)
(0.0310539 5.82008e-05 0)
(0.0301801 5.41789e-05 0)
(0.0293767 5.13855e-05 0)
(0.0286325 4.92132e-05 0)
(0.0279389 4.73198e-05 0)
(0.0272897 4.55304e-05 0)
(0.0266798 4.37695e-05 0)
(0.0261051 4.20159e-05 0)
(0.0255622 4.02749e-05 0)
(0.0250483 3.85619e-05 0)
(0.0245609 3.68933e-05 0)
(0.0240978 3.52832e-05 0)
(0.023657 3.37413e-05 0)
(0.0232367 3.22736e-05 0)
(0.0228353 3.08825e-05 0)
(0.0224515 2.95679e-05 0)
(0.0220839 2.83279e-05 0)
(0.0217313 2.71595e-05 0)
(0.0213928 2.60588e-05 0)
(0.0210673 2.50219e-05 0)
(0.020754 2.40445e-05 0)
(0.0204521 2.31228e-05 0)
(0.0201609 2.22527e-05 0)
(0.0198797 2.14307e-05 0)
(0.019608 2.06533e-05 0)
(0.0193451 1.99175e-05 0)
(0.0190906 1.92203e-05 0)
(0.018844 1.85591e-05 0)
(0.0186049 1.79315e-05 0)
(0.0183728 1.73351e-05 0)
(0.0181475 1.6768e-05 0)
(0.0179286 1.62282e-05 0)
(0.0177156 1.57141e-05 0)
(0.0175085 1.52239e-05 0)
(0.0173068 1.47563e-05 0)
(0.0171104 1.43098e-05 0)
(0.016919 1.38832e-05 0)
(0.0167323 1.34754e-05 0)
(0.0165502 1.30853e-05 0)
(0.0163724 1.27118e-05 0)
(0.0161988 1.23541e-05 0)
(0.0160291 1.20113e-05 0)
(0.0158633 1.16826e-05 0)
(0.0157012 1.13673e-05 0)
(0.0155426 1.10646e-05 0)
(0.0153874 1.07741e-05 0)
(0.0152354 1.04949e-05 0)
(0.0150865 1.02267e-05 0)
(0.0149407 9.96887e-06 0)
(0.0147977 9.72097e-06 0)
(0.0146575 9.48254e-06 0)
(0.01452 9.25318e-06 0)
(0.014385 9.03248e-06 0)
(0.0142525 8.82013e-06 0)
(0.0141224 8.61576e-06 0)
(0.0139947 8.41909e-06 0)
(0.0138691 8.22982e-06 0)
(0.0137457 8.04774e-06 0)
(0.0136243 7.87256e-06 0)
(0.0135049 7.70408e-06 0)
(0.0133874 7.54213e-06 0)
(0.0132718 7.38656e-06 0)
(0.0131579 7.23719e-06 0)
(0.0130457 7.09389e-06 0)
(0.0129351 6.95662e-06 0)
(0.0128261 6.82534e-06 0)
(0.0127185 6.70001e-06 0)
(0.0126124 6.58073e-06 0)
(0.0125076 6.46768e-06 0)
(0.0124042 6.36123e-06 0)
(0.0123019 6.26204e-06 0)
(0.0122007 6.17147e-06 0)
(0.0121005 6.09218e-06 0)
(0.0120011 6.02971e-06 0)
(0.0119023 5.99702e-06 0)
(0.0118037 6.0325e-06 0)
(0.0117028 6.19881e-06 0)
(0.0116201 5.22761e-06 0)
(0.0113398 3.89362e-05 0)
(0.190146 0.00939873 0)
(0.187816 0.00990696 0)
(0.183874 0.00968231 0)
(0.178681 0.00918475 0)
(0.172739 0.0085526 0)
(0.1664 0.00783204 0)
(0.159888 0.00706096 0)
(0.15337 0.00627422 0)
(0.146981 0.005501 0)
(0.140823 0.00476524 0)
(0.134963 0.00408565 0)
(0.129441 0.00347516 0)
(0.124275 0.00294057 0)
(0.11947 0.00248308 0)
(0.115016 0.00209933 0)
(0.110897 0.00178267 0)
(0.107092 0.0015246 0)
(0.103579 0.00131591 0)
(0.100332 0.00114769 0)
(0.0973266 0.00101184 0)
(0.0945407 0.000901451 0)
(0.0919525 0.000810846 0)
(0.0895423 0.000735538 0)
(0.0872922 0.000672066 0)
(0.0851864 0.000617815 0)
(0.0832108 0.000570835 0)
(0.0813529 0.000529678 0)
(0.0796015 0.000493267 0)
(0.0779469 0.000460794 0)
(0.0763805 0.000431644 0)
(0.0748946 0.000405336 0)
(0.0734826 0.000381488 0)
(0.0721382 0.000359789 0)
(0.0708561 0.00033998 0)
(0.0696316 0.000321842 0)
(0.0684603 0.000305189 0)
(0.0673383 0.000289858 0)
(0.0662621 0.00027571 0)
(0.0652285 0.000262622 0)
(0.0642347 0.000250486 0)
(0.0632781 0.000239209 0)
(0.0623563 0.000228708 0)
(0.061467 0.000218909 0)
(0.0606084 0.00020975 0)
(0.0597787 0.000201172 0)
(0.0589761 0.000193125 0)
(0.0581991 0.000185564 0)
(0.0574463 0.00017845 0)
(0.0567164 0.000171745 0)
(0.0560082 0.000165418 0)
(0.0553206 0.000159441 0)
(0.0546525 0.000153786 0)
(0.054003 0.00014843 0)
(0.0533712 0.000143352 0)
(0.0527561 0.000138532 0)
(0.0521571 0.000133952 0)
(0.0515734 0.000129597 0)
(0.0510043 0.000125452 0)
(0.0504491 0.000121502 0)
(0.0499073 0.000117737 0)
(0.0493783 0.000114143 0)
(0.0488616 0.000110711 0)
(0.0483566 0.000107432 0)
(0.0478628 0.000104296 0)
(0.0473799 0.000101294 0)
(0.0469073 9.84204e-05 0)
(0.0464448 9.56669e-05 0)
(0.0459918 9.30273e-05 0)
(0.0455481 9.04956e-05 0)
(0.0451132 8.8066e-05 0)
(0.0446869 8.57335e-05 0)
(0.0442689 8.34932e-05 0)
(0.0438588 8.13406e-05 0)
(0.0434564 7.92716e-05 0)
(0.0430613 7.72823e-05 0)
(0.0426734 7.5369e-05 0)
(0.0422924 7.35286e-05 0)
(0.0419179 7.17578e-05 0)
(0.0415499 7.0054e-05 0)
(0.041188 6.84143e-05 0)
(0.0408321 6.68364e-05 0)
(0.040482 6.53181e-05 0)
(0.0401374 6.38574e-05 0)
(0.0397981 6.24524e-05 0)
(0.0394639 6.11016e-05 0)
(0.0391348 5.98036e-05 0)
(0.0388103 5.85575e-05 0)
(0.0384905 5.73622e-05 0)
(0.038175 5.62177e-05 0)
(0.0378637 5.51241e-05 0)
(0.0375564 5.40827e-05 0)
(0.0372529 5.30967e-05 0)
(0.036953 5.21727e-05 0)
(0.0366563 5.13247e-05 0)
(0.0363626 5.05837e-05 0)
(0.0360713 5.00269e-05 0)
(0.0357812 4.98669e-05 0)
(0.0354882 5.06413e-05 0)
(0.0352169 5.58339e-05 0)
(0.0346496 0.000135052 0)
(0.193132 0.00903287 0)
(0.193914 0.00998787 0)
(0.194032 0.0103179 0)
(0.193338 0.0103197 0)
(0.191951 0.0100936 0)
(0.189994 0.00967803 0)
(0.187561 0.00911781 0)
(0.184742 0.00846262 0)
(0.181632 0.00775768 0)
(0.178321 0.0070413 0)
(0.174886 0.00634421 0)
(0.171391 0.00568905 0)
(0.16789 0.00509028 0)
(0.164421 0.00455493 0)
(0.161012 0.00408408 0)
(0.157684 0.00367453 0)
(0.15445 0.00332052 0)
(0.151316 0.00301509 0)
(0.148287 0.00275112 0)
(0.145363 0.00252197 0)
(0.142543 0.00232184 0)
(0.139824 0.00214584 0)
(0.137205 0.00198998 0)
(0.134681 0.00185103 0)
(0.132249 0.00172642 0)
(0.129906 0.00161409 0)
(0.127647 0.0015124 0)
(0.125471 0.00141999 0)
(0.123372 0.00133575 0)
(0.121348 0.00125876 0)
(0.119395 0.0011882 0)
(0.11751 0.00112341 0)
(0.11569 0.0010638 0)
(0.113932 0.00100882 0)
(0.112233 0.000958043 0)
(0.110591 0.000911044 0)
(0.109001 0.000867466 0)
(0.107463 0.000826989 0)
(0.105973 0.000789326 0)
(0.10453 0.00075422 0)
(0.103131 0.000721445 0)
(0.101773 0.000690796 0)
(0.100456 0.00066209 0)
(0.0991767 0.000635164 0)
(0.0979339 0.000609871 0)
(0.0967259 0.000586078 0)
(0.0955511 0.000563666 0)
(0.0944079 0.000542528 0)
(0.0932951 0.000522567 0)
(0.0922112 0.000503695 0)
(0.0911551 0.000485832 0)
(0.0901255 0.000468905 0)
(0.0891214 0.00045285 0)
(0.0881416 0.000437606 0)
(0.0871852 0.000423117 0)
(0.0862513 0.000409334 0)
(0.0853389 0.00039621 0)
(0.0844472 0.000383704 0)
(0.0835753 0.000371777 0)
(0.0827227 0.000360392 0)
(0.0818884 0.000349518 0)
(0.0810719 0.000339123 0)
(0.0802724 0.00032918 0)
(0.0794894 0.000319663 0)
(0.0787222 0.000310548 0)
(0.0779704 0.000301812 0)
(0.0772333 0.000293435 0)
(0.0765104 0.000285398 0)
(0.0758013 0.000277684 0)
(0.0751054 0.000270274 0)
(0.0744224 0.000263155 0)
(0.0737519 0.000256312 0)
(0.0730933 0.000249731 0)
(0.0724462 0.000243401 0)
(0.0718105 0.000237309 0)
(0.0711855 0.000231445 0)
(0.0705711 0.000225799 0)
(0.0699668 0.000220362 0)
(0.0693724 0.000215125 0)
(0.0687874 0.00021008 0)
(0.0682117 0.000205219 0)
(0.0676449 0.000200537 0)
(0.0670867 0.000196026 0)
(0.0665368 0.000191681 0)
(0.065995 0.000187497 0)
(0.0654609 0.00018347 0)
(0.0649344 0.000179596 0)
(0.0644151 0.000175872 0)
(0.0639027 0.000172297 0)
(0.0633971 0.00016887 0)
(0.0628978 0.000165593 0)
(0.0624047 0.000162473 0)
(0.0619174 0.000159526 0)
(0.0614355 0.000156782 0)
(0.0609586 0.000154317 0)
(0.0604858 0.000152317 0)
(0.0600159 0.000151297 0)
(0.0595445 0.000152847 0)
(0.059088 0.000169273 0)
(0.0583516 0.000268854 0)
(0.194157 0.00839553 0)
(0.195324 0.00944976 0)
(0.196374 0.010004 0)
(0.197092 0.0102431 0)
(0.197455 0.0102503 0)
(0.197473 0.0100577 0)
(0.197143 0.00970115 0)
(0.196473 0.00922373 0)
(0.195491 0.00866731 0)
(0.194235 0.00806922 0)
(0.19275 0.00746121 0)
(0.19108 0.00686846 0)
(0.189266 0.00630895 0)
(0.187345 0.00579375 0)
(0.18535 0.005328 0)
(0.183306 0.00491222 0)
(0.181233 0.00454385 0)
(0.179147 0.00421847 0)
(0.177059 0.00393088 0)
(0.174976 0.0036758 0)
(0.172906 0.00344833 0)
(0.170853 0.00324413 0)
(0.168819 0.00305958 0)
(0.166807 0.00289166 0)
(0.16482 0.00273797 0)
(0.162858 0.00259657 0)
(0.160924 0.0024659 0)
(0.159018 0.00234472 0)
(0.157142 0.00223201 0)
(0.155295 0.00212694 0)
(0.153479 0.0020288 0)
(0.151694 0.00193699 0)
(0.14994 0.00185097 0)
(0.148217 0.00177028 0)
(0.146526 0.00169452 0)
(0.144866 0.00162329 0)
(0.143237 0.00155627 0)
(0.14164 0.00149314 0)
(0.140072 0.00143362 0)
(0.138535 0.00137746 0)
(0.137028 0.00132441 0)
(0.13555 0.00127425 0)
(0.1341 0.0012268 0)
(0.132679 0.00118185 0)
(0.131285 0.00113925 0)
(0.129919 0.00109884 0)
(0.128579 0.00106047 0)
(0.127264 0.00102402 0)
(0.125975 0.000989353 0)
(0.124711 0.000956362 0)
(0.12347 0.000924943 0)
(0.122253 0.000894999 0)
(0.121059 0.00086644 0)
(0.119887 0.000839184 0)
(0.118736 0.000813152 0)
(0.117607 0.000788274 0)
(0.116498 0.000764484 0)
(0.115409 0.000741718 0)
(0.114339 0.000719921 0)
(0.113288 0.000699038 0)
(0.112256 0.00067902 0)
(0.111241 0.000659821 0)
(0.110244 0.000641396 0)
(0.109264 0.000623706 0)
(0.108301 0.000606713 0)
(0.107353 0.000590382 0)
(0.106421 0.000574679 0)
(0.105504 0.000559574 0)
(0.104602 0.000545038 0)
(0.103714 0.000531044 0)
(0.102841 0.000517566 0)
(0.101981 0.000504582 0)
(0.101134 0.000492068 0)
(0.1003 0.000480004 0)
(0.0994789 0.000468371 0)
(0.0986698 0.00045715 0)
(0.0978726 0.000446325 0)
(0.097087 0.00043588 0)
(0.0963127 0.000425799 0)
(0.0955493 0.000416069 0)
(0.0947966 0.000406678 0)
(0.0940543 0.000397613 0)
(0.093322 0.000388863 0)
(0.0925996 0.00038042 0)
(0.0918866 0.000372273 0)
(0.0911829 0.000364415 0)
(0.0904881 0.00035684 0)
(0.089802 0.000349542 0)
(0.0891243 0.000342518 0)
(0.0884547 0.000335767 0)
(0.0877929 0.000329292 0)
(0.0871386 0.000323103 0)
(0.0864914 0.000317226 0)
(0.085851 0.000311712 0)
(0.0852168 0.000306684 0)
(0.0845881 0.000302447 0)
(0.0839633 0.000299859 0)
(0.0833391 0.000301802 0)
(0.0827268 0.000324892 0)
(0.0818755 0.000422624 0)
(0.194868 0.00789324 0)
(0.19591 0.00888941 0)
(0.197017 0.00948464 0)
(0.198017 0.00979894 0)
(0.198866 0.00990587 0)
(0.199547 0.00983528 0)
(0.200035 0.00961351 0)
(0.200307 0.0092731 0)
(0.200357 0.00884788 0)
(0.200189 0.00836951 0)
(0.199821 0.00786616 0)
(0.199272 0.00736143 0)
(0.198568 0.00687341 0)
(0.197733 0.00641445 0)
(0.19679 0.00599163 0)
(0.195761 0.00560771 0)
(0.194662 0.00526226 0)
(0.193508 0.00495281 0)
(0.19231 0.00467572 0)
(0.191076 0.00442698 0)
(0.189813 0.00420263 0)
(0.188527 0.00399903 0)
(0.18722 0.00381308 0)
(0.185897 0.00364213 0)
(0.184561 0.00348403 0)
(0.183213 0.00333707 0)
(0.181856 0.00319983 0)
(0.180492 0.00307121 0)
(0.179122 0.0029503 0)
(0.177749 0.00283635 0)
(0.176375 0.00272874 0)
(0.175 0.00262695 0)
(0.173626 0.00253052 0)
(0.172255 0.00243906 0)
(0.170887 0.00235222 0)
(0.169524 0.00226966 0)
(0.168167 0.00219112 0)
(0.166816 0.00211634 0)
(0.165473 0.00204507 0)
(0.164139 0.0019771 0)
(0.162813 0.00191223 0)
(0.161497 0.00185027 0)
(0.160192 0.00179107 0)
(0.158897 0.00173446 0)
(0.157613 0.00168029 0)
(0.15634 0.00162844 0)
(0.155079 0.00157877 0)
(0.15383 0.00153117 0)
(0.152594 0.00148553 0)
(0.15137 0.00144175 0)
(0.150158 0.00139974 0)
(0.148959 0.00135939 0)
(0.147773 0.00132064 0)
(0.1466 0.0012834 0)
(0.14544 0.0012476 0)
(0.144293 0.00121316 0)
(0.143158 0.00118002 0)
(0.142037 0.00114813 0)
(0.140928 0.00111741 0)
(0.139831 0.00108783 0)
(0.138748 0.00105931 0)
(0.137677 0.00103183 0)
(0.136618 0.00100532 0)
(0.135572 0.000979757 0)
(0.134538 0.000955085 0)
(0.133516 0.000931269 0)
(0.132506 0.000908274 0)
(0.131508 0.000886064 0)
(0.130521 0.000864607 0)
(0.129546 0.000843871 0)
(0.128582 0.000823828 0)
(0.12763 0.000804449 0)
(0.126688 0.000785709 0)
(0.125757 0.000767583 0)
(0.124837 0.000750047 0)
(0.123927 0.000733081 0)
(0.123028 0.000716662 0)
(0.122139 0.000700773 0)
(0.121259 0.000685394 0)
(0.12039 0.000670508 0)
(0.11953 0.000656101 0)
(0.118679 0.000642156 0)
(0.117838 0.000628661 0)
(0.117006 0.000615604 0)
(0.116182 0.000602972 0)
(0.115367 0.000590757 0)
(0.114561 0.00057895 0)
(0.113763 0.000567545 0)
(0.112972 0.000556538 0)
(0.11219 0.000545929 0)
(0.111415 0.000535723 0)
(0.110648 0.000525935 0)
(0.109887 0.0005166 0)
(0.109133 0.000507793 0)
(0.108386 0.000499682 0)
(0.107643 0.000492687 0)
(0.106906 0.000487973 0)
(0.10617 0.000489386 0)
(0.105448 0.000513334 0)
(0.104524 0.000594154 0)
(0.195468 0.00746187 0)
(0.196343 0.00836137 0)
(0.197332 0.00894677 0)
(0.198303 0.00928781 0)
(0.19921 0.00944268 0)
(0.200034 0.00943905 0)
(0.200752 0.00929856 0)
(0.20134 0.00904742 0)
(0.201782 0.00871388 0)
(0.202074 0.00832505 0)
(0.202218 0.00790548 0)
(0.202224 0.00747623 0)
(0.202104 0.00705405 0)
(0.201872 0.00665104 0)
(0.201545 0.00627478 0)
(0.201137 0.00592907 0)
(0.200661 0.00561475 0)
(0.200127 0.00533062 0)
(0.199544 0.00507424 0)
(0.198919 0.0048426 0)
(0.198257 0.00463252 0)
(0.197563 0.004441 0)
(0.196838 0.00426534 0)
(0.196086 0.00410325 0)
(0.195308 0.00395277 0)
(0.194507 0.00381232 0)
(0.193683 0.00368061 0)
(0.192839 0.0035566 0)
(0.191976 0.00343944 0)
(0.191094 0.00332843 0)
(0.190196 0.00322299 0)
(0.189282 0.00312265 0)
(0.188353 0.00302699 0)
(0.187412 0.00293566 0)
(0.186458 0.00284834 0)
(0.185493 0.00276476 0)
(0.184518 0.00268467 0)
(0.183535 0.00260785 0)
(0.182543 0.00253412 0)
(0.181544 0.00246327 0)
(0.18054 0.00239516 0)
(0.179529 0.00232962 0)
(0.178515 0.00226652 0)
(0.177496 0.00220574 0)
(0.176475 0.00214715 0)
(0.175451 0.00209065 0)
(0.174426 0.00203614 0)
(0.173399 0.00198352 0)
(0.172373 0.00193271 0)
(0.171346 0.00188362 0)
(0.17032 0.00183618 0)
(0.169295 0.00179032 0)
(0.168271 0.00174597 0)
(0.16725 0.00170306 0)
(0.166231 0.00166154 0)
(0.165215 0.00162135 0)
(0.164202 0.00158243 0)
(0.163192 0.00154475 0)
(0.162187 0.00150824 0)
(0.161185 0.00147286 0)
(0.160188 0.00143858 0)
(0.159195 0.00140534 0)
(0.158207 0.00137311 0)
(0.157224 0.00134186 0)
(0.156246 0.00131155 0)
(0.155273 0.00128214 0)
(0.154306 0.0012536 0)
(0.153344 0.0012259 0)
(0.152388 0.00119902 0)
(0.151438 0.00117292 0)
(0.150494 0.00114758 0)
(0.149556 0.00112297 0)
(0.148624 0.00109908 0)
(0.147698 0.00107587 0)
(0.146778 0.00105333 0)
(0.145864 0.00103144 0)
(0.144957 0.00101017 0)
(0.144056 0.000989506 0)
(0.143161 0.000969437 0)
(0.142272 0.000949943 0)
(0.141389 0.00093101 0)
(0.140513 0.000912623 0)
(0.139643 0.00089477 0)
(0.138779 0.000877439 0)
(0.137921 0.000860619 0)
(0.137069 0.000844304 0)
(0.136223 0.000828484 0)
(0.135383 0.000813156 0)
(0.134548 0.000798317 0)
(0.13372 0.000783971 0)
(0.132897 0.000770126 0)
(0.132079 0.000756805 0)
(0.131266 0.000744052 0)
(0.130458 0.000731963 0)
(0.129656 0.000720748 0)
(0.128857 0.000710913 0)
(0.128061 0.00070381 0)
(0.127269 0.000703524 0)
(0.126494 0.000723336 0)
(0.125546 0.000778608 0)
(0.195992 0.00709252 0)
(0.196731 0.00789532 0)
(0.197589 0.00845436 0)
(0.198467 0.00880289 0)
(0.19932 0.00898252 0)
(0.200126 0.00901804 0)
(0.200864 0.00892877 0)
(0.201516 0.00873702 0)
(0.202067 0.00846715 0)
(0.202512 0.00814284 0)
(0.202848 0.0077857 0)
(0.203081 0.0074145 0)
(0.203218 0.00704446 0)
(0.203269 0.006687 0)
(0.203245 0.00634972 0)
(0.203157 0.00603691 0)
(0.203013 0.0057502 0)
(0.202823 0.0054893 0)
(0.202593 0.00525265 0)
(0.202328 0.005038 0)
(0.202032 0.00484283 0)
(0.201709 0.00466463 0)
(0.201359 0.00450106 0)
(0.200986 0.00435006 0)
(0.20059 0.00420988 0)
(0.200171 0.00407904 0)
(0.199731 0.00395631 0)
(0.199271 0.00384069 0)
(0.19879 0.00373137 0)
(0.19829 0.00362766 0)
(0.19777 0.003529 0)
(0.197233 0.00343492 0)
(0.196677 0.00334503 0)
(0.196105 0.00325897 0)
(0.195516 0.00317645 0)
(0.19491 0.00309721 0)
(0.19429 0.00302101 0)
(0.193655 0.00294766 0)
(0.193005 0.00287696 0)
(0.192342 0.00280876 0)
(0.191666 0.00274289 0)
(0.190978 0.00267924 0)
(0.190278 0.00261768 0)
(0.189567 0.00255808 0)
(0.188845 0.00250036 0)
(0.188113 0.00244442 0)
(0.187372 0.00239018 0)
(0.186622 0.00233755 0)
(0.185863 0.00228646 0)
(0.185097 0.00223684 0)
(0.184323 0.00218864 0)
(0.183542 0.0021418 0)
(0.182755 0.00209625 0)
(0.181962 0.00205196 0)
(0.181163 0.00200887 0)
(0.18036 0.00196694 0)
(0.179552 0.00192613 0)
(0.178739 0.0018864 0)
(0.177923 0.00184771 0)
(0.177104 0.00181002 0)
(0.176281 0.00177331 0)
(0.175456 0.00173754 0)
(0.174629 0.00170269 0)
(0.173799 0.00166871 0)
(0.172968 0.0016356 0)
(0.172136 0.00160332 0)
(0.171302 0.00157184 0)
(0.170468 0.00154115 0)
(0.169633 0.00151122 0)
(0.168797 0.00148204 0)
(0.167962 0.00145357 0)
(0.167127 0.00142581 0)
(0.166292 0.00139873 0)
(0.165458 0.00137231 0)
(0.164625 0.00134655 0)
(0.163793 0.00132142 0)
(0.162961 0.00129692 0)
(0.162132 0.00127301 0)
(0.161303 0.00124971 0)
(0.160476 0.00122698 0)
(0.159651 0.00120483 0)
(0.158828 0.00118323 0)
(0.158007 0.00116219 0)
(0.157187 0.00114169 0)
(0.15637 0.00112172 0)
(0.155555 0.00110229 0)
(0.154742 0.00108339 0)
(0.153931 0.00106501 0)
(0.153123 0.00104717 0)
(0.152317 0.00102986 0)
(0.151513 0.0010131 0)
(0.150712 0.000996923 0)
(0.149913 0.000981385 0)
(0.149115 0.000966596 0)
(0.14832 0.000952795 0)
(0.147527 0.000940525 0)
(0.146735 0.000931144 0)
(0.145946 0.000928241 0)
(0.145177 0.00094059 0)
(0.144256 0.000967275 0)
(0.196454 0.00677384 0)
(0.197086 0.00748742 0)
(0.19783 0.00801139 0)
(0.198613 0.00835622 0)
(0.199391 0.00854913 0)
(0.200139 0.00861097 0)
(0.200839 0.00855886 0)
(0.201475 0.00841188 0)
(0.202034 0.00819098 0)
(0.20251 0.00791694 0)
(0.202901 0.00760889 0)
(0.203211 0.00728367 0)
(0.203446 0.00695521 0)
(0.203611 0.00663422 0)
(0.203717 0.00632821 0)
(0.203772 0.00604179 0)
(0.203784 0.00577715 0)
(0.203759 0.00553473 0)
(0.203704 0.00531367 0)
(0.203623 0.00511238 0)
(0.20352 0.00492891 0)
(0.203397 0.00476117 0)
(0.203255 0.0046072 0)
(0.203096 0.00446515 0)
(0.202921 0.00433345 0)
(0.202729 0.00421072 0)
(0.202523 0.00409582 0)
(0.202301 0.00398777 0)
(0.202063 0.00388578 0)
(0.201811 0.00378918 0)
(0.201543 0.0036974 0)
(0.201261 0.00360998 0)
(0.200964 0.00352651 0)
(0.200652 0.00344664 0)
(0.200326 0.00337006 0)
(0.199985 0.00329652 0)
(0.199631 0.00322579 0)
(0.199262 0.00315764 0)
(0.198879 0.0030919 0)
(0.198483 0.00302841 0)
(0.198074 0.00296701 0)
(0.197651 0.00290758 0)
(0.197216 0.00284998 0)
(0.196768 0.00279412 0)
(0.196308 0.00273989 0)
(0.195836 0.00268721 0)
(0.195352 0.00263598 0)
(0.194856 0.00258615 0)
(0.19435 0.00253763 0)
(0.193833 0.00249037 0)
(0.193305 0.00244431 0)
(0.192766 0.0023994 0)
(0.192218 0.00235558 0)
(0.19166 0.00231282 0)
(0.191093 0.00227107 0)
(0.190517 0.0022303 0)
(0.189933 0.00219046 0)
(0.189339 0.00215153 0)
(0.188738 0.00211347 0)
(0.188129 0.00207626 0)
(0.187513 0.00203987 0)
(0.186889 0.00200427 0)
(0.186258 0.00196944 0)
(0.185621 0.00193536 0)
(0.184978 0.00190201 0)
(0.184329 0.00186937 0)
(0.183673 0.00183741 0)
(0.183013 0.00180612 0)
(0.182347 0.00177549 0)
(0.181676 0.00174551 0)
(0.181001 0.00171614 0)
(0.180321 0.00168739 0)
(0.179637 0.00165924 0)
(0.178949 0.00163167 0)
(0.178257 0.00160468 0)
(0.177562 0.00157825 0)
(0.176864 0.00155238 0)
(0.176162 0.00152706 0)
(0.175458 0.00150228 0)
(0.17475 0.00147802 0)
(0.174041 0.00145429 0)
(0.173329 0.00143108 0)
(0.172614 0.00140839 0)
(0.171898 0.0013862 0)
(0.17118 0.00136453 0)
(0.17046 0.00134336 0)
(0.169739 0.0013227 0)
(0.169016 0.00130255 0)
(0.168292 0.00128293 0)
(0.167566 0.00126384 0)
(0.166839 0.0012453 0)
(0.166111 0.00122736 0)
(0.165382 0.00121007 0)
(0.164652 0.00119356 0)
(0.16392 0.00117808 0)
(0.163188 0.00116414 0)
(0.162455 0.00115292 0)
(0.161724 0.00114703 0)
(0.161011 0.00115054 0)
(0.160165 0.00115035 0)
(0.196862 0.00649331 0)
(0.197411 0.00712699 0)
(0.198061 0.00761219 0)
(0.198757 0.00794668 0)
(0.199461 0.00814643 0)
(0.200147 0.00822764 0)
(0.200797 0.00820496 0)
(0.201395 0.00809453 0)
(0.201932 0.00791425 0)
(0.2024 0.00768222 0)
(0.202798 0.00741543 0)
(0.203127 0.007129 0)
(0.203392 0.00683566 0)
(0.2036 0.0065455 0)
(0.203757 0.00626582 0)
(0.203871 0.00600145 0)
(0.203949 0.00575503 0)
(0.203998 0.00552756 0)
(0.204021 0.0053188 0)
(0.204025 0.00512776 0)
(0.204012 0.00495297 0)
(0.203984 0.0047928 0)
(0.203943 0.00464559 0)
(0.203891 0.00450977 0)
(0.203829 0.00438392 0)
(0.203756 0.0042668 0)
(0.203673 0.00415735 0)
(0.20358 0.00405465 0)
(0.203478 0.00395793 0)
(0.203365 0.00386655 0)
(0.203243 0.00377993 0)
(0.203111 0.00369762 0)
(0.202968 0.0036192 0)
(0.202816 0.00354433 0)
(0.202654 0.00347269 0)
(0.202481 0.00340401 0)
(0.202298 0.00333806 0)
(0.202104 0.00327462 0)
(0.2019 0.0032135 0)
(0.201685 0.00315454 0)
(0.20146 0.00309757 0)
(0.201225 0.00304246 0)
(0.200979 0.00298908 0)
(0.200722 0.00293733 0)
(0.200455 0.00288709 0)
(0.200178 0.00283828 0)
(0.19989 0.00279081 0)
(0.199591 0.0027446 0)
(0.199283 0.00269959 0)
(0.198964 0.00265571 0)
(0.198635 0.00261289 0)
(0.198296 0.00257109 0)
(0.197947 0.00253026 0)
(0.197588 0.00249035 0)
(0.19722 0.00245132 0)
(0.196842 0.00241314 0)
(0.196454 0.00237576 0)
(0.196057 0.00233916 0)
(0.195651 0.0023033 0)
(0.195236 0.00226816 0)
(0.194812 0.00223371 0)
(0.194379 0.00219993 0)
(0.193938 0.0021668 0)
(0.193488 0.00213429 0)
(0.19303 0.0021024 0)
(0.192564 0.00207109 0)
(0.192091 0.00204036 0)
(0.191609 0.00201019 0)
(0.19112 0.00198056 0)
(0.190624 0.00195147 0)
(0.19012 0.00192291 0)
(0.18961 0.00189485 0)
(0.189092 0.00186729 0)
(0.188568 0.00184023 0)
(0.188038 0.00181366 0)
(0.187501 0.00178756 0)
(0.186958 0.00176193 0)
(0.186409 0.00173677 0)
(0.185855 0.00171206 0)
(0.185295 0.00168782 0)
(0.184729 0.00166403 0)
(0.184158 0.00164069 0)
(0.183582 0.0016178 0)
(0.183001 0.00159536 0)
(0.182415 0.00157338 0)
(0.181824 0.00155185 0)
(0.181229 0.00153078 0)
(0.180629 0.00151018 0)
(0.180025 0.00149007 0)
(0.179417 0.00147045 0)
(0.178804 0.00145135 0)
(0.178188 0.00143283 0)
(0.177567 0.00141494 0)
(0.176943 0.00139781 0)
(0.176314 0.00138167 0)
(0.175682 0.00136696 0)
(0.175048 0.00135456 0)
(0.174414 0.00134585 0)
(0.173796 0.00134088 0)
(0.173059 0.00131898 0)
(0.197226 0.00624215 0)
(0.197709 0.00680568 0)
(0.19828 0.00725182 0)
(0.1989 0.00757196 0)
(0.199536 0.00777392 0)
(0.200162 0.00786939 0)
(0.200762 0.00787045 0)
(0.20132 0.00779063 0)
(0.201827 0.0076451 0)
(0.202276 0.00744953 0)
(0.202664 0.00721889 0)
(0.202994 0.00696673 0)
(0.203267 0.00670466 0)
(0.203489 0.00644206 0)
(0.203666 0.00618603 0)
(0.203804 0.00594143 0)
(0.203911 0.00571127 0)
(0.20399 0.00549698 0)
(0.204049 0.00529887 0)
(0.20409 0.00511643 0)
(0.204116 0.00494867 0)
(0.204131 0.00479435 0)
(0.204136 0.00465213 0)
(0.204133 0.00452069 0)
(0.204122 0.00439882 0)
(0.204105 0.00428541 0)
(0.204081 0.00417948 0)
(0.204051 0.0040802 0)
(0.204015 0.00398685 0)
(0.203973 0.00389879 0)
(0.203925 0.00381549 0)
(0.203871 0.0037365 0)
(0.203811 0.00366141 0)
(0.203745 0.00358988 0)
(0.203672 0.00352159 0)
(0.203593 0.00345628 0)
(0.203508 0.0033937 0)
(0.203416 0.00333364 0)
(0.203317 0.00327591 0)
(0.203211 0.00322033 0)
(0.203098 0.00316674 0)
(0.202978 0.003115 0)
(0.202851 0.00306499 0)
(0.202716 0.00301658 0)
(0.202574 0.00296966 0)
(0.202425 0.00292415 0)
(0.202267 0.00287995 0)
(0.202102 0.00283698 0)
(0.20193 0.00279516 0)
(0.201749 0.00275443 0)
(0.20156 0.00271472 0)
(0.201364 0.00267599 0)
(0.201159 0.00263816 0)
(0.200947 0.00260121 0)
(0.200726 0.00256507 0)
(0.200497 0.00252972 0)
(0.20026 0.00249511 0)
(0.200015 0.00246121 0)
(0.199761 0.00242799 0)
(0.1995 0.00239541 0)
(0.199231 0.00236346 0)
(0.198953 0.0023321 0)
(0.198667 0.00230131 0)
(0.198374 0.00227108 0)
(0.198072 0.00224138 0)
(0.197762 0.00221219 0)
(0.197445 0.0021835 0)
(0.19712 0.0021553 0)
(0.196787 0.00212756 0)
(0.196446 0.00210028 0)
(0.196097 0.00207344 0)
(0.195742 0.00204704 0)
(0.195378 0.00202107 0)
(0.195007 0.00199551 0)
(0.194629 0.00197037 0)
(0.194244 0.00194563 0)
(0.193851 0.00192128 0)
(0.193452 0.00189734 0)
(0.193045 0.00187378 0)
(0.192632 0.00185061 0)
(0.192212 0.00182783 0)
(0.191785 0.00180543 0)
(0.191351 0.00178343 0)
(0.190911 0.00176181 0)
(0.190465 0.00174059 0)
(0.190012 0.00171977 0)
(0.189553 0.00169935 0)
(0.189088 0.00167935 0)
(0.188616 0.00165979 0)
(0.188139 0.00164068 0)
(0.187656 0.00162206 0)
(0.187166 0.00160396 0)
(0.186671 0.00158646 0)
(0.186171 0.00156967 0)
(0.185664 0.00155379 0)
(0.185153 0.00153914 0)
(0.184637 0.00152622 0)
(0.184121 0.00151527 0)
(0.183616 0.0015034 0)
(0.183006 0.00146678 0)
(0.19755 0.0060143 0)
(0.19798 0.00651688 0)
(0.198486 0.00692546 0)
(0.199039 0.0072289 0)
(0.199614 0.0074295 0)
(0.200186 0.00753506 0)
(0.200738 0.00755521 0)
(0.201257 0.00750114 0)
(0.201733 0.00738563 0)
(0.20216 0.00722213 0)
(0.202535 0.00702373 0)
(0.202857 0.00680249 0)
(0.20313 0.00656894 0)
(0.203356 0.00633177 0)
(0.203542 0.00609774 0)
(0.203692 0.00587172 0)
(0.203812 0.00565691 0)
(0.203907 0.00545512 0)
(0.203982 0.00526705 0)
(0.204041 0.00509265 0)
(0.204086 0.00493133 0)
(0.20412 0.0047822 0)
(0.204146 0.00464424 0)
(0.204165 0.00451636 0)
(0.204177 0.00439755 0)
(0.204184 0.00428684 0)
(0.204187 0.00418337 0)
(0.204185 0.00408638 0)
(0.204179 0.0039952 0)
(0.204169 0.00390924 0)
(0.204156 0.00382801 0)
(0.204139 0.00375106 0)
(0.204118 0.003678 0)
(0.204094 0.00360851 0)
(0.204066 0.00354228 0)
(0.204035 0.00347904 0)
(0.203999 0.00341856 0)
(0.203959 0.00336063 0)
(0.203916 0.00330504 0)
(0.203868 0.00325164 0)
(0.203817 0.00320026 0)
(0.203761 0.00315076 0)
(0.2037 0.003103 0)
(0.203635 0.00305688 0)
(0.203565 0.00301227 0)
(0.20349 0.00296909 0)
(0.203411 0.00292723 0)
(0.203326 0.00288662 0)
(0.203237 0.00284718 0)
(0.203142 0.00280884 0)
(0.203041 0.00277152 0)
(0.202935 0.00273518 0)
(0.202824 0.00269976 0)
(0.202707 0.0026652 0)
(0.202584 0.00263146 0)
(0.202455 0.00259849 0)
(0.20232 0.00256626 0)
(0.202179 0.00253472 0)
(0.202032 0.00250384 0)
(0.201879 0.0024736 0)
(0.201719 0.00244395 0)
(0.201554 0.00241488 0)
(0.201381 0.00238635 0)
(0.201203 0.00235835 0)
(0.201017 0.00233085 0)
(0.200826 0.00230383 0)
(0.200627 0.00227728 0)
(0.200422 0.00225117 0)
(0.200211 0.0022255 0)
(0.199992 0.00220025 0)
(0.199767 0.0021754 0)
(0.199535 0.00215095 0)
(0.199297 0.00212688 0)
(0.199052 0.00210318 0)
(0.1988 0.00207986 0)
(0.198541 0.00205689 0)
(0.198275 0.00203428 0)
(0.198003 0.00201202 0)
(0.197724 0.0019901 0)
(0.197438 0.00196853 0)
(0.197146 0.0019473 0)
(0.196847 0.00192641 0)
(0.196541 0.00190587 0)
(0.196228 0.00188567 0)
(0.195909 0.00186583 0)
(0.195583 0.00184634 0)
(0.195251 0.00182722 0)
(0.194912 0.00180847 0)
(0.194566 0.00179013 0)
(0.194214 0.00177219 0)
(0.193856 0.00175471 0)
(0.19349 0.00173772 0)
(0.193119 0.00172127 0)
(0.19274 0.00170548 0)
(0.192356 0.00169049 0)
(0.191966 0.0016765 0)
(0.191571 0.00166362 0)
(0.191174 0.00165119 0)
(0.190785 0.0016346 0)
(0.190303 0.00159044 0)
(0.197842 0.00580544 0)
(0.198227 0.00625521 0)
(0.198678 0.0066287 0)
(0.199174 0.0069143 0)
(0.199694 0.00711089 0)
(0.200216 0.00722317 0)
(0.200724 0.0072585 0)
(0.201206 0.00722604 0)
(0.201653 0.00713644 0)
(0.202057 0.00700115 0)
(0.202417 0.00683157 0)
(0.20273 0.00663837 0)
(0.202999 0.00643102 0)
(0.203226 0.00621752 0)
(0.203416 0.00600425 0)
(0.203572 0.005796 0)
(0.2037 0.00559606 0)
(0.203805 0.0054065 0)
(0.203889 0.00522837 0)
(0.203958 0.00506196 0)
(0.204013 0.00490705 0)
(0.204058 0.00476306 0)
(0.204095 0.00462924 0)
(0.204124 0.00450475 0)
(0.204147 0.00438874 0)
(0.204166 0.0042804 0)
(0.204181 0.00417898 0)
(0.204191 0.0040838 0)
(0.204199 0.00399425 0)
(0.204204 0.00390981 0)
(0.204206 0.00382999 0)
(0.204205 0.0037544 0)
(0.204203 0.00368266 0)
(0.204197 0.00361444 0)
(0.20419 0.00354948 0)
(0.20418 0.0034875 0)
(0.204168 0.00342829 0)
(0.204153 0.00337162 0)
(0.204136 0.00331733 0)
(0.204117 0.00326523 0)
(0.204095 0.00321517 0)
(0.204071 0.00316702 0)
(0.204044 0.00312064 0)
(0.204015 0.00307591 0)
(0.203983 0.00303274 0)
(0.203948 0.00299101 0)
(0.20391 0.00295064 0)
(0.203869 0.00291154 0)
(0.203825 0.00287364 0)
(0.203778 0.00283687 0)
(0.203728 0.00280115 0)
(0.203674 0.00276643 0)
(0.203617 0.00273265 0)
(0.203556 0.00269976 0)
(0.203491 0.00266771 0)
(0.203423 0.00263645 0)
(0.203351 0.00260594 0)
(0.203274 0.00257614 0)
(0.203194 0.00254702 0)
(0.203109 0.00251854 0)
(0.20302 0.00249067 0)
(0.202927 0.00246338 0)
(0.202829 0.00243665 0)
(0.202727 0.00241045 0)
(0.20262 0.00238475 0)
(0.202508 0.00235954 0)
(0.202391 0.00233479 0)
(0.202269 0.00231048 0)
(0.202143 0.00228661 0)
(0.202011 0.00226315 0)
(0.201874 0.00224008 0)
(0.201732 0.00221741 0)
(0.201584 0.0021951 0)
(0.201432 0.00217316 0)
(0.201274 0.00215158 0)
(0.20111 0.00213034 0)
(0.200941 0.00210944 0)
(0.200766 0.00208887 0)
(0.200585 0.00206864 0)
(0.200399 0.00204872 0)
(0.200207 0.00202914 0)
(0.20001 0.00200987 0)
(0.199806 0.00199093 0)
(0.199597 0.00197232 0)
(0.199381 0.00195403 0)
(0.19916 0.00193608 0)
(0.198933 0.00191848 0)
(0.198699 0.00190124 0)
(0.19846 0.00188437 0)
(0.198215 0.0018679 0)
(0.197963 0.00185185 0)
(0.197705 0.00183626 0)
(0.197441 0.00182119 0)
(0.197171 0.00180672 0)
(0.196895 0.00179294 0)
(0.196613 0.00177991 0)
(0.196327 0.00176745 0)
(0.196038 0.00175429 0)
(0.195753 0.00173518 0)
(0.195388 0.00168967 0)