/*--------------------------------*- C++ -*----------------------------------*\
| =========                 |                                                 |
| \\      /  F ield         | OpenFOAM: The Open Source CFD Toolbox           |
|  \\    /   O peration     | Version:  2.3.0                                 |
|   \\  /    A nd           | Web:      www.OpenFOAM.org                      |
|    \\/     M anipulation  |                                                 |
\*---------------------------------------------------------------------------*/
FoamFile
{
    version     2.0;
    format      ascii;
    class       volVectorField;
    location    "0.5";
    object      U;
}
// * * * * * * * * * * * * * * * * * * * * * * * * * * * * * * * * * * * * * //

dimensions      [0 1 -1 0 0 0 0];

internalField   nonuniform List<vector> 
1500
(
(0.175951 0.00442347 0)
(0.155191 0.00605623 0)
(0.136303 0.00621993 0)
(0.117838 0.00560904 0)
(0.0999879 0.00478769 0)
(0.0836435 0.00387342 0)
(0.069927 0.00287751 0)
(0.0592469 0.00182269 0)
(0.0513842 0.000902621 0)
(0.045767 0.00028317 0)
(0.0418041 -3.94467e-05 0)
(0.0390054 -0.000160425 0)
(0.0369794 -0.000170079 0)
(0.0354372 -0.000129624 0)
(0.0341736 -7.21778e-05 0)
(0.0330597 -1.75252e-05 0)
(0.0320271 2.43355e-05 0)
(0.031047 5.13309e-05 0)
(0.0301132 6.57644e-05 0)
(0.029228 7.12677e-05 0)
(0.0283956 7.11917e-05 0)
(0.0276183 6.8058e-05 0)
(0.0268964 6.35562e-05 0)
(0.0262276 5.87071e-05 0)
(0.0256085 5.40596e-05 0)
(0.0250349 4.98479e-05 0)
(0.0245019 4.61298e-05 0)
(0.0240053 4.2888e-05 0)
(0.0235408 4.00735e-05 0)
(0.0231045 3.76107e-05 0)
(0.0226933 3.54407e-05 0)
(0.0223043 3.35066e-05 0)
(0.0219352 3.17698e-05 0)
(0.0215841 3.01981e-05 0)
(0.0212492 2.87627e-05 0)
(0.0209292 2.74377e-05 0)
(0.0206229 2.62118e-05 0)
(0.0203292 2.50634e-05 0)
(0.0200473 2.39883e-05 0)
(0.0197765 2.29742e-05 0)
(0.019516 2.20229e-05 0)
(0.0192652 2.11218e-05 0)
(0.0190236 2.02656e-05 0)
(0.0187907 1.94498e-05 0)
(0.018566 1.86841e-05 0)
(0.0183491 1.79477e-05 0)
(0.0181396 1.72535e-05 0)
(0.0179373 1.659e-05 0)
(0.0177416 1.59548e-05 0)
(0.0175525 1.53394e-05 0)
(0.0173696 1.47583e-05 0)
(0.0171927 1.41915e-05 0)
(0.0170216 1.36564e-05 0)
(0.0168561 1.31374e-05 0)
(0.016696 1.26373e-05 0)
(0.0165412 1.21481e-05 0)
(0.0163915 1.16859e-05 0)
(0.016247 1.12174e-05 0)
(0.0161072 1.07715e-05 0)
(0.0159725 1.03357e-05 0)
(0.0158423 9.91261e-06 0)
(0.015717 9.4814e-06 0)
(0.0155963 9.08509e-06 0)
(0.0154802 8.69179e-06 0)
(0.0153684 8.30981e-06 0)
(0.0152613 7.91919e-06 0)
(0.0151585 7.54239e-06 0)
(0.0150603 7.15885e-06 0)
(0.0149663 6.79405e-06 0)
(0.0148769 6.43725e-06 0)
(0.0147916 6.09974e-06 0)
(0.0147106 5.76353e-06 0)
(0.0146337 5.42867e-06 0)
(0.014561 5.08992e-06 0)
(0.0144927 4.75103e-06 0)
(0.0144284 4.42635e-06 0)
(0.0143684 4.11159e-06 0)
(0.014312 3.82189e-06 0)
(0.01426 3.52281e-06 0)
(0.0142112 3.24693e-06 0)
(0.014167 2.94511e-06 0)
(0.0141255 2.68436e-06 0)
(0.0140888 2.39382e-06 0)
(0.0140541 2.17612e-06 0)
(0.0140245 1.90812e-06 0)
(0.0139956 1.73977e-06 0)
(0.0139724 1.48271e-06 0)
(0.0139487 1.35753e-06 0)
(0.0139313 1.10128e-06 0)
(0.0139118 1.02749e-06 0)
(0.0138996 7.8466e-07 0)
(0.013883 7.7929e-07 0)
(0.0138752 5.62569e-07 0)
(0.01386 6.38235e-07 0)
(0.0138555 4.39815e-07 0)
(0.0138401 5.98904e-07 0)
(0.013838 4.12314e-07 0)
(0.0138205 6.549e-07 0)
(0.01382 5.01396e-07 0)
(0.0137979 1.03491e-06 0)
(0.191351 0.00786914 0)
(0.18961 0.0110279 0)
(0.187176 0.0121608 0)
(0.183426 0.0120375 0)
(0.178097 0.0114217 0)
(0.171369 0.0105295 0)
(0.163864 0.0093646 0)
(0.15604 0.00792223 0)
(0.148258 0.00635751 0)
(0.140734 0.00489624 0)
(0.133607 0.00368827 0)
(0.126986 0.00276814 0)
(0.120928 0.00210402 0)
(0.115463 0.00164939 0)
(0.110558 0.00135048 0)
(0.106155 0.00115548 0)
(0.102187 0.00102283 0)
(0.0985968 0.000924622 0)
(0.0953318 0.00084467 0)
(0.0923506 0.000774718 0)
(0.0896185 0.000711094 0)
(0.0871067 0.000652454 0)
(0.0847905 0.000598535 0)
(0.0826485 0.000549414 0)
(0.080662 0.000505161 0)
(0.0788142 0.000465691 0)
(0.0770905 0.000430741 0)
(0.0754776 0.000399937 0)
(0.0739639 0.000372833 0)
(0.0725394 0.000348899 0)
(0.0711949 0.00032767 0)
(0.0699229 0.000308699 0)
(0.0687165 0.000291634 0)
(0.06757 0.000276171 0)
(0.0664782 0.000262057 0)
(0.0654367 0.000249076 0)
(0.0644416 0.000237091 0)
(0.0634896 0.000225949 0)
(0.0625775 0.000215568 0)
(0.0617027 0.000205849 0)
(0.0608626 0.000196752 0)
(0.0600553 0.000188198 0)
(0.0592785 0.000180137 0)
(0.0585308 0.000172519 0)
(0.0578101 0.000165345 0)
(0.0571154 0.000158521 0)
(0.056445 0.000152073 0)
(0.055798 0.000145944 0)
(0.0551729 0.000140101 0)
(0.0545692 0.000134494 0)
(0.0539855 0.000129166 0)
(0.0534215 0.000124032 0)
(0.052876 0.000119135 0)
(0.0523489 0.000114407 0)
(0.0518389 0.000109857 0)
(0.0513462 0.000105443 0)
(0.0508696 0.000101212 0)
(0.0504096 9.70419e-05 0)
(0.0499649 9.30297e-05 0)
(0.049536 8.91155e-05 0)
(0.0491219 8.53157e-05 0)
(0.0487231 8.15455e-05 0)
(0.0483386 7.79534e-05 0)
(0.0479689 7.44167e-05 0)
(0.047613 7.09768e-05 0)
(0.0472717 6.75469e-05 0)
(0.0469441 6.42187e-05 0)
(0.0466307 6.09021e-05 0)
(0.0463309 5.77036e-05 0)
(0.046045 5.45594e-05 0)
(0.0457724 5.15349e-05 0)
(0.0455131 4.8539e-05 0)
(0.0452673 4.56086e-05 0)
(0.0450344 4.26896e-05 0)
(0.0448152 3.98392e-05 0)
(0.0446081 3.70596e-05 0)
(0.044415 3.4389e-05 0)
(0.0442327 3.18226e-05 0)
(0.0440648 2.93128e-05 0)
(0.0439062 2.69017e-05 0)
(0.0437627 2.45082e-05 0)
(0.0436267 2.22733e-05 0)
(0.0435067 2.0059e-05 0)
(0.0433914 1.81039e-05 0)
(0.0432933 1.61178e-05 0)
(0.0431964 1.44734e-05 0)
(0.0431185 1.26898e-05 0)
(0.0430374 1.13484e-05 0)
(0.0429779 9.75117e-06 0)
(0.0429094 8.75404e-06 0)
(0.0428664 7.39937e-06 0)
(0.0428068 6.81034e-06 0)
(0.0427778 5.75072e-06 0)
(0.0427227 5.60892e-06 0)
(0.042705 4.83051e-06 0)
(0.0426497 5.12923e-06 0)
(0.042641 4.61683e-06 0)
(0.0425807 5.35168e-06 0)
(0.0425785 5.01562e-06 0)
(0.0425089 6.69274e-06 0)
(0.192595 0.00760007 0)
(0.192918 0.0101819 0)
(0.193862 0.0117894 0)
(0.194893 0.0123479 0)
(0.195412 0.0122849 0)
(0.195095 0.0118676 0)
(0.193919 0.0111473 0)
(0.19197 0.0101553 0)
(0.189378 0.00899894 0)
(0.186287 0.0078396 0)
(0.182835 0.00680688 0)
(0.179166 0.00595244 0)
(0.175397 0.00526484 0)
(0.171628 0.00471483 0)
(0.16791 0.00426748 0)
(0.164266 0.00389197 0)
(0.160708 0.00356564 0)
(0.157241 0.00327414 0)
(0.15387 0.00300933 0)
(0.150598 0.00276688 0)
(0.147429 0.00254444 0)
(0.144366 0.00234059 0)
(0.141413 0.00215433 0)
(0.138571 0.00198482 0)
(0.13584 0.0018312 0)
(0.13322 0.00169253 0)
(0.13071 0.00156776 0)
(0.128307 0.00145578 0)
(0.126008 0.00135543 0)
(0.123808 0.00126545 0)
(0.121703 0.00118464 0)
(0.119689 0.00111185 0)
(0.117761 0.0010461 0)
(0.115914 0.000986494 0)
(0.114143 0.000932249 0)
(0.112445 0.000882652 0)
(0.110815 0.000837154 0)
(0.109248 0.000795214 0)
(0.107742 0.000756462 0)
(0.106292 0.000720508 0)
(0.104896 0.000687093 0)
(0.10355 0.000655908 0)
(0.102251 0.000626727 0)
(0.100998 0.000599333 0)
(0.0997871 0.000573647 0)
(0.0986171 0.000549391 0)
(0.0974854 0.000526513 0)
(0.0963909 0.000504833 0)
(0.0953312 0.000484264 0)
(0.0943056 0.000464641 0)
(0.093312 0.000445981 0)
(0.0923502 0.000428086 0)
(0.0914179 0.000411023 0)
(0.0905154 0.000394608 0)
(0.0896405 0.000378826 0)
(0.0887936 0.000363553 0)
(0.087973 0.000348891 0)
(0.0871791 0.00033457 0)
(0.0864101 0.000320763 0)
(0.0856669 0.000307312 0)
(0.0849478 0.000294271 0)
(0.0842536 0.000281433 0)
(0.0835827 0.000269088 0)
(0.082936 0.000256959 0)
(0.0823121 0.000245168 0)
(0.0817118 0.000233496 0)
(0.0811341 0.000222164 0)
(0.0805796 0.000210929 0)
(0.0800476 0.000200057 0)
(0.0795379 0.000189339 0)
(0.079051 0.000178995 0)
(0.0785854 0.00016875 0)
(0.0781429 0.000158794 0)
(0.0777207 0.000148893 0)
(0.0773224 0.000139304 0)
(0.0769428 0.000129867 0)
(0.0765881 0.000120845 0)
(0.0762497 0.000112025 0)
(0.0759375 0.000103561 0)
(0.0756386 9.52767e-05 0)
(0.0753679 8.73218e-05 0)
(0.0751066 7.96402e-05 0)
(0.074876 7.23471e-05 0)
(0.0746494 6.54864e-05 0)
(0.0744569 5.89804e-05 0)
(0.0742614 5.30231e-05 0)
(0.0741047 4.72933e-05 0)
(0.073936 4.22512e-05 0)
(0.0738125 3.7308e-05 0)
(0.0736656 3.328e-05 0)
(0.0735725 2.92652e-05 0)
(0.0734415 2.63794e-05 0)
(0.0733753 2.34139e-05 0)
(0.0732533 2.17401e-05 0)
(0.0732104 1.97933e-05 0)
(0.0730903 1.93422e-05 0)
(0.0730666 1.82835e-05 0)
(0.0729418 1.9168e-05 0)
(0.072933 1.86297e-05 0)
(0.0727986 2.13155e-05 0)
(0.193782 0.00719888 0)
(0.194054 0.00898193 0)
(0.194917 0.0104342 0)
(0.196272 0.0112072 0)
(0.197729 0.0113946 0)
(0.198944 0.0112012 0)
(0.199749 0.0107427 0)
(0.200095 0.010081 0)
(0.199985 0.00928713 0)
(0.199454 0.00845812 0)
(0.198559 0.00768695 0)
(0.197383 0.00702688 0)
(0.196007 0.00648526 0)
(0.194503 0.00604043 0)
(0.192916 0.00566584 0)
(0.191268 0.00533971 0)
(0.18957 0.00504667 0)
(0.187828 0.0047769 0)
(0.186043 0.00452449 0)
(0.18422 0.00428612 0)
(0.182363 0.00405994 0)
(0.180477 0.00384497 0)
(0.17857 0.00364077 0)
(0.176648 0.00344713 0)
(0.174718 0.003264 0)
(0.172785 0.00309126 0)
(0.170856 0.00292874 0)
(0.168936 0.00277616 0)
(0.167029 0.0026332 0)
(0.16514 0.0024993 0)
(0.16327 0.00237397 0)
(0.161424 0.00225662 0)
(0.159603 0.00214672 0)
(0.15781 0.00204372 0)
(0.156046 0.00194715 0)
(0.154312 0.00185651 0)
(0.15261 0.00177143 0)
(0.15094 0.00169141 0)
(0.149302 0.00161615 0)
(0.147698 0.00154528 0)
(0.146126 0.00147855 0)
(0.144589 0.00141561 0)
(0.143084 0.00135618 0)
(0.141613 0.00129994 0)
(0.140174 0.00124676 0)
(0.138768 0.00119629 0)
(0.137394 0.00114848 0)
(0.136052 0.001103 0)
(0.134741 0.00105969 0)
(0.133461 0.00101827 0)
(0.132212 0.000978773 0)
(0.130993 0.000940828 0)
(0.129803 0.000904522 0)
(0.128644 0.000869587 0)
(0.127512 0.00083602 0)
(0.12641 0.000803488 0)
(0.125336 0.000772167 0)
(0.124291 0.000741644 0)
(0.123272 0.000712183 0)
(0.122282 0.000683413 0)
(0.121319 0.000655518 0)
(0.120384 0.000628113 0)
(0.119475 0.0006017 0)
(0.118594 0.00057571 0)
(0.11774 0.000550441 0)
(0.116913 0.000525399 0)
(0.116113 0.000501083 0)
(0.11534 0.000476962 0)
(0.114595 0.000453639 0)
(0.113875 0.000430553 0)
(0.113185 0.000408268 0)
(0.112518 0.000386081 0)
(0.111883 0.000364603 0)
(0.111269 0.000343139 0)
(0.110689 0.000322489 0)
(0.110128 0.000301966 0)
(0.109603 0.00028246 0)
(0.109094 0.000263097 0)
(0.108624 0.000244735 0)
(0.108164 0.000226434 0)
(0.107748 0.000209201 0)
(0.107336 0.000192113 0)
(0.106975 0.000176302 0)
(0.106607 0.000160785 0)
(0.106298 0.000146631 0)
(0.10597 0.000132833 0)
(0.105711 0.000120373 0)
(0.105419 0.000108352 0)
(0.105208 9.76697e-05 0)
(0.104946 8.76073e-05 0)
(0.10478 7.89555e-05 0)
(0.104539 7.10874e-05 0)
(0.104415 6.46294e-05 0)
(0.104189 5.91219e-05 0)
(0.104103 5.47152e-05 0)
(0.103883 5.16968e-05 0)
(0.103831 4.89994e-05 0)
(0.103609 4.86402e-05 0)
(0.103585 4.72855e-05 0)
(0.103354 4.95755e-05 0)
(0.194785 0.00691025 0)
(0.195027 0.00822457 0)
(0.195655 0.00941502 0)
(0.196693 0.0102038 0)
(0.197956 0.0105125 0)
(0.199191 0.0104423 0)
(0.200226 0.0101165 0)
(0.200992 0.00962334 0)
(0.201478 0.00902827 0)
(0.201696 0.00839474 0)
(0.201672 0.00778567 0)
(0.201453 0.00724548 0)
(0.201092 0.00678994 0)
(0.200639 0.00641044 0)
(0.20013 0.00608933 0)
(0.199584 0.00580997 0)
(0.199007 0.00555991 0)
(0.198399 0.00533081 0)
(0.197756 0.0051173 0)
(0.197076 0.00491606 0)
(0.196356 0.00472499 0)
(0.195597 0.00454273 0)
(0.194798 0.00436849 0)
(0.193961 0.00420178 0)
(0.193088 0.00404234 0)
(0.192181 0.00388994 0)
(0.191244 0.00374438 0)
(0.190277 0.00360552 0)
(0.189285 0.00347315 0)
(0.188268 0.00334689 0)
(0.187229 0.00322649 0)
(0.18617 0.0031115 0)
(0.185094 0.00300167 0)
(0.184002 0.00289665 0)
(0.182896 0.00279617 0)
(0.181778 0.0026999 0)
(0.180649 0.00260764 0)
(0.179512 0.00251903 0)
(0.178368 0.00243395 0)
(0.177218 0.00235212 0)
(0.176064 0.00227349 0)
(0.174909 0.00219775 0)
(0.173752 0.00212487 0)
(0.172596 0.00205458 0)
(0.171441 0.0019869 0)
(0.170289 0.00192142 0)
(0.169141 0.00185828 0)
(0.167999 0.00179712 0)
(0.166862 0.00173799 0)
(0.165734 0.00168057 0)
(0.164613 0.00162508 0)
(0.163502 0.00157105 0)
(0.162401 0.00151873 0)
(0.161312 0.00146764 0)
(0.160234 0.00141804 0)
(0.159169 0.00136945 0)
(0.158117 0.0013222 0)
(0.15708 0.00127567 0)
(0.156058 0.00123058 0)
(0.155052 0.00118611 0)
(0.154063 0.00114267 0)
(0.15309 0.00109956 0)
(0.152137 0.00105781 0)
(0.1512 0.00101636 0)
(0.150284 0.000976038 0)
(0.149385 0.000935761 0)
(0.148511 0.000896574 0)
(0.147653 0.000857233 0)
(0.146823 0.000819148 0)
(0.146008 0.00078104 0)
(0.145223 0.000744387 0)
(0.144452 0.000707499 0)
(0.143715 0.000671949 0)
(0.14299 0.000635862 0)
(0.142305 0.000601325 0)
(0.141627 0.000566409 0)
(0.140994 0.000533556 0)
(0.140363 0.000500287 0)
(0.139784 0.000469184 0)
(0.139199 0.000437358 0)
(0.138677 0.000407927 0)
(0.138137 0.000377759 0)
(0.137672 0.000350539 0)
(0.137176 0.000322654 0)
(0.136767 0.000298103 0)
(0.136311 0.000272778 0)
(0.135959 0.00025097 0)
(0.135538 0.000228299 0)
(0.135242 0.000209371 0)
(0.134851 0.000189699 0)
(0.134611 0.000174043 0)
(0.134243 0.000157844 0)
(0.134056 0.000145718 0)
(0.133704 0.000133291 0)
(0.133567 0.000124488 0)
(0.133223 0.000115955 0)
(0.133134 0.000110149 0)
(0.132789 0.000105456 0)
(0.132745 0.000102546 0)
(0.132389 0.000101261 0)
(0.195651 0.00667491 0)
(0.195871 0.0077052 0)
(0.19635 0.00866398 0)
(0.197117 0.00938367 0)
(0.19809 0.00975523 0)
(0.199108 0.0097931 0)
(0.200027 0.00958392 0)
(0.200766 0.00921538 0)
(0.201301 0.00875363 0)
(0.201641 0.0082498 0)
(0.201806 0.00774803 0)
(0.201831 0.00728371 0)
(0.201753 0.00687608 0)
(0.201612 0.00652658 0)
(0.201439 0.00622626 0)
(0.201253 0.00596353 0)
(0.201064 0.00572832 0)
(0.20087 0.00551348 0)
(0.20067 0.00531425 0)
(0.20046 0.00512767 0)
(0.200235 0.00495187 0)
(0.199995 0.00478551 0)
(0.199737 0.00462771 0)
(0.19946 0.0044778 0)
(0.199164 0.0043353 0)
(0.19885 0.00419979 0)
(0.198517 0.00407086 0)
(0.198165 0.00394823 0)
(0.197794 0.00383166 0)
(0.197405 0.00372065 0)
(0.196998 0.00361495 0)
(0.196572 0.00351404 0)
(0.196128 0.00341762 0)
(0.195666 0.00332528 0)
(0.195186 0.00323674 0)
(0.194688 0.00315164 0)
(0.194174 0.00306983 0)
(0.193643 0.00299086 0)
(0.193095 0.00291465 0)
(0.192531 0.00284077 0)
(0.191952 0.00276926 0)
(0.191357 0.00269967 0)
(0.190748 0.00263206 0)
(0.190126 0.00256618 0)
(0.18949 0.00250222 0)
(0.188843 0.00243959 0)
(0.188183 0.00237867 0)
(0.187511 0.00231877 0)
(0.18683 0.00226007 0)
(0.186138 0.00220212 0)
(0.185438 0.00214548 0)
(0.18473 0.00208944 0)
(0.184016 0.00203477 0)
(0.183296 0.00198058 0)
(0.18257 0.00192746 0)
(0.181839 0.00187451 0)
(0.181105 0.00182246 0)
(0.180367 0.00177001 0)
(0.179629 0.00171875 0)
(0.178888 0.00166736 0)
(0.178152 0.00161702 0)
(0.177412 0.00156621 0)
(0.17668 0.00151684 0)
(0.175944 0.00146664 0)
(0.175218 0.00141749 0)
(0.17449 0.00136726 0)
(0.173777 0.0013185 0)
(0.173061 0.00126867 0)
(0.172366 0.00122074 0)
(0.171666 0.00117157 0)
(0.170992 0.00112434 0)
(0.170307 0.0010754 0)
(0.169657 0.00102863 0)
(0.168993 0.000980015 0)
(0.168374 0.000934188 0)
(0.167736 0.000886478 0)
(0.167151 0.000842195 0)
(0.166537 0.000795681 0)
(0.165987 0.000752986 0)
(0.165399 0.000707682 0)
(0.16489 0.000666879 0)
(0.164331 0.000623302 0)
(0.163867 0.000585133 0)
(0.163335 0.000543992 0)
(0.162917 0.000508944 0)
(0.16241 0.000470661 0)
(0.16204 0.000439017 0)
(0.161555 0.000403974 0)
(0.161237 0.000376092 0)
(0.160773 0.00034484 0)
(0.160507 0.00032123 0)
(0.160057 0.000294314 0)
(0.159843 0.000275396 0)
(0.159403 0.000253201 0)
(0.159241 0.000239 0)
(0.158803 0.000221621 0)
(0.158695 0.000212121 0)
(0.158251 0.000199266 0)
(0.158197 0.00019458 0)
(0.157739 0.000185603 0)
(0.196419 0.00646508 0)
(0.196613 0.00729291 0)
(0.196984 0.00806454 0)
(0.197552 0.00868298 0)
(0.198279 0.0090636 0)
(0.199074 0.00918334 0)
(0.199832 0.00908228 0)
(0.200474 0.00882574 0)
(0.200965 0.0084736 0)
(0.2013 0.0080726 0)
(0.201496 0.00765878 0)
(0.201578 0.00726005 0)
(0.201575 0.00689483 0)
(0.201518 0.00657021 0)
(0.201434 0.006284 0)
(0.201341 0.00602958 0)
(0.201249 0.00579963 0)
(0.201162 0.00558837 0)
(0.201079 0.00539182 0)
(0.200998 0.00520756 0)
(0.200915 0.00503413 0)
(0.20083 0.00487053 0)
(0.200741 0.00471607 0)
(0.200647 0.00457012 0)
(0.200549 0.00443218 0)
(0.200446 0.00430177 0)
(0.200337 0.00417842 0)
(0.200224 0.00406172 0)
(0.200105 0.00395142 0)
(0.199981 0.00384698 0)
(0.19985 0.00374818 0)
(0.199712 0.00365441 0)
(0.199568 0.00356542 0)
(0.199416 0.00348064 0)
(0.199257 0.00339983 0)
(0.19909 0.00332253 0)
(0.198914 0.00324871 0)
(0.19873 0.00317777 0)
(0.198537 0.00310976 0)
(0.198334 0.00304396 0)
(0.198122 0.00298057 0)
(0.1979 0.00291887 0)
(0.197668 0.00285908 0)
(0.197427 0.00280068 0)
(0.197175 0.00274421 0)
(0.196913 0.00268871 0)
(0.196642 0.00263501 0)
(0.19636 0.00258193 0)
(0.196068 0.00252999 0)
(0.195764 0.00247811 0)
(0.195453 0.00242736 0)
(0.195129 0.00237633 0)
(0.194799 0.00232658 0)
(0.194457 0.00227668 0)
(0.19411 0.00222808 0)
(0.193749 0.00217899 0)
(0.193385 0.00213099 0)
(0.193006 0.00208143 0)
(0.192626 0.00203285 0)
(0.19223 0.00198265 0)
(0.191837 0.00193358 0)
(0.191429 0.00188302 0)
(0.191027 0.00183485 0)
(0.190607 0.00178479 0)
(0.190195 0.00173628 0)
(0.189762 0.00168463 0)
(0.189343 0.00163442 0)
(0.188901 0.00158092 0)
(0.188481 0.00153046 0)
(0.188037 0.00147773 0)
(0.187621 0.00142883 0)
(0.18717 0.00137605 0)
(0.186754 0.00132579 0)
(0.186297 0.00127039 0)
(0.185889 0.00121912 0)
(0.185437 0.00116424 0)
(0.185046 0.00111552 0)
(0.184598 0.00106231 0)
(0.184219 0.00101458 0)
(0.18377 0.000960696 0)
(0.183407 0.000913199 0)
(0.182965 0.000860025 0)
(0.182629 0.000815445 0)
(0.182196 0.000765215 0)
(0.181887 0.000724336 0)
(0.181458 0.000676689 0)
(0.181176 0.00063874 0)
(0.180749 0.000593528 0)
(0.180501 0.000559177 0)
(0.180079 0.000517888 0)
(0.179869 0.00048872 0)
(0.17945 0.000452439 0)
(0.179279 0.000428999 0)
(0.178856 0.000397523 0)
(0.178724 0.000379505 0)
(0.178293 0.000352564 0)
(0.178203 0.000340267 0)
(0.177763 0.000318073 0)
(0.177718 0.000312056 0)
(0.177264 0.000294388 0)
(0.197109 0.00626849 0)
(0.197273 0.0069417 0)
(0.197559 0.00756664 0)
(0.197977 0.00808759 0)
(0.198511 0.00844723 0)
(0.19911 0.00861607 0)
(0.199706 0.0086034 0)
(0.200237 0.00844671 0)
(0.200662 0.0081916 0)
(0.200969 0.00787907 0)
(0.201163 0.00754146 0)
(0.201262 0.00720292 0)
(0.201289 0.00688015 0)
(0.201268 0.00658245 0)
(0.201219 0.00631204 0)
(0.201158 0.00606652 0)
(0.201096 0.00584148 0)
(0.201038 0.0056328 0)
(0.200985 0.00543732 0)
(0.200935 0.00525317 0)
(0.200886 0.00507924 0)
(0.200839 0.00491486 0)
(0.200791 0.00475961 0)
(0.200742 0.00461303 0)
(0.200694 0.00447467 0)
(0.200646 0.00434407 0)
(0.200598 0.0042208 0)
(0.20055 0.0041044 0)
(0.200502 0.00399461 0)
(0.200454 0.00389083 0)
(0.200406 0.00379297 0)
(0.200358 0.0037003 0)
(0.20031 0.00361274 0)
(0.20026 0.00352957 0)
(0.200209 0.00345074 0)
(0.200157 0.0033755 0)
(0.200104 0.00330407 0)
(0.200048 0.00323562 0)
(0.199991 0.00317052 0)
(0.199931 0.00310775 0)
(0.199868 0.00304777 0)
(0.199802 0.00298944 0)
(0.199734 0.00293337 0)
(0.19966 0.0028785 0)
(0.199585 0.00282594 0)
(0.199504 0.00277419 0)
(0.199421 0.00272475 0)
(0.199332 0.00267577 0)
(0.19924 0.00262847 0)
(0.199141 0.00258078 0)
(0.19904 0.00253461 0)
(0.19893 0.00248755 0)
(0.198819 0.00244208 0)
(0.198699 0.00239578 0)
(0.19858 0.00235155 0)
(0.198449 0.00230632 0)
(0.19832 0.00226301 0)
(0.198176 0.0022174 0)
(0.198037 0.00217346 0)
(0.19788 0.00212641 0)
(0.197731 0.00208086 0)
(0.197563 0.00203235 0)
(0.197407 0.00198746 0)
(0.197229 0.00193979 0)
(0.197065 0.00189539 0)
(0.196874 0.00184647 0)
(0.1967 0.00179996 0)
(0.196495 0.00174728 0)
(0.196314 0.0016978 0)
(0.196101 0.00164389 0)
(0.195922 0.00159669 0)
(0.195702 0.00154552 0)
(0.195517 0.001499 0)
(0.19528 0.0014437 0)
(0.195087 0.00139183 0)
(0.194843 0.0013331 0)
(0.194659 0.00128325 0)
(0.194414 0.00122868 0)
(0.194233 0.00118258 0)
(0.193977 0.00112759 0)
(0.193794 0.00107937 0)
(0.193529 0.00102161 0)
(0.193355 0.000974296 0)
(0.193089 0.000919284 0)
(0.192931 0.000877301 0)
(0.192659 0.000826269 0)
(0.192512 0.000787794 0)
(0.192229 0.00073811 0)
(0.192094 0.000701496 0)
(0.191804 0.000653994 0)
(0.191689 0.000622042 0)
(0.191396 0.000579928 0)
(0.191305 0.000555215 0)
(0.191004 0.000518886 0)
(0.190932 0.000500339 0)
(0.190619 0.000468115 0)
(0.190566 0.000454393 0)
(0.190243 0.000426227 0)
(0.190214 0.000418555 0)
(0.189881 0.000395133 0)
(0.197704 0.00609665 0)
(0.197838 0.00665658 0)
(0.198056 0.00717554 0)
(0.198366 0.00761823 0)
(0.198757 0.00794748 0)
(0.199202 0.00813814 0)
(0.199657 0.00818588 0)
(0.200077 0.00810759 0)
(0.200428 0.00793306 0)
(0.200693 0.0076948 0)
(0.200871 0.00742137 0)
(0.200972 0.00713498 0)
(0.201014 0.00685134 0)
(0.201012 0.00658045 0)
(0.200985 0.00632703 0)
(0.200944 0.00609175 0)
(0.2009 0.00587277 0)
(0.200857 0.00566764 0)
(0.200816 0.00547409 0)
(0.200779 0.00529072 0)
(0.200743 0.00511671 0)
(0.200708 0.00495164 0)
(0.200673 0.00479528 0)
(0.200639 0.00464735 0)
(0.200605 0.00450759 0)
(0.200571 0.00437552 0)
(0.200539 0.00425085 0)
(0.200507 0.00413305 0)
(0.200478 0.00402197 0)
(0.200449 0.00391688 0)
(0.200422 0.00381784 0)
(0.200395 0.00372402 0)
(0.20037 0.00363551 0)
(0.200346 0.00355138 0)
(0.200323 0.00347192 0)
(0.2003 0.00339604 0)
(0.200278 0.00332425 0)
(0.200256 0.00325542 0)
(0.200236 0.00319029 0)
(0.200214 0.00312743 0)
(0.200194 0.00306778 0)
(0.200172 0.0030097 0)
(0.200151 0.0029543 0)
(0.200129 0.00289988 0)
(0.200107 0.00284817 0)
(0.200083 0.00279705 0)
(0.20006 0.00274873 0)
(0.200034 0.00270067 0)
(0.20001 0.00265491 0)
(0.19998 0.00260839 0)
(0.199954 0.00256388 0)
(0.199921 0.00251813 0)
(0.199892 0.00247449 0)
(0.199855 0.00242933 0)
(0.199824 0.00238682 0)
(0.199783 0.0023429 0)
(0.199748 0.00230177 0)
(0.199702 0.00225787 0)
(0.199664 0.00221661 0)
(0.199612 0.00217134 0)
(0.19957 0.00212807 0)
(0.199511 0.0020804 0)
(0.199466 0.00203728 0)
(0.199403 0.00199069 0)
(0.199355 0.00194905 0)
(0.199285 0.00190212 0)
(0.199233 0.00185893 0)
(0.199153 0.00180803 0)
(0.199096 0.00176032 0)
(0.199009 0.0017058 0)
(0.198952 0.00165907 0)
(0.198862 0.00160903 0)
(0.198804 0.0015665 0)
(0.198703 0.00151442 0)
(0.198635 0.00146462 0)
(0.198525 0.00140473 0)
(0.198458 0.00135363 0)
(0.198348 0.00129844 0)
(0.198285 0.00125446 0)
(0.198167 0.00120189 0)
(0.198097 0.00115619 0)
(0.197968 0.00109823 0)
(0.197898 0.00105039 0)
(0.197764 0.000993009 0)
(0.197703 0.000950945 0)
(0.197564 0.000899213 0)
(0.197508 0.000862675 0)
(0.197358 0.000813103 0)
(0.197304 0.000777471 0)
(0.197142 0.000728229 0)
(0.197095 0.000695056 0)
(0.19693 0.000650353 0)
(0.196895 0.000624628 0)
(0.196727 0.000587371 0)
(0.196699 0.000569168 0)
(0.196523 0.000537182 0)
(0.196498 0.00052334 0)
(0.196312 0.000494133 0)
(0.196296 0.00048541 0)
(0.196102 0.000459241 0)
(0.198275 0.0059558 0)
(0.198376 0.00643146 0)
(0.198533 0.00687135 0)
(0.19875 0.00725138 0)
(0.199023 0.00754724 0)
(0.199335 0.00773987 0)
(0.19966 0.00782154 0)
(0.199968 0.00779812 0)
(0.200236 0.00768671 0)
(0.200448 0.00751023 0)
(0.200598 0.00729176 0)
(0.20069 0.00705115 0)
(0.200736 0.00680339 0)
(0.200747 0.00655887 0)
(0.200735 0.00632363 0)
(0.200711 0.00610044 0)
(0.200682 0.00588945 0)
(0.200652 0.00568978 0)
(0.200623 0.00550004 0)
(0.200596 0.0053193 0)
(0.20057 0.0051469 0)
(0.200545 0.00498264 0)
(0.20052 0.00482638 0)
(0.200495 0.00467799 0)
(0.20047 0.00453745 0)
(0.200445 0.00440434 0)
(0.200421 0.00427853 0)
(0.200398 0.00415942 0)
(0.200377 0.00404704 0)
(0.200356 0.00394051 0)
(0.200337 0.00384011 0)
(0.200319 0.00374483 0)
(0.200303 0.00365503 0)
(0.200287 0.00356948 0)
(0.200272 0.00348882 0)
(0.200258 0.00341167 0)
(0.200245 0.00333887 0)
(0.200233 0.00326893 0)
(0.200222 0.00320296 0)
(0.200211 0.00313911 0)
(0.200202 0.00307879 0)
(0.200192 0.00301995 0)
(0.200184 0.0029642 0)
(0.200175 0.00290923 0)
(0.200168 0.00285734 0)
(0.200159 0.00280576 0)
(0.200153 0.00275726 0)
(0.200144 0.00270879 0)
(0.200139 0.00266318 0)
(0.20013 0.00261658 0)
(0.200125 0.00257234 0)
(0.200116 0.00252665 0)
(0.200111 0.00248348 0)
(0.200101 0.00243839 0)
(0.200096 0.00239631 0)
(0.200085 0.00235241 0)
(0.20008 0.00231192 0)
(0.200068 0.00226822 0)
(0.200064 0.00222782 0)
(0.20005 0.00218306 0)
(0.200044 0.00214114 0)
(0.200028 0.00209383 0)
(0.200022 0.00205144 0)
(0.200003 0.00200486 0)
(0.199997 0.00196419 0)
(0.199977 0.00191778 0)
(0.199971 0.00187626 0)
(0.199947 0.00182688 0)
(0.199939 0.00178087 0)
(0.199911 0.00172656 0)
(0.199901 0.00167934 0)
(0.199872 0.00162916 0)
(0.199864 0.0015882 0)
(0.199833 0.00153916 0)
(0.19982 0.00149178 0)
(0.199783 0.00143277 0)
(0.199767 0.00138059 0)
(0.199729 0.00132475 0)
(0.199716 0.00128118 0)
(0.199677 0.0012308 0)
(0.199661 0.00118769 0)
(0.199615 0.00113122 0)
(0.199596 0.00108414 0)
(0.199545 0.00102573 0)
(0.19953 0.000983699 0)
(0.199475 0.000931562 0)
(0.199464 0.000896645 0)
(0.199403 0.000848442 0)
(0.199392 0.000814418 0)
(0.199323 0.000765983 0)
(0.199311 0.000732154 0)
(0.19924 0.000686943 0)
(0.19923 0.000659533 0)
(0.199161 0.00062246 0)
(0.199154 0.000603944 0)
(0.199083 0.000573471 0)
(0.199075 0.000560474 0)
(0.198996 0.000531891 0)
(0.198989 0.000523782 0)
(0.198901 0.000496356 0)
(0.198891 0.00584054 0)
(0.198953 0.00624906 0)
(0.199046 0.00662621 0)
(0.199173 0.00695524 0)
(0.199333 0.00721969 0)
(0.199517 0.00740546 0)
(0.199712 0.00750487 0)
(0.199902 0.00751859 0)
(0.200072 0.00745525 0)
(0.200213 0.00732933 0)
(0.200318 0.00715773 0)
(0.200387 0.00695705 0)
(0.200427 0.00674122 0)
(0.200442 0.00652097 0)
(0.200442 0.00630333 0)
(0.200432 0.00609257 0)
(0.200417 0.00589037 0)
(0.200401 0.00569714 0)
(0.200385 0.00551235 0)
(0.200369 0.0053355 0)
(0.200355 0.00516604 0)
(0.20034 0.0050039 0)
(0.200325 0.00484902 0)
(0.200311 0.00470134 0)
(0.200296 0.004561 0)
(0.200281 0.00442769 0)
(0.200266 0.00430153 0)
(0.200252 0.00418181 0)
(0.200239 0.00406879 0)
(0.200227 0.00396143 0)
(0.200215 0.00386018 0)
(0.200204 0.00376386 0)
(0.200194 0.00367312 0)
(0.200184 0.00358648 0)
(0.200175 0.00350491 0)
(0.200167 0.00342671 0)
(0.20016 0.00335301 0)
(0.200152 0.00328202 0)
(0.200146 0.0032152 0)
(0.20014 0.00315039 0)
(0.200135 0.00308934 0)
(0.20013 0.00302962 0)
(0.200126 0.0029733 0)
(0.200121 0.00291758 0)
(0.200118 0.00286522 0)
(0.200114 0.00281308 0)
(0.200112 0.00276409 0)
(0.200108 0.00271489 0)
(0.200107 0.00266882 0)
(0.200104 0.00262168 0)
(0.200103 0.00257711 0)
(0.2001 0.00253114 0)
(0.2001 0.00248788 0)
(0.200097 0.0024426 0)
(0.200097 0.00240038 0)
(0.200094 0.00235597 0)
(0.200094 0.00231521 0)
(0.200092 0.00227116 0)
(0.200093 0.00223062 0)
(0.200091 0.00218553 0)
(0.200092 0.00214416 0)
(0.200089 0.00209707 0)
(0.20009 0.00205487 0)
(0.200085 0.00200794 0)
(0.200087 0.00196718 0)
(0.200083 0.0019204 0)
(0.200086 0.00187879 0)
(0.200081 0.00182993 0)
(0.200084 0.00178486 0)
(0.200078 0.00173176 0)
(0.200078 0.00168432 0)
(0.20007 0.00163365 0)
(0.200071 0.00159152 0)
(0.200066 0.00154344 0)
(0.200068 0.00149716 0)
(0.200061 0.0014404 0)
(0.200058 0.00138816 0)
(0.200049 0.00133231 0)
(0.200046 0.00128753 0)
(0.200038 0.00123754 0)
(0.200037 0.00119545 0)
(0.200028 0.00114042 0)
(0.200026 0.00109496 0)
(0.200012 0.00103642 0)
(0.20001 0.000994854 0)
(0.199993 0.000941753 0)
(0.199993 0.000907428 0)
(0.199974 0.000859848 0)
(0.199975 0.000826932 0)
(0.199955 0.000780202 0)
(0.199954 0.000746138 0)
(0.199933 0.000701882 0)
(0.199929 0.000672519 0)
(0.19991 0.000635901 0)
(0.199907 0.000616254 0)
(0.199889 0.000586848 0)
(0.199887 0.000575157 0)
(0.199864 0.000547235 0)
(0.199863 0.000541237 0)
(0.199833 0.000512881 0)
(0.199568 0.0057748 0)
(0.199585 0.0061422 0)
(0.199613 0.00648067 0)
(0.199652 0.00677763 0)
(0.199702 0.00702031 0)
(0.199761 0.00719772 0)
(0.199825 0.0073028 0)
(0.199889 0.00733423 0)
(0.199948 0.00729659 0)
(0.199999 0.00719963 0)
(0.200039 0.00705608 0)
(0.200067 0.00687998 0)
(0.200085 0.00668405 0)
(0.200095 0.00647918 0)
(0.200098 0.00627292 0)
(0.200098 0.00607053 0)
(0.200096 0.00587444 0)
(0.200093 0.00568591 0)
(0.200089 0.00550485 0)
(0.200086 0.00533113 0)
(0.200083 0.00516422 0)
(0.20008 0.00500412 0)
(0.200077 0.00485075 0)
(0.200073 0.00470416 0)
(0.20007 0.00456454 0)
(0.200066 0.00443161 0)
(0.200062 0.00430577 0)
(0.200059 0.00418612 0)
(0.200056 0.00407313 0)
(0.200053 0.00396567 0)
(0.20005 0.00386437 0)
(0.200047 0.00376779 0)
(0.200044 0.00367687 0)
(0.200042 0.00358986 0)
(0.20004 0.00350805 0)
(0.200038 0.00342947 0)
(0.200036 0.00335551 0)
(0.200034 0.0032842 0)
(0.200033 0.00321707 0)
(0.200032 0.0031519 0)
(0.200031 0.00309053 0)
(0.20003 0.00303046 0)
(0.200029 0.00297399 0)
(0.200029 0.00291805 0)
(0.200028 0.00286549 0)
(0.200027 0.00281317 0)
(0.200028 0.00276396 0)
(0.200027 0.0027144 0)
(0.200027 0.002668 0)
(0.200027 0.00262062 0)
(0.200028 0.00257583 0)
(0.200027 0.00252986 0)
(0.200028 0.00248657 0)
(0.200028 0.00244138 0)
(0.200029 0.00239924 0)
(0.200028 0.00235455 0)
(0.200029 0.0023134 0)
(0.200029 0.00226895 0)
(0.200031 0.00222816 0)
(0.200031 0.00218262 0)
(0.200033 0.00214159 0)
(0.200032 0.00209509 0)
(0.200034 0.00205332 0)
(0.200033 0.00200624 0)
(0.200035 0.00196493 0)
(0.200035 0.00191748 0)
(0.200037 0.00187497 0)
(0.200037 0.00182612 0)
(0.20004 0.0017815 0)
(0.200039 0.00173047 0)
(0.20004 0.0016839 0)
(0.200039 0.00163347 0)
(0.20004 0.00158876 0)
(0.200041 0.00153935 0)
(0.200043 0.00149242 0)
(0.200044 0.00143833 0)
(0.200044 0.00138807 0)
(0.200043 0.00133362 0)
(0.200041 0.00128761 0)
(0.200042 0.00123561 0)
(0.200042 0.00119263 0)
(0.200043 0.00113733 0)
(0.200044 0.00109449 0)
(0.200042 0.00103689 0)
(0.200043 0.000997573 0)
(0.200038 0.000943886 0)
(0.20004 0.000909135 0)
(0.200035 0.0008611 0)
(0.200038 0.000826933 0)
(0.200034 0.000782198 0)
(0.200035 0.000747225 0)
(0.200032 0.000705761 0)
(0.20003 0.000675015 0)
(0.200028 0.000638818 0)
(0.200026 0.000618302 0)
(0.200025 0.00058729 0)
(0.200024 0.000577595 0)