/*--------------------------------*- C++ -*----------------------------------*\
| =========                 |                                                 |
| \\      /  F ield         | OpenFOAM: The Open Source CFD Toolbox           |
|  \\    /   O peration     | Version:  2.3.0                                 |
|   \\  /    A nd           | Web:      www.OpenFOAM.org                      |
|    \\/     M anipulation  |                                                 |
\*---------------------------------------------------------------------------*/
FoamFile
{
    version     2.0;
    format      ascii;
    class       surfaceScalarField;
    location    "0.85";
    object      phi_0;
}
// * * * * * * * * * * * * * * * * * * * * * * * * * * * * * * * * * * * * * //

dimensions      [0 3 -1 0 0 0 0];

internalField   nonuniform List<scalar> 
3859
(
2.88216e-08
2.77032e-09
-3.15919e-08
2.53567e-08
3.46489e-09
2.1915e-08
3.44165e-09
1.87276e-08
3.18741e-09
1.58267e-08
2.90088e-09
1.32905e-08
2.53627e-09
1.12128e-08
2.07769e-09
9.60778e-09
1.605e-09
8.43764e-09
1.17014e-09
7.6165e-09
8.21141e-10
7.04626e-09
5.70236e-10
6.64266e-09
4.03606e-10
6.34343e-09
2.99225e-10
6.10602e-09
2.3741e-10
5.90219e-09
2.03831e-10
5.71568e-09
1.86515e-10
5.53899e-09
1.76684e-10
5.36982e-09
1.69171e-10
5.20822e-09
1.61598e-10
5.05496e-09
1.53259e-10
4.91072e-09
1.44246e-10
4.77578e-09
1.34934e-10
4.65007e-09
1.25718e-10
4.53316e-09
1.1691e-10
4.42445e-09
1.0871e-10
4.32323e-09
1.01218e-10
4.22877e-09
9.44566e-11
4.14037e-09
8.84042e-11
4.05736e-09
8.30025e-11
3.97918e-09
7.81823e-11
3.90532e-09
7.38664e-11
3.83533e-09
6.99869e-11
3.76885e-09
6.6477e-11
3.70557e-09
6.32859e-11
3.6452e-09
6.03635e-11
3.58753e-09
5.76769e-11
3.53234e-09
5.51901e-11
3.47945e-09
5.2884e-11
3.42872e-09
5.07323e-11
3.37999e-09
4.87258e-11
3.33315e-09
4.68437e-11
3.28807e-09
4.50835e-11
3.24464e-09
4.34268e-11
3.20276e-09
4.18757e-11
3.16235e-09
4.04117e-11
3.12331e-09
3.90412e-11
3.08557e-09
3.77439e-11
3.04904e-09
3.65301e-11
3.01366e-09
3.53768e-11
2.97936e-09
3.42986e-11
2.94609e-09
3.32694e-11
2.91378e-09
3.23082e-11
2.8824e-09
3.13849e-11
2.85187e-09
3.05245e-11
2.82218e-09
2.9691e-11
2.79327e-09
2.89173e-11
2.76511e-09
2.81601e-11
2.73765e-09
2.74609e-11
2.71088e-09
2.67683e-11
2.68474e-09
2.61337e-11
2.65925e-09
2.54957e-11
2.63433e-09
2.49178e-11
2.61e-09
2.43257e-11
2.58621e-09
2.37984e-11
2.56296e-09
2.32447e-11
2.5402e-09
2.27627e-11
2.51796e-09
2.22416e-11
2.49616e-09
2.18007e-11
2.47485e-09
2.13065e-11
2.45395e-09
2.09045e-11
2.43351e-09
2.04313e-11
2.41345e-09
2.0067e-11
2.39384e-09
1.96099e-11
2.37455e-09
1.92821e-11
2.35572e-09
1.88372e-11
2.33717e-09
1.85458e-11
2.31906e-09
1.81083e-11
2.30121e-09
1.78554e-11
2.28379e-09
1.74201e-11
2.26658e-09
1.72094e-11
2.24981e-09
1.67712e-11
2.2332e-09
1.6606e-11
2.21704e-09
1.61606e-11
2.20099e-09
1.60478e-11
2.18541e-09
1.55876e-11
2.16987e-09
1.55387e-11
2.15481e-09
1.50549e-11
2.13973e-09
1.50829e-11
2.12516e-09
1.45657e-11
2.11047e-09
1.46899e-11
2.09635e-09
1.41256e-11
2.08197e-09
1.43725e-11
2.06823e-09
1.37432e-11
2.05408e-09
1.41503e-11
2.04065e-09
1.3429e-11
2.0266e-09
1.40558e-11
2.0134e-09
1.31971e-11
1.99923e-09
1.41655e-11
1.98612e-09
1.31103e-11
1.64227e-11
3.62376e-08
2.47166e-09
-3.5939e-08
3.60723e-08
3.63024e-09
3.53686e-08
4.14538e-09
3.43819e-08
4.17411e-09
3.32252e-08
4.05751e-09
3.19187e-08
3.84277e-09
3.0486e-08
3.51044e-09
2.90038e-08
3.08721e-09
2.75475e-08
2.62643e-09
2.61717e-08
2.19699e-09
2.49001e-08
1.8418e-09
2.37347e-08
1.56896e-09
2.26727e-08
1.36127e-09
2.17125e-08
1.19764e-09
2.08445e-08
1.07176e-09
2.00584e-08
9.72635e-10
1.9344e-08
8.91093e-10
1.86922e-08
8.20945e-10
1.80953e-08
7.58559e-10
1.75465e-08
7.02016e-10
1.70404e-08
6.50348e-10
1.65722e-08
6.03085e-10
1.6138e-08
5.59961e-10
1.57341e-08
5.2078e-10
1.53575e-08
4.85329e-10
1.50054e-08
4.53353e-10
1.46753e-08
4.24569e-10
1.4365e-08
3.98683e-10
1.40726e-08
3.75382e-10
1.37964e-08
3.54364e-10
1.3535e-08
3.35342e-10
1.32869e-08
3.18061e-10
1.30511e-08
3.02291e-10
1.28265e-08
2.8784e-10
1.26123e-08
2.74538e-10
1.24078e-08
2.62251e-10
1.22121e-08
2.50856e-10
1.20247e-08
2.40264e-10
1.18451e-08
2.30386e-10
1.16726e-08
2.21164e-10
1.15069e-08
2.12529e-10
1.13476e-08
2.04445e-10
1.11942e-08
1.96854e-10
1.10463e-08
1.89735e-10
1.09037e-08
1.83036e-10
1.0766e-08
1.76744e-10
1.06329e-08
1.70811e-10
1.05042e-08
1.65233e-10
1.03796e-08
1.5996e-10
1.02589e-08
1.54995e-10
1.01419e-08
1.50289e-10
1.00283e-08
1.45853e-10
9.9181e-09
1.41633e-10
9.81097e-09
1.37651e-10
9.70682e-09
1.33847e-10
9.60548e-09
1.30256e-10
9.50683e-09
1.26808e-10
9.41074e-09
1.23553e-10
9.3171e-09
1.2041e-10
9.22579e-09
1.17446e-10
9.13672e-09
1.14565e-10
9.04978e-09
1.11854e-10
8.96491e-09
1.09199e-10
8.882e-09
1.06709e-10
8.80099e-09
1.04248e-10
8.7218e-09
1.01954e-10
8.64438e-09
9.9662e-11
8.56864e-09
9.75402e-11
8.49456e-09
9.53941e-11
8.42203e-09
9.34287e-11
8.35106e-09
9.14071e-11
8.28154e-09
8.95851e-11
8.21348e-09
8.76703e-11
8.14678e-09
8.598e-11
8.08146e-09
8.41579e-11
8.01741e-09
8.25904e-11
7.95467e-09
8.08476e-11
7.89313e-09
7.93999e-11
7.83283e-09
7.77225e-11
7.77364e-09
7.63957e-11
7.71564e-09
7.47735e-11
7.65868e-09
7.35679e-11
7.60284e-09
7.19937e-11
7.54797e-09
7.09174e-11
7.49418e-09
6.93802e-11
7.44127e-09
6.84516e-11
7.38938e-09
6.69412e-11
7.33828e-09
6.61815e-11
7.28816e-09
6.46904e-11
7.23872e-09
6.41323e-11
7.19019e-09
6.26525e-11
7.14222e-09
6.23412e-11
7.0951e-09
6.08666e-11
7.04838e-09
6.08642e-11
7.00242e-09
5.93889e-11
6.95669e-09
5.97916e-11
6.91158e-09
5.83073e-11
6.86638e-09
5.93604e-11
6.82149e-09
5.80087e-11
6.31384e-11
4.02781e-08
2.34686e-09
-4.01533e-08
4.07051e-08
3.20328e-09
4.09713e-08
3.8792e-09
4.10463e-08
4.09904e-09
4.10064e-08
4.09745e-09
4.08474e-08
4.00177e-09
4.05337e-08
3.82412e-09
4.00653e-08
3.55564e-09
3.94717e-08
3.22002e-09
3.87963e-08
2.87235e-09
3.80761e-08
2.56201e-09
3.73348e-08
2.31035e-09
3.65851e-08
2.11097e-09
3.58333e-08
1.94939e-09
3.50876e-08
1.81747e-09
3.43529e-08
1.70734e-09
3.36321e-08
1.6119e-09
3.2927e-08
1.52601e-09
3.22391e-08
1.44651e-09
3.15694e-08
1.37171e-09
3.09189e-08
1.30083e-09
3.02884e-08
1.23354e-09
2.96786e-08
1.16976e-09
2.90899e-08
1.10951e-09
2.85224e-08
1.05279e-09
2.79763e-08
9.99548e-10
2.74511e-08
9.49719e-10
2.69466e-08
9.0318e-10
2.64622e-08
8.59765e-10
2.59973e-08
8.19278e-10
2.55511e-08
7.81519e-10
2.51229e-08
7.46278e-10
2.47118e-08
7.13362e-10
2.43171e-08
6.82585e-10
2.39379e-08
6.5378e-10
2.35733e-08
6.26791e-10
2.32227e-08
6.01481e-10
2.28852e-08
5.7772e-10
2.25602e-08
5.554e-10
2.2247e-08
5.34412e-10
2.19448e-08
5.14667e-10
2.16532e-08
4.96073e-10
2.13715e-08
4.78557e-10
2.10992e-08
4.62039e-10
2.08358e-08
4.46458e-10
2.05808e-08
4.31742e-10
2.03337e-08
4.17842e-10
2.00943e-08
4.04692e-10
1.9862e-08
3.92251e-10
1.96365e-08
3.80459e-10
1.94175e-08
3.69284e-10
1.92047e-08
3.58669e-10
1.89978e-08
3.48592e-10
1.87964e-08
3.38998e-10
1.86004e-08
3.29873e-10
1.84095e-08
3.21165e-10
1.82234e-08
3.12866e-10
1.8042e-08
3.04927e-10
1.78651e-08
2.97347e-10
1.76925e-08
2.90077e-10
1.75239e-08
2.83126e-10
1.73593e-08
2.7644e-10
1.71985e-08
2.70037e-10
1.70413e-08
2.63863e-10
1.68876e-08
2.57941e-10
1.67374e-08
2.52216e-10
1.65903e-08
2.46719e-10
1.64465e-08
2.41388e-10
1.63056e-08
2.36266e-10
1.61678e-08
2.31284e-10
1.60327e-08
2.26493e-10
1.59004e-08
2.21821e-10
1.57708e-08
2.17325e-10
1.56438e-08
2.12929e-10
1.55193e-08
2.087e-10
1.53973e-08
2.04548e-10
1.52776e-08
2.00563e-10
1.51604e-08
1.96634e-10
1.50452e-08
1.92871e-10
1.49325e-08
1.89151e-10
1.48217e-08
1.85598e-10
1.47132e-08
1.82068e-10
1.46064e-08
1.78723e-10
1.4502e-08
1.7538e-10
1.43991e-08
1.72238e-10
1.42985e-08
1.6909e-10
1.41992e-08
1.66157e-10
1.41022e-08
1.63212e-10
1.40064e-08
1.60506e-10
1.39127e-08
1.57789e-10
1.38201e-08
1.55338e-10
1.37295e-08
1.52888e-10
1.36396e-08
1.50737e-10
1.35519e-08
1.48614e-10
1.34645e-08
1.46818e-10
1.33791e-08
1.4516e-10
1.32937e-08
1.43748e-10
1.32099e-08
1.43093e-10
1.31257e-08
1.42224e-10
1.46339e-10
4.47471e-08
2.29285e-09
-4.46931e-08
4.50641e-08
2.88634e-09
4.54661e-08
3.47718e-09
4.57787e-08
3.78646e-09
4.60193e-08
3.85676e-09
4.62149e-08
3.80622e-09
4.63436e-08
3.69542e-09
4.63786e-08
3.52063e-09
4.63098e-08
3.28879e-09
4.61512e-08
3.03098e-09
4.59284e-08
2.78485e-09
4.56621e-08
2.57665e-09
4.53636e-08
2.40944e-09
4.50374e-08
2.27559e-09
4.4689e-08
2.16591e-09
4.43229e-08
2.07344e-09
4.3942e-08
1.99276e-09
4.35482e-08
1.91982e-09
4.31428e-08
1.85192e-09
4.27271e-08
1.78743e-09
4.23024e-08
1.72549e-09
4.18702e-08
1.66569e-09
4.14321e-08
1.60791e-09
4.09895e-08
1.55212e-09
4.05439e-08
1.49838e-09
4.00967e-08
1.44672e-09
3.96493e-08
1.39718e-09
3.92027e-08
1.34973e-09
3.87581e-08
1.30436e-09
3.83164e-08
1.26095e-09
3.78785e-08
1.21945e-09
3.74451e-08
1.17973e-09
3.70167e-08
1.14172e-09
3.6594e-08
1.1053e-09
3.61774e-08
1.07041e-09
3.57672e-08
1.03695e-09
3.53638e-08
1.00489e-09
3.49674e-08
9.74107e-10
3.45782e-08
9.44616e-10
3.41963e-08
9.16297e-10
3.38218e-08
8.89175e-10
3.34548e-08
8.63127e-10
3.30951e-08
8.38198e-10
3.27429e-08
8.14251e-10
3.2398e-08
7.91351e-10
3.20604e-08
7.69346e-10
3.17299e-08
7.4832e-10
3.14065e-08
7.281e-10
3.109e-08
7.08795e-10
3.07802e-08
6.90207e-10
3.0477e-08
6.72475e-10
3.01803e-08
6.55371e-10
2.98899e-08
6.39069e-10
2.96055e-08
6.23306e-10
2.93271e-08
6.08298e-10
2.90545e-08
5.93742e-10
2.87875e-08
5.79903e-10
2.8526e-08
5.66428e-10
2.82697e-08
5.53642e-10
2.80187e-08
5.41132e-10
2.77725e-08
5.29295e-10
2.75313e-08
5.17645e-10
2.72947e-08
5.0666e-10
2.70627e-08
4.95775e-10
2.68351e-08
4.85558e-10
2.6612e-08
4.75348e-10
2.63929e-08
4.65828e-10
2.61781e-08
4.5621e-10
2.5967e-08
4.47322e-10
2.57601e-08
4.38227e-10
2.55566e-08
4.29911e-10
2.53572e-08
4.21275e-10
2.5161e-08
4.13486e-10
2.49687e-08
4.05246e-10
2.47795e-08
3.9795e-10
2.4594e-08
3.90049e-10
2.44113e-08
3.83219e-10
2.42323e-08
3.75611e-10
2.4056e-08
3.69225e-10
2.38833e-08
3.61872e-10
2.37129e-08
3.55925e-10
2.35462e-08
3.48783e-10
2.33816e-08
3.43288e-10
2.32207e-08
3.36326e-10
2.30616e-08
3.31296e-10
2.29062e-08
3.24505e-10
2.27524e-08
3.1997e-10
2.26023e-08
3.13339e-10
2.24534e-08
3.09352e-10
2.23083e-08
3.02893e-10
2.21642e-08
2.99523e-10
2.20238e-08
2.93275e-10
2.18839e-08
2.90606e-10
2.17478e-08
2.84671e-10
2.16119e-08
2.82767e-10
2.14796e-08
2.77418e-10
2.13471e-08
2.76276e-10
2.12178e-08
2.72414e-10
2.10878e-08
2.72237e-10
2.72742e-10
4.96967e-08
2.23093e-09
-4.96348e-08
4.99134e-08
2.66965e-09
5.0269e-08
3.12153e-09
5.06109e-08
3.44458e-09
5.08933e-08
3.57439e-09
5.11326e-08
3.56686e-09
5.13411e-08
3.48691e-09
5.15029e-08
3.35883e-09
5.16011e-08
3.19061e-09
5.16342e-08
2.99787e-09
5.16154e-08
2.80366e-09
5.15628e-08
2.62927e-09
5.14871e-08
2.48519e-09
5.13923e-08
2.37029e-09
5.12816e-08
2.27662e-09
5.11574e-08
2.19766e-09
5.10212e-08
2.12894e-09
5.08738e-08
2.06729e-09
5.07151e-08
2.01057e-09
5.05453e-08
1.95729e-09
5.03642e-08
1.90658e-09
5.0172e-08
1.85789e-09
4.99689e-08
1.81096e-09
4.97555e-08
1.76561e-09
4.9532e-08
1.72184e-09
4.92992e-08
1.67957e-09
4.90575e-08
1.63883e-09
4.88077e-08
1.59955e-09
4.85503e-08
1.56175e-09
4.8286e-08
1.52528e-09
4.80153e-08
1.49016e-09
4.77388e-08
1.45619e-09
4.74571e-08
1.42342e-09
4.71707e-08
1.39165e-09
4.68802e-08
1.36094e-09
4.65861e-08
1.33108e-09
4.62888e-08
1.30219e-09
4.59888e-08
1.27405e-09
4.56866e-08
1.24681e-09
4.53827e-08
1.22024e-09
4.50773e-08
1.19453e-09
4.47711e-08
1.16942e-09
4.44641e-08
1.14515e-09
4.41569e-08
1.12141e-09
4.38498e-08
1.09852e-09
4.3543e-08
1.07607e-09
4.32369e-08
1.05447e-09
4.29317e-08
1.03326e-09
4.26276e-08
1.01289e-09
4.2325e-08
9.92826e-10
4.20239e-08
9.73621e-10
4.17246e-08
9.54636e-10
4.14271e-08
9.36527e-10
4.11319e-08
9.18545e-10
4.08387e-08
9.01465e-10
4.05481e-08
8.84411e-10
4.02597e-08
8.68296e-10
3.9974e-08
8.52094e-10
3.96908e-08
8.36885e-10
3.94104e-08
8.2146e-10
3.91326e-08
8.071e-10
3.88579e-08
7.92383e-10
3.85857e-08
7.78817e-10
3.83168e-08
7.64741e-10
3.80504e-08
7.51922e-10
3.77873e-08
7.38417e-10
3.75269e-08
7.26306e-10
3.72698e-08
7.13302e-10
3.70152e-08
7.01863e-10
3.67642e-08
6.89299e-10
3.65156e-08
6.78497e-10
3.62705e-08
6.66314e-10
3.60279e-08
6.56126e-10
3.57889e-08
6.44257e-10
3.55522e-08
6.34673e-10
3.53192e-08
6.23056e-10
3.50883e-08
6.14068e-10
3.48613e-08
6.02651e-10
3.46362e-08
5.94259e-10
3.44151e-08
5.82991e-10
3.41958e-08
5.75216e-10
3.39806e-08
5.64039e-10
3.37669e-08
5.56919e-10
3.35575e-08
5.45794e-10
3.33494e-08
5.39365e-10
3.31456e-08
5.28279e-10
3.2943e-08
5.22598e-10
3.27448e-08
5.11537e-10
3.25475e-08
5.06689e-10
3.23547e-08
4.95678e-10
3.21624e-08
4.91752e-10
3.19748e-08
4.8087e-10
3.17875e-08
4.77965e-10
3.16048e-08
4.67394e-10
3.1422e-08
4.65569e-10
3.12437e-08
4.55722e-10
3.10649e-08
4.5504e-10
3.08904e-08
4.46924e-10
3.07148e-08
4.47781e-10
4.42986e-10
5.51392e-08
2.15618e-09
-5.50644e-08
5.53085e-08
2.50026e-09
5.55938e-08
2.83629e-09
5.591e-08
3.12832e-09
5.61942e-08
3.29019e-09
5.6433e-08
3.3281e-09
5.66383e-08
3.28166e-09
5.68106e-08
3.18647e-09
5.69407e-08
3.06049e-09
5.70237e-08
2.91491e-09
5.70647e-08
2.76264e-09
5.70762e-08
2.61779e-09
5.70697e-08
2.4917e-09
5.70516e-08
2.3884e-09
5.70247e-08
2.30349e-09
5.69909e-08
2.2315e-09
5.69513e-08
2.16851e-09
5.69067e-08
2.11186e-09
5.68573e-08
2.05998e-09
5.68029e-08
2.01165e-09
5.67433e-08
1.9662e-09
5.66782e-08
1.92301e-09
5.66073e-08
1.88187e-09
5.65305e-08
1.84243e-09
5.64476e-08
1.80472e-09
5.63587e-08
1.76848e-09
5.62637e-08
1.73384e-09
5.61627e-08
1.70055e-09
5.60557e-08
1.66876e-09
5.59428e-08
1.63816e-09
5.5824e-08
1.60893e-09
5.56995e-08
1.58069e-09
5.55693e-08
1.55367e-09
5.54335e-08
1.52744e-09
5.52921e-08
1.5023e-09
5.51454e-08
1.47779e-09
5.49933e-08
1.45427e-09
5.48361e-08
1.43122e-09
5.46739e-08
1.40911e-09
5.45067e-08
1.38734e-09
5.43348e-08
1.36648e-09
5.41584e-08
1.34585e-09
5.39774e-08
1.32612e-09
5.37923e-08
1.30652e-09
5.3603e-08
1.28783e-09
5.34099e-08
1.26915e-09
5.3213e-08
1.25142e-09
5.30126e-08
1.23358e-09
5.28088e-08
1.21674e-09
5.2602e-08
1.19965e-09
5.23919e-08
1.18363e-09
5.21794e-08
1.16723e-09
5.19639e-08
1.15197e-09
5.17463e-08
1.13618e-09
5.15261e-08
1.12162e-09
5.13042e-08
1.10637e-09
5.108e-08
1.09247e-09
5.08544e-08
1.07768e-09
5.06269e-08
1.06439e-09
5.03984e-08
1.05e-09
5.01682e-08
1.03729e-09
4.99373e-08
1.02324e-09
4.97051e-08
1.01107e-09
4.94725e-08
9.97306e-10
4.92388e-08
9.85654e-10
4.90051e-08
9.7211e-10
4.87704e-08
9.60964e-10
4.85361e-08
9.47577e-10
4.83011e-08
9.36926e-10
4.80667e-08
9.23647e-10
4.78317e-08
9.13477e-10
4.75978e-08
9.00256e-10
4.73634e-08
8.90573e-10
4.71303e-08
8.77348e-10
4.68968e-08
8.68167e-10
4.66649e-08
8.5488e-10
4.64328e-08
8.46222e-10
4.62026e-08
8.32831e-10
4.59722e-08
8.24717e-10
4.5744e-08
8.11183e-10
4.55155e-08
8.03656e-10
4.52896e-08
7.89926e-10
4.50635e-08
7.83053e-10
4.48402e-08
7.69104e-10
4.46166e-08
7.62938e-10
4.43961e-08
7.48782e-10
4.41753e-08
7.43403e-10
4.39578e-08
7.29045e-10
4.37399e-08
7.24557e-10
4.35255e-08
7.10072e-10
4.33107e-08
7.06576e-10
4.30995e-08
6.921e-10
4.28877e-08
6.89719e-10
4.26796e-08
6.75499e-10
4.24708e-08
6.7435e-10
4.22657e-08
6.60863e-10
4.20595e-08
6.61197e-10
4.18572e-08
6.49312e-10
4.16533e-08
6.51597e-10
6.42219e-10
6.11288e-08
2.07682e-09
-6.10495e-08
6.12754e-08
2.35366e-09
6.14981e-08
2.6136e-09
6.17729e-08
2.85355e-09
6.20406e-08
3.02247e-09
6.22756e-08
3.09312e-09
6.24734e-08
3.08382e-09
6.26382e-08
3.02173e-09
6.27695e-08
2.92918e-09
6.28649e-08
2.81948e-09
6.29257e-08
2.70184e-09
6.29585e-08
2.58503e-09
6.29725e-08
2.47763e-09
6.29759e-08
2.38502e-09
6.29723e-08
2.30707e-09
6.29638e-08
2.24007e-09
6.29514e-08
2.1809e-09
6.29361e-08
2.1271e-09
6.29186e-08
2.0775e-09
6.28992e-08
2.03107e-09
6.28779e-08
1.9875e-09
6.28547e-08
1.94615e-09
6.28296e-08
1.90703e-09
6.28024e-08
1.86961e-09
6.2773e-08
1.83409e-09
6.27415e-08
1.80001e-09
6.27077e-08
1.76768e-09
6.26716e-08
1.73662e-09
6.26331e-08
1.70724e-09
6.25923e-08
1.67895e-09
6.2549e-08
1.65224e-09
6.25033e-08
1.62644e-09
6.24548e-08
1.6021e-09
6.24038e-08
1.57846e-09
6.23499e-08
1.55619e-09
6.22933e-08
1.53441e-09
6.22336e-08
1.51394e-09
6.21711e-08
1.49377e-09
6.21053e-08
1.47488e-09
6.20365e-08
1.45612e-09
6.19644e-08
1.43863e-09
6.18891e-08
1.4211e-09
6.18104e-08
1.40487e-09
6.17285e-08
1.38843e-09
6.1643e-08
1.37333e-09
6.15543e-08
1.35786e-09
6.14619e-08
1.34378e-09
6.13663e-08
1.32915e-09
6.12671e-08
1.31601e-09
6.11646e-08
1.30211e-09
6.10584e-08
1.28981e-09
6.09491e-08
1.27654e-09
6.08361e-08
1.26499e-09
6.072e-08
1.25225e-09
6.06003e-08
1.24139e-09
6.04776e-08
1.22908e-09
6.03512e-08
1.21884e-09
6.0222e-08
1.20686e-09
6.00892e-08
1.19719e-09
5.99537e-08
1.18545e-09
5.98147e-08
1.17629e-09
5.96733e-08
1.16472e-09
5.95283e-08
1.15602e-09
5.93811e-08
1.14455e-09
5.92305e-08
1.13627e-09
5.90778e-08
1.12481e-09
5.89218e-08
1.11694e-09
5.8764e-08
1.10541e-09
5.86029e-08
1.09793e-09
5.84403e-08
1.08627e-09
5.82746e-08
1.07916e-09
5.81076e-08
1.06731e-09
5.79376e-08
1.06056e-09
5.77665e-08
1.04846e-09
5.75926e-08
1.04209e-09
5.74178e-08
1.02967e-09
5.72403e-08
1.02368e-09
5.70622e-08
1.01091e-09
5.68816e-08
1.00532e-09
5.67006e-08
9.92167e-10
5.65173e-08
9.87016e-10
5.63338e-08
9.73425e-10
5.61481e-08
9.68778e-10
5.59624e-08
9.54747e-10
5.57747e-08
9.50641e-10
5.55873e-08
9.36214e-10
5.53979e-08
9.32738e-10
5.52091e-08
9.17932e-10
5.50184e-08
9.15176e-10
5.48284e-08
9.00131e-10
5.46368e-08
8.9819e-10
5.44458e-08
8.83078e-10
5.42534e-08
8.82124e-10
5.40617e-08
8.67214e-10
5.38686e-08
8.67434e-10
5.36762e-08
8.53222e-10
5.34824e-08
8.55037e-10
5.32895e-08
8.42182e-10
5.30952e-08
8.45941e-10
8.35438e-10
6.77288e-08
1.99856e-09
-6.76506e-08
6.78576e-08
2.22489e-09
6.80379e-08
2.43325e-09
6.82659e-08
2.62561e-09
6.8506e-08
2.78237e-09
6.87293e-08
2.86982e-09
6.8921e-08
2.89211e-09
6.90792e-08
2.86348e-09
6.92066e-08
2.80177e-09
6.93049e-08
2.72122e-09
6.9375e-08
2.63178e-09
6.94199e-08
2.54008e-09
6.94455e-08
2.45203e-09
6.94587e-08
2.37182e-09
6.94642e-08
2.30155e-09
6.94645e-08
2.23984e-09
6.94606e-08
2.18472e-09
6.94538e-08
2.13397e-09
6.94446e-08
2.08671e-09
6.94337e-08
2.04191e-09
6.94216e-08
1.99963e-09
6.94086e-08
1.95921e-09
6.93946e-08
1.92098e-09
6.93799e-08
1.88427e-09
6.93645e-08
1.84953e-09
6.93485e-08
1.81604e-09
6.93317e-08
1.78441e-09
6.93145e-08
1.75383e-09
6.92967e-08
1.72505e-09
6.92785e-08
1.69718e-09
6.92597e-08
1.67105e-09
6.92404e-08
1.64565e-09
6.92206e-08
1.62195e-09
6.92003e-08
1.59877e-09
6.91792e-08
1.57725e-09
6.91576e-08
1.55604e-09
6.91351e-08
1.53645e-09
6.91119e-08
1.51698e-09
6.90876e-08
1.49914e-09
6.90625e-08
1.48121e-09
6.90362e-08
1.46495e-09
6.90089e-08
1.44839e-09
6.89802e-08
1.43356e-09
6.89504e-08
1.41823e-09
6.8919e-08
1.40471e-09
6.88864e-08
1.39048e-09
6.8852e-08
1.37815e-09
6.88163e-08
1.36489e-09
6.87786e-08
1.35367e-09
6.87395e-08
1.34125e-09
6.86983e-08
1.33102e-09
6.86555e-08
1.31934e-09
6.86104e-08
1.31002e-09
6.85637e-08
1.29897e-09
6.85147e-08
1.29046e-09
6.84638e-08
1.27992e-09
6.84105e-08
1.27217e-09
6.83553e-08
1.26203e-09
6.82975e-08
1.25496e-09
6.82379e-08
1.24513e-09
6.81755e-08
1.23866e-09
6.81112e-08
1.22905e-09
6.80441e-08
1.22311e-09
6.7975e-08
1.21363e-09
6.79031e-08
1.2082e-09
6.78291e-08
1.19874e-09
6.77523e-08
1.19378e-09
6.76734e-08
1.18427e-09
6.75917e-08
1.1797e-09
6.75079e-08
1.17009e-09
6.74211e-08
1.16588e-09
6.73324e-08
1.15608e-09
6.72407e-08
1.15222e-09
6.7147e-08
1.14216e-09
6.70505e-08
1.13864e-09
6.69519e-08
1.12826e-09
6.68505e-08
1.12505e-09
6.67471e-08
1.11432e-09
6.6641e-08
1.1114e-09
6.65329e-08
1.10029e-09
6.64222e-08
1.0977e-09
6.63095e-08
1.08615e-09
6.61944e-08
1.08392e-09
6.60772e-08
1.07196e-09
6.59577e-08
1.07007e-09
6.58362e-08
1.05775e-09
6.57126e-08
1.05633e-09
6.55869e-08
1.04367e-09
6.54593e-08
1.04273e-09
6.53295e-08
1.02993e-09
6.51981e-08
1.02958e-09
6.50644e-08
1.01678e-09
6.49293e-08
1.01725e-09
6.47917e-08
1.00476e-09
6.46529e-08
1.00623e-09
6.45116e-08
9.94508e-10
6.43692e-08
9.97495e-10
6.42243e-08
9.87058e-10
6.40784e-08
9.91812e-10
9.83926e-10
6.79273e-08
1.93341e-09
-6.78622e-08
6.80286e-08
2.12367e-09
6.81656e-08
2.29623e-09
6.83356e-08
2.45555e-09
6.85248e-08
2.59318e-09
6.87102e-08
2.68448e-09
6.88765e-08
2.72574e-09
6.90171e-08
2.72295e-09
6.91313e-08
2.6875e-09
6.92214e-08
2.63116e-09
6.92892e-08
2.56396e-09
6.9337e-08
2.49228e-09
6.9368e-08
2.42102e-09
6.93867e-08
2.35317e-09
6.9397e-08
2.29118e-09
6.94019e-08
2.235e-09
6.94025e-08
2.18405e-09
6.94e-08
2.13648e-09
6.9395e-08
2.09177e-09
6.93881e-08
2.04882e-09
6.93797e-08
2.00799e-09
6.93704e-08
1.96856e-09
6.93602e-08
1.93116e-09
6.93494e-08
1.895e-09
6.93382e-08
1.86078e-09
6.93266e-08
1.82759e-09
6.93148e-08
1.79626e-09
6.93028e-08
1.76578e-09
6.92908e-08
1.73713e-09
6.92788e-08
1.70918e-09
6.92667e-08
1.68307e-09
6.92549e-08
1.65749e-09
6.92431e-08
1.63375e-09
6.92315e-08
1.61035e-09
6.922e-08
1.58879e-09
6.92087e-08
1.56736e-09
6.91973e-08
1.54778e-09
6.91862e-08
1.52813e-09
6.9175e-08
1.51035e-09
6.91639e-08
1.49231e-09
6.91527e-08
1.47618e-09
6.91415e-08
1.45958e-09
6.91301e-08
1.44496e-09
6.91186e-08
1.42967e-09
6.91069e-08
1.41646e-09
6.9095e-08
1.40234e-09
6.90828e-08
1.39043e-09
6.90703e-08
1.37735e-09
6.90573e-08
1.36664e-09
6.90441e-08
1.35451e-09
6.90302e-08
1.3449e-09
6.90159e-08
1.3336e-09
6.9001e-08
1.32498e-09
6.89855e-08
1.31441e-09
6.89693e-08
1.30671e-09
6.89525e-08
1.29674e-09
6.89347e-08
1.28989e-09
6.89164e-08
1.28043e-09
6.8897e-08
1.27435e-09
6.88768e-08
1.26529e-09
6.88556e-08
1.2599e-09
6.88334e-08
1.25118e-09
6.88102e-08
1.24639e-09
6.87859e-08
1.2379e-09
6.87604e-08
1.23369e-09
6.87338e-08
1.22533e-09
6.87059e-08
1.22165e-09
6.86768e-08
1.21335e-09
6.86464e-08
1.2101e-09
6.86147e-08
1.20183e-09
6.85816e-08
1.19896e-09
6.85471e-08
1.19061e-09
6.85112e-08
1.18813e-09
6.84737e-08
1.17963e-09
6.84348e-08
1.17749e-09
6.83943e-08
1.16882e-09
6.83524e-08
1.16694e-09
6.83086e-08
1.15807e-09
6.82636e-08
1.15644e-09
6.82166e-08
1.14731e-09
6.81683e-08
1.146e-09
6.81179e-08
1.13656e-09
6.80663e-08
1.13551e-09
6.80124e-08
1.12586e-09
6.79574e-08
1.12504e-09
6.79e-08
1.11515e-09
6.78416e-08
1.11475e-09
6.77805e-08
1.1047e-09
6.77187e-08
1.10463e-09
6.76539e-08
1.09464e-09
6.75885e-08
1.09505e-09
6.75201e-08
1.0852e-09
6.7451e-08
1.08636e-09
6.73787e-08
1.07701e-09
6.73059e-08
1.07907e-09
6.72298e-08
1.07061e-09
6.71531e-08
1.0741e-09
6.70732e-08
1.06699e-09
6.69926e-08
1.07242e-09
1.0676e-09
7.51812e-08
1.8712e-09
-7.5119e-08
7.52715e-08
2.03331e-09
7.53896e-08
2.17814e-09
7.5533e-08
2.31215e-09
7.56956e-08
2.43061e-09
7.58602e-08
2.51989e-09
7.6014e-08
2.57192e-09
7.61484e-08
2.58849e-09
7.62602e-08
2.57574e-09
7.63498e-08
2.54154e-09
7.64194e-08
2.49437e-09
7.64713e-08
2.44038e-09
7.6508e-08
2.38435e-09
7.65324e-08
2.32872e-09
7.65478e-08
2.27579e-09
7.65569e-08
2.22598e-09
7.65612e-08
2.17972e-09
7.65619e-08
2.13578e-09
7.65596e-08
2.09405e-09
7.6555e-08
2.05342e-09
7.65486e-08
2.01443e-09
7.65408e-08
1.97633e-09
7.6532e-08
1.93998e-09
7.65224e-08
1.90453e-09
7.65123e-08
1.87091e-09
7.65018e-08
1.83809e-09
7.6491e-08
1.80707e-09
7.64801e-08
1.7767e-09
7.64691e-08
1.74814e-09
7.64582e-08
1.72011e-09
7.64473e-08
1.6939e-09
7.64367e-08
1.6681e-09
7.64263e-08
1.64416e-09
7.64162e-08
1.62046e-09
7.64063e-08
1.59865e-09
7.63968e-08
1.57689e-09
7.63875e-08
1.55704e-09
7.63786e-08
1.53706e-09
7.637e-08
1.51902e-09
7.63616e-08
1.50066e-09
7.63535e-08
1.48429e-09
7.63456e-08
1.46742e-09
7.6338e-08
1.45259e-09
7.63306e-08
1.43706e-09
7.63234e-08
1.42367e-09
7.63164e-08
1.40936e-09
7.63095e-08
1.39732e-09
7.63027e-08
1.38411e-09
7.62961e-08
1.3733e-09
7.62895e-08
1.3611e-09
7.6283e-08
1.35141e-09
7.62765e-08
1.34012e-09
7.627e-08
1.33147e-09
7.62634e-08
1.32096e-09
7.62568e-08
1.31328e-09
7.62501e-08
1.30344e-09
7.62434e-08
1.29665e-09
7.62364e-08
1.2874e-09
7.62294e-08
1.2814e-09
7.6222e-08
1.27267e-09
7.62145e-08
1.26736e-09
7.62066e-08
1.25907e-09
7.61986e-08
1.2544e-09
7.61901e-08
1.24642e-09
7.61814e-08
1.24238e-09
7.61721e-08
1.23462e-09
7.61627e-08
1.23111e-09
7.61524e-08
1.22356e-09
7.61421e-08
1.22046e-09
7.61308e-08
1.21307e-09
7.61194e-08
1.21038e-09
7.6107e-08
1.203e-09
7.60944e-08
1.20072e-09
7.60808e-08
1.19332e-09
7.60669e-08
1.19136e-09
7.60517e-08
1.18396e-09
7.60365e-08
1.18221e-09
7.60198e-08
1.17478e-09
7.60029e-08
1.17329e-09
7.59845e-08
1.16569e-09
7.5966e-08
1.16453e-09
7.59457e-08
1.15682e-09
7.59254e-08
1.15581e-09
7.59032e-08
1.14811e-09
7.58809e-08
1.14734e-09
7.58566e-08
1.13946e-09
7.58322e-08
1.13912e-09
7.58056e-08
1.13133e-09
7.5779e-08
1.1312e-09
7.575e-08
1.12366e-09
7.5721e-08
1.12406e-09
7.56894e-08
1.11676e-09
7.56579e-08
1.11789e-09
7.56236e-08
1.11133e-09
7.55893e-08
1.11337e-09
7.55521e-08
1.10775e-09
7.5515e-08
1.11122e-09
7.54749e-08
1.1071e-09
7.54347e-08
1.11264e-09
1.11047e-09
8.31887e-08
1.81328e-09
-8.31307e-08
8.32687e-08
1.95332e-09
8.33701e-08
2.07665e-09
8.34911e-08
2.19121e-09
8.36282e-08
2.29355e-09
8.37701e-08
2.37793e-09
8.3907e-08
2.43502e-09
8.40309e-08
2.46456e-09
8.41372e-08
2.46952e-09
8.42244e-08
2.45432e-09
8.42936e-08
2.42511e-09
8.43471e-08
2.38693e-09
8.4387e-08
2.34448e-09
8.44155e-08
2.30016e-09
8.44351e-08
2.25624e-09
8.44478e-08
2.21324e-09
8.44554e-08
2.1721e-09
8.44591e-08
2.13214e-09
8.44595e-08
2.09364e-09
8.44572e-08
2.05567e-09
8.44529e-08
2.01882e-09
8.44468e-08
1.98239e-09
8.44395e-08
1.94731e-09
8.44312e-08
1.91281e-09
8.44222e-08
1.87988e-09
8.44127e-08
1.84757e-09
8.44029e-08
1.8169e-09
8.43928e-08
1.78677e-09
8.43827e-08
1.7583e-09
8.43725e-08
1.73029e-09
8.43624e-08
1.70399e-09
8.43524e-08
1.67806e-09
8.43427e-08
1.65389e-09
8.43332e-08
1.62996e-09
8.4324e-08
1.60785e-09
8.43151e-08
1.58581e-09
8.43065e-08
1.56563e-09
8.42982e-08
1.54535e-09
8.42903e-08
1.52695e-09
8.42826e-08
1.50831e-09
8.42754e-08
1.49157e-09
8.42683e-08
1.47443e-09
8.42617e-08
1.45924e-09
8.42553e-08
1.44348e-09
8.42492e-08
1.42975e-09
8.42433e-08
1.41523e-09
8.42378e-08
1.40286e-09
8.42324e-08
1.38948e-09
8.42274e-08
1.37834e-09
8.42224e-08
1.36603e-09
8.42178e-08
1.35602e-09
8.42133e-08
1.34467e-09
8.4209e-08
1.33569e-09
8.42048e-08
1.32518e-09
8.42009e-08
1.31719e-09
8.4197e-08
1.30739e-09
8.41933e-08
1.3003e-09
8.41896e-08
1.29114e-09
8.41862e-08
1.28483e-09
8.41825e-08
1.27627e-09
8.41793e-08
1.27065e-09
8.41757e-08
1.26259e-09
8.41725e-08
1.25762e-09
8.4169e-08
1.24992e-09
8.41658e-08
1.24559e-09
8.41623e-08
1.23818e-09
8.4159e-08
1.23434e-09
8.41553e-08
1.22727e-09
8.4152e-08
1.22382e-09
8.41481e-08
1.21696e-09
8.41445e-08
1.21394e-09
8.41404e-08
1.20715e-09
8.41365e-08
1.20454e-09
8.4132e-08
1.19783e-09
8.41279e-08
1.19549e-09
8.41229e-08
1.18892e-09
8.41184e-08
1.18677e-09
8.41129e-08
1.18023e-09
8.41078e-08
1.17839e-09
8.41018e-08
1.17173e-09
8.40961e-08
1.17021e-09
8.40893e-08
1.16359e-09
8.4083e-08
1.16217e-09
8.40754e-08
1.15567e-09
8.40682e-08
1.15456e-09
8.40597e-08
1.14792e-09
8.40516e-08
1.14723e-09
8.40421e-08
1.14087e-09
8.40329e-08
1.14038e-09
8.40222e-08
1.13433e-09
8.40118e-08
1.1345e-09
8.39998e-08
1.12874e-09
8.3988e-08
1.12966e-09
8.39746e-08
1.12478e-09
8.39613e-08
1.1267e-09
8.39462e-08
1.12277e-09
8.39313e-08
1.12618e-09
8.39145e-08
1.12385e-09
8.38979e-08
1.12932e-09
1.12872e-09
9.2031e-08
1.76163e-09
-9.19793e-08
9.20998e-08
1.88446e-09
9.21853e-08
1.99117e-09
9.22857e-08
2.09078e-09
9.23984e-08
2.18085e-09
9.25175e-08
2.2589e-09
9.26349e-08
2.31761e-09
9.27444e-08
2.35501e-09
9.28414e-08
2.37254e-09
9.29234e-08
2.37236e-09
9.29901e-08
2.35842e-09
9.30427e-08
2.33426e-09
9.30833e-08
2.30393e-09
9.31136e-08
2.2698e-09
9.31357e-08
2.23422e-09
9.3151e-08
2.19788e-09
9.31612e-08
2.16193e-09
9.31673e-08
2.12606e-09
9.317e-08
2.09088e-09
9.317e-08
2.05569e-09
9.31677e-08
2.02113e-09
9.31635e-08
1.98657e-09
9.31579e-08
1.95294e-09
9.31511e-08
1.91956e-09
9.31436e-08
1.88745e-09
9.31354e-08
1.85576e-09
9.31268e-08
1.8255e-09
9.31179e-08
1.79568e-09
9.31088e-08
1.76736e-09
9.30996e-08
1.73945e-09
9.30905e-08
1.71311e-09
9.30815e-08
1.68712e-09
9.30726e-08
1.66277e-09
9.30639e-08
1.63868e-09
9.30554e-08
1.61629e-09
9.30472e-08
1.59404e-09
9.30393e-08
1.57352e-09
9.30316e-08
1.55301e-09
9.30243e-08
1.53425e-09
9.30173e-08
1.51537e-09
9.30106e-08
1.49826e-09
9.30041e-08
1.4809e-09
9.2998e-08
1.46534e-09
9.29921e-08
1.44938e-09
9.29866e-08
1.43527e-09
9.29813e-08
1.42058e-09
9.29763e-08
1.40784e-09
9.29714e-08
1.39432e-09
9.2967e-08
1.38282e-09
9.29626e-08
1.3704e-09
9.29586e-08
1.36002e-09
9.29547e-08
1.3486e-09
9.29511e-08
1.33928e-09
9.29475e-08
1.32871e-09
9.29443e-08
1.32038e-09
9.29412e-08
1.31057e-09
9.29383e-08
1.30314e-09
9.29354e-08
1.29402e-09
9.29329e-08
1.28736e-09
9.29303e-08
1.27888e-09
9.29281e-08
1.2729e-09
9.29257e-08
1.26496e-09
9.29237e-08
1.25965e-09
9.29215e-08
1.25208e-09
9.29197e-08
1.24741e-09
9.29177e-08
1.24019e-09
9.2916e-08
1.23599e-09
9.29141e-08
1.22916e-09
9.29126e-08
1.22534e-09
9.29108e-08
1.21875e-09
9.29094e-08
1.21539e-09
9.29076e-08
1.2089e-09
9.29062e-08
1.20594e-09
9.29045e-08
1.19959e-09
9.29031e-08
1.19687e-09
9.29013e-08
1.19071e-09
9.28999e-08
1.1882e-09
9.2898e-08
1.18209e-09
9.28965e-08
1.17993e-09
9.28945e-08
1.17372e-09
9.28928e-08
1.17187e-09
9.28906e-08
1.1658e-09
9.28888e-08
1.16402e-09
9.28863e-08
1.1581e-09
9.28842e-08
1.15674e-09
9.28814e-08
1.15068e-09
9.28789e-08
1.14971e-09
9.28757e-08
1.14405e-09
9.28728e-08
1.14334e-09
9.28692e-08
1.13796e-09
9.28656e-08
1.13802e-09
9.28614e-08
1.13301e-09
9.28572e-08
1.13383e-09
9.28522e-08
1.12973e-09
9.28473e-08
1.13166e-09
9.28415e-08
1.12853e-09
9.28357e-08
1.13198e-09
9.28291e-08
1.13044e-09
9.28225e-08
1.1359e-09
1.136e-09
1.01797e-07
1.71787e-09
-1.01753e-07
1.01854e-07
1.82771e-09
1.01923e-07
1.9219e-09
1.02003e-07
2.01029e-09
1.02093e-07
2.09117e-09
1.02189e-07
2.16301e-09
1.02285e-07
2.22141e-09
1.02377e-07
2.26312e-09
1.02461e-07
2.2889e-09
1.02533e-07
2.29961e-09
1.02594e-07
2.29764e-09
1.02643e-07
2.28519e-09
1.02682e-07
2.26534e-09
1.02712e-07
2.24013e-09
1.02734e-07
2.21191e-09
1.0275e-07
2.18155e-09
1.02762e-07
2.15039e-09
1.02769e-07
2.11841e-09
1.02774e-07
2.08637e-09
1.02776e-07
2.05385e-09
1.02775e-07
2.02152e-09
1.02773e-07
1.98887e-09
1.02769e-07
1.95674e-09
1.02764e-07