/*--------------------------------*- C++ -*----------------------------------*\
| =========                 |                                                 |
| \\      /  F ield         | OpenFOAM: The Open Source CFD Toolbox           |
|  \\    /   O peration     | Version:  2.3.0                                 |
|   \\  /    A nd           | Web:      www.OpenFOAM.org                      |
|    \\/     M anipulation  |                                                 |
\*---------------------------------------------------------------------------*/
FoamFile
{
    version     2.0;
    format      ascii;
    class       surfaceScalarField;
    location    "0.3";
    object      phi;
}
// * * * * * * * * * * * * * * * * * * * * * * * * * * * * * * * * * * * * * //

dimensions      [0 3 -1 0 0 0 0];

internalField   nonuniform List<scalar> 
3203
(
3.95694e-08
3.61434e-09
-4.31837e-08
3.50023e-08
4.56704e-09
3.04686e-08
4.53378e-09
2.6184e-08
4.28451e-09
2.21665e-08
4.01755e-09
1.85511e-08
3.61535e-09
1.5527e-08
3.0241e-09
1.31872e-08
2.33987e-09
1.15129e-08
1.67427e-09
1.03638e-08
1.1491e-09
9.57398e-09
7.89829e-10
9.02625e-09
5.47727e-10
8.63767e-09
3.88584e-10
8.33299e-09
3.04676e-10
8.06179e-09
2.71208e-10
7.81083e-09
2.50951e-10
7.57919e-09
2.31645e-10
7.36073e-09
2.18458e-10
7.15168e-09
2.09055e-10
6.95397e-09
1.97712e-10
6.76968e-09
1.84286e-10
6.60027e-09
1.69412e-10
6.44676e-09
1.53507e-10
6.30794e-09
1.38823e-10
6.1817e-09
1.26235e-10
6.06676e-09
1.14937e-10
5.96211e-09
1.04654e-10
5.86728e-09
9.4828e-11
5.78242e-09
8.48579e-11
5.70701e-09
7.54152e-11
5.64006e-09
6.69455e-11
5.58119e-09
5.88736e-11
5.53036e-09
5.08349e-11
5.48741e-09
4.2943e-11
5.45224e-09
3.5173e-11
5.42463e-09
2.7606e-11
5.40428e-09
2.03528e-11
5.39086e-09
1.34249e-11
5.38407e-09
6.78756e-12
5.38354e-09
5.24802e-13
5.38828e-09
-4.7399e-12
5.397e-09
-8.71803e-12
5.40836e-09
-1.13615e-11
5.42077e-09
-1.24086e-11
5.43312e-09
-1.23479e-11
5.44465e-09
-1.15266e-11
5.45513e-09
-1.04847e-11
5.4645e-09
-9.36644e-12
5.47287e-09
-8.37352e-12
5.48027e-09
-7.40412e-12
5.48691e-09
-6.63934e-12
5.49274e-09
-5.82758e-12
5.49796e-09
-5.21391e-12
5.50245e-09
-4.49218e-12
5.50642e-09
-3.97309e-12
5.50977e-09
-3.34721e-12
5.51268e-09
-2.91236e-12
5.51509e-09
-2.40789e-12
5.51718e-09
-2.09152e-12
-1.72112e-12
4.67127e-08
3.27363e-09
-4.6372e-08
4.64245e-08
4.85516e-09
4.54903e-08
5.46799e-09
4.42128e-08
5.562e-09
4.26857e-08
5.54468e-09
4.09223e-08
5.37881e-09
3.89665e-08
4.97985e-09
3.69411e-08
4.36524e-09
3.49788e-08
3.63656e-09
3.31714e-08
2.95655e-09
3.15403e-08
2.42095e-09
3.00674e-08
2.02065e-09
2.87364e-08
1.71958e-09
2.75336e-08
1.50743e-09
2.64441e-08
1.36071e-09
2.54624e-08
1.2327e-09
2.45809e-08
1.11306e-09
2.37847e-08
1.01469e-09
2.30592e-08
9.34538e-10
2.23955e-08
8.61464e-10
2.17872e-08
7.92541e-10
2.123e-08
7.26632e-10
2.07203e-08
6.63197e-10
2.02541e-08
6.05025e-10
1.98275e-08
5.52816e-10
1.94375e-08
5.04972e-10
1.90814e-08
4.60728e-10
1.87577e-08
4.18573e-10
1.84652e-08
3.77329e-10
1.82023e-08
3.38309e-10
1.79671e-08
3.02101e-10
1.77587e-08
2.67368e-10
1.75762e-08
2.33298e-10
1.74191e-08
2.0006e-10
1.72866e-08
1.67624e-10
1.7178e-08
1.36207e-10
1.70923e-08
1.06107e-10
1.70281e-08
7.75446e-11
1.69842e-08
5.07494e-11
1.69583e-08
2.64575e-11
1.69479e-08
5.58917e-12
1.69493e-08
-1.01073e-11
1.69592e-08
-2.12535e-11
1.6974e-08
-2.71944e-11
1.69911e-08
-2.94569e-11
1.70087e-08
-2.91212e-11
1.70259e-08
-2.77342e-11
1.70424e-08
-2.5786e-11
1.70579e-08
-2.39111e-11
1.70724e-08
-2.18795e-11
1.7086e-08
-2.02224e-11
1.70984e-08
-1.82652e-11
1.71099e-08
-1.67431e-11
1.71202e-08
-1.47513e-11
1.71295e-08
-1.33244e-11
1.71375e-08
-1.13463e-11
1.71447e-08
-1.01131e-11
1.71506e-08
-8.22772e-12
1.71559e-08
-7.458e-12
-5.75031e-12
4.92859e-08
3.08263e-09
-4.90949e-08
4.97569e-08
4.38418e-09
4.99668e-08
5.25802e-09
4.99877e-08
5.54112e-09
4.98885e-08
5.64395e-09
4.96352e-08
5.63207e-09
4.91642e-08
5.45088e-09
4.84726e-08
5.05681e-09
4.76152e-08
4.49393e-09
4.66728e-08
3.89896e-09
4.57043e-08
3.38951e-09
4.47394e-08
2.98548e-09
4.37889e-08
2.67009e-09
4.28516e-08
2.44473e-09
4.19233e-08
2.28905e-09
4.09993e-08
2.15663e-09
4.00824e-08
2.02998e-09
3.91851e-08
1.91205e-09
3.83239e-08
1.79574e-09
3.75083e-08
1.67707e-09
3.67376e-08
1.56322e-09
3.60063e-08
1.45794e-09
3.53083e-08
1.36113e-09
3.46406e-08
1.27281e-09
3.40041e-08
1.18924e-09
3.34024e-08
1.10672e-09
3.28382e-08
1.02493e-09
3.23135e-08
9.43205e-10
3.18292e-08
8.61704e-10
3.13842e-08
7.8333e-10
3.09773e-08
7.08959e-10
3.0608e-08
6.36654e-10
3.02759e-08
5.65385e-10
2.99805e-08
4.95529e-10
2.97208e-08
4.27231e-10
2.94962e-08
3.60861e-10
2.93055e-08
2.96775e-10
2.91476e-08
2.35468e-10
2.90207e-08
1.77614e-10
2.89225e-08
1.24737e-10
2.88497e-08
7.83573e-11
2.87989e-08
4.06939e-11
2.87657e-08
1.18848e-11
2.87457e-08
-7.17935e-12
2.87352e-08
-1.89551e-11
2.87312e-08
-2.50877e-11
2.87317e-08
-2.827e-11
2.87354e-08
-2.94517e-11
2.87415e-08
-2.99856e-11
2.87492e-08
-2.95823e-11
2.87583e-08
-2.93882e-11
2.87682e-08
-2.81396e-11
2.87789e-08
-2.74022e-11
2.87894e-08
-2.52777e-11
2.88002e-08
-2.40944e-11
2.881e-08
-2.12163e-11
2.88198e-08
-1.98982e-11
2.88281e-08
-1.6457e-11
2.88362e-08
-1.55743e-11
-1.20451e-11
5.1987e-08
3.01675e-09
-5.19211e-08
5.23721e-08
3.99906e-09
5.27682e-08
4.86196e-09
5.30541e-08
5.25523e-09
5.33e-08
5.39804e-09
5.35114e-08
5.4206e-09
5.36327e-08
5.32957e-09
5.36093e-08
5.08022e-09
5.34322e-08
4.67109e-09
5.31387e-08
4.19241e-09
5.27752e-08
3.753e-09
5.23742e-08
3.38645e-09
5.19532e-08
3.09109e-09
5.15204e-08
2.8776e-09
5.10759e-08
2.73354e-09
5.06089e-08
2.62365e-09
5.01042e-08
2.5346e-09
4.95578e-08
2.45849e-09
4.89836e-08
2.36996e-09
4.84039e-08
2.25676e-09
4.78372e-08
2.12996e-09
4.72929e-08
2.00216e-09
4.67686e-08
1.88545e-09
4.62518e-08
1.78959e-09
4.57314e-08
1.7097e-09
4.5206e-08
1.63207e-09
4.46842e-08
1.54671e-09
4.41771e-08
1.45032e-09
4.36913e-08
1.34751e-09
4.32284e-08
1.24629e-09
4.27891e-08
1.14825e-09
4.23758e-08
1.04989e-09
4.19914e-08
9.49843e-10
4.16372e-08
8.49673e-10
4.13136e-08
7.50845e-10
4.10202e-08
6.54301e-10
4.07568e-08
5.60198e-10
4.05232e-08
4.68997e-10
4.03192e-08
3.81666e-10
4.01437e-08
3.00224e-10
3.99954e-08
2.26663e-10
3.98722e-08
1.639e-10
3.97712e-08
1.12852e-10
3.96895e-08
7.45333e-11
3.96239e-08
4.6605e-11
3.95715e-08
2.72973e-11
3.95301e-08
1.31838e-11
3.94975e-08
3.14447e-12
3.94725e-08
-4.95402e-12
3.94537e-08
-1.07709e-11
3.94406e-08
-1.6372e-11
3.94322e-08
-1.96793e-11
3.94283e-08
-2.34818e-11
3.94273e-08
-2.43667e-11
3.94298e-08
-2.65963e-11
3.94338e-08
-2.52166e-11
3.94403e-08
-2.63043e-11
3.94468e-08
-2.29769e-11
3.94546e-08
-2.34147e-11
-1.92111e-11
5.48491e-08
2.97319e-09
-5.48055e-08
5.51206e-08
3.72762e-09
5.55018e-08
4.48069e-09
5.5827e-08
4.93006e-09
5.61067e-08
5.11838e-09
5.63759e-08
5.15134e-09
5.66189e-08
5.08658e-09
5.67883e-08
4.91085e-09
5.68539e-08
4.6055e-09
5.68263e-08
4.21997e-09
5.67369e-08
3.8424e-09
5.6611e-08
3.51236e-09
5.64675e-08
3.23461e-09
5.6318e-08
3.02714e-09
5.61662e-08
2.88532e-09
5.60086e-08
2.78126e-09
5.58306e-08
2.71255e-09
5.56127e-08
2.67641e-09
5.53493e-08
2.63341e-09
5.50547e-08
2.55129e-09
5.475e-08
2.43467e-09
5.44519e-08
2.30024e-09
5.41707e-08
2.16671e-09
5.39041e-08
2.05612e-09
5.36354e-08
1.97843e-09
5.3345e-08
1.92253e-09
5.30286e-08
1.86308e-09
5.26995e-08
1.77944e-09
5.23724e-08
1.67456e-09
5.20519e-08
1.56676e-09
5.1736e-08
1.46421e-09
5.14247e-08
1.36112e-09
5.11229e-08
1.25172e-09
5.08354e-08
1.13714e-09
5.05647e-08
1.02157e-09
5.03106e-08
9.08341e-10
5.00728e-08
7.97996e-10
4.98513e-08
6.90535e-10
4.96464e-08
5.86513e-10
4.94587e-08
4.8797e-10
4.92884e-08
3.96935e-10
4.91358e-08
3.16525e-10
4.90006e-08
2.4807e-10
4.88819e-08
1.93199e-10
4.87785e-08
1.50053e-10
4.86885e-08
1.17239e-10
4.86107e-08
9.10409e-11
4.85431e-08
7.06743e-11
4.8485e-08
5.31616e-11
4.8435e-08
3.93035e-11
4.83928e-08
2.57389e-11
4.83577e-08
1.54993e-11
4.83298e-08
4.34847e-12
4.83078e-08
-2.35967e-12
4.82922e-08
-1.09984e-11
4.82811e-08
-1.40794e-11
4.82751e-08
-2.03112e-11
4.82725e-08
-2.03975e-11
4.82731e-08
-2.39802e-11
-2.2723e-11
5.78352e-08
2.92001e-09
-5.7782e-08
5.80347e-08
3.52811e-09
5.83625e-08
4.15286e-09
5.8683e-08
4.60958e-09
5.89593e-08
4.84211e-09
5.92121e-08
4.89852e-09
5.94532e-08
4.84546e-09
5.96529e-08
4.71112e-09
5.9781e-08
4.47743e-09
5.98384e-08
4.16256e-09
5.98423e-08
3.8385e-09
5.98117e-08
3.54302e-09
5.97665e-08
3.2798e-09
5.97197e-08
3.07393e-09
5.96726e-08
2.93237e-09
5.96282e-08
2.82572e-09
5.95865e-08
2.75422e-09
5.95313e-08
2.73157e-09
5.94444e-08
2.72033e-09
5.93278e-08
2.66794e-09
5.91959e-08
2.5665e-09
5.90602e-08
2.43594e-09
5.89315e-08
2.29545e-09
5.88209e-08
2.16677e-09
5.87245e-08
2.07482e-09
5.86197e-08
2.02733e-09
5.84872e-08
1.99558e-09
5.83303e-08
1.93633e-09
5.8166e-08
1.83887e-09
5.80038e-08
1.72888e-09
5.78408e-08
1.62731e-09
5.76714e-08
1.5305e-09
5.7497e-08
1.42606e-09
5.73237e-08
1.31045e-09
5.7156e-08
1.18932e-09
5.69945e-08
1.06979e-09
5.68384e-08
9.54146e-10
5.66869e-08
8.42034e-10
5.65402e-08
7.33203e-10
5.63987e-08
6.29418e-10
5.62634e-08
5.32298e-10
5.61354e-08
4.44458e-10
5.60164e-08
3.67093e-10
5.59072e-08
3.02429e-10
5.58078e-08
2.49428e-10
5.57176e-08
2.07411e-10
5.5636e-08
1.72661e-10
5.55618e-08
1.44899e-10
5.54943e-08
1.2071e-10
5.54323e-08
1.01274e-10
5.5376e-08
8.19945e-11
5.53251e-08
6.63898e-11
5.52806e-08
4.88768e-11
5.5242e-08
3.62554e-11
5.52099e-08
2.10534e-11
5.51837e-08
1.21761e-11
5.51629e-08
4.37449e-13
5.51482e-08
-5.6776e-12
5.51369e-08
-1.26421e-11
-1.81324e-11
6.09454e-08
2.85693e-09
-6.08823e-08
6.11064e-08
3.36706e-09
6.1378e-08
3.88131e-09
6.16765e-08
4.31109e-09
6.19463e-08
4.57232e-09
6.21835e-08
4.66127e-09
6.24057e-08
4.62329e-09
6.25995e-08
4.51732e-09
6.27408e-08
4.33609e-09
6.28276e-08
4.07582e-09
6.28673e-08
3.7988e-09
6.28697e-08
3.5406e-09
6.28541e-08
3.29538e-09
6.2836e-08
3.09204e-09
6.28147e-08
2.95371e-09
6.27921e-08
2.84825e-09
6.27796e-08
2.76676e-09
6.27739e-08
2.73732e-09
6.2757e-08
2.7372e-09
6.27223e-08
2.70258e-09
6.26767e-08
2.61214e-09
6.26233e-08
2.48931e-09
6.25651e-08
2.35372e-09
6.25148e-08
2.21704e-09
6.24827e-08
2.10695e-09
6.24587e-08
2.05133e-09
6.24223e-08
2.0319e-09
6.23666e-08
1.99205e-09
6.23018e-08
1.90368e-09
6.22386e-08
1.79205e-09
6.21762e-08
1.68971e-09
6.21076e-08
1.59917e-09
6.203e-08
1.50361e-09
6.19472e-08
1.39328e-09
6.18636e-08
1.27296e-09
6.17806e-08
1.15272e-09
6.16975e-08
1.03723e-09
6.16133e-08
9.26268e-10
6.15277e-08
8.18788e-10
6.1441e-08
7.16153e-10
6.13537e-08
6.19622e-10
6.12671e-08
5.30994e-10
6.11834e-08
4.50809e-10
6.11044e-08
3.81474e-10
6.10309e-08
3.22928e-10
6.09629e-08
2.75412e-10
6.08998e-08
2.35677e-10
6.08409e-08
2.03877e-10
6.0785e-08
1.76535e-10
6.07313e-08
1.54963e-10
6.06795e-08
1.33796e-10
6.06297e-08
1.16189e-10
6.05829e-08
9.57096e-11
6.054e-08
7.91989e-11
6.05013e-08
5.97067e-11
6.04681e-08
4.54381e-11
6.04386e-08
2.99202e-11
6.04158e-08
1.71202e-11
6.03951e-08
8.03622e-12
-5.53263e-12
6.41921e-08
2.78937e-09
-6.41246e-08
6.43326e-08
3.22655e-09
6.45571e-08
3.6569e-09
6.48253e-08
4.04283e-09
6.50831e-08
4.31452e-09
6.53117e-08
4.43267e-09
6.55179e-08
4.41715e-09
6.57003e-08
4.33488e-09
6.58435e-08
4.19288e-09
6.59422e-08
3.97717e-09
6.59997e-08
3.74124e-09
6.60197e-08
3.52063e-09
6.60159e-08
3.29918e-09
6.60053e-08
3.10258e-09
6.59908e-08
2.96829e-09
6.59709e-08
2.86813e-09
6.59567e-08
2.78092e-09
6.59559e-08
2.7381e-09
6.59596e-08
2.73356e-09
6.59576e-08
2.70456e-09
6.59489e-08
2.62083e-09
6.59319e-08
2.5063e-09
6.59039e-08
2.38177e-09
6.58716e-08
2.24927e-09
6.58488e-08
2.12977e-09
6.58394e-08
2.0607e-09
6.58337e-08
2.03764e-09
6.58213e-08
2.00444e-09
6.58025e-08
1.92245e-09
6.57835e-08
1.81109e-09
6.57659e-08
1.70736e-09
6.57455e-08
1.61949e-09
6.57189e-08
1.53025e-09
6.56862e-08
1.42596e-09
6.56498e-08
1.3094e-09
6.5611e-08
1.1915e-09
6.55697e-08
1.07856e-09
6.55251e-08
9.70809e-10
6.54771e-08
8.66771e-10
6.54258e-08
7.6744e-10
6.53716e-08
6.73907e-10
6.53154e-08
5.87126e-10
6.52594e-08
5.06855e-10
6.52056e-08
4.35253e-10
6.51553e-08
3.7319e-10
6.51089e-08
3.21808e-10
6.50658e-08
2.78852e-10
6.50249e-08
2.44763e-10
6.4985e-08
2.16428e-10
6.49451e-08
1.94826e-10
6.49044e-08
1.74511e-10
6.48632e-08
1.57406e-10
6.48218e-08
1.37111e-10
6.47822e-08
1.18818e-10
6.47442e-08
9.76462e-11
6.47107e-08
7.90142e-11
6.4679e-08
6.16034e-11
6.46534e-08
4.27093e-11
6.46287e-08
3.27444e-11
1.18686e-11
6.75887e-08
2.72025e-09
-6.75196e-08
6.77149e-08
3.10037e-09
6.79049e-08
3.46693e-09
6.81403e-08
3.80741e-09
6.83817e-08
4.07312e-09
6.86041e-08
4.21022e-09
6.87992e-08
4.22213e-09
6.89703e-08
4.16378e-09
6.91109e-08
4.05222e-09
6.92127e-08
3.87536e-09
6.92785e-08
3.67543e-09
6.93119e-08
3.48724e-09
6.93184e-08
3.2927e-09
6.93119e-08
3.10907e-09
6.93014e-08
2.97882e-09
6.92855e-08
2.88399e-09
6.92691e-08
2.79734e-09
6.92638e-08
2.74344e-09
6.92709e-08
2.72646e-09
6.9281e-08
2.69444e-09
6.92865e-08
2.61533e-09
6.92837e-08
2.50914e-09
6.92693e-08
2.39613e-09
6.92446e-08
2.27401e-09
6.92188e-08
2.15556e-09
6.92032e-08
2.07632e-09
6.91999e-08
2.04088e-09
6.92014e-08
2.00298e-09
6.92003e-08
1.92356e-09
6.91963e-08
1.81501e-09
6.91922e-08
1.71147e-09
6.91881e-08
1.62366e-09
6.91815e-08
1.53681e-09
6.91705e-08
1.43698e-09
6.91546e-08
1.32525e-09
6.91347e-08
1.21148e-09
6.9111e-08
1.10221e-09
6.90836e-08
9.98185e-10
6.90524e-08
8.98002e-10
6.90175e-08
8.02388e-10
6.8979e-08
7.12315e-10
6.89383e-08
6.27903e-10
6.88968e-08
5.48318e-10
6.88568e-08
4.75281e-10
6.88195e-08
4.10463e-10
6.87856e-08
3.5567e-10
6.87545e-08
3.10022e-10
6.87251e-08
2.74177e-10
6.86957e-08
2.45784e-10
6.86655e-08
2.24989e-10
6.86332e-08
2.06831e-10
6.85993e-08
1.91336e-10
6.85634e-08
1.73015e-10
6.8528e-08
1.54196e-10
6.84926e-08
1.33094e-10
6.84606e-08
1.10973e-10
6.84294e-08
9.27607e-11
6.84036e-08
6.8552e-11
6.83781e-08
5.82191e-11
3.12424e-11
7.11457e-08
2.65097e-09
-7.10764e-08
7.12608e-08
2.98535e-09
7.14257e-08
3.30194e-09
7.16311e-08
3.60205e-09
7.18534e-08
3.85077e-09
7.20672e-08
3.99652e-09
7.22532e-08
4.03613e-09
7.24136e-08
4.00331e-09
7.25494e-08
3.91646e-09
7.26513e-08
3.77346e-09
7.27209e-08
3.60581e-09
7.27644e-08
3.44375e-09
7.27813e-08
3.27576e-09
7.27792e-08
3.11126e-09
7.27716e-08
2.98636e-09
7.27615e-08
2.89407e-09
7.27478e-08
2.81104e-09
7.27401e-08
2.75117e-09
7.27464e-08
2.72013e-09
7.27602e-08
2.68071e-09
7.277e-08
2.60547e-09
7.27714e-08
2.50775e-09
7.27632e-08
2.40435e-09
7.2744e-08
2.29317e-09
7.27179e-08
2.18167e-09
7.26968e-08
2.09744e-09
7.26899e-08
2.04779e-09
7.26935e-08
1.99936e-09
7.26974e-08
1.91964e-09
7.26971e-08
1.81533e-09
7.26949e-08
1.71361e-09
7.26937e-08
1.62486e-09
7.26927e-08
1.53784e-09
7.26889e-08
1.44078e-09
7.26802e-08
1.33396e-09
7.26667e-08
1.22502e-09
7.26491e-08
1.11982e-09
7.26278e-08
1.01949e-09
7.26027e-08
9.23082e-10
7.25739e-08
8.31131e-10
7.25418e-08
7.44441e-10
7.25074e-08
6.62279e-10
7.24723e-08
5.83477e-10
7.24383e-08
5.09298e-10
7.24066e-08
4.42107e-10
7.23782e-08
3.84076e-10
7.23523e-08
3.35917e-10
7.2328e-08
2.9846e-10
7.23034e-08
2.70418e-10
7.22777e-08
2.50703e-10
7.22493e-08
2.352e-10
7.22191e-08
2.21592e-10
7.21861e-08
2.05959e-10
7.21532e-08
1.87133e-10
7.21193e-08
1.66951e-10
7.20884e-08
1.41881e-10
7.20579e-08
1.23287e-10
7.20321e-08
9.42865e-11
7.20068e-08
8.35974e-11
5.12795e-11
7.48734e-08
2.58251e-09
-7.4805e-08
7.49795e-08
2.87928e-09
7.51256e-08
3.15585e-09
7.53057e-08
3.42199e-09
7.55068e-08
3.64961e-09
7.57069e-08
3.79639e-09
7.58842e-08
3.85888e-09
7.60365e-08
3.85104e-09
7.61672e-08
3.78571e-09
7.62685e-08
3.67218e-09
7.63397e-08
3.53466e-09
7.63883e-08
3.39509e-09
7.64135e-08
3.2506e-09
7.6417e-08
3.10768e-09
7.64132e-08
2.99019e-09
7.64091e-08
2.89819e-09
7.64012e-08
2.81893e-09
7.63946e-08
2.75778e-09
7.63995e-08
2.71516e-09
7.6413e-08
2.66726e-09
7.64231e-08
2.59537e-09
7.6425e-08
2.50586e-09
7.64194e-08
2.4099e-09
7.64048e-08
2.30776e-09
7.63818e-08
2.20474e-09
7.636e-08
2.11917e-09
7.63505e-08
2.05729e-09
7.63524e-08
1.9975e-09
7.6356e-08
1.91606e-09
7.63555e-08
1.81586e-09
7.63524e-08
1.71666e-09
7.63503e-08
1.62693e-09
7.63494e-08
1.53879e-09
7.63467e-08
1.44353e-09
7.63395e-08
1.3411e-09
7.63278e-08
1.23677e-09
7.63121e-08
1.13549e-09
7.62929e-08
1.03864e-09
7.62702e-08
9.45766e-10
7.62441e-08
8.57275e-10
7.62147e-08
7.73813e-10
7.61833e-08
6.93732e-10
7.61511e-08
6.1569e-10
7.61198e-08
5.4054e-10
7.60906e-08
4.71298e-10
7.60644e-08
4.10267e-10
7.60405e-08
3.59829e-10
7.60181e-08
3.2092e-10
7.5995e-08
2.93498e-10
7.59707e-08
2.74995e-10
7.59436e-08
2.62343e-10
7.59145e-08
2.50628e-10
7.58826e-08
2.37878e-10
7.58505e-08
2.19198e-10
7.58172e-08
2.0025e-10
7.57866e-08
1.72528e-10
7.57562e-08
1.53659e-10
7.57304e-08
1.20142e-10
7.5705e-08
1.08971e-10
7.16111e-11
7.87826e-08
2.51571e-09
-7.87157e-08
7.88806e-08
2.78121e-09
7.90109e-08
3.02554e-09
7.91698e-08
3.26311e-09
7.93495e-08
3.46989e-09
7.95333e-08
3.61264e-09
7.97016e-08
3.69055e-09
7.98474e-08
3.70522e-09
7.99725e-08
3.6606e-09
8.00714e-08
3.57327e-09
8.01427e-08
3.4634e-09
8.01935e-08
3.34433e-09
8.02246e-08
3.2195e-09
8.02357e-08
3.09654e-09
8.02372e-08
2.9887e-09
8.02376e-08
2.89785e-09
8.0235e-08
2.82144e-09
8.02316e-08
2.76126e-09
8.02358e-08
2.71096e-09
8.02475e-08
2.65548e-09
8.02569e-08
2.58606e-09
8.02586e-08
2.50415e-09
8.02543e-08
2.41418e-09
8.02432e-08
2.31889e-09
8.02243e-08
2.22362e-09
8.0205e-08
2.13843e-09
8.0195e-08
2.06735e-09
8.01943e-08
1.99819e-09
8.01955e-08
1.91481e-09
8.01936e-08
1.81775e-09
8.01894e-08
1.72092e-09
8.01857e-08
1.63059e-09
8.01831e-08
1.54136e-09
8.01792e-08
1.44745e-09
8.01716e-08
1.34871e-09
8.01601e-08
1.24829e-09
8.01451e-08
1.15044e-09
8.01271e-08
1.0567e-09
8.01058e-08
9.67044e-10
8.00813e-08
8.8174e-10
8.00538e-08
8.01334e-10
8.00243e-08
7.23198e-10
7.99941e-08
6.45893e-10
7.99648e-08
5.69921e-10
7.99371e-08
4.9894e-10
7.99122e-08
4.35223e-10
7.98892e-08
3.82826e-10
7.98674e-08
3.42703e-10
7.98447e-08
3.16148e-10
7.98208e-08
2.98976e-10
7.97938e-08
2.89285e-10
7.9765e-08
2.79435e-10
7.97333e-08
2.6959e-10
7.97014e-08
2.51078e-10
7.96682e-08
2.33449e-10
7.96375e-08
2.03233e-10
7.96071e-08
1.84105e-10
7.9581e-08
1.46216e-10
7.95555e-08
1.3447e-10
9.2147e-11
8.28831e-08
2.45152e-09
-8.28189e-08
8.29732e-08
2.69114e-09
8.30893e-08
2.90939e-09
8.32307e-08
3.1218e-09
8.33911e-08
3.30944e-09
8.35577e-08
3.44601e-09
8.37154e-08
3.53293e-09
8.38536e-08
3.56694e-09
8.39719e-08
3.54234e-09
8.40677e-08
3.47749e-09
8.41395e-08
3.39162e-09
8.41919e-08
3.29189e-09
8.42268e-08
3.18463e-09
8.42444e-08
3.07892e-09
8.42515e-08
2.98161e-09
8.4255e-08
2.8943e-09
8.42565e-08
2.82002e-09
8.42572e-08
2.76054e-09
8.4262e-08
2.70618e-09
8.42718e-08
2.64561e-09
8.42802e-08
2.5777e-09
8.4282e-08
2.50235e-09
8.42787e-08
2.41751e-09
8.42703e-08
2.32723e-09
8.42555e-08
2.2384e-09
8.42396e-08
2.15437e-09
8.42302e-08
2.0768e-09
8.42274e-08
2.00097e-09
8.4226e-08
1.91617e-09
8.42226e-08
1.82117e-09
8.42172e-08
1.72629e-09
8.42119e-08
1.63587e-09
8.42074e-08
1.54588e-09
8.42018e-08
1.4531e-09
8.41931e-08
1.35739e-09
8.41813e-08
1.26008e-09
8.41667e-08
1.165e-09
8.41495e-08
1.07394e-09
8.41294e-08
9.87146e-10
8.41064e-08
9.04731e-10
8.40806e-08
8.2716e-10
8.4053e-08
7.50822e-10
8.40246e-08
6.74245e-10
8.39969e-08
5.97595e-10
8.39707e-08
5.25161e-10
8.39469e-08
4.59085e-10
8.39246e-08
4.05085e-10
8.39033e-08
3.64028e-10
8.38808e-08
3.38573e-10
8.3857e-08
3.22848e-10
8.38301e-08
3.16198e-10
8.38013e-08
3.08198e-10
8.37696e-08
3.01237e-10
8.37378e-08
2.82888e-10
8.37047e-08
2.66573e-10
8.3674e-08
2.33961e-10
8.36435e-08
2.14574e-10
8.36173e-08
1.72416e-10
8.35917e-08
1.60059e-10
1.12799e-10
8.7185e-08
2.39086e-09
-8.71244e-08
8.72676e-08
2.60858e-09
8.73711e-08
2.80589e-09
8.74973e-08
2.9956e-09
8.76404e-08
3.1663e-09
8.77895e-08
3.29693e-09
8.79342e-08
3.38823e-09
8.80638e-08
3.43733e-09
8.81752e-08
3.43099e-09
8.82681e-08
3.38458e-09
8.83404e-08
3.31934e-09
8.83935e-08
3.2388e-09
8.84297e-08
3.14841e-09
8.84513e-08
3.05732e-09
8.84638e-08
2.9691e-09
8.84713e-08
2.88674e-09
8.84757e-08
2.81567e-09
8.84796e-08
2.75658e-09
8.84858e-08
2.70003e-09
8.84944e-08
2.63704e-09
8.85018e-08
2.57029e-09
8.85041e-08
2.50003e-09
8.85019e-08
2.41967e-09
8.84959e-08
2.33323e-09
8.84847e-08
2.24959e-09
8.8472e-08
2.16713e-09
8.84636e-08
2.0852e-09
8.84596e-08
2.00498e-09
8.84562e-08
1.91952e-09
8.84515e-08
1.82591e-09
8.84452e-08
1.73256e-09
8.84385e-08
1.64257e-09
8.84321e-08
1.55231e-09
8.84248e-08
1.46041e-09
8.8415e-08
1.3671e-09
8.84029e-08
1.27223e-09
8.83885e-08
1.17934e-09
8.8372e-08
1.09046e-09
8.8353e-08
1.00614e-09
8.83315e-08
9.26307e-10
8.83073e-08
8.51319e-10
8.82815e-08
7.76604e-10
8.8255e-08
7.00749e-10
8.82291e-08
6.23552e-10
8.82043e-08
5.49908e-10
8.81816e-08
4.81777e-10
8.81602e-08
4.2653e-10
8.81394e-08
3.84825e-10
8.81173e-08
3.60675e-10
8.80936e-08
3.46495e-10
8.80669e-08
3.4294e-10
8.80383e-08
3.36787e-10
8.80069e-08
3.32673e-10
8.79753e-08
3.14474e-10
8.79424e-08
2.99442e-10
8.79119e-08
2.64508e-10
8.78816e-08
2.44864e-10
8.78554e-08
1.98539e-10
8.78299e-08
1.85577e-10
1.33429e-10
9.1699e-08
2.33435e-09
-9.16425e-08
9.17746e-08
2.53295e-09
9.1867e-08
2.71348e-09
9.19786e-08
2.88398e-09
9.21055e-08
3.03942e-09
9.22378e-08
3.16466e-09
9.23689e-08
3.25715e-09
9.24898e-08
3.31637e-09
9.25941e-08
3.32675e-09
9.26825e-08
3.29618e-09
9.27537e-08
3.24807e-09
9.28065e-08
3.18605e-09
9.28434e-08
3.11152e-09
9.2868e-08
3.03272e-09
9.28846e-08
2.95245e-09
9.2896e-08
2.87542e-09
9.29027e-08
2.80894e-09
9.29083e-08
2.75099e-09
9.29159e-08
2.69241e-09
9.29246e-08
2.62835e-09
9.29312e-08
2.56369e-09
9.29338e-08
2.49744e-09
9.2933e-08
2.42041e-09
9.29291e-08
2.33716e-09
9.2921e-08
2.25773e-09
9.29112e-08
2.17687e-09
9.29041e-08
2.09236e-09
9.28994e-08
2.00962e-09
9.28948e-08
1.92412e-09
9.28892e-08
1.83158e-09
9.28823e-08
1.73947e-09
9.28746e-08
1.65025e-09
9.28666e-08
1.56032e-09
9.28578e-08
1.46922e-09
9.28473e-08
1.3776e-09
9.28349e-08
1.2846e-09
9.28207e-08
1.19352e-09
9.28049e-08
1.10632e-09
9.2787e-08
1.02401e-09
9.27668e-08
9.46483e-10
9.27443e-08
8.73843e-10
9.27204e-08
8.00549e-10
9.26957e-08
7.25382e-10
9.26715e-08
6.47751e-10
9.26483e-08
5.73101e-10
9.26269e-08
5.03188e-10
9.26064e-08
4.47025e-10
9.25863e-08
4.04932e-10
9.25647e-08
3.82259e-10
9.25415e-08
3.697e-10
9.25152e-08
3.69267e-10
9.2487e-08
3.6495e-10
9.24561e-08
3.6363e-10
9.2425e-08
3.4557e-10
9.23926e-08
3.31775e-10
9.23626e-08
2.94591e-10
9.23327e-08
2.74701e-10
9.23069e-08
2.24331e-10
9.22817e-08
2.10789e-10
1.53852e-10
9.79634e-08
2.28132e-09
-9.79104e-08
9.80332e-08
2.46324e-09
9.81172e-08
2.62939e-09
9.82163e-08
2.78494e-09
9.83293e-08
2.92642e-09
9.84484e-08
3.04551e-09
9.85675e-08
3.13809e-09
9.86803e-08
3.20354e-09
9.87783e-08
3.22882e-09
9.8861e-08
3.21344e-09
9.89307e-08
3.1784e-09
9.89843e-08
3.13244e-09
9.90222e-08
3.07357e-09
9.9049e-08
3.00596e-09
9.90679e-08
2.93359e-09
9.90816e-08
2.86164e-09
9.90916e-08
2.79895e-09
9.90988e-08
2.74385e-09
9.91067e-08
2.6845e-09
9.91161e-08
2.61893e-09
9.91227e-08
2.55705e-09
9.91253e-08
2.49485e-09
9.91261e-08
2.41959e-09
9.91243e-08
2.33897e-09
9.91184e-08
2.26364e-09
9.91112e-08
2.18411e-09
9.91054e-08
2.0981e-09
9.91007e-08
2.01437e-09
9.90955e-08
1.92933e-09
9.90892e-08
1.83789e-09
9.90817e-08
1.74693e-09
9.90734e-08
1.65852e-09
9.90643e-08
1.5694e-09
9.90543e-08
1.47928e-09
9.90431e-08
1.38881e-09
9.90305e-08
1.29713e-09
9.90164e-08
1.20763e-09
9.9001e-08
1.12174e-09
9.8984e-08
1.04098e-09
9.8965e-08
9.65498e-10
9.89438e-08
8.95029e-10
9.89214e-08
8.22981e-10
9.88983e-08
7.48457e-10
9.88756e-08
6.70464e-10
9.88538e-08
5.94961e-10
9.88335e-08
5.23488e-10
9.88138e-08
4.66696e-10
9.87943e-08
4.24446e-10
9.87731e-08
4.03407e-10
9.87503e-08
3.92544e-10
9.87243e-08
3.9527e-10
9.86964e-08
3.92791e-10
9.86658e-08
3.94226e-10
9.86351e-08
3.76297e-10
9.86032e-08
3.637e-10
9.85735e-08
3.24322e-10
9.8544e-08
3.04193e-10
9.85184e-08
2.49879e-10
9.84934e-08
2.35787e-10
1.74139e-10
1.10046e-07
2.22904e-09
-1.09994e-07
1.10113e-07
2.39671e-09
1.10193e-07
2.54937e-09
1.10285e-07
2.69292e-09
1.10388e-07
2.82283e-09
1.10499e-07
2.93442e-09
1.10611e-07
3.0268e-09
1.10718e-07
3.09654e-09
1.10813e-07
3.13347e-09
1.10893e-07
3.13363e-09
1.10962e-07
3.10958e-09
1.11018e-07
3.07638e-09
1.11058e-07
3.03373e-09
1.11087e-07
2.97698e-09
1.11108e-07
2.91208e-09
1.11124e-07
2.84606e-09
1.11137e-07
2.78571e-09
1.11147e-07
2.73406e-09
1.11154e-07
2.6769e-09
1.11164e-07
2.60897e-09
1.11173e-07
2.54873e-09
1.11176e-07
2.49182e-09
1.11177e-07
2.41789e-09
1.11178e-07
2.33869e-09
1.11174e-07
2.26761e-09
1.11168e-07
2.1896e-09
1.11164e-07
2.1026e-09
1.11159e-07
2.01886e-09
1.11154e-07
1.93464e-09
1.11147e-07
1.84452e-09
1.11139e-07
1.75514e-09
1.1113e-07
1.66759e-09
1.1112e-07
1.57942e-09
1.11109e-07
1.49054e-09
1.11097e-07
1.40092e-09
1.11084e-07
1.3101e-09
1.11069e-07
1.22202e-09
1.11054e-07
1.13728e-09
1.11037e-07
1.05776e-09
1.11018e-07
9.84037e-10
1.10998e-07
9.15598e-10
1.10976e-07
8.44724e-10
1.10954e-07
7.70851e-10
1.10932e-07
6.92508e-10
1.1091e-07
6.16229e-10
1.1089e-07
5.43357e-10
1.10871e-07
4.86193e-10
1.10851e-07
4.43983e-10
1.1083e-07
4.24767e-10
1.10807e-07
4.15727e-10
1.1078e-07
4.21754e-10
1.10752e-07
4.21175e-10
1.10721e-07
4.25423e-10
1.10689e-07
4.07625e-10
1.10657e-07
3.9623e-10
1.10627e-07
3.54639e-10
1.10597e-07
3.34279e-10
1.1057e-07
2.75988e-10
1.10545e-07
2.61366e-10
1.94953e-10
1.23611e-07
2.17967e-09
-1.23562e-07
1.23673e-07
2.33507e-09
1.23747e-07
2.47554e-09
1.23831e-07
2.60843e-09
1.23924e-07
2.73065e-09
1.24022e-07
2.83559e-09
1.24123e-07
2.92596e-09
1.24222e-07
2.99808e-09
1.24313e-07
3.04217e-09
1.24389e-07
3.05755e-09
1.24452e-07
3.04626e-09
1.24507e-07
3.02139e-09
1.2455e-07
2.99158e-09
1.2458e-07
2.94607e-09
1.24604e-07
2.88906e-09
1.24619e-07
2.83068e-09
1.24633e-07
2.77163e-09
1.24647e-07
2.72044e-09
1.24655e-07
2.66828e-09
1.24664e-07
2.60062e-09
1.24673e-07
2.53918e-09
1.24678e-07
2.48682e-09
1.2468e-07
2.4161e-09
1.24681e-07
2.33727e-09
1.2468e-07
2.26876e-09
1.24677e-07
2.19307e-09
1.24673e-07
2.10631e-09
1.24669e-07
2.02282e-09
1.24664e-07
1.93937e-09
1.24658e-07
1.85073e-09
1.2465e-07
1.76329e-09
1.24641e-07
1.67698e-09
1.2463e-07
1.5899e-09
1.24618e-07
1.50227e-09
1.24606e-07
1.41336e-09
1.24593e-07
1.32298e-09
1.24579e-07
1.23594e-09
1.24564e-07
1.1523e-09
1.24548e-07
1.07402e-09
1.2453e-07
1.00172e-09
1.24511e-07
9.34936e-10
1.2449e-07
8.6518e-10
1.24469e-07
7.92058e-10
1.24448e-07
7.13335e-10
1.24428e-07
6.36305e-10
1.24409e-07
5.62221e-10
1.24391e-07
5.04952e-10
1.24372e-07
4.62935e-10
1.24351e-07
4.45671e-10
1.24328e-07
4.38535e-10
1.24302e-07
4.47933e-10
1.24274e-07
4.4926e-10
1.24243e-07
4.56308e-10
1.24212e-07
4.3864e-10
1.2418e-07
4.28427e-10
1.2415e-07
3.84669e-10
1.2412e-07
3.64084e-10
1.24094e-07
3.01917e-10
1.24068e-07
2.86761e-10
2.15702e-10
1.3884e-07
2.13659e-09
-1.38797e-07
1.38895e-07
2.28032e-09
1.3896e-07
2.4104e-09
1.39034e-07
2.53404e-09
1.39113e-07
2.65156e-09
1.39196e-07
2.75277e-09
1.39283e-07
2.83863e-09
1.39371e-07
2.91034e-09
1.39454e-07
2.95959e-09
1.39524e-07
2.98747e-09
1.3958e-07
2.99042e-09
1.39629e-07
2.97198e-09
1.39672e-07
2.94863e-09
1.39704e-07
2.91416e-09
1.39726e-07
2.86667e-09
1.39741e-07
2.81588e-09
1.39754e-07
2.75862e-09
1.3977e-07
2.70448e-09
1.39782e-07
2.6567e-09
1.39787e-07
2.59536e-09
1.39795e-07
2.53119e-09
1.39804e-07
2.4776e-09
1.39807e-07
2.41321e-09
1.39807e-07
2.33735e-09
1.39808e-07
2.2673e-09
1.39808e-07
2.19323e-09
1.39805e-07
2.10944e-09
1.39802e-07
2.0262e-09
1.39798e-07
1.94302e-09
1.39792e-07
1.85629e-09
1.39785e-07
1.7706e-09
1.39777e-07
1.68558e-09
1.39766e-07
1.59998e-09
1.39755e-07
1.51341e-09
1.39743e-07
1.42522e-09
1.39731e-07
1.33534e-09
1.39718e-07
1.24869e-09
1.39705e-07
1.16574e-09
1.3969e-07
1.08897e-09
1.39674e-07
1.01793e-09
1.39656e-07
9.52228e-10
1.39638e-07
8.83513e-10
1.39619e-07
8.11367e-10
1.396e-07
7.32206e-10
1.39582e-07
6.54348e-10
1.39565e-07
5.79268e-10
1.39548e-07
5.22188e-10
1.3953e-07
4.80486e-10
1.39511e-07
4.65183e-10
1.39489e-07
4.5995e-10
1.39464e-07
4.72639e-10
1.39438e-07
4.75813e-10
1.39409e-07
4.85525e-10
1.39379e-07
4.68024e-10
1.39349e-07
4.58914e-10
1.3932e-07
4.1317e-10
1.39292e-07
3.92343e-10
1.39267e-07
3.26584e-10
1.39243e-07
3.10963e-10
2.3544e-10
1.55935e-07
2.10287e-09
-1.55901e-07
1.55979e-07
2.23565e-09
1.56033e-07
2.35701e-09
1.56093e-07
2.47423e-09
1.56157e-07
2.58731e-09
1.56222e-07
2.68778e-09
1.5629e-07
2.77039e-09
1.56363e-07
2.83781e-09
1.56432e-07
2.89023e-09
1.56492e-07
2.92706e-09
1.56539e-07
2.94368e-09
1.56578e-07
2.93354e-09
1.56616e-07
2.90971e-09
1.56649e-07
2.88193e-09
1.56669e-07
2.8464e-09
1.56682e-07
2.80245e-09
1.56693e-07
2.74812e-09
1.56707e-07
2.6901e-09
1.56723e-07
2.64145e-09
1.56727e-07
2.5909e-09
1.5673e-07
2.52773e-09
1.56743e-07
2.4655e-09
1.56749e-07
2.40713e-09
1.56746e-07
2.33959e-09
1.56749e-07
2.26476e-09
1.56752e-07
2.18993e-09
1.5675e-07
2.11205e-09
1.56747e-07
2.02852e-09
1.56746e-07
1.94427e-09
1.56741e-07
1.86089e-09
1.56735e-07
1.77705e-09
1.56728e-07
1.69249e-09
1.5672e-07
1.60843e-09
1.5671e-07
1.52259e-09
1.56701e-07
1.435e-09
1.5669e-07
1.34616e-09
1.56679e-07
1.2595e-09
1.56668e-07
1.17656e-09
1.56656e-07
1.1015e-09
1.56642e-07
1.03173e-09
1.56628e-07
9.66378e-10
1.56613e-07
8.9843e-10
1.56597e-07
8.2755e-10
1.56581e-07
7.48055e-10
1.56566e-07
6.69338e-10
1.56552e-07
5.9348e-10
1.56537e-07
5.3682e-10
1.56522e-07
4.95457e-10
1.56505e-07
4.8196e-10
1.56487e-07
4.78482e-10
1.56465e-07
4.94224e-10
1.56442e-07
4.99078e-10
1.56416e-07
5.11229e-10
1.5639e-07
4.93909e-10
1.56363e-07
4.85823e-10
1.56338e-07
4.3835e-10
1.56313e-07
4.17327e-10
1.56291e-07
3.48393e-10
1.5627e-07
3.32375e-10
2.53072e-10
1.75126e-07
2.08101e-09
-1.75104e-07
1.75156e-07
2.20565e-09
1.75194e-07
2.31949e-09
1.75234e-07
2.4334e-09
1.75279e-07
2.54315e-09
1.75322e-07
2.64416e-09
1.75367e-07
2.7253e-09
1.75419e-07
2.78655e-09
1.75468e-07
2.84052e-09
1.75512e-07
2.88368e-09
1.75546e-07
2.90962e-09
1.75571e-07
2.90789e-09
1.75601e-07
2.8803e-09
1.75629e-07
2.85389e-09
1.75644e-07
2.83101e-09
1.75654e-07
2.79243e-09
1.75663e-07
2.73932e-09
1.75674e-07
2.67901e-09
1.75689e-07
2.62665e-09
1.75694e-07
2.58592e-09
1.75695e-07
2.52703e-09