/*--------------------------------*- C++ -*----------------------------------*\
| =========                 |                                                 |
| \\      /  F ield         | OpenFOAM: The Open Source CFD Toolbox           |
|  \\    /   O peration     | Version:  2.3.0                                 |
|   \\  /    A nd           | Web:      www.OpenFOAM.org                      |
|    \\/     M anipulation  |                                                 |
\*---------------------------------------------------------------------------*/
FoamFile
{
    version     2.0;
    format      ascii;
    class       surfaceScalarField;
    location    "0.85";
    object      phi;
}
// * * * * * * * * * * * * * * * * * * * * * * * * * * * * * * * * * * * * * //

dimensions      [0 3 -1 0 0 0 0];

internalField   nonuniform List<scalar> 
6598
(
2.89617e-08
2.75204e-09
-3.17138e-08
2.55245e-08
3.43724e-09
2.21117e-08
3.41282e-09
1.89455e-08
3.16614e-09
1.60595e-08
2.88608e-09
1.35298e-08
2.52967e-09
1.14473e-08
2.08248e-09
9.82971e-09
1.61761e-09
8.64202e-09
1.18768e-09
7.80115e-09
8.40876e-10
7.21138e-09
5.89766e-10
6.79035e-09
4.21025e-10
6.47668e-09
3.13673e-10
6.22785e-09
2.48836e-10
6.01573e-09
2.12112e-10
5.82407e-09
1.91665e-10
5.64499e-09
1.79081e-10
5.47551e-09
1.6948e-10
5.31494e-09
1.60572e-10
5.16335e-09
1.51583e-10
5.02089e-09
1.42467e-10
4.88744e-09
1.33451e-10
4.76265e-09
1.24786e-10
4.64598e-09
1.16669e-10
4.53678e-09
1.092e-10
4.43436e-09
1.02417e-10
4.33808e-09
9.62887e-11
4.24731e-09
9.07683e-11
4.16152e-09
8.57823e-11
4.08025e-09
8.12704e-11
4.00309e-09
7.71616e-11
3.92968e-09
7.34098e-11
3.85972e-09
6.99581e-11
3.79295e-09
6.67784e-11
3.72912e-09
6.38264e-11
3.66803e-09
6.10886e-11
3.6095e-09
5.85286e-11
3.55336e-09
5.61437e-11
3.49946e-09
5.39013e-11
3.44765e-09
5.18071e-11
3.39782e-09
4.98288e-11
3.34984e-09
4.79792e-11
3.30362e-09
4.62241e-11
3.25904e-09
4.45833e-11
3.21602e-09
4.30186e-11
3.17446e-09
4.15575e-11
3.1343e-09
4.01564e-11
3.09545e-09
3.88507e-11
3.05786e-09
3.75907e-11
3.02144e-09
3.64203e-11
2.98616e-09
3.52819e-11
2.95193e-09
3.42302e-11
2.91873e-09
3.31969e-11
2.88648e-09
3.22499e-11
2.85517e-09
3.13076e-11
2.82472e-09
3.04533e-11
2.79513e-09
2.95903e-11
2.76631e-09
2.8819e-11
2.73829e-09
2.80244e-11
2.71096e-09
2.73282e-11
2.68437e-09
2.65925e-11
2.6584e-09
2.59648e-11
2.63312e-09
2.52795e-11
2.60841e-09
2.47151e-11
2.58433e-09
2.40728e-11
2.56077e-09
2.35671e-11
2.53781e-09
2.29606e-11
2.5153e-09
2.25109e-11
2.49336e-09
2.19331e-11
2.47182e-09
2.15378e-11
2.45084e-09
2.09819e-11
2.4302e-09
2.064e-11
2.4101e-09
2.00998e-11
2.39029e-09
1.98116e-11
2.37101e-09
1.92803e-11
2.35196e-09
1.90476e-11
2.33345e-09
1.85177e-11
2.3151e-09
1.83443e-11
2.29729e-09
1.78081e-11
2.2796e-09
1.76985e-11
2.26245e-09
1.71482e-11
2.24534e-09
1.71088e-11
2.2288e-09
1.65346e-11
2.21223e-09
1.65758e-11
2.19626e-09
1.59659e-11
2.18016e-09
1.61004e-11
2.16472e-09
1.54421e-11
2.14903e-09
1.5687e-11
2.13407e-09
1.49619e-11
2.11873e-09
1.53433e-11
2.1042e-09
1.45282e-11
2.08912e-09
1.50789e-11
2.07497e-09
1.41463e-11
2.06006e-09
1.4911e-11
2.04624e-09
1.38239e-11
2.03137e-09
1.48691e-11
2.0178e-09
1.3573e-11
2.00277e-09
1.50252e-11
1.9893e-09
1.34671e-11
1.73272e-11
3.41547e-08
2.48179e-09
-3.38844e-08
3.39746e-08
3.61728e-09
3.32877e-08
4.09975e-09
3.23211e-08
4.13275e-09
3.11844e-08
4.02283e-09
2.99026e-08
3.8114e-09
2.85066e-08
3.47849e-09
2.70723e-08
3.05193e-09
2.56725e-08
2.58743e-09
2.43591e-08
2.15432e-09
2.31542e-08
1.79466e-09
2.206e-08
1.51519e-09
2.10726e-08
1.30115e-09
2.01868e-08
1.13458e-09
1.9392e-08
1.00691e-09
1.86765e-08
9.07216e-10
1.80291e-08
8.26502e-10
1.744e-08
7.58566e-10
1.6901e-08
6.99567e-10
1.64053e-08
6.47278e-10
1.59473e-08
6.0041e-10
1.55226e-08
5.58211e-10
1.51272e-08
5.20169e-10
1.4758e-08
4.85898e-10
1.44121e-08
4.55045e-10
1.40873e-08
4.27276e-10
1.37813e-08
4.02242e-10
1.34924e-08
3.79632e-10
1.32191e-08
3.59132e-10
1.29599e-08
3.40488e-10
1.27136e-08
3.23449e-10
1.24792e-08
3.07828e-10
1.22557e-08
2.93435e-10
1.20423e-08
2.80143e-10
1.18383e-08
2.67807e-10
1.16431e-08
2.56349e-10
1.1456e-08
2.45651e-10
1.12764e-08
2.35671e-10
1.1104e-08
2.2631e-10
1.09383e-08
2.17548e-10
1.07788e-08
2.09298e-10
1.06252e-08
2.01558e-10
1.04772e-08
1.94243e-10
1.03344e-08
1.8737e-10
1.01966e-08
1.80852e-10
1.00634e-08
1.74721e-10
9.9347e-09
1.68885e-10
9.81016e-09
1.63395e-10
9.6896e-09
1.58146e-10
9.57281e-09
1.53211e-10
9.45962e-09
1.48472e-10
9.34983e-09
1.44021e-10
9.24331e-09
1.39723e-10
9.13986e-09
1.35697e-10
9.03938e-09
1.31786e-10
8.9417e-09
1.28134e-10
8.84673e-09
1.24561e-10
8.75431e-09
1.21242e-10
8.66437e-09
1.17965e-10
8.57675e-09
1.14944e-10
8.49142e-09
1.11925e-10
8.40821e-09
1.09172e-10
8.32711e-09
1.06381e-10
8.24795e-09
1.03871e-10
8.17075e-09
1.01279e-10
8.09532e-09
9.8989e-11
8.02171e-09
9.65718e-11
7.94974e-09
9.44851e-11
7.87945e-09
9.22182e-11
7.81067e-09
9.0322e-11
7.74347e-09
8.81837e-11
7.67764e-09
8.64668e-11
7.6133e-09
8.44381e-11
7.55022e-09
8.28928e-11
7.48855e-09
8.09546e-11
7.42802e-09
7.95772e-11
7.36882e-09
7.77106e-11
7.31067e-09
7.65015e-11
7.25379e-09
7.46885e-11
7.19783e-09
7.36505e-11
7.14311e-09
7.1874e-11
7.0892e-09
7.10142e-11
7.03648e-09
6.92553e-11
6.98447e-09
6.85882e-11
6.93361e-09
6.6826e-11
6.88334e-09
6.63711e-11
6.8342e-09
6.45858e-11
6.78551e-09
6.43706e-11
6.73794e-09
6.2535e-11
6.69068e-09
6.26039e-11
6.64452e-09
6.06875e-11
6.5985e-09
6.10945e-11
6.55358e-09
5.90695e-11
6.50861e-09
5.98845e-11
6.46471e-09
5.77247e-11
6.42053e-09
5.90439e-11
6.37737e-09
5.6733e-11
6.33363e-09
5.87698e-11
6.29061e-09
5.6485e-11
6.24645e-11
3.56578e-08
2.35157e-09
-3.55276e-08
3.60368e-08
3.23828e-09
3.62578e-08
3.87879e-09
3.62999e-08
4.09056e-09
3.62256e-08
4.09719e-09
3.60304e-08
4.0066e-09
3.56862e-08
3.82268e-09
3.51983e-08
3.53981e-09
3.4597e-08
3.1887e-09
3.39243e-08
2.82708e-09
3.32152e-08
2.50378e-09
3.24921e-08
2.23822e-09
3.1768e-08
2.02525e-09
3.10503e-08
1.85228e-09
3.03462e-08
1.71106e-09
2.96597e-08
1.59364e-09
2.89932e-08
1.49304e-09
2.83477e-08
1.40411e-09
2.77237e-08
1.32352e-09
2.71217e-08
1.24932e-09
2.65417e-08
1.18041e-09
2.59837e-08
1.11622e-09
2.54474e-08
1.05639e-09
2.49326e-08
1.0007e-09
2.44387e-08
9.48943e-10
2.39651e-08
9.00914e-10
2.3511e-08
8.56361e-10
2.30756e-08
8.1504e-10
2.2658e-08
7.76678e-10
2.22575e-08
7.41039e-10
2.18731e-08
7.07869e-10
2.15039e-08
6.76966e-10
2.11492e-08
6.4811e-10
2.08082e-08
6.21142e-10
2.04802e-08
5.95876e-10
2.01643e-08
5.72194e-10
1.986e-08
5.49936e-10
1.95667e-08
5.29018e-10
1.92837e-08
5.093e-10
1.90105e-08
4.90727e-10
1.87467e-08
4.73174e-10
1.84916e-08
4.56606e-10
1.82449e-08
4.40908e-10
1.80062e-08
4.26068e-10
1.77751e-08
4.1197e-10
1.75512e-08
3.98626e-10
1.73342e-08
3.85917e-10
1.71237e-08
3.73874e-10
1.69195e-08
3.62377e-10
1.67212e-08
3.51474e-10
1.65286e-08
3.41037e-10
1.63415e-08
3.31137e-10
1.61596e-08
3.21632e-10
1.59827e-08
3.12616e-10
1.58106e-08
3.03934e-10
1.5643e-08
2.95704e-10
1.54798e-08
2.87749e-10
1.53208e-08
2.80219e-10
1.51659e-08
2.7291e-10
1.50148e-08
2.66005e-10
1.48675e-08
2.59271e-10
1.47237e-08
2.52928e-10
1.45834e-08
2.46705e-10
1.44464e-08
2.40869e-10
1.43126e-08
2.35102e-10
1.41818e-08
2.29723e-10
1.4054e-08
2.24363e-10
1.39291e-08
2.19401e-10
1.38069e-08
2.14403e-10
1.36874e-08
2.09824e-10
1.35705e-08
2.05148e-10
1.3456e-08
2.00921e-10
1.33439e-08
1.96533e-10
1.32342e-08
1.92632e-10
1.31266e-08
1.88501e-10
1.30213e-08
1.84908e-10
1.2918e-08
1.81003e-10
1.28168e-08
1.77705e-10
1.27175e-08
1.74001e-10
1.26202e-08
1.70986e-10
1.25246e-08
1.67463e-10
1.24309e-08
1.64727e-10
1.23388e-08
1.61363e-10
1.22484e-08
1.58911e-10
1.21596e-08
1.55687e-10
1.20724e-08
1.53528e-10
1.19866e-08
1.50435e-10
1.19024e-08
1.48586e-10
1.18193e-08
1.45608e-10
1.17378e-08
1.44109e-10
1.16572e-08
1.41238e-10
1.15782e-08
1.40132e-10
1.14999e-08
1.37381e-10
1.1423e-08
1.36726e-10
1.13466e-08
1.34128e-10
1.12716e-08
1.34024e-10
1.11968e-08
1.31625e-10
1.11231e-08
1.32461e-10
1.1049e-08
1.30505e-10
1.35897e-10
3.71802e-08
2.29886e-09
-3.71275e-08
3.74719e-08
2.94663e-09
3.78131e-08
3.53758e-09
3.80752e-08
3.82845e-09
3.82782e-08
3.8942e-09
3.8435e-08
3.84978e-09
3.85229e-08
3.73482e-09
3.85176e-08
3.54515e-09
3.84134e-08
3.29288e-09
3.82257e-08
3.01476e-09
3.79773e-08
2.75214e-09
3.76873e-08
2.52823e-09
3.73665e-08
2.34611e-09
3.70207e-08
2.1981e-09
3.66558e-08
2.0759e-09
3.62766e-08
1.97289e-09
3.5886e-08
1.88363e-09
3.54861e-08
1.80393e-09
3.50788e-08
1.73084e-09
3.46656e-08
1.66254e-09
3.4248e-08
1.59797e-09
3.38277e-08
1.53656e-09
3.34061e-08
1.47803e-09
3.29845e-08
1.42223e-09
3.25644e-08
1.36909e-09
3.21468e-08
1.31852e-09
3.17327e-08
1.27042e-09
3.13231e-08
1.22467e-09
3.09186e-08
1.18114e-09
3.052e-08
1.1397e-09
3.01276e-08
1.10023e-09
2.9742e-08
1.06261e-09
2.93634e-08
1.02672e-09
2.8992e-08
9.92473e-10
2.86281e-08
9.59762e-10
2.82718e-08
9.28512e-10
2.79231e-08
8.98639e-10
2.75821e-08
8.70078e-10
2.72486e-08
8.42757e-10
2.69227e-08
8.1662e-10
2.66043e-08
7.91604e-10
2.62932e-08
7.67661e-10
2.59894e-08
7.44732e-10
2.56927e-08
7.22775e-10
2.54029e-08
7.01738e-10
2.512e-08
6.81581e-10
2.48436e-08
6.62258e-10
2.45738e-08
6.43731e-10
2.43102e-08
6.25961e-10
2.40528e-08
6.08911e-10
2.38012e-08
5.92547e-10
2.35556e-08
5.76836e-10
2.33154e-08
5.61746e-10
2.30808e-08
5.47246e-10
2.28514e-08
5.33312e-10
2.26272e-08
5.19911e-10
2.24079e-08
5.07025e-10
2.21935e-08
4.94619e-10
2.19838e-08
4.82685e-10
2.17786e-08
4.71182e-10
2.15778e-08
4.60113e-10
2.13812e-08
4.4943e-10
2.11888e-08
4.39147e-10
2.10005e-08
4.2921e-10
2.08159e-08
4.19644e-10
2.06353e-08
4.10382e-10
2.04582e-08
4.01471e-10
2.02847e-08
3.92825e-10
2.01146e-08
3.8451e-10
1.9948e-08
3.76426e-10
1.97845e-08
3.68659e-10
1.96243e-08
3.61087e-10
1.94671e-08
3.53824e-10
1.9313e-08
3.46719e-10
1.91615e-08
3.39923e-10
1.90132e-08
3.33247e-10
1.88673e-08
3.26885e-10
1.87244e-08
3.20606e-10
1.85838e-08
3.14652e-10
1.8446e-08
3.08739e-10
1.83103e-08
3.03177e-10
1.81774e-08
2.97604e-10
1.80464e-08
2.92422e-10
1.79181e-08
2.87175e-10
1.77914e-08
2.82366e-10
1.76675e-08
2.77433e-10
1.75449e-08
2.73008e-10
1.74251e-08
2.68385e-10
1.73064e-08
2.64356e-10
1.71904e-08
2.60063e-10
1.70752e-08
2.56457e-10
1.69628e-08
2.52521e-10
1.68508e-08
2.49396e-10
1.67417e-08
2.45873e-10
1.66325e-08
2.43297e-10
1.65262e-08
2.40351e-10
1.64194e-08
2.38361e-10
1.63153e-08
2.36641e-10
1.62103e-08
2.35465e-10
2.38197e-10
3.87614e-08
2.24875e-09
-3.87113e-08
3.89633e-08
2.74478e-09
3.92674e-08
3.23348e-09
3.95506e-08
3.54519e-09
3.97885e-08
3.65634e-09
3.99979e-08
3.64032e-09
4.01782e-08
3.55455e-09
4.03106e-08
3.41272e-09
4.03809e-08
3.22257e-09
4.03904e-08
3.00533e-09
4.03523e-08
2.79025e-09
4.02806e-08
2.59986e-09
4.01841e-08
2.44265e-09
4.0067e-08
2.31518e-09
3.99325e-08
2.21041e-09
3.9783e-08
2.12233e-09
3.96202e-08
2.04642e-09
3.94449e-08
1.97923e-09
3.92576e-08
1.9182e-09
3.90586e-08
1.86157e-09
3.88483e-08
1.80823e-09
3.86274e-08
1.7575e-09
3.83964e-08
1.70899e-09
3.81562e-08
1.66247e-09
3.79074e-08
1.61781e-09
3.76511e-08
1.57489e-09
3.73879e-08
1.53364e-09
3.71186e-08
1.49391e-09
3.68441e-08
1.45564e-09
3.65651e-08
1.4187e-09
3.62823e-08
1.38301e-09
3.59965e-08
1.34847e-09
3.57082e-08
1.31504e-09
3.5418e-08
1.28261e-09
3.51266e-08
1.25117e-09
3.48345e-08
1.22063e-09
3.45421e-08
1.191e-09
3.425e-08
1.16219e-09
3.39585e-08
1.13424e-09
3.36681e-08
1.10705e-09
3.3379e-08
1.08067e-09
3.30917e-08
1.05499e-09
3.28063e-08
1.03011e-09
3.25232e-08
1.00588e-09
3.22425e-08
9.82414e-10
3.19646e-08
9.59557e-10
3.16894e-08
9.37446e-10
3.14172e-08
9.15892e-10
3.11481e-08
8.95069e-10
3.08823e-08
8.74752e-10
3.06197e-08
8.55154e-10
3.03605e-08
8.36007e-10
3.01047e-08
8.1757e-10
2.98524e-08
7.99528e-10
2.96035e-08
7.82191e-10
2.93582e-08
7.65185e-10
2.91164e-08
7.48889e-10
2.88781e-08
7.32854e-10
2.86433e-08
7.17541e-10
2.8412e-08
7.02413e-10
2.81841e-08
6.88024e-10
2.79598e-08
6.73742e-10
2.77387e-08
6.60223e-10
2.75212e-08
6.46724e-10
2.73068e-08
6.34028e-10
2.7096e-08
6.21248e-10
2.68881e-08
6.09329e-10
2.66837e-08
5.97213e-10
2.64822e-08
5.86026e-10
2.62841e-08
5.74519e-10
2.60888e-08
5.64025e-10
2.58968e-08
5.53073e-10
2.57074e-08
5.43243e-10
2.55213e-08
5.3279e-10
2.53376e-08
5.23598e-10
2.51573e-08
5.13598e-10
2.49791e-08
5.05021e-10
2.48043e-08
4.95428e-10
2.46315e-08
4.87456e-10
2.4462e-08
4.78224e-10
2.42943e-08
4.70858e-10
2.413e-08
4.61942e-10
2.39672e-08
4.55189e-10
2.38078e-08
4.46559e-10
2.36498e-08
4.40433e-10
2.34951e-08
4.32057e-10
2.33416e-08
4.26599e-10
2.31915e-08
4.18455e-10
2.30421e-08
4.13704e-10
2.28964e-08
4.05803e-10
2.2751e-08
4.01816e-10
2.26094e-08
3.94185e-10
2.24677e-08
3.91047e-10
2.23298e-08
3.83778e-10
2.21916e-08
3.81553e-10
2.2057e-08
3.74916e-10
2.19217e-08
3.73632e-10
2.17899e-08
3.68448e-10
2.1657e-08
3.68385e-10
3.67051e-10
4.03746e-08
2.19033e-09
-4.03161e-08
4.05286e-08
2.59071e-09
4.07778e-08
2.98426e-09
4.10413e-08
3.28174e-09
4.12743e-08
3.42335e-09
4.14774e-08
3.43723e-09
4.16578e-08
3.37411e-09
4.18085e-08
3.26207e-09
4.19183e-08
3.11272e-09
4.19845e-08
2.93917e-09
4.20141e-08
2.76064e-09
4.2018e-08
2.59592e-09
4.20048e-08
2.45587e-09
4.1979e-08
2.34096e-09
4.19431e-08
2.24637e-09
4.18985e-08
2.1669e-09
4.18463e-08
2.0986e-09
4.1787e-08
2.03858e-09
4.17204e-08
1.98475e-09
4.16465e-08
1.9355e-09
4.15649e-08
1.8898e-09
4.14756e-08
1.84685e-09
4.13783e-08
1.80624e-09
4.12732e-08
1.7676e-09
4.11602e-08
1.73077e-09
4.10396e-08
1.69551e-09
4.09115e-08
1.66177e-09
4.07761e-08
1.6293e-09
4.06336e-08
1.59809e-09
4.04844e-08
1.56791e-09
4.03287e-08
1.53875e-09
4.01668e-08
1.51039e-09
3.99989e-08
1.48289e-09
3.98255e-08
1.45603e-09
3.96468e-08
1.42989e-09
3.94631e-08
1.40426e-09
3.92749e-08
1.37928e-09
3.90824e-08
1.3547e-09
3.88859e-08
1.33074e-09
3.86858e-08
1.30711e-09
3.84824e-08
1.28407e-09
3.82761e-08
1.26131e-09
3.80671e-08
1.23913e-09
3.78558e-08
1.21719e-09
3.76423e-08
1.19584e-09
3.74272e-08
1.17468e-09
3.72105e-08
1.15414e-09
3.69927e-08
1.13373e-09
3.67737e-08
1.11399e-09
3.65542e-08
1.09431e-09
3.6334e-08
1.07534e-09
3.61136e-08
1.05638e-09
3.5893e-08
1.03818e-09
3.56727e-08
1.01991e-09
3.54524e-08
1.00246e-09
3.52327e-08
9.84867e-10
3.50134e-08
9.68174e-10
3.4795e-08
9.51226e-10
3.45773e-08
9.35273e-10
3.43608e-08
9.18948e-10
3.41451e-08
9.03723e-10
3.39308e-08
8.87994e-10
3.37176e-08
8.73485e-10
3.3506e-08
8.58319e-10
3.32955e-08
8.44518e-10
3.30868e-08
8.29876e-10
3.28794e-08
8.16776e-10
3.2674e-08
8.02622e-10
3.24698e-08
7.90208e-10
3.22678e-08
7.76506e-10
3.20671e-08
7.64773e-10
3.18687e-08
7.51478e-10
3.16715e-08
7.40428e-10
3.14768e-08
7.27491e-10
3.12833e-08
7.17126e-10
3.10923e-08
7.04506e-10
3.09025e-08
6.9483e-10
3.07155e-08
6.82483e-10
3.05294e-08
6.73513e-10
3.03463e-08
6.61388e-10
3.0164e-08
6.53155e-10
2.99847e-08
6.41203e-10
2.98062e-08
6.33739e-10
2.96308e-08
6.2193e-10
2.94559e-08
6.15274e-10
2.92844e-08
6.03571e-10
2.91132e-08
5.97795e-10
2.89455e-08
5.86174e-10
2.87779e-08
5.81339e-10
2.86139e-08
5.69827e-10
2.84497e-08
5.66008e-10
2.82892e-08
5.54656e-10
2.81283e-08
5.51949e-10
2.79712e-08
5.40907e-10
2.78133e-08
5.39373e-10
2.76593e-08
5.29004e-10
2.75042e-08
5.28716e-10
2.73527e-08
5.19875e-10
2.71999e-08
5.2119e-10
5.15467e-10
4.20227e-08
2.127e-09
-4.19593e-08
4.21518e-08
2.46155e-09
4.23538e-08
2.78231e-09
4.2587e-08
3.04851e-09
4.28072e-08
3.20315e-09
4.3e-08
3.24444e-09
4.31685e-08
3.2056e-09
4.33124e-08
3.11812e-09
4.34261e-08
2.99902e-09
4.35062e-08
2.85911e-09
4.35558e-08
2.71109e-09
4.35827e-08
2.56901e-09
4.3595e-08
2.44353e-09
4.3598e-08
2.33795e-09
4.35944e-08
2.24997e-09
4.35858e-08
2.17556e-09
4.3573e-08
2.11135e-09
4.35568e-08
2.0548e-09
4.35373e-08
2.00425e-09
4.35145e-08
1.95831e-09
4.34881e-08
1.91614e-09
4.34581e-08
1.87692e-09
4.3424e-08
1.8403e-09
4.33858e-08
1.80577e-09
4.33434e-08
1.77325e-09
4.32965e-08
1.74236e-09
4.32452e-08
1.71312e-09
4.31893e-08
1.68518e-09
4.31288e-08
1.65861e-09
4.30636e-08
1.63305e-09
4.29938e-08
1.60862e-09
4.29192e-08
1.58493e-09
4.28399e-08
1.56219e-09
4.2756e-08
1.53998e-09
4.26673e-08
1.51857e-09
4.25741e-08
1.49752e-09
4.24761e-08
1.47719e-09
4.23738e-08
1.45707e-09
4.22669e-08
1.43761e-09
4.21558e-08
1.41825e-09
4.20403e-08
1.39954e-09
4.19208e-08
1.38082e-09
4.17972e-08
1.36275e-09
4.16698e-08
1.34457e-09
4.15385e-08
1.32708e-09
4.14038e-08
1.30939e-09
4.12655e-08
1.29243e-09
4.11241e-08
1.27518e-09
4.09794e-08
1.25872e-09
4.08318e-08
1.24186e-09
4.06813e-08
1.22588e-09
4.05283e-08
1.20939e-09
4.03725e-08
1.19389e-09
4.02147e-08
1.17775e-09
4.00544e-08
1.16272e-09
3.98924e-08
1.14691e-09
3.97282e-08
1.13235e-09
3.95626e-08
1.11684e-09
3.93951e-08
1.10276e-09
3.92265e-08
1.08755e-09
3.90563e-08
1.07395e-09
3.88853e-08
1.05901e-09
3.87128e-08
1.04591e-09
3.85399e-08
1.03122e-09
3.83658e-08
1.01863e-09
3.81915e-08
1.00416e-09
3.80162e-08
9.92098e-10
3.7841e-08
9.77827e-10
3.76649e-08
9.66301e-10
3.74892e-08
9.52204e-10
3.73128e-08
9.41236e-10
3.7137e-08
9.27276e-10
3.69605e-08
9.16897e-10
3.6785e-08
9.03032e-10
3.66088e-08
8.93269e-10
3.64339e-08
8.79468e-10
3.62583e-08
8.7035e-10
3.60842e-08
8.56578e-10
3.59096e-08
8.48148e-10
3.57366e-08
8.3436e-10
3.55631e-08
8.26674e-10
3.53915e-08
8.12829e-10
3.52193e-08
8.0594e-10
3.50492e-08
7.92023e-10
3.48785e-08
7.85987e-10
3.47101e-08
7.71974e-10
3.4541e-08
7.6689e-10
3.43744e-08
7.52768e-10
3.4207e-08
7.48707e-10
3.40423e-08
7.34543e-10
3.38767e-08
7.31587e-10
3.37139e-08
7.17473e-10
3.35501e-08
7.15722e-10
3.33892e-08
7.01869e-10
3.32271e-08
7.014e-10
3.30679e-08
6.88227e-10
3.29074e-08
6.892e-10
3.27498e-08
6.77512e-10
3.25907e-08
6.80312e-10
6.71158e-10
4.37127e-08
2.06302e-09
-4.36488e-08
4.38265e-08
2.34777e-09
4.39933e-08
2.61551e-09
4.41953e-08
2.84653e-09
4.43978e-08
3.00064e-09
4.45803e-08
3.06197e-09
4.47385e-08
3.04735e-09
4.48737e-08
2.98301e-09
4.49841e-08
2.88859e-09
4.50676e-08
2.77565e-09
4.5125e-08
2.65368e-09
4.51613e-08
2.53267e-09
4.51832e-08
2.4216e-09
4.51961e-08
2.32503e-09
4.52031e-08
2.243e-09
4.52059e-08
2.17279e-09
4.52055e-08
2.11174e-09
4.52027e-08
2.05756e-09
4.5198e-08
2.00893e-09
4.51917e-08
1.96465e-09
4.51837e-08
1.92413e-09
4.51741e-08
1.88655e-09
4.51627e-08
1.85169e-09
4.51495e-08
1.81895e-09
4.51344e-08
1.78835e-09
4.51174e-08
1.75938e-09
4.50983e-08
1.73221e-09
4.50771e-08
1.70632e-09
4.50538e-08
1.68196e-09
4.50283e-08
1.65859e-09
4.50003e-08
1.63654e-09
4.497e-08
1.61521e-09
4.49372e-08
1.59502e-09
4.49019e-08
1.57532e-09
4.48638e-08
1.55664e-09
4.48231e-08
1.53824e-09
4.47795e-08
1.52079e-09
4.47331e-08
1.50343e-09
4.46837e-08
1.48699e-09
4.46315e-08
1.47049e-09
4.45761e-08
1.45489e-09
4.45179e-08
1.43909e-09
4.44564e-08
1.42421e-09
4.4392e-08
1.40897e-09
4.43244e-08
1.39472e-09
4.42538e-08
1.37996e-09
4.418e-08
1.36625e-09
4.41033e-08
1.35188e-09
4.40233e-08
1.33867e-09
4.39406e-08
1.32463e-09
4.38546e-08
1.31186e-09
4.37659e-08
1.2981e-09
4.3674e-08
1.28575e-09
4.35796e-08
1.2722e-09
4.3482e-08
1.26025e-09
4.33821e-08
1.24688e-09
4.32791e-08
1.23532e-09
4.31739e-08
1.22209e-09
4.30657e-08
1.21091e-09
4.29555e-08
1.19778e-09
4.28425e-08
1.18698e-09
4.27275e-08
1.17393e-09
4.26099e-08
1.1635e-09
4.24907e-08
1.15049e-09
4.23688e-08
1.14046e-09
4.22456e-08
1.12745e-09
4.21198e-08
1.11783e-09
4.19929e-08
1.10479e-09
4.18636e-08
1.0956e-09
4.17333e-08
1.0825e-09
4.16008e-08
1.07376e-09
4.14675e-08
1.06055e-09
4.13321e-08
1.0523e-09
4.11961e-08
1.03895e-09
4.10582e-08
1.03123e-09
4.092e-08
1.01771e-09
4.07798e-08
1.01053e-09
4.06395e-08
9.96811e-10
4.04975e-08
9.90239e-10
4.03555e-08
9.76282e-10
4.02118e-08
9.70383e-10
4.00685e-08
9.56154e-10
3.99235e-08
9.50974e-10
3.9779e-08
9.36485e-10
3.96329e-08
9.32085e-10
3.94876e-08
9.17323e-10
3.93406e-08
9.13818e-10
3.91946e-08
8.98794e-10
3.90471e-08
8.96239e-10
3.89005e-08
8.81067e-10
3.87526e-08
8.79541e-10
3.86057e-08
8.64356e-10
3.84575e-08
8.63967e-10
3.83103e-08
8.49025e-10
3.81618e-08
8.49868e-10
3.80144e-08
8.35618e-10
3.78657e-08
8.37942e-10
3.77181e-08
8.25105e-10
3.75691e-08
8.29278e-10
8.18639e-10
4.54509e-08
2.00073e-09
-4.53887e-08
4.5553e-08
2.24573e-09
4.56951e-08
2.47344e-09
4.58689e-08
2.67273e-09
4.60513e-08
2.81823e-09
4.62219e-08
2.89138e-09
4.63714e-08
2.89777e-09
4.64991e-08
2.85535e-09
4.66051e-08
2.78256e-09
4.66889e-08
2.69191e-09
4.67505e-08
2.59204e-09
4.67929e-08
2.49026e-09
4.68209e-08
2.39359e-09
4.68394e-08
2.30657e-09
4.68516e-08
2.23083e-09
4.68594e-08
2.16499e-09
4.68639e-08
2.10722e-09
4.6866e-08
2.05546e-09
4.68662e-08
2.00872e-09
4.6865e-08
1.96585e-09
4.68626e-08
1.92657e-09
4.68591e-08
1.89003e-09
4.68545e-08
1.85623e-09
4.68491e-08
1.82443e-09
4.68426e-08
1.79483e-09
4.68352e-08
1.76673e-09
4.68269e-08
1.74052e-09
4.68178e-08
1.71547e-09
4.68077e-08
1.69208e-09
4.67967e-08
1.66956e-09
4.67847e-08
1.64853e-09
4.67718e-08
1.6281e-09
4.67578e-08
1.60901e-09
4.67429e-08
1.59029e-09
4.67267e-08
1.57283e-09
4.67094e-08
1.55552e-09
4.66907e-08
1.53942e-09
4.66709e-08
1.52326e-09
4.66496e-08
1.50832e-09
4.6627e-08
1.49313e-09
4.66027e-08
1.47917e-09
4.6577e-08
1.46479e-09
4.65495e-08
1.45168e-09
4.65205e-08
1.43798e-09
4.64896e-08
1.42564e-09
4.6457e-08
1.4125e-09
4.64224e-08
1.40084e-09
4.63861e-08
1.38818e-09
4.63477e-08
1.37713e-09
4.63075e-08
1.36486e-09
4.6265e-08
1.35436e-09
4.62206e-08
1.34241e-09
4.6174e-08
1.33242e-09
4.61255e-08
1.32072e-09
4.60745e-08
1.31121e-09
4.60217e-08
1.29971e-09
4.59663e-08
1.29064e-09
4.59092e-08
1.27928e-09
4.58494e-08
1.27064e-09
4.57879e-08
1.25936e-09
4.57237e-08
1.25113e-09
4.56577e-08
1.23989e-09
4.55892e-08
1.23206e-09
4.55189e-08
1.2208e-09
4.54459e-08
1.21338e-09
4.53714e-08
1.20204e-09
4.52941e-08
1.19504e-09
4.52153e-08
1.18359e-09
4.5134e-08
1.17699e-09
4.50511e-08
1.16539e-09
4.49656e-08
1.15921e-09
4.48788e-08
1.1474e-09
4.47894e-08
1.14168e-09
4.46987e-08
1.12962e-09
4.46056e-08
1.12437e-09
4.45112e-08
1.11203e-09
4.44145e-08
1.10726e-09
4.43167e-08
1.09462e-09
4.42166e-08
1.09038e-09
4.41155e-08
1.07739e-09
4.40121e-08
1.07374e-09
4.39079e-08
1.06038e-09
4.38015e-08
1.05734e-09
4.36943e-08
1.04365e-09
4.35852e-08
1.04126e-09
4.34753e-08
1.02723e-09
4.33635e-08
1.02562e-09
4.3251e-08
1.01129e-09
4.31367e-08
1.01046e-09
4.30218e-08
9.95994e-10
4.29053e-08
9.96023e-10
4.27881e-08
9.81565e-10
4.26695e-08
9.82572e-10
4.25501e-08
9.68417e-10
4.24295e-08
9.70505e-10
4.2308e-08
9.57095e-10
4.21854e-08
9.6058e-10
4.20619e-08
9.48559e-10
4.19374e-08
9.53786e-10
9.43831e-10
4.72422e-08
1.94095e-09
-4.71824e-08
4.73345e-08
2.15343e-09
4.74584e-08
2.34949e-09
4.76088e-08
2.52241e-09
4.77711e-08
2.65593e-09
4.79282e-08
2.73423e-09
4.80692e-08
2.75677e-09
4.81906e-08
2.734e-09
4.82923e-08
2.68078e-09
4.8375e-08
2.60926e-09
4.84389e-08
2.52815e-09
4.84857e-08
2.44344e-09
4.85186e-08
2.36064e-09
4.85416e-08
2.28359e-09
4.85578e-08
2.21469e-09
4.85691e-08
2.15361e-09
4.85769e-08
2.09946e-09
4.85819e-08
2.05044e-09
4.85848e-08
2.00589e-09
4.85859e-08
1.96466e-09
4.85857e-08
1.92676e-09
4.85845e-08
1.89129e-09
4.85822e-08
1.85848e-09
4.85792e-08
1.82747e-09
4.85754e-08
1.79867e-09
4.85709e-08
1.77118e-09
4.85658e-08
1.74562e-09
4.85603e-08
1.72103e-09
4.85541e-08
1.69819e-09
4.85477e-08
1.67604e-09
4.85407e-08
1.65549e-09
4.85334e-08
1.63539e-09
4.85256e-08
1.61678e-09
4.85176e-08
1.59837e-09
4.8509e-08
1.5814e-09
4.85001e-08
1.56441e-09
4.84907e-08
1.54885e-09
4.84809e-08
1.53305e-09
4.84705e-08
1.51871e-09
4.84597e-08
1.50393e-09
4.84482e-08
1.49065e-09
4.84363e-08
1.47674e-09
4.84235e-08
1.46442e-09
4.84103e-08
1.45125e-09
4.83961e-08
1.43979e-09
4.83814e-08
1.42726e-09
4.83656e-08
1.41658e-09
4.83492e-08
1.4046e-09
4.83317e-08
1.39465e-09
4.83134e-08
1.38314e-09
4.82939e-08
1.37385e-09
4.82736e-08
1.36275e-09
4.82519e-08
1.35407e-09
4.82293e-08
1.34329e-09
4.82053e-08
1.3352e-09
4.81804e-08
1.32469e-09
4.81538e-08
1.31716e-09
4.81263e-08
1.30684e-09
4.80971e-08
1.29983e-09
4.80668e-08
1.28966e-09
4.80348e-08
1.28315e-09
4.80016e-08
1.27308e-09
4.79666e-08
1.26705e-09
4.79304e-08
1.257e-09
4.78923e-08
1.25146e-09
4.7853e-08
1.24137e-09
4.78117e-08
1.23629e-09
4.77692e-08
1.22614e-09
4.77247e-08
1.2215e-09
4.76788e-08
1.21124e-09
4.7631e-08
1.20705e-09
4.75818e-08
1.19661e-09
4.75306e-08
1.19289e-09
4.7478e-08
1.18222e-09
4.74234e-08
1.17897e-09
4.73673e-08
1.16806e-09
4.73093e-08
1.16525e-09
4.72499e-08
1.15407e-09
4.71885e-08
1.15174e-09
4.71257e-08
1.14025e-09
4.70609e-08
1.13846e-09
4.69947e-08
1.12666e-09
4.69266e-08
1.12535e-09
4.6857e-08
1.1133e-09
4.67857e-08
1.11254e-09
4.67127e-08
1.10019e-09
4.66383e-08
1.1001e-09
4.6562e-08
1.08756e-09
4.64844e-08
1.08806e-09
4.64049e-08
1.07549e-09
4.63242e-08
1.0767e-09
4.62415e-08
1.06425e-09
4.61578e-08
1.06627e-09
4.6072e-08
1.05427e-09
4.59853e-08
1.05722e-09
4.58963e-08
1.04605e-09
4.58066e-08
1.05028e-09
4.57146e-08
1.04054e-09
4.5622e-08
1.04641e-09
1.0387e-09
4.90906e-08
1.88378e-09
-4.90335e-08
4.91746e-08
2.06941e-09
4.92844e-08
2.23978e-09
4.94157e-08
2.39107e-09
4.95594e-08
2.51219e-09
4.97025e-08
2.59119e-09
4.98343e-08
2.62494e-09
4.99497e-08
2.61862e-09
5.00476e-08
2.5829e-09
5.01285e-08
2.52828e-09
5.01933e-08
2.46337e-09
5.02431e-08
2.39363e-09
5.02801e-08
2.32371e-09
5.0307e-08
2.25664e-09
5.03267e-08
2.19501e-09
5.03412e-08
2.13911e-09
5.03517e-08
2.08889e-09
5.03592e-08
2.04293e-09
5.03642e-08
2.0009e-09
5.03673e-08
1.96162e-09
5.03687e-08
1.92534e-09
5.03689e-08
1.89113e-09
5.03679e-08
1.85945e-09
5.03661e-08
1.82931e-09
5.03634e-08
1.80134e-09
5.03601e-08
1.77448e-09
5.03562e-08
1.74955e-09
5.03518e-08
1.7254e-09
5.0347e-08
1.70302e-09
5.03419e-08
1.68116e-09
5.03364e-08
1.66096e-09
5.03307e-08
1.64104e-09
5.03248e-08
1.62271e-09
5.03188e-08
1.60441e-09
5.03125e-08
1.58769e-09
5.03061e-08
1.57076e-09
5.02995e-08
1.55544e-09
5.02929e-08
1.53968e-09
5.0286e-08
1.52557e-09
5.02791e-08
1.51083e-09
5.0272e-08
1.4978e-09
5.02648e-08
1.48395e-09
5.02573e-08
1.4719e-09
5.02497e-08
1.45881e-09
5.02419e-08
1.44766e-09
5.02339e-08
1.43524e-09
5.02255e-08
1.42493e-09
5.0217e-08
1.41309e-09
5.02081e-08
1.40356e-09
5.0199e-08
1.39225e-09
5.01894e-08
1.38344e-09
5.01796e-08
1.37258e-09
5.01692e-08
1.36445e-09
5.01585e-08
1.35399e-09
5.01472e-08
1.34652e-09
5.01355e-08
1.33637e-09
5.01231e-08
1.32953e-09
5.01103e-08
1.31966e-09
5.00967e-08
1.31341e-09
5.00826e-08
1.30377e-09
5.00677e-08
1.29807e-09
5.00522e-08
1.28861e-09
5.00358e-08
1.28347e-09
5.00187e-08
1.2741e-09
5.00006e-08
1.26951e-09
4.99818e-08
1.2602e-09
4.9962e-08
1.25612e-09
4.99413e-08
1.24684e-09
4.99195e-08
1.24323e-09
4.98968e-08
1.23394e-09
4.98731e-08
1.23082e-09
4.98482e-08
1.22143e-09
4.98223e-08
1.21881e-09
4.97952e-08
1.20932e-09
4.9767e-08
1.20715e-09
4.97376e-08
1.19754e-09
4.9707e-08
1.1958e-09
4.9675e-08
1.18605e-09
4.9642e-08
1.18477e-09
4.96074e-08
1.17481e-09
4.95719e-08
1.17403e-09
4.95346e-08
1.16392e-09
4.94964e-08
1.16354e-09
4.94564e-08
1.15334e-09
4.94155e-08
1.15344e-09
4.93726e-08
1.14306e-09
4.9329e-08
1.14374e-09
4.92832e-08
1.13337e-09
4.92367e-08
1.13452e-09
4.91879e-08
1.12428e-09
4.91386e-08
1.12604e-09
4.90868e-08
1.11607e-09
4.90345e-08
1.11854e-09
4.89796e-08
1.1092e-09
4.89243e-08
1.11252e-09
4.88662e-08
1.10412e-09
4.88078e-08
1.10865e-09
4.87466e-08
1.10173e-09
4.86852e-08
1.10787e-09
1.10296e-09
5.09999e-08
1.82926e-09
-5.09454e-08
5.10768e-08
1.99257e-09
5.11747e-08
2.14179e-09
5.12906e-08
2.27521e-09
5.1418e-08
2.38483e-09
5.15472e-08
2.46195e-09
5.16693e-08
2.50282e-09
5.17785e-08
2.50942e-09
5.18726e-08
2.48884e-09
5.19516e-08
2.44926e-09
5.20164e-08
2.3986e-09
5.2068e-08
2.34201e-09
5.21079e-08
2.28379e-09
5.21382e-08
2.22634e-09
5.21611e-08
2.17215e-09
5.21785e-08
2.12176e-09
5.21916e-08
2.07578e-09
5.22014e-08
2.03314e-09
5.22084e-08
1.99386e-09
5.22132e-08
1.95681e-09
5.22162e-08
1.9224e-09
5.22176e-08
1.88966e-09
5.22178e-08
1.85927e-09
5.22169e-08
1.83015e-09
5.22152e-08
1.80311e-09
5.22127e-08
1.77698e-09
5.22095e-08
1.75273e-09
5.22058e-08
1.72908e-09
5.22016e-08
1.7072e-09
5.21971e-08
1.68567e-09
5.21923e-08
1.66582e-09
5.21872e-08
1.64609e-09
5.21819e-08
1.62801e-09
5.21765e-08
1.60982e-09
5.21709e-08
1.59327e-09
5.21653e-08
1.57639e-09
5.21596e-08
1.56118e-09
5.21538e-08
1.54542e-09
5.2148e-08
1.5314e-09
5.21422e-08
1.51663e-09
5.21363e-08
1.50367e-09
5.21305e-08
1.48977e-09
5.21246e-08
1.47777e-09
5.21188e-08
1.46463e-09
5.21129e-08
1.45355e-09
5.21071e-08
1.44107e-09
5.21012e-08
1.43083e-09
5.20953e-08
1.41897e-09
5.20894e-08
1.4095e-09
5.20834e-08
1.39819e-09
5.20774e-08
1.38946e-09
5.20714e-08
1.37863e-09
5.20652e-08
1.37061e-09
5.2059e-08
1.36021e-09
5.20526e-08
1.35287e-09
5.20462e-08
1.34283e-09
5.20396e-08
1.33614e-09
5.20328e-08
1.32644e-09
5.20259e-08
1.32036e-09
5.20187e-08
1.31095e-09
5.20113e-08
1.30545e-09
5.20036e-08
1.29629e-09
5.19957e-08
1.29137e-09
5.19875e-08
1.28237e-09
5.19789e-08
1.27804e-09
5.19699e-08
1.26919e-09
5.19607e-08
1.26536e-09
5.19509e-08
1.25666e-09
5.19408e-08
1.25331e-09
5.193e-08
1.24469e-09
5.1919e-08
1.24186e-09
5.19072e-08
1.23324e-09
5.18951e-08
1.23091e-09
5.18821e-08
1.22232e-09
5.18688e-08
1.22041e-09
5.18545e-08
1.21187e-09
5.18399e-08
1.21036e-09
5.18242e-08
1.20179e-09
5.18082e-08
1.20077e-09
5.17909e-08
1.19211e-09
5.17734e-08
1.19154e-09
5.17544e-08
1.18294e-09
5.17352e-08
1.18269e-09
5.17144e-08
1.17415e-09
5.16935e-08
1.17439e-09
5.16707e-08
1.16579e-09
5.16479e-08
1.16654e-09
5.16231e-08
1.15818e-09
5.15983e-08
1.15934e-09
5.15713e-08
1.15125e-09
5.15443e-08
1.15302e-09
5.15151e-08
1.14533e-09
5.14859e-08
1.14776e-09
5.14542e-08
1.14088e-09
5.14225e-08
1.14417e-09
5.13884e-08
1.13829e-09
5.13542e-08
1.14281e-09
5.13175e-08
1.13845e-09
5.12807e-08
1.14463e-09
1.14224e-09
5.29734e-08
1.77741e-09
-5.29215e-08
5.30439e-08
1.92206e-09
5.3132e-08
2.05372e-09
5.3235e-08
2.17222e-09
5.33482e-08
2.27163e-09
5.34645e-08
2.34559e-09
5.35768e-08
2.39056e-09
5.36794e-08
2.40679e-09
5.37695e-08
2.3988e-09
5.38463e-08
2.37242e-09
5.39105e-08
2.3344e-09
5.3963e-08
2.28948e-09
5.4005e-08
2.24178e-09
5.4038e-08
2.19335e-09
5.40636e-08
2.14652e-09
5.40836e-08
2.10183e-09
5.4099e-08
2.06031e-09
5.41109e-08
2.02122e-09
5.41199e-08
1.98491e-09
5.41264e-08
1.9503e-09
5.41309e-08
1.91796e-09
5.41336e-08
1.88691e-09
5.41349e-08
1.85795e-09
5.41351e-08