/*--------------------------------*- C++ -*----------------------------------*\
| =========                 |                                                 |
| \\      /  F ield         | OpenFOAM: The Open Source CFD Toolbox           |
|  \\    /   O peration     | Version:  2.3.0                                 |
|   \\  /    A nd           | Web:      www.OpenFOAM.org                      |
|    \\/     M anipulation  |                                                 |
\*---------------------------------------------------------------------------*/
FoamFile
{
    version     2.0;
    format      ascii;
    class       volScalarField;
    location    "0.7";
    object      p;
}
// * * * * * * * * * * * * * * * * * * * * * * * * * * * * * * * * * * * * * //

dimensions      [0 2 -2 0 0 0 0];

internalField   nonuniform List<scalar> 
1650
(
0.00188608
0.00163006
0.00117933
0.000765269
0.000410994
9.17962e-05
-0.000195208
-0.000426004
-0.000570886
-0.000625029
-0.000610754
-0.000560347
-0.000499427
-0.00044273
-0.000396526
-0.000361533
-0.000335628
-0.000316022
-0.000300255
-0.000286621
-0.000274032
-0.000261868
-0.000249972
-0.000238223
-0.000226748
-0.000215566
-0.000204718
-0.000194371
-0.000184483
-0.000175073
-0.000166193
-0.000157724
-0.000149817
-0.000142333
-0.000135252
-0.000128645
-0.000122359
-0.000116471
-0.000110968
-0.00010566
-0.000100706
-9.60539e-05
-9.15303e-05
-8.73388e-05
-8.32373e-05
-7.92307e-05
-7.53858e-05
-7.16065e-05
-6.76432e-05
-6.39461e-05
-5.99609e-05
-5.57892e-05
-5.13077e-05
-4.68758e-05
-4.14745e-05
-3.5948e-05
-2.95274e-05
-2.27704e-05
-1.4274e-05
-5.7381e-06
0.00157238
0.00144955
0.00111845
0.000744518
0.000402543
9.73268e-05
-0.0001726
-0.000389323
-0.000530609
-0.000589818
-0.000583169
-0.000539527
-0.000483992
-0.000431365
-0.000388102
-0.000355079
-0.000330425
-0.000311621
-0.000296386
-0.000283138
-0.000270862
-0.000258959
-0.000247305
-0.000235768
-0.000224487
-0.000213483
-0.000202781
-0.000192577
-0.000182813
-0.000173512
-0.000164738
-0.000156354
-0.000148533
-0.00014113
-0.000134112
-0.00012758
-0.000121349
-0.000115517
-0.000110075
-0.000104811
-9.99011e-05
-9.53023e-05
-9.08085e-05
-8.66638e-05
-8.26003e-05
-7.86228e-05
-7.48121e-05
-7.10738e-05
-6.7123e-05
-6.34659e-05
-5.95101e-05
-5.53605e-05
-5.08918e-05
-4.6506e-05
-4.11095e-05
-3.56065e-05
-2.91969e-05
-2.2477e-05
-1.39675e-05
-5.47645e-06
0.00136237
0.00129592
0.00105731
0.000731665
0.000407686
0.000118243
-0.000130175
-0.000328849
-0.000465187
-0.000533084
-0.000541215
-0.000510832
-0.000464987
-0.000419076
-0.000379909
-0.000349059
-0.000325438
-0.000307118
-0.000292144
-0.000279098
-0.00026703
-0.000255356
-0.000243961
-0.000232686
-0.000221669
-0.000210918
-0.000200439
-0.000190447
-0.000180866
-0.000171725
-0.000163101
-0.000154836
-0.000147132
-0.000139832
-0.000132898
-0.000126455
-0.000120293
-0.000114528
-0.000109156
-0.000103942
-9.9084e-05
-9.45433e-05
-9.00844e-05
-8.59909e-05
-8.19695e-05
-7.80246e-05
-7.42514e-05
-7.05564e-05
-6.66223e-05
-6.30101e-05
-5.90861e-05
-5.49646e-05
-5.05127e-05
-4.6182e-05
-4.0794e-05
-3.53256e-05
-2.89406e-05
-2.22649e-05
-1.37962e-05
-5.37065e-06
0.00121032
0.00116071
0.00098428
0.000710049
0.000413959
0.000143617
-8.52916e-05
-0.000267313
-0.000396568
-0.000469208
-0.000489945
-0.000473557
-0.000438881
-0.000400526
-0.00036619
-0.000338352
-0.000316617
-0.000299522
-0.000285387
-0.00027296
-0.000261397
-0.000250168
-0.000239194
-0.000228316
-0.000217678
-0.000207278
-0.000197117
-0.000187413
-0.000178084
-0.000169164
-0.000160744
-0.00015265
-0.000145109
-0.000137951
-0.000131141
-0.000124823
-0.000118767
-0.000113099
-0.000107823
-0.000102688
-9.79108e-05
-9.34466e-05
-8.90468e-05
-8.50252e-05
-8.10638e-05
-7.71702e-05
-7.34508e-05
-6.98135e-05
-6.59162e-05
-6.2361e-05
-5.84833e-05
-5.44083e-05
-4.99911e-05
-4.5725e-05
-4.03745e-05
-3.49543e-05
-2.86309e-05
-2.20082e-05
-1.36625e-05
-5.32855e-06
0.0010847
0.00103878
0.00090112
0.000676141
0.000415112
0.000167406
-4.37774e-05
-0.00021166
-0.00033365
-0.000408206
-0.00043821
-0.000433824
-0.000409673
-0.000378821
-0.000349418
-0.000324785
-0.00030519
-0.000289576
-0.000276506
-0.000264875
-0.00025395
-0.000243275
-0.000232807
-0.00022241
-0.000212228
-0.000202257
-0.000192501
-0.000183163
-0.000174166
-0.000165542
-0.000157392
-0.000149541
-0.000142218
-0.000135257
-0.000128625
-0.00012247
-0.000116568
-0.000111037
-0.000105883
-0.000100868
-9.6199e-05
-9.18324e-05
-8.75218e-05
-8.3593e-05
-7.97138e-05
-7.58956e-05
-7.2242e-05
-6.86847e-05
-6.48517e-05
-6.13583e-05
-5.75493e-05
-5.35501e-05
-4.91866e-05
-4.49873e-05
-3.97277e-05
-3.43713e-05
-2.81545e-05
-2.16037e-05
-1.34738e-05
-5.27037e-06
0.000974888
0.000929848
0.000817335
0.000633911
0.000410241
0.000187874
-6.31853e-06
-0.000162262
-0.000277556
-0.000352169
-0.000388638
-0.000394027
-0.000379366
-0.00035581
-0.000331364
-0.000309963
-0.000292521
-0.000278409
-0.000266441
-0.000255647
-0.000245396
-0.000235301
-0.000225349
-0.000215447
-0.000205727
-0.0001962
-0.000186873
-0.000177922
-0.000169289
-0.000160994
-0.000153143
-0.00014558
-0.000138499
-0.000131772
-0.000125352
-0.000119384
-0.000113673
-0.000108305
-0.000103291
-9.84358e-05
-9.38921e-05
-8.96441e-05
-8.54512e-05
-8.16263e-05
-7.78534e-05
-7.41364e-05
-7.05497e-05
-6.71005e-05
-6.3363e-05
-5.99184e-05
-5.62063e-05
-5.23201e-05
-4.8023e-05
-4.38827e-05
-3.87827e-05
-3.35074e-05
-2.74326e-05
-2.09879e-05
-1.31558e-05
-5.11446e-06
0.000876904
0.000833141
0.000738351
0.000588037
0.000399518
0.000203686
2.67072e-05
-0.000118351
-0.000227599
-0.000301282
-0.000341979
-0.000355016
-0.000348625
-0.000331984
-0.000312464
-0.000294307
-0.000279001
-0.000266373
-0.000255518
-0.000245596
-0.000236068
-0.000226599
-0.000217191
-0.00020781
-0.00019856
-0.000189487
-0.000180597
-0.000172041
-0.000163786
-0.000155829
-0.000148283
-0.000141025
-0.000134191
-0.000127714
-0.000121516
-0.000115742
-0.000110241
-0.000105039
-0.000100169
-9.55041e-05
-9.1084e-05
-8.69606e-05
-8.29061e-05
-7.91851e-05
-7.55321e-05
-7.19336e-05
-6.84065e-05
-6.50871e-05
-6.1475e-05
-5.80524e-05
-5.44616e-05
-5.07258e-05
-4.6499e-05
-4.24033e-05
-3.75319e-05
-3.23607e-05
-2.64417e-05
-2.01497e-05
-1.26805e-05
-4.8285e-06
0.000788864
0.000747113
0.000665856
0.000541478
0.000383638
0.000213852
5.46074e-05
-7.96289e-05
-0.000183075
-0.000255267
-0.000298582
-0.000317377
-0.000317926
-0.000307607
-0.000292866
-0.00027794
-0.00026476
-0.000253595
-0.000243854
-0.000234836
-0.000226082
-0.000217296
-0.00020848
-0.000199653
-0.000190896
-0.000182291
-0.000173851
-0.0001657
-0.000157835
-0.000150226
-0.000142992
-0.000136052
-0.00012947
-0.000123255
-0.000117284
-0.000111707
-0.00010643
-0.000101399
-9.66677e-05
-9.2212e-05
-8.7919e-05
-8.39198e-05
-8.00152e-05
-7.6396e-05
-7.28717e-05
-6.93971e-05
-6.59251e-05
-6.27475e-05
-5.92842e-05
-5.58594e-05
-5.24047e-05
-4.88465e-05
-4.46915e-05
-4.06308e-05
-3.60358e-05
-3.09981e-05
-2.52323e-05
-1.91407e-05
-1.20775e-05
-4.46311e-06
0.000709432
0.000670185
0.000599927
0.000495875
0.000363745
0.000218134
7.68417e-05
-4.61034e-05
-0.000143512
-0.000213744
-0.00025854
-0.000281541
-0.000287712
-0.000282952
-0.000272704
-0.000260948
-0.000249884
-0.000240168
-0.000231532
-0.000223432
-0.000215491
-0.000207436
-0.000199256
-0.000191023
-0.000182784
-0.000174667
-0.00016669
-0.000158955
-0.000151492
-0.000144245
-0.000137335
-0.000130726
-0.000124406
-0.000118465
-0.000112736
-0.00010736
-0.000102318
-9.74713e-05
-9.2882e-05
-8.864e-05
-8.44879e-05
-8.06179e-05
-7.68715e-05
-7.33514e-05
-6.99692e-05
-6.66225e-05
-6.32078e-05
-6.01753e-05
-5.68799e-05
-5.34468e-05
-5.01361e-05
-4.67705e-05
-4.26927e-05
-3.86712e-05
-3.43757e-05
-2.95033e-05
-2.38885e-05
-1.80378e-05
-1.14084e-05
-4.0977e-06
0.000637422
0.000600939
0.000539883
0.000452054
0.000341152
0.000217085
9.3312e-05
-1.78304e-05
-0.000108649
-0.00017636
-0.000221771
-0.000247761
-0.000258345
-0.000258305
-0.000252131
-0.000243417
-0.000234447
-0.000226168
-0.000218624
-0.000211436
-0.000204323
-0.000197031
-0.000189524
-0.000181916
-0.000174225
-0.000166613
-0.000159115
-0.000151807
-0.00014476
-0.00013789
-0.000131318
-0.000125055
-0.000119013
-0.000113357
-0.000107889
-0.000102726
-9.79272e-05
-9.32786e-05
-8.88496e-05
-8.48202e-05
-8.08203e-05
-7.70926e-05
-7.35209e-05
-7.00952e-05
-6.68648e-05
-6.36591e-05
-6.0314e-05
-5.74227e-05
-5.43076e-05
-5.08806e-05
-4.77196e-05
-4.45533e-05
-4.05639e-05
-3.66014e-05
-3.26104e-05
-2.79312e-05
-2.24758e-05
-1.69011e-05
-1.07219e-05
-3.77469e-06
0.000571766
0.000538162
0.000484954
0.000410389
0.000317015
0.000211681
0.000104358
5.21757e-06
-7.83891e-05
-0.000142902
-0.000188152
-0.000216152
-0.000230103
-0.000233941
-0.000231338
-0.000225454
-0.000218524
-0.000211665
-0.000205194
-0.000198897
-0.000192602
-0.000186082
-0.000179273
-0.000172316
-0.000165198
-0.000158111
-0.000151109
-0.000144242
-0.000137624
-0.000131147
-0.000124929
-0.000119024
-0.000113283
-0.000107922
-0.000102731
-9.77998e-05
-9.32567e-05
-8.88147e-05
-8.45707e-05
-8.07624e-05
-7.69204e-05
-7.33424e-05
-6.99727e-05
-6.66492e-05
-6.35674e-05
-6.05154e-05
-5.72649e-05
-5.45148e-05
-5.15816e-05
-4.81864e-05
-4.51828e-05
-4.22207e-05
-3.83322e-05
-3.44587e-05
-3.07711e-05
-2.63078e-05
-2.10278e-05
-1.57615e-05
-1.00399e-05
-3.49441e-06
0.000511548
0.000480858
0.000434462
0.000370969
0.00029218
0.000202934
0.000110591
2.322e-05
-5.26949e-05
-0.000113296
-0.000157609
-0.000186766
-0.000203189
-0.000210109
-0.000210534
-0.000207199
-0.0002022
-0.000196725
-0.000191297
-0.000185863
-0.00018036
-0.0001746
-0.000168498
-0.000162209
-0.000155684
-0.000149142
-0.000142654
-0.000136244
-0.000130067
-0.000123996
-0.000118151
-0.000112619
-0.000107198
-0.000102147
-9.72488e-05
-9.25681e-05
-8.82969e-05
-8.40707e-05
-8.00283e-05
-7.64581e-05
-7.27912e-05
-6.93591e-05
-6.62082e-05
-6.30183e-05
-6.00819e-05
-5.71847e-05
-5.4057e-05
-5.146e-05
-4.87038e-05
-4.53691e-05
-4.25325e-05
-3.97804e-05
-3.6007e-05
-3.22554e-05
-2.88697e-05
-2.46413e-05
-1.9558e-05
-1.46291e-05
-9.3658e-06
-3.24004e-06
0.000455993
0.000428216
0.000387825
0.00033372
0.000267184
0.000191703
0.000112724
3.65217e-05
-3.14794e-05
-8.75279e-05
-0.000130128
-0.000159639
-0.000177736
-0.000187014
-0.000189915
-0.000188799
-0.000185571
-0.000181412
-0.000176989
-0.000172377
-0.000167627
-0.0001626
-0.000157197
-0.000151582
-0.000145668
-0.000139689
-0.000133731
-0.000127795
-0.000122071
-0.000116423
-0.000110966
-0.000105819
-0.000100742
-9.60128e-05
-9.14269e-05
-8.7015e-05
-8.30274e-05
-7.90394e-05
-7.5212e-05
-7.18835e-05
-6.84228e-05
-6.51465e-05
-6.22084e-05
-5.91856e-05
-5.64079e-05
-5.3666e-05
-5.06793e-05
-4.82498e-05
-4.56728e-05
-4.24315e-05
-3.9766e-05
-3.72257e-05
-3.35924e-05
-2.99968e-05
-2.6907e-05
-2.29294e-05
-1.80717e-05
-1.35041e-05
-8.69436e-06
-2.99625e-06
0.000404436
0.000379543
0.000344523
0.000298484
0.000242343
0.000178645
0.000111447
4.55856e-05
-1.45486e-05
-6.55629e-05
-0.000105724
-0.00013481
-0.000153845
-0.000164814
-0.000169652
-0.000170397
-0.000168737
-0.000165791
-0.000162314
-0.000158479
-0.000154434
-0.0001501
-0.000145375
-0.000140427
-0.000135136
-0.000129733
-0.000124321
-0.000118877
-0.000113619
-0.000108411
-0.00010336
-9.86057e-05
-9.38989e-05
-8.95048e-05
-8.52476e-05
-8.11274e-05
-7.74265e-05
-7.37024e-05
-7.01175e-05
-6.70239e-05
-6.37887e-05
-6.07013e-05
-5.79721e-05
-5.51295e-05
-5.25275e-05
-4.99624e-05
-4.71306e-05
-4.48645e-05
-4.24779e-05
-3.938e-05
-3.68825e-05
-3.45422e-05
-3.10872e-05
-2.76877e-05
-2.48805e-05
-2.11656e-05
-1.65708e-05
-1.23827e-05
-8.01798e-06
-2.75409e-06
0.000356293
0.000334232
0.000304077
0.000265065
0.000217833
0.000164253
0.000107377
5.09298e-05
-1.5995e-06
-4.72914e-05
-8.43984e-05
-0.000112331
-0.000131599
-0.000143627
-0.000149891
-0.000152121
-0.000151792
-0.000149926
-0.000147315
-0.000144202
-0.00014081
-0.000137121
-0.000133045
-0.000128741
-0.000124075
-0.000119261
-0.000114405
-0.000109472
-0.000104691
-9.9939e-05
-9.5314e-05
-9.09634e-05
-8.66464e-05
-8.26028e-05
-7.8691e-05
-7.48916e-05
-7.14816e-05
-6.80366e-05
-6.47264e-05
-6.18761e-05
-5.8872e-05
-5.60011e-05
-5.3498e-05
-5.08454e-05
-4.84149e-05
-4.60608e-05
-4.34201e-05
-4.12952e-05
-3.90979e-05
-3.62098e-05
-3.3887e-05
-3.1722e-05
-2.84846e-05
-2.53275e-05
-2.27882e-05
-1.93434e-05
-1.50545e-05
-1.12607e-05
-7.33041e-06
-2.50877e-06
0.000310639
0.000291389
0.000265738
0.00023298
0.000193529
0.000148767
0.000100999
5.31055e-05
7.83803e-06
-3.23836e-05
-6.5944e-05
-9.2066e-05
-0.000110903
-0.00012339
-0.00013059
-0.000133941
-0.000134688
-0.000133752
-0.000131913
-0.000129461
-0.000126673
-0.000123578
-0.000120116
-0.00011643
-0.000112384
-0.000108169
-0.000103882
-9.94771e-05
-9.51907e-05
-9.09155e-05
-8.6736e-05
-8.28084e-05
-7.89061e-05
-7.52278e-05
-7.16816e-05
-6.82335e-05
-6.51272e-05
-6.19821e-05
-5.89676e-05
-5.63788e-05
-5.36278e-05
-5.09847e-05
-4.8727e-05
-4.6301e-05
-4.40282e-05
-4.1896e-05
-3.9509e-05
-3.75227e-05
-3.54947e-05
-3.2871e-05
-3.0749e-05
-2.87447e-05
-2.57592e-05
-2.28875e-05
-2.06079e-05
-1.74456e-05
-1.35084e-05
-1.01225e-05
-6.62138e-06
-2.25661e-06
0.000265555
0.000249203
0.00022792
0.000200978
0.000168615
0.000131857
9.24271e-05
5.25282e-05
1.43286e-05
-2.02391e-05
-4.97797e-05
-7.34575e-05
-9.12076e-05
-0.000103563
-0.000111225
-0.000115344
-0.000116923
-0.000116765
-0.000115608
-0.000113764
-0.000111538
-0.000109008
-0.000106137
-0.000103055
-9.96334e-05
-9.60326e-05
-9.23453e-05
-8.85046e-05
-8.4741e-05
-8.09832e-05
-7.72841e-05
-7.38101e-05
-7.03673e-05
-6.70835e-05
-6.39357e-05
-6.08822e-05
-5.81004e-05
-5.52975e-05
-5.26111e-05
-5.02984e-05
-4.78466e-05
-4.54582e-05
-4.34519e-05
-4.13085e-05
-3.92144e-05
-3.72965e-05
-3.52165e-05
-3.34057e-05
-3.1547e-05
-2.92234e-05
-2.73295e-05
-2.55015e-05
-2.28174e-05
-2.02679e-05
-1.82485e-05
-1.54031e-05
-1.18785e-05
-8.92008e-06
-5.85861e-06
-1.98893e-06
0.00021995
0.000206592
0.000189606
0.0001682
0.000142448
0.000113122
8.14992e-05
4.92167e-05
1.79714e-05
-1.0744e-05
-3.57951e-05
-5.63883e-05
-7.23576e-05
-8.39355e-05
-9.15308e-05
-9.60118e-05
-9.81447e-05
-9.85885e-05
-9.80004e-05
-9.67073e-05
-9.50047e-05
-9.30068e-05
-9.07132e-05
-8.82209e-05
-8.54314e-05
-8.24653e-05
-7.9406e-05
-7.61827e-05
-7.29825e-05
-6.97895e-05
-6.66276e-05
-6.36505e-05
-6.07203e-05
-5.78791e-05
-5.51726e-05
-5.25703e-05
-5.01476e-05
-4.77357e-05
-4.54308e-05
-4.34123e-05
-4.13076e-05
-3.92337e-05
-3.74899e-05
-3.56632e-05
-3.38066e-05
-3.21268e-05
-3.03758e-05
-2.87775e-05
-2.71389e-05
-2.51587e-05
-2.34941e-05
-2.1874e-05
-1.95799e-05
-1.73908e-05
-1.56218e-05
-1.31482e-05
-1.01236e-05
-7.61671e-06
-5.01134e-06
-1.697e-06
0.000173752
0.000163413
0.00015056
0.000134379
0.000114811
9.24037e-05
6.81115e-05
4.31122e-05
1.86904e-05
-4.03887e-06
-2.41989e-05
-4.11224e-05
-5.46221e-05
-6.47333e-05
-7.16712e-05
-7.60384e-05
-7.83783e-05
-7.92016e-05
-7.90351e-05
-7.82107e-05
-7.69868e-05
-7.54794e-05
-7.37369e-05
-7.18165e-05
-6.96543e-05
-6.73391e-05
-6.49247e-05
-6.23567e-05
-5.97743e-05
-5.71919e-05
-5.46207e-05
-5.21963e-05
-4.98284e-05
-4.74878e-05
-4.52736e-05
-4.31702e-05
-4.11569e-05
-3.91884e-05
-3.73187e-05
-3.56299e-05
-3.39076e-05
-3.22111e-05
-3.07747e-05
-2.92806e-05
-2.77093e-05
-2.63343e-05
-2.49335e-05
-2.35534e-05
-2.22073e-05
-2.06476e-05
-1.92015e-05
-1.78043e-05
-1.60071e-05
-1.42367e-05
-1.27035e-05
-1.06539e-05
-8.22818e-06
-6.20213e-06
-4.06837e-06
-1.37569e-06
0.000126639
0.000119307
0.000110354
9.90625e-05
8.53088e-05
6.94316e-05
5.21023e-05
3.41572e-05
1.64996e-05
-1.06306e-07
-1.50098e-05
-2.773e-05
-3.81039e-05
-4.60581e-05
-5.17179e-05
-5.54491e-05
-5.75951e-05
-5.85329e-05
-5.862e-05
-5.81536e-05
-5.7352e-05
-5.63005e-05
-5.50764e-05
-5.37121e-05
-5.21637e-05
-5.05013e-05
-4.87524e-05
-4.68688e-05
-4.49579e-05
-4.30421e-05
-4.11116e-05
-3.93013e-05
-3.75476e-05
-3.57701e-05
-3.41129e-05
-3.25527e-05
-3.10068e-05
-2.95387e-05
-2.81523e-05
-2.68507e-05
-2.55536e-05
-2.4279e-05
-2.32061e-05
-2.20836e-05
-2.08402e-05
-1.98296e-05
-1.88222e-05
-1.76827e-05
-1.667e-05
-1.56064e-05
-1.44274e-05
-1.32707e-05
-1.20258e-05
-1.07472e-05
-9.48661e-06
-7.90911e-06
-6.15714e-06
-4.65601e-06
-3.02641e-06
-1.01725e-06
7.79583e-05
7.3591e-05
6.83093e-05
6.16084e-05
5.33894e-05
4.3826e-05
3.3306e-05
2.2361e-05
1.15496e-05
1.29304e-06
-7.97945e-06
-1.59821e-05
-2.26166e-05
-2.77758e-05
-3.155e-05
-3.41171e-05
-3.56525e-05
-3.64087e-05
-3.65744e-05
-3.63531e-05
-3.59061e-05
-3.52853e-05
-3.45539e-05
-3.37312e-05
-3.27913e-05
-3.17821e-05
-3.07167e-05
-2.95515e-05
-2.8362e-05
-2.71716e-05
-2.59494e-05
-2.48138e-05
-2.37283e-05
-2.25895e-05
-2.15495e-05
-2.05835e-05
-1.95835e-05
-1.86658e-05
-1.78056e-05
-1.69644e-05
-1.61469e-05
-1.53409e-05
-1.46715e-05
-1.39715e-05
-1.31382e-05
-1.25154e-05
-1.19283e-05
-1.11359e-05
-1.04804e-05
-9.90049e-06
-9.10896e-06
-8.28935e-06
-7.57229e-06
-6.82012e-06
-5.95135e-06
-4.92041e-06
-3.86796e-06
-2.94027e-06
-1.88573e-06
-6.06228e-07
2.65763e-05
2.51207e-05
2.33597e-05
2.1122e-05
1.83712e-05
1.51563e-05
1.15991e-05
7.88537e-06
4.21254e-06
7.09374e-07
-2.47002e-06
-5.22768e-06
-7.53629e-06
-9.34416e-06
-1.06871e-05
-1.16162e-05
-1.21793e-05
-1.2475e-05
-1.25566e-05
-1.24952e-05
-1.23529e-05
-1.21464e-05
-1.19005e-05
-1.16226e-05
-1.13074e-05
-1.09676e-05
-1.06076e-05
-1.02072e-05
-9.79869e-06
-9.3939e-06
-8.97014e-06
-8.57837e-06
-8.2093e-06
-7.81065e-06
-7.45064e-06
-7.12381e-06
-6.77191e-06
-6.4558e-06
-6.16282e-06
-5.86777e-06
-5.58617e-06
-5.30437e-06
-5.07519e-06
-4.8393e-06
-4.5385e-06
-4.32347e-06
-4.13439e-06
-3.84502e-06
-3.61119e-06
-3.43413e-06
-3.15224e-06
-2.84437e-06
-2.61175e-06
-2.36809e-06
-2.05155e-06
-1.68385e-06
-1.33193e-06
-1.01824e-06
-6.47112e-07
-2.0347e-07
0.000226627
0.000214386
0.000237028
0.000262464
0.000305416
0.00034436
0.000401933
0.00045815
0.000537957
0.000621561
0.000738701
0.000872565
0.00106445
0.00129939
0.00161649
0.000224224
0.000215344
0.000236181
0.00026246
0.000302908
0.000343959
0.00039799
0.000457501
0.000531964
0.000620151
0.000728655
0.000866217
0.00103545
0.00124663
0.00144615
0.000221408
0.000216421
0.000234808
0.000261965
0.000299882
0.000342733
0.000393948
0.00045527
0.000526136
0.000615269
0.00071773
0.000850012
0.000997059
0.00116737
0.00129817
0.00021817
0.00021696
0.000233278
0.000260776
0.000296603
0.00034033
0.000389754
0.000451079
0.000519851
0.000606446
0.000704029
0.000824264
0.00095169
0.00108339
0.00117695
0.000214464
0.000216793
0.000231626
0.0002588
0.00029304
0.000336638
0.000385004
0.000445006
0.000512064
0.000594279
0.00068622
0.000792427
0.000901143
0.00100265
0.0010707
0.00021044
0.000215694
0.000229761
0.000255997
0.00028907
0.000331689
0.000379311
0.000437204
0.000502228
0.000579102
0.000664033
0.00075657
0.000847713
0.000926068
0.000973759
0.000206198
0.000213507
0.000227423
0.000252402
0.000284498
0.000325609
0.000372349
0.000427716
0.00049003
0.000561037
0.000637979
0.000717822
0.000793101
0.000853131
0.000884527
0.000201723
0.000210177
0.000224322
0.000248046
0.000279134
0.000318478
0.000363902
0.000416479
0.000475309
0.000540219
0.000608769
0.000676972
0.000738262
0.00078345
0.000802293
0.000196915
0.000205782
0.000220247
0.000242871
0.000272818
0.000310256
0.000353832
0.000403378
0.0004581
0.00051683
0.000577044
0.000634641
0.000683802
0.000716971
0.000726468
0.000191631
0.000200425
0.000215064
0.000236756
0.000265416
0.000300833
0.000342079
0.000388323
0.000438543
0.000491095
0.000543323
0.000591357
0.00063016
0.00065373
0.000656445
0.00018571
0.00019416
0.000208702
0.000229554
0.0002568
0.000290077
0.000328616
0.000371288
0.0004168
0.00046328
0.000508038
0.000547579
0.000577681
0.000593705
0.000591612
0.000178991
0.00018698
0.000201149
0.000221128
0.000246844
0.00027786
0.000313429
0.000352317
0.000393045
0.000433661
0.000471561
0.000503683
0.000526595
0.000536776
0.000531385
0.000171338
0.00017883
0.00019239
0.000211363
0.00023543
0.000264069
0.000296503
0.000331484
0.000367465
0.000402516
0.000434211
0.000459946
0.000477016
0.000482756
0.000475223
0.000162637
0.000169623
0.000182388
0.000200174
0.00022246
0.000248621
0.000277835
0.000308881
0.000340242
0.0003701
0.000396267
0.000416577
0.000428962
0.000431411
0.000422634
0.000152794
0.000159259
0.000171086
0.000187501
0.000207864
0.00023146
0.00025743
0.0002846
0.000311548
0.000336629
0.000357937
0.000373714
0.000382387
0.000382474
0.000373154
0.000141631
0.000147541
0.000158307
0.00017318
0.00019147
0.00021241
0.000235128
0.000258515
0.000281288
0.000302
0.000319048
0.000331065
0.000336836
0.000335291
0.000325943
0.000128588
0.000133886
0.000143446
0.000156574
0.000172583
0.000190707
0.000210092
0.000229718
0.000248465
0.000265109
0.000278361
0.000287191
0.00029069
0.000288099
0.000279114
0.000113005
0.000117605
0.000125789
0.000136943
0.000150427
0.000165531
0.000181466
0.000197333
0.000212186
0.000225036
0.000234928
0.000241086
0.00024286
0.000239753
0.000231538
9.44332e-05
9.82371e-05
0.000104877
0.000113847
0.000124594
0.000136513
0.00014893
0.0001611
0.000172266
0.000181671
0.00018867
0.000192697
0.000193288
0.000190156
0.000183128
7.23921e-05
7.52879e-05
8.02244e-05
8.68283e-05
9.46697e-05
0.000103291
0.000112174
0.000120753
0.000128473
0.000134831
0.000139405
0.000141813
0.000141757
0.000139062
0.000133586
4.6423e-05
4.82803e-05
5.1362e-05
5.54419e-05
6.0245e-05
6.5489e-05
7.08412e-05
7.59421e-05
8.04744e-05
8.41452e-05
8.67123e-05
8.79404e-05
8.7693e-05
8.58604e-05
8.22914e-05
1.62148e-05
1.68769e-05
1.79352e-05
1.93216e-05
2.09408e-05
2.27033e-05
2.44932e-05
2.6182e-05
2.76724e-05
2.8868e-05
2.96937e-05
3.0059e-05
2.99297e-05
2.92776e-05
2.80408e-05
)
;

boundaryField
{
    top
    {
        type            fixedValue;
        value           uniform 0;
    }
    inlet
    {
        type            zeroGradient;
    }
    outlet
    {
        type            fixedValue;
        value           uniform 0;
    }
    plate
    {
        type            zeroGradient;
    }
    symmBound
    {
        type            zeroGradient;
    }
    frontAndBack
    {
        type            empty;
    }
}


// ************************************************************************* //
