/*--------------------------------*- C++ -*----------------------------------*\
| =========                 |                                                 |
| \\      /  F ield         | OpenFOAM: The Open Source CFD Toolbox           |
|  \\    /   O peration     | Version:  2.3.0                                 |
|   \\  /    A nd           | Web:      www.OpenFOAM.org                      |
|    \\/     M anipulation  |                                                 |
\*---------------------------------------------------------------------------*/
FoamFile
{
    version     2.0;
    format      ascii;
    class       surfaceScalarField;
    location    "0.7";
    object      phi_0;
}
// * * * * * * * * * * * * * * * * * * * * * * * * * * * * * * * * * * * * * //

dimensions      [0 3 -1 0 0 0 0];

internalField   nonuniform List<scalar> 
3203
(
3.95882e-08
3.60925e-09
-4.31974e-08
3.50014e-08
4.58685e-09
3.04308e-08
4.5706e-09
2.61252e-08
4.30554e-09
2.21125e-08
4.01272e-09
1.85148e-08
3.59771e-09
1.55051e-08
3.00971e-09
1.31632e-08
2.34188e-09
1.14735e-08
1.68972e-09
1.03137e-08
1.15974e-09
9.5261e-09
7.87645e-10
8.97831e-09
5.4779e-10
8.57726e-09
4.01046e-10
8.26012e-09
3.17141e-10
7.98567e-09
2.74452e-10
7.73211e-09
2.53561e-10
7.49041e-09
2.41696e-10
7.2585e-09
2.31914e-10
7.03709e-09
2.21413e-10
6.82743e-09
2.09654e-10
6.6306e-09
1.96834e-10
6.44687e-09
1.83724e-10
6.27573e-09
1.7114e-10
6.11671e-09
1.59024e-10
5.96839e-09
1.48315e-10
5.83023e-09
1.38163e-10
5.70082e-09
1.29409e-10
5.5793e-09
1.21524e-10
5.46494e-09
1.14355e-10
5.35698e-09
1.07962e-10
5.25477e-09
1.02214e-10
5.15806e-09
9.67097e-11
5.06581e-09
9.22468e-11
4.97844e-09
8.73673e-11
4.89495e-09
8.34967e-11
4.81541e-09
7.95363e-11
4.73954e-09
7.58764e-11
4.66692e-09
7.26147e-11
4.59742e-09
6.95007e-11
4.53126e-09
6.61563e-11
4.46745e-09
6.38156e-11
4.4066e-09
6.08503e-11
4.3482e-09
5.83936e-11
4.292e-09
5.62057e-11
4.23833e-09
5.36711e-11
4.18678e-09
5.15432e-11
4.13698e-09
4.98065e-11
4.08948e-09
4.75019e-11
4.0439e-09
4.55727e-11
3.99937e-09
4.45282e-11
3.95721e-09
4.21657e-11
3.91648e-09
4.07292e-11
3.87706e-09
3.94153e-11
3.83846e-09
3.86079e-11
3.80232e-09
3.61326e-11
3.76592e-09
3.63991e-11
3.73112e-09
3.4805e-11
3.69609e-09
3.50258e-11
3.66301e-09
3.30847e-11
3.7555e-11
4.67204e-08
3.26578e-09
-4.63769e-08
4.64282e-08
4.87902e-09
4.54705e-08
5.52835e-09
4.41607e-08
5.61526e-09
4.26161e-08
5.55734e-09
4.08532e-08
5.36064e-09
3.89128e-08
4.95009e-09
3.69067e-08
4.34802e-09
3.49507e-08
3.64569e-09
3.313e-08
2.98041e-09
3.14733e-08
2.44436e-09
2.99718e-08
2.04931e-09
2.86153e-08
1.75759e-09
2.73958e-08
1.53663e-09
2.62969e-08
1.37329e-09
2.53031e-08
1.24738e-09
2.43998e-08
1.14496e-09
2.35749e-08
1.05686e-09
2.28179e-08
9.78402e-10
2.21205e-08
9.07025e-10
2.14759e-08
8.41422e-10
2.08785e-08
7.8114e-10
2.03231e-08
7.26529e-10
1.98058e-08
6.76329e-10
1.93223e-08
6.31841e-10
1.88698e-08
5.90679e-10
1.84447e-08
5.54496e-10
1.80447e-08
5.21523e-10
1.76673e-08
4.9176e-10
1.73107e-08
4.64591e-10
1.69727e-08
4.40143e-10
1.66525e-08
4.16964e-10
1.63477e-08
3.97045e-10
1.60583e-08
3.76778e-10
1.57821e-08
3.59652e-10
1.55192e-08
3.42494e-10
1.52679e-08
3.27125e-10
1.50281e-08
3.12415e-10
1.47985e-08
2.99082e-10
1.45796e-08
2.85123e-10
1.43691e-08
2.74254e-10
1.41684e-08
2.61601e-10
1.39755e-08
2.51301e-10
1.3791e-08
2.40669e-10
1.36138e-08
2.3088e-10
1.34446e-08
2.20762e-10
1.32813e-08
2.13064e-10
1.3126e-08
2.02848e-10
1.2976e-08
1.95539e-10
1.28328e-08
1.87709e-10
1.26949e-08
1.80077e-10
1.25639e-08
1.71748e-10
1.24364e-08
1.66877e-10
1.23157e-08
1.5934e-10
1.21986e-08
1.5323e-10
1.20871e-08
1.47918e-10
1.19775e-08
1.44436e-10
1.18737e-08
1.38827e-10
1.17702e-08
1.36552e-10
1.39131e-10
4.9282e-08
3.07667e-09
-4.90929e-08
4.97545e-08
4.4066e-09
4.99578e-08
5.32506e-09
4.99544e-08
5.61858e-09
4.98295e-08
5.68225e-09
4.95613e-08
5.62889e-09
4.90906e-08
5.42081e-09
4.84163e-08
5.02227e-09
4.75811e-08
4.48092e-09
4.66512e-08
3.9103e-09
4.56809e-08
3.41464e-09
4.4698e-08
3.0322e-09
4.37125e-08
2.74307e-09
4.27315e-08
2.51767e-09
4.1764e-08
2.34074e-09
4.08157e-08
2.19575e-09
3.9889e-08
2.07161e-09
3.89863e-08
1.95954e-09
3.81089e-08
1.85589e-09
3.72581e-08
1.75774e-09
3.64351e-08
1.66445e-09
3.56409e-08
1.57535e-09
3.48758e-08
1.49162e-09
3.41405e-08
1.41165e-09
3.34343e-08
1.33804e-09
3.27575e-08
1.26745e-09
3.21087e-08
1.20329e-09
3.14877e-08
1.14252e-09
3.08928e-08
1.08667e-09
3.03236e-08
1.0338e-09
2.97782e-08
9.85549e-10
2.92563e-08
9.38843e-10
2.87557e-08
8.97711e-10
2.82765e-08
8.55943e-10
2.78163e-08
8.19878e-10
2.73756e-08
7.83191e-10
2.69518e-08
7.50914e-10
2.65456e-08
7.18562e-10
2.61547e-08
6.90023e-10
2.57802e-08
6.59644e-10
2.54189e-08
6.35581e-10
2.50729e-08
6.07522e-10
2.47389e-08
5.85342e-10
2.44192e-08
5.60319e-10
2.41102e-08
5.39962e-10
2.38149e-08
5.16002e-10
2.3529e-08
4.99022e-10
2.32566e-08
4.75172e-10
2.2992e-08
4.60191e-10
2.27409e-08
4.38845e-10
2.24966e-08
4.24343e-10
2.22657e-08
4.02679e-10
2.20396e-08
3.92967e-10
2.18276e-08
3.71332e-10
2.16192e-08
3.61594e-10
2.1424e-08
3.43124e-10
2.12306e-08
3.37886e-10
2.10503e-08
3.1906e-10
2.08697e-08
3.17194e-10
3.09741e-10
5.19724e-08
3.01358e-09
-5.19093e-08
5.23565e-08
4.02255e-09
5.27544e-08
4.9271e-09
5.30299e-08
5.34305e-09
5.32568e-08
5.45539e-09
5.34512e-08
5.43446e-09
5.35631e-08
5.30893e-09
5.35462e-08
5.03918e-09
5.3388e-08
4.63914e-09
5.31139e-08
4.18441e-09
5.27635e-08
3.76497e-09
5.23658e-08
3.42999e-09
5.19306e-08
3.17825e-09
5.14622e-08
2.98601e-09
5.09674e-08
2.83561e-09
5.04518e-08
2.71133e-09
4.99182e-08
2.60524e-09
4.93693e-08
2.50842e-09
4.88065e-08
2.41869e-09
4.82323e-08
2.33191e-09
4.76485e-08
2.24828e-09
4.70577e-08
2.16618e-09
4.64618e-08
2.08742e-09
4.58639e-08
2.00955e-09
4.52653e-08
1.93667e-09
4.46691e-08
1.86367e-09
4.40757e-08
1.79671e-09
4.34882e-08
1.73e-09
4.29065e-08
1.66835e-09
4.23333e-08
1.60706e-09
4.17682e-08
1.55064e-09
4.12133e-08
1.49367e-09
4.06679e-08
1.44314e-09
4.01345e-08
1.38938e-09
3.96109e-08
1.34345e-09
3.91007e-08
1.29337e-09
3.86008e-08
1.25082e-09
3.81145e-08
1.20487e-09
3.7639e-08
1.16554e-09
3.71775e-08
1.12117e-09
3.6726e-08
1.08703e-09
3.62895e-08
1.04403e-09
3.58622e-08
1.01267e-09
3.54503e-08
9.7219e-10
3.50472e-08
9.43033e-10
3.46593e-08
9.03923e-10
3.42797e-08
8.78638e-10
3.39164e-08
8.38436e-10
3.35591e-08
8.17507e-10
3.32191e-08
7.78869e-10
3.28851e-08
7.58345e-10
3.2568e-08
7.1975e-10
3.22549e-08
7.0612e-10
3.19606e-08
6.65588e-10
3.16691e-08
6.53101e-10
3.13952e-08
6.1703e-10
3.11229e-08
6.10153e-10
3.08686e-08
5.73394e-10
3.06134e-08
5.72367e-10
5.48737e-10
5.48242e-08
2.97279e-09
-5.47834e-08
5.50938e-08
3.75294e-09
5.54808e-08
4.54018e-09
5.58073e-08
5.01654e-09
5.60784e-08
5.18424e-09
5.63356e-08
5.17729e-09
5.65662e-08
5.07832e-09
5.67322e-08
4.87316e-09
5.6806e-08
4.5654e-09
5.67903e-08
4.20006e-09
5.67125e-08
3.84274e-09
5.65974e-08
3.54508e-09
5.64558e-08
3.31994e-09
5.62909e-08
3.15089e-09
5.61049e-08
3.02165e-09
5.59011e-08
2.91509e-09
5.568e-08
2.82633e-09
5.54429e-08
2.74551e-09
5.51888e-08
2.67278e-09
5.49184e-08
2.60228e-09
5.46312e-08
2.53552e-09
5.43281e-08
2.46925e-09
5.40091e-08
2.40643e-09
5.36762e-08
2.34247e-09
5.3329e-08
2.28392e-09
5.29705e-08
2.22215e-09
5.25997e-08
2.16754e-09
5.222e-08
2.10964e-09
5.18304e-08
2.05793e-09
5.14341e-08
2.0034e-09
5.10304e-08
1.95437e-09
5.06223e-08
1.90168e-09
5.02084e-08
1.85704e-09
4.97931e-08
1.80474e-09
4.93728e-08
1.76374e-09
4.89535e-08
1.71266e-09
4.85313e-08
1.67302e-09
4.81116e-08
1.62457e-09
4.76909e-08
1.58626e-09
4.72747e-08
1.53738e-09
4.68574e-08
1.50432e-09
4.64474e-08
1.45404e-09
4.60367e-08
1.42339e-09
4.5635e-08
1.37389e-09
4.52341e-08
1.3439e-09
4.4843e-08
1.29501e-09
4.44527e-08
1.26891e-09
4.40752e-08
1.21599e-09
4.36971e-08
1.19559e-09
4.33331e-08
1.14284e-09
4.29705e-08
1.12096e-09
4.26224e-08
1.06787e-09
4.2274e-08
1.05449e-09
4.19428e-08
9.9679e-10
4.16116e-08
9.84281e-10
4.12963e-08
9.32403e-10
4.09808e-08
9.25579e-10
4.06826e-08
8.71676e-10
4.03821e-08
8.72796e-10
8.32827e-10
5.78037e-08
2.92139e-09
-5.77523e-08
5.80019e-08
3.55471e-09
5.83361e-08
4.20595e-09
5.86645e-08
4.6882e-09
5.89408e-08
4.90789e-09
5.91876e-08
4.93053e-09
5.94168e-08
4.84912e-09
5.96075e-08
4.68242e-09
5.97351e-08
4.43776e-09
5.97944e-08
4.14078e-09
5.9801e-08
3.83618e-09
5.97782e-08
3.56792e-09
5.97387e-08
3.35944e-09
5.96881e-08
3.20143e-09
5.96271e-08
3.08269e-09
5.9558e-08
2.9841e-09
5.94807e-08
2.90373e-09
5.93963e-08
2.82985e-09
5.93034e-08
2.76567e-09
5.92023e-08
2.70337e-09
5.90911e-08
2.64673e-09
5.89704e-08
2.58995e-09
5.88382e-08
2.53862e-09
5.86962e-08
2.48455e-09
5.85419e-08
2.43814e-09
5.83783e-08
2.38578e-09
5.82025e-08
2.34338e-09
5.80176e-08
2.29454e-09
5.78209e-08
2.25458e-09
5.76154e-08
2.20895e-09
5.73987e-08
2.17109e-09
5.71745e-08
2.12587e-09
5.6939e-08
2.09247e-09
5.66978e-08
2.04602e-09
5.64452e-08
2.0163e-09
5.61877e-08
1.97018e-09
5.592e-08
1.94066e-09
5.56485e-08
1.89613e-09
5.5368e-08
1.86675e-09
5.50857e-08
1.81971e-09
5.47941e-08
1.79591e-09
5.45025e-08
1.74558e-09
5.42019e-08
1.72407e-09
5.39026e-08
1.67311e-09
5.35965e-08
1.65001e-09
5.32933e-08
1.5982e-09
5.29834e-08
1.57883e-09
5.26786e-08
1.52078e-09
5.23667e-08
1.50755e-09
5.20608e-08
1.44865e-09
5.17508e-08
1.431e-09
5.1448e-08
1.37063e-09
5.11402e-08
1.36229e-09
5.08417e-08
1.2953e-09
5.05402e-08
1.28576e-09
5.02464e-08
1.22627e-09
4.995e-08
1.22199e-09
4.96636e-08
1.15799e-09
4.93742e-08
1.16227e-09
1.11332e-09
6.0911e-08
2.8591e-09
-6.08488e-08
6.1072e-08
3.39372e-09
6.13481e-08
3.92992e-09
6.16561e-08
4.38013e-09
6.19318e-08
4.63219e-09
6.21684e-08
4.69394e-09
6.2381e-08
4.63659e-09
6.25636e-08
4.49975e-09
6.26992e-08
4.30223e-09
6.27802e-08
4.05977e-09
6.28131e-08
3.80325e-09
6.2817e-08
3.56407e-09
6.28061e-08
3.37029e-09
6.27886e-08
3.21888e-09
6.27655e-08
3.10579e-09
6.27392e-08
3.0104e-09
6.27091e-08
2.93384e-09
6.26773e-08
2.86173e-09
6.26424e-08
2.8005e-09
6.26057e-08
2.74005e-09
6.25649e-08
2.68759e-09
6.25213e-08
2.63354e-09
6.24722e-08
2.5877e-09
6.24195e-08
2.53727e-09
6.23603e-08
2.49732e-09
6.22974e-08
2.44873e-09
6.22273e-08
2.41345e-09
6.21531e-08
2.36869e-09
6.20716e-08
2.33614e-09
6.19853e-08
2.29521e-09
6.18909e-08
2.26552e-09
6.17925e-08
2.22425e-09
6.16851e-08
2.1999e-09
6.1574e-08
2.15705e-09
6.14536e-08
2.1367e-09
6.13291e-08
2.09472e-09
6.1195e-08
2.07477e-09
6.1057e-08
2.03413e-09
6.09095e-08
2.01426e-09
6.07591e-08
1.97004e-09
6.05991e-08
1.95593e-09
6.0437e-08
1.90768e-09
6.02641e-08
1.89695e-09
6.00889e-08
1.84831e-09
5.99048e-08
1.83418e-09
5.97192e-08
1.78375e-09
5.95258e-08
1.7723e-09
5.93315e-08
1.71501e-09
5.91284e-08
1.71063e-09
5.89242e-08
1.65286e-09
5.87137e-08
1.64154e-09
5.85036e-08
1.58075e-09
5.8287e-08
1.57883e-09
5.80703e-08
1.51207e-09
5.7851e-08
1.50498e-09
5.76304e-08
1.44695e-09
5.74052e-08
1.4472e-09
5.71809e-08
1.3823e-09
5.69545e-08
1.38861e-09
1.34041e-09
6.41572e-08
2.79236e-09
-6.40905e-08
6.42988e-08
3.2521e-09
6.45257e-08
3.70305e-09
6.48031e-08
4.10274e-09
6.50694e-08
4.36593e-09
6.53003e-08
4.46299e-09
6.54997e-08
4.43722e-09
6.56705e-08
4.32894e-09
6.58037e-08
4.16906e-09
6.58929e-08
3.97049e-09
6.59391e-08
3.75709e-09
6.59551e-08
3.54809e-09
6.59545e-08
3.37086e-09
6.59472e-08
3.22616e-09
6.59354e-08
3.11765e-09
6.59214e-08
3.02434e-09
6.59047e-08
2.9506e-09
6.58873e-08
2.87913e-09
6.58685e-08
2.81925e-09
6.58503e-08
2.75825e-09
6.58304e-08
2.70753e-09
6.58107e-08
2.65323e-09
6.57888e-08
2.60955e-09
6.57665e-08
2.55956e-09
6.57414e-08
2.52241e-09
6.57161e-08
2.47412e-09
6.56873e-08
2.44217e-09
6.56581e-08
2.39792e-09
6.56256e-08
2.36867e-09
6.55921e-08
2.3287e-09
6.55541e-08
2.30354e-09
6.55158e-08
2.26248e-09
6.54724e-08
2.24333e-09
6.54282e-08
2.20129e-09
6.53791e-08
2.18573e-09
6.53284e-08
2.14544e-09
6.5272e-08
2.13122e-09
6.52138e-08
2.09229e-09
6.51496e-08
2.07848e-09
6.50835e-08
2.0361e-09
6.50115e-08
2.028e-09
6.49384e-08
1.98078e-09
6.48578e-08
1.97753e-09
6.47742e-08
1.93191e-09
6.46847e-08
1.92369e-09
6.45916e-08
1.8768e-09
6.44942e-08
1.86966e-09
6.43939e-08
1.81535e-09
6.42877e-08
1.81682e-09
6.41767e-08
1.76386e-09
6.40607e-08
1.75758e-09
6.39417e-08
1.69975e-09
6.38193e-08
1.70121e-09
6.36891e-08
1.64228e-09
6.35592e-08
1.63487e-09
6.34247e-08
1.58148e-09
6.3285e-08
1.58688e-09
6.31387e-08
1.52855e-09
6.29931e-08
1.53426e-09
1.49226e-09
6.75546e-08
2.72518e-09
-6.74874e-08
6.76825e-08
3.12421e-09
6.78743e-08
3.5112e-09
6.8118e-08
3.85913e-09
6.83668e-08
4.11705e-09
6.85911e-08
4.23871e-09
6.87819e-08
4.24644e-09
6.89426e-08
4.1682e-09
6.90708e-08
4.04089e-09
6.91632e-08
3.8781e-09
6.92183e-08
3.70194e-09
6.9244e-08
3.52245e-09
6.92507e-08
3.36415e-09
6.9249e-08
3.22789e-09
6.92423e-08
3.1243e-09
6.92334e-08
3.03324e-09
6.92216e-08
2.96237e-09
6.92087e-08
2.89203e-09
6.91944e-08
2.83359e-09
6.91809e-08
2.77181e-09
6.91662e-08
2.7222e-09
6.91522e-08
2.66718e-09
6.91375e-08
2.62425e-09
6.91232e-08
2.57393e-09
6.91077e-08
2.53793e-09
6.90929e-08
2.48884e-09
6.90767e-08
2.45838e-09
6.90611e-08
2.4135e-09
6.90446e-08
2.38526e-09
6.90287e-08
2.34459e-09
6.90105e-08
2.32175e-09
6.89937e-08
2.27926e-09
6.89747e-08
2.26231e-09
6.89557e-08
2.22029e-09
6.89357e-08
2.20572e-09
6.89153e-08
2.16586e-09
6.88926e-08
2.15385e-09
6.88697e-08
2.11524e-09
6.88444e-08
2.10378e-09
6.8818e-08
2.06251e-09
6.8789e-08
2.05696e-09
6.87603e-08
2.00952e-09
6.87285e-08
2.00934e-09
6.86937e-08
1.96673e-09
6.86576e-08
1.95973e-09
6.86172e-08
1.91724e-09
6.85761e-08
1.91073e-09
6.85323e-08
1.8592e-09
6.84867e-08
1.86242e-09
6.8436e-08
1.81454e-09
6.83824e-08
1.81119e-09
6.8325e-08
1.75711e-09
6.82692e-08
1.75697e-09
6.82023e-08
1.70926e-09
6.81364e-08
1.70071e-09
6.80683e-08
1.64959e-09
6.79966e-08
1.65862e-09
6.79144e-08
1.61068e-09
6.78345e-08
1.61425e-09
1.57846e-09
7.11136e-08
2.65928e-09
-7.10477e-08
7.12299e-08
3.0079e-09
7.1397e-08
3.34413e-09
7.1609e-08
3.64717e-09
7.18361e-08
3.88993e-09
7.20496e-08
4.02517e-09
7.22336e-08
4.06248e-09
7.23869e-08
4.01487e-09
7.25099e-08
3.91788e-09
7.26026e-08
3.78543e-09
7.26637e-08
3.64088e-09
7.26976e-08
3.48851e-09
7.27114e-08
3.35036e-09
7.27145e-08
3.22473e-09
7.2712e-08
3.12687e-09
7.27066e-08
3.03865e-09
7.26982e-08
2.97075e-09
7.26879e-08
2.90231e-09
7.26758e-08
2.84572e-09
7.26639e-08
2.78372e-09
7.2651e-08
2.73506e-09
7.26383e-08
2.67985e-09
7.26255e-08
2.63707e-09
7.26129e-08
2.58651e-09
7.25999e-08
2.55101e-09
7.25875e-08
2.50116e-09
7.25746e-08
2.47131e-09
7.25622e-08
2.42588e-09
7.25498e-08
2.39767e-09
7.25385e-08
2.35594e-09
7.2526e-08
2.33426e-09
7.25149e-08
2.29036e-09
7.25036e-08
2.27362e-09
7.24917e-08
2.23215e-09
7.2481e-08
2.2164e-09
7.24701e-08
2.17679e-09
7.2459e-08
2.16494e-09
7.2448e-08
2.12624e-09
7.24369e-08
2.11487e-09
7.24251e-08
2.07435e-09
7.24126e-08
2.06948e-09
7.24004e-08
2.02168e-09
7.23886e-08
2.02118e-09
7.23736e-08
1.98168e-09
7.23608e-08
1.97259e-09
7.23439e-08
1.93408e-09
7.23279e-08
1.92677e-09
7.23098e-08
1.87725e-09
7.22927e-08
1.87952e-09
7.22721e-08
1.83521e-09
7.22499e-08
1.83332e-09
7.22241e-08
1.78292e-09
7.22034e-08
1.77773e-09
7.21724e-08
1.74019e-09
7.21409e-08
1.73226e-09
7.21101e-08
1.68042e-09
7.20784e-08
1.69032e-09
7.20365e-08
1.65257e-09
7.19962e-08
1.6545e-09
1.6227e-09
7.4844e-08
2.59515e-09
-7.47799e-08
7.49502e-08
2.90166e-09
7.50981e-08
3.19628e-09
7.52829e-08
3.46233e-09
7.5487e-08
3.68588e-09
7.5686e-08
3.82615e-09
7.58622e-08
3.88625e-09
7.60099e-08
3.86724e-09
7.61286e-08
3.79918e-09
7.62201e-08
3.69389e-09
7.62845e-08
3.57646e-09
7.63249e-08
3.44817e-09
7.63454e-08
3.32979e-09
7.63535e-08
3.21669e-09
7.63548e-08
3.12553e-09
7.63525e-08
3.04097e-09
7.63471e-08
2.97614e-09
7.63392e-08
2.9102e-09
7.63291e-08
2.85582e-09
7.63185e-08
2.79437e-09
7.63069e-08
2.74659e-09
7.62949e-08
2.69183e-09
7.62829e-08
2.6491e-09
7.6271e-08
2.59848e-09
7.62588e-08
2.56319e-09
7.6247e-08
2.51292e-09
7.62351e-08
2.48323e-09
7.62235e-08
2.43751e-09
7.6212e-08
2.40909e-09
7.62016e-08
2.36636e-09
7.61908e-08
2.34509e-09
7.61807e-08
2.30049e-09
7.61716e-08
2.2827e-09
7.61613e-08
2.24242e-09
7.6153e-08
2.22468e-09
7.61444e-08
2.18541e-09
7.61365e-08
2.17284e-09
7.61288e-08
2.13393e-09
7.61217e-08
2.12195e-09
7.61143e-08
2.08178e-09
7.6107e-08
2.07677e-09
7.60994e-08
2.02932e-09
7.6094e-08
2.02657e-09
7.60857e-08
1.99002e-09
7.60804e-08
1.97787e-09
7.60725e-08
1.94196e-09
7.60652e-08
1.93403e-09
7.60564e-08
1.88609e-09
7.60495e-08
1.88645e-09
7.60406e-08
1.84403e-09
7.60313e-08
1.84269e-09
7.60185e-08
1.79572e-09
7.60112e-08
1.78504e-09
7.59972e-08
1.75417e-09
7.59807e-08
1.74877e-09
7.59654e-08
1.69569e-09
7.59514e-08
1.70434e-09
7.59302e-08
1.67373e-09
7.59093e-08
1.67547e-09
1.64604e-09
7.87554e-08
2.53306e-09
-7.86934e-08
7.88527e-08
2.80441e-09
7.89844e-08
3.06453e-09
7.91466e-08
3.30017e-09
7.93283e-08
3.50419e-09
7.95106e-08
3.64386e-09
7.96771e-08
3.71978e-09
7.98191e-08
3.72516e-09
7.99343e-08
3.68402e-09
8.00242e-08
3.60398e-09
8.00902e-08
3.51051e-09
8.01349e-08
3.40346e-09
8.01613e-08
3.3034e-09
8.01742e-08
3.20377e-09
8.01793e-08
3.12036e-09
8.01799e-08
3.0404e-09
8.01773e-08
2.9788e-09
8.01717e-08
2.91576e-09
8.01637e-08
2.86379e-09
8.01544e-08
2.80364e-09
8.01442e-08
2.75684e-09
8.01331e-08
2.70293e-09
8.01217e-08
2.66048e-09
8.01103e-08
2.60987e-09
8.00988e-08
2.57468e-09
8.00874e-08
2.52436e-09
8.00761e-08
2.49458e-09
8.00649e-08
2.44869e-09
8.00538e-08
2.42015e-09
8.00436e-08
2.37659e-09
8.00336e-08
2.35511e-09
8.00235e-08
2.31058e-09
8.00151e-08
2.29109e-09
8.00053e-08
2.25217e-09
7.99976e-08
2.23242e-09
7.99894e-08
2.19356e-09
7.99823e-08
2.18e-09
7.99755e-08
2.14069e-09
7.99692e-08
2.12825e-09
7.99629e-08
2.08804e-09
7.99574e-08
2.08235e-09
7.99505e-08
2.0362e-09
7.99466e-08
2.03047e-09
7.99404e-08
1.99617e-09
7.99367e-08
1.98165e-09
7.99319e-08
1.94671e-09
7.99273e-08
1.93869e-09
7.99211e-08
1.89228e-09
7.99167e-08
1.89079e-09
7.99116e-08
1.8491e-09
7.99066e-08
1.84776e-09
7.98986e-08
1.80366e-09
7.98944e-08
1.78925e-09
7.98871e-08
1.76147e-09
7.98769e-08
1.75901e-09
7.98664e-08
1.70621e-09
7.98577e-08
1.71304e-09
7.98457e-08
1.68565e-09
7.98329e-08
1.68836e-09
1.66087e-09
8.28578e-08
2.47343e-09
-8.27982e-08
8.29468e-08
2.71543e-09
8.30644e-08
2.94685e-09
8.32074e-08
3.15722e-09
8.33684e-08
3.3432e-09
8.35333e-08
3.47898e-09
8.36881e-08
3.56489e-09
8.38237e-08
3.58964e-09
8.39353e-08
3.57237e-09
8.40235e-08
3.51577e-09
8.40899e-08
3.44415e-09
8.41372e-08
3.35613e-09
8.4168e-08
3.27262e-09
8.41854e-08
3.18634e-09
8.41943e-08
3.11151e-09
8.41976e-08
3.03708e-09
8.41974e-08
2.979e-09
8.41941e-08
2.91907e-09
8.41882e-08
2.86963e-09
8.41805e-08
2.81137e-09
8.41716e-08
2.7658e-09
8.41616e-08
2.71292e-09
8.4151e-08
2.6711e-09
8.41402e-08
2.62058e-09
8.41295e-08
2.58544e-09
8.41185e-08
2.53537e-09
8.41077e-08
2.50538e-09
8.4097e-08
2.45931e-09
8.40863e-08
2.43084e-09
8.40763e-08
2.38668e-09
8.40669e-08
2.3645e-09
8.40569e-08
2.3206e-09
8.40487e-08
2.29923e-09
8.40394e-08
2.26145e-09
8.40319e-08
2.24001e-09
8.40239e-08
2.20148e-09
8.4017e-08
2.18699e-09
8.40107e-08
2.14698e-09
8.40044e-08
2.13453e-09
8.39985e-08
2.09396e-09
8.39936e-08
2.08719e-09
8.39869e-08
2.04296e-09
8.3983e-08
2.03432e-09
8.39779e-08
2.00127e-09
8.3974e-08
1.98561e-09
8.39703e-08
1.95039e-09
8.39664e-08
1.94257e-09
8.39609e-08
1.89774e-09
8.3957e-08
1.89476e-09
8.39528e-08
1.85328e-09
8.3949e-08
1.85159e-09
8.39431e-08
1.80955e-09
8.39386e-08
1.79368e-09
8.39334e-08
1.7667e-09
8.39261e-08
1.7663e-09
8.39167e-08
1.71561e-09
8.39086e-08
1.72118e-09
8.39003e-08
1.6939e-09
8.38907e-08
1.69797e-09
1.67262e-09
8.71612e-08
2.41674e-09
-8.71045e-08
8.72423e-08
2.63434e-09
8.73474e-08
2.84178e-09
8.74738e-08
3.03085e-09
8.7616e-08
3.20096e-09
8.77638e-08
3.3312e-09
8.79059e-08
3.42281e-09
8.80334e-08
3.46213e-09
8.81407e-08
3.46501e-09
8.8227e-08
3.42956e-09
8.82931e-08
3.37805e-09
8.83417e-08
3.30751e-09
8.83754e-08
3.23889e-09
8.83966e-08
3.16519e-09
8.84088e-08
3.09927e-09
8.84147e-08
3.03119e-09
8.84167e-08
2.97701e-09
8.84155e-08
2.92026e-09
8.84117e-08
2.87342e-09
8.84056e-08
2.81744e-09
8.8398e-08
2.77344e-09
8.83893e-08
2.72163e-09
8.83796e-08
2.68077e-09
8.83697e-08
2.63051e-09
8.83597e-08
2.59542e-09
8.83492e-08
2.54579e-09
8.8339e-08
2.51559e-09
8.8329e-08
2.4693e-09
8.83189e-08
2.44102e-09
8.83091e-08
2.39648e-09
8.83002e-08
2.37333e-09
8.82905e-08
2.33029e-09
8.82826e-08
2.30718e-09
8.82739e-08
2.27018e-09
8.82665e-08
2.24741e-09
8.82588e-08
2.20911e-09
8.8252e-08
2.19382e-09
8.82461e-08
2.1529e-09
8.82398e-08
2.14078e-09
8.82341e-08
2.09969e-09
8.82296e-08
2.09162e-09
8.82231e-08
2.04946e-09
8.82191e-08
2.03836e-09
8.82147e-08
2.00568e-09
8.82104e-08
1.9899e-09
8.82071e-08
1.95372e-09
8.82035e-08
1.94611e-09
8.81984e-08
1.90283e-09
8.81945e-08
1.89872e-09
8.81905e-08
1.8573e-09
8.81869e-08
1.85516e-09
8.81821e-08
1.81434e-09
8.81771e-08
1.79868e-09
8.81722e-08
1.77158e-09
8.81664e-08
1.77208e-09
8.81576e-08
1.72448e-09
8.81491e-08
1.72965e-09
8.81422e-08
1.70084e-09
8.8134e-08
1.70614e-09
1.68311e-09
9.16764e-08
2.36372e-09
-9.16234e-08
9.17497e-08
2.561e-09
9.18433e-08
2.74823e-09
9.1955e-08
2.91914e-09
9.20804e-08
3.07555e-09
9.22119e-08
3.19967e-09
9.23406e-08
3.29412e-09
9.24588e-08
3.34397e-09
9.25606e-08
3.36316e-09
9.26441e-08
3.34608e-09
9.27093e-08
3.3128e-09
9.27583e-08
3.25851e-09
9.27937e-08
3.2035e-09
9.28176e-08
3.14134e-09
9.28326e-08
3.08422e-09
9.28408e-08
3.02299e-09
9.28448e-08
2.97306e-09
9.28455e-08
2.91952e-09
9.28436e-08
2.87537e-09
9.28392e-08
2.82184e-09
9.28329e-08
2.77973e-09
9.28255e-08
2.72901e-09
9.2817e-08
2.68934e-09
9.28079e-08
2.63954e-09
9.27988e-08
2.60456e-09
9.27891e-08
2.55549e-09
9.27796e-08
2.52509e-09
9.27703e-08
2.47863e-09
9.27608e-08
2.45053e-09
9.27514e-08
2.40582e-09
9.27431e-08
2.38163e-09
9.27339e-08
2.33946e-09
9.27263e-08
2.31486e-09
9.27181e-08
2.27833e-09
9.2711e-08
2.25452e-09
9.27038e-08
2.21635e-09
9.26972e-08
2.20042e-09
9.26916e-08
2.15847e-09
9.26855e-08
2.14688e-09
9.268e-08
2.10517e-09
9.26758e-08
2.09581e-09
9.26698e-08
2.05552e-09
9.26657e-08
2.04247e-09
9.26617e-08
2.00959e-09
9.26574e-08
1.99425e-09
9.26542e-08
1.95696e-09
9.26508e-08
1.94943e-09
9.26461e-08
1.90755e-09
9.26422e-08
1.9026e-09
9.26383e-08
1.86124e-09
9.26347e-08
1.85873e-09
9.26306e-08
1.81847e-09
9.26255e-08
1.8038e-09
9.26205e-08
1.77655e-09
9.26155e-08
1.77715e-09
9.26072e-08
1.73271e-09
9.25988e-08
1.73811e-09
9.25923e-08
1.70735e-09
9.25848e-08
1.71356e-09
1.69278e-09
9.7941e-08
2.31415e-09
-9.78915e-08
9.8008e-08
2.49403e-09
9.80924e-08
2.66384e-09
9.81924e-08
2.81911e-09
9.83043e-08
2.96368e-09
9.84223e-08
3.08169e-09
9.85391e-08
3.1773e-09
9.86483e-08
3.23471e-09
9.87447e-08
3.26685e-09
9.88253e-08
3.2654e-09
9.88898e-08
3.24833e-09
9.89391e-08
3.20924e-09
9.89756e-08
3.16696e-09
9.90015e-08
3.11549e-09
9.90188e-08
3.06687e-09
9.90292e-08
3.01261e-09
9.9035e-08
2.96727e-09
9.90375e-08
2.91701e-09
9.90372e-08
2.87565e-09
9.90344e-08
2.82464e-09
9.90295e-08
2.78468e-09
9.90234e-08
2.73511e-09
9.90159e-08
2.69679e-09
9.90078e-08
2.64766e-09
9.89995e-08
2.61289e-09
9.89905e-08
2.56445e-09
9.89817e-08
2.53388e-09
9.8973e-08
2.48736e-09
9.89641e-08
2.45937e-09
9.89553e-08
2.41462e-09
9.89475e-08
2.3895e-09
9.89389e-08
2.34805e-09
9.89315e-08
2.32225e-09
9.89238e-08
2.28598e-09
9.8917e-08
2.26134e-09
9.89102e-08
2.22315e-09
9.89039e-08
2.20675e-09
9.88986e-08
2.16377e-09
9.88927e-08
2.15272e-09
9.88875e-08
2.11038e-09
9.88835e-08
2.09987e-09
9.88779e-08
2.06109e-09
9.88738e-08
2.04659e-09
9.88702e-08
2.0132e-09
9.8866e-08
1.99839e-09
9.88628e-08
1.96022e-09
9.88596e-08
1.95262e-09
9.88552e-08
1.91188e-09
9.88515e-08
1.90634e-09
9.88476e-08
1.86511e-09
9.8844e-08
1.86233e-09
9.88403e-08
1.82221e-09
9.88354e-08
1.80872e-09
9.88303e-08
1.78166e-09
9.88254e-08
1.78197e-09
9.88179e-08
1.74027e-09
9.88098e-08
1.74621e-09
9.88034e-08
1.71373e-09
9.87964e-08
1.72061e-09
1.70182e-09
1.10021e-07
2.26402e-09
-1.09971e-07
1.10086e-07
2.42914e-09
1.10166e-07
2.58409e-09
1.10259e-07
2.72582e-09
1.10363e-07
2.86004e-09
1.10472e-07
2.97208e-09
1.10581e-07
3.0681e-09
1.10685e-07
3.13113e-09
1.10778e-07
3.1737e-09
1.10858e-07
3.18578e-09
1.10923e-07
3.18324e-09
1.10974e-07
3.15855e-09
1.11012e-07
3.12857e-09
1.1104e-07
3.08736e-09
1.1106e-07
3.04711e-09
1.11073e-07
2.99984e-09
1.11081e-07
2.95937e-09
1.11085e-07
2.91258e-09
1.11086e-07
2.87427e-09
1.11085e-07
2.82585e-09
1.11081e-07
2.7883e-09
1.11077e-07
2.74007e-09
1.1107e-07
2.70326e-09
1.11063e-07
2.65505e-09
1.11055e-07
2.62062e-09
1.11047e-07
2.5729e-09
1.11038e-07
2.54218e-09
1.1103e-07
2.49568e-09
1.11021e-07
2.46776e-09
1.11013e-07
2.42307e-09
1.11005e-07
2.39712e-09
1.10997e-07
2.35628e-09
1.1099e-07
2.32946e-09
1.10983e-07
2.29332e-09
1.10976e-07
2.26805e-09
1.10969e-07
2.22969e-09
1.10963e-07
2.21292e-09
1.10958e-07
2.16898e-09
1.10952e-07
2.15837e-09
1.10947e-07
2.11547e-09
1.10943e-07
2.10395e-09
1.10938e-07
2.06625e-09
1.10934e-07
2.05071e-09
1.1093e-07
2.01678e-09
1.10926e-07
2.00225e-09
1.10923e-07
1.96361e-09
1.1092e-07
1.95583e-09
1.10916e-07
1.91589e-09
1.10912e-07
1.90998e-09
1.10908e-07
1.86899e-09
1.10905e-07
1.86601e-09
1.10901e-07
1.8258e-09
1.10896e-07
1.81344e-09
1.10891e-07
1.78695e-09
1.10886e-07
1.78685e-09
1.10879e-07
1.74742e-09
1.10871e-07
1.75403e-09
1.10865e-07
1.72017e-09
1.10858e-07
1.72757e-09
1.71054e-09
1.23584e-07
2.21551e-09
-1.23535e-07
1.23645e-07
2.36781e-09
1.23719e-07
2.51032e-09
1.23804e-07
2.64084e-09
1.23897e-07
2.76648e-09
1.23996e-07
2.87316e-09
1.24095e-07
2.96904e-09
1.2419e-07
3.03615e-09
1.24277e-07
3.08668e-09
1.24353e-07
3.10997e-09
1.24417e-07
3.1198e-09
1.24467e-07
3.10811e-09
1.24506e-07
3.08966e-09
1.24535e-07
3.05817e-09
1.24556e-07
3.02597e-09
1.24571e-07
2.98531e-09
1.2458e-07
2.94977e-09
1.24587e-07
2.90642e-09
1.2459e-07
2.87131e-09
1.2459e-07
2.82538e-09
1.24588e-07
2.79033e-09
1.24584e-07
2.74363e-09
1.24579e-07
2.7084e-09
1.24573e-07
2.66136e-09
1.24566e-07
2.62741e-09
1.24559e-07
2.58044e-09
1.24551e-07
2.54967e-09
1.24544e-07
2.50329e-09
1.24536e-07
2.47532e-09
1.24528e-07
2.4308e-09
1.24521e-07
2.40412e-09
1.24514e-07
2.3638e-09
1.24507e-07
2.3362e-09
1.245e-07
2.3e-09
1.24494e-07
2.27437e-09
1.24488e-07
2.23569e-09
1.24482e-07
2.21861e-09
1.24477e-07
2.17397e-09
1.24472e-07
2.16351e-09
1.24467e-07
2.12015e-09
1.24463e-07
2.10792e-09
1.24459e-07
2.0708e-09
1.24455e-07
2.05455e-09
1.24452e-07
2.02024e-09
1.24448e-07
2.00558e-09
1.24445e-07
1.96691e-09
1.24442e-07
1.95896e-09
1.24438e-07
1.91941e-09
1.24435e-07
1.91342e-09
1.24431e-07
1.87264e-09
1.24428e-07
1.86949e-09
1.24424e-07
1.82921e-09
1.2442e-07
1.81782e-09
1.24415e-07
1.79206e-09
1.2441e-07
1.79161e-09
1.24404e-07
1.75403e-09
1.24396e-07
1.76128e-09
1.2439e-07
1.72632e-09
1.24383e-07
1.73424e-09
1.71874e-09
1.38811e-07
2.17121e-09
-1.38767e-07
1.38866e-07
2.31258e-09
1.38932e-07
2.44488e-09
1.39006e-07
2.56643e-09
1.39087e-07
2.68536e-09
1.39173e-07
2.78778e-09
1.39259e-07
2.88302e-09
1.39342e-07
2.95297e-09
1.39419e-07
3.00925e-09
1.39488e-07
3.04133e-09
1.39547e-07
3.06105e-09
1.39595e-07
3.06038e-09
1.39632e-07
3.05209e-09
1.39661e-07
3.02947e-09
1.39682e-07
3.0048e-09
1.39697e-07
2.97008e-09
1.39708e-07
2.93926e-09
1.39715e-07
2.89903e-09
1.39719e-07
2.86701e-09
1.39721e-07
2.82337e-09
1.39721e-07
2.79063e-09
1.39719e-07
2.74558e-09
1.39716e-07
2.71193e-09
1.39711e-07
2.66614e-09
1.39705e-07
2.63287e-09
1.39699e-07
2.58666e-09
1.39693e-07
2.5559e-09
1.39686e-07
2.50976e-09
1.3968e-07
2.48161e-09
1.39674e-07
2.43737e-09
1.39668e-07
2.41007e-09
1.39661e-07
2.37016e-09
1.39655e-07
2.34204e-09
1.3965e-07
2.30562e-09
1.39644e-07
2.27992e-09
1.39639e-07
2.24079e-09
1.39634e-07
2.22343e-09
1.3963e-07
2.17841e-09
1.39626e-07
2.16785e-09
1.39622e-07
2.12409e-09
1.39618e-07
2.11149e-09
1.39614e-07
2.07452e-09
1.39611e-07
2.05782e-09
1.39608e-07
2.02331e-09
1.39605e-07
2.0082e-09
1.39602e-07
1.96987e-09
1.396e-07
1.96167e-09
1.39597e-07
1.92217e-09
1.39594e-07
1.91662e-09
1.39591e-07
1.87579e-09
1.39588e-07
1.87236e-09
1.39585e-07
1.83229e-09
1.39581e-07
1.82174e-09
1.39576e-07
1.79648e-09
1.39572e-07
1.79587e-09
1.39566e-07
1.75992e-09
1.3956e-07
1.7677e-09
1.39554e-07
1.73167e-09
1.39549e-07
1.74015e-09
1.72615e-09
1.55908e-07
2.13366e-09
-1.5587e-07
1.55954e-07
2.26642e-09
1.56008e-07
2.39092e-09
1.56068e-07
2.50589e-09
1.56134e-07
2.62002e-09
1.56202e-07
2.71936e-09
1.56271e-07
2.81379e-09
1.56339e-07
2.88549e-09
1.56402e-07
2.94563e-09
1.5646e-07
2.98405e-09
1.5651e-07
3.011e-09
1.56551e-07
3.0189e-09
1.56585e-07
3.01868e-09
1.56611e-07
3.00346e-09
1.5663e-07
2.98533e-09
1.56645e-07
2.95551e-09
1.56655e-07
2.92889e-09
1.56663e-07
2.89123e-09
1.56668e-07
2.86184e-09
1.56671e-07
2.82011e-09
1.56673e-07
2.78931e-09
1.56672e-07
2.74579e-09
1.56671e-07
2.7136e-09
1.56668e-07
2.66901e-09
1.56664e-07
2.63649e-09
1.5666e-07
2.59105e-09
1.56655e-07
2.56033e-09
1.56651e-07
2.51448e-09
1.56646e-07
2.48614e-09
1.56641e-07
2.44218e-09
1.56637e-07
2.4144e-09
1.56632e-07
2.37486e-09
1.56628e-07
2.34637e-09
1.56624e-07
2.30967e-09
1.5662e-07
2.28416e-09
1.56616e-07
2.24449e-09
1.56612e-07
2.22694e-09
1.56609e-07
2.1818e-09
1.56606e-07
2.17095e-09
1.56603e-07
2.1269e-09
1.566e-07
2.11419e-09
1.56598e-07
2.07712e-09
1.56596e-07
2.06017e-09
1.56593e-07
2.02553e-09
1.56592e-07
2.00987e-09
1.56589e-07
1.97226e-09
1.56587e-07
1.96358e-09
1.56586e-07
1.92383e-09
1.56583e-07
1.91931e-09
1.56581e-07
1.87813e-09
1.56579e-07
1.87412e-09
1.56576e-07
1.83475e-09
1.56573e-07
1.82495e-09
1.5657e-07
1.79973e-09
1.56567e-07
1.79905e-09
1.56562e-07
1.76474e-09
1.56557e-07
1.77287e-09
1.56553e-07
1.7359e-09
1.56548e-07
1.74467e-09
1.73219e-09
1.75104e-07
2.10574e-09
-1.75076e-07
1.75137e-07
2.23314e-09
1.75175e-07
2.35309e-09
1.75217e-07
2.46414e-09
1.75261e-07
2.57535e-09
1.75308e-07
2.67267e-09
1.75355e-07
2.76634e-09
1.75402e-07
2.83886e-09
1.75447e-07
2.90117e-09
1.75487e-07
2.94349e-09
1.75523e-07
2.97475e-09
1.75554e-07
2.98833e-09
1.75579e-07
2.99334e-09
1.756e-07
2.98323e-09
1.75615e-07
2.96982e-09
1.75627e-07
2.94334e-09
1.75636e-07
2.91989e-09
1.75643e-07
2.88397e-09
1.75649e-07
2.85643e-09
1.75653e-07
2.81603e-09
1.75656e-07
2.78659e-09
1.75657e-07
2.74421e-09
1.75658e-07
2.71314e-09
1.75657e-07