/*--------------------------------*- C++ -*----------------------------------*\
| =========                 |                                                 |
| \\      /  F ield         | OpenFOAM: The Open Source CFD Toolbox           |
|  \\    /   O peration     | Version:  2.3.0                                 |
|   \\  /    A nd           | Web:      www.OpenFOAM.org                      |
|    \\/     M anipulation  |                                                 |
\*---------------------------------------------------------------------------*/
FoamFile
{
    version     2.0;
    format      ascii;
    class       surfaceScalarField;
    location    "0.4";
    object      phi;
}
// * * * * * * * * * * * * * * * * * * * * * * * * * * * * * * * * * * * * * //

dimensions      [0 3 -1 0 0 0 0];

internalField   nonuniform List<scalar> 
4357
(
5.05458e-08
1.71355e-09
-5.22594e-08
4.83833e-08
2.16254e-09
4.59832e-08
2.40011e-09
4.35261e-08
2.45705e-09
4.10793e-08
2.4468e-09
3.86427e-08
2.43658e-09
3.62095e-08
2.43324e-09
3.37856e-08
2.42387e-09
3.13864e-08
2.3992e-09
2.90326e-08
2.35382e-09
2.67469e-08
2.28575e-09
2.45518e-08
2.19503e-09
2.24701e-08
2.08177e-09
2.05258e-08
1.94426e-09
1.87403e-08
1.78549e-09
1.7128e-08
1.61231e-09
1.57009e-08
1.42715e-09
1.44641e-08
1.23676e-09
1.34149e-08
1.04923e-09
1.25422e-08
8.72641e-10
1.18285e-08
7.13725e-10
1.12516e-08
5.76882e-10
1.07878e-08
4.63781e-10
1.0414e-08
3.73817e-10
1.01091e-08
3.04881e-10
9.85492e-09
2.54216e-10
9.63654e-09
2.18383e-10
9.44268e-09
1.93867e-10
9.26468e-09
1.77996e-10
9.0962e-09
1.68477e-10
8.93301e-09
1.63197e-10
8.7726e-09
1.60401e-10
8.61381e-09
1.58793e-10
8.45621e-09
1.57599e-10
8.29989e-09
1.56321e-10
8.14528e-09
1.54611e-10
7.99312e-09
1.52165e-10
7.84409e-09
1.49024e-10
7.69873e-09
1.45364e-10
7.55737e-09
1.41361e-10
7.42031e-09
1.37059e-10
7.2878e-09
1.32506e-10
7.16012e-09
1.2768e-10
7.03739e-09
1.22735e-10
6.91958e-09
1.17802e-10
6.80654e-09
1.13046e-10
6.69812e-09
1.08417e-10
6.59416e-09
1.0396e-10
6.49455e-09
9.96093e-11
6.39911e-09
9.54385e-11
6.30771e-09
9.14029e-11
6.22007e-09
8.76449e-11
6.13599e-09
8.40769e-11
6.05523e-09
8.07559e-11
5.9777e-09
7.75349e-11
5.90319e-09
7.45072e-11
5.83168e-09
7.15156e-11
5.76298e-09
6.86986e-11
5.69705e-09
6.59272e-11
5.63368e-09
6.33712e-11
5.57284e-09
6.08372e-11
5.51435e-09
5.8487e-11
5.45827e-09
5.60845e-11
5.40445e-09
5.38237e-11
5.35297e-09
5.14766e-11
5.30366e-09
4.93042e-11
5.25661e-09
4.70568e-11
5.21159e-09
4.50224e-11
5.16869e-09
4.28924e-11
5.12772e-09
4.09715e-11
5.08881e-09
3.89095e-11
5.05174e-09
3.70679e-11
5.01669e-09
3.50523e-11
4.98339e-09
3.33017e-11
4.95203e-09
3.1365e-11
4.92228e-09
2.97424e-11
4.89437e-09
2.79097e-11
4.86792e-09
2.64539e-11
4.84317e-09
2.47527e-11
4.81968e-09
2.34893e-11
4.79773e-09
2.19452e-11
4.77683e-09
2.08974e-11
4.75737e-09
1.94639e-11
4.73882e-09
1.85555e-11
4.72168e-09
1.71319e-11
4.70534e-09
1.63429e-11
4.6903e-09
1.50406e-11
4.67563e-09
1.4669e-11
4.6618e-09
1.3836e-11
4.6476e-09
1.41937e-11
4.63354e-09
1.40655e-11
4.61829e-09
1.52437e-11
4.60283e-09
1.54581e-11
4.58612e-09
1.67097e-11
4.56972e-09
1.63994e-11
4.55236e-09
1.73691e-11
4.53591e-09
1.6447e-11
4.51813e-09
1.77766e-11
4.50191e-09
1.62274e-11
2.06588e-11
5.75583e-08
1.68101e-09
-5.75257e-08
5.75835e-08
2.13735e-09
5.74414e-08
2.54213e-09
5.71004e-08
2.7981e-09
5.66207e-08
2.92653e-09
5.60526e-08
3.00464e-09
5.54073e-08
3.0785e-09
5.46742e-08
3.15701e-09
5.38462e-08
3.22719e-09
5.29267e-08
3.2733e-09
5.19258e-08
3.28665e-09
5.08554e-08
3.26548e-09
4.97269e-08
3.21025e-09
4.855e-08
3.12118e-09
4.73351e-08
3.00043e-09
4.6096e-08
2.8514e-09
4.48454e-08
2.67769e-09
4.35966e-08
2.48557e-09
4.23623e-08
2.28352e-09
4.11539e-08
2.08101e-09
3.99808e-08
1.88688e-09
3.88495e-08
1.70815e-09
3.77642e-08
1.54906e-09
3.67268e-08
1.41124e-09
3.57375e-08
1.29422e-09
3.47945e-08
1.1972e-09
3.38957e-08
1.11715e-09
3.30406e-08
1.04899e-09
3.22262e-08
9.92426e-10
3.14495e-08
9.45129e-10
3.0708e-08
9.04712e-10
2.99993e-08
8.6915e-10
2.93212e-08
8.36885e-10
2.86718e-08
8.07009e-10
2.80492e-08
7.78871e-10
2.74519e-08
7.51873e-10
2.68791e-08
7.25023e-10
2.63296e-08
6.98487e-10
2.58024e-08
6.72623e-10
2.52962e-08
6.4749e-10
2.48102e-08
6.23099e-10
2.43434e-08
5.99343e-10
2.3895e-08
5.75998e-10
2.34645e-08
5.53232e-10
2.30511e-08
5.31242e-10
2.26539e-08
5.10297e-10
2.2272e-08
4.90261e-10
2.19048e-08
4.71128e-10
2.15518e-08
4.52697e-10
2.12121e-08
4.35045e-10
2.08855e-08
4.181e-10
2.0571e-08
4.0211e-10
2.02682e-08
3.86903e-10
1.99764e-08
3.72522e-10
1.96953e-08
3.58667e-10
1.94243e-08
3.45446e-10
1.91633e-08
3.3257e-10
1.89117e-08
3.20263e-10
1.86693e-08
3.08318e-10
1.84357e-08
2.96998e-10
1.82106e-08
2.85959e-10
1.79936e-08
2.75426e-10
1.77847e-08
2.6499e-10
1.75836e-08
2.54942e-10
1.73902e-08
2.44927e-10
1.72041e-08
2.35368e-10
1.70253e-08
2.25881e-10
1.68534e-08
2.16914e-10
1.66883e-08
2.07975e-10
1.65297e-08
1.9952e-10
1.63776e-08
1.91006e-10
1.62317e-08
1.82987e-10
1.60919e-08
1.7487e-10
1.59579e-08
1.67343e-10
1.58295e-08
1.59731e-10
1.57064e-08
1.52818e-10
1.55885e-08
1.45809e-10
1.54754e-08
1.39629e-10
1.53668e-08
1.33325e-10
1.52623e-08
1.27979e-10
1.51617e-08
1.2249e-10
1.50646e-08
1.18081e-10
1.49707e-08
1.13364e-10
1.48794e-08
1.09771e-10
1.4791e-08
1.05622e-10
1.47045e-08
1.02769e-10
1.46202e-08
9.93638e-11
1.45371e-08
9.77828e-11
1.44552e-08
9.57178e-11
1.43735e-08
9.59222e-11
1.42919e-08
9.56195e-11
1.42093e-08
9.78766e-11
1.41261e-08
9.8695e-11
1.40413e-08
1.01458e-10
1.39562e-08
1.01479e-10
1.38698e-08
1.03787e-10
1.37837e-08
1.02535e-10
1.36961e-08
1.05357e-10
1.36088e-08
1.03617e-10
1.09456e-10
6.25061e-08
1.79847e-09
-6.26236e-08
6.2521e-08
2.12243e-09
6.261e-08
2.4532e-09
6.2655e-08
2.75303e-09
6.26387e-08
2.9429e-09
6.25843e-08
3.05903e-09
6.25116e-08
3.15114e-09
6.24223e-08
3.24632e-09
6.23075e-08
3.34205e-09
6.21562e-08
3.42455e-09
6.19617e-08
3.4812e-09
6.17204e-08
3.50674e-09
6.14294e-08
3.5012e-09
6.10855e-08
3.46509e-09
6.06871e-08
3.39889e-09
6.02346e-08
3.30385e-09
5.97296e-08
3.18273e-09
5.91751e-08
3.04007e-09
5.85764e-08
2.88224e-09
5.79404e-08
2.71701e-09
5.72749e-08
2.5524e-09
5.65874e-08
2.39564e-09
5.58845e-08
2.25189e-09
5.51717e-08
2.12405e-09
5.44529e-08
2.013e-09
5.37319e-08
1.91824e-09
5.30114e-08
1.83768e-09
5.22917e-08
1.76863e-09
5.15747e-08
1.70949e-09
5.08612e-08
1.65856e-09
5.0152e-08
1.61398e-09
4.94471e-08
1.57403e-09
4.87467e-08
1.53723e-09
4.80512e-08
1.50257e-09
4.73608e-08
1.46928e-09
4.6676e-08
1.43662e-09
4.59973e-08
1.40377e-09
4.53253e-08
1.37049e-09
4.46609e-08
1.33696e-09
4.40049e-08
1.30356e-09
4.33575e-08
1.27044e-09
4.27193e-08
1.23757e-09
4.20906e-08
1.20466e-09
4.14721e-08
1.17173e-09
4.08644e-08
1.13898e-09
4.0268e-08
1.10673e-09
3.96832e-08
1.07505e-09
3.91103e-08
1.04405e-09
3.85494e-08
1.01354e-09
3.8001e-08
9.835e-10
3.74651e-08
9.5393e-10
3.69421e-08
9.25172e-10
3.64318e-08
8.972e-10
3.59342e-08
8.70068e-10
3.54494e-08
8.43521e-10
3.49773e-08
8.17555e-10
3.45179e-08
7.91892e-10
3.40715e-08
7.66746e-10
3.36377e-08
7.42086e-10
3.32165e-08
7.18189e-10
3.28076e-08
6.94821e-10
3.2411e-08
6.72094e-10
3.20263e-08
6.49632e-10
3.16537e-08
6.27584e-10
3.12929e-08
6.05732e-10
3.09438e-08
5.84418e-10
3.06062e-08
5.63465e-10
3.028e-08
5.43197e-10
2.99646e-08
5.23303e-10
2.96601e-08
5.04032e-10
2.93661e-08
4.85036e-10
2.90824e-08
4.66646e-10
2.88088e-08
4.48523e-10
2.8545e-08
4.31137e-10
2.82906e-08
4.14113e-10
2.80454e-08
3.97984e-10
2.7809e-08
3.82297e-10
2.75809e-08
3.67679e-10
2.73607e-08
3.53545e-10
2.7148e-08
3.40648e-10
2.69422e-08
3.28308e-10
2.67429e-08
3.17342e-10
2.65495e-08
3.06797e-10
2.63617e-08
2.97613e-10
2.61787e-08
2.88561e-10
2.60005e-08
2.81011e-10
2.58261e-08
2.73775e-10
2.56551e-08
2.6873e-10
2.54866e-08
2.64236e-10
2.53201e-08
2.62382e-10
2.51545e-08
2.61277e-10
2.49892e-08
2.6312e-10
2.48235e-08
2.64442e-10
2.46576e-08
2.67328e-10
2.44911e-08
2.6796e-10
2.43248e-08
2.70156e-10
2.41578e-08
2.6954e-10
2.3991e-08
2.72157e-10
2.38227e-08
2.7188e-10
2.77569e-10
6.77881e-08
1.92037e-09
-6.791e-08
6.77368e-08
2.1737e-09
6.77562e-08
2.43381e-09
6.78097e-08
2.69952e-09
6.78536e-08
2.89907e-09
6.78714e-08
3.04118e-09
6.78768e-08
3.14577e-09
6.7888e-08
3.23506e-09
6.79073e-08
3.32277e-09
6.79274e-08
3.40447e-09
6.79397e-08
3.46888e-09
6.79372e-08
3.50928e-09
6.79144e-08
3.52397e-09
6.78667e-08
3.51285e-09
6.77895e-08
3.47608e-09
6.76787e-08
3.41459e-09
6.7531e-08
3.33045e-09
6.73442e-08
3.2269e-09
6.71179e-08
3.10848e-09
6.6854e-08
2.98094e-09
6.65557e-08
2.85068e-09
6.62275e-08
2.72384e-09
6.58741e-08
2.60527e-09
6.55001e-08
2.49809e-09
6.51094e-08
2.40373e-09
6.47053e-08
2.32225e-09
6.42903e-08
2.25276e-09
6.38652e-08
2.19374e-09
6.34312e-08
2.1434e-09
6.29897e-08
2.10014e-09
6.25412e-08
2.06247e-09
6.20862e-08
2.02903e-09
6.16248e-08
1.99858e-09
6.11571e-08
1.97025e-09
6.0683e-08
1.94342e-09
6.02022e-08
1.91743e-09
5.97144e-08
1.89152e-09
5.92199e-08
1.86502e-09
5.87192e-08
1.83768e-09
5.82131e-08
1.80964e-09
5.77025e-08
1.78109e-09
5.71879e-08
1.75208e-09
5.66699e-08
1.72271e-09
5.61485e-08
1.69315e-09
5.56237e-08
1.66372e-09
5.50961e-08
1.63436e-09
5.45663e-08
1.60483e-09
5.40355e-08
1.57486e-09
5.35047e-08
1.54439e-09
5.29747e-08
1.51344e-09
5.24461e-08
1.48253e-09
5.19191e-08
1.45214e-09
5.13939e-08
1.42244e-09
5.08708e-08
1.39312e-09
5.03505e-08
1.36385e-09
4.98339e-08
1.3342e-09
4.93217e-08
1.30409e-09
4.88147e-08
1.27372e-09
4.83132e-08
1.24357e-09
4.78176e-08
1.21378e-09
4.7328e-08
1.18441e-09
4.68449e-08
1.15518e-09
4.63686e-08
1.12594e-09
4.58998e-08
1.09643e-09
4.54387e-08
1.06684e-09
4.49859e-08
1.03718e-09
4.45416e-08
1.0078e-09
4.41061e-08
9.78648e-10
4.36795e-08
9.49976e-10
4.3262e-08
9.21527e-10
4.28535e-08
8.93542e-10
4.24544e-08
8.6572e-10
4.20645e-08
8.38403e-10
4.16843e-08
8.1138e-10
4.13133e-08
7.85101e-10
4.09519e-08
7.59314e-10
4.05997e-08
7.34576e-10
4.02568e-08
7.10561e-10
3.99225e-08
6.87846e-10
3.95971e-08
6.66031e-10
3.92796e-08
6.4582e-10
3.89703e-08
6.26582e-10
3.86682e-08
6.08966e-10
3.83737e-08
5.92113e-10
3.80856e-08
5.76679e-10
3.78046e-08
5.61956e-10
3.75291e-08
5.49297e-10
3.72596e-08
5.38214e-10
3.69939e-08
5.29913e-10
3.67328e-08
5.23466e-10
3.64735e-08
5.2064e-10
3.62168e-08
5.1985e-10
3.596e-08
5.21151e-10
3.57056e-08
5.21749e-10
3.5451e-08
5.22616e-10
3.5199e-08
5.22106e-10
3.49461e-08
5.22468e-10
3.46954e-08
5.22851e-10
3.44427e-08
5.2457e-10
5.27966e-10
7.34619e-08
2.04364e-09
-7.35851e-08
7.33807e-08
2.2549e-09
7.33495e-08
2.465e-09
7.33676e-08
2.68134e-09
7.33965e-08
2.87022e-09
7.34165e-08
3.02117e-09
7.3426e-08
3.13629e-09
7.34354e-08
3.22569e-09
7.34516e-08
3.30654e-09
7.3476e-08
3.38001e-09
7.35035e-08
3.44147e-09
7.35271e-08
3.48565e-09
7.35418e-08
3.50926e-09
7.35437e-08
3.51092e-09
7.35293e-08
3.49055e-09
7.34948e-08
3.44902e-09
7.34372e-08
3.38811e-09
7.33537e-08
3.31037e-09
7.32429e-08
3.21926e-09
7.31047e-08
3.11914e-09
7.29405e-08
3.01496e-09
7.27528e-08
2.91153e-09
7.2545e-08
2.81303e-09
7.23207e-08
2.72239e-09
7.20831e-08
2.64132e-09
7.1835e-08
2.5704e-09
7.15782e-08
2.50955e-09
7.13141e-08
2.45784e-09
7.10436e-08
2.41391e-09
7.07675e-08
2.37622e-09
7.04864e-08
2.34358e-09
7.02006e-08
2.31483e-09
6.99101e-08
2.28913e-09
6.96146e-08
2.26568e-09
6.93139e-08
2.24411e-09
6.90075e-08
2.22382e-09
6.86948e-08
2.2043e-09
6.83751e-08
2.18468e-09
6.80482e-08
2.16461e-09
6.77141e-08
2.14372e-09
6.73731e-08
2.1221e-09
6.70256e-08
2.09958e-09
6.66718e-08
2.07649e-09
6.63119e-08
2.05305e-09
6.59456e-08
2.03004e-09
6.55725e-08
2.00741e-09
6.51923e-08
1.98508e-09
6.48049e-08
1.96221e-09
6.44109e-08
1.93839e-09
6.40114e-08
1.91296e-09
6.36074e-08
1.88657e-09
6.31997e-08
1.85986e-09
6.27881e-08
1.83399e-09
6.23723e-08
1.80897e-09
6.19514e-08
1.78473e-09
6.15257e-08
1.75989e-09
6.1096e-08
1.73382e-09
6.06637e-08
1.70597e-09
6.02298e-08
1.67745e-09
5.9795e-08
1.64864e-09
5.93589e-08
1.62046e-09
5.89217e-08
1.59236e-09
5.84833e-08
1.56436e-09
5.80442e-08
1.5355e-09
5.76049e-08
1.5062e-09
5.71662e-08
1.47585e-09
5.67287e-08
1.44533e-09
5.62932e-08
1.41409e-09
5.586e-08
1.38319e-09
5.54297e-08
1.35181e-09
5.50021e-08
1.32115e-09
5.45778e-08
1.29005e-09
5.41564e-08
1.25977e-09
5.37389e-08
1.22891e-09
5.3325e-08
1.19906e-09
5.29157e-08
1.16855e-09
5.25108e-08
1.13951e-09
5.21113e-08
1.11002e-09
5.17165e-08
1.08264e-09
5.13276e-08
1.05501e-09
5.09431e-08
1.03024e-09
5.05645e-08
1.00517e-09
5.01902e-08
9.83269e-10
4.98219e-08
9.60455e-10
4.9458e-08
9.40608e-10
4.91006e-08
9.19325e-10
4.87477e-08
9.02236e-10
4.84009e-08
8.84959e-10
4.80573e-08
8.73516e-10
4.77186e-08
8.62157e-10
4.73807e-08
8.58543e-10
4.70457e-08
8.54846e-10
4.67101e-08
8.56766e-10
4.63781e-08
8.53773e-10
4.60459e-08
8.54783e-10
4.57182e-08
8.4983e-10
4.53889e-08
8.51762e-10
4.5063e-08
8.48727e-10
4.47345e-08
8.53063e-10
8.51814e-10
7.9576e-08
2.1716e-09
-7.97039e-08
7.94784e-08
2.35244e-09
7.94165e-08
2.52689e-09
7.93948e-08
2.70306e-09
7.93945e-08
2.87055e-09
7.93988e-08
3.01684e-09
7.94002e-08
3.1349e-09
7.93967e-08
3.22923e-09
7.93947e-08
3.30846e-09
7.93981e-08
3.37668e-09
7.94053e-08
3.43426e-09
7.9412e-08
3.47889e-09
7.94136e-08
3.50772e-09
7.94059e-08
3.51861e-09
7.93857e-08
3.51074e-09
7.93502e-08
3.48447e-09
7.9297e-08
3.44132e-09
7.9224e-08
3.38339e-09
7.91298e-08
3.31349e-09
7.9014e-08
3.23493e-09
7.88774e-08
3.15153e-09
7.8722e-08
3.06693e-09
7.85504e-08
2.98465e-09
7.83655e-08
2.90734e-09
7.81699e-08
2.83686e-09
7.79663e-08
2.77402e-09
7.77566e-08
2.71924e-09
7.75424e-08
2.67199e-09
7.73249e-08
2.63145e-09
7.71048e-08
2.59634e-09
7.68825e-08
2.56585e-09
7.66584e-08
2.53897e-09
7.64324e-08
2.5151e-09
7.62046e-08
2.49346e-09
7.59749e-08
2.47386e-09
7.57429e-08
2.45574e-09
7.55083e-08
2.43895e-09
7.52703e-08
2.42266e-09
7.50284e-08
2.40655e-09
7.47822e-08
2.38987e-09
7.45317e-08
2.37263e-09
7.42769e-08
2.35438e-09
7.40178e-08
2.33558e-09
7.37546e-08
2.3163e-09
7.3487e-08
2.29763e-09
7.32147e-08
2.27964e-09
7.29372e-08
2.26265e-09
7.26538e-08
2.24557e-09
7.23643e-08
2.22788e-09
7.2069e-08
2.20824e-09
7.17685e-08
2.18711e-09
7.14637e-08
2.16471e-09
7.1155e-08
2.14269e-09
7.08423e-08
2.12161e-09
7.05246e-08
2.10246e-09
7.02008e-08
2.08372e-09
6.98703e-08
2.06423e-09
6.95342e-08
2.04209e-09
6.91936e-08
2.0181e-09
6.88495e-08
1.99274e-09
6.8502e-08
1.96796e-09
6.81508e-08
1.94351e-09
6.77954e-08
1.91981e-09
6.74356e-08
1.8953e-09
6.70713e-08
1.87051e-09
6.6703e-08
1.84412e-09
6.6331e-08
1.81735e-09
6.59562e-08
1.78889e-09
6.55788e-08
1.76053e-09
6.51999e-08
1.73076e-09
6.48191e-08
1.70199e-09
6.44369e-08
1.67216e-09
6.40528e-08
1.64392e-09
6.36673e-08
1.61441e-09
6.32797e-08
1.58664e-09
6.28913e-08
1.55699e-09
6.25014e-08
1.52942e-09
6.21116e-08
1.49973e-09
6.17213e-08
1.47297e-09
6.13322e-08
1.44416e-09
6.09429e-08
1.41954e-09
6.05552e-08
1.39286e-09
6.01673e-08
1.37114e-09
5.97813e-08
1.34648e-09
5.93956e-08
1.32625e-09
5.90134e-08
1.30156e-09
5.86332e-08
1.28243e-09
5.82573e-08
1.26086e-09
5.78823e-08
1.24848e-09
5.75093e-08
1.23516e-09
5.71338e-08
1.23413e-09
5.6758e-08
1.23063e-09
5.63792e-08
1.23553e-09
5.60028e-08
1.23018e-09
5.56255e-08
1.23212e-09
5.52516e-08
1.22372e-09
5.48748e-08
1.22855e-09
5.44997e-08
1.22377e-09
5.41196e-08
1.23319e-09
1.22525e-09
8.61723e-08
2.30583e-09
-8.63065e-08
8.60611e-08
2.46361e-09
8.59767e-08
2.61134e-09
8.592e-08
2.75971e-09
8.58867e-08
2.90392e-09
8.58666e-08
3.03689e-09
8.58491e-08
3.1524e-09
8.58295e-08
3.24888e-09
8.58091e-08
3.32886e-09
8.57901e-08
3.39563e-09
8.57731e-08
3.4513e-09
8.57561e-08
3.49586e-09
8.57358e-08
3.528e-09
8.57085e-08
3.54592e-09
8.56708e-08
3.5485e-09
8.56198e-08
3.53544e-09
8.55534e-08
3.50774e-09
8.54698e-08
3.46701e-09
8.53678e-08
3.41543e-09
8.52473e-08
3.35545e-09
8.51087e-08
3.29009e-09
8.49535e-08
3.22216e-09
8.47835e-08
3.15459e-09
8.46013e-08
3.08958e-09
8.44092e-08
3.02897e-09
8.42096e-08
2.97365e-09
8.40044e-08
2.92438e-09
8.37954e-08
2.881e-09
8.35837e-08
2.84316e-09
8.33702e-08
2.80988e-09
8.31553e-08
2.78068e-09
8.29396e-08
2.75467e-09
8.27232e-08
2.73151e-09
8.25063e-08
2.71043e-09
8.22887e-08
2.69137e-09
8.20707e-08
2.6738e-09
8.18518e-08
2.65782e-09
8.16318e-08
2.64263e-09
8.14104e-08
2.62802e-09
8.11872e-08
2.61308e-09
8.09619e-08
2.59789e-09
8.07344e-08
2.5819e-09
8.05044e-08
2.5656e-09
8.02719e-08
2.54878e-09
8.0037e-08
2.5325e-09
7.97998e-08
2.51681e-09
7.956e-08
2.50245e-09
7.93172e-08
2.48841e-09
7.90708e-08
2.4743e-09
7.88205e-08
2.45852e-09
7.85663e-08
2.44132e-09
7.83087e-08
2.42233e-09
7.80482e-08
2.40315e-09
7.77853e-08
2.38452e-09
7.75196e-08
2.3682e-09
7.725e-08
2.35328e-09
7.69756e-08
2.33864e-09
7.66961e-08
2.32156e-09
7.64122e-08
2.30203e-09
7.61247e-08
2.2802e-09
7.58341e-08
2.25855e-09
7.55403e-08
2.23732e-09
7.52427e-08
2.21743e-09
7.49409e-08
2.19707e-09
7.46346e-08
2.17688e-09
7.43237e-08
2.155e-09
7.40081e-08
2.13296e-09
7.36883e-08
2.10868e-09
7.33643e-08
2.08449e-09
7.30371e-08
2.05801e-09
7.27063e-08
2.03275e-09
7.23728e-08
2.00572e-09
7.20356e-08
1.9811e-09
7.16953e-08
1.95468e-09
7.13508e-08
1.93116e-09
7.10029e-08
1.90489e-09
7.06506e-08
1.88174e-09
7.02953e-08
1.85504e-09
6.9936e-08
1.8322e-09
6.95747e-08
1.80552e-09
6.92101e-08
1.78406e-09
6.88441e-08
1.75891e-09
6.8475e-08
1.74017e-09
6.81042e-08
1.71738e-09
6.77303e-08
1.70008e-09
6.73565e-08
1.67541e-09
6.69843e-08
1.65459e-09
6.66158e-08
1.62942e-09
6.62472e-08
1.61703e-09
6.58762e-08
1.60619e-09
6.5499e-08
1.61128e-09
6.5117e-08
1.61266e-09
6.47299e-08
1.62267e-09
6.43422e-08
1.61787e-09
6.3953e-08
1.62132e-09
6.35645e-08
1.61224e-09
6.31726e-08
1.62038e-09
6.27779e-08
1.61847e-09
6.23712e-08
1.63994e-09
1.62024e-09
9.32899e-08
2.4493e-09
-9.34334e-08
9.31638e-08
2.58972e-09
9.30582e-08
2.71693e-09
9.29736e-08
2.84425e-09
9.29086e-08
2.96894e-09
9.28583e-08
3.08717e-09
9.28158e-08
3.19499e-09
9.27753e-08
3.28937e-09
9.27346e-08
3.36956e-09
9.26936e-08
3.43664e-09
9.26525e-08
3.49233e-09
9.26108e-08
3.53754e-09
9.25666e-08
3.57222e-09
9.2517e-08
3.5955e-09
9.24589e-08
3.60661e-09
9.23894e-08
3.60499e-09
9.23061e-08
3.59103e-09
9.22074e-08
3.56567e-09
9.20924e-08
3.53047e-09
9.19607e-08
3.48713e-09
9.18128e-08
3.43802e-09
9.16496e-08
3.38535e-09
9.14727e-08
3.33153e-09
9.12839e-08
3.27836e-09
9.10853e-08
3.22755e-09
9.0879e-08
3.18e-09
9.06667e-08
3.13661e-09
9.04502e-08
3.0975e-09
9.02306e-08
3.06274e-09
9.00089e-08
3.03162e-09
8.97857e-08
3.00389e-09
8.95615e-08
2.97888e-09
8.93365e-08
2.95653e-09
8.91107e-08
2.93615e-09
8.88845e-08
2.91763e-09
8.86578e-08
2.90044e-09
8.84309e-08
2.88477e-09
8.82036e-08
2.86998e-09
8.79756e-08
2.85597e-09
8.77468e-08
2.84185e-09
8.75169e-08
2.82778e-09
8.72856e-08
2.81324e-09
8.70526e-08
2.79864e-09
8.68178e-08
2.78357e-09
8.65814e-08
2.76889e-09
8.63435e-08
2.75467e-09
8.61043e-08
2.74172e-09
8.58635e-08
2.72921e-09
8.56209e-08
2.71684e-09
8.53761e-08
2.70329e-09
8.51288e-08
2.68864e-09
8.48788e-08
2.67238e-09
8.46263e-08
2.65563e-09
8.43718e-08
2.63903e-09
8.41157e-08
2.62429e-09
8.38578e-08
2.61119e-09
8.35974e-08
2.59903e-09
8.33337e-08
2.58523e-09
8.30667e-08
2.56908e-09
8.27965e-08
2.5504e-09
8.25236e-08
2.53146e-09
8.22481e-08
2.5128e-09
8.19699e-08
2.4956e-09
8.16888e-08
2.47818e-09
8.14044e-08
2.46133e-09
8.11165e-08
2.44287e-09
8.08247e-08
2.42471e-09
8.05293e-08
2.40413e-09
8.02299e-08
2.38392e-09
7.99271e-08
2.3608e-09
7.96207e-08
2.33913e-09
7.93114e-08
2.31496e-09
7.89987e-08
2.29381e-09
7.86831e-08
2.27031e-09
7.83635e-08
2.25076e-09
7.80404e-08
2.22798e-09
7.77127e-08
2.20944e-09
7.73812e-08
2.18654e-09
7.70451e-08
2.16839e-09
7.67053e-08
2.14529e-09
7.63615e-08
2.12782e-09
7.60147e-08
2.10573e-09
7.56645e-08
2.0904e-09
7.53105e-08
2.07139e-09
7.49513e-08
2.05922e-09
7.45874e-08
2.03938e-09
7.42263e-08
2.0157e-09
7.38701e-08
1.98556e-09
7.35142e-08
1.97291e-09
7.31533e-08
1.96711e-09
7.27853e-08
1.97927e-09
7.241e-08
1.98802e-09
7.20292e-08
2.00343e-09
7.16465e-08
2.00056e-09
7.12628e-08
2.00505e-09
7.08787e-08
1.99631e-09
7.0493e-08
2.00608e-09
7.01008e-08
2.01067e-09
6.96839e-08
2.0568e-09
2.02303e-09
1.00969e-07
2.60632e-09
-1.01126e-07
1.00826e-07
2.73286e-09
1.007e-07
2.84296e-09
1.00591e-07
2.95368e-09
1.00497e-07
3.06296e-09
1.00416e-07
3.16809e-09
1.00344e-07
3.26642e-09
1.00278e-07
3.35549e-09
1.00214e-07
3.43382e-09
1.00149e-07
3.50096e-09
1.00084e-07
3.55753e-09
1.00018e-07
3.60423e-09
9.99483e-08
3.64154e-09
9.98745e-08
3.6693e-09
9.97938e-08
3.68729e-09
9.97036e-08
3.69515e-09
9.96017e-08
3.69301e-09
9.94861e-08
3.68128e-09
9.93558e-08
3.66074e-09
9.92104e-08
3.63248e-09
9.90503e-08
3.5982e-09
9.8876e-08
3.55958e-09
9.86889e-08
3.51861e-09
9.84905e-08
3.47682e-09
9.82822e-08
3.43582e-09
9.80658e-08
3.39642e-09
9.7843e-08
3.35942e-09
9.76153e-08
3.32516e-09
9.7384e-08
3.29405e-09
9.71499e-08
3.26569e-09
9.69138e-08
3.24e-09
9.66761e-08
3.21657e-09
9.64372e-08
3.1955e-09
9.61971e-08
3.17617e-09
9.59564e-08
3.15842e-09
9.5715e-08
3.14181e-09
9.54731e-08
3.12661e-09
9.52307e-08
3.1124e-09
9.49877e-08
3.09903e-09
9.47439e-08
3.08566e-09
9.44992e-08
3.07245e-09
9.42533e-08
3.0591e-09
9.4006e-08
3.04593e-09
9.37571e-08
3.03251e-09
9.35066e-08
3.01936e-09
9.32547e-08
3.00658e-09
9.30016e-08
2.9948e-09
9.27475e-08
2.98335e-09
9.24923e-08
2.97204e-09
9.22355e-08
2.96003e-09
9.19769e-08
2.94732e-09
9.17158e-08
2.93342e-09
9.14525e-08
2.91897e-09
9.1187e-08
2.90452e-09
9.09201e-08
2.89121e-09
9.0652e-08
2.87929e-09
9.03826e-08
2.86835e-09
9.01113e-08
2.85655e-09
8.98375e-08
2.8429e-09
8.95608e-08
2.82706e-09
8.92815e-08
2.81076e-09
8.89999e-08
2.79445e-09
8.87161e-08
2.77943e-09
8.84301e-08
2.76418e-09
8.81416e-08
2.74976e-09
8.78507e-08
2.73383e-09
8.75568e-08
2.71863e-09
8.72599e-08
2.70098e-09
8.69597e-08
2.68415e-09
8.66564e-08
2.66407e-09
8.63498e-08
2.64574e-09
8.60405e-08
2.62428e-09
8.57281e-08
2.60621e-09
8.54132e-08
2.58519e-09
8.50951e-08
2.56883e-09
8.47742e-08
2.54887e-09
8.44495e-08
2.53411e-09
8.41214e-08
2.51466e-09
8.37892e-08
2.50067e-09
8.34531e-08
2.48136e-09
8.31133e-08
2.46762e-09
8.277e-08
2.449e-09
8.24239e-08
2.43648e-09
8.20731e-08
2.42216e-09
8.17165e-08
2.41582e-09
8.13548e-08
2.40108e-09
8.09926e-08
2.37793e-09
8.06285e-08
2.34966e-09
8.02627e-08
2.33868e-09
7.98936e-08
2.33625e-09
7.95222e-08
2.35064e-09
7.91492e-08
2.36102e-09
7.87769e-08
2.37572e-09
7.84047e-08
2.37282e-09
7.80311e-08
2.37861e-09
7.76559e-08
2.37154e-09
7.72801e-08
2.3819e-09
7.69003e-08
2.39045e-09
7.65048e-08
2.45234e-09
2.42196e-09
1.09245e-07
2.77451e-09
-1.09413e-07
1.0909e-07
2.88802e-09
1.08945e-07
2.98796e-09
1.08812e-07
3.08721e-09
1.0869e-07
3.18447e-09
1.0858e-07
3.2784e-09
1.08479e-07
3.36751e-09
1.08384e-07
3.45015e-09
1.08293e-07
3.52502e-09
1.08203e-07
3.59124e-09
1.08112e-07
3.64855e-09
1.08019e-07
3.69703e-09
1.07923e-07
3.73704e-09
1.07824e-07
3.76869e-09
1.07719e-07
3.79218e-09
1.07606e-07
3.80772e-09
1.07484e-07
3.81585e-09
1.07348e-07
3.81638e-09
1.07201e-07
3.8085e-09
1.0704e-07
3.79331e-09
1.06866e-07
3.77215e-09
1.06679e-07
3.74635e-09
1.0648e-07
3.71751e-09
1.0627e-07
3.68681e-09
1.06051e-07
3.65549e-09
1.05823e-07
3.62433e-09
1.05588e-07
3.59414e-09
1.05348e-07
3.56541e-09
1.05103e-07
3.53867e-09
1.04855e-07
3.51379e-09
1.04604e-07
3.49079e-09
1.04351e-07
3.46952e-09
1.04097e-07
3.45017e-09
1.0384e-07
3.4323e-09
1.03583e-07
3.41577e-09
1.03325e-07
3.40027e-09
1.03065e-07
3.38596e-09
1.02805e-07
3.37262e-09
1.02544e-07
3.36003e-09
1.02282e-07
3.34753e-09
1.02019e-07
3.3353e-09
1.01755e-07
3.32324e-09
1.0149e-07
3.31154e-09
1.01222e-07
3.29982e-09
1.00953e-07
3.28821e-09
1.00683e-07
3.27695e-09
1.00411e-07
3.26644e-09
1.00139e-07
3.2562e-09
9.98647e-08
3.24595e-09
9.95893e-08
3.23543e-09
9.93122e-08
3.22443e-09
9.90329e-08
3.21269e-09
9.87514e-08
3.20047e-09
9.84676e-08
3.18834e-09
9.8182e-08
3.17674e-09
9.78952e-08
3.1661e-09
9.76074e-08
3.15619e-09
9.7318e-08
3.14592e-09
9.70266e-08
3.13435e-09
9.67325e-08
3.12116e-09
9.64357e-08
3.1075e-09
9.61366e-08
3.0936e-09
9.58353e-08
3.08073e-09
9.5532e-08
3.06746e-09
9.52266e-08
3.05519e-09
9.4919e-08
3.0414e-09
9.46089e-08
3.02873e-09
9.42963e-08
3.01361e-09
9.39807e-08
2.99977e-09
9.36622e-08
2.98251e-09
9.33406e-08
2.9674e-09
9.30162e-08
2.94863e-09
9.26889e-08
2.93356e-09
9.23592e-08
2.91486e-09
9.20267e-08
2.90131e-09
9.16919e-08
2.88368e-09
9.1354e-08
2.87202e-09
9.10132e-08
2.85548e-09
9.06688e-08
2.84502e-09
9.03209e-08
2.82928e-09
8.99695e-08
2.819e-09
8.96144e-08
2.80414e-09
8.92564e-08
2.7945e-09
8.88952e-08
2.7833e-09
8.85345e-08
2.77652e-09
8.817e-08
2.76559e-09
8.77935e-08
2.75444e-09
8.73981e-08
2.74509e-09
8.69938e-08
2.74298e-09
8.65902e-08
2.73983e-09
8.61959e-08
2.74493e-09
8.58156e-08
2.74135e-09
8.54464e-08
2.74487e-09
8.50823e-08
2.73696e-09
8.47172e-08
2.74367e-09
8.43482e-08
2.74054e-09
8.39771e-08
2.753e-09
8.36084e-08
2.75919e-09
8.32698e-08
2.79095e-09
2.79531e-09
6.85384e-08
2.65248e-09
-6.84164e-08
6.86723e-08
2.7541e-09
6.88154e-08
2.84488e-09
6.8967e-08
2.93563e-09
6.91266e-08
3.02486e-09
6.92938e-08
3.11118e-09
6.94679e-08
3.19335e-09
6.9648e-08
3.27011e-09
6.98327e-08
3.34036e-09
7.00207e-08
3.40324e-09
7.02109e-08
3.45833e-09
7.04024e-08
3.50548e-09
7.05946e-08
3.54485e-09
7.07867e-08
3.57656e-09
7.0978e-08
3.60088e-09
7.11675e-08
3.61829e-09
7.13536e-08
3.62973e-09
7.15361e-08
3.6339e-09
7.17143e-08
3.6303e-09
7.18877e-08
3.61989e-09
7.2056e-08
3.60379e-09
7.22193e-08
3.58312e-09
7.23776e-08
3.55916e-09
7.25316e-08
3.53287e-09
7.26818e-08
3.50528e-09
7.28289e-08
3.4772e-09
7.29736e-08
3.44942e-09
7.31166e-08
3.42242e-09
7.32586e-08
3.39667e-09
7.34002e-08
3.37223e-09
7.35418e-08
3.34918e-09
7.36838e-08
3.32751e-09
7.38265e-08
3.30744e-09
7.39702e-08
3.28863e-09
7.4115e-08
3.27094e-09
7.42611e-08
3.25417e-09
7.44087e-08
3.23841e-09
7.45578e-08
3.22355e-09
7.47084e-08
3.20935e-09
7.48606e-08
3.19534e-09
7.50143e-08
3.18161e-09
7.51694e-08
3.16817e-09
7.53258e-08
3.15509e-09
7.54836e-08
3.14209e-09
7.56426e-08
3.12915e-09
7.5803e-08
3.11658e-09
7.59649e-08
3.1046e-09
7.61282e-08
3.09281e-09
7.62933e-08
3.0809e-09
7.64598e-08
3.06891e-09
7.66277e-08
3.05655e-09
7.67967e-08
3.04368e-09
7.69668e-08
3.03039e-09
7.71379e-08
3.01728e-09
7.73102e-08
3.00437e-09
7.74842e-08
2.99212e-09
7.766e-08
2.98035e-09
7.78376e-08
2.96841e-09
7.80164e-08
2.95551e-09
7.81962e-08
2.94136e-09
7.83768e-08
2.92686e-09
7.85585e-08
2.9119e-09
7.87415e-08
2.8978e-09
7.89258e-08
2.88311e-09
7.91115e-08
2.86951e-09
7.92986e-08
2.85432e-09
7.94868e-08
2.84051e-09
7.96762e-08
2.82417e-09
7.98665e-08
2.80951e-09
8.00577e-08
2.79129e-09
8.02495e-08
2.77559e-09
8.04423e-08
2.75585e-09
8.06358e-08
2.74008e-09
8.08306e-08
2.72007e-09
8.10263e-08
2.70553e-09
8.12236e-08
2.68646e-09
8.14218e-08
2.67383e-09
8.1621e-08
2.6562e-09
8.1821e-08
2.64504e-09
8.20215e-08
2.62881e-09
8.22226e-08
2.61788e-09
8.24239e-08
2.60289e-09
8.26266e-08
2.59175e-09
8.28311e-08
2.57879e-09
8.30403e-08
2.5673e-09
8.32503e-08
2.55559e-09
8.34503e-08
2.55448e-09
8.36322e-08
2.56318e-09
8.38075e-08
2.56769e-09
8.39878e-08
2.55951e-09
8.41818e-08
2.55096e-09
8.43951e-08
2.52804e-09
8.46263e-08
2.51365e-09
8.48685e-08
2.49469e-09
8.51159e-08
2.49633e-09
8.53635e-08
2.49289e-09
8.56147e-08
2.50179e-09
8.5875e-08
2.49896e-09
8.61792e-08
2.48672e-09
2.5322e-09
7.57512e-08
2.51306e-09
-7.56117e-08
7.58981e-08
2.60713e-09
7.60528e-08
2.69025e-09
7.62153e-08
2.77306e-09
7.63855e-08
2.85468e-09
7.65628e-08
2.93389e-09
7.67466e-08
3.00958e-09
7.6936e-08
3.0807e-09
7.713e-08
3.1463e-09
7.73276e-08
3.20564e-09
7.75277e-08
3.25825e-09
7.77294e-08
3.30386e-09
7.79317e-08
3.34246e-09
7.81341e-08
3.37416e-09
7.83358e-08
3.39923e-09
7.85358e-08
3.41833e-09
7.87332e-08
3.43226e-09
7.89281e-08
3.43907e-09
7.91194e-08
3.43892e-09
7.93068e-08
3.43256e-09
7.94897e-08
3.42083e-09
7.96682e-08
3.40459e-09
7.98426e-08
3.38486e-09
8.0013e-08
3.36247e-09
8.01799e-08
3.33831e-09
8.0344e-08
3.31316e-09
8.05057e-08
3.28773e-09
8.06656e-08
3.26244e-09
8.08246e-08
3.23771e-09
8.09831e-08
3.21376e-09
8.11415e-08
3.19077e-09
8.13001e-08
3.16884e-09
8.14594e-08
3.14814e-09
8.16196e-08
3.12842e-09
8.1781e-08
3.10957e-09
8.19436e-08
3.09154e-09
8.21077e-08
3.07438e-09
8.22732e-08
3.05803e-09
8.24403e-08
3.04221e-09
8.2609e-08
3.02662e-09
8.27793e-08
3.01133e-09
8.29511e-08
2.99638e-09
8.31244e-08
2.98178e-09
8.32991e-08
2.96736e-09
8.34753e-08
2.95299e-09
8.36529e-08
2.939e-09
8.3832e-08
2.92543e-09
8.40129e-08
2.91199e-09
8.41954e-08
2.89835e-09
8.43795e-08
2.8848e-09
8.45651e-08
2.87093e-09
8.47521e-08
2.85673e-09
8.49403e-08
2.84218e-09
8.51297e-08
2.82787e-09
8.53205e-08
2.81357e-09
8.5513e-08
2.79966e-09
8.57073e-08
2.78602e-09
8.59034e-08
2.77229e-09
8.6101e-08
2.7579e-09
8.62998e-08
2.74255e-09
8.64997e-08
2.72701e-09
8.67008e-08
2.71081e-09
8.69032e-08
2.69537e-09
8.71072e-08
2.6791e-09
8.73127e-08
2.664e-09
8.75198e-08
2.64723e-09
8.77283e-08
2.63205e-09
8.79382e-08
2.61426e-09
8.81492e-08
2.59851e-09
8.83613e-08
2.57913e-09
8.85743e-08
2.56263e-09
8.87884e-08
2.5418e-09
8.90033e-08
2.52517e-09
8.92195e-08
2.5038e-09
8.9437e-08
2.48808e-09
8.9656e-08
2.46744e-09
8.98764e-08
2.45349e-09
9.0098e-08
2.43454e-09
9.03209e-08
2.42216e-09
9.05445e-08
2.40517e-09
9.07695e-08
2.39292e-09
9.0995e-08
2.37744e-09
9.12225e-08
2.3642e-09
9.14507e-08
2.35063e-09
9.16816e-08
2.33642e-09
9.19108e-08
2.32636e-09
9.21345e-08
2.33074e-09
9.23523e-08
2.34538e-09
9.25712e-08
2.3488e-09
9.2795e-08
2.33575e-09
9.30285e-08
2.31748e-09
9.3274e-08
2.28248e-09
9.35302e-08
2.25748e-09
9.37927e-08
2.23223e-09
9.40576e-08
2.23143e-09
9.43228e-08
2.22765e-09
9.45908e-08
2.2338e-09
9.48628e-08
2.22694e-09
9.51462e-08
2.20332e-09
2.26464e-09
8.37145e-08
2.3569e-09
-8.35583e-08
8.38765e-08
2.44511e-09
8.40448e-08
2.522e-09
8.42199e-08
2.59796e-09
8.44019e-08
2.67265e-09
8.45905e-08
2.74532e-09
8.4785e-08
2.81504e-09
8.49848e-08
2.8809e-09
8.5189e-08
2.94209e-09
8.53967e-08
2.99792e-09
8.56071e-08
3.04794e-09
8.58191e-08
3.09185e-09
8.6032e-08
3.12952e-09
8.62451e-08
3.16105e-09
8.64577e-08
3.18667e-09
8.66689e-08
3.20714e-09
8.68787e-08
3.22243e-09
8.70866e-08
3.23115e-09
8.72918e-08
3.23369e-09
8.74939e-08
3.23052e-09
8.76924e-08
3.22227e-09
8.78874e-08
3.20966e-09
8.80787e-08
3.19351e-09
8.82666e-08
3.17457e-09
8.84514e-08
3.15348e-09
8.86337e-08