/*--------------------------------*- C++ -*----------------------------------*\
| =========                 |                                                 |
| \\      /  F ield         | OpenFOAM: The Open Source CFD Toolbox           |
|  \\    /   O peration     | Version:  2.3.0                                 |
|   \\  /    A nd           | Web:      www.OpenFOAM.org                      |
|    \\/     M anipulation  |                                                 |
\*---------------------------------------------------------------------------*/
FoamFile
{
    version     2.0;
    format      ascii;
    class       volVectorField;
    location    "0.4";
    object      U;
}
// * * * * * * * * * * * * * * * * * * * * * * * * * * * * * * * * * * * * * //

dimensions      [0 1 -1 0 0 0 0];

internalField   nonuniform List<vector> 
2250
(
(0.187423 0.00257151 1.69772e-06)
(0.17862 0.00352226 4.91666e-06)
(0.170613 0.00415043 7.39777e-06)
(0.162724 0.00438989 8.90081e-06)
(0.154567 0.00438986 9.70376e-06)
(0.146079 0.00429778 1.01241e-05)
(0.137364 0.00419136 1.02802e-05)
(0.128575 0.00408275 1.00887e-05)
(0.119838 0.0039559 9.38451e-06)
(0.11124 0.00379282 8.02817e-06)
(0.102851 0.00358329 5.94645e-06)
(0.0947343 0.00332613 3.13034e-06)
(0.0869659 0.00302471 -3.74943e-07)
(0.0796313 0.00268437 -4.4701e-06)
(0.0728302 0.00231317 -8.99517e-06)
(0.0666332 0.0019152 -1.37319e-05)
(0.0610981 0.00150119 -1.84208e-05)
(0.0562581 0.00109165 -2.27902e-05)
(0.0521174 0.000712021 -2.65912e-05)
(0.048648 0.000385179 -2.96345e-05)
(0.0457942 0.000125243 -3.1819e-05)
(0.0434812 -6.46045e-05 -3.31442e-05)
(0.0416247 -0.000190034 -3.36968e-05)
(0.0401398 -0.00026128 -3.36194e-05)
(0.0389462 -0.000289687 -3.3077e-05)
(0.0379724 -0.000285984 -3.22327e-05)
(0.0371575 -0.000260464 -3.12305e-05)
(0.036454 -0.00022343 -3.01874e-05)
(0.0358248 -0.000181952 -2.91935e-05)
(0.0352413 -0.000140519 -2.831e-05)
(0.034684 -0.000102139 -2.75703e-05)
(0.0341398 -6.86095e-05 -2.69848e-05)
(0.0336023 -4.07175e-05 -2.6548e-05)
(0.0330677 -1.84192e-05 -2.62475e-05)
(0.0325361 -1.29448e-06 -2.6069e-05)
(0.0320079 1.127e-05 -2.59965e-05)
(0.0314862 1.97327e-05 -2.60082e-05)
(0.030973 2.49169e-05 -2.60791e-05)
(0.0304717 2.78768e-05 -2.61863e-05)
(0.0299829 2.94378e-05 -2.63154e-05)
(0.0295092 3.00554e-05 -2.64585e-05)
(0.0290505 3.00383e-05 -2.66093e-05)
(0.0286093 2.94868e-05 -2.67581e-05)
(0.028185 2.86114e-05 -2.68951e-05)
(0.0277796 2.75307e-05 -2.70152e-05)
(0.0273909 2.64073e-05 -2.71212e-05)
(0.0270206 2.51874e-05 -2.72169e-05)
(0.0266659 2.39293e-05 -2.73045e-05)
(0.0263287 2.25414e-05 -2.73827e-05)
(0.0260061 2.11119e-05 -2.74492e-05)
(0.0257003 1.96146e-05 -2.75016e-05)
(0.0254074 1.82335e-05 -2.75435e-05)
(0.0251301 1.68852e-05 -2.75808e-05)
(0.0248638 1.56528e-05 -2.76207e-05)
(0.024612 1.43794e-05 -2.76651e-05)
(0.0243697 1.31791e-05 -2.77146e-05)
(0.0241415 1.18967e-05 -2.77637e-05)
(0.0239216 1.07169e-05 -2.78085e-05)
(0.0237155 9.51318e-06 -2.78448e-05)
(0.0235163 8.48523e-06 -2.78751e-05)
(0.0233308 7.42125e-06 -2.78994e-05)
(0.0231507 6.50555e-06 -2.79202e-05)
(0.0229844 5.4806e-06 -2.7932e-05)
(0.0228226 4.57264e-06 -2.79305e-05)
(0.0226752 3.5349e-06 -2.79046e-05)
(0.0225312 2.66305e-06 -2.78502e-05)
(0.0224024 1.6812e-06 -2.77585e-05)
(0.0222756 9.09738e-07 -2.76298e-05)
(0.0221647 5.03896e-09 -2.74558e-05)
(0.0220543 -6.95167e-07 -2.72364e-05)
(0.021961 -1.5824e-06 -2.69596e-05)
(0.0218664 -2.26069e-06 -2.66238e-05)
(0.0217905 -3.16829e-06 -2.62141e-05)
(0.0217115 -3.83062e-06 -2.57305e-05)
(0.0216527 -4.74675e-06 -2.51577e-05)
(0.0215886 -5.3769e-06 -2.44986e-05)
(0.0215465 -6.29538e-06 -2.37366e-05)
(0.0214963 -6.87522e-06 -2.28794e-05)
(0.0214702 -7.7898e-06 -2.19125e-05)
(0.0214327 -8.31349e-06 -2.08551e-05)
(0.0214216 -9.21589e-06 -1.97073e-05)
(0.0213953 -9.67766e-06 -1.85228e-05)
(0.0213982 -1.06165e-05 -1.73414e-05)
(0.0213817 -1.10805e-05 -1.62756e-05)
(0.0213983 -1.21223e-05 -1.54025e-05)
(0.021391 -1.25676e-05 -1.48358e-05)
(0.021421 -1.35644e-05 -1.45646e-05)
(0.021421 -1.36967e-05 -1.45743e-05)
(0.0214618 -1.43653e-05 -1.4724e-05)
(0.0214641 -1.39767e-05 -1.48991e-05)
(0.0215104 -1.41936e-05 -1.47794e-05)
(0.0215081 -1.32378e-05 -1.40657e-05)
(0.0215541 -1.33161e-05 -1.24936e-05)
(0.0215426 -1.24289e-05 -1.02415e-05)
(0.0215886 -1.29668e-05 -7.59689e-06)
(0.0215704 -1.22848e-05 -5.09188e-06)
(0.0216207 -1.31221e-05 -2.96673e-06)
(0.0215997 -1.22652e-05 -1.54044e-06)
(0.021652 -1.38657e-05 -7.17916e-07)
(0.0216436 -1.03707e-05 -2.30896e-07)
(0.193847 0.00471836 1.15655e-06)
(0.193554 0.00624876 3.41393e-06)
(0.193262 0.00736711 5.6882e-06)
(0.192855 0.00795236 7.58377e-06)
(0.192137 0.00817795 8.80361e-06)
(0.190982 0.00824571 9.36192e-06)
(0.189364 0.00827727 9.4228e-06)
(0.187326 0.00830524 9.10413e-06)
(0.184929 0.00831287 8.39883e-06)
(0.18222 0.00827306 7.21573e-06)
(0.179235 0.00816732 5.45916e-06)
(0.176001 0.00798694 3.08264e-06)
(0.172546 0.00772949 1.07413e-07)
(0.168899 0.00739412 -3.37959e-06)
(0.165103 0.00698242 -7.23387e-06)
(0.161193 0.00649763 -1.12753e-05)
(0.157214 0.00594973 -1.53158e-05)
(0.153212 0.00535624 -1.91627e-05)
(0.14923 0.00474017 -2.26295e-05)
(0.145304 0.00412741 -2.55573e-05)
(0.141465 0.0035427 -2.78379e-05)
(0.137739 0.00300627 -2.94303e-05)
(0.134145 0.0025309 -3.03639e-05)
(0.130696 0.0021218 -3.07249e-05)
(0.1274 0.00177829 -3.06329e-05)
(0.124258 0.00149683 -3.02189e-05)
(0.121268 0.00127146 -2.96095e-05)
(0.118425 0.00109587 -2.89143e-05)
(0.115723 0.000962361 -2.82137e-05)
(0.113151 0.000862532 -2.75619e-05)
(0.110702 0.000787946 -2.69918e-05)
(0.108366 0.000731265 -2.65209e-05)
(0.106136 0.000686825 -2.61551e-05)
(0.104003 0.000650867 -2.58945e-05)
(0.101963 0.000620566 -2.57368e-05)
(0.100007 0.000593661 -2.56745e-05)
(0.0981355 0.000568296 -2.56909e-05)
(0.0963409 0.000543615 -2.57614e-05)
(0.0946237 0.000519002 -2.58619e-05)
(0.0929764 0.000494397 -2.59808e-05)
(0.0913998 0.000469519 -2.61149e-05)
(0.0898863 0.000444428 -2.62614e-05)
(0.0884384 0.000419198 -2.64115e-05)
(0.0870485 0.00039449 -2.65547e-05)
(0.0857203 0.000370691 -2.66846e-05)
(0.0844447 0.000348199 -2.68038e-05)
(0.0832262 0.000326688 -2.69156e-05)
(0.0820545 0.000306287 -2.70219e-05)
(0.080936 0.000286828 -2.71201e-05)
(0.0798596 0.000268612 -2.72073e-05)
(0.0788335 0.000251431 -2.72797e-05)
(0.0778447 0.000235615 -2.7341e-05)
(0.0769032 0.000220725 -2.73976e-05)
(0.0759937 0.000206888 -2.74575e-05)
(0.0751293 0.00019362 -2.75225e-05)
(0.0742926 0.000181253 -2.75938e-05)
(0.0734999 0.000169266 -2.76646e-05)
(0.0727311 0.000158073 -2.77302e-05)
(0.0720059 0.000147181 -2.77849e-05)
(0.0713005 0.000137084 -2.78327e-05)
(0.0706385 0.000127131 -2.78735e-05)
(0.0699922 0.000117844 -2.79116e-05)
(0.0693901 0.000108474 -2.79411e-05)
(0.0688 9.96528e-05 -2.79579e-05)
(0.0682559 9.06465e-05 -2.79489e-05)
(0.0677198 8.22674e-05 -2.79109e-05)
(0.0672317 7.37059e-05 -2.78336e-05)
(0.0667468 6.58544e-05 -2.77188e-05)
(0.0663125 5.7734e-05 -2.75575e-05)
(0.0658762 5.03021e-05 -2.73508e-05)
(0.0654937 4.24726e-05 -2.7085e-05)
(0.0651037 3.53754e-05 -2.67605e-05)
(0.0647715 2.77964e-05 -2.63599e-05)
(0.0644254 2.10921e-05 -2.58854e-05)
(0.0641416 1.3877e-05 -2.53193e-05)
(0.0638364 7.68226e-06 -2.46667e-05)
(0.0635986 9.10923e-07 -2.3908e-05)
(0.0633304 -4.65621e-06 -2.3053e-05)
(0.0631355 -1.08963e-05 -2.20829e-05)
(0.0628998 -1.57497e-05 -2.10177e-05)
(0.062744 -2.13633e-05 -1.98518e-05)
(0.0625355 -2.54181e-05 -1.86411e-05)
(0.0624145 -3.05111e-05 -1.74231e-05)
(0.0622272 -3.39481e-05 -1.63262e-05)
(0.0621373 -3.87176e-05 -1.54434e-05)
(0.0619659 -4.14406e-05 -1.49136e-05)
(0.0619032 -4.53384e-05 -1.47163e-05)
(0.0617413 -4.63265e-05 -1.48117e-05)
(0.0617007 -4.84648e-05 -1.50326e-05)
(0.0615398 -4.72863e-05 -1.52897e-05)
(0.0615144 -4.76263e-05 -1.5247e-05)
(0.0613442 -4.43986e-05 -1.45329e-05)
(0.0613262 -4.39854e-05 -1.28111e-05)
(0.0611382 -4.0702e-05 -1.0297e-05)
(0.0611253 -4.19873e-05 -7.36165e-06)
(0.0609187 -3.9851e-05 -4.63381e-06)
(0.0609144 -4.32891e-05 -2.38748e-06)
(0.0606932 -4.06592e-05 -9.78752e-07)
(0.0606964 -4.62606e-05 -3.82499e-07)
(0.0604658 -4.17839e-05 -2.58061e-07)
(0.194769 0.00470996 8.80916e-07)
(0.194799 0.00569583 2.61873e-06)
(0.195007 0.00657801 4.49051e-06)
(0.19539 0.00722198 6.32112e-06)
(0.19585 0.00762999 7.73523e-06)
(0.19627 0.00789118 8.47744e-06)
(0.196572 0.00809403 8.56459e-06)
(0.196732 0.00828192 8.16982e-06)
(0.196755 0.00845437 7.43835e-06)
(0.196654 0.0085904 6.40095e-06)
(0.196433 0.00866804 5.01078e-06)
(0.196086 0.00867169 3.21941e-06)
(0.195602 0.00859182 1.02325e-06)
(0.194967 0.00842382 -1.52958e-06)
(0.194169 0.00816742 -4.35913e-06)
(0.193201 0.00782859 -7.37043e-06)
(0.192063 0.00741832 -1.04561e-05)
(0.190763 0.00695265 -1.35076e-05)
(0.189312 0.0064516 -1.64206e-05)
(0.187726 0.00593827 -1.90966e-05)
(0.186025 0.00543558 -2.14431e-05)
(0.18423 0.00496306 -2.3381e-05)
(0.182363 0.00453329 -2.4862e-05)
(0.180443 0.00415235 -2.58834e-05)
(0.178489 0.00382061 -2.64865e-05)
(0.176514 0.00353542 -2.67435e-05)
(0.174529 0.00329162 -2.67483e-05)
(0.172542 0.00308435 -2.65956e-05)
(0.17056 0.00290803 -2.63488e-05)
(0.168583 0.00275679 -2.60522e-05)
(0.166617 0.00262464 -2.57389e-05)
(0.164657 0.00250626 -2.54372e-05)
(0.162708 0.00239729 -2.51719e-05)
(0.160766 0.0022952 -2.49647e-05)
(0.158838 0.00219832 -2.48281e-05)
(0.156917 0.00210533 -2.47629e-05)
(0.155014 0.00201458 -2.47581e-05)
(0.153123 0.00192527 -2.47966e-05)
(0.151252 0.00183725 -2.48617e-05)
(0.149397 0.00175145 -2.49467e-05)
(0.147569 0.001668 -2.50483e-05)
(0.145759 0.00158647 -2.51658e-05)
(0.143981 0.00150601 -2.52955e-05)
(0.142223 0.00142708 -2.54303e-05)
(0.140501 0.00135045 -2.5561e-05)
(0.138802 0.00127733 -2.56866e-05)
(0.137145 0.00120767 -2.58094e-05)
(0.135514 0.00114141 -2.59326e-05)
(0.133927 0.00107763 -2.60524e-05)
(0.132366 0.0010163 -2.61645e-05)
(0.130854 0.000957266 -2.62617e-05)
(0.129368 0.000901424 -2.63456e-05)
(0.127934 0.000848535 -2.64212e-05)
(0.126524 0.000798805 -2.65001e-05)
(0.12517 0.000751281 -2.65865e-05)
(0.123838 0.000706035 -2.66828e-05)
(0.122564 0.000662184 -2.67785e-05)
(0.12131 0.000620369 -2.68671e-05)
(0.120119 0.000580113 -2.69403e-05)
(0.118945 0.00054217 -2.70034e-05)
(0.117836 0.000505605 -2.70574e-05)
(0.116739 0.00047094 -2.71097e-05)
(0.115712 0.000437016 -2.71543e-05)
(0.114691 0.00040455 -2.71878e-05)
(0.113745 0.000372587 -2.71954e-05)
(0.1128 0.000342214 -2.7174e-05)
(0.111935 0.000312424 -2.71116e-05)
(0.111064 0.000284354 -2.7011e-05)
(0.110278 0.000256717 -2.68622e-05)
(0.109479 0.000230653 -2.66684e-05)
(0.108771 0.000204738 -2.64146e-05)
(0.10804 0.000180365 -2.61035e-05)
(0.107408 0.00015599 -2.57157e-05)
(0.106743 0.000133335 -2.52555e-05)
(0.106186 0.000110667 -2.47028e-05)
(0.105583 8.99506e-05 -2.40649e-05)
(0.105097 6.91739e-05 -2.33185e-05)
(0.104551 5.06282e-05 -2.24751e-05)
(0.104134 3.19236e-05 -2.15101e-05)
(0.103639 1.57271e-05 -2.04422e-05)
(0.103284 -7.24473e-07 -1.92548e-05)
(0.102833 -1.4435e-05 -1.80007e-05)
(0.102537 -2.8835e-05 -1.67137e-05)
(0.102122 -4.04493e-05 -1.55527e-05)
(0.101878 -5.33063e-05 -1.46659e-05)
(0.101491 -6.27609e-05 -1.4272e-05)
(0.101296 -7.2911e-05 -1.43633e-05)
(0.100928 -7.78316e-05 -1.48152e-05)
(0.100774 -8.30127e-05 -1.53606e-05)
(0.100412 -8.24146e-05 -1.59197e-05)
(0.10029 -8.29902e-05 -1.61494e-05)
(0.0999207 -7.79247e-05 -1.54918e-05)
(0.099822 -7.6634e-05 -1.3459e-05)
(0.0994331 -7.14432e-05 -1.03342e-05)
(0.099355 -7.30567e-05 -6.71111e-06)
(0.0989418 -7.03856e-05 -3.43505e-06)
(0.0988879 -7.61949e-05 -8.45898e-07)
(0.0984488 -7.50231e-05 5.95397e-07)
(0.0984218 -8.37507e-05 7.5615e-07)
(0.097951 -8.56578e-05 1.6906e-08)
(0.195496 0.00455608 6.88535e-07)
(0.19552 0.00525487 2.02106e-06)
(0.195665 0.00593649 3.41192e-06)
(0.195958 0.00652769 4.84206e-06)
(0.196382 0.00698736 6.1093e-06)
(0.196878 0.00732856 6.93797e-06)
(0.197383 0.00759244 7.19472e-06)
(0.197858 0.00781452 6.93962e-06)
(0.198294 0.00800928 6.32413e-06)
(0.1987 0.00817121 5.47366e-06)
(0.199084 0.00828542 4.42997e-06)
(0.199444 0.00833763 3.17874e-06)
(0.199771 0.00831764 1.69908e-06)
(0.200048 0.00822053 -1.44645e-08)
(0.200258 0.00804687 -1.94776e-06)
(0.200383 0.00780226 -4.06494e-06)
(0.200411 0.00749598 -6.31401e-06)
(0.200329 0.00714098 -8.63814e-06)
(0.200136 0.00675298 -1.09761e-05)
(0.199828 0.00634926 -1.32613e-05)
(0.199414 0.00594698 -1.54226e-05)
(0.1989 0.00556154 -1.73853e-05)
(0.1983 0.00520447 -1.90813e-05)
(0.197623 0.00488266 -2.04682e-05)
(0.196889 0.00459872 -2.15389e-05)
(0.196104 0.00435212 -2.23164e-05)
(0.195283 0.00414017 -2.28354e-05)
(0.194427 0.0039583 -2.31361e-05)
(0.193549 0.00380095 -2.32713e-05)
(0.192644 0.00366289 -2.3294e-05)
(0.19172 0.00353959 -2.32472e-05)
(0.190771 0.00342764 -2.31621e-05)
(0.189806 0.00332417 -2.3064e-05)
(0.188816 0.00322733 -2.2978e-05)
(0.187811 0.00313538 -2.29192e-05)
(0.186778 0.00304645 -2.28882e-05)
(0.185729 0.00295815 -2.28802e-05)
(0.184649 0.00286902 -2.29004e-05)
(0.183555 0.00277885 -2.29558e-05)
(0.182432 0.00268879 -2.30427e-05)
(0.181299 0.00259965 -2.3147e-05)
(0.180141 0.00251188 -2.32599e-05)
(0.17898 0.00242502 -2.3381e-05)
(0.177794 0.00233906 -2.35121e-05)
(0.176607 0.0022538 -2.36449e-05)
(0.175393 0.00216943 -2.37751e-05)
(0.174182 0.00208571 -2.39058e-05)
(0.172947 0.00200327 -2.40406e-05)
(0.171724 0.00192217 -2.41709e-05)
(0.170481 0.00184279 -2.42917e-05)
(0.169257 0.00176504 -2.44002e-05)
(0.168015 0.00168943 -2.44983e-05)
(0.166796 0.00161535 -2.45859e-05)
(0.165556 0.00154285 -2.46742e-05)
(0.164346 0.00147147 -2.47684e-05)
(0.163114 0.00140165 -2.48712e-05)
(0.161923 0.00133284 -2.49733e-05)
(0.160711 0.00126564 -2.50708e-05)
(0.159548 0.00119971 -2.51537e-05)
(0.158363 0.00113571 -2.52242e-05)
(0.157234 0.00107294 -2.52818e-05)
(0.156078 0.00101188 -2.53351e-05)
(0.154988 0.000951583 -2.53794e-05)
(0.153868 0.00089261 -2.54133e-05)
(0.152823 0.00083431 -2.54241e-05)
(0.151745 0.000777671 -2.54091e-05)
(0.150753 0.000722079 -2.53557e-05)
(0.149722 0.000668469 -2.52647e-05)
(0.148788 0.00061587 -2.51246e-05)
(0.147806 0.00056509 -2.49377e-05)
(0.146933 0.00051506 -2.46903e-05)
(0.146002 0.000466828 -2.43857e-05)
(0.145193 0.000419333 -2.40072e-05)
(0.144316 0.000373979 -2.35594e-05)
(0.143574 0.000329536 -2.30231e-05)
(0.142751 0.000287569 -2.24044e-05)
(0.142079 0.000246606 -2.16794e-05)
(0.141308 0.000208427 -2.08548e-05)
(0.140706 0.000171231 -1.99027e-05)
(0.139985 0.000137127 -1.88307e-05)
(0.139452 0.000104046 -1.76066e-05)
(0.138775 7.42554e-05 -1.62575e-05)
(0.138309 4.49849e-05 -1.48022e-05)
(0.137671 1.87041e-05 -1.34261e-05)
(0.13727 -8.01834e-06 -1.24096e-05)
(0.136666 -3.14218e-05 -1.22025e-05)
(0.136329 -5.38731e-05 -1.29707e-05)
(0.13575 -6.94968e-05 -1.44542e-05)
(0.135471 -8.16756e-05 -1.60569e-05)
(0.134905 -8.584e-05 -1.7539e-05)
(0.134676 -8.77952e-05 -1.85304e-05)
(0.134107 -8.35587e-05 -1.8115e-05)
(0.13392 -8.1721e-05 -1.55421e-05)
(0.133333 -7.80155e-05 -1.11862e-05)
(0.133186 -8.06411e-05 -6.14981e-06)
(0.132575 -8.13471e-05 -1.63493e-06)
(0.132473 -8.84629e-05 1.86605e-06)
(0.13183 -9.19835e-05 3.82413e-06)
(0.131777 -0.000104543 3.64306e-06)
(0.131091 -0.000118639 1.15553e-06)
(0.196104 0.00445974 5.09036e-07)
(0.196135 0.00502098 1.46059e-06)
(0.196248 0.00558449 2.41318e-06)
(0.196465 0.00611259 3.39754e-06)
(0.196792 0.00656925 4.3638e-06)
(0.197202 0.00693801 5.1556e-06)
(0.197653 0.00722641 5.59473e-06)
(0.19811 0.00745471 5.60435e-06)
(0.198555 0.00763962 5.24881e-06)
(0.198986 0.00778616 4.65988e-06)
(0.199409 0.00788901 3.94059e-06)
(0.199828 0.00793923 3.12484e-06)
(0.200242 0.00792941 2.1981e-06)
(0.200639 0.0078557 1.1286e-06)
(0.201012 0.00771861 -1.1166e-07)
(0.201345 0.00752286 -1.53229e-06)
(0.201628 0.00727635 -3.12198e-06)
(0.201848 0.00698951 -4.85452e-06)
(0.202003 0.00667448 -6.68961e-06)
(0.202084 0.006344 -8.5783e-06)
(0.202096 0.00601066 -1.04708e-05)
(0.202037 0.00568649 -1.23122e-05)
(0.20192 0.00538152 -1.40368e-05)
(0.201746 0.00510258 -1.5584e-05)
(0.201533 0.00485315 -1.69158e-05)
(0.201282 0.00463399 -1.80152e-05)
(0.201009 0.0044436 -1.88746e-05)
(0.20071 0.00427855 -1.95039e-05)
(0.200401 0.00413454 -1.994e-05)
(0.200073 0.0040075 -2.02356e-05)
(0.19974 0.00389413 -2.04327e-05)
(0.199387 0.00379166 -2.05531e-05)
(0.199031 0.00369759 -2.06127e-05)
(0.198655 0.00360997 -2.06376e-05)
(0.198276 0.00352735 -2.06505e-05)
(0.197873 0.00344836 -2.06588e-05)
(0.197465 0.00337134 -2.06631e-05)
(0.197028 0.00329469 -2.06769e-05)
(0.196584 0.00321746 -2.07178e-05)
(0.196107 0.00313947 -2.0788e-05)
(0.195624 0.00306082 -2.08692e-05)
(0.195108 0.00298158 -2.09481e-05)
(0.194589 0.00290202 -2.10299e-05)
(0.194037 0.00282303 -2.11277e-05)
(0.193486 0.00274571 -2.1235e-05)
(0.192896 0.00267013 -2.13404e-05)
(0.192307 0.00259522 -2.14458e-05)
(0.191675 0.00251978 -2.15566e-05)
(0.191046 0.00244278 -2.16623e-05)
(0.190373 0.00236414 -2.17633e-05)
(0.189713 0.00228525 -2.18673e-05)
(0.189012 0.00220833 -2.19729e-05)
(0.188331 0.00213437 -2.20663e-05)
(0.187605 0.00206285 -2.21525e-05)
(0.1869 0.00199201 -2.2238e-05)
(0.18614 0.00192026 -2.23271e-05)
(0.185408 0.00184678 -2.24171e-05)
(0.18462 0.00177262 -2.25108e-05)
(0.183873 0.00169913 -2.25963e-05)
(0.183072 0.00162742 -2.26669e-05)
(0.18232 0.00155722 -2.2718e-05)
(0.181507 0.00148816 -2.27564e-05)
(0.18075 0.00141912 -2.27795e-05)
(0.179924 0.00134989 -2.279e-05)
(0.179164 0.00128021 -2.27807e-05)
(0.17833 0.00121067 -2.27488e-05)
(0.177576 0.00114151 -2.26826e-05)
(0.176744 0.00107339 -2.25782e-05)
(0.176005 0.00100626 -2.24233e-05)
(0.17518 0.000940336 -2.22173e-05)
(0.174462 0.000875309 -2.19489e-05)
(0.173646 0.000811241 -2.16207e-05)
(0.172953 0.000747865 -2.12213e-05)
(0.172148 0.000685553 -2.07544e-05)
(0.171483 0.000624257 -2.02039e-05)
(0.170694 0.000564456 -1.95738e-05)
(0.170064 0.000506291 -1.88419e-05)
(0.169293 0.000450189 -1.80063e-05)
(0.168705 0.000396197 -1.70357e-05)
(0.167955 0.00034463 -1.59197e-05)
(0.167413 0.000295625 -1.45946e-05)
(0.166682 0.000249057 -1.30239e-05)
(0.166187 0.000204705 -1.11468e-05)
(0.165474 0.000161705 -9.09639e-06)
(0.16503 0.000119196 -7.3052e-06)
(0.164334 7.67757e-05 -6.75208e-06)
(0.163947 3.67544e-05 -8.33457e-06)
(0.163267 2.94414e-06 -1.1945e-05)
(0.162937 -2.06553e-05 -1.62427e-05)
(0.162262 -3.36151e-05 -2.02012e-05)
(0.161982 -3.68737e-05 -2.32159e-05)
(0.161297 -3.45354e-05 -2.3775e-05)
(0.161061 -3.12199e-05 -2.06733e-05)
(0.160354 -3.13577e-05 -1.43343e-05)
(0.160166 -3.59383e-05 -6.83129e-06)
(0.159434 -4.38388e-05 -2.23732e-08)
(0.159303 -5.27744e-05 5.25207e-06)
(0.158535 -6.33616e-05 8.77306e-06)
(0.158463 -8.13293e-05 9.51921e-06)
(0.157646 -0.000119084 4.42832e-06)
(0.196644 0.00439973 3.45895e-07)
(0.196687 0.00486982 9.63313e-07)
(0.196785 0.00534598 1.55559e-06)
(0.196957 0.00580624 2.17583e-06)
(0.197213 0.00622404 2.85214e-06)
(0.197538 0.00657953 3.52202e-06)
(0.197913 0.00686664 4.04848e-06)
(0.198308 0.00709177 4.30842e-06)
(0.198707 0.00726555 4.27073e-06)
(0.199097 0.00739603 3.99516e-06)
(0.199481 0.00748494 3.58039e-06)
(0.199858 0.00752902 3.09584e-06)
(0.200232 0.00752414 2.55685e-06)
(0.200594 0.00746764 1.94083e-06)
(0.200943 0.00735951 1.2061e-06)
(0.201266 0.00720312 3.12857e-07)
(0.201559 0.0070048 -7.53198e-07)
(0.201809 0.0067722 -1.98096e-06)
(0.202016 0.00651404 -3.35126e-06)
(0.202169 0.00623995 -4.84296e-06)
(0.202275 0.00596009 -6.42519e-06)
(0.202328 0.00568393 -8.05112e-06)
(0.202342 0.00541963 -9.66076e-06)
(0.202312 0.00517305 -1.11962e-05)
(0.202256 0.00494811 -1.26128e-05)
(0.202171 0.00474659 -1.38741e-05)
(0.202075 0.00456847 -1.49461e-05)
(0.20196 0.00441164 -1.58137e-05)
(0.201846 0.00427331 -1.64938e-05)
(0.20172 0.00415038 -1.70229e-05)
(0.2016 0.00404025 -1.74288e-05)
(0.201469 0.00394017 -1.7724e-05)
(0.201346 0.00384802 -1.79245e-05)
(0.20121 0.0037621 -1.80609e-05)
(0.201084 0.00368171 -1.816e-05)
(0.200944 0.00360584 -1.82297e-05)
(0.200813 0.00353348 -1.82677e-05)
(0.200662 0.00346277 -1.82871e-05)
(0.20052 0.00339246 -1.83137e-05)
(0.200353 0.00332142 -1.83606e-05)
(0.200195 0.00324939 -1.84153e-05)
(0.200008 0.0031761 -1.84648e-05)
(0.199833 0.00310226 -1.85157e-05)
(0.199628 0.00302869 -1.85833e-05)
(0.199436 0.00295709 -1.86595e-05)
(0.199211 0.00288777 -1.87297e-05)
(0.199001 0.00282036 -1.87998e-05)
(0.198751 0.00275314 -1.88809e-05)
(0.198515 0.00268466 -1.8962e-05)
(0.198234 0.00261336 -1.90418e-05)
(0.197973 0.0025399 -1.91293e-05)
(0.197666 0.0024658 -1.92191e-05)
(0.197387 0.00239365 -1.92941e-05)
(0.197061 0.00232478 -1.93609e-05)
(0.196767 0.00225946 -1.94264e-05)
(0.196415 0.00219503 -1.94882e-05)
(0.196093 0.00212858 -1.95441e-05)
(0.195706 0.00205849 -1.9602e-05)
(0.195358 0.00198613 -1.96539e-05)
(0.194947 0.00191361 -1.96906e-05)
(0.194586 0.00184286 -1.9708e-05)
(0.194156 0.00177392 -1.97082e-05)
(0.193781 0.00170601 -1.96871e-05)
(0.193326 0.00163774 -1.96472e-05)
(0.192933 0.00156875 -1.9585e-05)
(0.192452 0.00149853 -1.9497e-05)
(0.192043 0.00142761 -1.93752e-05)
(0.191539 0.00135585 -1.92138e-05)
(0.191122 0.00128433 -1.90018e-05)
(0.190601 0.0012128 -1.87365e-05)
(0.190181 0.00114268 -1.84072e-05)
(0.189647 0.00107298 -1.80116e-05)
(0.189228 0.00100495 -1.75416e-05)
(0.188679 0.00093692 -1.6998e-05)
(0.18826 0.000870425 -1.63666e-05)
(0.187694 0.000803391 -1.56508e-05)
(0.187279 0.000738404 -1.48316e-05)
(0.186701 0.000673151 -1.39001e-05)
(0.186296 0.000611115 -1.28223e-05)
(0.185708 0.000549382 -1.15698e-05)
(0.185322 0.000492353 -1.00363e-05)
(0.184726 0.000435779 -8.08535e-06)
(0.184361 0.000384309 -5.46279e-06)
(0.183757 0.00033156 -2.01483e-06)
(0.183418 0.00028115 1.95521e-06)
(0.182807 0.000224741 4.84014e-06)
(0.182505 0.000170217 4.03062e-06)
(0.181894 0.00011692 -1.64029e-06)
(0.181633 8.02038e-05 -9.87495e-06)
(0.181015 5.5722e-05 -1.78646e-05)
(0.180786 5.07127e-05 -2.46563e-05)
(0.180141 5.03843e-05 -2.79607e-05)
(0.179937 5.70004e-05 -2.54877e-05)
(0.179258 5.30064e-05 -1.7004e-05)
(0.17909 4.89578e-05 -6.17828e-06)
(0.178382 3.38777e-05 3.54498e-06)
(0.178263 2.74169e-05 1.02772e-05)
(0.177517 1.20259e-05 1.47452e-05)
(0.177444 -2.56088e-06 1.75384e-05)
(0.176641 -7.35556e-05 1.00883e-05)
(0.197134 0.00434905 2.02778e-07)
(0.197186 0.00474692 5.40375e-07)
(0.197276 0.00514961 8.50729e-07)
(0.197417 0.00554236 1.19509e-06)
(0.197619 0.00590748 1.62576e-06)
(0.197875 0.00622879 2.13622e-06)
(0.198178 0.00649713 2.64918e-06)
(0.198506 0.0067111 3.05649e-06)
(0.198848 0.0068752 3.27499e-06)
(0.199189 0.00699552 3.29038e-06)
(0.199527 0.00707639 3.15338e-06)
(0.199857 0.00711837 2.93277e-06)
(0.200183 0.00712026 2.66849e-06)
(0.200497 0.00708083 2.36245e-06)
(0.200803 0.00700016 1.98724e-06)
(0.201087 0.00688001 1.49957e-06)
(0.201351 0.00672465 8.67662e-07)
(0.201581 0.00653938 8.15681e-08)
(0.201778 0.00633062 -8.64032e-07)
(0.201933 0.00610586 -1.96818e-06)
(0.202053 0.00587324 -3.20539e-06)
(0.20213 0.00563969 -4.53669e-06)
(0.202176 0.00541184 -5.92309e-06)
(0.202185 0.00519491 -7.31584e-06)
(0.202175 0.00499275 -8.66234e-06)
(0.202138 0.00480718 -9.92507e-06)
(0.202095 0.00463938 -1.10717e-05)
(0.202034 0.00448871 -1.2066e-05)
(0.201977 0.00435364 -1.28911e-05)
(0.201909 0.00423156 -1.35647e-05)
(0.20185 0.00412065 -1.41125e-05)
(0.201782 0.00401874 -1.45467e-05)
(0.201726 0.00392459 -1.48766e-05)
(0.20166 0.00383666 -1.51215e-05)
(0.201609 0.00375439 -1.53041e-05)
(0.201547 0.00367661 -1.54394e-05)
(0.201499 0.00360288 -1.55308e-05)
(0.201438 0.00353158 -1.55879e-05)
(0.201392 0.00346192 -1.56356e-05)
(0.20133 0.00339241 -1.56925e-05)
(0.201284 0.00332273 -1.57522e-05)
(0.201216 0.00325198 -1.58007e-05)
(0.201165 0.00318079 -1.58404e-05)
(0.201091 0.00310934 -1.58902e-05)
(0.201036 0.0030396 -1.5953e-05)
(0.200954 0.00297228 -1.60175e-05)
(0.200895 0.00290821 -1.60834e-05)
(0.200806 0.00284565 -1.61545e-05)
(0.20074 0.00278291 -1.62187e-05)
(0.200638 0.00271725 -1.62771e-05)
(0.20056 0.00264865 -1.63433e-05)
(0.200443 0.00257762 -1.64153e-05)
(0.200356 0.00250712 -1.64806e-05)
(0.200229 0.00243949 -1.6541e-05)
(0.200138 0.00237698 -1.65944e-05)
(0.200002 0.00231773 -1.66307e-05)
(0.1999 0.00225823 -1.66518e-05)
(0.199742 0.0021945 -1.66711e-05)
(0.199623 0.00212636 -1.66864e-05)
(0.199447 0.00205574 -1.66898e-05)
(0.199319 0.00198617 -1.66771e-05)
(0.199129 0.00191889 -1.66423e-05)
(0.198994 0.00185387 -1.65771e-05)
(0.198787 0.0017891 -1.64824e-05)
(0.19864 0.00172416 -1.63571e-05)
(0.198412 0.00165752 -1.61974e-05)
(0.198251 0.0015901 -1.59989e-05)
(0.198001 0.0015205 -1.57543e-05)
(0.197827 0.00145071 -1.54522e-05)
(0.197557 0.00137919 -1.50875e-05)
(0.197375 0.00130935 -1.46472e-05)
(0.197088 0.00123881 -1.4124e-05)
(0.196903 0.00117139 -1.35097e-05)
(0.196596 0.00110311 -1.28014e-05)
(0.196405 0.00103813 -1.19839e-05)
(0.196076 0.000970939 -1.10603e-05)
(0.195879 0.00090718 -1.00155e-05)
(0.195525 0.000840472 -8.84033e-06)
(0.195323 0.00077839 -7.50952e-06)
(0.194946 0.000713557 -5.99829e-06)
(0.194746 0.000655617 -4.19719e-06)
(0.194349 0.000595631 -1.91564e-06)
(0.194154 0.000544485 1.28838e-06)
(0.193736 0.000490757 6.0689e-06)
(0.193548 0.000443694 1.29578e-05)
(0.193111 0.000387687 2.08379e-05)
(0.192944 0.000331608 2.58724e-05)
(0.192505 0.00026478 2.48198e-05)
(0.192367 0.000208926 1.953e-05)
(0.191917 0.000156334 1.33714e-05)
(0.191793 0.000124409 6.79202e-06)
(0.191306 9.24743e-05 3.94775e-06)
(0.19118 7.2799e-05 8.67658e-06)
(0.19065 4.01147e-05 1.95549e-05)
(0.19054 1.97562e-05 3.04575e-05)
(0.189981 -9.04925e-06 3.66458e-05)
(0.189904 -1.1052e-05 3.6126e-05)
(0.189312 -1.34787e-05 3.15744e-05)
(0.189248 1.43891e-05 2.72287e-05)
(0.188589 -3.31366e-05 1.27957e-05)
(0.197579 0.00429546 7.92263e-08)
(0.197635 0.00463314 1.85635e-07)
(0.197718 0.00497292 2.76209e-07)
(0.197834 0.00530454 4.11408e-07)
(0.197994 0.00561646 6.41288e-07)
(0.198196 0.00589746 9.82838e-07)
(0.198436 0.00613922 1.40493e-06)
(0.198703 0.00633764 1.8343e-06)
(0.198988 0.00649314 2.18875e-06)
(0.199278 0.00660849 2.41668e-06)
(0.19957 0.0066873 2.5172e-06)
(0.199856 0.00673167 2.52894e-06)
(0.200139 0.00674224 2.49369e-06)
(0.200411 0.00671892 2.43219e-06)
(0.200675 0.00666207 2.34062e-06)
(0.200922 0.00657235 2.1863e-06)
(0.201154 0.00645246 1.91889e-06)
(0.201358 0.00630659 1.5022e-06)
(0.201538 0.0061401 9.2448e-07)
(0.201683 0.00595838 1.88984e-07)
(0.201801 0.00576723 -6.91579e-07)
(0.201883 0.00557175 -1.70631e-06)
(0.20194 0.0053777 -2.83744e-06)
(0.201965 0.0051898 -4.03157e-06)
(0.201973 0.00501154 -5.22092e-06)
(0.201957 0.00484422 -6.37176e-06)
(0.201935 0.00468936 -7.46607e-06)
(0.201897 0.00454711 -8.4591e-06)
(0.20186 0.00441694 -9.30801e-06)
(0.201813 0.00429689 -1.00184e-05)
(0.201774 0.00418604 -1.06197e-05)
(0.201726 0.0040829 -1.11208e-05)
(0.201689 0.00398679 -1.15148e-05)
(0.201644 0.00389607 -1.18058e-05)
(0.201611 0.00381017 -1.20228e-05)
(0.20157 0.00372815 -1.2201e-05)
(0.201542 0.00365029 -1.23478e-05)
(0.201505 0.0035754 -1.24505e-05)
(0.201483 0.00350286 -1.25161e-05)
(0.201449 0.0034309 -1.25725e-05)
(0.201431 0.00335926 -1.26352e-05)
(0.201397 0.00328704 -1.26924e-05)
(0.20138 0.00321495 -1.27338e-05)
(0.201345 0.00314281 -1.27762e-05)
(0.201327 0.00307232 -1.28342e-05)
(0.20129 0.00300401 -1.28967e-05)
(0.201274 0.00293903 -1.29514e-05)
(0.201237 0.00287583 -1.29988e-05)
(0.201221 0.00281313 -1.30433e-05)
(0.201182 0.0027484 -1.30907e-05)
(0.201165 0.00268147 -1.31434e-05)
(0.201119 0.00261202 -1.31941e-05)
(0.201098 0.00254212 -1.32385e-05)
(0.201046 0.00247391 -1.32777e-05)
(0.201025 0.00241034 -1.33064e-05)
(0.200972 0.00235117 -1.33165e-05)
(0.200951 0.00229365 -1.33126e-05)
(0.200892 0.00223319 -1.33001e-05)
(0.200866 0.00216795 -1.32755e-05)
(0.200795 0.002099 -1.32342e-05)
(0.200764 0.0020301 -1.31758e-05)
(0.200686 0.00196327 -1.30895e-05)
(0.200652 0.00189935 -1.29668e-05)
(0.200566 0.00183623 -1.28064e-05)
(0.200529 0.00177384 -1.26057e-05)
(0.200432 0.00170979 -1.23571e-05)
(0.200389 0.00164575 -1.20561e-05)
(0.200278 0.00157885 -1.16922e-05)
(0.200228 0.00151211 -1.12546e-05)
(0.200101 0.00144215 -1.07353e-05)
(0.200046 0.00137432 -1.01211e-05)
(0.199906 0.00130441 -9.39893e-06)
(0.199849 0.00123907 -8.55989e-06)
(0.199695 0.001172 -7.59329e-06)
(0.199636 0.00111051 -6.48542e-06)
(0.199466 0.00104579 -5.23631e-06)
(0.199402 0.000986782 -3.84438e-06)
(0.199211 0.000922988 -2.31441e-06)
(0.199141 0.000865812 -6.65412e-07)
(0.198928 0.000803492 1.0701e-06)
(0.198855 0.000749828 2.87614e-06)
(0.198621 0.000692284 4.78345e-06)
(0.198547 0.000646183 7.02565e-06)
(0.198293 0.000598802 1.041e-05)
(0.198216 0.000564458 1.66769e-05)
(0.197943 0.000525639 2.80851e-05)
(0.197872 0.000487388 4.5753e-05)
(0.197598 0.000426991 6.78196e-05)
(0.197551 0.000353744 9.0538e-05)
(0.197276 0.000253441 0.000111393)
(0.197234 0.000147682 0.000129952)
(0.196925 2.32528e-05 0.00014675)
(0.196868 -8.88985e-05 0.00015506)
(0.19652 -0.000198296 0.000149386)
(0.196471 -0.000267237 0.000130248)
(0.196108 -0.000321064 0.000102517)
(0.196082 -0.000327614 7.17009e-05)
(0.195703 -0.000309741 4.25379e-05)
(0.195657 -0.000209944 1.92226e-05)
(0.195192 -9.19972e-05 2.50706e-06)
(0.197981 0.00423554 -2.77214e-08)
(0.198039 0.00452292 -1.1518e-07)
(0.198112 0.00481002 -2.04727e-07)
(0.198207 0.00509011 -2.43432e-07)
(0.198334 0.00535561 -1.87216e-07)
(0.198492 0.00559886 -1.20496e-08)
(0.198681 0.00581353 2.76784e-07)
(0.198895 0.00599516 6.42759e-07)
(0.199128 0.0061421 1.03045e-06)
(0.199369 0.00625447 1.38616e-06)
(0.199616 0.00633403 1.67826e-06)
(0.199861 0.00638257 1.90994e-06)
(0.200104 0.00640144 2.10742e-06)
(0.200337 0.00639099 2.29263e-06)
(0.200564 0.006352 2.46817e-06)
(0.200777 0.0062852 2.60815e-06)
(0.200978 0.00619268 2.66156e-06)
(0.201158 0.00607762 2.58914e-06)
(0.201319 0.00594402 2.38024e-06)
(0.201453 0.00579544 2.01807e-06)
(0.201564 0.00563663 1.47121e-06)
(0.201645 0.00547249 7.33589e-07)
(0.201707 0.00530797 -1.55969e-07)
(0.201742 0.00514629 -1.13912e-06)
(0.20176 0.00499047 -2.16751e-06)
(0.201759 0.00484214 -3.20996e-06)
(0.20175 0.00470287 -4.23738e-06)