/*--------------------------------*- C++ -*----------------------------------*\
| =========                 |                                                 |
| \\      /  F ield         | OpenFOAM: The Open Source CFD Toolbox           |
|  \\    /   O peration     | Version:  2.3.0                                 |
|   \\  /    A nd           | Web:      www.OpenFOAM.org                      |
|    \\/     M anipulation  |                                                 |
\*---------------------------------------------------------------------------*/
FoamFile
{
    version     2.0;
    format      ascii;
    class       volScalarField;
    location    "0.3";
    object      p;
}
// * * * * * * * * * * * * * * * * * * * * * * * * * * * * * * * * * * * * * //

dimensions      [0 2 -2 0 0 0 0];

internalField   nonuniform List<scalar> 
2250
(
0.00164763
0.00160418
0.00140525
0.00117139
0.00097314
0.00082201
0.000702393
0.000594032
0.000483776
0.000366679
0.000242187
0.000111836
-2.12399e-05
-0.000152491
-0.000276541
-0.000388295
-0.000483635
-0.000559437
-0.000613271
-0.000644063
-0.000653128
-0.000644134
-0.000621903
-0.000591134
-0.000555718
-0.00051865
-0.000482202
-0.000448038
-0.000417217
-0.000390223
-0.000367102
-0.000347613
-0.000331323
-0.000317691
-0.00030618
-0.000296368
-0.000287924
-0.00028058
-0.000274121
-0.000268359
-0.000263073
-0.000258034
-0.000253069
-0.000248076
-0.000243013
-0.000237899
-0.00023278
-0.000227695
-0.00022265
-0.00021764
-0.000212636
-0.000207611
-0.000202529
-0.000197372
-0.000192112
-0.000186737
-0.000181222
-0.000175555
-0.000169709
-0.000163675
-0.00015743
-0.000150973
-0.000144286
-0.000137382
-0.00013026
-0.000122957
-0.00011549
-0.000107921
-0.000100285
-9.26632e-05
-8.50966e-05
-7.76741e-05
-7.04271e-05
-6.3443e-05
-5.67454e-05
-5.04248e-05
-4.44904e-05
-3.90261e-05
-3.40101e-05
-2.95124e-05
-2.54914e-05
-2.20524e-05
-1.92109e-05
-1.71896e-05
-1.60738e-05
-1.60721e-05
-1.70032e-05
-1.864e-05
-2.02649e-05
-2.12315e-05
-2.04626e-05
-1.74714e-05
-1.23764e-05
-6.47926e-06
-7.58455e-07
3.67753e-06
6.49936e-06
6.98116e-06
5.3127e-06
2.06544e-06
0.00134073
0.00131779
0.00121911
0.00107225
0.000918649
0.000781637
0.000664203
0.000558096
0.000453423
0.000344512
0.000229232
0.000107566
-1.77521e-05
-0.000141614
-0.000258304
-0.000363246
-0.000453403
-0.000526133
-0.000578839
-0.0006101
-0.000620912
-0.000614587
-0.000595565
-0.000568225
-0.000536222
-0.00050237
-0.000468791
-0.000437013
-0.000408109
-0.000382621
-0.000360662
-0.000342072
-0.000326489
-0.000313407
-0.000302313
-0.000292809
-0.000284599
-0.00027745
-0.000271166
-0.000265582
-0.000260482
-0.000255631
-0.000250851
-0.000246033
-0.000241129
-0.000236162
-0.000231179
-0.000226225
-0.000221305
-0.000216415
-0.000211523
-0.000206604
-0.000201622
-0.000196558
-0.000191386
-0.000186095
-0.000180658
-0.000175066
-0.000169291
-0.000163325
-0.000157144
-0.000150748
-0.000144116
-0.000137264
-0.000130189
-0.000122927
-0.000115494
-0.000107956
-0.000100343
-9.27404e-05
-8.51861e-05
-7.77736e-05
-7.05303e-05
-6.35474e-05
-5.68446e-05
-5.05172e-05
-4.4571e-05
-3.9096e-05
-3.40656e-05
-2.95548e-05
-2.55145e-05
-2.20538e-05
-1.91835e-05
-1.71403e-05
-1.60207e-05
-1.60599e-05
-1.70773e-05
-1.88367e-05
-2.05878e-05
-2.16624e-05
-2.09113e-05
-1.77869e-05
-1.24421e-05
-6.30317e-06
-4.09153e-07
4.12509e-06
6.97622e-06
7.42981e-06
5.57393e-06
2.02219e-06
0.0011424
0.00113096
0.00107996
0.000988241
0.000872538
0.000751784
0.000637028
0.000530499
0.000428416
0.000325809
0.000219544
0.000108877
-4.14989e-06
-0.000115263
-0.000219985
-0.000314987
-0.000397676
-0.000465473
-0.000516176
-0.000548881
-0.000564419
-0.000565054
-0.000553855
-0.000534103
-0.000508853
-0.000480741
-0.000452003
-0.00042437
-0.000398812
-0.0003758
-0.000355514
-0.000337932
-0.000322874
-0.000310037
-0.000299056
-0.000289613
-0.00028143
-0.000274237
-0.000267858
-0.000262176
-0.000257011
-0.00025214
-0.000247379
-0.000242613
-0.000237787
-0.000232923
-0.000228067
-0.000223259
-0.000218499
-0.000213778
-0.000209058
-0.00020431
-0.000199494
-0.000194592
-0.000189574
-0.000184431
-0.000179134
-0.000173676
-0.000168027
-0.000162182
-0.000156114
-0.000149826
-0.000143294
-0.000136538
-0.00012955
-0.00012237
-0.00011501
-0.000107538
-9.99825e-05
-9.24325e-05
-8.49205e-05
-7.75465e-05
-7.03323e-05
-6.33755e-05
-5.66896e-05
-5.03763e-05
-4.44337e-05
-3.89593e-05
-3.3917e-05
-2.93875e-05
-2.53079e-05
-2.17923e-05
-1.88432e-05
-1.67277e-05
-1.55787e-05
-1.57051e-05
-1.69462e-05
-1.90397e-05
-2.11559e-05
-2.25736e-05
-2.19769e-05
-1.86062e-05
-1.26716e-05
-5.89704e-06
4.8049e-07
5.31506e-06
8.29884e-06
8.68764e-06
6.42405e-06
2.20437e-06
0.000998781
0.000990584
0.000957905
0.000895723
0.00080858
0.000706775
0.000601044
0.000498451
0.000400388
0.000304385
0.000207814
0.000109599
1.03755e-05
-8.73482e-05
-0.000179953
-0.000264283
-0.000338222
-0.000400057
-0.000448147
-0.000481585
-0.000500763
-0.000507148
-0.000502795
-0.000490121
-0.000471716
-0.000450015
-0.000427024
-0.000404183
-0.000382404
-0.000362279
-0.00034415
-0.000328097
-0.000314041
-0.000301848
-0.000291313
-0.000282182
-0.00027421
-0.000267188
-0.00026094
-0.000255326
-0.000250197
-0.000245399
-0.000240778
-0.000236209
-0.000231617
-0.000227002
-0.000222393
-0.000217819
-0.000213278
-0.000208764
-0.00020424
-0.000199686
-0.000195063
-0.000190355
-0.000185532
-0.000180581
-0.000175471
-0.000170197
-0.000164729
-0.000159066
-0.000153178
-0.000147071
-0.000140722
-0.000134153
-0.000127353
-0.000120362
-0.000113187
-0.000105897
-9.85147e-05
-9.11308e-05
-8.37718e-05
-7.65394e-05
-6.94519e-05
-6.26095e-05
-5.60207e-05
-4.97884e-05
-4.39057e-05
-3.84723e-05
-3.34452e-05
-2.89035e-05
-2.47719e-05
-2.1155e-05
-1.80478e-05
-1.57484e-05
-1.44808e-05
-1.47089e-05
-1.63838e-05
-1.91979e-05
-2.21664e-05
-2.44189e-05
-2.43266e-05
-2.06146e-05
-1.35619e-05
-5.43857e-06
2.03129e-06
7.61072e-06
1.09889e-05
1.13845e-05
8.42499e-06
2.88566e-06
0.000877103
0.000868267
0.000842895
0.000796309
0.000728985
0.000646082
0.000554528
0.000461135
0.000370229
0.000282399
0.000196065
0.000109719
2.30379e-05
-6.23088e-05
-0.00014312
-0.000216798
-0.000282289
-0.00033868
-0.000384227
-0.000417519
-0.000438712
-0.000449133
-0.000450319
-0.000443881
-0.000431754
-0.000415991
-0.00039829
-0.000379874
-0.000361681
-0.000344477
-0.000328712
-0.00031446
-0.000301661
-0.000290344
-0.000280475
-0.000271825
-0.00026415
-0.000257329
-0.000251238
-0.000245725
-0.000240671
-0.000235977
-0.000231498
-0.000227095
-0.000222696
-0.000218298
-0.000213902
-0.000209533
-0.000205193
-0.00020088
-0.00019656
-0.000192217
-0.000187813
-0.000183333
-0.000178742
-0.000174029
-0.000169159
-0.000164129
-0.00015891
-0.000153503
-0.000147877
-0.000142038
-0.000135965
-0.000129683
-0.000123178
-0.00011649
-0.000109617
-0.000102629
-9.55441e-05
-8.84488e-05
-8.13642e-05
-7.43881e-05
-6.75392e-05
-6.09155e-05
-5.45231e-05
-4.8459e-05
-4.2714e-05
-3.7382e-05
-3.24162e-05
-2.78824e-05
-2.36911e-05
-1.99114e-05
-1.65113e-05
-1.37936e-05
-1.21255e-05
-1.22807e-05
-1.45774e-05
-1.87713e-05
-2.36042e-05
-2.7828e-05
-2.91778e-05
-2.52531e-05
-1.62857e-05
-5.53835e-06
4.23497e-06
1.14997e-05
1.5925e-05
1.6759e-05
1.29789e-05
4.81694e-06
0.000767527
0.000756907
0.000734687
0.00069743
0.000644544
0.000578273
0.00050233
0.000421543
0.000340742
0.000262216
0.000185466
0.000109348
3.37968e-05
-3.98341e-05
-0.00010952
-0.000173851
-0.000232218
-0.000283578
-0.000326033
-0.000358213
-0.000380379
-0.000393757
-0.000399365
-0.000398031
-0.000391101
-0.000380385
-0.000367413
-0.000353182
-0.000338515
-0.000324228
-0.000310852
-0.000298481
-0.000287087
-0.00027682
-0.000267745
-0.000259631
-0.000252281
-0.000245711
-0.00023985
-0.000234492
-0.000229521
-0.0002249
-0.000220506
-0.000216208
-0.000211956
-0.000207746
-0.000203556
-0.000199393
-0.000195257
-0.000191145
-0.000187023
-0.000182878
-0.000178681
-0.000174416
-0.000170049
-0.00016557
-0.000160945
-0.000156167
-0.000151212
-0.000146081
-0.000140743
-0.000135203
-0.000129444
-0.000123491
-0.000117333
-0.000111004
-0.0001045
-9.78838e-05
-9.11728e-05
-8.44456e-05
-7.77184e-05
-7.10783e-05
-6.45474e-05
-5.82159e-05
-5.20893e-05
-4.62532e-05
-4.07001e-05
-3.55106e-05
-3.06372e-05
-2.61223e-05
-2.1858e-05
-1.78423e-05
-1.39586e-05
-1.04096e-05
-7.6612e-06
-6.97295e-06
-9.58354e-06
-1.58782e-05
-2.42966e-05
-3.26891e-05
-3.75845e-05
-3.44099e-05
-2.2767e-05
-7.44834e-06
6.71021e-06
1.73093e-05
2.39135e-05
2.61424e-05
2.23068e-05
9.54775e-06
0.000666896
0.000654753
0.00063448
0.00060379
0.000561937
0.000509545
0.000448226
0.000380876
0.000311392
0.000242646
0.000175242
0.000108781
4.33936e-05
-2.01342e-05
-8.07022e-05
-0.00013723
-0.000188914
-0.000234877
-0.00027376
-0.000304425
-0.000326906
-0.000342098
-0.000350698
-0.000353122
-0.000350328
-0.000343897
-0.000335135
-0.000324734
-0.000313348
-0.000301849
-0.000290836
-0.000280379
-0.000270452
-0.000261313
-0.000253128
-0.000245685
-0.00023881
-0.000232605
-0.000227038
-0.000221874
-0.000217022
-0.000212509
-0.00020823
-0.000204056
-0.000199962
-0.000195947
-0.000191966
-0.000188009
-0.000184076
-0.000180161
-0.000176233
-0.000172283
-0.000168287
-0.000164228
-0.000160075
-0.000155818
-0.000151427
-0.000146895
-0.000142201
-0.000137345
-0.000132297
-0.000127064
-0.000121631
-0.000116021
-0.000110223
-0.000104269
-9.81567e-05
-9.19336e-05
-8.56213e-05
-7.92875e-05
-7.29445e-05
-6.66652e-05
-6.04758e-05
-5.44555e-05
-4.86099e-05
-4.30107e-05
-3.76544e-05
-3.26067e-05
-2.78223e-05
-2.33203e-05
-1.89755e-05
-1.46936e-05
-1.02035e-05
-5.42292e-06
-6.4511e-07
2.48286e-06
1.18658e-06
-6.68845e-06
-1.95406e-05
-3.36736e-05
-4.42909e-05
-4.36008e-05
-2.90794e-05
-7.5381e-06
1.25972e-05
2.7139e-05
3.55521e-05
3.8727e-05
3.58417e-05
1.70782e-05
0.000574057
0.000561311
0.000543012
0.000517561
0.00048424
0.000442938
0.000394116
0.000339258
0.000281131
0.000222509
0.000164576
0.000107206
5.03968e-05
-5.04103e-06
-5.77689e-05
-0.000106706
-0.000151585
-0.000192285
-0.000227797
-0.000256738
-0.000278729
-0.000294518
-0.000304837
-0.00030994
-0.000310372
-0.000307366
-0.000302033
-0.000294873
-0.000286389
-0.000277438
-0.000268634
-0.000260023
-0.000251594
-0.000243685
-0.000236526
-0.000229899
-0.000223636
-0.000217907
-0.00021273
-0.000207876
-0.000203268
-0.000198975
-0.000194908
-0.000190943
-0.000187067
-0.000183288
-0.000179547
-0.000175825
-0.000172124
-0.000168438
-0.000164735
-0.000161009
-0.000157242
-0.000153414
-0.000149495
-0.000145479
-0.000141341
-0.000137073
-0.000132658
-0.000128092
-0.000123346
-0.000118429
-0.000113332
-0.000108067
-0.000102627
-9.70413e-05
-9.13078e-05
-8.54622e-05
-7.95266e-05
-7.35581e-05
-6.75663e-05
-6.16097e-05
-5.57172e-05
-4.99543e-05
-4.43274e-05
-3.88961e-05
-3.36642e-05
-2.86857e-05
-2.39281e-05
-1.94036e-05
-1.50025e-05
-1.05844e-05
-5.76187e-06
-8.64414e-08
6.73526e-06
1.35127e-05
1.67528e-05
1.25268e-05
1.6205e-06
-1.20646e-05
-2.37759e-05
-2.32032e-05
-7.45823e-06
1.37371e-05
3.04257e-05
3.95851e-05
4.28328e-05
4.28482e-05
4.06767e-05
1.95271e-05
0.000488313
0.000475811
0.000459691
0.000438663
0.000412116
0.000379678
0.000341207
0.000297311
0.00024978
0.000200874
0.000151856
0.000102761
5.37707e-05
6.06833e-06
-3.89638e-05
-8.0847e-05
-0.000119876
-0.000155949
-0.000187929
-0.000214498
-0.000235344
-0.00025112
-0.000262428
-0.000269345
-0.000272117
-0.000271692
-0.000269037
-0.000264516
-0.000258462
-0.00025166
-0.000244765
-0.000237822
-0.000230784
-0.000224011
-0.000217797
-0.000211953
-0.00020632
-0.000201107
-0.000196371
-0.000191886
-0.000187586
-0.000183568
-0.000179761
-0.00017604
-0.000172403
-0.000168866
-0.000165373
-0.000161895
-0.000158434
-0.000154985
-0.000151517
-0.000148024
-0.000144494
-0.000140906
-0.000137232
-0.000133469
-0.000129595
-0.0001256
-0.000121473
-0.000117205
-0.000112771
-0.000108181
-0.00010343
-9.85195e-05
-9.34436e-05
-8.82294e-05
-8.2877e-05
-7.74098e-05
-7.18492e-05
-6.62396e-05
-6.05892e-05
-5.49433e-05
-4.93313e-05
-4.38028e-05
-3.83673e-05
-3.30742e-05
-2.79402e-05
-2.30146e-05
-1.82961e-05
-1.38256e-05
-9.57971e-06
-5.52019e-06
-1.40773e-06
3.25532e-06
9.41743e-06
1.79966e-05
2.89549e-05
4.0597e-05
5.10661e-05
5.92578e-05
6.59037e-05
6.94385e-05
6.63781e-05
5.53145e-05
3.96747e-05
2.39192e-05
1.14544e-05
4.02757e-06
3.40404e-06
1.93585e-06
0.00040883
0.000397169
0.000383376
0.00036623
0.000345202
0.000319864
0.000289785
0.000255067
0.000216854
0.000176914
0.000136453
9.56905e-05
5.4798e-05
1.46383e-05
-2.36779e-05
-5.95493e-05
-9.29854e-05
-0.000123991
-0.000151928
-0.000175806
-0.000195213
-0.000210584
-0.000222418
-0.000230685
-0.000235347
-0.000237046
-0.000236628
-0.000234428
-0.00023063
-0.000225852
-0.000220737
-0.000215382
-0.000209709
-0.000204058
-0.000198805
-0.000193815
-0.000188899
-0.000184271
-0.000180047
-0.000176017
-0.00017211
-0.000168439
-0.000164963
-0.000161567
-0.000158249
-0.000155027
-0.000151851
-0.000148687
-0.000145537
-0.000142395
-0.000139233
-0.000136043
-0.000132816
-0.00012953
-0.000126162
-0.000122706
-0.000119146
-0.000115471
-0.000111668
-0.000107728
-0.000103631
-9.9384e-05
-9.49822e-05
-9.04205e-05
-8.56968e-05
-8.08325e-05
-7.5826e-05
-7.06929e-05
-6.54541e-05
-6.01407e-05
-5.47598e-05
-4.93482e-05
-4.39338e-05
-3.8553e-05
-3.322e-05
-2.79818e-05
-2.28692e-05
-1.79367e-05
-1.32241e-05
-8.82752e-06
-4.85493e-06
-1.49479e-06
1.08898e-06
2.95386e-06
5.30021e-06
1.19757e-05
3.00916e-05
6.52379e-05
0.000113858
0.000166098
0.000209198
0.000219903
0.000187229
0.000126714
6.24171e-05
8.88635e-06
-2.91805e-05
-5.19166e-05
-5.83687e-05
-2.96174e-05
0.000351612
0.000340942
0.000328536
0.000313627
0.000295833
0.000274778
0.000249962
0.00022127
0.000189502
0.000156107
0.000122188
8.7955e-05
5.33665e-05
1.90266e-05
-1.38983e-05
-4.4578e-05
-7.30329e-05
-9.95597e-05
-0.000123851
-0.000145043
-0.000162653
-0.000176965
-0.00018838
-0.000196841
-0.000202221
-0.000204968
-0.000205811
-0.000205054
-0.000202758
-0.000199355
-0.000195479
-0.000191319
-0.000186754
-0.000182019
-0.000177533
-0.000173253
-0.000168956
-0.000164816
-0.000161007
-0.000157372
-0.000153813
-0.000150444
-0.000147256
-0.000144146
-0.000141103
-0.000138152
-0.000135254
-0.000132373
-0.000129507
-0.000126653
-0.000123788
-0.0001209
-0.00011798
-0.000115015
-0.000111983
-0.000108876
-0.000105679
-0.000102384
-9.89792e-05
-9.54562e-05
-9.18032e-05
-8.80223e-05
-8.41023e-05
-8.00403e-05
-7.58407e-05
-7.15178e-05
-6.70659e-05
-6.24976e-05
-5.78304e-05
-5.30857e-05
-4.82694e-05
-4.34111e-05
-3.85321e-05
-3.3657e-05
-2.88003e-05
-2.40018e-05
-1.92909e-05
-1.47139e-05
-1.03167e-05
-6.19562e-06
-2.47582e-06
6.30968e-07
2.89403e-06
4.29438e-06
6.00991e-06
1.22782e-05
3.14397e-05
7.06168e-05
0.00012626
0.000185783
0.00023466
0.000248163
0.00021187
0.000141024
6.39258e-05
-2.31949e-07
-4.49516e-05
-7.05429e-05
-7.63102e-05
-3.80214e-05
0.000309004
0.000299209
0.00028778
0.000274275
0.00025857
0.000240431
0.000219314
0.000194892
0.000167707
0.000139065
0.000110054
8.08375e-05
5.11981e-05
2.15724e-05
-6.89498e-06
-3.33318e-05
-5.77737e-05
-8.06507e-05
-0.000101872
-0.000120719
-0.000136626
-0.000149717
-0.000160396
-0.000168692
-0.00017441
-0.000177791
-0.000179449
-0.00017969
-0.000178486
-0.000176108
-0.000173196
-0.000170022
-0.000166389
-0.000162415
-0.000158574
-0.000154917
-0.000151182
-0.000147486
-0.000144069
-0.000140819
-0.000137604
-0.000134525
-0.000131619
-0.000128788
-0.000126005
-0.000123305
-0.000120664
-0.000118043
-0.000115437
-0.000112846
-0.000110247
-0.000107628
-0.000104981
-0.000102298
-9.95646e-05
-9.67665e-05
-9.38911e-05
-9.09328e-05
-8.78813e-05
-8.47297e-05
-8.14752e-05
-7.81162e-05
-7.46366e-05
-7.10368e-05
-6.73283e-05
-6.3521e-05
-5.96094e-05
-5.56057e-05
-5.15252e-05
-4.73822e-05
-4.31867e-05
-3.89646e-05
-3.47306e-05
-3.0499e-05
-2.62834e-05
-2.21121e-05
-1.80005e-05
-1.39673e-05
-1.00267e-05
-6.209e-06
-2.53093e-06
1.00594e-06
4.51016e-06
8.38889e-06
1.37563e-05
2.27962e-05
3.81821e-05
6.05388e-05
8.6236e-05
0.000109169
0.000121957
0.000113303
8.04306e-05
3.52025e-05
-7.1181e-06
-3.85173e-05
-5.72705e-05
-6.33375e-05
-5.46315e-05
-2.28109e-05
0.000265377
0.0002567
0.000246482
0.000234419
0.000220752
0.000205508
0.000188073
0.000167799
0.000144964
0.000120866
9.67054e-05
7.25978e-05
4.80482e-05
2.31598e-05
-1.01038e-06
-2.33739e-05
-4.38394e-05
-6.30872e-05
-8.13554e-05
-9.79513e-05
-0.000112079
-0.000123789
-0.000133667
-0.000141802
-0.000147781
-0.000151609
-0.000153872
-0.000154965
-0.000154772
-0.000153354
-0.000151336
-0.000149117
-0.000146431
-0.000143234
-0.000140062
-0.000137093
-0.000134003
-0.000130821
-0.000127863
-0.000125085
-0.000122295
-0.000119574
-0.00011702
-0.000114541
-0.000112083
-0.000109694
-0.000107368
-0.00010506
-0.000102764
-0.000100484
-9.81985e-05
-9.58934e-05
-9.35625e-05
-9.12022e-05
-8.88036e-05
-8.63519e-05
-8.38346e-05
-8.12464e-05
-7.85781e-05
-7.58256e-05
-7.29933e-05
-7.00779e-05
-6.70617e-05
-6.39454e-05
-6.07417e-05
-5.74588e-05
-5.40991e-05
-5.06733e-05
-4.71867e-05
-4.3648e-05
-4.0079e-05
-3.65045e-05
-3.29274e-05
-2.9351e-05
-2.57906e-05
-2.22653e-05
-1.87733e-05
-1.53017e-05
-1.18296e-05
-8.31363e-06
-4.65368e-06
-6.43633e-07
4.0979e-06
1.01361e-05
1.79238e-05
2.66669e-05
3.3026e-05
3.25869e-05
2.42533e-05
9.71879e-06
-1.08065e-05
-3.04714e-05
-3.94599e-05
-3.74019e-05
-3.06524e-05
-2.36743e-05
-1.69926e-05
-9.04149e-06
1.10034e-06
3.27366e-06
0.000220614
0.000213351
0.000204644
0.00019417
0.000182517
0.000170091
0.000156278
0.000140084
0.00012146
0.000101692
8.21818e-05
6.30575e-05
4.34718e-05
2.31423e-05
3.11042e-06
-1.5265e-05
-3.18333e-05
-4.75472e-05
-6.28703e-05
-7.70826e-05
-8.92579e-05
-9.94107e-05
-0.000108219
-0.000115793
-0.000121547
-0.000125334
-0.000127774
-0.000129342
-0.000129857
-0.000129158
-0.000127773
-0.000126275
-0.000124431
-0.00012195
-0.000119333
-0.000116981
-0.000114541
-0.000111857
-0.000109318
-0.000107007
-0.000104657
-0.000102296
-0.000100094
-9.79773e-05
-9.5852e-05
-9.37747e-05
-9.17696e-05
-8.97838e-05
-8.78005e-05
-8.58338e-05
-8.38713e-05
-8.18903e-05
-7.98857e-05
-7.78636e-05
-7.58151e-05
-7.37224e-05
-7.15815e-05
-6.93869e-05
-6.71223e-05
-6.47908e-05
-6.24068e-05
-5.99599e-05
-5.74326e-05
-5.48319e-05
-5.21625e-05
-4.94248e-05
-4.66407e-05
-4.38271e-05
-4.09659e-05
-3.80528e-05
-3.51301e-05
-3.22296e-05
-2.93353e-05
-2.64366e-05
-2.35563e-05
-2.07133e-05
-1.78917e-05
-1.50596e-05
-1.21832e-05
-9.1971e-06
-5.97491e-06
-2.30546e-06
2.07805e-06
7.31551e-06
1.28535e-05
1.64407e-05
1.38213e-05
1.3226e-06
-2.02751e-05
-4.67625e-05
-7.33882e-05
-8.90182e-05
-8.38308e-05
-6.11491e-05
-3.26861e-05
-7.50856e-06
1.1319e-05
2.37751e-05
2.83512e-05
1.47062e-05
0.000174637
0.000169017
0.000162136
0.000153506
0.000143903
0.000134158
0.000123828
0.000111647
9.71673e-05
8.15311e-05
6.63307e-05
5.18524e-05
3.70546e-05
2.12957e-05
5.41745e-06
-9.13973e-06
-2.20105e-05
-3.41552e-05
-4.6327e-05
-5.79883e-05
-6.80823e-05
-7.63701e-05
-8.35373e-05
-8.99577e-05
-9.50642e-05
-9.84613e-05
-0.000100711
-0.000102396
-0.000103323
-0.00010315
-0.000102233
-0.000101262
-0.000100168
-9.84209e-05
-9.6333e-05
-9.45593e-05
-9.28196e-05
-9.07054e-05
-8.86242e-05
-8.68386e-05
-8.50114e-05
-8.3078e-05
-8.12881e-05
-7.96088e-05
-7.7894e-05
-7.61903e-05
-7.45603e-05
-7.29614e-05
-7.13542e-05
-6.97555e-05
-6.81758e-05
-6.65802e-05
-6.4951e-05
-6.33173e-05
-6.1674e-05
-5.99864e-05
-5.82657e-05
-5.65157e-05
-5.46974e-05
-5.28187e-05
-5.09164e-05
-4.89678e-05
-4.69488e-05
-4.48856e-05
-4.27739e-05
-4.05886e-05
-3.83702e-05
-3.61615e-05
-3.39203e-05
-3.16138e-05
-2.93029e-05
-2.70396e-05
-2.47903e-05
-2.2525e-05
-2.02739e-05
-1.80664e-05
-1.58825e-05
-1.36859e-05
-1.1454e-05
-9.15312e-06
-6.71788e-06
-4.08726e-06
-1.30057e-06
1.29443e-06
2.71911e-06
1.17322e-06
-5.39908e-06
-1.78151e-05
-3.46416e-05
-5.28713e-05
-6.80215e-05
-7.30359e-05
-6.38906e-05
-4.38923e-05
-2.04352e-05
5.42219e-07
1.61048e-05
2.46536e-05
2.39401e-05
1.08812e-05
0.000127288
0.000123391
0.000118559
0.000112106
0.000104743
9.75589e-05
9.04286e-05
8.20627e-05
7.17026e-05
6.01866e-05
4.9093e-05
3.89374e-05
2.87223e-05
1.7522e-05
5.85268e-06
-4.90566e-06
-1.41541e-05
-2.27559e-05
-3.16767e-05
-4.05125e-05
-4.81309e-05
-5.41795e-05
-5.93543e-05
-6.4255e-05
-6.84073e-05
-7.11557e-05
-7.29101e-05
-7.4374e-05
-7.54179e-05
-7.55772e-05
-7.50083e-05
-7.44082e-05
-7.39114e-05
-7.28704e-05
-7.13236e-05
-7.00798e-05
-6.90282e-05
-6.7544e-05
-6.596e-05
-6.47136e-05
-6.3457e-05
-6.20168e-05
-6.06796e-05
-5.94688e-05
-5.82168e-05
-5.69439e-05
-5.57275e-05
-5.45508e-05
-5.336e-05
-5.21585e-05
-5.09876e-05
-4.98148e-05
-4.8594e-05
-4.73713e-05
-4.6159e-05
-4.48997e-05
-4.3613e-05
-4.23276e-05
-4.09839e-05
-3.95785e-05
-3.81736e-05
-3.67422e-05
-3.52423e-05
-3.37218e-05
-3.21846e-05
-3.05728e-05
-2.89245e-05
-2.73158e-05
-2.56995e-05
-2.40093e-05
-2.23051e-05
-2.06621e-05
-1.9045e-05
-1.74042e-05
-1.57679e-05
-1.41771e-05
-1.2616e-05
-1.10529e-05
-9.48403e-06
-7.91812e-06
-6.36632e-06
-4.89374e-06
-3.70487e-06
-3.23675e-06
-4.17351e-06
-7.26323e-06
-1.28387e-05
-2.03936e-05
-2.86717e-05
-3.59592e-05
-3.98725e-05
-3.76865e-05
-2.89438e-05
-1.62539e-05
-3.29983e-06
7.23983e-06
1.39353e-05
1.57828e-05
1.21837e-05
4.44302e-06
7.82183e-05
7.59788e-05
7.32052e-05
6.92041e-05
6.44319e-05
5.98643e-05
5.5643e-05
5.08135e-05
4.46015e-05
3.74451e-05
3.05343e-05
2.44341e-05
1.84572e-05
1.17482e-05
4.52072e-06
-2.22407e-06
-7.91182e-06
-1.30686e-05
-1.84963e-05
-2.4027e-05
-2.88227e-05
-3.25528e-05
-3.5704e-05
-3.88129e-05
-4.15842e-05
-4.33959e-05
-4.44721e-05
-4.54366e-05
-4.62579e-05
-4.65284e-05
-4.62357e-05
-4.58859e-05
-4.57315e-05
-4.52546e-05
-4.42858e-05
-4.35109e-05
-4.29976e-05
-4.21435e-05
-4.11185e-05
-4.03728e-05
-3.96561e-05
-3.87627e-05
-3.79241e-05
-3.71908e-05
-3.64251e-05
-3.56293e-05
-3.48667e-05
-3.41417e-05
-3.34089e-05
-3.26515e-05
-3.19182e-05
-3.11983e-05
-3.04346e-05
-2.9666e-05
-2.89213e-05
-2.814e-05
-2.73315e-05
-2.65403e-05
-2.57135e-05
-2.4833e-05
-2.39636e-05
-2.30894e-05
-2.21591e-05
-2.12171e-05
-2.02827e-05
-1.92915e-05
-1.82599e-05
-1.72697e-05
-1.62943e-05
-1.52595e-05
-1.42009e-05
-1.31913e-05
-1.22112e-05
-1.12092e-05
-1.02022e-05
-9.23007e-06
-8.28641e-06
-7.34875e-06
-6.4213e-06
-5.53354e-06
-4.72268e-06
-4.07347e-06
-3.75312e-06
-4.016e-06
-5.13513e-06
-7.25352e-06
-1.02209e-05
-1.3535e-05
-1.64658e-05
-1.81772e-05
-1.77987e-05
-1.474e-05
-9.45083e-06
-3.28699e-06
2.21067e-06
5.93665e-06
7.547e-06
6.89588e-06
4.35334e-06
1.22281e-06
2.65807e-05
2.5862e-05
2.49797e-05
2.36218e-05
2.19388e-05
2.03324e-05
1.89223e-05
1.73593e-05
1.52938e-05
1.28429e-05
1.04584e-05
8.39808e-06
6.43137e-06
4.19567e-06
1.71567e-06
-6.28869e-07
-2.56707e-06
-4.26582e-06
-6.06813e-06
-7.96608e-06
-9.64342e-06
-1.09337e-05
-1.19975e-05
-1.30674e-05
-1.40532e-05
-1.46836e-05
-1.50305e-05
-1.5366e-05
-1.56873e-05
-1.58203e-05
-1.57369e-05
-1.56176e-05
-1.55886e-05
-1.54616e-05
-1.51284e-05
-1.48548e-05
-1.47048e-05
-1.4426e-05
-1.40627e-05
-1.38136e-05
-1.3583e-05
-1.32724e-05
-1.29795e-05
-1.27345e-05
-1.24779e-05
-1.22043e-05
-1.19384e-05
-1.16883e-05
-1.14391e-05
-1.11786e-05
-1.09263e-05
-1.06826e-05
-1.042e-05
-1.0152e-05
-9.89717e-06
-9.63047e-06
-9.35149e-06
-9.08309e-06
-8.80427e-06
-8.5017e-06
-8.20346e-06
-7.90766e-06
-7.58999e-06
-7.26798e-06
-6.9547e-06
-6.6219e-06
-6.26878e-06
-5.93136e-06
-5.6047e-06
-5.25578e-06
-4.89444e-06
-4.55155e-06
-4.22297e-06
-3.88676e-06
-3.54591e-06
-3.21774e-06
-2.90209e-06
-2.59138e-06
-2.28734e-06
-2.00675e-06
-1.76349e-06
-1.59473e-06
-1.55394e-06
-1.70956e-06
-2.13121e-06
-2.81458e-06
-3.6804e-06
-4.54899e-06
-5.18467e-06
-5.35579e-06
-4.87437e-06
-3.6726e-06
-1.93682e-06
3.92936e-08
1.78871e-06
2.40995e-06
2.43959e-06
1.90186e-06
1.06977e-06
2.64698e-07
0.00012528
0.000121168
0.000125842
0.000134527
0.000148176
0.000163087
0.000180957
0.000199831
0.000222756
0.000246811
0.000275423
0.000306311
0.000342731
0.000381452
0.000426568
0.000475705
0.000533753
0.00059745
0.000672967
0.000759513
0.000865577
0.000989669
0.00114061
0.00131256
0.00150065
0.000123504
0.000120957
0.00012558
0.000134194
0.000147226
0.000161986
0.000179395
0.000198434
0.000220838
0.000245159
0.000273054
0.00030416
0.000339639
0.000378565
0.000422407
0.000471682
0.000527878
0.00059127
0.00066353
0.00074746
0.000844691
0.000955825
0.00107675
0.0011994
0.00129791
0.000121156
0.000120485
0.000124974
0.000133405
0.000145618
0.000160222
0.000177118
0.000196205
0.000218132
0.000242439
0.00026969
0.000300556
0.0003352
0.000373633
0.000416351
0.0004646
0.000518874
0.000579912
0.000648005
0.000725139
0.000810515
0.000901652
0.000991856
0.00107171
0.00112471
0.00011844
0.000119182
0.000123778
0.000131922
0.000143436
0.000157646
0.000174098
0.000192951
0.000214454
0.000238419
0.000265077
0.000295279
0.000329045
0.000366385
0.000407728
0.000454099
0.000505791
0.000562887
0.00062515
0.000692867
0.000764491
0.000836045
0.000901793
0.000954939
0.00098869
0.000115264
0.000116959
0.000121742
0.000129617
0.000140543
0.000154204
0.000170153
0.000188551
0.000209542
0.000232919
0.000258828
0.000288073
0.000320687
0.000356495
0.00039594
0.000439699
0.000487789
0.000539673
0.000594626
0.000652137
0.000710474
0.000765879
0.000813995
0.000851058
0.000873062
0.00011153
0.000113758
0.000118681
0.000126318
0.00013673
0.00014976
0.000165092
0.000182838
0.000203121
0.000225689
0.000250632
0.000278626
0.000309712
0.000343545
0.000380465
0.00042088
0.000464462
0.000510307
0.000557489
0.000605242
0.000651979
0.000694628
0.000729933
0.0007556
0.000768686
0.000107058
0.000109511
0.000114456
0.00012185
0.000131766
0.00014411
0.000158696
0.000175602
0.000194942
0.000216464
0.000240161
0.000266579
0.000295724
0.000327116
0.000360935
0.0003974
0.000435924
0.00047545
0.000515058
0.000554007
0.000590952
0.000623429
0.000648983
0.000665887
0.000672087
0.000101632
0.000104119
0.000108956
0.000116035
0.000125416
0.000137021
0.000150719
0.000166602
0.000184762
0.000204947
0.000227081
0.00025159
0.000278402
0.000306919
0.00033716
0.000369265
0.000402565
0.000435912
0.000468447
0.000499629
0.000528391
0.000552729
0.000570624
0.000580779
0.0005819
9.50416e-05
9.74443e-05
0.000102045
0.000108702
0.000117461
0.000128235
0.000140893
0.000155556
0.000172306
0.000190872
0.000211105
0.000233336
0.000257463
0.000282791
0.000309165
0.000336723
0.000364875
0.000392436
0.000418558
0.000442904
0.000464775
0.000482603
0.000494648
0.000499899
0.000497581
8.70746e-05
8.93172e-05
9.35706e-05
9.96789e-05
0.000107677
0.000117492
0.000128959
0.000142179
0.000157272
0.000173958
0.000191974
0.000211579
0.000232734
0.0002547
0.000277115
0.0003001
0.000323279
0.000345578
0.000366092
0.000384556
0.000400631
0.000413231
0.000420938
0.000422916
0.000418608
7.96107e-05
8.16794e-05
8.55827e-05
9.11581e-05
9.84368e-05
0.000107379
0.000117778
0.000129692
0.000143286
0.000158306
0.000174391
0.000191723
0.000210361
0.00022962
0.000248995
0.000268551
0.000288083
0.000306695
0.000323478
0.00033816
0.000350601
0.000360007
0.000365189
0.000365453
0.000360644
7.32209e-05
7.51308e-05
7.87289e-05
8.385e-05
9.05175e-05
9.87182e-05
0.000108227
0.000119063
0.000131409
0.000145041
0.000159552
0.000175072
0.000191713
0.00020884
0.000225892
0.000242916
0.000259792
0.000275728
0.000289859
0.000301971
0.000312043
0.000319412
0.000323014
0.000322312
0.000317368
6.57726e-05
6.7493e-05
7.07306e-05
7.53256e-05
8.12966e-05
8.86399e-05
9.71237e-05
0.000106754
0.000117709
0.000129766
0.000142524
0.00015611
0.000170647
0.000185485
0.000200079
0.000214562
0.000228864
0.000242192
0.000253722
0.000263416
0.000271419
0.000277104
0.0002794
0.000277915
0.000272952
5.71223e-05
5.86218e-05
6.14379e-05
6.54211e-05
7.06013e-05
7.69647e-05
8.4265e-05
9.25364e-05
0.000101964
0.000112278
0.000123077
0.000134568
0.000146912
0.000159356
0.000171363
0.000183263
0.000195075
0.000205919
0.000214944
0.000222336
0.000228509
0.000232857
0.000234164
0.000232062
0.000227189
4.71234e-05
4.83672e-05
5.06976e-05
5.39697e-05
5.82417e-05
6.34974e-05
6.94559e-05
7.61852e-05
8.3918e-05
9.23355e-05
0.000100993
0.000110189
0.000120209
0.000130204
0.000139555
0.000148804
0.000158144
0.000166639
0.000173344
0.000178589
0.000183102
0.000186392
0.000187069
0.000184645
0.000180045
3.56377e-05
3.65847e-05
3.83575e-05
4.0816e-05
4.40406e-05
4.80385e-05
5.25063e-05
5.75077e-05
6.33259e-05
6.96625e-05
7.60402e-05
8.27676e-05
9.02618e-05
9.77042e-05
0.000104383
0.000110945
0.00011778
0.000124014
0.000128633
0.000131962
0.00013495
0.00013733
0.000137708
0.000135412
0.000131417
2.25524e-05
2.31539e-05
2.42835e-05
2.58323e-05
2.78665e-05
3.04122e-05
3.32249e-05
3.63398e-05
4.00059e-05
4.40156e-05
4.79713e-05
5.20953e-05
5.67996e-05
6.1487e-05
6.55184e-05
6.94275e-05
7.36537e-05
7.75623e-05
8.029e-05
8.20457e-05
8.36932e-05
8.51795e-05
8.54208e-05
8.37457e-05
8.08908e-05
7.80049e-06
8.00789e-06
8.40086e-06
8.93747e-06
9.63982e-06
1.05221e-05
1.14917e-05
1.2561e-05
1.38293e-05
1.52191e-05
1.65697e-05
1.79598e-05
1.95757e-05
2.12034e-05
2.25663e-05
2.38675e-05
2.53061e-05
2.66529e-05
2.75595e-05
2.80937e-05
2.86153e-05
2.91349e-05
2.92291e-05
2.86e-05
2.75262e-05
)
;

boundaryField
{
    top
    {
        type            fixedValue;
        value           uniform 0;
    }
    inlet
    {
        type            zeroGradient;
    }
    outlet
    {
        type            fixedValue;
        value           uniform 0;
    }
    plate
    {
        type            zeroGradient;
    }
    symmBound
    {
        type            zeroGradient;
    }
    frontAndBack
    {
        type            empty;
    }
}


// ************************************************************************* //
