/*--------------------------------*- C++ -*----------------------------------*\
| =========                 |                                                 |
| \\      /  F ield         | OpenFOAM: The Open Source CFD Toolbox           |
|  \\    /   O peration     | Version:  2.3.0                                 |
|   \\  /    A nd           | Web:      www.OpenFOAM.org                      |
|    \\/     M anipulation  |                                                 |
\*---------------------------------------------------------------------------*/
FoamFile
{
    version     2.0;
    format      ascii;
    class       volVectorField;
    location    "0.3";
    object      U_0;
}
// * * * * * * * * * * * * * * * * * * * * * * * * * * * * * * * * * * * * * //

dimensions      [0 1 -1 0 0 0 0];

internalField   nonuniform List<vector> 
2250
(
(0.187452 0.00255815 1.69855e-06)
(0.178663 0.00351627 4.91678e-06)
(0.17067 0.00414977 7.38969e-06)
(0.162775 0.0043978 8.88286e-06)
(0.154601 0.00440172 9.67483e-06)
(0.146103 0.00430493 1.00747e-05)
(0.13738 0.00419145 1.02026e-05)
(0.128597 0.00407195 9.98246e-06)
(0.119884 0.00393903 9.25827e-06)
(0.111312 0.00378566 7.89941e-06)
(0.102941 0.00358731 5.81803e-06)
(0.0948346 0.00333007 2.9745e-06)
(0.0870659 0.0030233 -5.92279e-07)
(0.0797309 0.00267739 -4.75452e-06)
(0.0729395 0.00230294 -9.31974e-06)
(0.0667613 0.00190812 -1.40712e-05)
(0.0612453 0.00150008 -1.87857e-05)
(0.056418 0.00109266 -2.3218e-05)
(0.0522849 0.0007109 -2.71025e-05)
(0.0488241 0.000381637 -3.02141e-05)
(0.045983 0.00012144 -3.24411e-05)
(0.0436849 -6.70653e-05 -3.38046e-05)
(0.0418418 -0.000191045 -3.44185e-05)
(0.0403675 -0.00026175 -3.44357e-05)
(0.0391829 -0.000290704 -3.40118e-05)
(0.0382195 -0.00028816 -3.32918e-05)
(0.0374177 -0.000263519 -3.24093e-05)
(0.0367298 -0.000227058 -3.14806e-05)
(0.0361181 -0.000186112 -3.06005e-05)
(0.0355535 -0.000145137 -2.98341e-05)
(0.0350158 -0.000106981 -2.92186e-05)
(0.0344923 -7.34306e-05 -2.8769e-05)
(0.0339764 -4.54746e-05 -2.84807e-05)
(0.0334657 -2.32627e-05 -2.83338e-05)
(0.0329607 -6.35709e-06 -2.83033e-05)
(0.0324623 5.88267e-06 -2.837e-05)
(0.031973 1.40129e-05 -2.85182e-05)
(0.0314935 1.92481e-05 -2.87347e-05)
(0.0310259 2.2493e-05 -2.90078e-05)
(0.0305715 2.43025e-05 -2.9325e-05)
(0.0301332 2.50143e-05 -2.96661e-05)
(0.0297125 2.50106e-05 -3.00081e-05)
(0.0293119 2.44978e-05 -3.03326e-05)
(0.0289314 2.36529e-05 -3.06279e-05)
(0.0285723 2.25573e-05 -3.08892e-05)
(0.0282331 2.13723e-05 -3.11189e-05)
(0.0279144 2.00982e-05 -3.13224e-05)
(0.027614 1.87991e-05 -3.15037e-05)
(0.027333 1.74148e-05 -3.16629e-05)
(0.0270689 1.60164e-05 -3.17982e-05)
(0.0268233 1.45329e-05 -3.19048e-05)
(0.0265933 1.30594e-05 -3.19776e-05)
(0.0263813 1.15282e-05 -3.20105e-05)
(0.0261836 1.00489e-05 -3.19992e-05)
(0.0260032 8.52445e-06 -3.19379e-05)
(0.0258356 7.07104e-06 -3.18225e-05)
(0.0256848 5.57341e-06 -3.16465e-05)
(0.0255453 4.15927e-06 -3.14056e-05)
(0.0254223 2.68202e-06 -3.10921e-05)
(0.0253091 1.29643e-06 -3.07013e-05)
(0.0252122 -1.58772e-07 -3.02253e-05)
(0.0251237 -1.50641e-06 -2.96603e-05)
(0.0250513 -2.93223e-06 -2.89988e-05)
(0.0249856 -4.21919e-06 -2.82397e-05)
(0.0249359 -5.5769e-06 -2.73785e-05)
(0.0248906 -6.7474e-06 -2.64193e-05)
(0.024861 -7.97466e-06 -2.53622e-05)
(0.024833 -8.96335e-06 -2.4218e-05)
(0.0248203 -1.00066e-05 -2.29915e-05)
(0.024806 -1.07661e-05 -2.16999e-05)
(0.0248064 -1.15947e-05 -2.03511e-05)
(0.0248016 -1.21174e-05 -1.8966e-05)
(0.0248115 -1.27537e-05 -1.75521e-05)
(0.0248123 -1.30531e-05 -1.61323e-05)
(0.0248282 -1.34852e-05 -1.47138e-05)
(0.0248308 -1.35348e-05 -1.33226e-05)
(0.0248494 -1.3754e-05 -1.19634e-05)
(0.0248503 -1.35714e-05 -1.06617e-05)
(0.024869 -1.36493e-05 -9.41206e-06)
(0.0248659 -1.33424e-05 -8.23495e-06)
(0.0248837 -1.34262e-05 -7.11585e-06)
(0.024876 -1.31458e-05 -6.08386e-06)
(0.0248938 -1.34084e-05 -5.14378e-06)
(0.0248824 -1.33459e-05 -4.37718e-06)
(0.0249028 -1.3998e-05 -3.84721e-06)
(0.0248905 -1.42731e-05 -3.68953e-06)
(0.0249177 -1.5215e-05 -3.9327e-06)
(0.0249069 -1.53693e-05 -4.57844e-06)
(0.0249425 -1.59227e-05 -5.43736e-06)
(0.0249313 -1.53261e-05 -6.35877e-06)
(0.0249721 -1.52046e-05 -7.03632e-06)
(0.0249545 -1.40339e-05 -7.19588e-06)
(0.0249957 -1.39432e-05 -6.4945e-06)
(0.0249684 -1.30734e-05 -5.07493e-06)
(0.0250127 -1.36782e-05 -3.22365e-06)
(0.0249805 -1.33397e-05 -1.48105e-06)
(0.0250337 -1.45129e-05 -9.78452e-08)
(0.0250004 -1.40379e-05 5.82928e-07)
(0.0250582 -1.62843e-05 6.11782e-07)
(0.0250419 -1.24544e-05 2.32395e-07)
(0.193873 0.00470346 1.15562e-06)
(0.193583 0.00624068 3.41165e-06)
(0.193303 0.00736236 5.67798e-06)
(0.192898 0.00795506 7.56065e-06)
(0.192173 0.00818806 8.77178e-06)
(0.191015 0.00825453 9.31666e-06)
(0.189396 0.00827963 9.35341e-06)
(0.187358 0.00829755 9.01019e-06)
(0.184967 0.00829258 8.28549e-06)
(0.182264 0.00824623 7.09244e-06)
(0.17929 0.00814467 5.32837e-06)
(0.176078 0.00797533 2.92034e-06)
(0.172652 0.00772923 -1.12985e-07)
(0.169027 0.00739741 -3.64959e-06)
(0.165234 0.00697658 -7.52554e-06)
(0.161318 0.00647834 -1.15869e-05)
(0.15734 0.00592544 -1.56783e-05)
(0.153353 0.00533645 -1.96035e-05)
(0.149396 0.00472504 -2.31452e-05)
(0.1455 0.00411186 -2.6125e-05)
(0.141692 0.00352499 -2.84436e-05)
(0.137996 0.00298886 -3.00826e-05)
(0.13443 0.00251589 -3.10869e-05)
(0.131009 0.00210866 -3.15447e-05)
(0.12774 0.00176457 -3.15663e-05)
(0.12463 0.00148022 -3.12706e-05)
(0.121674 0.00125151 -3.07794e-05)
(0.118871 0.00107395 -3.02032e-05)
(0.116213 0.000939779 -2.96214e-05)
(0.113691 0.000839614 -2.9089e-05)
(0.111294 0.000764437 -2.86438e-05)
(0.109011 0.000706571 -2.83094e-05)
(0.106836 0.000660015 -2.8094e-05)
(0.104763 0.000620765 -2.79917e-05)
(0.102788 0.000586837 -2.79878e-05)
(0.100904 0.000556978 -2.807e-05)
(0.0991097 0.000530015 -2.82258e-05)
(0.0973981 0.000504698 -2.84412e-05)
(0.0957667 0.000479777 -2.87079e-05)
(0.0942096 0.000454159 -2.902e-05)
(0.0927275 0.000427057 -2.93608e-05)
(0.0913156 0.000398893 -2.97081e-05)
(0.089976 0.000370417 -3.00423e-05)
(0.0887026 0.000342512 -3.03507e-05)
(0.0874978 0.000315697 -3.06273e-05)
(0.0863537 0.000290488 -3.08752e-05)
(0.0852733 0.000266782 -3.11001e-05)
(0.0842479 0.000244549 -3.13063e-05)
(0.0832821 0.00022345 -3.14927e-05)
(0.0823664 0.000203512 -3.16572e-05)
(0.0815077 0.000184419 -3.17937e-05)
(0.0806947 0.000166303 -3.18972e-05)
(0.0799368 0.000148925 -3.19602e-05)
(0.0792204 0.000132524 -3.19787e-05)
(0.0785572 0.000116808 -3.19462e-05)
(0.0779311 0.000101998 -3.18591e-05)
(0.0773568 8.77397e-05 -3.17101e-05)
(0.076815 7.43057e-05 -3.14955e-05)
(0.076324 6.12934e-05 -3.12067e-05)
(0.0758608 4.90657e-05 -3.08397e-05)
(0.0754478 3.71938e-05 -3.03856e-05)
(0.0750573 2.61106e-05 -2.98412e-05)
(0.0747165 1.53685e-05 -2.91976e-05)
(0.074392 5.53698e-06 -2.84549e-05)
(0.0741168 -3.88811e-06 -2.76067e-05)
(0.0738506 -1.22399e-05 -2.66583e-05)
(0.0736328 -2.01054e-05 -2.56079e-05)
(0.0734154 -2.67282e-05 -2.4468e-05)
(0.0732457 -3.2848e-05 -2.32417e-05)
(0.0730666 -3.76278e-05 -2.1948e-05)
(0.0729347 -4.19817e-05 -2.05928e-05)
(0.0727826 -4.49942e-05 -1.92e-05)
(0.0726783 -4.77642e-05 -1.77742e-05)
(0.0725424 -4.91921e-05 -1.63414e-05)
(0.0724561 -5.05247e-05 -1.49059e-05)
(0.0723263 -5.05328e-05 -1.34971e-05)
(0.0722495 -5.07151e-05 -1.21167e-05)
(0.0721168 -4.97201e-05 -1.07941e-05)
(0.0720432 -4.93366e-05 -9.52009e-06)
(0.0719014 -4.79817e-05 -8.31791e-06)
(0.071828 -4.76984e-05 -7.16614e-06)
(0.0716743 -4.6552e-05 -6.09447e-06)
(0.0716016 -4.69034e-05 -5.09969e-06)
(0.0714358 -4.65034e-05 -4.27171e-06)
(0.071367 -4.8099e-05 -3.68623e-06)
(0.0711911 -4.88272e-05 -3.5198e-06)
(0.0711312 -5.14191e-05 -3.82874e-06)
(0.0709472 -5.19177e-05 -4.61821e-06)
(0.0708992 -5.34052e-05 -5.64813e-06)
(0.0707047 -5.15967e-05 -6.74162e-06)
(0.0706667 -5.08088e-05 -7.57107e-06)
(0.0704545 -4.6699e-05 -7.80017e-06)
(0.0704217 -4.5523e-05 -6.97316e-06)
(0.0701859 -4.24085e-05 -5.27133e-06)
(0.0701605 -4.42398e-05 -3.09476e-06)
(0.0699054 -4.29271e-05 -1.09601e-06)
(0.0698933 -4.7118e-05 4.33025e-07)
(0.0696232 -4.50683e-05 1.12194e-06)
(0.0696218 -5.1777e-05 9.39683e-07)
(0.0693428 -4.71073e-05 2.09307e-07)
(0.19479 0.00468715 8.79415e-07)
(0.194821 0.00568295 2.61441e-06)
(0.195038 0.00657353 4.47905e-06)
(0.195428 0.00722652 6.29473e-06)
(0.195886 0.00764477 7.70018e-06)
(0.196304 0.00790664 8.44072e-06)
(0.196609 0.00809963 8.51379e-06)
(0.196767 0.0082738 8.09551e-06)
(0.196786 0.0084302 7.34129e-06)
(0.196683 0.00855465 6.27512e-06)
(0.196467 0.00863324 4.8575e-06)
(0.196137 0.00864549 3.05141e-06)
(0.195678 0.0085723 8.381e-07)
(0.195064 0.00840657 -1.74779e-06)
(0.194275 0.00815105 -4.61895e-06)
(0.193307 0.0078142 -7.67479e-06)
(0.192168 0.00740544 -1.08115e-05)
(0.190868 0.00693656 -1.39172e-05)
(0.189417 0.00642544 -1.68789e-05)
(0.187837 0.00589894 -1.9601e-05)
(0.186151 0.0053872 -2.20046e-05)
(0.184383 0.00491444 -2.40154e-05)
(0.182552 0.00449173 -2.55746e-05)
(0.180671 0.00411884 -2.66705e-05)
(0.17875 0.00379009 -2.73508e-05)
(0.1768 0.00350132 -2.77016e-05)
(0.174834 0.00324984 -2.78194e-05)
(0.172867 0.00303406 -2.77894e-05)
(0.170911 0.0028504 -2.76626e-05)
(0.16897 0.00269389 -2.74844e-05)
(0.16705 0.00255905 -2.72957e-05)
(0.165145 0.00243952 -2.7125e-05)
(0.163256 0.00232869 -2.69947e-05)
(0.161378 0.00222213 -2.69273e-05)
(0.159514 0.00211884 -2.69335e-05)
(0.157663 0.00201898 -2.70107e-05)
(0.155832 0.0019222 -2.71497e-05)
(0.154019 0.00182803 -2.73373e-05)
(0.152233 0.00173594 -2.75645e-05)
(0.150471 0.00164507 -2.78264e-05)
(0.148742 0.00155461 -2.81159e-05)
(0.147043 0.00146489 -2.84231e-05)
(0.145385 0.00137649 -2.87329e-05)
(0.143759 0.00129008 -2.90312e-05)
(0.14218 0.00120622 -2.93089e-05)
(0.140634 0.00112561 -2.95668e-05)
(0.139138 0.00104822 -2.98067e-05)
(0.137679 0.000973946 -3.00311e-05)
(0.136273 0.000902428 -3.02379e-05)
(0.134906 0.00083366 -3.0425e-05)
(0.133598 0.000767393 -3.05856e-05)
(0.132329 0.000703773 -3.07156e-05)
(0.131125 0.000642633 -3.08077e-05)
(0.129958 0.000584166 -3.08579e-05)
(0.12886 0.000528107 -3.08588e-05)
(0.127798 0.000474584 -3.08064e-05)
(0.126808 0.000423273 -3.06924e-05)
(0.12585 0.000374333 -3.05138e-05)
(0.124967 0.000327416 -3.02619e-05)
(0.124112 0.000282827 -2.99337e-05)
(0.123334 0.000240251 -2.95195e-05)
(0.122579 0.000200051 -2.90172e-05)
(0.121903 0.000161916 -2.84175e-05)
(0.121242 0.000126395 -2.77217e-05)
(0.120662 9.31676e-05 -2.69221e-05)
(0.120088 6.28724e-05 -2.60242e-05)
(0.119598 3.50758e-05 -2.50242e-05)
(0.119102 1.04712e-05 -2.39356e-05)
(0.118692 -1.15463e-05 -2.27589e-05)
(0.118262 -3.02471e-05 -2.15141e-05)
(0.11792 -4.64868e-05 -2.02043e-05)
(0.117543 -5.9547e-05 -1.88544e-05)
(0.117258 -7.05345e-05 -1.74671e-05)
(0.11692 -7.85455e-05 -1.60699e-05)
(0.116679 -8.48541e-05 -1.46639e-05)
(0.116366 -8.84484e-05 -1.32796e-05)
(0.116158 -9.09223e-05 -1.19152e-05)
(0.115859 -9.1188e-05 -1.06017e-05)
(0.115674 -9.12518e-05 -9.32523e-06)
(0.115377 -8.98025e-05 -8.10889e-06)
(0.115209 -8.91584e-05 -6.92145e-06)
(0.114906 -8.75469e-05 -5.78471e-06)
(0.11475 -8.76583e-05 -4.67894e-06)
(0.114437 -8.72926e-05 -3.6961e-06)
(0.114294 -8.96776e-05 -2.94534e-06)
(0.11397 -9.17025e-05 -2.70346e-06)
(0.113844 -9.6309e-05 -3.14187e-06)
(0.113508 -9.83284e-05 -4.2994e-06)
(0.113401 -0.000100875 -5.82043e-06)
(0.11305 -9.82549e-05 -7.41874e-06)
(0.11296 -9.58938e-05 -8.7326e-06)
(0.112583 -8.82641e-05 -9.26124e-06)
(0.112504 -8.42969e-05 -8.2603e-06)
(0.112094 -7.79991e-05 -5.92911e-06)
(0.112028 -7.9461e-05 -2.96886e-06)
(0.111587 -7.7274e-05 -2.81837e-07)
(0.111541 -8.32551e-05 1.70457e-06)
(0.111071 -8.23004e-05 2.55762e-06)
(0.111046 -9.13662e-05 2.02585e-06)
(0.110543 -9.24215e-05 4.93068e-07)
(0.195515 0.00453439 6.86581e-07)
(0.195537 0.00524099 2.01495e-06)
(0.195686 0.00593075 3.40014e-06)
(0.195987 0.00652787 4.81807e-06)
(0.196412 0.00699442 6.07571e-06)
(0.196908 0.00733747 6.90685e-06)
(0.197419 0.00759389 7.15445e-06)
(0.197899 0.00780546 6.86651e-06)
(0.198337 0.00798974 6.21839e-06)
(0.198742 0.00814189 5.34754e-06)
(0.199124 0.00825028 4.298e-06)
(0.199486 0.00830008 3.05115e-06)
(0.199822 0.00827945 1.54656e-06)
(0.200115 0.00818674 -2.38475e-07)
(0.200337 0.0080238 -2.23075e-06)
(0.200467 0.00778947 -4.35048e-06)
(0.200495 0.00748597 -6.59669e-06)
(0.200414 0.00712566 -8.97281e-06)
(0.200219 0.00672722 -1.13949e-05)
(0.199909 0.00631011 -1.37444e-05)
(0.199496 0.00589422 -1.59511e-05)
(0.198992 0.00549898 -1.79705e-05)
(0.198411 0.00513883 -1.97349e-05)
(0.197761 0.00481971 -2.11831e-05)
(0.197054 0.00454091 -2.23148e-05)
(0.196294 0.00429871 -2.31759e-05)
(0.195491 0.00408814 -2.3801e-05)
(0.194646 0.00390208 -2.42071e-05)
(0.193774 0.00373441 -2.44408e-05)
(0.192879 0.00358253 -2.45702e-05)
(0.191973 0.0034464 -2.46451e-05)
(0.191055 0.00332535 -2.46797e-05)
(0.19013 0.00321593 -2.46875e-05)
(0.189185 0.00311339 -2.47094e-05)
(0.188225 0.00301458 -2.47764e-05)
(0.187238 0.00291747 -2.48818e-05)
(0.186235 0.00282049 -2.50152e-05)
(0.185209 0.00272371 -2.51868e-05)
(0.184173 0.00262764 -2.5392e-05)
(0.183114 0.00253075 -2.56165e-05)
(0.182048 0.00243123 -2.5861e-05)
(0.180961 0.00232922 -2.61322e-05)
(0.179873 0.00222632 -2.64184e-05)
(0.178772 0.00212404 -2.67032e-05)
(0.177679 0.00202376 -2.69767e-05)
(0.176577 0.00192598 -2.72355e-05)
(0.175488 0.00183051 -2.74747e-05)
(0.174389 0.00173655 -2.76948e-05)
(0.173309 0.00164368 -2.78955e-05)
(0.172219 0.00155145 -2.80765e-05)
(0.171154 0.00145986 -2.82328e-05)
(0.170081 0.00136885 -2.83627e-05)
(0.169042 0.00127884 -2.84605e-05)
(0.167997 0.00119002 -2.85223e-05)
(0.166994 0.00110284 -2.85399e-05)
(0.165988 0.00101736 -2.85094e-05)
(0.165033 0.000933926 -2.84218e-05)
(0.164074 0.000852457 -2.82743e-05)
(0.163176 0.000773224 -2.80594e-05)
(0.16227 0.000696186 -2.77755e-05)
(0.161432 0.000621685 -2.74127e-05)
(0.160584 0.000549653 -2.69692e-05)
(0.159812 0.000480526 -2.64374e-05)
(0.159024 0.000414398 -2.582e-05)
(0.158321 0.000351793 -2.51088e-05)
(0.157595 0.000292827 -2.43079e-05)
(0.156962 0.000237979 -2.34119e-05)
(0.156296 0.000187279 -2.24324e-05)
(0.155732 0.000141099 -2.13691e-05)
(0.155123 9.9408e-05 -2.02389e-05)
(0.154626 6.23836e-05 -1.90423e-05)
(0.154069 2.98326e-05 -1.78016e-05)
(0.153633 1.68514e-06 -1.65195e-05)
(0.15312 -2.22034e-05 -1.52209e-05)
(0.152739 -4.20651e-05 -1.39056e-05)
(0.152261 -5.81046e-05 -1.25993e-05)
(0.151929 -7.08045e-05 -1.12991e-05)
(0.151477 -8.04087e-05 -1.00314e-05)
(0.151186 -8.77438e-05 -8.78083e-06)
(0.150751 -9.29725e-05 -7.56164e-06)
(0.150494 -9.71791e-05 -6.33394e-06)
(0.150067 -0.000100187 -5.08977e-06)
(0.149839 -0.000103499 -3.77464e-06)
(0.149413 -0.000106777 -2.44078e-06)
(0.149212 -0.000112344 -1.2376e-06)
(0.148782 -0.000119159 -6.28186e-07)
(0.14861 -0.000128733 -1.13355e-06)
(0.148176 -0.000136546 -3.02027e-06)
(0.148035 -0.000142555 -5.77557e-06)
(0.14759 -0.00014131 -8.74147e-06)
(0.147474 -0.000136667 -1.1388e-05)
(0.147005 -0.000125401 -1.28522e-05)
(0.146906 -0.000116642 -1.17832e-05)
(0.146404 -0.000106982 -8.28842e-06)
(0.146324 -0.000105527 -3.66177e-06)
(0.145791 -0.0001025 6.51102e-07)
(0.145734 -0.000107545 3.88518e-06)
(0.145168 -0.000108458 5.55133e-06)
(0.145136 -0.00012006 4.86635e-06)
(0.144529 -0.000130685 1.67292e-06)
(0.19612 0.00443906 5.07404e-07)
(0.196148 0.00500455 1.45477e-06)
(0.196264 0.00557485 2.40113e-06)
(0.19649 0.00610805 3.37528e-06)
(0.19682 0.00656969 4.32925e-06)
(0.197231 0.00694193 5.1183e-06)
(0.19769 0.007227 5.55185e-06)
(0.198157 0.007447 5.53403e-06)
(0.198606 0.00762233 5.1545e-06)
(0.199033 0.00775714 4.56838e-06)
(0.19945 0.00784825 3.84962e-06)
(0.199866 0.00789257 2.9999e-06)
(0.200285 0.00788504 2.01207e-06)
(0.200695 0.00781942 8.92141e-07)
(0.201075 0.00769202 -3.50916e-07)
(0.201408 0.00750355 -1.74601e-06)
(0.201693 0.00726048 -3.35428e-06)
(0.201922 0.00697312 -5.17366e-06)
(0.202084 0.00665245 -7.09733e-06)
(0.202166 0.00630957 -9.01715e-06)
(0.202174 0.00595878 -1.09156e-05)
(0.202116 0.00561752 -1.28056e-05)
(0.202004 0.0053022 -1.46232e-05)
(0.201843 0.00502195 -1.62524e-05)
(0.201645 0.00477791 -1.76357e-05)
(0.201412 0.00456654 -1.87899e-05)
(0.201154 0.0043823 -1.97261e-05)
(0.200866 0.00421762 -2.04364e-05)
(0.200561 0.00406604 -2.09515e-05)
(0.200237 0.00392443 -2.13396e-05)
(0.199908 0.00379334 -2.16471e-05)
(0.199568 0.0036741 -2.18726e-05)
(0.199228 0.00356684 -2.20206e-05)
(0.198876 0.00346979 -2.21428e-05)
(0.198523 0.00338094 -2.22768e-05)
(0.198148 0.00329613 -2.24036e-05)
(0.197764 0.0032107 -2.25176e-05)
(0.197355 0.00312276 -2.26568e-05)
(0.19694 0.00303438 -2.28279e-05)
(0.196501 0.00294625 -2.30047e-05)
(0.196056 0.00285741 -2.31882e-05)
(0.19558 0.00276583 -2.33946e-05)
(0.195097 0.00267072 -2.36127e-05)
(0.194584 0.00257213 -2.38287e-05)
(0.194072 0.00247274 -2.40428e-05)
(0.193535 0.00237437 -2.4253e-05)
(0.193005 0.00227818 -2.44483e-05)
(0.192447 0.00218308 -2.46267e-05)
(0.191899 0.00208896 -2.47891e-05)
(0.191321 0.00199484 -2.4935e-05)
(0.190755 0.00190098 -2.50595e-05)
(0.190157 0.00180653 -2.51622e-05)
(0.189577 0.00171206 -2.52389e-05)
(0.188963 0.00161684 -2.52859e-05)
(0.188373 0.00152178 -2.52957e-05)
(0.187747 0.00142641 -2.52651e-05)
(0.187156 0.001332 -2.5186e-05)
(0.186528 0.00123808 -2.50551e-05)
(0.185942 0.00114587 -2.48665e-05)
(0.185318 0.00105478 -2.46189e-05)
(0.184745 0.000966028 -2.43031e-05)
(0.184128 0.000878792 -2.3917e-05)
(0.183572 0.000794393 -2.34556e-05)
(0.182967 0.000712 -2.29222e-05)
(0.182432 0.000633168 -2.23105e-05)
(0.181842 0.000557114 -2.16226e-05)
(0.181334 0.00048554 -2.08524e-05)
(0.180763 0.000417458 -2.00078e-05)
(0.180285 0.00035455 -1.90896e-05)
(0.179736 0.000295696 -1.81097e-05)
(0.179291 0.000242483 -1.70663e-05)
(0.178763 0.000193479 -1.59749e-05)
(0.178354 0.000150067 -1.48409e-05)
(0.177847 0.000110779 -1.36829e-05)
(0.177473 7.69769e-05 -1.25006e-05)
(0.176986 4.69995e-05 -1.13108e-05)
(0.176648 2.20808e-05 -1.01116e-05)
(0.176178 3.31374e-07 -8.91952e-06)
(0.175876 -1.72856e-05 -7.72022e-06)
(0.175419 -3.27451e-05 -6.51282e-06)
(0.175148 -4.52433e-05 -5.24884e-06)
(0.174698 -5.65669e-05 -3.86676e-06)
(0.174455 -6.63018e-05 -2.23112e-06)
(0.174006 -7.65086e-05 -2.45179e-07)
(0.17379 -8.81359e-05 2.01622e-06)
(0.17334 -0.000103564 3.88194e-06)
(0.173155 -0.000123125 4.04882e-06)
(0.172707 -0.000143574 1.29272e-06)
(0.172558 -0.000159342 -4.01164e-06)
(0.172107 -0.000163749 -1.02468e-05)
(0.171985 -0.000157682 -1.61058e-05)
(0.171518 -0.000141689 -2.00366e-05)
(0.171412 -0.00012615 -1.95492e-05)
(0.170918 -0.000111704 -1.43833e-05)
(0.170831 -0.000106367 -6.7958e-06)
(0.170315 -0.000102069 6.59017e-07)
(0.170254 -0.000105889 6.48638e-06)
(0.169712 -0.000108053 1.03241e-05)
(0.169675 -0.000123225 1.09102e-05)
(0.169096 -0.000151753 5.04229e-06)
(0.196658 0.00438097 3.44558e-07)
(0.196699 0.00485318 9.57725e-07)
(0.196801 0.00533424 1.54167e-06)
(0.196981 0.00579876 2.15287e-06)
(0.197241 0.00621901 2.81994e-06)
(0.197568 0.00657595 3.48595e-06)
(0.197948 0.00686035 4.01247e-06)
(0.198353 0.00707771 4.25671e-06)
(0.198756 0.00724263 4.19395e-06)
(0.199143 0.00736455 3.90743e-06)
(0.199523 0.00744624 3.47686e-06)
(0.199901 0.00748794 2.95451e-06)
(0.200277 0.00748516 2.39052e-06)
(0.200644 0.00743087 1.77711e-06)
(0.200992 0.00732489 1.0358e-06)
(0.201314 0.00717326 1.07436e-07)
(0.201613 0.00698111 -1.00696e-06)
(0.201877 0.00675102 -2.28361e-06)
(0.202095 0.00648825 -3.69206e-06)
(0.202253 0.00620247 -5.19942e-06)
(0.202357 0.00590672 -6.79651e-06)
(0.202412 0.00561468 -8.48132e-06)
(0.202426 0.00533922 -1.01882e-05)
(0.2024 0.00508845 -1.17951e-05)
(0.202346 0.00486531 -1.32349e-05)
(0.20227 0.00466883 -1.45265e-05)
(0.202184 0.0044964 -1.56706e-05)
(0.202082 0.00434207 -1.66186e-05)
(0.201975 0.00419938 -1.73627e-05)
(0.201857 0.00406399 -1.79623e-05)
(0.201741 0.00393589 -1.84614e-05)
(0.201617 0.0038166 -1.88491e-05)
(0.201498 0.00370799 -1.91251e-05)
(0.201374 0.00361 -1.93443e-05)
(0.201259 0.00352204 -1.95439e-05)
(0.201135 0.00344012 -1.97009e-05)
(0.201015 0.00335933 -1.98184e-05)
(0.200881 0.00327622 -1.99501e-05)
(0.200752 0.00319229 -2.01027e-05)
(0.200606 0.00310874 -2.02377e-05)
(0.200466 0.00302629 -2.03585e-05)
(0.200304 0.00294277 -2.04937e-05)
(0.200144 0.00285601 -2.06373e-05)
(0.199958 0.00276372 -2.078e-05)
(0.199777 0.00266823 -2.09312e-05)
(0.199572 0.00257198 -2.10908e-05)
(0.199378 0.00247782 -2.12421e-05)
(0.199158 0.00238488 -2.13787e-05)
(0.198951 0.00229336 -2.15003e-05)
(0.198716 0.00220173 -2.16043e-05)
(0.198495 0.00211069 -2.16859e-05)
(0.198243 0.00201898 -2.17463e-05)
(0.198008 0.00192743 -2.17839e-05)
(0.197736 0.00183457 -2.17952e-05)
(0.197485 0.00174152 -2.17745e-05)
(0.197194 0.00164696 -2.17194e-05)
(0.196929 0.00155263 -2.1624e-05)
(0.196621 0.00145754 -2.14846e-05)
(0.196345 0.00136369 -2.1298e-05)
(0.196023 0.00127 -2.10619e-05)
(0.195739 0.00117846 -2.07686e-05)
(0.195404 0.00108761 -2.04172e-05)
(0.195115 0.000999623 -2.00054e-05)
(0.194769 0.000912784 -1.95341e-05)
(0.194476 0.000829308 -1.90005e-05)
(0.194121 0.000747498 -1.84057e-05)
(0.193829 0.00066999 -1.77449e-05)
(0.193467 0.000595027 -1.702e-05)
(0.19318 0.00052532 -1.62347e-05)
(0.192816 0.000458855 -1.53948e-05)
(0.192537 0.000398335 -1.44976e-05)
(0.192172 0.000341382 -1.35496e-05)
(0.191904 0.000290432 -1.25591e-05)
(0.191539 0.000242866 -1.15364e-05)
(0.191283 0.000201128 -1.04816e-05)
(0.19092 0.000162433 -9.40192e-06)
(0.190682 0.000129459 -8.29872e-06)
(0.190322 9.92367e-05 -7.17806e-06)
(0.190103 7.42044e-05 -6.03086e-06)
(0.189747 5.11643e-05 -4.84561e-06)
(0.189546 3.25019e-05 -3.57461e-06)
(0.189189 1.51503e-05 -2.10361e-06)
(0.189005 1.2412e-06 -1.78697e-07)
(0.188642 -1.28426e-05 2.60269e-06)
(0.18847 -2.7277e-05 6.57788e-06)
(0.188099 -4.78067e-05 1.12255e-05)
(0.187945 -7.62069e-05 1.41866e-05)
(0.187577 -0.000110974 1.19225e-05)
(0.187455 -0.000140811 3.57116e-06)
(0.18709 -0.000154791 -7.42266e-06)
(0.186989 -0.000151367 -1.80077e-05)
(0.186608 -0.00013302 -2.61828e-05)
(0.18651 -0.000111915 -2.76591e-05)
(0.186104 -9.3475e-05 -2.07474e-05)
(0.186019 -8.58731e-05 -9.12532e-06)
(0.185599 -8.15895e-05 2.43432e-06)
(0.185538 -8.31026e-05 1.0931e-05)
(0.185101 -8.41157e-05 1.6623e-05)
(0.185059 -9.60446e-05 1.97917e-05)
(0.184587 -0.000149375 1.09224e-05)
(0.197147 0.00433196 2.01407e-07)
(0.197199 0.00473071 5.36031e-07)
(0.197294 0.00513548 8.39289e-07)
(0.197441 0.00553024 1.17565e-06)
(0.197646 0.00589575 1.59972e-06)
(0.197903 0.00621672 2.10515e-06)
(0.198209 0.00648317 2.61527e-06)
(0.198547 0.00669222 3.00689e-06)
(0.198895 0.00685066 3.19189e-06)
(0.199236 0.00696653 3.18843e-06)
(0.19957 0.00704298 3.06323e-06)
(0.199898 0.00708021 2.85554e-06)
(0.200223 0.00707834 2.57588e-06)
(0.200539 0.00703773 2.21765e-06)
(0.200846 0.00696034 1.77592e-06)
(0.201134 0.00684692 1.26303e-06)
(0.201403 0.00669641 6.57135e-07)
(0.201644 0.00651027 -1.22809e-07)
(0.201852 0.0062959 -1.12165e-06)
(0.202014 0.0060625 -2.28657e-06)
(0.202134 0.00581884 -3.5495e-06)
(0.202214 0.00557289 -4.90204e-06)
(0.20226 0.00533387 -6.33769e-06)
(0.20227 0.00510983 -7.78387e-06)
(0.202256 0.0049058 -9.16446e-06)
(0.202224 0.00472239 -1.04691e-05)
(0.202187 0.00455832 -1.16828e-05)
(0.202139 0.00440935 -1.2737e-05)
(0.202089 0.00427055 -1.36029e-05)
(0.202032 0.00413815 -1.43332e-05)
(0.20198 0.00401184 -1.49637e-05)
(0.20192 0.00389226 -1.54694e-05)
(0.201864 0.00378117 -1.58464e-05)
(0.201804 0.00367904 -1.61537e-05)
(0.201756 0.00358656 -1.64305e-05)
(0.201705 0.00350122 -1.66502e-05)
(0.201663 0.00341932 -1.68079e-05)
(0.201615 0.00333652 -1.69538e-05)
(0.201576 0.00325288 -1.71008e-05)
(0.201527 0.00316936 -1.72175e-05)
(0.201487 0.00308791 -1.73125e-05)
(0.201437 0.0030072 -1.74181e-05)
(0.201394 0.00292497 -1.75302e-05)
(0.201334 0.00283751 -1.76389e-05)
(0.201281 0.00274614 -1.77557e-05)
(0.20121 0.00265272 -1.78823e-05)
(0.20115 0.00256082 -1.8002e-05)
(0.201072 0.00246988 -1.81063e-05)
(0.201007 0.00238033 -1.81964e-05)
(0.200922 0.00229053 -1.82698e-05)
(0.200853 0.00220153 -1.83224e-05)
(0.200761 0.00211215 -1.83553e-05)
(0.200686 0.00202351 -1.8368e-05)
(0.200585 0.00193379 -1.83552e-05)
(0.200502 0.0018442 -1.8313e-05)
(0.200389 0.00175295 -1.82406e-05)
(0.200297 0.00166174 -1.81346e-05)
(0.200171 0.0015693 -1.79921e-05)
(0.20007 0.00147785 -1.78119e-05)
(0.19993 0.00138621 -1.75892e-05)
(0.19982 0.00129664 -1.73181e-05)
(0.199667 0.00120738 -1.70001e-05)
(0.199547 0.00112099 -1.66349e-05)
(0.19938 0.00103543 -1.62175e-05)
(0.199251 0.000952945 -1.57473e-05)
(0.199071 0.000871416 -1.52266e-05)
(0.198934 0.00079359 -1.46525e-05)
(0.198743 0.000717514 -1.40206e-05)
(0.198603 0.000646345 -1.33363e-05)
(0.198402 0.000577822 -1.26006e-05)
(0.198261 0.000515033 -1.1811e-05)
(0.198053 0.000455436 -1.09668e-05)
(0.197913 0.000401781 -1.00777e-05)
(0.197698 0.000351093 -9.1459e-06)
(0.19756 0.000305964 -8.17284e-06)
(0.197339 0.000263104 -7.1596e-06)
(0.197207 0.000225623 -6.11371e-06)
(0.196984 0.000190478 -5.0367e-06)
(0.19686 0.000160644 -3.93425e-06)
(0.196637 0.000132918 -2.8058e-06)
(0.196523 0.000110154 -1.64331e-06)
(0.196297 8.93095e-05 -3.5814e-07)
(0.19619 7.32508e-05 1.31064e-06)
(0.195954 5.89681e-05 4.00714e-06)
(0.195846 4.7015e-05 8.74182e-06)
(0.195594 3.12786e-05 1.60613e-05)
(0.195489 6.20306e-06 2.39544e-05)
(0.19524 -3.027e-05 2.72624e-05)
(0.195164 -6.92904e-05 2.31138e-05)
(0.194927 -9.93557e-05 1.54517e-05)
(0.194865 -0.000118972 7.34554e-06)
(0.194608 -0.00012745 3.78148e-08)
(0.194531 -0.000133517 1.87173e-07)
(0.194242 -0.000140692 9.37817e-06)
(0.194167 -0.000153197 2.14121e-05)
(0.193872 -0.000162611 2.95872e-05)
(0.193818 -0.000163704 3.14739e-05)
(0.193513 -0.000151643 2.9398e-05)
(0.193466 -0.00012508 2.76716e-05)
(0.193118 -0.000154001 1.33136e-05)
(0.197592 0.00427888 7.79276e-08)
(0.197649 0.00461655 1.83617e-07)
(0.197735 0.00495615 2.69885e-07)
(0.197858 0.00528795 3.95117e-07)
(0.19802 0.00559979 6.14884e-07)
(0.198222 0.00588029 9.49869e-07)
(0.198465 0.00612076 1.36999e-06)
(0.19874 0.0063157 1.79266e-06)
(0.199031 0.00646614 2.12565e-06)
(0.199321 0.00657698 2.3411e-06)
(0.199607 0.00665155 2.45984e-06)
(0.199891 0.00669151 2.47676e-06)
(0.200177 0.0066999 2.38768e-06)
(0.200456 0.00667812 2.25492e-06)
(0.200724 0.00662414 2.14634e-06)
(0.20097 0.00653595 2.03083e-06)
(0.2012 0.00641536 1.7946e-06)
(0.201413 0.00626691 1.34895e-06)
(0.201604 0.00609613 6.97258e-07)
(0.201758 0.0059082 -9.69962e-08)
(0.201877 0.00570906 -9.90084e-07)
(0.201961 0.00550463 -1.99679e-06)
(0.202018 0.00530181 -3.14021e-06)
(0.202046 0.00510701 -4.37337e-06)
(0.202051 0.00492507 -5.60549e-06)
(0.202038 0.00475696 -6.79632e-06)
(0.20202 0.00460213 -7.93584e-06)
(0.201993 0.00445866 -8.96779e-06)
(0.201962 0.00432382 -9.84478e-06)
(0.201926 0.00419471 -1.05974e-05)
(0.201893 0.00407062 -1.12619e-05)
(0.201855 0.00395181 -1.18147e-05)
(0.201817 0.0038398 -1.22405e-05)
(0.201777 0.00373483 -1.25879e-05)
(0.201745 0.00363763 -1.28965e-05)
(0.201713 0.00354662 -1.31421e-05)
(0.201688 0.00345958 -1.33148e-05)
(0.201661 0.003373 -1.34619e-05)
(0.201644 0.00328634 -1.36035e-05)
(0.20162 0.00320003 -1.37139e-05)
(0.201604 0.00311587 -1.37987e-05)
(0.201584 0.00303316 -1.38877e-05)
(0.201571 0.00295036 -1.39786e-05)
(0.201549 0.0028638 -1.40605e-05)
(0.201533 0.00277394 -1.4143e-05)
(0.201506 0.00268163 -1.42309e-05)
(0.201486 0.00259005 -1.43131e-05)
(0.201454 0.00249899 -1.43809e-05)
(0.201431 0.00240885 -1.44361e-05)
(0.201397 0.00231839 -1.44767e-05)
(0.201375 0.00222865 -1.44991e-05)
(0.201339 0.00213877 -1.45034e-05)
(0.201316 0.00204998 -1.44904e-05)
(0.201277 0.00196058 -1.44542e-05)
(0.201253 0.00187176 -1.43919e-05)
(0.201209 0.00178185 -1.43041e-05)
(0.201181 0.00169213 -1.41896e-05)
(0.201131 0.0016015 -1.4045e-05)
(0.201097 0.00151181 -1.38707e-05)
(0.201039 0.00142215 -1.36596e-05)
(0.200999 0.00133464 -1.34083e-05)
(0.200931 0.00124766 -1.31201e-05)
(0.200885 0.00116354 -1.27965e-05)
(0.200807 0.00108053 -1.24266e-05)
(0.200752 0.00100031 -1.2011e-05)
(0.200663 0.000920984 -1.15525e-05)
(0.200602 0.000844649 -1.10511e-05)
(0.200504 0.000769729 -1.04986e-05)
(0.200438 0.000699179 -9.89985e-06)
(0.200334 0.00063125 -9.25197e-06)
(0.200266 0.000568671 -8.55461e-06)
(0.200155 0.000509593 -7.80376e-06)
(0.200086 0.000456227 -7.00937e-06)
(0.19997 0.0004061 -6.1672e-06)
(0.1999 0.000361043 -5.28366e-06)
(0.199778 0.000318116 -4.36008e-06)
(0.199709 0.000279635 -3.41615e-06)
(0.199585 0.000243493 -2.45923e-06)
(0.199522 0.000211924 -1.52745e-06)
(0.199399 0.000182938 -6.66308e-07)
(0.199342 0.00015848 2.12056e-08)
(0.199218 0.000136691 4.22823e-07)
(0.199165 0.000119537 4.2519e-07)
(0.199033 0.000106759 2.27067e-07)
(0.198975 0.000100117 7.98065e-07)
(0.198825 9.94148e-05 4.53213e-06)
(0.198757 0.000100813 1.46557e-05)
(0.198605 9.70281e-05 3.28024e-05)
(0.198563 7.32546e-05 5.65427e-05)
(0.198429 2.36379e-05 8.13911e-05)
(0.198395 -5.56702e-05 0.000103692)
(0.198242 -0.000153143 0.00012282)
(0.198185 -0.000260764 0.000133076)
(0.198001 -0.00035537 0.000128481)
(0.197944 -0.000427045 0.000109136)
(0.197763 -0.000468421 8.06716e-05)
(0.197731 -0.000476674 5.10904e-05)
(0.197553 -0.000449144 2.52428e-05)
(0.197513 -0.000357753 7.98529e-06)
(0.197271 -0.000237554 -7.35235e-07)
(0.197994 0.00421791 -2.91099e-08)
(0.198051 0.0045052 -1.17111e-07)
(0.198128 0.0047916 -2.08735e-07)
(0.19823 0.0050709 -2.55702e-07)
(0.19836 0.00533559 -2.0912e-07)
(0.198518 0.0055777 -3.76608e-08)
(0.198708 0.00579051 2.54377e-07)
(0.198927 0.00596889 6.21185e-07)
(0.199165 0.00611132 9.92349e-07)
(0.199408 0.00621998 1.32229e-06)
(0.19965 0.00629726 1.60642e-06)
(0.199895 0.0063442 1.8431e-06)
(0.200143 0.00636146 2.03378e-06)
(0.200382 0.00634939 2.20555e-06)
(0.200608 0.00630823 2.36949e-06)
(0.200819 0.00623995 2.48952e-06)
(0.20102 0.00614707 2.52248e-06)
(0.20121 0.00603105 2.43949e-06)
(0.20138 0.00589394 2.21054e-06)
(0.20152 0.00573984 1.81586e-06)
(0.201631 0.00557463 1.25795e-06)
(0.201716 0.00540352 5.34161e-07)
(0.201779 0.00523159 -3.63571e-07)
(0.201817 0.00506355 -1.39375e-06)