/*--------------------------------*- C++ -*----------------------------------*\
| =========                 |                                                 |
| \\      /  F ield         | OpenFOAM: The Open Source CFD Toolbox           |
|  \\    /   O peration     | Version:  2.3.0                                 |
|   \\  /    A nd           | Web:      www.OpenFOAM.org                      |
|    \\/     M anipulation  |                                                 |
\*---------------------------------------------------------------------------*/
FoamFile
{
    version     2.0;
    format      ascii;
    class       volVectorField;
    location    "0.3";
    object      U_0;
}
// * * * * * * * * * * * * * * * * * * * * * * * * * * * * * * * * * * * * * //

dimensions      [0 1 -1 0 0 0 0];

internalField   nonuniform List<vector> 
3375
(
(0.170644 0.00599969 0)
(0.154115 0.0060598 0)
(0.13823 0.00563419 0)
(0.123183 0.00502909 0)
(0.109382 0.00436132 0)
(0.0969975 0.00368451 0)
(0.0860414 0.00303574 0)
(0.0764799 0.00244076 0)
(0.0682559 0.00191523 0)
(0.0612824 0.0014671 0)
(0.0554432 0.001098 0)
(0.0506025 0.000804277 0)
(0.0466168 0.000578261 0)
(0.0433447 0.000409932 0)
(0.0406543 0.000288491 0)
(0.0384287 0.000203588 0)
(0.0365684 0.000146072 0)
(0.0349918 0.000108333 0)
(0.0336345 8.43432e-05 0)
(0.0324467 6.95275e-05 0)
(0.0313911 6.05603e-05 0)
(0.03044 5.51269e-05 0)
(0.0295733 5.16917e-05 0)
(0.0287764 4.92897e-05 0)
(0.0280386 4.7353e-05 0)
(0.027352 4.55753e-05 0)
(0.0267106 4.38122e-05 0)
(0.0261096 4.2013e-05 0)
(0.0255453 4.01756e-05 0)
(0.0250144 3.83195e-05 0)
(0.0245142 3.64705e-05 0)
(0.0240423 3.46526e-05 0)
(0.0235965 3.28848e-05 0)
(0.0231751 3.11804e-05 0)
(0.0227762 2.95476e-05 0)
(0.0223983 2.79901e-05 0)
(0.0220401 2.6509e-05 0)
(0.0217003 2.51027e-05 0)
(0.0213778 2.37685e-05 0)
(0.0210716 2.25027e-05 0)
(0.0207808 2.13014e-05 0)
(0.0205046 2.01603e-05 0)
(0.0202423 1.90754e-05 0)
(0.0199932 1.80426e-05 0)
(0.0197568 1.70582e-05 0)
(0.0195325 1.61187e-05 0)
(0.0193199 1.52207e-05 0)
(0.0191185 1.43611e-05 0)
(0.018928 1.3537e-05 0)
(0.0187481 1.27457e-05 0)
(0.0185784 1.19849e-05 0)
(0.0184188 1.12526e-05 0)
(0.0182689 1.05478e-05 0)
(0.0181287 9.87003e-06 0)
(0.0179978 9.21996e-06 0)
(0.0178763 8.59856e-06 0)
(0.0177639 8.00595e-06 0)
(0.0176605 7.43889e-06 0)
(0.0175661 6.8867e-06 0)
(0.0174808 6.32554e-06 0)
(0.0174047 5.71171e-06 0)
(0.0173385 4.97799e-06 0)
(0.017283 4.04819e-06 0)
(0.0172395 2.9097e-06 0)
(0.0172098 1.7009e-06 0)
(0.0171965 7.40506e-07 0)
(0.0171996 -5.19196e-07 0)
(0.0172143 -1.60903e-06 0)
(0.0172384 -2.58255e-06 0)
(0.0172701 -3.33357e-06 0)
(0.0173072 -3.83615e-06 0)
(0.0173481 -4.11771e-06 0)
(0.0173909 -4.22651e-06 0)
(0.0174344 -4.2019e-06 0)
(0.0174774 -4.07756e-06 0)
(0.0175191 -3.88236e-06 0)
(0.0175589 -3.64149e-06 0)
(0.0175964 -3.37585e-06 0)
(0.0176315 -3.10145e-06 0)
(0.017664 -2.82977e-06 0)
(0.0176939 -2.56852e-06 0)
(0.0177214 -2.32241e-06 0)
(0.0177466 -2.09388e-06 0)
(0.0177695 -1.88382e-06 0)
(0.0177904 -1.69206e-06 0)
(0.0178094 -1.5178e-06 0)
(0.0178266 -1.35987e-06 0)
(0.0178422 -1.21699e-06 0)
(0.0178563 -1.08785e-06 0)
(0.017869 -9.71207e-07 0)
(0.0178804 -8.65897e-07 0)
(0.0178907 -7.70872e-07 0)
(0.0178999 -6.85188e-07 0)
(0.0179081 -6.08032e-07 0)
(0.0179155 -5.38806e-07 0)
(0.017922 -4.77545e-07 0)
(0.0179278 -4.27025e-07 0)
(0.0179331 -4.0549e-07 0)
(0.0179376 -5.26464e-07 0)
(0.0179515 -1.93887e-06 0)
(0.18955 0.00945999 0)
(0.187216 0.00996455 0)
(0.183281 0.0097417 0)
(0.178102 0.00924435 0)
(0.172177 0.00860959 0)
(0.165853 0.00788414 0)
(0.159353 0.0071066 0)
(0.152844 0.00631254 0)
(0.14646 0.00553182 0)
(0.140301 0.00478901 0)
(0.134436 0.0041033 0)
(0.128904 0.00348788 0)
(0.123725 0.00294967 0)
(0.118902 0.0024898 0)
(0.114427 0.00210468 0)
(0.110284 0.00178741 0)
(0.106454 0.0015292 0)
(0.102914 0.00132061 0)
(0.0996399 0.00115249 0)
(0.0966083 0.00101662 0)
(0.0937971 0.00090598 0)
(0.0911853 0.00081488 0)
(0.0887538 0.000738823 0)
(0.0864855 0.000674373 0)
(0.0843649 0.000618949 0)
(0.0823783 0.00057064 0)
(0.0805134 0.000528036 0)
(0.0787597 0.000490093 0)
(0.0771076 0.00045603 0)
(0.0755486 0.000425252 0)
(0.0740755 0.000397292 0)
(0.0726815 0.00037178 0)
(0.0713609 0.00034841 0)
(0.0701085 0.000326927 0)
(0.0689196 0.000307111 0)
(0.0677901 0.000288776 0)
(0.0667162 0.000271758 0)
(0.0656948 0.000255913 0)
(0.0647227 0.000241118 0)
(0.0637974 0.00022726 0)
(0.0629165 0.000214243 0)
(0.0620778 0.000201981 0)
(0.0612794 0.000190398 0)
(0.0605196 0.000179425 0)
(0.0597969 0.000169002 0)
(0.05911 0.000159075 0)
(0.0584575 0.000149596 0)
(0.0578385 0.00014052 0)
(0.0572521 0.000131808 0)
(0.0566973 0.000123424 0)
(0.0561736 0.000115336 0)
(0.0556803 0.000107514 0)
(0.0552169 9.99326e-05 0)
(0.054783 9.25706e-05 0)
(0.0543784 8.54079e-05 0)
(0.0540027 7.84245e-05 0)
(0.0536558 7.15959e-05 0)
(0.0533378 6.48858e-05 0)
(0.0530488 5.82365e-05 0)
(0.0527893 5.1557e-05 0)
(0.0525598 4.47117e-05 0)
(0.0523615 3.75141e-05 0)
(0.0521958 2.97403e-05 0)
(0.0520644 2.12062e-05 0)
(0.0519688 1.18907e-05 0)
(0.0519104 2.20316e-06 0)
(0.051893 -6.80507e-06 0)
(0.0519112 -1.32919e-05 0)
(0.0519548 -1.77089e-05 0)
(0.0520175 -2.08897e-05 0)
(0.052094 -2.30832e-05 0)
(0.0521799 -2.43249e-05 0)
(0.0522714 -2.47284e-05 0)
(0.0523653 -2.44524e-05 0)
(0.0524592 -2.36716e-05 0)
(0.0525512 -2.25419e-05 0)
(0.05264 -2.11916e-05 0)
(0.0527246 -1.97221e-05 0)
(0.0528045 -1.82106e-05 0)
(0.0528794 -1.67124e-05 0)
(0.0529492 -1.5265e-05 0)
(0.0530139 -1.38918e-05 0)
(0.0530737 -1.26053e-05 0)
(0.0531288 -1.14107e-05 0)
(0.0531794 -1.03081e-05 0)
(0.0532258 -9.29447e-06 0)
(0.0532683 -8.36516e-06 0)
(0.0533071 -7.51475e-06 0)
(0.0533424 -6.73764e-06 0)
(0.0533744 -6.02846e-06 0)
(0.0534035 -5.38219e-06 0)
(0.0534297 -4.79423e-06 0)
(0.0534534 -4.26055e-06 0)
(0.0534746 -3.77787e-06 0)
(0.0534936 -3.34449e-06 0)
(0.0535107 -2.96345e-06 0)
(0.0535259 -2.65431e-06 0)
(0.0535397 -2.50519e-06 0)
(0.0535524 -2.92315e-06 0)
(0.0535755 -6.00818e-06 0)
(0.192537 0.00908805 0)
(0.193302 0.0100394 0)
(0.193427 0.0103756 0)
(0.192762 0.0103846 0)
(0.191419 0.0101639 0)
(0.189514 0.00975164 0)
(0.187136 0.00919296 0)
(0.184374 0.00853783 0)
(0.181318 0.00783204 0)
(0.178056 0.00711445 0)
(0.174665 0.00641625 0)
(0.171209 0.00576035 0)
(0.167739 0.00516124 0)
(0.164293 0.00462587 0)
(0.160902 0.0041551 0)
(0.157586 0.0037455 0)
(0.154357 0.00339106 0)
(0.151224 0.00308465 0)
(0.148191 0.00281905 0)
(0.14526 0.00258758 0)
(0.14243 0.00238445 0)
(0.139699 0.00220483 0)
(0.137066 0.0020448 0)
(0.134529 0.00190123 0)
(0.132084 0.00177164 0)
(0.129729 0.00165405 0)
(0.127462 0.00154688 0)
(0.125279 0.00144884 0)
(0.123178 0.00135886 0)
(0.121155 0.00127605 0)
(0.119209 0.00119964 0)
(0.117336 0.00112897 0)
(0.115535 0.00106346 0)
(0.113802 0.00100258 0)
(0.112136 0.000945884 0)
(0.110533 0.000892957 0)
(0.108992 0.000843434 0)
(0.107512 0.000796987 0)
(0.106089 0.00075332 0)
(0.104722 0.000712169 0)
(0.10341 0.000673294 0)
(0.10215 0.000636479 0)
(0.100942 0.000601529 0)
(0.0997836 0.000568268 0)
(0.0986744 0.000536536 0)
(0.0976131 0.000506186 0)
(0.0965986 0.000477085 0)
(0.0956301 0.00044911 0)
(0.094707 0.000422151 0)
(0.0938287 0.000396104 0)
(0.0929946 0.000370874 0)
(0.0922043 0.000346377 0)
(0.0914577 0.000322532 0)
(0.0907545 0.000299267 0)
(0.0900948 0.000276512 0)
(0.0894785 0.000254196 0)
(0.0889059 0.000232237 0)
(0.0883773 0.000210532 0)
(0.0878933 0.000188947 0)
(0.0874546 0.000167306 0)
(0.0870622 0.000145393 0)
(0.086717 0.000122972 0)
(0.0864202 9.9834e-05 0)
(0.0861725 7.58764e-05 0)
(0.0859735 5.1166e-05 0)
(0.0858207 2.59062e-05 0)
(0.0857082 1.23983e-06 0)
(0.0856466 -2.02685e-05 0)
(0.085635 -3.62136e-05 0)
(0.0856601 -4.67998e-05 0)
(0.0857129 -5.36382e-05 0)
(0.0857864 -5.77845e-05 0)
(0.0858744 -5.98117e-05 0)
(0.0859722 -6.00933e-05 0)
(0.0860758 -5.90019e-05 0)
(0.0861819 -5.69033e-05 0)
(0.0862882 -5.41225e-05 0)
(0.0863928 -5.09259e-05 0)
(0.0864944 -4.75183e-05 0)
(0.086592 -4.40502e-05 0)
(0.0866851 -4.06274e-05 0)
(0.0867733 -3.73197e-05 0)
(0.0868564 -3.41696e-05 0)
(0.0869345 -3.11998e-05 0)
(0.0870075 -2.84195e-05 0)
(0.0870757 -2.58287e-05 0)
(0.087139 -2.34223e-05 0)
(0.0871978 -2.11924e-05 0)
(0.0872521 -1.913e-05 0)
(0.0873022 -1.72255e-05 0)
(0.0873482 -1.54702e-05 0)
(0.0873904 -1.38557e-05 0)
(0.0874289 -1.23747e-05 0)
(0.087464 -1.10217e-05 0)
(0.0874958 -9.79447e-06 0)
(0.0875245 -8.70196e-06 0)
(0.0875505 -7.78809e-06 0)
(0.0875741 -7.22301e-06 0)
(0.0875955 -7.66949e-06 0)
(0.0876242 -1.1215e-05 0)
(0.193577 0.00844464 0)
(0.1947 0.00948874 0)
(0.195725 0.0100458 0)
(0.196438 0.0102913 0)
(0.196815 0.0103051 0)
(0.196862 0.0101194 0)
(0.196574 0.00976961 0)
(0.195955 0.00929839 0)
(0.19503 0.00874765 0)
(0.193836 0.00815485 0)
(0.192413 0.0075518 0)
(0.190805 0.00696371 0)
(0.189051 0.00640855 0)
(0.187189 0.00589728 0)
(0.185249 0.00543487 0)
(0.183256 0.00502171 0)
(0.181231 0.00465509 0)
(0.179189 0.00433051 0)
(0.177141 0.0040427 0)
(0.175096 0.00378637 0)
(0.17306 0.00355663 0)
(0.171038 0.0033492 0)
(0.169034 0.0031605 0)
(0.16705 0.00298762 0)
(0.165089 0.00282821 0)
(0.163154 0.00268042 0)
(0.161246 0.00254277 0)
(0.159367 0.00241407 0)
(0.157518 0.00229339 0)
(0.155702 0.00217992 0)
(0.153919 0.00207301 0)
(0.152171 0.00197209 0)
(0.150457 0.00187666 0)
(0.14878 0.00178629 0)
(0.14714 0.00170056 0)
(0.145538 0.00161913 0)
(0.143973 0.00154165 0)
(0.142448 0.00146783 0)
(0.140961 0.00139737 0)
(0.139514 0.00133002 0)
(0.138106 0.00126554 0)
(0.136739 0.00120369 0)
(0.135412 0.00114426 0)
(0.134125 0.00108706 0)
(0.13288 0.0010319 0)
(0.131675 0.000978604 0)
(0.130512 0.000927006 0)
(0.129391 0.000876952 0)
(0.128312 0.000828294 0)
(0.127276 0.000780893 0)
(0.126283 0.00073462 0)
(0.125334 0.00068935 0)
(0.124428 0.000644967 0)
(0.123568 0.000601359 0)
(0.122754 0.000558415 0)
(0.121985 0.000516019 0)
(0.121264 0.000474041 0)
(0.120592 0.000432327 0)
(0.119969 0.000390693 0)
(0.119396 0.000348922 0)
(0.118875 0.000306785 0)
(0.118408 0.000264086 0)
(0.117994 0.000220756 0)
(0.117634 0.000177003 0)
(0.117326 0.000133493 0)
(0.11707 9.13054e-05 0)
(0.11686 5.11416e-05 0)
(0.116685 1.36058e-05 0)
(0.11655 -1.97307e-05 0)
(0.116468 -4.64783e-05 0)
(0.11643 -6.56334e-05 0)
(0.116426 -7.83639e-05 0)
(0.11645 -8.62483e-05 0)
(0.116495 -9.04684e-05 0)
(0.116556 -9.18636e-05 0)
(0.116629 -9.10942e-05 0)
(0.116711 -8.87268e-05 0)
(0.116798 -8.52456e-05 0)
(0.116888 -8.10425e-05 0)
(0.116979 -7.64204e-05 0)
(0.11707 -7.16039e-05 0)
(0.11716 -6.67533e-05 0)
(0.117248 -6.1978e-05 0)
(0.117333 -5.73491e-05 0)
(0.117415 -5.29093e-05 0)
(0.117494 -4.8682e-05 0)
(0.117569 -4.46773e-05 0)
(0.117641 -4.08973e-05 0)
(0.117709 -3.73393e-05 0)
(0.117773 -3.3998e-05 0)
(0.117833 -3.08674e-05 0)
(0.11789 -2.7941e-05 0)
(0.117943 -2.52133e-05 0)
(0.117992 -2.26805e-05 0)
(0.118037 -2.03437e-05 0)
(0.118079 -1.82184e-05 0)
(0.118117 -1.63645e-05 0)
(0.118153 -1.49868e-05 0)
(0.118184 -1.47837e-05 0)
(0.118221 -1.75712e-05 0)
(0.194315 0.00793825 0)
(0.195297 0.00891617 0)
(0.196354 0.00950869 0)
(0.197318 0.00982589 0)
(0.198144 0.00993785 0)
(0.198815 0.00987414 0)
(0.199305 0.0096607 0)
(0.199592 0.0093295 0)
(0.199666 0.00891393 0)
(0.199533 0.00844536 0)
(0.199206 0.00795166 0)
(0.198705 0.0074562 0)
(0.198052 0.00697682 0)
(0.197272 0.00652569 0)
(0.196386 0.00610969 0)
(0.195415 0.00573144 0)
(0.194375 0.00539042 0)
(0.19328 0.00508407 0)
(0.192142 0.00480874 0)
(0.190967 0.00456042 0)
(0.189763 0.00433518 0)
(0.188535 0.00412944 0)
(0.187286 0.00394015 0)
(0.186021 0.00376476 0)
(0.184742 0.00360118 0)
(0.183453 0.00344778 0)
(0.182155 0.00330322 0)
(0.18085 0.00316645 0)
(0.179542 0.00303663 0)
(0.178232 0.00291306 0)
(0.176923 0.00279516 0)
(0.175616 0.00268244 0)
(0.174314 0.00257447 0)
(0.173018 0.00247089 0)
(0.17173 0.00237135 0)
(0.170452 0.00227555 0)
(0.169185 0.00218321 0)
(0.167931 0.00209408 0)
(0.166693 0.00200792 0)
(0.16547 0.0019245 0)
(0.164265 0.00184362 0)
(0.163079 0.00176508 0)
(0.161913 0.0016887 0)
(0.160769 0.0016143 0)
(0.159648 0.00154171 0)
(0.158552 0.00147077 0)
(0.157481 0.00140134 0)
(0.156438 0.00133326 0)
(0.155423 0.00126638 0)
(0.154437 0.00120058 0)
(0.153483 0.00113572 0)
(0.152561 0.00107166 0)
(0.151673 0.0010083 0)
(0.150821 0.000945493 0)
(0.150005 0.000883129 0)
(0.149227 0.00082107 0)
(0.148489 0.000759169 0)
(0.147793 0.000697258 0)
(0.14714 0.000635146 0)
(0.146532 0.000572637 0)
(0.14597 0.000509562 0)
(0.145455 0.000445851 0)
(0.144988 0.000381648 0)
(0.14457 0.000317454 0)
(0.144199 0.000254268 0)
(0.143874 0.000193598 0)
(0.143593 0.000137191 0)
(0.143353 8.59182e-05 0)
(0.143145 3.94652e-05 0)
(0.142961 -1.69583e-06 0)
(0.142814 -3.62062e-05 0)
(0.142708 -6.30217e-05 0)
(0.142635 -8.23071e-05 0)
(0.142592 -9.53495e-05 0)
(0.142573 -0.000103512 0)
(0.142575 -0.000107895 0)
(0.142594 -0.000109365 0)
(0.142626 -0.000108634 0)
(0.142669 -0.000106289 0)
(0.14272 -0.000102807 0)
(0.142778 -9.85618e-05 0)
(0.14284 -9.38367e-05 0)
(0.142906 -8.88425e-05 0)
(0.142974 -8.37308e-05 0)
(0.143043 -7.86081e-05 0)
(0.143112 -7.35472e-05 0)
(0.143182 -6.85968e-05 0)
(0.143251 -6.37885e-05 0)
(0.143318 -5.91425e-05 0)
(0.143384 -5.46717e-05 0)
(0.143449 -5.03841e-05 0)
(0.143511 -4.62853e-05 0)
(0.14357 -4.238e-05 0)
(0.143627 -3.86733e-05 0)
(0.143682 -3.5175e-05 0)
(0.143733 -3.19085e-05 0)
(0.143782 -2.89384e-05 0)
(0.143827 -2.64518e-05 0)
(0.143868 -2.49987e-05 0)
(0.143913 -2.57603e-05 0)
(0.194945 0.00750318 0)
(0.195753 0.0083765 0)
(0.196678 0.00895381 0)
(0.197594 0.009295 0)
(0.198455 0.00945367 0)
(0.19924 0.00945673 0)
(0.199928 0.00932534 0)
(0.200495 0.00908497 0)
(0.200926 0.00876322 0)
(0.201216 0.00838666 0)
(0.201367 0.00797937 0)
(0.201387 0.007562 0)
(0.201289 0.00715094 0)
(0.201086 0.00675796 0)
(0.200792 0.00639047 0)
(0.200422 0.00605211 0)
(0.199988 0.00574364 0)
(0.199499 0.00546384 0)
(0.198965 0.00521028 0)
(0.198392 0.00497996 0)
(0.197784 0.00476978 0)
(0.197145 0.00457679 0)
(0.196479 0.00439836 0)
(0.195787 0.00423225 0)
(0.195073 0.00407659 0)
(0.194336 0.00392985 0)
(0.19358 0.0037908 0)
(0.192806 0.00365844 0)
(0.192015 0.00353197 0)
(0.191209 0.00341072 0)
(0.190389 0.00329416 0)
(0.189557 0.00318181 0)
(0.188714 0.0030733 0)
(0.187862 0.00296827 0)
(0.187003 0.00286643 0)
(0.186138 0.0027675 0)
(0.185268 0.00267123 0)
(0.184395 0.00257741 0)
(0.18352 0.00248581 0)
(0.182646 0.00239626 0)
(0.181773 0.00230855 0)
(0.180903 0.00222253 0)
(0.180038 0.00213803 0)
(0.179178 0.0020549 0)
(0.178327 0.00197297 0)
(0.177484 0.00189212 0)
(0.176652 0.00181219 0)
(0.175832 0.00173305 0)
(0.175026 0.00165456 0)
(0.174235 0.00157661 0)
(0.173462 0.00149905 0)
(0.172706 0.00142178 0)
(0.171972 0.00134466 0)
(0.171259 0.00126757 0)
(0.17057 0.00119039 0)
(0.169906 0.00111298 0)
(0.16927 0.00103521 0)
(0.168663 0.000956909 0)
(0.168086 0.000877925 0)
(0.167542 0.000798119 0)
(0.167033 0.000717424 0)
(0.166558 0.000635929 0)
(0.166119 0.000553993 0)
(0.165716 0.000472368 0)
(0.165349 0.00039229 0)
(0.165017 0.000315429 0)
(0.164719 0.000243627 0)
(0.164453 0.000178318 0)
(0.164218 0.000120387 0)
(0.164011 6.95137e-05 0)
(0.163823 2.50315e-05 0)
(0.163653 -1.29051e-05 0)
(0.16351 -4.38205e-05 0)
(0.163395 -6.7626e-05 0)
(0.163303 -8.50572e-05 0)
(0.163234 -9.72427e-05 0)
(0.163184 -0.000105247 0)
(0.163151 -0.000109958 0)
(0.163133 -0.000112101 0)
(0.163127 -0.000112272 0)
(0.163133 -0.000110956 0)
(0.163148 -0.000108542 0)
(0.163172 -0.000105333 0)
(0.163201 -0.000101564 0)
(0.163237 -9.74093e-05 0)
(0.163277 -9.3001e-05 0)
(0.16332 -8.84364e-05 0)
(0.163367 -8.37879e-05 0)
(0.163416 -7.91089e-05 0)
(0.163466 -7.44398e-05 0)
(0.163518 -6.98117e-05 0)
(0.16357 -6.52492e-05 0)
(0.163623 -6.07734e-05 0)
(0.163675 -5.64036e-05 0)
(0.163727 -5.21614e-05 0)
(0.163778 -4.80778e-05 0)
(0.163827 -4.42112e-05 0)
(0.163874 -4.0689e-05 0)
(0.163918 -3.77867e-05 0)
(0.163965 -3.565e-05 0)
(0.195499 0.00713158 0)
(0.196167 0.00790131 0)
(0.196953 0.00844678 0)
(0.197766 0.00879272 0)
(0.198559 0.00897527 0)
(0.19931 0.0090177 0)
(0.199999 0.00893858 0)
(0.200609 0.00875927 0)
(0.201125 0.00850319 0)
(0.201541 0.00819328 0)
(0.201856 0.0078505 0)
(0.202075 0.00749306 0)
(0.202205 0.00713574 0)
(0.202255 0.00678961 0)
(0.202236 0.00646206 0)
(0.202158 0.00615726 0)
(0.202029 0.00587682 0)
(0.201859 0.00562046 0)
(0.201652 0.00538668 0)
(0.201415 0.0051733 0)
(0.201151 0.00497789 0)
(0.200863 0.00479802 0)
(0.200553 0.00463142 0)
(0.200222 0.00447612 0)
(0.199872 0.0043304 0)
(0.199503 0.00419285 0)
(0.199117 0.00406228 0)
(0.198713 0.00393774 0)
(0.198293 0.00381842 0)
(0.197858 0.00370369 0)
(0.197408 0.00359298 0)
(0.196944 0.00348584 0)
(0.196466 0.00338188 0)
(0.195976 0.00328076 0)
(0.195475 0.00318216 0)
(0.194963 0.00308583 0)
(0.19444 0.00299152 0)
(0.193909 0.002899 0)
(0.193371 0.00280807 0)
(0.192825 0.00271855 0)
(0.192274 0.00263024 0)
(0.191717 0.00254299 0)
(0.191158 0.00245663 0)
(0.190595 0.002371 0)
(0.190032 0.00228597 0)
(0.189468 0.00220138 0)
(0.188906 0.00211709 0)
(0.188346 0.00203298 0)
(0.187789 0.00194891 0)
(0.187238 0.00186475 0)
(0.186693 0.00178037 0)
(0.186155 0.00169566 0)
(0.185627 0.00161048 0)
(0.18511 0.00152471 0)
(0.184605 0.00143824 0)
(0.184114 0.00135094 0)
(0.183638 0.00126267 0)
(0.183179 0.00117331 0)
(0.182738 0.00108274 0)
(0.182317 0.000990897 0)
(0.181917 0.000897824 0)
(0.181538 0.000803755 0)
(0.181182 0.000709225 0)
(0.180848 0.000615164 0)
(0.180536 0.000522943 0)
(0.180247 0.000434284 0)
(0.179979 0.000351007 0)
(0.179733 0.000274636 0)
(0.179509 0.000206187 0)
(0.179305 0.00014609 0)
(0.179121 9.42377e-05 0)
(0.178954 4.97289e-05 0)
(0.178798 1.18304e-05 0)
(0.178656 -1.97135e-05 0)
(0.178531 -4.50684e-05 0)
(0.178423 -6.47011e-05 0)
(0.178332 -7.94233e-05 0)
(0.178255 -9.0123e-05 0)
(0.178192 -9.75797e-05 0)
(0.178142 -0.00010244 0)
(0.178103 -0.000105239 0)
(0.178074 -0.000106411 0)
(0.178055 -0.000106311 0)
(0.178043 -0.000105219 0)
(0.17804 -0.000103359 0)
(0.178043 -0.000100903 0)
(0.178052 -9.79856e-05 0)
(0.178066 -9.4711e-05 0)
(0.178085 -9.11607e-05 0)
(0.178107 -8.73988e-05 0)
(0.178134 -8.34761e-05 0)
(0.178163 -7.94342e-05 0)
(0.178195 -7.53081e-05 0)
(0.178229 -7.11287e-05 0)
(0.178265 -6.69259e-05 0)
(0.178302 -6.27327e-05 0)
(0.17834 -5.85897e-05 0)
(0.178378 -5.45417e-05 0)
(0.178415 -5.05444e-05 0)
(0.178455 -4.5588e-05 0)
(0.195989 0.0068116 0)
(0.196549 0.00748642 0)
(0.197216 0.00799125 0)
(0.197926 0.0083302 0)
(0.198635 0.00852491 0)
(0.199319 0.00859393 0)
(0.19996 0.00855328 0)
(0.200541 0.00842076 0)
(0.201051 0.00821611 0)
(0.201485 0.00795902 0)
(0.201839 0.0076678 0)
(0.202118 0.00735856 0)
(0.202327 0.00704466 0)
(0.202472 0.00673643 0)
(0.202562 0.00644117 0)
(0.202605 0.00616337 0)
(0.202609 0.00590526 0)
(0.202581 0.00566732 0)
(0.202527 0.00544883 0)
(0.202449 0.00524832 0)
(0.202353 0.00506397 0)
(0.20224 0.00489381 0)
(0.202113 0.00473598 0)
(0.201972 0.00458873 0)
(0.201818 0.00445054 0)
(0.201652 0.00432011 0)
(0.201475 0.00419633 0)
(0.201286 0.00407827 0)
(0.201087 0.00396515 0)
(0.200876 0.00385632 0)
(0.200655 0.00375124 0)
(0.200423 0.00364942 0)
(0.200182 0.00355046 0)
(0.19993 0.00345401 0)
(0.199669 0.00335975 0)
(0.199399 0.00326739 0)
(0.199121 0.00317669 0)
(0.198834 0.00308739 0)
(0.198539 0.0029993 0)
(0.198237 0.0029122 0)
(0.197928 0.0028259 0)
(0.197613 0.00274023 0)
(0.197293 0.00265502 0)
(0.196967 0.0025701 0)
(0.196637 0.00248531 0)
(0.196304 0.0024005 0)
(0.195968 0.00231553 0)
(0.19563 0.00223025 0)
(0.19529 0.00214451 0)
(0.194951 0.00205819 0)
(0.194612 0.00197115 0)
(0.194274 0.00188326 0)
(0.193939 0.00179439 0)
(0.193608 0.00170442 0)
(0.193281 0.00161323 0)
(0.19296 0.0015207 0)
(0.192645 0.00142671 0)
(0.192338 0.00133116 0)
(0.19204 0.00123398 0)
(0.191751 0.00113519 0)
(0.191472 0.00103491 0)
(0.191203 0.000933495 0)
(0.190946 0.000831596 0)
(0.190699 0.000730233 0)
(0.190464 0.000630816 0)
(0.190239 0.000535044 0)
(0.190026 0.000444667 0)
(0.189824 0.000361178 0)
(0.189635 0.000285622 0)
(0.189458 0.000218563 0)
(0.189294 0.000160078 0)
(0.189143 0.000109896 0)
(0.189003 6.73312e-05 0)
(0.188874 3.13462e-05 0)
(0.188752 1.23253e-06 0)
(0.188639 -2.35046e-05 0)
(0.188537 -4.33542e-05 0)
(0.188446 -5.89136e-05 0)
(0.188365 -7.08794e-05 0)
(0.188294 -7.98961e-05 0)
(0.188231 -8.65102e-05 0)
(0.188177 -9.11721e-05 0)
(0.188131 -9.4252e-05 0)
(0.188092 -9.60507e-05 0)
(0.188059 -9.68109e-05 0)
(0.188033 -9.67267e-05 0)
(0.188013 -9.59524e-05 0)
(0.187998 -9.46106e-05 0)
(0.187988 -9.27984e-05 0)
(0.187982 -9.05931e-05 0)
(0.187981 -8.80566e-05 0)
(0.187985 -8.5239e-05 0)
(0.187991 -8.21812e-05 0)
(0.188001 -7.89179e-05 0)
(0.188014 -7.54791e-05 0)
(0.18803 -7.18907e-05 0)
(0.188048 -6.81667e-05 0)
(0.188068 -6.42671e-05 0)
(0.188089 -5.98777e-05 0)
(0.188113 -5.31647e-05 0)
(0.196424 0.00653044 0)
(0.1969 0.00712099 0)
(0.197469 0.00758188 0)
(0.198086 0.00790684 0)
(0.198715 0.00810678 0)
(0.199329 0.00819509 0)
(0.199913 0.00818489 0)
(0.20045 0.0080908 0)
(0.20093 0.0079292 0)
(0.201348 0.00771686 0)
(0.201701 0.00746964 0)
(0.20199 0.00720177 0)
(0.20222 0.0069253 0)
(0.202397 0.00664983 0)
(0.202527 0.00638242 0)
(0.202617 0.00612776 0)
(0.202674 0.00588856 0)
(0.202704 0.00566589 0)
(0.202713 0.0054597 0)
(0.202703 0.00526916 0)
(0.202679 0.005093 0)
(0.202644 0.00492972 0)
(0.202598 0.00477781 0)
(0.202544 0.00463581 0)
(0.202481 0.00450242 0)
(0.202412 0.00437647 0)
(0.202336 0.00425693 0)
(0.202253 0.00414294 0)
(0.202165 0.00403376 0)
(0.20207 0.00392876 0)
(0.201969 0.00382739 0)
(0.201862 0.00372918 0)
(0.201749 0.00363372 0)
(0.201631 0.00354064 0)
(0.201507 0.00344962 0)
(0.201377 0.00336036 0)
(0.201242 0.00327261 0)
(0.201101 0.0031861 0)
(0.200956 0.00310062 0)
(0.200805 0.00301595 0)
(0.200649 0.00293188 0)
(0.200489 0.00284823 0)
(0.200325 0.0027648 0)
(0.200156 0.00268143 0)
(0.199983 0.00259795 0)
(0.199807 0.00251419 0)
(0.199628 0.00242999 0)
(0.199446 0.00234519 0)
(0.199262 0.00225965 0)
(0.199075 0.00217321 0)
(0.198887 0.00208574 0)
(0.198699 0.0019971 0)
(0.198509 0.00190716 0)
(0.19832 0.00181578 0)
(0.198131 0.00172286 0)
(0.197943 0.00162827 0)
(0.197756 0.00153191 0)
(0.197572 0.00143372 0)
(0.19739 0.00133367 0)
(0.197211 0.00123182 0)
(0.197035 0.00112839 0)
(0.196862 0.00102378 0)
(0.196692 0.000918708 0)
(0.196525 0.000814216 0)
(0.19636 0.000711681 0)
(0.196199 0.000612712 0)
(0.196041 0.000518952 0)
(0.195888 0.000431821 0)
(0.195739 0.000352354 0)
(0.195597 0.000281145 0)
(0.195461 0.00021837 0)
(0.195333 0.000163879 0)
(0.195213 0.000117196 0)
(0.1951 7.76846e-05 0)
(0.194995 4.44731e-05 0)
(0.194896 1.66707e-05 0)
(0.194802 -6.39723e-06 0)
(0.194714 -2.52702e-05 0)
(0.194634 -4.04784e-05 0)
(0.194559 -5.25731e-05 0)
(0.194491 -6.20783e-05 0)
(0.194429 -6.94458e-05 0)
(0.194372 -7.50529e-05 0)
(0.19432 -7.92096e-05 0)
(0.194274 -8.21701e-05 0)
(0.194232 -8.41407e-05 0)
(0.194194 -8.52883e-05 0)
(0.19416 -8.57471e-05 0)
(0.194131 -8.56247e-05 0)
(0.194106 -8.50065e-05 0)
(0.194084 -8.39606e-05 0)
(0.194065 -8.25408e-05 0)
(0.194051 -8.07892e-05 0)
(0.194039 -7.87387e-05 0)
(0.194031 -7.64138e-05 0)
(0.194026 -7.38278e-05 0)
(0.194024 -7.09664e-05 0)
(0.194024 -6.77233e-05 0)
(0.194026 -6.36334e-05 0)
(0.194031 -5.66575e-05 0)
(0.196812 0.00627931 0)
(0.197221 0.00679666 0)
(0.19771 0.00721404 0)
(0.198246 0.00752093 0)
(0.198801 0.00772097 0)
(0.19935 0.00782289 0)
(0.199877 0.00783688 0)
(0.200369 0.00777477 0)
(0.200814 0.00764996 0)
(0.201208 0.00747654 0)
(0.201547 0.00726814 0)
(0.201831 0.00703722 0)
(0.202065 0.00679455 0)
(0.202251 0.00654894 0)
(0.202395 0.00630712 0)
(0.202504 0.00607385 0)
(0.202583 0.00585212 0)
(0.202637 0.0056435 0)
(0.202672 0.00544847 0)
(0.202691 0.00526674 0)
(0.202697 0.00509754 0)
(0.202694 0.00493982 0)
(0.202682 0.00479241 0)
(0.202663 0.00465415 0)
(0.202639 0.00452394 0)
(0.202611 0.00440076 0)
(0.202578 0.00428372 0)
(0.202542 0.00417203 0)
(0.202502 0.004065 0)
(0.202459 0.00396205 0)
(0.202414 0.00386265 0)
(0.202365 0.00376635 0)
(0.202313 0.00367274 0)
(0.202259 0.00358147 0)
(0.202202 0.00349222 0)
(0.202142 0.00340468 0)
(0.20208 0.0033186 0)
(0.202015 0.00323372 0)
(0.201947 0.00314981 0)
(0.201877 0.00306665 0)
(0.201805 0.00298403 0)
(0.20173 0.00290175 0)
(0.201652 0.00281963 0)
(0.201573 0.00273747 0)
(0.201491 0.0026551 0)
(0.201406 0.00257235 0)
(0.20132 0.00248905 0)
(0.201232 0.00240504 0)
(0.201141 0.00232016 0)
(0.20105 0.00223425 0)
(0.200956 0.00214717 0)
(0.200861 0.00205879 0)
(0.200765 0.00196895 0)
(0.200667 0.00187754 0)
(0.200568 0.00178444 0)
(0.200469 0.00168954 0)
(0.200369 0.00159277 0)
(0.200268 0.00149407 0)
(0.200166 0.00139346 0)
(0.200063 0.00129105 0)
(0.19996 0.00118709 0)
(0.199855 0.00108204 0)
(0.199748 0.000976608 0)
(0.19964 0.000871823 0)
(0.19953 0.000768976 0)
(0.199418 0.000669552 0)
(0.199305 0.000575056 0)
(0.199191 0.000486809 0)
(0.199078 0.000405805 0)
(0.198966 0.000332651 0)
(0.198857 0.000267581 0)
(0.198752 0.000210512 0)
(0.198651 0.000161091 0)
(0.198555 0.000118786 0)
(0.198464 8.29208e-05 0)
(0.198378 5.27662e-05 0)
(0.198296 2.75332e-05 0)
(0.198218 6.50836e-06 0)
(0.198145 -1.08723e-05 0)
(0.198075 -2.51059e-05 0)
(0.19801 -3.66539e-05 0)
(0.197949 -4.59451e-05 0)
(0.197891 -5.33562e-05 0)
(0.197837 -5.92051e-05 0)
(0.197786 -6.37568e-05 0)
(0.197738 -6.72299e-05 0)
(0.197693 -6.9804e-05 0)
(0.197651 -7.16258e-05 0)
(0.197611 -7.28139e-05 0)
(0.197574 -7.34637e-05 0)
(0.19754 -7.36505e-05 0)
(0.197509 -7.34326e-05 0)
(0.19748 -7.28542e-05 0)
(0.197454 -7.19467e-05 0)
(0.19743 -7.0729e-05 0)
(0.197409 -6.92025e-05 0)
(0.197391 -6.73315e-05 0)
(0.197375 -6.49754e-05 0)
(0.197362 -6.16518e-05 0)
(0.19735 -5.5676e-05 0)
(0.197158 0.00605226 0)
(0.197514 0.00650669 0)
(0.197936 0.00688298 0)
(0.198402 0.00716962 0)
(0.198891 0.00736588 0)
(0.199381 0.00747671 0)
(0.199856 0.00750965 0)
(0.200303 0.00747402 0)
(0.200713 0.00738068 0)
(0.201081 0.00724131 0)
(0.201402 0.00706746 0)
(0.201677 0.00686994 0)
(0.201906 0.00665827 0)
(0.202094 0.00644045 0)
(0.202244 0.00622281 0)
(0.202362 0.00601 0)
(0.202452 0.00580522 0)
(0.202518 0.00561036 0)
(0.202566 0.00542633 0)
(0.202599 0.00525329 0)
(0.202619 0.00509091 0)
(0.20263 0.00493851 0)
(0.202633 0.00479528 0)
(0.20263 0.0046603 0)
(0.202622 0.0045327 0)
(0.20261 0.00441164 0)
(0.202596 0.00429634 0)
(0.202578 0.00418611 0)
(0.202558 0.00408034 0)
(0.202537 0.00397848 0)
(0.202514 0.00388005 0)
(0.202489 0.00378464 0)
(0.202463 0.00369184 0)
(0.202436 0.00360134 0)
(0.202408 0.0035128 0)
(0.202379 0.00342596 0)
(0.202349 0.00334054 0)
(0.202319 0.0032563 0)
(0.202287 0.00317302 0)
(0.202254 0.00309047 0)
(0.202221 0.00300845 0)
(0.202187 0.00292677 0)
(0.202151 0.00284522 0)
(0.202115 0.00276363 0)
(0.202079 0.00268182 0)
(0.202041 0.00259962 0)
(0.202002 0.00251685 0)
(0.201963 0.00243336 0)
(0.201922 0.00234898 0)
(0.20188 0.00226356 0)
(0.201838 0.00217695 0)
(0.201794 0.00208902 0)
(0.201749 0.00199963 0)
(0.201703 0.00190866 0)
(0.201655 0.001816 0)
(0.201606 0.00172156 0)
(0.201556 0.00162527 0)
(0.201503 0.00152712 0)
(0.201449 0.00142716 0)
(0.201392 0.00132551 0)
(0.201332 0.00122246 0)
(0.201269 0.00111849 0)
(0.201203 0.0010143 0)
(0.201132 0.000910839 0)
(0.201057 0.000809306 0)
(0.200978 0.000711045 0)
(0.200896 0.000617412 0)
(0.20081 0.000529617 0)
(0.200722 0.000448591 0)
(0.200634 0.000374935 0)
(0.200545 0.000308921 0)
(0.200458 0.000250528 0)
(0.200373 0.000199487 0)
(0.20029 0.000155354 0)
(0.200211 0.000117556 0)
(0.200135 8.54541e-05 0)
(0.200062 5.83889e-05 0)
(0.199993 3.57018e-05 0)
(0.199927 1.67579e-05 0)
(0.199864 1.0145e-06 0)
(0.199804 -1.19865e-05 0)
(0.199746 -2.26529e-05 0)
(0.199691 -3.1346e-05 0)
(0.199638 -3.8385e-05 0)
(0.199587 -4.40443e-05 0)
(0.199538 -4.85555e-05 0)
(0.199491 -5.21126e-05 0)
(0.199446 -5.4877e-05 0)
(0.199403 -5.69812e-05 0)
(0.199361 -5.85333e-05 0)
(0.199321 -5.9619e-05 0)
(0.199282 -6.03052e-05 0)
(0.199246 -6.0641e-05 0)
(0.199211 -6.06595e-05 0)
(0.199178 -6.03776e-05 0)
(0.199148 -5.97901e-05 0)
(0.199119 -5.88512e-05 0)
(0.199093 -5.74191e-05 0)
(0.19907 -5.50945e-05 0)
(0.199045 -5.08178e-05 0)
(0.197469 0.00584512 0)
(0.19778 0.00624567 0)
(0.198146 0.00658422 0)
(0.198553 0.0068499 0)
(0.198984 0.00703962 0)
(0.199419 0.00715558 0)
(0.199845 0.00720301 0)
(0.200251 0.00718909 0)
(0.200627 0.00712248 0)
(0.200968 0.00701273 0)
(0.201271 0.00686954 0)
(0.201533 0.00670215 0)
(0.201756 0.00651891 0)
(0.201942 0.00632701 0)
(0.202095 0.00613228 0)
(0.202217 0.00593922 0)
(0.202313 0.00575107 0)
(0.202388 0.00556995 0)
(0.202444 0.00539709 0)
(0.202485 0.00523301 0)
(0.202514 0.00507772 0)
(0.202533 0.00493092 0)
(0.202544 0.00479206 0)
(0.202549 0.0046605 0)
(0.202549 0.00453557 0)
(0.202546 0.00441658 0)
(0.202539 0.00430291 0)
(0.202529 0.00419394 0)
(0.202518 0.00408916 0)
(0.202505 0.00398808 0)
(0.202492 0.00389025 0)
(0.202477 0.0037953 0)
(0.202461 0.00370286 0)
(0.202445 0.00361262 0)
(0.202429 0.00352429 0)
(0.202412 0.00343759 0)
(0.202395 0.00335228 0)
(0.202378 0.00326813 0)
(0.202361 0.00318491 0)
(0.202344 0.00310242 0)
(0.202327 0.00302045 0)
(0.20231 0.00293882 0)
(0.202293 0.00285734 0)
(0.202276 0.00277583 0)
(0.202259 0.00269411 0)
(0.202241 0.00261203 0)
(0.202224 0.00252941 0)
(0.202206 0.0024461 0)
(0.202189 0.00236194 0)
(0.20217 0.00227678 0)
(0.202152 0.00219049 0)
(0.202132 0.00210292 0)
(0.202112 0.00201396 0)
(0.202091 0.0019235 0)
(0.202068 0.00183143 0)
(0.202044 0.00173768 0)
(0.202019 0.00164221 0)
(0.201991 0.00154504 0)
(0.201961 0.00144621 0)
(0.201928 0.00134591 0)
(0.201891 0.00124443 0)
(0.201851 0.00114223 0)
(0.201806 0.00104 0)
(0.201757 0.00093862 0)
(0.201702 0.00083917 0)
(0.201643 0.000742857 0)
(0.201579 0.000650892 0)
(0.201511 0.000564368 0)
(0.201439 0.000484147 0)
(0.201366 0.00041081 0)
(0.201292 0.000344651 0)
(0.201217 0.000285698 0)
(0.201143 0.000233757 0)
(0.20107 0.000188461 0)
(0.201 0.000149321 0)
(0.200931 0.000115778 0)
(0.200865 8.72418e-05 0)
(0.200802 6.31196e-05 0)