/*--------------------------------*- C++ -*----------------------------------*\
| =========                 |                                                 |
| \\      /  F ield         | OpenFOAM: The Open Source CFD Toolbox           |
|  \\    /   O peration     | Version:  2.3.0                                 |
|   \\  /    A nd           | Web:      www.OpenFOAM.org                      |
|    \\/     M anipulation  |                                                 |
\*---------------------------------------------------------------------------*/
FoamFile
{
    version     2.0;
    format      ascii;
    class       volScalarField;
    location    "0.85";
    object      p;
}
// * * * * * * * * * * * * * * * * * * * * * * * * * * * * * * * * * * * * * //

dimensions      [0 2 -2 0 0 0 0];

internalField   nonuniform List<scalar> 
8750
(
0.00259928
0.00201218
0.00153368
0.00118886
0.000903915
0.000647869
0.000420689
0.000226959
6.81778e-05
-5.6668e-05
-0.00015016
-0.00021611
-0.000259184
-0.000284353
-0.000296351
-0.00029929
-0.000296473
-0.000290371
-0.000282706
-0.000274592
-0.000266683
-0.000259317
-0.000252627
-0.000246619
-0.000241239
-0.000236404
-0.000232026
-0.000228023
-0.000224326
-0.000220877
-0.000217631
-0.00021455
-0.000211609
-0.000208784
-0.000206058
-0.000203416
-0.000200849
-0.000198345
-0.000195896
-0.000193495
-0.000191135
-0.000188809
-0.000186514
-0.000184243
-0.000181992
-0.000179757
-0.000177533
-0.000175319
-0.000173109
-0.000170901
-0.000168692
-0.000166479
-0.000164261
-0.000162034
-0.000159796
-0.000157545
-0.00015528
-0.000152998
-0.000150697
-0.000148376
-0.000146032
-0.000143665
-0.000141272
-0.000138852
-0.000136403
-0.000133923
-0.00013141
-0.000128863
-0.00012628
-0.000123658
-0.000120997
-0.000118293
-0.000115545
-0.00011275
-0.000109907
-0.000107011
-0.000104061
-0.000101054
-9.79864e-05
-9.48553e-05
-9.16569e-05
-8.83874e-05
-8.50429e-05
-8.16188e-05
-7.81104e-05
-7.45126e-05
-7.08196e-05
-6.70256e-05
-6.31238e-05
-5.9107e-05
-5.49672e-05
-5.06955e-05
-4.62818e-05
-4.17148e-05
-3.69804e-05
-3.20609e-05
-2.69326e-05
-2.15589e-05
-1.56812e-05
-1.21021e-05
0.00232125
0.00190291
0.00151024
0.00119746
0.00092668
0.000677833
0.000453765
0.000260663
0.000101062
-2.54851e-05
-0.000121223
-0.00018972
-0.000235452
-0.000263248
-0.000277737
-0.000282965
-0.000282199
-0.000277899
-0.000271791
-0.000265005
-0.000258221
-0.000251803
-0.000245909
-0.000240574
-0.000235764
-0.000231414
-0.000227453
-0.000223812
-0.00022043
-0.000217259
-0.000214258
-0.000211397
-0.000208652
-0.000206004
-0.000203438
-0.000200943
-0.000198509
-0.000196127
-0.00019379
-0.000191493
-0.000189228
-0.000186992
-0.000184778
-0.000182584
-0.000180405
-0.000178236
-0.000176076
-0.000173919
-0.000171765
-0.000169609
-0.000167449
-0.000165282
-0.000163107
-0.000160922
-0.000158723
-0.00015651
-0.000154279
-0.000152031
-0.000149762
-0.000147471
-0.000145157
-0.000142817
-0.00014045
-0.000138055
-0.00013563
-0.000133173
-0.000130682
-0.000128156
-0.000125593
-0.000122991
-0.000120349
-0.000117663
-0.000114932
-0.000112154
-0.000109326
-0.000106445
-0.00010351
-0.000100517
-9.74635e-05
-9.43455e-05
-9.11598e-05
-8.79026e-05
-8.45698e-05
-8.11571e-05
-7.76597e-05
-7.40724e-05
-7.03896e-05
-6.66054e-05
-6.2713e-05
-5.87052e-05
-5.4574e-05
-5.03105e-05
-4.59047e-05
-4.1345e-05
-3.66173e-05
-3.17035e-05
-2.65789e-05
-2.12041e-05
-1.5204e-05
-1.21278e-05
0.00211809
0.00180574
0.00147288
0.00118471
0.000929553
0.000694347
0.000480956
0.000294867
0.000138836
1.29293e-05
-8.44663e-05
-0.000156205
-0.000206058
-0.00023825
-0.000256961
-0.000265957
-0.000268369
-0.000266633
-0.000262526
-0.000257266
-0.00025163
-0.000246075
-0.000240835
-0.000236006
-0.000231598
-0.000227578
-0.000223897
-0.000220499
-0.000217334
-0.000214357
-0.000211534
-0.000208836
-0.00020624
-0.00020373
-0.000201292
-0.000198914
-0.000196588
-0.000194306
-0.000192062
-0.00018985
-0.000187665
-0.000185503
-0.000183358
-0.000181228
-0.000179108
-0.000176995
-0.000174886
-0.000172779
-0.00017067
-0.000168557
-0.000166437
-0.000164309
-0.00016217
-0.000160018
-0.000157852
-0.000155669
-0.000153467
-0.000151246
-0.000149003
-0.000146737
-0.000144446
-0.000142129
-0.000139784
-0.00013741
-0.000135004
-0.000132566
-0.000130093
-0.000127584
-0.000125038
-0.000122451
-0.000119824
-0.000117153
-0.000114436
-0.000111671
-0.000108856
-0.000105989
-0.000103066
-0.000100084
-9.70418e-05
-9.39347e-05
-9.07595e-05
-8.75126e-05
-8.41897e-05
-8.07866e-05
-7.72984e-05
-7.37201e-05
-7.0046e-05
-6.62703e-05
-6.23861e-05
-5.83863e-05
-5.42629e-05
-5.0007e-05
-4.56087e-05
-4.10565e-05
-3.63365e-05
-3.14315e-05
-2.63184e-05
-2.09586e-05
-1.50591e-05
-1.31781e-05
0.00194614
0.00170231
0.00142043
0.00116057
0.000925531
0.000707823
0.000508545
0.000332397
0.00018233
5.89489e-05
-3.87296e-05
-0.000112852
-0.00016646
-0.000203112
-0.000226457
-0.000239885
-0.000246301
-0.000248038
-0.000246856
-0.000244008
-0.000240337
-0.00023637
-0.000232414
-0.000228624
-0.000225065
-0.000221746
-0.000218649
-0.000215744
-0.000212999
-0.000210385
-0.000207878
-0.000205458
-0.000203108
-0.000200816
-0.000198573
-0.000196371
-0.000194204
-0.000192066
-0.000189953
-0.00018786
-0.000185784
-0.000183722
-0.00018167
-0.000179624
-0.000177583
-0.000175544
-0.000173503
-0.000171459
-0.000169409
-0.000167351
-0.000165283
-0.000163203
-0.000161109
-0.000159
-0.000156874
-0.000154729
-0.000152563
-0.000150375
-0.000148164
-0.000145929
-0.000143666
-0.000141377
-0.000139057
-0.000136707
-0.000134325
-0.000131909
-0.000129458
-0.000126969
-0.000124442
-0.000121875
-0.000119265
-0.000116611
-0.00011391
-0.000111161
-0.000108362
-0.000105508
-0.000102599
-9.96317e-05
-9.66023e-05
-9.35078e-05
-9.03448e-05
-8.71097e-05
-8.37982e-05
-8.04062e-05
-7.69288e-05
-7.3361e-05
-6.96973e-05
-6.59315e-05
-6.20571e-05
-5.80669e-05
-5.39531e-05
-4.97068e-05
-4.53184e-05
-4.07765e-05
-3.60686e-05
-3.11798e-05
-2.60945e-05
-2.07971e-05
-1.52548e-05
-1.50379e-05
0.00179407
0.00159953
0.00136326
0.00113304
0.000918864
0.000718477
0.000533338
0.000367639
0.00022442
0.000104681
7.90905e-06
-6.74927e-05
-0.000123953
-0.000164427
-0.000192038
-0.000209765
-0.000220237
-0.000225622
-0.000227609
-0.000227448
-0.000226017
-0.000223901
-0.000221468
-0.000218936
-0.00021642
-0.000213976
-0.000211621
-0.000209352
-0.000207159
-0.000205029
-0.000202949
-0.000200908
-0.000198897
-0.000196911
-0.000194942
-0.000192989
-0.000191047
-0.000189113
-0.000187186
-0.000185263
-0.000183342
-0.000181421
-0.000179499
-0.000177574
-0.000175643
-0.000173705
-0.000171758
-0.000169801
-0.000167832
-0.000165849
-0.000163851
-0.000161836
-0.000159804
-0.000157752
-0.000155679
-0.000153584
-0.000151465
-0.000149322
-0.000147153
-0.000144957
-0.000142732
-0.000140477
-0.000138191
-0.000135873
-0.000133521
-0.000131133
-0.000128709
-0.000126247
-0.000123744
-0.0001212
-0.000118613
-0.00011598
-0.0001133
-0.000110571
-0.000107791
-0.000104956
-0.000102064
-9.91134e-05
-9.61002e-05
-9.30215e-05
-8.98738e-05
-8.66534e-05
-8.33562e-05
-7.99781e-05
-7.65143e-05
-7.29598e-05
-6.9309e-05
-6.5556e-05
-6.16942e-05
-5.77166e-05
-5.36154e-05
-4.9382e-05
-4.50072e-05
-4.04806e-05
-3.57916e-05
-3.09308e-05
-2.58988e-05
-2.07403e-05
-1.57816e-05
-1.73457e-05
0.00166326
0.0015044
0.00130584
0.00110297
0.000908583
0.000724532
0.000553044
0.00039789
0.000262033
0.000146719
5.17989e-05
-2.38809e-05
-8.22361e-05
-0.00012569
-0.000156881
-0.000178394
-0.000192566
-0.000201381
-0.00020643
-0.00020893
-0.000209769
-0.000209568
-0.000208744
-0.000207564
-0.000206191
-0.000204717
-0.000203195
-0.000201648
-0.000200086
-0.000198514
-0.000196929
-0.000195332
-0.00019372
-0.000192094
-0.000190453
-0.000188797
-0.000187126
-0.000185441
-0.000183741
-0.000182026
-0.000180297
-0.000178553
-0.000176793
-0.000175018
-0.000173226
-0.000171417
-0.000169589
-0.000167743
-0.000165877
-0.00016399
-0.000162082
-0.000160151
-0.000158197
-0.000156218
-0.000154214
-0.000152183
-0.000150126
-0.00014804
-0.000145924
-0.000143778
-0.000141601
-0.000139392
-0.000137148
-0.000134871
-0.000132557
-0.000130206
-0.000127816
-0.000125386
-0.000122915
-0.000120401
-0.000117842
-0.000115236
-0.000112583
-0.000109878
-0.000107121
-0.000104309
-0.00010144
-9.85102e-05
-9.55174e-05
-9.24584e-05
-8.93297e-05
-8.61278e-05
-8.28487e-05
-7.94881e-05
-7.60414e-05
-7.25036e-05
-6.88692e-05
-6.51325e-05
-6.12869e-05
-5.73255e-05
-5.32409e-05
-4.90247e-05
-4.46684e-05
-4.01632e-05
-3.5502e-05
-3.06841e-05
-2.57362e-05
-2.07934e-05
-1.65398e-05
-1.96161e-05
0.00155047
0.00141728
0.00124886
0.00107042
0.000894752
0.000726259
0.00056791
0.000423172
0.000294861
0.000184398
9.19441e-05
1.67237e-05
-4.27405e-05
-8.8413e-05
-0.000122502
-0.000147228
-0.000164654
-0.000176571
-0.000184459
-0.00018948
-0.000192514
-0.0001942
-0.000194987
-0.000195178
-0.000194976
-0.000194507
-0.000193854
-0.000193064
-0.000192169
-0.000191186
-0.000190129
-0.000189005
-0.000187821
-0.000186584
-0.000185296
-0.000183964
-0.000182589
-0.000181175
-0.000179726
-0.000178242
-0.000176726
-0.000175179
-0.000173603
-0.000171997
-0.000170363
-0.000168701
-0.000167011
-0.000165292
-0.000163546
-0.000161771
-0.000159967
-0.000158135
-0.000156272
-0.00015438
-0.000152458
-0.000150504
-0.000148518
-0.0001465
-0.000144449
-0.000142364
-0.000140245
-0.00013809
-0.000135898
-0.000133669
-0.000131402
-0.000129095
-0.000126747
-0.000124358
-0.000121925
-0.000119447
-0.000116923
-0.000114351
-0.000111729
-0.000109055
-0.000106327
-0.000103543
-0.000100701
-9.77971e-05
-9.48295e-05
-9.17948e-05
-8.86897e-05
-8.55106e-05
-8.22537e-05
-7.89149e-05
-7.54894e-05
-7.19725e-05
-6.83588e-05
-6.46425e-05
-6.08174e-05
-5.68767e-05
-5.28132e-05
-4.86194e-05
-4.42875e-05
-3.9811e-05
-3.51873e-05
-3.04279e-05
-2.5592e-05
-2.09121e-05
-1.73431e-05
-2.13422e-05
0.00145215
0.00133787
0.0011935
0.00103655
0.00087834
0.00072451
0.000578601
0.000443901
0.00032308
0.00021767
0.000128089
5.38834e-05
-6.05321e-06
-5.3292e-05
-8.96641e-05
-0.000117065
-0.000137295
-0.000151963
-0.000162425
-0.00016978
-0.000174882
-0.000178373
-0.000180722
-0.00018226
-0.000183218
-0.000183755
-0.000183976
-0.000183953
-0.000183733
-0.000183352
-0.000182833
-0.000182195
-0.000181451
-0.000180613
-0.00017969
-0.000178692
-0.000177624
-0.000176494
-0.000175305
-0.000174063
-0.000172771
-0.000171432
-0.000170048
-0.000168622
-0.000167156
-0.00016565
-0.000164106
-0.000162525
-0.000160907
-0.000159253
-0.000157563
-0.000155837
-0.000154075
-0.000152278
-0.000150444
-0.000148575
-0.000146669
-0.000144727
-0.000142748
-0.000140731
-0.000138676
-0.000136582
-0.000134449
-0.000132275
-0.00013006
-0.000127804
-0.000125504
-0.00012316
-0.000120771
-0.000118335
-0.00011585
-0.000113317
-0.000110731
-0.000108093
-0.000105399
-0.000102648
-9.98369e-05
-9.69638e-05
-9.40256e-05
-9.10195e-05
-8.79421e-05
-8.47901e-05
-8.15596e-05
-7.82465e-05
-7.48464e-05
-7.13545e-05
-6.77656e-05
-6.4074e-05
-6.02738e-05
-5.63583e-05
-5.23209e-05
-4.81546e-05
-4.38532e-05
-3.94125e-05
-3.48357e-05
-3.01475e-05
-2.54398e-05
-2.10249e-05
-1.79912e-05
-2.21508e-05
0.0013656
0.00126573
0.00114065
0.00100231
0.00086007
0.000719882
0.000585635
0.000460503
0.000347016
0.000246761
0.00016035
8.76022e-05
2.77218e-05
-2.05247e-05
-5.86391e-05
-8.82229e-05
-0.000110839
-0.000127914
-0.000140683
-0.000150172
-0.000157198
-0.000162395
-0.000166239
-0.000169082
-0.000171177
-0.000172705
-0.000173795
-0.000174536
-0.000174994
-0.000175217
-0.00017524
-0.00017509
-0.000174789
-0.000174355
-0.000173801
-0.000173141
-0.000172385
-0.000171541
-0.000170618
-0.000169621
-0.000168557
-0.000167429
-0.000166243
-0.000165001
-0.000163707
-0.000162362
-0.000160969
-0.000159529
-0.000158044
-0.000156515
-0.000154942
-0.000153327
-0.00015167
-0.000149972
-0.000148232
-0.000146451
-0.000144629
-0.000142767
-0.000140863
-0.000138918
-0.000136931
-0.000134903
-0.000132831
-0.000130717
-0.000128559
-0.000126356
-0.000124108
-0.000121813
-0.000119471
-0.00011708
-0.00011464
-0.000112148
-0.000109603
-0.000107003
-0.000104347
-0.000101631
-9.88555e-05
-9.60161e-05
-9.31108e-05
-9.01365e-05
-8.70903e-05
-8.39686e-05
-8.07678e-05
-7.74839e-05
-7.41127e-05
-7.06493e-05
-6.70887e-05
-6.34256e-05
-5.96541e-05
-5.57679e-05
-5.1761e-05
-4.76271e-05
-4.33614e-05
-3.89627e-05
-3.44399e-05
-2.983e-05
-2.52509e-05
-2.10589e-05
-1.83311e-05
-2.1897e-05
0.00128877
0.00120022
0.00109072
0.000968338
0.000840497
0.000712893
0.000589523
0.000473457
0.000367087
0.00027201
0.000188982
0.00011804
5.86538e-05
9.87717e-06
-2.95042e-05
-6.08304e-05
-8.54447e-05
-0.000104603
-0.000119421
-0.000130843
-0.000139644
-0.00014644
-0.000151705
-0.000155803
-0.000159001
-0.000161499
-0.000163444
-0.000164942
-0.000166074
-0.000166899
-0.000167464
-0.000167803
-0.000167946
-0.000167917
-0.000167734
-0.000167413
-0.00016697
-0.000166415
-0.000165758
-0.000165009
-0.000164174
-0.000163261
-0.000162273
-0.000161218
-0.000160097
-0.000158915
-0.000157674
-0.000156377
-0.000155027
-0.000153624
-0.000152171
-0.000150669
-0.000149118
-0.000147521
-0.000145876
-0.000144186
-0.00014245
-0.000140669
-0.000138843
-0.000136972
-0.000135055
-0.000133094
-0.000131086
-0.000129033
-0.000126933
-0.000124786
-0.000122592
-0.000120348
-0.000118056
-0.000115712
-0.000113317
-0.000110869
-0.000108366
-0.000105807
-0.00010319
-0.000100514
-9.77746e-05
-9.49712e-05
-9.21008e-05
-8.91607e-05
-8.61478e-05
-8.30588e-05
-7.98901e-05
-7.66379e-05
-7.3298e-05
-6.98658e-05
-6.63364e-05
-6.27046e-05
-5.89649e-05
-5.51114e-05
-5.11384e-05
-4.70408e-05
-4.28151e-05
-3.84628e-05
-3.39979e-05
-2.94667e-05
-2.50016e-05
-2.09613e-05
-1.82922e-05
-2.06732e-05
0.00122002
0.00114063
0.00104385
0.000935103
0.000820111
0.000704028
0.000590751
0.000483222
0.000383702
0.00029376
0.000214252
0.000145388
8.68586e-05
3.79621e-05
-2.26736e-06
-3.49381e-05
-6.1194e-05
-8.21319e-05
-9.87474e-05
-0.000111905
-0.00012233
-0.000130611
-0.000137217
-0.000142511
-0.000146773
-0.000150216
-0.000152999
-0.000155243
-0.000157042
-0.000158465
-0.000159569
-0.000160396
-0.000160984
-0.000161359
-0.000161547
-0.000161567
-0.000161437
-0.000161172
-0.000160783
-0.000160282
-0.000159678
-0.000158979
-0.000158192
-0.000157323
-0.000156377
-0.000155359
-0.000154272
-0.000153119
-0.000151904
-0.00015063
-0.000149297
-0.000147908
-0.000146466
-0.000144969
-0.000143422
-0.000141823
-0.000140174
-0.000138475
-0.000136727
-0.000134931
-0.000133085
-0.000131192
-0.000129249
-0.000127258
-0.000125217
-0.000123127
-0.000120987
-0.000118796
-0.000116554
-0.000114259
-0.000111911
-0.000109507
-0.000107048
-0.000104531
-0.000101955
-9.9317e-05
-9.66163e-05
-9.38501e-05
-9.10161e-05
-8.81115e-05
-8.51333e-05
-8.20785e-05
-7.89435e-05
-7.57247e-05
-7.24178e-05
-6.90186e-05
-6.55224e-05
-6.1924e-05
-5.82184e-05
-5.44e-05
-5.04636e-05
-4.6405e-05
-4.22222e-05
-3.79188e-05
-3.35126e-05
-2.90549e-05
-2.46789e-05
-2.07098e-05
-1.78882e-05
-1.87431e-05
0.00115808
0.00108626
0.00100001
0.000902911
0.000799312
0.000693705
0.000589746
0.000490214
0.000397235
0.000312334
0.000236423
0.000169845
0.000112471
6.38054e-05
2.3096e-05
-1.05616e-05
-3.81316e-05
-6.05626e-05
-7.87363e-05
-9.34356e-05
-0.000105332
-0.000114982
-0.000122841
-0.000129269
-0.00013455
-0.000138905
-0.000142504
-0.000145481
-0.000147936
-0.000149952
-0.000151591
-0.000152904
-0.000153934
-0.000154714
-0.000155272
-0.000155633
-0.000155818
-0.000155843
-0.000155723
-0.000155471
-0.000155099
-0.000154616
-0.000154031
-0.00015335
-0.000152579
-0.000151726
-0.000150793
-0.000149786
-0.000148707
-0.000147561
-0.00014635
-0.000145076
-0.000143741
-0.000142347
-0.000140897
-0.00013939
-0.000137828
-0.000136213
-0.000134544
-0.000132822
-0.000131049
-0.000129224
-0.000127347
-0.000125418
-0.000123437
-0.000121405
-0.00011932
-0.000117182
-0.00011499
-0.000112744
-0.000110443
-0.000108085
-0.00010567
-0.000103195
-0.00010066
-9.80627e-05
-9.5401e-05
-9.26729e-05
-8.98759e-05
-8.70077e-05
-8.40652e-05
-8.10455e-05
-7.79453e-05
-7.47609e-05
-7.14883e-05
-6.81234e-05
-6.46616e-05
-6.10983e-05
-5.74283e-05
-5.36467e-05
-4.97489e-05
-4.57312e-05
-4.15929e-05
-3.73393e-05
-3.29899e-05
-2.85965e-05
-2.42815e-05
-2.03109e-05
-1.7193e-05
-1.64402e-05
0.00110193
0.00103651
0.00095907
0.000871951
0.000778412
0.000682278
0.00058688
0.000494805
0.000408038
0.000328041
0.000255752
0.000191611
0.000135633
8.74948e-05
4.66266e-05
1.23016e-05
-1.62832e-05
-3.99405e-05
-5.94437e-05
-7.54955e-05
-8.87108e-05
-9.96122e-05
-0.000108633
-0.000116127
-0.000122376
-0.000127607
-0.000131997
-0.000135686
-0.000138785
-0.000141384
-0.000143552
-0.000145347
-0.000146817
-0.000148
-0.000148928
-0.00014963
-0.000150129
-0.000150445
-0.000150595
-0.000150593
-0.000150454
-0.000150188
-0.000149804
-0.000149312
-0.000148719
-0.000148031
-0.000147254
-0.000146393
-0.000145452
-0.000144435
-0.000143346
-0.000142187
-0.000140962
-0.000139671
-0.000138318
-0.000136904
-0.000135431
-0.000133899
-0.00013231
-0.000130664
-0.000128963
-0.000127207
-0.000125396
-0.00012353
-0.00012161
-0.000119636
-0.000117606
-0.000115521
-0.000113381
-0.000111185
-0.000108931
-0.000106619
-0.000104248
-0.000101817
-9.93236e-05
-9.67668e-05
-9.41446e-05
-9.1455e-05
-8.86958e-05
-8.58645e-05
-8.29584e-05
-7.99746e-05
-7.69098e-05
-7.37606e-05
-7.05232e-05
-6.71936e-05
-6.37674e-05
-6.02401e-05
-5.66071e-05
-5.28636e-05
-4.90056e-05
-4.50301e-05
-4.0937e-05
-3.67328e-05
-3.2437e-05
-2.80974e-05
-2.38171e-05
-1.97915e-05
-1.63077e-05
-1.40751e-05
0.00105076
0.000990827
0.000920848
0.000842317
0.000757645
0.000670042
0.000582479
0.000497329
0.000416431
0.000341169
0.000272482
0.000210879
0.000156488
0.000109125
6.8375e-05
3.36663e-05
4.33825e-06
-2.0298e-05
-4.09146e-05
-5.8136e-05
-7.25204e-05
-8.45521e-05
-9.4641e-05
-0.000103128
-0.000110291
-0.000116356
-0.000121506
-0.000125886
-0.000129613
-0.000132783
-0.000135471
-0.000137743
-0.000139648
-0.000141231
-0.000142528
-0.000143569
-0.000144382
-0.000144988
-0.000145408
-0.000145657
-0.000145751
-0.000145703
-0.000145522
-0.00014522
-0.000144805
-0.000144284
-0.000143663
-0.000142949
-0.000142147
-0.000141261
-0.000140295
-0.000139253
-0.000138137
-0.000136951
-0.000135697
-0.000134376
-0.000132992
-0.000131544
-0.000130035
-0.000128467
-0.000126839
-0.000125152
-0.000123408
-0.000121606
-0.000119746
-0.00011783
-0.000115857
-0.000113826
-0.000111738
-0.000109591
-0.000107386
-0.00010512
-0.000102794
-0.000100407
-9.79557e-05
-9.54399e-05
-9.28578e-05
-9.02074e-05
-8.74865e-05
-8.46927e-05
-8.18236e-05
-7.88763e-05
-7.58478e-05
-7.27346e-05
-6.95331e-05
-6.62396e-05
-6.28499e-05
-5.93596e-05
-5.57645e-05
-5.20601e-05
-4.82429e-05
-4.43103e-05
-4.02628e-05
-3.61068e-05
-3.18606e-05
-2.7565e-05
-2.32989e-05
-1.91868e-05
-1.53319e-05
-1.18785e-05
0.00100389
0.000948731
0.000885147
0.000814042
0.000737183
0.000657241
0.000576827
0.000498085
0.000422704
0.000351984
0.000286846
0.00022784
0.000175179
0.000128794
8.84004e-05
5.35573e-05
2.37305e-05
-1.65716e-06
-2.3184e-05
-4.13998e-05
-5.68066e-05
-6.98485e-05
-8.0909e-05
-9.03128e-05
-9.83306e-05
-0.000105186
-0.000111061
-0.000116105
-0.000120441
-0.000124167
-0.000127366
-0.000130105
-0.00013244
-0.000134419
-0.000136081
-0.00013746
-0.000138585
-0.000139481
-0.00014017
-0.00014067
-0.000140998
-0.000141167
-0.000141191
-0.000141079
-0.000140843
-0.000140489
-0.000140026
-0.000139461
-0.000138798
-0.000138043
-0.000137202
-0.000136277
-0.000135272
-0.000134191
-0.000133036
-0.00013181
-0.000130515
-0.000129153
-0.000127726
-0.000126234
-0.00012468
-0.000123064
-0.000121387
-0.000119649
-0.000117852
-0.000115995
-0.000114078
-0.000112102
-0.000110066
-0.00010797
-0.000105813
-0.000103595
-0.000101315
-9.89711e-05
-9.6563e-05
-9.4089e-05
-9.15476e-05
-8.89368e-05
-8.62548e-05
-8.34994e-05
-8.06679e-05
-7.77578e-05
-7.47661e-05
-7.16897e-05
-6.8525e-05
-6.52684e-05
-6.19159e-05
-5.84636e-05
-5.49073e-05
-5.12429e-05
-4.74672e-05
-4.3578e-05
-3.9576e-05
-3.54671e-05
-3.12667e-05
-2.70069e-05
-2.27417e-05
-1.85324e-05
-1.43463e-05
-9.98352e-06
0.000960779
0.000909812
0.00085176
0.000787112
0.000717147
0.000644073
0.000570163
0.000497333
0.00042712
0.000360733
0.00029906
0.000242673
0.000191847
0.000146605
0.000106768
7.20076e-05
4.19005e-05
1.59691e-05
-6.27885e-06
-2.53226e-05
-4.16094e-05
-5.55428e-05
-6.74778e-05
-7.77207e-05
-8.6531e-05
-9.41268e-05
-0.000100689
-0.000106369
-0.00011129
-0.000115556
-0.000119251
-0.000122448
-0.000125205
-0.000127574
-0.000129597
-0.00013131
-0.000132746
-0.00013393
-0.000134887
-0.000135637
-0.000136198
-0.000136586
-0.000136814
-0.000136893
-0.000136836
-0.000136651
-0.000136346
-0.00013593
-0.000135407
-0.000134785
-0.000134069
-0.000133262
-0.000132369
-0.000131394
-0.00013034
-0.000129209
-0.000128005
-0.000126729
-0.000125384
-0.00012397
-0.000122491
-0.000120946
-0.000119337
-0.000117665
-0.000115929
-0.000114132
-0.000112273
-0.000110352
-0.000108369
-0.000106324
-0.000104217
-0.000102047
-9.98127e-05
-9.75139e-05
-9.51494e-05
-9.27178e-05
-9.02177e-05
-8.76474e-05
-8.5005e-05
-8.22884e-05
-7.94953e-05
-7.66232e-05
-7.36692e-05
-7.06302e-05
-6.75031e-05
-6.42843e-05
-6.097e-05
-5.75565e-05
-5.40398e-05
-5.04163e-05
-4.66829e-05
-4.28376e-05
-3.88809e-05
-3.48177e-05
-3.06601e-05
-2.64307e-05
-2.216e-05
-1.78587e-05
-1.34064e-05
-8.43704e-06
0.000920959
0.000873714
0.000820489
0.000761487
0.000697615
0.000630696
0.000562693
0.000495303
0.000429915
0.00036764
0.000309328
0.000255552
0.000206632
0.000162661
0.000123546
8.90571e-05
5.88632e-05
3.25761e-05
9.78192e-06
-9.93305e-06
-2.69632e-05
-4.16718e-05
-5.43845e-05
-6.53868e-05
-7.49255e-05
-8.32106e-05
-9.04199e-05
-9.67027e-05
-0.000102184
-0.000106969
-0.000111146
-0.000114787
-0.000117957
-0.000120709
-0.000123086
-0.00012513
-0.000126872
-0.000128342
-0.000129566
-0.000130565
-0.000131358
-0.000131963
-0.000132395
-0.000132666
-0.000132788
-0.000132772
-0.000132626
-0.000132359
-0.000131978
-0.000131489
-0.000130898
-0.00013021
-0.00012943
-0.000128562
-0.000127609
-0.000126575
-0.000125462
-0.000124273
-0.000123011
-0.000121677
-0.000120272
-0.000118799
-0.000117259
-0.000115653
-0.000113981
-0.000112244
-0.000110443
-0.000108578
-0.00010665
-0.000104657
-0.000102599
-0.000100478
-9.82904e-05
-9.60372e-05
-9.37169e-05
-9.13284e-05
-8.88704e-05
-8.63412e-05
-8.37392e-05
-8.10623e-05
-7.83084e-05
-7.54749e-05
-7.25594e-05
-6.95588e-05
-6.64701e-05
-6.32899e-05
-6.00147e-05
-5.66408e-05
-5.31648e-05
-4.95829e-05
-4.58924e-05
-4.20914e-05
-3.818e-05
-3.41617e-05
-3.00448e-05
-2.58427e-05
-2.15661e-05
-1.71888e-05
-1.25443e-05
-7.2252e-06
0.000884046
0.000840128
0.000791149
0.000737109
0.000678636
0.000617233
0.000554589
0.000492196
0.000431298
0.000372913
0.000317838
0.000266641
0.000219668
0.000177064
0.00013881
0.000104751
7.46403e-05
4.81666e-05
2.49865e-05
4.74691e-06
-1.28966e-05
-2.82677e-05
-4.16623e-05
-5.33443e-05
-6.35454e-05
-7.24663e-05
-8.02789e-05
-8.71298e-05
-9.31436e-05
-9.84256e-05
-0.000103065
-0.000107138
-0.00011071
-0.000113834
-0.00011656
-0.000118928
-0.000120972
-0.000122725
-0.000124213
-0.000125458
-0.000126483
-0.000127305
-0.000127939
-0.000128401
-0.000128703
-0.000128855
-0.000128869
-0.000128752
-0.000128512
-0.000128157
-0.000127692
-0.000127124
-0.000126457
-0.000125697
-0.000124846
-0.000123908
-0.000122888
-0.000121787
-0.000120608
-0.000119354
-0.000118026
-0.000116626
-0.000115155
-0.000113615
-0.000112007
-0.000110332
-0.00010859
-0.000106782
-0.000104908
-0.000102967
-0.000100961
-9.88883e-05
-9.67489e-05
-9.45419e-05
-9.22667e-05
-8.9922e-05
-8.75068e-05
-8.50196e-05
-8.24586e-05
-7.98222e-05
-7.71082e-05
-7.43143e-05
-7.14381e-05
-6.84767e-05
-6.54273e-05
-6.22866e-05
-5.90514e-05
-5.57182e-05
-5.22835e-05
-4.87442e-05
-4.50974e-05
-4.13411e-05
-3.74751e-05
-3.35011e-05
-2.94239e-05
-2.52485e-05
-2.097e-05
-1.65386e-05
-1.17731e-05
-6.30063e-06
0.000849711
0.000808784
0.000763565
0.000713911
0.000660236
0.000603781
0.000545996
0.000488186
0.000431457
0.000376736
0.000324764
0.000276093
0.000231083
0.000189918
0.000152633
0.000119139
8.92594e-05
6.27496e-05
3.93295e-05
1.87013e-05
5.6743e-07
-1.5358e-05
-2.9341e-05
-4.16233e-05
-5.24203e-05
-6.19216e-05
-7.02921e-05
-7.76742e-05
-8.41901e-05
-8.99447e-05
-9.50277e-05
-9.9516e-05
-0.000103476
-0.000106964
-0.000110029
-0.000112714
-0.000115055
-0.000117086
-0.000118834
-0.000120324
-0.000121578
-0.000122614
-0.000123451
-0.000124103
-0.000124584
-0.000124905
-0.000125077
-0.00012511
-0.000125012
-0.00012479
-0.000124453
-0.000124005
-0.000123452
-0.000122799
-0.000122051
-0.000121212
-0.000120284
-0.000119271
-0.000118177
-0.000117003
-0.000115752
-0.000114425
-0.000113025
-0.000111553
-0.000110009
-0.000108396
-0.000106714
-0.000104963
-0.000103144
-0.000101257
-9.93024e-05
-9.72797e-05
-9.51887e-05
-9.30288e-05
-9.07993e-05
-8.84992e-05
-8.61276e-05
-8.3683e-05
-8.1164e-05
-7.85689e-05
-7.58956e-05
-7.31422e-05
-7.03061e-05
-6.73848e-05
-6.43755e-05
-6.12753e-05
-5.8081e-05
-5.47893e-05
-5.13971e-05
-4.79011e-05
-4.42987e-05
-4.05877e-05
-3.67673e-05
-3.28377e-05
-2.88001e-05
-2.46528e-05
-2.03795e-05
-1.59179e-05
-1.10935e-05
-5.60441e-06
0.000817672
0.000779451
0.000737581
0.000691821
0.000642422
0.000590411
0.000537031
0.00048342
0.000430556
0.000379277
0.000330267
0.000284054
0.000241002
0.000201322
0.000165091
0.000132275
0.000102753
7.63399e-05
5.28115e-05
3.19199e-05
1.34107e-05
-2.96571e-06
-1.74465e-05
-3.02507e-05
-4.1577e-05
-5.16028e-05
-6.04844e-05
-6.83587e-05
-7.53447e-05
-8.15455e-05
-8.70503e-05
-9.19361e-05
-9.62697e-05
-0.000100109
-0.000103504
-0.000106498
-0.00010913
-0.000111434
-0.000113438
-0.000115168
-0.000116648
-0.000117898
-0.000118935
-0.000119776
-0.000120434
-0.000120923
-0.000121254
-0.000121436
-0.00012148
-0.000121393
-0.000121182
-0.000120855
-0.000120416
-0.000119872
-0.000119227
-0.000118485
-0.000117651
-0.000116727
-0.000115718
-0.000114625
-0.000113451
-0.000112199
-0.00011087
-0.000109465
-0.000107987
-0.000106437
-0.000104815
-0.000103122
-0.000101359
-9.95266e-05
-9.76243e-05
-9.56522e-05
-9.36103e-05
-9.14982e-05
-8.93151e-05
-8.70605e-05
-8.47332e-05
-8.23321e-05
-7.98558e-05
-7.73027e-05
-7.46711e-05
-7.19589e-05
-6.91638e-05
-6.62835e-05
-6.33154e-05
-6.02565e-05
-5.7104e-05
-5.38548e-05
-5.05059e-05
-4.70541e-05
-4.34969e-05
-3.98319e-05
-3.60576e-05
-3.21728e-05
-2.81757e-05
-2.40592e-05
-1.98e-05
-1.53315e-05
-1.04988e-05
-5.07997e-06
0.000787687
0.000751923
0.000713053
0.000670767
0.000625192
0.000577179
0.000527794
0.000478027
0.000428741
0.000380686
0.000334493
0.000290658
0.000249543
0.000211374
0.000176262
0.000144213
0.000115157
8.89571e-05
6.54383e-05
4.43976e-05
2.56203e-05
8.89044e-06
-6.00095e-06
-1.92508e-05
-3.10404e-05
-4.15341e-05
-5.08791e-05
-5.92055e-05
-6.6628e-05
-7.3247e-05
-7.91502e-05
-8.44142e-05
-8.91056e-05
-9.32827e-05
-9.69963e-05
-0.000100291
-0.000103206
-0.000105776
-0.000108031
-0.000109998
-0.000111701
-0.00011316
-0.000114396
-0.000115423
-0.000116258
-0.000116914
-0.000117403
-0.000117734
-0.000117919
-0.000117966
-0.000117882
-0.000117675
-0.000117351
-0.000116916
-0.000116374
-0.000115731
-0.000114991
-0.000114157
-0.000113232
-0.000112221
-0.000111125
-0.000109948
-0.00010869
-0.000107355
-0.000105943
-0.000104455
-0.000102894
-0.00010126
-9.95543e-05
-9.77763e-05
-9.59269e-05
-9.40063e-05
-9.20142e-05
-8.99505e-05
-8.78147e-05
-8.56062e-05
-8.3324e-05
-8.09671e-05
-7.85343e-05
-7.60242e-05
-7.3435e-05
-7.07648e-05
-6.80117e-05
-6.51733e-05
-6.22471e-05
-5.92306e-05
-5.61208e-05
-5.29151e-05
-4.96103e-05
-4.62037e-05
-4.26925e-05
-3.90743e-05
-3.53468e-05
-3.15077e-05
-2.75525e-05
-2.34708e-05
-1.92351e-05
-1.4781e-05
-9.97855e-06
-4.68e-06
0.000759543
0.000726022
0.000689852
0.000650677
0.000608532
0.000564122
0.000518364
0.000472116
0.000426138
0.000381099
0.000337574
0.00029603
0.000256816
0.000220168
0.000186219
0.000155011
0.00012651
0.000100625
7.72203e-05
5.6134e-05
3.71874e-05
2.01959e-05
4.97693e-06
-8.64452e-06
-2.08326e-05
-3.17381e-05
-4.14982e-05
-5.02355e-05
-5.80597e-05
-6.50676e-05
-7.13446e-05
-7.69659e-05
-8.19977e-05
-8.64981e-05
-9.05183e-05
-9.41033e-05
-9.72929e-05
-0.000100122
-0.000102622
-0.000104821
-0.000106742
-0.000108408
-0.000109839
-0.000111051
-0.000112061
-0.000112882
-0.000113527
-0.000114007
-0.000114333
-0.000114513
-0.000114556
-0.000114469
-0.000114259
-0.000113933
-0.000113495
-0.00011295
-0.000112304
-0.00011156
-0.000110722
-0.000109792
-0.000108775
-0.000107673
-0.000106487
-0.000105221
-0.000103875
-0.000102452
-0.000100953
-9.93781e-05
-9.77292e-05
-9.60067e-05
-9.42109e-05
-9.23423e-05
-9.04008e-05
-8.83862e-05
-8.62984e-05
-8.41366e-05
-8.19003e-05
-7.95885e-05
-7.72e-05
-7.47335e-05
-7.21875e-05
-6.95603e-05
-6.68499e-05
-6.40543e-05
-6.1171e-05
-5.81977e-05
-5.51317e-05
-5.19703e-05
-4.87107e-05
-4.53501e-05
-4.18859e-05
-3.83153e-05
-3.46356e-05
-3.08433e-05
-2.69323e-05
-2.28897e-05
-1.86871e-05
-1.42657e-05
-9.52151e-06
-4.36815e-06
0.000733059
0.000701589
0.000667859
0.000631483
0.000592424
0.000551268
0.000508805
0.00046578
0.000422858
0.000380635
0.000339633
0.000300284
0.000262925
0.000227793
0.000195038
0.000164726
0.000136855
0.00011137
8.81718e-05
6.71331e-05
4.81076e-05
3.09398e-05
1.5472e-05
1.54992e-06
-1.09734e-05
-2.22352e-05
-3.23621e-05
-4.14688e-05
-4.9659e-05
-5.70252e-05
-6.365e-05
-6.96067e-05
-7.49603e-05
-7.97683e-05
-8.40817e-05
-8.79456e-05
-9.14e-05
-9.44806e-05
-9.7219e-05
-9.96433e-05
-0.000101779
-0.000103648
-0.00010527
-0.000106665
-0.000107847
-0.000108831
-0.000109631
-0.000110259
-0.000110724
-0.000111037
-0.000111206
-0.000111239
-0.000111143
-0.000110925
-0.000110591
-0.000110145
-0.000109593
-0.000108939
-0.000108187
-0.00010734
-0.000106402
-0.000105375
-0.000104262
-0.000103065
-0.000101786
-0.000100428
-9.89904e-05
-9.74757e-05
-9.58847e-05
-9.42182e-05
-9.24768e-05
-9.06608e-05
-8.87704e-05
-8.68057e-05
-8.47665e-05
-8.26523e-05
-8.04626e-05
-7.81965e-05
-7.5853e-05
-7.3431e-05
-7.09291e-05
-6.83457e-05
-6.56789e-05
-6.29269e-05
-6.00875e-05
-5.71584e-05
-5.4137e-05
-5.10209e-05
-4.78074e-05
-4.44938e-05
-4.10775e-05
-3.75555e-05