/*--------------------------------*- C++ -*----------------------------------*\
| =========                 |                                                 |
| \\      /  F ield         | OpenFOAM: The Open Source CFD Toolbox           |
|  \\    /   O peration     | Version:  2.3.0                                 |
|   \\  /    A nd           | Web:      www.OpenFOAM.org                      |
|    \\/     M anipulation  |                                                 |
\*---------------------------------------------------------------------------*/
FoamFile
{
    version     2.0;
    format      ascii;
    class       volScalarField;
    location    "0.5";
    object      p;
}
// * * * * * * * * * * * * * * * * * * * * * * * * * * * * * * * * * * * * * //

dimensions      [0 2 -2 0 0 0 0];

internalField   nonuniform List<scalar> 
2000
(
0.00207588
0.00150268
0.00103874
0.000707174
0.000435682
0.000194473
-1.61164e-05
-0.000191395
-0.000329893
-0.000432876
-0.000503387
-0.000545823
-0.000565448
-0.000567753
-0.000557856
-0.000540103
-0.000517892
-0.000493679
-0.000469098
-0.000445141
-0.000422327
-0.000400869
-0.000380788
-0.000362005
-0.000344399
-0.00032784
-0.000312208
-0.000297404
-0.000283348
-0.000269978
-0.000257246
-0.000245119
-0.000233568
-0.000222573
-0.000212114
-0.000202175
-0.00019274
-0.000183794
-0.000175322
-0.000167307
-0.000159735
-0.000152587
-0.000145849
-0.000139505
-0.000133537
-0.00012793
-0.00012267
-0.000117739
-0.000113124
-0.00010881
-0.000104784
-0.000101032
-9.754e-05
-9.42969e-05
-9.12901e-05
-8.85078e-05
-8.59389e-05
-8.35723e-05
-8.13972e-05
-7.94034e-05
-7.75804e-05
-7.59184e-05
-7.44074e-05
-7.30374e-05
-7.17987e-05
-7.06815e-05
-6.96757e-05
-6.87714e-05
-6.79583e-05
-6.72259e-05
-6.65635e-05
-6.59601e-05
-6.5404e-05
-6.48835e-05
-6.43861e-05
-6.38988e-05
-6.34081e-05
-6.28998e-05
-6.23591e-05
-6.17706e-05
-6.11182e-05
-6.03852e-05
-5.9554e-05
-5.8606e-05
-5.75214e-05
-5.6278e-05
-5.48509e-05
-5.32109e-05
-5.13239e-05
-4.915e-05
-4.66447e-05
-4.37607e-05
-4.04533e-05
-3.66869e-05
-3.24412e-05
-2.77151e-05
-2.25268e-05
-1.69015e-05
-1.08436e-05
-4.372e-06
0.0017868
0.00138756
0.00101292
0.000715335
0.000459287
0.000226144
1.92225e-05
-0.000155097
-0.000294249
-0.00039889
-0.000471704
-0.000516823
-0.000539294
-0.000544443
-0.000537268
-0.000522037
-0.000502101
-0.000479896
-0.000457059
-0.000434594
-0.000413047
-0.000392658
-0.000373479
-0.000355457
-0.000338496
-0.000322488
-0.00030733
-0.000292937
-0.000279239
-0.000266184
-0.000253731
-0.000241852
-0.000230523
-0.000219727
-0.000209448
-0.000199671
-0.000190385
-0.000181574
-0.000173225
-0.000165324
-0.000157856
-0.000150805
-0.000144157
-0.000137895
-0.000132004
-0.00012647
-0.000121276
-0.000116409
-0.000111853
-0.000107595
-0.000103622
-9.99192e-05
-9.64748e-05
-9.32765e-05
-9.03122e-05
-8.75706e-05
-8.50404e-05
-8.27108e-05
-8.05712e-05
-7.86114e-05
-7.68213e-05
-7.51908e-05
-7.37102e-05
-7.23697e-05
-7.11596e-05
-7.00701e-05
-6.90912e-05
-6.82132e-05
-6.74256e-05
-6.67183e-05
-6.60804e-05
-6.55009e-05
-6.49684e-05
-6.4471e-05
-6.39963e-05
-6.35313e-05
-6.30626e-05
-6.25759e-05
-6.20566e-05
-6.14891e-05
-6.08574e-05
-6.01447e-05
-5.93334e-05
-5.84051e-05
-5.73397e-05
-5.61153e-05
-5.4707e-05
-5.30859e-05
-5.12179e-05
-4.90635e-05
-4.65779e-05
-4.37137e-05
-4.04255e-05
-3.6676e-05
-3.24437e-05
-2.77274e-05
-2.25448e-05
-1.69215e-05
-1.0857e-05
-4.43159e-06
0.00156408
0.0012797
0.000970877
0.000701359
0.000463602
0.000246508
5.21637e-05
-0.000113953
-0.000249064
-0.000353232
-0.000428363
-0.000477692
-0.000505383
-0.000516006
-0.000514
-0.00050329
-0.000487077
-0.000467789
-0.00044715
-0.000426295
-0.000405905
-0.000386346
-0.000367771
-0.000350205
-0.000333605
-0.000317898
-0.000303006
-0.000288855
-0.000275385
-0.000262545
-0.000250298
-0.000238615
-0.000227473
-0.000216854
-0.000206741
-0.000197122
-0.000187983
-0.000179309
-0.000171089
-0.000163307
-0.00015595
-0.000149002
-0.000142449
-0.000136277
-0.000130469
-0.000125012
-0.00011989
-0.00011509
-0.000110597
-0.000106398
-0.00010248
-9.88285e-05
-9.54327e-05
-9.22801e-05
-8.9359e-05
-8.66582e-05
-8.41667e-05
-8.18739e-05
-7.97693e-05
-7.7843e-05
-7.60848e-05
-7.4485e-05
-7.30339e-05
-7.17218e-05
-7.0539e-05
-6.9476e-05
-6.85229e-05
-6.76698e-05
-6.69067e-05
-6.62231e-05
-6.56085e-05
-6.50518e-05
-6.45417e-05
-6.40663e-05
-6.36133e-05
-6.31698e-05
-6.27222e-05
-6.22565e-05
-6.17578e-05
-6.12108e-05
-6.05994e-05
-5.99068e-05
-5.91155e-05
-5.8207e-05
-5.71614e-05
-5.59569e-05
-5.45686e-05
-5.29678e-05
-5.11204e-05
-4.89867e-05
-4.6522e-05
-4.36784e-05
-4.04097e-05
-3.6678e-05
-3.24607e-05
-2.77565e-05
-2.2585e-05
-1.69761e-05
-1.09481e-05
-4.71093e-06
0.00136381
0.00115468
0.00090465
0.000669863
0.00045742
0.000262368
8.59115e-05
-6.74971e-05
-0.000194924
-0.000295785
-0.000371192
-0.000423476
-0.000455861
-0.000472056
-0.00047582
-0.0004706
-0.000459318
-0.000444282
-0.000427202
-0.000409268
-0.000391248
-0.000373603
-0.000356575
-0.000340269
-0.000324706
-0.000309864
-0.000295703
-0.000282179
-0.000269254
-0.000256892
-0.00024507
-0.000233765
-0.000222962
-0.000212648
-0.000202812
-0.000193444
-0.000184533
-0.000176069
-0.000168039
-0.000160433
-0.000153237
-0.000146439
-0.000140024
-0.000133979
-0.000128291
-0.000122944
-0.000117925
-0.000113221
-0.000108818
-0.000104703
-0.000100864
-9.72867e-05
-9.39605e-05
-9.08733e-05
-8.80139e-05
-8.53712e-05
-8.29346e-05
-8.06937e-05
-7.86382e-05
-7.67584e-05
-7.50445e-05
-7.34867e-05
-7.20757e-05
-7.08019e-05
-6.96558e-05
-6.8628e-05
-6.77087e-05
-6.68883e-05
-6.61567e-05
-6.55037e-05
-6.49188e-05
-6.43911e-05
-6.39093e-05
-6.34617e-05
-6.3036e-05
-6.26194e-05
-6.21984e-05
-6.1759e-05
-6.12865e-05
-6.07656e-05
-6.01801e-05
-5.95135e-05
-5.87482e-05
-5.78659e-05
-5.68467e-05
-5.56689e-05
-5.43078e-05
-5.27344e-05
-5.09149e-05
-4.88094e-05
-4.63729e-05
-4.35572e-05
-4.03163e-05
-3.66125e-05
-3.24243e-05
-2.77517e-05
-2.26167e-05
-1.70579e-05
-1.11426e-05
-5.3155e-06
0.00117956
0.00102422
0.000828057
0.000631174
0.000446231
0.0002739
0.00011605
-2.34579e-05
-0.000141652
-0.000237476
-0.000311433
-0.000365141
-0.000401024
-0.000422002
-0.000431137
-0.00043134
-0.000425162
-0.000414695
-0.000401559
-0.000386939
-0.000371658
-0.000356256
-0.000341062
-0.000326264
-0.000311956
-0.000298176
-0.000284929
-0.000272207
-0.000259995
-0.000248278
-0.000237041
-0.000226273
-0.000215965
-0.000206108
-0.000196695
-0.000187718
-0.000179168
-0.000171037
-0.000163316
-0.000155995
-0.000149063
-0.000142507
-0.000136317
-0.00013048
-0.000124983
-0.000119813
-0.000114958
-0.000110406
-0.000106143
-0.000102158
-9.84387e-05
-9.49736e-05
-9.17512e-05
-8.87607e-05
-8.59912e-05
-8.34322e-05
-8.10738e-05
-7.89059e-05
-7.69188e-05
-7.5103e-05
-7.34492e-05
-7.1948e-05
-7.05902e-05
-6.93667e-05
-6.82683e-05
-6.72857e-05
-6.64095e-05
-6.56303e-05
-6.49381e-05
-6.43231e-05
-6.37749e-05
-6.32828e-05
-6.28357e-05
-6.24221e-05
-6.20297e-05
-6.16461e-05
-6.12578e-05
-6.0851e-05
-6.04112e-05
-5.99231e-05
-5.93709e-05
-5.8738e-05
-5.80072e-05
-5.716e-05
-5.61768e-05
-5.50359e-05
-5.37125e-05
-5.21779e-05
-5.0398e-05
-4.83332e-05
-4.59388e-05
-4.31675e-05
-3.9974e-05
-3.63224e-05
-3.21936e-05
-2.75911e-05
-2.2544e-05
-1.71097e-05
-1.14317e-05
-6.23682e-06
0.00101676
0.000899369
0.000747232
0.000585661
0.00042764
0.000277591
0.000138447
1.36399e-05
-9.40585e-05
-0.000183337
-0.000254228
-0.000307757
-0.000345668
-0.000370173
-0.000383689
-0.000388591
-0.000387038
-0.000380869
-0.000371569
-0.000360276
-0.000347828
-0.000334812
-0.000321623
-0.000308516
-0.000295646
-0.000283103
-0.000270937
-0.000259171
-0.000247816
-0.000236875
-0.000226348
-0.000216234
-0.000206529
-0.000197232
-0.000188339
-0.000179845
-0.000171746
-0.000164034
-0.000156704
-0.000149747
-0.000143154
-0.000136915
-0.000131019
-0.000125457
-0.000120215
-0.000115284
-0.000110651
-0.000106305
-0.000102235
-9.84299e-05
-9.48776e-05
-9.15679e-05
-8.84902e-05
-8.56341e-05
-8.29897e-05
-8.0547e-05
-7.82966e-05
-7.6229e-05
-7.43352e-05
-7.26061e-05
-7.10328e-05
-6.96064e-05
-6.83184e-05
-6.71598e-05
-6.6122e-05
-6.5196e-05
-6.43728e-05
-6.36434e-05
-6.29982e-05
-6.24277e-05
-6.19219e-05
-6.14704e-05
-6.10625e-05
-6.06868e-05
-6.03316e-05
-5.99846e-05
-5.96329e-05
-5.92627e-05
-5.886e-05
-5.84098e-05
-5.78965e-05
-5.7304e-05
-5.66151e-05
-5.58117e-05
-5.48743e-05
-5.37812e-05
-5.25079e-05
-5.10257e-05
-4.93012e-05
-4.72954e-05
-4.49651e-05
-4.22651e-05
-3.91528e-05
-3.55956e-05
-3.15777e-05
-2.7107e-05
-2.22206e-05
-1.70001e-05
-1.16705e-05
-7.12967e-06
0.000872819
0.000781894
0.000663826
0.000533424
0.000401273
0.000273161
0.000152715
4.30624e-05
-5.32911e-05
-0.000134909
-0.000201443
-0.000253415
-0.000291987
-0.00031876
-0.000335572
-0.000344304
-0.000346731
-0.000344422
-0.000338693
-0.000330601
-0.000320957
-0.000310365
-0.000299257
-0.000287936
-0.000276605
-0.0002654
-0.000254408
-0.000243686
-0.000233269
-0.000223181
-0.000213435
-0.000204041
-0.000195005
-0.00018633
-0.000178019
-0.000170069
-0.000162479
-0.000155245
-0.000148362
-0.000141824
-0.000135623
-0.000129751
-0.0001242
-0.000118959
-0.000114019
-0.00010937
-0.000105001
-0.000100901
-9.70606e-05
-9.34693e-05
-9.01168e-05
-8.69932e-05
-8.40887e-05
-8.13937e-05
-7.88989e-05
-7.65951e-05
-7.44735e-05
-7.25253e-05
-7.07418e-05
-6.91147e-05
-6.76357e-05
-6.62963e-05
-6.50885e-05
-6.4004e-05
-6.30344e-05
-6.21713e-05
-6.14064e-05
-6.07308e-05
-6.01357e-05
-5.96119e-05
-5.91498e-05
-5.87396e-05
-5.8371e-05
-5.80332e-05
-5.77149e-05
-5.74043e-05
-5.7089e-05
-5.67558e-05
-5.6391e-05
-5.59804e-05
-5.55088e-05
-5.49605e-05
-5.43189e-05
-5.35661e-05
-5.26831e-05
-5.16485e-05
-5.04382e-05
-4.90242e-05
-4.73742e-05
-4.54513e-05
-4.32148e-05
-4.06232e-05
-3.76383e-05
-3.42319e-05
-3.03923e-05
-2.61315e-05
-2.14938e-05
-1.65785e-05
-1.16469e-05
-7.5107e-06
0.000744361
0.000672669
0.00058083
0.000477043
0.000368791
0.000261583
0.000159206
6.45663e-05
-2.0079e-05
-9.32698e-05
-0.000154396
-0.000203582
-0.000241518
-0.000269298
-0.000288263
-0.000299853
-0.000305479
-0.000306438
-0.000303863
-0.000298695
-0.000291694
-0.000283449
-0.000274406
-0.000264894
-0.000255152
-0.000245348
-0.000235604
-0.000226001
-0.000216598
-0.000207435
-0.000198542
-0.000189938
-0.000181637
-0.000173649
-0.00016598
-0.000158633
-0.000151609
-0.000144906
-0.000138522
-0.000132452
-0.00012669
-0.000121231
-0.000116067
-0.000111188
-0.000106588
-0.000102256
-9.81842e-05
-9.43624e-05
-9.07815e-05
-8.74322e-05
-8.43052e-05
-8.13914e-05
-7.86819e-05
-7.61678e-05
-7.38405e-05
-7.16917e-05
-6.9713e-05
-6.78964e-05
-6.62339e-05
-6.47178e-05
-6.33401e-05
-6.20933e-05
-6.09697e-05
-5.99616e-05
-5.90613e-05
-5.82609e-05
-5.75525e-05
-5.69281e-05
-5.63791e-05
-5.58972e-05
-5.54732e-05
-5.50981e-05
-5.4762e-05
-5.44549e-05
-5.41662e-05
-5.38846e-05
-5.35986e-05
-5.32956e-05
-5.29629e-05
-5.25867e-05
-5.21529e-05
-5.16463e-05
-5.1051e-05
-5.035e-05
-4.95247e-05
-4.85546e-05
-4.74166e-05
-4.6084e-05
-4.45266e-05
-4.27103e-05
-4.05986e-05
-3.81547e-05
-3.53458e-05
-3.21486e-05
-2.85555e-05
-2.45811e-05
-2.02717e-05
-1.57262e-05
-1.11693e-05
-7.11073e-06
0.000634244
0.000576543
0.000504078
0.000421356
0.000333318
0.00024449
0.000158365
7.75911e-05
4.1882e-06
-6.04492e-05
-0.000115581
-0.000161064
-0.000197243
-0.000224823
-0.00024475
-0.000258096
-0.000265959
-0.000269386
-0.000269325
-0.000266593
-0.000261876
-0.000255726
-0.000248579
-0.000240771
-0.000232557
-0.000224127
-0.000215622
-0.000207144
-0.00019877
-0.000190553
-0.000182535
-0.000174746
-0.000167205
-0.000159929
-0.000152927
-0.000146208
-0.000139774
-0.000133626
-0.000127765
-0.000122186
-0.000116887
-0.000111863
-0.000107106
-0.000102611
-9.83701e-05
-9.43752e-05
-9.06184e-05
-8.70914e-05
-8.37859e-05
-8.06935e-05
-7.78057e-05
-7.51144e-05
-7.26114e-05
-7.02887e-05
-6.81384e-05
-6.61529e-05
-6.43244e-05
-6.26457e-05
-6.11093e-05
-5.97082e-05
-5.84351e-05
-5.72829e-05
-5.62446e-05
-5.53132e-05
-5.44814e-05
-5.37421e-05
-5.30879e-05
-5.25113e-05
-5.20047e-05
-5.156e-05
-5.11691e-05
-5.08233e-05
-5.05138e-05
-5.02311e-05
-4.99653e-05
-4.97063e-05
-4.9443e-05
-4.91641e-05
-4.88576e-05
-4.85107e-05
-4.81102e-05
-4.76419e-05
-4.70909e-05
-4.64411e-05
-4.56749e-05
-4.47731e-05
-4.37139e-05
-4.24727e-05
-4.1022e-05
-3.93312e-05
-3.73682e-05
-3.51015e-05
-3.25037e-05
-2.95559e-05
-2.62534e-05
-2.2611e-05
-1.86698e-05
-1.45095e-05
-1.02749e-05
-6.16949e-06
0.000537086
0.000490358
0.000432875
0.00036708
0.000296102
0.000223378
0.000151867
8.38774e-05
2.11787e-05
-3.49532e-05
-8.3739e-05
-0.000124871
-0.000158447
-0.000184875
-0.000204793
-0.000218969
-0.000228234
-0.000233412
-0.000235273
-0.000234509
-0.000231718
-0.000227401
-0.000221965
-0.000215737
-0.000208974
-0.000201875
-0.000194591
-0.000187239
-0.000179904
-0.000172654
-0.000165537
-0.00015859
-0.00015184
-0.000145307
-0.000139006
-0.000132947
-0.000127136
-0.000121575
-0.000116268
-0.000111211
-0.000106404
-0.000101842
-9.75203e-05
-9.3434e-05
-8.95766e-05
-8.59414e-05
-8.25214e-05
-7.93095e-05
-7.62982e-05
-7.34801e-05
-7.08478e-05
-6.83939e-05
-6.6111e-05
-6.3992e-05
-6.20298e-05
-6.02173e-05
-5.85478e-05
-5.70145e-05
-5.56107e-05
-5.43299e-05
-5.31656e-05
-5.21114e-05
-5.11607e-05
-5.03073e-05
-4.95445e-05
-4.88658e-05
-4.82645e-05
-4.77338e-05
-4.72666e-05
-4.68558e-05
-4.64938e-05
-4.61728e-05
-4.58847e-05
-4.56209e-05
-4.53724e-05
-4.513e-05
-4.48836e-05
-4.46229e-05
-4.43369e-05
-4.4014e-05
-4.3642e-05
-4.3208e-05
-4.26981e-05
-4.20976e-05
-4.13902e-05
-4.05581e-05
-3.95816e-05
-3.84383e-05
-3.71038e-05
-3.55514e-05
-3.37536e-05
-3.1684e-05
-2.932e-05
-2.66466e-05
-2.36609e-05
-2.03753e-05
-1.68219e-05
-1.30535e-05
-9.13859e-06
-5.0845e-06
0.000446538
0.000409071
0.00036388
0.000312246
0.00025608
0.000197837
0.000139845
8.40048e-05
3.18047e-05
-1.56403e-05
-5.75833e-05
-9.36356e-05
-0.000123729
-0.000148059
-0.000167016
-0.000181126
-0.000190987
-0.000197221
-0.000200433
-0.000201185
-0.000199976
-0.000197242
-0.000193348
-0.000188595
-0.000183228
-0.000177441
-0.000171389
-0.000165192
-0.000158942
-0.000152711
-0.000146554
-0.000140513
-0.000134619
-0.000128896
-0.000123361
-0.000118027
-0.000112901
-0.00010799
-0.000103295
-9.88179e-05
-9.45574e-05
-9.0511e-05
-8.66753e-05
-8.3046e-05
-7.96181e-05
-7.63861e-05
-7.33441e-05
-7.04861e-05
-6.78055e-05
-6.52962e-05
-6.29515e-05
-6.0765e-05
-5.87304e-05
-5.68412e-05
-5.50912e-05
-5.34743e-05
-5.19844e-05
-5.06155e-05
-4.93616e-05
-4.82171e-05
-4.7176e-05
-4.62327e-05
-4.53815e-05
-4.46165e-05
-4.3932e-05
-4.33222e-05
-4.27811e-05
-4.23026e-05
-4.18805e-05
-4.15084e-05
-4.11795e-05
-4.08869e-05
-4.06234e-05
-4.03814e-05
-4.01529e-05
-3.99296e-05
-3.97028e-05
-3.94631e-05
-3.92008e-05
-3.89055e-05
-3.85665e-05
-3.81721e-05
-3.771e-05
-3.71667e-05
-3.65279e-05
-3.57776e-05
-3.48982e-05
-3.38703e-05
-3.26727e-05
-3.1283e-05
-2.9678e-05
-2.78362e-05
-2.57395e-05
-2.33762e-05
-2.07439e-05
-1.78516e-05
-1.47205e-05
-1.13782e-05
-7.84147e-06
-4.0388e-06
0.00036131
0.000331897
0.000297038
0.000257379
0.000214045
0.000168713
0.0001231
7.8678e-05
3.66375e-05
-2.09699e-06
-3.68632e-05
-6.72596e-05
-9.31278e-05
-0.000114517
-0.00013164
-0.00014483
-0.000154497
-0.000161086
-0.00016505
-0.000166824
-0.000166809
-0.000165363
-0.000162797
-0.000159373
-0.000155313
-0.000150794
-0.000145963
-0.000140936
-0.000135805
-0.000130642
-0.000125503
-0.000120431
-0.000115461
-0.000110617
-0.000105918
-0.000101379
-9.70084e-05
-9.28138e-05
-8.87988e-05
-8.49654e-05
-8.13137e-05
-7.78425e-05
-7.45496e-05
-7.14318e-05
-6.84853e-05
-6.57057e-05
-6.30883e-05
-6.06281e-05
-5.83198e-05
-5.61581e-05
-5.41375e-05
-5.22526e-05
-5.0498e-05
-4.88683e-05
-4.73581e-05
-4.59622e-05
-4.46754e-05
-4.34925e-05
-4.24086e-05
-4.14184e-05
-4.05172e-05
-3.97e-05
-3.89617e-05
-3.82976e-05
-3.77025e-05
-3.71715e-05
-3.66994e-05
-3.6281e-05
-3.59109e-05
-3.55836e-05
-3.52932e-05
-3.5034e-05
-3.47996e-05
-3.45835e-05
-3.43788e-05
-3.41785e-05
-3.3975e-05
-3.37603e-05
-3.3526e-05
-3.32633e-05
-3.29627e-05
-3.26144e-05
-3.22075e-05
-3.17306e-05
-3.11712e-05
-3.05155e-05
-2.97486e-05
-2.88541e-05
-2.78143e-05
-2.66109e-05
-2.52254e-05
-2.36405e-05
-2.18421e-05
-1.9821e-05
-1.7575e-05
-1.51094e-05
-1.24358e-05
-9.56494e-06
-6.49116e-06
-3.14525e-06
0.000279942
0.000257704
0.00023174
0.000202352
0.000170184
0.000136331
0.000101986
6.82187e-05
3.59235e-05
5.81852e-06
-2.15544e-05
-4.58341e-05
-6.6833e-05
-8.45182e-05
-9.89843e-05
-0.000110424
-0.000119099
-0.000125312
-0.000129383
-0.000131628
-0.000132353
-0.000131833
-0.000130316
-0.000128018
-0.000125122
-0.000121782
-0.000118125
-0.000114255
-0.000110254
-0.00010619
-0.000102115
-9.80696e-05
-9.40868e-05
-9.01911e-05
-8.6401e-05
-8.27305e-05
-7.91897e-05
-7.57857e-05
-7.2523e-05
-6.94041e-05
-6.64302e-05
-6.36009e-05
-6.0915e-05
-5.83702e-05
-5.59638e-05
-5.36927e-05
-5.15531e-05
-4.95411e-05
-4.76527e-05
-4.58835e-05
-4.42293e-05
-4.26857e-05
-4.12483e-05
-3.99128e-05
-3.86748e-05
-3.75301e-05
-3.64744e-05
-3.55035e-05
-3.46134e-05
-3.37999e-05
-3.30589e-05
-3.23865e-05
-3.17786e-05
-3.1231e-05
-3.07399e-05
-3.03009e-05
-2.991e-05
-2.95628e-05
-2.92549e-05
-2.89819e-05
-2.87389e-05
-2.85212e-05
-2.83236e-05
-2.81409e-05
-2.79674e-05
-2.77973e-05
-2.76245e-05
-2.74424e-05
-2.72442e-05
-2.70226e-05
-2.677e-05
-2.64782e-05
-2.61384e-05
-2.57412e-05
-2.52762e-05
-2.47325e-05
-2.40978e-05
-2.3359e-05
-2.25023e-05
-2.15132e-05
-2.03774e-05
-1.9082e-05
-1.76162e-05
-1.59731e-05
-1.41501e-05
-1.21497e-05
-9.97717e-06
-7.63507e-06
-5.11522e-06
-2.38033e-06
0.000201013
0.000185359
0.000167292
0.000146944
0.000124665
0.00010113
7.71102e-05
5.33187e-05
3.03703e-05
8.77464e-06
-1.1069e-05
-2.88767e-05
-4.44794e-05
-5.78131e-05
-6.89043e-05
-7.78519e-05
-8.48087e-05
-8.9963e-05
-9.35229e-05
-9.57024e-05
-9.67108e-05
-9.6745e-05
-9.59847e-05
-9.45895e-05
-9.26984e-05
-9.04299e-05
-8.78836e-05
-8.51419e-05
-8.22725e-05
-7.933e-05
-7.63579e-05
-7.33912e-05
-7.04571e-05
-6.75767e-05
-6.47662e-05
-6.20381e-05
-5.94013e-05
-5.68623e-05
-5.44254e-05
-5.20935e-05
-4.98678e-05
-4.77486e-05
-4.57354e-05
-4.38268e-05
-4.20212e-05
-4.03162e-05
-3.87092e-05
-3.71976e-05
-3.57783e-05
-3.44482e-05
-3.32042e-05
-3.2043e-05
-3.09614e-05
-2.99561e-05
-2.9024e-05
-2.81618e-05
-2.73664e-05
-2.66347e-05
-2.59634e-05
-2.53497e-05
-2.47903e-05
-2.42823e-05
-2.38227e-05
-2.34084e-05
-2.30363e-05
-2.27033e-05
-2.24062e-05
-2.21419e-05
-2.1907e-05
-2.16982e-05
-2.15119e-05
-2.13443e-05
-2.11918e-05
-2.10504e-05
-2.09158e-05
-2.07836e-05
-2.06493e-05
-2.0508e-05
-2.03545e-05
-2.01834e-05
-1.99889e-05
-1.97649e-05
-1.95047e-05
-1.92013e-05
-1.8847e-05
-1.84335e-05
-1.79518e-05
-1.73922e-05
-1.67445e-05
-1.59985e-05
-1.5144e-05
-1.41716e-05
-1.3074e-05
-1.18459e-05
-1.04853e-05
-8.99256e-06
-7.36968e-06
-5.61682e-06
-3.73024e-06
-1.69778e-06
0.000122164
0.000112776
0.000102031
8.99788e-05
7.6795e-05
6.28439e-05
4.85536e-05
3.43303e-05
2.05309e-05
7.45839e-06
-4.64326e-06
-1.55938e-05
-2.52773e-05
-3.36388e-05
-4.06767e-05
-4.64336e-05
-5.09863e-05
-5.44354e-05
-5.68964e-05
-5.84917e-05
-5.93433e-05
-5.95685e-05
-5.92763e-05
-5.85648e-05
-5.75211e-05
-5.62203e-05
-5.47263e-05
-5.3093e-05
-5.13646e-05
-4.95775e-05
-4.77611e-05
-4.59389e-05
-4.41296e-05
-4.23477e-05
-4.06047e-05
-3.8909e-05
-3.72673e-05
-3.56841e-05
-3.41627e-05
-3.27052e-05
-3.13129e-05
-2.99862e-05
-2.8725e-05
-2.75286e-05
-2.63961e-05
-2.53262e-05
-2.43174e-05
-2.33681e-05
-2.24764e-05
-2.16405e-05
-2.08584e-05
-2.01281e-05
-1.94477e-05
-1.88151e-05
-1.82284e-05
-1.76855e-05
-1.71845e-05
-1.67234e-05
-1.63003e-05
-1.59132e-05
-1.55603e-05
-1.52395e-05
-1.49492e-05
-1.46872e-05
-1.44517e-05
-1.42407e-05
-1.40523e-05
-1.38844e-05
-1.37349e-05
-1.36018e-05
-1.34827e-05
-1.33754e-05
-1.32775e-05
-1.31865e-05
-1.30997e-05
-1.30145e-05
-1.29278e-05
-1.28368e-05
-1.2738e-05
-1.26281e-05
-1.25036e-05
-1.23604e-05
-1.21945e-05
-1.20013e-05
-1.17761e-05
-1.15137e-05
-1.12085e-05
-1.08545e-05
-1.04455e-05
-9.9751e-06
-9.43727e-06
-8.8264e-06
-8.13794e-06
-7.36872e-06
-6.51716e-06
-5.58311e-06
-4.56704e-06
-3.4689e-06
-2.28834e-06
-1.02441e-06
4.14954e-05
3.82949e-05
3.46335e-05
3.05412e-05
2.60776e-05
2.13601e-05
1.65273e-05
1.17127e-05
7.03477e-06
2.59486e-06
-1.5246e-06
-5.26191e-06
-8.57656e-06
-1.14481e-05
-1.38741e-05
-1.58669e-05
-1.74507e-05
-1.86579e-05
-1.95265e-05
-2.00971e-05
-2.04104e-05
-2.05061e-05
-2.04212e-05
-2.01894e-05
-1.98405e-05
-1.94007e-05
-1.88922e-05
-1.83337e-05
-1.7741e-05
-1.71268e-05
-1.65014e-05
-1.58734e-05
-1.52492e-05
-1.46341e-05
-1.40321e-05
-1.34463e-05
-1.2879e-05
-1.23318e-05
-1.1806e-05
-1.13023e-05
-1.08211e-05
-1.03625e-05
-9.92669e-06
-9.51327e-06
-9.12196e-06
-8.75231e-06
-8.40382e-06
-8.07589e-06
-7.76791e-06
-7.47922e-06
-7.20914e-06
-6.95699e-06
-6.72207e-06
-6.50368e-06
-6.30113e-06
-6.11373e-06
-5.94079e-06
-5.78163e-06
-5.63558e-06
-5.50197e-06
-5.38013e-06
-5.2694e-06
-5.16912e-06
-5.07863e-06
-4.99725e-06
-4.92431e-06
-4.85912e-06
-4.80098e-06
-4.74916e-06
-4.70292e-06
-4.6615e-06
-4.6241e-06
-4.58989e-06
-4.558e-06
-4.52752e-06
-4.49751e-06
-4.46695e-06
-4.4348e-06
-4.39993e-06
-4.36117e-06
-4.31725e-06
-4.26684e-06
-4.20851e-06
-4.14071e-06
-4.06178e-06
-3.96992e-06
-3.86323e-06
-3.73966e-06
-3.59711e-06
-3.43344e-06
-3.24658e-06
-3.03469e-06
-2.79625e-06
-2.53017e-06
-2.23591e-06
-1.91333e-06
-1.5625e-06
-1.18335e-06
-7.7569e-07
-3.38559e-07
6.79302e-05
7.05543e-05
7.64969e-05
8.54074e-05
9.70563e-05
0.000111506
0.000128955
0.000149641
0.000173841
0.000201879
0.000234137
0.000271069
0.000313215
0.000361234
0.000415946
0.000478408
0.000550027
0.000632744
0.000729359
0.000844109
0.000983816
0.0011604
0.00139724
0.00175275
0.00240189
6.76589e-05
7.01951e-05
7.60377e-05
8.48364e-05
9.63573e-05
0.000110659
0.000127935
0.000148419
0.000172382
0.00020014
0.000232069
0.000268608
0.000310283
0.000357728
0.00041173
0.000473294
0.000543744
0.000624884
0.000719267
0.000830654
0.00096484
0.00113116
0.00134495
0.00162798
0.00198275
6.71767e-05
6.96441e-05
7.53862e-05
8.40652e-05
9.54439e-05
0.000109576
0.000126651
0.000146898
0.000170581
0.000198008
0.000229544
0.000265612
0.000306717
0.00035346
0.00040658
0.000467006
0.000535942
0.000614986
0.000706322
0.000813
0.00093931
0.00109107
0.00127448
0.0014869
0.00167901
6.64338e-05
6.88361e-05
7.44571e-05
8.29818e-05
9.41728e-05
0.000108078
0.000124881
0.000144805
0.000168106
0.000195079
0.000226073
0.000261491
0.000301803
0.000347567
0.000399453
0.000458283
0.000525089
0.000601187
0.000688263
0.000788448
0.000904239
0.00103779
0.00118798
0.00134071
0.00144594
6.53611e-05
6.76931e-05
7.31669e-05
8.1495e-05
9.24428e-05
0.000106052
0.000122499
0.000141998
0.000164794
0.000191167
0.000221445
0.000256
0.000295263
0.000339729
0.000389978
0.000446695
0.000510692
0.000582929
0.000664501
0.000756508
0.000859644
0.000972969
0.00109077
0.00119569
0.00124848
6.38784e-05
6.61316e-05
7.14289e-05
7.95108e-05
9.01493e-05
0.000103379
0.000119367
0.000138317
0.000160459
0.000186055
0.000215404
0.000248844
0.000286751
0.000329544
0.000377692
0.00043171
0.000492155
0.000559587
0.000634462
0.000716879
0.000805991
0.000898738
0.000987426
0.001056
0.00107717
6.18904e-05
6.40521e-05
6.91375e-05
7.69131e-05
8.71609e-05
9.99085e-05
0.000115312
0.000133562
0.00015487
0.000179476
0.000207644
0.000239668
0.00027586
0.000316551
0.000362078
0.000412768
0.000468898
0.000530616
0.000597777
0.000669627
0.000744228
0.000817449
0.00088152
0.000923585
0.000926137
5.92857e-05
6.13385e-05
6.61683e-05
7.35655e-05
8.33245e-05
9.54668e-05
0.000110135
0.000127504
0.000147765
0.000171127
0.000197818
0.000228079
0.000262151
0.000300263
0.000342613
0.00038933
0.000440415
0.000495635
0.000554345
0.000615186
0.000675633
0.000731365
0.000775626
0.000799067
0.000791092
5.61015e-05
5.80303e-05
6.25671e-05
6.95228e-05
7.87063e-05
9.01336e-05
0.000103933
0.000120261
0.000139286
0.000161187
0.000186152
0.000214365
0.000245994
0.000281171
0.00031996
0.000362312
0.000407997
0.000456491
0.000506817
0.000557309
0.000605317
0.000646896
0.000676655
0.000688109
0.000674966
5.23062e-05
5.40945e-05
5.82972e-05
6.47446e-05
7.32613e-05
8.38589e-05
9.665e-05
0.000111773
0.00012937
0.000149589
0.000172576
0.000198463
0.000227347
0.000259268
0.000294173
0.000331866
0.00037194
0.000413679
0.00045593
0.00049695
0.000534251
0.00056451
0.000583673
0.000587424
0.000572157
4.76129e-05
4.92332e-05
5.30365e-05
5.88729e-05
6.65851e-05
7.61802e-05
8.77546e-05
0.000101425
0.000117307
0.000135518
0.00015616
0.000179314
0.000205012
0.000233214
0.000263769
0.000296372
0.000330502
0.000365346
0.000399715
0.000431969
0.000459966
0.000481101
0.000492508
0.000491467
0.000476048
4.18759e-05
4.32959e-05
4.66238e-05
5.17309e-05
5.848e-05
6.68748e-05
7.69941e-05
8.89319e-05
0.000102779
0.000118618
0.000136515
0.000156503
0.000178561
0.000202588
0.000228369
0.000255539
0.000283532
0.000311536
0.000338449
0.000362856
0.000383051
0.000397126
0.000403167
0.000399562
0.000385369
3.49491e-05
3.61315e-05
3.88972e-05
4.31404e-05
4.87475e-05
5.57192e-05
6.41167e-05
7.40113e-05
8.54682e-05
9.85414e-05
0.000113264
0.000129635
0.000147597
0.000167015
0.000187652
0.000209135
0.000230927
0.000252304
0.000272339
0.000289916
0.000303773
0.000312605
0.000315214
0.000310703
0.000298679
2.66999e-05
2.76028e-05
2.97095e-05
3.29394e-05
3.72066e-05
4.25104e-05
4.88941e-05
5.64072e-05
6.50921e-05
7.49794e-05
8.60797e-05
9.83715e-05
0.000111785
0.000126186
0.000141356
0.000156971
0.000172591
0.000187645
0.000201439
0.00021318
0.000222019
0.000227135
0.000227833
0.000223656
0.000214487
1.70321e-05
1.76096e-05
1.89521e-05
2.10077e-05
2.37223e-05
2.70947e-05
3.11511e-05
3.59202e-05
4.14254e-05
4.76805e-05
5.46844e-05
6.24132e-05
7.08095e-05
7.97717e-05
8.91433e-05
9.87021e-05
0.000108154
0.000117134
0.000125211
0.000131912
0.000136754
0.000139294
0.000139182
0.000136218
0.00013039
5.92131e-06
6.12449e-06
6.59403e-06
7.31165e-06
8.25875e-06
9.43508e-06
1.08496e-05
1.25121e-05
1.44302e-05
1.66078e-05
1.90433e-05
2.17265e-05
2.46349e-05
2.77301e-05
3.09539e-05
3.42256e-05
3.74397e-05
4.04673e-05
4.31598e-05
4.5357e-05
4.69e-05
4.76471e-05
4.74918e-05
4.63789e-05
4.43164e-05
)
;

boundaryField
{
    top
    {
        type            fixedValue;
        value           uniform 0;
    }
    inlet
    {
        type            zeroGradient;
    }
    outlet
    {
        type            fixedValue;
        value           uniform 0;
    }
    plate
    {
        type            zeroGradient;
    }
    symmBound
    {
        type            zeroGradient;
    }
    frontAndBack
    {
        type            empty;
    }
}


// ************************************************************************* //
