/*--------------------------------*- C++ -*----------------------------------*\
| =========                 |                                                 |
| \\      /  F ield         | OpenFOAM: The Open Source CFD Toolbox           |
|  \\    /   O peration     | Version:  2.3.0                                 |
|   \\  /    A nd           | Web:      www.OpenFOAM.org                      |
|    \\/     M anipulation  |                                                 |
\*---------------------------------------------------------------------------*/
FoamFile
{
    version     2.0;
    format      ascii;
    class       surfaceScalarField;
    location    "0.5";
    object      phi_0;
}
// * * * * * * * * * * * * * * * * * * * * * * * * * * * * * * * * * * * * * //

dimensions      [0 3 -1 0 0 0 0];

internalField   nonuniform List<scalar> 
3859
(
2.8002e-08
2.91593e-09
-3.0918e-08
2.51069e-08
2.89512e-09
2.23914e-08
2.71554e-09
1.98903e-08
2.50113e-09
1.7621e-08
2.26925e-09
1.55953e-08
2.02575e-09
1.38158e-08
1.77941e-09
1.22773e-08
1.53856e-09
1.0967e-08
1.31027e-09
9.86666e-09
1.10035e-09
8.95363e-09
9.13028e-10
8.20288e-09
7.50748e-10
7.5888e-09
6.14082e-10
7.08682e-09
5.01981e-10
6.67464e-09
4.12179e-10
6.33297e-09
3.41664e-10
6.04584e-09
2.87132e-10
5.80049e-09
2.45354e-10
5.58707e-09
2.13417e-10
5.39821e-09
1.88861e-10
5.2285e-09
1.69709e-10
5.07405e-09
1.54448e-10
4.93209e-09
1.41961e-10
4.80064e-09
1.31453e-10
4.67826e-09
1.22377e-10
4.5639e-09
1.14365e-10
4.45672e-09
1.07174e-10
4.35608e-09
1.00646e-10
4.2614e-09
9.46774e-11
4.1722e-09
8.91972e-11
4.08805e-09
8.41544e-11
4.00854e-09
7.9509e-11
3.93331e-09
7.52277e-11
3.86203e-09
7.12804e-11
3.79439e-09
6.76394e-11
3.73011e-09
6.42788e-11
3.66894e-09
6.1174e-11
3.61064e-09
5.83021e-11
3.555e-09
5.56418e-11
3.50182e-09
5.31734e-11
3.45094e-09
5.08788e-11
3.4022e-09
4.87416e-11
3.35545e-09
4.67469e-11
3.31057e-09
4.48812e-11
3.26744e-09
4.31324e-11
3.22595e-09
4.14897e-11
3.18601e-09
3.99432e-11
3.14752e-09
3.84841e-11
3.11042e-09
3.71045e-11
3.07462e-09
3.57972e-11
3.04007e-09
3.45558e-11
3.00669e-09
3.33743e-11
2.97444e-09
3.22475e-11
2.94327e-09
3.11705e-11
2.91314e-09
3.01388e-11
2.88399e-09
2.91483e-11
2.85579e-09
2.81953e-11
2.82852e-09
2.72764e-11
2.80213e-09
2.63882e-11
2.7766e-09
2.5528e-11
2.75191e-09
2.46929e-11
2.72803e-09
2.38804e-11
2.70494e-09
2.30882e-11
2.68262e-09
2.23141e-11
2.66107e-09
2.1556e-11
2.64026e-09
2.0812e-11
2.62018e-09
2.00805e-11
2.60082e-09
1.93599e-11
2.58217e-09
1.86486e-11
2.56422e-09
1.79453e-11
2.54697e-09
1.72488e-11
2.53041e-09
1.65581e-11
2.51454e-09
1.5872e-11
2.49935e-09
1.51898e-11
2.48484e-09
1.45106e-11
2.47101e-09
1.38339e-11
2.45785e-09
1.31591e-11
2.44536e-09
1.24859e-11
2.43355e-09
1.18143e-11
2.4224e-09
1.11445e-11
2.41193e-09
1.0477e-11
2.40211e-09
9.8128e-12
2.39296e-09
9.15314e-12
2.38446e-09
8.49951e-12
2.37661e-09
7.85314e-12
2.36939e-09
7.21448e-12
2.36281e-09
6.58242e-12
2.35686e-09
5.95342e-12
2.35154e-09
5.32105e-12
2.34686e-09
4.67628e-12
2.34285e-09
4.00922e-12
2.33954e-09
3.31357e-12
2.33694e-09
2.59374e-12
2.33507e-09
1.87219e-12
2.33388e-09
1.19747e-12
2.33323e-09
6.47898e-13
2.33292e-09
3.10798e-13
2.33266e-09
2.60621e-13
2.33201e-09
6.43891e-13
3.47249e-12
3.59112e-08
3.1993e-09
-3.61946e-08
3.53029e-08
3.50342e-09
3.44507e-08
3.56778e-09
3.34325e-08
3.51925e-09
3.23055e-08
3.39628e-09
3.11168e-08
3.21441e-09
2.99052e-08
2.99108e-09
2.87003e-08
2.74341e-09
2.75245e-08
2.48612e-09
2.63934e-08
2.23143e-09
2.53175e-08
1.98899e-09
2.43025e-08
1.76565e-09
2.33512e-08
1.56544e-09
2.24634e-08
1.38982e-09
2.16372e-08
1.23829e-09
2.08699e-08
1.10898e-09
2.01578e-08
9.9928e-10
1.94969e-08
9.06274e-10
1.88831e-08
8.27135e-10
1.83127e-08
7.59313e-10
1.77818e-08
7.00637e-10
1.72869e-08
6.49338e-10
1.68248e-08
6.04016e-10
1.63927e-08
5.63588e-10
1.59878e-08
5.27227e-10
1.56079e-08
4.94304e-10
1.52507e-08
4.6434e-10
1.49144e-08
4.36961e-10
1.45972e-08
4.11871e-10
1.42976e-08
3.88828e-10
1.40141e-08
3.67629e-10
1.37455e-08
3.48099e-10
1.34907e-08
3.30084e-10
1.32485e-08
3.13446e-10
1.30181e-08
2.98061e-10
1.27985e-08
2.83814e-10
1.25891e-08
2.70603e-10
1.23891e-08
2.58333e-10
1.21978e-08
2.4692e-10
1.20147e-08
2.36287e-10
1.18392e-08
2.26361e-10
1.16709e-08
2.17081e-10
1.15092e-08
2.08388e-10
1.13539e-08
2.0023e-10
1.12045e-08
1.9256e-10
1.10606e-08
1.85336e-10
1.0922e-08
1.78518e-10
1.07884e-08
1.72073e-10
1.06596e-08
1.65967e-10
1.05352e-08
1.60172e-10
1.04151e-08
1.54662e-10
1.02991e-08
1.49412e-10
1.01869e-08
1.44401e-10
1.00785e-08
1.39607e-10
9.97359e-09
1.35012e-10
9.87214e-09
1.30599e-10
9.77399e-09
1.26351e-10
9.67901e-09
1.22254e-10
9.5871e-09
1.18294e-10
9.49818e-09
1.14457e-10
9.41214e-09
1.10732e-10
9.32891e-09
1.07107e-10
9.24843e-09
1.03573e-10
9.17062e-09
1.00118e-10
9.09544e-09
9.67351e-11
9.02284e-09
9.34145e-11
8.95277e-09
9.01486e-11
8.8852e-09
8.69302e-11
8.8201e-09
8.37523e-11
8.75743e-09
8.06089e-11
8.69719e-09
7.74942e-11
8.63934e-09
7.44029e-11
8.58388e-09
7.13305e-11
8.5308e-09
6.82728e-11
8.48009e-09
6.52262e-11
8.43173e-09
6.21876e-11
8.38574e-09
5.91548e-11
8.3421e-09
5.61261e-11
8.30081e-09
5.31007e-11
8.26188e-09
5.00792e-11
8.22529e-09
4.70626e-11
8.19105e-09
4.40536e-11
8.15915e-09
4.10551e-11
8.12958e-09
3.80705e-11
8.10233e-09
3.51017e-11
8.07739e-09
3.21483e-11
8.05477e-09
2.92056e-11
8.03446e-09
2.62634e-11
8.01647e-09
2.33067e-11
8.00083e-09
2.03185e-11
7.98756e-09
1.72864e-11
7.97665e-09
1.42147e-11
7.96811e-09
1.11386e-11
7.96184e-09
8.14023e-12
7.95768e-09
5.3611e-12
7.9553e-09
3.02312e-12
7.95419e-09
1.42527e-12
7.95357e-09
8.76323e-13
7.95227e-09
1.94762e-12
8.25828e-12
4.05735e-08
3.02715e-09
-4.04014e-08
4.06631e-08
3.41388e-09
4.06252e-08
3.60561e-09
4.04618e-08
3.68266e-09
4.01806e-08
3.67746e-09
3.97939e-08
3.60114e-09
3.93181e-08
3.4669e-09
3.87709e-08
3.29062e-09
3.81694e-08
3.08758e-09
3.75294e-08
2.87142e-09
3.68647e-08
2.65373e-09
3.61867e-08
2.4436e-09
3.55048e-08
2.24732e-09
3.48261e-08
2.06854e-09
3.41558e-08
1.90864e-09
3.34974e-08
1.76732e-09
3.28536e-08
1.64316e-09
3.22257e-08
1.53417e-09
3.16146e-08
1.43816e-09
3.10209e-08
1.35302e-09
3.04447e-08
1.27686e-09
2.98859e-08
1.20812e-09
2.93445e-08
1.14549e-09
2.88201e-08
1.08798e-09
2.83125e-08
1.03481e-09
2.78214e-08
9.85396e-10
2.73464e-08
9.39281e-10
2.68873e-08
8.96121e-10
2.64435e-08
8.55643e-10
2.60147e-08
8.17626e-10
2.56005e-08
7.81883e-10
2.52003e-08
7.48255e-10
2.48138e-08
7.16597e-10
2.44405e-08
6.86778e-10
2.40798e-08
6.58678e-10
2.37315e-08
6.32183e-10
2.33949e-08
6.07187e-10
2.30696e-08
5.83591e-10
2.27553e-08
5.613e-10
2.24513e-08
5.40226e-10
2.21574e-08
5.20288e-10
2.18731e-08
5.01406e-10
2.15979e-08
4.83509e-10
2.13316e-08
4.66527e-10
2.10738e-08
4.50398e-10
2.08241e-08
4.35062e-10
2.05821e-08
4.20462e-10
2.03477e-08
4.06547e-10
2.01204e-08
3.93266e-10
1.99e-08
3.80575e-10
1.96862e-08
3.68429e-10
1.94788e-08
3.56787e-10
1.92776e-08
3.45613e-10
1.90823e-08
3.34869e-10
1.88928e-08
3.24522e-10
1.87089e-08
3.14539e-10
1.85304e-08
3.0489e-10
1.83571e-08
2.95547e-10
1.81889e-08
2.86482e-10
1.80257e-08
2.77671e-10
1.78673e-08
2.69088e-10
1.77137e-08
2.60711e-10
1.75648e-08
2.52518e-10
1.74204e-08
2.4449e-10
1.72805e-08
2.36606e-10
1.71451e-08
2.28848e-10
1.7014e-08
2.212e-10
1.68873e-08
2.13646e-10
1.67649e-08
2.0617e-10
1.66467e-08
1.98758e-10
1.65328e-08
1.91398e-10
1.64232e-08
1.84079e-10
1.63177e-08
1.76789e-10
1.62165e-08
1.69518e-10
1.61194e-08
1.6226e-10
1.60266e-08
1.55005e-10
1.5938e-08
1.4775e-10
1.58537e-08
1.4049e-10
1.57735e-08
1.33224e-10
1.56977e-08
1.25949e-10
1.56261e-08
1.1867e-10
1.55587e-08
1.11389e-10
1.54957e-08
1.04111e-10
1.54369e-08
9.68415e-11
1.53824e-08
8.95832e-11
1.53322e-08
8.23362e-11
1.52863e-08
7.50955e-11
1.52447e-08
6.78509e-11
1.52075e-08
6.05895e-11
1.51745e-08
5.33036e-11
1.51458e-08
4.60038e-11
1.51212e-08
3.87375e-11
1.51008e-08
3.16093e-11
1.50841e-08
2.4793e-11
1.50709e-08
1.85264e-11
1.50609e-08
1.30957e-11
1.50534e-08
8.85447e-12
1.5048e-08
6.35866e-12
1.5043e-08
6.94186e-12
1.58544e-11
4.50679e-08
2.81479e-09
-4.48556e-08
4.52971e-08
3.1847e-09
4.54915e-08
3.41126e-09
4.5635e-08
3.53908e-09
4.57187e-08
3.59381e-09
4.57356e-08
3.58421e-09
4.56838e-08
3.51874e-09
4.55654e-08
3.409e-09
4.53856e-08
3.26738e-09
4.51514e-08
3.10566e-09
4.48707e-08
2.93437e-09
4.4552e-08
2.76232e-09
4.42031e-08
2.59622e-09
4.38311e-08
2.44054e-09
4.3442e-08
2.29776e-09
4.30406e-08
2.16868e-09
4.26308e-08
2.05296e-09
4.22155e-08
1.9495e-09
4.17968e-08
1.85684e-09
4.13764e-08
1.77342e-09
4.09555e-08
1.69775e-09
4.05351e-08
1.62852e-09
4.0116e-08
1.56464e-09
3.96987e-08
1.50522e-09
3.9284e-08
1.44957e-09
3.88722e-08
1.39717e-09
3.84639e-08
1.34761e-09
3.80594e-08
1.30059e-09
3.76591e-08
1.25588e-09
3.72635e-08
1.21329e-09
3.68727e-08
1.17268e-09
3.6487e-08
1.13392e-09
3.61067e-08
1.0969e-09
3.5732e-08
1.06152e-09
3.53629e-08
1.02771e-09
3.49998e-08
9.95364e-10
3.46425e-08
9.64416e-10
3.42913e-08
9.34788e-10
3.39462e-08
9.0641e-10
3.36072e-08
8.79213e-10
3.32744e-08
8.53132e-10
3.29477e-08
8.28106e-10
3.26271e-08
8.04075e-10
3.23127e-08
7.80982e-10
3.20043e-08
7.58775e-10
3.1702e-08
7.374e-10
3.14056e-08
7.1681e-10
3.11152e-08
6.96956e-10
3.08307e-08
6.77794e-10
3.0552e-08
6.59279e-10
3.0279e-08
6.41371e-10
3.00118e-08
6.24029e-10
2.97502e-08
6.07214e-10
2.94942e-08
5.90889e-10
2.92437e-08
5.75018e-10
2.89986e-08
5.59566e-10
2.8759e-08
5.44499e-10
2.85248e-08
5.29785e-10
2.82959e-08
5.15393e-10
2.80723e-08
5.01291e-10
2.78539e-08
4.8745e-10
2.76408e-08
4.73842e-10
2.74328e-08
4.60439e-10
2.72301e-08
4.47214e-10
2.70326e-08
4.34143e-10
2.68402e-08
4.21201e-10
2.66531e-08
4.08364e-10
2.64711e-08
3.9561e-10
2.62944e-08
3.82918e-10
2.61228e-08
3.70268e-10
2.59566e-08
3.57642e-10
2.57957e-08
3.45021e-10
2.56401e-08
3.32391e-10
2.54898e-08
3.19737e-10
2.53451e-08
3.07047e-10
2.52057e-08
2.9431e-10
2.5072e-08
2.81519e-10
2.49438e-08
2.68668e-10
2.48213e-08
2.55753e-10
2.47044e-08
2.42775e-10
2.45934e-08
2.29737e-10
2.44881e-08
2.16644e-10
2.43887e-08
2.03503e-10
2.42953e-08
1.90324e-10
2.42077e-08
1.77111e-10
2.41262e-08
1.63872e-10
2.40507e-08
1.50606e-10
2.39812e-08
1.37316e-10
2.39178e-08
1.24005e-10
2.38604e-08
1.10697e-10
2.3809e-08
9.74462e-11
2.37633e-08
8.43647e-11
2.37233e-08
7.16398e-11
2.36886e-08
5.95439e-11
2.36587e-08
4.84232e-11
2.36331e-08
3.86699e-11
2.36112e-08
3.07088e-11
2.35925e-08
2.51302e-11
2.35759e-08
2.3543e-11
3.14313e-11
4.99414e-08
2.63091e-09
-4.97576e-08
5.01692e-08
2.95691e-09
5.0399e-08
3.18148e-09
5.06141e-08
3.32394e-09
5.08052e-08
3.40271e-09
5.09633e-08
3.42613e-09
5.10814e-08
3.40062e-09
5.11558e-08
3.33466e-09
5.11853e-08
3.23791e-09
5.11711e-08
3.11984e-09
5.11163e-08
2.98918e-09
5.10251e-08
2.85351e-09
5.09024e-08
2.71893e-09
5.07531e-08
2.58984e-09
5.05818e-08
2.46905e-09
5.03925e-08
2.35795e-09
5.01886e-08
2.25687e-09
4.99727e-08
2.16538e-09
4.97469e-08
2.08263e-09
4.95128e-08
2.00754e-09
4.92716e-08
1.93899e-09
4.90241e-08
1.87597e-09
4.87712e-08
1.81755e-09
4.85135e-08
1.76299e-09
4.82513e-08
1.71168e-09
4.79854e-08
1.66314e-09
4.7716e-08
1.61701e-09
4.74436e-08
1.573e-09
4.71685e-08
1.53091e-09
4.68913e-08
1.49055e-09
4.66122e-08
1.45181e-09
4.63315e-08
1.41456e-09
4.60497e-08
1.37874e-09
4.5767e-08
1.34424e-09
4.54837e-08
1.31101e-09
4.52001e-08
1.27897e-09
4.49164e-08
1.24806e-09
4.4633e-08
1.21823e-09
4.435e-08
1.18942e-09
4.40676e-08
1.16158e-09
4.37861e-08
1.13465e-09
4.35056e-08
1.10858e-09
4.32263e-08
1.08333e-09
4.29485e-08
1.05885e-09
4.26722e-08
1.03509e-09
4.23975e-08
1.01202e-09
4.21248e-08
9.89586e-10
4.1854e-08
9.67755e-10
4.15853e-08
9.46486e-10
4.13188e-08
9.2574e-10
4.10547e-08
9.05481e-10
4.07931e-08
8.85673e-10
4.0534e-08
8.6628e-10
4.02776e-08
8.47268e-10
4.0024e-08
8.28603e-10
3.97734e-08
8.10251e-10
3.95257e-08
7.92181e-10
3.92811e-08
7.74359e-10
3.90397e-08
7.56754e-10
3.88017e-08
7.39336e-10
3.85671e-08
7.22074e-10
3.8336e-08
7.04938e-10
3.81085e-08
6.87899e-10
3.78848e-08
6.70928e-10
3.76649e-08
6.53998e-10
3.74491e-08
6.37081e-10
3.72373e-08
6.20152e-10
3.70297e-08
6.03184e-10
3.68265e-08
5.86154e-10
3.66277e-08
5.69039e-10
3.64335e-08
5.51817e-10
3.62441e-08
5.34468e-10
3.60595e-08
5.16973e-10
3.58799e-08
4.99317e-10
3.57055e-08
4.81485e-10
3.55363e-08
4.63465e-10
3.53726e-08
4.45248e-10
3.52144e-08
4.2683e-10
3.5062e-08
4.08208e-10
3.49154e-08
3.89383e-10
3.47747e-08
3.70363e-10
3.46402e-08
3.51155e-10
3.4512e-08
3.31771e-10
3.43901e-08
3.12227e-10
3.42746e-08
2.92536e-10
3.41658e-08
2.72713e-10
3.40636e-08
2.52774e-10
3.39682e-08
2.32742e-10
3.38795e-08
2.12653e-10
3.37977e-08
1.9257e-10
3.37225e-08
1.72608e-10
3.36539e-08
1.52948e-10
3.35917e-08
1.33857e-10
3.35356e-08
1.15689e-10
3.34851e-08
9.88711e-11
3.34399e-08
8.38644e-11
3.33995e-08
7.11612e-11
3.33632e-08
6.1421e-11
3.33306e-08
5.61223e-11
5.86005e-11
5.53184e-08
2.47727e-09
-5.51648e-08
5.552e-08
2.75536e-09
5.57375e-08
2.96393e-09
5.59543e-08
3.10718e-09
5.61612e-08
3.19578e-09
5.63506e-08
3.23674e-09
5.65159e-08
3.23537e-09
5.66524e-08
3.19809e-09
5.67579e-08
3.13243e-09
5.68317e-08
3.04601e-09
5.68749e-08
2.946e-09
5.68897e-08
2.83877e-09
5.6879e-08
2.72961e-09
5.68462e-08
2.6226e-09
5.67947e-08
2.52053e-09
5.67276e-08
2.42507e-09
5.66475e-08
2.33696e-09
5.65566e-08
2.25627e-09
5.64567e-08
2.18259e-09
5.63489e-08
2.11528e-09
5.62344e-08
2.05355e-09
5.61137e-08
1.99664e-09
5.59874e-08
1.94383e-09
5.58559e-08
1.8945e-09
5.57195e-08
1.84813e-09
5.55783e-08
1.80429e-09
5.54327e-08
1.76265e-09
5.52827e-08
1.72295e-09
5.51287e-08
1.68496e-09
5.49707e-08
1.64854e-09
5.48089e-08
1.61355e-09
5.46436e-08
1.57988e-09
5.44749e-08
1.54744e-09
5.4303e-08
1.51616e-09
5.41281e-08
1.48596e-09
5.39502e-08
1.4568e-09
5.37697e-08
1.42859e-09
5.35866e-08
1.4013e-09
5.34012e-08
1.37487e-09
5.32135e-08
1.34924e-09
5.30238e-08
1.32437e-09
5.28322e-08
1.30022e-09
5.26388e-08
1.27673e-09
5.24437e-08
1.25387e-09
5.22472e-08
1.23158e-09
5.20494e-08
1.20984e-09
5.18504e-08
1.18859e-09
5.16504e-08
1.16781e-09
5.14494e-08
1.14744e-09
5.12477e-08
1.12746e-09
5.10454e-08
1.10782e-09
5.08425e-08
1.08849e-09
5.06394e-08
1.06943e-09
5.04361e-08
1.05061e-09
5.02327e-08
1.03199e-09
5.00294e-08
1.01354e-09
4.98264e-08
9.95215e-10
4.96237e-08
9.76992e-10
4.94216e-08
9.58832e-10
4.92203e-08
9.40702e-10
4.90198e-08
9.22569e-10
4.88203e-08
9.04398e-10
4.86221e-08
8.86159e-10
4.84252e-08
8.67819e-10
4.82298e-08
8.49345e-10
4.80362e-08
8.30707e-10
4.78445e-08
8.11876e-10
4.76548e-08
7.92821e-10
4.74675e-08
7.73514e-10
4.72826e-08
7.53929e-10
4.71004e-08
7.3404e-10
4.6921e-08
7.13824e-10
4.67447e-08
6.93259e-10
4.65717e-08
6.72325e-10
4.64022e-08
6.51007e-10
4.62364e-08
6.2929e-10
4.60745e-08
6.07166e-10
4.59167e-08
5.84628e-10
4.57632e-08
5.61675e-10
4.56143e-08
5.3831e-10
4.54701e-08
5.14543e-10
4.53308e-08
4.90385e-10
4.51968e-08
4.65854e-10
4.5068e-08
4.40972e-10
4.49448e-08
4.15762e-10
4.48273e-08
3.90253e-10
4.47155e-08
3.64481e-10
4.46098e-08
3.38494e-10
4.45101e-08
3.12365e-10
4.44164e-08
2.86204e-10
4.43289e-08
2.60181e-10
4.42473e-08
2.3454e-10
4.41715e-08
2.09614e-10
4.41014e-08
1.85816e-10
4.40367e-08
1.6362e-10
4.3977e-08
1.43524e-10
4.39221e-08
1.26042e-10
4.38718e-08
1.11777e-10
4.38263e-08
1.01599e-10
9.57583e-11
6.12606e-08
2.34672e-09
-6.113e-08
6.14352e-08
2.58075e-09
6.16312e-08
2.76795e-09
6.18328e-08
2.90552e-09
6.20307e-08
2.99785e-09
6.22178e-08
3.04965e-09
6.23881e-08
3.06506e-09
6.25373e-08
3.04889e-09
6.26629e-08
3.00688e-09
6.27638e-08
2.94508e-09
6.28405e-08
2.86931e-09
6.28944e-08
2.78489e-09
6.29276e-08
2.69635e-09
6.29429e-08
2.60734e-09
6.29429e-08
2.52055e-09
6.29302e-08
2.43777e-09
6.29071e-08
2.36003e-09
6.28756e-08
2.28774e-09
6.28373e-08
2.2209e-09
6.27934e-08
2.15919e-09
6.27448e-08
2.10218e-09
6.26921e-08
2.04933e-09
6.26358e-08
2.00015e-09
6.25761e-08
1.95414e-09
6.25133e-08
1.9109e-09
6.24476e-08
1.87006e-09
6.23789e-08
1.83134e-09
6.23074e-08
1.79449e-09
6.2233e-08
1.75932e-09
6.21559e-08
1.72567e-09
6.2076e-08
1.69343e-09
6.19934e-08
1.66248e-09
6.19081e-08
1.63272e-09
6.18202e-08
1.60409e-09
6.17296e-08
1.57652e-09
6.16365e-08
1.54993e-09
6.15408e-08
1.52427e-09
6.14426e-08
1.49948e-09
6.1342e-08
1.47551e-09
6.12389e-08
1.4523e-09
6.11335e-08
1.42981e-09
6.10257e-08
1.40799e-09
6.09157e-08
1.38678e-09
6.08034e-08
1.36615e-09
6.06889e-08
1.34604e-09
6.05723e-08
1.32641e-09
6.04537e-08
1.30723e-09
6.03331e-08
1.28844e-09
6.02105e-08
1.27e-09
6.00861e-08
1.25188e-09
5.99599e-08
1.23402e-09
5.9832e-08
1.2164e-09
5.97024e-08
1.19897e-09
5.95714e-08
1.18168e-09
5.94388e-08
1.16451e-09
5.9305e-08
1.1474e-09
5.91699e-08
1.13033e-09
5.90336e-08
1.11325e-09
5.88963e-08
1.09611e-09
5.87581e-08
1.07889e-09
5.86191e-08
1.06155e-09
5.84795e-08
1.04403e-09
5.83394e-08
1.02632e-09
5.81988e-08
1.00836e-09
5.8058e-08
9.90117e-10
5.79172e-08
9.7156e-10
5.77764e-08
9.52648e-10
5.76359e-08
9.33346e-10
5.74958e-08
9.13621e-10
5.73563e-08
8.93438e-10
5.72175e-08
8.72768e-10
5.70798e-08
8.5158e-10
5.69432e-08
8.29847e-10
5.6808e-08
8.07546e-10
5.66743e-08
7.84655e-10
5.65425e-08
7.61157e-10
5.64126e-08
7.37039e-10
5.62849e-08
7.12293e-10
5.61597e-08
6.86916e-10
5.60371e-08
6.60912e-10
5.59173e-08
6.34287e-10
5.58007e-08
6.07059e-10
5.56873e-08
5.79248e-10
5.55774e-08
5.5088e-10
5.54711e-08
5.2199e-10
5.53688e-08
4.9262e-10
5.52704e-08
4.62826e-10
5.51762e-08
4.32681e-10
5.50863e-08
4.02292e-10
5.50007e-08
3.71809e-10
5.49194e-08
3.41448e-10
5.48425e-08
3.11498e-10
5.47698e-08
2.82331e-10
5.47012e-08
2.54394e-10
5.46366e-08
2.28178e-10
5.4576e-08
2.04187e-10
5.45191e-08
1.82902e-10
5.44661e-08
1.64756e-10
5.44178e-08
1.49886e-10
1.36405e-10
6.78252e-08
2.23377e-09
-6.77122e-08
6.79758e-08
2.43015e-09
6.81489e-08
2.59487e-09
6.83313e-08
2.72311e-09
6.85138e-08
2.81532e-09
6.86896e-08
2.87388e-09
6.8853e-08
2.90162e-09
6.89999e-08
2.902e-09
6.91276e-08
2.87924e-09
6.92347e-08
2.83795e-09
6.93213e-08
2.78274e-09
6.93882e-08
2.71794e-09
6.94372e-08
2.64736e-09
6.94703e-08
2.5742e-09
6.949e-08
2.50094e-09
6.94983e-08
2.4294e-09
6.94976e-08
2.36076e-09
6.94896e-08
2.29572e-09
6.9476e-08
2.23455e-09
6.94579e-08
2.17727e-09
6.94364e-08
2.12371e-09
6.94121e-08
2.07359e-09
6.93856e-08
2.0266e-09
6.93574e-08
1.98242e-09
6.93275e-08
1.94074e-09
6.92963e-08
1.9013e-09
6.92637e-08
1.86387e-09
6.923e-08
1.82825e-09
6.9195e-08
1.79429e-09
6.91589e-08
1.76183e-09
6.91215e-08
1.73078e-09
6.9083e-08
1.70103e-09
6.90432e-08
1.67249e-09
6.90022e-08
1.64509e-09
6.89599e-08
1.61877e-09
6.89164e-08
1.59346e-09
6.88716e-08
1.5691e-09
6.88254e-08
1.54564e-09
6.87779e-08
1.52302e-09
6.8729e-08
1.50119e-09
6.86787e-08
1.48009e-09
6.8627e-08
1.45969e-09
6.85739e-08
1.43992e-09
6.85193e-08
1.42074e-09
6.84633e-08
1.4021e-09
6.84057e-08
1.38396e-09
6.83467e-08
1.36626e-09
6.82861e-08
1.34897e-09
6.82241e-08
1.33204e-09
6.81606e-08
1.31541e-09
6.80955e-08
1.29905e-09
6.8029e-08
1.28292e-09
6.7961e-08
1.26696e-09
6.78916e-08
1.25113e-09
6.78207e-08
1.23538e-09
6.77484e-08
1.21968e-09
6.76748e-08
1.20398e-09
6.75998e-08
1.18823e-09
6.75235e-08
1.17238e-09
6.7446e-08
1.1564e-09
6.73674e-08
1.14023e-09
6.72875e-08
1.12384e-09
6.72067e-08
1.10718e-09
6.71249e-08
1.09019e-09
6.70421e-08
1.07285e-09
6.69586e-08
1.0551e-09
6.68743e-08
1.03691e-09
6.67894e-08
1.01822e-09
6.67041e-08
9.99002e-10
6.66183e-08
9.79213e-10
6.65322e-08
9.58816e-10
6.64461e-08
9.37774e-10
6.63598e-08
9.16055e-10
6.62738e-08
8.93628e-10
6.6188e-08
8.70466e-10
6.61026e-08
8.46548e-10
6.60177e-08
8.21856e-10
6.59337e-08
7.96377e-10
6.58505e-08
7.70106e-10
6.57683e-08
7.43042e-10
6.56874e-08
7.15194e-10
6.56079e-08
6.86576e-10
6.553e-08
6.57212e-10
6.54537e-08
6.27133e-10
6.53793e-08
5.9638e-10
6.53069e-08
5.65007e-10
6.52367e-08
5.33086e-10
6.51686e-08
5.00713e-10
6.51029e-08
4.68019e-10
6.50395e-08
4.35185e-10
6.49785e-08
4.02452e-10
6.49199e-08
3.70135e-10
6.48636e-08
3.38621e-10
6.48096e-08
3.08359e-10
6.4758e-08
2.79832e-10
6.47086e-08
2.53519e-10
6.46617e-08
2.29841e-10
6.46174e-08
2.09057e-10
6.45764e-08
1.90872e-10
1.73115e-10
6.79882e-08
2.14342e-09
-6.78978e-08
6.81071e-08
2.31124e-09
6.82454e-08
2.4566e-09
6.83937e-08
2.57477e-09
6.85446e-08
2.66445e-09
6.86921e-08
2.72638e-09
6.88314e-08
2.76228e-09
6.89589e-08
2.77455e-09
6.90719e-08
2.76623e-09
6.9169e-08
2.7408e-09
6.92499e-08
2.70187e-09
6.93149e-08
2.65292e-09
6.93652e-08
2.59713e-09
6.94021e-08
2.53725e-09
6.94275e-08
2.47554e-09
6.94432e-08
2.41375e-09
6.94508e-08
2.35313e-09
6.9452e-08
2.29451e-09
6.94482e-08
2.23839e-09
6.94404e-08
2.185e-09
6.94298e-08
2.13439e-09
6.94169e-08
2.08647e-09
6.94024e-08
2.04112e-09
6.93866e-08
1.99815e-09
6.937e-08
1.95736e-09
6.93527e-08
1.91859e-09
6.93349e-08
1.88166e-09
6.93168e-08
1.84644e-09
6.92982e-08
1.81279e-09
6.92795e-08
1.78061e-09
6.92604e-08
1.7498e-09
6.92412e-08
1.72028e-09
6.92217e-08
1.69197e-09
6.9202e-08
1.66481e-09
6.9182e-08
1.63873e-09
6.91618e-08
1.61369e-09
6.91413e-08
1.58961e-09
6.91205e-08
1.56646e-09
6.90993e-08
1.54418e-09
6.90778e-08
1.52271e-09
6.90559e-08
1.50202e-09
6.90335e-08
1.48204e-09
6.90107e-08
1.46273e-09
6.89874e-08
1.44404e-09
6.89636e-08
1.42592e-09
6.89392e-08
1.40833e-09
6.89142e-08
1.39122e-09
6.88887e-08
1.37454e-09
6.88625e-08
1.35824e-09
6.88356e-08
1.34228e-09
6.8808e-08
1.32661e-09
6.87798e-08
1.31117e-09
6.87508e-08
1.29594e-09
6.87211e-08
1.28084e-09
6.86906e-08
1.26585e-09
6.86594e-08
1.25091e-09
6.86274e-08
1.23598e-09
6.85946e-08
1.221e-09
6.85611e-08
1.20593e-09
6.85268e-08
1.19071e-09
6.84917e-08
1.17531e-09
6.84559e-08
1.15967e-09
6.84193e-08
1.14374e-09
6.8382e-08
1.12747e-09
6.8344e-08
1.11082e-09
6.83054e-08
1.09374e-09
6.82661e-08
1.07618e-09
6.82262e-08
1.05809e-09
6.81858e-08
1.03943e-09
6.81449e-08
1.02014e-09
6.81035e-08
1.0002e-09
6.80617e-08
9.79565e-10
6.80196e-08
9.58187e-10
6.79772e-08
9.36036e-10
6.79346e-08
9.13083e-10
6.78918e-08
8.893e-10
6.7849e-08
8.64667e-10
6.78062e-08
8.39167e-10
6.77635e-08
8.12792e-10
6.7721e-08
7.8554e-10
6.76788e-08
7.57417e-10
6.76369e-08
7.28437e-10
6.75955e-08
6.98626e-10
6.75546e-08
6.68017e-10
6.75144e-08
6.36658e-10
6.74748e-08
6.0461e-10
6.74359e-08
5.71958e-10
6.73978e-08
5.38812e-10
6.73605e-08
5.05318e-10
6.7324e-08
4.71674e-10
6.72883e-08
4.38132e-10
6.72534e-08
4.05011e-10
6.72194e-08
3.72695e-10
6.71861e-08
3.41615e-10
6.71537e-08
3.12232e-10
6.71222e-08
2.84986e-10
6.70918e-08
2.60245e-10
6.70627e-08
2.38183e-10
6.70351e-08
2.18477e-10
1.99692e-10
7.52271e-08
2.06286e-09
-7.51465e-08
7.53313e-08
2.20706e-09
7.54529e-08
2.33503e-09
7.55848e-08
2.4428e-09
7.57208e-08
2.52844e-09
7.58556e-08
2.59167e-09
7.59845e-08
2.63329e-09
7.61043e-08
2.6548e-09
7.62122e-08
2.65829e-09
7.63068e-08
2.64627e-09
7.63872e-08
2.62146e-09
7.64535e-08
2.58657e-09
7.65065e-08
2.54419e-09
7.65471e-08
2.49662e-09
7.65768e-08
2.44585e-09
7.6597e-08
2.39349e-09
7.66094e-08
2.34079e-09
7.66152e-08
2.28867e-09
7.66158e-08
2.23776e-09
7.66124e-08
2.18845e-09
7.66058e-08
2.14097e-09
7.65969e-08
2.09541e-09
7.65862e-08
2.05179e-09
7.65743e-08
2.01006e-09
7.65615e-08
1.97013e-09
7.65482e-08
1.93193e-09
7.65345e-08
1.89535e-09
7.65206e-08
1.86031e-09
7.65067e-08
1.82673e-09
7.64928e-08
1.79452e-09
7.64789e-08
1.76362e-09
7.64653e-08
1.73397e-09
7.64517e-08
1.7055e-09
7.64384e-08
1.67816e-09
7.64252e-08
1.65189e-09
7.64122e-08
1.62666e-09
7.63995e-08
1.6024e-09
7.63869e-08
1.57907e-09
7.63744e-08
1.55663e-09
7.63621e-08
1.53502e-09
7.63499e-08
1.5142e-09
7.63378e-08
1.49411e-09
7.63258e-08
1.47473e-09
7.63139e-08
1.45598e-09
7.6302e-08
1.43784e-09
7.62901e-08
1.42025e-09
7.62781e-08
1.40316e-09
7.62662e-08
1.38653e-09
7.62541e-08
1.3703e-09
7.62419e-08
1.35444e-09
7.62296e-08
1.3389e-09
7.62172e-08
1.32362e-09
7.62046e-08
1.30856e-09
7.61917e-08
1.29367e-09
7.61787e-08
1.27889e-09
7.61654e-08
1.2642e-09
7.61519e-08
1.24952e-09
7.61381e-08
1.23482e-09
7.61239e-08
1.22004e-09
7.61095e-08
1.20513e-09
7.60948e-08
1.19005e-09
7.60797e-08
1.17474e-09
7.60643e-08
1.15915e-09
7.60485e-08
1.14323e-09
7.60324e-08
1.12693e-09
7.6016e-08
1.1102e-09
7.59992e-08
1.09299e-09
7.5982e-08
1.07525e-09
7.59645e-08
1.05693e-09
7.59467e-08
1.03799e-09
7.59285e-08
1.01838e-09
7.591e-08
9.9805e-10
7.58912e-08
9.76972e-10
7.58721e-08
9.55104e-10
7.58528e-08
9.32414e-10
7.58332e-08
9.08872e-10
7.58134e-08
8.84456e-10
7.57935e-08
8.59148e-10
7.57733e-08
8.32937e-10
7.5753e-08
8.05821e-10
7.57327e-08
7.77805e-10
7.57122e-08
7.48904e-10
7.56917e-08
7.19144e-10
7.56711e-08
6.88562e-10
7.56506e-08
6.5721e-10
7.563e-08
6.25157e-10
7.56095e-08
5.92497e-10
7.5589e-08
5.59348e-10
7.55684e-08
5.25867e-10
7.55478e-08
4.92258e-10
7.55272e-08
4.58775e-10
7.55065e-08
4.2573e-10
7.54857e-08
3.93487e-10
7.54648e-08
3.62454e-10
7.5444e-08
3.33054e-10
7.54233e-08
3.05689e-10
7.54029e-08
2.8069e-10
7.53828e-08
2.58226e-10
7.53631e-08
2.38146e-10
2.19929e-10
8.32226e-08
1.99177e-09
-8.31515e-08
8.33129e-08
2.11674e-09
8.34182e-08
2.2297e-09
8.35334e-08
2.32756e-09
8.36535e-08
2.40837e-09
8.37738e-08
2.47135e-09
8.38905e-08
2.51662e-09
8.40003e-08
2.545e-09
8.41008e-08
2.55782e-09
8.41902e-08
2.55679e-09
8.42678e-08
2.54389e-09
8.43332e-08
2.52116e-09
8.43868e-08
2.49064e-09
8.44292e-08
2.45421e-09
8.44615e-08
2.41356e-09
8.44848e-08
2.37014e-09
8.45005e-08
2.32512e-09
8.45097e-08
2.27945e-09
8.45136e-08
2.23384e-09
8.45133e-08
2.18879e-09
8.45096e-08
2.14466e-09
8.45033e-08
2.10169e-09
8.44951e-08
2.06002e-09
8.44854e-08
2.01972e-09
8.44748e-08
1.98081e-09
8.44634e-08
1.94328e-09
8.44516e-08
1.90713e-09
8.44396e-08
1.87232e-09
8.44276e-08
1.8388e-09
8.44155e-08
1.80654e-09
8.44037e-08
1.7755e-09
8.4392e-08
1.74564e-09
8.43806e-08
1.71691e-09
8.43695e-08
1.68927e-09
8.43587e-08
1.66269e-09
8.43482e-08
1.63711e-09
8.43381e-08
1.61251e-09
8.43283e-08
1.58883e-09
8.43189e-08
1.56603e-09
8.43099e-08
1.54408e-09
8.43012e-08
1.52292e-09
8.42928e-08
1.50251e-09
8.42847e-08
1.48281e-09
8.42769e-08
1.46377e-09
8.42694e-08
1.44534e-09
8.42622e-08
1.42748e-09
8.42552e-08
1.41014e-09
8.42484e-08
1.39328e-09
8.42419e-08
1.37685e-09
8.42355e-08
1.36079e-09
8.42293e-08
1.34507e-09
8.42233e-08
1.32964e-09
8.42174e-08
1.31444e-09
8.42117e-08
1.29943e-09
8.4206e-08
1.28456e-09
8.42004e-08
1.26977e-09
8.41949e-08
1.25503e-09
8.41895e-08
1.24028e-09
8.4184e-08
1.22547e-09
8.41786e-08
1.21055e-09
8.41732e-08
1.19546e-09
8.41678e-08
1.18017e-09
8.41623e-08
1.1646e-09
8.41568e-08
1.14873e-09
8.41513e-08
1.13248e-09
8.41457e-08
1.11582e-09
8.414e-08
1.09868e-09
8.41342e-08
1.08103e-09
8.41283e-08
1.06282e-09
8.41223e-08
1.04398e-09
8.41162e-08
1.02449e-09
8.411e-08
1.0043e-09
8.41036e-08
9.83355e-10
8.4097e-08
9.61633e-10
8.40904e-08
9.39095e-10
8.40835e-08
9.15714e-10
8.40765e-08
8.91465e-10
8.40693e-08
8.66331e-10
8.4062e-08
8.40301e-10
8.40544e-08
8.13373e-10
8.40467e-08
7.85553e-10
8.40387e-08
7.56857e-10
8.40305e-08
7.27314e-10
8.40221e-08
6.96965e-10
8.40135e-08
6.65866e-10
8.40046e-08
6.34093e-10
8.39953e-08
6.01744e-10
8.39857e-08
5.68947e-10
8.39757e-08
5.35862e-10
8.39653e-08
5.02695e-10
8.39544e-08
4.69696e-10
8.39429e-08
4.37161e-10
8.3931e-08
4.05436e-10
8.39185e-08
3.74895e-10
8.39057e-08
3.45926e-10
8.38924e-08
3.189e-10
8.3879e-08
2.9413e-10
8.38654e-08
2.71823e-10
8.38515e-08
2.52046e-10
2.34926e-10
9.20547e-08
1.93043e-09
-9.19933e-08
9.21314e-08
2.04005e-09
9.22205e-08
2.14053e-09
9.23185e-08
2.22956e-09
9.24215e-08
2.30541e-09
9.25258e-08
2.3671e-09
9.2628e-08
2.41439e-09
9.27254e-08
2.44758e-09
9.28158e-08
2.46742e-09
9.28976e-08
2.47505e-09
9.29696e-08
2.47181e-09
9.30316e-08
2.45921e-09
9.30834e-08
2.43879e-09
9.31256e-08
2.41207e-09
9.31587e-08
2.38043e-09
9.31837e-08
2.34513e-09
9.32016e-08
2.30727e-09
9.32133e-08
2.26774e-09
9.32198e-08
2.22729e-09
9.32221e-08
2.1865e-09
9.3221e-08
2.14581e-09
9.32171e-08
2.10556e-09
9.32111e-08
2.066e-09
9.32036e-08
2.02729e-09
9.31948e-08
1.98955e-09
9.31852e-08
1.95286e-09
9.31751e-08
1.91726e-09
9.31647e-08
1.88277e-09
9.31541e-08
1.84942e-09
9.31434e-08
1.81718e-09
9.31329e-08
1.78605e-09
9.31225e-08
1.75602e-09
9.31123e-08
1.72706e-09
9.31024e-08
1.69915e-09
9.30929e-08
1.67225e-09
9.30837e-08
1.64633e-09
9.30748e-08
1.62137e-09
9.30663e-08
1.59732e-09
9.30582e-08
1.57415e-09
9.30505e-08
1.55182e-09
9.30431e-08
1.53028e-09
9.30361e-08
1.5095e-09
9.30295e-08
1.48943e-09
9.30232e-08
1.47003e-09
9.30173e-08
1.45125e-09
9.30117e-08
1.43305e-09
9.30065e-08
1.41538e-09
9.30016e-08
1.39821e-09
9.2997e-08
1.38147e-09
9.29926e-08
1.36512e-09
9.29886e-08
1.34912e-09
9.29848e-08
1.33342e-09
9.29813e-08
1.31797e-09
9.2978e-08
1.30272e-09
9.29749e-08
1.28762e-09
9.2972e-08
1.27263e-09
9.29694e-08
1.25769e-09
9.29669e-08
1.24275e-09
9.29646e-08
1.22776e-09
9.29625e-08
1.21268e-09
9.29605e-08
1.19744e-09
9.29587e-08
1.18201e-09
9.2957e-08
1.16633e-09
9.29553e-08
1.15034e-09
9.29538e-08
1.13399e-09
9.29524e-08
1.11725e-09
9.29511e-08
1.10004e-09
9.29498e-08
1.08233e-09
9.29485e-08
1.06407e-09
9.29473e-08
1.04521e-09
9.29461e-08
1.02571e-09
9.29448e-08
1.00551e-09
9.29436e-08
9.84588e-10
9.29423e-08
9.62901e-10
9.2941e-08
9.40415e-10
9.29396e-08
9.17104e-10
9.29381e-08
8.92944e-10
9.29366e-08
8.67919e-10
9.29348e-08
8.4202e-10
9.2933e-08
8.15246e-10
9.29309e-08
7.87605e-10
9.29287e-08
7.59115e-10
9.29262e-08
7.29809e-10
9.29234e-08
6.99729e-10
9.29203e-08
6.68939e-10
9.29169e-08
6.37518e-10
9.29131e-08
6.0557e-10
9.29088e-08
5.73228e-10
9.2904e-08
5.40656e-10
9.28986e-08
5.08056e-10
9.28927e-08
4.7567e-10
9.2886e-08
4.43783e-10
9.28788e-08
4.12716e-10
9.28708e-08
3.82815e-10
9.28623e-08
3.54439e-10
9.28533e-08
3.27934e-10
9.28438e-08
3.03607e-10
9.28339e-08
2.81716e-10
9.28235e-08
2.62477e-10
2.46309e-10
1.01812e-07
1.87961e-09
-1.01762e-07
1.01875e-07
1.97734e-09
1.01948e-07
2.0679e-09
1.02028e-07
2.14953e-09
1.02112e-07
2.22078e-09
1.02199e-07
2.2807e-09
1.02284e-07
2.32882e-09
1.02367e-07
2.36512e-09
1.02444e-07
2.38998e-09
1.02515e-07
2.40406e-09
1.02579e-07
2.40827e-09
1.02634e-07
2.40368e-09
1.02682e-07
2.39144e-09
1.02721e-07
2.37273e-09
1.02753e-07
2.34869e-09
1.02777e-07
2.32039e-09
1.02796e-07
2.2888e-09
1.02809e-07
2.25477e-09
1.02817e-07
2.21904e-09
1.02821e-07
2.18222e-09
1.02822e-07
2.14481e-09
1.02821e-07
2.10721e-09
1.02817e-07
2.06975e-09
1.02812e-07