/*--------------------------------*- C++ -*----------------------------------*\
| =========                 |                                                 |
| \\      /  F ield         | OpenFOAM: The Open Source CFD Toolbox           |
|  \\    /   O peration     | Version:  2.3.0                                 |
|   \\  /    A nd           | Web:      www.OpenFOAM.org                      |
|    \\/     M anipulation  |                                                 |
\*---------------------------------------------------------------------------*/
FoamFile
{
    version     2.0;
    format      ascii;
    class       volVectorField;
    location    "0.5";
    object      U_0;
}
// * * * * * * * * * * * * * * * * * * * * * * * * * * * * * * * * * * * * * //

dimensions      [0 1 -1 0 0 0 0];

internalField   nonuniform List<vector> 
2000
(
(0.170378 0.00604939 0)
(0.153677 0.00611294 0)
(0.137625 0.00568393 0)
(0.122423 0.00507059 0)
(0.108488 0.00439112 0)
(0.0959963 0.0037005 0)
(0.0849643 0.00303739 0)
(0.075359 0.00242895 0)
(0.0671223 0.00189197 0)
(0.0601639 0.00143508 0)
(0.0543622 0.00106024 0)
(0.0495755 0.0007637 0)
(0.0456537 0.000537406 0)
(0.0424492 0.000370772 0)
(0.0398253 0.000252406 0)
(0.0376614 0.000171419 0)
(0.0358553 0.000118215 0)
(0.0343245 8.48326e-05 0)
(0.0330041 6.49823e-05 0)
(0.0318449 5.39156e-05 0)
(0.0308104 4.82085e-05 0)
(0.0298741 4.55129e-05 0)
(0.0290173 4.43087e-05 0)
(0.0282263 4.36781e-05 0)
(0.0274916 4.31179e-05 0)
(0.0268061 4.2391e-05 0)
(0.0261645 4.14202e-05 0)
(0.0255624 4.02144e-05 0)
(0.0249965 3.88222e-05 0)
(0.0244637 3.73041e-05 0)
(0.0239614 3.5718e-05 0)
(0.0234871 3.41123e-05 0)
(0.0230387 3.25244e-05 0)
(0.022614 3.09807e-05 0)
(0.0222114 2.94984e-05 0)
(0.021829 2.80877e-05 0)
(0.0214654 2.67535e-05 0)
(0.021119 2.54968e-05 0)
(0.0207887 2.43163e-05 0)
(0.0204732 2.32089e-05 0)
(0.0201716 2.21705e-05 0)
(0.0198827 2.11968e-05 0)
(0.0196059 2.0283e-05 0)
(0.0193402 1.94246e-05 0)
(0.019085 1.86172e-05 0)
(0.0188396 1.78566e-05 0)
(0.0186034 1.71389e-05 0)
(0.018376 1.64606e-05 0)
(0.0181568 1.58184e-05 0)
(0.0179453 1.52091e-05 0)
(0.0177413 1.46302e-05 0)
(0.0175443 1.4079e-05 0)
(0.0173539 1.35533e-05 0)
(0.01717 1.30509e-05 0)
(0.0169922 1.25699e-05 0)
(0.0168202 1.21087e-05 0)
(0.0166539 1.16655e-05 0)
(0.016493 1.1239e-05 0)
(0.0163373 1.08277e-05 0)
(0.0161867 1.04305e-05 0)
(0.016041 1.00462e-05 0)
(0.0159001 9.67381e-06 0)
(0.0157638 9.31231e-06 0)
(0.0156321 8.96088e-06 0)
(0.0155049 8.6187e-06 0)
(0.0153819 8.28505e-06 0)
(0.0152633 7.95927e-06 0)
(0.0151489 7.64074e-06 0)
(0.0150386 7.32892e-06 0)
(0.0149324 7.02332e-06 0)
(0.0148303 6.72349e-06 0)
(0.0147322 6.42904e-06 0)
(0.0146382 6.13961e-06 0)
(0.014548 5.85488e-06 0)
(0.0144619 5.57456e-06 0)
(0.0143796 5.29841e-06 0)
(0.0143013 5.02625e-06 0)
(0.0142269 4.75795e-06 0)
(0.0141564 4.49352e-06 0)
(0.0140898 4.23316e-06 0)
(0.014027 3.97722e-06 0)
(0.0139682 3.72651e-06 0)
(0.0139131 3.48201e-06 0)
(0.0138619 3.245e-06 0)
(0.0138145 3.01667e-06 0)
(0.0137708 2.79765e-06 0)
(0.0137307 2.58734e-06 0)
(0.0136944 2.38296e-06 0)
(0.0136616 2.17882e-06 0)
(0.0136326 1.96604e-06 0)
(0.0136074 1.7336e-06 0)
(0.0135862 1.47229e-06 0)
(0.0135691 1.18315e-06 0)
(0.0135562 8.92732e-07 0)
(0.0135475 6.45046e-07 0)
(0.0135424 4.69644e-07 0)
(0.0135399 3.6509e-07 0)
(0.0135386 3.28576e-07 0)
(0.0135367 5.12384e-07 0)
(0.0135233 2.6883e-06 0)
(0.189594 0.00957222 0)
(0.187388 0.0101079 0)
(0.183618 0.00990704 0)
(0.17862 0.00942128 0)
(0.172875 0.00878911 0)
(0.166719 0.00805867 0)
(0.16037 0.00727015 0)
(0.15399 0.00646089 0)
(0.147712 0.00566257 0)
(0.141635 0.00490139 0)
(0.135827 0.00419801 0)
(0.130328 0.0035667 0)
(0.12516 0.00301502 0)
(0.120327 0.00254438 0)
(0.115825 0.00215111 0)
(0.111641 0.00182795 0)
(0.107757 0.00156564 0)
(0.104152 0.00135423 0)
(0.100807 0.00118409 0)
(0.0976996 0.00104663 0)
(0.0948096 0.000934569 0)
(0.0921179 0.000842033 0)
(0.0896071 0.000764456 0)
(0.0872608 0.000698386 0)
(0.0850646 0.00064127 0)
(0.0830052 0.00059125 0)
(0.0810708 0.000546973 0)
(0.0792508 0.000507455 0)
(0.0775356 0.000471963 0)
(0.0759166 0.000439941 0)
(0.074386 0.00041095 0)
(0.0729368 0.000384633 0)
(0.0715627 0.000360692 0)
(0.0702578 0.000338869 0)
(0.069017 0.000318938 0)
(0.0678356 0.000300699 0)
(0.0667093 0.000283976 0)
(0.0656341 0.000268609 0)
(0.0646066 0.000254457 0)
(0.0636234 0.000241394 0)
(0.0626817 0.000229309 0)
(0.0617787 0.000218101 0)
(0.0609121 0.000207684 0)
(0.0600795 0.000197979 0)
(0.059279 0.000188916 0)
(0.0585087 0.000180435 0)
(0.0577669 0.000172481 0)
(0.057052 0.000165005 0)
(0.0563626 0.000157964 0)
(0.0556974 0.000151319 0)
(0.0550552 0.000145036 0)
(0.0544348 0.000139083 0)
(0.0538353 0.000133432 0)
(0.0532558 0.000128058 0)
(0.0526954 0.000122937 0)
(0.0521534 0.000118048 0)
(0.051629 0.000113373 0)
(0.0511215 0.000108892 0)
(0.0506305 0.000104591 0)
(0.0501554 0.000100455 0)
(0.0496957 9.64694e-05 0)
(0.0492509 9.26224e-05 0)
(0.0488208 8.89024e-05 0)
(0.0484049 8.52988e-05 0)
(0.0480029 8.18022e-05 0)
(0.0476146 7.84035e-05 0)
(0.0472397 7.50947e-05 0)
(0.046878 7.18683e-05 0)
(0.0465294 6.87177e-05 0)
(0.0461936 6.56367e-05 0)
(0.0458706 6.26198e-05 0)
(0.0455603 5.9662e-05 0)
(0.0452626 5.67591e-05 0)
(0.0449773 5.3907e-05 0)
(0.0447046 5.11025e-05 0)
(0.0444442 4.83427e-05 0)
(0.0441963 4.56256e-05 0)
(0.0439607 4.29495e-05 0)
(0.0437375 4.03139e-05 0)
(0.0435267 3.77189e-05 0)
(0.0433283 3.51659e-05 0)
(0.0431421 3.26572e-05 0)
(0.0429683 3.0196e-05 0)
(0.0428068 2.77853e-05 0)
(0.0426575 2.54273e-05 0)
(0.0425204 2.31212e-05 0)
(0.0423954 2.08612e-05 0)
(0.0422825 1.86353e-05 0)
(0.0421819 1.64241e-05 0)
(0.0420935 1.42028e-05 0)
(0.0420175 1.19472e-05 0)
(0.041954 9.64554e-06 0)
(0.0419031 7.31912e-06 0)
(0.0418644 5.05301e-06 0)
(0.0418373 3.01728e-06 0)
(0.0418207 1.43426e-06 0)
(0.0418124 5.32725e-07 0)
(0.0418089 5.03211e-07 0)
(0.0418059 1.72468e-06 0)
(0.0417858 8.68398e-06 0)
(0.192594 0.00910103 0)
(0.193397 0.0100696 0)
(0.19365 0.0104404 0)
(0.193189 0.0104846 0)
(0.192099 0.010296 0)
(0.190481 0.00991078 0)
(0.188408 0.00937308 0)
(0.185955 0.00873319 0)
(0.183203 0.00803799 0)
(0.180231 0.00732766 0)
(0.177111 0.00663464 0)
(0.173904 0.00598277 0)
(0.170657 0.00538713 0)
(0.167411 0.00485486 0)
(0.164193 0.00438671 0)
(0.161026 0.00397897 0)
(0.157923 0.00362532 0)
(0.154894 0.00331835 0)
(0.151943 0.00305069 0)
(0.149075 0.00281562 0)
(0.146289 0.00260744 0)
(0.143588 0.00242149 0)
(0.140969 0.00225407 0)
(0.138432 0.00210234 0)
(0.135976 0.00196407 0)
(0.133599 0.00183754 0)
(0.1313 0.0017214 0)
(0.129077 0.00161457 0)
(0.126928 0.00151615 0)
(0.124852 0.00142536 0)
(0.122846 0.00134154 0)
(0.120908 0.0012641 0)
(0.119036 0.0011925 0)
(0.117228 0.00112625 0)
(0.115481 0.0010649 0)
(0.113794 0.00100803 0)
(0.112165 0.000955269 0)
(0.11059 0.000906259 0)
(0.109068 0.000860683 0)
(0.107596 0.000818248 0)
(0.106174 0.000778683 0)
(0.104798 0.000741745 0)
(0.103467 0.000707211 0)
(0.102178 0.000674875 0)
(0.100931 0.000644553 0)
(0.0997235 0.000616077 0)
(0.0985535 0.000589291 0)
(0.0974199 0.000564056 0)
(0.0963211 0.000540244 0)
(0.0952557 0.000517738 0)
(0.0942226 0.000496431 0)
(0.0932204 0.000476226 0)
(0.0922481 0.000457033 0)
(0.0913046 0.00043877 0)
(0.090389 0.000421361 0)
(0.0895003 0.000404739 0)
(0.0886377 0.000388838 0)
(0.0878004 0.0003736 0)
(0.0869877 0.000358972 0)
(0.086199 0.000344903 0)
(0.0854337 0.000331347 0)
(0.0846913 0.000318263 0)
(0.0839712 0.00030561 0)
(0.0832731 0.000293353 0)
(0.0825966 0.000281458 0)
(0.0819414 0.000269896 0)
(0.0813071 0.000258637 0)
(0.0806936 0.000247656 0)
(0.0801007 0.00023693 0)
(0.0795281 0.000226436 0)
(0.0789757 0.000216157 0)
(0.0784436 0.000206073 0)
(0.0779315 0.00019617 0)
(0.0774395 0.000186434 0)
(0.0769675 0.000176853 0)
(0.0765156 0.000167416 0)
(0.0760838 0.000158117 0)
(0.0756721 0.000148949 0)
(0.0752806 0.00013991 0)
(0.0749093 0.000130997 0)
(0.0745582 0.000122212 0)
(0.0742275 0.00011356 0)
(0.0739172 0.000105046 0)
(0.0736272 9.66732e-05 0)
(0.0733576 8.84446e-05 0)
(0.0731085 8.03563e-05 0)
(0.0728798 7.23966e-05 0)
(0.0726716 6.45447e-05 0)
(0.0724839 5.67735e-05 0)
(0.0723167 4.90579e-05 0)
(0.0721699 4.13905e-05 0)
(0.0720433 3.38037e-05 0)
(0.0719365 2.63936e-05 0)
(0.0718486 1.93384e-05 0)
(0.0717781 1.29126e-05 0)
(0.0717234 7.50346e-06 0)
(0.0716823 3.64501e-06 0)
(0.0716525 2.03555e-06 0)
(0.0716307 3.97997e-06 0)
(0.0715931 1.60422e-05 0)
(0.193705 0.00839475 0)
(0.194756 0.00942624 0)
(0.195769 0.0100034 0)
(0.19654 0.0102772 0)
(0.197033 0.0103224 0)
(0.197247 0.0101701 0)
(0.197171 0.00985408 0)
(0.196802 0.0094155 0)
(0.196154 0.00889545 0)
(0.195254 0.00833101 0)
(0.194136 0.00775383 0)
(0.192835 0.0071891 0)
(0.191388 0.00665478 0)
(0.189826 0.0061619 0)
(0.188178 0.00571544 0)
(0.186469 0.00531584 0)
(0.184715 0.00496041 0)
(0.182933 0.00464471 0)
(0.181132 0.00436357 0)
(0.179321 0.00411181 0)
(0.177506 0.0038847 0)
(0.175691 0.00367814 0)
(0.17388 0.00348876 0)
(0.172076 0.00331386 0)
(0.170282 0.00315131 0)
(0.168499 0.0029995 0)
(0.16673 0.00285715 0)
(0.164978 0.0027233 0)
(0.163242 0.00259718 0)
(0.161526 0.00247817 0)
(0.15983 0.00236577 0)
(0.158156 0.00225954 0)
(0.156504 0.00215908 0)
(0.154876 0.00206404 0)
(0.153273 0.00197411 0)
(0.151694 0.00188897 0)
(0.150141 0.00180836 0)
(0.148613 0.00173198 0)
(0.147112 0.00165961 0)
(0.145637 0.00159099 0)
(0.144189 0.0015259 0)
(0.142767 0.00146412 0)
(0.141371 0.00140546 0)
(0.140002 0.00134972 0)
(0.138659 0.00129671 0)
(0.137343 0.00124628 0)
(0.136052 0.00119825 0)
(0.134787 0.00115247 0)
(0.133548 0.0011088 0)
(0.132333 0.00106711 0)
(0.131144 0.00102726 0)
(0.12998 0.000989135 0)
(0.12884 0.000952617 0)
(0.127724 0.0009176 0)
(0.126632 0.00088398 0)
(0.125563 0.000851661 0)
(0.124519 0.000820551 0)
(0.123497 0.000790565 0)
(0.122499 0.000761621 0)
(0.121523 0.000733643 0)
(0.12057 0.000706559 0)
(0.11964 0.0006803 0)
(0.118732 0.000654803 0)
(0.117847 0.000630008 0)
(0.116984 0.000605859 0)
(0.116143 0.000582302 0)
(0.115325 0.000559291 0)
(0.114529 0.000536778 0)
(0.113756 0.000514721 0)
(0.113005 0.000493083 0)
(0.112277 0.000471827 0)
(0.111572 0.000450921 0)
(0.110889 0.000430336 0)
(0.11023 0.000410047 0)
(0.109594 0.000390031 0)
(0.108981 0.00037027 0)
(0.108392 0.000350748 0)
(0.107828 0.000331454 0)
(0.107287 0.000312382 0)
(0.106771 0.000293529 0)
(0.10628 0.000274896 0)
(0.105813 0.000256489 0)
(0.105372 0.000238314 0)
(0.104956 0.000220379 0)
(0.104566 0.00020269 0)
(0.104201 0.000185246 0)
(0.103863 0.000168039 0)
(0.10355 0.000151057 0)
(0.103264 0.000134288 0)
(0.103003 0.000117737 0)
(0.102769 0.000101452 0)
(0.10256 8.55492e-05 0)
(0.102376 7.02481e-05 0)
(0.102215 5.58784e-05 0)
(0.102076 4.28564e-05 0)
(0.101957 3.16394e-05 0)
(0.101856 2.27457e-05 0)
(0.101769 1.69902e-05 0)
(0.101695 1.66041e-05 0)
(0.101608 2.95168e-05 0)
(0.19456 0.00783911 0)
(0.195416 0.00877133 0)
(0.19637 0.00936298 0)
(0.197273 0.00969549 0)
(0.198077 0.00983026 0)
(0.198762 0.00979648 0)
(0.199307 0.00961877 0)
(0.199687 0.00932681 0)
(0.199891 0.00895204 0)
(0.19992 0.00852428 0)
(0.199782 0.00807014 0)
(0.199493 0.00761193 0)
(0.19907 0.00716686 0)
(0.198534 0.00674667 0)
(0.197903 0.00635812 0)
(0.197195 0.00600385 0)
(0.196424 0.00568348 0)
(0.195601 0.00539465 0)
(0.194736 0.00513396 0)
(0.193836 0.00489763 0)
(0.192907 0.004682 0)
(0.191951 0.00448377 0)
(0.190974 0.00430016 0)
(0.189976 0.00412888 0)
(0.18896 0.00396812 0)
(0.187928 0.00381649 0)
(0.186882 0.00367291 0)
(0.185824 0.00353655 0)
(0.184754 0.00340676 0)
(0.183676 0.00328303 0)
(0.182589 0.00316496 0)
(0.181495 0.00305217 0)
(0.180397 0.00294438 0)
(0.179294 0.00284129 0)
(0.178188 0.00274265 0)
(0.177081 0.00264824 0)
(0.175973 0.00255781 0)
(0.174865 0.00247118 0)
(0.173759 0.00238812 0)
(0.172655 0.00230846 0)
(0.171554 0.00223201 0)
(0.170456 0.0021586 0)
(0.169363 0.00208806 0)
(0.168275 0.00202025 0)
(0.167192 0.00195501 0)
(0.166116 0.0018922 0)
(0.165047 0.0018317 0)
(0.163986 0.00177337 0)
(0.162932 0.00171709 0)
(0.161887 0.00166275 0)
(0.160851 0.00161023 0)
(0.159824 0.00155944 0)
(0.158807 0.00151026 0)
(0.157801 0.00146261 0)
(0.156805 0.00141639 0)
(0.15582 0.00137151 0)
(0.154847 0.00132789 0)
(0.153885 0.00128544 0)
(0.152936 0.00124409 0)
(0.152 0.00120375 0)
(0.151077 0.00116436 0)
(0.150167 0.00112585 0)
(0.149272 0.00108816 0)
(0.148391 0.00105121 0)
(0.147525 0.00101495 0)
(0.146674 0.000979317 0)
(0.145838 0.000944265 0)
(0.145019 0.00090974 0)
(0.144217 0.000875693 0)
(0.143432 0.000842082 0)
(0.142665 0.000808864 0)
(0.141915 0.000776003 0)
(0.141185 0.000743466 0)
(0.140474 0.000711223 0)
(0.139782 0.000679249 0)
(0.139111 0.000647523 0)
(0.138461 0.00061603 0)
(0.137832 0.000584759 0)
(0.137226 0.000553706 0)
(0.136642 0.000522871 0)
(0.136081 0.00049226 0)
(0.135543 0.000461886 0)
(0.13503 0.000431762 0)
(0.134541 0.000401905 0)
(0.134078 0.000372331 0)
(0.13364 0.000343051 0)
(0.133228 0.000314078 0)
(0.132842 0.000285425 0)
(0.132483 0.000257121 0)
(0.13215 0.000229228 0)
(0.131843 0.000201873 0)
(0.131563 0.000175273 0)
(0.131308 0.000149767 0)
(0.131077 0.000125818 0)
(0.130869 0.00010399 0)
(0.130683 8.48943e-05 0)
(0.130516 6.91626e-05 0)
(0.130367 5.76191e-05 0)
(0.130235 5.24034e-05 0)
(0.130088 5.98107e-05 0)
(0.195317 0.00735959 0)
(0.195976 0.00815709 0)
(0.196751 0.00871322 0)
(0.197544 0.00906013 0)
(0.198304 0.00923773 0)
(0.199011 0.00927019 0)
(0.199643 0.00917685 0)
(0.200181 0.00898032 0)
(0.200612 0.0087055 0)
(0.20093 0.00837676 0)
(0.201136 0.00801633 0)
(0.201237 0.00764334 0)
(0.201241 0.00727309 0)
(0.201161 0.00691673 0)
(0.201009 0.00658142 0)
(0.200796 0.00627089 0)
(0.200533 0.00598617 0)
(0.200229 0.00572643 0)
(0.199889 0.00548969 0)
(0.199521 0.00527342 0)
(0.199126 0.00507492 0)
(0.19871 0.00489165 0)
(0.198272 0.00472134 0)
(0.197816 0.00456207 0)
(0.197342 0.00441224 0)
(0.196851 0.0042706 0)
(0.196343 0.00413614 0)
(0.19582 0.00400807 0)
(0.195282 0.00388577 0)
(0.19473 0.00376875 0)
(0.194164 0.00365661 0)
(0.193586 0.003549 0)
(0.192995 0.00344565 0)
(0.192392 0.00334631 0)
(0.191779 0.00325074 0)
(0.191154 0.00315874 0)
(0.19052 0.00307013 0)
(0.189877 0.00298471 0)
(0.189225 0.00290232 0)
(0.188565 0.00282281 0)
(0.187898 0.00274601 0)
(0.187223 0.00267178 0)
(0.186542 0.00259999 0)
(0.185855 0.00253049 0)
(0.185162 0.00246317 0)
(0.184465 0.00239791 0)
(0.183763 0.00233457 0)
(0.183057 0.00227307 0)
(0.182347 0.00221328 0)
(0.181635 0.00215511 0)
(0.18092 0.00209845 0)
(0.180204 0.00204322 0)
(0.179485 0.00198932 0)
(0.178766 0.00193667 0)
(0.178047 0.00188517 0)
(0.177327 0.00183475 0)
(0.176609 0.00178533 0)
(0.175891 0.00173683 0)
(0.175175 0.00168917 0)
(0.174461 0.00164229 0)
(0.173751 0.00159612 0)
(0.173043 0.00155058 0)
(0.172339 0.00150563 0)
(0.17164 0.00146118 0)
(0.170947 0.0014172 0)
(0.170258 0.00137362 0)
(0.169577 0.00133038 0)
(0.168902 0.00128745 0)
(0.168235 0.00124476 0)
(0.167577 0.00120229 0)
(0.166927 0.00115999 0)
(0.166288 0.00111783 0)
(0.165658 0.00107576 0)
(0.16504 0.00103378 0)
(0.164434 0.000991852 0)
(0.163841 0.000949965 0)
(0.163261 0.000908108 0)
(0.162696 0.000866278 0)
(0.162145 0.000824478 0)
(0.16161 0.000782719 0)
(0.161091 0.000741017 0)
(0.16059 0.000699397 0)
(0.160107 0.000657887 0)
(0.159642 0.000616519 0)
(0.159196 0.000575328 0)
(0.15877 0.000534351 0)
(0.158364 0.000493631 0)
(0.15798 0.000453223 0)
(0.157616 0.000413213 0)
(0.157274 0.000373737 0)
(0.156954 0.000335007 0)
(0.156655 0.000297347 0)
(0.156377 0.000261199 0)
(0.156119 0.000227126 0)
(0.155881 0.00019577 0)
(0.155661 0.000167806 0)
(0.155459 0.000143918 0)
(0.155273 0.000124964 0)
(0.155104 0.000112566 0)
(0.154921 0.000109098 0)
(0.195996 0.00695175 0)
(0.196505 0.00762222 0)
(0.197118 0.00812619 0)
(0.197771 0.00846716 0)
(0.198421 0.00866533 0)
(0.199044 0.0087382 0)
(0.199621 0.0087013 0)
(0.200137 0.00857225 0)
(0.200579 0.00837078 0)
(0.200943 0.00811674 0)
(0.201228 0.00782856 0)
(0.201436 0.00752244 0)
(0.201574 0.00721173 0)
(0.201649 0.00690666 0)
(0.201671 0.00661435 0)
(0.201649 0.00633914 0)
(0.201589 0.00608306 0)
(0.2015 0.00584646 0)
(0.201387 0.00562853 0)
(0.201254 0.00542779 0)
(0.201105 0.00524241 0)
(0.200942 0.00507055 0)
(0.200767 0.00491043 0)
(0.200581 0.00476048 0)
(0.200384 0.00461937 0)
(0.200178 0.00448598 0)
(0.199963 0.00435939 0)
(0.199738 0.00423886 0)
(0.199505 0.00412381 0)
(0.199262 0.00401375 0)
(0.19901 0.00390828 0)
(0.19875 0.00380707 0)
(0.198481 0.00370983 0)
(0.198203 0.00361632 0)
(0.197917 0.0035263 0)
(0.197623 0.00343958 0)
(0.197321 0.00335596 0)
(0.19701 0.00327526 0)
(0.196691 0.00319733 0)
(0.196365 0.00312199 0)
(0.196031 0.0030491 0)
(0.195689 0.00297851 0)
(0.19534 0.00291009 0)
(0.194984 0.00284369 0)
(0.194621 0.00277921 0)
(0.194251 0.00271651 0)
(0.193874 0.00265548 0)
(0.193491 0.00259601 0)
(0.193101 0.00253798 0)
(0.192705 0.00248131 0)
(0.192304 0.00242588 0)
(0.191897 0.0023716 0)
(0.191484 0.00231837 0)
(0.191067 0.00226612 0)
(0.190644 0.00221475 0)
(0.190217 0.00216417 0)
(0.189786 0.00211431 0)
(0.189352 0.00206508 0)
(0.188913 0.00201641 0)
(0.188472 0.00196823 0)
(0.188028 0.00192046 0)
(0.187581 0.00187303 0)
(0.187133 0.00182588 0)
(0.186683 0.00177894 0)
(0.186233 0.00173214 0)
(0.185781 0.00168544 0)
(0.18533 0.00163878 0)
(0.184879 0.0015921 0)
(0.18443 0.00154535 0)
(0.183982 0.00149849 0)
(0.183536 0.00145147 0)
(0.183093 0.00140427 0)
(0.182653 0.00135685 0)
(0.182217 0.00130918 0)
(0.181787 0.00126124 0)
(0.181361 0.00121303 0)
(0.180942 0.00116452 0)
(0.180529 0.00111574 0)
(0.180124 0.00106668 0)
(0.179726 0.00101736 0)
(0.179338 0.000967813 0)
(0.178959 0.000918074 0)
(0.17859 0.000868184 0)
(0.178233 0.000818195 0)
(0.177886 0.000768162 0)
(0.177552 0.000718152 0)
(0.17723 0.000668243 0)
(0.176922 0.00061854 0)
(0.176627 0.000569187 0)
(0.176346 0.00052039 0)
(0.176078 0.000472444 0)
(0.175825 0.000425756 0)
(0.175585 0.000380848 0)
(0.175359 0.000338346 0)
(0.175146 0.00029894 0)
(0.174946 0.000263324 0)
(0.174758 0.00023217 0)
(0.174582 0.000206153 0)
(0.174419 0.000185884 0)
(0.174242 0.000169928 0)
(0.196605 0.00660206 0)
(0.197001 0.0071614 0)
(0.197482 0.00760582 0)
(0.198008 0.00792687 0)
(0.198546 0.00813158 0)
(0.199072 0.00823071 0)
(0.199568 0.00823576 0)
(0.200021 0.00815995 0)
(0.200422 0.00801831 0)
(0.200764 0.00782643 0)
(0.201045 0.00759923 0)
(0.201267 0.00735016 0)
(0.201435 0.0070907 0)
(0.201552 0.00683005 0)
(0.201627 0.00657503 0)
(0.201666 0.00633028 0)
(0.201675 0.00609853 0)
(0.201661 0.00588105 0)
(0.201628 0.00567798 0)
(0.201581 0.00548875 0)
(0.201523 0.00531238 0)
(0.201456 0.00514768 0)
(0.201382 0.00499342 0)
(0.201302 0.00484845 0)
(0.201218 0.00471171 0)
(0.201129 0.00458232 0)
(0.201036 0.00445949 0)
(0.20094 0.00434259 0)
(0.20084 0.00423109 0)
(0.200737 0.00412452 0)
(0.20063 0.00402253 0)
(0.20052 0.00392478 0)
(0.200406 0.00383099 0)
(0.200289 0.00374092 0)
(0.200169 0.00365433 0)
(0.200044 0.00357102 0)
(0.199916 0.0034908 0)
(0.199784 0.00341348 0)
(0.199648 0.0033389 0)
(0.199508 0.00326689 0)
(0.199364 0.00319728 0)
(0.199216 0.00312994 0)
(0.199064 0.00306472 0)
(0.198908 0.00300148 0)
(0.198747 0.00294008 0)
(0.198583 0.00288041 0)
(0.198413 0.00282232 0)
(0.19824 0.00276572 0)
(0.198062 0.00271047 0)
(0.19788 0.00265648 0)
(0.197693 0.00260363 0)
(0.197502 0.00255181 0)
(0.197307 0.00250094 0)
(0.197108 0.0024509 0)
(0.196904 0.0024016 0)
(0.196696 0.00235295 0)
(0.196485 0.00230486 0)
(0.196269 0.00225724 0)
(0.19605 0.00221001 0)
(0.195826 0.00216308 0)
(0.1956 0.00211637 0)
(0.19537 0.0020698 0)
(0.195137 0.0020233 0)
(0.1949 0.0019768 0)
(0.194662 0.00193022 0)
(0.19442 0.0018835 0)
(0.194177 0.00183657 0)
(0.193931 0.00178937 0)
(0.193684 0.00174185 0)
(0.193436 0.00169395 0)
(0.193186 0.00164563 0)
(0.192936 0.00159684 0)
(0.192686 0.00154755 0)
(0.192436 0.00149773 0)
(0.192187 0.00144735 0)
(0.191938 0.00139639 0)
(0.191691 0.00134486 0)
(0.191446 0.00129275 0)
(0.191203 0.00124007 0)
(0.190963 0.00118685 0)
(0.190726 0.00113312 0)
(0.190494 0.00107892 0)
(0.190265 0.0010243 0)
(0.190041 0.000969333 0)
(0.189822 0.000914089 0)
(0.189609 0.000858661 0)
(0.189402 0.000803162 0)
(0.189202 0.000747737 0)
(0.189008 0.000692581 0)
(0.18882 0.000637957 0)
(0.18864 0.000584219 0)
(0.188466 0.000531823 0)
(0.1883 0.000481333 0)
(0.18814 0.000433398 0)
(0.187986 0.000388709 0)
(0.18784 0.000347943 0)
(0.1877 0.000311695 0)
(0.187568 0.000280382 0)
(0.187444 0.00025376 0)
(0.187304 0.000228678 0)
(0.197123 0.00630988 0)
(0.197437 0.00678024 0)
(0.197817 0.0071693 0)
(0.198239 0.00746568 0)
(0.198679 0.00766917 0)
(0.199117 0.00778502 0)
(0.199537 0.00782091 0)
(0.199927 0.00778634 0)
(0.200278 0.00769245 0)
(0.200584 0.00755125 0)
(0.200843 0.00737462 0)
(0.201055 0.00717361 0)
(0.201221 0.00695797 0)
(0.201347 0.00673582 0)
(0.201436 0.00651354 0)
(0.201494 0.0062958 0)
(0.201526 0.00608574 0)
(0.201538 0.00588525 0)
(0.201533 0.00569521 0)
(0.201515 0.00551578 0)
(0.201488 0.00534666 0)
(0.201453 0.00518727 0)
(0.201413 0.00503687 0)
(0.201368 0.00489471 0)
(0.201321 0.00476005 0)
(0.201272 0.00463222 0)
(0.201221 0.00451062 0)
(0.201169 0.00439473 0)
(0.201115 0.00428408 0)
(0.201061 0.00417831 0)
(0.201006 0.00407707 0)
(0.200951 0.00398007 0)
(0.200894 0.00388704 0)
(0.200838 0.00379776 0)
(0.20078 0.00371201 0)
(0.200722 0.00362958 0)
(0.200663 0.0035503 0)
(0.200603 0.00347397 0)
(0.200542 0.00340044 0)
(0.20048 0.00332954 0)
(0.200417 0.00326111 0)
(0.200353 0.003195 0)
(0.200287 0.00313106 0)
(0.20022 0.00306916 0)
(0.200152 0.00300915 0)
(0.200082 0.00295091 0)
(0.20001 0.00289431 0)
(0.199937 0.00283921 0)
(0.199862 0.0027855 0)
(0.199785 0.00273307 0)
(0.199706 0.00268179 0)
(0.199625 0.00263156 0)
(0.199542 0.00258226 0)
(0.199457 0.0025338 0)
(0.19937 0.00248606 0)
(0.19928 0.00243895 0)
(0.199188 0.00239237 0)
(0.199094 0.00234622 0)
(0.198998 0.0023004 0)
(0.1989 0.00225484 0)
(0.198799 0.00220943 0)
(0.198696 0.00216409 0)
(0.198591 0.00211874 0)
(0.198484 0.0020733 0)
(0.198375 0.00202768 0)
(0.198263 0.00198181 0)
(0.19815 0.00193561 0)
(0.198036 0.00188903 0)
(0.197919 0.00184199 0)
(0.197801 0.00179444 0)
(0.197681 0.00174631 0)
(0.197561 0.00169757 0)
(0.197439 0.00164816 0)
(0.197316 0.00159805 0)
(0.197193 0.00154721 0)
(0.197069 0.00149562 0)
(0.196945 0.00144327 0)
(0.19682 0.00139015 0)
(0.196696 0.00133629 0)
(0.196573 0.0012817 0)
(0.19645 0.0012264 0)
(0.196328 0.00117046 0)
(0.196207 0.00111393 0)
(0.196087 0.00105687 0)
(0.195969 0.000999392 0)
(0.195854 0.000941593 0)
(0.19574 0.000883615 0)
(0.195628 0.000825633 0)
(0.195519 0.000767875 0)
(0.195412 0.00071064 0)
(0.195307 0.000654311 0)
(0.195204 0.000599363 0)
(0.195104 0.000546366 0)
(0.195007 0.000495954 0)
(0.194911 0.000448791 0)
(0.194819 0.000405501 0)
(0.194729 0.000366593 0)
(0.194642 0.000332291 0)
(0.19456 0.000302026 0)
(0.194463 0.000273024 0)
(0.197582 0.00606367 0)
(0.197833 0.00646225 0)
(0.198134 0.00680135 0)
(0.198471 0.00707051 0)
(0.198828 0.00726637 0)
(0.199187 0.00739056 0)
(0.199537 0.00744759 0)
(0.199867 0.00744399 0)
(0.200168 0.00738782 0)
(0.200435 0.00728807 0)
(0.200666 0.00715399 0)
(0.200859 0.00699445 0)
(0.201015 0.00681754 0)
(0.201137 0.00663026 0)
(0.201229 0.00643836 0)
(0.201293 0.00624631 0)
(0.201335 0.0060574 0)
(0.201358 0.00587388 0)
(0.201365 0.00569714 0)
(0.201361 0.0055279 0)
(0.201347 0.00536642 0)
(0.201326 0.0052126 0)
(0.2013 0.00506619 0)
(0.20127 0.00492678 0)
(0.201237 0.00479395 0)
(0.201203 0.00466726 0)
(0.201167 0.00454629 0)
(0.201131 0.00443067 0)
(0.201094 0.00432005 0)
(0.201057 0.00421412 0)
(0.201021 0.00411261 0)
(0.200985 0.00401526 0)
(0.200949 0.00392186 0)
(0.200913 0.00383218 0)
(0.200879 0.00374603 0)
(0.200844 0.00366324 0)
(0.20081 0.00358361 0)
(0.200777 0.00350699 0)
(0.200744 0.00343322 0)
(0.200712 0.00336212 0)
(0.200679 0.00329356 0)
(0.200648 0.00322738 0)
(0.200616 0.00316344 0)
(0.200585 0.00310159 0)
(0.200553 0.0030417 0)
(0.200522 0.00298364 0)
(0.200491 0.00292727 0)
(0.200459 0.00287247 0)
(0.200428 0.00281912 0)
(0.200396 0.00276709 0)
(0.200364 0.00271627 0)
(0.200331 0.00266654 0)
(0.200298 0.00261779 0)
(0.200265 0.0025699 0)
(0.200231 0.00252278 0)
(0.200196 0.00247631 0)
(0.200161 0.0024304 0)
(0.200125 0.00238493 0)
(0.200088 0.00233982 0)
(0.200051 0.00229496 0)
(0.200013 0.00225026 0)
(0.199973 0.00220564 0)
(0.199933 0.00216099 0)
(0.199892 0.00211623 0)
(0.199851 0.00207128 0)
(0.199808 0.00202605 0)
(0.199764 0.00198047 0)
(0.199719 0.00193447 0)
(0.199674 0.00188796 0)
(0.199627 0.0018409 0)
(0.19958 0.00179321 0)
(0.199532 0.00174484 0)
(0.199483 0.00169575 0)
(0.199433 0.00164588 0)
(0.199383 0.00159522 0)
(0.199331 0.00154373 0)
(0.19928 0.00149139 0)
(0.199227 0.00143822 0)
(0.199175 0.0013842 0)
(0.199122 0.00132937 0)
(0.199068 0.00127375 0)
(0.199014 0.0012174 0)
(0.19896 0.00116038 0)
(0.198906 0.00110276 0)
(0.198852 0.00104465 0)
(0.198798 0.000986165 0)
(0.198744 0.00092747 0)
(0.19869 0.000868755 0)
(0.198637 0.000810269 0)
(0.198582 0.000752327 0)
(0.198528 0.000695318 0)
(0.198474 0.000639715 0)
(0.198419 0.000586067 0)
(0.198365 0.000534975 0)
(0.19831 0.000487053 0)
(0.198255 0.00044287 0)
(0.198201 0.000402865 0)
(0.198148 0.000367202 0)
(0.198096 0.000335429 0)
(0.198031 0.000306029 0)
(0.198003 0.00584436 0)
(0.198202 0.00618425 0)
(0.198437 0.00647983 0)
(0.198702 0.00672259 0)
(0.198985 0.00690815 0)
(0.199274 0.00703593 0)
(0.199559 0.00710807 0)
(0.19983 0.00712868 0)
(0.200082 0.00710329 0)
(0.200309 0.00703838 0)
(0.200509 0.00694091 0)
(0.200679 0.00681782 0)
(0.200821 0.00667565 0)
(0.200935 0.00652027 0)
(0.201023 0.00635673 0)
(0.201088 0.00618919 0)
(0.201134 0.0060209 0)
(0.201163 0.0058543 0)
(0.201178 0.00569112 0)
(0.201181 0.0055325 0)
(0.201176 0.00537915 0)
(0.201164 0.00523141 0)
(0.201146 0.0050894 0)
(0.201124 0.00495307 0)
(0.2011 0.00482228 0)
(0.201073 0.00469684 0)
(0.201046 0.00457651 0)
(0.201017 0.00446107 0)
(0.200988 0.00435029 0)
(0.20096 0.00424395 0)
(0.200931 0.00414185 0)
(0.200903 0.00404378 0)
(0.200876 0.00394956 0)
(0.200849 0.00385901 0)
(0.200823 0.00377196 0)
(0.200797 0.00368825 0)
(0.200773 0.00360771 0)
(0.200749 0.00353019 0)
(0.200726 0.00345553 0)
(0.200704 0.00338358 0)
(0.200683 0.00331421 0)
(0.200663 0.00324726 0)
(0.200643 0.00318259 0)
(0.200624 0.00312006 0)
(0.200606 0.00305955 0)
(0.200589 0.00300091 0)
(0.200572 0.00294402 0)
(0.200555 0.00288875 0)
(0.20054 0.00283497 0)
(0.200524 0.00278257 0)
(0.200509 0.00273143 0)
(0.200495 0.00268142 0)
(0.200481 0.00263245 0)
(0.200467 0.00258438 0)
(0.200453 0.00253712 0)
(0.20044 0.00249056 0)
(0.200427 0.00244458 0)
(0.200414 0.0023991 0)
(0.200401 0.002354 0)
(0.200388 0.00230919 0)
(0.200375 0.00226457 0)
(0.200362 0.00222005 0)
(0.200349 0.00217553 0)
(0.200336 0.00213093 0)
(0.200323 0.00208616 0)
(0.20031 0.00204112 0)
(0.200296 0.00199575 0)
(0.200283 0.00194997 0)
(0.200269 0.0019037 0)
(0.200255 0.00185688 0)
(0.20024 0.00180944 0)
(0.200226 0.00176132 0)
(0.20021 0.00171247 0)
(0.200195 0.00166286 0)
(0.200179 0.00161244 0)
(0.200163 0.00156119 0)
(0.200147 0.0015091 0)
(0.20013 0.00145615 0)
(0.200113 0.00140235 0)
(0.200095 0.00134773 0)
(0.200077 0.00129232 0)
(0.200058 0.00123616 0)
(0.200039 0.00117933 0)
(0.200019 0.0011219 0)
(0.199999 0.00106399 0)
(0.199978 0.00100573 0)
(0.199956 0.000947291 0)
(0.199934 0.000888871 0)
(0.199911 0.000830732 0)
(0.199886 0.000773192 0)
(0.199861 0.000716636 0)
(0.199834 0.000661518 0)
(0.199806 0.000608353 0)
(0.199777 0.000557696 0)
(0.199747 0.000510107 0)
(0.199716 0.0004661 0)
(0.199684 0.000426076 0)
(0.199652 0.000390229 0)
(0.199619 0.000358408 0)
(0.199577 0.000330266 0)
(0.198392 0.00565316 0)
(0.198546 0.0059457 0)
(0.198726 0.00620439 0)
(0.198929 0.00642268 0)
(0.199148 0.00659632 0)
(0.199373 0.00672367 0)
(0.199598 0.00680534 0)
(0.199815 0.00684361 0)
(0.200018 0.00684207 0)
(0.200205 0.00680522 0)
(0.200372 0.00673812 0)
(0.200516 0.00664602 0)
(0.200639 0.00653408 0)
(0.20074 0.00640711 0)
(0.200821 0.00626944 0)
(0.200883 0.00612477 0)
(0.200929 0.00597619 0)
(0.20096 0.00582619 0)
(0.200979 0.00567667 0)
(0.200988 0.00552907 0)
(0.200989 0.00538439 0)
(0.200983 0.00524334 0)
(0.200972 0.00510635 0)
(0.200957 0.00497369 0)
(0.200939 0.00484547 0)
(0.200919 0.00472173 0)
(0.200898 0.00460242 0)
(0.200876 0.00448746 0)
(0.200853 0.00437675 0)
(0.20083 0.00427018 0)
(0.200807 0.0041676 0)
(0.200784 0.00406888 0)
(0.200762 0.00397389 0)
(0.200741 0.00388248 0)
(0.20072 0.00379451 0)
(0.200699 0.00370983 0)
(0.20068 0.00362831 0)
(0.200661 0.0035498 0)
(0.200643 0.00347415 0)
(0.200626 0.00340124 0)
(0.20061 0.00333092 0)
(0.200594 0.00326304 0)
(0.20058 0.00319748 0)
(0.200566 0.0031341 0)
(0.200553 0.00307277 0)
(0.20054 0.00301335 0)
(0.200529 0.00295571 0)
(0.200518 0.00289974 0)
(0.200507 0.0028453 0)
(0.200498 0.00279228 0)
(0.200489 0.00274055 0)
(0.20048 0.00269 0)
(0.200473 0.00264051 0)
(0.200465 0.00259197 0)
(0.200458 0.00254427 0)
(0.200452 0.0024973 0)
(0.200446 0.00245096 0)
(0.20044 0.00240514 0)
(0.200435 0.00235973 0)
(0.200431 0.00231465 0)
(0.200426 0.00226978 0)
(0.200422 0.00222505 0)
(0.200418 0.00218034 0)
(0.200415 0.00213558 0)
(0.200411 0.00209067 0)
(0.200408 0.00204553 0)
(0.200405 0.00200008 0)
(0.200402 0.00195424 0)
(0.2004 0.00190794 0)
(0.200397 0.00186111 0)
(0.200394 0.00181368 0)
(0.200392 0.00176561 0)
(0.200389 0.00171683 0)
(0.200386 0.00166731 0)
(0.200384 0.00161701 0)
(0.200381 0.0015659 0)
(0.200378 0.00151397 0)
(0.200374 0.00146121 0)
(0.200371 0.00140763 0)
(0.200367 0.00135326 0)
(0.200363 0.00129812 0)
(0.200358 0.00124227 0)
(0.200353 0.00118579 0)
(0.200347 0.00112875 0)
(0.200341 0.00107128 0)
(0.200334 0.00101351 0)
(0.200326 0.000955626 0)
(0.200317 0.000897837 0)
(0.200308 0.000840406 0)
(0.200297 0.000783647 0)
(0.200285 0.000727934 0)
(0.200271 0.000673698 0)
(0.200256 0.000621418 0)
(0.20024 0.000571602 0)
(0.200222 0.000524761 0)
(0.200203 0.000481367 0)
(0.200183 0.00044181 0)
(0.200162 0.000406353 0)