/*--------------------------------*- C++ -*----------------------------------*\
| =========                 |                                                 |
| \\      /  F ield         | OpenFOAM: The Open Source CFD Toolbox           |
|  \\    /   O peration     | Version:  2.3.0                                 |
|   \\  /    A nd           | Web:      www.OpenFOAM.org                      |
|    \\/     M anipulation  |                                                 |
\*---------------------------------------------------------------------------*/
FoamFile
{
    version     2.0;
    format      ascii;
    class       volScalarField;
    location    "0.35";
    object      p;
}
// * * * * * * * * * * * * * * * * * * * * * * * * * * * * * * * * * * * * * //

dimensions      [0 2 -2 0 0 0 0];

internalField   nonuniform List<scalar> 
2945
(
0.00270704
0.00174895
0.000692988
-8.28457e-05
-0.000601166
-0.000705402
-0.000629415
-0.000549406
-0.000502041
-0.000468511
-0.000439119
-0.000425208
-0.000416624
-0.000403753
-0.000390076
-0.000378965
-0.000367817
-0.000354816
-0.000343301
-0.000332301
-0.000320296
-0.000311839
-0.000306585
-0.000300045
-0.000291431
-0.000282591
-0.000273948
-0.00026615
-0.000258974
-0.000252327
-0.000246724
-0.000240767
-0.000234278
-0.000229727
-0.00022538
-0.00022011
-0.000215662
-0.000211236
-0.000206867
-0.000202952
-0.000198414
-0.000193998
-0.000190281
-0.00018579
-0.000180431
-0.0001758
-0.000171482
-0.000166025
-0.000160588
-0.000155775
-0.000149417
-0.000141481
-0.00013419
-0.000126701
-0.000117311
-0.000107588
-9.84207e-05
-8.79175e-05
-7.70034e-05
-6.75389e-05
-5.93101e-05
-5.18411e-05
-4.5454e-05
-4.00933e-05
-3.57299e-05
-3.16628e-05
-2.76549e-05
-2.3684e-05
-2.01386e-05
-1.69201e-05
-1.41194e-05
-1.09555e-05
-7.59691e-06
-3.89616e-06
-1.3585e-06
0.00233874
0.00165082
0.000722305
-1.80067e-05
-0.000546462
-0.000658602
-0.00059778
-0.000528874
-0.00048873
-0.000459297
-0.000430812
-0.000418158
-0.000410905
-0.000398645
-0.000385386
-0.000374857
-0.00036427
-0.000351482
-0.000340267
-0.000329629
-0.000317633
-0.000309332
-0.000304452
-0.000298187
-0.000289657
-0.000280915
-0.00027236
-0.000264664
-0.000257605
-0.000251033
-0.000245553
-0.00023971
-0.000233197
-0.000228739
-0.00022454
-0.000219274
-0.000214889
-0.000210542
-0.000206196
-0.00020237
-0.000197872
-0.000193461
-0.000189838
-0.000185416
-0.000180047
-0.000175442
-0.000171212
-0.000165786
-0.000160338
-0.000155611
-0.000149324
-0.000141359
-0.000134088
-0.000126684
-0.000117305
-0.00010757
-9.84721e-05
-8.79829e-05
-7.70326e-05
-6.75573e-05
-5.93388e-05
-5.18597e-05
-4.54615e-05
-4.00969e-05
-3.57326e-05
-3.16784e-05
-2.76686e-05
-2.36939e-05
-2.01382e-05
-1.69242e-05
-1.41287e-05
-1.09765e-05
-7.61063e-06
-3.89353e-06
-1.357e-06
0.00208909
0.00153126
0.000782428
0.000101772
-0.000486538
-0.000586651
-0.0005462
-0.000496126
-0.000468824
-0.000446598
-0.000421078
-0.000410569
-0.000404725
-0.000393141
-0.000380461
-0.000370658
-0.000360772
-0.000348204
-0.000337324
-0.000327095
-0.000315003
-0.000306913
-0.000302467
-0.000296491
-0.000288025
-0.000279365
-0.000270865
-0.000263256
-0.000256305
-0.000249814
-0.000244478
-0.000238743
-0.000232148
-0.000227802
-0.000223778
-0.000218478
-0.000214157
-0.000209891
-0.000205553
-0.000201829
-0.00019736
-0.000192927
-0.00018942
-0.000185075
-0.000179663
-0.000175077
-0.000170953
-0.00016555
-0.000160074
-0.000155459
-0.000149249
-0.000141217
-0.000133966
-0.000126674
-0.000117286
-0.000107506
-9.84976e-05
-8.80469e-05
-7.70051e-05
-6.7531e-05
-5.93345e-05
-5.18478e-05
-4.54432e-05
-4.00682e-05
-3.57308e-05
-3.16857e-05
-2.76751e-05
-2.36898e-05
-2.0131e-05
-1.69164e-05
-1.41407e-05
-1.10013e-05
-7.62163e-06
-3.87504e-06
-1.35553e-06
0.00188673
0.00142949
0.000759499
0.000185678
-0.000412763
-0.000514728
-0.000488973
-0.00045216
-0.000440185
-0.00042653
-0.000406087
-0.0003993
-0.000395528
-0.000385288
-0.000373733
-0.000364901
-0.000356026
-0.000343961
-0.000333573
-0.000323841
-0.000311655
-0.000303934
-0.000299937
-0.00029432
-0.000286015
-0.000277483
-0.000269034
-0.000261522
-0.00025469
-0.000248329
-0.000243172
-0.000237551
-0.000230853
-0.000226643
-0.00022282
-0.000217481
-0.000213238
-0.000209065
-0.000204736
-0.000201134
-0.000196692
-0.000192219
-0.000188858
-0.000184605
-0.000179136
-0.000174569
-0.000170562
-0.000165196
-0.000159688
-0.000155203
-0.000149087
-0.000140971
-0.000133745
-0.000126591
-0.00011719
-0.00010737
-9.84453e-05
-8.80635e-05
-7.69316e-05
-6.74667e-05
-5.93067e-05
-5.18156e-05
-4.54091e-05
-4.00281e-05
-3.57191e-05
-3.16896e-05
-2.76731e-05
-2.36811e-05
-2.01109e-05
-1.69032e-05
-1.41506e-05
-1.10396e-05
-7.64557e-06
-3.82701e-06
-1.38306e-06
0.00169146
0.00132636
0.000721966
0.000193931
-0.000230035
-0.000458379
-0.000458156
-0.000412414
-0.000407951
-0.000402352
-0.0003885
-0.000385476
-0.000383286
-0.000374624
-0.000364672
-0.000356868
-0.000349204
-0.000338095
-0.000328502
-0.000319385
-0.000307177
-0.00030006
-0.000296371
-0.000291175
-0.000283254
-0.000274953
-0.000266572
-0.000259183
-0.000252482
-0.000246332
-0.000241385
-0.000235883
-0.000229099
-0.000225043
-0.000221434
-0.000216083
-0.000211936
-0.000207877
-0.000203567
-0.000200102
-0.000195696
-0.000191171
-0.000187978
-0.000183839
-0.000178324
-0.000173772
-0.000169874
-0.000164586
-0.000159057
-0.000154701
-0.000148701
-0.000140515
-0.000133319
-0.000126321
-0.000116927
-0.000107094
-9.83034e-05
-8.80865e-05
-7.67995e-05
-6.73604e-05
-5.92516e-05
-5.17664e-05
-4.53637e-05
-3.99912e-05
-3.56914e-05
-3.16871e-05
-2.76603e-05
-2.36702e-05
-2.00725e-05
-1.689e-05
-1.414e-05
-1.10863e-05
-7.65116e-06
-3.77509e-06
-1.44374e-06
0.00152674
0.00119243
0.000738159
0.000238985
-9.98318e-05
-0.000383036
-0.000406277
-0.000370696
-0.000374636
-0.000375455
-0.000369638
-0.000369933
-0.000368721
-0.000361582
-0.000353819
-0.000347169
-0.000340616
-0.000330547
-0.00032195
-0.000313579
-0.000301407
-0.000295348
-0.000291713
-0.00028683
-0.000279509
-0.000271609
-0.000263345
-0.000256099
-0.000249525
-0.000243696
-0.000238976
-0.000233592
-0.000226756
-0.000222851
-0.00021945
-0.00021414
-0.000210097
-0.000206175
-0.000201912
-0.000198584
-0.00019423
-0.00018964
-0.000186631
-0.000182628
-0.000177094
-0.000172553
-0.000168726
-0.000163578
-0.000158058
-0.00015381
-0.000147949
-0.000139734
-0.000132575
-0.000125739
-0.000116391
-0.000106593
-9.79679e-05
-8.78339e-05
-7.65626e-05
-6.71912e-05
-5.91505e-05
-5.16919e-05
-4.5304e-05
-3.99371e-05
-3.56448e-05
-3.16668e-05
-2.76298e-05
-2.36466e-05
-2.00124e-05
-1.68639e-05
-1.41237e-05
-1.11282e-05
-7.63753e-06
-3.72417e-06
-1.53543e-06
0.0013756
0.00109153
0.000734726
0.000278954
-2.4117e-05
-0.000315926
-0.00032285
-0.00033326
-0.000342027
-0.000343249
-0.00034627
-0.000353004
-0.00035476
-0.000348157
-0.000341615
-0.000336254
-0.000331148
-0.00032215
-0.000314504
-0.000306946
-0.000294375
-0.000289917
-0.000286305
-0.000281587
-0.000274776
-0.000267369
-0.000259373
-0.000252307
-0.000245782
-0.000240391
-0.00023591
-0.000230643
-0.000223798
-0.000220017
-0.000216788
-0.000211586
-0.00020763
-0.000203852
-0.000199686
-0.000196495
-0.000192212
-0.000187533
-0.000184708
-0.000180857
-0.000175352
-0.000170825
-0.000166995
-0.00016206
-0.000156593
-0.00015241
-0.000146712
-0.000138536
-0.000131424
-0.000124736
-0.000115486
-0.000105797
-9.73566e-05
-8.73601e-05
-7.6182e-05
-6.69238e-05
-5.89675e-05
-5.1566e-05
-4.52127e-05
-3.98567e-05
-3.55649e-05
-3.16139e-05
-2.75705e-05
-2.36023e-05
-1.9921e-05
-1.68138e-05
-1.4086e-05
-1.11631e-05
-7.62344e-06
-3.65142e-06
-1.64948e-06
0.0012498
0.00100729
0.000708462
0.000317278
2.68801e-05
-0.000237391
-0.000270445
-0.00030904
-0.000309406
-0.000308229
-0.000328634
-0.000337636
-0.000338967
-0.000334983
-0.000327755
-0.000324434
-0.000321018
-0.000313354
-0.000306418
-0.000300091
-0.000286621
-0.000284021
-0.000280279
-0.000275931
-0.000269433
-0.000262341
-0.000254776
-0.000248027
-0.000241361
-0.000236474
-0.000232246
-0.000227111
-0.000220283
-0.000216613
-0.00021351
-0.000208457
-0.000204557
-0.0002009
-0.000196869
-0.000193813
-0.000189645
-0.000184846
-0.000182195
-0.000178498
-0.000173065
-0.000168555
-0.000164627
-0.000159995
-0.000154631
-0.000150446
-0.000144924
-0.000136874
-0.000129827
-0.000123256
-0.000114149
-0.000104661
-9.64155e-05
-8.66126e-05
-7.56264e-05
-6.65279e-05
-5.86675e-05
-5.13583e-05
-4.50667e-05
-3.97308e-05
-3.5431e-05
-3.1509e-05
-2.74689e-05
-2.35289e-05
-1.97886e-05
-1.67286e-05
-1.4019e-05
-1.11769e-05
-7.6109e-06
-3.55503e-06
-1.76423e-06
0.00114555
0.000938665
0.000674356
0.000350956
7.80116e-05
-0.000164744
-0.000242104
-0.000278422
-0.000278024
-0.000280001
-0.00031306
-0.00031955
-0.000321302
-0.000320105
-0.000315326
-0.000312895
-0.000310167
-0.000303878
-0.000297964
-0.00029257
-0.000277975
-0.000278491
-0.000273999
-0.000269962
-0.000263713
-0.000256749
-0.000249727
-0.000243627
-0.00023654
-0.000232062
-0.000228117
-0.00022316
-0.000216305
-0.000212744
-0.000209766
-0.000204879
-0.000200985
-0.000197421
-0.000193552
-0.000190596
-0.000186603
-0.000181633
-0.000179148
-0.000175614
-0.000170317
-0.000165808
-0.000161621
-0.000157402
-0.000152217
-0.000147959
-0.000142602
-0.000134761
-0.000127806
-0.00012131
-0.000112373
-0.000103179
-9.51272e-05
-8.55669e-05
-7.48858e-05
-6.59889e-05
-5.82263e-05
-5.10437e-05
-4.48439e-05
-3.95413e-05
-3.52245e-05
-3.13314e-05
-2.73118e-05
-2.34203e-05
-1.96108e-05
-1.65979e-05
-1.39193e-05
-1.11526e-05
-7.60864e-06
-3.43593e-06
-1.84602e-06
0.00105303
0.000879558
0.000634957
0.000370505
0.00011799
-0.000105489
-0.000205214
-0.000249324
-0.000251115
-0.000259512
-0.000286943
-0.000299103
-0.000306172
-0.000304373
-0.000304563
-0.000301523
-0.000299104
-0.000293957
-0.000288724
-0.000283455
-0.000271045
-0.000272617
-0.000267629
-0.000263643
-0.000257553
-0.00025061
-0.000244018
-0.000239178
-0.000231908
-0.000227261
-0.000223658
-0.000218961
-0.000212027
-0.000208586
-0.000205704
-0.000200969
-0.000197028
-0.000193522
-0.000189891
-0.000186991
-0.000183251
-0.000177998
-0.000175648
-0.000172266
-0.000167221
-0.000162765
-0.000158093
-0.000154334
-0.000149393
-0.000145047
-0.000139856
-0.000132284
-0.000125438
-0.00011897
-0.000110199
-0.000101386
-9.3515e-05
-8.4231e-05
-7.39718e-05
-6.53116e-05
-5.76368e-05
-5.06112e-05
-4.4532e-05
-3.92782e-05
-3.49366e-05
-3.10669e-05
-2.70872e-05
-2.32726e-05
-1.93905e-05
-1.64159e-05
-1.37899e-05
-1.10763e-05
-7.62373e-06
-3.30079e-06
-1.86609e-06
0.000974378
0.000817677
0.000598025
0.000383697
0.000137562
-4.76465e-05
-0.000156935
-0.000226712
-0.000232846
-0.000238158
-0.000257267
-0.000277275
-0.000288022
-0.000292247
-0.0002914
-0.000289861
-0.000288099
-0.000283879
-0.000278986
-0.000273458
-0.000265706
-0.000265625
-0.000260848
-0.000257265
-0.00025109
-0.000244209
-0.000237926
-0.000233462
-0.000228106
-0.0002223
-0.000219046
-0.000214608
-0.000207438
-0.000204249
-0.000201489
-0.000196864
-0.000192807
-0.000189216
-0.000185975
-0.0001831
-0.00017981
-0.000174112
-0.000171843
-0.000168531
-0.000163814
-0.000159545
-0.00015421
-0.000150983
-0.000146217
-0.000141748
-0.000136774
-0.000129567
-0.000122854
-0.000116352
-0.000107695
-9.93431e-05
-9.16326e-05
-8.2636e-05
-7.29087e-05
-6.45179e-05
-5.69071e-05
-5.00629e-05
-4.41298e-05
-3.89419e-05
-3.45712e-05
-3.0713e-05
-2.67887e-05
-2.30818e-05
-1.91374e-05
-1.61824e-05
-1.36372e-05
-1.09521e-05
-7.65038e-06
-3.15302e-06
-1.81609e-06
0.000899789
0.000757531
0.000570946
0.000375635
0.000172489
-1.55964e-05
-0.000118575
-0.00019166
-0.000215111
-0.000223221
-0.000228349
-0.000254744
-0.000269126
-0.000281441
-0.000277569
-0.000278191
-0.000276965
-0.000273561
-0.000269562
-0.000263821
-0.000259183
-0.00025868
-0.000253629
-0.000250501
-0.000244798
-0.000237653
-0.00023178
-0.000227223
-0.000223909
-0.000217298
-0.000214172
-0.00020838
-0.000204487
-0.000199906
-0.000196993
-0.000192509
-0.00018854
-0.000184543
-0.000181748
-0.000178871
-0.000176343
-0.000170159
-0.000167865
-0.000164526
-0.00016021
-0.000156232
-0.000149996
-0.000147506
-0.000142902
-0.000138179
-0.000133363
-0.000126646
-0.000120156
-0.000113579
-0.000104935
-9.71189e-05
-8.95464e-05
-8.08245e-05
-7.17196e-05
-6.36414e-05
-5.60577e-05
-4.94065e-05
-4.3642e-05
-3.85384e-05
-3.41404e-05
-3.0279e-05
-2.64176e-05
-2.2844e-05
-1.88628e-05
-1.59075e-05
-1.34571e-05
-1.0794e-05
-7.70704e-06
-2.98083e-06
-1.69773e-06
0.000833669
0.000705856
0.000543903
0.000360637
0.000206381
1.44399e-05
-0.000101889
-0.000143586
-0.000190926
-0.000209015
-0.000209768
-0.000233433
-0.000253531
-0.000267596
-0.000264486
-0.000266319
-0.000265654
-0.000263861
-0.000259721
-0.000253387
-0.000252998
-0.000251259
-0.000246322
-0.00024318
-0.000239131
-0.000230766
-0.000225293
-0.000221814
-0.000218844
-0.000212176
-0.000208474
-0.000202802
-0.000201351
-0.000195506
-0.000192054
-0.000187766
-0.000184133
-0.000179873
-0.000177325
-0.000174207
-0.000172521
-0.000166414
-0.000163786
-0.000160255
-0.000156417
-0.000152887
-0.000145706
-0.00014382
-0.000139494
-0.000134619
-0.000129764
-0.00012352
-0.000117372
-0.000110733
-0.000101951
-9.47621e-05
-8.73141e-05
-7.88378e-05
-7.04105e-05
-6.27087e-05
-5.5127e-05
-4.86495e-05
-4.30732e-05
-3.80736e-05
-3.36573e-05
-2.978e-05
-2.59818e-05
-2.25572e-05
-1.85736e-05
-1.5603e-05
-1.32638e-05
-1.05699e-05
-7.81633e-06
-2.82503e-06
-1.51395e-06
0.000774759
0.000659454
0.000512083
0.000357444
0.000211333
5.53334e-05
-7.78661e-05
-0.000118546
-0.000157804
-0.000193359
-0.000199684
-0.000211937
-0.000235248
-0.000250983
-0.000251912
-0.000253858
-0.000253743
-0.000254811
-0.000250313
-0.00024318
-0.000245965
-0.000243127
-0.000239787
-0.000235219
-0.000233525
-0.000223458
-0.000219123
-0.000216701
-0.000212995
-0.000206627
-0.000203175
-0.000199141
-0.00019566
-0.000191109
-0.000186746
-0.000182845
-0.000179643
-0.00017441
-0.000173488
-0.000169546
-0.000167526
-0.000163538
-0.000159609
-0.000155543
-0.000152164
-0.000149327
-0.000141733
-0.00014016
-0.000135735
-0.000130991
-0.000126104
-0.000120325
-0.000114529
-0.000107888
-9.87785e-05
-9.23068e-05
-8.49775e-05
-7.67179e-05
-6.89763e-05
-6.17015e-05
-5.41686e-05
-4.77993e-05
-4.24262e-05
-3.75515e-05
-3.31311e-05
-2.92299e-05
-2.54923e-05
-2.22204e-05
-1.82737e-05
-1.52744e-05
-1.3063e-05
-1.03101e-05
-7.9182e-06
-2.70045e-06
-1.3308e-06
0.00071979
0.000613838
0.000485826
0.000348873
0.000214147
8.57861e-05
-5.05001e-05
-9.14427e-05
-0.000141346
-0.000174746
-0.00018529
-0.000194186
-0.000215902
-0.000234384
-0.0002393
-0.000240897
-0.000242517
-0.000244767
-0.000241114
-0.000233512
-0.000237737
-0.000235883
-0.000233562
-0.000226806
-0.000224349
-0.000217396
-0.000213883
-0.000211336
-0.000206691
-0.0002009
-0.000198577
-0.000194152
-0.000189682
-0.0001864
-0.000181681
-0.000177994
-0.000174409
-0.00016997
-0.000169674
-0.000164281
-0.000162492
-0.000160233
-0.000155166
-0.000151055
-0.00014836
-0.00014502
-0.00013776
-0.000136841
-0.000131784
-0.000127107
-0.000122137
-0.000117136
-0.000111593
-0.000105012
-9.54703e-05
-8.98035e-05
-8.25812e-05
-7.45172e-05
-6.7448e-05
-6.05827e-05
-5.32087e-05
-4.68648e-05
-4.17005e-05
-3.69738e-05
-3.25658e-05
-2.86384e-05
-2.49602e-05
-2.18392e-05
-1.79496e-05
-1.49507e-05
-1.27973e-05
-1.01163e-05
-7.88996e-06
-2.55275e-06
-1.24627e-06
0.000668279
0.000571105
0.000460929
0.000335266
0.000218761
0.000105485
-2.81573e-05
-6.48467e-05
-0.000130956
-0.000154244
-0.000166179
-0.000178274
-0.000200184
-0.000217932
-0.000224485
-0.000229321
-0.000231731
-0.000234048
-0.000230491
-0.000223445
-0.000231668
-0.000228072
-0.000224675
-0.000218601
-0.000215226
-0.000212155
-0.000208321
-0.000205349
-0.000200352
-0.000195176
-0.000193687
-0.000187776
-0.000183852
-0.000182139
-0.000175771
-0.000172966
-0.000169177
-0.000167231
-0.000163379
-0.00016023
-0.00015798
-0.000154464
-0.000151069
-0.000147472
-0.000144168
-0.000139589
-0.000134874
-0.000133193
-0.000127887
-0.000122925
-0.000117802
-0.000114068
-0.000108629
-0.000102006
-9.21085e-05
-8.72127e-05
-8.01276e-05
-7.22587e-05
-6.58622e-05
-5.93413e-05
-5.22011e-05
-4.58575e-05
-4.08912e-05
-3.63398e-05
-3.19586e-05
-2.8006e-05
-2.43967e-05
-2.14245e-05
-1.75933e-05
-1.46367e-05
-1.24633e-05
-9.95291e-06
-7.6881e-06
-2.48166e-06
-1.26079e-06
0.000620226
0.000533532
0.00043362
0.000322196
0.000220217
0.000118581
-6.05547e-06
-5.01154e-05
-9.97941e-05
-0.000147525
-0.000147784
-0.00016422
-0.000185377
-0.000201321
-0.000210795
-0.000217757
-0.000220632
-0.000223353
-0.000217725
-0.000215531
-0.000227913
-0.000217009
-0.000214314
-0.00021143
-0.00020747
-0.000207369
-0.000201296
-0.000199072
-0.000193226
-0.000189876
-0.000188313
-0.000180501
-0.000179393
-0.000176023
-0.000170041
-0.000168575
-0.000164212
-0.00016333
-0.000157216
-0.000156546
-0.000152382
-0.000149021
-0.000146937
-0.000143441
-0.000139308
-0.000135119
-0.000131801
-0.00012838
-0.000123879
-0.000118669
-0.000114014
-0.000110757
-0.000105262
-9.8553e-05
-8.91473e-05
-8.46244e-05
-7.76271e-05
-6.99608e-05
-6.42498e-05
-5.79838e-05
-5.10695e-05
-4.47856e-05
-3.99888e-05
-3.56498e-05
-3.13053e-05
-2.73234e-05
-2.38057e-05
-2.0988e-05
-1.72112e-05
-1.4315e-05
-1.20894e-05
-9.71606e-06
-7.29861e-06
-2.63101e-06
-1.31331e-06
0.000572527
0.000499179
0.000407983
0.000310958
0.000218553
0.00012264
2.04479e-05
-3.73686e-05
-8.13424e-05
-0.000139398
-0.00011776
-0.000152563
-0.000171824
-0.000186833
-0.00019758
-0.000204833
-0.000210093
-0.00021029
-0.000207541
-0.000212633
-0.000217344
-0.000206041
-0.000205277
-0.000204172
-0.000200495
-0.000200431
-0.00019424
-0.000192323
-0.000184986
-0.000185314
-0.00018269
-0.000174283
-0.000174793
-0.000168611
-0.000165744
-0.000163954
-0.000159298
-0.000157771
-0.000153193
-0.000150291
-0.000146862
-0.000145308
-0.000140715
-0.000139276
-0.000135496
-0.000131887
-0.000127313
-0.000123889
-0.000119262
-0.000114687
-0.000110396
-0.000107278
-0.000100899
-9.41532e-05
-8.6782e-05
-8.21244e-05
-7.51438e-05
-6.76928e-05
-6.26118e-05
-5.65113e-05
-4.98256e-05
-4.36464e-05
-3.89985e-05
-3.49002e-05
-3.06044e-05
-2.65849e-05
-2.31871e-05
-2.05298e-05
-1.68098e-05
-1.39853e-05
-1.16568e-05
-9.42606e-06
-6.85918e-06
-2.87498e-06
-1.387e-06
0.000530617
0.000466285
0.00038368
0.000299725
0.000212993
0.000126991
4.10579e-05
-2.31548e-05
-6.77943e-05
-0.000124429
-9.90299e-05
-0.000135446
-0.000158758
-0.000172032
-0.0001862
-0.000189982
-0.000199085
-0.000197136
-0.000198662
-0.000210086
-0.000200202
-0.000199906
-0.000197219
-0.000196604
-0.000194506
-0.000190742
-0.000187537
-0.000185022
-0.000178411
-0.000179017
-0.000176387
-0.000169651
-0.000168062
-0.000163579
-0.00016057
-0.000157977
-0.000155952
-0.000150121
-0.000149405
-0.000144492
-0.000141146
-0.000141194
-0.000134453
-0.000135015
-0.000131569
-0.000127789
-0.000123058
-0.000119815
-0.00011456
-0.000110502
-0.000106551
-0.000103171
-9.63764e-05
-8.9903e-05
-8.46268e-05
-7.95555e-05
-7.2615e-05
-6.54222e-05
-6.08861e-05
-5.4858e-05
-4.85324e-05
-4.24093e-05
-3.79898e-05
-3.40885e-05
-2.98529e-05
-2.5795e-05
-2.25499e-05
-2.00419e-05
-1.63911e-05
-1.364e-05
-1.11678e-05
-9.10315e-06
-6.44236e-06
-3.14356e-06
-1.46459e-06
0.000495857
0.000432766
0.000360367
0.000285006
0.000207644
0.000132724
4.84423e-05
-1.33246e-05
-4.50848e-05
-9.39332e-05
-0.000104874
-0.000120048
-0.000146177
-0.000158772
-0.00017238
-0.000177671
-0.000186979
-0.00018742
-0.000188393
-0.000200814
-0.000188614
-0.000192844
-0.000190608
-0.000185522
-0.000188266
-0.000182641
-0.000180222
-0.000177044
-0.000175207
-0.000170374
-0.000168403
-0.000165006
-0.00016161
-0.000158588
-0.000155038
-0.000151549
-0.000150354
-0.000146048
-0.00014344
-0.00013969
-0.000135917
-0.000135733
-0.000130345
-0.000129604
-0.000126569
-0.000122593
-0.00011973
-0.000115055
-0.000110611
-0.000105671
-0.000102656
-9.86393e-05
-9.26581e-05
-8.59638e-05
-8.2445e-05
-7.67567e-05
-7.00171e-05
-6.3104e-05
-5.90629e-05
-5.31204e-05
-4.70651e-05
-4.12461e-05
-3.68161e-05
-3.31995e-05
-2.90434e-05
-2.49527e-05
-2.19096e-05
-1.95269e-05
-1.59642e-05
-1.32651e-05
-1.06166e-05
-8.79281e-06
-5.95678e-06
-3.47637e-06
-1.56351e-06
0.000451552
0.000402835
0.00034324
0.000265939
0.000204688
0.00013676
5.18454e-05
-3.04107e-06
-2.57306e-05
-6.80111e-05
-0.000111201
-0.000106551
-0.00013013
-0.000149247
-0.000157423
-0.000167274
-0.00017488
-0.000175851
-0.000181863
-0.00018644
-0.000182434
-0.000181845
-0.000181349
-0.000177403
-0.000179511
-0.000174475
-0.00017421
-0.000169041
-0.000169308
-0.000164387
-0.00016038
-0.00015988
-0.000155653
-0.00015267
-0.000148952
-0.000145094
-0.000143056
-0.000142971
-0.000137465
-0.000133845
-0.000131754
-0.000129538
-0.000126293
-0.000124354
-0.000121124
-0.000117117
-0.000116847
-0.00010981
-0.00010711
-0.000100348
-9.83516e-05
-9.47775e-05
-8.88005e-05
-8.12743e-05
-7.99983e-05
-7.37382e-05
-6.74162e-05
-6.09095e-05
-5.71315e-05
-5.12718e-05
-4.53971e-05
-4.05457e-05
-3.51552e-05
-3.22229e-05
-2.81832e-05
-2.40526e-05
-2.12545e-05
-1.8982e-05
-1.5553e-05
-1.2874e-05
-1.00036e-05
-8.49116e-06
-5.33053e-06
-3.94075e-06
-1.67604e-06
0.000417612
0.000374832
0.000323468
0.000251226
0.000196464
0.000136252
6.58976e-05
6.92819e-06
-1.38207e-05
-6.31275e-05
-0.000100379
-9.20201e-05
-0.000115221
-0.000137705
-0.00014621
-0.000156531
-0.00016372
-0.000164271
-0.000172853
-0.000169047
-0.000178984
-0.000172482
-0.00016975
-0.000171805
-0.000168341
-0.000168697
-0.000165924
-0.000161628
-0.000160673
-0.000159861
-0.000154505
-0.000154728
-0.000147803
-0.000146237
-0.000142939
-0.000139371
-0.000137002
-0.000135557
-0.000134669
-0.000127525
-0.000127161
-0.000123357
-0.000121665
-0.000119364
-0.000115227
-0.000112221
-0.000113938
-0.000103709
-0.000102628
-9.6011e-05
-9.39965e-05
-9.0723e-05
-8.46961e-05
-7.71842e-05
-7.69949e-05
-7.03391e-05
-6.41024e-05
-5.93865e-05
-5.51209e-05
-4.92762e-05
-4.37002e-05
-3.94461e-05
-3.37318e-05
-3.12014e-05
-2.72721e-05
-2.3114e-05
-2.05814e-05
-1.83509e-05
-1.51443e-05
-1.24845e-05
-9.38631e-06
-8.26584e-06
-4.32403e-06
-4.58268e-06
-1.83626e-06
0.000377581
0.000354117
0.000307916
0.00023944
0.000180937
0.000139813
7.46273e-05
1.53531e-05
-2.05591e-06
-4.58088e-05
-9.18443e-05
-8.38021e-05
-0.000106245
-0.000123663
-0.000134197
-0.00014575
-0.000152913
-0.00015677
-0.00016134
-0.000156785
-0.000171245
-0.000161677
-0.000160956
-0.000164634
-0.000160208
-0.000163084
-0.000157529
-0.000153642
-0.000150597
-0.000153268
-0.000148674
-0.000147996
-0.000140973
-0.00013952
-0.000137123
-0.000133562
-0.000130684
-0.000128246
-0.000129076
-0.00012365
-0.000122523
-0.000116484
-0.000117037
-0.000113623
-0.000109767
-0.000107685
-0.00010896
-9.87054e-05
-9.74179e-05
-9.23039e-05
-8.98183e-05
-8.61016e-05
-8.07141e-05
-7.3723e-05
-7.35879e-05
-6.71496e-05
-6.03464e-05
-5.75973e-05
-5.28097e-05
-4.72186e-05
-4.19731e-05
-3.75929e-05
-3.29616e-05
-3.01061e-05
-2.62491e-05
-2.21231e-05
-1.99629e-05
-1.76533e-05
-1.46165e-05
-1.2154e-05
-8.66478e-06
-8.23439e-06
-4.30694e-06
-4.20385e-06
-1.80946e-06
0.000324509
0.000330363
0.000292651
0.000227858
0.000166856
0.000142455
7.2826e-05
2.47639e-05
7.42398e-06
-2.53752e-05
-8.08844e-05
-7.76901e-05
-0.000102859
-0.000112035
-0.000121226
-0.000134731
-0.000142675
-0.000148014
-0.000151653
-0.000151159
-0.000156617
-0.000150871
-0.000153355
-0.000155765
-0.00015434
-0.00015339
-0.000150966
-0.000145274
-0.00014281
-0.000145333
-0.000141256
-0.000139221
-0.0001361
-0.000132375
-0.000131018
-0.00012699
-0.000124257
-0.000121824
-0.000121527
-0.000121703
-0.0001156
-0.000111134
-0.000112009
-0.000107147
-0.000104743
-0.000103119
-0.000101751
-9.50239e-05
-9.33315e-05
-8.84647e-05
-8.51952e-05
-8.15758e-05
-7.6311e-05
-7.03538e-05
-7.03207e-05
-6.38899e-05
-5.73915e-05
-5.50304e-05
-5.00631e-05
-4.50316e-05
-4.02696e-05
-3.55098e-05
-3.22039e-05
-2.89523e-05
-2.51371e-05
-2.0968e-05
-1.94214e-05
-1.6989e-05
-1.41807e-05
-1.14888e-05
-9.10846e-06
-7.19254e-06
-5.23039e-06
-3.71029e-06
-1.36858e-06
0.000320037
0.000310821
0.000272907
0.000205913
0.000159771
0.000139721
7.54684e-05
3.00117e-05
1.53221e-05
-1.58981e-05
-6.13833e-05
-7.72309e-05
-9.39743e-05
-0.000102151
-0.000111481
-0.000122816
-0.000132872
-0.000136592
-0.000140495
-0.000143533
-0.000145699
-0.000141904
-0.000144893
-0.000146396
-0.000146333
-0.000145086
-0.000143962
-0.000135435
-0.000138096
-0.000136231
-0.00013316
-0.000131578
-0.000131666
-0.000123881
-0.000123262
-0.00012086
-0.000117623
-0.000115563
-0.00011536
-0.000114294
-0.000108918
-0.000108008
-0.000106326
-0.000101434
-9.97519e-05
-9.80163e-05
-9.4201e-05
-9.10163e-05
-9.00212e-05
-8.4885e-05
-7.96602e-05
-7.6808e-05
-7.19268e-05
-6.72528e-05
-6.65355e-05
-6.05654e-05
-5.43736e-05
-5.26429e-05
-4.71469e-05
-4.27249e-05
-3.83333e-05
-3.37382e-05
-3.11763e-05
-2.76889e-05
-2.3771e-05
-1.99288e-05
-1.88945e-05
-1.62292e-05
-1.37627e-05
-1.09842e-05
-9.95993e-06
-5.60242e-06
-5.06147e-06
-4.20245e-06
-9.86395e-07
0.000313807
0.000291613
0.00024103
0.000171331
0.000159247
0.000135813
7.8946e-05
3.13496e-05
2.3022e-05
-6.21969e-07
-4.29895e-05
-7.17541e-05
-7.39157e-05
-8.93728e-05
-0.00010278
-0.000100999
-0.000115357
-0.000120353
-0.000123681
-0.000132563
-0.00013137
-0.000128359
-0.000132798
-0.000133405
-0.00013212
-0.000130432
-0.00013197
-0.000124918
-0.000126976
-0.000123049
-0.000121799
-0.000121122
-0.000119806
-0.000113513
-0.000113047
-0.000111443
-0.00010756
-0.000105751
-0.00010488
-0.00010046
-0.000101902
-0.000100576
-9.72105e-05
-9.37363e-05
-9.16559e-05
-8.8549e-05
-8.30794e-05
-8.53635e-05
-8.49707e-05
-7.681e-05
-7.28426e-05
-6.98839e-05
-6.62045e-05
-6.1777e-05
-6.03154e-05
-5.5927e-05
-5.00138e-05
-4.7277e-05
-4.30911e-05
-3.95755e-05
-3.51976e-05
-3.10456e-05
-2.95981e-05
-2.55834e-05
-2.09682e-05
-1.89228e-05
-1.78654e-05
-1.49014e-05
-1.30602e-05
-1.06207e-05
-8.90258e-06
-4.6825e-06
-5.00051e-06
-3.81933e-06
-1.07829e-06
0.000250433
0.000236854
0.00018984
0.000151902
0.000144142
0.000114314
6.38291e-05
4.19938e-05
2.90435e-05
7.2144e-06
-3.7324e-05
-4.9995e-05
-5.16743e-05
-7.08574e-05
-8.66038e-05
-8.47977e-05
-8.81809e-05
-0.000100451
-0.000108121
-0.000112418
-0.000111651
-0.000112288
-0.00011432
-0.000114755
-0.000112059
-0.000110516
-0.000110957
-0.000111248
-0.000108835
-0.000107292
-0.000106458
-0.000104914
-0.000100672
-0.000100157
-9.96337e-05
-9.57619e-05
-9.41054e-05
-9.20202e-05
-9.02618e-05
-8.99566e-05
-8.8737e-05
-8.77611e-05
-8.21616e-05
-8.19293e-05
-7.84372e-05
-7.57789e-05
-7.27832e-05
-7.53968e-05
-7.03546e-05
-6.53918e-05
-6.61948e-05
-6.10213e-05
-5.78389e-05
-5.36104e-05
-5.19869e-05
-4.72982e-05
-4.46147e-05
-4.14207e-05
-3.74337e-05
-3.46044e-05
-3.07276e-05
-2.78974e-05
-2.61087e-05
-2.18854e-05
-1.84052e-05
-1.75111e-05
-1.58442e-05
-1.31742e-05
-1.14103e-05
-8.63594e-06
-6.61424e-06
-5.65806e-06
-4.70088e-06
-3.17369e-06
-1.3812e-06
0.000198011
0.000177257
0.000137069
0.000129575
0.0001311
0.000100831
5.98245e-05
3.64808e-05
2.76425e-05
1.02214e-05
-1.52344e-05
-3.27614e-05
-4.06059e-05
-5.75207e-05
-6.52251e-05
-7.09994e-05
-6.74942e-05
-8.24726e-05
-8.48434e-05
-8.31375e-05
-9.2229e-05
-9.47124e-05
-9.04414e-05
-9.11269e-05
-9.50257e-05
-8.69713e-05
-8.79618e-05
-9.57215e-05
-9.32656e-05
-8.74298e-05
-8.50251e-05
-8.53107e-05
-8.27336e-05
-8.25245e-05
-8.09101e-05
-8.05371e-05
-7.80185e-05
-7.7981e-05
-7.48174e-05
-7.26671e-05
-7.24448e-05
-7.19422e-05
-6.75708e-05
-6.71531e-05
-6.57622e-05
-6.16722e-05
-6.13996e-05
-6.22242e-05
-5.39412e-05
-5.76969e-05
-5.64686e-05
-5.036e-05
-4.49202e-05
-4.62973e-05
-4.1454e-05
-3.73154e-05
-3.69149e-05
-3.60393e-05
-3.09119e-05
-2.81633e-05
-2.60986e-05
-2.47572e-05
-2.06786e-05
-1.73861e-05
-1.64002e-05
-1.4711e-05
-1.2455e-05
-1.07765e-05
-9.0708e-06
-7.29584e-06
-6.14682e-06
-4.6508e-06
-3.83686e-06
-3.16216e-06
-1.23533e-06
0.000144683
0.000120293
0.00011857
0.000110117
8.31441e-05
6.92031e-05
6.55719e-05
3.74124e-05
1.53201e-05
6.23638e-06
-1.5094e-07
-1.88981e-05
-3.31408e-05
-4.05223e-05
-4.62874e-05
-5.12315e-05
-5.21031e-05
-6.40106e-05
-6.20613e-05
-6.41062e-05
-7.08346e-05
-8.10839e-05
-5.18643e-05
-5.66987e-05
-7.84689e-05
-7.39444e-05
-5.97179e-05
-6.93233e-05
-6.96106e-05
-6.52224e-05
-6.43685e-05
-6.3202e-05
-6.25652e-05
-6.44217e-05
-6.19995e-05
-5.99657e-05
-5.96668e-05
-5.96733e-05
-5.64348e-05
-5.61483e-05
-5.18726e-05
-5.10659e-05
-5.24619e-05
-5.04517e-05
-5.07819e-05
-4.71127e-05
-4.81398e-05
-4.57557e-05
-4.37679e-05
-4.3017e-05
-4.38139e-05
-3.86805e-05
-3.36822e-05
-3.41274e-05
-3.00807e-05
-2.91261e-05
-2.86926e-05
-2.5987e-05
-2.49609e-05
-2.1939e-05
-2.08833e-05
-1.82207e-05
-1.59154e-05
-1.41359e-05
-1.24797e-05
-1.11142e-05
-9.41425e-06
-8.1416e-06
-7.28428e-06
-5.78783e-06
-4.20047e-06
-3.44185e-06
-2.64927e-06
-2.55013e-06
-1.09635e-06
8.92358e-05
8.47954e-05
7.69939e-05
6.55271e-05
5.16005e-05
4.60468e-05
3.76188e-05
1.86063e-05
8.77032e-06
7.90808e-06
2.69262e-06
-7.79591e-06
-1.69378e-05
-1.76154e-05
-2.84614e-05
-3.5737e-05
-3.5389e-05
-3.68524e-05
-4.11048e-05
-4.23821e-05
-3.63647e-05
-4.55098e-05
-4.23871e-05
-4.09155e-05
-4.56919e-05
-4.92017e-05
-4.13922e-05
-3.98828e-05
-4.32468e-05
-3.98129e-05
-3.89505e-05
-3.9223e-05
-4.06579e-05
-3.99139e-05
-3.99452e-05
-3.83161e-05
-4.00656e-05
-3.5193e-05
-3.61325e-05
-3.85055e-05
-3.16369e-05
-3.22355e-05
-3.37869e-05
-3.21093e-05
-3.20055e-05
-3.20782e-05
-3.13765e-05
-2.70919e-05
-2.86762e-05
-2.86127e-05
-2.43833e-05
-2.36761e-05
-2.26282e-05
-2.11566e-05
-2.15997e-05
-1.96503e-05
-1.77177e-05
-1.56149e-05
-1.59136e-05
-1.389e-05
-1.40786e-05
-1.13868e-05
-1.01329e-05
-8.5416e-06
-7.61464e-06
-7.21997e-06
-6.57319e-06
-4.64162e-06
-4.55223e-06
-3.88129e-06
-2.50556e-06
-2.47618e-06
-2.15932e-06
-1.23301e-06
-5.94371e-07
3.2252e-05
2.76776e-05
2.4322e-05
2.03324e-05
1.89797e-05
1.3511e-05
9.96322e-06
8.52116e-06
9.32914e-06
9.07979e-06
2.68478e-06
-3.31068e-06
-9.10207e-06
-8.43322e-06
-8.2756e-06
-7.07152e-06
-1.37967e-05
-1.09158e-05
-1.24543e-05
-1.59133e-05
-9.9193e-06
-3.73016e-06
-2.49788e-05
-2.7045e-05
-1.21248e-05
-1.20936e-05
-2.06128e-05
-1.79159e-05
-1.59388e-05
-1.09222e-05