/*--------------------------------*- C++ -*----------------------------------*\
| =========                 |                                                 |
| \\      /  F ield         | OpenFOAM: The Open Source CFD Toolbox           |
|  \\    /   O peration     | Version:  2.3.0                                 |
|   \\  /    A nd           | Web:      www.OpenFOAM.org                      |
|    \\/     M anipulation  |                                                 |
\*---------------------------------------------------------------------------*/
FoamFile
{
    version     2.0;
    format      ascii;
    class       volScalarField;
    location    "0.9";
    object      p;
}
// * * * * * * * * * * * * * * * * * * * * * * * * * * * * * * * * * * * * * //

dimensions      [0 2 -2 0 0 0 0];

internalField   nonuniform List<scalar> 
3105
(
0.0025236
0.00222486
0.00163321
0.00106987
0.000600168
0.000202315
-0.000133783
-0.000392647
-0.00055558
-0.000626182
-0.000629305
-0.000595303
-0.000547936
-0.000501479
-0.000462544
-0.000432668
-0.000410675
-0.000394451
-0.000381961
-0.000371644
-0.000362449
-0.000353752
-0.000345226
-0.000336735
-0.000328247
-0.000319783
-0.000311378
-0.000303069
-0.000294886
-0.000286849
-0.000278968
-0.000271251
-0.000263698
-0.000256309
-0.000249079
-0.000242008
-0.00023509
-0.000228324
-0.000221706
-0.000215236
-0.000208911
-0.000202732
-0.000196695
-0.000190803
-0.000185051
-0.000179444
-0.000173974
-0.000168647
-0.000163455
-0.000158405
-0.000153486
-0.000148706
-0.000144052
-0.000139534
-0.000135138
-0.000130875
-0.000126726
-0.000122706
-0.000118795
-0.000115008
-0.000111322
-0.000107756
-0.000104281
-0.000100923
-9.76469e-05
-9.44821e-05
-9.1389e-05
-8.8403e-05
-8.54768e-05
-8.26537e-05
-7.98771e-05
-7.71998e-05
-7.45542e-05
-7.20048e-05
-6.94701e-05
-6.7029e-05
-6.45835e-05
-6.22298e-05
-5.98496e-05
-5.75604e-05
-5.52191e-05
-5.29696e-05
-5.0638e-05
-4.84008e-05
-4.60458e-05
-4.37904e-05
-4.13746e-05
-3.90671e-05
-3.65472e-05
-3.41493e-05
-3.14748e-05
-2.89433e-05
-2.60541e-05
-2.33396e-05
-2.0162e-05
-1.72094e-05
-1.36471e-05
-1.03999e-05
-6.29973e-06
-2.74731e-06
0.00209756
0.00193922
0.0015226
0.00103694
0.000595008
0.000217905
-9.63373e-05
-0.000338023
-0.000496123
-0.000572429
-0.000585414
-0.000561206
-0.000522178
-0.000482226
-0.000448079
-0.000421496
-0.000401654
-0.000386821
-0.000375261
-0.000365609
-0.000356933
-0.000348669
-0.000340523
-0.000332372
-0.000324192
-0.000316006
-0.000307852
-0.00029977
-0.000291791
-0.000283938
-0.000276225
-0.000268661
-0.000261247
-0.000253987
-0.000246875
-0.000239914
-0.000233097
-0.000226426
-0.000219895
-0.000213508
-0.00020726
-0.000201153
-0.000195183
-0.000189355
-0.000183663
-0.000178112
-0.000172696
-0.000167419
-0.000162275
-0.00015727
-0.000152393
-0.000147653
-0.000143037
-0.000138556
-0.000134194
-0.000129964
-0.000125846
-0.000121857
-0.000117973
-0.000114214
-0.000110553
-0.000107011
-0.00010356
-0.000100225
-9.69696e-05
-9.38259e-05
-9.07519e-05
-8.77853e-05
-8.48765e-05
-8.20714e-05
-7.93106e-05
-7.66502e-05
-7.4019e-05
-7.14852e-05
-6.89636e-05
-6.65372e-05
-6.41035e-05
-6.17636e-05
-5.9394e-05
-5.7118e-05
-5.47862e-05
-5.25492e-05
-5.02259e-05
-4.80007e-05
-4.56528e-05
-4.34091e-05
-4.09992e-05
-3.87031e-05
-3.61876e-05
-3.38012e-05
-3.11296e-05
-2.86095e-05
-2.57214e-05
-2.30189e-05
-1.98396e-05
-1.69004e-05
-1.33322e-05
-1.01009e-05
-5.99363e-06
-2.47817e-06
0.00180081
0.00170477
0.0014162
0.00101454
0.000611069
0.000258852
-3.02771e-05
-0.000253267
-0.000407179
-0.00049353
-0.000523509
-0.000515917
-0.000490067
-0.00045987
-0.00043228
-0.000409701
-0.000392138
-0.000378585
-0.0003678
-0.000358701
-0.000350491
-0.000342669
-0.000334956
-0.000327227
-0.00031945
-0.000311642
-0.000303834
-0.000296065
-0.000288367
-0.000280764
-0.000273274
-0.000265908
-0.000258672
-0.000251571
-0.000244603
-0.000237772
-0.000231073
-0.000224511
-0.00021808
-0.000211785
-0.000205621
-0.000199593
-0.000193696
-0.000187937
-0.000182308
-0.000176817
-0.000171456
-0.000166232
-0.000161137
-0.000156178
-0.000151345
-0.000146646
-0.000142069
-0.000137626
-0.000133298
-0.000129101
-0.000125015
-0.000121055
-0.0001172
-0.000113468
-0.000109832
-0.000106316
-0.000102887
-9.95748e-05
-9.63398e-05
-9.32177e-05
-9.01618e-05
-8.72153e-05
-8.43228e-05
-8.15364e-05
-7.87903e-05
-7.61474e-05
-7.35293e-05
-7.10121e-05
-6.85022e-05
-6.60917e-05
-6.36683e-05
-6.13437e-05
-5.89831e-05
-5.67219e-05
-5.43977e-05
-5.21754e-05
-4.98583e-05
-4.76478e-05
-4.53047e-05
-4.30758e-05
-4.06691e-05
-3.83883e-05
-3.58744e-05
-3.35039e-05
-3.0832e-05
-2.8329e-05
-2.54383e-05
-2.27545e-05
-1.95702e-05
-1.66517e-05
-1.3077e-05
-9.86824e-06
-5.78466e-06
-2.33307e-06
0.00159646
0.00151921
0.00130805
0.000983601
0.000628064
0.000304979
3.84793e-05
-0.000168018
-0.00031593
-0.000408047
-0.000451746
-0.000460048
-0.000448142
-0.000428463
-0.000408306
-0.000390821
-0.000376708
-0.000365513
-0.000356395
-0.000348538
-0.000341316
-0.000334327
-0.000327346
-0.000320278
-0.0003131
-0.000305831
-0.000298506
-0.000291168
-0.00028385
-0.000276586
-0.000269395
-0.000262297
-0.0002553
-0.000248415
-0.000241642
-0.000234988
-0.000228451
-0.000222038
-0.000215744
-0.000209576
-0.000203529
-0.000197611
-0.000191815
-0.00018615
-0.000180609
-0.0001752
-0.000169915
-0.000164764
-0.000159735
-0.00015484
-0.000150066
-0.000145424
-0.000140899
-0.000136505
-0.000132223
-0.000128071
-0.000124025
-0.000120106
-0.000116287
-0.000112591
-0.000108987
-0.000105504
-0.000102105
-9.88221e-05
-9.56132e-05
-9.25184e-05
-8.94859e-05
-8.65646e-05
-8.3693e-05
-8.093e-05
-7.82027e-05
-7.55816e-05
-7.29804e-05
-7.04837e-05
-6.79888e-05
-6.55977e-05
-6.31877e-05
-6.08817e-05
-5.85329e-05
-5.62897e-05
-5.39758e-05
-5.17712e-05
-4.94629e-05
-4.72699e-05
-4.49343e-05
-4.27229e-05
-4.03224e-05
-3.80594e-05
-3.55503e-05
-3.31983e-05
-3.05299e-05
-2.80463e-05
-2.51578e-05
-2.24945e-05
-1.93121e-05
-1.64146e-05
-1.28471e-05
-9.66026e-06
-5.6375e-06
-2.26189e-06
0.00143491
0.00136323
0.00119739
0.000936884
0.00063283
0.000342814
9.80005e-05
-9.40444e-05
-0.000235251
-0.000329443
-0.000382294
-0.000403004
-0.00040307
-0.000392998
-0.000379953
-0.000367614
-0.00035723
-0.00034876
-0.000341668
-0.000335365
-0.000329386
-0.000323438
-0.000317364
-0.00031111
-0.000304669
-0.000298072
-0.000291356
-0.000284567
-0.000277744
-0.000270925
-0.000264134
-0.000257395
-0.000250722
-0.00024413
-0.000237622
-0.000231211
-0.000224896
-0.000218686
-0.000212579
-0.000206584
-0.000200697
-0.000194928
-0.000189271
-0.000183735
-0.000178315
-0.000173019
-0.00016784
-0.000162788
-0.000157852
-0.000153046
-0.000148353
-0.000143789
-0.000139337
-0.000135013
-0.000130796
-0.000126706
-0.000122718
-0.000118855
-0.000115087
-0.000111442
-0.000107884
-0.000104447
-0.000101088
-9.78474e-05
-9.46756e-05
-9.16184e-05
-8.86193e-05
-8.57324e-05
-8.28909e-05
-8.01595e-05
-7.74592e-05
-7.48674e-05
-7.22906e-05
-6.98211e-05
-6.73483e-05
-6.49827e-05
-6.25926e-05
-6.03107e-05
-5.79799e-05
-5.57596e-05
-5.34622e-05
-5.12796e-05
-4.89863e-05
-4.68148e-05
-4.44928e-05
-4.23026e-05
-3.99147e-05
-3.76727e-05
-3.51755e-05
-3.28447e-05
-3.01879e-05
-2.77256e-05
-2.48497e-05
-2.22074e-05
-1.9041e-05
-1.61628e-05
-1.26243e-05
-9.45972e-06
-5.52965e-06
-2.23261e-06
0.00129737
0.00122857
0.00109102
0.000879966
0.000624978
0.000370132
0.000147213
-3.16165e-05
-0.0001661
-0.000260012
-0.000318469
-0.000348377
-0.000358301
-0.000356767
-0.000350346
-0.000342931
-0.000336184
-0.000330426
-0.000325389
-0.000320679
-0.000315977
-0.000311095
-0.000305949
-0.000300524
-0.000294839
-0.000288935
-0.000282856
-0.000276652
-0.000270361
-0.000264027
-0.000257677
-0.000251341
-0.000245035
-0.000238778
-0.000232578
-0.000226451
-0.000220396
-0.000214429
-0.000208546
-0.00020276
-0.000197067
-0.00019148
-0.000185993
-0.000180618
-0.000175347
-0.000170193
-0.000165146
-0.00016022
-0.000155402
-0.000150708
-0.00014612
-0.000141656
-0.000137298
-0.000133064
-0.000128931
-0.000124922
-0.00012101
-0.00011722
-0.00011352
-0.000109941
-0.000106445
-0.000103067
-9.97642e-05
-9.65778e-05
-9.3456e-05
-9.04486e-05
-8.74948e-05
-8.46534e-05
-8.1853e-05
-7.91634e-05
-7.65004e-05
-7.39471e-05
-7.14043e-05
-6.89705e-05
-6.65287e-05
-6.41963e-05
-6.18347e-05
-5.95839e-05
-5.72795e-05
-5.50885e-05
-5.28156e-05
-5.06609e-05
-4.83906e-05
-4.62457e-05
-4.39458e-05
-4.17814e-05
-3.9415e-05
-3.71981e-05
-3.47228e-05
-3.24162e-05
-2.97828e-05
-2.73438e-05
-2.44949e-05
-2.18741e-05
-1.87426e-05
-1.58831e-05
-1.23995e-05
-9.26014e-06
-5.44704e-06
-2.22182e-06
0.0011771
0.00111135
0.000993722
0.000820299
0.000607968
0.000387607
0.000187138
2.13796e-05
-0.000106424
-0.000198858
-0.00026052
-0.00029701
-0.000314843
-0.000320755
-0.000320431
-0.000317674
-0.000314413
-0.000311285
-0.000308271
-0.000305159
-0.000301755
-0.000297963
-0.00029376
-0.000289174
-0.000284249
-0.000279041
-0.0002736
-0.000267981
-0.000262226
-0.000256381
-0.000250477
-0.000244549
-0.000238616
-0.000232703
-0.000226819
-0.000220984
-0.000215201
-0.000209486
-0.000203839
-0.000198274
-0.000192789
-0.000187397
-0.000182094
-0.000176893
-0.000171786
-0.000166789
-0.000161889
-0.000157104
-0.000152419
-0.000147851
-0.000143383
-0.000139035
-0.000134785
-0.000130656
-0.000126622
-0.000122709
-0.000118885
-0.000115182
-0.000111564
-0.000108064
-0.000104642
-0.000101337
-9.81019e-05
-9.49819e-05
-9.19219e-05
-8.89754e-05
-8.6078e-05
-8.32926e-05
-8.05438e-05
-7.79058e-05
-7.52903e-05
-7.27846e-05
-7.02855e-05
-6.78958e-05
-6.54944e-05
-6.32031e-05
-6.08791e-05
-5.86665e-05
-5.63976e-05
-5.42425e-05
-5.20032e-05
-4.98824e-05
-4.76445e-05
-4.55318e-05
-4.32639e-05
-4.11298e-05
-3.8796e-05
-3.6608e-05
-3.41668e-05
-3.18875e-05
-2.92919e-05
-2.68781e-05
-2.40738e-05
-2.14752e-05
-1.84004e-05
-1.55611e-05
-1.21587e-05
-9.05001e-06
-5.37043e-06
-2.19955e-06
0.00107097
0.00100886
0.000906753
0.000762115
0.000584999
0.000396272
0.00021825
6.59866e-05
-5.48551e-05
-0.000145061
-0.000208331
-0.000249371
-0.000273338
-0.000285525
-0.000290659
-0.000292224
-0.000292256
-0.000291644
-0.000290599
-0.000289076
-0.000286988
-0.000284314
-0.00028108
-0.000277352
-0.000273199
-0.000268693
-0.000263893
-0.00025886
-0.00025364
-0.000248284
-0.000242826
-0.000237306
-0.000231746
-0.000226176
-0.000220609
-0.000215067
-0.000209555
-0.000204094
-0.000198684
-0.000193342
-0.000188066
-0.000182873
-0.000177756
-0.000172733
-0.000167794
-0.000162957
-0.000158209
-0.00015357
-0.000149022
-0.000144588
-0.000140246
-0.00013602
-0.000131885
-0.000127867
-0.000123938
-0.000120127
-0.000116401
-0.000112793
-0.000109263
-0.00010585
-0.000102511
-9.92859e-05
-9.61261e-05
-9.30802e-05
-9.00899e-05
-8.72119e-05
-8.4379e-05
-8.1657e-05
-7.89679e-05
-7.63887e-05
-7.38285e-05
-7.13774e-05
-6.89299e-05
-6.6591e-05
-6.4238e-05
-6.1994e-05
-5.97158e-05
-5.75475e-05
-5.53222e-05
-5.32086e-05
-5.10116e-05
-4.89297e-05
-4.67335e-05
-4.46574e-05
-4.24316e-05
-4.03319e-05
-3.80419e-05
-3.58859e-05
-3.3492e-05
-3.12424e-05
-2.86998e-05
-2.6313e-05
-2.35709e-05
-2.0997e-05
-1.79993e-05
-1.51853e-05
-1.1887e-05
-8.8162e-06
-5.27899e-06
-2.14175e-06
0.000976884
0.000918801
0.000829431
0.000707136
0.000558436
0.000397404
0.000240932
0.000102572
-1.07443e-05
-9.80306e-05
-0.000161761
-0.000205786
-0.00023432
-0.000251581
-0.000261419
-0.000266883
-0.00026997
-0.000271734
-0.000272579
-0.00027261
-0.000271835
-0.000270291
-0.000268044
-0.000265189
-0.000261816
-0.000258016
-0.000253858
-0.000249412
-0.000244727
-0.00023986
-0.000234849
-0.000229738
-0.000224553
-0.000219329
-0.000214079
-0.000208832
-0.000203594
-0.000198389
-0.000193217
-0.0001881
-0.000183035
-0.000178042
-0.000173113
-0.000168269
-0.0001635
-0.000158825
-0.000154231
-0.000149739
-0.000145332
-0.000141032
-0.000136818
-0.000132716
-0.000128699
-0.000124796
-0.000120975
-0.00011727
-0.000113644
-0.000110133
-0.000106696
-0.000103374
-0.00010012
-9.69788e-05
-9.38988e-05
-9.09307e-05
-8.80146e-05
-8.52089e-05
-8.24452e-05
-7.97905e-05
-7.7166e-05
-7.46495e-05
-7.21499e-05
-6.97572e-05
-6.73669e-05
-6.50826e-05
-6.27838e-05
-6.05908e-05
-5.83646e-05
-5.6244e-05
-5.40691e-05
-5.20002e-05
-4.98528e-05
-4.78128e-05
-4.56665e-05
-4.36295e-05
-4.1455e-05
-3.9392e-05
-3.7156e-05
-3.50343e-05
-3.26991e-05
-3.04814e-05
-2.80048e-05
-2.5648e-05
-2.29826e-05
-2.04381e-05
-1.75338e-05
-1.47534e-05
-1.15752e-05
-8.55135e-06
-5.15856e-06
-2.04273e-06
0.000893022
0.000839104
0.000760405
0.000655843
0.000529983
0.000392532
0.000255951
0.000131527
2.63544e-05
-5.72707e-05
-0.000120523
-0.000166319
-0.0001981
-0.000219294
-0.00023303
-0.000241903
-0.000247766
-0.00025174
-0.000254375
-0.0002559
-0.000256409
-0.000255985
-0.000254723
-0.000252743
-0.000250153
-0.000247058
-0.000243541
-0.00023968
-0.000235529
-0.000231152
-0.000226589
-0.00022189
-0.000217083
-0.000212207
-0.000207279
-0.00020233
-0.00019737
-0.000192424
-0.000187495
-0.000182607
-0.000177756
-0.000172966
-0.000168229
-0.000163568
-0.000158971
-0.000154461
-0.000150024
-0.000145682
-0.000141418
-0.000137256
-0.000133173
-0.000129197
-0.0001253
-0.000121513
-0.000117804
-0.000114206
-0.000110683
-0.000107271
-0.00010393
-0.0001007
-9.75343e-05
-9.44793e-05
-9.14818e-05
-8.85935e-05
-8.57546e-05
-8.30231e-05
-8.03316e-05
-7.77461e-05
-7.51896e-05
-7.27375e-05
-7.03022e-05
-6.79697e-05
-6.56403e-05
-6.34123e-05
-6.1172e-05
-5.90316e-05
-5.6862e-05
-5.47905e-05
-5.26712e-05
-5.06483e-05
-4.85562e-05
-4.65595e-05
-4.44692e-05
-4.2473e-05
-4.03565e-05
-3.83318e-05
-3.61575e-05
-3.40721e-05
-3.1804e-05
-2.96211e-05
-2.72195e-05
-2.48971e-05
-2.2318e-05
-1.981e-05
-1.70088e-05
-1.4273e-05
-1.1223e-05
-8.25671e-06
-5.00579e-06
-1.9152e-06
0.000817796
0.000767999
0.00069836
0.000608182
0.000500821
0.000383186
0.000264416
0.000153482
5.68955e-05
-2.23354e-05
-8.42673e-05
-0.000130852
-0.000164799
-0.00018891
-0.000205754
-0.000217508
-0.000225828
-0.000231823
-0.000236126
-0.000239064
-0.000240802
-0.000241465
-0.000241171
-0.000240055
-0.000238239
-0.000235844
-0.000232962
-0.000229681
-0.000226063
-0.000222175
-0.000218061
-0.000213775
-0.000209349
-0.000204825
-0.000200222
-0.000195577
-0.000190899
-0.000186218
-0.000181536
-0.000176881
-0.000172249
-0.000167667
-0.000163126
-0.000158652
-0.000154232
-0.000149891
-0.000145615
-0.000141427
-0.00013731
-0.000133289
-0.000129341
-0.000125494
-0.000121722
-0.000118054
-0.00011446
-0.000110972
-0.000107555
-0.000104245
-0.000101003
-9.78672e-05
-9.4794e-05
-9.18266e-05
-8.89151e-05
-8.61082e-05
-8.33498e-05
-8.06941e-05
-7.80782e-05
-7.55632e-05
-7.30779e-05
-7.06916e-05
-6.83238e-05
-6.60527e-05
-6.37878e-05
-6.16169e-05
-5.94388e-05
-5.73518e-05
-5.52427e-05
-5.32213e-05
-5.11616e-05
-4.91857e-05
-4.71532e-05
-4.52008e-05
-4.31712e-05
-4.12169e-05
-3.91634e-05
-3.71789e-05
-3.50712e-05
-3.30248e-05
-3.08289e-05
-2.86848e-05
-2.63631e-05
-2.40812e-05
-2.15931e-05
-1.91306e-05
-1.64365e-05
-1.37575e-05
-1.08367e-05
-7.93997e-06
-4.8265e-06
-1.77992e-06
0.00074986
0.00070404
0.000642193
0.000563901
0.000471709
0.000370675
0.000267537
0.000169245
8.1389e-05
7.16693e-06
-5.26779e-05
-9.92139e-05
-0.000134438
-0.000160601
-0.000179819
-0.00019392
-0.000204348
-0.000212144
-0.000217971
-0.000222219
-0.000225111
-0.000226807
-0.000227443
-0.000227166
-0.000226108
-0.000224399
-0.000222142
-0.000219433
-0.000216342
-0.000212939
-0.000209273
-0.000205401
-0.000201357
-0.000197187
-0.000192914
-0.000188576
-0.000184184
-0.000179771
-0.000175342
-0.000170924
-0.000166518
-0.000162147
-0.000157808
-0.000153525
-0.000149288
-0.000145121
-0.00014101
-0.000136981
-0.000133016
-0.000129139
-0.000125332
-0.000121618
-0.000117975
-0.00011443
-0.000110955
-0.000107581
-0.000104275
-0.00010107
-9.7931e-05
-9.48927e-05
-9.19156e-05
-8.90385e-05
-8.62169e-05
-8.34939e-05
-8.08197e-05
-7.8242e-05
-7.57054e-05
-7.32628e-05
-7.08526e-05
-6.85336e-05
-6.62371e-05
-6.40287e-05
-6.1832e-05
-5.97197e-05
-5.76073e-05
-5.55751e-05
-5.35301e-05
-5.156e-05
-4.95634e-05
-4.76361e-05
-4.56666e-05
-4.37603e-05
-4.17947e-05
-3.98846e-05
-3.78972e-05
-3.59559e-05
-3.39177e-05
-3.19144e-05
-2.97931e-05
-2.76934e-05
-2.54536e-05
-2.32197e-05
-2.08238e-05
-1.84169e-05
-1.583e-05
-1.32198e-05
-1.04251e-05
-7.61034e-06
-4.6303e-06
-1.65354e-06
0.000688112
0.000646082
0.000591013
0.000522694
0.000443095
0.000356
0.000266422
0.000179689
0.000100402
3.16043e-05
-2.54933e-05
-7.12488e-05
-0.000106998
-0.000134478
-0.000155417
-0.000171349
-0.000183518
-0.000192869
-0.00020005
-0.000205486
-0.000209437
-0.000212093
-0.000213605
-0.000214128
-0.000213799
-0.000212756
-0.000211108
-0.000208958
-0.000206384
-0.000203458
-0.000200236
-0.000196774
-0.000193112
-0.000189297
-0.000185356
-0.000181326
-0.000177225
-0.000173084
-0.000168911
-0.000164735
-0.000160558
-0.000156404
-0.000152272
-0.000148184
-0.000144135
-0.000140146
-0.000136207
-0.000132341
-0.000128533
-0.000124806
-0.000121144
-0.000117568
-0.000114059
-0.000110641
-0.000107291
-0.000104034
-0.000100844
-9.7748e-05
-9.47167e-05
-9.17794e-05
-8.8903e-05
-8.61196e-05
-8.33923e-05
-8.07563e-05
-7.81705e-05
-7.56736e-05
-7.32204e-05
-7.0853e-05
-6.85215e-05
-6.62725e-05
-6.40508e-05
-6.19078e-05
-5.97827e-05
-5.77315e-05
-5.5688e-05
-5.37131e-05
-5.17352e-05
-4.98191e-05
-4.78885e-05
-4.60125e-05
-4.41087e-05
-4.22517e-05
-4.03523e-05
-3.84903e-05
-3.65708e-05
-3.46771e-05
-3.27099e-05
-3.07552e-05
-2.87093e-05
-2.6661e-05
-2.45032e-05
-2.23259e-05
-2.00216e-05
-1.76805e-05
-1.5199e-05
-1.26688e-05
-9.99596e-06
-7.27486e-06
-4.42562e-06
-1.54307e-06
0.000631651
0.000593204
0.00054409
0.000484243
0.000415215
0.000339879
0.000262001
0.000185655
0.000114538
5.13597e-05
-2.47322e-06
-4.68152e-05
-8.24393e-05
-0.000110607
-0.000132694
-0.000149974
-0.000163513
-0.000174151
-0.000182497
-0.000188978
-0.000193878
-0.000197406
-0.000199727
-0.000200997
-0.000201359
-0.000200951
-0.000199889
-0.000198281
-0.000196208
-0.000193749
-0.000190962
-0.000187905
-0.000184622
-0.00018116
-0.000177549
-0.000173829
-0.00017002
-0.000166153
-0.00016224
-0.000158309
-0.000154365
-0.000150433
-0.000146512
-0.000142625
-0.000138768
-0.000134962
-0.0001312
-0.000127502
-0.000123857
-0.000120284
-0.000116772
-0.000113339
-0.000109969
-0.000106683
-0.000103463
-0.000100328
-9.72585e-05
-9.42759e-05
-9.13572e-05
-8.85251e-05
-8.57539e-05
-8.30683e-05
-8.04395e-05
-7.78944e-05
-7.54013e-05
-7.29889e-05
-7.06229e-05
-6.83343e-05
-6.60853e-05
-6.39099e-05
-6.17665e-05
-5.96923e-05
-5.76419e-05
-5.56553e-05
-5.36838e-05
-5.17697e-05
-4.98617e-05
-4.80032e-05
-4.6141e-05
-4.43203e-05
-4.24841e-05
-4.06808e-05
-3.88493e-05
-3.70403e-05
-3.519e-05
-3.33496e-05
-3.1454e-05
-2.95544e-05
-2.75843e-05
-2.55946e-05
-2.35187e-05
-2.14066e-05
-1.91932e-05
-1.69275e-05
-1.45496e-05
-1.2109e-05
-9.55451e-06
-6.93728e-06
-4.21763e-06
-1.44769e-06
0.000579731
0.000544659
0.000500817
0.00044824
0.000388169
0.000322808
0.000255012
0.000187901
0.000124406
6.68445e-05
1.66329e-05
-2.57717e-05
-6.07057e-05
-8.90138e-05
-0.000111743
-0.000129932
-0.000144483
-0.000156132
-0.000165436
-0.000172805
-0.000178531
-0.000182831
-0.000185879
-0.000187833
-0.000188835
-0.000189024
-0.000188518
-0.000187427
-0.000185837
-0.000183829
-0.000181464
-0.000178803
-0.000175892
-0.000172779
-0.000169497
-0.000166086
-0.000162568
-0.000158977
-0.000155326
-0.000151643
-0.000147936
-0.000144228
-0.000140523
-0.000136841
-0.000133182
-0.000129563
-0.000125983
-0.000122457
-0.00011898
-0.000115567
-0.000112211
-0.000108925
-0.0001057
-0.000102551
-9.94647e-05
-9.64572e-05
-9.35132e-05
-9.06488e-05
-8.78473e-05
-8.51252e-05
-8.24636e-05
-7.98805e-05
-7.73545e-05
-7.49048e-05
-7.25083e-05
-7.01849e-05
-6.79099e-05
-6.57044e-05
-6.35414e-05
-6.14437e-05
-5.9382e-05
-5.73807e-05
-5.54082e-05
-5.34903e-05
-5.15936e-05
-4.97446e-05
-4.79089e-05
-4.61127e-05
-4.43209e-05
-4.25603e-05
-4.07936e-05
-3.90491e-05
-3.7287e-05
-3.55364e-05
-3.37565e-05
-3.19754e-05
-3.01524e-05
-2.83144e-05
-2.64207e-05
-2.44971e-05
-2.25034e-05
-2.04643e-05
-1.83418e-05
-1.61598e-05
-1.38848e-05
-1.15416e-05
-9.10392e-06
-6.59872e-06
-4.00863e-06
-1.36323e-06
0.000531717
0.000499822
0.000460682
0.0004144
0.00036198
0.000305128
0.000246029
0.000187078
0.000130589
7.84885e-05
3.20996e-05
-7.96277e-06
-4.17263e-05
-6.96939e-05
-9.26187e-05
-0.000111318
-0.000126544
-0.000138931
-0.000148978
-0.000157068
-0.000163484
-0.000168447
-0.000172132
-0.000174696
-0.00017628
-0.000177019
-0.000177031
-0.000176426
-0.000175294
-0.000173717
-0.000171759
-0.000169481
-0.000166932
-0.000164161
-0.000161203
-0.000158097
-0.000154871
-0.000151555
-0.000148167
-0.000144733
-0.000141266
-0.000137786
-0.0001343
-0.000130826
-0.000127369
-0.000123943
-0.000120549
-0.000117201
-0.000113897
-0.000110649
-0.000107452
-0.00010432
-0.000101244
-9.82373e-05
-9.52907e-05
-9.24155e-05
-8.96019e-05
-8.68609e-05
-8.41813e-05
-8.15742e-05
-7.90268e-05
-7.65511e-05
-7.41322e-05
-7.17827e-05
-6.94869e-05
-6.72573e-05
-6.50771e-05
-6.29593e-05
-6.08859e-05
-5.88706e-05
-5.68938e-05
-5.49702e-05
-5.30785e-05
-5.12341e-05
-4.94148e-05
-4.76357e-05
-4.58747e-05
-4.41457e-05
-4.24265e-05
-4.07312e-05
-3.90359e-05
-3.73556e-05
-3.56646e-05
-3.39781e-05
-3.22701e-05
-3.05542e-05
-2.88053e-05
-2.70353e-05
-2.52193e-05
-2.33684e-05
-2.14582e-05
-1.94993e-05
-1.74688e-05
-1.53774e-05
-1.32059e-05
-1.09666e-05
-8.64583e-06
-6.25884e-06
-3.79917e-06
-1.28534e-06
0.00048706
0.000458158
0.000423245
0.000382463
0.00033663
0.000287079
0.000235496
0.000183734
0.000133615
8.67191e-05
4.42207e-05
6.7873e-06
-2.5413e-05
-5.26231e-05
-7.53458e-05
-9.41969e-05
-0.000109784
-0.000122645
-0.00013322
-0.000141856
-0.000148822
-0.00015433
-0.000158553
-0.000161645
-0.000163744
-0.000164978
-0.000165464
-0.000165309
-0.000164606
-0.000163434
-0.000161862
-0.000159952
-0.000157753
-0.000155314
-0.000152672
-0.000149868
-0.000146929
-0.000143887
-0.000140762
-0.000137579
-0.000134352
-0.000131102
-0.000127838
-0.000124577
-0.000121325
-0.000118095
-0.000114892
-0.000111727
-0.0001086
-0.000105522
-0.000102491
-9.95164e-05
-9.65954e-05
-9.37363e-05
-9.09341e-05
-8.81968e-05
-8.55183e-05
-8.29062e-05
-8.03531e-05
-7.78665e-05
-7.54378e-05
-7.30746e-05
-7.07672e-05
-6.85232e-05
-6.6332e-05
-6.42013e-05
-6.21197e-05
-6.00947e-05
-5.81145e-05
-5.61866e-05
-5.4298e-05
-5.24569e-05
-5.06492e-05
-4.88831e-05
-4.71442e-05
-4.544e-05
-4.37564e-05
-4.20995e-05
-4.04556e-05
-3.88306e-05
-3.72091e-05
-3.55981e-05
-3.39806e-05
-3.23635e-05
-3.07298e-05
-2.90846e-05
-2.74121e-05
-2.57158e-05
-2.39799e-05
-2.22077e-05
-2.03834e-05
-1.85105e-05
-1.65744e-05
-1.45793e-05
-1.25135e-05
-1.03831e-05
-8.18088e-06
-5.91673e-06
-3.58892e-06
-1.21079e-06
0.000445261
0.00041919
0.000388114
0.000352189
0.000312079
0.000268832
0.000223763
0.000178324
0.000133956
9.19437e-05
5.3298e-05
1.8671e-05
-1.16618e-05
-3.77611e-05
-5.99302e-05
-7.86082e-05
-9.42683e-05
-0.000107355
-0.000118245
-0.000127251
-0.000134618
-0.000140547
-0.000145205
-0.000148737
-0.000151274
-0.000152942
-0.000153851
-0.000154105
-0.000153795
-0.000153001
-0.000151792
-0.00015023
-0.000148365
-0.000146246
-0.000143912
-0.000141402
-0.000138746
-0.000135975
-0.00013311
-0.000130177
-0.000127192
-0.000124173
-0.000121133
-0.000118087
-0.000115044
-0.000112015
-0.000109007
-0.000106029
-0.000103083
-0.00010018
-9.73196e-05
-9.4509e-05
-9.17475e-05
-8.90414e-05
-8.63887e-05
-8.37948e-05
-8.12565e-05
-7.87786e-05
-7.6357e-05
-7.39962e-05
-7.16909e-05
-6.94457e-05
-6.72542e-05
-6.51209e-05
-6.30388e-05
-6.1012e-05
-5.90332e-05
-5.71061e-05
-5.52229e-05
-5.33872e-05
-5.15907e-05
-4.9837e-05
-4.81168e-05
-4.64339e-05
-4.47787e-05
-4.31541e-05
-4.15511e-05
-3.99712e-05
-3.84056e-05
-3.68557e-05
-3.53111e-05
-3.37743e-05
-3.22334e-05
-3.06905e-05
-2.91342e-05
-2.75648e-05
-2.59718e-05
-2.43544e-05
-2.27017e-05
-2.10135e-05
-1.92784e-05
-1.74968e-05
-1.56584e-05
-1.37645e-05
-1.18072e-05
-9.79018e-06
-7.70905e-06
-5.57138e-06
-3.37725e-06
-1.13744e-06
0.000405883
0.00038248
0.000354923
0.000323354
0.000288272
0.000250505
0.000211103
0.000171226
0.000132023
9.45397e-05
5.96292e-05
2.78904e-05
-3.56983e-07
-2.50581e-05
-4.63685e-05
-6.4581e-05
-8.0048e-05
-9.31235e-05
-0.000104125
-0.000113324
-0.000120942
-0.000127163
-0.000132143
-0.00013602
-0.000138916
-0.000140949
-0.000142224
-0.00014284
-0.000142884
-0.000142435
-0.000141562
-0.000140325
-0.000138776
-0.000136963
-0.000134925
-0.000132701
-0.000130321
-0.000127816
-0.00012521
-0.000122525
-0.000119781
-0.000116995
-0.000114181
-0.000111353
-0.000108521
-0.000105697
-0.000102887
-0.0001001
-9.73415e-05
-9.46182e-05
-9.19327e-05
-8.9291e-05
-8.66939e-05
-8.41465e-05
-8.16483e-05
-7.92033e-05
-7.68102e-05
-7.44723e-05
-7.21871e-05
-6.99577e-05
-6.77807e-05
-6.56589e-05
-6.3588e-05
-6.15707e-05
-5.96022e-05
-5.76846e-05
-5.5813e-05
-5.39887e-05
-5.22068e-05
-5.04684e-05
-4.87679e-05
-4.71064e-05
-4.54775e-05
-4.38826e-05
-4.23149e-05
-4.07747e-05
-3.92559e-05
-3.77578e-05
-3.62739e-05
-3.48039e-05
-3.33397e-05
-3.18817e-05
-3.04209e-05
-2.89571e-05
-2.74817e-05
-2.5993e-05
-2.4483e-05
-2.29495e-05
-2.13838e-05
-1.97845e-05
-1.81425e-05
-1.6457e-05
-1.47201e-05
-1.29318e-05
-1.10866e-05
-9.187e-06
-7.22996e-06
-5.22195e-06
-3.16358e-06
-1.06399e-06
0.000368597
0.000347599
0.000323336
0.000295741
0.000265127
0.000232169
0.000197733
0.00016276
0.000128185
9.48624e-05
6.351e-05
3.46579e-05
8.6293e-06
-1.44573e-05
-3.4656e-05
-5.21465e-05
-6.71782e-05
-8.00228e-05
-9.0939e-05
-0.000100157
-0.000107872
-0.000114251
-0.000119437
-0.000123556
-0.000126723
-0.000129046
-0.000130622
-0.000131546
-0.000131899
-0.000131758
-0.000131188
-0.000130251
-0.000128996
-0.00012747
-0.000125714
-0.000123765
-0.000121653
-0.000119409
-0.000117057
-0.000114619
-0.000112115
-0.000109562
-0.000106974
-0.000104367
-0.000101749
-9.91324e-05
-9.65244e-05
-9.3934e-05
-9.13661e-05
-8.88277e-05
-8.63221e-05
-8.38546e-05
-8.14272e-05
-7.9044e-05
-7.67056e-05
-7.44153e-05
-7.21727e-05
-6.99802e-05
-6.78368e-05
-6.57444e-05
-6.37009e-05
-6.17079e-05
-5.97628e-05
-5.78669e-05
-5.60169e-05
-5.42137e-05
-5.24539e-05
-5.07377e-05
-4.90616e-05
-4.74254e-05
-4.58252e-05
-4.42609e-05
-4.27276e-05
-4.12255e-05
-3.97493e-05
-3.82982e-05
-3.68676e-05
-3.54558e-05
-3.40578e-05
-3.26721e-05
-3.12923e-05
-2.99177e-05
-2.8541e-05
-2.71609e-05
-2.57705e-05
-2.4367e-05
-2.29443e-05
-2.14994e-05
-2.00249e-05
-1.85192e-05
-1.69746e-05
-1.53898e-05
-1.37586e-05
-1.20804e-05
-1.03511e-05
-8.57266e-06
-6.743e-06
-4.86768e-06
-2.9475e-06
-9.89877e-07
0.000325981
0.000307903
0.000287456
0.000264154
0.000238293
0.000210433
0.000181246
0.000151463
0.000121828
9.30283e-05
6.56494e-05
4.01421e-05
1.68086e-05
-4.19724e-06
-2.28528e-05
-3.92396e-05
-5.35087e-05
-6.58466e-05
-7.6447e-05
-8.54931e-05
-9.31489e-05
-9.95584e-05
-0.000104847
-0.000109129
-0.000112507
-0.000115077
-0.000116928
-0.000118145
-0.000118803
-0.000118975
-0.000118723
-0.000118104
-0.000117168
-0.000115959
-0.000114516
-0.000112877
-0.000111071
-0.000109126
-0.000107068
-0.000104919
-0.000102697
-0.000100419
-9.81015e-05
-9.57567e-05
-9.33958e-05
-9.10295e-05
-8.86658e-05
-8.63131e-05
-8.39769e-05
-8.16639e-05
-7.93779e-05
-7.71238e-05
-7.49043e-05
-7.27227e-05
-7.05808e-05
-6.84809e-05
-6.64238e-05
-6.44111e-05
-6.24427e-05
-6.05198e-05
-5.86414e-05
-5.68083e-05
-5.50189e-05
-5.32738e-05
-5.15707e-05
-4.99099e-05
-4.8289e-05
-4.67073e-05
-4.51628e-05
-4.36542e-05
-4.21788e-05
-4.07358e-05
-3.93216e-05
-3.79354e-05
-3.65732e-05
-3.52337e-05
-3.39132e-05
-3.26094e-05
-3.13186e-05
-3.00386e-05
-2.87644e-05
-2.74943e-05
-2.62228e-05
-2.49476e-05
-2.36634e-05
-2.23669e-05
-2.10532e-05
-1.97191e-05
-1.83586e-05
-1.69697e-05
-1.55463e-05
-1.40866e-05
-1.25863e-05
-1.10441e-05
-9.45734e-06
-7.82757e-06
-6.15355e-06
-4.4397e-06
-2.68718e-06
-9.01269e-07
0.000280222
0.000264815
0.000247467
0.000228344
0.000207395
0.0001848
0.000160983
0.000136506
0.000111963
8.79116e-05
6.4826e-05
4.30763e-05
2.29247e-05
4.52857e-06
-1.20481e-05
-2.68193e-05
-3.98572e-05
-5.1272e-05
-6.11923e-05
-6.97507e-05
-7.7074e-05
-8.3279e-05
-8.84712e-05
-9.27469e-05
-9.61947e-05
-9.88975e-05
-0.000100933
-0.000102373
-0.000103287
-0.000103738
-0.000103783
-0.000103475
-0.000102859
-0.000101977
-0.000100867
-9.95624e-05
-9.80917e-05
-9.64821e-05
-9.47568e-05
-9.2937e-05
-9.10413e-05
-8.9086e-05
-8.70855e-05
-8.50526e-05
-8.29982e-05
-8.09325e-05
-7.88634e-05
-7.67989e-05
-7.47449e-05
-7.27073e-05
-7.06905e-05
-6.86988e-05
-6.67355e-05
-6.48033e-05
-6.29046e-05
-6.10413e-05
-5.92147e-05
-5.74261e-05
-5.56759e-05
-5.39649e-05
-5.22928e-05
-5.06601e-05
-4.90658e-05
-4.75101e-05
-4.59915e-05
-4.45099e-05
-4.30636e-05
-4.16516e-05
-4.02726e-05
-3.89251e-05
-3.76072e-05
-3.63176e-05
-3.50537e-05
-3.38143e-05
-3.25964e-05
-3.13982e-05
-3.0217e-05
-2.90505e-05
-2.78954e-05
-2.67498e-05
-2.56093e-05
-2.44723e-05
-2.33341e-05
-2.21923e-05
-2.10429e-05
-1.98824e-05
-1.87068e-05
-1.75134e-05
-1.6297e-05
-1.50558e-05
-1.3785e-05
-1.24828e-05
-1.11461e-05
-9.77377e-06
-8.364e-06
-6.91807e-06
-5.43541e-06
-3.91947e-06
-2.37139e-06
-7.949e-07
0.000231674
0.000219491
0.000206356
0.000191683
0.000175364
0.000157556
0.000138603
0.000118963
9.91275e-05
7.95544e-05
6.0628e-05
4.2646e-05
2.58216e-05
1.02914e-05
-3.87277e-06
-1.66529e-05
-2.80733e-05
-3.81894e-05
-4.70772e-05
-5.48237e-05
-6.15189e-05
-6.72513e-05
-7.21043e-05
-7.61562e-05
-7.94801e-05
-8.21449e-05
-8.42152e-05
-8.5752e-05
-8.68132e-05
-8.74527e-05
-8.77203e-05
-8.76616e-05
-8.73178e-05
-8.67264e-05
-8.59207e-05
-8.49312e-05
-8.37842e-05
-8.2504e-05
-8.1112e-05
-7.96277e-05
-7.80679e-05
-7.64478e-05
-7.47807e-05
-7.30785e-05
-7.13515e-05
-6.96091e-05
-6.78588e-05
-6.61079e-05
-6.4362e-05
-6.26269e-05
-6.09065e-05
-5.9205e-05
-5.75255e-05
-5.58707e-05
-5.42429e-05
-5.26439e-05
-5.10751e-05
-4.95378e-05
-4.80324e-05
-4.65599e-05
-4.512e-05
-4.37134e-05
-4.23391e-05
-4.09976e-05
-3.96875e-05
-3.84088e-05
-3.71602e-05
-3.59409e-05
-3.47496e-05
-3.35852e-05
-3.24461e-05
-3.13312e-05
-3.02382e-05
-2.91661e-05
-2.81124e-05
-2.70756e-05
-2.60532e-05
-2.50434e-05
-2.40433e-05
-2.30512e-05
-2.20636e-05