/*--------------------------------*- C++ -*----------------------------------*\
| =========                 |                                                 |
| \\      /  F ield         | OpenFOAM: The Open Source CFD Toolbox           |
|  \\    /   O peration     | Version:  2.3.0                                 |
|   \\  /    A nd           | Web:      www.OpenFOAM.org                      |
|    \\/     M anipulation  |                                                 |
\*---------------------------------------------------------------------------*/
FoamFile
{
    version     2.0;
    format      ascii;
    class       volVectorField;
    location    "1";
    object      U;
}
// * * * * * * * * * * * * * * * * * * * * * * * * * * * * * * * * * * * * * //

dimensions      [0 1 -1 0 0 0 0];

internalField   nonuniform List<vector> 
2945
(
(0.160581 0.00676898 0)
(0.120788 0.00652992 0)
(0.0888297 0.00433669 0)
(0.0665465 0.00264912 0)
(0.0523723 0.00102295 0)
(0.0433527 0.000264481 0)
(0.0380373 0.000104077 0)
(0.0347265 7.12748e-05 0)
(0.032368 7.36078e-05 0)
(0.0305235 8.16488e-05 0)
(0.0289498 8.03474e-05 0)
(0.0275683 7.63985e-05 0)
(0.0263276 7.13922e-05 0)
(0.0252134 6.17927e-05 0)
(0.0242179 5.60981e-05 0)
(0.0233143 5.19195e-05 0)
(0.0225019 4.35637e-05 0)
(0.0217808 3.76649e-05 0)
(0.0211203 3.6261e-05 0)
(0.0204967 3.46383e-05 0)
(0.0199182 3.06048e-05 0)
(0.0193855 2.79933e-05 0)
(0.0188855 2.71273e-05 0)
(0.0184155 2.48458e-05 0)
(0.0179744 2.3548e-05 0)
(0.017554 2.2922e-05 0)
(0.0171619 1.96339e-05 0)
(0.0168033 1.73446e-05 0)
(0.0164658 1.70698e-05 0)
(0.0161395 1.65024e-05 0)
(0.0158248 1.61488e-05 0)
(0.0155226 1.53733e-05 0)
(0.015237 1.39097e-05 0)
(0.0149683 1.29518e-05 0)
(0.0147139 1.20598e-05 0)
(0.0144687 1.17324e-05 0)
(0.0142335 1.10692e-05 0)
(0.0140102 1.00989e-05 0)
(0.0137953 1.00623e-05 0)
(0.0135816 1.06314e-05 0)
(0.013375 9.5916e-06 0)
(0.0131825 8.30454e-06 0)
(0.0130004 8.12797e-06 0)
(0.012822 7.99641e-06 0)
(0.0126506 7.39652e-06 0)
(0.0124825 7.61955e-06 0)
(0.012318 7.32705e-06 0)
(0.01216 6.62168e-06 0)
(0.0120113 6.06109e-06 0)
(0.011865 6.29381e-06 0)
(0.0117209 6.17371e-06 0)
(0.0115779 6.20311e-06 0)
(0.0114414 5.60115e-06 0)
(0.0113098 5.28175e-06 0)
(0.0111835 5.08414e-06 0)
(0.0110563 5.37687e-06 0)
(0.0109345 4.72889e-06 0)
(0.0108147 4.81814e-06 0)
(0.0106981 4.70729e-06 0)
(0.0105827 4.49348e-06 0)
(0.0104735 4.09951e-06 0)
(0.0103626 4.52525e-06 0)
(0.0102567 3.86614e-06 0)
(0.0101503 4.22106e-06 0)
(0.0100477 3.82113e-06 0)
(0.00994458 3.99349e-06 0)
(0.00984554 3.54803e-06 0)
(0.00974717 3.85593e-06 0)
(0.00964711 3.5697e-06 0)
(0.00955715 3.39727e-06 0)
(0.00944944 3.90275e-06 0)
(0.00937941 2.3551e-06 0)
(0.00924412 5.30322e-06 0)
(0.00922286 -9.13681e-07 0)
(0.0090573 8.01742e-06 0)
(0.192008 0.0118233 0)
(0.18409 0.0148231 0)
(0.171689 0.0116054 0)
(0.156473 0.00891493 0)
(0.141672 0.00657633 0)
(0.127956 0.0041292 0)
(0.116241 0.00243799 0)
(0.10698 0.00153933 0)
(0.0994444 0.00114337 0)
(0.0932918 0.000944373 0)
(0.0882052 0.00079774 0)
(0.0838887 0.000698452 0)
(0.0801149 0.000626029 0)
(0.0767482 0.000550522 0)
(0.0737306 0.000492176 0)
(0.0710165 0.000444371 0)
(0.068571 0.000389886 0)
(0.0663578 0.00034782 0)
(0.0643253 0.000323186 0)
(0.0624312 0.000300794 0)
(0.060674 0.000272859 0)
(0.0590413 0.00025113 0)
(0.0575128 0.00023588 0)
(0.0560824 0.000217436 0)
(0.0547397 0.000203435 0)
(0.0534731 0.000192429 0)
(0.0522877 0.000174076 0)
(0.0511796 0.000159889 0)
(0.0501324 0.000152656 0)
(0.0491294 0.000145185 0)
(0.0481697 0.000138543 0)
(0.0472555 0.000130885 0)
(0.0463884 0.000121586 0)
(0.0455654 0.0001143 0)
(0.0447823 0.00010772 0)
(0.0440279 0.000103326 0)
(0.0433054 9.77776e-05 0)
(0.0426149 9.17813e-05 0)
(0.0419493 8.8856e-05 0)
(0.0413012 8.7608e-05 0)
(0.0406809 8.14537e-05 0)
(0.0400913 7.5176e-05 0)
(0.0395266 7.24839e-05 0)
(0.0389777 7.00659e-05 0)
(0.0384489 6.62978e-05 0)
(0.0379332 6.52575e-05 0)
(0.037434 6.24768e-05 0)
(0.0369513 5.87653e-05 0)
(0.0364893 5.55609e-05 0)
(0.0360364 5.50084e-05 0)
(0.0355956 5.31698e-05 0)
(0.035163 5.19465e-05 0)
(0.0347487 4.86586e-05 0)
(0.0343453 4.67471e-05 0)
(0.0339554 4.50525e-05 0)
(0.0335685 4.49946e-05 0)
(0.0331974 4.18387e-05 0)
(0.032831 4.14314e-05 0)
(0.0324769 3.99873e-05 0)
(0.0321271 3.8647e-05 0)
(0.0317917 3.65979e-05 0)
(0.0314554 3.7323e-05 0)
(0.0311335 3.43716e-05 0)
(0.0308107 3.50992e-05 0)
(0.0305009 3.29357e-05 0)
(0.0301898 3.32049e-05 0)
(0.0298901 3.09806e-05 0)
(0.029593 3.17604e-05 0)
(0.0292946 3.00311e-05 0)
(0.0290198 2.94826e-05 0)
(0.0287049 3.02736e-05 0)
(0.0284791 2.52355e-05 0)
(0.028102 3.46341e-05 0)
(0.0279968 1.25965e-05 0)
(0.0275163 4.20286e-05 0)
(0.191803 0.0113006 0)
(0.194258 0.0126692 0)
(0.194543 0.0144046 0)
(0.191759 0.0124432 0)
(0.186545 0.00881316 0)
(0.178396 0.00738442 0)
(0.169578 0.00631121 0)
(0.161732 0.00494322 0)
(0.154425 0.0039161 0)
(0.147542 0.00319048 0)
(0.141186 0.00262329 0)
(0.135451 0.00222631 0)
(0.130285 0.00195359 0)
(0.125531 0.00172046 0)
(0.121132 0.0015355 0)
(0.1171 0.00137912 0)
(0.113415 0.0012237 0)
(0.110027 0.00110089 0)
(0.106885 0.00101543 0)
(0.103938 0.000939879 0)
(0.101178 0.000859118 0)
(0.0985936 0.000792869 0)
(0.0961633 0.000740073 0)
(0.0938766 0.000684031 0)
(0.091716 0.000638436 0)
(0.0896719 0.00059972 0)
(0.0877504 0.000550299 0)
(0.0859408 0.000510559 0)
(0.0842259 0.000484296 0)
(0.082583 0.000458819 0)
(0.081009 0.000435195 0)
(0.0795096 0.000410508 0)
(0.0780829 0.000384253 0)
(0.0767223 0.00036235 0)
(0.0754237 0.000342624 0)
(0.0741706 0.000327575 0)
(0.0729687 0.000310274 0)
(0.0718179 0.000293174 0)
(0.0707077 0.000281923 0)
(0.0696314 0.000273226 0)
(0.0686008 0.00025629 0)
(0.0676138 0.000240359 0)
(0.0666655 0.000230944 0)
(0.0657459 0.000222235 0)
(0.064858 0.000211469 0)
(0.0639936 0.000205788 0)
(0.0631578 0.000196943 0)
(0.0623474 0.000187082 0)
(0.0615679 0.000178239 0)
(0.060806 0.000174335 0)
(0.0600658 0.000167962 0)
(0.0593411 0.000162902 0)
(0.0586449 0.000154177 0)
(0.0579655 0.000148669 0)
(0.0573078 0.000143338 0)
(0.0566585 0.000141023 0)
(0.0560337 0.000133118 0)
(0.0554175 0.000130697 0)
(0.0548221 0.000125894 0)
(0.054235 0.000121937 0)
(0.0536689 0.000116581 0)
(0.0531054 0.000116377 0)
(0.052564 0.000109382 0)
(0.0520226 0.000109573 0)
(0.0515028 0.000103957 0)
(0.0509823 0.000103599 0)
(0.0504799 9.80063e-05 0)
(0.0499824 9.8777e-05 0)
(0.0494863 9.39936e-05 0)
(0.049022 9.29244e-05 0)
(0.0485077 9.23573e-05 0)
(0.0481122 8.37551e-05 0)
(0.0475154 9.82916e-05 0)
(0.0472939 5.97659e-05 0)
(0.0465085 0.000107812 0)
(0.192225 0.00863713 0)
(0.194463 0.0152161 0)
(0.197296 0.00982433 0)
(0.199885 0.0122781 0)
(0.200084 0.0113257 0)
(0.197946 0.00859177 0)
(0.194282 0.00691194 0)
(0.190335 0.00590115 0)
(0.186185 0.00538211 0)
(0.181718 0.00495855 0)
(0.177001 0.00443179 0)
(0.172368 0.0039213 0)
(0.167975 0.00351641 0)
(0.163701 0.00315977 0)
(0.159492 0.00286559 0)
(0.155422 0.00260283 0)
(0.151552 0.0023385 0)
(0.147897 0.00212469 0)
(0.144429 0.00196923 0)
(0.141097 0.0018317 0)
(0.1379 0.0016873 0)
(0.134853 0.00156506 0)
(0.131949 0.00146434 0)
(0.129179 0.00136094 0)
(0.126517 0.00127466 0)
(0.123961 0.00119809 0)
(0.121535 0.00110619 0)
(0.119236 0.00103108 0)
(0.117046 0.000978039 0)
(0.114933 0.000927588 0)
(0.11289 0.000879897 0)
(0.110931 0.000830446 0)
(0.109061 0.00078018 0)
(0.10727 0.000737693 0)
(0.105553 0.000699381 0)
(0.103887 0.000668722 0)
(0.102281 0.000634376 0)
(0.100738 0.000601063 0)
(0.0992441 0.000577056 0)
(0.0977928 0.000556653 0)
(0.096399 0.000524462 0)
(0.0950596 0.000494751 0)
(0.093769 0.000475077 0)
(0.0925159 0.00045674 0)
(0.0913017 0.000435688 0)
(0.0901183 0.00042241 0)
(0.088973 0.000404574 0)
(0.0878606 0.000385732 0)
(0.0867869 0.000368542 0)
(0.0857376 0.000358938 0)
(0.0847167 0.000345689 0)
(0.0837169 0.000334529 0)
(0.0827537 0.000318065 0)
(0.0818132 0.000306933 0)
(0.0809006 0.000296037 0)
(0.0800014 0.000289733 0)
(0.0791332 0.000275178 0)
(0.0782778 0.000269106 0)
(0.0774498 0.00025932 0)
(0.0766344 0.000251213 0)
(0.0758453 0.000241041 0)
(0.0750627 0.000238638 0)
(0.0743083 0.000226146 0)
(0.0735559 0.000224669 0)
(0.0728318 0.000214274 0)
(0.0721087 0.000212307 0)
(0.0714091 0.000202057 0)
(0.0707169 0.000202079 0)
(0.0700301 0.000192941 0)
(0.0693785 0.000190932 0)
(0.068677 0.000187402 0)
(0.0681067 0.000175865 0)
(0.0673112 0.000192309 0)
(0.0669582 0.000142689 0)
(0.065882 0.000199327 0)
(0.193024 0.00851623 0)
(0.194957 0.0110143 0)
(0.197731 0.01305 0)
(0.199866 0.0108395 0)
(0.200996 0.0116344 0)
(0.202191 0.00890411 0)
(0.201816 0.00814821 0)
(0.200544 0.00704396 0)
(0.199029 0.00633261 0)
(0.197171 0.00583254 0)
(0.194777 0.00533827 0)
(0.192177 0.00486734 0)
(0.189615 0.00451198 0)
(0.186974 0.00419883 0)
(0.184165 0.00393487 0)
(0.181227 0.00366624 0)
(0.178239 0.00335812 0)
(0.175299 0.00309793 0)
(0.172439 0.00290982 0)
(0.169598 0.00274453 0)
(0.166757 0.0025619 0)
(0.163959 0.00239986 0)
(0.161232 0.00226293 0)
(0.158577 0.00212262 0)
(0.155961 0.00200698 0)
(0.153374 0.00189986 0)
(0.150857 0.00176525 0)
(0.148446 0.00165246 0)
(0.146137 0.00157207 0)
(0.143886 0.00149785 0)
(0.141668 0.00142772 0)
(0.139506 0.00135186 0)
(0.137421 0.00127365 0)
(0.135417 0.00120746 0)
(0.133486 0.00114886 0)
(0.131598 0.00110159 0)
(0.12976 0.00104823 0)
(0.127978 0.000996313 0)
(0.126241 0.000957695 0)
(0.12454 0.000923452 0)
(0.122895 0.000872802 0)
(0.12131 0.000826159 0)
(0.119779 0.000793964 0)
(0.118288 0.000764067 0)
(0.116833 0.000730745 0)
(0.115408 0.000707843 0)
(0.114025 0.000678683 0)
(0.112679 0.000648628 0)
(0.111375 0.000621103 0)
(0.110098 0.000604213 0)
(0.108851 0.000582413 0)
(0.107625 0.000563361 0)
(0.10644 0.000537164 0)
(0.105283 0.000518712 0)
(0.104157 0.000500738 0)
(0.103046 0.000489066 0)
(0.101969 0.000466205 0)
(0.100907 0.000455089 0)
(0.0998771 0.000438924 0)
(0.0988626 0.00042527 0)
(0.0978773 0.000408955 0)
(0.0969013 0.000403204 0)
(0.0959577 0.000383864 0)
(0.0950175 0.000379736 0)
(0.0941099 0.0003633 0)
(0.0932052 0.000358801 0)
(0.0923277 0.000342713 0)
(0.0914588 0.000341226 0)
(0.0905999 0.000326568 0)
(0.0897761 0.000323106 0)
(0.0889074 0.000315086 0)
(0.088172 0.000301526 0)
(0.0872015 0.00031592 0)
(0.0867206 0.000262122 0)
(0.0853779 0.000317179 0)
(0.193472 0.00886519 0)
(0.195263 0.0108167 0)
(0.197862 0.0123724 0)
(0.199736 0.009279 0)
(0.200751 0.0113975 0)
(0.202412 0.00902398 0)
(0.202724 0.00731032 0)
(0.202531 0.00696064 0)
(0.202419 0.00660646 0)
(0.202046 0.00632661 0)
(0.201127 0.00595991 0)
(0.199999 0.00548364 0)
(0.198937 0.00508913 0)
(0.197799 0.00477342 0)
(0.196467 0.00456717 0)
(0.194912 0.00435827 0)
(0.193159 0.00406345 0)
(0.191336 0.00379258 0)
(0.189529 0.00360026 0)
(0.187677 0.00344385 0)
(0.185723 0.00326382 0)
(0.183702 0.00309596 0)
(0.181668 0.00294949 0)
(0.179638 0.00279608 0)
(0.177581 0.0026779 0)
(0.175462 0.00256754 0)
(0.17331 0.00240787 0)
(0.171197 0.00226566 0)
(0.169162 0.00216453 0)
(0.167164 0.00207561 0)
(0.165152 0.00199558 0)
(0.163129 0.00190358 0)
(0.161131 0.00180145 0)
(0.159192 0.00171196 0)
(0.157319 0.00163464 0)
(0.155476 0.00157472 0)
(0.153657 0.00150605 0)
(0.15187 0.00143818 0)
(0.150107 0.00138777 0)
(0.148353 0.00134226 0)
(0.146633 0.00127322 0)
(0.144963 0.00120799 0)
(0.14335 0.00116237 0)
(0.141775 0.00112116 0)
(0.140225 0.00107638 0)
(0.138691 0.00104421 0)
(0.137189 0.00100281 0)
(0.135723 0.000960254 0)
(0.1343 0.000921549 0)
(0.132902 0.000897327 0)
(0.131524 0.000866876 0)
(0.130161 0.000839314 0)
(0.128836 0.000802065 0)
(0.127541 0.000775165 0)
(0.126278 0.000749414 0)
(0.125027 0.000731948 0)
(0.123807 0.000699838 0)
(0.122602 0.000682838 0)
(0.121427 0.000659419 0)
(0.120269 0.000639278 0)
(0.119139 0.000615952 0)
(0.118019 0.000606103 0)
(0.116933 0.000578861 0)
(0.115849 0.000571487 0)
(0.1148 0.000548021 0)
(0.113754 0.000540323 0)
(0.112736 0.000517458 0)
(0.111726 0.00051394 0)
(0.11073 0.000492753 0)
(0.109766 0.000487584 0)
(0.108764 0.000473439 0)
(0.10789 0.000459427 0)
(0.106779 0.0004674 0)
(0.106189 0.000416319 0)
(0.104624 0.000461109 0)
(0.193849 0.00732009 0)
(0.195479 0.00986573 0)
(0.197954 0.01115 0)
(0.19979 0.0097204 0)
(0.200699 0.0103899 0)
(0.20189 0.00922187 0)
(0.202528 0.0072269 0)
(0.202622 0.00654421 0)
(0.202884 0.00644984 0)
(0.20292 0.00635604 0)
(0.202587 0.00600856 0)
(0.202159 0.00555927 0)
(0.201873 0.00521448 0)
(0.201557 0.00493789 0)
(0.201117 0.00479357 0)
(0.200502 0.00466315 0)
(0.199687 0.0044145 0)
(0.198784 0.00415945 0)
(0.197897 0.00398185 0)
(0.196971 0.00385332 0)
(0.195924 0.00369903 0)
(0.194773 0.00354814 0)
(0.193565 0.00341101 0)
(0.192322 0.0032624 0)
(0.191027 0.00316339 0)
(0.189626 0.00307872 0)
(0.188109 0.00292144 0)
(0.186557 0.00276546 0)
(0.185049 0.00265201 0)
(0.183568 0.00255838 0)
(0.182051 0.0024854 0)
(0.180465 0.00239647 0)
(0.178829 0.00228467 0)
(0.177204 0.00217833 0)
(0.175627 0.00208553 0)
(0.174072 0.00201802 0)
(0.172522 0.00194137 0)
(0.170978 0.00186551 0)
(0.169426 0.00181109 0)
(0.167848 0.00176287 0)
(0.166259 0.00168167 0)
(0.164689 0.00159947 0)
(0.163169 0.00154046 0)
(0.161689 0.00148925 0)
(0.160225 0.00143674 0)
(0.158753 0.00139964 0)
(0.157287 0.00134824 0)
(0.155842 0.00129329 0)
(0.154439 0.00124339 0)
(0.153058 0.00121342 0)
(0.151686 0.00117675 0)
(0.150309 0.00114247 0)
(0.148957 0.00109437 0)
(0.14763 0.00105857 0)
(0.146335 0.00102512 0)
(0.145047 0.00100278 0)
(0.143781 0.000961979 0)
(0.142523 0.000939359 0)
(0.141289 0.000908733 0)
(0.140068 0.000881936 0)
(0.138872 0.000851552 0)
(0.137682 0.000837601 0)
(0.136523 0.000802042 0)
(0.135364 0.00079145 0)
(0.134236 0.000760565 0)
(0.13311 0.000749499 0)
(0.13201 0.000719402 0)
(0.130916 0.000713869 0)
(0.129835 0.000685408 0)
(0.128781 0.000678903 0)
(0.127695 0.000656877 0)
(0.126729 0.000644873 0)
(0.125526 0.000642039 0)
(0.12486 0.000599931 0)
(0.123142 0.000627852 0)
(0.194571 0.00701757 0)
(0.195758 0.00918837 0)
(0.197915 0.010186 0)
(0.19967 0.00978462 0)
(0.200672 0.00938931 0)
(0.20166 0.00918822 0)
(0.202232 0.00726656 0)
(0.202398 0.00645088 0)
(0.202715 0.00640332 0)
(0.202854 0.0062867 0)
(0.202722 0.00616717 0)
(0.202601 0.00553783 0)
(0.202525 0.00524444 0)
(0.202431 0.00498845 0)
(0.202347 0.00485444 0)
(0.202177 0.00477082 0)
(0.201856 0.00455706 0)
(0.201475 0.0043122 0)
(0.201128 0.00413637 0)
(0.200775 0.00403047 0)
(0.200333 0.00390524 0)
(0.19981 0.00377823 0)
(0.199244 0.00365505 0)
(0.198641 0.00351638 0)
(0.197993 0.00344097 0)
(0.197244 0.00339368 0)
(0.196352 0.00326178 0)
(0.195386 0.00310776 0)
(0.194441 0.00298517 0)
(0.193524 0.00288725 0)
(0.192579 0.00283203 0)
(0.191546 0.00276495 0)
(0.19041 0.00266166 0)
(0.189231 0.00254939 0)
(0.188076 0.0024461 0)
(0.186937 0.0023739 0)
(0.185799 0.00229358 0)
(0.184656 0.00221803 0)
(0.183487 0.00216912 0)
(0.182262 0.00212967 0)
(0.18098 0.00204851 0)
(0.179671 0.00195618 0)
(0.178388 0.00188527 0)
(0.177147 0.00182465 0)
(0.175923 0.00176836 0)
(0.174675 0.00173328 0)
(0.173401 0.00167838 0)
(0.172119 0.00161409 0)
(0.170868 0.00155339 0)
(0.169641 0.00151924 0)
(0.168415 0.00148045 0)
(0.167164 0.00144433 0)
(0.165911 0.00138852 0)
(0.164668 0.00134468 0)
(0.163453 0.00130388 0)
(0.162243 0.0012783 0)
(0.161045 0.00123098 0)
(0.159842 0.00120466 0)
(0.158653 0.0011683 0)
(0.157467 0.00113572 0)
(0.156298 0.00109922 0)
(0.155129 0.0010821 0)
(0.153984 0.00103875 0)
(0.152834 0.00102577 0)
(0.151707 0.000987904 0)
(0.150579 0.000973985 0)
(0.149473 0.000936861 0)
(0.148366 0.000930166 0)
(0.14727 0.000894144 0)
(0.146192 0.000887466 0)
(0.145086 0.000855934 0)
(0.144088 0.000849089 0)
(0.14286 0.000831855 0)
(0.142162 0.000803458 0)
(0.140385 0.000810827 0)
(0.195173 0.00680357 0)
(0.196091 0.00858725 0)
(0.197885 0.00961107 0)
(0.199485 0.00936785 0)
(0.200623 0.00874397 0)
(0.201547 0.00948739 0)
(0.202036 0.007233 0)
(0.202175 0.00610759 0)
(0.202471 0.00621916 0)
(0.202657 0.00633603 0)
(0.202645 0.00616781 0)
(0.202643 0.00567005 0)
(0.202577 0.00529246 0)
(0.202501 0.00495898 0)
(0.20251 0.00487932 0)
(0.20247 0.00483738 0)
(0.202337 0.00461563 0)
(0.202193 0.00438255 0)
(0.202093 0.00418607 0)
(0.201993 0.00408812 0)
(0.201832 0.00398002 0)
(0.201629 0.00387206 0)
(0.20142 0.00375671 0)
(0.201195 0.00362484 0)
(0.200943 0.00357217 0)
(0.200619 0.00354856 0)
(0.200165 0.00344432 0)
(0.199638 0.00330824 0)
(0.19913 0.00318207 0)
(0.198656 0.00307139 0)
(0.198178 0.00302952 0)
(0.197624 0.00299226 0)
(0.196952 0.00291206 0)
(0.196209 0.00280477 0)
(0.195467 0.00269611 0)
(0.194737 0.0026205 0)
(0.194014 0.00253575 0)
(0.193294 0.00246295 0)
(0.192548 0.00242548 0)
(0.19174 0.00240364 0)
(0.190848 0.00233535 0)
(0.189886 0.00224437 0)
(0.188919 0.00216547 0)
(0.187986 0.0020943 0)
(0.187079 0.0020358 0)
(0.18615 0.00200869 0)
(0.185174 0.00195844 0)
(0.184157 0.00189108 0)
(0.183152 0.00182144 0)
(0.182173 0.00178353 0)
(0.181196 0.00174562 0)
(0.180183 0.00171362 0)
(0.179141 0.00165635 0)
(0.178085 0.00160784 0)
(0.177042 0.00156063 0)
(0.176007 0.00153298 0)
(0.174976 0.00148164 0)
(0.173932 0.00145467 0)
(0.172886 0.00141567 0)
(0.171832 0.0013795 0)
(0.170783 0.00133882 0)
(0.169725 0.00132024 0)
(0.168682 0.00127056 0)
(0.167628 0.00125679 0)
(0.166588 0.00121328 0)
(0.165538 0.00119771 0)
(0.164506 0.00115436 0)
(0.163467 0.00114822 0)
(0.162431 0.00110513 0)
(0.161403 0.00110015 0)
(0.160349 0.00105805 0)
(0.159388 0.00105956 0)
(0.158207 0.00102624 0)
(0.157526 0.00101379 0)
(0.155799 0.00100028 0)
(0.195635 0.00648149 0)
(0.196408 0.00817706 0)
(0.197933 0.00897152 0)
(0.199365 0.00883359 0)
(0.200526 0.00863675 0)
(0.201431 0.00914387 0)
(0.201874 0.00726047 0)
(0.202058 0.00599778 0)
(0.202319 0.00609856 0)
(0.202427 0.00632952 0)
(0.202486 0.00608744 0)
(0.202559 0.00568753 0)
(0.202518 0.00532612 0)
(0.202464 0.00499286 0)
(0.202482 0.00487209 0)
(0.202442 0.00482817 0)
(0.20236 0.00469106 0)
(0.202333 0.00435982 0)
(0.202314 0.00419743 0)
(0.202285 0.00411511 0)
(0.202214 0.00400981 0)
(0.202127 0.00390037 0)
(0.20206 0.00378072 0)
(0.202001 0.00365478 0)
(0.201933 0.00362133 0)
(0.201814 0.00363255 0)
(0.201593 0.00352737 0)
(0.201322 0.0033979 0)
(0.201079 0.00327729 0)
(0.200872 0.00315743 0)
(0.200683 0.0031231 0)
(0.200441 0.00310989 0)
(0.200096 0.00305477 0)
(0.199679 0.00295838 0)
(0.199258 0.00284862 0)
(0.198841 0.00276983 0)
(0.198437 0.00267872 0)
(0.198052 0.00260532 0)
(0.197656 0.00257767 0)
(0.19721 0.00257685 0)
(0.19668 0.00252839 0)
(0.19606 0.00244917 0)
(0.195407 0.00237033 0)
(0.194777 0.00228741 0)
(0.19418 0.00222366 0)
(0.193574 0.0022069 0)
(0.192917 0.00216831 0)
(0.192199 0.00210431 0)
(0.191472 0.00202842 0)
(0.190772 0.00198669 0)
(0.190082 0.00195031 0)
(0.189359 0.00192632 0)
(0.188591 0.00187445 0)
(0.187783 0.00182687 0)
(0.18697 0.00177551 0)
(0.186162 0.00174659 0)
(0.185357 0.00169273 0)
(0.184538 0.00166744 0)
(0.183708 0.00162934 0)
(0.182858 0.00159288 0)
(0.181998 0.00155093 0)
(0.181122 0.00153302 0)
(0.180249 0.00147901 0)
(0.179361 0.00146643 0)
(0.178478 0.00141929 0)
(0.177578 0.00140373 0)
(0.176688 0.00135537 0)
(0.175786 0.00135185 0)
(0.17488 0.00130306 0)
(0.173971 0.00130213 0)
(0.173034 0.00124949 0)
(0.172174 0.00126157 0)
(0.171111 0.00121333 0)
(0.170493 0.00121612 0)
(0.168923 0.00118443 0)
(0.196026 0.00627036 0)
(0.196726 0.00773596 0)
(0.198068 0.00847451 0)
(0.199313 0.00833879 0)
(0.200372 0.00839221 0)
(0.201286 0.00875916 0)
(0.201744 0.00719327 0)
(0.201941 0.00614027 0)
(0.202216 0.00590686 0)
(0.202222 0.00617278 0)
(0.202312 0.00609261 0)
(0.202442 0.00563951 0)
(0.202427 0.00534974 0)
(0.202405 0.00497514 0)
(0.202409 0.00486672 0)
(0.202362 0.00495601 0)
(0.202336 0.00456676 0)
(0.202347 0.00439801 0)
(0.202332 0.00421254 0)
(0.202312 0.00413246 0)
(0.202268 0.00402362 0)
(0.202211 0.00390654 0)
(0.202173 0.00380474 0)
(0.202162 0.00365633 0)
(0.202166 0.00361241 0)
(0.202123 0.0036656 0)
(0.20199 0.00360433 0)
(0.201845 0.0034678 0)
(0.201742 0.00331505 0)
(0.201664 0.00317366 0)
(0.201609 0.00315004 0)
(0.201521 0.00315914 0)
(0.201353 0.00312601 0)
(0.201137 0.00303878 0)
(0.200922 0.00293194 0)
(0.200702 0.00284798 0)
(0.200491 0.00275089 0)
(0.200315 0.00267762 0)
(0.200144 0.00265081 0)
(0.199943 0.00266725 0)
(0.199678 0.00264123 0)
(0.199327 0.00257609 0)
(0.198929 0.00250296 0)
(0.198544 0.00241331 0)
(0.198193 0.00234124 0)
(0.197847 0.00232969 0)
(0.197454 0.00230643 0)
(0.196997 0.00225245 0)
(0.196524 0.0021719 0)
(0.196078 0.00212452 0)
(0.195649 0.00208815 0)
(0.195198 0.00207304 0)
(0.194702 0.00203159 0)
(0.194152 0.00199081 0)
(0.193578 0.00193839 0)
(0.193003 0.00190894 0)
(0.192434 0.00185316 0)
(0.191854 0.00183015 0)
(0.191263 0.0017951 0)
(0.190646 0.00176126 0)
(0.190009 0.00172148 0)
(0.189348 0.00170653 0)
(0.18868 0.00165026 0)
(0.187996 0.00164044 0)
(0.187309 0.00159194 0)
(0.186601 0.00157806 0)
(0.185895 0.00152604 0)
(0.185177 0.00152692 0)
(0.184447 0.00147432 0)
(0.183705 0.00147943 0)
(0.182934 0.00141813 0)
(0.182221 0.00144111 0)
(0.181331 0.0013818 0)
(0.180809 0.00139673 0)
(0.179478 0.00135175 0)
(0.196399 0.00612393 0)
(0.197067 0.00722517 0)
(0.198224 0.00813379 0)
(0.199289 0.007732 0)
(0.200214 0.00806509 0)
(0.201108 0.00861009 0)
(0.201604 0.00719838 0)
(0.201807 0.00591236 0)
(0.202063 0.00606913 0)
(0.202088 0.00606967 0)
(0.202198 0.00599012 0)
(0.202329 0.00558966 0)
(0.202305 0.0053415 0)
(0.202324 0.00502181 0)
(0.202335 0.00487075 0)
(0.202308 0.00485928 0)
(0.202306 0.00461999 0)
(0.202303 0.00442524 0)
(0.202303 0.00421258 0)
(0.202297 0.00413907 0)
(0.202256 0.00402807 0)
(0.202194 0.00396615 0)
(0.202155 0.00376602 0)
(0.202153 0.00366262 0)
(0.202173 0.00365866 0)
(0.202145 0.00363752 0)
(0.202033 0.00363375 0)
(0.201958 0.00346817 0)
(0.201919 0.00334158 0)
(0.201886 0.0032002 0)
(0.201877 0.00316945 0)
(0.201844 0.00318624 0)
(0.201752 0.00316747 0)
(0.201642 0.00307773 0)
(0.201543 0.00297819 0)
(0.201426 0.00289308 0)
(0.201306 0.00277143 0)
(0.201229 0.00270844 0)
(0.201174 0.00268254 0)
(0.201106 0.00270415 0)
(0.200995 0.00269827 0)
(0.200816 0.00265068 0)
(0.200595 0.00257889 0)
(0.200377 0.00248199 0)
(0.200192 0.00240985 0)
(0.200016 0.00239991 0)
(0.199802 0.0023843 0)
(0.199529 0.00234348 0)
(0.199244 0.00226372 0)
(0.198993 0.00220928 0)
(0.198765 0.00216865 0)
(0.198525 0.00215957 0)
(0.198248 0.00213003 0)
(0.197915 0.00210048 0)
(0.197548 0.00205016 0)
(0.197176 0.00202061 0)
(0.196809 0.00196293 0)
(0.196439 0.00194171 0)
(0.196062 0.00191011 0)
(0.195663 0.00188 0)
(0.195241 0.00184496 0)
(0.194789 0.00183501 0)
(0.194323 0.00177848 0)
(0.193841 0.00177199 0)
(0.193353 0.00172386 0)
(0.192844 0.0017129 0)
(0.192332 0.00165847 0)
(0.191809 0.00166451 0)
(0.191271 0.00161052 0)
(0.190715 0.00162223 0)
(0.190128 0.0015554 0)
(0.189585 0.0015883 0)
(0.188894 0.0015236 0)
(0.188487 0.00154534 0)
(0.187438 0.00149318 0)
(0.196758 0.00591938 0)
(0.197389 0.00687508 0)
(0.198389 0.00759469 0)
(0.199264 0.00760653 0)
(0.200115 0.00754346 0)
(0.200942 0.00842599 0)
(0.201403 0.00722485 0)
(0.201641 0.00582334 0)
(0.201977 0.00577756 0)
(0.202 0.00593731 0)
(0.202071 0.00602035 0)
(0.202184 0.00573171 0)
(0.202184 0.00529369 0)
(0.202247 0.00498864 0)
(0.202287 0.00487927 0)
(0.202269 0.00487509 0)
(0.20225 0.00466353 0)
(0.202241 0.00440681 0)
(0.202271 0.00419339 0)
(0.202271 0.00414058 0)
(0.202216 0.00409042 0)
(0.202145 0.00393675 0)
(0.202098 0.00379088 0)
(0.202109 0.00368414 0)
(0.202134 0.00361867 0)
(0.202083 0.00373429 0)
(0.202015 0.00359358 0)
(0.201994 0.00348541 0)
(0.20195 0.00335289 0)
(0.20191 0.00317902 0)
(0.201914 0.00317146 0)
(0.201894 0.00320124 0)
(0.201835 0.00318455 0)
(0.201781 0.00310341 0)
(0.201742 0.00298695 0)
(0.201659 0.00293715 0)
(0.20157 0.00281301 0)
(0.201535 0.00270295 0)
(0.201525 0.00268387 0)
(0.201511 0.00271335 0)
(0.201472 0.00271861 0)
(0.201385 0.00268913 0)
(0.201267 0.00262714 0)
(0.201154 0.00251342 0)
(0.201066 0.00243699 0)
(0.200981 0.00244215 0)
(0.200861 0.00243423 0)
(0.200696 0.00239084 0)
(0.200531 0.00230842 0)
(0.200409 0.0022541 0)
(0.200312 0.00221058 0)
(0.200208 0.00220475 0)
(0.200074 0.00218463 0)
(0.199894 0.00216618 0)
(0.19968 0.00211963 0)
(0.199461 0.00209047 0)
(0.199247 0.00203037 0)
(0.199032 0.00200978 0)
(0.198816 0.0019812 0)
(0.198586 0.00195439 0)
(0.198337 0.00192493 0)
(0.19806 0.00192088 0)
(0.197763 0.00186603 0)
(0.197452 0.00186263 0)
(0.197136 0.00181579 0)
(0.196801 0.00180766 0)
(0.196461 0.00175212 0)
(0.196115 0.00176276 0)
(0.195753 0.00170946 0)
(0.195371 0.00172753 0)
(0.194961 0.00165847 0)
(0.194581 0.00169743 0)
(0.194087 0.00163652 0)
(0.193792 0.00165829 0)
(0.193026 0.00160378 0)
(0.19711 0.005686 0)
(0.197691 0.00638024 0)
(0.198538 0.00745855 0)
(0.199293 0.00681643 0)
(0.199984 0.00769992 0)
(0.200799 0.00790235 0)
(0.201235 0.00701271 0)
(0.201481 0.00584418 0)
(0.201886 0.005787 0)
(0.2019 0.00590876 0)
(0.201919 0.00591732 0)
(0.202039 0.00564259 0)
(0.20212 0.00526402 0)
(0.202203 0.00495827 0)
(0.202234 0.00487746 0)
(0.202206 0.00485483 0)
(0.202176 0.00465725 0)
(0.202188 0.00441446 0)
(0.202237 0.00418431 0)
(0.202223 0.00417812 0)
(0.202159 0.00405015 0)
(0.202083 0.00401122 0)
(0.202042 0.00375185 0)
(0.202066 0.00368714 0)
(0.202075 0.00367967 0)
(0.202011 0.00364148 0)
(0.201995 0.00362468 0)
(0.201994 0.00355482 0)
(0.201939 0.00336312 0)
(0.2019 0.00318111 0)
(0.201894 0.00317653 0)
(0.201874 0.00321091 0)
(0.201832 0.00320002 0)
(0.20181 0.00309981 0)
(0.201789 0.00302857 0)
(0.201707 0.0029447 0)
(0.201617 0.00279286 0)
(0.201605 0.00273084 0)
(0.20161 0.002694 0)
(0.201612 0.00271867 0)
(0.201597 0.00273244 0)
(0.201553 0.00271263 0)
(0.201492 0.00264724 0)
(0.201436 0.00253868 0)
(0.201395 0.00245106 0)
(0.201349 0.00245343 0)
(0.201267 0.00246611 0)
(0.201154 0.00244085 0)
(0.20106 0.00233755 0)
(0.201015 0.0022611 0)
(0.20099 0.00221631 0)
(0.200954 0.00221945 0)
(0.200897 0.00221139 0)
(0.200806 0.0022033 0)
(0.200691 0.00215921 0)
(0.200574 0.00213101 0)
(0.200462 0.00206875 0)
(0.200346 0.00204726 0)
(0.200231 0.00202034 0)
(0.200111 0.00199552 0)
(0.199982 0.00197117 0)
(0.19983 0.00197215 0)
(0.199657 0.0019207 0)
(0.199472 0.00191953 0)
(0.199283 0.00187498 0)
(0.19908 0.00186835 0)
(0.198873 0.00181218 0)
(0.198666 0.00182639 0)
(0.198444 0.00177572 0)
(0.198204 0.0017965 0)
(0.19794 0.00173286 0)
(0.197695 0.00176881 0)
(0.197371 0.00171801 0)
(0.197172 0.00173931 0)
(0.196654 0.0016848 0)
(0.197388 0.00559161 0)
(0.197885 0.00617987 0)
(0.198642 0.00714521 0)
(0.199324 0.00667206 0)
(0.19988 0.00722757 0)
(0.200668 0.00784572 0)
(0.201156 0.00687012 0)
(0.201341 0.00583022 0)
(0.201778 0.00560396 0)
(0.201801 0.00578173 0)
(0.201768 0.0058762 0)
(0.201894 0.00572693 0)
(0.202066 0.00528367 0)
(0.202171 0.0049284 0)
(0.202167 0.00489082 0)
(0.202128 0.00487741 0)
(0.202097 0.00466479 0)
(0.202139 0.00438069 0)
(0.202193 0.00419028 0)
(0.202158 0.00416486 0)
(0.202089 0.00413109 0)
(0.202024 0.00396555 0)
(0.201998 0.0038086 0)
(0.20202 0.00368421 0)
(0.202024 0.00357473 0)
(0.201987 0.00373413 0)
(0.201973 0.00364343 0)
(0.201944 0.00355655 0)
(0.201899 0.00338221 0)
(0.20188 0.00320582 0)
(0.201863 0.00318397 0)
(0.201841 0.00322267 0)
(0.201815 0.00320192 0)
(0.201805 0.00311328 0)
(0.20178 0.00303369 0)
(0.201702 0.00297053 0)
(0.201612 0.00282578 0)
(0.201593 0.00272642 0)
(0.201604 0.00268501 0)
(0.201611 0.00271878 0)
(0.201599 0.00272786 0)
(0.201577 0.00272428 0)
(0.201548 0.00266496 0)
(0.201519 0.00253895 0)
(0.201495 0.00247109 0)
(0.201455 0.00247857 0)
(0.201386 0.00248676 0)
(0.201305 0.00244179 0)
(0.20125 0.00233869 0)
(0.201244 0.0022702 0)
(0.201246 0.00223258 0)
(0.201236 0.00222677 0)
(0.20121 0.00222264 0)
(0.201164 0.00222246 0)
(0.201106 0.00217821 0)
(0.201052 0.00215146 0)
(0.201 0.00208996 0)
(0.200939 0.00206813 0)
(0.200876 0.00204126 0)
(0.200815 0.00201577 0)
(0.200756 0.00199556 0)
(0.200684 0.00199976 0)
(0.200591 0.0019526 0)
(0.200485 0.00195217 0)
(0.200379 0.00191029 0)
(0.200262 0.00190413 0)
(0.200146 0.00184776 0)
(0.200034 0.00186239 0)
(0.199909 0.00181845 0)
(0.199769 0.00183694 0)
(0.199612 0.00178012 0)
(0.199466 0.00181713 0)
(0.199271 0.00176775 0)
(0.199146 0.0017889 0)
(0.198818 0.00174034 0)
(0.197567 0.00533643 0)
(0.198019 0.00584862 0)
(0.198707 0.00673812 0)
(0.199355 0.00653265 0)
(0.199883 0.00652751 0)
(0.200536 0.0081557 0)
(0.201083 0.0065574 0)
(0.201265 0.00544635 0)
(0.201597 0.00605606 0)
(0.201725 0.00566706 0)
(0.201643 0.00571791 0)
(0.201769 0.00555368 0)
(0.20203 0.00516695 0)
(0.202121 0.00490968 0)
(0.202079 0.00492482 0)
(0.202033 0.00484391 0)
(0.202027 0.00467732 0)
(0.202098 0.00435399 0)
(0.202139 0.00420707 0)
(0.202084 0.00417513 0)
(0.202015 0.00416825 0)
(0.201974 0.00397554 0)
(0.201957 0.0038301 0)
(0.201981 0.00363516 0)
(0.201996 0.00365769 0)
(0.201974 0.00374333 0)
(0.201938 0.00366202 0)
(0.201872 0.0035661 0)
(0.20184 0.00336061 0)
(0.20185 0.00320187 0)
(0.201832 0.00318068 0)
(0.201811 0.00322412 0)
(0.201794 0.00320436 0)
(0.201782 0.00312369 0)
(0.201752 0.00305862 0)
(0.201678 0.0029943 0)
(0.201585 0.00284368 0)
(0.201561 0.00273185 0)
(0.201576 0.00268621 0)
(0.201573 0.00274541 0)
(0.20157 0.00272533 0)
(0.20157 0.00271508 0)
(0.201552 0.00265969 0)
(0.201527 0.00254843 0)
(0.201502 0.00248118 0)
(0.201455 0.00248653 0)
(0.201398 0.00249688 0)
(0.201353 0.00247155 0)
(0.201316 0.00235622 0)
(0.201309 0.00227329 0)
(0.201321 0.00222464 0)
(0.201317 0.00222831 0)
(0.201298 0.00222828 0)
(0.201273 0.00223379 0)
(0.201247 0.00218321 0)
(0.201229 0.00215636 0)
(0.201209 0.00209862 0)
(0.201173 0.00207866 0)
(0.201131 0.00205272 0)
(0.201095 0.00202423 0)
(0.201071 0.00200639 0)
(0.201042 0.00201328 0)
(0.200995 0.00197122 0)
(0.200935 0.00197101 0)
(0.200875 0.00193053 0)
(0.200808 0.00192423 0)
(0.200744 0.00186593 0)
(0.20069 0.00188367 0)
(0.200623 0.0018384 0)
(0.200545 0.00186598 0)
(0.200459 0.00180341 0)
(0.200376 0.00184343 0)
(0.200268 0.0018087 0)
(0.200195 0.00181298 0)
(0.199998 0.00177159 0)