/*--------------------------------*- C++ -*----------------------------------*\
| =========                 |                                                 |
| \\      /  F ield         | OpenFOAM: The Open Source CFD Toolbox           |
|  \\    /   O peration     | Version:  2.3.0                                 |
|   \\  /    A nd           | Web:      www.OpenFOAM.org                      |
|    \\/     M anipulation  |                                                 |
\*---------------------------------------------------------------------------*/
FoamFile
{
    version     2.0;
    format      ascii;
    class       surfaceScalarField;
    location    "0.5";
    object      phi;
}
// * * * * * * * * * * * * * * * * * * * * * * * * * * * * * * * * * * * * * //

dimensions      [0 3 -1 0 0 0 0];

internalField   nonuniform List<scalar> 
5644
(
2.94414e-08
2.71139e-09
-3.21528e-08
2.60255e-08
3.41589e-09
2.26097e-08
3.41586e-09
1.94397e-08
3.17001e-09
1.65479e-08
2.89176e-09
1.40005e-08
2.5474e-09
1.18852e-08
2.11534e-09
1.02251e-08
1.66009e-09
8.99314e-09
1.23196e-09
8.11388e-09
8.7926e-10
7.49478e-09
6.191e-10
7.05305e-09
4.41725e-10
6.72546e-09
3.27598e-10
6.4678e-09
2.57655e-10
6.25034e-09
2.17461e-10
6.05522e-09
1.9512e-10
5.8734e-09
1.81822e-10
5.70119e-09
1.72205e-10
5.53761e-09
1.63581e-10
5.38267e-09
1.54944e-10
5.23656e-09
1.4611e-10
5.09929e-09
1.37273e-10
4.97062e-09
1.28669e-10
4.85009e-09
1.20527e-10
4.73713e-09
1.12959e-10
4.63109e-09
1.06042e-10
4.53134e-09
9.97516e-11
4.43727e-09
9.40695e-11
4.34835e-09
8.89149e-11
4.2641e-09
8.42472e-11
4.18412e-09
7.99848e-11
4.10803e-09
7.60908e-11
4.03553e-09
7.25027e-11
3.96634e-09
6.91907e-11
3.90022e-09
6.61149e-11
3.83697e-09
6.3249e-11
3.7764e-09
6.05722e-11
3.71834e-09
5.80597e-11
3.66264e-09
5.57024e-11
3.60916e-09
5.34796e-11
3.55777e-09
5.13841e-11
3.50837e-09
4.94053e-11
3.46084e-09
4.75275e-11
3.41508e-09
4.57571e-11
3.37102e-09
4.40634e-11
3.32855e-09
4.24707e-11
3.28761e-09
4.09357e-11
3.24812e-09
3.94927e-11
3.21002e-09
3.80974e-11
3.17325e-09
3.67787e-11
3.13774e-09
3.55074e-11
3.10345e-09
3.42926e-11
3.07032e-09
3.31287e-11
3.03831e-09
3.20052e-11
3.00738e-09
3.09289e-11
2.97749e-09
2.98911e-11
2.94861e-09
2.88817e-11
2.92068e-09
2.79254e-11
2.89372e-09
2.69684e-11
2.86763e-09
2.6083e-11
2.84246e-09
2.51754e-11
2.81812e-09
2.4341e-11
2.79463e-09
2.34891e-11
2.77194e-09
2.26847e-11
2.75005e-09
2.18903e-11
2.72894e-09
2.11088e-11
2.70859e-09
2.03566e-11
2.68898e-09
1.96105e-11
2.6701e-09
1.88724e-11
2.65193e-09
1.81787e-11
2.63449e-09
1.74355e-11
2.6177e-09
1.6793e-11
2.60165e-09
1.6052e-11
2.58621e-09
1.54351e-11
2.57149e-09
1.47204e-11
2.55738e-09
1.41048e-11
2.54396e-09
1.34218e-11
2.53115e-09
1.28164e-11
2.51901e-09
1.21386e-11
2.50743e-09
1.15753e-11
2.49656e-09
1.08724e-11
2.48619e-09
1.03699e-11
2.47655e-09
9.64236e-12
2.46736e-09
9.18744e-12
2.4589e-09
8.46195e-12
2.45086e-09
8.03449e-12
2.44354e-09
7.32881e-12
2.43659e-09
6.94361e-12
2.43036e-09
6.23017e-12
2.42443e-09
5.93453e-12
2.41923e-09
5.1986e-12
2.41423e-09
4.9944e-12
2.40996e-09
4.27248e-12
2.40581e-09
4.15161e-12
2.40233e-09
3.48166e-12
2.39884e-09
3.48938e-12
2.39597e-09
2.87178e-12
2.39287e-09
3.09471e-12
2.39031e-09
2.55975e-12
3.17054e-12
3.47407e-08
2.41267e-09
-3.4442e-08
3.46029e-08
3.55365e-09
3.3942e-08
4.07676e-09
3.29895e-08
4.12255e-09
3.18658e-08
4.01544e-09
3.06018e-08
3.81142e-09
2.92242e-08
3.49291e-09
2.78027e-08
3.08164e-09
2.64078e-08
2.62683e-09
2.50923e-08
2.19471e-09
2.38815e-08
1.82998e-09
2.27795e-08
1.54367e-09
2.17821e-08
1.32497e-09
2.08852e-08
1.15456e-09
2.00789e-08
1.02385e-09
1.93516e-08
9.22329e-10
1.86927e-08
8.40756e-10
1.80924e-08
7.72555e-10
1.75424e-08
7.13545e-10
1.7036e-08
6.61305e-10
1.65677e-08
6.1441e-10
1.61329e-08
5.72088e-10
1.57278e-08
5.33792e-10
1.53491e-08
4.99186e-10
1.49942e-08
4.67901e-10
1.46606e-08
4.39676e-10
1.43462e-08
4.14144e-10
1.40492e-08
3.91053e-10
1.3768e-08
3.70061e-10
1.35013e-08
3.50956e-10
1.32479e-08
3.33457e-10
1.30065e-08
3.17402e-10
1.27765e-08
3.02581e-10
1.25568e-08
2.8887e-10
1.23468e-08
2.76127e-10
1.21458e-08
2.64251e-10
1.19532e-08
2.53154e-10
1.17685e-08
2.42747e-10
1.15912e-08
2.32981e-10
1.14209e-08
2.2378e-10
1.12572e-08
2.15108e-10
1.10997e-08
2.06917e-10
1.09481e-08
1.99157e-10
1.0802e-08
1.91821e-10
1.06612e-08
1.8483e-10
1.05255e-08
1.7822e-10
1.03945e-08
1.71886e-10
1.02681e-08
1.65889e-10
1.01461e-08
1.60125e-10
1.00282e-08
1.54644e-10
9.91437e-09
1.49377e-10
9.80433e-09
1.44333e-10
9.69797e-09
1.39495e-10
9.59514e-09
1.34828e-10
9.49572e-09
1.30349e-10
9.39959e-09
1.26022e-10
9.30664e-09
1.21832e-10
9.21675e-09
1.17814e-10
9.12986e-09
1.13861e-10
9.04583e-09
1.10111e-10
8.96464e-09
1.06369e-10
8.88615e-09
1.02827e-10
8.81035e-09
9.92942e-11
8.73713e-09
9.58981e-11
8.66646e-09
9.25671e-11
8.59828e-09
8.92869e-11
8.53252e-09
8.61133e-11
8.46917e-09
8.2964e-11
8.40817e-09
7.98762e-11
8.34946e-09
7.68861e-11
8.29306e-09
7.38317e-11
8.23886e-09
7.09923e-11
8.18694e-09
6.79778e-11
8.13714e-09
6.52274e-11
8.08956e-09
6.23008e-11
8.04409e-09
5.95796e-11
8.00076e-09
5.6752e-11
7.9595e-09
5.40732e-11
7.92035e-09
5.12876e-11
7.88321e-09
4.87193e-11
7.84817e-09
4.591e-11
7.81504e-09
4.34974e-11
7.78402e-09
4.06665e-11
7.75482e-09
3.83882e-11
7.72768e-09
3.56006e-11
7.70229e-09
3.34212e-11
7.67889e-09
3.07295e-11
7.65715e-09
2.86899e-11
7.63732e-09
2.60542e-11
7.61898e-09
2.42766e-11
7.6025e-09
2.1683e-11
7.58728e-09
2.02072e-11
7.57379e-09
1.77638e-11
7.56132e-09
1.66199e-11
7.55035e-09
1.4452e-11
7.54005e-09
1.37972e-11
7.53096e-09
1.19615e-11
7.52202e-09
1.20323e-11
7.51386e-09
1.07137e-11
1.15802e-11
3.62817e-08
2.27575e-09
-3.61448e-08
3.66786e-08
3.1568e-09
3.69274e-08
3.82797e-09
3.69865e-08
4.06347e-09
3.69243e-08
4.07757e-09
3.6745e-08
3.99073e-09
3.64228e-08
3.81514e-09
3.59594e-08
3.545e-09
3.53814e-08
3.2049e-09
3.47281e-08
2.84793e-09
3.4035e-08
2.5231e-09
3.33252e-08
2.25346e-09
3.26129e-08
2.03732e-09
3.19052e-08
1.86227e-09
3.12092e-08
1.71984e-09
3.05293e-08
1.60222e-09
2.98678e-08
1.50226e-09
2.92258e-08
1.41449e-09
2.86041e-08
1.33526e-09
2.8003e-08
1.26243e-09
2.74227e-08
1.19472e-09
2.68632e-08
1.13155e-09
2.63245e-08
1.07249e-09
2.58063e-08
1.01738e-09
2.53083e-08
9.65969e-10
2.48298e-08
9.18149e-10
2.43703e-08
8.73628e-10
2.39291e-08
8.3226e-10
2.35054e-08
7.93724e-10
2.30985e-08
7.57864e-10
2.27076e-08
7.24381e-10
2.23319e-08
6.93129e-10
2.19706e-08
6.63863e-10
2.1623e-08
6.3644e-10
2.12885e-08
6.10685e-10
2.09663e-08
5.86454e-10
2.06558e-08
5.63635e-10
2.03564e-08
5.42083e-10
2.00677e-08
5.21733e-10
1.9789e-08
5.02452e-10
1.95199e-08
4.84189e-10
1.926e-08
4.66849e-10
1.90088e-08
4.5036e-10
1.87659e-08
4.34689e-10
1.8531e-08
4.19716e-10
1.83038e-08
4.05479e-10
1.80839e-08
3.91816e-10
1.78709e-08
3.78805e-10
1.76648e-08
3.66288e-10
1.74651e-08
3.54321e-10
1.72717e-08
3.42808e-10
1.70843e-08
3.31732e-10
1.69027e-08
3.21091e-10
1.67267e-08
3.10793e-10
1.65562e-08
3.00891e-10
1.63909e-08
2.9129e-10
1.62307e-08
2.81995e-10
1.60755e-08
2.73024e-10
1.59252e-08
2.64233e-10
1.57795e-08
2.55807e-10
1.56384e-08
2.47467e-10
1.55017e-08
2.3947e-10
1.53694e-08
2.31563e-10
1.52415e-08
2.2388e-10
1.51176e-08
2.16381e-10
1.4998e-08
2.08951e-10
1.48823e-08
2.01773e-10
1.47707e-08
1.94611e-10
1.46629e-08
1.87626e-10
1.4559e-08
1.80765e-10
1.4459e-08
1.73881e-10
1.43627e-08
1.67295e-10
1.42702e-08
1.60519e-10
1.41813e-08
1.54096e-10
1.40961e-08
1.47502e-10
1.40145e-08
1.41139e-10
1.39365e-08
1.34741e-10
1.38622e-08
1.28456e-10
1.37913e-08
1.22161e-10
1.37239e-08
1.16063e-10
1.36601e-08
1.09768e-10
1.35996e-08
1.03929e-10
1.35427e-08
9.76492e-11
1.3489e-08
9.20353e-11
1.34387e-08
8.58916e-11
1.33917e-08
8.04558e-11
1.33479e-08
7.45487e-11
1.33072e-08
6.93749e-11
1.32696e-08
6.36658e-11
1.32349e-08
5.89766e-11
1.32031e-08
5.34744e-11
1.31739e-08
4.9375e-11
1.31474e-08
4.42962e-11
1.31231e-08
4.08909e-11
1.31011e-08
3.64831e-11
1.30808e-08
3.40827e-11
1.30622e-08
3.05155e-11
1.30448e-08
2.95006e-11
1.30282e-08
2.72406e-11
2.74027e-11
3.7837e-08
2.22005e-09
-3.77813e-08
3.81325e-08
2.86134e-09
3.84935e-08
3.46695e-09
3.87732e-08
3.78382e-09
3.8987e-08
3.86374e-09
3.9154e-08
3.82378e-09
3.92556e-08
3.71353e-09
3.92683e-08
3.53227e-09
3.91842e-08
3.28898e-09
3.90159e-08
3.01624e-09
3.87849e-08
2.75413e-09
3.85105e-08
2.52783e-09
3.82048e-08
2.34305e-09
3.78737e-08
2.19338e-09
3.75229e-08
2.0706e-09
3.71572e-08
1.96797e-09
3.67796e-08
1.87986e-09
3.63922e-08
1.80186e-09
3.59967e-08
1.73075e-09
3.55946e-08
1.66452e-09
3.51874e-08
1.60194e-09
3.47765e-08
1.54242e-09
3.43635e-08
1.48557e-09
3.39495e-08
1.4313e-09
3.35361e-08
1.37944e-09
3.31242e-08
1.33002e-09
3.2715e-08
1.28285e-09
3.23093e-08
1.23793e-09
3.1908e-08
1.19503e-09
3.15117e-08
1.15415e-09
3.1121e-08
1.11506e-09
3.07364e-08
1.07774e-09
3.03583e-08
1.04201e-09
2.99869e-08
1.00783e-09
2.96225e-08
9.75072e-10
2.92653e-08
9.43654e-10
2.89154e-08
9.13538e-10
2.85729e-08
8.84592e-10
2.82378e-08
8.56829e-10
2.79101e-08
8.30108e-10
2.75899e-08
8.04448e-10
2.7277e-08
7.79743e-10
2.69714e-08
7.55963e-10
2.6673e-08
7.33081e-10
2.63817e-08
7.10989e-10
2.60975e-08
6.89746e-10
2.58201e-08
6.69177e-10
2.55495e-08
6.49388e-10
2.52856e-08
6.30204e-10
2.50282e-08
6.11692e-10
2.47773e-08
5.93766e-10
2.45326e-08
5.76374e-10
2.42941e-08
5.59571e-10
2.40618e-08
5.43182e-10
2.38353e-08
5.27346e-10
2.36147e-08
5.1188e-10
2.33999e-08
4.96852e-10
2.31906e-08
4.82233e-10
2.2987e-08
4.67886e-10
2.27888e-08
4.54006e-10
2.2596e-08
4.40277e-10
2.24085e-08
4.26979e-10
2.22262e-08
4.13857e-10
2.20491e-08
4.00979e-10
2.1877e-08
3.8843e-10
2.17101e-08
3.75889e-10
2.15481e-08
3.6379e-10
2.13911e-08
3.51611e-10
2.12389e-08
3.39778e-10
2.10917e-08
3.28009e-10
2.09493e-08
3.16312e-10
2.08116e-08
3.04907e-10
2.06788e-08
2.93365e-10
2.05507e-08
2.82154e-10
2.04274e-08
2.70879e-10
2.03088e-08
2.59711e-10
2.01948e-08
2.48722e-10
2.00856e-08
2.37628e-10
1.9981e-08
2.26792e-10
1.98811e-08
2.15928e-10
1.97858e-08
2.0511e-10
1.96952e-08
1.94576e-10
1.9609e-08
1.83816e-10
1.95275e-08
1.73561e-10
1.94503e-08
1.63052e-10
1.93777e-08
1.5302e-10
1.93094e-08
1.42923e-10
1.92455e-08
1.33251e-10
1.91856e-08
1.23539e-10
1.913e-08
1.14574e-10
1.90782e-08
1.05294e-10
1.90303e-08
9.72186e-11
1.89859e-08
8.87316e-11
1.89451e-08
8.17241e-11
1.89071e-08
7.44473e-11
1.88723e-08
6.89487e-11
1.88395e-08
6.32484e-11
1.88093e-08
5.97152e-11
1.87801e-08
5.64382e-11
5.44149e-11
3.94318e-08
2.16136e-09
-3.93731e-08
3.96372e-08
2.65594e-09
3.99544e-08
3.14973e-09
4.02548e-08
3.48344e-09
4.05062e-08
3.61238e-09
4.07255e-08
3.60444e-09
4.0916e-08
3.52301e-09
4.10614e-08
3.38688e-09
4.11469e-08
3.20348e-09
4.11717e-08
2.99145e-09
4.11475e-08
2.77831e-09
4.10884e-08
2.58694e-09
4.10038e-08
2.42768e-09
4.08984e-08
2.29874e-09
4.07755e-08
2.19348e-09
4.06377e-08
2.10582e-09
4.04865e-08
2.031e-09
4.0323e-08
1.96541e-09
4.01475e-08
1.90625e-09
3.99603e-08
1.85167e-09
3.97619e-08
1.80036e-09
3.95527e-08
1.75165e-09
3.93333e-08
1.705e-09
3.91043e-08
1.66029e-09
3.88665e-08
1.61722e-09
3.86207e-08
1.57585e-09
3.83676e-08
1.53591e-09
3.81081e-08
1.49748e-09
3.78428e-08
1.46028e-09
3.75726e-08
1.42438e-09
3.72981e-08
1.38954e-09
3.702e-08
1.3558e-09
3.67391e-08
1.32299e-09
3.64558e-08
1.2911e-09
3.61708e-08
1.26006e-09
3.58846e-08
1.2298e-09
3.55979e-08
1.20033e-09
3.53109e-08
1.17152e-09
3.50243e-08
1.14347e-09
3.47384e-08
1.11602e-09
3.44536e-08
1.08926e-09
3.41702e-08
1.06307e-09
3.38887e-08
1.0375e-09
3.36093e-08
1.01251e-09
3.33322e-08
9.88048e-10
3.30578e-08
9.64184e-10
3.27862e-08
9.40766e-10
3.25176e-08
9.17931e-10
3.22523e-08
8.95517e-10
3.19904e-08
8.73605e-10
3.1732e-08
8.52154e-10
3.14773e-08
8.3107e-10
3.12264e-08
8.10512e-10
3.09794e-08
7.90199e-10
3.07363e-08
7.70422e-10
3.04973e-08
7.50856e-10
3.02625e-08
7.31723e-10
3.00318e-08
7.12881e-10
2.98054e-08
6.94288e-10
2.95833e-08
6.76085e-10
2.93656e-08
6.58005e-10
2.91523e-08
6.40278e-10
2.89434e-08
6.22744e-10
2.87391e-08
6.05315e-10
2.85392e-08
5.88324e-10
2.8344e-08
5.71114e-10
2.81532e-08
5.54534e-10
2.79672e-08
5.376e-10
2.77858e-08
5.2121e-10
2.76092e-08
5.0464e-10
2.74372e-08
4.88291e-10
2.727e-08
4.72034e-10
2.71076e-08
4.55773e-10
2.69502e-08
4.39614e-10
2.67975e-08
4.2361e-10
2.66498e-08
4.07354e-10
2.65069e-08
3.91649e-10
2.63692e-08
3.75347e-10
2.62362e-08
3.59779e-10
2.61085e-08
3.43644e-10
2.59855e-08
3.28052e-10
2.58679e-08
3.12219e-10
2.5755e-08
2.96683e-10
2.56475e-08
2.81086e-10
2.55447e-08
2.65883e-10
2.54472e-08
2.50459e-10
2.53543e-08
2.35827e-10
2.52668e-08
2.20771e-10
2.51836e-08
2.06704e-10
2.51057e-08
1.92493e-10
2.50319e-08
1.79097e-10
2.49631e-08
1.65977e-10
2.48981e-08
1.53802e-10
2.48378e-08
1.41986e-10
2.47806e-08
1.31681e-10
2.47279e-08
1.21675e-10
2.46772e-08
1.13856e-10
2.46308e-08
1.06167e-10
2.45852e-08
1.0202e-10
9.61865e-11
4.10532e-08
2.09045e-09
-4.09822e-08
4.12138e-08
2.49533e-09
4.14723e-08
2.89123e-09
4.17504e-08
3.20532e-09
4.19981e-08
3.36471e-09
4.22127e-08
3.38978e-09
4.24034e-08
3.33238e-09
4.25652e-08
3.22501e-09
4.26878e-08
3.08089e-09
4.27671e-08
2.91219e-09
4.28088e-08
2.73658e-09
4.28234e-08
2.57235e-09
4.28198e-08
2.43131e-09
4.28031e-08
2.31546e-09
4.27759e-08
2.22061e-09
4.27401e-08
2.14165e-09
4.26967e-08
2.07443e-09
4.26462e-08
2.01592e-09
4.25886e-08
1.9638e-09
4.25238e-08
1.91645e-09
4.24516e-08
1.8726e-09
4.23717e-08
1.83156e-09
4.2284e-08
1.79269e-09
4.21885e-08
1.75581e-09
4.20852e-08
1.72051e-09
4.19742e-08
1.68681e-09
4.18558e-08
1.65437e-09
4.173e-08
1.62326e-09
4.15971e-08
1.59314e-09
4.14574e-08
1.56411e-09
4.13111e-08
1.53585e-09
4.11584e-08
1.50844e-09
4.09998e-08
1.48165e-09
4.08354e-08
1.45549e-09
4.06656e-08
1.42986e-09
4.04907e-08
1.40468e-09
4.0311e-08
1.37999e-09
4.0127e-08
1.3556e-09
3.99388e-08
1.33166e-09
3.97468e-08
1.30794e-09
3.95515e-08
1.28463e-09
3.9353e-08
1.26151e-09
3.91518e-08
1.23872e-09
3.89482e-08
1.21616e-09
3.87424e-08
1.19382e-09
3.85348e-08
1.17176e-09
3.83257e-08
1.14985e-09
3.81154e-08
1.12822e-09
3.79042e-08
1.10674e-09
3.76924e-08
1.08546e-09
3.74801e-08
1.06441e-09
3.72678e-08
1.04341e-09
3.70555e-08
1.02277e-09
3.68437e-08
1.00204e-09
3.66324e-08
9.81723e-10
3.64219e-08
9.61272e-10
3.62125e-08
9.41168e-10
3.60044e-08
9.21035e-10
3.57976e-08
9.01053e-10
3.55925e-08
8.81189e-10
3.53891e-08
8.61343e-10
3.51878e-08
8.41591e-10
3.49886e-08
8.21975e-10
3.47918e-08
8.02145e-10
3.45973e-08
7.82811e-10
3.44056e-08
7.62827e-10
3.42164e-08
7.43661e-10
3.40304e-08
7.23628e-10
3.38472e-08
7.04384e-10
3.36674e-08
6.84448e-10
3.34908e-08
6.64964e-10
3.33177e-08
6.45097e-10
3.3148e-08
6.25457e-10
3.29822e-08
6.05412e-10
3.282e-08
5.85858e-10
3.26619e-08
5.65402e-10
3.25075e-08
5.46027e-10
3.23577e-08
5.25226e-10
3.22116e-08
5.05858e-10
3.20702e-08
4.84991e-10
3.19328e-08
4.65454e-10
3.18003e-08
4.44705e-10
3.16719e-08
4.25118e-10
3.15486e-08
4.0442e-10
3.14293e-08
3.85152e-10
3.13153e-08
3.64436e-10
3.12053e-08
3.45822e-10
3.11008e-08
3.2532e-10
3.10001e-08
3.07405e-10
3.09049e-08
2.87715e-10
3.08133e-08
2.70677e-10
3.07272e-08
2.52087e-10
3.06443e-08
2.36698e-10
3.05669e-08
2.19411e-10
3.0492e-08
2.06579e-10
3.04225e-08
1.91133e-10
3.03547e-08
1.81695e-10
3.02921e-08
1.68701e-10
3.02301e-08
1.64028e-10
1.53327e-10
4.27106e-08
2.01307e-09
-4.26333e-08
4.2849e-08
2.35698e-09
4.3059e-08
2.68118e-09
4.33045e-08
2.95982e-09
4.35387e-08
3.13058e-09
4.3744e-08
3.18442e-09
4.39234e-08
3.15301e-09
4.40781e-08
3.07031e-09
4.42033e-08
2.95565e-09
4.42954e-08
2.82017e-09
4.43563e-08
2.67562e-09
4.43934e-08
2.53531e-09
4.44146e-08
2.41009e-09
4.44257e-08
2.30437e-09
4.44297e-08
2.21658e-09
4.44284e-08
2.14297e-09
4.44228e-08
2.08001e-09
4.44136e-08
2.02508e-09
4.44012e-08
1.97626e-09
4.43854e-08
1.93222e-09
4.43662e-08
1.89185e-09
4.43432e-08
1.85451e-09
4.43163e-08
1.81956e-09
4.42854e-08
1.78676e-09
4.42502e-08
1.75569e-09
4.42107e-08
1.72634e-09
4.41667e-08
1.69832e-09
4.41183e-08
1.67172e-09
4.40653e-08
1.64615e-09
4.40076e-08
1.62173e-09
4.39454e-08
1.59809e-09
4.38785e-08
1.57534e-09
4.3807e-08
1.55319e-09
4.37308e-08
1.53169e-09
4.36499e-08
1.51068e-09
4.35645e-08
1.49009e-09
4.34746e-08
1.46993e-09
4.33802e-08
1.45e-09
4.32814e-08
1.43047e-09
4.31783e-08
1.41103e-09
4.3071e-08
1.39193e-09
4.29596e-08
1.37287e-09
4.28443e-08
1.35405e-09
4.27252e-08
1.33528e-09
4.26024e-08
1.31662e-09
4.24761e-08
1.29806e-09
4.23464e-08
1.27951e-09
4.22136e-08
1.26105e-09
4.20777e-08
1.24259e-09
4.19391e-08
1.22412e-09
4.17977e-08
1.20574e-09
4.1654e-08
1.18715e-09
4.15079e-08
1.16884e-09
4.13599e-08
1.15009e-09
4.12099e-08
1.13176e-09
4.10582e-08
1.11288e-09
4.0905e-08
1.09437e-09
4.07506e-08
1.07543e-09
4.05951e-08
1.05662e-09
4.04387e-08
1.03759e-09
4.02815e-08
1.01849e-09
4.0124e-08
9.99179e-10
3.9966e-08
9.79949e-10
3.9808e-08
9.60112e-10
3.965e-08
9.40859e-10
3.94924e-08
9.20386e-10
3.93351e-08
9.01011e-10
3.91786e-08
8.80036e-10
3.90228e-08
8.60249e-10
3.88682e-08
8.38989e-10
3.87146e-08
8.18576e-10
3.85627e-08
7.9705e-10
3.8412e-08
7.76103e-10
3.82634e-08
7.5403e-10
3.81164e-08
7.32882e-10
3.79718e-08
7.09955e-10
3.78291e-08
6.88775e-10
3.76893e-08
6.65051e-10
3.75514e-08
6.43676e-10
3.74169e-08
6.19495e-10
3.72847e-08
5.97716e-10
3.7156e-08
5.73338e-10
3.70299e-08
5.51282e-10
3.69076e-08
5.2666e-10
3.6788e-08
5.04779e-10
3.66726e-08
4.79818e-10
3.65599e-08
4.58588e-10
3.64517e-08
4.33501e-10
3.6346e-08
4.13044e-10
3.62452e-08
3.88542e-10
3.61468e-08
3.69081e-10
3.60534e-08
3.45507e-10
3.59621e-08
3.28013e-10
3.5876e-08
3.05539e-10
3.57913e-08
2.91182e-10
3.57121e-08
2.70354e-10
3.56337e-08
2.60082e-10
3.55607e-08
2.41751e-10
3.54878e-08
2.36944e-10
2.21424e-10
4.44109e-08
1.93485e-09
-4.43327e-08
4.45354e-08
2.23249e-09
4.47109e-08
2.50559e-09
4.49237e-08
2.74705e-09
4.5139e-08
2.91531e-09
4.53342e-08
2.9892e-09
4.5504e-08
2.98322e-09
4.56499e-08
2.9244e-09
4.57713e-08
2.83428e-09
4.5866e-08
2.72549e-09
4.59343e-08
2.60723e-09
4.59807e-08
2.4889e-09
4.60115e-08
2.37928e-09
4.60324e-08
2.28352e-09
4.60467e-08
2.20227e-09
4.60564e-08
2.13325e-09
4.60627e-08
2.07372e-09
4.60664e-08
2.02138e-09
4.6068e-08
1.97465e-09
4.60678e-08
1.93241e-09
4.60659e-08
1.89378e-09
4.60622e-08
1.85818e-09
4.60568e-08
1.82505e-09
4.60494e-08
1.79414e-09
4.60401e-08
1.76501e-09
4.60287e-08
1.73767e-09
4.60154e-08
1.71169e-09
4.59999e-08
1.68723e-09
4.59822e-08
1.6638e-09
4.59623e-08
1.64165e-09
4.59401e-08
1.62028e-09
4.59155e-08
1.59994e-09
4.58885e-08
1.58021e-09
4.58589e-08
1.56126e-09
4.58268e-08
1.54282e-09
4.5792e-08
1.52489e-09
4.57544e-08
1.50745e-09
4.57142e-08
1.49028e-09
4.5671e-08
1.47359e-09
4.56251e-08
1.45698e-09
4.55762e-08
1.44081e-09
4.55244e-08
1.42463e-09
4.54697e-08
1.40879e-09
4.54121e-08
1.39293e-09
4.53514e-08
1.37725e-09
4.52879e-08
1.36162e-09
4.52214e-08
1.346e-09
4.5152e-08
1.33043e-09
4.50797e-08
1.31485e-09
4.50047e-08
1.29917e-09
4.49268e-08
1.28363e-09
4.48463e-08
1.26768e-09
4.4763e-08
1.25214e-09
4.46772e-08
1.23584e-09
4.45888e-08
1.22016e-09
4.44982e-08
1.20355e-09
4.4405e-08
1.1875e-09
4.43098e-08
1.17068e-09
4.42123e-08
1.15407e-09
4.41129e-08
1.137e-09
4.40116e-08
1.11984e-09
4.39085e-08
1.10225e-09
4.38037e-08
1.08475e-09
4.36975e-08
1.06629e-09
4.35897e-08
1.04863e-09
4.3481e-08
1.0291e-09
4.33708e-08
1.01118e-09
4.32601e-08
9.90759e-10
4.31482e-08
9.72172e-10
4.3036e-08
9.51176e-10
4.2923e-08
9.31588e-10
4.281e-08
9.10095e-10
4.26965e-08
8.89591e-10
4.25833e-08
8.67235e-10
4.24699e-08
8.46272e-10
4.23572e-08
8.22607e-10
4.22445e-08
8.01456e-10
4.21331e-08
7.76489e-10
4.20218e-08
7.54982e-10
4.19122e-08
7.29127e-10
4.18029e-08
7.06949e-10
4.16957e-08
6.806e-10
4.15891e-08
6.57824e-10
4.14848e-08
6.30951e-10
4.13815e-08
6.08121e-10
4.12808e-08
5.80522e-10
4.1181e-08
5.58333e-10
4.10844e-08
5.3012e-10
4.09887e-08
5.08745e-10
4.08965e-08
4.80809e-10
4.08051e-08
4.60393e-10
4.07175e-08
4.33169e-10
4.06307e-08
4.14842e-10
4.05478e-08
3.88413e-10
4.04653e-08
3.73648e-10
4.03871e-08
3.48557e-10
4.0309e-08
3.38185e-10
4.02351e-08
3.15696e-10
4.0161e-08
3.11048e-10
2.91829e-10
4.61581e-08
1.85861e-09
-4.60819e-08
4.62717e-08
2.11894e-09
4.64236e-08
2.35364e-09
4.66078e-08
2.56294e-09
4.68021e-08
2.72098e-09
4.69852e-08
2.80608e-09
4.71467e-08
2.82169e-09
4.72855e-08
2.78562e-09
4.74023e-08
2.71747e-09
4.74969e-08
2.63093e-09
4.75692e-08
2.53491e-09
4.76217e-08
2.43643e-09
4.76588e-08
2.34218e-09
4.76854e-08
2.25691e-09
4.7705e-08
2.18264e-09
4.77198e-08
2.11845e-09
4.7731e-08
2.06252e-09
4.77395e-08
2.01288e-09
4.77459e-08
1.96825e-09
4.77507e-08
1.92765e-09
4.7754e-08
1.89042e-09
4.77561e-08
1.85608e-09
4.77571e-08
1.82411e-09
4.77569e-08
1.79434e-09
4.77556e-08
1.76627e-09
4.77533e-08
1.74002e-09
4.775e-08
1.71501e-09
4.77456e-08
1.6916e-09
4.77403e-08
1.6691e-09
4.77339e-08
1.64801e-09
4.77266e-08
1.62758e-09
4.77182e-08
1.60833e-09
4.77089e-08
1.5896e-09
4.76983e-08
1.57178e-09
4.76867e-08
1.55444e-09
4.76739e-08
1.5377e-09
4.76599e-08
1.52149e-09
4.76446e-08
1.50557e-09
4.76279e-08
1.49025e-09
4.76099e-08
1.47497e-09
4.75904e-08
1.4603e-09
4.75695e-08
1.44556e-09
4.7547e-08
1.4313e-09
4.75229e-08
1.417e-09
4.74972e-08
1.40298e-09
4.74698e-08
1.38902e-09
4.74407e-08
1.37513e-09
4.74098e-08
1.36132e-09
4.73771e-08
1.34756e-09
4.73426e-08
1.33365e-09
4.73062e-08
1.32005e-09
4.7268e-08
1.30584e-09
4.72278e-08
1.29236e-09
4.71859e-08
1.27777e-09
4.71418e-08
1.26419e-09
4.70961e-08
1.24931e-09
4.70483e-08
1.2353e-09
4.69987e-08
1.22028e-09
4.69472e-08
1.20558e-09
4.68938e-08
1.19036e-09
4.68386e-08
1.17501e-09
4.67817e-08
1.15919e-09
4.67229e-08
1.14352e-09
4.66626e-08
1.12657e-09
4.66004e-08
1.11087e-09
4.6537e-08
1.09252e-09
4.64715e-08
1.07661e-09
4.64051e-08
1.05716e-09
4.63369e-08
1.0404e-09
4.62678e-08
1.02034e-09
4.61971e-08
1.00225e-09
4.61255e-08
9.8169e-10
4.60527e-08
9.62395e-10
4.59792e-08
9.40771e-10
4.59045e-08
9.20942e-10
4.58295e-08
8.97594e-10
4.57534e-08
8.77604e-10
4.56773e-08
8.52501e-10
4.56002e-08
8.321e-10
4.55235e-08
8.05817e-10
4.5446e-08
7.84459e-10
4.5369e-08
7.57575e-10
4.52916e-08
7.35266e-10
4.52149e-08
7.07697e-10
4.51378e-08
6.85138e-10
4.50619e-08
6.56438e-10
4.49856e-08
6.34631e-10
4.4911e-08
6.04784e-10
4.48359e-08
5.83792e-10
4.47627e-08
5.54044e-10
4.46893e-08
5.33781e-10
4.46178e-08
5.04641e-10
4.45462e-08
4.86433e-10
4.44769e-08
4.57713e-10
4.44072e-08
4.43409e-10
4.434e-08
4.15775e-10
4.42724e-08
4.0572e-10
4.42072e-08
3.80924e-10
4.41417e-08
3.76573e-10
3.55279e-10
4.79561e-08
1.78507e-09
-4.78825e-08
4.80603e-08
2.01466e-09
4.8195e-08
2.219e-09
4.83558e-08
2.40213e-09
4.85296e-08
2.5472e-09
4.86989e-08
2.63673e-09
4.8852e-08
2.66858e-09
4.89849e-08
2.65278e-09
4.90976e-08
2.60473e-09
4.9191e-08
2.53754e-09
4.92654e-08
2.46047e-09
4.93224e-08
2.37951e-09
4.93646e-08
2.2999e-09
4.93961e-08
2.22546e-09
4.942e-08
2.15876e-09
4.94386e-08
2.09985e-09
4.94532e-08
2.04789e-09
4.94648e-08
2.0013e-09
4.94739e-08
1.9591e-09
4.94812e-08
1.92042e-09
4.94868e-08
1.88475e-09
4.94912e-08
1.85173e-09
4.94944e-08
1.82088e-09
4.94966e-08
1.79218e-09
4.94979e-08
1.76498e-09
4.94983e-08
1.73962e-09
4.9498e-08
1.71529e-09
4.94969e-08
1.69264e-09
4.94954e-08
1.67067e-09
4.94931e-08
1.65023e-09
4.94905e-08
1.63024e-09
4.94872e-08
1.61156e-09
4.94836e-08
1.59325e-09
4.94794e-08
1.57595e-09
4.94748e-08
1.55905e-09
4.94697e-08
1.54278e-09
4.94641e-08
1.52707e-09
4.94581e-08
1.51161e-09
4.94515e-08
1.49685e-09
4.94444e-08
1.48205e-09
4.94367e-08
1.46799e-09
4.94285e-08
1.45378e-09
4.94196e-08
1.44018e-09
4.94101e-08
1.42651e-09
4.93999e-08
1.41318e-09
4.9389e-08
1.39994e-09
4.93773e-08
1.3868e-09
4.93649e-08
1.37377e-09
4.93516e-08
1.36087e-09
4.93375e-08
1.34775e-09
4.93224e-08
1.33518e-09
4.93065e-08
1.32172e-09
4.92894e-08
1.30942e-09
4.92716e-08
1.29561e-09
4.92525e-08
1.28326e-09
4.92325e-08
1.2693e-09
4.92114e-08
1.25645e-09
4.91891e-08
1.24257e-09
4.91658e-08
1.22892e-09
4.91411e-08
1.21498e-09
4.91154e-08
1.20071e-09
4.90885e-08
1.18611e-09
4.90603e-08
1.17176e-09
4.90311e-08
1.15575e-09
4.90003e-08
1.14169e-09
4.89688e-08
1.12404e-09
4.89355e-08
1.10988e-09
4.89015e-08
1.09115e-09
4.8866e-08
1.07595e-09
4.88295e-08
1.05686e-09
4.87917e-08
1.04e-09
4.87528e-08
1.02059e-09
4.87128e-08
1.00239e-09
4.86718e-08
9.81748e-10
4.86296e-08
9.63196e-10
4.85867e-08
9.40444e-10
4.85424e-08
9.21947e-10
4.84978e-08
8.97119e-10
4.84517e-08
8.78205e-10
4.84053e-08
8.52169e-10
4.83578e-08
8.3197e-10
4.83099e-08
8.05472e-10
4.82612e-08
7.84003e-10
4.82121e-08
7.56786e-10
4.81622e-08
7.35028e-10
4.81124e-08
7.06244e-10
4.80615e-08
6.85536e-10
4.80111e-08
6.55164e-10
4.79597e-08
6.35179e-10
4.79087e-08
6.05008e-10
4.78572e-08
5.85366e-10
4.78059e-08
5.55861e-10
4.77541e-08
5.38237e-10
4.77032e-08
5.08674e-10
4.76513e-08
4.95277e-10
4.76003e-08
4.66761e-10
4.75489e-08
4.57108e-10
4.74981e-08
4.31755e-10
4.7447e-08
4.27714e-10
4.0579e-10
4.98081e-08
1.71414e-09
-4.97372e-08
4.99044e-08
1.91836e-09
5.00253e-08
2.09806e-09
5.01675e-08
2.25994e-09
5.03226e-08
2.39215e-09
5.04775e-08
2.48178e-09
5.06214e-08
2.52468e-09
5.07485e-08
2.52566e-09
5.08576e-08
2.49563e-09
5.09495e-08
2.44571e-09
5.10248e-08
2.38513e-09
5.10848e-08
2.31952e-09
5.11313e-08
2.25341e-09
5.1167e-08
2.18972e-09
5.11948e-08
2.131e-09
5.12168e-08
2.07782e-09
5.12345e-08
2.0302e-09
5.12488e-08
1.98699e-09
5.12604e-08
1.94755e-09
5.12697e-08
1.91112e-09
5.12772e-08
1.87726e-09
5.12831e-08
1.84581e-09
5.12878e-08
1.81621e-09
5.12912e-08
1.7887e-09
5.12938e-08
1.7624e-09
5.12954e-08
1.73802e-09
5.12964e-08
1.71433e-09
5.12966e-08
1.69245e-09
5.12963e-08
1.67093e-09
5.12954e-08
1.6511e-09
5.12942e-08
1.63143e-09
5.12926e-08
1.61322e-09
5.12907e-08
1.59516e-09
5.12884e-08
1.5782e-09
5.12859e-08
1.56154e-09
5.12832e-08
1.5455e-09
5.12802e-08
1.53005e-09
5.12771e-08
1.51472e-09
5.12737e-08
1.50025e-09
5.12702e-08
1.48555e-09
5.12664e-08
1.47176e-09
5.12625e-08
1.45768e-09
5.12584e-08
1.4443e-09
5.12541e-08
1.43084e-09
5.12496e-08
1.41768e-09
5.12448e-08
1.40471e-09
5.12398e-08
1.39177e-09
5.12346e-08
1.379e-09
5.12291e-08
1.36642e-09
5.12233e-08
1.35348e-09
5.12171e-08
1.3414e-09
5.12108e-08
1.32805e-09
5.12038e-08
1.31635e-09
5.11968e-08
1.30269e-09
5.11891e-08
1.29092e-09
5.11811e-08
1.27732e-09
5.11727e-08
1.26487e-09
5.11636e-08
1.25164e-09
5.11542e-08
1.23826e-09
5.11441e-08
1.2251e-09
5.11336e-08
1.21123e-09
5.11225e-08
1.19724e-09
5.11106e-08
1.18367e-09
5.10984e-08
1.16792e-09
5.1085e-08
1.15505e-09
5.10716e-08
1.13749e-09
5.10569e-08
1.12456e-09
5.10419e-08
1.10618e-09
5.10259e-08
1.09188e-09
5.10092e-08
1.0736e-09
5.09919e-08
1.05729e-09
5.09736e-08
1.03892e-09
5.09546e-08
1.02133e-09
5.09349e-08
1.00149e-09
5.09141e-08
9.83949e-10
5.0893e-08
9.61607e-10
5.08705e-08
9.44435e-10
5.08477e-08
9.19865e-10
5.08237e-08
9.02218e-10
5.07992e-08
8.76685e-10
5.07738e-08
8.57369e-10
5.07476e-08
8.31696e-10
5.07207e-08
8.10872e-10
5.0693e-08
7.84489e-10
5.06645e-08
7.63555e-10
5.06356e-08
7.35125e-10
5.06055e-08
7.15682e-10
5.05752e-08
6.85394e-10
5.05439e-08
6.66462e-10
5.05122e-08
6.3677e-10
5.04799e-08
6.177e-10
5.04469e-08
5.88846e-10
5.04132e-08
5.71905e-10
5.03795e-08
5.42391e-10
5.03448e-08
5.29991e-10
5.03098e-08
5.01718e-10
5.02745e-08
4.92371e-10
5.02387e-08
4.67638e-10
5.02025e-08
4.63865e-10
4.42179e-10
5.17176e-08
1.64581e-09
-5.16493e-08
5.18069e-08
1.82903e-09
5.19165e-08
1.98855e-09
5.20434e-08
2.13296e-09
5.21821e-08
2.25351e-09
5.2323e-08
2.34084e-09
5.24571e-08
2.39064e-09
5.25781e-08
2.40461e-09
5.26837e-08
2.39009e-09
5.27738e-08
2.3556e-09
5.28492e-08
2.30965e-09
5.29112e-08
2.2576e-09
5.29608e-08
2.20375e-09
5.30002e-08
2.15033e-09
5.30315e-08
2.09973e-09
5.30567e-08
2.05263e-09
5.30772e-08
2.00965e-09
5.30941e-08
1.97013e-09
5.31079e-08
1.93369e-09
5.31192e-08
1.89981e-09
5.31285e-08
1.86801e-09
5.31359e-08
1.83839e-09
5.31419e-08
1.81019e-09
5.31466e-08
1.78407e-09
5.31502e-08
1.75875e-09
5.31528e-08
1.73547e-09
5.31547e-08
1.71246e-09
5.31556e-08
1.69146e-09
5.31562e-08
1.6704e-09
5.3156e-08
1.65125e-09
5.31555e-08
1.6319e-09
5.31546e-08
1.61419e-09
5.31534e-08
1.59638e-09
5.31518e-08
1.57972e-09
5.31501e-08
1.56331e-09
5.31482e-08
1.54741e-09
5.3146e-08
1.53221e-09
5.31438e-08
1.51692e-09
5.31414e-08
1.50266e-09
5.3139e-08
1.48796e-09
5.31364e-08
1.47432e-09
5.31338e-08
1.46027e-09
5.31312e-08
1.44694e-09
5.31285e-08
1.43356e-09
5.31258e-08
1.42038e-09
5.3123e-08
1.40752e-09
5.31202e-08
1.39456e-09
5.31173e-08
1.38184e-09
5.31144e-08
1.36935e-09
5.31116e-08
1.35632e-09
5.31085e-08
1.34449e-09
5.31056e-08
1.33095e-09
5.31024e-08
1.31956e-09
5.30993e-08
1.30578e-09
5.3096e-08
1.2942e-09
5.30926e-08
1.28074e-09
5.30892e-08
1.26821e-09
5.30855e-08
1.25543e-09
5.30819e-08
1.24182e-09
5.30778e-08
1.22916e-09
5.30738e-08
1.21526e-09
5.30696e-08
1.20147e-09
5.30649e-08
1.18837e-09
5.30604e-08
1.17239e-09
5.30551e-08
1.16039e-09
5.30501e-08
1.1425e-09
5.30443e-08
1.13034e-09
5.30384e-08
1.11208e-09
5.30322e-08
1.09806e-09
5.30253e-08
1.08047e-09
5.30185e-08
1.06409e-09
5.30109e-08
1.04659e-09
5.3003e-08
1.02916e-09
5.29947e-08
1.00982e-09
5.29857e-08
9.9298e-10
5.29765e-08
9.7075e-10
5.29664e-08
9.54581e-10
5.29561e-08
9.30135e-10
5.2945e-08
9.13324e-10
5.29334e-08
8.88345e-10
5.29213e-08
8.6946e-10
5.29082e-08
8.44724e-10
5.28949e-08
8.24189e-10
5.28807e-08
7.9873e-10
5.28658e-08
7.78433e-10
5.28505e-08
7.50422e-10
5.28341e-08
7.32123e-10
5.28173e-08
7.02133e-10
5.27997e-08
6.84046e-10
5.27813e-08
6.55253e-10
5.27625e-08
6.36492e-10
5.27426e-08
6.08751e-10
5.2722e-08
5.92433e-10
5.27011e-08
5.63324e-10
5.26792e-08
5.51866e-10
5.26566e-08
5.24315e-10
5.26339e-08
5.15146e-10
5.26099e-08
4.91596e-10
5.25857e-08
4.88064e-10
4.66901e-10
5.36879e-08
1.5802e-09
-5.36223e-08
5.37709e-08
1.74601e-09
5.38706e-08
1.88887e-09
5.39848e-08
2.01875e-09
5.41093e-08
2.12907e-09
5.42372e-08
2.21294e-09
5.43612e-08
2.26661e-09
5.44757e-08
2.29011e-09
5.45774e-08
2.28835e-09
5.46657e-08
2.26738e-09
5.47408e-08
2.23456e-09
5.48037e-08
2.19463e-09
5.48556e-08
2.15187e-09
5.48979e-08
2.10805e-09
5.49322e-08
2.06541e-09
5.49603e-08
2.02456e-09
5.49834e-08
1.98648e-09
5.50027e-08
1.95089e-09
5.50187e-08
1.91766e-09
5.50319e-08
1.88658e-09
5.50429e-08
1.85702e-09
5.50519e-08
1.82947e-09
5.50592e-08
1.80281e-09
5.5065e-08
1.77827e-09