/*--------------------------------*- C++ -*----------------------------------*\
| =========                 |                                                 |
| \\      /  F ield         | OpenFOAM: The Open Source CFD Toolbox           |
|  \\    /   O peration     | Version:  2.3.0                                 |
|   \\  /    A nd           | Web:      www.OpenFOAM.org                      |
|    \\/     M anipulation  |                                                 |
\*---------------------------------------------------------------------------*/
FoamFile
{
    version     2.0;
    format      ascii;
    class       surfaceScalarField;
    location    "0.25";
    object      phi;
}
// * * * * * * * * * * * * * * * * * * * * * * * * * * * * * * * * * * * * * //

dimensions      [0 3 -1 0 0 0 0];

internalField   nonuniform List<scalar> 
5764
(
1.93978e-08
4.30041e-09
-2.36982e-08
1.5619e-08
3.77874e-09
1.2522e-08
3.09708e-09
1.0094e-08
2.42791e-09
8.27196e-09
1.82209e-09
6.95338e-09
1.31858e-09
6.0196e-09
9.33781e-10
5.35919e-09
6.60413e-10
4.88217e-09
4.7702e-10
4.52382e-09
3.58345e-10
4.2417e-09
2.8212e-10
4.0098e-09
2.31904e-10
3.81276e-09
1.97039e-10
3.64151e-09
1.71248e-10
3.49045e-09
1.5106e-10
3.35585e-09
1.34598e-10
3.23504e-09
1.20816e-10
3.12595e-09
1.09086e-10
3.02696e-09
9.89866e-11
2.93675e-09
9.02098e-11
2.85424e-09
8.25165e-11
2.77852e-09
7.57161e-11
2.70887e-09
6.96554e-11
2.64466e-09
6.42103e-11
2.58538e-09
5.92804e-11
2.53059e-09
5.47836e-11
2.47994e-09
5.06523e-11
2.43311e-09
4.68306e-11
2.38984e-09
4.32714e-11
2.3499e-09
3.99351e-11
2.31311e-09
3.67878e-11
2.27931e-09
3.37998e-11
2.24837e-09
3.09448e-11
2.22017e-09
2.81983e-11
2.19464e-09
2.55358e-11
2.1717e-09
2.29317e-11
2.15135e-09
2.03575e-11
2.13356e-09
1.77817e-11
2.11839e-09
1.51706e-11
2.10591e-09
1.24891e-11
2.0962e-09
9.70225e-12
2.08943e-09
6.77287e-12
2.0858e-09
3.635e-12
2.08536e-09
4.37587e-13
2.08747e-09
-2.11222e-12
2.09139e-09
-3.91976e-12
2.09658e-09
-5.1868e-12
2.10253e-09
-5.95748e-12
2.10885e-09
-6.31453e-12
2.1152e-09
-6.35168e-12
2.12136e-09
-6.15889e-12
2.12717e-09
-5.81502e-12
2.13256e-09
-5.38373e-12
2.13747e-09
-4.91251e-12
2.1419e-09
-4.43434e-12
2.14587e-09
-3.97024e-12
2.14941e-09
-3.53246e-12
2.15253e-09
-3.12707e-12
2.15529e-09
-2.75616e-12
2.15771e-09
-2.41944e-12
2.15983e-09
-2.11537e-12
2.16167e-09
-1.84181e-12
2.16326e-09
-1.59647e-12
2.16464e-09
-1.37711e-12
2.16582e-09
-1.1816e-12
2.16683e-09
-1.00796e-12
2.16768e-09
-8.54368e-13
2.1684e-09
-7.191e-13
2.169e-09
-6.00501e-13
2.1695e-09
-4.96968e-13
2.16991e-09
-4.06997e-13
2.17024e-09
-3.29572e-13
2.1705e-09
-2.66709e-13
2.17074e-09
-2.39827e-13
-6.51013e-13
2.57867e-08
5.22252e-09
-2.67088e-08
2.43512e-08
5.21423e-09
2.27073e-08
4.74096e-09
2.10342e-08
4.10102e-09
1.94402e-08
3.41614e-09
1.79848e-08
2.77397e-09
1.66906e-08
2.22801e-09
1.5557e-08
1.79394e-09
1.45718e-08
1.46225e-09
1.37173e-08
1.21286e-09
1.29747e-08
1.0247e-09
1.23263e-08
8.80281e-10
1.17566e-08
7.66789e-10
1.12524e-08
6.75447e-10
1.0803e-08
6.00398e-10
1.03999e-08
5.37698e-10
1.00361e-08
4.84609e-10
9.70607e-09
4.39153e-10
9.40522e-09
3.99845e-10
9.12989e-09
3.6554e-10
8.87707e-09
3.35337e-10
8.64426e-09
3.08522e-10
8.42939e-09
2.8452e-10
8.23074e-09
2.62867e-10
8.04683e-09
2.43183e-10
7.87646e-09
2.25157e-10
7.71858e-09
2.08532e-10
7.57232e-09
1.9309e-10
7.43695e-09
1.78648e-10
7.31183e-09
1.65049e-10
7.19646e-09
1.52157e-10
7.09041e-09
1.39854e-10
6.99332e-09
1.28033e-10
6.90493e-09
1.16594e-10
6.82502e-09
1.05443e-10
6.75346e-09
9.44876e-11
6.69019e-09
8.36327e-11
6.63518e-09
7.27874e-11
6.58848e-09
6.18684e-11
6.55016e-09
5.08113e-11
6.52028e-09
3.95832e-11
6.49886e-09
2.81964e-11
6.48582e-09
1.66726e-11
6.48112e-09
5.13498e-12
6.48369e-09
-4.67714e-12
6.49139e-09
-1.16233e-11
6.50252e-09
-1.63134e-11
6.51576e-09
-1.91993e-11
6.53009e-09
-2.06424e-11
6.54472e-09
-2.09814e-11
6.55908e-09
-2.05245e-11
6.5728e-09
-1.95354e-11
6.58564e-09
-1.8225e-11
6.59748e-09
-1.67515e-11
6.60827e-09
-1.52259e-11
6.61802e-09
-1.3721e-11
6.62677e-09
-1.22811e-11
6.63458e-09
-1.09302e-11
6.6415e-09
-9.67942e-12
6.64761e-09
-8.5314e-12
6.65298e-09
-7.48436e-12
6.65767e-09
-6.53413e-12
6.66175e-09
-5.67553e-12
6.66528e-09
-4.90304e-12
6.66831e-09
-4.21118e-12
6.67089e-09
-3.59455e-12
6.67309e-09
-3.04789e-12
6.67493e-09
-2.56597e-12
6.67648e-09
-2.14354e-12
6.67776e-09
-1.77536e-12
6.67881e-09
-1.45641e-12
6.67966e-09
-1.18384e-12
6.68036e-09
-9.65064e-13
6.68102e-09
-9.01128e-13
-1.62772e-12
2.80705e-08
5.20455e-09
-2.80525e-08
2.7767e-08
5.51773e-09
2.71922e-08
5.31579e-09
2.64272e-08
4.86601e-09
2.5547e-08
4.29629e-09
2.46158e-08
3.70516e-09
2.368e-08
3.16382e-09
2.27688e-08
2.70519e-09
2.18984e-08
2.33264e-09
2.10767e-08
2.03458e-09
2.03062e-08
1.79514e-09
1.95867e-08
1.5998e-09
1.89162e-08
1.43731e-09
1.8292e-08
1.29964e-09
1.77112e-08
1.18124e-09
1.71706e-08
1.07824e-09
1.66674e-08
9.87855e-10
1.61986e-08
9.0795e-10
1.57615e-08
8.36863e-10
1.53538e-08
7.73244e-10
1.49732e-08
7.15975e-10
1.46176e-08
6.64123e-10
1.42852e-08
6.16901e-10
1.39744e-08
5.73643e-10
1.36838e-08
5.33782e-10
1.34122e-08
4.96831e-10
1.31583e-08
4.62371e-10
1.29214e-08
4.30039e-10
1.27005e-08
3.99515e-10
1.2495e-08
3.70519e-10
1.23044e-08
3.42802e-10
1.21281e-08
3.16141e-10
1.19658e-08
2.90329e-10
1.18172e-08
2.65177e-10
1.16822e-08
2.40505e-10
1.15605e-08
2.1614e-10
1.14522e-08
1.91922e-10
1.13573e-08
1.67709e-10
1.12758e-08
1.43399e-10
1.12076e-08
1.18953e-10
1.11528e-08
9.44319e-11
1.11109e-08
7.00511e-11
1.10814e-08
4.62437e-11
1.10631e-08
2.34185e-11
1.10558e-08
2.57429e-12
1.10581e-08
-1.38771e-11
1.10669e-08
-2.51732e-11
1.10802e-08
-3.24732e-11
1.10962e-08
-3.66582e-11
1.11137e-08
-3.84595e-11
1.11317e-08
-3.85106e-11
1.11495e-08
-3.7346e-11
1.11667e-08
-3.53953e-11
1.11829e-08
-3.29856e-11
1.1198e-08
-3.03532e-11
1.1212e-08
-2.76596e-11
1.12247e-08
-2.50092e-11
1.12362e-08
-2.24654e-11
1.12466e-08
-2.00636e-11
1.12559e-08
-1.78212e-11
1.12642e-08
-1.57446e-11
1.12715e-08
-1.38339e-11
1.12779e-08
-1.20861e-11
1.12835e-08
-1.04961e-11
1.12883e-08
-9.0579e-12
1.12925e-08
-7.76492e-12
1.12961e-08
-6.60997e-12
1.12991e-08
-5.58523e-12
1.13016e-08
-4.68228e-12
1.13037e-08
-3.89208e-12
1.13055e-08
-3.2057e-12
1.13069e-08
-2.61805e-12
1.13081e-08
-2.14353e-12
1.13091e-08
-1.95008e-12
-2.74891e-12
2.93418e-08
4.94296e-09
-2.90802e-08
2.94688e-08
5.39075e-09
2.94193e-08
5.36522e-09
2.92034e-08
5.0819e-09
2.88471e-08
4.65261e-09
2.83869e-08
4.16535e-09
2.78592e-08
3.69155e-09
2.7293e-08
3.27136e-09
2.6709e-08
2.91663e-09
2.61208e-08
2.6228e-09
2.55369e-08
2.37903e-09
2.49627e-08
2.17402e-09
2.44016e-08
1.99845e-09
2.38557e-08
1.84547e-09
2.33267e-08
1.71023e-09
2.28156e-08
1.58935e-09
2.23231e-08
1.48039e-09
2.18495e-08
1.38152e-09
2.13951e-08
1.29129e-09
2.09598e-08
1.20854e-09
2.05435e-08
1.13229e-09
2.01459e-08
1.06169e-09
1.97668e-08
9.96028e-10
1.94058e-08
9.34674e-10
1.90625e-08
8.77075e-10
1.87366e-08
8.22742e-10
1.84277e-08
7.71238e-10
1.81356e-08
7.22167e-10
1.78599e-08
6.75172e-10
1.76005e-08
6.29926e-10
1.73572e-08
5.86128e-10
1.71298e-08
5.43497e-10
1.69184e-08
5.0177e-10
1.67229e-08
4.60698e-10
1.65433e-08
4.20045e-10
1.63799e-08
3.79592e-10
1.62326e-08
3.39144e-10
1.61018e-08
2.98558e-10
1.59874e-08
2.57767e-10
1.58895e-08
2.16832e-10
1.5808e-08
1.75998e-10
1.57423e-08
1.35779e-10
1.56915e-08
9.70468e-11
1.56539e-08
6.09798e-11
1.56281e-08
2.83761e-11
1.5614e-08
1.62742e-13
1.56106e-08
-2.16753e-11
1.56147e-08
-3.6637e-11
1.56243e-08
-4.62342e-11
1.56375e-08
-5.16875e-11
1.5653e-08
-5.40212e-11
1.56698e-08
-5.4095e-11
1.5687e-08
-5.26072e-11
1.57041e-08
-5.01011e-11
1.57207e-08
-4.69817e-11
1.57366e-08
-4.35383e-11
1.57516e-08
-3.99699e-11
1.57655e-08
-3.6408e-11
1.57784e-08
-3.29365e-11
1.57902e-08
-2.9607e-11
1.58009e-08
-2.64503e-11
1.58105e-08
-2.34842e-11
1.58192e-08
-2.07187e-11
1.58268e-08
-1.81587e-11
1.58336e-08
-1.58057e-11
1.58395e-08
-1.36589e-11
1.58446e-08
-1.17152e-11
1.5849e-08
-9.96933e-12
1.58527e-08
-8.4139e-12
1.58558e-08
-7.0394e-12
1.58585e-08
-5.83533e-12
1.58606e-08
-4.79538e-12
1.58624e-08
-3.93896e-12
1.5864e-08
-3.4616e-12
-4.06617e-12
3.03539e-08
4.64565e-09
-3.00565e-08
3.06124e-08
5.13216e-09
3.07739e-08
5.20377e-09
3.08234e-08
5.03242e-09
3.07609e-08
4.71508e-09
3.06007e-08
4.32555e-09
3.03645e-08
3.92774e-09
3.00736e-08
3.56229e-09
2.9745e-08
3.24523e-09
2.9391e-08
2.97673e-09
2.90202e-08
2.74984e-09
2.86382e-08
2.556e-09
2.82491e-08
2.38757e-09
2.78559e-08
2.23869e-09
2.7461e-08
2.1051e-09
2.70666e-08
1.98379e-09
2.66744e-08
1.87259e-09
2.6286e-08
1.76991e-09
2.59028e-08
1.67449e-09
2.5526e-08
1.58535e-09
2.51567e-08
1.50164e-09
2.47957e-08
1.42269e-09
2.44438e-08
1.34787e-09
2.41018e-08
1.27665e-09
2.37703e-08
1.20858e-09
2.34498e-08
1.14322e-09
2.31409e-08
1.08019e-09
2.28439e-08
1.01913e-09
2.25594e-08
9.59703e-10
2.22877e-08
9.01597e-10
2.20293e-08
8.44514e-10
2.17847e-08
7.88169e-10
2.15542e-08
7.32287e-10
2.13382e-08
6.76605e-10
2.11374e-08
6.20876e-10
2.09521e-08
5.64877e-10
2.07828e-08
5.08431e-10
2.063e-08
4.51441e-10
2.04938e-08
3.93935e-10
2.03745e-08
3.36133e-10
2.0272e-08
2.78522e-10
2.01858e-08
2.21945e-10
2.01152e-08
1.67672e-10
2.00588e-08
1.17332e-10
2.00147e-08
7.24962e-11
1.99812e-08
3.36853e-11
1.99586e-08
9.2812e-13
1.99463e-08
-2.44029e-11
1.99422e-08
-4.2067e-11
1.99441e-08
-5.36568e-11
1.99507e-08
-6.05347e-11
1.99604e-08
-6.38588e-11
1.99724e-08
-6.45871e-11
1.99858e-08
-6.34846e-11
1.99999e-08
-6.11401e-11
2.00144e-08
-5.79918e-11
2.00288e-08
-5.43561e-11
2.00428e-08
-5.04564e-11
2.00563e-08
-4.64472e-11
2.00692e-08
-4.24346e-11
2.00812e-08
-3.84917e-11
2.00924e-08
-3.46699e-11
2.01027e-08
-3.10063e-11
2.01121e-08
-2.75283e-11
2.01205e-08
-2.42569e-11
2.01281e-08
-2.12076e-11
2.01347e-08
-1.83916e-11
2.01406e-08
-1.58152e-11
2.01456e-08
-1.34805e-11
2.015e-08
-1.1385e-11
2.01537e-08
-9.52305e-12
2.01568e-08
-7.89099e-12
2.01593e-08
-6.51053e-12
2.01615e-08
-5.56847e-12
-5.6623e-12
3.1317e-08
4.36858e-09
-3.10399e-08
3.15976e-08
4.85153e-09
3.18252e-08
4.97617e-09
3.19807e-08
4.87692e-09
3.20562e-08
4.63958e-09
3.20549e-08
4.32682e-09
3.19888e-08
3.99386e-09
3.18722e-08
3.67892e-09
3.17176e-08
3.39976e-09
3.15348e-08
3.15958e-09
3.13304e-08
2.95429e-09
3.11089e-08
2.77747e-09
3.08736e-08
2.6229e-09
3.06267e-08
2.48551e-09
3.03704e-08
2.36147e-09
3.01061e-08
2.24802e-09
2.98356e-08
2.14314e-09
2.95602e-08
2.04532e-09
2.92813e-08
1.95339e-09
2.90002e-08
1.86645e-09
2.87181e-08
1.78373e-09
2.84362e-08
1.7046e-09
2.81555e-08
1.62852e-09
2.78771e-08
1.55502e-09
2.76021e-08
1.48367e-09
2.73312e-08
1.41409e-09
2.70655e-08
1.34593e-09
2.68057e-08
1.27887e-09
2.65528e-08
1.2126e-09
2.63076e-08
1.14681e-09
2.60709e-08
1.08123e-09
2.58435e-08
1.01557e-09
2.56262e-08
9.49566e-10
2.54199e-08
8.82959e-10
2.52252e-08
8.15511e-10
2.50431e-08
7.47025e-10
2.48741e-08
6.77367e-10
2.47191e-08
6.06519e-10
2.45784e-08
5.34633e-10
2.44524e-08
4.62113e-10
2.43412e-08
3.89693e-10
2.42446e-08
3.18523e-10
2.41621e-08
2.50198e-10
2.40928e-08
1.86645e-10
2.40356e-08
1.29732e-10
2.39886e-08
8.06164e-11
2.39503e-08
3.92474e-11
2.3921e-08
4.94789e-12
2.39007e-08
-2.18381e-11
2.38881e-08
-4.10312e-11
2.38817e-08
-5.41058e-11
2.38802e-08
-6.23902e-11
2.38826e-08
-6.70152e-11
2.38881e-08
-6.891e-11
2.38957e-08
-6.88123e-11
2.3905e-08
-6.72906e-11
2.39154e-08
-6.47725e-11
2.39266e-08
-6.15737e-11
2.3938e-08
-5.79246e-11
2.39496e-08
-5.39935e-11
2.3961e-08
-4.99049e-11
2.39721e-08
-4.57527e-11
2.39827e-08
-4.16107e-11
2.39927e-08
-3.75385e-11
2.4002e-08
-3.35856e-11
2.40106e-08
-2.9794e-11
2.40184e-08
-2.61987e-11
2.40254e-08
-2.28281e-11
2.40317e-08
-1.9704e-11
2.40371e-08
-1.68407e-11
2.40418e-08
-1.42465e-11
2.40459e-08
-1.19277e-11
2.40493e-08
-9.90809e-12
2.4052e-08
-8.33779e-12
-7.58136e-12
3.22891e-08
4.12231e-09
-3.20428e-08
3.25571e-08
4.5835e-09
3.27945e-08
4.73872e-09
3.29826e-08
4.68888e-09
3.31125e-08
4.50963e-09
3.31838e-08
4.2555e-09
3.32035e-08
3.97417e-09
3.31817e-08
3.70071e-09
3.31281e-08
3.45343e-09
3.305e-08
3.23761e-09
3.29529e-08
3.05139e-09
3.28403e-08
2.89014e-09
3.27143e-08
2.74886e-09
3.25766e-08
2.62317e-09
3.24285e-08
2.50965e-09
3.22708e-08
2.40569e-09
3.21046e-08
2.30935e-09
3.19308e-08
2.21915e-09
3.17502e-08
2.13396e-09
3.15638e-08
2.05286e-09
3.13724e-08
1.97508e-09
3.1177e-08
1.9e-09
3.09785e-08
1.82708e-09
3.07777e-08
1.75585e-09
3.05754e-08
1.68588e-09
3.03727e-08
1.61681e-09
3.01704e-08
1.54827e-09
2.99693e-08
1.47994e-09
2.97704e-08
1.41151e-09
2.95745e-08
1.34267e-09
2.93826e-08
1.27313e-09
2.91956e-08
1.20261e-09
2.90143e-08
1.13083e-09
2.88398e-08
1.05755e-09
2.86727e-08
9.82521e-10
2.85142e-08
9.05584e-10
2.83649e-08
8.26653e-10
2.82256e-08
7.45787e-10
2.8097e-08
6.63261e-10
2.79795e-08
5.79644e-10
2.78733e-08
4.95885e-10
2.77784e-08
4.13378e-10
2.76947e-08
3.33952e-10
2.76216e-08
2.59719e-10
2.75586e-08
1.92694e-10
2.7505e-08
1.34249e-10
2.74595e-08
8.47863e-11
2.74205e-08
4.38741e-11
2.73883e-08
1.03853e-11
2.73633e-08
-1.60346e-11
2.73448e-08
-3.55678e-11
2.73318e-08
-4.94155e-11
2.73236e-08
-5.87731e-11
2.73193e-08
-6.4642e-11
2.73183e-08
-6.78388e-11
2.732e-08
-6.90109e-11
2.73239e-08
-6.86601e-11
2.73295e-08
-6.71689e-11
2.73364e-08
-6.48266e-11
2.73443e-08
-6.18523e-11
2.73528e-08
-5.84142e-11
2.73617e-08
-5.46447e-11
2.73707e-08
-5.06519e-11
2.73797e-08
-4.65268e-11
2.73885e-08
-4.2349e-11
2.73969e-08
-3.81892e-11
2.74048e-08
-3.41106e-11
2.74121e-08
-3.01692e-11
2.74188e-08
-2.64132e-11
2.74249e-08
-2.2882e-11
2.74302e-08
-1.96061e-11
2.74349e-08
-1.66093e-11
2.74389e-08
-1.39201e-11
2.74422e-08
-1.16345e-11
-9.75722e-12
3.32853e-08
3.90531e-09
-3.30683e-08
3.35318e-08
4.33697e-09
3.37603e-08
4.51026e-09
3.39519e-08
4.49721e-09
3.40987e-08
4.36288e-09
3.41989e-08
4.15531e-09
3.42572e-08
3.91587e-09
3.42815e-08
3.67641e-09
3.42797e-08
3.45522e-09
3.42582e-08
3.25911e-09
3.42215e-08
3.08805e-09
3.41726e-08
2.93901e-09
3.41134e-08
2.80807e-09
3.4045e-08
2.69157e-09
3.39682e-08
2.58648e-09
3.38835e-08
2.4904e-09
3.37914e-08
2.40146e-09
3.36923e-08
2.31823e-09
3.35867e-08
2.23955e-09
3.34751e-08
2.16448e-09
3.33579e-08
2.09226e-09
3.32357e-08
2.02222e-09
3.3109e-08
1.9538e-09
3.29783e-08
1.8865e-09
3.28443e-08
1.81988e-09
3.27076e-08
1.75351e-09
3.25688e-08
1.68704e-09
3.24287e-08
1.6201e-09
3.22878e-08
1.55236e-09
3.2147e-08
1.48348e-09
3.2007e-08
1.41315e-09
3.18685e-08
1.34107e-09
3.17324e-08
1.26694e-09
3.15995e-08
1.19051e-09
3.14705e-08
1.11154e-09
3.13462e-08
1.02987e-09
3.12274e-08
9.45474e-10
3.11147e-08
8.58462e-10
3.10087e-08
7.69208e-10
3.091e-08
6.78407e-10
3.08187e-08
5.87162e-10
3.0735e-08
4.97025e-10
3.0659e-08
4.09966e-10
3.05906e-08
3.28192e-10
3.05295e-08
2.5377e-10
3.04756e-08
1.88169e-10
3.04284e-08
1.31986e-10
3.03872e-08
8.50598e-11
3.03509e-08
4.66193e-11
3.03195e-08
1.54151e-11
3.02933e-08
-9.3915e-12
3.02722e-08
-2.82757e-11
3.02556e-08
-4.21667e-11
3.0243e-08
-5.20752e-11
3.0234e-08
-5.8835e-11
3.02281e-08
-6.31192e-11
3.02249e-08
-6.54604e-11
3.0224e-08
-6.62732e-11
3.02251e-08
-6.58772e-11
3.02277e-08
-6.45194e-11
3.02317e-08
-6.23931e-11
3.02367e-08
-5.96536e-11
3.02425e-08
-5.64301e-11
3.02488e-08
-5.28348e-11
3.02554e-08
-4.8968e-11
3.02622e-08
-4.49227e-11
3.02688e-08
-4.07858e-11
3.02753e-08
-3.66381e-11
3.02814e-08
-3.25541e-11
3.02872e-08
-2.85998e-11
3.02924e-08
-2.48316e-11
3.02971e-08
-2.1295e-11
3.03012e-08
-1.80258e-11
3.03046e-08
-1.50603e-11
-1.19772e-11
3.43093e-08
3.71362e-09
-3.41176e-08
3.45334e-08
4.11286e-09
3.47476e-08
4.29606e-09
3.49331e-08
4.31174e-09
3.50818e-08
4.21411e-09
3.51918e-08
4.04534e-09
3.52662e-08
3.84147e-09
3.53114e-08
3.63117e-09
3.53344e-08
3.43227e-09
3.53408e-08
3.25269e-09
3.53349e-08
3.09395e-09
3.53196e-08
2.95436e-09
3.52965e-08
2.83109e-09
3.52669e-08
2.7212e-09
3.52313e-08
2.62206e-09
3.51902e-08
2.53152e-09
3.51438e-08
2.44786e-09
3.50923e-08
2.36969e-09
3.5036e-08
2.29588e-09
3.4975e-08
2.22549e-09
3.49095e-08
2.15774e-09
3.48398e-08
2.09196e-09
3.4766e-08
2.02753e-09
3.46886e-08
1.96395e-09
3.46077e-08
1.90073e-09
3.45238e-08
1.83743e-09
3.44372e-08
1.77365e-09
3.43483e-08
1.70898e-09
3.42576e-08
1.64307e-09
3.41655e-08
1.57555e-09
3.40726e-08
1.50607e-09
3.39794e-08
1.43431e-09
3.38864e-08
1.35994e-09
3.37942e-08
1.2827e-09
3.37034e-08
1.20234e-09
3.36145e-08
1.11873e-09
3.35282e-08
1.03183e-09
3.34448e-08
9.41813e-10
3.33649e-08
8.49118e-10
3.32888e-08
7.54516e-10
3.32168e-08
6.59198e-10
3.3149e-08
5.64794e-10
3.30856e-08
4.73326e-10
3.30268e-08
3.87008e-10
3.29727e-08
3.07905e-10
3.29233e-08
2.37517e-10
3.28788e-08
1.76546e-10
3.28388e-08
1.24984e-10
3.28032e-08
8.22527e-11
3.27712e-08
4.73867e-11
3.27427e-08
1.91786e-11
3.27178e-08
-3.3906e-12
3.26966e-08
-2.09823e-11
3.26789e-08
-3.43409e-11
3.26643e-08
-4.42843e-11
3.26527e-08
-5.14816e-11
3.26437e-08
-5.64681e-11
3.26371e-08
-5.96648e-11
3.26326e-08
-6.13994e-11
3.263e-08
-6.19266e-11
3.26291e-08
-6.14468e-11
3.26295e-08
-6.01213e-11
3.26312e-08
-5.80851e-11
3.26338e-08
-5.54566e-11
3.26372e-08
-5.2344e-11
3.26411e-08
-4.885e-11
3.26454e-08
-4.50744e-11
3.26499e-08
-4.1114e-11
3.26544e-08
-3.70623e-11
3.26588e-08
-3.30067e-11
3.2663e-08
-2.90264e-11
3.26669e-08
-2.51875e-11
3.26704e-08
-2.15336e-11
3.26734e-08
-1.80468e-11
-1.3923e-11
3.53622e-08
3.54327e-09
-3.51918e-08
3.55652e-08
3.90982e-09
3.57643e-08
4.09702e-09
3.59406e-08
4.13539e-09
3.60862e-08
4.06856e-09
3.61983e-08
3.93316e-09
3.62793e-08
3.76055e-09
3.63341e-08
3.57633e-09
3.63688e-08
3.39756e-09
3.63887e-08
3.23284e-09
3.63977e-08
3.0849e-09
3.63988e-08
2.95328e-09
3.63938e-08
2.8361e-09
3.63839e-08
2.73111e-09
3.63698e-08
2.63615e-09
3.6352e-08
2.54935e-09
3.63307e-08
2.46915e-09
3.63061e-08
2.39427e-09
3.62784e-08
2.32362e-09
3.62476e-08
2.2563e-09
3.62138e-08
2.19154e-09
3.6177e-08
2.12866e-09
3.61375e-08
2.06706e-09
3.60953e-08
2.00619e-09
3.60504e-08
1.94557e-09
3.60032e-08
1.88472e-09
3.59536e-08
1.82321e-09
3.5902e-08
1.76063e-09
3.58484e-08
1.69658e-09
3.57933e-08
1.63068e-09
3.57368e-08
1.56256e-09
3.56793e-08
1.49185e-09
3.5621e-08
1.41823e-09
3.55623e-08
1.3414e-09
3.55035e-08
1.26114e-09
3.54449e-08
1.17728e-09
3.53869e-08
1.08983e-09
3.53298e-08
9.98982e-10
3.52737e-08
9.052e-10
3.52189e-08
8.09297e-10
3.51656e-08
7.12493e-10
3.5114e-08
6.16429e-10
3.50642e-08
5.23103e-10
3.50165e-08
4.3468e-10
3.49713e-08
3.53166e-10
3.49287e-08
2.80053e-10
3.48892e-08
2.16107e-10
3.48527e-08
1.6142e-10
3.48194e-08
1.15547e-10
3.47892e-08
7.76717e-11
3.47616e-08
4.67725e-11
3.47364e-08
2.17478e-11
3.47139e-08
1.59235e-12
3.46939e-08
-1.44102e-11
3.46765e-08
-2.68825e-11
3.46615e-08
-3.64748e-11
3.46488e-08
-4.37143e-11
3.46381e-08
-4.90187e-11
3.46294e-08
-5.2714e-11
3.46226e-08
-5.50528e-11
3.46173e-08
-5.62326e-11
3.46136e-08
-5.64107e-11
3.46113e-08
-5.57176e-11
3.46101e-08
-5.42666e-11
3.46099e-08
-5.21626e-11
3.46105e-08
-4.95068e-11
3.46119e-08
-4.64003e-11
3.46137e-08
-4.29451e-11
3.46159e-08
-3.92434e-11
3.46183e-08
-3.53954e-11
3.46207e-08
-3.14956e-11
3.46232e-08
-2.76252e-11
3.46255e-08
-2.38337e-11
3.46275e-08
-2.00636e-11
-1.52767e-11
3.64446e-08
3.39084e-09
-3.62922e-08
3.66285e-08
3.72596e-09
3.68127e-08
3.91279e-09
3.69793e-08
3.96882e-09
3.71198e-08
3.928e-09
3.72313e-08
3.82165e-09
3.73149e-08
3.67697e-09
3.73746e-08
3.51665e-09
3.74155e-08
3.35668e-09
3.74423e-08
3.20601e-09
3.74589e-08
3.06829e-09
3.74681e-08
2.94407e-09
3.74719e-08
2.83234e-09
3.74715e-08
2.73148e-09
3.74679e-08
2.63979e-09
3.74615e-08
2.55571e-09
3.74528e-08
2.47786e-09
3.7442e-08
2.40509e-09
3.74292e-08
2.3364e-09
3.74146e-08
2.27094e-09
3.73981e-08
2.20797e-09
3.738e-08
2.14683e-09
3.73601e-08
2.08692e-09
3.73386e-08
2.02772e-09
3.73154e-08
1.96872e-09
3.72907e-08
1.90945e-09
3.72644e-08
1.84948e-09
3.72367e-08
1.78838e-09
3.72075e-08
1.72573e-09
3.71771e-08
1.66114e-09
3.71454e-08
1.59424e-09
3.71126e-08
1.52464e-09
3.70788e-08
1.45201e-09
3.70442e-08
1.37605e-09
3.70088e-08
1.29653e-09
3.69727e-08
1.21331e-09
3.69362e-08
1.12639e-09
3.68992e-08
1.03599e-09
3.68618e-08
9.42582e-10
3.68241e-08
8.46985e-10
3.67862e-08
7.50409e-10
3.67482e-08
6.54455e-10
3.67102e-08
5.61048e-10
3.66726e-08
4.72255e-10
3.66358e-08
3.89994e-10
3.66001e-08
3.15717e-10
3.6566e-08
2.5022e-10
3.65338e-08
1.93673e-10
3.65036e-08
1.45736e-10
3.64756e-08
1.05708e-10
3.64496e-08
7.26816e-11
3.64257e-08
4.56689e-11
3.64036e-08
2.36962e-11
3.63833e-08
5.87036e-12
3.6365e-08
-8.49206e-12
3.63484e-08
-1.99287e-11
3.63336e-08
-2.89464e-11
3.63206e-08
-3.596e-11
3.63092e-08
-4.12927e-11
3.62993e-08
-4.51942e-11
3.62909e-08
-4.78572e-11
3.62839e-08
-4.94325e-11
3.62783e-08
-5.0042e-11
3.62738e-08
-4.979e-11
3.62704e-08
-4.87716e-11
3.6268e-08
-4.70796e-11
3.62664e-08
-4.48086e-11
3.62655e-08
-4.20571e-11
3.62652e-08
-3.89276e-11
3.62653e-08
-3.55241e-11
3.62658e-08
-3.19479e-11
3.62664e-08
-2.82887e-11
3.62672e-08
-2.45997e-11
3.62679e-08
-2.08031e-11
-1.58263e-11
3.75571e-08
3.25353e-09
-3.74198e-08
3.77238e-08
3.55928e-09
3.7894e-08
3.74261e-09
3.80508e-08
3.81202e-09
3.81857e-08
3.79308e-09
3.82953e-08
3.71206e-09
3.83799e-08
3.59242e-09
3.84424e-08
3.45413e-09
3.84871e-08
3.31196e-09
3.85182e-08
3.17489e-09
3.85393e-08
3.04724e-09
3.8553e-08
2.93035e-09
3.85614e-08
2.82396e-09
3.85658e-08
2.72704e-09
3.85673e-08
2.63833e-09
3.85664e-08
2.55656e-09
3.85637e-08
2.48057e-09
3.85594e-08
2.40933e-09
3.85539e-08
2.34195e-09
3.85472e-08
2.27765e-09
3.85394e-08
2.21572e-09
3.85307e-08
2.15555e-09
3.85211e-08
2.09657e-09
3.85105e-08
2.03826e-09
3.84991e-08
1.98014e-09
3.84868e-08
1.92174e-09
3.84736e-08
1.86263e-09
3.84596e-08
1.80239e-09
3.84448e-08
1.74061e-09
3.8429e-08
1.67689e-09
3.84124e-08
1.61085e-09
3.83949e-08
1.54213e-09
3.83765e-08
1.47039e-09
3.83572e-08
1.39533e-09
3.8337e-08
1.31674e-09
3.83159e-08
1.23449e-09
3.82937e-08
1.14859e-09
3.82704e-08
1.05927e-09
3.8246e-08
9.6701e-10
3.82203e-08
8.72616e-10
3.81935e-08
7.77258e-10
3.81655e-08
6.82468e-10
3.81364e-08
5.90069e-10
3.81067e-08
5.02004e-10
3.80766e-08
4.20078e-10
3.80466e-08
3.45685e-10
3.80172e-08
2.79631e-10
3.79888e-08
2.22143e-10
3.79615e-08
1.72968e-10
3.79357e-08
1.31506e-10
3.79115e-08
9.69437e-11
3.78888e-08
6.83805e-11
3.78675e-08
4.49118e-11
3.78477e-08
2.56935e-11
3.78293e-08
9.97529e-12
3.78122e-08
-2.84853e-12
3.77965e-08
-1.32444e-11
3.77821e-08
-2.1606e-11
3.77691e-08
-2.82573e-11
3.77573e-08
-3.34475e-11
3.77468e-08
-3.7367e-11
3.77376e-08
-4.01616e-11
3.77295e-08
-4.19458e-11
3.77225e-08
-4.2814e-11
3.77166e-08
-4.28509e-11
3.77116e-08
-4.21382e-11
3.77076e-08
-4.07604e-11
3.77043e-08
-3.88079e-11
3.77018e-08
-3.63774e-11
3.76998e-08
-3.35705e-11
3.76984e-08
-3.04891e-11
3.76973e-08
-2.72254e-11
3.76966e-08
-2.38347e-11
3.7696e-08
-2.02395e-11
-1.55125e-11
3.87005e-08
3.12908e-09
-3.85761e-08
3.88519e-08
3.40789e-09
3.90089e-08
3.58559e-09
3.91562e-08
3.66477e-09
3.92852e-08
3.66406e-09
3.93922e-08
3.60504e-09
3.94768e-08
3.50779e-09
3.95412e-08
3.38978e-09
3.95887e-08
3.26448e-09
3.96229e-08
3.14064e-09
3.96471e-08
3.02301e-09
3.96639e-08
2.91357e-09
3.96752e-08
2.81266e-09
3.96825e-08
2.71978e-09
3.96867e-08
2.63408e-09
3.96887e-08
2.55458e-09
3.9689e-08
2.48032e-09
3.96879e-08
2.41042e-09
3.96857e-08
2.3441e-09
3.96827e-08
2.28065e-09
3.96791e-08
2.21941e-09
3.96748e-08
2.15982e-09
3.967e-08
2.10135e-09
3.96648e-08
2.04349e-09
3.96591e-08
1.98579e-09
3.96531e-08
1.9278e-09
3.96466e-08
1.86911e-09
3.96397e-08
1.80929e-09
3.96323e-08
1.74796e-09
3.96245e-08
1.68474e-09
3.96161e-08
1.61925e-09
3.96071e-08
1.55113e-09
3.95974e-08
1.48008e-09
3.95869e-08
1.40581e-09
3.95755e-08
1.32812e-09
3.95631e-08
1.24689e-09
3.95496e-08
1.16217e-09
3.95346e-08
1.07419e-09
3.95182e-08
9.83417e-10
3.95002e-08
8.90647e-10
3.94805e-08
7.96996e-10
3.9459e-08
7.03912e-10
3.9436e-08
6.13101e-10
3.94116e-08
5.26373e-10
3.93863e-08
4.45411e-10
3.93604e-08
3.71536e-10
3.93345e-08
3.05549e-10
3.93089e-08
2.4772e-10
3.9284e-08
1.9787e-10
3.92601e-08
1.55486e-10
3.92372e-08
1.19844e-10
3.92154e-08
9.01159e-11
3.91949e-08
6.54602e-11
3.91755e-08
4.50766e-11
3.91572e-08
2.82462e-11
3.914e-08
1.43505e-11
3.91239e-08
2.87883e-12
3.91089e-08
-6.56567e-12
3.90949e-08
-1.42924e-11
3.9082e-08
-2.05516e-11
3.90702e-08
-2.55341e-11
3.90594e-08
-2.93831e-11
3.90496e-08
-3.2208e-11
3.90409e-08
-3.40957e-11
3.90332e-08
-3.5121e-11
3.90264e-08
-3.53547e-11
3.90205e-08
-3.48707e-11
3.90155e-08
-3.37491e-11
3.90112e-08
-3.20785e-11
3.90076e-08
-2.99542e-11
3.90045e-08
-2.74746e-11
3.9002e-08
-2.47308e-11
3.9e-08
-2.178e-11
3.89983e-08
-1.85629e-11
-1.44074e-11
3.98756e-08
3.01565e-09
-3.97621e-08
4.00134e-08
3.27009e-09
4.01581e-08
3.44081e-09
4.02962e-08
3.52676e-09
4.04192e-08
3.54104e-09
4.05232e-08
3.50102e-09
4.06073e-08
3.42371e-09
4.06728e-08
3.32428e-09
4.07224e-08
3.21487e-09
4.07592e-08
3.10386e-09
4.0786e-08
2.99619e-09
4.08052e-08
2.89431e-09
4.08188e-08
2.79908e-09
4.08282e-08
2.71045e-09
4.08343e-08
2.62793e-09
4.08381e-08
2.55082e-09
4.084e-08
2.47836e-09
4.08406e-08
2.40982e-09
4.08402e-08
2.34453e-09
4.0839e-08
2.28185e-09
4.08372e-08
2.2212e-09
4.0835e-08
2.16205e-09
4.08324e-08
2.1039e-09
4.08296e-08
2.0463e-09
4.08266e-08
1.9888e-09
4.08234e-08
1.93099e-09
4.08201e-08
1.87247e-09
4.08165e-08
1.81284e-09
4.08128e-08
1.75172e-09
4.08087e-08
1.68876e-09
4.08044e-08
1.6236e-09
4.07996e-08
1.5559e-09
4.07943e-08
1.48538e-09
4.07884e-08
1.41176e-09
4.07816e-08
1.33489e-09
4.07738e-08
1.25465e-09
4.07649e-08
1.17112e-09
4.07545e-08
1.08453e-09
4.07426e-08
9.95363e-10
4.07289e-08
9.0437e-10
4.07133e-08
8.12617e-10
4.06957e-08
7.21464e-10
4.06763e-08
6.32498e-10
4.06553e-08
5.47394e-10
4.0633e-08
4.67714e-10
4.06098e-08
3.94702e-10
4.05862e-08
3.2914e-10
4.05626e-08
2.71331e-10
4.05393e-08
2.21159e-10
4.05166e-08
1.78189e-10
4.04947e-08
1.41775e-10
4.04736e-08
1.11161e-10
4.04535e-08
8.55586e-11
4.04344e-08
6.42112e-11
4.04162e-08
4.64262e-11
4.0399e-08
3.15987e-11
4.03826e-08
1.92204e-11
4.03672e-08
8.87539e-12
4.03527e-08
2.3623e-13
4.03391e-08
-6.9448e-12
4.03264e-08
-1.28562e-11
4.03146e-08
-1.7641e-11
4.03038e-08
-2.14056e-11
4.0294e-08
-2.42308e-11
4.0285e-08
-2.61833e-11
4.0277e-08
-2.73243e-11
4.02699e-08
-2.77171e-11
4.02635e-08
-2.74317e-11
4.0258e-08
-2.6547e-11
4.02532e-08
-2.51509e-11
4.02491e-08
-2.33359e-11
4.02455e-08
-2.11901e-11
4.02425e-08
-1.8774e-11
4.024e-08
-1.6058e-11
-1.26548e-11
4.10832e-08
2.91179e-09
-4.09793e-08
4.12089e-08
3.14433e-09
4.13424e-08
3.30733e-09
4.14716e-08
3.39763e-09
4.15885e-08
3.42407e-09
4.16892e-08
3.40033e-09
4.17722e-08
3.34067e-09
4.18384e-08
3.25817e-09
4.18896e-08
3.16365e-09
4.19285e-08
3.06497e-09
4.19575e-08
2.96712e-09
4.1979e-08
2.87288e-09
4.19945e-08
2.78351e-09
4.20056e-08
2.69934e-09
4.20134e-08
2.62021e-09
4.20185e-08
2.54566e-09
4.20217e-08
2.47515e-09
4.20235e-08
2.40808e-09
4.20241e-08
2.34389e-09
4.20239e-08
2.28203e-09
4.20232e-08
2.22198e-09
4.20219e-08
2.16325e-09
4.20204e-08
2.10541e-09
4.20187e-08
2.04801e-09
4.20169e-08
1.99064e-09
4.2015e-08
1.93293e-09
4.2013e-08
1.87448e-09
4.20109e-08
1.81492e-09
4.20087e-08
1.75391e-09
4.20063e-08
1.6911e-09
4.20038e-08
1.62616e-09
4.20009e-08
1.55877e-09
4.19976e-08
1.48868e-09
4.19937e-08
1.41565e-09
4.19891e-08
1.33952e-09
4.19835e-08
1.26023e-09
4.19768e-08
1.17785e-09
4.19687e-08
1.09265e-09
4.19589e-08
1.00508e-09
4.19474e-08
9.15889e-10
4.1934e-08
8.26073e-10
4.19185e-08
7.36907e-10
4.19012e-08
6.49863e-10
4.18821e-08
5.66487e-10
4.18616e-08
4.88224e-10
4.184e-08
4.16241e-10
4.18179e-08
3.51295e-10
4.17955e-08
2.93711e-10
4.17732e-08
2.43429e-10
4.17513e-08
2.00081e-10
4.173e-08
1.63094e-10
4.17094e-08
1.31775e-10
4.16896e-08
1.05393e-10
4.16705e-08
8.32265e-11
4.16524e-08
6.46104e-11
4.1635e-08
4.89539e-11
4.16185e-08
3.5753e-11
4.16028e-08
2.45911e-11
4.15879e-08
1.51345e-11
4.15738e-08
7.12407e-12
4.15606e-08
3.65185e-13
4.15482e-08
-5.28358e-12
4.15367e-08
-9.92505e-12
4.15261e-08
-1.36356e-11
4.15164e-08
-1.64748e-11
4.15076e-08
-1.84953e-11
4.14996e-08
-1.97504e-11
4.14925e-08
-2.03001e-11
4.14862e-08
-2.02138e-11
4.14806e-08
-1.95709e-11
4.14757e-08
-1.84572e-11
4.14715e-08
-1.69574e-11
4.14678e-08
-1.51362e-11
4.14648e-08
-1.29992e-11
-1.04125e-11
4.23244e-08
2.81632e-09
-4.22289e-08
4.24394e-08
3.02929e-09
4.25625e-08
3.18424e-09
4.26832e-08
3.27698e-09
4.27941e-08
3.31312e-09
4.28912e-08
3.30323e-09
4.29728e-08
3.25911e-09
4.3039e-08
3.19193e-09
4.30914e-08
3.11125e-09
4.3132e-08
3.02434e-09
4.31631e-08
2.93611e-09
4.31864e-08
2.84952e-09
4.32038e-08
2.76612e-09
4.32165e-08
2.6866e-09
4.32257e-08
2.61104e-09
4.32321e-08
2.53925e-09
4.32364e-08
2.47084e-09
4.32391e-08
2.40539e-09
4.32406e-08
2.34242e-09
4.32412e-08
2.28147e-09
4.3241e-08
2.22208e-09
4.32405e-08
2.16384e-09
4.32395e-08
2.10633e-09
4.32384e-08
2.04915e-09
4.32371e-08
1.99193e-09
4.32357e-08
1.9343e-09
4.32343e-08
1.8759e-09
4.32328e-08
1.8164e-09
4.32313e-08
1.75547e-09
4.32296e-08
1.69277e-09
4.32278e-08
1.62801e-09
4.32256e-08
1.5609e-09
4.32231e-08
1.4912e-09
4.32201e-08
1.41871e-09
4.32163e-08
1.34329e-09
4.32116e-08
1.26491e-09
4.32058e-08
1.18366e-09
4.31986e-08
1.09981e-09
4.31899e-08
1.01382e-09
4.31794e-08
9.26392e-10
4.3167e-08
8.38483e-10
4.31526e-08
7.51281e-10
4.31363e-08
6.66149e-10
4.31183e-08
5.84511e-10
4.30988e-08
5.07705e-10
4.30782e-08
4.36819e-10
4.3057e-08
3.72585e-10
4.30353e-08
3.15343e-10
4.30137e-08
2.65076e-10
4.29923e-08
2.21481e-10
4.29713e-08
1.84048e-10
4.2951e-08
1.52146e-10
4.29313e-08
1.25093e-10
4.29123e-08
1.02205e-10
4.2894e-08
8.28432e-11
4.28766e-08
6.643e-11
4.28599e-08
5.24674e-11
4.28439e-08
4.05388e-11
4.28287e-08
3.03073e-11
4.28143e-08
2.15095e-11
4.28008e-08
1.39468e-11
4.2788e-08
7.47436e-12
4.27761e-08
1.98974e-12
4.2765e-08
-2.57868e-12
4.27548e-08
-6.28357e-12
4.27455e-08
-9.16927e-12
4.2737e-08
-1.12798e-11
4.27294e-08
-1.26654e-11
4.27226e-08
-1.33858e-11
4.27165e-08
-1.35118e-11
4.27112e-08
-1.31223e-11
4.27065e-08
-1.22983e-11
4.27025e-08
-1.11095e-11
4.26991e-08
-9.59648e-12
-7.81585e-12
4.36001e-08
2.72825e-09
-4.35121e-08
4.37056e-08
2.92378e-09
4.38192e-08
3.07068e-09
4.39318e-08
3.16436e-09
4.40368e-08
3.20812e-09
4.41301e-08
3.20992e-09
4.42098e-08
3.17938e-09
4.42758e-08
3.12599e-09