/*--------------------------------*- C++ -*----------------------------------*\
| =========                 |                                                 |
| \\      /  F ield         | OpenFOAM: The Open Source CFD Toolbox           |
|  \\    /   O peration     | Version:  2.3.0                                 |
|   \\  /    A nd           | Web:      www.OpenFOAM.org                      |
|    \\/     M anipulation  |                                                 |
\*---------------------------------------------------------------------------*/
FoamFile
{
    version     2.0;
    format      ascii;
    class       surfaceScalarField;
    location    "0.25";
    object      phi_0;
}
// * * * * * * * * * * * * * * * * * * * * * * * * * * * * * * * * * * * * * //

dimensions      [0 3 -1 0 0 0 0];

internalField   nonuniform List<scalar> 
5764
(
1.93979e-08
4.30039e-09
-2.36983e-08
1.56191e-08
3.77873e-09
1.25221e-08
3.09707e-09
1.00942e-08
2.42791e-09
8.27208e-09
1.82208e-09
6.95351e-09
1.31857e-09
6.01974e-09
9.33775e-10
5.35933e-09
6.60405e-10
4.88232e-09
4.77009e-10
4.52399e-09
3.58332e-10
4.24188e-09
2.82105e-10
4.01e-09
2.31887e-10
3.81298e-09
1.97019e-10
3.64175e-09
1.71226e-10
3.49072e-09
1.51036e-10
3.35615e-09
1.34571e-10
3.23536e-09
1.20787e-10
3.12631e-09
1.09054e-10
3.02735e-09
9.89511e-11
2.93718e-09
9.01709e-11
2.85471e-09
8.24739e-11
2.77904e-09
7.56694e-11
2.70944e-09
6.96042e-11
2.64528e-09
6.41544e-11
2.58606e-09
5.92192e-11
2.53135e-09
5.47167e-11
2.48077e-09
5.05792e-11
2.43402e-09
4.67508e-11
2.39083e-09
4.31843e-11
2.35099e-09
3.98402e-11
2.31431e-09
3.66843e-11
2.28062e-09
3.3687e-11
2.2498e-09
3.08219e-11
2.22173e-09
2.80641e-11
2.19635e-09
2.53886e-11
2.17358e-09
2.27692e-11
2.1534e-09
2.01766e-11
2.13582e-09
1.75786e-11
2.12088e-09
1.49408e-11
2.10865e-09
1.22278e-11
2.09925e-09
9.40434e-12
2.09282e-09
6.43144e-12
2.08958e-09
3.23537e-12
2.08952e-09
6.57881e-14
2.0919e-09
-2.38481e-12
2.09604e-09
-4.13962e-12
2.10138e-09
-5.34368e-12
2.10744e-09
-6.05949e-12
2.11381e-09
-6.37039e-12
2.12018e-09
-6.37115e-12
2.12634e-09
-6.15201e-12
2.13213e-09
-5.79046e-12
2.13748e-09
-5.34837e-12
2.14235e-09
-4.87148e-12
2.14674e-09
-4.39119e-12
2.15067e-09
-3.92734e-12
2.15416e-09
-3.4912e-12
2.15725e-09
-3.08822e-12
2.15997e-09
-2.72005e-12
2.16235e-09
-2.38617e-12
2.16444e-09
-2.08489e-12
2.16625e-09
-1.81401e-12
2.16782e-09
-1.57121e-12
2.16918e-09
-1.35424e-12
2.17034e-09
-1.16099e-12
2.17133e-09
-9.89488e-13
2.17216e-09
-8.37914e-13
2.17287e-09
-7.04553e-13
2.17346e-09
-5.87754e-13
2.17394e-09
-4.85927e-13
2.17434e-09
-3.97565e-13
2.17466e-09
-3.21659e-13
2.17492e-09
-2.6017e-13
2.17516e-09
-2.33984e-13
-6.33536e-13
2.57868e-08
5.22248e-09
-2.67089e-08
2.43513e-08
5.2142e-09
2.27075e-08
4.74093e-09
2.10344e-08
4.10099e-09
1.94404e-08
3.41611e-09
1.7985e-08
2.77394e-09
1.66908e-08
2.22798e-09
1.55573e-08
1.7939e-09
1.45721e-08
1.46221e-09
1.37177e-08
1.21281e-09
1.29751e-08
1.02464e-09
1.23268e-08
8.80214e-10
1.17571e-08
7.66715e-10
1.1253e-08
6.75365e-10
1.08037e-08
6.00307e-10
1.04007e-08
5.37597e-10
1.0037e-08
4.84498e-10
9.70698e-09
4.3903e-10
9.40622e-09
3.99709e-10
9.131e-09
3.6539e-10
8.8783e-09
3.35172e-10
8.64563e-09
3.0834e-10
8.43092e-09
2.84319e-10
8.23242e-09
2.62645e-10
8.04871e-09
2.42938e-10
7.87853e-09
2.24888e-10
7.72088e-09
2.08234e-10
7.57487e-09
1.92762e-10
7.43977e-09
1.78287e-10
7.31495e-09
1.64652e-10
7.19992e-09
1.5172e-10
7.09423e-09
1.39374e-10
6.99755e-09
1.27504e-10
6.9096e-09
1.16012e-10
6.83019e-09
1.04802e-10
6.75918e-09
9.37782e-11
6.69651e-09
8.28464e-11
6.64217e-09
7.19143e-11
6.59621e-09
6.08997e-11
6.5587e-09
4.97406e-11
6.5297e-09
3.84091e-11
6.50921e-09
2.69232e-11
6.49715e-09
1.52931e-11
6.49344e-09
3.77711e-12
6.4968e-09
-5.74482e-12
6.50507e-09
-1.2413e-11
6.5166e-09
-1.68695e-11
6.5301e-09
-1.95638e-11
6.54458e-09
-2.08495e-11
6.55927e-09
-2.10657e-11
6.57364e-09
-2.05192e-11
6.58732e-09
-1.94688e-11
6.60009e-09
-1.81197e-11
6.61184e-09
-1.66243e-11
6.62254e-09
-1.50886e-11
6.63219e-09
-1.35816e-11
6.64085e-09
-1.21446e-11
6.64856e-09
-1.07996e-11
6.6554e-09
-9.55612e-12
6.66143e-09
-8.41618e-12
6.66672e-09
-7.37747e-12
6.67134e-09
-6.43554e-12
6.67535e-09
-5.58511e-12
6.67882e-09
-4.8206e-12
6.6818e-09
-4.13648e-12
6.68433e-09
-3.52736e-12
6.68648e-09
-2.98794e-12
6.68829e-09
-2.51296e-12
6.6898e-09
-2.09716e-12
6.69105e-09
-1.73524e-12
6.69208e-09
-1.4222e-12
6.69291e-09
-1.1551e-12
6.69359e-09
-9.41079e-13
6.69423e-09
-8.78173e-13
-1.58347e-12
2.80706e-08
5.2045e-09
-2.80526e-08
2.77671e-08
5.51768e-09
2.71923e-08
5.31574e-09
2.64274e-08
4.86595e-09
2.55472e-08
4.29623e-09
2.46161e-08
3.7051e-09
2.36803e-08
3.16374e-09
2.27691e-08
2.7051e-09
2.18988e-08
2.33254e-09
2.10771e-08
2.03447e-09
2.03067e-08
1.79502e-09
1.95873e-08
1.59966e-09
1.89169e-08
1.43715e-09
1.82928e-08
1.29947e-09
1.7712e-08
1.18105e-09
1.71716e-08
1.07804e-09
1.66684e-08
9.87623e-10
1.61998e-08
9.07693e-10
1.57629e-08
8.36579e-10
1.53554e-08
7.72929e-10
1.49749e-08
7.15625e-10
1.46195e-08
6.63735e-10
1.42874e-08
6.16471e-10
1.39769e-08
5.73167e-10
1.36865e-08
5.33255e-10
1.34152e-08
4.96247e-10
1.31617e-08
4.61724e-10
1.29251e-08
4.29322e-10
1.27047e-08
3.98721e-10
1.24997e-08
3.69641e-10
1.23096e-08
3.41831e-10
1.21339e-08
3.15066e-10
1.19723e-08
2.89141e-10
1.18244e-08
2.63864e-10
1.16902e-08
2.39053e-10
1.15694e-08
2.14535e-10
1.14621e-08
1.90148e-10
1.13683e-08
1.65753e-10
1.12879e-08
1.41254e-10
1.1221e-08
1.1662e-10
1.11675e-08
9.19294e-11
1.1127e-08
6.74252e-11
1.10987e-08
4.35681e-11
1.10818e-08
2.07189e-11
1.10758e-08
2.33505e-13
1.10791e-08
-1.56544e-11
1.10886e-08
-2.6443e-11
1.11024e-08
-3.33367e-11
1.11187e-08
-3.71929e-11
1.11364e-08
-3.87369e-11
1.11545e-08
-3.85966e-11
1.11723e-08
-3.72965e-11
1.11895e-08
-3.52552e-11
1.12056e-08
-3.2789e-11
1.12207e-08
-3.01247e-11
1.12345e-08
-2.74164e-11
1.12471e-08
-2.47626e-11
1.12585e-08
-2.22226e-11
1.12688e-08
-1.98289e-11
1.1278e-08
-1.75971e-11
1.12861e-08
-1.55327e-11
1.12933e-08
-1.36352e-11
1.12997e-08
-1.1901e-11
1.13052e-08
-1.0325e-11
1.13099e-08
-8.90097e-12
1.1314e-08
-7.62224e-12
1.13175e-08
-6.48145e-12
1.13205e-08
-5.47067e-12
1.1323e-08
-4.5813e-12
1.1325e-08
-3.8042e-12
1.13267e-08
-3.13028e-12
1.13281e-08
-2.55423e-12
1.13293e-08
-2.08978e-12
1.13303e-08
-1.89954e-12
-2.67402e-12
2.93419e-08
4.9429e-09
-2.90803e-08
2.94689e-08
5.39068e-09
2.94195e-08
5.36514e-09
2.92036e-08
5.08181e-09
2.88473e-08
4.65252e-09
2.83872e-08
4.16525e-09
2.78595e-08
3.69143e-09
2.72934e-08
3.27123e-09
2.67094e-08
2.91648e-09
2.61213e-08
2.62263e-09
2.55374e-08
2.37884e-09
2.49633e-08
2.1738e-09
2.44022e-08
1.99821e-09
2.38565e-08
1.8452e-09
2.33276e-08
1.70993e-09
2.28166e-08
1.58902e-09
2.23243e-08
1.48002e-09
2.18508e-08
1.38111e-09
2.13966e-08
1.29084e-09
2.09615e-08
1.20803e-09
2.05454e-08
1.13172e-09
2.01481e-08
1.06106e-09
1.97692e-08
9.95326e-10
1.94085e-08
9.33893e-10
1.90655e-08
8.76206e-10
1.874e-08
8.21776e-10
1.84316e-08
7.70162e-10
1.81399e-08
7.20971e-10
1.78648e-08
6.73843e-10
1.7606e-08
6.28449e-10
1.73633e-08
5.84488e-10
1.71367e-08
5.41677e-10
1.69261e-08
4.99752e-10
1.67315e-08
4.58462e-10
1.6553e-08
4.17569e-10
1.63907e-08
3.76855e-10
1.62447e-08
3.36127e-10
1.61152e-08
2.95248e-10
1.60023e-08
2.54163e-10
1.5906e-08
2.12953e-10
1.5826e-08
1.71896e-10
1.57619e-08
1.3155e-10
1.57126e-08
9.28442e-11
1.56763e-08
5.69759e-11
1.56519e-08
2.46579e-11
1.56393e-08
-3.02499e-12
1.56369e-08
-2.4037e-11
1.56418e-08
-3.83185e-11
1.5652e-08
-4.7365e-11
1.56657e-08
-5.23828e-11
1.56815e-08
-5.43849e-11
1.56984e-08
-5.42151e-11
1.57157e-08
-5.2555e-11
1.57328e-08
-4.99319e-11
1.57494e-08
-4.67369e-11
1.57653e-08
-4.32477e-11
1.57802e-08
-3.96541e-11
1.5794e-08
-3.60809e-11
1.58068e-08
-3.26073e-11
1.58185e-08
-2.9282e-11
1.58291e-08
-2.61338e-11
1.58386e-08
-2.31794e-11
1.58471e-08
-2.04279e-11
1.58547e-08
-1.78839e-11
1.58614e-08
-1.55485e-11
1.58671e-08
-1.34206e-11
1.58722e-08
-1.14969e-11
1.58765e-08
-9.77161e-12
1.58801e-08
-8.23704e-12
1.58832e-08
-6.88332e-12
1.58858e-08
-5.69958e-12
1.58879e-08
-4.67901e-12
1.58896e-08
-3.83986e-12
1.58911e-08
-3.37114e-12
-3.95545e-12
3.0354e-08
4.64557e-09
-3.00566e-08
3.06126e-08
5.13208e-09
3.0774e-08
5.20368e-09
3.08235e-08
5.03232e-09
3.07611e-08
4.71496e-09
3.06009e-08
4.32542e-09
3.03648e-08
3.92759e-09
3.00739e-08
3.56211e-09
2.97453e-08
3.24503e-09
2.93915e-08
2.97651e-09
2.90207e-08
2.74959e-09
2.86388e-08
2.55571e-09
2.82497e-08
2.38725e-09
2.78566e-08
2.23833e-09
2.74619e-08
2.10469e-09
2.70675e-08
1.98333e-09
2.66755e-08
1.87209e-09
2.62872e-08
1.76934e-09
2.59042e-08
1.67386e-09
2.55276e-08
1.58464e-09
2.51585e-08
1.50086e-09
2.47977e-08
1.42181e-09
2.44462e-08
1.34688e-09
2.41045e-08
1.27556e-09
2.37734e-08
1.20736e-09
2.34533e-08
1.14186e-09
2.31448e-08
1.07867e-09
2.28483e-08
1.01743e-09
2.25644e-08
9.57805e-10
2.22933e-08
8.99482e-10
2.20356e-08
8.42159e-10
2.17918e-08
7.85548e-10
2.15622e-08
7.29374e-10
2.13472e-08
6.73372e-10
2.11475e-08
6.17294e-10
2.09635e-08
5.60919e-10
2.07955e-08
5.04076e-10
2.06441e-08
4.4668e-10
2.05095e-08
3.88778e-10
2.03918e-08
3.30623e-10
2.02909e-08
2.72747e-10
2.02064e-08
2.1605e-10
2.01374e-08
1.61866e-10
2.00825e-08
1.11864e-10
2.00396e-08
6.75774e-11
2.00073e-08
2.92684e-11
1.99861e-08
-2.77039e-12
1.99749e-08
-2.718e-11
1.99716e-08
-4.40675e-11
1.99743e-08
-5.50274e-11
1.99813e-08
-6.14128e-11
1.99914e-08
-6.43616e-11
2.00037e-08
-6.48115e-11
2.00173e-08
-6.35077e-11
2.00315e-08
-6.10209e-11
2.00461e-08
-5.77743e-11
2.00605e-08
-5.40721e-11
2.00745e-08
-5.01285e-11
2.0088e-08
-4.60914e-11
2.01008e-08
-4.20623e-11
2.01128e-08
-3.81114e-11
2.01239e-08
-3.42884e-11
2.01341e-08
-3.06289e-11
2.01434e-08
-2.716e-11
2.01517e-08
-2.39018e-11
2.01592e-08
-2.08696e-11
2.01657e-08
-1.80738e-11
2.01715e-08
-1.55205e-11
2.01765e-08
-1.3211e-11
2.01807e-08
-1.11422e-11
2.01843e-08
-9.30763e-12
2.01874e-08
-7.70281e-12
2.01899e-08
-6.34786e-12
2.01919e-08
-5.42291e-12
-5.50855e-12
3.13171e-08
4.36849e-09
-3.104e-08
3.15977e-08
4.85143e-09
3.18254e-08
4.97606e-09
3.19809e-08
4.87679e-09
3.20564e-08
4.63944e-09
3.20552e-08
4.32666e-09
3.19891e-08
3.99368e-09
3.18725e-08
3.67871e-09
3.1718e-08
3.39953e-09
3.15352e-08
3.15931e-09
3.13308e-08
2.95398e-09
3.11094e-08
2.77712e-09
3.08741e-08
2.62251e-09
3.06274e-08
2.48507e-09
3.03711e-08
2.36098e-09
3.01069e-08
2.24747e-09
2.98365e-08
2.14252e-09
2.95612e-08
2.04462e-09
2.92825e-08
1.95261e-09
2.90016e-08
1.86557e-09
2.87197e-08
1.78274e-09
2.8438e-08
1.70349e-09
2.81576e-08
1.62728e-09
2.78795e-08
1.55363e-09
2.76048e-08
1.48211e-09
2.73343e-08
1.41234e-09
2.7069e-08
1.34398e-09
2.68097e-08
1.27669e-09
2.65574e-08
1.21016e-09
2.63127e-08
1.14409e-09
2.60767e-08
1.07819e-09
2.58501e-08
1.01218e-09
2.56337e-08
9.45795e-10
2.54283e-08
8.78769e-10
2.52347e-08
8.10868e-10
2.50537e-08
7.41898e-10
2.4886e-08
6.71735e-10
2.47324e-08
6.00379e-10
2.45931e-08
5.2801e-10
2.44687e-08
4.55071e-10
2.43591e-08
3.82353e-10
2.4264e-08
3.11072e-10
2.4183e-08
2.42886e-10
2.41151e-08
1.79758e-10
2.40592e-08
1.23524e-10
2.40133e-08
7.51842e-11
2.3976e-08
3.45346e-11
2.39478e-08
1.02558e-12
2.39285e-08
-2.48466e-11
2.39168e-08
-4.32492e-11
2.3911e-08
-5.56854e-11
2.39101e-08
-6.34663e-11
2.3913e-08
-6.77028e-11
2.39188e-08
-6.93027e-11
2.39268e-08
-6.89839e-11
2.39363e-08
-6.72979e-11
2.39469e-08
-6.46576e-11
2.39581e-08
-6.13676e-11
2.39697e-08
-5.76502e-11
2.39813e-08
-5.36679e-11
2.39927e-08
-4.95411e-11
2.40038e-08
-4.53615e-11
2.40144e-08
-4.12012e-11
2.40243e-08
-3.71189e-11
2.40336e-08
-3.31636e-11
2.40421e-08
-2.93768e-11
2.40498e-08
-2.5793e-11
2.40567e-08
-2.244e-11
2.40629e-08
-1.93386e-11
2.40682e-08
-1.65025e-11
2.40729e-08
-1.39388e-11
2.40768e-08
-1.16524e-11
2.40801e-08
-9.66546e-12
2.40828e-08
-8.12206e-12
-7.37693e-12
3.22892e-08
4.1222e-09
-3.20429e-08
3.25572e-08
4.58339e-09
3.27947e-08
4.73859e-09
3.29828e-08
4.68874e-09
3.31127e-08
4.50948e-09
3.31841e-08
4.25532e-09
3.32038e-08
3.97397e-09
3.3182e-08
3.70048e-09
3.31284e-08
3.45316e-09
3.30504e-08
3.2373e-09
3.29533e-08
3.05104e-09
3.28407e-08
2.88975e-09
3.27148e-08
2.74842e-09
3.25772e-08
2.62267e-09
3.24291e-08
2.50908e-09
3.22715e-08
2.40505e-09
3.21054e-08
2.30862e-09
3.19317e-08
2.21834e-09
3.17512e-08
2.13305e-09
3.1565e-08
2.05183e-09
3.13738e-08
1.97392e-09
3.11786e-08
1.8987e-09
3.09802e-08
1.82562e-09
3.07797e-08
1.75421e-09
3.05777e-08
1.68405e-09
3.03753e-08
1.61475e-09
3.01733e-08
1.54596e-09
2.99727e-08
1.47735e-09
2.97742e-08
1.4086e-09
2.95789e-08
1.33942e-09
2.93876e-08
1.2695e-09
2.92012e-08
1.19856e-09
2.90207e-08
1.12632e-09
2.88469e-08
1.05253e-09
2.86808e-08
9.76962e-10
2.85233e-08
8.9945e-10
2.83751e-08
8.19925e-10
2.8237e-08
7.38469e-10
2.81096e-08
6.5539e-10
2.79934e-08
5.71307e-10
2.78885e-08
4.87229e-10
2.7795e-08
4.04616e-10
2.77125e-08
3.25362e-10
2.76407e-08
2.51605e-10
2.75789e-08
1.85325e-10
2.75263e-08
1.27768e-10
2.74816e-08
7.92395e-11
2.74434e-08
3.9174e-11
2.74121e-08
6.47418e-12
2.7388e-08
-1.91237e-11
2.73702e-08
-3.7906e-11
2.73579e-08
-5.11522e-11
2.73502e-08
-6.00314e-11
2.73464e-08
-6.55238e-11
2.73459e-08
-6.84266e-11
2.73479e-08
-6.93693e-11
2.73521e-08
-6.88387e-11
2.7358e-08
-6.72048e-11
2.73651e-08
-6.47478e-11
2.73731e-08
-6.16799e-11
2.73817e-08
-5.8165e-11
2.73907e-08
-5.43326e-11
2.73998e-08
-5.02889e-11
2.74088e-08
-4.61242e-11
2.74175e-08
-4.19176e-11
2.74259e-08
-3.77395e-11
2.74337e-08
-3.3653e-11
2.7441e-08
-2.97136e-11
2.74476e-08
-2.59688e-11
2.74536e-08
-2.2457e-11
2.74589e-08
-1.92077e-11
2.74634e-08
-1.62432e-11
2.74674e-08
-1.35898e-11
2.74706e-08
-1.13395e-11
-9.49729e-12
3.32854e-08
3.90519e-09
-3.30684e-08
3.35319e-08
4.33684e-09
3.37604e-08
4.51012e-09
3.39521e-08
4.49705e-09
3.40989e-08
4.36271e-09
3.41991e-08
4.15511e-09
3.42574e-08
3.91564e-09
3.42817e-08
3.67615e-09
3.428e-08
3.45492e-09
3.42585e-08
3.25877e-09
3.42219e-08
3.08767e-09
3.4173e-08
2.93857e-09
3.41139e-08
2.80758e-09
3.40455e-08
2.69102e-09
3.39688e-08
2.58586e-09
3.38841e-08
2.48969e-09
3.37921e-08
2.40067e-09
3.36931e-08
2.31733e-09
3.35876e-08
2.23853e-09
3.34761e-08
2.16334e-09
3.3359e-08
2.09097e-09
3.3237e-08
2.02077e-09
3.31104e-08
1.95218e-09
3.29799e-08
1.88467e-09
3.28462e-08
1.81782e-09
3.27097e-08
1.7512e-09
3.25712e-08
1.68445e-09
3.24314e-08
1.61719e-09
3.22909e-08
1.54909e-09
3.21505e-08
1.47982e-09
3.2011e-08
1.40906e-09
3.1873e-08
1.33649e-09
3.17375e-08
1.26185e-09
3.16052e-08
1.18484e-09
3.14769e-08
1.10526e-09
3.13534e-08
1.02296e-09
3.12354e-08
9.37901e-10
3.11236e-08
8.50242e-10
3.10186e-08
7.60389e-10
3.09208e-08
6.69092e-10
3.08306e-08
5.77514e-10
3.07479e-08
4.87277e-10
3.06728e-08
4.00407e-10
3.06053e-08
3.1913e-10
3.05452e-08
2.45478e-10
3.04921e-08
1.80811e-10
3.04457e-08
1.25633e-10
3.04052e-08
7.96826e-11
3.03696e-08
4.21183e-11
3.03388e-08
1.16714e-11
3.03133e-08
-1.24189e-11
3.02928e-08
-3.06394e-11
3.02767e-08
-4.3993e-11
3.02647e-08
-5.34688e-11
3.02561e-08
-5.98811e-11
3.02507e-08
-6.38858e-11
3.02478e-08
-6.60003e-11
3.02472e-08
-6.66263e-11
3.02486e-08
-6.60739e-11
3.02515e-08
-6.45828e-11
3.02557e-08
-6.23414e-11
3.02608e-08
-5.9502e-11
3.02667e-08
-5.61921e-11
3.02731e-08
-5.25228e-11
3.02798e-08
-4.85949e-11
3.02866e-08
-4.45012e-11
3.02932e-08
-4.0329e-11
3.02997e-08
-3.61593e-11
3.03058e-08
-3.20663e-11
3.03114e-08
-2.81155e-11
3.03166e-08
-2.43622e-11
3.03212e-08
-2.08506e-11
3.03252e-08
-1.76147e-11
3.03286e-08
-1.46886e-11
-1.16634e-11
3.43094e-08
3.71349e-09
-3.41177e-08
3.45335e-08
4.11271e-09
3.47478e-08
4.2959e-09
3.49332e-08
4.31157e-09
3.5082e-08
4.21391e-09
3.5192e-08
4.04512e-09
3.52664e-08
3.84122e-09
3.53117e-08
3.63088e-09
3.53347e-08
3.43195e-09
3.53411e-08
3.25233e-09
3.53353e-08
3.09353e-09
3.53199e-08
2.95389e-09
3.52969e-08
2.83057e-09
3.52674e-08
2.7206e-09
3.52318e-08
2.62139e-09
3.51908e-08
2.53076e-09
3.51444e-08
2.44701e-09
3.5093e-08
2.36873e-09
3.50368e-08
2.29479e-09
3.49758e-08
2.22427e-09
3.49105e-08
2.15636e-09
3.48408e-08
2.0904e-09
3.47672e-08
2.02578e-09
3.46899e-08
1.96198e-09
3.46092e-08
1.89851e-09
3.45255e-08
1.83494e-09
3.44391e-08
1.77085e-09
3.43504e-08
1.70584e-09
3.426e-08
1.63954e-09
3.41682e-08
1.57159e-09
3.40756e-08
1.50165e-09
3.39828e-08
1.42937e-09
3.38902e-08
1.35444e-09
3.37984e-08
1.27658e-09
3.37081e-08
1.19557e-09
3.36198e-08
1.11127e-09
3.3534e-08
1.02368e-09
3.34513e-08
9.32983e-10
3.3372e-08
8.39666e-10
3.32965e-08
7.44555e-10
3.32252e-08
6.48901e-10
3.3158e-08
5.54401e-10
3.30953e-08
4.63126e-10
3.30371e-08
3.77308e-10
3.29836e-08
2.98971e-10
3.29349e-08
2.29521e-10
3.2891e-08
1.6957e-10
3.28517e-08
1.19021e-10
3.28165e-08
7.72332e-11
3.2785e-08
4.31997e-11
3.27569e-08
1.56887e-11
3.27325e-08
-6.26046e-12
3.27118e-08
-2.32899e-11
3.26945e-08
-3.61855e-11
3.26804e-08
-4.57507e-11
3.26692e-08
-5.26381e-11
3.26605e-08
-5.73677e-11
3.26543e-08
-6.03481e-11
3.26501e-08
-6.18969e-11
3.26478e-08
-6.22614e-11
3.26471e-08
-6.16366e-11
3.26477e-08
-6.01806e-11
3.26496e-08
-5.80267e-11
3.26523e-08
-5.52927e-11
3.26558e-08
-5.20871e-11
3.26598e-08
-4.85136e-11
3.26642e-08
-4.46728e-11
3.26687e-08
-4.06625e-11
3.26732e-08
-3.65766e-11
3.26776e-08
-3.25029e-11
3.26817e-08
-2.85197e-11
3.26856e-08
-2.46925e-11
3.2689e-08
-2.10634e-11
3.2692e-08
-1.76147e-11
-1.35651e-11
3.53623e-08
3.54312e-09
-3.5192e-08
3.55654e-08
3.90967e-09
3.57644e-08
4.09685e-09
3.59408e-08
4.1352e-09
3.60864e-08
4.06834e-09
3.61986e-08
3.93292e-09
3.62795e-08
3.76028e-09
3.63344e-08
3.57603e-09
3.63691e-08
3.39721e-09
3.6389e-08
3.23245e-09
3.63981e-08
3.08446e-09
3.63992e-08
2.95278e-09
3.63942e-08
2.83554e-09
3.63843e-08
2.73048e-09
3.63703e-08
2.63544e-09
3.63525e-08
2.54855e-09
3.63313e-08
2.46825e-09
3.63067e-08
2.39325e-09
3.62791e-08
2.32247e-09
3.62483e-08
2.25501e-09
3.62146e-08
2.19009e-09
3.6178e-08
2.12702e-09
3.61385e-08
2.06522e-09
3.60964e-08
2.00412e-09
3.60517e-08
1.94323e-09
3.60045e-08
1.88209e-09
3.59551e-08
1.82026e-09
3.59036e-08
1.75732e-09
3.58503e-08
1.69288e-09
3.57953e-08
1.62653e-09
3.57391e-08
1.55791e-09
3.56818e-08
1.48667e-09
3.56238e-08
1.41246e-09
3.55653e-08
1.335e-09
3.55068e-08
1.25406e-09
3.54486e-08
1.1695e-09
3.53909e-08
1.08134e-09
3.53341e-08
9.89807e-10
3.52784e-08
8.95401e-10
3.5224e-08
7.98992e-10
3.5171e-08
7.01858e-10
3.51197e-08
6.05702e-10
3.50703e-08
5.12567e-10
3.50229e-08
4.24629e-10
3.4978e-08
3.43858e-10
3.49359e-08
2.71662e-10
3.48968e-08
2.0872e-10
3.48607e-08
1.55043e-10
3.48278e-08
1.10126e-10
3.47979e-08
7.31142e-11
3.47707e-08
4.29619e-11
3.47458e-08
1.85562e-11
3.47236e-08
-1.06819e-12
3.4704e-08
-1.66018e-11
3.4687e-08
-2.86842e-11
3.46723e-08
-3.79532e-11
3.46598e-08
-4.49218e-11
3.46495e-08
-4.99953e-11
3.46411e-08
-5.34894e-11
3.46345e-08
-5.56489e-11
3.46295e-08
-5.66656e-11
3.4626e-08
-5.66933e-11
3.46238e-08
-5.58604e-11
3.46228e-08
-5.42801e-11
3.46228e-08
-5.20577e-11
3.46236e-08
-4.92958e-11
3.4625e-08
-4.60971e-11
3.46269e-08
-4.25652e-11
3.46291e-08
-3.8804e-11
3.46315e-08
-3.49145e-11
3.4634e-08
-3.09914e-11
3.46364e-08
-2.71156e-11
3.46387e-08
-2.33364e-11
3.46407e-08
-1.9598e-11
-1.48918e-11
3.64447e-08
3.39068e-09
-3.62923e-08
3.66286e-08
3.72579e-09
3.68129e-08
3.9126e-09
3.69795e-08
3.96861e-09
3.712e-08
3.92777e-09
3.72316e-08
3.82139e-09
3.73151e-08
3.67668e-09
3.73749e-08
3.51632e-09
3.74158e-08
3.35631e-09
3.74426e-08
3.20559e-09
3.74592e-08
3.06783e-09
3.74685e-08
2.94355e-09
3.74723e-08
2.83175e-09
3.74719e-08
2.73081e-09
3.74683e-08
2.63904e-09
3.7462e-08
2.55486e-09
3.74534e-08
2.47691e-09
3.74426e-08
2.40402e-09
3.74298e-08
2.3352e-09
3.74153e-08
2.26959e-09
3.73989e-08
2.20645e-09
3.73808e-08
2.14512e-09
3.7361e-08
2.08501e-09
3.73396e-08
2.02557e-09
3.73165e-08
1.9663e-09
3.72918e-08
1.90674e-09
3.72657e-08
1.84644e-09
3.7238e-08
1.78496e-09
3.7209e-08
1.72191e-09
3.71787e-08
1.65687e-09
3.71471e-08
1.58946e-09
3.71145e-08
1.51932e-09
3.70808e-08
1.44609e-09
3.70463e-08
1.3695e-09
3.70111e-08
1.28931e-09
3.69752e-08
1.20538e-09
3.69388e-08
1.11776e-09
3.69019e-08
1.02668e-09
3.68646e-08
9.32664e-10
3.6827e-08
8.36576e-10
3.67892e-08
7.39683e-10
3.67513e-08
6.43643e-10
3.67134e-08
5.5042e-10
3.6676e-08
4.62091e-10
3.66393e-08
3.80539e-10
3.66038e-08
3.07141e-10
3.65699e-08
2.42615e-10
3.65379e-08
1.87053e-10
3.6508e-08
1.40058e-10
3.64802e-08
1.00892e-10
3.64545e-08
6.86237e-11
3.64308e-08
4.22576e-11
3.64089e-08
2.08207e-11
3.63889e-08
3.44262e-12
3.63707e-08
-1.05349e-11
3.63544e-08
-2.16454e-11
3.63399e-08
-3.03897e-11
3.63271e-08
-3.71692e-11
3.63159e-08
-4.22968e-11
3.63063e-08
-4.60138e-11
3.62981e-08
-4.8507e-11
3.62913e-08
-4.99229e-11
3.62858e-08
-5.03812e-11
3.62815e-08
-4.99856e-11
3.62783e-08
-4.8832e-11
3.6276e-08
-4.70148e-11
3.62746e-08
-4.46308e-11
3.62738e-08
-4.17809e-11
3.62736e-08
-3.85699e-11
3.62737e-08
-3.51035e-11
3.62742e-08
-3.14841e-11
3.62749e-08
-2.78021e-11
3.62757e-08
-2.41109e-11
3.62764e-08
-2.0336e-11
-1.54359e-11
3.75573e-08
3.25336e-09
-3.742e-08
3.7724e-08
3.55909e-09
3.78942e-08
3.7424e-09
3.8051e-08
3.81179e-09
3.81859e-08
3.79283e-09
3.82955e-08
3.71178e-09
3.83801e-08
3.59211e-09
3.84427e-08
3.45378e-09
3.84874e-08
3.31157e-09
3.85185e-08
3.17445e-09
3.85396e-08
3.04675e-09
3.85534e-08
2.9298e-09
3.85618e-08
2.82334e-09
3.85662e-08
2.72634e-09
3.85677e-08
2.63755e-09
3.85669e-08
2.55568e-09
3.85642e-08
2.47958e-09
3.856e-08
2.40822e-09
3.85545e-08
2.34071e-09
3.85479e-08
2.27625e-09
3.85402e-08
2.21416e-09
3.85315e-08
2.1538e-09
3.85219e-08
2.0946e-09
3.85114e-08
2.03605e-09
3.85001e-08
1.97766e-09
3.84878e-08
1.91896e-09
3.84747e-08
1.85952e-09
3.84608e-08
1.79891e-09
3.8446e-08
1.73672e-09
3.84303e-08
1.67254e-09
3.84138e-08
1.60601e-09
3.83963e-08
1.53674e-09
3.8378e-08
1.46441e-09
3.83588e-08
1.38873e-09
3.83386e-08
1.30947e-09
3.83175e-08
1.22653e-09
3.82953e-08
1.13995e-09
3.8272e-08
1.04998e-09
3.82475e-08
9.57135e-10
3.82218e-08
8.62274e-10
3.81949e-08
7.66618e-10
3.81668e-08
6.7175e-10
3.81377e-08
5.79528e-10
3.81079e-08
4.91902e-10
3.80778e-08
4.10647e-10
3.80478e-08
3.37088e-10
3.80185e-08
2.71961e-10
3.79901e-08
2.15421e-10
3.7963e-08
1.67161e-10
3.79373e-08
1.26542e-10
3.79132e-08
9.27306e-11
3.78907e-08
6.48148e-11
3.78696e-08
4.18915e-11
3.78499e-08
2.31256e-11
3.78316e-08
7.78076e-12
3.78147e-08
-4.72834e-12
3.77992e-08
-1.48549e-11
3.7785e-08
-2.29867e-11
3.77721e-08
-2.94369e-11
3.77606e-08
-3.44461e-11
3.77502e-08
-3.81976e-11
3.77412e-08
-4.08327e-11
3.77332e-08
-4.2463e-11
3.77264e-08
-4.31823e-11
3.77207e-08
-4.30756e-11
3.77159e-08
-4.22265e-11
3.7712e-08
-4.0722e-11
3.77089e-08
-3.86555e-11
3.77064e-08
-3.61265e-11
3.77045e-08
-3.32393e-11
3.77032e-08
-3.00976e-11
3.77021e-08
-2.67949e-11
3.77014e-08
-2.33876e-11
3.77009e-08
-1.98023e-11
-1.51396e-11
3.87007e-08
3.12889e-09
-3.85762e-08
3.88521e-08
3.40769e-09
3.90091e-08
3.58537e-09
3.91564e-08
3.66453e-09
3.92854e-08
3.66379e-09
3.93924e-08
3.60474e-09
3.94771e-08
3.50746e-09
3.95415e-08
3.38941e-09
3.9589e-08
3.26406e-09
3.96232e-08
3.14018e-09
3.96475e-08
3.02249e-09
3.96643e-08
2.91298e-09
3.96756e-08
2.812e-09
3.96829e-08
2.71905e-09
3.96872e-08
2.63326e-09
3.96892e-08
2.55366e-09
3.96895e-08
2.47929e-09
3.96885e-08
2.40928e-09
3.96864e-08
2.34282e-09
3.96834e-08
2.27921e-09
3.96798e-08
2.2178e-09
3.96755e-08
2.15802e-09
3.96708e-08
2.09933e-09
3.96656e-08
2.04123e-09
3.966e-08
1.98326e-09
3.9654e-08
1.92497e-09
3.96476e-08
1.86595e-09
3.96407e-08
1.80576e-09
3.96334e-08
1.74403e-09
3.96256e-08
1.68035e-09
3.96173e-08
1.61437e-09
3.96083e-08
1.54572e-09
3.95986e-08
1.47409e-09
3.95881e-08
1.39921e-09
3.95767e-08
1.32087e-09
3.95642e-08
1.23899e-09
3.95506e-08
1.15362e-09
3.95356e-08
1.06501e-09
3.9519e-08
9.73688e-10
3.95008e-08
8.80481e-10
3.94809e-08
7.86555e-10
3.94592e-08
6.93404e-10
3.9436e-08
6.02764e-10
3.94114e-08
5.16449e-10
3.9386e-08
4.36117e-10
3.936e-08
3.6303e-10
3.9334e-08
2.97922e-10
3.93085e-08
2.40998e-10
3.92836e-08
1.92029e-10
3.92597e-08
1.50464e-10
3.92369e-08
1.15554e-10
3.92152e-08
8.64638e-11
3.91948e-08
6.2349e-11
3.91755e-08
4.24167e-11
3.91573e-08
2.59594e-11
3.91402e-08
1.23706e-11
3.91242e-08
1.15537e-12
3.91093e-08
-8.06902e-12
3.90954e-08
-1.56037e-11
3.90827e-08
-2.16906e-11
3.9071e-08
-2.65128e-11
3.90604e-08
-3.02084e-11
3.90508e-08
-3.28835e-11
3.90422e-08
-3.46236e-11
3.90346e-08
-3.55036e-11
3.9028e-08
-3.55963e-11
3.90223e-08
-3.49781e-11
3.90173e-08
-3.37326e-11
3.90132e-08
-3.19517e-11
3.90097e-08
-2.97338e-11
3.90068e-08
-2.718e-11
3.90043e-08
-2.43832e-11
3.90024e-08
-2.14025e-11
3.90007e-08
-1.81826e-11
-1.4073e-11
3.98757e-08
3.01546e-09
-3.97623e-08
4.00135e-08
3.26987e-09
4.01583e-08
3.44057e-09
4.02963e-08
3.5265e-09
4.04194e-08
3.54076e-09
4.05234e-08
3.5007e-09
4.06075e-08
3.42335e-09
4.0673e-08
3.32389e-09
4.07227e-08
3.21443e-09
4.07595e-08
3.10337e-09
4.07863e-08
2.99564e-09
4.08056e-08
2.8937e-09
4.08192e-08
2.79839e-09
4.08286e-08
2.70969e-09
4.08348e-08
2.62708e-09
4.08386e-08
2.54987e-09
4.08406e-08
2.4773e-09
4.08412e-08
2.40864e-09
4.08408e-08
2.3432e-09
4.08397e-08
2.28037e-09
4.08379e-08
2.21954e-09
4.08357e-08
2.1602e-09
4.08332e-08
2.10184e-09
4.08305e-08
2.044e-09
4.08275e-08
1.98623e-09
4.08243e-08
1.92812e-09
4.0821e-08
1.86927e-09
4.08175e-08
1.80927e-09
4.08138e-08
1.74776e-09
4.08098e-08
1.68436e-09
4.08054e-08
1.61871e-09
4.08007e-08
1.5505e-09
4.07953e-08
1.47941e-09
4.07893e-08
1.40521e-09
4.07825e-08
1.32771e-09
4.07747e-08
1.24685e-09
4.07656e-08
1.1627e-09
4.07551e-08
1.07552e-09
4.07429e-08
9.85839e-10
4.07289e-08
8.94442e-10
4.07131e-08
8.02439e-10
4.06952e-08
7.11231e-10
4.06756e-08
6.22431e-10
4.06543e-08
5.37717e-10
4.06318e-08
4.58629e-10
4.06085e-08
3.86358e-10
4.05848e-08
3.21627e-10
4.05611e-08
2.64679e-10
4.05378e-08
2.15351e-10
4.0515e-08
1.7317e-10
4.04931e-08
1.37467e-10
4.04721e-08
1.07474e-10
4.04521e-08
8.24023e-11
4.0433e-08
6.14985e-11
4.04149e-08
4.40798e-11
4.03977e-08
2.95532e-11
4.03814e-08
1.74224e-11
4.03661e-08
7.28431e-12
4.03516e-08
-1.17618e-12
4.03381e-08
-8.19692e-12
4.03256e-08
-1.39595e-11
4.0314e-08
-1.86012e-11
4.03033e-08
-2.22242e-11
4.02936e-08
-2.49076e-11
4.02848e-08
-2.67179e-11
4.02769e-08
-2.7718e-11
4.02699e-08
-2.79738e-11
4.02638e-08
-2.75589e-11
4.02584e-08
-2.6556e-11
4.02537e-08
-2.50565e-11
4.02497e-08
-2.31561e-11
4.02462e-08
-2.09454e-11
4.02433e-08
-1.8487e-11
4.02409e-08
-1.57552e-11
-1.23768e-11
4.10833e-08
2.91159e-09
-4.09795e-08
4.12091e-08
3.14411e-09
4.13426e-08
3.30708e-09
4.14717e-08
3.39736e-09
4.15887e-08
3.42377e-09
4.16894e-08
3.39999e-09
4.17725e-08
3.3403e-09
4.18386e-08
3.25776e-09
4.18899e-08
3.16319e-09
4.19288e-08
3.06445e-09
4.19579e-08
2.96655e-09
4.19793e-08
2.87224e-09
4.19949e-08
2.7828e-09
4.20061e-08
2.69855e-09
4.20138e-08
2.61932e-09
4.2019e-08
2.54467e-09
4.20223e-08
2.47405e-09
4.20241e-08
2.40686e-09
4.20247e-08
2.34253e-09
4.20246e-08
2.28051e-09
4.20239e-08
2.22028e-09
4.20227e-08
2.16136e-09
4.20212e-08
2.1033e-09
4.20196e-08
2.04566e-09
4.20178e-08
1.98803e-09
4.20159e-08
1.93002e-09
4.20139e-08
1.87125e-09
4.20118e-08
1.81133e-09
4.20097e-08
1.74993e-09
4.20073e-08
1.68669e-09
4.20048e-08
1.62127e-09
4.20019e-08
1.55339e-09
4.19985e-08
1.48275e-09
4.19946e-08
1.40915e-09
4.19899e-08
1.33243e-09
4.19842e-08
1.25254e-09
4.19773e-08
1.16959e-09
4.1969e-08
1.08384e-09
4.1959e-08
9.95794e-10
4.19472e-08
9.06229e-10
4.19335e-08
8.16189e-10
4.19177e-08
7.2698e-10
4.19001e-08
6.40098e-10
4.18807e-08
5.57091e-10
4.18599e-08
4.79384e-10
4.18382e-08
4.08098e-10
4.18159e-08
3.43937e-10
4.17934e-08
2.87171e-10
4.1771e-08
2.37694e-10
4.17491e-08
1.95104e-10
4.17278e-08
1.58804e-10
4.17072e-08
1.2809e-10
4.16873e-08
1.02223e-10
4.16683e-08
8.04892e-11
4.16502e-08
6.22293e-11
4.16329e-08
4.68633e-11
4.16164e-08
3.38992e-11
4.16008e-08
2.29325e-11
4.15859e-08
1.36409e-11
4.1572e-08
5.7758e-12
4.15589e-08
-8.48511e-13
4.15466e-08
-6.36681e-12
4.15353e-08
-1.08777e-11
4.15248e-08
-1.44551e-11
4.15153e-08
-1.71582e-11
4.15066e-08
-1.90409e-11
4.14988e-08
-2.01592e-11
4.14918e-08
-2.05767e-11
4.14856e-08
-2.03669e-11
4.14802e-08
-1.96131e-11
4.14754e-08
-1.84049e-11
4.14713e-08
-1.68296e-11
4.14678e-08
-1.49545e-11
4.14648e-08
-1.27886e-11
-1.0205e-11
4.23245e-08
2.8161e-09
-4.2229e-08
4.24396e-08
3.02905e-09
4.25627e-08
3.18397e-09
4.26834e-08
3.27668e-09
4.27943e-08
3.3128e-09
4.28914e-08
3.30288e-09
4.2973e-08
3.25871e-09
4.30393e-08
3.19149e-09
4.30917e-08
3.11077e-09
4.31324e-08
3.0238e-09
4.31634e-08
2.93551e-09
4.31868e-08
2.84885e-09
4.32042e-08
2.76538e-09
4.3217e-08
2.68577e-09
4.32262e-08
2.61012e-09
4.32326e-08
2.53823e-09
4.3237e-08
2.46971e-09
4.32397e-08
2.40413e-09
4.32412e-08
2.34102e-09
4.32418e-08
2.27991e-09
4.32417e-08
2.22035e-09
4.32412e-08
2.16191e-09
4.32403e-08
2.10418e-09
4.32392e-08
2.04677e-09
4.3238e-08
1.98928e-09
4.32366e-08
1.93136e-09
4.32352e-08
1.87264e-09
4.32338e-08
1.81279e-09
4.32322e-08
1.75147e-09
4.32306e-08
1.68835e-09
4.32287e-08
1.62314e-09
4.32265e-08
1.55554e-09
4.3224e-08
1.48532e-09
4.32208e-08
1.41228e-09
4.3217e-08
1.3363e-09
4.32122e-08
1.25736e-09
4.32062e-08
1.17556e-09
4.31988e-08
1.0912e-09
4.31898e-08
1.00477e-09
4.31791e-08
9.17011e-10
4.31663e-08
8.28904e-10
4.31516e-08
7.41672e-10
4.3135e-08
6.56699e-10
4.31167e-08
5.75412e-10
4.3097e-08
4.99128e-10
4.30762e-08
4.28898e-10
4.30547e-08
3.65405e-10
4.30329e-08
3.08939e-10
4.30112e-08
2.59441e-10
4.29897e-08
2.16572e-10
4.29687e-08
1.79801e-10
4.29483e-08
1.48484e-10
4.29286e-08
1.2193e-10
4.29097e-08
9.9462e-11
4.28914e-08
8.04435e-11
4.2874e-08
6.43085e-11
4.28573e-08
5.05697e-11
4.28414e-08
3.88225e-11
4.28263e-08
2.87415e-11
4.2812e-08
2.00741e-11
4.27986e-08
1.26309e-11
4.27859e-08
6.2744e-12
4.27741e-08
9.07608e-13
4.27632e-08
-3.53811e-12
4.27532e-08
-7.11466e-12
4.2744e-08
-9.86744e-12
4.27357e-08
-1.18431e-11
4.27282e-08
-1.30955e-11
4.27215e-08
-1.36888e-11
4.27156e-08
-1.36979e-11
4.27104e-08
-1.32058e-11
4.27059e-08
-1.22966e-11
4.2702e-08
-1.10429e-11
4.26987e-08
-9.48766e-12
-7.68932e-12
4.36003e-08
2.72802e-09
-4.35122e-08
4.37058e-08
2.92353e-09
4.38194e-08
3.0704e-09
4.3932e-08
3.16405e-09
4.4037e-08
3.20778e-09
4.41304e-08
3.20954e-09
4.42101e-08
3.17897e-09
4.42761e-08
3.12553e-09