/*--------------------------------*- C++ -*----------------------------------*\
| =========                 |                                                 |
| \\      /  F ield         | OpenFOAM: The Open Source CFD Toolbox           |
|  \\    /   O peration     | Version:  2.3.0                                 |
|   \\  /    A nd           | Web:      www.OpenFOAM.org                      |
|    \\/     M anipulation  |                                                 |
\*---------------------------------------------------------------------------*/
FoamFile
{
    version     2.0;
    format      ascii;
    class       volVectorField;
    location    "0.25";
    object      U_0;
}
// * * * * * * * * * * * * * * * * * * * * * * * * * * * * * * * * * * * * * //

dimensions      [0 1 -1 0 0 0 0];

internalField   nonuniform List<vector> 
2945
(
(0.153856 0.00667737 0)
(0.125103 0.00576426 0)
(0.100526 0.00443477 0)
(0.0805601 0.00314333 0)
(0.0653323 0.00206611 0)
(0.05423 0.00126831 0)
(0.0463315 0.000739073 0)
(0.0407518 0.000420257 0)
(0.0367645 0.000243462 0)
(0.0338256 0.000152149 0)
(0.0315616 0.000107303 0)
(0.0297356 8.5256e-05 0)
(0.0282054 7.33006e-05 0)
(0.0268875 6.54318e-05 0)
(0.0257317 5.91829e-05 0)
(0.0247059 5.36974e-05 0)
(0.023788 4.87383e-05 0)
(0.0229612 4.42553e-05 0)
(0.0222126 4.02286e-05 0)
(0.0215317 3.66284e-05 0)
(0.0209099 3.34131e-05 0)
(0.0203402 3.05366e-05 0)
(0.0198166 2.79543e-05 0)
(0.0193345 2.56256e-05 0)
(0.0188897 2.35154e-05 0)
(0.0184789 2.15942e-05 0)
(0.0180992 1.98368e-05 0)
(0.0177481 1.82219e-05 0)
(0.0174237 1.67318e-05 0)
(0.0171241 1.53511e-05 0)
(0.016848 1.40668e-05 0)
(0.0165941 1.28678e-05 0)
(0.0163612 1.17437e-05 0)
(0.0161487 1.06845e-05 0)
(0.0159557 9.67925e-06 0)
(0.0157818 8.71437e-06 0)
(0.0156267 7.77274e-06 0)
(0.0154903 6.83249e-06 0)
(0.0153729 5.86612e-06 0)
(0.0152747 4.83836e-06 0)
(0.0151966 3.69999e-06 0)
(0.0151394 2.38862e-06 0)
(0.0151043 9.79457e-07 0)
(0.0150935 -1.11434e-07 0)
(0.0151037 -1.18713e-06 0)
(0.0151282 -1.98679e-06 0)
(0.0151632 -2.55861e-06 0)
(0.0152049 -2.87915e-06 0)
(0.0152503 -2.99163e-06 0)
(0.0152966 -2.95298e-06 0)
(0.015342 -2.81229e-06 0)
(0.0153853 -2.60924e-06 0)
(0.0154255 -2.37476e-06 0)
(0.0154625 -2.13112e-06 0)
(0.0154959 -1.89296e-06 0)
(0.0155259 -1.66888e-06 0)
(0.0155527 -1.46321e-06 0)
(0.0155764 -1.27744e-06 0)
(0.0155973 -1.11136e-06 0)
(0.0156157 -9.63791e-07 0)
(0.0156318 -8.33165e-07 0)
(0.0156459 -7.17791e-07 0)
(0.0156581 -6.16056e-07 0)
(0.0156686 -5.26465e-07 0)
(0.0156777 -4.47705e-07 0)
(0.0156854 -3.78606e-07 0)
(0.015692 -3.18143e-07 0)
(0.0156975 -2.65402e-07 0)
(0.0157022 -2.19552e-07 0)
(0.015706 -1.79827e-07 0)
(0.0157092 -1.45521e-07 0)
(0.0157118 -1.16107e-07 0)
(0.0157139 -9.22851e-08 0)
(0.0157153 -7.94258e-08 0)
(0.0157193 -3.36341e-07 0)
(0.184707 0.01096 0)
(0.176345 0.0104441 0)
(0.165391 0.00906329 0)
(0.153473 0.00746641 0)
(0.141839 0.00589387 0)
(0.13109 0.00449511 0)
(0.12144 0.00335554 0)
(0.112931 0.00249138 0)
(0.105513 0.00187032 0)
(0.0990789 0.00143858 0)
(0.0935007 0.00114137 0)
(0.0886463 0.000933847 0)
(0.0843962 0.000784148 0)
(0.0806487 0.00067169 0)
(0.0773201 0.000583877 0)
(0.074343 0.000513128 0)
(0.0716635 0.000454784 0)
(0.0692381 0.000405835 0)
(0.0670319 0.000364215 0)
(0.0650166 0.000328428 0)
(0.0631688 0.000297348 0)
(0.0614695 0.000270104 0)
(0.0599029 0.000246015 0)
(0.0584556 0.000224541 0)
(0.0571167 0.000205252 0)
(0.0558767 0.0001878 0)
(0.054728 0.000171903 0)
(0.0536637 0.000157328 0)
(0.0526784 0.000143882 0)
(0.0517672 0.000131404 0)
(0.0509264 0.000119754 0)
(0.0501525 0.000108817 0)
(0.0494428 9.84871e-05 0)
(0.0487953 8.86698e-05 0)
(0.0482083 7.92741e-05 0)
(0.0476806 7.02095e-05 0)
(0.0472116 6.13828e-05 0)
(0.046801 5.26992e-05 0)
(0.0464491 4.40653e-05 0)
(0.0461563 3.53943e-05 0)
(0.0459231 2.66059e-05 0)
(0.0457498 1.76179e-05 0)
(0.0456363 8.43421e-06 0)
(0.0455815 -1.68051e-07 0)
(0.0455849 -7.36241e-06 0)
(0.045629 -1.18877e-05 0)
(0.0457007 -1.4717e-05 0)
(0.0457903 -1.62857e-05 0)
(0.0458898 -1.68221e-05 0)
(0.0459932 -1.65772e-05 0)
(0.0460958 -1.57999e-05 0)
(0.0461946 -1.46979e-05 0)
(0.0462877 -1.343e-05 0)
(0.0463738 -1.21087e-05 0)
(0.0464526 -1.08088e-05 0)
(0.046524 -9.57535e-06 0)
(0.0465882 -8.43212e-06 0)
(0.0466455 -7.38882e-06 0)
(0.0466965 -6.44642e-06 0)
(0.0467415 -5.601e-06 0)
(0.0467811 -4.84624e-06 0)
(0.0468158 -4.17494e-06 0)
(0.046846 -3.5799e-06 0)
(0.0468722 -3.0542e-06 0)
(0.0468947 -2.59146e-06 0)
(0.046914 -2.18577e-06 0)
(0.0469303 -1.83168e-06 0)
(0.0469441 -1.5241e-06 0)
(0.0469557 -1.25823e-06 0)
(0.0469653 -1.02953e-06 0)
(0.0469733 -8.33851e-07 0)
(0.0469797 -6.68579e-07 0)
(0.046985 -5.38093e-07 0)
(0.0469889 -5.03545e-07 0)
(0.0469964 -1.1565e-06 0)
(0.191379 0.0115689 0)
(0.190746 0.0118706 0)
(0.187827 0.0110868 0)
(0.183115 0.00984088 0)
(0.177361 0.00841675 0)
(0.171099 0.00701978 0)
(0.16468 0.00578757 0)
(0.158343 0.0047745 0)
(0.15224 0.00397377 0)
(0.146455 0.00334985 0)
(0.141021 0.00286162 0)
(0.135941 0.00247375 0)
(0.131205 0.00215979 0)
(0.126796 0.00190116 0)
(0.122693 0.00168502 0)
(0.118876 0.00150228 0)
(0.115323 0.00134632 0)
(0.112015 0.00121211 0)
(0.108932 0.00109573 0)
(0.106057 0.000994084 0)
(0.103374 0.000904654 0)
(0.100869 0.000825417 0)
(0.0985274 0.000754723 0)
(0.0963388 0.000691222 0)
(0.0942926 0.000633804 0)
(0.0923796 0.000581551 0)
(0.0905918 0.000533698 0)
(0.0889225 0.000489603 0)
(0.0873657 0.000448723 0)
(0.0859163 0.000410598 0)
(0.0845702 0.000374829 0)
(0.0833237 0.000341073 0)
(0.0821742 0.000309025 0)
(0.0811194 0.000278409 0)
(0.0801579 0.000248974 0)
(0.0792886 0.000220481 0)
(0.0785112 0.00019271 0)
(0.0778255 0.000165463 0)
(0.0772317 0.000138587 0)
(0.07673 0.000111994 0)
(0.0763201 8.56993e-05 0)
(0.0760008 5.98594e-05 0)
(0.0757687 3.47375e-05 0)
(0.0756161 1.08247e-05 0)
(0.0755383 -9.98635e-06 0)
(0.0755349 -2.46884e-05 0)
(0.0755826 -3.36612e-05 0)
(0.0756652 -3.87159e-05 0)
(0.0757701 -4.09521e-05 0)
(0.0758878 -4.10848e-05 0)
(0.0760109 -3.97303e-05 0)
(0.0761342 -3.74197e-05 0)
(0.0762539 -3.45696e-05 0)
(0.0763678 -3.14815e-05 0)
(0.0764744 -2.83598e-05 0)
(0.0765729 -2.53339e-05 0)
(0.076663 -2.24785e-05 0)
(0.076745 -1.98314e-05 0)
(0.0768188 -1.74064e-05 0)
(0.0768851 -1.52033e-05 0)
(0.0769441 -1.32142e-05 0)
(0.0769963 -1.14273e-05 0)
(0.0770423 -9.82961e-06 0)
(0.0770825 -8.40777e-06 0)
(0.0771173 -7.14867e-06 0)
(0.0771474 -6.03963e-06 0)
(0.0771732 -5.06834e-06 0)
(0.0771951 -4.22279e-06 0)
(0.0772135 -3.49118e-06 0)
(0.077229 -2.86202e-06 0)
(0.0772417 -2.32456e-06 0)
(0.0772523 -1.87196e-06 0)
(0.0772608 -1.51428e-06 0)
(0.0772676 -1.39705e-06 0)
(0.077277 -2.24065e-06 0)
(0.193288 0.011024 0)
(0.194941 0.0117991 0)
(0.19539 0.0115129 0)
(0.194491 0.0106769 0)
(0.192522 0.0095564 0)
(0.189758 0.00835612 0)
(0.186437 0.00722981 0)
(0.182771 0.00625513 0)
(0.178927 0.00544717 0)
(0.175019 0.00478766 0)
(0.171121 0.00424759 0)
(0.167276 0.0037992 0)
(0.16351 0.00342042 0)
(0.15984 0.0030952 0)
(0.156278 0.00281224 0)
(0.152832 0.00256356 0)
(0.149507 0.00234334 0)
(0.146307 0.00214714 0)
(0.143234 0.00197143 0)
(0.140288 0.00181335 0)
(0.137469 0.00167048 0)
(0.134775 0.00154078 0)
(0.132204 0.00142252 0)
(0.129755 0.0013142 0)
(0.127425 0.00121453 0)
(0.125211 0.00112239 0)
(0.123112 0.0010368 0)
(0.121124 0.000956917 0)
(0.119247 0.000881983 0)
(0.117479 0.000811338 0)
(0.115818 0.000744395 0)
(0.114264 0.000680629 0)
(0.112816 0.000619565 0)
(0.111473 0.00056077 0)
(0.110237 0.000503848 0)
(0.109108 0.000448436 0)
(0.108087 0.00039422 0)
(0.107174 0.000340948 0)
(0.106371 0.000288478 0)
(0.105679 0.000236822 0)
(0.105096 0.000186221 0)
(0.10462 0.000137241 0)
(0.104247 9.08581e-05 0)
(0.103968 4.8125e-05 0)
(0.103767 1.0171e-05 0)
(0.103644 -2.06728e-05 0)
(0.1036 -4.22317e-05 0)
(0.103613 -5.54574e-05 0)
(0.103666 -6.26406e-05 0)
(0.103747 -6.55272e-05 0)
(0.103846 -6.5346e-05 0)
(0.103956 -6.30632e-05 0)
(0.104071 -5.94509e-05 0)
(0.104185 -5.50909e-05 0)
(0.104298 -5.03958e-05 0)
(0.104406 -4.56425e-05 0)
(0.104508 -4.10063e-05 0)
(0.104603 -3.65912e-05 0)
(0.104691 -3.24536e-05 0)
(0.104772 -2.86191e-05 0)
(0.104846 -2.5095e-05 0)
(0.104913 -2.18784e-05 0)
(0.104972 -1.89603e-05 0)
(0.105026 -1.6329e-05 0)
(0.105073 -1.39709e-05 0)
(0.105114 -1.18715e-05 0)
(0.105149 -1.00153e-05 0)
(0.10518 -8.38579e-06 0)
(0.105206 -6.96578e-06 0)
(0.105229 -5.7374e-06 0)
(0.105247 -4.68314e-06 0)
(0.105263 -3.79089e-06 0)
(0.105275 -3.07428e-06 0)
(0.105286 -2.7258e-06 0)
(0.105297 -3.48976e-06 0)
(0.19413 0.0103655 0)
(0.196195 0.0112983 0)
(0.197743 0.0112811 0)
(0.19846 0.0107293 0)
(0.198393 0.0098739 0)
(0.197647 0.00889072 0)
(0.196341 0.00792257 0)
(0.194612 0.00705303 0)
(0.192589 0.00630967 0)
(0.190371 0.00568641 0)
(0.188023 0.00516359 0)
(0.185591 0.0047197 0)
(0.183103 0.00433654 0)
(0.18058 0.00400038 0)
(0.178041 0.00370142 0)
(0.175498 0.00343275 0)
(0.172964 0.00318935 0)
(0.17045 0.00296747 0)
(0.167966 0.00276416 0)
(0.165519 0.00257706 0)
(0.163118 0.00240415 0)
(0.160767 0.00224376 0)
(0.158474 0.00209443 0)
(0.156242 0.00195488 0)
(0.154075 0.00182399 0)
(0.151979 0.00170076 0)
(0.149955 0.00158432 0)
(0.148007 0.00147385 0)
(0.146138 0.00136862 0)
(0.144352 0.00126797 0)
(0.142649 0.0011713 0)
(0.141035 0.00107805 0)
(0.13951 0.00098768 0)
(0.138079 0.000899727 0)
(0.136744 0.000813745 0)
(0.135508 0.000729341 0)
(0.134375 0.000646201 0)
(0.133346 0.000564124 0)
(0.132426 0.000483086 0)
(0.131614 0.000403317 0)
(0.130911 0.0003254 0)
(0.130316 0.000250389 0)
(0.129824 0.000179902 0)
(0.129429 0.000115935 0)
(0.129119 5.9909e-05 0)
(0.128876 1.22916e-05 0)
(0.128703 -2.5525e-05 0)
(0.128603 -5.232e-05 0)
(0.128559 -6.92335e-05 0)
(0.12856 -7.87204e-05 0)
(0.128593 -8.28707e-05 0)
(0.12865 -8.32296e-05 0)
(0.128724 -8.09839e-05 0)
(0.128808 -7.70478e-05 0)
(0.128899 -7.21008e-05 0)
(0.128992 -6.66255e-05 0)
(0.129086 -6.09517e-05 0)
(0.129178 -5.52966e-05 0)
(0.129267 -4.97987e-05 0)
(0.129351 -4.45432e-05 0)
(0.129431 -3.9581e-05 0)
(0.129506 -3.49408e-05 0)
(0.129574 -3.06379e-05 0)
(0.129637 -2.6679e-05 0)
(0.129694 -2.30646e-05 0)
(0.129744 -1.97907e-05 0)
(0.12979 -1.68496e-05 0)
(0.129829 -1.42297e-05 0)
(0.129864 -1.1916e-05 0)
(0.129893 -9.89047e-06 0)
(0.129918 -8.1334e-06 0)
(0.12994 -6.6295e-06 0)
(0.129957 -5.39221e-06 0)
(0.129972 -4.61799e-06 0)
(0.129986 -4.98566e-06 0)
(0.194711 0.00974301 0)
(0.196648 0.0106969 0)
(0.198401 0.0108228 0)
(0.199653 0.0104545 0)
(0.200374 0.00979462 0)
(0.200594 0.00899141 0)
(0.200366 0.00816968 0)
(0.199773 0.00741009 0)
(0.198904 0.0067458 0)
(0.197831 0.00617851 0)
(0.196608 0.0056954 0)
(0.195269 0.00528003 0)
(0.193835 0.00491743 0)
(0.192324 0.00459584 0)
(0.190748 0.00430663 0)
(0.189118 0.00404356 0)
(0.187444 0.00380215 0)
(0.185735 0.00357901 0)
(0.184001 0.00337154 0)
(0.182249 0.00317766 0)
(0.180487 0.00299566 0)
(0.178723 0.00282411 0)
(0.176964 0.00266178 0)
(0.175216 0.00250759 0)
(0.173486 0.00236062 0)
(0.171779 0.00222002 0)
(0.170103 0.00208504 0)
(0.168461 0.00195499 0)
(0.16686 0.00182924 0)
(0.165305 0.0017072 0)
(0.163801 0.00158832 0)
(0.162353 0.00147208 0)
(0.160966 0.00135801 0)
(0.159646 0.00124565 0)
(0.158397 0.0011346 0)
(0.157225 0.00102453 0)
(0.156134 0.0009152 0)
(0.155129 0.00080655 0)
(0.154212 0.000698761 0)
(0.153388 0.000592361 0)
(0.152656 0.000488332 0)
(0.152017 0.000388212 0)
(0.151468 0.00029414 0)
(0.151005 0.000208647 0)
(0.15062 0.000133979 0)
(0.150305 7.07472e-05 0)
(0.150046 1.84617e-05 0)
(0.149839 -2.27779e-05 0)
(0.149693 -5.26452e-05 0)
(0.149598 -7.23373e-05 0)
(0.149546 -8.41531e-05 0)
(0.149527 -9.01722e-05 0)
(0.149535 -9.20048e-05 0)
(0.149563 -9.08844e-05 0)
(0.149607 -8.77527e-05 0)
(0.149663 -8.33112e-05 0)
(0.149726 -7.80673e-05 0)
(0.149795 -7.23796e-05 0)
(0.149867 -6.64979e-05 0)
(0.14994 -6.05949e-05 0)
(0.150012 -5.47903e-05 0)
(0.150083 -4.91686e-05 0)
(0.150151 -4.37905e-05 0)
(0.150215 -3.87005e-05 0)
(0.150275 -3.39313e-05 0)
(0.150331 -2.95065e-05 0)
(0.150381 -2.54416e-05 0)
(0.150427 -2.17447e-05 0)
(0.150468 -1.84164e-05 0)
(0.150504 -1.54504e-05 0)
(0.150535 -1.28348e-05 0)
(0.150562 -1.05583e-05 0)
(0.150584 -8.63303e-06 0)
(0.150603 -7.22608e-06 0)
(0.150621 -6.83317e-06 0)
(0.195206 0.00917829 0)
(0.196905 0.0101014 0)
(0.19857 0.0103119 0)
(0.199917 0.0100686 0)
(0.200891 0.00955025 0)
(0.201497 0.00888511 0)
(0.201764 0.00818164 0)
(0.201743 0.00751492 0)
(0.201497 0.00692053 0)
(0.201084 0.00640545 0)
(0.200542 0.00596213 0)
(0.199899 0.00557813 0)
(0.19917 0.0052412 0)
(0.198367 0.00494111 0)
(0.197497 0.00467008 0)
(0.196567 0.00442233 0)
(0.195582 0.00419357 0)
(0.194548 0.00398061 0)
(0.19347 0.00378096 0)
(0.192355 0.00359265 0)
(0.191207 0.00341408 0)
(0.190031 0.00324391 0)
(0.188834 0.00308101 0)
(0.187621 0.00292442 0)
(0.186397 0.00277328 0)
(0.185167 0.00262685 0)
(0.183937 0.00248444 0)
(0.182713 0.00234544 0)
(0.181499 0.00220928 0)
(0.180301 0.00207542 0)
(0.179126 0.00194337 0)
(0.177977 0.00181265 0)
(0.176861 0.00168283 0)
(0.175783 0.00155351 0)
(0.17475 0.00142435 0)
(0.173765 0.00129511 0)
(0.172835 0.00116566 0)
(0.171965 0.00103611 0)
(0.171158 0.000906877 0)
(0.170417 0.000778794 0)
(0.169746 0.000653219 0)
(0.169143 0.000532114 0)
(0.168609 0.000418013 0)
(0.168142 0.000313764 0)
(0.167737 0.000221912 0)
(0.167391 0.000143769 0)
(0.167098 7.90679e-05 0)
(0.166848 2.64886e-05 0)
(0.166634 -1.49292e-05 0)
(0.166467 -4.56071e-05 0)
(0.166341 -6.67802e-05 0)
(0.166251 -8.04142e-05 0)
(0.166192 -8.83575e-05 0)
(0.166158 -9.20822e-05 0)
(0.166146 -9.27228e-05 0)
(0.166151 -9.11479e-05 0)
(0.166171 -8.8012e-05 0)
(0.166202 -8.38006e-05 0)
(0.166242 -7.88703e-05 0)
(0.166289 -7.34834e-05 0)
(0.16634 -6.78346e-05 0)
(0.166393 -6.20724e-05 0)
(0.166449 -5.63124e-05 0)
(0.166504 -5.0648e-05 0)
(0.166558 -4.51557e-05 0)
(0.16661 -3.98989e-05 0)
(0.16666 -3.49297e-05 0)
(0.166706 -3.02894e-05 0)
(0.166748 -2.60081e-05 0)
(0.166786 -2.21052e-05 0)
(0.16682 -1.85898e-05 0)
(0.16685 -1.54652e-05 0)
(0.166876 -1.27459e-05 0)
(0.166898 -1.05481e-05 0)
(0.166918 -9.05061e-06 0)
(0.195651 0.00867871 0)
(0.197118 0.00954917 0)
(0.198621 0.0098126 0)
(0.199912 0.0096609 0)
(0.200923 0.00925001 0)
(0.20165 0.00869289 0)
(0.202111 0.00808429 0)
(0.202344 0.00749321 0)
(0.202398 0.00695612 0)
(0.202318 0.00648392 0)
(0.202139 0.00607334 0)
(0.201881 0.00571545 0)
(0.201559 0.00540036 0)
(0.201181 0.00511929 0)
(0.200751 0.00486523 0)
(0.200273 0.00463278 0)
(0.199751 0.00441783 0)
(0.199186 0.00421725 0)
(0.198582 0.00402857 0)
(0.197941 0.00384982 0)
(0.197265 0.00367939 0)
(0.196559 0.00351596 0)
(0.195824 0.0033584 0)
(0.195065 0.00320572 0)
(0.194284 0.0030571 0)
(0.193485 0.00291177 0)
(0.192673 0.00276908 0)
(0.19185 0.0026284 0)
(0.191022 0.00248917 0)
(0.190192 0.00235087 0)
(0.189364 0.00221301 0)
(0.188544 0.00207514 0)
(0.187736 0.00193684 0)
(0.186944 0.00179775 0)
(0.186174 0.00165758 0)
(0.18543 0.00151614 0)
(0.184716 0.00137344 0)
(0.184037 0.00122973 0)
(0.183397 0.00108563 0)
(0.182798 0.00094224 0)
(0.182242 0.000801205 0)
(0.181732 0.000664801 0)
(0.181267 0.00053583 0)
(0.180847 0.000417312 0)
(0.18047 0.000311902 0)
(0.180137 0.000221161 0)
(0.179844 0.000145306 0)
(0.179589 8.3384e-05 0)
(0.179366 3.35858e-05 0)
(0.179168 -5.65777e-06 0)
(0.179002 -3.53076e-05 0)
(0.178867 -5.66239e-05 0)
(0.17876 -7.12073e-05 0)
(0.178678 -8.05903e-05 0)
(0.178618 -8.60115e-05 0)
(0.178577 -8.84308e-05 0)
(0.178553 -8.85863e-05 0)
(0.178544 -8.70423e-05 0)
(0.178547 -8.4227e-05 0)
(0.17856 -8.04667e-05 0)
(0.178581 -7.60131e-05 0)
(0.178609 -7.1065e-05 0)
(0.178642 -6.57844e-05 0)
(0.178679 -6.03076e-05 0)
(0.178718 -5.47523e-05 0)
(0.178757 -4.9222e-05 0)
(0.178797 -4.38078e-05 0)
(0.178836 -3.85891e-05 0)
(0.178873 -3.36331e-05 0)
(0.178908 -2.89935e-05 0)
(0.17894 -2.47105e-05 0)
(0.178969 -2.0812e-05 0)
(0.178995 -1.73205e-05 0)
(0.179016 -1.42924e-05 0)
(0.179036 -1.14906e-05 0)
(0.196056 0.00823835 0)
(0.197322 0.0090463 0)
(0.198658 0.00934214 0)
(0.199849 0.00926187 0)
(0.200822 0.00893786 0)
(0.201565 0.00846986 0)
(0.202089 0.0079409 0)
(0.202423 0.00741379 0)
(0.202608 0.0069249 0)
(0.202683 0.00648811 0)
(0.202677 0.0061038 0)
(0.202612 0.00576613 0)
(0.202499 0.00546748 0)
(0.202346 0.00520054 0)
(0.202158 0.00495912 0)
(0.201938 0.00473829 0)
(0.201687 0.00453417 0)
(0.201406 0.0043437 0)
(0.201097 0.00416445 0)
(0.200761 0.00399444 0)
(0.200398 0.00383204 0)
(0.200011 0.00367588 0)
(0.199599 0.0035248 0)
(0.199166 0.00337777 0)
(0.198713 0.00323393 0)
(0.19824 0.00309247 0)
(0.197752 0.0029527 0)
(0.197249 0.00281396 0)
(0.196735 0.00267567 0)
(0.196212 0.00253727 0)
(0.195682 0.00239826 0)
(0.19515 0.00225817 0)
(0.194617 0.00211657 0)
(0.194088 0.0019731 0)
(0.193565 0.00182752 0)
(0.193052 0.00167967 0)
(0.192552 0.00152966 0)
(0.192068 0.00137784 0)
(0.191603 0.00122499 0)
(0.191159 0.00107236 0)
(0.190738 0.00092182 0)
(0.190341 0.000775814 0)
(0.189968 0.000637276 0)
(0.189622 0.000509289 0)
(0.189302 0.000394529 0)
(0.189008 0.000294646 0)
(0.188743 0.000210074 0)
(0.188504 0.000140185 0)
(0.188292 8.35691e-05 0)
(0.188102 3.82797e-05 0)
(0.18793 2.52634e-06 0)
(0.187779 -2.49545e-05 0)
(0.18765 -4.53749e-05 0)
(0.187542 -6.00332e-05 0)
(0.187452 -7.01516e-05 0)
(0.18738 -7.67231e-05 0)
(0.187323 -8.0519e-05 0)
(0.187281 -8.21352e-05 0)
(0.187251 -8.20318e-05 0)
(0.187233 -8.05649e-05 0)
(0.187225 -7.80143e-05 0)
(0.187225 -7.4605e-05 0)
(0.187233 -7.05244e-05 0)
(0.187246 -6.59338e-05 0)
(0.187264 -6.09772e-05 0)
(0.187286 -5.57857e-05 0)
(0.18731 -5.04806e-05 0)
(0.187336 -4.51732e-05 0)
(0.187362 -3.99643e-05 0)
(0.187388 -3.49418e-05 0)
(0.187412 -3.0179e-05 0)
(0.187435 -2.57322e-05 0)
(0.187456 -2.16362e-05 0)
(0.187475 -1.78899e-05 0)
(0.187492 -1.38311e-05 0)
(0.196424 0.00784808 0)
(0.19752 0.00859028 0)
(0.198702 0.00890394 0)
(0.199787 0.00888076 0)
(0.200699 0.00862974 0)
(0.20142 0.00823822 0)
(0.201955 0.00777892 0)
(0.202327 0.00730857 0)
(0.202568 0.00686257 0)
(0.202712 0.00645697 0)
(0.202786 0.00609512 0)
(0.202809 0.00577396 0)
(0.202795 0.00548798 0)
(0.202752 0.00523133 0)
(0.202684 0.00499877 0)
(0.202595 0.00478588 0)
(0.202486 0.00458909 0)
(0.202358 0.00440553 0)
(0.202212 0.00423283 0)
(0.202049 0.00406906 0)
(0.201869 0.00391258 0)
(0.201673 0.00376202 0)
(0.201461 0.00361617 0)
(0.201234 0.003474 0)
(0.200992 0.00333459 0)
(0.200735 0.0031971 0)
(0.200466 0.00306078 0)
(0.200185 0.00292496 0)
(0.199892 0.00278899 0)
(0.19959 0.0026523 0)
(0.19928 0.00251433 0)
(0.198963 0.00237459 0)
(0.198641 0.00223265 0)
(0.198317 0.00208815 0)
(0.19799 0.00194082 0)
(0.197665 0.00179057 0)
(0.197342 0.00163753 0)
(0.197022 0.00148214 0)
(0.196708 0.00132526 0)
(0.196401 0.00116825 0)
(0.196102 0.00101305 0)
(0.195811 0.000862193 0)
(0.195531 0.000718607 0)
(0.195261 0.000585342 0)
(0.195004 0.000465028 0)
(0.194761 0.000359352 0)
(0.194534 0.000268862 0)
(0.194324 0.000193119 0)
(0.194132 0.000130958 0)
(0.193958 8.07493e-05 0)
(0.193799 4.06196e-05 0)
(0.193654 8.82908e-06 0)
(0.193522 -1.59643e-05 0)
(0.193406 -3.48735e-05 0)
(0.193304 -4.89576e-05 0)
(0.193216 -5.91752e-05 0)
(0.193141 -6.63027e-05 0)
(0.193077 -7.09448e-05 0)
(0.193025 -7.35689e-05 0)
(0.192984 -7.45382e-05 0)
(0.192952 -7.41386e-05 0)
(0.192928 -7.26007e-05 0)
(0.192913 -7.01172e-05 0)
(0.192904 -6.68557e-05 0)
(0.192902 -6.29685e-05 0)
(0.192904 -5.85983e-05 0)
(0.19291 -5.38811e-05 0)
(0.19292 -4.89474e-05 0)
(0.192932 -4.39205e-05 0)
(0.192945 -3.89145e-05 0)
(0.192959 -3.40298e-05 0)
(0.192972 -2.93482e-05 0)
(0.192986 -2.49169e-05 0)
(0.192997 -2.06893e-05 0)
(0.193009 -1.56806e-05 0)
(0.196758 0.00749987 0)
(0.197712 0.00817717 0)
(0.198756 0.00849781 0)
(0.199739 0.00852011 0)
(0.200587 0.00833115 0)
(0.201273 0.00800639 0)
(0.2018 0.00760936 0)
(0.202183 0.00719089 0)
(0.202448 0.00678477 0)
(0.202624 0.00640835 0)
(0.202736 0.00606737 0)
(0.202801 0.00576113 0)
(0.202833 0.00548606 0)
(0.202841 0.00523771 0)
(0.202829 0.00501178 0)
(0.202801 0.00480446 0)
(0.20276 0.00461256 0)
(0.202707 0.00443342 0)
(0.202643 0.00426484 0)
(0.202569 0.00410496 0)
(0.202485 0.00395219 0)
(0.202391 0.00380518 0)
(0.202289 0.00366275 0)
(0.202177 0.00352384 0)
(0.202057 0.00338752 0)
(0.201927 0.00325294 0)
(0.20179 0.00311933 0)
(0.201644 0.00298598 0)
(0.20149 0.00285222 0)
(0.201329 0.00271745 0)
(0.201162 0.00258109 0)
(0.200988 0.00244264 0)
(0.200808 0.00230163 0)
(0.200624 0.00215771 0)
(0.200435 0.00201063 0)
(0.200242 0.0018603 0)
(0.200046 0.00170688 0)
(0.199848 0.00155085 0)
(0.199647 0.00139312 0)
(0.199444 0.00123507 0)
(0.19924 0.00107866 0)
(0.199035 0.000926378 0)
(0.19883 0.000781085 0)
(0.198626 0.000645714 0)
(0.198424 0.000522799 0)
(0.198229 0.000414014 0)
(0.19804 0.000319989 0)
(0.197861 0.000240424 0)
(0.197694 0.000174325 0)
(0.197537 0.000120256 0)
(0.197393 7.65632e-05 0)
(0.197259 4.15507e-05 0)
(0.197136 1.36598e-05 0)
(0.197022 -8.36727e-06 0)
(0.196919 -2.55178e-05 0)
(0.196826 -3.86583e-05 0)
(0.196743 -4.85368e-05 0)
(0.196669 -5.57562e-05 0)
(0.196604 -6.07849e-05 0)
(0.196548 -6.39852e-05 0)
(0.1965 -6.564e-05 0)
(0.196459 -6.59753e-05 0)
(0.196426 -6.5178e-05 0)
(0.1964 -6.34102e-05 0)
(0.19638 -6.08197e-05 0)
(0.196365 -5.75473e-05 0)
(0.196355 -5.37308e-05 0)
(0.196349 -4.95063e-05 0)
(0.196347 -4.50078e-05 0)
(0.196347 -4.03636e-05 0)
(0.196349 -3.5692e-05 0)
(0.196352 -3.10925e-05 0)
(0.196356 -2.66225e-05 0)
(0.19636 -2.22079e-05 0)
(0.196365 -1.67273e-05 0)
(0.197062 0.0071871 0)
(0.197897 0.00780277 0)
(0.198819 0.00812236 0)
(0.199707 0.00818023 0)
(0.20049 0.00804396 0)
(0.201138 0.0077777 0)
(0.201649 0.00743673 0)
(0.202032 0.00706623 0)
(0.202308 0.00669792 0)
(0.202502 0.00634972 0)
(0.202634 0.00602917 0)
(0.202721 0.00573754 0)
(0.202776 0.00547296 0)
(0.202808 0.00523228 0)
(0.202822 0.00501211 0)
(0.202823 0.00480928 0)
(0.202813 0.00462101 0)
(0.202795 0.00444492 0)
(0.202769 0.00427898 0)
(0.202737 0.00412145 0)
(0.202699 0.00397085 0)
(0.202655 0.00382587 0)
(0.202607 0.00368535 0)
(0.202554 0.00354829 0)
(0.202497 0.00341374 0)
(0.202435 0.00328089 0)
(0.202368 0.00314894 0)
(0.202297 0.0030172 0)
(0.202222 0.00288498 0)
(0.202141 0.00275168 0)
(0.202057 0.00261671 0)
(0.201967 0.00247956 0)
(0.201873 0.00233978 0)
(0.201775 0.00219701 0)
(0.201671 0.002051 0)
(0.201562 0.0019017 0)
(0.201449 0.00174928 0)
(0.201329 0.00159425 0)
(0.201204 0.00143751 0)
(0.201072 0.00128044 0)
(0.200933 0.00112495 0)
(0.200789 0.000973429 0)
(0.200638 0.000828606 0)
(0.200483 0.000693251 0)
(0.200325 0.000569763 0)
(0.200166 0.000459771 0)
(0.200009 0.000363957 0)
(0.199857 0.000282134 0)
(0.199711 0.000213457 0)
(0.199572 0.000156641 0)
(0.199441 0.000110186 0)
(0.199318 7.25366e-05 0)
(0.199204 4.22113e-05 0)
(0.199097 1.7876e-05 0)
(0.198997 -1.56432e-06 0)
(0.198904 -1.69618e-05 0)
(0.198819 -2.90244e-05 0)
(0.198741 -3.83361e-05 0)
(0.19867 -4.53639e-05 0)
(0.198606 -5.04697e-05 0)
(0.198548 -5.39334e-05 0)
(0.198497 -5.59747e-05 0)
(0.198453 -5.6772e-05 0)
(0.198414 -5.64775e-05 0)
(0.198381 -5.52288e-05 0)
(0.198353 -5.31575e-05 0)
(0.198331 -5.03949e-05 0)
(0.198312 -4.70738e-05 0)
(0.198298 -4.33286e-05 0)
(0.198287 -3.92926e-05 0)
(0.198278 -3.50922e-05 0)
(0.198272 -3.08371e-05 0)
(0.198268 -2.65916e-05 0)
(0.198265 -2.22754e-05 0)
(0.198262 -1.68319e-05 0)
(0.197338 0.00690439 0)
(0.198072 0.00746295 0)
(0.198888 0.00777578 0)
(0.199689 0.00786075 0)
(0.200409 0.00776889 0)
(0.201018 0.0075538 0)
(0.201509 0.00726325 0)
(0.201887 0.00693715 0)
(0.202169 0.0066048 0)
(0.202372 0.00628416 0)
(0.202517 0.00598401 0)
(0.202618 0.0057072 0)
(0.202687 0.00545333 0)
(0.202733 0.00522041 0)
(0.202761 0.00500594 0)
(0.202776 0.00480737 0)
(0.202781 0.00462233 0)
(0.202779 0.00444874 0)
(0.20277 0.00428479 0)
(0.202757 0.00412887 0)
(0.20274 0.00397961 0)
(0.20272 0.00383578 0)
(0.202697 0.00369628 0)
(0.202671 0.00356014 0)
(0.202644 0.00342648 0)
(0.202614 0.00329447 0)
(0.202582 0.00316337 0)
(0.202548 0.00303248 0)
(0.202512 0.00290114 0)
(0.202473 0.00276874 0)
(0.202432 0.00263473 0)
(0.202388 0.00249859 0)
(0.20234 0.0023599 0)
(0.202289 0.00221831 0)
(0.202233 0.0020736 0)
(0.202172 0.00192574 0)
(0.202106 0.00177491 0)
(0.202033 0.00162163 0)
(0.201952 0.0014668 0)
(0.201864 0.00131176 0)
(0.201766 0.00115833 0)
(0.20166 0.00100879 0)
(0.201545 0.000865681 0)
(0.201423 0.000731596 0)
(0.201294 0.000608778 0)
(0.201162 0.000498786 0)
(0.201029 0.000402329 0)
(0.200897 0.000319315 0)
(0.200768 0.000249027 0)
(0.200643 0.000190321 0)
(0.200523 0.000141825 0)
(0.20041 0.000102097 0)
(0.200302 6.97453e-05 0)
(0.2002 4.35011e-05 0)
(0.200105 2.22552e-05 0)
(0.200015 5.08979e-06 0)
(0.19993 -8.71463e-06 0)
(0.199851 -1.97298e-05 0)
(0.199778 -2.84142e-05 0)
(0.19971 -3.51292e-05 0)
(0.199647 -4.01537e-05 0)
(0.199591 -4.37034e-05 0)
(0.199539 -4.59495e-05 0)
(0.199493 -4.70342e-05 0)
(0.199452 -4.70841e-05 0)
(0.199415 -4.62196e-05 0)
(0.199384 -4.45614e-05 0)
(0.199357 -4.22343e-05 0)
(0.199334 -3.93676e-05 0)
(0.199314 -3.60926e-05 0)
(0.199298 -3.25374e-05 0)
(0.199284 -2.88152e-05 0)
(0.199273 -2.49964e-05 0)
(0.199264 -2.10135e-05 0)
(0.199256 -1.60283e-05 0)
(0.19759 0.00664738 0)
(0.198237 0.00715388 0)
(0.198961 0.0074561 0)
(0.199682 0.00756106 0)
(0.200343 0.00750627 0)
(0.200913 0.00733573 0)
(0.201382 0.00709035 0)
(0.201751 0.00680515 0)
(0.202034 0.00650691 0)
(0.202244 0.00621312 0)
(0.202398 0.00593335 0)
(0.202509 0.00567169 0)
(0.202588 0.00542895 0)
(0.202643 0.0052042 0)
(0.20268 0.00499573 0)
(0.202704 0.00480159 0)
(0.202718 0.00461985 0)
(0.202724 0.00444872 0)
(0.202724 0.0042866 0)
(0.20272 0.00413206 0)
(0.202712 0.00398383 0)
(0.202702 0.00384078 0)
(0.20269 0.00370188 0)
(0.202677 0.00356623 0)
(0.202663 0.00343296 0)
(0.202648 0.00330131 0)
(0.202632 0.00317057 0)
(0.202615 0.00304004 0)
(0.202597 0.00290912 0)
(0.202577 0.00277722 0)
(0.202557 0.00264381 0)
(0.202534 0.00250839 0)
(0.202509 0.00237058 0)
(0.202482 0.00223005 0)
(0.20245 0.00208661 0)
(0.202414 0.00194025 0)
(0.202372 0.00179119 0)
(0.202323 0.00163994 0)
(0.202267 0.00148739 0)
(0.202203 0.00133482 0)
(0.202129 0.00118398 0)
(0.202045 0.00103698 0)
(0.201952 0.000896203 0)
(0.20185 0.000764036 0)
(0.201741 0.000642562 0)
(0.201627 0.000533259 0)
(0.201509 0.000436844 0)
(0.201391 0.000353302 0)
(0.201274 0.000282028 0)
(0.20116 0.000222008 0)
(0.201049 0.000171986 0)
(0.200942 0.000130624 0)
(0.20084 9.66094e-05 0)
(0.200743 6.87299e-05 0)
(0.200651 4.59146e-05 0)
(0.200563 2.72529e-05 0)
(0.20048 1.19939e-05 0)
(0.200402 -4.56918e-07 0)
(0.200328 -1.05583e-05 0)
(0.200258 -1.86695e-05 0)
(0.200194 -2.50683e-05 0)
(0.200134 -2.99688e-05 0)
(0.200078 -3.35366e-05 0)
(0.200028 -3.59062e-05 0)
(0.199982 -3.71936e-05 0)
(0.199941 -3.75079e-05 0)
(0.199904 -3.69589e-05 0)
(0.199871 -3.56613e-05 0)
(0.199843 -3.37362e-05 0)
(0.199818 -3.13095e-05 0)
(0.199796 -2.85066e-05 0)
(0.199778 -2.54412e-05 0)
(0.199762 -2.21891e-05 0)
(0.199749 -1.87114e-05 0)
(0.199736 -1.446e-05 0)
(0.197819 0.00641255 0)
(0.198393 0.00687211 0)
(0.199035 0.00716132 0)
(0.199684 0.00728043 0)
(0.200289 0.00725625 0)
(0.200821 0.00712425 0)
(0.201266 0.00691913 0)
(0.201625 0.00667143 0)
(0.201906 0.00640531 0)
(0.20212 0.00613751 0)
(0.20228 0.00587798 0)
(0.202399 0.00563172 0)
(0.202486 0.00540054 0)
(0.202549 0.00518441 0)
(0.202593 0.00498237 0)
(0.202623 0.00479301 0)
(0.202642 0.00461483 0)
(0.202654 0.00444633 0)
(0.202659 0.00428615 0)
(0.20266 0.00413303 0)
(0.202658 0.00398581 0)
(0.202653 0.00384347 0)
(0.202647 0.00370507 0)
(0.202639 0.00356973 0)
(0.20263 0.00343669 0)
(0.202621 0.00330519 0)
(0.202612 0.00317457 0)
(0.202602 0.00304419 0)
(0.202592 0.00291346 0)
(0.202581 0.00278183 0)
(0.20257 0.0026488 0)
(0.202557 0.00251393 0)
(0.202542 0.00237683 0)
(0.202524 0.00223723 0)
(0.202504 0.00209498 0)
(0.202479 0.00195009 0)
(0.202449 0.00180281 0)
(0.202412 0.00165365 0)
(0.202369 0.00150348 0)
(0.202316 0.00135353 0)
(0.202255 0.00120544 0)
(0.202184 0.00106119 0)
(0.202103 0.000922975 0)
(0.202013 0.000793001 0)
(0.201916 0.000673189 0)
(0.201813 0.000564929 0)
(0.201707 0.000468934 0)
(0.201598 0.000385248 0)
(0.20149 0.000313369 0)
(0.201382 0.000252394 0)
(0.201278 0.000201181 0)
(0.201177 0.000158487 0)
(0.201079 0.000123073 0)
(0.200985 9.37794e-05 0)
(0.200896 6.95701e-05 0)
(0.20081 4.95513e-05 0)
(0.200729 3.29787e-05 0)
(0.200651 1.92473e-05 0)
(0.200578 7.87733e-06 0)
(0.200509 -1.4975e-06 0)
(0.200443 -9.15412e-06 0)
(0.200382 -1.53039e-05 0)
(0.200325 -2.01089e-05 0)
(0.200273 -2.3697e-05 0)
(0.200225 -2.61752e-05 0)
(0.200181 -2.76421e-05 0)
(0.200141 -2.81962e-05 0)
(0.200105 -2.79416e-05 0)
(0.200074 -2.69904e-05 0)
(0.200046 -2.54612e-05 0)
(0.200021 -2.34747e-05 0)
(0.2 -2.11432e-05 0)
(0.199981 -1.85488e-05 0)
(0.199966 -1.569e-05 0)
(0.199951 -1.2306e-05 0)
(0.198029 0.00619708 0)
(0.198539 0.0066146 0)
(0.19911 0.0068895 0)
(0.199694 0.00701805 0)
(0.200246 0.00701884 0)
(0.20074 0.00691996 0)
(0.201162 0.00675054 0)
(0.201508 0.00653699 0)
(0.201784 0.00630095 0)
(0.202 0.0060581 0)
(0.202165 0.0058185 0)
(0.20229 0.00558775 0)
(0.202383 0.00536847 0)
(0.202452 0.00516139 0)
(0.202502 0.00496619 0)
(0.202538 0.004782 0)
(0.202562 0.0046077 0)
(0.202578 0.00444211 0)
(0.202588 0.00428409 0)
(0.202592 0.00413254 0)
(0.202593 0.00398645 0)
(0.202591 0.0038449 0)
(0.202588 0.00370701 0)
(0.202583 0.00357201 0)
(0.202577 0.00343916 0)
(0.202571 0.00330778 0)
(0.202565 0.00317724 0)
(0.202558 0.00304693 0)
(0.202551 0.00291631 0)
(0.202544 0.00278487 0)
(0.202536 0.00265213 0)
(0.202526 0.00251771 0)
(0.202515 0.00238125 0)
(0.202502 0.00224252 0)
(0.202486 0.0021014 0)
(0.202466 0.00195794 0)
(0.202441 0.0018124 0)
(0.20241 0.00166531 0)
(0.202372 0.0015175 0)
(0.202326 0.00137015 0)
(0.202271 0.00122482 0)
(0.202207 0.00108334 0)
(0.202133 0.000947737 0)
(0.202051 0.000820034 0)
(0.201962 0.000702004 0)
(0.201866 0.000594951 0)
(0.201767 0.000499571 0)
(0.201665 0.000415961 0)
(0.201563 0.000343702 0)
(0.201461 0.000281995 0)