/*--------------------------------*- C++ -*----------------------------------*\
| =========                 |                                                 |
| \\      /  F ield         | OpenFOAM: The Open Source CFD Toolbox           |
|  \\    /   O peration     | Version:  2.3.0                                 |
|   \\  /    A nd           | Web:      www.OpenFOAM.org                      |
|    \\/     M anipulation  |                                                 |
\*---------------------------------------------------------------------------*/
FoamFile
{
    version     2.0;
    format      ascii;
    class       volScalarField;
    location    "0.6";
    object      p;
}
// * * * * * * * * * * * * * * * * * * * * * * * * * * * * * * * * * * * * * //

dimensions      [0 2 -2 0 0 0 0];

internalField   nonuniform List<scalar> 
2889
(
0.00269119
0.00241265
0.00182558
0.00125316
0.000769665
0.000358182
8.99489e-06
-0.000263583
-0.000440748
-0.000524432
-0.000537975
-0.000511464
-0.0004693
-0.000426598
-0.000390698
-0.000363652
-0.000344569
-0.000331428
-0.000322174
-0.000315177
-0.000309314
-0.000303897
-0.000298555
-0.000293122
-0.000287553
-0.000281864
-0.000276093
-0.000270283
-0.000264472
-0.000258688
-0.000252951
-0.000247276
-0.000241669
-0.000236138
-0.000230682
-0.000225307
-0.000220012
-0.000214799
-0.000209671
-0.000204628
-0.000199674
-0.000194811
-0.000190041
-0.000185367
-0.000180791
-0.000176317
-0.000171944
-0.000167678
-0.000163515
-0.000159462
-0.000155515
-0.000151678
-0.000147949
-0.000144329
-0.000140816
-0.000137412
-0.000134111
-0.000130918
-0.000127824
-0.000124836
-0.000121941
-0.000119146
-0.000116439
-0.000113825
-0.000111294
-0.000108846
-0.000106471
-0.000104173
-0.000101935
-9.97649e-05
-9.7641e-05
-9.55729e-05
-9.3537e-05
-9.15414e-05
-8.95617e-05
-8.76062e-05
-8.56451e-05
-8.36916e-05
-8.1707e-05
-7.97108e-05
-7.76544e-05
-7.55642e-05
-7.33794e-05
-7.11373e-05
-6.87586e-05
-6.62974e-05
-6.36493e-05
-6.08921e-05
-5.78862e-05
-5.47445e-05
-5.12784e-05
-4.76487e-05
-4.36007e-05
-3.93647e-05
-3.45879e-05
-2.9605e-05
-2.3921e-05
-1.80283e-05
-1.12002e-05
-4.26375e-06
0.00226459
0.00211953
0.00171114
0.0012197
0.000764587
0.000373148
4.53001e-05
-0.000209763
-0.000381171
-0.00046984
-0.00049301
-0.000476336
-0.00044267
-0.000406657
-0.000375721
-0.000352122
-0.000335307
-0.000323632
-0.000315352
-0.000309044
-0.000303711
-0.000298732
-0.000293773
-0.000288682
-0.000283422
-0.000278013
-0.000272496
-0.000266916
-0.000261311
-0.000255715
-0.000250148
-0.000244629
-0.000239164
-0.000233763
-0.000228428
-0.000223164
-0.000217973
-0.000212857
-0.000207819
-0.000202861
-0.000197986
-0.000193197
-0.000188497
-0.000183889
-0.000179375
-0.00017496
-0.000170642
-0.000166429
-0.000162316
-0.00015831
-0.000154408
-0.000150613
-0.000146925
-0.000143343
-0.000139867
-0.000136498
-0.000133231
-0.000130071
-0.000127008
-0.000124049
-0.000121182
-0.000118415
-0.000115734
-0.000113146
-0.000110639
-0.000108214
-0.000105862
-0.000103586
-0.000101369
-9.92198e-05
-9.71156e-05
-9.50669e-05
-9.30497e-05
-9.10723e-05
-8.91102e-05
-8.71721e-05
-8.52274e-05
-8.32906e-05
-8.13214e-05
-7.93411e-05
-7.72992e-05
-7.52244e-05
-7.3053e-05
-7.08258e-05
-6.84595e-05
-6.60128e-05
-6.3376e-05
-6.06329e-05
-5.7637e-05
-5.4509e-05
-5.10514e-05
-4.74353e-05
-4.33938e-05
-3.91715e-05
-3.43984e-05
-2.94296e-05
-2.37447e-05
-1.78682e-05
-1.10322e-05
-4.12918e-06
0.00196856
0.00188081
0.00160064
0.00119592
0.000780565
0.000413696
0.000110492
-0.000125446
-0.000291516
-0.000389167
-0.00042895
-0.000429117
-0.000409013
-0.000383179
-0.000359214
-0.000339948
-0.000325625
-0.000315343
-0.000307884
-0.000302136
-0.000297262
-0.00029271
-0.000288169
-0.000283489
-0.000278626
-0.00027359
-0.000268417
-0.000263151
-0.000257828
-0.000252485
-0.000247143
-0.000241824
-0.000236539
-0.0002313
-0.00022611
-0.000220978
-0.000215908
-0.000210901
-0.000205964
-0.000201098
-0.00019631
-0.000191601
-0.000186975
-0.000182437
-0.000177987
-0.000173634
-0.000169372
-0.000165214
-0.000161151
-0.000157193
-0.000153336
-0.000149584
-0.000145937
-0.000142394
-0.000138955
-0.000135621
-0.000132387
-0.000129259
-0.000126225
-0.000123296
-0.000120456
-0.000117716
-0.000115061
-0.000112497
-0.000110013
-0.000107612
-0.000105282
-0.000103027
-0.00010083
-9.87014e-05
-9.6616e-05
-9.45864e-05
-9.25872e-05
-9.06276e-05
-8.86826e-05
-8.67616e-05
-8.48328e-05
-8.29129e-05
-8.09585e-05
-7.89946e-05
-7.69667e-05
-7.49079e-05
-7.27498e-05
-7.05386e-05
-6.81844e-05
-6.57539e-05
-6.31281e-05
-6.04016e-05
-5.74155e-05
-5.43048e-05
-5.08556e-05
-4.72577e-05
-4.32226e-05
-3.90206e-05
-3.42509e-05
-2.93053e-05
-2.36202e-05
-1.77697e-05
-1.09414e-05
-4.08113e-06
0.00176515
0.00169271
0.00148813
0.00116206
0.000796258
0.000459075
0.000178518
-4.06059e-05
-0.000199855
-0.000302333
-0.000355269
-0.000371294
-0.00036548
-0.000350608
-0.000334469
-0.000320595
-0.000309923
-0.000302122
-0.000296396
-0.000291922
-0.000288046
-0.000284328
-0.000280515
-0.000276491
-0.000272223
-0.000267725
-0.000263035
-0.000258199
-0.000253259
-0.000248255
-0.000243213
-0.000238163
-0.000233117
-0.000228094
-0.000223099
-0.000218144
-0.000213235
-0.000208376
-0.000203576
-0.000198836
-0.000194165
-0.000189564
-0.000185039
-0.000180596
-0.000176233
-0.000171963
-0.000167777
-0.000163691
-0.000159696
-0.000155802
-0.000152005
-0.000148309
-0.000144715
-0.000141222
-0.00013783
-0.000134541
-0.00013135
-0.000128263
-0.000125267
-0.000122375
-0.00011957
-0.000116863
-0.00011424
-0.000111706
-0.000109252
-0.000106878
-0.000104575
-0.000102346
-0.000100174
-9.80694e-05
-9.60067e-05
-9.39998e-05
-9.20224e-05
-9.00839e-05
-8.81597e-05
-8.62589e-05
-8.43495e-05
-8.24493e-05
-8.05132e-05
-7.85686e-05
-7.65584e-05
-7.45186e-05
-7.23772e-05
-7.01852e-05
-6.7847e-05
-6.54362e-05
-6.28256e-05
-6.01198e-05
-5.71479e-05
-5.40593e-05
-5.06234e-05
-4.70498e-05
-4.30268e-05
-3.88527e-05
-3.40934e-05
-2.91801e-05
-2.35059e-05
-1.76909e-05
-1.08948e-05
-4.08371e-06
0.00160351
0.00153458
0.00137331
0.00111156
0.000798799
0.000495773
0.000237354
3.2995e-05
-0.000119015
-0.000222884
-0.000284443
-0.000312722
-0.00031908
-0.000314163
-0.000305462
-0.000296985
-0.000290216
-0.000285253
-0.00028162
-0.000278735
-0.000276116
-0.000273439
-0.00027053
-0.000267312
-0.000263774
-0.000259941
-0.000255854
-0.000251564
-0.000247115
-0.000242553
-0.000237908
-0.000233215
-0.00022849
-0.000223757
-0.000219025
-0.000214309
-0.000209618
-0.000204959
-0.000200343
-0.000195772
-0.000191259
-0.000186804
-0.000182414
-0.000178098
-0.000173853
-0.000169694
-0.000165612
-0.000161623
-0.000157719
-0.000153911
-0.000150195
-0.000146576
-0.000143054
-0.000139628
-0.000136302
-0.000133073
-0.000129939
-0.000126907
-0.000123963
-0.000121121
-0.000118362
-0.0001157
-0.000113119
-0.000110625
-0.00010821
-0.000105873
-0.000103605
-0.00010141
-9.92704e-05
-9.71976e-05
-9.51648e-05
-9.3187e-05
-9.12381e-05
-8.93263e-05
-8.7429e-05
-8.55538e-05
-8.36696e-05
-8.17944e-05
-7.98823e-05
-7.79619e-05
-7.5975e-05
-7.39592e-05
-7.18405e-05
-6.96729e-05
-6.73568e-05
-6.49713e-05
-6.23824e-05
-5.97036e-05
-5.6753e-05
-5.36942e-05
-5.02795e-05
-4.67394e-05
-4.27378e-05
-3.86023e-05
-3.38665e-05
-2.89966e-05
-2.33541e-05
-1.75868e-05
-1.08552e-05
-4.10511e-06
0.00146489
0.0013977
0.00126321
0.00105075
0.000788212
0.000521626
0.000285851
9.50811e-05
-4.98611e-05
-0.00015299
-0.000219716
-0.000256983
-0.000273272
-0.000277135
-0.000275327
-0.000271996
-0.000269026
-0.000266883
-0.000265369
-0.000264111
-0.000262784
-0.000261177
-0.000259188
-0.000256789
-0.000253995
-0.000250844
-0.000247383
-0.000243666
-0.00023974
-0.000235654
-0.000231443
-0.000227144
-0.000222778
-0.000218373
-0.000213941
-0.000209501
-0.000205063
-0.000200638
-0.00019624
-0.00019187
-0.000187544
-0.000183264
-0.000179038
-0.000174876
-0.000170775
-0.000166751
-0.000162796
-0.000158928
-0.000155136
-0.000151435
-0.00014782
-0.000144295
-0.000140864
-0.000137523
-0.000134277
-0.000131125
-0.000128063
-0.0001251
-0.00012222
-0.000119441
-0.00011674
-0.000114134
-0.000111607
-0.000109164
-0.000106798
-0.000104506
-0.000102283
-0.000100131
-9.80311e-05
-9.59974e-05
-9.4002e-05
-9.20601e-05
-9.01465e-05
-8.8268e-05
-8.64041e-05
-8.45604e-05
-8.27075e-05
-8.0863e-05
-7.89808e-05
-7.70904e-05
-7.51328e-05
-7.31468e-05
-7.10569e-05
-6.89201e-05
-6.66324e-05
-6.42794e-05
-6.17194e-05
-5.90757e-05
-5.61546e-05
-5.31349e-05
-4.97515e-05
-4.62553e-05
-4.22889e-05
-3.82031e-05
-3.35108e-05
-2.86958e-05
-2.31148e-05
-1.74097e-05
-1.07818e-05
-4.11243e-06
0.00134277
0.00127796
0.0011624
0.000987336
0.000768246
0.000537313
0.000324864
0.000147636
9.66326e-06
-9.16719e-05
-0.000161265
-0.000204891
-0.000229067
-0.000240518
-0.000245016
-0.000246539
-0.000247203
-0.000247788
-0.000248357
-0.000248728
-0.000248712
-0.000248194
-0.000247143
-0.000245571
-0.000243524
-0.000241053
-0.000238216
-0.00023507
-0.000231667
-0.000228058
-0.000224281
-0.000220379
-0.000216375
-0.000212302
-0.000208174
-0.000204015
-0.000199837
-0.000195653
-0.000191479
-0.000187319
-0.00018319
-0.000179094
-0.000175042
-0.000171043
-0.000167096
-0.000163219
-0.000159401
-0.000155664
-0.000151996
-0.000148412
-0.000144909
-0.00014149
-0.000138159
-0.000134914
-0.000131759
-0.000128694
-0.000125714
-0.00012283
-0.000120024
-0.000117316
-0.000114683
-0.000112141
-0.000109676
-0.00010729
-0.000104981
-0.000102742
-0.000100571
-9.84667e-05
-9.6414e-05
-9.44253e-05
-9.24732e-05
-9.05727e-05
-8.86997e-05
-8.68596e-05
-8.50339e-05
-8.32269e-05
-8.14101e-05
-7.96011e-05
-7.77536e-05
-7.58982e-05
-7.39747e-05
-7.20241e-05
-6.99679e-05
-6.78682e-05
-6.56145e-05
-6.33011e-05
-6.07766e-05
-5.81761e-05
-5.52931e-05
-5.23214e-05
-4.89813e-05
-4.55383e-05
-4.16247e-05
-3.75979e-05
-3.29744e-05
-2.82252e-05
-2.27407e-05
-1.71151e-05
-1.06319e-05
-4.06715e-06
0.00123421
0.00117256
0.00107193
0.000925501
0.000742198
0.000543878
0.000354759
0.000191579
6.08831e-05
-3.79744e-05
-0.000108921
-0.000156888
-0.000187119
-0.000204905
-0.000215005
-0.000221009
-0.000225096
-0.000228284
-0.000230873
-0.000232857
-0.000234164
-0.000234762
-0.000234671
-0.000233945
-0.000232654
-0.000230868
-0.000228655
-0.000226079
-0.000223195
-0.00022006
-0.000216714
-0.000213206
-0.000209561
-0.000205817
-0.000201991
-0.00019811
-0.00019419
-0.000190246
-0.000186294
-0.000182343
-0.000178409
-0.000174497
-0.000170618
-0.000166783
-0.000162991
-0.00015926
-0.000155582
-0.000151977
-0.000148435
-0.000144971
-0.000141581
-0.000138272
-0.000135044
-0.000131898
-0.000128837
-0.000125861
-0.000122967
-0.000120165
-0.000117437
-0.000114803
-0.000112241
-0.000109768
-0.000107367
-0.000105043
-0.000102793
-0.000100611
-9.84937e-05
-9.64413e-05
-9.44383e-05
-9.24974e-05
-9.05912e-05
-8.8735e-05
-8.69048e-05
-8.51063e-05
-8.33207e-05
-8.15534e-05
-7.97747e-05
-7.80046e-05
-7.61938e-05
-7.43771e-05
-7.24899e-05
-7.05788e-05
-6.85593e-05
-6.65013e-05
-6.42857e-05
-6.20171e-05
-5.95342e-05
-5.69822e-05
-5.41468e-05
-5.12286e-05
-4.79456e-05
-4.45617e-05
-4.07203e-05
-3.67595e-05
-3.22314e-05
-2.75591e-05
-2.22049e-05
-1.66787e-05
-1.03782e-05
-3.94385e-06
0.00113718
0.00107917
0.000990937
0.000866855
0.000712458
0.000542653
0.000375907
0.000227227
0.000104418
8.71498e-06
-6.24892e-05
-0.000113266
-0.000147962
-0.000170824
-0.000185712
-0.00019573
-0.000202975
-0.000208609
-0.000213127
-0.000216682
-0.000219304
-0.000221026
-0.000221911
-0.000222042
-0.000221514
-0.000220415
-0.000218824
-0.000216815
-0.000214447
-0.000211783
-0.000208867
-0.00020575
-0.000202463
-0.000199046
-0.000195522
-0.000191919
-0.000188256
-0.00018455
-0.000180821
-0.000177078
-0.000173339
-0.000169611
-0.000165904
-0.000162232
-0.000158594
-0.00015501
-0.00015147
-0.000147998
-0.00014458
-0.000141237
-0.00013796
-0.000134759
-0.000131634
-0.000128587
-0.00012562
-0.000122734
-0.000119926
-0.000117205
-0.000114556
-0.000111997
-0.000109506
-0.0001071
-0.000104764
-0.000102503
-0.000100312
-9.81868e-05
-9.61239e-05
-9.41238e-05
-9.21706e-05
-9.02777e-05
-8.84172e-05
-8.6606e-05
-8.4818e-05
-8.3062e-05
-8.1316e-05
-7.95894e-05
-7.78485e-05
-7.61182e-05
-7.43442e-05
-7.25675e-05
-7.07172e-05
-6.88472e-05
-6.6866e-05
-6.48514e-05
-6.26773e-05
-6.04552e-05
-5.80197e-05
-5.5518e-05
-5.27393e-05
-4.98764e-05
-4.66637e-05
-4.33419e-05
-3.95903e-05
-3.57015e-05
-3.12913e-05
-2.67078e-05
-2.15117e-05
-1.61067e-05
-1.00203e-05
-3.74648e-06
0.00104988
0.000995734
0.000917988
0.000811785
0.000680719
0.00053522
0.000389116
0.000254974
0.000140702
4.89011e-05
-2.16532e-05
-7.40574e-05
-0.000111899
-0.000138658
-0.000157475
-0.000170968
-0.000181059
-0.000188956
-0.000195292
-0.000200351
-0.000204254
-0.000207085
-0.00020894
-0.000209928
-0.000210161
-0.000209744
-0.000208771
-0.000207323
-0.000205468
-0.000203271
-0.000200782
-0.000198056
-0.000195127
-0.000192039
-0.000188817
-0.000185493
-0.000182088
-0.000178623
-0.000175118
-0.000171585
-0.000168041
-0.000164498
-0.000160966
-0.000157458
-0.000153976
-0.000150538
-0.000147139
-0.000143799
-0.000140507
-0.000137284
-0.000134121
-0.00013103
-0.000128009
-0.000125061
-0.000122188
-0.000119392
-0.00011667
-0.000114031
-0.00011146
-0.000108975
-0.000106556
-0.000104219
-0.000101947
-9.97484e-05
-9.76156e-05
-9.55474e-05
-9.35378e-05
-9.15897e-05
-8.96856e-05
-8.78404e-05
-8.60249e-05
-8.42582e-05
-8.25114e-05
-8.07978e-05
-7.90903e-05
-7.74042e-05
-7.57003e-05
-7.40095e-05
-7.2272e-05
-7.0535e-05
-6.87219e-05
-6.68926e-05
-6.49514e-05
-6.29796e-05
-6.08502e-05
-5.86739e-05
-5.62912e-05
-5.38392e-05
-5.11252e-05
-4.83179e-05
-4.5186e-05
-4.19291e-05
-3.828e-05
-3.44698e-05
-3.01934e-05
-2.57121e-05
-2.0693e-05
-1.54315e-05
-9.5831e-06
-3.50453e-06
0.000970738
0.00092046
0.000851719
0.000760166
0.000648137
0.000523145
0.00039555
0.000275475
0.000170188
8.30267e-05
1.39461e-05
-3.91321e-05
-7.90488e-05
-0.000108669
-0.000130578
-0.000146972
-0.000159553
-0.0001695
-0.00017752
-0.000183994
-0.000189118
-0.000193021
-0.000195823
-0.000197651
-0.000198632
-0.000198888
-0.000198522
-0.000197627
-0.000196277
-0.000194544
-0.000192479
-0.000190142
-0.00018757
-0.000184811
-0.000181892
-0.000178849
-0.000175704
-0.000172482
-0.000169203
-0.000165882
-0.000162537
-0.000159181
-0.000155825
-0.000152484
-0.00014916
-0.000145873
-0.000142615
-0.00013941
-0.000136247
-0.000133146
-0.0001301
-0.00012712
-0.000124204
-0.000121357
-0.00011858
-0.000115876
-0.000113241
-0.000110686
-0.000108194
-0.000105786
-0.000103438
-0.00010117
-9.8964e-05
-9.68288e-05
-9.47549e-05
-9.27445e-05
-9.07887e-05
-8.8893e-05
-8.70383e-05
-8.52409e-05
-8.34706e-05
-8.17487e-05
-8.00431e-05
-7.83719e-05
-7.67031e-05
-7.50573e-05
-7.33908e-05
-7.17391e-05
-7.00389e-05
-6.83409e-05
-6.65668e-05
-6.4777e-05
-6.28786e-05
-6.0948e-05
-5.88675e-05
-5.67357e-05
-5.4411e-05
-5.20083e-05
-4.93654e-05
-4.66148e-05
-4.35709e-05
-4.03831e-05
-3.68447e-05
-3.31213e-05
-2.89884e-05
-2.46232e-05
-1.97926e-05
-1.46961e-05
-9.10211e-06
-3.25375e-06
0.000898387
0.000851903
0.000791001
0.0007117
0.000615442
0.000507752
0.000396458
0.000289572
0.000193399
0.000111479
4.46188e-05
-8.32191e-06
-4.94372e-05
-8.10377e-05
-0.00010527
-0.000123985
-0.000138667
-0.000150418
-0.000159964
-0.000167742
-0.000174005
-0.00017892
-0.000182626
-0.000185263
-0.00018697
-0.000187878
-0.000188105
-0.00018775
-0.000186896
-0.000185617
-0.000183972
-0.00018202
-0.000179803
-0.000177371
-0.000174755
-0.000171994
-0.00016911
-0.000166133
-0.000163081
-0.000159975
-0.000156831
-0.000153665
-0.000150489
-0.000147317
-0.000144155
-0.000141019
-0.000137907
-0.00013484
-0.000131808
-0.000128833
-0.000125906
-0.000123039
-0.000120232
-0.000117489
-0.000114811
-0.000112201
-0.000109657
-0.000107186
-0.000104778
-0.000102447
-0.000100174
-9.79771e-05
-9.58383e-05
-9.37682e-05
-9.17553e-05
-8.98043e-05
-8.79041e-05
-8.6062e-05
-8.42586e-05
-8.25101e-05
-8.07867e-05
-7.91106e-05
-7.74478e-05
-7.58198e-05
-7.41914e-05
-7.25862e-05
-7.09594e-05
-6.93468e-05
-6.76865e-05
-6.60273e-05
-6.42951e-05
-6.25446e-05
-6.06928e-05
-5.88031e-05
-5.67756e-05
-5.4689e-05
-5.24265e-05
-5.00749e-05
-4.75078e-05
-4.48174e-05
-4.1866e-05
-3.87539e-05
-3.53309e-05
-3.17045e-05
-2.77202e-05
-2.34857e-05
-1.88499e-05
-1.39381e-05
-8.60798e-06
-3.01872e-06
0.000831716
0.00078891
0.000734925
0.000666054
0.000583066
0.000490052
0.000392985
0.000298178
0.000210925
0.00013463
7.06176e-05
1.85196e-05
-2.30542e-05
-5.58897e-05
-8.17588e-05
-0.000102235
-0.000118612
-0.000131893
-0.000142779
-0.00015173
-0.000159032
-0.000164879
-0.000169427
-0.000172826
-0.000175223
-0.000176757
-0.000177554
-0.000177721
-0.000177348
-0.000176512
-0.000175276
-0.000173702
-0.000171835
-0.000169728
-0.000167412
-0.000164931
-0.000162309
-0.000159576
-0.000156754
-0.000153864
-0.000150924
-0.000147949
-0.000144955
-0.000141956
-0.000138957
-0.000135977
-0.000133014
-0.000130087
-0.000127191
-0.000124344
-0.000121539
-0.00011879
-0.000116094
-0.000113458
-0.000110882
-0.00010837
-0.000105919
-0.000103537
-0.000101214
-9.89631e-05
-9.67686e-05
-9.46452e-05
-9.25769e-05
-9.05744e-05
-8.86253e-05
-8.67359e-05
-8.48942e-05
-8.3108e-05
-8.13584e-05
-7.96609e-05
-7.79871e-05
-7.63584e-05
-7.47414e-05
-7.31578e-05
-7.1573e-05
-7.00096e-05
-6.84258e-05
-6.68534e-05
-6.52365e-05
-6.36172e-05
-6.19307e-05
-6.02206e-05
-5.84193e-05
-5.65722e-05
-5.46016e-05
-5.25631e-05
-5.03663e-05
-4.80699e-05
-4.5582e-05
-4.29582e-05
-4.01023e-05
-3.70744e-05
-3.37697e-05
-3.02516e-05
-2.64193e-05
-2.23293e-05
-1.7892e-05
-1.3182e-05
-8.11945e-06
-2.80801e-06
0.000769792
0.000730545
0.000682752
0.000622912
0.000551256
0.000470787
0.000386099
0.000302179
0.000223401
0.000152869
9.21721e-05
4.15175e-05
1.27479e-07
-3.32988e-05
-6.0198e-05
-8.19137e-05
-9.95812e-05
-0.000114098
-0.000126116
-0.000136088
-0.000144311
-0.000150994
-0.000156308
-0.000160408
-0.000163447
-0.00016557
-0.000166907
-0.000167572
-0.000167659
-0.000167249
-0.000166409
-0.000165203
-0.000163678
-0.000161888
-0.00015987
-0.000157666
-0.000155304
-0.000152815
-0.000150222
-0.000147548
-0.000144812
-0.000142032
-0.000139222
-0.000136396
-0.000133565
-0.000130743
-0.000127931
-0.000125148
-0.00012239
-0.000119674
-0.000116996
-0.000114367
-0.000111787
-0.000109261
-0.00010679
-0.000104379
-0.000102025
-9.97351e-05
-9.75009e-05
-9.53339e-05
-9.32206e-05
-9.11741e-05
-8.91794e-05
-8.72475e-05
-8.53654e-05
-8.35406e-05
-8.17605e-05
-8.00327e-05
-7.83403e-05
-7.66963e-05
-7.50753e-05
-7.34963e-05
-7.19285e-05
-7.03916e-05
-6.8854e-05
-6.73344e-05
-6.57973e-05
-6.42672e-05
-6.26973e-05
-6.11204e-05
-5.94833e-05
-5.78165e-05
-5.60694e-05
-5.42687e-05
-5.23582e-05
-5.03725e-05
-4.82446e-05
-4.60096e-05
-4.36037e-05
-4.1054e-05
-3.82965e-05
-3.53621e-05
-3.21786e-05
-2.878e-05
-2.51027e-05
-2.11699e-05
-1.69341e-05
-1.24391e-05
-7.64419e-06
-2.61935e-06
0.000711789
0.000675998
0.000633854
0.000581989
0.000520152
0.000450505
0.000376601
0.000302391
0.000231472
0.000166615
0.000109519
6.07961e-05
2.01532e-05
-1.32929e-05
-4.06832e-05
-6.31639e-05
-8.17326e-05
-9.71874e-05
-0.000110118
-0.000120943
-0.000129954
-0.000137365
-0.000143353
-0.000148081
-0.000151703
-0.000154367
-0.000156207
-0.000157338
-0.000157859
-0.000157854
-0.000157392
-0.000156539
-0.000155344
-0.000153864
-0.000152136
-0.000150204
-0.000148097
-0.00014585
-0.000143485
-0.000141027
-0.000138496
-0.00013591
-0.000133285
-0.000130636
-0.000127973
-0.000125312
-0.000122654
-0.000120018
-0.000117401
-0.000114821
-0.000112272
-0.000109767
-0.000107305
-0.000104893
-0.000102532
-0.000100225
-9.79712e-05
-9.57764e-05
-9.36347e-05
-9.1555e-05
-8.95264e-05
-8.756e-05
-8.56426e-05
-8.37844e-05
-8.19729e-05
-8.02156e-05
-7.85006e-05
-7.68344e-05
-7.52025e-05
-7.36149e-05
-7.20502e-05
-7.05238e-05
-6.90088e-05
-6.75213e-05
-6.60345e-05
-6.45616e-05
-6.30748e-05
-6.15902e-05
-6.0071e-05
-5.854e-05
-5.69558e-05
-5.53364e-05
-5.36467e-05
-5.18974e-05
-5.00502e-05
-4.81232e-05
-4.60672e-05
-4.39008e-05
-4.15797e-05
-3.91122e-05
-3.64566e-05
-3.36249e-05
-3.05659e-05
-2.72972e-05
-2.37787e-05
-2.00143e-05
-1.59829e-05
-1.17124e-05
-7.18316e-06
-2.4468e-06
0.000656915
0.000624509
0.000587687
0.000543021
0.000489822
0.000429619
0.000365147
0.000299524
0.000235735
0.000176278
0.000122905
7.64922e-05
3.7094e-05
4.14585e-06
-2.325e-05
-4.60678e-05
-6.51795e-05
-8.12858e-05
-9.49032e-05
-0.000106406
-0.000116062
-0.000124082
-0.000130644
-0.000135915
-0.000140052
-0.000143201
-0.000145498
-0.000147058
-0.000147982
-0.000148355
-0.000148249
-0.00014773
-0.000146851
-0.000145668
-0.00014422
-0.000142553
-0.000140697
-0.000138686
-0.000136546
-0.000134302
-0.000131975
-0.000129583
-0.000127145
-0.000124673
-0.000122181
-0.000119681
-0.00011718
-0.000114694
-0.000112221
-0.000109778
-0.000107361
-0.000104984
-0.000102644
-0.000100349
-9.81007e-05
-9.59014e-05
-9.3752e-05
-9.1656e-05
-8.96104e-05
-8.76215e-05
-8.56812e-05
-8.37985e-05
-8.19618e-05
-8.01809e-05
-7.84435e-05
-7.67572e-05
-7.51108e-05
-7.35095e-05
-7.19417e-05
-7.04138e-05
-6.8909e-05
-6.74384e-05
-6.59797e-05
-6.4545e-05
-6.31125e-05
-6.169e-05
-6.02568e-05
-5.88216e-05
-5.73564e-05
-5.58757e-05
-5.43476e-05
-5.27808e-05
-5.11516e-05
-4.94592e-05
-4.76787e-05
-4.58168e-05
-4.38359e-05
-4.17453e-05
-3.95128e-05
-3.71353e-05
-3.45856e-05
-3.18653e-05
-2.89357e-05
-2.58062e-05
-2.24509e-05
-1.8864e-05
-1.50405e-05
-1.10006e-05
-6.73452e-06
-2.28502e-06
0.000604402
0.0005754
0.000543809
0.000505749
0.000460279
0.000408452
0.000352254
0.000294124
0.00023664
0.000182169
0.000132517
8.87158e-05
5.10151e-05
1.90498e-05
-7.90159e-06
-3.06659e-05
-4.99924e-05
-6.64797e-05
-8.05633e-05
-9.25621e-05
-0.000102713
-0.000111214
-0.000118243
-0.000123967
-0.000128542
-0.000132114
-0.000134816
-0.000136762
-0.000138053
-0.000138774
-0.000138998
-0.000138792
-0.00013821
-0.00013731
-0.000136131
-0.00013472
-0.000133106
-0.000131327
-0.000129408
-0.000127374
-0.00012525
-0.000123051
-0.000120799
-0.000118505
-0.000116184
-0.000113848
-0.000111506
-0.000109171
-0.000106845
-0.000104542
-0.000102261
-0.000100014
-9.77992e-05
-9.56252e-05
-9.34926e-05
-9.14046e-05
-8.93627e-05
-8.73693e-05
-8.54233e-05
-8.35289e-05
-8.16805e-05
-7.98851e-05
-7.81329e-05
-7.64327e-05
-7.47731e-05
-7.31613e-05
-7.15871e-05
-7.00543e-05
-6.8554e-05
-6.70894e-05
-6.5648e-05
-6.42369e-05
-6.28381e-05
-6.14599e-05
-6.00851e-05
-5.8717e-05
-5.73409e-05
-5.59595e-05
-5.45516e-05
-5.3126e-05
-5.16573e-05
-5.01484e-05
-4.85832e-05
-4.69534e-05
-4.52433e-05
-4.34528e-05
-4.15511e-05
-3.95431e-05
-3.74038e-05
-3.51238e-05
-3.2685e-05
-3.00839e-05
-2.72891e-05
-2.43074e-05
-2.11201e-05
-1.77184e-05
-1.41068e-05
-1.0301e-05
-6.29598e-06
-2.13042e-06
0.000553761
0.000528486
0.000502019
0.000470011
0.000431673
0.000387407
0.000338373
0.000286545
0.000234411
0.000184402
0.000138392
9.74528e-05
6.18745e-05
3.13594e-05
5.2855e-06
-1.70529e-05
-3.62809e-05
-5.28849e-05
-6.72107e-05
-7.95152e-05
-8.99985e-05
-9.88438e-05
-0.000106221
-0.000112297
-0.000117226
-0.000121149
-0.000124197
-0.000126479
-0.000128095
-0.000129128
-0.000129652
-0.000129734
-0.00012943
-0.000128795
-0.000127871
-0.000126704
-0.000125324
-0.00012377
-0.000122066
-0.00012024
-0.000118314
-0.000116308
-0.00011424
-0.000112124
-0.000109976
-0.000107805
-0.000105623
-0.000103442
-0.000101265
-9.91058e-05
-9.69629e-05
-9.48494e-05
-9.27636e-05
-9.07139e-05
-8.87009e-05
-8.67279e-05
-8.47973e-05
-8.29103e-05
-8.10676e-05
-7.92716e-05
-7.75187e-05
-7.58145e-05
-7.41505e-05
-7.25349e-05
-7.09568e-05
-6.94232e-05
-6.79249e-05
-6.64645e-05
-6.50353e-05
-6.36379e-05
-6.22635e-05
-6.09157e-05
-5.95804e-05
-5.82628e-05
-5.69493e-05
-5.56399e-05
-5.43243e-05
-5.30012e-05
-5.16544e-05
-5.02887e-05
-4.88831e-05
-4.74373e-05
-4.594e-05
-4.43787e-05
-4.27433e-05
-4.10301e-05
-3.92125e-05
-3.72936e-05
-3.52524e-05
-3.30772e-05
-3.07552e-05
-2.82802e-05
-2.56264e-05
-2.28004e-05
-1.97867e-05
-1.65761e-05
-1.31803e-05
-9.61101e-06
-5.86547e-06
-1.98073e-06
0.000505965
0.000484699
0.000462344
0.000436203
0.000404991
0.000367563
0.000324322
0.000277314
0.000229375
0.000183173
0.000140624
0.000102711
6.96088e-05
4.09562e-05
1.61549e-05
-5.40883e-06
-2.42368e-05
-4.0695e-05
-5.50325e-05
-6.74406e-05
-7.80808e-05
-8.71175e-05
-9.47123e-05
-0.000101026
-0.000106211
-0.000110402
-0.000113725
-0.000116282
-0.000118171
-0.000119473
-0.00012026
-0.000120599
-0.000120545
-0.000120155
-0.000119466
-0.000118529
-0.00011737
-0.00011603
-0.000114534
-0.000112909
-0.000111178
-0.000109359
-0.000107475
-0.000105535
-0.000103558
-0.000101553
-9.95317e-05
-9.7506e-05
-9.54798e-05
-9.34665e-05
-9.14645e-05
-8.94874e-05
-8.75333e-05
-8.56112e-05
-8.37211e-05
-8.18668e-05
-8.0051e-05
-7.82741e-05
-7.65384e-05
-7.48447e-05
-7.31912e-05
-7.15819e-05
-7.001e-05
-6.84828e-05
-6.69902e-05
-6.55387e-05
-6.41201e-05
-6.27359e-05
-6.13816e-05
-6.00555e-05
-5.87517e-05
-5.74714e-05
-5.62032e-05
-5.49504e-05
-5.37018e-05
-5.24557e-05
-5.12043e-05
-4.99442e-05
-4.86623e-05
-4.73614e-05
-4.6023e-05
-4.46458e-05
-4.32205e-05
-4.17333e-05
-4.01776e-05
-3.85472e-05
-3.68192e-05
-3.4996e-05
-3.30584e-05
-3.09945e-05
-2.87959e-05
-2.64541e-05
-2.39473e-05
-2.1284e-05
-1.84498e-05
-1.5436e-05
-1.22594e-05
-8.9283e-06
-5.44123e-06
-1.83414e-06
0.000464713
0.000443687
0.000423613
0.000405695
0.000382543
0.000350902
0.000311608
0.000267686
0.000222665
0.000179502
0.00014008
0.000105169
7.46982e-05
4.81491e-05
2.48863e-05
4.35925e-06
-1.38212e-05
-2.99034e-05
-4.40414e-05
-5.63627e-05
-6.69912e-05
-7.6072e-05
-8.37559e-05
-9.01969e-05
-9.55394e-05
-9.99124e-05
-0.000103434
-0.000106202
-0.000108309
-0.00010983
-0.00011084
-0.000111402
-0.00011157
-0.000111399
-0.000110927
-0.000110201
-0.00010925
-0.000108113
-0.000106815
-0.000105383
-0.000103841
-0.000102207
-0.000100503
-9.87379e-05
-9.69312e-05
-9.50914e-05
-9.32316e-05
-9.13622e-05
-8.94884e-05
-8.76225e-05
-8.57636e-05
-8.39256e-05
-8.21059e-05
-8.03142e-05
-7.85502e-05
-7.68178e-05
-7.51202e-05
-7.34571e-05
-7.1832e-05
-7.02442e-05
-6.86939e-05
-6.71834e-05
-6.57074e-05
-6.42724e-05
-6.28691e-05
-6.15038e-05
-6.01686e-05
-5.88648e-05
-5.7589e-05
-5.63383e-05
-5.51091e-05
-5.39003e-05
-5.27032e-05
-5.15196e-05
-5.03398e-05
-4.91614e-05
-4.79783e-05
-4.67857e-05
-4.55731e-05
-4.43419e-05
-4.30751e-05
-4.17716e-05
-4.04233e-05
-3.90154e-05
-3.75449e-05
-3.60032e-05
-3.43702e-05
-3.26491e-05
-3.08214e-05
-2.88754e-05
-2.68064e-05
-2.46048e-05
-2.22517e-05
-1.97574e-05
-1.71081e-05
-1.42968e-05
-1.13428e-05
-8.25112e-06
-5.02203e-06
-1.68944e-06
0.000368887
0.000364401
0.000373051
0.000374033
0.000361253
0.000334784
0.000298148
0.000256229
0.000213561
0.000173369
0.000137325
0.000105819
7.84301e-05
5.44284e-05
3.31183e-05
1.40043e-05
-3.19138e-06
-1.85987e-05
-3.22768e-05
-4.42888e-05
-5.47201e-05
-6.36932e-05
-7.1343e-05
-7.78115e-05
-8.32316e-05
-8.77223e-05
-9.1393e-05
-9.43333e-05
-9.66311e-05
-9.83566e-05
-9.95813e-05
-0.000100365
-0.000100761
-0.00010082
-0.00010058
-0.000100085
-9.93632e-05
-9.84538e-05
-9.73799e-05
-9.61703e-05
-9.4847e-05
-9.34281e-05
-9.19345e-05
-9.03763e-05
-8.87722e-05
-8.71298e-05
-8.54639e-05
-8.37829e-05
-8.20932e-05
-8.04062e-05
-7.87216e-05
-7.70531e-05
-7.53979e-05
-7.37661e-05
-7.21569e-05
-7.05745e-05
-6.90224e-05
-6.74997e-05
-6.60111e-05
-6.45545e-05
-6.31319e-05
-6.1744e-05
-6.03873e-05
-5.90671e-05
-5.77751e-05
-5.65172e-05
-5.52863e-05
-5.40832e-05
-5.2906e-05
-5.17501e-05
-5.06145e-05
-4.94961e-05
-4.83886e-05
-4.72925e-05
-4.61996e-05
-4.51072e-05
-4.40107e-05
-4.29042e-05
-4.17794e-05
-4.06369e-05
-3.94614e-05
-3.82518e-05
-3.70011e-05
-3.56944e-05
-3.43318e-05
-3.29026e-05
-3.139e-05
-2.97975e-05
-2.8108e-05
-2.63106e-05
-2.44035e-05
-2.23761e-05
-2.02143e-05
-1.79285e-05
-1.55048e-05
-1.29404e-05
-1.02562e-05
-7.45094e-06
-4.52862e-06
-1.52046e-06
0.000298683
0.000299672
0.00031989
0.000334396
0.000331861
0.000311438
0.000278124
0.000238736
0.000199025
0.000162494
0.000130498
0.000102953
7.90979e-05
5.80543e-05
3.91244e-05
2.18912e-05
6.17731e-06
-8.05853e-06
-2.08108e-05
-3.20998e-05
-4.19803e-05
-5.05502e-05
-5.79203e-05
-6.42104e-05
-6.95329e-05
-7.39911e-05
-7.76818e-05
-8.06855e-05
-8.30839e-05
-8.4941e-05
-8.63245e-05
-8.72882e-05
-8.78824e-05
-8.81526e-05
-8.81334e-05
-8.78665e-05
-8.7378e-05
-8.67052e-05
-8.58699e-05
-8.49006e-05
-8.38176e-05
-8.26388e-05
-8.13835e-05
-8.00613e-05
-7.86907e-05
-7.72785e-05
-7.58399e-05
-7.43818e-05
-7.29113e-05
-7.14382e-05
-6.99632e-05
-6.84996e-05
-6.70442e-05
-6.56074e-05
-6.41876e-05
-6.27896e-05
-6.14167e-05
-6.00676e-05
-5.87481e-05
-5.74547e-05
-5.61909e-05
-5.49562e-05
-5.37484e-05
-5.25721e-05
-5.14198e-05
-5.02973e-05
-4.91978e-05
-4.81222e-05
-4.70693e-05
-4.60342e-05
-4.50173e-05
-4.40145e-05
-4.30212e-05
-4.20373e-05
-4.10558e-05
-4.00742e-05
-3.90886e-05
-3.80933e-05
-3.7082e-05
-3.6054e-05
-3.49963e-05
-3.39084e-05
-3.27832e-05
-3.16079e-05
-3.0384e-05
-2.90995e-05
-2.77423e-05
-2.63145e-05
-2.48007e-05
-2.31932e-05
-2.1491e-05
-1.96824e-05
-1.77602e-05
-1.57342e-05
-1.35878e-05
-1.1325e-05
-8.96825e-06
-6.50725e-06
-3.94969e-06
-1.3243e-06
0.000238783
0.000242541
0.000266338
0.000284767
0.000286599
0.000271081
0.00024325
0.000209798
0.000176165
0.00014546
0.000118695
9.5612e-05
7.54464e-05
5.74421e-05
4.10662e-05
2.60379e-05
1.22579e-05
-2.87554e-07
-1.15922e-05
-2.16774e-05
-3.05877e-05
-3.83971e-05
-4.51833e-05
-5.10327e-05
-5.60272e-05
-6.02477e-05
-6.37751e-05
-6.66799e-05
-6.90367e-05
-7.09033e-05
-7.23422e-05
-7.33989e-05
-7.41184e-05
-7.45388e-05
-7.46907e-05
-7.46117e-05
-7.43247e-05
-7.38647e-05
-7.32505e-05
-7.25099e-05
-7.16603e-05
-7.07189e-05
-6.97028e-05
-6.86206e-05
-6.74901e-05
-6.6317e-05
-6.51168e-05
-6.38941e-05
-6.26569e-05
-6.14128e-05
-6.01638e-05
-5.89218e-05
-5.76835e-05
-5.64596e-05
-5.52473e-05
-5.40522e-05
-5.2877e-05
-5.17204e-05
-5.05886e-05
-4.94773e-05
-4.83909e-05
-4.73282e-05
-4.62879e-05
-4.5274e-05
-4.42797e-05
-4.33105e-05
-4.23602e-05
-4.143e-05
-4.05188e-05
-3.96222e-05
-3.8741e-05
-3.78711e-05
-3.70092e-05
-3.61549e-05
-3.53019e-05
-3.44487e-05
-3.35918e-05
-3.27255e-05
-3.1846e-05
-3.09511e-05
-3.00301e-05
-2.90841e-05
-2.81043e-05