/*--------------------------------*- C++ -*----------------------------------*\
| =========                 |                                                 |
| \\      /  F ield         | OpenFOAM: The Open Source CFD Toolbox           |
|  \\    /   O peration     | Version:  2.3.0                                 |
|   \\  /    A nd           | Web:      www.OpenFOAM.org                      |
|    \\/     M anipulation  |                                                 |
\*---------------------------------------------------------------------------*/
FoamFile
{
    version     2.0;
    format      ascii;
    class       surfaceScalarField;
    location    "0.6";
    object      phi_0;
}
// * * * * * * * * * * * * * * * * * * * * * * * * * * * * * * * * * * * * * //

dimensions      [0 3 -1 0 0 0 0];

internalField   nonuniform List<scalar> 
5644
(
2.9441e-08
2.71155e-09
-3.21525e-08
2.60249e-08
3.41606e-09
2.26089e-08
3.41607e-09
1.94386e-08
3.17025e-09
1.65466e-08
2.89201e-09
1.3999e-08
2.54763e-09
1.18834e-08
2.11552e-09
1.02233e-08
1.66019e-09
8.99127e-09
1.23199e-09
8.11202e-09
8.7925e-10
7.49294e-09
6.19075e-10
7.05124e-09
4.41704e-10
6.72365e-09
3.27592e-10
6.46598e-09
2.57672e-10
6.24847e-09
2.17504e-10
6.05328e-09
1.9519e-10
5.87137e-09
1.81914e-10
5.69905e-09
1.72315e-10
5.53535e-09
1.63707e-10
5.38027e-09
1.5508e-10
5.234e-09
1.46261e-10
5.09657e-09
1.37431e-10
4.96773e-09
1.28844e-10
4.84702e-09
1.2071e-10
4.73386e-09
1.13163e-10
4.6276e-09
1.06255e-10
4.52761e-09
9.99882e-11
4.4333e-09
9.43159e-11
4.34411e-09
8.91853e-11
4.25958e-09
8.4531e-11
4.17929e-09
8.02907e-11
4.10287e-09
7.64156e-11
4.03003e-09
7.28471e-11
3.96047e-09
6.95603e-11
3.89396e-09
6.65024e-11
3.8303e-09
6.36667e-11
3.76929e-09
6.10088e-11
3.71076e-09
5.85287e-11
3.65456e-09
5.61951e-11
3.60056e-09
5.40041e-11
3.54862e-09
5.19398e-11
3.49863e-09
4.9991e-11
3.45048e-09
4.81524e-11
3.40407e-09
4.64121e-11
3.3593e-09
4.47629e-11
3.3161e-09
4.32045e-11
3.27438e-09
4.17157e-11
3.23407e-09
4.03157e-11
3.1951e-09
3.89648e-11
3.1574e-09
3.77005e-11
3.12093e-09
3.64716e-11
3.08561e-09
3.53217e-11
3.05141e-09
3.42019e-11
3.01826e-09
3.31489e-11
2.98613e-09
3.21251e-11
2.95497e-09
3.11572e-11
2.92476e-09
3.02147e-11
2.89544e-09
2.93249e-11
2.86699e-09
2.84489e-11
2.83935e-09
2.76316e-11
2.81254e-09
2.6811e-11
2.78649e-09
2.60576e-11
2.7612e-09
2.52878e-11
2.73661e-09
2.45863e-11
2.71275e-09
2.38658e-11
2.68954e-09
2.32059e-11
2.66701e-09
2.25302e-11
2.6451e-09
2.19087e-11
2.62383e-09
2.12678e-11
2.60315e-09
2.06858e-11
2.58308e-09
2.00707e-11
2.56355e-09
1.95258e-11
2.54462e-09
1.89349e-11
2.5262e-09
1.84197e-11
2.50834e-09
1.78536e-11
2.49098e-09
1.73642e-11
2.47416e-09
1.68182e-11
2.4578e-09
1.63579e-11
2.44198e-09
1.58241e-11
2.42658e-09
1.5397e-11
2.41171e-09
1.48706e-11
2.39723e-09
1.44799e-11
2.38328e-09
1.39561e-11
2.36967e-09
1.3609e-11
2.35659e-09
1.30803e-11
2.3438e-09
1.27889e-11
2.33155e-09
1.22458e-11
2.31952e-09
1.20278e-11
2.30807e-09
1.14576e-11
2.29673e-09
1.13382e-11
2.286e-09
1.07271e-11
2.27526e-09
1.07368e-11
2.26519e-09
1.00721e-11
2.25494e-09
1.02539e-11
2.24542e-09
9.51706e-12
2.23549e-09
9.92962e-12
2.22638e-09
9.1082e-12
2.21658e-09
9.80197e-12
2.20771e-09
8.87166e-12
1.05726e-11
3.47403e-08
2.41296e-09
-3.44417e-08
3.46023e-08
3.554e-09
3.39412e-08
4.07718e-09
3.29884e-08
4.12303e-09
3.18645e-08
4.01597e-09
3.06002e-08
3.81196e-09
2.92223e-08
3.49341e-09
2.78004e-08
3.08208e-09
2.64052e-08
2.62719e-09
2.50894e-08
2.19499e-09
2.38783e-08
1.83022e-09
2.27761e-08
1.54389e-09
2.17785e-08
1.32519e-09
2.08814e-08
1.15479e-09
2.00748e-08
1.02411e-09
1.93474e-08
9.2263e-10
1.86882e-08
8.41101e-10
1.80875e-08
7.7294e-10
1.75373e-08
7.13974e-10
1.70306e-08
6.61771e-10
1.65619e-08
6.14924e-10
1.61267e-08
5.72636e-10
1.57212e-08
5.34398e-10
1.5342e-08
4.99829e-10
1.49866e-08
4.68614e-10
1.46524e-08
4.40429e-10
1.43374e-08
4.14975e-10
1.40398e-08
3.9193e-10
1.3758e-08
3.71018e-10
1.34905e-08
3.51971e-10
1.32363e-08
3.34552e-10
1.29941e-08
3.1857e-10
1.27631e-08
3.03828e-10
1.25425e-08
2.90208e-10
1.23315e-08
2.77543e-10
1.21294e-08
2.65773e-10
1.19356e-08
2.54761e-10
1.17497e-08
2.44471e-10
1.1571e-08
2.34805e-10
1.13993e-08
2.25726e-10
1.12341e-08
2.17177e-10
1.1075e-08
2.0911e-10
1.09216e-08
2.01496e-10
1.07737e-08
1.94291e-10
1.0631e-08
1.87466e-10
1.04932e-08
1.81003e-10
1.03601e-08
1.74848e-10
1.02314e-08
1.69025e-10
1.01069e-08
1.63446e-10
9.98645e-09
1.58173e-10
9.86982e-09
1.53096e-10
9.75685e-09
1.48294e-10
9.64739e-09
1.4366e-10
9.54128e-09
1.39259e-10
9.4384e-09
1.35013e-10
9.33859e-09
1.30963e-10
9.24176e-09
1.27051e-10
9.14777e-09
1.23315e-10
9.05653e-09
1.19685e-10
8.96793e-09
1.16232e-10
8.8819e-09
1.12843e-10
8.79832e-09
1.09639e-10
8.71714e-09
1.06465e-10
8.63825e-09
1.0347e-10
8.56163e-09
1.00495e-10
8.48716e-09
9.76727e-11
8.41481e-09
9.48766e-11
8.34451e-09
9.22082e-11
8.27622e-09
8.95597e-11
8.20987e-09
8.70377e-11
8.14543e-09
8.45085e-11
8.08284e-09
8.21189e-11
8.02208e-09
7.96976e-11
7.96308e-09
7.74163e-11
7.90583e-09
7.50987e-11
7.85029e-09
7.29099e-11
7.79643e-09
7.06815e-11
7.7442e-09
6.85856e-11
7.6936e-09
6.64263e-11
7.64457e-09
6.44271e-11
7.59711e-09
6.23242e-11
7.55117e-09
6.04244e-11
7.50675e-09
5.83685e-11
7.46378e-09
5.65797e-11
7.42231e-09
5.45579e-11
7.38219e-09
5.29031e-11
7.34354e-09
5.09024e-11
7.30615e-09
4.94153e-11
7.27018e-09
4.74235e-11
7.23537e-09
4.61518e-11
7.20193e-09
4.41644e-11
7.16951e-09
4.31618e-11
7.13838e-09
4.11962e-11
7.10811e-09
4.053e-11
7.079e-09
3.86249e-11
7.05056e-09
3.83711e-11
7.02303e-09
3.66381e-11
6.99601e-09
3.68217e-11
6.96937e-09
3.55127e-11
3.70826e-11
3.62813e-08
2.27616e-09
-3.61445e-08
3.6678e-08
3.1573e-09
3.69266e-08
3.82855e-09
3.69855e-08
4.06413e-09
3.69232e-08
4.07829e-09
3.67437e-08
3.99149e-09
3.64212e-08
3.8159e-09
3.59576e-08
3.54571e-09
3.53792e-08
3.20555e-09
3.47257e-08
2.84851e-09
3.40323e-08
2.52364e-09
3.33222e-08
2.25397e-09
3.26095e-08
2.03783e-09
3.19015e-08
1.8628e-09
3.12052e-08
1.72042e-09
3.0525e-08
1.60286e-09
2.98631e-08
1.50297e-09
2.92208e-08
1.41527e-09
2.85986e-08
1.33612e-09
2.79971e-08
1.26336e-09
2.74162e-08
1.19574e-09
2.68562e-08
1.13264e-09
2.63169e-08
1.07369e-09
2.57981e-08
1.01866e-09
2.52993e-08
9.67374e-10
2.48201e-08
9.1964e-10
2.43598e-08
8.75267e-10
2.39178e-08
8.33999e-10
2.34932e-08
7.9562e-10
2.30853e-08
7.59882e-10
2.26933e-08
7.26561e-10
2.23164e-08
6.95461e-10
2.19538e-08
6.66358e-10
2.16049e-08
6.39122e-10
2.12689e-08
6.13535e-10
2.09452e-08
5.89522e-10
2.06331e-08
5.66888e-10
2.03319e-08
5.45577e-10
2.00413e-08
5.25444e-10
1.97606e-08
5.06419e-10
1.94894e-08
4.88418e-10
1.92271e-08
4.71346e-10
1.89735e-08
4.55166e-10
1.8728e-08
4.39782e-10
1.84903e-08
4.25162e-10
1.826e-08
4.11248e-10
1.80369e-08
3.97969e-10
1.78206e-08
3.85337e-10
1.76108e-08
3.73224e-10
1.74073e-08
3.61703e-10
1.72098e-08
3.50618e-10
1.7018e-08
3.40056e-10
1.68318e-08
3.29882e-10
1.66509e-08
3.2015e-10
1.64751e-08
3.1078e-10
1.63043e-08
3.01778e-10
1.61383e-08
2.93107e-10
1.59768e-08
2.84758e-10
1.58198e-08
2.76686e-10
1.56671e-08
2.68926e-10
1.55186e-08
2.61373e-10
1.53741e-08
2.54129e-10
1.52335e-08
2.47041e-10
1.50968e-08
2.40233e-10
1.49637e-08
2.33573e-10
1.48342e-08
2.27131e-10
1.47082e-08
2.20855e-10
1.45857e-08
2.14736e-10
1.44665e-08
2.08782e-10
1.43506e-08
2.02963e-10
1.42378e-08
1.97278e-10
1.41282e-08
1.91723e-10
1.40216e-08
1.86283e-10
1.39181e-08
1.80943e-10
1.38174e-08
1.75734e-10
1.37198e-08
1.70574e-10
1.36249e-08
1.65568e-10
1.35329e-08
1.60578e-10
1.34436e-08
1.55741e-10
1.33571e-08
1.50917e-10
1.32732e-08
1.46231e-10
1.31921e-08
1.41566e-10
1.31134e-08
1.37021e-10
1.30375e-08
1.3252e-10
1.29639e-08
1.28107e-10
1.2893e-08
1.23791e-10
1.28244e-08
1.19511e-10
1.27584e-08
1.15411e-10
1.26946e-08
1.1128e-10
1.26333e-08
1.0744e-10
1.25739e-08
1.03504e-10
1.25171e-08
9.99646e-11
1.2462e-08
9.63314e-11
1.24094e-08
9.31405e-11
1.2358e-08
8.99786e-11
1.23092e-08
8.71967e-11
1.22611e-08
8.47927e-11
1.22154e-08
8.2516e-11
1.21696e-08
8.12604e-11
8.06764e-11
3.78366e-08
2.22058e-09
-3.7781e-08
3.81319e-08
2.86198e-09
3.84928e-08
3.46768e-09
3.87723e-08
3.78463e-09
3.8986e-08
3.86462e-09
3.91528e-08
3.82471e-09
3.92542e-08
3.71447e-09
3.92667e-08
3.53318e-09
3.91824e-08
3.28984e-09
3.90139e-08
3.01704e-09
3.87827e-08
2.75489e-09
3.85081e-08
2.52856e-09
3.82021e-08
2.34379e-09
3.78708e-08
2.19416e-09
3.75197e-08
2.07144e-09
3.71537e-08
1.96889e-09
3.67758e-08
1.88089e-09
3.63881e-08
1.80299e-09
3.59922e-08
1.73199e-09
3.55897e-08
1.66587e-09
3.5182e-08
1.60342e-09
3.47706e-08
1.54402e-09
3.4357e-08
1.48733e-09
3.39425e-08
1.43319e-09
3.35283e-08
1.38153e-09
3.31157e-08
1.33225e-09
3.27057e-08
1.2853e-09
3.22991e-08
1.24054e-09
3.18969e-08
1.19789e-09
3.14995e-08
1.1572e-09
3.11077e-08
1.11837e-09
3.07219e-08
1.08129e-09
3.03424e-08
1.04583e-09
2.99696e-08
1.01194e-09
2.96037e-08
9.79458e-10
2.92448e-08
9.48389e-10
2.88931e-08
9.18576e-10
2.85487e-08
8.90019e-10
2.82115e-08
8.62611e-10
2.78817e-08
8.36307e-10
2.7559e-08
8.11074e-10
2.72435e-08
7.86807e-10
2.69352e-08
7.63535e-10
2.66338e-08
7.41127e-10
2.63394e-08
7.19615e-10
2.60517e-08
6.98906e-10
2.57707e-08
6.78973e-10
2.54962e-08
6.59808e-10
2.52282e-08
6.41304e-10
2.49663e-08
6.23525e-10
2.47106e-08
6.06326e-10
2.44609e-08
5.89778e-10
2.4217e-08
5.73774e-10
2.39788e-08
5.58318e-10
2.37462e-08
5.43397e-10
2.35191e-08
5.28923e-10
2.32972e-08
5.14964e-10
2.30806e-08
5.01387e-10
2.2869e-08
4.88269e-10
2.26624e-08
4.75513e-10
2.24607e-08
4.63136e-10
2.22637e-08
4.51108e-10
2.20713e-08
4.39408e-10
2.18836e-08
4.27998e-10
2.17002e-08
4.1693e-10
2.15213e-08
4.06042e-10
2.13466e-08
3.95547e-10
2.11762e-08
3.85119e-10
2.10099e-08
3.75112e-10
2.08477e-08
3.65111e-10
2.06895e-08
3.55518e-10
2.05353e-08
3.45888e-10
2.03849e-08
3.36676e-10
2.02385e-08
3.27341e-10
2.00958e-08
3.18496e-10
1.9957e-08
3.09396e-10
1.98216e-08
3.0088e-10
1.96902e-08
2.91995e-10
1.95622e-08
2.83763e-10
1.9438e-08
2.75075e-10
1.93172e-08
2.67113e-10
1.92001e-08
2.58593e-10
1.90863e-08
2.50904e-10
1.89762e-08
2.42537e-10
1.88692e-08
2.35133e-10
1.87661e-08
2.26922e-10
1.86658e-08
2.19839e-10
1.85694e-08
2.11787e-10
1.84756e-08
2.05099e-10
1.83858e-08
1.97223e-10
1.82982e-08
1.91059e-10
1.82148e-08
1.83366e-10
1.81332e-08
1.77944e-10
1.80559e-08
1.7047e-10
1.79798e-08
1.66068e-10
1.7908e-08
1.58936e-10
1.78369e-08
1.55915e-10
1.777e-08
1.49477e-10
1.7703e-08
1.48222e-10
1.43833e-10
3.94314e-08
2.16203e-09
-3.93729e-08
3.96367e-08
2.65673e-09
3.99537e-08
3.15062e-09
4.02539e-08
3.48442e-09
4.05051e-08
3.61343e-09
4.07243e-08
3.60553e-09
4.09147e-08
3.52411e-09
4.10599e-08
3.38795e-09
4.11452e-08
3.2045e-09
4.11699e-08
2.9924e-09
4.11455e-08
2.77922e-09
4.10863e-08
2.58782e-09
4.10015e-08
2.42858e-09
4.08959e-08
2.29968e-09
4.07729e-08
2.1945e-09
4.06348e-08
2.10695e-09
4.04835e-08
2.03224e-09
4.03197e-08
1.96678e-09
4.01439e-08
1.90776e-09
3.99565e-08
1.85332e-09
3.97577e-08
1.80218e-09
3.95481e-08
1.75362e-09
3.93282e-08
1.70719e-09
3.90988e-08
1.66263e-09
3.88605e-08
1.61984e-09
3.86141e-08
1.57864e-09
3.83604e-08
1.53901e-09
3.81001e-08
1.50078e-09
3.78341e-08
1.46392e-09
3.7563e-08
1.42827e-09
3.72876e-08
1.39379e-09
3.70085e-08
1.36037e-09
3.67264e-08
1.32793e-09
3.64419e-08
1.29644e-09
3.61556e-08
1.26578e-09
3.5868e-08
1.236e-09
3.55796e-08
1.20695e-09
3.5291e-08
1.17868e-09
3.50024e-08
1.15112e-09
3.47145e-08
1.12424e-09
3.44275e-08
1.09808e-09
3.41418e-08
1.07251e-09
3.38577e-08
1.04765e-09
3.35755e-08
1.02333e-09
3.32954e-08
9.99683e-10
3.30178e-08
9.76565e-10
3.27427e-08
9.54056e-10
3.24704e-08
9.32092e-10
3.2201e-08
9.10658e-10
3.19348e-08
8.89771e-10
3.16717e-08
8.69376e-10
3.1412e-08
8.49475e-10
3.11557e-08
8.30082e-10
3.0903e-08
8.11084e-10
3.06537e-08
7.92641e-10
3.04082e-08
7.74483e-10
3.01662e-08
7.56911e-10
2.99281e-08
7.39554e-10
2.96936e-08
7.22761e-10
2.94629e-08
7.06163e-10
2.9236e-08
6.90073e-10
2.90129e-08
6.74162e-10
2.87936e-08
6.5874e-10
2.85782e-08
6.43411e-10
2.83665e-08
6.28638e-10
2.81587e-08
6.13793e-10
2.79546e-08
5.99625e-10
2.77545e-08
5.8521e-10
2.75581e-08
5.71564e-10
2.73657e-08
5.57553e-10
2.71768e-08
5.44354e-10
2.6992e-08
5.30688e-10
2.68108e-08
5.17917e-10
2.66336e-08
5.045e-10
2.646e-08
4.92158e-10
2.62904e-08
4.78916e-10
2.61243e-08
4.66973e-10
2.59625e-08
4.53876e-10
2.58039e-08
4.42295e-10
2.56497e-08
4.29309e-10
2.54987e-08
4.18099e-10
2.53521e-08
4.05167e-10
2.52087e-08
3.94365e-10
2.50698e-08
3.81445e-10
2.49338e-08
3.71101e-10
2.48026e-08
3.58166e-10
2.4674e-08
3.48375e-10
2.45504e-08
3.35393e-10
2.44292e-08
3.263e-10
2.43132e-08
3.13259e-10
2.41992e-08
3.05071e-10
2.40906e-08
2.91974e-10
2.39835e-08
2.84984e-10
2.38821e-08
2.71914e-10
2.37817e-08
2.66442e-10
2.3687e-08
2.53678e-10
2.35928e-08
2.50087e-10
2.3504e-08
2.3827e-10
2.34152e-08
2.3699e-10
2.27533e-10
4.10528e-08
2.09125e-09
-4.0982e-08
4.12132e-08
2.49627e-09
4.14716e-08
2.89229e-09
4.17495e-08
3.20648e-09
4.1997e-08
3.36594e-09
4.22115e-08
3.39104e-09
4.24019e-08
3.33365e-09
4.25637e-08
3.22623e-09
4.26861e-08
3.08206e-09
4.27652e-08
2.91327e-09
4.28068e-08
2.73761e-09
4.28213e-08
2.57335e-09
4.28176e-08
2.43232e-09
4.28007e-08
2.31652e-09
4.27735e-08
2.22176e-09
4.27375e-08
2.14291e-09
4.26939e-08
2.07583e-09
4.26432e-08
2.01746e-09
4.25855e-08
1.9655e-09
4.25205e-08
1.91831e-09
4.24481e-08
1.87465e-09
4.23679e-08
1.83378e-09
4.22799e-08
1.79517e-09
4.21841e-08
1.75846e-09
4.20804e-08
1.72348e-09
4.19691e-08
1.68998e-09
4.18502e-08
1.65792e-09
4.17239e-08
1.62704e-09
4.15905e-08
1.59734e-09
4.14502e-08
1.56859e-09
4.13032e-08
1.54078e-09
4.11498e-08
1.51374e-09
4.09903e-08
1.48741e-09
4.0825e-08
1.46172e-09
4.06542e-08
1.43658e-09
4.04783e-08
1.41197e-09
4.02974e-08
1.3878e-09
4.0112e-08
1.36406e-09
3.99224e-08
1.34074e-09
3.97289e-08
1.31774e-09
3.95318e-08
1.29517e-09
3.93315e-08
1.27281e-09
3.91283e-08
1.25092e-09
3.89224e-08
1.22918e-09
3.87142e-08
1.20789e-09
3.8504e-08
1.18675e-09
3.82921e-08
1.16602e-09
3.80787e-08
1.14546e-09
3.78641e-08
1.12525e-09
3.76486e-08
1.10525e-09
3.74324e-08
1.08557e-09
3.72158e-08
1.06606e-09
3.6999e-08
1.04694e-09
3.67822e-08
1.02786e-09
3.65655e-08
1.00929e-09
3.63494e-08
9.90632e-10
3.61337e-08
9.72571e-10
3.5919e-08
9.54329e-10
3.5705e-08
9.36718e-10
3.54923e-08
9.18896e-10
3.52807e-08
9.01694e-10
3.50706e-08
8.84251e-10
3.48618e-08
8.67459e-10
3.46549e-08
8.50307e-10
3.44496e-08
8.33954e-10
3.42464e-08
8.17007e-10
3.4045e-08
8.01083e-10
3.38459e-08
7.84305e-10
3.36487e-08
7.68748e-10
3.34541e-08
7.52136e-10
3.32616e-08
7.36888e-10
3.30719e-08
7.20392e-10
3.28843e-08
7.05467e-10
3.26998e-08
6.8898e-10
3.25176e-08
6.74417e-10
3.23386e-08
6.57858e-10
3.21619e-08
6.43652e-10
3.19888e-08
6.2699e-10
3.1818e-08
6.13133e-10
3.1651e-08
5.96318e-10
3.14862e-08
5.82862e-10
3.13256e-08
5.6581e-10
3.11671e-08
5.52843e-10
3.10131e-08
5.35492e-10
3.0861e-08
5.23112e-10
3.07138e-08
5.05413e-10
3.05684e-08
4.93774e-10
3.04281e-08
4.75676e-10
3.02894e-08
4.64982e-10
3.01562e-08
4.46485e-10
3.00243e-08
4.36982e-10
2.98981e-08
4.18137e-10
2.9773e-08
4.10145e-10
2.96538e-08
3.91135e-10
2.95352e-08
3.84977e-10
2.94226e-08
3.66263e-10
2.93104e-08
3.62312e-10
2.92039e-08
3.44747e-10
2.90973e-08
3.43573e-10
3.28664e-10
4.27103e-08
2.01402e-09
-4.26331e-08
4.28485e-08
2.3581e-09
4.30584e-08
2.68242e-09
4.33037e-08
2.96118e-09
4.35376e-08
3.13202e-09
4.37427e-08
3.18588e-09
4.39219e-08
3.15446e-09
4.40765e-08
3.0717e-09
4.42016e-08
2.95696e-09
4.42935e-08
2.82138e-09
4.43543e-08
2.67676e-09
4.43913e-08
2.5364e-09
4.44124e-08
2.4112e-09
4.44234e-08
2.30553e-09
4.44273e-08
2.21784e-09
4.44258e-08
2.14435e-09
4.44201e-08
2.08153e-09
4.44108e-08
2.02676e-09
4.43982e-08
1.97811e-09
4.43823e-08
1.93423e-09
4.43629e-08
1.89408e-09
4.43398e-08
1.85692e-09
4.43127e-08
1.82224e-09
4.42815e-08
1.78964e-09
4.42461e-08
1.75893e-09
4.42063e-08
1.72978e-09
4.4162e-08
1.70219e-09
4.41132e-08
1.67582e-09
4.40598e-08
1.65074e-09
4.40018e-08
1.62661e-09
4.39391e-08
1.6035e-09
4.38717e-08
1.58113e-09
4.37996e-08
1.55953e-09
4.37228e-08
1.53852e-09
4.36413e-08
1.51808e-09
4.35551e-08
1.49811e-09
4.34644e-08
1.47857e-09
4.33691e-08
1.45936e-09
4.32693e-08
1.44054e-09
4.31651e-08
1.4219e-09
4.30566e-08
1.40368e-09
4.2944e-08
1.38546e-09
4.28272e-08
1.3677e-09
4.27065e-08
1.34984e-09
4.2582e-08
1.33244e-09
4.24538e-08
1.3149e-09
4.23221e-08
1.29776e-09
4.2187e-08
1.2805e-09
4.20487e-08
1.26357e-09
4.19074e-08
1.24654e-09
4.17632e-08
1.22982e-09
4.16163e-08
1.21294e-09
4.14668e-08
1.19645e-09
4.1315e-08
1.17964e-09
4.11609e-08
1.16339e-09
4.10049e-08
1.14661e-09
4.08469e-08
1.13056e-09
4.06875e-08
1.11382e-09
4.05263e-08
1.0979e-09
4.03639e-08
1.08123e-09
4.02002e-08
1.0654e-09
4.00357e-08
1.04875e-09
3.98702e-08
1.03303e-09
3.97041e-08
1.01632e-09
3.95373e-08
1.00076e-09
3.93705e-08
9.83875e-10
3.92031e-08
9.68501e-10
3.90359e-08
9.51417e-10
3.88685e-08
9.36173e-10
3.87018e-08
9.18898e-10
3.85349e-08
9.03738e-10
3.83691e-08
8.86224e-10
3.82034e-08
8.71192e-10
3.8039e-08
8.53314e-10
3.78749e-08
8.38492e-10
3.77126e-08
8.20153e-10
3.75507e-08
8.05563e-10
3.7391e-08
7.8673e-10
3.72317e-08
7.72391e-10
3.70751e-08
7.53002e-10
3.69189e-08
7.39013e-10
3.67658e-08
7.18958e-10
3.66131e-08
7.05453e-10
3.6464e-08
6.84666e-10
3.63153e-08
6.7177e-10
3.61705e-08
6.5021e-10
3.60262e-08
6.38113e-10
3.58861e-08
6.1574e-10
3.57464e-08
6.04672e-10
3.56114e-08
5.81539e-10
3.54766e-08
5.71739e-10
3.53468e-08
5.47986e-10
3.52171e-08
5.39778e-10
3.50926e-08
5.15697e-10
3.49681e-08
5.09401e-10
3.48488e-08
4.85612e-10
3.47295e-08
4.81655e-10
3.46151e-08
4.59124e-10
3.45004e-08
4.58256e-10
4.38691e-10
4.44106e-08
1.93596e-09
-4.43325e-08
4.45349e-08
2.2338e-09
4.47103e-08
2.50705e-09
4.49228e-08
2.74864e-09
4.51379e-08
2.91697e-09
4.53329e-08
2.99089e-09
4.55025e-08
2.98488e-09
4.56482e-08
2.92597e-09
4.57694e-08
2.83574e-09
4.5864e-08
2.72682e-09
4.59323e-08
2.60847e-09
4.59786e-08
2.49009e-09
4.60093e-08
2.38047e-09
4.60301e-08
2.28477e-09
4.60443e-08
2.20362e-09
4.60539e-08
2.13474e-09
4.60601e-08
2.07535e-09
4.60636e-08
2.02319e-09
4.60651e-08
1.97663e-09
4.60648e-08
1.93456e-09
4.60627e-08
1.89615e-09
4.60589e-08
1.86075e-09
4.60532e-08
1.82791e-09
4.60457e-08
1.7972e-09
4.60361e-08
1.76847e-09
4.60246e-08
1.74132e-09
4.60109e-08
1.71583e-09
4.59952e-08
1.69156e-09
4.59772e-08
1.66871e-09
4.5957e-08
1.6468e-09
4.59345e-08
1.62606e-09
4.59095e-08
1.60607e-09
4.58821e-08
1.58697e-09
4.58521e-08
1.5685e-09
4.58195e-08
1.55071e-09
4.57842e-08
1.53341e-09
4.57461e-08
1.51666e-09
4.57052e-08
1.50025e-09
4.56614e-08
1.48435e-09
4.56147e-08
1.46858e-09
4.5565e-08
1.45337e-09
4.55124e-08
1.43808e-09
4.54567e-08
1.42342e-09
4.5398e-08
1.40851e-09
4.53362e-08
1.39425e-09
4.52714e-08
1.37966e-09
4.52036e-08
1.36565e-09
4.51327e-08
1.35133e-09
4.50588e-08
1.3375e-09
4.4982e-08
1.32335e-09
4.49021e-08
1.30968e-09
4.48195e-08
1.29557e-09
4.47339e-08
1.28207e-09
4.46456e-08
1.26789e-09
4.45545e-08
1.25454e-09
4.44608e-08
1.24024e-09
4.43644e-08
1.22698e-09
4.42657e-08
1.21254e-09
4.41643e-08
1.19928e-09
4.40608e-08
1.18471e-09
4.39549e-08
1.17138e-09
4.3847e-08
1.15662e-09
4.37368e-08
1.14324e-09
4.36249e-08
1.12816e-09
4.35109e-08
1.11479e-09
4.33955e-08
1.09927e-09
4.32781e-08
1.08593e-09
4.31596e-08
1.0699e-09
4.30392e-08
1.05653e-09
4.29181e-08
1.04001e-09
4.27953e-08
1.02656e-09
4.2672e-08
1.00948e-09
4.25472e-08
9.96001e-10
4.24224e-08
9.78193e-10
4.2296e-08
9.64805e-10
4.21701e-08
9.4615e-10
4.20427e-08
9.32874e-10
4.19161e-08
9.1334e-10
4.17883e-08
9.002e-10
4.16616e-08
8.79704e-10
4.15338e-08
8.66829e-10
4.14075e-08
8.45239e-10
4.12802e-08
8.32778e-10
4.11548e-08
8.10046e-10
4.10285e-08
7.98105e-10
4.09045e-08
7.74225e-10
4.07796e-08
7.62996e-10
4.06574e-08
7.37949e-10
4.05344e-08
7.27655e-10
4.04144e-08
7.01577e-10
4.02937e-08
6.9241e-10
4.01761e-08
6.65531e-10
4.00581e-08
6.57818e-10
3.99433e-08
6.30508e-10
3.98281e-08
6.24579e-10
3.97161e-08
5.97572e-10
3.96039e-08
5.93932e-10
3.94948e-08
5.68234e-10
3.93852e-08
5.67813e-10
5.45352e-10
4.6158e-08
1.8599e-09
-4.60819e-08
4.62713e-08
2.12046e-09
4.6423e-08
2.35533e-09
4.66069e-08
2.56479e-09
4.68009e-08
2.7229e-09
4.69838e-08
2.80802e-09
4.71451e-08
2.82356e-09
4.72837e-08
2.78737e-09
4.74004e-08
2.71906e-09
4.74948e-08
2.63238e-09
4.75671e-08
2.53623e-09
4.76195e-08
2.43769e-09
4.76565e-08
2.34344e-09
4.7683e-08
2.25825e-09
4.77026e-08
2.18408e-09
4.77173e-08
2.12006e-09
4.77283e-08
2.06426e-09
4.77367e-08
2.01481e-09
4.7743e-08
1.97035e-09
4.77476e-08
1.92994e-09
4.77508e-08
1.89294e-09
4.77528e-08
1.85878e-09
4.77536e-08
1.82715e-09
4.77532e-08
1.79755e-09
4.77517e-08
1.76995e-09
4.77492e-08
1.74383e-09
4.77456e-08
1.71942e-09
4.77411e-08
1.69612e-09
4.77354e-08
1.67432e-09
4.77289e-08
1.65338e-09
4.77212e-08
1.63369e-09
4.77126e-08
1.61471e-09
4.77028e-08
1.59673e-09
4.7692e-08
1.57934e-09
4.768e-08
1.56273e-09
4.76668e-08
1.54661e-09
4.76523e-08
1.53115e-09
4.76365e-08
1.516e-09
4.76194e-08
1.50152e-09
4.76009e-08
1.4871e-09
4.75808e-08
1.47346e-09
4.75592e-08
1.4596e-09
4.7536e-08
1.44664e-09
4.75113e-08
1.43327e-09
4.74847e-08
1.42081e-09
4.74565e-08
1.40786e-09
4.74264e-08
1.39575e-09
4.73946e-08
1.38316e-09
4.73608e-08
1.37132e-09
4.73252e-08
1.35897e-09
4.72875e-08
1.34737e-09
4.72479e-08
1.33511e-09
4.72062e-08
1.32376e-09
4.71627e-08
1.31144e-09
4.71169e-08
1.30033e-09
4.70693e-08
1.28787e-09
4.70193e-08
1.27691e-09
4.69676e-08
1.2643e-09
4.69135e-08
1.25335e-09
4.68576e-08
1.24058e-09
4.67995e-08
1.22956e-09
4.67395e-08
1.21656e-09
4.66773e-08
1.20548e-09
4.66134e-08
1.19206e-09
4.65472e-08
1.18102e-09
4.64794e-08
1.167e-09
4.64094e-08
1.15599e-09
4.63379e-08
1.14132e-09
4.62642e-08
1.13024e-09
4.61893e-08
1.11494e-09
4.61121e-08
1.10371e-09
4.6034e-08
1.08765e-09
4.59536e-08
1.07638e-09
4.58724e-08
1.05935e-09
4.57891e-08
1.04814e-09
4.57052e-08
1.03001e-09
4.56193e-08
1.01885e-09
4.5533e-08
9.99592e-10
4.54447e-08
9.8849e-10
4.53564e-08
9.67999e-10
4.52662e-08
9.57102e-10
4.51762e-08
9.35221e-10
4.50843e-08
9.24652e-10
4.4993e-08
9.01386e-10
4.48999e-08
8.91173e-10
4.48076e-08
8.66563e-10
4.47137e-08
8.56893e-10
4.46207e-08
8.30918e-10
4.45264e-08
8.21986e-10
4.44331e-08
7.94876e-10
4.43387e-08
7.86799e-10
4.42454e-08
7.58838e-10
4.41512e-08
7.51973e-10
4.40582e-08
7.23564e-10
4.39645e-08
7.18245e-10
4.38719e-08
6.90189e-10
4.37788e-08
6.87009e-10
4.36867e-08
6.60306e-10
4.35942e-08
6.60345e-10
6.37031e-10
4.7956e-08
1.78656e-09
-4.78827e-08
4.806e-08
2.01643e-09
4.81944e-08
2.22096e-09
4.83549e-08
2.40427e-09
4.85284e-08
2.54942e-09
4.86974e-08
2.63896e-09
4.88503e-08
2.67069e-09
4.8983e-08
2.65473e-09
4.90956e-08
2.60646e-09
4.91889e-08
2.53909e-09
4.92632e-08
2.46185e-09
4.93201e-08
2.38083e-09
4.93623e-08
2.3012e-09
4.93937e-08
2.22689e-09
4.94175e-08
2.16028e-09
4.9436e-08
2.10158e-09
4.94505e-08
2.04974e-09
4.94619e-08
2.00336e-09
4.9471e-08
1.96132e-09
4.94781e-08
1.92283e-09
4.94836e-08
1.88742e-09
4.94878e-08
1.85457e-09
4.94909e-08
1.82412e-09
4.94929e-08
1.79552e-09
4.94939e-08
1.7689e-09
4.94942e-08
1.74358e-09
4.94936e-08
1.71998e-09
4.94924e-08
1.69733e-09
4.94906e-08
1.67619e-09
4.94881e-08
1.6558e-09
4.94851e-08
1.63668e-09
4.94817e-08
1.61819e-09
4.94777e-08
1.60072e-09
4.94732e-08
1.58381e-09
4.94682e-08
1.5677e-09
4.94628e-08
1.55204e-09
4.94568e-08
1.53712e-09
4.94504e-08
1.52243e-09
4.94434e-08
1.50856e-09
4.94358e-08
1.49461e-09
4.94276e-08
1.48165e-09
4.94189e-08
1.46831e-09
4.94095e-08
1.4561e-09
4.93995e-08
1.4433e-09
4.93886e-08
1.43166e-09
4.93771e-08
1.41937e-09
4.93647e-08
1.40814e-09
4.93516e-08
1.3963e-09
4.93375e-08
1.38542e-09
4.93225e-08
1.37388e-09
4.93066e-08
1.36335e-09
4.92897e-08
1.35195e-09
4.92717e-08
1.34179e-09
4.92528e-08
1.33037e-09
4.92325e-08
1.32056e-09
4.92114e-08
1.30904e-09
4.91888e-08
1.29948e-09
4.91652e-08
1.28786e-09
4.91402e-08
1.27837e-09
4.91141e-08
1.26667e-09
4.90865e-08
1.25717e-09
4.90578e-08
1.24526e-09
4.90275e-08
1.2358e-09
4.89961e-08
1.22345e-09
4.8963e-08
1.21414e-09
4.89289e-08
1.20114e-09
4.88929e-08
1.19195e-09
4.88559e-08
1.17828e-09
4.88171e-08
1.16905e-09
4.87773e-08
1.15474e-09
4.87357e-08
1.14539e-09
4.86931e-08
1.13026e-09
4.86485e-08
1.12094e-09
4.86031e-08
1.1047e-09
4.85558e-08
1.09551e-09
4.85077e-08
1.07809e-09
4.84576e-08
1.06891e-09
4.84069e-08
1.05032e-09
4.83542e-08
1.04115e-09
4.8301e-08
1.02123e-09
4.82459e-08
1.01226e-09
4.81903e-08
9.90823e-10
4.81328e-08
9.82097e-10
4.80749e-08
9.59258e-10
4.80154e-08
9.50694e-10
4.79555e-08
9.26515e-10
4.7894e-08
9.18336e-10
4.78322e-08
8.92756e-10
4.77691e-08
8.85105e-10
4.77055e-08
8.58464e-10
4.76409e-08
8.51388e-10
4.75758e-08
8.23958e-10
4.75099e-08
8.17879e-10
4.74434e-08
7.90063e-10
4.73763e-08
7.85298e-10
4.73086e-08
7.5793e-10
4.72404e-08
7.55157e-10
4.71715e-08
7.29203e-10
4.71023e-08
7.29606e-10
7.07037e-10
4.98082e-08
1.71587e-09
-4.97375e-08
4.99042e-08
1.92043e-09
5.00248e-08
2.10034e-09
5.01667e-08
2.26244e-09
5.03213e-08
2.39473e-09
5.0476e-08
2.48435e-09
5.06196e-08
2.52706e-09
5.07465e-08
2.52782e-09
5.08555e-08
2.49748e-09
5.09472e-08
2.44734e-09
5.10226e-08
2.38653e-09
5.10825e-08
2.32088e-09
5.1129e-08
2.25475e-09
5.11646e-08
2.19122e-09
5.11923e-08
2.13259e-09
5.12142e-08
2.07967e-09
5.12318e-08
2.03215e-09
5.1246e-08
1.98918e-09
5.12574e-08
1.94989e-09
5.12666e-08
1.91364e-09
5.12739e-08
1.88009e-09
5.12797e-08
1.84876e-09
5.12842e-08
1.81966e-09
5.12876e-08
1.79216e-09
5.12899e-08
1.76659e-09
5.12914e-08
1.74209e-09
5.1292e-08
1.71931e-09
5.12921e-08
1.69728e-09
5.12915e-08
1.67677e-09
5.12904e-08
1.65686e-09
5.12889e-08
1.6382e-09
5.1287e-08
1.62009e-09
5.12848e-08
1.60297e-09
5.12822e-08
1.58635e-09
5.12794e-08
1.57054e-09
5.12763e-08
1.55511e-09
5.1273e-08
1.54046e-09
5.12695e-08
1.52594e-09
5.12657e-08
1.51236e-09
5.12618e-08
1.49852e-09
5.12575e-08
1.48588e-09
5.12532e-08
1.47264e-09
5.12485e-08
1.46075e-09
5.12438e-08
1.44808e-09
5.12387e-08
1.43675e-09
5.12334e-08
1.42464e-09
5.12278e-08
1.41374e-09
5.1222e-08
1.40212e-09
5.12158e-08
1.3916e-09
5.12094e-08
1.38031e-09
5.12025e-08
1.37022e-09
5.11954e-08
1.35906e-09
5.11877e-08
1.34944e-09
5.11798e-08
1.33827e-09
5.11713e-08
1.32909e-09
5.11625e-08
1.31785e-09
5.1153e-08
1.30897e-09
5.11431e-08
1.29772e-09
5.11326e-08
1.28894e-09
5.11215e-08
1.27769e-09
5.11098e-08
1.26896e-09
5.10975e-08
1.25752e-09
5.10843e-08
1.24895e-09
5.10707e-08
1.23705e-09
5.10561e-08
1.22876e-09
5.1041e-08
1.21622e-09
5.10248e-08
1.20813e-09
5.10081e-08
1.19499e-09
5.09903e-08
1.18686e-09
5.09719e-08
1.17316e-09
5.09523e-08
1.16497e-09
5.09322e-08
1.15042e-09
5.09107e-08
1.14241e-09
5.08887e-08
1.1267e-09
5.08653e-08
1.11887e-09
5.08414e-08
1.10206e-09
5.08161e-08
1.09418e-09
5.07901e-08
1.0763e-09
5.07629e-08
1.06842e-09
5.07349e-08
1.04921e-09
5.07056e-08
1.04156e-09
5.06756e-08
1.02085e-09
5.06443e-08
1.01336e-09
5.06121e-08
9.91415e-10
5.05789e-08
9.83897e-10
5.05447e-08
9.60739e-10
5.05095e-08
9.53526e-10
5.04732e-08
9.29025e-10
5.04362e-08
9.22183e-10
5.03978e-08
8.96812e-10
5.03589e-08
8.90338e-10
5.03185e-08
8.64291e-10
5.02777e-08
8.58702e-10
5.02354e-08
8.3238e-10
5.01927e-08
8.27955e-10
5.01485e-08
8.02191e-10
5.01039e-08
7.9969e-10
5.00577e-08
7.75411e-10
5.00113e-08
7.76058e-10
7.55026e-10
5.17179e-08
1.64781e-09
-5.16499e-08
5.18069e-08
1.83146e-09
5.1916e-08
1.99121e-09
5.20426e-08
2.13591e-09
5.21808e-08
2.25653e-09
5.23213e-08
2.3438e-09
5.24551e-08
2.39329e-09
5.25759e-08
2.40697e-09
5.26814e-08
2.39203e-09
5.27714e-08
2.35727e-09
5.28469e-08
2.31104e-09
5.29088e-08
2.25898e-09
5.29585e-08
2.20509e-09
5.29978e-08
2.15191e-09
5.3029e-08
2.10139e-09
5.30541e-08
2.05459e-09
5.30745e-08
2.01171e-09
5.30913e-08
1.97243e-09
5.3105e-08
1.93617e-09
5.31162e-08
1.90244e-09
5.31253e-08
1.87102e-09
5.31326e-08
1.84143e-09
5.31384e-08
1.81388e-09
5.3143e-08
1.78761e-09
5.31463e-08
1.76321e-09
5.31488e-08
1.73964e-09
5.31503e-08
1.71776e-09
5.31512e-08
1.69642e-09
5.31514e-08
1.67657e-09
5.31511e-08
1.65719e-09
5.31503e-08
1.639e-09
5.3149e-08
1.6213e-09
5.31475e-08
1.6045e-09
5.31457e-08
1.58819e-09
5.31436e-08
1.57262e-09
5.31413e-08
1.55739e-09
5.31388e-08
1.54296e-09
5.31362e-08
1.52852e-09
5.31334e-08
1.51516e-09
5.31306e-08
1.50134e-09
5.31276e-08
1.48889e-09
5.31246e-08
1.47564e-09
5.31214e-08
1.4639e-09
5.31183e-08
1.45124e-09
5.3115e-08
1.44001e-09
5.31117e-08
1.42794e-09
5.31084e-08
1.4171e-09
5.3105e-08
1.40552e-09
5.31015e-08
1.39509e-09
5.3098e-08
1.38382e-09
5.30943e-08
1.37386e-09
5.30907e-08
1.36269e-09
5.30869e-08
1.35327e-09
5.30831e-08
1.34206e-09
5.3079e-08
1.33312e-09
5.3075e-08
1.32188e-09
5.30707e-08
1.31324e-09
5.30664e-08
1.30206e-09
5.30618e-08
1.29351e-09
5.30571e-08
1.28239e-09
5.30522e-08
1.27392e-09
5.30471e-08
1.26263e-09
5.30416e-08
1.25442e-09
5.3036e-08
1.24261e-09
5.303e-08
1.23481e-09
5.30238e-08
1.22237e-09
5.30172e-08
1.21479e-09
5.30103e-08
1.20187e-09
5.30029e-08
1.1942e-09
5.29953e-08
1.18084e-09
5.29871e-08
1.17315e-09
5.29786e-08
1.15892e-09
5.29694e-08
1.15156e-09
5.296e-08
1.13614e-09
5.29499e-08
1.12901e-09
5.29393e-08
1.11264e-09
5.29281e-08
1.10534e-09
5.29163e-08
1.0881e-09
5.2904e-08
1.08078e-09
5.28909e-08
1.06223e-09
5.28773e-08
1.05523e-09
5.28629e-08
1.03525e-09
5.28479e-08
1.02832e-09
5.2832e-08
1.00736e-09
5.28156e-08
1.00023e-09
5.27981e-08
9.78224e-10
5.27803e-08
9.71412e-10
5.27611e-08
9.48134e-10
5.27417e-08
9.41608e-10
5.27208e-08
9.17689e-10
5.26998e-08
9.11417e-10
5.26771e-08
8.86932e-10
5.26543e-08
8.81548e-10
5.26298e-08
8.56896e-10
5.26051e-08
8.52627e-10
5.25786e-08
8.28636e-10
5.2552e-08
8.26307e-10
5.25236e-08
8.03852e-10
5.2495e-08
8.0467e-10
7.85268e-10
5.36885e-08
1.5825e-09
-5.36232e-08
5.37711e-08
1.74885e-09
5.38703e-08
1.89203e-09
5.39839e-08
2.02229e-09
5.41078e-08
2.13262e-09
5.42353e-08
2.21634e-09
5.4359e-08
2.26955e-09
5.44734e-08
2.29265e-09
5.45751e-08
2.29033e-09
5.46633e-08
2.26905e-09
5.47384e-08
2.23587e-09
5.48014e-08
2.196e-09
5.48533e-08
2.1532e-09
5.48955e-08
2.10971e-09
5.49298e-08
2.06715e-09
5.49577e-08
2.02664e-09
5.49808e-08
1.98864e-09
5.49999e-08
1.95328e-09
5.50158e-08
1.92027e-09
5.5029e-08
1.88928e-09
5.50398e-08
1.86022e-09
5.50486e-08
1.83258e-09
5.50558e-08
1.80676e-09
5.50615e-08
1.78188e-09