/*--------------------------------*- C++ -*----------------------------------*\
| =========                 |                                                 |
| \\      /  F ield         | OpenFOAM: The Open Source CFD Toolbox           |
|  \\    /   O peration     | Version:  2.3.0                                 |
|   \\  /    A nd           | Web:      www.OpenFOAM.org                      |
|    \\/     M anipulation  |                                                 |
\*---------------------------------------------------------------------------*/
FoamFile
{
    version     2.0;
    format      ascii;
    class       surfaceScalarField;
    location    "0.75";
    object      phi_0;
}
// * * * * * * * * * * * * * * * * * * * * * * * * * * * * * * * * * * * * * //

dimensions      [0 3 -1 0 0 0 0];

internalField   nonuniform List<scalar> 
5273
(
3.22995e-08
2.28548e-09
2.89637e-08
3.33586e-09
2.57745e-08
3.18916e-09
2.27032e-08
3.0713e-09
1.97343e-08
2.96898e-09
1.69805e-08
2.75376e-09
1.45841e-08
2.3964e-09
1.26047e-08
1.97934e-09
1.10517e-08
1.55306e-09
9.88719e-09
1.1645e-09
9.03942e-09
8.47774e-10
8.4293e-09
6.10122e-10
7.986e-09
4.43299e-10
7.65301e-09
3.32981e-10
7.38942e-09
2.63598e-10
7.16719e-09
2.22231e-10
6.96867e-09
1.98518e-10
6.7842e-09
1.8447e-10
6.60938e-09
1.74812e-10
6.44275e-09
1.6663e-10
6.28415e-09
1.58608e-10
6.13378e-09
1.50371e-10
5.99181e-09
1.41966e-10
5.8582e-09
1.33609e-10
5.73268e-09
1.25517e-10
5.61483e-09
1.17856e-10
5.5041e-09
1.10728e-10
5.39992e-09
1.04174e-10
5.30173e-09
9.81907e-11
5.20898e-09
9.2755e-11
5.12117e-09
8.7813e-11
5.03784e-09
8.33258e-11
4.95861e-09
7.92307e-11
4.88312e-09
7.54923e-11
4.81106e-09
7.20584e-11
4.74216e-09
6.89009e-11
4.67618e-09
6.59794e-11
4.6129e-09
6.32765e-11
4.55215e-09
6.07567e-11
4.49373e-09
5.84165e-11
4.43751e-09
5.62188e-11
4.38334e-09
5.4173e-11
4.3311e-09
5.22407e-11
4.28066e-09
5.04376e-11
4.23193e-09
4.87275e-11
4.1848e-09
4.71293e-11
4.1392e-09
4.56055e-11
4.09501e-09
4.4184e-11
4.05219e-09
4.28174e-11
4.01065e-09
4.15477e-11
3.97033e-09
4.03169e-11
3.93115e-09
3.91767e-11
3.89309e-09
3.80637e-11
3.85605e-09
3.70366e-11
3.82003e-09
3.60227e-11
3.78493e-09
3.5097e-11
3.75077e-09
3.41676e-11
3.71744e-09
3.33303e-11
3.68496e-09
3.24756e-11
3.65324e-09
3.17157e-11
3.62232e-09
3.09242e-11
3.59208e-09
3.02366e-11
3.56259e-09
2.94968e-11
3.53371e-09
2.88755e-11
3.50553e-09
2.81811e-11
3.47791e-09
2.76183e-11
3.45095e-09
2.69633e-11
3.42449e-09
2.64564e-11
3.39866e-09
2.58314e-11
3.37328e-09
2.53797e-11
3.3485e-09
2.47781e-11
3.32412e-09
2.43784e-11
3.30033e-09
2.37951e-11
3.27688e-09
2.34474e-11
3.25401e-09
2.28744e-11
3.23143e-09
2.25805e-11
3.20942e-09
2.20118e-11
3.18764e-09
2.17724e-11
3.16644e-09
2.12013e-11
3.14542e-09
2.10213e-11
3.12498e-09
2.04386e-11
3.10466e-09
2.03237e-11
3.08494e-09
1.9722e-11
3.06526e-09
1.96789e-11
3.04621e-09
1.90477e-11
3.02712e-09
1.9089e-11
3.0087e-09
1.84159e-11
2.99015e-09
1.85557e-11
2.97232e-09
1.78287e-11
2.95423e-09
1.80869e-11
2.93695e-09
1.72883e-11
2.91925e-09
1.76953e-11
2.90245e-09
1.68035e-11
2.88505e-09
1.74002e-11
2.86866e-09
1.63888e-11
2.85142e-09
1.72383e-11
2.83535e-09
1.60646e-11
2.81807e-09
1.72888e-11
2.80215e-09
1.59202e-11
1.96079e-11
3.6636e-08
1.51951e-09
3.6764e-08
3.2079e-09
3.632e-08
3.63316e-09
3.56875e-08
3.70372e-09
3.48598e-08
3.79672e-09
3.38056e-08
3.80799e-09
3.25629e-08
3.63907e-09
3.12199e-08
3.32235e-09
2.98568e-08
2.9161e-09
2.85334e-08
2.48796e-09
2.72862e-08
2.09498e-09
2.61315e-08
1.76476e-09
2.50737e-08
1.50117e-09
2.41097e-08
1.29699e-09
2.32355e-08
1.13775e-09
2.24436e-08
1.01409e-09
2.17243e-08
9.17839e-10
2.10681e-08
8.40658e-10
2.04667e-08
7.76218e-10
1.9913e-08
7.20343e-10
1.94011e-08
6.70523e-10
1.89261e-08
6.25367e-10
1.8484e-08
5.84101e-10
1.80713e-08
5.4631e-10
1.76851e-08
5.11726e-10
1.73228e-08
4.80138e-10
1.69822e-08
4.51348e-10
1.66612e-08
4.25138e-10
1.63581e-08
4.01287e-10
1.60713e-08
3.7958e-10
1.57993e-08
3.59783e-10
1.55409e-08
3.41707e-10
1.5295e-08
3.25145e-10
1.50606e-08
3.0994e-10
1.48367e-08
2.95931e-10
1.46226e-08
2.82993e-10
1.44176e-08
2.71005e-10
1.4221e-08
2.59875e-10
1.40322e-08
2.49506e-10
1.38508e-08
2.39841e-10
1.36762e-08
2.3079e-10
1.35081e-08
2.22326e-10
1.33459e-08
2.14368e-10
1.31895e-08
2.06904e-10
1.30383e-08
1.99865e-10
1.28922e-08
1.93244e-10
1.27509e-08
1.86979e-10
1.2614e-08
1.81082e-10
1.24813e-08
1.75475e-10
1.23527e-08
1.70197e-10
1.22278e-08
1.65158e-10
1.21066e-08
1.6041e-10
1.19888e-08
1.55863e-10
1.18742e-08
1.51575e-10
1.17628e-08
1.47449e-10
1.16543e-08
1.43567e-10
1.15487e-08
1.39805e-10
1.14458e-08
1.36277e-10
1.13454e-08
1.32834e-10
1.12475e-08
1.29615e-10
1.1152e-08
1.26451e-10
1.10587e-08
1.23511e-10
1.09676e-08
1.20584e-10
1.08786e-08
1.17894e-10
1.07916e-08
1.1518e-10
1.07065e-08
1.1271e-10
1.06233e-08
1.10183e-10
1.05418e-08
1.07915e-10
1.04621e-08
1.05547e-10
1.0384e-08
1.03468e-10
1.03076e-08
1.01238e-10
1.02326e-08
9.9331e-11
1.01592e-08
9.7222e-11
1.00872e-08
9.54779e-11
1.00166e-08
9.34687e-11
9.94726e-09
9.18822e-11
9.87931e-09
8.9957e-11
9.81256e-09
8.85211e-11
9.7471e-09
8.66646e-11
9.68274e-09
8.53812e-11
9.6196e-09
8.35738e-11
9.55748e-09
8.24466e-11
9.49653e-09
8.06747e-11
9.4365e-09
7.97091e-11
9.37759e-09
7.79552e-11
9.31951e-09
7.71683e-11
9.26251e-09
7.54137e-11
9.20624e-09
7.4825e-11
9.15102e-09
7.30563e-11
9.09641e-09
7.26955e-11
9.0428e-09
7.08944e-11
8.98969e-09
7.08099e-11
8.93753e-09
6.89609e-11
8.88571e-09
6.92174e-11
8.83479e-09
6.73135e-11
8.78401e-09
6.80112e-11
8.73403e-09
6.60485e-11
8.68388e-09
6.74396e-11
8.63421e-09
6.55915e-11
7.09097e-11
3.77193e-08
1.00296e-09
3.83634e-08
2.56389e-09
3.87096e-08
3.28697e-09
3.89172e-08
3.49612e-09
3.90805e-08
3.63336e-09
3.91376e-08
3.75092e-09
3.9025e-08
3.75164e-09
3.87461e-08
3.60129e-09
3.83298e-08
3.33239e-09
3.78132e-08
3.00457e-09
3.72323e-08
2.67582e-09
3.66139e-08
2.38317e-09
3.59757e-08
2.13942e-09
3.53305e-08
1.94213e-09
3.46865e-08
1.78181e-09
3.40497e-08
1.65087e-09
3.34245e-08
1.54303e-09
3.28132e-08
1.45196e-09
3.2217e-08
1.37238e-09
3.16368e-08
1.30056e-09
3.10731e-08
1.2342e-09
3.05265e-08
1.17204e-09
2.99971e-08
1.11344e-09
2.94853e-08
1.05812e-09
2.89911e-08
1.00594e-09
2.85144e-08
9.56847e-10
2.8055e-08
9.10779e-10
2.76125e-08
8.67619e-10
2.71865e-08
8.27272e-10
2.67765e-08
7.89581e-10
2.63819e-08
7.54388e-10
2.60021e-08
7.21526e-10
2.56364e-08
6.90826e-10
2.52842e-08
6.62119e-10
2.49449e-08
6.35266e-10
2.46178e-08
6.10099e-10
2.43023e-08
5.86514e-10
2.39978e-08
5.64357e-10
2.37037e-08
5.43545e-10
2.34196e-08
5.23955e-10
2.31449e-08
5.05508e-10
2.28791e-08
4.88108e-10
2.26218e-08
4.7169e-10
2.23725e-08
4.56166e-10
2.21309e-08
4.41499e-10
2.18966e-08
4.27592e-10
2.16691e-08
4.14433e-10
2.14482e-08
4.01933e-10
2.12336e-08
3.90078e-10
2.1025e-08
3.788e-10
2.08221e-08
3.68084e-10
2.06247e-08
3.57865e-10
2.04324e-08
3.48149e-10
2.02451e-08
3.38856e-10
2.00625e-08
3.30009e-10
1.98846e-08
3.21536e-10
1.97109e-08
3.13451e-10
1.95415e-08
3.05697e-10
1.9376e-08
2.98291e-10
1.92145e-08
2.91166e-10
1.90566e-08
2.84359e-10
1.89023e-08
2.778e-10
1.87514e-08
2.71517e-10
1.86038e-08
2.65464e-10
1.84593e-08
2.59654e-10
1.8318e-08
2.54044e-10
1.81795e-08
2.48661e-10
1.8044e-08
2.43451e-10
1.79111e-08
2.38444e-10
1.77809e-08
2.336e-10
1.76532e-08
2.2893e-10
1.75282e-08
2.24413e-10
1.74053e-08
2.20051e-10
1.7285e-08
2.15832e-10
1.71667e-08
2.11745e-10
1.70508e-08
2.07801e-10
1.69368e-08
2.03965e-10
1.6825e-08
2.00271e-10
1.6715e-08
1.96665e-10
1.66072e-08
1.9321e-10
1.6501e-08
1.89808e-10
1.63968e-08
1.86581e-10
1.62941e-08
1.83371e-10
1.61935e-08
1.80361e-10
1.60941e-08
1.7733e-10
1.59967e-08
1.74543e-10
1.59005e-08
1.7168e-10
1.58062e-08
1.69123e-10
1.57128e-08
1.6643e-10
1.56214e-08
1.64121e-10
1.55307e-08
1.61602e-10
1.54419e-08
1.59585e-10
1.53536e-08
1.57257e-10
1.52672e-08
1.55602e-10
1.5181e-08
1.53497e-10
1.50967e-08
1.52352e-10
1.50122e-08
1.50485e-10
1.49293e-08
1.50372e-10
1.4846e-08
1.48949e-10
1.53252e-10
3.88712e-08
7.16824e-10
3.94287e-08
2.00643e-09
3.98964e-08
2.81926e-09
4.0241e-08
3.15144e-09
4.05779e-08
3.29652e-09
4.09128e-08
3.41601e-09
4.11876e-08
3.47682e-09
4.13649e-08
3.42398e-09
4.14359e-08
3.26144e-09
4.14114e-08
3.0291e-09
4.13111e-08
2.77609e-09
4.11538e-08
2.54049e-09
4.09538e-08
2.33941e-09
4.07213e-08
2.17465e-09
4.04626e-08
2.04046e-09
4.01833e-08
1.93018e-09
3.9888e-08
1.83836e-09
3.95798e-08
1.76016e-09
3.92607e-08
1.69145e-09
3.89323e-08
1.62901e-09
3.85958e-08
1.5707e-09
3.82525e-08
1.51525e-09
3.79039e-08
1.46204e-09
3.75513e-08
1.41077e-09
3.71959e-08
1.36138e-09
3.68389e-08
1.31384e-09
3.64814e-08
1.26823e-09
3.61246e-08
1.22448e-09
3.57692e-08
1.18265e-09
3.54161e-08
1.14266e-09
3.5066e-08
1.10449e-09
3.47195e-08
1.06803e-09
3.43771e-08
1.03325e-09
3.40392e-08
1.00002e-09
3.37061e-08
9.68331e-10
3.33782e-08
9.38011e-10
3.30556e-08
9.09103e-10
3.27386e-08
8.81411e-10
3.24271e-08
8.55001e-10
3.21214e-08
8.29681e-10
3.18214e-08
8.05524e-10
3.15271e-08
7.82342e-10
3.12386e-08
7.60231e-10
3.09558e-08
7.38975e-10
3.06785e-08
7.18721e-10
3.04069e-08
6.99208e-10
3.01407e-08
6.80629e-10
2.988e-08
6.62701e-10
2.96244e-08
6.45634e-10
2.93741e-08
6.29136e-10
2.91287e-08
6.13446e-10
2.88884e-08
5.98226e-10
2.86527e-08
5.83789e-10
2.84218e-08
5.69724e-10
2.81954e-08
5.5641e-10
2.79736e-08
5.43395e-10
2.77559e-08
5.31095e-10
2.75426e-08
5.19018e-10
2.73333e-08
5.07649e-10
2.7128e-08
4.96407e-10
2.69265e-08
4.85882e-10
2.67289e-08
4.75403e-10
2.65348e-08
4.65634e-10
2.63444e-08
4.55842e-10
2.61573e-08
4.46774e-10
2.59737e-08
4.37586e-10
2.57932e-08
4.29167e-10
2.56162e-08
4.20526e-10
2.54419e-08
4.12693e-10
2.5271e-08
4.0455e-10
2.51026e-08
3.97262e-10
2.49375e-08
3.89556e-10
2.47748e-08
3.8278e-10
2.46151e-08
3.75467e-10
2.44577e-08
3.69164e-10
2.43033e-08
3.62205e-10
2.41509e-08
3.56354e-10
2.40015e-08
3.49701e-10
2.38539e-08
3.44283e-10
2.37092e-08
3.37909e-10
2.35661e-08
3.32902e-10
2.34259e-08
3.26776e-10
2.32871e-08
3.22178e-10
2.31512e-08
3.16269e-10
2.30164e-08
3.12077e-10
2.28846e-08
3.06374e-10
2.27537e-08
3.02591e-10
2.26257e-08
2.97085e-10
2.24984e-08
2.93734e-10
2.23741e-08
2.88432e-10
2.22502e-08
2.85538e-10
2.21293e-08
2.80487e-10
2.20084e-08
2.78086e-10
2.18906e-08
2.73389e-10
2.17726e-08
2.71513e-10
2.16575e-08
2.67426e-10
2.1542e-08
2.66071e-10
2.1429e-08
2.63376e-10
2.13151e-08
2.62792e-10
2.64263e-10
4.01879e-08
5.47642e-10
4.06127e-08
1.58156e-09
4.10566e-08
2.37537e-09
4.14165e-08
2.79161e-09
4.17381e-08
2.97489e-09
4.2072e-08
3.08212e-09
4.23964e-08
3.15237e-09
4.26752e-08
3.14523e-09
4.28873e-08
3.0493e-09
4.3031e-08
2.88543e-09
4.31167e-08
2.69041e-09
4.31583e-08
2.49885e-09
4.31669e-08
2.33079e-09
4.31498e-08
2.19176e-09
4.31114e-08
2.0789e-09
4.3055e-08
1.98656e-09
4.29835e-08
1.90985e-09
4.28989e-08
1.84478e-09
4.28022e-08
1.78818e-09
4.26938e-08
1.73735e-09
4.25741e-08
1.6904e-09
4.24434e-08
1.64602e-09
4.23019e-08
1.60351e-09
4.21502e-08
1.56243e-09
4.19889e-08
1.52272e-09
4.18186e-08
1.48418e-09
4.16398e-08
1.44694e-09
4.14535e-08
1.41085e-09
4.12601e-08
1.37606e-09
4.10603e-08
1.34238e-09
4.08549e-08
1.30993e-09
4.06444e-08
1.27851e-09
4.04294e-08
1.24824e-09
4.02106e-08
1.21888e-09
3.99883e-08
1.19061e-09
3.97632e-08
1.16311e-09
3.95356e-08
1.13664e-09
3.93062e-08
1.11084e-09
3.90752e-08
1.08601e-09
3.88431e-08
1.06177e-09
3.86102e-08
1.03845e-09
3.83769e-08
1.01565e-09
3.81434e-08
9.93742e-10
3.79101e-08
9.72259e-10
3.76771e-08
9.51684e-10
3.74449e-08
9.31436e-10
3.72134e-08
9.12098e-10
3.69831e-08
8.93019e-10
3.67539e-08
8.74837e-10
3.65262e-08
8.56844e-10
3.62999e-08
8.39765e-10
3.60753e-08
8.22766e-10
3.58524e-08
8.06735e-10
3.56314e-08
7.90667e-10
3.54123e-08
7.75603e-10
3.51952e-08
7.60417e-10
3.49801e-08
7.46259e-10
3.47672e-08
7.31874e-10
3.45563e-08
7.18591e-10
3.43477e-08
7.04931e-10
3.41412e-08
6.92468e-10
3.39371e-08
6.79493e-10
3.37349e-08
6.67784e-10
3.35353e-08
6.55439e-10
3.33376e-08
6.44463e-10
3.31426e-08
6.32668e-10
3.29493e-08
6.224e-10
3.27587e-08
6.1111e-10
3.25699e-08
6.01498e-10
3.23838e-08
5.90673e-10
3.21994e-08
5.81696e-10
3.20177e-08
5.7127e-10
3.18375e-08
5.62916e-10
3.16601e-08
5.52845e-10
3.14842e-08
5.45083e-10
3.13111e-08
5.35326e-10
3.11393e-08
5.28154e-10
3.09704e-08
5.18651e-10
3.08026e-08
5.12067e-10
3.06377e-08
5.02785e-10
3.04738e-08
4.96777e-10
3.03129e-08
4.87679e-10
3.01528e-08
4.82262e-10
2.99958e-08
4.73302e-10
2.98394e-08
4.68492e-10
2.96861e-08
4.59655e-10
2.95332e-08
4.55467e-10
2.93836e-08
4.4674e-10
2.92341e-08
4.43213e-10
2.90879e-08
4.34612e-10
2.89417e-08
4.31778e-10
2.87988e-08
4.23378e-10
2.86556e-08
4.2127e-10
2.85158e-08
4.13231e-10
2.83754e-08
4.11878e-10
2.82383e-08
4.04554e-10
2.81004e-08
4.03984e-10
2.79655e-08
3.98268e-10
2.78294e-08
3.98839e-10
3.96658e-10
4.16167e-08
4.36491e-10
4.19301e-08
1.26819e-09
4.23166e-08
1.98885e-09
4.26666e-08
2.44165e-09
4.29691e-08
2.67234e-09
4.32642e-08
2.78712e-09
4.3561e-08
2.85554e-09
4.38355e-08
2.87068e-09
4.40667e-08
2.81816e-09
4.42466e-08
2.70545e-09
4.43805e-08
2.55656e-09
4.44794e-08
2.39992e-09
4.45536e-08
2.25657e-09
4.461e-08
2.13536e-09
4.46527e-08
2.03626e-09
4.46842e-08
1.95502e-09
4.47067e-08
1.8874e-09
4.47216e-08
1.8299e-09
4.47296e-08
1.78012e-09
4.47311e-08
1.73588e-09
4.47258e-08
1.69567e-09
4.47136e-08
1.6582e-09
4.46943e-08
1.62284e-09
4.46678e-08
1.58898e-09
4.46339e-08
1.55658e-09
4.45928e-08
1.52526e-09
4.45445e-08
1.49524e-09
4.44892e-08
1.46616e-09
4.4427e-08
1.43831e-09
4.4358e-08
1.4113e-09
4.42825e-08
1.38543e-09
4.42008e-08
1.36027e-09
4.41128e-08
1.33617e-09
4.40191e-08
1.31262e-09
4.39196e-08
1.29006e-09
4.38149e-08
1.2679e-09
4.37048e-08
1.24668e-09
4.35899e-08
1.22573e-09
4.34703e-08
1.20568e-09
4.33462e-08
1.18579e-09
4.32179e-08
1.16677e-09
4.30858e-08
1.14782e-09
4.29497e-08
1.12975e-09
4.28104e-08
1.11162e-09
4.26676e-08
1.09443e-09
4.2522e-08
1.07706e-09
4.23734e-08
1.06067e-09
4.22224e-08
1.04402e-09
4.20689e-08
1.02837e-09
4.19134e-08
1.01237e-09
4.17557e-08
9.97455e-10
4.15964e-08
9.82024e-10
4.14353e-08
9.67813e-10
4.12731e-08
9.52932e-10
4.11093e-08
9.39366e-10
4.09447e-08
9.25016e-10
4.07789e-08
9.12075e-10
4.06126e-08
8.98188e-10
4.04453e-08
8.85888e-10
4.02778e-08
8.72412e-10
4.01096e-08
8.60717e-10
3.99414e-08
8.47652e-10
3.97727e-08
8.36522e-10
3.96043e-08
8.23828e-10
3.94355e-08
8.13286e-10
3.92672e-08
8.00892e-10
3.90987e-08
7.90944e-10
3.8931e-08
7.78833e-10
3.8763e-08
7.69445e-10
3.85961e-08
7.57594e-10
3.8429e-08
7.48778e-10
3.82632e-08
7.37123e-10
3.80972e-08
7.28893e-10
3.79326e-08
7.17409e-10
3.77679e-08
7.0975e-10
3.76049e-08
6.98406e-10
3.74417e-08
6.91346e-10
3.72802e-08
6.80079e-10
3.71187e-08
6.73641e-10
3.6959e-08
6.62433e-10
3.67992e-08
6.56611e-10
3.66414e-08
6.45432e-10
3.64834e-08
6.40268e-10
3.63277e-08
6.29073e-10
3.61716e-08
6.24593e-10
3.60178e-08
6.13388e-10
3.58637e-08
6.09613e-10
3.5712e-08
5.984e-10
3.55599e-08
5.95382e-10
3.54103e-08
5.84201e-10
3.52601e-08
5.81973e-10
3.51125e-08
5.70941e-10
3.49642e-08
5.69538e-10
3.48186e-08
5.58868e-10
3.46721e-08
5.58335e-10
3.45283e-08
5.48443e-10
3.43833e-08
5.48898e-10
3.4241e-08
5.40656e-10
3.40973e-08
5.42537e-10
5.37217e-10
4.31278e-08
3.56437e-10
4.33579e-08
1.03809e-09
4.36816e-08
1.66512e-09
4.40056e-08
2.11765e-09
4.42946e-08
2.38339e-09
4.45619e-08
2.5198e-09
4.48259e-08
2.59151e-09
4.50776e-08
2.61896e-09
4.53e-08
2.59581e-09
4.54828e-08
2.52265e-09
4.56263e-08
2.41303e-09
4.57384e-08
2.28779e-09
4.58285e-08
2.16647e-09
4.59038e-08
2.0601e-09
4.59686e-08
1.97148e-09
4.60256e-08
1.89802e-09
4.60766e-08
1.83642e-09
4.6123e-08
1.78348e-09
4.61657e-08
1.73738e-09
4.62053e-08
1.69629e-09
4.62417e-08
1.65923e-09
4.6275e-08
1.62493e-09
4.63048e-08
1.59302e-09
4.63311e-08
1.56268e-09
4.63536e-08
1.53405e-09
4.63724e-08
1.50651e-09
4.63872e-08
1.48046e-09
4.6398e-08
1.4553e-09
4.64048e-08
1.43154e-09
4.64076e-08
1.40853e-09
4.64062e-08
1.38682e-09
4.64008e-08
1.3657e-09
4.63911e-08
1.34581e-09
4.63774e-08
1.32631e-09
4.63595e-08
1.30798e-09
4.63376e-08
1.28986e-09
4.63114e-08
1.27287e-09
4.62812e-08
1.25591e-09
4.62468e-08
1.24006e-09
4.62085e-08
1.22409e-09
4.61661e-08
1.20921e-09
4.61198e-08
1.19406e-09
4.60695e-08
1.18005e-09
4.60156e-08
1.16559e-09
4.59577e-08
1.15233e-09
4.58963e-08
1.13847e-09
4.5831e-08
1.12588e-09
4.57625e-08
1.11255e-09
4.56903e-08
1.10055e-09
4.5615e-08
1.08766e-09
4.55363e-08
1.07624e-09
4.54546e-08
1.06369e-09
4.53696e-08
1.05279e-09
4.5282e-08
1.04057e-09
4.51912e-08
1.03013e-09
4.5098e-08
1.0182e-09
4.50019e-08
1.00822e-09
4.49036e-08
9.96488e-10
4.48025e-08
9.86979e-10
4.46995e-08
9.75411e-10
4.45939e-08
9.66323e-10
4.44866e-08
9.54932e-10
4.43769e-08
9.46236e-10
4.42658e-08
9.34958e-10
4.41523e-08
9.26709e-10
4.40378e-08
9.15472e-10
4.3921e-08
9.07668e-10
4.38034e-08
8.96486e-10
4.36837e-08
8.89095e-10
4.35634e-08
8.77937e-10
4.34412e-08
8.71007e-10
4.33185e-08
8.59803e-10
4.3194e-08
8.53349e-10
4.30693e-08
8.42104e-10
4.2943e-08
8.36108e-10
4.28166e-08
8.24791e-10
4.26886e-08
8.19314e-10
4.25608e-08
8.07861e-10
4.24316e-08
8.02927e-10
4.23026e-08
7.91353e-10
4.21723e-08
7.86956e-10
4.20425e-08
7.75236e-10
4.19113e-08
7.71439e-10
4.17808e-08
7.59539e-10
4.16491e-08
7.56363e-10
4.15181e-08
7.44324e-10
4.1386e-08
7.41786e-10
4.12547e-08
7.29632e-10
4.11223e-08
7.27791e-10
4.09909e-08
7.15594e-10
4.08584e-08
7.14479e-10
4.0727e-08
7.02398e-10
4.05945e-08
7.02055e-10
4.0463e-08
6.90338e-10
4.03305e-08
6.9085e-10
4.0199e-08
6.79941e-10
4.00663e-08
6.81524e-10
3.99348e-08
6.72214e-10
3.9802e-08
6.7532e-10
6.6854e-10
4.47078e-08
2.95771e-10
4.48815e-08
8.64374e-10
4.5146e-08
1.40066e-09
4.54347e-08
1.82899e-09
4.57074e-08
2.11067e-09
4.59568e-08
2.27039e-09
4.6195e-08
2.35332e-09
4.64236e-08
2.39035e-09
4.6632e-08
2.38739e-09
4.68105e-08
2.34418e-09
4.69559e-08
2.26762e-09
4.70723e-08
2.17137e-09
4.71672e-08
2.07155e-09
4.72477e-08
1.97961e-09
4.73184e-08
1.90076e-09
4.73822e-08
1.83425e-09
4.74407e-08
1.77791e-09
4.74954e-08
1.72885e-09
4.75471e-08
1.68567e-09
4.75966e-08
1.64673e-09
4.76443e-08
1.61155e-09
4.76903e-08
1.57891e-09
4.77346e-08
1.54877e-09
4.77772e-08
1.52012e-09
4.78179e-08
1.49335e-09
4.78568e-08
1.46758e-09
4.78938e-08
1.44346e-09
4.7929e-08
1.42011e-09
4.79622e-08
1.39834e-09
4.79935e-08
1.37719e-09
4.80228e-08
1.35754e-09
4.80502e-08
1.33834e-09
4.80754e-08
1.3206e-09
4.80986e-08
1.30309e-09
4.81196e-08
1.28702e-09
4.81384e-08
1.27098e-09
4.81549e-08
1.25636e-09
4.81693e-08
1.24157e-09
4.81811e-08
1.2282e-09
4.81907e-08
1.21448e-09
4.81978e-08
1.2022e-09
4.82024e-08
1.18937e-09
4.82044e-08
1.17805e-09
4.82041e-08
1.16597e-09
4.82009e-08
1.15549e-09
4.81953e-08
1.14406e-09
4.81869e-08
1.13429e-09
4.81761e-08
1.12341e-09
4.81623e-08
1.1143e-09
4.81461e-08
1.10384e-09
4.8127e-08
1.09535e-09
4.81055e-08
1.08522e-09
4.8081e-08
1.07726e-09
4.80541e-08
1.06744e-09
4.80243e-08
1.05993e-09
4.79922e-08
1.05034e-09
4.79571e-08
1.04329e-09
4.79198e-08
1.03381e-09
4.78796e-08
1.02722e-09
4.78372e-08
1.01783e-09
4.77919e-08
1.0116e-09
4.77445e-08
1.00231e-09
4.76943e-08
9.96432e-10
4.76421e-08
9.87122e-10
4.75872e-08
9.81655e-10
4.75304e-08
9.72269e-10
4.74709e-08
9.67162e-10
4.74097e-08
9.57732e-10
4.73458e-08
9.52958e-10
4.72803e-08
9.43414e-10
4.72123e-08
9.39042e-10
4.71428e-08
9.29317e-10
4.70708e-08
9.25322e-10
4.69974e-08
9.1545e-10
4.69217e-08
9.11807e-10
4.68448e-08
9.0173e-10
4.67656e-08
8.98522e-10
4.66853e-08
8.88185e-10
4.66028e-08
8.85398e-10
4.65193e-08
8.74853e-10
4.64338e-08
8.72477e-10
4.63473e-08
8.61685e-10
4.6259e-08
8.59795e-10
4.61698e-08
8.48745e-10
4.60788e-08
8.47324e-10
4.5987e-08
8.36091e-10
4.58937e-08
8.35155e-10
4.57995e-08
8.23767e-10
4.5704e-08
8.23372e-10
4.56076e-08
8.11939e-10
4.551e-08
8.121e-10
4.54116e-08
8.00805e-10
4.53121e-08
8.01588e-10
4.52117e-08
7.90694e-10
4.51103e-08
7.92218e-10
4.50081e-08
7.82174e-10
4.49049e-08
7.84732e-10
4.48009e-08
7.76231e-10
4.46959e-08
7.80252e-10
7.74111e-10
4.63535e-08
2.48344e-10
4.64896e-08
7.2826e-10
4.6703e-08
1.18719e-09
4.69543e-08
1.57776e-09
4.72055e-08
1.85941e-09
4.74399e-08
2.036e-09
4.76593e-08
2.13398e-09
4.78679e-08
2.18171e-09
4.80617e-08
2.19357e-09
4.82333e-08
2.17258e-09
4.83782e-08
2.12276e-09
4.84972e-08
2.05233e-09
4.85954e-08
1.97335e-09
4.8679e-08
1.89604e-09
4.87526e-08
1.82711e-09
4.88194e-08
1.76752e-09
4.88808e-08
1.71643e-09
4.89384e-08
1.67135e-09
4.89928e-08
1.63126e-09
4.9045e-08
1.59454e-09
4.90953e-08
1.56117e-09
4.91443e-08
1.52994e-09
4.91919e-08
1.50117e-09
4.92383e-08
1.4737e-09
4.92835e-08
1.44818e-09
4.93276e-08
1.42349e-09
4.93705e-08
1.40053e-09
4.94124e-08
1.37818e-09
4.94533e-08
1.3575e-09
4.94932e-08
1.33725e-09
4.95321e-08
1.31866e-09
4.95701e-08
1.30032e-09
4.96071e-08
1.28363e-09
4.96432e-08
1.26698e-09
4.96782e-08
1.25199e-09
4.97124e-08
1.23683e-09
4.97454e-08
1.22333e-09
4.97775e-08
1.20948e-09
4.98084e-08
1.19731e-09
4.98383e-08
1.18458e-09
4.98669e-08
1.17359e-09
4.98944e-08
1.16181e-09
4.99206e-08
1.15188e-09
4.99456e-08
1.14093e-09
4.99692e-08
1.13192e-09
4.99916e-08
1.12171e-09
5.00123e-08
1.11351e-09
5.00318e-08
1.10391e-09
5.00497e-08
1.09648e-09
5.00661e-08
1.08736e-09
5.00808e-08
1.08064e-09
5.00941e-08
1.07193e-09
5.01056e-08
1.0658e-09
5.01156e-08
1.05747e-09
5.01236e-08
1.05187e-09
5.01302e-08
1.04379e-09
5.01347e-08
1.03875e-09
5.01377e-08
1.03082e-09
5.01387e-08
1.02627e-09
5.0138e-08
1.0185e-09
5.01353e-08
1.01434e-09
5.01309e-08
1.00669e-09
5.01244e-08
1.00294e-09
5.01162e-08
9.95272e-10
5.01059e-08
9.91958e-10
5.00939e-08
9.84248e-10
5.00798e-08
9.81268e-10
5.0064e-08
9.73546e-10
5.00461e-08
9.70901e-10
5.00264e-08
9.63046e-10
5.00047e-08
9.60803e-10
4.99812e-08
9.52784e-10
4.99557e-08
9.50852e-10
4.99284e-08
9.42718e-10
4.98991e-08
9.41086e-10
4.98681e-08
9.32732e-10
4.98352e-08
9.31483e-10
4.98005e-08
9.22889e-10
4.97639e-08
9.21947e-10
4.97256e-08
9.13185e-10
4.96855e-08
9.12553e-10
4.96436e-08
9.03558e-10
4.96001e-08
9.03297e-10
4.95548e-08
8.941e-10
4.9508e-08
8.94145e-10
4.94592e-08
8.84828e-10
4.94092e-08
8.85207e-10
4.93571e-08
8.75793e-10
4.9304e-08
8.76539e-10
4.92487e-08
8.67171e-10
4.91926e-08
8.68293e-10
4.91342e-08
8.59146e-10
4.90751e-08
8.60735e-10
4.90137e-08
8.52079e-10
4.89516e-08
8.54276e-10
4.88873e-08
8.46541e-10
4.88223e-08
8.49682e-10
4.87551e-08
8.43472e-10
4.86873e-08
8.47981e-10
8.44062e-10
4.80645e-08
2.10399e-10
4.81739e-08
6.18855e-10
4.83473e-08
1.0138e-09
4.85628e-08
1.36222e-09
4.87892e-08
1.63297e-09
4.90076e-08
1.81762e-09
4.92121e-08
1.92952e-09
4.94046e-08
1.98924e-09
4.95846e-08
2.0135e-09
4.9748e-08
2.0092e-09
4.98904e-08
1.98034e-09
5.00109e-08
1.93185e-09
5.01121e-08
1.87222e-09
5.01985e-08
1.80955e-09
5.02748e-08
1.75084e-09
5.0344e-08
1.69834e-09
5.04078e-08
1.65262e-09
5.04675e-08
1.61169e-09
5.05238e-08
1.57496e-09
5.05775e-08
1.54081e-09
5.06292e-08
1.5095e-09
5.06792e-08
1.47985e-09
5.07279e-08
1.4525e-09
5.07754e-08
1.42621e-09
5.08217e-08
1.40185e-09
5.08671e-08
1.37814e-09
5.09114e-08
1.35617e-09
5.0955e-08
1.33463e-09
5.09977e-08
1.31479e-09
5.10397e-08
1.2952e-09
5.10811e-08
1.27734e-09
5.11218e-08
1.25954e-09
5.1162e-08
1.2435e-09
5.12016e-08
1.22733e-09
5.12407e-08
1.21293e-09
5.12793e-08
1.19821e-09
5.13174e-08
1.18528e-09
5.1355e-08
1.17186e-09
5.1392e-08
1.16025e-09
5.14287e-08
1.14795e-09
5.14647e-08
1.13756e-09
5.15003e-08
1.12622e-09
5.15353e-08
1.11692e-09
5.15698e-08
1.10645e-09
5.16036e-08
1.09809e-09
5.16369e-08
1.08841e-09
5.16695e-08
1.08092e-09
5.17015e-08
1.07189e-09
5.17328e-08
1.06523e-09
5.17634e-08
1.05672e-09
5.17932e-08
1.05083e-09
5.18223e-08
1.04281e-09
5.18506e-08
1.03754e-09
5.18781e-08
1.02997e-09
5.19046e-08
1.0253e-09
5.19304e-08
1.01803e-09
5.19552e-08
1.01399e-09
5.1979e-08
1.00694e-09
5.20019e-08
1.00343e-09
5.20237e-08
9.9664e-10
5.20445e-08
9.93538e-10
5.20643e-08
9.8694e-10
5.20829e-08
9.84317e-10
5.21004e-08
9.77752e-10
5.21168e-08
9.75589e-10
5.2132e-08
9.69099e-10
5.2146e-08
9.67257e-10
5.21587e-08
9.60841e-10
5.21702e-08
9.59371e-10
5.21804e-08
9.52879e-10
5.21894e-08
9.51814e-10
5.21969e-08
9.45277e-10
5.22032e-08
9.44474e-10
5.2208e-08
9.37928e-10
5.22117e-08
9.37417e-10
5.22137e-08
9.30722e-10
5.22146e-08
9.30552e-10
5.22138e-08
9.23745e-10
5.22119e-08
9.23793e-10
5.22082e-08
9.16934e-10
5.22035e-08
9.17235e-10
5.21968e-08
9.10243e-10
5.21893e-08
9.10822e-10
5.21796e-08
9.03775e-10
5.21692e-08
9.04541e-10
5.21566e-08
8.97499e-10
5.21433e-08
8.98498e-10
5.21276e-08
8.91485e-10
5.21114e-08
8.9272e-10
5.20927e-08
8.85893e-10
5.20736e-08
8.87388e-10
5.20518e-08
8.80896e-10
5.20298e-08
8.82758e-10
5.2005e-08
8.76874e-10
5.198e-08
8.79264e-10
5.19522e-08
8.74374e-10
5.19242e-08
8.77652e-10
5.18934e-08
8.74291e-10
5.18625e-08
8.78899e-10
8.77756e-10
4.98418e-08
1.79529e-10
4.99313e-08
5.29398e-10
5.00741e-08
8.70979e-10
5.02576e-08
1.17869e-09
5.04586e-08
1.43206e-09
5.06593e-08
1.61692e-09
5.08501e-08
1.73866e-09
5.10294e-08
1.80997e-09
5.11973e-08
1.84557e-09
5.13521e-08
1.85443e-09
5.14906e-08
1.84185e-09
5.16111e-08
1.81134e-09
5.17144e-08
1.76887e-09
5.18037e-08
1.72026e-09
5.18826e-08
1.67195e-09
5.19542e-08
1.62678e-09
5.20203e-08
1.58651e-09
5.20821e-08
1.54987e-09
5.21404e-08
1.51668e-09
5.21958e-08
1.48536e-09
5.22489e-08
1.45639e-09
5.23002e-08
1.42857e-09
5.23499e-08
1.4028e-09
5.23983e-08
1.37782e-09
5.24455e-08
1.35467e-09
5.24916e-08
1.33201e-09
5.25367e-08
1.31104e-09
5.2581e-08
1.29034e-09
5.26245e-08
1.27131e-09
5.26673e-08
1.25239e-09
5.27095e-08
1.23518e-09
5.27511e-08
1.21792e-09
5.27922e-08
1.20241e-09
5.28328e-08
1.18668e-09
5.28731e-08
1.17271e-09
5.29129e-08
1.15837e-09
5.29524e-08
1.14581e-09
5.29915e-08
1.1327e-09
5.30303e-08
1.12144e-09
5.30689e-08
1.10942e-09
5.31071e-08
1.09934e-09
5.3145e-08
1.08828e-09
5.31827e-08
1.07926e-09
5.32201e-08
1.06908e-09
5.32572e-08
1.06099e-09
5.3294e-08
1.05161e-09
5.33305e-08
1.04439e-09
5.33667e-08
1.03566e-09
5.34027e-08
1.0293e-09
5.34383e-08
1.02111e-09
5.34736e-08
1.0155e-09
5.35085e-08
1.00787e-09
5.35432e-08
1.00288e-09
5.35774e-08
9.95743e-10
5.36113e-08
9.91382e-10
5.36448e-08
9.84564e-10
5.36779e-08
9.80854e-10
5.37105e-08
9.74329e-10
5.37429e-08
9.71116e-10
5.37745e-08
9.64951e-10
5.38059e-08
9.62163e-10
5.38366e-08
9.56227e-10
5.3867e-08
9.53957e-10
5.38966e-08
9.48129e-10
5.39259e-08
9.46293e-10
5.39543e-08
9.40665e-10
5.39825e-08
9.39127e-10
5.40097e-08
9.33649e-10
5.40365e-08
9.32511e-10
5.40624e-08
9.27035e-10
5.40879e-08
9.26275e-10
5.41123e-08
9.20898e-10
5.41364e-08
9.20355e-10
5.41593e-08
9.15075e-10
5.41818e-08
9.14828e-10
5.42031e-08
9.09498e-10
5.42241e-08
9.09542e-10
5.42436e-08
9.04257e-10
5.42629e-08
9.04454e-10
5.42806e-08
8.99235e-10
5.42982e-08
8.99662e-10
5.4314e-08
8.94433e-10
5.43297e-08
8.95067e-10
5.43436e-08
8.89946e-10
5.43574e-08
8.90704e-10
5.43692e-08
8.85708e-10
5.4381e-08
8.86656e-10
5.43907e-08
8.81822e-10
5.44005e-08
8.82935e-10
5.4408e-08
8.78415e-10
5.44156e-08
8.79752e-10
5.44208e-08
8.75664e-10
5.44263e-08
8.77342e-10
5.44292e-08
8.73958e-10
5.44323e-08
8.76158e-10
5.44328e-08
8.73812e-10
5.44336e-08
8.76905e-10
5.44318e-08
8.76085e-10
5.44302e-08
8.80536e-10
8.81824e-10
5.16871e-08
1.54081e-10
5.17613e-08
4.55247e-10
5.18806e-08
7.51681e-10
5.20365e-08
1.02283e-09
5.22132e-08
1.25532e-09
5.23953e-08
1.43483e-09
5.25724e-08
1.56153e-09
5.27401e-08
1.64227e-09
5.28975e-08
1.68816e-09
5.30439e-08
1.70801e-09
5.31776e-08
1.70824e-09
5.32967e-08
1.69215e-09
5.34013e-08
1.66428e-09
5.3493e-08
1.62863e-09
5.35744e-08
1.59053e-09
5.36483e-08
1.55287e-09
5.37166e-08
1.51817e-09
5.37806e-08
1.48588e-09
5.3841e-08
1.45631e-09
5.38984e-08
1.428e-09
5.39532e-08
1.40155e-09
5.4006e-08
1.3758e-09
5.4057e-08
1.35175e-09
5.41066e-08
1.32825e-09
5.41549e-08
1.30639e-09
5.4202e-08
1.28489e-09
5.42481e-08
1.26494e-09
5.42933e-08
1.24517e-09
5.43376e-08
1.22696e-09
5.43812e-08
1.20879e-09
5.44242e-08
1.19224e-09
5.44665e-08
1.17558e-09
5.45083e-08
1.16058e-09
5.45497e-08
1.14534e-09
5.45906e-08
1.13178e-09
5.46311e-08
1.11785e-09
5.46713e-08
1.10561e-09
5.47112e-08
1.09286e-09
5.47508e-08
1.08185e-09
5.479e-08
1.07014e-09
5.48291e-08
1.06027e-09
5.48679e-08
1.0495e-09
5.49065e-08
1.04064e-09
5.49448e-08
1.03075e-09
5.4983e-08
1.02278e-09
5.5021e-08
1.01367e-09
5.50588e-08
1.00656e-09
5.50964e-08
9.98091e-10
5.51338e-08
9.91812e-10
5.5171e-08
9.83918e-10
5.52082e-08
9.78339e-10
5.5245e-08
9.71041e-10
5.52819e-08
9.66052e-10
5.53184e-08
9.59252e-10
5.53548e-08
9.54904e-10
5.5391e-08
9.48437e-10
5.54271e-08
9.44709e-10
5.54628e-08
9.38606e-10
5.54986e-08
9.35318e-10
5.5534e-08
9.29631e-10
5.55693e-08
9.26769e-10
5.56042e-08
9.21324e-10
5.56392e-08
9.18983e-10
5.56736e-08
9.13718e-10
5.57082e-08
9.11744e-10
5.57421e-08
9.0678e-10
5.57761e-08
9.05079e-10
5.58095e-08
9.003e-10
5.5843e-08
8.99007e-10
5.58757e-08
8.94303e-10
5.59086e-08
8.93328e-10
5.59407e-08
8.88845e-10
5.5973e-08
8.88048e-10
5.60044e-08
8.83726e-10
5.6036e-08
8.83229e-10
5.60665e-08
8.78941e-10
5.60974e-08
8.78676e-10
5.61271e-08
8.74562e-10
5.61571e-08
8.74409e-10
5.61859e-08
8.70434e-10
5.62151e-08
8.70505e-10
5.62429e-08
8.66622e-10
5.62711e-08
8.66847e-10
5.62979e-08
8.6319e-10
5.6325e-08
8.63526e-10
5.63507e-08
8.60067e-10
5.63768e-08
8.60588e-10
5.64012e-08
8.57392e-10
5.64261e-08
8.58056e-10
5.64492e-08
8.55246e-10
5.64728e-08
8.56159e-10
5.64947e-08
8.53835e-10
5.65169e-08
8.55111e-10
5.65373e-08
8.5354e-10
5.65581e-08
8.55385e-10
5.6577e-08
8.54853e-10
5.65963e-08
8.57636e-10
5.66138e-08
8.58602e-10
5.66315e-08
8.62794e-10
8.65736e-10
5.36024e-08
1.32853e-10
5.36646e-08
3.93096e-10
5.37652e-08
6.51045e-10
5.3898e-08
8.90065e-10
5.40527e-08
1.10062e-09
5.42163e-08
1.27117e-09
5.43794e-08
1.39843e-09
5.45361e-08
1.48556e-09
5.46842e-08
1.54009e-09
5.48229e-08
1.56933e-09
5.49512e-08
1.5799e-09
5.5068e-08
1.57536e-09
5.51727e-08
1.55957e-09
5.5266e-08
1.53534e-09
5.53497e-08
1.50688e-09
5.54258e-08
1.47673e-09
5.54963e-08
1.44766e-09
5.55624e-08
1.41979e-09
5.56249e-08
1.39383e-09
5.56843e-08
1.36862e-09
5.5741e-08
1.3448e-09
5.57955e-08
1.32129e-09
5.58482e-08
1.2991e-09
5.58992e-08
1.27722e-09
5.59489e-08
1.25672e-09
5.59973e-08
1.23648e-09
5.60446e-08
1.21759e-09
5.60909e-08
1.19885e-09
5.61364e-08
1.18149e-09
5.61811e-08
1.16415e-09
5.6225e-08