/*--------------------------------*- C++ -*----------------------------------*\
| =========                 |                                                 |
| \\      /  F ield         | OpenFOAM: The Open Source CFD Toolbox           |
|  \\    /   O peration     | Version:  2.3.0                                 |
|   \\  /    A nd           | Web:      www.OpenFOAM.org                      |
|    \\/     M anipulation  |                                                 |
\*---------------------------------------------------------------------------*/
FoamFile
{
    version     2.0;
    format      ascii;
    class       volVectorField;
    location    "0.75";
    object      U_0;
}
// * * * * * * * * * * * * * * * * * * * * * * * * * * * * * * * * * * * * * //

dimensions      [0 1 -1 0 0 0 0];

internalField   nonuniform List<vector> 
2700
(
(0.188981 0.00340193 0)
(0.175075 0.00574082 0)
(0.159252 0.00577886 0)
(0.141379 0.0053441 0)
(0.123026 0.00494623 0)
(0.105658 0.00441718 0)
(0.0904141 0.00366477 0)
(0.0777804 0.00271074 0)
(0.067771 0.00172817 0)
(0.060143 0.000921454 0)
(0.0544888 0.000379265 0)
(0.0503668 7.15489e-05 0)
(0.0473704 -7.26331e-05 0)
(0.0451513 -0.000113875 0)
(0.0434413 -9.84616e-05 0)
(0.0420469 -5.86855e-05 0)
(0.040838 -1.47236e-05 0)
(0.0397364 2.24392e-05 0)
(0.0387021 4.88816e-05 0)
(0.0377181 6.50103e-05 0)
(0.0367802 7.30433e-05 0)
(0.0358887 7.55091e-05 0)
(0.035045 7.45266e-05 0)
(0.0342495 7.16572e-05 0)
(0.0335015 6.79212e-05 0)
(0.0327988 6.39371e-05 0)
(0.0321389 6.00369e-05 0)
(0.0315184 5.63773e-05 0)
(0.0309342 5.30105e-05 0)
(0.0303828 4.99484e-05 0)
(0.0298614 4.7158e-05 0)
(0.0293671 4.46251e-05 0)
(0.0288977 4.23036e-05 0)
(0.0284507 4.01822e-05 0)
(0.0280246 3.82227e-05 0)
(0.0276173 3.64181e-05 0)
(0.0272278 3.47382e-05 0)
(0.0268542 3.31829e-05 0)
(0.0264961 3.17229e-05 0)
(0.0261515 3.03695e-05 0)
(0.0258205 2.90876e-05 0)
(0.0255013 2.79003e-05 0)
(0.0251941 2.67674e-05 0)
(0.024897 2.57184e-05 0)
(0.0246109 2.47123e-05 0)
(0.0243334 2.37817e-05 0)
(0.0240659 2.28826e-05 0)
(0.0238059 2.20562e-05 0)
(0.023555 2.12472e-05 0)
(0.0233105 2.05115e-05 0)
(0.0230747 1.9781e-05 0)
(0.0228441 1.91227e-05 0)
(0.0226218 1.84608e-05 0)
(0.0224037 1.78708e-05 0)
(0.0221936 1.72659e-05 0)
(0.0219869 1.67385e-05 0)
(0.021788 1.61812e-05 0)
(0.0215914 1.5709e-05 0)
(0.0214028 1.51941e-05 0)
(0.0212155 1.47703e-05 0)
(0.0210364 1.42907e-05 0)
(0.0208575 1.39133e-05 0)
(0.0206871 1.34609e-05 0)
(0.0205159 1.31274e-05 0)
(0.0203537 1.26984e-05 0)
(0.0201894 1.24036e-05 0)
(0.0200349 1.19946e-05 0)
(0.0198768 1.17379e-05 0)
(0.0197297 1.13421e-05 0)
(0.0195773 1.11243e-05 0)
(0.0194371 1.07369e-05 0)
(0.0192897 1.05567e-05 0)
(0.0191562 1.0174e-05 0)
(0.0190133 1.00324e-05 0)
(0.0188864 9.64851e-06 0)
(0.0187473 9.54783e-06 0)
(0.0186268 9.15812e-06 0)
(0.018491 9.09975e-06 0)
(0.0183769 8.69891e-06 0)
(0.0182438 8.68771e-06 0)
(0.018136 8.26815e-06 0)
(0.0180049 8.3093e-06 0)
(0.0179037 7.86489e-06 0)
(0.0177738 7.96429e-06 0)
(0.0176793 7.48613e-06 0)
(0.0175499 7.65437e-06 0)
(0.0174625 7.13147e-06 0)
(0.0173326 7.38014e-06 0)
(0.0172527 6.8014e-06 0)
(0.017121 7.14658e-06 0)
(0.0170494 6.49523e-06 0)
(0.0169145 6.96166e-06 0)
(0.0168521 6.21525e-06 0)
(0.016712 6.8373e-06 0)
(0.01666 5.96418e-06 0)
(0.0165121 6.79766e-06 0)
(0.0164724 5.74408e-06 0)
(0.0163123 6.87166e-06 0)
(0.0162895 5.70265e-06 0)
(0.0161032 8.87263e-06 0)
(0.200079 0.00563384 0)
(0.202857 0.0102961 0)
(0.203844 0.0111993 0)
(0.202051 0.0110639 0)
(0.197797 0.0108805 0)
(0.19183 0.0105331 0)
(0.184954 0.00983457 0)
(0.177637 0.00873304 0)
(0.170178 0.00736162 0)
(0.162811 0.00593906 0)
(0.155705 0.00464789 0)
(0.148988 0.00357826 0)
(0.14276 0.00274603 0)
(0.137063 0.00212692 0)
(0.1319 0.00168604 0)
(0.127238 0.00138492 0)
(0.123024 0.00118385 0)
(0.119197 0.00104773 0)
(0.115703 0.00095021 0)
(0.112495 0.000874262 0)
(0.109535 0.000810085 0)
(0.106793 0.000752723 0)
(0.104244 0.000699939 0)
(0.101867 0.000650958 0)
(0.0996444 0.000605598 0)
(0.0975615 0.000563861 0)
(0.0956055 0.00052573 0)
(0.0937637 0.000491083 0)
(0.0920266 0.000459705 0)
(0.0903839 0.00043134 0)
(0.0888283 0.000405653 0)
(0.0873511 0.000382379 0)
(0.0859471 0.000361191 0)
(0.0846088 0.00034187 0)
(0.0833329 0.000324157 0)
(0.0821124 0.000307884 0)
(0.0809457 0.00029286 0)
(0.0798262 0.000278971 0)
(0.0787535 0.00026606 0)
(0.0777214 0.000254075 0)
(0.0767306 0.000242863 0)
(0.0757747 0.000232426 0)
(0.0748557 0.000222614 0)
(0.0739668 0.000213455 0)
(0.0731111 0.000204815 0)
(0.0722813 0.000196731 0)
(0.071482 0.000189074 0)
(0.0707047 0.000181911 0)
(0.0699557 0.000175085 0)
(0.0692252 0.000168709 0)
(0.0685214 0.000162598 0)
(0.0678329 0.000156893 0)
(0.0671699 0.000151399 0)
(0.066519 0.000146277 0)
(0.065893 0.000141309 0)
(0.0652761 0.000136701 0)
(0.0646839 0.000132184 0)
(0.0640977 0.000128024 0)
(0.0635365 0.000123904 0)
(0.062978 0.000120134 0)
(0.0624455 0.000116356 0)
(0.0619122 0.00011294 0)
(0.0614061 0.000109453 0)
(0.0608956 0.000106356 0)
(0.0604144 0.000103126 0)
(0.0599245 0.00010031 0)
(0.0594666 9.7306e-05 0)
(0.0589953 9.47501e-05 0)
(0.0585596 9.19348e-05 0)
(0.058105 8.96237e-05 0)
(0.0576904 8.69695e-05 0)
(0.0572507 8.48833e-05 0)
(0.0568564 8.23679e-05 0)
(0.0564299 8.04961e-05 0)
(0.0560554 7.80917e-05 0)
(0.0556403 7.6429e-05 0)
(0.0552853 7.41143e-05 0)
(0.0548797 7.26534e-05 0)
(0.0545442 7.04069e-05 0)
(0.0541462 6.91518e-05 0)
(0.0538304 6.69466e-05 0)
(0.053438 6.59033e-05 0)
(0.0531422 6.37191e-05 0)
(0.0527532 6.28958e-05 0)
(0.0524784 6.07064e-05 0)
(0.0520903 6.01256e-05 0)
(0.0518374 5.7902e-05 0)
(0.0514473 5.75889e-05 0)
(0.0512181 5.53057e-05 0)
(0.0508224 5.52981e-05 0)
(0.0506191 5.29204e-05 0)
(0.0502136 5.32778e-05 0)
(0.0500391 5.07681e-05 0)
(0.0496182 5.15683e-05 0)
(0.0494767 4.88927e-05 0)
(0.0490328 5.02465e-05 0)
(0.0489305 4.73774e-05 0)
(0.048452 4.95297e-05 0)
(0.0483997 4.6461e-05 0)
(0.0478658 5.37096e-05 0)
(0.200022 0.00371266 0)
(0.202939 0.0082724 0)
(0.206299 0.0100806 0)
(0.208905 0.0106228 0)
(0.210345 0.0108967 0)
(0.210713 0.0110315 0)
(0.210246 0.0108436 0)
(0.209068 0.0102394 0)
(0.207241 0.0093028 0)
(0.204832 0.00821026 0)
(0.201949 0.00713469 0)
(0.198719 0.00618211 0)
(0.195285 0.00538839 0)
(0.191761 0.00474331 0)
(0.188234 0.00422353 0)
(0.184753 0.00380454 0)
(0.181342 0.00346249 0)
(0.178011 0.00317639 0)
(0.174763 0.00293 0)
(0.171601 0.00271212 0)
(0.168529 0.00251569 0)
(0.165545 0.00233658 0)
(0.162655 0.00217237 0)
(0.159857 0.00202162 0)
(0.157155 0.00188337 0)
(0.154545 0.00175681 0)
(0.15203 0.00164121 0)
(0.149606 0.00153579 0)
(0.147273 0.00143974 0)
(0.145026 0.00135225 0)
(0.142865 0.00127247 0)
(0.140783 0.00119967 0)
(0.138781 0.00113307 0)
(0.136852 0.00107205 0)
(0.134995 0.00101599 0)
(0.133203 0.000964358 0)
(0.131478 0.000916701 0)
(0.129811 0.0008726 0)
(0.128205 0.00083169 0)
(0.12665 0.000793679 0)
(0.12515 0.000758251 0)
(0.123696 0.000725216 0)
(0.122293 0.000694306 0)
(0.120929 0.000665382 0)
(0.119613 0.000638236 0)
(0.118331 0.000612753 0)
(0.117094 0.000588764 0)
(0.115885 0.000566197 0)
(0.11472 0.000544873 0)
(0.113578 0.000524787 0)
(0.112477 0.000505744 0)
(0.111396 0.000487771 0)
(0.110355 0.000470693 0)
(0.109328 0.000454542 0)
(0.108342 0.000439146 0)
(0.107365 0.000424586 0)
(0.106429 0.000410644 0)
(0.105497 0.000397463 0)
(0.104608 0.000384797 0)
(0.103717 0.000372816 0)
(0.102872 0.000361262 0)
(0.102019 0.000350351 0)
(0.101214 0.00033976 0)
(0.100395 0.000329799 0)
(0.0996286 0.000320064 0)
(0.0988405 0.000310936 0)
(0.0981104 0.000301965 0)
(0.0973502 0.000293588 0)
(0.0966548 0.00028528 0)
(0.0959196 0.000277588 0)
(0.0952576 0.00026987 0)
(0.0945446 0.000262792 0)
(0.0939151 0.000255601 0)
(0.0932215 0.000249088 0)
(0.0926239 0.000242357 0)
(0.0919468 0.000236368 0)
(0.0913808 0.000230048 0)
(0.0907175 0.000224543 0)
(0.0901832 0.000218587 0)
(0.0895306 0.000213545 0)
(0.0890286 0.000207903 0)
(0.0883833 0.000203306 0)
(0.0879145 0.000197944 0)
(0.087273 0.000193777 0)
(0.0868391 0.000188658 0)
(0.0861972 0.000184931 0)
(0.0858002 0.00018002 0)
(0.0851533 0.000176743 0)
(0.0847961 0.000172021 0)
(0.0841387 0.00016922 0)
(0.0838249 0.000164672 0)
(0.0831503 0.000162399 0)
(0.082885 0.000158026 0)
(0.0821847 0.000156354 0)
(0.0819744 0.000152192 0)
(0.0812376 0.000151264 0)
(0.0810907 0.000147329 0)
(0.0803034 0.000147744 0)
(0.0802304 0.000143946 0)
(0.0793755 0.000150973 0)
(0.200008 0.00252624 0)
(0.201847 0.00633045 0)
(0.204533 0.00842029 0)
(0.207326 0.00932359 0)
(0.209692 0.00975032 0)
(0.211534 0.0100008 0)
(0.212949 0.0100237 0)
(0.213989 0.00973377 0)
(0.214631 0.00915296 0)
(0.214832 0.00839537 0)
(0.214587 0.00759726 0)
(0.213944 0.00685998 0)
(0.212989 0.00622963 0)
(0.21181 0.00571057 0)
(0.21048 0.00528555 0)
(0.209047 0.00493289 0)
(0.207537 0.00463422 0)
(0.205962 0.00437496 0)
(0.204333 0.00414397 0)
(0.202652 0.00393313 0)
(0.200929 0.00373697 0)
(0.199167 0.00355218 0)
(0.197375 0.00337691 0)
(0.195556 0.00321028 0)
(0.193721 0.00305195 0)
(0.191872 0.00290171 0)
(0.19002 0.00275954 0)
(0.188167 0.0026252 0)
(0.186321 0.00249857 0)
(0.184482 0.00237929 0)
(0.182661 0.00226707 0)
(0.180853 0.00216151 0)
(0.179069 0.00206226 0)
(0.177303 0.00196888 0)
(0.175566 0.00188109 0)
(0.17385 0.00179842 0)
(0.172167 0.00172066 0)
(0.170506 0.00164735 0)
(0.16888 0.00157833 0)
(0.167277 0.00151319 0)
(0.165711 0.0014518 0)
(0.164166 0.00139379 0)
(0.162661 0.00133905 0)
(0.161175 0.00128724 0)
(0.159729 0.00123833 0)
(0.158301 0.00119194 0)
(0.156914 0.00114811 0)
(0.155541 0.00110646 0)
(0.154211 0.00106706 0)
(0.152892 0.00102956 0)
(0.151617 0.000994048 0)
(0.150348 0.000960162 0)
(0.149125 0.000928072 0)
(0.147904 0.000897357 0)
(0.146733 0.000868259 0)
(0.145557 0.000840348 0)
(0.144434 0.000813878 0)
(0.1433 0.000788427 0)
(0.142223 0.0007643 0)
(0.141129 0.000741007 0)
(0.140096 0.000718951 0)
(0.139038 0.00069759 0)
(0.138049 0.000677356 0)
(0.137025 0.000657713 0)
(0.136077 0.000639122 0)
(0.135084 0.000620986 0)
(0.134176 0.000603879 0)
(0.133211 0.000587097 0)
(0.132343 0.000571305 0)
(0.131402 0.000555748 0)
(0.130573 0.000541147 0)
(0.129655 0.000526676 0)
(0.128864 0.000513163 0)
(0.127965 0.000499674 0)
(0.127212 0.000487141 0)
(0.126329 0.000474544 0)
(0.125615 0.000462915 0)
(0.124745 0.000451115 0)
(0.124071 0.000440322 0)
(0.12321 0.000429257 0)
(0.122576 0.000419229 0)
(0.12172 0.000408839 0)
(0.12113 0.000399536 0)
(0.120274 0.000389762 0)
(0.119729 0.000381145 0)
(0.118869 0.000371962 0)
(0.118372 0.000364003 0)
(0.117501 0.000355381 0)
(0.117056 0.000348084 0)
(0.116169 0.000340018 0)
(0.115781 0.00033339 0)
(0.114869 0.000325921 0)
(0.114545 0.000319991 0)
(0.113598 0.000313221 0)
(0.113344 0.000308016 0)
(0.112352 0.000302247 0)
(0.112177 0.000297687 0)
(0.111126 0.000293928 0)
(0.111038 0.000290011 0)
(0.109914 0.000292904 0)
(0.200008 0.00186501 0)
(0.201221 0.00499629 0)
(0.203187 0.00711728 0)
(0.205506 0.00824026 0)
(0.20772 0.00876879 0)
(0.209624 0.00902693 0)
(0.211244 0.00909399 0)
(0.21264 0.0089379 0)
(0.213824 0.00855317 0)
(0.214754 0.00800295 0)
(0.215399 0.00738673 0)
(0.215759 0.0067935 0)
(0.21588 0.00627445 0)
(0.215819 0.00584344 0)
(0.215634 0.00549082 0)
(0.215359 0.00519898 0)
(0.215019 0.00495229 0)
(0.214618 0.00473859 0)
(0.214162 0.00454896 0)
(0.213648 0.00437643 0)
(0.21308 0.00421602 0)
(0.212454 0.00406427 0)
(0.211776 0.00391919 0)
(0.211041 0.00377954 0)
(0.210261 0.00364496 0)
(0.20943 0.00351508 0)
(0.208559 0.00339006 0)
(0.207643 0.00326963 0)
(0.206696 0.00315398 0)
(0.20571 0.00304279 0)
(0.204699 0.00293615 0)
(0.203656 0.0028337 0)
(0.202596 0.00273552 0)
(0.201507 0.00264117 0)
(0.200408 0.0025508 0)
(0.199285 0.00246389 0)
(0.198158 0.0023807 0)
(0.19701 0.00230063 0)
(0.195865 0.00222401 0)
(0.194701 0.00215024 0)
(0.193545 0.00207967 0)
(0.192372 0.00201168 0)
(0.191214 0.00194669 0)
(0.190038 0.00188401 0)
(0.188882 0.00182417 0)
(0.187709 0.00176637 0)
(0.186561 0.00171126 0)
(0.185395 0.00165796 0)
(0.18426 0.00160719 0)
(0.183104 0.00155799 0)
(0.181984 0.00151122 0)
(0.180841 0.00146576 0)
(0.179741 0.00142267 0)
(0.178612 0.00138062 0)
(0.177533 0.00134086 0)
(0.17642 0.00130195 0)
(0.175365 0.00126523 0)
(0.174269 0.00122914 0)
(0.173238 0.00119524 0)
(0.172159 0.0011617 0)
(0.171155 0.00113037 0)
(0.170093 0.00109916 0)
(0.169117 0.00107015 0)
(0.168071 0.00104106 0)
(0.167123 0.00101421 0)
(0.166093 0.000987005 0)
(0.165176 0.00096215 0)
(0.164159 0.000936658 0)
(0.163273 0.000913621 0)
(0.16227 0.000889689 0)
(0.161415 0.000868341 0)
(0.160423 0.000845797 0)
(0.159602 0.00082603 0)
(0.158619 0.00080474 0)
(0.157833 0.000786436 0)
(0.156857 0.000766278 0)
(0.156108 0.00074936 0)
(0.155135 0.000730199 0)
(0.154424 0.000714599 0)
(0.153452 0.00069634 0)
(0.152783 0.000681983 0)
(0.151807 0.000664531 0)
(0.151182 0.000651386 0)
(0.150199 0.000634646 0)
(0.149621 0.000622682 0)
(0.148625 0.000606599 0)
(0.1481 0.000595795 0)
(0.147086 0.000580318 0)
(0.146617 0.000570688 0)
(0.145578 0.000555806 0)
(0.145171 0.000547355 0)
(0.1441 0.00053314 0)
(0.14376 0.000525873 0)
(0.142649 0.000512516 0)
(0.142384 0.000506407 0)
(0.141222 0.000494377 0)
(0.14104 0.000489328 0)
(0.139816 0.0004798 0)
(0.139723 0.000476107 0)
(0.138426 0.000472579 0)
(0.200007 0.00145135 0)
(0.200859 0.00404493 0)
(0.202315 0.00602764 0)
(0.204165 0.0072541 0)
(0.206079 0.00788504 0)
(0.207817 0.00817559 0)
(0.209329 0.00826793 0)
(0.21065 0.00818676 0)
(0.211814 0.00792868 0)
(0.212808 0.0075237 0)
(0.213613 0.00703838 0)
(0.214216 0.00654649 0)
(0.214645 0.00610053 0)
(0.214936 0.00572222 0)
(0.21514 0.00541018 0)
(0.215283 0.00515185 0)
(0.215392 0.00493423 0)
(0.215469 0.00474648 0)
(0.215522 0.00458107 0)
(0.215543 0.00443189 0)
(0.215537 0.00429476 0)
(0.215493 0.00416623 0)
(0.215421 0.00404441 0)
(0.215308 0.00392767 0)
(0.215166 0.00381563 0)
(0.214982 0.00370747 0)
(0.214771 0.00360347 0)
(0.214517 0.00350295 0)
(0.214238 0.00340633 0)
(0.213916 0.00331289 0)
(0.213573 0.00322305 0)
(0.213188 0.00313607 0)
(0.212785 0.00305239 0)
(0.212341 0.00297117 0)
(0.211882 0.00289302 0)
(0.211382 0.00281696 0)
(0.210872 0.00274377 0)
(0.210321 0.00267235 0)
(0.209765 0.00260365 0)
(0.209167 0.00253646 0)
(0.20857 0.00247185 0)
(0.20793 0.00240854 0)
(0.207297 0.00234775 0)
(0.206619 0.002288 0)
(0.205954 0.00223078 0)
(0.205243 0.00217437 0)
(0.204551 0.00212049 0)
(0.20381 0.00206723 0)
(0.203096 0.00201647 0)
(0.20233 0.00196616 0)
(0.201598 0.00191839 0)
(0.200809 0.00187079 0)
(0.200064 0.00182587 0)
(0.199256 0.00178084 0)
(0.198501 0.00173858 0)
(0.197677 0.00169599 0)
(0.196916 0.00165623 0)
(0.196078 0.00161589 0)
(0.195314 0.00157855 0)
(0.194464 0.00154027 0)
(0.193701 0.00150522 0)
(0.192841 0.00146891 0)
(0.192083 0.00143598 0)
(0.191213 0.00140149 0)
(0.190462 0.00137062 0)
(0.189584 0.00133777 0)
(0.188843 0.00130889 0)
(0.187957 0.00127756 0)
(0.187229 0.00125052 0)
(0.186336 0.00122062 0)
(0.185624 0.00119536 0)
(0.184722 0.00116672 0)
(0.184029 0.00114319 0)
(0.183118 0.00111571 0)
(0.182447 0.00109382 0)
(0.181527 0.00106739 0)
(0.180881 0.00104711 0)
(0.179949 0.00102159 0)
(0.179331 0.00100288 0)
(0.178385 0.000978191 0)
(0.1778 0.000960999 0)
(0.176837 0.000937053 0)
(0.176287 0.000921374 0)
(0.175306 0.000898069 0)
(0.174796 0.00088389 0)
(0.173791 0.000861188 0)
(0.173326 0.000848492 0)
(0.172293 0.000826362 0)
(0.171877 0.000815167 0)
(0.170812 0.000793632 0)
(0.170451 0.000783931 0)
(0.169348 0.000763125 0)
(0.169047 0.000754904 0)
(0.167899 0.000735102 0)
(0.167665 0.000728333 0)
(0.166464 0.000710091 0)
(0.166304 0.000704789 0)
(0.165042 0.00068927 0)
(0.16496 0.000685996 0)
(0.163629 0.000675647 0)
(0.200005 0.00116854 0)
(0.200632 0.00332716 0)
(0.201731 0.00509804 0)
(0.203193 0.00632498 0)
(0.204804 0.00703267 0)
(0.206347 0.00737932 0)
(0.207727 0.00750922 0)
(0.208933 0.00748454 0)
(0.209997 0.0073187 0)
(0.210921 0.00702771 0)
(0.211703 0.00665292 0)
(0.21233 0.00624997 0)
(0.21282 0.00586741 0)
(0.213193 0.00553177 0)
(0.213495 0.00524933 0)
(0.213745 0.00501303 0)
(0.213976 0.00481304 0)
(0.214187 0.00463968 0)
(0.214392 0.00448667 0)
(0.214578 0.00434862 0)
(0.214759 0.00422244 0)
(0.214918 0.00410489 0)
(0.21507 0.00399464 0)
(0.215196 0.00388971 0)
(0.215315 0.00379004 0)
(0.215405 0.00369427 0)
(0.215489 0.00360303 0)
(0.215543 0.00351508 0)
(0.21559 0.00343126 0)
(0.215605 0.00335029 0)
(0.215616 0.00327309 0)
(0.215592 0.00319828 0)
(0.215566 0.00312691 0)
(0.215502 0.00305742 0)
(0.215439 0.00299111 0)
(0.215335 0.0029262 0)
(0.215235 0.00286427 0)
(0.215091 0.00280333 0)
(0.214954 0.00274519 0)
(0.214771 0.00268772 0)
(0.214599 0.00263292 0)
(0.214376 0.00257848 0)
(0.21417 0.0025267 0)
(0.213908 0.00247492 0)
(0.213669 0.00242589 0)
(0.213369 0.00237653 0)
(0.213099 0.00232997 0)
(0.212763 0.00228284 0)
(0.212462 0.00223856 0)
(0.212091 0.00219345 0)
(0.211764 0.00215136 0)
(0.211358 0.00210804 0)
(0.211006 0.00206802 0)
(0.210568 0.0020264 0)
(0.210192 0.00198827 0)
(0.209723 0.00194828 0)
(0.209328 0.00191196 0)
(0.208828 0.00187342 0)
(0.208416 0.00183893 0)
(0.207887 0.00180169 0)
(0.20746 0.00176891 0)
(0.206904 0.00173298 0)
(0.206465 0.00170179 0)
(0.205883 0.00166705 0)
(0.205435 0.00163749 0)
(0.204826 0.00160378 0)
(0.204373 0.00157584 0)
(0.203739 0.00154313 0)
(0.203282 0.00151669 0)
(0.202624 0.00148492 0)
(0.202168 0.00146002 0)
(0.201484 0.00142904 0)
(0.201032 0.00140567 0)
(0.200324 0.00137545 0)
(0.199878 0.00135353 0)
(0.199144 0.001324 0)
(0.198709 0.00130359 0)
(0.197949 0.00127462 0)
(0.197528 0.00125571 0)
(0.196741 0.00122729 0)
(0.196337 0.00120983 0)
(0.195522 0.0011819 0)
(0.195139 0.00116594 0)
(0.194295 0.00113842 0)
(0.193936 0.00112396 0)
(0.19306 0.00109687 0)
(0.192731 0.0010839 0)
(0.191819 0.00105726 0)
(0.191525 0.0010458 0)
(0.190575 0.00101968 0)
(0.190319 0.00100975 0)
(0.189328 0.000984355 0)
(0.189114 0.000975927 0)
(0.188078 0.000951595 0)
(0.187912 0.000944711 0)
(0.186826 0.000922028 0)
(0.186712 0.000916864 0)
(0.185572 0.000896919 0)
(0.185514 0.000894182 0)
(0.184314 0.000878618 0)
(0.200004 0.000960946 0)
(0.200478 0.00276661 0)
(0.201324 0.00431781 0)
(0.202481 0.00548277 0)
(0.203818 0.00622925 0)
(0.205163 0.00663436 0)
(0.206409 0.00681174 0)
(0.20751 0.00683686 0)
(0.208483 0.00674086 0)
(0.20933 0.00653916 0)
(0.210062 0.00625806 0)
(0.210667 0.00593638 0)
(0.211162 0.0056149 0)
(0.211553 0.00532095 0)
(0.211879 0.0050666 0)
(0.212153 0.00484983 0)
(0.21241 0.0046645 0)
(0.212645 0.00450222 0)
(0.212881 0.00435796 0)
(0.213101 0.00422677 0)
(0.213324 0.0041067 0)
(0.213529 0.00399469 0)
(0.213737 0.00389023 0)
(0.213926 0.00379101 0)
(0.214119 0.00369753 0)
(0.21429 0.00360783 0)
(0.214468 0.00352309 0)
(0.214621 0.00344142 0)
(0.214783 0.00336429 0)
(0.214918 0.00328974 0)
(0.215064 0.0032194 0)
(0.21518 0.00315112 0)
(0.215309 0.00308677 0)
(0.215406 0.00302391 0)
(0.215518 0.00296477 0)
(0.215593 0.00290657 0)
(0.215687 0.00285192 0)
(0.21574 0.00279773 0)
(0.215816 0.00274695 0)
(0.215846 0.00269623 0)
(0.215902 0.00264881 0)
(0.215908 0.00260104 0)
(0.215945 0.00255662 0)
(0.215925 0.00251138 0)
(0.215942 0.00246961 0)
(0.215896 0.0024266 0)
(0.215893 0.00238714 0)
(0.21582 0.00234613 0)
(0.215796 0.00230877 0)
(0.215696 0.00226944 0)
(0.215652 0.00223405 0)
(0.215524 0.00219616 0)
(0.21546 0.00216255 0)
(0.215303 0.00212601 0)
(0.215221 0.00209395 0)
(0.215035 0.00205862 0)
(0.214934 0.00202809 0)
(0.214719 0.00199372 0)
(0.214601 0.0019647 0)
(0.214357 0.0019312 0)
(0.214223 0.0019035 0)
(0.213949 0.00187087 0)
(0.213801 0.00184441 0)
(0.213497 0.00181248 0)
(0.213336 0.00178734 0)
(0.213002 0.00175595 0)
(0.21283 0.00173207 0)
(0.212466 0.00170126 0)
(0.212284 0.00167855 0)
(0.211891 0.00164822 0)
(0.211701 0.00162675 0)
(0.211277 0.00159677 0)
(0.211082 0.00157652 0)
(0.210628 0.00154692 0)
(0.21043 0.00152781 0)
(0.209945 0.00149851 0)
(0.209746 0.00148064 0)
(0.209229 0.00145155 0)
(0.209032 0.00143491 0)
(0.208484 0.00140606 0)
(0.208291 0.0013906 0)
(0.20771 0.00136196 0)
(0.207525 0.00134777 0)
(0.20691 0.00131929 0)
(0.206734 0.00130634 0)
(0.206085 0.00127813 0)
(0.205923 0.0012664 0)
(0.205238 0.00123849 0)
(0.205091 0.00122803 0)
(0.204369 0.00120057 0)
(0.204241 0.00119138 0)
(0.203481 0.00116462 0)
(0.203374 0.00115674 0)
(0.202574 0.00113103 0)
(0.202491 0.00112457 0)
(0.201649 0.00110052 0)
(0.201592 0.00109579 0)
(0.200707 0.00107441 0)
(0.200679 0.00107215 0)
(0.199749 0.00105454 0)
(0.200004 0.000800876 0)
(0.20037 0.00232333 0)
(0.201032 0.00367226 0)
(0.201953 0.00474554 0)
(0.203055 0.00549481 0)
(0.20421 0.00594531 0)
(0.205321 0.00617169 0)
(0.206325 0.00624374 0)
(0.207218 0.0062034 0)
(0.207997 0.00607115 0)
(0.20868 0.00586709 0)
(0.209256 0.00561752 0)
(0.209742 0.00535428 0)
(0.210137 0.00510216 0)
(0.210473 0.00487649 0)
(0.210755 0.00467937 0)
(0.211018 0.00450845 0)
(0.211257 0.00435694 0)
(0.211496 0.00422115 0)
(0.211717 0.00409633 0)
(0.211944 0.00398159 0)
(0.212152 0.00387387 0)
(0.212368 0.00377362 0)
(0.212564 0.00367815 0)
(0.212769 0.00358864 0)
(0.212954 0.00350254 0)
(0.21315 0.00342165 0)
(0.213324 0.00334341 0)
(0.213512 0.00327001 0)
(0.213676 0.00319873 0)
(0.213857 0.00313205 0)
(0.214012 0.00306696 0)
(0.214186 0.00300627 0)
(0.21433 0.00294661 0)
(0.214498 0.0028912 0)
(0.214632 0.00283626 0)
(0.214793 0.00278546 0)
(0.214917 0.00273464 0)
(0.215071 0.00268786 0)
(0.215183 0.00264061 0)
(0.21533 0.00259739 0)
(0.21543 0.00255319 0)
(0.215569 0.00251315 0)
(0.215655 0.00247159 0)
(0.215786 0.00243433 0)
(0.215858 0.00239513 0)
(0.215979 0.00236029 0)
(0.216036 0.00232314 0)
(0.216149 0.00229054 0)
(0.216189 0.00225507 0)
(0.216292 0.00222454 0)
(0.216315 0.00219054 0)
(0.216408 0.00216179 0)
(0.216413 0.00212916 0)
(0.216495 0.00210198 0)
(0.216481 0.00207047 0)
(0.216553 0.00204485 0)
(0.216519 0.00201418 0)
(0.216581 0.00199003 0)
(0.216525 0.00196017 0)
(0.216577 0.00193722 0)
(0.2165 0.00190812 0)
(0.216541 0.00188635 0)
(0.216441 0.00185774 0)
(0.216473 0.00183721 0)
(0.21635 0.00180899 0)
(0.216372 0.00178952 0)
(0.216225 0.00176175 0)
(0.216239 0.00174326 0)
(0.216066 0.00171577 0)
(0.216073 0.00169838 0)
(0.215875 0.00167104 0)
(0.215874 0.00165462 0)
(0.21565 0.00162752 0)
(0.215643 0.001612 0)
(0.215393 0.00158501 0)
(0.21538 0.00157051 0)
(0.215103 0.00154355 0)
(0.215085 0.00152998 0)
(0.214781 0.00150317 0)
(0.21476 0.00149048 0)
(0.214428 0.00146373 0)
(0.214406 0.00145203 0)
(0.214045 0.00142536 0)
(0.214021 0.00141454 0)
(0.213632 0.00138809 0)
(0.213609 0.00137815 0)
(0.213191 0.00135196 0)
(0.213169 0.00134296 0)
(0.212722 0.00131722 0)
(0.212702 0.00130914 0)
(0.212226 0.00128411 0)
(0.212209 0.00127704 0)
(0.211703 0.00125309 0)
(0.211691 0.00124718 0)
(0.211155 0.00122492 0)
(0.211147 0.0012206 0)
(0.210582 0.00120092 0)
(0.210579 0.00119889 0)
(0.209985 0.00118261 0)
(0.200003 0.000674261 0)
(0.200291 0.00196816 0)
(0.200817 0.00313876 0)
(0.201556 0.00411056 0)
(0.202463 0.00483549 0)
(0.203445 0.0053114 0)
(0.204424 0.00558012 0)
(0.205331 0.0056959 0)
(0.206151 0.00570259 0)
(0.20687 0.00562542 0)
(0.207507 0.0054837 0)
(0.208053 0.00529609 0)
(0.208526 0.00508667 0)
(0.208919 0.00487574 0)
(0.20926 0.00467953 0)
(0.209548 0.00450286 0)
(0.209816 0.00434691 0)
(0.210055 0.00420667 0)
(0.210294 0.00407997 0)
(0.210513 0.0039622 0)
(0.210737 0.00385336 0)
(0.210942 0.0037503 0)
(0.211155 0.00365432 0)
(0.211348 0.00356243 0)
(0.211551 0.00347651 0)
(0.211733 0.00339349 0)
(0.211928 0.00331576 0)
(0.212102 0.00324019 0)
(0.212291 0.00316958 0)
(0.212457 0.00310059 0)
(0.212641 0.00303642 0)
(0.212801 0.00297334 0)
(0.212981 0.00291496 0)
(0.213135 0.00285713 0)
(0.213312 0.00280392 0)
(0.213459 0.00275074 0)
(0.213634 0.0027021 0)
(0.213776 0.00265301 0)
(0.213947 0.00260841 0)
(0.214084 0.0025629 0)
(0.214253 0.00252194 0)
(0.214383 0.00247951 0)
(0.21455 0.00244181 0)
(0.214674 0.00240211 0)
(0.214838 0.00236725 0)
(0.214955 0.00233002 0)
(0.215116 0.0022977 0)
(0.215225 0.00226258 0)
(0.215384 0.00223264 0)
(0.215484 0.00219927 0)
(0.21564 0.00217152 0)
(0.215732 0.00213974 0)
(0.215884 0.00211381 0)
(0.215966 0.00208353 0)
(0.216114 0.00205927 0)
(0.216186 0.00203014 0)
(0.21633 0.00200758 0)
(0.21639 0.00197935 0)
(0.21653 0.00195827 0)
(0.216579 0.001931 0)
(0.216714 0.00191112 0)
(0.21675 0.00188466 0)
(0.21688 0.00186604 0)
(0.216903 0.00184008 0)
(0.217029 0.00182268 0)
(0.217037 0.00179722 0)
(0.217157 0.00178079 0)
(0.217151 0.00175585 0)
(0.217266 0.00174039 0)
(0.217245 0.0017157 0)
(0.217353 0.00170129 0)
(0.217316 0.00167684 0)
(0.217419 0.00166323 0)
(0.217366 0.0016391 0)
(0.217463 0.00162627 0)
(0.217393 0.00160225 0)
(0.217483 0.0015903 0)
(0.217396 0.00156638 0)
(0.217481 0.00155511 0)
(0.217376 0.00153143 0)
(0.217454 0.00152085 0)
(0.217332 0.00149726 0)
(0.217404 0.00148743 0)
(0.217263 0.00146403 0)
(0.217329 0.00145479 0)
(0.217171 0.0014317 0)
(0.21723 0.00142308 0)
(0.217053 0.00140033 0)
(0.217106 0.00139234 0)
(0.216912 0.00137015 0)
(0.216957 0.0013628 0)
(0.216745 0.00134141 0)
(0.216783 0.00133483 0)
(0.216555 0.00131459 0)
(0.216584 0.00130897 0)
(0.216339 0.00129044 0)
(0.21636 0.00128627 0)
(0.216099 0.00127026 0)
(0.216111 0.00126818 0)
(0.215835 0.00125538 0)
(0.200003 0.000572446 0)
(0.200233 0.00167896 0)
(0.200655 0.00269573 0)
(0.201253 0.00356692 0)
(0.202001 0.00425049 0)
(0.202831 0.00473211 0)
(0.203684 0.00503145 0)
(0.204496 0.0051854 0)
(0.205245 0.00523302 0)
(0.20591 0.00520109 0)
(0.206505 0.0051099 0)
(0.207021 0.00497435 0)
(0.207477 0.00481299 0)
(0.207865 0.00464136 0)
(0.208206 0.00447478 0)
(0.208499 0.00431936 0)
(0.20877 0.00417908 0)
(0.209012 0.00405075 0)
(0.209249 0.00393378 0)
(0.209468 0.00382385 0)
(0.209689 0.00372167 0)
(0.209893 0.00362397 0)
(0.210101 0.00353274 0)
(0.210292 0.00344481 0)
(0.21049 0.00336261 0)
(0.21067 0.00328282 0)
(0.21086 0.00320821 0)
(0.211032 0.00313531 0)
(0.211215 0.00306734 0)
(0.211381 0.00300056 0)
(0.211559 0.00293862 0)
(0.211719 0.00287738 0)
(0.211894 0.00282094 0)
(0.212048 0.0027647 0)
(0.21222 0.00271319 0)
(0.212371 0.00266143 0)
(0.212541 0.00261433 0)
(0.212687 0.00256654 0)
(0.212855 0.00252341 0)
(0.212998 0.0024791 0)
(0.213165 0.00243956 0)
(0.213304 0.00239831 0)
(0.213471 0.00236198 0)
(0.213606 0.00232348 0)
(0.213771 0.00228996 0)
(0.213903 0.00225395 0)
(0.214067 0.00222298 0)
(0.214196 0.00218909 0)
(0.214359 0.00216056 0)
(0.214484 0.00212846 0)
(0.214646 0.0021021 0)
(0.214766 0.00207171 0)
(0.214927 0.00204718 0)
(0.215044 0.00201835 0)
(0.215203 0.00199556 0)
(0.215315 0.00196792 0)
(0.215473 0.00194688 0)
(0.21558 0.00192026 0)
(0.215736 0.00190066 0)
(0.215838 0.00187517 0)
(0.215992 0.00185677 0)
(0.216088 0.00183216 0)
(0.216241 0.00181509 0)
(0.21633 0.00179107 0)
(0.21648 0.00177519 0)
(0.216564 0.00175187 0)
(0.21671 0.00173687 0)
(0.216788 0.0017142 0)
(0.216931 0.0017002 0)
(0.217001 0.00167787 0)
(0.217141 0.00166486 0)
(0.217204 0.00164297 0)
(0.217339 0.00163065 0)
(0.217395 0.00160923 0)
(0.217525 0.00159766 0)
(0.217574 0.00157645 0)
(0.217698 0.00156564 0)
(0.217739 0.00154475 0)
(0.217858 0.00153446 0)
(0.217891 0.00151395 0)
(0.218004 0.00150425 0)
(0.218029 0.00148398 0)
(0.218134 0.00147486 0)
(0.218152 0.00145498 0)
(0.218249 0.00144628 0)
(0.218259 0.00142685 0)
(0.218347 0.00141864 0)
(0.21835 0.00139969 0)
(0.218429 0.00139192 0)
(0.218425 0.00137368 0)
(0.218493 0.00136642 0)
(0.218482 0.00134906 0)
(0.218539 0.00134245 0)
(0.218522 0.00132634 0)
(0.218566 0.00132062 0)
(0.218543 0.00130624 0)
(0.218574 0.00130192 0)
(0.218546 0.00128998 0)
(0.218562 0.00128766 0)
(0.218531 0.00127882 0)
(0.200002 0.000489319 0)
(0.200188 0.00144027 0)
(0.20053 0.00232515 0)
(0.201019 0.00310158 0)
(0.201636 0.00373493 0)
(0.202337 0.00420683 0)
(0.203074 0.00452384 0)
(0.203796 0.00470825 0)
(0.204475 0.0047911 0)
(0.205089 0.00479732 0)
(0.205642 0.00474764 0)
(0.206131 0.00465541 0)
(0.206567 0.0045358 0)
(0.206946 0.00440041 0)
(0.207285 0.0042627 0)
(0.207581 0.00412895 0)
(0.207852 0.0040049 0)
(0.208098 0.00388906 0)
(0.208334 0.00378228 0)
(0.208554 0.00368079 0)
(0.208772 0.00358581 0)
(0.208976 0.00349413 0)
(0.20918 0.00340808 0)
(0.209371 0.00332458 0)
(0.209564 0.00324633 0)
(0.209744 0.00317004 0)
(0.209929 0.00309864 0)
(0.210101 0.00302863 0)
(0.210278 0.00296333 0)
(0.210443 0.00289894 0)
(0.210616 0.00283923 0)
(0.210775 0.00277998 0)
(0.210944 0.00272539 0)
(0.211099 0.00267087 0)
(0.211264 0.00262093 0)
(0.211415 0.00257068 0)
(0.211578 0.00252495 0)
(0.211726 0.0024785 0)
(0.211886 0.00243659 0)
(0.212032 0.0023935 0)
(0.212191 0.00235507 0)
(0.212334 0.00231497 0)
(0.212491 0.00227963 0)
(0.212633 0.00224226 0)
(0.212789 0.00220963 0)
(0.212928 0.00217473 0)
(0.213083 0.00214462 0)
(0.21322 0.00211179 0)
(0.213374 0.00208408 0)
(0.21351 0.00205307 0)
(0.213663 0.00202744 0)
(0.213797 0.00199823 0)
(0.213949 0.00197435 0)
(0.214082 0.00194671 0)
(0.214232 0.0019246 0)
(0.214363 0.00189816 0)
(0.214512 0.00187775 0)
(0.214642 0.00185246 0)
(0.21479 0.00183338 0)
(0.214918 0.00180933 0)
(0.215064 0.00179145 0)
(0.215191 0.0017683 0)
(0.215336 0.00175176 0)
(0.215461 0.00172932 0)
(0.215603 0.00171386 0)
(0.215727 0.00169229 0)
(0.215867 0.00167766 0)
(0.21599 0.0016568 0)
(0.216126 0.00164318 0)
(0.216248 0.00162278 0)
(0.216381 0.00161005 0)
(0.216501 0.0015903 0)
(0.216631 0.00157816 0)
(0.21675 0.00155899 0)
(0.216875 0.00154759 0)
(0.216993 0.00152876 0)
(0.217113 0.00151802 0)
(0.21723 0.00149971 0)
(0.217345 0.00148939 0)
(0.217461 0.00147158 0)
(0.21757 0.00146183 0)
(0.217685 0.0014444 0)
(0.217787 0.00143511 0)
(0.217902 0.00141826 0)
(0.217996 0.00140932 0)
(0.21811 0.00139302 0)
(0.218196 0.00138453 0)
(0.218311 0.00136884 0)
(0.218387 0.00136074 0)
(0.218502 0.00134585 0)
(0.218568 0.00133824 0)
(0.218683 0.00132429 0)
(0.218738 0.00131734 0)
(0.218854 0.00130468 0)
(0.218897 0.00129866 0)
(0.219015 0.00128771 0)
(0.219044 0.00128312 0)
(0.219164 0.00127453 0)
(0.219179 0.00127196 0)
(0.219302 0.00126635 0)
(0.200002 0.00042054 0)