/*--------------------------------*- C++ -*----------------------------------*\
| =========                 |                                                 |
| \\      /  F ield         | OpenFOAM: The Open Source CFD Toolbox           |
|  \\    /   O peration     | Version:  2.3.0                                 |
|   \\  /    A nd           | Web:      www.OpenFOAM.org                      |
|    \\/     M anipulation  |                                                 |
\*---------------------------------------------------------------------------*/
FoamFile
{
    version     2.0;
    format      ascii;
    class       volScalarField;
    location    "0.5";
    object      p;
}
// * * * * * * * * * * * * * * * * * * * * * * * * * * * * * * * * * * * * * //

dimensions      [0 2 -2 0 0 0 0];

internalField   nonuniform List<scalar> 
2945
(
0.00254393
0.00163736
0.000610045
-0.000231471
-0.000552954
-0.000654265
-0.000634065
-0.000570623
-0.000521194
-0.000481108
-0.000454066
-0.000437683
-0.000422125
-0.00040719
-0.000391799
-0.000378106
-0.000365944
-0.000353194
-0.000340677
-0.000327829
-0.000315655
-0.000306356
-0.000298333
-0.000288085
-0.000275714
-0.00026483
-0.00025614
-0.000247507
-0.00023893
-0.000231007
-0.000223056
-0.000215432
-0.00020816
-0.000200864
-0.000194031
-0.00018791
-0.000182328
-0.000177135
-0.000171757
-0.000166144
-0.000161087
-0.000156366
-0.000152103
-0.000148266
-0.000144836
-0.000141292
-0.000137622
-0.000133714
-0.000130206
-0.000127913
-0.000125174
-0.000122183
-0.000119639
-0.000116713
-0.000113831
-0.000111464
-0.00010912
-0.000106239
-0.000103145
-0.000100391
-9.68307e-05
-9.29958e-05
-8.91885e-05
-8.50795e-05
-8.03422e-05
-7.4973e-05
-6.98499e-05
-6.37028e-05
-5.67805e-05
-4.89846e-05
-4.1723e-05
-3.25678e-05
-2.40563e-05
-1.36959e-05
-5.22457e-06
0.00221187
0.00153872
0.00064072
-0.000177756
-0.000481656
-0.000606905
-0.000604435
-0.000550616
-0.000507803
-0.000471003
-0.000445796
-0.000431107
-0.000416317
-0.00040203
-0.000387108
-0.000373892
-0.00036226
-0.000349851
-0.000337663
-0.000325036
-0.000312954
-0.000303881
-0.000296221
-0.000286199
-0.000273824
-0.000262976
-0.000254491
-0.000246001
-0.000237491
-0.000229672
-0.000221796
-0.000214239
-0.000207065
-0.000199814
-0.000193017
-0.000186961
-0.00018144
-0.000176314
-0.000170994
-0.000165401
-0.00016038
-0.000155694
-0.000151461
-0.000147667
-0.000144278
-0.000140774
-0.000137139
-0.000133252
-0.000129731
-0.000127495
-0.000124808
-0.000121808
-0.000119303
-0.000116404
-0.000113523
-0.000111183
-0.000108877
-0.000106015
-0.000102921
-0.000100204
-9.66697e-05
-9.28332e-05
-8.90492e-05
-8.4965e-05
-8.02465e-05
-7.48715e-05
-6.97747e-05
-6.36595e-05
-5.67324e-05
-4.89414e-05
-4.16952e-05
-3.2561e-05
-2.40524e-05
-1.36751e-05
-5.21521e-06
0.00197877
0.00143735
0.000698046
-0.000113687
-0.000382
-0.00053411
-0.000555119
-0.000520467
-0.000490579
-0.000458469
-0.00043576
-0.00042349
-0.000409918
-0.000396561
-0.000382185
-0.000369616
-0.000358611
-0.000346559
-0.000334796
-0.000322399
-0.000310389
-0.000301559
-0.000294299
-0.000284504
-0.000272068
-0.000261216
-0.000252954
-0.000244622
-0.000236179
-0.000228471
-0.000220649
-0.000213141
-0.000206077
-0.000198863
-0.000192076
-0.000186082
-0.000180634
-0.000175583
-0.000170311
-0.000164719
-0.000159738
-0.000155078
-0.000150867
-0.00014712
-0.00014378
-0.000140308
-0.000136702
-0.000132829
-0.000129277
-0.000127116
-0.000124487
-0.000121462
-0.000119
-0.000116121
-0.000113233
-0.000110925
-0.000108664
-0.000105815
-0.000102711
-0.000100042
-9.65286e-05
-9.26816e-05
-8.89238e-05
-8.48694e-05
-8.01696e-05
-7.47747e-05
-6.97142e-05
-6.36401e-05
-5.66914e-05
-4.89011e-05
-4.16782e-05
-3.25657e-05
-2.40243e-05
-1.36624e-05
-5.25493e-06
0.00176138
0.0013416
0.000687853
7.54187e-05
-0.000342841
-0.000488515
-0.000500681
-0.000480436
-0.000463429
-0.0004378
-0.00042045
-0.000412509
-0.000401062
-0.00038912
-0.000375539
-0.000363949
-0.000353726
-0.000342183
-0.000331095
-0.000319061
-0.000307259
-0.000298737
-0.0002919
-0.000282404
-0.00026997
-0.000259116
-0.000251086
-0.00024297
-0.000234654
-0.00022708
-0.000219307
-0.000211855
-0.000204933
-0.000197767
-0.000190973
-0.00018505
-0.000179705
-0.000174748
-0.000169527
-0.000163932
-0.000159002
-0.000154365
-0.000150171
-0.000146491
-0.000143212
-0.000139767
-0.000136187
-0.000132335
-0.000128741
-0.000126669
-0.000124115
-0.000121056
-0.00011864
-0.000115778
-0.000112882
-0.000110616
-0.000108408
-0.000105571
-0.00010245
-9.98412e-05
-9.63501e-05
-9.24883e-05
-8.87628e-05
-8.47463e-05
-8.00699e-05
-7.46447e-05
-6.96306e-05
-6.36163e-05
-5.66256e-05
-4.88479e-05
-4.16469e-05
-3.25805e-05
-2.39213e-05
-1.3684e-05
-5.36613e-06
0.00156291
0.00123203
0.000665127
0.000234702
-0.000287185
-0.000458929
-0.000457177
-0.000439615
-0.000432158
-0.00041275
-0.000401478
-0.000398622
-0.000389531
-0.000378969
-0.000366465
-0.000356374
-0.000347041
-0.000336171
-0.000326057
-0.000314539
-0.000303168
-0.000295001
-0.00028854
-0.000279471
-0.000267242
-0.000256412
-0.000248577
-0.000240762
-0.000232685
-0.000225273
-0.00021755
-0.000210175
-0.00020345
-0.000196362
-0.000189541
-0.000183703
-0.000178509
-0.00017367
-0.000168502
-0.00016292
-0.000158066
-0.000153441
-0.000149262
-0.00014568
-0.000142474
-0.000139046
-0.000135495
-0.000131684
-0.000128046
-0.000126064
-0.000123607
-0.00012052
-0.000118145
-0.000115296
-0.000112404
-0.000110187
-0.000108037
-0.000105217
-0.000102077
-9.95356e-05
-9.60734e-05
-9.21999e-05
-8.85121e-05
-8.45435e-05
-7.98999e-05
-7.44385e-05
-6.94792e-05
-6.35497e-05
-5.64985e-05
-4.87548e-05
-4.15738e-05
-3.25817e-05
-2.3779e-05
-1.36711e-05
-5.55829e-06
0.00141359
0.00111883
0.00068514
0.00022088
-0.000170575
-0.000368155
-0.00041389
-0.000402957
-0.000401764
-0.00038429
-0.000378991
-0.000382029
-0.000376105
-0.000366921
-0.000355431
-0.000347159
-0.000338659
-0.000328564
-0.000319692
-0.000308794
-0.000298117
-0.000290273
-0.00028403
-0.000275488
-0.000263765
-0.00025301
-0.000245289
-0.000237864
-0.000230156
-0.000222917
-0.000215244
-0.000207971
-0.000201509
-0.000194553
-0.000187679
-0.000181927
-0.000176944
-0.000172244
-0.000167132
-0.000161594
-0.00015685
-0.000152224
-0.000148056
-0.000144606
-0.000141487
-0.00013806
-0.000134544
-0.000130806
-0.000127128
-0.000125218
-0.000122887
-0.000119791
-0.000117441
-0.000114605
-0.000111735
-0.000109574
-0.00010748
-0.000104686
-0.000101532
-9.90576e-05
-9.56332e-05
-9.17586e-05
-8.81125e-05
-8.42032e-05
-7.96059e-05
-7.41067e-05
-6.92088e-05
-6.33937e-05
-5.62673e-05
-4.85859e-05
-4.14291e-05
-3.25409e-05
-2.358e-05
-1.36245e-05
-5.823e-06
0.00131188
0.00103663
0.000669503
0.000253979
-8.71538e-05
-0.000278034
-0.000362062
-0.00037381
-0.000367193
-0.000349809
-0.000363582
-0.000364839
-0.000361151
-0.000353428
-0.00034356
-0.000337324
-0.000329189
-0.000319691
-0.000312253
-0.000302109
-0.000292442
-0.00028477
-0.000278552
-0.000270528
-0.00025955
-0.000248931
-0.000241258
-0.000234308
-0.000227062
-0.000219975
-0.000212347
-0.000205185
-0.00019904
-0.000192303
-0.000185356
-0.000179668
-0.000174943
-0.000170397
-0.000165345
-0.000159896
-0.000155296
-0.000150646
-0.000146483
-0.00014321
-0.000140187
-0.000136738
-0.000133261
-0.000129642
-0.000125936
-0.000124058
-0.000121882
-0.000118809
-0.000116456
-0.000113633
-0.000110813
-0.000108712
-0.00010667
-0.000103909
-0.000100753
-9.83392e-05
-9.49628e-05
-9.11047e-05
-8.75014e-05
-8.36642e-05
-7.91313e-05
-7.35964e-05
-6.87663e-05
-6.30977e-05
-5.58862e-05
-4.8299e-05
-4.11808e-05
-3.24239e-05
-2.33091e-05
-1.35329e-05
-6.12936e-06
0.00121945
0.000966362
0.000639311
0.000297338
-2.88283e-05
-0.000213933
-0.000305011
-0.000345057
-0.000321271
-0.00032714
-0.000348885
-0.000346723
-0.000346541
-0.000338194
-0.000331014
-0.000327591
-0.000319702
-0.000310391
-0.000304031
-0.000294679
-0.00028664
-0.000278816
-0.00027244
-0.000264889
-0.000254745
-0.000244264
-0.000236639
-0.000230266
-0.000223523
-0.000216526
-0.000208929
-0.000201863
-0.00019605
-0.000189624
-0.000182619
-0.000176966
-0.00017252
-0.000168109
-0.0001631
-0.00015781
-0.000153417
-0.000148689
-0.000144509
-0.000141458
-0.000138539
-0.000135043
-0.000131612
-0.00012816
-0.000124446
-0.000122541
-0.000120545
-0.000117539
-0.000115139
-0.000112331
-0.000109598
-0.000107554
-0.000105555
-0.000102837
-9.96927e-05
-9.73269e-05
-9.401e-05
-9.01931e-05
-8.66287e-05
-8.28748e-05
-7.84275e-05
-7.2862e-05
-6.81084e-05
-6.2617e-05
-5.53174e-05
-4.78537e-05
-4.08053e-05
-3.21913e-05
-2.29544e-05
-1.33899e-05
-6.42349e-06
0.00111681
0.000893954
0.000614598
0.000317813
1.65778e-05
-0.000152221
-0.000253436
-0.000318629
-0.000282899
-0.000308226
-0.000322414
-0.000328022
-0.000333343
-0.000319333
-0.000320026
-0.000318569
-0.000309539
-0.000301267
-0.000295648
-0.00028621
-0.000280725
-0.00027259
-0.000266132
-0.00025889
-0.000249534
-0.000239138
-0.000231664
-0.000225905
-0.000219651
-0.000212718
-0.000205144
-0.000198121
-0.000192622
-0.000186594
-0.000179562
-0.000173921
-0.000169753
-0.000165446
-0.000160428
-0.000155325
-0.000151257
-0.000146429
-0.000142174
-0.000139366
-0.000136545
-0.000132968
-0.0001296
-0.000126379
-0.000122674
-0.000120671
-0.000118868
-0.000115975
-0.000113475
-0.000110688
-0.000108085
-0.000106086
-0.000104114
-0.00010145
-9.83349e-05
-9.59969e-05
-9.27477e-05
-8.90027e-05
-8.54723e-05
-8.18091e-05
-7.74673e-05
-7.18739e-05
-6.72107e-05
-6.19238e-05
-5.45417e-05
-4.72216e-05
-4.02941e-05
-3.18094e-05
-2.2514e-05
-1.31978e-05
-6.64002e-06
0.00102086
0.00082601
0.000584015
0.000333024
5.12594e-05
-9.87026e-05
-0.000195122
-0.000295737
-0.000259779
-0.000273126
-0.000295617
-0.000309266
-0.000320861
-0.0003024
-0.000308737
-0.000307826
-0.00029798
-0.000292012
-0.000286099
-0.000279218
-0.00027332
-0.000266498
-0.000259603
-0.000252885
-0.000243979
-0.000233527
-0.000226694
-0.000221469
-0.000215465
-0.000208618
-0.000201166
-0.000194099
-0.000188805
-0.000183287
-0.000176324
-0.000170685
-0.000166736
-0.000162484
-0.000157414
-0.000152496
-0.000148837
-0.000143934
-0.000139588
-0.00013701
-0.000134262
-0.000130551
-0.00012724
-0.000124337
-0.000120682
-0.000118501
-0.000116885
-0.000114138
-0.000111478
-0.000108727
-0.00010631
-0.000104335
-0.000102365
-9.97568e-05
-9.66927e-05
-9.43674e-05
-9.11863e-05
-8.75395e-05
-8.40378e-05
-8.04732e-05
-7.62557e-05
-7.06274e-05
-6.60742e-05
-6.10101e-05
-5.35628e-05
-4.63948e-05
-3.9655e-05
-3.1263e-05
-2.19956e-05
-1.2966e-05
-6.72262e-06
0.000928505
0.000762947
0.000556555
0.000341987
8.98081e-05
-6.53436e-05
-0.000152636
-0.000258604
-0.000236678
-0.000247398
-0.000272051
-0.000290496
-0.000303946
-0.000292359
-0.000295383
-0.000294886
-0.000286089
-0.000282404
-0.000277707
-0.000272
-0.000265125
-0.000260398
-0.000252257
-0.00024654
-0.000238233
-0.000227478
-0.000221983
-0.000217184
-0.000211069
-0.000204213
-0.000197022
-0.000189954
-0.000184656
-0.000179634
-0.000172893
-0.000167488
-0.000163586
-0.000159348
-0.000154076
-0.000149373
-0.000146253
-0.000141235
-0.000136837
-0.000134472
-0.00013176
-0.000127891
-0.00012458
-0.000122062
-0.00011854
-0.000116112
-0.000114675
-0.00011208
-0.000109179
-0.00010648
-0.000104325
-0.000102364
-0.000100374
-9.77972e-05
-9.47838e-05
-9.2478e-05
-8.93737e-05
-8.58454e-05
-8.23601e-05
-7.88948e-05
-7.48217e-05
-6.91412e-05
-6.47294e-05
-5.98911e-05
-5.24053e-05
-4.53907e-05
-3.89072e-05
-3.05584e-05
-2.14149e-05
-1.27075e-05
-6.64182e-06
0.000845518
0.000708372
0.000534457
0.000337222
0.000130983
-4.09756e-05
-0.000122397
-0.000208841
-0.00021911
-0.00022631
-0.00024914
-0.000273811
-0.000284495
-0.000280847
-0.000283565
-0.000282446
-0.000274124
-0.000271331
-0.000272443
-0.000262455
-0.000256175
-0.000254332
-0.000245367
-0.000238516
-0.000232924
-0.000220792
-0.000217741
-0.000212787
-0.000206562
-0.000199561
-0.000192695
-0.000185843
-0.00018024
-0.000175699
-0.000168863
-0.000164463
-0.000160335
-0.000156311
-0.000150586
-0.000145881
-0.000143507
-0.000138362
-0.000134044
-0.00013184
-0.00012905
-0.000125031
-0.000121687
-0.000119587
-0.000116328
-0.000113577
-0.000112294
-0.000109872
-0.00010664
-0.000103987
-0.000102171
-0.000100211
-9.8222e-05
-9.56632e-05
-9.26473e-05
-9.03621e-05
-8.73528e-05
-8.39772e-05
-8.05074e-05
-7.71289e-05
-7.32082e-05
-6.74352e-05
-6.32185e-05
-5.86001e-05
-5.11078e-05
-4.42519e-05
-3.80773e-05
-2.97149e-05
-2.079e-05
-1.24362e-05
-6.4026e-06
0.000773893
0.000661355
0.00051011
0.000336244
0.000152114
-9.64662e-06
-8.53955e-05
-0.00017626
-0.000205704
-0.000203221
-0.000225365
-0.000255425
-0.000267013
-0.000268579
-0.000270321
-0.000269725
-0.0002615
-0.000262258
-0.000264471
-0.000253781
-0.000247571
-0.000246696
-0.000238996
-0.000232022
-0.000227956
-0.000214929
-0.000211443
-0.000207761
-0.000201811
-0.000194956
-0.000187647
-0.000181901
-0.000175839
-0.000171384
-0.000164355
-0.000161886
-0.000156693
-0.000153043
-0.000147266
-0.000142368
-0.000140656
-0.000135015
-0.000131203
-0.000129242
-0.000126294
-0.000121995
-0.000118528
-0.000116868
-0.000114085
-0.000111035
-0.000109796
-0.000107531
-0.000103897
-0.000101318
-9.99358e-05
-9.79092e-05
-9.59274e-05
-9.34237e-05
-9.03542e-05
-8.80775e-05
-8.5155e-05
-8.19673e-05
-7.85347e-05
-7.5248e-05
-7.14896e-05
-6.55366e-05
-6.15746e-05
-5.71609e-05
-4.97042e-05
-4.30368e-05
-3.71988e-05
-2.87555e-05
-2.01348e-05
-1.21637e-05
-6.04071e-06
0.000712271
0.000616635
0.000485098
0.00033349
0.000165928
1.87956e-05
-4.70079e-05
-0.000167019
-0.000183271
-0.000174687
-0.000201115
-0.000235841
-0.000250928
-0.000255087
-0.000256903
-0.000256667
-0.000249768
-0.000254819
-0.000253294
-0.000244782
-0.000240369
-0.000237505
-0.000231609
-0.000228042
-0.000220734
-0.000211231
-0.000204767
-0.000201484
-0.000196625
-0.0001894
-0.000182011
-0.000178866
-0.00017055
-0.000167341
-0.000160455
-0.00015864
-0.000153309
-0.000149347
-0.000142606
-0.000138976
-0.000138539
-0.000131388
-0.000128336
-0.000126231
-0.000123561
-0.000119128
-0.000115233
-0.000113815
-0.000111653
-0.000108565
-0.000107266
-0.000105168
-0.000100936
-9.84e-05
-9.76691e-05
-9.55707e-05
-9.35534e-05
-9.10926e-05
-8.79165e-05
-8.56891e-05
-8.28077e-05
-7.98625e-05
-7.64751e-05
-7.32755e-05
-6.9734e-05
-6.34979e-05
-5.98561e-05
-5.55816e-05
-4.81991e-05
-4.18039e-05
-3.63026e-05
-2.76999e-05
-1.9456e-05
-1.18966e-05
-5.60871e-06
0.000657805
0.000574418
0.000461531
0.000327362
0.00017446
4.92805e-05
-3.00872e-05
-0.000105785
-0.000178202
-0.000168529
-0.000182693
-0.000218552
-0.000236329
-0.000239975
-0.000243422
-0.000243981
-0.000240297
-0.000244289
-0.00024254
-0.000235508
-0.000232383
-0.000229702
-0.000224126
-0.000223305
-0.000211802
-0.000204293
-0.000201654
-0.000195724
-0.000190788
-0.000183686
-0.000177185
-0.000174756
-0.000165576
-0.000161236
-0.000159295
-0.000154941
-0.000149095
-0.000144447
-0.000139026
-0.000135841
-0.000133723
-0.000129851
-0.00012527
-0.000123406
-0.000119856
-0.000115051
-0.000112931
-0.000110824
-0.000109078
-0.000106032
-0.000104532
-0.00010272
-9.80674e-05
-9.5349e-05
-9.51862e-05
-9.30934e-05
-9.11727e-05
-8.88183e-05
-8.53334e-05
-8.32533e-05
-8.02877e-05
-7.76506e-05
-7.44076e-05
-7.12342e-05
-6.79525e-05
-6.13355e-05
-5.8145e-05
-5.38976e-05
-4.65719e-05
-4.06065e-05
-3.54097e-05
-2.65516e-05
-1.87558e-05
-1.16383e-05
-5.15786e-06
0.000609064
0.000535994
0.000439961
0.000317151
0.000179975
7.77781e-05
-2.00827e-05
-4.91133e-05
-0.000152472
-0.000168535
-0.000172548
-0.000202389
-0.000219976
-0.00022614
-0.000230837
-0.000231805
-0.0002307
-0.000233274
-0.000231044
-0.000227774
-0.000223814
-0.000219711
-0.000218431
-0.000217527
-0.00019813
-0.000199129
-0.000198204
-0.000190692
-0.000185143
-0.000178992
-0.000172456
-0.000169066
-0.000161585
-0.000155361
-0.000157561
-0.000150376
-0.000143972
-0.000139474
-0.000137164
-0.000132335
-0.000127844
-0.000127646
-0.000122532
-0.000119699
-0.000116013
-0.000112242
-0.000109936
-0.000109016
-0.000105795
-0.000102925
-0.000101894
-9.96825e-05
-9.39608e-05
-9.33138e-05
-9.28259e-05
-9.0307e-05
-8.85561e-05
-8.65749e-05
-8.2765e-05
-8.08531e-05
-7.76994e-05
-7.52444e-05
-7.22535e-05
-6.91737e-05
-6.61402e-05
-5.91325e-05
-5.6456e-05
-5.21471e-05
-4.48197e-05
-3.94935e-05
-3.4536e-05
-2.52992e-05
-1.80296e-05
-1.13988e-05
-4.72566e-06
0.000571132
0.000499521
0.000413346
0.000309198
0.000181396
9.33195e-05
8.16738e-06
-4.47558e-05
-0.000125658
-0.000152859
-0.000165865
-0.000185222
-0.000204064
-0.000212942
-0.000216602
-0.000216482
-0.000224462
-0.000223167
-0.000217812
-0.000221802
-0.000215523
-0.000210351
-0.000211734
-0.000206902
-0.000189532
-0.00019795
-0.00019025
-0.000185426
-0.000179872
-0.000173674
-0.000167146
-0.000163654
-0.000157635
-0.000152697
-0.000151554
-0.000145098
-0.000140403
-0.000135926
-0.00013282
-0.000129818
-0.000123771
-0.000123912
-0.000119196
-0.000115825
-0.000112702
-0.000109463
-0.000106778
-0.000106756
-0.00010222
-9.98256e-05
-9.93062e-05
-9.64888e-05
-9.0127e-05
-9.13911e-05
-9.01671e-05
-8.72476e-05
-8.56036e-05
-8.40148e-05
-8.04567e-05
-7.86438e-05
-7.49834e-05
-7.28227e-05
-6.98355e-05
-6.70135e-05
-6.40141e-05
-5.71608e-05
-5.48417e-05
-5.03142e-05
-4.29785e-05
-3.85019e-05
-3.36816e-05
-2.39349e-05
-1.72484e-05
-1.1209e-05
-4.34329e-06
0.000539304
0.000468691
0.000382276
0.000295742
0.00019293
9.59787e-05
2.81068e-05
-2.85385e-05
-0.000109631
-0.000132508
-0.00015137
-0.000167486
-0.000191477
-0.000196984
-0.000201239
-0.00020415
-0.000215944
-0.000212947
-0.000207052
-0.000212272
-0.000207837
-0.000202977
-0.00020254
-0.000191746
-0.000189829
-0.000189674
-0.000184417
-0.000180307
-0.000174083
-0.000167821
-0.000161903
-0.000157922
-0.000153872
-0.000148616
-0.0001459
-0.000141074
-0.000136567
-0.000130866
-0.000128976
-0.000126102
-0.000121287
-0.00012027
-0.00011469
-0.000112506
-0.000108921
-0.000105057
-0.00010502
-0.000102754
-9.8869e-05
-9.73489e-05
-9.5967e-05
-9.34997e-05
-8.81561e-05
-8.8148e-05
-8.67042e-05
-8.44841e-05
-8.26302e-05
-8.09535e-05
-7.84425e-05
-7.59919e-05
-7.25425e-05
-7.03459e-05
-6.73617e-05
-6.45132e-05
-6.12446e-05
-5.58378e-05
-5.32544e-05
-4.8306e-05
-4.10864e-05
-3.76063e-05
-3.28307e-05
-2.24817e-05
-1.63346e-05
-1.11171e-05
-4.0392e-06
0.000503228
0.000441694
0.000350844
0.000280538
0.000208767
8.86803e-05
4.18267e-05
-7.35209e-06
-9.43275e-05
-0.000121927
-0.000128218
-0.00015332
-0.000178716
-0.000179852
-0.000188133
-0.00019839
-0.000200379
-0.000199352
-0.000203213
-0.000199567
-0.000199447
-0.000194188
-0.000193928
-0.000181423
-0.000186346
-0.000181789
-0.00018012
-0.000173862
-0.000167962
-0.000162033
-0.000156509
-0.000152481
-0.000149914
-0.000143745
-0.000140846
-0.000136816
-0.000131415
-0.000126925
-0.00012575
-0.000121082
-0.000119173
-0.000114597
-0.000110961
-0.000108751
-0.000105292
-0.000101329
-0.000102873
-9.86583e-05
-9.61381e-05
-9.4218e-05
-9.2261e-05
-9.07825e-05
-8.63753e-05
-8.4837e-05
-8.29856e-05
-8.18419e-05
-7.95056e-05
-7.75688e-05
-7.65528e-05
-7.22336e-05
-7.09446e-05
-6.76936e-05
-6.50675e-05
-6.19255e-05
-5.76566e-05
-5.50171e-05
-5.17286e-05
-4.62372e-05
-3.93068e-05
-3.6677e-05
-3.18564e-05
-2.10071e-05
-1.55211e-05
-1.09355e-05
-3.79093e-06
0.000465974
0.000412372
0.000320956
0.000272441
0.000210411
9.06594e-05
5.57162e-05
9.75738e-06
-7.43247e-05
-0.000114584
-0.000112842
-0.000143456
-0.00016364
-0.000165113
-0.000176571
-0.000187779
-0.000183975
-0.000190061
-0.000194169
-0.000189746
-0.000189894
-0.00018552
-0.000184758
-0.000174459
-0.000179615
-0.000177857
-0.000171551
-0.000166686
-0.000161935
-0.00015622
-0.000151223
-0.000147301
-0.000146176
-0.000138449
-0.000134936
-0.000131713
-0.000126576
-0.000123439
-0.00011962
-0.000118439
-0.000114528
-0.000109806
-0.000107637
-0.00010521
-0.00010177
-9.79973e-05
-9.96141e-05
-9.37445e-05
-9.43547e-05
-9.10389e-05
-8.90322e-05
-8.67217e-05
-8.51054e-05
-8.13776e-05
-8.01773e-05
-7.81488e-05
-7.62188e-05
-7.44354e-05
-7.41799e-05
-6.92649e-05
-6.85105e-05
-6.51512e-05
-6.26528e-05
-5.92228e-05
-5.45991e-05
-5.37297e-05
-5.01572e-05
-4.41816e-05
-3.7635e-05
-3.58253e-05
-3.05695e-05
-1.92979e-05
-1.50541e-05
-1.05896e-05
-3.58436e-06
0.000430574
0.000385613
0.000291061
0.000263959
0.000212567
8.84569e-05
6.41882e-05
2.27216e-05
-5.48879e-05
-0.000101623
-0.000103238
-0.000134361
-0.000147021
-0.000152606
-0.000164817
-0.000175074
-0.000171419
-0.00018361
-0.000180592
-0.000180376
-0.000180245
-0.000177236
-0.000173989
-0.000170644
-0.000172536
-0.000170579
-0.000163188
-0.00016013
-0.000155429
-0.000149627
-0.00014621
-0.000142099
-0.000140049
-0.000135405
-0.000128536
-0.000126711
-0.000121676
-0.000118644
-0.000114626
-0.000114526
-0.000110224
-0.000105107
-0.000104591
-0.000101372
-9.79519e-05
-9.53698e-05
-9.52812e-05
-8.99449e-05
-9.11074e-05
-8.76206e-05
-8.56136e-05
-8.22985e-05
-8.2481e-05
-7.87063e-05
-7.77285e-05
-7.51469e-05
-7.23822e-05
-7.15406e-05
-7.09543e-05
-6.74268e-05
-6.54958e-05
-6.23414e-05
-5.98998e-05
-5.64957e-05
-5.25954e-05
-5.16794e-05
-4.83569e-05
-4.19513e-05
-3.61416e-05
-3.47956e-05
-2.90554e-05
-1.7988e-05
-1.46286e-05
-1.00862e-05
-3.39962e-06
0.000398274
0.000363628
0.000277771
0.000241744
0.000207444
8.30171e-05
7.24915e-05
3.26248e-05
-3.87712e-05
-8.69599e-05
-9.60667e-05
-0.000123537
-0.000134586
-0.000138895
-0.000151694
-0.000159699
-0.000168153
-0.000169996
-0.000169837
-0.000170498
-0.000171245
-0.000168964
-0.000163071
-0.000165728
-0.000166945
-0.00016157
-0.000155562
-0.000152697
-0.000148356
-0.000142848
-0.000141321
-0.000136859
-0.000131765
-0.000131134
-0.000124586
-0.000121203
-0.000117147
-0.000113289
-0.000112101
-0.00010869
-0.000106289
-0.000100342
-0.000100815
-9.7395e-05
-9.40826e-05
-9.18306e-05
-9.12584e-05
-8.78447e-05
-8.6636e-05
-8.36588e-05
-8.17214e-05
-7.83622e-05
-7.84947e-05
-7.68616e-05
-7.49927e-05
-7.18889e-05
-6.97901e-05
-6.85228e-05
-6.73851e-05
-6.59662e-05
-6.20153e-05
-5.94207e-05
-5.70904e-05
-5.4078e-05
-5.04042e-05
-4.94249e-05
-4.65562e-05
-3.93754e-05
-3.5e-05
-3.35111e-05
-2.72319e-05
-1.7314e-05
-1.40036e-05
-9.49814e-06
-3.22709e-06
0.000370642
0.000340097
0.000286076
0.000213254
0.000182885
0.000101259
6.22161e-05
3.98087e-05
-4.12842e-05
-6.84823e-05
-8.23022e-05
-0.000110237
-0.000124821
-0.000126395
-0.000139787
-0.000147881
-0.000158547
-0.000156588
-0.000160578
-0.00016231
-0.000161768
-0.00016061
-0.000154951
-0.000158776
-0.00015875
-0.000152967
-0.00014838
-0.000145475
-0.000142922
-0.000136157
-0.000134836
-0.000131198
-0.000124917
-0.000124066
-0.000121516
-0.000116583
-0.000112127
-0.000107987
-0.000107505
-0.000104207
-0.000102279
-9.71683e-05
-9.52493e-05
-9.32162e-05
-9.01461e-05
-8.81523e-05
-8.70616e-05
-8.46168e-05
-8.25031e-05
-8.02041e-05
-7.81028e-05
-7.5144e-05
-7.41953e-05
-7.35416e-05
-7.21256e-05
-6.84353e-05
-6.71075e-05
-6.54666e-05
-6.41647e-05
-6.31773e-05
-5.95779e-05
-5.6561e-05
-5.412e-05
-5.154e-05
-4.79092e-05
-4.72172e-05
-4.48485e-05
-3.5881e-05
-3.47111e-05
-3.22045e-05
-2.5499e-05
-1.61062e-05
-1.37558e-05
-9.02257e-06
-3.03625e-06
0.000347307
0.000312942
0.000282848
0.000197034
0.000161561
0.000119309
5.53218e-05
3.30698e-05
-1.85576e-05
-6.13668e-05
-7.38523e-05
-0.000101966
-0.000112295
-0.000115165
-0.000127375
-0.000146805
-0.000141289
-0.000142593
-0.000151279
-0.000152021
-0.000152002
-0.000152282
-0.000147947
-0.000151237
-0.000148128
-0.000142677
-0.000142476
-0.000139686
-0.000136991
-0.000129252
-0.000126992
-0.000122718
-0.000121597
-0.000119066
-0.000116229
-0.000111554
-0.000106969
-0.000103329
-0.000101124
-9.98087e-05
-9.8149e-05
-9.423e-05
-8.93912e-05
-8.88009e-05
-8.62559e-05
-8.45549e-05
-8.22532e-05
-8.13159e-05
-7.79102e-05
-7.65913e-05
-7.44346e-05
-7.25669e-05
-6.93385e-05
-7.03556e-05
-6.80698e-05
-6.70705e-05
-6.34403e-05
-6.1832e-05
-6.1183e-05
-5.92399e-05
-5.85454e-05
-5.30129e-05
-5.15344e-05
-4.89889e-05
-4.51613e-05
-4.47895e-05
-4.29773e-05
-3.317e-05
-3.40102e-05
-3.06232e-05
-2.35374e-05
-1.51307e-05
-1.3295e-05
-8.57482e-06
-2.86063e-06
0.000325485
0.000290184
0.000253382
0.000197351
0.000150753
0.000110223
6.15521e-05
3.65376e-05
-2.69298e-06
-5.4156e-05
-6.50179e-05
-9.68991e-05
-0.000101779
-0.000104151
-0.000113867
-0.000132662
-0.000134973
-0.000133584
-0.00014109
-0.000141859
-0.000142878
-0.000143237
-0.00014149
-0.000142404
-0.000135984
-0.000134408
-0.00013719
-0.000133047
-0.000128331
-0.000122458
-0.000120077
-0.000116169
-0.000116791
-0.000114017
-0.000110427
-0.00010556
-0.000101757
-9.82264e-05
-9.57215e-05
-9.51537e-05
-9.33896e-05
-8.93628e-05
-8.52076e-05
-8.43564e-05
-8.23136e-05
-8.15969e-05
-7.6817e-05
-7.75442e-05
-7.36175e-05
-7.23218e-05
-7.07401e-05
-6.92044e-05
-6.50321e-05
-6.66917e-05
-6.46813e-05
-6.42234e-05
-6.07168e-05
-5.85752e-05
-5.81273e-05
-5.56026e-05
-5.54439e-05
-5.06728e-05
-4.9738e-05
-4.60363e-05
-4.23983e-05
-4.22004e-05
-3.87273e-05
-3.32418e-05
-3.26303e-05
-2.91406e-05
-2.15603e-05
-1.49184e-05
-1.2169e-05
-8.0635e-06
-2.64608e-06
0.00028968
0.000251968
0.000225033
0.000182693
0.000133797
0.000110762
6.71709e-05
2.73907e-05
-4.4237e-06
-2.92239e-05
-5.09041e-05
-7.87862e-05
-8.12574e-05
-8.35726e-05
-9.83014e-05
-0.00010861
-0.000123209
-0.000123591
-0.000127512
-0.00012698
-0.000127814
-0.000129288
-0.000129094
-0.000127672
-0.000121293
-0.000126713
-0.000124749
-0.000120325
-0.000114439
-0.000113297
-0.000110489
-0.000108982
-0.000105626
-0.00010454
-0.000101981
-9.58177e-05
-9.3043e-05
-8.99599e-05
-8.84695e-05
-8.83768e-05
-8.56272e-05
-7.92866e-05
-8.01615e-05
-7.77316e-05
-7.60279e-05
-7.59626e-05
-7.13349e-05
-6.96723e-05
-6.71845e-05
-6.61648e-05
-6.48956e-05
-6.35898e-05
-6.05288e-05
-5.96905e-05
-6.0397e-05
-5.74344e-05
-5.53284e-05
-5.48384e-05
-5.26319e-05
-5.01222e-05
-4.95849e-05
-4.8726e-05
-4.57626e-05
-4.07866e-05
-3.90605e-05
-3.7786e-05
-3.19212e-05
-3.328e-05
-3.05751e-05
-2.71339e-05
-1.95117e-05
-1.35684e-05
-1.09179e-05
-7.3542e-06
-2.34601e-06
0.000222342
0.00018671
0.000198825
0.000141088
0.000128543
0.000109362
4.59939e-05
1.89207e-05
3.27245e-05
-1.52068e-05
-4.94427e-05
-4.78854e-05
-8.06136e-05
-5.99336e-05
-6.97099e-05
-8.72881e-05
-9.59537e-05
-0.00010045
-0.000106236
-0.000108199
-0.000107878
-0.000110447
-0.000110936
-0.000105854
-0.00011123
-0.000108839
-0.000104189
-0.000101503
-0.000100014
-9.98444e-05
-9.82446e-05
-9.35987e-05
-9.31878e-05
-8.9846e-05
-8.47674e-05
-8.15452e-05
-8.30257e-05
-7.85577e-05
-7.46964e-05
-7.81287e-05
-7.48307e-05
-7.0185e-05
-7.01489e-05
-6.91522e-05
-6.70304e-05
-6.16201e-05
-6.13948e-05
-6.11882e-05
-5.91494e-05
-5.80485e-05
-5.61271e-05
-5.44796e-05
-5.5193e-05
-5.16091e-05
-5.12684e-05
-4.94051e-05
-4.84501e-05
-4.77631e-05
-4.43772e-05
-4.39745e-05
-4.26974e-05
-4.11425e-05
-4.05819e-05
-3.47734e-05
-3.47888e-05
-3.25552e-05
-2.8722e-05
-2.83837e-05
-2.70439e-05
-2.34095e-05
-1.16998e-05
-1.12562e-05
-1.10458e-05
-6.49583e-06
-2.09788e-06
0.000173864
0.000143714
0.000144595
0.00012581
0.000103896
7.82138e-05
4.91669e-05
3.19372e-05
1.93159e-05
-7.54369e-06
-2.03922e-05
-2.74152e-05
-5.10093e-05
-6.14374e-05
-5.8431e-05
-6.72306e-05
-7.50861e-05
-8.21748e-05
-8.46248e-05
-9.04402e-05
-8.82333e-05
-8.86261e-05
-9.25774e-05
-8.57146e-05
-9.02525e-05
-8.72027e-05
-8.3405e-05
-8.34259e-05
-8.5768e-05
-8.24782e-05
-8.31137e-05
-7.54049e-05
-7.57135e-05
-7.45281e-05
-6.69595e-05
-7.05406e-05
-7.10508e-05
-6.57832e-05
-6.35625e-05
-6.38209e-05
-6.06113e-05
-5.80724e-05
-5.71452e-05
-5.79442e-05
-5.88409e-05
-5.00747e-05
-4.78838e-05
-5.21662e-05
-4.79512e-05
-4.66363e-05
-4.67685e-05
-4.52723e-05
-4.64841e-05
-4.25047e-05
-4.16669e-05
-4.07005e-05
-4.1126e-05
-3.92909e-05
-3.68605e-05
-3.57744e-05
-3.42539e-05
-3.31065e-05
-3.33821e-05
-2.93985e-05
-2.89994e-05
-2.70967e-05
-2.33667e-05
-2.30167e-05
-2.14432e-05
-1.83642e-05
-6.37897e-06
-1.25022e-05
-9.71942e-06
-4.46158e-06
-1.41454e-06
0.000117124
0.000134346
0.000112944
9.18369e-05
7.38169e-05
6.46078e-05
3.85441e-05
1.74091e-05
1.79984e-05
9.84428e-06
-6.85292e-06
-8.01529e-06
-1.15352e-05
-5.7453e-05
-5.50373e-05
-5.2232e-05
-5.39969e-05
-6.17044e-05
-6.59113e-05
-6.87618e-05
-6.13105e-05
-6.04627e-05
-6.54302e-05
-6.92291e-05
-6.53385e-05
-6.59432e-05
-6.72126e-05
-6.21612e-05
-6.30549e-05
-6.3263e-05
-5.7996e-05
-5.67772e-05
-5.89839e-05
-5.65271e-05
-5.29863e-05
-5.39914e-05
-5.36729e-05
-5.15214e-05
-5.21994e-05
-4.78976e-05
-4.85071e-05
-4.09953e-05
-4.21122e-05
-4.20417e-05
-4.10239e-05
-4.03372e-05
-4.05287e-05
-4.05277e-05
-3.54805e-05
-3.46958e-05
-3.56601e-05
-3.4552e-05
-3.27888e-05
-3.30329e-05
-3.11424e-05
-3.2521e-05
-3.07572e-05
-2.84712e-05
-2.83381e-05
-2.84167e-05
-2.59178e-05
-2.63222e-05
-2.43791e-05
-2.30043e-05
-2.206e-05
-1.96175e-05
-1.76986e-05
-1.68956e-05
-1.52956e-05
-9.55328e-06
-9.43761e-06
-1.03946e-05
-6.94356e-06
-2.24423e-06
-8.32135e-07
8.85225e-05
8.83965e-05
6.8338e-05
5.46016e-05
4.95863e-05
4.30802e-05
3.18469e-05
1.95551e-05
8.15354e-06
3.15245e-06
-1.19616e-06
-7.8986e-06
-1.64183e-05
-2.48396e-05
-2.52374e-05
-2.84025e-05
-3.10249e-05
-3.26464e-05
-3.94149e-05
-4.57657e-05
-4.11286e-05
-3.72396e-05
-3.98371e-05
-4.72811e-05
-4.44204e-05
-4.22865e-05
-4.15955e-05
-3.87746e-05
-3.85546e-05
-3.96299e-05
-3.4135e-05
-3.85179e-05
-3.89261e-05
-3.69954e-05
-3.6249e-05
-3.36894e-05
-3.3232e-05
-3.38763e-05
-3.28578e-05
-3.12094e-05
-2.99667e-05
-2.76883e-05
-2.78395e-05
-2.4436e-05
-2.13119e-05
-2.77926e-05
-2.8761e-05
-2.5124e-05
-2.36357e-05
-2.38622e-05
-2.21979e-05
-2.20083e-05
-2.28254e-05
-2.07187e-05
-1.81864e-05
-2.10831e-05
-1.9965e-05
-1.71851e-05
-1.84014e-05
-1.99541e-05
-1.6322e-05
-1.60435e-05
-1.49765e-05
-1.55793e-05
-1.39215e-05
-1.32177e-05
-9.93487e-06
-1.01007e-05
-9.91376e-06
-3.81451e-06
-7.10277e-06
-7.2928e-06
-3.58391e-06
-9.7651e-07
-9.2607e-07
3.3161e-05
2.84634e-05
1.62035e-05
1.47966e-05
2.64164e-05
1.76348e-05
9.35381e-06
1.10262e-05
6.65177e-06
-4.68434e-06
-5.17256e-06
-1.43785e-07
-3.8745e-06
-1.04647e-05
-9.99009e-06
-3.98915e-06
-1.03889e-05
-1.62381e-05
-1.61598e-05
-1.04002e-05
-1.46332e-05
-1.50753e-05
-1.55343e-05
-1.33928e-05
-1.45106e-05
-1.36113e-05
-1.09281e-05
-1.40032e-05
-1.44935e-05