/*--------------------------------*- C++ -*----------------------------------*\
| =========                 |                                                 |
| \\      /  F ield         | OpenFOAM: The Open Source CFD Toolbox           |
|  \\    /   O peration     | Version:  2.3.0                                 |
|   \\  /    A nd           | Web:      www.OpenFOAM.org                      |
|    \\/     M anipulation  |                                                 |
\*---------------------------------------------------------------------------*/
FoamFile
{
    version     2.0;
    format      ascii;
    class       volVectorField;
    location    "0.5";
    object      U_0;
}
// * * * * * * * * * * * * * * * * * * * * * * * * * * * * * * * * * * * * * //

dimensions      [0 1 -1 0 0 0 0];

internalField   nonuniform List<vector> 
2945
(
(0.160376 0.00666227 0)
(0.120553 0.00660766 0)
(0.088721 0.00462972 0)
(0.0665109 0.00246608 0)
(0.0523438 0.000998404 0)
(0.0436522 0.000397806 0)
(0.0381656 0.000139612 0)
(0.0346826 6.4143e-05 0)
(0.0323247 5.73371e-05 0)
(0.030514 6.50455e-05 0)
(0.0289707 7.84456e-05 0)
(0.0275898 7.65077e-05 0)
(0.0263519 7.00492e-05 0)
(0.0252445 6.28518e-05 0)
(0.0242538 5.4463e-05 0)
(0.0233619 4.9934e-05 0)
(0.0225519 4.51896e-05 0)
(0.021818 3.97871e-05 0)
(0.0211497 3.60183e-05 0)
(0.0205386 3.23108e-05 0)
(0.0199711 3.0582e-05 0)
(0.0194307 3.04436e-05 0)
(0.0189197 2.8017e-05 0)
(0.0184542 2.35513e-05 0)
(0.0180319 2.08985e-05 0)
(0.0176309 2.12714e-05 0)
(0.0172448 2.03982e-05 0)
(0.0168835 1.80448e-05 0)
(0.0165458 1.70144e-05 0)
(0.0162239 1.63325e-05 0)
(0.0159184 1.50649e-05 0)
(0.015629 1.43631e-05 0)
(0.0153553 1.31929e-05 0)
(0.0150962 1.23118e-05 0)
(0.014849 1.20293e-05 0)
(0.0146122 1.13467e-05 0)
(0.0143865 1.0678e-05 0)
(0.0141707 1.02415e-05 0)
(0.0139661 9.33653e-06 0)
(0.0137736 8.55874e-06 0)
(0.0135891 8.40191e-06 0)
(0.013412 7.93274e-06 0)
(0.0132419 7.6852e-06 0)
(0.0130798 7.16277e-06 0)
(0.0129233 7.01281e-06 0)
(0.0127749 6.47247e-06 0)
(0.0126345 5.96852e-06 0)
(0.0125047 5.21405e-06 0)
(0.0123797 5.28068e-06 0)
(0.0122563 5.65501e-06 0)
(0.012141 4.49546e-06 0)
(0.0120334 4.4209e-06 0)
(0.0119298 4.45915e-06 0)
(0.0118327 3.67135e-06 0)
(0.0117433 3.56785e-06 0)
(0.0116567 3.62946e-06 0)
(0.0115741 3.35022e-06 0)
(0.0114989 2.87237e-06 0)
(0.0114294 2.74657e-06 0)
(0.0113626 2.86146e-06 0)
(0.0113033 2.09057e-06 0)
(0.0112498 2.0929e-06 0)
(0.0112001 2.02341e-06 0)
(0.0111544 1.78403e-06 0)
(0.0111147 1.48385e-06 0)
(0.0110802 1.30225e-06 0)
(0.0110467 1.57774e-06 0)
(0.0110203 8.70755e-07 0)
(0.0109964 9.75509e-07 0)
(0.0109823 4.52026e-07 0)
(0.0109614 1.04359e-06 0)
(0.0109565 -1.65705e-07 0)
(0.0109406 1.05593e-06 0)
(0.0109443 -8.07822e-07 0)
(0.0109338 1.02077e-06 0)
(0.191559 0.0126687 0)
(0.184001 0.0139215 0)
(0.171234 0.012196 0)
(0.156478 0.00931045 0)
(0.141804 0.006126 0)
(0.128313 0.00396058 0)
(0.116624 0.002455 0)
(0.106969 0.00164968 0)
(0.0993367 0.00120455 0)
(0.0932749 0.000937251 0)
(0.0882605 0.000806221 0)
(0.0839619 0.000699732 0)
(0.0801835 0.000618106 0)
(0.0768332 0.00055044 0)
(0.0738359 0.00048644 0)
(0.0711257 0.000438634 0)
(0.0686706 0.000394467 0)
(0.0664439 0.000353656 0)
(0.0644048 0.000321758 0)
(0.0625304 0.000292545 0)
(0.0607882 0.000272012 0)
(0.0591497 0.00025745 0)
(0.0576189 0.000236665 0)
(0.0562085 0.000211503 0)
(0.0549006 0.000193908 0)
(0.0536604 0.000186322 0)
(0.0524851 0.000175067 0)
(0.0513827 0.000160361 0)
(0.0503448 0.000150721 0)
(0.049359 0.000142608 0)
(0.0484234 0.000133045 0)
(0.0475357 0.000125638 0)
(0.0466952 0.000117247 0)
(0.0458945 0.000110235 0)
(0.0451323 0.000105012 0)
(0.0444064 9.89993e-05 0)
(0.043714 9.34136e-05 0)
(0.0430532 8.86466e-05 0)
(0.042425 8.2668e-05 0)
(0.0418277 7.74599e-05 0)
(0.0412551 7.42929e-05 0)
(0.0407075 7.01562e-05 0)
(0.0401829 6.68952e-05 0)
(0.0396837 6.28889e-05 0)
(0.0392029 6.02393e-05 0)
(0.0387478 5.61186e-05 0)
(0.0383149 5.2507e-05 0)
(0.0379087 4.82599e-05 0)
(0.0375169 4.68336e-05 0)
(0.0371401 4.58664e-05 0)
(0.0367875 4.04848e-05 0)
(0.0364518 3.88517e-05 0)
(0.036134 3.71176e-05 0)
(0.0358342 3.31938e-05 0)
(0.0355535 3.14186e-05 0)
(0.0352871 3.00868e-05 0)
(0.0350359 2.77209e-05 0)
(0.0348049 2.48098e-05 0)
(0.03459 2.31288e-05 0)
(0.0343886 2.20335e-05 0)
(0.0342083 1.82906e-05 0)
(0.0340422 1.72652e-05 0)
(0.0338918 1.57062e-05 0)
(0.0337549 1.38875e-05 0)
(0.0336348 1.18525e-05 0)
(0.0335293 1.03389e-05 0)
(0.0334326 1.01291e-05 0)
(0.0333564 6.9196e-06 0)
(0.0332856 6.58162e-06 0)
(0.0332414 3.96261e-06 0)
(0.0331845 5.78511e-06 0)
(0.0331671 6.31231e-07 0)
(0.0331211 4.08221e-06 0)
(0.0331271 -1.59375e-06 0)
(0.0330906 4.42398e-06 0)
(0.191375 0.0110229 0)
(0.193661 0.0136706 0)
(0.19453 0.0138852 0)
(0.191856 0.0113056 0)
(0.186068 0.00983251 0)
(0.178607 0.00813477 0)
(0.170348 0.00614839 0)
(0.16204 0.00472547 0)
(0.154318 0.00373726 0)
(0.14739 0.00304428 0)
(0.141189 0.00260715 0)
(0.135565 0.00224117 0)
(0.130373 0.00195627 0)
(0.125614 0.00172473 0)
(0.121273 0.0015269 0)
(0.117267 0.00137392 0)
(0.113562 0.00123408 0)
(0.110148 0.0011106 0)
(0.106988 0.00101194 0)
(0.104058 0.000923245 0)
(0.10132 0.00085569 0)
(0.098735 0.000801347 0)
(0.0963048 0.000737425 0)
(0.0940455 0.000669541 0)
(0.091935 0.000619077 0)
(0.0899293 0.000587515 0)
(0.0880242 0.00054968 0)
(0.0862258 0.000508091 0)
(0.0845246 0.000477395 0)
(0.0829084 0.000450301 0)
(0.0813716 0.000421618 0)
(0.0799084 0.000397607 0)
(0.0785184 0.000372798 0)
(0.0771896 0.000351288 0)
(0.0759224 0.000332742 0)
(0.074715 0.000313737 0)
(0.0735604 0.000296405 0)
(0.0724574 0.00028072 0)
(0.0714065 0.000263459 0)
(0.070403 0.000248321 0)
(0.0694396 0.000236912 0)
(0.0685179 0.000223815 0)
(0.0676342 0.000212655 0)
(0.0667923 0.000200517 0)
(0.0659811 0.000191116 0)
(0.0652112 0.000178735 0)
(0.0644769 0.000167917 0)
(0.063783 0.000156321 0)
(0.0631149 0.000150079 0)
(0.0624752 0.000143845 0)
(0.0618742 0.000130582 0)
(0.0612984 0.000124521 0)
(0.0607554 0.000117499 0)
(0.0602414 0.000107389 0)
(0.0597565 0.000101041 0)
(0.0592992 9.53171e-05 0)
(0.0588678 8.7929e-05 0)
(0.0584681 7.96929e-05 0)
(0.0580959 7.38509e-05 0)
(0.0577481 6.87827e-05 0)
(0.0574338 5.93157e-05 0)
(0.0571425 5.51031e-05 0)
(0.0568794 4.9469e-05 0)
(0.0566393 4.38712e-05 0)
(0.0564262 3.78618e-05 0)
(0.0562382 3.3039e-05 0)
(0.0560676 3.03234e-05 0)
(0.055929 2.25809e-05 0)
(0.0558005 2.03034e-05 0)
(0.0557129 1.37309e-05 0)
(0.0556117 1.60022e-05 0)
(0.0555665 5.54375e-06 0)
(0.0554814 1.10657e-05 0)
(0.0554776 -6.11026e-07 0)
(0.0554011 1.10868e-05 0)
(0.191977 0.00997185 0)
(0.194115 0.01179 0)
(0.196966 0.0123788 0)
(0.199435 0.0143421 0)
(0.200194 0.00828057 0)
(0.19831 0.00832425 0)
(0.194932 0.00748535 0)
(0.190702 0.00668621 0)
(0.186102 0.00577671 0)
(0.181472 0.00491974 0)
(0.176968 0.00433866 0)
(0.17254 0.00385919 0)
(0.1681 0.0034837 0)
(0.16374 0.00314278 0)
(0.159579 0.00283328 0)
(0.155597 0.00259116 0)
(0.151758 0.00236051 0)
(0.148072 0.00214711 0)
(0.144549 0.00196914 0)
(0.141212 0.00180629 0)
(0.138044 0.00167972 0)
(0.135 0.00157628 0)
(0.13208 0.00145819 0)
(0.129321 0.00133451 0)
(0.126724 0.00123985 0)
(0.12424 0.00117629 0)
(0.121851 0.00110368 0)
(0.119563 0.00102588 0)
(0.117377 0.00096503 0)
(0.11529 0.000910468 0)
(0.113297 0.000854974 0)
(0.111389 0.000807603 0)
(0.109565 0.000759866 0)
(0.107812 0.000717754 0)
(0.106129 0.000679885 0)
(0.104516 0.000641961 0)
(0.102965 0.000607304 0)
(0.10148 0.000575295 0)
(0.100062 0.000541692 0)
(0.0987025 0.000512236 0)
(0.0973924 0.000488451 0)
(0.0961339 0.000462044 0)
(0.0949231 0.000438877 0)
(0.093766 0.000414681 0)
(0.0926499 0.000394935 0)
(0.091586 0.000370591 0)
(0.0905675 0.000349097 0)
(0.0895993 0.000326705 0)
(0.0886664 0.000312492 0)
(0.0877712 0.000297956 0)
(0.0869269 0.000273511 0)
(0.0861156 0.000260251 0)
(0.0853484 0.000245024 0)
(0.0846206 0.00022592 0)
(0.0839294 0.000212346 0)
(0.0832772 0.000199528 0)
(0.0826603 0.00018458 0)
(0.0820845 0.000168366 0)
(0.0815465 0.000155884 0)
(0.0810422 0.000144504 0)
(0.0805819 0.000126794 0)
(0.080153 0.000117196 0)
(0.0797633 0.000105227 0)
(0.0794055 9.37778e-05 0)
(0.0790837 8.16707e-05 0)
(0.0787969 7.15559e-05 0)
(0.0785355 6.45721e-05 0)
(0.0783156 5.04734e-05 0)
(0.0781123 4.45314e-05 0)
(0.0779607 3.2588e-05 0)
(0.0777991 3.4048e-05 0)
(0.077704 1.63316e-05 0)
(0.0775705 2.62884e-05 0)
(0.0775311 4.5833e-06 0)
(0.0773936 2.15649e-05 0)
(0.19294 0.00955841 0)
(0.194618 0.0104414 0)
(0.196842 0.0133749 0)
(0.19977 0.00923902 0)
(0.201734 0.0126322 0)
(0.202515 0.00848388 0)
(0.201991 0.0078806 0)
(0.200793 0.00714595 0)
(0.198974 0.00636757 0)
(0.196847 0.00570923 0)
(0.19469 0.00527671 0)
(0.192408 0.00487172 0)
(0.189829 0.0045647 0)
(0.18702 0.00422773 0)
(0.184167 0.00388248 0)
(0.181328 0.00362274 0)
(0.178457 0.00337572 0)
(0.175542 0.00313823 0)
(0.172602 0.00292578 0)
(0.169708 0.00271531 0)
(0.166892 0.00255026 0)
(0.164112 0.00241787 0)
(0.161346 0.00226097 0)
(0.158647 0.00208679 0)
(0.15607 0.00194847 0)
(0.15359 0.00185727 0)
(0.151168 0.00175683 0)
(0.14879 0.00164726 0)
(0.146466 0.00155658 0)
(0.144216 0.00147224 0)
(0.142046 0.00138745 0)
(0.139951 0.00131499 0)
(0.137931 0.00124237 0)
(0.135976 0.00117828 0)
(0.13408 0.00112013 0)
(0.13224 0.00106159 0)
(0.130448 0.00100694 0)
(0.128719 0.000954989 0)
(0.127063 0.000901289 0)
(0.125473 0.000854891 0)
(0.123931 0.000816879 0)
(0.122439 0.000774954 0)
(0.120991 0.000737233 0)
(0.119599 0.00069805 0)
(0.118252 0.000665336 0)
(0.116963 0.000626426 0)
(0.115723 0.00059192 0)
(0.114537 0.000556303 0)
(0.113388 0.000531822 0)
(0.112279 0.000506753 0)
(0.111228 0.000468218 0)
(0.110215 0.000445554 0)
(0.109252 0.000419717 0)
(0.108336 0.000389233 0)
(0.10746 0.000366377 0)
(0.10663 0.000344127 0)
(0.105841 0.000319469 0)
(0.105099 0.000293014 0)
(0.104402 0.000271722 0)
(0.103745 0.000252039 0)
(0.103139 0.000223777 0)
(0.10257 0.000206828 0)
(0.102049 0.000186442 0)
(0.101566 0.000167242 0)
(0.101126 0.000147073 0)
(0.10073 0.000129772 0)
(0.100364 0.000116923 0)
(0.100047 9.46964e-05 0)
(0.099753 8.33695e-05 0)
(0.099518 6.47028e-05 0)
(0.0992783 6.36538e-05 0)
(0.0991126 3.84932e-05 0)
(0.0989087 4.7617e-05 0)
(0.0988221 2.04576e-05 0)
(0.098595 3.92693e-05 0)
(0.193836 0.00919446 0)
(0.195081 0.0101904 0)
(0.197056 0.0118174 0)
(0.199614 0.0104014 0)
(0.201473 0.010454 0)
(0.202471 0.00894477 0)
(0.203009 0.00758582 0)
(0.202921 0.00740533 0)
(0.202308 0.00698105 0)
(0.201573 0.00628471 0)
(0.200945 0.00572545 0)
(0.20023 0.00530536 0)
(0.199211 0.00508833 0)
(0.197873 0.00483206 0)
(0.19641 0.00451313 0)
(0.194913 0.0042705 0)
(0.193332 0.00404115 0)
(0.191617 0.00383156 0)
(0.189748 0.00363784 0)
(0.187802 0.00342014 0)
(0.185852 0.00324955 0)
(0.183868 0.00312306 0)
(0.181792 0.0029662 0)
(0.179658 0.00276952 0)
(0.177562 0.00259906 0)
(0.175536 0.00248915 0)
(0.173539 0.00237737 0)
(0.171523 0.00225689 0)
(0.169484 0.0021531 0)
(0.16745 0.0020487 0)
(0.16545 0.00194027 0)
(0.16349 0.00184763 0)
(0.161577 0.00175358 0)
(0.159709 0.00167057 0)
(0.157887 0.00159742 0)
(0.156088 0.00152468 0)
(0.154297 0.00145447 0)
(0.152532 0.00138356 0)
(0.150829 0.0013083 0)
(0.149191 0.00124409 0)
(0.147599 0.00119253 0)
(0.146044 0.00113655 0)
(0.144516 0.00108564 0)
(0.143027 0.00103121 0)
(0.141575 0.000984396 0)
(0.140179 0.000929707 0)
(0.138831 0.000881564 0)
(0.137532 0.000832276 0)
(0.136267 0.000797262 0)
(0.135031 0.000761291 0)
(0.133847 0.000706852 0)
(0.132702 0.000673399 0)
(0.13161 0.000635524 0)
(0.130565 0.00059226 0)
(0.129559 0.000559201 0)
(0.128598 0.0005261 0)
(0.127679 0.000490311 0)
(0.126808 0.000452091 0)
(0.125985 0.000420522 0)
(0.125203 0.000391288 0)
(0.124473 0.000350791 0)
(0.123784 0.000325083 0)
(0.123145 0.000294654 0)
(0.122547 0.00026623 0)
(0.121996 0.000236429 0)
(0.121492 0.000210384 0)
(0.121024 0.000190482 0)
(0.120606 0.000158659 0)
(0.120216 0.000140414 0)
(0.119888 0.000113899 0)
(0.11956 0.000108837 0)
(0.11931 7.55209e-05 0)
(0.119022 8.19608e-05 0)
(0.118877 5.01177e-05 0)
(0.118537 6.68007e-05 0)
(0.194463 0.00897022 0)
(0.195622 0.00952871 0)
(0.19737 0.0106195 0)
(0.199506 0.0107951 0)
(0.201143 0.00877231 0)
(0.202059 0.00892838 0)
(0.202853 0.00765401 0)
(0.202888 0.00742894 0)
(0.202657 0.00674779 0)
(0.202506 0.00608412 0)
(0.202488 0.00570561 0)
(0.202409 0.00541985 0)
(0.202131 0.00529075 0)
(0.201606 0.00505964 0)
(0.201009 0.00476725 0)
(0.200426 0.00455455 0)
(0.199798 0.00435455 0)
(0.19906 0.0041909 0)
(0.198149 0.00403634 0)
(0.197116 0.00383312 0)
(0.196059 0.00367735 0)
(0.194956 0.00357633 0)
(0.193717 0.00345183 0)
(0.192337 0.00326863 0)
(0.19092 0.00308565 0)
(0.189548 0.00296337 0)
(0.188202 0.0028498 0)
(0.186815 0.00273819 0)
(0.185351 0.0026449 0)
(0.183823 0.00254075 0)
(0.182269 0.00242339 0)
(0.180711 0.00232212 0)
(0.179157 0.00221492 0)
(0.177621 0.00211744 0)
(0.176121 0.00203519 0)
(0.17463 0.00195974 0)
(0.173101 0.00188735 0)
(0.171539 0.00180705 0)
(0.169994 0.0017135 0)
(0.168499 0.00163236 0)
(0.167048 0.00156908 0)
(0.165628 0.00150275 0)
(0.164214 0.00144442 0)
(0.162806 0.00137985 0)
(0.161407 0.00132116 0)
(0.160048 0.0012511 0)
(0.158733 0.0011899 0)
(0.157463 0.00112816 0)
(0.156218 0.00108502 0)
(0.154983 0.00104128 0)
(0.153778 0.000971781 0)
(0.152603 0.000927418 0)
(0.151476 0.000877171 0)
(0.150395 0.00082097 0)
(0.149347 0.000778465 0)
(0.148335 0.00073484 0)
(0.147357 0.000687857 0)
(0.146421 0.000637444 0)
(0.145531 0.000595099 0)
(0.14468 0.000556147 0)
(0.143877 0.000502914 0)
(0.143111 0.00046815 0)
(0.142392 0.000426993 0)
(0.141712 0.000388654 0)
(0.141077 0.000348288 0)
(0.140491 0.000312533 0)
(0.13994 0.000285067 0)
(0.139438 0.000242919 0)
(0.138965 0.000216608 0)
(0.138553 0.000181918 0)
(0.138144 0.000171383 0)
(0.137811 0.000130118 0)
(0.137438 0.000131043 0)
(0.137233 9.65465e-05 0)
(0.136773 0.000106755 0)
(0.194839 0.00828214 0)
(0.19611 0.00930918 0)
(0.19769 0.00994738 0)
(0.199518 0.00982976 0)
(0.200914 0.00901702 0)
(0.20167 0.00844323 0)
(0.202477 0.00746833 0)
(0.202656 0.00729585 0)
(0.202581 0.00668921 0)
(0.202579 0.0062784 0)
(0.202645 0.00578711 0)
(0.20273 0.00535089 0)
(0.202676 0.00536444 0)
(0.202471 0.0051508 0)
(0.202268 0.00484611 0)
(0.202105 0.00461395 0)
(0.201929 0.00443029 0)
(0.201706 0.00432736 0)
(0.20136 0.0042148 0)
(0.200919 0.0040198 0)
(0.200477 0.00387921 0)
(0.200013 0.00380485 0)
(0.199423 0.00372174 0)
(0.198673 0.00356935 0)
(0.197854 0.00338823 0)
(0.197069 0.00325508 0)
(0.196326 0.00313879 0)
(0.195557 0.00304237 0)
(0.194705 0.00297315 0)
(0.193756 0.00288629 0)
(0.192744 0.00277543 0)
(0.191695 0.00267942 0)
(0.190613 0.00257088 0)
(0.189518 0.00246398 0)
(0.188456 0.00237351 0)
(0.187413 0.00230188 0)
(0.186315 0.00224168 0)
(0.185134 0.00216882 0)
(0.183912 0.00206773 0)
(0.182702 0.00197282 0)
(0.18153 0.00189891 0)
(0.180392 0.00182553 0)
(0.179254 0.0017663 0)
(0.178094 0.00170071 0)
(0.176903 0.00163756 0)
(0.175719 0.0015557 0)
(0.174564 0.00148295 0)
(0.173452 0.0014098 0)
(0.172364 0.0013614 0)
(0.17127 0.00131608 0)
(0.170175 0.00123687 0)
(0.169083 0.00118406 0)
(0.168026 0.00112232 0)
(0.16701 0.00105376 0)
(0.166023 0.00100375 0)
(0.165059 0.000951954 0)
(0.164115 0.000895812 0)
(0.163198 0.000834473 0)
(0.162317 0.00078199 0)
(0.16147 0.000734068 0)
(0.160665 0.00066877 0)
(0.159888 0.000626039 0)
(0.15915 0.000575019 0)
(0.158442 0.000527459 0)
(0.157771 0.000476512 0)
(0.157144 0.000430768 0)
(0.156552 0.000395884 0)
(0.156002 0.000343652 0)
(0.15548 0.000308728 0)
(0.155014 0.00026672 0)
(0.154547 0.000249714 0)
(0.154151 0.000201849 0)
(0.153711 0.000193972 0)
(0.153458 0.0001599 0)
(0.152894 0.000159806 0)
(0.195246 0.00774258 0)
(0.196547 0.00851095 0)
(0.197964 0.00918953 0)
(0.199542 0.00931484 0)
(0.200697 0.00900032 0)
(0.201317 0.00796895 0)
(0.202169 0.00747156 0)
(0.202452 0.00715721 0)
(0.202411 0.0068354 0)
(0.202479 0.0062257 0)
(0.20259 0.00566309 0)
(0.202702 0.00536515 0)
(0.202669 0.00539794 0)
(0.202572 0.00518128 0)
(0.202533 0.00483518 0)
(0.202477 0.00467041 0)
(0.202412 0.00445467 0)
(0.202363 0.00436187 0)
(0.202248 0.00429244 0)
(0.202094 0.00409769 0)
(0.201975 0.00394204 0)
(0.201849 0.00387756 0)
(0.201616 0.00384463 0)
(0.201244 0.00372678 0)
(0.200813 0.00355085 0)
(0.200421 0.00340451 0)
(0.200085 0.00328122 0)
(0.199749 0.00319633 0)
(0.199351 0.00314953 0)
(0.198862 0.00308539 0)
(0.198306 0.00298877 0)
(0.197713 0.00290577 0)
(0.197069 0.00280563 0)
(0.196383 0.0026959 0)
(0.195728 0.00259577 0)
(0.195115 0.00252556 0)
(0.194464 0.00248279 0)
(0.193713 0.00243082 0)
(0.192878 0.00233753 0)
(0.192015 0.00223754 0)
(0.19117 0.00215205 0)
(0.190364 0.00207109 0)
(0.189571 0.00201502 0)
(0.188749 0.00195681 0)
(0.187867 0.00189929 0)
(0.186953 0.00181327 0)
(0.186041 0.00173208 0)
(0.185164 0.00164777 0)
(0.184321 0.0015948 0)
(0.183472 0.00155327 0)
(0.182595 0.00147271 0)
(0.181688 0.00141745 0)
(0.18079 0.00134731 0)
(0.179923 0.0012675 0)
(0.179082 0.00121169 0)
(0.178259 0.00115492 0)
(0.177439 0.00109348 0)
(0.176626 0.00102452 0)
(0.175833 0.000964126 0)
(0.175062 0.000908882 0)
(0.174325 0.000832807 0)
(0.173611 0.000783824 0)
(0.172924 0.00072512 0)
(0.172254 0.000670906 0)
(0.171606 0.000610899 0)
(0.170992 0.000555859 0)
(0.170407 0.000514213 0)
(0.169858 0.000452743 0)
(0.169334 0.000409144 0)
(0.168859 0.000361853 0)
(0.168377 0.000338327 0)
(0.167953 0.000286171 0)
(0.16748 0.000267227 0)
(0.167203 0.000236536 0)
(0.166575 0.000223838 0)
(0.195846 0.00748872 0)
(0.196981 0.00794199 0)
(0.198091 0.00886477 0)
(0.199461 0.00888885 0)
(0.200496 0.00847972 0)
(0.201008 0.00806684 0)
(0.202012 0.00718433 0)
(0.202303 0.00692978 0)
(0.2022 0.00674964 0)
(0.202315 0.00624247 0)
(0.202489 0.00570401 0)
(0.202616 0.00536762 0)
(0.202591 0.00542608 0)
(0.202559 0.00515783 0)
(0.202576 0.00491755 0)
(0.202513 0.00468439 0)
(0.20244 0.00446932 0)
(0.202409 0.00438666 0)
(0.202358 0.00428745 0)
(0.202327 0.00408465 0)
(0.202354 0.00397446 0)
(0.202361 0.003909 0)
(0.202265 0.0038919 0)
(0.202057 0.00380927 0)
(0.201829 0.00363487 0)
(0.201651 0.00346389 0)
(0.201527 0.00333074 0)
(0.201413 0.00325877 0)
(0.201263 0.00322863 0)
(0.201046 0.00318007 0)
(0.20078 0.00309552 0)
(0.200499 0.00302764 0)
(0.200171 0.00293977 0)
(0.199787 0.00282939 0)
(0.199425 0.00271949 0)
(0.199125 0.00264584 0)
(0.198817 0.00261773 0)
(0.19842 0.00259124 0)
(0.19793 0.00251322 0)
(0.197388 0.0024199 0)
(0.196844 0.0023263 0)
(0.196335 0.00223257 0)
(0.195859 0.00217755 0)
(0.195364 0.00213107 0)
(0.194803 0.00208672 0)
(0.194183 0.00200661 0)
(0.193539 0.00192282 0)
(0.192913 0.00182675 0)
(0.192331 0.00176701 0)
(0.191759 0.00173117 0)
(0.191151 0.00165685 0)
(0.190486 0.00160661 0)
(0.189801 0.00153339 0)
(0.189129 0.00144451 0)
(0.18848 0.00138362 0)
(0.18785 0.001324 0)
(0.187216 0.00126161 0)
(0.186572 0.00118967 0)
(0.185926 0.00112486 0)
(0.185286 0.00106492 0)
(0.184671 0.000980015 0)
(0.184074 0.000926331 0)
(0.183497 0.000862145 0)
(0.182926 0.000804784 0)
(0.182358 0.000738858 0)
(0.181809 0.000676715 0)
(0.181279 0.000629855 0)
(0.180775 0.000560239 0)
(0.180295 0.000507775 0)
(0.179859 0.000457731 0)
(0.17941 0.000428713 0)
(0.179001 0.000375106 0)
(0.178539 0.000344693 0)
(0.178266 0.000319533 0)
(0.177631 0.000294105 0)
(0.196361 0.00715859 0)
(0.197272 0.00762606 0)
(0.198165 0.00836856 0)
(0.199362 0.00817438 0)
(0.200334 0.00915148 0)
(0.200943 0.00653616 0)
(0.201577 0.00832775 0)
(0.20218 0.00681545 0)
(0.202171 0.00644958 0)
(0.202223 0.00599423 0)
(0.202346 0.00558982 0)
(0.202504 0.00532055 0)
(0.202519 0.00537486 0)
(0.202526 0.0051607 0)
(0.202544 0.00492187 0)
(0.202468 0.00470418 0)
(0.202374 0.00446609 0)
(0.202336 0.00441871 0)
(0.202309 0.00428754 0)
(0.202331 0.00408726 0)
(0.202422 0.00394956 0)
(0.202448 0.00392312 0)
(0.20236 0.00393479 0)
(0.202217 0.003852 0)
(0.202098 0.00367015 0)
(0.202027 0.0034836 0)
(0.201985 0.00334277 0)
(0.201948 0.00327865 0)
(0.201894 0.00326233 0)
(0.201797 0.00322532 0)
(0.201674 0.00314161 0)
(0.201561 0.00308165 0)
(0.20142 0.00301042 0)
(0.201221 0.00290061 0)
(0.201034 0.00277607 0)
(0.200914 0.0026964 0)
(0.200807 0.00267498 0)
(0.200632 0.00267564 0)
(0.20038 0.00261403 0)
(0.20008 0.00252861 0)
(0.199766 0.00243294 0)
(0.199479 0.00232752 0)
(0.199232 0.0022671 0)
(0.198984 0.00223114 0)
(0.198678 0.00220055 0)
(0.198312 0.00213247 0)
(0.197905 0.00205457 0)
(0.1975 0.00194834 0)
(0.197141 0.0018777 0)
(0.196811 0.00184486 0)
(0.196452 0.00178077 0)
(0.196028 0.00174205 0)
(0.195562 0.00167207 0)
(0.195089 0.00157726 0)
(0.194634 0.00151121 0)
(0.194201 0.00144842 0)
(0.193768 0.00138779 0)
(0.193317 0.00131808 0)
(0.192846 0.00125319 0)
(0.192365 0.00119122 0)
(0.191893 0.00109968 0)
(0.191438 0.00104253 0)
(0.191002 0.000974597 0)
(0.190565 0.000917246 0)
(0.190117 0.000848812 0)
(0.189671 0.000782776 0)
(0.189231 0.000733425 0)
(0.188803 0.000657298 0)
(0.1884 0.000595447 0)
(0.188038 0.00054457 0)
(0.18766 0.000511883 0)
(0.187305 0.000459344 0)
(0.186893 0.000419036 0)
(0.186654 0.000400472 0)
(0.186067 0.000364375 0)
(0.196774 0.00684594 0)
(0.197499 0.00731662 0)
(0.198271 0.00786949 0)
(0.199273 0.00792153 0)
(0.20025 0.00852472 0)
(0.200874 0.00696299 0)
(0.201316 0.00720537 0)
(0.201967 0.00685567 0)
(0.202117 0.00652067 0)
(0.2021 0.00610267 0)
(0.202194 0.00559526 0)
(0.202383 0.00533222 0)
(0.202461 0.00547598 0)
(0.2025 0.00510768 0)
(0.202497 0.00493134 0)
(0.202392 0.00472333 0)
(0.202268 0.00447834 0)
(0.202238 0.00443624 0)
(0.202239 0.00430158 0)
(0.202307 0.00404047 0)
(0.20243 0.00394447 0)
(0.202433 0.00388084 0)
(0.202318 0.00403796 0)
(0.202211 0.00388044 0)
(0.202149 0.00368087 0)
(0.202112 0.00349897 0)
(0.202096 0.00335708 0)
(0.202075 0.00328721 0)
(0.202044 0.00327536 0)
(0.201985 0.00324741 0)
(0.201913 0.00316239 0)
(0.201869 0.00310838 0)
(0.201819 0.00304244 0)
(0.201722 0.00294121 0)
(0.201633 0.002807 0)
(0.201595 0.00270806 0)
(0.201573 0.00268919 0)
(0.201499 0.00270937 0)
(0.201375 0.00266875 0)
(0.201229 0.00259204 0)
(0.20107 0.00248773 0)
(0.200925 0.00237352 0)
(0.200815 0.00230807 0)
(0.200712 0.00228138 0)
(0.200566 0.00226195 0)
(0.200374 0.00220363 0)
(0.200146 0.00213467 0)
(0.199908 0.00202197 0)
(0.199709 0.00193945 0)
(0.199551 0.00190609 0)
(0.199377 0.00185123 0)
(0.199145 0.00182543 0)
(0.198862 0.00176435 0)
(0.198561 0.00166833 0)
(0.198269 0.00159773 0)
(0.198001 0.00152966 0)
(0.197741 0.00146944 0)
(0.197465 0.00140507 0)
(0.197162 0.0013456 0)
(0.196835 0.00128482 0)
(0.196504 0.00118856 0)
(0.196183 0.00112801 0)
(0.195883 0.00105678 0)
(0.195584 0.00100202 0)
(0.195269 0.000934141 0)
(0.194943 0.000867379 0)
(0.194609 0.000818681 0)
(0.19427 0.000737989 0)
(0.193953 0.000666399 0)
(0.193681 0.000615332 0)
(0.193394 0.000581055 0)
(0.193115 0.000531194 0)
(0.19278 0.000483778 0)
(0.192593 0.00047173 0)
(0.192096 0.000428648 0)
(0.197106 0.00665263 0)
(0.197687 0.00691287 0)
(0.198341 0.00762266 0)
(0.19924 0.00746215 0)
(0.200185 0.00834007 0)
(0.20079 0.00678426 0)
(0.201195 0.00683339 0)
(0.201848 0.00685379 0)
(0.201902 0.00646313 0)
(0.201888 0.00601647 0)
(0.202063 0.00552934 0)
(0.202328 0.00535069 0)
(0.202409 0.00528871 0)
(0.202446 0.00513326 0)
(0.202438 0.00497796 0)
(0.202309 0.00477136 0)
(0.202165 0.00449658 0)
(0.202152 0.00446263 0)
(0.202195 0.00425477 0)
(0.202298 0.00401423 0)
(0.2024 0.00392782 0)
(0.202376 0.0039201 0)
(0.202272 0.00396701 0)
(0.202192 0.00392429 0)
(0.202127 0.00375567 0)
(0.202092 0.0034956 0)
(0.202097 0.00335617 0)
(0.202082 0.00330333 0)
(0.202054 0.00327691 0)
(0.201996 0.00327292 0)
(0.201935 0.00318125 0)
(0.201913 0.00310284 0)
(0.201898 0.00305569 0)
(0.20186 0.00296188 0)
(0.201829 0.00280041 0)
(0.201813 0.00271708 0)
(0.201803 0.00270837 0)
(0.20176 0.00271488 0)
(0.201692 0.00268472 0)
(0.201629 0.0026265 0)
(0.201564 0.00252358 0)
(0.201503 0.00239414 0)
(0.201463 0.00231889 0)
(0.201422 0.00229914 0)
(0.201348 0.00229305 0)
(0.201253 0.00224316 0)
(0.201144 0.00218054 0)
(0.201021 0.00206146 0)
(0.200923 0.00196578 0)
(0.200863 0.00193092 0)
(0.200797 0.0018863 0)
(0.200687 0.0018702 0)
(0.200535 0.00181703 0)
(0.200363 0.00172331 0)
(0.20019 0.00165127 0)
(0.200037 0.00157889 0)
(0.199899 0.00151628 0)
(0.199755 0.00145449 0)
(0.199586 0.00140323 0)
(0.199388 0.00134782 0)
(0.199173 0.00125009 0)
(0.198962 0.00118654 0)
(0.198771 0.00111048 0)
(0.198586 0.00105825 0)
(0.198386 0.000993042 0)
(0.198173 0.000928787 0)
(0.197943 0.000884497 0)
(0.197691 0.000800704 0)
(0.197455 0.000719262 0)
(0.197267 0.000667511 0)
(0.197069 0.000633107 0)
(0.19687 0.00058659 0)
(0.196619 0.000535182 0)
(0.196488 0.000528395 0)
(0.196102 0.000482654 0)
(0.197409 0.00631853 0)
(0.197872 0.00655753 0)
(0.198405 0.00732245 0)
(0.199226 0.00699899 0)
(0.200141 0.00813704 0)
(0.200677 0.00657551 0)
(0.201152 0.00670789 0)
(0.201731 0.00651232 0)
(0.201656 0.00646509 0)
(0.201687 0.00607711 0)
(0.201989 0.00542784 0)
(0.202294 0.00530176 0)
(0.202328 0.00528275 0)
(0.202358 0.00515316 0)
(0.202341 0.00500492 0)
(0.202215 0.00482749 0)
(0.202093 0.00451584 0)
(0.202095 0.00446038 0)
(0.202178 0.00421432 0)
(0.202295 0.00398637 0)
(0.202344 0.00391389 0)
(0.202296 0.00395436 0)
(0.202222 0.00402016 0)
(0.202169 0.00395821 0)
(0.202088 0.00374415 0)
(0.202047 0.00345443 0)
(0.202057 0.00337681 0)
(0.202056 0.00331203 0)
(0.202028 0.00332113 0)
(0.201962 0.00327076 0)
(0.201911 0.00316914 0)
(0.201898 0.00312355 0)
(0.201888 0.00307031 0)
(0.201883 0.00294714 0)
(0.201878 0.00282912 0)
(0.201862 0.00270565 0)
(0.201833 0.00271002 0)
(0.201785 0.00278576 0)
(0.201752 0.00268957 0)
(0.201738 0.00260427 0)
(0.201716 0.00251761 0)
(0.201696 0.00241376 0)
(0.201687 0.002338 0)
(0.201666 0.00230741 0)
(0.201611 0.00229473 0)
(0.201556 0.00226221 0)
(0.201515 0.00220772 0)
(0.201468 0.00208081 0)
(0.20143 0.00197579 0)
(0.201411 0.0019349 0)
(0.201391 0.00189967 0)
(0.20134 0.0018924 0)
(0.201267 0.00184771 0)
(0.201183 0.00175344 0)
(0.201091 0.00167713 0)
(0.201007 0.00160375 0)
(0.200938 0.00154196 0)
(0.200875 0.00148031 0)
(0.200797 0.00143418 0)
(0.200691 0.00138521 0)
(0.200564 0.00128881 0)
(0.200431 0.00122398 0)
(0.200313 0.00114448 0)
(0.200205 0.00109246 0)
(0.200089 0.00102809 0)
(0.199966 0.000967419 0)
(0.199822 0.000932451 0)
(0.199643 0.000847911 0)
(0.199472 0.000756632 0)
(0.199349 0.000703257 0)
(0.199224 0.000669021 0)
(0.199091 0.000625312 0)
(0.198917 0.000572885 0)
(0.198835 0.000569184 0)
(0.198557 0.000524627 0)
(0.197665 0.00607829 0)
(0.198052 0.00646522 0)
(0.198491 0.00694128 0)
(0.199239 0.00672882 0)
(0.200082 0.00787006 0)
(0.200611 0.00646434 0)
(0.20102 0.00599246 0)
(0.20146 0.00812732 0)
(0.201615 0.00563459 0)
(0.20164 0.00560678 0)
(0.201931 0.00530399 0)
(0.2022 0.0052147 0)
(0.202213 0.00523392 0)
(0.202232 0.00515742 0)
(0.202216 0.00503254 0)
(0.202116 0.00484026 0)
(0.202036 0.00454705 0)
(0.202059 0.00445339 0)
(0.202171 0.00415175 0)
(0.202275 0.00396452 0)
(0.202279 0.00393894 0)
(0.202216 0.0039577 0)
(0.20216 0.00405963 0)
(0.202118 0.00397061 0)
(0.202048 0.00377187 0)
(0.202011 0.00344823 0)
(0.202007 0.00337395 0)
(0.202006 0.00332612 0)
(0.201978 0.00330448 0)
(0.201928 0.00328032 0)
(0.201888 0.00321245 0)
(0.201864 0.0031211 0)
(0.201861 0.00305387 0)
(0.201872 0.00296015 0)
(0.201875 0.00281294 0)
(0.201852 0.002759 0)
(0.201803 0.00272401 0)
(0.201756 0.00272887 0)
(0.201749 0.00267337 0)
(0.201746 0.00268413 0)
(0.20174 0.0025188 0)
(0.20174 0.00239946 0)
(0.201743 0.00231553 0)
(0.201716 0.00236648 0)
(0.201658 0.00232663 0)
(0.201629 0.00225353 0)
(0.201628 0.00219011 0)
(0.201619 0.00208584 0)
(0.201609 0.00197795 0)
(0.2016 0.00194033 0)
(0.201589 0.00191194 0)
(0.201563 0.00188864 0)
(0.20153 0.00186108 0)
(0.201499 0.00177755 0)
(0.201457 0.00169491 0)
(0.201411 0.00161124 0)
(0.201373 0.00155018 0)
(0.201347 0.00149139 0)
(0.20132 0.00144997 0)
(0.201273 0.00140491 0)
(0.201206 0.00131424 0)
(0.201126 0.00124451 0)
(0.201051 0.00116376 0)
(0.200984 0.00111464 0)
(0.200916 0.00104821 0)
(0.200854 0.000988024 0)
(0.200775 0.000963765 0)
(0.20065 0.000882352 0)
(0.200525 0.000782896 0)
(0.200447 0.000727136 0)
(0.200369 0.000692898 0)
(0.200284 0.000650221 0)
(0.200169 0.000599099 0)
(0.200124 0.000596008 0)
(0.199934 0.00055522 0)
(0.197858 0.00571835 0)
(0.198175 0.00642746 0)
(0.198593 0.00646514 0)
(0.199289 0.00657433 0)
(0.200034 0.00748918 0)
(0.200591 0.00621684 0)
(0.200825 0.006394 0)
(0.201176 0.0064778 0)
(0.201591 0.00649128 0)
(0.20175 0.0056053 0)
(0.201862 0.0052679 0)
(0.202028 0.00514989 0)
(0.202088 0.00525034 0)
(0.202097 0.00513566 0)
(0.202078 0.00505502 0)
(0.202021 0.00487507 0)
(0.201981 0.00455548 0)
(0.202022 0.0044113 0)
(0.202164 0.00411936 0)
(0.202234 0.00394136 0)
(0.20219 0.00397394 0)
(0.202144 0.00398741 0)
(0.20211 0.00397611 0)
(0.202032 0.0041836 0)
(0.201999 0.00365223 0)
(0.201992 0.00347771 0)
(0.201958 0.00338371 0)
(0.20194 0.00331236 0)
(0.201923 0.00331998 0)
(0.201895 0.00330452 0)
(0.201864 0.00322038 0)
(0.20183 0.0031256 0)
(0.201829 0.00306994 0)
(0.201852 0.00293301 0)
(0.201851 0.00284686 0)
(0.201812 0.00274805 0)
(0.201757 0.00270221 0)
(0.201729 0.00275916 0)
(0.201724 0.00273318 0)
(0.201719 0.00261504 0)
(0.201722 0.00252101 0)
(0.201733 0.00240743 0)
(0.201734 0.00235525 0)
(0.201704 0.0023255 0)
(0.201652 0.00227578 0)
(0.201636 0.00227697 0)
(0.201639 0.00223646 0)
(0.201644 0.0020779 0)
(0.201644 0.00199481 0)
(0.201643 0.00194574 0)
(0.201629 0.00190888 0)
(0.201603 0.0019439 0)
(0.201593 0.00184012 0)
(0.20159 0.00176619 0)
(0.201574 0.00170962 0)
(0.201547 0.00162309 0)
(0.201523 0.00155844 0)
(0.20151 0.00149153 0)
(0.201504 0.00145383 0)
(0.20149 0.00140856 0)
(0.20146 0.00132964 0)
(0.201413 0.00126317 0)
(0.201362 0.00117227 0)
(0.201312 0.00112735 0)
(0.201264 0.00105846 0)
(0.201236 0.00099999 0)
(0.201199 0.000984056 0)
(0.201112 0.000905516 0)
(0.201019 0.000801534 0)
(0.200966 0.000743435 0)
(0.200913 0.000709227 0)
(0.200857 0.000665349 0)