/*--------------------------------*- C++ -*----------------------------------*\
| =========                 |                                                 |
| \\      /  F ield         | OpenFOAM: The Open Source CFD Toolbox           |
|  \\    /   O peration     | Version:  2.3.0                                 |
|   \\  /    A nd           | Web:      www.OpenFOAM.org                      |
|    \\/     M anipulation  |                                                 |
\*---------------------------------------------------------------------------*/
FoamFile
{
    version     2.0;
    format      ascii;
    class       volVectorField;
    location    "0.55";
    object      U_0;
}
// * * * * * * * * * * * * * * * * * * * * * * * * * * * * * * * * * * * * * //

dimensions      [0 1 -1 0 0 0 0];

internalField   nonuniform List<vector> 
1500
(
(0.170766 0.00605149 0)
(0.154005 0.00612538 0)
(0.137879 0.00570329 0)
(0.122589 0.00509462 0)
(0.108558 0.00441773 0)
(0.0959659 0.00372761 0)
(0.0848323 0.00306307 0)
(0.0751291 0.0024516 0)
(0.066802 0.00191045 0)
(0.0597638 0.0014488 0)
(0.0538955 0.00106915 0)
(0.049056 0.000768209 0)
(0.0450954 0.000538217 0)
(0.041865 0.000368723 0)
(0.0392267 0.000248328 0)
(0.037058 0.000166044 0)
(0.0352551 0.000112129 0)
(0.0337339 7.84668e-05 0)
(0.0324281 5.86272e-05 0)
(0.0312873 4.77486e-05 0)
(0.0302742 4.23242e-05 0)
(0.0293616 3.99515e-05 0)
(0.0285301 3.90789e-05 0)
(0.0277657 3.87735e-05 0)
(0.0270583 3.85265e-05 0)
(0.0264004 3.8101e-05 0)
(0.0257865 3.74215e-05 0)
(0.0252119 3.64991e-05 0)
(0.024673 3.53837e-05 0)
(0.0241664 3.41365e-05 0)
(0.0236893 3.2815e-05 0)
(0.0232391 3.1467e-05 0)
(0.0228135 3.01287e-05 0)
(0.0224104 2.88254e-05 0)
(0.0220279 2.75733e-05 0)
(0.0216642 2.63819e-05 0)
(0.0213178 2.52552e-05 0)
(0.0209871 2.41941e-05 0)
(0.0206711 2.31968e-05 0)
(0.0203684 2.22602e-05 0)
(0.0200782 2.13807e-05 0)
(0.0197995 2.05539e-05 0)
(0.0195314 1.97757e-05 0)
(0.0192733 1.90419e-05 0)
(0.0190245 1.83486e-05 0)
(0.0187843 1.76923e-05 0)
(0.0185523 1.70698e-05 0)
(0.0183281 1.64779e-05 0)
(0.0181111 1.5914e-05 0)
(0.017901 1.53758e-05 0)
(0.0176974 1.4861e-05 0)
(0.0175 1.43676e-05 0)
(0.0173086 1.3894e-05 0)
(0.0171229 1.34384e-05 0)
(0.0169426 1.29995e-05 0)
(0.0167675 1.25759e-05 0)
(0.0165975 1.21664e-05 0)
(0.0164323 1.17701e-05 0)
(0.0162719 1.13857e-05 0)
(0.016116 1.10125e-05 0)
(0.0159646 1.06496e-05 0)
(0.0158175 1.02962e-05 0)
(0.0156746 9.95161e-06 0)
(0.0155359 9.61512e-06 0)
(0.0154012 9.28613e-06 0)
(0.0152705 8.9641e-06 0)
(0.0151438 8.64848e-06 0)
(0.0150209 8.3388e-06 0)
(0.0149018 8.03462e-06 0)
(0.0147866 7.73554e-06 0)
(0.0146751 7.4412e-06 0)
(0.0145674 7.15126e-06 0)
(0.0144633 6.86546e-06 0)
(0.014363 6.58354e-06 0)
(0.0142664 6.3053e-06 0)
(0.0141735 6.03058e-06 0)
(0.0140843 5.75927e-06 0)
(0.0139988 5.49131e-06 0)
(0.0139169 5.22667e-06 0)
(0.0138388 4.96539e-06 0)
(0.0137644 4.70759e-06 0)
(0.0136936 4.45344e-06 0)
(0.0136265 4.2032e-06 0)
(0.0135631 3.95728e-06 0)
(0.0135034 3.71622e-06 0)
(0.0134473 3.48081e-06 0)
(0.0133948 3.25212e-06 0)
(0.0133458 3.03145e-06 0)
(0.0133003 2.82042e-06 0)
(0.0132582 2.62083e-06 0)
(0.0132194 2.43452e-06 0)
(0.0131837 2.26336e-06 0)
(0.0131509 2.10908e-06 0)
(0.013121 1.97364e-06 0)
(0.0130936 1.86026e-06 0)
(0.0130684 1.77667e-06 0)
(0.013045 1.74332e-06 0)
(0.0130227 1.7933e-06 0)
(0.0130017 2.0186e-06 0)
(0.0129463 8.41822e-06 0)
(0.189995 0.00961355 0)
(0.187731 0.0101611 0)
(0.183892 0.00996892 0)
(0.178812 0.00949013 0)
(0.172971 0.00886316 0)
(0.166711 0.0081356 0)
(0.160248 0.00734729 0)
(0.15375 0.00653549 0)
(0.147351 0.00573205 0)
(0.141155 0.00496362 0)
(0.135231 0.00425144 0)
(0.129624 0.00361045 0)
(0.124355 0.00304893 0)
(0.119434 0.00256879 0)
(0.114854 0.00216677 0)
(0.110605 0.00183587 0)
(0.106669 0.00156689 0)
(0.103026 0.00134987 0)
(0.0996548 0.00117511 0)
(0.0965335 0.0010339 0)
(0.0936409 0.000918849 0)
(0.0909568 0.000823994 0)
(0.0884626 0.000744678 0)
(0.0861409 0.000677379 0)
(0.083976 0.000619484 0)
(0.0819534 0.000569078 0)
(0.0800604 0.00052476 0)
(0.0782851 0.000485496 0)
(0.0766171 0.000450509 0)
(0.0750468 0.000419198 0)
(0.0735656 0.000391085 0)
(0.072166 0.000365775 0)
(0.0708409 0.000342934 0)
(0.069584 0.000322276 0)
(0.0683898 0.000303549 0)
(0.0672531 0.000286531 0)
(0.0661694 0.000271026 0)
(0.0651345 0.000256861 0)
(0.0641447 0.000243883 0)
(0.0631967 0.000231958 0)
(0.0622875 0.000220966 0)
(0.0614142 0.000210804 0)
(0.0605745 0.000201381 0)
(0.0597662 0.000192617 0)
(0.0589872 0.000184443 0)
(0.0582357 0.000176798 0)
(0.05751 0.000169628 0)
(0.0568087 0.000162886 0)
(0.0561304 0.000156532 0)
(0.0554739 0.000150527 0)
(0.054838 0.000144841 0)
(0.0542218 0.000139444 0)
(0.0536243 0.000134311 0)
(0.0530446 0.000129418 0)
(0.0524821 0.000124745 0)
(0.051936 0.000120272 0)
(0.0514056 0.000115984 0)
(0.0508904 0.000111865 0)
(0.05039 0.0001079 0)
(0.0499037 0.000104076 0)
(0.0494313 0.000100383 0)
(0.0489723 9.6808e-05 0)
(0.0485264 9.33424e-05 0)
(0.0480933 8.99766e-05 0)
(0.0476727 8.67023e-05 0)
(0.0472645 8.35117e-05 0)
(0.0468684 8.03977e-05 0)
(0.0464842 7.73537e-05 0)
(0.0461118 7.43737e-05 0)
(0.0457512 7.14525e-05 0)
(0.0454021 6.8585e-05 0)
(0.0450646 6.57669e-05 0)
(0.0447386 6.29942e-05 0)
(0.044424 6.02637e-05 0)
(0.0441208 5.75723e-05 0)
(0.0438291 5.49178e-05 0)
(0.0435488 5.22983e-05 0)
(0.04328 4.97124e-05 0)
(0.0430226 4.71594e-05 0)
(0.0427767 4.46393e-05 0)
(0.0425423 4.21524e-05 0)
(0.0423195 3.97e-05 0)
(0.0421082 3.7284e-05 0)
(0.0419084 3.49075e-05 0)
(0.0417201 3.25745e-05 0)
(0.0415433 3.029e-05 0)
(0.0413779 2.80608e-05 0)
(0.0412238 2.58947e-05 0)
(0.0410808 2.38006e-05 0)
(0.0409488 2.17885e-05 0)
(0.0408275 1.98688e-05 0)
(0.0407165 1.80527e-05 0)
(0.0406155 1.63523e-05 0)
(0.0405241 1.47835e-05 0)
(0.0404417 1.33715e-05 0)
(0.0403676 1.21661e-05 0)
(0.0403006 1.12788e-05 0)
(0.040239 1.09818e-05 0)
(0.0401823 1.26478e-05 0)
(0.0400764 2.88548e-05 0)
(0.193005 0.00916936 0)
(0.193751 0.0101554 0)
(0.193942 0.0105417 0)
(0.193409 0.0105998 0)
(0.192238 0.0104228 0)
(0.19053 0.0100459 0)
(0.188359 0.0095126 0)
(0.185801 0.00887301 0)
(0.18294 0.00817407 0)
(0.179856 0.00745642 0)
(0.176623 0.00675319 0)
(0.173304 0.00608902 0)
(0.16995 0.00547979 0)
(0.166602 0.00493335 0)
(0.16329 0.00445099 0)
(0.160037 0.00402941 0)
(0.156858 0.00366256 0)
(0.153763 0.0033432 0)
(0.150758 0.00306407 0)
(0.147846 0.00281853 0)
(0.145027 0.00260093 0)
(0.142303 0.00240663 0)
(0.139671 0.00223197 0)
(0.137131 0.00207407 0)
(0.13468 0.00193071 0)
(0.132316 0.00180011 0)
(0.130036 0.00168088 0)
(0.127839 0.00157185 0)
(0.125721 0.00147204 0)
(0.12368 0.0013806 0)
(0.121712 0.00129678 0)
(0.119815 0.0012199 0)
(0.117987 0.00114933 0)
(0.116224 0.0010845 0)
(0.114523 0.00102489 0)
(0.112881 0.000970024 0)
(0.111297 0.000919452 0)
(0.109766 0.000872774 0)
(0.108288 0.000829625 0)
(0.106858 0.00078967 0)
(0.105475 0.000752609 0)
(0.104137 0.000718169 0)
(0.102841 0.000686103 0)
(0.101586 0.000656188 0)
(0.100369 0.000628227 0)
(0.0991888 0.000602038 0)
(0.0980436 0.000577459 0)
(0.0969317 0.000554345 0)
(0.0958518 0.000532565 0)
(0.0948025 0.000512 0)
(0.0937824 0.000492543 0)
(0.0927904 0.000474097 0)
(0.0918253 0.000456575 0)
(0.0908862 0.000439898 0)
(0.089972 0.000423993 0)
(0.089082 0.000408794 0)
(0.0882154 0.000394242 0)
(0.0873713 0.000380281 0)
(0.0865492 0.000366862 0)
(0.0857485 0.000353939 0)
(0.0849686 0.000341469 0)
(0.084209 0.000329414 0)
(0.0834693 0.000317738 0)
(0.0827492 0.000306407 0)
(0.0820483 0.000295393 0)
(0.0813663 0.000284666 0)
(0.0807029 0.000274202 0)
(0.0800581 0.000263976 0)
(0.0794316 0.000253967 0)
(0.0788232 0.000244156 0)
(0.078233 0.000234524 0)
(0.0776609 0.000225056 0)
(0.0771068 0.000215737 0)
(0.0765707 0.000206555 0)
(0.0760527 0.000197499 0)
(0.0755528 0.000188559 0)
(0.0750711 0.000179729 0)
(0.0746077 0.000171004 0)
(0.0741626 0.000162379 0)
(0.073736 0.000153853 0)
(0.0733279 0.000145428 0)
(0.0729385 0.000137106 0)
(0.0725678 0.000128894 0)
(0.0722158 0.000120799 0)
(0.0718828 0.000112833 0)
(0.0715685 0.000105011 0)
(0.0712731 9.73522e-05 0)
(0.0709964 8.98778e-05 0)
(0.0707383 8.26128e-05 0)
(0.0704986 7.55848e-05 0)
(0.070277 6.88235e-05 0)
(0.0700731 6.2362e-05 0)
(0.0698865 5.62384e-05 0)
(0.0697165 5.05029e-05 0)
(0.0695623 4.52315e-05 0)
(0.069423 4.05598e-05 0)
(0.0692971 3.67675e-05 0)
(0.0691823 3.45834e-05 0)
(0.0690769 3.73081e-05 0)
(0.0689265 5.8778e-05 0)
(0.194132 0.00849621 0)
(0.195127 0.00954929 0)
(0.196081 0.0101463 0)
(0.196786 0.0104382 0)
(0.197208 0.0104989 0)
(0.197345 0.0103587 0)
(0.197188 0.0100505 0)
(0.196732 0.00961506 0)
(0.195994 0.00909332 0)
(0.195001 0.00852266 0)
(0.193788 0.00793534 0)
(0.192392 0.00735729 0)
(0.19085 0.00680731 0)
(0.189197 0.0062972 0)
(0.187462 0.00583266 0)
(0.18567 0.00541468 0)
(0.183842 0.00504102 0)
(0.181991 0.00470762 0)
(0.18013 0.00440955 0)
(0.178266 0.00414186 0)
(0.176407 0.00389997 0)
(0.174556 0.0036799 0)
(0.172717 0.00347835 0)
(0.170893 0.00329268 0)
(0.169085 0.00312076 0)
(0.167296 0.00296096 0)
(0.165528 0.00281198 0)
(0.163781 0.00267279 0)
(0.162057 0.00254254 0)
(0.160356 0.00242052 0)
(0.15868 0.00230613 0)
(0.157028 0.00219883 0)
(0.155403 0.00209813 0)
(0.153803 0.00200357 0)
(0.152229 0.00191474 0)
(0.150682 0.00183124 0)
(0.149161 0.00175272 0)
(0.147666 0.00167881 0)
(0.146198 0.00160921 0)
(0.144755 0.0015436 0)
(0.143339 0.0014817 0)
(0.141948 0.00142326 0)
(0.140582 0.00136802 0)
(0.139241 0.00131575 0)
(0.137925 0.00126624 0)
(0.136633 0.0012193 0)
(0.135365 0.00117474 0)
(0.134121 0.00113238 0)
(0.1329 0.00109208 0)
(0.131702 0.00105367 0)
(0.130526 0.00101703 0)
(0.129372 0.000982027 0)
(0.128241 0.000948537 0)
(0.127131 0.000916451 0)
(0.126042 0.000885666 0)
(0.124973 0.000856085 0)
(0.123926 0.000827617 0)
(0.122899 0.000800178 0)
(0.121892 0.000773689 0)
(0.120905 0.000748075 0)
(0.119939 0.000723269 0)
(0.118991 0.000699203 0)
(0.118064 0.000675819 0)
(0.117156 0.000653059 0)
(0.116267 0.000630869 0)
(0.115398 0.000609201 0)
(0.114548 0.000588007 0)
(0.113718 0.000567244 0)
(0.112908 0.000546873 0)
(0.112117 0.000526857 0)
(0.111346 0.000507161 0)
(0.110595 0.000487754 0)
(0.109863 0.00046861 0)
(0.109153 0.000449703 0)
(0.108463 0.000431012 0)
(0.107793 0.000412518 0)
(0.107145 0.000394208 0)
(0.106518 0.000376071 0)
(0.105912 0.000358098 0)
(0.105329 0.000340288 0)
(0.104767 0.000322641 0)
(0.104229 0.000305163 0)
(0.103712 0.000287866 0)
(0.103219 0.000270765 0)
(0.102749 0.000253884 0)
(0.102302 0.000237251 0)
(0.101879 0.000220902 0)
(0.101479 0.000204877 0)
(0.101103 0.000189224 0)
(0.10075 0.000173998 0)
(0.100421 0.000159258 0)
(0.100114 0.000145072 0)
(0.0998304 0.00013152 0)
(0.0995684 0.000118707 0)
(0.0993277 0.000106782 0)
(0.0991071 9.59887e-05 0)
(0.098905 8.68008e-05 0)
(0.0987194 8.0396e-05 0)
(0.098549 8.09932e-05 0)
(0.0983407 0.000100775 0)
(0.195007 0.00797694 0)
(0.195806 0.00893406 0)
(0.196701 0.00954874 0)
(0.19754 0.00990199 0)
(0.198276 0.0100546 0)
(0.198892 0.010035 0)
(0.199363 0.00986705 0)
(0.199668 0.00957984 0)
(0.199795 0.0092047 0)
(0.199745 0.00877157 0)
(0.199529 0.00830752 0)
(0.199161 0.00783553 0)
(0.198661 0.00737357 0)
(0.198049 0.00693418 0)
(0.197345 0.0065249 0)
(0.196568 0.00614901 0)
(0.195732 0.00580672 0)
(0.19485 0.00549615 0)
(0.193932 0.00521427 0)
(0.192984 0.00495764 0)
(0.192012 0.00472285 0)
(0.191021 0.0045068 0)
(0.190012 0.00430683 0)
(0.18899 0.00412078 0)
(0.187955 0.00394688 0)
(0.18691 0.00378376 0)
(0.185855 0.00363031 0)
(0.184792 0.00348567 0)
(0.183722 0.00334913 0)
(0.182647 0.00322007 0)
(0.181567 0.00309799 0)
(0.180484 0.00298243 0)
(0.179398 0.00287295 0)
(0.17831 0.00276918 0)
(0.177222 0.00267074 0)
(0.176133 0.0025773 0)
(0.175044 0.00248852 0)
(0.173957 0.0024041 0)
(0.172871 0.00232376 0)
(0.171788 0.00224722 0)
(0.170708 0.00217423 0)
(0.169631 0.00210455 0)
(0.168558 0.00203797 0)
(0.167489 0.00197427 0)
(0.166425 0.00191326 0)
(0.165367 0.00185477 0)
(0.164314 0.00179863 0)
(0.163267 0.00174468 0)
(0.162226 0.00169278 0)
(0.161193 0.0016428 0)
(0.160166 0.0015946 0)
(0.159147 0.00154808 0)
(0.158135 0.00150311 0)
(0.157132 0.00145959 0)
(0.156138 0.00141743 0)
(0.155152 0.00137653 0)
(0.154175 0.00133681 0)
(0.153208 0.00129817 0)
(0.15225 0.00126054 0)
(0.151303 0.00122385 0)
(0.150367 0.00118802 0)
(0.149441 0.00115298 0)
(0.148526 0.00111867 0)
(0.147623 0.00108503 0)
(0.146733 0.001052 0)
(0.145854 0.00101952 0)
(0.144989 0.000987538 0)
(0.144137 0.000956005 0)
(0.143298 0.000924874 0)
(0.142474 0.000894101 0)
(0.141664 0.000863644 0)
(0.14087 0.000833468 0)
(0.140091 0.000803537 0)
(0.139329 0.000773821 0)
(0.138583 0.000744295 0)
(0.137854 0.000714936 0)
(0.137144 0.000685728 0)
(0.136452 0.000656659 0)
(0.135778 0.000627723 0)
(0.135125 0.000598918 0)
(0.134491 0.000570251 0)
(0.133878 0.000541734 0)
(0.133287 0.000513389 0)
(0.132717 0.000485245 0)
(0.132169 0.000457339 0)
(0.131644 0.00042972 0)
(0.131142 0.000402443 0)
(0.130663 0.000375578 0)
(0.130208 0.000349201 0)
(0.129777 0.000323401 0)
(0.129369 0.000298277 0)
(0.128985 0.000273945 0)
(0.128625 0.00025054 0)
(0.128288 0.000228236 0)
(0.127974 0.000207268 0)
(0.127681 0.000188 0)
(0.127409 0.000171075 0)
(0.127156 0.000157922 0)
(0.126922 0.00015247 0)
(0.126656 0.000162542 0)
(0.195789 0.00753807 0)
(0.19639 0.00836419 0)
(0.197104 0.00894652 0)
(0.197832 0.00931665 0)
(0.198524 0.00951388 0)
(0.19916 0.00956164 0)
(0.19972 0.00947867 0)
(0.200186 0.00928715 0)
(0.200544 0.00901186 0)
(0.20079 0.00867732 0)
(0.200926 0.00830617 0)
(0.200957 0.00791815 0)
(0.200895 0.00752932 0)
(0.20075 0.00715162 0)
(0.200537 0.006793 0)
(0.200267 0.00645791 0)
(0.199951 0.00614803 0)
(0.199598 0.00586311 0)
(0.199215 0.00560164 0)
(0.198807 0.00536147 0)
(0.198378 0.00514023 0)
(0.197932 0.00493562 0)
(0.197469 0.00474557 0)
(0.196991 0.00456828 0)
(0.1965 0.00440226 0)
(0.195995 0.00424626 0)
(0.195478 0.00409928 0)
(0.194949 0.00396049 0)
(0.194408 0.00382922 0)
(0.193855 0.00370488 0)
(0.193291 0.00358696 0)
(0.192717 0.00347503 0)
(0.192133 0.00336866 0)
(0.191538 0.00326751 0)
(0.190934 0.00317121 0)
(0.190321 0.00307945 0)
(0.189698 0.00299192 0)
(0.189068 0.00290834 0)
(0.188429 0.00282844 0)
(0.187782 0.00275197 0)
(0.187128 0.00267869 0)
(0.186467 0.00260838 0)
(0.185799 0.00254083 0)
(0.185125 0.00247585 0)
(0.184445 0.00241326 0)
(0.183759 0.00235289 0)
(0.183068 0.00229458 0)
(0.182371 0.00223819 0)
(0.181671 0.00218358 0)
(0.180966 0.00213062 0)
(0.180257 0.00207919 0)
(0.179545 0.00202918 0)
(0.17883 0.00198047 0)
(0.178113 0.00193298 0)
(0.177393 0.0018866 0)
(0.176672 0.00184125 0)
(0.175949 0.00179684 0)
(0.175226 0.00175329 0)
(0.174502 0.00171052 0)
(0.173779 0.00166847 0)
(0.173056 0.00162705 0)
(0.172334 0.0015862 0)
(0.171614 0.00154587 0)
(0.170897 0.00150598 0)
(0.170181 0.00146647 0)
(0.16947 0.0014273 0)
(0.168762 0.00138841 0)
(0.168058 0.00134975 0)
(0.16736 0.00131126 0)
(0.166667 0.00127291 0)
(0.165981 0.00123465 0)
(0.165302 0.00119645 0)
(0.16463 0.00115826 0)
(0.163967 0.00112007 0)
(0.163313 0.00108185 0)
(0.162669 0.00104357 0)
(0.162035 0.00100523 0)
(0.161413 0.00096681 0)
(0.160802 0.000928315 0)
(0.160205 0.000889751 0)
(0.159621 0.000851133 0)
(0.159051 0.000812487 0)
(0.158496 0.000773847 0)
(0.157957 0.00073526 0)
(0.157435 0.000696783 0)
(0.156929 0.000658489 0)
(0.156441 0.00062046 0)
(0.155971 0.000582796 0)
(0.15552 0.000545609 0)
(0.155088 0.000509028 0)
(0.154675 0.0004732 0)
(0.154282 0.000438294 0)
(0.153908 0.00040451 0)
(0.153554 0.000372097 0)
(0.153219 0.00034138 0)
(0.152903 0.000312823 0)
(0.152605 0.000287165 0)
(0.152325 0.000265771 0)
(0.152064 0.000251281 0)
(0.151773 0.000245584 0)
(0.1965 0.00717639 0)
(0.196949 0.00787993 0)
(0.197499 0.00841381 0)
(0.198084 0.00878078 0)
(0.198662 0.00900034 0)
(0.199211 0.00908936 0)
(0.199713 0.00906284 0)
(0.200153 0.00893813 0)
(0.200522 0.00873496 0)
(0.200813 0.00847339 0)
(0.201028 0.00817234 0)
(0.201169 0.00784867 0)
(0.201243 0.00751652 0)
(0.20126 0.00718697 0)
(0.201227 0.00686799 0)
(0.201154 0.00656469 0)
(0.201048 0.00627986 0)
(0.200918 0.00601446 0)
(0.200769 0.00576822 0)
(0.200604 0.00554011 0)
(0.200428 0.00532868 0)
(0.200242 0.00513233 0)
(0.200048 0.00494953 0)
(0.199846 0.00477884 0)
(0.199637 0.00461899 0)
(0.199422 0.00446892 0)
(0.1992 0.00432769 0)
(0.198972 0.00419454 0)
(0.198736 0.00406878 0)
(0.198494 0.00394986 0)
(0.198245 0.00383725 0)
(0.197988 0.00373051 0)
(0.197724 0.00362924 0)
(0.197453 0.00353304 0)
(0.197175 0.00344157 0)
(0.196889 0.00335449 0)
(0.196595 0.00327151 0)
(0.196294 0.00319233 0)
(0.195985 0.00311667 0)
(0.195669 0.00304428 0)
(0.195345 0.00297491 0)
(0.195013 0.00290835 0)
(0.194674 0.00284437 0)
(0.194328 0.00278277 0)
(0.193974 0.00272337 0)
(0.193612 0.002666 0)
(0.193244 0.00261049 0)
(0.192868 0.00255669 0)
(0.192485 0.00250445 0)
(0.192095 0.00245365 0)
(0.191698 0.00240416 0)
(0.191295 0.00235585 0)
(0.190885 0.00230862 0)
(0.190469 0.00226237 0)
(0.190047 0.00221699 0)
(0.189619 0.00217239 0)
(0.189186 0.00212848 0)
(0.188747 0.00208517 0)
(0.188304 0.00204239 0)
(0.187855 0.00200006 0)
(0.187403 0.00195809 0)
(0.186946 0.00191642 0)
(0.186486 0.00187498 0)
(0.186022 0.0018337 0)
(0.185556 0.00179252 0)
(0.185087 0.00175138 0)
(0.184616 0.00171022 0)
(0.184144 0.00166899 0)
(0.183671 0.00162762 0)
(0.183197 0.00158608 0)
(0.182723 0.00154432 0)
(0.18225 0.00150229 0)
(0.181778 0.00145996 0)
(0.181307 0.0014173 0)
(0.180839 0.00137428 0)
(0.180374 0.00133087 0)
(0.179913 0.00128708 0)
(0.179456 0.00124288 0)
(0.179004 0.00119829 0)
(0.178558 0.00115332 0)
(0.178118 0.00110799 0)
(0.177685 0.00106233 0)
(0.177261 0.00101639 0)
(0.176844 0.000970236 0)
(0.176437 0.000923944 0)
(0.17604 0.000877605 0)
(0.175653 0.00083133 0)
(0.175277 0.000785247 0)
(0.174913 0.000739503 0)
(0.17456 0.000694266 0)
(0.17422 0.00064973 0)
(0.173893 0.000606118 0)
(0.173579 0.000563691 0)
(0.173278 0.000522767 0)
(0.17299 0.000483747 0)
(0.172715 0.000447157 0)
(0.172453 0.00041373 0)
(0.172203 0.000384494 0)
(0.171969 0.00036042 0)
(0.171707 0.000338472 0)
(0.197151 0.00688002 0)
(0.197485 0.00747828 0)
(0.197898 0.00795749 0)
(0.198351 0.00830825 0)
(0.198812 0.00853674 0)
(0.199258 0.0086531 0)
(0.199674 0.0086684 0)
(0.200047 0.00859575 0)
(0.200368 0.00845029 0)
(0.200633 0.00824801 0)
(0.200842 0.00800445 0)
(0.200995 0.00773387 0)
(0.201098 0.00744865 0)
(0.201156 0.00715896 0)
(0.201177 0.00687256 0)
(0.201168 0.006595 0)
(0.201135 0.00632985 0)
(0.201083 0.00607905 0)
(0.201019 0.00584338 0)
(0.200945 0.00562277 0)
(0.200864 0.00541661 0)
(0.200779 0.00522401 0)
(0.200691 0.00504397 0)
(0.2006 0.00487547 0)
(0.200508 0.00471752 0)
(0.200414 0.00456925 0)
(0.200319 0.00442985 0)
(0.200223 0.00429862 0)
(0.200125 0.00417494 0)
(0.200024 0.00405825 0)
(0.199922 0.00394804 0)
(0.199818 0.00384385 0)
(0.199711 0.00374526 0)
(0.199601 0.00365189 0)
(0.199489 0.00356335 0)
(0.199373 0.00347932 0)
(0.199253 0.00339947 0)
(0.199131 0.0033235 0)
(0.199004 0.00325112 0)
(0.198874 0.00318205 0)
(0.198739 0.00311605 0)
(0.198601 0.00305288 0)
(0.198457 0.00299231 0)
(0.19831 0.00293413 0)
(0.198158 0.00287814 0)
(0.198001 0.00282416 0)
(0.197839 0.00277202 0)
(0.197673 0.00272155 0)
(0.197501 0.00267259 0)
(0.197325 0.00262501 0)
(0.197143 0.00257867 0)
(0.196956 0.00253343 0)
(0.196765 0.00248919 0)
(0.196568 0.00244581 0)
(0.196366 0.0024032 0)
(0.196159 0.00236125 0)
(0.195947 0.00231986 0)
(0.19573 0.00227894 0)
(0.195509 0.00223839 0)
(0.195282 0.00219812 0)
(0.195051 0.00215806 0)
(0.194815 0.00211811 0)
(0.194575 0.00207821 0)
(0.194331 0.00203827 0)
(0.194083 0.00199822 0)
(0.19383 0.001958 0)
(0.193575 0.00191753 0)
(0.193316 0.00187675 0)
(0.193053 0.0018356 0)
(0.192788 0.00179401 0)
(0.192521 0.00175195 0)
(0.192251 0.00170935 0)
(0.191979 0.00166617 0)
(0.191706 0.00162238 0)
(0.191432 0.00157793 0)
(0.191157 0.00153282 0)
(0.190882 0.00148701 0)
(0.190608 0.0014405 0)
(0.190333 0.00139329 0)
(0.19006 0.00134539 0)
(0.189789 0.00129683 0)
(0.18952 0.00124765 0)
(0.189253 0.0011979 0)
(0.18899 0.00114765 0)
(0.18873 0.001097 0)
(0.188474 0.00104604 0)
(0.188223 0.000994906 0)
(0.187977 0.000943751 0)
(0.187737 0.000892746 0)
(0.187502 0.000842093 0)
(0.187274 0.000792021 0)
(0.187052 0.000742796 0)
(0.186837 0.000694729 0)
(0.186629 0.000648191 0)
(0.186428 0.000603626 0)
(0.186233 0.000561579 0)
(0.186046 0.000522693 0)
(0.185867 0.000487582 0)
(0.185697 0.000455951 0)
(0.185502 0.000422929 0)
(0.197719 0.00664605 0)
(0.197966 0.00716225 0)
(0.198273 0.00759193 0)
(0.198617 0.00792253 0)
(0.198974 0.00815283 0)
(0.199325 0.00828738 0)
(0.199657 0.00833348 0)
(0.19996 0.00830063 0)
(0.200225 0.0082003 0)
(0.200449 0.00804507 0)
(0.20063 0.00784765 0)
(0.200769 0.0076201 0)
(0.200868 0.00737328 0)
(0.200933 0.00711643 0)
(0.200967 0.00685705 0)
(0.200978 0.00660085 0)
(0.200969 0.00635192 0)
(0.200945 0.00611293 0)
(0.20091 0.00588545 0)
(0.200868 0.00567018 0)
(0.200821 0.00546724 0)
(0.200772 0.00527634 0)
(0.200721 0.00509697 0)
(0.200669 0.00492847 0)
(0.200618 0.00477016 0)
(0.200567 0.00462135 0)
(0.200517 0.00448139 0)
(0.200467 0.00434965 0)
(0.200418 0.00422556 0)
(0.200369 0.00410859 0)
(0.200321 0.00399827 0)
(0.200273 0.00389413 0)
(0.200225 0.00379575 0)
(0.200177 0.00370275 0)
(0.200129 0.00361474 0)
(0.20008 0.00353139 0)
(0.200031 0.00345236 0)
(0.199981 0.00337734 0)
(0.199929 0.00330604 0)
(0.199877 0.00323818 0)
(0.199823 0.0031735 0)
(0.199768 0.00311176 0)
(0.199712 0.00305271 0)
(0.199653 0.00299615 0)
(0.199593 0.00294187 0)
(0.199531 0.00288967 0)
(0.199466 0.00283938 0)
(0.1994 0.00279081 0)
(0.199331 0.00274381 0)
(0.199259 0.00269823 0)
(0.199185 0.00265392 0)
(0.199109 0.00261075 0)
(0.199029 0.00256857 0)
(0.198947 0.00252728 0)
(0.198862 0.00248676 0)
(0.198774 0.00244688 0)
(0.198684 0.00240755 0)
(0.19859 0.00236865 0)
(0.198493 0.0023301 0)
(0.198393 0.00229178 0)
(0.19829 0.00225362 0)
(0.198184 0.00221551 0)
(0.198076 0.00217738 0)
(0.197964 0.00213913 0)
(0.197849 0.00210068 0)
(0.197731 0.00206196 0)
(0.197611 0.00202289 0)
(0.197487 0.00198339 0)
(0.197362 0.00194339 0)
(0.197233 0.00190283 0)
(0.197102 0.00186164 0)
(0.196969 0.00181977 0)
(0.196834 0.00177716 0)
(0.196697 0.00173377 0)
(0.196559 0.00168955 0)
(0.196418 0.00164447 0)
(0.196277 0.00159851 0)
(0.196134 0.00155165 0)
(0.19599 0.0015039 0)
(0.195846 0.00145525 0)
(0.195702 0.00140574 0)
(0.195557 0.0013554 0)
(0.195413 0.00130429 0)
(0.19527 0.00125247 0)
(0.195127 0.00120005 0)
(0.194985 0.00114713 0)
(0.194845 0.00109386 0)
(0.194707 0.0010404 0)
(0.194571 0.000986943 0)
(0.194436 0.000933703 0)
(0.194305 0.000880938 0)
(0.194176 0.000828942 0)
(0.19405 0.000778058 0)
(0.193926 0.000728684 0)
(0.193806 0.000681284 0)
(0.193689 0.000636386 0)
(0.193575 0.00059453 0)
(0.193465 0.00055605 0)
(0.193359 0.00052023 0)
(0.193232 0.000483116 0)
(0.198283 0.00645854 0)
(0.198457 0.00690738 0)
(0.198673 0.00729095 0)
(0.198918 0.00759762 0)
(0.199176 0.00782284 0)
(0.199434 0.00796729 0)
(0.199681 0.00803502 0)
(0.199909 0.0080325 0)
(0.200112 0.00796816 0)
(0.200286 0.00785164 0)
(0.200429 0.00769315 0)
(0.200542 0.00750271 0)
(0.200626 0.00728965 0)
(0.200684 0.00706229 0)
(0.200719 0.00682765 0)
(0.200735 0.00659141 0)
(0.200736 0.00635795 0)
(0.200725 0.00613045 0)
(0.200705 0.00591108 0)
(0.20068 0.00570118 0)
(0.20065 0.00550148 0)
(0.200618 0.00531223 0)
(0.200585 0.00513336 0)
(0.200551 0.0049646 0)
(0.200518 0.00480552 0)
(0.200486 0.00465566 0)
(0.200454 0.00451451 0)
(0.200424 0.00438154 0)
(0.200396 0.00425626 0)
(0.200368 0.00413819 0)
(0.200341 0.00402686 0)
(0.200316 0.00392183 0)
(0.200291 0.00382269 0)
(0.200267 0.00372905 0)
(0.200245 0.00364054 0)
(0.200222 0.0035568 0)
(0.2002 0.00347751 0)
(0.200179 0.00340235 0)
(0.200158 0.00333102 0)
(0.200137 0.00326324 0)
(0.200117 0.00319874 0)
(0.200096 0.00313728 0)
(0.200076 0.00307862 0)
(0.200055 0.00302253 0)
(0.200034 0.0029688 0)
(0.200012 0.00291724 0)
(0.199991 0.00286766 0)
(0.199968 0.00281987 0)
(0.199946 0.00277373 0)
(0.199922 0.00272906 0)
(0.199898 0.00268572 0)
(0.199873 0.00264356 0)
(0.199847 0.00260246 0)
(0.19982 0.00256227 0)
(0.199792 0.00252289 0)
(0.199763 0.00248419 0)
(0.199733 0.00244606 0)
(0.199702 0.00240839 0)
(0.199669 0.00237107 0)
(0.199636 0.00233401 0)
(0.199601 0.0022971 0)
(0.199564 0.00226025 0)
(0.199527 0.00222336 0)
(0.199488 0.00218634 0)
(0.199447 0.00214911 0)
(0.199405 0.00211158 0)
(0.199362 0.00207367 0)
(0.199317 0.00203529 0)
(0.199271 0.00199636 0)
(0.199224 0.00195683 0)
(0.199175 0.0019166 0)
(0.199125 0.00187563 0)
(0.199073 0.00183385 0)
(0.199021 0.0017912 0)
(0.198967 0.00174765 0)
(0.198911 0.00170314 0)
(0.198855 0.00165766 0)
(0.198798 0.00161117 0)
(0.19874 0.00156368 0)
(0.198681 0.00151519 0)
(0.198621 0.00146571 0)
(0.198561 0.00141529 0)
(0.1985 0.00136397 0)
(0.198439 0.00131183 0)
(0.198377 0.00125896 0)
(0.198315 0.00120549 0)
(0.198254 0.00115154 0)
(0.198192 0.00109729 0)
(0.19813 0.00104294 0)
(0.198069 0.000988728 0)
(0.198008 0.000934913 0)
(0.197948 0.000881809 0)
(0.197888 0.000829773 0)
(0.197829 0.000779215 0)
(0.19777 0.000730599 0)
(0.197712 0.000684425 0)
(0.197655 0.000641168 0)
(0.197598 0.000601092 0)
(0.197543 0.000563763 0)
(0.197472 0.000527422 0)
(0.198887 0.00629254 0)
(0.198989 0.00668698 0)
(0.199116 0.0070311 0)
(0.199262 0.00731515 0)
(0.199418 0.00753337 0)
(0.199577 0.00768402 0)
(0.199731 0.00776859 0)
(0.199876 0.00779101 0)
(0.200006 0.00775711 0)
(0.20012 0.00767408 0)
(0.200216 0.00754987 0)
(0.200293 0.00739263 0)
(0.200353 0.00721031 0)
(0.200396 0.00701023 0)
(0.200425 0.00679889 0)
(0.200441 0.00658181 0)
(0.200447 0.00636349 0)
(0.200445 0.00614747 0)
(0.200436 0.00593637 0)
(0.200424 0.00573207 0)
(0.200408 0.00553581 0)
(0.20039 0.00534833 0)
(0.200371 0.00516998 0)
(0.200352 0.00500082 0)
(0.200333 0.00484074 0)
(0.200314 0.00468947 0)
(0.200296 0.00454667 0)
(0.200278 0.00441194 0)
(0.200262 0.00428487 0)
(0.200246 0.00416502 0)
(0.200231 0.00405197 0)
(0.200217 0.00394531 0)
(0.200204 0.00384463 0)
(0.200191 0.00374956 0)
(0.20018 0.00365971 0)
(0.200169 0.00357475 0)
(0.200158 0.00349434 0)
(0.200148 0.00341816 0)
(0.200139 0.0033459 0)
(0.20013 0.0032773 0)
(0.200122 0.00321207 0)
(0.200114 0.00314996 0)
(0.200106 0.00309073 0)
(0.200098 0.00303416 0)
(0.200091 0.00298003 0)
(0.200084 0.00292813 0)
(0.200078 0.00287828 0)
(0.200071 0.00283031 0)
(0.200064 0.00278402 0)
(0.200058 0.00273928 0)
(0.200051 0.00269592 0)
(0.200044 0.0026538 0)
(0.200038 0.00261278 0)
(0.200031 0.00257273 0)
(0.200024 0.00253352 0)
(0.200017 0.00249504 0)
(0.20001 0.00245716 0)
(0.200002 0.00241978 0)
(0.199995 0.00238279 0)
(0.199987 0.00234608 0)
(0.199978 0.00230955 0)
(0.19997 0.00227311 0)
(0.199961 0.00223665 0)
(0.199952 0.00220009 0)
(0.199942 0.00216332 0)
(0.199932 0.00212628 0)
(0.199922 0.00208886 0)
(0.199911 0.00205098 0)
(0.1999 0.00201257 0)
(0.199888 0.00197354 0)
(0.199876 0.00193383 0)
(0.199864 0.00189336 0)
(0.199851 0.00185208 0)
(0.199837 0.00180993 0)
(0.199823 0.00176685 0)
(0.199809 0.0017228 0)
(0.199794 0.00167776 0)
(0.199779 0.00163169 0)
(0.199763 0.00158459 0)
(0.199747 0.00153646 0)
(0.19973 0.00148731 0)
(0.199713 0.00143719 0)
(0.199696 0.00138613 0)
(0.199678 0.00133421 0)
(0.19966 0.00128153 0)
(0.199642 0.0012282 0)
(0.199623 0.00117436 0)
(0.199604 0.00112019 0)
(0.199585 0.00106589 0)
(0.199565 0.0010117 0)
(0.199546 0.000957883 0)
(0.199526 0.000904765 0)
(0.199506 0.000852706 0)
(0.199485 0.000802116 0)
(0.199465 0.000753445 0)
(0.199444 0.000707173 0)
(0.199423 0.000663761 0)
(0.199402 0.000623579 0)
(0.19938 0.000586805 0)
(0.19935 0.000553848 0)
(0.199518 0.00621118 0)
(0.199545 0.00657113 0)
(0.199582 0.00688777 0)
(0.199627 0.00715286 0)
(0.199677 0.00736079 0)
(0.199729 0.00750904 0)
(0.199782 0.00759797 0)
(0.199833 0.00763028 0)
(0.199881 0.00761044 0)
(0.199925 0.00754425 0)
(0.199963 0.00743834 0)
(0.199996 0.00729974 0)
(0.200023 0.00713542 0)
(0.200045 0.00695201 0)
(0.200062 0.00675553 0)
(0.200074 0.00655125 0)
(0.200082 0.00634361 0)
(0.200088 0.00613621 0)
(0.200091 0.00593186 0)
(0.200092 0.00573268 0)
(0.200091 0.00554015 0)
(0.20009 0.00535528 0)
(0.200087 0.00517864 0)
(0.200085 0.00501053 0)
(0.200082 0.00485097 0)
(0.200078 0.00469987 0)
(0.200075 0.00455697 0)
(0.200072 0.00442196 0)
(0.200069 0.0042945 0)
(0.200066 0.00417419 0)
(0.200063 0.00406065 0)
(0.20006 0.00395348 0)
(0.200057 0.00385229 0)
(0.200055 0.00375672 0)
(0.200053 0.0036664 0)
(0.200051 0.00358098 0)
(0.200049 0.00350013 0)
(0.200047 0.00342355 0)
(0.200045 0.00335092 0)
(0.200043 0.00328196 0)
(0.200042 0.00321641 0)
(0.20004 0.00315401 0)
(0.200039 0.00309452 0)
(0.200038 0.00303771 0)
(0.200037 0.00298337 0)
(0.200036 0.00293128 0)
(0.200035 0.00288127 0)
(0.200034 0.00283316 0)
(0.200033 0.00278676 0)
(0.200032 0.00274191 0)
(0.200031 0.00269847 0)
(0.200031 0.00265629 0)
(0.20003 0.00261523 0)
(0.200029 0.00257515 0)
(0.200028 0.00253594 0)
(0.200028 0.00249746 0)
(0.200027 0.0024596 0)
(0.200026 0.00242226 0)
(0.200025 0.00238531 0)
(0.200024 0.00234866 0)
(0.200024 0.00231221 0)
(0.200023 0.00227584 0)
(0.200022 0.00223948 0)
(0.200021 0.00220302 0)
(0.20002 0.00216637 0)
(0.200019 0.00212944 0)
(0.200017 0.00209215 0)
(0.200016 0.00205441 0)
(0.200015 0.00201614 0)
(0.200013 0.00197726 0)
(0.200012 0.00193771 0)
(0.20001 0.00189741 0)
(0.200009 0.00185629 0)
(0.200007 0.00181431 0)
(0.200005 0.00177141 0)
(0.200003 0.00172754 0)
(0.200001 0.00168268 0)
(0.199999 0.00163679 0)
(0.199996 0.00158988 0)
(0.199994 0.00154193 0)
(0.199991 0.00149298 0)
(0.199988 0.00144303 0)
(0.199986 0.00139216 0)
(0.199983 0.00134043 0)
(0.19998 0.00128794 0)
(0.199976 0.00123479 0)
(0.199973 0.00118114 0)
(0.199969 0.00112716 0)
(0.199966 0.00107305 0)
(0.199962 0.00101905 0)
(0.199958 0.000965442 0)
(0.199954 0.00091254 0)
(0.19995 0.000860708 0)
(0.199945 0.000810352 0)
(0.19994 0.000761916 0)
(0.199936 0.000715873 0)
(0.199931 0.000672711 0)
(0.199925 0.000632942 0)