/*--------------------------------*- C++ -*----------------------------------*\
| =========                 |                                                 |
| \\      /  F ield         | OpenFOAM: The Open Source CFD Toolbox           |
|  \\    /   O peration     | Version:  2.3.0                                 |
|   \\  /    A nd           | Web:      www.OpenFOAM.org                      |
|    \\/     M anipulation  |                                                 |
\*---------------------------------------------------------------------------*/
FoamFile
{
    version     2.0;
    format      ascii;
    class       volScalarField;
    location    "0.2";
    object      p;
}
// * * * * * * * * * * * * * * * * * * * * * * * * * * * * * * * * * * * * * //

dimensions      [0 2 -2 0 0 0 0];

internalField   nonuniform List<scalar> 
3375
(
0.00470414
0.00408554
0.00359721
0.00323649
0.00293006
0.00265129
0.00240141
0.00218491
0.00200318
0.00185522
0.00173853
0.00164932
0.00158298
0.00153454
0.00149926
0.00147299
0.00145238
0.00143491
0.0014188
0.00140292
0.00138656
0.00136938
0.00135124
0.00133214
0.00131215
0.00129137
0.0012699
0.00124786
0.00122535
0.00120244
0.00117922
0.00115574
0.00113208
0.00110827
0.00108439
0.00106047
0.00103659
0.0010128
0.000989152
0.000965728
0.000942602
0.000919859
0.000897599
0.000875937
0.000855011
0.000834984
0.000816042
0.000798394
0.000782244
0.000767777
0.000755122
0.000744242
0.000735085
0.000727164
0.000720035
0.000713239
0.000706376
0.000699124
0.000691261
0.00068265
0.000673229
0.000662991
0.000651965
0.000640204
0.000627774
0.000614739
0.000601163
0.000587103
0.000572608
0.000557722
0.000542479
0.000526912
0.000511044
0.000494896
0.000478487
0.000461832
0.000444944
0.000427834
0.000410514
0.000392994
0.000375283
0.000357389
0.000339321
0.000321087
0.000302693
0.000284146
0.000265452
0.000246616
0.000227644
0.000208537
0.000189297
0.000169928
0.000150429
0.000130802
0.000111044
9.11571e-05
7.11376e-05
5.09837e-05
3.06918e-05
1.02588e-05
0.0044328
0.00398625
0.00357794
0.00324691
0.00295427
0.00268254
0.00243561
0.00221963
0.002037
0.00188727
0.00176827
0.00167646
0.00160739
0.00155626
0.00151841
0.00148977
0.00146703
0.00144768
0.00142995
0.00141266
0.00139511
0.00137692
0.00135793
0.00133811
0.0013175
0.0012962
0.00127428
0.00125186
0.001229
0.00120579
0.0011823
0.00115858
0.00113469
0.00111068
0.00108661
0.00106253
0.00103848
0.00101453
0.000990743
0.000967181
0.000943922
0.000921048
0.000898659
0.000876869
0.000855812
0.000835649
0.000816567
0.000798775
0.000782486
0.000767892
0.000755118
0.000744182
0.000734879
0.000726905
0.000719786
0.000713014
0.000706173
0.000698941
0.000691097
0.000682505
0.000673101
0.000662878
0.000651866
0.000640118
0.000627698
0.000614673
0.000601106
0.000587053
0.000572565
0.000557685
0.000542449
0.000526886
0.000511023
0.000494879
0.000478474
0.000461821
0.000444935
0.000427828
0.00041051
0.000392991
0.000375281
0.000357388
0.000339321
0.000321087
0.000302693
0.000284147
0.000265453
0.000246617
0.000227645
0.000208537
0.000189298
0.000169928
0.00015043
0.000130802
0.000111045
9.11573e-05
7.11378e-05
5.09839e-05
3.06922e-05
1.02595e-05
0.00423771
0.00389601
0.00354302
0.00323536
0.0029587
0.0027011
0.00246519
0.00225645
0.00207752
0.00192846
0.0018077
0.00171246
0.001639
0.00158316
0.00154076
0.00150803
0.00148182
0.00145966
0.00143972
0.00142075
0.00140193
0.0013828
0.00136309
0.00134272
0.00132169
0.00130003
0.00127782
0.00125513
0.00123204
0.00120862
0.00118493
0.00116103
0.00113698
0.00111281
0.00108859
0.00106437
0.00104019
0.00101611
0.000992201
0.00096852
0.000945145
0.000922158
0.000899656
0.000877753
0.000856583
0.000836306
0.000817111
0.000799205
0.000782806
0.000768115
0.000755272
0.000744357
0.000735148
0.000727134
0.000719855
0.00071299
0.000706112
0.000698861
0.000691005
0.000682408
0.000673002
0.00066278
0.000651772
0.000640029
0.000627616
0.000614598
0.000601038
0.000586992
0.000572511
0.000557638
0.000542408
0.000526851
0.000510993
0.000494854
0.000478453
0.000461804
0.000444922
0.000427817
0.000410502
0.000392985
0.000375276
0.000357385
0.000339318
0.000321085
0.000302692
0.000284146
0.000265453
0.000246619
0.000227645
0.000208537
0.000189297
0.000169928
0.000150429
0.000130802
0.000111044
9.11572e-05
7.11378e-05
5.09842e-05
3.0693e-05
1.0262e-05
0.00406048
0.00379064
0.00348931
0.00321102
0.00295597
0.00271712
0.00249621
0.00229805
0.00212551
0.0019792
0.00185822
0.0017605
0.00168309
0.00162249
0.00157512
0.00153759
0.00150702
0.00148103
0.00145784
0.00143617
0.00141513
0.00139418
0.001373
0.00135142
0.00132939
0.00130692
0.00128402
0.00126076
0.00123717
0.00121333
0.00118927
0.00116505
0.0011407
0.00111628
0.00109183
0.0010674
0.00104303
0.00101877
0.000994701
0.000970869
0.00094735
0.000924228
0.000901597
0.000879569
0.000858279
0.000837887
0.00081858
0.000800567
0.000784067
0.000769277
0.000756331
0.00074526
0.000735902
0.000727906
0.000720571
0.000713456
0.000706361
0.000698963
0.000691007
0.000682338
0.000672885
0.000662633
0.000651609
0.00063986
0.000627448
0.000614435
0.000600884
0.000586849
0.000572379
0.000557517
0.000542299
0.000526754
0.000510906
0.000494778
0.000478387
0.000461747
0.000444873
0.000427776
0.000410467
0.000392956
0.000375253
0.000357366
0.000339303
0.000321073
0.000302683
0.000284139
0.000265447
0.000246614
0.000227641
0.000208535
0.000189297
0.000169927
0.000150429
0.000130801
0.000111044
9.11568e-05
7.11378e-05
5.09848e-05
3.06949e-05
1.02675e-05
0.00390155
0.00368504
0.00343122
0.00318382
0.0029509
0.00273053
0.00252468
0.00233766
0.00217248
0.00203015
0.00191023
0.00181124
0.00173085
0.00166619
0.00161424
0.00157206
0.00153705
0.00150705
0.00148034
0.00145566
0.0014321
0.00140906
0.00138615
0.00136315
0.00133994
0.00131647
0.00129274
0.00126876
0.00124456
0.00122018
0.00119565
0.00117101
0.0011463
0.00112156
0.00109681
0.00107212
0.00104752
0.00102306
0.000998793
0.000974789
0.000951116
0.000927852
0.000905092
0.000882946
0.000861547
0.000841052
0.000821645
0.000803529
0.000786912
0.00077198
0.000758853
0.000747538
0.000737859
0.00072946
0.000721906
0.000714629
0.000707205
0.000699491
0.000691294
0.000682448
0.000672865
0.000662522
0.000651436
0.000639649
0.000627217
0.000614196
0.000600645
0.000586616
0.000572156
0.000557307
0.000542102
0.000526571
0.000510739
0.000494625
0.000478248
0.000461623
0.000444762
0.000427678
0.000410382
0.000392882
0.000375189
0.000357312
0.000339258
0.000321035
0.000302651
0.000284113
0.000265427
0.000246598
0.000227629
0.000208525
0.000189289
0.000169921
0.000150424
0.000130798
0.000111043
9.11564e-05
7.11381e-05
5.09861e-05
3.06985e-05
1.02765e-05
0.00376421
0.00358617
0.00337181
0.0031531
0.00294133
0.0027386
0.00254753
0.00237196
0.00221483
0.00207741
0.00195965
0.00186051
0.0017782
0.00171043
0.00165466
0.0016084
0.00156936
0.00153558
0.00150547
0.00147782
0.00145171
0.00142651
0.00140178
0.00137725
0.00135275
0.00132818
0.00130352
0.00127874
0.00125385
0.00122887
0.00120381
0.00117871
0.00115359
0.00112849
0.00110343
0.00107846
0.00105361
0.00102894
0.00100449
0.000980325
0.000956511
0.000933126
0.00091026
0.000888023
0.000866542
0.000845969
0.000826478
0.000808259
0.000791503
0.000776374
0.000762972
0.000751284
0.000741141
0.000732216
0.000724104
0.000716387
0.000708633
0.000700539
0.000691987
0.000682857
0.000673057
0.000662552
0.00065135
0.000639482
0.000626996
0.000613942
0.000600372
0.000586336
0.000571876
0.000557032
0.000541837
0.000526318
0.000510499
0.0004944
0.000478039
0.00046143
0.000444585
0.000427517
0.000410237
0.000392753
0.000375075
0.000357211
0.000339171
0.000320961
0.000302588
0.00028406
0.000265383
0.000246561
0.000227599
0.000208501
0.00018927
0.000169907
0.000150413
0.00013079
0.000111037
9.11526e-05
7.11361e-05
5.09863e-05
3.0702e-05
1.02876e-05
0.00364509
0.0034945
0.00331179
0.00311898
0.00292747
0.00274174
0.00256506
0.00240094
0.00225217
0.00212021
0.00200532
0.00190686
0.0018235
0.00175344
0.0016946
0.00164487
0.00160229
0.00156509
0.00153183
0.00150136
0.00147277
0.00144543
0.00141887
0.00139278
0.00136695
0.00134126
0.00131563
0.00129001
0.0012644
0.00123879
0.00121319
0.00118761
0.00116208
0.00113661
0.00111124
0.00108599
0.00106091
0.00103604
0.00101142
0.000987116
0.000963185
0.000939705
0.000916764
0.000894465
0.00087293
0.0008523
0.000832737
0.000814413
0.000797494
0.000782121
0.000768371
0.00075622
0.00074551
0.000735955
0.000727188
0.000718833
0.000710551
0.000702025
0.000693069
0.000683583
0.000673499
0.000662774
0.000651406
0.000639417
0.000626844
0.00061373
0.000600121
0.000586059
0.000571586
0.000556737
0.000541542
0.000526028
0.000510217
0.00049413
0.000477781
0.000461187
0.000444358
0.000427307
0.000410043
0.000392576
0.000374915
0.000357068
0.000339044
0.00032085
0.000302492
0.000283978
0.000265313
0.000246502
0.000227551
0.000208461
0.000189238
0.000169881
0.000150393
0.000130775
0.000111026
9.11447e-05
7.11313e-05
5.09845e-05
3.07039e-05
1.02971e-05
0.00354084
0.00341038
0.00325293
0.00308303
0.0029105
0.00274088
0.00257792
0.00242492
0.00228453
0.00215831
0.00204678
0.00194965
0.00186597
0.00179436
0.00173314
0.00168055
0.00163492
0.00159469
0.00155857
0.00152547
0.00149454
0.00146515
0.0014368
0.00140917
0.00138202
0.00135519
0.00132857
0.00130211
0.00127576
0.00124951
0.00122335
0.00119729
0.00117134
0.00114551
0.00111982
0.00109431
0.001069
0.00104393
0.00101916
0.000994725
0.000970695
0.000947138
0.000924139
0.000901794
0.000880218
0.000859541
0.000839907
0.000821468
0.000804366
0.000788717
0.000774579
0.000761919
0.000750594
0.000740354
0.00073088
0.000721836
0.000712915
0.000703866
0.000694458
0.000684578
0.000674165
0.00066318
0.000651611
0.000639469
0.000626782
0.000613586
0.000599918
0.000585816
0.000571316
0.00055645
0.000541247
0.000525731
0.000509923
0.000493841
0.000477502
0.000460918
0.000444103
0.000427067
0.000409819
0.000392369
0.000374725
0.000356896
0.000338889
0.000320712
0.000302371
0.000283872
0.000265222
0.000246425
0.000227485
0.000208407
0.000189193
0.000169845
0.000150365
0.000130753
0.000111009
9.11325e-05
7.1123e-05
5.09799e-05
3.07031e-05
1.03013e-05
0.00344893
0.00333375
0.00319647
0.00304636
0.00289119
0.00273659
0.00258655
0.00244424
0.00231212
0.00219182
0.00208406
0.00198879
0.00190542
0.0018329
0.00176992
0.00171504
0.00166683
0.00162397
0.00158528
0.00154977
0.00151666
0.0014853
0.00145524
0.0014261
0.00139764
0.00136966
0.00134206
0.00131474
0.00128765
0.00126075
0.00123402
0.00120747
0.00118109
0.00115488
0.00112888
0.00110309
0.00107756
0.0010523
0.00102737
0.00100282
0.00097869
0.000955061
0.000932006
0.000909618
0.000887999
0.000867268
0.000847553
0.000828983
0.00081168
0.000795736
0.000781191
0.000768008
0.000756059
0.000745126
0.000734933
0.000725187
0.00071561
0.000705972
0.000696071
0.000685777
0.000675014
0.000663744
0.000651949
0.000639632
0.000626812
0.000613515
0.000599773
0.000585617
0.000571079
0.000556188
0.000540968
0.000525443
0.000509632
0.000493552
0.000477217
0.000460642
0.000443838
0.000426814
0.000409581
0.000392147
0.00037452
0.000356708
0.000338719
0.000320559
0.000302235
0.000283753
0.000265118
0.000246335
0.000227409
0.000208344
0.000189141
0.000169802
0.00015033
0.000130725
0.000110988
9.11166e-05
7.11118e-05
5.09728e-05
3.06997e-05
1.02992e-05
0.00336733
0.00326413
0.00314304
0.00300981
0.00287023
0.00272949
0.00259153
0.00245938
0.00233535
0.00222105
0.00211732
0.00202436
0.00194182
0.00186897
0.00180479
0.00174813
0.0016978
0.00165267
0.0016117
0.00157402
0.00153889
0.00150569
0.00147398
0.00144338
0.00141363
0.00138453
0.00135594
0.00132776
0.00129991
0.00127235
0.00124505
0.00121799
0.00119117
0.00116459
0.00113825
0.00111219
0.00108642
0.00106097
0.00103588
0.00101119
0.000986959
0.000963249
0.000940131
0.000917687
0.000896013
0.000875213
0.000855398
0.00083668
0.000819159
0.000802906
0.000787948
0.000774246
0.000761685
0.000750076
0.000739181
0.000728741
0.000718513
0.00070828
0.000697866
0.000687137
0.000676011
0.00066444
0.000652403
0.000639895
0.000626926
0.000613514
0.000599685
0.000585465
0.00057088
0.000555955
0.000540712
0.000525172
0.000509353
0.00049327
0.000476938
0.000460368
0.000443572
0.00042656
0.000409339
0.00039192
0.000374309
0.000356514
0.000338541
0.000320398
0.000302091
0.000283626
0.000265007
0.000246239
0.000227327
0.000208274
0.000189082
0.000169754
0.000150291
0.000130694
0.000110963
9.10982e-05
7.10985e-05
5.09638e-05
3.0694e-05
1.02925e-05
0.00329444
0.00320089
0.00309296
0.00297404
0.00284828
0.00272016
0.0025934
0.00247083
0.00235461
0.00224628
0.00214678
0.00205646
0.00197519
0.0019025
0.00183763
0.00177967
0.00172765
0.00168062
0.00163769
0.00159806
0.00156108
0.00152618
0.0014929
0.0014609
0.0014299
0.0013997
0.00137013
0.00134108
0.00131247
0.00128424
0.00125635
0.00122878
0.00120151
0.00117453
0.00114786
0.00112151
0.00109549
0.00106983
0.00104456
0.00101974
0.00099539
0.000971586
0.000948388
0.000925872
0.000904123
0.000883233
0.000863298
0.000844412
0.000826655
0.000810085
0.000794715
0.000780506
0.000767354
0.000755096
0.000743525
0.000732416
0.000721551
0.000710735
0.000699805
0.000688633
0.000677133
0.000665252
0.000652961
0.000640249
0.000627119
0.000613581
0.000599655
0.00058536
0.000570719
0.000555753
0.000540481
0.000524921
0.00050909
0.000493001
0.000476667
0.000460101
0.000443311
0.000426308
0.000409099
0.000391693
0.000374096
0.000356317
0.000338361
0.000320235
0.000301944
0.000283495
0.000264892
0.000246139
0.000227241
0.000208201
0.000189021
0.000169703
0.00015025
0.000130661
0.000110937
9.10779e-05
7.10836e-05
5.09533e-05
3.06867e-05
1.02843e-05
0.003229
0.00314341
0.00304628
0.00293948
0.00282586
0.00270914
0.00259267
0.00247906
0.00237029
0.00226784
0.00217266
0.00208524
0.00200562
0.00193351
0.0018684
0.00180957
0.00175626
0.00170768
0.00166307
0.00162175
0.00158311
0.00154663
0.0015119
0.00147857
0.00144637
0.00141508
0.00138455
0.00135464
0.00132527
0.00129637
0.00126788
0.00123979
0.00121205
0.00118468
0.00115766
0.001131
0.00110472
0.00107884
0.00105339
0.0010284
0.00100393
0.00098001
0.000956715
0.000934107
0.000912262
0.00089126
0.000871183
0.000852109
0.000834104
0.000817209
0.000801431
0.000786729
0.00077301
0.000760132
0.000747915
0.000736165
0.000724685
0.000713302
0.000701862
0.000690247
0.000678368
0.00066617
0.000653617
0.000640691
0.000627388
0.000613714
0.000599681
0.000585303
0.000570599
0.000555584
0.000540277
0.000524692
0.000508845
0.000492746
0.000476409
0.000459843
0.000443057
0.000426061
0.000408862
0.000391468
0.000373885
0.000356121
0.000338181
0.000320071
0.000301796
0.000283363
0.000264775
0.000246037
0.000227153
0.000208125
0.000188957
0.00016965
0.000150206
0.000130625
0.000110909
9.10561e-05
7.10673e-05
5.09416e-05
3.06784e-05
1.02764e-05
0.00316999
0.00309111
0.00300297
0.00290644
0.00280341
0.00269689
0.00258981
0.0024845
0.00238279
0.00228604
0.00219522
0.00211087
0.00203318
0.00196203
0.00189706
0.00183776
0.00178353
0.00173373
0.00168774
0.00164495
0.00160484
0.00156694
0.00153086
0.00149629
0.00146294
0.00143061
0.00139914
0.00136839
0.00133826
0.00130869
0.0012796
0.00125098
0.00122278
0.00119499
0.00116761
0.00114063
0.00111408
0.00108797
0.00106231
0.00103716
0.00101253
0.000988488
0.000965076
0.000942356
0.000920394
0.000899258
0.000879019
0.000859741
0.000841474
0.000824251
0.000808069
0.000792888
0.000778626
0.000765157
0.000752326
0.000739962
0.000727892
0.000715958
0.00070402
0.000691965
0.000679707
0.000667186
0.000654364
0.000641215
0.000627732
0.000613912
0.000599763
0.000585294
0.000570519
0.00055545
0.000540102
0.000524488
0.000508619
0.000492507
0.000476163
0.000459595
0.000442812
0.000425821
0.000408631
0.000391247
0.000373677
0.000355927
0.000338001
0.000319906
0.000301648
0.00028323
0.000264657
0.000245934
0.000227063
0.000208048
0.000188892
0.000169595
0.00015016
0.000130588
0.000110879
9.1033e-05
7.10498e-05
5.0929e-05
3.06694e-05
1.02694e-05
0.0031166
0.00304345
0.00296287
0.00287509
0.00278127
0.00268382
0.00258524
0.00248758
0.00239249
0.00230122
0.00221472
0.00213355
0.00205801
0.00198809
0.0019236
0.00186418
0.00180937
0.00175867
0.00171156
0.00166755
0.00162616
0.001587
0.0015497
0.00151396
0.00147954
0.00144622
0.00141384
0.00138226
0.0013514
0.00132115
0.00129147
0.00126231
0.00123364
0.00120543
0.00117768
0.00115038
0.00112354
0.00109718
0.00107131
0.00104597
0.00102118
0.000996992
0.000973445
0.000950593
0.000928494
0.000907206
0.000886786
0.000867288
0.00084875
0.000831194
0.000814614
0.00079897
0.000784187
0.000770156
0.000756741
0.000743791
0.000731155
0.000718688
0.000706264
0.000693776
0.00068114
0.000668295
0.000655197
0.00064182
0.000628148
0.000614174
0.000599901
0.000585334
0.00057048
0.000555351
0.000539957
0.000524308
0.000508415
0.000492286
0.000475932
0.000459359
0.000442576
0.000425589
0.000408406
0.000391031
0.000373473
0.000355735
0.000337823
0.000319743
0.000301499
0.000283096
0.000264538
0.000245829
0.000226972
0.000207969
0.000188824
0.000169539
0.000150113
0.00013055
0.000110848
9.10086e-05
7.10313e-05
5.09154e-05
3.06599e-05
1.02631e-05
0.00306816
0.00299998
0.00292582
0.00284551
0.0027597
0.00267027
0.00257934
0.00248868
0.00239975
0.0023137
0.00223141
0.00215347
0.00208023
0.00201179
0.00194806
0.00188881
0.00183373
0.00178241
0.00173445
0.00168943
0.00164696
0.00160669
0.00156829
0.0015315
0.00149607
0.00146182
0.00142857
0.00139621
0.00136461
0.00133372
0.00130344
0.00127375
0.0012446
0.00121596
0.00118783
0.0011602
0.00113307
0.00110645
0.00108036
0.00105482
0.00102985
0.0010055
0.000981796
0.000958795
0.00093654
0.000915081
0.000894465
0.000874734
0.000855917
0.000838028
0.000821056
0.000804964
0.000789682
0.000775115
0.000761144
0.000747636
0.000734457
0.000721478
0.000708582
0.000695669
0.000682658
0.000669487
0.000656112
0.000642501
0.000628633
0.000614499
0.000600095
0.000585422
0.000570484
0.000555289
0.000539843
0.000524155
0.000508233
0.000492084
0.000475716
0.000459136
0.00044235
0.000425366
0.000408187
0.000390821
0.000373272
0.000355546
0.000337648
0.000319582
0.000301352
0.000282963
0.000264419
0.000245724
0.00022688
0.00020789
0.000188756
0.000169481
0.000150065
0.00013051
0.000110816
9.09831e-05
7.10117e-05
5.0901e-05
3.06501e-05
1.02574e-05
0.00302414
0.00296028
0.00289163
0.00281774
0.00273888
0.00265653
0.00257244
0.00248815
0.00240492
0.00232379
0.00224556
0.00217084
0.00209999
0.0020332
0.00197046
0.00191165
0.00185655
0.00180487
0.0017563
0.00171049
0.00166713
0.00162591
0.00158655
0.0015488
0.00151246
0.00147733
0.00144327
0.00141014
0.00137786
0.00134632
0.00131546
0.00128524
0.00125562
0.00122656
0.00119804
0.00117007
0.00114264
0.00111575
0.00108942
0.00106366
0.0010385
0.00101397
0.000990105
0.000966938
0.000944511
0.000922865
0.000902039
0.000882064
0.000862962
0.00084474
0.000827384
0.000810858
0.000795098
0.000780021
0.000765521
0.000751482
0.000737785
0.000724313
0.000710959
0.000697631
0.00068425
0.000670756
0.000657101
0.000643252
0.000629184
0.000614883
0.000600342
0.000585557
0.000570529
0.000555262
0.000539759
0.000524028
0.000508073
0.0004919
0.000475516
0.000458926
0.000442136
0.000425152
0.000407977
0.000390617
0.000373077
0.000355362
0.000337475
0.000319422
0.000301206
0.000282831
0.000264301
0.000245618
0.000226787
0.000207809
0.000188687
0.000169422
0.000150015
0.000130469
0.000110782
9.09566e-05
7.09913e-05
5.0886e-05
3.06399e-05
1.02518e-05
0.00298408
0.00292402
0.00286012
0.00279176
0.00271894
0.00264282
0.00256484
0.00248631
0.00240832
0.00233178
0.00225744
0.00218587
0.00211746
0.00205243
0.00199086
0.0019327
0.00187781
0.00182601
0.00177704
0.00173065
0.00168657
0.00164456
0.00160436
0.00156577
0.0015286
0.00149267
0.00145784
0.001424
0.00139104
0.00135889
0.00132747
0.00129673
0.00126664
0.00123715
0.00120826
0.00117994
0.0011522
0.00112504
0.00109846
0.00107247
0.00104711
0.00102239
0.00099834
0.000974992
0.000952379
0.000930533
0.000909485
0.000889258
0.000869868
0.000851315
0.000833584
0.000816639
0.000800423
0.00078486
0.000769858
0.000755314
0.000741122
0.000727178
0.000713382
0.00069965
0.000685907
0.000672092
0.000658158
0.000644069
0.000629797
0.000615325
0.000600641
0.000585739
0.000570616
0.000555271
0.000539708
0.000523928
0.000507937
0.000491737
0.000475334
0.000458732
0.000441935
0.000424948
0.000407775
0.000390421
0.000372888
0.000355182
0.000337307
0.000319265
0.000301062
0.0002827
0.000264183
0.000245513
0.000226694
0.000207728
0.000188617
0.000169362
0.000149965
0.000130427
0.000110748
9.09292e-05
7.09701e-05
5.08704e-05
3.06294e-05
1.02463e-05
0.00294761
0.00289089
0.00283112
0.00276755
0.00269999
0.00262933
0.00255678
0.00248343
0.00241022
0.00233795
0.00226729
0.00219878
0.0021328
0.00206962
0.00200934
0.001952
0.00189752
0.00184579
0.00179663
0.00174984
0.00170521
0.00166255
0.00162165
0.00158233
0.00154441
0.00150775
0.00147222
0.00143771
0.00140412
0.00137138
0.00133941
0.00130817
0.00127761
0.00124771
0.00121843
0.00118977
0.00116172
0.00113427
0.00110744
0.00108122
0.00105564
0.00103072
0.00100647
0.000982931
0.000960119
0.000938062
0.000916782
0.000896298
0.000876617
0.000857737
0.00083964
0.000822291
0.000805638
0.000789613
0.000774135
0.000759112
0.000744449
0.000730053
0.000715833
0.000701709
0.000687611
0.000673481
0.000659269
0.00064494
0.000630463
0.000615817
0.000600986
0.000585963
0.000570739
0.000555314
0.000539685
0.000523854
0.000507823
0.000491593
0.000475168
0.000458551
0.000441746
0.000424755
0.000407582
0.000390231
0.000372705
0.000355007
0.000337141
0.000319111
0.00030092
0.00028257
0.000264065
0.000245408
0.000226601
0.000207646
0.000188546
0.000169301
0.000149913
0.000130384
0.000110713
9.09008e-05
7.0948e-05
5.08541e-05
3.06185e-05
1.02406e-05
0.0029144
0.00286066
0.00280449
0.00274507
0.00268209
0.00261622
0.00254848
0.00247978
0.00241091
0.00234257
0.00227535
0.00220976
0.00214618
0.00208486
0.00202596
0.00196957
0.00191565
0.00186416
0.00181497
0.00176795
0.00172294
0.00167977
0.00163829
0.00159834
0.00155978
0.00152247
0.0014863
0.00145117
0.00141699
0.00138369
0.0013512
0.00131948
0.00128847
0.00125815
0.0012285
0.0011995
0.00117113
0.0011434
0.0011163
0.00108985
0.00106405
0.00103891
0.00101446
0.000990719
0.000967698
0.000945422
0.000923906
0.000903161
0.000883191
0.000863989
0.000845537
0.0008278
0.000810731
0.000794268
0.000778339
0.000762862
0.000747753
0.000732926
0.000718299
0.000703799
0.000689357
0.000674917
0.00066043
0.000645864
0.000631181
0.000616359
0.00060138
0.000586231
0.000570904
0.000555393
0.000539696
0.00052381
0.000507735
0.000491472
0.000475023
0.000458389
0.000441572
0.000424575
0.000407401
0.000390051
0.00037253
0.000354839
0.000336982
0.000318962
0.000300782
0.000282444
0.000263951
0.000245305
0.00022651
0.000207566
0.000188476
0.000169241
0.000149862
0.000130341
0.000110677
9.08722e-05
7.09257e-05
5.08376e-05
3.06075e-05
1.02349e-05
0.0028842
0.00283309
0.00278007
0.00272427
0.00266528
0.00260362
0.00254013
0.00247558
0.00241064
0.0023459
0.0022819
0.00221908
0.00215781
0.00209836
0.0020409
0.00198553
0.0019323
0.00188118
0.00183212
0.00178501
0.00173974
0.0016962
0.00165425
0.00161378
0.00157466
0.00153677
0.00150003
0.00146433
0.0014296
0.00139578
0.00136279
0.0013306
0.00129916
0.00126845
0.00123842
0.00120908
0.0011804
0.00115238
0.00112502
0.00109832
0.00107229
0.00104694
0.00102227
0.000998317
0.000975081
0.000952579
0.000930821
0.000909814
0.000889557
0.000870041
0.000851244
0.000833135
0.00081567
0.000798793
0.000782437
0.000766532
0.000751
0.000735764
0.000720749
0.000705887
0.000691112
0.000676371
0.000661615
0.000646816
0.00063193
0.000616931
0.000601802
0.000586526
0.000571093
0.000555495
0.000539726
0.000523783
0.000507663
0.000491366
0.00047489
0.000458237
0.000441408
0.000424404
0.000407226
0.000389877
0.00037236
0.000354675
0.000336826
0.000318816
0.000300645
0.000282318
0.000263836
0.000245202
0.000226418
0.000207484
0.000188404
0.000169179
0.000149809
0.000130296
0.000110641
9.08425e-05
7.09024e-05
5.08202e-05
3.05958e-05
1.02287e-05
0.00285164
0.00280331
0.00275355
0.00270148
0.00264661
0.00258931
0.00253025
0.00247007
0.00240931
0.00234845
0.00228796
0.00222822
0.00216958
0.0021123
0.00205656
0.0020025
0.00195019
0.00189966
0.00185088
0.00180382
0.00175842
0.00171458
0.00167222
0.00163124
0.00159157
0.0015531
0.00151575
0.00147945
0.00144413
0.00140974
0.0013762
0.00134349
0.00131157
0.00128039
0.00124995
0.00122021
0.00119117
0.00116282
0.00113514
0.00110815
0.00108184
0.00105623
0.00103131
0.00100709
0.000983598
0.000960825
0.00093878
0.000917464
0.000896873
0.000876993
0.000857804
0.000839274
0.000821363
0.000804021
0.00078719
0.000770806
0.0007548
0.000739105
0.000723653
0.000708381
0.000693228
0.000678143
0.000663081
0.000648004
0.000632876
0.000617669
0.00060236
0.000586932
0.000571371
0.000555666
0.000539809
0.000523794
0.000507617
0.000491274
0.000474764
0.000458086
0.000441239
0.000424223
0.00040704
0.00038969
0.000372174
0.000354495
0.000336654
0.000318652
0.000300493
0.000282177
0.000263707
0.000245085
0.000226313
0.000207392
0.000188323
0.000169108
0.000149749
0.000130245
0.000110598
9.08081e-05
7.08754e-05
5.08002e-05
3.05824e-05
1.02217e-05
0.00281808
0.00277253
0.00272597
0.00267754
0.00262669
0.00257365
0.00251897
0.00246315
0.0024066
0.00234971
0.00229288
0.00223642
0.00218064
0.00212579
0.00207205
0.00201957
0.00196845
0.00191876
0.00187051
0.00182372
0.00177834
0.00173435
0.0016917
0.00165031
0.00161015
0.00157113
0.0015332
0.0014963
0.00146038
0.00142538
0.00139127
0.001358
0.00132555
0.00129387
0.00126295
0.00123277
0.00120332
0.00117457
0.00114654
0.0011192
0.00109257
0.00106664
0.00104141
0.0010169
0.00099309
0.000969997
0.000947617
0.000925945
0.000904973
0.000884686
0.000865061
0.00084607
0.000827674
0.000809829
0.000792484
0.000775583
0.000759068
0.000742876
0.000726948
0.000711227
0.000695657
0.000680186
0.000664757
0.000649394
0.000633996
0.00061855
0.000603034
0.000587428
0.000571717
0.000555886
0.000539925
0.000523824
0.000507578
0.000491181
0.000474628
0.000457918
0.000441049
0.000424019
0.000406827
0.000389474
0.00037196
0.000354286
0.000336453
0.000318462
0.000300314
0.000282011
0.000263555
0.000244947
0.000226188
0.000207281
0.000188225
0.000169023
0.000149675
0.000130183
0.000110546
9.07651e-05
7.08413e-05
5.07745e-05
3.05647e-05
1.02122e-05
0.00278772
0.00274463
0.00270091
0.00265565
0.00260829
0.00255898
0.00250814
0.00245616
0.00240338
0.00235009
0.0022966
0.0022432
0.00219015
0.00213765
0.0020859
0.00203505
0.00198522
0.00193648
0.00188891
0.00184252
0.00179734
0.00175335
0.00171054
0.00166888
0.00162834
0.00158888
0.00155046
0.00151303
0.00147657
0.00144103
0.00140638
0.00137258
0.00133961
0.00130745
0.00127606
0.00124544
0.00121557
0.00118643
0.00115802
0.00113033
0.00110335
0.00107709
0.00105154
0.0010267
0.00100257
0.000979146
0.000956419
0.000934383
0.000913027
0.000892333
0.000872278
0.000852835
0.000833969
0.000815639
0.000797801
0.000780404
0.000763398
0.000746728
0.000730341
0.000714185
0.00069821
0.000682373
0.000666641
0.000650921
0.000635236
0.000619544
0.000603814
0.000588024
0.000572154
0.000556189
0.000540116
0.000523922
0.0005076
0.000491141
0.00047454
0.000457793
0.000440896
0.000423846
0.000406642
0.000389282
0.000371767
0.000354095
0.000336267
0.000318284
0.000300146
0.000281854
0.00026341
0.000244814
0.000226068
0.000207173
0.00018813
0.00016894
0.000149603
0.000130121
0.000110494
9.07226e-05
7.08074e-05
5.07489e-05
3.05472e-05
1.02026e-05
0.00276101
0.00272004
0.00267869
0.0026361
0.00259165
0.00254545
0.00249783
0.00244911
0.00239953
0.00234934
0.00229878
0.00224808
0.00219747
0.00214714
0.00209726
0.00204799
0.00199944
0.00195171
0.00190489
0.00185902
0.00181415
0.0017703
0.00172747
0.00168567
0.00164489
0.00160511
0.0015663
0.00152846
0.00149155
0.00145554
0.00142042
0.00138615
0.00135273
0.00132012
0.0012883
0.00125727
0.001227
0.00119749
0.00116873
0.0011407
0.00111339
0.00108681
0.00106095
0.0010358
0.00101135
0.0009876
0.00096454
0.000942159
0.00092044
0.000899367
0.000878915
0.000859057
0.000839762
0.000820992
0.000802706
0.000784862
0.000767412
0.000750308
0.000733503
0.000716949
0.0007006
0.000684412
0.000668349
0.000652359
0.000636417
0.000620494
0.000604561
0.000588595
0.000572574
0.00055648
0.000540297
0.000524013
0.000507616
0.000491098
0.00047445
0.000457666
0.000440742
0.000423673
0.000406456
0.00038909
0.000371572
0.000353902
0.000336079
0.000318103
0.000299975
0.000281694
0.000263262
0.000244678
0.000225945
0.000207062
0.000188031
0.000168853
0.000149527
0.000130056
0.000110439
9.06767e-05
7.07703e-05
5.07201e-05
3.05267e-05
1.01911e-05
0.00273918
0.00269995
0.00266054
0.00262009
0.00257798
0.00253428
0.00248926
0.00244317
0.00239621
0.00234857
0.00230044
0.00225203
0.0022035
0.00215505
0.00210683
0.00205898
0.00201162
0.00196486
0.00191879
0.00187348
0.00182898
0.00178535
0.0017426
0.00170076
0.00165984
0.00161984
0.00158076
0.00154259
0.00150532
0.00146893
0.00143341
0.00139874
0.00136492
0.00133191
0.00129971
0.0012683
0.00123768
0.00120782
0.00117871
0.00115036
0.00112274
0.00109585
0.00106968
0.00104423
0.00101948
0.000995418
0.000972041
0.000949333
0.000927275
0.000905849
0.000885032
0.000864797
0.000845113
0.000825947
0.000807262
0.000789016
0.000771169
0.000753675
0.000736494
0.000719581
0.000702891
0.000686387
0.000670024
0.000653768
0.000637587
0.000621449
0.000605326
0.000589192
0.000573026
0.000556807
0.000540518
0.000524145
0.000507674
0.000491095
0.000474399
0.000457577
0.000440623
0.000423533
0.000406302
0.000388926
0.000371404
0.000353734
0.000335914
0.000317944
0.000299823
0.000281551
0.000263128
0.000244555
0.000225833
0.000206961
0.000187941
0.000168773
0.000149457
0.000129995
0.000110387
9.06335e-05
7.07348e-05
5.06918e-05
3.05055e-05
1.01776e-05
0.00272266
0.0026847
0.00264668
0.00260777
0.00256735
0.00252544
0.00248228
0.00243809
0.00239303
0.00234725
0.00230091
0.00225418
0.00220723
0.00216021
0.00211326
0.00206651
0.0020201
0.00197413
0.00192869
0.00188386
0.00183972
0.00179631
0.00175369
0.00171188
0.0016709
0.00163079
0.00159153
0.00155315
0.00151563
0.00147897
0.00144317
0.00140822
0.0013741
0.0013408
0.00130831
0.00127663
0.00124573
0.0012156
0.00118624