/*--------------------------------*- C++ -*----------------------------------*\
| =========                 |                                                 |
| \\      /  F ield         | OpenFOAM: The Open Source CFD Toolbox           |
|  \\    /   O peration     | Version:  2.3.0                                 |
|   \\  /    A nd           | Web:      www.OpenFOAM.org                      |
|    \\/     M anipulation  |                                                 |
\*---------------------------------------------------------------------------*/
FoamFile
{
    version     2.0;
    format      ascii;
    class       surfaceScalarField;
    location    "0.2";
    object      phi_0;
}
// * * * * * * * * * * * * * * * * * * * * * * * * * * * * * * * * * * * * * //

dimensions      [0 3 -1 0 0 0 0];

internalField   nonuniform List<scalar> 
6598
(
2.8639e-08
2.90218e-09
-3.15412e-08
2.57732e-08
2.86578e-09
2.3087e-08
2.6862e-09
2.06113e-08
2.47579e-09
1.8362e-08
2.24921e-09
1.63499e-08
2.01213e-09
1.4577e-08
1.7729e-09
1.30379e-08
1.53912e-09
1.17207e-08
1.3172e-09
1.06083e-08
1.1124e-09
9.67969e-09
9.286e-10
8.91162e-09
7.68078e-10
8.28013e-09
6.31484e-10
7.7621e-09
5.18029e-10
7.33628e-09
4.25819e-10
6.98403e-09
3.52253e-10
6.68962e-09
2.9441e-10
6.44025e-09
2.49374e-10
6.22579e-09
2.14456e-10
6.03846e-09
1.87329e-10
5.87239e-09
1.66076e-10
5.72321e-09
1.49182e-10
5.58771e-09
1.35491e-10
5.46357e-09
1.24146e-10
5.34904e-09
1.14527e-10
5.24285e-09
1.06196e-10
5.144e-09
9.88434e-11
5.05175e-09
9.22545e-11
4.96547e-09
8.62783e-11
4.88466e-09
8.08067e-11
4.8089e-09
7.576e-11
4.73783e-09
7.1077e-11
4.67112e-09
6.67085e-11
4.6085e-09
6.26133e-11
4.54975e-09
5.87559e-11
4.49464e-09
5.51049e-11
4.44301e-09
5.16324e-11
4.3947e-09
4.83132e-11
4.34957e-09
4.51248e-11
4.30753e-09
4.20466e-11
4.26847e-09
3.90584e-11
4.23233e-09
3.61384e-11
4.19907e-09
3.32599e-11
4.16868e-09
3.03873e-11
4.14121e-09
2.74719e-11
4.11676e-09
2.44492e-11
4.09552e-09
2.1241e-11
4.07775e-09
1.77677e-11
4.06379e-09
1.3962e-11
4.05403e-09
9.75568e-12
4.04886e-09
5.17911e-12
4.04823e-09
6.26206e-13
4.05089e-09
-2.66172e-12
4.05581e-09
-4.91696e-12
4.06225e-09
-6.44314e-12
4.06961e-09
-7.35999e-12
4.07738e-09
-7.76725e-12
4.08515e-09
-7.77503e-12
4.09264e-09
-7.49168e-12
4.09966e-09
-7.01638e-12
4.10609e-09
-6.43225e-12
4.1119e-09
-5.80294e-12
4.11707e-09
-5.17309e-12
4.12164e-09
-4.57103e-12
4.12565e-09
-4.01259e-12
4.12916e-09
-3.50484e-12
4.13221e-09
-3.0491e-12
4.13485e-09
-2.64333e-12
4.13713e-09
-2.28382e-12
4.1391e-09
-1.96607e-12
4.14079e-09
-1.68563e-12
4.14222e-09
-1.43826e-12
4.14344e-09
-1.22015e-12
4.14447e-09
-1.02803e-12
4.14533e-09
-8.59131e-13
4.14604e-09
-7.11011e-13
4.14662e-09
-5.81562e-13
4.14709e-09
-4.69023e-13
4.14746e-09
-3.7176e-13
4.14775e-09
-2.88346e-13
4.14797e-09
-2.17507e-13
4.14813e-09
-1.58054e-13
4.14824e-09
-1.08989e-13
4.14831e-09
-6.92508e-14
4.14834e-09
-3.79699e-14
4.14836e-09
-1.38016e-14
4.14835e-09
5.18679e-15
4.14833e-09
2.09719e-14
4.1483e-09
3.22275e-14
4.14826e-09
4.02952e-14
4.14822e-09
4.40547e-14
4.14817e-09
4.51265e-14
4.14813e-09
4.41841e-14
4.14809e-09
4.14788e-14
4.14805e-09
3.71316e-14
4.14802e-09
3.1882e-14
4.14799e-09
2.59867e-14
4.14797e-09
1.89968e-14
4.14796e-09
9.39433e-15
-9.99167e-15
3.43429e-08
3.15738e-09
-3.45981e-08
3.3775e-08
3.43371e-09
3.29764e-08
3.48477e-09
3.2022e-08
3.43021e-09
3.09669e-08
3.30432e-09
2.98566e-08
3.12241e-09
2.8728e-08
2.90149e-09
2.76094e-08
2.65771e-09
2.65218e-08
2.4048e-09
2.548e-08
2.15416e-09
2.44938e-08
1.91487e-09
2.35684e-08
1.69344e-09
2.2706e-08
1.49385e-09
2.19063e-08
1.31776e-09
2.11671e-08
1.16499e-09
2.04853e-08
1.03407e-09
1.9857e-08
9.22728e-10
1.9278e-08
8.28344e-10
1.87442e-08
7.48285e-10
1.82514e-08
6.801e-10
1.77959e-08
6.21641e-10
1.73739e-08
5.71094e-10
1.69825e-08
5.26981e-10
1.66185e-08
4.88113e-10
1.62795e-08
4.53554e-10
1.59631e-08
4.22564e-10
1.56674e-08
3.94563e-10
1.53905e-08
3.69088e-10
1.5131e-08
3.4577e-10
1.48876e-08
3.24304e-10
1.46589e-08
3.04436e-10
1.4444e-08
2.85953e-10
1.4242e-08
2.68668e-10
1.40522e-08
2.52418e-10
1.38739e-08
2.37059e-10
1.37066e-08
2.22461e-10
1.35497e-08
2.08508e-10
1.34029e-08
1.95093e-10
1.32659e-08
1.82119e-10
1.31385e-08
1.69495e-10
1.30204e-08
1.57131e-10
1.29116e-08
1.44936e-10
1.28121e-08
1.32807e-10
1.27218e-08
1.20629e-10
1.2641e-08
1.0827e-10
1.25699e-08
9.55817e-11
1.25087e-08
8.24196e-11
1.24578e-08
6.86699e-11
1.24175e-08
5.42979e-11
1.23878e-08
3.93837e-11
1.23689e-08
2.41478e-11
1.23606e-08
8.91577e-12
1.2362e-08
-4.04265e-12
1.23702e-08
-1.31461e-11
1.23829e-08
-1.91048e-11
1.23983e-08
-2.2781e-11
1.24152e-08
-2.46842e-11
1.24326e-08
-2.52219e-11
1.24499e-08
-2.47538e-11
1.24665e-08
-2.35965e-11
1.24821e-08
-2.20133e-11
1.24965e-08
-2.02082e-11
1.25096e-08
-1.83289e-11
1.25215e-08
-1.64739e-11
1.25322e-08
-1.47036e-11
1.25418e-08
-1.30503e-11
1.25502e-08
-1.1528e-11
1.25577e-08
-1.01388e-11
1.25643e-08
-8.87825e-12
1.25701e-08
-7.73871e-12
1.25751e-08
-6.71124e-12
1.25795e-08
-5.78698e-12
1.25832e-08
-4.95753e-12
1.25864e-08
-4.2154e-12
1.25891e-08
-3.55391e-12
1.25914e-08
-2.96705e-12
1.25932e-08
-2.44936e-12
1.25948e-08
-1.99578e-12
1.2596e-08
-1.60151e-12
1.2597e-08
-1.26189e-12
1.25977e-08
-9.72486e-13
1.25983e-08
-7.2889e-13
1.25987e-08
-5.2693e-13
1.2599e-08
-3.62433e-13
1.25992e-08
-2.31391e-13
1.25993e-08
-1.29758e-13
1.25994e-08
-5.37835e-14
1.25994e-08
2.53673e-15
1.25994e-08
4.54072e-14
1.25993e-08
7.81727e-14
1.25993e-08
9.75999e-14
1.25992e-08
1.07694e-13
1.25991e-08
1.10272e-13
1.25991e-08
1.0666e-13
1.2599e-08
9.77059e-14
1.2599e-08
8.5521e-14
1.25989e-08
7.09629e-14
1.25989e-08
5.32011e-14
1.25989e-08
2.85636e-14
-1.79148e-14
3.64364e-08
2.97371e-09
-3.62527e-08
3.6529e-08
3.34112e-09
3.64982e-08
3.51556e-09
3.63486e-08
3.57976e-09
3.60898e-08
3.56317e-09
3.57353e-08
3.47687e-09
3.53022e-08
3.33458e-09
3.4808e-08
3.15195e-09
3.42691e-08
2.94372e-09
3.37003e-08
2.72294e-09
3.31144e-08
2.50074e-09
3.2522e-08
2.2859e-09
3.19312e-08
2.08462e-09
3.13483e-08
1.90062e-09
3.07778e-08
1.7355e-09
3.02227e-08
1.58922e-09
2.96847e-08
1.46065e-09
2.91651e-08
1.34801e-09
2.86641e-08
1.24925e-09
2.81819e-08
1.16232e-09
2.77182e-08
1.08534e-09
2.72726e-08
1.01665e-09
2.68448e-08
9.54853e-10
2.64341e-08
8.98806e-10
2.604e-08
8.47585e-10
2.56621e-08
8.00449e-10
2.52999e-08
7.568e-10
2.49528e-08
7.16157e-10
2.46205e-08
6.7812e-10
2.43024e-08
6.42357e-10
2.39983e-08
6.08582e-10
2.37077e-08
5.76545e-10
2.34303e-08
5.46021e-10
2.3166e-08
5.16807e-10
2.29143e-08
4.88716e-10
2.26752e-08
4.61574e-10
2.24485e-08
4.35216e-10
2.22341e-08
4.09488e-10
2.2032e-08
3.8424e-10
2.18421e-08
3.59326e-10
2.16647e-08
3.34598e-10
2.14997e-08
3.099e-10
2.13474e-08
2.85069e-10
2.12081e-08
2.59924e-10
2.10821e-08
2.34282e-10
2.09697e-08
2.07967e-10
2.08713e-08
1.80853e-10
2.07871e-08
1.52914e-10
2.07171e-08
1.24315e-10
2.06609e-08
9.55015e-11
2.06178e-08
6.73018e-11
2.0586e-08
4.06998e-11
2.05659e-08
1.60375e-11
2.05581e-08
-5.36292e-12
2.05603e-08
-2.13051e-11
2.05696e-08
-3.20095e-11
2.05837e-08
-3.87724e-11
2.06009e-08
-4.24898e-11
2.06201e-08
-4.38923e-11
2.06401e-08
-4.36062e-11
2.06602e-08
-4.2154e-11
2.068e-08
-3.9953e-11
2.06989e-08
-3.73194e-11
2.07169e-08
-3.44804e-11
2.07338e-08
-3.15902e-11
2.07495e-08
-2.87478e-11
2.0764e-08
-2.60123e-11
2.07773e-08
-2.34159e-11
2.07894e-08
-2.09736e-11
2.08003e-08
-1.86905e-11
2.08102e-08
-1.65657e-11
2.0819e-08
-1.4596e-11
2.08268e-08
-1.27771e-11
2.08337e-08
-1.11044e-11
2.08397e-08
-9.57378e-12
2.08449e-08
-8.18121e-12
2.08494e-08
-6.92258e-12
2.08532e-08
-5.7936e-12
2.08564e-08
-4.78951e-12
2.08591e-08
-3.90493e-12
2.08612e-08
-3.1339e-12
2.0863e-08
-2.46968e-12
2.08643e-08
-1.90502e-12
2.08654e-08
-1.43204e-12
2.08662e-08
-1.04239e-12
2.08668e-08
-7.27349e-13
2.08672e-08
-4.78096e-13
2.08675e-08
-2.86563e-13
2.08677e-08
-1.45786e-13
2.08678e-08
-4.52061e-14
2.08679e-08
2.37843e-14
2.08679e-08
7.35741e-14
2.0868e-08
1.05029e-13
2.08679e-08
1.20242e-13
2.08679e-08
1.21701e-13
2.08679e-08
1.13915e-13
2.08679e-08
9.89297e-14
2.08678e-08
7.60597e-14
2.08678e-08
3.93454e-14
-3.40727e-14
3.80083e-08
2.75092e-09
-3.77855e-08
3.82329e-08
3.11652e-09
3.84185e-08
3.32987e-09
3.85536e-08
3.4447e-09
3.86308e-08
3.48596e-09
3.86458e-08
3.46193e-09
3.85985e-08
3.38186e-09
3.84926e-08
3.25786e-09
3.83339e-08
3.10242e-09
3.81295e-08
2.92726e-09
3.78874e-08
2.74289e-09
3.76152e-08
2.55812e-09
3.73201e-08
2.37971e-09
3.70084e-08
2.21227e-09
3.66855e-08
2.05843e-09
3.63555e-08
1.91918e-09
3.60218e-08
1.79435e-09
3.56869e-08
1.68296e-09
3.53525e-08
1.5836e-09
3.50201e-08
1.49473e-09
3.46907e-08
1.4148e-09
3.43649e-08
1.34242e-09
3.40434e-08
1.27636e-09
3.37266e-08
1.21558e-09
3.3415e-08
1.15924e-09
3.31088e-08
1.10663e-09
3.28084e-08
1.05718e-09
3.25141e-08
1.01044e-09
3.22262e-08
9.66017e-10
3.1945e-08
9.23584e-10
3.16707e-08
8.82859e-10
3.14037e-08
8.4359e-10
3.11441e-08
8.05551e-10
3.08924e-08
7.68532e-10
3.06488e-08
7.32333e-10
3.04136e-08
6.96766e-10
3.01872e-08
6.61649e-10
2.99699e-08
6.26803e-10
2.9762e-08
5.92052e-10
2.95642e-08
5.57217e-10
2.93766e-08
5.22118e-10
2.92e-08
4.86561e-10
2.90347e-08
4.5035e-10
2.88813e-08
4.13283e-10
2.87404e-08
3.75172e-10
2.86125e-08
3.35876e-10
2.8498e-08
2.95356e-10
2.83972e-08
2.53749e-10
2.831e-08
2.11469e-10
2.82363e-08
1.6929e-10
2.81752e-08
1.28388e-10
2.81257e-08
9.01999e-11
2.80857e-08
5.59659e-11
2.80547e-08
2.56673e-11
2.80341e-08
-6.6374e-13
2.80236e-08
-2.15016e-11
2.80212e-08
-3.64094e-11
2.80253e-08
-4.65444e-11
2.80342e-08
-5.2877e-11
2.80469e-08
-5.62569e-11
2.80622e-08
-5.74176e-11
2.80792e-08
-5.69718e-11
2.80973e-08
-5.54091e-11
2.81159e-08
-5.3104e-11
2.81346e-08
-5.03319e-11
2.81532e-08
-4.72883e-11
2.81713e-08
-4.41082e-11
2.81887e-08
-4.0882e-11
2.82054e-08
-3.76699e-11
2.82212e-08
-3.45116e-11
2.82361e-08
-3.14339e-11
2.825e-08
-2.84561e-11
2.82628e-08
-2.5593e-11
2.82745e-08
-2.28571e-11
2.82852e-08
-2.02596e-11
2.82949e-08
-1.78107e-11
2.83035e-08
-1.55193e-11
2.83111e-08
-1.33934e-11
2.83177e-08
-1.14389e-11
2.83235e-08
-9.65983e-12
2.83284e-08
-8.05784e-12
2.83325e-08
-6.63197e-12
2.8336e-08
-5.37876e-12
2.83389e-08
-4.29212e-12
2.83412e-08
-3.36353e-12
2.83431e-08
-2.58236e-12
2.83445e-08
-1.93625e-12
2.83456e-08
-1.41196e-12
2.83465e-08
-9.95587e-13
2.83471e-08
-6.70598e-13
2.83476e-08
-4.25093e-13
2.83479e-08
-2.45458e-13
2.83481e-08
-1.20602e-13
2.83483e-08
-3.87227e-14
2.83484e-08
1.10057e-14
2.83485e-08
3.96381e-14
2.83485e-08
5.03556e-14
2.83485e-08
4.28106e-14
2.83486e-08
9.34002e-15
-7.8181e-14
3.95422e-08
2.55343e-09
-3.93447e-08
3.97693e-08
2.88944e-09
3.99916e-08
3.10761e-09
4.0197e-08
3.23921e-09
4.03781e-08
3.30494e-09
4.05272e-08
3.31277e-09
4.06394e-08
3.26971e-09
4.07121e-08
3.18513e-09
4.07453e-08
3.06922e-09
4.07407e-08
2.93184e-09
4.07016e-08
2.78207e-09
4.06319e-08
2.6278e-09
4.05362e-08
2.4754e-09
4.04189e-08
2.32952e-09
4.02842e-08
2.19313e-09
4.01356e-08
2.06777e-09
3.99762e-08
1.95384e-09
3.98081e-08
1.85096e-09
3.96335e-08
1.75823e-09
3.94537e-08
1.67454e-09
3.92698e-08
1.59868e-09
3.90828e-08
1.52947e-09
3.88933e-08
1.46588e-09
3.87019e-08
1.40698e-09
3.85091e-08
1.35199e-09
3.83155e-08
1.30027e-09
3.81214e-08
1.25127e-09
3.79273e-08
1.20454e-09
3.77336e-08
1.15971e-09
3.75407e-08
1.11644e-09
3.73491e-08
1.07445e-09
3.71592e-08
1.03348e-09
3.69715e-08
9.93302e-10
3.67863e-08
9.53687e-10
3.66042e-08
9.14425e-10
3.64257e-08
8.75312e-10
3.62512e-08
8.36148e-10
3.60813e-08
7.96732e-10
3.59165e-08
7.56865e-10
3.57573e-08
7.16345e-10
3.56045e-08
6.74964e-10
3.54585e-08
6.32508e-10
3.53201e-08
5.88766e-10
3.51899e-08
5.43537e-10
3.50684e-08
4.96659e-10
3.49562e-08
4.48053e-10
3.48538e-08
3.97787e-10
3.47614e-08
3.46159e-10
3.4679e-08
2.93785e-10
3.46067e-08
2.41663e-10
3.45439e-08
1.91158e-10
3.44903e-08
1.43839e-10
3.44451e-08
1.01116e-10
3.4407e-08
6.37408e-11
3.43748e-08
3.15804e-11
3.43492e-08
4.08648e-12
3.4331e-08
-1.82425e-11
3.43195e-08
-3.50532e-11
3.43139e-08
-4.72104e-11
3.43132e-08
-5.55762e-11
3.43167e-08
-6.09213e-11
3.43236e-08
-6.39206e-11
3.43334e-08
-6.51399e-11
3.43453e-08
-6.50339e-11
3.43589e-08
-6.39549e-11
3.43738e-08
-6.21682e-11
3.43896e-08
-5.98699e-11
3.44059e-08
-5.72025e-11
3.44225e-08
-5.42699e-11
3.44391e-08
-5.11483e-11
3.44556e-08
-4.78957e-11
3.44717e-08
-4.45582e-11
3.44873e-08
-4.11748e-11
3.45022e-08
-3.77807e-11
3.45164e-08
-3.44086e-11
3.45296e-08
-3.10902e-11
3.4542e-08
-2.78561e-11
3.45533e-08
-2.47355e-11
3.45636e-08
-2.17557e-11
3.45729e-08
-1.89416e-11
3.45812e-08
-1.63143e-11
3.45884e-08
-1.38913e-11
3.45947e-08
-1.16849e-11
3.46001e-08
-9.70269e-12
3.46047e-08
-7.94663e-12
3.46086e-08
-6.41365e-12
3.46117e-08
-5.09573e-12
3.46143e-08
-3.9809e-12
3.46163e-08
-3.05386e-12
3.4618e-08
-2.2957e-12
3.46192e-08
-1.68871e-12
3.46202e-08
-1.21314e-12
3.46209e-08
-8.49213e-13
3.46215e-08
-5.77158e-13
3.46219e-08
-3.80212e-13
3.46221e-08
-2.42971e-13
3.46223e-08
-1.54388e-13
3.46225e-08
-1.07824e-13
3.46226e-08
-1.04635e-13
-1.73349e-13
4.11164e-08
2.38311e-09
-4.09461e-08
4.1323e-08
2.68292e-09
4.15375e-08
2.89308e-09
4.17481e-08
3.02859e-09
4.19483e-08
3.10478e-09
4.21317e-08
3.12931e-09
4.22933e-08
3.10817e-09
4.24295e-08
3.04892e-09
4.25386e-08
2.96006e-09
4.26205e-08
2.84998e-09
4.26761e-08
2.72647e-09
4.27074e-08
2.59647e-09
4.27171e-08
2.46571e-09
4.27081e-08
2.33857e-09
4.26832e-08
2.21804e-09
4.2645e-08
2.1059e-09
4.2596e-08
2.00289e-09
4.25379e-08
1.90903e-09
4.24724e-08
1.82379e-09
4.24005e-08
1.74639e-09
4.23233e-08
1.6759e-09
4.22414e-08
1.61137e-09
4.21554e-08
1.5519e-09
4.20657e-08
1.49668e-09
4.19727e-08
1.445e-09
4.18767e-08
1.39626e-09
4.1778e-08
1.34993e-09
4.1677e-08
1.30557e-09
4.15739e-08
1.26281e-09
4.1469e-08
1.2213e-09
4.13627e-08
1.18076e-09
4.12553e-08
1.14091e-09
4.11471e-08
1.10151e-09
4.10385e-08
1.0623e-09
4.09298e-08
1.02308e-09
4.08215e-08
9.83601e-10
4.0714e-08
9.43655e-10
4.06077e-08
9.03017e-10
4.05031e-08
8.61466e-10
4.04007e-08
8.18778e-10
4.03009e-08
7.74727e-10
4.02044e-08
7.29087e-10
4.01115e-08
6.81644e-10
4.00228e-08
6.32209e-10
3.99388e-08
5.80658e-10
3.98599e-08
5.26971e-10
3.97864e-08
4.71307e-10
3.97184e-08
4.14077e-10
3.96562e-08
3.5602e-10
3.95996e-08
2.98238e-10
3.95486e-08
2.4215e-10
3.95032e-08
1.89318e-10
3.94631e-08
1.41152e-10
3.94283e-08
9.85644e-11
3.9398e-08
6.18703e-11
3.93713e-08
3.07785e-11
3.93485e-08
4.62089e-12
3.93301e-08
-1.67154e-11
3.93162e-08
-3.32641e-11
3.93064e-08
-4.57514e-11
3.93003e-08
-5.4889e-11
3.92977e-08
-6.13183e-11
3.92982e-08
-6.55942e-11
3.93013e-08
-6.81775e-11
3.93068e-08
-6.94366e-11
3.93143e-08
-6.96579e-11
3.93235e-08
-6.90595e-11
3.93341e-08
-6.78056e-11
3.93458e-08
-6.60192e-11
3.93585e-08
-6.3794e-11
3.93718e-08
-6.12028e-11
3.93855e-08
-5.83056e-11
3.93995e-08
-5.5154e-11
3.94135e-08
-5.17959e-11
3.94274e-08
-4.82776e-11
3.94409e-08
-4.46455e-11
3.9454e-08
-4.09464e-11
3.94665e-08
-3.72282e-11
3.94783e-08
-3.35383e-11
3.94893e-08
-2.99236e-11
3.94994e-08
-2.64284e-11
3.95086e-08
-2.30935e-11
3.95169e-08
-1.99548e-11
3.95242e-08
-1.70418e-11
3.95307e-08
-1.4377e-11
3.95362e-08
-1.1975e-11
3.9541e-08
-9.84222e-12
3.9545e-08
-7.97785e-12
3.95483e-08
-6.374e-12
3.9551e-08
-5.01628e-12
3.95532e-08
-3.88711e-12
3.95549e-08
-2.96486e-12
3.95563e-08
-2.22533e-12
3.95574e-08
-1.64334e-12
3.95582e-08
-1.19518e-12
3.95588e-08
-8.5851e-13
3.95593e-08
-6.14336e-13
3.95596e-08
-4.48087e-13
3.95599e-08
-3.52797e-13
-3.46072e-13
4.27436e-08
2.23353e-09
-4.2594e-08
4.29288e-08
2.49771e-09
4.31275e-08
2.6944e-09
4.33278e-08
2.82832e-09
4.35232e-08
2.90933e-09
4.37085e-08
2.94403e-09
4.38791e-08
2.93762e-09
4.40317e-08
2.89631e-09
4.41645e-08
2.82724e-09
4.42769e-08
2.73761e-09
4.43691e-08
2.63421e-09
4.44425e-08
2.52311e-09
4.44987e-08
2.40948e-09
4.45399e-08
2.29738e-09
4.45682e-08
2.18973e-09
4.45857e-08
2.08839e-09
4.45943e-08
1.99435e-09
4.45954e-08
1.90789e-09
4.45904e-08
1.8288e-09
4.45802e-08
1.75657e-09
4.45656e-08
1.6905e-09
4.45472e-08
1.62983e-09
4.45252e-08
1.57381e-09
4.45002e-08
1.52175e-09
4.44722e-08
1.47299e-09
4.44415e-08
1.42698e-09
4.44082e-08
1.38323e-09
4.43724e-08
1.34131e-09
4.43344e-08
1.30083e-09
4.42942e-08
1.26147e-09
4.42521e-08
1.22291e-09
4.42081e-08
1.18487e-09
4.41625e-08
1.1471e-09
4.41155e-08
1.10933e-09
4.40673e-08
1.07133e-09
4.4018e-08
1.03285e-09
4.3968e-08
9.93651e-10
4.39175e-08
9.53502e-10
4.38668e-08
9.12163e-10
4.38162e-08
8.69395e-10
4.3766e-08
8.24963e-10
4.37164e-08
7.78638e-10
4.36679e-08
7.30212e-10
4.36206e-08
6.79517e-10
4.35748e-08
6.26462e-10
4.35307e-08
5.71076e-10
4.34884e-08
5.13579e-10
4.3448e-08
4.54441e-10
4.34096e-08
3.94444e-10
4.33731e-08
3.34696e-10
4.33387e-08
2.76568e-10
4.33065e-08
2.21538e-10
4.32767e-08
1.70938e-10
4.32496e-08
1.25702e-10
4.32252e-08
8.62808e-11
4.32033e-08
5.26722e-11
4.31835e-08
2.44243e-11
4.31659e-08
8.972e-13
4.31508e-08
-1.82438e-11
4.31384e-08
-3.33647e-11
4.31286e-08
-4.50929e-11
4.31213e-08
-5.40156e-11
4.31164e-08
-6.06499e-11
4.31137e-08
-6.5434e-11
4.31129e-08
-6.8725e-11
4.31141e-08
-7.08052e-11
4.31169e-08
-7.18929e-11
4.31213e-08
-7.21541e-11
4.3127e-08
-7.17143e-11
4.31338e-08
-7.06686e-11
4.31417e-08
-6.90911e-11
4.31505e-08
-6.7042e-11
4.31599e-08
-6.4573e-11
4.31698e-08
-6.17323e-11
4.31801e-08
-5.85675e-11
4.31906e-08
-5.51276e-11
4.32011e-08
-5.14646e-11
4.32115e-08
-4.76335e-11
4.32217e-08
-4.36925e-11
4.32315e-08
-3.97013e-11
4.32407e-08
-3.57204e-11
4.32495e-08
-3.18091e-11
4.32575e-08
-2.8023e-11
4.32649e-08
-2.44131e-11
4.32715e-08
-2.10227e-11
4.32775e-08
-1.78869e-11
4.32826e-08
-1.50311e-11
4.32871e-08
-1.24708e-11
4.3291e-08
-1.02116e-11
4.32942e-08
-8.24984e-12
4.32969e-08
-6.57458e-12
4.32991e-08
-5.16807e-12
4.33009e-08
-4.00714e-12
4.33023e-08
-3.06534e-12
4.33034e-08
-2.31541e-12
4.33043e-08
-1.73022e-12
4.3305e-08
-1.28463e-12
4.33055e-08
-9.56867e-13
4.33059e-08
-7.30031e-13
-5.96128e-13
4.44263e-08
2.09922e-09
-4.4292e-08
4.45932e-08
2.33085e-09
4.47759e-08
2.51172e-09
4.49633e-08
2.6409e-09
4.51489e-08
2.72373e-09
4.53277e-08
2.76525e-09
4.54955e-08
2.76982e-09
4.56493e-08
2.74254e-09
4.57872e-08
2.68933e-09
4.59084e-08
2.61635e-09
4.60132e-08
2.52946e-09
4.61023e-08
2.43404e-09
4.6177e-08
2.33471e-09
4.62392e-08
2.2352e-09
4.62906e-08
2.13834e-09
4.6333e-08
2.04603e-09
4.63679e-08
1.95941e-09
4.63968e-08
1.87898e-09
4.64208e-08
1.80478e-09
4.64409e-08
1.73654e-09
4.64576e-08
1.67376e-09
4.64715e-08
1.61588e-09
4.64831e-08
1.56229e-09
4.64924e-08
1.51238e-09
4.64998e-08
1.46561e-09
4.65053e-08
1.42146e-09
4.65091e-08
1.37948e-09
4.65111e-08
1.33926e-09
4.65115e-08
1.30043e-09
4.65103e-08
1.26266e-09
4.65076e-08
1.22565e-09
4.65034e-08
1.18912e-09
4.64977e-08
1.15278e-09
4.64906e-08
1.11639e-09
4.64823e-08
1.07968e-09
4.64727e-08
1.04242e-09
4.6462e-08
1.00436e-09
4.64502e-08
9.65245e-10
4.64376e-08
9.24839e-10
4.64241e-08
8.82899e-10
4.64098e-08
8.3919e-10
4.6395e-08
7.93492e-10
4.63796e-08
7.45609e-10
4.63637e-08
6.95398e-10
4.63474e-08
6.42797e-10
4.63306e-08
5.87873e-10
4.63133e-08
5.30876e-10
4.62954e-08
4.72292e-10
4.6277e-08
4.1289e-10
4.62579e-08
3.53716e-10
4.62385e-08
2.96038e-10
4.62188e-08
2.41199e-10
4.61993e-08
1.90417e-10
4.61805e-08
1.44588e-10
4.61625e-08
1.04206e-10
4.61458e-08
6.93847e-11
4.61303e-08
3.9895e-11
4.6116e-08
1.52062e-11
4.6103e-08
-5.24004e-12
4.60915e-08
-2.18695e-11
4.60816e-08
-3.5174e-11
4.60733e-08
-4.56847e-11
4.60665e-08
-5.38807e-11
4.60613e-08
-6.01731e-11
4.60574e-08
-6.49023e-11
4.6055e-08
-6.83416e-11
4.60538e-08
-7.07046e-11
4.60538e-08
-7.21551e-11
4.60549e-08
-7.28173e-11
4.6057e-08
-7.2785e-11
4.606e-08
-7.21299e-11
4.60639e-08
-7.09091e-11
4.60685e-08
-6.91705e-11
4.60737e-08
-6.69581e-11
4.60795e-08
-6.43153e-11
4.60856e-08
-6.12875e-11
4.60921e-08
-5.79243e-11
4.60987e-08
-5.42802e-11
4.61055e-08
-5.04146e-11
4.61122e-08
-4.63915e-11
4.61187e-08
-4.22779e-11
4.6125e-08
-3.81422e-11
4.61311e-08
-3.40518e-11
4.61367e-08
-3.0071e-11
4.6142e-08
-2.62583e-11
4.61467e-08
-2.26642e-11
4.6151e-08
-1.93297e-11
4.61549e-08
-1.6285e-11
4.61582e-08
-1.35494e-11
4.61611e-08
-1.11307e-11
4.61635e-08
-9.02706e-12
4.61656e-08
-7.22754e-12
4.61673e-08
-5.71348e-12
4.61687e-08
-4.46071e-12
4.61698e-08
-3.44205e-12
4.61707e-08
-2.62884e-12
4.61714e-08
-1.99282e-12
4.6172e-08
-1.50745e-12
4.61724e-08
-1.1474e-12
-8.78831e-13
4.61664e-08
1.97631e-09
-4.60435e-08
4.63181e-08
2.17917e-09
4.64862e-08
2.34358e-09
4.66611e-08
2.466e-09
4.68363e-08
2.54853e-09
4.7007e-08
2.59457e-09
4.71692e-08
2.60761e-09
4.732e-08
2.59176e-09
4.74574e-08
2.55187e-09
4.75807e-08
2.4931e-09
4.76896e-08
2.42052e-09
4.77848e-08
2.33882e-09
4.78674e-08
2.25212e-09
4.79388e-08
2.16384e-09
4.80005e-08
2.07665e-09
4.80541e-08
1.99245e-09
4.8101e-08
1.91249e-09
4.81425e-08
1.83744e-09
4.81798e-08
1.76753e-09
4.82136e-08
1.70269e-09
4.82448e-08
1.64262e-09
4.82737e-08
1.58693e-09
4.83009e-08
1.53513e-09
4.83265e-08
1.48675e-09
4.83508e-08
1.4413e-09
4.83739e-08
1.39835e-09
4.83959e-08
1.35748e-09
4.84168e-08
1.31832e-09
4.84368e-08
1.28052e-09
4.84557e-08
1.24376e-09
4.84736e-08
1.20775e-09
4.84905e-08
1.17221e-09
4.85064e-08
1.13687e-09
4.85213e-08
1.10148e-09
4.85352e-08
1.06579e-09
4.85481e-08
1.02954e-09
4.85599e-08
9.92502e-10
4.85707e-08
9.54424e-10
4.85805e-08
9.15068e-10
4.85892e-08
8.74202e-10
4.85968e-08
8.316e-10
4.86032e-08
7.87057e-10
4.86084e-08
7.40399e-10
4.86123e-08
6.91509e-10
4.86148e-08
6.40351e-10
4.86156e-08
5.87018e-10
4.86147e-08
5.31771e-10
4.86119e-08
4.75086e-10
4.86071e-08
4.17684e-10
4.86003e-08
3.60519e-10
4.85916e-08
3.04725e-10
4.85814e-08
2.51495e-10
4.85699e-08
2.01918e-10
4.85576e-08
1.56822e-10
4.85451e-08
1.16704e-10
4.85328e-08
8.17335e-11
4.85209e-08
5.17922e-11
4.85096e-08
2.65198e-11
4.84989e-08
5.40154e-12
4.84891e-08
-1.2055e-11
4.84802e-08
-2.62963e-11
4.84723e-08
-3.77957e-11
4.84655e-08
-4.69931e-11
4.84596e-08
-5.42724e-11
4.84546e-08
-5.99567e-11
4.84506e-08
-6.43095e-11
4.84474e-08
-6.75398e-11
4.84451e-08
-6.98099e-11
4.84435e-08
-7.1244e-11
4.84426e-08
-7.1936e-11
4.84425e-08
-7.19578e-11
4.84429e-08
-7.13653e-11
4.8444e-08
-7.02048e-11
4.84455e-08
-6.85176e-11
4.84475e-08
-6.63436e-11
4.845e-08
-6.37249e-11
4.84528e-08
-6.07076e-11
4.84558e-08
-5.73431e-11
4.84591e-08
-5.36889e-11
4.84625e-08
-4.98083e-11
4.8466e-08
-4.57691e-11
4.84695e-08
-4.16423e-11
4.8473e-08
-3.74996e-11
4.84763e-08
-3.34112e-11
4.84795e-08
-2.94429e-11
4.84825e-08
-2.5654e-11
4.84852e-08
-2.20946e-11
4.84878e-08
-1.88045e-11
4.849e-08
-1.58122e-11
4.8492e-08
-1.31343e-11
4.84938e-08
-1.07765e-11
4.84953e-08
-8.73413e-12
4.84966e-08
-6.99361e-12
4.84976e-08
-5.53439e-12
4.84985e-08
-4.33136e-12
4.84993e-08
-3.35663e-12
4.84998e-08
-2.58136e-12
4.85003e-08
-1.9769e-12
4.85007e-08
-1.51305e-12
-1.14328e-12
4.79659e-08
1.86209e-09
-4.78516e-08
4.81051e-08
2.0399e-09
4.82605e-08
2.18824e-09
4.84238e-08
2.3027e-09
4.8589e-08
2.38332e-09
4.87515e-08
2.43206e-09
4.89076e-08
2.45154e-09
4.90543e-08
2.44502e-09
4.91898e-08
2.41639e-09
4.93129e-08
2.36994e-09
4.94235e-08
2.30998e-09
4.95218e-08
2.24056e-09
4.96085e-08
2.16532e-09
4.9685e-08
2.08738e-09
4.97525e-08
2.00921e-09
4.98122e-08
1.93268e-09
4.98656e-08
1.85907e-09
4.99139e-08
1.78919e-09
4.9958e-08
1.72343e-09
4.99988e-08
1.66187e-09
5.0037e-08
1.60439e-09
5.00732e-08
1.55074e-09
5.01078e-08
1.50057e-09
5.0141e-08
1.4535e-09
5.01732e-08
1.40914e-09
5.02044e-08
1.36711e-09
5.02349e-08
1.32706e-09
5.02646e-08
1.28864e-09
5.02935e-08
1.25153e-09
5.03219e-08
1.21545e-09
5.03495e-08
1.18011e-09
5.03765e-08
1.14524e-09
5.04027e-08
1.1106e-09
5.04283e-08
1.07593e-09
5.04531e-08
1.04099e-09
5.04771e-08
1.00554e-09
5.05002e-08
9.69351e-10
5.05225e-08
9.32186e-10
5.05437e-08
8.9382e-10
5.05639e-08
8.54033e-10
5.05829e-08
8.12617e-10
5.06006e-08
7.69389e-10
5.06168e-08
7.24199e-10
5.06313e-08
6.76955e-10
5.0644e-08
6.27647e-10
5.06546e-08
5.76384e-10
5.0663e-08
5.23428e-10
5.06688e-08
4.69231e-10
5.06721e-08
4.1445e-10
5.06727e-08
3.5994e-10
5.06707e-08
3.06696e-10
5.06664e-08
2.55764e-10
5.06602e-08
2.08099e-10
5.06526e-08
1.64454e-10
5.0644e-08
1.25306e-10
5.06349e-08
9.08546e-11
5.06256e-08
6.10485e-11
5.06165e-08
3.56327e-11
5.06077e-08
1.42046e-11
5.05993e-08
-3.69529e-12
5.05915e-08
-1.85012e-11
5.05844e-08
-3.06339e-11
5.05779e-08
-4.04942e-11
5.05721e-08
-4.84387e-11
5.05669e-08
-5.47721e-11
5.05623e-08
-5.97471e-11
5.05583e-08
-6.35677e-11
5.05549e-08
-6.63947e-11
5.0552e-08
-6.83528e-11
5.05496e-08
-6.95381e-11
5.05477e-08
-7.0024e-11
5.05462e-08
-6.98683e-11
5.05451e-08
-6.91181e-11
5.05444e-08
-6.78149e-11
5.05441e-08
-6.5998e-11
5.0544e-08
-6.37083e-11
5.05443e-08
-6.099e-11
5.05449e-08
-5.78927e-11
5.05457e-08
-5.44719e-11
5.05466e-08
-5.0789e-11
5.05478e-08
-4.69107e-11
5.05491e-08
-4.29071e-11
5.05504e-08
-3.88505e-11
5.05518e-08
-3.4812e-11
5.05532e-08
-3.08597e-11
5.05546e-08
-2.70558e-11
5.0556e-08
-2.34543e-11
5.05573e-08
-2.00994e-11
5.05585e-08
-1.70242e-11
5.05596e-08
-1.42505e-11
5.05606e-08
-1.17884e-11
5.05615e-08
-9.63781e-12
5.05623e-08
-7.78915e-12
5.0563e-08
-6.22523e-12
5.05636e-08
-4.9235e-12
5.05641e-08
-3.85787e-12
5.05645e-08
-3.00041e-12
5.05649e-08
-2.32238e-12
5.05651e-08
-1.79237e-12
-1.36517e-12
4.98272e-08
1.75466e-09
-4.97197e-08
4.99563e-08
1.91078e-09
5.01005e-08
2.044e-09
5.02533e-08
2.14993e-09
5.04091e-08
2.22744e-09
5.05638e-08
2.2774e-09
5.07137e-08
2.30161e-09
5.08562e-08
2.30258e-09
5.09892e-08
2.28341e-09
5.11115e-08
2.24759e-09
5.12228e-08
2.19874e-09
5.1323e-08
2.14033e-09
5.14127e-08
2.07556e-09
5.14929e-08
2.0072e-09
5.15646e-08
1.93754e-09
5.16289e-08
1.86837e-09
5.1687e-08
1.80098e-09
5.17399e-08
1.73624e-09
5.17887e-08
1.67466e-09
5.18341e-08
1.61647e-09
5.18768e-08
1.56168e-09
5.19174e-08
1.51016e-09
5.19563e-08
1.46168e-09
5.19938e-08
1.41597e-09
5.20302e-08
1.37272e-09
5.20657e-08
1.33161e-09
5.21005e-08
1.29234e-09
5.21345e-08
1.2546e-09
5.21679e-08
1.21812e-09
5.22007e-08
1.18262e-09
5.2233e-08
1.14784e-09
5.22647e-08
1.11354e-09
5.22958e-08
1.07948e-09
5.23263e-08
1.04542e-09
5.23562e-08
1.01112e-09
5.23854e-08
9.76377e-10
5.24138e-08
9.40954e-10
5.24413e-08
9.04639e-10
5.24679e-08
8.67219e-10
5.24935e-08
8.28495e-10
5.25178e-08
7.88279e-10
5.25408e-08
7.46411e-10
5.25622e-08
7.02766e-10
5.25819e-08
6.57278e-10
5.25996e-08
6.09958e-10
5.2615e-08
5.60925e-10
5.2628e-08
5.10438e-10
5.26383e-08
4.58914e-10
5.26458e-08
4.06949e-10
5.26505e-08
3.55296e-10
5.26524e-08
3.04825e-10
5.26517e-08
2.5644e-10
5.26488e-08
2.1098e-10
5.26441e-08
1.69114e-10
5.26381e-08
1.31292e-10
5.26313e-08
9.77265e-11
5.26239e-08
6.84136e-11
5.26164e-08
4.31713e-11
5.26089e-08
2.16867e-11
5.26016e-08
3.57211e-12
5.25947e-08
-1.15705e-11
5.25882e-08
-2.41202e-11
5.25821e-08
-3.44404e-11
5.25765e-08
-4.28592e-11
5.25714e-08
-4.96617e-11
5.25668e-08
-5.50884e-11
5.25625e-08
-5.93369e-11
5.25587e-08
-6.25657e-11
5.25553e-08
-6.48998e-11
5.25522e-08
-6.64371e-11
5.25494e-08
-6.72537e-11
5.25469e-08
-6.74101e-11
5.25448e-08
-6.69559e-11
5.25429e-08
-6.59347e-11
5.25413e-08
-6.43871e-11
5.25399e-08
-6.23545e-11
5.25388e-08
-5.98814e-11
5.25379e-08
-5.70166e-11
5.25373e-08
-5.38145e-11
5.25368e-08
-5.03351e-11
5.25366e-08
-4.66435e-11
5.25365e-08
-4.28082e-11
5.25365e-08
-3.88999e-11
5.25367e-08
-3.49887e-11
5.2537e-08
-3.11417e-11
5.25373e-08
-2.74212e-11
5.25378e-08
-2.38815e-11
5.25382e-08
-2.0568e-11
5.25387e-08
-1.75154e-11
5.25392e-08
-1.47474e-11
5.25397e-08
-1.22768e-11
5.25402e-08
-1.01061e-11
5.25406e-08
-8.22845e-12
5.2541e-08
-6.62937e-12
5.25414e-08
-5.28875e-12
5.25417e-08
-4.18261e-12
5.2542e-08
-3.28464e-12
5.25422e-08
-2.56721e-12
5.25424e-08
-2.00028e-12
-1.54689e-12
5.17529e-08
1.65266e-09
-5.16509e-08
5.18736e-08
1.79002e-09
5.20083e-08
1.90932e-09
5.21517e-08
2.0066e-09
5.22989e-08
2.08018e-09
5.24462e-08
2.13015e-09
5.25901e-08
2.15763e-09
5.27282e-08
2.16449e-09
5.28585e-08
2.15315e-09
5.29797e-08
2.12642e-09
5.30911e-08
2.08729e-09
5.31927e-08
2.03871e-09
5.32849e-08
1.98344e-09
5.33681e-08
1.92393e-09
5.34434e-08
1.86228e-09
5.35116e-08
1.80015e-09
5.35738e-08
1.73883e-09
5.36308e-08
1.67921e-09
5.36836e-08
1.62189e-09
5.37328e-08
1.56719e-09
5.37793e-08
1.51524e-09
5.38234e-08
1.46603e-09
5.38657e-08
1.41941e-09
5.39064e-08
1.37522e-09
5.39459e-08
1.33321e-09
5.39844e-08
1.29313e-09
5.4022e-08
1.25473e-09
5.40589e-08
1.21776e-09
5.4095e-08
1.18196e-09
5.41305e-08
1.14709e-09
5.41655e-08
1.11292e-09
5.41998e-08
1.07921e-09
5.42335e-08
1.04574e-09
5.42667e-08
1.01229e-09
5.42991e-08
9.78656e-10
5.43309e-08
9.44617e-10
5.43619e-08
9.09971e-10
5.4392e-08
8.74516e-10
5.44211e-08
8.3806e-10
5.44492e-08
8.00422e-10
5.44761e-08
7.61436e-10
5.45015e-08
7.20965e-10
5.45254e-08
6.78909e-10
5.45474e-08
6.35222e-10
5.45674e-08
5.89933e-10
5.45852e-08
5.43169e-10
5.46005e-08
4.95177e-10
5.4613e-08
4.46343e-10
5.46228e-08
3.97199e-10
5.46297e-08
3.48408e-10
5.46338e-08
3.00725e-10
5.46353e-08
2.54932e-10
5.46345e-08
2.11757e-10
5.46318e-08
1.71798e-10
5.46276e-08
1.35467e-10
5.46224e-08
1.02981e-10
5.46164e-08
7.43719e-11
5.46101e-08
4.9513e-11
5.46036e-08
2.81601e-11
5.45972e-08
9.99591e-12
5.4591e-08
-5.32757e-12
5.4585e-08
-1.81491e-11
5.45793e-08
-2.87955e-11
5.4574e-08
-3.75661e-11
5.45691e-08
-4.47259e-11
5.45645e-08
-5.0502e-11
5.45603e-08
-5.5084e-11
5.45563e-08
-5.86266e-11
5.45527e-08
-6.12544e-11
5.45493e-08
-6.30662e-11
5.45462e-08
-6.41407e-11
5.45433e-08
-6.45411e-11
5.45407e-08
-6.432e-11
5.45383e-08
-6.35235e-11
5.45361e-08
-6.21944e-11
5.45341e-08
-6.03758e-11
5.45323e-08
-5.81129e-11
5.45308e-08
-5.54549e-11
5.45294e-08
-5.24557e-11
5.45283e-08
-4.91744e-11
5.45273e-08
-4.56743e-11
5.45265e-08
-4.20222e-11
5.45259e-08
-3.82865e-11
5.45254e-08
-3.45353e-11
5.45251e-08
-3.08337e-11
5.4525e-08
-2.72421e-11
5.45249e-08
-2.38139e-11
5.45249e-08
-2.05937e-11
5.4525e-08
-1.76161e-11
5.45252e-08
-1.49057e-11
5.45254e-08
-1.24761e-11
5.45256e-08
-1.03315e-11
5.45258e-08
-8.46698e-12
5.45261e-08
-6.8703e-12
5.45263e-08
-5.52354e-12
5.45265e-08
-4.40485e-12
5.45267e-08
-3.48985e-12
5.45269e-08
-2.75267e-12
5.45271e-08
-2.16589e-12
-1.70117e-12
5.37457e-08
1.55507e-09
-5.36481e-08
5.38596e-08
1.67615e-09
5.39861e-08
1.78282e-09
5.4121e-08
1.87164e-09