/*--------------------------------*- C++ -*----------------------------------*\
| =========                 |                                                 |
| \\      /  F ield         | OpenFOAM: The Open Source CFD Toolbox           |
|  \\    /   O peration     | Version:  2.3.0                                 |
|   \\  /    A nd           | Web:      www.OpenFOAM.org                      |
|    \\/     M anipulation  |                                                 |
\*---------------------------------------------------------------------------*/
FoamFile
{
    version     2.0;
    format      ascii;
    class       surfaceScalarField;
    location    "0.35";
    object      phi_0;
}
// * * * * * * * * * * * * * * * * * * * * * * * * * * * * * * * * * * * * * //

dimensions      [0 3 -1 0 0 0 0];

internalField   nonuniform List<scalar> 
4357
(
5.05489e-08
1.71272e-09
-5.22617e-08
4.83868e-08
2.16213e-09
4.59869e-08
2.39989e-09
4.35298e-08
2.45717e-09
4.10827e-08
2.44708e-09
3.8646e-08
2.43672e-09
3.62129e-08
2.43302e-09
3.37899e-08
2.42302e-09
3.13923e-08
2.39762e-09
2.90402e-08
2.35207e-09
2.67556e-08
2.28459e-09
2.45611e-08
2.19451e-09
2.24797e-08
2.08137e-09
2.05363e-08
1.94342e-09
1.87523e-08
1.78401e-09
1.71418e-08
1.61048e-09
1.57161e-08
1.42569e-09
1.44802e-08
1.23595e-09
1.34316e-08
1.04856e-09
1.25601e-08
8.71541e-10
1.18478e-08
7.12245e-10
1.12722e-08
5.7559e-10
1.08093e-08
4.62933e-10
1.04362e-08
3.73111e-10
1.01323e-08
3.03947e-10
9.87929e-09
2.52966e-10
9.66234e-09
2.16947e-10
9.46997e-09
1.92373e-10
9.29345e-09
1.76513e-10
9.12649e-09
1.6696e-10
8.96501e-09
1.61488e-10
8.80667e-09
1.58339e-10
8.65026e-09
1.56404e-10
8.49519e-09
1.5507e-10
8.34137e-09
1.53819e-10
8.18925e-09
1.52125e-10
8.03967e-09
1.49577e-10
7.89342e-09
1.46252e-10
7.75108e-09
1.42336e-10
7.61307e-09
1.38014e-10
7.47965e-09
1.33422e-10
7.3509e-09
1.28745e-10
7.22694e-09
1.23959e-10
7.10793e-09
1.19012e-10
6.99404e-09
1.13889e-10
6.88526e-09
1.08786e-10
6.78147e-09
1.03788e-10
6.68243e-09
9.90414e-11
6.58788e-09
9.45478e-11
6.49753e-09
9.03471e-11
6.41125e-09
8.62789e-11
6.3289e-09
8.23479e-11
6.25044e-09
7.84659e-11
6.17569e-09
7.47492e-11
6.10454e-09
7.11492e-11
6.03673e-09
6.781e-11
5.97211e-09
6.46239e-11
5.91043e-09
6.16739e-11
5.85165e-09
5.8777e-11
5.79562e-09
5.60308e-11
5.74237e-09
5.32535e-11
5.69176e-09
5.06074e-11
5.64384e-09
4.79249e-11
5.59843e-09
4.54095e-11
5.55557e-09
4.28603e-11
5.51506e-09
4.05111e-11
5.47695e-09
3.81094e-11
5.44103e-09
3.59185e-11
5.40738e-09
3.36516e-11
5.37575e-09
3.1625e-11
5.34625e-09
2.94993e-11
5.31859e-09
2.76638e-11
5.29286e-09
2.57331e-11
5.2687e-09
2.41591e-11
5.24621e-09
2.24878e-11
5.22496e-09
2.12473e-11
5.20507e-09
1.98922e-11
5.18606e-09
1.90117e-11
5.16809e-09
1.79704e-11
5.15065e-09
1.74425e-11
5.13396e-09
1.66865e-11
5.11747e-09
1.6492e-11
5.10142e-09
1.60472e-11
5.08513e-09
1.62945e-11
5.06881e-09
1.6311e-11
5.05168e-09
1.71324e-11
5.03415e-09
1.75338e-11
5.01564e-09
1.85111e-11
4.99716e-09
1.84737e-11
4.97839e-09
1.87752e-11
4.96056e-09
1.78245e-11
4.943e-09
1.75623e-11
4.92672e-09
1.6282e-11
4.91034e-09
1.63752e-11
4.89495e-09
1.53967e-11
4.87894e-09
1.60092e-11
4.86405e-09
1.48862e-11
4.84778e-09
1.62758e-11
4.83271e-09
1.50708e-11
2.06673e-11
5.75612e-08
1.6797e-09
-5.75282e-08
5.75867e-08
2.1366e-09
5.74449e-08
2.54169e-09
5.71041e-08
2.798e-09
5.66244e-08
2.92674e-09
5.60564e-08
3.00472e-09
5.54114e-08
3.07803e-09
5.46787e-08
3.15575e-09
5.38513e-08
3.225e-09
5.29329e-08
3.27048e-09
5.19335e-08
3.28401e-09
5.08646e-08
3.26335e-09
4.97378e-08
3.20825e-09
4.85622e-08
3.11899e-09
4.73482e-08
2.99806e-09
4.61097e-08
2.8489e-09
4.48603e-08
2.67512e-09
4.36135e-08
2.4828e-09
4.23818e-08
2.28019e-09
4.11764e-08
2.07695e-09
4.00063e-08
1.88241e-09
3.8878e-08
1.70388e-09
3.77956e-08
1.54529e-09
3.6761e-08
1.40775e-09
3.57745e-08
1.29044e-09
3.48349e-08
1.19256e-09
3.39401e-08
1.11178e-09
3.30893e-08
1.04308e-09
3.22795e-08
9.86359e-10
3.15074e-08
9.39023e-10
3.07707e-08
8.98187e-10
3.00674e-08
8.61685e-10
2.93953e-08
8.28466e-10
2.87523e-08
7.9808e-10
2.81363e-08
7.69823e-10
2.75458e-08
7.4259e-10
2.69803e-08
7.1511e-10
2.64386e-08
6.87929e-10
2.59198e-08
6.61176e-10
2.54228e-08
6.35032e-10
2.49465e-08
6.09686e-10
2.44899e-08
5.85317e-10
2.40522e-08
5.61696e-10
2.36327e-08
5.38549e-10
2.32308e-08
5.15763e-10
2.28459e-08
4.93636e-10
2.24774e-08
4.72329e-10
2.21244e-08
4.52084e-10
2.1786e-08
4.32902e-10
2.14616e-08
4.14757e-10
2.11506e-08
3.97294e-10
2.08525e-08
3.80425e-10
2.0567e-08
3.6399e-10
2.02936e-08
3.48171e-10
2.00318e-08
3.32933e-10
1.97811e-08
3.18504e-10
1.9541e-08
3.0472e-10
1.9311e-08
2.91644e-10
1.90908e-08
2.78954e-10
1.88801e-08
2.66734e-10
1.86787e-08
2.54698e-10
1.84862e-08
2.43066e-10
1.83025e-08
2.31619e-10
1.81273e-08
2.20653e-10
1.79603e-08
2.09902e-10
1.78011e-08
1.99696e-10
1.76495e-08
1.89689e-10
1.75052e-08
1.80253e-10
1.73678e-08
1.71001e-10
1.7237e-08
1.62388e-10
1.71126e-08
1.53955e-10
1.6994e-08
1.46284e-10
1.68808e-08
1.38854e-10
1.67727e-08
1.32336e-10
1.66691e-08
1.26104e-10
1.65694e-08
1.20936e-10
1.64732e-08
1.16047e-10
1.63799e-08
1.12291e-10
1.62892e-08
1.08732e-10
1.62003e-08
1.06333e-10
1.6113e-08
1.03985e-10
1.60266e-08
1.02824e-10
1.5941e-08
1.01648e-10
1.58555e-08
1.01845e-10
1.57698e-08
1.02048e-10
1.56831e-08
1.03793e-10
1.55955e-08
1.0513e-10
1.55066e-08
1.07406e-10
1.54172e-08
1.07928e-10
1.53272e-08
1.08732e-10
1.52378e-08
1.0724e-10
1.51485e-08
1.06798e-10
1.50602e-08
1.04613e-10
1.49716e-08
1.04973e-10
1.48835e-08
1.03526e-10
1.47945e-08
1.04995e-10
1.47061e-08
1.03321e-10
1.46162e-08
1.06183e-10
1.45259e-08
1.05339e-10
1.13122e-10
6.25088e-08
1.79686e-09
-6.2626e-08
6.25241e-08
2.12131e-09
6.26133e-08
2.4525e-09
6.26587e-08
2.7526e-09
6.26426e-08
2.94282e-09
6.25884e-08
3.05899e-09
6.25158e-08
3.15056e-09
6.24266e-08
3.24496e-09
6.23119e-08
3.33976e-09
6.21611e-08
3.42129e-09
6.19676e-08
3.47746e-09
6.17278e-08
3.50319e-09
6.14382e-08
3.49784e-09
6.10955e-08
3.46171e-09
6.06979e-08
3.39559e-09
6.0246e-08
3.30079e-09
5.97414e-08
3.17974e-09
5.91875e-08
3.03674e-09
5.85896e-08
2.87804e-09
5.7955e-08
2.71155e-09
5.72916e-08
2.54578e-09
5.66072e-08
2.38833e-09
5.59081e-08
2.2444e-09
5.51992e-08
2.11668e-09
5.44838e-08
2.00583e-09
5.37652e-08
1.91111e-09
5.30468e-08
1.83022e-09
5.23295e-08
1.76036e-09
5.16158e-08
1.7001e-09
5.09069e-08
1.64784e-09
5.02035e-08
1.60166e-09
4.95052e-08
1.55996e-09
4.88118e-08
1.5219e-09
4.8123e-08
1.48689e-09
4.74391e-08
1.45372e-09
4.6761e-08
1.42069e-09
4.60895e-08
1.38656e-09
4.5426e-08
1.35142e-09
4.47713e-08
1.31586e-09
4.4126e-08
1.28038e-09
4.34903e-08
1.24541e-09
4.28644e-08
1.21119e-09
4.22488e-08
1.17735e-09
4.16439e-08
1.14335e-09
4.10507e-08
1.10902e-09
4.04697e-08
1.07462e-09
3.99016e-08
1.04045e-09
3.93468e-08
1.0069e-09
3.88054e-08
9.74265e-10
3.82776e-08
9.42567e-10
3.77634e-08
9.11507e-10
3.7263e-08
8.80856e-10
3.67765e-08
8.50489e-10
3.63041e-08
8.20492e-10
3.58461e-08
7.9101e-10
3.54023e-08
7.62276e-10
3.49727e-08
7.34337e-10
3.45572e-08
7.07167e-10
3.41555e-08
6.80595e-10
3.37677e-08
6.54538e-10
3.33935e-08
6.28872e-10
3.30329e-08
6.0366e-10
3.26856e-08
5.78909e-10
3.23515e-08
5.54752e-10
3.20303e-08
5.31186e-10
3.17216e-08
5.08347e-10
3.14251e-08
4.86156e-10
3.11406e-08
4.64757e-10
3.08676e-08
4.44077e-10
3.06057e-08
4.24303e-10
3.03543e-08
4.05328e-10
3.01131e-08
3.8746e-10
2.98814e-08
3.70569e-10
2.96587e-08
3.55013e-10
2.94442e-08
3.40589e-10
2.92374e-08
3.27729e-10
2.90374e-08
3.16069e-10
2.88436e-08
3.0606e-10
2.86552e-08
2.97209e-10
2.84715e-08
2.90004e-10
2.82917e-08
2.8378e-10
2.81154e-08
2.79157e-10
2.79416e-08
2.75452e-10
2.77699e-08
2.73552e-10
2.75992e-08
2.72688e-10
2.74291e-08
2.73864e-10
2.72587e-08
2.75543e-10
2.7088e-08
2.78109e-10
2.6917e-08
2.78956e-10
2.67463e-08
2.79408e-10
2.65762e-08
2.77388e-10
2.6407e-08
2.75958e-10
2.62385e-08
2.73089e-10
2.60706e-08
2.72878e-10
2.59026e-08
2.71585e-10
2.57346e-08
2.72939e-10
2.5566e-08
2.7192e-10
2.53975e-08
2.7475e-10
2.52266e-08
2.76175e-10
2.84755e-10
6.77907e-08
1.91863e-09
-6.79125e-08
6.77397e-08
2.17228e-09
6.77594e-08
2.43283e-09
6.78132e-08
2.69878e-09
6.78575e-08
2.89854e-09
6.78757e-08
3.04074e-09
6.78814e-08
3.14489e-09
6.7893e-08
3.23338e-09
6.79125e-08
3.32022e-09
6.79328e-08
3.40101e-09
6.79455e-08
3.46477e-09
6.79436e-08
3.50508e-09
6.79216e-08
3.51983e-09
6.78747e-08
3.50859e-09
6.77984e-08
3.47189e-09
6.76884e-08
3.41087e-09
6.75409e-08
3.32716e-09
6.73543e-08
3.22343e-09
6.71282e-08
3.10408e-09
6.68647e-08
2.97503e-09
6.65674e-08
2.84315e-09
6.62408e-08
2.71491e-09
6.58898e-08
2.59538e-09
6.55188e-08
2.48772e-09
6.51311e-08
2.39354e-09
6.47296e-08
2.3126e-09
6.43163e-08
2.24347e-09
6.38925e-08
2.18417e-09
6.34597e-08
2.13288e-09
6.30196e-08
2.08792e-09
6.25736e-08
2.04772e-09
6.21224e-08
2.0111e-09
6.16664e-08
1.9779e-09
6.12051e-08
1.94818e-09
6.07375e-08
1.92132e-09
6.02626e-08
1.89566e-09
5.97797e-08
1.86946e-09
5.92896e-08
1.84154e-09
5.87938e-08
1.81165e-09
5.82942e-08
1.77994e-09
5.77922e-08
1.74745e-09
5.72881e-08
1.71529e-09
5.67814e-08
1.68403e-09
5.62716e-08
1.65313e-09
5.57585e-08
1.62211e-09
5.52428e-08
1.59029e-09
5.47259e-08
1.5574e-09
5.42093e-08
1.52348e-09
5.36942e-08
1.48934e-09
5.31815e-08
1.45528e-09
5.26715e-08
1.42151e-09
5.21647e-08
1.38771e-09
5.16612e-08
1.35397e-09
5.11616e-08
1.32007e-09
5.06663e-08
1.28634e-09
5.01759e-08
1.25266e-09
4.9691e-08
1.21925e-09
4.92125e-08
1.18568e-09
4.87409e-08
1.15215e-09
4.82771e-08
1.1183e-09
4.78215e-08
1.08454e-09
4.73745e-08
1.05064e-09
4.69362e-08
1.01717e-09
4.65072e-08
9.83835e-10
4.60872e-08
9.51162e-10
4.56768e-08
9.18769e-10
4.52758e-08
8.87136e-10
4.48847e-08
8.5583e-10
4.45033e-08
8.25456e-10
4.4132e-08
7.95587e-10
4.37705e-08
7.66882e-10
4.34189e-08
7.39019e-10
4.30768e-08
7.12706e-10
4.27442e-08
6.87594e-10
4.24204e-08
6.64369e-10
4.21055e-08
6.42691e-10
4.17984e-08
6.2311e-10
4.14993e-08
6.05209e-10
4.1207e-08
5.8948e-10
4.09216e-08
5.75444e-10
4.06419e-08
5.63454e-10
4.0368e-08
5.5308e-10
4.00986e-08
5.44779e-10
3.98338e-08
5.38356e-10
3.95721e-08
5.34435e-10
3.93131e-08
5.3286e-10
3.90552e-08
5.33465e-10
3.87988e-08
5.34517e-10
3.85433e-08
5.34445e-10
3.829e-08
5.32639e-10
3.80382e-08
5.29277e-10
3.7789e-08
5.25144e-10
3.75408e-08
5.21247e-10
3.72949e-08
5.18837e-10
3.70486e-08
5.17867e-10
3.6804e-08
5.17545e-10
3.65581e-08
5.17783e-10
3.63139e-08
5.18944e-10
3.60666e-08
5.23467e-10
5.31614e-10
7.34644e-08
2.04187e-09
-7.35877e-08
7.33834e-08
2.25327e-09
7.33526e-08
2.46368e-09
7.33712e-08
2.68021e-09
7.34006e-08
2.86913e-09
7.34212e-08
3.02008e-09
7.34312e-08
3.1349e-09
7.3441e-08
3.2236e-09
7.34575e-08
3.30373e-09
7.3482e-08
3.37656e-09
7.35093e-08
3.43738e-09
7.35333e-08
3.48112e-09
7.35486e-08
3.50453e-09
7.35512e-08
3.50604e-09
7.35373e-08
3.48574e-09
7.35035e-08
3.44471e-09
7.34464e-08
3.38427e-09
7.33634e-08
3.30635e-09
7.32532e-08
3.21433e-09
7.31154e-08
3.11283e-09
7.29515e-08
3.00708e-09
7.27643e-08
2.90204e-09
7.25576e-08
2.80205e-09
7.23351e-08
2.71031e-09
7.20996e-08
2.62898e-09
7.18536e-08
2.55861e-09
7.15985e-08
2.49856e-09
7.13355e-08
2.44718e-09
7.10656e-08
2.40276e-09
7.079e-08
2.36352e-09
7.05097e-08
2.32809e-09
7.02253e-08
2.29548e-09
6.99373e-08
2.26592e-09
6.96456e-08
2.23986e-09
6.93495e-08
2.2174e-09
6.90478e-08
2.19736e-09
6.8739e-08
2.17825e-09
6.84222e-08
2.15833e-09
6.80973e-08
2.13653e-09
6.77653e-08
2.11195e-09
6.74275e-08
2.08523e-09
6.70853e-08
2.05757e-09
6.67387e-08
2.03055e-09
6.63873e-08
2.0046e-09
6.60293e-08
1.98011e-09
6.56637e-08
1.95589e-09
6.52903e-08
1.93074e-09
6.49105e-08
1.90326e-09
6.45257e-08
1.87415e-09
6.41371e-08
1.84389e-09
6.3745e-08
1.81364e-09
6.33496e-08
1.78307e-09
6.2951e-08
1.75256e-09
6.25496e-08
1.72147e-09
6.21454e-08
1.69054e-09
6.17387e-08
1.65939e-09
6.13293e-08
1.62862e-09
6.09178e-08
1.59717e-09
6.05046e-08
1.56538e-09
6.00907e-08
1.53224e-09
5.96766e-08
1.49858e-09
5.92635e-08
1.46377e-09
5.88516e-08
1.42905e-09
5.84417e-08
1.39374e-09
5.80338e-08
1.35908e-09
5.76284e-08
1.32417e-09
5.72254e-08
1.29014e-09
5.68254e-08
1.25587e-09
5.64282e-08
1.22261e-09
5.60346e-08
1.18914e-09
5.56447e-08
1.15686e-09
5.5259e-08
1.12469e-09
5.48776e-08
1.09416e-09
5.45009e-08
1.06423e-09
5.41288e-08
1.03648e-09
5.37617e-08
1.00984e-09
5.3399e-08
9.85727e-10
5.30413e-08
9.62943e-10
5.26879e-08
9.4285e-10
5.23393e-08
9.24101e-10
5.19948e-08
9.07961e-10
5.16548e-08
8.93035e-10
5.13187e-08
8.80907e-10
5.09868e-08
8.70271e-10
5.06578e-08
8.63453e-10
5.03315e-08
8.59097e-10
5.00058e-08
8.59154e-10
4.96816e-08
8.58775e-10
4.93582e-08
8.57852e-10
4.90381e-08
8.52719e-10
4.87197e-08
8.47668e-10
4.84054e-08
8.39416e-10
4.80926e-08
8.34118e-10
4.77833e-08
8.28101e-10
4.74735e-08
8.27668e-10
4.71664e-08
8.24659e-10
4.68576e-08
8.26592e-10
4.65519e-08
8.24584e-10
4.6243e-08
8.32379e-10
8.39882e-10
7.95787e-08
2.16978e-09
-7.97066e-08
7.94813e-08
2.35063e-09
7.94198e-08
2.52519e-09
7.93985e-08
2.70149e-09
7.93988e-08
2.86891e-09
7.94038e-08
3.01507e-09
7.94057e-08
3.13295e-09
7.94025e-08
3.22678e-09
7.94009e-08
3.30538e-09
7.94044e-08
3.37305e-09
7.94118e-08
3.43002e-09
7.94188e-08
3.47408e-09
7.94206e-08
3.50273e-09
7.9413e-08
3.51364e-09
7.9393e-08
3.50575e-09
7.93581e-08
3.47955e-09
7.93059e-08
3.43648e-09
7.9234e-08
3.37829e-09
7.91406e-08
3.30769e-09
7.90254e-08
3.22806e-09
7.88892e-08
3.14325e-09
7.87343e-08
3.05698e-09
7.85633e-08
2.97308e-09
7.8379e-08
2.89455e-09
7.81844e-08
2.8236e-09
7.7982e-08
2.76106e-09
7.77736e-08
2.7069e-09
7.75609e-08
2.65993e-09
7.73447e-08
2.61894e-09
7.71257e-08
2.58248e-09
7.69042e-08
2.54958e-09
7.66806e-08
2.51912e-09
7.64553e-08
2.49123e-09
7.62289e-08
2.46626e-09
7.60015e-08
2.44481e-09
7.57726e-08
2.42625e-09
7.5541e-08
2.40983e-09
7.53056e-08
2.39379e-09
7.50653e-08
2.37683e-09
7.48201e-08
2.35715e-09
7.45704e-08
2.33487e-09
7.43173e-08
2.31068e-09
7.40613e-08
2.28658e-09
7.38024e-08
2.26347e-09
7.35398e-08
2.24275e-09
7.32721e-08
2.22358e-09
7.29982e-08
2.20469e-09
7.27179e-08
2.1835e-09
7.24321e-08
2.15994e-09
7.21419e-08
2.1341e-09
7.18476e-08
2.10792e-09
7.15494e-08
2.08135e-09
7.12468e-08
2.0551e-09
7.09403e-08
2.02802e-09
7.06297e-08
2.00109e-09
7.03153e-08
1.97384e-09
6.99965e-08
1.9474e-09
6.96732e-08
1.92047e-09
6.93451e-08
1.8935e-09
6.90125e-08
1.86481e-09
6.86758e-08
1.83534e-09
6.83355e-08
1.80397e-09
6.79923e-08
1.77232e-09
6.76466e-08
1.73938e-09
6.72988e-08
1.70691e-09
6.69492e-08
1.67375e-09
6.65978e-08
1.64159e-09
6.62447e-08
1.60894e-09
6.58899e-08
1.57745e-09
6.55336e-08
1.54545e-09
6.51758e-08
1.51462e-09
6.4817e-08
1.48345e-09
6.44575e-08
1.45374e-09
6.40976e-08
1.42411e-09
6.37376e-08
1.39651e-09
6.33777e-08
1.36968e-09
6.30181e-08
1.34536e-09
6.26589e-08
1.32213e-09
6.23001e-08
1.30163e-09
6.19421e-08
1.28215e-09
6.15847e-08
1.26532e-09
6.12286e-08
1.24912e-09
6.08736e-08
1.2359e-09
6.05205e-08
1.22337e-09
6.01684e-08
1.21559e-09
5.98172e-08
1.21031e-09
5.94638e-08
1.21249e-09
5.9109e-08
1.2136e-09
5.87522e-08
1.21469e-09
5.83972e-08
1.2077e-09
5.8043e-08
1.2019e-09
5.76931e-08
1.18929e-09
5.73448e-08
1.18241e-09
5.70006e-08
1.17231e-09
5.66552e-08
1.17309e-09
5.63116e-08
1.16824e-09
5.59654e-08
1.17282e-09
5.56224e-08
1.16755e-09
5.52786e-08
1.17617e-09
1.18641e-09
8.61753e-08
2.3039e-09
-8.63094e-08
8.60643e-08
2.46161e-09
8.59802e-08
2.6093e-09
8.5924e-08
2.75769e-09
8.58911e-08
2.9018e-09
8.58717e-08
3.03455e-09
8.58547e-08
3.14987e-09
8.58355e-08
3.24601e-09
8.58155e-08
3.32541e-09
8.57969e-08
3.39166e-09
8.578e-08
3.44692e-09
8.5763e-08
3.49109e-09
8.57427e-08
3.52302e-09
8.57155e-08
3.54081e-09
8.56782e-08
3.54305e-09
8.56281e-08
3.52966e-09
8.55627e-08
3.50189e-09
8.548e-08
3.46099e-09
8.53789e-08
3.40876e-09
8.52593e-08
3.3477e-09
8.51215e-08
3.28104e-09
8.49667e-08
3.21175e-09
8.47969e-08
3.14285e-09
8.46148e-08
3.07668e-09
8.44231e-08
3.01533e-09
8.42243e-08
2.95981e-09
8.40205e-08
2.91071e-09
8.38131e-08
2.86737e-09
8.3603e-08
2.829e-09
8.3391e-08
2.79449e-09
8.31774e-08
2.76323e-09
8.29623e-08
2.73418e-09
8.27462e-08
2.70732e-09
8.25296e-08
2.68282e-09
8.2313e-08
2.66149e-09
8.20963e-08
2.64291e-09
8.18794e-08
2.62674e-09
8.16617e-08
2.61148e-09
8.14425e-08
2.59607e-09
8.12209e-08
2.57872e-09
8.09965e-08
2.55922e-09
8.07695e-08
2.53769e-09
8.05403e-08
2.51585e-09
8.03092e-08
2.49448e-09
8.00766e-08
2.47537e-09
7.9842e-08
2.4582e-09
7.96044e-08
2.44228e-09
7.93631e-08
2.42479e-09
7.9118e-08
2.40504e-09
7.88695e-08
2.38257e-09
7.8618e-08
2.35948e-09
7.83634e-08
2.33593e-09
7.81056e-08
2.31287e-09
7.78447e-08
2.28892e-09
7.75808e-08
2.26501e-09
7.7314e-08
2.24067e-09
7.7044e-08
2.21737e-09
7.67705e-08
2.19394e-09
7.64931e-08
2.17098e-09
7.62113e-08
2.14657e-09
7.59251e-08
2.12153e-09
7.56347e-08
2.09443e-09
7.53402e-08
2.06683e-09
7.50419e-08
2.03762e-09
7.47403e-08
2.00856e-09
7.44355e-08
1.97855e-09
7.41277e-08
1.94938e-09
7.38169e-08
1.91972e-09
7.35031e-08
1.89123e-09
7.31862e-08
1.86238e-09
7.28662e-08
1.83465e-09
7.25429e-08
1.80669e-09
7.22168e-08
1.77989e-09
7.18877e-08
1.75312e-09
7.15563e-08
1.72798e-09
7.12223e-08
1.70362e-09
7.08862e-08
1.68148e-09
7.05478e-08
1.66053e-09
7.02073e-08
1.64213e-09
6.98648e-08
1.62466e-09
6.95205e-08
1.60968e-09
6.91748e-08
1.59475e-09
6.88281e-08
1.58266e-09
6.84813e-08
1.57012e-09
6.81341e-08
1.56282e-09
6.77866e-08
1.55783e-09
6.74352e-08
1.5638e-09
6.70787e-08
1.57009e-09
6.67156e-08
1.5778e-09
6.63509e-08
1.57242e-09
6.59858e-08
1.56702e-09
6.56249e-08
1.5502e-09
6.52668e-08
1.54055e-09
6.49128e-08
1.52622e-09
6.45573e-08
1.52861e-09
6.4201e-08
1.52455e-09
6.38414e-08
1.53248e-09
6.34827e-08
1.52623e-09
6.31321e-08
1.52678e-09
1.54639e-09
9.32932e-08
2.44722e-09
-9.34365e-08
9.31673e-08
2.58753e-09
9.3062e-08
2.71462e-09
9.29778e-08
2.84183e-09
9.29133e-08
2.96637e-09
9.28635e-08
3.08434e-09
9.28214e-08
3.19189e-09
9.27814e-08
3.28603e-09
9.2741e-08
3.3658e-09
9.27002e-08
3.43244e-09
9.26593e-08
3.48784e-09
9.26177e-08
3.53272e-09
9.25738e-08
3.56695e-09
9.25247e-08
3.58984e-09
9.24672e-08
3.60061e-09
9.23981e-08
3.59873e-09
9.23154e-08
3.58463e-09
9.22174e-08
3.55893e-09
9.21034e-08
3.52281e-09
9.19728e-08
3.47824e-09
9.18259e-08
3.42801e-09
9.16632e-08
3.3744e-09
9.14865e-08
3.31959e-09
9.12978e-08
3.26531e-09
9.10996e-08
3.21354e-09
9.0894e-08
3.16545e-09
9.06828e-08
3.12191e-09
9.04675e-08
3.08261e-09
9.02495e-08
3.04704e-09
9.00295e-08
3.01446e-09
8.9808e-08
2.98476e-09
8.95849e-08
2.95729e-09
8.93603e-08
2.93193e-09
8.91346e-08
2.90849e-09
8.89085e-08
2.88759e-09
8.86825e-08
2.86894e-09
8.84568e-08
2.85239e-09
8.82315e-08
2.83683e-09
8.80059e-08
2.82163e-09
8.77793e-08
2.80538e-09
8.75508e-08
2.78771e-09
8.73201e-08
2.76837e-09
8.70873e-08
2.74869e-09
8.68526e-08
2.72914e-09
8.66168e-08
2.7112e-09
8.63802e-08
2.69481e-09
8.61426e-08
2.67988e-09
8.59032e-08
2.66415e-09
8.56615e-08
2.64672e-09
8.54173e-08
2.62683e-09
8.51706e-08
2.60617e-09
8.49216e-08
2.58496e-09
8.46703e-08
2.56415e-09
8.44167e-08
2.54253e-09
8.41608e-08
2.52083e-09
8.39028e-08
2.49867e-09
8.36428e-08
2.4774e-09
8.33805e-08
2.45625e-09
8.31156e-08
2.43582e-09
8.28478e-08
2.41447e-09
8.25765e-08
2.39274e-09
8.23016e-08
2.36933e-09
8.20231e-08
2.34535e-09
8.17408e-08
2.31989e-09
8.14552e-08
2.29423e-09
8.11662e-08
2.26755e-09
8.08743e-08
2.24129e-09
8.05793e-08
2.21468e-09
8.02816e-08
2.18894e-09
7.99808e-08
2.1632e-09
7.9677e-08
2.13837e-09
7.937e-08
2.11377e-09
7.90599e-08
2.09e-09
7.87464e-08
2.06657e-09
7.84301e-08
2.04427e-09
7.81107e-08
2.02306e-09
7.77885e-08
2.0037e-09
7.74631e-08
1.98589e-09
7.71348e-08
1.97044e-09
7.68035e-08
1.956e-09
7.64692e-08
1.94392e-09
7.61325e-08
1.93144e-09
7.57937e-08
1.9215e-09
7.54539e-08
1.90994e-09
7.51126e-08
1.90409e-09
7.47705e-08
1.89993e-09
7.44265e-08
1.90779e-09
7.40763e-08
1.9203e-09
7.37165e-08
1.93763e-09
7.33526e-08
1.93632e-09
7.29875e-08
1.93205e-09
7.26258e-08
1.91196e-09
7.22671e-08
1.89919e-09
7.19111e-08
1.88228e-09
7.15525e-08
1.88718e-09
7.11896e-08
1.88749e-09
7.08226e-08
1.89947e-09
7.04541e-08
1.89475e-09
7.01057e-08
1.87508e-09
1.90928e-09
1.00973e-07
2.60382e-09
-1.01129e-07
1.0083e-07
2.73033e-09
1.00704e-07
2.84036e-09
1.00595e-07
2.95091e-09
1.00501e-07
3.05999e-09
1.00421e-07
3.16489e-09
1.0035e-07
3.26295e-09
1.00284e-07
3.35177e-09
1.0022e-07
3.42975e-09
1.00156e-07
3.49643e-09
1.00091e-07
3.55261e-09
1.00025e-07
3.59898e-09
9.99561e-08
3.63592e-09
9.98825e-08
3.66345e-09
9.98018e-08
3.68123e-09
9.9712e-08
3.68858e-09
9.96109e-08
3.68567e-09
9.94966e-08
3.67324e-09
9.93675e-08
3.652e-09
9.92227e-08
3.62297e-09
9.90629e-08
3.5878e-09
9.88892e-08
3.54818e-09
9.87027e-08
3.5061e-09
9.85047e-08
3.46327e-09
9.82969e-08
3.42138e-09
9.8081e-08
3.3813e-09
9.78591e-08
3.3438e-09
9.76327e-08
3.30899e-09
9.7403e-08
3.27679e-09
9.71706e-08
3.24686e-09
9.6936e-08
3.21938e-09
9.66993e-08
3.19397e-09
9.64608e-08
3.1704e-09
9.62211e-08
3.14824e-09
9.59806e-08
3.12807e-09
9.57397e-08
3.10981e-09
9.54988e-08
3.0933e-09
9.5258e-08
3.07767e-09
9.50171e-08
3.06253e-09
9.47754e-08
3.04702e-09
9.45324e-08
3.03078e-09
9.42874e-08
3.01338e-09
9.40403e-08
2.99577e-09
9.37912e-08
2.97822e-09
9.35408e-08
2.96165e-09
9.32895e-08
2.94603e-09
9.30378e-08
2.93161e-09
9.2785e-08
2.91692e-09
9.25306e-08
2.90109e-09
9.22741e-08
2.88338e-09
9.20153e-08
2.86494e-09
9.17544e-08
2.8459e-09
9.14915e-08
2.82702e-09
9.12266e-08
2.80746e-09
9.09597e-08
2.78771e-09
9.06908e-08
2.76755e-09
9.04202e-08
2.74798e-09
9.01479e-08
2.7286e-09
8.98738e-08
2.70992e-09
8.95975e-08
2.69078e-09
8.93187e-08
2.6715e-09
8.90369e-08
2.65114e-09
8.8752e-08
2.63023e-09
8.84637e-08
2.60821e-09
8.81722e-08
2.58571e-09
8.78774e-08
2.56232e-09
8.75799e-08
2.53885e-09
8.72794e-08
2.51519e-09
8.69764e-08
2.49193e-09
8.66705e-08
2.46905e-09
8.63622e-08
2.44675e-09
8.60508e-08
2.42517e-09
8.57367e-08
2.40408e-09
8.54195e-08
2.38374e-09
8.50997e-08
2.3641e-09
8.47769e-08
2.34587e-09
8.44514e-08
2.32923e-09
8.41227e-08
2.31449e-09
8.37911e-08
2.3021e-09
8.34562e-08
2.29086e-09
8.31181e-08
2.28204e-09
8.2777e-08
2.27253e-09
8.24329e-08
2.2656e-09
8.20862e-08
2.25671e-09
8.17364e-08
2.25388e-09
8.13872e-08
2.24907e-09
8.10401e-08
2.25492e-09
8.06933e-08
2.26711e-09
8.03427e-08
2.28821e-09
7.99882e-08
2.29085e-09
7.96289e-08
2.29133e-09
7.92674e-08
2.27345e-09
7.89021e-08
2.26449e-09
7.85316e-08
2.25282e-09
7.81565e-08
2.26229e-09
7.77748e-08
2.26915e-09
7.73891e-08
2.28519e-09
7.69986e-08
2.28521e-09
7.66185e-08
2.25521e-09
2.29287e-09
1.0925e-07
2.77244e-09
-1.09418e-07
1.09094e-07
2.88568e-09
1.08949e-07
2.9853e-09
1.08816e-07
3.08421e-09
1.08695e-07
3.18116e-09
1.08585e-07
3.27484e-09
1.08484e-07
3.36365e-09
1.0839e-07
3.44598e-09
1.08299e-07
3.52053e-09
1.08209e-07
3.58633e-09
1.08119e-07
3.64327e-09
1.08026e-07
3.69151e-09
1.07931e-07
3.73121e-09
1.07832e-07
3.76246e-09
1.07728e-07
3.78545e-09
1.07616e-07
3.80039e-09
1.07494e-07
3.80789e-09
1.07359e-07
3.80786e-09
1.07212e-07
3.79931e-09
1.07051e-07
3.78313e-09
1.06878e-07
3.76083e-09
1.06692e-07
3.73408e-09
1.06494e-07
3.70444e-09
1.06285e-07
3.67289e-09
1.06065e-07
3.64057e-09
1.05838e-07
3.60847e-09
1.05604e-07
3.57753e-09
1.05365e-07
3.54811e-09
1.05122e-07
3.52019e-09
1.04875e-07
3.49367e-09
1.04626e-07
3.46885e-09
1.04374e-07
3.44577e-09
1.0412e-07
3.42425e-09
1.03864e-07
3.40385e-09
1.03607e-07
3.38499e-09
1.0335e-07
3.36771e-09
1.03091e-07
3.3518e-09
1.02832e-07
3.33657e-09
1.02573e-07
3.3218e-09
1.02313e-07
3.30714e-09
1.02051e-07
3.29224e-09
1.01788e-07
3.2766e-09
1.01523e-07
3.26091e-09
1.01256e-07
3.24539e-09
1.00987e-07
3.23041e-09
1.00717e-07
3.21593e-09
1.00446e-07
3.20225e-09
1.00175e-07
3.18859e-09
9.99017e-08
3.17419e-09
9.96266e-08
3.15854e-09
9.93492e-08
3.14229e-09
9.90696e-08
3.12548e-09
9.87881e-08
3.10855e-09
9.85045e-08
3.09108e-09
9.82188e-08
3.07335e-09
9.79311e-08
3.05531e-09
9.76415e-08
3.03752e-09
9.73502e-08
3.01995e-09
9.70572e-08
3.00289e-09
9.67623e-08
2.98573e-09
9.64652e-08
2.96855e-09
9.61655e-08
2.95085e-09
9.58631e-08
2.93268e-09
9.55574e-08
2.91384e-09
9.52488e-08
2.89436e-09
9.49369e-08
2.87419e-09
9.46222e-08
2.85355e-09
9.43045e-08
2.83288e-09
9.39843e-08
2.81218e-09
9.36612e-08
2.79214e-09
9.33355e-08
2.7724e-09
9.3007e-08
2.75369e-09
9.26759e-08
2.7352e-09
9.23419e-08
2.71775e-09
9.20053e-08
2.70069e-09
9.1666e-08
2.68522e-09
9.1324e-08
2.67123e-09
9.09791e-08
2.65937e-09
9.06312e-08
2.65002e-09
9.02801e-08
2.64193e-09
8.99255e-08
2.63663e-09
8.95673e-08
2.63071e-09
8.92048e-08
2.62811e-09
8.88379e-08
2.62364e-09
8.84673e-08
2.62447e-09
8.80965e-08
2.61987e-09
8.77303e-08
2.62109e-09
8.73778e-08
2.61965e-09
8.70381e-08
2.62795e-09
8.67001e-08
2.62876e-09
8.63532e-08
2.63827e-09
8.59907e-08
2.63596e-09
8.56085e-08
2.64668e-09
8.52099e-08
2.65137e-09
8.48014e-08
2.67084e-09
8.43878e-08
2.68279e-09
8.39699e-08
2.703e-09
8.35417e-08
2.71349e-09
8.3081e-08
2.71587e-09
2.7302e-09
6.85401e-08
2.64986e-09
-6.84175e-08
6.86744e-08
2.7514e-09
6.88177e-08
2.84199e-09
6.89695e-08
2.93243e-09
6.91293e-08
3.02133e-09
6.92968e-08
3.10739e-09
6.94711e-08
3.18929e-09
6.96514e-08
3.26571e-09
6.98363e-08
3.33562e-09
7.00245e-08
3.39813e-09
7.02149e-08
3.45287e-09
7.04067e-08
3.49974e-09
7.05991e-08
3.53875e-09
7.07916e-08
3.56994e-09
7.09834e-08
3.59373e-09
7.11731e-08
3.6107e-09
7.13593e-08
3.62162e-09
7.15421e-08
3.62507e-09
7.17209e-08
3.62056e-09
7.18949e-08
3.60905e-09
7.20638e-08
3.59195e-09
7.22274e-08
3.57053e-09
7.2386e-08
3.54583e-09
7.25403e-08
3.51858e-09
7.2691e-08
3.48986e-09
7.28387e-08
3.4608e-09
7.29839e-08
3.43224e-09
7.31276e-08
3.40443e-09
7.32704e-08
3.3774e-09
7.34128e-08
3.35126e-09
7.35553e-08
3.32639e-09
7.36981e-08
3.30299e-09
7.38414e-08
3.2809e-09
7.39856e-08
3.25969e-09
7.41308e-08
3.23972e-09
7.42775e-08
3.22109e-09
7.44257e-08
3.20359e-09
7.45756e-08
3.18666e-09
7.47273e-08
3.17013e-09
7.48805e-08
3.15388e-09
7.50352e-08
3.13759e-09
7.5191e-08
3.12076e-09
7.5348e-08
3.10395e-09
7.5506e-08
3.08738e-09
7.56653e-08
3.07111e-09
7.58261e-08
3.0551e-09
7.59887e-08
3.03966e-09
7.61529e-08
3.02432e-09
7.63187e-08
3.00842e-09
7.64856e-08
2.99164e-09
7.66536e-08
2.97434e-09
7.68225e-08
2.95653e-09
7.69926e-08
2.93843e-09
7.71638e-08
2.91989e-09
7.73361e-08
2.90103e-09
7.75095e-08
2.8819e-09
7.76842e-08
2.86282e-09
7.78603e-08
2.84391e-09
7.80379e-08
2.82532e-09
7.82168e-08
2.80679e-09
7.8397e-08
2.78829e-09
7.85783e-08
2.76959e-09
7.87605e-08
2.75047e-09
7.89434e-08
2.73098e-09
7.91269e-08
2.71079e-09
7.93111e-08
2.69007e-09
7.94959e-08
2.66869e-09
7.96814e-08
2.64736e-09
7.98679e-08
2.62577e-09
8.0055e-08
2.60495e-09
8.02431e-08
2.58429e-09
8.04321e-08
2.56478e-09
8.06219e-08
2.54535e-09
8.08126e-08
2.52703e-09
8.10044e-08
2.50895e-09
8.11971e-08
2.49245e-09
8.13909e-08
2.47745e-09
8.15857e-08
2.46462e-09
8.17811e-08
2.45453e-09
8.19774e-08
2.4457e-09
8.21739e-08
2.44009e-09
8.23707e-08
2.43388e-09
8.25671e-08
2.4317e-09
8.27632e-08
2.42758e-09
8.29591e-08
2.42857e-09
8.31579e-08
2.4211e-09
8.33639e-08
2.41502e-09
8.35887e-08
2.39486e-09
8.38339e-08
2.38275e-09
8.40872e-08
2.37545e-09
8.43351e-08
2.39044e-09
8.457e-08
2.40101e-09
8.47875e-08
2.42918e-09
8.49898e-08
2.44913e-09
8.51844e-08
2.47618e-09
8.53761e-08
2.49106e-09
8.55674e-08
2.51175e-09
8.57498e-08
2.53111e-09
8.58925e-08
2.57312e-09
2.54716e-09
7.5753e-08
2.51027e-09
-7.56134e-08
7.59002e-08
2.60421e-09
7.60551e-08
2.6871e-09
7.62179e-08
2.76962e-09
7.63883e-08
2.85093e-09
7.65658e-08
2.92991e-09
7.67497e-08
3.00534e-09
7.69393e-08
3.0761e-09
7.71337e-08
3.14131e-09
7.73315e-08
3.20028e-09
7.75318e-08
3.25253e-09
7.77337e-08
3.29785e-09
7.79364e-08
3.33608e-09
7.81391e-08
3.36727e-09
7.8341e-08
3.39183e-09
7.85412e-08
3.41053e-09
7.8739e-08
3.42378e-09
7.89344e-08
3.42971e-09
7.91263e-08
3.42863e-09
7.9314e-08
3.42132e-09
7.94972e-08
3.40872e-09
7.96761e-08
3.39169e-09
7.98508e-08
3.37107e-09
8.00218e-08
3.34765e-09
8.01892e-08
3.32239e-09
8.03537e-08
3.29631e-09
8.0516e-08
3.27002e-09
8.06766e-08
3.24373e-09
8.08364e-08
3.21763e-09
8.09957e-08
3.19201e-09
8.11548e-08
3.16727e-09
8.13142e-08
3.14362e-09
8.14742e-08
3.12089e-09
8.1635e-08
3.09887e-09
8.17969e-08
3.07782e-09
8.19601e-08
3.05792e-09
8.21248e-08
3.0389e-09
8.22911e-08
3.02034e-09
8.24591e-08
3.00209e-09
8.26287e-08
2.98426e-09
8.27999e-08
2.96647e-09
8.29723e-08
2.94828e-09
8.31462e-08
2.93013e-09
8.33212e-08
2.91232e-09
8.34977e-08
2.89459e-09
8.36759e-08
2.87699e-09
8.38557e-08
2.85978e-09
8.40374e-08
2.8427e-09
8.42206e-08
2.82517e-09
8.44052e-08
2.80706e-09
8.4591e-08
2.78851e-09
8.4778e-08
2.76956e-09
8.49663e-08
2.75018e-09
8.51557e-08
2.73045e-09
8.53464e-08
2.71037e-09
8.55382e-08
2.69005e-09
8.57314e-08
2.6696e-09
8.59261e-08
2.64928e-09
8.61223e-08
2.62907e-09
8.63201e-08
2.60904e-09
8.65193e-08
2.58901e-09
8.67199e-08
2.56904e-09
8.69216e-08
2.54872e-09
8.71244e-08
2.52825e-09
8.73281e-08
2.50707e-09
8.75326e-08
2.48554e-09
8.77381e-08
2.46321e-09
8.79444e-08
2.44102e-09
8.81518e-08
2.41845e-09
8.836e-08
2.3967e-09
8.85693e-08
2.37506e-09
8.87794e-08
2.35459e-09
8.89907e-08
2.33411e-09
8.9203e-08
2.31471e-09
8.94165e-08
2.29547e-09
8.96313e-08
2.27766e-09
8.98473e-08
2.26145e-09
9.00646e-08
2.2473e-09
9.0283e-08
2.23615e-09
9.05025e-08
2.22616e-09
9.07229e-08
2.21966e-09
9.09445e-08
2.2123e-09
9.11671e-08
2.20915e-09
9.13911e-08
2.20353e-09
9.16175e-08
2.20225e-09
9.18478e-08
2.19075e-09
9.20845e-08
2.17837e-09
9.23326e-08
2.14672e-09
9.25896e-08
2.12572e-09
9.28487e-08
2.11637e-09
9.31037e-08
2.13548e-09
9.33518e-08
2.15285e-09
9.3591e-08
2.19002e-09
9.38232e-08
2.21688e-09
9.40538e-08
2.24563e-09
9.42845e-08
2.26031e-09
9.45172e-08
2.27907e-09
9.47459e-08
2.30243e-09
9.49665e-08
2.35252e-09
2.30647e-09
8.37164e-08
2.35404e-09
-8.35602e-08
8.38786e-08
2.44205e-09
8.40471e-08
2.51865e-09
8.42224e-08
2.5943e-09
8.44046e-08
2.66871e-09
8.45934e-08
2.74113e-09
8.47881e-08
2.81058e-09
8.49882e-08
2.87608e-09
8.51926e-08
2.93684e-09
8.54006e-08
2.9923e-09
8.56111e-08
3.042e-09
8.58234e-08
3.08562e-09
8.60365e-08
3.12294e-09
8.62498e-08
3.15393e-09
8.64627e-08
3.17893e-09
8.66744e-08
3.19889e-09
8.68847e-08
3.21348e-09
8.70929e-08
3.22147e-09
8.72984e-08
3.22316e-09
8.75007e-08
3.21899e-09
8.76997e-08
3.2097e-09
8.78952e-08
3.19619e-09
8.80871e-08
3.1792e-09
8.82754e-08