/*--------------------------------*- C++ -*----------------------------------*\
| =========                 |                                                 |
| \\      /  F ield         | OpenFOAM: The Open Source CFD Toolbox           |
|  \\    /   O peration     | Version:  2.3.0                                 |
|   \\  /    A nd           | Web:      www.OpenFOAM.org                      |
|    \\/     M anipulation  |                                                 |
\*---------------------------------------------------------------------------*/
FoamFile
{
    version     2.0;
    format      ascii;
    class       surfaceScalarField;
    location    "0.4";
    object      phi_0;
}
// * * * * * * * * * * * * * * * * * * * * * * * * * * * * * * * * * * * * * //

dimensions      [0 3 -1 0 0 0 0];

internalField   nonuniform List<scalar> 
2863
(
2.88895e-08
2.77915e-09
-3.16687e-08
2.54115e-08
3.47805e-09
2.19517e-08
3.45975e-09
1.87421e-08
3.2096e-09
1.5816e-08
2.92614e-09
1.32534e-08
2.56256e-09
1.11518e-08
2.10159e-09
9.52763e-09
1.62421e-09
8.34391e-09
1.18373e-09
7.51426e-09
8.29644e-10
6.93936e-09
5.74905e-10
6.53379e-09
4.05567e-10
6.23452e-09
2.9927e-10
5.99826e-09
2.36258e-10
5.79637e-09
2.01891e-10
5.61248e-09
1.83897e-10
5.43908e-09
1.73401e-10
5.27381e-09
1.65265e-10
5.11668e-09
1.57127e-10
4.96842e-09
1.4826e-10
4.82968e-09
1.3874e-10
4.70069e-09
1.28989e-10
4.58121e-09
1.19489e-10
4.47063e-09
1.10578e-10
4.36825e-09
1.0238e-10
4.27336e-09
9.48903e-11
4.18522e-09
8.81331e-11
4.10306e-09
8.21613e-11
4.02613e-09
7.69306e-11
3.9538e-09
7.23278e-11
3.88559e-09
6.8213e-11
3.82112e-09
6.44673e-11
3.76005e-09
6.10755e-11
3.702e-09
5.80454e-11
3.64667e-09
5.53345e-11
3.5938e-09
5.28641e-11
3.54328e-09
5.05258e-11
3.495e-09
4.82797e-11
3.44883e-09
4.61673e-11
3.40463e-09
4.42039e-11
3.36225e-09
4.2379e-11
3.32161e-09
4.06417e-11
3.28267e-09
3.89343e-11
3.24536e-09
3.73112e-11
3.20954e-09
3.58197e-11
3.17515e-09
3.43922e-11
3.14214e-09
3.3009e-11
3.11045e-09
3.16908e-11
3.08008e-09
3.03703e-11
3.05106e-09
2.9021e-11
3.02334e-09
2.7722e-11
2.99682e-09
2.65165e-11
2.97145e-09
2.53671e-11
2.94719e-09
2.42615e-11
2.92401e-09
2.31865e-11
2.9019e-09
2.21023e-11
2.88092e-09
2.09784e-11
2.86107e-09
1.98543e-11
2.84232e-09
1.87525e-11
2.82463e-09
1.76846e-11
2.80798e-09
1.66505e-11
2.79233e-09
1.56478e-11
2.77768e-09
1.46504e-11
2.76403e-09
1.36562e-11
2.75136e-09
1.26724e-11
2.73966e-09
1.16922e-11
2.72893e-09
1.0732e-11
2.71915e-09
9.78269e-12
2.71029e-09
8.85984e-12
2.70234e-09
7.9494e-12
2.69526e-09
7.08459e-12
2.68902e-09
6.23929e-12
2.68357e-09
5.44245e-12
2.6789e-09
4.67393e-12
2.67494e-09
3.95516e-12
2.67169e-09
3.25928e-12
2.66906e-09
2.6209e-12
2.66705e-09
2.01796e-12
2.66556e-09
1.48274e-12
2.66457e-09
9.98574e-13
2.66396e-09
6.02575e-13
2.6637e-09
2.65116e-13
2.66368e-09
1.49195e-14
2.66383e-09
-1.46965e-13
2.66406e-09
-2.26302e-13
2.66428e-09
-2.28986e-13
2.66446e-09
-1.73159e-13
2.66451e-09
-5.02448e-14
2.66441e-09
9.36882e-14
2.66414e-09
2.74024e-13
2.66371e-09
4.29708e-13
2.6631e-09
6.08974e-13
2.66239e-09
7.15037e-13
2.66154e-09
8.47181e-13
2.66067e-09
8.73324e-13
2.65971e-09
9.58057e-13
2.65879e-09
9.16944e-13
2.65781e-09
9.82595e-13
2.65691e-09
8.97984e-13
9.37141e-13
3.63148e-08
2.48918e-09
-3.60249e-08
3.61388e-08
3.65406e-09
3.54214e-08
4.17716e-09
3.44181e-08
4.21296e-09
3.32415e-08
4.10273e-09
3.19116e-08
3.89244e-09
3.0452e-08
3.56122e-09
2.89405e-08
3.13568e-09
2.74543e-08
2.66996e-09
2.60495e-08
2.23439e-09
2.47512e-08
1.87327e-09
2.35615e-08
1.59522e-09
2.24789e-08
1.38189e-09
2.15021e-08
1.21304e-09
2.06218e-08
1.08223e-09
1.98274e-08
9.78267e-10
1.91087e-08
8.92103e-10
1.84562e-08
8.17746e-10
1.78617e-08
7.51654e-10
1.73181e-08
6.91863e-10
1.68195e-08
6.37346e-10
1.63608e-08
5.87674e-10
1.59376e-08
5.42714e-10
1.55459e-08
5.02281e-10
1.51823e-08
4.65989e-10
1.48438e-08
4.3334e-10
1.45279e-08
4.04006e-10
1.42323e-08
3.77837e-10
1.39546e-08
3.5456e-10
1.36932e-08
3.33768e-10
1.34464e-08
3.1499e-10
1.3213e-08
2.97838e-10
1.29919e-08
2.82206e-10
1.27819e-08
2.68045e-10
1.25821e-08
2.55173e-10
1.23916e-08
2.4332e-10
1.22099e-08
2.32188e-10
1.20366e-08
2.21669e-10
1.18709e-08
2.1183e-10
1.17124e-08
2.02652e-10
1.15608e-08
1.94056e-10
1.14155e-08
1.85903e-10
1.12764e-08
1.78058e-10
1.11431e-08
1.70613e-10
1.10153e-08
1.6364e-10
1.08927e-08
1.56975e-10
1.07751e-08
1.50561e-10
1.06624e-08
1.44409e-10
1.05544e-08
1.3836e-10
1.04511e-08
1.32365e-10
1.03522e-08
1.26592e-10
1.02576e-08
1.21113e-10
1.01671e-08
1.1583e-10
1.00807e-08
1.10703e-10
9.99821e-09
1.05688e-10
9.91962e-09
1.00692e-10
9.84494e-09
9.56541e-11
9.77413e-09
9.06675e-11
9.70711e-09
8.57754e-11
9.64379e-09
8.10003e-11
9.58411e-09
7.6334e-11
9.52799e-09
7.17677e-11
9.47539e-09
6.72416e-11
9.42629e-09
6.27574e-11
9.38063e-09
5.83336e-11
9.33836e-09
5.39603e-11
9.29942e-09
4.96771e-11
9.26374e-09
4.54662e-11
9.23123e-09
4.13683e-11
9.20182e-09
3.73564e-11
9.17539e-09
3.35124e-11
9.15185e-09
2.97817e-11
9.13105e-09
2.62423e-11
9.11287e-09
2.285e-11
9.09716e-09
1.96687e-11
9.08378e-09
1.66407e-11
9.07254e-09
1.38614e-11
9.06328e-09
1.12815e-11
9.05576e-09
8.99646e-12
9.0498e-09
6.9621e-12
9.04512e-09
5.27896e-12
9.04152e-09
3.87038e-12
9.03871e-09
2.82066e-12
9.03648e-09
2.08316e-12
9.03457e-09
1.67982e-12
9.03281e-09
1.53811e-12
9.031e-09
1.63288e-12
9.02904e-09
1.90901e-12
9.02685e-09
2.28617e-12
9.0244e-09
2.72559e-12
9.0217e-09
3.12299e-12
9.01881e-09
3.5083e-12
9.01579e-09
3.73243e-12
9.01271e-09
3.92741e-12
9.00967e-09
3.91453e-12
9.00669e-09
3.93162e-12
9.00384e-09
3.76602e-12
9.00113e-09
3.69354e-12
8.99849e-09
3.53578e-12
3.31929e-12
4.03652e-08
2.37455e-09
-4.02506e-08
4.07808e-08
3.23849e-09
4.10349e-08
3.92305e-09
4.10966e-08
4.15125e-09
4.1042e-08
4.15727e-09
4.08666e-08
4.06788e-09
4.05336e-08
3.8942e-09
4.00429e-08
3.62644e-09
3.94245e-08
3.28832e-09
3.8723e-08
2.93589e-09
3.79763e-08
2.61994e-09
3.72091e-08
2.36243e-09
3.64344e-08
2.15662e-09
3.56591e-08
1.98831e-09
3.48919e-08
1.84943e-09
3.41381e-08
1.73202e-09
3.34011e-08
1.62912e-09
3.2683e-08
1.53589e-09
3.19852e-08
1.4494e-09
3.1309e-08
1.36809e-09
3.06551e-08
1.29123e-09
3.00242e-08
1.21862e-09
2.94166e-08
1.1503e-09
2.88326e-08
1.08628e-09
2.82722e-08
1.02639e-09
2.77352e-08
9.7035e-10
2.72212e-08
9.18027e-10
2.67296e-08
8.69438e-10
2.62596e-08
8.24506e-10
2.58104e-08
7.83015e-10
2.53808e-08
7.44517e-10
2.49701e-08
7.08534e-10
2.45774e-08
6.74965e-10
2.42016e-08
6.43852e-10
2.38417e-08
6.15042e-10
2.34969e-08
5.88167e-10
2.31663e-08
5.62745e-10
2.28494e-08
5.38608e-10
2.25453e-08
5.15892e-10
2.22534e-08
4.9458e-10
2.19729e-08
4.7451e-10
2.17034e-08
4.5544e-10
2.14443e-08
4.37153e-10
2.11952e-08
4.19732e-10
2.09556e-08
4.03226e-10
2.07251e-08
3.87421e-10
2.05035e-08
3.72243e-10
2.02902e-08
3.57645e-10
2.00852e-08
3.43333e-10
1.98884e-08
3.29245e-10
1.96993e-08
3.15627e-10
1.95179e-08
3.02565e-10
1.93438e-08
2.89909e-10
1.91769e-08
2.77598e-10
1.90171e-08
2.65528e-10
1.88642e-08
2.53537e-10
1.87183e-08
2.41531e-10
1.85794e-08
2.29655e-10
1.84471e-08
2.17977e-10
1.83216e-08
2.06535e-10
1.82026e-08
1.95312e-10
1.80901e-08
1.84285e-10
1.7984e-08
1.73358e-10
1.78842e-08
1.62535e-10
1.77907e-08
1.51853e-10
1.77034e-08
1.41302e-10
1.76221e-08
1.30953e-10
1.75468e-08
1.20778e-10
1.74773e-08
1.10853e-10
1.74135e-08
1.01138e-10
1.73552e-08
9.17755e-11
1.73023e-08
8.26871e-11
1.72546e-08
7.40154e-11
1.72117e-08
6.5693e-11
1.71735e-08
5.78477e-11
1.71398e-08
5.03907e-11
1.71102e-08
4.34983e-11
1.70844e-08
3.70858e-11
1.7062e-08
3.13498e-11
1.70428e-08
2.6195e-11
1.70262e-08
2.18271e-11
1.7012e-08
1.80778e-11
1.69997e-08
1.51496e-11
1.69889e-08
1.28749e-11
1.69792e-08
1.13707e-11
1.69703e-08
1.03974e-11
1.6962e-08
1.00197e-11
1.69539e-08
9.96399e-12
1.69459e-08
1.02525e-11
1.69381e-08
1.05797e-11
1.69302e-08
1.1005e-11
1.69225e-08
1.12523e-11
1.69148e-08
1.14227e-11
1.69074e-08
1.1296e-11
1.69002e-08
1.10901e-11
1.68936e-08
1.05855e-11
1.68872e-08
1.01807e-11
1.68814e-08
9.46374e-12
1.68757e-08
9.19225e-12
8.2707e-12
4.48463e-08
2.3317e-09
-4.48034e-08
4.51509e-08
2.93388e-09
4.55402e-08
3.53373e-09
4.58394e-08
3.85205e-09
4.60663e-08
3.93039e-09
4.62475e-08
3.88667e-09
4.63607e-08
3.78096e-09
4.63787e-08
3.6085e-09
4.62911e-08
3.37584e-09
4.61124e-08
3.11458e-09
4.5869e-08
2.86337e-09
4.55822e-08
2.64921e-09
4.52635e-08
2.47538e-09
4.49175e-08
2.33429e-09
4.45501e-08
2.21685e-09
4.4166e-08
2.11606e-09
4.37685e-08
2.02665e-09
4.33596e-08
1.94483e-09
4.29409e-08
1.8681e-09
4.25139e-08
1.79505e-09
4.20802e-08
1.72496e-09
4.16412e-08
1.65765e-09
4.11983e-08
1.59316e-09
4.0753e-08
1.53155e-09
4.03067e-08
1.47274e-09
3.98605e-08
1.4165e-09
3.94158e-08
1.36276e-09
3.89737e-08
1.3115e-09
3.85356e-08
1.26267e-09
3.81023e-08
1.21631e-09
3.76746e-08
1.1722e-09
3.72531e-08
1.13007e-09
3.6838e-08
1.08999e-09
3.64298e-08
1.05208e-09
3.60287e-08
1.01619e-09
3.56349e-08
9.81891e-10
3.52491e-08
9.48631e-10
3.48714e-08
9.16286e-10
3.45022e-08
8.85109e-10
3.41415e-08
8.55224e-10
3.37894e-08
8.26614e-10
3.34458e-08
7.9905e-10
3.31106e-08
7.72313e-10
3.27839e-08
7.46507e-10
3.24655e-08
7.21565e-10
3.21558e-08
6.97194e-10
3.18546e-08
6.73446e-10
3.15619e-08
6.50312e-10
3.12778e-08
6.27403e-10
3.10023e-08
6.04719e-10
3.07353e-08
5.82635e-10
3.04767e-08
5.61214e-10
3.02264e-08
5.40238e-10
2.99843e-08
5.1965e-10
2.97506e-08
4.99283e-10
2.95252e-08
4.78905e-10
2.93083e-08
4.58428e-10
2.90999e-08
4.38091e-10
2.88998e-08
4.17991e-10
2.87082e-08
3.98205e-10
2.85248e-08
3.78696e-10
2.83497e-08
3.59412e-10
2.81828e-08
3.40202e-10
2.80243e-08
3.21088e-10
2.7874e-08
3.02126e-10
2.7732e-08
2.83337e-10
2.75981e-08
2.64836e-10
2.74723e-08
2.46594e-10
2.73544e-08
2.2873e-10
2.72443e-08
2.11187e-10
2.71419e-08
1.94173e-10
2.7047e-08
1.77577e-10
2.69594e-08
1.61631e-10
2.68789e-08
1.46228e-10
2.68051e-08
1.31597e-10
2.67379e-08
1.17603e-10
2.66769e-08
1.04561e-10
2.66217e-08
9.22885e-11
2.65718e-08
8.11796e-11
2.6527e-08
7.09942e-11
2.64867e-08
6.21725e-11
2.64505e-08
5.4299e-11
2.64177e-08
4.78848e-11
2.63882e-08
4.24272e-11
2.63612e-08
3.83984e-11
2.63364e-08
3.5101e-11
2.63134e-08
3.30591e-11
2.6292e-08
3.13716e-11
2.62716e-08
3.06473e-11
2.62524e-08
2.97521e-11
2.62339e-08
2.95508e-11
2.62164e-08
2.87049e-11
2.61995e-08
2.83954e-11
2.61837e-08
2.7072e-11
2.61684e-08
2.64127e-11
2.61544e-08
2.45176e-11
2.61409e-08
2.37157e-11
2.61289e-08
2.14747e-11
2.61171e-08
2.09927e-11
1.85721e-11
4.98106e-08
2.28188e-09
-4.97608e-08
5.00139e-08
2.73064e-09
5.03554e-08
3.19221e-09
5.06823e-08
3.5251e-09
5.09492e-08
3.66351e-09
5.11728e-08
3.66308e-09
5.13653e-08
3.58851e-09
5.15104e-08
3.46331e-09
5.15913e-08
3.29499e-09
5.16066e-08
3.09932e-09
5.15699e-08
2.90001e-09
5.14999e-08
2.71919e-09
5.14075e-08
2.56779e-09
5.1297e-08
2.44486e-09
5.11713e-08
2.34253e-09
5.1033e-08
2.25439e-09
5.08835e-08
2.17607e-09
5.07238e-08
2.10459e-09
5.05539e-08
2.03796e-09
5.03741e-08
1.97491e-09
5.01843e-08
1.91469e-09
4.99849e-08
1.85704e-09
4.97762e-08
1.80192e-09
4.95584e-08
1.74931e-09
4.9332e-08
1.69913e-09
4.90974e-08
1.65116e-09
4.88549e-08
1.60526e-09
4.86051e-08
1.56125e-09
4.83489e-08
1.51889e-09
4.8087e-08
1.47818e-09
4.78203e-08
1.4389e-09
4.75495e-08
1.40086e-09
4.72752e-08
1.36433e-09
4.69977e-08
1.32962e-09
4.67171e-08
1.29677e-09
4.64336e-08
1.26539e-09
4.61475e-08
1.23473e-09
4.58594e-08
1.20441e-09
4.557e-08
1.17443e-09
4.52805e-08
1.14475e-09
4.49916e-08
1.11555e-09
4.47036e-08
1.08697e-09
4.44168e-08
1.05915e-09
4.41308e-08
1.0325e-09
4.38456e-08
1.00679e-09
4.35615e-08
9.81235e-10
4.32794e-08
9.55593e-10
4.3e-08
9.29698e-10
4.27243e-08
9.03155e-10
4.24526e-08
8.76347e-10
4.21851e-08
8.50145e-10
4.19215e-08
8.24798e-10
4.16618e-08
7.99971e-10
4.14061e-08
7.75369e-10
4.11549e-08
7.50476e-10
4.0909e-08
7.24818e-10
4.0669e-08
6.98374e-10
4.04354e-08
6.71739e-10
4.02081e-08
6.45258e-10
3.99872e-08
6.19157e-10
3.97725e-08
5.93336e-10
3.95643e-08
5.67605e-10
3.93629e-08
5.41634e-10
3.91686e-08
5.15436e-10
3.89816e-08
4.89082e-10
3.88023e-08
4.62676e-10
3.86307e-08
4.36437e-10
3.84668e-08
4.10402e-10
3.83108e-08
3.84777e-10
3.81625e-08
3.59506e-10
3.80218e-08
3.34867e-10
3.78887e-08
3.10642e-10
3.77632e-08
2.87184e-10
3.76452e-08
2.64237e-10
3.75345e-08
2.42236e-10
3.74312e-08
2.20882e-10
3.7335e-08
2.00846e-10
3.72456e-08
1.81658e-10
3.71626e-08
1.64188e-10
3.70858e-08
1.47759e-10
3.70146e-08
1.33411e-10
3.69488e-08
1.20052e-10
3.68877e-08
1.08984e-10
3.68314e-08
9.88003e-11
3.67788e-08
9.09795e-11
3.67302e-08
8.3651e-11
3.66846e-08
7.86602e-11
3.66424e-08
7.3584e-11
3.66024e-08
7.0689e-11
3.65652e-08
6.68912e-11
3.65296e-08
6.51529e-11
3.64966e-08
6.16874e-11
3.64648e-08
6.02805e-11
3.64354e-08
5.63829e-11
3.64069e-08
5.49157e-11
3.63811e-08
5.03449e-11
3.63559e-08
4.89731e-11
3.63334e-08
4.39557e-11
3.63112e-08
4.31966e-11
3.81493e-11
5.52716e-08
2.22041e-09
-5.52102e-08
5.54261e-08
2.57613e-09
5.56951e-08
2.92323e-09
5.59943e-08
3.22595e-09
5.62604e-08
3.39739e-09
5.64805e-08
3.44297e-09
5.6667e-08
3.40207e-09
5.68204e-08
3.30992e-09
5.69313e-08
3.18401e-09
5.69952e-08
3.03548e-09
5.70175e-08
2.87763e-09
5.70113e-08
2.72541e-09
5.69884e-08
2.59074e-09
5.69552e-08
2.47799e-09
5.69148e-08
2.383e-09
5.68686e-08
2.30052e-09
5.6818e-08
2.22672e-09
5.67634e-08
2.15914e-09
5.67051e-08
2.09627e-09
5.66429e-08
2.03713e-09
5.65765e-08
1.98107e-09
5.65057e-08
1.92783e-09
5.64303e-08
1.87734e-09
5.63501e-08
1.82951e-09
5.6265e-08
1.7843e-09
5.61746e-08
1.74153e-09
5.60788e-08
1.70105e-09
5.59775e-08
1.66258e-09
5.58706e-08
1.62573e-09
5.57585e-08
1.59035e-09
5.56413e-08
1.55611e-09
5.55193e-08
1.52277e-09
5.5393e-08
1.49065e-09
5.52625e-08
1.46019e-09
5.51275e-08
1.43168e-09
5.49879e-08
1.405e-09
5.48433e-08
1.37941e-09
5.46933e-08
1.35436e-09
5.45383e-08
1.32945e-09
5.43789e-08
1.30415e-09
5.42161e-08
1.2784e-09
5.40506e-08
1.25244e-09
5.38829e-08
1.22682e-09
5.37128e-08
1.20257e-09
5.35397e-08
1.1799e-09
5.33629e-08
1.15802e-09
5.31822e-08
1.13631e-09
5.29981e-08
1.11382e-09
5.28119e-08
1.08936e-09
5.26251e-08
1.06311e-09
5.24388e-08
1.03644e-09
5.22531e-08
1.0105e-09
5.20673e-08
9.85828e-10
5.18802e-08
9.62487e-10
5.16913e-08
9.39345e-10
5.15014e-08
9.14735e-10
5.1312e-08
8.87711e-10
5.11248e-08
8.58952e-10
5.09406e-08
8.29524e-10
5.07591e-08
8.00583e-10
5.05801e-08
7.724e-10
5.0403e-08
7.44703e-10
5.02279e-08
7.16664e-10
5.00554e-08
6.88014e-10
4.98859e-08
6.58555e-10
4.97202e-08
6.28369e-10
4.95589e-08
5.97729e-10
4.94025e-08
5.66812e-10
4.92511e-08
5.36116e-10
4.91049e-08
5.05708e-10
4.89636e-08
4.76179e-10
4.88272e-08
4.47058e-10
4.86955e-08
4.18928e-10
4.85687e-08
3.90986e-10
4.84469e-08
3.64024e-10
4.83307e-08
3.37137e-10
4.82198e-08
3.11756e-10
4.81147e-08
2.86713e-10
4.80149e-08
2.63965e-10
4.79208e-08
2.41873e-10
4.78314e-08
2.22807e-10
4.77472e-08
2.0425e-10
4.76671e-08
1.89126e-10
4.75917e-08
1.74154e-10
4.75199e-08
1.62807e-10
4.74526e-08
1.50943e-10
4.73884e-08
1.42902e-10
4.73284e-08
1.3355e-10
4.72709e-08
1.28163e-10
4.72174e-08
1.20395e-10
4.71658e-08
1.16799e-10
4.71178e-08
1.09642e-10
4.70712e-08
1.06943e-10
4.70281e-08
9.94494e-11
4.69859e-08
9.71252e-11
4.69474e-08
8.88827e-11
4.69093e-08
8.69961e-11
4.68751e-08
7.8193e-11
4.68411e-08
7.7217e-11
6.86644e-11
6.12848e-08
2.15589e-09
-6.12203e-08
6.14145e-08
2.4464e-09
6.16185e-08
2.71925e-09
6.18731e-08
2.97132e-09
6.21195e-08
3.15102e-09
6.23322e-08
3.23028e-09
6.25073e-08
3.22693e-09
6.26493e-08
3.16792e-09
6.27581e-08
3.07526e-09
6.28314e-08
2.9622e-09
6.28709e-08
2.83811e-09
6.28837e-08
2.7126e-09
6.28796e-08
2.59488e-09
6.28666e-08
2.49093e-09
6.28487e-08
2.40089e-09
6.28277e-08
2.32157e-09
6.28045e-08
2.24987e-09
6.278e-08
2.18364e-09
6.27546e-08
2.12168e-09
6.27284e-08
2.0633e-09
6.27015e-08
2.00796e-09
6.26738e-08
1.95553e-09
6.26452e-08
1.90597e-09
6.26156e-08
1.85917e-09
6.25847e-08
1.81512e-09
6.25526e-08
1.77371e-09
6.25188e-08
1.73479e-09
6.24833e-08
1.69808e-09
6.24458e-08
1.66319e-09
6.24063e-08
1.62985e-09
6.23648e-08
1.59768e-09
6.23211e-08
1.56638e-09
6.22756e-08
1.53619e-09
6.22283e-08
1.5075e-09
6.21792e-08
1.48077e-09
6.2128e-08
1.45617e-09
6.20742e-08
1.43321e-09
6.20172e-08
1.41135e-09
6.19567e-08
1.38996e-09
6.18928e-08
1.36812e-09
6.18258e-08
1.34535e-09
6.17566e-08
1.32169e-09
6.16856e-08
1.29781e-09
6.1613e-08
1.27511e-09
6.15386e-08
1.25436e-09
6.14613e-08
1.23533e-09
6.138e-08
1.21754e-09
6.12944e-08
1.1995e-09
6.12046e-08
1.17911e-09
6.1112e-08
1.15569e-09
6.10182e-08
1.13028e-09
6.09243e-08
1.10438e-09
6.08304e-08
1.07971e-09
6.07352e-08
1.05772e-09
6.06367e-08
1.0379e-09
6.05336e-08
1.01775e-09
6.04269e-08
9.94439e-10
6.03185e-08
9.67352e-10
6.02105e-08
9.3752e-10
6.01037e-08
9.07408e-10
5.99977e-08
8.78442e-10
5.98914e-08
8.50978e-10
5.97842e-08
8.2382e-10
5.96759e-08
7.96296e-10
5.95668e-08
7.67703e-10
5.94573e-08
7.3785e-10
5.93482e-08
7.06843e-10
5.92404e-08
6.74634e-10
5.91344e-08
6.42053e-10
5.9031e-08
6.09166e-10
5.89298e-08
5.77406e-10
5.88308e-08
5.46042e-10
5.87333e-08
5.16442e-10
5.86374e-08
4.86874e-10
5.85426e-08
4.5878e-10
5.84498e-08
4.29911e-10
5.83589e-08
4.02737e-10
5.82709e-08
3.74685e-10
5.81855e-08
3.49369e-10
5.81038e-08
3.23579e-10
5.80247e-08
3.01836e-10
5.79494e-08
2.79598e-10
5.78763e-08
2.62217e-10
5.78066e-08
2.43829e-10
5.77389e-08
2.30571e-10
5.76745e-08
2.1533e-10
5.76119e-08
2.05511e-10
5.75527e-08
1.92677e-10
5.74952e-08
1.85668e-10
5.74412e-08
1.74427e-10
5.73884e-08
1.69618e-10
5.73388e-08
1.59194e-10
5.729e-08
1.55825e-10
5.72442e-08
1.45161e-10
5.71988e-08
1.42592e-10
5.71566e-08
1.31088e-10
5.71144e-08
1.29203e-10
5.70755e-08
1.17019e-10
5.70366e-08
1.16116e-10
1.04407e-10
6.7915e-08
2.09445e-09
-6.78536e-08
6.80242e-08
2.33716e-09
6.81829e-08
2.56063e-09
6.8387e-08
2.76718e-09
6.86015e-08
2.93655e-09
6.87977e-08
3.03402e-09
6.89616e-08
3.06308e-09
6.90919e-08
3.03762e-09
6.9192e-08
2.97518e-09
6.92639e-08
2.89028e-09
6.9309e-08
2.79296e-09
6.93309e-08
2.69074e-09
6.93357e-08
2.5901e-09
6.93305e-08
2.49612e-09
6.93202e-08
2.4112e-09
6.9307e-08
2.33477e-09
6.92919e-08
2.26494e-09
6.92756e-08
2.19992e-09
6.92587e-08
2.13861e-09
6.92416e-08
2.08046e-09
6.92244e-08
2.02512e-09
6.92074e-08
1.97255e-09
6.91906e-08
1.92278e-09
6.9174e-08
1.87577e-09
6.91576e-08
1.83148e-09
6.91415e-08
1.78984e-09
6.91255e-08
1.75072e-09
6.91098e-08
1.71385e-09
6.9094e-08
1.67892e-09
6.90782e-08
1.64567e-09
6.90622e-08
1.61371e-09
6.90458e-08
1.58273e-09
6.90292e-08
1.55287e-09
6.90123e-08
1.52437e-09
6.89954e-08
1.49768e-09
6.89784e-08
1.47315e-09
6.89611e-08
1.45052e-09
6.89431e-08
1.42933e-09
6.89241e-08
1.40895e-09
6.89039e-08
1.38839e-09
6.88822e-08
1.36697e-09
6.88595e-08
1.34444e-09
6.88359e-08
1.32139e-09
6.88119e-08
1.29909e-09
6.87877e-08
1.27855e-09
6.8763e-08
1.26007e-09
6.87369e-08
1.24366e-09
6.87085e-08
1.22787e-09
6.86773e-08
1.21025e-09
6.86437e-08
1.18936e-09
6.86084e-08
1.16552e-09
6.85729e-08
1.13993e-09
6.85379e-08
1.11465e-09
6.85034e-08
1.09226e-09
6.84678e-08
1.07354e-09
6.8429e-08
1.05648e-09
6.83864e-08
1.03709e-09
6.83407e-08
1.01304e-09
6.8294e-08
9.8426e-10
6.82476e-08
9.53782e-10
6.82019e-08
9.24076e-10
6.81563e-08
8.96628e-10
6.81098e-08
8.70345e-10
6.80617e-08
8.44366e-10
6.80118e-08
8.17601e-10
6.79601e-08
7.89532e-10
6.79068e-08
7.60152e-10
6.78526e-08
7.28807e-10
6.77981e-08
6.96555e-10
6.77444e-08
6.62946e-10
6.76913e-08
6.30437e-10
6.76395e-08
5.97893e-10
6.75879e-08
5.6801e-10
6.75366e-08
5.38146e-10
6.74846e-08
5.10841e-10
6.74322e-08
4.82262e-10
6.7379e-08
4.55987e-10
6.7326e-08
4.27619e-10
6.7273e-08
4.02386e-10
6.72214e-08
3.75188e-10
6.71705e-08
3.52722e-10
6.71217e-08
3.28465e-10
6.70737e-08
3.10187e-10
6.70277e-08
2.89778e-10
6.69826e-08
2.75738e-10
6.69394e-08
2.58535e-10
6.68969e-08
2.47976e-10
6.68565e-08
2.33093e-10
6.68168e-08
2.25355e-10
6.67792e-08
2.12013e-10
6.67421e-08
2.06743e-10
6.67068e-08
1.94443e-10
6.66715e-08
1.91187e-10
6.66378e-08
1.78856e-10
6.66036e-08
1.76812e-10
6.6571e-08
1.63649e-10
6.65379e-08
1.62336e-10
6.65064e-08
1.48516e-10
6.64745e-08
1.47973e-10
1.34631e-10
6.76205e-08
2.04788e-09
-6.7574e-08
6.76999e-08
2.25782e-09
6.78127e-08
2.44778e-09
6.79564e-08
2.62347e-09
6.81165e-08
2.77649e-09
6.82705e-08
2.88004e-09
6.84048e-08
2.92879e-09
6.85135e-08
2.92884e-09
6.85972e-08
2.89152e-09
6.86583e-08
2.82922e-09
6.86991e-08
2.75212e-09
6.87223e-08
2.66754e-09
6.87315e-08
2.5809e-09
6.87312e-08
2.49639e-09
6.87256e-08
2.41682e-09
6.87172e-08
2.34321e-09
6.87071e-08
2.27504e-09
6.86958e-08
2.21115e-09
6.86839e-08
2.15055e-09
6.86716e-08
2.09277e-09
6.86591e-08
2.03756e-09
6.86468e-08
1.98494e-09
6.86346e-08
1.93498e-09
6.86227e-08
1.88766e-09
6.86112e-08
1.84295e-09
6.86002e-08
1.8008e-09
6.85898e-08
1.76113e-09
6.858e-08
1.72371e-09
6.85706e-08
1.68828e-09
6.85617e-08
1.65455e-09
6.85533e-08
1.62217e-09
6.8545e-08
1.59097e-09
6.85369e-08
1.56103e-09
6.85288e-08
1.53242e-09
6.85211e-08
1.50544e-09
6.85138e-08
1.48044e-09
6.8507e-08
1.4573e-09
6.85007e-08
1.43564e-09
6.84947e-08
1.41494e-09
6.84887e-08
1.39435e-09
6.84825e-08
1.3732e-09
6.84758e-08
1.35113e-09
6.84686e-08
1.32856e-09
6.84613e-08
1.30643e-09
6.84542e-08
1.28568e-09
6.84474e-08
1.26681e-09
6.8441e-08
1.25013e-09
6.84344e-08
1.23444e-09
6.84271e-08
1.21754e-09
6.84186e-08
1.19784e-09
6.8409e-08
1.17519e-09
6.83985e-08
1.15036e-09
6.83881e-08
1.12508e-09
6.83784e-08
1.10202e-09
6.83692e-08
1.08265e-09
6.83597e-08
1.06603e-09
6.83486e-08
1.04821e-09
6.83354e-08
1.02619e-09
6.83209e-08
9.98746e-10
6.8306e-08
9.6871e-10
6.82914e-08
9.38687e-10
6.82771e-08
9.10963e-10
6.82627e-08
8.84753e-10
6.82477e-08
8.59329e-10
6.82318e-08
8.3352e-10
6.82147e-08
8.06621e-10
6.81961e-08
7.78689e-10
6.81765e-08
7.48494e-10
6.81557e-08
7.1729e-10
6.81348e-08
6.83856e-10
6.81139e-08
6.51372e-10
6.80936e-08
6.18155e-10
6.80736e-08
5.88053e-10
6.80539e-08
5.57811e-10
6.80337e-08
5.31085e-10
6.80129e-08
5.02994e-10
6.79909e-08
4.78004e-10
6.79682e-08
4.5037e-10
6.79442e-08
4.26316e-10
6.79201e-08
3.99284e-10
6.78956e-08
3.77243e-10
6.78717e-08
3.52386e-10
6.7848e-08
3.33866e-10
6.78254e-08
3.12439e-10
6.78033e-08
2.97826e-10
6.77823e-08
2.79481e-10
6.7762e-08
2.68255e-10
6.77429e-08
2.52198e-10
6.77244e-08
2.43862e-10
6.7707e-08
2.29422e-10
6.76899e-08
2.23889e-10
6.76735e-08
2.10811e-10
6.76567e-08
2.07949e-10
6.76404e-08
1.95215e-10
6.76232e-08
1.94002e-10
6.76062e-08
1.80604e-10
6.75885e-08
1.80055e-10
6.75709e-08
1.66121e-10
6.75528e-08
1.66056e-10
1.52357e-10
8.54428e-08
1.99999e-09
-8.53949e-08
8.55167e-08
2.1839e-09
8.56175e-08
2.34701e-09
8.57428e-08
2.49823e-09
8.58863e-08
2.63293e-09
8.60268e-08
2.73953e-09
8.61538e-08
2.80185e-09
8.62594e-08
2.82321e-09
8.63415e-08
2.80943e-09
8.64017e-08
2.76896e-09
8.64433e-08
2.71052e-09
8.64694e-08
2.64148e-09
8.64829e-08
2.56737e-09
8.64872e-08
2.49216e-09
8.64854e-08
2.41862e-09
8.64801e-08
2.34849e-09
8.64727e-08
2.28238e-09
8.64639e-08
2.21994e-09
8.6454e-08
2.16048e-09
8.64433e-08
2.10348e-09
8.64321e-08
2.04879e-09
8.64206e-08
1.99638e-09
8.64093e-08
1.94633e-09
8.63982e-08
1.89873e-09
8.63875e-08
1.85363e-09
8.63774e-08
1.81097e-09
8.63678e-08
1.77066e-09
8.6359e-08
1.73258e-09
8.63507e-08
1.69655e-09
8.6343e-08
1.66222e-09
8.63358e-08
1.62935e-09
8.63289e-08
1.59786e-09
8.63222e-08
1.56777e-09
8.63156e-08
1.53901e-09
8.63093e-08
1.51174e-09
8.63036e-08
1.48616e-09
8.62986e-08
1.46232e-09
8.62944e-08
1.43986e-09
8.6291e-08
1.41835e-09
8.62881e-08
1.39717e-09
8.62855e-08
1.37583e-09
8.62827e-08
1.35396e-09
8.62793e-08
1.33192e-09
8.62756e-08
1.31012e-09
8.6272e-08
1.28931e-09
8.62688e-08
1.26995e-09
8.62667e-08
1.25232e-09
8.62656e-08
1.23551e-09
8.6265e-08
1.21815e-09
8.6264e-08
1.19882e-09
8.6262e-08
1.17714e-09
8.62589e-08
1.1535e-09
8.62549e-08
1.12909e-09
8.6251e-08
1.10591e-09
8.62483e-08
1.08534e-09
8.62469e-08
1.06745e-09
8.6246e-08
1.04914e-09
8.62443e-08
1.02788e-09
8.62413e-08
1.00174e-09
8.6237e-08
9.72975e-10
8.62323e-08
9.43363e-10
8.62278e-08
9.15523e-10
8.62236e-08
8.88915e-10
8.62197e-08
8.63279e-10
8.62156e-08
8.37572e-10
8.62111e-08
8.11094e-10
8.62058e-08
7.84052e-10
8.61995e-08
7.54775e-10
8.6192e-08
7.24779e-10
8.61839e-08
6.91977e-10
8.61752e-08
6.60023e-10
8.61669e-08
6.26479e-10
8.61589e-08
5.96066e-10
8.61516e-08
5.65055e-10
8.61446e-08
5.38169e-10
8.61376e-08
5.10004e-10
8.61298e-08
4.85786e-10
8.61211e-08
4.58999e-10
8.61111e-08
4.36408e-10
8.60999e-08
4.10419e-10
8.60876e-08
3.89509e-10
8.6075e-08
3.65053e-10
8.60622e-08
3.46697e-10
8.60498e-08
3.248e-10
8.60382e-08
3.09448e-10
8.60276e-08
2.90096e-10
8.60181e-08
2.7772e-10
8.60098e-08
2.60496e-10
8.60025e-08
2.51124e-10
8.59962e-08
2.35719e-10
8.59904e-08
2.29713e-10
8.5985e-08
2.16194e-10
8.59792e-08
2.1376e-10
8.59732e-08
2.0121e-10
8.59662e-08
2.01016e-10
8.59587e-08
1.88148e-10
8.59502e-08
1.88548e-10
8.5941e-08
1.75322e-10
8.59313e-08
1.75711e-10
1.62558e-10
1.07983e-07
1.96027e-09
-1.07943e-07
1.08041e-07
2.12562e-09
1.08118e-07
2.27025e-09
1.08211e-07
2.40484e-09
1.08318e-07
2.52554e-09
1.08426e-07
2.63148e-09
1.08526e-07
2.7025e-09
1.08611e-07
2.73791e-09
1.08679e-07
2.74148e-09
1.0873e-07
2.71838e-09
1.08765e-07
2.67502e-09
1.08789e-07
2.61798e-09
1.08803e-07
2.55308e-09
1.0881e-07
2.48479e-09
1.08813e-07
2.41629e-09
1.08812e-07
2.34957e-09
1.08808e-07
2.28565e-09
1.08803e-07
2.22479e-09
1.08797e-07
2.16665e-09
1.0879e-07
2.11073e-09
1.08782e-07
2.05681e-09
1.08774e-07
2.00481e-09
1.08765e-07
1.95483e-09
1.08757e-07
1.90709e-09
1.08749e-07
1.86175e-09
1.08741e-07
1.81879e-09
1.08733e-07
1.77802e-09
1.08727e-07
1.73936e-09
1.0872e-07
1.70277e-09
1.08715e-07
1.66791e-09
1.08709e-07
1.63468e-09
1.08704e-07
1.60306e-09
1.08699e-07
1.57287e-09
1.08694e-07
1.544e-09
1.08689e-07
1.51654e-09
1.08685e-07
1.49058e-09
1.08681e-07
1.46623e-09
1.08678e-07
1.44304e-09
1.08676e-07
1.42062e-09
1.08674e-07
1.39865e-09
1.08673e-07
1.37692e-09
1.08672e-07
1.35522e-09
1.0867e-07
1.33381e-09
1.08667e-07
1.31246e-09
1.08665e-07
1.29179e-09
1.08663e-07
1.27218e-09
1.08661e-07
1.25367e-09
1.08662e-07
1.2354e-09
1.08663e-07
1.217e-09
1.08664e-07
1.19746e-09
1.08665e-07
1.17635e-09
1.08664e-07
1.15395e-09
1.08662e-07
1.13103e-09
1.0866e-07
1.10861e-09
1.08658e-07
1.08725e-09
1.08658e-07
1.06755e-09
1.08659e-07
1.04739e-09
1.08662e-07
1.02556e-09
1.08663e-07
1.00012e-09
1.08663e-07
9.7299e-10
1.08662e-07
9.4447e-10
1.08661e-07
9.17091e-10
1.08659e-07
8.9016e-10
1.08659e-07
8.64105e-10
1.08658e-07
8.37997e-10
1.08658e-07
8.11366e-10
1.08657e-07
7.84535e-10
1.08657e-07
7.55638e-10
1.08655e-07
7.26567e-10
1.08652e-07
6.94512e-10
1.08649e-07
6.63433e-10
1.08645e-07
6.30064e-10
1.08642e-07
5.99555e-10
1.08639e-07
5.67763e-10
1.08637e-07
5.40128e-10
1.08636e-07
5.11244e-10
1.08635e-07
4.86855e-10
1.08633e-07
4.60382e-10
1.08631e-07
4.38802e-10
1.08627e-07
4.14027e-10
1.08622e-07
3.94528e-10
1.08616e-07
3.71189e-10
1.08609e-07
3.53501e-10
1.08603e-07
3.31768e-10
1.08596e-07
3.15828e-10
1.08591e-07
2.9571e-10
1.08586e-07
2.81954e-10
1.08583e-07
2.63455e-10
1.08582e-07
2.52692e-10
1.08581e-07
2.36131e-10
1.08582e-07
2.29408e-10
1.08582e-07
2.15357e-10
1.08583e-07
2.13193e-10
1.08583e-07
2.009e-10
1.08583e-07
2.01667e-10
1.08581e-07
1.89534e-10
1.08579e-07
1.90915e-10
1.08576e-07
1.7855e-10
1.08572e-07
1.79402e-10
1.66996e-10
1.36516e-07
-1.36502e-07
1.36538e-07
1.36568e-07
1.36604e-07
1.36647e-07
1.36692e-07
1.36734e-07
1.36772e-07
1.36803e-07
1.36828e-07
1.36846e-07
1.36858e-07
1.36867e-07
1.36872e-07
1.36875e-07
1.36877e-07
1.36877e-07
1.36877e-07
1.36876e-07
1.36875e-07
1.36873e-07
1.3687e-07
1.36867e-07
1.36865e-07
1.36862e-07
1.3686e-07
1.36858e-07
1.36856e-07
1.36854e-07
1.36852e-07
1.36851e-07
1.36849e-07
1.36848e-07
1.36846e-07
1.36845e-07
1.36843e-07
1.36842e-07
1.36842e-07
1.36841e-07
1.36841e-07
1.36842e-07
1.36842e-07
1.36842e-07
1.36841e-07
1.36841e-07
1.3684e-07
1.3684e-07
1.36841e-07
1.36842e-07
1.36843e-07
1.36845e-07
1.36845e-07
1.36845e-07
1.36844e-07
1.36843e-07
1.36843e-07
1.36845e-07
1.36848e-07
1.3685e-07
1.36851e-07
1.36851e-07
1.36851e-07
1.36851e-07
1.36851e-07
1.36852e-07
1.36853e-07
1.36854e-07
1.36854e-07
1.36855e-07
1.36854e-07
1.36853e-07
1.36852e-07
1.36851e-07
1.36851e-07
1.36851e-07
1.36852e-07
1.36854e-07
1.36855e-07
1.36856e-07
1.36856e-07
1.36855e-07
1.36853e-07
1.3685e-07
1.36847e-07
1.36843e-07
1.36841e-07
1.36839e-07
1.36838e-07
1.36838e-07
1.3684e-07
1.36841e-07
1.36844e-07
1.36846e-07
1.36848e-07
1.3685e-07
1.36851e-07
1.36851e-07
1.3685e-07
1.36849e-07
3.44473e-08
8.80462e-11
3.44492e-08
-6.15488e-11
3.44459e-08
7.36445e-11
3.44491e-08
-5.9343e-11
3.4442e-08
6.88674e-11
3.44403e-08
-4.52784e-11
3.44288e-08
6.81741e-11
3.44228e-08
-3.33533e-11
3.44061e-08
7.06928e-11
3.43946e-08
-1.31767e-11
3.43704e-08
8.07429e-11
3.43532e-08
1.37786e-11
3.43194e-08
9.78602e-11
3.42907e-08
4.83695e-11
3.42446e-08
1.20332e-10
3.42007e-08
9.30757e-11
3.41377e-08
1.5229e-10
3.40728e-08
1.53474e-10
3.3986e-08
1.9931e-10
3.38894e-08
2.38448e-10
3.37608e-08
2.76197e-10
3.35861e-08
3.90537e-10
3.33147e-08
4.85067e-10
3.27397e-08
9.52766e-10
1.57469e-09
3.80435e-08
9.32491e-11
3.80445e-08
-6.25515e-11
3.80403e-08
7.78365e-11
3.80398e-08
-5.88642e-11
3.80337e-08
7.499e-11
3.80274e-08
-3.89671e-11
3.80199e-08
7.56368e-11
3.80064e-08
-1.97773e-11
3.79969e-08
8.01375e-11
3.79733e-08
1.04443e-11
3.79604e-08
9.36463e-11
3.79246e-08
4.95803e-11
3.79061e-08
1.16319e-10
3.78534e-08
1.01092e-10
3.78264e-08
1.4739e-10
3.77509e-08
1.68502e-10
3.77115e-08
1.91689e-10
3.76045e-08
2.60478e-10
3.75458e-08
2.58031e-10
3.73902e-08
3.94038e-10
3.72862e-08
3.80195e-10
3.70273e-08
6.49492e-10
3.67648e-08
7.4751e-10
3.63235e-08
1.39412e-09
1.87328e-09
4.20233e-08
7.91406e-11
4.20021e-08
-4.13743e-11
4.20193e-08
6.06645e-11
4.19956e-08
-3.52242e-11
4.20122e-08
5.84173e-11
4.1982e-08
-8.7159e-12
4.19963e-08
6.12913e-11
4.1959e-08
1.75429e-11
4.19695e-08
6.96525e-11
4.19239e-08
5.60071e-11
4.19277e-08
8.98398e-11
4.18722e-08
1.05078e-10
4.18652e-08
1.23324e-10
4.17981e-08
1.6823e-10
4.17731e-08
1.72402e-10
4.16926e-08
2.48953e-10
4.16399e-08
2.44381e-10
4.15435e-08
3.56881e-10
4.14463e-08
3.55255e-10
4.13224e-08
5.179e-10
4.11378e-08
5.64799e-10
4.09492e-08
8.38083e-10
4.06306e-08
1.06611e-09
4.0444e-08
1.58076e-09