/*--------------------------------*- C++ -*----------------------------------*\
| =========                 |                                                 |
| \\      /  F ield         | OpenFOAM: The Open Source CFD Toolbox           |
|  \\    /   O peration     | Version:  2.3.0                                 |
|   \\  /    A nd           | Web:      www.OpenFOAM.org                      |
|    \\/     M anipulation  |                                                 |
\*---------------------------------------------------------------------------*/
FoamFile
{
    version     2.0;
    format      ascii;
    class       volVectorField;
    location    "0.4";
    object      U;
}
// * * * * * * * * * * * * * * * * * * * * * * * * * * * * * * * * * * * * * //

dimensions      [0 1 -1 0 0 0 0];

internalField   nonuniform List<vector> 
1500
(
(0.175952 0.00442321 0)
(0.155193 0.00605595 0)
(0.136306 0.00621988 0)
(0.11784 0.00560917 0)
(0.0999905 0.00478764 0)
(0.0836466 0.00387318 0)
(0.0699307 0.00287727 0)
(0.0592514 0.00182259 0)
(0.0513895 0.000902667 0)
(0.0457728 0.000283192 0)
(0.0418103 -3.95776e-05 0)
(0.0390122 -0.000160669 0)
(0.036987 -0.000170296 0)
(0.0354457 -0.000129768 0)
(0.0341828 -7.23151e-05 0)
(0.0330699 -1.77226e-05 0)
(0.0320384 2.40807e-05 0)
(0.0310599 5.10633e-05 0)
(0.0301276 6.55089e-05 0)
(0.0292439 7.10083e-05 0)
(0.0284131 7.08814e-05 0)
(0.0276379 6.76784e-05 0)
(0.0269184 6.31474e-05 0)
(0.0262523 5.83301e-05 0)
(0.0256358 5.3729e-05 0)
(0.0250645 4.9505e-05 0)
(0.0245345 4.57166e-05 0)
(0.0240412 4.24166e-05 0)
(0.0235804 3.95859e-05 0)
(0.023148 3.71497e-05 0)
(0.0227408 3.49878e-05 0)
(0.0223562 3.29823e-05 0)
(0.0219923 3.11375e-05 0)
(0.0216469 2.9505e-05 0)
(0.0213182 2.80775e-05 0)
(0.0210046 2.67941e-05 0)
(0.0207048 2.55557e-05 0)
(0.0204182 2.43295e-05 0)
(0.0201442 2.31688e-05 0)
(0.019882 2.20975e-05 0)
(0.0196308 2.11096e-05 0)
(0.0193898 2.0166e-05 0)
(0.0191589 1.92165e-05 0)
(0.0189375 1.83144e-05 0)
(0.0187253 1.75127e-05 0)
(0.0185215 1.67529e-05 0)
(0.0183259 1.60174e-05 0)
(0.018138 1.53303e-05 0)
(0.0179577 1.46272e-05 0)
(0.0177851 1.38771e-05 0)
(0.0176201 1.31559e-05 0)
(0.0174625 1.2513e-05 0)
(0.0173117 1.19179e-05 0)
(0.0171674 1.13619e-05 0)
(0.0170295 1.08359e-05 0)
(0.0168979 1.03032e-05 0)
(0.0167725 9.73018e-06 0)
(0.0166536 9.14972e-06 0)
(0.0165411 8.58325e-06 0)
(0.0164349 8.04334e-06 0)
(0.0163349 7.533e-06 0)
(0.0162407 7.0528e-06 0)
(0.0161524 6.57926e-06 0)
(0.0160698 6.10691e-06 0)
(0.015993 5.64171e-06 0)
(0.0159218 5.17524e-06 0)
(0.0158562 4.72179e-06 0)
(0.0157962 4.27159e-06 0)
(0.0157416 3.83819e-06 0)
(0.0156923 3.40643e-06 0)
(0.0156482 3.00427e-06 0)
(0.015609 2.60757e-06 0)
(0.0155747 2.23913e-06 0)
(0.0155449 1.87994e-06 0)
(0.0155194 1.5452e-06 0)
(0.0154981 1.20982e-06 0)
(0.0154806 8.99743e-07 0)
(0.0154668 5.98091e-07 0)
(0.0154562 3.38021e-07 0)
(0.0154487 1.11647e-07 0)
(0.0154438 -5.89197e-08 0)
(0.0154411 -1.9665e-07 0)
(0.01544 -2.91977e-07 0)
(0.0154403 -4.08666e-07 0)
(0.0154413 -4.58294e-07 0)
(0.0154426 -4.53513e-07 0)
(0.0154438 -4.09518e-07 0)
(0.0154444 -3.41794e-07 0)
(0.0154444 -2.51731e-07 0)
(0.0154432 -1.16168e-07 0)
(0.0154414 -3.04099e-09 0)
(0.0154382 1.38314e-07 0)
(0.0154346 2.24053e-07 0)
(0.0154297 3.40799e-07 0)
(0.0154251 3.74797e-07 0)
(0.0154191 4.63682e-07 0)
(0.0154144 4.45694e-07 0)
(0.0154077 5.23748e-07 0)
(0.0154036 4.45333e-07 0)
(0.0153959 5.18976e-07 0)
(0.191352 0.00786885 0)
(0.189611 0.0110275 0)
(0.187178 0.0121603 0)
(0.183429 0.0120373 0)
(0.1781 0.0114216 0)
(0.171372 0.0105293 0)
(0.163867 0.00936403 0)
(0.156044 0.00792132 0)
(0.148263 0.00635666 0)
(0.140741 0.00489568 0)
(0.133616 0.00368782 0)
(0.126997 0.00276757 0)
(0.120942 0.00210335 0)
(0.115478 0.00164871 0)
(0.110575 0.00134974 0)
(0.106174 0.00115444 0)
(0.102209 0.00102145 0)
(0.098622 0.000923145 0)
(0.0953606 0.000843295 0)
(0.0923832 0.000773356 0)
(0.0896554 0.000709438 0)
(0.0871483 0.000650336 0)
(0.0848375 0.000596125 0)
(0.0827014 0.000547019 0)
(0.0807211 0.000502842 0)
(0.0788798 0.000463174 0)
(0.0771632 0.000427822 0)
(0.0755586 0.000396725 0)
(0.0740543 0.000369453 0)
(0.0726396 0.000345372 0)
(0.0713056 0.000323876 0)
(0.0700451 0.00030445 0)
(0.0688518 0.000286887 0)
(0.0677198 0.000271066 0)
(0.0666436 0.000256753 0)
(0.0656187 0.000243652 0)
(0.0646414 0.000231367 0)
(0.0637087 0.000219696 0)
(0.062818 0.000208733 0)
(0.0619664 0.000198517 0)
(0.0611515 0.000188999 0)
(0.0603711 0.000180005 0)
(0.0596237 0.000171317 0)
(0.0589076 0.000163063 0)
(0.0582212 0.000155394 0)
(0.0575629 0.0001481 0)
(0.0569316 0.000141107 0)
(0.056326 0.000134481 0)
(0.0557454 0.000128002 0)
(0.0551893 0.000121544 0)
(0.0546571 0.000115327 0)
(0.054148 0.000109494 0)
(0.0536609 0.000103935 0)
(0.0531952 9.86151e-05 0)
(0.0527504 9.34995e-05 0)
(0.0523261 8.84659e-05 0)
(0.0519222 8.33975e-05 0)
(0.0515387 7.83946e-05 0)
(0.0511752 7.3521e-05 0)
(0.0508314 6.88158e-05 0)
(0.0505069 6.42839e-05 0)
(0.0502013 5.99272e-05 0)
(0.0499143 5.56688e-05 0)
(0.0496456 5.14933e-05 0)
(0.0493952 4.74214e-05 0)
(0.0491626 4.34297e-05 0)
(0.0489477 3.95661e-05 0)
(0.04875 3.58008e-05 0)
(0.0485693 3.21822e-05 0)
(0.0484051 2.86654e-05 0)
(0.0482569 2.53492e-05 0)
(0.0481241 2.21609e-05 0)
(0.0480062 1.91834e-05 0)
(0.0479024 1.63566e-05 0)
(0.047812 1.37447e-05 0)
(0.0477344 1.12663e-05 0)
(0.0476684 9.01791e-06 0)
(0.0476135 6.93434e-06 0)
(0.0475683 5.11823e-06 0)
(0.0475322 3.52467e-06 0)
(0.0475034 2.25229e-06 0)
(0.0474811 1.21859e-06 0)
(0.0474637 4.80953e-07 0)
(0.0474502 -5.84397e-08 0)
(0.0474391 -2.99129e-07 0)
(0.0474293 -2.92583e-07 0)
(0.04742 -9.43275e-08 0)
(0.0474099 2.37246e-07 0)
(0.0473992 6.39142e-07 0)
(0.0473866 1.13624e-06 0)
(0.0473736 1.55833e-06 0)
(0.047358 2.01837e-06 0)
(0.0473434 2.28335e-06 0)
(0.0473257 2.59237e-06 0)
(0.0473113 2.63441e-06 0)
(0.0472927 2.80579e-06 0)
(0.0472804 2.67896e-06 0)
(0.0472611 2.79505e-06 0)
(0.0472527 2.60225e-06 0)
(0.047231 2.58117e-06 0)
(0.192596 0.00759951 0)
(0.192919 0.0101812 0)
(0.193864 0.0117886 0)
(0.194895 0.0123474 0)
(0.195415 0.0122847 0)
(0.195098 0.0118673 0)
(0.193922 0.0111467 0)
(0.191973 0.0101543 0)
(0.189381 0.00899747 0)
(0.186291 0.00783785 0)
(0.182842 0.00680487 0)
(0.179174 0.00595041 0)
(0.175407 0.00526304 0)
(0.171641 0.00471323 0)
(0.167925 0.00426584 0)
(0.164284 0.0038899 0)
(0.160727 0.00356285 0)
(0.157262 0.00327076 0)
(0.153894 0.00300565 0)
(0.150626 0.00276304 0)
(0.147463 0.00254025 0)
(0.144407 0.00233579 0)
(0.14146 0.00214898 0)
(0.138624 0.00197921 0)
(0.135901 0.00182546 0)
(0.133289 0.00168624 0)
(0.130788 0.00156039 0)
(0.128394 0.00144736 0)
(0.126106 0.00134641 0)
(0.123919 0.00125616 0)
(0.121828 0.0011748 0)
(0.119829 0.00110075 0)
(0.117917 0.00103344 0)
(0.116089 0.000972594 0)
(0.114338 0.00091751 0)
(0.112662 0.000867212 0)
(0.111055 0.000820658 0)
(0.109514 0.000777248 0)
(0.108036 0.000736897 0)
(0.106618 0.000699378 0)
(0.105255 0.000664393 0)
(0.103946 0.000631578 0)
(0.102688 0.000600462 0)
(0.101478 0.000571108 0)
(0.100314 0.000543685 0)
(0.0991953 0.000517746 0)
(0.0981187 0.000492983 0)
(0.0970828 0.00046938 0)
(0.0960867 0.00044654 0)
(0.0951292 0.000424255 0)
(0.0942095 0.000402896 0)
(0.0933265 0.000382674 0)
(0.0924792 0.000363326 0)
(0.0916664 0.000344703 0)
(0.0908874 0.000326683 0)
(0.0901417 0.000309049 0)
(0.0894291 0.000291609 0)
(0.0887492 0.000274549 0)
(0.0881019 0.000257969 0)
(0.0874865 0.000241925 0)
(0.0869026 0.000226399 0)
(0.0863495 0.000211378 0)
(0.0858271 0.000196716 0)
(0.0853348 0.000182393 0)
(0.0848726 0.000168455 0)
(0.0844397 0.000154867 0)
(0.0840361 0.000141724 0)
(0.083661 0.000128977 0)
(0.083314 0.000116721 0)
(0.0829944 0.000104875 0)
(0.0827015 9.36312e-05 0)
(0.0824346 8.2864e-05 0)
(0.0821926 7.27541e-05 0)
(0.0819749 6.31955e-05 0)
(0.0817798 5.43331e-05 0)
(0.0816067 4.60223e-05 0)
(0.0814537 3.84718e-05 0)
(0.0813202 3.15558e-05 0)
(0.0812037 2.54777e-05 0)
(0.0811035 2.01107e-05 0)
(0.0810168 1.56752e-05 0)
(0.0809427 1.19833e-05 0)
(0.0808785 9.2185e-06 0)
(0.0808228 7.23207e-06 0)
(0.0807736 6.07919e-06 0)
(0.0807288 5.5557e-06 0)
(0.0806879 5.61188e-06 0)
(0.0806477 6.05131e-06 0)
(0.0806106 6.7466e-06 0)
(0.0805711 7.53026e-06 0)
(0.0805355 8.24947e-06 0)
(0.0804952 8.88418e-06 0)
(0.0804617 9.22512e-06 0)
(0.0804209 9.43343e-06 0)
(0.0803915 9.29048e-06 0)
(0.0803509 9.10838e-06 0)
(0.0803283 8.69918e-06 0)
(0.0802874 8.31275e-06 0)
(0.0802741 8.03794e-06 0)
(0.0802301 7.41041e-06 0)
(0.193784 0.00719821 0)
(0.194056 0.00898109 0)
(0.194918 0.0104332 0)
(0.196274 0.0112065 0)
(0.197732 0.0113942 0)
(0.198947 0.0112008 0)
(0.199752 0.0107421 0)
(0.200098 0.01008 0)
(0.199987 0.00928553 0)
(0.199456 0.00845583 0)
(0.198563 0.00768405 0)
(0.197387 0.00702365 0)
(0.196014 0.00648198 0)
(0.194512 0.00603727 0)
(0.192927 0.00566286 0)
(0.191281 0.00533663 0)
(0.189585 0.00504316 0)
(0.187843 0.00477278 0)
(0.186059 0.00451963 0)
(0.184238 0.00428026 0)
(0.182384 0.00405281 0)
(0.180503 0.00383661 0)
(0.178601 0.00363166 0)
(0.176685 0.00343787 0)
(0.174762 0.00325469 0)
(0.172837 0.00308141 0)
(0.170915 0.00291762 0)
(0.169001 0.00276327 0)
(0.167102 0.00261846 0)
(0.165222 0.00248319 0)
(0.163364 0.00235671 0)
(0.161532 0.00223775 0)
(0.159728 0.00212579 0)
(0.157952 0.0020209 0)
(0.156207 0.0019228 0)
(0.154493 0.00183062 0)
(0.152812 0.00174322 0)
(0.151165 0.00166015 0)
(0.149554 0.00158179 0)
(0.147979 0.00150816 0)
(0.146442 0.00143879 0)
(0.144941 0.00137298 0)
(0.143478 0.00131003 0)
(0.14205 0.00124993 0)
(0.140658 0.00119287 0)
(0.139304 0.0011386 0)
(0.137985 0.00108701 0)
(0.136704 0.00103786 0)
(0.135459 0.000990238 0)
(0.134252 0.000943709 0)
(0.133081 0.00089872 0)
(0.131946 0.000855618 0)
(0.130848 0.000814249 0)
(0.129785 0.000774537 0)
(0.128758 0.000736174 0)
(0.127766 0.000698658 0)
(0.126811 0.000661591 0)
(0.125891 0.000625211 0)
(0.125009 0.000589705 0)
(0.124162 0.000555243 0)
(0.123351 0.000521828 0)
(0.122576 0.000489432 0)
(0.121836 0.000457809 0)
(0.121132 0.000426899 0)
(0.120464 0.00039676 0)
(0.119831 0.000367349 0)
(0.119233 0.000338808 0)
(0.11867 0.000311071 0)
(0.118142 0.00028432 0)
(0.117648 0.000258448 0)
(0.117187 0.000233774 0)
(0.116759 0.000210111 0)
(0.116363 0.000187747 0)
(0.115998 0.000166518 0)
(0.115662 0.000146696 0)
(0.115356 0.00012805 0)
(0.115076 0.000110929 0)
(0.114824 9.51133e-05 0)
(0.114595 8.10263e-05 0)
(0.114389 6.8405e-05 0)
(0.114203 5.76924e-05 0)
(0.114037 4.84631e-05 0)
(0.113887 4.11474e-05 0)
(0.113751 3.52895e-05 0)
(0.113628 3.11822e-05 0)
(0.113514 2.82154e-05 0)
(0.113413 2.66254e-05 0)
(0.113313 2.56956e-05 0)
(0.113227 2.563e-05 0)
(0.113136 2.55979e-05 0)
(0.11306 2.5955e-05 0)
(0.112974 2.58498e-05 0)
(0.112909 2.58368e-05 0)
(0.112826 2.50389e-05 0)
(0.112772 2.44095e-05 0)
(0.112691 2.28774e-05 0)
(0.112652 2.19689e-05 0)
(0.112571 2.00243e-05 0)
(0.11255 1.94821e-05 0)
(0.112464 1.74514e-05 0)
(0.194787 0.00690948 0)
(0.195029 0.00822365 0)
(0.195657 0.00941389 0)
(0.196695 0.0102027 0)
(0.197958 0.0105118 0)
(0.199193 0.0104417 0)
(0.200228 0.0101159 0)
(0.200995 0.00962245 0)
(0.201481 0.00902676 0)
(0.201698 0.00839235 0)
(0.201675 0.0077824 0)
(0.201456 0.00724148 0)
(0.201096 0.00678542 0)
(0.200645 0.00640584 0)
(0.200138 0.00608505 0)
(0.199594 0.00580593 0)
(0.199018 0.00555584 0)
(0.19841 0.00532637 0)
(0.197768 0.00511204 0)
(0.197088 0.00490947 0)
(0.196369 0.00471658 0)
(0.195611 0.00453238 0)
(0.194815 0.00435655 0)
(0.193982 0.00418884 0)
(0.193114 0.00402886 0)
(0.192214 0.00387594 0)
(0.191282 0.00372973 0)
(0.19032 0.00358978 0)
(0.189331 0.00345552 0)
(0.188319 0.00332695 0)
(0.187285 0.00320372 0)
(0.186234 0.00308524 0)
(0.185168 0.00297184 0)
(0.184089 0.00286414 0)
(0.182999 0.00276217 0)
(0.181898 0.00266487 0)
(0.180786 0.0025704 0)
(0.179664 0.00247789 0)
(0.178536 0.00238783 0)
(0.177404 0.00230072 0)
(0.176272 0.00221696 0)
(0.175144 0.00213645 0)
(0.174021 0.00205882 0)
(0.172902 0.00198417 0)
(0.171787 0.00191194 0)
(0.170675 0.00184099 0)
(0.169568 0.00177144 0)
(0.16847 0.00170364 0)
(0.167384 0.00163698 0)
(0.166313 0.00157159 0)
(0.165259 0.00150832 0)
(0.16422 0.00144711 0)
(0.163198 0.00138716 0)
(0.16219 0.00132831 0)
(0.161199 0.00127039 0)
(0.160226 0.0012131 0)
(0.159275 0.00115628 0)
(0.158348 0.0011004 0)
(0.157446 0.00104552 0)
(0.156568 0.000991788 0)
(0.155716 0.000939134 0)
(0.154888 0.000887493 0)
(0.154086 0.000836573 0)
(0.153311 0.000786416 0)
(0.152563 0.000737178 0)
(0.151845 0.000688911 0)
(0.151157 0.000641871 0)
(0.150499 0.000595954 0)
(0.149872 0.000551375 0)
(0.149275 0.000507956 0)
(0.148707 0.00046613 0)
(0.14817 0.00042568 0)
(0.147662 0.00038711 0)
(0.147184 0.000350163 0)
(0.146734 0.000315331 0)
(0.146314 0.000282266 0)
(0.145921 0.000251634 0)
(0.145556 0.000222907 0)
(0.145217 0.000196939 0)
(0.144902 0.000173076 0)
(0.144612 0.000152316 0)
(0.144341 0.000133619 0)
(0.144094 0.000118185 0)
(0.14386 0.000104734 0)
(0.143649 9.44564e-05 0)
(0.143445 8.56055e-05 0)
(0.143266 7.96167e-05 0)
(0.143085 7.42216e-05 0)
(0.142934 7.1187e-05 0)
(0.142769 6.76378e-05 0)
(0.142641 6.60268e-05 0)
(0.142488 6.28827e-05 0)
(0.142382 6.14802e-05 0)
(0.142236 5.76905e-05 0)
(0.142153 5.59587e-05 0)
(0.14201 5.12645e-05 0)
(0.141951 4.94662e-05 0)
(0.141808 4.42474e-05 0)
(0.141777 4.3099e-05 0)
(0.141628 3.80914e-05 0)
(0.195652 0.00667407 0)
(0.195872 0.0077042 0)
(0.196351 0.00866281 0)
(0.197119 0.00938239 0)
(0.198092 0.00975427 0)
(0.19911 0.00979242 0)
(0.200029 0.00958315 0)
(0.200768 0.00921427 0)
(0.201304 0.00875201 0)
(0.201644 0.00824732 0)
(0.20181 0.00774449 0)
(0.201834 0.00727924 0)
(0.201756 0.0068709 0)
(0.201616 0.00652111 0)
(0.201445 0.00622098 0)
(0.201261 0.00595855 0)
(0.201072 0.00572361 0)
(0.200879 0.00550869 0)
(0.200679 0.00530879 0)
(0.200469 0.00512092 0)
(0.200245 0.00494314 0)
(0.200005 0.00477441 0)
(0.199748 0.00461421 0)
(0.199473 0.00446231 0)
(0.199181 0.00431862 0)
(0.19887 0.00418245 0)
(0.198541 0.00405319 0)
(0.198193 0.00393011 0)
(0.197825 0.00381221 0)
(0.197437 0.00369908 0)
(0.197031 0.00359007 0)
(0.196607 0.00348442 0)
(0.196167 0.00338263 0)
(0.195712 0.00328562 0)
(0.195242 0.00319392 0)
(0.194756 0.00310721 0)
(0.194254 0.00302379 0)
(0.193734 0.00294234 0)
(0.193196 0.00286221 0)
(0.192639 0.00278258 0)
(0.192068 0.00270345 0)
(0.191485 0.00262521 0)
(0.190894 0.00254872 0)
(0.190295 0.00247591 0)
(0.189688 0.00240707 0)
(0.18907 0.00234017 0)
(0.18844 0.00227386 0)
(0.187795 0.00220697 0)
(0.187139 0.00213773 0)
(0.186476 0.00206671 0)
(0.185813 0.00199678 0)
(0.185153 0.00192984 0)
(0.184495 0.00186582 0)
(0.183836 0.00180389 0)
(0.183172 0.00174207 0)
(0.182502 0.00167829 0)
(0.18183 0.00161201 0)
(0.18116 0.00154494 0)
(0.1805 0.0014786 0)
(0.179851 0.00141402 0)
(0.179212 0.00135112 0)
(0.178581 0.00128934 0)
(0.177958 0.00122758 0)
(0.177341 0.00116558 0)
(0.176735 0.0011034 0)
(0.176139 0.0010413 0)
(0.175558 0.000979862 0)
(0.174994 0.000919356 0)
(0.174446 0.000860356 0)
(0.173918 0.000802768 0)
(0.173407 0.00074715 0)
(0.172914 0.000692859 0)
(0.172438 0.000640589 0)
(0.171979 0.000589612 0)
(0.171537 0.000540915 0)
(0.171113 0.000493669 0)
(0.170709 0.000449522 0)
(0.170323 0.00040723 0)
(0.169961 0.000368875 0)
(0.169612 0.000332662 0)
(0.169289 0.000301077 0)
(0.168975 0.000271335 0)
(0.168689 0.000246556 0)
(0.168404 0.000223223 0)
(0.168152 0.000205022 0)
(0.167892 0.000187371 0)
(0.167672 0.000174917 0)
(0.167434 0.000161849 0)
(0.167245 0.000153844 0)
(0.167023 0.000143624 0)
(0.166864 0.000138364 0)
(0.166654 0.000129277 0)
(0.166523 0.00012524 0)
(0.16632 0.000115845 0)
(0.166218 0.000112201 0)
(0.166017 0.000101958 0)
(0.165946 9.87987e-05 0)
(0.165742 8.80274e-05 0)
(0.165705 8.60421e-05 0)
(0.165494 7.56834e-05 0)
(0.19642 0.00646419 0)
(0.196614 0.00729184 0)
(0.196985 0.00806338 0)
(0.197553 0.00868169 0)
(0.19828 0.00906238 0)
(0.199076 0.00918232 0)
(0.199834 0.00908117 0)
(0.200477 0.00882427 0)
(0.200968 0.00847174 0)
(0.201304 0.00807005 0)
(0.2015 0.0076551 0)
(0.201581 0.00725533 0)
(0.201579 0.00688943 0)
(0.201522 0.00656435 0)
(0.201438 0.00627798 0)
(0.201346 0.0060237 0)
(0.201255 0.00579411 0)
(0.201169 0.00558296 0)
(0.201087 0.00538601 0)
(0.201006 0.00520063 0)
(0.200924 0.00502511 0)
(0.200839 0.00485888 0)
(0.200751 0.00470175 0)
(0.200658 0.00455338 0)
(0.200561 0.00441368 0)
(0.20046 0.00428225 0)
(0.200354 0.00415842 0)
(0.200243 0.00404144 0)
(0.200126 0.00393029 0)
(0.200004 0.00382435 0)
(0.199874 0.00372262 0)
(0.199737 0.00362394 0)
(0.199593 0.00352856 0)
(0.199444 0.00343736 0)
(0.199289 0.00335136 0)
(0.199128 0.0032711 0)
(0.19896 0.0031955 0)
(0.198784 0.00312327 0)
(0.198597 0.00305309 0)
(0.198399 0.00298286 0)
(0.198188 0.00291158 0)
(0.197969 0.00283933 0)
(0.197743 0.00276723 0)
(0.197511 0.00269807 0)
(0.197275 0.00263361 0)
(0.197032 0.00257304 0)
(0.19678 0.00251532 0)
(0.196515 0.00245807 0)
(0.196235 0.00239734 0)
(0.195942 0.00233163 0)
(0.195641 0.00226302 0)
(0.195336 0.00219454 0)
(0.195033 0.00212903 0)
(0.19473 0.00206882 0)
(0.194422 0.00201276 0)
(0.194101 0.00195636 0)
(0.193767 0.00189501 0)
(0.19342 0.0018282 0)
(0.193071 0.00175809 0)
(0.192723 0.00168856 0)
(0.19238 0.00162173 0)
(0.192039 0.00155793 0)
(0.191698 0.00149516 0)
(0.191353 0.00143229 0)
(0.191004 0.00136833 0)
(0.190653 0.00130307 0)
(0.190302 0.00123684 0)
(0.189953 0.00116987 0)
(0.189608 0.00110345 0)
(0.18927 0.00103786 0)
(0.18894 0.000974938 0)
(0.188617 0.000913634 0)
(0.188302 0.000855462 0)
(0.187991 0.00079818 0)
(0.187686 0.000743541 0)
(0.187382 0.000688837 0)
(0.18709 0.000637383 0)
(0.186797 0.000586079 0)
(0.186522 0.000539646 0)
(0.186246 0.000494046 0)
(0.185994 0.000455044 0)
(0.185736 0.000416671 0)
(0.185507 0.000385705 0)
(0.185264 0.000354471 0)
(0.185058 0.000330873 0)
(0.184827 0.000305528 0)
(0.184643 0.000288109 0)
(0.184422 0.000267442 0)
(0.184261 0.000255072 0)
(0.18405 0.00023761 0)
(0.183913 0.000228944 0)
(0.183708 0.000213171 0)
(0.183595 0.000206741 0)
(0.18339 0.000190984 0)
(0.183302 0.000185748 0)
(0.183094 0.000169163 0)
(0.183033 0.000164996 0)
(0.182818 0.000147802 0)
(0.182787 0.000145229 0)
(0.182562 0.000128498 0)
(0.19711 0.00626759 0)
(0.197275 0.00694057 0)
(0.19756 0.00756541 0)
(0.197978 0.00808623 0)
(0.198512 0.00844576 0)
(0.199112 0.00861465 0)
(0.199708 0.00860199 0)
(0.200239 0.00844496 0)
(0.200665 0.00818941 0)
(0.200972 0.0078763 0)
(0.201166 0.00753768 0)
(0.201266 0.00719805 0)
(0.201293 0.00687458 0)
(0.201271 0.00657641 0)
(0.201222 0.00630568 0)
(0.201162 0.00606015 0)
(0.201101 0.00583535 0)
(0.201044 0.00562658 0)
(0.200991 0.00543065 0)
(0.200942 0.00524554 0)
(0.200895 0.00506964 0)
(0.200848 0.00490266 0)
(0.2008 0.00474488 0)
(0.200752 0.00459587 0)
(0.200705 0.00445534 0)
(0.200657 0.00432319 0)
(0.20061 0.00419917 0)
(0.200563 0.00408251 0)
(0.200517 0.00397208 0)
(0.200472 0.00386706 0)
(0.200426 0.00376632 0)
(0.200379 0.00366883 0)
(0.200331 0.00357484 0)
(0.200282 0.00348491 0)
(0.200233 0.0033999 0)
(0.200184 0.00332058 0)
(0.200133 0.00324645 0)
(0.200082 0.00317662 0)
(0.20003 0.00310997 0)
(0.199973 0.00304415 0)
(0.199913 0.00297726 0)
(0.199848 0.00290855 0)
(0.19978 0.00283884 0)
(0.199711 0.0027708 0)
(0.19964 0.00270688 0)
(0.199568 0.00264795 0)
(0.199495 0.00259435 0)
(0.199418 0.0025435 0)
(0.199333 0.0024901 0)
(0.199239 0.00243075 0)
(0.199139 0.00236582 0)
(0.199034 0.0022977 0)
(0.198929 0.00223037 0)
(0.198826 0.00216902 0)
(0.198726 0.00211546 0)
(0.19862 0.00206611 0)
(0.198505 0.00201357 0)
(0.198377 0.00195334 0)
(0.198242 0.00188502 0)
(0.198104 0.00181382 0)
(0.197968 0.00174449 0)
(0.197835 0.00167987 0)
(0.197701 0.00161827 0)
(0.197564 0.00155799 0)
(0.197423 0.00149707 0)
(0.197276 0.0014345 0)
(0.197124 0.0013703 0)
(0.196967 0.00130368 0)
(0.196809 0.00123635 0)
(0.196649 0.00116792 0)
(0.196493 0.00110212 0)
(0.196339 0.0010374 0)
(0.196189 0.000977589 0)
(0.196038 0.000918752 0)
(0.195891 0.000864392 0)
(0.195736 0.000808845 0)
(0.195587 0.000757385 0)
(0.195427 0.000703645 0)
(0.195279 0.000655416 0)
(0.195118 0.00060536 0)
(0.194977 0.00056335 0)
(0.19482 0.000519804 0)
(0.194691 0.000486058 0)
(0.194539 0.000450096 0)
(0.194422 0.000424329 0)
(0.194274 0.000394534 0)
(0.19417 0.000375151 0)
(0.194025 0.000349848 0)
(0.193934 0.000335472 0)
(0.193791 0.000313171 0)
(0.193715 0.000302847 0)
(0.193573 0.000282514 0)
(0.19351 0.000275257 0)
(0.193365 0.000255232 0)
(0.193316 0.000249863 0)
(0.193163 0.000229046 0)
(0.193129 0.000225004 0)
(0.192966 0.000203605 0)
(0.192949 0.00020105 0)
(0.192777 0.000180149 0)
(0.197705 0.0060957 0)
(0.197839 0.00665541 0)
(0.198057 0.00717417 0)
(0.198367 0.00761674 0)
(0.198758 0.00794585 0)
(0.199203 0.00813644 0)
(0.199658 0.00818416 0)
(0.200079 0.00810551 0)
(0.200431 0.00793041 0)
(0.200696 0.00769161 0)
(0.200874 0.00741751 0)
(0.200975 0.00713017 0)
(0.201017 0.00684571 0)
(0.201015 0.00657434 0)
(0.200987 0.0063206 0)
(0.200947 0.00608508 0)
(0.200903 0.00586605 0)
(0.200861 0.0056606 0)
(0.200822 0.00546639 0)
(0.200786 0.00528203 0)
(0.200751 0.00510639 0)
(0.200716 0.00493903 0)
(0.200682 0.00478023 0)
(0.200648 0.00462996 0)
(0.200614 0.004488 0)
(0.200581 0.0043542 0)
(0.200549 0.00422838 0)
(0.200518 0.00410989 0)
(0.20049 0.00399785 0)
(0.200463 0.00389145 0)
(0.200438 0.00378958 0)
(0.200413 0.00369137 0)
(0.200389 0.0035969 0)
(0.200366 0.00350637 0)
(0.200344 0.00342036 0)
(0.200321 0.00333971 0)
(0.200299 0.00326439 0)
(0.20028 0.00319369 0)
(0.200263 0.00312663 0)
(0.200246 0.00306112 0)
(0.200228 0.00299514 0)
(0.200209 0.00292737 0)
(0.200189 0.00285846 0)
(0.200169 0.00279072 0)
(0.200147 0.00272634 0)
(0.200125 0.00266652 0)
(0.200106 0.00261253 0)
(0.200087 0.0025625 0)
(0.200067 0.00251152 0)
(0.200045 0.00245556 0)
(0.20002 0.00239377 0)
(0.19999 0.00232723 0)
(0.199958 0.00225918 0)
(0.199927 0.00219548 0)
(0.199899 0.00214018 0)
(0.199872 0.00209231 0)
(0.199844 0.0020444 0)
(0.199809 0.00198975 0)
(0.199769 0.00192482 0)
(0.199725 0.0018542 0)
(0.199681 0.00178341 0)
(0.199637 0.00171749 0)
(0.199595 0.00165569 0)
(0.199552 0.00159656 0)
(0.199507 0.00153781 0)
(0.19946 0.00147788 0)
(0.199409 0.00141683 0)
(0.199353 0.00135256 0)
(0.199294 0.00128714 0)
(0.199232 0.00121863 0)
(0.199171 0.00115233 0)
(0.199108 0.00108568 0)
(0.19905 0.00102503 0)
(0.198989 0.000965204 0)
(0.198934 0.000911959 0)
(0.198871 0.000857307 0)
(0.198813 0.000808307 0)
(0.198743 0.00075564 0)
(0.198681 0.000709278 0)
(0.198604 0.000658859 0)
(0.19854 0.000617095 0)
(0.198459 0.000571643 0)
(0.198399 0.000537031 0)
(0.198319 0.000498646 0)
(0.198265 0.000471755 0)
(0.198187 0.000439569 0)
(0.198141 0.00041909 0)
(0.198066 0.000391433 0)
(0.198028 0.000376056 0)
(0.197955 0.000351429 0)
(0.197926 0.000340488 0)
(0.197853 0.0003182 0)
(0.197831 0.000311253 0)
(0.197753 0.000289783 0)
(0.197737 0.000285373 0)
(0.197651 0.000263366 0)
(0.19764 0.000260201 0)
(0.197545 0.000237832 0)
(0.197539 0.000235661 0)
(0.197437 0.000213903 0)
(0.198276 0.00595482 0)
(0.198377 0.00643023 0)
(0.198534 0.00686991 0)
(0.198751 0.0072498 0)
(0.199024 0.0075455 0)
(0.199336 0.00773794 0)
(0.199661 0.00781943 0)
(0.19997 0.00779565 0)
(0.200238 0.00768372 0)
(0.20045 0.00750671 0)
(0.2006 0.00728776 0)
(0.200693 0.0070464 0)
(0.200738 0.00679782 0)
(0.200749 0.00655274 0)
(0.200737 0.00631712 0)
(0.200713 0.00609336 0)
(0.200684 0.00588199 0)
(0.200655 0.00568199 0)
(0.200627 0.00549159 0)
(0.200602 0.00530962 0)
(0.200576 0.00513568 0)
(0.200552 0.00496947 0)
(0.200527 0.00481089 0)
(0.200502 0.00466026 0)
(0.200477 0.00451778 0)
(0.200452 0.00438311 0)
(0.200429 0.00425578 0)
(0.200406 0.00413533 0)
(0.200386 0.00402127 0)
(0.200368 0.00391299 0)
(0.200351 0.00380967 0)
(0.200334 0.00371065 0)
(0.200318 0.00361565 0)
(0.200304 0.00352435 0)
(0.200289 0.00343721 0)
(0.200275 0.00335513 0)
(0.200261 0.00327828 0)
(0.20025 0.00320579 0)
(0.200242 0.00313661 0)
(0.200234 0.00306928 0)
(0.200228 0.00300256 0)
(0.200221 0.00293514 0)
(0.200215 0.00286719 0)
(0.200209 0.00280005 0)
(0.2002 0.0027355 0)
(0.20019 0.00267452 0)
(0.200184 0.00261845 0)
(0.20018 0.00256628 0)
(0.200177 0.00251454 0)
(0.200175 0.00245943 0)
(0.200174 0.00239954 0)
(0.200169 0.00233528 0)
(0.200161 0.00226872 0)
(0.200151 0.00220454 0)
(0.200143 0.00214683 0)
(0.200136 0.00209686 0)
(0.200134 0.0020487 0)
(0.200131 0.00199615 0)
(0.200127 0.00193397 0)
(0.200119 0.0018655 0)
(0.200109 0.00179513 0)
(0.200097 0.0017287 0)
(0.200087 0.00166623 0)
(0.200077 0.00160689 0)
(0.200068 0.0015487 0)
(0.200058 0.00148978 0)
(0.200047 0.00143071 0)
(0.200034 0.00136835 0)
(0.200019 0.00130531 0)
(0.2 0.00123794 0)
(0.199981 0.00117259 0)
(0.19996 0.00110532 0)
(0.199942 0.00104423 0)
(0.199922 0.000983191 0)
(0.199907 0.000930014 0)
(0.199888 0.000875445 0)
(0.199874 0.000828077 0)
(0.199852 0.00077675 0)
(0.199835 0.000732765 0)
(0.199807 0.000683617 0)
(0.199785 0.000643406 0)
(0.19975 0.000598126 0)
(0.199726 0.000563586 0)
(0.19969 0.00052421 0)
(0.199668 0.000496255 0)
(0.199634 0.000462433 0)
(0.199618 0.000440405 0)
(0.199588 0.000410859 0)
(0.199578 0.000394037 0)
(0.199552 0.000367679 0)
(0.199548 0.000355942 0)
(0.199524 0.000332532 0)
(0.199524 0.000326028 0)
(0.199496 0.00030434 0)
(0.199498 0.000301237 0)
(0.199463 0.000279605 0)
(0.199465 0.000277633 0)
(0.199423 0.000255964 0)
(0.199424 0.000254384 0)
(0.199378 0.000233348 0)
(0.198891 0.00583953 0)
(0.198953 0.00624785 0)
(0.199046 0.00662484 0)
(0.199174 0.00695372 0)
(0.199334 0.00721796 0)
(0.199518 0.00740341 0)
(0.199713 0.00750252 0)
(0.199903 0.00751594 0)
(0.200074 0.00745218 0)
(0.200214 0.00732568 0)
(0.200319 0.00715349 0)
(0.200389 0.00695214 0)
(0.200428 0.00673568 0)
(0.200444 0.00651484 0)
(0.200443 0.00629675 0)
(0.200433 0.00608535 0)
(0.200419 0.00588249 0)
(0.200403 0.00568864 0)
(0.200388 0.00550303 0)
(0.200373 0.00532481 0)
(0.200359 0.00515384 0)
(0.200345 0.0049901 0)
(0.20033 0.00483336 0)
(0.200316 0.00468366 0)
(0.200301 0.00454127 0)
(0.200286 0.00440618 0)
(0.200272 0.00427811 0)
(0.200258 0.00415686 0)
(0.200245 0.00404201 0)
(0.200234 0.00393249 0)
(0.200224 0.00382774 0)
(0.200214 0.00372772 0)
(0.200205 0.00363227 0)
(0.200196 0.00354091 0)
(0.200188 0.00345358 0)
(0.200179 0.00337055 0)
(0.20017 0.00329224 0)
(0.200163 0.00321785 0)
(0.200159 0.0031465 0)
(0.200155 0.00307721 0)
(0.200153 0.00300923 0)
(0.20015 0.00294164 0)
(0.200148 0.0028746 0)
(0.200146 0.0028081 0)
(0.200141 0.00274368 0)
(0.200135 0.0026824 0)
(0.200132 0.0026248 0)
(0.200131 0.00256959 0)
(0.200131 0.00251532 0)
(0.200133 0.00245924 0)
(0.200137 0.0023999 0)
(0.200137 0.00233758 0)
(0.200136 0.00227377 0)
(0.200132 0.00221118 0)
(0.200128 0.00215217 0)
(0.200123 0.00209884 0)
(0.200124 0.00204728 0)
(0.200128 0.0019936 0)
(0.200133 0.00193274 0)
(0.200135 0.00186724 0)
(0.200135 0.00179888 0)
(0.200132 0.00173308 0)
(0.200129 0.00166986 0)
(0.200127 0.00160953 0)
(0.200125 0.00155062 0)
(0.200125 0.00149155 0)
(0.200124 0.00143314 0)
(0.200123 0.00137175 0)
(0.200121 0.00131056 0)
(0.200118 0.00124458 0)
(0.200113 0.00118062 0)
(0.200106 0.00111343 0)
(0.200099 0.00105205 0)
(0.200092 0.00098964 0)
(0.200088 0.000935523 0)
(0.200084 0.000880178 0)
(0.200083 0.000833234 0)
(0.20008 0.000783031 0)
(0.200078 0.000741236 0)
(0.200072 0.000694246 0)
(0.200067 0.000656182 0)
(0.200054 0.000612289 0)
(0.200045 0.000578272 0)
(0.20003 0.000538479 0)
(0.20002 0.000509117 0)
(0.200005 0.000473601 0)
(0.199998 0.00044926 0)
(0.199988 0.0004176 0)
(0.199986 0.000398698 0)
(0.19998 0.000370644 0)
(0.199984 0.000357913 0)
(0.199981 0.000333719 0)
(0.199987 0.000327716 0)
(0.199983 0.000306367 0)
(0.199989 0.000304759 0)
(0.199981 0.000284138 0)
(0.199985 0.000283612 0)
(0.199972 0.000263152 0)
(0.199974 0.000262418 0)
(0.199959 0.000242404 0)
(0.199568 0.00577372 0)
(0.199586 0.00614097 0)
(0.199613 0.00647932 0)
(0.199652 0.00677617 0)
(0.199703 0.00701866 0)
(0.199762 0.00719572 0)
(0.199826 0.00730038 0)
(0.19989 0.00733147 0)
(0.199949 0.00729344 0)
(0.2 0.00719589 0)
(0.20004 0.00705181 0)
(0.200068 0.00687514 0)
(0.200086 0.00667876 0)
(0.200096 0.0064731 0)
(0.200099 0.00626616 0)
(0.200099 0.00606318 0)
(0.200097 0.00586641 0)
(0.200094 0.0056768 0)
(0.200091 0.00549474 0)
(0.200088 0.00531983 0)
(0.200085 0.0051516 0)
(0.200082 0.00498983 0)
(0.200079 0.00483472 0)
(0.200075 0.00468639 0)
(0.200072 0.00454487 0)
(0.200068 0.00441024 0)
(0.200065 0.00428216 0)
(0.200062 0.00416044 0)
(0.200059 0.0040451 0)
(0.200056 0.00393515 0)
(0.200053 0.00383019 0)
(0.200051 0.00373034 0)
(0.200049 0.00363515 0)
(0.200047 0.00354413 0)
(0.200045 0.00345713 0)
(0.200043 0.00337382 0)
(0.200041 0.00329487 0)
(0.200039 0.00321941 0)
(0.200039 0.00314662 0)
(0.200038 0.00307584 0)
(0.200039 0.00300681 0)
(0.200039 0.00293907 0)
(0.200039 0.00287346 0)
(0.200039 0.0028084 0)
(0.200039 0.00274476 0)
(0.200037 0.00268368 0)
(0.200037 0.00262512 0)
(0.200036 0.00256694 0)
(0.200038 0.00250983 0)
(0.200039 0.00245256 0)
(0.200043 0.00239383 0)
(0.200044 0.00233369 0)
(0.200045 0.00227322 0)
(0.200043 0.00221356 0)
(0.200042 0.00215445 0)
(0.20004 0.0020981 0)
(0.200042 0.00204169 0)
(0.200045 0.00198489 0)
(0.200049 0.0019235 0)
(0.200052 0.0018609 0)
(0.200053 0.00179547 0)
(0.200054 0.0017319 0)
(0.200053 0.00166886 0)
(0.200054 0.00160798 0)
(0.200053 0.00154797 0)
(0.200055 0.001488 0)
(0.200056 0.00142931 0)
(0.200058 0.00136789 0)
(0.200058 0.00130807 0)
(0.200059 0.00124354 0)
(0.200058 0.00118177 0)
(0.200056 0.00111575 0)
(0.200054 0.00105484 0)
(0.200053 0.000991327 0)
(0.200052 0.000935292 0)
(0.200053 0.000877708 0)
(0.200055 0.000828982 0)
(0.200057 0.000778069 0)
(0.200059 0.000737173 0)
(0.20006 0.000692163 0)
(0.200061 0.000657111 0)
(0.200058 0.000616316 0)
(0.200055 0.000584839 0)
(0.20005 0.000546795 0)
(0.200045 0.000517439 0)
(0.20004 0.000481375 0)
(0.200037 0.000454899 0)
(0.200034 0.000420895 0)
(0.200033 0.000399232 0)
(0.200034 0.000368514 0)
(0.200037 0.000353976 0)
(0.200039 0.000328238 0)