/*--------------------------------*- C++ -*----------------------------------*\
| =========                 |                                                 |
| \\      /  F ield         | OpenFOAM: The Open Source CFD Toolbox           |
|  \\    /   O peration     | Version:  2.3.0                                 |
|   \\  /    A nd           | Web:      www.OpenFOAM.org                      |
|    \\/     M anipulation  |                                                 |
\*---------------------------------------------------------------------------*/
FoamFile
{
    version     2.0;
    format      ascii;
    class       volScalarField;
    location    "1";
    object      p;
}
// * * * * * * * * * * * * * * * * * * * * * * * * * * * * * * * * * * * * * //

dimensions      [0 2 -2 0 0 0 0];

internalField   nonuniform List<scalar> 
3375
(
0.00528898
0.00466577
0.00415215
0.00377938
0.00346967
0.00318951
0.00293835
0.0027208
0.00253833
0.00238989
0.00227284
0.0021834
0.00211689
0.00206837
0.00203306
0.00200684
0.00198634
0.00196904
0.00195317
0.00193756
0.00192154
0.00190473
0.00188701
0.00186837
0.00184886
0.00182859
0.00180766
0.00178617
0.00176419
0.00174182
0.0017191
0.00169608
0.00167281
0.00164932
0.00162563
0.00160176
0.00157774
0.00155359
0.00152931
0.00150492
0.00148044
0.00145587
0.00143123
0.00140652
0.00138175
0.00135693
0.00133207
0.00130717
0.00128224
0.00125729
0.00123232
0.00120733
0.00118232
0.00115731
0.00113229
0.00110727
0.00108224
0.00105722
0.00103219
0.00100717
0.000982154
0.000957139
0.00093213
0.000907126
0.000882127
0.000857133
0.000832145
0.000807162
0.000782184
0.00075721
0.000732241
0.000707274
0.00068231
0.000657348
0.000632387
0.000607426
0.000582465
0.000557502
0.000532538
0.00050757
0.000482598
0.000457622
0.00043264
0.000407652
0.000382657
0.000357654
0.000332643
0.000307622
0.000282591
0.00025755
0.000232498
0.000207435
0.000182359
0.000157271
0.000132172
0.000107061
8.19418e-05
5.68291e-05
3.18447e-05
5.05305e-06
0.00499405
0.00454823
0.00412588
0.00378693
0.00349213
0.00321961
0.00297181
0.002755
0.00257176
0.0024216
0.00230229
0.00221025
0.00214103
0.00208981
0.00205196
0.00202338
0.00200077
0.00198161
0.00196413
0.00194715
0.00192995
0.00191217
0.00189362
0.00187428
0.00185419
0.00183342
0.00181206
0.0017902
0.00176791
0.00174525
0.00172228
0.00169905
0.00167558
0.00165191
0.00162807
0.00160406
0.00157991
0.00155564
0.00153125
0.00150677
0.00148219
0.00145754
0.00143282
0.00140803
0.0013832
0.00135832
0.0013334
0.00130845
0.00128347
0.00125847
0.00123345
0.00120841
0.00118337
0.00115832
0.00113327
0.00110821
0.00108315
0.00105809
0.00103304
0.00100799
0.000982947
0.000957908
0.000932874
0.000907847
0.000882826
0.000857812
0.000832804
0.000807802
0.000782806
0.000757815
0.000732828
0.000707845
0.000682866
0.000657889
0.000632913
0.000607939
0.000582964
0.000557989
0.000533012
0.000508032
0.000483049
0.000458061
0.000433069
0.00040807
0.000383065
0.000358053
0.000333032
0.000308002
0.000282962
0.000257913
0.000232853
0.000207781
0.000182698
0.000157603
0.000132496
0.000107379
8.22538e-05
5.71397e-05
3.22488e-05
4.93354e-06
0.00477996
0.00444657
0.00408848
0.00377546
0.00349669
0.00323822
0.00300146
0.00279191
0.00261236
0.00246286
0.00234179
0.00224633
0.00217275
0.00211684
0.00207446
0.00204181
0.00201574
0.00199377
0.00197407
0.0019554
0.00193692
0.00191817
0.0018989
0.001879
0.00185846
0.00183733
0.00181567
0.00179354
0.00177102
0.00174815
0.001725
0.00170159
0.00167796
0.00165415
0.00163017
0.00160603
0.00158177
0.00155739
0.00153291
0.00150834
0.00148368
0.00145895
0.00143416
0.00140931
0.00138441
0.00135947
0.0013345
0.0013095
0.00128448
0.00125943
0.00123437
0.0012093
0.00118422
0.00115914
0.00113406
0.00110897
0.00108388
0.0010588
0.00103372
0.00100865
0.000983585
0.000958525
0.000933472
0.000908426
0.000883387
0.000858356
0.000833331
0.000808314
0.000783302
0.000758297
0.000733297
0.000708301
0.000683309
0.00065832
0.000633333
0.000608347
0.000583361
0.000558376
0.000533389
0.000508399
0.000483407
0.00045841
0.000433409
0.000408403
0.000383389
0.000358369
0.000333341
0.000308304
0.000283257
0.000258201
0.000233134
0.000208056
0.000182966
0.000157865
0.000132752
0.000107628
8.24941e-05
5.73663e-05
3.23559e-05
3.9207e-06
0.00459725
0.00433612
0.0040331
0.00375069
0.00349339
0.00325356
0.0030319
0.00283302
0.00265992
0.00251322
0.00239196
0.00229405
0.00221653
0.00215589
0.00210853
0.00207109
0.00204065
0.00201485
0.0019919
0.00197052
0.00194983
0.00192926
0.00190851
0.00188741
0.00186588
0.00184393
0.00182158
0.00179888
0.00177586
0.00175257
0.00172904
0.0017053
0.00168139
0.00165731
0.0016331
0.00160876
0.00158431
0.00155977
0.00153513
0.00151042
0.00148563
0.00146079
0.00143589
0.00141094
0.00138596
0.00136094
0.00133589
0.00131082
0.00128573
0.00126063
0.00123551
0.00121039
0.00118526
0.00116014
0.00113501
0.00110988
0.00108476
0.00105964
0.00103453
0.00100943
0.000984331
0.000959243
0.000934163
0.000909093
0.00088403
0.000858977
0.000833931
0.000808893
0.000783863
0.00075884
0.000733822
0.00070881
0.000683802
0.000658798
0.000633796
0.000608797
0.000583798
0.0005588
0.0005338
0.000508799
0.000483796
0.000458789
0.000433777
0.000408761
0.000383738
0.000358708
0.000333671
0.000308625
0.000283571
0.000258506
0.000233431
0.000208346
0.000183249
0.000158141
0.00013302
0.000107885
8.27306e-05
5.7547e-05
3.2186e-05
2.29169e-06
0.00443487
0.0042253
0.00397159
0.00372169
0.00348708
0.00326596
0.00305959
0.00287205
0.00270641
0.00256375
0.00244361
0.00234446
0.00226398
0.0021993
0.00214737
0.00210527
0.0020704
0.00204057
0.0020141
0.0019897
0.00196647
0.00194379
0.00192129
0.00189873
0.00187599
0.00185302
0.00182981
0.00180635
0.00178268
0.00175881
0.00173477
0.00171059
0.00168626
0.00166182
0.00163728
0.00161264
0.00158792
0.00156312
0.00153826
0.00151334
0.00148837
0.00146335
0.00143829
0.0014132
0.00138809
0.00136294
0.00133778
0.00131261
0.00128742
0.00126223
0.00123704
0.00121184
0.00118664
0.00116145
0.00113626
0.00111107
0.0010859
0.00106073
0.00103557
0.00101042
0.000985288
0.000960161
0.000935045
0.00090994
0.000884845
0.000859761
0.000834687
0.000809622
0.000784565
0.000759517
0.000734476
0.000709441
0.000684412
0.000659388
0.000634367
0.000609349
0.000584333
0.000559318
0.000534302
0.000509286
0.000484268
0.000459246
0.000434221
0.000409191
0.000384156
0.000359114
0.000334065
0.000309009
0.000283943
0.000258868
0.000233783
0.000208688
0.000183582
0.000158463
0.000133331
0.000108178
8.29874e-05
5.76868e-05
3.18103e-05
5.52731e-07
0.00429483
0.00412226
0.00390911
0.00368931
0.00347648
0.0032732
0.00308174
0.00290577
0.00274828
0.00261059
0.00249263
0.00239335
0.00231097
0.00224317
0.00218743
0.00214124
0.00210232
0.00206871
0.00203883
0.00201143
0.00198562
0.00196075
0.00193639
0.00191226
0.00188818
0.00186407
0.00183987
0.00181555
0.00179113
0.00176659
0.00174195
0.00171723
0.00169242
0.00166754
0.0016426
0.00161759
0.00159254
0.00156744
0.0015423
0.00151712
0.00149191
0.00146668
0.00144142
0.00141615
0.00139086
0.00136556
0.00134025
0.00131494
0.00128963
0.00126433
0.00123902
0.00121372
0.00118843
0.00116315
0.00113788
0.00111262
0.00108737
0.00106214
0.00103692
0.00101171
0.000986519
0.00096134
0.000936175
0.000911024
0.000885886
0.000860761
0.000835648
0.000810546
0.000785455
0.000760374
0.000735301
0.000710237
0.00068518
0.000660129
0.000635082
0.00061004
0.000585
0.000559963
0.000534926
0.00050989
0.000484852
0.000459812
0.000434769
0.000409722
0.00038467
0.000359612
0.000334548
0.000309476
0.000284397
0.000259308
0.00023421
0.000209102
0.000183983
0.000158852
0.000133703
0.000108526
8.32805e-05
5.78174e-05
3.14069e-05
-6.77115e-07
0.0041738
0.00402759
0.00384656
0.00365359
0.00346152
0.00327543
0.00309849
0.00293409
0.00278506
0.00265288
0.00253783
0.00243926
0.00235584
0.00228577
0.00222696
0.00217731
0.00213483
0.00209779
0.00206472
0.00203448
0.00200615
0.00197911
0.00195287
0.00192713
0.00190167
0.00187636
0.00185112
0.0018259
0.00180067
0.00177542
0.00175014
0.00172484
0.00169951
0.00167415
0.00164877
0.00162337
0.00159795
0.00157251
0.00154706
0.00152159
0.00149612
0.00147064
0.00144516
0.00141968
0.0013942
0.00136872
0.00134324
0.00131778
0.00129232
0.00126688
0.00124145
0.00121603
0.00119063
0.00116524
0.00113987
0.00111452
0.00108919
0.00106388
0.00103858
0.0010133
0.000988045
0.000962804
0.000937579
0.000912372
0.000887181
0.000862005
0.000836844
0.000811697
0.000786563
0.000761441
0.00073633
0.000711228
0.000686136
0.000661051
0.000635973
0.0006109
0.000585831
0.000560766
0.000535702
0.00051064
0.000485578
0.000460514
0.000435448
0.00041038
0.000385307
0.000360229
0.000335145
0.000310055
0.000284957
0.000259851
0.000234737
0.000209612
0.000184477
0.000159329
0.00013416
0.000108952
8.36425e-05
5.80155e-05
3.12144e-05
-8.70726e-07
0.00406815
0.00394123
0.00378556
0.00361605
0.00344338
0.00327361
0.00311052
0.00295737
0.00281681
0.00269044
0.0025788
0.00248159
0.00239787
0.00232625
0.00226506
0.00221255
0.00216701
0.00212692
0.00209096
0.00205806
0.00202736
0.00199821
0.00197014
0.0019428
0.00191596
0.00188944
0.00186313
0.00183698
0.00181092
0.00178493
0.00175898
0.00173308
0.0017072
0.00168135
0.00165551
0.00162969
0.00160389
0.00157809
0.00155232
0.00152655
0.0015008
0.00147506
0.00144934
0.00142363
0.00139794
0.00137227
0.00134661
0.00132098
0.00129537
0.00126978
0.00124421
0.00121866
0.00119314
0.00116764
0.00114217
0.00111672
0.0010913
0.00106589
0.00104051
0.00101516
0.000989825
0.000964513
0.000939222
0.000913952
0.000888701
0.000863469
0.000838254
0.000813056
0.000787873
0.000762705
0.00073755
0.000712406
0.000687273
0.00066215
0.000637035
0.000611927
0.000586824
0.000561726
0.000536632
0.00051154
0.000486448
0.000461357
0.000436265
0.000411171
0.000386073
0.000360971
0.000335864
0.000310752
0.000285633
0.000260506
0.000235371
0.000210228
0.000185074
0.000159906
0.000134714
0.000109474
8.41052e-05
5.83621e-05
3.14241e-05
1.92946e-07
0.00397514
0.00386286
0.0037273
0.00357791
0.00342292
0.00326837
0.00311833
0.00297597
0.00284377
0.00272339
0.00261555
0.00252024
0.00243685
0.00236434
0.00230139
0.00224657
0.00219845
0.0021557
0.00211714
0.0020818
0.00204887
0.00201773
0.00198788
0.00195897
0.00193075
0.00190302
0.00187564
0.00184854
0.00182163
0.00179489
0.00176826
0.00174174
0.0017153
0.00168893
0.00166263
0.00163638
0.00161017
0.00158402
0.0015579
0.00153182
0.00150578
0.00147978
0.0014538
0.00142786
0.00140196
0.00137609
0.00135024
0.00132444
0.00129866
0.00127292
0.00124721
0.00122153
0.00119588
0.00117026
0.00114468
0.00111913
0.0010936
0.00106811
0.00104264
0.0010172
0.000991791
0.000966405
0.000941045
0.000915708
0.000890394
0.000865102
0.00083983
0.000814577
0.000789343
0.000764125
0.000738922
0.000713734
0.000688558
0.000663393
0.000638238
0.000613092
0.000587953
0.00056282
0.000537692
0.000512568
0.000487445
0.000462324
0.000437202
0.00041208
0.000386955
0.000361827
0.000336694
0.000311557
0.000286414
0.000261264
0.000236107
0.000210942
0.000185767
0.000160577
0.000135363
0.000110094
8.46871e-05
5.89085e-05
3.21074e-05
2.36054e-06
0.00389267
0.00379186
0.00367239
0.00354004
0.00340087
0.00326033
0.00312248
0.00299037
0.00286635
0.00275202
0.00264827
0.00255529
0.00247275
0.00239991
0.00233577
0.00227916
0.00222891
0.00218387
0.00214302
0.00210547
0.00207048
0.00203744
0.0020059
0.00197547
0.00194589
0.00191695
0.00188851
0.00186045
0.00183269
0.00180517
0.00177785
0.0017507
0.00172369
0.00169679
0.00167001
0.00164331
0.0016167
0.00159017
0.00156371
0.00153731
0.00151097
0.00148469
0.00145846
0.00143228
0.00140616
0.00138008
0.00135404
0.00132806
0.00130211
0.00127621
0.00125035
0.00122454
0.00119876
0.00117302
0.00114733
0.00112167
0.00109604
0.00107045
0.0010449
0.00101937
0.00099388
0.000968419
0.000942987
0.000917582
0.000892203
0.000866849
0.000841519
0.000816211
0.000790923
0.000765654
0.000740403
0.000715168
0.000689948
0.00066474
0.000639545
0.000614359
0.000589182
0.000564013
0.00053885
0.000513692
0.000488537
0.000463384
0.000438232
0.00041308
0.000387926
0.000362771
0.000337611
0.000312448
0.00028728
0.000262105
0.000236925
0.000211737
0.000186539
0.000161329
0.000136093
0.000110804
8.53878e-05
5.96585e-05
3.32063e-05
5.20369e-06
0.00381906
0.00372753
0.00362106
0.00350308
0.00337787
0.00325009
0.00312354
0.00300109
0.00288494
0.00277664
0.00267716
0.00258685
0.0025056
0.00243294
0.0023681
0.00231019
0.00225823
0.00221127
0.00216843
0.0021289
0.00209202
0.00205723
0.00202407
0.00199218
0.00196128
0.00193116
0.00190165
0.00187263
0.00184401
0.00181572
0.00178769
0.0017599
0.0017323
0.00170487
0.00167759
0.00165044
0.00162342
0.0015965
0.00156968
0.00154295
0.00151631
0.00148974
0.00146325
0.00143683
0.00141048
0.00138419
0.00135796
0.00133178
0.00130567
0.00127961
0.0012536
0.00122764
0.00120174
0.00117588
0.00115006
0.00112429
0.00109856
0.00107288
0.00104723
0.00102162
0.000996048
0.000970509
0.000945004
0.00091953
0.000894085
0.000868669
0.000843279
0.000817914
0.000792573
0.000767253
0.000741952
0.00071667
0.000691405
0.000666155
0.000640917
0.000615692
0.000590477
0.000565271
0.000540073
0.00051488
0.000489692
0.000464507
0.000439324
0.000414142
0.00038896
0.000363776
0.000338589
0.000313399
0.000288205
0.000263005
0.0002378
0.000212589
0.00018737
0.000162139
0.000136886
0.000111588
8.6189e-05
6.05744e-05
3.45769e-05
8.21489e-06
0.00375301
0.00366915
0.00357334
0.00346748
0.00335449
0.00323819
0.00312201
0.00300859
0.00289995
0.00279758
0.00270245
0.00261507
0.00253549
0.00246342
0.00239834
0.00233955
0.00228629
0.00223776
0.00219321
0.00215195
0.00211337
0.00207696
0.00204229
0.00200901
0.00197684
0.00194556
0.001915
0.00188504
0.00185555
0.00182648
0.00179774
0.00176929
0.0017411
0.00171312
0.00168534
0.00165773
0.00163028
0.00160297
0.00157579
0.00154872
0.00152177
0.00149491
0.00146815
0.00144148
0.00141489
0.00138839
0.00136195
0.00133559
0.0013093
0.00128308
0.00125692
0.00123082
0.00120477
0.00117879
0.00115285
0.00112697
0.00110114
0.00107536
0.00104962
0.00102392
0.000998263
0.000972647
0.000947067
0.000921523
0.000896012
0.000870533
0.000845083
0.000819661
0.000794265
0.000768893
0.000743543
0.000718214
0.000692903
0.000667609
0.00064233
0.000617065
0.000591812
0.000566569
0.000541335
0.000516108
0.000490887
0.00046567
0.000440456
0.000415243
0.000390032
0.000364819
0.000339605
0.000314388
0.000289167
0.000263943
0.000238713
0.000213478
0.000188237
0.000162987
0.000137721
0.000112423
8.70623e-05
6.15955e-05
3.60538e-05
1.09819e-05
0.00369349
0.00361609
0.00352914
0.00343352
0.00333116
0.00322512
0.00311838
0.00301332
0.00291178
0.00281515
0.00272442
0.00264014
0.00256249
0.00249138
0.00242644
0.00236718
0.00231299
0.00226322
0.00221726
0.0021745
0.00213441
0.00209653
0.00206046
0.00202586
0.00199248
0.00196009
0.00192851
0.0018976
0.00186727
0.00183741
0.00180796
0.00177885
0.00175006
0.00172153
0.00169324
0.00166516
0.00163728
0.00160956
0.00158201
0.0015546
0.00152732
0.00150017
0.00147314
0.00144621
0.00141939
0.00139266
0.00136602
0.00133947
0.001313
0.0012866
0.00126028
0.00123404
0.00120786
0.00118174
0.00115569
0.00112969
0.00110375
0.00107787
0.00105204
0.00102625
0.00100051
0.000974814
0.000949159
0.000923544
0.000897966
0.000872423
0.000846912
0.000821433
0.000795982
0.000770557
0.000745158
0.000719781
0.000694424
0.000669087
0.000643766
0.000618461
0.000593169
0.000567889
0.000542619
0.000517357
0.000492103
0.000466854
0.000441609
0.000416366
0.000391125
0.000365884
0.000340641
0.000315397
0.00029015
0.0002649
0.000239646
0.000214388
0.000189126
0.000163858
0.000138581
0.000113289
8.79763e-05
6.26589e-05
3.74991e-05
1.32722e-05
0.00363965
0.00356779
0.00348828
0.00340136
0.00330821
0.00321127
0.00311307
0.0030157
0.00292081
0.0028297
0.00274331
0.00266223
0.00258675
0.00251688
0.00245242
0.00239303
0.00233824
0.00228755
0.00224044
0.00219642
0.00215502
0.00211582
0.00207847
0.00204266
0.00200813
0.00197467
0.0019421
0.00191028
0.00187911
0.00184847
0.00181831
0.00178855
0.00175915
0.00173007
0.00170126
0.00167271
0.00164438
0.00161626
0.00158833
0.00156057
0.00153297
0.00150551
0.0014782
0.00145101
0.00142394
0.00139699
0.00137014
0.00134339
0.00131674
0.00129017
0.00126369
0.0012373
0.00121098
0.00118473
0.00115855
0.00113244
0.0011064
0.00108041
0.00105448
0.0010286
0.00100278
0.000977
0.00095127
0.000925582
0.000899936
0.000874328
0.000848757
0.000823219
0.000797712
0.000772235
0.000746785
0.00072136
0.000695957
0.000670576
0.000645213
0.000619868
0.000594537
0.000569219
0.000543914
0.000518618
0.00049333
0.000468048
0.000442772
0.000417499
0.000392228
0.000366958
0.000341688
0.000316417
0.000291143
0.000265867
0.000240589
0.000215307
0.000190024
0.000164739
0.000139453
0.000114169
8.89027e-05
6.37123e-05
3.88235e-05
1.50262e-05
0.00359083
0.00352377
0.00345057
0.00337106
0.0032859
0.003197
0.00310646
0.00301612
0.00292743
0.00284156
0.0027594
0.00268156
0.00260839
0.00253999
0.0024763
0.00241707
0.00236199
0.00231066
0.00226267
0.00221761
0.00217509
0.00213473
0.00209623
0.0020593
0.0020237
0.00198923
0.00195571
0.00192302
0.00189102
0.00185962
0.00182875
0.00179835
0.00176834
0.0017387
0.00170938
0.00168034
0.00165157
0.00162304
0.00159473
0.00156661
0.00153868
0.00151092
0.00148332
0.00145586
0.00142855
0.00140136
0.0013743
0.00134735
0.00132051
0.00129377
0.00126713
0.00124058
0.00121412
0.00118774
0.00116144
0.00113521
0.00110905
0.00108296
0.00105693
0.00103097
0.00100505
0.000979197
0.00095339
0.00092763
0.000901915
0.000876241
0.000850608
0.000825011
0.000799449
0.000773918
0.000748417
0.000722944
0.000697495
0.00067207
0.000646665
0.000621278
0.000595909
0.000570554
0.000545212
0.000519881
0.00049456
0.000469246
0.000443938
0.000418635
0.000393334
0.000368036
0.000342737
0.000317438
0.000292138
0.000266837
0.000241533
0.000216228
0.000190923
0.00016562
0.000140325
0.000115047
8.98183e-05
6.47187e-05
3.99851e-05
1.62999e-05
0.00354646
0.00348359
0.0034158
0.00334264
0.00326441
0.00318257
0.0030989
0.00301493
0.00293196
0.00285102
0.00277295
0.00269833
0.00262756
0.00256082
0.00249811
0.0024393
0.00238419
0.00233248
0.00228385
0.00223797
0.00219451
0.00215316
0.00211364
0.0020757
0.00203912
0.0020037
0.00196928
0.00193574
0.00190294
0.00187081
0.00183925
0.0018082
0.0017776
0.0017474
0.00171756
0.00168804
0.00165883
0.00162988
0.00160118
0.0015727
0.00154444
0.00151637
0.00148848
0.00146076
0.00143319
0.00140577
0.00137849
0.00135134
0.00132431
0.00129739
0.00127059
0.00124388
0.00121728
0.00119076
0.00116433
0.00113799
0.00111172
0.00108552
0.0010594
0.00103334
0.00100734
0.000981398
0.000955512
0.000929679
0.000903894
0.000878155
0.000852459
0.000826803
0.000801185
0.000775601
0.000750049
0.000724527
0.000699032
0.000673562
0.000648114
0.000622687
0.000597279
0.000571886
0.000546508
0.000521143
0.000495788
0.000470441
0.000445102
0.000419768
0.000394438
0.00036911
0.000343784
0.000318457
0.00029313
0.000267802
0.000242473
0.000217144
0.000191816
0.000166495
0.000141188
0.000115912
9.07052e-05
6.56555e-05
4.09764e-05
1.71987e-05
0.00350609
0.0034469
0.00338377
0.00331609
0.00324387
0.00316824
0.00309066
0.00301247
0.00293474
0.00285841
0.00278423
0.00271277
0.00264444
0.00257946
0.00251791
0.00245974
0.00240483
0.00235297
0.00230392
0.00225742
0.0022132
0.00217101
0.0021306
0.00209176
0.00205427
0.00201798
0.00198272
0.00194837
0.00191482
0.00188197
0.00184974
0.00181805
0.00178686
0.00175611
0.00172576
0.00169577
0.00166611
0.00163675
0.00160766
0.00157882
0.00155022
0.00152184
0.00149366
0.00146567
0.00143785
0.00141019
0.00138269
0.00135534
0.00132812
0.00130102
0.00127405
0.00124719
0.00122044
0.00119379
0.00116723
0.00114076
0.00111438
0.00108808
0.00106186
0.0010357
0.00100962
0.000983594
0.00095763
0.000931723
0.000905869
0.000880064
0.000854305
0.00082859
0.000802915
0.000777277
0.000751674
0.000726103
0.000700562
0.000675047
0.000649557
0.00062409
0.000598642
0.000573212
0.000547798
0.000522397
0.000497009
0.00047163
0.000446259
0.000420894
0.000395534
0.000370178
0.000344823
0.000319469
0.000294114
0.000268759
0.000243404
0.00021805
0.0001927
0.000167359
0.000142036
0.000116754
9.15516e-05
6.65124e-05
4.18109e-05
1.78305e-05
0.00346933
0.00341339
0.00335432
0.00329137
0.00322436
0.00315417
0.00308201
0.003009
0.00293605
0.00286399
0.00279349
0.0027251
0.0026592
0.00259606
0.00253579
0.00247843
0.00242391
0.00237209
0.00232282
0.00227588
0.00223108
0.0021882
0.00214703
0.00210739
0.00206911
0.00203201
0.00199597
0.00196087
0.0019266
0.00189306
0.00186017
0.00182788
0.00179611
0.00176482
0.00173396
0.0017035
0.00167339
0.00164362
0.00161414
0.00158495
0.00155602
0.00152732
0.00149885
0.00147058
0.00144251
0.00141462
0.0013869
0.00135933
0.00133192
0.00130465
0.00127751
0.00125049
0.00122359
0.0011968
0.00117012
0.00114353
0.00111704
0.00109063
0.0010643
0.00103806
0.00101188
0.000985776
0.000959734
0.000933753
0.000907829
0.000881958
0.000856136
0.000830362
0.00080463
0.000778939
0.000753285
0.000727665
0.000702077
0.000676519
0.000650986
0.000625478
0.000599991
0.000574524
0.000549074
0.000523639
0.000498217
0.000472806
0.000447403
0.000422008
0.000396619
0.000371233
0.000345849
0.000320467
0.000295085
0.000269704
0.000244322
0.000218942
0.000193567
0.000168203
0.000142861
0.000117563
9.23479e-05
6.72856e-05
4.25086e-05
1.82802e-05
0.00343586
0.00338281
0.00332726
0.00326841
0.00320594
0.00314052
0.00307316
0.00300478
0.00293617
0.00286803
0.00280098
0.00273551
0.00267199
0.00261071
0.00255182
0.00249538
0.0024414
0.0023898
0.00234048
0.00229328
0.00224804
0.00220461
0.00216281
0.00212249
0.00208349
0.00204568
0.00200893
0.00197312
0.00193817
0.00190398
0.00187048
0.00183759
0.00180527
0.00177345
0.0017421
0.00171117
0.00168063
0.00165045
0.00162059
0.00159104
0.00156177
0.00153277
0.001504
0.00147547
0.00144714
0.00141901
0.00139107
0.0013633
0.0013357
0.00130825
0.00128094
0.00125377
0.00122672
0.00119979
0.00117298
0.00114627
0.00111967
0.00109315
0.00106673
0.00104039
0.00101413
0.000987938
0.000961818
0.000935763
0.000909769
0.000883832
0.000857949
0.000832115
0.000806327
0.000780583
0.000754878
0.00072921
0.000703576
0.000677973
0.000652399
0.000626851
0.000601325
0.000575821
0.000550335
0.000524866
0.00049941
0.000473967
0.000448533
0.000423108
0.000397689
0.000372274
0.000346862
0.000321452
0.000296042
0.000270633
0.000245224
0.000219818
0.000194416
0.000169026
0.00014366
0.000118337
9.30917e-05
6.79799e-05
4.30951e-05
1.8609e-05
0.00340542
0.00335493
0.00330247
0.00324718
0.00318866
0.00312742
0.00306429
0.00300004
0.00293535
0.00287082
0.00280697
0.00274426
0.00268306
0.00262363
0.00256616
0.00251075
0.00245743
0.00240618
0.00235694
0.00230962
0.00226409
0.00222024
0.00217793
0.00213703
0.00209741
0.00205895
0.00202155
0.0019851
0.00194951
0.00191471
0.00188061
0.00184716
0.0018143
0.00178198
0.00175014
0.00171876
0.00168779
0.00165721
0.00162698
0.00159707
0.00156748
0.00153816
0.00150911
0.0014803
0.00145173
0.00142336
0.0013952
0.00136723
0.00133943
0.0013118
0.00128433
0.001257
0.00122981
0.00120274
0.0011758
0.00114898
0.00112226
0.00109564
0.00106912
0.00104268
0.00101633
0.000990061
0.000963863
0.000937735
0.000911672
0.00088567
0.000859725
0.000833832
0.000807989
0.000782192
0.000756437
0.000730722
0.000705042
0.000679396
0.00065378
0.000628192
0.000602629
0.000577088
0.000551567
0.000526063
0.000500575
0.0004751
0.000449636
0.000424181
0.000398732
0.000373288
0.000347848
0.00032241
0.000296973
0.000271536
0.0002461
0.000220665
0.000195236
0.000169817
0.00014442
0.000119063
9.37747e-05
6.85945e-05
4.35859e-05
1.88464e-05
0.0033726
0.00332481
0.00327554
0.00322394
0.00316949
0.00311257
0.00305384
0.00299394
0.00293341
0.00287274
0.00281239
0.00275275
0.00269417
0.0026369
0.00258113
0.002527
0.00247457
0.00242388
0.0023749
0.00232759
0.00228188
0.00223768
0.00219489
0.00215343
0.00211318
0.00207406
0.00203598
0.00199884
0.00196256
0.00192709
0.00189234
0.00185826
0.00182479
0.00179189
0.0017595
0.0017276
0.00169614
0.0016651
0.00163443
0.00160412
0.00157414
0.00154447
0.00151508
0.00148596
0.00145709
0.00142845
0.00140004
0.00137182
0.0013438
0.00131596
0.00128829
0.00126078
0.00123342
0.0012062
0.00117911
0.00115214
0.00112529
0.00109855
0.00107191
0.00104536
0.00101891
0.000992545
0.000966257
0.000940043
0.0009139
0.000887821
0.000861803
0.000835842
0.000809934
0.000784075
0.000758262
0.000732491
0.000706758
0.000681061
0.000655397
0.000629762
0.000604154
0.00057857
0.000553008
0.000527465
0.000501939
0.000476426
0.000450926
0.000425435
0.000399952
0.000374475
0.000349002
0.00032353
0.00029806
0.00027259
0.000247119
0.00022165
0.000196184
0.000170727
0.000145288
0.000119881
9.45263e-05
6.92493e-05
4.40878e-05
1.90551e-05
0.00333876
0.00329367
0.00324755
0.00319952
0.00314903
0.00309633
0.00304195
0.00298638
0.00293004
0.00287332
0.00281661
0.00276023
0.00270449
0.00264962
0.00259583
0.00254325
0.00249199
0.0024421
0.00239361
0.00234651
0.00230078
0.00225637
0.00221323
0.00217128
0.00213047
0.00209072
0.00205195
0.00201411
0.00197713
0.00194095
0.0019055
0.00187074
0.00183661
0.00180308
0.00177009
0.00173761
0.0017056
0.00167403
0.00164288
0.00161211
0.00158169
0.00155161
0.00152184
0.00149236
0.00146315
0.0014342
0.00140549
0.001377
0.00134873
0.00132065
0.00129275
0.00126503
0.00123747
0.00121006
0.0011828
0.00115567
0.00112867
0.00110179
0.00107502
0.00104835
0.00102178
0.000995306
0.000968915
0.000942604
0.000916368
0.000890203
0.000864104
0.000838065
0.000812084
0.000786155
0.000760275
0.000734441
0.000708649
0.000682894
0.000657175
0.000631489
0.000605831
0.000580199
0.000554591
0.000529003
0.000503434
0.00047788
0.000452339
0.000426809
0.000401287
0.000375772
0.00035026
0.000324751
0.000299242
0.000273733
0.000248222
0.000222711
0.000197199
0.000171691
0.000146194
0.000120715
9.52671e-05
6.98624e-05
4.45212e-05
1.922e-05
0.00330812
0.00326544
0.00322208
0.00317718
0.00313014
0.00308112
0.00303054
0.00297878
0.00292618
0.00287303
0.00281964
0.0027663
0.00271325
0.00266072
0.0026089
0.00255792
0.00250791
0.00245895
0.00241108
0.00236435
0.00231876
0.00227429
0.00223093
0.00218864
0.00214738
0.0021071
0.00206776
0.0020293
0.00199168
0.00195484
0.00191874
0.00188333
0.00184858
0.00181443
0.00178085
0.0017478
0.00171525
0.00168317
0.00165153
0.00162029
0.00158944
0.00155895
0.00152879
0.00149895
0.00146941
0.00144014
0.00141113
0.00138236
0.00135382
0.0013255
0.00129737
0.00126944
0.00124168
0.00121409
0.00118665
0.00115936
0.0011322
0.00110517
0.00107827
0.00105147
0.00102478
0.000998192
0.000971695
0.000945284
0.000918954
0.000892699
0.000866515
0.000840396
0.000814339
0.000788338
0.00076239
0.000736491
0.000710636
0.000684823
0.000659048
0.000633306
0.000607597
0.000581915
0.000556259
0.000530625
0.000505011
0.000479413
0.00045383
0.000428258
0.000402696
0.00037714
0.000351588
0.000326039
0.000300489
0.000274937
0.000249382
0.000223821
0.000198257
0.000172688
0.000147118
0.000121551
9.59926e-05
7.04463e-05
4.49256e-05
1.93902e-05
0.00328117
0.00324054
0.00319951
0.00315722
0.00311305
0.0030671
0.0030197
0.00297116
0.00292174
0.00287166
0.00282117
0.00277051
0.00271989
0.0026695
0.00261951
0.00257008
0.00252132
0.00247333
0.00242618
0.00237992
0.00233459
0.0022902
0.00224677
0.00220427
0.00216269
0.00212202
0.00208221
0.00204324
0.00200508
0.00196768
0.001931
0.00189502
0.0018597
0.00182499
0.00179087
0.0017573
0.00172425
0.00169169
0.00165959
0.00162792
0.00159666
0.00156578
0.00153526
0.00150507
0.0014752
0.00144563
0.00141634
0.0013873
0.00135852
0.00132996
0.00130162
0.00127348
0.00124553
0.00121776
0.00119015
0.0011627
0.0011354
0.00110824
0.0010812
0.00105429
0.00102749
0.00100079
0.000974195
0.00094769
0.000921271
0.000894934
0.000868671
0.000842478
0.000816351
0.000790283
0.000764272
0.000738313
0.000712401
0.000686533
0.000660706
0.000634915
0.000609158
0.000583431
0.000557731
0.000532055
0.0005064
0.000480763
0.000455141
0.000429531
0.000403931
0.000378338
0.000352749
0.000327162
0.000301573
0.000275979
0.000250379
0.00022477
0.000199149
0.000173514
0.000147864
0.000122198
9.65176e-05
7.08233e-05
4.51348e-05
1.94292e-05
0.00325911
0.00322018
0.00318105
0.00314086
0.003099
0.00305551
0.00301068
0.00296474
0.00291791
0.00287035
0.00282227
0.00277386
0.0027253
0.00267677
0.00262841
0.00258038
0.00253278
0.00248572
0.00243928
0.00239354
0.00234854
0.00230433
0.00226092
0.00221832
0.00217655
0.00213559
0.00209544
0.00205607
0.00201746
0.0019796
0.00194244
0.00190597
0.00187016
0.00183496
0.00180036
0.00176633
0.00173283
0.00169983
0.00166732
0.00163525
0.00160361
0.00157238
0.00154152
0.00151101
0.00148084
0.00145099
0.00142143
0.00139215
0.00136313
0.00133435
0.0013058
0.00127747
0.00124934
0.0012214
0.00119364
0.00116604
0.0011386
0.0011113
0.00108415
0.00105712
0.00103021
0.00100341
0.000976714
0.000950118
0.000923614
0.000897196
0.000870856
0.000844591
0.000818395
0.000792262
0.000766189
0.00074017
0.000714203
0.000688281
0.000662403
0.000636563
0.000610759
0.000584986
0.000559242
0.000533524
0.000507828
0.000482151
0.000456491
0.000430843
0.000405206
0.000379575
0.000353948
0.000328322
0.000302692
0.000277056
0.000251409
0.000225747
0.000200065
0.000174357
0.000148618
0.000122841
9.70218e-05
7.116e-05
4.52844e-05
1.9398e-05
0.00324242
0.00320473
0.00316696
0.00312828
0.00308806
0.00304634
0.00300335
0.00295929
0.00291432
0.00286861
0.0028223
0.00277556
0.00272854
0.00268142
0.00263431
0.00258736
0.00254068
0.00249438
0.00244855
0.00240326
0.00235858
0.00231455
0.00227122
0.00222861
0.00218673
0.0021456
0.00210522
0.00206558
0.00202667
0.00198847
0.00195096
0.00191413
0.00187795
0.0018424
0.00180744
0.00177305
0.00173921
0.00170588
0.00167305
0.00164068
0.00160875
0.00157724
0.00154612
0.00151537
0.00148497
0.0014549
0.00142514
0.00139567
0.00136646
0.00133752
0.00130882
0.00128034
0.00125207
0.001224
0.00119612
0.00116841
0.00114086
0.00111347
0.00108622
0.0010591
0.00103211
0.00100523
0.000978469
0.000951806
0.000925239
0.000898761
0.000872365
0.000846047
0.0008198
0.00079362
0.000767502
0.000741441
0.000715432
0.000689472
0.000663557
0.000637682
0.000611844
0.000586039
0.000560264
0.000534516
0.000508791
0.000483085
0.000457397
0.000431722