/*--------------------------------*- C++ -*----------------------------------*\
| =========                 |                                                 |
| \\      /  F ield         | OpenFOAM: The Open Source CFD Toolbox           |
|  \\    /   O peration     | Version:  2.3.0                                 |
|   \\  /    A nd           | Web:      www.OpenFOAM.org                      |
|    \\/     M anipulation  |                                                 |
\*---------------------------------------------------------------------------*/
FoamFile
{
    version     2.0;
    format      ascii;
    class       surfaceScalarField;
    location    "1";
    object      phi;
}
// * * * * * * * * * * * * * * * * * * * * * * * * * * * * * * * * * * * * * //

dimensions      [0 3 -1 0 0 0 0];

internalField   nonuniform List<scalar> 
6598
(
2.85976e-08
2.85914e-09
-3.14568e-08
2.57449e-08
2.85278e-09
2.30662e-08
2.67864e-09
2.05963e-08
2.46991e-09
1.83513e-08
2.24505e-09
1.63419e-08
2.00935e-09
1.45709e-08
1.77103e-09
1.3033e-08
1.5379e-09
1.17165e-08
1.31649e-09
1.06044e-08
1.11209e-09
9.67579e-09
9.28617e-10
8.90743e-09
7.68359e-10
8.27545e-09
6.31981e-10
7.75674e-09
5.18709e-10
7.33008e-09
4.2666e-10
6.97683e-09
3.53242e-10
6.68129e-09
2.95542e-10
6.43064e-09
2.50649e-10
6.21476e-09
2.15879e-10
6.02586e-09
1.88908e-10
5.85803e-09
1.67824e-10
5.70692e-09
1.51113e-10
5.5693e-09
1.37622e-10
5.4428e-09
1.26497e-10
5.32568e-09
1.1712e-10
5.21663e-09
1.09054e-10
5.11463e-09
1.01993e-10
5.01891e-09
9.57241e-11
4.92881e-09
9.00988e-11
4.8438e-09
8.50116e-11
4.76341e-09
8.03855e-11
4.68725e-09
7.6162e-11
4.61496e-09
7.2295e-11
4.54621e-09
6.87463e-11
4.48073e-09
6.54834e-11
4.41825e-09
6.24779e-11
4.35854e-09
5.97047e-11
4.3014e-09
5.71411e-11
4.24664e-09
5.47671e-11
4.19407e-09
5.25644e-11
4.14356e-09
5.05168e-11
4.09495e-09
4.86097e-11
4.04812e-09
4.683e-11
4.00295e-09
4.5166e-11
3.95934e-09
4.36074e-11
3.9172e-09
4.21449e-11
3.87643e-09
4.077e-11
3.83695e-09
3.94755e-11
3.7987e-09
3.82544e-11
3.7616e-09
3.7101e-11
3.72559e-09
3.60099e-11
3.69061e-09
3.49761e-11
3.65662e-09
3.39954e-11
3.62355e-09
3.30637e-11
3.59137e-09
3.21776e-11
3.56004e-09
3.13338e-11
3.52951e-09
3.05294e-11
3.49975e-09
2.97615e-11
3.47072e-09
2.9028e-11
3.44239e-09
2.83264e-11
3.41474e-09
2.76547e-11
3.38773e-09
2.70112e-11
3.36133e-09
2.6394e-11
3.33553e-09
2.58016e-11
3.3103e-09
2.52324e-11
3.28562e-09
2.46853e-11
3.26146e-09
2.4159e-11
3.2378e-09
2.36522e-11
3.21464e-09
2.3164e-11
3.19195e-09
2.26933e-11
3.16971e-09
2.22393e-11
3.14791e-09
2.18011e-11
3.12653e-09
2.13779e-11
3.10556e-09
2.09691e-11
3.08499e-09
2.05738e-11
3.06479e-09
2.01915e-11
3.04497e-09
1.98217e-11
3.02551e-09
1.94636e-11
3.00639e-09
1.91169e-11
2.98761e-09
1.87811e-11
2.96916e-09
1.84557e-11
2.95102e-09
1.81402e-11
2.93318e-09
1.78345e-11
2.91564e-09
1.7538e-11
2.89839e-09
1.72504e-11
2.88142e-09
1.69714e-11
2.86472e-09
1.67007e-11
2.84828e-09
1.64381e-11
2.8321e-09
1.61831e-11
2.81616e-09
1.59356e-11
2.80047e-09
1.56953e-11
2.78501e-09
1.5462e-11
2.76977e-09
1.52358e-11
2.75475e-09
1.5018e-11
2.73994e-09
1.48122e-11
2.72531e-09
1.46313e-11
2.71079e-09
1.452e-11
2.69622e-09
1.45681e-11
2.68125e-09
1.4975e-11
4.30976e-11
3.43093e-08
3.10323e-09
-3.45534e-08
3.37496e-08
3.41246e-09
3.29555e-08
3.47269e-09
3.20045e-08
3.4209e-09
3.0952e-08
3.29756e-09
2.98436e-08
3.11778e-09
2.87163e-08
2.89835e-09
2.75985e-08
2.65566e-09
2.65114e-08
2.40365e-09
2.54697e-08
2.15378e-09
2.44831e-08
1.91516e-09
2.35572e-08
1.69433e-09
2.26939e-08
1.49528e-09
2.18929e-08
1.31971e-09
2.11521e-08
1.16744e-09
2.04683e-08
1.03702e-09
1.98376e-08
9.26184e-10
1.9256e-08
8.32327e-10
1.8719e-08
7.52822e-10
1.82227e-08
6.85229e-10
1.77631e-08
6.2741e-10
1.73367e-08
5.77563e-10
1.69401e-08
5.34218e-10
1.65704e-08
4.96198e-10
1.62249e-08
4.62575e-10
1.59014e-08
4.3262e-10
1.55976e-08
4.05763e-10
1.53118e-08
3.81555e-10
1.50422e-08
3.59634e-10
1.47875e-08
3.39712e-10
1.45464e-08
3.21547e-10
1.43176e-08
3.04939e-10
1.41002e-08
2.89718e-10
1.38932e-08
2.75736e-10
1.36958e-08
2.62865e-10
1.35073e-08
2.50993e-10
1.3327e-08
2.4002e-10
1.31542e-08
2.29859e-10
1.29886e-08
2.20431e-10
1.28295e-08
2.11667e-10
1.26765e-08
2.03505e-10
1.25292e-08
1.9589e-10
1.23873e-08
1.88772e-10
1.22503e-08
1.82107e-10
1.21181e-08
1.75856e-10
1.19902e-08
1.69983e-10
1.18665e-08
1.64457e-10
1.17468e-08
1.59249e-10
1.16307e-08
1.54334e-10
1.15181e-08
1.49688e-10
1.14088e-08
1.45291e-10
1.13027e-08
1.41124e-10
1.11995e-08
1.3717e-10
1.10992e-08
1.33412e-10
1.10015e-08
1.29839e-10
1.09064e-08
1.26435e-10
1.08137e-08
1.2319e-10
1.07234e-08
1.20094e-10
1.06353e-08
1.17135e-10
1.05493e-08
1.14306e-10
1.04654e-08
1.11598e-10
1.03834e-08
1.09003e-10
1.03033e-08
1.06515e-10
1.02249e-08
1.04127e-10
1.01483e-08
1.01834e-10
1.00734e-08
9.96292e-11
1e-08
9.75085e-11
9.92822e-09
9.54671e-11
9.85788e-09
9.35007e-11
9.78897e-09
9.16053e-11
9.72144e-09
8.97771e-11
9.65522e-09
8.80127e-11
9.59029e-09
8.63089e-11
9.5266e-09
8.46628e-11
9.4641e-09
8.30715e-11
9.40276e-09
8.15325e-11
9.34254e-09
8.00435e-11
9.2834e-09
7.8602e-11
9.22531e-09
7.72061e-11
9.16824e-09
7.58538e-11
9.11215e-09
7.45433e-11
9.05702e-09
7.32728e-11
9.00281e-09
7.20409e-11
8.9495e-09
7.08461e-11
8.89707e-09
6.96868e-11
8.84548e-09
6.8562e-11
8.79471e-09
6.74701e-11
8.74474e-09
6.64102e-11
8.69554e-09
6.5381e-11
8.64709e-09
6.43815e-11
8.59938e-09
6.34106e-11
8.55237e-09
6.24676e-11
8.50605e-09
6.15528e-11
8.4604e-09
6.06696e-11
8.41538e-09
5.98303e-11
8.37094e-09
5.90765e-11
8.32692e-09
5.85398e-11
8.28287e-09
5.86214e-11
8.23401e-09
6.38275e-11
1.08813e-10
3.64039e-08
2.92208e-09
-3.62227e-08
3.65013e-08
3.31499e-09
3.64739e-08
3.50012e-09
3.63268e-08
3.56801e-09
3.60701e-08
3.55425e-09
3.57174e-08
3.4705e-09
3.52856e-08
3.33017e-09
3.47922e-08
3.14905e-09
3.42537e-08
2.94208e-09
3.36851e-08
2.72242e-09
3.3099e-08
2.50124e-09
3.2506e-08
2.28735e-09
3.19143e-08
2.08697e-09
3.13302e-08
1.90386e-09
3.0758e-08
1.73962e-09
3.02007e-08
1.59426e-09
2.96603e-08
1.46663e-09
2.91376e-08
1.35499e-09
2.86331e-08
1.25731e-09
2.81468e-08
1.17155e-09
2.76784e-08
1.09584e-09
2.72274e-08
1.02855e-09
2.67933e-08
9.68291e-10
2.63756e-08
9.13954e-10
2.59735e-08
8.64628e-10
2.55866e-08
8.19594e-10
2.5214e-08
7.7828e-10
2.48554e-08
7.40227e-10
2.45099e-08
7.05066e-10
2.41772e-08
6.72491e-10
2.38565e-08
6.42247e-10
2.35473e-08
6.14119e-10
2.32491e-08
5.87918e-10
2.29613e-08
5.63478e-10
2.26836e-08
5.40652e-10
2.24152e-08
5.19307e-10
2.21559e-08
4.99324e-10
2.19052e-08
4.80594e-10
2.16626e-08
4.63019e-10
2.14278e-08
4.46508e-10
2.12003e-08
4.30978e-10
2.09798e-08
4.16356e-10
2.0766e-08
4.02572e-10
2.05586e-08
3.89563e-10
2.03572e-08
3.77271e-10
2.01615e-08
3.65646e-10
1.99713e-08
3.54637e-10
1.97864e-08
3.44202e-10
1.96064e-08
3.34299e-10
1.94312e-08
3.24892e-10
1.92605e-08
3.15946e-10
1.90942e-08
3.07431e-10
1.89321e-08
2.99318e-10
1.87739e-08
2.9158e-10
1.86196e-08
2.84193e-10
1.84689e-08
2.77135e-10
1.83217e-08
2.70384e-10
1.81778e-08
2.63923e-10
1.80372e-08
2.57732e-10
1.78998e-08
2.51797e-10
1.77652e-08
2.46102e-10
1.76336e-08
2.40632e-10
1.75048e-08
2.35376e-10
1.73786e-08
2.30321e-10
1.72549e-08
2.25456e-10
1.71338e-08
2.20771e-10
1.7015e-08
2.16256e-10
1.68986e-08
2.11901e-10
1.67844e-08
2.077e-10
1.66724e-08
2.03644e-10
1.65624e-08
1.99726e-10
1.64545e-08
1.95939e-10
1.63485e-08
1.92277e-10
1.62445e-08
1.88734e-10
1.61422e-08
1.85305e-10
1.60418e-08
1.81983e-10
1.59431e-08
1.78766e-10
1.5846e-08
1.75648e-10
1.57506e-08
1.72624e-10
1.56568e-08
1.69692e-10
1.55645e-08
1.66846e-10
1.54736e-08
1.64085e-10
1.53843e-08
1.61404e-10
1.52963e-08
1.58802e-10
1.52097e-08
1.56273e-10
1.51245e-08
1.53817e-10
1.50405e-08
1.51431e-10
1.49578e-08
1.49112e-10
1.48763e-08
1.46858e-10
1.47961e-08
1.44666e-10
1.47169e-08
1.42535e-10
1.46389e-08
1.40463e-10
1.4562e-08
1.3845e-10
1.44862e-08
1.36504e-10
1.44114e-08
1.34646e-10
1.43375e-08
1.32956e-10
1.42644e-08
1.3169e-10
1.41911e-08
1.31886e-10
1.41138e-08
1.41109e-10
1.87039e-10
3.79782e-08
2.70465e-09
-3.77608e-08
3.8205e-08
3.08817e-09
3.83932e-08
3.31191e-09
3.853e-08
3.43122e-09
3.86088e-08
3.47553e-09
3.8625e-08
3.45426e-09
3.85787e-08
3.37645e-09
3.84735e-08
3.25425e-09
3.83152e-08
3.10035e-09
3.81111e-08
2.92657e-09
3.78688e-08
2.74349e-09
3.75963e-08
2.55995e-09
3.73005e-08
2.38274e-09
3.69878e-08
2.21651e-09
3.66636e-08
2.06389e-09
3.63319e-08
1.92594e-09
3.59961e-08
1.80246e-09
3.56585e-08
1.69253e-09
3.53211e-08
1.59475e-09
3.4985e-08
1.50761e-09
3.46513e-08
1.42958e-09
3.43205e-08
1.3593e-09
3.39932e-08
1.29557e-09
3.36698e-08
1.23738e-09
3.33505e-08
1.18392e-09
3.30356e-08
1.13452e-09
3.27252e-08
1.08865e-09
3.24196e-08
1.0459e-09
3.21187e-08
1.00591e-09
3.18228e-08
9.68413e-10
3.15319e-08
9.33178e-10
3.1246e-08
9.0001e-10
3.09651e-08
8.68739e-10
3.06894e-08
8.39221e-10
3.04187e-08
8.11324e-10
3.01531e-08
7.84933e-10
2.98925e-08
7.59941e-10
2.96368e-08
7.36252e-10
2.93861e-08
7.13778e-10
2.91401e-08
6.92438e-10
2.8899e-08
6.72157e-10
2.86625e-08
6.52866e-10
2.84305e-08
6.34501e-10
2.82031e-08
6.17004e-10
2.798e-08
6.0032e-10
2.77613e-08
5.84399e-10
2.75467e-08
5.69194e-10
2.73363e-08
5.54662e-10
2.71298e-08
5.40761e-10
2.69272e-08
5.27456e-10
2.67285e-08
5.14711e-10
2.65334e-08
5.02494e-10
2.6342e-08
4.90774e-10
2.6154e-08
4.79524e-10
2.59695e-08
4.68718e-10
2.57883e-08
4.58331e-10
2.56103e-08
4.4834e-10
2.54355e-08
4.38724e-10
2.52638e-08
4.29464e-10
2.50951e-08
4.2054e-10
2.49292e-08
4.11936e-10
2.47662e-08
4.03634e-10
2.4606e-08
3.95621e-10
2.44484e-08
3.87881e-10
2.42935e-08
3.80402e-10
2.41411e-08
3.7317e-10
2.39912e-08
3.66174e-10
2.38437e-08
3.59403e-10
2.36985e-08
3.52847e-10
2.35557e-08
3.46496e-10
2.3415e-08
3.40341e-10
2.32766e-08
3.34372e-10
2.31403e-08
3.28583e-10
2.30061e-08
3.22966e-10
2.28739e-08
3.17513e-10
2.27436e-08
3.12218e-10
2.26153e-08
3.07074e-10
2.24889e-08
3.02075e-10
2.23643e-08
2.97217e-10
2.22415e-08
2.92493e-10
2.21204e-08
2.87898e-10
2.20011e-08
2.83429e-10
2.18834e-08
2.7908e-10
2.17674e-08
2.74849e-10
2.16529e-08
2.70729e-10
2.154e-08
2.66719e-10
2.14286e-08
2.62815e-10
2.13187e-08
2.59013e-10
2.12103e-08
2.55309e-10
2.11032e-08
2.51702e-10
2.09976e-08
2.48187e-10
2.08933e-08
2.44764e-10
2.07903e-08
2.41433e-10
2.06886e-08
2.38203e-10
2.05882e-08
2.35108e-10
2.04888e-08
2.32264e-10
2.03905e-08
2.30059e-10
2.02923e-08
2.30066e-10
2.01934e-08
2.39996e-10
2.76284e-10
3.95155e-08
2.51243e-09
-3.93233e-08
3.97428e-08
2.86084e-09
3.99666e-08
3.08818e-09
4.01731e-08
3.22468e-09
4.0355e-08
3.29364e-09
4.0505e-08
3.30428e-09
4.06178e-08
3.26361e-09
4.06911e-08
3.18101e-09
4.07246e-08
3.06681e-09
4.07202e-08
2.93099e-09
4.0681e-08
2.78269e-09
4.06111e-08
2.62985e-09
4.0515e-08
2.47887e-09
4.0397e-08
2.33443e-09
4.02614e-08
2.19953e-09
4.01116e-08
2.07574e-09
3.99506e-08
1.9635e-09
3.97806e-08
1.86244e-09
3.96037e-08
1.7717e-09
3.94211e-08
1.69019e-09
3.92339e-08
1.61674e-09
3.9043e-08
1.55022e-09
3.8849e-08
1.48961e-09
3.86523e-08
1.43404e-09
3.84535e-08
1.38278e-09
3.82528e-08
1.33521e-09
3.80506e-08
1.29086e-09
3.78471e-08
1.24933e-09
3.76427e-08
1.21029e-09
3.74376e-08
1.1735e-09
3.72321e-08
1.13873e-09
3.70263e-08
1.10581e-09
3.68205e-08
1.07458e-09
3.66148e-08
1.04492e-09
3.64094e-08
1.0167e-09
3.62045e-08
9.8982e-10
3.60002e-08
9.64195e-10
3.57968e-08
9.39737e-10
3.55942e-08
9.1637e-10
3.53926e-08
8.94024e-10
3.51921e-08
8.72636e-10
3.49928e-08
8.52145e-10
3.47948e-08
8.32497e-10
3.45982e-08
8.13644e-10
3.4403e-08
7.95537e-10
3.42092e-08
7.78134e-10
3.4017e-08
7.61396e-10
3.38264e-08
7.45285e-10
3.36374e-08
7.29767e-10
3.34501e-08
7.14811e-10
3.32644e-08
7.00386e-10
3.30804e-08
6.86465e-10
3.28982e-08
6.73022e-10
3.27176e-08
6.60033e-10
3.25389e-08
6.47475e-10
3.23619e-08
6.35328e-10
3.21867e-08
6.23571e-10
3.20132e-08
6.12187e-10
3.18415e-08
6.01158e-10
3.16716e-08
5.90467e-10
3.15034e-08
5.80099e-10
3.1337e-08
5.7004e-10
3.11724e-08
5.60277e-10
3.10094e-08
5.50796e-10
3.08483e-08
5.41586e-10
3.06888e-08
5.32636e-10
3.0531e-08
5.23934e-10
3.0375e-08
5.15471e-10
3.02206e-08
5.07237e-10
3.00678e-08
4.99224e-10
2.99168e-08
4.91422e-10
2.97673e-08
4.83824e-10
2.96195e-08
4.76423e-10
2.94732e-08
4.6921e-10
2.93286e-08
4.62181e-10
2.91854e-08
4.55327e-10
2.90439e-08
4.48643e-10
2.89038e-08
4.42123e-10
2.87653e-08
4.35762e-10
2.86282e-08
4.29555e-10
2.84926e-08
4.23498e-10
2.83585e-08
4.17585e-10
2.82257e-08
4.11812e-10
2.80944e-08
4.06175e-10
2.79645e-08
4.00672e-10
2.78359e-08
3.95297e-10
2.77087e-08
3.90048e-10
2.75828e-08
3.8492e-10
2.74581e-08
3.79912e-10
2.73348e-08
3.7502e-10
2.72128e-08
3.7024e-10
2.7092e-08
3.65572e-10
2.69724e-08
3.61016e-10
2.6854e-08
3.56584e-10
2.67368e-08
3.52321e-10
2.66207e-08
3.48364e-10
2.65056e-08
3.45177e-10
2.63912e-08
3.44427e-10
2.62793e-08
3.51934e-10
3.72667e-10
4.10926e-08
2.34684e-09
-4.0927e-08
4.12981e-08
2.65536e-09
4.15131e-08
2.87314e-09
4.17243e-08
3.01351e-09
4.19249e-08
3.09301e-09
4.21089e-08
3.12034e-09
4.22709e-08
3.10162e-09
4.24074e-08
3.04445e-09
4.25168e-08
2.95742e-09
4.25988e-08
2.84901e-09
4.26544e-08
2.7271e-09
4.26856e-08
2.59866e-09
4.2695e-08
2.46947e-09
4.26855e-08
2.34392e-09
4.26599e-08
2.22507e-09
4.2621e-08
2.1147e-09
4.25709e-08
2.0136e-09
4.25115e-08
1.92181e-09
4.24443e-08
1.83884e-09
4.23706e-08
1.76395e-09
4.22911e-08
1.69624e-09
4.22065e-08
1.6348e-09
4.21173e-08
1.57879e-09
4.20239e-08
1.52743e-09
4.19266e-08
1.48008e-09
4.18257e-08
1.43619e-09
4.17212e-08
1.39529e-09
4.16136e-08
1.35702e-09
4.15028e-08
1.32106e-09
4.13891e-08
1.28718e-09
4.12727e-08
1.25515e-09
4.11537e-08
1.22481e-09
4.10323e-08
1.19601e-09
4.09086e-08
1.16861e-09
4.07828e-08
1.14251e-09
4.0655e-08
1.11762e-09
4.05253e-08
1.09383e-09
4.0394e-08
1.07108e-09
4.02611e-08
1.04929e-09
4.01267e-08
1.02839e-09
3.9991e-08
1.00834e-09
3.98541e-08
9.89061e-10
3.9716e-08
9.70518e-10
3.9577e-08
9.52662e-10
3.94371e-08
9.35451e-10
3.92964e-08
9.18846e-10
3.9155e-08
9.02811e-10
3.9013e-08
8.87314e-10
3.88704e-08
8.72323e-10
3.87274e-08
8.57812e-10
3.8584e-08
8.43753e-10
3.84404e-08
8.30123e-10
3.82965e-08
8.169e-10
3.81525e-08
8.04062e-10
3.80084e-08
7.91591e-10
3.78642e-08
7.79468e-10
3.77201e-08
7.67678e-10
3.75761e-08
7.56204e-10
3.74322e-08
7.45032e-10
3.72885e-08
7.34149e-10
3.71451e-08
7.23541e-10
3.70019e-08
7.13198e-10
3.68591e-08
7.03108e-10
3.67166e-08
6.93262e-10
3.65746e-08
6.83648e-10
3.6433e-08
6.74259e-10
3.62918e-08
6.65086e-10
3.61511e-08
6.56121e-10
3.6011e-08
6.47356e-10
3.58715e-08
6.38785e-10
3.57325e-08
6.304e-10
3.55941e-08
6.22196e-10
3.54564e-08
6.14167e-10
3.53193e-08
6.06307e-10
3.51828e-08
5.98611e-10
3.50471e-08
5.91073e-10
3.49121e-08
5.83691e-10
3.47777e-08
5.76458e-10
3.46441e-08
5.69372e-10
3.45112e-08
5.62428e-10
3.43791e-08
5.55623e-10
3.42477e-08
5.48953e-10
3.41171e-08
5.42415e-10
3.39873e-08
5.36007e-10
3.38583e-08
5.29726e-10
3.373e-08
5.23568e-10
3.36025e-08
5.17532e-10
3.34758e-08
5.11615e-10
3.33499e-08
5.05815e-10
3.32248e-08
5.00129e-10
3.31005e-08
4.94555e-10
3.2977e-08
4.89091e-10
3.28542e-08
4.83741e-10
3.27323e-08
4.78517e-10
3.26112e-08
4.73465e-10
3.24908e-08
4.68726e-10
3.23712e-08
4.64731e-10
3.22529e-08
4.62788e-10
3.21389e-08
4.65942e-10
4.69649e-10
4.27219e-08
2.20141e-09
-4.25764e-08
4.29054e-08
2.4718e-09
4.31039e-08
2.67463e-09
4.33044e-08
2.81306e-09
4.35e-08
2.89736e-09
4.36856e-08
2.93481e-09
4.38564e-08
2.93082e-09
4.40092e-08
2.89164e-09
4.41421e-08
2.82447e-09
4.42545e-08
2.7366e-09
4.43468e-08
2.63488e-09
4.442e-08
2.52543e-09
4.4476e-08
2.41347e-09
4.45168e-08
2.30308e-09
4.45447e-08
2.19721e-09
4.45616e-08
2.09778e-09
4.45694e-08
2.00579e-09
4.45697e-08
1.92156e-09
4.45636e-08
1.84493e-09
4.45521e-08
1.7754e-09
4.4536e-08
1.71234e-09
4.45158e-08
1.65503e-09
4.44918e-08
1.60277e-09
4.44644e-08
1.5549e-09
4.44336e-08
1.51086e-09
4.43996e-08
1.47013e-09
4.43626e-08
1.43231e-09
4.43226e-08
1.39703e-09
4.42797e-08
1.364e-09
4.42339e-08
1.33298e-09
4.41853e-08
1.30375e-09
4.41339e-08
1.27616e-09
4.40799e-08
1.25003e-09
4.40232e-08
1.22526e-09
4.3964e-08
1.20172e-09
4.39023e-08
1.17932e-09
4.38382e-08
1.15796e-09
4.37717e-08
1.13758e-09
4.37029e-08
1.11809e-09
4.36319e-08
1.09943e-09
4.35587e-08
1.08154e-09
4.34834e-08
1.06437e-09
4.3406e-08
1.04786e-09
4.33267e-08
1.03198e-09
4.32455e-08
1.01667e-09
4.31624e-08
1.00191e-09
4.30776e-08
9.87646e-10
4.2991e-08
9.73858e-10
4.29029e-08
9.60514e-10
4.28131e-08
9.47584e-10
4.27218e-08
9.35044e-10
4.2629e-08
9.2287e-10
4.25349e-08
9.1104e-10
4.24394e-08
8.99535e-10
4.23427e-08
8.88336e-10
4.22447e-08
8.77426e-10
4.21456e-08
8.66789e-10
4.20454e-08
8.56412e-10
4.19442e-08
8.4628e-10
4.18419e-08
8.36381e-10
4.17388e-08
8.26703e-10
4.16347e-08
8.17237e-10
4.15299e-08
8.07972e-10
4.14242e-08
7.989e-10
4.13179e-08
7.90011e-10
4.12108e-08
7.81298e-10
4.11032e-08
7.72754e-10
4.09949e-08
7.64372e-10
4.08861e-08
7.56145e-10
4.07768e-08
7.48069e-10
4.06671e-08
7.40138e-10
4.05569e-08
7.32347e-10
4.04464e-08
7.24691e-10
4.03356e-08
7.17166e-10
4.02244e-08
7.09768e-10
4.0113e-08
7.02494e-10
4.00013e-08
6.95339e-10
3.98895e-08
6.88302e-10
3.97775e-08
6.81379e-10
3.96653e-08
6.74568e-10
3.95531e-08
6.67866e-10
3.94408e-08
6.61271e-10
3.93284e-08
6.54781e-10
3.9216e-08
6.48395e-10
3.91036e-08
6.42111e-10
3.89913e-08
6.35928e-10
3.8879e-08
6.29843e-10
3.87667e-08
6.23857e-10
3.86546e-08
6.17967e-10
3.85425e-08
6.12171e-10
3.84306e-08
6.06469e-10
3.83189e-08
6.0086e-10
3.82073e-08
5.95346e-10
3.80958e-08
5.89939e-10
3.79846e-08
5.84678e-10
3.78737e-08
5.79675e-10
3.77632e-08
5.75231e-10
3.76539e-08
5.72021e-10
3.75495e-08
5.70369e-10
5.59436e-10
4.44062e-08
2.07068e-09
-4.42754e-08
4.45711e-08
2.30685e-09
4.47531e-08
2.49259e-09
4.49404e-08
2.62579e-09
4.5126e-08
2.71178e-09
4.53048e-08
2.75597e-09
4.54727e-08
2.76292e-09
4.56266e-08
2.73779e-09
4.57645e-08
2.68652e-09
4.58858e-08
2.61535e-09
4.59905e-08
2.5302e-09
4.60794e-08
2.4365e-09
4.6154e-08
2.3389e-09
4.62159e-08
2.24119e-09
4.62669e-08
2.14619e-09
4.63088e-08
2.05588e-09
4.63432e-08
1.9714e-09
4.63714e-08
1.89331e-09
4.63947e-08
1.82168e-09
4.64138e-08
1.75627e-09
4.64295e-08
1.69665e-09
4.64422e-08
1.64228e-09
4.64524e-08
1.5926e-09
4.64602e-08
1.54709e-09
4.64658e-08
1.50524e-09
4.64693e-08
1.46662e-09
4.64708e-08
1.43083e-09
4.64703e-08
1.39755e-09
4.64678e-08
1.36651e-09
4.64633e-08
1.33747e-09
4.64568e-08
1.31022e-09
4.64484e-08
1.2846e-09
4.6438e-08
1.26046e-09
4.64256e-08
1.23766e-09
4.64112e-08
1.2161e-09
4.63948e-08
1.19567e-09
4.63765e-08
1.17629e-09
4.63562e-08
1.15787e-09
4.6334e-08
1.14033e-09
4.63098e-08
1.12362e-09
4.62836e-08
1.10767e-09
4.62556e-08
1.09243e-09
4.62256e-08
1.07783e-09
4.61937e-08
1.06385e-09
4.616e-08
1.05042e-09
4.61244e-08
1.03752e-09
4.60869e-08
1.0251e-09
4.60476e-08
1.01313e-09
4.60066e-08
1.00159e-09
4.59637e-08
9.9043e-10
4.59191e-08
9.79638e-10
4.58728e-08
9.69185e-10
4.58248e-08
9.5905e-10
4.57751e-08
9.49211e-10
4.57238e-08
9.39648e-10
4.56709e-08
9.30344e-10
4.56164e-08
9.21282e-10
4.55604e-08
9.12448e-10
4.55028e-08
9.03826e-10
4.54438e-08
8.95405e-10
4.53833e-08
8.87172e-10
4.53214e-08
8.79116e-10
4.52582e-08
8.71228e-10
4.51936e-08
8.63497e-10
4.51277e-08
8.55915e-10
4.50605e-08
8.48475e-10
4.49921e-08
8.41169e-10
4.49225e-08
8.3399e-10
4.48517e-08
8.26932e-10
4.47798e-08
8.1999e-10
4.47067e-08
8.13158e-10
4.46327e-08
8.06431e-10
4.45575e-08
7.99806e-10
4.44814e-08
7.93278e-10
4.44044e-08
7.86843e-10
4.43264e-08
7.80499e-10
4.42475e-08
7.74242e-10
4.41677e-08
7.6807e-10
4.40871e-08
7.6198e-10
4.40057e-08
7.5597e-10
4.39235e-08
7.50039e-10
4.38406e-08
7.44185e-10
4.3757e-08
7.38406e-10
4.36727e-08
7.32702e-10
4.35877e-08
7.27072e-10
4.35021e-08
7.21514e-10
4.34159e-08
7.16028e-10
4.33292e-08
7.10614e-10
4.32419e-08
7.0527e-10
4.3154e-08
6.99995e-10
4.30657e-08
6.94789e-10
4.29769e-08
6.89651e-10
4.28877e-08
6.84582e-10
4.2798e-08
6.79588e-10
4.2708e-08
6.74693e-10
4.26178e-08
6.69957e-10
4.25275e-08
6.65491e-10
4.24382e-08
6.61293e-10
4.23529e-08
6.5564e-10
6.34997e-10
4.61474e-08
1.95086e-09
-4.60276e-08
4.62971e-08
2.15713e-09
4.64643e-08
2.32541e-09
4.66388e-08
2.45133e-09
4.68137e-08
2.5368e-09
4.69843e-08
2.5854e-09
4.71465e-08
2.60075e-09
4.72972e-08
2.58702e-09
4.74347e-08
2.54908e-09
4.75579e-08
2.49216e-09
4.76667e-08
2.42137e-09
4.77618e-08
2.34143e-09
4.78441e-08
2.25652e-09
4.79152e-08
2.17009e-09
4.79766e-08
2.08483e-09
4.80298e-08
2.00269e-09
4.80762e-08
1.92495e-09
4.81172e-08
1.8523e-09
4.81539e-08
1.78504e-09
4.81871e-08
1.72311e-09
4.82174e-08
1.66628e-09
4.82455e-08
1.61419e-09
4.82717e-08
1.56641e-09
4.82963e-08
1.52252e-09
4.83194e-08
1.48211e-09
4.83412e-08
1.44479e-09
4.83618e-08
1.41024e-09
4.83812e-08
1.37815e-09
4.83995e-08
1.34827e-09
4.84166e-08
1.32039e-09
4.84325e-08
1.2943e-09
4.84472e-08
1.26985e-09
4.84608e-08
1.24689e-09
4.84732e-08
1.22529e-09
4.84843e-08
1.20494e-09
4.84943e-08
1.18574e-09
4.85029e-08
1.16761e-09
4.85103e-08
1.15046e-09
4.85165e-08
1.13421e-09
4.85213e-08
1.1188e-09
4.85248e-08
1.10417e-09
4.8527e-08
1.09025e-09
4.85278e-08
1.07701e-09
4.85273e-08
1.06438e-09
4.85254e-08
1.05233e-09
4.85221e-08
1.04081e-09
4.85174e-08
1.02979e-09
4.85113e-08
1.01923e-09
4.85038e-08
1.00909e-09
4.84949e-08
9.99349e-10
4.84845e-08
9.89978e-10
4.84728e-08
9.8095e-10
4.84596e-08
9.72241e-10
4.84449e-08
9.63828e-10
4.84289e-08
9.55691e-10
4.84114e-08
9.47811e-10
4.83926e-08
9.4017e-10
4.83722e-08
9.32752e-10
4.83505e-08
9.25542e-10
4.83274e-08
9.18525e-10
4.83029e-08
9.11689e-10
4.8277e-08
9.05021e-10
4.82497e-08
8.98511e-10
4.82211e-08
8.92148e-10
4.8191e-08
8.85923e-10
4.81597e-08
8.79826e-10
4.8127e-08
8.73851e-10
4.8093e-08
8.67989e-10
4.80577e-08
8.62234e-10
4.80211e-08
8.56578e-10
4.79833e-08
8.51018e-10
4.79442e-08
8.45546e-10
4.79038e-08
8.40159e-10
4.78622e-08
8.34851e-10
4.78194e-08
8.2962e-10
4.77755e-08
8.2446e-10
4.77304e-08
8.19369e-10
4.76841e-08
8.14344e-10
4.76367e-08
8.09382e-10
4.75882e-08
8.04481e-10
4.75386e-08
7.99639e-10
4.74879e-08
7.94855e-10
4.74362e-08
7.90126e-10
4.73834e-08
7.85452e-10
4.73297e-08
7.80831e-10
4.72749e-08
7.76264e-10
4.72192e-08
7.71749e-10
4.71625e-08
7.67285e-10
4.71049e-08
7.62873e-10
4.70464e-08
7.58511e-10
4.6987e-08
7.54197e-10
4.69267e-08
7.4993e-10
4.68656e-08
7.45708e-10
4.68037e-08
7.41531e-10
4.67409e-08
7.374e-10
4.66776e-08
7.3331e-10
4.66139e-08
7.29181e-10
4.65507e-08
7.24474e-10
4.649e-08
7.1635e-10
6.91703e-10
4.79477e-08
1.83934e-09
-4.78362e-08
4.80851e-08
2.01978e-09
4.82393e-08
2.17121e-09
4.84019e-08
2.28867e-09
4.85668e-08
2.37198e-09
4.8729e-08
2.42313e-09
4.8885e-08
2.44484e-09
4.90316e-08
2.44038e-09
4.9167e-08
2.4137e-09
4.929e-08
2.36911e-09
4.94004e-08
2.31096e-09
4.94985e-08
2.24334e-09
4.95851e-08
2.16993e-09
4.96613e-08
2.09388e-09
4.97285e-08
2.01769e-09
4.97879e-08
1.94327e-09
4.98409e-08
1.87193e-09
4.98887e-08
1.80451e-09
4.99323e-08
1.74145e-09
4.99726e-08
1.68286e-09
5.00102e-08
1.62867e-09
5.00457e-08
1.57867e-09
5.00795e-08
1.53257e-09
5.0112e-08
1.49004e-09
5.01433e-08
1.45076e-09
5.01737e-08
1.41441e-09
5.02032e-08
1.38071e-09
5.0232e-08
1.3494e-09
5.026e-08
1.32025e-09
5.02874e-08
1.29305e-09
5.0314e-08
1.26763e-09
5.034e-08
1.24384e-09
5.03654e-08
1.22154e-09
5.03901e-08
1.2006e-09
5.04141e-08
1.18093e-09
5.04374e-08
1.16241e-09
5.04601e-08
1.14497e-09
5.0482e-08
1.12853e-09
5.05032e-08
1.113e-09
5.05237e-08
1.09833e-09
5.05434e-08
1.08446e-09
5.05623e-08
1.07133e-09
5.05804e-08
1.05888e-09
5.05977e-08
1.04706e-09
5.06142e-08
1.03584e-09
5.06299e-08
1.02518e-09
5.06446e-08
1.01502e-09
5.06585e-08
1.00534e-09
5.06715e-08
9.96108e-10
5.06836e-08
9.87288e-10
5.06947e-08
9.78852e-10
5.07049e-08
9.70774e-10
5.07141e-08
9.6303e-10
5.07223e-08
9.55597e-10
5.07295e-08
9.48452e-10
5.07358e-08
9.41577e-10
5.0741e-08
9.34953e-10
5.07452e-08
9.28563e-10
5.07483e-08
9.2239e-10
5.07504e-08
9.1642e-10
5.07515e-08
9.1064e-10
5.07515e-08
9.05036e-10
5.07504e-08
8.99596e-10
5.07482e-08
8.9431e-10
5.0745e-08
8.89166e-10
5.07406e-08
8.84157e-10
5.07352e-08
8.79272e-10
5.07287e-08
8.74503e-10
5.07211e-08
8.69844e-10
5.07124e-08
8.65286e-10
5.07026e-08
8.60824e-10
5.06917e-08
8.56451e-10
5.06797e-08
8.52162e-10
5.06666e-08
8.47952e-10
5.06524e-08
8.43815e-10
5.06371e-08
8.39749e-10
5.06207e-08
8.35748e-10
5.06032e-08
8.3181e-10
5.05847e-08
8.27931e-10
5.05651e-08
8.24108e-10
5.05444e-08
8.20339e-10
5.05226e-08
8.16622e-10
5.04998e-08
8.12955e-10
5.04759e-08
8.09337e-10
5.0451e-08
8.05765e-10
5.0425e-08
8.0224e-10
5.0398e-08
7.98759e-10
5.03699e-08
7.95323e-10
5.03409e-08
7.91931e-10
5.03108e-08
7.8858e-10
5.02797e-08
7.85268e-10
5.02477e-08
7.81994e-10
5.02146e-08
7.7875e-10
5.01806e-08
7.75529e-10
5.01457e-08
7.72308e-10
5.011e-08
7.69023e-10
5.00737e-08
7.65443e-10
5.00375e-08
7.6072e-10
5.00021e-08
7.51779e-10
7.28031e-10
4.98097e-08
1.7343e-09
-4.97047e-08
4.9937e-08
1.89249e-09
5.008e-08
2.02821e-09
5.0232e-08
2.1367e-09
5.03873e-08
2.21663e-09
5.05416e-08
2.26883e-09
5.06913e-08
2.29516e-09
5.08336e-08
2.29813e-09
5.09664e-08
2.28087e-09
5.10886e-08
2.24691e-09
5.11997e-08
2.19988e-09
5.12997e-08
2.14329e-09
5.13893e-08
2.08038e-09
5.14692e-08
2.01394e-09
5.15406e-08
1.9463e-09
5.16046e-08
1.87927e-09
5.16623e-08
1.81419e-09
5.17149e-08
1.75195e-09
5.17632e-08
1.69311e-09
5.18082e-08
1.63792e-09
5.18504e-08
1.58646e-09
5.18904e-08
1.53862e-09
5.19288e-08
1.49424e-09
5.19657e-08
1.4531e-09
5.20015e-08
1.41493e-09
5.20364e-08
1.37951e-09
5.20706e-08
1.34658e-09
5.2104e-08
1.31593e-09
5.21369e-08
1.28735e-09
5.21693e-08
1.26068e-09
5.22012e-08
1.23574e-09
5.22326e-08
1.2124e-09
5.22637e-08
1.19052e-09
5.22943e-08
1.17e-09
5.23245e-08
1.15072e-09
5.23543e-08
1.13261e-09
5.23837e-08
1.11556e-09
5.24127e-08
1.09952e-09
5.24413e-08
1.0844e-09
5.24695e-08
1.07014e-09
5.24973e-08
1.05668e-09
5.25246e-08
1.04397e-09
5.25515e-08
1.03196e-09
5.2578e-08
1.02059e-09
5.2604e-08
1.00983e-09
5.26296e-08
9.99632e-10
5.26546e-08
9.89959e-10
5.26792e-08
9.80778e-10
5.27033e-08
9.72053e-10
5.27268e-08
9.63756e-10
5.27498e-08
9.55857e-10
5.27722e-08
9.48331e-10
5.27941e-08
9.41151e-10
5.28154e-08
9.34296e-10
5.28361e-08
9.27744e-10
5.28562e-08
9.21475e-10
5.28757e-08
9.15471e-10
5.28946e-08
9.09713e-10
5.29128e-08
9.04186e-10
5.29303e-08
8.98875e-10
5.29472e-08
8.93766e-10
5.29634e-08
8.88846e-10
5.29789e-08
8.84102e-10
5.29936e-08
8.79524e-10
5.30077e-08
8.75099e-10
5.3021e-08
8.7082e-10
5.30336e-08
8.66676e-10
5.30455e-08
8.62659e-10
5.30566e-08
8.58761e-10
5.30669e-08
8.54975e-10
5.30764e-08
8.51293e-10
5.30852e-08
8.47709e-10
5.30931e-08
8.44218e-10
5.31002e-08
8.40813e-10
5.31066e-08
8.37491e-10
5.31121e-08
8.34245e-10
5.31167e-08
8.31072e-10
5.31206e-08
8.27967e-10
5.31236e-08
8.24928e-10
5.31257e-08
8.21952e-10
5.3127e-08
8.19034e-10
5.31275e-08
8.16173e-10
5.31271e-08
8.13366e-10
5.31258e-08
8.10612e-10
5.31237e-08
8.07909e-10
5.31206e-08
8.05256e-10
5.31168e-08
8.02651e-10
5.3112e-08
8.00094e-10
5.31063e-08
7.97583e-10
5.30998e-08
7.95115e-10
5.30924e-08
7.92689e-10
5.30841e-08
7.903e-10
5.30749e-08
7.87939e-10
5.30648e-08
7.85588e-10
5.30539e-08
7.83207e-10
5.30423e-08
7.80687e-10
5.303e-08
7.77714e-10
5.30173e-08
7.73359e-10
5.30042e-08
7.64937e-10
7.45264e-10
5.1736e-08
1.63442e-09
-5.16361e-08
5.1855e-08
1.77345e-09
5.19884e-08
1.8948e-09
5.21309e-08
1.99426e-09
5.22775e-08
2.07001e-09
5.24243e-08
2.12204e-09
5.25679e-08
2.15152e-09
5.27057e-08
2.1603e-09
5.28358e-08
2.15083e-09
5.29568e-08
2.12592e-09
5.3068e-08
2.08861e-09
5.31695e-08
2.04186e-09
5.32614e-08
1.98846e-09
5.33445e-08
1.9309e-09
5.34195e-08
1.87129e-09
5.34874e-08
1.81133e-09
5.35492e-08
1.75234e-09
5.36059e-08
1.69525e-09
5.36584e-08
1.64069e-09
5.37073e-08
1.58902e-09
5.37533e-08
1.54042e-09
5.3797e-08
1.4949e-09
5.38389e-08
1.45239e-09
5.38792e-08
1.41276e-09
5.39183e-08
1.37582e-09
5.39564e-08
1.3414e-09
5.39937e-08
1.30931e-09
5.40303e-08
1.27937e-09
5.40662e-08
1.25139e-09
5.41017e-08
1.22524e-09
5.41366e-08
1.20076e-09
5.41712e-08
1.17783e-09
5.42054e-08
1.15632e-09
5.42393e-08
1.13614e-09
5.42728e-08
1.11719e-09
5.4306e-08
1.09938e-09
5.4339e-08
1.08262e-09
5.43716e-08
1.06686e-09
5.4404e-08
1.05201e-09
5.44361e-08
1.03802e-09
5.4468e-08
1.02483e-09
5.44996e-08
1.01238e-09
5.45309e-08
1.00063e-09
5.4562e-08
9.89526e-10
5.45928e-08
9.79032e-10
5.46233e-08
9.69104e-10
5.46535e-08
9.59707e-10
5.46835e-08
9.50805e-10
5.47132e-08
9.42367e-10
5.47426e-08
9.34361e-10
5.47717e-08
9.26761e-10
5.48005e-08
9.1954e-10
5.4829e-08
9.12673e-10
5.48571e-08
9.06139e-10
5.4885e-08
8.99915e-10
5.49124e-08
8.93983e-10
5.49396e-08
8.88324e-10
5.49664e-08
8.82921e-10
5.49928e-08
8.77757e-10
5.50189e-08
8.72819e-10
5.50445e-08
8.68091e-10
5.50698e-08
8.63562e-10
5.50947e-08
8.59218e-10
5.51192e-08
8.55049e-10
5.51432e-08
8.51045e-10
5.51669e-08
8.47194e-10
5.51901e-08
8.43489e-10
5.52128e-08
8.39921e-10
5.52351e-08
8.36481e-10
5.52569e-08
8.33162e-10
5.52782e-08
8.29958e-10
5.52991e-08
8.26861e-10
5.53194e-08
8.23867e-10
5.53393e-08
8.20968e-10
5.53586e-08
8.18161e-10
5.53774e-08
8.15441e-10
5.53957e-08
8.12802e-10
5.54134e-08
8.10241e-10
5.54306e-08
8.07755e-10
5.54472e-08
8.0534e-10
5.54632e-08
8.02993e-10
5.54787e-08
8.00711e-10
5.54936e-08
7.98492e-10
5.55078e-08
7.96335e-10
5.55215e-08
7.94237e-10
5.55346e-08
7.92198e-10
5.5547e-08
7.90215e-10
5.55588e-08
7.88288e-10
5.557e-08
7.86415e-10
5.55805e-08
7.84595e-10
5.55904e-08
7.82823e-10
5.55996e-08
7.81095e-10
5.56081e-08
7.79399e-10
5.5616e-08
7.77712e-10
5.56232e-08
7.7598e-10
5.56298e-08
7.74073e-10
5.56359e-08
7.71658e-10
5.56413e-08
7.67899e-10
5.56454e-08
7.60824e-10
7.46523e-10
5.37292e-08
1.53873e-09
-5.36336e-08
5.38415e-08
1.66119e-09
5.39667e-08
1.76956e-09
5.41007e-08
1.86026e-09
5.42394e-08
1.93131e-09
5.43792e-08
1.98224e-09
5.45171e-08
2.01365e-09
5.46506e-08
2.02684e-09
5.47777e-08
2.02368e-09
5.48972e-08
2.00641e-09
5.50084e-08
1.97749e-09
5.51108e-08
1.93941e-09
5.52047e-08
1.89458e-09
5.52904e-08
1.84515e-09
5.53687e-08
1.79303e-09
5.54402e-08
1.7398e-09
5.55059e-08
1.6867e-09
5.55664e-08
1.63469e-09
5.56227e-08
1.58444e-09
5.56753e-08
1.53637e-09
5.5725e-08
1.49076e-09
5.57722e-08
1.44771e-09
5.58174e-08
1.40723e-09
5.58609e-08
1.36926e-09
5.5903e-08
1.33371e-09
5.59439e-08