/*--------------------------------*- C++ -*----------------------------------*\
| =========                 |                                                 |
| \\      /  F ield         | OpenFOAM: The Open Source CFD Toolbox           |
|  \\    /   O peration     | Version:  2.3.0                                 |
|   \\  /    A nd           | Web:      www.OpenFOAM.org                      |
|    \\/     M anipulation  |                                                 |
\*---------------------------------------------------------------------------*/
FoamFile
{
    version     2.0;
    format      ascii;
    class       volVectorField;
    location    "1";
    object      U_0;
}
// * * * * * * * * * * * * * * * * * * * * * * * * * * * * * * * * * * * * * //

dimensions      [0 1 -1 0 0 0 0];

internalField   nonuniform List<vector> 
3375
(
(0.173031 0.00585775 0)
(0.15668 0.00597829 0)
(0.140942 0.00558457 0)
(0.125995 0.00500155 0)
(0.112267 0.00435128 0)
(0.0999364 0.00368812 0)
(0.089015 0.00304961 0)
(0.0794689 0.00246187 0)
(0.0712432 0.00194076 0)
(0.0642546 0.00149442 0)
(0.0583915 0.00112481 0)
(0.0535232 0.000828761 0)
(0.0495106 0.000599221 0)
(0.0462161 0.000426751 0)
(0.0435107 0.000301047 0)
(0.0412789 0.00021212 0)
(0.0394218 0.000151054 0)
(0.0378574 0.000110366 0)
(0.03652 8.407e-05 0)
(0.0353583 6.75755e-05 0)
(0.0343335 5.74933e-05 0)
(0.0334163 5.14186e-05 0)
(0.0325852 4.77153e-05 0)
(0.0318244 4.53209e-05 0)
(0.0311222 4.35814e-05 0)
(0.03047 4.21209e-05 0)
(0.0298611 4.07428e-05 0)
(0.0292906 3.93591e-05 0)
(0.0287542 3.79438e-05 0)
(0.0282487 3.65017e-05 0)
(0.0277712 3.50508e-05 0)
(0.0273192 3.36122e-05 0)
(0.0268905 3.22043e-05 0)
(0.0264831 3.08417e-05 0)
(0.0260955 2.95345e-05 0)
(0.0257259 2.82885e-05 0)
(0.0253729 2.71066e-05 0)
(0.0250354 2.5989e-05 0)
(0.0247121 2.49342e-05 0)
(0.024402 2.394e-05 0)
(0.0241042 2.30031e-05 0)
(0.0238178 2.21201e-05 0)
(0.0235421 2.12875e-05 0)
(0.0232762 2.05018e-05 0)
(0.0230197 1.97597e-05 0)
(0.0227719 1.9058e-05 0)
(0.0225323 1.83938e-05 0)
(0.0223004 1.77643e-05 0)
(0.0220758 1.7167e-05 0)
(0.021858 1.65998e-05 0)
(0.0216467 1.60604e-05 0)
(0.0214416 1.55469e-05 0)
(0.0212422 1.50577e-05 0)
(0.0210484 1.4591e-05 0)
(0.0208598 1.41455e-05 0)
(0.0206763 1.37197e-05 0)
(0.0204975 1.33125e-05 0)
(0.0203232 1.29227e-05 0)
(0.0201533 1.25493e-05 0)
(0.0199875 1.21913e-05 0)
(0.0198257 1.18478e-05 0)
(0.0196676 1.15181e-05 0)
(0.0195133 1.12012e-05 0)
(0.0193624 1.08967e-05 0)
(0.0192149 1.06037e-05 0)
(0.0190706 1.03218e-05 0)
(0.0189294 1.00503e-05 0)
(0.0187912 9.78871e-06 0)
(0.0186558 9.53656e-06 0)
(0.0185233 9.29342e-06 0)
(0.0183934 9.05881e-06 0)
(0.0182661 8.83232e-06 0)
(0.0181412 8.61372e-06 0)
(0.0180188 8.4025e-06 0)
(0.0178987 8.19836e-06 0)
(0.0177809 8.00111e-06 0)
(0.0176652 7.81038e-06 0)
(0.0175516 7.62583e-06 0)
(0.0174401 7.44736e-06 0)
(0.0173306 7.27463e-06 0)
(0.0172229 7.10747e-06 0)
(0.0171171 6.9456e-06 0)
(0.0170131 6.78889e-06 0)
(0.0169108 6.63722e-06 0)
(0.0168103 6.49024e-06 0)
(0.0167113 6.34789e-06 0)
(0.016614 6.20998e-06 0)
(0.0165182 6.0764e-06 0)
(0.0164239 5.94687e-06 0)
(0.016331 5.82136e-06 0)
(0.0162396 5.69962e-06 0)
(0.0161495 5.58163e-06 0)
(0.0160608 5.46748e-06 0)
(0.0159733 5.35776e-06 0)
(0.0158871 5.25451e-06 0)
(0.015802 5.16449e-06 0)
(0.0157178 5.11395e-06 0)
(0.0156334 5.10214e-06 0)
(0.015561 4.35714e-06 0)
(0.015347 3.09571e-05 0)
(0.192061 0.0093085 0)
(0.189955 0.00986238 0)
(0.186259 0.00965325 0)
(0.181311 0.00916344 0)
(0.175614 0.00853767 0)
(0.169518 0.00782245 0)
(0.163243 0.00705567 0)
(0.156955 0.00627231 0)
(0.150787 0.00550149 0)
(0.144837 0.00476697 0)
(0.139175 0.00408735 0)
(0.13384 0.00347558 0)
(0.128852 0.00293862 0)
(0.124214 0.00247795 0)
(0.11992 0.00209052 0)
(0.115952 0.00177002 0)
(0.112293 0.00150823 0)
(0.108918 0.00129619 0)
(0.105805 0.00112511 0)
(0.10293 0.000986969 0)
(0.10027 0.000874862 0)
(0.0978049 0.000783072 0)
(0.0955148 0.000707038 0)
(0.0933825 0.000643218 0)
(0.0913925 0.000588918 0)
(0.0895307 0.000542112 0)
(0.0877847 0.000501294 0)
(0.0861436 0.000465337 0)
(0.0845977 0.000433399 0)
(0.0831383 0.000404837 0)
(0.0817577 0.000379153 0)
(0.0804493 0.000355954 0)
(0.0792068 0.000334919 0)
(0.078025 0.000315785 0)
(0.0768988 0.000298327 0)
(0.0758241 0.000282357 0)
(0.0747968 0.000267708 0)
(0.0738135 0.00025424 0)
(0.0728709 0.000241825 0)
(0.0719662 0.000230356 0)
(0.0710968 0.000219735 0)
(0.0702603 0.000209877 0)
(0.0694546 0.000200709 0)
(0.0686776 0.000192164 0)
(0.0679276 0.000184184 0)
(0.0672029 0.000176718 0)
(0.0665021 0.000169718 0)
(0.0658237 0.000163146 0)
(0.0651665 0.000156964 0)
(0.0645294 0.000151141 0)
(0.0639111 0.000145646 0)
(0.0633108 0.000140455 0)
(0.0627275 0.000135543 0)
(0.0621603 0.00013089 0)
(0.0616085 0.000126477 0)
(0.0610713 0.000122286 0)
(0.060548 0.000118302 0)
(0.0600381 0.00011451 0)
(0.0595408 0.000110897 0)
(0.0590556 0.000107452 0)
(0.058582 0.000104164 0)
(0.0581196 0.000101022 0)
(0.0576677 9.80178e-05 0)
(0.0572261 9.5143e-05 0)
(0.0567943 9.23896e-05 0)
(0.056372 8.97507e-05 0)
(0.0559586 8.72196e-05 0)
(0.055554 8.47903e-05 0)
(0.0551578 8.24572e-05 0)
(0.0547697 8.0215e-05 0)
(0.0543894 7.8059e-05 0)
(0.0540166 7.59845e-05 0)
(0.0536511 7.39876e-05 0)
(0.0532926 7.20642e-05 0)
(0.0529408 7.02107e-05 0)
(0.0525957 6.84239e-05 0)
(0.0522568 6.67004e-05 0)
(0.0519241 6.50374e-05 0)
(0.0515974 6.34322e-05 0)
(0.0512764 6.18821e-05 0)
(0.050961 6.03848e-05 0)
(0.0506509 5.89378e-05 0)
(0.0503462 5.75393e-05 0)
(0.0500465 5.61873e-05 0)
(0.0497517 5.48796e-05 0)
(0.0494618 5.36147e-05 0)
(0.0491764 5.23908e-05 0)
(0.0488956 5.12064e-05 0)
(0.0486192 5.00598e-05 0)
(0.048347 4.89495e-05 0)
(0.048079 4.78742e-05 0)
(0.0478149 4.68328e-05 0)
(0.0475548 4.58254e-05 0)
(0.0472985 4.48546e-05 0)
(0.0470457 4.39316e-05 0)
(0.0467964 4.3095e-05 0)
(0.0465501 4.24702e-05 0)
(0.0463045 4.23911e-05 0)
(0.0460743 4.59055e-05 0)
(0.0456384 0.000103515 0)
(0.19505 0.00881797 0)
(0.195995 0.00980069 0)
(0.19632 0.0101463 0)
(0.195865 0.0101611 0)
(0.194742 0.00994933 0)
(0.193071 0.00954822 0)
(0.19094 0.00900158 0)
(0.188433 0.00835858 0)
(0.18564 0.00766417 0)
(0.182647 0.0069564 0)
(0.179528 0.00626592 0)
(0.176347 0.00561545 0)
(0.173153 0.00501967 0)
(0.169985 0.00448594 0)
(0.166872 0.00401574 0)
(0.163832 0.00360623 0)
(0.160879 0.00325195 0)
(0.15802 0.00294617 0)
(0.155258 0.00268192 0)
(0.152595 0.00245264 0)
(0.150029 0.00225254 0)
(0.147558 0.00207673 0)
(0.14518 0.00192118 0)
(0.142891 0.00178266 0)
(0.140688 0.00165857 0)
(0.138568 0.00154684 0)
(0.136528 0.0014458 0)
(0.134563 0.0013541 0)
(0.132672 0.00127062 0)
(0.13085 0.00119443 0)
(0.129094 0.00112474 0)
(0.127402 0.00106088 0)
(0.12577 0.00100224 0)
(0.124196 0.000948299 0)
(0.122676 0.000898604 0)
(0.121209 0.000852741 0)
(0.119792 0.000810342 0)
(0.118421 0.000771082 0)
(0.117096 0.000734666 0)
(0.115813 0.000700832 0)
(0.114571 0.000669345 0)
(0.113368 0.000639995 0)
(0.112201 0.000612591 0)
(0.111069 0.000586966 0)
(0.10997 0.000562965 0)
(0.108904 0.000540453 0)
(0.107867 0.000519305 0)
(0.106859 0.00049941 0)
(0.105878 0.000480668 0)
(0.104924 0.000462989 0)
(0.103995 0.00044629 0)
(0.103089 0.000430497 0)
(0.102207 0.000415542 0)
(0.101346 0.000401365 0)
(0.100506 0.00038791 0)
(0.0996864 0.000375127 0)
(0.0988859 0.000362968 0)
(0.0981038 0.000351391 0)
(0.0973395 0.000340359 0)
(0.0965922 0.000329835 0)
(0.0958613 0.000319787 0)
(0.0951461 0.000310186 0)
(0.094446 0.000301003 0)
(0.0937606 0.000292213 0)
(0.0930893 0.000283794 0)
(0.0924315 0.000275723 0)
(0.0917868 0.000267981 0)
(0.0911548 0.00026055 0)
(0.090535 0.000253411 0)
(0.089927 0.00024655 0)
(0.0893304 0.000239951 0)
(0.0887448 0.000233602 0)
(0.08817 0.000227488 0)
(0.0876055 0.000221599 0)
(0.0870511 0.000215923 0)
(0.0865064 0.00021045 0)
(0.0859711 0.000205171 0)
(0.0854449 0.000200076 0)
(0.0849277 0.000195156 0)
(0.0844191 0.000190405 0)
(0.0839188 0.000185814 0)
(0.0834266 0.000181377 0)
(0.0829424 0.000177086 0)
(0.0824658 0.000172938 0)
(0.0819968 0.000168924 0)
(0.0815349 0.00016504 0)
(0.0810801 0.000161281 0)
(0.0806322 0.000157641 0)
(0.0801909 0.000154117 0)
(0.0797562 0.000150703 0)
(0.0793278 0.000147395 0)
(0.0789055 0.000144191 0)
(0.0784892 0.000141088 0)
(0.0780787 0.000138094 0)
(0.0776738 0.000135233 0)
(0.0772743 0.000132595 0)
(0.0768795 0.000130476 0)
(0.0764874 0.000129997 0)
(0.0761069 0.000140352 0)
(0.0755413 0.000206682 0)
(0.196101 0.00809324 0)
(0.197373 0.00915871 0)
(0.198561 0.00972154 0)
(0.199445 0.00996719 0)
(0.200003 0.00998232 0)
(0.200243 0.00979974 0)
(0.200162 0.00945446 0)
(0.199765 0.00898872 0)
(0.199075 0.0084438 0)
(0.198127 0.00785643 0)
(0.196961 0.00725783 0)
(0.195617 0.00667287 0)
(0.194135 0.00611952 0)
(0.192551 0.00560902 0)
(0.190893 0.0051468 0)
(0.189188 0.00473375 0)
(0.187454 0.00436763 0)
(0.185705 0.00404433 0)
(0.183953 0.00375885 0)
(0.182206 0.00350605 0)
(0.180469 0.00328107 0)
(0.178746 0.00307962 0)
(0.17704 0.00289801 0)
(0.175353 0.00273322 0)
(0.173687 0.00258278 0)
(0.172043 0.0024447 0)
(0.170422 0.00231739 0)
(0.168825 0.00219957 0)
(0.167253 0.00209021 0)
(0.165707 0.00198846 0)
(0.164186 0.00189359 0)
(0.162691 0.001805 0)
(0.161222 0.00172216 0)
(0.15978 0.00164461 0)
(0.158364 0.00157193 0)
(0.156974 0.00150374 0)
(0.15561 0.00143972 0)
(0.154272 0.00137954 0)
(0.15296 0.00132293 0)
(0.151673 0.00126963 0)
(0.15041 0.00121939 0)
(0.149172 0.001172 0)
(0.147959 0.00112727 0)
(0.146768 0.00108499 0)
(0.145601 0.001045 0)
(0.144456 0.00100715 0)
(0.143333 0.000971279 0)
(0.142232 0.000937264 0)
(0.141151 0.000904978 0)
(0.140092 0.000874306 0)
(0.139052 0.000845143 0)
(0.138031 0.000817391 0)
(0.13703 0.000790961 0)
(0.136046 0.000765769 0)
(0.135081 0.000741738 0)
(0.134134 0.000718796 0)
(0.133203 0.000696878 0)
(0.132289 0.000675922 0)
(0.131391 0.000655871 0)
(0.130509 0.000636672 0)
(0.129642 0.000618277 0)
(0.128789 0.000600639 0)
(0.127952 0.000583718 0)
(0.127128 0.000567472 0)
(0.126318 0.000551867 0)
(0.125522 0.000536867 0)
(0.124739 0.00052244 0)
(0.123968 0.000508558 0)
(0.12321 0.000495192 0)
(0.122463 0.000482316 0)
(0.121729 0.000469906 0)
(0.121006 0.00045794 0)
(0.120294 0.000446396 0)
(0.119593 0.000435255 0)
(0.118902 0.000424497 0)
(0.118222 0.000414105 0)
(0.117552 0.000404063 0)
(0.116892 0.000394356 0)
(0.116241 0.000384968 0)
(0.1156 0.000375887 0)
(0.114968 0.000367099 0)
(0.114346 0.000358592 0)
(0.113731 0.000350356 0)
(0.113126 0.000342379 0)
(0.112528 0.000334652 0)
(0.111939 0.000327164 0)
(0.111358 0.000319906 0)
(0.110784 0.000312871 0)
(0.110219 0.00030605 0)
(0.10966 0.000299434 0)
(0.109109 0.000293016 0)
(0.108565 0.000286791 0)
(0.108028 0.000280755 0)
(0.107497 0.000274919 0)
(0.106974 0.000269322 0)
(0.106456 0.000264108 0)
(0.105944 0.000259761 0)
(0.105437 0.00025825 0)
(0.104941 0.000270832 0)
(0.104295 0.000328466 0)
(0.196852 0.00751298 0)
(0.197972 0.00850539 0)
(0.199173 0.00910124 0)
(0.200286 0.00941532 0)
(0.201265 0.00952321 0)
(0.202097 0.00945636 0)
(0.202758 0.00924089 0)
(0.203227 0.00890866 0)
(0.203494 0.00849276 0)
(0.203564 0.00802407 0)
(0.203451 0.00753 0)
(0.203173 0.00703359 0)
(0.202753 0.00655265 0)
(0.202212 0.00609949 0)
(0.201574 0.00568136 0)
(0.200856 0.00530127 0)
(0.200075 0.00495913 0)
(0.199245 0.00465274 0)
(0.198376 0.00437872 0)
(0.197475 0.0041332 0)
(0.19655 0.00391233 0)
(0.195604 0.00371253 0)
(0.194641 0.00353068 0)
(0.193664 0.00336412 0)
(0.192675 0.00321067 0)
(0.191676 0.00306855 0)
(0.190669 0.00293633 0)
(0.189655 0.00281285 0)
(0.188636 0.00269717 0)
(0.187612 0.00258853 0)
(0.186586 0.00248627 0)
(0.185558 0.00238987 0)
(0.184529 0.00229883 0)
(0.1835 0.00221277 0)
(0.182473 0.0021313 0)
(0.181447 0.00205411 0)
(0.180425 0.0019809 0)
(0.179406 0.0019114 0)
(0.178391 0.00184536 0)
(0.177381 0.00178255 0)
(0.176376 0.00172278 0)
(0.175377 0.00166584 0)
(0.174384 0.00161157 0)
(0.173398 0.00155979 0)
(0.172419 0.00151037 0)
(0.171447 0.00146315 0)
(0.170482 0.00141801 0)
(0.169526 0.00137483 0)
(0.168577 0.0013335 0)
(0.167637 0.00129391 0)
(0.166704 0.00125597 0)
(0.165781 0.00121959 0)
(0.164866 0.00118468 0)
(0.163959 0.00115116 0)
(0.163061 0.00111896 0)
(0.162172 0.00108801 0)
(0.161292 0.00105825 0)
(0.160421 0.00102962 0)
(0.159559 0.00100206 0)
(0.158705 0.000975517 0)
(0.15786 0.00094994 0)
(0.157024 0.000925284 0)
(0.156197 0.000901505 0)
(0.155378 0.000878561 0)
(0.154568 0.000856414 0)
(0.153767 0.000835027 0)
(0.152975 0.000814365 0)
(0.15219 0.000794397 0)
(0.151415 0.00077509 0)
(0.150647 0.000756417 0)
(0.149888 0.000738351 0)
(0.149137 0.000720864 0)
(0.148394 0.000703934 0)
(0.147659 0.000687536 0)
(0.146933 0.00067165 0)
(0.146214 0.000656254 0)
(0.145502 0.00064133 0)
(0.144799 0.000626858 0)
(0.144102 0.000612822 0)
(0.143414 0.000599205 0)
(0.142732 0.000585991 0)
(0.142058 0.000573166 0)
(0.141392 0.000560715 0)
(0.140732 0.000548626 0)
(0.140079 0.000536885 0)
(0.139433 0.000525482 0)
(0.138794 0.000514403 0)
(0.138161 0.000503639 0)
(0.137535 0.000493179 0)
(0.136916 0.000483011 0)
(0.136303 0.000473128 0)
(0.135696 0.00046352 0)
(0.135095 0.000454186 0)
(0.134501 0.000445137 0)
(0.133912 0.000436426 0)
(0.133329 0.000428241 0)
(0.132752 0.000421211 0)
(0.13218 0.000417728 0)
(0.131621 0.000427558 0)
(0.130943 0.000465225 0)
(0.197494 0.0070038 0)
(0.198435 0.00788588 0)
(0.199496 0.00846466 0)
(0.200552 0.00880172 0)
(0.201555 0.00895439 0)
(0.202486 0.00895145 0)
(0.203324 0.00881449 0)
(0.204048 0.00856902 0)
(0.204643 0.00824256 0)
(0.205105 0.00786149 0)
(0.205435 0.00744962 0)
(0.205641 0.00702742 0)
(0.205736 0.00661127 0)
(0.205732 0.00621312 0)
(0.205644 0.00584065 0)
(0.205485 0.00549786 0)
(0.205268 0.00518589 0)
(0.205001 0.00490383 0)
(0.204694 0.00464952 0)
(0.204353 0.00442013 0)
(0.203983 0.00421265 0)
(0.203587 0.00402416 0)
(0.203167 0.00385199 0)
(0.202727 0.00369385 0)
(0.202267 0.00354777 0)
(0.201789 0.00341213 0)
(0.201294 0.0032856 0)
(0.200783 0.00316709 0)
(0.200256 0.00305572 0)
(0.199715 0.00295075 0)
(0.19916 0.00285158 0)
(0.198593 0.00275768 0)
(0.198014 0.00266862 0)
(0.197423 0.00258402 0)
(0.196821 0.00250353 0)
(0.19621 0.00242687 0)
(0.19559 0.00235377 0)
(0.194961 0.00228398 0)
(0.194324 0.00221729 0)
(0.19368 0.0021535 0)
(0.193029 0.00209242 0)
(0.192372 0.00203388 0)
(0.191709 0.00197774 0)
(0.191042 0.00192385 0)
(0.19037 0.00187208 0)
(0.189693 0.00182232 0)
(0.189014 0.00177443 0)
(0.188331 0.00172834 0)
(0.187645 0.00168394 0)
(0.186957 0.00164113 0)
(0.186267 0.00159985 0)
(0.185575 0.00156001 0)
(0.184882 0.00152153 0)
(0.184189 0.00148437 0)
(0.183494 0.00144844 0)
(0.1828 0.0014137 0)
(0.182105 0.00138008 0)
(0.181411 0.00134755 0)
(0.180717 0.00131604 0)
(0.180024 0.00128552 0)
(0.179332 0.00125595 0)
(0.178642 0.00122727 0)
(0.177953 0.00119946 0)
(0.177265 0.00117248 0)
(0.17658 0.0011463 0)
(0.175896 0.00112088 0)
(0.175215 0.0010962 0)
(0.174536 0.00107223 0)
(0.17386 0.00104893 0)
(0.173186 0.0010263 0)
(0.172515 0.00100429 0)
(0.171846 0.00098289 0)
(0.171181 0.000962078 0)
(0.170519 0.000941832 0)
(0.16986 0.000922133 0)
(0.169204 0.000902962 0)
(0.168552 0.000884301 0)
(0.167903 0.000866134 0)
(0.167257 0.000848444 0)
(0.166615 0.000831218 0)
(0.165976 0.000814439 0)
(0.165342 0.000798094 0)
(0.16471 0.00078217 0)
(0.164083 0.000766655 0)
(0.163459 0.000751536 0)
(0.162839 0.000736803 0)
(0.162223 0.000722443 0)
(0.161611 0.000708447 0)
(0.161002 0.000694804 0)
(0.160397 0.000681503 0)
(0.159796 0.000668536 0)
(0.159199 0.000655893 0)
(0.158606 0.000643574 0)
(0.158017 0.000631592 0)
(0.157431 0.000620009 0)
(0.156849 0.000609029 0)
(0.156271 0.000599307 0)
(0.155699 0.000593013 0)
(0.155141 0.000596443 0)
(0.154486 0.000609164 0)
(0.198058 0.00655712 0)
(0.198856 0.00733098 0)
(0.199775 0.00787605 0)
(0.200723 0.00821731 0)
(0.201654 0.00839309 0)
(0.202545 0.00842821 0)
(0.203378 0.00834175 0)
(0.204134 0.00815518 0)
(0.2048 0.00789194 0)
(0.205371 0.00757492 0)
(0.205846 0.00722497 0)
(0.206229 0.00686023 0)
(0.206527 0.00649552 0)
(0.20675 0.00614206 0)
(0.206907 0.00580752 0)
(0.207008 0.00549638 0)
(0.207063 0.00521057 0)
(0.20708 0.00495011 0)
(0.207065 0.00471377 0)
(0.207023 0.00449953 0)
(0.206958 0.00430508 0)
(0.206872 0.00412805 0)
(0.206769 0.00396617 0)
(0.206649 0.00381743 0)
(0.206514 0.00368007 0)
(0.206363 0.00355261 0)
(0.206198 0.0034338 0)
(0.206019 0.0033226 0)
(0.205826 0.00321815 0)
(0.20562 0.00311974 0)
(0.205401 0.00302677 0)
(0.205168 0.00293874 0)
(0.204924 0.00285522 0)
(0.204666 0.00277582 0)
(0.204397 0.00270023 0)
(0.204116 0.00262814 0)
(0.203824 0.00255931 0)
(0.20352 0.00249349 0)
(0.203206 0.00243048 0)
(0.202881 0.00237009 0)
(0.202546 0.00231213 0)
(0.202201 0.00225646 0)
(0.201846 0.00220292 0)
(0.201482 0.00215138 0)
(0.201109 0.00210172 0)
(0.200727 0.00205383 0)
(0.200337 0.00200761 0)
(0.199939 0.00196295 0)
(0.199533 0.00191977 0)
(0.199119 0.001878 0)
(0.198699 0.00183755 0)
(0.198271 0.00179836 0)
(0.197837 0.00176036 0)
(0.197396 0.0017235 0)
(0.19695 0.00168772 0)
(0.196497 0.00165296 0)
(0.19604 0.00161919 0)
(0.195576 0.00158635 0)
(0.195108 0.00155441 0)
(0.194636 0.00152333 0)
(0.194158 0.00149308 0)
(0.193677 0.00146361 0)
(0.193192 0.0014349 0)
(0.192703 0.00140692 0)
(0.19221 0.00137964 0)
(0.191714 0.00135304 0)
(0.191215 0.00132708 0)
(0.190714 0.00130176 0)
(0.19021 0.00127705 0)
(0.189703 0.00125292 0)
(0.189194 0.00122936 0)
(0.188683 0.00120635 0)
(0.188171 0.00118387 0)
(0.187656 0.00116191 0)
(0.18714 0.00114045 0)
(0.186623 0.00111948 0)
(0.186105 0.00109898 0)
(0.185586 0.00107893 0)
(0.185066 0.00105934 0)
(0.184545 0.00104018 0)
(0.184024 0.00102145 0)
(0.183502 0.00100313 0)
(0.18298 0.000985209 0)
(0.182458 0.000967684 0)
(0.181936 0.000950544 0)
(0.181414 0.000933779 0)
(0.180892 0.000917381 0)
(0.18037 0.000901341 0)
(0.179849 0.000885651 0)
(0.179328 0.000870303 0)
(0.178808 0.000855288 0)
(0.178288 0.0008406 0)
(0.177769 0.000826239 0)
(0.177251 0.000812218 0)
(0.176734 0.000798596 0)
(0.176218 0.000785556 0)
(0.175703 0.000773633 0)
(0.175193 0.000764253 0)
(0.174696 0.00075971 0)
(0.17412 0.000748386 0)
(0.198557 0.00616014 0)
(0.199245 0.00683516 0)
(0.200043 0.00733746 0)
(0.200886 0.00767082 0)
(0.201731 0.0078581 0)
(0.202554 0.00791897 0)
(0.203335 0.00786996 0)
(0.204059 0.00772904 0)
(0.204715 0.00751597 0)
(0.205297 0.00725047 0)
(0.205803 0.00695081 0)
(0.206236 0.00663307 0)
(0.2066 0.0063107 0)
(0.206904 0.00599418 0)
(0.207155 0.00569101 0)
(0.207361 0.00540599 0)
(0.20753 0.00514163 0)
(0.207668 0.00489868 0)
(0.207782 0.00467665 0)
(0.207876 0.00447426 0)
(0.207953 0.00428981 0)
(0.208016 0.0041214 0)
(0.208067 0.00396719 0)
(0.208107 0.00382545 0)
(0.208137 0.00369463 0)
(0.208157 0.00357337 0)
(0.208168 0.00346053 0)
(0.20817 0.00335513 0)
(0.208163 0.00325635 0)
(0.208148 0.00316349 0)
(0.208123 0.00307595 0)
(0.20809 0.00299325 0)
(0.208047 0.00291494 0)
(0.207996 0.00284064 0)
(0.207936 0.00277003 0)
(0.207867 0.00270281 0)
(0.20779 0.00263871 0)
(0.207703 0.00257751 0)
(0.207608 0.00251898 0)
(0.207504 0.00246293 0)
(0.207391 0.00240919 0)
(0.20727 0.0023576 0)
(0.20714 0.002308 0)
(0.207001 0.00226027 0)
(0.206854 0.00221428 0)
(0.206699 0.00216991 0)
(0.206535 0.00212708 0)
(0.206363 0.00208567 0)
(0.206183 0.0020456 0)
(0.205995 0.0020068 0)
(0.205799 0.00196918 0)
(0.205596 0.00193269 0)
(0.205384 0.00189725 0)
(0.205165 0.00186281 0)
(0.204939 0.00182932 0)
(0.204706 0.00179672 0)
(0.204465 0.00176498 0)
(0.204217 0.00173405 0)
(0.203963 0.00170388 0)
(0.203702 0.00167446 0)
(0.203434 0.00164573 0)
(0.20316 0.00161768 0)
(0.20288 0.00159027 0)
(0.202593 0.00156348 0)
(0.202301 0.00153728 0)
(0.202003 0.00151165 0)
(0.201699 0.00148656 0)
(0.20139 0.001462 0)
(0.201075 0.00143796 0)
(0.200756 0.0014144 0)
(0.200431 0.00139132 0)
(0.200102 0.00136871 0)
(0.199767 0.00134654 0)
(0.199429 0.0013248 0)
(0.199085 0.00130348 0)
(0.198738 0.00128258 0)
(0.198387 0.00126207 0)
(0.198031 0.00124195 0)
(0.197672 0.00122221 0)
(0.197309 0.00120285 0)
(0.196943 0.00118384 0)
(0.196573 0.00116519 0)
(0.1962 0.00114688 0)
(0.195824 0.00112892 0)
(0.195444 0.00111129 0)
(0.195062 0.00109398 0)
(0.194678 0.001077 0)
(0.19429 0.00106033 0)
(0.1939 0.00104397 0)
(0.193508 0.00102791 0)
(0.193113 0.00101216 0)
(0.192717 0.000996689 0)
(0.192318 0.000981513 0)
(0.191917 0.000966639 0)
(0.191515 0.000952108 0)
(0.191111 0.000938045 0)
(0.190706 0.000924745 0)
(0.190304 0.000912673 0)
(0.189912 0.000900676 0)
(0.189454 0.000870819 0)
(0.198999 0.00579958 0)
(0.199603 0.00638692 0)
(0.200301 0.006843 0)
(0.20105 0.00716112 0)
(0.201814 0.00735276 0)
(0.202566 0.00743212 0)
(0.203289 0.00741274 0)
(0.203968 0.00730943 0)
(0.204593 0.00713863 0)
(0.205157 0.00691712 0)
(0.205659 0.00666081 0)
(0.206098 0.00638392 0)
(0.20648 0.00609859 0)
(0.20681 0.00581456 0)
(0.207095 0.00553908 0)
(0.20734 0.0052771 0)
(0.207554 0.00503154 0)
(0.207741 0.00480375 0)
(0.207907 0.00459388 0)
(0.208057 0.00440125 0)
(0.208193 0.00422472 0)
(0.208319 0.00406288 0)
(0.208436 0.00391425 0)
(0.208545 0.00377741 0)
(0.208648 0.00365101 0)
(0.208745 0.00353388 0)
(0.208836 0.00342496 0)
(0.208923 0.00332336 0)
(0.209004 0.0032283 0)
(0.20908 0.00313912 0)
(0.209151 0.00305524 0)
(0.209218 0.00297617 0)
(0.209279 0.00290149 0)
(0.209335 0.00283081 0)
(0.209386 0.00276381 0)
(0.209431 0.00270018 0)
(0.209471 0.00263967 0)
(0.209506 0.00258204 0)
(0.209535 0.00252706 0)
(0.209559 0.00247454 0)
(0.209577 0.0024243 0)
(0.209589 0.00237618 0)
(0.209596 0.00233003 0)
(0.209596 0.00228571 0)
(0.209591 0.00224309 0)
(0.20958 0.00220206 0)
(0.209563 0.0021625 0)
(0.209539 0.00212433 0)
(0.20951 0.00208745 0)
(0.209474 0.00205177 0)
(0.209433 0.00201723 0)
(0.209385 0.00198375 0)
(0.209331 0.00195126 0)
(0.209271 0.00191971 0)
(0.209205 0.00188904 0)
(0.209133 0.0018592 0)
(0.209054 0.00183014 0)
(0.208969 0.00180183 0)
(0.208879 0.00177421 0)
(0.208782 0.00174725 0)
(0.208679 0.00172092 0)
(0.20857 0.00169519 0)
(0.208455 0.00167003 0)
(0.208334 0.00164541 0)
(0.208208 0.00162131 0)
(0.208075 0.00159769 0)
(0.207937 0.00157456 0)
(0.207793 0.00155187 0)
(0.207643 0.00152962 0)
(0.207488 0.00150778 0)
(0.207327 0.00148635 0)
(0.207161 0.0014653 0)
(0.206989 0.00144463 0)
(0.206812 0.00142432 0)
(0.20663 0.00140436 0)
(0.206443 0.00138474 0)
(0.20625 0.00136545 0)
(0.206053 0.00134648 0)
(0.20585 0.00132783 0)
(0.205643 0.00130948 0)
(0.205431 0.00129143 0)
(0.205215 0.00127366 0)
(0.204994 0.00125619 0)
(0.204768 0.00123899 0)
(0.204538 0.00122207 0)
(0.204304 0.00120542 0)
(0.204065 0.00118904 0)
(0.203822 0.00117292 0)
(0.203575 0.00115705 0)
(0.203325 0.00114144 0)
(0.20307 0.00112608 0)
(0.202811 0.00111095 0)
(0.202549 0.00109607 0)
(0.202283 0.00108143 0)
(0.202014 0.00106704 0)
(0.201742 0.00105295 0)
(0.201467 0.00103916 0)
(0.201193 0.00102526 0)
(0.200924 0.00100782 0)
(0.200604 0.000967402 0)
(0.199393 0.00546634 0)
(0.19993 0.00597743 0)
(0.200547 0.0063877 0)
(0.201214 0.00668622 0)
(0.201903 0.00687688 0)
(0.20259 0.00696891 0)
(0.203257 0.00697287 0)
(0.20389 0.00690074 0)
(0.20448 0.00676604 0)
(0.205019 0.00658288 0)
(0.205506 0.00636494 0)
(0.20594 0.00612472 0)
(0.206324 0.00587308 0)
(0.206661 0.00561895 0)
(0.206958 0.00536924 0)
(0.20722 0.00512891 0)
(0.207453 0.00490116 0)
(0.207662 0.00468777 0)
(0.207851 0.0044894 0)
(0.208024 0.00430592 0)
(0.208186 0.00413666 0)
(0.208337 0.00398066 0)
(0.208481 0.00383679 0)
(0.208619 0.00370392 0)
(0.208751 0.00358093 0)
(0.20888 0.0034668 0)
(0.209004 0.00336062 0)
(0.209126 0.00326157 0)
(0.209244 0.00316895 0)
(0.209359 0.00308212 0)
(0.209471 0.00300056 0)
(0.209581 0.00292378 0)
(0.209688 0.00285138 0)
(0.209792 0.00278298 0)
(0.209893 0.00271827 0)
(0.209992 0.00265695 0)
(0.210088 0.00259875 0)
(0.210181 0.00254344 0)
(0.21027 0.00249081 0)
(0.210357 0.00244066 0)
(0.210441 0.0023928 0)
(0.210521 0.00234707 0)
(0.210598 0.00230333 0)
(0.210672 0.00226143 0)
(0.210743 0.00222124 0)
(0.21081 0.00218264 0)
(0.210873 0.00214553 0)
(0.210933 0.00210981 0)
(0.210989 0.00207537 0)
(0.211041 0.00204215 0)
(0.211089 0.00201005 0)
(0.211133 0.00197901 0)
(0.211174 0.00194896 0)
(0.21121 0.00191983 0)
(0.211242 0.00189157 0)
(0.21127 0.00186413 0)
(0.211294 0.00183745 0)
(0.211314 0.00181149 0)
(0.211329 0.00178621 0)
(0.21134 0.00176156 0)
(0.211347 0.00173753 0)
(0.211349 0.00171406 0)
(0.211346 0.00169113 0)
(0.21134 0.00166871 0)
(0.211328 0.00164677 0)
(0.211313 0.0016253 0)
(0.211292 0.00160426 0)
(0.211267 0.00158364 0)
(0.211238 0.00156342 0)
(0.211204 0.00154357 0)
(0.211166 0.00152409 0)
(0.211122 0.00150496 0)
(0.211075 0.00148616 0)
(0.211022 0.00146768 0)
(0.210966 0.0014495 0)
(0.210904 0.00143163 0)
(0.210838 0.00141404 0)
(0.210768 0.00139673 0)
(0.210693 0.00137969 0)
(0.210613 0.00136291 0)
(0.210529 0.00134639 0)
(0.210441 0.00133011 0)
(0.210348 0.00131408 0)
(0.210251 0.00129828 0)
(0.210149 0.00128271 0)
(0.210043 0.00126738 0)
(0.209933 0.00125226 0)
(0.209818 0.00123736 0)
(0.209699 0.00122268 0)
(0.209576 0.00120821 0)
(0.209449 0.00119395 0)
(0.209317 0.00117988 0)
(0.209182 0.00116601 0)
(0.209042 0.00115232 0)
(0.208898 0.00113879 0)
(0.208751 0.00112537 0)
(0.208601 0.00111182 0)
(0.20845 0.00109711 0)
(0.2083 0.00107685 0)
(0.208113 0.00103386 0)
(0.199746 0.0051542 0)
(0.200228 0.00559958 0)
(0.200778 0.00596647 0)
(0.201375 0.00624304 0)
(0.201998 0.00642862 0)
(0.202625 0.00652848 0)
(0.203239 0.00655042 0)
(0.203828 0.00650395 0)
(0.204383 0.0064 0)
(0.204896 0.00625032 0)
(0.205365 0.00606653 0)
(0.205789 0.00585948 0)
(0.206169 0.00563879 0)
(0.206508 0.00541258 0)
(0.206811 0.00518731 0)
(0.207082 0.00496783 0)
(0.207325 0.00475751 0)
(0.207545 0.00455841 0)
(0.207747 0.00437162 0)
(0.207933 0.00419742 0)
(0.208107 0.00403559 0)
(0.208272 0.00388551 0)
(0.208429 0.00374643 0)
(0.208579 0.00361745 0)
(0.208725 0.00349769 0)
(0.208867 0.00338632 0)
(0.209005 0.00328253 0)
(0.209141 0.00318561 0)
(0.209274 0.00309492 0)
(0.209405 0.0030099 0)
(0.209534 0.00293004 0)
(0.209661 0.0028549 0)
(0.209786 0.00278409 0)
(0.20991 0.00271725 0)
(0.210032 0.00265407 0)
(0.210153 0.00259427 0)
(0.210272 0.0025376 0)
(0.210389 0.00248381 0)
(0.210504 0.00243271 0)
(0.210618 0.00238409 0)
(0.210731 0.00233777 0)
(0.210842 0.00229361 0)
(0.210951 0.00225143 0)
(0.211058 0.00221111 0)
(0.211163 0.00217253 0)
(0.211267 0.00213555 0)
(0.211368 0.00210007 0)
(0.211468 0.00206599 0)
(0.211565 0.00203322 0)
(0.211661 0.00200168 0)
(0.211754 0.00197127 0)
(0.211846 0.00194193 0)
(0.211935 0.00191359 0)
(0.212021 0.00188619 0)
(0.212106 0.00185966 0)
(0.212188 0.00183396 0)
(0.212267 0.00180903 0)
(0.212344 0.00178482 0)
(0.212418 0.0017613 0)
(0.21249 0.00173842 0)
(0.212559 0.00171615 0)
(0.212626 0.00169444 0)
(0.212689 0.00167328 0)
(0.21275 0.00165262 0)
(0.212808 0.00163245 0)
(0.212863 0.00161273 0)
(0.212915 0.00159344 0)
(0.212964 0.00157456 0)
(0.21301 0.00155607 0)
(0.213053 0.00153795 0)
(0.213093 0.00152018 0)
(0.21313 0.00150275 0)
(0.213163 0.00148564 0)
(0.213194 0.00146884 0)
(0.213221 0.00145233 0)
(0.213244 0.0014361 0)
(0.213265 0.00142015 0)
(0.213282 0.00140445 0)
(0.213296 0.00138901 0)
(0.213306 0.00137381 0)
(0.213313 0.00135884 0)
(0.213316 0.00134411 0)
(0.213317 0.00132959 0)
(0.213313 0.00131529 0)
(0.213306 0.0013012 0)
(0.213296 0.00128731 0)
(0.213282 0.00127363 0)
(0.213265 0.00126014 0)
(0.213244 0.00124685 0)
(0.213219 0.00123374 0)
(0.213191 0.00122082 0)
(0.21316 0.00120806 0)
(0.213124 0.00119547 0)
(0.213086 0.00118302 0)
(0.213044 0.00117065 0)
(0.212998 0.00115824 0)
(0.21295 0.00114538 0)
(0.2129 0.00113074 0)
(0.212848 0.00111011 0)
(0.212773 0.00107067 0)
(0.200062 0.00485873 0)
(0.2005 0.0052476 0)
(0.200994 0.00557449 0)
(0.201531 0.00582828 0)
(0.202095 0.00600585 0)
(0.202667 0.00610963 0)
(0.203233 0.00614501 0)
(0.203781 0.00611934 0)
(0.204302 0.00604137 0)
(0.204789 0.00592071 0)
(0.205239 0.00576713 0)
(0.205651 0.00558996 0)
(0.206025 0.00539763 0)
(0.206363 0.00519743 0)
(0.206669 0.00499535 0)
(0.206944 0.00479602 0)
(0.207194 0.00460283 0)
(0.207423 0.00441806 0)
(0.207633 0.00424309 0)
(0.207828 0.00407854 0)
(0.208012 0.00392454 0)
(0.208185 0.00378081 0)
(0.20835 0.00364689 0)
(0.208509 0.00352213 0)
(0.208662 0.00340588 0)
(0.208811 0.00329744 0)
(0.208957 0.00319616 0)
(0.2091 0.00310142 0)
(0.20924 0.00301267 0)
(0.209378 0.00292938 0)
(0.209514 0.00285112 0)
(0.209649 0.00277746 0)
(0.209782 0.00270804 0)
(0.209914 0.00264253 0)
(0.210044 0.00258062 0)
(0.210173 0.00252205 0)
(0.210301 0.00246657 0)
(0.210428 0.00241395 0)
(0.210554 0.002364 0)
(0.210679 0.00231652 0)
(0.210803 0.00227133 0)
(0.210926 0.00222829 0)
(0.211048 0.00218723 0)
(0.211168 0.00214804 0)
(0.211288 0.00211057 0)
(0.211407 0.00207471 0)
(0.211524 0.00204037 0)
(0.211641 0.00200742 0)
(0.211756 0.0019758 0)
(0.211871 0.0019454 0)
(0.211984 0.00191615 0)
(0.212096 0.00188798 0)
(0.212207 0.00186081 0)
(0.212317 0.00183459 0)
(0.212425 0.00180925 0)
(0.212532 0.00178475 0)
(0.212638 0.00176103 0)
(0.212742 0.00173804 0)
(0.212845 0.00171574 0)
(0.212947 0.0016941 0)
(0.213047 0.00167306 0)
(0.213146 0.00165261 0)
(0.213243 0.0016327 0)
(0.213338 0.0016133 0)
(0.213432 0.00159439 0)
(0.213525 0.00157595 0)
(0.213615 0.00155794 0)
(0.213704 0.00154034 0)
(0.213791 0.00152314 0)
(0.213877 0.00150631 0)
(0.21396 0.00148984 0)
(0.214042 0.00147371 0)
(0.214122 0.00145789 0)
(0.214199 0.00144239 0)
(0.214275 0.00142718 0)
(0.214349 0.00141226 0)
(0.214421 0.0013976 0)
(0.21449 0.00138321 0)
(0.214558 0.00136906 0)
(0.214623 0.00135516 0)
(0.214687 0.00134149 0)
(0.214748 0.00132804 0)
(0.214806 0.00131481 0)
(0.214863 0.00130179 0)
(0.214917 0.00128898 0)
(0.214969 0.00127637 0)
(0.215018 0.00126395 0)
(0.215065 0.00125172 0)
(0.215109 0.00123969 0)
(0.215151 0.00122783 0)
(0.215191 0.00121614 0)
(0.215228 0.00120462 0)
(0.215262 0.00119325 0)
(0.215294 0.00118198 0)
(0.215323 0.00117076 0)
(0.21535 0.0011594 0)
(0.215374 0.00114741 0)
(0.215397 0.0011335 0)
(0.215415 0.00111427 0)
(0.215424 0.00108182 0)