/*--------------------------------*- C++ -*----------------------------------*\
| =========                 |                                                 |
| \\      /  F ield         | OpenFOAM: The Open Source CFD Toolbox           |
|  \\    /   O peration     | Version:  2.3.0                                 |
|   \\  /    A nd           | Web:      www.OpenFOAM.org                      |
|    \\/     M anipulation  |                                                 |
\*---------------------------------------------------------------------------*/
FoamFile
{
    version     2.0;
    format      ascii;
    class       volScalarField;
    location    "0.35";
    object      p;
}
// * * * * * * * * * * * * * * * * * * * * * * * * * * * * * * * * * * * * * //

dimensions      [0 2 -2 0 0 0 0];

internalField   nonuniform List<scalar> 
2000
(
0.00207508
0.00150173
0.00103762
0.000705913
0.000434286
0.000192937
-1.78002e-05
-0.000193234
-0.000331898
-0.000435055
-0.000505752
-0.000548385
-0.00056822
-0.000570745
-0.000561082
-0.000543576
-0.000521625
-0.000497687
-0.000473397
-0.000449746
-0.000427258
-0.000406145
-0.000386429
-0.000368032
-0.000350835
-0.000334709
-0.000319535
-0.000305214
-0.000291667
-0.000278832
-0.000266665
-0.00025513
-0.0002442
-0.000233855
-0.000224075
-0.000214846
-0.00020615
-0.000197973
-0.000190298
-0.000183108
-0.000176388
-0.000170118
-0.000164282
-0.000158861
-0.000153837
-0.000149189
-0.000144899
-0.000140948
-0.000137316
-0.000133982
-0.000130927
-0.00012813
-0.000125569
-0.000123224
-0.000121072
-0.000119091
-0.000117257
-0.000115547
-0.000113934
-0.000112395
-0.000110901
-0.000109427
-0.000107943
-0.000106421
-0.000104828
-0.000103128
-0.000101277
-9.92242e-05
-9.69027e-05
-9.42347e-05
-9.11338e-05
-8.75126e-05
-8.33004e-05
-7.84562e-05
-7.30676e-05
-6.72019e-05
-6.10427e-05
-5.47613e-05
-4.85025e-05
-4.24272e-05
-3.66517e-05
-3.1264e-05
-2.63292e-05
-2.18816e-05
-1.79339e-05
-1.44804e-05
-1.15015e-05
-8.96738e-06
-6.84136e-06
-5.08324e-06
-3.65147e-06
-2.50559e-06
-1.60722e-06
-9.21625e-07
-4.17559e-07
-6.76472e-08
1.5279e-07
2.68763e-07
3.21159e-07
5.31799e-07
0.00178595
0.00138658
0.0010118
0.000714074
0.000457892
0.000224609
1.75399e-05
-0.000156936
-0.000296253
-0.000401071
-0.000474072
-0.000519389
-0.000542071
-0.000547442
-0.000540503
-0.00052552
-0.000505845
-0.000483917
-0.000461372
-0.000439215
-0.000417996
-0.000397953
-0.00037914
-0.000361507
-0.000344958
-0.000329384
-0.000314686
-0.000300778
-0.000287592
-0.000275076
-0.00026319
-0.000251906
-0.000241201
-0.000231059
-0.000221463
-0.0002124
-0.000203856
-0.000195818
-0.000188271
-0.0001812
-0.000174589
-0.000168422
-0.000162681
-0.000157349
-0.000152407
-0.000147838
-0.000143623
-0.000139742
-0.000136177
-0.000132907
-0.000129913
-0.000127174
-0.00012467
-0.000122379
-0.000120279
-0.000118349
-0.000116564
-0.000114901
-0.000113335
-0.00011184
-0.000110391
-0.00010896
-0.000107518
-0.000106037
-0.000104485
-0.000102825
-0.000101016
-9.90052e-05
-9.67287e-05
-9.41083e-05
-9.10552e-05
-8.74797e-05
-8.3306e-05
-7.85309e-05
-7.31737e-05
-6.73152e-05
-6.11558e-05
-5.48737e-05
-4.86105e-05
-4.25315e-05
-3.67508e-05
-3.13562e-05
-2.64139e-05
-2.19586e-05
-1.80032e-05
-1.45426e-05
-1.15569e-05
-9.01673e-06
-6.88529e-06
-5.12238e-06
-3.6864e-06
-2.53688e-06
-1.63537e-06
-9.47129e-07
-4.40901e-07
-8.93949e-08
1.31759e-07
2.46868e-07
2.97389e-07
5.48526e-07
0.00156321
0.00127872
0.000969768
0.000700119
0.00046223
0.000244998
5.0506e-05
-0.000115766
-0.000251043
-0.000355385
-0.000430703
-0.00048023
-0.000508132
-0.000518978
-0.000517208
-0.000506747
-0.000490796
-0.000471786
-0.00045144
-0.000430895
-0.000410834
-0.000391623
-0.000373416
-0.000356239
-0.000340051
-0.00032478
-0.000310349
-0.000296685
-0.000283728
-0.000271429
-0.000259751
-0.000248665
-0.000238149
-0.000228185
-0.000218759
-0.000209856
-0.000201462
-0.000193564
-0.000186149
-0.000179201
-0.000172705
-0.000166645
-0.000161004
-0.000155766
-0.000150913
-0.000146427
-0.00014229
-0.000138482
-0.000134986
-0.000131783
-0.000128851
-0.000126172
-0.000123725
-0.000121489
-0.000119442
-0.000117562
-0.000115826
-0.000114211
-0.000112692
-0.000111242
-0.000109837
-0.000108449
-0.000107051
-0.000105612
-0.000104102
-0.000102485
-0.000100719
-9.87522e-05
-9.6521e-05
-9.39469e-05
-9.09401e-05
-8.74066e-05
-8.32583e-05
-7.8449e-05
-7.3088e-05
-6.72941e-05
-6.11828e-05
-5.49219e-05
-4.86586e-05
-4.25795e-05
-3.67966e-05
-3.14007e-05
-2.64582e-05
-2.20018e-05
-1.8045e-05
-1.45823e-05
-1.15945e-05
-9.05191e-06
-6.91814e-06
-5.15295e-06
-3.71476e-06
-2.56309e-06
-1.65949e-06
-9.69166e-07
-4.60836e-07
-1.06998e-07
1.17483e-07
2.40389e-07
3.18996e-07
6.5957e-07
0.00136293
0.00115371
0.00090356
0.000668649
0.000456078
0.000260892
8.42932e-05
-6.9267e-05
-0.000196856
-0.000297888
-0.000373478
-0.000425957
-0.000458548
-0.000474963
-0.00047896
-0.000473987
-0.000462965
-0.000448204
-0.000431416
-0.00041379
-0.000396097
-0.000378798
-0.000362136
-0.000346218
-0.000331065
-0.000316657
-0.000302956
-0.000289917
-0.000277503
-0.000265681
-0.000254425
-0.000243716
-0.000233538
-0.000223879
-0.000214728
-0.000206075
-0.00019791
-0.000190221
-0.000182997
-0.000176225
-0.000169891
-0.000163981
-0.00015848
-0.000153372
-0.00014864
-0.000144267
-0.000140236
-0.000136528
-0.000133127
-0.000130012
-0.000127166
-0.000124567
-0.000122197
-0.000120034
-0.000118058
-0.000116246
-0.000114575
-0.000113023
-0.000111565
-0.000110176
-0.000108829
-0.000107499
-0.000106157
-0.000104775
-0.00010332
-0.000101758
-0.000100047
-9.81351e-05
-9.5957e-05
-9.34335e-05
-9.04735e-05
-8.69833e-05
-8.28848e-05
-7.81413e-05
-7.27564e-05
-6.68894e-05
-6.08373e-05
-5.47031e-05
-4.85411e-05
-4.25348e-05
-3.67912e-05
-3.14198e-05
-2.64953e-05
-2.2052e-05
-1.81049e-05
-1.46485e-05
-1.16637e-05
-9.12188e-06
-6.98691e-06
-5.21914e-06
-3.77739e-06
-2.62145e-06
-1.71308e-06
-1.01754e-06
-5.03405e-07
-1.42507e-07
9.25385e-08
2.36948e-07
3.72273e-07
8.396e-07
0.00117869
0.00102325
0.000826989
0.000629991
0.000444927
0.000272469
0.000114481
-2.51719e-05
-0.000143521
-0.000239511
-0.000313645
-0.000367541
-0.000403625
-0.000424815
-0.000434177
-0.00043462
-0.000428695
-0.000418497
-0.000405645
-0.000391327
-0.000376366
-0.000361301
-0.000346466
-0.000332048
-0.000318142
-0.000304788
-0.000291991
-0.000279745
-0.000268035
-0.000256847
-0.000246167
-0.000235986
-0.000226293
-0.00021708
-0.000208342
-0.000200069
-0.000192255
-0.00018489
-0.000177964
-0.000171467
-0.000165387
-0.000159711
-0.000154425
-0.000149516
-0.000144967
-0.000140764
-0.00013689
-0.000133328
-0.000130061
-0.000127072
-0.000124342
-0.000121852
-0.000119585
-0.000117518
-0.000115633
-0.000113907
-0.00011232
-0.000110847
-0.000109465
-0.000108149
-0.000106875
-0.000105615
-0.000104343
-0.000103029
-0.000101642
-0.000100147
-9.85017e-05
-9.66528e-05
-9.45357e-05
-9.20713e-05
-8.91701e-05
-8.57422e-05
-8.17161e-05
-7.70648e-05
-7.18264e-05
-6.61445e-05
-6.01239e-05
-5.39457e-05
-4.78958e-05
-4.20695e-05
-3.64914e-05
-3.1252e-05
-2.64221e-05
-2.20448e-05
-1.81459e-05
-1.47241e-05
-1.17631e-05
-9.23603e-06
-7.10881e-06
-5.34333e-06
-3.89976e-06
-2.73893e-06
-1.82343e-06
-1.11893e-06
-5.94042e-07
-2.19667e-07
3.45992e-08
2.12245e-07
4.14559e-07
9.8737e-07
0.00101591
0.000898425
0.000746192
0.000584515
0.000426381
0.000276211
0.000136938
1.1992e-05
-9.58543e-05
-0.000185291
-0.00025635
-0.000310058
-0.000348161
-0.00037287
-0.000386602
-0.000391733
-0.000390424
-0.000384513
-0.000375485
-0.000364482
-0.000352341
-0.00033965
-0.000326806
-0.000314065
-0.000301582
-0.000289449
-0.000277716
-0.000266408
-0.000255537
-0.000245106
-0.000235117
-0.000225567
-0.000216456
-0.000207782
-0.00019954
-0.000191728
-0.00018434
-0.00017737
-0.00017081
-0.000164652
-0.000158885
-0.000153499
-0.000148482
-0.00014382
-0.000139501
-0.00013551
-0.000131831
-0.000128451
-0.000125352
-0.000122518
-0.000119932
-0.000117576
-0.000115432
-0.000113481
-0.000111704
-0.00011008
-0.000108587
-0.000107205
-0.000105909
-0.000104677
-0.000103483
-0.000102302
-0.000101107
-9.98694e-05
-9.85576e-05
-9.7136e-05
-9.55621e-05
-9.37838e-05
-9.17376e-05
-8.93478e-05
-8.65313e-05
-8.32072e-05
-7.93147e-05
-7.48359e-05
-6.98134e-05
-6.43625e-05
-5.86144e-05
-5.27494e-05
-4.68912e-05
-4.11447e-05
-3.5703e-05
-3.06627e-05
-2.60235e-05
-2.18012e-05
-1.8021e-05
-1.46878e-05
-1.17926e-05
-9.31317e-06
-7.2188e-06
-5.47428e-06
-4.04225e-06
-2.8856e-06
-1.9686e-06
-1.258e-06
-7.22894e-07
-3.33705e-07
-5.79477e-08
1.5187e-07
3.96867e-07
9.54629e-07
0.000871986
0.000780979
0.000662822
0.000532323
0.000400066
0.000271842
0.000151274
4.14914e-05
-5.50012e-05
-0.000136768
-0.000203461
-0.000255602
-0.000294354
-0.00032132
-0.000338336
-0.000347285
-0.000349941
-0.000347876
-0.000342406
-0.000334588
-0.000325235
-0.00031495
-0.000304169
-0.000293194
-0.000282229
-0.000271412
-0.00026083
-0.000250542
-0.000240583
-0.000230977
-0.000221739
-0.00021288
-0.000204406
-0.000196321
-0.000188627
-0.000181323
-0.000174407
-0.000167875
-0.000161722
-0.000155942
-0.000150525
-0.000145463
-0.000140745
-0.00013636
-0.000132296
-0.00012854
-0.000125078
-0.000121896
-0.000118979
-0.000116312
-0.00011388
-0.000111664
-0.000109649
-0.000107817
-0.000106148
-0.000104625
-0.000103226
-0.000101931
-0.000100718
-9.95649e-05
-9.84471e-05
-9.73401e-05
-9.62178e-05
-9.5052e-05
-9.38118e-05
-9.24618e-05
-9.09603e-05
-8.92571e-05
-8.72928e-05
-8.49985e-05
-8.23012e-05
-7.91325e-05
-7.54443e-05
-7.12259e-05
-6.65183e-05
-6.14179e-05
-5.60466e-05
-5.05475e-05
-4.50484e-05
-3.96772e-05
-3.45419e-05
-2.9699e-05
-2.52419e-05
-2.1224e-05
-1.76283e-05
-1.4444e-05
-1.16645e-05
-9.27317e-06
-7.24437e-06
-5.54683e-06
-4.14668e-06
-3.0098e-06
-2.10294e-06
-1.39469e-06
-8.55368e-07
-4.55947e-07
-1.64335e-07
6.35087e-08
3.04349e-07
6.99294e-07
0.000743562
0.000671792
0.000579872
0.000475996
0.000367648
0.000260335
0.000157846
6.30851e-05
-2.16895e-05
-9.50185e-05
-0.000156293
-0.000205636
-0.00024374
-0.000271699
-0.000290855
-0.000302647
-0.000308487
-0.000309674
-0.00030734
-0.000302428
-0.000295698
-0.00028774
-0.000279001
-0.000269812
-0.000260411
-0.000250969
-0.000241607
-0.000232407
-0.00022343
-0.000214717
-0.000206296
-0.00019819
-0.000190412
-0.000182972
-0.000175877
-0.00016913
-0.000162731
-0.000156681
-0.000150975
-0.000145609
-0.000140576
-0.000135869
-0.000131478
-0.000127394
-0.000123607
-0.000120105
-0.000116874
-0.000113904
-0.00011118
-0.000108688
-0.000106413
-0.000104341
-0.000102455
-0.00010074
-9.91766e-05
-9.77484e-05
-9.64364e-05
-9.52208e-05
-9.40815e-05
-9.29969e-05
-9.19446e-05
-9.09012e-05
-8.98414e-05
-8.87382e-05
-8.75616e-05
-8.62775e-05
-8.48466e-05
-8.32224e-05
-8.13514e-05
-7.9174e-05
-7.66291e-05
-7.3662e-05
-7.02363e-05
-6.63474e-05
-6.20318e-05
-5.73684e-05
-5.24615e-05
-4.74311e-05
-4.23945e-05
-3.74589e-05
-3.27187e-05
-2.82488e-05
-2.41054e-05
-2.03243e-05
-1.69381e-05
-1.3947e-05
-1.13284e-05
-9.06529e-06
-7.13638e-06
-5.51468e-06
-4.17028e-06
-3.07255e-06
-2.19134e-06
-1.49771e-06
-9.64028e-07
-5.63129e-07
-2.66032e-07
-3.80952e-08
1.62766e-07
3.54595e-07
0.000633486
0.000575714
0.000503174
0.000420372
0.000332246
0.000243322
0.000157094
7.62097e-05
2.68802e-06
-6.20765e-05
-0.000117344
-0.000162972
-0.000199306
-0.000227051
-0.000247154
-0.000260686
-0.000268746
-0.000272383
-0.000272544
-0.000270049
-0.000265582
-0.000259697
-0.00025283
-0.000245319
-0.00023742
-0.000229322
-0.000221168
-0.000213062
-0.000205079
-0.000197275
-0.000189692
-0.000182359
-0.000175297
-0.000168524
-0.000162049
-0.00015588
-0.00015002
-0.00014447
-0.000139229
-0.000134295
-0.000129663
-0.000125326
-0.000121277
-0.000117508
-0.00011401
-0.000110772
-0.000107784
-0.000105033
-0.000102509
-0.000100197
-9.80851e-05
-9.6159e-05
-9.44042e-05
-9.28056e-05
-9.13473e-05
-9.00129e-05
-8.87851e-05
-8.76459e-05
-8.65763e-05
-8.55566e-05
-8.45659e-05
-8.35821e-05
-8.25815e-05
-8.15386e-05
-8.04251e-05
-7.92093e-05
-7.78548e-05
-7.63201e-05
-7.45586e-05
-7.252e-05
-7.01545e-05
-6.74193e-05
-6.4288e-05
-6.07596e-05
-5.68659e-05
-5.26709e-05
-4.82617e-05
-4.37381e-05
-3.92005e-05
-3.47422e-05
-3.04476e-05
-2.6384e-05
-2.2602e-05
-1.91382e-05
-1.60131e-05
-1.32379e-05
-1.08063e-05
-8.69841e-06
-6.89419e-06
-5.37043e-06
-4.10116e-06
-3.05941e-06
-2.21825e-06
-1.55161e-06
-1.03444e-06
-6.42387e-07
-3.51004e-07
-1.35915e-07
1.90784e-08
7.93785e-08
0.00053638
0.000489586
0.000432036
0.000366168
0.000295111
0.000222301
0.000150696
8.26064e-05
1.98002e-05
-3.6447e-05
-8.53561e-05
-0.00012662
-0.000160336
-0.000186914
-0.000206991
-0.000221337
-0.000230782
-0.000236149
-0.000238213
-0.000237664
-0.0002351
-0.000231023
-0.000225842
-0.000219884
-0.000213407
-0.00020661
-0.000199645
-0.000192628
-0.000185649
-0.000178772
-0.000172049
-0.000165515
-0.000159199
-0.000153121
-0.000147296
-0.000141733
-0.00013644
-0.000131419
-0.000126671
-0.000122196
-0.000117989
-0.000114046
-0.000110362
-0.000106929
-0.000103739
-0.000100784
-9.80532e-05
-9.55376e-05
-9.32259e-05
-9.11067e-05
-8.91681e-05
-8.73973e-05
-8.57815e-05
-8.43068e-05
-8.2959e-05
-8.17231e-05
-8.05835e-05
-7.95236e-05
-7.85263e-05
-7.75736e-05
-7.66461e-05
-7.57237e-05
-7.47845e-05
-7.38049e-05
-7.2759e-05
-7.16178e-05
-7.03489e-05
-6.89158e-05
-6.7279e-05
-6.5397e-05
-6.32301e-05
-6.07456e-05
-5.79246e-05
-5.47686e-05
-5.13047e-05
-4.75849e-05
-4.36802e-05
-3.96729e-05
-3.56472e-05
-3.16834e-05
-2.78537e-05
-2.42178e-05
-2.08224e-05
-1.77008e-05
-1.48728e-05
-1.23469e-05
-1.01237e-05
-8.19145e-06
-6.53143e-06
-5.12346e-06
-3.94537e-06
-2.97377e-06
-2.18508e-06
-1.55624e-06
-1.06514e-06
-6.90657e-07
-4.13052e-07
-2.1616e-07
-9.74938e-08
-9.83875e-08
0.000445896
0.000408371
0.00036312
0.000311421
0.000255184
0.000196866
0.000138791
8.28621e-05
3.05669e-05
-1.69801e-05
-5.90323e-05
-9.52013e-05
-0.00012542
-0.000149882
-0.00016898
-0.00018324
-0.000193261
-0.000199664
-0.000203056
-0.000203998
-0.000202991
-0.000200471
-0.000196803
-0.000192289
-0.000187175
-0.000181656
-0.000175886
-0.000169987
-0.000164051
-0.000158151
-0.000152342
-0.000146666
-0.000141156
-0.000135834
-0.000130719
-0.000125823
-0.000121154
-0.000116718
-0.000112517
-0.000108552
-0.000104819
-0.000101318
-9.80417e-05
-9.49861e-05
-9.21442e-05
-8.95084e-05
-8.70708e-05
-8.48223e-05
-8.27536e-05
-8.08548e-05
-7.91153e-05
-7.75242e-05
-7.60697e-05
-7.47399e-05
-7.3522e-05
-7.24029e-05
-7.13685e-05
-7.04044e-05
-6.94951e-05
-6.86246e-05
-6.77757e-05
-6.69302e-05
-6.60686e-05
-6.51697e-05
-6.42104e-05
-6.31652e-05
-6.20059e-05
-6.07018e-05
-5.922e-05
-5.75274e-05
-5.55932e-05
-5.33931e-05
-5.09141e-05
-4.81593e-05
-4.5151e-05
-4.19308e-05
-3.85554e-05
-3.50907e-05
-3.16059e-05
-2.81677e-05
-2.48366e-05
-2.16644e-05
-1.86917e-05
-1.59486e-05
-1.34538e-05
-1.12165e-05
-9.23778e-06
-7.51076e-06
-6.02165e-06
-4.7537e-06
-3.68825e-06
-2.80556e-06
-2.08556e-06
-1.50845e-06
-1.05533e-06
-7.08562e-07
-4.527e-07
-2.77077e-07
-1.83595e-07
-2.00514e-07
0.000360746
0.000331282
0.000296372
0.000256657
0.000213263
0.000167866
0.000122182
7.76845e-05
3.55625e-05
-3.25938e-06
-3.81191e-05
-6.86155e-05
-9.45903e-05
-0.000116093
-0.000133337
-0.000146657
-0.00015646
-0.000163194
-0.000167312
-0.00016925
-0.000169408
-0.000168146
-0.000165774
-0.000162556
-0.000158712
-0.000154423
-0.000149834
-0.000145062
-0.0001402
-0.00013532
-0.000130478
-0.000125719
-0.000121076
-0.000116575
-0.000112235
-0.00010807
-0.00010409
-0.0001003
-9.67061e-05
-9.33082e-05
-9.01063e-05
-8.70984e-05
-8.42815e-05
-8.16511e-05
-7.9202e-05
-7.69282e-05
-7.4823e-05
-7.2879e-05
-7.10883e-05
-6.94425e-05
-6.79326e-05
-6.65493e-05
-6.52827e-05
-6.41225e-05
-6.30578e-05
-6.20773e-05
-6.1169e-05
-6.03204e-05
-5.95183e-05
-5.87488e-05
-5.7997e-05
-5.72473e-05
-5.64827e-05
-5.56851e-05
-5.48346e-05
-5.39095e-05
-5.28865e-05
-5.17404e-05
-5.0445e-05
-4.89746e-05
-4.73062e-05
-4.54221e-05
-4.33138e-05
-4.09852e-05
-3.84541e-05
-3.5753e-05
-3.29258e-05
-3.00242e-05
-2.71027e-05
-2.42151e-05
-2.14107e-05
-1.87323e-05
-1.62143e-05
-1.38827e-05
-1.17545e-05
-9.83879e-06
-8.13748e-06
-6.64621e-06
-5.35509e-06
-4.25167e-06
-3.32078e-06
-2.54629e-06
-1.91168e-06
-1.40061e-06
-9.97525e-07
-6.88197e-07
-4.60718e-07
-3.0748e-07
-2.2967e-07
-2.40223e-07
0.000279472
0.000257192
0.000231185
0.000201753
0.000169536
0.000135629
0.000101227
6.73981e-05
3.50365e-05
4.86048e-06
-2.25885e-05
-4.69496e-05
-6.80354e-05
-8.58131e-05
-0.000100378
-0.000111923
-0.00012071
-0.000127041
-0.000131237
-0.000133616
-0.000134481
-0.000134111
-0.000132752
-0.000130622
-0.000127903
-0.00012475
-0.00012129
-0.000117628
-0.000113846
-0.000110012
-0.000106179
-0.000102388
-9.8671e-05
-9.50539e-05
-9.15549e-05
-8.81881e-05
-8.49636e-05
-8.18882e-05
-7.89664e-05
-7.62003e-05
-7.35905e-05
-7.11361e-05
-6.88349e-05
-6.6684e-05
-6.46793e-05
-6.28163e-05
-6.10896e-05
-5.94935e-05
-5.80215e-05
-5.66671e-05
-5.54229e-05
-5.42813e-05
-5.32345e-05
-5.2274e-05
-5.13909e-05
-5.0576e-05
-4.98196e-05
-4.91114e-05
-4.84407e-05
-4.7796e-05
-4.71652e-05
-4.65355e-05
-4.58929e-05
-4.52227e-05
-4.45087e-05
-4.37336e-05
-4.28789e-05
-4.1925e-05
-4.08521e-05
-3.96412e-05
-3.82755e-05
-3.6743e-05
-3.50385e-05
-3.31655e-05
-3.1138e-05
-2.89802e-05
-2.67248e-05
-2.44105e-05
-2.20787e-05
-1.97703e-05
-1.75237e-05
-1.53726e-05
-1.33447e-05
-1.1461e-05
-9.73604e-06
-8.17807e-06
-6.78951e-06
-5.56779e-06
-4.50657e-06
-3.59613e-06
-2.82536e-06
-2.18178e-06
-1.65238e-06
-1.22439e-06
-8.85697e-07
-6.25301e-07
-4.34155e-07
-3.06278e-07
-2.40707e-07
-2.3912e-07
0.000200653
0.000184968
0.000166869
0.000146487
0.000124172
0.000100597
7.65339e-05
5.26963e-05
2.96983e-05
8.04954e-06
-1.18509e-05
-2.97195e-05
-4.53871e-05
-5.879e-05
-6.9955e-05
-7.89811e-05
-8.60213e-05
-9.12643e-05
-9.49183e-05
-9.71975e-05
-9.83117e-05
-9.84579e-05
-9.78161e-05
-9.65463e-05
-9.47876e-05
-9.26589e-05
-9.02601e-05
-8.7674e-05
-8.49684e-05
-8.2198e-05
-7.94069e-05
-7.663e-05
-7.38946e-05
-7.12223e-05
-6.86292e-05
-6.61276e-05
-6.37267e-05
-6.14327e-05
-5.92498e-05
-5.71806e-05
-5.52259e-05
-5.33857e-05
-5.16587e-05
-5.00428e-05
-4.85355e-05
-4.71335e-05
-4.58328e-05
-4.46293e-05
-4.35184e-05
-4.24951e-05
-4.1554e-05
-4.06895e-05
-3.98956e-05
-3.91661e-05
-3.84943e-05
-3.78734e-05
-3.7296e-05
-3.67545e-05
-3.62406e-05
-3.5746e-05
-3.52614e-05
-3.47772e-05
-3.42829e-05
-3.37676e-05
-3.32191e-05
-3.26248e-05
-3.19712e-05
-3.12443e-05
-3.04301e-05
-2.95156e-05
-2.84896e-05
-2.73442e-05
-2.60765e-05
-2.46894e-05
-2.31931e-05
-2.16042e-05
-1.99455e-05
-1.82439e-05
-1.65284e-05
-1.48281e-05
-1.31705e-05
-1.15799e-05
-1.00766e-05
-8.67664e-06
-7.39101e-06
-6.22636e-06
-5.18511e-06
-4.26606e-06
-3.46506e-06
-2.7755e-06
-2.19021e-06
-1.70002e-06
-1.29531e-06
-9.66925e-07
-7.06213e-07
-5.05285e-07
-3.57608e-07
-2.58487e-07
-2.05724e-07
-1.96586e-07
0.000121935
0.000112527
0.000101762
8.96886e-05
7.64819e-05
6.25058e-05
4.81888e-05
3.39366e-05
2.01062e-05
7.00061e-06
-5.13652e-06
-1.6125e-05
-2.58491e-05
-3.42538e-05
-4.13378e-05
-4.71438e-05
-5.17486e-05
-5.52531e-05
-5.77731e-05
-5.94308e-05
-6.03486e-05
-6.06439e-05
-6.04258e-05
-5.97929e-05
-5.88321e-05
-5.76188e-05
-5.62172e-05
-5.46812e-05
-5.30553e-05
-5.13759e-05
-4.96727e-05
-4.79693e-05
-4.62843e-05
-4.46325e-05
-4.30253e-05
-4.14712e-05
-3.99768e-05
-3.85466e-05
-3.71838e-05
-3.58903e-05
-3.46671e-05
-3.35143e-05
-3.24315e-05
-3.14175e-05
-3.04708e-05
-2.95894e-05
-2.87711e-05
-2.80134e-05
-2.73133e-05
-2.66677e-05
-2.60735e-05
-2.55271e-05
-2.50247e-05
-2.45625e-05
-2.41363e-05
-2.37419e-05
-2.33746e-05
-2.30296e-05
-2.27018e-05
-2.23859e-05
-2.20761e-05
-2.17664e-05
-2.14502e-05
-2.11207e-05
-2.07703e-05
-2.03912e-05
-1.99752e-05
-1.95139e-05
-1.89988e-05
-1.84224e-05
-1.77783e-05
-1.70619e-05
-1.62719e-05
-1.54103e-05
-1.44831e-05
-1.35003e-05
-1.24752e-05
-1.14238e-05
-1.03635e-05
-9.31148e-06
-8.28454e-06
-7.29752e-06
-6.36299e-06
-5.49087e-06
-4.68827e-06
-3.95956e-06
-3.30656e-06
-2.72889e-06
-2.22429e-06
-1.78831e-06
-1.4177e-06
-1.10681e-06
-8.49487e-07
-6.40233e-07
-4.73835e-07
-3.45502e-07
-2.51217e-07
-1.87885e-07
-1.53327e-07
-1.42477e-07
4.14134e-05
3.82059e-05
3.45375e-05
3.04378e-05
2.59662e-05
2.124e-05
1.6398e-05
1.15734e-05
6.88471e-06
2.43333e-06
-1.6984e-06
-5.44884e-06
-8.77749e-06
-1.1664e-05
-1.41059e-05
-1.61157e-05
-1.77175e-05
-1.89439e-05
-1.98329e-05
-2.04251e-05
-2.07613e-05
-2.08814e-05
-2.08222e-05
-2.06176e-05
-2.02975e-05
-1.9888e-05
-1.94115e-05
-1.88868e-05
-1.83296e-05
-1.77527e-05
-1.71666e-05
-1.65796e-05
-1.59985e-05
-1.54284e-05
-1.48735e-05
-1.43367e-05
-1.38203e-05
-1.33261e-05
-1.28551e-05
-1.2408e-05
-1.19852e-05
-1.15867e-05
-1.12124e-05
-1.08619e-05
-1.05346e-05
-1.02299e-05
-9.94693e-06
-9.68485e-06
-9.44265e-06
-9.21926e-06
-9.01353e-06
-8.82423e-06
-8.65009e-06
-8.48973e-06
-8.34171e-06
-8.20454e-06
-8.07662e-06
-7.95627e-06
-7.84173e-06
-7.73113e-06
-7.62249e-06
-7.51369e-06
-7.40249e-06
-7.28649e-06
-7.16315e-06
-7.02976e-06
-6.88354e-06
-6.72165e-06
-6.54133e-06
-6.34006e-06
-6.11577e-06
-5.86711e-06
-5.59366e-06
-5.29622e-06
-4.97685e-06
-4.63893e-06
-4.28696e-06
-3.92625e-06
-3.5626e-06
-3.20186e-06
-2.84962e-06
-2.5109e-06
-2.18998e-06
-1.89023e-06
-1.61408e-06
-1.36304e-06
-1.13778e-06
-9.38181e-07
-7.63537e-07
-6.13267e-07
-4.84806e-07
-3.76441e-07
-2.86554e-07
-2.13263e-07
-1.54769e-07
-1.09486e-07
-7.6164e-08
-5.41531e-08
-4.44362e-08
-5.24109e-08
6.78812e-05
7.05033e-05
7.64417e-05
8.53457e-05
9.69861e-05
0.000111426
0.000128862
0.000149534
0.000173717
0.000201735
0.000233971
0.000270878
0.000312996
0.000360983
0.000415661
0.000478085
0.000549663
0.000632336
0.000728903
0.000843601
0.000983254
0.00115979
0.00139657
0.00175202
0.00240114
6.76101e-05
7.01444e-05
7.59828e-05
8.47751e-05
9.62877e-05
0.000110579
0.000127842
0.000148312
0.000172258
0.000199997
0.000231904
0.000268418
0.000310066
0.00035748
0.000411448
0.000472975
0.000543384
0.000624479
0.000718815
0.000830152
0.000964284
0.00113055
0.00134428
0.00162725
0.00198198
6.71282e-05
6.95938e-05
7.53318e-05
8.40045e-05
9.5375e-05
0.000109497
0.00012656
0.000146792
0.000170459
0.000197867
0.000229381
0.000265425
0.000306502
0.000353215
0.000406301
0.000466691
0.000535586
0.000614587
0.000705876
0.000812503
0.00093876
0.00109047
0.00127382
0.00148618
0.00167823
6.63858e-05
6.87863e-05
7.44034e-05
8.2922e-05
9.41048e-05
0.000108
0.000124791
0.000144701
0.000167986
0.00019494
0.000225913
0.000261306
0.000301592
0.000347326
0.000399179
0.000457972
0.000524739
0.000600794
0.000687823
0.000787958
0.000903697
0.0010372
0.00118732
0.00133999
0.00144515
6.5314e-05
6.76442e-05
7.31141e-05
8.14362e-05
9.23761e-05
0.000105976
0.000122411
0.000141896
0.000164676
0.000191031
0.000221288
0.000255819
0.000295056
0.000339493
0.00038971
0.00044639
0.000510348
0.000582544
0.000664069
0.000756028
0.000859112
0.00097238
0.00109012
0.00119498
0.0012477
6.38323e-05
6.60838e-05
7.13774e-05
7.94534e-05
9.00843e-05
0.000103305
0.000119281
0.000138218
0.000160344
0.000185923
0.000215252
0.000248668
0.000286549
0.000329314
0.00037743
0.000431414
0.000491821
0.000559211
0.000634041
0.000716411
0.000805472
0.000898163
0.000986792
0.0010553
0.0010764
6.18458e-05
6.40058e-05
6.90876e-05
7.68577e-05
8.70981e-05
9.98366e-05
0.000115229
0.000133466
0.00015476
0.000179348
0.000207496
0.000239498
0.000275666
0.000316329
0.000361825
0.000412482
0.000468576
0.000530254
0.000597371
0.000669175
0.000743725
0.000816892
0.000880903
0.000922904
0.000925384
5.92429e-05
6.12942e-05
6.61206e-05
7.35125e-05
8.32645e-05
9.53982e-05
0.000110056
0.000127412
0.000147659
0.000171004
0.000197677
0.000227917
0.000261965
0.000300051
0.000342372
0.000389057
0.000440107
0.000495289
0.000553957
0.000614753
0.000675151
0.000730831
0.000775035
0.000798412
0.000790368
5.60611e-05
5.79884e-05
6.2522e-05
6.94727e-05
7.86496e-05
9.00687e-05
0.000103858
0.000120175
0.000139187
0.000161072
0.000186019
0.000214212
0.000245819
0.000280972
0.000319733
0.000362055
0.000407706
0.000456164
0.00050645
0.0005569
0.000604862
0.00064639
0.000676094
0.000687488
0.00067428
5.22685e-05
5.40555e-05
5.82551e-05
6.46979e-05
7.32086e-05
8.37986e-05
9.65806e-05
0.000111692
0.000129277
0.000149482
0.000172452
0.000198321
0.000227184
0.000259082
0.000293962
0.000331627
0.00037167
0.000413375
0.000455589
0.000496569
0.000533826
0.000564037
0.000583149
0.000586844
0.000571517
4.75785e-05
4.91977e-05
5.29982e-05
5.88305e-05
6.65372e-05
7.61254e-05
8.76914e-05
0.000101352
0.000117223
0.00013542
0.000156048
0.000179185
0.000204864
0.000233045
0.000263577
0.000296155
0.000330256
0.000365069
0.000399405
0.000431622
0.000459578
0.000480671
0.00049203
0.000490939
0.000475464
4.18457e-05
4.32647e-05
4.65902e-05
5.16936e-05
5.84379e-05
6.68266e-05
7.69386e-05
8.88679e-05
0.000102705
0.000118533
0.000136416
0.00015639
0.000178431
0.00020244
0.000228201
0.000255348
0.000283316
0.000311292
0.000338175
0.00036255
0.00038271
0.000396746
0.000402747
0.000399097
0.000384855
3.49239e-05
3.61054e-05
3.88692e-05
4.31093e-05
4.87124e-05
5.56791e-05
6.40705e-05
7.39579e-05
8.54065e-05
9.84701e-05
0.000113182
0.000129541
0.000147489
0.000166892
0.000187512
0.000208975
0.000230747
0.000252101
0.000272111
0.00028966
0.000303488
0.000312288
0.000314863
0.000310314
0.00029825
2.66806e-05
2.75829e-05
2.96881e-05
3.29157e-05
3.71798e-05
4.24797e-05
4.88588e-05
5.63664e-05
6.5045e-05
7.4925e-05
8.6017e-05
9.82994e-05
0.000111703
0.000126092
0.000141248
0.000156849
0.000172453
0.000187489
0.000201265
0.000212984
0.0002218
0.000226892
0.000227564
0.000223359
0.000214159
1.70198e-05
1.75969e-05
1.89384e-05
2.09926e-05
2.37052e-05
2.70752e-05
3.11286e-05
3.58943e-05
4.13954e-05
4.76458e-05
5.46444e-05
6.23672e-05
7.07567e-05
7.97114e-05
8.90745e-05
9.86241e-05
0.000108066
0.000117035
0.000125099
0.000131787
0.000136615
0.000139139
0.00013901
0.000136028
0.00013018
5.91704e-06
6.12007e-06
6.58927e-06
7.30638e-06
8.25279e-06
9.42826e-06
1.08418e-05
1.25031e-05
1.44197e-05
1.65957e-05
1.90293e-05
2.17104e-05
2.46163e-05
2.77088e-05
3.09297e-05
3.4198e-05
3.74085e-05
4.04321e-05
4.31201e-05
4.53126e-05
4.68504e-05
4.75919e-05
4.74305e-05
4.63112e-05
4.42418e-05
)
;

boundaryField
{
    top
    {
        type            fixedValue;
        value           uniform 0;
    }
    inlet
    {
        type            zeroGradient;
    }
    outlet
    {
        type            fixedValue;
        value           uniform 0;
    }
    plate
    {
        type            zeroGradient;
    }
    symmBound
    {
        type            zeroGradient;
    }
    frontAndBack
    {
        type            empty;
    }
}


// ************************************************************************* //
