/*--------------------------------*- C++ -*----------------------------------*\
| =========                 |                                                 |
| \\      /  F ield         | OpenFOAM: The Open Source CFD Toolbox           |
|  \\    /   O peration     | Version:  2.3.0                                 |
|   \\  /    A nd           | Web:      www.OpenFOAM.org                      |
|    \\/     M anipulation  |                                                 |
\*---------------------------------------------------------------------------*/
FoamFile
{
    version     2.0;
    format      ascii;
    class       surfaceScalarField;
    location    "0.35";
    object      phi;
}
// * * * * * * * * * * * * * * * * * * * * * * * * * * * * * * * * * * * * * //

dimensions      [0 3 -1 0 0 0 0];

internalField   nonuniform List<scalar> 
3859
(
2.80031e-08
2.91576e-09
-3.09189e-08
2.51081e-08
2.89498e-09
2.23927e-08
2.7154e-09
1.98918e-08
2.50098e-09
1.76227e-08
2.2691e-09
1.55971e-08
2.02559e-09
1.38178e-08
1.77924e-09
1.22794e-08
1.53839e-09
1.09693e-08
1.31009e-09
9.86919e-09
1.10016e-09
8.95636e-09
9.12829e-10
8.20583e-09
7.50535e-10
7.59197e-09
6.13852e-10
7.09024e-09
5.01729e-10
6.67834e-09
4.11901e-10
6.33699e-09
3.41356e-10
6.0502e-09
2.86791e-10
5.80522e-09
2.44976e-10
5.59222e-09
2.13e-10
5.40382e-09
1.88402e-10
5.23461e-09
1.69206e-10
5.08071e-09
1.53898e-10
4.93935e-09
1.41362e-10
4.80855e-09
1.30802e-10
4.68688e-09
1.21671e-10
4.57328e-09
1.13601e-10
4.46693e-09
1.06349e-10
4.36717e-09
9.97554e-11
4.27346e-09
9.37169e-11
4.18529e-09
8.8162e-11
4.10226e-09
8.30392e-11
4.02395e-09
7.83084e-11
3.95001e-09
7.39358e-11
3.88012e-09
6.9891e-11
3.81397e-09
6.61461e-11
3.7513e-09
6.26746e-11
3.69185e-09
5.94518e-11
3.63539e-09
5.64545e-11
3.58173e-09
5.36608e-11
3.53068e-09
5.10508e-11
3.48208e-09
4.86061e-11
3.43577e-09
4.63098e-11
3.39162e-09
4.41468e-11
3.34952e-09
4.21031e-11
3.30935e-09
4.01664e-11
3.27102e-09
3.83255e-11
3.23445e-09
3.65701e-11
3.19956e-09
3.48912e-11
3.16628e-09
3.32805e-11
3.13455e-09
3.17306e-11
3.10432e-09
3.02347e-11
3.07553e-09
2.87867e-11
3.04815e-09
2.73811e-11
3.02214e-09
2.60128e-11
2.99746e-09
2.46772e-11
2.97409e-09
2.337e-11
2.952e-09
2.20875e-11
2.93118e-09
2.08262e-11
2.91159e-09
1.95832e-11
2.89324e-09
1.8356e-11
2.87609e-09
1.7143e-11
2.86015e-09
1.59434e-11
2.84539e-09
1.4757e-11
2.83181e-09
1.35836e-11
2.81939e-09
1.24222e-11
2.80812e-09
1.12682e-11
2.79801e-09
1.01111e-11
2.78908e-09
8.9302e-12
2.78138e-09
7.69244e-12
2.77503e-09
6.35302e-12
2.77017e-09
4.85956e-12
2.76703e-09
3.14508e-12
2.76584e-09
1.19186e-12
2.76642e-09
-5.89483e-13
2.76838e-09
-1.95221e-12
2.77143e-09
-3.05034e-12
2.77532e-09
-3.89104e-12
2.77983e-09
-4.50902e-12
2.78475e-09
-4.91837e-12
2.78986e-09
-5.11823e-12
2.79502e-09
-5.15942e-12
2.80009e-09
-5.06333e-12
2.80495e-09
-4.86154e-12
2.80953e-09
-4.58599e-12
2.8138e-09
-4.26206e-12
2.81771e-09
-3.91192e-12
2.82126e-09
-3.55349e-12
2.82446e-09
-3.20081e-12
2.82733e-09
-2.86444e-12
2.82988e-09
-2.55163e-12
2.83215e-09
-2.26685e-12
2.83416e-09
-2.01243e-12
2.83595e-09
-1.78914e-12
2.83754e-09
-1.59679e-12
2.83898e-09
-1.43499e-12
2.84028e-09
-1.30453e-12
2.8415e-09
-1.21236e-12
2.8427e-09
-1.20095e-12
2.84422e-09
-1.52792e-12
-3.71764e-12
3.59125e-08
3.19895e-09
-3.61956e-08
3.53044e-08
3.50308e-09
3.44523e-08
3.56741e-09
3.34345e-08
3.51885e-09
3.23077e-08
3.39584e-09
3.11194e-08
3.21393e-09
2.99081e-08
2.99055e-09
2.87036e-08
2.74283e-09
2.75282e-08
2.48549e-09
2.63977e-08
2.23075e-09
2.53222e-08
1.98824e-09
2.43079e-08
1.76484e-09
2.33572e-08
1.56455e-09
2.24701e-08
1.38884e-09
2.16448e-08
1.23722e-09
2.08784e-08
1.10781e-09
2.01671e-08
9.97991e-10
1.95073e-08
9.0486e-10
1.88947e-08
8.25585e-10
1.83255e-08
7.57617e-10
1.77959e-08
6.98785e-10
1.73025e-08
6.47318e-10
1.6842e-08
6.01815e-10
1.64116e-08
5.61192e-10
1.60087e-08
5.24622e-10
1.56308e-08
4.91475e-10
1.52759e-08
4.61269e-10
1.4942e-08
4.3363e-10
1.46275e-08
4.0826e-10
1.43307e-08
3.84917e-10
1.40503e-08
3.63395e-10
1.37851e-08
3.43518e-10
1.35339e-08
3.2513e-10
1.32957e-08
3.08093e-10
1.30696e-08
2.92278e-10
1.28547e-08
2.77573e-10
1.26503e-08
2.63871e-10
1.24557e-08
2.51077e-10
1.22702e-08
2.39104e-10
1.20934e-08
2.27873e-10
1.19247e-08
2.17312e-10
1.17637e-08
2.07354e-10
1.16099e-08
1.9794e-10
1.14629e-08
1.89017e-10
1.13226e-08
1.80536e-10
1.11885e-08
1.72451e-10
1.10603e-08
1.64722e-10
1.09379e-08
1.57313e-10
1.0821e-08
1.5019e-10
1.07094e-08
1.43322e-10
1.06029e-08
1.36681e-10
1.05015e-08
1.30242e-10
1.04049e-08
1.23981e-10
1.0313e-08
1.17876e-10
1.02258e-08
1.11908e-10
1.01431e-08
1.06058e-10
1.00649e-08
1.0031e-10
9.99105e-09
9.46483e-11
9.92157e-09
8.90604e-11
9.85639e-09
8.35347e-11
9.79548e-09
7.80619e-11
9.73879e-09
7.26341e-11
9.6863e-09
6.72446e-11
9.638e-09
6.18852e-11
9.59388e-09
5.65429e-11
9.55395e-09
5.11949e-11
9.51826e-09
4.58028e-11
9.48688e-09
4.03072e-11
9.45995e-09
3.46271e-11
9.43763e-09
2.86661e-11
9.42016e-09
2.23301e-11
9.40777e-09
1.55357e-11
9.40077e-09
8.19768e-12
9.3993e-09
8.71598e-13
9.40253e-09
-5.17541e-12
9.40915e-09
-9.66863e-12
9.41824e-09
-1.29857e-11
9.4291e-09
-1.53728e-11
9.44114e-09
-1.69515e-11
9.4538e-09
-1.77838e-11
9.46668e-09
-1.80388e-11
9.47943e-09
-1.78091e-11
9.49177e-09
-1.72083e-11
9.50353e-09
-1.63438e-11
9.51457e-09
-1.53038e-11
9.52483e-09
-1.41641e-11
9.53426e-09
-1.29858e-11
9.54287e-09
-1.18167e-11
9.5507e-09
-1.06927e-11
9.55779e-09
-9.63855e-12
9.56419e-09
-8.67007e-12
9.56998e-09
-7.796e-12
9.57521e-09
-7.02015e-12
9.57995e-09
-6.34366e-12
9.58429e-09
-5.7681e-12
9.58829e-09
-5.30196e-12
9.59205e-09
-4.98088e-12
9.5958e-09
-4.95012e-12
9.60009e-09
-5.81424e-12
-9.32157e-12
4.05749e-08
3.02664e-09
-4.04026e-08
4.06646e-08
3.41335e-09
4.0627e-08
3.60503e-09
4.04638e-08
3.68201e-09
4.01829e-08
3.67673e-09
3.97965e-08
3.60032e-09
3.93211e-08
3.466e-09
3.87743e-08
3.28961e-09
3.81733e-08
3.08646e-09
3.75339e-08
2.87018e-09
3.68698e-08
2.65237e-09
3.61925e-08
2.44209e-09
3.55114e-08
2.24565e-09
3.48336e-08
2.06669e-09
3.41642e-08
1.9066e-09
3.3507e-08
1.76506e-09
3.28643e-08
1.64066e-09
3.22377e-08
1.53141e-09
3.16282e-08
1.43513e-09
3.10361e-08
1.34968e-09
3.04617e-08
1.27321e-09
2.99049e-08
1.20411e-09
2.93656e-08
1.1411e-09
2.88436e-08
1.08318e-09
2.83387e-08
1.02957e-09
2.78505e-08
9.79677e-10
2.73787e-08
9.33045e-10
2.6923e-08
8.89327e-10
2.6483e-08
8.48247e-10
2.60584e-08
8.0958e-10
2.56486e-08
7.73137e-10
2.52534e-08
7.38753e-10
2.48722e-08
7.06282e-10
2.45047e-08
6.75588e-10
2.41505e-08
6.46546e-10
2.3809e-08
6.19039e-10
2.34799e-08
5.92958e-10
2.31628e-08
5.68196e-10
2.28572e-08
5.44657e-10
2.25629e-08
5.22248e-10
2.22793e-08
5.0088e-10
2.20062e-08
4.80471e-10
2.17432e-08
4.60943e-10
2.149e-08
4.42223e-10
2.12463e-08
4.24243e-10
2.10118e-08
4.06936e-10
2.07863e-08
3.90243e-10
2.05695e-08
3.74105e-10
2.03612e-08
3.58469e-10
2.01612e-08
3.43284e-10
1.99694e-08
3.28501e-10
1.97856e-08
3.14075e-10
1.96096e-08
2.99965e-10
1.94413e-08
2.8613e-10
1.92807e-08
2.72533e-10
1.91276e-08
2.5914e-10
1.8982e-08
2.45917e-10
1.88438e-08
2.32837e-10
1.8713e-08
2.19871e-10
1.85896e-08
2.06997e-10
1.84734e-08
1.94192e-10
1.83646e-08
1.81439e-10
1.82632e-08
1.68718e-10
1.8169e-08
1.56007e-10
1.80823e-08
1.43277e-10
1.8003e-08
1.30484e-10
1.79312e-08
1.17567e-10
1.78671e-08
1.04444e-10
1.78107e-08
9.10187e-11
1.77622e-08
7.72088e-11
1.77215e-08
6.29902e-11
1.76886e-08
4.84713e-11
1.76629e-08
3.39272e-11
1.76442e-08
1.94992e-11
1.76339e-08
5.17424e-12
1.76316e-08
-7.39882e-12
1.76353e-08
-1.67165e-11
1.76435e-08
-2.35752e-11
1.7655e-08
-2.84326e-11
1.76688e-08
-3.1534e-11
1.7684e-08
-3.32688e-11
1.77e-08
-3.3856e-11
1.77164e-08
-3.35498e-11
1.77326e-08
-3.25772e-11
1.77484e-08
-3.11275e-11
1.77636e-08
-2.93642e-11
1.77781e-08
-2.74212e-11
1.77917e-08
-2.54059e-11
1.78044e-08
-2.34012e-11
1.78162e-08
-2.1468e-11
1.78272e-08
-1.96482e-11
1.78374e-08
-1.79687e-11
1.78468e-08
-1.64454e-11
1.78555e-08
-1.5088e-11
1.78637e-08
-1.3906e-11
1.78713e-08
-1.29206e-11
1.78785e-08
-1.21975e-11
1.78855e-08
-1.19488e-11
1.78925e-08
-1.28583e-11
-1.62735e-11
4.50694e-08
2.81414e-09
-4.48569e-08
4.52987e-08
3.184e-09
4.54933e-08
3.41049e-09
4.56371e-08
3.53821e-09
4.5721e-08
3.59283e-09
4.57382e-08
3.58311e-09
4.56867e-08
3.51751e-09
4.55687e-08
3.40761e-09
4.53893e-08
3.26583e-09
4.51556e-08
3.10393e-09
4.48755e-08
2.93244e-09
4.45574e-08
2.76017e-09
4.42092e-08
2.59382e-09
4.38381e-08
2.43788e-09
4.34499e-08
2.29479e-09
4.30495e-08
2.16539e-09
4.26409e-08
2.0493e-09
4.22268e-08
1.94545e-09
4.18096e-08
1.85237e-09
4.13908e-08
1.76848e-09
4.09717e-08
1.6923e-09
4.05533e-08
1.62251e-09
4.01364e-08
1.55803e-09
3.97216e-08
1.49795e-09
3.93096e-08
1.4416e-09
3.89008e-08
1.38843e-09
3.84959e-08
1.33804e-09
3.80951e-08
1.29011e-09
3.76989e-08
1.24442e-09
3.73077e-08
1.20077e-09
3.69218e-08
1.15901e-09
3.65416e-08
1.11901e-09
3.61672e-08
1.08065e-09
3.5799e-08
1.04382e-09
3.54371e-08
1.00845e-09
3.50817e-08
9.74419e-10
3.4733e-08
9.41659e-10
3.43911e-08
9.10081e-10
3.40562e-08
8.79606e-10
3.37283e-08
8.50158e-10
3.34075e-08
8.21662e-10
3.30939e-08
7.94047e-10
3.27876e-08
7.67244e-10
3.24886e-08
7.41186e-10
3.21971e-08
7.15811e-10
3.19129e-08
6.91055e-10
3.16363e-08
6.6686e-10
3.13673e-08
6.43169e-10
3.11058e-08
6.19925e-10
3.0852e-08
5.97077e-10
3.06059e-08
5.74571e-10
3.03677e-08
5.5236e-10
3.01372e-08
5.30396e-10
2.99147e-08
5.08633e-10
2.97002e-08
4.87028e-10
2.94938e-08
4.6554e-10
2.92956e-08
4.4413e-10
2.91057e-08
4.22763e-10
2.89242e-08
4.01406e-10
2.87511e-08
3.80027e-10
2.85867e-08
3.58601e-10
2.84311e-08
3.371e-10
2.82843e-08
3.15499e-10
2.81465e-08
2.93765e-10
2.80179e-08
2.71861e-10
2.78987e-08
2.49733e-10
2.77889e-08
2.27315e-10
2.76888e-08
2.04534e-10
2.75985e-08
1.81325e-10
2.75181e-08
1.57672e-10
2.74474e-08
1.33666e-10
2.73863e-08
1.09566e-10
2.73344e-08
8.58509e-11
2.72907e-08
6.31712e-11
2.72538e-08
4.21298e-11
2.72238e-08
2.25727e-11
2.72029e-08
4.12467e-12
2.71912e-08
-1.18318e-11
2.71866e-08
-2.38556e-11
2.71877e-08
-3.25775e-11
2.71931e-08
-3.87247e-11
2.72019e-08
-4.26604e-11
2.72132e-08
-4.48288e-11
2.72262e-08
-4.56076e-11
2.72404e-08
-4.53198e-11
2.72553e-08
-4.42467e-11
2.72705e-08
-4.26229e-11
2.72857e-08
-4.06427e-11
2.73008e-08
-3.84623e-11
2.73155e-08
-3.62033e-11
2.73298e-08
-3.39572e-11
2.73437e-08
-3.17899e-11
2.7357e-08
-2.97479e-11
2.73698e-08
-2.78645e-11
2.7382e-08
-2.61684e-11
2.73938e-08
-2.46984e-11
2.74051e-08
-2.35349e-11
2.74161e-08
-2.28793e-11
2.74264e-08
-2.32292e-11
-2.51965e-11
4.9943e-08
2.63011e-09
-4.9759e-08
5.0171e-08
2.95604e-09
5.0401e-08
3.18052e-09
5.06163e-08
3.32287e-09
5.08076e-08
3.4015e-09
5.0966e-08
3.42477e-09
5.10844e-08
3.39909e-09
5.1159e-08
3.33295e-09
5.11889e-08
3.23599e-09
5.11751e-08
3.11769e-09
5.11208e-08
2.98678e-09
5.10301e-08
2.85083e-09
5.0908e-08
2.71594e-09
5.07594e-08
2.5865e-09
5.05888e-08
2.46533e-09
5.04004e-08
2.35381e-09
5.01975e-08
2.25226e-09
4.99826e-08
2.16027e-09
4.97581e-08
2.07695e-09
4.95253e-08
2.00124e-09
4.92856e-08
1.93203e-09
4.90398e-08
1.86827e-09
4.87888e-08
1.80905e-09
4.85331e-08
1.75361e-09
4.82734e-08
1.70135e-09
4.801e-08
1.65178e-09
4.77435e-08
1.60451e-09
4.74744e-08
1.55928e-09
4.7203e-08
1.51584e-09
4.69297e-08
1.47403e-09
4.6655e-08
1.43371e-09
4.63793e-08
1.39475e-09
4.61028e-08
1.35707e-09
4.58261e-08
1.32056e-09
4.55494e-08
1.28515e-09
4.52731e-08
1.25076e-09
4.49974e-08
1.21732e-09
4.47227e-08
1.18474e-09
4.44494e-08
1.15298e-09
4.41776e-08
1.12195e-09
4.39077e-08
1.09159e-09
4.36399e-08
1.06184e-09
4.33745e-08
1.03263e-09
4.31118e-08
1.0039e-09
4.2852e-08
9.75599e-10
4.25954e-08
9.47659e-10
4.23422e-08
9.20025e-10
4.20927e-08
8.92639e-10
4.18472e-08
8.65447e-10
4.16059e-08
8.38394e-10
4.1369e-08
8.11428e-10
4.11369e-08
7.84496e-10
4.09097e-08
7.57551e-10
4.06878e-08
7.30542e-10
4.04714e-08
7.03424e-10
4.02608e-08
6.76153e-10
4.00563e-08
6.48687e-10
3.9858e-08
6.20987e-10
3.96664e-08
5.93016e-10
3.94817e-08
5.64742e-10
3.93042e-08
5.36135e-10
3.91341e-08
5.07164e-10
3.89718e-08
4.77801e-10
3.88176e-08
4.48011e-10
3.86717e-08
4.17756e-10
3.85344e-08
3.86988e-10
3.84061e-08
3.55657e-10
3.82869e-08
3.23723e-10
3.8177e-08
2.91178e-10
3.80766e-08
2.58098e-10
3.79856e-08
2.24688e-10
3.79038e-08
1.91341e-10
3.7831e-08
1.58651e-10
3.77668e-08
1.27354e-10
3.77108e-08
9.8154e-11
3.76619e-08
7.15169e-11
3.76183e-08
4.77392e-11
3.75798e-08
2.65765e-11
3.75486e-08
7.44076e-12
3.75251e-08
-9.13208e-12
3.75086e-08
-2.22051e-11
3.74979e-08
-3.20157e-11
3.74923e-08
-3.91722e-11
3.74908e-08
-4.41284e-11
3.74928e-08
-4.72951e-11
3.74976e-08
-4.90416e-11
3.75046e-08
-4.96869e-11
3.75135e-08
-4.95056e-11
3.75238e-08
-4.87275e-11
3.75351e-08
-4.75409e-11
3.75472e-08
-4.60964e-11
3.756e-08
-4.45115e-11
3.75731e-08
-4.28764e-11
3.75865e-08
-4.12614e-11
3.76e-08
-3.9725e-11
3.76137e-08
-3.83265e-11
3.76273e-08
-3.71465e-11
3.76407e-08
-3.63146e-11
3.76535e-08
-3.59884e-11
-3.57191e-11
5.53201e-08
2.47631e-09
-5.51663e-08
5.55219e-08
2.75431e-09
5.57396e-08
2.96277e-09
5.59566e-08
3.10589e-09
5.61637e-08
3.19434e-09
5.63534e-08
3.23513e-09
5.65189e-08
3.23357e-09
5.66558e-08
3.19609e-09
5.67616e-08
3.13019e-09
5.68358e-08
3.0435e-09
5.68793e-08
2.9432e-09
5.68945e-08
2.83564e-09
5.68843e-08
2.72613e-09
5.68521e-08
2.61871e-09
5.68013e-08
2.5162e-09
5.67348e-08
2.42025e-09
5.66555e-08
2.3316e-09
5.65654e-08
2.25031e-09
5.64664e-08
2.17597e-09
5.63597e-08
2.10793e-09
5.62464e-08
2.04541e-09
5.6127e-08
1.98763e-09
5.60022e-08
1.93386e-09
5.58723e-08
1.88349e-09
5.57377e-08
1.83598e-09
5.55986e-08
1.7909e-09
5.54552e-08
1.74789e-09
5.53078e-08
1.7067e-09
5.51565e-08
1.66709e-09
5.50016e-08
1.6289e-09
5.48434e-08
1.59198e-09
5.46819e-08
1.55622e-09
5.45175e-08
1.5215e-09
5.43503e-08
1.48775e-09
5.41806e-08
1.45487e-09
5.40085e-08
1.42279e-09
5.38344e-08
1.39143e-09
5.36584e-08
1.36073e-09
5.34808e-08
1.33061e-09
5.33018e-08
1.301e-09
5.31215e-08
1.27183e-09
5.29403e-08
1.24304e-09
5.27584e-08
1.21457e-09
5.25759e-08
1.18634e-09
5.23932e-08
1.15829e-09
5.22105e-08
1.13037e-09
5.20281e-08
1.1025e-09
5.18461e-08
1.07462e-09
5.16649e-08
1.04667e-09
5.14847e-08
1.0186e-09
5.13057e-08
9.90334e-10
5.11284e-08
9.61825e-10
5.0953e-08
9.33013e-10
5.07797e-08
9.03842e-10
5.06088e-08
8.74259e-10
5.04408e-08
8.44213e-10
5.02758e-08
8.13656e-10
5.01142e-08
7.82543e-10
4.99564e-08
7.5083e-10
4.98027e-08
7.18481e-10
4.96534e-08
6.8546e-10
4.95088e-08
6.51733e-10
4.93693e-08
6.17268e-10
4.92353e-08
5.82033e-10
4.91071e-08
5.45994e-10
4.89849e-08
5.09116e-10
4.88692e-08
4.71376e-10
4.87602e-08
4.32776e-10
4.8658e-08
3.93373e-10
4.85627e-08
3.53323e-10
4.84745e-08
3.12921e-10
4.83932e-08
2.72643e-10
4.83187e-08
2.33135e-10
4.82509e-08
1.9515e-10
4.81897e-08
1.59413e-10
4.81347e-08
1.26479e-10
4.80857e-08
9.67342e-11
4.8042e-08
7.03137e-11
4.80022e-08
4.72582e-11
4.79657e-08
2.72883e-11
4.79337e-08
9.80308e-12
4.79069e-08
-5.20875e-12
4.78851e-08
-1.7397e-11
4.78679e-08
-2.69305e-11
4.78549e-08
-3.42448e-11
4.78456e-08
-3.97136e-11
4.78396e-08
-4.367e-11
4.78365e-08
-4.64118e-11
4.78359e-08
-4.81978e-11
4.78376e-08
-4.92488e-11
4.78413e-08
-4.97494e-11
4.78466e-08
-4.98503e-11
4.78534e-08
-4.96733e-11
4.78615e-08
-4.93168e-11
4.78706e-08
-4.88623e-11
4.78807e-08
-4.83823e-11
4.78915e-08
-4.79437e-11
4.79027e-08
-4.75876e-11
4.79139e-08
-4.71614e-11
-4.54289e-11
6.12624e-08
2.3456e-09
-6.11317e-08
6.14372e-08
2.57952e-09
6.16334e-08
2.76659e-09
6.18353e-08
2.90402e-09
6.20334e-08
2.99618e-09
6.22207e-08
3.0478e-09
6.23913e-08
3.06299e-09
6.25408e-08
3.04659e-09
6.26667e-08
3.00432e-09
6.2768e-08
2.94223e-09
6.2845e-08
2.86614e-09
6.28993e-08
2.78135e-09
6.2933e-08
2.69241e-09
6.29488e-08
2.60296e-09
6.29493e-08
2.51568e-09
6.29372e-08
2.43236e-09
6.29148e-08
2.35402e-09
6.2884e-08
2.28108e-09
6.28465e-08
2.2135e-09
6.28034e-08
2.151e-09
6.27557e-08
2.0931e-09
6.2704e-08
2.03929e-09
6.26488e-08
1.98905e-09
6.25905e-08
1.94188e-09
6.25291e-08
1.89736e-09
6.24648e-08
1.85513e-09
6.23978e-08
1.81488e-09
6.23282e-08
1.77637e-09
6.22559e-08
1.73938e-09
6.2181e-08
1.70375e-09
6.21037e-08
1.66933e-09
6.20239e-08
1.63602e-09
6.19417e-08
1.60369e-09
6.18572e-08
1.57226e-09
6.17704e-08
1.54164e-09
6.16815e-08
1.51174e-09
6.15904e-08
1.48249e-09
6.14973e-08
1.45381e-09
6.14023e-08
1.42562e-09
6.13055e-08
1.39786e-09
6.12068e-08
1.37043e-09
6.11066e-08
1.34328e-09
6.10048e-08
1.31633e-09
6.09017e-08
1.28951e-09
6.07972e-08
1.26274e-09
6.06917e-08
1.23595e-09
6.05851e-08
1.20907e-09
6.04777e-08
1.18204e-09
6.03696e-08
1.15477e-09
6.02609e-08
1.1272e-09
6.0152e-08
1.09927e-09
6.00429e-08
1.07089e-09
5.99339e-08
1.04202e-09
5.98252e-08
1.01257e-09
5.9717e-08
9.82489e-10
5.96095e-08
9.51717e-10
5.95029e-08
9.20195e-10
5.93976e-08
8.87869e-10
5.92938e-08
8.54689e-10
5.91916e-08
8.20609e-10
5.90915e-08
7.85589e-10
5.89936e-08
7.49589e-10
5.88983e-08
7.12577e-10
5.88058e-08
6.74521e-10
5.87164e-08
6.35394e-10
5.86304e-08
5.95182e-10
5.85479e-08
5.53887e-10
5.84691e-08
5.11553e-10
5.83942e-08
4.68288e-10
5.83232e-08
4.24305e-10
5.82562e-08
3.79949e-10
5.81931e-08
3.35726e-10
5.81339e-08
2.92281e-10
5.80788e-08
2.50338e-10
5.80276e-08
2.10597e-10
5.79804e-08
1.73628e-10
5.79373e-08
1.39846e-10
5.78981e-08
1.09476e-10
5.78628e-08
8.26172e-11
5.78309e-08
5.91965e-11
5.78017e-08
3.90223e-11
5.77747e-08
2.17585e-11
5.77504e-08
6.93085e-12
5.77291e-08
-5.63799e-12
5.77108e-08
-1.59481e-11
5.76953e-08
-2.42549e-11
5.76825e-08
-3.08837e-11
5.76722e-08
-3.61187e-11
5.76643e-08
-4.02132e-11
5.76584e-08
-4.33905e-11
5.76545e-08
-4.58421e-11
5.76524e-08
-4.77293e-11
5.76519e-08
-4.91856e-11
5.76529e-08
-5.03211e-11
5.76552e-08
-5.12263e-11
5.76588e-08
-5.19741e-11
5.76635e-08
-5.26127e-11
5.7669e-08
-5.31204e-11
5.76751e-08
-5.32165e-11
-5.17166e-11
6.78271e-08
2.23248e-09
-6.7714e-08
6.79779e-08
2.42873e-09
6.81512e-08
2.59331e-09
6.83338e-08
2.72138e-09
6.85166e-08
2.81341e-09
6.86926e-08
2.87176e-09
6.88564e-08
2.89927e-09
6.90036e-08
2.8994e-09
6.91315e-08
2.87636e-09
6.9239e-08
2.83475e-09
6.9326e-08
2.77919e-09
6.93933e-08
2.714e-09
6.94427e-08
2.64299e-09
6.94764e-08
2.56934e-09
6.94965e-08
2.49556e-09
6.95054e-08
2.42343e-09
6.95053e-08
2.35416e-09
6.9498e-08
2.2884e-09
6.9485e-08
2.22646e-09
6.94677e-08
2.16832e-09
6.9447e-08
2.11382e-09
6.94236e-08
2.06266e-09
6.93981e-08
2.01454e-09
6.93709e-08
1.96911e-09
6.93422e-08
1.92607e-09
6.93122e-08
1.88513e-09
6.9281e-08
1.84607e-09
6.92487e-08
1.80867e-09
6.92153e-08
1.77275e-09
6.91809e-08
1.73816e-09
6.91455e-08
1.70478e-09
6.9109e-08
1.67249e-09
6.90715e-08
1.64118e-09
6.9033e-08
1.61078e-09
6.89934e-08
1.58118e-09
6.89529e-08
1.55231e-09
6.89113e-08
1.52409e-09
6.88686e-08
1.49643e-09
6.8825e-08
1.46926e-09
6.87804e-08
1.4425e-09
6.87347e-08
1.41608e-09
6.86881e-08
1.38991e-09
6.86405e-08
1.36392e-09
6.8592e-08
1.33803e-09
6.85426e-08
1.31217e-09
6.84923e-08
1.28625e-09
6.84411e-08
1.26019e-09
6.83892e-08
1.23393e-09
6.83366e-08
1.20738e-09
6.82834e-08
1.18046e-09
6.82296e-08
1.1531e-09
6.81752e-08
1.12522e-09
6.81205e-08
1.09674e-09
6.80655e-08
1.0676e-09
6.80103e-08
1.03772e-09
6.79549e-08
1.00703e-09
6.78997e-08
9.75472e-10
6.78446e-08
9.42982e-10
6.77897e-08
9.09503e-10
6.77354e-08
8.74983e-10
6.76816e-08
8.39377e-10
6.76285e-08
8.02645e-10
6.75763e-08
7.6475e-10
6.75252e-08
7.25669e-10
6.74752e-08
6.85384e-10
6.74265e-08
6.43897e-10
6.73791e-08
6.01236e-10
6.73332e-08
5.57478e-10
6.72887e-08
5.12765e-10
6.72457e-08
4.67338e-10
6.72041e-08
4.21559e-10
6.71639e-08
3.75918e-10
6.71252e-08
3.3102e-10
6.7088e-08
2.87529e-10
6.70525e-08
2.46089e-10
6.70189e-08
2.07249e-10
6.69873e-08
1.71421e-10
6.69579e-08
1.38865e-10
6.69308e-08
1.09713e-10
6.6906e-08
8.39632e-11
6.68836e-08
6.14999e-11
6.68632e-08
4.21247e-11
6.68446e-08
2.5562e-11
6.68275e-08
1.14526e-11
6.68121e-08
-5.49571e-13
6.67984e-08
-1.05943e-11
6.67864e-08
-1.89064e-11
6.67761e-08
-2.57471e-11
6.67672e-08
-3.13591e-11
6.67598e-08
-3.59592e-11
6.67537e-08
-3.97376e-11
6.67488e-08
-4.28577e-11
6.67451e-08
-4.54577e-11
6.67424e-08
-4.76534e-11
6.67407e-08
-4.95394e-11
6.67399e-08
-5.11879e-11
6.674e-08
-5.26376e-11
6.67407e-08
-5.38523e-11
6.67421e-08
-5.46013e-11
-5.42382e-11
6.799e-08
2.14197e-09
-6.78995e-08
6.81091e-08
2.30965e-09
6.82476e-08
2.45485e-09
6.83961e-08
2.57284e-09
6.85472e-08
2.66231e-09
6.8695e-08
2.72402e-09
6.88346e-08
2.75967e-09
6.89623e-08
2.77167e-09
6.90756e-08
2.76304e-09
6.91731e-08
2.73728e-09
6.92543e-08
2.69797e-09
6.93197e-08
2.6486e-09
6.93703e-08
2.59235e-09
6.94077e-08
2.53196e-09
6.94336e-08
2.46969e-09
6.94497e-08
2.40728e-09
6.94579e-08
2.34598e-09
6.94597e-08
2.28662e-09
6.94565e-08
2.22967e-09
6.94494e-08
2.17538e-09
6.94394e-08
2.12378e-09
6.94273e-08
2.07478e-09
6.94136e-08
2.02824e-09
6.93988e-08
1.98396e-09
6.93831e-08
1.94174e-09
6.93668e-08
1.90141e-09
6.93501e-08
1.86277e-09
6.93331e-08
1.82568e-09
6.93159e-08
1.78999e-09
6.92985e-08
1.75558e-09
6.92809e-08
1.72234e-09
6.92632e-08
1.69017e-09
6.92454e-08
1.65898e-09
6.92275e-08
1.62868e-09
6.92095e-08
1.59919e-09
6.91914e-08
1.57043e-09
6.91731e-08
1.54233e-09
6.91547e-08
1.51481e-09
6.91362e-08
1.48779e-09
6.91175e-08
1.4612e-09
6.90986e-08
1.43495e-09
6.90796e-08
1.40898e-09
6.90603e-08
1.38319e-09
6.90408e-08
1.35752e-09
6.90211e-08
1.33188e-09
6.90011e-08
1.30619e-09
6.8981e-08
1.28038e-09
6.89605e-08
1.25436e-09
6.89399e-08
1.22804e-09
6.8919e-08
1.20136e-09
6.88978e-08
1.17422e-09
6.88765e-08
1.14656e-09
6.88549e-08
1.11828e-09
6.88332e-08
1.08932e-09
6.88113e-08
1.0596e-09
6.87893e-08
1.02904e-09
6.87672e-08
9.97587e-10
6.8745e-08
9.65166e-10
6.87228e-08
9.31721e-10
6.87006e-08
8.97197e-10
6.86784e-08
8.61549e-10
6.86563e-08
8.24735e-10
6.86344e-08
7.86727e-10
6.86125e-08
7.47502e-10
6.85909e-08
7.07057e-10
6.85693e-08
6.65408e-10
6.8548e-08
6.22604e-10
6.85267e-08
5.78741e-10
6.85055e-08
5.3398e-10
6.84843e-08
4.8857e-10
6.8463e-08
4.42864e-10
6.84416e-08
3.9732e-10
6.84201e-08
3.52486e-10
6.83987e-08
3.08957e-10
6.83774e-08
2.67313e-10
6.83566e-08
2.28061e-10
6.83365e-08
1.91598e-10
6.83171e-08
1.58194e-10
6.82988e-08
1.28e-10
6.82817e-08
1.01051e-10
6.8266e-08
7.72815e-11
6.82515e-08
5.65467e-11
6.82385e-08
3.86395e-11
6.82266e-08
2.33002e-11
6.82159e-08
1.02142e-11
6.82062e-08
-8.93841e-13
6.81975e-08
-1.02572e-11
6.81899e-08
-1.80972e-11
6.81831e-08
-2.46435e-11
6.81773e-08
-3.01068e-11
6.81722e-08
-3.46741e-11
6.81679e-08
-3.85098e-11
6.81642e-08
-4.17554e-11
6.8161e-08
-4.45308e-11
6.81584e-08
-4.69353e-11
6.81563e-08
-4.90445e-11
6.81546e-08
-5.09009e-11
6.81532e-08
-5.24881e-11
6.81523e-08
-5.36823e-11
-5.42633e-11
7.5229e-08
2.06124e-09
-7.51483e-08
7.53333e-08
2.20529e-09
7.54551e-08
2.33308e-09
7.55873e-08
2.44065e-09
7.57235e-08
2.52607e-09
7.58585e-08
2.58907e-09
7.59877e-08
2.63042e-09
7.61078e-08
2.65163e-09
7.6216e-08
2.6548e-09
7.63109e-08
2.64242e-09
7.63917e-08
2.6172e-09
7.64584e-08
2.58187e-09
7.65117e-08
2.539e-09
7.65528e-08
2.4909e-09
7.6583e-08
2.43954e-09
7.66037e-08
2.38653e-09
7.66166e-08
2.33311e-09
7.6623e-08
2.28021e-09
7.66242e-08
2.22843e-09
7.66214e-08
2.17817e-09
7.66156e-08
2.12966e-09
7.66074e-08
2.08297e-09
7.65975e-08
2.0381e-09
7.65865e-08
1.99501e-09
7.65746e-08
1.9536e-09
7.65622e-08
1.91377e-09
7.65496e-08
1.87542e-09
7.65368e-08
1.83844e-09
7.65241e-08
1.80274e-09
7.65114e-08
1.76823e-09
7.6499e-08
1.73482e-09
7.64867e-08
1.70243e-09
7.64747e-08
1.67098e-09
7.6463e-08
1.6404e-09
7.64515e-08
1.61062e-09
7.64404e-08
1.58157e-09
7.64296e-08
1.55317e-09
7.6419e-08
1.52536e-09
7.64088e-08
1.49805e-09
7.63988e-08
1.47118e-09
7.63891e-08
1.44467e-09
7.63796e-08
1.41844e-09
7.63704e-08
1.39243e-09
7.63614e-08
1.36654e-09
7.63525e-08
1.3407e-09
7.63439e-08
1.31484e-09
7.63354e-08
1.28886e-09
7.63271e-08
1.2627e-09
7.63189e-08
1.23626e-09
7.63107e-08
1.20947e-09
7.63027e-08
1.18225e-09
7.62948e-08
1.15451e-09
7.62869e-08
1.12618e-09
7.6279e-08
1.09719e-09
7.62711e-08
1.06744e-09
7.62633e-08
1.03688e-09
7.62555e-08
1.00544e-09
7.62476e-08
9.73042e-10
7.62397e-08
9.39639e-10
7.62317e-08
9.05177e-10
7.62236e-08
8.69611e-10
7.62155e-08
8.32905e-10
7.62071e-08
7.95034e-10
7.61987e-08
7.55987e-10
7.61899e-08
7.15771e-10
7.61809e-08
6.74416e-10
7.61716e-08
6.31987e-10
7.61617e-08
5.88594e-10
7.61513e-08
5.4441e-10
7.61402e-08
4.99679e-10
7.61283e-08
4.54733e-10
7.61156e-08
4.09989e-10
7.61022e-08
3.65932e-10
7.60881e-08
3.23084e-10
7.60734e-08
2.81957e-10
7.60585e-08
2.4301e-10
7.60434e-08
2.06612e-10
7.60286e-08
1.73031e-10
7.60142e-08
1.42429e-10
7.60004e-08
1.1487e-10
7.59873e-08
9.0324e-11
7.59752e-08
6.86894e-11
7.5964e-08
4.98045e-11
7.59538e-08
3.34615e-11
7.59446e-08
1.94178e-11
7.59363e-08
7.41442e-12
7.59289e-08
-2.80079e-12
7.59222e-08
-1.14475e-11
7.59163e-08
-1.87387e-11
7.59111e-08
-2.48761e-11
7.59065e-08
-3.0043e-11
7.59024e-08
-3.44028e-11
7.58987e-08
-3.80991e-11
7.58954e-08
-4.12558e-11
7.58925e-08
-4.39772e-11
7.58898e-08
-4.63461e-11
7.58873e-08
-4.84176e-11
7.5885e-08
-5.02096e-11
7.5883e-08
-5.17011e-11
-5.29154e-11
8.32244e-08
1.98999e-09
-8.31532e-08
8.33149e-08
2.11479e-09
8.34205e-08
2.22756e-09
8.35359e-08
2.32521e-09
8.36562e-08
2.40579e-09
8.37768e-08
2.4685e-09
8.38937e-08
2.51349e-09
8.40038e-08
2.54155e-09
8.41046e-08
2.55402e-09
8.41944e-08
2.55261e-09
8.42723e-08
2.53928e-09
8.43381e-08
2.51608e-09
8.4392e-08
2.48505e-09
8.44349e-08
2.44805e-09
8.44676e-08
2.40678e-09
8.44915e-08
2.36268e-09
8.45077e-08
2.31691e-09
8.45174e-08
2.27042e-09
8.4522e-08
2.2239e-09
8.45223e-08
2.17787e-09
8.45193e-08
2.13266e-09
8.45137e-08
2.08851e-09
8.45063e-08
2.04555e-09
8.44975e-08
2.00383e-09
8.44877e-08
1.96338e-09
8.44773e-08
1.92417e-09
8.44665e-08
1.88618e-09
8.44556e-08
1.84937e-09
8.44447e-08
1.81367e-09
8.44339e-08
1.77903e-09
8.44233e-08
1.74541e-09
8.4413e-08
1.71273e-09
8.4403e-08
1.68095e-09
8.43934e-08
1.64999e-09
8.43842e-08
1.6198e-09
8.43755e-08
1.59032e-09
8.43672e-08
1.56148e-09
8.43593e-08
1.53322e-09
8.43519e-08
1.50547e-09
8.43449e-08
1.47815e-09
8.43384e-08
1.4512e-09
8.43323e-08
1.42454e-09
8.43266e-08
1.39811e-09
8.43213e-08
1.37181e-09
8.43165e-08
1.34559e-09
8.43119e-08
1.31935e-09
8.43078e-08
1.29302e-09
8.4304e-08
1.26652e-09
8.43005e-08
1.23977e-09
8.42972e-08
1.21269e-09
8.42943e-08
1.1852e-09
8.42916e-08
1.15722e-09
8.42891e-08
1.12868e-09
8.42868e-08
1.09949e-09
8.42846e-08
1.06959e-09
8.42826e-08
1.0389e-09
8.42807e-08
1.00736e-09
8.42788e-08
9.74914e-10
8.4277e-08
9.41495e-10
8.42751e-08
9.07059e-10
8.42731e-08
8.71567e-10
8.4271e-08
8.3499e-10
8.42688e-08
7.97309e-10
8.42662e-08
7.58523e-10
8.42633e-08
7.18651e-10
8.426e-08
6.77735e-10
8.42562e-08
6.35854e-10
8.42516e-08
5.93127e-10
8.42463e-08
5.49729e-10
8.42401e-08
5.05899e-10
8.42329e-08
4.61941e-10
8.42246e-08
4.18231e-10
8.42154e-08
3.75195e-10
8.42052e-08
3.33287e-10
8.41942e-08
2.92957e-10
8.41826e-08
2.54611e-10
8.41706e-08
2.18592e-10
8.41585e-08
1.85155e-10
8.41464e-08
1.5447e-10
8.41347e-08
1.26619e-10
8.41234e-08
1.01603e-10
8.41127e-08
7.93565e-11
8.41028e-08
5.97548e-11
8.40936e-08
4.26305e-11
8.40852e-08
2.7784e-11
8.40777e-08
1.49963e-11
8.40708e-08
4.04069e-12
8.40647e-08
-5.30124e-12
8.40592e-08
-1.32317e-11
8.40542e-08
-1.99426e-11
8.40498e-08
-2.56118e-11
8.40458e-08
-3.04006e-11
8.40422e-08
-3.44532e-11
8.40388e-08
-3.78971e-11
8.40357e-08
-4.08419e-11
8.40327e-08
-4.33794e-11
8.40299e-08
-4.5581e-11
8.40271e-08
-4.74991e-11
8.40246e-08
-4.91831e-11
-5.07492e-11
9.20565e-08
1.9285e-09
-9.1995e-08
9.21334e-08
2.03793e-09
9.22227e-08
2.13821e-09
9.23209e-08
2.22701e-09
9.24241e-08
2.3026e-09
9.25286e-08
2.36402e-09
9.26311e-08
2.41101e-09
9.27288e-08
2.44386e-09
9.28195e-08
2.46333e-09
9.29015e-08
2.47055e-09
9.29739e-08
2.46686e-09
9.30363e-08
2.45377e-09
9.30885e-08
2.43282e-09
9.31311e-08
2.40549e-09
9.31646e-08
2.37321e-09
9.31901e-08
2.3372e-09
9.32085e-08
2.29855e-09
9.32207e-08
2.25817e-09
9.32279e-08
2.21678e-09
9.32308e-08
2.17496e-09
9.32303e-08
2.13315e-09
9.32271e-08
2.09167e-09
9.32219e-08
2.05077e-09
9.32151e-08
2.0106e-09
9.32072e-08
1.97127e-09
9.31986e-08
1.93284e-09
9.31894e-08
1.89534e-09
9.318e-08
1.8588e-09
9.31704e-08
1.8232e-09
9.3161e-08
1.78852e-09
9.31516e-08
1.75474e-09
9.31425e-08
1.72183e-09
9.31337e-08
1.68974e-09
9.31253e-08
1.65843e-09
9.31173e-08
1.62785e-09
9.31096e-08
1.59795e-09
9.31024e-08
1.56867e-09
9.30957e-08
1.53995e-09
9.30894e-08
1.51174e-09
9.30836e-08
1.48396e-09
9.30783e-08
1.45654e-09
9.30734e-08
1.42943e-09
9.3069e-08
1.40254e-09
9.3065e-08
1.3758e-09
9.30614e-08
1.34915e-09
9.30583e-08
1.32249e-09
9.30555e-08
1.29576e-09
9.30532e-08
1.26888e-09
9.30512e-08
1.24176e-09
9.30495e-08
1.21434e-09
9.30482e-08
1.18653e-09
9.30472e-08
1.15826e-09
9.30464e-08
1.12944e-09
9.30459e-08
1.10002e-09
9.30456e-08
1.06991e-09
9.30454e-08
1.03905e-09
9.30454e-08
1.00737e-09
9.30455e-08
9.7483e-10
9.30456e-08
9.41361e-10
9.30458e-08
9.06927e-10
9.30458e-08
8.71491e-10
9.30458e-08
8.35032e-10
9.30456e-08
7.97539e-10
9.30451e-08
7.59021e-10
9.30442e-08
7.19505e-10
9.30429e-08
6.79047e-10
9.3041e-08
6.37732e-10
9.30385e-08
5.95688e-10
9.30351e-08
5.53089e-10
9.30308e-08
5.10161e-10
9.30256e-08
4.67187e-10
9.30193e-08
4.24502e-10
9.3012e-08
3.82482e-10
9.30038e-08
3.41525e-10
9.29947e-08
3.02023e-10
9.2985e-08
2.6434e-10
9.29748e-08
2.28786e-10
9.29644e-08
1.95605e-10
9.29539e-08
1.6497e-10
9.29435e-08
1.36975e-10
9.29335e-08
1.11647e-10
9.29239e-08
8.89475e-11
9.29148e-08
6.8787e-11
9.29064e-08
5.10313e-11
9.28987e-08
3.55149e-11
9.28917e-08
2.20502e-11
9.28853e-08
1.04401e-11
9.28795e-08
4.83658e-13
9.28742e-08
-8.01228e-12
9.28695e-08
-1.52297e-11
9.28653e-08
-2.13403e-11
9.28614e-08
-2.65026e-11
9.28578e-08
-3.08613e-11
9.28544e-08
-3.45465e-11
9.28513e-08
-3.76737e-11
9.28482e-08
-4.03438e-11
9.28453e-08
-4.26443e-11
9.28424e-08
-4.46542e-11
9.28397e-08
-4.64615e-11
-4.82018e-11
1.01814e-07
1.87753e-09
-1.01763e-07
1.01877e-07
1.97507e-09
1.0195e-07
2.0654e-09
1.0203e-07
2.14679e-09
1.02115e-07
2.21778e-09
1.02201e-07
2.27741e-09
1.02287e-07
2.3252e-09
1.0237e-07
2.36115e-09
1.02448e-07
2.38562e-09
1.02519e-07
2.39928e-09
1.02583e-07
2.40302e-09
1.02639e-07
2.39792e-09
1.02686e-07
2.38511e-09
1.02726e-07
2.36578e-09
1.02758e-07