/*--------------------------------*- C++ -*----------------------------------*\
| =========                 |                                                 |
| \\      /  F ield         | OpenFOAM: The Open Source CFD Toolbox           |
|  \\    /   O peration     | Version:  2.3.0                                 |
|   \\  /    A nd           | Web:      www.OpenFOAM.org                      |
|    \\/     M anipulation  |                                                 |
\*---------------------------------------------------------------------------*/
FoamFile
{
    version     2.0;
    format      ascii;
    class       volScalarField;
    location    "0.75";
    object      p;
}
// * * * * * * * * * * * * * * * * * * * * * * * * * * * * * * * * * * * * * //

dimensions      [0 2 -2 0 0 0 0];

internalField   nonuniform List<scalar> 
8750
(
0.00328682
0.00269383
0.00220958
0.00186019
0.00157116
0.00131108
0.00107982
0.000881955
0.000718989
0.000589905
0.00049213
0.000421871
0.000374482
0.000345004
0.000328709
0.000321485
0.000320018
0.000321826
0.00032517
0.000328923
0.000332417
0.000335303
0.000337443
0.000338823
0.000339493
0.000339536
0.000339038
0.00033808
0.000336732
0.000335051
0.000333085
0.00033087
0.000328433
0.000325797
0.00032298
0.000319996
0.000316856
0.000313571
0.000310149
0.000306598
0.000302924
0.000299133
0.000295232
0.000291224
0.000287116
0.000282911
0.000278613
0.000274226
0.000269754
0.0002652
0.000260567
0.000255858
0.000251075
0.000246222
0.000241301
0.000236314
0.000231264
0.000226153
0.000220983
0.000215756
0.000210475
0.000205141
0.000199758
0.000194325
0.000188847
0.000183325
0.000177761
0.000172158
0.000166518
0.000160843
0.000155136
0.000149399
0.000143635
0.000137848
0.000132039
0.000126213
0.000120372
0.000114521
0.000108662
0.000102801
9.69416e-05
9.10885e-05
8.52469e-05
7.94223e-05
7.36207e-05
6.78483e-05
6.21125e-05
5.64205e-05
5.07806e-05
4.5202e-05
3.96943e-05
3.42683e-05
2.89362e-05
2.37113e-05
1.86094e-05
1.36493e-05
8.8559e-06
4.26601e-06
9.0446e-08
-5.95959e-06
0.00300652
0.00258345
0.00218577
0.00186863
0.00159385
0.00134101
0.00111288
0.000915654
0.00075187
0.000621084
0.000521062
0.000448254
0.000398202
0.000366094
0.000347306
0.000337788
0.000334266
0.000334268
0.000336051
0.000338472
0.000340838
0.000342773
0.000344113
0.000344817
0.000344917
0.000344472
0.000343555
0.000342235
0.000340571
0.000338612
0.0003364
0.000333965
0.000331331
0.000328518
0.00032554
0.00032241
0.000319137
0.00031573
0.000312196
0.000308541
0.000304772
0.000300893
0.000296909
0.000292825
0.000288646
0.000284374
0.000280014
0.000275569
0.000271042
0.000266436
0.000261755
0.000257
0.000252174
0.00024728
0.00024232
0.000237297
0.000232212
0.000227068
0.000221866
0.00021661
0.0002113
0.000205939
0.000200529
0.000195072
0.000189571
0.000184026
0.000178441
0.000172817
0.000167157
0.000161463
0.000155737
0.000149983
0.000144203
0.000138399
0.000132575
0.000126733
0.000120878
0.000115013
0.000109141
0.000103267
9.73951e-05
9.153e-05
8.56768e-05
7.9841e-05
7.40287e-05
6.82459e-05
6.25e-05
5.67984e-05
5.11492e-05
4.55616e-05
4.00453e-05
3.46112e-05
2.92712e-05
2.40389e-05
1.89301e-05
1.39641e-05
9.16628e-06
4.57604e-06
5.06222e-07
-6.02731e-06
0.00280231
0.00248593
0.00214854
0.00185609
0.00159691
0.0013577
0.00114025
0.000950043
0.000789838
0.000659705
0.000558035
0.000481992
0.00042782
0.000391308
0.000368281
0.000354975
0.000348251
0.000345664
0.000345421
0.000346294
0.000347492
0.000348549
0.000349222
0.00034941
0.000349099
0.000348318
0.000347116
0.000345548
0.000343664
0.000341508
0.000339116
0.000336516
0.000333731
0.000330778
0.000327671
0.000324422
0.000321039
0.000317531
0.000313903
0.000310161
0.000306311
0.000302358
0.000298305
0.000294156
0.000289916
0.000285588
0.000281175
0.000276681
0.000272108
0.000267459
0.000262736
0.000257943
0.000253081
0.000248152
0.00024316
0.000238106
0.000232992
0.00022782
0.000222593
0.000217311
0.000211978
0.000206594
0.000201163
0.000195686
0.000190164
0.000184601
0.000178997
0.000173356
0.00016768
0.00016197
0.000156229
0.00015046
0.000144666
0.000138848
0.000133011
0.000127157
0.00012129
0.000115413
0.00010953
0.000103645
9.77626e-05
9.18872e-05
8.60241e-05
8.01787e-05
7.4357e-05
6.85651e-05
6.28104e-05
5.71002e-05
5.14427e-05
4.58469e-05
4.03226e-05
3.48807e-05
2.9533e-05
2.4293e-05
1.91763e-05
1.42016e-05
9.39234e-06
4.78682e-06
6.18797e-07
-7.00174e-06
0.00262963
0.00238211
0.00209605
0.00183207
0.00159305
0.00137137
0.00116806
0.000987828
0.000833615
0.000706033
0.000604103
0.000525693
0.000467774
0.000426802
0.000399132
0.000381378
0.000370628
0.000364542
0.00036135
0.000359784
0.000358994
0.00035844
0.00035781
0.000356941
0.000355765
0.00035427
0.000352473
0.000350402
0.000348089
0.000345561
0.000342846
0.000339961
0.000336924
0.000333747
0.00033044
0.00032701
0.000323465
0.000319808
0.000316045
0.000312181
0.000308218
0.000304161
0.000300012
0.000295776
0.000291455
0.000287051
0.000282568
0.000278008
0.000273374
0.000268668
0.000263892
0.000259048
0.000254139
0.000249167
0.000244133
0.00023904
0.000233889
0.000228682
0.000223422
0.000218109
0.000212746
0.000207334
0.000201876
0.000196373
0.000190828
0.000185241
0.000179616
0.000173954
0.000168257
0.000162528
0.000156769
0.000150983
0.000145172
0.000139338
0.000133485
0.000127616
0.000121735
0.000115844
0.000109947
0.000104049
9.81544e-05
9.22669e-05
8.63919e-05
8.0535e-05
7.47021e-05
6.88994e-05
6.3134e-05
5.74134e-05
5.17456e-05
4.61398e-05
4.06055e-05
3.51536e-05
2.97957e-05
2.45451e-05
1.94164e-05
1.44261e-05
9.591e-06
4.92718e-06
4.33546e-07
-8.66577e-06
0.00247702
0.00227898
0.00203881
0.00180464
0.00158655
0.00138223
0.00119311
0.00102336
0.000876022
0.000752109
0.000651112
0.000571444
0.000510688
0.000465901
0.000433965
0.000411901
0.000397081
0.000387328
0.000380943
0.000376667
0.000373613
0.000371188
0.000369014
0.00036687
0.000364634
0.00036225
0.000359698
0.00035698
0.000354104
0.000351083
0.000347932
0.000344659
0.000341275
0.000337786
0.000334197
0.000330512
0.000326734
0.000322867
0.000318912
0.000314872
0.000310749
0.000306545
0.000302261
0.0002979
0.000293464
0.000288955
0.000284373
0.000279722
0.000275003
0.000270218
0.000265369
0.000260457
0.000255484
0.000250451
0.000245361
0.000240215
0.000235014
0.00022976
0.000224455
0.000219101
0.000213698
0.00020825
0.000202756
0.00019722
0.000191642
0.000186026
0.000180372
0.000174682
0.00016896
0.000163206
0.000157423
0.000151614
0.000145781
0.000139926
0.000134054
0.000128166
0.000122266
0.000116357
0.000110443
0.000104529
9.86177e-05
9.27146e-05
8.68246e-05
8.0953e-05
7.51058e-05
6.92891e-05
6.351e-05
5.77759e-05
5.20948e-05
4.64757e-05
4.09281e-05
3.54627e-05
3.00908e-05
2.48249e-05
1.96778e-05
1.46614e-05
9.77832e-06
4.98991e-06
-1.93609e-08
-1.06561e-05
0.00234583
0.00218358
0.00198133
0.00177466
0.00157643
0.0013885
0.00121307
0.0010539
0.000913957
0.000794501
0.000695384
0.000615463
0.000552832
0.000505076
0.000469564
0.000443713
0.000425182
0.000411984
0.00040252
0.000395565
0.000390222
0.000385862
0.000382061
0.000378548
0.000375156
0.000371787
0.00036839
0.000364938
0.00036142
0.000357833
0.000354176
0.000350452
0.00034666
0.000342802
0.000338878
0.000334888
0.000330832
0.00032671
0.000322521
0.000318266
0.000313945
0.000309558
0.000305106
0.000300588
0.000296007
0.000291364
0.000286657
0.00028189
0.000277063
0.000272177
0.000267233
0.000262232
0.000257177
0.000252066
0.000246903
0.000241689
0.000236423
0.000231109
0.000225747
0.000220339
0.000214885
0.000209388
0.000203849
0.000198269
0.000192651
0.000186995
0.000181304
0.000175579
0.000169823
0.000164037
0.000158224
0.000152386
0.000146525
0.000140644
0.000134746
0.000128834
0.00012291
0.000116979
0.000111043
0.000105108
9.91765e-05
9.32537e-05
8.73446e-05
8.14544e-05
7.55889e-05
6.97545e-05
6.39579e-05
5.82064e-05
5.25082e-05
4.68719e-05
4.1307e-05
3.58238e-05
3.04329e-05
2.51458e-05
1.99725e-05
1.49172e-05
9.96038e-06
4.9849e-06
-6.27531e-07
-1.25089e-05
0.00223278
0.00209627
0.00192431
0.00174219
0.00156276
0.00139043
0.00122818
0.00107947
0.000947111
0.000832538
0.000735916
0.000656479
0.000592759
0.000542798
0.000504396
0.000475331
0.000453542
0.000437232
0.000424916
0.000415424
0.000407869
0.000401606
0.00039618
0.00039128
0.000386704
0.000382318
0.00037804
0.00037382
0.000369626
0.00036544
0.000361248
0.000357042
0.000352814
0.00034856
0.000344275
0.000339954
0.000335595
0.000331194
0.000326748
0.000322255
0.000317714
0.000313123
0.000308482
0.000303788
0.000299043
0.000294247
0.000289397
0.000284497
0.000279544
0.000274541
0.000269487
0.000264383
0.00025923
0.000254028
0.000248779
0.000243483
0.000238141
0.000232754
0.000227323
0.00022185
0.000216335
0.000210779
0.000205185
0.000199552
0.000193884
0.000188181
0.000182445
0.000176677
0.00017088
0.000165055
0.000159204
0.00015333
0.000147435
0.000141522
0.000135592
0.000129649
0.000123697
0.000117738
0.000111775
0.000105814
9.98574e-05
9.39103e-05
8.79775e-05
8.20642e-05
7.61762e-05
7.03196e-05
6.45011e-05
5.8728e-05
5.30083e-05
4.73503e-05
4.17634e-05
3.62573e-05
3.08419e-05
2.55271e-05
2.03188e-05
1.52119e-05
1.01595e-05
4.96344e-06
-1.21115e-06
-1.37664e-05
0.00213427
0.00201672
0.00186892
0.0017084
0.0015465
0.00138889
0.00123913
0.00110049
0.000975658
0.00086617
0.000772449
0.000694052
0.000629879
0.000578367
0.000537689
0.000505953
0.000481356
0.000462289
0.000447388
0.00043555
0.000425913
0.000417831
0.000410829
0.00040457
0.000398819
0.000393417
0.000388255
0.000383259
0.00037838
0.000373584
0.000368845
0.000364146
0.000359472
0.000354811
0.000350154
0.000345492
0.000340819
0.000336128
0.000331415
0.000326674
0.000321903
0.000317098
0.000312257
0.000307378
0.000302459
0.0002975
0.000292498
0.000287455
0.000282368
0.000277238
0.000272065
0.000266849
0.00026159
0.000256288
0.000250945
0.000245559
0.000240132
0.000234665
0.000229158
0.000223612
0.000218028
0.000212407
0.00020675
0.000201059
0.000195334
0.000189577
0.000183789
0.000177973
0.000172128
0.000166259
0.000160365
0.00015445
0.000148516
0.000142564
0.000136598
0.000130621
0.000124634
0.000118643
0.000112649
0.000106657
0.000100671
9.46955e-05
8.87348e-05
8.27943e-05
7.68795e-05
7.09966e-05
6.51522e-05
5.93532e-05
5.36076e-05
4.79236e-05
4.23099e-05
3.6776e-05
3.13307e-05
2.59817e-05
2.07308e-05
1.55622e-05
1.04032e-05
4.99346e-06
-1.59295e-06
-1.41206e-05
0.00204762
0.00194451
0.00181608
0.00167425
0.00152839
0.00138448
0.00124642
0.00111739
0.000999927
0.000895624
0.000805103
0.000728188
0.000664091
0.000611586
0.000569175
0.000535259
0.000508275
0.000486795
0.000469578
0.000455596
0.000444024
0.000434223
0.000425712
0.000418136
0.000411238
0.000404834
0.000398794
0.000393024
0.000387459
0.000382051
0.000376763
0.000371567
0.000366443
0.000361372
0.000356339
0.000351332
0.000346341
0.000341357
0.000336372
0.00033138
0.000326374
0.000321351
0.000316307
0.000311238
0.000306141
0.000301015
0.000295857
0.000290666
0.000285441
0.00028018
0.000274884
0.000269552
0.000264183
0.000258777
0.000253334
0.000247855
0.000242339
0.000236787
0.0002312
0.000225577
0.000219921
0.00021423
0.000208507
0.000202752
0.000196967
0.000191152
0.000185309
0.00017944
0.000173545
0.000167627
0.000161687
0.000155727
0.000149749
0.000143756
0.000137751
0.000131735
0.000125711
0.000119684
0.000113655
0.00010763
0.000101611
9.56035e-05
8.96115e-05
8.36405e-05
7.76957e-05
7.17832e-05
6.59093e-05
6.00811e-05
5.4306e-05
4.8592e-05
4.29476e-05
3.73815e-05
3.19015e-05
2.65131e-05
2.12139e-05
1.59786e-05
1.07156e-05
5.1352e-06
-1.65242e-06
-1.34898e-05
0.00197075
0.00187899
0.0017662
0.0016404
0.001509
0.00137772
0.00125058
0.00113065
0.00102034
0.000921244
0.000834133
0.000759047
0.000695464
0.000642443
0.000598775
0.000563121
0.000534139
0.000510571
0.000491299
0.000475374
0.000462016
0.000450606
0.000440663
0.000431821
0.000423809
0.000416424
0.000409519
0.000402983
0.000396736
0.000390717
0.00038488
0.000379188
0.000373613
0.00036813
0.00036272
0.000357367
0.000352057
0.000346777
0.000341519
0.000336273
0.000331032
0.000325789
0.000320539
0.000315278
0.000310002
0.000304707
0.000299391
0.000294051
0.000288685
0.000283292
0.000277871
0.00027242
0.000266939
0.000261427
0.000255884
0.000250309
0.000244702
0.000239064
0.000233394
0.000227693
0.000221962
0.0002162
0.000210409
0.000204589
0.000198741
0.000192866
0.000186966
0.000181041
0.000175094
0.000169125
0.000163136
0.00015713
0.000151107
0.000145071
0.000139023
0.000132967
0.000126904
0.000120839
0.000114773
0.000108712
0.000102658
9.66166e-05
9.05913e-05
8.45874e-05
7.86102e-05
7.26656e-05
6.67598e-05
6.08995e-05
5.50922e-05
4.93454e-05
4.36671e-05
3.80654e-05
3.2547e-05
2.71156e-05
2.1765e-05
1.64636e-05
1.1111e-05
5.42432e-06
-1.35079e-06
-1.20106e-05
0.00190202
0.00181944
0.00171942
0.0016073
0.00148881
0.00136909
0.00125208
0.00114073
0.0010373
0.000943372
0.000859808
0.000786823
0.000724116
0.00067099
0.000626483
0.00058949
0.000558868
0.000533518
0.000512442
0.000494774
0.000479783
0.000466876
0.000455583
0.000445534
0.000436447
0.000428109
0.000420355
0.000413064
0.000406142
0.000399517
0.000393133
0.000386945
0.000380918
0.000375023
0.000369236
0.000363535
0.000357905
0.00035233
0.000346797
0.000341296
0.000335817
0.000330354
0.000324898
0.000319443
0.000313986
0.000308521
0.000303046
0.000297556
0.000292048
0.000286522
0.000280975
0.000275405
0.000269811
0.000264191
0.000258546
0.000252875
0.000247176
0.00024145
0.000235697
0.000229917
0.000224109
0.000218275
0.000212414
0.000206528
0.000200617
0.000194681
0.000188723
0.000182742
0.000176741
0.00017072
0.000164682
0.000158627
0.000152558
0.000146478
0.000140387
0.000134289
0.000128186
0.000122081
0.000115978
0.000109879
0.000103789
9.77123e-05
9.16521e-05
8.56139e-05
7.96028e-05
7.36244e-05
6.76849e-05
6.17908e-05
5.59492e-05
5.01674e-05
4.44529e-05
3.88132e-05
3.32541e-05
2.77775e-05
2.23749e-05
1.70123e-05
1.15916e-05
5.86643e-06
-7.2477e-07
-9.96235e-06
0.00184016
0.00176516
0.0016757
0.00157528
0.00146822
0.00135902
0.00125137
0.00114805
0.00105119
0.000962335
0.000882393
0.000811717
0.000750183
0.000697303
0.000652326
0.000614352
0.000582417
0.000555573
0.000532935
0.000513717
0.000497247
0.000482962
0.000470405
0.000459212
0.000449097
0.000439836
0.000431257
0.000423225
0.000415637
0.000408412
0.000401484
0.000394803
0.000388327
0.00038202
0.000375854
0.000369806
0.000363854
0.000357982
0.000352173
0.000346416
0.000340699
0.000335013
0.00032935
0.000323701
0.000318062
0.000312426
0.000306789
0.000301148
0.000295498
0.000289837
0.000284163
0.000278472
0.000272764
0.000267037
0.000261289
0.00025552
0.000249729
0.000243915
0.000238077
0.000232217
0.000226333
0.000220425
0.000214494
0.000208541
0.000202566
0.000196569
0.000190551
0.000184514
0.000178458
0.000172385
0.000166296
0.000160193
0.000154078
0.000147952
0.000141817
0.000135676
0.000129532
0.000123388
0.000117246
0.000111109
0.000104982
9.88687e-05
9.27728e-05
8.66993e-05
8.06531e-05
7.46399e-05
6.86655e-05
6.27362e-05
5.68588e-05
5.10404e-05
4.52881e-05
3.96087e-05
3.40073e-05
2.84847e-05
2.30316e-05
1.7615e-05
1.21489e-05
6.44227e-06
1.40877e-07
-7.66582e-06
0.00178413
0.00171555
0.00163492
0.00154452
0.00144756
0.00134787
0.00124881
0.00115298
0.00106237
0.000978442
0.000902146
0.000833929
0.00077381
0.000721471
0.000676346
0.000637711
0.000604764
0.000576692
0.000552721
0.000532145
0.000514348
0.000498803
0.000485075
0.000472807
0.000461714
0.000451568
0.000442189
0.000433435
0.000425195
0.000417378
0.000409913
0.000402742
0.000395818
0.0003891
0.000382557
0.000376161
0.000369887
0.000363717
0.000357632
0.000351618
0.000345661
0.000339751
0.000333879
0.000328034
0.000322211
0.000316403
0.000310605
0.000304811
0.000299017
0.00029322
0.000287417
0.000281605
0.000275782
0.000269946
0.000264094
0.000258227
0.000252342
0.000246438
0.000240516
0.000234574
0.000228613
0.000222632
0.00021663
0.000210609
0.000204569
0.00019851
0.000192433
0.000186338
0.000180227
0.000174101
0.000167962
0.000161809
0.000155646
0.000149474
0.000143295
0.000137112
0.000130926
0.000124741
0.000118559
0.000112384
0.000106219
0.000100069
9.3936e-05
8.78264e-05
8.17443e-05
7.56953e-05
6.96849e-05
6.37194e-05
5.78051e-05
5.19489e-05
4.61576e-05
4.04372e-05
3.47926e-05
2.9224e-05
2.37227e-05
1.82599e-05
1.2768e-05
7.11832e-06
1.1457e-06
-5.39957e-06
0.00173313
0.00167004
0.0015969
0.00151511
0.00142705
0.00133593
0.00124474
0.00115587
0.00107115
0.000991984
0.000919314
0.000853656
0.00079514
0.00074359
0.000698594
0.000659582
0.000625894
0.000596844
0.000571756
0.000550006
0.000531033
0.000514351
0.000499546
0.000486276
0.00047426
0.000463269
0.000453121
0.000443668
0.000434791
0.000426394
0.0004184
0.000410745
0.000403377
0.000396252
0.000389333
0.000382589
0.000375994
0.000369525
0.000363163
0.000356891
0.000350694
0.000344559
0.000338476
0.000332435
0.000326427
0.000320445
0.000314483
0.000308535
0.000302596
0.000296662
0.00029073
0.000284795
0.000278855
0.000272908
0.000266952
0.000260985
0.000255005
0.000249012
0.000243003
0.00023698
0.00023094
0.000224884
0.000218811
0.000212721
0.000206615
0.000200493
0.000194356
0.000188203
0.000182036
0.000175857
0.000169665
0.000163463
0.000157252
0.000151033
0.000144809
0.000138582
0.000132354
0.000126127
0.000119905
0.000113691
0.000107488
0.000101299
9.51296e-05
8.8983e-05
8.28642e-05
7.67784e-05
7.07312e-05
6.47283e-05
5.87761e-05
5.28811e-05
4.70495e-05
4.12874e-05
3.55989e-05
2.99847e-05
2.44376e-05
1.89353e-05
1.34313e-05
7.85712e-06
2.19832e-06
-3.3552e-06
0.00168648
0.00162817
0.00156144
0.0014871
0.00140689
0.00132345
0.00123944
0.001157
0.00107783
0.00100323
0.00093413
0.000871088
0.00081432
0.000763761
0.000719131
0.000679991
0.000645809
0.000616007
0.000590008
0.000567259
0.000547258
0.000529558
0.000513773
0.000499577
0.000486697
0.000474908
0.000464026
0.000453899
0.000444404
0.000435442
0.00042693
0.000418799
0.000410992
0.000403463
0.000396171
0.000389082
0.000382166
0.0003754
0.000368761
0.00036223
0.000355792
0.000349431
0.000343137
0.000336897
0.000330703
0.000324547
0.00031842
0.000312316
0.000306231
0.000300158
0.000294095
0.000288036
0.000281979
0.00027592
0.000269858
0.00026379
0.000257714
0.000251629
0.000245534
0.000239427
0.000233308
0.000227175
0.00022103
0.000214871
0.000208698
0.000202512
0.000196314
0.000190102
0.000183879
0.000177645
0.0001714
0.000165148
0.000158887
0.000152622
0.000146352
0.00014008
0.000133809
0.00012754
0.000121277
0.000115023
0.00010878
0.000102553
9.63453e-05
9.01609e-05
8.40044e-05
7.7881e-05
7.17959e-05
6.57547e-05
5.97636e-05
5.38286e-05
4.79558e-05
4.21509e-05
3.64182e-05
3.07587e-05
2.51677e-05
1.96308e-05
1.41222e-05
8.62459e-06
3.22943e-06
-1.62999e-06
0.00164363
0.00158952
0.00152833
0.00146047
0.00138717
0.00131064
0.00123315
0.00115665
0.00108267
0.00101243
0.000946813
0.000886408
0.000831491
0.000782089
0.000738025
0.000698975
0.000664515
0.000634171
0.000607449
0.000583868
0.000562982
0.000544384
0.000527717
0.000512674
0.000498993
0.000486454
0.000474874
0.000464103
0.000454014
0.000444504
0.000435486
0.000426888
0.000418651
0.000410723
0.000403062
0.00039563
0.000388396
0.000381334
0.000374418
0.000367629
0.000360949
0.000354363
0.000347857
0.000341418
0.000335037
0.000328704
0.000322411
0.000316151
0.000309918
0.000303706
0.00029751
0.000291326
0.000285149
0.000278978
0.000272809
0.000266638
0.000260466
0.000254288
0.000248104
0.000241913
0.000235713
0.000229504
0.000223285
0.000217055
0.000210815
0.000204564
0.000198303
0.000192032
0.000185751
0.000179461
0.000173164
0.000166859
0.000160549
0.000154235
0.000147919
0.000141602
0.000135287
0.000128975
0.00012267
0.000116375
0.000110092
0.000103826
9.75784e-05
9.13552e-05
8.51601e-05
7.8998e-05
7.2874e-05
6.67935e-05
6.07622e-05
5.47862e-05
4.88712e-05
4.30227e-05
3.72451e-05
3.15405e-05
2.59069e-05
2.03377e-05
1.48261e-05
9.39359e-06
4.19467e-06
-2.44379e-07
0.00160411
0.00155373
0.00149738
0.00143519
0.001368
0.00129764
0.00122608
0.00115504
0.00108591
0.0010198
0.000957569
0.000899792
0.000846796
0.000798676
0.000755345
0.000716572
0.00068203
0.000651331
0.000624061
0.000599807
0.000578172
0.000558793
0.000541341
0.00052553
0.000511112
0.000497875
0.00048564
0.000474257
0.000463598
0.00045356
0.000444052
0.000435
0.000426341
0.000418022
0.000409997
0.000402227
0.000394677
0.00038732
0.000380129
0.000373083
0.000366163
0.00035935
0.000352632
0.000345994
0.000339425
0.000332915
0.000326456
0.000320038
0.000313656
0.000307303
0.000300973
0.000294662
0.000288366
0.000282081
0.000275803
0.000269529
0.000263258
0.000256987
0.000250714
0.000244437
0.000238156
0.000231868
0.000225574
0.000219273
0.000212964
0.000206648
0.000200323
0.000193991
0.000187651
0.000181305
0.000174953
0.000168596
0.000162236
0.000155872
0.000149508
0.000143145
0.000136785
0.00013043
0.000124082
0.000117745
0.000111421
0.000105113
9.88262e-05
9.25632e-05
8.63284e-05
8.01266e-05
7.39625e-05
6.78415e-05
6.1769e-05
5.57508e-05
4.97925e-05
4.38994e-05
3.80763e-05
3.23262e-05
2.66504e-05
2.10493e-05
1.55314e-05
1.01447e-05
5.07134e-06
8.30904e-07
0.00156755
0.0015205
0.0014684
0.00141118
0.00134941
0.00128459
0.00121841
0.00115239
0.00108777
0.00102556
0.000966587
0.000911405
0.00086037
0.00081363
0.000771167
0.000732831
0.000698376
0.000667492
0.000639836
0.000615054
0.000592801
0.000572753
0.000554613
0.000538115
0.000523026
0.000509145
0.000496298
0.000484337
0.000473137
0.000462592
0.000452611
0.000443119
0.00043405
0.000425348
0.000416966
0.000408862
0.000401001
0.000393353
0.000385889
0.000378587
0.000371427
0.000364389
0.000357459
0.000350621
0.000343864
0.000337177
0.00033055
0.000323974
0.000317443
0.000310947
0.000304483
0.000298045
0.000291628
0.000285227
0.000278839
0.000272462
0.000266091
0.000259725
0.000253361
0.000246998
0.000240634
0.000234267
0.000227897
0.000221523
0.000215145
0.000208761
0.000202372
0.000195978
0.000189579
0.000183176
0.000176768
0.000170358
0.000163945
0.000157532
0.000151119
0.000144709
0.000138303
0.000131903
0.000125511
0.000119131
0.000112765
0.000106416
0.000100087
9.37834e-05
8.75078e-05
8.12651e-05
7.50598e-05
6.88971e-05
6.27822e-05
5.67206e-05
5.07178e-05
4.47791e-05
3.89096e-05
3.31135e-05
2.73948e-05
2.17602e-05
1.62293e-05
1.08656e-05
5.85277e-06
1.64896e-06
0.00153361
0.00148955
0.00144122
0.0013884
0.00133144
0.00127158
0.00121028
0.00114886
0.00108842
0.0010299
0.000974044
0.000921403
0.000872343
0.000827052
0.000785567
0.000747803
0.000713583
0.000682664
0.000654767
0.000629594
0.000606847
0.000586239
0.000567504
0.000550398
0.000534705
0.000520235
0.000506821
0.000494319
0.000482608
0.000471581
0.000461148
0.000451231
0.000441763
0.000432689
0.000423958
0.000415527
0.00040736
0.000399424
0.000391691
0.000384136
0.000376737
0.000369475
0.000362333
0.000355297
0.000348352
0.000341487
0.000334693
0.000327958
0.000321276
0.000314638
0.000308039
0.000301472
0.000294932
0.000288416
0.000281917
0.000275434
0.000268963
0.000262501
0.000256046
0.000249595
0.000243147
0.0002367
0.000230253
0.000223805
0.000217356
0.000210904
0.00020445
0.000197993
0.000191533
0.000185071
0.000178608
0.000172143
0.000165677
0.000159213
0.000152751
0.000146292
0.000139839
0.000133393
0.000126957
0.000120533
0.000114123
0.000107732
0.000101361
9.50149e-05
8.86973e-05
8.24125e-05
7.61649e-05
6.99593e-05
6.38007e-05
5.76945e-05
5.1646e-05
4.56606e-05
3.97436e-05
3.39004e-05
2.81375e-05
2.24662e-05
1.69136e-05
1.15494e-05
6.54245e-06
2.2678e-06
0.00150201
0.00146066
0.00141568
0.00136676
0.00131409
0.00125869
0.00120181
0.0011446
0.00108805
0.00103298
0.000980102
0.000929933
0.000882843
0.000839047
0.000798624
0.000761543
0.000727683
0.000696863
0.000668857
0.000643418
0.000620292
0.000599228
0.000579988
0.000562353
0.000546123
0.00053112
0.000517186
0.000504183
0.000491992
0.000480509
0.000469644
0.00045932
0.000449469
0.000440033
0.000430963
0.000422213
0.000413745
0.000405527
0.000397528
0.000389722
0.000382087
0.000374603
0.000367251
0.000360017
0.000352884
0.000345843
0.00033888
0.000331986
0.000325153
0.000318373
0.000311638
0.000304942
0.000298279
0.000291645
0.000285036
0.000278446
0.000271873
0.000265314
0.000258766
0.000252227
0.000245694
0.000239166
0.000232641
0.000226119
0.000219598
0.000213077
0.000206556
0.000200035
0.000193514
0.000186993
0.000180471
0.000173951
0.000167432
0.000160915
0.000154403
0.000147895
0.000141393
0.000134901
0.000128419
0.000121949
0.000115496
0.00010906
0.000102646
9.62571e-05
8.98965e-05
8.35684e-05
7.72772e-05
7.10275e-05
6.4824e-05
5.86718e-05
5.25764e-05
4.65429e-05
4.05772e-05
3.46855e-05
2.88763e-05
2.31642e-05
1.75802e-05
1.21933e-05
7.14937e-06
2.73951e-06
0.00147251
0.00143361
0.00139164
0.0013462
0.00129736
0.00124597
0.0011931
0.00113975
0.00108679
0.00103496
0.00098491
0.000937131
0.000891988
0.000849713
0.000810415
0.000774107
0.000740716
0.00071011
0.000682113
0.000656523
0.000633125
0.000611702
0.000592046
0.000573958
0.000557257
0.000541777
0.00052737
0.000513906
0.000501269
0.000489358
0.000478084
0.000467372
0.000457153
0.000447369
0.00043797
0.000428909
0.000420148
0.000411653
0.000403393
0.000395341
0.000387473
0.000379768
0.000372209
0.000364777
0.000357458
0.00035024
0.00034311
0.000336057
0.000329073
0.000322149
0.000315278
0.000308452
0.000301666
0.000294915
0.000288193
0.000281496
0.000274821
0.000268164
0.000261523
0.000254894
0.000248275
0.000241665
0.000235061
0.000228463
0.000221869
0.000215278
0.00020869
0.000202104
0.000195521
0.000188939
0.000182359
0.000175782
0.000169208
0.000162639
0.000156074
0.000149516
0.000142966
0.000136425
0.000129896
0.000123381
0.000116882
0.000110402
0.000103943
9.75097e-05
9.11048e-05
8.47323e-05
7.83963e-05
7.21011e-05
6.58514e-05
5.96521e-05
5.35083e-05
4.74255e-05
4.14096e-05
3.54676e-05
2.96094e-05
2.38516e-05
1.82265e-05
1.27976e-05
7.68469e-06
3.10577e-06
0.0014449
0.00140824
0.00136897
0.00132665
0.00128125
0.00123347
0.00118423
0.00113441
0.00108477
0.00103597
0.000988602
0.000943124
0.000899892
0.000859145
0.000821017
0.000785554
0.000752722
0.000722431
0.000694547
0.000668909
0.000645338
0.000623648
0.000603658
0.000585192
0.000568084
0.000552183
0.000537352
0.000523468
0.000510419
0.000498109
0.000486452
0.000475371
0.000464802
0.000454684
0.000444967
0.000435606
0.00042656
0.000417795
0.000409279
0.000400985
0.000392887
0.000384966
0.0003772
0.000369573
0.000362069
0.000354675
0.000347378
0.000340167
0.000333033
0.000325965
0.000318957
0.000312002
0.000305092
0.000298222
0.000291387
0.000284583
0.000277805
0.00027105
0.000264314
0.000257594
0.000250889
0.000244196
0.000237512
0.000230838
0.00022417
0.000217508
0.000210852
0.0002042
0.000197553
0.000190909
0.000184271
0.000177636
0.000171007
0.000164383
0.000157766
0.000151156
0.000144556
0.000137967
0.00013139
0.000124827
0.000118282
0.000111755
0.000105251
9.87723e-05
9.2322e-05
8.59039e-05
7.95218e-05
7.31799e-05
6.68827e-05
6.06349e-05
5.44414e-05
4.83078e-05
4.22401e-05
3.62458e-05
3.03356e-05
2.4527e-05
1.88512e-05
1.33641e-05
8.15971e-06
3.39761e-06
0.00141899
0.00138439
0.00134756
0.00130804
0.00126573
0.00122121
0.00117528
0.00112869
0.00108211
0.00103614
0.000991302
0.000948029
0.000906659
0.000867435
0.000830507
0.000795943
0.000763743
0.000733853
0.000706175
0.000680582
0.000656928
0.000635057
0.000614812
0.000596037
0.000578586
0.000562321
0.000547114
0.00053285
0.000519425
0.000506746
0.000494731
0.000483304
0.000472402
0.000461966
0.000451945
0.000442293
0.000432972
0.000423944
0.000415178
0.000406647
0.000398325
0.000390189
0.000382221
0.000374401
0.000366714
0.000359145
0.000351682
0.000344314
0.000337029
0.000329818
0.000322674
0.000315588
0.000308554
0.000301566
0.000294618
0.000287705
0.000280824
0.000273969
0.000267138
0.000260328
0.000253535
0.000246758
0.000239994
0.000233241
0.000226499
0.000219766
0.00021304
0.000206322
0.00019961
0.000192904
0.000186205
0.000179512
0.000172826
0.000166147
0.000159476
0.000152815
0.000146164
0.000139524
0.000132898
0.000126287
0.000119694
0.000113121
0.00010657
0.000100045
9.35477e-05
8.70827e-05
8.06533e-05
7.42635e-05
6.79174e-05
6.16197e-05
5.53752e-05
4.91892e-05
4.30679e-05
3.70191e-05
3.10537e-05
2.51891e-05
1.9454e-05
1.38956e-05
8.58472e-06
3.63699e-06
0.00139463
0.00136191
0.00132729
0.0012903
0.00125078
0.00120921
0.00116628
0.00112266
0.00107891
0.00103557
0.000993121
0.000951953
0.000912391
0.000874673
0.000838958
0.000805333
0.000773826
0.000744409
0.000717016
0.000691551
0.000667896
0.000645922
0.000625495
0.000606481
0.000588747
0.000572171
0.000556636
0.000542034
0.00052827
0.000515253
0.000502906
0.000491156
0.00047994
0.000469202
0.000458891
0.000448961
0.000439373
0.000430091
0.000421084
0.000412321
0.000403779
0.000395434
0.000387265
0.000379255
0.000371387
0.000363646
0.000356019
0.000348493
0.000341059
0.000333706
0.000326426
0.00031921
0.000312052
0.000304945
0.000297883
0.000290862
0.000283876
0.000276922
0.000269995
0.000263093
0.000256212
0.00024935
0.000242505
0.000235674
0.000228856
0.00022205
0.000215255
0.000208468
0.000201691
0.000194922
0.000188162
0.00018141
0.000174666
0.000167931
0.000161206
0.000154491
0.000147788
0.000141097
0.000134421
0.000127761
0.00012112
0.000114498
0.000107899
0.000101326
9.47815e-05
8.82684e-05
8.17904e-05
7.53514e-05
6.89552e-05
6.26062e-05
5.63091e-05
5.00692e-05
4.38924e-05
3.77868e-05
3.1763e-05
2.58373e-05
2.00354e-05
1.43953e-05
8.96857e-06
3.83905e-06
0.00137168
0.00134068
0.00130808
0.00127338
0.00123638
0.00119749
0.0011573
0.00111638
0.00107525
0.00103437
0.000994159
0.000954996
0.000917179
0.000880939
0.000846441
0.000813784
0.000783015
0.000754132
0.000727093
0.000701828
0.000678246
0.000656242
0.000635702
0.000616511
0.000598554
0.000581719
0.000565902
0.000551005
0.000536936
0.000523614
0.000510962
0.000498912
0.000487403
0.00047638
0.000465794
0.000455599
0.000445756
0.000436229
0.000426986
0.000418
0.000409243
0.000400693
0.000392328
0.000384132
0.000376085
0.000368174
0.000360384
0.000352703
0.00034512
0.000337625
0.000330209
0.000322864
0.000315582
0.000308356
0.000301181
0.00029405
0.00028696
0.000279906
0.000272883
0.000265888
0.000258919
0.000251972
0.000245044
0.000238135
0.000231241
0.000224361