/*--------------------------------*- C++ -*----------------------------------*\
| =========                 |                                                 |
| \\      /  F ield         | OpenFOAM: The Open Source CFD Toolbox           |
|  \\    /   O peration     | Version:  2.3.0                                 |
|   \\  /    A nd           | Web:      www.OpenFOAM.org                      |
|    \\/     M anipulation  |                                                 |
\*---------------------------------------------------------------------------*/
FoamFile
{
    version     2.0;
    format      ascii;
    class       surfaceScalarField;
    location    "0.75";
    object      phi_0;
}
// * * * * * * * * * * * * * * * * * * * * * * * * * * * * * * * * * * * * * //

dimensions      [0 3 -1 0 0 0 0];

internalField   nonuniform List<scalar> 
17305
(
2.83719e-08
2.87928e-09
-3.12512e-08
2.55081e-08
2.86378e-09
2.28206e-08
2.68753e-09
2.03431e-08
2.47748e-09
1.80918e-08
2.25135e-09
1.60772e-08
2.01462e-09
1.43017e-08
1.77544e-09
1.27601e-08
1.54159e-09
1.14405e-08
1.31962e-09
1.03256e-08
1.11488e-09
9.39435e-09
9.31273e-10
8.62325e-09
7.71106e-10
7.98823e-09
6.35011e-10
7.46607e-09
5.22164e-10
7.03545e-09
4.30619e-10
6.67773e-09
3.57721e-10
6.37723e-09
3.00502e-10
6.12122e-09
2.56009e-10
5.89968e-09
2.21535e-10
5.70493e-09
1.94752e-10
5.53118e-09
1.7375e-10
5.37415e-09
1.57032e-10
5.23069e-09
1.43462e-10
5.09848e-09
1.32205e-10
4.97582e-09
1.2266e-10
4.86142e-09
1.14405e-10
4.75427e-09
1.07145e-10
4.6536e-09
1.00676e-10
4.55874e-09
9.48522e-11
4.46917e-09
8.95724e-11
4.38441e-09
8.47604e-11
4.30405e-09
8.03577e-11
4.22774e-09
7.63176e-11
4.15513e-09
7.26014e-11
4.08596e-09
6.91757e-11
4.01995e-09
6.60114e-11
3.95686e-09
6.30831e-11
3.8965e-09
6.03677e-11
3.83865e-09
5.7845e-11
3.78316e-09
5.54967e-11
3.72985e-09
5.33067e-11
3.67859e-09
5.12604e-11
3.62924e-09
4.93451e-11
3.58169e-09
4.75491e-11
3.53583e-09
4.58622e-11
3.49156e-09
4.42753e-11
3.44878e-09
4.27801e-11
3.40741e-09
4.13693e-11
3.36737e-09
4.00363e-11
3.3286e-09
3.87751e-11
3.29102e-09
3.75803e-11
3.25457e-09
3.64471e-11
3.2192e-09
3.53711e-11
3.18485e-09
3.43483e-11
3.15147e-09
3.3375e-11
3.11903e-09
3.24479e-11
3.08746e-09
3.1564e-11
3.05674e-09
3.07204e-11
3.02683e-09
2.99147e-11
2.99768e-09
2.91444e-11
2.96928e-09
2.84074e-11
2.94157e-09
2.77017e-11
2.91455e-09
2.70254e-11
2.88817e-09
2.6377e-11
2.86242e-09
2.57547e-11
2.83726e-09
2.51571e-11
2.81268e-09
2.45828e-11
2.78865e-09
2.40307e-11
2.76515e-09
2.34996e-11
2.74216e-09
2.29883e-11
2.71966e-09
2.24959e-11
2.69764e-09
2.20214e-11
2.67608e-09
2.1564e-11
2.65495e-09
2.11229e-11
2.63426e-09
2.06974e-11
2.61397e-09
2.02867e-11
2.59408e-09
1.98903e-11
2.57457e-09
1.95077e-11
2.55543e-09
1.91382e-11
2.53665e-09
1.87815e-11
2.51821e-09
1.84372e-11
2.50011e-09
1.81049e-11
2.48233e-09
1.77843e-11
2.46485e-09
1.74753e-11
2.44767e-09
1.71776e-11
2.43078e-09
1.68913e-11
2.41417e-09
1.66162e-11
2.39781e-09
1.63526e-11
2.38171e-09
1.61006e-11
2.36585e-09
1.58608e-11
2.35022e-09
1.56338e-11
2.3348e-09
1.5421e-11
2.31957e-09
1.52245e-11
2.30452e-09
1.50485e-11
2.28962e-09
1.4902e-11
2.27482e-09
1.48062e-11
2.25999e-09
1.48226e-11
2.24489e-09
1.51027e-11
2.22921e-09
1.568e-11
4.67011e-11
3.34103e-08
3.15067e-09
-3.36817e-08
3.28253e-08
3.44885e-09
3.20082e-08
3.50457e-09
3.1036e-08
3.44971e-09
2.9964e-08
3.32336e-09
2.88377e-08
3.14088e-09
2.76941e-08
2.91908e-09
2.65614e-08
2.67432e-09
2.54604e-08
2.42054e-09
2.44061e-08
2.16927e-09
2.34077e-08
1.92963e-09
2.24706e-08
1.70816e-09
2.15969e-08
1.5088e-09
2.07859e-08
1.33317e-09
2.00354e-08
1.18105e-09
1.93423e-08
1.05088e-09
1.87024e-08
9.40328e-10
1.81117e-08
8.46745e-10
1.75658e-08
7.67464e-10
1.70605e-08
7.00029e-10
1.6592e-08
6.42294e-10
1.61565e-08
5.92462e-10
1.57509e-08
5.49069e-10
1.53722e-08
5.1095e-10
1.50176e-08
4.77185e-10
1.4685e-08
4.47055e-10
1.43721e-08
4.19996e-10
1.40773e-08
3.95562e-10
1.37987e-08
3.73395e-10
1.35351e-08
3.53208e-10
1.32851e-08
3.34762e-10
1.30476e-08
3.17856e-10
1.28216e-08
3.02321e-10
1.26062e-08
2.88011e-10
1.24005e-08
2.74797e-10
1.2204e-08
2.6257e-10
1.20158e-08
2.51232e-10
1.18355e-08
2.40696e-10
1.16625e-08
2.30886e-10
1.14962e-08
2.21735e-10
1.13364e-08
2.13182e-10
1.11824e-08
2.05175e-10
1.10341e-08
1.97665e-10
1.08911e-08
1.90611e-10
1.07529e-08
1.83973e-10
1.06195e-08
1.77719e-10
1.04905e-08
1.71817e-10
1.03656e-08
1.6624e-10
1.02447e-08
1.60964e-10
1.01275e-08
1.55966e-10
1.00138e-08
1.51226e-10
9.90355e-09
1.46724e-10
9.79648e-09
1.42446e-10
9.69245e-09
1.38375e-10
9.59133e-09
1.34497e-10
9.49298e-09
1.30799e-10
9.39727e-09
1.27271e-10
9.30409e-09
1.239e-10
9.21333e-09
1.20678e-10
9.12488e-09
1.17595e-10
9.03864e-09
1.14643e-10
8.95453e-09
1.11814e-10
8.87246e-09
1.09101e-10
8.79234e-09
1.06497e-10
8.71409e-09
1.03996e-10
8.63766e-09
1.01592e-10
8.56296e-09
9.928e-11
8.48994e-09
9.70552e-11
8.41852e-09
9.49128e-11
8.34866e-09
9.28486e-11
8.2803e-09
9.08585e-11
8.21338e-09
8.89389e-11
8.14786e-09
8.70863e-11
8.08369e-09
8.52975e-11
8.02082e-09
8.35695e-11
7.9592e-09
8.18996e-11
7.89881e-09
8.02853e-11
7.83959e-09
7.87241e-11
7.78152e-09
7.72141e-11
7.72454e-09
7.57532e-11
7.66864e-09
7.43397e-11
7.61377e-09
7.2972e-11
7.55991e-09
7.16489e-11
7.50702e-09
7.03693e-11
7.45506e-09
6.91322e-11
7.40402e-09
6.79372e-11
7.35385e-09
6.67838e-11
7.30453e-09
6.56722e-11
7.25603e-09
6.46029e-11
7.20831e-09
6.35771e-11
7.16135e-09
6.25969e-11
7.1151e-09
6.1666e-11
7.06953e-09
6.07912e-11
7.0246e-09
5.99856e-11
6.98022e-09
5.92775e-11
6.93629e-09
5.87363e-11
6.89256e-09
5.85514e-11
6.84844e-09
5.92304e-11
6.79871e-09
6.54053e-11
1.17232e-10
3.48058e-08
2.99736e-09
-3.46525e-08
3.48707e-08
3.3839e-09
3.48096e-08
3.56573e-09
3.46279e-08
3.63138e-09
3.43363e-08
3.61493e-09
3.39491e-08
3.52808e-09
3.34837e-08
3.38455e-09
3.29577e-08
3.20028e-09
3.23879e-08
2.99031e-09
3.17892e-08
2.76797e-09
3.11743e-08
2.54451e-09
3.05537e-08
2.32878e-09
2.99355e-08
2.127e-09
2.93258e-08
1.94285e-09
2.8729e-08
1.77786e-09
2.8148e-08
1.63193e-09
2.75845e-08
1.50384e-09
2.70394e-08
1.39177e-09
2.65133e-08
1.29364e-09
2.60059e-08
1.20739e-09
2.55171e-08
1.13114e-09
2.50463e-08
1.06325e-09
2.4593e-08
1.00235e-09
2.41566e-08
9.47322e-10
2.37365e-08
8.97285e-10
2.33321e-08
8.51522e-10
2.29426e-08
8.09468e-10
2.25675e-08
7.70671e-10
2.22061e-08
7.34761e-10
2.18579e-08
7.01436e-10
2.15222e-08
6.70441e-10
2.11985e-08
6.41558e-10
2.08862e-08
6.14599e-10
2.05848e-08
5.89396e-10
2.02938e-08
5.65803e-10
2.00127e-08
5.43686e-10
1.9741e-08
5.22926e-10
1.94783e-08
5.03416e-10
1.92241e-08
4.85058e-10
1.89781e-08
4.67762e-10
1.87398e-08
4.51449e-10
1.8509e-08
4.36045e-10
1.82851e-08
4.21482e-10
1.80681e-08
4.07701e-10
1.78574e-08
3.94644e-10
1.76528e-08
3.82261e-10
1.74542e-08
3.70505e-10
1.72611e-08
3.59334e-10
1.70733e-08
3.48708e-10
1.68907e-08
3.38591e-10
1.6713e-08
3.28951e-10
1.65399e-08
3.19757e-10
1.63714e-08
3.10981e-10
1.62072e-08
3.02597e-10
1.60471e-08
2.94581e-10
1.5891e-08
2.8691e-10
1.57387e-08
2.79565e-10
1.55901e-08
2.72527e-10
1.5445e-08
2.65777e-10
1.53033e-08
2.593e-10
1.51648e-08
2.5308e-10
1.50295e-08
2.47103e-10
1.48973e-08
2.41355e-10
1.4768e-08
2.35825e-10
1.46414e-08
2.30501e-10
1.45177e-08
2.25371e-10
1.43965e-08
2.20427e-10
1.42779e-08
2.15658e-10
1.41618e-08
2.11056e-10
1.4048e-08
2.06613e-10
1.39365e-08
2.0232e-10
1.38273e-08
1.98171e-10
1.37202e-08
1.94158e-10
1.36153e-08
1.90276e-10
1.35123e-08
1.86518e-10
1.34113e-08
1.82879e-10
1.33123e-08
1.79354e-10
1.32151e-08
1.75938e-10
1.31196e-08
1.72627e-10
1.3026e-08
1.69416e-10
1.2934e-08
1.66303e-10
1.28437e-08
1.63283e-10
1.2755e-08
1.60354e-10
1.26679e-08
1.57514e-10
1.25822e-08
1.5476e-10
1.24981e-08
1.52092e-10
1.24153e-08
1.49507e-10
1.2334e-08
1.47007e-10
1.2254e-08
1.44591e-10
1.21753e-08
1.42262e-10
1.20979e-08
1.40023e-10
1.20217e-08
1.37882e-10
1.19466e-08
1.3585e-10
1.18727e-08
1.33952e-10
1.17997e-08
1.32242e-10
1.17276e-08
1.3085e-10
1.1656e-08
1.30142e-10
1.15839e-08
1.31325e-10
1.15065e-08
1.4284e-10
1.99306e-10
3.56409e-08
2.80558e-09
-3.54491e-08
3.58364e-08
3.18838e-09
3.59909e-08
3.41129e-09
3.60919e-08
3.53039e-09
3.61329e-08
3.57392e-09
3.611e-08
3.55096e-09
3.60237e-08
3.47079e-09
3.58782e-08
3.34579e-09
3.56797e-08
3.18887e-09
3.54356e-08
3.01207e-09
3.51539e-08
2.82616e-09
3.48426e-08
2.64014e-09
3.45087e-08
2.46085e-09
3.41587e-08
2.29292e-09
3.37976e-08
2.13894e-09
3.34296e-08
1.99986e-09
3.30581e-08
1.87541e-09
3.26853e-08
1.76456e-09
3.2313e-08
1.66588e-09
3.19427e-08
1.57778e-09
3.15751e-08
1.49872e-09
3.1211e-08
1.42733e-09
3.08509e-08
1.3624e-09
3.04953e-08
1.30295e-09
3.01444e-08
1.24815e-09
2.97986e-08
1.19737e-09
2.9458e-08
1.15008e-09
2.91228e-08
1.10588e-09
2.87931e-08
1.06441e-09
2.84691e-08
1.02542e-09
2.81509e-08
9.88683e-10
2.78384e-08
9.53996e-10
2.75318e-08
9.21201e-10
2.72311e-08
8.90151e-10
2.69362e-08
8.6072e-10
2.66471e-08
8.32793e-10
2.63637e-08
8.06267e-10
2.60861e-08
7.81047e-10
2.58141e-08
7.57048e-10
2.55477e-08
7.34191e-10
2.52867e-08
7.12404e-10
2.50311e-08
6.9162e-10
2.47808e-08
6.71778e-10
2.45357e-08
6.52821e-10
2.42957e-08
6.34698e-10
2.40606e-08
6.17359e-10
2.38303e-08
6.0076e-10
2.36048e-08
5.84858e-10
2.33839e-08
5.69616e-10
2.31675e-08
5.54996e-10
2.29555e-08
5.40965e-10
2.27477e-08
5.27491e-10
2.25442e-08
5.14545e-10
2.23447e-08
5.02099e-10
2.21491e-08
4.90127e-10
2.19574e-08
4.78606e-10
2.17695e-08
4.67511e-10
2.15852e-08
4.56823e-10
2.14044e-08
4.4652e-10
2.12272e-08
4.36584e-10
2.10532e-08
4.26997e-10
2.08826e-08
4.17743e-10
2.07152e-08
4.08804e-10
2.05508e-08
4.00167e-10
2.03895e-08
3.91817e-10
2.02311e-08
3.83741e-10
2.00756e-08
3.75926e-10
1.99229e-08
3.68361e-10
1.97729e-08
3.61033e-10
1.96256e-08
3.53933e-10
1.94809e-08
3.47051e-10
1.93387e-08
3.40377e-10
1.91989e-08
3.33901e-10
1.90616e-08
3.27616e-10
1.89266e-08
3.21514e-10
1.87939e-08
3.15586e-10
1.86634e-08
3.09827e-10
1.85351e-08
3.04229e-10
1.8409e-08
2.98786e-10
1.82849e-08
2.93494e-10
1.81629e-08
2.88346e-10
1.80428e-08
2.83338e-10
1.79247e-08
2.78467e-10
1.78085e-08
2.73728e-10
1.76941e-08
2.69119e-10
1.75816e-08
2.64637e-10
1.74708e-08
2.60282e-10
1.73618e-08
2.56054e-10
1.72544e-08
2.51953e-10
1.71487e-08
2.47982e-10
1.70445e-08
2.44147e-10
1.6942e-08
2.40458e-10
1.68409e-08
2.36934e-10
1.67412e-08
2.33613e-10
1.66429e-08
2.30573e-10
1.65457e-08
2.28011e-10
1.64494e-08
2.26476e-10
1.63529e-08
2.27872e-10
1.62541e-08
2.41593e-10
2.91782e-10
3.63928e-08
2.63761e-09
-3.62248e-08
3.65907e-08
2.99042e-09
3.67826e-08
3.21941e-09
3.69557e-08
3.35732e-09
3.71024e-08
3.42717e-09
3.72157e-08
3.43766e-09
3.72906e-08
3.39591e-09
3.73249e-08
3.31151e-09
3.73187e-08
3.19503e-09
3.72741e-08
3.05668e-09
3.71945e-08
2.90584e-09
3.70839e-08
2.75066e-09
3.69471e-08
2.59766e-09
3.67885e-08
2.45155e-09
3.66121e-08
2.31532e-09
3.64215e-08
2.19047e-09
3.62196e-08
2.07733e-09
3.60087e-08
1.97547e-09
3.57906e-08
1.88394e-09
3.55668e-08
1.80157e-09
3.53384e-08
1.72717e-09
3.51061e-08
1.65957e-09
3.48708e-08
1.59776e-09
3.46329e-08
1.54085e-09
3.43929e-08
1.48811e-09
3.41513e-08
1.43896e-09
3.39085e-08
1.39292e-09
3.36647e-08
1.34961e-09
3.34205e-08
1.3087e-09
3.31759e-08
1.26997e-09
3.29314e-08
1.23319e-09
3.26872e-08
1.1982e-09
3.24435e-08
1.16486e-09
3.22007e-08
1.13303e-09
3.19588e-08
1.10261e-09
3.17181e-08
1.0735e-09
3.14787e-08
1.04562e-09
3.12409e-08
1.01889e-09
3.10047e-08
9.9323e-10
3.07703e-08
9.68585e-10
3.05378e-08
9.44895e-10
3.03073e-08
9.22105e-10
3.00789e-08
9.00167e-10
2.98527e-08
8.79036e-10
2.96287e-08
8.58668e-10
2.94071e-08
8.39026e-10
2.91878e-08
8.20073e-10
2.89708e-08
8.01777e-10
2.87563e-08
7.84104e-10
2.85443e-08
7.67027e-10
2.83348e-08
7.50518e-10
2.81277e-08
7.34551e-10
2.79231e-08
7.19102e-10
2.77211e-08
7.04148e-10
2.75216e-08
6.89668e-10
2.73245e-08
6.75641e-10
2.713e-08
6.62048e-10
2.69379e-08
6.48871e-10
2.67484e-08
6.36093e-10
2.65613e-08
6.23697e-10
2.63766e-08
6.11667e-10
2.61943e-08
5.99989e-10
2.60145e-08
5.88649e-10
2.5837e-08
5.77632e-10
2.56619e-08
5.66927e-10
2.54891e-08
5.5652e-10
2.53187e-08
5.464e-10
2.51505e-08
5.36556e-10
2.49845e-08
5.26978e-10
2.48208e-08
5.17654e-10
2.46593e-08
5.08575e-10
2.44999e-08
4.99732e-10
2.43427e-08
4.91116e-10
2.41876e-08
4.82718e-10
2.40346e-08
4.74531e-10
2.38836e-08
4.66547e-10
2.37347e-08
4.58758e-10
2.35878e-08
4.51158e-10
2.34428e-08
4.43741e-10
2.32998e-08
4.36502e-10
2.31587e-08
4.29433e-10
2.30195e-08
4.22532e-10
2.28822e-08
4.15793e-10
2.27467e-08
4.09214e-10
2.2613e-08
4.02792e-10
2.24812e-08
3.96524e-10
2.2351e-08
3.90411e-10
2.22226e-08
3.84452e-10
2.20959e-08
3.78649e-10
2.19709e-08
3.73008e-10
2.18475e-08
3.67537e-10
2.17257e-08
3.62249e-10
2.16055e-08
3.5717e-10
2.14867e-08
3.5235e-10
2.13694e-08
3.47892e-10
2.12534e-08
3.44047e-10
2.11384e-08
3.41503e-10
2.10238e-08
3.42482e-10
2.09102e-08
3.55161e-10
3.92299e-10
3.71381e-08
2.49581e-09
-3.69963e-08
3.73153e-08
2.81323e-09
3.74994e-08
3.0353e-09
3.76783e-08
3.1784e-09
3.78457e-08
3.25976e-09
3.79956e-08
3.2878e-09
3.81228e-08
3.26871e-09
3.8224e-08
3.21032e-09
3.82975e-08
3.12151e-09
3.83432e-08
3.011e-09
3.83621e-08
2.88695e-09
3.83562e-08
2.75651e-09
3.83282e-08
2.62563e-09
3.8281e-08
2.49879e-09
3.82173e-08
2.37901e-09
3.81397e-08
2.26803e-09
3.80505e-08
2.16655e-09
3.79515e-08
2.0745e-09
3.78441e-08
1.99133e-09
3.77295e-08
1.91619e-09
3.76085e-08
1.84813e-09
3.74819e-08
1.78619e-09
3.73502e-08
1.72951e-09
3.72137e-08
1.67731e-09
3.70729e-08
1.62893e-09
3.6928e-08
1.58382e-09
3.67794e-08
1.54154e-09
3.66273e-08
1.50172e-09
3.64719e-08
1.46407e-09
3.63136e-08
1.42834e-09
3.61524e-08
1.39433e-09
3.59887e-08
1.36189e-09
3.58227e-08
1.33087e-09
3.56546e-08
1.30116e-09
3.54845e-08
1.27265e-09
3.53128e-08
1.24525e-09
3.51395e-08
1.21889e-09
3.49649e-08
1.19349e-09
3.47891e-08
1.169e-09
3.46124e-08
1.14535e-09
3.44348e-08
1.12249e-09
3.42565e-08
1.10039e-09
3.40777e-08
1.07899e-09
3.38985e-08
1.05826e-09
3.3719e-08
1.03816e-09
3.35393e-08
1.01867e-09
3.33597e-08
9.99746e-10
3.31801e-08
9.81371e-10
3.30006e-08
9.63518e-10
3.28215e-08
9.46162e-10
3.26427e-08
9.29283e-10
3.24644e-08
9.1286e-10
3.22867e-08
8.96875e-10
3.21095e-08
8.8131e-10
3.1933e-08
8.66149e-10
3.17573e-08
8.51376e-10
3.15824e-08
8.36976e-10
3.14083e-08
8.22937e-10
3.12351e-08
8.09244e-10
3.1063e-08
7.95885e-10
3.08918e-08
7.82848e-10
3.07216e-08
7.70122e-10
3.05526e-08
7.57696e-10
3.03847e-08
7.45559e-10
3.02179e-08
7.33703e-10
3.00523e-08
7.22116e-10
2.98879e-08
7.1079e-10
2.97247e-08
6.99717e-10
2.95628e-08
6.88887e-10
2.94022e-08
6.78293e-10
2.92428e-08
6.67927e-10
2.90848e-08
6.57782e-10
2.89281e-08
6.47849e-10
2.87727e-08
6.38123e-10
2.86186e-08
6.28597e-10
2.84659e-08
6.19264e-10
2.83145e-08
6.10119e-10
2.81645e-08
6.01156e-10
2.80159e-08
5.92371e-10
2.78686e-08
5.83758e-10
2.77227e-08
5.75313e-10
2.75782e-08
5.67032e-10
2.74351e-08
5.58914e-10
2.72934e-08
5.50954e-10
2.7153e-08
5.43152e-10
2.7014e-08
5.35507e-10
2.68764e-08
5.2802e-10
2.67402e-08
5.20692e-10
2.66053e-08
5.13528e-10
2.64718e-08
5.06534e-10
2.63396e-08
4.99723e-10
2.62087e-08
4.93112e-10
2.60792e-08
4.86733e-10
2.59509e-08
4.80645e-10
2.58238e-08
4.74971e-10
2.56979e-08
4.69993e-10
2.55729e-08
4.66442e-10
2.5449e-08
4.66401e-10
2.53285e-08
4.75651e-10
4.96602e-10
3.78888e-08
2.37431e-09
-3.77673e-08
3.80445e-08
2.65746e-09
3.82124e-08
2.8674e-09
3.83808e-08
3.01e-09
3.85437e-08
3.09691e-09
3.8696e-08
3.1355e-09
3.88334e-08
3.13131e-09
3.89528e-08
3.09094e-09
3.90524e-08
3.02193e-09
3.91315e-08
2.93189e-09
3.91905e-08
2.82796e-09
3.92305e-08
2.71651e-09
3.92532e-08
2.60292e-09
3.92606e-08
2.49138e-09
3.92548e-08
2.38484e-09
3.92376e-08
2.28515e-09
3.92109e-08
2.19326e-09
3.91761e-08
2.10935e-09
3.91342e-08
2.03316e-09
3.90863e-08
1.96411e-09
3.9033e-08
1.90146e-09
3.89747e-08
1.84444e-09
3.89119e-08
1.79231e-09
3.88448e-08
1.74439e-09
3.87737e-08
1.70008e-09
3.86986e-08
1.65889e-09
3.86198e-08
1.62037e-09
3.85373e-08
1.5842e-09
3.84513e-08
1.55007e-09
3.83619e-08
1.51776e-09
3.82692e-08
1.48705e-09
3.81733e-08
1.45779e-09
3.80743e-08
1.42984e-09
3.79724e-08
1.40308e-09
3.78676e-08
1.37741e-09
3.77602e-08
1.35273e-09
3.76501e-08
1.32896e-09
3.75375e-08
1.30605e-09
3.74226e-08
1.28392e-09
3.73054e-08
1.26252e-09
3.71861e-08
1.2418e-09
3.70648e-08
1.22172e-09
3.69416e-08
1.20223e-09
3.68165e-08
1.18331e-09
3.66898e-08
1.16491e-09
3.65614e-08
1.14701e-09
3.64316e-08
1.12958e-09
3.63004e-08
1.11259e-09
3.61679e-08
1.09603e-09
3.60341e-08
1.07987e-09
3.58993e-08
1.06409e-09
3.57635e-08
1.04868e-09
3.56268e-08
1.03361e-09
3.54892e-08
1.01889e-09
3.53509e-08
1.00448e-09
3.52119e-08
9.90379e-10
3.50723e-08
9.76575e-10
3.49322e-08
9.63055e-10
3.47916e-08
9.49809e-10
3.46506e-08
9.36827e-10
3.45094e-08
9.241e-10
3.43679e-08
9.11618e-10
3.42262e-08
8.99374e-10
3.40844e-08
8.87359e-10
3.39426e-08
8.75566e-10
3.38007e-08
8.63987e-10
3.36589e-08
8.52616e-10
3.35171e-08
8.41446e-10
3.33755e-08
8.3047e-10
3.32342e-08
8.19683e-10
3.3093e-08
8.09078e-10
3.29521e-08
7.9865e-10
3.28116e-08
7.88394e-10
3.26714e-08
7.78305e-10
3.25316e-08
7.68377e-10
3.23923e-08
7.58607e-10
3.22534e-08
7.48989e-10
3.21151e-08
7.39521e-10
3.19772e-08
7.30198e-10
3.184e-08
7.21017e-10
3.17033e-08
7.11976e-10
3.15673e-08
7.03072e-10
3.14319e-08
6.94304e-10
3.12972e-08
6.85671e-10
3.11631e-08
6.77172e-10
3.10298e-08
6.6881e-10
3.08973e-08
6.60585e-10
3.07655e-08
6.52504e-10
3.06344e-08
6.4457e-10
3.05042e-08
6.36796e-10
3.03747e-08
6.29193e-10
3.0246e-08
6.21786e-10
3.01181e-08
6.14611e-10
2.9991e-08
6.07733e-10
2.98647e-08
6.01284e-10
2.97392e-08
5.95545e-10
2.96144e-08
5.91181e-10
2.94911e-08
5.89788e-10
2.93723e-08
5.94402e-10
5.99243e-10
3.86465e-08
2.26799e-09
-3.85401e-08
3.87839e-08
2.52007e-09
3.89355e-08
2.71575e-09
3.90906e-08
2.85487e-09
3.92432e-08
2.94435e-09
3.93886e-08
2.99009e-09
3.9523e-08
2.99691e-09
3.96436e-08
2.97037e-09
3.97486e-08
2.9169e-09
3.98374e-08
2.84309e-09
3.99101e-08
2.75527e-09
3.99675e-08
2.65911e-09
4.00109e-08
2.55951e-09
4.00419e-08
2.46036e-09
4.00622e-08
2.36453e-09
4.00734e-08
2.27394e-09
4.0077e-08
2.18967e-09
4.00742e-08
2.11215e-09
4.00661e-08
2.04134e-09
4.00533e-08
1.97688e-09
4.00365e-08
1.91823e-09
4.00162e-08
1.86479e-09
3.99925e-08
1.81594e-09
3.99658e-08
1.7711e-09
3.99362e-08
1.72973e-09
3.99037e-08
1.69139e-09
3.98684e-08
1.65567e-09
3.98303e-08
1.62225e-09
3.97896e-08
1.59084e-09
3.97461e-08
1.56121e-09
3.97e-08
1.53318e-09
3.96512e-08
1.50656e-09
3.95998e-08
1.48122e-09
3.95459e-08
1.45704e-09
3.94894e-08
1.4339e-09
3.94304e-08
1.41173e-09
3.93689e-08
1.39044e-09
3.9305e-08
1.36995e-09
3.92387e-08
1.3502e-09
3.91701e-08
1.33114e-09
3.90992e-08
1.31271e-09
3.9026e-08
1.29487e-09
3.89507e-08
1.27757e-09
3.88732e-08
1.26078e-09
3.87937e-08
1.24446e-09
3.87121e-08
1.22859e-09
3.86285e-08
1.21312e-09
3.85431e-08
1.19805e-09
3.84558e-08
1.18334e-09
3.83667e-08
1.16897e-09
3.82758e-08
1.15492e-09
3.81833e-08
1.14119e-09
3.80892e-08
1.12774e-09
3.79935e-08
1.11457e-09
3.78964e-08
1.10165e-09
3.77977e-08
1.08899e-09
3.76978e-08
1.07656e-09
3.75965e-08
1.06436e-09
3.74939e-08
1.05237e-09
3.73901e-08
1.04059e-09
3.72852e-08
1.02901e-09
3.71792e-08
1.01761e-09
3.70722e-08
1.0064e-09
3.69642e-08
9.95358e-10
3.68553e-08
9.84485e-10
3.67455e-08
9.73772e-10
3.66349e-08
9.63214e-10
3.65235e-08
9.52804e-10
3.64115e-08
9.42538e-10
3.62988e-08
9.32409e-10
3.61854e-08
9.22414e-10
3.60715e-08
9.12547e-10
3.59571e-08
9.02804e-10
3.58422e-08
8.93181e-10
3.57269e-08
8.83674e-10
3.56113e-08
8.74279e-10
3.54953e-08
8.64994e-10
3.5379e-08
8.55815e-10
3.52624e-08
8.46739e-10
3.51457e-08
8.37765e-10
3.50288e-08
8.28891e-10
3.49117e-08
8.20115e-10
3.47946e-08
8.11438e-10
3.46774e-08
8.02859e-10
3.45602e-08
7.9438e-10
3.4443e-08
7.86004e-10
3.43258e-08
7.77733e-10
3.42088e-08
7.69575e-10
3.40918e-08
7.61537e-10
3.3975e-08
7.53632e-10
3.38583e-08
7.45875e-10
3.37418e-08
7.38293e-10
3.36255e-08
7.30925e-10
3.35094e-08
7.23839e-10
3.33935e-08
7.17162e-10
3.32779e-08
7.11144e-10
3.31628e-08
7.06296e-10
3.3049e-08
7.03551e-10
3.294e-08
7.0345e-10
6.94765e-10
3.94116e-08
2.17322e-09
-3.93169e-08
3.95338e-08
2.3979e-09
3.96708e-08
2.57876e-09
3.98131e-08
2.71256e-09
3.99548e-08
2.80268e-09
4.00914e-08
2.85343e-09
4.02195e-08
2.86887e-09
4.03362e-08
2.85361e-09
4.04401e-08
2.81307e-09
4.05302e-08
2.75298e-09
4.06066e-08
2.67886e-09
4.06699e-08
2.5958e-09
4.07212e-08
2.50823e-09
4.07618e-08
2.41976e-09
4.07932e-08
2.33315e-09
4.08168e-08
2.25034e-09
4.08339e-08
2.17252e-09
4.08458e-08
2.10031e-09
4.08533e-08
2.03384e-09
4.08572e-08
1.97297e-09
4.08581e-08
1.91733e-09
4.08564e-08
1.86648e-09
4.08524e-08
1.8199e-09
4.08464e-08
1.77712e-09
4.08385e-08
1.73769e-09
4.08287e-08
1.70118e-09
4.08171e-08
1.66726e-09
4.08037e-08
1.6356e-09
4.07886e-08
1.60596e-09
4.07717e-08
1.57809e-09
4.07531e-08
1.55182e-09
4.07327e-08
1.52697e-09
4.07105e-08
1.50342e-09
4.06865e-08
1.48103e-09
4.06607e-08
1.45971e-09
4.06331e-08
1.43935e-09
4.06036e-08
1.41988e-09
4.05723e-08
1.40122e-09
4.05393e-08
1.3833e-09
4.05043e-08
1.36607e-09
4.04676e-08
1.34947e-09
4.0429e-08
1.33346e-09
4.03886e-08
1.31798e-09
4.03464e-08
1.303e-09
4.03023e-08
1.28849e-09
4.02565e-08
1.27441e-09
4.02089e-08
1.26073e-09
4.01595e-08
1.24742e-09
4.01084e-08
1.23446e-09
4.00555e-08
1.22183e-09
4.0001e-08
1.2095e-09
3.99447e-08
1.19745e-09
3.98868e-08
1.18567e-09
3.98272e-08
1.17414e-09
3.9766e-08
1.16285e-09
3.97032e-08
1.15178e-09
3.96389e-08
1.14091e-09
3.9573e-08
1.13024e-09
3.95056e-08
1.11976e-09
3.94367e-08
1.10945e-09
3.93664e-08
1.09931e-09
3.92947e-08
1.08932e-09
3.92216e-08
1.07948e-09
3.91472e-08
1.06978e-09
3.90715e-08
1.06022e-09
3.89945e-08
1.05078e-09
3.89162e-08
1.04145e-09
3.88368e-08
1.03224e-09
3.87562e-08
1.02314e-09
3.86745e-08
1.01414e-09
3.85916e-08
1.00524e-09
3.85078e-08
9.96423e-10
3.84229e-08
9.87697e-10
3.8337e-08
9.79055e-10
3.82502e-08
9.70491e-10
3.81625e-08
9.62003e-10
3.80739e-08
9.53588e-10
3.79844e-08
9.45242e-10
3.78942e-08
9.36963e-10
3.78032e-08
9.2875e-10
3.77115e-08
9.206e-10
3.76191e-08
9.12514e-10
3.75261e-08
9.04491e-10
3.74324e-08
8.96531e-10
3.73381e-08
8.88638e-10
3.72433e-08
8.80814e-10
3.7148e-08
8.73064e-10
3.70522e-08
8.65394e-10
3.69559e-08
8.57815e-10
3.68592e-08
8.50339e-10
3.67621e-08
8.42985e-10
3.66646e-08
8.3578e-10
3.65667e-08
8.28764e-10
3.64686e-08
8.22003e-10
3.63701e-08
8.15607e-10
3.62715e-08
8.09771e-10
3.6173e-08
8.04805e-10
3.60756e-08
8.00975e-10
3.59821e-08
7.96926e-10
7.78787e-10
4.01848e-08
2.08745e-09
-4.00991e-08
4.02944e-08
2.28828e-09
4.04186e-08
2.45465e-09
4.05491e-08
2.582e-09
4.06804e-08
2.67135e-09
4.08084e-08
2.72552e-09
4.09295e-08
2.74775e-09
4.10412e-08
2.74185e-09
4.11419e-08
2.71236e-09
4.12307e-08
2.66417e-09
4.13075e-08
2.6021e-09
4.13726e-08
2.53067e-09
4.1427e-08
2.45387e-09
4.14717e-08
2.37504e-09
4.1508e-08
2.29681e-09
4.15373e-08
2.22109e-09
4.15607e-08
2.14916e-09
4.15792e-08
2.08174e-09
4.15939e-08
2.01916e-09
4.16055e-08
1.96142e-09
4.16145e-08
1.90832e-09
4.16214e-08
1.85954e-09
4.16266e-08
1.81471e-09
4.16303e-08
1.77343e-09
4.16326e-08
1.73532e-09
4.16338e-08
1.70003e-09
4.16338e-08
1.66724e-09
4.16327e-08
1.63668e-09
4.16306e-08
1.60809e-09
4.16274e-08
1.58128e-09
4.16232e-08
1.55607e-09
4.16178e-08
1.53228e-09
4.16115e-08
1.5098e-09
4.1604e-08
1.4885e-09
4.15954e-08
1.46828e-09
4.15857e-08
1.44905e-09
4.15749e-08
1.43072e-09
4.15629e-08
1.41322e-09
4.15497e-08
1.39648e-09
4.15353e-08
1.38045e-09
4.15197e-08
1.36507e-09
4.15029e-08
1.35029e-09
4.14848e-08
1.33607e-09
4.14655e-08
1.32236e-09
4.14448e-08
1.30913e-09
4.14229e-08
1.29635e-09
4.13996e-08
1.28398e-09
4.13751e-08
1.27199e-09
4.13492e-08
1.26037e-09
4.13219e-08
1.24907e-09
4.12933e-08
1.23809e-09
4.12634e-08
1.22739e-09
4.12321e-08
1.21697e-09
4.11994e-08
1.2068e-09
4.11654e-08
1.19687e-09
4.113e-08
1.18716e-09
4.10933e-08
1.17765e-09
4.10552e-08
1.16834e-09
4.10157e-08
1.15921e-09
4.09749e-08
1.15025e-09
4.09328e-08
1.14144e-09
4.08893e-08
1.13279e-09
4.08446e-08
1.12427e-09
4.07985e-08
1.11588e-09
4.07511e-08
1.10762e-09
4.07024e-08
1.09946e-09
4.06524e-08
1.09142e-09
4.06012e-08
1.08347e-09
4.05487e-08
1.07561e-09
4.0495e-08
1.06784e-09
4.04401e-08
1.06014e-09
4.0384e-08
1.05252e-09
4.03267e-08
1.04497e-09
4.02683e-08
1.03749e-09
4.02087e-08
1.03006e-09
4.0148e-08
1.02269e-09
4.00863e-08
1.01536e-09
4.00234e-08
1.00809e-09
3.99595e-08
1.00086e-09
3.98946e-08
9.93675e-10
3.98287e-08
9.8653e-10
3.97618e-08
9.79424e-10
3.96939e-08
9.72358e-10
3.96251e-08
9.65333e-10
3.95554e-08
9.5835e-10
3.94848e-08
9.51413e-10
3.94133e-08
9.44527e-10
3.9341e-08
9.37698e-10
3.92679e-08
9.30938e-10
3.9194e-08
9.24259e-10
3.91193e-08
9.17681e-10
3.90438e-08
9.1123e-10
3.89676e-08
9.04945e-10
3.88908e-08
8.98884e-10
3.88132e-08
8.93136e-10
3.87352e-08
8.87825e-10
3.86569e-08
8.83058e-10
3.85793e-08
8.7855e-10
3.85045e-08
8.71779e-10
8.48651e-10
4.09666e-08
2.0089e-09
-4.08881e-08
4.10658e-08
2.18906e-09
4.11787e-08
2.34174e-09
4.12987e-08
2.46208e-09
4.14204e-08
2.54959e-09
4.15401e-08
2.60588e-09
4.16544e-08
2.63342e-09
4.17609e-08
2.6353e-09
4.1858e-08
2.61527e-09
4.19447e-08
2.57748e-09
4.20207e-08
2.52611e-09
4.20863e-08
2.46514e-09
4.2142e-08
2.39816e-09
4.21888e-08
2.32823e-09
4.22278e-08
2.25781e-09
4.22601e-08
2.18878e-09
4.22868e-08
2.12244e-09
4.23089e-08
2.05963e-09
4.23273e-08
2.00078e-09
4.23427e-08
1.94603e-09
4.23557e-08
1.89534e-09
4.23667e-08
1.84849e-09
4.23762e-08
1.80522e-09
4.23844e-08
1.76523e-09
4.23915e-08
1.7282e-09
4.23977e-08
1.69384e-09
4.24031e-08
1.66187e-09
4.24077e-08
1.63205e-09
4.24117e-08
1.60416e-09
4.24149e-08
1.578e-09
4.24176e-08
1.55342e-09
4.24196e-08
1.53026e-09
4.2421e-08
1.5084e-09
4.24218e-08
1.48773e-09
4.24219e-08
1.46813e-09
4.24215e-08
1.44953e-09
4.24203e-08
1.43185e-09
4.24185e-08
1.41501e-09
4.24161e-08
1.39895e-09
4.24129e-08
1.38361e-09
4.2409e-08
1.36894e-09
4.24044e-08
1.35489e-09
4.23991e-08
1.34142e-09
4.23929e-08
1.32848e-09
4.2386e-08
1.31604e-09
4.23783e-08
1.30407e-09
4.23698e-08
1.29252e-09
4.23604e-08
1.28138e-09
4.23501e-08
1.27062e-09
4.2339e-08
1.26021e-09
4.23269e-08
1.25013e-09
4.2314e-08
1.24035e-09
4.23001e-08
1.23086e-09
4.22853e-08
1.22164e-09
4.22695e-08
1.21267e-09
4.22527e-08
1.20394e-09
4.22349e-08
1.19543e-09
4.22161e-08
1.18712e-09
4.21963e-08
1.179e-09
4.21755e-08
1.17107e-09
4.21536e-08
1.1633e-09
4.21307e-08
1.15569e-09
4.21068e-08
1.14822e-09
4.20818e-08
1.14089e-09
4.20557e-08
1.13369e-09
4.20286e-08
1.1266e-09
4.20004e-08
1.11963e-09
4.19711e-08
1.11275e-09
4.19407e-08
1.10597e-09
4.19093e-08
1.09928e-09
4.18768e-08
1.09266e-09
4.18432e-08
1.08612e-09
4.18085e-08
1.07964e-09
4.17728e-08
1.07323e-09
4.17359e-08
1.06687e-09
4.16981e-08
1.06056e-09
4.16591e-08
1.0543e-09
4.16192e-08
1.04808e-09
4.15781e-08
1.0419e-09
4.1536e-08
1.03575e-09
4.14929e-08
1.02964e-09
4.14488e-08
1.02355e-09
4.14037e-08
1.0175e-09
4.13575e-08
1.01149e-09
4.13104e-08
1.0055e-09
4.12622e-08
9.99549e-10
4.12131e-08
9.9364e-10
4.1163e-08
9.87778e-10
4.1112e-08
9.81974e-10
4.106e-08
9.76242e-10
4.10071e-08
9.706e-10
4.09532e-08
9.65073e-10
4.08985e-08
9.59697e-10
4.08429e-08
9.54519e-10
4.07864e-08
9.49603e-10
4.07292e-08
9.45001e-10
4.06716e-08
9.4065e-10
4.06143e-08
9.35887e-10
4.05584e-08
9.27708e-10
9.03557e-10
4.17577e-08
1.93629e-09
-4.16851e-08
4.18482e-08
2.09853e-09
4.19514e-08
2.23855e-09
4.20618e-08
2.3517e-09
4.21747e-08
2.43661e-09
4.22866e-08
2.49398e-09
4.23945e-08
2.52558e-09
4.24959e-08
2.53386e-09
4.25893e-08
2.5219e-09
4.26736e-08
2.49319e-09
4.27484e-08
2.45132e-09
4.28137e-08
2.3998e-09
4.28701e-08
2.3418e-09
4.29182e-08
2.28011e-09
4.2959e-08
2.21704e-09
4.29934e-08
2.15439e-09
4.30223e-08
2.09346e-09
4.30468e-08
2.03516e-09
4.30676e-08
1.98001e-09
4.30853e-08
1.92827e-09
4.31007e-08
1.87999e-09
4.31141e-08
1.83509e-09
4.31259e-08
1.79339e-09
4.31365e-08
1.75466e-09
4.3146e-08
1.71867e-09
4.31547e-08
1.68517e-09
4.31626e-08
1.65392e-09
4.317e-08
1.62473e-09
4.31767e-08
1.59739e-09
4.3183e-08
1.57172e-09
4.31888e-08
1.54759e-09
4.31943e-08
1.52485e-09
4.31993e-08
1.50339e-09
4.32039e-08
1.48309e-09
4.32082e-08
1.46387e-09
4.32121e-08
1.44563e-09
4.32156e-08
1.42831e-09
4.32188e-08
1.41184e-09
4.32216e-08
1.39615e-09
4.3224e-08
1.38118e-09
4.32261e-08
1.3669e-09
4.32277e-08
1.35324e-09
4.3229e-08
1.34018e-09
4.32298e-08
1.32766e-09
4.32302e-08
1.31565e-09
4.32301e-08
1.30412e-09
4.32296e-08
1.29304e-09
4.32286e-08
1.28238e-09
4.32271e-08
1.27211e-09
4.32251e-08
1.26221e-09
4.32226e-08
1.25265e-09
4.32195e-08
1.24342e-09
4.32159e-08
1.23449e-09
4.32117e-08
1.22585e-09
4.32069e-08
1.21748e-09
4.32015e-08
1.20936e-09
4.31954e-08
1.20147e-09
4.31887e-08
1.19381e-09
4.31814e-08
1.18636e-09
4.31733e-08
1.1791e-09
4.31646e-08
1.17202e-09
4.31552e-08
1.16512e-09
4.3145e-08
1.15838e-09
4.31341e-08
1.15178e-09
4.31225e-08
1.14533e-09
4.31101e-08
1.13901e-09
4.30969e-08
1.13281e-09
4.30829e-08
1.12673e-09
4.30682e-08
1.12074e-09
4.30526e-08
1.11486e-09
4.30362e-08
1.10907e-09
4.30189e-08
1.10335e-09
4.30009e-08
1.09772e-09
4.29819e-08
1.09215e-09
4.29622e-08
1.08665e-09
4.29415e-08
1.08121e-09
4.292e-08
1.07582e-09
4.28976e-08
1.07047e-09
4.28743e-08
1.06517e-09
4.28501e-08
1.05992e-09
4.28251e-08
1.0547e-09
4.27991e-08
1.04951e-09
4.27723e-08
1.04436e-09
4.27445e-08
1.03925e-09
4.27158e-08
1.03417e-09
4.26863e-08
1.02913e-09
4.26558e-08
1.02413e-09
4.26244e-08
1.01918e-09
4.2592e-08
1.01429e-09
4.25588e-08
1.00948e-09
4.25247e-08
1.00475e-09
4.24896e-08
1.00014e-09
4.24536e-08
9.95678e-10
4.24167e-08
9.91395e-10
4.2379e-08
9.87329e-10
4.23405e-08
9.83476e-10
4.23015e-08
9.79645e-10
4.22624e-08
9.74979e-10
4.22236e-08
9.66533e-10
9.44287e-10
4.25586e-08
1.86867e-09
-4.2491e-08
4.26418e-08
2.01534e-09
4.27365e-08
2.14381e-09
4.28384e-08
2.24985e-09
4.29433e-08
2.33166e-09
4.3048e-08
2.38928e-09
4.31497e-08
2.42388e-09
4.32462e-08
2.43737e-09
4.33359e-08
2.43226e-09
4.34176e-08
2.41144e-09
4.3491e-08
2.37799e-09
4.35558e-08
2.33495e-09
4.36125e-08
2.28515e-09
4.36615e-08
2.2311e-09
4.37036e-08
2.17493e-09
4.37396e-08
2.11836e-09
4.37704e-08
2.06268e-09
4.37967e-08
2.00881e-09
4.38194e-08
1.95735e-09
4.3839e-08
1.90865e-09
4.38561e-08
1.86286e-09
4.38712e-08
1.81998e-09
4.38847e-08
1.77991e-09