/*--------------------------------*- C++ -*----------------------------------*\
| =========                 |                                                 |
| \\      /  F ield         | OpenFOAM: The Open Source CFD Toolbox           |
|  \\    /   O peration     | Version:  2.3.0                                 |
|   \\  /    A nd           | Web:      www.OpenFOAM.org                      |
|    \\/     M anipulation  |                                                 |
\*---------------------------------------------------------------------------*/
FoamFile
{
    version     2.0;
    format      ascii;
    class       volScalarField;
    location    "0.5";
    object      p;
}
// * * * * * * * * * * * * * * * * * * * * * * * * * * * * * * * * * * * * * //

dimensions      [0 2 -2 0 0 0 0];

internalField   nonuniform List<scalar> 
3375
(
0.00223042
0.0016545
0.00118696
0.000850923
0.000574002
0.000326179
0.00010764
-7.70129e-05
-0.000226292
-0.000341273
-0.000424662
-0.000480435
-0.000513421
-0.000528727
-0.000531177
-0.000524928
-0.000513288
-0.000498702
-0.000482852
-0.000466803
-0.000451167
-0.000436242
-0.000422129
-0.000408817
-0.000396238
-0.000384303
-0.000372925
-0.000362024
-0.000351539
-0.000341419
-0.000331627
-0.000322137
-0.00031293
-0.000303991
-0.000295312
-0.000286886
-0.000278708
-0.000270773
-0.000263079
-0.000255624
-0.000248403
-0.000241415
-0.000234658
-0.000228128
-0.000221823
-0.00021574
-0.000209876
-0.000204228
-0.000198794
-0.000193569
-0.00018855
-0.000183734
-0.000179117
-0.000174694
-0.000170462
-0.000166415
-0.00016255
-0.00015886
-0.000155342
-0.000151988
-0.000148794
-0.000145753
-0.000142858
-0.000140102
-0.000137478
-0.000134977
-0.000132592
-0.000130313
-0.000128131
-0.000126035
-0.000124014
-0.000122057
-0.000120151
-0.000118284
-0.00011644
-0.000114605
-0.000112763
-0.000110896
-0.000108985
-0.000107012
-0.000104955
-0.000102792
-0.0001005
-9.8053e-05
-9.54236e-05
-9.25813e-05
-8.94915e-05
-8.61145e-05
-8.24046e-05
-7.83095e-05
-7.37711e-05
-6.8729e-05
-6.31248e-05
-5.691e-05
-5.00535e-05
-4.25465e-05
-3.44019e-05
-2.56442e-05
-1.62751e-05
-6.42533e-06
0.00195354
0.00154573
0.00116366
0.000859738
0.000597132
0.000356616
0.000141261
-4.27223e-05
-0.000192804
-0.000309488
-0.000395145
-0.0004535
-0.000489189
-0.000507168
-0.000512157
-0.000508244
-0.000498699
-0.000485953
-0.000471694
-0.000457003
-0.000442516
-0.00042856
-0.000415263
-0.000402639
-0.000390643
-0.000379206
-0.000368256
-0.000357728
-0.000347568
-0.000337735
-0.000328198
-0.000318936
-0.000309933
-0.00030118
-0.000292669
-0.000284396
-0.000276358
-0.000268552
-0.000260977
-0.000253631
-0.000246512
-0.000239619
-0.00023295
-0.000226502
-0.000220274
-0.000214263
-0.000208467
-0.000202883
-0.000197509
-0.000192341
-0.000187376
-0.000182611
-0.000178042
-0.000173665
-0.000169476
-0.000165471
-0.000161646
-0.000157994
-0.000154512
-0.000151193
-0.000148033
-0.000145024
-0.00014216
-0.000139434
-0.000136838
-0.000134366
-0.000132008
-0.000129755
-0.000127598
-0.000125526
-0.00012353
-0.000121596
-0.000119714
-0.000117869
-0.000116047
-0.000114234
-0.000112412
-0.000110566
-0.000108676
-0.000106722
-0.000104685
-0.000102542
-0.000100268
-9.78402e-05
-9.52293e-05
-9.24053e-05
-8.93339e-05
-8.59754e-05
-8.22844e-05
-7.82087e-05
-7.36903e-05
-6.86684e-05
-6.30842e-05
-5.68881e-05
-5.00474e-05
-4.25524e-05
-3.44156e-05
-2.56616e-05
-1.62813e-05
-6.49697e-06
0.00174779
0.00144693
0.00112527
0.000846573
0.000600205
0.000373863
0.000169578
-7.16328e-06
-0.000153607
-0.000269721
-0.000357204
-0.000419026
-0.000459074
-0.00048167
-0.000491062
-0.000491048
-0.000484763
-0.000474625
-0.000462378
-0.000449204
-0.000435846
-0.000422728
-0.000410061
-0.000397923
-0.000386313
-0.000375195
-0.000364517
-0.000354229
-0.000344285
-0.00033465
-0.000325295
-0.000316201
-0.000307355
-0.000298747
-0.000290371
-0.000282223
-0.000274302
-0.000266605
-0.00025913
-0.000251878
-0.000244847
-0.000238035
-0.000231442
-0.000225066
-0.000218905
-0.000212956
-0.000207219
-0.000201691
-0.000196369
-0.000191251
-0.000186332
-0.000181612
-0.000177085
-0.000172748
-0.000168597
-0.000164629
-0.000160838
-0.000157219
-0.000153769
-0.000150481
-0.000147349
-0.000144368
-0.000141532
-0.000138832
-0.000136262
-0.000133814
-0.00013148
-0.00012925
-0.000127115
-0.000125066
-0.000123091
-0.000121179
-0.000119317
-0.000117492
-0.00011569
-0.000113896
-0.000112094
-0.000110267
-0.000108396
-0.000106461
-0.000104442
-0.000102317
-0.000100062
-9.76522e-05
-9.50596e-05
-9.2254e-05
-8.92012e-05
-8.58618e-05
-8.21902e-05
-7.81343e-05
-7.36359e-05
-6.86337e-05
-6.30684e-05
-5.68897e-05
-5.00643e-05
-4.2582e-05
-3.44564e-05
-2.57156e-05
-1.63662e-05
-6.79224e-06
0.00157097
0.00133969
0.0010702
0.000820984
0.000595778
0.000387848
0.000198413
3.21322e-05
-0.000108048
-0.000221534
-0.000309357
-0.000373729
-0.00041776
-0.000445064
-0.000459327
-0.000463952
-0.000461842
-0.000455308
-0.000446084
-0.000435394
-0.000424051
-0.000412557
-0.000401198
-0.000390118
-0.000379372
-0.000368966
-0.000358883
-0.000349097
-0.000339584
-0.000330321
-0.000321291
-0.000312484
-0.000303893
-0.000295513
-0.000287342
-0.000279379
-0.000271626
-0.000264082
-0.000256748
-0.000249625
-0.000242712
-0.000236011
-0.000229519
-0.000223237
-0.000217164
-0.000211299
-0.000205639
-0.000200183
-0.000194929
-0.000189874
-0.000185016
-0.000180352
-0.000175879
-0.000171593
-0.000167491
-0.000163568
-0.000159821
-0.000156244
-0.000152833
-0.000149583
-0.000146488
-0.000143542
-0.000140738
-0.00013807
-0.000135531
-0.000133113
-0.000130807
-0.000128605
-0.000126498
-0.000124475
-0.000122525
-0.000120638
-0.0001188
-0.000116999
-0.000115221
-0.00011345
-0.000111671
-0.000109866
-0.000108017
-0.000106104
-0.000104108
-0.000102004
-9.97715e-05
-9.73836e-05
-9.48132e-05
-9.20302e-05
-8.90003e-05
-8.56842e-05
-8.20362e-05
-7.80041e-05
-7.35295e-05
-6.8551e-05
-6.3009e-05
-5.6853e-05
-5.00505e-05
-4.25924e-05
-3.44957e-05
-2.57967e-05
-1.65442e-05
-7.36446e-06
0.00141291
0.00123179
0.00100936
0.00079131
0.000588254
0.000398711
0.000224291
6.912e-05
-6.37749e-05
-0.00017339
-0.000260251
-0.000325986
-0.000373046
-0.0004044
-0.00042317
-0.000432326
-0.000434474
-0.000431755
-0.000425833
-0.000417929
-0.000408897
-0.000399303
-0.000389502
-0.000379703
-0.000370018
-0.000360501
-0.000351172
-0.000342034
-0.000333084
-0.000324317
-0.000315727
-0.000307314
-0.000299076
-0.000291015
-0.000283133
-0.000275434
-0.000267921
-0.000260596
-0.000253462
-0.000246523
-0.00023978
-0.000233234
-0.000226886
-0.000220738
-0.000214788
-0.000209037
-0.000203484
-0.000198128
-0.000192967
-0.000188
-0.000183223
-0.000178636
-0.000174235
-0.000170017
-0.000165979
-0.000162117
-0.000158427
-0.000154904
-0.000151545
-0.000148343
-0.000145294
-0.000142392
-0.000139631
-0.000137004
-0.000134503
-0.000132122
-0.000129852
-0.000127684
-0.00012561
-0.000123618
-0.0001217
-0.000119843
-0.000118034
-0.000116262
-0.000114512
-0.000112769
-0.000111017
-0.000109239
-0.000107417
-0.000105531
-0.000103561
-0.000101485
-9.92792e-05
-9.69185e-05
-9.43757e-05
-9.16207e-05
-8.86191e-05
-8.53317e-05
-8.17129e-05
-7.77104e-05
-7.3266e-05
-6.83187e-05
-6.28093e-05
-5.66887e-05
-4.99258e-05
-4.25149e-05
-3.44786e-05
-2.58699e-05
-1.68056e-05
-8.19953e-06
0.00127594
0.00113098
0.000947489
0.000758337
0.000576467
0.000404431
0.000244647
0.000100814
-2.4146e-05
-0.000128976
-0.000213812
-0.000279803
-0.000328848
-0.000363344
-0.000385893
-0.000399038
-0.000405079
-0.00040596
-0.00040324
-0.000398107
-0.000391431
-0.000383818
-0.000375675
-0.000367264
-0.000358748
-0.000350224
-0.000341746
-0.000333347
-0.000325044
-0.000316849
-0.000308771
-0.000300816
-0.000292993
-0.000285308
-0.000277769
-0.000270383
-0.000263157
-0.000256096
-0.000249206
-0.000242492
-0.000235956
-0.000229603
-0.000223434
-0.000217451
-0.000211657
-0.00020605
-0.000200632
-0.000195402
-0.000190359
-0.000185502
-0.000180829
-0.000176339
-0.00017203
-0.000167898
-0.000163941
-0.000160155
-0.000156537
-0.000153083
-0.000149788
-0.000146647
-0.000143656
-0.000140809
-0.000138099
-0.000135521
-0.000133067
-0.000130731
-0.000128503
-0.000126376
-0.000124341
-0.000122388
-0.000120505
-0.000118683
-0.000116909
-0.00011517
-0.000113452
-0.000111741
-0.00011002
-0.000108273
-0.000106482
-0.000104627
-0.000102687
-0.000100642
-9.84679e-05
-9.61393e-05
-9.36291e-05
-9.09072e-05
-8.79395e-05
-8.46867e-05
-8.11033e-05
-7.71376e-05
-7.27323e-05
-6.78273e-05
-6.23656e-05
-5.63001e-05
-4.96027e-05
-4.22718e-05
-3.43385e-05
-2.58782e-05
-1.70906e-05
-9.14443e-06
0.00115705
0.00103794
0.000885445
0.000722125
0.000560418
0.000405203
0.000259641
0.000127123
1.04002e-05
-8.90999e-05
-0.000171184
-0.000236588
-0.000286738
-0.000323536
-0.00034912
-0.000365643
-0.000375105
-0.000379246
-0.000379504
-0.000377012
-0.000372628
-0.000366979
-0.000360507
-0.000353515
-0.000346207
-0.000338717
-0.000331132
-0.00032351
-0.000315891
-0.000308302
-0.000300765
-0.000293299
-0.000285918
-0.000278636
-0.000271465
-0.000264418
-0.000257502
-0.000250729
-0.000244105
-0.000237636
-0.00023133
-0.000225189
-0.000219219
-0.000213422
-0.000207801
-0.000202357
-0.000197091
-0.000192004
-0.000187095
-0.000182364
-0.00017781
-0.000173433
-0.000169228
-0.000165196
-0.000161332
-0.000157635
-0.0001541
-0.000150724
-0.000147504
-0.000144433
-0.000141508
-0.000138724
-0.000136073
-0.000133551
-0.000131151
-0.000128865
-0.000126686
-0.000124605
-0.000122613
-0.000120701
-0.000118859
-0.000117075
-0.000115338
-0.000113635
-0.000111952
-0.000110275
-0.000108589
-0.000106875
-0.000105117
-0.000103296
-0.00010139
-9.93793e-05
-9.72399e-05
-9.4947e-05
-9.24736e-05
-8.97895e-05
-8.68608e-05
-8.36484e-05
-8.01076e-05
-7.61876e-05
-7.18325e-05
-6.69849e-05
-6.15903e-05
-5.56053e-05
-4.90055e-05
-4.17942e-05
-3.40118e-05
-2.5758e-05
-1.73062e-05
-9.95851e-06
0.00105275
0.000952598
0.0008247
0.000684041
0.000541176
0.000401902
0.000269899
0.000148375
3.99156e-05
-5.39523e-05
-0.000132768
-0.00019692
-0.000247436
-0.000285793
-0.000313723
-0.000333026
-0.00034542
-0.000352443
-0.000355403
-0.000355359
-0.000353142
-0.000349382
-0.00034454
-0.000338951
-0.000332849
-0.000326401
-0.00031972
-0.00031289
-0.000305969
-0.000299001
-0.00029202
-0.000285056
-0.00027813
-0.000271262
-0.000264472
-0.000257773
-0.00025118
-0.000244704
-0.000238356
-0.000232143
-0.000226075
-0.000220157
-0.000214395
-0.000208793
-0.000203354
-0.00019808
-0.000192975
-0.000188039
-0.000183272
-0.000178675
-0.000174248
-0.000169989
-0.000165897
-0.00016197
-0.000158206
-0.000154603
-0.000151157
-0.000147866
-0.000144724
-0.000141728
-0.000138874
-0.000136156
-0.000133568
-0.000131105
-0.000128761
-0.000126528
-0.000124399
-0.000122365
-0.000120419
-0.00011855
-0.000116748
-0.000115004
-0.000113304
-0.000111638
-0.00010999
-0.000108348
-0.000106695
-0.000105015
-0.000103291
-0.000101503
-9.96322e-05
-9.76568e-05
-9.55538e-05
-9.32988e-05
-9.08646e-05
-8.82216e-05
-8.53359e-05
-8.21694e-05
-7.86781e-05
-7.4813e-05
-7.05207e-05
-6.57468e-05
-6.04409e-05
-5.45636e-05
-4.80949e-05
-4.10431e-05
-3.34569e-05
-2.54556e-05
-1.7354e-05
-1.04171e-05
0.000960413
0.000874696
0.000766383
0.000645226
0.000519548
0.000395133
0.000275899
0.000164923
6.46307e-05
-2.3417e-05
-9.85629e-05
-0.000160912
-0.000211158
-0.000250415
-0.000280062
-0.000301582
-0.000316434
-0.000325958
-0.000331325
-0.000333514
-0.000333315
-0.000331343
-0.00032807
-0.000323847
-0.000318935
-0.000313522
-0.000307747
-0.000301714
-0.000295498
-0.000289158
-0.000282742
-0.000276286
-0.000269822
-0.000263376
-0.000256972
-0.000250628
-0.000244362
-0.000238189
-0.000232122
-0.000226171
-0.000220346
-0.000214655
-0.000209105
-0.000203702
-0.000198449
-0.000193351
-0.00018841
-0.000183628
-0.000179008
-0.000174548
-0.00017025
-0.000166113
-0.000162136
-0.000158318
-0.000154657
-0.00015115
-0.000147795
-0.000144589
-0.000141528
-0.000138608
-0.000135825
-0.000133175
-0.00013065
-0.000128247
-0.000125959
-0.000123778
-0.000121699
-0.000119712
-0.000117809
-0.000115982
-0.00011422
-0.000112513
-0.000110849
-0.000109217
-0.000107603
-0.000105993
-0.000104372
-0.000102724
-0.000101032
-9.92773e-05
-9.744e-05
-9.54992e-05
-9.34325e-05
-9.12154e-05
-8.88215e-05
-8.62213e-05
-8.33817e-05
-8.02653e-05
-7.683e-05
-7.30287e-05
-6.88112e-05
-6.41271e-05
-5.89302e-05
-5.31859e-05
-4.68785e-05
-4.00206e-05
-3.26666e-05
-2.49447e-05
-1.71684e-05
-1.04092e-05
0.000877988
0.000803635
0.000711041
0.000606469
0.000496191
0.000385466
0.000278166
0.000177226
8.49134e-05
2.77315e-06
-6.84053e-05
-0.000128503
-0.000177936
-0.000217515
-0.000248311
-0.000271526
-0.000288381
-0.000300029
-0.000307507
-0.000311703
-0.000313355
-0.000313056
-0.000311273
-0.000308368
-0.000304614
-0.00030022
-0.000295344
-0.000290106
-0.000284597
-0.00027889
-0.000273042
-0.0002671
-0.000261104
-0.000255085
-0.000249071
-0.000243088
-0.000237154
-0.000231288
-0.000225506
-0.000219821
-0.000214243
-0.000208783
-0.000203449
-0.000198248
-0.000193185
-0.000188265
-0.000183492
-0.000178868
-0.000174396
-0.000170076
-0.00016591
-0.000161897
-0.000158037
-0.000154329
-0.000150772
-0.000147363
-0.0001441
-0.00014098
-0.000138001
-0.000135157
-0.000132446
-0.000129862
-0.000127401
-0.000125057
-0.000122823
-0.000120694
-0.000118663
-0.000116721
-0.000114861
-0.000113073
-0.000111349
-0.000109677
-0.000108047
-0.000106447
-0.000104863
-0.000103284
-0.000101692
-0.000100074
-9.84117e-05
-9.66873e-05
-9.48816e-05
-9.29741e-05
-9.09426e-05
-8.87632e-05
-8.64099e-05
-8.38537e-05
-8.10625e-05
-7.80002e-05
-7.46265e-05
-7.08972e-05
-6.67655e-05
-6.21851e-05
-5.71149e-05
-5.15246e-05
-4.54025e-05
-3.87645e-05
-3.16666e-05
-2.42331e-05
-1.67382e-05
-9.97004e-06
0.000803846
0.000738707
0.000658883
0.000568352
0.000471706
0.000373459
0.000277224
0.000185752
0.000101149
2.49101e-05
-4.20977e-05
-9.95869e-05
-0.000147749
-0.00018714
-0.000218571
-0.000242997
-0.000261423
-0.000274828
-0.000284116
-0.000290084
-0.000293408
-0.000294651
-0.000294266
-0.000292613
-0.000289977
-0.000286576
-0.000282583
-0.000278132
-0.000273327
-0.000268253
-0.000262976
-0.000257552
-0.000252027
-0.000246439
-0.000240822
-0.000235203
-0.000229607
-0.000224054
-0.000218562
-0.000213146
-0.000207821
-0.000202596
-0.000197483
-0.000192488
-0.000187619
-0.000182882
-0.00017828
-0.000173817
-0.000169497
-0.00016532
-0.000161288
-0.000157402
-0.000153662
-0.000150066
-0.000146615
-0.000143305
-0.000140136
-0.000137104
-0.000134207
-0.000131441
-0.000128802
-0.000126286
-0.000123887
-0.000121602
-0.000119423
-0.000117346
-0.000115362
-0.000113464
-0.000111645
-0.000109896
-0.000108208
-0.00010657
-0.000104971
-0.000103402
-0.000101848
-0.000100296
-9.87327e-05
-9.71422e-05
-9.55081e-05
-9.38129e-05
-9.20378e-05
-9.01627e-05
-8.8166e-05
-8.60243e-05
-8.37122e-05
-8.12016e-05
-7.84616e-05
-7.54575e-05
-7.21512e-05
-6.85014e-05
-6.44651e-05
-6.00006e-05
-5.50711e-05
-4.96509e-05
-4.37317e-05
-3.73307e-05
-3.05017e-05
-2.33547e-05
-1.61016e-05
-9.23893e-06
0.000736697
0.000679217
0.00060991
0.000531269
0.000446591
0.000359608
0.00027355
0.000190941
0.000113716
4.32949e-05
-1.94216e-05
-7.40265e-05
-0.000120536
-0.000159298
-0.000190904
-0.000216095
-0.000235684
-0.000250491
-0.000261291
-0.000268787
-0.000273595
-0.000276235
-0.000277141
-0.000276665
-0.000275092
-0.000272648
-0.000269514
-0.000265835
-0.000261726
-0.00025728
-0.000252573
-0.000247667
-0.000242616
-0.000237463
-0.000232246
-0.000226996
-0.000221742
-0.000216506
-0.000211309
-0.000206169
-0.000201101
-0.000196117
-0.000191229
-0.000186446
-0.000181776
-0.000177226
-0.0001728
-0.000168503
-0.000164338
-0.000160308
-0.000156415
-0.00015266
-0.000149043
-0.000145563
-0.00014222
-0.000139013
-0.00013594
-0.000132999
-0.000130186
-0.0001275
-0.000124935
-0.000122488
-0.000120155
-0.000117929
-0.000115807
-0.000113781
-0.000111845
-0.000109993
-0.000108215
-0.000106505
-0.000104852
-0.000103248
-0.000101682
-0.000100142
-9.86171e-05
-9.70936e-05
-9.55579e-05
-9.3995e-05
-9.23891e-05
-9.07231e-05
-8.89787e-05
-8.71365e-05
-8.51754e-05
-8.30727e-05
-8.08038e-05
-7.83416e-05
-7.56563e-05
-7.27151e-05
-6.94823e-05
-6.59195e-05
-6.19877e-05
-5.76492e-05
-5.28719e-05
-4.76339e-05
-4.19294e-05
-3.57757e-05
-2.92211e-05
-2.23552e-05
-1.53232e-05
-8.38222e-06
0.000675505
0.000624524
0.000563998
0.000495458
0.000421235
0.000344343
0.000267581
0.000193209
0.000122985
5.82354e-05
-1.41849e-07
-5.16627e-05
-9.62105e-05
-0.000133968
-0.000165342
-0.000190893
-0.000211265
-0.000227132
-0.00023915
-0.000247932
-0.000254026
-0.000257909
-0.000259987
-0.000260598
-0.000260022
-0.000258488
-0.00025618
-0.00025325
-0.000249821
-0.000245993
-0.000241851
-0.000237461
-0.000232884
-0.000228167
-0.000223352
-0.000218475
-0.000213566
-0.000208652
-0.000203755
-0.000198896
-0.00019409
-0.000189352
-0.000184695
-0.000180129
-0.000175663
-0.000171304
-0.00016706
-0.000162934
-0.00015893
-0.000155053
-0.000151303
-0.000147683
-0.000144193
-0.000140833
-0.000137604
-0.000134503
-0.00013153
-0.000128683
-0.000125959
-0.000123354
-0.000120867
-0.000118492
-0.000116226
-0.000114063
-0.000111999
-0.000110028
-0.000108142
-0.000106336
-0.000104602
-0.000102932
-0.000101318
-9.97486e-05
-9.82154e-05
-9.67072e-05
-9.52123e-05
-9.37181e-05
-9.22113e-05
-9.06775e-05
-8.91012e-05
-8.7466e-05
-8.57542e-05
-8.3947e-05
-8.20239e-05
-7.99631e-05
-7.77407e-05
-7.53308e-05
-7.2705e-05
-6.98325e-05
-6.66797e-05
-6.32116e-05
-5.93927e-05
-5.51895e-05
-5.05738e-05
-4.55271e-05
-4.00457e-05
-3.41453e-05
-2.78671e-05
-2.1279e-05
-1.44687e-05
-7.53355e-06
0.000619428
0.000574051
0.000520952
0.000461035
0.000395928
0.000328027
0.000259705
0.000192942
0.000129313
7.00373e-05
1.59837e-05
-3.23215e-05
-7.46664e-05
-0.000111104
-0.000141893
-0.000167441
-0.000188245
-0.00020485
-0.000217803
-0.000227627
-0.000234806
-0.000239768
-0.000242888
-0.000244486
-0.000244831
-0.000244148
-0.000242623
-0.000240411
-0.00023764
-0.000234416
-0.000230826
-0.000226947
-0.000222839
-0.000218556
-0.000214143
-0.00020964
-0.00020508
-0.000200491
-0.000195898
-0.000191323
-0.000186784
-0.000182297
-0.000177877
-0.000173533
-0.000169277
-0.000165116
-0.000161058
-0.000157109
-0.000153272
-0.000149551
-0.00014595
-0.000142471
-0.000139113
-0.000135879
-0.000132767
-0.000129778
-0.00012691
-0.000124161
-0.000121529
-0.000119011
-0.000116605
-0.000114306
-0.00011211
-0.000110014
-0.000108011
-0.000106097
-0.000104265
-0.000102509
-0.000100821
-9.91943e-05
-9.76198e-05
-9.60887e-05
-9.45913e-05
-9.31171e-05
-9.1655e-05
-9.01928e-05
-8.87176e-05
-8.72155e-05
-8.56717e-05
-8.40703e-05
-8.23942e-05
-8.06253e-05
-7.8744e-05
-7.67291e-05
-7.45578e-05
-7.22054e-05
-6.96451e-05
-6.68477e-05
-6.37824e-05
-6.04169e-05
-5.67194e-05
-5.266e-05
-4.82143e-05
-4.33666e-05
-3.81142e-05
-3.24712e-05
-2.64708e-05
-2.01616e-05
-1.35902e-05
-6.76983e-06
0.000567768
0.000527288
0.000480545
0.000428034
0.000370877
0.000310961
0.000250264
0.000190493
0.000133037
7.89982e-05
2.92e-05
-1.58177e-05
-5.57797e-05
-9.06413e-05
-0.000120543
-0.000145766
-0.000166685
-0.000183727
-0.000197341
-0.00020797
-0.00021603
-0.000221902
-0.000225928
-0.000228402
-0.000229581
-0.000229682
-0.000228889
-0.000227356
-0.000225213
-0.00022257
-0.000219518
-0.000216136
-0.000212491
-0.000208637
-0.000204625
-0.000200495
-0.000196283
-0.000192021
-0.000187735
-0.000183448
-0.000179181
-0.000174949
-0.000170769
-0.000166653
-0.000162612
-0.000158655
-0.000154789
-0.000151021
-0.000147357
-0.0001438
-0.000140353
-0.000137019
-0.000133799
-0.000130695
-0.000127707
-0.000124834
-0.000122075
-0.000119429
-0.000116894
-0.000114468
-0.000112147
-0.000109928
-0.000107808
-0.000105781
-0.000103845
-0.000101992
-0.000100217
-9.85138e-05
-9.68759e-05
-9.52956e-05
-9.37649e-05
-9.22752e-05
-9.0817e-05
-8.93803e-05
-8.79544e-05
-8.65277e-05
-8.50876e-05
-8.3621e-05
-8.21135e-05
-8.05498e-05
-7.89137e-05
-7.71875e-05
-7.53526e-05
-7.33888e-05
-7.12742e-05
-6.89853e-05
-6.6497e-05
-6.37821e-05
-6.0812e-05
-5.75576e-05
-5.39899e-05
-5.00828e-05
-4.58148e-05
-4.11728e-05
-3.61547e-05
-3.07726e-05
-2.50524e-05
-1.90276e-05
-1.27206e-05
-6.11633e-06
0.000519942
0.000483786
0.000442539
0.000396431
0.000346218
0.000293381
0.000239552
0.000186177
0.000134466
8.54027e-05
3.97497e-05
-1.96005e-06
-3.9414e-05
-7.2497e-05
-0.000101259
-0.000125877
-0.000146623
-0.000163825
-0.000177843
-0.000189045
-0.000197785
-0.000204396
-0.000209183
-0.000212416
-0.000214334
-0.000215143
-0.000215021
-0.00021412
-0.000212569
-0.000210479
-0.000207944
-0.000205044
-0.000201849
-0.000198417
-0.000194799
-0.000191039
-0.000187175
-0.00018324
-0.000179262
-0.000175266
-0.000171272
-0.000167301
-0.000163366
-0.000159482
-0.000155661
-0.000151912
-0.000148244
-0.000144664
-0.000141177
-0.000137789
-0.000134502
-0.000131319
-0.000128243
-0.000125275
-0.000122415
-0.000119664
-0.00011702
-0.000114482
-0.000112049
-0.000109719
-0.000107488
-0.000105354
-0.000103314
-0.000101362
-9.9495e-05
-9.77075e-05
-9.59941e-05
-9.43486e-05
-9.27646e-05
-9.12351e-05
-8.97522e-05
-8.83077e-05
-8.68927e-05
-8.54976e-05
-8.4112e-05
-8.27249e-05
-8.13242e-05
-7.98974e-05
-7.84306e-05
-7.69094e-05
-7.5318e-05
-7.36398e-05
-7.18568e-05
-6.99497e-05
-6.7898e-05
-6.56795e-05
-6.32704e-05
-6.06457e-05
-5.77791e-05
-5.46441e-05
-5.12149e-05
-4.74683e-05
-4.33857e-05
-3.8956e-05
-3.41775e-05
-2.90602e-05
-2.3624e-05
-1.78923e-05
-1.18765e-05
-5.56507e-06
0.000475452
0.000443148
0.000406701
0.000366164
0.000322036
0.000275475
0.000227816
0.000180274
0.000133887
8.95211e-05
4.7871e-05
9.44698e-06
-2.54216e-05
-5.65724e-05
-8.39864e-05
-0.000107761
-0.00012808
-0.00014519
-0.000159373
-0.000170927
-0.00018015
-0.000187329
-0.000192732
-0.000196601
-0.000199156
-0.000200589
-0.000201071
-0.000200747
-0.000199744
-0.000198173
-0.000196127
-0.000193689
-0.000190929
-0.000187906
-0.000184674
-0.000181279
-0.000177759
-0.000174149
-0.000170478
-0.000166773
-0.000163056
-0.000159346
-0.000155661
-0.000152013
-0.000148417
-0.000144881
-0.000141416
-0.000138029
-0.000134725
-0.000131511
-0.000128389
-0.000125364
-0.000122437
-0.000119611
-0.000116885
-0.00011426
-0.000111736
-0.000109312
-0.000106987
-0.000104757
-0.000102622
-0.000100578
-9.8622e-05
-9.67499e-05
-9.49575e-05
-9.32401e-05
-9.15925e-05
-9.0009e-05
-8.84834e-05
-8.70089e-05
-8.55782e-05
-8.41834e-05
-8.2816e-05
-8.14668e-05
-8.0126e-05
-7.8783e-05
-7.74264e-05
-7.60441e-05
-7.46231e-05
-7.31494e-05
-7.16081e-05
-6.99834e-05
-6.82582e-05
-6.64143e-05
-6.44322e-05
-6.22911e-05
-5.9969e-05
-5.74426e-05
-5.46879e-05
-5.1681e-05
-4.83989e-05
-4.48211e-05
-4.09317e-05
-3.67208e-05
-3.21874e-05
-2.73394e-05
-2.21925e-05
-1.6764e-05
-1.10629e-05
-5.09406e-06
0.00043387
0.000405025
0.000372803
0.000337146
0.000298368
0.000257377
0.000215259
0.000173024
0.000131553
9.16013e-05
5.37902e-05
1.85968e-05
-1.36486e-05
-4.2755e-05
-6.86543e-05
-9.13814e-05
-0.000111052
-0.000127843
-0.000141969
-0.000153667
-0.000163184
-0.000170761
-0.000176631
-0.00018101
-0.000184095
-0.000186064
-0.000187074
-0.000187267
-0.000186764
-0.000185672
-0.000184084
-0.000182083
-0.000179737
-0.000177109
-0.000174252
-0.000171212
-0.000168031
-0.000164742
-0.000161378
-0.000157964
-0.000154525
-0.000151079
-0.000147645
-0.000144237
-0.000140869
-0.000137552
-0.000134294
-0.000131105
-0.00012799
-0.000124955
-0.000122005
-0.000119143
-0.000116371
-0.000113692
-0.000111106
-0.000108614
-0.000106216
-0.000103911
-0.000101698
-9.9575e-05
-9.75405e-05
-9.55915e-05
-9.37249e-05
-9.19372e-05
-9.02243e-05
-8.85819e-05
-8.70049e-05
-8.54881e-05
-8.40255e-05
-8.26108e-05
-8.1237e-05
-7.98965e-05
-7.85814e-05
-7.72829e-05
-7.59917e-05
-7.46977e-05
-7.33902e-05
-7.20576e-05
-7.06875e-05
-6.92668e-05
-6.77814e-05
-6.62162e-05
-6.45552e-05
-6.27811e-05
-6.08757e-05
-5.88196e-05
-5.65923e-05
-5.41726e-05
-5.15385e-05
-4.86686e-05
-4.55423e-05
-4.21418e-05
-3.84531e-05
-3.4468e-05
-3.01854e-05
-2.56121e-05
-2.07607e-05
-1.56454e-05
-1.02776e-05
-4.67901e-06
0.000394827
0.00036911
0.000340638
0.000309284
0.000275234
0.000239196
0.000202053
0.000164639
0.000127696
9.18736e-05
5.77199e-05
2.56728e-05
-3.94838e-06
-3.09385e-05
-5.51966e-05
-7.67112e-05
-9.55445e-05
-0.000111815
-0.000125682
-0.000137331
-0.00014696
-0.000154771
-0.000160962
-0.000165721
-0.000169224
-0.000171633
-0.000173093
-0.000173734
-0.000173674
-0.000173016
-0.000171848
-0.000170252
-0.000168297
-0.000166044
-0.000163546
-0.000160851
-0.000157999
-0.000155026
-0.000151964
-0.00014884
-0.000145677
-0.000142496
-0.000139315
-0.00013615
-0.000133014
-0.000129919
-0.000126874
-0.000123887
-0.000120966
-0.000118116
-0.000115343
-0.000112649
-0.000110038
-0.000107511
-0.000105071
-0.000102717
-0.000100451
-9.82707e-05
-9.61761e-05
-9.41655e-05
-9.22371e-05
-9.03884e-05
-8.86167e-05
-8.69186e-05
-8.52904e-05
-8.37279e-05
-8.22266e-05
-8.07815e-05
-7.93868e-05
-7.80367e-05
-7.67246e-05
-7.54435e-05
-7.41856e-05
-7.29428e-05
-7.17062e-05
-7.04664e-05
-6.92131e-05
-6.79356e-05
-6.66221e-05
-6.52602e-05
-6.38367e-05
-6.23373e-05
-6.0747e-05
-5.90497e-05
-5.72283e-05
-5.5265e-05
-5.31408e-05
-5.08362e-05
-4.83315e-05
-4.56074e-05
-4.26458e-05
-3.94309e-05
-3.59508e-05
-3.21984e-05
-2.8173e-05
-2.38802e-05
-1.93309e-05
-1.45383e-05
-9.51725e-06
-4.30114e-06
0.000357974
0.000335101
0.000309981
0.000282449
0.000252598
0.000220985
0.000188322
0.000155297
0.000122528
9.05651e-05
5.98893e-05
3.08933e-05
3.87765e-06
-2.09502e-05
-4.34693e-05
-6.36356e-05
-8.14699e-05
-9.70454e-05
-0.000110475
-0.000121897
-0.000131471
-0.00013936
-0.000145731
-0.000150745
-0.000154557
-0.000157311
-0.000159138
-0.000160161
-0.000160486
-0.000160212
-0.000159424
-0.000158201
-0.000156609
-0.000154709
-0.000152554
-0.00015019
-0.000147658
-0.000144994
-0.000142229
-0.00013939
-0.000136503
-0.000133587
-0.000130661
-0.00012774
-0.000124839
-0.000121969
-0.000119141
-0.000116362
-0.000113639
-0.00011098
-0.000108389
-0.000105869
-0.000103424
-0.000101057
-9.87679e-05
-9.65586e-05
-9.44293e-05
-9.23798e-05
-9.04092e-05
-8.85165e-05
-8.66998e-05
-8.4957e-05
-8.32855e-05
-8.16825e-05
-8.01443e-05
-7.86671e-05
-7.72467e-05
-7.58784e-05
-7.45569e-05
-7.32766e-05
-7.20313e-05
-7.08146e-05
-6.96191e-05
-6.84372e-05
-6.72605e-05
-6.60803e-05
-6.48869e-05
-6.36701e-05
-6.24191e-05
-6.11221e-05
-5.97668e-05
-5.83399e-05
-5.68273e-05
-5.5214e-05
-5.34844e-05
-5.16219e-05
-4.96091e-05
-4.74284e-05
-4.50621e-05
-4.24929e-05
-3.97048e-05
-3.66841e-05
-3.34205e-05
-2.99082e-05
-2.61465e-05
-2.21406e-05
-1.79004e-05
-1.34387e-05
-8.77412e-06
-3.94329e-06
0.000316484
0.000296699
0.000275155
0.000251668
0.000226258
0.000199338
0.00017146
0.000143164
0.000114943
8.72449e-05
6.04718e-05
3.49634e-05
1.09909e-05
-1.12455e-05
-3.16139e-05
-5.00452e-05
-6.6525e-05
-8.1085e-05
-9.37935e-05
-0.000104746
-0.000114057
-0.000121854
-0.000128266
-0.000133428
-0.000137468
-0.000140509
-0.000142667
-0.000144049
-0.000144754
-0.00014487
-0.000144478
-0.000143652
-0.000142454
-0.000140943
-0.000139169
-0.000137179
-0.000135011
-0.000132701
-0.000130281
-0.000127777
-0.000125213
-0.000122611
-0.000119987
-0.00011736
-0.000114741
-0.000112143
-0.000109576
-0.000107049
-0.000104569
-0.000102142
-9.9774e-05
-9.74682e-05
-9.52282e-05
-9.30563e-05
-9.09545e-05
-8.89239e-05
-8.6965e-05
-8.50777e-05
-8.32617e-05
-8.15159e-05
-7.98389e-05
-7.82288e-05
-7.66833e-05
-7.51998e-05
-7.37752e-05
-7.24059e-05
-7.10881e-05
-6.98174e-05
-6.85891e-05
-6.73981e-05
-6.62386e-05
-6.51047e-05
-6.39897e-05
-6.28866e-05
-6.17878e-05
-6.0685e-05
-5.95695e-05
-5.8432e-05
-5.72623e-05
-5.60499e-05
-5.47834e-05
-5.34506e-05
-5.20388e-05
-5.05344e-05
-4.89231e-05
-4.719e-05
-4.53199e-05
-4.3297e-05
-4.11058e-05
-3.87314e-05
-3.61601e-05
-3.33805e-05
-3.0384e-05
-2.71658e-05
-2.37258e-05
-2.00687e-05
-1.62037e-05
-1.21441e-05
-7.91134e-06
-3.53612e-06
0.000270443
0.000253911
0.00023606
0.000216707
0.000195825
0.000173705
0.000150758
0.000127387
0.000103968
8.08472e-05
5.8344e-05
3.67368e-05
1.62569e-05
-2.91551e-06
-2.06507e-05
-3.68668e-05
-5.15259e-05
-6.46275e-05
-7.62032e-05
-8.63095e-05
-9.50221e-05
-0.00010243
-0.00010863
-0.000113723
-0.000117811
-0.000120994
-0.000123367
-0.000125021
-0.000126041
-0.000126505
-0.000126485
-0.000126044
-0.000125244
-0.000124136
-0.000122767
-0.000121181
-0.000119415
-0.000117502
-0.000115472
-0.000113352
-0.000111163
-0.000108927
-0.000106662
-0.000104382
-0.000102101
-9.98302e-05
-9.75806e-05
-9.53602e-05
-9.31764e-05
-9.10354e-05
-8.89422e-05
-8.6901e-05
-8.49152e-05
-8.29873e-05
-8.11194e-05
-7.93127e-05
-7.7568e-05
-7.58854e-05
-7.42647e-05
-7.27052e-05
-7.12058e-05
-6.97649e-05
-6.83806e-05
-6.70505e-05
-6.5772e-05
-6.4542e-05
-6.3357e-05
-6.22133e-05
-6.11067e-05
-6.00326e-05
-5.89859e-05
-5.79614e-05
-5.69531e-05
-5.59547e-05
-5.49595e-05
-5.39601e-05
-5.29489e-05
-5.19174e-05
-5.08568e-05
-4.97577e-05
-4.86098e-05
-4.74026e-05
-4.61248e-05
-4.47646e-05
-4.33093e-05
-4.17463e-05
-4.00623e-05
-3.8244e-05
-3.62783e-05
-3.41528e-05
-3.18564e-05
-2.93797e-05
-2.6716e-05
-2.38617e-05
-2.08171e-05
-1.75869e-05
-1.41797e-05
-1.06089e-05
-6.89667e-06
-3.07067e-06
0.000224213
0.00021081
0.000196447
0.000180956
0.000164283
0.00014663
0.000128293
0.000109566
9.07221e-05
7.20215e-05
5.37071e-05
3.59979e-05
1.90814e-05
3.11105e-06
-1.17959e-05
-2.5557e-05
-3.81224e-05
-4.94721e-05
-5.96119e-05
-6.85692e-05
-7.63885e-05
-8.31277e-05
-8.88537e-05
-9.36395e-05
-9.7561e-05
-0.000100695
-0.000103117
-0.0001049
-0.000106113
-0.000106823
-0.000107089
-0.000106969
-0.000106512
-0.000105767
-0.000104774
-0.000103573
-0.000102198
-0.000100678
-9.90421e-05
-9.7313e-05
-9.55125e-05
-9.36595e-05
-9.17703e-05
-8.98596e-05
-8.794e-05
-8.60223e-05
-8.41162e-05
-8.22297e-05
-8.03699e-05
-7.85427e-05
-7.67529e-05
-7.50046e-05
-7.33012e-05
-7.16452e-05
-7.00386e-05
-6.84828e-05
-6.69787e-05
-6.55267e-05
-6.41267e-05
-6.27782e-05
-6.14804e-05
-6.02321e-05
-5.90316e-05
-5.78772e-05
-5.67664e-05
-5.56967e-05
-5.46653e-05
-5.36688e-05
-5.27036e-05
-5.17659e-05
-5.08513e-05
-4.99553e-05
-4.90727e-05
-4.81981e-05
-4.73258e-05
-4.64494e-05
-4.55623e-05
-4.46573e-05
-4.37268e-05