/*--------------------------------*- C++ -*----------------------------------*\
| =========                 |                                                 |
| \\      /  F ield         | OpenFOAM: The Open Source CFD Toolbox           |
|  \\    /   O peration     | Version:  2.3.0                                 |
|   \\  /    A nd           | Web:      www.OpenFOAM.org                      |
|    \\/     M anipulation  |                                                 |
\*---------------------------------------------------------------------------*/
FoamFile
{
    version     2.0;
    format      ascii;
    class       surfaceScalarField;
    location    "0.25";
    object      phi;
}
// * * * * * * * * * * * * * * * * * * * * * * * * * * * * * * * * * * * * * //

dimensions      [0 3 -1 0 0 0 0];

internalField   nonuniform List<scalar> 
396
(
1.32473e-07
2.5365e-09
-1.35009e-07
1.28408e-07
4.06519e-09
1.23725e-07
4.68271e-09
1.19432e-07
4.29272e-09
1.15007e-07
4.42557e-09
1.10718e-07
4.28851e-09
1.06986e-07
3.73187e-09
1.02685e-07
4.30107e-09
9.75055e-08
5.17979e-09
9.22776e-08
5.22794e-09
8.70303e-08
5.24728e-09
8.17196e-08
5.3107e-09
7.68211e-08
4.89846e-09
7.22357e-08
4.5854e-09
6.7596e-08
4.63968e-09
6.34053e-08
4.19071e-09
6.05931e-08
2.81225e-09
5.94138e-08
1.17925e-09
5.93783e-08
3.55684e-11
5.98184e-08
-4.40116e-10
6.0301e-08
-4.8266e-10
6.06633e-08
-3.62222e-10
6.08832e-08
-2.19899e-10
6.10171e-08
-1.33942e-10
-6.06131e-11
1.61754e-07
2.27212e-09
-1.6149e-07
1.62128e-07
3.69148e-09
1.6198e-07
4.83035e-09
1.61587e-07
4.68609e-09
1.61102e-07
4.90998e-09
1.60368e-07
5.02284e-09
1.59696e-07
4.40405e-09
1.59005e-07
4.99224e-09
1.57887e-07
6.29765e-09
1.56498e-07
6.61726e-09
1.54998e-07
6.74678e-09
1.53279e-07
7.02931e-09
1.51459e-07
6.71889e-09
1.4968e-07
6.36491e-09
1.47881e-07
6.43847e-09
1.4607e-07
6.00111e-09
1.44499e-07
4.38393e-09
1.43412e-07
2.26639e-09
1.42903e-07
5.44106e-10
1.42978e-07
-5.15052e-10
1.43421e-07
-9.2578e-10
1.44017e-07
-9.57868e-10
1.44546e-07
-7.49557e-10
1.44986e-07
-5.7336e-10
-2.88259e-10
1.92554e-07
2.31394e-09
-1.92596e-07
1.9297e-07
3.27567e-09
1.93508e-07
4.29262e-09
1.93698e-07
4.49553e-09
1.93768e-07
4.84018e-09
1.93671e-07
5.12032e-09
1.93431e-07
4.64337e-09
1.93443e-07
4.98056e-09
1.93578e-07
6.16239e-09
1.93616e-07
6.57972e-09
1.93671e-07
6.69201e-09
1.93672e-07
7.02822e-09
1.93498e-07
6.89238e-09
1.93333e-07
6.52982e-09
1.93286e-07
6.48621e-09
1.93206e-07
6.08077e-09
1.92923e-07
4.66683e-09
1.92463e-07
2.72678e-09
1.92032e-07
9.74388e-10
1.91747e-07
-2.29624e-10
1.91651e-07
-8.29371e-10
1.91677e-07
-9.83999e-10
1.91751e-07
-8.23731e-10
1.91839e-07
-6.61968e-10
-3.44374e-10
2.2945e-07
2.44891e-09
-2.29585e-07
2.29668e-07
3.05727e-09
2.30186e-07
3.77453e-09
2.30439e-07
4.24223e-09
2.30632e-07
4.64793e-09
2.30754e-07
4.99815e-09
2.30526e-07
4.87141e-09
2.30414e-07
5.09208e-09
2.30695e-07
5.88122e-09
2.31013e-07
6.26212e-09
2.31256e-07
6.44882e-09
2.31535e-07
6.74939e-09
2.3178e-07
6.64743e-09
2.32017e-07
6.29254e-09
2.3232e-07
6.18392e-09
2.32593e-07
5.80736e-09
2.32677e-07
4.58279e-09
2.32521e-07
2.88267e-09
2.32159e-07
1.33679e-09
2.31693e-07
2.35963e-10
2.3126e-07
-3.95764e-10
2.30927e-07
-6.51492e-10
2.30726e-07
-6.22428e-10
2.30627e-07
-5.63706e-10
-3.18369e-10
2.73493e-07
2.4493e-09
-2.73493e-07
2.73562e-07
2.98842e-09
2.73841e-07
3.49546e-09
2.74145e-07
3.93739e-09
2.74382e-07
4.41174e-09
2.74502e-07
4.87801e-09
2.74341e-07
5.03252e-09
2.7426e-07
5.17236e-09
2.74478e-07
5.66365e-09
2.74716e-07
6.02412e-09
2.74993e-07
6.1714e-09
2.75374e-07
6.3691e-09
2.7564e-07
6.3811e-09
2.75797e-07
6.13534e-09
2.76099e-07
5.88263e-09
2.7647e-07
5.43563e-09
2.766e-07
4.45325e-09
2.76398e-07
3.08457e-09
2.76002e-07
1.73236e-09
2.75558e-07
6.80445e-10
2.75163e-07
-4.09998e-13
2.74861e-07
-3.49609e-10
2.74671e-07
-4.32797e-10
2.74555e-07
-4.47731e-10
-2.72659e-10
3.32628e-07
2.41861e-09
-3.32598e-07
3.32634e-07
2.98262e-09
3.3274e-07
3.38956e-09
3.32866e-07
3.81168e-09
3.33032e-07
4.24518e-09
3.33298e-07
4.61193e-09
3.33317e-07
5.01411e-09
3.33201e-07
5.28824e-09
3.33376e-07
5.48792e-09
3.33661e-07
5.73916e-09
3.33847e-07
5.98617e-09
3.34069e-07
6.14663e-09
3.34323e-07
6.1277e-09
3.34567e-07
5.891e-09
3.34839e-07
5.61082e-09
3.35035e-07
5.23967e-09
3.35065e-07
4.42284e-09
3.34974e-07
3.17593e-09
3.3477e-07
1.93642e-09
3.34445e-07
1.00509e-09
3.34061e-07
3.83458e-10
3.33722e-07
-1.02216e-11
3.33485e-07
-1.96138e-10
3.33328e-07
-2.90533e-10
-2.00363e-10
6.66109e-07
-6.66016e-07
6.66166e-07
6.66236e-07
6.66368e-07
6.66592e-07
6.66787e-07
6.66769e-07
6.6666e-07
6.66764e-07
6.66904e-07
6.67023e-07
6.6733e-07
6.67653e-07
6.67717e-07
6.67741e-07
6.67965e-07
6.68151e-07
6.68e-07
6.67606e-07
6.67243e-07
6.67014e-07
6.6692e-07
6.66853e-07
6.66822e-07
1.37288e-07
-1.71663e-11
1.37215e-07
-8.21365e-10
1.37066e-07
-1.83231e-10
1.36741e-07
1.98289e-10
1.35958e-07
1.19535e-09
1.80767e-09
1.63128e-07
9.05567e-11
1.62843e-07
-5.35935e-10
1.62643e-07
1.68413e-11
1.62208e-07
6.33116e-10
1.61788e-07
1.61461e-09
2.10634e-09
1.94109e-07
1.02331e-10
1.9371e-07
-1.36608e-10
1.93491e-07
2.35391e-10
1.93077e-07
1.04788e-09
1.92825e-07
1.8665e-09
2.33498e-09
2.30793e-07
1.59798e-10
2.305e-07
1.55829e-10
2.30131e-07
6.04224e-10
2.29868e-07
1.31152e-09
2.29732e-07
2.00215e-09
2.48252e-09
2.7444e-07
2.482e-10
2.74223e-07
3.72849e-10
2.7388e-07
9.47927e-10
2.73588e-07
1.60351e-09
2.73471e-07
2.1184e-09
2.4607e-09
3.3324e-07
3.41128e-10
3.33049e-07
5.64686e-10
3.32791e-07
1.20539e-09
3.3255e-07
1.84477e-09
3.32503e-07
2.16506e-09
2.36639e-09
6.66606e-07
6.66446e-07
6.66321e-07
6.66146e-07
6.66013e-07
)
;

boundaryField
{
    top
    {
        type            calculated;
        value           nonuniform List<scalar> 
31
(
2.32518e-09
2.92544e-09
3.31974e-09
3.67994e-09
4.02092e-09
4.41686e-09
5.03188e-09
5.39765e-09
5.38358e-09
5.59962e-09
5.86676e-09
5.84025e-09
5.80446e-09
5.827e-09
5.58656e-09
5.01599e-09
4.23684e-09
3.32714e-09
2.32981e-09
1.36813e-09
6.12888e-10
8.38394e-11
-1.29524e-10
-2.59288e-10
-1.83233e-10
4.01833e-10
7.24865e-10
1.33046e-09
2.01958e-09
2.29777e-09
2.36383e-09
)
;
    }
    inlet
    {
        type            calculated;
        value           nonuniform List<scalar> 7(-3.33333e-07 -6.66667e-07 -1.37264e-07 -1.63236e-07 -1.94121e-07 -2.3085e-07 -2.74529e-07);
    }
    outlet
    {
        type            calculated;
        value           nonuniform List<scalar> 7(3.33256e-07 6.66805e-07 6.10777e-08 1.45213e-07 1.91896e-07 2.30601e-07 2.74509e-07);
    }
    plate
    {
        type            calculated;
        value           uniform 0;
    }
    symmBound
    {
        type            calculated;
        value           nonuniform List<scalar> 6(-6.62717e-12 8.94761e-10 3.31757e-10 1.27401e-10 -4.12471e-10 -8.59471e-10);
    }
    frontAndBack
    {
        type            empty;
        value           nonuniform 0();
    }
}


// ************************************************************************* //
