/*--------------------------------*- C++ -*----------------------------------*\
| =========                 |                                                 |
| \\      /  F ield         | OpenFOAM: The Open Source CFD Toolbox           |
|  \\    /   O peration     | Version:  2.3.0                                 |
|   \\  /    A nd           | Web:      www.OpenFOAM.org                      |
|    \\/     M anipulation  |                                                 |
\*---------------------------------------------------------------------------*/
FoamFile
{
    version     2.0;
    format      ascii;
    class       volScalarField;
    location    "0.25";
    object      p;
}
// * * * * * * * * * * * * * * * * * * * * * * * * * * * * * * * * * * * * * //

dimensions      [0 2 -2 0 0 0 0];

internalField   nonuniform List<scalar> 
2000
(
0.00238078
0.00204963
0.00144556
0.000886996
0.000423682
3.12217e-05
-0.000296235
-0.000541857
-0.000688242
-0.000740756
-0.000725728
-0.000675074
-0.000613643
-0.000555885
-0.00050818
-0.000471741
-0.000444752
-0.000424212
-0.000407511
-0.000393094
-0.000380135
-0.000368046
-0.000356355
-0.000344781
-0.000333238
-0.000321768
-0.000310481
-0.000299547
-0.000289156
-0.000279411
-0.000270295
-0.000261738
-0.000253662
-0.000246019
-0.000238794
-0.00023198
-0.000225543
-0.000219428
-0.00021358
-0.000207961
-0.000202544
-0.000197301
-0.000192188
-0.000187163
-0.000182185
-0.000177207
-0.000172167
-0.000167021
-0.000161729
-0.000156222
-0.000150441
-0.000144371
-0.000137992
-0.000131239
-0.000124074
-0.000116531
-0.000108617
-0.000100447
-9.2097e-05
-8.36262e-05
-7.51787e-05
-6.69488e-05
-5.90655e-05
-5.16705e-05
-4.48944e-05
-3.87849e-05
-3.33643e-05
-2.8624e-05
-2.45232e-05
-2.10009e-05
-1.79859e-05
-1.54049e-05
-1.31873e-05
-1.12717e-05
-9.61712e-06
-8.17323e-06
-6.90726e-06
-5.79446e-06
-4.8145e-06
-3.95097e-06
-3.19096e-06
-2.52466e-06
-1.94445e-06
-1.44365e-06
-1.01571e-06
-6.53692e-07
-3.50971e-07
-1.01525e-07
9.93199e-08
2.54977e-07
3.67708e-07
4.40241e-07
4.75116e-07
4.76523e-07
4.48715e-07
3.97423e-07
3.27281e-07
2.44005e-07
1.50784e-07
5.12661e-08
0.00192307
0.00175063
0.00133032
0.000852694
0.000418849
4.85613e-05
-0.000255747
-0.000483144
-0.000624479
-0.000682952
-0.000678157
-0.00063788
-0.000585551
-0.000535012
-0.00049268
-0.000459973
-0.000435448
-0.00041649
-0.000400804
-0.000387077
-0.000374652
-0.000363021
-0.00035174
-0.000340541
-0.000329347
-0.000318198
-0.000307197
-0.000296515
-0.000286351
-0.00027682
-0.000267904
-0.000259528
-0.000251616
-0.000244118
-0.000237027
-0.000230341
-0.000224027
-0.000218028
-0.000212289
-0.000206772
-0.000201451
-0.000196302
-0.00019128
-0.00018634
-0.000181447
-0.00017655
-0.000171587
-0.000166515
-0.000161296
-0.00015586
-0.000150141
-0.000144129
-0.000137808
-0.000131111
-0.000123996
-0.0001165
-0.000108692
-0.000100477
-9.21971e-05
-8.37515e-05
-7.53055e-05
-6.70734e-05
-5.91807e-05
-5.17714e-05
-4.49839e-05
-3.88625e-05
-3.34314e-05
-2.86823e-05
-2.45744e-05
-2.10463e-05
-1.80267e-05
-1.54421e-05
-1.32212e-05
-1.13016e-05
-9.64503e-06
-8.19836e-06
-6.92964e-06
-5.81428e-06
-4.83193e-06
-3.9661e-06
-3.20389e-06
-2.5355e-06
-1.9534e-06
-1.45092e-06
-1.02156e-06
-6.58318e-07
-3.54536e-07
-1.04139e-07
9.7574e-08
2.54018e-07
3.67394e-07
4.40431e-07
4.75654e-07
4.77271e-07
4.49557e-07
3.98254e-07
3.28316e-07
2.4477e-07
1.51368e-07
5.15791e-08
0.00159484
0.00149338
0.00121284
0.000828491
0.000439988
9.86801e-05
-0.000178569
-0.000386805
-0.000524708
-0.000595182
-0.00060993
-0.000588538
-0.000551094
-0.000511494
-0.000476283
-0.000447655
-0.000425234
-0.000407317
-0.000392201
-0.000378888
-0.000366857
-0.00035565
-0.000344828
-0.000334097
-0.000323354
-0.000312635
-0.000302049
-0.000291765
-0.000281988
-0.00027283
-0.000264259
-0.000256194
-0.000248558
-0.000241303
-0.000234426
-0.000227937
-0.000221804
-0.000215973
-0.000210387
-0.00020501
-0.000199821
-0.000194798
-0.000189897
-0.000185073
-0.000180291
-0.000175504
-0.000170645
-0.00016567
-0.000160548
-0.000155206
-0.000149574
-0.000143644
-0.000137406
-0.000130785
-0.000123736
-0.000116301
-0.000108537
-0.00010049
-9.21125e-05
-8.36722e-05
-7.52548e-05
-6.7058e-05
-5.91854e-05
-5.17841e-05
-4.5009e-05
-3.88893e-05
-3.34584e-05
-2.87097e-05
-2.4602e-05
-2.10741e-05
-1.80548e-05
-1.54706e-05
-1.32498e-05
-1.13268e-05
-9.67119e-06
-8.22283e-06
-6.95204e-06
-5.83461e-06
-4.85015e-06
-3.98208e-06
-3.21755e-06
-2.54683e-06
-1.96253e-06
-1.45811e-06
-1.02711e-06
-6.62498e-07
-3.57538e-07
-1.06081e-07
9.662e-08
2.53971e-07
3.68109e-07
4.41711e-07
4.77289e-07
4.79012e-07
4.51269e-07
3.99792e-07
3.29715e-07
2.45952e-07
1.52418e-07
5.23195e-08
0.00136083
0.00128284
0.00108755
0.000791612
0.000461887
0.0001566
-9.56202e-05
-0.000287241
-0.000420013
-0.000498024
-0.000528881
-0.000525771
-0.000504078
-0.000476098
-0.000448906
-0.000425555
-0.000406498
-0.000390828
-0.000377421
-0.000365515
-0.000354613
-0.000344291
-0.000334218
-0.000324201
-0.00031416
-0.000304115
-0.000294156
-0.000284435
-0.000275148
-0.000266433
-0.000258281
-0.000250599
-0.000243301
-0.000236344
-0.000229738
-0.000223507
-0.000217622
-0.000212018
-0.000206638
-0.00020145
-0.00019644
-0.000191591
-0.00018686
-0.000182197
-0.000177572
-0.000172944
-0.000168242
-0.00016342
-0.000158451
-0.000153262
-0.00014778
-0.000141996
-0.000135903
-0.00012943
-0.000122527
-0.000115238
-0.000107618
-9.96947e-05
-9.14812e-05
-8.31359e-05
-7.48614e-05
-6.67529e-05
-5.89655e-05
-5.1616e-05
-4.49119e-05
-3.88394e-05
-3.34426e-05
-2.87181e-05
-2.46266e-05
-2.11087e-05
-1.80958e-05
-1.5516e-05
-1.32979e-05
-1.13702e-05
-9.71901e-06
-8.26849e-06
-6.99549e-06
-5.87608e-06
-4.8897e-06
-4.01928e-06
-3.2519e-06
-2.57806e-06
-1.99052e-06
-1.48284e-06
-1.04865e-06
-6.80924e-07
-3.72863e-07
-1.18352e-07
8.73114e-08
2.4735e-07
3.63861e-07
4.39335e-07
4.76411e-07
4.79072e-07
4.52048e-07
4.00816e-07
3.3105e-07
2.47298e-07
1.53895e-07
5.36939e-08
0.00117027
0.00110227
0.00095699
0.000733284
0.000466295
0.000203166
-2.27811e-05
-0.00019889
-0.000325495
-0.000406911
-0.000448881
-0.000460178
-0.000452027
-0.000434705
-0.000415224
-0.000397214
-0.000381807
-0.000368791
-0.000357513
-0.000347331
-0.000337765
-0.000328502
-0.00031936
-0.00031024
-0.000301066
-0.000291822
-0.000282604
-0.000273579
-0.000264917
-0.000256744
-0.000249082
-0.000241858
-0.000234991
-0.000228432
-0.000222184
-0.000216277
-0.000210697
-0.000205382
-0.000200271
-0.000195329
-0.000190545
-0.00018591
-0.000181392
-0.000176937
-0.000172509
-0.000168073
-0.000163566
-0.00015894
-0.000154166
-0.00014918
-0.000143911
-0.000138347
-0.000132478
-0.000126235
-0.000119577
-0.00011255
-0.000105203
-9.75531e-05
-8.96235e-05
-8.15454e-05
-7.35365e-05
-6.57171e-05
-5.81812e-05
-5.10885e-05
-4.44979e-05
-3.8556e-05
-3.32651e-05
-2.86172e-05
-2.45787e-05
-2.10959e-05
-1.81063e-05
-1.55424e-05
-1.33351e-05
-1.14009e-05
-9.76696e-06
-8.31979e-06
-7.04873e-06
-5.93075e-06
-4.946e-06
-4.07631e-06
-3.30825e-06
-2.63275e-06
-2.04298e-06
-1.53267e-06
-1.09564e-06
-7.24839e-07
-4.133e-07
-1.54835e-07
5.53019e-08
2.20103e-07
3.41585e-07
4.2173e-07
4.63237e-07
4.69592e-07
4.45894e-07
3.97012e-07
3.29335e-07
2.47028e-07
1.54772e-07
5.54124e-08
0.00100477
0.000943708
0.000830012
0.00066014
0.000451014
0.000233463
3.65772e-05
-0.000123486
-0.000243109
-0.000324909
-0.000373574
-0.000395383
-0.00039828
-0.000390434
-0.00037828
-0.000365578
-0.000353871
-0.000343528
-0.000334384
-0.000325965
-0.000317809
-0.000309701
-0.000301558
-0.00029332
-0.000284965
-0.000276538
-0.00026813
-0.000259855
-0.000251853
-0.000244253
-0.000237092
-0.000230326
-0.000223894
-0.000217745
-0.000211869
-0.0002063
-0.000201034
-0.000196012
-0.000191187
-0.000186521
-0.000181987
-0.000177581
-0.000173285
-0.000169049
-0.000164837
-0.000160616
-0.000156325
-0.000151917
-0.000147368
-0.000142619
-0.000137608
-0.000132323
-0.000126747
-0.000120819
-0.000114515
-0.000107873
-0.000100916
-9.36681e-05
-8.61856e-05
-7.85952e-05
-7.10493e-05
-6.36505e-05
-5.65042e-05
-4.97441e-05
-4.34697e-05
-3.77824e-05
-3.26954e-05
-2.8205e-05
-2.42827e-05
-2.0884e-05
-1.79558e-05
-1.54359e-05
-1.32614e-05
-1.14031e-05
-9.74161e-06
-8.30752e-06
-7.05026e-06
-5.94412e-06
-4.97025e-06
-4.11045e-06
-3.35115e-06
-2.68242e-06
-2.09728e-06
-1.58988e-06
-1.15437e-06
-7.83983e-07
-4.71802e-07
-2.11653e-07
1.34116e-09
1.70002e-07
2.96429e-07
3.82073e-07
4.29633e-07
4.42016e-07
4.24468e-07
3.81043e-07
3.18412e-07
2.40441e-07
1.51697e-07
5.56089e-08
0.000858156
0.000803409
0.000712274
0.000582602
0.000421833
0.000247755
8.15816e-05
-6.05163e-05
-0.000171534
-0.000251518
-0.000303713
-0.00033268
-0.000344106
-0.000344347
-0.000338953
-0.000331389
-0.000323316
-0.000315587
-0.000308563
-0.000301976
-0.000295321
-0.000288406
-0.000281309
-0.000274047
-0.000266575
-0.000258981
-0.000251412
-0.000243929
-0.000236622
-0.000229644
-0.000223031
-0.000216727
-0.000210718
-0.00020498
-0.000199486
-0.000194271
-0.000189324
-0.000184582
-0.000180023
-0.000175628
-0.000171349
-0.000167184
-0.000163119
-0.000159097
-0.000155093
-0.000151091
-0.000147024
-0.000142844
-0.000138539
-0.000134055
-0.000129327
-0.000124346
-0.0001191
-0.000113547
-0.000107667
-0.000101472
-9.49903e-05
-8.8275e-05
-8.13821e-05
-7.43818e-05
-6.7384e-05
-6.05165e-05
-5.38964e-05
-4.76231e-05
-4.1777e-05
-3.64389e-05
-3.16417e-05
-2.73822e-05
-2.36362e-05
-2.03714e-05
-1.75456e-05
-1.51041e-05
-1.2991e-05
-1.11669e-05
-9.56113e-06
-8.16393e-06
-6.93924e-06
-5.86271e-06
-4.91366e-06
-4.07667e-06
-3.33811e-06
-2.68766e-06
-2.11746e-06
-1.62221e-06
-1.19647e-06
-8.3368e-07
-5.27165e-07
-2.70926e-07
-6.00626e-08
1.08277e-07
2.36452e-07
3.25615e-07
3.78359e-07
3.97057e-07
3.86616e-07
3.50526e-07
2.95219e-07
2.24475e-07
1.42125e-07
5.22084e-08
0.000727732
0.000679417
0.000606033
0.000506501
0.000383869
0.000247406
0.000111267
-1.08629e-05
-0.000110855
-0.000186665
-0.00023978
-0.000273206
-0.000290908
-0.000297641
-0.000298008
-0.000295126
-0.000290588
-0.000285457
-0.000280472
-0.000275639
-0.000270493
-0.000264815
-0.0002588
-0.00025261
-0.000246142
-0.000239409
-0.000232674
-0.000226048
-0.000219503
-0.000213156
-0.000207111
-0.000201332
-0.000195797
-0.000190495
-0.000185406
-0.000180565
-0.000175957
-0.000171522
-0.000167256
-0.00016314
-0.000159122
-0.00015521
-0.000151401
-0.00014762
-0.000143847
-0.00014008
-0.000136253
-0.000132315
-0.00012827
-0.000124079
-0.000119674
-0.00011504
-0.000110168
-0.00010503
-9.96053e-05
-9.39041e-05
-8.79682e-05
-8.18505e-05
-7.55813e-05
-6.92037e-05
-6.28253e-05
-5.65844e-05
-5.05753e-05
-4.48513e-05
-3.94826e-05
-3.45558e-05
-3.01097e-05
-2.61367e-05
-2.26187e-05
-1.95353e-05
-1.68538e-05
-1.45277e-05
-1.25087e-05
-1.07558e-05
-9.21993e-06
-7.87806e-06
-6.70242e-06
-5.66977e-06
-4.76022e-06
-3.95876e-06
-3.25328e-06
-2.63251e-06
-2.08765e-06
-1.61383e-06
-1.20605e-06
-8.58133e-07
-5.63797e-07
-3.17334e-07
-1.14125e-07
4.87982e-08
1.74226e-07
2.6348e-07
3.19131e-07
3.42962e-07
3.38932e-07
3.10195e-07
2.62888e-07
2.0078e-07
1.26949e-07
4.55214e-08
0.000617359
0.000575178
0.000515255
0.000437267
0.000342413
0.000235406
0.00012543
2.29772e-05
-6.44595e-05
-0.000133906
-0.000185531
-0.000220945
-0.000242573
-0.000253787
-0.000258433
-0.000259373
-0.000257964
-0.000255127
-0.000251843
-0.000248493
-0.000244749
-0.000240307
-0.000235337
-0.000230154
-0.000224726
-0.000218921
-0.000212972
-0.000207143
-0.000201394
-0.000195698
-0.000190205
-0.000184981
-0.000179955
-0.000175087
-0.000170426
-0.000165999
-0.000161742
-0.00015762
-0.000153671
-0.000149862
-0.000146128
-0.00014249
-0.000138946
-0.000135426
-0.000131914
-0.000128406
-0.000124842
-0.000121183
-0.000117418
-0.000113518
-0.000109454
-0.000105201
-0.000100722
-9.60113e-05
-9.10795e-05
-8.59143e-05
-8.05255e-05
-7.4979e-05
-6.93238e-05
-6.35855e-05
-5.78462e-05
-5.22356e-05
-4.6831e-05
-4.16598e-05
-3.6786e-05
-3.22989e-05
-2.8235e-05
-2.45808e-05
-2.13232e-05
-1.84532e-05
-1.59453e-05
-1.37596e-05
-1.18543e-05
-1.01941e-05
-8.74293e-06
-7.47441e-06
-6.36254e-06
-5.38613e-06
-4.52795e-06
-3.773e-06
-3.10881e-06
-2.52494e-06
-2.0129e-06
-1.5674e-06
-1.18334e-06
-8.55199e-07
-5.77399e-07
-3.44355e-07
-1.52387e-07
1.34635e-09
1.20118e-07
2.05708e-07
2.61125e-07
2.87985e-07
2.89384e-07
2.67719e-07
2.28422e-07
1.74896e-07
1.10263e-07
3.81961e-08
0.000521075
0.000484555
0.000435358
0.000373785
0.000300084
0.000216359
0.000128441
4.41816e-05
-3.0147e-05
-9.16736e-05
-0.000139924
-0.000175292
-0.000198862
-0.000212935
-0.000220653
-0.000224486
-0.000225542
-0.000224592
-0.000222772
-0.000220751
-0.000218252
-0.000214915
-0.00021096
-0.000206766
-0.00020232
-0.000197437
-0.000192279
-0.000187206
-0.000182245
-0.000177225
-0.000172279
-0.000167632
-0.000163169
-0.000158745
-0.000154509
-0.000150539
-0.000146678
-0.000142902
-0.0001393
-0.000135812
-0.000132381
-0.000129054
-0.000125808
-0.000122577
-0.000119363
-0.000116138
-0.000112852
-0.000109502
-0.000106065
-0.000102495
-9.87914e-05
-9.49347e-05
-9.08657e-05
-8.65986e-05
-8.21728e-05
-7.75466e-05
-7.27097e-05
-6.7757e-05
-6.27429e-05
-5.76488e-05
-5.25345e-05
-4.75404e-05
-4.27362e-05
-3.8124e-05
-3.37591e-05
-2.97322e-05
-2.60735e-05
-2.2762e-05
-1.97892e-05
-1.71575e-05
-1.4849e-05
-1.28274e-05
-1.10572e-05
-9.51109e-06
-8.16128e-06
-6.98002e-06
-5.94393e-06
-5.0352e-06
-4.23752e-06
-3.53647e-06
-2.92027e-06
-2.37911e-06
-1.90527e-06
-1.49316e-06
-1.13723e-06
-8.32544e-07
-5.73984e-07
-3.57299e-07
-1.78264e-07
-3.45973e-08
7.65573e-08
1.56955e-07
2.09896e-07
2.37146e-07
2.41778e-07
2.25881e-07
1.94191e-07
1.49214e-07
9.41897e-08
3.1885e-08
0.000431932
0.000400719
0.000360874
0.000313068
0.000256642
0.000191949
0.000122848
5.5415e-05
-5.52858e-06
-5.79215e-05
-0.000101113
-0.000134531
-0.000158199
-0.000173661
-0.000183393
-0.000189275
-0.00019214
-0.000192708
-0.000192178
-0.000191355
-0.000189929
-0.000187503
-0.00018449
-0.000181326
-0.000177826
-0.000173788
-0.000169462
-0.000165214
-0.000161043
-0.00015672
-0.000152375
-0.000148347
-0.000144495
-0.000140577
-0.000136819
-0.000133345
-0.00012992
-0.000126544
-0.000123358
-0.000120249
-0.000117159
-0.000114181
-0.000111271
-0.000108367
-0.000105512
-0.000102642
-9.96766e-05
-9.66668e-05
-9.36087e-05
-9.0418e-05
-8.71107e-05
-8.37053e-05
-8.01242e-05
-7.63504e-05
-7.24326e-05
-6.83564e-05
-6.41276e-05
-5.98302e-05
-5.54821e-05
-5.10426e-05
-4.65856e-05
-4.22554e-05
-3.80911e-05
-3.40696e-05
-3.02463e-05
-2.67144e-05
-2.34947e-05
-2.05607e-05
-1.7911e-05
-1.55582e-05
-1.34882e-05
-1.16663e-05
-1.00637e-05
-8.66104e-06
-7.43567e-06
-6.36179e-06
-5.41961e-06
-4.59368e-06
-3.8688e-06
-3.23226e-06
-2.67367e-06
-2.18429e-06
-1.75704e-06
-1.38568e-06
-1.06413e-06
-7.88151e-07
-5.53679e-07
-3.56997e-07
-1.94258e-07
-6.32229e-08
3.90905e-08
1.14145e-07
1.64722e-07
1.91733e-07
1.98069e-07
1.86172e-07
1.60823e-07
1.23742e-07
7.81794e-08
2.56579e-08
0.000348666
0.000322317
0.000290774
0.000254848
0.000212815
0.000163735
0.000110419
5.79715e-05
9.99199e-06
-3.25646e-05
-6.93682e-05
-9.9238e-05
-0.000121279
-0.000136517
-0.000147124
-0.000154349
-0.000158351
-0.000159771
-0.000160138
-0.000160375
-0.000159896
-0.000158131
-0.000155825
-0.000153683
-0.000151198
-0.000147904
-0.000144327
-0.000141006
-0.000137675
-0.000133988
-0.000130301
-0.000127001
-0.000123761
-0.000120359
-0.000117173
-0.000114268
-0.000111309
-0.000108376
-0.000105659
-0.000102988
-0.000100307
-9.77396e-05
-9.52163e-05
-9.26828e-05
-9.02153e-05
-8.77456e-05
-8.51814e-05
-8.25827e-05
-7.99397e-05
-7.71722e-05
-7.43211e-05
-7.14108e-05
-6.83551e-05
-6.51355e-05
-6.17971e-05
-5.8331e-05
-5.47586e-05
-5.11476e-05
-4.7476e-05
-4.37051e-05
-3.99422e-05
-3.63209e-05
-3.28316e-05
-2.94306e-05
-2.61854e-05
-2.31914e-05
-2.04547e-05
-1.79418e-05
-1.56591e-05
-1.36267e-05
-1.18321e-05
-1.02446e-05
-8.84356e-06
-7.61582e-06
-6.54161e-06
-5.59951e-06
-4.77364e-06
-4.04905e-06
-3.41237e-06
-2.85396e-06
-2.36459e-06
-1.93589e-06
-1.56153e-06
-1.23662e-06
-9.5611e-07
-7.1545e-07
-5.10633e-07
-3.38776e-07
-1.96711e-07
-8.26798e-08
6.79095e-09
7.35922e-08
1.20136e-07
1.47004e-07
1.55892e-07
1.48636e-07
1.29436e-07
1.00058e-07
6.28181e-08
2.07766e-08
0.000270056
0.000248245
0.000223982
0.000198339
0.000168617
0.000132642
9.25312e-05
5.31446e-05
1.74407e-05
-1.49279e-05
-4.45182e-05
-6.97351e-05
-8.87143e-05
-0.000102111
-0.000112213
-0.000119896
-0.000124395
-0.000125996
-0.000126744
-0.000127815
-0.000128154
-0.000126856
-0.000125007
-0.000123761
-0.000122351
-0.000119745
-0.000116722
-0.000114363
-0.000112014
-0.000108887
-0.000105806
-0.000103382
-0.000100833
-9.79209e-05
-9.53597e-05
-9.31022e-05
-9.06557e-05
-8.82385e-05
-8.60632e-05
-8.38702e-05
-8.16427e-05
-7.95399e-05
-7.74741e-05
-7.53976e-05
-7.33713e-05
-7.13265e-05
-6.9221e-05
-6.70966e-05
-6.49068e-05
-6.26311e-05
-6.03325e-05
-5.79652e-05
-5.54552e-05
-5.28544e-05
-5.01726e-05
-4.73488e-05
-4.44546e-05
-4.15894e-05
-3.86668e-05
-3.56124e-05
-3.25721e-05
-2.96872e-05
-2.69007e-05
-2.41488e-05
-2.15193e-05
-1.91099e-05
-1.69042e-05
-1.48598e-05
-1.29917e-05
-1.13266e-05
-9.85146e-06
-8.53848e-06
-7.37524e-06
-6.35473e-06
-5.46099e-06
-4.67609e-06
-3.98738e-06
-3.38353e-06
-2.85411e-06
-2.39081e-06
-1.98471e-06
-1.62891e-06
-1.318e-06
-1.04736e-06
-8.13756e-07
-6.13756e-07
-4.4353e-07
-3.00246e-07
-1.813e-07
-8.59439e-08
-1.10592e-08
4.48344e-08
8.35227e-08
1.06492e-07
1.1536e-07
1.12286e-07
9.92991e-08
7.59472e-08
4.81146e-08
1.37239e-08
0.000194319
0.000177269
0.00015952
0.000142602
0.000123392
9.88148e-05
7.03554e-05
4.25957e-05
1.80958e-05
-4.36831e-06
-2.61641e-05
-4.56392e-05
-6.03291e-05
-7.05886e-05
-7.88117e-05
-8.58202e-05
-9.01927e-05
-9.15654e-05
-9.21835e-05
-9.36187e-05
-9.45587e-05
-9.3677e-05
-9.212e-05
-9.14557e-05
-9.09996e-05
-8.91671e-05
-8.66123e-05
-8.50526e-05
-8.37643e-05
-8.131e-05
-7.87865e-05
-7.72368e-05
-7.54721e-05
-7.31076e-05
-7.12174e-05
-6.9673e-05
-6.77818e-05
-6.59247e-05
-6.43592e-05
-6.27199e-05
-6.10279e-05
-5.94525e-05
-5.78752e-05
-5.63079e-05
-5.48032e-05
-5.32458e-05
-5.16581e-05
-5.00946e-05
-4.843e-05
-4.66754e-05
-4.49633e-05
-4.321e-05
-4.13265e-05
-3.94107e-05
-3.744e-05
-3.53007e-05
-3.31162e-05
-3.10335e-05
-2.89131e-05
-2.66331e-05
-2.43644e-05
-2.22619e-05
-2.02327e-05
-1.81891e-05
-1.62253e-05
-1.44389e-05
-1.28032e-05
-1.12728e-05
-9.86722e-06
-8.61614e-06
-7.50756e-06
-6.51596e-06
-5.63319e-06
-4.85641e-06
-4.17558e-06
-3.57758e-06
-3.05159e-06
-2.59002e-06
-2.18599e-06
-1.8323e-06
-1.52196e-06
-1.25098e-06
-1.01579e-06
-8.11669e-07
-6.34932e-07
-4.83145e-07
-3.53166e-07
-2.43707e-07
-1.53299e-07
-8.04379e-08
-2.22628e-08
2.20563e-08
5.3648e-08
7.1278e-08
7.97828e-08
7.81815e-08
7.01678e-08
5.45307e-08
3.5914e-08
1.45674e-08
0.000118841
0.000107566
9.62984e-05
8.66814e-05
7.62108e-05
6.19619e-05
4.46504e-05
2.77385e-05
1.32952e-05
1.85816e-07
-1.31664e-05
-2.5693e-05
-3.51599e-05
-4.15665e-05
-4.68834e-05
-5.19196e-05
-5.52995e-05
-5.62373e-05
-5.65044e-05
-5.76907e-05
-5.87179e-05
-5.8239e-05
-5.70873e-05
-5.67225e-05
-5.68013e-05
-5.58031e-05
-5.3969e-05
-5.30195e-05
-5.25531e-05
-5.09835e-05
-4.91888e-05
-4.83755e-05
-4.74106e-05
-4.57731e-05
-4.45646e-05
-4.37258e-05
-4.25231e-05
-4.13123e-05
-4.03636e-05
-3.93295e-05
-3.825e-05
-3.72756e-05
-3.62758e-05
-3.52871e-05
-3.43523e-05
-3.33434e-05
-3.23299e-05
-3.13842e-05
-3.03342e-05
-2.91902e-05
-2.81267e-05
-2.70495e-05
-2.58392e-05
-2.46209e-05
-2.34101e-05
-2.2075e-05
-2.07001e-05
-1.9427e-05
-1.81322e-05
-1.6694e-05
-1.52592e-05
-1.39642e-05
-1.27236e-05
-1.14527e-05
-1.02244e-05
-9.11651e-06
-8.10302e-06
-7.14469e-06
-6.25805e-06
-5.46826e-06
-4.76811e-06
-4.14073e-06
-3.58199e-06
-3.09096e-06
-2.66078e-06
-2.28139e-06
-1.94617e-06
-1.65281e-06
-1.3968e-06
-1.17169e-06
-9.74009e-07
-8.01448e-07
-6.50865e-07
-5.20017e-07
-4.06898e-07
-3.09719e-07
-2.27234e-07
-1.58551e-07
-1.01413e-07
-5.42739e-08
-1.64825e-08
1.17374e-08
3.13001e-08
4.22665e-08
4.76563e-08
4.6873e-08
4.19267e-08
3.09805e-08
1.62905e-08
-3.14286e-09
4.04015e-05
3.63749e-05
3.2407e-05
2.92676e-05
2.60069e-05
2.13572e-05
1.54668e-05
9.68292e-06
4.88371e-06
6.08181e-07
-3.89637e-06
-8.28101e-06
-1.15963e-05
-1.37735e-05
-1.56082e-05
-1.74723e-05
-1.87966e-05
-1.91439e-05
-1.91759e-05
-1.9622e-05
-2.00846e-05
-1.99521e-05
-1.95107e-05
-1.93788e-05
-1.94881e-05
-1.91966e-05
-1.85042e-05
-1.81615e-05
-1.80938e-05
-1.75612e-05
-1.68685e-05
-1.66146e-05
-1.63377e-05
-1.57394e-05
-1.53025e-05
-1.50434e-05
-1.46264e-05
-1.41997e-05
-1.38943e-05
-1.35425e-05
-1.31545e-05
-1.28157e-05
-1.24722e-05
-1.2131e-05
-1.18153e-05
-1.14731e-05
-1.11273e-05
-1.07999e-05
-1.04191e-05
-1.00097e-05
-9.66013e-06
-9.3094e-06
-8.88395e-06
-8.45194e-06
-8.04071e-06
-7.58341e-06
-7.10167e-06
-6.66503e-06
-6.23191e-06
-5.74433e-06
-5.25325e-06
-4.81314e-06
-4.38966e-06
-3.94859e-06
-3.52156e-06
-3.14202e-06
-2.79832e-06
-2.47223e-06
-2.16913e-06
-1.8992e-06
-1.65883e-06
-1.44025e-06
-1.24306e-06
-1.06943e-06
-9.17795e-07
-7.8483e-07
-6.68182e-07
-5.66394e-07
-4.77115e-07
-3.98487e-07
-3.30008e-07
-2.7175e-07
-2.22114e-07
-1.78926e-07
-1.40104e-07
-1.06898e-07
-7.933e-08
-5.62746e-08
-3.56783e-08
-1.92881e-08
-6.11727e-09
3.63968e-09
1.22583e-08
1.81192e-08
2.28503e-08
2.48977e-08
2.60689e-08
2.52542e-08
2.43064e-08
1.98894e-08
6.92927e-05
5.89733e-05
6.53137e-05
7.28341e-05
8.89207e-05
0.000100603
0.000120536
0.000138015
0.000165161
0.000188801
0.000220609
0.00025173
0.000295647
0.000336931
0.000394757
0.000450684
0.000525199
0.00059828
0.00069897
0.000807197
0.000954525
0.00112466
0.00136721
0.00166438
0.00206321
6.857e-05
5.90096e-05
6.51914e-05
7.27799e-05
8.84921e-05
0.000100238
0.000119857
0.000137543
0.000163747
0.000187383
0.000219144
0.000251017
0.000293451
0.000335783
0.000390997
0.000448886
0.000519653
0.000595839
0.000691309
0.000802496
0.000940274
0.00110982
0.00132011
0.00157341
0.00180612
6.73128e-05
5.92622e-05
6.4794e-05
7.27039e-05
8.74564e-05
0.0001001
0.000118415
0.00013693
0.000161387
0.000185934
0.000216472
0.000249564
0.000289842
0.000333444
0.000386024
0.000445235
0.000512527
0.00058977
0.000680338
0.00079032
0.00091809
0.00107434
0.00124723
0.00143293
0.0015639
6.57054e-05
5.94602e-05
6.42323e-05
7.23511e-05
8.59924e-05
9.91753e-05
0.000116566
0.000135688
0.00015868
0.000183648
0.000213145
0.000246876
0.000285527
0.000329263
0.000379939
0.000438683
0.000503563
0.000579014
0.000665733
0.000769554
0.00088639
0.0010196
0.00115641
0.00128366
0.00135944
6.36394e-05
5.95567e-05
6.35065e-05
7.16213e-05
8.41498e-05
9.76449e-05
0.00011423
0.000133564
0.000155514
0.000180341
0.00020904
0.000242581
0.000280065
0.000322905
0.000372048
0.000429065
0.000491702
0.00056353
0.000645474
0.000739886
0.000842759
0.000950993
0.00105501
0.00114033
0.00118409
6.1075e-05
5.90525e-05
6.25796e-05
7.04226e-05
8.1937e-05
9.53564e-05
0.000111282
0.000130416
0.000151624
0.00017583
0.000203793
0.000236502
0.000272882
0.000314256
0.000361692
0.000416144
0.000475784
0.000542635
0.000617928
0.000701133
0.000787972
0.000873304
0.000949744
0.001006
0.00102762
5.81195e-05
5.78321e-05
6.12903e-05
6.86575e-05
7.92627e-05
9.22126e-05
0.000107585
0.000126129
0.000146594
0.000169881
0.000197082
0.000228558
0.000263429
0.000302834
0.000348132
0.000399399
0.000454893
0.000515542
0.000582555
0.000653819
0.000724557
0.000789696
0.000843871
0.000879436
0.000885851
5.48464e-05
5.57209e-05
5.93014e-05
6.62135e-05
7.59756e-05
8.81102e-05
0.000102873
0.000120629
0.000140137
0.000162206
0.000188436
0.000218457
0.00025124
0.000288067
0.000330658
0.000378214
0.000428428
0.000481721
0.000539442
0.000598909
0.000654798
0.000702699
0.000739377
0.000760063
0.000756904
5.1368e-05
5.28321e-05
5.65046e-05
6.30524e-05
7.20875e-05
8.32029e-05
9.71444e-05
0.000114054
0.000132427
0.000152975
0.000177848
0.000206311
0.000236701
0.000270423
0.000309661
0.000353075
0.000397516
0.00044312
0.000491682
0.000540626
0.000584231
0.000618666
0.00064264
0.000653522
0.000645467
4.75542e-05
4.92588e-05
5.28912e-05
5.90841e-05
6.74667e-05
7.75126e-05
9.03683e-05
0.000106255
0.000123365
0.000142198
0.000165297
0.000191886
0.000219664
0.00024994
0.000285252
0.000324051
0.000362578
0.000400729
0.000440701
0.000480267
0.000513659
0.000537656
0.000552542
0.000557214
0.000547013
4.30645e-05
4.47945e-05
4.82523e-05
5.39928e-05
6.16389e-05
7.05922e-05
8.21584e-05
9.66385e-05
0.000112151
0.000129119
0.000150063
0.000174102
0.000198737
0.000225303
0.000256283
0.000289783
0.000321926
0.000352863
0.000384975
0.000416042
0.000440494
0.00045617
0.000464701
0.000465816
0.000455204
3.77348e-05
3.93335e-05
4.24799e-05
4.76485e-05
5.43629e-05
6.21174e-05
7.23128e-05
8.5011e-05
9.838e-05
0.000113231
0.000131821
0.000152646
0.000173353
0.000195898
0.0002225
0.000250318
0.000275553
0.000299493
0.0003249
0.000348823
0.000365601
0.00037449
0.000378772
0.000378561
0.000368999
3.14134e-05
3.27595e-05
3.54343e-05
3.99168e-05
4.54876e-05
5.17784e-05
6.04596e-05
7.11591e-05
8.18417e-05
9.40398e-05
0.000110009
0.000127219
0.000143279
0.000161232
0.000183372
0.00020562
0.000223839
0.000240828
0.000260425
0.000278797
0.000289496
0.000292924
0.000294305
0.000294279
0.000287018
2.39616e-05
2.49726e-05
2.70105e-05
3.06158e-05
3.48686e-05
3.94268e-05
4.62406e-05
5.46893e-05
6.23873e-05
7.13146e-05
8.40195e-05
9.73106e-05
0.000108474
0.000121245
0.000138355
0.000155194
0.000167063
0.000177458
0.000191505
0.000205361
0.000211804
0.000211509
0.000210928
0.000211536
0.000207195
1.52701e-05
1.59026e-05
1.71727e-05
1.95835e-05
2.23325e-05
2.50615e-05
2.94886e-05
3.51229e-05
3.97839e-05
4.513e-05
5.3536e-05
6.22604e-05
6.87528e-05
7.61963e-05
8.72352e-05
9.81973e-05
0.000104823
0.000109851
0.000118271
0.000127424
0.000131014
0.000129282
0.00012788
0.000128697
0.000126886
5.30277e-06
5.52209e-06
5.95159e-06
6.81092e-06
7.78787e-06
8.69757e-06
1.02408e-05
1.22651e-05
1.38455e-05
1.56089e-05
1.85914e-05
2.17061e-05
2.38297e-05
2.6229e-05
3.00786e-05
3.39841e-05
3.61341e-05
3.75107e-05
4.02846e-05
4.35869e-05
4.48059e-05
4.38845e-05
4.31331e-05
4.35031e-05
4.3128e-05
)
;

boundaryField
{
    top
    {
        type            fixedValue;
        value           uniform 0;
    }
    inlet
    {
        type            zeroGradient;
    }
    outlet
    {
        type            fixedValue;
        value           uniform 0;
    }
    plate
    {
        type            zeroGradient;
    }
    symmBound
    {
        type            zeroGradient;
    }
    frontAndBack
    {
        type            empty;
    }
}


// ************************************************************************* //
