/*--------------------------------*- C++ -*----------------------------------*\
| =========                 |                                                 |
| \\      /  F ield         | OpenFOAM: The Open Source CFD Toolbox           |
|  \\    /   O peration     | Version:  2.3.0                                 |
|   \\  /    A nd           | Web:      www.OpenFOAM.org                      |
|    \\/     M anipulation  |                                                 |
\*---------------------------------------------------------------------------*/
FoamFile
{
    version     2.0;
    format      ascii;
    class       volVectorField;
    location    "0.25";
    object      U;
}
// * * * * * * * * * * * * * * * * * * * * * * * * * * * * * * * * * * * * * //

dimensions      [0 1 -1 0 0 0 0];

internalField   nonuniform List<vector> 
2000
(
(0.175636 0.004369 0)
(0.155036 0.00603434 0)
(0.136222 0.00622586 0)
(0.117774 0.0056141 0)
(0.100003 0.00476132 0)
(0.0838094 0.00382793 0)
(0.0702658 0.00283804 0)
(0.0597422 0.00180256 0)
(0.0519938 0.000901229 0)
(0.0464475 0.000290175 0)
(0.0425263 -3.25272e-05 0)
(0.0397533 -0.000155428 0)
(0.0377415 -0.000165444 0)
(0.0362057 -0.000124824 0)
(0.0349435 -6.736e-05 0)
(0.0338267 -1.29182e-05 0)
(0.0327878 2.82894e-05 0)
(0.0318009 5.43239e-05 0)
(0.0308618 6.80662e-05 0)
(0.0299723 7.34756e-05 0)
(0.0291337 7.36348e-05 0)
(0.0283472 7.06294e-05 0)
(0.027614 6.59757e-05 0)
(0.0269339 6.07797e-05 0)
(0.026305 5.57061e-05 0)
(0.0257243 5.10188e-05 0)
(0.0251878 4.68114e-05 0)
(0.0246912 4.31652e-05 0)
(0.02423 4.00403e-05 0)
(0.0238002 3.72642e-05 0)
(0.0233988 3.47089e-05 0)
(0.0230236 3.23245e-05 0)
(0.0226728 3.00825e-05 0)
(0.0223445 2.79975e-05 0)
(0.0220373 2.60858e-05 0)
(0.0217497 2.43108e-05 0)
(0.0214806 2.26329e-05 0)
(0.021229 2.10332e-05 0)
(0.0209942 1.95018e-05 0)
(0.0207755 1.8043e-05 0)
(0.0205723 1.66628e-05 0)
(0.0203839 1.53404e-05 0)
(0.0202099 1.40584e-05 0)
(0.0200499 1.28272e-05 0)
(0.0199034 1.16396e-05 0)
(0.01977 1.04649e-05 0)
(0.0196496 9.30657e-06 0)
(0.0195417 8.1839e-06 0)
(0.0194462 7.06561e-06 0)
(0.0193629 5.91013e-06 0)
(0.0192916 4.76526e-06 0)
(0.0192319 3.70642e-06 0)
(0.0191835 2.73456e-06 0)
(0.0191463 1.799e-06 0)
(0.0191203 9.42571e-07 0)
(0.0191049 2.40752e-07 0)
(0.0190995 -4.42045e-07 0)
(0.0191035 -1.4573e-06 0)
(0.019116 -2.05922e-06 0)
(0.0191357 -2.8141e-06 0)
(0.0191612 -3.32432e-06 0)
(0.0191909 -3.74597e-06 0)
(0.0192232 -3.96928e-06 0)
(0.0192566 -3.99563e-06 0)
(0.0192897 -3.83789e-06 0)
(0.0193213 -3.57915e-06 0)
(0.0193508 -3.24858e-06 0)
(0.0193776 -2.88422e-06 0)
(0.0194017 -2.52044e-06 0)
(0.019423 -2.17872e-06 0)
(0.0194418 -1.87256e-06 0)
(0.0194582 -1.60612e-06 0)
(0.0194726 -1.38015e-06 0)
(0.0194853 -1.19035e-06 0)
(0.0194964 -1.02983e-06 0)
(0.0195063 -8.95286e-07 0)
(0.019515 -7.8058e-07 0)
(0.0195227 -6.81958e-07 0)
(0.0195296 -5.96228e-07 0)
(0.0195356 -5.20665e-07 0)
(0.0195409 -4.53649e-07 0)
(0.0195455 -3.9343e-07 0)
(0.0195495 -3.38957e-07 0)
(0.019553 -2.89821e-07 0)
(0.0195559 -2.46094e-07 0)
(0.0195584 -2.07948e-07 0)
(0.0195605 -1.74864e-07 0)
(0.0195622 -1.46445e-07 0)
(0.0195637 -1.21337e-07 0)
(0.0195648 -9.88949e-08 0)
(0.0195657 -7.80573e-08 0)
(0.0195665 -5.97093e-08 0)
(0.019567 -4.29985e-08 0)
(0.0195673 -2.95934e-08 0)
(0.0195676 -1.807e-08 0)
(0.0195677 -1.06471e-08 0)
(0.0195677 -3.30532e-09 0)
(0.0195677 2.77217e-10 0)
(0.0195677 2.73091e-09 0)
(0.0195676 1.85298e-09 0)
(0.191002 0.00777778 0)
(0.189379 0.0109511 0)
(0.187037 0.0121033 0)
(0.183331 0.0119973 0)
(0.178052 0.0113632 0)
(0.171401 0.0104308 0)
(0.163995 0.00923539 0)
(0.156316 0.00779129 0)
(0.148732 0.00625129 0)
(0.141431 0.00482305 0)
(0.134511 0.00364214 0)
(0.128068 0.00274102 0)
(0.122156 0.0020882 0)
(0.116805 0.00163957 0)
(0.111993 0.00134548 0)
(0.107665 0.00115549 0)
(0.10376 0.00102582 0)
(0.10022 0.000927555 0)
(0.0969963 0.000847056 0)
(0.0940483 0.000778586 0)
(0.0913405 0.000717866 0)
(0.0888441 0.000661564 0)
(0.0865367 0.000608285 0)
(0.0844001 0.000557921 0)
(0.0824187 0.000510966 0)
(0.0805783 0.000468045 0)
(0.078866 0.000429496 0)
(0.0772698 0.000395433 0)
(0.0757793 0.000365505 0)
(0.074385 0.000338774 0)
(0.0730791 0.000314419 0)
(0.0718553 0.000292053 0)
(0.070708 0.000271388 0)
(0.0696323 0.000252233 0)
(0.0686234 0.000234487 0)
(0.0676774 0.000217926 0)
(0.0667906 0.000202309 0)
(0.0659602 0.000187509 0)
(0.0651838 0.000173443 0)
(0.0644589 0.000160075 0)
(0.0637837 0.00014737 0)
(0.0631563 0.000135219 0)
(0.0625751 0.00012354 0)
(0.0620388 0.000112352 0)
(0.0615461 0.000101639 0)
(0.0610959 9.1266e-05 0)
(0.0606873 8.12049e-05 0)
(0.0603191 7.15346e-05 0)
(0.0599905 6.21778e-05 0)
(0.0597006 5.29941e-05 0)
(0.0594485 4.41187e-05 0)
(0.0592332 3.57332e-05 0)
(0.0590533 2.77325e-05 0)
(0.058908 1.99984e-05 0)
(0.0587958 1.27736e-05 0)
(0.0587149 6.36055e-06 0)
(0.0586629 5.61361e-07 0)
(0.0586376 -5.24403e-06 0)
(0.0586358 -1.11719e-05 0)
(0.0586537 -1.55639e-05 0)
(0.0586878 -1.81545e-05 0)
(0.0587337 -1.98621e-05 0)
(0.0587878 -2.05689e-05 0)
(0.0588464 -2.03709e-05 0)
(0.0589062 -1.94282e-05 0)
(0.0589649 -1.80957e-05 0)
(0.0590208 -1.64883e-05 0)
(0.0590727 -1.47577e-05 0)
(0.0591203 -1.30443e-05 0)
(0.0591633 -1.144e-05 0)
(0.059202 -9.99425e-06 0)
(0.0592368 -8.72172e-06 0)
(0.0592681 -7.62375e-06 0)
(0.0592963 -6.68022e-06 0)
(0.0593217 -5.8626e-06 0)
(0.0593446 -5.1559e-06 0)
(0.0593654 -4.53573e-06 0)
(0.059384 -3.98691e-06 0)
(0.0594008 -3.49735e-06 0)
(0.0594158 -3.05612e-06 0)
(0.0594292 -2.65765e-06 0)
(0.059441 -2.29549e-06 0)
(0.0594513 -1.96671e-06 0)
(0.0594602 -1.66908e-06 0)
(0.0594679 -1.4034e-06 0)
(0.0594744 -1.16901e-06 0)
(0.0594798 -9.64547e-07 0)
(0.0594843 -7.87572e-07 0)
(0.0594879 -6.33834e-07 0)
(0.0594908 -4.99544e-07 0)
(0.059493 -3.8142e-07 0)
(0.0594947 -2.79936e-07 0)
(0.0594959 -1.91939e-07 0)
(0.0594967 -1.21766e-07 0)
(0.0594971 -6.43502e-08 0)
(0.0594974 -2.62029e-08 0)
(0.0594974 5.02874e-09 0)
(0.0594974 1.61646e-08 0)
(0.0594973 2.75541e-08 0)
(0.0594972 1.56776e-08 0)
(0.192216 0.00743818 0)
(0.19263 0.0100488 0)
(0.193665 0.0116914 0)
(0.194759 0.0122834 0)
(0.195327 0.0122142 0)
(0.195052 0.0117511 0)
(0.193909 0.0109807 0)
(0.192016 0.00995734 0)
(0.189533 0.00879013 0)
(0.186604 0.00763794 0)
(0.183342 0.00662747 0)
(0.179869 0.00580535 0)
(0.176283 0.00514944 0)
(0.172673 0.00462341 0)
(0.169087 0.00419315 0)
(0.165557 0.00383125 0)
(0.162103 0.00351532 0)
(0.158734 0.00323042 0)
(0.155455 0.00297079 0)
(0.15227 0.00273525 0)
(0.149182 0.00252129 0)
(0.146196 0.00232498 0)
(0.143317 0.00214412 0)
(0.140548 0.00197811 0)
(0.137889 0.00182583 0)
(0.135338 0.00168573 0)
(0.132893 0.00155695 0)
(0.130552 0.00143929 0)
(0.128314 0.00133232 0)
(0.126179 0.00123491 0)
(0.124144 0.0011456 0)
(0.12221 0.00106324 0)
(0.120374 0.000987105 0)
(0.118633 0.000916808 0)
(0.116983 0.00085186 0)
(0.115422 0.000791531 0)
(0.113946 0.000735026 0)
(0.112551 0.000681749 0)
(0.111236 0.000631331 0)
(0.109997 0.000583559 0)
(0.108832 0.000538249 0)
(0.107739 0.000495053 0)
(0.106716 0.000453676 0)
(0.105762 0.000414019 0)
(0.104874 0.000376015 0)
(0.104052 0.000339464 0)
(0.103294 0.000304293 0)
(0.102599 0.00027057 0)
(0.101966 0.000238115 0)
(0.101393 0.000206682 0)
(0.10088 0.000176527 0)
(0.100426 0.000147954 0)
(0.100027 0.000120673 0)
(0.0996837 9.44237e-05 0)
(0.0993927 6.96595e-05 0)
(0.0991519 4.71113e-05 0)
(0.098958 2.70759e-05 0)
(0.0988072 9.13859e-06 0)
(0.0986967 -7.37975e-06 0)
(0.0986216 -2.03342e-05 0)
(0.0985766 -3.13909e-05 0)
(0.0985561 -3.89383e-05 0)
(0.0985555 -4.32516e-05 0)
(0.0985698 -4.48044e-05 0)
(0.0985945 -4.40296e-05 0)
(0.0986257 -4.19338e-05 0)
(0.0986606 -3.89644e-05 0)
(0.0986969 -3.55319e-05 0)
(0.098733 -3.19817e-05 0)
(0.0987682 -2.85681e-05 0)
(0.0988019 -2.54324e-05 0)
(0.098834 -2.26203e-05 0)
(0.0988645 -2.01506e-05 0)
(0.0988934 -1.79888e-05 0)
(0.0989209 -1.60778e-05 0)
(0.098947 -1.43865e-05 0)
(0.0989719 -1.28619e-05 0)
(0.0989953 -1.14713e-05 0)
(0.0990175 -1.01933e-05 0)
(0.0990382 -9.00859e-06 0)
(0.0990575 -7.91104e-06 0)
(0.0990752 -6.88972e-06 0)
(0.0990914 -5.94566e-06 0)
(0.099106 -5.07677e-06 0)
(0.0991191 -4.28979e-06 0)
(0.0991305 -3.58379e-06 0)
(0.0991405 -2.95982e-06 0)
(0.099149 -2.41138e-06 0)
(0.0991561 -1.93313e-06 0)
(0.099162 -1.51453e-06 0)
(0.0991666 -1.15171e-06 0)
(0.0991703 -8.4295e-07 0)
(0.099173 -5.82136e-07 0)
(0.0991751 -3.7477e-07 0)
(0.0991764 -2.08811e-07 0)
(0.0991773 -9.7236e-08 0)
(0.0991778 -8.90583e-09 0)
(0.0991781 2.3555e-08 0)
(0.0991782 6.60795e-08 0)
(0.0991782 4.06883e-08 0)
(0.193371 0.00699941 0)
(0.193715 0.00881214 0)
(0.194656 0.0102964 0)
(0.196076 0.0110976 0)
(0.197591 0.0112859 0)
(0.19886 0.0110587 0)
(0.1997 0.0105527 0)
(0.200074 0.00984811 0)
(0.200017 0.00902197 0)
(0.199577 0.00817633 0)
(0.198804 0.00740986 0)
(0.19777 0.00677465 0)
(0.196543 0.00626904 0)
(0.19518 0.00586086 0)
(0.193713 0.00551796 0)
(0.192165 0.00521613 0)
(0.190553 0.00493803 0)
(0.188888 0.00467532 0)
(0.187181 0.00442861 0)
(0.185436 0.00419971 0)
(0.183659 0.00398544 0)
(0.181851 0.00377997 0)
(0.180017 0.00357994 0)
(0.178168 0.00338624 0)
(0.176318 0.00320179 0)
(0.174476 0.00302829 0)
(0.172647 0.00286576 0)
(0.170831 0.00271323 0)
(0.169024 0.00256835 0)
(0.16723 0.00242866 0)
(0.165453 0.00229338 0)
(0.163701 0.00216289 0)
(0.161982 0.00203743 0)
(0.160301 0.00191719 0)
(0.158662 0.0018023 0)
(0.157068 0.00169258 0)
(0.155522 0.0015877 0)
(0.154026 0.00148731 0)
(0.152585 0.00139105 0)
(0.151198 0.00129862 0)
(0.149866 0.0012098 0)
(0.14859 0.00112425 0)
(0.14737 0.00104161 0)
(0.146207 0.000961689 0)
(0.145103 0.00088433 0)
(0.144058 0.000809201 0)
(0.143072 0.000736206 0)
(0.142147 0.000665634 0)
(0.141282 0.000597389 0)
(0.140479 0.000531095 0)
(0.139736 0.000467091 0)
(0.139054 0.000405911 0)
(0.138432 0.000347257 0)
(0.13787 0.000290864 0)
(0.137366 0.000237605 0)
(0.136918 0.00018834 0)
(0.136524 0.000142684 0)
(0.136182 0.000101125 0)
(0.135889 6.5487e-05 0)
(0.135639 3.52398e-05 0)
(0.13543 8.72982e-06 0)
(0.135258 -1.18919e-05 0)
(0.135118 -2.67009e-05 0)
(0.135006 -3.66073e-05 0)
(0.134918 -4.27984e-05 0)
(0.134849 -4.54859e-05 0)
(0.134795 -4.56274e-05 0)
(0.134755 -4.41268e-05 0)
(0.134725 -4.16873e-05 0)
(0.134703 -3.88416e-05 0)
(0.134688 -3.59514e-05 0)
(0.134678 -3.31963e-05 0)
(0.134673 -3.06798e-05 0)
(0.134673 -2.83815e-05 0)
(0.134676 -2.62622e-05 0)
(0.134683 -2.43367e-05 0)
(0.134692 -2.25402e-05 0)
(0.134703 -2.08263e-05 0)
(0.134716 -1.91648e-05 0)
(0.134731 -1.75307e-05 0)
(0.134747 -1.59285e-05 0)
(0.134763 -1.43451e-05 0)
(0.13478 -1.27914e-05 0)
(0.134796 -1.12731e-05 0)
(0.134813 -9.81646e-06 0)
(0.134828 -8.43294e-06 0)
(0.134843 -7.14319e-06 0)
(0.134856 -5.95331e-06 0)
(0.134868 -4.87425e-06 0)
(0.134879 -3.90281e-06 0)
(0.134888 -3.04409e-06 0)
(0.134896 -2.30083e-06 0)
(0.134902 -1.66835e-06 0)
(0.134907 -1.15761e-06 0)
(0.134911 -7.47674e-07 0)
(0.134914 -4.56995e-07 0)
(0.134915 -2.30721e-07 0)
(0.134917 -1.1005e-07 0)
(0.134917 -5.83223e-09 0)
(0.134918 7.42623e-09 0)
(0.194336 0.0066753 0)
(0.194633 0.00800824 0)
(0.195328 0.00922167 0)
(0.196433 0.0100338 0)
(0.197768 0.0103538 0)
(0.199078 0.0102678 0)
(0.200175 0.00990437 0)
(0.200986 0.00936694 0)
(0.201518 0.00873074 0)
(0.201798 0.00806601 0)
(0.201853 0.00744535 0)
(0.201726 0.00691856 0)
(0.201468 0.00649621 0)
(0.201121 0.00615906 0)
(0.200708 0.00588041 0)
(0.200244 0.00563664 0)
(0.199733 0.00541 0)
(0.199179 0.00519203 0)
(0.198586 0.00498413 0)
(0.197957 0.00479019 0)
(0.197291 0.00460956 0)
(0.196585 0.00443801 0)
(0.195835 0.00427075 0)
(0.195043 0.00410424 0)
(0.194215 0.00393809 0)
(0.193361 0.00377527 0)
(0.192492 0.00362035 0)
(0.191609 0.00347689 0)
(0.19071 0.0033444 0)
(0.189785 0.00321799 0)
(0.188832 0.00309212 0)
(0.187852 0.00296446 0)
(0.186855 0.00283636 0)
(0.185848 0.00271033 0)
(0.184836 0.00258733 0)
(0.18382 0.00246649 0)
(0.182801 0.00234674 0)
(0.181787 0.00222805 0)
(0.180782 0.00211144 0)
(0.179791 0.00199772 0)
(0.178816 0.00188677 0)
(0.177859 0.00177806 0)
(0.176921 0.00167123 0)
(0.176004 0.00156618 0)
(0.17511 0.00146288 0)
(0.174242 0.00136113 0)
(0.1734 0.00126066 0)
(0.172588 0.0011617 0)
(0.171808 0.00106433 0)
(0.171061 0.000968402 0)
(0.170349 0.000874377 0)
(0.169673 0.000783006 0)
(0.169036 0.000694337 0)
(0.168438 0.000608335 0)
(0.167878 0.000525869 0)
(0.167358 0.00044797 0)
(0.166878 0.00037499 0)
(0.166438 0.000307225 0)
(0.166035 0.000245544 0)
(0.165668 0.000190534 0)
(0.165338 0.000143472 0)
(0.165041 0.000103953 0)
(0.164776 7.20624e-05 0)
(0.16454 4.70446e-05 0)
(0.164331 2.7443e-05 0)
(0.164146 1.30204e-05 0)
(0.163984 2.78828e-06 0)
(0.163841 -4.25017e-06 0)
(0.163716 -9.02001e-06 0)
(0.163607 -1.22851e-05 0)
(0.163513 -1.45854e-05 0)
(0.163431 -1.62866e-05 0)
(0.163361 -1.76558e-05 0)
(0.163302 -1.88792e-05 0)
(0.163253 -1.9976e-05 0)
(0.163213 -2.07672e-05 0)
(0.163181 -2.1305e-05 0)
(0.163156 -2.16012e-05 0)
(0.163139 -2.16533e-05 0)
(0.163127 -2.14188e-05 0)
(0.163121 -2.09186e-05 0)
(0.16312 -2.01655e-05 0)
(0.163122 -1.91977e-05 0)
(0.163128 -1.80364e-05 0)
(0.163137 -1.6729e-05 0)
(0.163147 -1.52974e-05 0)
(0.16316 -1.37758e-05 0)
(0.163173 -1.21831e-05 0)
(0.163187 -1.05609e-05 0)
(0.1632 -8.93768e-06 0)
(0.163213 -7.36687e-06 0)
(0.163225 -5.89266e-06 0)
(0.163236 -4.55915e-06 0)
(0.163245 -3.40324e-06 0)
(0.163252 -2.44301e-06 0)
(0.163258 -1.68413e-06 0)
(0.163262 -1.11075e-06 0)
(0.163266 -6.94891e-07 0)
(0.163268 -4.41907e-07 0)
(0.16327 -2.36076e-07 0)
(0.195164 0.00640913 0)
(0.195428 0.00744508 0)
(0.195969 0.00841948 0)
(0.196808 0.00915784 0)
(0.197861 0.00954047 0)
(0.198969 0.00956717 0)
(0.199972 0.00932495 0)
(0.200779 0.0089149 0)
(0.201375 0.0084127 0)
(0.201775 0.00787534 0)
(0.202005 0.00735691 0)
(0.202097 0.00690068 0)
(0.202091 0.00652327 0)
(0.202026 0.0062171 0)
(0.20193 0.00596476 0)
(0.201816 0.00574654 0)
(0.201685 0.00554418 0)
(0.201539 0.00534719 0)
(0.201378 0.0051559 0)
(0.201203 0.00497582 0)
(0.201013 0.00480962 0)
(0.200808 0.00465527 0)
(0.200581 0.00450801 0)
(0.200331 0.00436175 0)
(0.200057 0.00421218 0)
(0.199764 0.00406031 0)
(0.19946 0.00391222 0)
(0.199149 0.00377462 0)
(0.198832 0.00365091 0)
(0.198505 0.00353954 0)
(0.198158 0.00343375 0)
(0.197786 0.00332524 0)
(0.197389 0.00321077 0)
(0.196976 0.00309375 0)
(0.196552 0.00297887 0)
(0.196115 0.00286706 0)
(0.195662 0.00275551 0)
(0.195194 0.00264147 0)
(0.194717 0.00252545 0)
(0.194236 0.00241003 0)
(0.193752 0.00229659 0)
(0.193266 0.00218485 0)
(0.192779 0.00207415 0)
(0.192292 0.00196403 0)
(0.191805 0.00185444 0)
(0.191321 0.00174545 0)
(0.19084 0.00163688 0)
(0.190363 0.0015287 0)
(0.189892 0.00142098 0)
(0.189429 0.00131375 0)
(0.188975 0.00120734 0)
(0.188532 0.00110242 0)
(0.188101 0.000999286 0)
(0.187683 0.000898208 0)
(0.187279 0.00080033 0)
(0.18689 0.000706748 0)
(0.186518 0.000617484 0)
(0.186163 0.000533024 0)
(0.185825 0.000455132 0)
(0.185506 0.000384939 0)
(0.185206 0.000322579 0)
(0.184924 0.000267681 0)
(0.184662 0.000220476 0)
(0.184419 0.000180976 0)
(0.184194 0.000148725 0)
(0.183986 0.000122462 0)
(0.183795 0.00010119 0)
(0.183619 8.39174e-05 0)
(0.183458 6.9691e-05 0)
(0.18331 5.77227e-05 0)
(0.183176 4.74275e-05 0)
(0.183053 3.83299e-05 0)
(0.182942 3.00413e-05 0)
(0.182842 2.23565e-05 0)
(0.182754 1.52892e-05 0)
(0.182676 9.0336e-06 0)
(0.182608 3.49607e-06 0)
(0.182549 -1.36138e-06 0)
(0.182498 -5.58939e-06 0)
(0.182456 -9.21387e-06 0)
(0.182422 -1.21908e-05 0)
(0.182396 -1.44625e-05 0)
(0.182376 -1.60915e-05 0)
(0.182361 -1.71385e-05 0)
(0.182352 -1.77096e-05 0)
(0.182347 -1.78688e-05 0)
(0.182347 -1.7666e-05 0)
(0.182349 -1.70919e-05 0)
(0.182355 -1.61587e-05 0)
(0.182363 -1.48601e-05 0)
(0.182373 -1.32713e-05 0)
(0.182384 -1.14615e-05 0)
(0.182395 -9.57818e-06 0)
(0.182405 -7.70073e-06 0)
(0.182414 -6.00639e-06 0)
(0.182423 -4.47027e-06 0)
(0.182429 -3.29185e-06 0)
(0.182434 -2.2305e-06 0)
(0.182438 -1.65661e-06 0)
(0.182442 -9.36298e-07 0)
(0.195895 0.00617282 0)
(0.196133 0.00699237 0)
(0.196565 0.0077679 0)
(0.197203 0.00839246 0)
(0.198013 0.00877253 0)
(0.198906 0.00887773 0)
(0.199762 0.00874928 0)
(0.200493 0.00846018 0)
(0.201059 0.00807612 0)
(0.201463 0.00764849 0)
(0.201723 0.00722128 0)
(0.201865 0.00682987 0)
(0.201919 0.00649284 0)
(0.201921 0.00621048 0)
(0.201902 0.00597302 0)
(0.201873 0.00576645 0)
(0.201839 0.00557525 0)
(0.201799 0.00538887 0)
(0.201755 0.00520645 0)
(0.201707 0.00503264 0)
(0.201652 0.00487083 0)
(0.201592 0.00472068 0)
(0.201527 0.00457882 0)
(0.201455 0.00444009 0)
(0.201372 0.00429888 0)
(0.201281 0.00415296 0)
(0.201183 0.00400678 0)
(0.201083 0.00386835 0)
(0.200983 0.00374354 0)
(0.200886 0.00363398 0)
(0.200788 0.0035354 0)
(0.200683 0.00343785 0)
(0.200566 0.00333317 0)
(0.200441 0.0032222 0)
(0.200311 0.00311184 0)
(0.200176 0.00300641 0)
(0.200033 0.00290341 0)
(0.19988 0.00279751 0)
(0.199717 0.00268703 0)
(0.199548 0.00257473 0)
(0.199375 0.00246348 0)
(0.199198 0.00235403 0)
(0.199016 0.00224571 0)
(0.198829 0.00213767 0)
(0.198638 0.00202965 0)
(0.198444 0.00192188 0)
(0.198247 0.00181425 0)
(0.198045 0.00170646 0)
(0.197842 0.00159847 0)
(0.197636 0.00149054 0)
(0.197428 0.00138308 0)
(0.197219 0.00127651 0)
(0.19701 0.00117104 0)
(0.196802 0.00106727 0)
(0.196594 0.000966321 0)
(0.196387 0.000868827 0)
(0.196182 0.000775033 0)
(0.19598 0.000685987 0)
(0.195781 0.000603166 0)
(0.195588 0.000527126 0)
(0.1954 0.000457886 0)
(0.195218 0.000395671 0)
(0.195045 0.000341275 0)
(0.194881 0.000294781 0)
(0.194726 0.000255449 0)
(0.194579 0.000222266 0)
(0.194441 0.000194347 0)
(0.19431 0.000170648 0)
(0.194186 0.000150206 0)
(0.19407 0.000132306 0)
(0.19396 0.000116308 0)
(0.193857 0.000101651 0)
(0.19376 8.79071e-05 0)
(0.19367 7.49642e-05 0)
(0.193587 6.28509e-05 0)
(0.19351 5.16153e-05 0)
(0.193441 4.13124e-05 0)
(0.193379 3.19398e-05 0)
(0.193323 2.3402e-05 0)
(0.193273 1.56135e-05 0)
(0.19323 8.63144e-06 0)
(0.193193 2.60163e-06 0)
(0.193162 -2.446e-06 0)
(0.193137 -6.52553e-06 0)
(0.193116 -9.75946e-06 0)
(0.1931 -1.22866e-05 0)
(0.193088 -1.42361e-05 0)
(0.19308 -1.56411e-05 0)
(0.193075 -1.64947e-05 0)
(0.193073 -1.67198e-05 0)
(0.193074 -1.63191e-05 0)
(0.193077 -1.52844e-05 0)
(0.193083 -1.37926e-05 0)
(0.193089 -1.18973e-05 0)
(0.193095 -9.96018e-06 0)
(0.193101 -7.87128e-06 0)
(0.193107 -6.2053e-06 0)
(0.193112 -4.40192e-06 0)
(0.193115 -3.48917e-06 0)
(0.193119 -2.02705e-06 0)
(0.196546 0.00594627 0)
(0.196759 0.00659644 0)
(0.197106 0.00720933 0)
(0.197594 0.0077211 0)
(0.19821 0.00806894 0)
(0.198911 0.00822004 0)
(0.199616 0.00818401 0)
(0.200247 0.00800235 0)
(0.200759 0.00772462 0)
(0.201142 0.00739493 0)
(0.201407 0.00705074 0)
(0.201569 0.00672251 0)
(0.201653 0.00642878 0)
(0.201685 0.00617316 0)
(0.201693 0.00595015 0)
(0.201692 0.00575204 0)
(0.201685 0.00556929 0)
(0.201673 0.00539293 0)
(0.20166 0.00522002 0)
(0.201644 0.00505291 0)
(0.201622 0.00489447 0)
(0.201594 0.00474578 0)
(0.201566 0.00460506 0)
(0.201538 0.00446795 0)
(0.201506 0.00432974 0)
(0.201468 0.00418797 0)
(0.201426 0.0040447 0)
(0.20138 0.0039062 0)
(0.201334 0.00377867 0)
(0.201291 0.00366485 0)
(0.201255 0.00356288 0)
(0.201224 0.00346553 0)
(0.201193 0.00336366 0)
(0.201161 0.00325453 0)
(0.201127 0.00314448 0)
(0.201093 0.00304012 0)
(0.201059 0.00294002 0)
(0.201022 0.00283795 0)
(0.200981 0.00273103 0)
(0.200937 0.00262132 0)
(0.200889 0.00251205 0)
(0.200839 0.00240468 0)
(0.200786 0.00229855 0)
(0.20073 0.00219256 0)
(0.20067 0.00208659 0)
(0.200608 0.00198103 0)
(0.200543 0.00187573 0)
(0.200474 0.00177028 0)
(0.200402 0.00166447 0)
(0.200327 0.00155832 0)
(0.200249 0.00145236 0)
(0.200168 0.00134732 0)
(0.200085 0.00124353 0)
(0.199998 0.00114136 0)
(0.199909 0.00104181 0)
(0.199818 0.000945785 0)
(0.199724 0.000853524 0)
(0.199627 0.000765438 0)
(0.199529 0.000682405 0)
(0.199431 0.000605172 0)
(0.199332 0.000534241 0)
(0.199236 0.000470054 0)
(0.199143 0.000413072 0)
(0.199053 0.000363322 0)
(0.198967 0.000320443 0)
(0.198886 0.00028391 0)
(0.198809 0.000252924 0)
(0.198735 0.000226377 0)
(0.198664 0.000203227 0)
(0.198595 0.000182799 0)
(0.198529 0.000164476 0)
(0.198465 0.000147623 0)
(0.198403 0.000131641 0)
(0.198344 0.00011618 0)
(0.198287 0.000101214 0)
(0.198234 8.69625e-05 0)
(0.198185 7.36372e-05 0)
(0.198139 6.12963e-05 0)
(0.198097 4.98566e-05 0)
(0.198059 3.92613e-05 0)
(0.198024 2.94985e-05 0)
(0.197994 2.069e-05 0)
(0.197967 1.29895e-05 0)
(0.197944 6.47715e-06 0)
(0.197925 1.09693e-06 0)
(0.197908 -3.32796e-06 0)
(0.197894 -6.97891e-06 0)
(0.197882 -1.00007e-05 0)
(0.197873 -1.24085e-05 0)
(0.197865 -1.41465e-05 0)
(0.19786 -1.51303e-05 0)
(0.197857 -1.52904e-05 0)
(0.197856 -1.47259e-05 0)
(0.197856 -1.34379e-05 0)
(0.197858 -1.18513e-05 0)
(0.197859 -9.77477e-06 0)
(0.197861 -8.0589e-06 0)
(0.197863 -5.87292e-06 0)
(0.197865 -4.81363e-06 0)
(0.197866 -2.80604e-06 0)
(0.197095 0.00573464 0)
(0.197286 0.00625702 0)
(0.19757 0.00674874 0)
(0.19795 0.00716961 0)
(0.198424 0.00747877 0)
(0.198971 0.00764791 0)
(0.199539 0.00767297 0)
(0.200067 0.00757505 0)
(0.200514 0.00738703 0)
(0.200865 0.00714199 0)
(0.201123 0.00687138 0)
(0.201297 0.00660212 0)
(0.2014 0.00635082 0)
(0.201454 0.00612274 0)
(0.20148 0.00591662 0)
(0.201496 0.00572922 0)
(0.201503 0.00555531 0)
(0.201503 0.00538789 0)
(0.2015 0.00522321 0)
(0.201494 0.00506286 0)
(0.201484 0.00490913 0)
(0.201468 0.00476239 0)
(0.201449 0.00462203 0)
(0.201432 0.00448533 0)
(0.201414 0.0043485 0)
(0.20139 0.0042101 0)
(0.201361 0.00407121 0)
(0.20133 0.00393496 0)
(0.201296 0.00380639 0)
(0.201262 0.00368863 0)
(0.201235 0.00358047 0)
(0.201217 0.00347778 0)
(0.201203 0.00337408 0)
(0.201191 0.00326487 0)
(0.201178 0.00315396 0)
(0.201167 0.00304819 0)
(0.201157 0.00294717 0)
(0.201149 0.00284528 0)
(0.201141 0.00273976 0)
(0.201131 0.00263178 0)
(0.201118 0.00252382 0)
(0.201103 0.00241775 0)
(0.201087 0.00231311 0)
(0.201069 0.00220855 0)
(0.201049 0.00210413 0)
(0.201027 0.00200022 0)
(0.201002 0.00189646 0)
(0.200975 0.00179267 0)
(0.200946 0.0016888 0)
(0.200914 0.00158451 0)
(0.200881 0.00148022 0)
(0.200845 0.00137688 0)
(0.200807 0.00127475 0)
(0.200766 0.0011741 0)
(0.200722 0.00107631 0)
(0.200676 0.000982485 0)
(0.200627 0.000892384 0)
(0.200574 0.000805929 0)
(0.20052 0.000724025 0)
(0.200464 0.00064754 0)
(0.200407 0.000576711 0)
(0.20035 0.000511789 0)
(0.200295 0.00045325 0)
(0.200242 0.000401414 0)
(0.200192 0.000356299 0)
(0.200144 0.000317728 0)
(0.200099 0.000285058 0)
(0.200056 0.000257212 0)
(0.200015 0.000233078 0)
(0.199974 0.000211855 0)
(0.199934 0.00019285 0)
(0.199894 0.000175338 0)
(0.199855 0.000158603 0)
(0.199817 0.00014219 0)
(0.19978 0.00012603 0)
(0.199744 0.000110341 0)
(0.19971 9.54e-05 0)
(0.199678 8.13885e-05 0)
(0.199649 6.83013e-05 0)
(0.199622 5.60527e-05 0)
(0.199598 4.4628e-05 0)
(0.199576 3.41287e-05 0)
(0.199556 2.47721e-05 0)
(0.199539 1.66951e-05 0)
(0.199524 9.94056e-06 0)
(0.19951 4.32088e-06 0)
(0.199499 -3.24336e-07 0)
(0.199488 -4.26011e-06 0)
(0.19948 -7.51296e-06 0)
(0.199472 -1.01393e-05 0)
(0.199465 -1.1974e-05 0)
(0.199459 -1.29974e-05 0)
(0.199455 -1.31654e-05 0)
(0.199452 -1.25139e-05 0)
(0.19945 -1.13758e-05 0)
(0.199448 -9.60452e-06 0)
(0.199447 -8.07004e-06 0)
(0.199446 -5.9091e-06 0)
(0.199446 -4.8784e-06 0)
(0.199444 -2.74467e-06 0)
(0.19757 0.00554318 0)
(0.197739 0.00597274 0)
(0.197973 0.00637671 0)
(0.198272 0.00672706 0)
(0.198637 0.00699626 0)
(0.199061 0.00716436 0)
(0.199513 0.00722532 0)
(0.199945 0.00718777 0)
(0.200323 0.00706991 0)
(0.200634 0.00689479 0)
(0.200876 0.00668793 0)
(0.201052 0.00647179 0)
(0.201168 0.00626005 0)
(0.201236 0.00605923 0)
(0.201277 0.00587219 0)
(0.201305 0.00569801 0)
(0.201322 0.00553315 0)
(0.201329 0.00537374 0)
(0.201331 0.00521728 0)
(0.201332 0.0050647 0)
(0.20133 0.00491743 0)
(0.20132 0.00477427 0)
(0.201308 0.00463492 0)
(0.201296 0.00449948 0)
(0.201283 0.00436498 0)
(0.201266 0.00422933 0)
(0.201243 0.00409394 0)
(0.201218 0.00396087 0)
(0.201191 0.00383296 0)
(0.201163 0.00371258 0)
(0.201138 0.003599 0)
(0.201121 0.00349016 0)
(0.20111 0.00338278 0)
(0.201099 0.00327277 0)
(0.20109 0.00316139 0)
(0.201082 0.00305388 0)
(0.201076 0.00295046 0)
(0.201072 0.00284712 0)
(0.20107 0.00274204 0)
(0.201067 0.0026356 0)
(0.201062 0.00252893 0)
(0.201056 0.00242371 0)
(0.201049 0.00231998 0)
(0.201041 0.00221648 0)
(0.201031 0.00211337 0)
(0.201019 0.00201107 0)
(0.201006 0.00190886 0)
(0.200991 0.00180628 0)
(0.200974 0.00170361 0)
(0.200955 0.00160077 0)
(0.200935 0.00149795 0)
(0.200913 0.00139597 0)
(0.200889 0.00129539 0)
(0.200863 0.00119663 0)
(0.200835 0.00110067 0)
(0.200804 0.00100822 0)
(0.200771 0.000919363 0)
(0.200735 0.000834366 0)
(0.200698 0.000753874 0)
(0.200658 0.000678177 0)
(0.200617 0.000607318 0)
(0.200577 0.000541781 0)
(0.200538 0.000482144 0)
(0.200501 0.000428807 0)
(0.200465 0.000382015 0)
(0.200432 0.00034186 0)
(0.200401 0.000307859 0)
(0.200371 0.000278986 0)
(0.200341 0.000254134 0)
(0.200313 0.000232433 0)
(0.200284 0.000213132 0)
(0.200256 0.000195405 0)
(0.200227 0.000178424 0)
(0.200199 0.000161631 0)
(0.200171 0.000144873 0)
(0.200145 0.000128325 0)
(0.200119 0.000112289 0)
(0.200095 9.70332e-05 0)
(0.200072 8.26458e-05 0)
(0.200052 6.90839e-05 0)
(0.200033 5.63882e-05 0)
(0.200016 4.46432e-05 0)
(0.200001 3.41068e-05 0)
(0.199988 2.49072e-05 0)
(0.199976 1.7158e-05 0)
(0.199965 1.06501e-05 0)
(0.199956 5.29509e-06 0)
(0.199948 7.39333e-07 0)
(0.19994 -2.98521e-06 0)
(0.199933 -6.10691e-06 0)
(0.199927 -8.38204e-06 0)
(0.199921 -9.93926e-06 0)
(0.199917 -1.05739e-05 0)
(0.199912 -1.04433e-05 0)
(0.199909 -9.67444e-06 0)
(0.199904 -8.27266e-06 0)
(0.199902 -6.93964e-06 0)
(0.199899 -4.9881e-06 0)
(0.199898 -4.03194e-06 0)
(0.199894 -2.02195e-06 0)
(0.198002 0.00536439 0)
(0.198151 0.00572269 0)
(0.198342 0.0060594 0)
(0.198571 0.00635316 0)
(0.198848 0.00658542 0)
(0.199173 0.00674452 0)
(0.199527 0.00682572 0)
(0.199871 0.00683033 0)
(0.200178 0.00676651 0)
(0.200441 0.00664934 0)
(0.200659 0.0064978 0)
(0.200828 0.00632948 0)
(0.200945 0.00615557 0)
(0.201022 0.00598219 0)
(0.201073 0.00581458 0)
(0.20111 0.0056553 0)
(0.201133 0.00550229 0)
(0.201145 0.00535249 0)
(0.201152 0.00520466 0)
(0.201159 0.00505995 0)
(0.201162 0.00491953 0)
(0.201157 0.00478145 0)
(0.201149 0.00464436 0)
(0.201143 0.00451007 0)
(0.201134 0.00437822 0)
(0.201121 0.00424591 0)
(0.201103 0.00411318 0)
(0.201084 0.00398281 0)
(0.201064 0.00385669 0)
(0.201041 0.00373495 0)
(0.201019 0.00361735 0)
(0.201004 0.00350402 0)
(0.200993 0.00339306 0)
(0.200982 0.00328122 0)
(0.200973 0.00316933 0)
(0.200965 0.00306071 0)
(0.200959 0.00295494 0)
(0.200954 0.00284957 0)
(0.200952 0.00274402 0)
(0.200949 0.00263832 0)
(0.200945 0.00253272 0)
(0.20094 0.00242838 0)
(0.200935 0.00232538 0)
(0.200929 0.00222272 0)
(0.200923 0.00212056 0)
(0.200915 0.00201935 0)
(0.200905 0.00191844 0)
(0.200894 0.0018173 0)
(0.200882 0.00171597 0)
(0.200868 0.0016143 0)
(0.200852 0.00151252 0)
(0.200836 0.00141151 0)
(0.200818 0.00131212 0)
(0.200798 0.00121498 0)
(0.200776 0.00112079 0)
(0.200752 0.00103005 0)
(0.200725 0.000942965 0)
(0.200697 0.00085977 0)
(0.200667 0.000780521 0)
(0.200635 0.000705135 0)
(0.200602 0.000633936 0)
(0.20057 0.000567735 0)
(0.200539 0.000507112 0)
(0.200509 0.000452478 0)
(0.20048 0.000404269 0)
(0.200453 0.000362763 0)
(0.200428 0.000327601 0)
(0.200404 0.000297854 0)
(0.20038 0.000272479 0)
(0.200357 0.000250545 0)
(0.200334 0.000231144 0)
(0.20031 0.0002133 0)
(0.200286 0.000196105 0)
(0.200263 0.000178977 0)
(0.20024 0.000161701 0)
(0.200217 0.000144415 0)
(0.200196 0.000127464 0)
(0.200176 0.000111129 0)
(0.200157 9.5551e-05 0)
(0.20014 8.07563e-05 0)
(0.200124 6.68628e-05 0)
(0.20011 5.39747e-05 0)
(0.200098 4.23867e-05 0)
(0.200086 3.21907e-05 0)
(0.200076 2.35597e-05 0)
(0.200067 1.62536e-05 0)
(0.20006 1.02621e-05 0)
(0.200052 5.1557e-06 0)
(0.200046 1.0664e-06 0)
(0.20004 -2.38448e-06 0)
(0.200035 -4.83536e-06 0)
(0.20003 -6.64489e-06 0)
(0.200025 -7.44431e-06 0)
(0.20002 -7.64565e-06 0)
(0.200017 -7.09863e-06 0)
(0.200012 -6.08414e-06 0)
(0.200009 -4.93981e-06 0)
(0.200005 -3.33967e-06 0)
(0.200003 -2.46942e-06 0)
(0.199999 -7.6199e-07 0)
(0.198398 0.00520229 0)
(0.198527 0.0055042 0)
(0.198679 0.00578835 0)
(0.198849 0.00603812 0)
(0.199052 0.00624017 0)
(0.199298 0.00638757 0)
(0.19957 0.00647785 0)
(0.199836 0.00651056 0)
(0.200075 0.00648739 0)
(0.200288 0.00641547 0)
(0.200474 0.0063086 0)
(0.200626 0.00618144 0)
(0.200736 0.00604285 0)
(0.200812 0.00589704 0)
(0.200868 0.00574927 0)
(0.200911 0.00560538 0)
(0.200938 0.00546584 0)
(0.200952 0.00532658 0)
(0.200961 0.00518645 0)
(0.200972 0.00504866 0)
(0.20098 0.00491471 0)
(0.200978 0.00478205 0)
(0.200973 0.00464854 0)
(0.200972 0.00451601 0)
(0.200969 0.00438684 0)
(0.200958 0.00425874 0)
(0.200945 0.0041287 0)
(0.200933 0.00399991 0)
(0.200919 0.00387605 0)
(0.200902 0.00375453 0)
(0.200884 0.00363396 0)
(0.200872 0.00351762 0)
(0.200862 0.00340465 0)
(0.20085 0.00329103 0)
(0.200842 0.00317803 0)
(0.200835 0.00306839 0)
(0.200828 0.00296071 0)
(0.200822 0.00285366 0)
(0.200818 0.0027476 0)
(0.200815 0.00264194 0)
(0.20081 0.0025366 0)
(0.200806 0.0024326 0)
(0.200802 0.00232991 0)
(0.200796 0.00222802 0)
(0.200791 0.00212702 0)
(0.200785 0.00202664 0)
(0.200778 0.00192647 0)
(0.200769 0.00182651 0)
(0.20076 0.00172627 0)
(0.200749 0.00162547 0)
(0.200737 0.00152494 0)
(0.200724 0.0014254 0)
(0.20071 0.00132706 0)
(0.200694 0.00123088 0)
(0.200676 0.00113819 0)
(0.200657 0.00104924 0)
(0.200635 0.000963841 0)
(0.200612 0.000882203 0)
(0.200588 0.000804305 0)
(0.200561 0.000729759 0)
(0.200534 0.000658747 0)
(0.200508 0.000592105 0)
(0.200483 0.000530526 0)
(0.200458 0.000474543 0)
(0.200434 0.000424852 0)
(0.200412 0.000382008 0)
(0.200391 0.000345797 0)
(0.20037 0.000315366 0)
(0.20035 0.000289666 0)
(0.20033 0.000267672 0)
(0.20031 0.000248303 0)
(0.20029 0.000230435 0)
(0.20027 0.000213101 0)
(0.200249 0.000195677 0)
(0.20023 0.000177927 0)
(0.20021 0.000159963 0)
(0.200192 0.000142126 0)