/*--------------------------------*- C++ -*----------------------------------*\
| =========                 |                                                 |
| \\      /  F ield         | OpenFOAM: The Open Source CFD Toolbox           |
|  \\    /   O peration     | Version:  2.3.0                                 |
|   \\  /    A nd           | Web:      www.OpenFOAM.org                      |
|    \\/     M anipulation  |                                                 |
\*---------------------------------------------------------------------------*/
FoamFile
{
    version     2.0;
    format      ascii;
    class       volVectorField;
    location    "0.55";
    object      U_0;
}
// * * * * * * * * * * * * * * * * * * * * * * * * * * * * * * * * * * * * * //

dimensions      [0 1 -1 0 0 0 0];

internalField   nonuniform List<vector> 
2945
(
(0.149688 0.00850344 0)
(0.105566 0.00731872 0)
(0.0743254 0.00404718 0)
(0.0556135 0.00135755 0)
(0.0453134 0.00014267 0)
(0.0397942 -0.000131267 0)
(0.0366015 -7.42291e-05 0)
(0.0343433 2.11025e-05 0)
(0.032436 7.25653e-05 0)
(0.0307294 8.51639e-05 0)
(0.0292087 8.0403e-05 0)
(0.0278646 7.17442e-05 0)
(0.0266742 6.38757e-05 0)
(0.0256115 5.74529e-05 0)
(0.0246543 5.2144e-05 0)
(0.0237854 4.7617e-05 0)
(0.0229916 4.36669e-05 0)
(0.0222624 4.01735e-05 0)
(0.0215897 3.70612e-05 0)
(0.0209667 3.42763e-05 0)
(0.0203877 3.17753e-05 0)
(0.0198479 2.95216e-05 0)
(0.0193434 2.7484e-05 0)
(0.0188706 2.56359e-05 0)
(0.0184265 2.39544e-05 0)
(0.0180085 2.24203e-05 0)
(0.0176143 2.10168e-05 0)
(0.0172418 1.97293e-05 0)
(0.0168895 1.85455e-05 0)
(0.0165555 1.74545e-05 0)
(0.0162386 1.64469e-05 0)
(0.0159375 1.55143e-05 0)
(0.0156511 1.46493e-05 0)
(0.0153783 1.38457e-05 0)
(0.0151183 1.30976e-05 0)
(0.0148703 1.23998e-05 0)
(0.0146334 1.17479e-05 0)
(0.0144071 1.11378e-05 0)
(0.0141906 1.05658e-05 0)
(0.0139836 1.00285e-05 0)
(0.0137853 9.52304e-06 0)
(0.0135955 9.04668e-06 0)
(0.0134136 8.597e-06 0)
(0.0132393 8.17178e-06 0)
(0.0130723 7.76901e-06 0)
(0.0129122 7.38686e-06 0)
(0.0127587 7.02371e-06 0)
(0.0126117 6.67805e-06 0)
(0.0124707 6.34853e-06 0)
(0.0123357 6.03392e-06 0)
(0.0122064 5.73312e-06 0)
(0.0120827 5.44512e-06 0)
(0.0119644 5.16904e-06 0)
(0.0118513 4.90407e-06 0)
(0.0117433 4.64953e-06 0)
(0.0116403 4.40481e-06 0)
(0.0115421 4.16937e-06 0)
(0.0114488 3.9428e-06 0)
(0.01136 3.72472e-06 0)
(0.0112759 3.51491e-06 0)
(0.0111962 3.31317e-06 0)
(0.0111209 3.11947e-06 0)
(0.0110498 2.93387e-06 0)
(0.0109829 2.75649e-06 0)
(0.01092 2.58794e-06 0)
(0.0108611 2.42803e-06 0)
(0.0108059 2.27986e-06 0)
(0.0107543 2.1363e-06 0)
(0.0107058 2.02471e-06 0)
(0.0106614 1.85867e-06 0)
(0.0106172 1.91247e-06 0)
(0.0105831 1.31666e-06 0)
(0.0105327 2.5196e-06 0)
(0.0105303 -1.77265e-06 0)
(0.0104796 4.71651e-06 0)
(0.195296 0.0141372 0)
(0.188849 0.0150647 0)
(0.173403 0.0120873 0)
(0.155317 0.00804459 0)
(0.138631 0.00479613 0)
(0.124932 0.00279091 0)
(0.114254 0.0017589 0)
(0.105943 0.00128093 0)
(0.0992816 0.0010457 0)
(0.0937483 0.00089723 0)
(0.08902 0.000780917 0)
(0.0849003 0.000683805 0)
(0.0812612 0.000603011 0)
(0.0780124 0.000536146 0)
(0.0750867 0.000480473 0)
(0.0724325 0.00043354 0)
(0.0700095 0.000393444 0)
(0.0677854 0.000358784 0)
(0.0657344 0.000328538 0)
(0.0638352 0.00030194 0)
(0.0620703 0.000278403 0)
(0.0604248 0.000257456 0)
(0.0588862 0.00023872 0)
(0.0574438 0.000221885 0)
(0.0560884 0.000206692 0)
(0.0548121 0.000192928 0)
(0.0536079 0.000180414 0)
(0.0524697 0.000168996 0)
(0.051392 0.000158548 0)
(0.0503703 0.000148959 0)
(0.0494001 0.000140135 0)
(0.0484779 0.000131993 0)
(0.0476001 0.000124464 0)
(0.0467638 0.000117484 0)
(0.0459662 0.000111001 0)
(0.0452048 0.000104965 0)
(0.0444775 9.93337e-05 0)
(0.0437821 9.40701e-05 0)
(0.043117 8.91403e-05 0)
(0.0424803 8.45141e-05 0)
(0.0418707 8.01644e-05 0)
(0.0412866 7.6067e-05 0)
(0.0407269 7.22001e-05 0)
(0.0401905 6.85437e-05 0)
(0.0396762 6.50801e-05 0)
(0.0391832 6.17929e-05 0)
(0.0387106 5.86675e-05 0)
(0.0382576 5.56906e-05 0)
(0.0378236 5.28502e-05 0)
(0.0374078 5.01352e-05 0)
(0.0370097 4.75359e-05 0)
(0.0366288 4.50434e-05 0)
(0.0362647 4.26497e-05 0)
(0.0359168 4.03477e-05 0)
(0.0355848 3.81312e-05 0)
(0.0352684 3.59947e-05 0)
(0.0349672 3.39335e-05 0)
(0.034681 3.19438e-05 0)
(0.0344094 3.00224e-05 0)
(0.0341522 2.8167e-05 0)
(0.0339092 2.63762e-05 0)
(0.03368 2.46495e-05 0)
(0.0334644 2.29873e-05 0)
(0.0332621 2.13911e-05 0)
(0.0330729 1.98641e-05 0)
(0.0328962 1.84092e-05 0)
(0.0327317 1.70358e-05 0)
(0.0325791 1.5737e-05 0)
(0.0324371 1.45686e-05 0)
(0.0323073 1.33679e-05 0)
(0.0321822 1.27107e-05 0)
(0.03208 1.05923e-05 0)
(0.0319508 1.29953e-05 0)
(0.031915 -6.31881e-07 0)
(0.0317769 1.85801e-05 0)
(0.193845 0.0123073 0)
(0.199698 0.0146044 0)
(0.201718 0.0138519 0)
(0.198174 0.0114188 0)
(0.190817 0.00879891 0)
(0.181938 0.0066985 0)
(0.173004 0.00520847 0)
(0.16463 0.00418158 0)
(0.156973 0.00345315 0)
(0.150023 0.00291167 0)
(0.143721 0.00249419 0)
(0.137999 0.00216507 0)
(0.132789 0.00190135 0)
(0.12803 0.00168663 0)
(0.123666 0.00150897 0)
(0.11965 0.00135975 0)
(0.115941 0.00123275 0)
(0.112501 0.00112341 0)
(0.109303 0.00102836 0)
(0.106319 0.000945026 0)
(0.103528 0.000871445 0)
(0.100911 0.000806061 0)
(0.0984506 0.000747636 0)
(0.0961335 0.000695167 0)
(0.0939468 0.000647833 0)
(0.0918797 0.000604955 0)
(0.0899223 0.000565967 0)
(0.088066 0.000530393 0)
(0.0863033 0.000497832 0)
(0.0846273 0.000467938 0)
(0.0830317 0.000440419 0)
(0.0815111 0.000415018 0)
(0.0800606 0.000391517 0)
(0.0786756 0.000369721 0)
(0.077352 0.000349462 0)
(0.0760861 0.000330591 0)
(0.0748746 0.000312977 0)
(0.0737145 0.000296502 0)
(0.0726028 0.000281062 0)
(0.0715372 0.000266565 0)
(0.0705152 0.000252925 0)
(0.0695348 0.000240068 0)
(0.068594 0.000227926 0)
(0.067691 0.000216438 0)
(0.0668243 0.000205547 0)
(0.0659925 0.000195204 0)
(0.065194 0.000185362 0)
(0.0644279 0.000175981 0)
(0.0636929 0.000167022 0)
(0.0629882 0.000158451 0)
(0.0623127 0.000150238 0)
(0.0616657 0.000142354 0)
(0.0610465 0.000134775 0)
(0.0604543 0.000127477 0)
(0.0598887 0.000120441 0)
(0.0593491 0.000113651 0)
(0.058835 0.00010709 0)
(0.058346 0.000100747 0)
(0.0578816 9.46116e-05 0)
(0.0574415 8.86763e-05 0)
(0.0570252 8.29365e-05 0)
(0.0566325 7.73904e-05 0)
(0.0562629 7.20391e-05 0)
(0.0559159 6.68872e-05 0)
(0.0555912 6.1943e-05 0)
(0.0552881 5.72186e-05 0)
(0.055006 5.27317e-05 0)
(0.0547444 4.84964e-05 0)
(0.0545017 4.45666e-05 0)
(0.0542792 4.08338e-05 0)
(0.0540686 3.78498e-05 0)
(0.0538888 3.33233e-05 0)
(0.0536849 3.47883e-05 0)
(0.0535923 1.15653e-05 0)
(0.0533612 4.10434e-05 0)
(0.192817 0.0105152 0)
(0.197035 0.012572 0)
(0.201855 0.0125918 0)
(0.20463 0.0112992 0)
(0.204669 0.00966831 0)
(0.202612 0.00821674 0)
(0.199273 0.00706067 0)
(0.195205 0.0061524 0)
(0.190732 0.00541846 0)
(0.186057 0.00480545 0)
(0.18132 0.0042832 0)
(0.176616 0.0038351 0)
(0.172011 0.00344975 0)
(0.167544 0.00311751 0)
(0.163241 0.00282989 0)
(0.159114 0.00257966 0)
(0.155166 0.00236076 0)
(0.151398 0.00216823 0)
(0.147804 0.00199795 0)
(0.144378 0.00184657 0)
(0.141113 0.00171133 0)
(0.138001 0.00158997 0)
(0.135033 0.0014806 0)
(0.132201 0.00138164 0)
(0.129499 0.00129176 0)
(0.126917 0.00120987 0)
(0.12445 0.001135 0)
(0.122091 0.00106635 0)
(0.119833 0.00100324 0)
(0.117671 0.000945053 0)
(0.1156 0.000891286 0)
(0.113614 0.000841484 0)
(0.111709 0.000795252 0)
(0.109881 0.000752244 0)
(0.108126 0.000712154 0)
(0.10644 0.000674709 0)
(0.104819 0.000639668 0)
(0.103261 0.000606816 0)
(0.101763 0.000575958 0)
(0.100321 0.00054692 0)
(0.0989346 0.000519547 0)
(0.0976 0.000493694 0)
(0.0963155 0.000469235 0)
(0.0950791 0.000446052 0)
(0.0938891 0.000424039 0)
(0.0927438 0.000403099 0)
(0.0916418 0.000383144 0)
(0.0905816 0.000364094 0)
(0.0895622 0.000345875 0)
(0.0885822 0.000328422 0)
(0.0876408 0.000311673 0)
(0.0867369 0.000295574 0)
(0.0858699 0.000280074 0)
(0.0850389 0.000265131 0)
(0.0842432 0.000250704 0)
(0.0834823 0.000236759 0)
(0.0827557 0.000223266 0)
(0.0820629 0.000210201 0)
(0.0814033 0.000197544 0)
(0.0807766 0.000185278 0)
(0.0801824 0.000173396 0)
(0.0796202 0.000161893 0)
(0.0790897 0.000150771 0)
(0.0785903 0.000140039 0)
(0.0781215 0.000129713 0)
(0.0776827 0.000119818 0)
(0.0772732 0.000110384 0)
(0.0768922 0.000101455 0)
(0.076538 9.30833e-05 0)
(0.0762115 8.5254e-05 0)
(0.0759047 7.84047e-05 0)
(0.0756347 7.03444e-05 0)
(0.0753481 6.89431e-05 0)
(0.0751823 3.80538e-05 0)
(0.0748413 7.20129e-05 0)
(0.193543 0.00975628 0)
(0.196198 0.0114807 0)
(0.199571 0.0115202 0)
(0.202354 0.0105161 0)
(0.204001 0.00928433 0)
(0.204632 0.00822423 0)
(0.204505 0.00739772 0)
(0.20378 0.00674745 0)
(0.202542 0.00620791 0)
(0.200861 0.00573532 0)
(0.198809 0.00530787 0)
(0.196459 0.00491696 0)
(0.193878 0.00455913 0)
(0.191128 0.00423193 0)
(0.18826 0.00393292 0)
(0.185317 0.00365971 0)
(0.182334 0.00340999 0)
(0.179339 0.00318159 0)
(0.176355 0.00297251 0)
(0.173398 0.00278092 0)
(0.170483 0.00260514 0)
(0.167619 0.00244364 0)
(0.164813 0.00229503 0)
(0.162072 0.00215809 0)
(0.159398 0.00203167 0)
(0.156795 0.00191479 0)
(0.154263 0.00180654 0)
(0.151803 0.00170611 0)
(0.149414 0.00161279 0)
(0.147097 0.00152593 0)
(0.144849 0.00144495 0)
(0.14267 0.00136934 0)
(0.140559 0.00129863 0)
(0.138513 0.0012324 0)
(0.136531 0.00117028 0)
(0.134612 0.00111191 0)
(0.132753 0.001057 0)
(0.130953 0.00100525 0)
(0.129211 0.000956417 0)
(0.127524 0.000910262 0)
(0.125891 0.000866571 0)
(0.124311 0.000825149 0)
(0.122782 0.000785816 0)
(0.121303 0.000748408 0)
(0.119873 0.000712774 0)
(0.11849 0.000678774 0)
(0.117153 0.00064628 0)
(0.115862 0.000615175 0)
(0.114615 0.000585351 0)
(0.113411 0.000556708 0)
(0.11225 0.000529157 0)
(0.111132 0.000502614 0)
(0.110054 0.000477004 0)
(0.109018 0.000452261 0)
(0.108022 0.000428324 0)
(0.107066 0.00040514 0)
(0.106149 0.000382663 0)
(0.105272 0.000360855 0)
(0.104434 0.000339685 0)
(0.103634 0.00031913 0)
(0.102872 0.000299176 0)
(0.102149 0.000279818 0)
(0.101463 0.000261059 0)
(0.100815 0.000242913 0)
(0.100203 0.000225409 0)
(0.0996275 0.000208584 0)
(0.0990877 0.00019249 0)
(0.0985826 0.0001772 0)
(0.0981109 0.000162782 0)
(0.0976727 0.000149306 0)
(0.0972612 0.000137119 0)
(0.096891 0.00012427 0)
(0.0965112 0.000118269 0)
(0.0962609 8.17551e-05 0)
(0.0957921 0.000114423 0)
(0.194327 0.00915974 0)
(0.196448 0.0106783 0)
(0.19896 0.0107817 0)
(0.20098 0.00995382 0)
(0.202261 0.00889427 0)
(0.203015 0.00797494 0)
(0.203482 0.00726712 0)
(0.203756 0.00672684 0)
(0.203837 0.00629641 0)
(0.203701 0.00593256 0)
(0.203333 0.00560934 0)
(0.20273 0.00531341 0)
(0.201898 0.00503819 0)
(0.200852 0.00477997 0)
(0.19961 0.00453636 0)
(0.198193 0.00430584 0)
(0.196625 0.0040874 0)
(0.194927 0.00388033 0)
(0.193121 0.00368411 0)
(0.191226 0.00349826 0)
(0.18926 0.00332237 0)
(0.187239 0.003156 0)
(0.185178 0.00299874 0)
(0.18309 0.00285014 0)
(0.180985 0.00270977 0)
(0.178873 0.0025772 0)
(0.176763 0.00245198 0)
(0.174661 0.00233371 0)
(0.172573 0.00222196 0)
(0.170506 0.00211634 0)
(0.168462 0.00201648 0)
(0.166445 0.00192201 0)
(0.164459 0.0018326 0)
(0.162505 0.0017479 0)
(0.160585 0.00166762 0)
(0.158702 0.00159147 0)
(0.156856 0.00151917 0)
(0.155048 0.00145048 0)
(0.153279 0.00138513 0)
(0.15155 0.00132292 0)
(0.14986 0.00126362 0)
(0.14821 0.00120703 0)
(0.1466 0.00115298 0)
(0.14503 0.00110127 0)
(0.1435 0.00105175 0)
(0.142011 0.00100426 0)
(0.140561 0.000958664 0)
(0.139152 0.000914814 0)
(0.137782 0.00087259 0)
(0.136452 0.000831875 0)
(0.135162 0.000792561 0)
(0.133911 0.000754547 0)
(0.1327 0.000717743 0)
(0.131529 0.000682065 0)
(0.130397 0.00064744 0)
(0.129305 0.000613802 0)
(0.128252 0.000581094 0)
(0.127239 0.000549269 0)
(0.126266 0.000518289 0)
(0.125332 0.000488128 0)
(0.124439 0.000458769 0)
(0.123585 0.000430209 0)
(0.122771 0.000402457 0)
(0.121997 0.000375538 0)
(0.121262 0.000349491 0)
(0.120566 0.000324377 0)
(0.119909 0.000300267 0)
(0.11929 0.000277271 0)
(0.118707 0.000255484 0)
(0.118162 0.000235053 0)
(0.117648 0.00021626 0)
(0.117177 0.000197526 0)
(0.116701 0.000185379 0)
(0.116364 0.000145383 0)
(0.115759 0.000170985 0)
(0.194964 0.00858814 0)
(0.19676 0.00992189 0)
(0.198886 0.0101218 0)
(0.200582 0.00950131 0)
(0.20161 0.00861479 0)
(0.202162 0.00779803 0)
(0.202497 0.0071415 0)
(0.202752 0.0066285 0)
(0.202966 0.00622165 0)
(0.203133 0.00588807 0)
(0.20324 0.00560403 0)
(0.20327 0.00535433 0)
(0.203206 0.00512946 0)
(0.203036 0.00492304 0)
(0.202751 0.00473054 0)
(0.202346 0.00454876 0)
(0.20182 0.0043755 0)
(0.201175 0.00420931 0)
(0.200414 0.00404924 0)
(0.199545 0.00389469 0)
(0.198573 0.00374527 0)
(0.197507 0.00360077 0)
(0.196356 0.00346104 0)
(0.195129 0.00332599 0)
(0.193833 0.00319555 0)
(0.192477 0.00306967 0)
(0.19107 0.00294827 0)
(0.18962 0.0028313 0)
(0.188133 0.00271866 0)
(0.186616 0.00261027 0)
(0.185076 0.00250601 0)
(0.183518 0.00240577 0)
(0.181947 0.00230943 0)
(0.180369 0.00221685 0)
(0.178788 0.00212789 0)
(0.177207 0.00204242 0)
(0.17563 0.00196027 0)
(0.17406 0.00188132 0)
(0.172501 0.00180541 0)
(0.170954 0.00173239 0)
(0.169423 0.00166212 0)
(0.167908 0.00159444 0)
(0.166413 0.00152924 0)
(0.164938 0.00146635 0)
(0.163485 0.00140566 0)
(0.162056 0.00134703 0)
(0.160652 0.00129033 0)
(0.159273 0.00123545 0)
(0.157922 0.00118228 0)
(0.156599 0.0011307 0)
(0.155304 0.00108061 0)
(0.154039 0.00103192 0)
(0.152805 0.00098454 0)
(0.151603 0.000938386 0)
(0.150432 0.000893386 0)
(0.149295 0.000849476 0)
(0.148191 0.000806599 0)
(0.147121 0.000764712 0)
(0.146086 0.00072378 0)
(0.145087 0.000683779 0)
(0.144124 0.000644702 0)
(0.143197 0.000606553 0)
(0.142307 0.000569354 0)
(0.141454 0.000533146 0)
(0.140639 0.000497988 0)
(0.139861 0.000463963 0)
(0.139121 0.000431175 0)
(0.138418 0.000399769 0)
(0.137751 0.000369877 0)
(0.137122 0.000341726 0)
(0.136523 0.000315532 0)
(0.135968 0.000290271 0)
(0.13541 0.000270828 0)
(0.134994 0.000229755 0)
(0.134264 0.000242887 0)
(0.195513 0.0080898 0)
(0.197028 0.00925796 0)
(0.198855 0.00952512 0)
(0.200378 0.00908293 0)
(0.201344 0.00836136 0)
(0.201863 0.0076532 0)
(0.202145 0.00705509 0)
(0.202324 0.00656803 0)
(0.202459 0.00617074 0)
(0.202571 0.0058416 0)
(0.202669 0.00556284 0)
(0.202756 0.00532167 0)
(0.202825 0.00510939 0)
(0.20287 0.00491967 0)
(0.202883 0.00474756 0)
(0.202854 0.00458916 0)
(0.202776 0.00444147 0)
(0.202642 0.00430218 0)
(0.202447 0.00416956 0)
(0.202187 0.00404229 0)
(0.201858 0.00391941 0)
(0.201459 0.00380023 0)
(0.20099 0.00368427 0)
(0.200452 0.00357117 0)
(0.199846 0.00346071 0)
(0.199175 0.00335274 0)
(0.198442 0.00324717 0)
(0.197649 0.00314395 0)
(0.196801 0.00304305 0)
(0.195902 0.00294446 0)
(0.194956 0.00284819 0)
(0.193967 0.00275422 0)
(0.192939 0.00266256 0)
(0.191875 0.0025732 0)
(0.190781 0.00248611 0)
(0.18966 0.00240128 0)
(0.188516 0.00231867 0)
(0.187352 0.00223825 0)
(0.186172 0.00215997 0)
(0.184978 0.00208378 0)
(0.183775 0.00200961 0)
(0.182565 0.00193741 0)
(0.181351 0.00186711 0)
(0.180134 0.00179862 0)
(0.178919 0.00173189 0)
(0.177707 0.00166682 0)
(0.176501 0.00160335 0)
(0.175302 0.00154139 0)
(0.174112 0.00148087 0)
(0.172934 0.00142171 0)
(0.171768 0.00136383 0)
(0.170618 0.00130717 0)
(0.169484 0.00125167 0)
(0.168368 0.00119725 0)
(0.167272 0.00114387 0)
(0.166197 0.00109147 0)
(0.165144 0.00104002 0)
(0.164115 0.000989492 0)
(0.16311 0.000939862 0)
(0.162132 0.000891124 0)
(0.161181 0.000843288 0)
(0.160259 0.000796377 0)
(0.159365 0.000750435 0)
(0.158502 0.000705524 0)
(0.15767 0.000661731 0)
(0.156869 0.000619172 0)
(0.156099 0.000577984 0)
(0.155362 0.000538357 0)
(0.154657 0.00050046 0)
(0.153984 0.000464612 0)
(0.153339 0.000430948 0)
(0.152734 0.000399186 0)
(0.152123 0.000371975 0)
(0.151655 0.000332319 0)
(0.150836 0.000328849 0)
(0.195994 0.0076604 0)
(0.197278 0.00868121 0)
(0.19884 0.00898521 0)
(0.2002 0.00868256 0)
(0.201124 0.0081038 0)
(0.201663 0.00749989 0)
(0.20197 0.00696688 0)
(0.202158 0.00651636 0)
(0.202279 0.00613756 0)
(0.20236 0.00581701 0)
(0.202418 0.00554206 0)
(0.202464 0.00530265 0)
(0.202504 0.00509163 0)
(0.202538 0.00490375 0)
(0.202568 0.0047348 0)
(0.202591 0.00458131 0)
(0.202605 0.00444047 0)
(0.202605 0.00430999 0)
(0.202587 0.004188 0)
(0.202548 0.00407299 0)
(0.202482 0.0039637 0)
(0.202385 0.00385913 0)
(0.202256 0.00375849 0)
(0.202089 0.00366111 0)
(0.201883 0.00356648 0)
(0.201635 0.00347421 0)
(0.201345 0.00338397 0)
(0.201011 0.00329554 0)
(0.200634 0.00320873 0)
(0.200212 0.00312342 0)
(0.199747 0.00303951 0)
(0.19924 0.00295693 0)
(0.198692 0.00287565 0)
(0.198104 0.00279563 0)
(0.197479 0.00271685 0)
(0.196817 0.0026393 0)
(0.196121 0.00256297 0)
(0.195394 0.00248784 0)
(0.194637 0.00241391 0)
(0.193852 0.00234117 0)
(0.193043 0.0022696 0)
(0.192211 0.00219917 0)
(0.191359 0.00212987 0)
(0.190489 0.00206167 0)
(0.189603 0.00199454 0)
(0.188704 0.00192844 0)
(0.187794 0.00186334 0)
(0.186875 0.00179919 0)
(0.185949 0.00173597 0)
(0.185019 0.00167362 0)
(0.184086 0.00161211 0)
(0.183153 0.0015514 0)
(0.182221 0.00149146 0)
(0.181293 0.00143224 0)
(0.18037 0.00137372 0)
(0.179454 0.00131588 0)
(0.178547 0.0012587 0)
(0.177651 0.00120219 0)
(0.176767 0.00114633 0)
(0.175897 0.00109116 0)
(0.175043 0.0010367 0)
(0.174206 0.000983004 0)
(0.173387 0.000930143 0)
(0.172588 0.000878209 0)
(0.171809 0.000827323 0)
(0.171053 0.000777633 0)
(0.170319 0.000729318 0)
(0.169609 0.000682613 0)
(0.168922 0.000637732 0)
(0.16826 0.000595087 0)
(0.16762 0.000554726 0)
(0.167012 0.000517239 0)
(0.166393 0.000482665 0)
(0.16591 0.000446616 0)
(0.16506 0.000424611 0)
(0.196417 0.00728365 0)
(0.197512 0.00817351 0)
(0.198848 0.00849386 0)
(0.200054 0.00830119 0)
(0.200923 0.00784462 0)
(0.20147 0.00733519 0)
(0.201806 0.0068654 0)
(0.202022 0.00645447 0)
(0.202164 0.00609947 0)
(0.202256 0.0057931 0)
(0.202315 0.00552678 0)
(0.202352 0.00529262 0)
(0.202376 0.00508461 0)
(0.202391 0.00489828 0)
(0.2024 0.00473009 0)
(0.202406 0.00457709 0)
(0.20241 0.00443687 0)
(0.202411 0.00430747 0)
(0.202411 0.00418727 0)
(0.202406 0.00407489 0)
(0.202396 0.0039692 0)
(0.20238 0.00386921 0)
(0.202353 0.00377412 0)
(0.202315 0.0036832 0)
(0.202264 0.00359586 0)
(0.202195 0.00351159 0)
(0.202109 0.00342995 0)
(0.202001 0.00335057 0)
(0.201871 0.00327314 0)
(0.201717 0.00319741 0)
(0.201537 0.00312314 0)
(0.20133 0.00305017 0)
(0.201096 0.00297835 0)
(0.200833 0.00290755 0)
(0.200541 0.00283768 0)
(0.200221 0.00276865 0)
(0.199871 0.00270039 0)
(0.199493 0.00263286 0)
(0.199087 0.00256599 0)
(0.198654 0.00249976 0)
(0.198193 0.00243413 0)
(0.197707 0.00236906 0)
(0.197197 0.00230452 0)
(0.196663 0.00224049 0)
(0.196107 0.00217693 0)
(0.195531 0.00211383 0)
(0.194935 0.00205115 0)
(0.194321 0.00198887 0)
(0.193691 0.00192696 0)
(0.193047 0.0018654 0)
(0.192389 0.00180415 0)
(0.19172 0.00174322 0)
(0.191042 0.00168256 0)
(0.190356 0.00162217 0)
(0.189664 0.00156204 0)
(0.188967 0.00150217 0)
(0.188268 0.00144256 0)
(0.187567 0.00138323 0)
(0.186868 0.0013242 0)
(0.18617 0.00126551 0)
(0.185477 0.00120723 0)
(0.184789 0.00114942 0)
(0.184108 0.00109219 0)
(0.183436 0.00103565 0)
(0.182773 0.000979962 0)
(0.182122 0.000925306 0)
(0.181483 0.0008719 0)
(0.180857 0.000820024 0)
(0.180246 0.000769934 0)
(0.179649 0.000722135 0)
(0.179065 0.000676588 0)
(0.178505 0.000634796 0)
(0.177927 0.000594145 0)
(0.177472 0.000563137 0)
(0.176659 0.000523386 0)
(0.196789 0.0069493 0)
(0.19773 0.00772541 0)
(0.198876 0.00804909 0)
(0.199943 0.00794264 0)
(0.200751 0.0075897 0)
(0.201292 0.0071644 0)
(0.201645 0.00675357 0)
(0.201882 0.00638185 0)
(0.202044 0.00605227 0)
(0.202154 0.00576242 0)
(0.202227 0.00550721 0)
(0.202274 0.00528078 0)
(0.202303 0.00507813 0)
(0.202319 0.00489545 0)
(0.202325 0.00472964 0)
(0.202324 0.00457811 0)
(0.202319 0.00443873 0)
(0.20231 0.00430975 0)
(0.2023 0.00418976 0)
(0.202288 0.00407755 0)
(0.202276 0.00397214 0)
(0.202263 0.00387268 0)
(0.202248 0.00377845 0)
(0.202232 0.00368882 0)
(0.202213 0.00360325 0)
(0.202191 0.00352126 0)
(0.202164 0.00344243 0)
(0.202131 0.00336638 0)
(0.202091 0.0032928 0)
(0.202042 0.00322137 0)
(0.201983 0.00315185 0)
(0.201913 0.003084 0)
(0.201831 0.00301762 0)
(0.201734 0.00295251 0)
(0.201623 0.00288853 0)
(0.201495 0.00282551 0)
(0.20135 0.00276334 0)
(0.201188 0.0027019 0)
(0.201007 0.00264108 0)
(0.200808 0.0025808 0)
(0.200589 0.00252097 0)
(0.20035 0.00246152 0)
(0.200092 0.00240237 0)
(0.199814 0.00234347 0)
(0.199517 0.00228475 0)
(0.199201 0.00222617 0)
(0.198866 0.00216768 0)
(0.198513 0.00210922 0)
(0.198142 0.00205078 0)
(0.197755 0.00199229 0)
(0.197351 0.00193374 0)
(0.196932 0.0018751 0)
(0.196499 0.00181634 0)
(0.196053 0.00175746 0)
(0.195595 0.00169843 0)
(0.195126 0.00163927 0)
(0.194647 0.00157999 0)
(0.19416 0.0015206 0)
(0.193665 0.00146114 0)
(0.193165 0.00140167 0)
(0.19266 0.00134226 0)
(0.192152 0.00128299 0)
(0.191643 0.00122399 0)
(0.191132 0.00116539 0)
(0.190622 0.00110737 0)
(0.190114 0.00105015 0)
(0.189609 0.000993977 0)
(0.189107 0.000939158 0)
(0.188611 0.000885992 0)
(0.18812 0.000835066 0)
(0.187634 0.000786261 0)
(0.187161 0.000741918 0)
(0.186666 0.000697116 0)
(0.186275 0.000671513 0)
(0.18556 0.000617368 0)
(0.197117 0.00665034 0)
(0.197932 0.00732918 0)
(0.198918 0.00764746 0)
(0.19986 0.00760719 0)
(0.200607 0.00734108 0)
(0.201134 0.00699028 0)
(0.201494 0.00663421 0)
(0.201745 0.00630079 0)
(0.201923 0.00599735 0)
(0.202047 0.0057252 0)
(0.202133 0.00548225 0)
(0.202191 0.00526461 0)
(0.202229 0.0050684 0)
(0.202253 0.00489044 0)
(0.202264 0.00472811 0)
(0.202267 0.00457912 0)
(0.202263 0.00444156 0)
(0.202254 0.00431385 0)
(0.202242 0.00419468 0)
(0.202227 0.00408296 0)
(0.20221 0.00397779 0)
(0.202192 0.0038784 0)
(0.202173 0.00378416 0)
(0.202154 0.0036945 0)
(0.202135 0.00360895 0)
(0.202115 0.00352709 0)
(0.202096 0.00344855 0)
(0.202075 0.00337302 0)
(0.202054 0.00330019 0)
(0.202032 0.00322979 0)
(0.202007 0.0031616 0)
(0.20198 0.00309537 0)
(0.201949 0.00303092 0)
(0.201914 0.00296806 0)
(0.201874 0.00290659 0)
(0.201828 0.00284638 0)
(0.201775 0.00278726 0)
(0.201715 0.00272909 0)
(0.201646 0.00267173 0)
(0.201567 0.00261508 0)
(0.201479 0.002559 0)
(0.20138 0.0025034 0)
(0.20127 0.00244816 0)
(0.201148 0.00239319 0)
(0.201013 0.0023384 0)
(0.200866 0.00228371 0)
(0.200706 0.00222903 0)
(0.200532 0.0021743 0)
(0.200345 0.00211945 0)
(0.200145 0.00206442 0)
(0.199931 0.00200915 0)
(0.199704 0.00195359 0)
(0.199464 0.0018977 0)
(0.199212 0.00184146 0)
(0.198947 0.00178484 0)
(0.19867 0.00172783 0)
(0.198381 0.00167043 0)
(0.198082 0.00161266 0)
(0.197773 0.00155455 0)
(0.197455 0.00149614 0)
(0.197128 0.00143751 0)
(0.196793 0.00137876 0)
(0.196451 0.00131999 0)
(0.196103 0.00126138 0)
(0.19575 0.00120309 0)
(0.195392 0.00114537 0)
(0.195031 0.00108847 0)
(0.194667 0.00103273 0)
(0.194301 0.000978479 0)
(0.193934 0.000926362 0)
(0.193564 0.000876207 0)
(0.1932 0.000830996 0)
(0.192812 0.000784185 0)
(0.192504 0.000763241 0)
(0.191928 0.000699763 0)
(0.197409 0.00638119 0)
(0.198117 0.00697733 0)
(0.19897 0.00728456 0)
(0.199802 0.00729405 0)
(0.200488 0.00709999 0)
(0.200995 0.0068148 0)
(0.201357 0.00650933 0)
(0.201617 0.00621292 0)
(0.201805 0.0059359 0)
(0.201941 0.0056823 0)
(0.202037 0.00545249 0)
(0.202105 0.0052444 0)
(0.202151 0.00505526 0)
(0.202182 0.00488261 0)
(0.2022 0.00472427 0)
(0.202208 0.00457833 0)
(0.202209 0.00444311 0)
(0.202203 0.00431718 0)
(0.202194 0.00419934 0)
(0.20218 0.00408859 0)
(0.202164 0.00398411 0)
(0.202146 0.00388516 0)
(0.202126 0.00379116 0)
(0.202105 0.00370158 0)
(0.202084 0.003616 0)
(0.202063 0.00353402 0)
(0.202041 0.00345532 0)
(0.20202 0.00337961 0)
(0.201999 0.00330662 0)
(0.201978 0.00323612 0)
(0.201958 0.00316789 0)
(0.201938 0.00310175 0)
(0.201918 0.00303751 0)
(0.201898 0.002975 0)
(0.201877 0.00291407 0)
(0.201855 0.00285456 0)
(0.201832 0.00279632 0)
(0.201807 0.00273923 0)
(0.201779 0.00268314 0)
(0.201749 0.00262794 0)
(0.201715 0.00257349 0)
(0.201677 0.00251968 0)
(0.201635 0.0024664 0)
(0.201588 0.00241352 0)
(0.201535 0.00236096 0)
(0.201476 0.0023086 0)
(0.20141 0.00225634 0)
(0.201336 0.0022041 0)
(0.201256 0.00215179 0)
(0.201167 0.00209931 0)
(0.20107 0.00204661 0)
(0.200964 0.00199361 0)
(0.200849 0.00194025 0)
(0.200726 0.00188648 0)
(0.200593 0.00183226 0)
(0.20045 0.00177756 0)
(0.200299 0.00172236 0)
(0.200138 0.00166668 0)
(0.199968 0.00161052 0)
(0.19979 0.00155392 0)
(0.199602 0.00149695 0)
(0.199406 0.00143969 0)
(0.199202 0.00138226 0)
(0.19899 0.0013248 0)
(0.198771 0.0012675 0)
(0.198544 0.0012106 0)
(0.198311 0.00115436 0)
(0.198072 0.00109913 0)
(0.197827 0.00104525 0)
(0.197577 0.000993396 0)
(0.19732 0.000943387 0)
(0.197064 0.000898575 0)
(0.196783 0.000851655 0)
(0.196562 0.000833807 0)
(0.196135 0.000766465 0)
(0.197668 0.00613739 0)
(0.198288 0.0066634 0)
(0.199029 0.00695637 0)
(0.199763 0.00700258 0)
(0.20039 0.00686774 0)
(0.200874 0.00663986 0)
(0.201231 0.00638069 0)
(0.201496 0.00611956 0)
(0.201692 0.00586875 0)
(0.201837 0.00563424 0)
(0.201942 0.0054183 0)
(0.202018 0.00522044 0)
(0.202072 0.00503899 0)
(0.202108 0.00487214 0)
(0.202132 0.00471822 0)
(0.202145 0.00457569 0)
(0.20215 0.00444309 0)
(0.202149 0.0043192 0)
(0.202143 0.00420295 0)
(0.202132 0.00409343 0)
(0.202118 0.00398987 0)
(0.202102 0.00389161 0)
(0.202084 0.00379809 0)
(0.202065 0.00370883 0)
(0.202044 0.00362342 0)
(0.202023 0.0035415 0)
(0.202001 0.00346275 0)
(0.201979 0.00338691 0)
(0.201958 0.00331373 0)
(0.201936 0.003243 0)
(0.201915 0.00317451 0)
(0.201895 0.0031081 0)
(0.201875 0.0030436 0)
(0.201856 0.00298085 0)
(0.201838 0.00291973 0)
(0.20182 0.00286008 0)
(0.201803 0.00280178 0)
(0.201786 0.0027447 0)
(0.201769 0.00268873 0)
(0.201752 0.00263375 0)
(0.201735 0.00257963 0)
(0.201718 0.00252627 0)
(0.201699 0.00247356 0)
(0.201679 0.00242138 0)
(0.201658 0.00236964 0)
(0.201635 0.00231821 0)
(0.201609 0.00226701 0)
(0.201581 0.00221594 0)
(0.20155 0.0021649 0)
(0.201515 0.0021138 0)
(0.201476 0.00206255 0)
(0.201433 0.00201108 0)
(0.201386 0.00195932 0)
(0.201333 0.00190719 0)
(0.201275 0.00185466 0)
(0.201212 0.00180168 0)
(0.201142 0.00174822 0)
(0.201067 0.00169427 0)
(0.200985 0.00163983 0)
(0.200896 0.00158493 0)
(0.200801 0.00152963 0)
(0.200699 0.00147399 0)
(0.200591 0.00141812 0)
(0.200475 0.00136217 0)
(0.200352 0.00130632 0)
(0.200223 0.00125078 0)
(0.200086 0.00119582 0)
(0.199943 0.00114181 0)
(0.199793 0.00108906 0)
(0.199637 0.00103829 0)
(0.199473 0.000989316 0)
(0.199306 0.000945595 0)
(0.199118 0.000899893 0)
(0.198972 0.000883285 0)
(0.198677 0.000816707 0)
(0.197901 0.00591544 0)
(0.198446 0.00638202 0)
(0.199091 0.00665924 0)
(0.19974 0.00673199 0)
(0.200311 0.0066453 0)
(0.200768 0.00646702 0)
(0.201117 0.00624982 0)
(0.201382 0.00602192 0)
(0.201584 0.00579673 0)
(0.201736 0.00558153 0)
(0.201848 0.00537997 0)
(0.201931 0.00519293 0)
(0.201991 0.00501969 0)
(0.202034 0.00485913 0)
(0.202062 0.00471006 0)
(0.20208 0.00457126 0)
(0.202089 0.00444158 0)
(0.202091 0.00431996 0)
(0.202088 0.00420549 0)
(0.202081 0.00409735 0)
(0.20207 0.00399487 0)
(0.202056 0.00389743 0)
(0.20204 0.00380452 0)
(0.202022 0.0037157 0)
(0.202003 0.00363058 0)
(0.201983 0.00354884 0)
(0.201963 0.00347016 0)
(0.201942 0.00339431 0)
(0.201921 0.00332103 0)
(0.2019 0.00325015 0)
(0.201879 0.00318146 0)
(0.201859 0.0031148 0)
(0.201839 0.00305003 0)
(0.20182 0.00298699 0)
(0.201801 0.00292555 0)
(0.201784 0.00286559 0)
(0.201767 0.00280698 0)
(0.201751 0.00274962 0)
(0.201735 0.00269338 0)
(0.201721 0.00263817 0)
(0.201707 0.00258387 0)
(0.201694 0.00253037 0)
(0.201681 0.00247758 0)
(0.201669 0.0024254 0)
(0.201657 0.00237371 0)
(0.201645 0.00232243 0)
(0.201632 0.00227145 0)
(0.20162 0.00222068 0)
(0.201607 0.00217002 0)
(0.201593 0.0021194 0)
(0.201577 0.00206872 0)
(0.201561 0.0020179 0)
(0.201542 0.00196687 0)
(0.201522 0.00191556 0)
(0.201499 0.00186393 0)
(0.201473 0.00181191 0)
(0.201445 0.00175949 0)
(0.201413 0.00170663 0)
(0.201378 0.00165335 0)
(0.201338 0.00159965 0)
(0.201295 0.00154559 0)
(0.201247 0.00149123 0)
(0.201194 0.00143667 0)
(0.201136 0.00138204 0)
(0.201074 0.00132751 0)
(0.201005 0.00127332 0)
(0.200931 0.00121971 0)
(0.200851 0.00116703 0)
(0.200765 0.00111561 0)
(0.200673 0.00106616 0)
(0.200574 0.00101856 0)
(0.200471 0.000976114 0)
(0.200351 0.000932301 0)
(0.200259 0.000915306 0)
(0.200067 0.000852515 0)
(0.198109 0.00571256 0)
(0.19859 0.00612869 0)
(0.199155 0.0063898 0)
(0.19973 0.00648121 0)
(0.200248 0.00643326 0)
(0.200676 0.00629752 0)
(0.201014 0.00611805 0)
(0.201277 0.00592116 0)
(0.201481 0.0057207 0)
(0.201637 0.00552471 0)
(0.201756 0.00533785 0)
(0.201845 0.00516204 0)
(0.20191 0.00499748 0)
(0.201958 0.00484364 0)
(0.201991 0.00469978 0)
(0.202013 0.00456507 0)
(0.202026 0.00443858 0)
(0.202032 0.00431948 0)
(0.202032 0.00420698 0)
(0.202027 0.0041004 0)
(0.202018 0.00399912 0)
(0.202006 0.00390261 0)
(0.201992 0.0038104 0)
(0.201977 0.00372211 0)
(0.201959 0.00363736 0)
(0.201941 0.00355585 0)
(0.201922 0.00347731 0)
(0.201902 0.0034015 0)
(0.201882 0.0033282 0)
(0.201862 0.00325722 0)
(0.201843 0.00318839 0)
(0.201823 0.00312154 0)
(0.201804 0.00305654 0)
(0.201785 0.00299324 0)
(0.201767 0.00293153 0)
(0.20175 0.00287127 0)
(0.201733 0.00281235 0)
(0.201717 0.00275467 0)
(0.201702 0.00269812 0)
(0.201688 0.00264259 0)
(0.201674 0.00258798 0)
(0.201662 0.00253419 0)
(0.20165 0.00248113 0)
(0.201639 0.0024287 0)
(0.201628 0.0023768 0)
(0.201619 0.00232534 0)
(0.20161 0.00227422 0)
(0.201601 0.00222336 0)
(0.201593 0.00217267 0)
(0.201585 0.00212206 0)
(0.201577 0.00207146 0)
(0.201569 0.00202078 0)
(0.20156 0.00196995 0)
(0.201551 0.00191892 0)
(0.201542 0.00186763 0)
(0.201531 0.00181603 0)
(0.201519 0.00176409 0)
(0.201506 0.00171179 0)
(0.201491 0.00165914 0)
(0.201474 0.00160615 0)
(0.201455 0.00155285 0)
(0.201433 0.00149933 0)
(0.201408 0.00144566 0)
(0.20138 0.00139199 0)
(0.201348 0.00133849 0)
(0.201312 0.00128535 0)
(0.201273 0.00123286 0)
(0.201229 0.00118134 0)
(0.20118 0.00113113 0)
(0.201126 0.0010829 0)
(0.201066 0.00103665 0)
(0.201003 0.000995343 0)
(0.200926 0.000953545 0)
(0.200869 0.000935113 0)