/*--------------------------------*- C++ -*----------------------------------*\
| =========                 |                                                 |
| \\      /  F ield         | OpenFOAM: The Open Source CFD Toolbox           |
|  \\    /   O peration     | Version:  2.3.0                                 |
|   \\  /    A nd           | Web:      www.OpenFOAM.org                      |
|    \\/     M anipulation  |                                                 |
\*---------------------------------------------------------------------------*/
FoamFile
{
    version     2.0;
    format      ascii;
    class       volScalarField;
    location    "0.6";
    object      p;
}
// * * * * * * * * * * * * * * * * * * * * * * * * * * * * * * * * * * * * * //

dimensions      [0 2 -2 0 0 0 0];

internalField   nonuniform List<scalar> 
2945
(
0.00257952
0.00114595
-7.89364e-05
-0.000631281
-0.000702559
-0.000607151
-0.000512612
-0.000456064
-0.000425797
-0.000406907
-0.000391977
-0.000378519
-0.000365905
-0.000353995
-0.000342713
-0.000331963
-0.000321643
-0.000311669
-0.000301979
-0.000292533
-0.000283307
-0.000274288
-0.000265468
-0.000256846
-0.000248423
-0.000240202
-0.000232185
-0.000224379
-0.000216786
-0.000209411
-0.000202257
-0.000195329
-0.000188628
-0.000182156
-0.000175914
-0.000169902
-0.000164121
-0.000158568
-0.000153241
-0.000148138
-0.000143254
-0.000138585
-0.000134126
-0.000129871
-0.000125811
-0.00012194
-0.000118248
-0.000114726
-0.000111362
-0.000108145
-0.000105061
-0.000102097
-9.92354e-05
-9.64607e-05
-9.37536e-05
-9.10938e-05
-8.8459e-05
-8.58249e-05
-8.3165e-05
-8.04505e-05
-7.76496e-05
-7.47281e-05
-7.16481e-05
-6.83685e-05
-6.48444e-05
-6.10259e-05
-5.68605e-05
-5.22829e-05
-4.72468e-05
-4.16155e-05
-3.55134e-05
-2.82243e-05
-2.15074e-05
-1.02849e-05
-7.1094e-06
0.00214183
0.00109306
3.18113e-05
-0.000518195
-0.000627657
-0.000563467
-0.00048775
-0.000440766
-0.000414754
-0.000397881
-0.000384219
-0.000371761
-0.000359979
-0.00034876
-0.00033805
-0.000327779
-0.000317865
-0.000308238
-0.000298848
-0.000289665
-0.000280669
-0.000271854
-0.000263216
-0.000254756
-0.000246479
-0.000238389
-0.000230492
-0.000222793
-0.000215299
-0.000208015
-0.000200945
-0.000194093
-0.000187462
-0.000181055
-0.000174874
-0.000168919
-0.000163189
-0.000157685
-0.000152404
-0.000147344
-0.0001425
-0.000137869
-0.000133446
-0.000129223
-0.000125196
-0.000121354
-0.000117691
-0.000114195
-0.000110857
-0.000107664
-0.000104604
-0.000101662
-9.88219e-05
-9.60676e-05
-9.33801e-05
-9.07392e-05
-8.81226e-05
-8.5506e-05
-8.28631e-05
-8.01648e-05
-7.73796e-05
-7.44732e-05
-7.14079e-05
-6.81423e-05
-6.46317e-05
-6.0826e-05
-5.6673e-05
-5.21068e-05
-4.7082e-05
-4.14595e-05
-3.53703e-05
-2.80807e-05
-2.1394e-05
-1.01459e-05
-7.04785e-06
0.00190015
0.00106309
0.000150646
-0.000378349
-0.000528827
-0.000507754
-0.000458336
-0.000423384
-0.000402084
-0.000387424
-0.000375377
-0.00036431
-0.000353683
-0.000343374
-0.000333375
-0.000323666
-0.000314205
-0.000304953
-0.000295878
-0.000286962
-0.000278197
-0.000269583
-0.000261122
-0.000252818
-0.00024468
-0.000236715
-0.00022893
-0.000221334
-0.000213932
-0.000206732
-0.000199739
-0.000192958
-0.000186392
-0.000180045
-0.00017392
-0.000168016
-0.000162335
-0.000156876
-0.000151637
-0.000146615
-0.000141808
-0.000137212
-0.000132821
-0.000128629
-0.00012463
-0.000120817
-0.000117179
-0.000113708
-0.000110394
-0.000107223
-0.000104185
-0.000101263
-9.84429e-05
-9.57076e-05
-9.30385e-05
-9.04152e-05
-8.78157e-05
-8.52157e-05
-8.25887e-05
-7.9906e-05
-7.7136e-05
-7.42443e-05
-7.11933e-05
-6.79417e-05
-6.44446e-05
-6.06522e-05
-5.6512e-05
-5.19582e-05
-4.69456e-05
-4.13339e-05
-3.5258e-05
-2.79675e-05
-2.13124e-05
-9.91678e-06
-7.22275e-06
0.00172436
0.00103097
0.000244637
-0.000248016
-0.000421991
-0.000436738
-0.000414047
-0.00039478
-0.000381903
-0.000371972
-0.000362986
-0.000354152
-0.000345221
-0.000336215
-0.000327229
-0.000318323
-0.000309513
-0.000300793
-0.000292162
-0.00028362
-0.000275174
-0.000266833
-0.000258608
-0.000250512
-0.000242555
-0.000234751
-0.000227109
-0.000219641
-0.000212354
-0.000205258
-0.000198359
-0.000191664
-0.000185177
-0.000178903
-0.000172843
-0.000167001
-0.000161376
-0.000155969
-0.000150779
-0.000145803
-0.000141038
-0.000136481
-0.000132127
-0.000127971
-0.000124005
-0.000120222
-0.000116613
-0.00011317
-0.000109882
-0.000106737
-0.000103722
-0.000100823
-9.80248e-05
-9.53106e-05
-9.26618e-05
-9.00581e-05
-8.74775e-05
-8.48959e-05
-8.22868e-05
-7.96216e-05
-7.68687e-05
-7.39937e-05
-7.09591e-05
-6.77237e-05
-6.42426e-05
-6.0466e-05
-5.63414e-05
-5.18032e-05
-4.6806e-05
-4.12096e-05
-3.51481e-05
-2.78612e-05
-2.12249e-05
-9.57875e-06
-7.64785e-06
0.00154562
0.000974521
0.000308009
-0.000140469
-0.000326547
-0.000368199
-0.000367328
-0.000362004
-0.000357393
-0.000352487
-0.000346931
-0.000340724
-0.000333896
-0.000326576
-0.000318939
-0.000311122
-0.000303198
-0.000295209
-0.000287186
-0.000279158
-0.000271149
-0.000263185
-0.000255286
-0.000247474
-0.000239767
-0.000232183
-0.000224737
-0.000217443
-0.000210314
-0.000203358
-0.000196587
-0.000190008
-0.000183626
-0.000177447
-0.000171476
-0.000165714
-0.000160164
-0.000154826
-0.000149699
-0.000144782
-0.000140072
-0.000135566
-0.000131259
-0.000127147
-0.000123222
-0.000119478
-0.000115907
-0.000112498
-0.000109242
-0.000106128
-0.000103142
-0.000100272
-9.75002e-05
-9.48116e-05
-9.21873e-05
-8.96073e-05
-8.70497e-05
-8.44903e-05
-8.1903e-05
-7.9259e-05
-7.65269e-05
-7.36726e-05
-7.06583e-05
-6.74432e-05
-6.39824e-05
-6.02262e-05
-5.61222e-05
-5.16049e-05
-4.66286e-05
-4.10542e-05
-3.50108e-05
-2.7734e-05
-2.11002e-05
-9.12043e-06
-8.31485e-06
0.00138475
0.000916295
0.000354114
-5.17027e-05
-0.000244281
-0.000306811
-0.000323523
-0.000329785
-0.000332362
-0.000332014
-0.000329643
-0.000325918
-0.000321124
-0.000315476
-0.000309216
-0.00030254
-0.000295573
-0.000288392
-0.00028106
-0.000273624
-0.000266129
-0.000258612
-0.000251105
-0.000243639
-0.000236239
-0.000228927
-0.000221725
-0.00021465
-0.000207717
-0.000200939
-0.00019433
-0.000187897
-0.000181649
-0.000175593
-0.000169734
-0.000164076
-0.000158621
-0.00015337
-0.000148324
-0.000143482
-0.000138841
-0.0001344
-0.000130153
-0.000126097
-0.000122225
-0.000118529
-0.000115004
-0.000111638
-0.000108423
-0.000105346
-0.000102397
-9.95601e-05
-9.68213e-05
-9.41637e-05
-9.15692e-05
-8.90179e-05
-8.6488e-05
-8.39555e-05
-8.13945e-05
-7.87763e-05
-7.60697e-05
-7.32405e-05
-7.02515e-05
-6.70618e-05
-6.36266e-05
-5.98966e-05
-5.58194e-05
-5.13301e-05
-4.63819e-05
-4.08383e-05
-3.48193e-05
-2.75616e-05
-2.09166e-05
-8.55865e-06
-9.16357e-06
0.00124744
0.000861291
0.000386714
2.13138e-05
-0.000172595
-0.000250792
-0.000281794
-0.000297997
-0.000307182
-0.000311273
-0.000312049
-0.000310737
-0.000307885
-0.000303826
-0.000298873
-0.000293285
-0.000287238
-0.000280844
-0.00027419
-0.000267347
-0.000260373
-0.000253316
-0.00024622
-0.00023912
-0.000232049
-0.000225035
-0.000218101
-0.00021127
-0.00020456
-0.000197985
-0.000191562
-0.000185299
-0.000179208
-0.000173297
-0.000167571
-0.000162035
-0.000156694
-0.000151548
-0.0001466
-0.000141848
-0.000137292
-0.000132929
-0.000128755
-0.000124767
-0.000120958
-0.000117322
-0.000113852
-0.000110538
-0.000107372
-0.000104341
-0.000101435
-9.86394e-05
-9.59395e-05
-9.3319e-05
-9.076e-05
-8.82428e-05
-8.57459e-05
-8.32455e-05
-8.07158e-05
-7.81284e-05
-7.54523e-05
-7.26537e-05
-6.96955e-05
-6.65369e-05
-6.31337e-05
-5.94366e-05
-5.53938e-05
-5.09407e-05
-4.603e-05
-4.05278e-05
-3.45425e-05
-2.73172e-05
-2.06545e-05
-7.94019e-06
-1.00691e-05
0.00112909
0.000807442
0.000406526
8.00982e-05
-0.000110282
-0.000199519
-0.000242018
-0.000266766
-0.000282023
-0.000290431
-0.000294331
-0.000295399
-0.000294452
-0.000291944
-0.000288266
-0.000283736
-0.00027858
-0.000272945
-0.000266947
-0.000260674
-0.000254201
-0.00024759
-0.000240892
-0.000234151
-0.000227404
-0.000220685
-0.00021402
-0.000207436
-0.000200952
-0.000194588
-0.000188357
-0.000182274
-0.00017635
-0.000170592
-0.00016501
-0.000159609
-0.000154392
-0.000149363
-0.000144523
-0.000139872
-0.000135411
-0.000131136
-0.000127045
-0.000123134
-0.000119397
-0.000115829
-0.000112422
-0.000109169
-0.000106058
-0.000103081
-0.000100224
-9.74755e-05
-9.48202e-05
-9.22423e-05
-8.9724e-05
-8.7246e-05
-8.47868e-05
-8.23233e-05
-7.98296e-05
-7.72779e-05
-7.46374e-05
-7.18746e-05
-6.89526e-05
-6.58313e-05
-6.24666e-05
-5.88099e-05
-5.48095e-05
-5.04021e-05
-4.55392e-05
-4.00905e-05
-3.41508e-05
-2.69765e-05
-2.03005e-05
-7.33808e-06
-1.086e-05
0.00102624
0.000755541
0.000416559
0.000126929
-5.64625e-05
-0.000152967
-0.00020451
-0.000236426
-0.000257093
-0.00026957
-0.000276514
-0.000279925
-0.000280857
-0.000279888
-0.000277477
-0.000274001
-0.000269728
-0.000264846
-0.000259494
-0.000253782
-0.000247801
-0.000241625
-0.000235314
-0.00022892
-0.000222488
-0.000216054
-0.000209651
-0.000203307
-0.000197044
-0.000190884
-0.000184844
-0.000178938
-0.000173179
-0.000167576
-0.000162138
-0.000156872
-0.000151782
-0.000146872
-0.000142144
-0.000137599
-0.000133236
-0.000129054
-0.00012505
-0.000121221
-0.000117561
-0.000114065
-0.000110726
-0.000107536
-0.000104486
-0.000101565
-9.87621e-05
-9.60642e-05
-9.34572e-05
-9.09253e-05
-8.84511e-05
-8.60155e-05
-8.35975e-05
-8.11741e-05
-7.87201e-05
-7.62077e-05
-7.36067e-05
-7.08839e-05
-6.80029e-05
-6.49241e-05
-6.16039e-05
-5.79944e-05
-5.40445e-05
-4.96918e-05
-4.48874e-05
-3.9505e-05
-3.36246e-05
-2.65256e-05
-1.98521e-05
-6.83797e-06
-1.13568e-05
0.00093659
0.000706672
0.000419394
0.00016357
-1.05341e-05
-0.000111139
-0.000169494
-0.000207238
-0.000232581
-0.000248794
-0.000258648
-0.000264338
-0.000267113
-0.000267665
-0.000266515
-0.000264089
-0.000260702
-0.000256574
-0.000251869
-0.000246719
-0.00024123
-0.000235487
-0.000229562
-0.000223514
-0.000217393
-0.000211241
-0.000205095
-0.000198986
-0.00019294
-0.000186981
-0.000181126
-0.000175393
-0.000169795
-0.000164344
-0.000159047
-0.000153914
-0.000148949
-0.000144157
-0.000139539
-0.000135098
-0.000130833
-0.000126744
-0.000122827
-0.000119079
-0.000115497
-0.000112074
-0.000108803
-0.000105678
-0.000102689
-9.98253e-05
-9.70769e-05
-9.44308e-05
-9.18729e-05
-8.9388e-05
-8.69589e-05
-8.45668e-05
-8.21912e-05
-7.98094e-05
-7.73965e-05
-7.49253e-05
-7.2366e-05
-6.96858e-05
-6.68491e-05
-6.38166e-05
-6.05456e-05
-5.69889e-05
-5.30962e-05
-4.88065e-05
-4.40704e-05
-3.87664e-05
-3.296e-05
-2.59645e-05
-1.93189e-05
-6.514e-06
-1.14222e-05
0.000858059
0.00066111
0.000416719
0.0001914
2.80952e-05
-7.39291e-05
-0.000137094
-0.000179422
-0.000208704
-0.000228263
-0.00024084
-0.000248709
-0.000253264
-0.0002553
-0.000255392
-0.000254009
-0.000251504
-0.00024813
-0.000244076
-0.000239491
-0.000234497
-0.000229192
-0.000223655
-0.000217955
-0.000212146
-0.000206278
-0.00020039
-0.000194516
-0.000188687
-0.000182928
-0.000177258
-0.000171697
-0.000166259
-0.000160957
-0.000155801
-0.000150799
-0.000145957
-0.00014128
-0.000136772
-0.000132433
-0.000128265
-0.000124266
-0.000120435
-0.000116768
-0.000113261
-0.000109909
-0.000106706
-0.000103644
-0.000100715
-9.79081e-05
-9.52132e-05
-9.26178e-05
-9.01082e-05
-8.76693e-05
-8.52845e-05
-8.29354e-05
-8.06016e-05
-7.82611e-05
-7.58892e-05
-7.34594e-05
-7.09423e-05
-6.83057e-05
-6.55147e-05
-6.25308e-05
-5.9312e-05
-5.58121e-05
-5.19818e-05
-4.77617e-05
-4.31023e-05
-3.78875e-05
-3.21693e-05
-2.53074e-05
-1.87203e-05
-6.40335e-06
-1.10062e-05
0.000788798
0.000618793
0.000409917
0.000211791
6.01383e-05
-4.11356e-05
-0.000107372
-0.000153159
-0.00018566
-0.000208135
-0.000223202
-0.000233118
-0.000239368
-0.000242834
-0.000244136
-0.000243778
-0.000242146
-0.000239522
-0.000236117
-0.000232099
-0.000227603
-0.000222737
-0.000217593
-0.000212243
-0.000206751
-0.000201169
-0.000195542
-0.000189908
-0.000184298
-0.000178741
-0.000173259
-0.000167871
-0.000162595
-0.000157444
-0.000152428
-0.000147558
-0.00014284
-0.000138279
-0.000133879
-0.000129643
-0.000125571
-0.000121663
-0.000117916
-0.000114329
-0.000110898
-0.000107616
-0.00010448
-0.00010148
-9.86092e-05
-9.58578e-05
-9.3215e-05
-9.0669e-05
-8.82063e-05
-8.58123e-05
-8.34705e-05
-8.1163e-05
-7.88699e-05
-7.65695e-05
-7.42379e-05
-7.18488e-05
-6.93735e-05
-6.67807e-05
-6.40359e-05
-6.11016e-05
-5.79368e-05
-5.44964e-05
-5.07322e-05
-4.65866e-05
-4.20106e-05
-3.68942e-05
-3.12774e-05
-2.45781e-05
-1.80801e-05
-6.49216e-06
-1.01635e-05
0.000727267
0.000579551
0.000400133
0.000226011
8.62988e-05
-1.25424e-05
-8.03585e-05
-0.000128585
-0.000163612
-0.00018855
-0.000205838
-0.000217642
-0.000225486
-0.000230312
-0.000232781
-0.000233421
-0.000232646
-0.000230762
-0.000228002
-0.000224548
-0.000220548
-0.000216124
-0.000211374
-0.000206378
-0.000201205
-0.000195914
-0.000190551
-0.000185159
-0.000179773
-0.000174421
-0.000169129
-0.000163919
-0.000158807
-0.00015381
-0.000148938
-0.000144202
-0.00013961
-0.000135167
-0.000130878
-0.000126746
-0.000122771
-0.000118954
-0.000115294
-0.000111788
-0.000108432
-0.000105222
-0.000102151
-9.92141e-05
-9.64019e-05
-9.37056e-05
-9.11147e-05
-8.86176e-05
-8.62013e-05
-8.38514e-05
-8.1552e-05
-7.92854e-05
-7.70323e-05
-7.47714e-05
-7.24794e-05
-7.01305e-05
-6.76969e-05
-6.51478e-05
-6.24496e-05
-5.95657e-05
-5.64563e-05
-5.30774e-05
-4.93822e-05
-4.53152e-05
-4.08281e-05
-3.5818e-05
-3.03141e-05
-2.3803e-05
-1.74213e-05
-6.72073e-06
-9.03447e-06
0.000672208
0.000543145
0.000388239
0.000235147
0.000107237
1.20848e-05
-5.60408e-05
-0.000105791
-0.00014269
-0.000169634
-0.00018885
-0.000202361
-0.000211678
-0.000217784
-0.000221365
-0.000222967
-0.000223025
-0.000221866
-0.00021974
-0.000216845
-0.00021334
-0.000209356
-0.000205
-0.000200359
-0.000195508
-0.000190509
-0.000185414
-0.000180268
-0.000175108
-0.000169965
-0.000164868
-0.000159838
-0.000154894
-0.000150054
-0.000145329
-0.000140731
-0.000136268
-0.000131946
-0.000127771
-0.000123746
-0.000119871
-0.000116148
-0.000112576
-0.000109152
-0.000105874
-0.000102736
-9.97343e-05
-9.68609e-05
-9.41085e-05
-9.14683e-05
-8.89302e-05
-8.64828e-05
-8.41135e-05
-8.18084e-05
-7.95517e-05
-7.73265e-05
-7.51137e-05
-7.28927e-05
-7.06406e-05
-6.83324e-05
-6.59409e-05
-6.34362e-05
-6.07855e-05
-5.79534e-05
-5.49009e-05
-5.15857e-05
-4.79624e-05
-4.39777e-05
-3.95844e-05
-3.46876e-05
-2.93071e-05
-2.30041e-05
-1.67615e-05
-7.00579e-06
-7.79581e-06
0.000622593
0.000509299
0.000374886
0.000240126
0.000123583
3.30106e-05
-3.43681e-05
-8.48307e-05
-0.000122998
-0.000151498
-0.000172334
-0.000187351
-0.000198007
-0.000205297
-0.000209924
-0.000212445
-0.000213306
-0.000212851
-0.000211346
-0.000209
-0.000205984
-0.000202437
-0.000198473
-0.000194188
-0.000189659
-0.000184955
-0.00018013
-0.000175231
-0.0001703
-0.00016537
-0.00016047
-0.000155624
-0.000150853
-0.000146173
-0.000141599
-0.000137142
-0.000132812
-0.000128615
-0.000124556
-0.000120641
-0.000116869
-0.000113244
-0.000109762
-0.000106424
-0.000103226
-0.000100164
-9.72321e-05
-9.44248e-05
-9.17343e-05
-8.91523e-05
-8.66688e-05
-8.42729e-05
-8.19523e-05
-7.96934e-05
-7.74811e-05
-7.52986e-05
-7.31276e-05
-7.09477e-05
-6.8737e-05
-6.6471e-05
-6.41231e-05
-6.16644e-05
-5.9063e-05
-5.62846e-05
-5.32915e-05
-5.00427e-05
-4.64945e-05
-4.2596e-05
-3.83015e-05
-3.35247e-05
-2.82773e-05
-2.21962e-05
-1.61116e-05
-7.26792e-06
-6.6073e-06
0.000577579
0.000477733
0.000360552
0.000241735
0.000135934
5.05176e-05
-1.52601e-05
-6.57259e-05
-0.000104611
-0.000134237
-0.000156379
-0.000172688
-0.000184534
-0.000192902
-0.0001985
-0.000201885
-0.000203512
-0.000203736
-0.000202833
-0.000201023
-0.000198487
-0.000195372
-0.000191798
-0.000187866
-0.00018366
-0.00017925
-0.000174696
-0.000170048
-0.000165348
-0.000160634
-0.000155934
-0.000151275
-0.000146679
-0.000142163
-0.000137743
-0.000133431
-0.000129237
-0.000125168
-0.00012123
-0.000117428
-0.000113763
-0.000110238
-0.000106851
-0.000103602
-0.000100487
-9.75023e-05
-9.46439e-05
-9.19053e-05
-8.92795e-05
-8.67581e-05
-8.43317e-05
-8.19897e-05
-7.97202e-05
-7.75098e-05
-7.5344e-05
-7.32064e-05
-7.10793e-05
-6.89429e-05
-6.67756e-05
-6.4554e-05
-6.22521e-05
-5.98418e-05
-5.72924e-05
-5.45705e-05
-5.16398e-05
-4.84608e-05
-4.49915e-05
-4.11837e-05
-3.69932e-05
-3.23426e-05
-2.72375e-05
-2.13864e-05
-1.5476e-05
-7.45158e-06
-5.57575e-06
0.000536477
0.000448186
0.000345586
0.000240626
0.000144832
6.48954e-05
1.38573e-06
-4.84738e-05
-8.75809e-05
-0.000117928
-0.000141063
-0.00015844
-0.000171318
-0.000180648
-0.000187131
-0.000191321
-0.000193669
-0.000194539
-0.000194215
-0.000192926
-0.000190859
-0.000188167
-0.000184978
-0.000181396
-0.00017751
-0.000173395
-0.000169112
-0.000164716
-0.00016025
-0.000155753
-0.000151256
-0.000146788
-0.00014237
-0.000138022
-0.00013376
-0.000129596
-0.000125541
-0.000121604
-0.00011779
-0.000114104
-0.00011055
-0.000107128
-0.000103839
-0.000100681
-9.76524e-05
-9.47494e-05
-9.19673e-05
-8.93005e-05
-8.67421e-05
-8.42842e-05
-8.19177e-05
-7.96322e-05
-7.74164e-05
-7.52572e-05
-7.31405e-05
-7.10505e-05
-6.89699e-05
-6.68795e-05
-6.47585e-05
-6.2584e-05
-6.0331e-05
-5.79721e-05
-5.54778e-05
-5.28158e-05
-4.99511e-05
-4.68458e-05
-4.34598e-05
-3.97474e-05
-3.56666e-05
-3.11486e-05
-2.61944e-05
-2.05766e-05
-1.48546e-05
-7.53153e-06
-4.74602e-06
0.000498714
0.000420419
0.000330238
0.000237335
0.000150768
7.64335e-05
1.56917e-05
-3.30486e-05
-7.19374e-05
-0.000102631
-0.000126456
-0.000144672
-0.000158415
-0.000168583
-0.000175859
-0.000180783
-0.000183803
-0.000185282
-0.00018551
-0.000184722
-0.000183108
-0.000180829
-0.000178017
-0.00017478
-0.000171212
-0.00016739
-0.000163379
-0.000159234
-0.000155003
-0.000150726
-0.000146435
-0.000142159
-0.000137923
-0.000133745
-0.000129644
-0.000125632
-0.00012172
-0.000117918
-0.000114232
-0.000110666
-0.000107225
-0.000103911
-0.000100722
-9.76599e-05
-9.47208e-05
-9.19022e-05
-8.91996e-05
-8.66076e-05
-8.41197e-05
-8.17282e-05
-7.94244e-05
-7.71985e-05
-7.50391e-05
-7.2934e-05
-7.08692e-05
-6.88296e-05
-6.67984e-05
-6.4757e-05
-6.26853e-05
-6.0561e-05
-5.836e-05
-5.6056e-05
-5.36203e-05
-5.10219e-05
-4.82273e-05
-4.52001e-05
-4.19019e-05
-3.82901e-05
-3.43248e-05
-2.99455e-05
-2.51504e-05
-1.97663e-05
-1.42447e-05
-7.50767e-06
-4.11324e-06
0.000463817
0.00039422
0.000314687
0.000232295
0.000154175
8.54152e-05
2.77946e-05
-1.9405e-05
-5.76902e-05
-8.83878e-05
-0.000112614
-0.000131443
-0.000145879
-0.000156756
-0.000164724
-0.000170307
-0.000173942
-0.000175987
-0.000176735
-0.000176422
-0.000175245
-0.000173365
-0.00017092
-0.000168023
-0.000164768
-0.000161236
-0.000157495
-0.000153602
-0.000149607
-0.00014555
-0.000141467
-0.000137386
-0.000133334
-0.00012933
-0.000125393
-0.000121536
-0.000117771
-0.000114107
-0.000110552
-0.000107111
-0.000103787
-0.000100583
-9.74988e-05
-9.45348e-05
-9.16887e-05
-8.89578e-05
-8.63379e-05
-8.38238e-05
-8.14095e-05
-7.90876e-05
-7.68496e-05
-7.46861e-05
-7.25863e-05
-7.05381e-05
-6.85283e-05
-6.65422e-05
-6.45634e-05
-6.25741e-05
-6.05547e-05
-5.8484e-05
-5.63385e-05
-5.40929e-05
-5.17196e-05
-4.91889e-05
-4.64685e-05
-4.35239e-05
-4.03186e-05
-3.68127e-05
-3.29687e-05
-2.87342e-05
-2.41057e-05
-1.89539e-05
-1.3643e-05
-7.39459e-06
-3.64415e-06
0.000431389
0.0003694
0.000299055
0.000225857
0.000155432
9.21112e-05
3.78405e-05
-7.48264e-06
-4.48324e-05
-7.52273e-05
-9.95829e-05
-0.000118803
-0.000133759
-0.000145209
-0.000153764
-0.000159925
-0.000164111
-0.000166675
-0.000167906
-0.000168041
-0.000167279
-0.000165784
-0.000163694
-0.000161127
-0.000158179
-0.000154934
-0.00015146
-0.000147819
-0.000144059
-0.000140224
-0.00013635
-0.000132467
-0.000128601
-0.000124774
-0.000121003
-0.000117305
-0.00011369
-0.000110168
-0.000106747
-0.000103434
-0.00010023
-9.71405e-05
-9.41646e-05
-9.13026e-05
-8.8553e-05
-8.59131e-05
-8.33792e-05
-8.09465e-05
-7.8609e-05
-7.63598e-05
-7.41908e-05
-7.20928e-05
-7.00556e-05
-6.80676e-05
-6.61158e-05
-6.41862e-05
-6.2263e-05
-6.0329e-05
-5.83655e-05
-5.63517e-05
-5.42653e-05
-5.20819e-05
-4.97749e-05
-4.7316e-05
-4.46743e-05
-4.1817e-05
-3.87097e-05
-3.53151e-05
-3.15984e-05
-2.75144e-05
-2.30592e-05
-1.81378e-05
-1.30458e-05
-7.2119e-06
-3.29657e-06
0.000401096
0.000345797
0.000283429
0.000218301
0.000154865
9.67755e-05
4.59811e-05
2.79155e-06
-3.3343e-05
-6.31634e-05
-8.73991e-05
-0.000106796
-0.000122099
-0.000133984
-0.000143017
-0.000149669
-0.00015434
-0.000157369
-0.000159042
-0.000159594
-0.000159222
-0.000158092
-0.000156345
-0.000154097
-0.000151449
-0.000148484
-0.000145275
-0.000141883
-0.000138358
-0.000134745
-0.000131081
-0.000127397
-0.00012372
-0.000120072
-0.000116472
-0.000112935
-0.000109473
-0.000106097
-0.000102815
-9.9632e-05
-9.65531e-05
-9.35809e-05
-9.07166e-05
-8.79603e-05
-8.53106e-05
-8.27653e-05
-8.03208e-05
-7.79727e-05
-7.57154e-05
-7.35421e-05
-7.14454e-05
-6.94162e-05
-6.74449e-05
-6.55201e-05
-6.36296e-05
-6.17598e-05
-5.98955e-05
-5.80202e-05
-5.61159e-05
-5.41627e-05
-5.21391e-05
-5.00217e-05
-4.77852e-05
-4.54024e-05
-4.2844e-05
-4.0079e-05
-3.70748e-05
-3.3797e-05
-3.02135e-05
-2.62857e-05
-2.20098e-05
-1.73171e-05
-1.24504e-05
-6.97802e-06
-3.03178e-06
0.000372654
0.000323263
0.000267864
0.000209848
0.000152754
9.96428e-05
5.23704e-05
1.15029e-05
-2.3185e-05
-5.21932e-05
-7.6082e-05
-9.54541e-05
-0.000110936
-0.000123119
-0.000132517
-0.00013957
-0.000144653
-0.000148092
-0.000150163
-0.000151096
-0.000151086
-0.000150301
-0.000148878
-0.000146937
-0.00014458
-0.00014189
-0.000138941
-0.000135795
-0.000132503
-0.000129112
-0.000125659
-0.000122176
-0.00011869
-0.000115223
-0.000111796
-0.000108423
-0.000105118
-0.000101891
-9.87503e-05
-9.57022e-05
-9.27513e-05
-8.99006e-05
-8.71515e-05
-8.45044e-05
-8.19583e-05
-7.95111e-05
-7.71596e-05
-7.48996e-05
-7.27259e-05
-7.0632e-05
-6.86108e-05
-6.66539e-05
-6.47516e-05
-6.28935e-05
-6.10676e-05
-5.9261e-05
-5.7459e-05
-5.5646e-05
-5.38045e-05
-5.19156e-05
-4.99586e-05
-4.79113e-05
-4.57495e-05
-4.34473e-05
-4.09769e-05
-3.83091e-05
-3.54133e-05
-3.22579e-05
-2.88135e-05
-2.50471e-05
-2.09562e-05
-1.64909e-05
-1.18542e-05
-6.70766e-06
-2.81961e-06
0.00034582
0.000301673
0.000252396
0.000200673
0.000149329
0.000100918
5.71492e-05
1.87314e-05
-1.43232e-05
-4.23137e-05
-6.56498e-05
-8.48072e-05
-0.000100303
-0.000112646
-0.000122296
-0.000129655
-0.000135075
-0.000138863
-0.000141282
-0.000142558
-0.000142881
-0.000142416
-0.0001413
-0.000139652
-0.000137574
-0.000135151
-0.000132456
-0.000129553
-0.000126493
-0.000123323
-0.000120081
-0.000116799
-0.000113505
-0.000110223
-0.000106971
-0.000103766
-0.000100621
-9.7546e-05
-9.45506e-05
-9.16409e-05
-8.88217e-05
-8.60961e-05
-8.3466e-05
-8.09319e-05
-7.8493e-05
-7.61476e-05
-7.38927e-05
-7.17244e-05
-6.96378e-05
-6.76269e-05
-6.56847e-05
-6.38034e-05
-6.19737e-05
-6.01856e-05
-5.84279e-05
-5.66879e-05
-5.49518e-05
-5.32046e-05
-5.14297e-05
-4.96089e-05
-4.77226e-05
-4.57495e-05
-4.36667e-05
-4.14497e-05
-3.90722e-05
-3.65067e-05
-3.37248e-05
-3.06972e-05
-2.73977e-05
-2.37981e-05
-1.98971e-05
-1.56587e-05
-1.12555e-05
-6.41162e-06
-2.63884e-06
0.000320386
0.000280921
0.000237058
0.000190935
0.000144813
0.000100818
6.04875e-05
2.45915e-05
-6.69074e-06
-3.34956e-05
-5.61022e-05
-7.48741e-05
-9.02294e-05
-0.000102599
-0.000112387
-0.000119959
-0.000125637
-0.000129709
-0.000132425
-0.000134001
-0.000134623
-0.00013445
-0.00013362
-0.000132248
-0.000130437
-0.000128271
-0.000125824
-0.000123158
-0.000120327
-0.000117376
-0.000114345
-0.000111265
-0.000108165
-0.000105068
-0.000101994
-9.89596e-05
-9.59773e-05
-9.30586e-05
-9.0212e-05
-8.74442e-05
-8.47603e-05
-8.21637e-05
-7.96564e-05
-7.7239e-05
-7.49112e-05
-7.26713e-05
-7.05167e-05
-6.84438e-05
-6.6448e-05
-6.45236e-05
-6.26641e-05
-6.08618e-05
-5.91083e-05
-5.73939e-05
-5.57078e-05
-5.40381e-05
-5.23716e-05
-5.0694e-05
-4.89894e-05
-4.72407e-05
-4.54292e-05
-4.35347e-05
-4.15355e-05
-3.94084e-05
-3.71287e-05
-3.46707e-05
-3.20081e-05
-2.91142e-05
-2.59652e-05
-2.25375e-05
-1.8831e-05
-1.48198e-05
-1.06528e-05
-6.09734e-06
-2.47515e-06
0.000296127
0.000260845
0.00022179
0.000180669
0.000139304
9.94577e-05
6.24853e-05
2.91609e-05
-2.30091e-07
-2.56991e-05
-4.74147e-05
-6.56421e-05
-8.07111e-05
-9.29791e-05
-0.000102796
-0.000110486
-0.000116345
-0.000120636
-0.000123596
-0.000125429
-0.000126315
-0.000126407
-0.00012584
-0.000124727
-0.000123169
-0.00012125
-0.000119043
-0.00011661
-0.000114003
-0.00011127
-0.000108448
-0.000105571
-0.000102666
-9.9757e-05
-9.68634e-05
-9.40018e-05
-9.11856e-05
-8.8426e-05
-8.57318e-05
-8.31097e-05
-8.0565e-05
-7.81012e-05
-7.57205e-05
-7.34238e-05
-7.12108e-05
-6.90803e-05
-6.70298e-05
-6.50561e-05
-6.31548e-05
-6.13206e-05
-5.95474e-05
-5.7828e-05
-5.61543e-05
-5.45171e-05
-5.29064e-05
-5.13106e-05
-4.97175e-05
-4.81134e-05
-4.64831e-05
-4.48106e-05
-4.30781e-05
-4.12666e-05
-3.93555e-05
-3.73231e-05
-3.51463e-05
-3.28011e-05
-3.02633e-05
-2.75086e-05
-2.45158e-05
-2.12651e-05
-1.77574e-05
-1.39741e-05
-1.00452e-05
-5.7706e-06
-2.31962e-06
0.000261235
0.000231645
0.000199057
0.000164677
0.000129808
9.57672e-05
6.36537e-05
3.41966e-05
7.77112e-06
-1.55003e-05
-3.56542e-05
-5.28328e-05
-6.72513e-05
-7.91672e-05
-8.88517e-05
-9.65699e-05
-0.000102571
-0.000107087
-0.000110325
-0.000112474
-0.000113698
-0.000114142
-0.000113934
-0.000113182
-0.000111983
-0.000110418
-0.000108559
-0.000106467
-0.000104195
-0.000101786
-9.92792e-05
-9.67076e-05
-9.40984e-05
-9.14752e-05
-8.88575e-05
-8.62616e-05
-8.37012e-05
-8.11873e-05
-7.87288e-05
-7.63326e-05
-7.40042e-05
-7.17471e-05
-6.95639e-05
-6.74556e-05
-6.54225e-05
-6.34634e-05
-6.15764e-05
-5.97585e-05
-5.8006e-05
-5.63142e-05
-5.46773e-05
-5.3089e-05
-5.15418e-05
-5.00273e-05
-4.85364e-05
-4.70585e-05
-4.55824e-05
-4.40954e-05
-4.2584e-05
-4.10332e-05
-3.9427e-05
-3.77479e-05
-3.59775e-05
-3.4096e-05
-3.20829e-05
-2.99167e-05
-2.75763e-05
-2.50409e-05
-2.22931e-05
-1.93178e-05
-1.61176e-05
-1.26815e-05
-9.11552e-06
-5.25925e-06
-2.0873e-06
0.000217313
0.000194099
0.000168645
0.000141738
0.000114232
8.70338e-05
6.09567e-05
3.66076e-05
1.43666e-05
-5.57054e-06
-2.31418e-05
-3.8382e-05
-5.1397e-05
-6.23415e-05
-7.1397e-05
-7.87544e-05
-8.46035e-05
-8.91262e-05
-9.24934e-05
-9.48619e-05
-9.63739e-05
-9.71562e-05
-9.73215e-05
-9.69693e-05
-9.61865e-05
-9.50491e-05
-9.3623e-05
-9.19653e-05
-9.01252e-05
-8.81451e-05
-8.60611e-05
-8.39044e-05
-8.17012e-05
-7.94739e-05
-7.72413e-05
-7.50192e-05
-7.28205e-05
-7.06561e-05
-6.85346e-05
-6.64628e-05
-6.4446e-05
-6.24881e-05
-6.05915e-05
-5.87578e-05
-5.69873e-05
-5.52794e-05
-5.36326e-05
-5.20446e-05
-5.05121e-05
-4.90312e-05
-4.75972e-05
-4.62043e-05
-4.48463e-05
-4.3516e-05
-4.22053e-05
-4.09052e-05
-3.96058e-05
-3.82963e-05
-3.6965e-05
-3.55988e-05
-3.41841e-05
-3.27058e-05
-3.11481e-05
-2.94943e-05
-2.7727e-05
-2.58285e-05
-2.37816e-05
-2.15698e-05
-1.91801e-05
-1.66021e-05
-1.38399e-05
-1.08873e-05
-7.82804e-06
-4.53127e-06
-1.7876e-06
0.000172521
0.000155021
0.000135924
0.000115726
9.49688e-05
7.42467e-05
5.41228e-05
3.50507e-05
1.73523e-05
1.23087e-06
-1.32069e-05
-2.59311e-05
-3.69723e-05
-4.64069e-05
-5.43416e-05
-6.09002e-05
-6.62145e-05
-7.04172e-05
-7.36375e-05
-7.59979e-05
-7.76122e-05
-7.85846e-05
-7.90089e-05
-7.89692e-05
-7.85403e-05
-7.77879e-05
-7.67697e-05
-7.55359e-05
-7.41301e-05
-7.25901e-05
-7.09483e-05
-6.92326e-05
-6.74666e-05
-6.56705e-05
-6.38615e-05
-6.20536e-05
-6.0259e-05
-5.84873e-05
-5.67466e-05
-5.50432e-05
-5.3382e-05
-5.17667e-05
-5.01998e-05
-4.86828e-05
-4.72164e-05
-4.58002e-05
-4.44332e-05
-4.31136e-05
-4.18389e-05
-4.0606e-05
-3.9411e-05
-3.82492e-05
-3.71155e-05
-3.6004e-05
-3.4908e-05
-3.38202e-05
-3.27324e-05
-3.16357e-05
-3.05203e-05
-2.93758e-05
-2.81907e-05
-2.69529e-05
-2.56495e-05
-2.42671e-05
-2.27918e-05
-2.12096e-05
-1.95072e-05
-1.76723e-05
-1.56958e-05
-1.35709e-05
-1.13021e-05
-8.8856e-06
-6.38625e-06
-3.69969e-06
-1.45103e-06
0.000126589
0.000114333
0.000101008
8.69078e-05
7.23554e-05
5.77177e-05
4.33562e-05
2.95802e-05
1.66291e-05
4.67294e-06
-6.17977e-06
-1.58743e-05
-2.4401e-05
-3.17866e-05
-3.80841e-05
-4.3365e-05
-4.77111e-05
-5.121e-05
-5.39502e-05
-5.60184e-05
-5.74973e-05
-5.84641e-05
-5.899e-05
-5.91394e-05
-5.89705e-05
-5.85348e-05
-5.78781e-05
-5.70405e-05
-5.60572e-05
-5.49586e-05
-5.3771e-05
-5.25172e-05
-5.12165e-05
-4.98855e-05
-4.85383e-05
-4.71865e-05
-4.58402e-05
-4.45073e-05
-4.31946e-05
-4.19074e-05
-4.06499e-05
-3.94252e-05
-3.82355e-05
-3.70823e-05
-3.59661e-05
-3.48871e-05
-3.38444e-05
-3.2837e-05
-3.18629e-05
-3.09199e-05
-3.0005e-05
-2.91149e-05
-2.82456e-05
-2.73927e-05
-2.6551e-05
-2.57152e-05
-2.48789e-05
-2.40355e-05
-2.31775e-05
-2.22971e-05
-2.13858e-05
-2.04343e-05
-1.94331e-05
-1.83722e-05
-1.72414e-05
-1.60308e-05
-1.47307e-05
-1.33327e-05
-1.18309e-05
-1.02212e-05
-8.50772e-06
-6.68825e-06
-4.8095e-06
-2.79402e-06
-1.09483e-06
7.85259e-05
7.11927e-05
6.32417e-05
5.48271e-05
4.61199e-05
3.73185e-05
2.86237e-05
2.02139e-05
1.22346e-05
4.79642e-06
-2.02307e-06
-8.17707e-06
-1.36459e-05
-1.84327e-05
-2.25583e-05
-2.60567e-05
-2.89706e-05
-3.13482e-05
-3.32402e-05
-3.46979e-05
-3.57711e-05
-3.65075e-05
-3.69515e-05
-3.71442e-05
-3.71227e-05
-3.69206e-05
-3.65678e-05
-3.60907e-05
-3.55127e-05
-3.4854e-05
-3.41322e-05
-3.33627e-05
-3.25584e-05
-3.17307e-05
-3.0889e-05
-3.00413e-05
-2.91944e-05
-2.83539e-05
-2.75242e-05
-2.67091e-05
-2.59116e-05
-2.51337e-05
-2.43771e-05
-2.36429e-05
-2.29315e-05
-2.22431e-05
-2.15774e-05
-2.09335e-05
-2.03105e-05
-1.97068e-05
-1.91207e-05
-1.85501e-05
-1.79924e-05
-1.74448e-05
-1.69042e-05
-1.6367e-05
-1.58293e-05
-1.52868e-05
-1.47349e-05
-1.41685e-05
-1.35823e-05
-1.29705e-05
-1.23271e-05
-1.16459e-05
-1.09206e-05
-1.01451e-05
-9.31372e-06
-8.42149e-06
-7.46504e-06
-6.44239e-06
-5.3564e-06
-4.20623e-06
-3.02014e-06
-1.75298e-06
-6.75532e-07
2.68729e-05
2.441e-05
2.17455e-05
1.89268e-05
1.60069e-05
1.3048e-05
1.01142e-05
7.26364e-06
4.54475e-06
1.99586e-06
-3.54893e-07
-2.48919e-06
-4.39767e-06
-6.0787e-06
-7.53688e-06
-8.78162e-06
-9.82578e-06
-1.06844e-05
-1.13739e-05
-1.19112e-05
-1.23128e-05
-1.2595e-05
-1.2773e-05
-1.2861e-05
-1.28719e-05
-1.28177e-05