/*--------------------------------*- C++ -*----------------------------------*\
| =========                 |                                                 |
| \\      /  F ield         | OpenFOAM: The Open Source CFD Toolbox           |
|  \\    /   O peration     | Version:  2.3.0                                 |
|   \\  /    A nd           | Web:      www.OpenFOAM.org                      |
|    \\/     M anipulation  |                                                 |
\*---------------------------------------------------------------------------*/
FoamFile
{
    version     2.0;
    format      ascii;
    class       volVectorField;
    location    "0.65";
    object      U;
}
// * * * * * * * * * * * * * * * * * * * * * * * * * * * * * * * * * * * * * //

dimensions      [0 1 -1 0 0 0 0];

internalField   nonuniform List<vector> 
2945
(
(0.160868 0.00623833 0)
(0.121931 0.00658586 0)
(0.0902704 0.00468617 0)
(0.0671028 0.00259339 0)
(0.0524483 0.00111103 0)
(0.043726 0.000363236 0)
(0.0384493 9.76592e-05 0)
(0.0350886 4.29263e-05 0)
(0.032719 5.57884e-05 0)
(0.0308382 7.56342e-05 0)
(0.0292229 8.43468e-05 0)
(0.027794 8.24829e-05 0)
(0.0265242 7.53848e-05 0)
(0.0253953 6.72745e-05 0)
(0.0243882 5.99963e-05 0)
(0.0234837 5.38965e-05 0)
(0.0226652 4.87867e-05 0)
(0.0219192 4.44264e-05 0)
(0.0212352 4.06382e-05 0)
(0.0206049 3.73049e-05 0)
(0.0200216 3.43543e-05 0)
(0.0194798 3.17205e-05 0)
(0.018975 2.93702e-05 0)
(0.0185032 2.72553e-05 0)
(0.0180611 2.53546e-05 0)
(0.0176458 2.36327e-05 0)
(0.0172548 2.20726e-05 0)
(0.0168861 2.06506e-05 0)
(0.0165374 1.93562e-05 0)
(0.0162075 1.8174e-05 0)
(0.0158944 1.7092e-05 0)
(0.0155972 1.61017e-05 0)
(0.0153142 1.51841e-05 0)
(0.015045 1.43411e-05 0)
(0.0147879 1.35527e-05 0)
(0.0145428 1.28237e-05 0)
(0.0143082 1.21465e-05 0)
(0.0140843 1.15149e-05 0)
(0.0138692 1.09344e-05 0)
(0.0136638 1.03946e-05 0)
(0.0134658 9.88181e-06 0)
(0.0132767 9.41798e-06 0)
(0.0130939 8.956e-06 0)
(0.0129194 8.54365e-06 0)
(0.0127503 8.13359e-06 0)
(0.012589 7.77039e-06 0)
(0.012432 7.40968e-06 0)
(0.0122826 7.09233e-06 0)
(0.0121364 6.76581e-06 0)
(0.011998 6.48517e-06 0)
(0.0118617 6.18383e-06 0)
(0.0117334 5.93012e-06 0)
(0.0116061 5.66112e-06 0)
(0.0114873 5.43177e-06 0)
(0.0113681 5.18229e-06 0)
(0.0112583 4.9741e-06 0)
(0.0111464 4.77771e-06 0)
(0.0110451 4.54907e-06 0)
(0.0109399 4.3892e-06 0)
(0.0108468 4.18199e-06 0)
(0.0107475 4.0432e-06 0)
(0.0106626 3.81876e-06 0)
(0.0105683 3.74683e-06 0)
(0.0104914 3.5017e-06 0)
(0.010401 3.50754e-06 0)
(0.0103324 3.19389e-06 0)
(0.0102447 3.29169e-06 0)
(0.0101847 2.93317e-06 0)
(0.0100977 3.1484e-06 0)
(0.010047 2.71777e-06 0)
(0.00995768 3.08088e-06 0)
(0.00991794 2.49551e-06 0)
(0.00982213 3.10392e-06 0)
(0.00979609 2.37567e-06 0)
(0.0096831 3.54e-06 0)
(0.190305 0.0112377 0)
(0.182789 0.0137179 0)
(0.171678 0.0121789 0)
(0.15783 0.00927033 0)
(0.143407 0.00631864 0)
(0.129943 0.00404011 0)
(0.118216 0.00257112 0)
(0.108543 0.0017254 0)
(0.10076 0.00126341 0)
(0.0944557 0.00100574 0)
(0.0892196 0.000846483 0)
(0.0847505 0.000732367 0)
(0.0808572 0.000640951 0)
(0.0774184 0.000564656 0)
(0.074351 0.000500829 0)
(0.0715924 0.000447585 0)
(0.0690935 0.000402942 0)
(0.0668152 0.000365095 0)
(0.0647262 0.000332593 0)
(0.0628014 0.000304359 0)
(0.06102 0.00027962 0)
(0.0593654 0.000257764 0)
(0.0578231 0.000238363 0)
(0.0563814 0.000221024 0)
(0.0550298 0.000205479 0)
(0.0537598 0.000191462 0)
(0.0525634 0.000178784 0)
(0.0514345 0.000167268 0)
(0.0503666 0.000156782 0)
(0.0493556 0.000147211 0)
(0.0483956 0.000138441 0)
(0.0474841 0.000130401 0)
(0.0466158 0.000122972 0)
(0.0457895 0.000116133 0)
(0.045 0.000109769 0)
(0.0442474 0.000103886 0)
(0.0435263 9.84074e-05 0)
(0.042838 9.33201e-05 0)
(0.0421766 8.85833e-05 0)
(0.0415449 8.4183e-05 0)
(0.0409359 8.00189e-05 0)
(0.0403542 7.6188e-05 0)
(0.0397918 7.24807e-05 0)
(0.0392551 6.90934e-05 0)
(0.0387343 6.57988e-05 0)
(0.0382381 6.28043e-05 0)
(0.0377547 5.98733e-05 0)
(0.0372953 5.72217e-05 0)
(0.0368454 5.45711e-05 0)
(0.0364198 5.22046e-05 0)
(0.0360005 4.97785e-05 0)
(0.0356064 4.76459e-05 0)
(0.0352149 4.5444e-05 0)
(0.0348502 4.35158e-05 0)
(0.0344841 4.14811e-05 0)
(0.0341474 3.97355e-05 0)
(0.0338043 3.79473e-05 0)
(0.0334944 3.62376e-05 0)
(0.0331723 3.46464e-05 0)
(0.0328885 3.30891e-05 0)
(0.032585 3.16262e-05 0)
(0.0323272 3.01108e-05 0)
(0.0320399 2.89137e-05 0)
(0.031808 2.74192e-05 0)
(0.0315339 2.65071e-05 0)
(0.0313289 2.48997e-05 0)
(0.0310641 2.43218e-05 0)
(0.0308876 2.26896e-05 0)
(0.0306264 2.25054e-05 0)
(0.030481 2.08086e-05 0)
(0.0302154 2.10882e-05 0)
(0.0301063 1.91679e-05 0)
(0.0298235 2.01767e-05 0)
(0.0297592 1.8269e-05 0)
(0.0294352 2.07436e-05 0)
(0.191277 0.0103297 0)
(0.192721 0.0140683 0)
(0.193368 0.0139467 0)
(0.191022 0.0119329 0)
(0.18576 0.00949469 0)
(0.17866 0.00739978 0)
(0.170798 0.00582442 0)
(0.162971 0.0046768 0)
(0.155587 0.00382686 0)
(0.14877 0.00318526 0)
(0.142512 0.00269542 0)
(0.136768 0.00231547 0)
(0.131493 0.00201401 0)
(0.126651 0.00176951 0)
(0.122204 0.00156815 0)
(0.118114 0.00140066 0)
(0.114343 0.00126003 0)
(0.110857 0.00114076 0)
(0.107625 0.0010385 0)
(0.104618 0.000949932 0)
(0.101813 0.000872533 0)
(0.0991891 0.000804349 0)
(0.0967285 0.000743915 0)
(0.0944162 0.000690007 0)
(0.0922376 0.000641695 0)
(0.0901821 0.000598176 0)
(0.0882378 0.00055881 0)
(0.0863971 0.000523071 0)
(0.0846497 0.000490506 0)
(0.0829909 0.000460776 0)
(0.0814111 0.000433505 0)
(0.0799079 0.000408487 0)
(0.0784722 0.000385368 0)
(0.0771035 0.000364071 0)
(0.0757927 0.000344262 0)
(0.0745414 0.000325951 0)
(0.0733397 0.000308867 0)
(0.0721916 0.000293022 0)
(0.0710859 0.0002782 0)
(0.0700291 0.000264439 0)
(0.0690084 0.000251414 0)
(0.0680331 0.000239382 0)
(0.0670881 0.000227815 0)
(0.0661862 0.000217183 0)
(0.0653093 0.000206891 0)
(0.064474 0.000197475 0)
(0.0636582 0.000188282 0)
(0.0628837 0.00017991 0)
(0.0621233 0.000171592 0)
(0.061405 0.0001641 0)
(0.0606951 0.000156499 0)
(0.0600292 0.000149749 0)
(0.0593654 0.000142809 0)
(0.0587488 0.000136706 0)
(0.0581272 0.000130291 0)
(0.0575576 0.000124767 0)
(0.0569744 0.000118955 0)
(0.0564503 0.000113727 0)
(0.055902 0.000108425 0)
(0.0554226 0.000103666 0)
(0.0549056 9.87083e-05 0)
(0.0544707 9.42506e-05 0)
(0.0539809 8.98487e-05 0)
(0.0535913 8.56427e-05 0)
(0.0531236 8.17914e-05 0)
(0.0527813 7.76485e-05 0)
(0.0523292 7.44132e-05 0)
(0.0520377 7.05337e-05 0)
(0.051592 6.79613e-05 0)
(0.0513565 6.43828e-05 0)
(0.0509044 6.2522e-05 0)
(0.0507338 5.91694e-05 0)
(0.0502556 5.84147e-05 0)
(0.0501626 5.59626e-05 0)
(0.0496286 5.75036e-05 0)
(0.191877 0.00900324 0)
(0.193595 0.0125696 0)
(0.196727 0.0132351 0)
(0.198868 0.0120173 0)
(0.198882 0.0102285 0)
(0.196958 0.00861095 0)
(0.193759 0.00735497 0)
(0.189904 0.00638405 0)
(0.18576 0.00559816 0)
(0.181495 0.00494311 0)
(0.177177 0.00439338 0)
(0.172848 0.00392939 0)
(0.168552 0.00353287 0)
(0.16433 0.00318935 0)
(0.160217 0.00288929 0)
(0.156236 0.00262647 0)
(0.152402 0.00239595 0)
(0.148723 0.00219335 0)
(0.1452 0.00201465 0)
(0.141833 0.00185638 0)
(0.138616 0.00171556 0)
(0.135546 0.00158972 0)
(0.132616 0.00147683 0)
(0.12982 0.00137517 0)
(0.12715 0.00128329 0)
(0.124601 0.00119998 0)
(0.122163 0.00112413 0)
(0.119835 0.00105493 0)
(0.117604 0.000991534 0)
(0.115471 0.000933412 0)
(0.113425 0.000879854 0)
(0.111465 0.000830556 0)
(0.109582 0.000784838 0)
(0.107779 0.000742613 0)
(0.106042 0.000703222 0)
(0.104377 0.000666738 0)
(0.10277 0.000632574 0)
(0.10123 0.000600856 0)
(0.0997402 0.000571051 0)
(0.098313 0.000543363 0)
(0.0969281 0.00051708 0)
(0.0956031 0.000492763 0)
(0.0943133 0.00046937 0)
(0.0930816 0.000447823 0)
(0.0918782 0.000426935 0)
(0.0907321 0.000407792 0)
(0.0896072 0.000389058 0)
(0.0885403 0.000371979 0)
(0.0874872 0.000354985 0)
(0.0864941 0.000339659 0)
(0.0855068 0.000324104 0)
(0.0845833 0.00031028 0)
(0.0836564 0.000296011 0)
(0.082799 0.000283497 0)
(0.0819278 0.000270273 0)
(0.081134 0.000258931 0)
(0.0803137 0.000246789 0)
(0.0795821 0.000236202 0)
(0.0788079 0.00022497 0)
(0.078138 0.00021535 0)
(0.0774053 0.000204735 0)
(0.0767977 0.000195874 0)
(0.0761006 0.00018612 0)
(0.0755573 0.000177951 0)
(0.0748889 0.000168994 0)
(0.0744136 0.000161314 0)
(0.0737648 0.000153171 0)
(0.0733635 0.000146351 0)
(0.072722 0.000139017 0)
(0.0724026 0.000133237 0)
(0.0717515 0.000126696 0)
(0.0715261 0.000122007 0)
(0.0708422 0.000116886 0)
(0.0707248 0.000114236 0)
(0.0699778 0.000112478 0)
(0.192842 0.00822099 0)
(0.194051 0.0112185 0)
(0.196843 0.0122181 0)
(0.199705 0.0114812 0)
(0.201393 0.0100885 0)
(0.201688 0.00877272 0)
(0.200951 0.00775558 0)
(0.199622 0.00697804 0)
(0.197965 0.0063431 0)
(0.196082 0.00579878 0)
(0.193994 0.0053262 0)
(0.191711 0.00491386 0)
(0.189257 0.00454899 0)
(0.186664 0.00422041 0)
(0.183968 0.00392098 0)
(0.1812 0.00364707 0)
(0.178388 0.00339639 0)
(0.175555 0.00316713 0)
(0.172719 0.00295726 0)
(0.169899 0.00276496 0)
(0.167105 0.00258843 0)
(0.16435 0.00242617 0)
(0.161641 0.0022768 0)
(0.158988 0.00213918 0)
(0.156391 0.00201221 0)
(0.153859 0.00189502 0)
(0.151389 0.00178663 0)
(0.148989 0.00168638 0)
(0.146652 0.00159335 0)
(0.144385 0.00150713 0)
(0.142179 0.00142678 0)
(0.140044 0.00135218 0)
(0.137966 0.00128235 0)
(0.135957 0.00121743 0)
(0.134002 0.0011564 0)
(0.132115 0.00109959 0)
(0.130276 0.00104601 0)
(0.128504 0.000996078 0)
(0.126773 0.000948804 0)
(0.125108 0.000904774 0)
(0.123479 0.00086271 0)
(0.121916 0.000823713 0)
(0.120381 0.000786005 0)
(0.118913 0.000751223 0)
(0.117467 0.000717309 0)
(0.11609 0.000686213 0)
(0.114726 0.000655582 0)
(0.113433 0.000627682 0)
(0.112146 0.000599742 0)
(0.110935 0.000574589 0)
(0.109719 0.00054889 0)
(0.108586 0.000526129 0)
(0.107436 0.000502406 0)
(0.106378 0.000481741 0)
(0.10529 0.000459651 0)
(0.104306 0.000440878 0)
(0.103275 0.000420377 0)
(0.102365 0.000402965 0)
(0.101384 0.000383792 0)
(0.100549 0.000367985 0)
(0.0996149 0.00034968 0)
(0.0988562 0.000335272 0)
(0.0979609 0.000318077 0)
(0.0972825 0.000304989 0)
(0.0964177 0.000288755 0)
(0.0958257 0.000276812 0)
(0.0949804 0.000261454 0)
(0.0944833 0.000251228 0)
(0.0936429 0.000236692 0)
(0.0932511 0.000228506 0)
(0.0923967 0.00021475 0)
(0.0921244 0.00020867 0)
(0.0912316 0.000196798 0)
(0.0910924 0.000193809 0)
(0.0901331 0.000186596 0)
(0.193634 0.00777085 0)
(0.19462 0.0102067 0)
(0.196838 0.0113461 0)
(0.199428 0.010947 0)
(0.201357 0.00981605 0)
(0.202287 0.00866492 0)
(0.20243 0.0077681 0)
(0.202141 0.00709936 0)
(0.201651 0.00656448 0)
(0.201036 0.00610612 0)
(0.200287 0.00570503 0)
(0.199386 0.00535387 0)
(0.198324 0.00504314 0)
(0.197111 0.00476242 0)
(0.195758 0.00450382 0)
(0.194282 0.00426315 0)
(0.192694 0.00403816 0)
(0.191011 0.00382766 0)
(0.189241 0.00363026 0)
(0.187403 0.00344495 0)
(0.185502 0.00327053 0)
(0.183557 0.00310621 0)
(0.181571 0.0029511 0)
(0.179562 0.00280473 0)
(0.177531 0.00266641 0)
(0.175497 0.00253595 0)
(0.173456 0.00241268 0)
(0.171426 0.0022966 0)
(0.169401 0.00218689 0)
(0.167399 0.00208366 0)
(0.165407 0.00198586 0)
(0.163448 0.0018938 0)
(0.161504 0.00180631 0)
(0.159601 0.00172404 0)
(0.157715 0.00164567 0)
(0.155876 0.00157214 0)
(0.154056 0.00150195 0)
(0.152287 0.00143615 0)
(0.150533 0.00137311 0)
(0.148836 0.0013141 0)
(0.147151 0.00125708 0)
(0.145528 0.00120406 0)
(0.143912 0.00115225 0)
(0.142364 0.00110442 0)
(0.140817 0.00105727 0)
(0.139343 0.00101407 0)
(0.137862 0.000971001 0)
(0.136462 0.00093186 0)
(0.135046 0.000892189 0)
(0.13372 0.000856627 0)
(0.132366 0.000819807 0)
(0.131113 0.000787442 0)
(0.129819 0.000753151 0)
(0.12864 0.0007236 0)
(0.127401 0.000691411 0)
(0.126296 0.000664472 0)
(0.12511 0.000634245 0)
(0.124082 0.000609299 0)
(0.122943 0.000580721 0)
(0.121994 0.000558075 0)
(0.120897 0.000530477 0)
(0.120033 0.000509974 0)
(0.118971 0.000483599 0)
(0.118197 0.00046516 0)
(0.11716 0.000439763 0)
(0.116485 0.000423267 0)
(0.115462 0.000398653 0)
(0.114897 0.000384862 0)
(0.113873 0.000360997 0)
(0.11343 0.000350314 0)
(0.112386 0.000327224 0)
(0.112079 0.00031958 0)
(0.110992 0.000299037 0)
(0.110836 0.000295407 0)
(0.109679 0.000280792 0)
(0.194284 0.00745955 0)
(0.195156 0.00941599 0)
(0.196945 0.0105624 0)
(0.199156 0.0104275 0)
(0.20098 0.00952818 0)
(0.202039 0.00850559 0)
(0.20244 0.00768089 0)
(0.202482 0.00707139 0)
(0.202392 0.00659306 0)
(0.202257 0.00618436 0)
(0.202071 0.00582413 0)
(0.201812 0.0055086 0)
(0.201459 0.00523237 0)
(0.201013 0.00498668 0)
(0.200471 0.00476285 0)
(0.19984 0.0045556 0)
(0.199117 0.00436166 0)
(0.198311 0.00417963 0)
(0.197418 0.0040078 0)
(0.196449 0.00384533 0)
(0.195399 0.00369076 0)
(0.194283 0.00354351 0)
(0.193095 0.00340248 0)
(0.191853 0.00326743 0)
(0.190549 0.00313751 0)
(0.189204 0.00301295 0)
(0.187807 0.002893 0)
(0.186385 0.00277831 0)
(0.18492 0.00266798 0)
(0.183442 0.0025628 0)
(0.181929 0.00246145 0)
(0.180413 0.00236484 0)
(0.178868 0.00227131 0)
(0.177333 0.00218228 0)
(0.175774 0.00209592 0)
(0.174236 0.00201416 0)
(0.172677 0.00193486 0)
(0.17115 0.0018601 0)
(0.169601 0.00178735 0)
(0.168093 0.0017189 0)
(0.166561 0.00165162 0)
(0.165082 0.00158883 0)
(0.163576 0.00152646 0)
(0.162133 0.00146888 0)
(0.160658 0.00141118 0)
(0.159257 0.00135846 0)
(0.157816 0.00130495 0)
(0.156461 0.00125654 0)
(0.155056 0.0012065 0)
(0.153752 0.001162 0)
(0.152386 0.00111491 0)
(0.151137 0.00107405 0)
(0.149809 0.00102966 0)
(0.148619 0.000992049 0)
(0.14733 0.000949874 0)
(0.146203 0.000915412 0)
(0.144949 0.000875244 0)
(0.143891 0.000843247 0)
(0.14267 0.000804786 0)
(0.141687 0.00077571 0)
(0.140495 0.000738076 0)
(0.139594 0.000711851 0)
(0.138424 0.000675327 0)
(0.137614 0.000651882 0)
(0.136458 0.000616154 0)
(0.135751 0.000595435 0)
(0.134596 0.000560245 0)
(0.134004 0.00054315 0)
(0.132838 0.000508586 0)
(0.132375 0.000495544 0)
(0.13118 0.000461796 0)
(0.130861 0.000452502 0)
(0.129617 0.000422054 0)
(0.129454 0.000417597 0)
(0.128138 0.000394114 0)
(0.19485 0.00719714 0)
(0.195639 0.00877613 0)
(0.19711 0.00984081 0)
(0.198981 0.00989795 0)
(0.200641 0.00921687 0)
(0.20171 0.00832544 0)
(0.202202 0.00756469 0)
(0.202355 0.00699735 0)
(0.202383 0.00655729 0)
(0.202391 0.00618159 0)
(0.202386 0.00584593 0)
(0.202355 0.00554879 0)
(0.202275 0.00528913 0)
(0.202149 0.00506118 0)
(0.201969 0.0048566 0)
(0.201746 0.00466955 0)
(0.201468 0.00449589 0)
(0.201147 0.00433409 0)
(0.200766 0.00418208 0)
(0.20034 0.00403918 0)
(0.199851 0.0039035 0)
(0.199317 0.00377462 0)
(0.198718 0.0036509 0)
(0.198076 0.00353227 0)
(0.197369 0.00341724 0)
(0.196624 0.00330633 0)
(0.195814 0.00319821 0)
(0.194975 0.00309408 0)
(0.194075 0.00299261 0)
(0.193154 0.00289534 0)
(0.192173 0.00280037 0)
(0.191179 0.00270938 0)
(0.190126 0.00261979 0)
(0.18907 0.00253386 0)
(0.187957 0.00244878 0)
(0.186853 0.00236772 0)
(0.185694 0.0022876 0)
(0.184556 0.00221197 0)
(0.183361 0.00213707 0)
(0.182198 0.00206657 0)
(0.180975 0.00199576 0)
(0.179796 0.00192964 0)
(0.178554 0.0018623 0)
(0.177372 0.0018004 0)
(0.176121 0.00173691 0)
(0.174945 0.00167944 0)
(0.173689 0.00161957 0)
(0.172526 0.00156599 0)
(0.171271 0.00150892 0)
(0.170127 0.00145893 0)
(0.168879 0.00140423 0)
(0.167764 0.00135779 0)
(0.166524 0.00130543 0)
(0.165446 0.00126227 0)
(0.164217 0.00121176 0)
(0.163181 0.00117197 0)
(0.161963 0.00112305 0)
(0.16098 0.00108586 0)
(0.159771 0.0010383 0)
(0.158848 0.00100442 0)
(0.157647 0.000957203 0)
(0.156796 0.000926685 0)
(0.155597 0.000880196 0)
(0.154827 0.000852969 0)
(0.153625 0.000806848 0)
(0.15295 0.000782923 0)
(0.151734 0.000736991 0)
(0.151168 0.000717343 0)
(0.149927 0.000671855 0)
(0.149484 0.000656887 0)
(0.148205 0.000612279 0)
(0.147899 0.000601501 0)
(0.146565 0.000560917 0)
(0.146409 0.000555619 0)
(0.145001 0.000522734 0)
(0.195354 0.00695006 0)
(0.196071 0.00824668 0)
(0.197304 0.00919201 0)
(0.198886 0.00937438 0)
(0.200372 0.00888877 0)
(0.201415 0.0081342 0)
(0.201957 0.0074402 0)
(0.202172 0.00690923 0)
(0.202245 0.00649964 0)
(0.202295 0.00615122 0)
(0.20234 0.00583557 0)
(0.202377 0.00555112 0)
(0.202383 0.00530008 0)
(0.202365 0.00508034 0)
(0.202313 0.00488472 0)
(0.202246 0.00470761 0)
(0.202148 0.00454412 0)
(0.202035 0.00439294 0)
(0.201887 0.00425163 0)
(0.201724 0.00412002 0)
(0.20152 0.00399582 0)
(0.201299 0.00387903 0)
(0.201032 0.00376742 0)
(0.200747 0.00366132 0)
(0.20041 0.00355845 0)
(0.200057 0.00345975 0)
(0.199646 0.00336303 0)
(0.199223 0.00327008 0)
(0.19874 0.00317879 0)
(0.198249 0.00309166 0)
(0.197694 0.00300589 0)
(0.197138 0.00292419 0)
(0.196511 0.00284276 0)
(0.195888 0.00276482 0)
(0.195192 0.00268605 0)
(0.194511 0.00261107 0)
(0.193753 0.00253533 0)
(0.193022 0.0024643 0)
(0.192209 0.00239264 0)
(0.191434 0.00232587 0)
(0.190569 0.00225713 0)
(0.189754 0.00219346 0)
(0.188841 0.00212643 0)
(0.187997 0.00206549 0)
(0.187047 0.00200097 0)
(0.186183 0.00194372 0)
(0.185201 0.001882 0)
(0.184323 0.00182802 0)
(0.183311 0.00176806 0)
(0.182426 0.00171689 0)
(0.181392 0.00165819 0)
(0.18051 0.00161003 0)
(0.179456 0.00155282 0)
(0.178587 0.00150764 0)
(0.177516 0.00145151 0)
(0.176668 0.00140966 0)
(0.175581 0.00135435 0)
(0.174763 0.00131483 0)
(0.173661 0.00126014 0)
(0.172884 0.00122398 0)
(0.171766 0.00116881 0)
(0.171042 0.00113625 0)
(0.169905 0.00108124 0)
(0.169246 0.00105218 0)
(0.168084 0.000996844 0)
(0.167504 0.000971227 0)
(0.166313 0.000915749 0)
(0.165824 0.000894742 0)
(0.164595 0.000839459 0)
(0.16421 0.00082324 0)
(0.162934 0.000768817 0)
(0.16267 0.000756983 0)
(0.161334 0.00070733 0)
(0.161198 0.000701296 0)
(0.159789 0.000659693 0)
(0.195806 0.00671018 0)
(0.196457 0.00779914 0)
(0.197507 0.00862275 0)
(0.19885 0.00887646 0)
(0.200165 0.00855487 0)
(0.201161 0.00793652 0)
(0.201735 0.00731404 0)
(0.201999 0.00681763 0)
(0.202105 0.00643366 0)
(0.202175 0.00610967 0)
(0.202235 0.00581356 0)
(0.202294 0.00554164 0)
(0.202325 0.00529754 0)
(0.202342 0.00508274 0)
(0.20233 0.00489169 0)
(0.202313 0.00471965 0)
(0.202273 0.00456102 0)
(0.202236 0.00441492 0)
(0.202173 0.00427838 0)
(0.202114 0.00415203 0)
(0.202025 0.00403313 0)
(0.201942 0.00392239 0)
(0.201823 0.00381695 0)
(0.20171 0.00371787 0)
(0.201556 0.00362197 0)
(0.201409 0.00353093 0)
(0.201213 0.00344151 0)
(0.201028 0.00335634 0)
(0.200788 0.00327224 0)
(0.200563 0.00319289 0)
(0.200276 0.00311431 0)
(0.200009 0.00304068 0)
(0.199671 0.00296666 0)
(0.199357 0.00289681 0)
(0.198964 0.00282484 0)
(0.198604 0.00275705 0)
(0.198156 0.0026869 0)
(0.197754 0.00262209 0)
(0.197255 0.00255543 0)
(0.196813 0.00249476 0)
(0.196261 0.00243062 0)
(0.195777 0.00237259 0)
(0.195172 0.00230891 0)
(0.19465 0.00225219 0)
(0.193998 0.0021896 0)
(0.193449 0.00213594 0)
(0.192752 0.00207555 0)
(0.192177 0.00202477 0)
(0.191436 0.00196529 0)
(0.19084 0.00191659 0)
(0.190057 0.00185705 0)
(0.189448 0.00181072 0)
(0.188628 0.00175167 0)
(0.188015 0.00170781 0)
(0.187158 0.00164886 0)
(0.18655 0.00160826 0)
(0.185656 0.00154935 0)
(0.185059 0.00151051 0)
(0.18413 0.00145129 0)
(0.183554 0.00141559 0)
(0.182591 0.00135484 0)
(0.182049 0.00132262 0)
(0.181049 0.00126145 0)
(0.180551 0.00123283 0)
(0.179509 0.00117051 0)
(0.179067 0.00114472 0)
(0.177986 0.001082 0)
(0.177612 0.00106104 0)
(0.176481 0.000998392 0)
(0.176184 0.000981708 0)
(0.174999 0.000919528 0)
(0.174799 0.000907112 0)
(0.173554 0.000850789 0)
(0.173449 0.000844225 0)
(0.172135 0.000795748 0)
(0.196211 0.00647932 0)
(0.196802 0.00741222 0)
(0.197709 0.00812815 0)
(0.198856 0.0084147 0)
(0.200013 0.00822242 0)
(0.200946 0.00773211 0)
(0.201534 0.0071852 0)
(0.201839 0.00672433 0)
(0.201975 0.00636288 0)
(0.202063 0.00606084 0)
(0.202131 0.00578428 0)
(0.202201 0.00552632 0)
(0.202242 0.00529003 0)
(0.202274 0.00507992 0)
(0.202275 0.00489224 0)
(0.202276 0.00472373 0)
(0.202253 0.00456807 0)
(0.202241 0.00442496 0)
(0.202203 0.00429067 0)
(0.20218 0.00416678 0)
(0.202129 0.00404998 0)
(0.202097 0.00394189 0)
(0.202032 0.00383888 0)
(0.20199 0.00374306 0)
(0.201908 0.00365019 0)
(0.201852 0.00356298 0)
(0.201751 0.00347708 0)
(0.201679 0.00339614 0)
(0.201555 0.00331567 0)
(0.201466 0.00324085 0)
(0.201317 0.0031662 0)
(0.201209 0.00309767 0)
(0.20103 0.00302826 0)
(0.200898 0.00296424 0)
(0.200684 0.00289706 0)
(0.200524 0.00283504 0)
(0.200273 0.00276916 0)
(0.200088 0.00270959 0)
(0.1998 0.00264699 0)
(0.199589 0.00259196 0)
(0.199262 0.00253213 0)
(0.199022 0.00248015 0)
(0.198648 0.00242039 0)
(0.198377 0.00236881 0)
(0.197961 0.0023089 0)
(0.197667 0.00225997 0)
(0.197209 0.00220203 0)
(0.196893 0.00215602 0)
(0.19639 0.0020987 0)
(0.19605 0.00205446 0)
(0.195501 0.0019959 0)
(0.195145 0.00195355 0)
(0.194553 0.00189467 0)
(0.194185 0.00185432 0)
(0.19355 0.00179456 0)
(0.193179 0.00175748 0)
(0.192497 0.00169741 0)
(0.192125 0.00166144 0)
(0.1914 0.00160014 0)
(0.191035 0.00156707 0)
(0.190263 0.00150321 0)
(0.189916 0.0014731 0)
(0.189101 0.00140831 0)
(0.18878 0.00138209 0)
(0.187912 0.00131571 0)
(0.187623 0.00129076 0)
(0.186711 0.00122352 0)
(0.186468 0.00120375 0)
(0.185503 0.00113703 0)
(0.185306 0.00112071 0)
(0.184284 0.00105338 0)
(0.184155 0.00104048 0)
(0.183082 0.000980748 0)
(0.183012 0.000974042 0)
(0.181874 0.000921286 0)
(0.196574 0.00626079 0)
(0.197111 0.00707117 0)
(0.197901 0.00769728 0)
(0.198888 0.00799245 0)
(0.199903 0.00789677 0)
(0.200766 0.00752055 0)
(0.201352 0.00705095 0)
(0.201689 0.00662846 0)
(0.201854 0.00628829 0)
(0.201959 0.00600589 0)
(0.202033 0.00574832 0)
(0.202112 0.00550564 0)
(0.20216 0.00527873 0)
(0.202203 0.00507419 0)
(0.20221 0.00488995 0)
(0.202221 0.00472475 0)
(0.202204 0.00457166 0)
(0.202201 0.00443115 0)
(0.202171 0.00429847 0)
(0.202161 0.00417621 0)
(0.202121 0.00406035 0)
(0.202106 0.00395358 0)
(0.202057 0.00385134 0)
(0.20204 0.00375697 0)
(0.201983 0.0036651 0)
(0.201962 0.00357958 0)
(0.201895 0.00349495 0)
(0.20187 0.00341599 0)
(0.201792 0.00333678 0)
(0.201762 0.00326419 0)
(0.201671 0.00319093 0)
(0.201636 0.00312496 0)
(0.201532 0.00305755 0)
(0.201489 0.0029969 0)
(0.201365 0.00293212 0)
(0.201311 0.00287381 0)
(0.201164 0.00281026 0)
(0.201099 0.00275407 0)
(0.200931 0.00269367 0)
(0.200855 0.00264261 0)
(0.200661 0.00258539 0)
(0.200572 0.0025382 0)
(0.200345 0.00248145 0)
(0.200238 0.0024343 0)
(0.199979 0.00237639 0)
(0.199859 0.00233166 0)
(0.199569 0.0022758 0)
(0.199434 0.00223425 0)
(0.199109 0.00217921 0)
(0.198958 0.00213976 0)
(0.198592 0.00208256 0)
(0.198429 0.0020447 0)
(0.198024 0.00198683 0)
(0.197851 0.00195073 0)
(0.197405 0.00189106 0)
(0.197228 0.0018582 0)
(0.19674 0.00179864 0)
(0.196555 0.0017664 0)
(0.196025 0.00170474 0)
(0.19584 0.00167538 0)
(0.195264 0.00161049 0)
(0.195085 0.00158324 0)
(0.194465 0.00151679 0)
(0.194302 0.00149398 0)
(0.193631 0.00142668 0)
(0.193476 0.00140288 0)
(0.192764 0.00133348 0)
(0.192639 0.00131531 0)
(0.191878 0.0012479 0)
(0.191772 0.00123278 0)
(0.190953 0.00116307 0)
(0.190887 0.00114906 0)
(0.190033 0.00108911 0)
(0.189996 0.00108289 0)
(0.189082 0.00102863 0)
(0.196901 0.00605626 0)
(0.197388 0.00676643 0)
(0.19808 0.00731863 0)
(0.198937 0.00760912 0)
(0.199826 0.0075827 0)
(0.200617 0.0073036 0)
(0.201188 0.00690992 0)
(0.201547 0.00652912 0)
(0.201737 0.00621063 0)
(0.201859 0.00594606 0)
(0.201941 0.00570629 0)
(0.202026 0.00547952 0)
(0.20208 0.00526347 0)
(0.202132 0.00506571 0)
(0.202145 0.00488545 0)
(0.202164 0.00472377 0)
(0.20215 0.00457328 0)
(0.202154 0.00443549 0)
(0.202127 0.00430449 0)
(0.202123 0.00418381 0)
(0.202086 0.0040687 0)
(0.202079 0.00396292 0)
(0.202034 0.00386092 0)
(0.202026 0.00376738 0)
(0.201976 0.00367572 0)
(0.201967 0.00359096 0)
(0.201912 0.0035066 0)
(0.201903 0.00342861 0)
(0.201841 0.00334949 0)
(0.201833 0.00327795 0)
(0.201765 0.00320476 0)
(0.201758 0.00313985 0)
(0.201683 0.00307278 0)
(0.201677 0.00301381 0)
(0.201592 0.00294968 0)
(0.201586 0.00289345 0)
(0.201488 0.00283077 0)
(0.201479 0.0027764 0)
(0.201369 0.00271661 0)
(0.201359 0.00266789 0)
(0.201234 0.00261152 0)
(0.201223 0.00256738 0)
(0.201079 0.00251233 0)
(0.20106 0.00246834 0)
(0.200895 0.00241133 0)
(0.200872 0.00236955 0)
(0.200686 0.00231484 0)
(0.200657 0.00227648 0)
(0.200449 0.00222296 0)
(0.200413 0.00218758 0)
(0.200173 0.00213126 0)
(0.200133 0.0020972 0)
(0.199864 0.00204034 0)
(0.199817 0.00200808 0)
(0.199515 0.00194866 0)
(0.199467 0.00191935 0)
(0.199135 0.00186115 0)
(0.199078 0.0018323 0)
(0.198711 0.00177112 0)
(0.198654 0.00174539 0)
(0.198248 0.00168097 0)
(0.198189 0.0016564 0)
(0.197747 0.00158944 0)
(0.197699 0.00156978 0)
(0.197215 0.00150432 0)
(0.197158 0.00148152 0)
(0.196639 0.00141158 0)
(0.196602 0.00139451 0)
(0.196046 0.00132896 0)
(0.196011 0.00131579 0)
(0.195399 0.00124633 0)
(0.195378 0.00123011 0)
(0.194751 0.00117205 0)
(0.19474 0.00116705 0)
(0.194058 0.00111371 0)
(0.197195 0.00586565 0)
(0.197637 0.00649178 0)
(0.198247 0.00698266 0)
(0.198996 0.0072621 0)
(0.199776 0.00728399 0)
(0.200494 0.00708469 0)
(0.20104 0.00676244 0)
(0.201412 0.00642581 0)
(0.201623 0.00613052 0)
(0.201762 0.00588269 0)
(0.201851 0.00565921 0)
(0.201942 0.00544825 0)
(0.202001 0.0052441 0)
(0.20206 0.00505434 0)
(0.20208 0.00487877 0)
(0.202105 0.00472096 0)
(0.202096 0.00457321 0)
(0.202105 0.00443834 0)
(0.20208 0.00430926 0)
(0.202081 0.00419033 0)
(0.202046 0.00407613 0)
(0.202043 0.00397134 0)
(0.202001 0.00386955 0)
(0.201996 0.00377664 0)
(0.201949 0.00368504 0)
(0.201944 0.00360069 0)
(0.201893 0.0035163 0)
(0.20189 0.0034389 0)
(0.201834 0.00335945 0)
(0.201833 0.00328853 0)
(0.201773 0.00321492 0)
(0.201775 0.00315035 0)
(0.201711 0.00308288 0)
(0.201718 0.00302465 0)
(0.201649 0.00296022 0)
(0.201659 0.00290505 0)
(0.201583 0.00284246 0)
(0.201595 0.00278896 0)
(0.201512 0.00272888 0)
(0.201528 0.0026814 0)
(0.201437 0.00262473 0)
(0.201457 0.00258216 0)
(0.201356 0.00252775 0)
(0.201376 0.00248573 0)
(0.201261 0.00242879 0)
(0.201282 0.00238874 0)
(0.201157 0.00233441 0)
(0.201177 0.0022978 0)
(0.201039 0.00224488 0)
(0.201059 0.00221249 0)
(0.2009 0.00215639 0)
(0.200921 0.0021249 0)
(0.200743 0.0020687 0)
(0.200762 0.00203933 0)
(0.20056 0.00198005 0)
(0.200582 0.00195283 0)
(0.200362 0.00189635 0)
(0.200375 0.00186991 0)
(0.200131 0.00180935 0)
(0.200146 0.00178636 0)
(0.199873 0.00172329 0)
(0.199884 0.00170074 0)
(0.199584 0.0016338 0)
(0.199604 0.00161595 0)
(0.199277 0.00155429 0)
(0.199278 0.00153221 0)
(0.198922 0.00146259 0)
(0.198937 0.00144552 0)
(0.198559 0.00138315 0)
(0.198568 0.00137232 0)
(0.19814 0.00130542 0)
(0.198143 0.00128589 0)
(0.197714 0.00123035 0)
(0.197721 0.00122714 0)
(0.197246 0.00117645 0)
(0.197461 0.00568803 0)
(0.197863 0.00624287 0)
(0.198402 0.00668209 0)
(0.199059 0.00694796 0)
(0.199746 0.00700298 0)
(0.200395 0.00686759 0)
(0.200911 0.00660995 0)
(0.201285 0.00631836 0)
(0.201512 0.00604814 0)
(0.201667 0.00581678 0)
(0.201764 0.00560818 0)
(0.201859 0.00541234 0)
(0.201922 0.00522063 0)
(0.201987 0.0050399 0)
(0.202013 0.00486986 0)
(0.202045 0.00471634 0)
(0.20204 0.00457153 0)
(0.202053 0.00443971 0)
(0.202032 0.00431281 0)
(0.202036 0.00419583 0)
(0.202005 0.00408277 0)
(0.202003 0.00397907 0)
(0.201964 0.00387761 0)
(0.20196 0.00378531 0)
(0.201917 0.00369384 0)
(0.201913 0.00360978 0)
(0.201866 0.00352534 0)
(0.201863 0.00344841 0)
(0.201812 0.00336857 0)
(0.201811 0.0032981 0)
(0.201756 0.00322403 0)
(0.201759 0.00315952 0)
(0.201702 0.00309139 0)
(0.20171 0.00303345 0)
(0.201649 0.00296836 0)
(0.201663 0.00291364 0)
(0.201599 0.0028509 0)
(0.201614 0.00279777 0)
(0.201546 0.00273707 0)
(0.201567 0.00269025 0)
(0.201493 0.00263277 0)
(0.201521 0.00259071 0)
(0.201444 0.00253636 0)
(0.201473 0.0024954 0)
(0.201388 0.00243815 0)
(0.201422 0.00239892 0)
(0.201331 0.00234464 0)
(0.201365 0.00230866 0)
(0.201269 0.00225561 0)
(0.201308 0.00222524 0)
(0.201197 0.0021689 0)
(0.201241 0.00213874 0)
(0.201119 0.0020829 0)
(0.201164 0.00205537 0)
(0.201028 0.00199623 0)
(0.201074 0.00196954 0)
(0.200931 0.0019148 0)
(0.200971 0.00188977 0)
(0.200812 0.00182962 0)
(0.200856 0.00180816 0)
(0.20068 0.00174685 0)
(0.20072 0.00172559 0)
(0.200522 0.00165892 0)
(0.200569 0.00164114 0)
(0.200361 0.00158412 0)
(0.200387 0.00156262 0)
(0.200154 0.00149374 0)
(0.20019 0.00147549 0)
(0.199948 0.0014164 0)
(0.199978 0.00140785 0)
(0.199696 0.00134519 0)
(0.199706 0.00132187 0)
(0.19943 0.00126826 0)
(0.199447 0.00126704 0)
(0.199133 0.00121987 0)
(0.197701 0.00552228 0)
(0.198067 0.00601638 0)
(0.198546 0.00641147 0)
(0.199125 0.00666314 0)
(0.199731 0.0067406 0)
(0.200316 0.00665555 0)
(0.200798 0.00645442 0)
(0.201166 0.00620694 0)
(0.201405 0.00596341 0)
(0.201572 0.0057489 0)
(0.201677 0.00555413 0)
(0.201776 0.00537242 0)
(0.201843 0.00519321 0)
(0.201912 0.00502229 0)
(0.201945 0.0048586 0)
(0.201981 0.00470988 0)
(0.201982 0.00456825 0)
(0.201998 0.00443957 0)
(0.201982 0.00431509 0)
(0.201988 0.00420022 0)
(0.20196 0.00408858 0)
(0.20196 0.00398608 0)
(0.201925 0.00388514 0)
(0.201921 0.00379345 0)
(0.201882 0.00370227 0)
(0.201877 0.00361844 0)
(0.201835 0.00353401 0)
(0.20183 0.00345753 0)
(0.201784 0.00337735 0)
(0.201782 0.00330727 0)
(0.201732 0.00323283 0)
(0.201733 0.00316828 0)
(0.201681 0.00309947 0)
(0.201687 0.00304162 0)
(0.201633 0.00297578 0)
(0.201644 0.00292116 0)
(0.201588 0.00285828 0)
(0.201601 0.00280529 0)
(0.201543 0.00274394 0)
(0.20156 0.00269747 0)
(0.201498 0.00263913 0)
(0.201523 0.0025969 0)
(0.20146 0.00254235 0)
(0.201488 0.00250187 0)
(0.201421 0.00244427 0)
(0.201452 0.00240528 0)
(0.201383 0.00235101 0)
(0.201415 0.002315 0)
(0.201345 0.00226137 0)
(0.201384 0.00223228 0)
(0.201303 0.00217558 0)
(0.201347 0.00214581 0)
(0.201262 0.00209014 0)
(0.201307 0.00206354 0)
(0.201214 0.00200476 0)
(0.20126 0.00197739 0)
(0.201167 0.00192426 0)
(0.20121 0.00189987 0)
(0.201106 0.00183994 0)
(0.201154 0.00181886 0)
(0.201041 0.00175935 0)
(0.201086 0.00173881 0)
(0.200957 0.00167269 0)
(0.201007 0.00165346 0)
(0.200879 0.00160093 0)
(0.200911 0.00157998 0)
(0.200761 0.0015121 0)
(0.200799 0.00149188 0)
(0.200649 0.00143545 0)
(0.200685 0.0014287 0)
(0.200505 0.0013711 0)
(0.200514 0.00134435 0)
(0.200341 0.00129157 0)
(0.200361 0.00129208 0)
(0.200161 0.00124861 0)