/*--------------------------------*- C++ -*----------------------------------*\
| =========                 |                                                 |
| \\      /  F ield         | OpenFOAM: The Open Source CFD Toolbox           |
|  \\    /   O peration     | Version:  2.3.0                                 |
|   \\  /    A nd           | Web:      www.OpenFOAM.org                      |
|    \\/     M anipulation  |                                                 |
\*---------------------------------------------------------------------------*/
FoamFile
{
    version     2.0;
    format      ascii;
    class       surfaceScalarField;
    location    "0.75";
    object      phi;
}
// * * * * * * * * * * * * * * * * * * * * * * * * * * * * * * * * * * * * * //

dimensions      [0 3 -1 0 0 0 0];

internalField   nonuniform List<scalar> 
3859
(
2.88216e-08
2.77031e-09
-3.15919e-08
2.53567e-08
3.46488e-09
2.19151e-08
3.44165e-09
1.87277e-08
3.1874e-09
1.58268e-08
2.90087e-09
1.32905e-08
2.53626e-09
1.12129e-08
2.07769e-09
9.60786e-09
1.605e-09
8.43772e-09
1.17014e-09
7.61659e-09
8.21136e-10
7.04636e-09
5.7023e-10
6.64276e-09
4.03599e-10
6.34354e-09
2.99217e-10
6.10614e-09
2.37401e-10
5.90232e-09
2.0382e-10
5.71582e-09
1.86503e-10
5.53914e-09
1.76671e-10
5.36999e-09
1.69156e-10
5.20841e-09
1.61582e-10
5.05516e-09
1.53242e-10
4.91094e-09
1.44228e-10
4.77602e-09
1.34914e-10
4.65033e-09
1.25697e-10
4.53344e-09
1.16887e-10
4.42475e-09
1.08686e-10
4.32356e-09
1.01191e-10
4.22913e-09
9.44286e-11
4.14076e-09
8.8373e-11
4.05779e-09
8.29699e-11
3.97964e-09
7.81459e-11
3.90582e-09
7.38286e-11
3.83587e-09
6.99446e-11
3.76944e-09
6.6433e-11
3.7062e-09
6.32368e-11
3.64589e-09
6.03125e-11
3.58827e-09
5.76201e-11
3.53314e-09
5.51311e-11
3.48032e-09
5.28182e-11
3.42966e-09
5.06642e-11
3.38101e-09
4.86497e-11
3.33424e-09
4.67652e-11
3.28924e-09
4.49957e-11
3.24591e-09
4.33363e-11
3.20413e-09
4.17744e-11
3.16383e-09
4.03077e-11
3.1249e-09
3.89247e-11
3.08728e-09
3.76244e-11
3.05088e-09
3.63964e-11
3.01564e-09
3.52397e-11
2.9815e-09
3.41456e-11
2.94838e-09
3.31122e-11
2.91625e-09
3.2133e-11
2.88504e-09
3.12052e-11
2.85472e-09
3.0324e-11
2.82523e-09
2.94864e-11
2.79655e-09
2.86884e-11
2.76862e-09
2.79271e-11
2.74142e-09
2.72006e-11
2.71492e-09
2.6503e-11
2.68908e-09
2.58386e-11
2.66388e-09
2.51944e-11
2.6393e-09
2.45833e-11
2.61531e-09
2.3985e-11
2.59189e-09
2.34196e-11
2.56903e-09
2.28603e-11
2.5467e-09
2.23357e-11
2.52489e-09
2.18083e-11
2.50357e-09
2.13206e-11
2.48275e-09
2.08191e-11
2.46238e-09
2.0366e-11
2.4425e-09
1.98855e-11
2.42303e-09
1.94641e-11
2.40403e-09
1.90007e-11
2.38542e-09
1.86101e-11
2.36727e-09
1.81585e-11
2.34947e-09
1.7799e-11
2.33211e-09
1.73554e-11
2.31508e-09
1.70288e-11
2.29849e-09
1.65882e-11
2.2822e-09
1.62979e-11
2.26634e-09
1.58559e-11
2.25073e-09
1.56054e-11
2.23558e-09
1.51582e-11
2.22062e-09
1.49545e-11
2.20613e-09
1.44965e-11
2.19178e-09
1.43505e-11
2.1779e-09
1.38743e-11
2.1641e-09
1.37993e-11
2.1508e-09
1.32999e-11
2.13749e-09
1.33112e-11
2.12471e-09
1.2779e-11
2.1118e-09
1.29073e-11
2.09948e-09
1.23265e-11
2.08687e-09
1.26046e-11
2.07491e-09
1.19632e-11
2.06246e-09
1.24469e-11
2.05076e-09
1.17034e-11
2.03826e-09
1.24956e-11
2.02666e-09
1.16015e-11
1.42589e-11
3.62377e-08
2.47165e-09
-3.5939e-08
3.60723e-08
3.63023e-09
3.53686e-08
4.14537e-09
3.43819e-08
4.1741e-09
3.32253e-08
4.0575e-09
3.19188e-08
3.84275e-09
3.04861e-08
3.51042e-09
2.90039e-08
3.08719e-09
2.75476e-08
2.6264e-09
2.61718e-08
2.19697e-09
2.49003e-08
1.84178e-09
2.37349e-08
1.56893e-09
2.26729e-08
1.36124e-09
2.17127e-08
1.1976e-09
2.08448e-08
1.07172e-09
2.00587e-08
9.72591e-10
1.93443e-08
8.91046e-10
1.86926e-08
8.20892e-10
1.80957e-08
7.58504e-10
1.7547e-08
7.01954e-10
1.70409e-08
6.50283e-10
1.65728e-08
6.03013e-10
1.61386e-08
5.59885e-10
1.57348e-08
5.20696e-10
1.53583e-08
4.8524e-10
1.50062e-08
4.53255e-10
1.46762e-08
4.24465e-10
1.4366e-08
3.98568e-10
1.40737e-08
3.7526e-10
1.37976e-08
3.5423e-10
1.35362e-08
3.352e-10
1.32883e-08
3.17904e-10
1.30526e-08
3.02124e-10
1.28281e-08
2.87656e-10
1.26141e-08
2.74343e-10
1.24097e-08
2.62036e-10
1.22142e-08
2.50629e-10
1.2027e-08
2.40014e-10
1.18475e-08
2.30123e-10
1.16753e-08
2.20873e-10
1.15099e-08
2.12224e-10
1.13507e-08
2.04108e-10
1.11976e-08
1.965e-10
1.105e-08
1.89345e-10
1.09077e-08
1.82626e-10
1.07703e-08
1.76293e-10
1.06376e-08
1.70338e-10
1.05093e-08
1.64712e-10
1.03851e-08
1.59413e-10
1.02649e-08
1.54395e-10
1.01483e-08
1.49659e-10
1.00353e-08
1.45162e-10
9.9256e-09
1.40909e-10
9.81906e-09
1.36857e-10
9.71553e-09
1.33016e-10
9.61488e-09
1.29344e-10
9.51695e-09
1.25856e-10
9.42164e-09
1.2251e-10
9.32882e-09
1.19322e-10
9.2384e-09
1.16256e-10
9.15027e-09
1.13323e-10
9.06436e-09
1.10498e-10
8.98056e-09
1.07785e-10
8.89881e-09
1.05167e-10
8.81903e-09
1.02644e-10
8.74116e-09
1.00206e-10
8.66512e-09
9.78433e-11
8.59088e-09
9.55637e-11
8.51836e-09
9.3338e-11
8.44753e-09
9.11999e-11
8.37832e-09
8.90911e-11
8.31071e-09
8.70775e-11
8.24464e-09
8.50697e-11
8.18008e-09
8.3169e-11
8.11699e-09
8.12452e-11
8.05534e-09
7.94498e-11
7.9951e-09
7.75978e-11
7.93623e-09
7.59038e-11
7.8787e-09
7.41107e-11
7.82248e-09
7.25189e-11
7.76756e-09
7.07752e-11
7.71388e-09
6.92869e-11
7.66145e-09
6.75877e-11
7.61019e-09
6.62119e-11
7.56014e-09
6.45512e-11
7.51118e-09
6.33059e-11
7.46338e-09
6.1678e-11
7.41659e-09
6.05867e-11
7.3709e-09
5.89961e-11
7.32612e-09
5.8085e-11
7.28237e-09
5.65359e-11
7.23941e-09
5.58622e-11
7.19738e-09
5.43562e-11
7.15601e-09
5.39766e-11
7.11543e-09
5.25461e-11
7.07532e-09
5.25514e-11
7.03582e-09
5.12067e-11
6.99652e-09
5.17974e-11
6.95742e-09
5.07032e-11
5.44497e-11
4.02782e-08
2.34684e-09
-4.01534e-08
4.07051e-08
3.20326e-09
4.09713e-08
3.87919e-09
4.10464e-08
4.09902e-09
4.10065e-08
4.09742e-09
4.08475e-08
4.00174e-09
4.05338e-08
3.82409e-09
4.00654e-08
3.55561e-09
3.94718e-08
3.21999e-09
3.87965e-08
2.8723e-09
3.80763e-08
2.56196e-09
3.73349e-08
2.3103e-09
3.65853e-08
2.11091e-09
3.58335e-08
1.94932e-09
3.50879e-08
1.8174e-09
3.43532e-08
1.70726e-09
3.36324e-08
1.61181e-09
3.29274e-08
1.52591e-09
3.22395e-08
1.4464e-09
3.15699e-08
1.3716e-09
3.09194e-08
1.30071e-09
3.02891e-08
1.2334e-09
2.96793e-08
1.16961e-09
2.90907e-08
1.10934e-09
2.85233e-08
1.05261e-09
2.79772e-08
9.99352e-10
2.74522e-08
9.4951e-10
2.69478e-08
9.02948e-10
2.64635e-08
8.59517e-10
2.59987e-08
8.19005e-10
2.55527e-08
7.81227e-10
2.51247e-08
7.45957e-10
2.47138e-08
7.13019e-10
2.43192e-08
6.82207e-10
2.39402e-08
6.53377e-10
2.35759e-08
6.26348e-10
2.32255e-08
6.01009e-10
2.28883e-08
5.77202e-10
2.25636e-08
5.54849e-10
2.22507e-08
5.33806e-10
2.19489e-08
5.14023e-10
2.16576e-08
4.95366e-10
2.13763e-08
4.77806e-10
2.11044e-08
4.61215e-10
2.08415e-08
4.45584e-10
2.0587e-08
4.30784e-10
2.03405e-08
4.16826e-10
2.01016e-08
4.0358e-10
1.987e-08
3.91072e-10
1.96452e-08
3.79171e-10
1.94269e-08
3.67918e-10
1.92149e-08
3.5718e-10
1.90088e-08
3.47014e-10
1.88084e-08
3.37278e-10
1.86133e-08
3.28053e-10
1.84235e-08
3.19182e-10
1.82386e-08
3.1077e-10
1.80584e-08
3.02647e-10
1.78828e-08
2.94938e-10
1.77116e-08
2.87463e-10
1.75446e-08
2.80361e-10
1.73816e-08
2.73447e-10
1.72225e-08
2.66875e-10
1.70673e-08
2.60442e-10
1.69156e-08
2.54334e-10
1.67675e-08
2.48319e-10
1.66227e-08
2.42611e-10
1.64813e-08
2.36959e-10
1.6343e-08
2.316e-10
1.6208e-08
2.26265e-10
1.60759e-08
2.2121e-10
1.59468e-08
2.16148e-10
1.58205e-08
2.11364e-10
1.56971e-08
2.06538e-10
1.55764e-08
2.01992e-10
1.54585e-08
1.97373e-10
1.5343e-08
1.93041e-10
1.52303e-08
1.88607e-10
1.512e-08
1.8447e-10
1.50123e-08
1.80204e-10
1.49068e-08
1.76251e-10
1.48039e-08
1.72139e-10
1.47032e-08
1.6837e-10
1.4605e-08
1.64408e-10
1.45087e-08
1.60829e-10
1.4415e-08
1.57026e-10
1.4323e-08
1.53651e-10
1.42336e-08
1.50022e-10
1.41457e-08
1.46888e-10
1.40603e-08
1.43451e-10
1.39762e-08
1.40609e-10
1.38947e-08
1.37425e-10
1.38141e-08
1.34935e-10
1.3736e-08
1.32064e-10
1.36585e-08
1.30047e-10
1.35834e-08
1.27621e-10
1.35085e-08
1.26148e-10
1.34356e-08
1.24636e-10
1.33624e-08
1.23921e-10
1.26163e-10
4.47472e-08
2.29283e-09
-4.46932e-08
4.50641e-08
2.88632e-09
4.54661e-08
3.47716e-09
4.57787e-08
3.78644e-09
4.60194e-08
3.85673e-09
4.6215e-08
3.80619e-09
4.63437e-08
3.69538e-09
4.63787e-08
3.52059e-09
4.63099e-08
3.28874e-09
4.61513e-08
3.03092e-09
4.59285e-08
2.78479e-09
4.56622e-08
2.57658e-09
4.53638e-08
2.40936e-09
4.50376e-08
2.2755e-09
4.46892e-08
2.16582e-09
4.43231e-08
2.07333e-09
4.39423e-08
1.99264e-09
4.35485e-08
1.91969e-09
4.31431e-08
1.85178e-09
4.27274e-08
1.78727e-09
4.23028e-08
1.72532e-09
4.18707e-08
1.6655e-09
4.14327e-08
1.60769e-09
4.09901e-08
1.55188e-09
4.05446e-08
1.49812e-09
4.00975e-08
1.44644e-09
3.96502e-08
1.39687e-09
3.92037e-08
1.34939e-09
3.87592e-08
1.30399e-09
3.83177e-08
1.26054e-09
3.78799e-08
1.21901e-09
3.74467e-08
1.17924e-09
3.70185e-08
1.14119e-09
3.6596e-08
1.10472e-09
3.61796e-08
1.06979e-09
3.57696e-08
1.03627e-09
3.53665e-08
1.00415e-09
3.49704e-08
9.733e-10
3.45815e-08
9.43748e-10
3.42e-08
9.15346e-10
3.38258e-08
8.88154e-10
3.34592e-08
8.62009e-10
3.31e-08
8.36999e-10
3.27483e-08
8.1294e-10
3.24039e-08
7.89947e-10
3.20669e-08
7.67811e-10
3.1737e-08
7.46677e-10
3.14143e-08
7.26308e-10
3.10985e-08
7.06877e-10
3.07895e-08
6.8812e-10
3.04872e-08
6.7024e-10
3.01915e-08
6.52942e-10
2.9902e-08
6.3647e-10
2.96188e-08
6.20485e-10
2.93416e-08
6.05285e-10
2.90703e-08
5.90473e-10
2.88046e-08
5.76416e-10
2.85446e-08
5.6265e-10
2.829e-08
5.49612e-10
2.80406e-08
5.36777e-10
2.77964e-08
5.24647e-10
2.75572e-08
5.12632e-10
2.73227e-08
5.01318e-10
2.70932e-08
4.90017e-10
2.68681e-08
4.79433e-10
2.66476e-08
4.68754e-10
2.64314e-08
4.58818e-10
2.62197e-08
4.4868e-10
2.6012e-08
4.39321e-10
2.58086e-08
4.29649e-10
2.5609e-08
4.2081e-10
2.54136e-08
4.11531e-10
2.52218e-08
4.03166e-10
2.50341e-08
3.94213e-10
2.48498e-08
3.8628e-10
2.46696e-08
3.77599e-10
2.44926e-08
3.7007e-10
2.43196e-08
3.61611e-10
2.41496e-08
3.54468e-10
2.39836e-08
3.46189e-10
2.38204e-08
3.39428e-10
2.36613e-08
3.31286e-10
2.35047e-08
3.24924e-10
2.33522e-08
3.16893e-10
2.32021e-08
3.10955e-10
2.30561e-08
3.03025e-10
2.29122e-08
2.97556e-10
2.27725e-08
2.89722e-10
2.26346e-08
2.84807e-10
2.2501e-08
2.77077e-10
2.23688e-08
2.72812e-10
2.22409e-08
2.65262e-10
2.21141e-08
2.6176e-10
2.19917e-08
2.54493e-10
2.18698e-08
2.51914e-10
2.17522e-08
2.45201e-10
2.16348e-08
2.43605e-10
2.15211e-08
2.38285e-10
2.14071e-08
2.37948e-10
2.36245e-10
4.96967e-08
2.23091e-09
-4.96348e-08
4.99134e-08
2.66962e-09
5.02691e-08
3.1215e-09
5.0611e-08
3.44455e-09
5.08933e-08
3.57436e-09
5.11327e-08
3.56682e-09
5.13412e-08
3.48686e-09
5.1503e-08
3.35877e-09
5.16012e-08
3.19055e-09
5.16343e-08
2.99781e-09
5.16156e-08
2.80358e-09
5.15629e-08
2.62919e-09
5.14872e-08
2.4851e-09
5.13925e-08
2.37019e-09
5.12818e-08
2.2765e-09
5.11576e-08
2.19753e-09
5.10215e-08
2.1288e-09
5.0874e-08
2.06713e-09
5.07154e-08
2.01039e-09
5.05456e-08
1.95709e-09
5.03645e-08
1.90637e-09
5.01724e-08
1.85765e-09
4.99694e-08
1.8107e-09
4.97559e-08
1.76532e-09
4.95325e-08
1.72152e-09
4.92997e-08
1.67921e-09
4.90582e-08
1.63845e-09
4.88084e-08
1.59913e-09
4.85511e-08
1.56129e-09
4.82869e-08
1.52477e-09
4.80163e-08
1.4896e-09
4.774e-08
1.45558e-09
4.74584e-08
1.42276e-09
4.71722e-08
1.39091e-09
4.68819e-08
1.36014e-09
4.65879e-08
1.3302e-09
4.62908e-08
1.30124e-09
4.59911e-08
1.273e-09
4.56892e-08
1.24568e-09
4.53856e-08
1.219e-09
4.50805e-08
1.19319e-09
4.47746e-08
1.16795e-09
4.4468e-08
1.14356e-09
4.41613e-08
1.11967e-09
4.38546e-08
1.09664e-09
4.35484e-08
1.07402e-09
4.32428e-08
1.05226e-09
4.29383e-08
1.03085e-09
4.26349e-08
1.01028e-09
4.2333e-08
9.89998e-10
4.20327e-08
9.70565e-10
4.17343e-08
9.51324e-10
4.14378e-08
9.32951e-10
4.11436e-08
9.14673e-10
4.08516e-08
8.97294e-10
4.05622e-08
8.79894e-10
4.02752e-08
8.6344e-10
3.9991e-08
8.46841e-10
3.97093e-08
8.31239e-10
3.94307e-08
8.15368e-10
3.91548e-08
8.00553e-10
3.88821e-08
7.85331e-10
3.86122e-08
7.71252e-10
3.83456e-08
7.56594e-10
3.80819e-08
7.43202e-10
3.78216e-08
7.29034e-10
3.75641e-08
7.16275e-10
3.73103e-08
7.02528e-10
3.70592e-08
6.90355e-10
3.68119e-08
6.76962e-10
3.65674e-08
6.65341e-10
3.63267e-08
6.52223e-10
3.60887e-08
6.41133e-10
3.58547e-08
6.28217e-10
3.56234e-08
6.17637e-10
3.53961e-08
6.0486e-10
3.51714e-08
5.9478e-10
3.49509e-08
5.82082e-10
3.47329e-08
5.72505e-10
3.45193e-08
5.59829e-10
3.43079e-08
5.50777e-10
3.41011e-08
5.38063e-10
3.38965e-08
5.29579e-10
3.36966e-08
5.16792e-10
3.34986e-08
5.08929e-10
3.33056e-08
4.96052e-10
3.31142e-08
4.88889e-10
3.29281e-08
4.75917e-10
3.27433e-08
4.69571e-10
3.25638e-08
4.56529e-10
3.23855e-08
4.51132e-10
3.22126e-08
4.38147e-10
3.20406e-08
4.33828e-10
3.1874e-08
4.21089e-10
3.17078e-08
4.18045e-10
3.15471e-08
4.05965e-10
3.13864e-08
4.0431e-10
3.12307e-08
3.93904e-10
3.10746e-08
3.94132e-10
3.86804e-10
5.51392e-08
2.15615e-09
-5.50644e-08
5.53086e-08
2.50023e-09
5.55938e-08
2.83625e-09
5.59101e-08
3.12828e-09
5.61943e-08
3.29015e-09
5.64331e-08
3.32805e-09
5.66383e-08
3.28161e-09
5.68107e-08
3.18641e-09
5.69408e-08
3.06043e-09
5.70238e-08
2.91484e-09
5.70648e-08
2.76255e-09
5.70763e-08
2.6177e-09
5.70698e-08
2.4916e-09
5.70517e-08
2.38828e-09
5.70249e-08
2.30336e-09
5.6991e-08
2.23135e-09
5.69515e-08
2.16835e-09
5.69069e-08
2.11169e-09
5.68575e-08
2.05979e-09
5.68032e-08
2.01144e-09
5.67436e-08
1.96596e-09
5.66785e-08
1.92275e-09
5.66076e-08
1.88158e-09
5.65308e-08
1.84211e-09
5.6448e-08
1.80436e-09
5.63591e-08
1.76809e-09
5.62642e-08
1.7334e-09
5.61632e-08
1.70007e-09
5.60563e-08
1.66823e-09
5.59435e-08
1.63758e-09
5.58248e-08
1.60829e-09
5.57004e-08
1.57999e-09
5.55702e-08
1.5529e-09
5.54345e-08
1.52661e-09
5.52933e-08
1.50138e-09
5.51467e-08
1.47679e-09
5.49948e-08
1.45316e-09
5.48378e-08
1.43002e-09
5.46756e-08
1.40779e-09
5.45087e-08
1.38591e-09
5.4337e-08
1.36491e-09
5.41608e-08
1.34414e-09
5.39801e-08
1.32425e-09
5.37953e-08
1.30448e-09
5.36064e-08
1.2856e-09
5.34137e-08
1.26673e-09
5.32171e-08
1.24878e-09
5.30173e-08
1.23072e-09
5.28139e-08
1.21362e-09
5.26076e-08
1.19628e-09
5.23983e-08
1.17996e-09
5.21863e-08
1.16325e-09
5.19716e-08
1.14764e-09
5.17548e-08
1.1315e-09
5.15356e-08
1.11655e-09
5.13146e-08
1.10087e-09
5.10915e-08
1.08652e-09
5.08671e-08
1.07125e-09
5.06409e-08
1.05744e-09
5.04138e-08
1.0425e-09
5.01851e-08
1.02919e-09
4.9956e-08
1.0145e-09
4.97256e-08
1.00166e-09
4.9495e-08
9.87149e-10
4.92635e-08
9.74753e-10
4.90321e-08
9.60345e-10
4.88001e-08
9.48356e-10
4.85686e-08
9.3399e-10
4.83366e-08
9.22383e-10
4.81055e-08
9.08002e-10
4.78741e-08
8.96768e-10
4.7644e-08
8.8229e-10
4.74137e-08
8.71437e-10
4.71852e-08
8.56785e-10
4.69565e-08
8.4631e-10
4.67299e-08
8.3143e-10
4.65033e-08
8.21349e-10
4.62792e-08
8.06185e-10
4.60552e-08
7.96526e-10
4.5834e-08
7.81018e-10
4.5613e-08
7.71826e-10
4.53951e-08
7.55921e-10
4.51774e-08
7.47265e-10
4.49633e-08
7.30943e-10
4.47493e-08
7.22894e-10
4.45392e-08
7.06158e-10
4.43293e-08
6.98819e-10
4.41235e-08
6.81694e-10
4.39179e-08
6.75202e-10
4.37167e-08
6.57757e-10
4.35155e-08
6.52269e-10
4.3319e-08
6.34704e-10
4.31224e-08
6.3037e-10
4.29306e-08
6.12944e-10
4.27386e-08
6.10054e-10
4.25513e-08
5.93253e-10
4.23635e-08
5.92077e-10
4.21805e-08
5.76884e-10
4.19966e-08
5.78043e-10
5.65689e-10
6.11289e-08
2.07679e-09
-6.10495e-08
6.12755e-08
2.35362e-09
6.14982e-08
2.61356e-09
6.1773e-08
2.85351e-09
6.20407e-08
3.02242e-09
6.22757e-08
3.09307e-09
6.24735e-08
3.08375e-09
6.26383e-08
3.02166e-09
6.27696e-08
2.9291e-09
6.2865e-08
2.8194e-09
6.29258e-08
2.70175e-09
6.29586e-08
2.58494e-09
6.29727e-08
2.47751e-09
6.29761e-08
2.3849e-09
6.29725e-08
2.30692e-09
6.2964e-08
2.23992e-09
6.29516e-08
2.18072e-09
6.29364e-08
2.12691e-09
6.29189e-08
2.07729e-09
6.28994e-08
2.03084e-09
6.28782e-08
1.98724e-09
6.28551e-08
1.94587e-09
6.28299e-08
1.9067e-09
6.28028e-08
1.86927e-09
6.27734e-08
1.83369e-09
6.27419e-08
1.79959e-09
6.27081e-08
1.7672e-09
6.26721e-08
1.73611e-09
6.26337e-08
1.70666e-09
6.25929e-08
1.67833e-09
6.25497e-08
1.65155e-09
6.2504e-08
1.62569e-09
6.24556e-08
1.60126e-09
6.24046e-08
1.57756e-09
6.23508e-08
1.55518e-09
6.22943e-08
1.53333e-09
6.22347e-08
1.51273e-09
6.21723e-08
1.49248e-09
6.21066e-08
1.47343e-09
6.2038e-08
1.45457e-09
6.1966e-08
1.43691e-09
6.18909e-08
1.41924e-09
6.18123e-08
1.40282e-09
6.17306e-08
1.38621e-09
6.16453e-08
1.37089e-09
6.15568e-08
1.3552e-09
6.14647e-08
1.34088e-09
6.13694e-08
1.326e-09
6.12705e-08
1.31257e-09
6.11684e-08
1.29838e-09
6.10626e-08
1.28574e-09
6.09537e-08
1.27212e-09
6.08412e-08
1.26019e-09
6.07257e-08
1.24703e-09
6.06065e-08
1.23574e-09
6.04844e-08
1.22292e-09
6.03587e-08
1.2122e-09
6.02303e-08
1.19964e-09
6.00984e-08
1.18939e-09
5.99639e-08
1.17699e-09
5.98259e-08
1.16716e-09
5.96856e-08
1.15481e-09
5.95419e-08
1.14537e-09
5.93961e-08
1.13298e-09
5.92469e-08
1.12389e-09
5.90959e-08
1.11135e-09
5.89417e-08
1.10256e-09
5.87859e-08
1.0898e-09
5.8627e-08
1.08126e-09
5.84668e-08
1.06821e-09
5.83037e-08
1.05992e-09
5.81395e-08
1.04648e-09
5.79725e-08
1.03844e-09
5.78047e-08
1.02452e-09
5.76344e-08
1.0167e-09
5.74635e-08
1.00223e-09
5.72902e-08
9.94654e-10
5.71168e-08
9.79593e-10
5.69411e-08
9.72275e-10
5.67655e-08
9.56558e-10
5.65878e-08
9.49532e-10
5.64107e-08
9.33092e-10
5.62315e-08
9.26422e-10
5.60532e-08
9.0928e-10
5.58731e-08
9.03019e-10
5.5694e-08
8.85204e-10
5.55134e-08
8.79453e-10
5.53341e-08
8.61007e-10
5.51534e-08
8.55902e-10
5.49742e-08
8.3693e-10
5.47938e-08
8.32639e-10
5.46151e-08
8.13417e-10
5.44354e-08
8.10105e-10
5.42574e-08
7.90909e-10
5.40785e-08
7.88998e-10
5.39014e-08
7.70333e-10
5.37233e-08
7.70199e-10
5.35472e-08
7.52978e-10
5.337e-08
7.55241e-10
7.41069e-10
6.77289e-08
1.99852e-09
-6.76506e-08
6.78576e-08
2.22486e-09
6.8038e-08
2.4332e-09
6.82659e-08
2.62556e-09
6.85061e-08
2.78231e-09
6.87294e-08
2.86976e-09
6.89211e-08
2.89203e-09
6.90793e-08
2.86341e-09
6.92068e-08
2.80168e-09
6.9305e-08
2.72113e-09
6.93751e-08
2.63167e-09
6.94201e-08
2.53997e-09
6.94457e-08
2.45189e-09
6.94589e-08
2.37169e-09
6.94644e-08
2.30138e-09
6.94647e-08
2.23968e-09
6.94609e-08
2.18452e-09
6.9454e-08
2.13377e-09
6.94448e-08
2.08647e-09
6.9434e-08
2.04167e-09
6.94219e-08
1.99934e-09
6.94089e-08
1.95891e-09
6.93949e-08
1.92063e-09
6.93803e-08
1.88391e-09
6.93649e-08
1.8491e-09
6.93489e-08
1.8156e-09
6.93322e-08
1.78389e-09
6.9315e-08
1.75329e-09
6.92972e-08
1.72443e-09
6.9279e-08
1.69653e-09
6.92603e-08
1.67031e-09
6.92411e-08
1.64487e-09
6.92213e-08
1.62106e-09
6.9201e-08
1.59783e-09
6.918e-08
1.57618e-09
6.91585e-08
1.55489e-09
6.9136e-08
1.53517e-09
6.91129e-08
1.51561e-09
6.90887e-08
1.49761e-09
6.90637e-08
1.47956e-09
6.90375e-08
1.46313e-09
6.90103e-08
1.44642e-09
6.89818e-08
1.4314e-09
6.89521e-08
1.41587e-09
6.89208e-08
1.40214e-09
6.88884e-08
1.38766e-09
6.88542e-08
1.37509e-09
6.88186e-08
1.36155e-09
6.87811e-08
1.35003e-09
6.87422e-08
1.33729e-09
6.87012e-08
1.32673e-09
6.86587e-08
1.31464e-09
6.8614e-08
1.30495e-09
6.85676e-08
1.2934e-09
6.85188e-08
1.28449e-09
6.84684e-08
1.27335e-09
6.84155e-08
1.26514e-09
6.83608e-08
1.25431e-09
6.83035e-08
1.24669e-09
6.82444e-08
1.23607e-09
6.81826e-08
1.22896e-09
6.8119e-08
1.21841e-09
6.80526e-08
1.21178e-09
6.79844e-08
1.20118e-09
6.79133e-08
1.19498e-09
6.78404e-08
1.18424e-09
6.77646e-08
1.17839e-09
6.7687e-08
1.16742e-09
6.76064e-08
1.16182e-09
6.75241e-08
1.15053e-09
6.74389e-08
1.14517e-09
6.73519e-08
1.13345e-09
6.7262e-08
1.12836e-09
6.71704e-08
1.1161e-09
6.70759e-08
1.11117e-09
6.69799e-08
1.09831e-09
6.6881e-08
1.09351e-09
6.67806e-08
1.08002e-09
6.66775e-08
1.07538e-09
6.65729e-08
1.06118e-09
6.64657e-08
1.05673e-09
6.6357e-08
1.04172e-09
6.6246e-08
1.03743e-09
6.61336e-08
1.02172e-09
6.6019e-08
1.0176e-09
6.5903e-08
1.00121e-09
6.57851e-08
9.97401e-10
6.56657e-08
9.80345e-10
6.55447e-08
9.76957e-10
6.54222e-08
9.59374e-10
6.52984e-08
9.56509e-10
6.5173e-08
9.38778e-10
6.50465e-08
9.3665e-10
6.49184e-08
9.18923e-10
6.47893e-08
9.18118e-10
6.46587e-08
9.00977e-10
6.45272e-08
9.01699e-10
6.43941e-08
8.86028e-10
6.42602e-08
8.89156e-10
8.76672e-10
6.79274e-08
1.93336e-09
-6.78622e-08
6.80286e-08
2.12363e-09
6.81657e-08
2.29617e-09
6.83357e-08
2.4555e-09
6.85249e-08
2.59311e-09
6.87103e-08
2.68442e-09
6.88766e-08
2.72566e-09
6.90172e-08
2.72287e-09
6.91315e-08
2.6874e-09
6.92215e-08
2.63107e-09
6.92893e-08
2.56384e-09
6.93372e-08
2.49217e-09
6.93682e-08
2.42088e-09
6.93868e-08
2.35303e-09
6.93972e-08
2.291e-09
6.94021e-08
2.23483e-09
6.94027e-08
2.18383e-09
6.94003e-08
2.13626e-09
6.93952e-08
2.09151e-09
6.93883e-08
2.04857e-09
6.938e-08
2.00768e-09
6.93706e-08
1.96825e-09
6.93605e-08
1.93078e-09
6.93498e-08
1.89462e-09
6.93386e-08
1.86033e-09
6.9327e-08
1.82712e-09
6.93152e-08
1.79572e-09
6.93033e-08
1.76521e-09
6.92912e-08
1.73648e-09
6.92793e-08
1.70849e-09
6.92673e-08
1.68229e-09
6.92555e-08
1.65666e-09
6.92438e-08
1.63281e-09
6.92322e-08
1.60935e-09
6.92207e-08
1.58767e-09
6.92095e-08
1.56617e-09
6.91982e-08
1.54644e-09
6.91871e-08
1.52669e-09
6.9176e-08
1.50877e-09
6.91649e-08
1.49057e-09
6.91538e-08
1.47429e-09
6.91427e-08
1.4575e-09
6.91314e-08
1.44273e-09
6.912e-08
1.42719e-09
6.91084e-08
1.4138e-09
6.90967e-08
1.39939e-09
6.90845e-08
1.38726e-09
6.90722e-08
1.37387e-09
6.90593e-08
1.36289e-09
6.90462e-08
1.35038e-09
6.90325e-08
1.34048e-09
6.90184e-08
1.3287e-09
6.90036e-08
1.31977e-09
6.89884e-08
1.3086e-09
6.89723e-08
1.30056e-09
6.89558e-08
1.28989e-09
6.89383e-08
1.28265e-09
6.89202e-08
1.27239e-09
6.8901e-08
1.26583e-09
6.88812e-08
1.25587e-09
6.88603e-08
1.24992e-09
6.88386e-08
1.24011e-09
6.88156e-08
1.23472e-09
6.87919e-08
1.22494e-09
6.87668e-08
1.22007e-09
6.87408e-08
1.21024e-09
6.87134e-08
1.20577e-09
6.8685e-08
1.19584e-09
6.86552e-08
1.19163e-09
6.86242e-08
1.18148e-09
6.85918e-08
1.17756e-09
6.85583e-08
1.16703e-09
6.85232e-08
1.16344e-09
6.84868e-08
1.15247e-09
6.8449e-08
1.14903e-09
6.84097e-08
1.13759e-09
6.8369e-08
1.13419e-09
6.83268e-08
1.12226e-09
6.82831e-08
1.11899e-09
6.82379e-08
1.10642e-09
6.81913e-08
1.10336e-09
6.81429e-08
1.09006e-09
6.80933e-08
1.087e-09
6.80418e-08
1.07322e-09
6.79893e-08
1.07019e-09
6.79346e-08
1.05581e-09
6.7879e-08
1.05306e-09
6.78212e-08
1.03811e-09
6.77625e-08
1.03565e-09
6.77015e-08
1.02036e-09
6.76399e-08
1.01817e-09
6.75757e-08
1.00294e-09
6.75109e-08
1.00147e-09
6.74436e-08
9.86193e-10
6.73757e-08
9.86009e-10
6.73051e-08
9.71665e-10
6.72341e-08
9.72678e-10
6.71603e-08
9.59769e-10
6.70859e-08
9.63618e-10
9.53465e-10
7.51812e-08
1.87114e-09
-7.5119e-08
7.52716e-08
2.03327e-09
7.53897e-08
2.17808e-09
7.55331e-08
2.3121e-09
7.56957e-08
2.43053e-09
7.58603e-08
2.51983e-09
7.60141e-08
2.57183e-09
7.61485e-08
2.58841e-09
7.62603e-08
2.57563e-09
7.635e-08
2.54144e-09
7.64196e-08
2.49424e-09
7.64715e-08
2.44025e-09
7.65082e-08
2.38419e-09
7.65326e-08
2.32857e-09
7.6548e-08
2.2756e-09
7.65571e-08
2.22579e-09
7.65614e-08
2.17949e-09
7.65621e-08
2.13556e-09
7.65598e-08
2.09377e-09
7.65553e-08
2.05315e-09
7.65488e-08
2.0141e-09
7.65411e-08
1.976e-09
7.65323e-08
1.93958e-09
7.65228e-08
1.90412e-09
7.65127e-08
1.87043e-09
7.65022e-08
1.83759e-09
7.64914e-08
1.8065e-09
7.64805e-08
1.77609e-09
7.64696e-08
1.74746e-09
7.64587e-08
1.71937e-09
7.64479e-08
1.69309e-09
7.64373e-08
1.66722e-09
7.6427e-08
1.64319e-09
7.64169e-08
1.61941e-09
7.64071e-08
1.59749e-09
7.63976e-08
1.57563e-09
7.63884e-08
1.55566e-09
7.63795e-08
1.53554e-09
7.63709e-08
1.51739e-09
7.63627e-08
1.49884e-09
7.63546e-08
1.48236e-09
7.63469e-08
1.46524e-09
7.63393e-08
1.4503e-09
7.6332e-08
1.43447e-09
7.63249e-08
1.42095e-09
7.6318e-08
1.4063e-09
7.63111e-08
1.39407e-09
7.63045e-08
1.38048e-09
7.6298e-08
1.36946e-09
7.62915e-08
1.3568e-09
7.62851e-08
1.3469e-09
7.62788e-08
1.33502e-09
7.62724e-08
1.32615e-09
7.62661e-08
1.31495e-09
7.62596e-08
1.307e-09
7.62531e-08
1.29637e-09
7.62466e-08
1.28924e-09
7.62398e-08
1.27912e-09
7.62329e-08
1.2727e-09
7.62259e-08
1.26296e-09
7.62186e-08
1.2572e-09
7.6211e-08
1.24766e-09
7.62032e-08
1.24253e-09
7.61951e-08
1.23309e-09
7.61866e-08
1.2285e-09
7.61778e-08
1.21913e-09
7.61686e-08
1.21493e-09
7.61588e-08
1.2056e-09
7.61488e-08
1.20165e-09
7.61381e-08
1.1922e-09
7.6127e-08
1.18861e-09
7.61153e-08
1.17881e-09
7.61031e-08
1.17557e-09
7.60901e-08
1.16551e-09
7.60767e-08
1.16237e-09
7.60623e-08
1.15202e-09
7.60476e-08
1.14885e-09
7.60318e-08
1.13814e-09
7.60156e-08
1.13513e-09
7.59982e-08
1.12383e-09
7.59805e-08
1.1211e-09
7.59613e-08
1.10927e-09
7.59419e-08
1.10634e-09
7.59209e-08
1.09429e-09
7.58997e-08
1.09137e-09
7.58767e-08
1.07875e-09
7.58536e-08
1.07619e-09
7.58286e-08
1.06313e-09
7.58034e-08
1.06079e-09
7.57761e-08
1.04768e-09
7.57489e-08
1.04542e-09
7.57193e-08
1.03251e-09
7.56896e-08
1.03122e-09
7.56576e-08
1.01819e-09
7.56255e-08
1.01803e-09
7.55907e-08
1.00647e-09
7.5556e-08
1.00744e-09
7.55186e-08
9.97098e-10
7.54811e-08
1.00116e-09
9.93231e-10
8.31887e-08
1.81322e-09
-8.31308e-08
8.32687e-08
1.95327e-09
8.33702e-08
2.07658e-09
8.34912e-08
2.19115e-09
8.36282e-08
2.29346e-09
8.37702e-08
2.37786e-09
8.39071e-08
2.43493e-09
8.4031e-08
2.46447e-09
8.41373e-08
2.4694e-09
8.42245e-08
2.45421e-09
8.42938e-08
2.42496e-09
8.43472e-08
2.38679e-09
8.43871e-08
2.34431e-09
8.44157e-08
2.3e-09
8.44352e-08
2.25604e-09
8.4448e-08
2.21303e-09
8.44556e-08
2.17185e-09
8.44593e-08
2.13189e-09
8.44597e-08
2.09335e-09
8.44575e-08
2.05537e-09
8.44531e-08
2.01848e-09
8.44471e-08
1.98203e-09
8.44398e-08
1.94689e-09
8.44315e-08
1.91236e-09
8.44226e-08
1.87939e-09
8.44131e-08
1.84703e-09
8.44033e-08
1.81632e-09
8.43933e-08
1.78611e-09
8.43832e-08
1.75761e-09
8.4373e-08
1.72951e-09
8.4363e-08
1.70316e-09
8.4353e-08
1.67713e-09
8.43433e-08
1.65289e-09
8.43339e-08
1.62885e-09
8.43247e-08
1.60666e-09
8.43159e-08
1.58448e-09
8.43073e-08
1.56421e-09
8.42991e-08
1.54375e-09
8.42912e-08
1.52528e-09
8.42837e-08
1.50639e-09
8.42764e-08
1.4896e-09
8.42695e-08
1.47215e-09
8.42629e-08
1.4569e-09
8.42566e-08
1.44079e-09
8.42506e-08
1.42695e-09
8.42449e-08
1.41206e-09
8.42394e-08
1.39953e-09
8.42342e-08
1.38572e-09
8.42292e-08
1.37442e-09
8.42244e-08
1.36157e-09
8.42199e-08
1.35142e-09
8.42155e-08
1.33939e-09
8.42114e-08
1.33028e-09
8.42074e-08
1.31897e-09
8.42036e-08
1.31079e-09
8.41998e-08
1.30012e-09
8.41963e-08
1.29274e-09
8.41928e-08
1.28264e-09
8.41895e-08
1.27598e-09
8.41862e-08
1.2663e-09
8.41831e-08
1.26034e-09
8.41798e-08
1.25089e-09
8.41768e-08
1.24557e-09
8.41736e-08
1.2363e-09
8.41706e-08
1.23148e-09
8.41673e-08
1.22238e-09
8.41644e-08
1.21791e-09
8.4161e-08
1.20896e-09
8.41579e-08
1.20476e-09
8.41544e-08
1.1957e-09
8.41511e-08
1.19191e-09
8.41474e-08
1.18254e-09
8.41439e-08
1.17908e-09
8.41398e-08
1.16959e-09
8.4136e-08
1.16616e-09
8.41315e-08
1.15653e-09
8.41273e-08
1.15305e-09
8.41223e-08
1.14309e-09
8.41176e-08
1.13985e-09
8.41121e-08
1.12931e-09
8.41069e-08
1.12636e-09
8.41006e-08
1.11551e-09
8.40948e-08
1.11222e-09
8.40878e-08
1.10128e-09
8.4081e-08
1.09811e-09
8.40732e-08
1.08656e-09
8.40656e-08
1.08382e-09
8.40567e-08
1.07198e-09
8.40481e-08
1.06941e-09
8.4038e-08
1.05776e-09
8.40282e-08
1.05523e-09
8.4017e-08
1.04373e-09
8.40057e-08
1.04253e-09
8.3993e-08
1.03094e-09
8.39804e-08
1.03061e-09
8.3966e-08
1.02088e-09
8.39515e-08
1.02195e-09
8.39354e-08
1.01312e-09
8.39194e-08
1.01719e-09
1.01069e-09
9.2031e-08
1.76157e-09
-9.19793e-08
9.20999e-08
1.8844e-09
9.21854e-08
1.9911e-09
9.22858e-08
2.09071e-09
9.23985e-08
2.18076e-09
9.25175e-08
2.25881e-09
9.2635e-08
2.3175e-09
9.27445e-08
2.35491e-09
9.28415e-08
2.37242e-09
9.29235e-08
2.37223e-09
9.29902e-08
2.35827e-09
9.30429e-08
2.33411e-09
9.30834e-08
2.30376e-09
9.31138e-08
2.26962e-09
9.31358e-08
2.23401e-09
9.31512e-08
2.19766e-09
9.31614e-08
2.16167e-09
9.31675e-08
2.1258e-09
9.31702e-08
2.09058e-09
9.31702e-08
2.05536e-09
9.3168e-08
2.02077e-09
9.31638e-08
1.98618e-09
9.31582e-08
1.95251e-09
9.31515e-08
1.91909e-09
9.31439e-08
1.88695e-09
9.31357e-08
1.85518e-09
9.31272e-08
1.8249e-09
9.31183e-08
1.79499e-09
9.31093e-08
1.76664e-09
9.31001e-08
1.73863e-09
9.3091e-08
1.71225e-09
9.3082e-08
1.68614e-09
9.30732e-08
1.66174e-09
9.30645e-08
1.63752e-09
9.30561e-08
1.61506e-09
9.3048e-08
1.59264e-09
9.30401e-08
1.57207e-09
9.30325e-08
1.55133e-09
9.30253e-08
1.53254e-09
9.30183e-08
1.51337e-09
9.30116e-08
1.49624e-09
9.30053e-08
1.47853e-09
9.29992e-08
1.46294e-09
9.29934e-08
1.44658e-09
9.2988e-08
1.4324e-09
9.29827e-08
1.4173e-09
9.29778e-08
1.40443e-09
9.29731e-08
1.39044e-09
9.29687e-08
1.37882e-09
9.29645e-08
1.36579e-09
9.29606e-08
1.35534e-09
9.29568e-08
1.34317e-09
9.29533e-08
1.33376e-09
9.295e-08
1.32235e-09
9.29469e-08
1.31386e-09
9.29439e-08
1.30314e-09
9.29412e-08
1.29543e-09
9.29385e-08
1.28533e-09
9.29361e-08
1.27835e-09
9.29338e-08
1.26867e-09
9.29317e-08
1.26243e-09
9.29295e-08
1.25301e-09
9.29277e-08
1.24741e-09
9.29258e-08
1.23822e-09
9.29242e-08
1.23309e-09
9.29224e-08
1.22413e-09
9.2921e-08
1.21933e-09
9.29194e-08
1.21056e-09
9.29181e-08
1.20605e-09
9.29166e-08
1.19718e-09
9.29154e-08
1.19312e-09
9.2914e-08
1.18398e-09
9.29129e-08
1.1802e-09
9.29114e-08
1.17101e-09
9.29104e-08
1.16724e-09
9.29089e-08
1.15798e-09
9.29078e-08
1.15419e-09
9.29063e-08
1.1446e-09
9.2905e-08
1.14111e-09
9.29034e-08
1.13094e-09
9.2902e-08
1.12771e-09
9.29002e-08
1.11738e-09
9.28986e-08
1.11379e-09
9.28965e-08
1.10337e-09
9.28946e-08
1.10002e-09
9.28922e-08
1.08899e-09
9.28899e-08
1.08609e-09
9.2887e-08
1.07487e-09
9.28843e-08
1.07213e-09
9.28808e-08
1.06122e-09
9.28774e-08
1.05863e-09
9.28734e-08
1.04776e-09
9.28692e-08
1.04669e-09
9.28643e-08
1.03592e-09
9.28593e-08
1.03553e-09
9.28535e-08
1.02668e-09
9.28474e-08
1.02804e-09
9.28406e-08
1.01992e-09
9.28338e-08
1.02401e-09
1.01822e-09
1.01797e-07
1.7178e-09
-1.01753e-07
1.01854e-07
1.82764e-09
1.01923e-07
1.92182e-09
1.02003e-07
2.01021e-09
1.02093e-07
2.09108e-09
1.02189e-07
2.16292e-09
1.02285e-07
2.2213e-09
1.02377e-07
2.26301e-09
1.02461e-07
2.28877e-09
1.02533e-07
2.29947e-09
1.02594e-07
2.29748e-09
1.02643e-07
2.28503e-09
1.02682e-07
2.26515e-09
1.02712e-07
2.23993e-09
1.02734e-07
2.21168e-09
1.0275e-07
2.18132e-09
1.02762e-07
2.15013e-09
1.0277e-07
2.11812e-09
1.02774e-07
2.08606e-09
1.02776e-07
2.0535e-09
1.02776e-07
2.02116e-09
1.02773e-07
1.98845e-09
1.02769e-07
1.95631e-09
1.02764e-07
1.92408e-09
1.02759e-07
1.89283e-09
1.02752e-07