/*--------------------------------*- C++ -*----------------------------------*\
| =========                 |                                                 |
| \\      /  F ield         | OpenFOAM: The Open Source CFD Toolbox           |
|  \\    /   O peration     | Version:  2.3.0                                 |
|   \\  /    A nd           | Web:      www.OpenFOAM.org                      |
|    \\/     M anipulation  |                                                 |
\*---------------------------------------------------------------------------*/
FoamFile
{
    version     2.0;
    format      ascii;
    class       surfaceScalarField;
    location    "0.75";
    object      phi_0;
}
// * * * * * * * * * * * * * * * * * * * * * * * * * * * * * * * * * * * * * //

dimensions      [0 3 -1 0 0 0 0];

internalField   nonuniform List<scalar> 
3859
(
2.88216e-08
2.77031e-09
-3.15919e-08
2.53567e-08
3.46488e-09
2.19151e-08
3.44165e-09
1.87277e-08
3.1874e-09
1.58268e-08
2.90087e-09
1.32905e-08
2.53626e-09
1.12129e-08
2.07769e-09
9.60786e-09
1.605e-09
8.43772e-09
1.17014e-09
7.61659e-09
8.21136e-10
7.04636e-09
5.7023e-10
6.64276e-09
4.03599e-10
6.34354e-09
2.99217e-10
6.10614e-09
2.37401e-10
5.90232e-09
2.0382e-10
5.71582e-09
1.86503e-10
5.53915e-09
1.76671e-10
5.36999e-09
1.69156e-10
5.20841e-09
1.61582e-10
5.05517e-09
1.53242e-10
4.91094e-09
1.44228e-10
4.77603e-09
1.34914e-10
4.65033e-09
1.25697e-10
4.53344e-09
1.16887e-10
4.42476e-09
1.08685e-10
4.32357e-09
1.01191e-10
4.22914e-09
9.44282e-11
4.14077e-09
8.83726e-11
4.0578e-09
8.29694e-11
3.97965e-09
7.81454e-11
3.90582e-09
7.38281e-11
3.83588e-09
6.9944e-11
3.76945e-09
6.64324e-11
3.70621e-09
6.32361e-11
3.6459e-09
6.03118e-11
3.58828e-09
5.76192e-11
3.53315e-09
5.51302e-11
3.48033e-09
5.28172e-11
3.42967e-09
5.06631e-11
3.38102e-09
4.86486e-11
3.33426e-09
4.6764e-11
3.28926e-09
4.49945e-11
3.24593e-09
4.3335e-11
3.20415e-09
4.1773e-11
3.16385e-09
4.03062e-11
3.12492e-09
3.8923e-11
3.0873e-09
3.76227e-11
3.05091e-09
3.63945e-11
3.01567e-09
3.52377e-11
2.98153e-09
3.41434e-11
2.94842e-09
3.31099e-11
2.91629e-09
3.21305e-11
2.88508e-09
3.12026e-11
2.85476e-09
3.03212e-11
2.82528e-09
2.94834e-11
2.79659e-09
2.86852e-11
2.76867e-09
2.79237e-11
2.74147e-09
2.71969e-11
2.71497e-09
2.64993e-11
2.68914e-09
2.58343e-11
2.66395e-09
2.51901e-11
2.63937e-09
2.45786e-11
2.61539e-09
2.39801e-11
2.59198e-09
2.34144e-11
2.56912e-09
2.28549e-11
2.54679e-09
2.23297e-11
2.52499e-09
2.18022e-11
2.50368e-09
2.13138e-11
2.48286e-09
2.08122e-11
2.4625e-09
2.03585e-11
2.44263e-09
1.98778e-11
2.42317e-09
1.94558e-11
2.40418e-09
1.89921e-11
2.38558e-09
1.86008e-11
2.36743e-09
1.8149e-11
2.34964e-09
1.77887e-11
2.3323e-09
1.7345e-11
2.31528e-09
1.70173e-11
2.2987e-09
1.65767e-11
2.28242e-09
1.62853e-11
2.26657e-09
1.58431e-11
2.25098e-09
1.55916e-11
2.23584e-09
1.51443e-11
2.2209e-09
1.49394e-11
2.20642e-09
1.44815e-11
2.19208e-09
1.43341e-11
2.17822e-09
1.38581e-11
2.16444e-09
1.37818e-11
2.15116e-09
1.32823e-11
2.13787e-09
1.32922e-11
2.12511e-09
1.27607e-11
2.11222e-09
1.28871e-11
2.09991e-09
1.23068e-11
2.08733e-09
1.25837e-11
2.07539e-09
1.19431e-11
2.06296e-09
1.24244e-11
2.05128e-09
1.16827e-11
2.03881e-09
1.24729e-11
2.02723e-09
1.15804e-11
1.42294e-11
3.62377e-08
2.47165e-09
-3.5939e-08
3.60723e-08
3.63023e-09
3.53686e-08
4.14537e-09
3.43819e-08
4.1741e-09
3.32253e-08
4.0575e-09
3.19188e-08
3.84275e-09
3.04861e-08
3.51042e-09
2.90039e-08
3.08719e-09
2.75476e-08
2.6264e-09
2.61718e-08
2.19697e-09
2.49003e-08
1.84178e-09
2.37349e-08
1.56893e-09
2.26729e-08
1.36124e-09
2.17127e-08
1.1976e-09
2.08448e-08
1.07172e-09
2.00587e-08
9.7259e-10
1.93443e-08
8.91046e-10
1.86926e-08
8.20892e-10
1.80957e-08
7.58503e-10
1.7547e-08
7.01953e-10
1.70409e-08
6.50282e-10
1.65728e-08
6.03012e-10
1.61386e-08
5.59883e-10
1.57348e-08
5.20695e-10
1.53583e-08
4.85239e-10
1.50062e-08
4.53253e-10
1.46762e-08
4.24464e-10
1.4366e-08
3.98566e-10
1.40737e-08
3.75258e-10
1.37976e-08
3.54228e-10
1.35362e-08
3.35198e-10
1.32883e-08
3.17902e-10
1.30526e-08
3.02122e-10
1.28282e-08
2.87654e-10
1.26141e-08
2.74341e-10
1.24097e-08
2.62033e-10
1.22142e-08
2.50626e-10
1.2027e-08
2.40011e-10
1.18476e-08
2.30119e-10
1.16754e-08
2.20869e-10
1.15099e-08
2.12219e-10
1.13508e-08
2.04103e-10
1.11976e-08
1.96495e-10
1.10501e-08
1.89339e-10
1.09078e-08
1.8262e-10
1.07704e-08
1.76286e-10
1.06377e-08
1.70331e-10
1.05094e-08
1.64704e-10
1.03852e-08
1.59405e-10
1.0265e-08
1.54386e-10
1.01484e-08
1.4965e-10
1.00354e-08
1.45152e-10
9.9257e-09
1.40898e-10
9.81918e-09
1.36846e-10
9.71566e-09
1.33004e-10
9.61501e-09
1.29331e-10
9.51709e-09
1.25843e-10
9.4218e-09
1.22495e-10
9.32899e-09
1.19306e-10
9.23858e-09
1.16239e-10
9.15047e-09
1.13305e-10
9.06457e-09
1.10479e-10
8.98078e-09
1.07765e-10
8.89905e-09
1.05145e-10
8.81929e-09
1.02621e-10
8.74144e-09
1.00181e-10
8.66542e-09
9.78175e-11
8.5912e-09
9.55358e-11
8.5187e-09
9.3309e-11
8.44789e-09
9.11686e-11
8.37871e-09
8.90585e-11
8.31112e-09
8.70426e-11
8.24508e-09
8.50332e-11
8.18055e-09
8.31298e-11
8.1175e-09
8.12044e-11
8.05588e-09
7.94061e-11
7.99567e-09
7.75525e-11
7.93684e-09
7.58552e-11
7.87935e-09
7.40606e-11
7.82317e-09
7.24653e-11
7.7683e-09
7.07197e-11
7.71466e-09
6.92279e-11
7.66228e-09
6.75268e-11
7.61107e-09
6.61471e-11
7.56107e-09
6.44848e-11
7.51217e-09
6.32352e-11
7.46442e-09
6.16057e-11
7.41769e-09
6.05104e-11
7.37205e-09
5.89176e-11
7.32734e-09
5.80023e-11
7.28365e-09
5.64527e-11
7.24076e-09
5.57736e-11
7.19881e-09
5.42668e-11
7.15751e-09
5.38834e-11
7.117e-09
5.24527e-11
7.07697e-09
5.2452e-11
7.03754e-09
5.11098e-11
6.99832e-09
5.16949e-11
6.9593e-09
5.06028e-11
5.4332e-11
4.02782e-08
2.34684e-09
-4.01534e-08
4.07051e-08
3.20326e-09
4.09713e-08
3.87918e-09
4.10464e-08
4.09902e-09
4.10065e-08
4.09742e-09
4.08475e-08
4.00174e-09
4.05338e-08
3.82409e-09
4.00654e-08
3.55561e-09
3.94718e-08
3.21999e-09
3.87965e-08
2.8723e-09
3.80763e-08
2.56196e-09
3.73349e-08
2.3103e-09
3.65853e-08
2.11091e-09
3.58335e-08
1.94932e-09
3.50879e-08
1.8174e-09
3.43532e-08
1.70726e-09
3.36324e-08
1.61181e-09
3.29274e-08
1.52591e-09
3.22395e-08
1.4464e-09
3.15699e-08
1.3716e-09
3.09194e-08
1.3007e-09
3.02891e-08
1.2334e-09
2.96793e-08
1.16961e-09
2.90907e-08
1.10934e-09
2.85233e-08
1.05261e-09
2.79772e-08
9.9935e-10
2.74522e-08
9.49507e-10
2.69478e-08
9.02945e-10
2.64635e-08
8.59513e-10
2.59988e-08
8.19001e-10
2.55527e-08
7.81223e-10
2.51247e-08
7.45952e-10
2.47138e-08
7.13014e-10
2.43193e-08
6.82202e-10
2.39402e-08
6.53371e-10
2.35759e-08
6.26342e-10
2.32255e-08
6.01002e-10
2.28884e-08
5.77195e-10
2.25636e-08
5.5484e-10
2.22507e-08
5.33798e-10
2.19489e-08
5.14014e-10
2.16577e-08
4.95356e-10
2.13764e-08
4.77795e-10
2.11045e-08
4.61203e-10
2.08415e-08
4.45571e-10
2.05871e-08
4.3077e-10
2.03406e-08
4.16812e-10
2.01017e-08
4.03564e-10
1.98701e-08
3.91055e-10
1.96453e-08
3.79153e-10
1.94271e-08
3.67899e-10
1.9215e-08
3.57159e-10
1.9009e-08
3.46991e-10
1.88085e-08
3.37254e-10
1.86135e-08
3.28026e-10
1.84237e-08
3.19154e-10
1.82388e-08
3.1074e-10
1.80587e-08
3.02615e-10
1.78831e-08
2.94903e-10
1.77119e-08
2.87426e-10
1.75449e-08
2.80321e-10
1.7382e-08
2.73404e-10
1.72229e-08
2.66829e-10
1.70676e-08
2.60394e-10
1.6916e-08
2.54282e-10
1.67679e-08
2.48264e-10
1.66232e-08
2.42553e-10
1.64818e-08
2.36897e-10
1.63436e-08
2.31534e-10
1.62086e-08
2.26195e-10
1.60765e-08
2.21136e-10
1.59475e-08
2.16069e-10
1.58212e-08
2.1128e-10
1.56979e-08
2.06449e-10
1.55772e-08
2.01898e-10
1.54593e-08
1.97273e-10
1.53439e-08
1.92936e-10
1.52313e-08
1.88495e-10
1.5121e-08
1.84353e-10
1.50134e-08
1.8008e-10
1.4908e-08
1.76121e-10
1.48052e-08
1.72002e-10
1.47045e-08
1.68227e-10
1.46064e-08
1.64257e-10
1.45102e-08
1.60672e-10
1.44166e-08
1.56861e-10
1.43247e-08
1.53479e-10
1.42354e-08
1.49842e-10
1.41476e-08
1.46701e-10
1.40624e-08
1.43255e-10
1.39784e-08
1.40408e-10
1.3897e-08
1.37214e-10
1.38165e-08
1.34719e-10
1.37386e-08
1.31841e-10
1.36612e-08
1.29819e-10
1.35863e-08
1.27382e-10
1.35115e-08
1.2591e-10
1.34388e-08
1.24387e-10
1.33657e-08
1.23673e-10
1.25891e-10
4.47472e-08
2.29283e-09
-4.46932e-08
4.50641e-08
2.88632e-09
4.54661e-08
3.47716e-09
4.57787e-08
3.78644e-09
4.60194e-08
3.85673e-09
4.6215e-08
3.80618e-09
4.63437e-08
3.69538e-09
4.63787e-08
3.52059e-09
4.63099e-08
3.28874e-09
4.61513e-08
3.03092e-09
4.59285e-08
2.78479e-09
4.56622e-08
2.57658e-09
4.53638e-08
2.40936e-09
4.50376e-08
2.2755e-09
4.46892e-08
2.16582e-09
4.43231e-08
2.07333e-09
4.39423e-08
1.99264e-09
4.35485e-08
1.91969e-09
4.31431e-08
1.85178e-09
4.27274e-08
1.78727e-09
4.23028e-08
1.72531e-09
4.18707e-08
1.66549e-09
4.14327e-08
1.60769e-09
4.09901e-08
1.55187e-09
4.05446e-08
1.49812e-09
4.00975e-08
1.44643e-09
3.96502e-08
1.39687e-09
3.92037e-08
1.34939e-09
3.87593e-08
1.30398e-09
3.83177e-08
1.26053e-09
3.788e-08
1.219e-09
3.74467e-08
1.17923e-09
3.70185e-08
1.14119e-09
3.6596e-08
1.10471e-09
3.61796e-08
1.06978e-09
3.57697e-08
1.03626e-09
3.53665e-08
1.00414e-09
3.49704e-08
9.73288e-10
3.45815e-08
9.43735e-10
3.42e-08
9.15332e-10
3.38259e-08
8.88139e-10
3.34593e-08
8.61993e-10
3.31001e-08
8.36981e-10
3.27483e-08
8.12921e-10
3.2404e-08
7.89926e-10
3.2067e-08
7.67789e-10
3.17371e-08
7.46654e-10
3.14144e-08
7.26282e-10
3.10986e-08
7.06849e-10
3.07897e-08
6.88089e-10
3.04874e-08
6.70208e-10
3.01916e-08
6.52907e-10
2.99022e-08
6.36433e-10
2.9619e-08
6.20445e-10
2.93418e-08
6.05242e-10
2.90705e-08
5.90426e-10
2.88049e-08
5.76365e-10
2.85449e-08
5.62596e-10
2.82902e-08
5.49554e-10
2.8041e-08
5.36714e-10
2.77967e-08
5.24581e-10
2.75575e-08
5.12561e-10
2.73231e-08
5.01242e-10
2.70936e-08
4.89935e-10
2.68685e-08
4.79346e-10
2.66481e-08
4.6866e-10
2.6432e-08
4.58719e-10
2.62203e-08
4.48573e-10
2.60126e-08
4.39208e-10
2.58093e-08
4.29528e-10
2.56097e-08
4.20681e-10
2.54144e-08
4.11394e-10
2.52227e-08
4.0302e-10
2.50351e-08
3.94058e-10
2.48508e-08
3.86116e-10
2.46707e-08
3.77425e-10
2.44937e-08
3.69887e-10
2.43208e-08
3.61416e-10
2.41509e-08
3.54263e-10
2.3985e-08
3.45972e-10
2.38219e-08
3.39198e-10
2.36629e-08
3.31045e-10
2.35065e-08
3.2467e-10
2.33541e-08
3.16625e-10
2.32041e-08
3.10675e-10
2.30582e-08
3.0273e-10
2.29144e-08
2.97248e-10
2.27749e-08
2.894e-10
2.26371e-08
2.8447e-10
2.25036e-08
2.76725e-10
2.23716e-08
2.72449e-10
2.22439e-08
2.64882e-10
2.21173e-08
2.61367e-10
2.1995e-08
2.54086e-10
2.18734e-08
2.51497e-10
2.1756e-08
2.44764e-10
2.16387e-08
2.43164e-10
2.15253e-08
2.37826e-10
2.14115e-08
2.37485e-10
2.35754e-10
4.96967e-08
2.23091e-09
-4.96348e-08
4.99134e-08
2.66962e-09
5.02691e-08
3.1215e-09
5.0611e-08
3.44455e-09
5.08933e-08
3.57436e-09
5.11327e-08
3.56682e-09
5.13412e-08
3.48686e-09
5.1503e-08
3.35877e-09
5.16012e-08
3.19055e-09
5.16343e-08
2.99781e-09
5.16156e-08
2.80358e-09
5.15629e-08
2.62919e-09
5.14872e-08
2.4851e-09
5.13925e-08
2.37019e-09
5.12818e-08
2.2765e-09
5.11576e-08
2.19753e-09
5.10215e-08
2.1288e-09
5.0874e-08
2.06713e-09
5.07154e-08
2.01039e-09
5.05456e-08
1.95709e-09
5.03645e-08
1.90637e-09
5.01724e-08
1.85765e-09
4.99694e-08
1.8107e-09
4.97559e-08
1.76532e-09
4.95325e-08
1.72152e-09
4.92998e-08
1.67921e-09
4.90582e-08
1.63845e-09
4.88084e-08
1.59912e-09
4.85511e-08
1.56128e-09
4.82869e-08
1.52476e-09
4.80163e-08
1.48959e-09
4.774e-08
1.45557e-09
4.74584e-08
1.42275e-09
4.71722e-08
1.3909e-09
4.68819e-08
1.36012e-09
4.6588e-08
1.33019e-09
4.62909e-08
1.30122e-09
4.59912e-08
1.27299e-09
4.56892e-08
1.24566e-09
4.53856e-08
1.21898e-09
4.50806e-08
1.19317e-09
4.47746e-08
1.16793e-09
4.44681e-08
1.14354e-09
4.41614e-08
1.11965e-09
4.38547e-08
1.09661e-09
4.35485e-08
1.07399e-09
4.32429e-08
1.05223e-09
4.29384e-08
1.03081e-09
4.2635e-08
1.01025e-09
4.23331e-08
9.89957e-10
4.20328e-08
9.7052e-10
4.17344e-08
9.51276e-10
4.1438e-08
9.329e-10
4.11438e-08
9.14618e-10
4.08518e-08
8.97234e-10
4.05624e-08
8.7983e-10
4.02754e-08
8.6337e-10
3.99912e-08
8.46766e-10
3.97096e-08
8.31158e-10
3.9431e-08
8.15281e-10
3.91552e-08
8.00459e-10
3.88825e-08
7.85231e-10
3.86126e-08
7.71143e-10
3.8346e-08
7.56479e-10
3.80823e-08
7.43078e-10
3.78221e-08
7.28901e-10
3.75647e-08
7.16132e-10
3.73109e-08
7.02375e-10
3.70599e-08
6.90192e-10
3.68126e-08
6.76788e-10
3.65681e-08
6.65154e-10
3.63275e-08
6.52025e-10
3.60896e-08
6.40922e-10
3.58557e-08
6.27992e-10
3.56244e-08
6.17397e-10
3.53972e-08
6.04605e-10
3.51726e-08
5.9451e-10
3.49522e-08
5.81796e-10
3.47343e-08
5.72201e-10
3.45207e-08
5.59508e-10
3.43095e-08
5.50436e-10
3.41028e-08
5.37704e-10
3.38983e-08
5.29201e-10
3.36985e-08
5.16392e-10
3.35007e-08
5.0851e-10
3.33078e-08
4.95609e-10
3.31166e-08
4.88426e-10
3.29306e-08
4.7543e-10
3.2746e-08
4.69062e-10
3.25668e-08
4.55995e-10
3.23886e-08
4.5058e-10
3.22159e-08
4.37566e-10
3.20441e-08
4.33228e-10
3.18777e-08
4.20465e-10
3.17118e-08
4.17403e-10
3.15513e-08
4.05292e-10
3.13908e-08
4.03627e-10
3.12354e-08
3.93194e-10
3.10795e-08
3.93411e-10
3.86051e-10
5.51392e-08
2.15615e-09
-5.50644e-08
5.53086e-08
2.50023e-09
5.55938e-08
2.83625e-09
5.59101e-08
3.12828e-09
5.61943e-08
3.29015e-09
5.64331e-08
3.32805e-09
5.66383e-08
3.2816e-09
5.68107e-08
3.18641e-09
5.69408e-08
3.06043e-09
5.70238e-08
2.91484e-09
5.70648e-08
2.76255e-09
5.70763e-08
2.6177e-09
5.70698e-08
2.4916e-09
5.70517e-08
2.38828e-09
5.70249e-08
2.30336e-09
5.6991e-08
2.23135e-09
5.69515e-08
2.16834e-09
5.69069e-08
2.11169e-09
5.68575e-08
2.05978e-09
5.68032e-08
2.01143e-09
5.67436e-08
1.96596e-09
5.66785e-08
1.92275e-09
5.66076e-08
1.88158e-09
5.65308e-08
1.84211e-09
5.6448e-08
1.80435e-09
5.63591e-08
1.76808e-09
5.62642e-08
1.7334e-09
5.61632e-08
1.70007e-09
5.60563e-08
1.66822e-09
5.59435e-08
1.63758e-09
5.58248e-08
1.60828e-09
5.57004e-08
1.57998e-09
5.55702e-08
1.55289e-09
5.54345e-08
1.52659e-09
5.52933e-08
1.50137e-09
5.51467e-08
1.47677e-09
5.49948e-08
1.45315e-09
5.48378e-08
1.43e-09
5.46757e-08
1.40777e-09
5.45088e-08
1.38589e-09
5.4337e-08
1.36488e-09
5.41609e-08
1.34411e-09
5.39802e-08
1.32422e-09
5.37954e-08
1.30445e-09
5.36064e-08
1.28557e-09
5.34137e-08
1.26669e-09
5.32172e-08
1.24874e-09
5.30173e-08
1.23068e-09
5.2814e-08
1.21357e-09
5.26077e-08
1.19623e-09
5.23983e-08
1.1799e-09
5.21864e-08
1.16319e-09
5.19717e-08
1.14758e-09
5.17549e-08
1.13143e-09
5.15357e-08
1.11647e-09
5.13147e-08
1.10079e-09
5.10917e-08
1.08644e-09
5.08673e-08
1.07115e-09
5.06411e-08
1.05734e-09
5.0414e-08
1.04239e-09
5.01854e-08
1.02907e-09
4.99562e-08
1.01438e-09
4.97259e-08
1.00152e-09
4.94953e-08
9.87006e-10
4.92638e-08
9.74597e-10
4.90325e-08
9.60178e-10
4.88005e-08
9.48176e-10
4.85691e-08
9.33797e-10
4.83371e-08
9.22177e-10
4.81061e-08
9.07781e-10
4.78747e-08
8.96532e-10
4.76447e-08
8.82039e-10
4.74144e-08
8.71166e-10
4.71859e-08
8.56496e-10
4.69573e-08
8.46002e-10
4.67308e-08
8.31101e-10
4.65044e-08
8.21002e-10
4.62803e-08
8.05814e-10
4.60564e-08
7.96133e-10
4.58353e-08
7.806e-10
4.56144e-08
7.71382e-10
4.53966e-08
7.5545e-10
4.5179e-08
7.46769e-10
4.4965e-08
7.30416e-10
4.47512e-08
7.22342e-10
4.45412e-08
7.05573e-10
4.43314e-08
6.98206e-10
4.41258e-08
6.81048e-10
4.39204e-08
6.74525e-10
4.37193e-08
6.57044e-10
4.35184e-08
6.51531e-10
4.3322e-08
6.33925e-10
4.31257e-08
6.29564e-10
4.2934e-08
6.12102e-10
4.27423e-08
6.09186e-10
4.25552e-08
5.9234e-10
4.23677e-08
5.91149e-10
4.2185e-08
5.75915e-10
4.20013e-08
5.77057e-10
5.64665e-10
6.11289e-08
2.07679e-09
-6.10495e-08
6.12755e-08
2.35362e-09
6.14982e-08
2.61356e-09
6.1773e-08
2.85351e-09
6.20407e-08
3.02241e-09
6.22757e-08
3.09307e-09
6.24735e-08
3.08375e-09
6.26383e-08
3.02166e-09
6.27696e-08
2.9291e-09
6.2865e-08
2.8194e-09
6.29258e-08
2.70174e-09
6.29586e-08
2.58493e-09
6.29727e-08
2.47751e-09
6.29761e-08
2.38489e-09
6.29725e-08
2.30692e-09
6.2964e-08
2.23992e-09
6.29516e-08
2.18072e-09
6.29364e-08
2.12691e-09
6.29189e-08
2.07728e-09
6.28995e-08
2.03084e-09
6.28782e-08
1.98723e-09
6.28551e-08
1.94587e-09
6.28299e-08
1.9067e-09
6.28028e-08
1.86926e-09
6.27734e-08
1.83369e-09
6.27419e-08
1.79958e-09
6.27081e-08
1.7672e-09
6.26721e-08
1.73611e-09
6.26337e-08
1.70665e-09
6.25929e-08
1.67833e-09
6.25497e-08
1.65154e-09
6.2504e-08
1.62568e-09
6.24556e-08
1.60125e-09
6.24047e-08
1.57755e-09
6.23509e-08
1.55516e-09
6.22943e-08
1.53331e-09
6.22348e-08
1.51271e-09
6.21723e-08
1.49246e-09
6.21067e-08
1.47341e-09
6.2038e-08
1.45455e-09
6.1966e-08
1.43688e-09
6.18909e-08
1.41922e-09
6.18123e-08
1.40278e-09
6.17306e-08
1.38618e-09
6.16453e-08
1.37085e-09
6.15569e-08
1.35517e-09
6.14648e-08
1.34083e-09
6.13695e-08
1.32596e-09
6.12705e-08
1.31252e-09
6.11684e-08
1.29833e-09
6.10627e-08
1.28568e-09
6.09538e-08
1.27206e-09
6.08413e-08
1.26012e-09
6.07257e-08
1.24695e-09
6.06066e-08
1.23565e-09
6.04845e-08
1.22284e-09
6.03588e-08
1.2121e-09
6.02305e-08
1.19953e-09
6.00985e-08
1.18928e-09
5.9964e-08
1.17686e-09
5.98261e-08
1.16703e-09
5.96858e-08
1.15467e-09
5.95421e-08
1.14522e-09
5.93963e-08
1.13281e-09
5.92472e-08
1.12371e-09
5.90962e-08
1.11116e-09
5.8942e-08
1.10236e-09
5.87862e-08
1.08958e-09
5.86274e-08
1.08103e-09
5.84672e-08
1.06796e-09
5.83041e-08
1.05965e-09
5.81399e-08
1.04619e-09
5.7973e-08
1.03813e-09
5.78053e-08
1.02418e-09
5.76349e-08
1.01635e-09
5.74642e-08
1.00185e-09
5.7291e-08
9.94249e-10
5.71176e-08
9.79158e-10
5.69419e-08
9.71815e-10
5.67665e-08
9.56065e-10
5.65888e-08
9.49008e-10
5.64118e-08
9.32533e-10
5.62327e-08
9.25836e-10
5.60545e-08
9.08652e-10
5.58744e-08
9.02363e-10
5.56955e-08
8.84505e-10
5.5515e-08
8.78721e-10
5.53358e-08
8.60229e-10
5.51552e-08
8.55089e-10
5.49762e-08
8.36068e-10
5.4796e-08
8.31751e-10
5.46174e-08
8.12471e-10
5.44379e-08
8.09126e-10
5.42601e-08
7.89884e-10
5.40813e-08
7.8794e-10
5.39045e-08
7.69212e-10
5.37266e-08
7.69062e-10
5.35507e-08
7.51788e-10
5.33737e-08
7.54025e-10
7.39806e-10
6.77289e-08
1.99852e-09
-6.76506e-08
6.78576e-08
2.22486e-09
6.8038e-08
2.4332e-09
6.82659e-08
2.62556e-09
6.85061e-08
2.78231e-09
6.87294e-08
2.86976e-09
6.89211e-08
2.89203e-09
6.90793e-08
2.86341e-09
6.92068e-08
2.80168e-09
6.9305e-08
2.72113e-09
6.93751e-08
2.63167e-09
6.94201e-08
2.53997e-09
6.94457e-08
2.45189e-09
6.94589e-08
2.37168e-09
6.94644e-08
2.30138e-09
6.94647e-08
2.23967e-09
6.94609e-08
2.18452e-09
6.9454e-08
2.13377e-09
6.94448e-08
2.08647e-09
6.9434e-08
2.04166e-09
6.94219e-08
1.99933e-09
6.94089e-08
1.95891e-09
6.93949e-08
1.92062e-09
6.93803e-08
1.8839e-09
6.93649e-08
1.8491e-09
6.93489e-08
1.8156e-09
6.93322e-08
1.78388e-09
6.9315e-08
1.75329e-09
6.92972e-08
1.72443e-09
6.9279e-08
1.69652e-09
6.92603e-08
1.6703e-09
6.92411e-08
1.64485e-09
6.92213e-08
1.62105e-09
6.92011e-08
1.59781e-09
6.91801e-08
1.57616e-09
6.91585e-08
1.55488e-09
6.9136e-08
1.53515e-09
6.91129e-08
1.51559e-09
6.90887e-08
1.49759e-09
6.90637e-08
1.47954e-09
6.90375e-08
1.4631e-09
6.90104e-08
1.44639e-09
6.89818e-08
1.43136e-09
6.89521e-08
1.41584e-09
6.89209e-08
1.4021e-09
6.88884e-08
1.38762e-09
6.88542e-08
1.37505e-09
6.88186e-08
1.3615e-09
6.87812e-08
1.34998e-09
6.87423e-08
1.33723e-09
6.87013e-08
1.32667e-09
6.86588e-08
1.31458e-09
6.8614e-08
1.30487e-09
6.85676e-08
1.29332e-09
6.85189e-08
1.2844e-09
6.84685e-08
1.27325e-09
6.84156e-08
1.26504e-09
6.83609e-08
1.2542e-09
6.83036e-08
1.24657e-09
6.82445e-08
1.23594e-09
6.81827e-08
1.22882e-09
6.81191e-08
1.21826e-09
6.80528e-08
1.21161e-09
6.79846e-08
1.20101e-09
6.79135e-08
1.1948e-09
6.78406e-08
1.18404e-09
6.77648e-08
1.17818e-09
6.76872e-08
1.16717e-09
6.76066e-08
1.16156e-09
6.75244e-08
1.15025e-09
6.74391e-08
1.14488e-09
6.73522e-08
1.13314e-09
6.72623e-08
1.12802e-09
6.71707e-08
1.11573e-09
6.70763e-08
1.11079e-09
6.69803e-08
1.09788e-09
6.68814e-08
1.09307e-09
6.67811e-08
1.07954e-09
6.6678e-08
1.07487e-09
6.65734e-08
1.06065e-09
6.64663e-08
1.05615e-09
6.63577e-08
1.0411e-09
6.62468e-08
1.03679e-09
6.61344e-08
1.02102e-09
6.60199e-08
1.01687e-09
6.59039e-08
1.00044e-09
6.57861e-08
9.96591e-10
6.56668e-08
9.79483e-10
6.55459e-08
9.76055e-10
6.54235e-08
9.58406e-10
6.52997e-08
9.55524e-10
6.51745e-08
9.37721e-10
6.50481e-08
9.35548e-10
6.49202e-08
9.17778e-10
6.47912e-08
9.16936e-10
6.46607e-08
8.99701e-10
6.45293e-08
9.00412e-10
6.43964e-08
8.84691e-10
6.42627e-08
8.87783e-10
8.75236e-10
6.79274e-08
1.93336e-09
-6.78622e-08
6.80286e-08
2.12363e-09
6.81657e-08
2.29617e-09
6.83357e-08
2.4555e-09
6.85249e-08
2.59311e-09
6.87103e-08
2.68442e-09
6.88766e-08
2.72565e-09
6.90172e-08
2.72287e-09
6.91315e-08
2.6874e-09
6.92215e-08
2.63107e-09
6.92893e-08
2.56383e-09
6.93372e-08
2.49217e-09
6.93682e-08
2.42087e-09
6.93868e-08
2.35302e-09
6.93972e-08
2.291e-09
6.94021e-08
2.23483e-09
6.94028e-08
2.18383e-09
6.94003e-08
2.13626e-09
6.93952e-08
2.0915e-09
6.93883e-08
2.04856e-09
6.938e-08
2.00767e-09
6.93706e-08
1.96825e-09
6.93605e-08
1.93078e-09
6.93498e-08
1.89461e-09
6.93386e-08
1.86032e-09
6.9327e-08
1.82711e-09
6.93152e-08
1.79571e-09
6.93033e-08
1.7652e-09
6.92913e-08
1.73647e-09
6.92793e-08
1.70848e-09
6.92673e-08
1.68228e-09
6.92555e-08
1.65665e-09
6.92438e-08
1.6328e-09
6.92322e-08
1.60934e-09
6.92207e-08
1.58765e-09
6.92095e-08
1.56615e-09
6.91982e-08
1.54642e-09
6.91871e-08
1.52667e-09
6.9176e-08
1.50874e-09
6.9165e-08
1.49055e-09
6.91538e-08
1.47427e-09
6.91427e-08
1.45747e-09
6.91314e-08
1.4427e-09
6.91201e-08
1.42716e-09
6.91084e-08
1.41376e-09
6.90967e-08
1.39935e-09
6.90845e-08
1.38722e-09
6.90722e-08
1.37382e-09
6.90593e-08
1.36284e-09
6.90462e-08
1.35032e-09
6.90325e-08
1.34041e-09
6.90184e-08
1.32863e-09
6.90036e-08
1.31969e-09
6.89884e-08
1.30852e-09
6.89724e-08
1.30047e-09
6.89558e-08
1.28979e-09
6.89383e-08
1.28255e-09
6.89202e-08
1.27228e-09
6.89011e-08
1.26571e-09
6.88813e-08
1.25574e-09
6.88603e-08
1.24977e-09
6.88386e-08
1.23995e-09
6.88157e-08
1.23455e-09
6.8792e-08
1.22476e-09
6.87669e-08
1.21987e-09
6.87409e-08
1.21003e-09
6.87135e-08
1.20555e-09
6.86851e-08
1.19558e-09
6.86553e-08
1.19136e-09
6.86244e-08
1.18119e-09
6.8592e-08
1.17725e-09
6.85584e-08
1.1667e-09
6.85234e-08
1.16309e-09
6.8487e-08
1.15209e-09
6.84491e-08
1.14863e-09
6.84099e-08
1.13714e-09
6.83692e-08
1.13373e-09
6.8327e-08
1.12176e-09
6.82834e-08
1.11846e-09
6.82382e-08
1.10587e-09
6.81916e-08
1.10277e-09
6.81433e-08
1.08941e-09
6.80937e-08
1.08634e-09
6.80422e-08
1.07249e-09
6.79897e-08
1.06943e-09
6.79351e-08
1.05501e-09
6.78795e-08
1.05221e-09
6.78218e-08
1.0372e-09
6.77631e-08
1.03471e-09
6.77022e-08
1.01933e-09
6.76406e-08
1.01713e-09
6.75765e-08
1.00184e-09
6.75117e-08
1.00029e-09
6.74445e-08
9.84979e-10
6.73767e-08
9.84787e-10
6.73061e-08
9.70307e-10
6.72352e-08
9.71293e-10
6.71615e-08
9.5836e-10
6.70871e-08
9.62177e-10
9.51937e-10
7.51812e-08
1.87114e-09
-7.5119e-08
7.52716e-08
2.03327e-09
7.53897e-08
2.17808e-09
7.55331e-08
2.3121e-09
7.56957e-08
2.43053e-09
7.58603e-08
2.51982e-09
7.60141e-08
2.57183e-09
7.61485e-08
2.58841e-09
7.62603e-08
2.57563e-09
7.635e-08
2.54144e-09
7.64196e-08
2.49424e-09
7.64715e-08
2.44025e-09
7.65082e-08
2.38419e-09
7.65326e-08
2.32857e-09
7.6548e-08
2.2756e-09
7.65571e-08
2.22579e-09
7.65614e-08
2.17949e-09
7.65621e-08
2.13555e-09
7.65598e-08
2.09377e-09
7.65553e-08
2.05314e-09
7.65488e-08
2.01409e-09
7.65411e-08
1.97599e-09
7.65323e-08
1.93957e-09
7.65228e-08
1.90412e-09
7.65127e-08
1.87043e-09
7.65022e-08
1.83758e-09
7.64914e-08
1.80649e-09
7.64806e-08
1.77609e-09
7.64696e-08
1.74745e-09
7.64587e-08
1.71936e-09
7.64479e-08
1.69308e-09
7.64373e-08
1.66721e-09
7.6427e-08
1.64318e-09
7.64169e-08
1.61939e-09
7.64071e-08
1.59747e-09
7.63976e-08
1.57561e-09
7.63884e-08
1.55564e-09
7.63796e-08
1.53552e-09
7.63709e-08
1.51736e-09
7.63627e-08
1.49881e-09
7.63546e-08
1.48233e-09
7.63469e-08
1.46521e-09
7.63393e-08
1.45027e-09
7.6332e-08
1.43443e-09
7.63249e-08
1.42091e-09
7.6318e-08
1.40625e-09
7.63112e-08
1.39402e-09
7.63046e-08
1.38043e-09
7.6298e-08
1.3694e-09
7.62916e-08
1.35674e-09
7.62852e-08
1.34683e-09
7.62788e-08
1.33495e-09
7.62724e-08
1.32607e-09
7.62661e-08
1.31486e-09
7.62597e-08
1.30691e-09
7.62532e-08
1.29627e-09
7.62466e-08
1.28914e-09
7.62399e-08
1.279e-09
7.6233e-08
1.27258e-09
7.62259e-08
1.26282e-09
7.62186e-08
1.25705e-09
7.62111e-08
1.2475e-09
7.62033e-08
1.24235e-09
7.61951e-08
1.2329e-09
7.61867e-08
1.2283e-09
7.61778e-08
1.21891e-09
7.61687e-08
1.21471e-09
7.61589e-08
1.20534e-09
7.61489e-08
1.20138e-09
7.61382e-08
1.19191e-09
7.61271e-08
1.18828e-09
7.61154e-08
1.17848e-09
7.61032e-08
1.17523e-09
7.60902e-08
1.16512e-09
7.60769e-08
1.16197e-09
7.60624e-08
1.15156e-09
7.60478e-08
1.14838e-09
7.60319e-08
1.13764e-09
7.60158e-08
1.13459e-09
7.59984e-08
1.12328e-09
7.59807e-08
1.1205e-09
7.59615e-08
1.10859e-09
7.59421e-08
1.10567e-09
7.59211e-08
1.09355e-09
7.58999e-08
1.09058e-09
7.5877e-08
1.07793e-09
7.58539e-08
1.07532e-09
7.58289e-08
1.0622e-09
7.58038e-08
1.05985e-09
7.57765e-08
1.04662e-09
7.57493e-08
1.04435e-09
7.57197e-08
1.03141e-09
7.569e-08
1.03001e-09
7.5658e-08
1.01692e-09
7.5626e-08
1.01682e-09
7.55912e-08
1.0051e-09
7.55565e-08
1.00599e-09
7.55192e-08
9.95648e-10
7.54817e-08
9.99708e-10
9.91668e-10
8.31887e-08
1.81322e-09
-8.31308e-08
8.32687e-08
1.95327e-09
8.33702e-08
2.07658e-09
8.34912e-08
2.19115e-09
8.36282e-08
2.29346e-09
8.37702e-08
2.37786e-09
8.39071e-08
2.43492e-09
8.4031e-08
2.46447e-09
8.41373e-08
2.4694e-09
8.42245e-08
2.4542e-09
8.42938e-08
2.42496e-09
8.43472e-08
2.38679e-09
8.43871e-08
2.34431e-09
8.44157e-08
2.29999e-09
8.44352e-08
2.25604e-09
8.4448e-08
2.21303e-09
8.44556e-08
2.17185e-09
8.44593e-08
2.13189e-09
8.44597e-08
2.09335e-09
8.44575e-08
2.05537e-09
8.44531e-08
2.01847e-09
8.44471e-08
1.98202e-09
8.44398e-08
1.94689e-09
8.44315e-08
1.91236e-09
8.44226e-08
1.87938e-09
8.44131e-08
1.84702e-09
8.44033e-08
1.81631e-09
8.43933e-08
1.7861e-09
8.43832e-08
1.7576e-09
8.4373e-08
1.7295e-09
8.4363e-08
1.70315e-09
8.43531e-08
1.67711e-09
8.43434e-08
1.65288e-09
8.43339e-08
1.62884e-09
8.43247e-08
1.60664e-09
8.43159e-08
1.58446e-09
8.43073e-08
1.56419e-09
8.42991e-08
1.54373e-09
8.42912e-08
1.52525e-09
8.42837e-08
1.50636e-09
8.42765e-08
1.48957e-09
8.42695e-08
1.47212e-09
8.42629e-08
1.45687e-09
8.42566e-08
1.44074e-09
8.42506e-08
1.42691e-09
8.42449e-08
1.41201e-09
8.42394e-08
1.39948e-09
8.42342e-08
1.38567e-09
8.42292e-08
1.37436e-09
8.42244e-08
1.36151e-09
8.42199e-08
1.35135e-09
8.42156e-08
1.33932e-09
8.42114e-08
1.3302e-09
8.42074e-08
1.31888e-09
8.42036e-08
1.3107e-09
8.41999e-08
1.30001e-09
8.41964e-08
1.29264e-09
8.41929e-08
1.28252e-09
8.41896e-08
1.27585e-09
8.41863e-08
1.26617e-09
8.41831e-08
1.26018e-09
8.41799e-08
1.25073e-09
8.41768e-08
1.2454e-09
8.41736e-08
1.2361e-09
8.41707e-08
1.23129e-09
8.41674e-08
1.22215e-09
8.41644e-08
1.21769e-09
8.41611e-08
1.2087e-09
8.4158e-08
1.20447e-09
8.41545e-08
1.19541e-09
8.41512e-08
1.19158e-09
8.41475e-08
1.1822e-09
8.4144e-08
1.17873e-09
8.41399e-08
1.16918e-09
8.41361e-08
1.16576e-09
8.41316e-08
1.15606e-09
8.41274e-08
1.15257e-09
8.41225e-08
1.14259e-09
8.41178e-08
1.13929e-09
8.41123e-08
1.12874e-09
8.4107e-08
1.12578e-09
8.41008e-08
1.11481e-09
8.40949e-08
1.11154e-09
8.40879e-08
1.10054e-09
8.40812e-08
1.0973e-09
8.40734e-08
1.08573e-09
8.40658e-08
1.08296e-09
8.40569e-08
1.07104e-09
8.40483e-08
1.06847e-09
8.40383e-08
1.05668e-09
8.40285e-08
1.05413e-09
8.40172e-08
1.04264e-09
8.40059e-08
1.04132e-09
8.39932e-08
1.02962e-09
8.39806e-08
1.0294e-09
8.39662e-08
1.01953e-09
8.39517e-08
1.02046e-09
8.39357e-08
1.01164e-09
8.39197e-08
1.01574e-09
1.00913e-09
9.2031e-08
1.76157e-09
-9.19793e-08
9.20999e-08
1.8844e-09
9.21854e-08
1.9911e-09
9.22858e-08
2.09071e-09
9.23985e-08
2.18076e-09
9.25175e-08
2.25881e-09
9.2635e-08
2.3175e-09
9.27445e-08
2.35491e-09
9.28415e-08
2.37242e-09
9.29235e-08
2.37223e-09
9.29902e-08
2.35827e-09
9.30429e-08
2.33411e-09
9.30834e-08
2.30375e-09
9.31138e-08
2.26961e-09
9.31358e-08
2.23401e-09
9.31512e-08
2.19766e-09
9.31614e-08
2.16167e-09
9.31675e-08
2.12579e-09
9.31702e-08
2.09058e-09
9.31703e-08
2.05536e-09
9.3168e-08
2.02076e-09
9.31638e-08
1.98618e-09
9.31582e-08
1.95251e-09
9.31515e-08
1.91908e-09
9.31439e-08
1.88694e-09
9.31358e-08
1.85517e-09
9.31272e-08
1.82489e-09
9.31183e-08
1.79498e-09
9.31093e-08
1.76663e-09
9.31001e-08
1.73861e-09
9.30911e-08
1.71224e-09
9.3082e-08
1.68613e-09
9.30732e-08
1.66172e-09
9.30645e-08
1.6375e-09
9.30561e-08
1.61504e-09
9.3048e-08
1.59262e-09
9.30401e-08
1.57205e-09
9.30325e-08
1.55131e-09
9.30253e-08
1.53251e-09
9.30183e-08
1.51334e-09
9.30117e-08
1.49621e-09
9.30053e-08
1.47849e-09
9.29992e-08
1.4629e-09
9.29934e-08
1.44654e-09
9.2988e-08
1.43236e-09
9.29828e-08
1.41725e-09
9.29779e-08
1.40438e-09
9.29731e-08
1.39039e-09
9.29687e-08
1.37875e-09
9.29645e-08
1.36573e-09
9.29606e-08
1.35527e-09
9.29568e-08
1.34309e-09
9.29534e-08
1.33368e-09
9.295e-08
1.32225e-09
9.29469e-08
1.31376e-09
9.29439e-08
1.30302e-09
9.29412e-08
1.29533e-09
9.29385e-08
1.2852e-09
9.29362e-08
1.27822e-09
9.29338e-08
1.26854e-09
9.29317e-08
1.26227e-09
9.29296e-08
1.25285e-09
9.29278e-08
1.24724e-09
9.29258e-08
1.23802e-09
9.29242e-08
1.2329e-09
9.29225e-08
1.22389e-09
9.29211e-08
1.2191e-09
9.29195e-08
1.2103e-09
9.29182e-08
1.20576e-09
9.29167e-08
1.19689e-09
9.29155e-08
1.19279e-09
9.29141e-08
1.18363e-09
9.2913e-08
1.17985e-09
9.29115e-08
1.1706e-09
9.29105e-08
1.16684e-09
9.2909e-08
1.15751e-09
9.29079e-08
1.1537e-09
9.29064e-08
1.1441e-09
9.29051e-08
1.14054e-09
9.29035e-08
1.13036e-09
9.29021e-08
1.12713e-09
9.29003e-08
1.11668e-09
9.28987e-08
1.1131e-09
9.28966e-08
1.10264e-09
9.28947e-08
1.09921e-09
9.28923e-08
1.08815e-09
9.289e-08
1.08522e-09
9.28872e-08
1.07392e-09
9.28844e-08
1.07119e-09
9.2881e-08
1.06015e-09
9.28776e-08
1.05752e-09
9.28736e-08
1.04668e-09
9.28694e-08
1.0455e-09
9.28644e-08
1.03458e-09
9.28595e-08
1.03431e-09
9.28537e-08
1.02536e-09
9.28476e-08
1.02656e-09
9.28408e-08
1.01842e-09
9.2834e-08
1.02256e-09
1.01666e-09
1.01797e-07
1.7178e-09
-1.01753e-07
1.01854e-07
1.82764e-09
1.01923e-07
1.92182e-09
1.02003e-07
2.01021e-09
1.02093e-07
2.09108e-09
1.02189e-07
2.16291e-09
1.02285e-07
2.2213e-09
1.02377e-07
2.26301e-09
1.02461e-07
2.28877e-09
1.02533e-07
2.29947e-09
1.02594e-07
2.29748e-09
1.02643e-07
2.28502e-09
1.02682e-07
2.26515e-09
1.02712e-07
2.23993e-09
1.02734e-07
2.21168e-09
1.0275e-07
2.18131e-09
1.02762e-07
2.15013e-09
1.0277e-07
2.11812e-09
1.02774e-07
2.08606e-09
1.02776e-07
2.0535e-09
1.02776e-07
2.02115e-09
1.02773e-07
1.98845e-09
1.02769e-07
1.9563e-09
1.02764e-07
1.92407e-09