/*--------------------------------*- C++ -*----------------------------------*\
| =========                 |                                                 |
| \\      /  F ield         | OpenFOAM: The Open Source CFD Toolbox           |
|  \\    /   O peration     | Version:  2.3.0                                 |
|   \\  /    A nd           | Web:      www.OpenFOAM.org                      |
|    \\/     M anipulation  |                                                 |
\*---------------------------------------------------------------------------*/
FoamFile
{
    version     2.0;
    format      ascii;
    class       volVectorField;
    location    "0.75";
    object      U_0;
}
// * * * * * * * * * * * * * * * * * * * * * * * * * * * * * * * * * * * * * //

dimensions      [0 1 -1 0 0 0 0];

internalField   nonuniform List<vector> 
2000
(
(0.175523 0.00442169 0)
(0.154832 0.00604566 0)
(0.136034 0.00619891 0)
(0.117684 0.00557967 0)
(0.099974 0.00475258 0)
(0.0837891 0.0038373 0)
(0.0702271 0.00284647 0)
(0.0596741 0.00180371 0)
(0.0519022 0.000897391 0)
(0.0463447 0.000287297 0)
(0.0424184 -3.13041e-05 0)
(0.0396398 -0.000151657 0)
(0.0376206 -0.000161723 0)
(0.0360764 -0.000122126 0)
(0.0348048 -6.56424e-05 0)
(0.0336788 -1.16924e-05 0)
(0.0326303 2.98504e-05 0)
(0.031631 5.68159e-05 0)
(0.0306743 7.13524e-05 0)
(0.029763 7.69687e-05 0)
(0.0289017 7.69459e-05 0)
(0.0280933 7.37842e-05 0)
(0.0273385 6.91724e-05 0)
(0.026636 6.41421e-05 0)
(0.0259827 5.9256e-05 0)
(0.0253748 5.47651e-05 0)
(0.0248082 5.07517e-05 0)
(0.0242787 4.72076e-05 0)
(0.0237823 4.40859e-05 0)
(0.0233155 4.13245e-05 0)
(0.0228752 3.88676e-05 0)
(0.0224586 3.66634e-05 0)
(0.0220633 3.46729e-05 0)
(0.0216875 3.28602e-05 0)
(0.0213294 3.12005e-05 0)
(0.0209875 2.96698e-05 0)
(0.0206606 2.82528e-05 0)
(0.0203476 2.69335e-05 0)
(0.0200476 2.57031e-05 0)
(0.0197596 2.45508e-05 0)
(0.019483 2.34719e-05 0)
(0.0192169 2.24581e-05 0)
(0.0189608 2.15073e-05 0)
(0.018714 2.06124e-05 0)
(0.018476 1.97727e-05 0)
(0.0182462 1.89817e-05 0)
(0.0180242 1.82393e-05 0)
(0.0178095 1.75393e-05 0)
(0.0176018 1.68811e-05 0)
(0.0174005 1.62605e-05 0)
(0.0172056 1.56748e-05 0)
(0.0170162 1.51225e-05 0)
(0.0168327 1.45988e-05 0)
(0.0166541 1.41049e-05 0)
(0.0164808 1.36341e-05 0)
(0.0163118 1.31895e-05 0)
(0.0161479 1.27633e-05 0)
(0.0159877 1.23612e-05 0)
(0.0158323 1.19719e-05 0)
(0.0156801 1.16072e-05 0)
(0.0155325 1.12482e-05 0)
(0.0153877 1.09163e-05 0)
(0.0152473 1.05834e-05 0)
(0.0151092 1.02797e-05 0)
(0.0149756 9.9691e-06 0)
(0.0148438 9.69122e-06 0)
(0.0147166 9.3984e-06 0)
(0.0145906 9.14487e-06 0)
(0.0144694 8.86608e-06 0)
(0.0143488 8.63651e-06 0)
(0.0142334 8.36855e-06 0)
(0.0141178 8.1618e-06 0)
(0.0140079 7.90232e-06 0)
(0.013897 7.71847e-06 0)
(0.0137925 7.46383e-06 0)
(0.0136858 7.30418e-06 0)
(0.0135866 7.05155e-06 0)
(0.0134839 6.91816e-06 0)
(0.0133898 6.66357e-06 0)
(0.0132906 6.55993e-06 0)
(0.0132017 6.2992e-06 0)
(0.0131057 6.22861e-06 0)
(0.013022 5.95835e-06 0)
(0.0129285 5.92625e-06 0)
(0.0128502 5.6409e-06 0)
(0.0127586 5.6558e-06 0)
(0.0126858 5.34755e-06 0)
(0.0125955 5.42015e-06 0)
(0.0125284 5.08182e-06 0)
(0.0124384 5.22339e-06 0)
(0.0123775 4.84438e-06 0)
(0.0122864 5.07818e-06 0)
(0.0122324 4.63837e-06 0)
(0.0121384 4.99205e-06 0)
(0.0120922 4.47003e-06 0)
(0.0119929 4.99081e-06 0)
(0.0119561 4.32905e-06 0)
(0.0118473 5.10118e-06 0)
(0.011824 4.2763e-06 0)
(0.0116934 6.57174e-06 0)
(0.190918 0.00783041 0)
(0.189229 0.0109759 0)
(0.186858 0.0120926 0)
(0.183188 0.0119539 0)
(0.177956 0.0113244 0)
(0.171347 0.0104233 0)
(0.163978 0.00925678 0)
(0.156304 0.00782297 0)
(0.148676 0.00627537 0)
(0.141306 0.00483489 0)
(0.134327 0.00364643 0)
(0.127846 0.00274296 0)
(0.121911 0.00209171 0)
(0.116547 0.00164646 0)
(0.111721 0.00135449 0)
(0.107374 0.00116503 0)
(0.103443 0.00103714 0)
(0.0998682 0.000943118 0)
(0.0966019 0.000866759 0)
(0.0936041 0.000799727 0)
(0.0908427 0.000738309 0)
(0.0882909 0.000681192 0)
(0.0859262 0.000628157 0)
(0.0837291 0.000579344 0)
(0.0816826 0.000534914 0)
(0.0797713 0.000494867 0)
(0.0779817 0.000459044 0)
(0.0763017 0.000427136 0)
(0.0747207 0.000398754 0)
(0.0732289 0.000373456 0)
(0.0718182 0.000350825 0)
(0.0704812 0.000330461 0)
(0.0692115 0.000312038 0)
(0.0680035 0.000295257 0)
(0.0668524 0.000279895 0)
(0.0657536 0.000265748 0)
(0.0647036 0.000252674 0)
(0.0636986 0.000240534 0)
(0.0627358 0.000229242 0)
(0.0618122 0.0002187 0)
(0.0609255 0.000208855 0)
(0.0600729 0.000199633 0)
(0.0592529 0.000191002 0)
(0.0584629 0.000182898 0)
(0.0577017 0.000175303 0)
(0.0569669 0.000168158 0)
(0.0562577 0.000161452 0)
(0.0555718 0.000155131 0)
(0.0549089 0.000149188 0)
(0.0542665 0.000143575 0)
(0.053645 0.000138284 0)
(0.0530414 0.000133277 0)
(0.0524569 0.000128544 0)
(0.0518882 0.000124053 0)
(0.0513371 0.000119795 0)
(0.0507999 0.000115745 0)
(0.0502792 0.000111893 0)
(0.0497705 0.000108221 0)
(0.0492774 0.000104714 0)
(0.0487948 0.000101369 0)
(0.0483272 9.81559e-05 0)
(0.0478684 9.50948e-05 0)
(0.0474244 9.21363e-05 0)
(0.0469874 8.93213e-05 0)
(0.0465654 8.65835e-05 0)
(0.0461487 8.39858e-05 0)
(0.0457473 8.14366e-05 0)
(0.0453492 7.90342e-05 0)
(0.0449674 7.66465e-05 0)
(0.0445867 7.44231e-05 0)
(0.0442235 7.21742e-05 0)
(0.0438589 7.01131e-05 0)
(0.0435136 6.79852e-05 0)
(0.0431639 6.60755e-05 0)
(0.0428361 6.40489e-05 0)
(0.0425001 6.22848e-05 0)
(0.0421894 6.03446e-05 0)
(0.041866 5.87243e-05 0)
(0.0415722 5.68537e-05 0)
(0.0412602 5.53811e-05 0)
(0.0409834 5.35654e-05 0)
(0.0406813 5.22446e-05 0)
(0.0404217 5.04735e-05 0)
(0.0401281 4.93166e-05 0)
(0.0398863 4.75766e-05 0)
(0.0395992 4.66055e-05 0)
(0.0393759 4.48793e-05 0)
(0.0390931 4.41235e-05 0)
(0.0388894 4.24007e-05 0)
(0.0386079 4.18909e-05 0)
(0.0384255 4.01581e-05 0)
(0.0381415 3.99596e-05 0)
(0.0379828 3.81869e-05 0)
(0.0376911 3.83695e-05 0)
(0.0375594 3.65531e-05 0)
(0.0372525 3.72144e-05 0)
(0.0371536 3.53242e-05 0)
(0.0368197 3.66565e-05 0)
(0.0367645 3.47112e-05 0)
(0.0363811 3.99791e-05 0)
(0.192154 0.00753138 0)
(0.192528 0.0100956 0)
(0.193528 0.0116829 0)
(0.194621 0.0122202 0)
(0.195207 0.0121371 0)
(0.194966 0.0117039 0)
(0.193877 0.0109748 0)
(0.192027 0.00998371 0)
(0.189545 0.00883676 0)
(0.186574 0.0076927 0)
(0.183249 0.00667722 0)
(0.179709 0.00584063 0)
(0.176066 0.00517051 0)
(0.172418 0.00463763 0)
(0.16881 0.00420741 0)
(0.165266 0.00384906 0)
(0.161794 0.00353965 0)
(0.1584 0.00326429 0)
(0.155086 0.00301437 0)
(0.151858 0.00278516 0)
(0.148718 0.00257414 0)
(0.145671 0.00237986 0)
(0.14272 0.00220137 0)
(0.139868 0.00203791 0)
(0.137117 0.00188877 0)
(0.134467 0.00175316 0)
(0.131917 0.00163026 0)
(0.129467 0.00151909 0)
(0.127115 0.00141863 0)
(0.124856 0.00132781 0)
(0.122689 0.00124561 0)
(0.12061 0.00117102 0)
(0.118614 0.00110319 0)
(0.116697 0.00104129 0)
(0.114857 0.000984645 0)
(0.113088 0.000932617 0)
(0.111388 0.000884718 0)
(0.109753 0.000840461 0)
(0.108178 0.000799503 0)
(0.106661 0.00076147 0)
(0.105199 0.000726127 0)
(0.103787 0.000693174 0)
(0.102426 0.000662455 0)
(0.101109 0.000633716 0)
(0.0998373 0.000606857 0)
(0.0986056 0.000581653 0)
(0.0974143 0.000558045 0)
(0.0962588 0.000535826 0)
(0.0951401 0.000514967 0)
(0.0940532 0.000495277 0)
(0.0930001 0.000476748 0)
(0.0919751 0.000459204 0)
(0.0909816 0.000442656 0)
(0.0900128 0.000426936 0)
(0.0890735 0.000412077 0)
(0.0881559 0.000397909 0)
(0.0872663 0.000384493 0)
(0.0863953 0.000371655 0)
(0.0855515 0.000359471 0)
(0.0847233 0.00034778 0)
(0.0839217 0.000336655 0)
(0.0831329 0.000325955 0)
(0.0823707 0.000315747 0)
(0.0816181 0.000305902 0)
(0.0808928 0.000296495 0)
(0.0801737 0.000287397 0)
(0.0794833 0.000278683 0)
(0.0787952 0.000270243 0)
(0.0781379 0.000262133 0)
(0.0774785 0.00025428 0)
(0.0768529 0.000246699 0)
(0.0762202 0.000239365 0)
(0.0756253 0.000232255 0)
(0.0750172 0.000225386 0)
(0.0744523 0.000218691 0)
(0.0738667 0.000212247 0)
(0.0733315 0.000205924 0)
(0.0727665 0.000199876 0)
(0.0722608 0.000193886 0)
(0.0717142 0.000188215 0)
(0.0712386 0.000182529 0)
(0.070708 0.00017722 0)
(0.070263 0.000171823 0)
(0.0697458 0.000166873 0)
(0.0693328 0.000161755 0)
(0.0688256 0.000157183 0)
(0.0684463 0.000152334 0)
(0.0679452 0.000148165 0)
(0.0676021 0.000143606 0)
(0.0671021 0.000139865 0)
(0.0667985 0.000135631 0)
(0.0662933 0.00013239 0)
(0.0660339 0.000128519 0)
(0.0655149 0.000125839 0)
(0.0653059 0.000122463 0)
(0.0647616 0.00012044 0)
(0.0646119 0.000117658 0)
(0.0640262 0.000116768 0)
(0.0639485 0.000114582 0)
(0.0633002 0.000119299 0)
(0.193328 0.0070989 0)
(0.19365 0.00886056 0)
(0.194568 0.0102901 0)
(0.195981 0.0110399 0)
(0.197498 0.0112054 0)
(0.198775 0.010994 0)
(0.199645 0.0105238 0)
(0.20006 0.00985845 0)
(0.200026 0.00906884 0)
(0.199577 0.00825023 0)
(0.19877 0.00749329 0)
(0.197685 0.00684938 0)
(0.196401 0.00632543 0)
(0.194988 0.00589967 0)
(0.193488 0.0055454 0)
(0.191922 0.00524046 0)
(0.190301 0.00496901 0)
(0.188628 0.00472057 0)
(0.186906 0.00448868 0)
(0.185137 0.00426952 0)
(0.183328 0.00406096 0)
(0.181481 0.00386185 0)
(0.179605 0.00367168 0)
(0.177706 0.00349025 0)
(0.17579 0.00331754 0)
(0.173864 0.00315351 0)
(0.171934 0.00299814 0)
(0.170006 0.00285122 0)
(0.168084 0.00271254 0)
(0.166172 0.00258169 0)
(0.164276 0.00245835 0)
(0.162397 0.00234202 0)
(0.160539 0.00223236 0)
(0.158704 0.0021289 0)
(0.156895 0.00203135 0)
(0.155113 0.00193928 0)
(0.15336 0.00185245 0)
(0.151636 0.00177047 0)
(0.149944 0.00169316 0)
(0.148282 0.00162013 0)
(0.146654 0.00155128 0)
(0.145056 0.00148622 0)
(0.143492 0.00142488 0)
(0.141959 0.00136688 0)
(0.140459 0.0013122 0)
(0.138989 0.00126044 0)
(0.137553 0.00121164 0)
(0.136144 0.00116536 0)
(0.13477 0.00112171 0)
(0.133421 0.00108024 0)
(0.132106 0.00104109 0)
(0.130814 0.00100382 0)
(0.129556 0.00096859 0)
(0.128318 0.000934956 0)
(0.127113 0.00090315 0)
(0.125927 0.000872672 0)
(0.124774 0.000843841 0)
(0.123636 0.000816106 0)
(0.122532 0.000789859 0)
(0.12144 0.000764512 0)
(0.120383 0.000740513 0)
(0.119333 0.000717243 0)
(0.118321 0.000695215 0)
(0.117311 0.000673747 0)
(0.116342 0.000653451 0)
(0.11537 0.000633553 0)
(0.114442 0.000614776 0)
(0.113505 0.000596255 0)
(0.112617 0.000578816 0)
(0.111713 0.000561507 0)
(0.110864 0.000545255 0)
(0.109992 0.000529004 0)
(0.109181 0.00051382 0)
(0.108337 0.000498495 0)
(0.107565 0.000484273 0)
(0.106746 0.000469771 0)
(0.106013 0.000456428 0)
(0.105218 0.000442658 0)
(0.104525 0.00043013 0)
(0.10375 0.000417021 0)
(0.103097 0.000405264 0)
(0.10234 0.000392749 0)
(0.10173 0.000381755 0)
(0.100986 0.000369788 0)
(0.100421 0.000359559 0)
(0.0996868 0.00034812 0)
(0.0991696 0.000338682 0)
(0.0984395 0.00032776 0)
(0.0979745 0.000319192 0)
(0.0972418 0.000308774 0)
(0.0968343 0.000301184 0)
(0.0960908 0.000291343 0)
(0.0957473 0.000284842 0)
(0.0949827 0.000275672 0)
(0.0947112 0.000270449 0)
(0.0939125 0.000262244 0)
(0.0937229 0.000258279 0)
(0.0928741 0.000252096 0)
(0.0927771 0.000249344 0)
(0.0918606 0.000249487 0)
(0.194314 0.0067769 0)
(0.194605 0.00806634 0)
(0.195288 0.00923169 0)
(0.196385 0.00999604 0)
(0.197708 0.0102825 0)
(0.199004 0.0101942 0)
(0.200102 0.00985632 0)
(0.200932 0.00935814 0)
(0.201484 0.00876544 0)
(0.201769 0.00814062 0)
(0.201815 0.00754504 0)
(0.201665 0.00702149 0)
(0.201373 0.00658495 0)
(0.200987 0.00622637 0)
(0.200542 0.00592769 0)
(0.200055 0.00567178 0)
(0.199533 0.00544568 0)
(0.198975 0.00524043 0)
(0.198379 0.00505016 0)
(0.19774 0.00487101 0)
(0.197058 0.00470061 0)
(0.196331 0.00453736 0)
(0.195561 0.00438041 0)
(0.194748 0.00422919 0)
(0.193895 0.0040835 0)
(0.193003 0.00394311 0)
(0.192076 0.00380802 0)
(0.191116 0.003678 0)
(0.190125 0.00355304 0)
(0.189105 0.0034328 0)
(0.188061 0.00331724 0)
(0.186991 0.00320595 0)
(0.185902 0.00309891 0)
(0.184792 0.00299572 0)
(0.183667 0.0028964 0)
(0.182524 0.00280057 0)
(0.181371 0.00270831 0)
(0.180203 0.00261923 0)
(0.17903 0.00253351 0)
(0.177845 0.00245073 0)
(0.176658 0.00237112 0)
(0.175462 0.00229423 0)
(0.174268 0.00222038 0)
(0.173068 0.00214903 0)
(0.171872 0.00208058 0)
(0.170672 0.00201442 0)
(0.169481 0.00195103 0)
(0.168285 0.00188973 0)
(0.167102 0.00183106 0)
(0.165915 0.00177427 0)
(0.164744 0.00171999 0)
(0.16357 0.00166735 0)
(0.162414 0.00161712 0)
(0.161254 0.00156831 0)
(0.160116 0.00152181 0)
(0.158973 0.00147647 0)
(0.157856 0.00143339 0)
(0.156731 0.00139123 0)
(0.155637 0.00135126 0)
(0.154531 0.00131198 0)
(0.153461 0.00127484 0)
(0.152376 0.00123815 0)
(0.151332 0.00120359 0)
(0.150267 0.00116922 0)
(0.149251 0.00113703 0)
(0.148206 0.00110472 0)
(0.147219 0.00107467 0)
(0.146195 0.0010442 0)
(0.145238 0.0010161 0)
(0.144233 0.000987273 0)
(0.143308 0.000960955 0)
(0.142322 0.000933565 0)
(0.14143 0.000908898 0)
(0.140462 0.00088276 0)
(0.139605 0.000859623 0)
(0.138653 0.000834578 0)
(0.137833 0.000812883 0)
(0.136896 0.00078879 0)
(0.136115 0.000768468 0)
(0.13519 0.000745202 0)
(0.134451 0.000726218 0)
(0.133535 0.000703654 0)
(0.132843 0.00068602 0)
(0.131931 0.000664069 0)
(0.131289 0.000647809 0)
(0.130378 0.000626419 0)
(0.129791 0.000611589 0)
(0.128875 0.000590727 0)
(0.128349 0.000577445 0)
(0.127422 0.000557111 0)
(0.126962 0.000545504 0)
(0.126015 0.000525845 0)
(0.12563 0.000516016 0)
(0.124654 0.000497274 0)
(0.124352 0.000489373 0)
(0.123334 0.0004721 0)
(0.123125 0.000466085 0)
(0.122052 0.000451598 0)
(0.121945 0.000447796 0)
(0.120801 0.000439329 0)
(0.195156 0.00650502 0)
(0.195425 0.00750644 0)
(0.195961 0.00843701 0)
(0.196788 0.00913018 0)
(0.197824 0.00947846 0)
(0.198907 0.00949781 0)
(0.199892 0.0092763 0)
(0.200698 0.00890251 0)
(0.201301 0.00844293 0)
(0.201708 0.00794813 0)
(0.201941 0.00746115 0)
(0.20203 0.00701587 0)
(0.202014 0.00663039 0)
(0.201931 0.0063052 0)
(0.201812 0.00603075 0)
(0.201674 0.00579469 0)
(0.201528 0.0055865 0)
(0.201371 0.00539832 0)
(0.201206 0.00522502 0)
(0.201024 0.00506306 0)
(0.200827 0.00491037 0)
(0.200608 0.0047653 0)
(0.20037 0.00462703 0)
(0.200108 0.00449469 0)
(0.199827 0.00436801 0)
(0.199522 0.0042464 0)
(0.199198 0.00412986 0)
(0.19885 0.00401786 0)
(0.198484 0.00391048 0)
(0.198093 0.00380711 0)
(0.197685 0.00370789 0)
(0.197253 0.00361214 0)
(0.196805 0.00352005 0)
(0.196332 0.00343089 0)
(0.195844 0.00334498 0)
(0.195332 0.00326155 0)
(0.194807 0.00318104 0)
(0.194257 0.00310265 0)
(0.193696 0.00302694 0)
(0.19311 0.00295306 0)
(0.192516 0.0028817 0)
(0.191895 0.00281189 0)
(0.191269 0.00274453 0)
(0.190617 0.00267849 0)
(0.189962 0.00261484 0)
(0.18928 0.00255228 0)
(0.188599 0.00249209 0)
(0.18789 0.00243278 0)
(0.187185 0.00237582 0)
(0.186451 0.00231952 0)
(0.185726 0.00226558 0)
(0.184969 0.00221208 0)
(0.184227 0.00216098 0)
(0.18345 0.00211007 0)
(0.182693 0.00206164 0)
(0.181899 0.0020131 0)
(0.18113 0.00196718 0)
(0.180321 0.00192083 0)
(0.179543 0.00187724 0)
(0.17872 0.00183292 0)
(0.177937 0.00179152 0)
(0.177102 0.00174905 0)
(0.176317 0.00170972 0)
(0.175471 0.00166891 0)
(0.174687 0.00163155 0)
(0.173832 0.00159223 0)
(0.173052 0.00155671 0)
(0.172189 0.00151874 0)
(0.171416 0.00148498 0)
(0.170546 0.00144821 0)
(0.169784 0.00141612 0)
(0.168907 0.0013804 0)
(0.168159 0.00134994 0)
(0.167276 0.0013151 0)
(0.166545 0.00128621 0)
(0.165656 0.00125213 0)
(0.164946 0.00122479 0)
(0.164049 0.00119135 0)
(0.163366 0.00116555 0)
(0.16246 0.00113264 0)
(0.161807 0.00110839 0)
(0.160891 0.0010759 0)
(0.160273 0.00105327 0)
(0.159344 0.00102112 0)
(0.158768 0.00100017 0)
(0.157822 0.000968365 0)
(0.157292 0.000949171 0)
(0.156327 0.000917723 0)
(0.15585 0.000900433 0)
(0.154859 0.000869413 0)
(0.154443 0.000854179 0)
(0.153421 0.000823844 0)
(0.153073 0.000810777 0)
(0.152011 0.000781493 0)
(0.151739 0.000770851 0)
(0.150631 0.000743236 0)
(0.150442 0.000735211 0)
(0.149276 0.000710551 0)
(0.14918 0.00070593 0)
(0.147947 0.000686291 0)
(0.195892 0.00625445 0)
(0.196137 0.00704865 0)
(0.196566 0.00778811 0)
(0.197196 0.00837694 0)
(0.197991 0.00873199 0)
(0.198855 0.00883162 0)
(0.199685 0.0087173 0)
(0.2004 0.00845515 0)
(0.200965 0.0081056 0)
(0.201372 0.00771494 0)
(0.201639 0.00731837 0)
(0.201786 0.00694223 0)
(0.201847 0.00660357 0)
(0.201847 0.006308 0)
(0.201815 0.0060525 0)
(0.201765 0.0058293 0)
(0.201714 0.00563066 0)
(0.201659 0.00544988 0)
(0.201605 0.0052828 0)
(0.201546 0.00512628 0)
(0.201485 0.0049789 0)
(0.201414 0.00483915 0)
(0.20134 0.00470663 0)
(0.201255 0.0045803 0)
(0.201167 0.00446016 0)
(0.201066 0.00434529 0)
(0.200964 0.00423592 0)
(0.200849 0.00413115 0)
(0.200733 0.00403139 0)
(0.200602 0.00393562 0)
(0.200471 0.0038444 0)
(0.200325 0.00375656 0)
(0.200178 0.0036728 0)
(0.200015 0.00359184 0)
(0.199852 0.00351453 0)
(0.19967 0.00343948 0)
(0.199489 0.00336776 0)
(0.199288 0.00329782 0)
(0.199089 0.00323097 0)
(0.198867 0.00316547 0)
(0.198649 0.00310292 0)
(0.198405 0.00304134 0)
(0.198168 0.00298262 0)
(0.197902 0.0029245 0)
(0.197645 0.00286923 0)
(0.197355 0.0028142 0)
(0.197078 0.00276205 0)
(0.196765 0.00270977 0)
(0.196468 0.00266044 0)
(0.196131 0.0026106 0)
(0.195814 0.00256381 0)
(0.195452 0.00251614 0)
(0.195117 0.00247166 0)
(0.194731 0.00242588 0)
(0.194377 0.00238353 0)
(0.193967 0.0023394 0)
(0.193595 0.00229899 0)
(0.193161 0.00225629 0)
(0.192774 0.00221763 0)
(0.192314 0.00217615 0)
(0.191913 0.00213909 0)
(0.191429 0.00209868 0)
(0.191015 0.00206312 0)
(0.190507 0.00202356 0)
(0.190082 0.00198944 0)
(0.18955 0.00195055 0)
(0.189116 0.00191774 0)
(0.188561 0.00187939 0)
(0.18812 0.00184783 0)
(0.18754 0.00180991 0)
(0.187096 0.00177955 0)
(0.186492 0.00174191 0)
(0.186047 0.00171274 0)
(0.185419 0.00167521 0)
(0.184976 0.00164722 0)
(0.184324 0.00160973 0)
(0.183887 0.00158292 0)
(0.183209 0.00154539 0)
(0.182781 0.00151978 0)
(0.182077 0.00148211 0)
(0.181663 0.00145775 0)
(0.180932 0.00141989 0)
(0.180536 0.00139687 0)
(0.179776 0.00135882 0)
(0.179403 0.00133722 0)
(0.178613 0.00129903 0)
(0.178268 0.00127896 0)
(0.177444 0.00124071 0)
(0.177132 0.00122236 0)
(0.176273 0.00118421 0)
(0.176 0.00116778 0)
(0.175102 0.00113008 0)
(0.174873 0.00111574 0)
(0.173933 0.00107891 0)
(0.173754 0.00106714 0)
(0.172767 0.00103181 0)
(0.172644 0.00102304 0)
(0.171604 0.000990433 0)
(0.171542 0.000985742 0)
(0.170445 0.000957132 0)
(0.196541 0.00601141 0)
(0.196758 0.00664533 0)
(0.197104 0.00723332 0)
(0.197588 0.0077208 0)
(0.198194 0.0080519 0)
(0.198869 0.00819823 0)
(0.199545 0.00817073 0)
(0.200155 0.00800785 0)
(0.200662 0.00775601 0)
(0.201047 0.00745574 0)
(0.201318 0.00713863 0)
(0.201487 0.00682699 0)
(0.201582 0.00653605 0)
(0.201618 0.00627305 0)
(0.201622 0.0060392 0)
(0.201604 0.00583045 0)
(0.201581 0.00564198 0)
(0.201552 0.00546843 0)
(0.201526 0.00530675 0)
(0.201494 0.00515408 0)
(0.201465 0.00500972 0)
(0.201428 0.00487222 0)
(0.201393 0.00474181 0)
(0.201349 0.00461724 0)
(0.201308 0.00449902 0)
(0.201259 0.00438581 0)
(0.201215 0.00427837 0)
(0.201161 0.00417523 0)
(0.201114 0.0040774 0)
(0.201057 0.00398327 0)
(0.201009 0.00389408 0)
(0.200948 0.00380798 0)
(0.200897 0.00372648 0)
(0.200833 0.00364747 0)
(0.20078 0.00357276 0)
(0.20071 0.00349996 0)
(0.200654 0.00343122 0)
(0.20058 0.00336386 0)
(0.20052 0.00330039 0)
(0.200439 0.00323781 0)
(0.200376 0.00317905 0)
(0.200287 0.00312067 0)
(0.200218 0.00306613 0)
(0.200121 0.00301147 0)
(0.200046 0.00296072 0)
(0.199939 0.00290936 0)
(0.199858 0.00286203 0)
(0.19974 0.0028136 0)
(0.199653 0.00276935 0)
(0.199522 0.00272347 0)
(0.199427 0.00268199 0)
(0.199283 0.00263832 0)
(0.199181 0.00259931 0)
(0.199023 0.00255753 0)
(0.198913 0.00252078 0)
(0.198739 0.00248059 0)
(0.198621 0.00244587 0)
(0.198431 0.00240699 0)
(0.198305 0.00237405 0)
(0.198097 0.00233626 0)
(0.197963 0.00230488 0)
(0.197737 0.00226793 0)
(0.197596 0.002238 0)
(0.19735 0.00220167 0)
(0.197202 0.00217309 0)
(0.196936 0.00213713 0)
(0.196781 0.00210974 0)
(0.196494 0.00207399 0)
(0.196333 0.00204763 0)
(0.196023 0.00201197 0)
(0.195859 0.0019866 0)
(0.195526 0.00195086 0)
(0.195357 0.00192646 0)
(0.195 0.00189043 0)
(0.19483 0.00186689 0)
(0.194448 0.00183048 0)
(0.194277 0.00180779 0)
(0.193869 0.00177099 0)
(0.1937 0.00174913 0)
(0.193265 0.00171184 0)
(0.1931 0.00169082 0)
(0.192636 0.00165292 0)
(0.192477 0.00163283 0)
(0.191984 0.00159442 0)
(0.191833 0.00157528 0)
(0.191311 0.00153646 0)
(0.19117 0.00151839 0)
(0.190616 0.00147924 0)
(0.190489 0.00146242 0)
(0.189903 0.00142311 0)
(0.189791 0.0014078 0)
(0.189171 0.0013688 0)
(0.189078 0.00135516 0)
(0.188423 0.00131689 0)
(0.188351 0.0013056 0)
(0.187659 0.00126862 0)
(0.18761 0.00126022 0)
(0.18688 0.0012259 0)
(0.186856 0.00122151 0)
(0.186087 0.00119061 0)
(0.197087 0.00578606 0)
(0.197275 0.00629953 0)
(0.197558 0.00677574 0)
(0.197938 0.00718054 0)
(0.198407 0.00747847 0)
(0.198934 0.00764503 0)
(0.199476 0.00767757 0)
(0.199985 0.00759382 0)
(0.200427 0.00742461 0)
(0.200778 0.00720171 0)
(0.201041 0.00695306 0)
(0.201218 0.00669863 0)
(0.20133 0.00645269 0)
(0.201388 0.00622259 0)
(0.201415 0.00601193 0)
(0.201416 0.0058192 0)
(0.20141 0.00564224 0)
(0.201394 0.00547698 0)
(0.20138 0.00532162 0)
(0.201358 0.00517347 0)
(0.201339 0.0050326 0)
(0.201312 0.00489741 0)
(0.201288 0.00476885 0)
(0.201254 0.0046454 0)
(0.201226 0.0045282 0)
(0.201189 0.00441547 0)
(0.201159 0.00430858 0)
(0.201119 0.00420546 0)
(0.201089 0.00410785 0)
(0.201048 0.0040134 0)
(0.201019 0.00392418 0)
(0.200978 0.00383757 0)
(0.200951 0.00375596 0)
(0.20091 0.00367639 0)
(0.200884 0.00360162 0)
(0.200843 0.00352832 0)
(0.200818 0.00345968 0)
(0.200777 0.00339195 0)
(0.200754 0.00332881 0)
(0.200712 0.00326602 0)
(0.200691 0.00320785 0)
(0.200647 0.00314945 0)
(0.200627 0.00309577 0)
(0.20058 0.00304129 0)
(0.200562 0.00299168 0)
(0.200512 0.0029407 0)
(0.200494 0.00289478 0)
(0.200441 0.00284694 0)
(0.200423 0.00280436 0)
(0.200366 0.00275927 0)
(0.200348 0.00271972 0)
(0.200285 0.00267702 0)
(0.200267 0.0026402 0)
(0.200198 0.00259954 0)
(0.20018 0.00256521 0)
(0.200104 0.00252629 0)
(0.200085 0.00249421 0)
(0.200001 0.00245677 0)
(0.199981 0.00242664 0)
(0.199889 0.00239044 0)
(0.199868 0.00236202 0)
(0.199766 0.00232677 0)
(0.199743 0.00229995 0)
(0.199631 0.00226539 0)
(0.199607 0.00224005 0)
(0.199484 0.00220597 0)
(0.199459 0.00218189 0)
(0.199322 0.00214811 0)
(0.199296 0.00212503 0)
(0.199147 0.00209144 0)
(0.19912 0.00206932 0)
(0.198956 0.00203569 0)
(0.198928 0.00201458 0)
(0.198749 0.0019807 0)
(0.19872 0.00196034 0)
(0.198526 0.00192613 0)
(0.198497 0.0019064 0)
(0.198285 0.00187191 0)
(0.198256 0.00185283 0)
(0.198027 0.00181791 0)
(0.197999 0.00179954 0)
(0.197751 0.00176396 0)
(0.197724 0.00174622 0)
(0.197458 0.0017103 0)
(0.197432 0.00169309 0)
(0.197146 0.00165688 0)
(0.197122 0.0016405 0)
(0.196816 0.00160396 0)
(0.196795 0.00158854 0)
(0.196467 0.00155191 0)
(0.196449 0.00153753 0)
(0.196101 0.00150152 0)
(0.196086 0.00148843 0)
(0.195716 0.00145309 0)
(0.195706 0.00144236 0)
(0.195313 0.00140846 0)
(0.195306 0.0014 0)
(0.194892 0.001369 0)
(0.194889 0.00136453 0)
(0.194451 0.0013369 0)
(0.197559 0.00558618 0)
(0.19772 0.00601097 0)
(0.197951 0.00640505 0)
(0.198251 0.00674534 0)
(0.198618 0.00700919 0)
(0.199029 0.00717805 0)
(0.19946 0.00724557 0)
(0.199875 0.00721809 0)
(0.200249 0.00711402 0)
(0.20056 0.00695561 0)
(0.200805 0.00676568 0)
(0.20098 0.00656159 0)
(0.201101 0.00635688 0)
(0.201172 0.00615871 0)
(0.201214 0.00597194 0)
(0.20123 0.00579652 0)
(0.201237 0.00563244 0)
(0.201231 0.00547677 0)
(0.201225 0.00532895 0)
(0.20121 0.0051865 0)
(0.201197 0.00505015 0)
(0.201176 0.00491819 0)
(0.201159 0.00479215 0)
(0.201132 0.00467029 0)
(0.201109 0.00455437 0)
(0.201078 0.00444224 0)
(0.201054 0.00433586 0)
(0.20102 0.0042327 0)
(0.200996 0.00413508 0)
(0.200962 0.00404011 0)
(0.200938 0.00395053 0)
(0.200905 0.00386309 0)
(0.200883 0.00378089 0)
(0.20085 0.00370033 0)
(0.20083 0.00362489 0)
(0.200798 0.00355055 0)
(0.20078 0.00348127 0)
(0.200749 0.00341251 0)
(0.200734 0.00334882 0)
(0.200703 0.00328506 0)
(0.200691 0.00322646 0)
(0.20066 0.00316719 0)
(0.200651 0.00311321 0)
(0.20062 0.00305797 0)
(0.200613 0.00300819 0)
(0.200582 0.0029566 0)
(0.200577 0.00291063 0)
(0.200546 0.00286231 0)
(0.200543 0.00281981 0)
(0.20051 0.00277439 0)
(0.20051 0.00273506 0)
(0.200476 0.00269215 0)
(0.200478 0.00265571 0)
(0.200442 0.00261496 0)
(0.200445 0.00258114 0)
(0.200407 0.00254229 0)
(0.200412 0.0025108 0)
(0.200371 0.00247363 0)
(0.200378 0.00244417 0)
(0.200334 0.00240842 0)
(0.200342 0.00238078 0)
(0.200294 0.0023461 0)
(0.200304 0.00232018 0)
(0.200251 0.00228631 0)
(0.200263 0.00226195 0)
(0.200205 0.00222876 0)
(0.200218 0.00220568 0)
(0.200155 0.00217305 0)
(0.200169 0.00215093 0)
(0.200101 0.00211867 0)
(0.200114 0.00209757 0)
(0.20004 0.00206535 0)
(0.200055 0.00204533 0)
(0.199974 0.00201307 0)
(0.199989 0.00199375 0)
(0.199901 0.00196143 0)
(0.199917 0.00194254 0)
(0.199821 0.00191019 0)
(0.199836 0.00189191 0)
(0.199732 0.00185924 0)
(0.199749 0.00184177 0)
(0.199635 0.00180858 0)
(0.199652 0.00179144 0)
(0.19953 0.00175835 0)
(0.199545 0.00174153 0)
(0.199414 0.00170825 0)
(0.199429 0.00169231 0)
(0.199288 0.00165882 0)
(0.199302 0.00164371 0)
(0.199151 0.00161045 0)
(0.199164 0.00159598 0)
(0.199003 0.0015637 0)
(0.199014 0.00155064 0)
(0.198841 0.00151879 0)
(0.198851 0.00150809 0)
(0.198668 0.00147839 0)
(0.198674 0.00146941 0)
(0.19848 0.00144241 0)
(0.198484 0.00143777 0)
(0.198278 0.00141451 0)
(0.197991 0.00540306 0)
(0.198125 0.00575849 0)
(0.198311 0.00608832 0)
(0.198546 0.00637663 0)
(0.198829 0.0066087 0)
(0.199145 0.00677109 0)
(0.19948 0.00685767 0)
(0.199809 0.00686935 0)
(0.200116 0.00681622 0)
(0.200381 0.00671212 0)
(0.200599 0.006574 0)
(0.200763 0.00641569 0)
(0.200884 0.00624954 0)
(0.200963 0.00608236 0)
(0.201014 0.00591977 0)
(0.201041 0.00576268 0)
(0.201056 0.00561262 0)
(0.201059 0.00546771 0)
(0.201059 0.00532849 0)
(0.201051 0.00519283 0)
(0.201043 0.00506198 0)
(0.201029 0.00493422 0)
(0.201016 0.00481147 0)
(0.200995 0.0046919 0)
(0.200977 0.00457772 0)
(0.200952 0.00446661 0)
(0.200932 0.00436098 0)
(0.200904 0.00425804 0)
(0.200883 0.00416051 0)
(0.200855 0.00406524 0)
(0.200835 0.0039753 0)
(0.200807 0.0038872 0)
(0.200787 0.00380437 0)
(0.20076 0.00372294 0)
(0.200743 0.0036467 0)
(0.200716 0.0035714 0)
(0.2007 0.00350128 0)
(0.200675 0.00343153 0)
(0.200662 0.00336702 0)
(0.200637 0.00330231 0)
(0.200626 0.00324294 0)
(0.200602 0.00318277 0)
(0.200593 0.00312808 0)
(0.20057 0.00307205 0)
(0.200564 0.00302159 0)
(0.200541 0.00296932 0)
(0.200537 0.00292271 0)
(0.200515 0.00287382 0)
(0.200512 0.00283074 0)
(0.200491 0.00278483 0)
(0.20049 0.00274502 0)
(0.200469 0.00270169 0)
(0.20047 0.00266483 0)
(0.200448 0.00262378 0)
(0.200452 0.00258957 0)
(0.20043 0.00255056 0)
(0.200435 0.00251867 0)
(0.200412 0.00248151 0)
(0.200419 0.00245165 0)
(0.200396 0.00241603 0)
(0.200404 0.00238808 0)
(0.20038 0.00235358 0)
(0.200389 0.00232742 0)
(0.200364 0.00229384 0)
(0.200375 0.00226924 0)
(0.200349 0.00223652 0)
(0.200361 0.00221312 0)
(0.200333 0.00218122 0)
(0.200347 0.00215873 0)
(0.200317 0.00212731 0)
(0.200332 0.00210595 0)
(0.2003 0.00207457 0)
(0.200315 0.00205433 0)
(0.200281 0.00202315 0)
(0.200298 0.00200348 0)
(0.200262 0.00197254 0)
(0.200278 0.00195318 0)
(0.20024 0.00192234 0)
(0.200257 0.0019037 0)
(0.200215 0.00187251 0)
(0.200233 0.00185481 0)
(0.200188 0.00182339 0)
(0.200205 0.0018057 0)
(0.200158 0.00177474 0)
(0.200174 0.00175743 0)
(0.200123 0.00172619 0)
(0.20014 0.00170997 0)
(0.200084 0.00167866 0)
(0.2001 0.0016632 0)
(0.200041 0.00163252 0)
(0.200054 0.00161745 0)
(0.199992 0.00158784 0)
(0.200003 0.00157475 0)
(0.199936 0.00154531 0)
(0.199945 0.00153436 0)
(0.199873 0.00150791 0)
(0.199879 0.00149868 0)
(0.199802 0.00147431 0)
(0.199806 0.00146977 0)
(0.199724 0.00144953 0)
(0.198388 0.00523841 0)
(0.198496 0.00553943 0)
(0.198641 0.00581892 0)
(0.198821 0.00606581 0)
(0.199035 0.00627032 0)
(0.199274 0.00642285 0)
(0.199528 0.00651858 0)
(0.199782 0.00655617 0)
(0.200024 0.00654079 0)
(0.20024 0.00648016 0)
(0.200424 0.00638589 0)
(0.20057 0.00626792 0)
(0.200683 0.00613673 0)
(0.200762 0.0059985 0)
(0.200816 0.00585914 0)
(0.200849 0.00572031 0)
(0.20087 0.00558454 0)
(0.200879 0.00545092 0)
(0.200883 0.00532081 0)
(0.200881 0.00519255 0)
(0.200878 0.00506778 0)
(0.200868 0.00494488 0)
(0.200859 0.00482599 0)
(0.200845 0.00470931 0)
(0.200831 0.0045973 0)
(0.200812 0.00448767 0)
(0.200796 0.00438305 0)
(0.200775 0.00428067 0)
(0.200757 0.0041834 0)
(0.200735 0.00408812 0)
(0.200717 0.00399794 0)
(0.200695 0.00390945 0)
(0.200678 0.00382604 0)
(0.200656 0.00374399 0)
(0.200641 0.00366698 0)
(0.20062 0.00359093 0)
(0.200606 0.00351995 0)
(0.200586 0.00344939 0)
(0.200573 0.00338401 0)
(0.200554 0.00331849 0)
(0.200543 0.00325826 0)
(0.200525 0.00319735 0)
(0.200516 0.00314181 0)
(0.200499 0.00308511 0)
(0.200491 0.00303382 0)
(0.200475 0.00298098 0)
(0.200469 0.00293356 0)
(0.200454 0.00288418 0)
(0.200449 0.00284034 0)
(0.200434 0.00279399 0)
(0.200431 0.00275348 0)
(0.200417 0.00270979 0)
(0.200415 0.00267227 0)
(0.200402 0.00263095 0)
(0.200401 0.00259607 0)
(0.200388 0.00255691 0)
(0.200389 0.00252433 0)
(0.200376 0.00248713 0)
(0.200378 0.00245659 0)
(0.200365 0.00242099 0)
(0.200368 0.00239244 0)
(0.200355 0.002358 0)
(0.20036 0.00233127 0)
(0.200347 0.00229785 0)
(0.200352 0.00227262 0)
(0.200339 0.0022402 0)
(0.200345 0.00221611 0)
(0.200332 0.00218466 0)
(0.200339 0.0021615 0)
(0.200326 0.00213053 0)
(0.200334 0.00210861 0)
(0.20032 0.00207769 0)
(0.200328 0.00205685 0)
(0.200314 0.00202631 0)
(0.200323 0.00200595 0)
(0.200309 0.00197582 0)
(0.200318 0.00195578 0)
(0.200303 0.00192577 0)
(0.200312 0.00190657 0)
(0.200296 0.00187615 0)
(0.200306 0.00185795 0)
(0.200289 0.00182757 0)
(0.200299 0.00180919 0)
(0.200282 0.0017794 0)
(0.200291 0.0017616 0)
(0.200272 0.00173141 0)
(0.200282 0.00171482 0)
(0.200262 0.00168473 0)
(0.20027 0.00166884 0)
(0.200249 0.00163966 0)
(0.200256 0.00162419 0)
(0.200233 0.00159593 0)
(0.20024 0.00158294 0)
(0.200214 0.00155491 0)
(0.20022 0.00154368 0)
(0.200192 0.00151908 0)
(0.200196 0.00151003 0)
(0.200166 0.00148701 0)
(0.200167 0.0014826 0)
(0.200135 0.00146395 0)