/*--------------------------------*- C++ -*----------------------------------*\
| =========                 |                                                 |
| \\      /  F ield         | OpenFOAM: The Open Source CFD Toolbox           |
|  \\    /   O peration     | Version:  2.3.0                                 |
|   \\  /    A nd           | Web:      www.OpenFOAM.org                      |
|    \\/     M anipulation  |                                                 |
\*---------------------------------------------------------------------------*/
FoamFile
{
    version     2.0;
    format      ascii;
    class       surfaceScalarField;
    location    "0.15";
    object      phi;
}
// * * * * * * * * * * * * * * * * * * * * * * * * * * * * * * * * * * * * * //

dimensions      [0 3 -1 0 0 0 0];

internalField   nonuniform List<scalar> 
4357
(
5.00034e-08
2.04177e-09
-5.20452e-08
4.78536e-08
2.14983e-09
4.56941e-08
2.15951e-09
4.35508e-08
2.14323e-09
4.14361e-08
2.11475e-09
3.93608e-08
2.0753e-09
3.73337e-08
2.02703e-09
3.53618e-08
1.97191e-09
3.34506e-08
1.91125e-09
3.16048e-08
1.84578e-09
2.98288e-08
1.776e-09
2.81265e-08
1.70235e-09
2.65012e-08
1.62528e-09
2.49559e-08
1.54527e-09
2.34931e-08
1.46283e-09
2.21145e-08
1.37856e-09
2.08215e-08
1.29307e-09
1.96144e-08
1.20706e-09
1.84931e-08
1.12125e-09
1.74568e-08
1.03637e-09
1.65036e-08
9.53135e-10
1.56314e-08
8.72259e-10
1.4837e-08
7.94384e-10
1.41169e-08
7.20084e-10
1.34671e-08
6.49838e-10
1.28831e-08
5.84022e-10
1.23602e-08
5.22896e-10
1.18936e-08
4.66603e-10
1.14784e-08
4.15171e-10
1.11099e-08
3.68523e-10
1.07834e-08
3.26486e-10
1.04946e-08
2.88813e-10
1.02394e-08
2.55188e-10
1.00141e-08
2.25244e-10
9.81556e-09
1.98572e-10
9.64083e-09
1.74726e-10
9.4876e-09
1.53234e-10
9.35401e-09
1.33585e-10
9.2388e-09
1.15217e-10
9.14127e-09
9.75208e-11
9.06135e-09
7.99267e-11
8.99921e-09
6.21402e-11
8.95473e-09
4.44758e-11
8.92675e-09
2.79782e-11
8.91268e-09
1.40693e-11
8.90845e-09
4.2346e-12
8.91051e-09
-2.06235e-12
8.91558e-09
-5.0635e-12
8.92214e-09
-6.56123e-12
8.92943e-09
-7.2898e-12
8.93686e-09
-7.43437e-12
8.94375e-09
-6.88508e-12
8.94938e-09
-5.6377e-12
8.95312e-09
-3.73819e-12
8.95419e-09
-1.07217e-12
8.95112e-09
3.0764e-12
8.94247e-09
8.64347e-12
8.92778e-09
1.46943e-11
8.90731e-09
2.04752e-11
8.88172e-09
2.55814e-11
8.85188e-09
2.98477e-11
8.81862e-09
3.32589e-11
8.78273e-09
3.58834e-11
8.74491e-09
3.78287e-11
8.70569e-09
3.92143e-11
8.66554e-09
4.01555e-11
8.62478e-09
4.07554e-11
8.58368e-09
4.11008e-11
8.54242e-09
4.12617e-11
8.50112e-09
4.12923e-11
8.45989e-09
4.12329e-11
8.41878e-09
4.11124e-11
8.37783e-09
4.09503e-11
8.33707e-09
4.07594e-11
8.29652e-09
4.05474e-11
8.2562e-09
4.03184e-11
8.21613e-09
4.00746e-11
8.17631e-09
3.98165e-11
8.13677e-09
3.95441e-11
8.09751e-09
3.92573e-11
8.05856e-09
3.89557e-11
8.01992e-09
3.86389e-11
7.98161e-09
3.83071e-11
7.94365e-09
3.79602e-11
7.90605e-09
3.75984e-11
7.86883e-09
3.72222e-11
7.832e-09
3.68318e-11
7.79557e-09
3.64279e-11
7.75956e-09
3.60111e-11
7.72398e-09
3.5582e-11
7.68883e-09
3.51415e-11
7.65414e-09
3.46907e-11
7.61991e-09
3.4231e-11
7.58615e-09
3.37649e-11
7.55285e-09
3.32971e-11
7.52001e-09
3.28386e-11
7.48759e-09
3.24229e-11
7.45546e-09
3.21301e-11
7.42334e-09
3.21204e-11
5.39193e-11
5.77541e-08
2.14752e-09
-5.78598e-08
5.75164e-08
2.38745e-09
5.71448e-08
2.5311e-09
5.66603e-08
2.62779e-09
5.60774e-08
2.69762e-09
5.54079e-08
2.74482e-09
5.46629e-08
2.77201e-09
5.38528e-08
2.78205e-09
5.29869e-08
2.77708e-09
5.20743e-08
2.75845e-09
5.11231e-08
2.72713e-09
5.01415e-08
2.684e-09
4.91369e-08
2.6299e-09
4.81164e-08
2.56571e-09
4.70869e-08
2.49237e-09
4.60545e-08
2.4109e-09
4.50252e-08
2.32238e-09
4.40043e-08
2.22798e-09
4.29966e-08
2.12892e-09
4.20066e-08
2.02645e-09
4.10379e-08
1.92181e-09
4.00939e-08
1.81623e-09
3.91775e-08
1.71085e-09
3.82908e-08
1.60672e-09
3.74359e-08
1.50478e-09
3.66141e-08
1.4058e-09
3.58266e-08
1.3104e-09
3.50742e-08
1.21902e-09
3.43574e-08
1.13195e-09
3.36766e-08
1.04931e-09
3.3032e-08
9.71079e-10
3.24237e-08
8.97103e-10
3.18518e-08
8.27113e-10
3.13163e-08
7.60741e-10
3.08174e-08
6.97528e-10
3.03551e-08
6.36945e-10
2.993e-08
5.78401e-10
2.95423e-08
5.21262e-10
2.91926e-08
4.64882e-10
2.88814e-08
4.08718e-10
2.86088e-08
3.5258e-10
2.83739e-08
2.9701e-10
2.81748e-08
2.43537e-10
2.80084e-08
1.94434e-10
2.78706e-08
1.51861e-10
2.7758e-08
1.16858e-10
2.76675e-08
8.83677e-11
2.75972e-08
6.52826e-11
2.75439e-08
4.6775e-11
2.75039e-08
3.26309e-11
2.74735e-08
2.29871e-11
2.74485e-08
1.81058e-11
2.74247e-08
1.8181e-11
2.73975e-08
2.3428e-11
2.73625e-08
3.39411e-11
2.73167e-08
4.8905e-11
2.72589e-08
6.64968e-11
2.71886e-08
8.49025e-11
2.71064e-08
1.02684e-10
2.70131e-08
1.189e-10
2.69099e-08
1.33046e-10
2.67982e-08
1.44946e-10
2.66795e-08
1.54652e-10
2.65549e-08
1.62355e-10
2.64258e-08
1.6832e-10
2.62932e-08
1.72835e-10
2.61577e-08
1.76184e-10
2.60202e-08
1.78621e-10
2.58811e-08
1.80366e-10
2.57408e-08
1.81599e-10
2.55996e-08
1.82462e-10
2.54576e-08
1.83061e-10
2.53151e-08
1.83476e-10
2.51721e-08
1.8376e-10
2.50287e-08
1.8395e-10
2.48849e-08
1.8407e-10
2.47409e-08
1.84134e-10
2.45965e-08
1.84149e-10
2.4452e-08
1.84122e-10
2.43072e-08
1.84052e-10
2.41622e-08
1.83942e-10
2.4017e-08
1.83792e-10
2.38717e-08
1.83603e-10
2.37263e-08
1.83375e-10
2.35808e-08
1.83109e-10
2.34352e-08
1.82807e-10
2.32896e-08
1.8247e-10
2.31439e-08
1.82099e-10
2.29982e-08
1.81696e-10
2.28525e-08
1.81264e-10
2.27069e-08
1.80805e-10
2.25613e-08
1.80321e-10
2.24157e-08
1.79818e-10
2.22701e-08
1.79301e-10
2.21246e-08
1.78783e-10
2.19792e-08
1.78295e-10
2.18337e-08
1.7792e-10
2.16879e-08
1.77971e-10
2.15386e-08
1.81397e-10
2.00836e-10
6.28054e-08
2.13606e-09
-6.2794e-08
6.2822e-08
2.37094e-09
6.28106e-08
2.54245e-09
6.27631e-08
2.67525e-09
6.26762e-08
2.78455e-09
6.25467e-08
2.87436e-09
6.23728e-08
2.94592e-09
6.21541e-08
3.00069e-09
6.18912e-08
3.03998e-09
6.15851e-08
3.06458e-09
6.12372e-08
3.075e-09
6.08495e-08
3.07166e-09
6.04244e-08
3.05502e-09
5.99645e-08
3.0256e-09
5.94728e-08
2.98407e-09
5.89525e-08
2.9312e-09
5.8407e-08
2.86792e-09
5.78397e-08
2.79525e-09
5.72543e-08
2.71438e-09
5.66542e-08
2.62654e-09
5.60429e-08
2.53303e-09
5.5424e-08
2.43516e-09
5.48006e-08
2.3342e-09
5.4176e-08
2.23137e-09
5.3553e-08
2.12777e-09
5.29345e-08
2.02436e-09
5.23229e-08
1.92195e-09
5.17207e-08
1.82119e-09
5.11302e-08
1.72252e-09
5.05532e-08
1.62623e-09
4.99919e-08
1.53241e-09
4.9448e-08
1.44101e-09
4.89233e-08
1.35184e-09
4.84194e-08
1.26456e-09
4.79382e-08
1.17873e-09
4.74814e-08
1.09383e-09
4.70505e-08
1.00927e-09
4.66472e-08
9.24507e-10
4.6273e-08
8.39076e-10
4.59289e-08
7.52824e-10
4.56153e-08
6.66172e-10
4.5332e-08
5.80389e-10
4.50779e-08
4.97633e-10
4.48518e-08
4.20514e-10
4.46524e-08
3.51262e-10
4.44783e-08
2.90979e-10
4.43272e-08
2.39403e-10
4.41966e-08
1.95962e-10
4.40829e-08
1.60409e-10
4.39826e-08
1.32899e-10
4.38918e-08
1.138e-10
4.38064e-08
1.03496e-10
4.37224e-08
1.02206e-10
4.3636e-08
1.09817e-10
4.35444e-08
1.2562e-10
4.34453e-08
1.47967e-10
4.33373e-08
1.74462e-10
4.32195e-08
2.02726e-10
4.30914e-08
2.30797e-10
4.2953e-08
2.57266e-10
4.28048e-08
2.81247e-10
4.26475e-08
3.02294e-10
4.24818e-08
3.20287e-10
4.23089e-08
3.3534e-10
4.21295e-08
3.47711e-10
4.19446e-08
3.57731e-10
4.1755e-08
3.65762e-10
4.15615e-08
3.72155e-10
4.13646e-08
3.77235e-10
4.11649e-08
3.81284e-10
4.09628e-08
3.84539e-10
4.07587e-08
3.87192e-10
4.05528e-08
3.89394e-10
4.03453e-08
3.91262e-10
4.01363e-08
3.92879e-10
3.99261e-08
3.94308e-10
3.97147e-08
3.95591e-10
3.9502e-08
3.96757e-10
3.92883e-08
3.97825e-10
3.90736e-08
3.98809e-10
3.88578e-08
3.99717e-10
3.8641e-08
4.00555e-10
3.84233e-08
4.01327e-10
3.82047e-08
4.02035e-10
3.79851e-08
4.02683e-10
3.77646e-08
4.03274e-10
3.75433e-08
4.0381e-10
3.73211e-08
4.04294e-10
3.70981e-08
4.04729e-10
3.68742e-08
4.05119e-10
3.66495e-08
4.05468e-10
3.64241e-08
4.05781e-10
3.61978e-08
4.06064e-10
3.59708e-08
4.06329e-10
3.5743e-08
4.06596e-10
3.55144e-08
4.06913e-10
3.52849e-08
4.07417e-10
3.50542e-08
4.08656e-10
3.48226e-08
4.12941e-10
4.19923e-10
6.80508e-08
2.15584e-09
-6.80705e-08
6.80597e-08
2.36204e-09
6.80718e-08
2.53035e-09
6.8078e-08
2.66904e-09
6.80755e-08
2.78702e-09
6.80618e-08
2.88803e-09
6.80344e-08
2.97329e-09
6.79913e-08
3.04383e-09
6.79307e-08
3.10062e-09
6.78509e-08
3.14433e-09
6.77506e-08
3.1753e-09
6.76286e-08
3.19375e-09
6.74837e-08
3.19985e-09
6.73155e-08
3.19386e-09
6.71235e-08
3.17608e-09
6.69077e-08
3.14696e-09
6.66686e-08
3.10706e-09
6.64067e-08
3.05711e-09
6.61231e-08
2.99794e-09
6.58192e-08
2.93052e-09
6.54963e-08
2.85587e-09
6.51564e-08
2.7751e-09
6.48013e-08
2.68931e-09
6.44331e-08
2.59958e-09
6.40539e-08
2.50692e-09
6.3666e-08
2.41227e-09
6.32716e-08
2.31642e-09
6.28727e-08
2.22001e-09
6.24717e-08
2.12354e-09
6.20706e-08
2.02735e-09
6.16714e-08
1.93159e-09
6.12761e-08
1.83628e-09
6.08867e-08
1.74127e-09
6.0505e-08
1.64631e-09
6.01327e-08
1.55103e-09
5.97715e-08
1.45499e-09
5.9423e-08
1.35774e-09
5.90886e-08
1.25893e-09
5.87693e-08
1.15838e-09
5.84658e-08
1.0563e-09
5.81785e-08
9.53515e-10
5.79073e-08
8.51596e-10
5.76521e-08
7.52806e-10
5.74129e-08
6.59679e-10
5.71898e-08
5.74391e-10
5.69825e-08
4.98259e-10
5.67902e-08
4.31702e-10
5.66114e-08
3.74811e-10
5.6444e-08
3.27814e-10
5.62858e-08
2.9113e-10
5.61343e-08
2.65234e-10
5.59873e-08
2.50483e-10
5.58426e-08
2.46922e-10
5.56983e-08
2.54109e-10
5.5553e-08
2.70929e-10
5.54055e-08
2.95488e-10
5.52546e-08
3.25332e-10
5.50994e-08
3.57979e-10
5.49389e-08
3.9129e-10
5.47725e-08
4.23623e-10
5.45999e-08
4.53843e-10
5.4421e-08
4.81264e-10
5.42357e-08
5.05569e-10
5.40443e-08
5.26713e-10
5.38472e-08
5.44838e-10
5.36447e-08
5.60207e-10
5.34373e-08
5.73144e-10
5.32255e-08
5.83995e-10
5.30096e-08
5.931e-10
5.27901e-08
6.00771e-10
5.25674e-08
6.07287e-10
5.23417e-08
6.12887e-10
5.21133e-08
6.17768e-10
5.18825e-08
6.22091e-10
5.16494e-08
6.25982e-10
5.14141e-08
6.29539e-10
5.11769e-08
6.32836e-10
5.09377e-08
6.35928e-10
5.06967e-08
6.38855e-10
5.04539e-08
6.41645e-10
5.02093e-08
6.4432e-10
4.99629e-08
6.46894e-10
4.97149e-08
6.49379e-10
4.94651e-08
6.51783e-10
4.92137e-08
6.54112e-10
4.89606e-08
6.56372e-10
4.87058e-08
6.58568e-10
4.84494e-08
6.60705e-10
4.81914e-08
6.62788e-10
4.79317e-08
6.64821e-10
4.76703e-08
6.66811e-10
4.74073e-08
6.68764e-10
4.71427e-08
6.70688e-10
4.68764e-08
6.72598e-10
4.66085e-08
6.74518e-10
4.63389e-08
6.76501e-10
4.60677e-08
6.78677e-10
4.57949e-08
6.81407e-10
4.55228e-08
6.85039e-10
6.83119e-10
7.3696e-08
2.21061e-09
-7.37507e-08
7.36702e-08
2.38785e-09
7.36572e-08
2.54337e-09
7.36486e-08
2.67756e-09
7.36414e-08
2.79426e-09
7.36334e-08
2.89604e-09
7.36226e-08
2.98403e-09
7.36075e-08
3.05895e-09
7.35866e-08
3.12152e-09
7.35587e-08
3.17228e-09
7.35224e-08
3.21158e-09
7.34765e-08
3.23961e-09
7.34198e-08
3.25653e-09
7.33512e-08
3.26253e-09
7.32694e-08
3.25783e-09
7.31736e-08
3.24272e-09
7.30631e-08
3.21761e-09
7.29372e-08
3.18299e-09
7.27957e-08
3.13948e-09
7.26384e-08
3.08778e-09
7.24656e-08
3.02869e-09
7.22776e-08
2.96306e-09
7.20752e-08
2.89175e-09
7.18591e-08
2.81564e-09
7.16305e-08
2.73557e-09
7.13904e-08
2.65232e-09
7.11403e-08
2.56656e-09
7.08814e-08
2.47887e-09
7.06153e-08
2.3897e-09
7.03433e-08
2.29936e-09
7.00668e-08
2.20801e-09
6.97874e-08
2.11571e-09
6.95063e-08
2.02236e-09
6.92248e-08
1.92779e-09
6.89442e-08
1.83171e-09
6.86653e-08
1.73384e-09
6.83892e-08
1.63389e-09
6.81164e-08
1.5317e-09
6.78474e-08
1.42734e-09
6.75825e-08
1.32125e-09
6.73216e-08
1.2144e-09
6.70648e-08
1.10835e-09
6.68125e-08
1.00517e-09
6.6565e-08
9.07113e-10
6.63232e-08
8.16198e-10
6.60876e-08
7.3387e-10
6.58583e-08
6.60964e-10
6.56352e-08
5.97994e-10
6.54175e-08
5.45448e-10
6.52048e-08
5.03842e-10
6.49964e-08
4.73642e-10
6.47918e-08
4.55122e-10
6.45905e-08
4.48214e-10
6.43922e-08
4.52365e-10
6.41967e-08
4.66424e-10
6.40036e-08
4.88622e-10
6.38122e-08
5.16752e-10
6.36216e-08
5.48536e-10
6.3431e-08
5.81931e-10
6.32393e-08
6.15282e-10
6.30458e-08
6.47358e-10
6.28497e-08
6.77335e-10
6.26506e-08
7.04729e-10
6.24479e-08
7.29334e-10
6.22416e-08
7.51143e-10
6.20316e-08
7.70293e-10
6.18177e-08
7.87005e-10
6.16001e-08
8.01548e-10
6.1379e-08
8.14211e-10
6.11545e-08
8.25276e-10
6.09268e-08
8.35005e-10
6.06961e-08
8.43638e-10
6.04624e-08
8.5138e-10
6.02261e-08
8.58409e-10
5.99872e-08
8.64868e-10
5.97459e-08
8.70878e-10
5.95022e-08
8.76531e-10
5.92562e-08
8.81902e-10
5.9008e-08
8.87048e-10
5.87577e-08
8.92011e-10
5.85052e-08
8.96825e-10
5.82505e-08
9.01516e-10
5.79938e-08
9.061e-10
5.7735e-08
9.10595e-10
5.74741e-08
9.1501e-10
5.72111e-08
9.19356e-10
5.69461e-08
9.2364e-10
5.66789e-08
9.2787e-10
5.64096e-08
9.32052e-10
5.61383e-08
9.36194e-10
5.58648e-08
9.40303e-10
5.55891e-08
9.44387e-10
5.53114e-08
9.48456e-10
5.50314e-08
9.52525e-10
5.47493e-08
9.56616e-10
5.44651e-08
9.60768e-10
5.41787e-08
9.65046e-10
5.38906e-08
9.69473e-10
5.36025e-08
9.73221e-10
9.70058e-10
7.97891e-08
2.29146e-09
-7.987e-08
7.97333e-08
2.44367e-09
7.96931e-08
2.58361e-09
7.96615e-08
2.70917e-09
7.96346e-08
2.82109e-09
7.96102e-08
2.92046e-09
7.95863e-08
3.00791e-09
7.95615e-08
3.08381e-09
7.95345e-08
3.14854e-09
7.95043e-08
3.20245e-09
7.94701e-08
3.2458e-09
7.94309e-08
3.2788e-09
7.93858e-08
3.30159e-09
7.9334e-08
3.31437e-09
7.92745e-08
3.31734e-09
7.92064e-08
3.31075e-09
7.91291e-08
3.29494e-09
7.90418e-08
3.27032e-09
7.89439e-08
3.23737e-09
7.8835e-08
3.19666e-09
7.87149e-08
3.14882e-09
7.85834e-08
3.09452e-09
7.84407e-08
3.03446e-09
7.8287e-08
2.96935e-09
7.81227e-08
2.89987e-09
7.79484e-08
2.82666e-09
7.77647e-08
2.7503e-09
7.75723e-08
2.67126e-09
7.7372e-08
2.58995e-09
7.71647e-08
2.50664e-09
7.69512e-08
2.42151e-09
7.67323e-08
2.33463e-09
7.65087e-08
2.24596e-09
7.62811e-08
2.15541e-09
7.605e-08
2.06281e-09
7.58158e-08
1.96799e-09
7.55789e-08
1.87084e-09
7.53392e-08
1.77137e-09
7.50968e-08
1.66979e-09
7.48514e-08
1.56664e-09
7.46029e-08
1.46289e-09
7.43513e-08
1.35992e-09
7.4097e-08
1.25951e-09
7.38406e-08
1.16355e-09
7.35829e-08
1.07384e-09
7.3325e-08
9.91775e-10
7.30676e-08
9.18372e-10
7.28112e-08
8.5435e-10
7.25564e-08
8.0032e-10
7.23034e-08
7.56822e-10
7.20528e-08
7.24282e-10
7.1805e-08
7.02907e-10
7.15606e-08
6.92582e-10
7.13202e-08
6.92768e-10
7.10842e-08
7.02437e-10
7.08527e-08
7.20086e-10
7.06256e-08
7.43869e-10
7.04023e-08
7.71847e-10
7.0182e-08
8.02213e-10
6.99639e-08
8.33435e-10
6.97469e-08
8.64309e-10
6.95303e-08
8.93961e-10
6.93132e-08
9.21811e-10
6.9095e-08
9.47529e-10
6.88752e-08
9.70978e-10
6.86533e-08
9.92168e-10
6.84291e-08
1.01121e-09
6.82024e-08
1.02826e-09
6.7973e-08
1.04355e-09
6.7741e-08
1.05728e-09
6.75064e-08
1.06967e-09
6.72691e-08
1.08094e-09
6.70292e-08
1.09127e-09
6.67868e-08
1.10082e-09
6.65419e-08
1.10975e-09
6.62946e-08
1.11816e-09
6.6045e-08
1.12616e-09
6.5793e-08
1.13384e-09
6.55388e-08
1.14125e-09
6.52824e-08
1.14845e-09
6.50237e-08
1.15548e-09
6.47629e-08
1.16238e-09
6.44998e-08
1.16916e-09
6.42346e-08
1.17585e-09
6.39671e-08
1.18246e-09
6.36975e-08
1.18901e-09
6.34256e-08
1.19551e-09
6.31515e-08
1.20196e-09
6.28752e-08
1.20838e-09
6.25966e-08
1.21478e-09
6.23157e-08
1.22117e-09
6.20326e-08
1.22754e-09
6.17471e-08
1.23393e-09
6.14593e-08
1.24033e-09
6.11691e-08
1.24677e-09
6.08766e-08
1.25326e-09
6.05819e-08
1.2598e-09
6.02851e-08
1.26621e-09
5.99868e-08
1.27154e-09
1.27236e-09
8.63662e-08
2.39311e-09
-8.64678e-08
8.62849e-08
2.52501e-09
8.62186e-08
2.6499e-09
8.61623e-08
2.76542e-09
8.61126e-08
2.87085e-09
8.60669e-08
2.96615e-09
8.60234e-08
3.05141e-09
8.59805e-08
3.12668e-09
8.5937e-08
3.19203e-09
8.58918e-08
3.24761e-09
8.58441e-08
3.29356e-09
8.57929e-08
3.32999e-09
8.57375e-08
3.35703e-09
8.5677e-08
3.37482e-09
8.56108e-08
3.38354e-09
8.55381e-08
3.38341e-09
8.54584e-08
3.37471e-09
8.53709e-08
3.35778e-09
8.52752e-08
3.33302e-09
8.5171e-08
3.30091e-09
8.50579e-08
3.26195e-09
8.49357e-08
3.21669e-09
8.48044e-08
3.16573e-09
8.46641e-08
3.10964e-09
8.4515e-08
3.04899e-09
8.43573e-08
2.98433e-09
8.41915e-08
2.91614e-09
8.40179e-08
2.84485e-09
8.3837e-08
2.77082e-09
8.36494e-08
2.69432e-09
8.34554e-08
2.61552e-09
8.32555e-08
2.53454e-09
8.305e-08
2.45141e-09
8.28393e-08
2.36612e-09
8.26235e-08
2.2786e-09
8.24027e-08
2.18882e-09
8.21767e-08
2.09679e-09
8.19454e-08
2.00265e-09
8.17085e-08
1.90669e-09
8.14657e-08
1.80949e-09
8.12166e-08
1.71193e-09
8.09614e-08
1.6152e-09
8.07001e-08
1.52074e-09
8.04335e-08
1.43015e-09
8.01625e-08
1.34492e-09
7.98879e-08
1.26635e-09
7.96108e-08
1.19547e-09
7.93321e-08
1.13308e-09
7.90525e-08
1.07982e-09
7.87731e-08
1.03623e-09
7.84947e-08
1.00269e-09
7.82183e-08
9.79356e-10
7.79447e-08
9.66128e-10
7.7675e-08
9.62535e-10
7.74097e-08
9.67723e-10
7.71493e-08
9.80477e-10
7.68939e-08
9.99306e-10
7.66431e-08
1.02261e-09
7.63964e-08
1.04887e-09
7.61532e-08
1.07672e-09
7.59124e-08
1.10503e-09
7.56734e-08
1.13296e-09
7.54354e-08
1.15987e-09
7.51975e-08
1.18536e-09
7.49593e-08
1.20919e-09
7.47202e-08
1.23128e-09
7.44798e-08
1.25162e-09
7.42378e-08
1.2703e-09
7.39939e-08
1.28744e-09
7.37479e-08
1.3032e-09
7.34999e-08
1.31775e-09
7.32496e-08
1.33123e-09
7.2997e-08
1.34382e-09
7.27422e-08
1.35564e-09
7.24851e-08
1.36684e-09
7.22258e-08
1.37752e-09
7.19641e-08
1.38778e-09
7.17003e-08
1.3977e-09
7.14342e-08
1.40733e-09
7.11659e-08
1.41675e-09
7.08954e-08
1.42599e-09
7.06227e-08
1.43509e-09
7.03477e-08
1.44408e-09
7.00706e-08
1.45297e-09
6.97913e-08
1.4618e-09
6.95097e-08
1.47057e-09
6.92259e-08
1.47931e-09
6.89399e-08
1.48801e-09
6.86515e-08
1.4967e-09
6.83609e-08
1.50539e-09
6.8068e-08
1.51408e-09
6.77728e-08
1.52278e-09
6.74752e-08
1.53152e-09
6.71752e-08
1.54029e-09
6.68729e-08
1.54912e-09
6.65681e-08
1.558e-09
6.62611e-08
1.56688e-09
6.59517e-08
1.57559e-09
6.56397e-08
1.58357e-09
1.58989e-09
9.34653e-08
2.51347e-09
-9.35856e-08
9.33611e-08
2.62919e-09
9.32702e-08
2.74078e-09
9.31894e-08
2.84624e-09
9.31158e-08
2.94442e-09
9.30472e-08
3.03472e-09
9.29819e-08
3.11679e-09
9.29181e-08
3.19042e-09
9.28547e-08
3.25546e-09
9.27904e-08
3.31187e-09
9.27244e-08
3.35963e-09
9.26556e-08
3.39877e-09
9.25833e-08
3.42933e-09
9.25067e-08
3.45139e-09
9.24252e-08
3.46509e-09
9.2338e-08
3.47058e-09
9.22446e-08
3.46809e-09
9.21445e-08
3.4579e-09
9.20372e-08
3.44032e-09
9.19223e-08
3.41575e-09
9.17997e-08
3.38461e-09
9.1669e-08
3.34734e-09
9.15303e-08
3.30444e-09
9.13836e-08
3.25639e-09
9.12289e-08
3.20367e-09
9.10665e-08
3.14675e-09
9.08965e-08
3.08605e-09
9.07194e-08
3.02197e-09
9.05354e-08
2.95481e-09
9.03449e-08
2.88486e-09
9.01481e-08
2.81232e-09
8.99453e-08
2.73733e-09
8.97367e-08
2.66e-09
8.95225e-08
2.58038e-09
8.93025e-08
2.49852e-09
8.90769e-08
2.41448e-09
8.88453e-08
2.32838e-09
8.86075e-08
2.24045e-09
8.83632e-08
2.15103e-09
8.8112e-08
2.06069e-09
8.78537e-08
1.97021e-09
8.75883e-08
1.8806e-09
8.7316e-08
1.79304e-09
8.70373e-08
1.70884e-09
8.67529e-08
1.62925e-09
8.64639e-08
1.55542e-09
8.6171e-08
1.48832e-09
8.58754e-08
1.42873e-09
8.55779e-08
1.3773e-09
8.52796e-08
1.33454e-09
8.49815e-08
1.3008e-09
8.46846e-08
1.27624e-09
8.43899e-08
1.26077e-09
8.40985e-08
1.254e-09
8.38109e-08
1.25528e-09
8.35278e-08
1.26362e-09
8.32492e-08
1.27785e-09
8.29752e-08
1.29669e-09
8.27052e-08
1.31884e-09
8.24388e-08
1.34315e-09
8.21752e-08
1.36861e-09
8.19138e-08
1.39438e-09
8.16538e-08
1.41986e-09
8.13945e-08
1.44458e-09
8.11355e-08
1.46825e-09
8.08761e-08
1.49069e-09
8.06159e-08
1.51183e-09
8.03545e-08
1.53167e-09
8.00917e-08
1.55027e-09
7.98271e-08
1.56772e-09
7.95608e-08
1.58411e-09
7.92924e-08
1.59958e-09
7.9022e-08
1.61424e-09
7.87494e-08
1.62821e-09
7.84747e-08
1.64158e-09
7.81978e-08
1.65447e-09
7.79186e-08
1.66695e-09
7.76372e-08
1.6791e-09
7.73535e-08
1.69097e-09
7.70677e-08
1.70263e-09
7.67795e-08
1.71411e-09
7.64892e-08
1.72545e-09
7.61966e-08
1.73669e-09
7.59017e-08
1.74784e-09
7.56046e-08
1.75893e-09
7.53052e-08
1.76998e-09
7.50035e-08
1.781e-09
7.46995e-08
1.79201e-09
7.43932e-08
1.80302e-09
7.40845e-08
1.81404e-09
7.37735e-08
1.82509e-09
7.34601e-08
1.83618e-09
7.31443e-08
1.84732e-09
7.28261e-08
1.85851e-09
7.25054e-08
1.86978e-09
7.21823e-08
1.88111e-09
7.18567e-08
1.89246e-09
7.15286e-08
1.90376e-09
7.11972e-08
1.9149e-09
1.92609e-09
1.01128e-07
2.65202e-09
-1.01267e-07
1.01002e-07
2.75491e-09
1.00888e-07
2.85524e-09
1.00783e-07
2.95149e-09
1.00685e-07
3.04251e-09
1.00592e-07
3.1275e-09
1.00503e-07
3.20588e-09
1.00416e-07
3.27727e-09
1.0033e-07
3.34136e-09
1.00244e-07
3.39795e-09
1.00157e-07
3.44691e-09
1.00067e-07
3.48815e-09
9.99749e-08
3.52165e-09
9.98789e-08
3.54742e-09
9.97785e-08
3.56552e-09
9.9673e-08
3.57606e-09
9.95619e-08
3.5792e-09
9.94446e-08
3.57514e-09
9.93208e-08
3.56415e-09
9.91901e-08
3.54651e-09
9.90521e-08
3.52257e-09
9.89067e-08
3.49271e-09
9.87539e-08
3.45731e-09
9.85935e-08
3.41678e-09
9.84256e-08
3.37154e-09
9.82504e-08
3.32196e-09
9.8068e-08
3.26844e-09
9.78786e-08
3.21131e-09
9.76826e-08
3.15089e-09
9.748e-08
3.08743e-09
9.72712e-08
3.02117e-09
9.70562e-08
2.95228e-09
9.68353e-08
2.88091e-09
9.66085e-08
2.8072e-09
9.63757e-08
2.73126e-09
9.6137e-08
2.65325e-09
9.5892e-08
2.57336e-09
9.56406e-08
2.49187e-09
9.53824e-08
2.40917e-09
9.51173e-08
2.32579e-09
9.48451e-08
2.24243e-09
9.45658e-08
2.15994e-09
9.42795e-08
2.0793e-09
9.39867e-08
2.00159e-09
9.36881e-08
1.92786e-09
9.33845e-08
1.8591e-09
9.30766e-08
1.79619e-09
9.27655e-08
1.73987e-09
9.2452e-08
1.69076e-09
9.21372e-08
1.64934e-09
9.18221e-08
1.61594e-09
9.15076e-08
1.59073e-09
9.11947e-08
1.57363e-09
9.08843e-08
1.56439e-09
9.05771e-08
1.56246e-09
9.02736e-08
1.56711e-09
8.99741e-08
1.57741e-09
8.96785e-08
1.59232e-09
8.93865e-08
1.6108e-09
8.90978e-08
1.63186e-09
8.88118e-08
1.65461e-09
8.85279e-08
1.67829e-09
8.82455e-08
1.70228e-09
8.79639e-08
1.72613e-09
8.76827e-08
1.74948e-09
8.74012e-08
1.77211e-09
8.71192e-08
1.79388e-09
8.68361e-08
1.81473e-09
8.65518e-08
1.83463e-09
8.62659e-08
1.85364e-09
8.59782e-08
1.8718e-09
8.56886e-08
1.88918e-09
8.53969e-08
1.90588e-09
8.51032e-08
1.92197e-09
8.48072e-08
1.93754e-09
8.4509e-08
1.95267e-09
8.42085e-08
1.96742e-09
8.39058e-08
1.98187e-09
8.36007e-08
1.99605e-09
8.32933e-08
2.01004e-09
8.29835e-08
2.02385e-09
8.26715e-08
2.03754e-09
8.2357e-08
2.05113e-09
8.20402e-08
2.06465e-09
8.1721e-08
2.07811e-09
8.13995e-08
2.09155e-09
8.10755e-08
2.10497e-09
8.07491e-08
2.11839e-09
8.04203e-08
2.13183e-09
8.00891e-08
2.1453e-09
7.97553e-08
2.15882e-09
7.94191e-08
2.1724e-09
7.90804e-08
2.18605e-09
7.87391e-08
2.19979e-09
7.83952e-08
2.21362e-09
7.80488e-08
2.22754e-09
7.76997e-08
2.24154e-09
7.73478e-08
2.25565e-09
7.69928e-08
2.26998e-09
2.28495e-09
1.094e-07
2.80909e-09
-1.09557e-07
1.09253e-07
2.90189e-09
1.09115e-07
2.993e-09
1.08985e-07
3.08129e-09
1.08862e-07
3.16579e-09
1.08744e-07
3.24567e-09
1.0863e-07
3.3203e-09
1.08518e-07
3.38919e-09
1.08407e-07
3.45194e-09
1.08297e-07
3.50827e-09
1.08186e-07
3.55793e-09
1.08073e-07
3.60078e-09
1.07958e-07
3.6367e-09
1.0784e-07
3.66565e-09
1.07718e-07
3.68763e-09
1.07591e-07
3.70267e-09
1.07459e-07
3.71089e-09
1.07322e-07
3.71241e-09
1.07179e-07
3.70743e-09
1.07029e-07
3.69618e-09
1.06873e-07
3.67892e-09
1.0671e-07
3.65595e-09
1.06539e-07
3.62758e-09
1.06362e-07
3.59415e-09
1.06178e-07
3.55601e-09
1.05986e-07
3.51348e-09
1.05788e-07
3.46689e-09
1.05582e-07
3.41656e-09
1.0537e-07
3.36278e-09
1.05152e-07
3.30579e-09
1.04927e-07
3.24584e-09
1.04697e-07
3.18314e-09
1.0446e-07
3.11788e-09
1.04217e-07
3.05023e-09
1.03967e-07
2.98038e-09
1.03712e-07
2.90854e-09
1.03451e-07
2.83496e-09
1.03182e-07
2.75995e-09
1.02908e-07
2.68391e-09
1.02626e-07
2.60735e-09
1.02338e-07
2.53089e-09
1.02042e-07
2.45527e-09
1.0174e-07
2.3813e-09
1.01432e-07
2.30988e-09
1.01118e-07
2.2419e-09
1.00799e-07
2.17821e-09
1.00475e-07
2.11959e-09
1.00149e-07
2.06673e-09
9.98192e-08
2.0202e-09
9.94881e-08
1.98046e-09
9.91562e-08
1.94782e-09
9.88245e-08
1.92244e-09
9.84938e-08
1.90433e-09
9.81649e-08
1.89328e-09
9.78385e-08
1.8889e-09
9.7515e-08
1.89062e-09
9.71946e-08
1.89774e-09
9.68775e-08
1.90942e-09
9.65635e-08
1.92483e-09
9.62522e-08
1.94313e-09
9.59433e-08
1.96354e-09
9.56362e-08
1.98538e-09
9.53304e-08
2.00808e-09
9.50254e-08
2.03116e-09
9.47206e-08
2.05425e-09
9.44157e-08
2.07709e-09
9.41101e-08
2.09948e-09
9.38035e-08
2.12132e-09
9.34956e-08
2.14253e-09
9.31861e-08
2.16309e-09
9.28749e-08
2.18302e-09
9.25617e-08
2.20235e-09
9.22465e-08
2.22112e-09
9.19291e-08
2.2394e-09
9.16094e-08
2.25724e-09
9.12873e-08
2.27469e-09
9.09629e-08
2.29182e-09
9.06361e-08
2.30867e-09
9.03069e-08
2.32529e-09
8.99752e-08
2.34173e-09
8.9641e-08
2.35802e-09
8.93044e-08
2.3742e-09
8.89652e-08
2.39029e-09
8.86236e-08
2.40631e-09
8.82794e-08
2.42231e-09
8.79326e-08
2.43828e-09
8.75833e-08
2.45426e-09
8.72315e-08
2.47026e-09
8.6877e-08
2.48629e-09
8.65199e-08
2.50237e-09
8.61602e-08
2.51853e-09
8.57979e-08
2.53476e-09
8.54328e-08
2.5511e-09
8.50651e-08
2.56755e-09
8.46946e-08
2.58412e-09
8.43213e-08
2.60083e-09
8.39451e-08
2.61768e-09
8.35661e-08
2.63473e-09
8.3184e-08
2.65207e-09
2.66989e-09
6.86007e-08
2.67352e-09
-6.84651e-08
6.8743e-08
2.75957e-09
6.88919e-08
2.84417e-09
6.90468e-08
2.92639e-09
6.92072e-08
3.00537e-09
6.93725e-08
3.08034e-09
6.95421e-08
3.15068e-09
6.97154e-08
3.2159e-09
6.98918e-08
3.27556e-09
7.00707e-08
3.32936e-09
7.02516e-08
3.37703e-09
7.0434e-08
3.41839e-09
7.06174e-08
3.45329e-09
7.08014e-08
3.48166e-09
7.09856e-08
3.50347e-09
7.11695e-08
3.51873e-09
7.13529e-08
3.52751e-09
7.15354e-08
3.52993e-09
7.17167e-08
3.52613e-09
7.18965e-08
3.5163e-09
7.20748e-08
3.50067e-09
7.22512e-08
3.4795e-09
7.24258e-08
3.45306e-09
7.25983e-08
3.42164e-09
7.27687e-08
3.38556e-09
7.29371e-08
3.34511e-09
7.31034e-08
3.30059e-09
7.32677e-08
3.2523e-09
7.34299e-08
3.20049e-09
7.35903e-08
3.14544e-09
7.37488e-08
3.08737e-09
7.39054e-08
3.02651e-09
7.40602e-08
2.96306e-09
7.42132e-08
2.89723e-09
7.43644e-08
2.82923e-09
7.45136e-08
2.75931e-09
7.46608e-08
2.68774e-09
7.48059e-08
2.61486e-09
7.49488e-08
2.54105e-09
7.50893e-08
2.46683e-09
7.52274e-08
2.39275e-09
7.53632e-08
2.3195e-09
7.54967e-08
2.2478e-09
7.56281e-08
2.17844e-09
7.57578e-08
2.11221e-09
7.58862e-08
2.04988e-09
7.60136e-08
1.99215e-09
7.61407e-08
1.93964e-09
7.6268e-08
1.8929e-09
7.63961e-08
1.85234e-09
7.65257e-08
1.81825e-09
7.66573e-08
1.79081e-09
7.67916e-08
1.77002e-09
7.69292e-08
1.75572e-09
7.70705e-08
1.7476e-09
7.72159e-08
1.74519e-09
7.73658e-08
1.74789e-09
7.75201e-08
1.75504e-09
7.76791e-08
1.7659e-09
7.78425e-08
1.77975e-09
7.80101e-08
1.79591e-09
7.81817e-08
1.81376e-09
7.8357e-08
1.83274e-09
7.85358e-08
1.85242e-09
7.87176e-08
1.87241e-09
7.89023e-08
1.89245e-09
7.90894e-08
1.9123e-09
7.92789e-08
1.93184e-09
7.94705e-08
1.95095e-09
7.9664e-08
1.9696e-09
7.98592e-08
1.98776e-09
8.00562e-08
2.00543e-09
8.02546e-08
2.02264e-09
8.04546e-08
2.03943e-09
8.0656e-08
2.05582e-09
8.08589e-08
2.07186e-09
8.10631e-08
2.08761e-09
8.12687e-08
2.10309e-09
8.14756e-08
2.11834e-09
8.16839e-08
2.13342e-09
8.18936e-08
2.14834e-09
8.21047e-08
2.16313e-09
8.23171e-08
2.17784e-09
8.2531e-08
2.19247e-09
8.27462e-08
2.20705e-09
8.29629e-08
2.22161e-09
8.3181e-08
2.23616e-09
8.34005e-08
2.25073e-09
8.36215e-08
2.26532e-09
8.38439e-08
2.27996e-09
8.40678e-08
2.29466e-09
8.42931e-08
2.30945e-09
8.45198e-08
2.32433e-09
8.47481e-08
2.33933e-09
8.49777e-08
2.35446e-09
8.52088e-08
2.36975e-09
8.54413e-08
2.38521e-09
8.56751e-08
2.40088e-09
8.59104e-08
2.41677e-09
2.43284e-09
7.58084e-08
2.52561e-09
-7.56605e-08
7.59626e-08
2.60537e-09
7.61229e-08
2.68386e-09
7.6289e-08
2.76031e-09
7.64604e-08
2.83396e-09
7.66366e-08
2.90412e-09
7.68171e-08
2.97019e-09
7.70014e-08
3.03167e-09
7.71888e-08
3.08816e-09
7.73788e-08
3.1393e-09
7.7571e-08
3.18482e-09
7.77649e-08
3.22451e-09
7.796e-08
3.25819e-09
7.81559e-08
3.28577e-09
7.83522e-08
3.30719e-09
7.85484e-08
3.32244e-09
7.87444e-08
3.33156e-09
7.89397e-08
3.33462e-09
7.91341e-08
3.33173e-09
7.93273e-08
3.32307e-09
7.95192e-08
3.30882e-09
7.97095e-08
3.28918e-09
7.98982e-08
3.26442e-09
8.0085e-08
3.23477e-09
8.02701e-08
3.20052e-09
8.04532e-08
3.16194e-09
8.06345e-08
3.11929e-09
8.0814e-08
3.07284e-09
8.09916e-08
3.02287e-09
8.11675e-08
2.9696e-09
8.13416e-08
2.91328e-09
8.15139e-08
2.85414e-09
8.16846e-08
2.7924e-09
8.18535e-08
2.72829e-09
8.20207e-08
2.66205e-09
8.21861e-08
2.59393e-09
8.23496e-08
2.52424e-09
8.25111e-08
2.45331e-09
8.26706e-08
2.38155e-09
8.2828e-08
2.30942e-09
8.29833e-08
2.23748e-09
8.31365e-08
2.16632e-09
8.32877e-08
2.0966e-09
8.34371e-08
2.02902e-09
8.3585e-08
1.96429e-09
8.37318e-08
1.90309e-09
8.38779e-08
1.84606e-09
8.40238e-08
1.79376e-09
8.417e-08
1.74669e-09
8.43171e-08
1.70523e-09
8.44657e-08
1.66967e-09
8.46163e-08
1.64016e-09
8.47696e-08
1.61674e-09
8.4926e-08
1.59928e-09
8.50861e-08
1.58754e-09
8.52501e-08
1.58114e-09
8.54184e-08
1.57959e-09
8.55912e-08
1.58232e-09
8.57683e-08
1.58872e-09
8.59499e-08
1.59818e-09
8.61357e-08
1.61009e-09
8.63256e-08
1.62388e-09
8.65193e-08
1.63907e-09
8.67165e-08
1.65522e-09
8.69169e-08
1.67196e-09
8.71204e-08
1.689e-09
8.73266e-08
1.70612e-09
8.75353e-08
1.72314e-09
8.77463e-08
1.73995e-09
8.79594e-08
1.75647e-09
8.81745e-08
1.77264e-09
8.83915e-08
1.78844e-09
8.86103e-08
1.80389e-09
8.88307e-08
1.81898e-09
8.90528e-08
1.83373e-09
8.92765e-08
1.84818e-09
8.95017e-08
1.86236e-09
8.97285e-08
1.87629e-09
8.99569e-08
1.89e-09
9.01868e-08
1.90354e-09
9.04182e-08
1.91692e-09
9.06511e-08
1.93017e-09
9.08857e-08
1.94332e-09
9.11217e-08
1.95639e-09
9.13594e-08
1.9694e-09
9.15986e-08
1.98238e-09
9.18395e-08
1.99534e-09
9.20819e-08
2.0083e-09
9.23259e-08
2.02128e-09
9.25716e-08
2.0343e-09
9.28189e-08
2.04739e-09
9.30678e-08
2.06054e-09
9.33183e-08
2.0738e-09
9.35704e-08
2.08717e-09
9.38242e-08
2.10068e-09
9.40796e-08
2.11436e-09
9.43366e-08
2.12821e-09
9.45952e-08
2.14227e-09
9.48555e-08
2.15653e-09
2.17099e-09
8.37698e-08
2.36457e-09
-8.36087e-08
8.39367e-08
2.43846e-09
8.41093e-08
2.51121e-09
8.42875e-08
2.58217e-09
8.44707e-08
2.6507e-09
8.46587e-08
2.71616e-09
8.48509e-08
2.778e-09
8.50468e-08
2.83574e-09
8.5246e-08
2.88897e-09
8.5448e-08
2.93735e-09
8.56522e-08
2.98057e-09
8.58583e-08
3.01842e-09
8.60658e-08
3.0507e-09
8.62743e-08
3.07728e-09
8.64834e-08
3.09809e-09
8.66927e-08
3.11309e-09
8.6902e-08
3.12229e-09
8.71109e-08
3.12572e-09
8.73191e-08
3.12349e-09
8.75265e-08
3.11572e-09
8.77328e-08
3.10255e-09
8.79378e-08
3.08418e-09
8.81414e-08
3.06081e-09