/*--------------------------------*- C++ -*----------------------------------*\
| =========                 |                                                 |
| \\      /  F ield         | OpenFOAM: The Open Source CFD Toolbox           |
|  \\    /   O peration     | Version:  2.3.0                                 |
|   \\  /    A nd           | Web:      www.OpenFOAM.org                      |
|    \\/     M anipulation  |                                                 |
\*---------------------------------------------------------------------------*/
FoamFile
{
    version     2.0;
    format      ascii;
    class       surfaceScalarField;
    location    "0.35";
    object      phi_0;
}
// * * * * * * * * * * * * * * * * * * * * * * * * * * * * * * * * * * * * * //

dimensions      [0 3 -1 0 0 0 0];

internalField   nonuniform List<scalar> 
6598
(
2.89686e-08
2.75054e-09
-3.17191e-08
2.55322e-08
3.43637e-09
2.21196e-08
3.41259e-09
1.89534e-08
3.16625e-09
1.60675e-08
2.88593e-09
1.35384e-08
2.52907e-09
1.14568e-08
2.08161e-09
9.83991e-09
1.61686e-09
8.65253e-09
1.18738e-09
7.81171e-09
8.40824e-10
7.22219e-09
5.89513e-10
6.80175e-09
4.20441e-10
6.48871e-09
3.13043e-10
6.24039e-09
2.48319e-10
6.02889e-09
2.115e-10
5.83816e-09
1.90727e-10
5.66028e-09
1.77882e-10
5.492e-09
1.68279e-10
5.33251e-09
1.59496e-10
5.18203e-09
1.5048e-10
5.04092e-09
1.41107e-10
4.9091e-09
1.31822e-10
4.78599e-09
1.23107e-10
4.67088e-09
1.15111e-10
4.56317e-09
1.07709e-10
4.46236e-09
1.00811e-10
4.36788e-09
9.44789e-11
4.27908e-09
8.87997e-11
4.19535e-09
8.37316e-11
4.11623e-09
7.91238e-11
4.04139e-09
7.48388e-11
3.97054e-09
7.08421e-11
3.90337e-09
6.71713e-11
3.83953e-09
6.38471e-11
3.7787e-09
6.08267e-11
3.72068e-09
5.80236e-11
3.66532e-09
5.53552e-11
3.61254e-09
5.27798e-11
3.56225e-09
5.02884e-11
3.51436e-09
4.78932e-11
3.46874e-09
4.56176e-11
3.42526e-09
4.3482e-11
3.38377e-09
4.14879e-11
3.34415e-09
3.96261e-11
3.30628e-09
3.78691e-11
3.2701e-09
3.61804e-11
3.23557e-09
3.45264e-11
3.20268e-09
3.28939e-11
3.17139e-09
3.12839e-11
3.14168e-09
2.97137e-11
3.11348e-09
2.81946e-11
3.08675e-09
2.67302e-11
3.06144e-09
2.53102e-11
3.03751e-09
2.39333e-11
3.01491e-09
2.25955e-11
2.99361e-09
2.13004e-11
2.97358e-09
2.00369e-11
2.95478e-09
1.87986e-11
2.93721e-09
1.75659e-11
2.92087e-09
1.63389e-11
2.90576e-09
1.51095e-11
2.89188e-09
1.38886e-11
2.87921e-09
1.26706e-11
2.86773e-09
1.14733e-11
2.85745e-09
1.02845e-11
2.84833e-09
9.11668e-12
2.84038e-09
7.95514e-12
2.83356e-09
6.82044e-12
2.82787e-09
5.68618e-12
2.82329e-09
4.57395e-12
2.81983e-09
3.46721e-12
2.81742e-09
2.40814e-12
2.81605e-09
1.37354e-12
2.81566e-09
3.85544e-13
2.81617e-09
-5.13729e-13
2.81744e-09
-1.26413e-12
2.81935e-09
-1.91342e-12
2.82171e-09
-2.36125e-12
2.8244e-09
-2.6833e-12
2.82723e-09
-2.83844e-12
2.8301e-09
-2.86864e-12
2.83288e-09
-2.78134e-12
2.83551e-09
-2.62403e-12
2.83793e-09
-2.41672e-12
2.84013e-09
-2.20408e-12
2.84211e-09
-1.98229e-12
2.84391e-09
-1.7933e-12
2.84551e-09
-1.60977e-12
2.84699e-09
-1.47952e-12
2.84834e-09
-1.34481e-12
2.84961e-09
-1.26695e-12
2.85077e-09
-1.162e-12
2.85188e-09
-1.11238e-12
2.85289e-09
-1.00629e-12
2.85385e-09
-9.61086e-13
2.85468e-09
-8.2985e-13
2.85545e-09
-7.76713e-13
2.85608e-09
-6.25474e-13
2.85665e-09
-5.74444e-13
-5.02406e-13
3.41613e-08
2.47925e-09
-3.389e-08
3.39824e-08
3.61535e-09
3.32963e-08
4.09862e-09
3.23302e-08
4.13238e-09
3.11938e-08
4.02233e-09
2.99127e-08
3.81016e-09
2.85179e-08
3.47642e-09
2.70854e-08
3.04932e-09
2.56881e-08
2.58472e-09
2.43772e-08
2.1517e-09
2.31746e-08
1.79209e-09
2.20824e-08
1.51265e-09
2.10967e-08
1.29881e-09
2.02127e-08
1.13232e-09
1.94199e-08
1.00429e-09
1.87068e-08
9.0386e-10
1.80621e-08
8.22497e-10
1.7476e-08
7.54379e-10
1.694e-08
6.95485e-10
1.64475e-08
6.43056e-10
1.5993e-08
5.9562e-10
1.5572e-08
5.52808e-10
1.51805e-08
5.14546e-10
1.48153e-08
4.80358e-10
1.44736e-08
4.49444e-10
1.41531e-08
4.2122e-10
1.38521e-08
3.95535e-10
1.35685e-08
3.72368e-10
1.33008e-08
3.51482e-10
1.30475e-08
3.32424e-10
1.28075e-08
3.14788e-10
1.258e-08
2.98408e-10
1.23638e-08
2.8329e-10
1.21583e-08
2.69415e-10
1.19625e-08
2.5663e-10
1.17758e-08
2.44701e-10
1.15977e-08
2.33411e-10
1.14279e-08
2.22641e-10
1.12658e-08
2.12346e-10
1.11112e-08
2.0253e-10
1.09636e-08
1.93219e-10
1.08226e-08
1.84428e-10
1.0688e-08
1.76134e-10
1.05593e-08
1.68292e-10
1.04364e-08
1.60822e-10
1.03189e-08
1.53629e-10
1.02068e-08
1.46631e-10
1.00999e-08
1.39791e-10
9.99809e-09
1.33104e-10
9.90121e-09
1.266e-10
9.80911e-09
1.20295e-10
9.72165e-09
1.14186e-10
9.63872e-09
1.08244e-10
9.56019e-09
1.02459e-10
9.48597e-09
9.6815e-11
9.41596e-09
9.13119e-11
9.35008e-09
8.5918e-11
9.28826e-09
8.06134e-11
9.23048e-09
7.53518e-11
9.17668e-09
7.01322e-11
9.12686e-09
6.49359e-11
9.08096e-09
5.97881e-11
9.03895e-09
5.46768e-11
9.00078e-09
4.96431e-11
8.96641e-09
4.46618e-11
8.93576e-09
3.97662e-11
8.90878e-09
3.49292e-11
8.8854e-09
3.02064e-11
8.86553e-09
2.55482e-11
8.84909e-09
2.10212e-11
8.83595e-09
1.66066e-11
8.82593e-09
1.24266e-11
8.81886e-09
8.44517e-12
8.81446e-09
4.78415e-12
8.8125e-09
1.44458e-12
8.81253e-09
-1.29014e-12
8.81423e-09
-3.62182e-12
8.81715e-09
-5.27948e-12
8.82095e-09
-6.48095e-12
8.82525e-09
-7.13361e-12
8.82976e-09
-7.38639e-12
8.83425e-09
-7.26854e-12
8.83857e-09
-6.94317e-12
8.84261e-09
-6.45632e-12
8.84636e-09
-5.95903e-12
8.84981e-09
-5.42355e-12
8.853e-09
-4.98963e-12
8.85595e-09
-4.55568e-12
8.85874e-09
-4.27627e-12
8.86136e-09
-3.96036e-12
8.8639e-09
-3.80933e-12
8.86629e-09
-3.54813e-12
8.86863e-09
-3.45591e-12
8.87079e-09
-3.16269e-12
8.8729e-09
-3.07188e-12
8.87476e-09
-2.68828e-12
8.87656e-09
-2.57432e-12
8.87805e-09
-2.12444e-12
8.87949e-09
-2.01394e-12
-1.71232e-12
3.56644e-08
2.34827e-09
-3.55334e-08
3.60442e-08
3.23556e-09
3.6266e-08
3.87682e-09
3.63088e-08
4.08958e-09
3.62347e-08
4.09643e-09
3.60397e-08
4.00515e-09
3.56959e-08
3.82018e-09
3.5209e-08
3.53624e-09
3.46095e-08
3.18423e-09
3.39393e-08
2.82194e-09
3.32331e-08
2.49823e-09
3.25131e-08
2.23264e-09
3.17919e-08
2.02006e-09
3.10767e-08
1.84752e-09
3.03747e-08
1.70626e-09
2.96904e-08
1.58815e-09
2.90264e-08
1.4865e-09
2.83841e-08
1.39663e-09
2.77644e-08
1.31528e-09
2.71672e-08
1.24022e-09
2.65924e-08
1.17036e-09
2.60398e-08
1.10548e-09
2.55088e-08
1.04548e-09
2.49993e-08
9.89851e-10
2.45109e-08
9.37832e-10
2.40433e-08
8.88916e-10
2.35957e-08
8.43079e-10
2.31676e-08
8.00482e-10
2.2758e-08
7.61053e-10
2.2366e-08
7.24401e-10
2.19908e-08
6.90073e-10
2.16313e-08
6.57842e-10
2.12869e-08
6.27676e-10
2.09568e-08
5.99522e-10
2.06403e-08
5.73161e-10
2.03367e-08
5.48276e-10
2.00456e-08
5.24581e-10
1.97663e-08
5.01921e-10
1.94984e-08
4.80232e-10
1.92414e-08
4.59514e-10
1.89948e-08
4.3978e-10
1.87582e-08
4.21025e-10
1.85312e-08
4.0319e-10
1.83133e-08
3.86186e-10
1.81042e-08
3.69876e-10
1.79038e-08
3.54107e-10
1.77116e-08
3.38749e-10
1.75277e-08
3.23744e-10
1.73517e-08
3.09079e-10
1.71835e-08
2.94795e-10
1.70229e-08
2.80906e-10
1.68697e-08
2.67395e-10
1.67237e-08
2.54202e-10
1.65849e-08
2.41303e-10
1.64531e-08
2.28667e-10
1.63281e-08
2.16293e-10
1.62099e-08
2.04129e-10
1.60983e-08
1.92141e-10
1.59934e-08
1.80254e-10
1.58951e-08
1.68465e-10
1.58033e-08
1.56743e-10
1.57179e-08
1.45128e-10
1.5639e-08
1.336e-10
1.55664e-08
1.22228e-10
1.55001e-08
1.10975e-10
1.544e-08
9.99023e-11
1.53859e-08
8.89755e-11
1.53378e-08
7.83002e-11
1.52956e-08
6.78134e-11
1.5259e-08
5.76435e-11
1.52278e-08
4.77779e-11
1.52018e-08
3.84387e-11
1.51806e-08
2.95895e-11
1.51639e-08
2.14698e-11
1.51513e-08
1.40943e-11
1.51422e-08
7.83406e-12
1.51361e-08
2.49851e-12
1.51323e-08
-1.51233e-12
1.51304e-08
-4.60306e-12
1.51299e-08
-6.59768e-12
1.51303e-08
-7.7911e-12
1.51312e-08
-8.22431e-12
1.51325e-08
-8.22248e-12
1.51339e-08
-7.84813e-12
1.51354e-08
-7.41554e-12
1.51368e-08
-6.8443e-12
1.51382e-08
-6.4372e-12
1.51396e-08
-5.97003e-12
1.51411e-08
-5.77508e-12
1.51426e-08
-5.45926e-12
1.51443e-08
-5.44498e-12
1.51459e-08
-5.17848e-12
1.51477e-08
-5.22928e-12
1.51494e-08
-4.8693e-12
1.51512e-08
-4.88784e-12
1.51529e-08
-4.34826e-12
1.51546e-08
-4.28287e-12
1.51561e-08
-3.62532e-12
1.51576e-08
-3.50503e-12
-3.02591e-12
3.71869e-08
2.29488e-09
-3.71335e-08
3.74791e-08
2.94328e-09
3.7821e-08
3.53493e-09
3.80838e-08
3.82681e-09
3.82871e-08
3.89308e-09
3.84441e-08
3.84818e-09
3.85321e-08
3.73222e-09
3.8527e-08
3.54128e-09
3.84237e-08
3.28758e-09
3.82376e-08
3.00807e-09
3.79914e-08
2.74437e-09
3.77041e-08
2.51995e-09
3.73862e-08
2.33802e-09
3.70431e-08
2.1906e-09
3.66805e-08
2.06886e-09
3.63029e-08
1.96573e-09
3.59137e-08
1.8757e-09
3.55156e-08
1.79475e-09
3.51108e-08
1.72003e-09
3.47014e-08
1.64968e-09
3.42888e-08
1.58296e-09
3.38743e-08
1.51998e-09
3.34589e-08
1.46087e-09
3.30436e-08
1.40519e-09
3.26292e-08
1.35215e-09
3.22171e-08
1.30104e-09
3.18086e-08
1.25159e-09
3.14052e-08
1.20387e-09
3.10083e-08
1.158e-09
3.06186e-08
1.11406e-09
3.02366e-08
1.07211e-09
2.98622e-08
1.03226e-09
2.94952e-08
9.94585e-10
2.91359e-08
9.58916e-10
2.87842e-08
9.24814e-10
2.84407e-08
8.91762e-10
2.81059e-08
8.5942e-10
2.77801e-08
8.27743e-10
2.74634e-08
7.96871e-10
2.71559e-08
7.67025e-10
2.68573e-08
7.38374e-10
2.65674e-08
7.10955e-10
2.62859e-08
6.84651e-10
2.60128e-08
6.59272e-10
2.57481e-08
6.34568e-10
2.54919e-08
6.10329e-10
2.52442e-08
5.86426e-10
2.50051e-08
5.6286e-10
2.47745e-08
5.39684e-10
2.45523e-08
5.17001e-10
2.43384e-08
4.94842e-10
2.41326e-08
4.7317e-10
2.39349e-08
4.51877e-10
2.37453e-08
4.30913e-10
2.35638e-08
4.10232e-10
2.33902e-08
3.89832e-10
2.32247e-08
3.69651e-10
2.30672e-08
3.49656e-10
2.29177e-08
3.29757e-10
2.27762e-08
3.09965e-10
2.26427e-08
2.90253e-10
2.25171e-08
2.70682e-10
2.23995e-08
2.51228e-10
2.22897e-08
2.31988e-10
2.21878e-08
2.12911e-10
2.20936e-08
1.94089e-10
2.20071e-08
1.75474e-10
2.19282e-08
1.57234e-10
2.18567e-08
1.39297e-10
2.17925e-08
1.21868e-10
2.17353e-08
1.04938e-10
2.16849e-08
8.8849e-11
2.16409e-08
7.356e-11
2.1603e-08
5.94364e-11
2.15706e-08
4.64921e-11
2.15432e-08
3.52355e-11
2.15202e-08
2.54802e-11
2.1501e-08
1.76238e-11
2.14852e-08
1.12642e-11
2.14719e-08
6.62525e-12
2.14609e-08
3.25298e-12
2.14515e-08
1.1399e-12
2.14435e-08
-2.15714e-13
2.14365e-08
-8.61375e-13
2.14304e-08
-1.31509e-12
2.1425e-08
-1.41787e-12
2.14203e-08
-1.67711e-12
2.1416e-08
-1.73972e-12
2.14124e-08
-2.13688e-12
2.14092e-08
-2.29506e-12
2.14066e-08
-2.83164e-12
2.14044e-08
-2.98843e-12
2.14027e-08
-3.51792e-12
2.14013e-08
-3.50627e-12
2.14003e-08
-3.88831e-12
2.13996e-08
-3.61904e-12
2.13991e-08
-3.76485e-12
2.13988e-08
-3.34376e-12
2.13986e-08
-3.29355e-12
-3.03457e-12
3.8768e-08
2.24421e-09
-3.87173e-08
3.89704e-08
2.7409e-09
3.92751e-08
3.23026e-09
3.9559e-08
3.54288e-09
3.97974e-08
3.65469e-09
4.00072e-08
3.63839e-09
4.01877e-08
3.55172e-09
4.03203e-08
3.40864e-09
4.03911e-08
3.21684e-09
4.04014e-08
2.99776e-09
4.03646e-08
2.78109e-09
4.02949e-08
2.58967e-09
4.02007e-08
2.43224e-09
4.0086e-08
2.30525e-09
3.99537e-08
2.20123e-09
3.98057e-08
2.11366e-09
3.96438e-08
2.03762e-09
3.94691e-08
1.96946e-09
3.92826e-08
1.90651e-09
3.90853e-08
1.84698e-09
3.88781e-08
1.79024e-09
3.86615e-08
1.73657e-09
3.8436e-08
1.68633e-09
3.82018e-08
1.63936e-09
3.7959e-08
1.59497e-09
3.77078e-08
1.55229e-09
3.74488e-08
1.51057e-09
3.71834e-08
1.46927e-09
3.69132e-08
1.42813e-09
3.66401e-08
1.38721e-09
3.63652e-08
1.34696e-09
3.60894e-08
1.30812e-09
3.58126e-08
1.27138e-09
3.55346e-08
1.23692e-09
3.52551e-08
1.20426e-09
3.49745e-08
1.17242e-09
3.46935e-08
1.14043e-09
3.44134e-08
1.10777e-09
3.41358e-08
1.07451e-09
3.38616e-08
1.04122e-09
3.35913e-08
1.0087e-09
3.33247e-08
9.77552e-10
3.30614e-08
9.47901e-10
3.28013e-08
9.19407e-10
3.25444e-08
8.9142e-10
3.22915e-08
8.63315e-10
3.20431e-08
8.34766e-10
3.18001e-08
8.05856e-10
3.15629e-08
7.76904e-10
3.13316e-08
7.48286e-10
3.11063e-08
7.20176e-10
3.08869e-08
6.92547e-10
3.06736e-08
6.65228e-10
3.04663e-08
6.38128e-10
3.02654e-08
6.11169e-10
3.00709e-08
5.84323e-10
2.98831e-08
5.57477e-10
2.97022e-08
5.30574e-10
2.95284e-08
5.03515e-10
2.9362e-08
4.7636e-10
2.92031e-08
4.49136e-10
2.90518e-08
4.21988e-10
2.89081e-08
3.94916e-10
2.87721e-08
3.68061e-10
2.86436e-08
3.4136e-10
2.85228e-08
3.14929e-10
2.84096e-08
2.88684e-10
2.8304e-08
2.62838e-10
2.8206e-08
2.373e-10
2.81155e-08
2.12361e-10
2.80324e-08
1.88005e-10
2.79565e-08
1.64703e-10
2.78877e-08
1.42407e-10
2.78255e-08
1.21646e-10
2.77696e-08
1.024e-10
2.77195e-08
8.5324e-11
2.76748e-08
7.01817e-11
2.76349e-08
5.74738e-11
2.75995e-08
4.67231e-11
2.75678e-08
3.82604e-11
2.75396e-08
3.14812e-11
2.75143e-08
2.64794e-11
2.74915e-08
2.25416e-11
2.74709e-08
1.97156e-11
2.74523e-08
1.73197e-11
2.74354e-08
1.55385e-11
2.74199e-08
1.37562e-11
2.74059e-08
1.23014e-11
2.73931e-08
1.06429e-11
2.73816e-08
9.24547e-12
2.73711e-08
7.65361e-12
2.73617e-08
6.35842e-12
2.73532e-08
4.99764e-12
2.73458e-08
3.95475e-12
2.73389e-08
2.99811e-12
2.7333e-08
2.26783e-12
2.73274e-08
1.80888e-12
2.73228e-08
1.24074e-12
2.73184e-08
1.17394e-12
4.99077e-13
4.03811e-08
2.18535e-09
-4.03222e-08
4.05356e-08
2.58635e-09
4.07854e-08
2.98049e-09
4.10496e-08
3.2787e-09
4.12833e-08
3.42099e-09
4.14869e-08
3.43478e-09
4.16678e-08
3.37083e-09
4.18188e-08
3.25759e-09
4.19291e-08
3.10656e-09
4.19959e-08
2.93099e-09
4.20264e-08
2.75055e-09
4.20316e-08
2.58445e-09
4.20201e-08
2.44381e-09
4.19962e-08
2.32914e-09
4.19621e-08
2.23534e-09
4.1919e-08
2.15676e-09
4.18677e-08
2.08888e-09
4.18088e-08
2.02837e-09
4.17426e-08
1.97275e-09
4.16692e-08
1.92032e-09
4.1589e-08
1.87045e-09
4.15022e-08
1.82341e-09
4.14087e-08
1.77976e-09
4.13084e-08
1.73966e-09
4.12007e-08
1.70273e-09
4.10848e-08
1.66821e-09
4.09603e-08
1.63506e-09
4.08274e-08
1.60217e-09
4.06869e-08
1.56862e-09
4.05401e-08
1.53403e-09
4.03883e-08
1.49872e-09
4.02327e-08
1.46374e-09
4.00736e-08
1.43045e-09
3.99107e-08
1.39984e-09
3.9743e-08
1.37194e-09
3.95697e-08
1.34575e-09
3.93904e-08
1.31969e-09
3.9206e-08
1.29225e-09
3.90178e-08
1.26263e-09
3.8828e-08
1.23106e-09
3.86379e-08
1.19878e-09
3.84481e-08
1.16734e-09
3.82582e-08
1.13782e-09
3.80672e-08
1.1104e-09
3.78744e-08
1.08425e-09
3.76797e-08
1.05796e-09
3.74842e-08
1.03034e-09
3.7289e-08
1.00102e-09
3.70954e-08
9.70467e-10
3.69041e-08
9.39616e-10
3.67152e-08
9.09084e-10
3.65288e-08
8.78989e-10
3.63449e-08
8.49092e-10
3.61638e-08
8.19265e-10
3.59855e-08
7.89455e-10
3.58101e-08
7.59652e-10
3.5638e-08
7.29635e-10
3.54694e-08
6.99186e-10
3.53048e-08
6.68055e-10
3.51449e-08
6.36282e-10
3.49901e-08
6.03961e-10
3.48407e-08
5.71395e-10
3.46969e-08
5.38703e-10
3.45588e-08
5.06155e-10
3.44264e-08
4.73717e-10
3.42998e-08
4.41552e-10
3.4179e-08
4.09521e-10
3.4064e-08
3.77847e-10
3.39549e-08
3.4636e-10
3.38519e-08
3.15414e-10
3.37549e-08
2.84935e-10
3.36641e-08
2.55524e-10
3.35794e-08
2.27113e-10
3.35006e-08
2.00425e-10
3.34276e-08
1.75386e-10
3.33601e-08
1.52836e-10
3.32978e-08
1.32461e-10
3.32404e-08
1.14906e-10
3.31875e-08
9.95897e-11
3.31389e-08
8.69509e-11
3.30941e-08
7.62737e-11
3.30528e-08
6.7713e-11
3.30148e-08
6.05213e-11
3.29799e-08
5.47001e-11
3.29475e-08
4.96733e-11
3.29177e-08
4.53622e-11
3.289e-08
4.14555e-11
3.28645e-08
3.77655e-11
3.28408e-08
3.43604e-11
3.28192e-08
3.08791e-11
3.27989e-08
2.78751e-11
3.27807e-08
2.45944e-11
3.27635e-08
2.22036e-11
3.27482e-08
1.92736e-11
3.27335e-08
1.77216e-11
3.27205e-08
1.51952e-11
3.27078e-08
1.45042e-11
3.26969e-08
1.21874e-11
3.2686e-08
1.208e-11
9.75161e-12
4.20292e-08
2.12167e-09
-4.19655e-08
4.21588e-08
2.45674e-09
4.23613e-08
2.77802e-09
4.25952e-08
3.04475e-09
4.28162e-08
3.19998e-09
4.30097e-08
3.24128e-09
4.31789e-08
3.20165e-09
4.33235e-08
3.113e-09
4.34378e-08
2.99231e-09
4.35184e-08
2.85037e-09
4.35686e-08
2.70031e-09
4.35964e-08
2.5567e-09
4.36098e-08
2.43037e-09
4.36142e-08
2.32475e-09
4.36121e-08
2.23742e-09
4.36049e-08
2.164e-09
4.35933e-08
2.10046e-09
4.35779e-08
2.04376e-09
4.3559e-08
1.99166e-09
4.35367e-08
1.94265e-09
4.35111e-08
1.89605e-09
4.34824e-08
1.85212e-09
4.34507e-08
1.81146e-09
4.34158e-08
1.77452e-09
4.33773e-08
1.74125e-09
4.33344e-08
1.71112e-09
4.32863e-08
1.6831e-09
4.32327e-08
1.65582e-09
4.31734e-08
1.62787e-09
4.31091e-08
1.59835e-09
4.30406e-08
1.5672e-09
4.2969e-08
1.53535e-09
4.2895e-08
1.50448e-09
4.28185e-08
1.47631e-09
4.27388e-08
1.4517e-09
4.26544e-08
1.43016e-09
4.25641e-08
1.40998e-09
4.24674e-08
1.38893e-09
4.2365e-08
1.36503e-09
4.22585e-08
1.33756e-09
4.21499e-08
1.30741e-09
4.20405e-08
1.27673e-09
4.19305e-08
1.24777e-09
4.1819e-08
1.22188e-09
4.17045e-08
1.19879e-09
4.15857e-08
1.17678e-09
4.14625e-08
1.15352e-09
4.13361e-08
1.12742e-09
4.12081e-08
1.09847e-09
4.10797e-08
1.06805e-09
4.09512e-08
1.03754e-09
4.08227e-08
1.00748e-09
4.06942e-08
9.77569e-10
4.05659e-08
9.47558e-10
4.04379e-08
9.17459e-10
4.03101e-08
8.8746e-10
4.01824e-08
8.57384e-10
4.00547e-08
8.26824e-10
3.99276e-08
7.95188e-10
3.98016e-08
7.62271e-10
3.96775e-08
7.28073e-10
3.95559e-08
6.93009e-10
3.94372e-08
6.57364e-10
3.93218e-08
6.2162e-10
3.92096e-08
5.8587e-10
3.91007e-08
5.50418e-10
3.89951e-08
5.15116e-10
3.88928e-08
4.80204e-10
3.87938e-08
4.45389e-10
3.86982e-08
4.11022e-10
3.86062e-08
3.76894e-10
3.8518e-08
3.43675e-10
3.84339e-08
3.11218e-10
3.83539e-08
2.8043e-10
3.82781e-08
2.512e-10
3.82064e-08
2.24562e-10
3.81387e-08
2.00165e-10
3.80748e-08
1.78773e-10
3.80146e-08
1.59766e-10
3.7958e-08
1.4357e-10
3.79048e-08
1.29528e-10
3.78549e-08
1.17623e-10
3.7808e-08
1.07419e-10
3.77642e-08
9.84984e-11
3.77229e-08
9.09386e-11
3.76844e-08
8.38318e-11
3.7648e-08
7.78864e-11
3.76142e-08
7.15883e-11
3.7582e-08
6.65121e-11
3.75525e-08
6.04374e-11
3.75243e-08
5.60723e-11
3.74987e-08
5.01626e-11
3.74741e-08
4.68123e-11
3.7452e-08
4.13278e-11
3.74304e-08
3.93596e-11
3.74111e-08
3.45042e-11
3.73917e-08
3.38504e-11
3.73745e-08
2.94391e-11
3.73571e-08
2.95048e-11
2.52958e-11
4.37193e-08
2.05741e-09
-4.36551e-08
4.38335e-08
2.34252e-09
4.40008e-08
2.61071e-09
4.42035e-08
2.84206e-09
4.44069e-08
2.99657e-09
4.45903e-08
3.05794e-09
4.47494e-08
3.04256e-09
4.48853e-08
2.97709e-09
4.49964e-08
2.88119e-09
4.50804e-08
2.76634e-09
4.51384e-08
2.64235e-09
4.51753e-08
2.51978e-09
4.5198e-08
2.4077e-09
4.52119e-08
2.31087e-09
4.52201e-08
2.2292e-09
4.52242e-08
2.15985e-09
4.52252e-08
2.09944e-09
4.52238e-08
2.04523e-09
4.52202e-08
1.99523e-09
4.52148e-08
1.94809e-09
4.52076e-08
1.90323e-09
4.51989e-08
1.86081e-09
4.51889e-08
1.82145e-09
4.51778e-08
1.78568e-09
4.51653e-08
1.75369e-09
4.51513e-08
1.72517e-09
4.51351e-08
1.69926e-09
4.51164e-08
1.67458e-09
4.50947e-08
1.64955e-09
4.50701e-08
1.62294e-09
4.5043e-08
1.59433e-09
4.5014e-08
1.56434e-09
4.49839e-08
1.53459e-09
4.4953e-08
1.50715e-09
4.49212e-08
1.48358e-09
4.48873e-08
1.46405e-09
4.48501e-08
1.44716e-09
4.48085e-08
1.43049e-09
4.47623e-08
1.41129e-09
4.47121e-08
1.38777e-09
4.46594e-08
1.36004e-09
4.4606e-08
1.33019e-09
4.45525e-08
1.3012e-09
4.44989e-08
1.27553e-09
4.44437e-08
1.25402e-09
4.43851e-08
1.23539e-09
4.43219e-08
1.21664e-09
4.42546e-08
1.19479e-09
4.41843e-08
1.16874e-09
4.41125e-08
1.1398e-09
4.404e-08
1.11013e-09
4.39665e-08
1.08093e-09
4.38921e-08
1.052e-09
4.38168e-08
1.02281e-09
4.37409e-08
9.93337e-10
4.36643e-08
9.64064e-10
4.35866e-08
9.35113e-10
4.35074e-08
9.06085e-10
4.34265e-08
8.7606e-10
4.33443e-08
8.44419e-10
4.32615e-08
8.10859e-10
4.31788e-08
7.75736e-10
4.30968e-08
7.39417e-10
4.30158e-08
7.02577e-10
4.29362e-08
6.65482e-10
4.2858e-08
6.28643e-10
4.27811e-08
5.92009e-10
4.27054e-08
5.55909e-10
4.26308e-08
5.19964e-10
4.25573e-08
4.84494e-10
4.24851e-08
4.49121e-10
4.24143e-08
4.1448e-10
4.23452e-08
3.80289e-10
4.22781e-08
3.47526e-10
4.22132e-08
3.16078e-10
4.21507e-08
2.87095e-10
4.20906e-08
2.60327e-10
4.20328e-08
2.36526e-10
4.19773e-08
2.15251e-10
4.19242e-08
1.96652e-10
4.18733e-08
1.80445e-10
4.18249e-08
1.66008e-10
4.17787e-08
1.53701e-10
4.1735e-08
1.42141e-10
4.16932e-08
1.3276e-10
4.16539e-08
1.23148e-10
4.16159e-08
1.15849e-10
4.15803e-08
1.07167e-10
4.15458e-08
1.01069e-10
4.15137e-08
9.24732e-11
4.14826e-08
8.72526e-11
4.14542e-08
7.85631e-11
4.14264e-08
7.45733e-11
4.14014e-08
6.62835e-11
4.13767e-08
6.41275e-11
4.13543e-08
5.68959e-11
4.13316e-08
5.65294e-11
4.13107e-08
5.0355e-11
4.12894e-08
5.08071e-11
4.5291e-11
4.54576e-08
1.99489e-09
-4.53951e-08
4.55601e-08
2.24006e-09
4.57027e-08
2.4681e-09
4.58772e-08
2.66756e-09
4.60605e-08
2.81321e-09
4.62321e-08
2.88637e-09
4.63826e-08
2.89206e-09
4.65111e-08
2.84855e-09
4.66179e-08
2.77438e-09
4.67022e-08
2.68204e-09
4.67644e-08
2.58022e-09
4.68072e-08
2.47691e-09
4.68358e-08
2.37916e-09
4.68549e-08
2.2917e-09
4.68681e-08
2.216e-09
4.68773e-08
2.15073e-09
4.68833e-08
2.09336e-09
4.68871e-08
2.04151e-09
4.68889e-08
1.99341e-09
4.6889e-08
1.94793e-09
4.68877e-08
1.90457e-09
4.68851e-08
1.86344e-09
4.68815e-08
1.82506e-09
4.68772e-08
1.78998e-09
4.68724e-08
1.75848e-09
4.68672e-08
1.73039e-09
4.68614e-08
1.70504e-09
4.68548e-08
1.6812e-09
4.6847e-08
1.65732e-09
4.68378e-08
1.63209e-09
4.68272e-08
1.60492e-09
4.68155e-08
1.57612e-09
4.6803e-08
1.54703e-09
4.67905e-08
1.5197e-09
4.6778e-08
1.49604e-09
4.67654e-08
1.47669e-09
4.67518e-08
1.4607e-09
4.67365e-08
1.44586e-09
4.67185e-08
1.42928e-09
4.66978e-08
1.40847e-09
4.66751e-08
1.38273e-09
4.66516e-08
1.35372e-09
4.66282e-08
1.32455e-09
4.66055e-08
1.29829e-09
4.65828e-08
1.27669e-09
4.65588e-08
1.25933e-09
4.65321e-08
1.24335e-09
4.65021e-08
1.22485e-09
4.64693e-08
1.20149e-09
4.64351e-08
1.17406e-09
4.64e-08
1.14516e-09
4.63643e-08
1.11669e-09
4.63276e-08
1.08867e-09
4.62901e-08
1.06032e-09
4.6252e-08
1.03142e-09
4.62134e-08
1.00265e-09
4.6174e-08
9.74572e-10
4.6133e-08
9.47007e-10
4.60902e-08
9.18911e-10
4.60453e-08
8.89293e-10
4.59987e-08
8.57473e-10
4.59508e-08
8.23592e-10
4.59023e-08
7.8797e-10
4.58535e-08
7.51359e-10
4.58048e-08
7.14145e-10
4.57565e-08
6.77017e-10
4.57084e-08
6.40088e-10
4.56605e-08
6.03828e-10
4.56125e-08
5.67888e-10
4.55645e-08
5.32574e-10
4.55162e-08
4.97396e-10
4.54678e-08
4.62877e-10
4.54195e-08
4.28613e-10
4.53715e-08
3.95478e-10
4.53242e-08
3.63407e-10
4.52778e-08
3.33497e-10
4.52323e-08
3.05788e-10
4.5188e-08
2.80814e-10
4.51447e-08
2.58611e-10
4.51026e-08
2.38712e-10
4.50615e-08
2.21593e-10
4.50219e-08
2.05539e-10
4.49835e-08
1.92176e-10
4.4947e-08
1.78617e-10
4.49115e-08
1.68237e-10
4.4878e-08
1.56621e-10
4.48451e-08
1.48772e-10
4.4814e-08
1.38249e-10
4.47831e-08
1.31967e-10
4.47542e-08
1.21365e-10
4.47255e-08
1.15993e-10
4.46992e-08
1.04864e-10
4.46731e-08
1.00629e-10
4.46497e-08
8.97406e-11
4.46263e-08
8.74893e-11
4.4605e-08
7.82693e-11
4.45833e-08
7.82012e-11
4.45625e-08
7.11173e-11
4.45413e-08
7.20102e-11
6.6384e-11
4.7249e-08
1.93486e-09
-4.7189e-08
4.73417e-08
2.14735e-09
4.74662e-08
2.34358e-09
4.76172e-08
2.51655e-09
4.77805e-08
2.64998e-09
4.79386e-08
2.72822e-09
4.80806e-08
2.75011e-09
4.82028e-08
2.7263e-09
4.83054e-08
2.67175e-09
4.83887e-08
2.59877e-09
4.84531e-08
2.51587e-09
4.85003e-08
2.42969e-09
4.85337e-08
2.34577e-09
4.85572e-08
2.26815e-09
4.85743e-08
2.19894e-09
4.85869e-08
2.13809e-09
4.85963e-08
2.08399e-09
4.86031e-08
2.03468e-09
4.86079e-08
1.98868e-09
4.86107e-08
1.94507e-09
4.86119e-08
1.90342e-09
4.86115e-08
1.86377e-09
4.861e-08
1.82657e-09
4.86077e-08
1.7923e-09
4.86049e-08
1.76125e-09
4.8602e-08
1.73331e-09
4.85991e-08
1.70796e-09
4.85961e-08
1.68418e-09
4.85928e-08
1.66058e-09
4.8589e-08
1.63595e-09
4.85842e-08
1.60968e-09
4.85785e-08
1.58189e-09
4.85719e-08
1.55355e-09
4.85652e-08
1.52648e-09
4.85586e-08
1.50259e-09
4.85526e-08
1.48273e-09
4.8547e-08
1.4663e-09
4.85413e-08
1.45151e-09
4.85349e-08
1.43573e-09
4.8527e-08
1.4163e-09
4.85177e-08
1.39201e-09
4.85075e-08
1.36399e-09
4.8497e-08
1.33506e-09
4.84869e-08
1.30832e-09
4.84777e-08
1.28594e-09
4.84687e-08
1.26827e-09
4.8459e-08
1.25306e-09
4.84476e-08
1.23627e-09
4.84344e-08
1.21473e-09
4.84199e-08
1.18853e-09
4.84048e-08
1.16022e-09
4.83893e-08
1.13219e-09
4.83733e-08
1.10473e-09
4.83567e-08
1.07691e-09
4.83398e-08
1.04831e-09
4.83228e-08
1.01965e-09
4.83056e-08
9.91819e-10
4.82876e-08
9.64965e-10
4.82684e-08
9.38132e-10
4.82475e-08
9.10139e-10
4.8225e-08
8.80027e-10
4.82009e-08
8.47679e-10
4.81756e-08
8.1329e-10
4.81494e-08
7.77549e-10
4.81227e-08
7.40872e-10
4.80957e-08
7.04012e-10
4.80685e-08
6.67233e-10
4.80412e-08
6.31137e-10
4.80136e-08
5.95509e-10
4.79855e-08
5.60662e-10
4.79568e-08
5.26129e-10
4.79274e-08
4.9228e-10
4.78973e-08
4.58691e-10
4.78668e-08
4.25961e-10
4.7836e-08
3.94171e-10
4.78054e-08
3.64137e-10
4.77748e-08
3.36393e-10
4.77446e-08
3.1101e-10
4.77144e-08
2.88786e-10
4.76848e-08
2.6834e-10
4.76552e-08
2.51212e-10
4.76265e-08
2.34248e-10
4.7598e-08
2.20618e-10
4.7571e-08
2.05602e-10
4.75445e-08
1.94802e-10
4.75195e-08
1.81606e-10
4.74945e-08
1.73745e-10
4.74709e-08
1.61903e-10
4.74467e-08
1.56077e-10
4.7424e-08
1.44096e-10
4.74009e-08
1.39155e-10
4.73796e-08
1.26167e-10
4.73582e-08
1.21963e-10
4.7339e-08
1.08958e-10
4.732e-08
1.06503e-10
4.73024e-08
9.58777e-11
4.72847e-08
9.58445e-11
4.7267e-08
8.88252e-11
4.7249e-08
9.00073e-11
8.56019e-11
4.90976e-08
1.87743e-09
-4.90402e-08
4.9182e-08
2.06291e-09
4.92923e-08
2.23327e-09
4.94244e-08
2.38453e-09
4.9569e-08
2.50538e-09
4.9713e-08
2.58418e-09
4.98458e-08
2.61732e-09
4.99621e-08
2.61001e-09
5.00608e-08
2.57301e-09
5.01425e-08
2.51714e-09
5.02077e-08
2.45061e-09
5.02579e-08
2.37949e-09
5.02953e-08
2.30839e-09
5.03228e-08
2.24065e-09
5.03433e-08
2.1784e-09
5.03591e-08
2.12236e-09
5.03712e-08
2.07181e-09
5.03806e-08
2.02532e-09
5.03876e-08
1.9817e-09
5.03924e-08
1.94021e-09
5.03954e-08
1.90051e-09
5.03965e-08
1.86259e-09
5.03963e-08
1.8268e-09
5.0395e-08
1.79358e-09
5.03931e-08
1.76315e-09
5.0391e-08
1.73541e-09
5.0389e-08
1.70996e-09
5.03872e-08
1.686e-09
5.03854e-08
1.66235e-09
5.03834e-08
1.63798e-09
5.03807e-08
1.61237e-09
5.0377e-08
1.58554e-09
5.03724e-08
1.55815e-09
5.03672e-08
1.53167e-09
5.0362e-08
1.50779e-09
5.03574e-08
1.48737e-09
5.03537e-08
1.47003e-09
5.03508e-08
1.45438e-09
5.03483e-08
1.43826e-09
5.03453e-08
1.41925e-09
5.03414e-08
1.39595e-09
5.03363e-08
1.36905e-09
5.03305e-08
1.3409e-09
5.03246e-08
1.31423e-09
5.03194e-08
1.29116e-09
5.03151e-08
1.27248e-09
5.03115e-08
1.25667e-09
5.03077e-08
1.24014e-09
5.03029e-08
1.21949e-09
5.02972e-08
1.19422e-09
5.02909e-08
1.16651e-09
5.02843e-08
1.13879e-09
5.02774e-08
1.11161e-09
5.02703e-08
1.08408e-09
5.0263e-08
1.05562e-09
5.02557e-08
1.0269e-09
5.02486e-08
9.98945e-10
5.02414e-08
9.72144e-10
5.02338e-08
9.45765e-10
5.02253e-08
9.1864e-10
5.02156e-08
8.89715e-10
5.02046e-08
8.58662e-10
5.01923e-08
8.2555e-10
5.0179e-08
7.90902e-10
5.01648e-08
7.55093e-10
5.015e-08
7.18801e-10
5.01348e-08
6.82399e-10
5.01194e-08
6.4653e-10
5.01037e-08
6.11189e-10
5.00877e-08
5.7668e-10
5.00711e-08
5.42707e-10
5.0054e-08
5.09457e-10
5.0036e-08
4.76641e-10
5.00175e-08
4.44461e-10
4.99984e-08
4.13267e-10
4.99791e-08
3.834e-10
4.99595e-08
3.56033e-10
4.99399e-08
3.30586e-10
4.99199e-08
3.08797e-10
4.99001e-08
2.88202e-10
4.98797e-08
2.71549e-10
4.98599e-08
2.54103e-10
4.98399e-08
2.4063e-10
4.98209e-08
2.24515e-10
4.98022e-08
2.13567e-10
4.97847e-08
1.99059e-10
4.97671e-08
1.91398e-10
4.97504e-08
1.78581e-10
4.9733e-08
1.73519e-10
4.97164e-08
1.60666e-10
4.96991e-08
1.56468e-10
4.96831e-08
1.42179e-10
4.96669e-08
1.381e-10
4.96524e-08
1.23494e-10
4.96383e-08
1.20611e-10
4.9625e-08
1.09113e-10
4.96122e-08
1.08726e-10
4.95985e-08
1.02535e-10
4.95847e-08
1.03733e-10
1.01597e-10
5.10071e-08
1.82259e-09
-5.09522e-08
5.10843e-08
1.98565e-09
5.11829e-08
2.13467e-09
5.12995e-08
2.26798e-09
5.14277e-08
2.37719e-09
5.15579e-08
2.45398e-09
5.16809e-08
2.49423e-09
5.1791e-08
2.49995e-09
5.18859e-08
2.47811e-09
5.19656e-08
2.43743e-09
5.20309e-08
2.38531e-09
5.2083e-08
2.32742e-09
5.21234e-08
2.26795e-09
5.21543e-08
2.20975e-09
5.2178e-08
2.15468e-09
5.21966e-08
2.10382e-09
5.22113e-08
2.05713e-09
5.22228e-08
2.01373e-09
5.22318e-08
1.9727e-09
5.22385e-08
1.93355e-09
5.2243e-08
1.89601e-09
5.22456e-08
1.86002e-09
5.22465e-08
1.82585e-09
5.22463e-08
1.79386e-09
5.22452e-08
1.76422e-09
5.22438e-08
1.73682e-09
5.22424e-08
1.71136e-09
5.22412e-08
1.68723e-09
5.224e-08
1.66348e-09
5.22387e-08
1.63927e-09
5.22369e-08
1.61421e-09
5.22341e-08
1.58829e-09
5.22303e-08
1.56195e-09
5.22257e-08
1.53627e-09
5.22209e-08
1.51264e-09
5.22165e-08
1.49182e-09
5.2213e-08
1.47352e-09
5.22106e-08
1.4567e-09
5.22092e-08
1.43971e-09
5.22079e-08
1.42056e-09
5.22059e-08
1.39791e-09
5.22028e-08
1.37213e-09
5.21986e-08
1.34509e-09
5.21939e-08
1.31898e-09
5.21895e-08
1.29559e-09
5.21861e-08
1.27582e-09
5.2184e-08
1.25878e-09
5.21826e-08
1.24157e-09
5.2181e-08
1.22111e-09
5.21787e-08
1.19652e-09
5.21757e-08
1.16947e-09
5.21724e-08
1.14211e-09
5.21689e-08
1.11509e-09
5.21653e-08
1.08769e-09
5.21616e-08
1.05936e-09
5.21579e-08
1.03061e-09
5.21544e-08
1.00246e-09
5.21511e-08
9.75378e-10
5.2148e-08
9.48906e-10
5.21446e-08
9.22017e-10
5.21406e-08
8.93739e-10
5.21356e-08
8.63618e-10
5.21295e-08
8.31635e-10
5.21223e-08
7.98099e-10
5.21141e-08
7.63314e-10
5.21051e-08
7.27777e-10
5.20956e-08
6.91926e-10
5.20858e-08
6.56337e-10
5.20758e-08
6.21242e-10
5.20655e-08
5.86895e-10
5.2055e-08
5.53284e-10
5.2044e-08
5.20383e-10
5.20325e-08
4.88176e-10
5.20206e-08
4.56411e-10
5.2008e-08
4.2581e-10
5.19953e-08
3.96122e-10
5.19821e-08
3.69233e-10
5.19689e-08
3.43818e-10
5.1955e-08
3.22616e-10
5.19412e-08
3.02042e-10
5.19267e-08
2.86038e-10
5.19125e-08
2.68321e-10
5.1898e-08
2.55153e-10
5.18843e-08
2.38141e-10
5.18708e-08
2.27118e-10
5.18584e-08
2.11443e-10
5.18458e-08
2.03995e-10
5.1834e-08
1.90384e-10
5.18214e-08
1.8615e-10
5.18093e-08
1.72741e-10
5.17964e-08
1.6938e-10
5.17844e-08
1.5419e-10
5.17723e-08
1.50212e-10
5.17614e-08
1.34396e-10
5.17511e-08
1.30869e-10
5.17414e-08
1.18868e-10
5.17323e-08
1.17792e-10
5.17219e-08
1.12877e-10
5.17118e-08
1.13827e-10
1.14582e-10
5.29807e-08
1.77037e-09
-5.29285e-08
5.30517e-08
1.9147e-09
5.31403e-08
2.046e-09
5.3244e-08
2.1643e-09
5.3358e-08
2.26321e-09
5.34753e-08
2.33672e-09
5.35884e-08
2.38104e-09
5.36919e-08
2.3965e-09
5.37827e-08
2.38727e-09
5.38603e-08
2.35984e-09
5.39251e-08
2.32052e-09
5.39781e-08
2.27439e-09
5.40207e-08
2.22537e-09
5.40544e-08
2.1761e-09
5.40809e-08
2.12818e-09
5.4102e-08
2.08273e-09
5.41189e-08
2.04018e-09
5.41325e-08
2.00011e-09
5.41434e-08
1.96189e-09
5.41517e-08
1.92523e-09
5.41577e-08