/*--------------------------------*- C++ -*----------------------------------*\
| =========                 |                                                 |
| \\      /  F ield         | OpenFOAM: The Open Source CFD Toolbox           |
|  \\    /   O peration     | Version:  2.3.0                                 |
|   \\  /    A nd           | Web:      www.OpenFOAM.org                      |
|    \\/     M anipulation  |                                                 |
\*---------------------------------------------------------------------------*/
FoamFile
{
    version     2.0;
    format      ascii;
    class       surfaceScalarField;
    location    "0.85";
    object      phi;
}
// * * * * * * * * * * * * * * * * * * * * * * * * * * * * * * * * * * * * * //

dimensions      [0 3 -1 0 0 0 0];

internalField   nonuniform List<scalar> 
13570
(
2.82862e-08
2.88656e-09
-3.11728e-08
2.54181e-08
2.86813e-09
2.27271e-08
2.69103e-09
2.02468e-08
2.48029e-09
1.79933e-08
2.25344e-09
1.59773e-08
2.01601e-09
1.42011e-08
1.77619e-09
1.26593e-08
1.54177e-09
1.134e-08
1.31934e-09
1.02257e-08
1.11427e-09
9.29523e-09
9.30505e-10
8.52489e-09
7.7034e-10
7.8905e-09
6.34392e-10
7.3687e-09
5.21805e-10
6.9381e-09
4.30596e-10
6.58003e-09
3.5807e-10
6.27881e-09
3.01224e-10
6.02173e-09
2.5708e-10
5.79881e-09
2.22913e-10
5.60243e-09
1.96385e-10
5.42684e-09
1.75587e-10
5.26782e-09
1.59024e-10
5.12225e-09
1.45567e-10
4.98786e-09
1.34387e-10
4.86297e-09
1.24892e-10
4.7463e-09
1.16667e-10
4.63688e-09
1.09423e-10
4.53392e-09
1.02958e-10
4.43679e-09
9.71331e-11
4.34494e-09
9.18473e-11
4.25792e-09
8.70263e-11
4.1753e-09
8.26128e-11
4.09674e-09
7.85605e-11
4.02191e-09
7.4831e-11
3.95052e-09
7.1391e-11
3.88231e-09
6.82117e-11
3.81704e-09
6.52673e-11
3.75451e-09
6.2535e-11
3.69451e-09
5.99944e-11
3.63689e-09
5.76273e-11
3.58147e-09
5.54176e-11
3.52812e-09
5.33508e-11
3.4767e-09
5.14141e-11
3.42711e-09
4.9596e-11
3.37922e-09
4.78863e-11
3.33294e-09
4.62759e-11
3.28819e-09
4.47566e-11
3.24487e-09
4.33212e-11
3.2029e-09
4.19632e-11
3.16223e-09
4.06766e-11
3.12277e-09
3.94561e-11
3.08447e-09
3.82969e-11
3.04728e-09
3.71947e-11
3.01113e-09
3.61456e-11
2.97599e-09
3.5146e-11
2.94179e-09
3.41926e-11
2.90851e-09
3.32824e-11
2.8761e-09
3.24127e-11
2.84452e-09
3.1581e-11
2.81373e-09
3.07851e-11
2.78371e-09
3.00227e-11
2.75442e-09
2.92921e-11
2.72583e-09
2.85913e-11
2.69791e-09
2.79188e-11
2.67064e-09
2.7273e-11
2.64398e-09
2.66525e-11
2.61793e-09
2.60562e-11
2.59244e-09
2.54826e-11
2.56751e-09
2.49309e-11
2.54311e-09
2.43998e-11
2.51923e-09
2.38885e-11
2.49583e-09
2.33962e-11
2.47291e-09
2.2922e-11
2.45044e-09
2.24652e-11
2.42842e-09
2.2025e-11
2.40682e-09
2.1601e-11
2.38562e-09
2.11924e-11
2.36482e-09
2.07989e-11
2.3444e-09
2.042e-11
2.32435e-09
2.00551e-11
2.30465e-09
1.97041e-11
2.28528e-09
1.93666e-11
2.26624e-09
1.90423e-11
2.24751e-09
1.87311e-11
2.22907e-09
1.84328e-11
2.21093e-09
1.81474e-11
2.19305e-09
1.7875e-11
2.17543e-09
1.76157e-11
2.15806e-09
1.73699e-11
2.14093e-09
1.71381e-11
2.12401e-09
1.69213e-11
2.10728e-09
1.67209e-11
2.09074e-09
1.654e-11
2.07436e-09
1.63837e-11
2.0581e-09
1.62631e-11
2.04189e-09
1.62044e-11
2.02561e-09
1.62799e-11
2.00894e-09
1.66703e-11
1.99148e-09
1.74591e-11
5.28454e-11
3.33187e-08
3.16547e-09
-3.35976e-08
3.2726e-08
3.46081e-09
3.19013e-08
3.51569e-09
3.09214e-08
3.46025e-09
2.98416e-08
3.3332e-09
2.87077e-08
3.14996e-09
2.75564e-08
2.9274e-09
2.64163e-08
2.68193e-09
2.53081e-08
2.42754e-09
2.42466e-08
2.17579e-09
2.32412e-08
1.93584e-09
2.22973e-08
1.71425e-09
2.14168e-08
1.51493e-09
2.05991e-08
1.3395e-09
1.9842e-08
1.18766e-09
1.91423e-08
1.05782e-09
1.84959e-08
9.47623e-10
1.78986e-08
8.54377e-10
1.73461e-08
7.75402e-10
1.68342e-08
7.08227e-10
1.63591e-08
6.50705e-10
1.59171e-08
6.01039e-10
1.55049e-08
5.57771e-10
1.51196e-08
5.19741e-10
1.47584e-08
4.86037e-10
1.44191e-08
4.55946e-10
1.40996e-08
4.28907e-10
1.37981e-08
4.0448e-10
1.35129e-08
3.82311e-10
1.32427e-08
3.62113e-10
1.29861e-08
3.43649e-10
1.2742e-08
3.2672e-10
1.25094e-08
3.11157e-10
1.22874e-08
2.96814e-10
1.20752e-08
2.83563e-10
1.18721e-08
2.71295e-10
1.16775e-08
2.59912e-10
1.14907e-08
2.49326e-10
1.13112e-08
2.39463e-10
1.11386e-08
2.30255e-10
1.09724e-08
2.21641e-10
1.08121e-08
2.13569e-10
1.06576e-08
2.05992e-10
1.05083e-08
1.98866e-10
1.0364e-08
1.92154e-10
1.02245e-08
1.85823e-10
1.00894e-08
1.79842e-10
9.95853e-09
1.74184e-10
9.83167e-09
1.68824e-10
9.70861e-09
1.6374e-10
9.58915e-09
1.58912e-10
9.47313e-09
1.54321e-10
9.36037e-09
1.49953e-10
9.25073e-09
1.4579e-10
9.14405e-09
1.4182e-10
9.04022e-09
1.3803e-10
8.93909e-09
1.34409e-10
8.84056e-09
1.30945e-10
8.74451e-09
1.27631e-10
8.65084e-09
1.24455e-10
8.55945e-09
1.21411e-10
8.47025e-09
1.18491e-10
8.38315e-09
1.15688e-10
8.29808e-09
1.12995e-10
8.21494e-09
1.10407e-10
8.13368e-09
1.07919e-10
8.05421e-09
1.05524e-10
7.97647e-09
1.03218e-10
7.90041e-09
1.00998e-10
7.82595e-09
9.88584e-11
7.75304e-09
9.67962e-11
7.68163e-09
9.48078e-11
7.61166e-09
9.289e-11
7.54308e-09
9.10398e-11
7.47586e-09
8.92546e-11
7.40992e-09
8.75317e-11
7.34525e-09
8.5869e-11
7.28178e-09
8.42643e-11
7.21949e-09
8.27157e-11
7.15832e-09
8.12215e-11
7.09824e-09
7.97802e-11
7.03922e-09
7.83906e-11
6.98121e-09
7.70514e-11
6.92418e-09
7.57618e-11
6.86809e-09
7.45212e-11
6.81291e-09
7.33291e-11
6.7586e-09
7.21855e-11
6.70512e-09
7.10907e-11
6.65245e-09
7.00456e-11
6.60054e-09
6.90518e-11
6.54934e-09
6.8112e-11
6.49883e-09
6.72312e-11
6.44896e-09
6.64181e-11
6.39965e-09
6.56895e-11
6.35083e-09
6.50809e-11
6.30236e-09
6.46778e-11
6.25393e-09
6.47087e-11
6.20483e-09
6.57665e-11
6.1491e-09
7.31926e-11
1.33949e-10
3.47136e-08
3.01781e-09
-3.45659e-08
3.4772e-08
3.40239e-09
3.47039e-08
3.58377e-09
3.45148e-08
3.64935e-09
3.42153e-08
3.6327e-09
3.38197e-08
3.54555e-09
3.33455e-08
3.40165e-09
3.28104e-08
3.21699e-09
3.22313e-08
3.00667e-09
3.1623e-08
2.78407e-09
3.09984e-08
2.56049e-09
3.03678e-08
2.34479e-09
2.97396e-08
2.14319e-09
2.91197e-08
1.95935e-09
2.85126e-08
1.79476e-09
2.79212e-08
1.64927e-09
2.73471e-08
1.52165e-09
2.67915e-08
1.41001e-09
2.62546e-08
1.31227e-09
2.57365e-08
1.22636e-09
2.52368e-08
1.15039e-09
2.47551e-08
1.08271e-09
2.42909e-08
1.02198e-09
2.38436e-08
9.6708e-10
2.34125e-08
9.17126e-10
2.2997e-08
8.71416e-10
2.25965e-08
8.29389e-10
2.22104e-08
7.90597e-10
2.18381e-08
7.54677e-10
2.14788e-08
7.21329e-10
2.11322e-08
6.90299e-10
2.07975e-08
6.61371e-10
2.04743e-08
6.34358e-10
2.01621e-08
6.09093e-10
1.98602e-08
5.85429e-10
1.95683e-08
5.63234e-10
1.92858e-08
5.42389e-10
1.90123e-08
5.22786e-10
1.87475e-08
5.04328e-10
1.84908e-08
4.86925e-10
1.82419e-08
4.70498e-10
1.80005e-08
4.54972e-10
1.77662e-08
4.40282e-10
1.75387e-08
4.26366e-10
1.73177e-08
4.13169e-10
1.71029e-08
4.0064e-10
1.6894e-08
3.88733e-10
1.66908e-08
3.77405e-10
1.6493e-08
3.66618e-10
1.63004e-08
3.56336e-10
1.61128e-08
3.46526e-10
1.59299e-08
3.37158e-10
1.57517e-08
3.28205e-10
1.55778e-08
3.19641e-10
1.54082e-08
3.11442e-10
1.52427e-08
3.03588e-10
1.5081e-08
2.96057e-10
1.49231e-08
2.88832e-10
1.47689e-08
2.81894e-10
1.46181e-08
2.75229e-10
1.44707e-08
2.68822e-10
1.43265e-08
2.62658e-10
1.41855e-08
2.56725e-10
1.40475e-08
2.51012e-10
1.39124e-08
2.45507e-10
1.37801e-08
2.402e-10
1.36505e-08
2.35081e-10
1.35236e-08
2.30142e-10
1.33992e-08
2.25374e-10
1.32773e-08
2.2077e-10
1.31578e-08
2.16322e-10
1.30406e-08
2.12024e-10
1.29256e-08
2.0787e-10
1.28128e-08
2.03854e-10
1.27021e-08
1.9997e-10
1.25934e-08
1.96213e-10
1.24867e-08
1.9258e-10
1.23819e-08
1.89066e-10
1.22789e-08
1.85666e-10
1.21778e-08
1.82379e-10
1.20783e-08
1.792e-10
1.19806e-08
1.76127e-10
1.18845e-08
1.73157e-10
1.179e-08
1.70289e-10
1.1697e-08
1.67522e-10
1.16054e-08
1.64854e-10
1.15153e-08
1.62286e-10
1.14266e-08
1.59817e-10
1.13392e-08
1.57449e-10
1.12531e-08
1.55186e-10
1.11682e-08
1.53031e-10
1.10844e-08
1.50996e-10
1.10017e-08
1.49095e-10
1.09201e-08
1.4736e-10
1.08393e-08
1.4586e-10
1.07592e-08
1.44757e-10
1.06794e-08
1.44494e-10
1.05987e-08
1.46482e-10
1.05112e-08
1.60654e-10
2.28545e-10
3.55473e-08
2.83082e-09
-3.53603e-08
3.57373e-08
3.21237e-09
3.5886e-08
3.43511e-09
3.59808e-08
3.55451e-09
3.60152e-08
3.59835e-09
3.59851e-08
3.57562e-09
3.58912e-08
3.49561e-09
3.57374e-08
3.37074e-09
3.55301e-08
3.21395e-09
3.52769e-08
3.03733e-09
3.49857e-08
2.8517e-09
3.46644e-08
2.66606e-09
3.43203e-08
2.48728e-09
3.39597e-08
2.31995e-09
3.35878e-08
2.16666e-09
3.32088e-08
2.0283e-09
3.28258e-08
1.90457e-09
3.24414e-08
1.79443e-09
3.20573e-08
1.69639e-09
3.16748e-08
1.60887e-09
3.12949e-08
1.53033e-09
3.09182e-08
1.45938e-09
3.05454e-08
1.39483e-09
3.01767e-08
1.33569e-09
2.98127e-08
1.28116e-09
2.94535e-08
1.23059e-09
2.90995e-08
1.18347e-09
2.87507e-08
1.1394e-09
2.84073e-08
1.09804e-09
2.80695e-08
1.05913e-09
2.77374e-08
1.02244e-09
2.74109e-08
9.87783e-10
2.70903e-08
9.54997e-10
2.67755e-08
9.23937e-10
2.64664e-08
8.94477e-10
2.61631e-08
8.66504e-10
2.58656e-08
8.39914e-10
2.55738e-08
8.14615e-10
2.52876e-08
7.9052e-10
2.5007e-08
7.67552e-10
2.47318e-08
7.45639e-10
2.44621e-08
7.24716e-10
2.41976e-08
7.0472e-10
2.39384e-08
6.85598e-10
2.36843e-08
6.67296e-10
2.34352e-08
6.49766e-10
2.31909e-08
6.32965e-10
2.29515e-08
6.16851e-10
2.27167e-08
6.01386e-10
2.24865e-08
5.86533e-10
2.22608e-08
5.72261e-10
2.20394e-08
5.58538e-10
2.18223e-08
5.45336e-10
2.16093e-08
5.32627e-10
2.14003e-08
5.20386e-10
2.11953e-08
5.08589e-10
2.09942e-08
4.97216e-10
2.07968e-08
4.86244e-10
2.0603e-08
4.75655e-10
2.04128e-08
4.65431e-10
2.02261e-08
4.55554e-10
2.00427e-08
4.46009e-10
1.98627e-08
4.36781e-10
1.96858e-08
4.27855e-10
1.95121e-08
4.19218e-10
1.93415e-08
4.10858e-10
1.91738e-08
4.02764e-10
1.9009e-08
3.94923e-10
1.8847e-08
3.87327e-10
1.86878e-08
3.79965e-10
1.85313e-08
3.72829e-10
1.83775e-08
3.65909e-10
1.82261e-08
3.59198e-10
1.80773e-08
3.52688e-10
1.79309e-08
3.46373e-10
1.77869e-08
3.40246e-10
1.76451e-08
3.34301e-10
1.75057e-08
3.28533e-10
1.73684e-08
3.22937e-10
1.72333e-08
3.17508e-10
1.71002e-08
3.12242e-10
1.69692e-08
3.07136e-10
1.68402e-08
3.02187e-10
1.67131e-08
2.97392e-10
1.65879e-08
2.9275e-10
1.64644e-08
2.8826e-10
1.63428e-08
2.83922e-10
1.62229e-08
2.79736e-10
1.61046e-08
2.75706e-10
1.5988e-08
2.71835e-10
1.58729e-08
2.68134e-10
1.57593e-08
2.64614e-10
1.56471e-08
2.61303e-10
1.55362e-08
2.58247e-10
1.54265e-08
2.5555e-10
1.53178e-08
2.53457e-10
1.52096e-08
2.52642e-10
1.51007e-08
2.55371e-10
1.49884e-08
2.72955e-10
3.35374e-10
3.62973e-08
2.66733e-09
-3.61338e-08
3.64902e-08
3.01942e-09
3.66769e-08
3.24841e-09
3.68446e-08
3.3868e-09
3.69857e-08
3.45725e-09
3.7093e-08
3.46835e-09
3.71614e-08
3.42718e-09
3.71888e-08
3.34336e-09
3.71753e-08
3.22747e-09
3.71229e-08
3.08975e-09
3.7035e-08
2.93962e-09
3.69158e-08
2.78523e-09
3.67699e-08
2.63312e-09
3.66019e-08
2.48799e-09
3.64158e-08
2.35279e-09
3.62151e-08
2.229e-09
3.60027e-08
2.11694e-09
3.5781e-08
2.01611e-09
3.55518e-08
1.92557e-09
3.53166e-08
1.84414e-09
3.50763e-08
1.7706e-09
3.48319e-08
1.70378e-09
3.4584e-08
1.64268e-09
3.43333e-08
1.58641e-09
3.40802e-08
1.53425e-09
3.38252e-08
1.48561e-09
3.35687e-08
1.44003e-09
3.33109e-08
1.39712e-09
3.30524e-08
1.35658e-09
3.27934e-08
1.31816e-09
3.25341e-08
1.28167e-09
3.2275e-08
1.24692e-09
3.20162e-08
1.21379e-09
3.1758e-08
1.18214e-09
3.15006e-08
1.15186e-09
3.12443e-08
1.12287e-09
3.09891e-08
1.09507e-09
3.07353e-08
1.06838e-09
3.04831e-08
1.04275e-09
3.02325e-08
1.0181e-09
2.99838e-08
9.94382e-10
2.9737e-08
9.71536e-10
2.94922e-08
9.49517e-10
2.92495e-08
9.2828e-10
2.9009e-08
9.07784e-10
2.87708e-08
8.87991e-10
2.85349e-08
8.68866e-10
2.83014e-08
8.50377e-10
2.80703e-08
8.32493e-10
2.78416e-08
8.15185e-10
2.76154e-08
7.98428e-10
2.73918e-08
7.82197e-10
2.71706e-08
7.66469e-10
2.6952e-08
7.51221e-10
2.6736e-08
7.36435e-10
2.65225e-08
7.22089e-10
2.63115e-08
7.08167e-10
2.61031e-08
6.94651e-10
2.58973e-08
6.81526e-10
2.56939e-08
6.68775e-10
2.54931e-08
6.56385e-10
2.52948e-08
6.44342e-10
2.50989e-08
6.32633e-10
2.49055e-08
6.21246e-10
2.47146e-08
6.1017e-10
2.4526e-08
5.99393e-10
2.43399e-08
5.88905e-10
2.41561e-08
5.78697e-10
2.39747e-08
5.68759e-10
2.37956e-08
5.59083e-10
2.36187e-08
5.49659e-10
2.34442e-08
5.40482e-10
2.32718e-08
5.31542e-10
2.31017e-08
5.22834e-10
2.29337e-08
5.14351e-10
2.27679e-08
5.06087e-10
2.26041e-08
4.98037e-10
2.24425e-08
4.90195e-10
2.22828e-08
4.82557e-10
2.21252e-08
4.7512e-10
2.19696e-08
4.67879e-10
2.18159e-08
4.60832e-10
2.16641e-08
4.53975e-10
2.15142e-08
4.47309e-10
2.13661e-08
4.40831e-10
2.12198e-08
4.34542e-10
2.10753e-08
4.28443e-10
2.09325e-08
4.22536e-10
2.07914e-08
4.16827e-10
2.06519e-08
4.11322e-10
2.0514e-08
4.06033e-10
2.03776e-08
4.00982e-10
2.02427e-08
3.96201e-10
2.01092e-08
3.91756e-10
1.9977e-08
3.87782e-10
1.98458e-08
3.846e-10
1.97154e-08
3.83064e-10
1.95849e-08
3.85895e-10
1.94546e-08
4.03224e-10
4.52133e-10
3.70406e-08
2.52995e-09
-3.69032e-08
3.72129e-08
2.84705e-09
3.73921e-08
3.06927e-09
3.7566e-08
3.21293e-09
3.77282e-08
3.29505e-09
3.78726e-08
3.3239e-09
3.79941e-08
3.30566e-09
3.80893e-08
3.24815e-09
3.81566e-08
3.16025e-09
3.81956e-08
3.05073e-09
3.82075e-08
2.92771e-09
3.81943e-08
2.79841e-09
3.81587e-08
2.66875e-09
3.81035e-08
2.5432e-09
3.80315e-08
2.42478e-09
3.79453e-08
2.31519e-09
3.78471e-08
2.2151e-09
3.77388e-08
2.12444e-09
3.76218e-08
2.0426e-09
3.74972e-08
1.96874e-09
3.73659e-08
1.9019e-09
3.72286e-08
1.84112e-09
3.70857e-08
1.78552e-09
3.69378e-08
1.73432e-09
3.67852e-08
1.68688e-09
3.66281e-08
1.64265e-09
3.6467e-08
1.60119e-09
3.63019e-08
1.56213e-09
3.61333e-08
1.52518e-09
3.59614e-08
1.49011e-09
3.57864e-08
1.45671e-09
3.56085e-08
1.42483e-09
3.54279e-08
1.39433e-09
3.5245e-08
1.36508e-09
3.50598e-08
1.337e-09
3.48727e-08
1.30998e-09
3.46838e-08
1.28396e-09
3.44933e-08
1.25887e-09
3.43015e-08
1.23463e-09
3.41084e-08
1.2112e-09
3.39142e-08
1.18853e-09
3.37192e-08
1.16657e-09
3.35234e-08
1.14527e-09
3.33271e-08
1.12461e-09
3.31303e-08
1.10455e-09
3.29333e-08
1.08506e-09
3.2736e-08
1.06611e-09
3.25387e-08
1.04767e-09
3.23415e-08
1.02972e-09
3.21444e-08
1.01224e-09
3.19477e-08
9.95208e-10
3.17513e-08
9.78606e-10
3.15553e-08
9.62415e-10
3.13599e-08
9.4662e-10
3.11651e-08
9.31207e-10
3.09711e-08
9.1616e-10
3.07778e-08
9.01466e-10
3.05853e-08
8.87114e-10
3.03937e-08
8.73092e-10
3.02031e-08
8.59389e-10
3.00135e-08
8.45994e-10
2.9825e-08
8.32899e-10
2.96375e-08
8.20094e-10
2.94512e-08
8.0757e-10
2.9266e-08
7.95319e-10
2.90821e-08
7.83334e-10
2.88994e-08
7.71608e-10
2.8718e-08
7.60134e-10
2.85378e-08
7.48904e-10
2.8359e-08
7.37915e-10
2.81815e-08
7.27158e-10
2.80053e-08
7.16631e-10
2.78305e-08
7.06326e-10
2.76571e-08
6.9624e-10
2.74851e-08
6.86369e-10
2.73145e-08
6.76708e-10
2.71453e-08
6.67255e-10
2.69775e-08
6.58006e-10
2.68111e-08
6.48958e-10
2.66461e-08
6.40109e-10
2.64825e-08
6.31458e-10
2.63203e-08
6.23004e-10
2.61596e-08
6.14745e-10
2.60002e-08
6.06683e-10
2.58422e-08
5.98817e-10
2.56856e-08
5.91151e-10
2.55303e-08
5.83688e-10
2.53764e-08
5.76433e-10
2.52239e-08
5.69394e-10
2.50726e-08
5.62581e-10
2.49226e-08
5.56012e-10
2.47739e-08
5.49711e-10
2.46264e-08
5.43723e-10
2.448e-08
5.38127e-10
2.43347e-08
5.33085e-10
2.41903e-08
5.28964e-10
2.40467e-08
5.26696e-10
2.39037e-08
5.28921e-10
2.37638e-08
5.43144e-10
5.74495e-10
3.77891e-08
2.41287e-09
-3.76721e-08
3.79402e-08
2.69601e-09
3.81032e-08
2.90626e-09
3.82666e-08
3.04952e-09
3.84244e-08
3.13727e-09
3.85715e-08
3.1768e-09
3.87035e-08
3.17362e-09
3.88173e-08
3.13431e-09
3.89112e-08
3.06643e-09
3.89843e-08
2.97759e-09
3.90371e-08
2.87493e-09
3.90706e-08
2.76485e-09
3.90867e-08
2.65272e-09
3.90872e-08
2.5427e-09
3.90742e-08
2.43775e-09
3.90497e-08
2.33971e-09
3.90153e-08
2.24946e-09
3.89726e-08
2.1672e-09
3.89225e-08
2.09263e-09
3.88661e-08
2.02516e-09
3.8804e-08
1.96404e-09
3.87366e-08
1.9085e-09
3.86643e-08
1.85778e-09
3.85875e-08
1.81121e-09
3.85062e-08
1.76818e-09
3.84206e-08
1.72821e-09
3.83309e-08
1.69087e-09
3.82372e-08
1.65581e-09
3.81397e-08
1.62274e-09
3.80383e-08
1.59144e-09
3.79334e-08
1.56169e-09
3.78248e-08
1.53334e-09
3.77129e-08
1.50624e-09
3.75977e-08
1.48029e-09
3.74793e-08
1.45538e-09
3.73579e-08
1.43141e-09
3.72336e-08
1.40831e-09
3.71064e-08
1.38601e-09
3.69766e-08
1.36445e-09
3.68443e-08
1.34357e-09
3.67095e-08
1.32332e-09
3.65724e-08
1.30367e-09
3.64331e-08
1.28456e-09
3.62917e-08
1.26597e-09
3.61484e-08
1.24787e-09
3.60032e-08
1.23021e-09
3.58564e-08
1.21299e-09
3.57079e-08
1.19616e-09
3.55579e-08
1.17972e-09
3.54065e-08
1.16364e-09
3.52538e-08
1.14791e-09
3.50999e-08
1.1325e-09
3.49449e-08
1.1174e-09
3.47889e-08
1.10261e-09
3.4632e-08
1.08811e-09
3.44743e-08
1.07388e-09
3.43158e-08
1.05991e-09
3.41567e-08
1.04621e-09
3.39971e-08
1.03275e-09
3.38369e-08
1.01953e-09
3.36764e-08
1.00654e-09
3.35155e-08
9.93776e-10
3.33544e-08
9.81233e-10
3.31931e-08
9.68903e-10
3.30316e-08
9.5678e-10
3.28701e-08
9.44861e-10
3.27085e-08
9.3314e-10
3.25471e-08
9.21613e-10
3.23857e-08
9.10277e-10
3.22245e-08
8.99127e-10
3.20635e-08
8.8816e-10
3.19027e-08
8.77375e-10
3.17423e-08
8.66767e-10
3.15822e-08
8.56336e-10
3.14225e-08
8.46079e-10
3.12632e-08
8.35994e-10
3.11044e-08
8.2608e-10
3.0946e-08
8.16337e-10
3.07882e-08
8.06764e-10
3.0631e-08
7.97361e-10
3.04743e-08
7.88128e-10
3.03182e-08
7.79068e-10
3.01628e-08
7.70181e-10
3.0008e-08
7.6147e-10
2.98539e-08
7.52939e-10
2.97005e-08
7.44592e-10
2.95477e-08
7.36436e-10
2.93957e-08
7.28478e-10
2.92443e-08
7.20731e-10
2.90937e-08
7.13208e-10
2.89438e-08
7.0593e-10
2.87946e-08
6.9893e-10
2.8646e-08
6.92258e-10
2.84982e-08
6.86005e-10
2.83509e-08
6.80347e-10
2.82042e-08
6.75659e-10
2.80581e-08
6.72822e-10
2.7913e-08
6.73963e-10
2.77727e-08
6.83449e-10
6.96725e-10
3.85447e-08
2.311e-09
-3.84429e-08
3.86774e-08
2.56334e-09
3.88242e-08
2.75951e-09
3.89743e-08
2.89938e-09
3.91218e-08
2.98979e-09
3.9262e-08
3.03657e-09
3.93911e-08
3.04451e-09
3.95063e-08
3.01917e-09
3.96057e-08
2.96695e-09
3.96888e-08
2.89449e-09
3.97557e-08
2.8081e-09
3.98071e-08
2.71347e-09
3.98443e-08
2.61547e-09
3.9869e-08
2.51801e-09
3.98828e-08
2.42393e-09
3.98874e-08
2.33514e-09
3.98841e-08
2.2527e-09
3.98743e-08
2.17701e-09
3.98589e-08
2.10802e-09
3.98388e-08
2.04535e-09
3.98143e-08
1.98847e-09
3.97861e-08
1.93675e-09
3.97543e-08
1.88957e-09
3.97192e-08
1.84634e-09
3.96808e-08
1.80654e-09
3.96393e-08
1.76971e-09
3.95947e-08
1.73546e-09
3.95471e-08
1.70345e-09
3.94964e-08
1.67341e-09
3.94427e-08
1.64511e-09
3.93861e-08
1.61835e-09
3.93265e-08
1.59295e-09
3.92639e-08
1.56879e-09
3.91985e-08
1.54574e-09
3.91301e-08
1.52369e-09
3.9059e-08
1.50256e-09
3.8985e-08
1.48225e-09
3.89084e-08
1.4627e-09
3.8829e-08
1.44384e-09
3.87469e-08
1.42562e-09
3.86623e-08
1.40798e-09
3.85751e-08
1.39087e-09
3.84854e-08
1.37426e-09
3.83932e-08
1.35811e-09
3.82987e-08
1.34238e-09
3.82019e-08
1.32705e-09
3.81028e-08
1.31207e-09
3.80015e-08
1.29744e-09
3.78981e-08
1.28313e-09
3.77926e-08
1.26911e-09
3.76852e-08
1.25537e-09
3.75758e-08
1.24189e-09
3.74645e-08
1.22866e-09
3.73515e-08
1.21566e-09
3.72367e-08
1.20288e-09
3.71203e-08
1.19031e-09
3.70022e-08
1.17794e-09
3.68827e-08
1.16576e-09
3.67617e-08
1.15376e-09
3.66392e-08
1.14193e-09
3.65155e-08
1.13027e-09
3.63905e-08
1.11877e-09
3.62643e-08
1.10743e-09
3.6137e-08
1.09623e-09
3.60086e-08
1.08518e-09
3.58792e-08
1.07427e-09
3.57488e-08
1.0635e-09
3.56176e-08
1.05287e-09
3.54855e-08
1.04236e-09
3.53526e-08
1.03199e-09
3.5219e-08
1.02175e-09
3.50848e-08
1.01163e-09
3.49499e-08
1.00164e-09
3.48145e-08
9.91771e-10
3.46785e-08
9.82028e-10
3.45421e-08
9.72409e-10
3.44053e-08
9.62915e-10
3.42681e-08
9.53546e-10
3.41305e-08
9.44304e-10
3.39927e-08
9.3519e-10
3.38546e-08
9.26206e-10
3.37163e-08
9.17356e-10
3.35779e-08
9.08643e-10
3.34393e-08
9.00072e-10
3.33006e-08
8.91649e-10
3.31618e-08
8.83379e-10
3.30229e-08
8.75273e-10
3.28841e-08
8.67341e-10
3.27452e-08
8.59596e-10
3.26064e-08
8.52057e-10
3.24675e-08
8.44749e-10
3.23288e-08
8.37708e-10
3.219e-08
8.3099e-10
3.20513e-08
8.2469e-10
3.19127e-08
8.18983e-10
3.17742e-08
8.14215e-10
3.16359e-08
8.11101e-10
3.14988e-08
8.11017e-10
3.13669e-08
8.15371e-10
8.12877e-10
3.93078e-08
2.22071e-09
-3.92175e-08
3.94252e-08
2.44591e-09
3.95573e-08
2.62743e-09
3.96946e-08
2.76209e-09
3.98311e-08
2.85324e-09
3.99626e-08
2.90513e-09
4.00853e-08
2.92179e-09
4.01966e-08
2.90783e-09
4.02949e-08
2.86867e-09
4.03794e-08
2.81003e-09
4.045e-08
2.73746e-09
4.05074e-08
2.65603e-09
4.05527e-08
2.57017e-09
4.05873e-08
2.48349e-09
4.06124e-08
2.39875e-09
4.06297e-08
2.31784e-09
4.06405e-08
2.24197e-09
4.06458e-08
2.17171e-09
4.06466e-08
2.10721e-09
4.06436e-08
2.04828e-09
4.06376e-08
1.99456e-09
4.06287e-08
1.94559e-09
4.06174e-08
1.90087e-09
4.06038e-08
1.85991e-09
4.05881e-08
1.82224e-09
4.05704e-08
1.78747e-09
4.05506e-08
1.75524e-09
4.05288e-08
1.72523e-09
4.05051e-08
1.69719e-09
4.04793e-08
1.67089e-09
4.04515e-08
1.64614e-09
4.04216e-08
1.62278e-09
4.03898e-08
1.60067e-09
4.03558e-08
1.57969e-09
4.03198e-08
1.55972e-09
4.02817e-08
1.54067e-09
4.02415e-08
1.52246e-09
4.01991e-08
1.50502e-09
4.01547e-08
1.48828e-09
4.01081e-08
1.47218e-09
4.00595e-08
1.45665e-09
4.00087e-08
1.44167e-09
3.99558e-08
1.42717e-09
3.99007e-08
1.41313e-09
3.98436e-08
1.3995e-09
3.97844e-08
1.38625e-09
3.97231e-08
1.37335e-09
3.96598e-08
1.36078e-09
3.95944e-08
1.3485e-09
3.9527e-08
1.3365e-09
3.94577e-08
1.32475e-09
3.93863e-08
1.31325e-09
3.9313e-08
1.30196e-09
3.92378e-08
1.29088e-09
3.91607e-08
1.27998e-09
3.90817e-08
1.26927e-09
3.9001e-08
1.25872e-09
3.89184e-08
1.24832e-09
3.88341e-08
1.23808e-09
3.87481e-08
1.22797e-09
3.86603e-08
1.21798e-09
3.8571e-08
1.20812e-09
3.848e-08
1.19838e-09
3.83875e-08
1.18875e-09
3.82935e-08
1.17922e-09
3.81979e-08
1.16979e-09
3.8101e-08
1.16047e-09
3.80026e-08
1.15123e-09
3.79029e-08
1.14209e-09
3.78019e-08
1.13303e-09
3.76995e-08
1.12406e-09
3.7596e-08
1.11518e-09
3.74913e-08
1.10638e-09
3.73854e-08
1.09766e-09
3.72784e-08
1.08903e-09
3.71703e-08
1.08048e-09
3.70612e-08
1.07201e-09
3.69511e-08
1.06363e-09
3.68401e-08
1.05534e-09
3.67281e-08
1.04714e-09
3.66153e-08
1.03903e-09
3.65016e-08
1.03102e-09
3.63872e-08
1.02311e-09
3.62719e-08
1.01531e-09
3.61559e-08
1.00762e-09
3.60393e-08
1.00006e-09
3.59219e-08
9.92628e-10
3.58039e-08
9.85343e-10
3.56853e-08
9.78218e-10
3.55661e-08
9.71276e-10
3.54463e-08
9.64544e-10
3.53259e-08
9.5806e-10
3.5205e-08
9.51882e-10
3.50836e-08
9.46103e-10
3.49617e-08
9.40883e-10
3.48394e-08
9.36504e-10
3.47171e-08
9.3345e-10
3.45958e-08
9.32299e-10
3.4479e-08
9.3211e-10
9.17952e-10
4.00788e-08
2.13949e-09
-3.99976e-08
4.01837e-08
2.34105e-09
4.03028e-08
2.50826e-09
4.04283e-08
2.63661e-09
4.05545e-08
2.72708e-09
4.06771e-08
2.7825e-09
4.07928e-08
2.80605e-09
4.08991e-08
2.80156e-09
4.09942e-08
2.77355e-09
4.10773e-08
2.72692e-09
4.11483e-08
2.66649e-09
4.12076e-08
2.59678e-09
4.12559e-08
2.52179e-09
4.12946e-08
2.44484e-09
4.13248e-08
2.36855e-09
4.13478e-08
2.29482e-09
4.13649e-08
2.22491e-09
4.13771e-08
2.15954e-09
4.13852e-08
2.09902e-09
4.13902e-08
2.04332e-09
4.13925e-08
1.99226e-09
4.13926e-08
1.94549e-09
4.13908e-08
1.90264e-09
4.13874e-08
1.86332e-09
4.13825e-08
1.82713e-09
4.13763e-08
1.79372e-09
4.13687e-08
1.76278e-09
4.13599e-08
1.73404e-09
4.13499e-08
1.70724e-09
4.13386e-08
1.68217e-09
4.13261e-08
1.65867e-09
4.13123e-08
1.63656e-09
4.12973e-08
1.61572e-09
4.12809e-08
1.59602e-09
4.12633e-08
1.57737e-09
4.12443e-08
1.55966e-09
4.12239e-08
1.54281e-09
4.12022e-08
1.52676e-09
4.11791e-08
1.51142e-09
4.11545e-08
1.49675e-09
4.11284e-08
1.48269e-09
4.11009e-08
1.46918e-09
4.10719e-08
1.45618e-09
4.10414e-08
1.44365e-09
4.10093e-08
1.43156e-09
4.09757e-08
1.41986e-09
4.09406e-08
1.40853e-09
4.09038e-08
1.39753e-09
4.08655e-08
1.38684e-09
4.08255e-08
1.37644e-09
4.0784e-08
1.36631e-09
4.07408e-08
1.35641e-09
4.0696e-08
1.34674e-09
4.06496e-08
1.33728e-09
4.06016e-08
1.32801e-09
4.05519e-08
1.31892e-09
4.05007e-08
1.30999e-09
4.04478e-08
1.30121e-09
4.03933e-08
1.29257e-09
4.03372e-08
1.28406e-09
4.02795e-08
1.27567e-09
4.02202e-08
1.26739e-09
4.01594e-08
1.25922e-09
4.0097e-08
1.25115e-09
4.00331e-08
1.24316e-09
3.99676e-08
1.23527e-09
3.99006e-08
1.22745e-09
3.98321e-08
1.21971e-09
3.97622e-08
1.21205e-09
3.96907e-08
1.20445e-09
3.96179e-08
1.19692e-09
3.95436e-08
1.18945e-09
3.94679e-08
1.18205e-09
3.93909e-08
1.1747e-09
3.93125e-08
1.16742e-09
3.92328e-08
1.1602e-09
3.91518e-08
1.15304e-09
3.90695e-08
1.14594e-09
3.89859e-08
1.13891e-09
3.89011e-08
1.13194e-09
3.88151e-08
1.12504e-09
3.87279e-08
1.11821e-09
3.86396e-08
1.11146e-09
3.85501e-08
1.1048e-09
3.84595e-08
1.09822e-09
3.83678e-08
1.09175e-09
3.8275e-08
1.08539e-09
3.81812e-08
1.07915e-09
3.80864e-08
1.07305e-09
3.79906e-08
1.06712e-09
3.78937e-08
1.06138e-09
3.77959e-08
1.05587e-09
3.76971e-08
1.05065e-09
3.75974e-08
1.0458e-09
3.74969e-08
1.04146e-09
3.73956e-08
1.03782e-09
3.72939e-08
1.03512e-09
3.71929e-08
1.03325e-09
3.70954e-08
1.0297e-09
1.00864e-09
4.08584e-08
2.06556e-09
-4.07845e-08
4.09528e-08
2.24665e-09
4.10608e-08
2.40034e-09
4.11756e-08
2.52181e-09
4.12921e-08
2.61056e-09
4.14064e-08
2.66821e-09
4.15152e-08
2.69717e-09
4.16162e-08
2.70056e-09
4.17077e-08
2.68212e-09
4.17886e-08
2.64598e-09
4.18587e-08
2.59635e-09
4.19183e-08
2.5372e-09
4.1968e-08
2.47211e-09
4.20087e-08
2.40413e-09
4.20415e-08
2.33573e-09
4.20676e-08
2.26876e-09
4.2088e-08
2.20453e-09
4.21037e-08
2.14383e-09
4.21156e-08
2.08711e-09
4.21244e-08
2.0345e-09
4.21307e-08
1.98593e-09
4.2135e-08
1.94119e-09
4.21377e-08
1.9e-09
4.21389e-08
1.86207e-09
4.2139e-08
1.82707e-09
4.2138e-08
1.79471e-09
4.21361e-08
1.76471e-09
4.21333e-08
1.73683e-09
4.21296e-08
1.71085e-09
4.21252e-08
1.68658e-09
4.21201e-08
1.66385e-09
4.21141e-08
1.64251e-09
4.21074e-08
1.62244e-09
4.20999e-08
1.60351e-09
4.20916e-08
1.58564e-09
4.20826e-08
1.56872e-09
4.20727e-08
1.55269e-09
4.2062e-08
1.53746e-09
4.20504e-08
1.52297e-09
4.2038e-08
1.50917e-09
4.20247e-08
1.49599e-09
4.20105e-08
1.4834e-09
4.19953e-08
1.47134e-09
4.19792e-08
1.45977e-09
4.19621e-08
1.44866e-09
4.1944e-08
1.43797e-09
4.19249e-08
1.42766e-09
4.19047e-08
1.41772e-09
4.18834e-08
1.40811e-09
4.18611e-08
1.3988e-09
4.18376e-08
1.38978e-09
4.1813e-08
1.38102e-09
4.17872e-08
1.37251e-09
4.17603e-08
1.36422e-09
4.17321e-08
1.35614e-09
4.17028e-08
1.34825e-09
4.16723e-08
1.34054e-09
4.16405e-08
1.333e-09
4.16074e-08
1.3256e-09
4.15731e-08
1.31835e-09
4.15376e-08
1.31123e-09
4.15007e-08
1.30424e-09
4.14626e-08
1.29735e-09
4.14232e-08
1.29057e-09
4.13825e-08
1.28389e-09
4.13404e-08
1.2773e-09
4.12971e-08
1.27079e-09
4.12524e-08
1.26436e-09
4.12065e-08
1.258e-09
4.11592e-08
1.25172e-09
4.11106e-08
1.2455e-09
4.10607e-08
1.23935e-09
4.10095e-08
1.23325e-09
4.0957e-08
1.22721e-09
4.09032e-08
1.22123e-09
4.08481e-08
1.21531e-09
4.07917e-08
1.20944e-09
4.0734e-08
1.20363e-09
4.06751e-08
1.19787e-09
4.06148e-08
1.19217e-09
4.05533e-08
1.18653e-09
4.04906e-08
1.18096e-09
4.04266e-08
1.17546e-09
4.03613e-08
1.17003e-09
4.02949e-08
1.16469e-09
4.02272e-08
1.15944e-09
4.01583e-08
1.15429e-09
4.00882e-08
1.14925e-09
4.00169e-08
1.14435e-09
3.99444e-08
1.13961e-09
3.98707e-08
1.13505e-09
3.97959e-08
1.13071e-09
3.97199e-08
1.12665e-09
3.96427e-08
1.12293e-09
3.95645e-08
1.11966e-09
3.94854e-08
1.11695e-09
3.94057e-08
1.1148e-09
3.93264e-08
1.1126e-09
3.9249e-08
1.10708e-09
1.08358e-09
4.16473e-08
1.99764e-09
-4.15793e-08
4.17329e-08
2.16099e-09
4.18311e-08
2.30219e-09
4.19363e-08
2.41661e-09
4.20439e-08
2.50289e-09
4.21504e-08
2.56173e-09
4.22527e-08
2.59486e-09
4.23485e-08
2.60476e-09
4.24362e-08
2.59449e-09
4.25146e-08
2.56754e-09
4.25834e-08
2.52751e-09
4.26428e-08
2.47789e-09
4.2693e-08
2.42186e-09
4.27349e-08
2.36221e-09
4.27694e-08
2.30123e-09
4.27975e-08
2.24071e-09
4.28201e-08
2.18196e-09
4.28381e-08
2.12585e-09
4.28523e-08
2.0729e-09
4.28634e-08
2.02337e-09
4.2872e-08
1.97729e-09
4.28787e-08
1.93458e-09
4.28836e-08
1.89504e-09
4.28872e-08
1.85847e-09
4.28897e-08
1.8246e-09
4.28912e-08
1.79319e-09
4.28919e-08
1.76402e-09
4.28918e-08
1.73687e-09
4.28912e-08
1.71154e-09
4.28899e-08
1.68787e-09
4.2888e-08
1.6657e-09
4.28857e-08
1.64488e-09
4.28828e-08
1.62532e-09
4.28794e-08
1.60689e-09
4.28755e-08
1.5895e-09
4.28712e-08
1.57307e-09
4.28664e-08
1.55752e-09
4.2861e-08
1.54278e-09
4.28552e-08
1.52879e-09
4.28489e-08
1.51549e-09
4.28421e-08
1.50283e-09
4.28347e-08
1.49077e-09
4.28268e-08
1.47925e-09
4.28183e-08
1.46824e-09
4.28093e-08
1.45771e-09
4.27996e-08
1.44761e-09
4.27894e-08
1.43792e-09
4.27785e-08
1.42861e-09
4.27669e-08
1.41965e-09
4.27547e-08
1.41101e-09
4.27418e-08
1.40268e-09
4.27282e-08
1.39464e-09
4.27139e-08
1.38686e-09
4.26988e-08
1.37932e-09
4.26829e-08
1.37201e-09
4.26662e-08
1.36492e-09
4.26487e-08
1.35802e-09
4.26304e-08
1.3513e-09
4.26113e-08
1.34476e-09
4.25913e-08
1.33838e-09
4.25703e-08
1.33215e-09
4.25485e-08
1.32605e-09
4.25258e-08
1.32009e-09
4.25021e-08
1.31425e-09
4.24775e-08
1.30852e-09
4.24519e-08
1.3029e-09
4.24253e-08
1.29737e-09
4.23977e-08
1.29194e-09
4.23691e-08
1.2866e-09
4.23395e-08
1.28134e-09
4.23088e-08
1.27616e-09
4.22771e-08
1.27105e-09
4.22444e-08
1.26601e-09
4.22105e-08
1.26104e-09
4.21756e-08
1.25614e-09
4.21396e-08
1.2513e-09
4.21025e-08
1.24653e-09
4.20643e-08
1.24182e-09
4.2025e-08
1.23717e-09
4.19846e-08
1.23259e-09
4.19431e-08
1.22808e-09
4.19004e-08
1.22363e-09
4.18566e-08
1.21926e-09
4.18117e-08
1.21498e-09
4.17656e-08
1.21077e-09
4.17184e-08
1.20667e-09
4.167e-08
1.20267e-09
4.16204e-08
1.1988e-09
4.15697e-08
1.19506e-09
4.15179e-08
1.19148e-09
4.14648e-08
1.18808e-09
4.14106e-08
1.18491e-09
4.13553e-08
1.18201e-09
4.12988e-08
1.17944e-09
4.12412e-08
1.17725e-09
4.11826e-08
1.17549e-09
4.11234e-08
1.17399e-09
4.10642e-08
1.17183e-09
4.10057e-08
1.16561e-09
1.14313e-09
4.24459e-08
1.93477e-09
-4.23831e-08
4.25242e-08
2.08273e-09
4.26138e-08
2.21254e-09
4.27104e-08
2.32e-09
4.281e-08
2.40331e-09
4.29092e-08
2.46252e-09
4.30053e-08
2.49877e-09
4.30961e-08
2.51399e-09
4.31799e-08
2.51068e-09
4.32557e-08
2.49172e-09
4.3323e-08
2.46021e-09
4.33818e-08
2.41916e-09
4.34322e-08
2.37142e-09
4.34749e-08
2.31949e-09
4.35107e-08
2.26549e-09
4.35402e-08
2.21113e-09
4.35645e-08
2.15769e-09
4.35843e-08
2.10609e-09
4.36002e-08
2.05691e-09
4.36131e-08
2.01049e-09
4.36234e-08
1.96698e-09
4.36316e-08
1.92636e-09
4.36381e-08
1.88855e-09