/*--------------------------------*- C++ -*----------------------------------*\
| =========                 |                                                 |
| \\      /  F ield         | OpenFOAM: The Open Source CFD Toolbox           |
|  \\    /   O peration     | Version:  2.3.0                                 |
|   \\  /    A nd           | Web:      www.OpenFOAM.org                      |
|    \\/     M anipulation  |                                                 |
\*---------------------------------------------------------------------------*/
FoamFile
{
    version     2.0;
    format      ascii;
    class       volVectorField;
    location    "0.85";
    object      U;
}
// * * * * * * * * * * * * * * * * * * * * * * * * * * * * * * * * * * * * * //

dimensions      [0 1 -1 0 0 0 0];

internalField   nonuniform List<vector> 
6875
(
(0.171141 0.00596372 0)
(0.154683 0.00603362 0)
(0.138861 0.00561497 0)
(0.123863 0.0050164 0)
(0.110099 0.00435522 0)
(0.0977399 0.00368474 0)
(0.0867965 0.0030417 0)
(0.0772348 0.00245148 0)
(0.068999 0.00192956 0)
(0.0620041 0.00148374 0)
(0.0561363 0.00111569 0)
(0.0512626 0.000821913 0)
(0.047242 0.000594984 0)
(0.0439353 0.000425164 0)
(0.0412125 0.000301911 0)
(0.0389578 0.000215084 0)
(0.0370721 0.000155689 0)
(0.0354741 0.000116224 0)
(0.034099 9.07226e-05 0)
(0.0328965 7.46436e-05 0)
(0.0318285 6.46656e-05 0)
(0.0308669 5.84588e-05 0)
(0.0299908 5.44606e-05 0)
(0.0291849 5.16731e-05 0)
(0.0284382 4.94946e-05 0)
(0.0277422 4.75872e-05 0)
(0.0270905 4.57793e-05 0)
(0.0264782 4.39978e-05 0)
(0.0259012 4.22229e-05 0)
(0.0253562 4.04608e-05 0)
(0.0248402 3.87272e-05 0)
(0.0243509 3.70389e-05 0)
(0.0238859 3.54098e-05 0)
(0.0234434 3.38497e-05 0)
(0.0230215 3.23644e-05 0)
(0.0226187 3.09563e-05 0)
(0.0222335 2.9625e-05 0)
(0.0218647 2.83688e-05 0)
(0.0215111 2.71843e-05 0)
(0.0211716 2.6068e-05 0)
(0.0208453 2.50155e-05 0)
(0.0205314 2.4023e-05 0)
(0.020229 2.30862e-05 0)
(0.0199374 2.22013e-05 0)
(0.019656 2.13647e-05 0)
(0.0193842 2.0573e-05 0)
(0.0191214 1.98232e-05 0)
(0.0188672 1.91122e-05 0)
(0.0186209 1.84375e-05 0)
(0.0183824 1.77966e-05 0)
(0.018151 1.71874e-05 0)
(0.0179265 1.66076e-05 0)
(0.0177086 1.60556e-05 0)
(0.0174968 1.55296e-05 0)
(0.017291 1.50279e-05 0)
(0.0170908 1.45491e-05 0)
(0.016896 1.40919e-05 0)
(0.0167063 1.36549e-05 0)
(0.0165215 1.32371e-05 0)
(0.0163415 1.28374e-05 0)
(0.0161659 1.24547e-05 0)
(0.0159946 1.20883e-05 0)
(0.0158275 1.17371e-05 0)
(0.0156643 1.14005e-05 0)
(0.0155049 1.10777e-05 0)
(0.0153492 1.0768e-05 0)
(0.015197 1.04708e-05 0)
(0.0150482 1.01855e-05 0)
(0.0149026 9.91161e-06 0)
(0.0147602 9.6485e-06 0)
(0.0146207 9.39577e-06 0)
(0.0144842 9.15297e-06 0)
(0.0143504 8.91969e-06 0)
(0.0142194 8.69554e-06 0)
(0.0140909 8.4802e-06 0)
(0.0139649 8.27331e-06 0)
(0.0138413 8.07459e-06 0)
(0.0137201 7.88377e-06 0)
(0.013601 7.7006e-06 0)
(0.0134842 7.52486e-06 0)
(0.0133694 7.35632e-06 0)
(0.0132565 7.19485e-06 0)
(0.0131456 7.04029e-06 0)
(0.0130365 6.8925e-06 0)
(0.0129292 6.75138e-06 0)
(0.0128236 6.61691e-06 0)
(0.0127195 6.48907e-06 0)
(0.0126171 6.36788e-06 0)
(0.012516 6.25347e-06 0)
(0.0124164 6.1461e-06 0)
(0.012318 6.04617e-06 0)
(0.0122209 5.95443e-06 0)
(0.0121248 5.87231e-06 0)
(0.0120298 5.80249e-06 0)
(0.0119355 5.75055e-06 0)
(0.0118419 5.72924e-06 0)
(0.0117483 5.77595e-06 0)
(0.0116525 5.9531e-06 0)
(0.0115734 5.06581e-06 0)
(0.0113079 3.69637e-05 0)
(0.189975 0.00940836 0)
(0.187631 0.00991317 0)
(0.183674 0.00968752 0)
(0.178466 0.00918938 0)
(0.17251 0.00855658 0)
(0.166157 0.00783529 0)
(0.159631 0.00706348 0)
(0.1531 0.00627602 0)
(0.146699 0.00550216 0)
(0.140528 0.00476589 0)
(0.134656 0.00408595 0)
(0.129122 0.00347528 0)
(0.123945 0.00294067 0)
(0.119129 0.00248332 0)
(0.114664 0.00209979 0)
(0.110535 0.00178341 0)
(0.106721 0.00152564 0)
(0.103197 0.00131725 0)
(0.0999405 0.00114928 0)
(0.096926 0.00101364 0)
(0.0941308 0.000903406 0)
(0.0915334 0.000812905 0)
(0.0891142 0.000737654 0)
(0.0868553 0.0006742 0)
(0.0847408 0.000619934 0)
(0.0827568 0.000572915 0)
(0.0808905 0.000531699 0)
(0.0791311 0.000495216 0)
(0.0774687 0.000462661 0)
(0.0758947 0.000433421 0)
(0.0744016 0.000407019 0)
(0.0729824 0.000383073 0)
(0.0716313 0.000361274 0)
(0.0703427 0.000341363 0)
(0.069112 0.000323121 0)
(0.0679348 0.000306362 0)
(0.0668073 0.000290925 0)
(0.0657258 0.000276669 0)
(0.0646874 0.000263473 0)
(0.063689 0.000251228 0)
(0.0627282 0.000239842 0)
(0.0618026 0.000229231 0)
(0.0609099 0.000219323 0)
(0.0600482 0.000210054 0)
(0.0592158 0.000201367 0)
(0.0584109 0.000193212 0)
(0.0576321 0.000185543 0)
(0.0568778 0.000178322 0)
(0.0561469 0.000171511 0)
(0.0554381 0.000165079 0)
(0.0547502 0.000158998 0)
(0.0540823 0.000153241 0)
(0.0534334 0.000147784 0)
(0.0528026 0.000142607 0)
(0.0521891 0.000137689 0)
(0.051592 0.000133014 0)
(0.0510106 0.000128565 0)
(0.0504442 0.000124328 0)
(0.0498923 0.000120289 0)
(0.0493542 0.000116436 0)
(0.0488292 0.000112757 0)
(0.048317 0.000109242 0)
(0.0478169 0.000105882 0)
(0.0473285 0.000102667 0)
(0.0468513 9.95897e-05 0)
(0.0463849 9.66423e-05 0)
(0.045929 9.38177e-05 0)
(0.045483 9.11094e-05 0)
(0.0450467 8.85116e-05 0)
(0.0446197 8.60184e-05 0)
(0.0442017 8.3625e-05 0)
(0.0437923 8.13263e-05 0)
(0.0433912 7.91179e-05 0)
(0.0429982 7.69958e-05 0)
(0.0426129 7.49561e-05 0)
(0.0422352 7.29951e-05 0)
(0.0418646 7.11096e-05 0)
(0.0415011 6.92966e-05 0)
(0.0411443 6.75532e-05 0)
(0.0407941 6.5877e-05 0)
(0.0404501 6.42653e-05 0)
(0.0401123 6.27163e-05 0)
(0.0397802 6.1228e-05 0)
(0.0394539 5.97986e-05 0)
(0.039133 5.84268e-05 0)
(0.0388173 5.71112e-05 0)
(0.0385067 5.58512e-05 0)
(0.0382009 5.46461e-05 0)
(0.0378998 5.34959e-05 0)
(0.0376031 5.24012e-05 0)
(0.0373106 5.13638e-05 0)
(0.0370221 5.03872e-05 0)
(0.0367373 4.94784e-05 0)
(0.036456 4.86518e-05 0)
(0.0361777 4.79385e-05 0)
(0.0359019 4.74141e-05 0)
(0.0356274 4.72848e-05 0)
(0.0353502 4.80726e-05 0)
(0.0350932 5.30731e-05 0)
(0.0345567 0.000128082 0)
(0.192961 0.00904994 0)
(0.193732 0.0100026 0)
(0.193837 0.0103319 0)
(0.19313 0.0103331 0)
(0.191729 0.0101063 0)
(0.189757 0.00968988 0)
(0.187309 0.00912877 0)
(0.184474 0.00847271 0)
(0.181348 0.007767 0)
(0.17802 0.00704997 0)
(0.174568 0.0063524 0)
(0.171057 0.00569694 0)
(0.167538 0.00509802 0)
(0.164052 0.00456265 0)
(0.160626 0.00409186 0)
(0.157282 0.00368241 0)
(0.15403 0.0033285 0)
(0.15088 0.00302315 0)
(0.147834 0.00275922 0)
(0.144893 0.00253007 0)
(0.142056 0.00232988 0)
(0.139322 0.00215378 0)
(0.136686 0.00199778 0)
(0.134146 0.00185865 0)
(0.131698 0.00173384 0)
(0.129339 0.0016213 0)
(0.127066 0.00151938 0)
(0.124874 0.00142672 0)
(0.122761 0.00134223 0)
(0.120723 0.00126496 0)
(0.118756 0.00119414 0)
(0.116858 0.00112908 0)
(0.115025 0.00106918 0)
(0.113255 0.00101392 0)
(0.111543 0.000962849 0)
(0.109889 0.000915556 0)
(0.108289 0.000871682 0)
(0.10674 0.000830904 0)
(0.10524 0.000792937 0)
(0.103787 0.000757526 0)
(0.102378 0.000724443 0)
(0.101012 0.000693484 0)
(0.0996866 0.000664467 0)
(0.0983999 0.000637229 0)
(0.0971501 0.000611624 0)
(0.0959357 0.000587518 0)
(0.0947551 0.000564795 0)
(0.0936067 0.000543346 0)
(0.0924893 0.000523075 0)
(0.0914014 0.000503895 0)
(0.090342 0.000485726 0)
(0.0893097 0.000468496 0)
(0.0883034 0.00045214 0)
(0.0873223 0.000436597 0)
(0.0863651 0.000421814 0)
(0.0854311 0.00040774 0)
(0.0845193 0.000394329 0)
(0.0836288 0.000381541 0)
(0.0827589 0.000369335 0)
(0.0819089 0.000357677 0)
(0.0810779 0.000346534 0)
(0.0802653 0.000335875 0)
(0.0794705 0.000325674 0)
(0.0786928 0.000315904 0)
(0.0779317 0.000306541 0)
(0.0771865 0.000297564 0)
(0.0764568 0.000288951 0)
(0.0757421 0.000280684 0)
(0.0750417 0.000272746 0)
(0.0743553 0.000265119 0)
(0.0736825 0.000257789 0)
(0.0730227 0.000250741 0)
(0.0723756 0.000243961 0)
(0.0717407 0.000237439 0)
(0.0711177 0.000231162 0)
(0.0705063 0.000225119 0)
(0.069906 0.000219301 0)
(0.0693165 0.000213698 0)
(0.0687375 0.000208302 0)
(0.0681687 0.000203105 0)
(0.0676097 0.000198101 0)
(0.0670602 0.000193281 0)
(0.0665199 0.000188641 0)
(0.0659886 0.000184174 0)
(0.065466 0.000179877 0)
(0.0649517 0.000175746 0)
(0.0644455 0.000171776 0)
(0.0639471 0.000167966 0)
(0.0634563 0.000164315 0)
(0.0629726 0.000160824 0)
(0.0624959 0.000157496 0)
(0.0620258 0.000154338 0)
(0.061562 0.000151367 0)
(0.061104 0.000148616 0)
(0.0606514 0.00014616 0)
(0.0602033 0.00014418 0)
(0.0597584 0.000143176 0)
(0.0593125 0.000144677 0)
(0.0588807 0.000160327 0)
(0.0581846 0.000254721 0)
(0.193985 0.00841752 0)
(0.195143 0.00947008 0)
(0.196183 0.0100238 0)
(0.19689 0.0102627 0)
(0.197242 0.0102695 0)
(0.197247 0.0100765 0)
(0.196904 0.00971958 0)
(0.19622 0.00924168 0)
(0.195223 0.00868478 0)
(0.193952 0.00808629 0)
(0.192451 0.00747798 0)
(0.190764 0.00688503 0)
(0.188933 0.00632545 0)
(0.186995 0.00581028 0)
(0.184982 0.00534461 0)
(0.18292 0.00492894 0)
(0.180829 0.00456067 0)
(0.178724 0.00423535 0)
(0.176617 0.00394778 0)
(0.174516 0.00369265 0)
(0.172426 0.00346506 0)
(0.170354 0.00326068 0)
(0.1683 0.00307589 0)
(0.166269 0.00290768 0)
(0.164263 0.00275365 0)
(0.162282 0.00261187 0)
(0.160329 0.0024808 0)
(0.158404 0.00235919 0)
(0.156508 0.00224602 0)
(0.154643 0.00214048 0)
(0.152808 0.00204185 0)
(0.151005 0.00194954 0)
(0.149233 0.00186301 0)
(0.147493 0.0017818 0)
(0.145785 0.0017055 0)
(0.144108 0.00163373 0)
(0.142463 0.00156616 0)
(0.140849 0.00150248 0)
(0.139266 0.0014424 0)
(0.137714 0.00138566 0)
(0.136193 0.00133204 0)
(0.134701 0.00128131 0)
(0.133238 0.00123327 0)
(0.131804 0.00118774 0)
(0.130399 0.00114455 0)
(0.129021 0.00110355 0)
(0.12767 0.0010646 0)
(0.126346 0.00102755 0)
(0.125047 0.000992293 0)
(0.123774 0.000958714 0)
(0.122526 0.000926708 0)
(0.121302 0.000896179 0)
(0.120101 0.000867039 0)
(0.118924 0.000839204 0)
(0.117768 0.000812598 0)
(0.116635 0.00078715 0)
(0.115523 0.000762795 0)
(0.114432 0.000739471 0)
(0.113361 0.000717121 0)
(0.112309 0.000695692 0)
(0.111277 0.000675135 0)
(0.110264 0.000655404 0)
(0.109269 0.000636456 0)
(0.108292 0.000618251 0)
(0.107332 0.000600751 0)
(0.106389 0.000583921 0)
(0.105463 0.000567729 0)
(0.104553 0.000552145 0)
(0.103658 0.000537138 0)
(0.102779 0.000522684 0)
(0.101914 0.000508756 0)
(0.101065 0.000495331 0)
(0.100229 0.000482388 0)
(0.099407 0.000469905 0)
(0.0985987 0.000457863 0)
(0.0978035 0.000446244 0)
(0.0970211 0.000435032 0)
(0.0962512 0.000424211 0)
(0.0954935 0.000413765 0)
(0.0947476 0.000403683 0)
(0.0940134 0.00039395 0)
(0.0932904 0.000384556 0)
(0.0925784 0.00037549 0)
(0.0918771 0.000366743 0)
(0.0911862 0.000358306 0)
(0.0905054 0.000350172 0)
(0.0898345 0.000342336 0)
(0.0891731 0.000334794 0)
(0.088521 0.000327542 0)
(0.0878779 0.000320582 0)
(0.0872433 0.00031392 0)
(0.0866171 0.000307566 0)
(0.0859988 0.000301548 0)
(0.0853881 0.00029592 0)
(0.0847843 0.000290805 0)
(0.0841866 0.000286502 0)
(0.0835936 0.000283839 0)
(0.083002 0.000285578 0)
(0.0824221 0.000307464 0)
(0.0816164 0.000400277 0)
(0.194695 0.00791955 0)
(0.195729 0.00891447 0)
(0.196827 0.00950926 0)
(0.197818 0.00982357 0)
(0.198657 0.00993057 0)
(0.199328 0.00985999 0)
(0.199805 0.00963818 0)
(0.200066 0.00929768 0)
(0.200103 0.00887236 0)
(0.199923 0.00839391 0)
(0.19954 0.00789054 0)
(0.198978 0.00738586 0)
(0.198258 0.00689796 0)
(0.197408 0.00643919 0)
(0.19645 0.0060166 0)
(0.195404 0.00563291 0)
(0.194289 0.00528768 0)
(0.193118 0.00497839 0)
(0.191902 0.00470141 0)
(0.19065 0.0044527 0)
(0.18937 0.00422829 0)
(0.188065 0.00402457 0)
(0.186739 0.0038384 0)
(0.185397 0.00366717 0)
(0.184041 0.00350874 0)
(0.182674 0.00336137 0)
(0.181297 0.00322368 0)
(0.179913 0.00309457 0)
(0.178524 0.00297311 0)
(0.177131 0.00285859 0)
(0.175736 0.00275038 0)
(0.174342 0.00264795 0)
(0.172948 0.00255086 0)
(0.171557 0.00245871 0)
(0.17017 0.00237114 0)
(0.168787 0.00228785 0)
(0.167411 0.00220855 0)
(0.166042 0.00213299 0)
(0.16468 0.00206092 0)
(0.163328 0.00199214 0)
(0.161984 0.00192645 0)
(0.160651 0.00186365 0)
(0.159329 0.0018036 0)
(0.158017 0.00174612 0)
(0.156717 0.00169109 0)
(0.155429 0.00163835 0)
(0.154154 0.0015878 0)
(0.152891 0.00153931 0)
(0.151641 0.00149277 0)
(0.150404 0.00144809 0)
(0.149181 0.00140517 0)
(0.147971 0.00136393 0)
(0.146774 0.00132427 0)
(0.145591 0.00128613 0)
(0.144422 0.00124942 0)
(0.143266 0.00121409 0)
(0.142125 0.00118006 0)
(0.140996 0.00114728 0)
(0.139882 0.00111568 0)
(0.138781 0.00108522 0)
(0.137694 0.00105584 0)
(0.13662 0.00102749 0)
(0.13556 0.00100013 0)
(0.134513 0.000973723 0)
(0.133479 0.000948217 0)
(0.132458 0.000923579 0)
(0.13145 0.000899773 0)
(0.130455 0.000876762 0)
(0.129473 0.000854517 0)
(0.128503 0.000833005 0)
(0.127545 0.000812198 0)
(0.1266 0.000792069 0)
(0.125667 0.000772592 0)
(0.124746 0.000753742 0)
(0.123836 0.000735497 0)
(0.122938 0.000717835 0)
(0.122052 0.000700735 0)
(0.121176 0.000684179 0)
(0.120312 0.000668149 0)
(0.119459 0.000652628 0)
(0.118616 0.0006376 0)
(0.117784 0.000623052 0)
(0.116962 0.00060897 0)
(0.116151 0.000595343 0)
(0.115349 0.00058216 0)
(0.114558 0.000569413 0)
(0.113775 0.000557095 0)
(0.113002 0.000545201 0)
(0.112239 0.000533728 0)
(0.111484 0.00052268 0)
(0.110738 0.000512063 0)
(0.11 0.000501896 0)
(0.10927 0.000492216 0)
(0.108549 0.0004831 0)
(0.107834 0.000474718 0)
(0.107126 0.000467482 0)
(0.106423 0.000462517 0)
(0.105723 0.000463504 0)
(0.105038 0.000486024 0)
(0.104161 0.000562922 0)
(0.195295 0.0074924 0)
(0.196162 0.00839102 0)
(0.197142 0.00897607 0)
(0.198104 0.00931718 0)
(0.199003 0.00947224 0)
(0.199818 0.00946881 0)
(0.200526 0.00932851 0)
(0.201104 0.00907754 0)
(0.201536 0.00874419 0)
(0.201817 0.00835556 0)
(0.20195 0.00793622 0)
(0.201944 0.00750726 0)
(0.201811 0.00708544 0)
(0.201567 0.00668281 0)
(0.201227 0.00630697 0)
(0.200805 0.00596166 0)
(0.200315 0.00564772 0)
(0.199766 0.00536392 0)
(0.199169 0.0051078 0)
(0.198528 0.00487633 0)
(0.197851 0.00466633 0)
(0.19714 0.00447481 0)
(0.196399 0.00429907 0)
(0.19563 0.00413679 0)
(0.194835 0.00398606 0)
(0.194016 0.00384528 0)
(0.193174 0.00371318 0)
(0.192312 0.00358871 0)
(0.19143 0.00347103 0)
(0.19053 0.00335945 0)
(0.189612 0.00325339 0)
(0.188679 0.00315237 0)
(0.187732 0.003056 0)
(0.186771 0.0029639 0)
(0.185798 0.00287578 0)
(0.184814 0.00279135 0)
(0.18382 0.00271039 0)
(0.182817 0.00263266 0)
(0.181806 0.00255797 0)
(0.180789 0.00248615 0)
(0.179765 0.00241703 0)
(0.178736 0.00235046 0)
(0.177703 0.0022863 0)
(0.176667 0.00222443 0)
(0.175628 0.00216474 0)
(0.174587 0.00210712 0)
(0.173545 0.00205147 0)
(0.172502 0.00199769 0)
(0.171459 0.0019457 0)
(0.170417 0.00189543 0)
(0.169376 0.0018468 0)
(0.168337 0.00179973 0)
(0.1673 0.00175416 0)
(0.166265 0.00171004 0)
(0.165234 0.0016673 0)
(0.164207 0.00162588 0)
(0.163183 0.00158575 0)
(0.162163 0.00154683 0)
(0.161148 0.0015091 0)
(0.160138 0.00147251 0)
(0.159133 0.001437 0)
(0.158134 0.00140256 0)
(0.15714 0.00136913 0)
(0.156152 0.00133668 0)
(0.155171 0.00130517 0)
(0.154195 0.00127458 0)
(0.153226 0.00124487 0)
(0.152264 0.00121602 0)
(0.151308 0.00118799 0)
(0.15036 0.00116075 0)
(0.149418 0.00113429 0)
(0.148483 0.00110858 0)
(0.147556 0.00108359 0)
(0.146636 0.0010593 0)
(0.145723 0.0010357 0)
(0.144817 0.00101275 0)
(0.143919 0.00099045 0)
(0.143028 0.000968774 0)
(0.142145 0.000947706 0)
(0.14127 0.000927231 0)
(0.140401 0.000907334 0)
(0.13954 0.000888003 0)
(0.138687 0.000869226 0)
(0.137841 0.000850991 0)
(0.137002 0.00083329 0)
(0.136171 0.000816115 0)
(0.135347 0.000799462 0)
(0.13453 0.000783326 0)
(0.13372 0.000767709 0)
(0.132917 0.000752616 0)
(0.132121 0.000738059 0)
(0.131332 0.000724065 0)
(0.130549 0.000710683 0)
(0.129772 0.000698011 0)
(0.129002 0.00068626 0)
(0.128236 0.000675929 0)
(0.127476 0.000668324 0)
(0.12672 0.000667358 0)
(0.125981 0.000685692 0)
(0.125078 0.000738319 0)
(0.195818 0.00712724 0)
(0.196548 0.00792944 0)
(0.197398 0.00848822 0)
(0.198268 0.00883684 0)
(0.199113 0.0090167 0)
(0.19991 0.0090525 0)
(0.20064 0.00896354 0)
(0.201282 0.00877211 0)
(0.201824 0.00850258 0)
(0.202259 0.00817865 0)
(0.202585 0.00782192 0)
(0.202808 0.00745118 0)
(0.202934 0.00708165 0)
(0.202975 0.00672473 0)
(0.202939 0.006388 0)
(0.202839 0.00607574 0)
(0.202684 0.00578955 0)
(0.202482 0.00552912 0)
(0.202239 0.00529287 0)
(0.201961 0.00507854 0)
(0.201652 0.00488361 0)
(0.201315 0.00470555 0)
(0.200952 0.00454203 0)
(0.200565 0.004391 0)
(0.200154 0.00425069 0)
(0.19972 0.00411964 0)
(0.199265 0.00399662 0)
(0.198789 0.00388064 0)
(0.198292 0.00377088 0)
(0.197776 0.00366667 0)
(0.19724 0.00356744 0)
(0.196685 0.00347273 0)
(0.196113 0.00338214 0)
(0.195523 0.00329533 0)
(0.194916 0.003212 0)
(0.194294 0.0031319 0)
(0.193655 0.00305479 0)
(0.193002 0.00298047 0)
(0.192335 0.00290876 0)
(0.191654 0.00283949 0)
(0.19096 0.00277253 0)
(0.190254 0.00270773 0)
(0.189537 0.00264498 0)
(0.188808 0.00258416 0)
(0.188068 0.00252518 0)
(0.187319 0.00246795 0)
(0.186561 0.00241238 0)
(0.185794 0.00235839 0)
(0.185019 0.00230593 0)
(0.184236 0.00225491 0)
(0.183447 0.00220528 0)
(0.182651 0.00215699 0)
(0.181849 0.00210998 0)
(0.181041 0.00206421 0)
(0.180229 0.00201963 0)
(0.179412 0.00197619 0)
(0.178591 0.00193386 0)
(0.177766 0.00189261 0)
(0.176939 0.00185238 0)
(0.176108 0.00181316 0)
(0.175276 0.00177492 0)
(0.174441 0.00173761 0)
(0.173605 0.00170121 0)
(0.172768 0.0016657 0)
(0.17193 0.00163106 0)
(0.171091 0.00159725 0)
(0.170252 0.00156425 0)
(0.169414 0.00153204 0)
(0.168575 0.00150061 0)
(0.167738 0.00146992 0)
(0.166901 0.00143997 0)
(0.166066 0.00141073 0)
(0.165232 0.00138218 0)
(0.1644 0.00135432 0)
(0.163569 0.00132712 0)
(0.162741 0.00130057 0)
(0.161915 0.00127465 0)
(0.161092 0.00124936 0)
(0.160271 0.00122467 0)
(0.159453 0.00120059 0)
(0.158638 0.0011771 0)
(0.157826 0.00115418 0)
(0.157017 0.00113184 0)
(0.156212 0.00111006 0)
(0.15541 0.00108884 0)
(0.154611 0.00106818 0)
(0.153816 0.00104807 0)
(0.153025 0.00102852 0)
(0.152238 0.00100953 0)
(0.151454 0.000991117 0)
(0.150673 0.000973293 0)
(0.149897 0.000956096 0)
(0.149124 0.000939585 0)
(0.148354 0.000923879 0)
(0.147588 0.000909217 0)
(0.146825 0.000896135 0)
(0.146065 0.000885951 0)
(0.14531 0.000882115 0)
(0.144573 0.000893043 0)
(0.143694 0.000918318 0)
(0.196279 0.00681277 0)
(0.196903 0.00752597 0)
(0.197639 0.0080498 0)
(0.198414 0.00839473 0)
(0.199184 0.00858791 0)
(0.199923 0.00865007 0)
(0.200615 0.00859833 0)
(0.201242 0.00845174 0)
(0.201792 0.00823127 0)
(0.202259 0.00795769 0)
(0.202641 0.00765015 0)
(0.202941 0.00732548 0)
(0.203166 0.0069976 0)
(0.203322 0.00667724 0)
(0.203418 0.00637186 0)
(0.203462 0.00608607 0)
(0.203463 0.00582204 0)
(0.203428 0.00558017 0)
(0.203363 0.00535961 0)
(0.203271 0.00515875 0)
(0.203156 0.00497562 0)
(0.203021 0.00480814 0)
(0.202868 0.00465433 0)
(0.202697 0.00451236 0)
(0.202509 0.00438065 0)
(0.202305 0.00425783 0)
(0.202085 0.00414274 0)
(0.20185 0.00403444 0)
(0.201599 0.00393211 0)
(0.201333 0.00383509 0)
(0.201052 0.00374283 0)
(0.200755 0.00365485 0)
(0.200443 0.00357075 0)
(0.200117 0.00349017 0)
(0.199776 0.00341283 0)
(0.19942 0.00333846 0)
(0.19905 0.00326682 0)
(0.198666 0.00319772 0)
(0.198267 0.00313096 0)
(0.197856 0.00306639 0)
(0.19743 0.00300386 0)
(0.196992 0.00294323 0)
(0.196541 0.0028844 0)
(0.196077 0.00282724 0)
(0.195601 0.00277167 0)
(0.195112 0.0027176 0)
(0.194613 0.00266494 0)
(0.194102 0.00261363 0)
(0.193579 0.0025636 0)
(0.193047 0.00251479 0)
(0.192503 0.00246714 0)
(0.19195 0.00242061 0)
(0.191387 0.00237515 0)
(0.190815 0.00233071 0)
(0.190234 0.00228726 0)
(0.189644 0.00224476 0)
(0.189046 0.00220318 0)
(0.18844 0.00216249 0)
(0.187826 0.00212266 0)
(0.187205 0.00208365 0)
(0.186578 0.00204545 0)
(0.185943 0.00200804 0)
(0.185302 0.00197139 0)
(0.184656 0.00193548 0)
(0.184003 0.00190029 0)
(0.183346 0.00186581 0)
(0.182683 0.00183202 0)
(0.182016 0.0017989 0)
(0.181344 0.00176643 0)
(0.180668 0.00173461 0)
(0.179989 0.00170342 0)
(0.179306 0.00167285 0)
(0.178619 0.00164288 0)
(0.17793 0.00161351 0)
(0.177237 0.00158473 0)
(0.176543 0.00155652 0)
(0.175846 0.00152887 0)
(0.175147 0.00150179 0)
(0.174446 0.00147526 0)
(0.173744 0.00144927 0)
(0.17304 0.00142383 0)
(0.172335 0.00139892 0)
(0.171629 0.00137455 0)
(0.170922 0.0013507 0)
(0.170215 0.00132739 0)
(0.169507 0.00130461 0)
(0.168799 0.00128236 0)
(0.168091 0.00126066 0)
(0.167383 0.00123951 0)
(0.166674 0.00121893 0)
(0.165966 0.00119895 0)
(0.165258 0.00117961 0)
(0.16455 0.00116098 0)
(0.163843 0.00114319 0)
(0.163135 0.00112649 0)
(0.162429 0.00111139 0)
(0.161722 0.00109906 0)
(0.16102 0.00109199 0)
(0.160336 0.00109417 0)
(0.159525 0.00109357 0)
(0.196687 0.00653649 0)
(0.197228 0.00716998 0)
(0.19787 0.00765516 0)
(0.198558 0.00798981 0)
(0.199253 0.00818984 0)
(0.199931 0.00827141 0)
(0.200572 0.00824913 0)
(0.201162 0.00813914 0)
(0.20169 0.00795933 0)
(0.202149 0.00772781 0)
(0.202538 0.00746157 0)
(0.202858 0.00717572 0)
(0.203114 0.00688301 0)
(0.203312 0.0065935 0)
(0.20346 0.00631449 0)
(0.203564 0.00605077 0)
(0.203633 0.00580499 0)
(0.203671 0.00557812 0)
(0.203685 0.00536991 0)
(0.203679 0.00517934 0)
(0.203655 0.00500496 0)
(0.203617 0.00484511 0)
(0.203566 0.00469813 0)
(0.203504 0.00456246 0)
(0.20343 0.00443667 0)
(0.203346 0.00431954 0)
(0.203252 0.00420999 0)
(0.203148 0.0041071 0)
(0.203034 0.00401012 0)
(0.20291 0.00391839 0)
(0.202776 0.00383136 0)
(0.202631 0.00374855 0)
(0.202476 0.00366956 0)
(0.202312 0.00359404 0)
(0.202136 0.00352168 0)
(0.20195 0.00345222 0)
(0.201754 0.0033854 0)
(0.201547 0.00332103 0)
(0.20133 0.00325892 0)
(0.201102 0.00319888 0)
(0.200863 0.00314078 0)
(0.200614 0.00308448 0)
(0.200354 0.00302984 0)
(0.200084 0.00297677 0)
(0.199803 0.00292516 0)
(0.199511 0.00287491 0)
(0.199209 0.00282595 0)
(0.198897 0.0027782 0)
(0.198575 0.0027316 0)
(0.198242 0.00268608 0)
(0.197899 0.00264158 0)
(0.197547 0.00259805 0)
(0.197184 0.00255545 0)
(0.196812 0.00251374 0)
(0.19643 0.00247286 0)
(0.196039 0.0024328 0)
(0.195639 0.00239352 0)
(0.19523 0.00235498 0)
(0.194811 0.00231716 0)
(0.194385 0.00228003 0)
(0.193949 0.00224357 0)
(0.193505 0.00220777 0)
(0.193054 0.00217259 0)
(0.192594 0.00213802 0)
(0.192126 0.00210405 0)
(0.191651 0.00207066 0)
(0.191169 0.00203783 0)
(0.19068 0.00200556 0)
(0.190183 0.00197383 0)
(0.18968 0.00194263 0)
(0.189171 0.00191194 0)
(0.188655 0.00188177 0)
(0.188133 0.0018521 0)
(0.187605 0.00182293 0)
(0.187072 0.00179424 0)
(0.186533 0.00176604 0)
(0.185988 0.00173831 0)
(0.185439 0.00171105 0)
(0.184885 0.00168427 0)
(0.184326 0.00165795 0)
(0.183763 0.0016321 0)
(0.183196 0.00160671 0)
(0.182624 0.00158179 0)
(0.182048 0.00155733 0)
(0.181469 0.00153335 0)
(0.180886 0.00150984 0)
(0.1803 0.00148682 0)
(0.17971 0.0014643 0)
(0.179117 0.00144229 0)
(0.178521 0.00142081 0)
(0.177922 0.00139991 0)
(0.17732 0.00137961 0)
(0.176716 0.00136002 0)
(0.176109 0.00134124 0)
(0.175499 0.00132353 0)
(0.174887 0.00130732 0)
(0.174274 0.00129348 0)
(0.173663 0.00128338 0)
(0.173067 0.00127717 0)
(0.172358 0.0012555 0)
(0.197049 0.00628963 0)
(0.197525 0.00685315 0)
(0.198088 0.00729937 0)
(0.1987 0.00761973 0)
(0.199327 0.00782202 0)
(0.199946 0.00791788 0)
(0.200537 0.00791938 0)
(0.201087 0.00784003 0)
(0.201585 0.007695 0)
(0.202025 0.00749997 0)
(0.202404 0.00726991 0)
(0.202724 0.00701836 0)
(0.202988 0.00675692 0)
(0.203201 0.00649498 0)
(0.203369 0.0062396 0)
(0.203498 0.00599567 0)
(0.203595 0.00576614 0)
(0.203666 0.00555246 0)
(0.203715 0.00535489 0)
(0.203746 0.00517294 0)
(0.203763 0.0050056 0)
(0.203768 0.00485162 0)
(0.203764 0.00470967 0)
(0.203751 0.00457841 0)
(0.20373 0.00445664 0)
(0.203702 0.00434325 0)
(0.203668 0.00423726 0)
(0.203628 0.00413784 0)
(0.203582 0.00404425 0)
(0.203529 0.00395589 0)
(0.203471 0.00387222 0)
(0.203406 0.00379277 0)
(0.203335 0.00371714 0)
(0.203258 0.00364499 0)
(0.203174 0.00357602 0)
(0.203084 0.00350994 0)
(0.202987 0.00344653 0)
(0.202883 0.00338556 0)
(0.202773 0.00332684 0)
(0.202655 0.0032702 0)
(0.202531 0.00321549 0)
(0.202399 0.00316256 0)
(0.20226 0.00311128 0)
(0.202114 0.00306154 0)
(0.20196 0.00301323 0)
(0.201798 0.00296626 0)
(0.201629 0.00292054 0)
(0.201452 0.00287599 0)
(0.201267 0.00283254 0)
(0.201074 0.00279011 0)
(0.200873 0.00274866 0)
(0.200665 0.00270813 0)
(0.200448 0.00266846 0)
(0.200224 0.00262961 0)
(0.199991 0.00259154 0)
(0.199751 0.00255421 0)
(0.199503 0.00251758 0)
(0.199246 0.00248163 0)
(0.198982 0.00244631 0)
(0.19871 0.00241161 0)
(0.19843 0.0023775 0)
(0.198142 0.00234396 0)
(0.197846 0.00231097 0)
(0.197543 0.0022785 0)
(0.197232 0.00224654 0)
(0.196913 0.00221508 0)
(0.196587 0.0021841 0)
(0.196254 0.00215359 0)
(0.195913 0.00212353 0)
(0.195565 0.00209391 0)
(0.19521 0.00206474 0)
(0.194847 0.00203598 0)
(0.194478 0.00200765 0)
(0.194102 0.00197973 0)
(0.19372 0.00195221 0)
(0.193331 0.0019251 0)
(0.192935 0.00189839 0)
(0.192533 0.00187207 0)
(0.192125 0.00184614 0)
(0.19171 0.00182061 0)
(0.19129 0.00179547 0)
(0.190863 0.00177073 0)
(0.190431 0.00174638 0)
(0.189993 0.00172243 0)
(0.18955 0.0016989 0)
(0.189102 0.00167578 0)
(0.188647 0.00165308 0)
(0.188188 0.00163083 0)
(0.187724 0.00160905 0)
(0.187255 0.00158775 0)
(0.18678 0.00156697 0)
(0.186301 0.00154677 0)
(0.185817 0.00152722 0)
(0.185329 0.00150845 0)
(0.184836 0.00149067 0)
(0.184339 0.0014742 0)
(0.183839 0.00145957 0)
(0.183339 0.00144704 0)
(0.182851 0.00143396 0)
(0.182262 0.00139786 0)
(0.197373 0.00606614 0)
(0.197795 0.00656886 0)
(0.198293 0.00697764 0)
(0.198839 0.00728136 0)
(0.199405 0.00748234 0)
(0.199969 0.00758834 0)
(0.200513 0.00760896 0)
(0.201023 0.0075554 0)
(0.201491 0.00744043 0)
(0.201909 0.00727748 0)
(0.202275 0.00707967 0)
(0.202588 0.00685905 0)
(0.202852 0.00662614 0)
(0.203069 0.00638962 0)
(0.203245 0.00615624 0)
(0.203386 0.00593087 0)
(0.203497 0.00571669 0)
(0.203583 0.00551548 0)
(0.203649 0.00532795 0)
(0.203698 0.00515402 0)
(0.203734 0.00499311 0)
(0.203759 0.00484432 0)
(0.203775 0.00470662 0)
(0.203784 0.00457893 0)
(0.203787 0.00446023 0)
(0.203785 0.00434954 0)
(0.203777 0.00424601 0)
(0.203766 0.00414888 0)
(0.20375 0.00405748 0)
(0.203731 0.00397122 0)
(0.203708 0.00388962 0)
(0.203681 0.00381221 0)
(0.20365 0.00373863 0)
(0.203616 0.00366853 0)
(0.203578 0.00360161 0)
(0.203536 0.00353761 0)
(0.20349 0.0034763 0)
(0.20344 0.00341745 0)
(0.203386 0.00336088 0)
(0.203328 0.00330642 0)
(0.203266 0.0032539 0)
(0.2032 0.00320319 0)
(0.203129 0.00315416 0)
(0.203053 0.00310669 0)
(0.202973 0.00306067 0)
(0.202888 0.00301601 0)
(0.202798 0.00297261 0)
(0.202702 0.00293039 0)
(0.202602 0.00288927 0)
(0.202497 0.0028492 0)
(0.202386 0.00281009 0)
(0.20227 0.0027719 0)
(0.202148 0.00273458 0)
(0.202021 0.00269806 0)
(0.201887 0.00266232 0)
(0.201748 0.0026273 0)
(0.201604 0.00259297 0)
(0.201453 0.00255929 0)
(0.201296 0.00252623 0)
(0.201133 0.00249376 0)
(0.200964 0.00246185 0)
(0.200789 0.00243048 0)
(0.200608 0.00239963 0)
(0.200421 0.00236926 0)
(0.200227 0.00233938 0)
(0.200027 0.00230995 0)
(0.19982 0.00228095 0)
(0.199607 0.00225239 0)
(0.199388 0.00222423 0)
(0.199163 0.00219648 0)
(0.198931 0.00216911 0)
(0.198693 0.00214213 0)
(0.198449 0.00211551 0)
(0.198198 0.00208926 0)
(0.197941 0.00206336 0)
(0.197677 0.00203782 0)
(0.197408 0.00201262 0)
(0.197132 0.00198777 0)
(0.19685 0.00196326 0)
(0.196561 0.00193909 0)
(0.196267 0.00191527 0)
(0.195967 0.00189179 0)
(0.19566 0.00186865 0)
(0.195348 0.00184587 0)
(0.195029 0.00182345 0)
(0.194705 0.0018014 0)
(0.194374 0.00177973 0)
(0.194038 0.00175846 0)
(0.193696 0.00173761 0)
(0.193349 0.0017172 0)
(0.192995 0.00169729 0)
(0.192636 0.0016779 0)
(0.192271 0.00165913 0)
(0.191901 0.00164107 0)
(0.191525 0.0016239 0)
(0.191145 0.00160782 0)
(0.19076 0.00159299 0)
(0.190375 0.00157881 0)
(0.189997 0.00156099 0)
(0.18953 0.00151736 0)
(0.197664 0.00586172 0)
(0.198042 0.00631176 0)
(0.198485 0.00668555 0)
(0.198973 0.00697152 0)
(0.199484 0.00716854 0)
(0.199998 0.00728131 0)
(0.200498 0.00731715 0)
(0.200972 0.00728523 0)
(0.20141 0.00719619 0)
(0.201805 0.00706149 0)
(0.202156 0.00689252 0)
(0.20246 0.00669995 0)
(0.20272 0.00649323 0)
(0.202938 0.00628038 0)
(0.203119 0.00606775 0)
(0.203266 0.00586013 0)
(0.203385 0.00566079 0)
(0.20348 0.0054718 0)
(0.203556 0.00529418 0)
(0.203615 0.00512823 0)
(0.203661 0.0049737 0)
(0.203697 0.00483004 0)
(0.203724 0.00469646 0)
(0.203744 0.00457214 0)
(0.203758 0.00445622 0)
(0.203767 0.00434789 0)
(0.203772 0.0042464 0)
(0.203773 0.00415106 0)
(0.203772 0.00406128 0)
(0.203767 0.00397652 0)
(0.203759 0.00389632 0)
(0.203749 0.00382025 0)
(0.203737 0.00374796 0)
(0.203722 0.00367912 0)
(0.203705 0.00361345 0)
(0.203685 0.00355069 0)
(0.203663 0.00349062 0)
(0.203639 0.00343302 0)
(0.203613 0.00337771 0)
(0.203584 0.00332452 0)
(0.203553 0.00327331 0)
(0.203519 0.00322392 0)
(0.203483 0.00317623 0)
(0.203444 0.00313013 0)
(0.203402 0.0030855 0)
(0.203358 0.00304226 0)
(0.203311 0.0030003 0)
(0.20326 0.00295956 0)
(0.203207 0.00291994 0)
(0.203151 0.00288139 0)
(0.203091 0.00284383 0)
(0.203028 0.00280721 0)
(0.202962 0.00277148 0)
(0.202892 0.00273658 0)
(0.202818 0.00270246 0)
(0.202741 0.00266908 0)
(0.20266 0.00263641 0)
(0.202575 0.0026044 0)
(0.202486 0.00257302 0)
(0.202393 0.00254224 0)
(0.202296 0.00251202 0)
(0.202194 0.00248235 0)
(0.202088 0.0024532 0)
(0.201978 0.00242454 0)
(0.201863 0.00239636 0)
(0.201744 0.00236862 0)
(0.20162 0.00234132 0)
(0.201491 0.00231444 0)
(0.201358 0.00228797 0)
(0.20122 0.00226188 0)
(0.201076 0.00223617 0)
(0.200928 0.00221082 0)
(0.200775 0.00218583 0)
(0.200617 0.00216118 0)
(0.200454 0.00213688 0)
(0.200285 0.00211291 0)
(0.200112 0.00208926 0)
(0.199933 0.00206594 0)
(0.199749 0.00204293 0)
(0.199559 0.00202025 0)
(0.199365 0.00199788 0)
(0.199165 0.00197584 0)
(0.198959 0.00195412 0)
(0.198748 0.00193272 0)
(0.198532 0.00191166 0)
(0.198311 0.00189094 0)
(0.198083 0.00187059 0)
(0.197851 0.0018506 0)
(0.197613 0.00183101 0)
(0.197369 0.00181184 0)
(0.19712 0.00179314 0)
(0.196865 0.00177494 0)
(0.196605 0.00175731 0)
(0.196339 0.00174035 0)
(0.196068 0.00172416 0)
(0.195792 0.00170883 0)
(0.195512 0.00169423 0)
(0.19523 0.00167919 0)
(0.194952 0.00165878 0)