/*--------------------------------*- C++ -*----------------------------------*\
| =========                 |                                                 |
| \\      /  F ield         | OpenFOAM: The Open Source CFD Toolbox           |
|  \\    /   O peration     | Version:  2.3.0                                 |
|   \\  /    A nd           | Web:      www.OpenFOAM.org                      |
|    \\/     M anipulation  |                                                 |
\*---------------------------------------------------------------------------*/
FoamFile
{
    version     2.0;
    format      ascii;
    class       volVectorField;
    location    "0.65";
    object      U;
}
// * * * * * * * * * * * * * * * * * * * * * * * * * * * * * * * * * * * * * //

dimensions      [0 1 -1 0 0 0 0];

internalField   nonuniform List<vector> 
2945
(
(0.160569 0.00663516 0)
(0.120784 0.00663582 0)
(0.0886373 0.0045976 0)
(0.0665249 0.00245967 0)
(0.0523346 0.00107934 0)
(0.0435137 0.000340277 0)
(0.0382401 0.000118565 0)
(0.0348184 8.11274e-05 0)
(0.0323582 7.24225e-05 0)
(0.0304845 7.18149e-05 0)
(0.0289468 7.28708e-05 0)
(0.0275846 7.46946e-05 0)
(0.0263356 7.24584e-05 0)
(0.0252097 6.33634e-05 0)
(0.0242162 5.40099e-05 0)
(0.0233286 4.90335e-05 0)
(0.0225281 4.35682e-05 0)
(0.0218023 3.88923e-05 0)
(0.0211269 3.83104e-05 0)
(0.020491 3.60406e-05 0)
(0.01991 3.02958e-05 0)
(0.0193882 2.65179e-05 0)
(0.0189032 2.5547e-05 0)
(0.0184404 2.47434e-05 0)
(0.0180024 2.31048e-05 0)
(0.017589 2.17262e-05 0)
(0.0171965 2.09139e-05 0)
(0.0168271 1.88899e-05 0)
(0.0164845 1.67194e-05 0)
(0.0161657 1.54421e-05 0)
(0.0158609 1.52356e-05 0)
(0.0155673 1.4596e-05 0)
(0.0152833 1.4345e-05 0)
(0.0150106 1.3738e-05 0)
(0.0147561 1.16642e-05 0)
(0.0145182 1.10381e-05 0)
(0.0142871 1.12798e-05 0)
(0.0140614 1.07876e-05 0)
(0.0138483 9.67376e-06 0)
(0.0136455 9.23335e-06 0)
(0.0134499 9.02214e-06 0)
(0.0132624 8.34139e-06 0)
(0.0130818 8.16499e-06 0)
(0.0129081 7.69867e-06 0)
(0.0127407 7.33028e-06 0)
(0.0125807 6.9223e-06 0)
(0.0124258 6.70345e-06 0)
(0.0122749 6.72825e-06 0)
(0.0121293 6.16261e-06 0)
(0.0119914 5.65132e-06 0)
(0.0118579 5.71183e-06 0)
(0.0117295 5.1912e-06 0)
(0.0116059 5.04278e-06 0)
(0.0114843 5.23793e-06 0)
(0.0113659 4.82153e-06 0)
(0.0112548 4.34121e-06 0)
(0.0111471 4.41469e-06 0)
(0.011044 3.94616e-06 0)
(0.0109439 3.98339e-06 0)
(0.0108461 3.98278e-06 0)
(0.0107526 3.46645e-06 0)
(0.0106632 3.50113e-06 0)
(0.0105753 3.47044e-06 0)
(0.0104906 3.26406e-06 0)
(0.0104091 3.1424e-06 0)
(0.0103309 3.03577e-06 0)
(0.0102547 2.85355e-06 0)
(0.0101829 2.8075e-06 0)
(0.0101085 2.94251e-06 0)
(0.0100441 2.40327e-06 0)
(0.00996901 2.98356e-06 0)
(0.0099196 1.56965e-06 0)
(0.00983299 3.78325e-06 0)
(0.00981002 -2.00889e-07 0)
(0.00970693 5.36502e-06 0)
(0.191918 0.0123492 0)
(0.184285 0.0141279 0)
(0.171331 0.0121146 0)
(0.15651 0.00904676 0)
(0.141635 0.00637639 0)
(0.128116 0.00386115 0)
(0.11665 0.00243813 0)
(0.10717 0.00168535 0)
(0.0994416 0.00121917 0)
(0.0932539 0.000944978 0)
(0.0882293 0.000792116 0)
(0.0839494 0.000703458 0)
(0.0801555 0.00063191 0)
(0.0767716 0.000554702 0)
(0.073764 0.000485651 0)
(0.0710608 0.00043607 0)
(0.068619 0.000390325 0)
(0.0663942 0.000352377 0)
(0.0643348 0.000329749 0)
(0.062428 0.000303921 0)
(0.0606771 0.000270092 0)
(0.0590699 0.000244749 0)
(0.0575689 0.000229951 0)
(0.0561499 0.000216698 0)
(0.0548147 0.000201832 0)
(0.0535562 0.000188811 0)
(0.0523675 0.000177955 0)
(0.0512501 0.000164156 0)
(0.0501998 0.000150963 0)
(0.0492103 0.000141069 0)
(0.0482666 0.0001351 0)
(0.0473648 0.000128123 0)
(0.0464992 0.000122569 0)
(0.0456755 0.0001159 0)
(0.0448986 0.000105513 0)
(0.0441591 0.000100176 0)
(0.0434473 9.74539e-05 0)
(0.0427603 9.26539e-05 0)
(0.0421072 8.6147e-05 0)
(0.0414812 8.21577e-05 0)
(0.040879 7.87843e-05 0)
(0.0403018 7.41896e-05 0)
(0.0397454 7.13933e-05 0)
(0.0392117 6.77039e-05 0)
(0.0386965 6.4612e-05 0)
(0.0382025 6.13674e-05 0)
(0.0377248 5.89179e-05 0)
(0.0372632 5.71164e-05 0)
(0.0368193 5.36729e-05 0)
(0.0363937 5.06e-05 0)
(0.0359823 4.92675e-05 0)
(0.0355871 4.62177e-05 0)
(0.0352045 4.45552e-05 0)
(0.0348332 4.37422e-05 0)
(0.0344747 4.10926e-05 0)
(0.0341335 3.83955e-05 0)
(0.0338031 3.75279e-05 0)
(0.0334866 3.49731e-05 0)
(0.0331787 3.4175e-05 0)
(0.032882 3.30017e-05 0)
(0.0325971 3.0501e-05 0)
(0.0323229 2.97464e-05 0)
(0.0320573 2.86775e-05 0)
(0.0318019 2.71691e-05 0)
(0.0315566 2.59223e-05 0)
(0.0313221 2.4807e-05 0)
(0.0310941 2.35244e-05 0)
(0.0308789 2.27055e-05 0)
(0.0306618 2.23626e-05 0)
(0.0304704 2.01002e-05 0)
(0.0302553 2.13823e-05 0)
(0.0301024 1.62897e-05 0)
(0.0298629 2.33021e-05 0)
(0.0297801 9.08377e-06 0)
(0.0294888 2.68162e-05 0)
(0.191805 0.0109213 0)
(0.194106 0.0140165 0)
(0.194563 0.0140554 0)
(0.191965 0.0120704 0)
(0.186131 0.00974787 0)
(0.178301 0.00751818 0)
(0.17014 0.00599415 0)
(0.162176 0.00484762 0)
(0.15452 0.00387618 0)
(0.147447 0.00310063 0)
(0.141133 0.00256215 0)
(0.135499 0.00222476 0)
(0.130351 0.00197235 0)
(0.125589 0.0017334 0)
(0.121212 0.00152696 0)
(0.117193 0.00136877 0)
(0.113502 0.00122729 0)
(0.110091 0.00111141 0)
(0.106902 0.00102852 0)
(0.103933 0.000943253 0)
(0.101187 0.000850394 0)
(0.0986379 0.000778057 0)
(0.0962425 0.000727782 0)
(0.0939684 0.000681948 0)
(0.0918187 0.000634852 0)
(0.0897872 0.000593295 0)
(0.087864 0.000556882 0)
(0.0860493 0.000517085 0)
(0.084331 0.000480412 0)
(0.0827027 0.000450277 0)
(0.0811487 0.000428173 0)
(0.079663 0.00040519 0)
(0.078237 0.000385213 0)
(0.0768792 0.000363373 0)
(0.0755923 0.000336701 0)
(0.0743604 0.000320011 0)
(0.0731768 0.000307723 0)
(0.0720355 0.000292271 0)
(0.0709454 0.000274366 0)
(0.0698983 0.000261653 0)
(0.0688902 0.000249899 0)
(0.0679227 0.000236472 0)
(0.0669886 0.000226654 0)
(0.0660919 0.000215311 0)
(0.0652257 0.0002056 0)
(0.0643934 0.000195619 0)
(0.063589 0.000187378 0)
(0.0628124 0.000180195 0)
(0.0620647 0.000170507 0)
(0.0613448 0.000161843 0)
(0.0606496 0.000156146 0)
(0.0599812 0.000147662 0)
(0.0593333 0.000142014 0)
(0.0587066 0.000137532 0)
(0.0581017 0.000129975 0)
(0.0575227 0.000122618 0)
(0.0569627 0.000118635 0)
(0.0564253 0.000111753 0)
(0.0559029 0.000108224 0)
(0.0554009 0.000103661 0)
(0.054918 9.72548e-05 0)
(0.0544523 9.3953e-05 0)
(0.0540037 8.99327e-05 0)
(0.0535719 8.53554e-05 0)
(0.0531574 8.12087e-05 0)
(0.0527615 7.74999e-05 0)
(0.0523775 7.35852e-05 0)
(0.0520141 7.06075e-05 0)
(0.0516532 6.82152e-05 0)
(0.0513289 6.30568e-05 0)
(0.0509766 6.37123e-05 0)
(0.050711 5.3797e-05 0)
(0.0503306 6.48703e-05 0)
(0.0501727 3.90267e-05 0)
(0.0496979 6.72129e-05 0)
(0.19236 0.00940075 0)
(0.194489 0.0124252 0)
(0.197127 0.0123631 0)
(0.200028 0.0118901 0)
(0.199905 0.0107122 0)
(0.197758 0.0084589 0)
(0.194619 0.0072121 0)
(0.190823 0.00640499 0)
(0.18642 0.00572298 0)
(0.181648 0.0050322 0)
(0.176885 0.00436247 0)
(0.17236 0.00386281 0)
(0.168021 0.00349944 0)
(0.163755 0.00315966 0)
(0.159584 0.00284446 0)
(0.155559 0.00258634 0)
(0.151713 0.00234762 0)
(0.148035 0.00214697 0)
(0.144487 0.00199526 0)
(0.141094 0.00183753 0)
(0.137894 0.00167041 0)
(0.134889 0.00153854 0)
(0.132033 0.00144356 0)
(0.129278 0.00135709 0)
(0.126626 0.00126807 0)
(0.124088 0.00118695 0)
(0.121667 0.00111482 0)
(0.119367 0.00104008 0)
(0.117172 0.000972149 0)
(0.115074 0.000913972 0)
(0.113057 0.000868579 0)
(0.111116 0.000822555 0)
(0.109242 0.000781314 0)
(0.107449 0.00073766 0)
(0.105744 0.000688259 0)
(0.104104 0.000654921 0)
(0.102524 0.000628133 0)
(0.100995 0.000597232 0)
(0.0995263 0.000563121 0)
(0.0981122 0.000537329 0)
(0.0967469 0.000513105 0)
(0.0954319 0.00048686 0)
(0.094158 0.000466385 0)
(0.0929318 0.000443625 0)
(0.0917454 0.000423912 0)
(0.0906015 0.000403901 0)
(0.0894946 0.000386678 0)
(0.0884238 0.000371237 0)
(0.0873909 0.00035239 0)
(0.0863936 0.000335359 0)
(0.085429 0.000322718 0)
(0.0845 0.000306214 0)
(0.0835978 0.000294216 0)
(0.0827249 0.000283818 0)
(0.0818817 0.000269043 0)
(0.0810712 0.000254823 0)
(0.0802868 0.000245727 0)
(0.0795326 0.000232447 0)
(0.0787993 0.000224316 0)
(0.0780938 0.00021449 0)
(0.0774145 0.000202293 0)
(0.0767581 0.000194731 0)
(0.0761266 0.000186013 0)
(0.0755177 0.000176716 0)
(0.0749327 0.000167973 0)
(0.0743732 0.000160152 0)
(0.0738318 0.000152051 0)
(0.073317 0.000145533 0)
(0.0728108 0.000139546 0)
(0.0723486 0.00013039 0)
(0.0718604 0.000128717 0)
(0.0714736 0.000113448 0)
(0.0709585 0.000126174 0)
(0.0707137 9.11398e-05 0)
(0.0700547 0.000123374 0)
(0.193322 0.00901984 0)
(0.195073 0.0110776 0)
(0.197434 0.0127299 0)
(0.199929 0.0112407 0)
(0.20134 0.0115452 0)
(0.202046 0.00818427 0)
(0.201746 0.0077767 0)
(0.20078 0.00726141 0)
(0.199297 0.00652095 0)
(0.197192 0.00589287 0)
(0.194674 0.00533246 0)
(0.192133 0.00487476 0)
(0.189635 0.00452299 0)
(0.187011 0.00420312 0)
(0.184232 0.0038993 0)
(0.181358 0.00363674 0)
(0.17845 0.00337218 0)
(0.175538 0.00314222 0)
(0.172598 0.00296723 0)
(0.169642 0.00276897 0)
(0.166739 0.00254237 0)
(0.163957 0.00235884 0)
(0.161289 0.00222937 0)
(0.158667 0.00211579 0)
(0.156063 0.00199688 0)
(0.153494 0.00188203 0)
(0.15099 0.00177482 0)
(0.14858 0.00166345 0)
(0.146261 0.00156384 0)
(0.144024 0.00147811 0)
(0.141845 0.00141054 0)
(0.139713 0.00134136 0)
(0.137625 0.00127716 0)
(0.135606 0.00120848 0)
(0.133672 0.00113235 0)
(0.131807 0.00108003 0)
(0.129999 0.001037 0)
(0.128234 0.000988556 0)
(0.126525 0.00093556 0)
(0.124871 0.00089417 0)
(0.123267 0.000855165 0)
(0.121713 0.000813816 0)
(0.120197 0.000780677 0)
(0.118731 0.000743929 0)
(0.117307 0.000711841 0)
(0.115927 0.000679604 0)
(0.114587 0.000651147 0)
(0.113284 0.000625355 0)
(0.112024 0.000595025 0)
(0.110803 0.000567484 0)
(0.109618 0.000545965 0)
(0.108473 0.000519368 0)
(0.107358 0.000499168 0)
(0.106275 0.000481011 0)
(0.105227 0.000456987 0)
(0.104217 0.000434084 0)
(0.103236 0.000418234 0)
(0.102291 0.00039673 0)
(0.101369 0.000382404 0)
(0.100481 0.000365651 0)
(0.0996233 0.000345923 0)
(0.0987928 0.000332642 0)
(0.0979924 0.000317615 0)
(0.097219 0.000302117 0)
(0.0964741 0.000287225 0)
(0.0957597 0.000273841 0)
(0.0950689 0.000260082 0)
(0.0944085 0.000248732 0)
(0.0937626 0.000237654 0)
(0.0931648 0.000223392 0)
(0.0925459 0.000217653 0)
(0.0920362 0.000196735 0)
(0.0913921 0.000208039 0)
(0.0910566 0.000167396 0)
(0.0902136 0.000196872 0)
(0.193953 0.00869121 0)
(0.195686 0.0108255 0)
(0.197691 0.0116735 0)
(0.199696 0.0106077 0)
(0.201153 0.0109012 0)
(0.202105 0.00867579 0)
(0.202588 0.00738104 0)
(0.202783 0.0070216 0)
(0.202641 0.00684794 0)
(0.202025 0.0064436 0)
(0.200992 0.00586993 0)
(0.199918 0.0054024 0)
(0.198923 0.00507195 0)
(0.197814 0.00477815 0)
(0.196504 0.00450226 0)
(0.195008 0.0042755 0)
(0.193369 0.00403874 0)
(0.191637 0.00383147 0)
(0.189799 0.00368494 0)
(0.187818 0.00350445 0)
(0.185735 0.00326327 0)
(0.183666 0.00304986 0)
(0.181668 0.00290069 0)
(0.17969 0.00278214 0)
(0.177666 0.00266291 0)
(0.175573 0.00254158 0)
(0.173438 0.00241867 0)
(0.171323 0.00228046 0)
(0.169264 0.00215425 0)
(0.16727 0.00204712 0)
(0.165307 0.00196809 0)
(0.16334 0.00188699 0)
(0.16136 0.00180863 0)
(0.1594 0.00171975 0)
(0.157497 0.00161696 0)
(0.155654 0.00154598 0)
(0.153859 0.00148934 0)
(0.152087 0.0014264 0)
(0.150346 0.00135589 0)
(0.148645 0.00129929 0)
(0.146985 0.001246 0)
(0.145365 0.00119028 0)
(0.14377 0.00114534 0)
(0.14221 0.00109454 0)
(0.140687 0.00104972 0)
(0.139202 0.00100496 0)
(0.137749 0.000965 0)
(0.136325 0.000928563 0)
(0.134938 0.000885621 0)
(0.13359 0.000846454 0)
(0.132277 0.000815362 0)
(0.131001 0.000777814 0)
(0.129751 0.000748723 0)
(0.128529 0.000721935 0)
(0.127343 0.000687227 0)
(0.126195 0.000654448 0)
(0.125079 0.000630976 0)
(0.123997 0.000600146 0)
(0.122938 0.000578726 0)
(0.121911 0.000553913 0)
(0.120917 0.000525285 0)
(0.119952 0.000505335 0)
(0.119019 0.000482851 0)
(0.118113 0.000460085 0)
(0.117238 0.000437855 0)
(0.116396 0.000417775 0)
(0.11558 0.000397151 0)
(0.114796 0.000380028 0)
(0.11403 0.000362578 0)
(0.113313 0.00034241 0)
(0.112579 0.00033084 0)
(0.111958 0.000304585 0)
(0.111198 0.000310942 0)
(0.110778 0.000268788 0)
(0.109764 0.000289103 0)
(0.194222 0.00783756 0)
(0.195961 0.0105907 0)
(0.197964 0.0102116 0)
(0.199627 0.0114966 0)
(0.200985 0.00960177 0)
(0.201807 0.00849717 0)
(0.202384 0.00752293 0)
(0.202832 0.00688852 0)
(0.202939 0.00669717 0)
(0.202835 0.00646349 0)
(0.202493 0.00597298 0)
(0.202117 0.00542643 0)
(0.201835 0.00514662 0)
(0.201526 0.00495569 0)
(0.201105 0.00475503 0)
(0.200548 0.00456403 0)
(0.199861 0.0043532 0)
(0.199093 0.00418181 0)
(0.198234 0.00408088 0)
(0.197208 0.003946 0)
(0.195998 0.00372998 0)
(0.19473 0.00351368 0)
(0.193509 0.00335245 0)
(0.192317 0.00323614 0)
(0.191079 0.00313794 0)
(0.189726 0.00304022 0)
(0.188242 0.00293239 0)
(0.186684 0.00278927 0)
(0.185126 0.00264595 0)
(0.183625 0.00252138 0)
(0.182154 0.00244166 0)
(0.180646 0.00236509 0)
(0.179068 0.00229006 0)
(0.177442 0.00219651 0)
(0.175817 0.00207515 0)
(0.174227 0.0019881 0)
(0.172678 0.00192173 0)
(0.171134 0.00185161 0)
(0.169588 0.00177065 0)
(0.168052 0.00170306 0)
(0.166539 0.00163842 0)
(0.165051 0.00157234 0)
(0.163567 0.00152001 0)
(0.162095 0.00145832 0)
(0.160642 0.0014032 0)
(0.159215 0.00134808 0)
(0.157806 0.00129885 0)
(0.156409 0.00125446 0)
(0.155031 0.00120014 0)
(0.153681 0.00114952 0)
(0.152363 0.00110947 0)
(0.151076 0.00106184 0)
(0.149805 0.00102515 0)
(0.148549 0.000990739 0)
(0.147319 0.0009451 0)
(0.146124 0.000902037 0)
(0.144959 0.000870979 0)
(0.143825 0.000830894 0)
(0.142708 0.000802805 0)
(0.141616 0.000769948 0)
(0.140554 0.000731777 0)
(0.139517 0.000704897 0)
(0.138511 0.000674601 0)
(0.137529 0.000644303 0)
(0.136575 0.000614239 0)
(0.135652 0.000586953 0)
(0.134757 0.000558724 0)
(0.13389 0.000535543 0)
(0.133043 0.000510905 0)
(0.13224 0.000484737 0)
(0.131425 0.000465616 0)
(0.130719 0.000435278 0)
(0.129873 0.000433075 0)
(0.129387 0.000393787 0)
(0.128234 0.000399501 0)
(0.194625 0.00707796 0)
(0.196089 0.00973838 0)
(0.197997 0.00954433 0)
(0.199528 0.0108597 0)
(0.200922 0.00918431 0)
(0.201693 0.00859023 0)
(0.202059 0.00731936 0)
(0.202501 0.006588 0)
(0.202808 0.00658527 0)
(0.202823 0.00654721 0)
(0.202702 0.00603112 0)
(0.202516 0.00565204 0)
(0.202429 0.00518143 0)
(0.202394 0.00491546 0)
(0.202319 0.00479842 0)
(0.202175 0.00467178 0)
(0.201978 0.0044849 0)
(0.201756 0.00430434 0)
(0.201483 0.00424056 0)
(0.201062 0.00416291 0)
(0.200456 0.00397741 0)
(0.199783 0.00376714 0)
(0.199157 0.00359595 0)
(0.198586 0.00347636 0)
(0.198007 0.00339963 0)
(0.197331 0.0033379 0)
(0.196499 0.00326742 0)
(0.195531 0.00314295 0)
(0.194509 0.00299426 0)
(0.193536 0.00285033 0)
(0.19262 0.00277133 0)
(0.191672 0.00270973 0)
(0.190629 0.00265387 0)
(0.18949 0.00257371 0)
(0.18829 0.00244837 0)
(0.18709 0.00235189 0)
(0.185924 0.00227856 0)
(0.184758 0.00220687 0)
(0.183568 0.00212491 0)
(0.182358 0.00205455 0)
(0.181147 0.00198297 0)
(0.179948 0.00191143 0)
(0.178737 0.00185835 0)
(0.177512 0.0017917 0)
(0.176283 0.00173079 0)
(0.175062 0.0016694 0)
(0.173848 0.00161493 0)
(0.172627 0.00156785 0)
(0.171399 0.00150671 0)
(0.170178 0.00144688 0)
(0.168979 0.00139924 0)
(0.167807 0.00134331 0)
(0.166642 0.00130217 0)
(0.165473 0.0012638 0)
(0.16431 0.00120913 0)
(0.16317 0.00115647 0)
(0.162057 0.0011184 0)
(0.16097 0.00106996 0)
(0.159894 0.00103707 0)
(0.158829 0.00099798 0)
(0.157783 0.000951 0)
(0.156756 0.000917804 0)
(0.155754 0.000880177 0)
(0.15477 0.000843068 0)
(0.153807 0.000805673 0)
(0.152869 0.000771614 0)
(0.151955 0.00073565 0)
(0.151065 0.00070693 0)
(0.150192 0.000674942 0)
(0.149356 0.000643693 0)
(0.148509 0.000615603 0)
(0.147762 0.000583317 0)
(0.146876 0.000569602 0)
(0.146354 0.000537264 0)
(0.14512 0.00052482 0)
(0.195205 0.00670115 0)
(0.1963 0.00935862 0)
(0.197967 0.00874483 0)
(0.199333 0.010299 0)
(0.200768 0.00928204 0)
(0.201649 0.00803551 0)
(0.201857 0.00719382 0)
(0.202173 0.00662782 0)
(0.202537 0.00647845 0)
(0.202691 0.00647814 0)
(0.202668 0.00614748 0)
(0.202583 0.00555196 0)
(0.202477 0.00524249 0)
(0.202458 0.00503781 0)
(0.202483 0.00474201 0)
(0.202467 0.00464497 0)
(0.202449 0.00447361 0)
(0.202448 0.00434699 0)
(0.202421 0.00428614 0)
(0.202263 0.00426373 0)
(0.201951 0.00411362 0)
(0.201613 0.00389922 0)
(0.201338 0.00369812 0)
(0.201128 0.00356704 0)
(0.200941 0.00350284 0)
(0.200698 0.0034732 0)
(0.200325 0.00344431 0)
(0.199809 0.00335024 0)
(0.199205 0.00320827 0)
(0.198643 0.00304447 0)
(0.198169 0.00295955 0)
(0.197692 0.00290995 0)
(0.197133 0.00288074 0)
(0.196466 0.00282768 0)
(0.1957 0.00271032 0)
(0.194901 0.00261153 0)
(0.194129 0.00253434 0)
(0.193365 0.0024627 0)
(0.192574 0.00238476 0)
(0.191744 0.00231946 0)
(0.190897 0.00224616 0)
(0.190054 0.00217318 0)
(0.189193 0.00212464 0)
(0.188299 0.00205972 0)
(0.187382 0.00199814 0)
(0.186458 0.00193455 0)
(0.185533 0.00187888 0)
(0.184592 0.00183484 0)
(0.183621 0.00177355 0)
(0.182629 0.00170932 0)
(0.181642 0.00165633 0)
(0.180679 0.00159339 0)
(0.179721 0.00155089 0)
(0.178747 0.00151394 0)
(0.177753 0.00145485 0)
(0.176762 0.00139517 0)
(0.175788 0.00135118 0)
(0.174838 0.00129525 0)
(0.173894 0.00125975 0)
(0.172951 0.00121762 0)
(0.172011 0.00116439 0)
(0.171076 0.00112676 0)
(0.170158 0.00108316 0)
(0.16925 0.00104073 0)
(0.168354 0.000997405 0)
(0.167474 0.000958151 0)
(0.16661 0.00091509 0)
(0.165763 0.00088203 0)
(0.164929 0.000843194 0)
(0.164122 0.000808736 0)
(0.163301 0.000771047 0)
(0.16257 0.000739303 0)
(0.161702 0.000712629 0)
(0.161184 0.000690334 0)
(0.159946 0.000658855 0)
(0.195763 0.00645252 0)
(0.19658 0.00879693 0)
(0.198006 0.00834944 0)
(0.199162 0.00964303 0)
(0.200503 0.0090288 0)
(0.20161 0.00815375 0)
(0.201785 0.00702418 0)
(0.201907 0.00653106 0)
(0.202278 0.00632204 0)
(0.20251 0.00637979 0)
(0.202533 0.00612714 0)
(0.202568 0.00567636 0)
(0.202477 0.005242 0)
(0.202407 0.00492228 0)
(0.202443 0.00486726 0)
(0.202468 0.00462391 0)
(0.202483 0.00447908 0)
(0.202533 0.00432852 0)
(0.202566 0.0042929 0)
(0.202474 0.00429029 0)
(0.202282 0.00419409 0)
(0.202116 0.0039585 0)
(0.202018 0.00374904 0)
(0.201965 0.00357744 0)
(0.201941 0.00351895 0)
(0.201891 0.00351493 0)
(0.201757 0.00352711 0)
(0.201508 0.00346367 0)
(0.201167 0.00332231 0)
(0.200854 0.00313376 0)
(0.200648 0.00304755 0)
(0.200469 0.00300241 0)
(0.200239 0.00299289 0)
(0.199917 0.00297404 0)
(0.199488 0.002874 0)
(0.199009 0.0027742 0)
(0.198551 0.0026935 0)
(0.198111 0.00262273 0)
(0.197657 0.00255045 0)
(0.197162 0.00249294 0)
(0.196641 0.0024196 0)
(0.196125 0.00234759 0)
(0.195597 0.00230589 0)
(0.195031 0.00224746 0)
(0.19443 0.00218987 0)
(0.193812 0.00212649 0)
(0.193191 0.00207134 0)
(0.192557 0.00203434 0)
(0.191884 0.00197916 0)
(0.191167 0.00191664 0)
(0.190434 0.00186166 0)
(0.189718 0.00179214 0)
(0.189013 0.00174921 0)
(0.188293 0.00171815 0)
(0.187534 0.00166064 0)
(0.186754 0.00159854 0)
(0.185977 0.00155062 0)
(0.185218 0.00148792 0)
(0.184468 0.00145121 0)
(0.183714 0.00140896 0)
(0.182949 0.00135303 0)
(0.182176 0.00131398 0)
(0.181405 0.00126679 0)
(0.180636 0.00122115 0)
(0.179872 0.00117366 0)
(0.179112 0.00113149 0)
(0.178361 0.00108291 0)
(0.177617 0.00104723 0)
(0.176881 0.00100255 0)
(0.176162 0.000967006 0)
(0.175426 0.000920319 0)
(0.174765 0.000891313 0)
(0.173974 0.000852232 0)
(0.173501 0.00084143 0)
(0.172344 0.000793032 0)
(0.196227 0.00628178 0)
(0.196881 0.00816363 0)
(0.198101 0.00824506 0)
(0.199106 0.00880084 0)
(0.200272 0.008931 0)
(0.201581 0.00781631 0)
(0.201659 0.00695072 0)
(0.201684 0.00643947 0)
(0.202068 0.00627028 0)
(0.202355 0.00622962 0)
(0.202374 0.00601709 0)
(0.202477 0.00569173 0)
(0.20245 0.00532713 0)
(0.202357 0.00495068 0)
(0.202374 0.00480939 0)
(0.202415 0.0046138 0)
(0.202444 0.00445313 0)
(0.202504 0.00432013 0)
(0.202515 0.00431518 0)
(0.202421 0.00433749 0)
(0.202295 0.00420393 0)
(0.202229 0.00396949 0)
(0.202193 0.00374606 0)
(0.202183 0.00358386 0)
(0.202201 0.00353246 0)
(0.202206 0.00352506 0)
(0.202158 0.00355939 0)
(0.202031 0.00352773 0)
(0.201826 0.00341399 0)
(0.201647 0.0031865 0)
(0.20157 0.00306097 0)
(0.201532 0.00302245 0)
(0.20147 0.0030298 0)
(0.201343 0.00304009 0)
(0.201122 0.00296677 0)
(0.200854 0.00286997 0)
(0.200602 0.00278025 0)
(0.200373 0.00270614 0)
(0.200144 0.00264141 0)
(0.199883 0.00259508 0)
(0.199596 0.00251952 0)
(0.199323 0.00244734 0)
(0.199049 0.0024115 0)
(0.198739 0.00236092 0)
(0.198393 0.00231053 0)
(0.198027 0.00224905 0)
(0.197659 0.00219282 0)
(0.19729 0.00216298 0)
(0.196887 0.00211781 0)
(0.196429 0.00206267 0)
(0.195939 0.00200988 0)
(0.195455 0.00193403 0)
(0.194992 0.00188907 0)
(0.194522 0.00186519 0)
(0.194009 0.00181411 0)
(0.193459 0.00175503 0)
(0.192896 0.00170587 0)
(0.192342 0.00163698 0)
(0.1918 0.00159945 0)
(0.191258 0.00155877 0)
(0.1907 0.0015032 0)
(0.190123 0.00146585 0)
(0.189537 0.00141785 0)
(0.188943 0.0013715 0)
(0.188346 0.00132192 0)
(0.187746 0.00127886 0)
(0.187146 0.00122668 0)
(0.186546 0.00119048 0)
(0.185948 0.00114167 0)
(0.185358 0.00110648 0)
(0.18475 0.00105235 0)
(0.1842 0.00102739 0)
(0.183534 0.000978639 0)
(0.18314 0.000978703 0)
(0.182136 0.000918013 0)
(0.196539 0.00609187 0)
(0.197145 0.00769081 0)
(0.198258 0.00812478 0)
(0.199157 0.00811587 0)
(0.200141 0.00875283 0)
(0.201421 0.00752074 0)
(0.201514 0.00677294 0)
(0.201534 0.00647179 0)
(0.201914 0.00608991 0)
(0.202177 0.00647798 0)
(0.202268 0.00585819 0)
(0.202377 0.00560036 0)
(0.20237 0.00533974 0)
(0.202291 0.00494105 0)
(0.202302 0.00480394 0)
(0.202351 0.00464609 0)
(0.202406 0.00442361 0)
(0.202448 0.00429502 0)
(0.202406 0.00433482 0)
(0.20232 0.00439299 0)
(0.202267 0.00418997 0)
(0.202239 0.00401569 0)
(0.20221 0.00373629 0)
(0.20221 0.003599 0)
(0.202241 0.00351991 0)
(0.202246 0.00352842 0)
(0.202205 0.00358282 0)
(0.202119 0.00357294 0)
(0.201986 0.00344139 0)
(0.201867 0.00318645 0)
(0.20185 0.00309159 0)
(0.201856 0.00303673 0)
(0.201853 0.00304412 0)
(0.201808 0.00307024 0)
(0.201692 0.00301188 0)
(0.201546 0.00292432 0)
(0.201413 0.00283015 0)
(0.201295 0.00274524 0)
(0.201187 0.00268206 0)
(0.201057 0.00264705 0)
(0.200908 0.00256919 0)
(0.200785 0.00249577 0)
(0.20067 0.00246389 0)
(0.200523 0.00241991 0)
(0.200347 0.0023766 0)
(0.200152 0.00231864 0)
(0.199958 0.00225954 0)
(0.199775 0.00223344 0)
(0.19957 0.00219793 0)
(0.199313 0.00215352 0)
(0.199017 0.00210674 0)
(0.198718 0.00202577 0)
(0.198443 0.00197656 0)
(0.198177 0.0019579 0)
(0.197872 0.00191493 0)
(0.197525 0.00186352 0)
(0.197154 0.00181634 0)
(0.196784 0.00174163 0)
(0.196428 0.00170224 0)
(0.196078 0.00166314 0)
(0.195716 0.00160984 0)
(0.195332 0.00157652 0)
(0.194932 0.00153026 0)
(0.194515 0.0014851 0)
(0.194089 0.00143566 0)
(0.193657 0.00139357 0)
(0.193218 0.0013392 0)
(0.192774 0.00130371 0)
(0.192328 0.0012533 0)
(0.191884 0.00121926 0)
(0.19142 0.00115972 0)
(0.191003 0.00113828 0)
(0.190487 0.00108437 0)
(0.190188 0.00109301 0)
(0.189383 0.00102592 0)
(0.1968 0.00592242 0)
(0.197385 0.00717772 0)
(0.198431 0.00790525 0)
(0.199256 0.00760488 0)
(0.200076 0.00827228 0)
(0.201219 0.00765584 0)
(0.201355 0.00661421 0)
(0.201395 0.0063126 0)
(0.201775 0.00629474 0)
(0.202072 0.00591748 0)
(0.202162 0.00592849 0)
(0.202246 0.00561606 0)
(0.202246 0.0053784 0)
(0.202211 0.00495969 0)
(0.202239 0.0047934 0)
(0.20231 0.00459056 0)
(0.202363 0.00444494 0)
(0.202361 0.00429512 0)
(0.202301 0.00431314 0)
(0.202256 0.00437514 0)
(0.202233 0.00430302 0)
(0.20219 0.00400687 0)
(0.202177 0.00376517 0)
(0.202201 0.00357627 0)
(0.202235 0.00351305 0)
(0.202222 0.00353739 0)
(0.202169 0.00359159 0)
(0.202096 0.00359627 0)
(0.202002 0.00349029 0)
(0.201911 0.0032144 0)
(0.201891 0.00308927 0)
(0.201908 0.00302502 0)
(0.201921 0.00304567 0)
(0.201894 0.00309208 0)
(0.201826 0.00304403 0)
(0.201752 0.00294673 0)
(0.201682 0.00285853 0)
(0.201607 0.00276738 0)
(0.201547 0.00270966 0)
(0.20148 0.00267298 0)
(0.201404 0.00259533 0)
(0.20136 0.00251168 0)
(0.201325 0.00248435 0)
(0.201262 0.00244724 0)
(0.201179 0.00240872 0)
(0.201085 0.00235283 0)
(0.20099 0.00228997 0)
(0.200913 0.00226574 0)
(0.200827 0.00223742 0)
(0.2007 0.00220356 0)
(0.200536 0.0021641 0)
(0.200364 0.0020788 0)
(0.200217 0.00202471 0)
(0.200087 0.00200925 0)
(0.199929 0.00197293 0)
(0.199731 0.00193036 0)
(0.199509 0.00188807 0)
(0.199282 0.00180977 0)
(0.199067 0.00176709 0)
(0.198864 0.00172739 0)
(0.198656 0.00167632 0)
(0.198431 0.00164778 0)
(0.198187 0.00160553 0)
(0.197925 0.00156261 0)
(0.197649 0.00151459 0)
(0.197364 0.00147528 0)
(0.197069 0.00142054 0)
(0.196767 0.00138545 0)
(0.196459 0.00133529 0)
(0.196152 0.00130228 0)
(0.195827 0.00124058 0)
(0.195539 0.0012201 0)
(0.195173 0.00116536 0)
(0.194967 0.00117983 0)
(0.194371 0.00111222 0)
(0.1971 0.00564862 0)
(0.197645 0.00675506 0)
(0.198601 0.00754748 0)
(0.199321 0.00731344 0)
(0.200042 0.00778625 0)
(0.201054 0.00737258 0)
(0.201154 0.00667664 0)
(0.201218 0.00628385 0)
(0.201691 0.00599774 0)
(0.202028 0.00588508 0)
(0.202025 0.00584184 0)
(0.202062 0.0057455 0)
(0.202106 0.00539097 0)
(0.202146 0.00489119 0)
(0.202204 0.00479147 0)
(0.202301 0.00452007 0)
(0.20231 0.00445427 0)
(0.202249 0.00433802 0)
(0.202187 0.00435661 0)
(0.20219 0.00440523 0)
(0.202192 0.00427983 0)
(0.202151 0.00400233 0)
(0.202151 0.00377156 0)
(0.20219 0.00354251 0)
(0.202195 0.00351353 0)
(0.202163 0.00355054 0)
(0.202112 0.00361138 0)
(0.202053 0.00363259 0)
(0.20198 0.00351626 0)
(0.201903 0.00323337 0)
(0.201876 0.00308571 0)
(0.201892 0.0030234 0)
(0.2019 0.00304664 0)
(0.20187 0.00309638 0)
(0.201823 0.00306091 0)
(0.201793 0.00296518 0)
(0.201746 0.00287512 0)
(0.201681 0.00279472 0)
(0.201639 0.00270446 0)
(0.201599 0.00270967 0)
(0.201557 0.00258807 0)
(0.201552 0.00251784 0)
(0.201545 0.00249359 0)
(0.201513 0.00246213 0)
(0.201475 0.00242626 0)
(0.201434 0.00237218 0)
(0.20139 0.0023025 0)
(0.201359 0.00227613 0)
(0.201326 0.0022537 0)
(0.201267 0.00222924 0)
(0.201184 0.00219675 0)
(0.201093 0.00210705 0)
(0.201021 0.00204601 0)
(0.200967 0.00203367 0)
(0.200893 0.0020039 0)
(0.200788 0.00196812 0)
(0.200666 0.00192853 0)
(0.200537 0.00184942 0)
(0.200417 0.00180537 0)
(0.200308 0.00176318 0)
(0.200202 0.0017127 0)
(0.200087 0.00168752 0)
(0.199959 0.0016501 0)
(0.199812 0.0016105 0)
(0.199648 0.00156432 0)
(0.199475 0.00152773 0)
(0.199291 0.00147486 0)
(0.1991 0.00144014 0)
(0.198904 0.00139198 0)
(0.198706 0.00135739 0)
(0.198495 0.00129663 0)
(0.198314 0.00127529 0)
(0.198077 0.00122203 0)
(0.19795 0.00123916 0)
(0.19754 0.00117624 0)
(0.197333 0.00566367 0)
(0.197888 0.00630746 0)
(0.198724 0.00759299 0)
(0.199394 0.00665641 0)
(0.199981 0.00765161 0)
(0.200845 0.00745758 0)
(0.201077 0.00632737 0)
(0.201076 0.00617352 0)
(0.201564 0.00594184 0)
(0.201932 0.00584609 0)
(0.201899 0.00579029 0)
(0.201912 0.00563583 0)
(0.202019 0.0053315 0)
(0.202129 0.00490635 0)
(0.202185 0.00468604 0)
(0.202248 0.00455262 0)
(0.202228 0.00448634 0)
(0.202111 0.00434328 0)
(0.202072 0.00434013 0)
(0.202139 0.00436288 0)
(0.202181 0.00428658 0)
(0.202146 0.00401922 0)
(0.20212 0.00371792 0)
(0.202134 0.00358511 0)
(0.202128 0.00353771 0)
(0.20209 0.00357034 0)
(0.202052 0.00362181 0)
(0.202008 0.00366214 0)
(0.201947 0.00352756 0)
(0.201886 0.00324298 0)
(0.201852 0.00309423 0)
(0.201857 0.00302224 0)
(0.201853 0.00305043 0)
(0.201819 0.00312644 0)
(0.201798 0.00304917 0)
(0.201783 0.00297399 0)
(0.201737 0.00289955 0)
(0.201678 0.00277745 0)
(0.201644 0.00275273 0)
(0.201621 0.00270347 0)
(0.201595 0.00259137 0)
(0.20159 0.00252574 0)
(0.201587 0.00249316 0)
(0.201571 0.00247045 0)
(0.201556 0.00243007 0)
(0.201542 0.00237927 0)
(0.201518 0.00231437 0)
(0.201497 0.00228485 0)
(0.201478 0.00225902 0)
(0.201448 0.00224148 0)
(0.20141 0.00221159 0)
(0.201369 0.00212384 0)
(0.201337 0.00205533 0)
(0.201315 0.00204218 0)
(0.201278 0.00201967 0)
(0.201224 0.00199192 0)
(0.201161 0.00195219 0)
(0.201094 0.00186815 0)
(0.20103 0.00182557 0)
(0.200973 0.00178186 0)
(0.200922 0.00172998 0)
(0.200873 0.00170633 0)
(0.200818 0.00167274 0)
(0.200746 0.00163696 0)
(0.200656 0.00159412 0)
(0.200557 0.001559 0)
(0.200447 0.00150807 0)
(0.200334 0.00147268 0)
(0.200215 0.00142944 0)
(0.200093 0.00139254 0)
(0.199964 0.00133193 0)
(0.199859 0.00130871 0)
(0.19972 0.00126046 0)
(0.199651 0.00127519 0)
(0.199387 0.00122016 0)
(0.197532 0.00519436 0)
(0.198071 0.0059599 0)
(0.198829 0.00714753 0)
(0.199458 0.00650317 0)
(0.199922 0.00721158 0)
(0.200665 0.00711363 0)
(0.201041 0.00652224 0)
(0.200972 0.00601292 0)
(0.20141 0.0057708 0)
(0.201818 0.00576878 0)
(0.201788 0.00575749 0)
(0.201813 0.00563924 0)
(0.202009 0.00528311 0)
(0.202125 0.00486084 0)
(0.202114 0.00471563 0)
(0.202137 0.00457923 0)
(0.20209 0.00447886 0)
(0.201995 0.00434173 0)
(0.202021 0.00433886 0)
(0.202119 0.00438261 0)
(0.202158 0.00429724 0)
(0.20213 0.00405256 0)
(0.202064 0.00373755 0)
(0.202045 0.00355302 0)
(0.202049 0.00353521 0)
(0.202017 0.00356694 0)
(0.201996 0.00363385 0)
(0.201966 0.00368269 0)
(0.201907 0.00353816 0)
(0.201868 0.00328249 0)
(0.201836 0.00309141 0)
(0.201816 0.00302569 0)
(0.201793 0.00305214 0)
(0.201765 0.00310326 0)
(0.201766 0.0030837 0)
(0.201758 0.00297171 0)
(0.201709 0.00292219 0)
(0.201653 0.00282401 0)
(0.201631 0.00274049 0)
(0.201615 0.00269937 0)
(0.201595 0.00261066 0)
(0.201576 0.00251437 0)
(0.201569 0.00251596 0)
(0.201566 0.00245518 0)
(0.201566 0.00243221 0)
(0.201563 0.00238321 0)
(0.201544 0.00231195 0)
(0.201513 0.00229708 0)
(0.201487 0.00226972 0)
(0.201472 0.00224987 0)
(0.201462 0.00221203 0)
(0.201449 0.00212412 0)
(0.201434 0.00206423 0)
(0.201421 0.00204643 0)
(0.201398 0.00202518 0)
(0.201368 0.00200113 0)
(0.201339 0.00196781 0)
(0.201306 0.00188153 0)
(0.201271 0.00183419 0)
(0.201236 0.0017932 0)
(0.201211 0.00174091 0)
(0.201196 0.00171133 0)
(0.20118 0.00168169 0)
(0.20115 0.00164892 0)
(0.201103 0.00161117 0)
(0.201046 0.00157752 0)
(0.200982 0.00152908 0)
(0.200916 0.00149127 0)
(0.200847 0.00145074 0)
(0.20077 0.00141284 0)
(0.200691 0.00135529 0)
(0.200635 0.00132391 0)
(0.200561 0.00128668 0)
(0.20053 0.00129676 0)
(0.200366 0.00124906 0)