/*--------------------------------*- C++ -*----------------------------------*\
| =========                 |                                                 |
| \\      /  F ield         | OpenFOAM: The Open Source CFD Toolbox           |
|  \\    /   O peration     | Version:  2.3.0                                 |
|   \\  /    A nd           | Web:      www.OpenFOAM.org                      |
|    \\/     M anipulation  |                                                 |
\*---------------------------------------------------------------------------*/
FoamFile
{
    version     2.0;
    format      ascii;
    class       volScalarField;
    location    "0.75";
    object      p;
}
// * * * * * * * * * * * * * * * * * * * * * * * * * * * * * * * * * * * * * //

dimensions      [0 2 -2 0 0 0 0];

internalField   nonuniform List<scalar> 
2000
(
0.00207607
0.00150291
0.00103901
0.000707478
0.000436018
0.000194843
-1.57109e-05
-0.000190951
-0.00032941
-0.00043235
-0.000502816
-0.000545204
-0.000564778
-0.000567028
-0.000557073
-0.000539259
-0.000516982
-0.000492699
-0.000468045
-0.000444009
-0.000421112
-0.000399564
-0.000379388
-0.000360503
-0.000342788
-0.000326113
-0.000310357
-0.000295421
-0.000281224
-0.000267704
-0.000254812
-0.000242515
-0.000230784
-0.000219596
-0.000208933
-0.000198778
-0.000189114
-0.000179926
-0.000171196
-0.000162909
-0.000155049
-0.000147598
-0.000140539
-0.000133856
-0.000127532
-0.000121551
-0.000115896
-0.000110552
-0.000105503
-0.000100736
-9.62344e-05
-9.19859e-05
-8.79771e-05
-8.41954e-05
-8.06287e-05
-7.72655e-05
-7.4095e-05
-7.11064e-05
-6.829e-05
-6.56361e-05
-6.31357e-05
-6.07802e-05
-5.85612e-05
-5.64709e-05
-5.45018e-05
-5.26465e-05
-5.08983e-05
-4.92504e-05
-4.76963e-05
-4.623e-05
-4.48453e-05
-4.35364e-05
-4.22974e-05
-4.11226e-05
-4.00063e-05
-3.89428e-05
-3.79264e-05
-3.69511e-05
-3.6011e-05
-3.50997e-05
-3.42109e-05
-3.33376e-05
-3.24726e-05
-3.16082e-05
-3.07361e-05
-2.98473e-05
-2.89322e-05
-2.79801e-05
-2.69796e-05
-2.59179e-05
-2.47809e-05
-2.35529e-05
-2.22164e-05
-2.07514e-05
-1.91347e-05
-1.73381e-05
-1.53261e-05
-1.30406e-05
-1.03488e-05
-8.72025e-06
0.00178701
0.0013878
0.00101319
0.000715639
0.000459623
0.000226514
1.96276e-05
-0.000154654
-0.000293766
-0.000398364
-0.000471133
-0.000516203
-0.000538622
-0.000543716
-0.000536483
-0.000521191
-0.000501189
-0.000478914
-0.000456002
-0.000433459
-0.000411828
-0.000391349
-0.000372074
-0.00035395
-0.00033688
-0.000320755
-0.000305473
-0.000290947
-0.000277108
-0.000263902
-0.000251289
-0.000239239
-0.000227729
-0.00021674
-0.000206256
-0.000196262
-0.000186746
-0.000177691
-0.000169084
-0.000160909
-0.000153152
-0.000145796
-0.000138825
-0.000132224
-0.000125975
-0.000120064
-0.000114475
-0.000109192
-0.000104201
-9.9487e-05
-9.50362e-05
-9.08351e-05
-8.68709e-05
-8.31313e-05
-7.96043e-05
-7.62787e-05
-7.31437e-05
-7.01889e-05
-6.74044e-05
-6.47809e-05
-6.23094e-05
-5.99813e-05
-5.77885e-05
-5.57233e-05
-5.3778e-05
-5.19456e-05
-5.02193e-05
-4.85924e-05
-4.70585e-05
-4.56115e-05
-4.42454e-05
-4.29544e-05
-4.17327e-05
-4.05745e-05
-3.94743e-05
-3.84264e-05
-3.7425e-05
-3.64642e-05
-3.55382e-05
-3.46406e-05
-3.37649e-05
-3.29044e-05
-3.20519e-05
-3.11995e-05
-3.0339e-05
-2.94616e-05
-2.85574e-05
-2.76159e-05
-2.66256e-05
-2.55737e-05
-2.44461e-05
-2.32271e-05
-2.18991e-05
-2.04421e-05
-1.88326e-05
-1.70421e-05
-1.50345e-05
-1.27443e-05
-9.97789e-06
-8.72489e-06
0.00156429
0.00127994
0.000971145
0.000701658
0.000463932
0.000246872
5.2563e-05
-0.000113516
-0.000248587
-0.000352712
-0.000427798
-0.000477078
-0.000504718
-0.000515286
-0.000513222
-0.00050245
-0.00048617
-0.000466813
-0.0004461
-0.000425165
-0.000404691
-0.000385042
-0.000366371
-0.000348702
-0.000331992
-0.000316169
-0.000301152
-0.000286868
-0.000273256
-0.000260266
-0.000247859
-0.000236005
-0.000224681
-0.000213868
-0.000203551
-0.000193714
-0.000184344
-0.000175426
-0.000166947
-0.000158891
-0.000151244
-0.00014399
-0.000137114
-0.000130601
-0.000124435
-0.0001186
-0.000113082
-0.000107865
-0.000102935
-9.82783e-05
-9.38808e-05
-8.97296e-05
-8.58121e-05
-8.21162e-05
-7.86303e-05
-7.53433e-05
-7.22446e-05
-6.93239e-05
-6.65717e-05
-6.39786e-05
-6.15359e-05
-5.92352e-05
-5.70683e-05
-5.50276e-05
-5.31058e-05
-5.12957e-05
-4.95906e-05
-4.7984e-05
-4.64695e-05
-4.50412e-05
-4.3693e-05
-4.24191e-05
-4.12138e-05
-4.00716e-05
-3.89867e-05
-3.79536e-05
-3.69665e-05
-3.60196e-05
-3.5107e-05
-3.42225e-05
-3.33595e-05
-3.25114e-05
-3.16709e-05
-3.08303e-05
-2.99814e-05
-2.91152e-05
-2.8222e-05
-2.72914e-05
-2.63118e-05
-2.52703e-05
-2.4153e-05
-2.29443e-05
-2.16264e-05
-2.01796e-05
-1.85806e-05
-1.6802e-05
-1.48092e-05
-1.25413e-05
-9.91795e-06
-9.69094e-06
0.00136402
0.00115492
0.000904914
0.000670156
0.000457744
0.000262723
8.63017e-05
-6.70703e-05
-0.000194458
-0.000295278
-0.00037064
-0.000422876
-0.00045521
-0.000471351
-0.000475057
-0.000469776
-0.000458429
-0.000443323
-0.00042617
-0.000408156
-0.000390053
-0.000372318
-0.000355195
-0.000338787
-0.000323114
-0.000308156
-0.000293871
-0.000280215
-0.000267149
-0.000254637
-0.000242654
-0.000231179
-0.000220195
-0.000209689
-0.000199649
-0.000190064
-0.000180923
-0.000172214
-0.000163927
-0.000156047
-0.000148562
-0.000141458
-0.000134721
-0.000128336
-0.000122289
-0.000116565
-0.00011115
-0.000106029
-0.000101189
-9.66164e-05
-9.22977e-05
-8.82204e-05
-8.43722e-05
-8.07413e-05
-7.73164e-05
-7.40868e-05
-7.10419e-05
-6.8172e-05
-6.54676e-05
-6.29196e-05
-6.05193e-05
-5.82586e-05
-5.61296e-05
-5.41247e-05
-5.22367e-05
-5.04587e-05
-4.8784e-05
-4.72062e-05
-4.57192e-05
-4.4317e-05
-4.29936e-05
-4.17435e-05
-4.0561e-05
-3.94405e-05
-3.83765e-05
-3.73635e-05
-3.63957e-05
-3.54675e-05
-3.4573e-05
-3.37059e-05
-3.286e-05
-3.20285e-05
-3.12042e-05
-3.03795e-05
-2.95461e-05
-2.86953e-05
-2.78174e-05
-2.69018e-05
-2.59372e-05
-2.49108e-05
-2.38088e-05
-2.26155e-05
-2.13137e-05
-1.9884e-05
-1.83046e-05
-1.65511e-05
-1.45982e-05
-1.24233e-05
-1.02331e-05
-1.15622e-05
0.00117977
0.00102445
0.000828315
0.00063146
0.000446546
0.000274246
0.000116428
-2.3044e-05
-0.0001412
-0.000236984
-0.000310898
-0.000364559
-0.000400393
-0.000421318
-0.000430398
-0.000430541
-0.000424299
-0.000413764
-0.000400556
-0.000385859
-0.000370496
-0.000355006
-0.000339718
-0.00032482
-0.000310406
-0.000296511
-0.000283143
-0.000270291
-0.000257941
-0.000246076
-0.000234682
-0.000223747
-0.000213261
-0.000203214
-0.0001936
-0.000184408
-0.000175632
-0.000167261
-0.000159285
-0.000151694
-0.000144476
-0.000137619
-0.00013111
-0.000124936
-0.000119084
-0.000113541
-0.000108294
-0.000103328
-9.86328e-05
-9.4194e-05
-8.99999e-05
-8.60383e-05
-8.22979e-05
-7.87675e-05
-7.54363e-05
-7.22942e-05
-6.93311e-05
-6.65377e-05
-6.39049e-05
-6.1424e-05
-5.90868e-05
-5.68853e-05
-5.48119e-05
-5.28594e-05
-5.10208e-05
-4.92893e-05
-4.76586e-05
-4.61224e-05
-4.46748e-05
-4.33099e-05
-4.2022e-05
-4.08056e-05
-3.96553e-05
-3.85655e-05
-3.75309e-05
-3.6546e-05
-3.56053e-05
-3.47031e-05
-3.38338e-05
-3.29911e-05
-3.2169e-05
-3.13606e-05
-3.0559e-05
-2.97566e-05
-2.89453e-05
-2.81164e-05
-2.72603e-05
-2.63668e-05
-2.54243e-05
-2.44206e-05
-2.33418e-05
-2.21729e-05
-2.08973e-05
-1.94968e-05
-1.79526e-05
-1.6248e-05
-1.43801e-05
-1.24139e-05
-1.09238e-05
-1.39117e-05
0.00101697
0.000899597
0.000747484
0.000585938
0.000427944
0.000277925
0.000138812
1.40384e-05
-9.36241e-05
-0.000182864
-0.000253714
-0.000307198
-0.000345062
-0.000369517
-0.000382979
-0.000387824
-0.000386209
-0.000379976
-0.000370606
-0.000359239
-0.000346712
-0.000333611
-0.000320332
-0.000307128
-0.000294155
-0.000281503
-0.000269219
-0.000257328
-0.000245839
-0.000234755
-0.000224077
-0.0002138
-0.000203923
-0.000194443
-0.000185355
-0.000176654
-0.000168334
-0.00016039
-0.000152813
-0.000145594
-0.000138723
-0.00013219
-0.000125985
-0.000120095
-0.000114509
-0.000109214
-0.000104199
-9.94507e-05
-9.49585e-05
-9.07102e-05
-8.66944e-05
-8.28999e-05
-7.93159e-05
-7.59319e-05
-7.2738e-05
-6.97245e-05
-6.68819e-05
-6.42014e-05
-6.16744e-05
-5.92928e-05
-5.70486e-05
-5.49344e-05
-5.29429e-05
-5.10673e-05
-4.93009e-05
-4.76374e-05
-4.60705e-05
-4.45945e-05
-4.32035e-05
-4.18921e-05
-4.06547e-05
-3.94861e-05
-3.8381e-05
-3.73342e-05
-3.63405e-05
-3.53946e-05
-3.44911e-05
-3.36248e-05
-3.27898e-05
-3.19805e-05
-3.11906e-05
-3.04138e-05
-2.96431e-05
-2.88711e-05
-2.809e-05
-2.72913e-05
-2.64656e-05
-2.56028e-05
-2.4692e-05
-2.37209e-05
-2.26764e-05
-2.15441e-05
-2.03087e-05
-1.89545e-05
-1.74679e-05
-1.58452e-05
-1.41199e-05
-1.2469e-05
-1.17546e-05
-1.58103e-05
0.00087302
0.000782116
0.000664069
0.000533691
0.000401564
0.00027348
0.000153064
4.34427e-05
-5.28769e-05
-0.000134458
-0.000200954
-0.000252884
-0.000291411
-0.000318136
-0.000334897
-0.000343575
-0.000345943
-0.000343573
-0.000337778
-0.000329615
-0.000319896
-0.000309224
-0.00029803
-0.000286617
-0.000275189
-0.000263879
-0.000252776
-0.000241935
-0.000231391
-0.000221167
-0.000211277
-0.000201729
-0.000192529
-0.00018368
-0.000175183
-0.000167036
-0.000159237
-0.000151781
-0.000144663
-0.000137875
-0.00013141
-0.000125259
-0.000119412
-0.000113859
-0.00010859
-0.000103593
-9.88584e-05
-9.43745e-05
-9.01306e-05
-8.61159e-05
-8.23198e-05
-7.87321e-05
-7.53428e-05
-7.2142e-05
-6.91205e-05
-6.62691e-05
-6.35793e-05
-6.10425e-05
-5.86509e-05
-5.63966e-05
-5.42723e-05
-5.2271e-05
-5.03859e-05
-4.86105e-05
-4.69385e-05
-4.53639e-05
-4.3881e-05
-4.24841e-05
-4.11678e-05
-3.9927e-05
-3.87563e-05
-3.76509e-05
-3.66056e-05
-3.56156e-05
-3.46759e-05
-3.37815e-05
-3.29274e-05
-3.21082e-05
-3.13187e-05
-3.05532e-05
-2.98059e-05
-2.90706e-05
-2.83407e-05
-2.76091e-05
-2.68682e-05
-2.61098e-05
-2.5325e-05
-2.4504e-05
-2.36364e-05
-2.27105e-05
-2.17141e-05
-2.06339e-05
-1.94564e-05
-1.81697e-05
-1.67672e-05
-1.52614e-05
-1.37233e-05
-1.24125e-05
-1.22507e-05
-1.61898e-05
0.000744555
0.000672881
0.000581062
0.000477297
0.000369068
0.000261885
0.000159536
6.49254e-05
-1.96884e-05
-9.28452e-05
-0.000153935
-0.000203082
-0.000240976
-0.000268712
-0.000287629
-0.000299168
-0.000304739
-0.000305641
-0.000303004
-0.00029777
-0.000290699
-0.000282378
-0.000273255
-0.000263658
-0.000253824
-0.000243923
-0.000234074
-0.000224359
-0.000214837
-0.000205548
-0.00019652
-0.000187772
-0.000179318
-0.000171167
-0.000163325
-0.000155794
-0.000148574
-0.000141663
-0.000135059
-0.000128756
-0.000122747
-0.000117026
-0.000111585
-0.000106415
-0.000101507
-9.68504e-05
-9.24364e-05
-8.8255e-05
-8.42964e-05
-8.05506e-05
-7.70082e-05
-7.36597e-05
-7.04958e-05
-6.75077e-05
-6.46867e-05
-6.20244e-05
-5.95127e-05
-5.71439e-05
-5.49106e-05
-5.28056e-05
-5.0822e-05
-4.89533e-05
-4.71932e-05
-4.55355e-05
-4.39745e-05
-4.25046e-05
-4.11203e-05
-3.98165e-05
-3.85881e-05
-3.74302e-05
-3.63379e-05
-3.53066e-05
-3.43316e-05
-3.34082e-05
-3.25317e-05
-3.16976e-05
-3.0901e-05
-3.0137e-05
-2.94006e-05
-2.86865e-05
-2.79891e-05
-2.73026e-05
-2.66208e-05
-2.5937e-05
-2.52439e-05
-2.4534e-05
-2.37986e-05
-2.30288e-05
-2.22146e-05
-2.13454e-05
-2.04099e-05
-1.93965e-05
-1.82941e-05
-1.70947e-05
-1.5799e-05
-1.44323e-05
-1.30861e-05
-1.20252e-05
-1.19745e-05
-1.46e-05
0.000634427
0.000576744
0.000504297
0.000421594
0.000333578
0.000244773
0.000158673
7.79264e-05
4.55262e-06
-6.00535e-05
-0.000115151
-0.000160599
-0.000196739
-0.000224278
-0.000244161
-0.00025746
-0.000265273
-0.000268646
-0.000268527
-0.000265735
-0.000260953
-0.000254733
-0.000247512
-0.000239625
-0.000231326
-0.000222806
-0.000214204
-0.000205624
-0.000197139
-0.000188806
-0.000180663
-0.000172741
-0.000165059
-0.000157632
-0.000150471
-0.000143582
-0.000136967
-0.000130628
-0.000124564
-0.00011877
-0.000113243
-0.000107978
-0.000102967
-9.82024e-05
-9.36775e-05
-8.93834e-05
-8.53116e-05
-8.14533e-05
-7.77997e-05
-7.43421e-05
-7.10717e-05
-6.79799e-05
-6.50584e-05
-6.22991e-05
-5.9694e-05
-5.72355e-05
-5.49161e-05
-5.27287e-05
-5.06665e-05
-4.87228e-05
-4.68915e-05
-4.51663e-05
-4.35416e-05
-4.20116e-05
-4.0571e-05
-3.92147e-05
-3.79375e-05
-3.67348e-05
-3.56018e-05
-3.4534e-05
-3.35269e-05
-3.25762e-05
-3.16774e-05
-3.08264e-05
-3.00188e-05
-2.92502e-05
-2.85162e-05
-2.78122e-05
-2.71336e-05
-2.64755e-05
-2.58326e-05
-2.51996e-05
-2.45706e-05
-2.39395e-05
-2.32995e-05
-2.26434e-05
-2.19636e-05
-2.12515e-05
-2.04982e-05
-1.96939e-05
-1.88287e-05
-1.78926e-05
-1.68769e-05
-1.57766e-05
-1.45968e-05
-1.33663e-05
-1.21685e-05
-1.12002e-05
-1.08659e-05
-1.17302e-05
0.000537257
0.000490544
0.000433079
0.000367301
0.000296343
0.00022364
0.000152151
8.41862e-05
2.1514e-05
-3.45895e-05
-8.33447e-05
-0.000124444
-0.000157984
-0.000184376
-0.000204253
-0.000218387
-0.000227606
-0.000232734
-0.000234543
-0.000233724
-0.000230874
-0.000226493
-0.000220989
-0.000214689
-0.000207849
-0.000200667
-0.000193296
-0.000185849
-0.000178415
-0.000171058
-0.000163828
-0.00015676
-0.000149882
-0.000143212
-0.000136766
-0.000130552
-0.000124577
-0.000118843
-0.000113351
-0.000108099
-0.000103085
-9.8304e-05
-9.37514e-05
-8.9421e-05
-8.53061e-05
-8.13996e-05
-7.7694e-05
-7.41817e-05
-7.0855e-05
-6.7706e-05
-6.4727e-05
-6.19104e-05
-5.92486e-05
-5.67342e-05
-5.43603e-05
-5.21198e-05
-5.0006e-05
-4.80124e-05
-4.6133e-05
-4.43616e-05
-4.26925e-05
-4.11202e-05
-3.96395e-05
-3.82451e-05
-3.69322e-05
-3.56961e-05
-3.45323e-05
-3.34362e-05
-3.24037e-05
-3.14306e-05
-3.05127e-05
-2.96462e-05
-2.88271e-05
-2.80514e-05
-2.73151e-05
-2.66143e-05
-2.59449e-05
-2.53029e-05
-2.46837e-05
-2.40831e-05
-2.34962e-05
-2.2918e-05
-2.23433e-05
-2.17665e-05
-2.11813e-05
-2.05812e-05
-1.99593e-05
-1.93078e-05
-1.86187e-05
-1.78835e-05
-1.70933e-05
-1.62399e-05
-1.53163e-05
-1.43193e-05
-1.32546e-05
-1.21454e-05
-1.1048e-05
-1.00628e-05
-9.30397e-06
-8.61895e-06
0.000446693
0.000409241
0.000364065
0.000312446
0.000256297
0.000198073
0.000140101
8.42827e-05
3.21062e-05
-1.53136e-05
-5.72294e-05
-9.32526e-05
-0.000123315
-0.000147611
-0.000166533
-0.000180604
-0.000190425
-0.000196616
-0.000199781
-0.000200483
-0.000199222
-0.000196431
-0.000192476
-0.000187659
-0.000182223
-0.000176363
-0.000170233
-0.000163952
-0.000157613
-0.000151288
-0.00014503
-0.000138882
-0.000132874
-0.000127029
-0.000121365
-0.000115894
-0.000110623
-0.000105557
-0.000100699
-9.60484e-05
-9.16045e-05
-8.73642e-05
-8.33237e-05
-7.94781e-05
-7.58222e-05
-7.235e-05
-6.90552e-05
-6.59313e-05
-6.29717e-05
-6.01696e-05
-5.75183e-05
-5.50111e-05
-5.26415e-05
-5.04031e-05
-4.82894e-05
-4.62944e-05
-4.44122e-05
-4.26371e-05
-4.09635e-05
-3.93861e-05
-3.78999e-05
-3.64999e-05
-3.51814e-05
-3.39399e-05
-3.2771e-05
-3.16704e-05
-3.06342e-05
-2.96583e-05
-2.87391e-05
-2.78727e-05
-2.70555e-05
-2.6284e-05
-2.55546e-05
-2.48638e-05
-2.4208e-05
-2.35838e-05
-2.29875e-05
-2.24153e-05
-2.18635e-05
-2.13279e-05
-2.08045e-05
-2.02887e-05
-1.97758e-05
-1.92607e-05
-1.87381e-05
-1.82022e-05
-1.76466e-05
-1.70647e-05
-1.64495e-05
-1.57936e-05
-1.50895e-05
-1.43302e-05
-1.351e-05
-1.26261e-05
-1.16813e-05
-1.06874e-05
-9.66595e-06
-8.62917e-06
-7.49978e-06
-5.83253e-06
0.000361447
0.000332046
0.0002972
0.000257554
0.000214235
0.000168919
0.000123323
7.892e-05
3.68996e-05
-1.81317e-06
-3.6556e-05
-6.69275e-05
-9.27688e-05
-0.000114129
-0.000131222
-0.000144379
-0.00015401
-0.000160562
-0.000164486
-0.000166217
-0.000166157
-0.000164662
-0.000162044
-0.000158565
-0.000154445
-0.000149864
-0.000144966
-0.000139867
-0.000134659
-0.000129415
-0.000124189
-0.000119025
-0.000113956
-0.000109008
-0.000104199
-9.95415e-05
-9.50463e-05
-9.07192e-05
-8.65639e-05
-8.25819e-05
-7.87729e-05
-7.51355e-05
-7.1667e-05
-6.83639e-05
-6.5222e-05
-6.22367e-05
-5.94028e-05
-5.67151e-05
-5.41679e-05
-5.17558e-05
-4.9473e-05
-4.7314e-05
-4.52731e-05
-4.33449e-05
-4.1524e-05
-3.98053e-05
-3.81836e-05
-3.66541e-05
-3.5212e-05
-3.38528e-05
-3.25721e-05
-3.13657e-05
-3.02295e-05
-2.91595e-05
-2.81521e-05
-2.72036e-05
-2.63105e-05
-2.54694e-05
-2.4677e-05
-2.39301e-05
-2.32256e-05
-2.25604e-05
-2.19314e-05
-2.13355e-05
-2.07698e-05
-2.02312e-05
-1.97164e-05
-1.92224e-05
-1.87457e-05
-1.8283e-05
-1.78305e-05
-1.73845e-05
-1.69408e-05
-1.64951e-05
-1.60429e-05
-1.5579e-05
-1.50981e-05
-1.45947e-05
-1.40628e-05
-1.3496e-05
-1.28884e-05
-1.22339e-05
-1.15275e-05
-1.07656e-05
-9.94679e-06
-9.07024e-06
-8.1282e-06
-7.07774e-06
-5.76751e-06
-3.76798e-06
0.000280056
0.000257828
0.000231874
0.000202498
0.000170342
0.000136501
0.00010217
6.84188e-05
3.614e-05
6.05274e-06
-2.13012e-05
-4.55605e-05
-6.65375e-05
-8.41992e-05
-9.86402e-05
-0.000110053
-0.0001187
-0.000124882
-0.00012892
-0.000131131
-0.000131817
-0.000131257
-0.000129698
-0.000127355
-0.000124411
-0.000121019
-0.000117307
-0.000113378
-0.000109315
-0.000105184
-0.000101038
-9.69178e-05
-9.28549e-05
-8.88739e-05
-8.49933e-05
-8.12268e-05
-7.75841e-05
-7.4072e-05
-7.06948e-05
-6.74548e-05
-6.43527e-05
-6.13879e-05
-5.85589e-05
-5.58631e-05
-5.32977e-05
-5.0859e-05
-4.85431e-05
-4.6346e-05
-4.42633e-05
-4.22904e-05
-4.0423e-05
-3.86565e-05
-3.69865e-05
-3.54084e-05
-3.39181e-05
-3.25112e-05
-3.11837e-05
-2.99316e-05
-2.8751e-05
-2.76382e-05
-2.65896e-05
-2.56019e-05
-2.46715e-05
-2.37955e-05
-2.29706e-05
-2.21939e-05
-2.14625e-05
-2.07737e-05
-2.01248e-05
-1.9513e-05
-1.89359e-05
-1.8391e-05
-1.78756e-05
-1.73873e-05
-1.69236e-05
-1.6482e-05
-1.60599e-05
-1.56546e-05
-1.52635e-05
-1.48836e-05
-1.45121e-05
-1.41457e-05
-1.37811e-05
-1.34148e-05
-1.3043e-05
-1.26616e-05
-1.22664e-05
-1.18527e-05
-1.14157e-05
-1.09505e-05
-1.04521e-05
-9.91552e-06
-9.33617e-06
-8.70947e-06
-8.03001e-06
-7.288e-06
-6.45947e-06
-5.48311e-06
-4.21714e-06
-2.37574e-06
0.0002011
0.000185454
0.000167395
0.000147055
0.000124785
0.00010126
7.72506e-05
5.34705e-05
3.05345e-05
8.95207e-06
-1.08773e-05
-2.86697e-05
-4.4256e-05
-5.75721e-05
-6.86445e-05
-7.7572e-05
-8.45072e-05
-8.96385e-05
-9.31739e-05
-9.53271e-05
-9.63075e-05
-9.63117e-05
-9.55195e-05
-9.40903e-05
-9.21628e-05
-8.98555e-05
-8.72679e-05
-8.44823e-05
-8.1566e-05
-7.85735e-05
-7.55483e-05
-7.2525e-05
-6.95308e-05
-6.65864e-05
-6.37082e-05
-6.0908e-05
-5.81948e-05
-5.55748e-05
-5.30522e-05
-5.06294e-05
-4.83077e-05
-4.60871e-05
-4.39667e-05
-4.19452e-05
-4.00205e-05
-3.81901e-05
-3.64514e-05
-3.48013e-05
-3.32367e-05
-3.17543e-05
-3.0351e-05
-2.90233e-05
-2.77679e-05
-2.65815e-05
-2.5461e-05
-2.44032e-05
-2.3405e-05
-2.24634e-05
-2.15756e-05
-2.07387e-05
-1.99502e-05
-1.92073e-05
-1.85076e-05
-1.78487e-05
-1.72283e-05
-1.66441e-05
-1.60939e-05
-1.55758e-05
-1.50876e-05
-1.46274e-05
-1.41931e-05
-1.3783e-05
-1.33951e-05
-1.30276e-05
-1.26785e-05
-1.23459e-05
-1.20279e-05
-1.17226e-05
-1.14278e-05
-1.11414e-05
-1.08612e-05
-1.05847e-05
-1.03096e-05
-1.00332e-05
-9.75251e-06
-9.46461e-06
-9.16628e-06
-8.8541e-06
-8.52452e-06
-8.17385e-06
-7.79829e-06
-7.39397e-06
-6.9568e-06
-6.48191e-06
-5.96214e-06
-5.38446e-06
-4.72225e-06
-3.92175e-06
-2.88529e-06
-1.46408e-06
0.00012222
0.000112836
0.000102096
9.00494e-05
7.68712e-05
6.29262e-05
4.86426e-05
3.44264e-05
2.06347e-05
7.57053e-06
-4.5222e-06
-1.54631e-05
-2.51364e-05
-3.34869e-05
-4.05131e-05
-4.62574e-05
-5.07965e-05
-5.42311e-05
-5.66768e-05
-5.82556e-05
-5.90896e-05
-5.9296e-05
-5.89837e-05
-5.82509e-05
-5.71843e-05
-5.58592e-05
-5.43393e-05
-5.26782e-05
-5.09204e-05
-4.9102e-05
-4.72522e-05
-4.53945e-05
-4.35474e-05
-4.17255e-05
-3.99398e-05
-3.8199e-05
-3.65093e-05
-3.48753e-05
-3.33001e-05
-3.17857e-05
-3.03332e-05
-2.89428e-05
-2.76144e-05
-2.63472e-05
-2.51401e-05
-2.39916e-05
-2.29003e-05
-2.18642e-05
-2.08815e-05
-1.99502e-05
-1.90684e-05
-1.82339e-05
-1.74447e-05
-1.66989e-05
-1.59943e-05
-1.5329e-05
-1.47012e-05
-1.41089e-05
-1.35504e-05
-1.3024e-05
-1.25278e-05
-1.20604e-05
-1.16201e-05
-1.12055e-05
-1.0815e-05
-1.04474e-05
-1.01011e-05
-9.77498e-06
-9.46766e-06
-9.17791e-06
-8.90452e-06
-8.64628e-06
-8.402e-06
-8.17049e-06
-7.95056e-06
-7.74101e-06
-7.54062e-06
-7.34813e-06
-7.16225e-06
-6.98163e-06
-6.80485e-06
-6.63043e-06
-6.45679e-06
-6.28226e-06
-6.10505e-06
-5.92328e-06
-5.73493e-06
-5.53787e-06
-5.32987e-06
-5.10864e-06
-4.87172e-06
-4.6165e-06
-4.34006e-06
-4.03852e-06
-3.70582e-06
-3.33134e-06
-2.89557e-06
-2.36427e-06
-1.68533e-06
-7.97587e-07
4.15152e-05
3.83165e-05
3.46568e-05
3.05663e-05
2.61047e-05
2.13893e-05
1.65588e-05
1.17467e-05
7.07143e-06
2.63439e-06
-1.48199e-06
-5.21599e-06
-8.52709e-06
-1.13949e-05
-1.38168e-05
-1.58052e-05
-1.73843e-05
-1.85865e-05
-1.94498e-05
-2.00146e-05
-2.03218e-05
-2.0411e-05
-2.03192e-05
-2.00799e-05
-1.97232e-05
-1.92749e-05
-1.87573e-05
-1.81893e-05
-1.75863e-05
-1.69612e-05
-1.63243e-05
-1.56839e-05
-1.50466e-05
-1.44176e-05
-1.38008e-05
-1.31993e-05
-1.26154e-05
-1.20506e-05
-1.15061e-05
-1.09826e-05
-1.04805e-05
-9.99996e-06
-9.54081e-06
-9.10284e-06
-8.68567e-06
-8.28881e-06
-7.9117e-06
-7.55373e-06
-7.21424e-06
-6.89254e-06
-6.58794e-06
-6.29971e-06
-6.02717e-06
-5.7696e-06
-5.5263e-06
-5.29661e-06
-5.07985e-06
-4.87538e-06
-4.68258e-06
-4.50085e-06
-4.3296e-06
-4.16827e-06
-4.01631e-06
-3.87321e-06
-3.73846e-06
-3.61157e-06
-3.49207e-06
-3.37951e-06
-3.27345e-06
-3.17344e-06
-3.07908e-06
-2.98994e-06
-2.9056e-06
-2.82567e-06
-2.74972e-06
-2.67734e-06
-2.60811e-06
-2.54159e-06
-2.47734e-06
-2.41488e-06
-2.35373e-06
-2.29338e-06
-2.23327e-06
-2.17283e-06
-2.11145e-06
-2.04846e-06
-1.9832e-06
-1.9149e-06
-1.8428e-06
-1.76611e-06
-1.68397e-06
-1.59542e-06
-1.49936e-06
-1.39427e-06
-1.2777e-06
-1.14555e-06
-9.90639e-07
-8.01261e-07
-5.60901e-07
-2.51473e-07
6.7942e-05
7.05664e-05
7.65102e-05
8.54221e-05
9.7073e-05
0.000111526
0.000128977
0.000149667
0.000173871
0.000201913
0.000234177
0.000271115
0.000313268
0.000361294
0.000416014
0.000478486
0.000550114
0.000632843
0.00072947
0.000844231
0.000983951
0.00116055
0.0013974
0.00175292
0.00240208
6.76707e-05
7.02072e-05
7.60509e-05
8.48511e-05
9.6374e-05
0.000110678
0.000127957
0.000148444
0.000172411
0.000200174
0.000232108
0.000268653
0.000310335
0.000357787
0.000411798
0.000473371
0.00054383
0.000624981
0.000719376
0.000830776
0.000964975
0.00113131
0.00134511
0.00162815
0.00198294
6.71884e-05
6.96561e-05
7.53993e-05
8.40797e-05
9.54604e-05
0.000109595
0.000126673
0.000146923
0.00017061
0.000198042
0.000229583
0.000265657
0.000306768
0.000353519
0.000406647
0.000467082
0.000536028
0.000615082
0.00070643
0.000813119
0.000939443
0.00109122
0.00127464
0.00148708
0.0016792
6.64453e-05
6.88479e-05
7.447e-05
8.29962e-05
9.4189e-05
0.000108097
0.000124903
0.00014483
0.000168135
0.000195113
0.000226112
0.000261535
0.000301854
0.000347625
0.000399519
0.000458358
0.000525174
0.000601282
0.000688369
0.000788566
0.00090437
0.00103794
0.00118814
0.00134088
0.00144613
6.53725e-05
6.77048e-05
7.31796e-05
8.1509e-05
9.24588e-05
0.00010607
0.00012252
0.000142023
0.000164822
0.0001912
0.000221482
0.000256043
0.000295313
0.000339786
0.000390043
0.000446768
0.000510774
0.000583022
0.000664605
0.000756624
0.000859773
0.000973111
0.00109093
0.00119587
0.00124867
6.38895e-05
6.6143e-05
7.14412e-05
7.95245e-05
9.01648e-05
0.000103397
0.000119387
0.000138341
0.000160487
0.000186087
0.000215441
0.000248886
0.000286799
0.000329599
0.000377755
0.000431781
0.000492236
0.000559677
0.000634563
0.000716992
0.000806117
0.000898877
0.00098758
0.00105617
0.00107736
6.19012e-05
6.40631e-05
6.91494e-05
7.69264e-05
8.71759e-05
9.99258e-05
0.000115331
0.000133585
0.000154897
0.000179506
0.000207679
0.000239708
0.000275907
0.000316604
0.000362139
0.000412837
0.000468976
0.000530704
0.000597874
0.000669737
0.000744349
0.000817584
0.000881669
0.00092375
0.000926319
5.92959e-05
6.13491e-05
6.61797e-05
7.35782e-05
8.33389e-05
9.54833e-05
0.000110154
0.000127526
0.00014779
0.000171156
0.000197852
0.000228118
0.000262195
0.000300314
0.000342671
0.000389395
0.000440489
0.000495719
0.000554439
0.000615291
0.000675749
0.000731495
0.00077577
0.000799225
0.000791267
5.61113e-05
5.80403e-05
6.25779e-05
6.95348e-05
7.87198e-05
9.01491e-05
0.000103951
0.000120282
0.00013931
0.000161215
0.000186183
0.000214401
0.000246036
0.00028122
0.000320015
0.000362374
0.000408067
0.000456569
0.000506905
0.000557408
0.000605428
0.000647018
0.000676791
0.000688259
0.000675133
5.23153e-05
5.41038e-05
5.83072e-05
6.47558e-05
7.3274e-05
8.38734e-05
9.66667e-05
0.000111792
0.000129392
0.000149614
0.000172606
0.000198497
0.000227386
0.000259313
0.000294224
0.000331924
0.000372005
0.000413752
0.000456012
0.000497042
0.000534353
0.000564624
0.000583799
0.000587564
0.000572313
4.76211e-05
4.92417e-05
5.30456e-05
5.88831e-05
6.65966e-05
7.61934e-05
8.77697e-05
0.000101442
0.000117328
0.000135541
0.000156187
0.000179345
0.000205048
0.000233254
0.000263815
0.000296425
0.000330561
0.000365412
0.00039979
0.000432053
0.000460059
0.000481205
0.000492623
0.000491595
0.00047619
4.18832e-05
4.33034e-05
4.66318e-05
5.17398e-05
5.84901e-05
6.68863e-05
7.70073e-05
8.89472e-05
0.000102797
0.000118638
0.000136539
0.00015653
0.000178592
0.000202623
0.00022841
0.000255585
0.000283584
0.000311594
0.000338514
0.00036293
0.000383133
0.000397217
0.000403269
0.000399674
0.000385493
3.49551e-05
3.61377e-05
3.8904e-05
4.31479e-05
4.87559e-05
5.57288e-05
6.41278e-05
7.40241e-05
8.5483e-05
9.85584e-05
0.000113284
0.000129658
0.000147623
0.000167045
0.000187686
0.000209173
0.000230971
0.000252353
0.000272394
0.000289977
0.000303842
0.000312682
0.000315299
0.000310797
0.000298782
2.67045e-05
2.76075e-05
2.97146e-05
3.29451e-05
3.72131e-05
4.25177e-05
4.89025e-05
5.64169e-05
6.51034e-05
7.49925e-05
8.60948e-05
9.83888e-05
0.000111805
0.000126209
0.000141381
0.000157
0.000172624
0.000187682
0.000201482
0.000213227
0.000222071
0.000227193
0.000227898
0.000223728
0.000214566
1.7035e-05
1.76127e-05
1.89553e-05
2.10114e-05
2.37264e-05
2.70994e-05
3.11565e-05
3.59265e-05
4.14326e-05
4.76888e-05
5.4694e-05
6.24243e-05
7.08222e-05
7.97863e-05
8.91598e-05
9.87209e-05
0.000108176
0.000117158
0.000125238
0.000131942
0.000136788
0.000139332
0.000139224
0.000136264
0.00013044
5.92234e-06
6.12555e-06
6.59517e-06
7.31292e-06
8.26018e-06
9.43671e-06
1.08515e-05
1.25143e-05
1.44327e-05
1.66107e-05
1.90467e-05
2.17304e-05
2.46394e-05
2.77352e-05
3.09597e-05
3.42322e-05
3.74472e-05
4.04758e-05
4.31694e-05
4.53678e-05
4.6912e-05
4.76605e-05
4.75066e-05
4.63953e-05
4.43344e-05
)
;

boundaryField
{
    top
    {
        type            fixedValue;
        value           uniform 0;
    }
    inlet
    {
        type            zeroGradient;
    }
    outlet
    {
        type            fixedValue;
        value           uniform 0;
    }
    plate
    {
        type            zeroGradient;
    }
    symmBound
    {
        type            zeroGradient;
    }
    frontAndBack
    {
        type            empty;
    }
}


// ************************************************************************* //
