/*--------------------------------*- C++ -*----------------------------------*\
| =========                 |                                                 |
| \\      /  F ield         | OpenFOAM: The Open Source CFD Toolbox           |
|  \\    /   O peration     | Version:  2.3.0                                 |
|   \\  /    A nd           | Web:      www.OpenFOAM.org                      |
|    \\/     M anipulation  |                                                 |
\*---------------------------------------------------------------------------*/
FoamFile
{
    version     2.0;
    format      ascii;
    class       volScalarField;
    location    "0.8";
    object      p;
}
// * * * * * * * * * * * * * * * * * * * * * * * * * * * * * * * * * * * * * //

dimensions      [0 2 -2 0 0 0 0];

internalField   nonuniform List<scalar> 
2889
(
0.00253531
0.00199824
0.00148845
0.00111103
0.0008098
0.000544994
0.000310667
0.000110453
-5.38302e-05
-0.00018305
-0.000279793
-0.000347873
-0.00039197
-0.00041711
-0.00042813
-0.000429286
-0.000424033
-0.000414987
-0.000403999
-0.00039228
-0.000380563
-0.000369237
-0.000358469
-0.00034829
-0.000338661
-0.000329509
-0.000320755
-0.000312328
-0.000304167
-0.000296226
-0.000288469
-0.000280873
-0.000273421
-0.000266104
-0.000258918
-0.000251858
-0.000244924
-0.000238118
-0.00023144
-0.000224891
-0.000218473
-0.000212187
-0.000206035
-0.000200017
-0.000194134
-0.000188386
-0.000182774
-0.000177298
-0.000171957
-0.000166751
-0.000161679
-0.00015674
-0.000151934
-0.000147257
-0.00014271
-0.000138291
-0.000133996
-0.000129825
-0.000125775
-0.000121843
-0.000118027
-0.000114323
-0.00011073
-0.000107244
-0.000103861
-0.000100578
-9.73918e-05
-9.42985e-05
-9.12944e-05
-8.83752e-05
-8.55368e-05
-8.2775e-05
-8.0085e-05
-7.74622e-05
-7.49017e-05
-7.23983e-05
-6.99466e-05
-6.7541e-05
-6.51754e-05
-6.28437e-05
-6.05393e-05
-5.82551e-05
-5.5984e-05
-5.37179e-05
-5.14488e-05
-4.91676e-05
-4.6865e-05
-4.4531e-05
-4.21545e-05
-3.97241e-05
-3.72271e-05
-3.46498e-05
-3.1977e-05
-2.91921e-05
-2.62755e-05
-2.32039e-05
-1.99478e-05
-1.64604e-05
-1.25323e-05
-1.04894e-05
0.00225137
0.00186268
0.00145271
0.00111565
0.000831049
0.000574373
0.00034377
0.00014458
-2.02869e-05
-0.000151062
-0.000249961
-0.000320543
-0.000367289
-0.000395073
-0.000408623
-0.000412121
-0.000408982
-0.000401804
-0.000392438
-0.000382112
-0.000371579
-0.000361253
-0.00035133
-0.000341864
-0.00033284
-0.000324204
-0.000315895
-0.000307853
-0.000300028
-0.000292383
-0.000284888
-0.000277527
-0.000270286
-0.000263159
-0.000256145
-0.000249243
-0.000242453
-0.000235778
-0.000229222
-0.000222785
-0.000216471
-0.000210281
-0.000204218
-0.000198284
-0.000192479
-0.000186804
-0.000181261
-0.000175849
-0.000170568
-0.000165419
-0.0001604
-0.000155512
-0.000150753
-0.000146122
-0.000141618
-0.000137239
-0.000132983
-0.000128848
-0.000124833
-0.000120934
-0.000117149
-0.000113475
-0.00010991
-0.000106451
-0.000103094
-9.9836e-05
-9.66736e-05
-9.36029e-05
-9.06204e-05
-8.77219e-05
-8.49033e-05
-8.21605e-05
-7.94887e-05
-7.68834e-05
-7.43397e-05
-7.18524e-05
-6.94162e-05
-6.70254e-05
-6.46741e-05
-6.23562e-05
-6.0065e-05
-5.77936e-05
-5.55346e-05
-5.32804e-05
-5.10225e-05
-4.87522e-05
-4.64601e-05
-4.4136e-05
-4.17691e-05
-3.93479e-05
-3.68596e-05
-3.42906e-05
-3.16257e-05
-2.88481e-05
-2.59381e-05
-2.28722e-05
-1.96198e-05
-1.61299e-05
-1.20947e-05
-1.05215e-05
0.00204048
0.00174347
0.00140395
0.00109965
0.00083275
0.00059026
0.000370974
0.00017944
1.86343e-05
-0.000111176
-0.00021156
-0.000285349
-0.000336297
-0.000368641
-0.000386624
-0.00039411
-0.000394356
-0.00038992
-0.000382695
-0.000373998
-0.000364682
-0.000355263
-0.000346017
-0.000337068
-0.000328449
-0.000320143
-0.000312112
-0.000304312
-0.000296703
-0.000289254
-0.00028194
-0.000274745
-0.000267659
-0.000260677
-0.000253796
-0.000247018
-0.000240345
-0.000233778
-0.000227322
-0.000220979
-0.000214752
-0.000208644
-0.000202657
-0.000196794
-0.000191055
-0.000185443
-0.000179958
-0.000174601
-0.000169372
-0.000164272
-0.000159299
-0.000154455
-0.000149737
-0.000145145
-0.000140677
-0.000136333
-0.00013211
-0.000128007
-0.000124021
-0.000120151
-0.000116393
-0.000112746
-0.000109206
-0.00010577
-0.000102435
-9.91988e-05
-9.6057e-05
-9.30061e-05
-9.00424e-05
-8.7162e-05
-8.43609e-05
-8.16347e-05
-7.8979e-05
-7.63891e-05
-7.38602e-05
-7.13872e-05
-6.89647e-05
-6.65872e-05
-6.42488e-05
-6.19431e-05
-5.96639e-05
-5.7404e-05
-5.51562e-05
-5.29127e-05
-5.06653e-05
-4.84051e-05
-4.61227e-05
-4.38082e-05
-4.14506e-05
-3.90383e-05
-3.65588e-05
-3.39983e-05
-3.13418e-05
-2.85725e-05
-2.56711e-05
-2.26148e-05
-1.93748e-05
-1.59015e-05
-1.19807e-05
-1.1547e-05
0.00185852
0.0016221
0.00133909
0.00106973
0.00082567
0.000601873
0.000397865
0.000217388
6.34248e-05
-6.32376e-05
-0.000163506
-0.000239481
-0.000294154
-0.000331061
-0.000353869
-0.000366027
-0.000370531
-0.000369813
-0.000365733
-0.000359638
-0.000352443
-0.000344738
-0.000336875
-0.000329045
-0.000321336
-0.000313778
-0.000306368
-0.00029909
-0.000291927
-0.000284862
-0.000277882
-0.000270981
-0.000264155
-0.000257405
-0.000250733
-0.000244143
-0.00023764
-0.000231228
-0.000224914
-0.000218701
-0.000212593
-0.000206596
-0.000200712
-0.000194943
-0.000189294
-0.000183764
-0.000178356
-0.000173072
-0.000167911
-0.000162875
-0.000157963
-0.000153175
-0.00014851
-0.000143969
-0.000139549
-0.00013525
-0.00013107
-0.000127008
-0.000123061
-0.000119227
-0.000115504
-0.000111889
-0.000108381
-0.000104975
-0.000101669
-9.846e-05
-9.53442e-05
-9.23182e-05
-8.93783e-05
-8.65207e-05
-8.37414e-05
-8.10361e-05
-7.84004e-05
-7.58298e-05
-7.33194e-05
-7.08641e-05
-6.84588e-05
-6.60978e-05
-6.37752e-05
-6.1485e-05
-5.92205e-05
-5.6975e-05
-5.47412e-05
-5.25112e-05
-5.0277e-05
-4.80296e-05
-4.57598e-05
-4.34574e-05
-4.11118e-05
-3.87114e-05
-3.62436e-05
-3.36947e-05
-3.10501e-05
-2.82934e-05
-2.54062e-05
-2.23684e-05
-1.91589e-05
-1.57551e-05
-1.22113e-05
-1.33917e-05
0.0016945
0.00150338
0.00126894
0.00103457
0.000814635
0.000609881
0.000421402
0.000252635
0.000106538
-1.57328e-05
-0.000114578
-0.000191524
-0.000248927
-0.000289684
-0.000316898
-0.000333568
-0.000342373
-0.000345553
-0.000344878
-0.000341676
-0.000336895
-0.00033118
-0.000324951
-0.000318461
-0.00031186
-0.000305226
-0.000298596
-0.000291985
-0.000285399
-0.000278839
-0.000272307
-0.000265804
-0.000259337
-0.00025291
-0.00024653
-0.000240207
-0.000233946
-0.000227756
-0.000221645
-0.000215618
-0.000209683
-0.000203843
-0.000198105
-0.000192472
-0.000186948
-0.000181536
-0.000176237
-0.000171054
-0.000165988
-0.000161041
-0.000156212
-0.000151503
-0.000146912
-0.00014244
-0.000138086
-0.000133849
-0.000129728
-0.00012572
-0.000121826
-0.000118042
-0.000114366
-0.000110796
-0.00010733
-0.000103965
-0.000100698
-9.75253e-05
-9.44445e-05
-9.14519e-05
-8.85439e-05
-8.57167e-05
-8.29665e-05
-8.02891e-05
-7.76802e-05
-7.51351e-05
-7.26493e-05
-7.02177e-05
-6.78351e-05
-6.5496e-05
-6.31946e-05
-6.09248e-05
-5.86801e-05
-5.64538e-05
-5.42385e-05
-5.20267e-05
-4.98101e-05
-4.758e-05
-4.53272e-05
-4.30415e-05
-4.07124e-05
-3.83284e-05
-3.5877e-05
-3.3345e-05
-3.07179e-05
-2.79804e-05
-2.51164e-05
-2.21116e-05
-1.89622e-05
-1.57123e-05
-1.27799e-05
-1.56875e-05
0.001551
0.00139364
0.00119863
0.000995706
0.000798814
0.000612391
0.000439089
0.00028223
0.000144632
2.76617e-05
-6.86976e-05
-0.000145501
-0.00020457
-0.000248241
-0.000279095
-0.000299696
-0.000312398
-0.000319225
-0.000321826
-0.00032148
-0.00031914
-0.000315483
-0.000310978
-0.000305933
-0.000300544
-0.000294936
-0.000289182
-0.000283328
-0.000277402
-0.000271424
-0.000265409
-0.00025937
-0.000253321
-0.000247273
-0.000241239
-0.000235231
-0.000229261
-0.000223338
-0.000217472
-0.000211673
-0.000205948
-0.000200304
-0.000194748
-0.000189285
-0.000183919
-0.000178654
-0.000173494
-0.000168441
-0.000163498
-0.000158666
-0.000153945
-0.000149338
-0.000144844
-0.000140463
-0.000136195
-0.000132039
-0.000127995
-0.000124061
-0.000120235
-0.000116517
-0.000112904
-0.000109393
-0.000105983
-0.000102672
-9.94556e-05
-9.63317e-05
-9.32972e-05
-9.03488e-05
-8.7483e-05
-8.46961e-05
-8.19844e-05
-7.93438e-05
-7.67701e-05
-7.42589e-05
-7.18055e-05
-6.94051e-05
-6.70525e-05
-6.47423e-05
-6.24688e-05
-6.02259e-05
-5.80073e-05
-5.58064e-05
-5.36158e-05
-5.1428e-05
-4.92349e-05
-4.70279e-05
-4.47978e-05
-4.25346e-05
-4.02279e-05
-3.78663e-05
-3.54377e-05
-3.29292e-05
-3.03272e-05
-2.76179e-05
-2.4789e-05
-2.18358e-05
-1.87826e-05
-1.57705e-05
-1.35647e-05
-1.78764e-05
0.00142521
0.00129265
0.00112889
0.000953438
0.000778258
0.000609548
0.000451061
0.000306087
0.00017729
6.61673e-05
-2.69791e-05
-0.000102798
-0.000162647
-0.000208376
-0.000242103
-0.000265993
-0.000282087
-0.000292191
-0.000297814
-0.000300169
-0.000300186
-0.000298557
-0.000295778
-0.000292198
-0.000288056
-0.000283511
-0.000278671
-0.00027361
-0.000268378
-0.000263014
-0.000257546
-0.000251999
-0.000246394
-0.000240751
-0.000235088
-0.000229419
-0.000223762
-0.000218128
-0.00021253
-0.00020698
-0.000201487
-0.00019606
-0.000190707
-0.000185433
-0.000180246
-0.000175149
-0.000170147
-0.000165243
-0.000160441
-0.000155741
-0.000151147
-0.000146659
-0.000142279
-0.000138006
-0.00013384
-0.000129782
-0.00012583
-0.000121984
-0.000118243
-0.000114604
-0.000111067
-0.00010763
-0.00010429
-0.000101044
-9.78912e-05
-9.48278e-05
-9.1851e-05
-8.89578e-05
-8.61448e-05
-8.34086e-05
-8.07453e-05
-7.81512e-05
-7.56221e-05
-7.31537e-05
-7.07415e-05
-6.83806e-05
-6.60662e-05
-6.37928e-05
-6.15548e-05
-5.93465e-05
-5.71614e-05
-5.49929e-05
-5.2834e-05
-5.06773e-05
-4.85146e-05
-4.63375e-05
-4.4137e-05
-4.19033e-05
-3.9626e-05
-3.72941e-05
-3.48959e-05
-3.24191e-05
-2.98511e-05
-2.71806e-05
-2.44005e-05
-2.15187e-05
-1.8594e-05
-1.5866e-05
-1.43331e-05
-1.93476e-05
0.00131382
0.00119989
0.00106096
0.000909247
0.000754146
0.000602264
0.00045797
0.000324566
0.000204589
9.96125e-05
1.01915e-05
-6.398e-05
-0.000123866
-0.000170899
-0.000206791
-0.000233347
-0.000252317
-0.000265289
-0.000273632
-0.00027847
-0.000280699
-0.000281004
-0.000279899
-0.000277759
-0.000274853
-0.000271373
-0.000267456
-0.000263199
-0.000258674
-0.000253935
-0.000249027
-0.000243983
-0.000238834
-0.000233606
-0.000228323
-0.000223004
-0.000217669
-0.000212335
-0.000207015
-0.000201724
-0.000196472
-0.000191272
-0.000186131
-0.000181057
-0.000176057
-0.000171138
-0.000166304
-0.00016156
-0.000156908
-0.000152352
-0.000147894
-0.000143536
-0.000139279
-0.000135124
-0.000131071
-0.00012712
-0.000123271
-0.000119523
-0.000115876
-0.000112327
-0.000108876
-0.000105521
-0.000102259
-9.90892e-05
-9.60086e-05
-9.30146e-05
-9.01044e-05
-8.72751e-05
-8.45234e-05
-8.18461e-05
-7.92395e-05
-7.66998e-05
-7.42231e-05
-7.18052e-05
-6.94416e-05
-6.71278e-05
-6.48587e-05
-6.26293e-05
-6.0434e-05
-5.8267e-05
-5.61222e-05
-5.39931e-05
-5.18727e-05
-4.97537e-05
-4.76282e-05
-4.54879e-05
-4.33238e-05
-4.11266e-05
-3.8886e-05
-3.65913e-05
-3.42313e-05
-3.17946e-05
-2.92701e-05
-2.66491e-05
-2.39306e-05
-2.11362e-05
-1.83568e-05
-1.59019e-05
-1.48356e-05
-1.96673e-05
0.00121432
0.00111484
0.000995768
0.000864316
0.000727374
0.000591182
0.000460305
0.000338023
0.000226759
0.00012811
4.28129e-05
-2.91596e-05
-8.84416e-05
-0.000136109
-0.000173518
-0.000202155
-0.000223499
-0.000238932
-0.000249673
-0.000256757
-0.000261026
-0.000263149
-0.000263641
-0.000262893
-0.000261198
-0.00025877
-0.00025577
-0.000252318
-0.000248503
-0.000244395
-0.000240051
-0.000235516
-0.000230828
-0.000226021
-0.000221123
-0.000216158
-0.000211151
-0.000206119
-0.000201082
-0.000196054
-0.000191049
-0.000186079
-0.000181155
-0.000176286
-0.000171479
-0.000166743
-0.000162082
-0.000157501
-0.000153006
-0.000148599
-0.000144283
-0.00014006
-0.000135932
-0.0001319
-0.000127965
-0.000124127
-0.000120387
-0.000116743
-0.000113195
-0.000109742
-0.000106383
-0.000103116
-9.9939e-05
-9.68505e-05
-9.38482e-05
-9.09295e-05
-8.80917e-05
-8.53321e-05
-8.26476e-05
-8.00349e-05
-7.74905e-05
-7.5011e-05
-7.25923e-05
-7.02305e-05
-6.79211e-05
-6.56598e-05
-6.34417e-05
-6.12617e-05
-5.91144e-05
-5.69943e-05
-5.48953e-05
-5.2811e-05
-5.07346e-05
-4.86589e-05
-4.65763e-05
-4.44786e-05
-4.23571e-05
-4.02024e-05
-3.80049e-05
-3.57542e-05
-3.34397e-05
-3.10508e-05
-2.85781e-05
-2.60159e-05
-2.33689e-05
-2.06702e-05
-1.80319e-05
-1.57859e-05
-1.48975e-05
-1.8731e-05
0.00112467
0.00103677
0.000933718
0.000819418
0.00069865
0.000576898
0.000458593
0.000346914
0.000244165
0.000151922
7.10443e-05
1.72018e-06
-5.64106e-05
-0.000104122
-0.000142464
-0.000172638
-0.000195878
-0.000213369
-0.000226186
-0.000235265
-0.000241387
-0.000245193
-0.000247189
-0.000247771
-0.000247246
-0.000245846
-0.00024375
-0.000241095
-0.000237987
-0.00023451
-0.000230732
-0.000226708
-0.000222484
-0.000218099
-0.000213589
-0.000208982
-0.000204305
-0.00019958
-0.000194828
-0.000190066
-0.00018531
-0.000180575
-0.000175871
-0.00017121
-0.0001666
-0.00016205
-0.000157565
-0.000153153
-0.000148817
-0.000144562
-0.000140391
-0.000136307
-0.000132312
-0.000128408
-0.000124595
-0.000120874
-0.000117245
-0.000113709
-0.000110265
-0.000106911
-0.000103648
-0.000100473
-9.73844e-05
-9.43813e-05
-9.1461e-05
-8.86214e-05
-8.58599e-05
-8.31739e-05
-8.05603e-05
-7.80161e-05
-7.55379e-05
-7.31223e-05
-7.07655e-05
-6.84636e-05
-6.62123e-05
-6.40073e-05
-6.1844e-05
-5.97173e-05
-5.76221e-05
-5.55528e-05
-5.35036e-05
-5.14682e-05
-4.94401e-05
-4.74121e-05
-4.53768e-05
-4.33263e-05
-4.1252e-05
-3.9145e-05
-3.69959e-05
-3.47948e-05
-3.25317e-05
-3.0197e-05
-2.77829e-05
-2.52862e-05
-2.27161e-05
-2.01126e-05
-1.7593e-05
-1.54625e-05
-1.44707e-05
-1.67701e-05
0.00104322
0.000964861
0.0008749
0.000775102
0.000668599
0.000559992
0.000453363
0.000351708
0.00025719
0.000171338
9.50776e-05
2.87594e-05
-2.77567e-05
-7.49926e-05
-0.000113738
-0.000144944
-0.000169624
-0.000188782
-0.000203351
-0.000214165
-0.000221941
-0.00022728
-0.00023067
-0.000232505
-0.000233096
-0.000232688
-0.000231473
-0.000229601
-0.000227192
-0.000224341
-0.000221127
-0.000217613
-0.000213853
-0.000209894
-0.000205773
-0.000201526
-0.000197182
-0.000192767
-0.000188303
-0.000183811
-0.000179308
-0.00017481
-0.000170331
-0.000165881
-0.000161471
-0.00015711
-0.000152805
-0.000148564
-0.000144392
-0.000140293
-0.000136271
-0.000132329
-0.00012847
-0.000124696
-0.000121008
-0.000117408
-0.000113895
-0.00011047
-0.000107132
-0.000103881
-0.000100717
-9.76369e-05
-9.46404e-05
-9.17256e-05
-8.88906e-05
-8.61332e-05
-8.3451e-05
-8.08415e-05
-7.83018e-05
-7.5829e-05
-7.342e-05
-7.10713e-05
-6.87792e-05
-6.65401e-05
-6.43498e-05
-6.22042e-05
-6.00985e-05
-5.80281e-05
-5.5988e-05
-5.39726e-05
-5.19763e-05
-4.9993e-05
-4.80163e-05
-4.60394e-05
-4.4055e-05
-4.20553e-05
-4.00321e-05
-3.79768e-05
-3.58804e-05
-3.37334e-05
-3.15265e-05
-2.9251e-05
-2.69003e-05
-2.44734e-05
-2.19816e-05
-1.94659e-05
-1.7033e-05
-1.49251e-05
-1.3627e-05
-1.42212e-05
0.000968667
0.000898346
0.000819228
0.00073172
0.00063772
0.000540971
0.000445098
0.000352843
0.000266211
0.000186655
0.000115126
5.20888e-05
-2.4266e-06
-4.87362e-05
-8.74103e-05
-0.000119184
-0.000144875
-0.000165319
-0.000181317
-0.000193603
-0.000202822
-0.00020953
-0.000214192
-0.000217188
-0.00021883
-0.000219367
-0.000218999
-0.000217887
-0.000216161
-0.000213927
-0.00021127
-0.000208263
-0.000204966
-0.000201431
-0.000197702
-0.000193816
-0.000189807
-0.000185703
-0.000181531
-0.000177312
-0.000173065
-0.000168808
-0.000164556
-0.000160321
-0.000156115
-0.000151947
-0.000147827
-0.000143761
-0.000139756
-0.000135816
-0.000131947
-0.000128151
-0.000124433
-0.000120793
-0.000117234
-0.000113758
-0.000110364
-0.000107053
-0.000103826
-0.000100681
-9.76189e-05
-9.46376e-05
-9.1736e-05
-8.89127e-05
-8.6166e-05
-8.34938e-05
-8.08939e-05
-7.83638e-05
-7.59009e-05
-7.35025e-05
-7.11653e-05
-6.88862e-05
-6.66617e-05
-6.4488e-05
-6.23614e-05
-6.02777e-05
-5.82324e-05
-5.6221e-05
-5.42385e-05
-5.22797e-05
-5.03391e-05
-4.84107e-05
-4.64884e-05
-4.45655e-05
-4.26349e-05
-4.06892e-05
-3.87205e-05
-3.67204e-05
-3.46803e-05
-3.25912e-05
-3.04445e-05
-2.82321e-05
-2.59485e-05
-2.35935e-05
-2.11786e-05
-1.874e-05
-1.63624e-05
-1.42076e-05
-1.25087e-05
-1.15472e-05
0.000899912
0.000836513
0.000766508
0.000689462
0.000606388
0.000520268
0.000434231
0.000350732
0.000271594
0.000198176
0.00013142
7.18624e-05
1.96602e-05
-2.53383e-05
-6.35214e-05
-9.54403e-05
-0.000121742
-0.00014311
-0.000160222
-0.000173712
-0.000184157
-0.00019206
-0.000197856
-0.000201909
-0.000204523
-0.000205945
-0.000206382
-0.000205999
-0.000204934
-0.000203299
-0.000201188
-0.00019868
-0.000195841
-0.000192727
-0.000189387
-0.000185862
-0.000182189
-0.000178399
-0.00017452
-0.000170576
-0.000166588
-0.000162576
-0.000158554
-0.000154538
-0.00015054
-0.00014657
-0.000142638
-0.000138752
-0.000134918
-0.000131142
-0.00012743
-0.000123785
-0.000120211
-0.00011671
-0.000113284
-0.000109936
-0.000106665
-0.000103473
-0.00010036
-9.73249e-05
-9.43684e-05
-9.14891e-05
-8.86861e-05
-8.59578e-05
-8.33028e-05
-8.07192e-05
-7.82048e-05
-7.57574e-05
-7.33745e-05
-7.10533e-05
-6.8791e-05
-6.65845e-05
-6.44304e-05
-6.23251e-05
-6.0265e-05
-5.8246e-05
-5.62639e-05
-5.43142e-05
-5.23921e-05
-5.04927e-05
-4.86105e-05
-4.67398e-05
-4.48747e-05
-4.30087e-05
-4.1135e-05
-3.92464e-05
-3.73353e-05
-3.53937e-05
-3.34133e-05
-3.13856e-05
-2.93025e-05
-2.71566e-05
-2.49428e-05
-2.26609e-05
-2.03203e-05
-1.79488e-05
-1.56029e-05
-1.3365e-05
-1.12694e-05
-9.10147e-06
0.000836065
0.000778725
0.000716485
0.000648403
0.000574873
0.000498239
0.00042115
0.000345757
0.000273691
0.000206202
0.000144198
8.82491e-05
3.86043e-05
-4.76106e-06
-4.20878e-05
-7.37733e-05
-0.000100316
-0.000122266
-0.000140185
-0.000154616
-0.000166063
-0.000174979
-0.000181763
-0.000186756
-0.00019025
-0.000192489
-0.000193676
-0.000193981
-0.000193546
-0.000192488
-0.000190907
-0.000188886
-0.000186495
-0.000183796
-0.000180841
-0.000177674
-0.000174335
-0.000170858
-0.000167273
-0.000163606
-0.00015988
-0.000156115
-0.000152328
-0.000148534
-0.000144747
-0.000140979
-0.000137239
-0.000133537
-0.000129879
-0.000126272
-0.000122721
-0.000119231
-0.000115805
-0.000112448
-0.00010916
-0.000105944
-0.0001028
-9.97313e-05
-9.67364e-05
-9.38159e-05
-9.09694e-05
-8.81964e-05
-8.54958e-05
-8.28665e-05
-8.0307e-05
-7.78156e-05
-7.53904e-05
-7.30292e-05
-7.07297e-05
-6.84893e-05
-6.63053e-05
-6.41746e-05
-6.2094e-05
-6.00603e-05
-5.80698e-05
-5.61186e-05
-5.42026e-05
-5.23177e-05
-5.04591e-05
-4.86219e-05
-4.68012e-05
-4.49913e-05
-4.31864e-05
-4.13804e-05
-3.95667e-05
-3.77384e-05
-3.58882e-05
-3.40084e-05
-3.20911e-05
-3.01283e-05
-2.81122e-05
-2.60359e-05
-2.38942e-05
-2.16863e-05
-1.9418e-05
-1.71064e-05
-1.47797e-05
-1.24546e-05
-1.00345e-05
-7.07474e-06
0.000776376
0.000724417
0.000668879
0.000608535
0.000543357
0.000475169
0.000406187
0.000338264
0.000272834
0.000211027
0.000153699
0.000101429
5.45242e-05
1.30549e-05
-2.31026e-05
-5.4219e-05
-8.06664e-05
-0.000102878
-0.000121311
-0.000136424
-0.00014865
-0.000158392
-0.000166009
-0.000171817
-0.00017609
-0.000179065
-0.000180939
-0.000181883
-0.000182039
-0.000181529
-0.000180453
-0.000178901
-0.000176945
-0.000174651
-0.000172073
-0.00016926
-0.000166252
-0.000163087
-0.000159795
-0.000156405
-0.000152942
-0.000149425
-0.000145875
-0.000142306
-0.000138734
-0.000135171
-0.000131628
-0.000128113
-0.000124636
-0.000121201
-0.000117817
-0.000114486
-0.000111215
-0.000108005
-0.000104859
-0.00010178
-9.8769e-05
-9.58273e-05
-9.29554e-05
-9.01535e-05
-8.74215e-05
-8.47589e-05
-8.21651e-05
-7.96388e-05
-7.7179e-05
-7.47839e-05
-7.24518e-05
-7.01807e-05
-6.79684e-05
-6.58124e-05
-6.37102e-05
-6.1659e-05
-5.96556e-05
-5.76968e-05
-5.57793e-05
-5.38992e-05
-5.20528e-05
-5.02358e-05
-4.84439e-05
-4.66724e-05
-4.49163e-05
-4.31704e-05
-4.14291e-05
-3.96864e-05
-3.7936e-05
-3.61714e-05
-3.43855e-05
-3.25711e-05
-3.07205e-05
-2.88261e-05
-2.68805e-05
-2.48768e-05
-2.28099e-05
-2.06772e-05
-1.84804e-05
-1.62257e-05
-1.39172e-05
-1.15244e-05
-8.88444e-06
-5.51122e-06
0.000720214
0.000673086
0.000623405
0.000569794
0.000511949
0.00045128
0.000389626
0.000328559
0.000269325
0.000212929
0.000160162
0.000111589
6.75514e-05
2.8187e-05
-6.53801e-06
-3.67919e-05
-6.28415e-05
-8.50187e-05
-0.00010369
-0.000119234
-0.000132019
-0.000142396
-0.000150685
-0.000157173
-0.000162117
-0.000165737
-0.000168227
-0.000169752
-0.000170453
-0.000170453
-0.000169854
-0.000168748
-0.000167209
-0.000165306
-0.000163095
-0.000160627
-0.000157944
-0.000155086
-0.000152086
-0.000148972
-0.000145771
-0.000142504
-0.000139192
-0.000135851
-0.000132497
-0.000129143
-0.000125799
-0.000122477
-0.000119183
-0.000115926
-0.000112712
-0.000109546
-0.000106433
-0.000103375
-0.000100377
-9.74397e-05
-9.45658e-05
-9.17563e-05
-8.9012e-05
-8.63334e-05
-8.37205e-05
-8.1173e-05
-7.86904e-05
-7.62716e-05
-7.39157e-05
-7.16212e-05
-6.93864e-05
-6.72095e-05
-6.50884e-05
-6.30209e-05
-6.10045e-05
-5.90364e-05
-5.71139e-05
-5.52339e-05
-5.3393e-05
-5.15877e-05
-4.98143e-05
-4.80689e-05
-4.63473e-05
-4.46449e-05
-4.2957e-05
-4.12786e-05
-3.96043e-05
-3.79285e-05
-3.62451e-05
-3.45478e-05
-3.28299e-05
-3.10845e-05
-2.93044e-05
-2.74821e-05
-2.56105e-05
-2.36829e-05
-2.16935e-05
-1.9638e-05
-1.75139e-05
-1.53179e-05
-1.30354e-05
-1.06086e-05
-7.85745e-06
-4.36037e-06
0.000667035
0.000624291
0.000579783
0.000532081
0.000480702
0.000426736
0.000371699
0.000316912
0.000263442
0.000212172
0.000163818
0.000118919
7.7828e-05
4.07279e-05
7.65201e-06
-2.14876e-05
-4.68715e-05
-6.87458e-05
-8.73977e-05
-0.000103133
-0.000116263
-0.000127085
-0.000135882
-0.000142912
-0.000148408
-0.000152577
-0.000155603
-0.000157642
-0.000158835
-0.000159301
-0.000159145
-0.000158455
-0.000157311
-0.000155781
-0.000153922
-0.000151788
-0.000149422
-0.000146866
-0.000144152
-0.000141311
-0.000138371
-0.000135354
-0.000132281
-0.000129169
-0.000126035
-0.000122891
-0.000119751
-0.000116624
-0.000113518
-0.000110443
-0.000107404
-0.000104407
-0.000101456
-9.85557e-05
-9.57092e-05
-9.29189e-05
-9.01868e-05
-8.75143e-05
-8.49025e-05
-8.23519e-05
-7.98629e-05
-7.74352e-05
-7.50684e-05
-7.27617e-05
-7.05143e-05
-6.83247e-05
-6.61916e-05
-6.41132e-05
-6.20875e-05
-6.01126e-05
-5.8186e-05
-5.63052e-05
-5.44676e-05
-5.26701e-05
-5.09097e-05
-4.9183e-05
-4.74865e-05
-4.58164e-05
-4.41687e-05
-4.25391e-05
-4.09231e-05
-3.93159e-05
-3.77124e-05
-3.61072e-05
-3.44946e-05
-3.28685e-05
-3.12225e-05
-2.955e-05
-2.78442e-05
-2.6098e-05
-2.43043e-05
-2.24564e-05
-2.05478e-05
-1.85726e-05
-1.65244e-05
-1.43923e-05
-1.21501e-05
-9.72853e-06
-6.96136e-06
-3.53179e-06
0.00061637
0.000577637
0.000537746
0.000495272
0.000449628
0.000401652
0.000352592
0.00030355
0.00025543
0.000208996
0.000164888
0.000123607
8.55035e-05
5.07858e-05
1.95346e-05
-8.27621e-06
-3.27582e-05
-5.40865e-05
-7.24796e-05
-8.81813e-05
-0.000101446
-0.000112527
-0.000121668
-0.000129096
-0.000135023
-0.000139639
-0.000143112
-0.000145595
-0.000147219
-0.000148103
-0.000148347
-0.000148042
-0.000147265
-0.000146085
-0.000144562
-0.000142748
-0.000140689
-0.000138425
-0.000135991
-0.00013342
-0.000130738
-0.000127969
-0.000125134
-0.000122252
-0.000119339
-0.000116409
-0.000113475
-0.000110546
-0.000107633
-0.000104743
-0.000101883
-9.9059e-05
-9.62759e-05
-9.35377e-05
-9.0848e-05
-8.82093e-05
-8.56239e-05
-8.30935e-05
-8.06191e-05
-7.82016e-05
-7.58412e-05
-7.35382e-05
-7.1292e-05
-6.91022e-05
-6.69679e-05
-6.48879e-05
-6.2861e-05
-6.08856e-05
-5.89599e-05
-5.70819e-05
-5.52494e-05
-5.34601e-05
-5.17115e-05
-5.00007e-05
-4.83248e-05
-4.66807e-05
-4.50651e-05
-4.34742e-05
-4.19044e-05
-4.03516e-05
-3.88114e-05
-3.72794e-05
-3.57507e-05
-3.42201e-05
-3.26822e-05
-3.11313e-05
-2.95613e-05
-2.79659e-05
-2.63386e-05
-2.46726e-05
-2.29609e-05
-2.11967e-05
-1.9373e-05
-1.74822e-05
-1.55148e-05
-1.34551e-05
-1.12709e-05
-8.89306e-06
-6.18447e-06
-2.932e-06
0.000567804
0.000532776
0.000497047
0.000459239
0.000418712
0.00037611
0.000332458
0.000288671
0.000245508
0.000203621
0.000163577
0.00012583
9.07174e-05
5.84595e-05
2.91679e-05
2.86196e-06
-2.05159e-05
-4.1083e-05
-5.90004e-05
-7.44576e-05
-8.76598e-05
-9.88174e-05
-0.000108138
-0.000115821
-0.000122052
-0.000127003
-0.000130831
-0.000133677
-0.000135667
-0.000136911
-0.000137509
-0.000137549
-0.000137107
-0.000136251
-0.000135041
-0.000133529
-0.000131762
-0.000129779
-0.000127618
-0.000125309
-0.000122881
-0.000120357
-0.000117759
-0.000115107
-0.000112416
-0.0001097
-0.000106974
-0.000104247
-0.000101528
-9.88273e-05
-9.61505e-05
-9.3504e-05
-9.08928e-05
-8.83213e-05
-8.5793e-05
-8.33108e-05
-8.08771e-05
-7.84936e-05
-7.61616e-05
-7.3882e-05
-7.16554e-05
-6.94818e-05
-6.73612e-05
-6.5293e-05
-6.32766e-05
-6.1311e-05
-5.93949e-05
-5.7527e-05
-5.57057e-05
-5.3929e-05
-5.21951e-05
-5.05016e-05
-4.88462e-05
-4.72263e-05
-4.56392e-05
-4.40818e-05
-4.2551e-05
-4.10435e-05
-3.95556e-05
-3.80835e-05
-3.66233e-05
-3.51704e-05
-3.37205e-05
-3.22685e-05
-3.08095e-05
-2.9338e-05
-2.78482e-05
-2.63342e-05
-2.47897e-05
-2.32081e-05
-2.15828e-05
-1.99067e-05
-1.81723e-05
-1.63709e-05
-1.44909e-05
-1.25139e-05
-1.04065e-05
-8.10662e-06
-5.51008e-06
-2.48706e-06
0.000520964
0.000489376
0.000457431
0.000423823
0.000387896
0.000350143
0.000311406
0.00027244
0.000233876
0.000196269
0.000160109
0.000125803
9.3668e-05
6.39226e-05
3.66973e-05
1.20431e-05
-1.00564e-05
-2.96727e-05
-4.69192e-05
-6.19391e-05
-7.48945e-05
-8.5957e-05
-9.53007e-05
-0.000103096
-0.000109507
-0.000114685
-0.000118774
-0.000121902
-0.000124186
-0.000125732
-0.000126635
-0.000126978
-0.000126836
-0.000126275
-0.000125354
-0.000124125
-0.000122633
-0.00012092
-0.00011902
-0.000116966
-0.000114786
-0.000112504
-0.000110141
-0.000107716
-0.000105247
-0.000102748
-0.000100231
-9.77072e-05
-9.51871e-05
-9.26785e-05
-9.01887e-05
-8.77239e-05
-8.52891e-05
-8.28889e-05
-8.0527e-05
-7.82063e-05
-7.59293e-05
-7.36978e-05
-7.15134e-05
-6.93769e-05
-6.72892e-05
-6.52503e-05
-6.32604e-05
-6.1319e-05
-5.94255e-05
-5.75792e-05
-5.57789e-05
-5.40234e-05
-5.23113e-05
-5.06407e-05
-4.90099e-05
-4.74169e-05
-4.58593e-05
-4.43349e-05
-4.28409e-05
-4.13747e-05
-3.99332e-05
-3.85134e-05
-3.71118e-05
-3.57248e-05
-3.43487e-05
-3.29794e-05
-3.16126e-05
-3.02438e-05
-2.88681e-05
-2.74804e-05
-2.60753e-05
-2.46473e-05
-2.31902e-05
-2.16979e-05
-2.01637e-05
-1.85807e-05
-1.69409e-05
-1.52349e-05
-1.34502e-05
-1.15674e-05
-9.55509e-06
-7.36181e-06
-4.91327e-06
-2.13782e-06
0.000467001
0.00043924
0.000411407
0.000382317
0.000351323
0.000318776
0.000285343
0.000251621
0.000218114
0.000185269
0.000153496
0.000123145
9.44986e-05
6.77677e-05
4.30912e-05
2.05442e-05
1.44923e-07
-1.81365e-05
-3.43685e-05
-4.86488e-05
-6.10956e-05
-7.18403e-05
-8.10208e-05
-8.87761e-05
-9.52428e-05
-0.000100552
-0.000104827
-0.000108183
-0.000110725
-0.000112551
-0.000113747
-0.000114392
-0.000114558
-0.000114307
-0.000113695
-0.000112774
-0.000111587
-0.000110174
-0.000108571
-0.000106809
-0.000104914
-0.000102912
-0.000100824
-9.86677e-05
-9.64611e-05
-9.42181e-05
-9.19517e-05
-8.96727e-05
-8.7391e-05
-8.51148e-05
-8.28515e-05
-8.06071e-05
-7.83871e-05
-7.61958e-05
-7.4037e-05
-7.19139e-05
-6.98289e-05
-6.77841e-05
-6.5781e-05
-6.38207e-05
-6.1904e-05
-6.00312e-05
-5.82024e-05
-5.64175e-05
-5.4676e-05
-5.29773e-05
-5.13203e-05
-4.97041e-05
-4.81272e-05
-4.65882e-05
-4.50855e-05
-4.36171e-05
-4.21811e-05
-4.07752e-05
-3.93971e-05
-3.80443e-05
-3.6714e-05
-3.54034e-05
-3.41093e-05
-3.28285e-05
-3.15575e-05
-3.02925e-05
-2.90295e-05
-2.77645e-05
-2.64929e-05
-2.52101e-05
-2.3911e-05
-2.25904e-05
-2.12428e-05
-1.98621e-05
-1.8442e-05
-1.69756e-05
-1.54548e-05
-1.387e-05
-1.22082e-05
-1.04511e-05
-8.57178e-06
-6.5322e-06
-4.28738e-06
-1.80653e-06
0.00040513
0.000381535
0.00035808
0.000333725
0.00030787
0.000280754
0.000252883
0.000224711
0.000196618
0.00016895
0.00014203
0.000116144
9.15321e-05
6.83821e-05
4.68291e-05
2.69595e-05
8.81457e-06
-7.60362e-06
-2.23263e-05
-3.54114e-05
-4.69369e-05
-5.69953e-05
-6.56883e-05
-7.31222e-05
-7.94045e-05
-8.4641e-05
-8.89339e-05
-9.23801e-05
-9.50705e-05
-9.70893e-05
-9.85141e-05
-9.94156e-05
-9.98579e-05
-9.98993e-05
-9.95918e-05
-9.89825e-05
-9.81132e-05
-9.70214e-05
-9.57405e-05
-9.43001e-05
-9.27265e-05
-9.10431e-05
-8.92704e-05
-8.74266e-05
-8.55279e-05
-8.35881e-05
-8.16198e-05
-7.96336e-05
-7.76391e-05
-7.56442e-05
-7.36563e-05
-7.16812e-05
-6.97243e-05
-6.77899e-05
-6.58817e-05
-6.4003e-05
-6.21561e-05
-6.03432e-05
-5.85659e-05
-5.68252e-05
-5.51222e-05
-5.34573e-05
-5.18306e-05
-5.02422e-05
-4.86917e-05
-4.71786e-05
-4.57022e-05
-4.42615e-05
-4.28555e-05
-4.14828e-05
-4.01419e-05
-3.88314e-05
-3.75494e-05
-3.62939e-05
-3.50629e-05
-3.38542e-05
-3.26652e-05
-3.14936e-05
-3.03364e-05
-2.91908e-05
-2.80537e-05
-2.69218e-05
-2.57914e-05
-2.4659e-05
-2.35204e-05
-2.23716e-05
-2.12079e-05
-2.00247e-05
-1.88169e-05
-1.7579e-05
-1.6305e-05
-1.49883e-05
-1.36212e-05
-1.21943e-05
-1.06959e-05
-9.11028e-06
-7.41725e-06
-5.59242e-06
-3.6139e-06
-1.47785e-06
0.000340836
0.000321381
0.000302188
0.000282375
0.000261417
0.000239467
0.000216903
0.000194057
0.000171209
0.000148614
0.000126519
0.000105147
8.46924e-05
6.53131e-05
4.71305e-05
3.02307e-05
1.46656e-05
4.56792e-07
-1.24013e-05
-2.39366e-05
-3.41955e-05
-4.32382e-05
-5.11349e-05
-5.79625e-05
-6.38012e-05
-6.87326e-05
-7.28369e-05
-7.61923e-05
-7.88734e-05
-8.09505e-05
-8.24893e-05
-8.35506e-05
-8.41902e-05
-8.44592e-05
-8.4404e-05
-8.40664e-05
-8.34844e-05
-8.26919e-05
-8.17193e-05
-8.05938e-05
-7.93396e-05
-7.79782e-05
-7.65288e-05
-7.50081e-05
-7.34312e-05
-7.18112e-05
-7.01596e-05
-6.84866e-05
-6.68009e-05
-6.51102e-05
-6.34213e-05
-6.17399e-05
-6.00708e-05
-5.84184e-05
-5.67861e-05
-5.51771e-05
-5.35936e-05
-5.20378e-05
-5.05111e-05
-4.90149e-05
-4.75499e-05
-4.61168e-05
-4.47159e-05
-4.33472e-05
-4.20106e-05
-4.07056e-05
-3.94317e-05
-3.81882e-05
-3.69741e-05
-3.57885e-05
-3.463e-05
-3.34973e-05
-3.23889e-05
-3.13032e-05
-3.02383e-05
-2.91925e-05
-2.81635e-05
-2.71492e-05
-2.61472e-05
-2.5155e-05
-2.41699e-05
-2.31891e-05
-2.22095e-05
-2.12279e-05
-2.02408e-05
-1.92446e-05
-1.82353e-05