/*--------------------------------*- C++ -*----------------------------------*\
| =========                 |                                                 |
| \\      /  F ield         | OpenFOAM: The Open Source CFD Toolbox           |
|  \\    /   O peration     | Version:  2.3.0                                 |
|   \\  /    A nd           | Web:      www.OpenFOAM.org                      |
|    \\/     M anipulation  |                                                 |
\*---------------------------------------------------------------------------*/
FoamFile
{
    version     2.0;
    format      ascii;
    class       surfaceScalarField;
    location    "0.8";
    object      phi;
}
// * * * * * * * * * * * * * * * * * * * * * * * * * * * * * * * * * * * * * //

dimensions      [0 3 -1 0 0 0 0];

internalField   nonuniform List<scalar> 
5644
(
2.86514e-08
2.77209e-09
-3.14235e-08
2.58102e-08
2.8412e-09
2.31195e-08
2.69068e-09
2.06323e-08
2.48719e-09
1.83665e-08
2.26583e-09
1.63334e-08
2.03307e-09
1.45368e-08
1.79663e-09
1.29725e-08
1.5643e-09
1.16297e-08
1.34282e-09
1.0492e-08
1.13767e-09
9.53905e-09
9.52953e-10
8.74788e-09
7.91174e-10
8.09469e-09
6.5319e-10
7.55631e-09
5.38382e-10
7.11134e-09
4.44969e-10
6.74093e-09
3.70409e-10
6.42913e-09
3.11794e-10
6.16295e-09
2.66184e-10
5.9321e-09
2.30852e-10
5.72867e-09
2.03428e-10
5.54672e-09
1.81953e-10
5.38183e-09
1.64882e-10
5.2308e-09
1.51036e-10
5.09125e-09
1.39546e-10
4.96146e-09
1.29789e-10
4.84014e-09
1.21327e-10
4.72628e-09
1.13854e-10
4.61912e-09
1.07164e-10
4.51801e-09
1.01111e-10
4.42241e-09
9.55945e-11
4.33187e-09
9.05409e-11
4.24598e-09
8.58945e-11
4.16437e-09
8.16114e-11
4.08671e-09
7.76548e-11
4.01272e-09
7.39933e-11
3.94212e-09
7.05991e-11
3.87467e-09
6.74475e-11
3.81015e-09
6.45163e-11
3.74837e-09
6.17854e-11
3.68913e-09
5.92368e-11
3.63228e-09
5.68543e-11
3.57765e-09
5.46235e-11
3.52512e-09
5.25313e-11
3.47456e-09
5.0566e-11
3.42584e-09
4.87173e-11
3.37886e-09
4.69758e-11
3.33353e-09
4.53332e-11
3.28975e-09
4.37817e-11
3.24743e-09
4.23148e-11
3.20651e-09
4.09262e-11
3.1669e-09
3.96103e-11
3.12854e-09
3.83622e-11
3.09136e-09
3.71772e-11
3.05531e-09
3.60512e-11
3.02033e-09
3.49802e-11
2.98637e-09
3.39608e-11
2.95338e-09
3.29897e-11
2.92131e-09
3.2064e-11
2.89013e-09
3.11808e-11
2.85979e-09
3.03376e-11
2.83026e-09
2.95321e-11
2.8015e-09
2.8762e-11
2.77347e-09
2.80254e-11
2.74615e-09
2.73204e-11
2.71951e-09
2.66451e-11
2.69351e-09
2.59981e-11
2.66813e-09
2.53776e-11
2.64335e-09
2.47825e-11
2.61914e-09
2.42112e-11
2.59548e-09
2.36627e-11
2.57234e-09
2.31357e-11
2.54971e-09
2.26294e-11
2.52757e-09
2.21425e-11
2.50589e-09
2.16744e-11
2.48467e-09
2.12241e-11
2.46388e-09
2.0791e-11
2.44351e-09
2.03742e-11
2.42353e-09
1.99733e-11
2.40394e-09
1.95877e-11
2.38473e-09
1.92168e-11
2.36587e-09
1.88603e-11
2.34735e-09
1.85179e-11
2.32916e-09
1.81892e-11
2.31129e-09
1.7874e-11
2.29371e-09
1.75724e-11
2.27643e-09
1.72841e-11
2.25942e-09
1.70093e-11
2.24267e-09
1.67482e-11
2.22617e-09
1.65012e-11
2.2099e-09
1.62688e-11
2.19385e-09
1.60522e-11
2.178e-09
1.58528e-11
2.16232e-09
1.56734e-11
2.1468e-09
1.55192e-11
2.1314e-09
1.54008e-11
2.11606e-09
1.53434e-11
2.10064e-09
1.54169e-11
2.08488e-09
1.5764e-11
2.06806e-09
1.68162e-11
4.94896e-11
3.44034e-08
3.04359e-09
-3.46749e-08
3.38386e-08
3.40604e-09
3.30302e-08
3.49908e-09
3.20589e-08
3.45846e-09
3.09824e-08
3.3424e-09
2.9846e-08
3.16948e-09
2.8687e-08
2.95557e-09
2.75345e-08
2.71679e-09
2.64101e-08
2.46727e-09
2.5329e-08
2.21873e-09
2.43015e-08
1.98049e-09
2.33333e-08
1.75933e-09
2.2427e-08
1.5595e-09
2.15825e-08
1.38287e-09
2.0798e-08
1.22944e-09
2.00706e-08
1.09785e-09
1.93965e-08
9.85862e-10
1.87718e-08
8.90896e-10
1.81924e-08
8.10309e-10
1.76542e-08
7.4164e-10
1.71534e-08
6.82729e-10
1.66865e-08
6.31757e-10
1.62503e-08
5.87244e-10
1.58418e-08
5.48008e-10
1.54585e-08
5.13123e-10
1.5098e-08
4.81865e-10
1.47581e-08
4.53672e-10
1.44372e-08
4.281e-10
1.41335e-08
4.04798e-10
1.38456e-08
3.83483e-10
1.35723e-08
3.63922e-10
1.33122e-08
3.4592e-10
1.30645e-08
3.2931e-10
1.28282e-08
3.13949e-10
1.26025e-08
2.99713e-10
1.23866e-08
2.86493e-10
1.21799e-08
2.74191e-10
1.19817e-08
2.62722e-10
1.17915e-08
2.5201e-10
1.16087e-08
2.41986e-10
1.1433e-08
2.32591e-10
1.12638e-08
2.23771e-10
1.11009e-08
2.15478e-10
1.09438e-08
2.07669e-10
1.07922e-08
2.00306e-10
1.06458e-08
1.93353e-10
1.05044e-08
1.8678e-10
1.03676e-08
1.80559e-10
1.02352e-08
1.74664e-10
1.01071e-08
1.69073e-10
9.98293e-09
1.63764e-10
9.86257e-09
1.58719e-10
9.74583e-09
1.53921e-10
9.63253e-09
1.49352e-10
9.52251e-09
1.45e-10
9.41562e-09
1.4085e-10
9.31172e-09
1.3689e-10
9.21067e-09
1.33109e-10
9.11236e-09
1.29495e-10
9.01666e-09
1.2604e-10
8.92345e-09
1.22735e-10
8.83265e-09
1.19569e-10
8.74414e-09
1.16537e-10
8.65783e-09
1.1363e-10
8.57363e-09
1.10842e-10
8.49146e-09
1.08166e-10
8.41124e-09
1.05597e-10
8.33289e-09
1.03128e-10
8.25635e-09
1.00756e-10
8.18154e-09
9.84737e-11
8.1084e-09
9.62781e-11
8.03686e-09
9.41648e-11
7.96687e-09
9.21297e-11
7.89838e-09
9.01694e-11
7.83132e-09
8.82803e-11
7.76565e-09
8.64596e-11
7.70132e-09
8.47043e-11
7.63829e-09
8.30118e-11
7.57649e-09
8.13799e-11
7.5159e-09
7.98063e-11
7.45648e-09
7.82894e-11
7.39817e-09
7.68275e-11
7.34094e-09
7.54192e-11
7.28475e-09
7.40635e-11
7.22956e-09
7.27597e-11
7.17534e-09
7.15072e-11
7.12204e-09
7.03061e-11
7.06963e-09
6.91568e-11
7.01807e-09
6.80601e-11
6.96732e-09
6.70178e-11
6.91734e-09
6.6033e-11
6.86808e-09
6.51105e-11
6.8195e-09
6.4259e-11
6.77152e-09
6.34951e-11
6.72407e-09
6.28529e-11
6.677e-09
6.2415e-11
6.63002e-09
6.23983e-11
6.5824e-09
6.3383e-11
6.52836e-09
7.08509e-11
1.26977e-10
3.65062e-08
2.89632e-09
-3.63589e-08
3.65903e-08
3.32199e-09
3.65503e-08
3.53909e-09
3.63856e-08
3.62308e-09
3.61078e-08
3.62021e-09
3.57306e-08
3.5467e-09
3.52707e-08
3.4155e-09
3.47456e-08
3.24186e-09
3.41721e-08
3.04076e-09
3.35652e-08
2.8256e-09
3.2938e-08
2.60771e-09
3.23012e-08
2.39611e-09
3.16635e-08
2.19727e-09
3.10312e-08
2.01514e-09
3.04091e-08
1.85149e-09
2.98006e-08
1.70642e-09
2.92075e-08
1.57888e-09
2.86313e-08
1.46713e-09
2.80725e-08
1.36915e-09
2.75312e-08
1.2829e-09
2.70074e-08
1.2065e-09
2.65009e-08
1.13831e-09
2.60112e-08
1.07696e-09
2.55378e-08
1.02132e-09
2.50804e-08
9.70516e-10
2.46385e-08
9.2383e-10
2.42114e-08
8.80713e-10
2.37988e-08
8.40724e-10
2.34001e-08
8.03513e-10
2.30148e-08
7.68793e-10
2.26424e-08
7.36324e-10
2.22824e-08
7.05905e-10
2.19344e-08
6.77361e-10
2.15978e-08
6.50539e-10
2.12722e-08
6.25302e-10
2.09571e-08
6.01528e-10
2.06522e-08
5.79107e-10
2.0357e-08
5.57938e-10
2.00711e-08
5.3793e-10
1.97941e-08
5.19e-10
1.95256e-08
5.01072e-10
1.92653e-08
4.84077e-10
1.90128e-08
4.67951e-10
1.87678e-08
4.52636e-10
1.85301e-08
4.3808e-10
1.82992e-08
4.24232e-10
1.80749e-08
4.11048e-10
1.7857e-08
3.98487e-10
1.76452e-08
3.8651e-10
1.74391e-08
3.75083e-10
1.72387e-08
3.64173e-10
1.70437e-08
3.5375e-10
1.68538e-08
3.43786e-10
1.66689e-08
3.34254e-10
1.64888e-08
3.25131e-10
1.63133e-08
3.16395e-10
1.61421e-08
3.08023e-10
1.59752e-08
2.99998e-10
1.58124e-08
2.92299e-10
1.56536e-08
2.8491e-10
1.54985e-08
2.77816e-10
1.5347e-08
2.71e-10
1.51991e-08
2.64448e-10
1.50546e-08
2.58149e-10
1.49134e-08
2.52087e-10
1.47753e-08
2.46253e-10
1.46402e-08
2.40635e-10
1.45082e-08
2.35222e-10
1.43789e-08
2.30005e-10
1.42524e-08
2.24975e-10
1.41286e-08
2.20122e-10
1.40073e-08
2.15439e-10
1.38885e-08
2.10918e-10
1.37721e-08
2.06553e-10
1.36581e-08
2.02335e-10
1.35463e-08
1.9826e-10
1.34366e-08
1.94322e-10
1.33291e-08
1.90515e-10
1.32237e-08
1.86834e-10
1.31202e-08
1.83276e-10
1.30187e-08
1.79836e-10
1.2919e-08
1.76512e-10
1.28211e-08
1.73299e-10
1.2725e-08
1.70196e-10
1.26305e-08
1.67202e-10
1.25377e-08
1.64314e-10
1.24465e-08
1.61533e-10
1.23568e-08
1.58859e-10
1.22686e-08
1.56293e-10
1.21817e-08
1.53839e-10
1.20963e-08
1.51503e-10
1.20121e-08
1.49293e-10
1.19291e-08
1.47226e-10
1.18473e-08
1.45333e-10
1.17665e-08
1.4368e-10
1.16864e-08
1.42424e-10
1.16069e-08
1.4199e-10
1.15264e-08
1.43796e-10
1.14398e-08
1.5747e-10
2.1959e-10
3.80858e-08
2.70733e-09
-3.78968e-08
3.82946e-08
3.11317e-09
3.84693e-08
3.36439e-09
3.85901e-08
3.50227e-09
3.86502e-08
3.56015e-09
3.86454e-08
3.55147e-09
3.85755e-08
3.48542e-09
3.84437e-08
3.37361e-09
3.82559e-08
3.22861e-09
3.80191e-08
3.06236e-09
3.77412e-08
2.88557e-09
3.74301e-08
2.70724e-09
3.7093e-08
2.53434e-09
3.67365e-08
2.37169e-09
3.63659e-08
2.22207e-09
3.59857e-08
2.08664e-09
3.55993e-08
1.96529e-09
3.52093e-08
1.8571e-09
3.48178e-08
1.76071e-09
3.44261e-08
1.67459e-09
3.40353e-08
1.59723e-09
3.36464e-08
1.52724e-09
3.32599e-08
1.46344e-09
3.28764e-08
1.40483e-09
3.24963e-08
1.35061e-09
3.212e-08
1.30013e-09
3.17479e-08
1.25288e-09
3.13801e-08
1.20848e-09
3.1017e-08
1.16659e-09
3.06589e-08
1.12696e-09
3.03058e-08
1.0894e-09
2.9958e-08
1.05371e-09
2.96156e-08
1.01977e-09
2.92787e-08
9.8744e-10
2.89474e-08
9.5661e-10
2.86217e-08
9.27181e-10
2.83018e-08
8.99065e-10
2.79875e-08
8.72181e-10
2.7679e-08
8.46454e-10
2.73762e-08
8.21819e-10
2.7079e-08
7.98214e-10
2.67875e-08
7.7558e-10
2.65016e-08
7.53867e-10
2.62212e-08
7.33026e-10
2.59463e-08
7.13011e-10
2.56767e-08
6.93781e-10
2.54125e-08
6.75298e-10
2.51535e-08
6.57524e-10
2.48995e-08
6.40427e-10
2.46506e-08
6.23974e-10
2.44067e-08
6.08135e-10
2.41676e-08
5.92882e-10
2.39331e-08
5.78189e-10
2.37034e-08
5.64031e-10
2.34781e-08
5.50384e-10
2.32573e-08
5.37225e-10
2.30408e-08
5.24533e-10
2.28285e-08
5.12288e-10
2.26203e-08
5.00471e-10
2.24162e-08
4.89063e-10
2.22159e-08
4.78047e-10
2.20195e-08
4.67406e-10
2.18269e-08
4.57124e-10
2.16378e-08
4.47186e-10
2.14523e-08
4.37577e-10
2.12703e-08
4.28285e-10
2.10916e-08
4.19295e-10
2.09163e-08
4.10595e-10
2.07441e-08
4.02174e-10
2.0575e-08
3.9402e-10
2.0409e-08
3.86122e-10
2.0246e-08
3.7847e-10
2.00859e-08
3.71054e-10
1.99286e-08
3.63866e-10
1.9774e-08
3.56896e-10
1.96221e-08
3.50137e-10
1.94729e-08
3.43581e-10
1.93262e-08
3.37222e-10
1.91819e-08
3.31052e-10
1.90402e-08
3.25066e-10
1.89007e-08
3.1926e-10
1.87636e-08
3.13628e-10
1.86288e-08
3.08166e-10
1.84961e-08
3.02872e-10
1.83655e-08
2.97743e-10
1.82371e-08
2.92778e-10
1.81106e-08
2.87976e-10
1.79861e-08
2.83339e-10
1.78636e-08
2.7887e-10
1.77428e-08
2.74573e-10
1.76239e-08
2.70457e-10
1.75066e-08
2.66537e-10
1.7391e-08
2.62837e-10
1.7277e-08
2.59406e-10
1.71643e-08
2.56344e-10
1.70528e-08
2.53887e-10
1.69421e-08
2.52686e-10
1.6831e-08
2.54974e-10
1.67171e-08
2.71295e-10
3.26848e-10
3.96248e-08
2.53879e-09
-3.94562e-08
3.98327e-08
2.90522e-09
4.00412e-08
3.15589e-09
4.02318e-08
3.31166e-09
4.0396e-08
3.39597e-09
4.05268e-08
3.42069e-09
4.06188e-08
3.39344e-09
4.06692e-08
3.32318e-09
4.06777e-08
3.22006e-09
4.0646e-08
3.09411e-09
4.0577e-08
2.95454e-09
4.04749e-08
2.80941e-09
4.0344e-08
2.66522e-09
4.01888e-08
2.5268e-09
4.00137e-08
2.39727e-09
3.9822e-08
2.27828e-09
3.9617e-08
2.17033e-09
3.9401e-08
2.07308e-09
3.9176e-08
1.9857e-09
3.89435e-08
1.90709e-09
3.87047e-08
1.83606e-09
3.84604e-08
1.7715e-09
3.82115e-08
1.71237e-09
3.79585e-08
1.65783e-09
3.7702e-08
1.60713e-09
3.74424e-08
1.5597e-09
3.71802e-08
1.51507e-09
3.69158e-08
1.47286e-09
3.66496e-08
1.43277e-09
3.6382e-08
1.39459e-09
3.61133e-08
1.3581e-09
3.58438e-08
1.32317e-09
3.5574e-08
1.28966e-09
3.53039e-08
1.25746e-09
3.50341e-08
1.22648e-09
3.47646e-08
1.19664e-09
3.44958e-08
1.16787e-09
3.42279e-08
1.1401e-09
3.3961e-08
1.11328e-09
3.36955e-08
1.08736e-09
3.34314e-08
1.06229e-09
3.3169e-08
1.03803e-09
3.29083e-08
1.01454e-09
3.26495e-08
9.91783e-10
3.23928e-08
9.69734e-10
3.21382e-08
9.4836e-10
3.18859e-08
9.27633e-10
3.16359e-08
9.0753e-10
3.13883e-08
8.88026e-10
3.11432e-08
8.69099e-10
3.09006e-08
8.50729e-10
3.06606e-08
8.32896e-10
3.04232e-08
8.15581e-10
3.01884e-08
7.98766e-10
2.99564e-08
7.82435e-10
2.9727e-08
7.66571e-10
2.95004e-08
7.51159e-10
2.92765e-08
7.36185e-10
2.90554e-08
7.21632e-10
2.88369e-08
7.07489e-10
2.86212e-08
6.9374e-10
2.84083e-08
6.80374e-10
2.8198e-08
6.67377e-10
2.79905e-08
6.54738e-10
2.77856e-08
6.42445e-10
2.75834e-08
6.30486e-10
2.73838e-08
6.1885e-10
2.71869e-08
6.07527e-10
2.69926e-08
5.96506e-10
2.68008e-08
5.85778e-10
2.66116e-08
5.75332e-10
2.64249e-08
5.65161e-10
2.62407e-08
5.55254e-10
2.6059e-08
5.45605e-10
2.58797e-08
5.36204e-10
2.57028e-08
5.27045e-10
2.55282e-08
5.1812e-10
2.5356e-08
5.09423e-10
2.51861e-08
5.00949e-10
2.50185e-08
4.92691e-10
2.48531e-08
4.84646e-10
2.46899e-08
4.76808e-10
2.45289e-08
4.69176e-10
2.43701e-08
4.61746e-10
2.42133e-08
4.54518e-10
2.40586e-08
4.4749e-10
2.39059e-08
4.40665e-10
2.37552e-08
4.34044e-10
2.36064e-08
4.27633e-10
2.34595e-08
4.21441e-10
2.33145e-08
4.15479e-10
2.31713e-08
4.09768e-10
2.30298e-08
4.04343e-10
2.28899e-08
3.99269e-10
2.27516e-08
3.94676e-10
2.26146e-08
3.90873e-10
2.24786e-08
3.88675e-10
2.23429e-08
3.90661e-10
2.22085e-08
4.0577e-10
4.46558e-10
4.11998e-08
2.39399e-09
-4.1055e-08
4.13858e-08
2.71921e-09
4.15841e-08
2.9576e-09
4.17786e-08
3.11714e-09
4.19615e-08
3.21313e-09
4.21266e-08
3.2556e-09
4.22687e-08
3.25134e-09
4.23841e-08
3.20775e-09
4.24709e-08
3.13326e-09
4.25287e-08
3.03633e-09
4.25583e-08
2.9249e-09
4.25617e-08
2.80601e-09
4.25414e-08
2.68551e-09
4.25003e-08
2.56791e-09
4.24412e-08
2.45635e-09
4.23669e-08
2.35267e-09
4.22795e-08
2.25773e-09
4.2181e-08
2.17157e-09
4.20729e-08
2.09374e-09
4.19565e-08
2.02348e-09
4.18327e-08
1.95989e-09
4.17021e-08
1.90206e-09
4.15654e-08
1.84913e-09
4.14229e-08
1.80034e-09
4.1275e-08
1.75505e-09
4.1122e-08
1.71271e-09
4.09642e-08
1.67288e-09
4.08018e-08
1.6352e-09
4.06352e-08
1.5994e-09
4.04645e-08
1.56524e-09
4.02901e-08
1.53253e-09
4.01121e-08
1.50113e-09
3.99309e-08
1.47091e-09
3.97466e-08
1.44176e-09
3.95595e-08
1.4136e-09
3.93698e-08
1.38634e-09
3.91777e-08
1.35994e-09
3.89835e-08
1.33432e-09
3.87873e-08
1.30944e-09
3.85894e-08
1.28525e-09
3.839e-08
1.26172e-09
3.81892e-08
1.23881e-09
3.79873e-08
1.2165e-09
3.77843e-08
1.19474e-09
3.75805e-08
1.17352e-09
3.73761e-08
1.15282e-09
3.71711e-08
1.13262e-09
3.69657e-08
1.11289e-09
3.67601e-08
1.09363e-09
3.65544e-08
1.07481e-09
3.63487e-08
1.05643e-09
3.61431e-08
1.03846e-09
3.59378e-08
1.0209e-09
3.57328e-08
1.00374e-09
3.55283e-08
9.86963e-10
3.53243e-08
9.70561e-10
3.5121e-08
9.54523e-10
3.49183e-08
9.38841e-10
3.47164e-08
9.23505e-10
3.45154e-08
9.08506e-10
3.43153e-08
8.93836e-10
3.41162e-08
8.79487e-10
3.39181e-08
8.6545e-10
3.37212e-08
8.51717e-10
3.35253e-08
8.3828e-10
3.33307e-08
8.25132e-10
3.31373e-08
8.12266e-10
3.29451e-08
7.99674e-10
3.27543e-08
7.8735e-10
3.25648e-08
7.75285e-10
3.23766e-08
7.63475e-10
3.21899e-08
7.51911e-10
3.20045e-08
7.40589e-10
3.18206e-08
7.29503e-10
3.16382e-08
7.18646e-10
3.14572e-08
7.08013e-10
3.12777e-08
6.97601e-10
3.10998e-08
6.87404e-10
3.09233e-08
6.77419e-10
3.07483e-08
6.67642e-10
3.05749e-08
6.58071e-10
3.0403e-08
6.48704e-10
3.02326e-08
6.39538e-10
3.00638e-08
6.30575e-10
2.98965e-08
6.21815e-10
2.97308e-08
6.13261e-10
2.95665e-08
6.04914e-10
2.94038e-08
5.96783e-10
2.92425e-08
5.88874e-10
2.90828e-08
5.812e-10
2.89245e-08
5.73779e-10
2.87676e-08
5.66637e-10
2.86121e-08
5.59819e-10
2.8458e-08
5.53403e-10
2.83051e-08
5.47545e-10
2.81534e-08
5.42589e-10
2.80027e-08
5.39395e-10
2.7853e-08
5.40313e-10
2.77075e-08
5.51312e-10
5.73467e-10
4.28234e-08
2.26786e-09
-4.26973e-08
4.29876e-08
2.55498e-09
4.31683e-08
2.77699e-09
4.3351e-08
2.93435e-09
4.35283e-08
3.03589e-09
4.36945e-08
3.08934e-09
4.38453e-08
3.1006e-09
4.39771e-08
3.0759e-09
4.40881e-08
3.0223e-09
4.41774e-08
2.94705e-09
4.42453e-08
2.85704e-09
4.42928e-08
2.75845e-09
4.43218e-08
2.65656e-09
4.43342e-08
2.55551e-09
4.43322e-08
2.45835e-09
4.43178e-08
2.36702e-09
4.42929e-08
2.28259e-09
4.42591e-08
2.20539e-09
4.42176e-08
2.13527e-09
4.41693e-08
2.07175e-09
4.41151e-08
2.01416e-09
4.40553e-08
1.9618e-09
4.39905e-08
1.91396e-09
4.39209e-08
1.86997e-09
4.38466e-08
1.82928e-09
4.37679e-08
1.79138e-09
4.3685e-08
1.75587e-09
4.35978e-08
1.7224e-09
4.35065e-08
1.6907e-09
4.34111e-08
1.66054e-09
4.33119e-08
1.63173e-09
4.3209e-08
1.60412e-09
4.31023e-08
1.57758e-09
4.2992e-08
1.552e-09
4.28784e-08
1.52729e-09
4.27613e-08
1.50338e-09
4.26411e-08
1.48019e-09
4.25177e-08
1.45768e-09
4.23914e-08
1.43578e-09
4.22622e-08
1.41445e-09
4.21302e-08
1.39366e-09
4.19957e-08
1.37337e-09
4.18586e-08
1.35355e-09
4.17192e-08
1.33417e-09
4.15775e-08
1.31522e-09
4.14337e-08
1.29666e-09
4.12878e-08
1.27848e-09
4.114e-08
1.26067e-09
4.09904e-08
1.24321e-09
4.08392e-08
1.22609e-09
4.06863e-08
1.20929e-09
4.05319e-08
1.19281e-09
4.03762e-08
1.17663e-09
4.02192e-08
1.16074e-09
4.0061e-08
1.14514e-09
3.99018e-08
1.12982e-09
3.97415e-08
1.11478e-09
3.95804e-08
1.09999e-09
3.94184e-08
1.08547e-09
3.92557e-08
1.0712e-09
3.90924e-08
1.05717e-09
3.89285e-08
1.04339e-09
3.87641e-08
1.02983e-09
3.85993e-08
1.01651e-09
3.84342e-08
1.00342e-09
3.82688e-08
9.90537e-10
3.81032e-08
9.77872e-10
3.79374e-08
9.65417e-10
3.77716e-08
9.53166e-10
3.76058e-08
9.41115e-10
3.744e-08
9.2926e-10
3.72743e-08
9.17597e-10
3.71088e-08
9.06121e-10
3.69434e-08
8.94828e-10
3.67784e-08
8.83717e-10
3.66136e-08
8.72783e-10
3.64492e-08
8.62023e-10
3.62851e-08
8.51437e-10
3.61215e-08
8.41021e-10
3.59584e-08
8.30774e-10
3.57958e-08
8.20696e-10
3.56337e-08
8.10788e-10
3.54722e-08
8.0105e-10
3.53113e-08
7.91484e-10
3.5151e-08
7.82093e-10
3.49914e-08
7.72883e-10
3.48324e-08
7.6386e-10
3.46742e-08
7.55033e-10
3.45167e-08
7.46413e-10
3.43598e-08
7.38018e-10
3.42037e-08
7.29869e-10
3.40484e-08
7.21999e-10
3.38937e-08
7.1446e-10
3.37398e-08
7.07339e-10
3.35865e-08
7.00801e-10
3.3434e-08
6.95187e-10
3.32821e-08
6.91253e-10
3.31317e-08
6.90688e-10
3.29869e-08
6.9616e-10
7.00011e-10
4.44985e-08
2.15586e-09
-4.43865e-08
4.46441e-08
2.40932e-09
4.48074e-08
2.61374e-09
4.49759e-08
2.76578e-09
4.51422e-08
2.8696e-09
4.5301e-08
2.93055e-09
4.54481e-08
2.95349e-09
4.55804e-08
2.9436e-09
4.5696e-08
2.90676e-09
4.57939e-08
2.84912e-09
4.58743e-08
2.77666e-09
4.59379e-08
2.69483e-09
4.59861e-08
2.60834e-09
4.60206e-08
2.52102e-09
4.60431e-08
2.43578e-09
4.60556e-08
2.35461e-09
4.60594e-08
2.27872e-09
4.60561e-08
2.20867e-09
4.60469e-08
2.14456e-09
4.60325e-08
2.08613e-09
4.60137e-08
2.03296e-09
4.5991e-08
1.98451e-09
4.59647e-08
1.94022e-09
4.59351e-08
1.89955e-09
4.59024e-08
1.86201e-09
4.58666e-08
1.82717e-09
4.58279e-08
1.79464e-09
4.57861e-08
1.76412e-09
4.57415e-08
1.73534e-09
4.5694e-08
1.70807e-09
4.56436e-08
1.68214e-09
4.55903e-08
1.65739e-09
4.55342e-08
1.63369e-09
4.54753e-08
1.61093e-09
4.54135e-08
1.58902e-09
4.5349e-08
1.56788e-09
4.52818e-08
1.54744e-09
4.52118e-08
1.52763e-09
4.51392e-08
1.50841e-09
4.50639e-08
1.48972e-09
4.49861e-08
1.47153e-09
4.49056e-08
1.4538e-09
4.48227e-08
1.43649e-09
4.47373e-08
1.41958e-09
4.46495e-08
1.40304e-09
4.45593e-08
1.38686e-09
4.44667e-08
1.371e-09
4.4372e-08
1.35546e-09
4.4275e-08
1.34021e-09
4.41758e-08
1.32524e-09
4.40746e-08
1.31054e-09
4.39713e-08
1.2961e-09
4.3866e-08
1.28191e-09
4.37588e-08
1.26795e-09
4.36497e-08
1.25422e-09
4.35388e-08
1.24071e-09
4.34262e-08
1.22741e-09
4.33119e-08
1.21432e-09
4.31959e-08
1.20142e-09
4.30784e-08
1.18872e-09
4.29594e-08
1.17621e-09
4.28389e-08
1.16387e-09
4.2717e-08
1.15171e-09
4.25938e-08
1.13973e-09
4.24693e-08
1.1279e-09
4.23436e-08
1.11624e-09
4.22167e-08
1.10474e-09
4.20887e-08
1.09339e-09
4.19597e-08
1.08219e-09
4.18297e-08
1.07113e-09
4.16987e-08
1.06021e-09
4.15669e-08
1.04943e-09
4.14342e-08
1.03879e-09
4.13008e-08
1.02827e-09
4.11666e-08
1.01789e-09
4.10318e-08
1.00763e-09
4.08963e-08
9.97501e-10
4.07602e-08
9.87493e-10
4.06237e-08
9.77608e-10
4.04866e-08
9.67846e-10
4.03491e-08
9.58209e-10
4.02112e-08
9.48697e-10
4.00729e-08
9.39312e-10
3.99343e-08
9.3006e-10
3.97955e-08
9.20945e-10
3.96564e-08
9.11973e-10
3.95171e-08
9.03154e-10
3.93776e-08
8.94498e-10
3.9238e-08
8.86021e-10
3.90983e-08
8.77742e-10
3.89585e-08
8.69687e-10
3.88186e-08
8.61894e-10
3.86786e-08
8.54417e-10
3.85386e-08
8.47346e-10
3.83986e-08
8.40838e-10
3.82586e-08
8.35183e-10
3.81189e-08
8.30924e-10
3.79807e-08
8.28904e-10
3.78479e-08
8.28931e-10
8.18183e-10
4.62267e-08
2.05473e-09
-4.61256e-08
4.6357e-08
2.27907e-09
4.65046e-08
2.46613e-09
4.66593e-08
2.61103e-09
4.68141e-08
2.71488e-09
4.69636e-08
2.78099e-09
4.7104e-08
2.81308e-09
4.72323e-08
2.81535e-09
4.73464e-08
2.79263e-09
4.74455e-08
2.75009e-09
4.75293e-08
2.69285e-09
4.75984e-08
2.62567e-09
4.7654e-08
2.55275e-09
4.76975e-08
2.47759e-09
4.77303e-08
2.40294e-09
4.77541e-08
2.33079e-09
4.77704e-08
2.26243e-09
4.77805e-08
2.1986e-09
4.77855e-08
2.13959e-09
4.77862e-08
2.08536e-09
4.77835e-08
2.03569e-09
4.77778e-08
1.9902e-09
4.77695e-08
1.94847e-09
4.7759e-08
1.91009e-09
4.77464e-08
1.87464e-09
4.77318e-08
1.84175e-09
4.77153e-08
1.8111e-09
4.7697e-08
1.7824e-09
4.7677e-08
1.75541e-09
4.76551e-08
1.72992e-09
4.76315e-08
1.70577e-09
4.76061e-08
1.6828e-09
4.75789e-08
1.66089e-09
4.75499e-08
1.63993e-09
4.75191e-08
1.61982e-09
4.74865e-08
1.6005e-09
4.7452e-08
1.58188e-09
4.74157e-08
1.56391e-09
4.73776e-08
1.54654e-09
4.73376e-08
1.5297e-09
4.72958e-08
1.51337e-09
4.72521e-08
1.49751e-09
4.72065e-08
1.48208e-09
4.7159e-08
1.46704e-09
4.71097e-08
1.45239e-09
4.70585e-08
1.43808e-09
4.70054e-08
1.4241e-09
4.69504e-08
1.41042e-09
4.68936e-08
1.39704e-09
4.68349e-08
1.38393e-09
4.67743e-08
1.37108e-09
4.6712e-08
1.35848e-09
4.66477e-08
1.34611e-09
4.65817e-08
1.33397e-09
4.65139e-08
1.32203e-09
4.64443e-08
1.3103e-09
4.6373e-08
1.29877e-09
4.62999e-08
1.28742e-09
4.6225e-08
1.27624e-09
4.61485e-08
1.26524e-09
4.60703e-08
1.2544e-09
4.59905e-08
1.24372e-09
4.5909e-08
1.23319e-09
4.58259e-08
1.2228e-09
4.57413e-08
1.21255e-09
4.56551e-08
1.20243e-09
4.55674e-08
1.19244e-09
4.54782e-08
1.18257e-09
4.53876e-08
1.17282e-09
4.52955e-08
1.16319e-09
4.52021e-08
1.15366e-09
4.51073e-08
1.14423e-09
4.50111e-08
1.13491e-09
4.49137e-08
1.12569e-09
4.48151e-08
1.11656e-09
4.47152e-08
1.10753e-09
4.46141e-08
1.09858e-09
4.45118e-08
1.08973e-09
4.44085e-08
1.08096e-09
4.43041e-08
1.07229e-09
4.41986e-08
1.0637e-09
4.40921e-08
1.05521e-09
4.39846e-08
1.04681e-09
4.38761e-08
1.03851e-09
4.37667e-08
1.03031e-09
4.36565e-08
1.02223e-09
4.35454e-08
1.01427e-09
4.34334e-08
1.00644e-09
4.33207e-08
9.98768e-10
4.32072e-08
9.91268e-10
4.30929e-08
9.83969e-10
4.29779e-08
9.76911e-10
4.28621e-08
9.70148e-10
4.27457e-08
9.63764e-10
4.26287e-08
9.57892e-10
4.25111e-08
9.52741e-10
4.23934e-08
9.4859e-10
4.22769e-08
9.45482e-10
4.21645e-08
9.41262e-10
9.21471e-10
4.80103e-08
1.96219e-09
-4.79177e-08
4.81277e-08
2.16159e-09
4.82616e-08
2.33227e-09
4.84035e-08
2.46911e-09
4.8547e-08
2.57138e-09
4.86872e-08
2.64079e-09
4.88203e-08
2.68e-09
4.89433e-08
2.69233e-09
4.90543e-08
2.68167e-09
4.91521e-08
2.65228e-09
4.92364e-08
2.60852e-09
4.93076e-08
2.5545e-09
4.93664e-08
2.49392e-09
4.9414e-08
2.42996e-09
4.94518e-08
2.36516e-09
4.94811e-08
2.30146e-09
4.95033e-08
2.24022e-09
4.95197e-08
2.18228e-09
4.95312e-08
2.12808e-09
4.95388e-08
2.07778e-09
4.95431e-08
2.0313e-09
4.95449e-08
1.98842e-09
4.95445e-08
1.94887e-09
4.95423e-08
1.91231e-09
4.95385e-08
1.87845e-09
4.95333e-08
1.84696e-09
4.95268e-08
1.81758e-09
4.95192e-08
1.79005e-09
4.95104e-08
1.76418e-09
4.95005e-08
1.73976e-09
4.94897e-08
1.71665e-09
4.94778e-08
1.6947e-09
4.94648e-08
1.67381e-09
4.94509e-08
1.65386e-09
4.94359e-08
1.63478e-09
4.942e-08
1.61648e-09
4.9403e-08
1.59889e-09
4.93849e-08
1.58197e-09
4.93658e-08
1.56566e-09
4.93456e-08
1.5499e-09
4.93243e-08
1.53467e-09
4.93019e-08
1.51992e-09
4.92783e-08
1.50562e-09
4.92536e-08
1.49174e-09
4.92278e-08
1.47825e-09
4.92007e-08
1.46513e-09
4.91724e-08
1.45236e-09
4.91429e-08
1.43991e-09
4.91122e-08
1.42778e-09
4.90802e-08
1.41593e-09
4.90469e-08
1.40436e-09
4.90124e-08
1.39305e-09
4.89765e-08
1.38199e-09
4.89393e-08
1.37116e-09
4.89008e-08
1.36056e-09
4.88609e-08
1.35018e-09
4.88197e-08
1.34e-09
4.87771e-08
1.33001e-09
4.87331e-08
1.32021e-09
4.86878e-08
1.31058e-09
4.86411e-08
1.30112e-09
4.85929e-08
1.29183e-09
4.85435e-08
1.28268e-09
4.84926e-08
1.27368e-09
4.84403e-08
1.26482e-09
4.83866e-08
1.2561e-09
4.83316e-08
1.24749e-09
4.82751e-08
1.23901e-09
4.82173e-08
1.23064e-09
4.81581e-08
1.22238e-09
4.80976e-08
1.21422e-09
4.80356e-08
1.20616e-09
4.79724e-08
1.19819e-09
4.79077e-08
1.19032e-09
4.78418e-08
1.18252e-09
4.77745e-08
1.17481e-09
4.77059e-08
1.16718e-09
4.7636e-08
1.15962e-09
4.75648e-08
1.15215e-09
4.74924e-08
1.14474e-09
4.74186e-08
1.13741e-09
4.73437e-08
1.13016e-09
4.72675e-08
1.12299e-09
4.71901e-08
1.11591e-09
4.71115e-08
1.10891e-09
4.70317e-08
1.10202e-09
4.69507e-08
1.09523e-09
4.68686e-08
1.08856e-09
4.67854e-08
1.08203e-09
4.6701e-08
1.07566e-09
4.66154e-08
1.06948e-09
4.65288e-08
1.06353e-09
4.64411e-08
1.05786e-09
4.63523e-08
1.05254e-09
4.62626e-08
1.04766e-09
4.6172e-08
1.04336e-09
4.60809e-08
1.03964e-09
4.59904e-08
1.03597e-09
4.59025e-08
1.02923e-09
1.00611e-09
4.98513e-08
1.87666e-09
-4.97658e-08
4.99581e-08
2.05478e-09
5.008e-08
2.21045e-09
5.02102e-08
2.33891e-09
5.03431e-08
2.43848e-09
5.04741e-08
2.5097e-09
5.05998e-08
2.55435e-09
5.07172e-08
2.57492e-09
5.08244e-08
2.5745e-09
5.09201e-08
2.55658e-09
5.10038e-08
2.52479e-09
5.10757e-08
2.48264e-09
5.11362e-08
2.43337e-09
5.11864e-08
2.37982e-09
5.12272e-08
2.32432e-09
5.12599e-08
2.26874e-09
5.12857e-08
2.21441e-09
5.13058e-08
2.16227e-09
5.1321e-08
2.11288e-09
5.13322e-08
2.06651e-09
5.13403e-08
2.02323e-09
5.13458e-08
1.98296e-09
5.13491e-08
1.94554e-09
5.13507e-08
1.91074e-09
5.13508e-08
1.87834e-09
5.13496e-08
1.84809e-09
5.13474e-08
1.81977e-09
5.13443e-08
1.79318e-09
5.13404e-08
1.76813e-09
5.13357e-08
1.74446e-09
5.13303e-08
1.72204e-09
5.13242e-08
1.70074e-09
5.13176e-08
1.68045e-09
5.13104e-08
1.66109e-09
5.13026e-08
1.64257e-09
5.12942e-08
1.62483e-09
5.12853e-08
1.60779e-09
5.12759e-08
1.59141e-09
5.12659e-08
1.57564e-09
5.12554e-08
1.56044e-09
5.12443e-08
1.54576e-09
5.12326e-08
1.53158e-09
5.12204e-08
1.51785e-09
5.12076e-08
1.50457e-09
5.11941e-08
1.49168e-09
5.11801e-08
1.47919e-09
5.11654e-08
1.46706e-09
5.115e-08
1.45527e-09
5.1134e-08
1.44381e-09
5.11172e-08
1.43266e-09
5.10998e-08
1.42181e-09
5.10816e-08
1.41124e-09
5.10626e-08
1.40094e-09
5.10429e-08
1.3909e-09
5.10224e-08
1.3811e-09
5.1001e-08
1.37154e-09
5.09788e-08
1.3622e-09
5.09557e-08
1.35308e-09
5.09318e-08
1.34416e-09
5.09069e-08
1.33543e-09
5.08812e-08
1.3269e-09
5.08544e-08
1.31854e-09
5.08268e-08
1.31035e-09
5.07981e-08
1.30233e-09
5.07685e-08
1.29446e-09
5.07379e-08
1.28673e-09
5.07062e-08
1.27915e-09
5.06735e-08
1.2717e-09
5.06398e-08
1.26438e-09
5.0605e-08
1.25718e-09
5.05691e-08
1.25009e-09
5.05322e-08
1.24311e-09
5.04941e-08
1.23624e-09
5.0455e-08
1.22946e-09
5.04147e-08
1.22278e-09
5.03733e-08
1.21619e-09
5.03308e-08
1.20968e-09
5.02872e-08
1.20326e-09
5.02424e-08
1.19692e-09
5.01965e-08
1.19066e-09
5.01495e-08
1.18448e-09
5.01012e-08
1.17838e-09
5.00519e-08
1.17236e-09
5.00013e-08
1.16644e-09
4.99497e-08
1.1606e-09
4.98968e-08
1.15487e-09
4.98428e-08
1.14925e-09
4.97876e-08
1.14375e-09
4.97312e-08
1.1384e-09
4.96737e-08
1.13321e-09
4.9615e-08
1.12821e-09
4.95551e-08
1.12343e-09
4.9494e-08
1.11893e-09
4.94318e-08
1.11476e-09
4.93684e-08
1.11098e-09
4.93042e-08
1.10762e-09
4.92393e-08
1.10452e-09
4.91745e-08
1.1008e-09
4.91105e-08
1.09324e-09
1.07135e-09
5.17524e-08
1.797e-09
-5.16727e-08
5.18501e-08
1.95699e-09
5.19614e-08
2.09916e-09
5.2081e-08
2.21936e-09
5.2204e-08
2.3155e-09
5.23263e-08
2.38738e-09
5.24446e-08
2.43602e-09
5.25563e-08
2.46325e-09
5.26593e-08
2.47146e-09
5.27524e-08
2.46346e-09
5.2835e-08
2.44224e-09
5.29069e-08
2.41076e-09
5.29684e-08
2.37183e-09
5.30203e-08
2.32795e-09
5.30634e-08
2.28124e-09
5.30986e-08
2.23344e-09
5.31272e-08
2.18588e-09
5.315e-08
2.1395e-09
5.31679e-08
2.09495e-09
5.31818e-08
2.05261e-09
5.31924e-08
2.01265e-09
5.32002e-08
1.97512e-09
5.32058e-08
1.93994e-09
5.32096e-08
1.90699e-09
5.32118e-08
1.87612e-09
5.32127e-08
1.84714e-09
5.32126e-08
1.81989e-09
5.32116e-08
1.7942e-09
5.32098e-08
1.76993e-09
5.32073e-08
1.74693e-09
5.32043e-08
1.72509e-09
5.32007e-08
1.70431e-09
5.31967e-08
1.68448e-09
5.31923e-08
1.66552e-09
5.31875e-08
1.64738e-09
5.31823e-08
1.62997e-09
5.31768e-08
1.61325e-09
5.31711e-08
1.59717e-09
5.3165e-08
1.58168e-09
5.31587e-08
1.56675e-09
5.31522e-08
1.55234e-09
5.31453e-08
1.53841e-09
5.31382e-08
1.52495e-09
5.31309e-08
1.51192e-09
5.31233e-08
1.4993e-09
5.31154e-08
1.48708e-09
5.31072e-08
1.47523e-09
5.30987e-08
1.46373e-09
5.309e-08
1.45257e-09
5.30809e-08
1.44173e-09
5.30715e-08
1.43121e-09
5.30618e-08
1.42098e-09
5.30517e-08
1.41103e-09
5.30412e-08
1.40136e-09
5.30304e-08
1.39195e-09
5.30191e-08
1.3828e-09
5.30074e-08
1.37388e-09
5.29953e-08
1.3652e-09
5.29827e-08
1.35674e-09
5.29697e-08
1.3485e-09
5.29561e-08
1.34046e-09
5.2942e-08
1.33263e-09
5.29274e-08
1.32498e-09
5.29122e-08
1.31751e-09
5.28964e-08
1.31022e-09
5.28801e-08
1.3031e-09
5.28631e-08
1.29613e-09
5.28455e-08
1.28932e-09
5.28272e-08
1.28266e-09
5.28082e-08
1.27613e-09
5.27886e-08
1.26974e-09
5.27682e-08
1.26348e-09
5.27471e-08
1.25733e-09
5.27253e-08
1.25131e-09
5.27027e-08
1.24539e-09
5.26793e-08
1.23958e-09
5.26551e-08
1.23388e-09
5.26301e-08
1.22828e-09
5.26042e-08
1.22277e-09
5.25775e-08
1.21736e-09
5.25499e-08
1.21205e-09
5.25215e-08
1.20684e-09
5.24921e-08
1.20172e-09
5.24618e-08
1.19671e-09
5.24306e-08
1.19181e-09
5.23984e-08
1.18703e-09
5.23653e-08
1.18237e-09
5.23312e-08
1.17785e-09
5.22961e-08
1.17349e-09
5.226e-08
1.16931e-09
5.22229e-08
1.16533e-09
5.21847e-08
1.16159e-09
5.21455e-08
1.15813e-09
5.21053e-08
1.15499e-09
5.20641e-08
1.15219e-09
5.2022e-08
1.1497e-09
5.19793e-08
1.14724e-09
5.19363e-08
1.14386e-09
5.18927e-08
1.13679e-09
1.11893e-09
5.37159e-08
1.72241e-09
-5.36414e-08
5.3806e-08
1.86694e-09
5.3908e-08
1.99712e-09
5.4018e-08
2.10943e-09
5.41317e-08
2.20175e-09
5.42457e-08
2.27339e-09
5.43569e-08
2.32485e-09
5.44627e-08
2.35737e-09
5.45614e-08
2.37279e-09
5.46516e-08
2.3733e-09
5.47325e-08
2.36134e-09
5.48038e-08
2.3394e-09
5.48658e-08
2.30986e-09
5.49188e-08
2.27491e-09
5.49636e-08
2.23645e-09
5.5001e-08
2.19609e-09
5.50318e-08
2.15508e-09
5.50569e-08
2.11439e-09
5.50771e-08
2.0747e-09
5.50933e-08
2.03648e-09
5.5106e-08
1.99997e-09
5.51158e-08
1.96531e-09
5.51232e-08
1.93253e-09
5.51286e-08
1.90157e-09
5.51324e-08
1.87235e-09