/*--------------------------------*- C++ -*----------------------------------*\
| =========                 |                                                 |
| \\      /  F ield         | OpenFOAM: The Open Source CFD Toolbox           |
|  \\    /   O peration     | Version:  2.3.0                                 |
|   \\  /    A nd           | Web:      www.OpenFOAM.org                      |
|    \\/     M anipulation  |                                                 |
\*---------------------------------------------------------------------------*/
FoamFile
{
    version     2.0;
    format      ascii;
    class       volVectorField;
    location    "0.8";
    object      U_0;
}
// * * * * * * * * * * * * * * * * * * * * * * * * * * * * * * * * * * * * * //

dimensions      [0 1 -1 0 0 0 0];

internalField   nonuniform List<vector> 
2889
(
(0.173575 0.00566419 0)
(0.156962 0.00590269 0)
(0.141231 0.00557703 0)
(0.126263 0.00501885 0)
(0.112434 0.00438005 0)
(0.0999632 0.0037237 0)
(0.0888929 0.00308813 0)
(0.0791949 0.00250014 0)
(0.0708162 0.00197666 0)
(0.0636768 0.00152664 0)
(0.057669 0.00115272 0)
(0.0526642 0.000852299 0)
(0.0485244 0.000618735 0)
(0.045112 0.000442845 0)
(0.0422971 0.000314426 0)
(0.0399632 0.000223477 0)
(0.0380097 0.000160995 0)
(0.0363535 0.000119369 0)
(0.034928 9.24796e-05 0)
(0.0336812 7.56094e-05 0)
(0.0325735 6.52685e-05 0)
(0.0315757 5.89799e-05 0)
(0.030666 5.50623e-05 0)
(0.0298286 5.24303e-05 0)
(0.029052 5.0423e-05 0)
(0.0283277 4.86665e-05 0)
(0.027649 4.69711e-05 0)
(0.0270111 4.52575e-05 0)
(0.0264098 4.35075e-05 0)
(0.0258419 4.17326e-05 0)
(0.0253044 3.99559e-05 0)
(0.0247949 3.82016e-05 0)
(0.0243111 3.64904e-05 0)
(0.0238511 3.48379e-05 0)
(0.0234131 3.32544e-05 0)
(0.0229954 3.17459e-05 0)
(0.0225966 3.03148e-05 0)
(0.0222154 2.8961e-05 0)
(0.0218505 2.76827e-05 0)
(0.0215009 2.64769e-05 0)
(0.0211654 2.534e-05 0)
(0.0208433 2.42683e-05 0)
(0.0205337 2.32577e-05 0)
(0.0202358 2.23043e-05 0)
(0.0199489 2.14045e-05 0)
(0.0196724 2.05547e-05 0)
(0.0194057 1.97516e-05 0)
(0.0191482 1.89921e-05 0)
(0.0188994 1.82733e-05 0)
(0.0186588 1.75926e-05 0)
(0.0184261 1.69475e-05 0)
(0.0182007 1.63357e-05 0)
(0.0179824 1.57551e-05 0)
(0.0177708 1.52039e-05 0)
(0.0175655 1.468e-05 0)
(0.0173662 1.4182e-05 0)
(0.0171727 1.37081e-05 0)
(0.0169847 1.3257e-05 0)
(0.0168019 1.28274e-05 0)
(0.0166241 1.24178e-05 0)
(0.0164511 1.20273e-05 0)
(0.0162826 1.16546e-05 0)
(0.0161185 1.12989e-05 0)
(0.0159585 1.0959e-05 0)
(0.0158025 1.06343e-05 0)
(0.0156504 1.03237e-05 0)
(0.0155019 1.00267e-05 0)
(0.0153569 9.7424e-06 0)
(0.0152153 9.47025e-06 0)
(0.0150769 9.20959e-06 0)
(0.0149417 8.95983e-06 0)
(0.0148094 8.72055e-06 0)
(0.01468 8.49116e-06 0)
(0.0145533 8.27127e-06 0)
(0.0144294 8.06044e-06 0)
(0.0143079 7.85833e-06 0)
(0.0141889 7.66458e-06 0)
(0.0140723 7.47889e-06 0)
(0.013958 7.30097e-06 0)
(0.0138458 7.13059e-06 0)
(0.0137358 6.96755e-06 0)
(0.0136278 6.81167e-06 0)
(0.0135217 6.66279e-06 0)
(0.0134175 6.52079e-06 0)
(0.013315 6.38564e-06 0)
(0.0132143 6.25728e-06 0)
(0.0131152 6.13571e-06 0)
(0.0130177 6.02101e-06 0)
(0.0129216 5.91335e-06 0)
(0.0128269 5.81298e-06 0)
(0.0127335 5.72035e-06 0)
(0.0126413 5.63622e-06 0)
(0.0125502 5.56199e-06 0)
(0.0124601 5.50023e-06 0)
(0.0123708 5.45633e-06 0)
(0.0122821 5.44285e-06 0)
(0.0121933 5.49735e-06 0)
(0.0121029 5.63965e-06 0)
(0.012026 5.13582e-06 0)
(0.0117773 3.46854e-05 0)
(0.192743 0.00906228 0)
(0.190446 0.00979758 0)
(0.186686 0.00969147 0)
(0.181674 0.00923629 0)
(0.175862 0.00862736 0)
(0.169616 0.00792545 0)
(0.163172 0.00716825 0)
(0.156698 0.00639039 0)
(0.150329 0.00562161 0)
(0.144165 0.00488636 0)
(0.138278 0.00420384 0)
(0.132711 0.00358765 0)
(0.127485 0.00304541 0)
(0.122605 0.00257918 0)
(0.118067 0.00218632 0)
(0.113856 0.00186082 0)
(0.109954 0.00159458 0)
(0.106338 0.00137864 0)
(0.102986 0.00120415 0)
(0.0998756 0.00106298 0)
(0.096984 0.000948092 0)
(0.0942911 0.000853684 0)
(0.0917778 0.000775118 0)
(0.089427 0.000708804 0)
(0.0872233 0.000652021 0)
(0.0851528 0.000602736 0)
(0.0832032 0.000559445 0)
(0.0813638 0.000521032 0)
(0.0796248 0.000486665 0)
(0.0779776 0.000455713 0)
(0.0764147 0.000427689 0)
(0.0749294 0.000402205 0)
(0.0735154 0.000378948 0)
(0.0721674 0.000357658 0)
(0.0708806 0.000338113 0)
(0.0696506 0.000320126 0)
(0.0684733 0.000303531 0)
(0.0673453 0.000288186 0)
(0.0662632 0.000273966 0)
(0.0652242 0.000260761 0)
(0.0642255 0.000248473 0)
(0.0632646 0.000237017 0)
(0.0623394 0.000226317 0)
(0.0614477 0.000216307 0)
(0.0605876 0.000206926 0)
(0.0597574 0.000198123 0)
(0.0589554 0.00018985 0)
(0.0581802 0.000182066 0)
(0.0574303 0.000174731 0)
(0.0567044 0.000167812 0)
(0.0560014 0.000161279 0)
(0.05532 0.000155103 0)
(0.0546593 0.00014926 0)
(0.0540183 0.000143725 0)
(0.053396 0.000138479 0)
(0.0527915 0.000133502 0)
(0.0522041 0.000128776 0)
(0.051633 0.000124286 0)
(0.0510774 0.000120015 0)
(0.0505367 0.000115951 0)
(0.0500103 0.000112081 0)
(0.0494975 0.000108392 0)
(0.0489978 0.000104874 0)
(0.0485106 0.000101517 0)
(0.0480354 9.8312e-05 0)
(0.0475718 9.52495e-05 0)
(0.0471192 9.23217e-05 0)
(0.0466774 8.9521e-05 0)
(0.0462457 8.68406e-05 0)
(0.0458239 8.42739e-05 0)
(0.0454116 8.18148e-05 0)
(0.0450084 7.94579e-05 0)
(0.044614 7.71979e-05 0)
(0.0442281 7.503e-05 0)
(0.0438503 7.29497e-05 0)
(0.0434805 7.09528e-05 0)
(0.0431182 6.90357e-05 0)
(0.0427633 6.71947e-05 0)
(0.0424154 6.54267e-05 0)
(0.0420744 6.37288e-05 0)
(0.0417399 6.20984e-05 0)
(0.0414118 6.0533e-05 0)
(0.0410899 5.90306e-05 0)
(0.0407739 5.75894e-05 0)
(0.0404635 5.6208e-05 0)
(0.0401587 5.4885e-05 0)
(0.0398591 5.36196e-05 0)
(0.0395646 5.24115e-05 0)
(0.0392749 5.12606e-05 0)
(0.0389899 5.01678e-05 0)
(0.0387093 4.91347e-05 0)
(0.0384328 4.81652e-05 0)
(0.0381602 4.7266e-05 0)
(0.0378913 4.64511e-05 0)
(0.0376255 4.57504e-05 0)
(0.0373624 4.52373e-05 0)
(0.0371008 4.51094e-05 0)
(0.0368373 4.58472e-05 0)
(0.0365899 5.12366e-05 0)
(0.0360867 0.000120631 0)
(0.195702 0.00869944 0)
(0.196503 0.00980732 0)
(0.196751 0.010244 0)
(0.196228 0.0102972 0)
(0.195009 0.0101089 0)
(0.193215 0.00972971 0)
(0.19094 0.00920194 0)
(0.188271 0.00857322 0)
(0.185299 0.00788871 0)
(0.182109 0.00718712 0)
(0.178776 0.00649972 0)
(0.175367 0.0058499 0)
(0.171931 0.00525301 0)
(0.16851 0.00471703 0)
(0.165132 0.00424387 0)
(0.16182 0.003831 0)
(0.158587 0.00347311 0)
(0.155443 0.00316353 0)
(0.152391 0.0028953 0)
(0.149433 0.00266182 0)
(0.14657 0.0024573 0)
(0.143801 0.00227683 0)
(0.141124 0.0021164 0)
(0.138536 0.00197277 0)
(0.136035 0.0018434 0)
(0.133618 0.00172623 0)
(0.131283 0.00161964 0)
(0.129027 0.00152231 0)
(0.126847 0.00143317 0)
(0.124741 0.00135131 0)
(0.122705 0.00127597 0)
(0.120737 0.00120648 0)
(0.118834 0.00114227 0)
(0.116995 0.00108285 0)
(0.115216 0.00102775 0)
(0.113494 0.000976574 0)
(0.111829 0.000928975 0)
(0.110216 0.00088463 0)
(0.108655 0.000843252 0)
(0.107142 0.000804586 0)
(0.105677 0.000768402 0)
(0.104256 0.000734493 0)
(0.102878 0.000702672 0)
(0.101541 0.000672774 0)
(0.100244 0.000644646 0)
(0.098985 0.000618154 0)
(0.097762 0.000593173 0)
(0.0965738 0.000569592 0)
(0.095419 0.00054731 0)
(0.0942962 0.000526235 0)
(0.0932041 0.000506282 0)
(0.0921416 0.000487375 0)
(0.0911073 0.000469444 0)
(0.0901003 0.000452424 0)
(0.0891194 0.000436256 0)
(0.0881637 0.000420886 0)
(0.0872321 0.000406264 0)
(0.0863238 0.000392343 0)
(0.0854379 0.000379081 0)
(0.0845735 0.000366437 0)
(0.0837299 0.000354375 0)
(0.0829063 0.000342862 0)
(0.0821019 0.000331864 0)
(0.0813161 0.000321353 0)
(0.0805482 0.000311302 0)
(0.0797976 0.000301685 0)
(0.0790637 0.000292477 0)
(0.0783459 0.000283657 0)
(0.0776436 0.000275204 0)
(0.0769564 0.000267098 0)
(0.0762837 0.000259322 0)
(0.075625 0.000251859 0)
(0.07498 0.000244693 0)
(0.0743481 0.000237809 0)
(0.0737289 0.000231193 0)
(0.073122 0.000224834 0)
(0.072527 0.000218719 0)
(0.0719436 0.000212838 0)
(0.0713714 0.00020718 0)
(0.0708101 0.000201736 0)
(0.0702592 0.000196498 0)
(0.0697186 0.000191458 0)
(0.0691877 0.00018661 0)
(0.0686665 0.000181947 0)
(0.0681545 0.000177465 0)
(0.0676514 0.000173158 0)
(0.067157 0.000169023 0)
(0.0666709 0.000165059 0)
(0.0661929 0.000161264 0)
(0.0657227 0.000157639 0)
(0.0652599 0.000154187 0)
(0.0648042 0.000150917 0)
(0.0643552 0.000147844 0)
(0.0639126 0.000145 0)
(0.0634758 0.000142458 0)
(0.063044 0.000140395 0)
(0.062616 0.000139288 0)
(0.062188 0.000140674 0)
(0.0617714 0.000156053 0)
(0.0611152 0.000242773 0)
(0.196728 0.00806344 0)
(0.197883 0.00920895 0)
(0.198984 0.00985107 0)
(0.199796 0.0101445 0)
(0.200269 0.0101937 0)
(0.200408 0.0100425 0)
(0.20021 0.0097254 0)
(0.199683 0.00928325 0)
(0.198848 0.00875719 0)
(0.197738 0.00818448 0)
(0.196395 0.00759688 0)
(0.194859 0.00701987 0)
(0.19317 0.00647201 0)
(0.191365 0.00596511 0)
(0.189473 0.00550504 0)
(0.187522 0.00509304 0)
(0.18553 0.00472706 0)
(0.183515 0.0044031 0)
(0.181486 0.00411621 0)
(0.179454 0.00386125 0)
(0.177425 0.00363338 0)
(0.175403 0.00342831 0)
(0.173393 0.00324239 0)
(0.171397 0.00307263 0)
(0.169417 0.0029166 0)
(0.167456 0.00277239 0)
(0.165516 0.00263846 0)
(0.163598 0.00251361 0)
(0.161704 0.00239686 0)
(0.159834 0.00228743 0)
(0.157991 0.00218465 0)
(0.156174 0.00208797 0)
(0.154385 0.00199691 0)
(0.152625 0.00191104 0)
(0.150893 0.00183 0)
(0.14919 0.00175343 0)
(0.147517 0.00168104 0)
(0.145873 0.00161255 0)
(0.14426 0.00154769 0)
(0.142675 0.00148623 0)
(0.14112 0.00142796 0)
(0.139595 0.00137267 0)
(0.138099 0.00132017 0)
(0.136631 0.00127029 0)
(0.135192 0.00122288 0)
(0.133781 0.00117779 0)
(0.132398 0.00113488 0)
(0.131042 0.00109401 0)
(0.129713 0.00105508 0)
(0.12841 0.00101797 0)
(0.127133 0.000982578 0)
(0.125881 0.000948809 0)
(0.124654 0.000916571 0)
(0.123451 0.00088578 0)
(0.122272 0.000856359 0)
(0.121116 0.000828232 0)
(0.119983 0.00080133 0)
(0.118872 0.000775589 0)
(0.117782 0.000750947 0)
(0.116714 0.000727346 0)
(0.115666 0.000704733 0)
(0.114638 0.000683057 0)
(0.11363 0.000662269 0)
(0.112641 0.000642325 0)
(0.11167 0.000623183 0)
(0.110718 0.000604802 0)
(0.109784 0.000587145 0)
(0.108866 0.000570176 0)
(0.107966 0.000553862 0)
(0.107082 0.000538172 0)
(0.106213 0.000523075 0)
(0.105361 0.000508544 0)
(0.104524 0.000494553 0)
(0.103701 0.000481077 0)
(0.102893 0.000468092 0)
(0.102099 0.000455578 0)
(0.101319 0.000443515 0)
(0.100552 0.000431882 0)
(0.0997984 0.000420664 0)
(0.0990574 0.000409843 0)
(0.0983288 0.000399404 0)
(0.0976124 0.000389335 0)
(0.0969078 0.000379622 0)
(0.0962147 0.000370256 0)
(0.0955328 0.000361225 0)
(0.0948618 0.000352523 0)
(0.0942015 0.000344142 0)
(0.0935515 0.000336078 0)
(0.0929116 0.000328329 0)
(0.0922813 0.000320895 0)
(0.0916605 0.000313782 0)
(0.0910487 0.000307001 0)
(0.0904457 0.000300579 0)
(0.0898508 0.00029457 0)
(0.0892637 0.000289091 0)
(0.0886836 0.000284433 0)
(0.0881089 0.000281393 0)
(0.087537 0.000282717 0)
(0.0869756 0.000303302 0)
(0.0862118 0.000386821 0)
(0.197449 0.0075566 0)
(0.198471 0.00860722 0)
(0.199582 0.0092717 0)
(0.200617 0.00963781 0)
(0.201516 0.00978577 0)
(0.202257 0.00975507 0)
(0.202817 0.009573 0)
(0.203177 0.00927031 0)
(0.203325 0.00887976 0)
(0.203264 0.00843251 0)
(0.203009 0.00795633 0)
(0.202576 0.00747466 0)
(0.201988 0.00700577 0)
(0.201268 0.00656243 0)
(0.200437 0.00615226 0)
(0.199515 0.0057786 0)
(0.19852 0.00544154 0)
(0.197465 0.005139 0)
(0.19636 0.00486766 0)
(0.195215 0.00462369 0)
(0.194035 0.00440323 0)
(0.192827 0.00420274 0)
(0.191594 0.00401911 0)
(0.190339 0.00384973 0)
(0.189065 0.00369248 0)
(0.187774 0.00354564 0)
(0.18647 0.00340785 0)
(0.185154 0.00327804 0)
(0.183827 0.00315533 0)
(0.182493 0.00303903 0)
(0.181152 0.00292858 0)
(0.179807 0.00282349 0)
(0.178459 0.00272337 0)
(0.17711 0.00262786 0)
(0.17576 0.00253667 0)
(0.174412 0.0024495 0)
(0.173067 0.00236613 0)
(0.171725 0.00228633 0)
(0.170389 0.00220989 0)
(0.169058 0.00213664 0)
(0.167735 0.0020664 0)
(0.166419 0.00199901 0)
(0.165112 0.00193434 0)
(0.163814 0.00187225 0)
(0.162525 0.00181262 0)
(0.161248 0.00175532 0)
(0.159981 0.00170025 0)
(0.158725 0.00164731 0)
(0.157482 0.00159641 0)
(0.156251 0.00154745 0)
(0.155032 0.00150034 0)
(0.153826 0.00145501 0)
(0.152633 0.00141138 0)
(0.151453 0.00136938 0)
(0.150287 0.00132893 0)
(0.149134 0.00128998 0)
(0.147995 0.00125246 0)
(0.146869 0.0012163 0)
(0.145757 0.00118146 0)
(0.144658 0.00114787 0)
(0.143574 0.00111549 0)
(0.142503 0.00108427 0)
(0.141445 0.00105414 0)
(0.140401 0.00102508 0)
(0.139371 0.000997037 0)
(0.138354 0.000969967 0)
(0.13735 0.000943831 0)
(0.136359 0.00091859 0)
(0.135382 0.000894209 0)
(0.134417 0.000870652 0)
(0.133465 0.000847886 0)
(0.132526 0.000825879 0)
(0.131599 0.000804602 0)
(0.130685 0.000784024 0)
(0.129783 0.000764121 0)
(0.128893 0.000744864 0)
(0.128015 0.000726231 0)
(0.127149 0.000708199 0)
(0.126294 0.000690746 0)
(0.125451 0.000673852 0)
(0.124619 0.0006575 0)
(0.123799 0.000641671 0)
(0.122989 0.000626352 0)
(0.12219 0.000611527 0)
(0.121401 0.000597186 0)
(0.120623 0.000583318 0)
(0.119855 0.000569916 0)
(0.119097 0.000556973 0)
(0.118349 0.000544488 0)
(0.117611 0.000532463 0)
(0.116882 0.000520906 0)
(0.116162 0.000509834 0)
(0.115451 0.000499286 0)
(0.114748 0.000489337 0)
(0.114054 0.000480151 0)
(0.113367 0.000472124 0)
(0.112686 0.000466334 0)
(0.112009 0.000466328 0)
(0.111347 0.000486198 0)
(0.110515 0.00055206 0)
(0.198051 0.00711098 0)
(0.198906 0.00804278 0)
(0.199879 0.00868156 0)
(0.200852 0.0090709 0)
(0.201774 0.00926669 0)
(0.202618 0.00930264 0)
(0.203363 0.00920203 0)
(0.203988 0.00898979 0)
(0.204478 0.00869302 0)
(0.204827 0.00833816 0)
(0.205036 0.00794927 0)
(0.205114 0.0075471 0)
(0.20507 0.00714833 0)
(0.204918 0.00676527 0)
(0.204673 0.0064059 0)
(0.204348 0.00607447 0)
(0.203955 0.00577229 0)
(0.203505 0.00549857 0)
(0.203005 0.00525118 0)
(0.202463 0.00502734 0)
(0.201883 0.00482405 0)
(0.201269 0.00463839 0)
(0.200624 0.00446774 0)
(0.199951 0.00430982 0)
(0.19925 0.00416273 0)
(0.198525 0.00402488 0)
(0.197776 0.00389504 0)
(0.197004 0.00377217 0)
(0.196211 0.00365547 0)
(0.195398 0.00354427 0)
(0.194566 0.00343805 0)
(0.193717 0.00333636 0)
(0.192851 0.00323884 0)
(0.19197 0.00314518 0)
(0.191075 0.0030551 0)
(0.190167 0.00296838 0)
(0.189247 0.00288481 0)
(0.188316 0.0028042 0)
(0.187375 0.0027264 0)
(0.186425 0.00265125 0)
(0.185468 0.00257863 0)
(0.184503 0.00250841 0)
(0.183533 0.00244049 0)
(0.182557 0.00237477 0)
(0.181577 0.00231114 0)
(0.180593 0.00224953 0)
(0.179606 0.00218986 0)
(0.178618 0.00213205 0)
(0.177627 0.00207603 0)
(0.176636 0.00202175 0)
(0.175645 0.00196913 0)
(0.174654 0.00191812 0)
(0.173664 0.00186866 0)
(0.172675 0.0018207 0)
(0.171689 0.00177419 0)
(0.170704 0.00172909 0)
(0.169723 0.00168533 0)
(0.168744 0.00164289 0)
(0.16777 0.00160172 0)
(0.166799 0.00156177 0)
(0.165833 0.00152301 0)
(0.164871 0.00148539 0)
(0.163914 0.00144889 0)
(0.162962 0.00141345 0)
(0.162016 0.00137905 0)
(0.161075 0.00134566 0)
(0.16014 0.00131323 0)
(0.159211 0.00128174 0)
(0.158288 0.00125116 0)
(0.157372 0.00122145 0)
(0.156462 0.0011926 0)
(0.155559 0.00116456 0)
(0.154663 0.00113732 0)
(0.153773 0.00111085 0)
(0.152891 0.00108512 0)
(0.152015 0.00106011 0)
(0.151147 0.00103581 0)
(0.150286 0.00101218 0)
(0.149432 0.000989207 0)
(0.148585 0.000966878 0)
(0.147746 0.000945173 0)
(0.146914 0.000924076 0)
(0.14609 0.000903574 0)
(0.145273 0.000883655 0)
(0.144463 0.000864308 0)
(0.143661 0.000845525 0)
(0.142866 0.000827301 0)
(0.142079 0.000809632 0)
(0.141298 0.000792519 0)
(0.140525 0.000775969 0)
(0.139759 0.000759995 0)
(0.139 0.000744623 0)
(0.138248 0.000729904 0)
(0.137503 0.000715933 0)
(0.136764 0.000702914 0)
(0.13603 0.000691319 0)
(0.135303 0.00068237 0)
(0.134581 0.000679653 0)
(0.133876 0.000693803 0)
(0.133026 0.00073366 0)
(0.198565 0.00672162 0)
(0.199285 0.0075428 0)
(0.200117 0.00814233 0)
(0.20098 0.00853499 0)
(0.201828 0.00875588 0)
(0.202633 0.00883203 0)
(0.203374 0.00878398 0)
(0.204034 0.00863303 0)
(0.204601 0.00840229 0)
(0.205068 0.00811462 0)
(0.205433 0.00779105 0)
(0.205699 0.00744993 0)
(0.205875 0.00710632 0)
(0.205969 0.00677173 0)
(0.20599 0.00645404 0)
(0.205949 0.00615795 0)
(0.205856 0.00588554 0)
(0.205718 0.00563693 0)
(0.205541 0.00541093 0)
(0.205331 0.00520556 0)
(0.205092 0.00501851 0)
(0.204826 0.00484742 0)
(0.204536 0.00469006 0)
(0.204223 0.00454444 0)
(0.203889 0.00440883 0)
(0.203533 0.00428179 0)
(0.203158 0.00416213 0)
(0.202762 0.00404889 0)
(0.202347 0.00394126 0)
(0.201914 0.00383861 0)
(0.201462 0.00374041 0)
(0.200992 0.00364622 0)
(0.200505 0.00355569 0)
(0.200001 0.00346849 0)
(0.19948 0.00338439 0)
(0.198944 0.00330314 0)
(0.198393 0.00322457 0)
(0.197827 0.00314848 0)
(0.197246 0.00307475 0)
(0.196653 0.00300322 0)
(0.196046 0.00293379 0)
(0.195427 0.00286634 0)
(0.194796 0.00280079 0)
(0.194153 0.00273704 0)
(0.1935 0.00267502 0)
(0.192837 0.00261465 0)
(0.192163 0.00255588 0)
(0.191481 0.00249865 0)
(0.19079 0.0024429 0)
(0.190091 0.00238857 0)
(0.189385 0.00233563 0)
(0.188671 0.00228403 0)
(0.18795 0.00223373 0)
(0.187224 0.00218469 0)
(0.186492 0.00213687 0)
(0.185754 0.00209024 0)
(0.185012 0.00204476 0)
(0.184265 0.0020004 0)
(0.183514 0.00195714 0)
(0.18276 0.00191494 0)
(0.182003 0.00187377 0)
(0.181243 0.0018336 0)
(0.18048 0.00179441 0)
(0.179715 0.00175617 0)
(0.178949 0.00171885 0)
(0.178181 0.00168244 0)
(0.177412 0.0016469 0)
(0.176642 0.00161221 0)
(0.175872 0.00157835 0)
(0.175101 0.00154529 0)
(0.174331 0.00151302 0)
(0.173561 0.00148152 0)
(0.172792 0.00145076 0)
(0.172023 0.00142072 0)
(0.171256 0.0013914 0)
(0.17049 0.00136276 0)
(0.169725 0.00133479 0)
(0.168962 0.00130748 0)
(0.168201 0.00128081 0)
(0.167442 0.00125477 0)
(0.166686 0.00122935 0)
(0.165931 0.00120454 0)
(0.16518 0.00118032 0)
(0.164431 0.00115669 0)
(0.163685 0.00113364 0)
(0.162942 0.00111118 0)
(0.162202 0.00108929 0)
(0.161466 0.00106798 0)
(0.160732 0.00104727 0)
(0.160002 0.00102715 0)
(0.159276 0.00100765 0)
(0.158552 0.000988816 0)
(0.157833 0.000970698 0)
(0.157116 0.000953412 0)
(0.156403 0.000937185 0)
(0.155693 0.000922512 0)
(0.154986 0.000910563 0)
(0.154285 0.000904245 0)
(0.153601 0.000909605 0)
(0.152793 0.000921142 0)
(0.199003 0.00637931 0)
(0.199618 0.0071019 0)
(0.20033 0.0076559 0)
(0.201087 0.00803997 0)
(0.201847 0.00827378 0)
(0.202582 0.00837749 0)
(0.203272 0.00836857 0)
(0.203901 0.00826507 0)
(0.204459 0.00808651 0)
(0.204938 0.00785259 0)
(0.205338 0.00758168 0)
(0.20566 0.00729007 0)
(0.205909 0.00699137 0)
(0.206092 0.00669631 0)
(0.206217 0.00641258 0)
(0.206294 0.00614516 0)
(0.206328 0.00589668 0)
(0.206328 0.005668 0)
(0.206298 0.00545868 0)
(0.206244 0.00526747 0)
(0.206169 0.00509269 0)
(0.206075 0.00493246 0)
(0.205965 0.00478496 0)
(0.205839 0.00464847 0)
(0.2057 0.00452149 0)
(0.205546 0.00440271 0)
(0.205379 0.00429101 0)
(0.205199 0.00418549 0)
(0.205005 0.00408537 0)
(0.204799 0.00399003 0)
(0.204579 0.00389894 0)
(0.204347 0.00381166 0)
(0.204102 0.00372783 0)
(0.203844 0.00364713 0)
(0.203574 0.00356929 0)
(0.203291 0.00349409 0)
(0.202996 0.00342133 0)
(0.202689 0.00335083 0)
(0.202369 0.00328244 0)
(0.202038 0.00321601 0)
(0.201695 0.00315145 0)
(0.20134 0.00308862 0)
(0.200974 0.00302745 0)
(0.200597 0.00296784 0)
(0.200209 0.00290972 0)
(0.19981 0.00285303 0)
(0.199401 0.00279769 0)
(0.198981 0.00274365 0)
(0.198552 0.00269086 0)
(0.198112 0.00263928 0)
(0.197663 0.00258886 0)
(0.197205 0.00253957 0)
(0.196738 0.00249136 0)
(0.196262 0.0024442 0)
(0.195778 0.00239806 0)
(0.195285 0.00235291 0)
(0.194784 0.00230873 0)
(0.194276 0.00226548 0)
(0.19376 0.00222314 0)
(0.193237 0.00218168 0)
(0.192707 0.00214109 0)
(0.192171 0.00210133 0)
(0.191628 0.0020624 0)
(0.191079 0.00202426 0)
(0.190524 0.00198689 0)
(0.189963 0.00195029 0)
(0.189398 0.00191442 0)
(0.188827 0.00187927 0)
(0.188251 0.00184483 0)
(0.187671 0.00181107 0)
(0.187086 0.00177798 0)
(0.186498 0.00174555 0)
(0.185905 0.00171375 0)
(0.185309 0.00168258 0)
(0.18471 0.00165202 0)
(0.184108 0.00162206 0)
(0.183502 0.00159268 0)
(0.182894 0.00156388 0)
(0.182283 0.00153565 0)
(0.18167 0.00150797 0)
(0.181056 0.00148085 0)
(0.180439 0.00145427 0)
(0.17982 0.00142822 0)
(0.1792 0.00140272 0)
(0.178579 0.00137775 0)
(0.177957 0.00135331 0)
(0.177333 0.00132942 0)
(0.176709 0.00130608 0)
(0.176084 0.0012833 0)
(0.175459 0.0012611 0)
(0.174833 0.00123952 0)
(0.174207 0.00121858 0)
(0.17358 0.00119838 0)
(0.172953 0.00117902 0)
(0.172326 0.00116073 0)
(0.1717 0.00114398 0)
(0.171073 0.00112968 0)
(0.170451 0.00111964 0)
(0.169844 0.00111544 0)
(0.169128 0.00110178 0)
(0.199374 0.00607263 0)
(0.199906 0.00670893 0)
(0.20052 0.00721594 0)
(0.201182 0.00758462 0)
(0.201859 0.00782397 0)
(0.202522 0.00794782 0)
(0.203153 0.00797015 0)
(0.203737 0.00790591 0)
(0.204263 0.00777139 0)
(0.204725 0.00758334 0)
(0.20512 0.00735773 0)
(0.20545 0.00710895 0)
(0.205718 0.0068493 0)
(0.20593 0.00658868 0)
(0.206093 0.00633454 0)
(0.206214 0.00609197 0)
(0.206299 0.00586403 0)
(0.206354 0.00565215 0)
(0.206385 0.00545655 0)
(0.206396 0.00527659 0)
(0.206391 0.00511117 0)
(0.206372 0.0049589 0)
(0.206342 0.00481833 0)
(0.206301 0.00468806 0)
(0.206251 0.0045668 0)
(0.206192 0.0044534 0)
(0.206124 0.00434687 0)
(0.206049 0.00424635 0)
(0.205966 0.00415113 0)
(0.205876 0.00406061 0)
(0.205778 0.00397428 0)
(0.205672 0.00389171 0)
(0.205558 0.00381254 0)
(0.205437 0.00373645 0)
(0.205308 0.00366318 0)
(0.205171 0.00359248 0)
(0.205026 0.00352417 0)
(0.204873 0.00345805 0)
(0.204712 0.00339398 0)
(0.204544 0.00333181 0)
(0.204367 0.00327141 0)
(0.204182 0.00321268 0)
(0.203989 0.00315552 0)
(0.203788 0.00309983 0)
(0.203579 0.00304555 0)
(0.203362 0.00299259 0)
(0.203137 0.00294088 0)
(0.202903 0.00289038 0)
(0.202662 0.00284103 0)
(0.202413 0.00279277 0)
(0.202155 0.00274557 0)
(0.20189 0.00269937 0)
(0.201616 0.00265415 0)
(0.201335 0.00260987 0)
(0.201046 0.00256649 0)
(0.200749 0.00252399 0)
(0.200445 0.00248233 0)
(0.200133 0.00244149 0)
(0.199813 0.00240144 0)
(0.199486 0.00236216 0)
(0.199152 0.00232363 0)
(0.198811 0.00228582 0)
(0.198463 0.0022487 0)
(0.198107 0.00221228 0)
(0.197745 0.00217651 0)
(0.197376 0.00214139 0)
(0.197001 0.00210689 0)
(0.196619 0.00207301 0)
(0.19623 0.00203972 0)
(0.195836 0.00200701 0)
(0.195435 0.00197486 0)
(0.195029 0.00194327 0)
(0.194616 0.00191221 0)
(0.194198 0.00188168 0)
(0.193775 0.00185166 0)
(0.193346 0.00182214 0)
(0.192912 0.00179312 0)
(0.192473 0.00176458 0)
(0.192029 0.00173653 0)
(0.19158 0.00170894 0)
(0.191127 0.00168182 0)
(0.190669 0.00165517 0)
(0.190207 0.00162898 0)
(0.189741 0.00160325 0)
(0.189271 0.00157799 0)
(0.188797 0.0015532 0)
(0.188319 0.00152889 0)
(0.187837 0.00150507 0)
(0.187352 0.00148176 0)
(0.186863 0.00145899 0)
(0.186372 0.00143678 0)
(0.185877 0.00141519 0)
(0.185379 0.0013943 0)
(0.184877 0.00137422 0)
(0.184373 0.00135515 0)
(0.183867 0.00133745 0)
(0.183359 0.00132171 0)
(0.182853 0.0013085 0)
(0.182358 0.00129595 0)
(0.181768 0.00126402 0)
(0.199686 0.00579366 0)
(0.200151 0.00635564 0)
(0.200684 0.00681733 0)
(0.201264 0.00716688 0)
(0.201865 0.00740647 0)
(0.202462 0.00754461 0)
(0.203036 0.00759195 0)
(0.203572 0.00756056 0)
(0.204062 0.00746387 0)
(0.204498 0.00731595 0)
(0.204878 0.00713052 0)
(0.205201 0.0069202 0)
(0.205471 0.00669598 0)
(0.205692 0.00646695 0)
(0.205868 0.00624015 0)
(0.206006 0.0060207 0)
(0.206112 0.00581191 0)
(0.206191 0.00561565 0)
(0.206247 0.00543267 0)
(0.206286 0.00526287 0)
(0.20631 0.00510565 0)
(0.206322 0.00496006 0)
(0.206325 0.00482503 0)
(0.206319 0.00469946 0)
(0.206306 0.00458228 0)
(0.206287 0.00447252 0)
(0.206263 0.00436932 0)
(0.206233 0.00427193 0)
(0.206199 0.00417968 0)
(0.20616 0.00409203 0)
(0.206117 0.0040085 0)
(0.206069 0.00392869 0)
(0.206018 0.00385224 0)
(0.205962 0.00377886 0)
(0.205901 0.00370828 0)
(0.205837 0.00364028 0)
(0.205768 0.00357466 0)
(0.205695 0.00351124 0)
(0.205618 0.00344986 0)
(0.205536 0.00339039 0)
(0.20545 0.0033327 0)
(0.205359 0.00327668 0)
(0.205263 0.00322223 0)
(0.205163 0.00316925 0)
(0.205057 0.00311767 0)
(0.204947 0.0030674 0)
(0.204832 0.00301839 0)
(0.204712 0.00297057 0)
(0.204586 0.00292388 0)
(0.204456 0.00287827 0)
(0.20432 0.00283369 0)
(0.204179 0.0027901 0)
(0.204032 0.00274746 0)
(0.20388 0.00270572 0)
(0.203722 0.00266486 0)
(0.203559 0.00262484 0)
(0.20339 0.00258562 0)
(0.203215 0.00254719 0)
(0.203035 0.0025095 0)
(0.202849 0.00247253 0)
(0.202658 0.00243626 0)
(0.20246 0.00240067 0)
(0.202257 0.00236572 0)
(0.202048 0.00233141 0)
(0.201833 0.0022977 0)
(0.201613 0.00226458 0)
(0.201386 0.00223203 0)
(0.201154 0.00220003 0)
(0.200916 0.00216856 0)
(0.200673 0.00213761 0)
(0.200423 0.00210717 0)
(0.200168 0.00207721 0)
(0.199908 0.00204772 0)
(0.199641 0.0020187 0)
(0.199369 0.00199012 0)
(0.199092 0.00196198 0)
(0.198809 0.00193428 0)
(0.198521 0.00190699 0)
(0.198227 0.00188012 0)
(0.197928 0.00185365 0)
(0.197624 0.00182759 0)
(0.197314 0.00180193 0)
(0.197 0.00177667 0)
(0.19668 0.00175182 0)
(0.196355 0.00172737 0)
(0.196025 0.00170334 0)
(0.195691 0.00167973 0)
(0.195351 0.00165656 0)
(0.195007 0.00163385 0)
(0.194658 0.00161163 0)
(0.194304 0.00158993 0)
(0.193946 0.00156881 0)
(0.193583 0.00154833 0)
(0.193216 0.00152861 0)
(0.192844 0.0015098 0)
(0.192469 0.00149213 0)
(0.19209 0.0014758 0)
(0.191712 0.00146038 0)
(0.19134 0.00144191 0)
(0.190887 0.00140014 0)
(0.199945 0.00553698 0)
(0.200356 0.00603548 0)
(0.200823 0.00645508 0)
(0.201332 0.00678374 0)
(0.201865 0.00701962 0)
(0.202401 0.00716726 0)
(0.20292 0.00723432 0)
(0.203411 0.00723031 0)
(0.203865 0.00716614 0)
(0.204273 0.00705347 0)
(0.204634 0.00690396 0)
(0.204947 0.00672853 0)
(0.205212 0.00653693 0)
(0.205433 0.00633738 0)
(0.205615 0.00613648 0)
(0.205761 0.00593921 0)
(0.205877 0.00574904 0)
(0.205968 0.00556813 0)
(0.206038 0.00539764 0)
(0.20609 0.00523792 0)
(0.206128 0.00508879 0)
(0.206154 0.0049497 0)
(0.206172 0.00481993 0)
(0.206181 0.00469866 0)
(0.206184 0.00458504 0)
(0.206182 0.00447828 0)
(0.206175 0.00437767 0)
(0.206164 0.00428254 0)
(0.20615 0.00419234 0)
(0.206132 0.00410655 0)
(0.206112 0.00402475 0)
(0.206089 0.00394656 0)
(0.206063 0.00387167 0)
(0.206035 0.00379979 0)
(0.206005 0.00373067 0)
(0.205973 0.00366411 0)
(0.205938 0.00359991 0)
(0.205901 0.0035379 0)
(0.205862 0.00347794 0)
(0.205821 0.00341989 0)
(0.205778 0.00336363 0)
(0.205732 0.00330905 0)
(0.205684 0.00325606 0)
(0.205634 0.00320457 0)
(0.205581 0.00315449 0)
(0.205526 0.00310576 0)
(0.205468 0.00305829 0)
(0.205408 0.00301205 0)
(0.205345 0.00296695 0)
(0.205279 0.00292296 0)
(0.205211 0.00288002 0)
(0.205139 0.00283809 0)
(0.205065 0.00279713 0)
(0.204987 0.00275709 0)
(0.204906 0.00271793 0)
(0.204822 0.00267963 0)
(0.204734 0.00264215 0)
(0.204644 0.00260546 0)
(0.204549 0.00256952 0)
(0.204451 0.00253431 0)
(0.20435 0.0024998 0)
(0.204244 0.00246596 0)
(0.204135 0.00243278 0)
(0.204022 0.00240022 0)
(0.203905 0.00236826 0)
(0.203784 0.00233688 0)
(0.203659 0.00230606 0)
(0.20353 0.00227578 0)
(0.203397 0.00224602 0)
(0.203259 0.00221676 0)
(0.203117 0.00218799 0)
(0.202971 0.00215968 0)
(0.202821 0.00213183 0)
(0.202666 0.00210442 0)
(0.202506 0.00207743 0)
(0.202342 0.00205086 0)
(0.202174 0.00202469 0)
(0.202001 0.00199891 0)
(0.201824 0.00197352 0)
(0.201642 0.0019485 0)
(0.201455 0.00192386 0)
(0.201264 0.0018996 0)
(0.201068 0.0018757 0)
(0.200868 0.00185217 0)
(0.200662 0.00182902 0)
(0.200453 0.00180625 0)
(0.200238 0.00178388 0)
(0.200019 0.00176192 0)
(0.199795 0.00174039 0)
(0.199566 0.00171931 0)
(0.199333 0.00169874 0)
(0.199095 0.0016787 0)
(0.198852 0.00165927 0)
(0.198605 0.00164054 0)
(0.198353 0.00162262 0)
(0.198097 0.00160559 0)
(0.197837 0.00158933 0)
(0.197577 0.00157274 0)
(0.197318 0.00155113 0)
(0.196992 0.00150726 0)
(0.200159 0.00529877 0)
(0.200525 0.00574321 0)
(0.200935 0.00612463 0)
(0.201383 0.00643203 0)
(0.201856 0.00666151 0)
(0.202336 0.00681482 0)
(0.202806 0.00689714 0)
(0.203254 0.00691574 0)
(0.203671 0.00687933 0)
(0.204053 0.00679748 0)
(0.204393 0.00667995 0)
(0.204692 0.00653612 0)
(0.20495 0.00637451 0)
(0.205169 0.00620252 0)
(0.205352 0.00602622 0)
(0.205503 0.00585037 0)
(0.205625 0.00567846 0)
(0.205724 0.00551287 0)
(0.205801 0.00535503 0)
(0.205862 0.00520566 0)
(0.205909 0.00506494 0)
(0.205944 0.00493265 0)
(0.205969 0.00480838 0)
(0.205987 0.00469157 0)
(0.205998 0.00458159 0)
(0.206004 0.00447784 0)
(0.206005 0.00437972 0)
(0.206003 0.00428669 0)
(0.205998 0.00419827 0)
(0.205989 0.00411401 0)
(0.205978 0.00403355 0)
(0.205965 0.00395654 0)
(0.205951 0.0038827 0)
(0.205934 0.00381177 0)
(0.205916 0.00374352 0)
(0.205897 0.00367776 0)
(0.205877 0.00361432 0)
(0.205855 0.00355302 0)
(0.205832 0.00349375 0)
(0.205808 0.00343636 0)
(0.205783 0.00338076 0)
(0.205757 0.00332684 0)
(0.20573 0.0032745 0)
(0.205702 0.00322366 0)
(0.205673 0.00317426 0)
(0.205643 0.0031262 0)
(0.205612 0.00307944 0)
(0.20558 0.00303392 0)
(0.205547 0.00298957 0)
(0.205512 0.00294634 0)
(0.205476 0.0029042 0)
(0.205439 0.00286309 0)
(0.205401 0.00282297 0)
(0.205361 0.0027838 0)
(0.20532 0.00274555 0)
(0.205277 0.00270818 0)
(0.205233 0.00267165 0)
(0.205187 0.00263594 0)
(0.205139 0.00260101 0)
(0.205089 0.00256683 0)
(0.205038 0.00253338 0)
(0.204984 0.00250063 0)
(0.204929 0.00246854 0)
(0.204871 0.00243711 0)
(0.204811 0.0024063 0)
(0.204749 0.00237608 0)
(0.204685 0.00234645 0)
(0.204618 0.00231737 0)
(0.204548 0.00228883 0)
(0.204476 0.0022608 0)
(0.204401 0.00223327 0)
(0.204324 0.00220622 0)
(0.204244 0.00217963 0)
(0.204161 0.00215349 0)
(0.204075 0.00212778 0)
(0.203986 0.00210249 0)
(0.203894 0.00207761 0)
(0.203798 0.00205312 0)
(0.2037 0.00202902 0)
(0.203598 0.00200531 0)
(0.203493 0.00198196 0)
(0.203385 0.00195899 0)
(0.203273 0.00193638 0)
(0.203157 0.00191415 0)
(0.203038 0.00189229 0)
(0.202916 0.00187081 0)
(0.20279 0.00184971 0)
(0.20266 0.00182903 0)
(0.202526 0.00180877 0)
(0.202388 0.00178897 0)
(0.202246 0.00176965 0)
(0.202101 0.00175087 0)
(0.201951 0.00173267 0)
(0.201797 0.00171513 0)
(0.20164 0.00169829 0)
(0.201478 0.00168214 0)
(0.201314 0.00166633 0)
(0.201148 0.00164947 0)
(0.200981 0.00162717 0)