/*--------------------------------*- C++ -*----------------------------------*\
| =========                 |                                                 |
| \\      /  F ield         | OpenFOAM: The Open Source CFD Toolbox           |
|  \\    /   O peration     | Version:  2.3.0                                 |
|   \\  /    A nd           | Web:      www.OpenFOAM.org                      |
|    \\/     M anipulation  |                                                 |
\*---------------------------------------------------------------------------*/
FoamFile
{
    version     2.0;
    format      ascii;
    class       surfaceScalarField;
    location    "1";
    object      phi_0;
}
// * * * * * * * * * * * * * * * * * * * * * * * * * * * * * * * * * * * * * //

dimensions      [0 3 -1 0 0 0 0];

internalField   nonuniform List<scalar> 
6068
(
2.82981e-08
2.83266e-09
-3.11307e-08
2.54386e-08
2.85946e-09
2.27434e-08
2.69525e-09
2.02571e-08
2.48622e-09
1.79971e-08
2.26001e-09
1.59742e-08
2.02288e-09
1.41914e-08
1.78285e-09
1.26436e-08
1.54781e-09
1.13191e-08
1.32452e-09
1.02006e-08
1.1185e-09
9.26677e-09
9.33791e-10
8.49398e-09
7.72791e-10
7.8578e-09
6.36174e-10
7.33469e-09
5.23111e-10
6.90307e-09
4.31618e-10
6.5441e-09
3.58974e-10
6.24196e-09
3.0214e-10
5.98386e-09
2.58094e-10
5.75979e-09
2.24072e-10
5.56209e-09
1.97701e-10
5.38505e-09
1.77045e-10
5.22445e-09
1.60592e-10
5.07725e-09
1.47203e-10
4.9412e-09
1.36047e-10
4.81467e-09
1.26534e-10
4.69642e-09
1.18252e-10
4.5855e-09
1.10919e-10
4.48116e-09
1.04341e-10
4.38277e-09
9.83832e-11
4.28982e-09
9.29522e-11
4.20184e-09
8.79785e-11
4.11843e-09
8.34088e-11
4.03923e-09
7.92001e-11
3.96392e-09
7.53162e-11
3.89219e-09
7.17258e-11
3.82379e-09
6.8401e-11
3.75847e-09
6.53171e-11
3.69602e-09
6.24517e-11
3.63624e-09
5.97847e-11
3.57894e-09
5.72981e-11
3.52396e-09
5.49757e-11
3.47116e-09
5.28032e-11
3.42039e-09
5.07675e-11
3.37154e-09
4.88572e-11
3.32447e-09
4.70619e-11
3.2791e-09
4.53723e-11
3.23532e-09
4.37802e-11
3.19304e-09
4.22781e-11
3.15218e-09
4.08593e-11
3.11267e-09
3.95178e-11
3.07442e-09
3.8248e-11
3.03737e-09
3.7045e-11
3.00147e-09
3.59043e-11
2.96665e-09
3.48216e-11
2.93285e-09
3.37933e-11
2.90004e-09
3.28159e-11
2.86815e-09
3.18861e-11
2.83715e-09
3.1001e-11
2.80699e-09
3.0158e-11
2.77764e-09
2.93544e-11
2.74905e-09
2.8588e-11
2.72119e-09
2.78567e-11
2.69404e-09
2.71583e-11
2.66754e-09
2.64912e-11
2.64169e-09
2.58536e-11
2.61645e-09
2.52439e-11
2.59179e-09
2.46606e-11
2.56768e-09
2.41023e-11
2.54412e-09
2.35678e-11
2.52106e-09
2.30559e-11
2.49849e-09
2.25655e-11
2.4764e-09
2.20955e-11
2.45475e-09
2.1645e-11
2.43354e-09
2.12132e-11
2.41274e-09
2.07991e-11
2.39234e-09
2.04022e-11
2.37232e-09
2.00217e-11
2.35266e-09
1.9657e-11
2.33335e-09
1.93075e-11
2.31438e-09
1.89728e-11
2.29573e-09
1.86523e-11
2.27738e-09
1.83458e-11
2.25933e-09
1.80528e-11
2.24156e-09
1.77732e-11
2.22405e-09
1.75066e-11
2.2068e-09
1.7253e-11
2.18978e-09
1.70124e-11
2.173e-09
1.67846e-11
2.15643e-09
1.65701e-11
2.14006e-09
1.63691e-11
2.12388e-09
1.61823e-11
2.10787e-09
1.60111e-11
2.09201e-09
1.58578e-11
2.07628e-09
1.57274e-11
2.06065e-09
1.56302e-11
2.04506e-09
1.55914e-11
2.02938e-09
1.56826e-11
2.01333e-09
1.60494e-11
1.99616e-09
1.71675e-11
5.10785e-11
3.4006e-08
3.12091e-09
-3.42943e-08
3.3417e-08
3.44844e-09
3.25893e-08
3.523e-09
3.16017e-08
3.47378e-09
3.05114e-08
3.35035e-09
2.93641e-08
3.17023e-09
2.8197e-08
2.94988e-09
2.70391e-08
2.7057e-09
2.59117e-08
2.45191e-09
2.48299e-08
2.20031e-09
2.38035e-08
1.96021e-09
2.2838e-08
1.73829e-09
2.19356e-08
1.53858e-09
2.1096e-08
1.36273e-09
2.03171e-08
1.2105e-09
1.95958e-08
1.08028e-09
1.89282e-08
9.69712e-10
1.83103e-08
8.7607e-10
1.77377e-08
7.96655e-10
1.72064e-08
7.28978e-10
1.67126e-08
6.70883e-10
1.62526e-08
6.20569e-10
1.58232e-08
5.76582e-10
1.54215e-08
5.37769e-10
1.50448e-08
5.03229e-10
1.46908e-08
4.72263e-10
1.43574e-08
4.44324e-10
1.40427e-08
4.18981e-10
1.37452e-08
3.95894e-10
1.34634e-08
3.74784e-10
1.31959e-08
3.55422e-10
1.29417e-08
3.37615e-10
1.26997e-08
3.21197e-10
1.2469e-08
3.06027e-10
1.22488e-08
2.91978e-10
1.20382e-08
2.78943e-10
1.18367e-08
2.66823e-10
1.16436e-08
2.55533e-10
1.14584e-08
2.44997e-10
1.12806e-08
2.35147e-10
1.11096e-08
2.25923e-10
1.09452e-08
2.17271e-10
1.07868e-08
2.09143e-10
1.06342e-08
2.01497e-10
1.04869e-08
1.94294e-10
1.03448e-08
1.87499e-10
1.02075e-08
1.81083e-10
1.00748e-08
1.75016e-10
9.94634e-09
1.69274e-10
9.82202e-09
1.63834e-10
9.7016e-09
1.58676e-10
9.58486e-09
1.53779e-10
9.47164e-09
1.49127e-10
9.36176e-09
1.44705e-10
9.25505e-09
1.40497e-10
9.15138e-09
1.36491e-10
9.05059e-09
1.32674e-10
8.95256e-09
1.29034e-10
8.85715e-09
1.25562e-10
8.76426e-09
1.22248e-10
8.67377e-09
1.19082e-10
8.58557e-09
1.16056e-10
8.49956e-09
1.13163e-10
8.41566e-09
1.10395e-10
8.33377e-09
1.07746e-10
8.2538e-09
1.0521e-10
8.17568e-09
1.02779e-10
8.09933e-09
1.0045e-10
8.02468e-09
9.82175e-11
7.95166e-09
9.6076e-11
7.88021e-09
9.40215e-11
7.81025e-09
9.20498e-11
7.74174e-09
9.01573e-11
7.67461e-09
8.83404e-11
7.60882e-09
8.65958e-11
7.5443e-09
8.49205e-11
7.48101e-09
8.33117e-11
7.4189e-09
8.17668e-11
7.35792e-09
8.02836e-11
7.29804e-09
7.88598e-11
7.23919e-09
7.74937e-11
7.18136e-09
7.61834e-11
7.12448e-09
7.49276e-11
7.06853e-09
7.37249e-11
7.01346e-09
7.25744e-11
6.95924e-09
7.14754e-11
6.90582e-09
7.04272e-11
6.85318e-09
6.94298e-11
6.80127e-09
6.84835e-11
6.75005e-09
6.75895e-11
6.69948e-09
6.67496e-11
6.64952e-09
6.59679e-11
6.60013e-09
6.5252e-11
6.55124e-09
6.46171e-11
6.50277e-09
6.40968e-11
6.45459e-09
6.37746e-11
6.4064e-09
6.38732e-11
6.35746e-09
6.499e-11
6.30175e-09
7.28742e-11
1.31654e-10
3.60978e-08
2.98043e-09
-3.59573e-08
3.61646e-08
3.38162e-09
3.61066e-08
3.58103e-09
3.59249e-08
3.65546e-09
3.56305e-08
3.64478e-09
3.52373e-08
3.56342e-09
3.47624e-08
3.42479e-09
3.42236e-08
3.24453e-09
3.36377e-08
3.03782e-09
3.30198e-08
2.81816e-09
3.23831e-08
2.59696e-09
3.17382e-08
2.38318e-09
3.10936e-08
2.18313e-09
3.04558e-08
2.00055e-09
2.98293e-08
1.83698e-09
2.92173e-08
1.69231e-09
2.86217e-08
1.56529e-09
2.80437e-08
1.45407e-09
2.74838e-08
1.35654e-09
2.69422e-08
1.27062e-09
2.64187e-08
1.19443e-09
2.59129e-08
1.12634e-09
2.54245e-08
1.065e-09
2.49529e-08
1.00931e-09
2.44978e-08
9.58399e-10
2.40584e-08
9.11597e-10
2.36344e-08
8.6836e-10
2.32251e-08
8.28261e-10
2.283e-08
7.90958e-10
2.24487e-08
7.56168e-10
2.20804e-08
7.23654e-10
2.17248e-08
6.93216e-10
2.13813e-08
6.64679e-10
2.10495e-08
6.37887e-10
2.07288e-08
6.12702e-10
2.04187e-08
5.89001e-10
2.01189e-08
5.66671e-10
1.98288e-08
5.4561e-10
1.9548e-08
5.25725e-10
1.92763e-08
5.06932e-10
1.9013e-08
4.89153e-10
1.8758e-08
4.72317e-10
1.85108e-08
4.56361e-10
1.8271e-08
4.41225e-10
1.80385e-08
4.26855e-10
1.78128e-08
4.13201e-10
1.75936e-08
4.00218e-10
1.73808e-08
3.87864e-10
1.7174e-08
3.761e-10
1.69729e-08
3.64891e-10
1.67774e-08
3.54203e-10
1.65872e-08
3.44006e-10
1.6402e-08
3.34272e-10
1.62217e-08
3.24974e-10
1.60462e-08
3.16088e-10
1.58751e-08
3.07592e-10
1.57083e-08
2.99464e-10
1.55456e-08
2.91685e-10
1.53869e-08
2.84236e-10
1.52321e-08
2.771e-10
1.50809e-08
2.7026e-10
1.49333e-08
2.63702e-10
1.4789e-08
2.57412e-10
1.4648e-08
2.51376e-10
1.45102e-08
2.45582e-10
1.43754e-08
2.40018e-10
1.42435e-08
2.34673e-10
1.41144e-08
2.29537e-10
1.3988e-08
2.246e-10
1.38642e-08
2.19854e-10
1.3743e-08
2.15289e-10
1.36241e-08
2.10898e-10
1.35076e-08
2.06674e-10
1.33933e-08
2.02609e-10
1.32812e-08
1.98696e-10
1.31712e-08
1.94931e-10
1.30632e-08
1.91307e-10
1.29572e-08
1.87819e-10
1.2853e-08
1.84463e-10
1.27506e-08
1.81233e-10
1.265e-08
1.78127e-10
1.2551e-08
1.7514e-10
1.24537e-08
1.7227e-10
1.23579e-08
1.69514e-10
1.22636e-08
1.6687e-10
1.21708e-08
1.64335e-10
1.20793e-08
1.6191e-10
1.19891e-08
1.59592e-10
1.19002e-08
1.57384e-10
1.18125e-08
1.55286e-10
1.1726e-08
1.53303e-10
1.16405e-08
1.51441e-10
1.1556e-08
1.49716e-10
1.14725e-08
1.48155e-10
1.13898e-08
1.46824e-10
1.13076e-08
1.45882e-10
1.12258e-08
1.45767e-10
1.11428e-08
1.47947e-10
1.10531e-08
1.62559e-10
2.28119e-10
3.76646e-08
2.79691e-09
-3.7481e-08
3.78615e-08
3.18465e-09
3.80223e-08
3.42029e-09
3.81294e-08
3.54831e-09
3.81757e-08
3.59847e-09
3.81569e-08
3.58223e-09
3.80728e-08
3.50888e-09
3.7927e-08
3.39037e-09
3.77254e-08
3.23945e-09
3.74753e-08
3.06821e-09
3.71848e-08
2.88742e-09
3.68619e-08
2.7061e-09
3.65139e-08
2.53111e-09
3.61474e-08
2.36711e-09
3.57676e-08
2.21671e-09
3.53791e-08
2.08084e-09
3.49852e-08
1.95923e-09
3.45884e-08
1.85086e-09
3.41907e-08
1.75426e-09
3.37934e-08
1.66786e-09
3.33977e-08
1.59013e-09
3.30044e-08
1.51969e-09
3.2614e-08
1.45536e-09
3.22271e-08
1.39617e-09
3.18442e-08
1.34135e-09
3.14655e-08
1.29025e-09
3.10915e-08
1.24241e-09
3.07223e-08
1.19742e-09
3.03583e-08
1.15499e-09
2.99996e-08
1.11486e-09
2.96464e-08
1.07684e-09
2.92989e-08
1.04074e-09
2.89572e-08
1.00643e-09
2.86213e-08
9.7377e-10
2.82913e-08
9.42658e-10
2.79673e-08
9.12989e-10
2.76493e-08
8.84673e-10
2.73373e-08
8.57626e-10
2.70313e-08
8.31773e-10
2.67312e-08
8.07046e-10
2.64369e-08
7.83379e-10
2.61485e-08
7.60716e-10
2.58659e-08
7.39001e-10
2.55889e-08
7.18185e-10
2.53176e-08
6.98221e-10
2.50517e-08
6.79067e-10
2.47912e-08
6.60681e-10
2.45361e-08
6.43027e-10
2.42861e-08
6.26069e-10
2.40412e-08
6.09774e-10
2.38013e-08
5.94112e-10
2.35663e-08
5.79054e-10
2.3336e-08
5.64571e-10
2.31103e-08
5.50639e-10
2.28892e-08
5.37232e-10
2.26724e-08
5.24328e-10
2.246e-08
5.11904e-10
2.22517e-08
4.99941e-10
2.20475e-08
4.88417e-10
2.18473e-08
4.77315e-10
2.1651e-08
4.66616e-10
2.14584e-08
4.56304e-10
2.12694e-08
4.46362e-10
2.1084e-08
4.36776e-10
2.09021e-08
4.2753e-10
2.07235e-08
4.18611e-10
2.05481e-08
4.10006e-10
2.0376e-08
4.01703e-10
2.02069e-08
3.93689e-10
2.00408e-08
3.85953e-10
1.98776e-08
3.78484e-10
1.97172e-08
3.71273e-10
1.95596e-08
3.64311e-10
1.94046e-08
3.57587e-10
1.92522e-08
3.51094e-10
1.91023e-08
3.44824e-10
1.89549e-08
3.38769e-10
1.88097e-08
3.32923e-10
1.86669e-08
3.2728e-10
1.85263e-08
3.21833e-10
1.83879e-08
3.16577e-10
1.82515e-08
3.11508e-10
1.81172e-08
3.06622e-10
1.79848e-08
3.01915e-10
1.78542e-08
2.97383e-10
1.77256e-08
2.93026e-10
1.75986e-08
2.88841e-10
1.74734e-08
2.84829e-10
1.73498e-08
2.8099e-10
1.72277e-08
2.77328e-10
1.71072e-08
2.73848e-10
1.69881e-08
2.70562e-10
1.68703e-08
2.67492e-10
1.67538e-08
2.64683e-10
1.66384e-08
2.62232e-10
1.65239e-08
2.60381e-10
1.64098e-08
2.59802e-10
1.6295e-08
2.62824e-10
1.61769e-08
2.80601e-10
3.39857e-10
3.91907e-08
2.63463e-09
-3.90284e-08
3.93889e-08
2.98638e-09
3.95859e-08
3.22329e-09
3.97652e-08
3.36903e-09
3.99182e-08
3.44544e-09
4.00376e-08
3.46283e-09
4.0118e-08
3.42856e-09
4.01565e-08
3.35183e-09
4.0153e-08
3.24292e-09
4.01093e-08
3.11194e-09
4.00285e-08
2.96819e-09
3.99149e-08
2.81972e-09
3.9773e-08
2.673e-09
3.96074e-08
2.53272e-09
3.94223e-08
2.40184e-09
3.92213e-08
2.28186e-09
3.90074e-08
2.17313e-09
3.8783e-08
2.0752e-09
3.85501e-08
1.98715e-09
3.83102e-08
1.90783e-09
3.80643e-08
1.83604e-09
3.78133e-08
1.77064e-09
3.75581e-08
1.71062e-09
3.72991e-08
1.65513e-09
3.7037e-08
1.60347e-09
3.67722e-08
1.55506e-09
3.65051e-08
1.50946e-09
3.62362e-08
1.46631e-09
3.59659e-08
1.42532e-09
3.56945e-08
1.38627e-09
3.54224e-08
1.34896e-09
3.51498e-08
1.31326e-09
3.48772e-08
1.27903e-09
3.46048e-08
1.24616e-09
3.43329e-08
1.21456e-09
3.40618e-08
1.18415e-09
3.37916e-08
1.15486e-09
3.35226e-08
1.12662e-09
3.3255e-08
1.09938e-09
3.29889e-08
1.07308e-09
3.27246e-08
1.04768e-09
3.24622e-08
1.02312e-09
3.22019e-08
9.99381e-10
3.19436e-08
9.76416e-10
3.16877e-08
9.54195e-10
3.1434e-08
9.32686e-10
3.11829e-08
9.11861e-10
3.09342e-08
8.91694e-10
3.06881e-08
8.7216e-10
3.04446e-08
8.53235e-10
3.02039e-08
8.34898e-10
2.99658e-08
8.17128e-10
2.97304e-08
7.99906e-10
2.94979e-08
7.83212e-10
2.92681e-08
7.67029e-10
2.90411e-08
7.51341e-10
2.88168e-08
7.3613e-10
2.85954e-08
7.21382e-10
2.83767e-08
7.0708e-10
2.81608e-08
6.93212e-10
2.79477e-08
6.79762e-10
2.77373e-08
6.66717e-10
2.75296e-08
6.54066e-10
2.73246e-08
6.41794e-10
2.71222e-08
6.29891e-10
2.69225e-08
6.18345e-10
2.67253e-08
6.07144e-10
2.65307e-08
5.96278e-10
2.63387e-08
5.85737e-10
2.61491e-08
5.7551e-10
2.5962e-08
5.6559e-10
2.57773e-08
5.55966e-10
2.5595e-08
5.4663e-10
2.5415e-08
5.37574e-10
2.52373e-08
5.28791e-10
2.50619e-08
5.20272e-10
2.48886e-08
5.12012e-10
2.47176e-08
5.04004e-10
2.45486e-08
4.96243e-10
2.43817e-08
4.88722e-10
2.42169e-08
4.81438e-10
2.4054e-08
4.74386e-10
2.3893e-08
4.67563e-10
2.3734e-08
4.60965e-10
2.35768e-08
4.54592e-10
2.34214e-08
4.48441e-10
2.32677e-08
4.42512e-10
2.31157e-08
4.36806e-10
2.29654e-08
4.31327e-10
2.28166e-08
4.2608e-10
2.26694e-08
4.21073e-10
2.25236e-08
4.16324e-10
2.23793e-08
4.11863e-10
2.22362e-08
4.0775e-10
2.20943e-08
4.04115e-10
2.19534e-08
4.0127e-10
2.18132e-08
4.00061e-10
2.16728e-08
4.03198e-10
2.15332e-08
4.20194e-10
4.64593e-10
4.07545e-08
2.49708e-09
-4.0617e-08
4.09314e-08
2.80946e-09
4.11193e-08
3.03543e-09
4.13034e-08
3.18489e-09
4.14762e-08
3.27265e-09
4.16314e-08
3.3077e-09
4.17634e-08
3.29649e-09
4.18687e-08
3.24652e-09
4.19454e-08
3.16629e-09
4.1993e-08
3.06435e-09
4.20125e-08
2.94866e-09
4.2006e-08
2.82625e-09
4.1976e-08
2.70294e-09
4.19256e-08
2.58315e-09
4.18576e-08
2.46987e-09
4.17746e-08
2.36483e-09
4.1679e-08
2.26875e-09
4.15726e-08
2.18158e-09
4.1457e-08
2.10278e-09
4.13333e-08
2.03154e-09
4.12024e-08
1.96694e-09
4.1065e-08
1.90804e-09
4.09216e-08
1.854e-09
4.07726e-08
1.80406e-09
4.06185e-08
1.7576e-09
4.04595e-08
1.71407e-09
4.02959e-08
1.67307e-09
4.0128e-08
1.63424e-09
3.9956e-08
1.59731e-09
3.97802e-08
1.56205e-09
3.96009e-08
1.52829e-09
3.94182e-08
1.49588e-09
3.92326e-08
1.4647e-09
3.90441e-08
1.43464e-09
3.8853e-08
1.40562e-09
3.86596e-08
1.37756e-09
3.84641e-08
1.35039e-09
3.82667e-08
1.32406e-09
3.80675e-08
1.29852e-09
3.78669e-08
1.27372e-09
3.76649e-08
1.24963e-09
3.74618e-08
1.2262e-09
3.72578e-08
1.20342e-09
3.7053e-08
1.18123e-09
3.68475e-08
1.15964e-09
3.66416e-08
1.1386e-09
3.64354e-08
1.1181e-09
3.6229e-08
1.09812e-09
3.60225e-08
1.07864e-09
3.58161e-08
1.05965e-09
3.56098e-08
1.04114e-09
3.54039e-08
1.02308e-09
3.51983e-08
1.00546e-09
3.49932e-08
9.88284e-10
3.47887e-08
9.71525e-10
3.45849e-08
9.55177e-10
3.43818e-08
9.39229e-10
3.41795e-08
9.23671e-10
3.39781e-08
9.08495e-10
3.37776e-08
8.9369e-10
3.35781e-08
8.79248e-10
3.33797e-08
8.65161e-10
3.31823e-08
8.51419e-10
3.29861e-08
8.38015e-10
3.27911e-08
8.24941e-10
3.25972e-08
8.1219e-10
3.24046e-08
7.99754e-10
3.22133e-08
7.87626e-10
3.20232e-08
7.758e-10
3.18344e-08
7.64268e-10
3.1647e-08
7.53025e-10
3.14609e-08
7.42064e-10
3.12762e-08
7.31381e-10
3.10928e-08
7.20968e-10
3.09107e-08
7.10822e-10
3.07301e-08
7.00938e-10
3.05508e-08
6.9131e-10
3.03728e-08
6.81936e-10
3.01963e-08
6.72811e-10
3.00211e-08
6.63934e-10
2.98472e-08
6.553e-10
2.96747e-08
6.46908e-10
2.95035e-08
6.38756e-10
2.93336e-08
6.30845e-10
2.9165e-08
6.23174e-10
2.89977e-08
6.15743e-10
2.88317e-08
6.08557e-10
2.86669e-08
6.01617e-10
2.85033e-08
5.94931e-10
2.83408e-08
5.88506e-10
2.81796e-08
5.82357e-10
2.80194e-08
5.76506e-10
2.78602e-08
5.70991e-10
2.77021e-08
5.65887e-10
2.75449e-08
5.61344e-10
2.73884e-08
5.57715e-10
2.72326e-08
5.55895e-10
2.70774e-08
5.58366e-10
2.69261e-08
5.71553e-10
5.96987e-10
4.23691e-08
2.37899e-09
-4.2251e-08
4.25243e-08
2.65432e-09
4.26949e-08
2.86484e-09
4.28676e-08
3.01217e-09
4.30351e-08
3.10517e-09
4.31918e-08
3.15097e-09
4.33331e-08
3.15516e-09
4.34556e-08
3.12399e-09
4.35574e-08
3.06456e-09
4.36375e-08
2.98418e-09
4.36965e-08
2.88974e-09
4.37353e-08
2.78742e-09
4.37558e-08
2.68244e-09
4.376e-08
2.57888e-09
4.37502e-08
2.47967e-09
4.37284e-08
2.38665e-09
4.36964e-08
2.30076e-09
4.36557e-08
2.22227e-09
4.36076e-08
2.15093e-09
4.35529e-08
2.08621e-09
4.34924e-08
2.02742e-09
4.34266e-08
1.97383e-09
4.33559e-08
1.92474e-09
4.32805e-08
1.87948e-09
4.32006e-08
1.8375e-09
4.31164e-08
1.7983e-09
4.30279e-08
1.76151e-09
4.29354e-08
1.72677e-09
4.28389e-08
1.69382e-09
4.27385e-08
1.66245e-09
4.26343e-08
1.63246e-09
4.25265e-08
1.60372e-09
4.24151e-08
1.57608e-09
4.23003e-08
1.54946e-09
4.21821e-08
1.52375e-09
4.20608e-08
1.49889e-09
4.19364e-08
1.4748e-09
4.1809e-08
1.45143e-09
4.16788e-08
1.42872e-09
4.15459e-08
1.40664e-09
4.14104e-08
1.38514e-09
4.12724e-08
1.36418e-09
4.11321e-08
1.34374e-09
4.09896e-08
1.32379e-09
4.08449e-08
1.30431e-09
4.06982e-08
1.28527e-09
4.05496e-08
1.26666e-09
4.03993e-08
1.24845e-09
4.02473e-08
1.23064e-09
4.00938e-08
1.21321e-09
3.99387e-08
1.19615e-09
3.97824e-08
1.17945e-09
3.96248e-08
1.16309e-09
3.9466e-08
1.14707e-09
3.93061e-08
1.13137e-09
3.91453e-08
1.116e-09
3.89836e-08
1.10094e-09
3.88211e-08
1.08619e-09
3.86578e-08
1.07173e-09
3.8494e-08
1.05757e-09
3.83295e-08
1.04369e-09
3.81646e-08
1.0301e-09
3.79992e-08
1.01679e-09
3.78335e-08
1.00374e-09
3.76675e-08
9.9096e-10
3.75012e-08
9.78442e-10
3.73348e-08
9.66181e-10
3.71682e-08
9.54172e-10
3.70016e-08
9.42412e-10
3.6835e-08
9.30896e-10
3.66684e-08
9.19622e-10
3.65019e-08
9.08585e-10
3.63355e-08
8.97782e-10
3.61692e-08
8.87212e-10
3.60032e-08
8.7687e-10
3.58374e-08
8.66755e-10
3.56718e-08
8.56864e-10
3.55066e-08
8.47198e-10
3.53416e-08
8.37753e-10
3.5177e-08
8.2853e-10
3.50128e-08
8.19528e-10
3.48489e-08
8.10749e-10
3.46855e-08
8.02193e-10
3.45225e-08
7.93862e-10
3.43599e-08
7.85758e-10
3.41978e-08
7.77887e-10
3.40361e-08
7.70253e-10
3.38748e-08
7.62862e-10
3.3714e-08
7.55725e-10
3.35537e-08
7.48853e-10
3.33938e-08
7.42266e-10
3.32343e-08
7.3599e-10
3.30752e-08
7.3007e-10
3.29165e-08
7.24589e-10
3.27581e-08
7.19708e-10
3.26001e-08
7.1577e-10
3.24424e-08
7.13566e-10
3.22859e-08
7.14896e-10
3.21347e-08
7.22715e-10
7.29345e-10
4.40375e-08
2.27561e-09
-4.39341e-08
4.41739e-08
2.51791e-09
4.43273e-08
2.71147e-09
4.44859e-08
2.8536e-09
4.46424e-08
2.94865e-09
4.47917e-08
3.0017e-09
4.49294e-08
3.01738e-09
4.50526e-08
3.00083e-09
4.51592e-08
2.95796e-09
4.52484e-08
2.89498e-09
4.53203e-08
2.81784e-09
4.53758e-08
2.73198e-09
4.54161e-08
2.64207e-09
4.54431e-08
2.55188e-09
4.54586e-08
2.46422e-09
4.54642e-08
2.38099e-09
4.54617e-08
2.30331e-09
4.54523e-08
2.23165e-09
4.54372e-08
2.16604e-09
4.54172e-08
2.10618e-09
4.5393e-08
2.0516e-09
4.53651e-08
2.00176e-09
4.53338e-08
1.95608e-09
4.52992e-08
1.91401e-09
4.52616e-08
1.87508e-09
4.52211e-08
1.83885e-09
4.51777e-08
1.80495e-09
4.51313e-08
1.77308e-09
4.50822e-08
1.74298e-09
4.50302e-08
1.71442e-09
4.49754e-08
1.68725e-09
4.49179e-08
1.66129e-09
4.48575e-08
1.63643e-09
4.47944e-08
1.61255e-09
4.47286e-08
1.58957e-09
4.46601e-08
1.56741e-09
4.45889e-08
1.54599e-09
4.45151e-08
1.52525e-09
4.44387e-08
1.50514e-09
4.43597e-08
1.48562e-09
4.42782e-08
1.46663e-09
4.41942e-08
1.44816e-09
4.41078e-08
1.43015e-09
4.4019e-08
1.41259e-09
4.39279e-08
1.39545e-09
4.38344e-08
1.3787e-09
4.37388e-08
1.36232e-09
4.36409e-08
1.3463e-09
4.3541e-08
1.33063e-09
4.34389e-08
1.31527e-09
4.33348e-08
1.30023e-09
4.32288e-08
1.28549e-09
4.31208e-08
1.27104e-09
4.3011e-08
1.25688e-09
4.28994e-08
1.24298e-09
4.2786e-08
1.22935e-09
4.2671e-08
1.21597e-09
4.25544e-08
1.20284e-09
4.24361e-08
1.18996e-09
4.23164e-08
1.17731e-09
4.21952e-08
1.16489e-09
4.20726e-08
1.15271e-09
4.19486e-08
1.14074e-09
4.18234e-08
1.12899e-09
4.16969e-08
1.11745e-09
4.15692e-08
1.10613e-09
4.14404e-08
1.09501e-09
4.13105e-08
1.08409e-09
4.11795e-08
1.07337e-09
4.10476e-08
1.06285e-09
4.09147e-08
1.05252e-09
4.07809e-08
1.04239e-09
4.06462e-08
1.03244e-09
4.05107e-08
1.02268e-09
4.03745e-08
1.01311e-09
4.02375e-08
1.00373e-09
4.00998e-08
9.94534e-10
3.99615e-08
9.85523e-10
3.98226e-08
9.76698e-10
3.9683e-08
9.68061e-10
3.95429e-08
9.59612e-10
3.94023e-08
9.51355e-10
3.92612e-08
9.43292e-10
3.91197e-08
9.35427e-10
3.89777e-08
9.27765e-10
3.88352e-08
9.20313e-10
3.86924e-08
9.13078e-10
3.85492e-08
9.06069e-10
3.84056e-08
8.99298e-10
3.82617e-08
8.92782e-10
3.81174e-08
8.86542e-10
3.79728e-08
8.80608e-10
3.78279e-08
8.75031e-10
3.76826e-08
8.69892e-10
3.75369e-08
8.65343e-10
3.7391e-08
8.61674e-10
3.72451e-08
8.59453e-10
3.71004e-08
8.59585e-10
3.69612e-08
8.61996e-10
8.5345e-10
4.57616e-08
2.18356e-09
-4.56696e-08
4.58824e-08
2.39714e-09
4.60202e-08
2.57373e-09
4.61649e-08
2.70885e-09
4.63098e-08
2.80378e-09
4.64497e-08
2.86176e-09
4.65807e-08
2.88636e-09
4.66998e-08
2.88176e-09
4.6805e-08
2.85278e-09
4.68953e-08
2.80462e-09
4.69708e-08
2.7424e-09
4.70319e-08
2.67086e-09
4.70798e-08
2.59415e-09
4.7116e-08
2.51574e-09
4.71419e-08
2.43827e-09
4.71592e-08
2.36366e-09
4.71694e-08
2.29314e-09
4.71737e-08
2.22735e-09
4.71732e-08
2.16653e-09
4.71688e-08
2.1106e-09
4.71611e-08
2.05928e-09
4.71507e-08
2.01219e-09
4.71379e-08
1.96889e-09
4.71229e-08
1.92895e-09
4.7106e-08
1.89198e-09
4.70873e-08
1.85758e-09
4.70668e-08
1.82546e-09
4.70446e-08
1.79531e-09
4.70206e-08
1.76692e-09
4.6995e-08
1.74007e-09
4.69676e-08
1.7146e-09
4.69385e-08
1.69036e-09
4.69077e-08
1.66722e-09
4.68752e-08
1.64509e-09
4.68409e-08
1.62386e-09
4.68049e-08
1.60346e-09
4.67671e-08
1.58381e-09
4.67274e-08
1.56486e-09
4.6686e-08
1.54656e-09
4.66428e-08
1.52884e-09
4.65977e-08
1.51168e-09
4.65509e-08
1.49503e-09
4.65022e-08
1.47886e-09
4.64516e-08
1.46313e-09
4.63992e-08
1.44782e-09
4.6345e-08
1.43291e-09
4.6289e-08
1.41837e-09
4.62311e-08
1.40419e-09
4.61714e-08
1.39034e-09
4.61098e-08
1.37681e-09
4.60465e-08
1.36358e-09
4.59813e-08
1.35065e-09
4.59144e-08
1.33799e-09
4.58457e-08
1.3256e-09
4.57752e-08
1.31347e-09
4.57029e-08
1.30159e-09
4.5629e-08
1.28994e-09
4.55533e-08
1.27853e-09
4.54759e-08
1.26734e-09
4.53968e-08
1.25637e-09
4.53161e-08
1.24561e-09
4.52338e-08
1.23505e-09
4.51498e-08
1.22469e-09
4.50643e-08
1.21453e-09
4.49772e-08
1.20455e-09
4.48885e-08
1.19477e-09
4.47984e-08
1.18516e-09
4.47068e-08
1.17573e-09
4.46137e-08
1.16647e-09
4.45191e-08
1.15738e-09
4.44232e-08
1.14846e-09
4.43259e-08
1.13971e-09
4.42272e-08
1.13112e-09
4.41272e-08
1.12269e-09
4.40259e-08
1.11442e-09
4.39233e-08
1.10631e-09
4.38195e-08
1.09836e-09
4.37144e-08
1.09057e-09
4.36082e-08
1.08295e-09
4.35008e-08
1.07548e-09
4.33922e-08
1.06818e-09
4.32825e-08
1.06105e-09
4.31717e-08
1.05409e-09
4.30598e-08
1.04731e-09
4.29469e-08
1.04071e-09
4.28329e-08
1.03429e-09
4.27179e-08
1.02808e-09
4.26019e-08
1.02208e-09
4.24849e-08
1.01631e-09
4.23669e-08
1.01077e-09
4.22479e-08
1.0055e-09
4.2128e-08
1.00053e-09
4.20071e-08
9.95908e-10
4.18853e-08
9.91706e-10
4.17626e-08
9.8805e-10
4.16391e-08
9.85147e-10
4.15153e-08
9.83279e-10
4.13924e-08
9.82503e-10
4.12738e-08
9.80621e-10
9.62495e-10
4.75436e-08
2.10047e-09
-4.74605e-08
4.76514e-08
2.28935e-09
4.77753e-08
2.44982e-09
4.79072e-08
2.57695e-09
4.80408e-08
2.6702e-09
4.81713e-08
2.73128e-09
4.82948e-08
2.7628e-09
4.84086e-08
2.76803e-09
4.85105e-08
2.75086e-09
4.85995e-08
2.71558e-09
4.86754e-08
2.66652e-09
4.87385e-08
2.60779e-09
4.87896e-08
2.54305e-09
4.88299e-08
2.47542e-09
4.88608e-08
2.4074e-09
4.88836e-08
2.34085e-09
4.88997e-08
2.27705e-09
4.89102e-08
2.21678e-09
4.89163e-08
2.16044e-09
4.89188e-08
2.10813e-09
4.89184e-08
2.05972e-09
4.89156e-08
2.015e-09
4.89108e-08
1.97365e-09
4.89044e-08
1.93536e-09
4.88966e-08
1.89979e-09
4.88875e-08
1.86665e-09
4.88773e-08
1.83566e-09
4.8866e-08
1.80657e-09
4.88538e-08
1.77918e-09
4.88405e-08
1.7533e-09
4.88264e-08
1.72878e-09
4.88112e-08
1.70548e-09
4.87952e-08
1.68328e-09
4.87782e-08
1.66209e-09
4.87602e-08
1.64181e-09
4.87413e-08
1.62238e-09
4.87214e-08
1.60371e-09
4.87005e-08
1.58576e-09
4.86786e-08
1.56847e-09
4.86556e-08
1.55179e-09
4.86316e-08
1.53568e-09
4.86066e-08
1.52011e-09
4.85804e-08
1.50504e-09
4.85531e-08
1.49043e-09
4.85246e-08
1.47627e-09
4.8495e-08
1.46252e-09
4.84642e-08
1.44917e-09
4.84322e-08
1.43619e-09
4.8399e-08
1.42356e-09
4.83645e-08
1.41128e-09
4.83288e-08
1.39931e-09
4.82918e-08
1.38765e-09
4.82535e-08
1.37629e-09
4.82139e-08
1.36521e-09
4.8173e-08
1.3544e-09
4.81307e-08
1.34385e-09
4.80871e-08
1.33356e-09
4.80421e-08
1.3235e-09
4.79958e-08
1.31368e-09
4.79481e-08
1.30408e-09
4.7899e-08
1.2947e-09
4.78485e-08
1.28553e-09
4.77966e-08
1.27657e-09
4.77433e-08
1.2678e-09
4.76886e-08
1.25923e-09
4.76326e-08
1.25084e-09
4.75751e-08
1.24263e-09
4.75162e-08
1.23461e-09
4.74559e-08
1.22675e-09
4.73943e-08
1.21906e-09
4.73312e-08
1.21154e-09
4.72667e-08
1.20418e-09
4.72008e-08
1.19698e-09
4.71336e-08
1.18994e-09
4.70649e-08
1.18305e-09
4.69949e-08
1.17632e-09
4.69235e-08
1.16974e-09
4.68508e-08
1.16332e-09
4.67767e-08
1.15705e-09
4.67012e-08
1.15094e-09
4.66244e-08
1.14498e-09
4.65463e-08
1.13919e-09
4.64668e-08
1.13356e-09
4.6386e-08
1.1281e-09
4.63039e-08
1.12282e-09
4.62205e-08
1.11772e-09
4.61358e-08
1.11282e-09
4.60497e-08
1.10812e-09
4.59624e-08
1.10365e-09
4.58737e-08
1.09941e-09
4.57838e-08
1.09544e-09
4.56926e-08
1.09176e-09
4.56e-08
1.08842e-09
4.55063e-08
1.08549e-09
4.54113e-08
1.08304e-09
4.53152e-08
1.08119e-09
4.52186e-08
1.07994e-09
4.51224e-08
1.07872e-09
4.50287e-08
1.07424e-09
1.05239e-09
4.93858e-08
2.02471e-09
-4.93101e-08
4.94827e-08
2.19245e-09
4.95945e-08
2.33803e-09
4.97146e-08
2.45682e-09
4.98376e-08
2.54728e-09
4.99588e-08
2.61001e-09
5.00749e-08
2.64676e-09
5.01829e-08
2.66e-09
5.02809e-08
2.65282e-09
5.03678e-08
2.62873e-09
5.0443e-08
2.59132e-09
5.05067e-08
2.54412e-09
5.05594e-08
2.49032e-09
5.06021e-08
2.43271e-09
5.06359e-08
2.3736e-09
5.0662e-08
2.31476e-09
5.06816e-08
2.25749e-09
5.06957e-08
2.20265e-09
5.07054e-08
2.15076e-09
5.07115e-08
2.10206e-09
5.07146e-08
2.05656e-09
5.07154e-08
2.01418e-09
5.07144e-08
1.97473e-09
5.07117e-08
1.93798e-09
5.07079e-08
1.90368e-09
5.07029e-08
1.8716e-09
5.06971e-08
1.84151e-09
5.06904e-08
1.8132e-09
5.06831e-08
1.78651e-09
5.06752e-08
1.76125e-09
5.06666e-08
1.7373e-09
5.06576e-08
1.71454e-09
5.0648e-08
1.69285e-09
5.06379e-08
1.67215e-09
5.06274e-08
1.65236e-09
5.06164e-08
1.6334e-09
5.06049e-08
1.61521e-09
5.05929e-08
1.59773e-09
5.05804e-08
1.58092e-09
5.05675e-08
1.56474e-09
5.0554e-08
1.54914e-09
5.05401e-08
1.53408e-09
5.05256e-08
1.51954e-09
5.05105e-08
1.50549e-09
5.04949e-08
1.4919e-09
5.04787e-08
1.47875e-09
5.04618e-08
1.46601e-09
5.04443e-08
1.45366e-09
5.04262e-08
1.4417e-09
5.04074e-08
1.43009e-09
5.03879e-08
1.41883e-09
5.03676e-08
1.4079e-09
5.03466e-08
1.39728e-09
5.03249e-08
1.38698e-09
5.03023e-08
1.37696e-09
5.02789e-08
1.36724e-09
5.02547e-08
1.35778e-09
5.02296e-08
1.34859e-09
5.02037e-08
1.33965e-09
5.01768e-08
1.33096e-09
5.0149e-08
1.32251e-09
5.01202e-08
1.31429e-09
5.00905e-08
1.30629e-09
5.00598e-08
1.29851e-09
5.00281e-08
1.29094e-09
4.99953e-08
1.28357e-09
4.99616e-08
1.27641e-09
4.99267e-08
1.26944e-09
4.98908e-08
1.26265e-09
4.98538e-08
1.25605e-09
4.98158e-08
1.24963e-09
4.97765e-08
1.24339e-09
4.97362e-08
1.23732e-09
4.96947e-08
1.23142e-09
4.96521e-08
1.22569e-09
4.96083e-08
1.22012e-09
4.95633e-08
1.21472e-09
4.95171e-08
1.20949e-09
4.94698e-08
1.20442e-09
4.94212e-08
1.19952e-09
4.93714e-08
1.19478e-09
4.93204e-08
1.19022e-09
4.92681e-08
1.18583e-09
4.92146e-08
1.18161e-09
4.91598e-08
1.17759e-09
4.91038e-08
1.17376e-09
4.90465e-08
1.17014e-09
4.89879e-08
1.16673e-09
4.8928e-08
1.16355e-09
4.88668e-08
1.16062e-09
4.88042e-08
1.15796e-09
4.87404e-08
1.15561e-09
4.86752e-08
1.15359e-09
4.86088e-08
1.15196e-09
4.8541e-08
1.15076e-09
4.84722e-08
1.15e-09
4.84027e-08
1.1495e-09
4.83331e-08
1.14829e-09
4.82644e-08
1.14293e-09
1.12213e-09
5.12908e-08
1.95509e-09
-5.12211e-08
5.13785e-08
2.10474e-09
5.14796e-08
2.23687e-09
5.15891e-08
2.34739e-09
5.1702e-08
2.43433e-09
5.18145e-08
2.49756e-09
5.19231e-08
2.53811e-09
5.20253e-08
2.55779e-09
5.21191e-08
2.559e-09
5.22033e-08
2.54454e-09
5.22773e-08
2.5174e-09
5.23408e-08
2.48053e-09
5.23944e-08
2.43671e-09
5.24388e-08
2.3884e-09
5.24747e-08
2.33769e-09
5.25032e-08
2.28624e-09
5.25253e-08
2.23535e-09
5.25421e-08
2.18591e-09
5.25543e-08
2.13851e-09
5.25629e-08
2.09351e-09
5.25684e-08
2.05104e-09
5.25714e-08
2.01112e-09
5.25725e-08
1.97366e-09
5.2572e-08
1.93853e-09
5.25701e-08
1.90555e-09
5.25671e-08
1.87455e-09
5.25633e-08
1.84535e-09
5.25587e-08
1.81778e-09
5.25535e-08
1.79171e-09
5.25478e-08
1.76698e-09
5.25416e-08
1.74349e-09
5.2535e-08
1.72111e-09
5.25281e-08
1.69977e-09
5.25209e-08
1.67937e-09
5.25134e-08
1.65984e-09
5.25057e-08
1.64113e-09
5.24977e-08
1.62317e-09
5.24896e-08
1.60591e-09
5.24812e-08
1.58931e-09
5.24726e-08
1.57332e-09
5.24638e-08
1.55792e-09
5.24548e-08
1.54306e-09
5.24456e-08
1.52873e-09
5.24362e-08
1.51489e-09
5.24266e-08
1.50151e-09
5.24168e-08
1.48859e-09
5.24067e-08
1.47609e-09
5.23964e-08
1.464e-09
5.23858e-08
1.4523e-09
5.23749e-08
1.44097e-09
5.23637e-08
1.43001e-09
5.23522e-08
1.4194e-09
5.23404e-08
1.40912e-09
5.23282e-08
1.39917e-09
5.23156e-08
1.38954e-09
5.23026e-08
1.3802e-09
5.22892e-08
1.37116e-09
5.22754e-08
1.36241e-09
5.22611e-08
1.35393e-09
5.22464e-08
1.34572e-09
5.22311e-08
1.33777e-09
5.22153e-08
1.33008e-09
5.2199e-08
1.32262e-09
5.21821e-08
1.31541e-09
5.21646e-08
1.30843e-09
5.21465e-08
1.30168e-09
5.21278e-08
1.29515e-09
5.21084e-08
1.28883e-09
5.20883e-08
1.28272e-09
5.20675e-08
1.27682e-09
5.2046e-08
1.27112e-09
5.20238e-08
1.26562e-09
5.20008e-08
1.26031e-09
5.1977e-08
1.25519e-09
5.19525e-08
1.25027e-09
5.19271e-08
1.24552e-09
5.19008e-08
1.24097e-09
5.18737e-08
1.2366e-09
5.18457e-08
1.23241e-09
5.18168e-08
1.22841e-09
5.1787e-08
1.22459e-09
5.17563e-08
1.22097e-09
5.17246e-08
1.21754e-09
5.16919e-08
1.21431e-09
5.16582e-08
1.21129e-09
5.16234e-08
1.20848e-09
5.15877e-08
1.2059e-09
5.15509e-08
1.20355e-09
5.1513e-08
1.20145e-09
5.1474e-08
1.19962e-09
5.14338e-08
1.19808e-09
5.13926e-08
1.19686e-09
5.13502e-08
1.19598e-09
5.13067e-08
1.19548e-09
5.12621e-08
1.19537e-09
5.12165e-08
1.19558e-09
5.11702e-08
1.1958e-09
5.11235e-08
1.19496e-09
5.10764e-08
1.19007e-09
1.17332e-09
5.3261e-08
1.89076e-09
-5.31967e-08
5.33408e-08
2.02492e-09
5.34327e-08
2.14503e-09
5.35324e-08
2.24762e-09
5.36361e-08
2.33064e-09
5.37402e-08
2.39348e-09
5.38417e-08
2.43665e-09
5.3938e-08
2.46141e-09
5.40274e-08
2.46958e-09
5.41086e-08
2.46336e-09
5.41808e-08
2.44519e-09
5.42438e-08
2.41753e-09
5.42978e-08
2.38276e-09
5.43432e-08
2.34301e-09
5.43807e-08
2.30018e-09
5.44111e-08
2.25579e-09
5.44354e-08
2.21109e-09
5.44543e-08
2.16698e-09
5.44687e-08
2.12411e-09
5.44793e-08
2.0829e-09
5.44868e-08
2.04358e-09
5.44916e-08
2.00626e-09
5.44944e-08
1.97094e-09
5.44953e-08