/*--------------------------------*- C++ -*----------------------------------*\
| =========                 |                                                 |
| \\      /  F ield         | OpenFOAM: The Open Source CFD Toolbox           |
|  \\    /   O peration     | Version:  2.3.0                                 |
|   \\  /    A nd           | Web:      www.OpenFOAM.org                      |
|    \\/     M anipulation  |                                                 |
\*---------------------------------------------------------------------------*/
FoamFile
{
    version     2.0;
    format      ascii;
    class       surfaceScalarField;
    location    "0.1";
    object      phi_0;
}
// * * * * * * * * * * * * * * * * * * * * * * * * * * * * * * * * * * * * * //

dimensions      [0 3 -1 0 0 0 0];

internalField   nonuniform List<scalar> 
3859
(
2.80536e-08
2.90698e-09
-3.09606e-08
2.51658e-08
2.88785e-09
2.24578e-08
2.70797e-09
1.99648e-08
2.49301e-09
1.77042e-08
2.26057e-09
1.56877e-08
2.01648e-09
1.39182e-08
1.76953e-09
1.23901e-08
1.52807e-09
1.1091e-08
1.29914e-09
1.00025e-08
1.08852e-09
9.10207e-09
9.00403e-10
8.3649e-09
7.37161e-10
7.76558e-09
5.99327e-10
7.27977e-09
4.85813e-10
6.88543e-09
3.94332e-10
6.56356e-09
3.21868e-10
6.29844e-09
2.65127e-10
6.07754e-09
2.20897e-10
5.89125e-09
1.8629e-10
5.73239e-09
1.58862e-10
5.59576e-09
1.36634e-10
5.47774e-09
1.18017e-10
5.37603e-09
1.01712e-10
5.28942e-09
8.66084e-11
5.21764e-09
7.17815e-11
5.16113e-09
5.65093e-11
5.12105e-09
4.00756e-11
5.09903e-09
2.20224e-11
5.09536e-09
3.66456e-12
5.10534e-09
-9.97241e-12
5.12487e-09
-1.95365e-11
5.151e-09
-2.61243e-11
5.18056e-09
-2.95665e-11
5.21076e-09
-3.01966e-11
5.23965e-09
-2.88936e-11
5.26615e-09
-2.64917e-11
5.28974e-09
-2.35966e-11
5.31034e-09
-2.05971e-11
5.32806e-09
-1.77193e-11
5.34314e-09
-1.50801e-11
5.35587e-09
-1.27285e-11
5.36654e-09
-1.06743e-11
5.37545e-09
-8.90449e-12
5.38284e-09
-7.39557e-12
5.38896e-09
-6.12011e-12
5.39401e-09
-5.05011e-12
5.39817e-09
-4.1588e-12
5.40159e-09
-3.42133e-12
5.40441e-09
-2.81476e-12
5.40673e-09
-2.31851e-12
5.40864e-09
-1.91425e-12
5.41023e-09
-1.5859e-12
5.41155e-09
-1.31951e-12
5.41265e-09
-1.10321e-12
5.41358e-09
-9.2705e-13
5.41436e-09
-7.82868e-13
5.41502e-09
-6.64058e-13
5.41559e-09
-5.65373e-13
5.41607e-09
-4.82711e-13
5.41648e-09
-4.12899e-13
5.41684e-09
-3.53506e-13
5.41714e-09
-3.02671e-13
5.4174e-09
-2.58967e-13
5.41762e-09
-2.21284e-13
5.41781e-09
-1.88746e-13
5.41797e-09
-1.60643e-13
5.41811e-09
-1.3639e-13
5.41822e-09
-1.15491e-13
5.41832e-09
-9.75184e-14
5.4184e-09
-8.20993e-14
5.41847e-09
-6.89007e-14
5.41853e-09
-5.76343e-14
5.41858e-09
-4.80356e-14
5.41862e-09
-3.98856e-14
5.41865e-09
-3.29755e-14
5.41868e-09
-2.71408e-14
5.4187e-09
-2.22205e-14
5.41872e-09
-1.80856e-14
5.41873e-09
-1.46196e-14
5.41874e-09
-1.17166e-14
5.41875e-09
-9.30049e-15
5.41876e-09
-7.2841e-15
5.41876e-09
-5.61989e-15
5.41877e-09
-4.24147e-15
5.41877e-09
-3.10841e-15
5.41877e-09
-2.18959e-15
5.41878e-09
-1.42871e-15
5.41878e-09
-8.35363e-16
5.41878e-09
-3.44776e-16
5.41878e-09
8.14161e-18
5.41878e-09
2.59576e-16
5.41878e-09
4.48563e-16
5.41878e-09
5.78e-16
5.41877e-09
6.71116e-16
5.41877e-09
7.20014e-16
5.41877e-09
7.59685e-16
5.41877e-09
7.98872e-16
5.41877e-09
8.17512e-16
5.41877e-09
7.70116e-16
1.53337e-15
3.59715e-08
3.18098e-09
-3.62455e-08
3.53738e-08
3.4856e-09
3.45335e-08
3.54825e-09
3.35291e-08
3.49735e-09
3.24179e-08
3.37178e-09
3.12474e-08
3.18705e-09
3.00563e-08
2.96058e-09
2.88749e-08
2.70949e-09
2.77256e-08
2.44846e-09
2.66245e-08
2.18964e-09
2.55823e-08
1.9426e-09
2.46053e-08
1.7141e-09
2.36966e-08
1.50806e-09
2.28565e-08
1.32587e-09
2.20839e-08
1.16695e-09
2.13764e-08
1.02939e-09
2.0731e-08
9.1049e-10
2.01446e-08
8.07289e-10
1.96141e-08
7.16874e-10
1.91364e-08
6.36575e-10
1.8709e-08
5.64023e-10
1.83299e-08
4.97117e-10
1.79976e-08
4.33971e-10
1.77113e-08
3.729e-10
1.74705e-08
3.12543e-10
1.72749e-08
2.52132e-10
1.71232e-08
1.91751e-10
1.70131e-08
1.322e-10
1.6944e-08
7.26985e-11
1.69196e-08
1.44942e-11
1.6933e-08
-3.29465e-11
1.69704e-08
-6.35145e-11
1.70219e-08
-8.11185e-11
1.70804e-08
-8.87019e-11
1.71407e-08
-8.91447e-11
1.71992e-08
-8.49766e-11
1.72537e-08
-7.81618e-11
1.73032e-08
-7.00908e-11
1.73472e-08
-6.16813e-11
1.73856e-08
-5.35002e-11
1.74187e-08
-4.58717e-11
1.7447e-08
-3.89596e-11
1.7471e-08
-3.2826e-11
1.7491e-08
-2.74708e-11
1.75078e-08
-2.28577e-11
1.75216e-08
-1.89303e-11
1.75331e-08
-1.56218e-11
1.75426e-08
-1.28613e-11
1.75503e-08
-1.05781e-11
1.75567e-08
-8.70385e-12
1.7562e-08
-7.17492e-12
1.75663e-08
-5.93334e-12
1.75699e-08
-4.92768e-12
1.75729e-08
-4.1133e-12
1.75755e-08
-3.45238e-12
1.75776e-08
-2.91358e-12
1.75794e-08
-2.47143e-12
1.75809e-08
-2.10564e-12
1.75822e-08
-1.80034e-12
1.75834e-08
-1.54323e-12
1.75844e-08
-1.32494e-12
1.75852e-08
-1.13831e-12
1.75859e-08
-9.77869e-13
1.75865e-08
-8.39424e-13
1.75871e-08
-7.1968e-13
1.75875e-08
-6.16006e-13
1.75879e-08
-5.2625e-13
1.75882e-08
-4.48605e-13
1.75885e-08
-3.81528e-13
1.75888e-08
-3.23682e-13
1.7589e-08
-2.73889e-13
1.75891e-08
-2.31118e-13
1.75893e-08
-1.9445e-13
1.75894e-08
-1.63083e-13
1.75895e-08
-1.36306e-13
1.75896e-08
-1.13494e-13
1.75897e-08
-9.41036e-14
1.75897e-08
-7.76506e-14
1.75898e-08
-6.37251e-14
1.75898e-08
-5.19559e-14
1.75898e-08
-4.20384e-14
1.75899e-08
-3.36953e-14
1.75899e-08
-2.66984e-14
1.75899e-08
-2.08485e-14
1.75899e-08
-1.59665e-14
1.75899e-08
-1.19204e-14
1.75899e-08
-8.56383e-15
1.75899e-08
-5.81282e-15
1.759e-08
-3.56579e-15
1.759e-08
-1.75912e-15
1.759e-08
-3.93088e-16
1.759e-08
5.90561e-16
1.759e-08
1.29586e-15
1.759e-08
1.8733e-15
1.759e-08
2.34596e-15
1.75899e-08
2.74979e-15
1.75899e-08
3.11152e-15
1.75899e-08
3.38245e-15
1.75899e-08
3.62642e-15
4.15681e-15
4.06382e-08
3.00089e-09
-4.04581e-08
4.07375e-08
3.38633e-09
4.07109e-08
3.57486e-09
4.05606e-08
3.64759e-09
4.0295e-08
3.63746e-09
3.99264e-08
3.55559e-09
3.94719e-08
3.41514e-09
3.89494e-08
3.23194e-09
3.83767e-08
3.0212e-09
3.77699e-08
2.79644e-09
3.71434e-08
2.56913e-09
3.65093e-08
2.34817e-09
3.58776e-08
2.13972e-09
3.52562e-08
1.94724e-09
3.46512e-08
1.77195e-09
3.40673e-08
1.61338e-09
3.35078e-08
1.46994e-09
3.29757e-08
1.33942e-09
3.24732e-08
1.2194e-09
3.20023e-08
1.10742e-09
3.15652e-08
1.00117e-09
3.11638e-08
8.9848e-10
3.08004e-08
7.97394e-10
3.0477e-08
6.96275e-10
3.01955e-08
5.94063e-10
2.9957e-08
4.906e-10
2.9762e-08
3.86803e-10
2.96095e-08
2.84678e-10
2.9495e-08
1.87179e-10
2.94125e-08
9.69619e-11
2.93637e-08
1.58871e-11
2.93498e-08
-4.95956e-11
2.93636e-08
-9.49305e-11
2.9398e-08
-1.23109e-10
2.94466e-08
-1.37758e-10
2.9504e-08
-1.4233e-10
2.95656e-08
-1.39831e-10
2.96282e-08
-1.3267e-10
2.96892e-08
-1.22668e-10
2.97469e-08
-1.11153e-10
2.98001e-08
-9.90652e-11
2.98482e-08
-8.70548e-11
2.98909e-08
-7.55577e-11
2.99283e-08
-6.48548e-11
2.99605e-08
-5.51135e-11
2.9988e-08
-4.6417e-11
3.00112e-08
-3.87858e-11
3.00305e-08
-3.21939e-11
3.00465e-08
-2.65815e-11
3.00597e-08
-2.18658e-11
3.00704e-08
-1.79502e-11
3.00792e-08
-1.47322e-11
3.00864e-08
-1.21094e-11
3.00923e-08
-9.98472e-12
3.00971e-08
-8.26966e-12
3.01011e-08
-6.88628e-12
3.01044e-08
-5.76805e-12
3.01071e-08
-4.85979e-12
3.01095e-08
-4.11682e-12
3.01114e-08
-3.50375e-12
3.01131e-08
-2.9931e-12
3.01145e-08
-2.56378e-12
3.01157e-08
-2.19979e-12
3.01168e-08
-1.88898e-12
3.01177e-08
-1.62215e-12
3.01185e-08
-1.39219e-12
3.01191e-08
-1.19354e-12
3.01197e-08
-1.02176e-12
3.01202e-08
-8.73171e-13
3.01206e-08
-7.44729e-13
3.0121e-08
-6.33815e-13
3.01213e-08
-5.38168e-13
3.01215e-08
-4.55817e-13
3.01218e-08
-3.85031e-13
3.0122e-08
-3.24296e-13
3.01221e-08
-2.72272e-13
3.01222e-08
-2.27797e-13
3.01224e-08
-1.89835e-13
3.01225e-08
-1.575e-13
3.01225e-08
-1.30002e-13
3.01226e-08
-1.06666e-13
3.01226e-08
-8.69023e-14
3.01227e-08
-7.01962e-14
3.01227e-08
-5.61176e-14
3.01228e-08
-4.42697e-14
3.01228e-08
-3.43432e-14
3.01228e-08
-2.60413e-14
3.01228e-08
-1.91307e-14
3.01228e-08
-1.3419e-14
3.01228e-08
-8.7141e-15
3.01228e-08
-4.92092e-15
3.01228e-08
-1.90947e-15
3.01228e-08
3.34778e-16
3.01228e-08
2.06925e-15
3.01228e-08
3.54542e-15
3.01228e-08
4.79951e-15
3.01228e-08
5.87718e-15
3.01228e-08
6.7246e-15
3.01228e-08
7.35334e-15
7.03626e-15
4.51379e-08
2.78109e-09
-4.49181e-08
4.5376e-08
3.14823e-09
4.55804e-08
3.37046e-09
4.57354e-08
3.49258e-09
4.58323e-08
3.54059e-09
4.58646e-08
3.52329e-09
4.58307e-08
3.44904e-09
4.57332e-08
3.32937e-09
4.55779e-08
3.17657e-09
4.5372e-08
3.00226e-09
4.51244e-08
2.81677e-09
4.48439e-08
2.6287e-09
4.45391e-08
2.44452e-09
4.42179e-08
2.26846e-09
4.38871e-08
2.1027e-09
4.35527e-08
1.94779e-09
4.32196e-08
1.80305e-09
4.2892e-08
1.66704e-09
4.25735e-08
1.53788e-09
4.22674e-08
1.41349e-09
4.19768e-08
1.2918e-09
4.17044e-08
1.17081e-09
4.14531e-08
1.04873e-09
4.12251e-08
9.2425e-10
4.10224e-08
7.96762e-10
4.08463e-08
6.66728e-10
4.06973e-08
5.35827e-10
4.0575e-08
4.06967e-10
4.0478e-08
2.84183e-10
4.04027e-08
1.72228e-10
4.03442e-08
7.44209e-11
4.03029e-08
-8.30871e-12
4.02806e-08
-7.25988e-11
4.0276e-08
-1.18515e-10
4.02869e-08
-1.48708e-10
4.03108e-08
-1.66188e-10
4.03447e-08
-1.73788e-10
4.0386e-08
-1.73973e-10
4.04322e-08
-1.68777e-10
4.04808e-08
-1.59829e-10
4.05302e-08
-1.48404e-10
4.05786e-08
-1.35498e-10
4.06249e-08
-1.21883e-10
4.06682e-08
-1.08155e-10
4.07079e-08
-9.47718e-11
4.07436e-08
-8.20735e-11
4.07751e-08
-7.03022e-11
4.08025e-08
-5.96148e-11
4.0826e-08
-5.00945e-11
4.08459e-08
-4.17624e-11
4.08625e-08
-3.45889e-11
4.08763e-08
-2.85054e-11
4.08876e-08
-2.34164e-11
4.08968e-08
-1.92098e-11
4.09043e-08
-1.57672e-11
4.09104e-08
-1.29713e-11
4.09154e-08
-1.07119e-11
4.09194e-08
-8.88986e-12
4.09227e-08
-7.41935e-12
4.09254e-08
-6.22811e-12
4.09277e-08
-5.25715e-12
4.09296e-08
-4.45939e-12
4.09312e-08
-3.79802e-12
4.09325e-08
-3.2447e-12
4.09337e-08
-2.77782e-12
4.09347e-08
-2.381e-12
4.09355e-08
-2.04171e-12
4.09363e-08
-1.75038e-12
4.09369e-08
-1.49948e-12
4.09374e-08
-1.28304e-12
4.09379e-08
-1.0962e-12
4.09383e-08
-9.34915e-13
4.09386e-08
-7.95779e-13
4.09389e-08
-6.7586e-13
4.09392e-08
-5.72634e-13
4.09394e-08
-4.83891e-13
4.09396e-08
-4.07723e-13
4.09397e-08
-3.42438e-13
4.09398e-08
-2.8658e-13
4.09399e-08
-2.38861e-13
4.094e-08
-1.98166e-13
4.09401e-08
-1.63529e-13
4.09402e-08
-1.34093e-13
4.09402e-08
-1.09144e-13
4.09403e-08
-8.80264e-14
4.09403e-08
-7.02095e-14
4.09403e-08
-5.5211e-14
4.09404e-08
-4.26192e-14
4.09404e-08
-3.21119e-14
4.09404e-08
-2.33551e-14
4.09404e-08
-1.61485e-14
4.09404e-08
-1.0224e-14
4.09404e-08
-5.40595e-15
4.09404e-08
-1.54099e-15
4.09404e-08
1.57998e-15
4.09404e-08
4.1564e-15
4.09404e-08
6.31586e-15
4.09404e-08
8.00601e-15
4.09404e-08
9.11179e-15
8.56419e-15
5.00172e-08
2.58968e-09
-4.98258e-08
5.02537e-08
2.91172e-09
5.04932e-08
3.13102e-09
5.07189e-08
3.26684e-09
5.09218e-08
3.33771e-09
5.10931e-08
3.35198e-09
5.12262e-08
3.31596e-09
5.13175e-08
3.23801e-09
5.13665e-08
3.12764e-09
5.13746e-08
2.99413e-09
5.13454e-08
2.846e-09
5.12835e-08
2.69057e-09
5.11944e-08
2.53363e-09
5.10836e-08
2.37929e-09
5.09562e-08
2.23001e-09
5.08172e-08
2.08682e-09
5.06706e-08
1.94963e-09
5.05201e-08
1.81758e-09
5.03687e-08
1.68929e-09
5.02191e-08
1.56311e-09
5.00736e-08
1.4373e-09
4.99342e-08
1.31018e-09
4.98026e-08
1.18034e-09
4.968e-08
1.04681e-09
4.95673e-08
9.09438e-10
4.9465e-08
7.69076e-10
4.9373e-08
6.27776e-10
4.92913e-08
4.88748e-10
4.92193e-08
3.56183e-10
4.91566e-08
2.34851e-10
4.91022e-08
1.28879e-10
4.90544e-08
3.94493e-11
4.90149e-08
-3.31129e-11
4.89851e-08
-8.8711e-11
4.89654e-08
-1.28988e-10
4.89555e-08
-1.56243e-10
4.89545e-08
-1.72809e-10
4.89613e-08
-1.80825e-10
4.89747e-08
-1.82154e-10
4.89933e-08
-1.78363e-10
4.90156e-08
-1.70753e-10
4.90405e-08
-1.60396e-10
4.90668e-08
-1.48183e-10
4.90935e-08
-1.34853e-10
4.91197e-08
-1.21021e-10
4.91449e-08
-1.07195e-10
4.91684e-08
-9.37839e-11
4.91898e-08
-8.11035e-11
4.92091e-08
-6.93842e-11
4.92261e-08
-5.87757e-11
4.92409e-08
-4.93551e-11
4.92535e-08
-4.11364e-11
4.92642e-08
-3.40827e-11
4.92731e-08
-2.81179e-11
4.92805e-08
-2.31399e-11
4.92865e-08
-1.90317e-11
4.92915e-08
-1.56715e-11
4.92956e-08
-1.29407e-11
4.92989e-08
-1.07295e-11
4.93016e-08
-8.94048e-12
4.93038e-08
-7.48993e-12
4.93057e-08
-6.30841e-12
4.93072e-08
-5.33959e-12
4.93085e-08
-4.53884e-12
4.93096e-08
-3.87135e-12
4.93105e-08
-3.31032e-12
4.93113e-08
-2.83524e-12
4.9312e-08
-2.43042e-12
4.93126e-08
-2.08377e-12
4.93131e-08
-1.78588e-12
4.93135e-08
-1.5293e-12
4.93139e-08
-1.308e-12
4.93142e-08
-1.11705e-12
4.93145e-08
-9.52301e-13
4.93147e-08
-8.1024e-13
4.93149e-08
-6.87844e-13
4.93151e-08
-5.82518e-13
4.93153e-08
-4.91986e-13
4.93154e-08
-4.14283e-13
4.93155e-08
-3.47687e-13
4.93156e-08
-2.90696e-13
4.93157e-08
-2.42013e-13
4.93157e-08
-2.00485e-13
4.93158e-08
-1.65142e-13
4.93158e-08
-1.35106e-13
4.93159e-08
-1.09644e-13
4.93159e-08
-8.81098e-14
4.93159e-08
-6.99344e-14
4.9316e-08
-5.467e-14
4.9316e-08
-4.18639e-14
4.9316e-08
-3.121e-14
4.9316e-08
-2.2355e-14
4.9316e-08
-1.50313e-14
4.9316e-08
-8.96639e-15
4.9316e-08
-3.93253e-15
4.9316e-08
1.80488e-16
4.9316e-08
3.53207e-15
4.9316e-08
6.14508e-15
4.9316e-08
7.88281e-15
8.03567e-15
5.54e-08
2.42826e-09
-5.52386e-08
5.56104e-08
2.70133e-09
5.58377e-08
2.90374e-09
5.6065e-08
3.03952e-09
5.62834e-08
3.11933e-09
5.64852e-08
3.15011e-09
5.66641e-08
3.13706e-09
5.68157e-08
3.08643e-09
5.69378e-08
3.00558e-09
5.703e-08
2.90192e-09
5.70936e-08
2.78239e-09
5.71311e-08
2.65308e-09
5.71457e-08
2.51897e-09
5.71412e-08
2.38379e-09
5.71213e-08
2.24998e-09
5.70893e-08
2.1188e-09
5.70483e-08
1.99057e-09
5.7001e-08
1.86488e-09
5.69495e-08
1.74082e-09
5.68954e-08
1.61718e-09
5.68401e-08
1.49265e-09
5.67843e-08
1.36596e-09
5.67286e-08
1.23608e-09
5.66729e-08
1.10244e-09
5.66172e-08
9.65183e-10
5.65609e-08
8.25342e-10
5.65037e-08
6.84967e-10
5.64454e-08
5.47068e-10
5.63862e-08
4.154e-10
5.6327e-08
2.94048e-10
5.62693e-08
1.86628e-10
5.62136e-08
9.51056e-11
5.6161e-08
1.94484e-11
5.61134e-08
-4.10265e-11
5.60717e-08
-8.73389e-11
5.60367e-08
-1.21195e-10
5.60083e-08
-1.44454e-10
5.59864e-08
-1.58908e-10
5.59704e-08
-1.66183e-10
5.59598e-08
-1.67702e-10
5.59537e-08
-1.64692e-10
5.59515e-08
-1.58201e-10
5.59524e-08
-1.49129e-10
5.59558e-08
-1.38253e-10
5.59611e-08
-1.26242e-10
5.59675e-08
-1.13668e-10
5.59748e-08
-1.01012e-10
5.59823e-08
-8.86707e-11
5.59899e-08
-7.69527e-11
5.59972e-08
-6.60853e-11
5.60041e-08
-5.62182e-11
5.60104e-08
-4.74307e-11
5.6016e-08
-3.97413e-11
5.6021e-08
-3.31199e-11
5.60254e-08
-2.74988e-11
5.60291e-08
-2.27859e-11
5.60323e-08
-1.8875e-11
5.60351e-08
-1.56555e-11
5.60374e-08
-1.30198e-11
5.60393e-08
-1.0868e-11
5.60409e-08
-9.11161e-12
5.60423e-08
-7.67458e-12
5.60434e-08
-6.49355e-12
5.60444e-08
-5.51696e-12
5.60452e-08
-4.70368e-12
5.60459e-08
-4.0214e-12
5.60466e-08
-3.44498e-12
5.60471e-08
-2.95492e-12
5.60475e-08
-2.5361e-12
5.60479e-08
-2.1767e-12
5.60483e-08
-1.8674e-12
5.60486e-08
-1.60068e-12
5.60488e-08
-1.37046e-12
5.6049e-08
-1.17164e-12
5.60492e-08
-9.99983e-13
5.60494e-08
-8.5184e-13
5.60495e-08
-7.24106e-13
5.60496e-08
-6.14073e-13
5.60497e-08
-5.19405e-13
5.60498e-08
-4.38064e-13
5.60499e-08
-3.68267e-13
5.605e-08
-3.08476e-13
5.605e-08
-2.57326e-13
5.60501e-08
-2.13656e-13
5.60501e-08
-1.76428e-13
5.60502e-08
-1.4476e-13
5.60502e-08
-1.17884e-13
5.60502e-08
-9.51139e-14
5.60502e-08
-7.59037e-14
5.60503e-08
-5.9717e-14
5.60503e-08
-4.61607e-14
5.60503e-08
-3.48252e-14
5.60503e-08
-2.53788e-14
5.60503e-08
-1.75137e-14
5.60503e-08
-1.09463e-14
5.60503e-08
-5.51408e-15
5.60503e-08
-1.08421e-15
5.60503e-08
2.37788e-15
5.60503e-08
4.81662e-15
5.99415e-15
6.13475e-08
2.28965e-09
-6.12089e-08
6.15311e-08
2.5177e-09
6.1737e-08
2.69785e-09
6.19494e-08
2.82713e-09
6.21589e-08
2.90984e-09
6.23584e-08
2.95057e-09
6.25422e-08
2.95334e-09
6.27058e-08
2.92279e-09
6.28469e-08
2.86446e-09
6.29647e-08
2.7842e-09
6.30595e-08
2.68758e-09
6.31329e-08
2.57964e-09
6.31873e-08
2.46462e-09
6.32252e-08
2.34584e-09
6.32496e-08
2.22562e-09
6.3263e-08
2.10538e-09
6.32678e-08
1.98574e-09
6.3266e-08
1.86667e-09
6.32591e-08
1.74773e-09
6.32481e-08
1.62815e-09
6.32337e-08
1.50708e-09
6.3216e-08
1.38367e-09
6.31948e-08
1.25731e-09
6.31694e-08
1.12776e-09
6.31393e-08
9.95361e-10
6.31034e-08
8.61169e-10
6.30614e-08
7.27041e-10
6.30129e-08
5.95555e-10
6.29584e-08
4.69818e-10
6.28994e-08
3.53105e-10
6.28377e-08
2.48306e-10
6.27755e-08
1.57275e-10
6.27145e-08
8.04788e-11
6.26561e-08
1.74153e-11
6.26016e-08
-3.28551e-11
6.2552e-08
-7.15654e-11
6.25076e-08
-1.00124e-10
6.24687e-08
-1.20012e-10
6.24352e-08
-1.32623e-10
6.24067e-08
-1.39219e-10
6.23829e-08
-1.40926e-10
6.23635e-08
-1.38737e-10
6.23479e-08
-1.33527e-10
6.23357e-08
-1.26062e-10
6.23264e-08
-1.17017e-10
6.23197e-08
-1.06978e-10
6.23152e-08
-9.64482e-11
6.23124e-08
-8.58495e-11
6.23109e-08
-7.55227e-11
6.23106e-08
-6.57305e-11
6.2311e-08
-5.6661e-11
6.2312e-08
-4.84339e-11
6.23134e-08
-4.1108e-11
6.2315e-08
-3.46922e-11
6.23166e-08
-2.9155e-11
6.23183e-08
-2.44366e-11
6.23199e-08
-2.04584e-11
6.23213e-08
-1.71324e-11
6.23227e-08
-1.43687e-11
6.23239e-08
-1.20806e-11
6.2325e-08
-1.0189e-11
6.23259e-08
-8.62366e-12
6.23268e-08
-7.32465e-12
6.23275e-08
-6.24196e-12
6.23281e-08
-5.33476e-12
6.23287e-08
-4.57018e-12
6.23291e-08
-3.9221e-12
6.23295e-08
-3.36986e-12
6.23299e-08
-2.89714e-12
6.23302e-08
-2.491e-12
6.23305e-08
-2.14111e-12
6.23307e-08
-1.83909e-12
6.23309e-08
-1.57808e-12
6.23311e-08
-1.35241e-12
6.23313e-08
-1.15727e-12
6.23314e-08
-9.88586e-13
6.23315e-08
-8.42877e-13
6.23316e-08
-7.17116e-13
6.23317e-08
-6.08689e-13
6.23318e-08
-5.15321e-13
6.23319e-08
-4.35021e-13
6.23319e-08
-3.66066e-13
6.2332e-08
-3.06933e-13
6.2332e-08
-2.56316e-13
6.23321e-08
-2.13054e-13
6.23321e-08
-1.76151e-13
6.23321e-08
-1.44741e-13
6.23321e-08
-1.18052e-13
6.23322e-08
-9.54561e-14
6.23322e-08
-7.63545e-14
6.23322e-08
-6.02816e-14
6.23322e-08
-4.67863e-14
6.23322e-08
-3.54871e-14
6.23322e-08
-2.60505e-14
6.23322e-08
-1.81674e-14
6.23322e-08
-1.16353e-14
6.23322e-08
-6.28922e-15
6.23322e-08
-2.05552e-15
6.23322e-08
1.08191e-15
3.1593e-15
6.79167e-08
2.16843e-09
-6.77955e-08
6.80765e-08
2.35793e-09
6.82596e-08
2.51473e-09
6.84529e-08
2.63383e-09
6.86471e-08
2.71559e-09
6.88355e-08
2.76222e-09
6.90124e-08
2.77643e-09
6.91737e-08
2.76151e-09
6.93167e-08
2.72148e-09
6.94401e-08
2.66073e-09
6.9544e-08
2.58367e-09
6.96293e-08
2.49433e-09
6.96977e-08
2.39627e-09
6.97512e-08
2.29238e-09
6.9792e-08
2.18481e-09
6.98223e-08
2.07504e-09
6.98441e-08
1.96391e-09
6.98591e-08
1.85174e-09
6.98683e-08
1.73847e-09
6.98727e-08
1.62377e-09
6.98726e-08
1.5072e-09
6.98679e-08
1.38834e-09
6.98583e-08
1.26693e-09
6.98431e-08
1.143e-09
6.98214e-08
1.01705e-09
6.97925e-08
8.90092e-10
6.97558e-08
7.63732e-10
6.97112e-08
6.40094e-10
6.96594e-08
5.21655e-10
6.96015e-08
4.10972e-10
6.95395e-08
3.10307e-10
6.94756e-08
2.2123e-10
6.94117e-08
1.44391e-10
6.93494e-08
7.96763e-11
6.929e-08
2.65213e-11
6.92346e-08
-1.61216e-11
6.91837e-08
-4.92046e-11
6.91376e-08
-7.39539e-11
6.90965e-08
-9.15218e-11
6.90603e-08
-1.03004e-10
6.90288e-08
-1.09412e-10
6.90017e-08
-1.11663e-10
6.89788e-08
-1.10581e-10
6.89596e-08
-1.06904e-10
6.89439e-08
-1.01288e-10
6.89312e-08
-9.43136e-11
6.89212e-08
-8.64814e-11
6.89136e-08
-7.82189e-11
6.8908e-08
-6.98792e-11
6.8904e-08
-6.1743e-11
6.89013e-08
-5.40219e-11
6.88998e-08
-4.68642e-11
6.8899e-08
-4.0361e-11
6.88989e-08
-3.45551e-11
6.88992e-08
-2.94497e-11
6.88998e-08
-2.50186e-11
6.89005e-08
-2.12141e-11
6.89014e-08
-1.7976e-11
6.89022e-08
-1.5238e-11
6.89031e-08
-1.2933e-11
6.89039e-08
-1.0997e-11
6.89046e-08
-9.37166e-12
6.89053e-08
-8.00532e-12
6.89059e-08
-6.85376e-12
6.89065e-08
-5.87981e-12
6.8907e-08
-5.05278e-12
6.89074e-08
-4.3476e-12
6.89078e-08
-3.74396e-12
6.89081e-08
-3.22545e-12
6.89084e-08
-2.77878e-12
6.89086e-08
-2.39314e-12
6.89088e-08
-2.05966e-12
6.8909e-08
-1.771e-12
6.89092e-08
-1.521e-12
6.89094e-08
-1.30449e-12
6.89095e-08
-1.11703e-12
6.89096e-08
-9.54811e-13
6.89097e-08
-8.14548e-13
6.89098e-08
-6.93388e-13
6.89099e-08
-5.88849e-13
6.89099e-08
-4.98759e-13
6.891e-08
-4.21234e-13
6.891e-08
-3.54611e-13
6.89101e-08
-2.97453e-13
6.89101e-08
-2.48493e-13
6.89101e-08
-2.06631e-13
6.89102e-08
-1.70913e-13
6.89102e-08
-1.40491e-13
6.89102e-08
-1.14658e-13
6.89102e-08
-9.27637e-14
6.89102e-08
-7.42749e-14
6.89102e-08
-5.87015e-14
6.89102e-08
-4.5619e-14
6.89103e-08
-3.46654e-14
6.89103e-08
-2.55101e-14
6.89103e-08
-1.79157e-14
6.89103e-08
-1.16878e-14
6.89103e-08
-6.70214e-15
6.89103e-08
-2.87334e-15
-7.05494e-17
6.80744e-08
2.07044e-09
-6.79764e-08
6.82017e-08
2.23061e-09
6.83492e-08
2.36729e-09
6.85074e-08
2.47556e-09
6.8669e-08
2.55402e-09
6.8828e-08
2.60327e-09
6.89795e-08
2.62486e-09
6.912e-08
2.62103e-09
6.92468e-08
2.59464e-09
6.93586e-08
2.54896e-09
6.94549e-08
2.48737e-09
6.95361e-08
2.41313e-09
6.96032e-08
2.32916e-09
6.96577e-08
2.23794e-09
6.9701e-08
2.14144e-09
6.97349e-08
2.04113e-09
6.97609e-08
1.93795e-09
6.97802e-08
1.83246e-09
6.97938e-08
1.72488e-09
6.98023e-08
1.61524e-09
6.98061e-08
1.50341e-09
6.98051e-08
1.38932e-09
6.97991e-08
1.27296e-09
6.97875e-08
1.1546e-09
6.97697e-08
1.0348e-09
6.97453e-08
9.14545e-10
6.97138e-08
7.95223e-10
6.96753e-08
6.78592e-10
6.96303e-08
5.66649e-10
6.95799e-08
4.61425e-10
6.95254e-08
3.6473e-10
6.94688e-08
2.77893e-10
6.94115e-08
2.01609e-10
6.93552e-08
1.35987e-10
6.93011e-08
8.07061e-11
6.92498e-08
3.51009e-11
6.92022e-08
-1.61339e-12
6.91587e-08
-3.03747e-11
6.91193e-08
-5.21505e-11
6.90842e-08
-6.78704e-11
6.90532e-08
-7.84407e-11
6.90262e-08
-8.46893e-11
6.9003e-08
-8.73834e-11
6.89833e-08
-8.72229e-11
6.89669e-08
-8.48375e-11
6.89534e-08
-8.07882e-11
6.89424e-08
-7.55679e-11
6.89338e-08
-6.96016e-11
6.89272e-08
-6.32465e-11
6.89222e-08
-5.67944e-11
6.89187e-08
-5.04736e-11
6.89163e-08
-4.44543e-11
6.89148e-08
-3.88537e-11
6.8914e-08
-3.37432e-11
6.89137e-08
-2.91563e-11
6.89137e-08
-2.50961e-11
6.89141e-08
-2.15435e-11
6.89146e-08
-1.8464e-11
6.89151e-08
-1.5814e-11
6.89158e-08
-1.35455e-11
6.89164e-08
-1.16103e-11
6.8917e-08
-9.96215e-12
6.89175e-08
-8.5588e-12
6.8918e-08
-7.36274e-12
6.89185e-08
-6.34148e-12
6.89189e-08
-5.4674e-12
6.89193e-08
-4.71731e-12
6.89196e-08
-4.07196e-12
6.89199e-08
-3.51537e-12
6.89201e-08
-3.03437e-12
6.89204e-08
-2.61803e-12
6.89206e-08
-2.25723e-12
6.89207e-08
-1.94434e-12
6.89209e-08
-1.67291e-12
6.8921e-08
-1.43745e-12
6.89211e-08
-1.23326e-12
6.89212e-08
-1.0563e-12
6.89213e-08
-9.03038e-13
6.89214e-08
-7.70439e-13
6.89215e-08
-6.5584e-13
6.89215e-08
-5.56917e-13
6.89216e-08
-4.71643e-13
6.89216e-08
-3.98235e-13
6.89217e-08
-3.35144e-13
6.89217e-08
-2.81005e-13
6.89217e-08
-2.34629e-13
6.89217e-08
-1.94985e-13
6.89218e-08
-1.61155e-13
6.89218e-08
-1.32365e-13
6.89218e-08
-1.07914e-13
6.89218e-08
-8.72141e-14
6.89218e-08
-6.9737e-14
6.89218e-08
-5.50206e-14
6.89218e-08
-4.26746e-14
6.89218e-08
-3.2347e-14
6.89219e-08
-2.37687e-14
6.89219e-08
-1.67185e-14
6.89219e-08
-1.10308e-14
6.89219e-08
-6.57361e-15
-3.18675e-15
7.53153e-08
1.9822e-09
-7.52271e-08
7.54279e-08
2.11804e-09
7.55586e-08
2.23658e-09
7.57005e-08
2.3337e-09
7.58471e-08
2.40739e-09
7.59932e-08
2.4572e-09
7.61343e-08
2.48376e-09
7.62669e-08
2.48842e-09
7.63884e-08
2.47309e-09
7.64973e-08
2.44008e-09
7.65928e-08
2.39191e-09
7.66748e-08
2.33108e-09
7.67441e-08
2.25995e-09
7.68014e-08
2.18058e-09
7.68481e-08
2.09472e-09
7.68855e-08
2.00375e-09
7.69148e-08
1.90868e-09
7.6937e-08
1.81021e-09
7.69531e-08
1.70879e-09
7.69637e-08
1.60471e-09
7.69689e-08
1.49812e-09
7.69691e-08
1.38921e-09
7.69638e-08
1.27821e-09
7.69529e-08
1.16555e-09
7.69358e-08
1.05186e-09
7.69123e-08
9.3806e-10
7.68821e-08
8.25376e-10
7.68455e-08
7.15262e-10
7.68028e-08
6.09332e-10
7.6755e-08
5.09206e-10
7.67034e-08
4.16341e-10
7.66494e-08
3.31861e-10
7.65946e-08
2.5645e-10
7.65402e-08
1.90352e-10
7.64875e-08
1.33447e-10
7.64372e-08
8.53368e-11
7.63902e-08
4.544e-11
7.63467e-08
1.30646e-11
7.63072e-08
-1.25979e-11
7.62716e-08
-3.22915e-11
7.624e-08
-4.68411e-11
7.62123e-08
-5.69533e-11
7.61882e-08
-6.33381e-11
7.61677e-08
-6.6647e-11
7.61503e-08
-6.74748e-11
7.61359e-08
-6.63586e-11
7.61241e-08
-6.37771e-11
7.61146e-08
-6.01489e-11
7.61072e-08
-5.58325e-11
7.61015e-08
-5.1127e-11
7.60973e-08
-4.6275e-11
7.60944e-08
-4.1466e-11
7.60923e-08
-3.68408e-11
7.60911e-08
-3.24971e-11
7.60904e-08
-2.84963e-11
7.60902e-08
-2.48698e-11
7.60903e-08
-2.16256e-11
7.60906e-08
-1.87543e-11
7.6091e-08
-1.62347e-11
7.60915e-08
-1.40383e-11
7.6092e-08
-1.21328e-11
7.60925e-08
-1.0485e-11
7.6093e-08
-9.06269e-12
7.60935e-08
-7.83594e-12
7.60939e-08
-6.77773e-12
7.60943e-08
-5.86423e-12
7.60947e-08
-5.07477e-12
7.6095e-08
-4.39165e-12
7.60953e-08
-3.79978e-12
7.60956e-08
-3.2864e-12
7.60958e-08
-2.84069e-12
7.6096e-08
-2.4535e-12
7.60962e-08
-2.11701e-12
7.60963e-08
-1.82457e-12
7.60964e-08
-1.57046e-12
7.60966e-08
-1.34974e-12
7.60967e-08
-1.15815e-12
7.60967e-08
-9.9197e-13
7.60968e-08
-8.4797e-13
7.60969e-08
-7.23328e-13
7.60969e-08
-6.15568e-13
7.6097e-08
-5.22532e-13
7.6097e-08
-4.42317e-13
7.60971e-08
-3.73264e-13
7.60971e-08
-3.13916e-13
7.60971e-08
-2.62995e-13
7.60972e-08
-2.19391e-13
7.60972e-08
-1.82121e-13
7.60972e-08
-1.50344e-13
7.60972e-08
-1.23309e-13
7.60972e-08
-1.00372e-13
7.60972e-08
-8.09683e-14
7.60973e-08
-6.45986e-14
7.60973e-08
-5.08407e-14
7.60973e-08
-3.93204e-14
7.60973e-08
-2.97369e-14
7.60973e-08
-2.18413e-14
7.60973e-08
-1.54326e-14
7.60973e-08
-1.03441e-14
-6.41424e-15
8.33108e-08
1.90356e-09
-8.32322e-08
8.34094e-08
2.01949e-09
8.35236e-08
2.12233e-09
8.36485e-08
2.20884e-09
8.37789e-08
2.27701e-09
8.39102e-08
2.32586e-09
8.40386e-08
2.35537e-09
8.41608e-08
2.3662e-09
8.42744e-08
2.35951e-09
8.43776e-08
2.33683e-09
8.44696e-08
2.29995e-09
8.45499e-08
2.25074e-09
8.46189e-08
2.191e-09
8.4677e-08
2.12244e-09
8.47252e-08
2.04655e-09
8.47644e-08
1.96456e-09
8.47955e-08
1.87751e-09
8.48196e-08
1.78617e-09
8.48372e-08
1.69115e-09
8.4849e-08
1.59292e-09
8.48553e-08
1.49187e-09
8.48561e-08
1.38836e-09
8.48515e-08
1.28284e-09
8.48412e-08
1.17582e-09
8.48251e-08
1.068e-09
8.48029e-08
9.60268e-10
8.47746e-08
8.53683e-10
8.47403e-08
7.49477e-10
8.47007e-08
6.48967e-10
8.46564e-08
5.53465e-10
8.46086e-08
4.64159e-10
8.45585e-08
3.82004e-10
8.45073e-08
3.07646e-10
8.44562e-08
2.41408e-10
8.44064e-08
1.83319e-10
8.43585e-08
1.33171e-10
8.43134e-08
9.05738e-11
8.42714e-08
5.5011e-11
8.4233e-08
2.58697e-11
8.41981e-08
2.57644e-12
8.4167e-08
-1.56863e-11
8.41394e-08
-2.94134e-11
8.41154e-08
-3.92956e-11
8.40946e-08
-4.59215e-11
8.4077e-08
-4.98457e-11
8.40622e-08
-5.15761e-11
8.405e-08
-5.1573e-11
8.40401e-08
-5.02453e-11
8.40322e-08
-4.79492e-11
8.40261e-08
-4.49888e-11
8.40214e-08
-4.16179e-11
8.4018e-08
-3.80427e-11
8.40156e-08
-3.44246e-11
8.4014e-08
-3.08854e-11
8.4013e-08
-2.75116e-11
8.40125e-08
-2.43608e-11
8.40123e-08
-2.1466e-11
8.40124e-08
-1.88416e-11
8.40127e-08
-1.64878e-11
8.4013e-08
-1.43948e-11
8.40135e-08
-1.2546e-11
8.40139e-08
-1.09214e-11
8.40143e-08
-9.49894e-12
8.40147e-08
-8.25673e-12
8.40151e-08
-7.17368e-12
8.40155e-08
-6.23024e-12
8.40158e-08
-5.40875e-12
8.40161e-08
-4.69347e-12
8.40164e-08
-4.07057e-12
8.40167e-08
-3.52803e-12
8.40169e-08
-3.05539e-12
8.40171e-08
-2.64363e-12
8.40172e-08
-2.28494e-12
8.40174e-08
-1.97254e-12
8.40175e-08
-1.70058e-12
8.40176e-08
-1.46395e-12
8.40177e-08
-1.25822e-12
8.40178e-08
-1.07949e-12
8.40179e-08
-9.2439e-13
8.4018e-08
-7.89938e-13
8.4018e-08
-6.73529e-13
8.40181e-08
-5.72877e-13
8.40181e-08
-4.85972e-13
8.40181e-08
-4.1105e-13
8.40182e-08
-3.46566e-13
8.40182e-08
-2.91157e-13
8.40182e-08
-2.4364e-13
8.40182e-08
-2.02966e-13
8.40183e-08
-1.68231e-13
8.40183e-08
-1.38634e-13
8.40183e-08
-1.1348e-13
8.40183e-08
-9.21644e-14
8.40183e-08
-7.41535e-14
8.40183e-08
-5.89923e-14
8.40183e-08
-4.62824e-14
8.40183e-08
-3.5693e-14
8.40183e-08
-2.69479e-14
8.40183e-08
-1.98159e-14
8.40183e-08
-1.41021e-14
-9.63712e-15
9.21402e-08
1.83502e-09
-9.20717e-08
9.22247e-08
1.93498e-09
9.23224e-08
2.02471e-09
9.24295e-08
2.10175e-09
9.25422e-08
2.16431e-09
9.26568e-08
2.21123e-09
9.277e-08
2.24212e-09
9.28791e-08
2.25713e-09
9.29817e-08
2.25687e-09
9.30763e-08
2.24227e-09
9.31617e-08
2.21454e-09
9.32375e-08
2.175e-09
9.33034e-08
2.12502e-09
9.33599e-08
2.06595e-09
9.34075e-08
1.99902e-09
9.34467e-08
1.92533e-09
9.34783e-08
1.84587e-09
9.35031e-08
1.76143e-09
9.35215e-08
1.67273e-09
9.35341e-08
1.58035e-09
9.35411e-08
1.48484e-09
9.35427e-08
1.38671e-09
9.3539e-08
1.28654e-09
9.35299e-08
1.18492e-09
9.35153e-08
1.0826e-09
9.34952e-08
9.80405e-10
9.34696e-08
8.79299e-10
9.34387e-08
7.80334e-10
9.34031e-08
6.84611e-10
9.33633e-08
5.93213e-10
9.33204e-08
5.07127e-10
9.32752e-08
4.27176e-10
9.32289e-08
3.5396e-10
9.31825e-08
2.87842e-10
9.31368e-08
2.28952e-10
9.30928e-08
1.77221e-10
9.30509e-08
1.32413e-10
9.30118e-08
9.4168e-11
9.29756e-08
6.20313e-11
9.29427e-08
3.54968e-11
9.2913e-08
1.39893e-11
9.28866e-08
-3.02002e-12
9.28634e-08
-1.60964e-11
9.28433e-08
-2.57808e-11
9.2826e-08
-3.25805e-11
9.28114e-08
-3.69726e-11
9.27992e-08
-3.93973e-11
9.27892e-08
-4.02516e-11
9.27812e-08
-3.98856e-11
9.27748e-08
-3.86057e-11
9.27699e-08
-3.66743e-11
9.27661e-08
-3.43111e-11
9.27634e-08
-3.16949e-11
9.27615e-08
-2.89677e-11
9.27602e-08
-2.62384e-11
9.27594e-08
-2.3587e-11
9.2759e-08
-2.10693e-11
9.27589e-08
-1.8721e-11
9.2759e-08
-1.65618e-11
9.27592e-08
-1.45993e-11
9.27595e-08
-1.28321e-11
9.27598e-08
-1.12524e-11
9.27602e-08
-9.84867e-12
9.27605e-08
-8.60685e-12
9.27608e-08
-7.5121e-12
9.27612e-08
-6.54949e-12
9.27615e-08
-5.70467e-12
9.27617e-08
-4.96424e-12
9.2762e-08
-4.31595e-12
9.27622e-08
-3.74875e-12
9.27624e-08
-3.25282e-12
9.27626e-08
-2.81944e-12
9.27627e-08
-2.44092e-12
9.27629e-08
-2.11052e-12
9.2763e-08
-1.82231e-12
9.27631e-08
-1.57111e-12
9.27632e-08
-1.35234e-12
9.27633e-08
-1.162e-12
9.27633e-08
-9.96572e-13
9.27634e-08
-8.52968e-13
9.27635e-08
-7.28462e-13
9.27635e-08
-6.20664e-13
9.27636e-08
-5.27464e-13
9.27636e-08
-4.4701e-13
9.27636e-08
-3.77673e-13
9.27636e-08
-3.18019e-13
9.27637e-08
-2.66792e-13
9.27637e-08
-2.22886e-13
9.27637e-08
-1.85339e-13
9.27637e-08
-1.53303e-13
9.27637e-08
-1.26038e-13
9.27637e-08
-1.02899e-13
9.27638e-08
-8.3322e-14
9.27638e-08
-6.68197e-14
9.27638e-08