/*--------------------------------*- C++ -*----------------------------------*\
| =========                 |                                                 |
| \\      /  F ield         | OpenFOAM: The Open Source CFD Toolbox           |
|  \\    /   O peration     | Version:  2.3.0                                 |
|   \\  /    A nd           | Web:      www.OpenFOAM.org                      |
|    \\/     M anipulation  |                                                 |
\*---------------------------------------------------------------------------*/
FoamFile
{
    version     2.0;
    format      ascii;
    class       volVectorField;
    location    "0.1";
    object      U_0;
}
// * * * * * * * * * * * * * * * * * * * * * * * * * * * * * * * * * * * * * //

dimensions      [0 1 -1 0 0 0 0];

internalField   nonuniform List<vector> 
2000
(
(0.170646 0.00602048 0)
(0.153993 0.00609269 0)
(0.137988 0.00566728 0)
(0.122832 0.00505587 0)
(0.108945 0.0043777 0)
(0.0965053 0.00368796 0)
(0.0855289 0.00302546 0)
(0.0759828 0.00241747 0)
(0.0678088 0.00188082 0)
(0.0609167 0.00142417 0)
(0.0551857 0.00104943 0)
(0.0504747 0.000752854 0)
(0.0466347 0.000526393 0)
(0.0435195 0.000359464 0)
(0.040994 0.000240679 0)
(0.0389388 0.000159155 0)
(0.0372536 0.00010532 0)
(0.0358573 7.12591e-05 0)
(0.0346861 5.07549e-05 0)
(0.0336922 3.91243e-05 0)
(0.03284 3.29411e-05 0)
(0.0321047 2.96875e-05 0)
(0.0314692 2.74089e-05 0)
(0.0309239 2.44932e-05 0)
(0.0304648 1.97068e-05 0)
(0.0300926 1.26095e-05 0)
(0.0298118 3.9196e-06 0)
(0.0296303 -5.47284e-06 0)
(0.0295603 -1.1563e-05 0)
(0.0295897 -1.47523e-05 0)
(0.0296805 -1.60133e-05 0)
(0.0298164 -1.87373e-05 0)
(0.0299802 -2.06449e-05 0)
(0.0301551 -2.07897e-05 0)
(0.0303275 -1.96341e-05 0)
(0.0304886 -1.77927e-05 0)
(0.0306341 -1.56938e-05 0)
(0.0307622 -1.35952e-05 0)
(0.0308731 -1.16373e-05 0)
(0.030968 -9.88162e-06 0)
(0.0310484 -8.33873e-06 0)
(0.031116 -6.99393e-06 0)
(0.0311725 -5.83067e-06 0)
(0.0312195 -4.83371e-06 0)
(0.0312585 -3.98752e-06 0)
(0.0312907 -3.27562e-06 0)
(0.0313173 -2.68072e-06 0)
(0.0313392 -2.1865e-06 0)
(0.0313571 -1.77951e-06 0)
(0.0313719 -1.44746e-06 0)
(0.0313841 -1.17868e-06 0)
(0.0313942 -9.62404e-07 0)
(0.0314026 -7.88956e-07 0)
(0.0314096 -6.49945e-07 0)
(0.0314155 -5.38289e-07 0)
(0.0314204 -4.48175e-07 0)
(0.0314246 -3.7494e-07 0)
(0.0314281 -3.14919e-07 0)
(0.0314312 -2.65283e-07 0)
(0.0314337 -2.23873e-07 0)
(0.031436 -1.89057e-07 0)
(0.0314379 -1.59602e-07 0)
(0.0314395 -1.34573e-07 0)
(0.0314409 -1.13249e-07 0)
(0.0314421 -9.50617e-08 0)
(0.0314431 -7.95551e-08 0)
(0.0314439 -6.63533e-08 0)
(0.0314446 -5.51399e-08 0)
(0.0314453 -4.56423e-08 0)
(0.0314458 -3.76249e-08 0)
(0.0314462 -3.08768e-08 0)
(0.0314466 -2.52195e-08 0)
(0.0314469 -2.04873e-08 0)
(0.0314471 -1.65498e-08 0)
(0.0314474 -1.32779e-08 0)
(0.0314475 -1.05781e-08 0)
(0.0314477 -8.35215e-09 0)
(0.0314478 -6.52769e-09 0)
(0.0314479 -5.03683e-09 0)
(0.031448 -3.81955e-09 0)
(0.031448 -2.8365e-09 0)
(0.0314481 -2.03713e-09 0)
(0.0314481 -1.40361e-09 0)
(0.0314481 -8.99068e-10 0)
(0.0314481 -5.07255e-10 0)
(0.0314482 -2.14957e-10 0)
(0.0314482 1.32912e-11 0)
(0.0314482 1.59739e-10 0)
(0.0314482 2.7347e-10 0)
(0.0314482 3.18411e-10 0)
(0.0314482 3.358e-10 0)
(0.0314482 3.66417e-10 0)
(0.0314482 3.85665e-10 0)
(0.0314482 3.89775e-10 0)
(0.0314482 3.60138e-10 0)
(0.0314482 3.27117e-10 0)
(0.0314482 3.02535e-10 0)
(0.0314482 2.68251e-10 0)
(0.0314482 1.64188e-10 0)
(0.0314481 9.72274e-10 0)
(0.189882 0.0095358 0)
(0.187729 0.0100762 0)
(0.18402 0.00987314 0)
(0.17909 0.00938329 0)
(0.173422 0.00874676 0)
(0.167355 0.00801178 0)
(0.161107 0.00721857 0)
(0.154843 0.00640447 0)
(0.148696 0.00560112 0)
(0.142767 0.00483461 0)
(0.137125 0.00412542 0)
(0.131814 0.00348763 0)
(0.126857 0.00292865 0)
(0.122262 0.00244973 0)
(0.118025 0.00204707 0)
(0.114138 0.00171337 0)
(0.110585 0.00143934 0)
(0.107351 0.00121502 0)
(0.104419 0.00103081 0)
(0.101772 0.000878096 0)
(0.0993964 0.000749472 0)
(0.0972789 0.000638693 0)
(0.0954108 0.00054043 0)
(0.0937861 0.000450023 0)
(0.0924018 0.000363528 0)
(0.0912565 0.000278291 0)
(0.0903474 0.000193712 0)
(0.0896656 0.000109864 0)
(0.089191 2.77445e-05 0)
(0.0889416 -4.88309e-05 0)
(0.0889379 -0.000103221 0)
(0.0890858 -0.000131827 0)
(0.0893286 -0.000141502 0)
(0.0896244 -0.000138559 0)
(0.0899412 -0.000128078 0)
(0.0902563 -0.00011392 0)
(0.0905552 -9.87089e-05 0)
(0.0908296 -8.40147e-05 0)
(0.0910754 -7.06515e-05 0)
(0.0912917 -5.89467e-05 0)
(0.0914794 -4.89333e-05 0)
(0.0916402 -4.04861e-05 0)
(0.0917768 -3.34211e-05 0)
(0.0918918 -2.75452e-05 0)
(0.091988 -2.26777e-05 0)
(0.0920679 -1.86579e-05 0)
(0.092134 -1.53461e-05 0)
(0.0921884 -1.26229e-05 0)
(0.0922333 -1.03891e-05 0)
(0.0922701 -8.56145e-06 0)
(0.0923004 -7.06975e-06 0)
(0.0923255 -5.85438e-06 0)
(0.0923462 -4.86477e-06 0)
(0.0923634 -4.05833e-06 0)
(0.0923779 -3.39954e-06 0)
(0.09239 -2.85916e-06 0)
(0.0924003 -2.41347e-06 0)
(0.092409 -2.0435e-06 0)
(0.0924165 -1.73425e-06 0)
(0.0924229 -1.47403e-06 0)
(0.0924284 -1.25373e-06 0)
(0.0924331 -1.0663e-06 0)
(0.0924371 -9.06255e-07 0)
(0.0924406 -7.69257e-07 0)
(0.0924436 -6.51853e-07 0)
(0.0924462 -5.51229e-07 0)
(0.0924484 -4.65051e-07 0)
(0.0924503 -3.91348e-07 0)
(0.0924519 -3.28427e-07 0)
(0.0924533 -2.74829e-07 0)
(0.0924545 -2.29272e-07 0)
(0.0924555 -1.90645e-07 0)
(0.0924563 -1.57966e-07 0)
(0.092457 -1.30395e-07 0)
(0.0924576 -1.07182e-07 0)
(0.0924581 -8.76963e-08 0)
(0.0924585 -7.13765e-08 0)
(0.0924588 -5.77417e-08 0)
(0.0924591 -4.63845e-08 0)
(0.0924594 -3.69374e-08 0)
(0.0924596 -2.91153e-08 0)
(0.0924597 -2.26431e-08 0)
(0.0924598 -1.73231e-08 0)
(0.0924599 -1.29613e-08 0)
(0.09246 -9.4021e-09 0)
(0.0924601 -6.53203e-09 0)
(0.0924601 -4.20371e-09 0)
(0.0924601 -2.37358e-09 0)
(0.0924602 -9.1954e-10 0)
(0.0924602 1.67452e-10 0)
(0.0924602 9.08938e-10 0)
(0.0924602 1.38205e-09 0)
(0.0924602 1.6873e-09 0)
(0.0924602 1.94968e-09 0)
(0.0924602 2.15359e-09 0)
(0.0924602 2.32296e-09 0)
(0.0924601 2.47389e-09 0)
(0.0924601 2.55553e-09 0)
(0.0924601 2.58463e-09 0)
(0.0924601 3.46217e-09 0)
(0.192879 0.0090361 0)
(0.193725 0.0100029 0)
(0.194029 0.0103667 0)
(0.193626 0.0104017 0)
(0.192604 0.0102029 0)
(0.191065 0.00980655 0)
(0.189085 0.00925667 0)
(0.186742 0.00860345 0)
(0.184116 0.0078936 0)
(0.181292 0.00716708 0)
(0.178341 0.00645607 0)
(0.175328 0.0057841 0)
(0.172305 0.00516595 0)
(0.169313 0.00460849 0)
(0.166387 0.00411224 0)
(0.163551 0.00367327 0)
(0.160825 0.00328505 0)
(0.158223 0.00293991 0)
(0.155757 0.00263013 0)
(0.153437 0.00234851 0)
(0.151273 0.00208861 0)
(0.149274 0.00184469 0)
(0.147451 0.00161171 0)
(0.145814 0.00138538 0)
(0.144372 0.00116266 0)
(0.143134 0.000942384 0)
(0.142103 0.000725811 0)
(0.141279 0.00051628 0)
(0.140654 0.000315629 0)
(0.140193 0.000126358 0)
(0.139868 -3.80171e-05 0)
(0.139729 -0.000160169 0)
(0.139737 -0.000236663 0)
(0.139859 -0.000275608 0)
(0.140063 -0.000287067 0)
(0.140321 -0.000279942 0)
(0.140608 -0.000261345 0)
(0.140908 -0.000236543 0)
(0.141204 -0.000209188 0)
(0.141488 -0.000181678 0)
(0.141753 -0.000155493 0)
(0.141995 -0.000131474 0)
(0.142211 -0.00011003 0)
(0.142402 -9.1289e-05 0)
(0.142567 -7.51939e-05 0)
(0.142709 -6.15786e-05 0)
(0.142829 -5.02134e-05 0)
(0.142929 -4.08381e-05 0)
(0.143013 -3.31836e-05 0)
(0.143082 -2.69879e-05 0)
(0.143138 -2.20065e-05 0)
(0.143184 -1.80195e-05 0)
(0.143222 -1.48344e-05 0)
(0.143253 -1.22879e-05 0)
(0.143278 -1.02446e-05 0)
(0.143299 -8.59501e-06 0)
(0.143316 -7.25211e-06 0)
(0.14333 -6.14833e-06 0)
(0.143342 -5.23187e-06 0)
(0.143352 -4.46354e-06 0)
(0.143361 -3.81384e-06 0)
(0.143368 -3.26059e-06 0)
(0.143374 -2.78703e-06 0)
(0.14338 -2.38025e-06 0)
(0.143384 -2.03016e-06 0)
(0.143388 -1.72867e-06 0)
(0.143392 -1.4691e-06 0)
(0.143395 -1.24585e-06 0)
(0.143397 -1.05413e-06 0)
(0.143399 -8.89775e-07 0)
(0.143401 -7.49149e-07 0)
(0.143403 -6.29069e-07 0)
(0.143404 -5.26742e-07 0)
(0.143405 -4.3972e-07 0)
(0.143406 -3.65868e-07 0)
(0.143407 -3.03314e-07 0)
(0.143408 -2.50447e-07 0)
(0.143408 -2.05846e-07 0)
(0.143409 -1.68309e-07 0)
(0.143409 -1.36771e-07 0)
(0.143409 -1.10342e-07 0)
(0.14341 -8.8244e-08 0)
(0.14341 -6.98129e-08 0)
(0.14341 -5.44949e-08 0)
(0.14341 -4.17868e-08 0)
(0.14341 -3.1306e-08 0)
(0.14341 -2.26745e-08 0)
(0.143411 -1.5621e-08 0)
(0.143411 -9.90059e-09 0)
(0.143411 -5.30065e-09 0)
(0.143411 -1.74527e-09 0)
(0.143411 9.23656e-10 0)
(0.143411 2.79389e-09 0)
(0.143411 4.16914e-09 0)
(0.143411 5.30292e-09 0)
(0.143411 6.28518e-09 0)
(0.143411 7.15012e-09 0)
(0.143411 7.80464e-09 0)
(0.143411 8.29616e-09 0)
(0.143411 8.25901e-09 0)
(0.193988 0.00830788 0)
(0.195075 0.00933342 0)
(0.19613 0.00990012 0)
(0.196946 0.0101602 0)
(0.197492 0.0101894 0)
(0.197767 0.0100191 0)
(0.197763 0.00968272 0)
(0.197477 0.00922149 0)
(0.196927 0.00867626 0)
(0.19614 0.00808381 0)
(0.195153 0.00747541 0)
(0.194006 0.00687579 0)
(0.192735 0.00630246 0)
(0.191377 0.00576595 0)
(0.189964 0.00527079 0)
(0.188523 0.00481689 0)
(0.187078 0.00440103 0)
(0.185649 0.00401817 0)
(0.184252 0.0036624 0)
(0.182901 0.00332761 0)
(0.181611 0.00300787 0)
(0.180394 0.00269764 0)
(0.179262 0.00239201 0)
(0.178226 0.00208711 0)
(0.177296 0.00178082 0)
(0.176479 0.00147354 0)
(0.175778 0.00116851 0)
(0.175195 0.000871868 0)
(0.174725 0.000592485 0)
(0.174361 0.000340097 0)
(0.174078 0.000119024 0)
(0.173856 -6.30502e-05 0)
(0.17372 -0.000198764 0)
(0.173664 -0.000290234 0)
(0.17368 -0.000344752 0)
(0.173757 -0.000370465 0)
(0.173885 -0.000374835 0)
(0.17405 -0.000364133 0)
(0.174241 -0.000343351 0)
(0.174448 -0.00031632 0)
(0.174661 -0.000285907 0)
(0.174873 -0.000254221 0)
(0.175079 -0.000222789 0)
(0.175273 -0.000192691 0)
(0.175452 -0.000164659 0)
(0.175615 -0.000139157 0)
(0.17576 -0.000116429 0)
(0.175887 -9.65512e-05 0)
(0.175996 -7.94636e-05 0)
(0.176089 -6.50072e-05 0)
(0.176168 -5.29538e-05 0)
(0.176233 -4.30341e-05 0)
(0.176287 -3.49612e-05 0)
(0.17633 -2.845e-05 0)
(0.176366 -2.32323e-05 0)
(0.176395 -1.90659e-05 0)
(0.176419 -1.57404e-05 0)
(0.176438 -1.30789e-05 0)
(0.176453 -1.09367e-05 0)
(0.176466 -9.19875e-06 0)
(0.176477 -7.77526e-06 0)
(0.176486 -6.59752e-06 0)
(0.176493 -5.61358e-06 0)
(0.1765 -4.78446e-06 0)
(0.176505 -4.08087e-06 0)
(0.17651 -3.48067e-06 0)
(0.176513 -2.96682e-06 0)
(0.176517 -2.52598e-06 0)
(0.17652 -2.14745e-06 0)
(0.176522 -1.82242e-06 0)
(0.176524 -1.54353e-06 0)
(0.176526 -1.3045e-06 0)
(0.176528 -1.09991e-06 0)
(0.176529 -9.25074e-07 0)
(0.17653 -7.75927e-07 0)
(0.176531 -6.48898e-07 0)
(0.176532 -5.40915e-07 0)
(0.176533 -4.49267e-07 0)
(0.176533 -3.71641e-07 0)
(0.176534 -3.06001e-07 0)
(0.176534 -2.50608e-07 0)
(0.176535 -2.03962e-07 0)
(0.176535 -1.64754e-07 0)
(0.176535 -1.31895e-07 0)
(0.176535 -1.04401e-07 0)
(0.176536 -8.1487e-08 0)
(0.176536 -6.2435e-08 0)
(0.176536 -4.66537e-08 0)
(0.176536 -3.36713e-08 0)
(0.176536 -2.30186e-08 0)
(0.176536 -1.4417e-08 0)
(0.176536 -7.5119e-09 0)
(0.176536 -2.13395e-09 0)
(0.176536 2.04194e-09 0)
(0.176536 5.34653e-09 0)
(0.176536 8.04076e-09 0)
(0.176536 1.02931e-08 0)
(0.176536 1.20328e-08 0)
(0.176536 1.31779e-08 0)
(0.176536 1.24121e-08 0)
(0.19484 0.00773083 0)
(0.195728 0.00865382 0)
(0.196718 0.00923243 0)
(0.19766 0.0095482 0)
(0.198508 0.00966315 0)
(0.199242 0.00960655 0)
(0.199841 0.00940287 0)
(0.200283 0.00908158 0)
(0.200558 0.00867385 0)
(0.200668 0.00820911 0)
(0.200624 0.00771349 0)
(0.200441 0.00720878 0)
(0.200141 0.00671155 0)
(0.199745 0.00623291 0)
(0.199274 0.00577893 0)
(0.198749 0.00535151 0)
(0.198187 0.00494948 0)
(0.197603 0.00456957 0)
(0.19701 0.00420736 0)
(0.196419 0.00385786 0)
(0.195841 0.00351603 0)
(0.195282 0.00317713 0)
(0.194752 0.0028371 0)
(0.194254 0.00249318 0)
(0.193794 0.00214458 0)
(0.193374 0.00179315 0)
(0.192995 0.0014437 0)
(0.192657 0.00110386 0)
(0.192358 0.000783713 0)
(0.192096 0.000494635 0)
(0.191871 0.000244765 0)
(0.19167 3.77577e-05 0)
(0.191497 -0.000125203 0)
(0.19136 -0.000245488 0)
(0.191263 -0.00032813 0)
(0.191206 -0.000379682 0)
(0.191185 -0.000406553 0)
(0.191198 -0.00041442 0)
(0.191239 -0.000408062 0)
(0.191303 -0.000391377 0)
(0.191384 -0.000367492 0)
(0.191477 -0.000338898 0)
(0.191578 -0.000307583 0)
(0.191683 -0.00027513 0)
(0.191787 -0.000242791 0)
(0.191888 -0.000211542 0)
(0.191983 -0.000182115 0)
(0.192071 -0.000155026 0)
(0.192151 -0.000130601 0)
(0.192222 -0.000108994 0)
(0.192284 -9.022e-05 0)
(0.192337 -7.41752e-05 0)
(0.192383 -6.06709e-05 0)
(0.192421 -4.94602e-05 0)
(0.192452 -4.02644e-05 0)
(0.192478 -3.27958e-05 0)
(0.1925 -2.6775e-05 0)
(0.192517 -2.19446e-05 0)
(0.192531 -1.80762e-05 0)
(0.192543 -1.49748e-05 0)
(0.192552 -1.24783e-05 0)
(0.19256 -1.04561e-05 0)
(0.192567 -8.80477e-06 0)
(0.192572 -7.44432e-06 0)
(0.192577 -6.31344e-06 0)
(0.192581 -5.36563e-06 0)
(0.192584 -4.56564e-06 0)
(0.192587 -3.88661e-06 0)
(0.192589 -3.30787e-06 0)
(0.192592 -2.81326e-06 0)
(0.192593 -2.38988e-06 0)
(0.192595 -2.02723e-06 0)
(0.192596 -1.71662e-06 0)
(0.192597 -1.45073e-06 0)
(0.192598 -1.22335e-06 0)
(0.192599 -1.0291e-06 0)
(0.1926 -8.63414e-07 0)
(0.192601 -7.22268e-07 0)
(0.192601 -6.02231e-07 0)
(0.192602 -5.00304e-07 0)
(0.192602 -4.13903e-07 0)
(0.192602 -3.40803e-07 0)
(0.192603 -2.79057e-07 0)
(0.192603 -2.27031e-07 0)
(0.192603 -1.83265e-07 0)
(0.192603 -1.46556e-07 0)
(0.192603 -1.15841e-07 0)
(0.192604 -9.02078e-08 0)
(0.192604 -6.89333e-08 0)
(0.192604 -5.1304e-08 0)
(0.192604 -3.68418e-08 0)
(0.192604 -2.4994e-08 0)
(0.192604 -1.53499e-08 0)
(0.192604 -7.52065e-09 0)
(0.192604 -1.18355e-09 0)
(0.192604 3.92818e-09 0)
(0.192604 8.05917e-09 0)
(0.192604 1.1227e-08 0)
(0.192604 1.32674e-08 0)
(0.192604 1.28867e-08 0)
(0.195591 0.00722913 0)
(0.196279 0.00801445 0)
(0.197088 0.00855516 0)
(0.197916 0.00888312 0)
(0.198715 0.00903841 0)
(0.199464 0.00904511 0)
(0.200142 0.00892233 0)
(0.200731 0.00869237 0)
(0.201218 0.00837975 0)
(0.201597 0.0080084 0)
(0.201872 0.00760003 0)
(0.202048 0.00717314 0)
(0.202138 0.00674235 0)
(0.202152 0.0063181 0)
(0.202105 0.00590675 0)
(0.20201 0.00551117 0)
(0.201878 0.00513148 0)
(0.20172 0.00476584 0)
(0.201543 0.00441118 0)
(0.201354 0.00406374 0)
(0.201159 0.00371959 0)
(0.200962 0.00337506 0)
(0.200764 0.00302718 0)
(0.200567 0.00267424 0)
(0.200371 0.00231642 0)
(0.200173 0.0019563 0)
(0.199973 0.00159905 0)
(0.199769 0.00125228 0)
(0.199561 0.000925437 0)
(0.199351 0.0006288 0)
(0.199143 0.000371142 0)
(0.198943 0.000155624 0)
(0.198749 -1.85259e-05 0)
(0.19857 -0.000153438 0)
(0.198411 -0.000252923 0)
(0.198275 -0.000322044 0)
(0.198163 -0.000366029 0)
(0.198074 -0.000389729 0)
(0.198007 -0.000397401 0)
(0.197961 -0.000392665 0)
(0.197932 -0.000378547 0)
(0.197918 -0.000357567 0)
(0.197917 -0.000331828 0)
(0.197925 -0.000303089 0)
(0.197941 -0.000272821 0)
(0.197962 -0.000242241 0)
(0.197987 -0.000212337 0)
(0.198013 -0.000183882 0)
(0.19804 -0.000157445 0)
(0.198067 -0.00013341 0)
(0.198092 -0.000111986 0)
(0.198115 -9.32368e-05 0)
(0.198136 -7.71032e-05 0)
(0.198155 -6.34324e-05 0)
(0.198172 -5.20067e-05 0)
(0.198186 -4.25705e-05 0)
(0.198198 -3.48533e-05 0)
(0.198209 -2.85885e-05 0)
(0.198218 -2.35273e-05 0)
(0.198225 -1.94465e-05 0)
(0.198231 -1.6154e-05 0)
(0.198237 -1.34886e-05 0)
(0.198241 -1.13192e-05 0)
(0.198245 -9.54094e-06 0)
(0.198248 -8.07193e-06 0)
(0.198251 -6.84873e-06 0)
(0.198253 -5.82264e-06 0)
(0.198255 -4.95635e-06 0)
(0.198257 -4.22113e-06 0)
(0.198258 -3.59469e-06 0)
(0.198259 -3.05947e-06 0)
(0.198261 -2.6014e-06 0)
(0.198261 -2.20905e-06 0)
(0.198262 -1.87292e-06 0)
(0.198263 -1.58507e-06 0)
(0.198264 -1.33872e-06 0)
(0.198264 -1.12811e-06 0)
(0.198265 -9.48242e-07 0)
(0.198265 -7.94852e-07 0)
(0.198265 -6.64221e-07 0)
(0.198266 -5.53139e-07 0)
(0.198266 -4.58847e-07 0)
(0.198266 -3.78926e-07 0)
(0.198266 -3.11335e-07 0)
(0.198267 -2.54261e-07 0)
(0.198267 -2.06185e-07 0)
(0.198267 -1.65787e-07 0)
(0.198267 -1.31909e-07 0)
(0.198267 -1.03631e-07 0)
(0.198267 -8.0062e-08 0)
(0.198267 -6.05572e-08 0)
(0.198267 -4.44423e-08 0)
(0.198267 -3.11839e-08 0)
(0.198267 -2.028e-08 0)
(0.198267 -1.12845e-08 0)
(0.198267 -3.95521e-09 0)
(0.198267 1.93587e-09 0)
(0.198267 6.46018e-09 0)
(0.198267 9.50713e-09 0)
(0.198267 1.04095e-08 0)
(0.19626 0.00679836 0)
(0.196797 0.00745399 0)
(0.197441 0.00794024 0)
(0.198127 0.00826015 0)
(0.198813 0.00843386 0)
(0.199474 0.00847865 0)
(0.200092 0.00840977 0)
(0.200653 0.00824447 0)
(0.201143 0.00800207 0)
(0.201559 0.00770193 0)
(0.201899 0.00736194 0)
(0.202168 0.00699768 0)
(0.20237 0.00662182 0)
(0.202516 0.00624385 0)
(0.202613 0.00587011 0)
(0.202672 0.00550406 0)
(0.202699 0.00514687 0)
(0.202702 0.00479791 0)
(0.202687 0.00445539 0)
(0.202657 0.00411681 0)
(0.202616 0.00377942 0)
(0.202564 0.00344068 0)
(0.202502 0.00309866 0)
(0.202427 0.00275254 0)
(0.202339 0.00240309 0)
(0.202234 0.00205304 0)
(0.20211 0.0017072 0)
(0.201965 0.00137226 0)
(0.2018 0.00105618 0)
(0.201617 0.000767246 0)
(0.201422 0.000512497 0)
(0.201222 0.00029568 0)
(0.201023 0.000116708 0)
(0.20083 -2.65942e-05 0)
(0.200648 -0.00013726 0)
(0.200481 -0.000219252 0)
(0.20033 -0.000276762 0)
(0.200196 -0.000313869 0)
(0.20008 -0.000334302 0)
(0.199981 -0.000341351 0)
(0.199898 -0.000337861 0)
(0.199829 -0.000326274 0)
(0.199773 -0.000308682 0)
(0.199729 -0.000286875 0)
(0.199695 -0.000262382 0)
(0.19967 -0.000236501 0)
(0.199652 -0.00021031 0)
(0.199641 -0.000184686 0)
(0.199634 -0.000160307 0)
(0.199632 -0.000137667 0)
(0.199632 -0.000117092 0)
(0.199635 -9.8754e-05 0)
(0.199639 -8.2695e-05 0)
(0.199643 -6.88549e-05 0)
(0.199649 -5.70954e-05 0)
(0.199654 -4.72267e-05 0)
(0.199659 -3.90299e-05 0)
(0.199664 -3.22772e-05 0)
(0.199669 -2.67461e-05 0)
(0.199673 -2.22304e-05 0)
(0.199677 -1.85468e-05 0)
(0.19968 -1.55372e-05 0)
(0.199683 -1.30695e-05 0)
(0.199685 -1.10358e-05 0)
(0.199687 -9.3494e-06 0)
(0.199689 -7.94195e-06 0)
(0.199691 -6.75981e-06 0)
(0.199692 -5.76118e-06 0)
(0.199693 -4.91345e-06 0)
(0.199695 -4.19103e-06 0)
(0.199696 -3.57363e-06 0)
(0.199696 -3.04496e-06 0)
(0.199697 -2.59176e-06 0)
(0.199698 -2.20308e-06 0)
(0.199698 -1.86974e-06 0)
(0.199699 -1.58399e-06 0)
(0.199699 -1.33923e-06 0)
(0.199699 -1.12977e-06 0)
(0.1997 -9.50728e-07 0)
(0.1997 -7.97889e-07 0)
(0.1997 -6.67594e-07 0)
(0.1997 -5.56699e-07 0)
(0.199701 -4.6245e-07 0)
(0.199701 -3.82506e-07 0)
(0.199701 -3.14805e-07 0)
(0.199701 -2.57593e-07 0)
(0.199701 -2.09359e-07 0)
(0.199701 -1.68769e-07 0)
(0.199701 -1.34748e-07 0)
(0.199701 -1.06277e-07 0)
(0.199701 -8.2581e-08 0)
(0.199701 -6.29002e-08 0)
(0.199701 -4.6609e-08 0)
(0.199701 -3.31533e-08 0)
(0.199701 -2.20302e-08 0)
(0.199701 -1.29188e-08 0)
(0.199701 -5.55618e-09 0)
(0.199702 1.67041e-10 0)
(0.199702 4.25087e-09 0)
(0.199702 6.58883e-09 0)
(0.196857 0.00642498 0)
(0.19728 0.00696702 0)
(0.197788 0.00739139 0)
(0.198345 0.00768921 0)
(0.198915 0.00786733 0)
(0.199476 0.0079362 0)
(0.20001 0.00790699 0)
(0.200504 0.00779257 0)
(0.200948 0.00760753 0)
(0.201336 0.00736698 0)
(0.201666 0.00708531 0)
(0.20194 0.0067754 0)
(0.202162 0.00644808 0)
(0.202337 0.00611186 0)
(0.202472 0.00577284 0)
(0.202573 0.0054349 0)
(0.202648 0.0051 0)
(0.2027 0.00476858 0)
(0.202734 0.00444001 0)
(0.202753 0.004113 0)
(0.202759 0.00378599 0)
(0.202752 0.00345751 0)
(0.202731 0.00312661 0)
(0.202695 0.0027932 0)
(0.202642 0.00245844 0)
(0.20257 0.00212496 0)
(0.202475 0.00179695 0)
(0.202357 0.00147993 0)
(0.202217 0.00118026 0)
(0.202056 0.000904398 0)
(0.201881 0.000657781 0)
(0.201697 0.000443743 0)
(0.20151 0.000263022 0)
(0.201325 0.000114322 0)
(0.201148 -4.79101e-06 0)
(0.200981 -9.71817e-05 0)
(0.200826 -0.000166225 0)
(0.200685 -0.000215324 0)
(0.200558 -0.000247676 0)
(0.200446 -0.000266198 0)
(0.200348 -0.000273502 0)
(0.200263 -0.000271891 0)
(0.200191 -0.000263385 0)
(0.20013 -0.000249747 0)
(0.20008 -0.000232506 0)
(0.200039 -0.000212975 0)
(0.200007 -0.000192263 0)
(0.199981 -0.000171287 0)
(0.199962 -0.000150777 0)
(0.199949 -0.000131291 0)
(0.199939 -0.00011322 0)
(0.199933 -9.68126e-05 0)
(0.19993 -8.21909e-05 0)
(0.199929 -6.93732e-05 0)
(0.199929 -5.82982e-05 0)
(0.199931 -4.88472e-05 0)
(0.199933 -4.08657e-05 0)
(0.199935 -3.41808e-05 0)
(0.199938 -2.86156e-05 0)
(0.19994 -2.40006e-05 0)
(0.199943 -2.018e-05 0)
(0.199945 -1.7016e-05 0)
(0.199947 -1.43903e-05 0)
(0.199949 -1.2204e-05 0)
(0.199951 -1.03755e-05 0)
(0.199952 -8.83906e-06 0)
(0.199953 -7.54178e-06 0)
(0.199955 -6.44151e-06 0)
(0.199956 -5.50472e-06 0)
(0.199956 -4.70456e-06 0)
(0.199957 -4.01946e-06 0)
(0.199958 -3.43187e-06 0)
(0.199959 -2.9274e-06 0)
(0.199959 -2.49408e-06 0)
(0.19996 -2.12187e-06 0)
(0.19996 -1.80225e-06 0)
(0.19996 -1.52797e-06 0)
(0.199961 -1.2928e-06 0)
(0.199961 -1.09138e-06 0)
(0.199961 -9.19066e-07 0)
(0.199961 -7.71845e-07 0)
(0.199961 -6.46253e-07 0)
(0.199962 -5.39262e-07 0)
(0.199962 -4.48283e-07 0)
(0.199962 -3.71045e-07 0)
(0.199962 -3.05599e-07 0)
(0.199962 -2.5027e-07 0)
(0.199962 -2.0358e-07 0)
(0.199962 -1.64312e-07 0)
(0.199962 -1.3135e-07 0)
(0.199962 -1.03797e-07 0)
(0.199962 -8.08242e-08 0)
(0.199962 -6.17277e-08 0)
(0.199962 -4.59054e-08 0)
(0.199962 -3.28139e-08 0)
(0.199962 -2.20714e-08 0)
(0.199962 -1.3365e-08 0)
(0.199962 -6.5077e-09 0)
(0.199962 -1.38762e-09 0)
(0.199962 2.16232e-09 0)
(0.197361 0.00610986 0)
(0.197699 0.00656072 0)
(0.198104 0.00692758 0)
(0.198554 0.00719866 0)
(0.199024 0.00737355 0)
(0.199494 0.00745712 0)
(0.199949 0.00745671 0)
(0.200375 0.00738145 0)
(0.200765 0.00724208 0)
(0.201113 0.00705013 0)
(0.201415 0.00681699 0)
(0.201672 0.00655319 0)
(0.201887 0.00626789 0)
(0.202062 0.00596862 0)
(0.202203 0.00566112 0)
(0.202314 0.00534943 0)
(0.2024 0.00503605 0)
(0.202464 0.00472225 0)
(0.202511 0.00440834 0)
(0.202543 0.00409405 0)
(0.20256 0.0037788 0)
(0.202564 0.00346208 0)
(0.202554 0.00314372 0)
(0.202529 0.0028242 0)
(0.202487 0.00250491 0)
(0.202426 0.00218834 0)
(0.202345 0.00187804 0)
(0.202243 0.00157853 0)
(0.202122 0.00129486 0)
(0.201982 0.00103205 0)
(0.201829 0.000794355 0)
(0.201667 0.000584599 0)
(0.2015 0.000403795 0)
(0.201334 0.000251415 0)
(0.201173 0.000125867 0)
(0.201019 2.4935e-05 0)
(0.200876 -5.39981e-05 0)
(0.200743 -0.000113668 0)
(0.200623 -0.000156811 0)
(0.200515 -0.000185986 0)
(0.200419 -0.00020356 0)
(0.200335 -0.000211655 0)
(0.200262 -0.000212181 0)
(0.2002 -0.000206834 0)
(0.200148 -0.000197102 0)
(0.200105 -0.000184281 0)
(0.20007 -0.000169479 0)
(0.200041 -0.000153625 0)
(0.20002 -0.000137478 0)
(0.200003 -0.000121634 0)
(0.199991 -0.00010654 0)
(0.199982 -9.25059e-05 0)
(0.199977 -7.9724e-05 0)
(0.199974 -6.82872e-05 0)
(0.199972 -5.82086e-05 0)
(0.199972 -4.94413e-05 0)
(0.199973 -4.18971e-05 0)
(0.199974 -3.54617e-05 0)
(0.199976 -3.00087e-05 0)
(0.199977 -2.54098e-05 0)
(0.199979 -2.15418e-05 0)
(0.199981 -1.82919e-05 0)
(0.199983 -1.55599e-05 0)
(0.199984 -1.32594e-05 0)
(0.199986 -1.13173e-05 0)
(0.199987 -9.67268e-06 0)
(0.199988 -8.27546e-06 0)
(0.199989 -7.0847e-06 0)
(0.19999 -6.06702e-06 0)
(0.199991 -5.19521e-06 0)
(0.199991 -4.44699e-06 0)
(0.199992 -3.80399e-06 0)
(0.199993 -3.25098e-06 0)
(0.199993 -2.77517e-06 0)
(0.199993 -2.36581e-06 0)
(0.199994 -2.01373e-06 0)
(0.199994 -1.71109e-06 0)
(0.199994 -1.45117e-06 0)
(0.199995 -1.22815e-06 0)
(0.199995 -1.03702e-06 0)
(0.199995 -8.73426e-07 0)
(0.199995 -7.33596e-07 0)
(0.199995 -6.1425e-07 0)
(0.199995 -5.12558e-07 0)
(0.199995 -4.26051e-07 0)
(0.199996 -3.52598e-07 0)
(0.199996 -2.90361e-07 0)
(0.199996 -2.37727e-07 0)
(0.199996 -1.93345e-07 0)
(0.199996 -1.55999e-07 0)
(0.199996 -1.24683e-07 0)
(0.199996 -9.84977e-08 0)
(0.199996 -7.66652e-08 0)
(0.199996 -5.85305e-08 0)
(0.199996 -4.35088e-08 0)
(0.199996 -3.11608e-08 0)
(0.199996 -2.11255e-08 0)
(0.199996 -1.3142e-08 0)
(0.199996 -7.00789e-09 0)
(0.199996 -2.46688e-09 0)
(0.197803 0.00584137 0)
(0.198076 0.00621846 0)
(0.1984 0.00653338 0)
(0.198762 0.00677529 0)
(0.199145 0.00694064 0)
(0.199534 0.00703063 0)
(0.199914 0.00704945 0)
(0.200277 0.00700325 0)
(0.200613 0.0068997 0)
(0.200917 0.00674736 0)
(0.201186 0.00655502 0)
(0.201419 0.00633108 0)
(0.201618 0.00608312 0)
(0.201783 0.00581763 0)
(0.201919 0.00553982 0)
(0.202029 0.00525367 0)
(0.202116 0.00496197 0)
(0.202183 0.00466653 0)
(0.202232 0.0043684 0)
(0.202267 0.00406807 0)
(0.202287 0.0037658 0)
(0.202294 0.00346182 0)
(0.202288 0.00315659 0)
(0.202267 0.00285102 0)
(0.20223 0.0025467 0)
(0.202177 0.00224593 0)
(0.202106 0.00195182 0)
(0.202018 0.00166806 0)
(0.201914 0.00139868 0)
(0.201794 0.00114765 0)
(0.201663 0.000918353 0)
(0.201523 0.000713171 0)
(0.201379 0.000533218 0)
(0.201235 0.000378434 0)
(0.201093 0.00024787 0)
(0.200957 0.000139904 0)
(0.200829 5.25526e-05 0)
(0.20071 -1.63947e-05 0)
(0.2006 -6.91598e-05 0)
(0.200502 -0.000107959 0)
(0.200413 -0.000134948 0)
(0.200336 -0.000152037 0)
(0.200268 -0.000161008 0)
(0.200209 -0.000163475 0)
(0.20016 -0.000160874 0)
(0.200118 -0.00015447 0)
(0.200084 -0.000145363 0)
(0.200056 -0.00013449 0)
(0.200034 -0.000122629 0)
(0.200017 -0.000110411 0)
(0.200004 -9.83274e-05 0)
(0.199995 -8.67413e-05 0)
(0.199989 -7.59055e-05 0)
(0.199984 -6.59765e-05 0)
(0.199982 -5.70323e-05 0)
(0.199981 -4.90895e-05 0)
(0.199981 -4.21191e-05 0)
(0.199981 -3.60606e-05 0)
(0.199982 -3.08346e-05 0)
(0.199984 -2.63522e-05 0)
(0.199985 -2.25227e-05 0)
(0.199986 -1.92587e-05 0)
(0.199988 -1.64794e-05 0)
(0.199989 -1.41127e-05 0)
(0.19999 -1.20953e-05 0)
(0.199991 -1.03732e-05 0)
(0.199992 -8.90044e-06 0)
(0.199993 -7.63863e-06 0)
(0.199994 -6.55565e-06 0)
(0.199995 -5.62474e-06 0)
(0.199995 -4.8236e-06 0)
(0.199996 -4.13354e-06 0)
(0.199996 -3.53886e-06 0)
(0.199997 -3.02631e-06 0)
(0.199997 -2.58459e-06 0)
(0.199998 -2.20406e-06 0)
(0.199998 -1.87646e-06 0)
(0.199998 -1.59464e-06 0)
(0.199998 -1.35244e-06 0)
(0.199999 -1.14453e-06 0)
(0.199999 -9.6627e-07 0)
(0.199999 -8.13647e-07 0)
(0.199999 -6.83157e-07 0)
(0.199999 -5.71772e-07 0)
(0.199999 -4.76851e-07 0)
(0.199999 -3.96104e-07 0)
(0.199999 -3.27557e-07 0)
(0.199999 -2.69477e-07 0)
(0.199999 -2.20397e-07 0)
(0.199999 -1.79014e-07 0)
(0.199999 -1.44228e-07 0)
(0.2 -1.15072e-07 0)
(0.2 -9.07073e-08 0)
(0.2 -7.04257e-08 0)
(0.2 -5.36041e-08 0)
(0.2 -3.97508e-08 0)
(0.2 -2.846e-08 0)
(0.2 -1.94108e-08 0)
(0.2 -1.23386e-08 0)
(0.2 -6.96678e-09 0)
(0.198203 0.00560002 0)
(0.198421 0.00591657 0)
(0.198677 0.00618612 0)
(0.198964 0.00639976 0)
(0.19927 0.00655298 0)
(0.199585 0.00664475 0)
(0.199897 0.00667689 0)
(0.200197 0.00665314 0)
(0.20048 0.00657866 0)
(0.200739 0.00645954 0)
(0.200972 0.00630233 0)
(0.201177 0.00611354 0)
(0.201355 0.00589926 0)
(0.201506 0.00566497 0)
(0.201632 0.00541527 0)
(0.201735 0.00515395 0)
(0.201818 0.0048839 0)
(0.201883 0.00460731 0)
(0.201932 0.00432572 0)
(0.201967 0.00404028 0)
(0.201988 0.00375188 0)
(0.201997 0.00346134 0)
(0.201992 0.00316963 0)
(0.201974 0.00287802 0)
(0.201943 0.00258821 0)
(0.201898 0.00230238 0)
(0.201837 0.00202323 0)
(0.201763 0.00175382 0)
(0.201675 0.0014974 0)
(0.201574 0.00125714 0)
(0.201464 0.00103574 0)
(0.201347 0.000835222 0)
(0.201225 0.000656701 0)
(0.201103 0.000500413 0)
(0.200982 0.000365851 0)
(0.200865 0.000251935 0)
(0.200754 0.000157206 0)
(0.20065 7.99433e-05 0)
(0.200554 1.82971e-05 0)
(0.200467 -2.96157e-05 0)
(0.200388 -6.55679e-05 0)
(0.200319 -9.13517e-05 0)
(0.200257 -0.000108601 0)
(0.200204 -0.000118812 0)
(0.200159 -0.000123344 0)
(0.20012 -0.000123414 0)
(0.200088 -0.000120096 0)
(0.200062 -0.000114321 0)
(0.200041 -0.000106877 0)
(0.200025 -9.84192e-05 0)
(0.200012 -8.94775e-05 0)
(0.200003 -8.04649e-05 0)
(0.199996 -7.16906e-05 0)
(0.199991 -6.3373e-05 0)
(0.199988 -5.5654e-05 0)
(0.199986 -4.86128e-05 0)
(0.199986 -4.228e-05 0)
(0.199986 -3.66495e-05 0)
(0.199986 -3.16898e-05 0)
(0.199987 -2.73528e-05 0)
(0.199988 -2.35815e-05 0)
(0.199989 -2.03155e-05 0)
(0.19999 -1.7495e-05 0)
(0.199991 -1.50632e-05 0)
(0.199992 -1.29682e-05 0)
(0.199993 -1.11638e-05 0)
(0.199994 -9.60916e-06 0)
(0.199994 -8.26907e-06 0)
(0.199995 -7.1132e-06 0)
(0.199996 -6.11566e-06 0)
(0.199996 -5.25436e-06 0)
(0.199997 -4.5105e-06 0)
(0.199997 -3.86801e-06 0)
(0.199997 -3.31315e-06 0)
(0.199998 -2.83413e-06 0)
(0.199998 -2.42079e-06 0)
(0.199998 -2.06439e-06 0)
(0.199999 -1.75735e-06 0)
(0.199999 -1.4931e-06 0)
(0.199999 -1.26593e-06 0)
(0.199999 -1.07088e-06 0)
(0.199999 -9.03642e-07 0)
(0.199999 -7.60457e-07 0)
(0.199999 -6.38059e-07 0)
(0.199999 -5.33601e-07 0)
(0.2 -4.44611e-07 0)
(0.2 -3.6895e-07 0)
(0.2 -3.04745e-07 0)
(0.2 -2.50395e-07 0)
(0.2 -2.04491e-07 0)
(0.2 -1.65831e-07 0)
(0.2 -1.33365e-07 0)
(0.2 -1.06184e-07 0)
(0.2 -8.3516e-08 0)
(0.2 -6.46893e-08 0)
(0.2 -4.91549e-08 0)
(0.2 -3.64565e-08 0)
(0.2 -2.6217e-08 0)
(0.2 -1.81198e-08 0)
(0.2 -1.18781e-08 0)
(0.198568 0.00538731 0)
(0.198738 0.0056548 0)
(0.198936 0.00588571 0)
(0.199158 0.00607314 0)
(0.199397 0.0062127 0)
(0.199644 0.00630235 0)
(0.199892 0.00634233 0)
(0.200133 0.00633462 0)
(0.200363 0.00628243 0)
(0.200576 0.00618992 0)
(0.200771 0.00606176 0)
(0.200945 0.00590285 0)
(0.201098 0.00571799 0)
(0.20123 0.00551163 0)
(0.201342 0.00528779 0)
(0.201435 0.00504989 0)
(0.201511 0.00480082 0)
(0.201571 0.00454294 0)
(0.201618 0.00427813 0)
(0.201651 0.00400798 0)
(0.201672 0.00373385 0)
(0.201681 0.00345702 0)
(0.201679 0.00317884 0)
(0.201665 0.00290084 0)
(0.201639 0.0026248 0)
(0.201602 0.0023528 0)
(0.201552 0.00208722 0)
(0.201491 0.00183067 0)
(0.201419 0.00158581 0)
(0.201338 0.00135519 0)
(0.201248 0.00114106 0)
(0.201152 0.000945111 0)
(0.201053 0.000768433 0)
(0.200953 0.000611439 0)
(0.200853 0.000473952 0)
(0.200756 0.000355303 0)
(0.200663 0.00025445 0)
(0.200575 0.000170089 0)
(0.200494 0.000100736 0)
(0.200419 4.48298e-05 0)
(0.200352 8.4457e-07 0)
(0.200291 -3.28004e-05 0)
(0.200238 -5.75758e-05 0)
(0.200191 -7.48738e-05 0)
(0.200151 -8.59755e-05 0)
(0.200117 -9.20445e-05 0)
(0.200088 -9.41256e-05 0)
(0.200064 -9.31391e-05 0)
(0.200045 -8.98807e-05 0)
(0.20003 -8.50257e-05 0)
(0.200018 -7.91356e-05 0)
(0.200008 -7.26644e-05 0)
(0.200002 -6.59686e-05 0)
(0.199997 -5.93185e-05 0)
(0.199993 -5.29095e-05 0)
(0.199991 -4.68745e-05 0)
(0.19999 -4.12949e-05 0)
(0.199989 -3.62122e-05 0)