/*--------------------------------*- C++ -*----------------------------------*\
| =========                 |                                                 |
| \\      /  F ield         | OpenFOAM: The Open Source CFD Toolbox           |
|  \\    /   O peration     | Version:  2.3.0                                 |
|   \\  /    A nd           | Web:      www.OpenFOAM.org                      |
|    \\/     M anipulation  |                                                 |
\*---------------------------------------------------------------------------*/
FoamFile
{
    version     2.0;
    format      ascii;
    class       volScalarField;
    location    "0.6";
    object      p;
}
// * * * * * * * * * * * * * * * * * * * * * * * * * * * * * * * * * * * * * //

dimensions      [0 2 -2 0 0 0 0];

internalField   nonuniform List<scalar> 
217
(
0.000455107
0.000449791
0.000381901
0.000312333
0.000258651
0.000218495
0.000186198
0.000158413
0.000136761
0.000123219
0.000107493
8.75245e-05
7.02736e-05
4.43748e-05
7.51427e-06
-2.70479e-05
-7.30745e-05
-0.000136659
-0.000179297
-0.000213922
-0.000245617
-0.000239833
-0.000197195
-0.00013489
-5.28745e-05
0.000336997
0.000350267
0.000336786
0.000300822
0.000254867
0.000211676
0.000175596
0.000146965
0.000126998
0.000114614
9.96776e-05
8.15014e-05
6.48485e-05
4.02159e-05
5.59741e-06
-2.74255e-05
-7.13116e-05
-0.000132061
-0.000171231
-0.000203776
-0.000235926
-0.000230644
-0.000190115
-0.00012949
-4.99181e-05
0.000282723
0.000304392
0.000308543
0.000292114
0.000254755
0.000207599
0.000168024
0.000138625
0.000115464
0.000101092
8.84451e-05
7.32604e-05
5.74984e-05
3.41572e-05
3.79323e-06
-2.61319e-05
-6.68031e-05
-0.000119228
-0.000150496
-0.000178637
-0.000207225
-0.000201712
-0.000167745
-0.000114671
-4.30375e-05
0.000226522
0.000246099
0.000256853
0.000254084
0.000228736
0.000188455
0.000152981
0.000121865
9.5564e-05
8.34294e-05
7.23884e-05
5.98108e-05
4.82301e-05
2.61408e-05
6.19235e-07
-2.34896e-05
-5.92942e-05
-0.000102697
-0.000126796
-0.000149191
-0.000173709
-0.000168467
-0.000140104
-9.67525e-05
-3.57553e-05
0.000169477
0.000187467
0.000200989
0.000208527
0.000194209
0.000161176
0.000132124
0.000104957
7.94816e-05
6.7269e-05
5.61575e-05
4.72936e-05
3.95829e-05
1.88579e-05
1.85406e-07
-1.60906e-05
-4.86328e-05
-8.4159e-05
-9.8777e-05
-0.000114222
-0.000136699
-0.000132855
-0.000107667
-7.53349e-05
-2.74466e-05
0.000112672
0.000126607
0.000139534
0.000153261
0.000147992
0.00012447
0.000102441
8.21092e-05
6.01154e-05
4.68682e-05
4.05172e-05
3.48716e-05
2.7448e-05
1.27618e-05
5.003e-07
-1.06715e-05
-3.52245e-05
-6.1098e-05
-6.94554e-05
-7.9192e-05
-9.74161e-05
-9.40725e-05
-7.35661e-05
-5.26339e-05
-1.99125e-05
3.53344e-05
4.49069e-05
4.99183e-05
6.09113e-05
6.36266e-05
5.32412e-05
4.36896e-05
3.57915e-05
2.52883e-05
1.84343e-05
1.68744e-05
1.20708e-05
8.42675e-06
8.51476e-06
5.94074e-07
-9.58116e-06
-1.24183e-05
-1.99447e-05
-2.84067e-05
-3.14608e-05
-3.68783e-05
-3.5642e-05
-2.70951e-05
-1.96277e-05
-7.60985e-06
0.000101762
0.000138252
0.000192432
0.000258729
0.000318375
0.000382435
0.000110534
0.000136537
0.000179286
0.000229766
0.000273489
0.000308112
0.000110131
0.000130729
0.000162707
0.000199531
0.000231665
0.000257349
0.000106518
0.000122855
0.000143192
0.000166108
0.000187573
0.000206273
9.66657e-05
0.000107694
0.000118814
0.000130315
0.00013992
0.000151186
7.82e-05
8.43963e-05
8.81744e-05
9.15972e-05
9.17814e-05
9.68341e-05
3.70673e-05
3.85202e-05
3.66464e-05
3.51097e-05
2.89355e-05
2.47913e-05
)
;

boundaryField
{
    top
    {
        type            fixedValue;
        value           uniform 0;
    }
    inlet
    {
        type            zeroGradient;
    }
    outlet
    {
        type            fixedValue;
        value           uniform 0;
    }
    plate
    {
        type            zeroGradient;
    }
    symmBound
    {
        type            zeroGradient;
    }
    frontAndBack
    {
        type            empty;
    }
}


// ************************************************************************* //
