/*--------------------------------*- C++ -*----------------------------------*\
| =========                 |                                                 |
| \\      /  F ield         | OpenFOAM: The Open Source CFD Toolbox           |
|  \\    /   O peration     | Version:  2.3.0                                 |
|   \\  /    A nd           | Web:      www.OpenFOAM.org                      |
|    \\/     M anipulation  |                                                 |
\*---------------------------------------------------------------------------*/
FoamFile
{
    version     2.0;
    format      ascii;
    class       surfaceScalarField;
    location    "0.55";
    object      phi_0;
}
// * * * * * * * * * * * * * * * * * * * * * * * * * * * * * * * * * * * * * //

dimensions      [0 3 -1 0 0 0 0];

internalField   nonuniform List<scalar> 
6598
(
2.86377e-08
2.90244e-09
-3.15401e-08
2.57717e-08
2.866e-09
2.30853e-08
2.68645e-09
2.06092e-08
2.47606e-09
1.83597e-08
2.24951e-09
1.63472e-08
2.01247e-09
1.4574e-08
1.77327e-09
1.30344e-08
1.53952e-09
1.17168e-08
1.31764e-09
1.06039e-08
1.11288e-09
9.67479e-09
9.2913e-10
8.90612e-09
7.68662e-10
8.27399e-09
6.3213e-10
7.75525e-09
5.18747e-10
7.32862e-09
4.26622e-10
6.97547e-09
3.53154e-10
6.68005e-09
2.95423e-10
6.42953e-09
2.50513e-10
6.2138e-09
2.15736e-10
6.02503e-09
1.88765e-10
5.85735e-09
1.67685e-10
5.70637e-09
1.50981e-10
5.56887e-09
1.37498e-10
5.44249e-09
1.26381e-10
5.32548e-09
1.17012e-10
5.21652e-09
1.08954e-10
5.11462e-09
1.019e-10
5.01898e-09
9.5637e-11
4.92897e-09
9.00173e-11
4.84403e-09
8.49352e-11
4.76372e-09
8.03136e-11
4.68762e-09
7.60942e-11
4.61539e-09
7.22308e-11
4.54671e-09
6.86852e-11
4.48128e-09
6.54251e-11
4.41886e-09
6.2422e-11
4.35921e-09
5.96508e-11
4.30212e-09
5.70889e-11
4.24741e-09
5.47162e-11
4.19489e-09
5.25145e-11
4.14442e-09
5.04676e-11
4.09586e-09
4.85607e-11
4.04908e-09
4.6781e-11
4.00396e-09
4.51166e-11
3.96041e-09
4.35572e-11
3.91831e-09
4.20935e-11
3.8776e-09
4.0717e-11
3.83818e-09
3.94203e-11
3.79998e-09
3.81967e-11
3.76294e-09
3.70402e-11
3.72699e-09
3.59454e-11
3.69209e-09
3.49074e-11
3.65817e-09
3.39218e-11
3.62518e-09
3.29846e-11
3.59309e-09
3.20923e-11
3.56185e-09
3.12414e-11
3.53142e-09
3.0429e-11
3.50177e-09
2.96524e-11
3.47286e-09
2.8909e-11
3.44466e-09
2.81965e-11
3.41715e-09
2.75127e-11
3.39029e-09
2.68558e-11
3.36407e-09
2.62238e-11
3.33845e-09
2.56152e-11
3.31342e-09
2.50282e-11
3.28896e-09
2.44615e-11
3.26505e-09
2.39137e-11
3.24167e-09
2.33834e-11
3.2188e-09
2.28694e-11
3.19643e-09
2.23706e-11
3.17454e-09
2.1886e-11
3.15313e-09
2.14144e-11
3.13217e-09
2.0955e-11
3.11166e-09
2.05067e-11
3.0916e-09
2.00687e-11
3.07196e-09
1.96402e-11
3.05273e-09
1.92203e-11
3.03393e-09
1.88083e-11
3.01552e-09
1.84036e-11
2.99752e-09
1.80054e-11
2.9799e-09
1.76131e-11
2.96268e-09
1.72261e-11
2.94583e-09
1.6844e-11
2.92937e-09
1.64664e-11
2.91328e-09
1.60928e-11
2.89755e-09
1.57231e-11
2.88219e-09
1.53571e-11
2.8672e-09
1.49948e-11
2.85256e-09
1.46363e-11
2.83828e-09
1.42822e-11
2.82435e-09
1.39331e-11
2.81076e-09
1.35901e-11
2.7975e-09
1.32552e-11
2.78457e-09
1.29314e-11
2.77195e-09
1.2625e-11
2.7596e-09
1.235e-11
2.74745e-09
1.21468e-11
2.73534e-09
1.21058e-11
2.72284e-09
1.25074e-11
3.22686e-11
3.43414e-08
3.1579e-09
-3.45969e-08
3.37732e-08
3.43423e-09
3.29743e-08
3.48535e-09
3.20195e-08
3.43089e-09
3.09639e-08
3.3051e-09
2.9853e-08
3.12331e-09
2.87238e-08
2.90251e-09
2.76045e-08
2.65886e-09
2.6516e-08
2.40611e-09
2.54732e-08
2.15564e-09
2.44858e-08
1.91654e-09
2.35592e-08
1.69533e-09
2.26953e-08
1.49598e-09
2.18939e-08
1.32016e-09
2.11528e-08
1.16771e-09
2.04688e-08
1.03714e-09
1.9838e-08
9.26192e-10
1.92563e-08
8.32252e-10
1.87193e-08
7.52689e-10
1.82231e-08
6.85058e-10
1.77635e-08
6.27215e-10
1.73372e-08
5.77354e-10
1.69406e-08
5.34002e-10
1.65711e-08
4.95979e-10
1.62257e-08
4.62355e-10
1.59023e-08
4.32403e-10
1.55986e-08
4.0555e-10
1.53129e-08
3.81345e-10
1.50435e-08
3.5943e-10
1.47889e-08
3.39512e-10
1.45479e-08
3.21352e-10
1.43192e-08
3.04749e-10
1.41019e-08
2.89533e-10
1.3895e-08
2.75555e-10
1.36978e-08
2.62688e-10
1.35094e-08
2.5082e-10
1.33292e-08
2.3985e-10
1.31566e-08
2.29691e-10
1.2991e-08
2.20265e-10
1.2832e-08
2.11502e-10
1.26792e-08
2.0334e-10
1.2532e-08
1.95723e-10
1.23902e-08
1.88603e-10
1.22534e-08
1.81935e-10
1.21213e-08
1.75679e-10
1.19935e-08
1.698e-10
1.187e-08
1.64266e-10
1.17504e-08
1.59049e-10
1.16344e-08
1.54123e-10
1.1522e-08
1.49464e-10
1.14129e-08
1.45053e-10
1.13069e-08
1.40868e-10
1.1204e-08
1.36894e-10
1.11038e-08
1.33115e-10
1.10064e-08
1.29516e-10
1.09116e-08
1.26084e-10
1.08192e-08
1.22807e-10
1.07292e-08
1.19675e-10
1.06414e-08
1.16676e-10
1.05558e-08
1.13803e-10
1.04723e-08
1.11045e-10
1.03907e-08
1.08396e-10
1.03111e-08
1.05848e-10
1.02333e-08
1.03393e-10
1.01573e-08
1.01026e-10
1.00831e-08
9.87399e-11
1.00104e-08
9.65296e-11
9.93943e-09
9.43896e-11
9.86999e-09
9.23148e-11
9.80206e-09
9.03005e-11
9.7356e-09
8.8342e-11
9.67058e-09
8.6435e-11
9.60696e-09
8.45753e-11
9.54471e-09
8.2759e-11
9.48379e-09
8.09823e-11
9.42419e-09
7.92413e-11
9.36588e-09
7.75327e-11
9.30884e-09
7.58529e-11
9.25304e-09
7.41988e-11
9.19848e-09
7.25672e-11
9.14514e-09
7.09552e-11
9.093e-09
6.936e-11
9.04207e-09
6.77789e-11
8.99232e-09
6.62097e-11
8.94377e-09
6.46502e-11
8.89639e-09
6.30987e-11
8.8502e-09
6.15538e-11
8.80518e-09
6.00145e-11
8.76133e-09
5.84808e-11
8.71866e-09
5.6953e-11
8.67716e-09
5.54327e-11
8.63683e-09
5.39229e-11
8.59765e-09
5.24292e-11
8.55962e-09
5.0961e-11
8.52271e-09
4.95376e-11
8.48686e-09
4.82044e-11
8.45192e-09
4.70822e-11
8.41749e-09
4.65384e-11
8.38016e-09
4.98322e-11
8.10499e-11
3.64349e-08
2.97444e-09
-3.62515e-08
3.65273e-08
3.34191e-09
3.64962e-08
3.51646e-09
3.63462e-08
3.58081e-09
3.60869e-08
3.5644e-09
3.57319e-08
3.47829e-09
3.52982e-08
3.33623e-09
3.48032e-08
3.15386e-09
3.42634e-08
2.94591e-09
3.36936e-08
2.72545e-09
3.31065e-08
2.50362e-09
3.25127e-08
2.28919e-09
3.19203e-08
2.08838e-09
3.13355e-08
1.9049e-09
3.07629e-08
1.74038e-09
3.02052e-08
1.59478e-09
2.96645e-08
1.46697e-09
2.91415e-08
1.35518e-09
2.86368e-08
1.25738e-09
2.81504e-08
1.17154e-09
2.76818e-08
1.09576e-09
2.72308e-08
1.02841e-09
2.67966e-08
9.68122e-10
2.63789e-08
9.13754e-10
2.59768e-08
8.64406e-10
2.55899e-08
8.19354e-10
2.52174e-08
7.78027e-10
2.48588e-08
7.39964e-10
2.45134e-08
7.04795e-10
2.41807e-08
6.72215e-10
2.38601e-08
6.41969e-10
2.3551e-08
6.13838e-10
2.32529e-08
5.87635e-10
2.29652e-08
5.63194e-10
2.26876e-08
5.40367e-10
2.24194e-08
5.19022e-10
2.21602e-08
4.99038e-10
2.19096e-08
4.80306e-10
2.16671e-08
4.62728e-10
2.14324e-08
4.46213e-10
2.12051e-08
4.30679e-10
2.09847e-08
4.1605e-10
2.07711e-08
4.02257e-10
2.05638e-08
3.89238e-10
2.03625e-08
3.76934e-10
2.0167e-08
3.65293e-10
1.9977e-08
3.54266e-10
1.97923e-08
3.43809e-10
1.96125e-08
3.33882e-10
1.94375e-08
3.24447e-10
1.92671e-08
3.15468e-10
1.91011e-08
3.06916e-10
1.89392e-08
2.98761e-10
1.87813e-08
2.90975e-10
1.86273e-08
2.83533e-10
1.8477e-08
2.76414e-10
1.83302e-08
2.69595e-10
1.81868e-08
2.63057e-10
1.80467e-08
2.56782e-10
1.79098e-08
2.50751e-10
1.77759e-08
2.4495e-10
1.76449e-08
2.39363e-10
1.75168e-08
2.33976e-10
1.73914e-08
2.28775e-10
1.72687e-08
2.2375e-10
1.71485e-08
2.18887e-10
1.70309e-08
2.14176e-10
1.69156e-08
2.09605e-10
1.68028e-08
2.05166e-10
1.66922e-08
2.00848e-10
1.65839e-08
1.96641e-10
1.64778e-08
1.92537e-10
1.63739e-08
1.88528e-10
1.6272e-08
1.84605e-10
1.61723e-08
1.80759e-10
1.60745e-08
1.76983e-10
1.59788e-08
1.7327e-10
1.5885e-08
1.69611e-10
1.57932e-08
1.65999e-10
1.57034e-08
1.62428e-10
1.56154e-08
1.58891e-10
1.55294e-08
1.5538e-10
1.54453e-08
1.51891e-10
1.53631e-08
1.48417e-10
1.52828e-08
1.44953e-10
1.52044e-08
1.41494e-10
1.51279e-08
1.38036e-10
1.50534e-08
1.34576e-10
1.49807e-08
1.31112e-10
1.491e-08
1.27645e-10
1.48413e-08
1.24175e-10
1.47745e-08
1.20707e-10
1.47097e-08
1.17251e-10
1.46468e-08
1.13823e-10
1.45859e-08
1.10459e-10
1.45269e-08
1.07244e-10
1.44695e-08
1.04411e-10
1.44133e-08
1.02801e-10
1.43553e-08
1.07789e-10
1.39153e-10
3.80068e-08
2.75183e-09
-3.77842e-08
3.82312e-08
3.11754e-09
3.84166e-08
3.33104e-09
3.85513e-08
3.44606e-09
3.86282e-08
3.48755e-09
3.86427e-08
3.46379e-09
3.85949e-08
3.38403e-09
3.84884e-08
3.26038e-09
3.83289e-08
3.10534e-09
3.81237e-08
2.93064e-09
3.78806e-08
2.74678e-09
3.76072e-08
2.5626e-09
3.73107e-08
2.38486e-09
3.69974e-08
2.21818e-09
3.66726e-08
2.0652e-09
3.63404e-08
1.92694e-09
3.60042e-08
1.80321e-09
3.56663e-08
1.69307e-09
3.53285e-08
1.59513e-09
3.49922e-08
1.50785e-09
3.46583e-08
1.42972e-09
3.43273e-08
1.35935e-09
3.39999e-08
1.29555e-09
3.36764e-08
1.2373e-09
3.3357e-08
1.18379e-09
3.3042e-08
1.13434e-09
3.27316e-08
1.08844e-09
3.24259e-08
1.04566e-09
3.2125e-08
1.00565e-09
3.18291e-08
9.68135e-10
3.15382e-08
9.32884e-10
3.12523e-08
8.99701e-10
3.09715e-08
8.68418e-10
3.06959e-08
8.38889e-10
3.04252e-08
8.10982e-10
3.01597e-08
7.8458e-10
2.98991e-08
7.59579e-10
2.96436e-08
7.3588e-10
2.93929e-08
7.13395e-10
2.91471e-08
6.92042e-10
2.8906e-08
6.71747e-10
2.86696e-08
6.5244e-10
2.84378e-08
6.34057e-10
2.82105e-08
6.16539e-10
2.79876e-08
5.99831e-10
2.7769e-08
5.83882e-10
2.75546e-08
5.68645e-10
2.73444e-08
5.54075e-10
2.71381e-08
5.40133e-10
2.69358e-08
5.26779e-10
2.67373e-08
5.13979e-10
2.65425e-08
5.017e-10
2.63513e-08
4.89911e-10
2.61637e-08
4.78582e-10
2.59796e-08
4.67687e-10
2.57988e-08
4.572e-10
2.56213e-08
4.47097e-10
2.5447e-08
4.37356e-10
2.52758e-08
4.27956e-10
2.51077e-08
4.18876e-10
2.49426e-08
4.10098e-10
2.47803e-08
4.01603e-10
2.46209e-08
3.93375e-10
2.44643e-08
3.85396e-10
2.43104e-08
3.77652e-10
2.41592e-08
3.70126e-10
2.40105e-08
3.62806e-10
2.38645e-08
3.55676e-10
2.37209e-08
3.48723e-10
2.35798e-08
3.41935e-10
2.34412e-08
3.35297e-10
2.33049e-08
3.28798e-10
2.3171e-08
3.22426e-10
2.30394e-08
3.16167e-10
2.29102e-08
3.10011e-10
2.27832e-08
3.03946e-10
2.26585e-08
2.97959e-10
2.25361e-08
2.9204e-10
2.24159e-08
2.86177e-10
2.2298e-08
2.80358e-10
2.21823e-08
2.74574e-10
2.20689e-08
2.68814e-10
2.19577e-08
2.63066e-10
2.18488e-08
2.57322e-10
2.17422e-08
2.51571e-10
2.16379e-08
2.45807e-10
2.15359e-08
2.40021e-10
2.14362e-08
2.34207e-10
2.1339e-08
2.28361e-10
2.12442e-08
2.22482e-10
2.11518e-08
2.16569e-10
2.10618e-08
2.10629e-10
2.09744e-08
2.04674e-10
2.08895e-08
1.9873e-10
2.08071e-08
1.92847e-10
2.07272e-08
1.8715e-10
2.06496e-08
1.81983e-10
2.05739e-08
1.78576e-10
2.04992e-08
1.82463e-10
2.06059e-10
3.95407e-08
2.55452e-09
-3.93434e-08
3.97676e-08
2.89066e-09
3.99896e-08
3.10901e-09
4.01949e-08
3.24084e-09
4.03756e-08
3.30683e-09
4.05244e-08
3.31498e-09
4.06361e-08
3.27229e-09
4.07084e-08
3.18813e-09
4.0741e-08
3.07271e-09
4.07358e-08
2.93588e-09
4.06958e-08
2.78674e-09
4.06252e-08
2.63319e-09
4.05284e-08
2.48162e-09
4.04099e-08
2.33668e-09
4.02738e-08
2.20136e-09
4.01235e-08
2.07722e-09
3.99621e-08
1.96467e-09
3.97918e-08
1.86336e-09
3.96145e-08
1.77241e-09
3.94316e-08
1.69073e-09
3.92442e-08
1.61714e-09
3.9053e-08
1.55049e-09
3.88588e-08
1.48978e-09
3.8662e-08
1.43413e-09
3.8463e-08
1.38279e-09
3.82622e-08
1.33516e-09
3.80598e-08
1.29076e-09
3.78563e-08
1.24918e-09
3.76519e-08
1.2101e-09
3.74467e-08
1.17328e-09
3.72411e-08
1.13848e-09
3.70353e-08
1.10553e-09
3.68295e-08
1.07427e-09
3.66238e-08
1.04458e-09
3.64184e-08
1.01634e-09
3.62135e-08
9.89447e-10
3.60093e-08
9.63802e-10
3.58059e-08
9.39324e-10
3.56033e-08
9.15936e-10
3.54018e-08
8.93567e-10
3.52014e-08
8.72154e-10
3.50022e-08
8.51636e-10
3.48043e-08
8.31959e-10
3.46078e-08
8.13072e-10
3.44127e-08
7.94928e-10
3.42191e-08
7.77483e-10
3.4027e-08
7.60697e-10
3.38365e-08
7.44532e-10
3.36477e-08
7.28953e-10
3.34606e-08
7.13928e-10
3.32751e-08
6.99425e-10
3.30914e-08
6.85416e-10
3.29095e-08
6.71875e-10
3.27293e-08
6.58775e-10
3.25509e-08
6.46092e-10
3.23743e-08
6.33805e-10
3.21995e-08
6.21892e-10
3.20265e-08
6.10333e-10
3.18553e-08
5.99107e-10
3.1686e-08
5.88198e-10
3.15185e-08
5.77587e-10
3.13529e-08
5.67256e-10
3.1189e-08
5.57191e-10
3.10271e-08
5.47374e-10
3.08669e-08
5.37791e-10
3.07086e-08
5.28427e-10
3.05522e-08
5.19266e-10
3.03976e-08
5.10295e-10
3.02448e-08
5.01499e-10
3.00938e-08
4.92864e-10
2.99448e-08
4.84376e-10
2.97975e-08
4.76022e-10
2.96522e-08
4.67787e-10
2.95087e-08
4.59657e-10
2.93671e-08
4.51618e-10
2.92274e-08
4.43657e-10
2.90896e-08
4.35759e-10
2.89537e-08
4.27909e-10
2.88198e-08
4.20095e-10
2.86878e-08
4.123e-10
2.85579e-08
4.04512e-10
2.843e-08
3.96716e-10
2.83042e-08
3.88899e-10
2.81804e-08
3.81046e-10
2.80589e-08
3.73146e-10
2.79395e-08
3.65186e-10
2.78224e-08
3.57156e-10
2.77075e-08
3.49047e-10
2.7595e-08
3.40852e-10
2.74849e-08
3.32567e-10
2.73773e-08
3.24193e-10
2.72722e-08
3.15736e-10
2.71697e-08
3.0721e-10
2.70698e-08
2.98648e-10
2.69725e-08
2.90115e-10
2.68779e-08
2.81764e-10
2.67859e-08
2.74006e-10
2.66963e-08
2.68146e-10
2.66103e-08
2.68469e-10
2.79476e-10
4.1115e-08
2.38437e-09
-4.09448e-08
4.13213e-08
2.68435e-09
4.15356e-08
2.89471e-09
4.17459e-08
3.03047e-09
4.19458e-08
3.10696e-09
4.2129e-08
3.13184e-09
4.22902e-08
3.1111e-09
4.2426e-08
3.05232e-09
4.25347e-08
2.964e-09
4.2616e-08
2.85454e-09
4.2671e-08
2.73174e-09
4.27017e-08
2.60255e-09
4.27106e-08
2.47272e-09
4.27006e-08
2.34664e-09
4.26746e-08
2.22733e-09
4.26353e-08
2.11657e-09
4.25848e-08
2.01514e-09
4.25251e-08
1.92306e-09
4.24576e-08
1.83986e-09
4.23836e-08
1.76477e-09
4.23039e-08
1.69688e-09
4.22191e-08
1.6353e-09
4.21297e-08
1.57916e-09
4.20361e-08
1.5277e-09
4.19387e-08
1.48025e-09
4.18375e-08
1.43628e-09
4.1733e-08
1.39531e-09
4.16252e-08
1.35698e-09
4.15143e-08
1.32097e-09
4.14006e-08
1.28703e-09
4.12841e-08
1.25496e-09
4.1165e-08
1.22458e-09
4.10436e-08
1.19574e-09
4.09198e-08
1.16832e-09
4.0794e-08
1.14219e-09
4.06662e-08
1.11726e-09
4.05365e-08
1.09344e-09
4.04052e-08
1.07066e-09
4.02723e-08
1.04884e-09
4.01379e-08
1.02791e-09
4.00023e-08
1.00782e-09
3.98654e-08
9.88507e-10
3.97274e-08
9.69923e-10
3.95885e-08
9.52022e-10
3.94487e-08
9.34761e-10
3.9308e-08
9.181e-10
3.91667e-08
9.02003e-10
3.90248e-08
8.86435e-10
3.88824e-08
8.71367e-10
3.87396e-08
8.56767e-10
3.85964e-08
8.42609e-10
3.84529e-08
8.28868e-10
3.83093e-08
8.1552e-10
3.81655e-08
8.02542e-10
3.80217e-08
7.89913e-10
3.78779e-08
7.77614e-10
3.77342e-08
7.65626e-10
3.75906e-08
7.53931e-10
3.74472e-08
7.42512e-10
3.7304e-08
7.31353e-10
3.71612e-08
7.20438e-10
3.70187e-08
7.09752e-10
3.68766e-08
6.9928e-10
3.67349e-08
6.89007e-10
3.65938e-08
6.78921e-10
3.64532e-08
6.69006e-10
3.63132e-08
6.5925e-10
3.61739e-08
6.49637e-10
3.60352e-08
6.40156e-10
3.58973e-08
6.30791e-10
3.57602e-08
6.21528e-10
3.56238e-08
6.12355e-10
3.54884e-08
6.03255e-10
3.53538e-08
5.94216e-10
3.52202e-08
5.85221e-10
3.50876e-08
5.76255e-10
3.49561e-08
5.67303e-10
3.48256e-08
5.5835e-10
3.46963e-08
5.49377e-10
3.45683e-08
5.40371e-10
3.44415e-08
5.31313e-10
3.4316e-08
5.22187e-10
3.41919e-08
5.12977e-10
3.40693e-08
5.03667e-10
3.39482e-08
4.9424e-10
3.38287e-08
4.84683e-10
3.37109e-08
4.74981e-10
3.35948e-08
4.65124e-10
3.34805e-08
4.55103e-10
3.33682e-08
4.44912e-10
3.32578e-08
4.34551e-10
3.31496e-08
4.24026e-10
3.30434e-08
4.13355e-10
3.29395e-08
4.02573e-10
3.28378e-08
3.91756e-10
3.27385e-08
3.81066e-10
3.26416e-08
3.70903e-10
3.25475e-08
3.62329e-10
3.24582e-08
3.57713e-10
3.54615e-10
4.27421e-08
2.23497e-09
-4.25927e-08
4.29271e-08
2.49933e-09
4.31256e-08
2.69625e-09
4.33256e-08
2.83043e-09
4.35208e-08
2.91177e-09
4.37058e-08
2.94685e-09
4.38761e-08
2.94086e-09
4.40283e-08
2.90006e-09
4.41607e-08
2.83157e-09
4.42727e-08
2.74261e-09
4.43644e-08
2.63997e-09
4.44372e-08
2.52975e-09
4.44928e-08
2.41712e-09
4.45333e-08
2.30617e-09
4.45608e-08
2.19982e-09
4.45774e-08
2.09997e-09
4.45849e-08
2.00762e-09
4.45849e-08
1.92309e-09
4.45786e-08
1.8462e-09
4.45669e-08
1.77645e-09
4.45506e-08
1.7132e-09
4.45302e-08
1.65572e-09
4.4506e-08
1.60332e-09
4.44784e-08
1.55533e-09
4.44474e-08
1.51118e-09
4.44134e-08
1.47036e-09
4.43762e-08
1.43245e-09
4.43361e-08
1.3971e-09
4.42931e-08
1.364e-09
4.42472e-08
1.33292e-09
4.41985e-08
1.30364e-09
4.41471e-08
1.276e-09
4.4093e-08
1.24983e-09
4.40363e-08
1.22501e-09
4.39771e-08
1.20144e-09
4.39153e-08
1.17899e-09
4.38512e-08
1.1576e-09
4.37847e-08
1.13718e-09
4.37158e-08
1.11765e-09
4.36448e-08
1.09895e-09
4.35716e-08
1.08101e-09
4.34963e-08
1.06379e-09
4.3419e-08
1.04724e-09
4.33397e-08
1.0313e-09
4.32586e-08
1.01593e-09
4.31756e-08
1.0011e-09
4.30908e-08
9.86768e-10
4.30043e-08
9.72898e-10
4.29162e-08
9.59461e-10
4.28266e-08
9.46427e-10
4.27354e-08
9.33771e-10
4.26428e-08
9.21466e-10
4.25488e-08
9.0949e-10
4.24536e-08
8.97821e-10
4.2357e-08
8.86437e-10
4.22593e-08
8.75321e-10
4.21605e-08
8.64454e-10
4.20606e-08
8.53818e-10
4.19597e-08
8.43397e-10
4.18579e-08
8.33175e-10
4.17552e-08
8.23137e-10
4.16517e-08
8.13269e-10
4.15474e-08
8.03555e-10
4.14425e-08
7.93983e-10
4.13368e-08
7.84538e-10
4.12306e-08
7.75206e-10
4.11239e-08
7.65974e-10
4.10167e-08
7.56829e-10
4.09091e-08
7.47756e-10
4.08012e-08
7.38741e-10
4.06929e-08
7.2977e-10
4.05845e-08
7.20828e-10
4.04758e-08
7.11901e-10
4.0367e-08
7.02973e-10
4.02582e-08
6.94028e-10
4.01494e-08
6.85049e-10
4.00407e-08
6.7602e-10
3.99322e-08
6.66923e-10
3.98238e-08
6.5774e-10
3.97157e-08
6.48453e-10
3.9608e-08
6.39043e-10
3.95007e-08
6.29491e-10
3.93939e-08
6.19778e-10
3.92877e-08
6.09887e-10
3.91821e-08
5.99797e-10
3.90773e-08
5.89493e-10
3.89733e-08
5.78959e-10
3.88703e-08
5.68181e-10
3.87682e-08
5.57147e-10
3.86673e-08
5.45852e-10
3.85675e-08
5.34294e-10
3.84691e-08
5.2248e-10
3.8372e-08
5.10428e-10
3.82764e-08
4.98176e-10
3.81824e-08
4.85799e-10
3.809e-08
4.73448e-10
3.79994e-08
4.61437e-10
3.79114e-08
4.50389e-10
3.78283e-08
4.40743e-10
4.25213e-10
4.44249e-08
2.10082e-09
-4.42907e-08
4.45915e-08
2.33266e-09
4.4774e-08
2.51378e-09
4.49612e-08
2.64324e-09
4.51465e-08
2.72642e-09
4.53251e-08
2.76833e-09
4.54926e-08
2.77337e-09
4.5646e-08
2.74662e-09
4.57835e-08
2.69403e-09
4.59044e-08
2.62175e-09
4.60087e-08
2.53567e-09
4.60973e-08
2.44116e-09
4.61716e-08
2.34288e-09
4.62331e-08
2.24458e-09
4.62839e-08
2.14908e-09
4.63255e-08
2.05833e-09
4.63597e-08
1.97348e-09
4.63877e-08
1.89507e-09
4.64107e-08
1.82316e-09
4.64297e-08
1.75751e-09
4.64452e-08
1.69768e-09
4.64578e-08
1.64313e-09
4.64678e-08
1.5933e-09
4.64755e-08
1.54765e-09
4.6481e-08
1.50568e-09
4.64844e-08
1.46695e-09
4.64858e-08
1.43107e-09
4.64851e-08
1.39771e-09
4.64826e-08
1.3666e-09
4.6478e-08
1.33749e-09
4.64714e-08
1.31018e-09
4.64629e-08
1.28451e-09
4.64525e-08
1.26031e-09
4.644e-08
1.23747e-09
4.64256e-08
1.21586e-09
4.64092e-08
1.19539e-09
4.63908e-08
1.17596e-09
4.63705e-08
1.15749e-09
4.63483e-08
1.13991e-09
4.6324e-08
1.12315e-09
4.62979e-08
1.10715e-09
4.62698e-08
1.09186e-09
4.62399e-08
1.07721e-09
4.6208e-08
1.06316e-09
4.61743e-08
1.04966e-09
4.61387e-08
1.03669e-09
4.61013e-08
1.02419e-09
4.60621e-08
1.01213e-09
4.6021e-08
1.00048e-09
4.59783e-08
9.89205e-10
4.59338e-08
9.78284e-10
4.58875e-08
9.67687e-10
4.58396e-08
9.5739e-10
4.57901e-08
9.47369e-10
4.57389e-08
9.37603e-10
4.56862e-08
9.28072e-10
4.56319e-08
9.18755e-10
4.55761e-08
9.09635e-10
4.55188e-08
9.00694e-10
4.546e-08
8.91916e-10
4.53999e-08
8.83284e-10
4.53384e-08
8.74782e-10
4.52755e-08
8.66396e-10
4.52114e-08
8.58111e-10
4.5146e-08
8.49912e-10
4.50794e-08
8.41784e-10
4.50117e-08
8.33712e-10
4.49428e-08
8.25682e-10
4.48729e-08
8.1768e-10
4.4802e-08
8.09689e-10
4.473e-08
8.01695e-10
4.46572e-08
7.93681e-10
4.45835e-08
7.85632e-10
4.45089e-08
7.77529e-10
4.44336e-08
7.69357e-10
4.43575e-08
7.61096e-10
4.42808e-08
7.52728e-10
4.42035e-08
7.44234e-10
4.41257e-08
7.35593e-10
4.40473e-08
7.26786e-10
4.39686e-08
7.17791e-10
4.38895e-08
7.08586e-10
4.38101e-08
6.99151e-10
4.37305e-08
6.89465e-10
4.36508e-08
6.79507e-10
4.35711e-08
6.69256e-10
4.34913e-08
6.58696e-10
4.34117e-08
6.47809e-10
4.33323e-08
6.36584e-10
4.32531e-08
6.25012e-10
4.31743e-08
6.1309e-10
4.3096e-08
6.00825e-10
4.30181e-08
5.88235e-10
4.2941e-08
5.75357e-10
4.28645e-08
5.62257e-10
4.27889e-08
5.49055e-10
4.27144e-08
5.35938e-10
4.26417e-08
5.23051e-10
4.25731e-08
5.09356e-10
4.85334e-10
4.61649e-08
1.97807e-09
-4.60422e-08
4.63164e-08
2.18115e-09
4.64844e-08
2.34583e-09
4.66591e-08
2.46856e-09
4.6834e-08
2.55146e-09
4.70044e-08
2.59792e-09
4.71664e-08
2.61145e-09
4.73168e-08
2.59616e-09
4.74539e-08
2.55691e-09
4.75768e-08
2.49887e-09
4.76853e-08
2.42713e-09
4.77801e-08
2.34638e-09
4.78622e-08
2.26077e-09
4.79331e-08
2.17373e-09
4.79942e-08
2.08795e-09
4.80472e-08
2.00536e-09
4.80934e-08
1.92723e-09
4.81342e-08
1.85424e-09
4.81707e-08
1.78669e-09
4.82037e-08
1.72451e-09
4.82339e-08
1.66746e-09
4.82619e-08
1.61517e-09
4.8288e-08
1.56723e-09
4.83124e-08
1.52319e-09
4.83355e-08
1.48265e-09
4.83572e-08
1.44522e-09
4.83777e-08
1.41056e-09
4.8397e-08
1.37839e-09
4.84152e-08
1.34843e-09
4.84322e-08
1.32047e-09
4.84481e-08
1.29432e-09
4.84628e-08
1.2698e-09
4.84763e-08
1.24679e-09
4.84886e-08
1.22513e-09
4.84998e-08
1.20473e-09
4.85097e-08
1.18549e-09
4.85183e-08
1.16731e-09
4.85257e-08
1.1501e-09
4.85318e-08
1.13381e-09
4.85366e-08
1.11834e-09
4.85401e-08
1.10366e-09
4.85423e-08
1.08969e-09
4.85431e-08
1.07638e-09
4.85426e-08
1.06369e-09
4.85407e-08
1.05157e-09
4.85374e-08
1.03997e-09
4.85327e-08
1.02886e-09
4.85266e-08
1.0182e-09
4.85192e-08
1.00795e-09
4.85103e-08
9.98088e-10
4.85e-08
9.8858e-10
4.84883e-08
9.79399e-10
4.84752e-08
9.70518e-10
4.84606e-08
9.61913e-10
4.84446e-08
9.53561e-10
4.84273e-08
9.4544e-10
4.84085e-08
9.37529e-10
4.83883e-08
9.29808e-10
4.83668e-08
9.22259e-10
4.83438e-08
9.14863e-10
4.83195e-08
9.07604e-10
4.82938e-08
9.00463e-10
4.82668e-08
8.93424e-10
4.82384e-08
8.86472e-10
4.82088e-08
8.79589e-10
4.81778e-08
8.7276e-10
4.81455e-08
8.65969e-10
4.8112e-08
8.592e-10
4.80772e-08
8.52436e-10
4.80413e-08
8.45661e-10
4.80041e-08
8.38858e-10
4.79658e-08
8.32009e-10
4.79263e-08
8.25096e-10
4.78857e-08
8.18101e-10
4.78441e-08
8.11004e-10
4.78014e-08
8.03785e-10
4.77577e-08
7.96424e-10
4.7713e-08
7.889e-10
4.76675e-08
7.8119e-10
4.7621e-08
7.73272e-10
4.75736e-08
7.65122e-10
4.75255e-08
7.56717e-10
4.74766e-08
7.48033e-10
4.7427e-08
7.39048e-10
4.73768e-08
7.29737e-10
4.7326e-08
7.20079e-10
4.72746e-08
7.10053e-10
4.72228e-08
6.99642e-10
4.71706e-08
6.8883e-10
4.7118e-08
6.77609e-10
4.70651e-08
6.65974e-10
4.7012e-08
6.5393e-10
4.69587e-08
6.41494e-10
4.69054e-08
6.28699e-10
4.6852e-08
6.15599e-10
4.67988e-08
6.02272e-10
4.6746e-08
5.88771e-10
4.66942e-08
5.74864e-10
4.66448e-08
5.58695e-10
5.30921e-10
4.79644e-08
1.864e-09
-4.78504e-08
4.81035e-08
2.04205e-09
4.82587e-08
2.19068e-09
4.84218e-08
2.30547e-09
4.85868e-08
2.38647e-09
4.8749e-08
2.43566e-09
4.89048e-08
2.45565e-09
4.90513e-08
2.44971e-09
4.91864e-08
2.42175e-09
4.93093e-08
2.37606e-09
4.94194e-08
2.31696e-09
4.95173e-08
2.24852e-09
4.96036e-08
2.17441e-09
4.96796e-08
2.09774e-09
4.97466e-08
2.02102e-09
4.98058e-08
1.94613e-09
4.98586e-08
1.87439e-09
4.99063e-08
1.80662e-09
4.99497e-08
1.74325e-09
4.99898e-08
1.68439e-09
5.00273e-08
1.62997e-09
5.00627e-08
1.57977e-09
5.00964e-08
1.53349e-09
5.01288e-08
1.49081e-09
5.01601e-08
1.45139e-09
5.01904e-08
1.41492e-09
5.02198e-08
1.38111e-09
5.02485e-08
1.3497e-09
5.02765e-08
1.32046e-09
5.03038e-08
1.29318e-09
5.03304e-08
1.2677e-09
5.03564e-08
1.24384e-09
5.03817e-08
1.22147e-09
5.04063e-08
1.20048e-09
5.04303e-08
1.18075e-09
5.04536e-08
1.16218e-09
5.04762e-08
1.14469e-09
5.04981e-08
1.12819e-09
5.05193e-08
1.11262e-09
5.05398e-08
1.0979e-09
5.05595e-08
1.08397e-09
5.05784e-08
1.07077e-09
5.05965e-08
1.05826e-09
5.06138e-08
1.04638e-09
5.06303e-08
1.03508e-09
5.0646e-08
1.02433e-09
5.06607e-08
1.01408e-09
5.06746e-08
1.0043e-09
5.06876e-08
9.94956e-10
5.06997e-08
9.86009e-10
5.07109e-08
9.77433e-10
5.07211e-08
9.69198e-10
5.07303e-08
9.61277e-10
5.07386e-08
9.53646e-10
5.07458e-08
9.4628e-10
5.07521e-08
9.39156e-10
5.07574e-08
9.32254e-10
5.07617e-08
9.25552e-10
5.07649e-08
9.19031e-10
5.07671e-08
9.12671e-10
5.07682e-08
9.06455e-10
5.07683e-08
9.00363e-10
5.07674e-08
8.94379e-10
5.07654e-08
8.88485e-10
5.07623e-08
8.82664e-10
5.07581e-08
8.76899e-10
5.07529e-08
8.71172e-10
5.07467e-08
8.65467e-10
5.07393e-08
8.59766e-10
5.0731e-08
8.5405e-10
5.07215e-08
8.48303e-10
5.0711e-08
8.42504e-10
5.06995e-08
8.36635e-10
5.06869e-08
8.30676e-10
5.06733e-08
8.24606e-10
5.06587e-08
8.18403e-10
5.06431e-08
8.12046e-10
5.06265e-08
8.05511e-10
5.06089e-08
7.98775e-10
5.05903e-08
7.91814e-10
5.05708e-08
7.84602e-10
5.05504e-08
7.77114e-10
5.05292e-08
7.69325e-10
5.0507e-08
7.6121e-10
5.0484e-08
7.52744e-10
5.04602e-08
7.43902e-10
5.04356e-08
7.34664e-10
5.04102e-08
7.25009e-10
5.03841e-08
7.14921e-10
5.03573e-08
7.0439e-10
5.03299e-08
6.93411e-10
5.03018e-08
6.81988e-10
5.02732e-08
6.70134e-10
5.0244e-08
6.57879e-10
5.02143e-08
6.45261e-10
5.01843e-08
6.32317e-10
5.01541e-08
6.19e-10
5.01241e-08
6.04855e-10
5.00949e-08
5.87859e-10
5.60497e-10
4.98258e-08
1.75671e-09
-4.97185e-08
4.99548e-08
1.9131e-09
5.00988e-08
2.04662e-09
5.02514e-08
2.1529e-09
5.04071e-08
2.23081e-09
5.05615e-08
2.28123e-09
5.07112e-08
2.30597e-09
5.08533e-08
2.30754e-09
5.0986e-08
2.28906e-09
5.11081e-08
2.25403e-09
5.12189e-08
2.20606e-09
5.13188e-08
2.14867e-09
5.14082e-08
2.08505e-09
5.14879e-08
2.01799e-09
5.15591e-08
1.94981e-09
5.1623e-08
1.8823e-09
5.16805e-08
1.8168e-09
5.1733e-08
1.7542e-09
5.17812e-08
1.69504e-09
5.1826e-08
1.63958e-09
5.18681e-08
1.58787e-09
5.1908e-08
1.53982e-09
5.19462e-08
1.49526e-09
5.19831e-08
1.45394e-09
5.20189e-08
1.41564e-09
5.20537e-08
1.38008e-09
5.20878e-08
1.34703e-09
5.21212e-08
1.31628e-09
5.2154e-08
1.28761e-09
5.21864e-08
1.26086e-09
5.22182e-08
1.23584e-09
5.22496e-08
1.21243e-09
5.22806e-08
1.19049e-09
5.23112e-08
1.1699e-09
5.23414e-08
1.15057e-09
5.23712e-08
1.1324e-09
5.24005e-08
1.1153e-09
5.24295e-08
1.0992e-09
5.24581e-08
1.08403e-09
5.24863e-08
1.06971e-09
5.25141e-08
1.0562e-09
5.25414e-08
1.04342e-09
5.25683e-08
1.03134e-09
5.25948e-08
1.01991e-09
5.26208e-08
1.00907e-09
5.26464e-08
9.98786e-10
5.26714e-08
9.89021e-10
5.2696e-08
9.79736e-10
5.27201e-08
9.70897e-10
5.27436e-08
9.62472e-10
5.27666e-08
9.5443e-10
5.27891e-08
9.46744e-10
5.28109e-08
9.39386e-10
5.28323e-08
9.32331e-10
5.2853e-08
9.25556e-10
5.28731e-08
9.19036e-10
5.28926e-08
9.12751e-10
5.29115e-08
9.06679e-10
5.29297e-08
9.008e-10
5.29473e-08
8.95096e-10
5.29642e-08
8.89547e-10
5.29804e-08
8.84135e-10
5.2996e-08
8.78842e-10
5.30108e-08
8.73651e-10
5.30249e-08
8.68543e-10
5.30383e-08
8.63501e-10
5.3051e-08
8.58508e-10
5.30629e-08
8.53545e-10
5.30741e-08
8.48595e-10
5.30845e-08
8.4364e-10
5.30941e-08
8.3866e-10
5.3103e-08
8.33636e-10
5.31111e-08
8.28548e-10
5.31184e-08
8.23376e-10
5.31249e-08
8.18098e-10
5.31306e-08
8.12692e-10
5.31355e-08
8.07135e-10
5.31396e-08
8.01403e-10
5.31429e-08
7.95472e-10
5.31454e-08
7.89317e-10
5.31471e-08
7.82912e-10
5.3148e-08
7.7623e-10
5.31481e-08
7.69247e-10
5.31473e-08
7.61934e-10
5.31458e-08
7.54268e-10
5.31435e-08
7.46223e-10
5.31404e-08
7.37776e-10
5.31365e-08
7.28908e-10
5.31318e-08
7.19603e-10
5.31264e-08
7.09848e-10
5.31201e-08
6.99638e-10
5.31131e-08
6.88977e-10
5.31054e-08
6.77877e-10
5.30969e-08
6.66361e-10
5.30877e-08
6.54457e-10
5.30779e-08
6.42171e-10
5.30675e-08
6.29397e-10
5.30567e-08
6.15628e-10
5.30454e-08
5.99132e-10
5.74947e-10
5.17516e-08
1.65484e-09
-5.16497e-08
5.18722e-08
1.79248e-09
5.20067e-08
1.9121e-09
5.21499e-08
2.00974e-09
5.2297e-08
2.08375e-09
5.2444e-08
2.13419e-09
5.25877e-08
2.16222e-09
5.27256e-08
2.16971e-09
5.28556e-08
2.15907e-09
5.29765e-08
2.13314e-09
5.30876e-08
2.09492e-09
5.31889e-08
2.04737e-09
5.32807e-08
1.99327e-09
5.33636e-08
1.93509e-09
5.34384e-08
1.87494e-09
5.35062e-08
1.81451e-09
5.35679e-08
1.7551e-09
5.36245e-08
1.69764e-09
5.36768e-08
1.64275e-09
5.37256e-08
1.59079e-09
5.37715e-08
1.54194e-09
5.38152e-08
1.49619e-09
5.38569e-08
1.45349e-09
5.38972e-08
1.41368e-09
5.39362e-08
1.37659e-09
5.39743e-08
1.34204e-09
5.40115e-08
1.30982e-09
5.4048e-08
1.27977e-09
5.40839e-08
1.2517e-09
5.41193e-08
1.22545e-09
5.41543e-08
1.20089e-09
5.41888e-08
1.17789e-09
5.4223e-08
1.15632e-09
5.42568e-08
1.13607e-09
5.42903e-08
1.11706e-09
5.43235e-08
1.09919e-09
5.43564e-08
1.08238e-09
5.43891e-08
1.06655e-09
5.44215e-08
1.05165e-09
5.44536e-08
1.0376e-09
5.44854e-08
1.02435e-09
5.4517e-08
1.01184e-09
5.45483e-08
1.00002e-09
5.45794e-08
9.88846e-10
5.46102e-08
9.78274e-10
5.46407e-08
9.68261e-10
5.4671e-08
9.5877e-10
5.47009e-08
9.49764e-10
5.47306e-08
9.4121e-10
5.476e-08
9.33077e-10
5.47891e-08
9.25333e-10
5.48179e-08
9.17952e-10
5.48464e-08
9.10907e-10
5.48745e-08
9.04173e-10
5.49024e-08
8.97727e-10
5.49299e-08
8.91545e-10
5.4957e-08
8.85606e-10
5.49838e-08
8.79889e-10
5.50102e-08
8.74375e-10
5.50363e-08
8.69045e-10
5.50619e-08
8.6388e-10
5.50872e-08
8.58861e-10
5.51121e-08
8.53971e-10
5.51365e-08
8.49192e-10
5.51606e-08
8.44507e-10
5.51842e-08
8.39899e-10
5.52073e-08
8.35349e-10
5.523e-08
8.3084e-10
5.52523e-08
8.26355e-10
5.5274e-08
8.21875e-10
5.52953e-08
8.1738e-10
5.53161e-08
8.12852e-10
5.53364e-08
8.08271e-10
5.53561e-08
8.03617e-10
5.53754e-08
7.98867e-10
5.53941e-08
7.94e-10
5.54122e-08
7.88993e-10
5.54298e-08
7.83823e-10
5.54468e-08
7.78464e-10
5.54632e-08
7.72892e-10
5.54791e-08
7.67081e-10
5.54943e-08
7.61005e-10
5.55089e-08
7.54638e-10
5.55229e-08
7.47954e-10
5.55362e-08
7.40928e-10
5.55489e-08
7.33536e-10
5.55609e-08
7.25755e-10
5.55723e-08
7.17565e-10
5.55829e-08
7.08951e-10
5.55929e-08
6.99901e-10
5.56021e-08
6.90412e-10
5.56106e-08
6.80486e-10
5.56183e-08
6.70136e-10
5.56253e-08
6.5938e-10
5.56315e-08
6.48238e-10
5.5637e-08
6.36702e-10
5.56417e-08
6.24653e-10
5.56457e-08
6.11655e-10
5.56483e-08
5.96503e-10
5.767e-10
5.37445e-08
1.55737e-09
-5.36471e-08
5.38583e-08
1.67875e-09
5.39846e-08
1.78574e-09
5.41194e-08
1.87495e-09
5.42587e-08
1.94451e-09
5.43988e-08
1.99404e-09
5.45369e-08
2.02414e-09
5.46705e-08
2.03614e-09
5.47976e-08
2.03189e-09
5.49171e-08
2.01365e-09
5.50282e-08
1.98387e-09
5.51305e-08
1.94502e-09
5.52243e-08
1.8995e-09
5.53099e-08
1.84946e-09
5.53881e-08
1.7968e-09
5.54595e-08
1.74309e-09
5.5525e-08
1.68957e-09
5.55855e-08
1.63718e-09
5.56416e-08
1.58659e-09
5.56942e-08
1.53824e-09
5.57438e-08
1.49237e-09
5.57909e-08
1.44908e-09
5.5836e-08
1.4084e-09
5.58794e-08
1.37026e-09
5.59214e-08