/*--------------------------------*- C++ -*----------------------------------*\
| =========                 |                                                 |
| \\      /  F ield         | OpenFOAM: The Open Source CFD Toolbox           |
|  \\    /   O peration     | Version:  2.3.0                                 |
|   \\  /    A nd           | Web:      www.OpenFOAM.org                      |
|    \\/     M anipulation  |                                                 |
\*---------------------------------------------------------------------------*/
FoamFile
{
    version     2.0;
    format      ascii;
    class       surfaceScalarField;
    location    "0.75";
    object      phi_0;
}
// * * * * * * * * * * * * * * * * * * * * * * * * * * * * * * * * * * * * * //

dimensions      [0 3 -1 0 0 0 0];

internalField   nonuniform List<scalar> 
5764
(
1.97252e-08
5.02755e-09
-2.47528e-08
1.46562e-08
5.06904e-09
1.08167e-08
3.83947e-09
8.19833e-09
2.61837e-09
6.55946e-09
1.63887e-09
5.58972e-09
9.69744e-10
5.02238e-09
5.67341e-10
4.64745e-09
3.7493e-10
4.36591e-09
2.81535e-10
4.12748e-09
2.38436e-10
3.9119e-09
2.15581e-10
3.72385e-09
1.88042e-10
3.56362e-09
1.60236e-10
3.4219e-09
1.41724e-10
3.29244e-09
1.29456e-10
3.17485e-09
1.1759e-10
3.06857e-09
1.06284e-10
2.97016e-09
9.84032e-11
2.88064e-09
8.95222e-11
2.79865e-09
8.19872e-11
2.72034e-09
7.83159e-11
2.64802e-09
7.23176e-11
2.58245e-09
6.55708e-11
2.52077e-09
6.16812e-11
2.46263e-09
5.81377e-11
2.40809e-09
5.45433e-11
2.35567e-09
5.24169e-11
2.30445e-09
5.12226e-11
2.2564e-09
4.80465e-11
2.21355e-09
4.28539e-11
2.17232e-09
4.12212e-11
2.13212e-09
4.02036e-11
2.09461e-09
3.75148e-11
2.05843e-09
3.61739e-11
2.02316e-09
3.5268e-11
1.99e-09
3.31676e-11
1.95883e-09
3.11701e-11
1.92826e-09
3.05719e-11
1.89852e-09
2.97399e-11
1.87051e-09
2.80005e-11
1.84352e-09
2.69959e-11
1.8174e-09
2.61188e-11
1.79295e-09
2.44528e-11
1.76912e-09
2.38229e-11
1.74551e-09
2.36104e-11
1.7227e-09
2.28091e-11
1.70096e-09
2.17476e-11
1.68039e-09
2.05633e-11
1.66034e-09
2.00501e-11
1.64051e-09
1.98326e-11
1.62163e-09
1.88844e-11
1.60314e-09
1.84857e-11
1.58524e-09
1.78989e-11
1.56813e-09
1.71116e-11
1.55159e-09
1.65384e-11
1.53508e-09
1.65087e-11
1.51932e-09
1.57606e-11
1.50389e-09
1.54338e-11
1.48914e-09
1.47503e-11
1.47454e-09
1.45955e-11
1.46045e-09
1.4094e-11
1.44644e-09
1.4011e-11
1.43308e-09
1.33626e-11
1.41975e-09
1.33271e-11
1.40758e-09
1.21711e-11
1.39506e-09
1.25145e-11
1.38287e-09
1.21931e-11
1.371e-09
1.18715e-11
1.3593e-09
1.16973e-11
1.34793e-09
1.13762e-11
1.33587e-09
1.20566e-11
1.32675e-09
9.11416e-12
1.31273e-09
1.4024e-11
1.30847e-09
4.2613e-12
1.76615e-11
2.69548e-08
5.20966e-09
-2.71369e-08
2.55138e-08
6.51007e-09
2.34845e-08
5.8687e-09
2.11976e-08
4.90527e-09
1.91053e-08
3.73117e-09
1.73225e-08
2.75262e-09
1.58837e-08
2.00606e-09
1.47182e-08
1.5405e-09
1.37573e-08
1.2424e-09
1.29493e-08
1.04642e-09
1.2261e-08
9.03923e-10
1.16754e-08
7.73572e-10
1.11713e-08
6.64411e-10
1.07241e-08
5.88931e-10
1.03191e-08
5.34432e-10
9.95116e-09
4.85513e-10
9.61689e-09
4.40557e-10
9.31031e-09
4.04977e-10
9.02999e-09
3.69844e-10
8.77129e-09
3.40687e-10
8.52883e-09
3.20774e-10
8.30439e-09
2.96758e-10
8.0966e-09
2.73365e-10
7.90131e-09
2.56971e-10
7.71769e-09
2.41756e-10
7.54472e-09
2.2751e-10
7.38004e-09
2.17103e-10
7.22257e-09
2.08685e-10
7.07465e-09
1.95975e-10
6.93756e-09
1.79944e-10
6.80607e-09
1.72704e-10
6.67981e-09
1.66467e-10
6.5604e-09
1.5692e-10
6.44586e-09
1.50716e-10
6.33579e-09
1.45337e-10
6.23131e-09
1.37646e-10
6.1317e-09
1.30786e-10
6.03518e-09
1.27093e-10
5.94229e-09
1.22631e-10
5.85386e-09
1.16429e-10
5.76864e-09
1.12211e-10
5.68652e-09
1.08244e-10
5.60816e-09
1.02814e-10
5.53209e-09
9.98913e-11
5.45806e-09
9.76411e-11
5.38674e-09
9.41265e-11
5.31835e-09
9.01431e-11
5.25275e-09
8.61538e-11
5.18896e-09
8.38409e-11
5.12679e-09
8.20045e-11
5.06706e-09
7.86216e-11
5.00894e-09
7.66045e-11
4.95275e-09
7.40856e-11
4.8985e-09
7.13569e-11
4.84593e-09
6.91121e-11
4.79438e-09
6.80619e-11
4.74477e-09
6.53727e-11
4.69639e-09
6.38096e-11
4.64979e-09
6.13503e-11
4.6041e-09
6.02851e-11
4.55993e-09
5.82619e-11
4.51661e-09
5.73328e-11
4.47498e-09
5.49967e-11
4.43407e-09
5.42328e-11
4.39534e-09
5.09023e-11
4.35654e-09
5.13096e-11
4.31907e-09
4.96697e-11
4.28236e-09
4.8577e-11
4.24659e-09
4.74649e-11
4.2115e-09
4.64749e-11
4.17643e-09
4.712e-11
4.14512e-09
4.0428e-11
4.10826e-09
5.08796e-11
4.08419e-09
2.83317e-11
5.7561e-11
2.84284e-08
4.6724e-09
-2.78911e-08
2.89096e-08
6.02886e-09
2.85009e-08
6.27742e-09
2.77132e-08
5.69297e-09
2.66525e-08
4.79185e-09
2.54435e-08
3.96162e-09
2.42808e-08
3.16872e-09
2.31885e-08
2.6328e-09
2.21668e-08
2.26411e-09
2.12011e-08
2.01212e-09
2.02993e-08
1.80575e-09
1.94805e-08
1.59239e-09
1.87479e-08
1.39702e-09
1.80869e-08
1.24988e-09
1.74796e-08
1.14179e-09
1.6916e-08
1.04911e-09
1.63932e-08
9.63316e-10
1.59073e-08
8.90915e-10
1.54579e-08
8.19188e-10
1.50401e-08
7.58526e-10
1.46479e-08
7.12955e-10
1.42824e-08
6.62252e-10
1.39404e-08
6.15388e-10
1.36171e-08
5.80237e-10
1.33118e-08
5.47111e-10
1.30228e-08
5.16447e-10
1.27479e-08
4.92031e-10
1.24856e-08
4.7094e-10
1.22379e-08
4.43683e-10
1.20057e-08
4.12132e-10
1.17829e-08
3.95583e-10
1.15688e-08
3.80476e-10
1.13654e-08
3.60415e-10
1.11701e-08
3.4598e-10
1.09827e-08
3.32752e-10
1.0804e-08
3.16322e-10
1.0633e-08
3.01765e-10
1.04677e-08
2.9237e-10
1.03087e-08
2.8166e-10
1.01566e-08
2.68505e-10
1.001e-08
2.58874e-10
9.86853e-09
2.4969e-10
9.7329e-09
2.38443e-10
9.60141e-09
2.31384e-10
9.47382e-09
2.25232e-10
9.35076e-09
2.1718e-10
9.23239e-09
2.08515e-10
9.11846e-09
2.0008e-10
9.00779e-09
1.94517e-10
8.90019e-09
1.89601e-10
8.79649e-09
1.82323e-10
8.69573e-09
1.77361e-10
8.59821e-09
1.71607e-10
8.50386e-09
1.65706e-10
8.4124e-09
1.60578e-10
8.32308e-09
1.57382e-10
8.23684e-09
1.5161e-10
8.15292e-09
1.47731e-10
8.07186e-09
1.42413e-10
7.99266e-09
1.39481e-10
7.91601e-09
1.34914e-10
7.84113e-09
1.32206e-10
7.7689e-09
1.27233e-10
7.69823e-09
1.24902e-10
7.63067e-09
1.18461e-10
7.56374e-09
1.18242e-10
7.49905e-09
1.14354e-10
7.43574e-09
1.11884e-10
7.37435e-09
1.08857e-10
7.3139e-09
1.0693e-10
7.25483e-09
1.06191e-10
7.199e-09
9.62522e-11
7.1401e-09
1.09782e-10
7.0907e-09
7.7736e-11
1.16822e-10
2.92208e-08
4.3289e-09
-2.88773e-08
2.97041e-08
5.54563e-09
3.00553e-08
5.92619e-09
3.02528e-08
5.49546e-09
2.99678e-08
5.0768e-09
2.95031e-08
4.42631e-09
2.89979e-08
3.67393e-09
2.84029e-08
3.22788e-09
2.77782e-08
2.88879e-09
2.71129e-08
2.67743e-09
2.64117e-08
2.50687e-09
2.57037e-08
2.30038e-09
2.50201e-08
2.08071e-09
2.43775e-08
1.89246e-09
2.37696e-08
1.74963e-09
2.31851e-08
1.63362e-09
2.26204e-08
1.52802e-09
2.20743e-08
1.43702e-09
2.15526e-08
1.34088e-09
2.10557e-08
1.25547e-09
2.05819e-08
1.18678e-09
2.0135e-08
1.10909e-09
1.97116e-08
1.03883e-09
1.93059e-08
9.85915e-10
1.8917e-08
9.36063e-10
1.85435e-08
8.89866e-10
1.81849e-08
8.50719e-10
1.78409e-08
8.1486e-10
1.75144e-08
7.7026e-10
1.72063e-08
7.20141e-10
1.69091e-08
6.92823e-10
1.66217e-08
6.67925e-10
1.63459e-08
6.36205e-10
1.60798e-08
6.12086e-10
1.58236e-08
5.88925e-10
1.55783e-08
5.61605e-10
1.53427e-08
5.37416e-10
1.51143e-08
5.20712e-10
1.48939e-08
5.02099e-10
1.46822e-08
4.8019e-10
1.44776e-08
4.6347e-10
1.42799e-08
4.47421e-10
1.40895e-08
4.28757e-10
1.39046e-08
4.163e-10
1.37249e-08
4.04925e-10
1.35512e-08
3.90901e-10
1.33836e-08
3.76084e-10
1.3222e-08
3.61761e-10
1.30647e-08
3.51778e-10
1.29117e-08
3.42613e-10
1.27639e-08
3.30137e-10
1.26202e-08
3.21083e-10
1.24808e-08
3.10933e-10
1.23458e-08
3.00746e-10
1.22147e-08
2.91656e-10
1.20868e-08
2.85313e-10
1.1963e-08
2.75389e-10
1.18426e-08
2.68182e-10
1.1726e-08
2.58957e-10
1.16122e-08
2.53266e-10
1.15019e-08
2.45198e-10
1.13943e-08
2.39826e-10
1.12902e-08
2.31321e-10
1.11885e-08
2.2662e-10
1.10909e-08
2.16091e-10
1.09946e-08
2.1457e-10
1.09014e-08
2.0755e-10
1.08102e-08
2.03003e-10
1.0722e-08
1.97122e-10
1.06351e-08
1.93825e-10
1.05508e-08
1.90454e-10
1.04694e-08
1.77637e-10
1.03876e-08
1.91606e-10
1.0311e-08
1.54322e-10
1.96244e-10
3.01156e-08
4.10268e-09
-2.98894e-08
3.06254e-08
5.03585e-09
3.0888e-08
5.66352e-09
3.13e-08
5.08349e-09
3.12523e-08
5.12451e-09
3.12194e-08
4.4592e-09
3.11962e-08
3.69717e-09
3.09927e-08
3.43138e-09
3.07622e-08
3.11932e-09
3.04835e-08
2.95604e-09
3.01341e-08
2.85627e-09
2.9715e-08
2.71949e-09
2.92577e-08
2.53804e-09
2.88048e-08
2.34537e-09
2.8366e-08
2.18848e-09
2.79309e-08
2.06868e-09
2.74912e-08
1.96774e-09
2.7041e-08
1.88722e-09
2.6587e-08
1.79485e-09
2.61338e-08
1.70862e-09
2.56862e-08
1.63446e-09
2.52547e-08
1.5406e-09
2.48398e-08
1.45366e-09
2.44366e-08
1.38916e-09
2.40417e-08
1.33094e-09
2.36518e-08
1.27973e-09
2.32672e-08
1.23533e-09
2.2891e-08
1.19106e-09
2.25299e-08
1.13133e-09
2.21887e-08
1.06137e-09
2.18582e-08
1.02333e-09
2.15351e-08
9.91041e-10
2.12199e-08
9.51446e-10
2.09111e-08
9.20807e-10
2.06112e-08
8.88831e-10
2.03222e-08
8.50611e-10
2.00431e-08
8.16579e-10
1.97709e-08
7.92887e-10
1.95062e-08
7.66816e-10
1.92502e-08
7.3617e-10
1.90017e-08
7.11933e-10
1.87609e-08
6.8828e-10
1.85281e-08
6.6153e-10
1.83007e-08
6.43696e-10
1.80784e-08
6.27172e-10
1.78625e-08
6.06809e-10
1.76535e-08
5.85075e-10
1.74513e-08
5.6397e-10
1.7254e-08
5.49102e-10
1.70613e-08
5.35321e-10
1.68745e-08
5.16945e-10
1.66925e-08
5.03121e-10
1.65156e-08
4.87826e-10
1.63437e-08
4.72642e-10
1.61763e-08
4.58984e-10
1.60127e-08
4.48941e-10
1.5854e-08
4.34134e-10
1.56993e-08
4.2287e-10
1.55493e-08
4.08932e-10
1.54027e-08
3.99843e-10
1.52604e-08
3.87572e-10
1.51213e-08
3.78854e-10
1.49865e-08
3.66122e-10
1.48547e-08
3.58453e-10
1.47278e-08
3.42996e-10
1.46027e-08
3.39702e-10
1.44813e-08
3.28869e-10
1.43627e-08
3.21648e-10
1.42477e-08
3.12071e-10
1.41345e-08
3.07092e-10
1.40251e-08
2.99801e-10
1.3918e-08
2.84813e-10
1.38134e-08
2.96194e-10
1.37092e-08
2.58526e-10
2.96237e-10
3.11142e-08
3.87571e-09
-3.08872e-08
3.15075e-08
4.64254e-09
3.18533e-08
5.31772e-09
3.20206e-08
4.91614e-09
3.23443e-08
4.80083e-09
3.2023e-08
4.78056e-09
3.22607e-08
3.45946e-09
3.23126e-08
3.37943e-09
3.22946e-08
3.1373e-09
3.22549e-08
2.99573e-09
3.2162e-08
2.94918e-09
3.19871e-08
2.89446e-09
3.17462e-08
2.77886e-09
3.14959e-08
2.5957e-09
3.12549e-08
2.42949e-09
3.10166e-08
2.30697e-09
3.07678e-08
2.21661e-09
3.04935e-08
2.16152e-09
3.01949e-08
2.09341e-09
2.98744e-08
2.02907e-09
2.95386e-08
1.97033e-09
2.92031e-08
1.87609e-09
2.8875e-08
1.78175e-09
2.85534e-08
1.71074e-09
2.82335e-08
1.65087e-09
2.79069e-08
1.60633e-09
2.75704e-08
1.57182e-09
2.72264e-08
1.53502e-09
2.68862e-08
1.47157e-09
2.65632e-08
1.3844e-09
2.6252e-08
1.33455e-09
2.59469e-08
1.29607e-09
2.56431e-08
1.25524e-09
2.53371e-08
1.22682e-09
2.50335e-08
1.19248e-09
2.47371e-08
1.14694e-09
2.44489e-08
1.10479e-09
2.41657e-08
1.0761e-09
2.38871e-08
1.04545e-09
2.36142e-08
1.00905e-09
2.33469e-08
9.79248e-10
2.30866e-08
9.48585e-10
2.28343e-08
9.13833e-10
2.25862e-08
8.9182e-10
2.23411e-08
8.72252e-10
2.21006e-08
8.47316e-10
2.18663e-08
8.19322e-10
2.1639e-08
7.91308e-10
2.14162e-08
7.71892e-10
2.11972e-08
7.54348e-10
2.09835e-08
7.3063e-10
2.07743e-08
7.123e-10
2.05704e-08
6.91789e-10
2.03715e-08
6.71481e-10
2.01771e-08
6.5338e-10
1.99861e-08
6.39921e-10
1.98e-08
6.20256e-10
1.96181e-08
6.04797e-10
1.94412e-08
5.85836e-10
1.92679e-08
5.73177e-10
1.90989e-08
5.56484e-10
1.89337e-08
5.44125e-10
1.8773e-08
5.26838e-10
1.86154e-08
5.15969e-10
1.84634e-08
4.95074e-10
1.83131e-08
4.8993e-10
1.8167e-08
4.75027e-10
1.80237e-08
4.64906e-10
1.78848e-08
4.50998e-10
1.77475e-08
4.44417e-10
1.76154e-08
4.31896e-10
1.74841e-08
4.16053e-10
1.73587e-08
4.21654e-10
1.72286e-08
3.88552e-10
4.15859e-10
3.2127e-08
3.64412e-09
-3.18954e-08
3.24141e-08
4.35543e-09
3.28061e-08
4.92577e-09
3.29101e-08
4.81212e-09
3.31424e-08
4.56848e-09
3.32778e-08
4.64517e-09
3.32528e-08
3.48452e-09
3.3296e-08
3.3362e-09
3.33345e-08
3.09877e-09
3.33818e-08
2.94848e-09
3.33951e-08
2.93581e-09
3.33425e-08
2.94713e-09
3.32299e-08
2.89141e-09
3.31128e-08
2.71286e-09
3.30056e-08
2.53668e-09
3.29083e-08
2.40426e-09
3.28103e-08
2.31464e-09
3.26907e-08
2.28111e-09
3.25442e-08
2.23987e-09
3.23674e-08
2.20586e-09
3.21639e-08
2.17381e-09
3.19493e-08
2.0907e-09
3.17353e-08
1.99575e-09
3.15273e-08
1.91879e-09
3.13208e-08
1.85733e-09
3.11038e-08
1.82338e-09
3.08676e-08
1.80798e-09
3.06082e-08
1.79444e-09
3.03348e-08
1.745e-09
3.00693e-08
1.64983e-09
2.98166e-08
1.58729e-09
2.95743e-08
1.53839e-09
2.93305e-08
1.49901e-09
2.90752e-08
1.48215e-09
2.88118e-08
1.45586e-09
2.85478e-08
1.41097e-09
2.8288e-08
1.36457e-09
2.80309e-08
1.33321e-09
2.77749e-08
1.30142e-09
2.75196e-08
1.26441e-09
2.72648e-08
1.234e-09
2.70143e-08
1.19915e-09
2.67711e-08
1.15701e-09
2.65311e-08
1.13179e-09
2.62911e-08
1.11225e-09
2.60515e-08
1.08696e-09
2.5815e-08
1.05578e-09
2.55843e-08
1.02197e-09
2.53575e-08
9.98748e-10
2.51327e-08
9.79119e-10
2.49112e-08
9.52149e-10
2.46924e-08
9.31087e-10
2.44778e-08
9.06361e-10
2.42679e-08
8.8142e-10
2.40617e-08
8.59626e-10
2.38576e-08
8.43949e-10
2.36573e-08
8.20548e-10
2.34604e-08
8.01705e-10
2.32681e-08
7.78184e-10
2.30788e-08
7.62453e-10
2.28935e-08
7.41812e-10
2.27115e-08
7.26091e-10
2.25339e-08
7.04402e-10
2.23594e-08
6.90545e-10
2.21903e-08
6.64123e-10
2.20227e-08
6.5755e-10
2.18588e-08
6.3894e-10
2.16974e-08
6.26341e-10
2.15405e-08
6.07855e-10
2.13846e-08
6.00332e-10
2.1235e-08
5.81431e-10
2.10844e-08
5.66654e-10
2.09425e-08
5.63637e-10
2.07914e-08
5.39589e-10
5.51959e-10
3.31328e-08
3.43374e-09
-3.29224e-08
3.3385e-08
4.10327e-09
3.3738e-08
4.57278e-09
3.38796e-08
4.67046e-09
3.40728e-08
4.37532e-09
3.42376e-08
4.48037e-09
3.42302e-08
3.49185e-09
3.4253e-08
3.31341e-09
3.43016e-08
3.05025e-09
3.43629e-08
2.88715e-09
3.43914e-08
2.90731e-09
3.43761e-08
2.96244e-09
3.43261e-08
2.94138e-09
3.42753e-08
2.76369e-09
3.42309e-08
2.5811e-09
3.41979e-08
2.43725e-09
3.41748e-08
2.33769e-09
3.41422e-08
2.3137e-09
3.40927e-08
2.28939e-09
3.40172e-08
2.28138e-09
3.3915e-08
2.27598e-09
3.37975e-08
2.20824e-09
3.36773e-08
2.11594e-09
3.35664e-08
2.02963e-09
3.34622e-08
1.96159e-09
3.33508e-08
1.93472e-09
3.32215e-08
1.93737e-09
3.30624e-08
1.95346e-09
3.28749e-08
1.93253e-09
3.26826e-08
1.84211e-09
3.25008e-08
1.76914e-09
3.23372e-08
1.70195e-09
3.21765e-08
1.65967e-09
3.20008e-08
1.65793e-09
3.18083e-08
1.64837e-09
3.16054e-08
1.6138e-09
3.1401e-08
1.56895e-09
3.11972e-08
1.53703e-09
3.0993e-08
1.50569e-09
3.07851e-08
1.47227e-09
3.05717e-08
1.44735e-09
3.03574e-08
1.41353e-09
3.01485e-08
1.36582e-09
2.99431e-08
1.3372e-09
2.97361e-08
1.31926e-09
2.95248e-08
1.29831e-09
2.93114e-08
1.26922e-09
2.91006e-08
1.23269e-09
2.88926e-08
1.20676e-09
2.86853e-08
1.18646e-09
2.84785e-08
1.15892e-09
2.82713e-08
1.13826e-09
2.80659e-08
1.11177e-09
2.78639e-08
1.08348e-09
2.76645e-08
1.05903e-09
2.74657e-08
1.04271e-09
2.72687e-08
1.01755e-09
2.70732e-08
9.97161e-10
2.68809e-08
9.70501e-10
2.66904e-08
9.52983e-10
2.65025e-08
9.29694e-10
2.6317e-08
9.11595e-10
2.61352e-08
8.86213e-10
2.59558e-08
8.69963e-10
2.57816e-08
8.38276e-10
2.56081e-08
8.31052e-10
2.54373e-08
8.09728e-10
2.52678e-08
7.9587e-10
2.51025e-08
7.73166e-10
2.49368e-08
7.65988e-10
2.47783e-08
7.39997e-10
2.46164e-08
7.28525e-10
2.4465e-08
7.15048e-10
2.43011e-08
7.03458e-10
6.98759e-10
3.41572e-08
3.26534e-09
-3.39888e-08
3.439e-08
3.87044e-09
3.46716e-08
4.29119e-09
3.48824e-08
4.45962e-09
3.50356e-08
4.22219e-09
3.52231e-08
4.29284e-09
3.52133e-08
3.5017e-09
3.52269e-08
3.2998e-09
3.52784e-08
2.99875e-09
3.53391e-08
2.82638e-09
3.53701e-08
2.87638e-09
3.53632e-08
2.96934e-09
3.53373e-08
2.96721e-09
3.53165e-08
2.78451e-09
3.52932e-08
2.6044e-09
3.52788e-08
2.45169e-09
3.52794e-08
2.33707e-09
3.52776e-08
2.31545e-09
3.52701e-08
2.29691e-09
3.52458e-08
2.30569e-09
3.52008e-08
2.321e-09
3.51419e-08
2.26707e-09
3.50779e-08
2.17998e-09
3.50266e-08
2.08091e-09
3.49883e-08
1.99994e-09
3.49483e-08
1.9747e-09
3.48967e-08
1.98891e-09
3.48191e-08
2.03112e-09
3.47079e-08
2.04368e-09
3.45822e-08
1.96784e-09
3.44613e-08
1.89006e-09
3.43657e-08
1.79748e-09
3.42811e-08
1.74433e-09
3.41844e-08
1.75465e-09
3.40683e-08
1.76439e-09
3.39352e-08
1.74695e-09
3.37948e-08
1.7093e-09
3.3653e-08
1.67883e-09
3.35113e-08
1.64738e-09
3.33651e-08
1.61855e-09
3.32094e-08
1.60306e-09
3.3047e-08
1.57584e-09
3.2887e-08
1.52582e-09
3.27312e-08
1.49309e-09
3.25748e-08
1.47564e-09
3.24117e-08
1.4614e-09
3.22413e-08
1.43956e-09
3.20691e-08
1.40495e-09
3.18977e-08
1.37811e-09
3.17264e-08
1.35775e-09
3.15539e-08
1.33142e-09
3.13779e-08
1.31429e-09
3.12002e-08
1.28945e-09
3.10237e-08
1.26003e-09
3.08485e-08
1.23419e-09
3.06727e-08
1.21852e-09
3.04967e-08
1.19355e-09
3.03201e-08
1.17382e-09
3.01444e-08
1.14614e-09
2.99686e-08
1.12877e-09
2.97934e-08
1.10491e-09
2.96189e-08
1.08613e-09
2.94468e-08
1.05834e-09
2.92762e-08
1.04056e-09
2.91104e-08
1.00402e-09
2.89446e-08
9.96909e-10
2.87801e-08
9.74208e-10
2.86151e-08
9.60888e-10
2.84532e-08
9.35051e-10
2.82892e-08
9.29998e-10
2.81322e-08
8.96973e-10
2.79699e-08
8.90838e-10
2.78184e-08
8.66567e-10
2.76527e-08
8.69157e-10
8.48124e-10
3.52119e-08
3.14358e-09
-3.50901e-08
3.54171e-08
3.66523e-09
3.56507e-08
4.05753e-09
3.59002e-08
4.21018e-09
3.60563e-08
4.06609e-09
3.62327e-08
4.11646e-09
3.62469e-08
3.48747e-09
3.62367e-08
3.30996e-09
3.62783e-08
2.95715e-09
3.63336e-08
2.77115e-09
3.63615e-08
2.84844e-09
3.63643e-08
2.96659e-09
3.63543e-08
2.97712e-09
3.63534e-08
2.78549e-09
3.63396e-08
2.61813e-09
3.63249e-08
2.46646e-09
3.63258e-08
2.33618e-09
3.63293e-08
2.31188e-09
3.63315e-08
2.29472e-09
3.63262e-08
2.31101e-09
3.63074e-08
2.33976e-09
3.62757e-08
2.29884e-09
3.62428e-08
2.21283e-09
3.62195e-08
2.1042e-09
3.62108e-08
2.00873e-09
3.6205e-08
1.98049e-09
3.6194e-08
1.99993e-09
3.61655e-08
2.05954e-09
3.61055e-08
2.10373e-09
3.60284e-08
2.0449e-09
3.59502e-08
1.96823e-09
3.59e-08
1.84768e-09
3.5867e-08
1.77734e-09
3.58277e-08
1.79396e-09
3.57722e-08
1.81993e-09
3.5698e-08
1.82109e-09
3.56136e-08
1.79377e-09
3.55259e-08
1.76651e-09
3.54398e-08
1.73349e-09
3.53507e-08
1.70759e-09
3.5252e-08
1.70176e-09
3.51434e-08
1.68447e-09
3.50337e-08
1.63553e-09
3.49283e-08
1.59845e-09
3.48252e-08
1.57878e-09
3.47162e-08
1.57043e-09
3.45973e-08
1.55843e-09
3.44722e-08
1.53006e-09
3.43458e-08
1.50449e-09
3.42195e-08
1.48411e-09
3.40916e-08
1.45932e-09
3.39585e-08
1.44737e-09
3.38207e-08
1.42719e-09
3.36815e-08
1.39923e-09
3.35422e-08
1.37354e-09
3.34014e-08
1.35932e-09
3.32593e-08
1.33568e-09
3.31149e-08
1.31819e-09
3.29696e-08
1.29142e-09
3.28222e-08
1.27622e-09
3.26728e-08
1.25424e-09
3.2522e-08
1.23699e-09
3.23717e-08
1.2086e-09
3.2222e-08
1.19029e-09
3.20767e-08
1.14927e-09
3.1931e-08
1.1426e-09
3.17855e-08
1.11977e-09
3.16376e-08
1.10878e-09
3.14912e-08
1.08146e-09
3.13408e-08
1.0804e-09
3.11964e-08
1.04141e-09
3.10453e-08
1.04188e-09
3.09037e-08
1.00817e-09
3.07483e-08
1.02454e-09
9.90681e-10
3.63004e-08
3.05208e-09
-3.62089e-08
3.64904e-08
3.47522e-09
3.66932e-08
3.85477e-09
3.69327e-08
3.97068e-09
3.70974e-08
3.90133e-09
3.72695e-08
3.94443e-09
3.73052e-08
3.45175e-09
3.73077e-08
3.30749e-09
3.732e-08
2.94483e-09
3.73471e-08
2.74406e-09
3.73871e-08
2.80839e-09
3.74003e-08
2.9534e-09
3.73983e-08
2.97911e-09
3.7407e-08
2.77681e-09
3.74037e-08
2.62143e-09
3.73888e-08
2.48139e-09
3.73848e-08
2.34011e-09
3.73878e-08
2.30889e-09
3.73889e-08
2.29367e-09
3.73871e-08
2.31283e-09
3.73779e-08
2.34892e-09
3.73576e-08
2.3192e-09
3.73407e-08
2.22973e-09
3.73266e-08
2.11824e-09
3.7327e-08
2.00834e-09
3.73314e-08
1.97609e-09
3.73343e-08
1.99705e-09
3.73258e-08
2.06804e-09
3.72955e-08
2.134e-09
3.72482e-08
2.09218e-09
3.71972e-08
2.01929e-09
3.71735e-08
1.87133e-09
3.71657e-08
1.78517e-09
3.71572e-08
1.80249e-09
3.71374e-08
1.83967e-09
3.71027e-08
1.85581e-09
3.70577e-08
1.83873e-09
3.70082e-08
1.81602e-09
3.69613e-08
1.78039e-09
3.69136e-08
1.75528e-09
3.68586e-08
1.75678e-09
3.67937e-08
1.74937e-09
3.67259e-08
1.70338e-09
3.6662e-08
1.66235e-09
3.66028e-08
1.63796e-09
3.65403e-08
1.63296e-09
3.64683e-08
1.63034e-09
3.63879e-08
1.6105e-09
3.63047e-08
1.58769e-09
3.62218e-08
1.56698e-09
3.6138e-08
1.54315e-09
3.60491e-08
1.53628e-09
3.5954e-08
1.52229e-09
3.58556e-08
1.49763e-09
3.57555e-08
1.47358e-09
3.56535e-08
1.46131e-09
3.55499e-08
1.43931e-09
3.54437e-08
1.42439e-09
3.53357e-08
1.39945e-09
3.52243e-08
1.3876e-09
3.51089e-08
1.36967e-09
3.49897e-08
1.35616e-09
3.4869e-08
1.3293e-09
3.47478e-08
1.31149e-09
3.46308e-08
1.26627e-09
3.45138e-08
1.25962e-09
3.43961e-08
1.23748e-09
3.42748e-08
1.22999e-09
3.41533e-08
1.20301e-09
3.40264e-08
1.20727e-09
3.39035e-08
1.16438e-09
3.37738e-08
1.17157e-09
3.36507e-08
1.13126e-09
3.35164e-08
1.15886e-09
1.11762e-09
3.74215e-08
2.98041e-09
-3.73498e-08
3.76043e-08
3.29239e-09
3.77858e-08
3.67334e-09
3.79872e-08
3.76927e-09
3.8176e-08
3.71253e-09
3.83352e-08
3.78522e-09
3.83655e-08
3.42144e-09
3.83862e-08
3.2868e-09
3.8385e-08
2.94602e-09
3.84036e-08
2.72542e-09
3.84484e-08
2.76361e-09
3.84671e-08
2.93469e-09
3.84694e-08
2.97681e-09
3.84883e-08
2.75794e-09
3.84901e-08
2.61966e-09
3.84803e-08
2.49114e-09
3.84711e-08
2.3493e-09
3.84704e-08
2.30962e-09
3.84702e-08
2.29388e-09
3.84702e-08
2.31276e-09
3.84644e-08
2.35478e-09
3.84528e-08
2.33072e-09
3.84436e-08
2.23899e-09
3.84269e-08
2.1349e-09
3.84279e-08
2.00734e-09
3.84324e-08
1.97161e-09
3.84371e-08
1.99231e-09
3.84345e-08
2.07064e-09
3.84191e-08
2.1494e-09
3.83906e-08
2.12069e-09
3.83592e-08
2.05075e-09
3.83407e-08
1.88979e-09
3.83424e-08
1.78346e-09
3.8346e-08
1.79892e-09
3.83416e-08
1.84408e-09
3.83282e-08
1.86915e-09
3.83069e-08
1.86002e-09
3.82803e-08
1.8427e-09
3.82558e-08
1.80485e-09
3.82316e-08
1.77945e-09
3.82031e-08
1.78533e-09
3.81672e-08
1.78522e-09
3.8129e-08
1.7416e-09
3.80938e-08
1.69749e-09
3.80643e-08
1.66747e-09
3.80337e-08
1.66362e-09
3.7996e-08
1.668e-09
3.79499e-08
1.65664e-09
3.79011e-08
1.63644e-09
3.78533e-08
1.61478e-09
3.78052e-08
1.59132e-09
3.77529e-08
1.58858e-09
3.76944e-08
1.58073e-09
3.76323e-08
1.55974e-09
3.75677e-08
1.53823e-09
3.75008e-08
1.52821e-09
3.74323e-08
1.50777e-09
3.7362e-08
1.49476e-09
3.72901e-08
1.47127e-09
3.72151e-08
1.46259e-09
3.71349e-08
1.44993e-09
3.70493e-08
1.44179e-09
3.696e-08
1.41855e-09
3.68693e-08
1.40216e-09
3.67826e-08
1.35298e-09
3.66971e-08
1.34512e-09
3.66106e-08
1.32403e-09
3.65204e-08
1.32021e-09
3.64281e-08
1.29525e-09
3.63303e-08
1.3051e-09
3.62337e-08
1.26091e-09
3.61316e-08
1.27368e-09
3.60323e-08
1.23055e-09
3.5926e-08
1.26522e-09
1.22263e-09
3.85785e-08
2.91249e-09
-3.85106e-08
3.87462e-08
3.12475e-09
3.89164e-08
3.50309e-09
3.90877e-08
3.59798e-09
3.92699e-08
3.53033e-09
3.94578e-08
3.59728e-09
3.94493e-08
3.42995e-09
3.94895e-08
3.24661e-09
3.94784e-08
2.95714e-09
3.9501e-08
2.7028e-09
3.95428e-08
2.72186e-09
3.95647e-08
2.91279e-09
3.9576e-08
2.96549e-09
3.96059e-08
2.72801e-09
3.96007e-08
2.62482e-09
3.95998e-08
2.49205e-09
3.95884e-08
2.36072e-09
3.95825e-08
2.31549e-09
3.95832e-08
2.29325e-09
3.9585e-08
2.31098e-09
3.95802e-08
2.35956e-09
3.95746e-08
2.33634e-09
3.95679e-08
2.24561e-09
3.95515e-08
2.15136e-09
3.95501e-08
2.00869e-09
3.95526e-08
1.9692e-09
3.95558e-08
1.9891e-09
3.95532e-08
2.07317e-09
3.9543e-08
2.15966e-09
3.95285e-08
2.1352e-09
3.95075e-08
2.07175e-09
3.94898e-08
1.90748e-09
3.94896e-08
1.78361e-09
3.94945e-08
1.79404e-09
3.94948e-08
1.84381e-09
3.9491e-08
1.87299e-09
3.94824e-08
1.86853e-09
3.94682e-08
1.8569e-09
3.94542e-08
1.81889e-09
3.94402e-08
1.7935e-09
3.94237e-08
1.80181e-09
3.94039e-08
1.80502e-09
3.93847e-08
1.76076e-09
3.93671e-08
1.71507e-09
3.9354e-08
1.68066e-09
3.93402e-08
1.67742e-09
3.93227e-08
1.68545e-09
3.92985e-08
1.68084e-09
3.92734e-08
1.66151e-09
3.925e-08
1.63819e-09
3.92261e-08
1.61525e-09
3.91988e-08
1.6159e-09
3.91663e-08
1.61324e-09
3.91313e-08
1.59469e-09
3.90938e-08
1.57574e-09
3.9054e-08
1.56807e-09
3.90124e-08
1.54928e-09
3.897e-08
1.53725e-09
3.89273e-08
1.51397e-09
3.88828e-08
1.50702e-09
3.88331e-08
1.49966e-09
3.87774e-08
1.4975e-09
3.87163e-08
1.47962e-09
3.86531e-08
1.4654e-09
3.85935e-08
1.41255e-09
3.85371e-08
1.40158e-09
3.84795e-08
1.38155e-09
3.84191e-08
1.38068e-09
3.83552e-08
1.35915e-09
3.82866e-08
1.37369e-09
3.82167e-08
1.33081e-09
3.81434e-08
1.34698e-09
3.80691e-08
1.30488e-09
3.79924e-08
1.34189e-09
1.30314e-09
3.97764e-08
2.8331e-09
-3.9697e-08
3.99111e-08
2.99005e-09
4.00772e-08
3.337e-09
4.02385e-08
3.43668e-09
4.03743e-08
3.39451e-09
4.06133e-08
3.35827e-09
4.05468e-08
3.49646e-09
4.06116e-08
3.18178e-09
4.06246e-08
2.94414e-09
4.06205e-08
2.70695e-09
4.06718e-08
2.67051e-09
4.06911e-08
2.89357e-09
4.07273e-08
2.92928e-09
4.07568e-08
2.69852e-09
4.07349e-08
2.64669e-09
4.07495e-08
2.47743e-09
4.0735e-08
2.3752e-09
4.07294e-08
2.32107e-09
4.07294e-08
2.2933e-09
4.07324e-08
2.30799e-09
4.07265e-08
2.36547e-09
4.07254e-08
2.3374e-09
4.072e-08
2.25102e-09
4.07073e-08
2.16403e-09
4.0702e-08
2.01407e-09
4.07033e-08
1.96782e-09
4.07031e-08
1.98934e-09
4.0699e-08
2.07725e-09
4.06934e-08
2.16531e-09
4.06863e-08
2.14224e-09
4.06699e-08
2.08821e-09
4.06567e-08
1.92069e-09
4.06507e-08
1.78953e-09
4.06514e-08
1.79339e-09
4.0652e-08
1.84316e-09
4.06519e-08
1.8731e-09
4.06498e-08
1.87064e-09
4.06417e-08
1.86496e-09
4.06322e-08
1.8284e-09
4.06188e-08
1.80692e-09
4.06073e-08
1.81336e-09
4.05953e-08
1.81698e-09
4.05883e-08
1.76771e-09
4.05804e-08
1.72299e-09
4.05742e-08
1.68694e-09
4.05658e-08
1.68572e-09
4.05579e-08
1.69344e-09
4.05458e-08
1.69292e-09
4.05355e-08
1.67181e-09
4.0527e-08
1.64663e-09
4.05169e-08
1.62541e-09
4.05034e-08
1.6294e-09
4.04858e-08
1.6308e-09
4.04683e-08
1.61219e-09
4.0449e-08
1.59507e-09
4.04273e-08
1.58977e-09
4.04034e-08
1.57317e-09
4.03791e-08
1.56158e-09
4.03559e-08
1.53709e-09
4.03333e-08
1.52965e-09
4.03062e-08
1.5268e-09
4.02735e-08
1.53017e-09
4.02343e-08
1.51879e-09
4.01925e-08
1.50724e-09
4.01537e-08
1.4513e-09
4.01204e-08
1.43495e-09
4.00861e-08
1.41582e-09
4.00501e-08
1.41667e-09
4.00095e-08
1.3997e-09
3.99659e-08
1.41732e-09
3.99189e-08
1.37785e-09
3.98711e-08
1.39469e-09
3.98193e-08
1.35673e-09
3.97693e-08
1.39185e-09
1.36037e-09
4.10146e-08
2.74451e-09
-4.0926e-08
4.1103e-08
2.90162e-09
4.12679e-08
3.17206e-09
4.14166e-08
3.28798e-09
4.15368e-08
3.27433e-09
4.1752e-08
3.1431e-09
4.165e-08
3.59847e-09
4.17675e-08
3.06427e-09
4.18192e-08
2.89238e-09
4.17923e-08
2.73394e-09
4.18394e-08
2.62337e-09
4.18594e-08
2.87359e-09
4.19117e-08
2.87695e-09
4.19312e-08
2.67904e-09
4.19112e-08
2.66665e-09
4.19252e-08
2.46342e-09
4.19143e-08
2.38609e-09
4.19114e-08
2.32401e-09
4.19107e-08
2.29399e-09
4.19076e-08
2.31108e-09
4.19076e-08
2.36546e-09
4.19062e-08
2.33885e-09
4.19036e-08
2.25362e-09
4.18963e-08
2.17133e-09
4.18898e-08
2.02056e-09
4.18862e-08
1.97142e-09
4.18839e-08
1.99165e-09
4.18766e-08
2.08453e-09
4.18775e-08
2.16445e-09
4.18743e-08
2.14544e-09
4.18591e-08
2.10341e-09
4.1849e-08
1.93081e-09
4.18395e-08
1.79903e-09
4.18367e-08
1.79621e-09
4.18362e-08
1.84365e-09
4.18376e-08
1.87165e-09
4.18387e-08
1.86953e-09
4.1832e-08
1.87166e-09
4.18257e-08
1.83477e-09
4.18053e-08
1.82728e-09
4.17986e-08
1.82008e-09
4.17939e-08
1.82164e-09
4.17916e-08
1.77003e-09
4.17882e-08
1.72635e-09
4.17822e-08
1.69299e-09
4.17744e-08
1.69354e-09
4.17709e-08
1.69694e-09
4.17651e-08
1.69863e-09
4.17628e-08
1.67416e-09
4.17618e-08
1.64765e-09
4.17582e-08
1.62896e-09
4.17509e-08
1.63676e-09
4.17402e-08
1.64142e-09
4.17325e-08
1.61996e-09
4.17239e-08
1.60364e-09
4.17131e-08
1.60061e-09
4.16992e-08
1.58707e-09
4.16848e-08
1.57594e-09
4.16723e-08
1.54956e-09
4.1663e-08
1.539e-09
4.16501e-08
1.53965e-09
4.1633e-08
1.54734e-09
4.16089e-08
1.54286e-09
4.15819e-08
1.53422e-09
4.1557e-08
1.47627e-09
4.15396e-08
1.45231e-09
4.15215e-08
1.43398e-09
4.15029e-08
1.43519e-09
4.1479e-08
1.42363e-09
4.14537e-08
1.44258e-09
4.14237e-08
1.40792e-09
4.13955e-08
1.42285e-09
4.13614e-08
1.39087e-09
4.13321e-08
1.4211e-09
1.3983e-09
4.22813e-08
2.65895e-09
-4.21957e-08
4.23399e-08
2.84302e-09
4.24903e-08
3.02167e-09
4.26204e-08
3.15782e-09
4.27459e-08
3.1489e-09
4.28826e-08
3.00639e-09
4.29546e-08
3.52649e-09
4.30047e-08
3.0141e-09
4.30132e-08
2.88389e-09
4.30105e-08
2.7367e-09
4.30277e-08
2.60616e-09
4.308e-08
2.82124e-09
4.31241e-08
2.83288e-09
4.31355e-08
2.66759e-09
4.31279e-08
2.67426e-09
4.31328e-08
2.45852e-09
4.31259e-08
2.39302e-09
4.31265e-08
2.32335e-09
4.31257e-08
2.29487e-09
4.31191e-08
2.31765e-09
4.3123e-08
2.36158e-09
4.31217e-08
2.34014e-09
4.31186e-08
2.25675e-09
4.31169e-08
2.17303e-09
4.31104e-08
2.02705e-09
4.31028e-08
1.97895e-09
4.30978e-08
1.99669e-09
4.30915e-08
2.09081e-09
4.30966e-08
2.15932e-09
4.30946e-08
2.1475e-09
4.30824e-08
2.11561e-09
4.30725e-08
1.94069e-09
4.3059e-08
1.81254e-09
4.30545e-08
1.80067e-09
4.30532e-08
1.84494e-09
4.3056e-08
1.86888e-09
4.30584e-08
1.8671e-09
4.30497e-08
1.88033e-09
4.3048e-08
1.83657e-09
4.30222e-08
1.85301e-09
4.30157e-08
1.8266e-09
4.30191e-08
1.81824e-09
4.30162e-08
1.77291e-09
4.30153e-08
1.72724e-09
4.30073e-08
1.70101e-09
4.29987e-08
1.70212e-09
4.29965e-08
1.69913e-09
4.29959e-08
1.69928e-09
4.2996e-08
1.67402e-09
4.29975e-08
1.6462e-09
4.29967e-08
1.62971e-09
4.29917e-08
1.64177e-09
4.29838e-08
1.64936e-09
4.29815e-08
1.62227e-09
4.29777e-08
1.60736e-09
4.29732e-08
1.60517e-09
4.29638e-08
1.59642e-09
4.29547e-08
1.5851e-09
4.29463e-08
1.55798e-09
4.29438e-08
1.54149e-09
4.29384e-08
1.54502e-09
4.29305e-08
1.55523e-09
4.29158e-08
1.55756e-09
4.28987e-08
1.55135e-09
4.28814e-08
1.49349e-09
4.28739e-08
1.45981e-09
4.28653e-08
1.44257e-09
4.28576e-08
1.44293e-09
4.2844e-08
1.43721e-09
4.28305e-08
1.45615e-09
4.28113e-08
1.42703e-09
4.2796e-08
1.43816e-09
4.27742e-08
1.41266e-09
4.2759e-08
1.43638e-09
1.42208e-09
4.35601e-08
2.59389e-09
-4.3495e-08
4.36256e-08
2.7775e-09
4.37537e-08
2.8935e-09
4.38596e-08
3.05195e-09
4.39932e-08
3.01531e-09
4.40777e-08
2.92183e-09
4.42121e-08
3.39214e-09
4.42392e-08
2.98698e-09
4.42521e-08
2.87105e-09
4.4253e-08
2.73575e-09
4.42743e-08
2.58491e-09
4.43259e-08
2.76964e-09
4.43677e-08
2.79102e-09
4.43755e-08
2.65977e-09
4.43766e-08
2.67321e-09
4.43767e-08
2.45842e-09
4.43735e-08
2.39624e-09
4.43735e-08
2.32336e-09
4.43743e-08
2.29401e-09
4.43715e-08
2.32047e-09
4.43703e-08
2.36276e-09
4.43753e-08
2.33512e-09
4.43685e-08
2.26357e-09
4.43713e-08
2.17023e-09
4.43625e-08