/*--------------------------------*- C++ -*----------------------------------*\
| =========                 |                                                 |
| \\      /  F ield         | OpenFOAM: The Open Source CFD Toolbox           |
|  \\    /   O peration     | Version:  2.3.0                                 |
|   \\  /    A nd           | Web:      www.OpenFOAM.org                      |
|    \\/     M anipulation  |                                                 |
\*---------------------------------------------------------------------------*/
FoamFile
{
    version     2.0;
    format      ascii;
    class       volVectorField;
    location    "0.75";
    object      U_0;
}
// * * * * * * * * * * * * * * * * * * * * * * * * * * * * * * * * * * * * * //

dimensions      [0 1 -1 0 0 0 0];

internalField   nonuniform List<vector> 
2945
(
(0.160256 0.00669857 0)
(0.120633 0.00652215 0)
(0.0887977 0.0045347 0)
(0.0665141 0.00255284 0)
(0.0523496 0.00104806 0)
(0.0434446 0.000331035 0)
(0.0380739 0.000100883 0)
(0.0347593 6.11154e-05 0)
(0.0324263 6.15417e-05 0)
(0.0305869 7.66231e-05 0)
(0.0289757 8.82069e-05 0)
(0.0275367 8.10075e-05 0)
(0.0262894 6.69241e-05 0)
(0.025205 5.86456e-05 0)
(0.0242301 5.42546e-05 0)
(0.0233412 4.91789e-05 0)
(0.0225354 4.40753e-05 0)
(0.0217987 4.12126e-05 0)
(0.021123 3.66514e-05 0)
(0.0205046 3.30441e-05 0)
(0.0199263 3.25106e-05 0)
(0.0193841 2.93761e-05 0)
(0.018887 2.54522e-05 0)
(0.0184281 2.39494e-05 0)
(0.0179963 2.24434e-05 0)
(0.01759 2.0738e-05 0)
(0.0172039 2.02444e-05 0)
(0.0168292 2.03916e-05 0)
(0.016471 1.87282e-05 0)
(0.0161441 1.53753e-05 0)
(0.0158404 1.49039e-05 0)
(0.0155465 1.48319e-05 0)
(0.0152661 1.33398e-05 0)
(0.015 1.29452e-05 0)
(0.014742 1.28333e-05 0)
(0.0144952 1.16951e-05 0)
(0.0142632 1.06186e-05 0)
(0.01404 1.06278e-05 0)
(0.0138221 1.04339e-05 0)
(0.0136139 9.5113e-06 0)
(0.0134153 9.11012e-06 0)
(0.0132236 8.77854e-06 0)
(0.0130412 7.8382e-06 0)
(0.0128667 7.67091e-06 0)
(0.0126954 7.81452e-06 0)
(0.0125276 7.49964e-06 0)
(0.0123669 6.99179e-06 0)
(0.0122143 6.36977e-06 0)
(0.0120676 6.21038e-06 0)
(0.0119234 6.26429e-06 0)
(0.0117838 5.79961e-06 0)
(0.0116486 5.70196e-06 0)
(0.0115175 5.4748e-06 0)
(0.0113909 5.08252e-06 0)
(0.0112696 4.85713e-06 0)
(0.0111499 4.972e-06 0)
(0.0110337 4.62284e-06 0)
(0.0109207 4.52325e-06 0)
(0.0108122 4.21999e-06 0)
(0.0107057 4.21443e-06 0)
(0.0106025 4.02863e-06 0)
(0.0105005 4.06857e-06 0)
(0.0104022 3.79046e-06 0)
(0.0103052 3.83758e-06 0)
(0.0102139 3.23848e-06 0)
(0.0101242 3.48497e-06 0)
(0.010035 3.412e-06 0)
(0.00994887 3.24771e-06 0)
(0.00986166 3.23847e-06 0)
(0.00978281 3.07394e-06 0)
(0.00968931 3.53658e-06 0)
(0.0096289 1.91275e-06 0)
(0.00951775 4.56034e-06 0)
(0.00949467 -5.1028e-07 0)
(0.00935728 6.85075e-06 0)
(0.191571 0.0122268 0)
(0.183988 0.0142418 0)
(0.171469 0.0120297 0)
(0.156505 0.00891928 0)
(0.141641 0.0062942 0)
(0.127962 0.00409678 0)
(0.116336 0.002458 0)
(0.107083 0.00160116 0)
(0.0995956 0.00117339 0)
(0.0934259 0.000958784 0)
(0.0882529 0.000833433 0)
(0.0838509 0.000716201 0)
(0.0800679 0.000611866 0)
(0.0767542 0.000539431 0)
(0.0737806 0.000486722 0)
(0.0710782 0.000437392 0)
(0.0686204 0.000392292 0)
(0.0663782 0.000358876 0)
(0.0643289 0.000324119 0)
(0.0624407 0.000295233 0)
(0.060684 0.000277559 0)
(0.0590524 0.000253733 0)
(0.0575377 0.000229582 0)
(0.0561246 0.000214009 0)
(0.0547983 0.000199652 0)
(0.0535491 0.00018599 0)
(0.052365 0.000176705 0)
(0.0512342 0.00016964 0)
(0.0501638 0.000157349 0)
(0.0491672 0.000140853 0)
(0.0482243 0.00013432 0)
(0.0473209 0.000129007 0)
(0.0464598 0.000119762 0)
(0.0456386 0.000114298 0)
(0.0448509 0.000109803 0)
(0.0440993 0.000102549 0)
(0.0433839 9.60105e-05 0)
(0.0426951 9.29649e-05 0)
(0.0420306 8.92021e-05 0)
(0.0413954 8.34802e-05 0)
(0.040786 7.97483e-05 0)
(0.0401991 7.62923e-05 0)
(0.0396369 7.12084e-05 0)
(0.0390944 6.87208e-05 0)
(0.0385679 6.70598e-05 0)
(0.0380577 6.40773e-05 0)
(0.0375678 6.06138e-05 0)
(0.0370985 5.70544e-05 0)
(0.0366442 5.51096e-05 0)
(0.036202 5.37293e-05 0)
(0.0357748 5.08205e-05 0)
(0.0353607 4.92035e-05 0)
(0.0349604 4.71487e-05 0)
(0.0345725 4.48001e-05 0)
(0.0341983 4.29642e-05 0)
(0.033832 4.22437e-05 0)
(0.0334781 4.00393e-05 0)
(0.0331331 3.88027e-05 0)
(0.0328013 3.68324e-05 0)
(0.032476 3.6019e-05 0)
(0.0321621 3.4471e-05 0)
(0.0318536 3.38107e-05 0)
(0.0315571 3.20139e-05 0)
(0.0312658 3.14739e-05 0)
(0.0309886 2.8808e-05 0)
(0.0307148 2.91533e-05 0)
(0.0304476 2.80433e-05 0)
(0.0301892 2.71199e-05 0)
(0.0299296 2.63948e-05 0)
(0.0296926 2.55275e-05 0)
(0.0294235 2.62721e-05 0)
(0.0292321 2.08062e-05 0)
(0.0289214 2.91523e-05 0)
(0.0288247 1.13742e-05 0)
(0.0284313 3.51408e-05 0)
(0.191454 0.0111547 0)
(0.193888 0.0130704 0)
(0.19454 0.0141148 0)
(0.191779 0.0124816 0)
(0.186286 0.00935438 0)
(0.178369 0.00753295 0)
(0.169733 0.00598862 0)
(0.161822 0.0047406 0)
(0.154536 0.00382334 0)
(0.14771 0.00318658 0)
(0.141347 0.0026964 0)
(0.135497 0.002268 0)
(0.130213 0.00193011 0)
(0.125482 0.00169649 0)
(0.121187 0.00152456 0)
(0.117209 0.00137298 0)
(0.113506 0.00123469 0)
(0.11007 0.00112263 0)
(0.106893 0.00101706 0)
(0.103939 0.000929679 0)
(0.101179 0.000864964 0)
(0.0986076 0.000793526 0)
(0.0961988 0.000726881 0)
(0.0939308 0.000676872 0)
(0.0917925 0.00063067 0)
(0.0897686 0.000588651 0)
(0.0878464 0.000555863 0)
(0.0860156 0.000527688 0)
(0.0842796 0.000491364 0)
(0.0826483 0.000449706 0)
(0.0810957 0.000427449 0)
(0.0796082 0.000407186 0)
(0.0781862 0.000381037 0)
(0.0768257 0.000362394 0)
(0.0755221 0.000345548 0)
(0.0742762 0.000324789 0)
(0.073085 0.000306385 0)
(0.0719379 0.000294377 0)
(0.0708327 0.000280994 0)
(0.0697737 0.00026484 0)
(0.068755 0.000252907 0)
(0.0677733 0.000241583 0)
(0.0668302 0.000227936 0)
(0.0659183 0.000219229 0)
(0.0650356 0.000211747 0)
(0.0641811 0.000202189 0)
(0.0633583 0.000192049 0)
(0.0625677 0.000182227 0)
(0.0618015 0.000175587 0)
(0.0610571 0.00016978 0)
(0.0603378 0.000161493 0)
(0.0596397 0.000155751 0)
(0.0589652 0.000149231 0)
(0.0583104 0.000142577 0)
(0.0576776 0.000136841 0)
(0.0570603 0.000133162 0)
(0.0564633 0.000126886 0)
(0.0558814 0.000122594 0)
(0.0553212 0.000116919 0)
(0.0547728 0.000113635 0)
(0.0542434 0.00010883 0)
(0.0537249 0.000105869 0)
(0.0532256 0.000100761 0)
(0.052736 9.82143e-05 0)
(0.052268 9.18183e-05 0)
(0.0518068 9.12723e-05 0)
(0.051359 8.74633e-05 0)
(0.0509251 8.48113e-05 0)
(0.0504927 8.19193e-05 0)
(0.0500933 7.96508e-05 0)
(0.0496545 7.912e-05 0)
(0.0493205 6.92323e-05 0)
(0.0488279 8.23134e-05 0)
(0.0486345 5.08878e-05 0)
(0.0479941 8.91673e-05 0)
(0.192081 0.00922896 0)
(0.194154 0.0131207 0)
(0.196998 0.0116489 0)
(0.199915 0.0116848 0)
(0.200058 0.0105437 0)
(0.197884 0.00904727 0)
(0.194232 0.00727628 0)
(0.190292 0.00611472 0)
(0.186172 0.00536194 0)
(0.181854 0.00489201 0)
(0.17733 0.00448283 0)
(0.172643 0.00398804 0)
(0.167977 0.00349192 0)
(0.163561 0.00310121 0)
(0.159444 0.00281579 0)
(0.155517 0.00257764 0)
(0.151708 0.00235795 0)
(0.148021 0.002167 0)
(0.144486 0.00197889 0)
(0.141106 0.0018193 0)
(0.137885 0.00169446 0)
(0.134846 0.0015619 0)
(0.131969 0.00144226 0)
(0.129223 0.00134912 0)
(0.126596 0.00126157 0)
(0.124071 0.00118116 0)
(0.121643 0.00111453 0)
(0.119314 0.00105583 0)
(0.117096 0.000986887 0)
(0.115 0.000911582 0)
(0.112995 0.000867168 0)
(0.111062 0.000825827 0)
(0.109197 0.000776248 0)
(0.107399 0.000738354 0)
(0.10567 0.000703114 0)
(0.104012 0.000663038 0)
(0.10242 0.000627449 0)
(0.100882 0.000601799 0)
(0.0993961 0.000574199 0)
(0.0979663 0.000543073 0)
(0.096587 0.000518881 0)
(0.0952552 0.000495819 0)
(0.093972 0.000469798 0)
(0.0927275 0.000451534 0)
(0.0915204 0.000434984 0)
(0.0903499 0.000415635 0)
(0.0892195 0.000395678 0)
(0.0881307 0.000376582 0)
(0.0870738 0.000362623 0)
(0.0860457 0.000349856 0)
(0.0850507 0.000333597 0)
(0.0840836 0.000321396 0)
(0.0831479 0.000308134 0)
(0.0822384 0.000294976 0)
(0.0813576 0.000283229 0)
(0.0804987 0.000274662 0)
(0.0796668 0.000262349 0)
(0.0788556 0.000253145 0)
(0.0780734 0.000241934 0)
(0.0773082 0.000234544 0)
(0.0765682 0.000224806 0)
(0.0758443 0.000218003 0)
(0.0751457 0.000208051 0)
(0.0744611 0.000202102 0)
(0.0738047 0.000190424 0)
(0.0731589 0.000187787 0)
(0.0725325 0.000179885 0)
(0.0719245 0.000174377 0)
(0.0713225 0.000167899 0)
(0.0707598 0.000163488 0)
(0.0701583 0.000160017 0)
(0.0696753 0.000145707 0)
(0.0690153 0.00016069 0)
(0.0687122 0.000119623 0)
(0.067833 0.000164134 0)
(0.192932 0.00924447 0)
(0.194588 0.0109107 0)
(0.197379 0.0126613 0)
(0.199938 0.0111084 0)
(0.201322 0.0115168 0)
(0.202077 0.00829983 0)
(0.201469 0.00790136 0)
(0.200283 0.00715952 0)
(0.198798 0.00639766 0)
(0.19716 0.00587984 0)
(0.195208 0.00548948 0)
(0.192741 0.00506988 0)
(0.189835 0.00461692 0)
(0.186836 0.00419262 0)
(0.183976 0.00385901 0)
(0.181196 0.00359652 0)
(0.178387 0.00336426 0)
(0.175518 0.003163 0)
(0.172606 0.00294425 0)
(0.169671 0.00274434 0)
(0.166755 0.00257842 0)
(0.163927 0.00239457 0)
(0.161204 0.00222909 0)
(0.158574 0.00210199 0)
(0.156015 0.00198406 0)
(0.153492 0.0018753 0)
(0.150992 0.00177949 0)
(0.148536 0.00168935 0)
(0.146159 0.00158394 0)
(0.143902 0.00147072 0)
(0.141744 0.00140365 0)
(0.139649 0.00134234 0)
(0.137595 0.00126976 0)
(0.135581 0.00121173 0)
(0.133621 0.00115546 0)
(0.131728 0.00109298 0)
(0.1299 0.00103745 0)
(0.128126 0.000996132 0)
(0.126399 0.000952115 0)
(0.124724 0.000903308 0)
(0.123099 0.00086424 0)
(0.121525 0.000826887 0)
(0.120004 0.000786026 0)
(0.118522 0.000756397 0)
(0.117075 0.000728856 0)
(0.115665 0.00069746 0)
(0.114297 0.000665329 0)
(0.112975 0.000634621 0)
(0.11169 0.000611483 0)
(0.110434 0.000589941 0)
(0.109214 0.00056362 0)
(0.108025 0.00054309 0)
(0.106872 0.000521215 0)
(0.105749 0.000499754 0)
(0.104658 0.000480304 0)
(0.103592 0.000465257 0)
(0.102556 0.000445198 0)
(0.101545 0.000429455 0)
(0.100568 0.000411061 0)
(0.0996112 0.000398142 0)
(0.0986834 0.000382008 0)
(0.0977757 0.000369969 0)
(0.0968974 0.000353802 0)
(0.096036 0.000343192 0)
(0.0952078 0.000324761 0)
(0.0943929 0.000318958 0)
(0.0936016 0.00030569 0)
(0.0928314 0.000296185 0)
(0.0920723 0.000284797 0)
(0.091355 0.000277432 0)
(0.0906038 0.000269373 0)
(0.089976 0.000250867 0)
(0.0891639 0.000264203 0)
(0.0887513 0.000218792 0)
(0.0876467 0.000261022 0)
(0.193687 0.00877116 0)
(0.19516 0.0102572 0)
(0.197544 0.011947 0)
(0.19965 0.0103737 0)
(0.20099 0.00973469 0)
(0.202108 0.0113333 0)
(0.202623 0.00673581 0)
(0.202281 0.00673358 0)
(0.201974 0.00622524 0)
(0.201824 0.00593219 0)
(0.201536 0.00581025 0)
(0.200743 0.00558642 0)
(0.199363 0.00525781 0)
(0.197731 0.00486823 0)
(0.196185 0.00450684 0)
(0.194728 0.00422273 0)
(0.193224 0.00399934 0)
(0.191595 0.00383623 0)
(0.189807 0.00365289 0)
(0.187856 0.00347456 0)
(0.185783 0.00331096 0)
(0.183673 0.00310392 0)
(0.18159 0.0029107 0)
(0.17956 0.00276312 0)
(0.177569 0.00263313 0)
(0.175557 0.00252256 0)
(0.173482 0.00242605 0)
(0.171345 0.00232665 0)
(0.169188 0.00219383 0)
(0.167103 0.00204051 0)
(0.165124 0.00195037 0)
(0.163216 0.00187528 0)
(0.161319 0.00179069 0)
(0.159405 0.00172241 0)
(0.157493 0.00165004 0)
(0.155614 0.00156683 0)
(0.153786 0.00149211 0)
(0.152001 0.00143693 0)
(0.150247 0.00137884 0)
(0.148522 0.00131376 0)
(0.146829 0.00125992 0)
(0.145179 0.00120754 0)
(0.14358 0.0011512 0)
(0.142016 0.00111095 0)
(0.140475 0.00107344 0)
(0.138955 0.00103006 0)
(0.137468 0.000984837 0)
(0.136026 0.000941304 0)
(0.13462 0.000908517 0)
(0.133239 0.000877988 0)
(0.131886 0.00084081 0)
(0.130561 0.000811048 0)
(0.129272 0.000779496 0)
(0.128012 0.00074873 0)
(0.126783 0.000720792 0)
(0.125578 0.00069857 0)
(0.1244 0.000669774 0)
(0.123246 0.000646439 0)
(0.122128 0.00061968 0)
(0.12103 0.000600286 0)
(0.119962 0.000576761 0)
(0.118915 0.000558487 0)
(0.117899 0.000535103 0)
(0.116901 0.000518957 0)
(0.115937 0.000492597 0)
(0.114988 0.00048294 0)
(0.114064 0.000463391 0)
(0.11316 0.000449005 0)
(0.112271 0.000431564 0)
(0.111423 0.000420713 0)
(0.110547 0.000406353 0)
(0.109794 0.000384482 0)
(0.108854 0.000392179 0)
(0.108344 0.000347922 0)
(0.107043 0.000380328 0)
(0.194266 0.00820982 0)
(0.195624 0.00972365 0)
(0.197611 0.0108171 0)
(0.199515 0.0101498 0)
(0.200653 0.00978943 0)
(0.201783 0.00947 0)
(0.202627 0.00726924 0)
(0.202431 0.00680505 0)
(0.202341 0.00629077 0)
(0.202624 0.00596031 0)
(0.202949 0.00582667 0)
(0.202864 0.00575904 0)
(0.20231 0.00550443 0)
(0.20153 0.00510333 0)
(0.200823 0.00476141 0)
(0.200236 0.00449301 0)
(0.199666 0.00428708 0)
(0.199022 0.0041629 0)
(0.198226 0.0040238 0)
(0.197238 0.00390433 0)
(0.196066 0.00378869 0)
(0.194778 0.00358918 0)
(0.193459 0.00338568 0)
(0.192174 0.00322565 0)
(0.190929 0.00309128 0)
(0.18966 0.00299484 0)
(0.188293 0.00292302 0)
(0.186788 0.0028502 0)
(0.185147 0.00272291 0)
(0.183477 0.00254043 0)
(0.181897 0.00242308 0)
(0.180418 0.00233171 0)
(0.178959 0.00224622 0)
(0.177442 0.00218667 0)
(0.175859 0.00211404 0)
(0.174248 0.00201951 0)
(0.172651 0.00193005 0)
(0.171083 0.00186514 0)
(0.16953 0.00179902 0)
(0.167977 0.0017247 0)
(0.166422 0.00166129 0)
(0.164883 0.00159593 0)
(0.163384 0.00152451 0)
(0.16192 0.00147587 0)
(0.160466 0.00143291 0)
(0.159008 0.00138189 0)
(0.157555 0.00132564 0)
(0.156136 0.00126947 0)
(0.154748 0.0012278 0)
(0.153378 0.00119016 0)
(0.152023 0.00114372 0)
(0.150681 0.00110568 0)
(0.149366 0.00106467 0)
(0.148076 0.00102461 0)
(0.146813 0.000988612 0)
(0.145566 0.000959956 0)
(0.14434 0.000922833 0)
(0.143129 0.000891988 0)
(0.14195 0.000856596 0)
(0.140789 0.000830591 0)
(0.139652 0.000799498 0)
(0.138534 0.000774666 0)
(0.137445 0.000743682 0)
(0.136372 0.000721737 0)
(0.135333 0.000686831 0)
(0.134306 0.000673263 0)
(0.133302 0.000647226 0)
(0.132314 0.000627733 0)
(0.131341 0.000603447 0)
(0.130405 0.00058924 0)
(0.129446 0.000566858 0)
(0.128603 0.000543346 0)
(0.127574 0.000541373 0)
(0.126993 0.000503571 0)
(0.125546 0.000520125 0)
(0.194707 0.00768374 0)
(0.195928 0.00914867 0)
(0.197696 0.00989501 0)
(0.199384 0.0101602 0)
(0.200475 0.00921833 0)
(0.201548 0.00921757 0)
(0.202493 0.00719583 0)
(0.202355 0.00673242 0)
(0.20228 0.00620103 0)
(0.202597 0.00582997 0)
(0.202997 0.00575006 0)
(0.203038 0.005732 0)
(0.202817 0.00567023 0)
(0.202461 0.00527213 0)
(0.202164 0.00486596 0)
(0.201951 0.0045595 0)
(0.201797 0.00435449 0)
(0.201651 0.00427279 0)
(0.201426 0.00417347 0)
(0.201063 0.00409333 0)
(0.20053 0.00403218 0)
(0.199862 0.00386454 0)
(0.199138 0.00365992 0)
(0.198449 0.00348829 0)
(0.197826 0.00334484 0)
(0.197209 0.00326271 0)
(0.196517 0.00322324 0)
(0.195681 0.00319413 0)
(0.194642 0.0031036 0)
(0.193475 0.00291855 0)
(0.192348 0.00278001 0)
(0.191348 0.00266172 0)
(0.190417 0.00257223 0)
(0.189437 0.00253374 0)
(0.188348 0.00248032 0)
(0.187168 0.00239154 0)
(0.185954 0.00229587 0)
(0.184748 0.00222535 0)
(0.183551 0.00215664 0)
(0.182339 0.00208219 0)
(0.181093 0.00201908 0)
(0.179822 0.00194731 0)
(0.178568 0.00186258 0)
(0.177349 0.00180648 0)
(0.176142 0.00176262 0)
(0.174909 0.00171189 0)
(0.173648 0.00165133 0)
(0.172391 0.00158536 0)
(0.171156 0.00153608 0)
(0.169934 0.00149398 0)
(0.168713 0.00144214 0)
(0.167488 0.00139942 0)
(0.16627 0.00135118 0)
(0.165066 0.00130291 0)
(0.163882 0.00126017 0)
(0.162708 0.00122712 0)
(0.161541 0.00118376 0)
(0.160379 0.00114709 0)
(0.159236 0.00110418 0)
(0.158105 0.00107258 0)
(0.156989 0.00103486 0)
(0.155885 0.00100408 0)
(0.154803 0.000965883 0)
(0.153734 0.000938545 0)
(0.152694 0.000895123 0)
(0.151666 0.000878292 0)
(0.150653 0.000846461 0)
(0.149648 0.000822681 0)
(0.148654 0.000791384 0)
(0.14769 0.000774853 0)
(0.146704 0.000742985 0)
(0.145824 0.000720346 0)
(0.144762 0.000705403 0)
(0.144148 0.000678516 0)
(0.14263 0.00067558 0)
(0.195164 0.0072284 0)
(0.196165 0.0085463 0)
(0.197713 0.00936601 0)
(0.199226 0.00962947 0)
(0.200357 0.00888489 0)
(0.201468 0.0088686 0)
(0.202366 0.00724917 0)
(0.202255 0.00671523 0)
(0.202185 0.00602782 0)
(0.202447 0.00568499 0)
(0.202791 0.00571473 0)
(0.202887 0.00581306 0)
(0.20275 0.0057345 0)
(0.202573 0.00532418 0)
(0.202461 0.00490185 0)
(0.202355 0.00459805 0)
(0.202306 0.00435691 0)
(0.202319 0.00427208 0)
(0.202308 0.00421311 0)
(0.202227 0.00417447 0)
(0.20203 0.00413367 0)
(0.201714 0.00400024 0)
(0.20134 0.00379458 0)
(0.200998 0.00360001 0)
(0.200748 0.00345402 0)
(0.200543 0.0033763 0)
(0.200299 0.00336135 0)
(0.199953 0.00338139 0)
(0.199407 0.00334092 0)
(0.198682 0.003166 0)
(0.197942 0.00301221 0)
(0.197327 0.00286454 0)
(0.196837 0.00276284 0)
(0.196342 0.0027437 0)
(0.195737 0.00271837 0)
(0.195012 0.00265132 0)
(0.194212 0.00256133 0)
(0.193396 0.00248873 0)
(0.192588 0.00241832 0)
(0.191771 0.00234962 0)
(0.190908 0.00229682 0)
(0.189988 0.0022281 0)
(0.189051 0.00213439 0)
(0.188144 0.00207049 0)
(0.187262 0.00202652 0)
(0.186354 0.00198228 0)
(0.185393 0.00192655 0)
(0.184401 0.00185735 0)
(0.183413 0.00180284 0)
(0.182435 0.00175811 0)
(0.181453 0.00170473 0)
(0.180452 0.0016625 0)
(0.179436 0.0016116 0)
(0.178417 0.00155765 0)
(0.177408 0.00150986 0)
(0.176404 0.00147477 0)
(0.175398 0.00142826 0)
(0.174383 0.00138872 0)
(0.173374 0.00134086 0)
(0.172365 0.00130594 0)
(0.17136 0.00126386 0)
(0.170353 0.00122884 0)
(0.169361 0.00118465 0)
(0.168375 0.00115288 0)
(0.167414 0.00110145 0)
(0.166461 0.00108246 0)
(0.165519 0.00104628 0)
(0.164572 0.00102011 0)
(0.16363 0.00098254 0)
(0.162706 0.00096564 0)
(0.16176 0.000923551 0)
(0.160905 0.00090452 0)
(0.159876 0.000874967 0)
(0.159274 0.000861858 0)
(0.157776 0.000838872 0)
(0.195644 0.00692143 0)
(0.196407 0.00803301 0)
(0.197713 0.00882144 0)
(0.199112 0.00901734 0)
(0.200293 0.00860148 0)
(0.2014 0.00878715 0)
(0.202254 0.00715357 0)
(0.202177 0.00668777 0)
(0.202103 0.00596102 0)
(0.202287 0.00553555 0)
(0.202534 0.00565322 0)
(0.202635 0.00581813 0)
(0.202588 0.00576121 0)
(0.202541 0.00534883 0)
(0.202518 0.00498103 0)
(0.202431 0.00461746 0)
(0.202373 0.00435438 0)
(0.202399 0.00427477 0)
(0.202426 0.00419026 0)
(0.202421 0.00418647 0)
(0.202361 0.00420296 0)
(0.202215 0.004055 0)
(0.202014 0.00389811 0)
(0.20184 0.00367376 0)
(0.201757 0.0034514 0)
(0.201734 0.00338333 0)
(0.201702 0.00338726 0)
(0.201614 0.00345561 0)
(0.201369 0.00347299 0)
(0.200952 0.00333678 0)
(0.200493 0.00315636 0)
(0.200128 0.0029571 0)
(0.199913 0.00284575 0)
(0.199743 0.00284112 0)
(0.19949 0.00284406 0)
(0.199122 0.0028034 0)
(0.198666 0.00272735 0)
(0.198176 0.00265865 0)
(0.197692 0.00258465 0)
(0.197213 0.00251962 0)
(0.1967 0.00248218 0)
(0.196117 0.00242617 0)
(0.195492 0.00232925 0)
(0.194886 0.00225688 0)
(0.194318 0.00221052 0)
(0.19374 0.0021744 0)
(0.193105 0.00212978 0)
(0.192415 0.00206482 0)
(0.191708 0.00200876 0)
(0.191007 0.00196249 0)
(0.190303 0.00190972 0)
(0.189577 0.00187203 0)
(0.188822 0.00182376 0)
(0.188046 0.00176812 0)
(0.187267 0.00171746 0)
(0.18649 0.001682 0)
(0.185705 0.00163501 0)
(0.184903 0.00159575 0)
(0.184097 0.00154601 0)
(0.183282 0.00151077 0)
(0.182456 0.00146768 0)
(0.181616 0.00143123 0)
(0.180778 0.00138313 0)
(0.179938 0.00134822 0)
(0.179118 0.00128945 0)
(0.178307 0.00126933 0)
(0.177501 0.00123061 0)
(0.176683 0.00120451 0)
(0.175858 0.0011623 0)
(0.17504 0.00114753 0)
(0.174196 0.00109576 0)
(0.173427 0.00108249 0)
(0.172496 0.00103897 0)
(0.171951 0.00104033 0)
(0.17057 0.000999943 0)
(0.196067 0.0066644 0)
(0.196702 0.00764988 0)
(0.197836 0.00838704 0)
(0.199105 0.00857744 0)
(0.200211 0.00834722 0)
(0.201272 0.00821751 0)
(0.202136 0.00709008 0)
(0.202096 0.00672053 0)
(0.202007 0.00590533 0)
(0.202133 0.00544391 0)
(0.202302 0.00560714 0)
(0.202401 0.00581035 0)
(0.202443 0.00572344 0)
(0.202469 0.00530293 0)
(0.202486 0.00499611 0)
(0.202436 0.00466658 0)
(0.202362 0.00435811 0)
(0.202364 0.00427246 0)
(0.202387 0.00419865 0)
(0.202388 0.00419393 0)
(0.202357 0.0042081 0)
(0.202281 0.00411306 0)
(0.202171 0.00390764 0)
(0.202069 0.00366333 0)
(0.202035 0.00348354 0)
(0.202053 0.00339922 0)
(0.20209 0.0034016 0)
(0.202094 0.00346974 0)
(0.20199 0.00353947 0)
(0.201757 0.0034094 0)
(0.201475 0.00329571 0)
(0.201254 0.00302723 0)
(0.201174 0.00284367 0)
(0.201162 0.00285779 0)
(0.201097 0.00289116 0)
(0.200948 0.00288071 0)
(0.200723 0.00281768 0)
(0.200458 0.0027538 0)
(0.200192 0.00267918 0)
(0.199942 0.00261461 0)
(0.199677 0.00258665 0)
(0.199352 0.00254747 0)
(0.198976 0.00245526 0)
(0.198609 0.00237464 0)
(0.198285 0.00232103 0)
(0.197971 0.00229121 0)
(0.197611 0.00226039 0)
(0.19719 0.00220522 0)
(0.196739 0.00215049 0)
(0.196289 0.00210245 0)
(0.195843 0.00205051 0)
(0.195378 0.00201928 0)
(0.194882 0.00197741 0)
(0.194353 0.00192386 0)
(0.193812 0.0018731 0)
(0.193267 0.00183836 0)
(0.192714 0.00179209 0)
(0.192143 0.00175504 0)
(0.191564 0.00170597 0)
(0.190972 0.00167295 0)
(0.190359 0.00163221 0)
(0.189721 0.0015977 0)
(0.189071 0.00154866 0)
(0.188412 0.00151214 0)
(0.187767 0.00144655 0)
(0.187134 0.00142557 0)
(0.186505 0.00138596 0)
(0.185858 0.00136221 0)
(0.185197 0.00131762 0)
(0.184533 0.00130721 0)
(0.183836 0.00124781 0)
(0.183198 0.00124122 0)
(0.182416 0.00118662 0)
(0.181963 0.00120076 0)
(0.180779 0.00114824 0)
(0.196443 0.00653825 0)
(0.197028 0.00730133 0)
(0.198026 0.00800352 0)
(0.199135 0.00806496 0)
(0.200094 0.00797778 0)
(0.201123 0.00785278 0)
(0.202002 0.0070243 0)
(0.201972 0.00678233 0)
(0.201893 0.00591422 0)
(0.202001 0.00535986 0)
(0.202133 0.00540682 0)
(0.202223 0.00576611 0)
(0.202295 0.00583781 0)
(0.202363 0.00535084 0)
(0.202428 0.0049687 0)
(0.202407 0.00467663 0)
(0.202332 0.00436223 0)
(0.202304 0.00425621 0)
(0.202312 0.00420037 0)
(0.202313 0.00419014 0)
(0.2023 0.00421743 0)
(0.202256 0.00414081 0)
(0.202196 0.00393964 0)
(0.202122 0.00371167 0)
(0.202071 0.00348039 0)
(0.202087 0.00337947 0)
(0.202131 0.00337835 0)
(0.202148 0.0034828 0)
(0.202095 0.00356791 0)
(0.201972 0.0034898 0)
(0.20181 0.00332135 0)
(0.201653 0.0030287 0)
(0.201613 0.00288503 0)
(0.201649 0.00287408 0)
(0.201658 0.00289933 0)
(0.201611 0.00291132 0)
(0.201513 0.00286643 0)
(0.201383 0.00280366 0)
(0.201243 0.00272223 0)
(0.201115 0.00266437 0)
(0.200989 0.0026428 0)
(0.200821 0.0026114 0)
(0.200613 0.00252505 0)
(0.20041 0.00244256 0)
(0.200246 0.00237957 0)
(0.200102 0.00235029 0)
(0.199927 0.00233077 0)
(0.199701 0.00228883 0)
(0.199444 0.0022385 0)
(0.199189 0.00218824 0)
(0.19894 0.00213518 0)
(0.19868 0.00210949 0)
(0.198392 0.00207588 0)
(0.19807 0.00202645 0)
(0.197732 0.00197782 0)
(0.197388 0.00194495 0)
(0.197034 0.00189956 0)
(0.196667 0.00186462 0)
(0.196294 0.00181717 0)
(0.195911 0.00178772 0)
(0.195505 0.0017519 0)
(0.195066 0.00172198 0)
(0.194605 0.00167519 0)
(0.194126 0.00163893 0)
(0.193657 0.00156713 0)
(0.193206 0.00154433 0)
(0.192761 0.0015047 0)
(0.192296 0.00148462 0)
(0.191813 0.00144024 0)
(0.19132 0.00143536 0)
(0.190792 0.00137158 0)
(0.190305 0.0013711 0)
(0.189698 0.00130992 0)
(0.189355 0.00133307 0)
(0.188415 0.00127501 0)
(0.196777 0.00639711 0)
(0.197357 0.0068528 0)
(0.198206 0.00761845 0)
(0.199179 0.00772221 0)
(0.20002 0.00745122 0)
(0.200969 0.00771942 0)
(0.201838 0.00695954 0)
(0.201807 0.00658191 0)
(0.201793 0.00590375 0)
(0.20188 0.0055372 0)
(0.201955 0.00540563 0)
(0.202074 0.00561907 0)
(0.202181 0.0057041 0)
(0.202273 0.00529312 0)
(0.20236 0.0049737 0)
(0.202343 0.00468664 0)
(0.202291 0.00440367 0)
(0.202244 0.00426389 0)
(0.202233 0.00419603 0)
(0.202241 0.00418663 0)
(0.202239 0.0042316 0)
(0.202212 0.00415544 0)
(0.202178 0.00395398 0)
(0.202119 0.00374865 0)
(0.202059 0.00346214 0)
(0.202063 0.00337553 0)
(0.202095 0.00338593 0)
(0.202102 0.00347837 0)
(0.202059 0.00358936 0)
(0.201994 0.00352244 0)
(0.201917 0.00336632 0)
(0.201797 0.00307668 0)
(0.201735 0.00285293 0)
(0.201766 0.00285462 0)
(0.201794 0.0029059 0)
(0.201783 0.00292064 0)
(0.201748 0.00288658 0)
(0.20169 0.00283907 0)
(0.201613 0.00274609 0)
(0.201538 0.00268373 0)
(0.201466 0.00267342 0)
(0.201375 0.00265235 0)
(0.201268 0.00255968 0)
(0.201169 0.00247065 0)
(0.201095 0.00240468 0)
(0.201034 0.00237864 0)
(0.200957 0.00236483 0)
(0.200848 0.00233111 0)
(0.200717 0.00228431 0)
(0.200592 0.00223363 0)
(0.200474 0.00218079 0)
(0.200347 0.0021584 0)
(0.200196 0.00213177 0)
(0.20002 0.00208663 0)
(0.199832 0.00204073 0)
(0.199636 0.00201046 0)
(0.199429 0.00196653 0)
(0.199211 0.00193267 0)
(0.198993 0.00188572 0)
(0.198775 0.001859 0)
(0.198538 0.00182975 0)
(0.198268 0.00180618 0)
(0.197968 0.00176391 0)
(0.197645 0.00172944 0)
(0.197326 0.00165257 0)
(0.197031 0.00162642 0)
(0.196748 0.00158683 0)
(0.196447 0.00157004 0)
(0.196127 0.00152826 0)
(0.195794 0.0015287 0)
(0.195427 0.00146419 0)
(0.195088 0.00146795 0)
(0.194653 0.00140539 0)
(0.194416 0.00143258 0)
(0.193728 0.00137526 0)
(0.197095 0.0062741 0)
(0.197656 0.00653606 0)
(0.198357 0.00728024 0)
(0.199221 0.00743068 0)
(0.199983 0.00713062 0)
(0.200836 0.00728528 0)
(0.201656 0.00682947 0)
(0.201618 0.00654913 0)
(0.201674 0.00614321 0)
(0.201803 0.00521834 0)
(0.201784 0.00543577 0)
(0.201914 0.00569203 0)
(0.202098 0.00571528 0)
(0.202247 0.00514107 0)
(0.202273 0.00497115 0)
(0.202234 0.00473273 0)
(0.202229 0.00439424 0)
(0.20219 0.00427899 0)
(0.202163 0.00419009 0)
(0.202175 0.00419128 0)
(0.202176 0.00422109 0)
(0.202152 0.00416482 0)
(0.202138 0.00396611 0)
(0.202099 0.00376673 0)
(0.202037 0.00347022 0)
(0.202029 0.00337939 0)
(0.202046 0.00336974 0)
(0.202033 0.00350312 0)
(0.201994 0.00361042 0)
(0.201974 0.00351338 0)
(0.201936 0.00340425 0)
(0.201837 0.00311593 0)
(0.20177 0.0028594 0)
(0.201776 0.00284142 0)
(0.201786 0.00290702 0)
(0.201785 0.00292329 0)
(0.201782 0.00289123 0)
(0.201761 0.00285217 0)
(0.201711 0.00276867 0)
(0.20165 0.00271068 0)
(0.201591 0.00268557 0)
(0.20153 0.00266643 0)
(0.201479 0.00259661 0)
(0.201446 0.00248691 0)
(0.201415 0.00240949 0)
(0.20138 0.0023852 0)
(0.201337 0.00238116 0)
(0.201287 0.0023546 0)
(0.201231 0.00230519 0)
(0.201184 0.00225041 0)
(0.20114 0.00219922 0)
(0.201084 0.002183 0)
(0.201008 0.00216142 0)
(0.200917 0.00211812 0)
(0.200824 0.00207518 0)
(0.200725 0.00204684 0)
(0.200613 0.00200476 0)
(0.200488 0.0019714 0)
(0.200369 0.00192435 0)
(0.20026 0.00189748 0)
(0.200141 0.00187384 0)
(0.199993 0.00185778 0)
(0.199815 0.00182201 0)
(0.199607 0.00178953 0)
(0.1994 0.00170866 0)
(0.199222 0.00167752 0)
(0.199063 0.0016385 0)
(0.19889 0.00162339 0)
(0.198698 0.00158583 0)
(0.198494 0.00159022 0)
(0.198259 0.00152815 0)
(0.198041 0.0015332 0)
(0.197755 0.00147389 0)
(0.197607 0.0015004 0)
(0.197142 0.00144859 0)
(0.197456 0.00603349 0)
(0.197923 0.00629407 0)
(0.198474 0.00691573 0)
(0.199239 0.00704911 0)
(0.199964 0.00693729 0)
(0.200667 0.00660401 0)
(0.201319 0.00766766 0)
(0.201599 0.00623204 0)
(0.201624 0.00561069 0)
(0.201679 0.00552434 0)
(0.201693 0.00507822 0)
(0.20177 0.00570905 0)
(0.201993 0.005626 0)
(0.202209 0.00513769 0)
(0.20219 0.00507085 0)
(0.202134 0.00459607 0)
(0.202149 0.0044417 0)
(0.202129 0.00429908 0)
(0.202108 0.00419594 0)
(0.202108 0.00417392 0)
(0.202094 0.0043151 0)
(0.202085 0.00414662 0)
(0.202089 0.00394891 0)
(0.202068 0.00377089 0)
(0.202014 0.00350274 0)
(0.201994 0.00335801 0)
(0.201996 0.00338607 0)
(0.20196 0.00348516 0)
(0.20193 0.00360661 0)
(0.201952 0.00354392 0)
(0.201926 0.00342237 0)
(0.20183 0.00312219 0)
(0.201765 0.00288584 0)
(0.201759 0.00285664 0)
(0.201751 0.00289735 0)
(0.20175 0.00292121 0)
(0.201763 0.0028858 0)
(0.201756 0.00286073 0)
(0.201712 0.00278643 0)
(0.201651 0.00270505 0)
(0.201584 0.00273389 0)
(0.201544 0.00270062 0)
(0.201537 0.00255598 0)
(0.20153 0.0024938 0)
(0.201509 0.00242502 0)
(0.201471 0.00240254 0)
(0.201437 0.00238727 0)
(0.201419 0.00236327 0)
(0.201403 0.00230835 0)
(0.201394 0.00225181 0)
(0.201385 0.00220533 0)
(0.201361 0.00219308 0)
(0.201316 0.00217852 0)
(0.201267 0.00213194 0)
(0.201228 0.00209234 0)
(0.201186 0.00206682 0)
(0.201127 0.00202793 0)
(0.201053 0.00199213 0)
(0.200985 0.00194293 0)
(0.200937 0.00191601 0)
(0.200889 0.00189604 0)
(0.200818 0.00188558 0)
(0.200719 0.00185875 0)
(0.200591 0.00182834 0)
(0.200456 0.0017435 0)
(0.200354 0.00170496 0)
(0.200278 0.00166731 0)
(0.200192 0.00165295 0)
(0.200089 0.00162062 0)
(0.199973 0.00162701 0)
(0.199832 0.00156993 0)
(0.199702 0.0015731 0)
(0.199528 0.0015196 0)
(0.199444 0.00154185 0)
(0.199153 0.00149836 0)
(0.197805 0.00587168 0)
(0.198186 0.00616241 0)
(0.198596 0.00656007 0)
(0.199243 0.00676782 0)
(0.199945 0.00670863 0)
(0.200505 0.00624697 0)
(0.201052 0.00735668 0)
(0.201561 0.00615182 0)
(0.201561 0.00585538 0)
(0.201538 0.00543383 0)
(0.201599 0.00518385 0)
(0.201684 0.00555358 0)
(0.201896 0.00548298 0)
(0.202127 0.00513213 0)
(0.20211 0.00507715 0)
(0.202057 0.00463305 0)
(0.202062 0.00446568 0)
(0.202056 0.0042972 0)
(0.202052 0.00419353 0)
(0.202039 0.00420285 0)
(0.202022 0.00419744 0)
(0.202025 0.00414667 0)
(0.202033 0.00398796 0)
(0.202014 0.00382007 0)
(0.201985 0.00349288 0)
(0.201962 0.0033938 0)
(0.201939 0.00338342 0)
(0.201891 0.00351365 0)
(0.201885 0.00359405 0)
(0.201927 0.00353679 0)
(0.201897 0.00346651 0)
(0.201806 0.00312971 0)
(0.201749 0.00289646 0)
(0.201725 0.0028579 0)
(0.20171 0.00290285 0)
(0.20171 0.00291926 0)
(0.201732 0.00289507 0)
(0.201728 0.00285868 0)
(0.201683 0.00279117 0)
(0.201618 0.00277113 0)
(0.201546 0.00269948 0)
(0.201531 0.00267445 0)
(0.201544 0.00259779 0)
(0.201541 0.00250769 0)
(0.201518 0.00243278 0)
(0.20147 0.00240978 0)
(0.20144 0.00238191 0)
(0.20144 0.00236964 0)
(0.20144 0.0023154 0)
(0.201444 0.00225827 0)
(0.201447 0.00221371 0)
(0.201437 0.00220034 0)
(0.201405 0.0021869 0)
(0.201373 0.00214332 0)
(0.201361 0.00209217 0)
(0.201348 0.00207292 0)
(0.201315 0.00203967 0)
(0.201265 0.00201277 0)
(0.201221 0.0019514 0)
(0.2012 0.00191966 0)
(0.201186 0.0019049 0)
(0.201158 0.00189836 0)
(0.201106 0.00187939 0)
(0.201026 0.00185428 0)
(0.200937 0.00176558 0)
(0.200878 0.00171726 0)
(0.200849 0.00168062 0)
(0.200814 0.00166597 0)
(0.200764 0.00164036 0)
(0.200702 0.00164659 0)
(0.200619 0.00159595 0)
(0.200544 0.00159576 0)
(0.200445 0.00154906 0)
(0.200401 0.00156419 0)
(0.20023 0.00152993 0)
(0.198055 0.00564634 0)