/*--------------------------------*- C++ -*----------------------------------*\
| =========                 |                                                 |
| \\      /  F ield         | OpenFOAM: The Open Source CFD Toolbox           |
|  \\    /   O peration     | Version:  2.3.0                                 |
|   \\  /    A nd           | Web:      www.OpenFOAM.org                      |
|    \\/     M anipulation  |                                                 |
\*---------------------------------------------------------------------------*/
FoamFile
{
    version     2.0;
    format      ascii;
    class       volScalarField;
    location    "0.7";
    object      p;
}
// * * * * * * * * * * * * * * * * * * * * * * * * * * * * * * * * * * * * * //

dimensions      [0 2 -2 0 0 0 0];

internalField   nonuniform List<scalar> 
2000
(
0.00236254
0.00203676
0.00143649
0.00088159
0.000424094
3.6385e-05
-0.000289937
-0.000536219
-0.000682483
-0.000733845
-0.000717634
-0.00066594
-0.000603233
-0.000543897
-0.000494372
-0.000455834
-0.000426635
-0.00040419
-0.000386077
-0.000370457
-0.00035611
-0.000342319
-0.00032873
-0.000315221
-0.000301802
-0.000288547
-0.000275548
-0.000262896
-0.000250662
-0.000238897
-0.000227633
-0.000216883
-0.000206647
-0.000196917
-0.000187678
-0.000178909
-0.000170591
-0.000162699
-0.000155214
-0.000148114
-0.00014138
-0.000134995
-0.000128941
-0.000123203
-0.000117768
-0.000112623
-0.000107753
-0.000103149
-9.87984e-05
-9.46897e-05
-9.08124e-05
-8.71562e-05
-8.37108e-05
-8.04664e-05
-7.74133e-05
-7.45422e-05
-7.18435e-05
-6.9309e-05
-6.69289e-05
-6.46959e-05
-6.26009e-05
-6.06369e-05
-5.87953e-05
-5.70708e-05
-5.54532e-05
-5.39395e-05
-5.25177e-05
-5.11868e-05
-4.99338e-05
-4.87594e-05
-4.76489e-05
-4.66058e-05
-4.56114e-05
-4.4673e-05
-4.37666e-05
-4.29055e-05
-4.20582e-05
-4.12449e-05
-4.04259e-05
-3.96287e-05
-3.8803e-05
-3.79863e-05
-3.71129e-05
-3.62374e-05
-3.52703e-05
-3.42871e-05
-3.31752e-05
-3.20311e-05
-3.07068e-05
-2.93384e-05
-2.77272e-05
-2.60565e-05
-2.40644e-05
-2.20018e-05
-1.95157e-05
-1.6952e-05
-1.38194e-05
-1.0631e-05
-6.6542e-06
-2.75061e-06
0.00190889
0.00173965
0.00132233
0.000847688
0.000419086
5.34679e-05
-0.000249631
-0.000477546
-0.000618518
-0.000675788
-0.000670013
-0.000628893
-0.000575302
-0.000523103
-0.000478876
-0.000444012
-0.000417219
-0.000396318
-0.000379223
-0.000364319
-0.000350518
-0.00033718
-0.000323989
-0.000310838
-0.000297747
-0.000284789
-0.000272059
-0.000259649
-0.000247632
-0.000236061
-0.000224971
-0.000214377
-0.000204283
-0.000194682
-0.000185561
-0.000176901
-0.000168682
-0.000160884
-0.000153485
-0.000146465
-0.000139807
-0.000133492
-0.000127504
-0.000121828
-0.000116451
-0.000111359
-0.000106542
-0.000101986
-9.76803e-05
-9.36145e-05
-8.97778e-05
-8.616e-05
-8.27509e-05
-7.95411e-05
-7.65207e-05
-7.3681e-05
-7.10119e-05
-6.85059e-05
-6.61529e-05
-6.39459e-05
-6.18757e-05
-5.99357e-05
-5.81168e-05
-5.64146e-05
-5.4818e-05
-5.33251e-05
-5.19228e-05
-5.06113e-05
-4.93765e-05
-4.82202e-05
-4.71268e-05
-4.6101e-05
-4.51224e-05
-4.42004e-05
-4.3309e-05
-4.24635e-05
-4.16302e-05
-4.08319e-05
-4.00261e-05
-3.92432e-05
-3.84298e-05
-3.76271e-05
-3.6765e-05
-3.59031e-05
-3.49463e-05
-3.39762e-05
-3.28737e-05
-3.17424e-05
-3.04261e-05
-2.90702e-05
-2.74656e-05
-2.58073e-05
-2.38198e-05
-2.17694e-05
-1.92853e-05
-1.67346e-05
-1.3599e-05
-1.04252e-05
-6.44155e-06
-2.56785e-06
0.00158243
0.0014836
0.00120625
0.000824592
0.00043994
0.000102601
-0.000173024
-0.000381268
-0.000518731
-0.000588131
-0.00060197
-0.000579743
-0.000541039
-0.00049977
-0.000462677
-0.000431925
-0.000407258
-0.000387398
-0.000370855
-0.000356337
-0.000342901
-0.000329957
-0.000317194
-0.000304498
-0.00029187
-0.00027937
-0.000267081
-0.000255083
-0.000243444
-0.000232217
-0.000221434
-0.000211115
-0.000201266
-0.000191882
-0.000182954
-0.000174467
-0.000166403
-0.000158745
-0.000151472
-0.000144567
-0.000138014
-0.000131795
-0.000125895
-0.000120301
-0.000115
-0.000109978
-0.000105226
-0.00010073
-9.64816e-05
-9.24687e-05
-8.86814e-05
-8.51098e-05
-8.1744e-05
-7.85751e-05
-7.55929e-05
-7.27894e-05
-7.01544e-05
-6.76807e-05
-6.53581e-05
-6.31801e-05
-6.11373e-05
-5.92236e-05
-5.74295e-05
-5.57514e-05
-5.41773e-05
-5.27067e-05
-5.1325e-05
-5.00341e-05
-4.88183e-05
-4.76812e-05
-4.66054e-05
-4.55977e-05
-4.46355e-05
-4.37308e-05
-4.28545e-05
-4.20258e-05
-4.12066e-05
-4.04243e-05
-3.96318e-05
-3.88646e-05
-3.80637e-05
-3.72765e-05
-3.64256e-05
-3.55797e-05
-3.46332e-05
-3.36787e-05
-3.25859e-05
-3.14708e-05
-3.01624e-05
-2.88238e-05
-2.72256e-05
-2.55856e-05
-2.36026e-05
-2.1572e-05
-1.90903e-05
-1.65616e-05
-1.34261e-05
-1.02741e-05
-6.31305e-06
-2.48057e-06
0.00135062
0.00127495
0.00108253
0.000788477
0.000461167
0.000159201
-9.08924e-05
-0.00028201
-0.000414275
-0.00049118
-0.000520987
-0.000517018
-0.000494205
-0.000464704
-0.000435694
-0.000410291
-0.00038913
-0.000371624
-0.000356748
-0.000343501
-0.00033111
-0.000319076
-0.000307142
-0.000295217
-0.000283315
-0.000271498
-0.000259845
-0.000248431
-0.000237323
-0.000226572
-0.000216214
-0.000206274
-0.000196761
-0.00018768
-0.000179024
-0.000170784
-0.000162945
-0.000155493
-0.000148411
-0.000141684
-0.000135294
-0.000129229
-0.000123472
-0.000118012
-0.000112836
-0.000107931
-0.000103287
-9.88935e-05
-9.47396e-05
-9.08149e-05
-8.71098e-05
-8.36149e-05
-8.03204e-05
-7.72181e-05
-7.42978e-05
-7.15523e-05
-6.89713e-05
-6.65483e-05
-6.42731e-05
-6.21395e-05
-6.01385e-05
-5.82642e-05
-5.65069e-05
-5.48641e-05
-5.33227e-05
-5.1884e-05
-5.05316e-05
-4.92695e-05
-4.80804e-05
-4.69695e-05
-4.5918e-05
-4.49347e-05
-4.39948e-05
-4.31132e-05
-4.22572e-05
-4.14505e-05
-4.06502e-05
-3.98891e-05
-3.91145e-05
-3.83678e-05
-3.75838e-05
-3.68174e-05
-3.5982e-05
-3.51574e-05
-3.42257e-05
-3.32927e-05
-3.22145e-05
-3.11221e-05
-2.9827e-05
-2.85131e-05
-2.69277e-05
-2.53138e-05
-2.33438e-05
-2.13411e-05
-1.88742e-05
-1.63746e-05
-1.32604e-05
-1.01359e-05
-6.24266e-06
-2.45941e-06
0.00116199
0.00109581
0.000952683
0.000730382
0.0004652
0.00020496
-1.86831e-05
-0.000193975
-0.000320049
-0.000400395
-0.000441201
-0.000451542
-0.000442353
-0.000423661
-0.000402475
-0.000382557
-0.000365259
-0.00035054
-0.000337752
-0.000326141
-0.000315092
-0.000304212
-0.00029331
-0.000282337
-0.000271327
-0.000260353
-0.000249494
-0.000238823
-0.000228403
-0.000218285
-0.000208505
-0.00019909
-0.000190056
-0.00018141
-0.000173151
-0.000165275
-0.00015777
-0.000150626
-0.000143829
-0.000137366
-0.000131222
-0.000125384
-0.00011984
-0.000114578
-0.000109587
-0.000104855
-0.000100372
-9.61289e-05
-9.21155e-05
-8.83221e-05
-8.47395e-05
-8.13589e-05
-7.81712e-05
-7.51687e-05
-7.23416e-05
-6.96835e-05
-6.7184e-05
-6.48377e-05
-6.26342e-05
-6.05679e-05
-5.863e-05
-5.6815e-05
-5.51135e-05
-5.35235e-05
-5.20314e-05
-5.064e-05
-4.93315e-05
-4.81119e-05
-4.69621e-05
-4.58896e-05
-4.48736e-05
-4.39256e-05
-4.30178e-05
-4.2169e-05
-4.13424e-05
-4.05667e-05
-3.97935e-05
-3.90621e-05
-3.83132e-05
-3.75954e-05
-3.68358e-05
-3.60986e-05
-3.52865e-05
-3.44921e-05
-3.35834e-05
-3.26812e-05
-3.16271e-05
-3.0567e-05
-2.92969e-05
-2.80178e-05
-2.64597e-05
-2.48824e-05
-2.2945e-05
-2.09802e-05
-1.85549e-05
-1.60937e-05
-1.30397e-05
-9.95691e-06
-6.18532e-06
-2.47437e-06
0.000997888
0.000938319
0.000826365
0.000657837
0.000450199
0.000234862
4.00006e-05
-0.00011906
-0.000238071
-0.000318863
-0.000366264
-0.000386965
-0.000388872
-0.000379818
-0.000366065
-0.000351566
-0.000338176
-0.000326327
-0.000315725
-0.000305847
-0.000296233
-0.000286587
-0.000276783
-0.000266815
-0.000256742
-0.000246653
-0.000236631
-0.000226753
-0.000217078
-0.000207656
-0.000198523
-0.000189708
-0.000181229
-0.000173095
-0.000165311
-0.000157875
-0.00015078
-0.000144017
-0.000137576
-0.000131446
-0.000125614
-0.000120069
-0.000114801
-0.000109798
-0.000105049
-0.000100546
-9.6278e-05
-9.22362e-05
-8.84121e-05
-8.47963e-05
-8.13803e-05
-7.8156e-05
-7.51143e-05
-7.2249e-05
-6.955e-05
-6.70122e-05
-6.46249e-05
-6.23841e-05
-6.0279e-05
-5.83054e-05
-5.64537e-05
-5.47201e-05
-5.30942e-05
-5.15761e-05
-5.01504e-05
-4.8823e-05
-4.75731e-05
-4.64103e-05
-4.53125e-05
-4.42909e-05
-4.33213e-05
-4.24196e-05
-4.15536e-05
-4.07477e-05
-3.99588e-05
-3.92234e-05
-3.84853e-05
-3.7792e-05
-3.70766e-05
-3.63959e-05
-3.5669e-05
-3.49692e-05
-3.41895e-05
-3.34332e-05
-3.25587e-05
-3.16957e-05
-3.06792e-05
-2.96604e-05
-2.84326e-05
-2.7198e-05
-2.56895e-05
-2.41595e-05
-2.22842e-05
-2.03689e-05
-1.80235e-05
-1.56173e-05
-1.26733e-05
-9.66018e-06
-6.06332e-06
-2.46398e-06
0.000852388
0.000799208
0.000709655
0.000580986
0.000421115
0.000248617
8.43174e-05
-5.65264e-05
-0.000166824
-0.000245887
-0.000296801
-0.000324572
-0.00033507
-0.000334264
-0.000327362
-0.000318091
-0.000308555
-0.000299571
-0.000291176
-0.000283084
-0.000274981
-0.000266659
-0.000258044
-0.000249164
-0.000240102
-0.000230959
-0.00022183
-0.000212793
-0.000203911
-0.000195234
-0.000186797
-0.00017863
-0.000170754
-0.00016318
-0.000155916
-0.000148964
-0.000142321
-0.000135981
-0.000129936
-0.000124178
-0.000118696
-0.000113482
-0.000108525
-0.000103816
-9.93458e-05
-9.51053e-05
-9.10856e-05
-8.72784e-05
-8.36751e-05
-8.02684e-05
-7.70489e-05
-7.40104e-05
-7.1143e-05
-6.84423e-05
-6.58974e-05
-6.35052e-05
-6.12537e-05
-5.91416e-05
-5.71564e-05
-5.52963e-05
-5.35496e-05
-5.19164e-05
-5.0383e-05
-4.89533e-05
-4.76086e-05
-4.63595e-05
-4.51809e-05
-4.40877e-05
-4.30527e-05
-4.20931e-05
-4.11792e-05
-4.0333e-05
-3.95169e-05
-3.8762e-05
-3.80181e-05
-3.73296e-05
-3.66337e-05
-3.59846e-05
-3.53095e-05
-3.46711e-05
-3.39848e-05
-3.33275e-05
-3.25896e-05
-3.18762e-05
-3.10483e-05
-3.02299e-05
-2.92657e-05
-2.82945e-05
-2.71297e-05
-2.59472e-05
-2.45133e-05
-2.30416e-05
-2.1261e-05
-1.94113e-05
-1.71862e-05
-1.48612e-05
-1.20766e-05
-9.17417e-06
-5.79608e-06
-2.33973e-06
0.000722929
0.000676398
0.000604417
0.000505315
0.000383023
0.000247896
0.000113702
-7.03913e-06
-0.000106366
-0.000181468
-0.000233425
-0.000265598
-0.000282335
-0.000288164
-0.000287221
-0.000282756
-0.000276879
-0.000270656
-0.000264416
-0.0002581
-0.000251539
-0.000244604
-0.000237259
-0.000229553
-0.000221581
-0.000213457
-0.000205283
-0.000197146
-0.000189111
-0.000181229
-0.000173539
-0.000166072
-0.000158847
-0.000151882
-0.000145185
-0.000138762
-0.000132614
-0.000126738
-0.000121128
-0.000115779
-0.000110683
-0.000105834
-0.00010122
-9.68372e-05
-9.26738e-05
-8.87246e-05
-8.49795e-05
-8.14326e-05
-7.80745e-05
-7.49001e-05
-7.18989e-05
-6.90674e-05
-6.63938e-05
-6.38771e-05
-6.15038e-05
-5.92747e-05
-5.71746e-05
-5.52065e-05
-5.3355e-05
-5.16222e-05
-4.99928e-05
-4.84721e-05
-4.70419e-05
-4.5711e-05
-4.44567e-05
-4.32947e-05
-4.21955e-05
-4.11793e-05
-4.0214e-05
-3.93226e-05
-3.84707e-05
-3.76845e-05
-3.69238e-05
-3.62233e-05
-3.55299e-05
-3.48904e-05
-3.42423e-05
-3.36389e-05
-3.30103e-05
-3.24149e-05
-3.1776e-05
-3.11625e-05
-3.04747e-05
-2.98048e-05
-2.90347e-05
-2.82636e-05
-2.73645e-05
-2.6446e-05
-2.53613e-05
-2.42389e-05
-2.29008e-05
-2.15016e-05
-1.98428e-05
-1.80804e-05
-1.60083e-05
-1.38018e-05
-1.12188e-05
-8.47541e-06
-5.35077e-06
-2.07866e-06
0.000613273
0.000573045
0.00051446
0.000436538
0.000341635
0.000235736
0.000127679
2.66618e-05
-6.02107e-05
-0.000129212
-0.00017985
-0.000213934
-0.0002345
-0.000244965
-0.000248571
-0.000248025
-0.000245273
-0.000241473
-0.000237154
-0.000232449
-0.000227319
-0.000221706
-0.000215602
-0.000209063
-0.000202188
-0.000195091
-0.00018788
-0.000180648
-0.000173466
-0.000166389
-0.000159458
-0.000152704
-0.000146149
-0.000139813
-0.000133705
-0.000127834
-0.000122204
-0.000116814
-0.000111662
-0.000106746
-0.000102057
-9.75923e-05
-9.33424e-05
-8.93032e-05
-8.54648e-05
-8.18235e-05
-7.83689e-05
-7.5097e-05
-7.19979e-05
-6.90689e-05
-6.62983e-05
-6.3685e-05
-6.12161e-05
-5.88931e-05
-5.67009e-05
-5.4643e-05
-5.27026e-05
-5.08854e-05
-4.91747e-05
-4.75749e-05
-4.60685e-05
-4.46649e-05
-4.3343e-05
-4.21141e-05
-4.09545e-05
-3.98817e-05
-3.88657e-05
-3.79275e-05
-3.70351e-05
-3.62121e-05
-3.54248e-05
-3.46982e-05
-3.39953e-05
-3.33476e-05
-3.27071e-05
-3.2115e-05
-3.15167e-05
-3.09571e-05
-3.03773e-05
-2.98233e-05
-2.92341e-05
-2.86631e-05
-2.80291e-05
-2.7402e-05
-2.66942e-05
-2.59726e-05
-2.5143e-05
-2.4282e-05
-2.3285e-05
-2.22308e-05
-2.09972e-05
-1.96853e-05
-1.81599e-05
-1.65078e-05
-1.46031e-05
-1.25477e-05
-1.0186e-05
-7.64347e-06
-4.79196e-06
-1.75331e-06
0.000517497
0.000483152
0.000435371
0.000373606
0.000299411
0.000216472
0.000130454
4.77238e-05
-2.61392e-05
-8.74666e-05
-0.000134863
-0.00016889
-0.000191401
-0.000204841
-0.000211702
-0.000214177
-0.000213969
-0.000212218
-0.000209563
-0.000206278
-0.000202436
-0.000198043
-0.000193114
-0.000187705
-0.000181908
-0.000175831
-0.000169584
-0.000163261
-0.000156939
-0.000150677
-0.000144517
-0.000138494
-0.000132631
-0.000126947
-0.000121454
-0.000116164
-0.000111079
-0.000106205
-0.000101539
-9.70811e-05
-9.28259e-05
-8.87716e-05
-8.49098e-05
-8.12381e-05
-7.7747e-05
-7.44348e-05
-7.12909e-05
-6.8313e-05
-6.54912e-05
-6.28244e-05
-6.03008e-05
-5.79205e-05
-5.56709e-05
-5.35545e-05
-5.15565e-05
-4.96811e-05
-4.79121e-05
-4.62555e-05
-4.46957e-05
-4.3237e-05
-4.18629e-05
-4.05829e-05
-3.93774e-05
-3.82561e-05
-3.71984e-05
-3.62188e-05
-3.52923e-05
-3.44352e-05
-3.36211e-05
-3.28689e-05
-3.21509e-05
-3.14854e-05
-3.08449e-05
-3.02507e-05
-2.96668e-05
-2.91227e-05
-2.85779e-05
-2.80621e-05
-2.75346e-05
-2.70229e-05
-2.64866e-05
-2.59589e-05
-2.53822e-05
-2.47998e-05
-2.41582e-05
-2.34895e-05
-2.27334e-05
-2.19362e-05
-2.10321e-05
-2.00542e-05
-1.89319e-05
-1.77206e-05
-1.6337e-05
-1.48135e-05
-1.30863e-05
-1.12054e-05
-9.07941e-06
-6.76666e-06
-4.21257e-06
-1.48567e-06
0.0004288
0.000400159
0.000361761
0.000313313
0.000255879
0.000191819
0.000124732
5.88432e-05
-1.82519e-06
-5.42005e-05
-9.65985e-05
-0.000128756
-0.000151541
-0.000166511
-0.000175465
-0.000180113
-0.000181879
-0.000181807
-0.000180569
-0.000178527
-0.000175842
-0.000172574
-0.000168761
-0.000164454
-0.000159733
-0.000154694
-0.00014944
-0.000144063
-0.000138642
-0.000133239
-0.0001279
-0.00012266
-0.000117543
-0.000112569
-0.000107749
-0.000103097
-9.86162e-05
-9.43135e-05
-9.01883e-05
-8.62426e-05
-8.24725e-05
-7.88775e-05
-7.54511e-05
-7.21914e-05
-6.90908e-05
-6.6148e-05
-6.33536e-05
-6.07061e-05
-5.81967e-05
-5.58245e-05
-5.35794e-05
-5.1461e-05
-4.94588e-05
-4.75747e-05
-4.5796e-05
-4.41257e-05
-4.25503e-05
-4.10741e-05
-3.96852e-05
-3.83848e-05
-3.71606e-05
-3.60194e-05
-3.49455e-05
-3.39446e-05
-3.30025e-05
-3.21275e-05
-3.13022e-05
-3.05359e-05
-2.98103e-05
-2.91376e-05
-2.84979e-05
-2.79008e-05
-2.73307e-05
-2.67969e-05
-2.62764e-05
-2.57867e-05
-2.53018e-05
-2.48362e-05
-2.43664e-05
-2.39037e-05
-2.34261e-05
-2.29491e-05
-2.24352e-05
-2.19062e-05
-2.1337e-05
-2.07325e-05
-2.00566e-05
-1.9336e-05
-1.85338e-05
-1.76492e-05
-1.66487e-05
-1.55593e-05
-1.4331e-05
-1.29629e-05
-1.14315e-05
-9.75538e-06
-7.88556e-06
-5.84235e-06
-3.61779e-06
-1.24893e-06
0.000345853
0.000322719
0.000292607
0.000255377
0.000211763
0.000163308
0.000112266
6.1364e-05
1.33501e-05
-2.94555e-05
-6.54965e-05
-9.4127e-05
-0.000115546
-0.000130587
-0.000140426
-0.000146313
-0.000149377
-0.00015052
-0.000150378
-0.000149346
-0.000147637
-0.000145354
-0.00014255
-0.000139274
-0.000135589
-0.000131577
-0.000127324
-0.000122917
-0.000118431
-0.000113929
-0.000109458
-0.000105052
-0.000100736
-9.65284e-05
-9.24424e-05
-8.84885e-05
-8.46731e-05
-8.10024e-05
-7.74776e-05
-7.41019e-05
-7.08728e-05
-6.7791e-05
-6.48517e-05
-6.20535e-05
-5.93908e-05
-5.68624e-05
-5.44606e-05
-5.21842e-05
-5.0026e-05
-4.79849e-05
-4.60534e-05
-4.42296e-05
-4.25063e-05
-4.08837e-05
-3.9352e-05
-3.79129e-05
-3.65561e-05
-3.52834e-05
-3.40873e-05
-3.29655e-05
-3.19106e-05
-3.09262e-05
-3.00008e-05
-2.91364e-05
-2.83247e-05
-2.75683e-05
-2.68573e-05
-2.61944e-05
-2.55685e-05
-2.49865e-05
-2.44348e-05
-2.39165e-05
-2.34254e-05
-2.29617e-05
-2.25123e-05
-2.20861e-05
-2.16675e-05
-2.12619e-05
-2.08565e-05
-2.04517e-05
-2.00391e-05
-1.96237e-05
-1.91793e-05
-1.8715e-05
-1.82253e-05
-1.76986e-05
-1.71119e-05
-1.64837e-05
-1.57934e-05
-1.50217e-05
-1.41564e-05
-1.32119e-05
-1.2155e-05
-1.09702e-05
-9.65437e-06
-8.21452e-06
-6.62321e-06
-4.88558e-06
-3.01434e-06
-1.03027e-06
0.000267278
0.000249446
0.000226765
0.000199179
0.000167188
0.00013178
9.43515e-05
5.66172e-05
2.03732e-05
-1.27569e-05
-4.154e-05
-6.52728e-05
-8.38093e-05
-9.74878e-05
-0.000106982
-0.000113126
-0.000116748
-0.000118569
-0.00011914
-0.000118837
-0.000117888
-0.000116414
-0.000114479
-0.000112128
-0.000109408
-0.000106381
-0.000103117
-9.96888e-05
-9.61632e-05
-9.25983e-05
-8.90382e-05
-8.55166e-05
-8.20561e-05
-7.86742e-05
-7.53822e-05
-7.21898e-05
-6.91032e-05
-6.61282e-05
-6.32668e-05
-6.05227e-05
-5.78951e-05
-5.53848e-05
-5.29891e-05
-5.07065e-05
-4.85337e-05
-4.64692e-05
-4.45074e-05
-4.26471e-05
-4.08833e-05
-3.9214e-05
-3.76347e-05
-3.61423e-05
-3.47325e-05
-3.34043e-05
-3.21506e-05
-3.09721e-05
-2.98615e-05
-2.88185e-05
-2.78393e-05
-2.69195e-05
-2.60555e-05
-2.52484e-05
-2.44902e-05
-2.37809e-05
-2.31158e-05
-2.24945e-05
-2.19121e-05
-2.13672e-05
-2.08538e-05
-2.03756e-05
-1.99229e-05
-1.94957e-05
-1.90931e-05
-1.87104e-05
-1.83415e-05
-1.799e-05
-1.76451e-05
-1.73098e-05
-1.69776e-05
-1.66415e-05
-1.63014e-05
-1.59594e-05
-1.5593e-05
-1.52063e-05
-1.48052e-05
-1.43709e-05
-1.38854e-05
-1.33659e-05
-1.28006e-05
-1.21629e-05
-1.14499e-05
-1.06733e-05
-9.80754e-06
-8.83404e-06
-7.75865e-06
-6.58571e-06
-5.29738e-06
-3.89572e-06
-2.39837e-06
-8.17934e-07
0.000191461
0.00017875
0.000162859
0.000143773
0.000121813
9.75833e-05
7.19174e-05
4.58467e-05
2.04805e-05
-3.13192e-06
-2.41292e-05
-4.19347e-05
-5.63016e-05
-6.73013e-05
-7.52626e-05
-8.06762e-05
-8.40892e-05
-8.60169e-05
-8.6884e-05
-8.70023e-05
-8.65744e-05
-8.57176e-05
-8.44943e-05
-8.29422e-05
-8.1095e-05
-7.89943e-05
-7.66901e-05
-7.42374e-05
-7.16891e-05
-6.90931e-05
-6.64869e-05
-6.38993e-05
-6.13495e-05
-5.88518e-05
-5.64159e-05
-5.40491e-05
-5.17568e-05
-4.95439e-05
-4.74122e-05
-4.53654e-05
-4.34035e-05
-4.15274e-05
-3.97358e-05
-3.80274e-05
-3.64008e-05
-3.48543e-05
-3.3384e-05
-3.19894e-05
-3.06669e-05
-2.94144e-05
-2.82297e-05
-2.71092e-05
-2.60511e-05
-2.50539e-05
-2.41122e-05
-2.3227e-05
-2.23927e-05
-2.16088e-05
-2.08733e-05
-2.01813e-05
-1.95322e-05
-1.89254e-05
-1.8355e-05
-1.78213e-05
-1.73213e-05
-1.68532e-05
-1.64156e-05
-1.60049e-05
-1.56181e-05
-1.52582e-05
-1.4917e-05
-1.45945e-05
-1.42919e-05
-1.4002e-05
-1.37238e-05
-1.34591e-05
-1.31979e-05
-1.29436e-05
-1.26943e-05
-1.24388e-05
-1.21805e-05
-1.19234e-05
-1.16466e-05
-1.13512e-05
-1.10492e-05
-1.07218e-05
-1.03531e-05
-9.95969e-06
-9.53447e-06
-9.05168e-06
-8.51224e-06
-7.92741e-06
-7.27658e-06
-6.54298e-06
-5.73562e-06
-4.85973e-06
-3.90221e-06
-2.86365e-06
-1.75971e-06
-6.00113e-07
0.000116389
0.000108702
9.92032e-05
8.78934e-05
7.49518e-05
6.07063e-05
4.56021e-05
3.01846e-05
1.50557e-05
8.0199e-07
-1.2072e-05
-2.3198e-05
-3.23765e-05
-3.95831e-05
-4.49479e-05
-4.87139e-05
-5.11826e-05
-5.26596e-05
-5.34132e-05
-5.36513e-05
-5.35163e-05
-5.30947e-05
-5.24332e-05
-5.15583e-05
-5.04904e-05
-4.92533e-05
-4.78765e-05
-4.63943e-05
-4.48407e-05
-4.32478e-05
-4.16411e-05
-4.00409e-05
-3.84606e-05
-3.69097e-05
-3.5395e-05
-3.39212e-05
-3.24919e-05
-3.11103e-05
-2.9778e-05
-2.84976e-05
-2.72692e-05
-2.60936e-05
-2.49705e-05
-2.38987e-05
-2.28781e-05
-2.19074e-05
-2.09839e-05
-2.0108e-05
-1.92771e-05
-1.84899e-05
-1.77454e-05
-1.70407e-05
-1.63755e-05
-1.57484e-05
-1.51558e-05
-1.45989e-05
-1.4074e-05
-1.35807e-05
-1.3118e-05
-1.2682e-05
-1.22735e-05
-1.18916e-05
-1.15322e-05
-1.11963e-05
-1.08814e-05
-1.05861e-05
-1.03108e-05
-1.00519e-05
-9.80774e-06
-9.58139e-06
-9.3659e-06
-9.16208e-06
-8.97202e-06
-8.78835e-06
-8.6125e-06
-8.44621e-06
-8.28054e-06
-8.11892e-06
-7.96261e-06
-7.80096e-06
-7.6362e-06
-7.47438e-06
-7.29974e-06
-7.11127e-06
-6.92079e-06
-6.71454e-06
-6.48009e-06
-6.23083e-06
-5.96316e-06
-5.65768e-06
-5.31577e-06
-4.94694e-06
-4.53695e-06
-4.07409e-06
-3.56615e-06
-3.01767e-06
-2.41994e-06
-1.7732e-06
-1.08669e-06
-3.6302e-07
3.93796e-05
3.6786e-05
3.35992e-05
2.98243e-05
2.552e-05
2.07905e-05
1.57757e-05
1.06443e-05
5.58546e-06
7.88147e-07
-3.58076e-06
-7.3944e-06
-1.05774e-05
-1.311e-05
-1.50235e-05
-1.63893e-05
-1.73022e-05
-1.78631e-05
-1.81637e-05
-1.82779e-05
-1.82576e-05
-1.81351e-05
-1.79281e-05
-1.76463e-05
-1.72969e-05
-1.68873e-05
-1.64273e-05
-1.59285e-05
-1.5403e-05
-1.4862e-05
-1.43149e-05
-1.37689e-05
-1.32289e-05
-1.26983e-05
-1.21798e-05
-1.16749e-05
-1.11848e-05
-1.07108e-05
-1.02533e-05
-9.81343e-06
-9.39117e-06
-8.98698e-06
-8.60076e-06
-8.23191e-06
-7.88075e-06
-7.54654e-06
-7.22864e-06
-6.92702e-06
-6.64101e-06
-6.36974e-06
-6.11334e-06
-5.87052e-06
-5.64126e-06
-5.42538e-06
-5.22098e-06
-5.02921e-06
-4.84824e-06
-4.67814e-06
-4.5188e-06
-4.36834e-06
-4.22765e-06
-4.09603e-06
-3.97199e-06
-3.85615e-06
-3.74765e-06
-3.64572e-06
-3.55088e-06
-3.4616e-06
-3.37723e-06
-3.29922e-06
-3.22491e-06
-3.15447e-06
-3.08903e-06
-3.02552e-06
-2.96455e-06
-2.90751e-06
-2.85036e-06
-2.794e-06
-2.74033e-06
-2.68452e-06
-2.62719e-06
-2.57157e-06
-2.51135e-06
-2.44577e-06
-2.37992e-06
-2.3088e-06
-2.22773e-06
-2.14142e-06
-2.04891e-06
-1.9434e-06
-1.82507e-06
-1.69774e-06
-1.55654e-06
-1.39646e-06
-1.22124e-06
-1.0331e-06
-8.27959e-07
-6.05865e-07
-3.70891e-07
-1.24437e-07
6.86324e-05
5.83624e-05
6.47177e-05
7.20751e-05
8.77926e-05
9.95944e-05
0.000119399
0.000135936
0.000162076
0.000185294
0.000219001
0.00025001
0.000293789
0.000335225
0.000392032
0.000447197
0.000521606
0.00059632
0.000697061
0.000803553
0.000950259
0.00111812
0.00135836
0.00165113
0.00204525
6.78845e-05
5.84075e-05
6.45956e-05
7.20236e-05
8.73537e-05
9.93339e-05
0.000118676
0.000135365
0.000160916
0.000184398
0.00021739
0.000249124
0.000291509
0.000334091
0.000388621
0.000445562
0.000516382
0.000593705
0.000688819
0.000798693
0.000935276
0.00110346
0.001312
0.00156213
0.00179208
6.66075e-05
5.86739e-05
6.4199e-05
7.19442e-05
8.62954e-05
9.89752e-05
0.000117212
0.00013481
0.000158833
0.000183364
0.000214663
0.000247654
0.000287925
0.000331813
0.00038369
0.000441891
0.000509325
0.000587488
0.000677749
0.000786484
0.000913043
0.00106839
0.00123978
0.00142286
0.0015517
6.49908e-05
5.88787e-05
6.36363e-05
7.15755e-05
8.48532e-05
9.81255e-05
0.000115366
0.00013359
0.000156343
0.000181461
0.000211367
0.000244894
0.000283576
0.000327667
0.000377673
0.000435416
0.000500498
0.000576741
0.000663119
0.000765609
0.000881314
0.00101397
0.00114963
0.00127465
0.00134892
6.2924e-05
5.89097e-05
6.29118e-05
7.08358e-05
8.30435e-05
9.66413e-05
0.000113069
0.000131548
0.000153349
0.00017846
0.000207329
0.000240569
0.000278106
0.00032137
0.000369911
0.000425892
0.00048871
0.000561239
0.000642789
0.000735914
0.00083782
0.000945807
0.001049
0.00113252
0.00117525
6.03684e-05
5.84121e-05
6.1988e-05
6.96432e-05
8.08673e-05
9.4385e-05
0.000110192
0.000128523
0.000149608
0.000174198
0.000202186
0.000234531
0.000270968
0.000312745
0.000359625
0.000413048
0.000472877
0.000540447
0.000615293
0.000697213
0.000783245
0.000868563
0.000944548
0.000999402
0.00102015
5.74299e-05
5.72016e-05
6.07025e-05
6.78892e-05
7.82476e-05
9.12811e-05
0.00010654
0.000124374
0.000144792
0.000168509
0.000195532
0.000226574
0.00026164
0.000301458
0.000346133
0.000396326
0.000452094
0.000513585
0.000580042
0.000649894
0.000720019
0.000785533
0.00083962
0.000873919
0.000879402
5.41779e-05
5.51143e-05
5.87402e-05
6.5437e-05
7.50119e-05
8.72887e-05
0.000101884
0.000118956
0.000138563
0.000161162
0.000186954
0.000216369
0.000249606
0.000287013
0.000328771
0.000375027
0.000425651
0.000480105
0.000537241
0.000595026
0.00065042
0.000699184
0.000736094
0.000755478
0.000751268
5.07221e-05
5.22516e-05
5.60027e-05
6.22777e-05
7.1133e-05
8.25389e-05
9.62897e-05
0.000112408
0.000130984
0.000152286
0.000176569
0.000204104
0.000235104
0.000269714
0.000307994
0.000349792
0.000394704
0.000441878
0.000489956
0.000536891
0.000579943
0.000615659
0.000640236
0.000649799
0.000640505
4.69383e-05
4.86993e-05
5.24606e-05
5.83532e-05
6.6507e-05
7.69757e-05
8.97045e-05
0.000104682
0.00012199
0.000141788
0.000164287
0.000189664
0.000218059
0.00024949
0.000283854
0.000320815
0.000359777
0.000399762
0.000439383
0.000476764
0.000509587
0.000535188
0.000550933
0.000554184
0.00054252
4.24918e-05
4.42677e-05
4.78778e-05
5.33336e-05
6.07318e-05
7.01554e-05
8.16455e-05
9.52166e-05
0.000110932
0.000128887
0.000149213
0.000172008
0.000197313
0.000225044
0.00025497
0.000286647
0.000319392
0.000352222
0.000383848
0.000412668
0.000436848
0.000454516
0.000463864
0.000463149
0.000450868
3.72134e-05
3.88646e-05
4.21575e-05
4.70478e-05
5.35786e-05
6.18227e-05
7.18561e-05
8.37279e-05
9.74924e-05
0.000113205
0.000130923
0.000150668
0.000172395
0.000195944
0.000221015
0.000247125
0.000273596
0.000299527
0.000323814
0.000345185
0.000362322
0.000373973
0.000378917
0.000376039
0.000364445
3.09489e-05
3.23746e-05
3.51928e-05
3.93444e-05
4.48356e-05
5.17149e-05
6.00528e-05
6.99109e-05
8.13387e-05
9.43659e-05
0.000109
0.000125205
0.000142881
0.000161829
0.000181736
0.000202144
0.000222448
0.000241893
0.000259607
0.000274683
0.000286271
0.000293532
0.000295677
0.000292023
0.000282065
2.35712e-05
2.46843e-05
2.68767e-05
3.00939e-05
3.43261e-05
3.95988e-05
4.59613e-05
5.34648e-05
6.21484e-05
7.20265e-05
8.30821e-05
9.52543e-05
0.000108427
0.000122409
0.000136924
0.000151591
0.000165931
0.000179369
0.000191312
0.000201207
0.000208514
0.000212705
0.000213297
0.000209899
0.000202246
1.49947e-05
1.57131e-05
1.71297e-05
1.92061e-05
2.19293e-05
2.53097e-05
2.93736e-05
3.41514e-05
3.96665e-05
4.59245e-05
5.29052e-05
6.05557e-05
6.87844e-05
7.74514e-05
8.63624e-05
9.52621e-05
0.000103836
0.000111731
0.000118632
0.000124232
0.000128228
0.000130329
0.000130282
0.000127886
0.000123019
5.20014e-06
5.44833e-06
5.94422e-06
6.67276e-06
7.62749e-06
8.81004e-06
1.02278e-05
1.189e-05
1.3804e-05
1.59707e-05
1.83816e-05
2.10159e-05
2.38381e-05
2.67958e-05
2.98182e-05
3.28149e-05
3.56789e-05
3.82968e-05
4.05645e-05
4.23813e-05
4.36491e-05
4.42757e-05
4.41819e-05
4.33097e-05
4.16286e-05
)
;

boundaryField
{
    top
    {
        type            fixedValue;
        value           uniform 0;
    }
    inlet
    {
        type            zeroGradient;
    }
    outlet
    {
        type            fixedValue;
        value           uniform 0;
    }
    plate
    {
        type            zeroGradient;
    }
    symmBound
    {
        type            zeroGradient;
    }
    frontAndBack
    {
        type            empty;
    }
}


// ************************************************************************* //
