/*--------------------------------*- C++ -*----------------------------------*\
| =========                 |                                                 |
| \\      /  F ield         | OpenFOAM: The Open Source CFD Toolbox           |
|  \\    /   O peration     | Version:  2.3.0                                 |
|   \\  /    A nd           | Web:      www.OpenFOAM.org                      |
|    \\/     M anipulation  |                                                 |
\*---------------------------------------------------------------------------*/
FoamFile
{
    version     2.0;
    format      ascii;
    class       surfaceScalarField;
    location    "0.7";
    object      phi_0;
}
// * * * * * * * * * * * * * * * * * * * * * * * * * * * * * * * * * * * * * //

dimensions      [0 3 -1 0 0 0 0];

internalField   nonuniform List<scalar> 
3859
(
2.88216e-08
2.77031e-09
-3.1592e-08
2.53568e-08
3.46488e-09
2.19151e-08
3.44164e-09
1.87277e-08
3.1874e-09
1.58269e-08
2.90087e-09
1.32906e-08
2.53626e-09
1.12129e-08
2.07768e-09
9.60793e-09
1.60499e-09
8.4378e-09
1.17013e-09
7.61667e-09
8.21132e-10
7.04644e-09
5.70225e-10
6.64285e-09
4.03593e-10
6.34364e-09
2.9921e-10
6.10624e-09
2.37392e-10
5.90243e-09
2.03811e-10
5.71594e-09
1.86492e-10
5.53928e-09
1.76659e-10
5.37014e-09
1.69143e-10
5.20857e-09
1.61568e-10
5.05535e-09
1.53227e-10
4.91114e-09
1.44211e-10
4.77624e-09
1.34896e-10
4.65056e-09
1.25677e-10
4.5337e-09
1.16866e-10
4.42503e-09
1.08663e-10
4.32386e-09
1.01167e-10
4.22946e-09
9.44025e-11
4.14112e-09
8.83452e-11
4.05818e-09
8.29396e-11
3.98006e-09
7.81139e-11
3.90627e-09
7.37936e-11
3.83636e-09
6.99072e-11
3.76997e-09
6.63922e-11
3.70678e-09
6.31933e-11
3.64651e-09
6.02654e-11
3.58894e-09
5.75698e-11
3.53387e-09
5.50769e-11
3.48111e-09
5.27601e-11
3.4305e-09
5.06015e-11
3.38192e-09
4.85826e-11
3.33523e-09
4.6693e-11
3.29031e-09
4.49186e-11
3.24706e-09
4.32532e-11
3.20537e-09
4.16857e-11
3.16516e-09
4.02124e-11
3.12634e-09
3.88227e-11
3.08882e-09
3.75156e-11
3.05254e-09
3.62795e-11
3.01742e-09
3.51157e-11
2.98341e-09
3.40113e-11
2.95044e-09
3.29706e-11
2.91846e-09
3.19796e-11
2.88742e-09
3.10439e-11
2.85727e-09
3.01496e-11
2.82797e-09
2.93028e-11
2.79948e-09
2.84905e-11
2.77176e-09
2.77188e-11
2.74478e-09
2.6976e-11
2.71851e-09
2.62673e-11
2.69293e-09
2.55835e-11
2.668e-09
2.49291e-11
2.64371e-09
2.42943e-11
2.62002e-09
2.36863e-11
2.59693e-09
2.30948e-11
2.5744e-09
2.25244e-11
2.55243e-09
2.19711e-11
2.531e-09
2.1431e-11
2.51009e-09
2.09119e-11
2.48969e-09
2.03979e-11
2.46978e-09
1.99083e-11
2.45036e-09
1.94169e-11
2.43141e-09
1.89545e-11
2.41293e-09
1.84799e-11
2.39489e-09
1.80437e-11
2.3773e-09
1.75817e-11
2.36013e-09
1.71728e-11
2.34341e-09
1.67181e-11
2.32708e-09
1.63382e-11
2.31119e-09
1.5888e-11
2.29565e-09
1.55387e-11
2.28056e-09
1.509e-11
2.26579e-09
1.47738e-11
2.25146e-09
1.43234e-11
2.23741e-09
1.40515e-11
2.22382e-09
1.3588e-11
2.21045e-09
1.33714e-11
2.19755e-09
1.28989e-11
2.18481e-09
1.2742e-11
2.17256e-09
1.22521e-11
2.16038e-09
1.21824e-11
2.14871e-09
1.16662e-11
2.13701e-09
1.17039e-11
2.12585e-09
1.11547e-11
2.11451e-09
1.13387e-11
2.10377e-09
1.07457e-11
2.09265e-09
1.11194e-11
2.08219e-09
1.04569e-11
2.07107e-09
1.11157e-11
2.06074e-09
1.0332e-11
1.25069e-11
3.62377e-08
2.47164e-09
-3.5939e-08
3.60724e-08
3.63022e-09
3.53687e-08
4.14535e-09
3.4382e-08
4.17408e-09
3.32254e-08
4.05748e-09
3.19189e-08
3.84273e-09
3.04862e-08
3.51041e-09
2.9004e-08
3.08717e-09
2.75477e-08
2.62638e-09
2.61719e-08
2.19694e-09
2.49004e-08
1.84175e-09
2.37351e-08
1.56891e-09
2.26731e-08
1.36121e-09
2.17129e-08
1.19757e-09
2.0845e-08
1.07169e-09
2.0059e-08
9.72552e-10
1.93446e-08
8.91002e-10
1.86929e-08
8.20845e-10
1.8096e-08
7.58452e-10
1.75474e-08
7.01899e-10
1.70414e-08
6.50223e-10
1.65733e-08
6.02948e-10
1.61392e-08
5.59814e-10
1.57354e-08
5.2062e-10
1.53589e-08
4.85158e-10
1.50069e-08
4.53167e-10
1.4677e-08
4.24369e-10
1.43668e-08
3.98465e-10
1.40746e-08
3.75147e-10
1.37986e-08
3.54109e-10
1.35374e-08
3.35068e-10
1.32895e-08
3.17763e-10
1.30539e-08
3.01971e-10
1.28296e-08
2.87492e-10
1.26157e-08
2.74164e-10
1.24115e-08
2.61845e-10
1.22161e-08
2.50422e-10
1.20291e-08
2.39791e-10
1.18498e-08
2.29881e-10
1.16778e-08
2.20614e-10
1.15125e-08
2.11944e-10
1.13536e-08
2.03808e-10
1.12007e-08
1.96176e-10
1.10534e-08
1.88997e-10
1.09114e-08
1.82252e-10
1.07743e-08
1.75892e-10
1.06419e-08
1.69908e-10
1.05139e-08
1.6425e-10
1.03901e-08
1.58919e-10
1.02703e-08
1.53862e-10
1.01541e-08
1.49092e-10
1.00416e-08
1.4455e-10
9.93236e-09
1.40258e-10
9.82636e-09
1.36156e-10
9.72339e-09
1.32272e-10
9.62333e-09
1.28544e-10
9.52605e-09
1.25007e-10
9.43142e-09
1.21598e-10
9.33934e-09
1.18354e-10
9.2497e-09
1.15216e-10
9.16241e-09
1.12226e-10
9.07739e-09
1.09315e-10
8.99453e-09
1.06543e-10
8.9138e-09
1.0383e-10
8.83508e-09
1.01239e-10
8.75836e-09
9.86962e-11
8.68353e-09
9.62579e-11
8.61058e-09
9.38637e-11
8.53942e-09
9.1557e-11
8.47004e-09
8.92892e-11
8.40236e-09
8.7097e-11
8.33637e-09
8.49394e-11
8.27201e-09
8.28416e-11
8.20927e-09
8.0783e-11
8.14809e-09
7.87641e-11
8.08846e-09
7.67989e-11
8.03034e-09
7.48432e-11
7.97371e-09
7.29682e-11
7.91853e-09
7.10673e-11
7.86479e-09
6.92792e-11
7.81245e-09
6.7427e-11
7.7615e-09
6.57258e-11
7.7119e-09
6.3919e-11
7.66363e-09
6.23233e-11
7.61668e-09
6.05435e-11
7.57097e-09
5.90745e-11
7.52653e-09
5.73407e-11
7.48327e-09
5.60016e-11
7.44121e-09
5.43157e-11
7.40023e-09
5.3161e-11
7.36037e-09
5.15276e-11
7.32148e-09
5.05946e-11
7.28359e-09
4.90403e-11
7.24653e-09
4.84e-11
7.21031e-09
4.69621e-11
7.17475e-09
4.66823e-11
7.1398e-09
4.54138e-11
7.10524e-09
4.56724e-11
7.07085e-09
4.47247e-11
4.74875e-11
4.02782e-08
2.34683e-09
-4.01534e-08
4.07052e-08
3.20325e-09
4.09714e-08
3.87917e-09
4.10465e-08
4.099e-09
4.10065e-08
4.0974e-09
4.08475e-08
4.00172e-09
4.05339e-08
3.82406e-09
4.00655e-08
3.55558e-09
3.94719e-08
3.21995e-09
3.87966e-08
2.87227e-09
3.80764e-08
2.56192e-09
3.73351e-08
2.31025e-09
3.65854e-08
2.11086e-09
3.58337e-08
1.94926e-09
3.50881e-08
1.81733e-09
3.43535e-08
1.70719e-09
3.36327e-08
1.61173e-09
3.29278e-08
1.52582e-09
3.22399e-08
1.4463e-09
3.15703e-08
1.37149e-09
3.09199e-08
1.30059e-09
3.02896e-08
1.23328e-09
2.968e-08
1.16948e-09
2.90914e-08
1.10919e-09
2.85241e-08
1.05245e-09
2.79781e-08
9.99176e-10
2.74531e-08
9.49316e-10
2.69489e-08
9.0274e-10
2.64647e-08
8.59288e-10
2.60001e-08
8.1876e-10
2.55542e-08
7.80958e-10
2.51263e-08
7.45667e-10
2.47155e-08
7.12703e-10
2.43212e-08
6.81867e-10
2.39423e-08
6.53007e-10
2.35782e-08
6.25949e-10
2.32281e-08
6.00576e-10
2.28911e-08
5.76736e-10
2.25667e-08
5.54343e-10
2.2254e-08
5.33262e-10
2.19525e-08
5.13433e-10
2.16616e-08
4.94732e-10
2.13807e-08
4.7712e-10
2.11092e-08
4.60478e-10
2.08466e-08
4.44786e-10
2.05926e-08
4.29928e-10
2.03466e-08
4.15903e-10
2.01083e-08
4.02588e-10
1.98772e-08
3.90006e-10
1.9653e-08
3.78022e-10
1.94354e-08
3.66687e-10
1.92241e-08
3.55853e-10
1.90188e-08
3.45594e-10
1.88192e-08
3.35752e-10
1.8625e-08
3.2642e-10
1.84362e-08
3.17429e-10
1.82523e-08
3.08896e-10
1.80732e-08
3.00638e-10
1.78988e-08
2.92793e-10
1.77288e-08
2.85162e-10
1.75632e-08
2.77915e-10
1.74017e-08
2.70819e-10
1.72441e-08
2.6409e-10
1.70905e-08
2.57455e-10
1.69406e-08
2.51168e-10
1.67943e-08
2.44932e-10
1.66516e-08
2.39021e-10
1.65123e-08
2.33127e-10
1.63763e-08
2.27546e-10
1.62437e-08
2.2194e-10
1.61141e-08
2.16648e-10
1.59878e-08
2.11286e-10
1.58644e-08
2.06242e-10
1.5744e-08
2.01089e-10
1.56265e-08
1.9626e-10
1.55121e-08
1.91292e-10
1.54002e-08
1.8665e-10
1.52914e-08
1.81844e-10
1.51851e-08
1.77374e-10
1.50816e-08
1.72709e-10
1.49807e-08
1.68408e-10
1.48825e-08
1.63867e-10
1.47867e-08
1.59737e-10
1.46937e-08
1.55333e-10
1.46029e-08
1.51363e-10
1.45148e-08
1.4711e-10
1.44288e-08
1.43351e-10
1.43456e-08
1.39234e-10
1.42642e-08
1.35727e-10
1.41855e-08
1.31808e-10
1.41085e-08
1.28602e-10
1.40341e-08
1.24918e-10
1.39611e-08
1.22119e-10
1.38907e-08
1.18752e-10
1.38212e-08
1.16493e-10
1.37543e-08
1.13542e-10
1.36878e-08
1.11972e-10
1.36236e-08
1.09867e-10
1.35591e-08
1.09189e-10
1.10124e-10
4.47472e-08
2.29281e-09
-4.46932e-08
4.50642e-08
2.8863e-09
4.54662e-08
3.47714e-09
4.57788e-08
3.78641e-09
4.60195e-08
3.8567e-09
4.6215e-08
3.80615e-09
4.63438e-08
3.69535e-09
4.63788e-08
3.52055e-09
4.631e-08
3.2887e-09
4.61514e-08
3.03088e-09
4.59286e-08
2.78474e-09
4.56623e-08
2.57652e-09
4.53639e-08
2.40929e-09
4.50377e-08
2.27542e-09
4.46894e-08
2.16573e-09
4.43233e-08
2.07324e-09
4.39425e-08
1.99253e-09
4.35488e-08
1.91957e-09
4.31434e-08
1.85164e-09
4.27278e-08
1.78713e-09
4.23032e-08
1.72515e-09
4.18712e-08
1.66532e-09
4.14332e-08
1.60749e-09
4.09907e-08
1.55166e-09
4.05453e-08
1.49788e-09
4.00983e-08
1.44618e-09
3.9651e-08
1.39659e-09
3.92046e-08
1.34908e-09
3.87603e-08
1.30364e-09
3.83189e-08
1.26017e-09
3.78812e-08
1.2186e-09
3.74481e-08
1.1788e-09
3.70201e-08
1.14071e-09
3.65978e-08
1.1042e-09
3.61816e-08
1.06922e-09
3.57719e-08
1.03565e-09
3.5369e-08
1.00348e-09
3.49731e-08
9.72572e-10
3.45845e-08
9.42953e-10
3.42033e-08
9.14488e-10
3.38295e-08
8.87219e-10
3.34632e-08
8.61003e-10
3.31044e-08
8.35903e-10
3.27532e-08
8.11762e-10
3.24093e-08
7.88666e-10
3.20728e-08
7.66434e-10
3.17435e-08
7.45185e-10
3.14214e-08
7.24702e-10
3.11062e-08
7.05141e-10
3.0798e-08
6.86248e-10
3.04965e-08
6.68223e-10
3.02016e-08
6.50769e-10
2.9913e-08
6.34133e-10
2.96308e-08
6.17971e-10
2.93546e-08
6.0258e-10
2.90845e-08
5.87572e-10
2.88201e-08
5.73294e-10
2.85614e-08
5.59306e-10
2.83082e-08
5.46019e-10
2.80604e-08
5.32929e-10
2.78178e-08
5.20527e-10
2.75804e-08
5.08215e-10
2.73479e-08
4.96602e-10
2.71204e-08
4.8497e-10
2.68975e-08
4.74043e-10
2.66795e-08
4.63003e-10
2.64658e-08
4.52676e-10
2.62568e-08
4.42141e-10
2.6052e-08
4.32349e-10
2.58517e-08
4.22234e-10
2.56554e-08
4.12925e-10
2.54636e-08
4.03153e-10
2.52755e-08
3.94269e-10
2.50918e-08
3.84781e-10
2.49118e-08
3.76278e-10
2.47361e-08
3.6702e-10
2.45639e-08
3.58865e-10
2.43959e-08
3.4979e-10
2.42313e-08
3.41972e-10
2.4071e-08
3.33025e-10
2.39139e-08
3.25554e-10
2.3761e-08
3.16692e-10
2.36112e-08
3.09583e-10
2.34657e-08
3.00802e-10
2.3323e-08
2.94064e-10
2.31848e-08
2.8536e-10
2.3049e-08
2.7909e-10
2.29179e-08
2.70416e-10
2.27889e-08
2.64712e-10
2.26645e-08
2.56136e-10
2.25421e-08
2.5109e-10
2.24243e-08
2.42662e-10
2.2308e-08
2.38458e-10
2.21964e-08
2.30308e-10
2.20858e-08
2.2713e-10
2.19798e-08
2.19489e-10
2.18743e-08
2.17502e-10
2.1773e-08
2.11182e-10
2.16715e-08
2.10649e-10
2.07416e-10
4.96968e-08
2.23088e-09
-4.96348e-08
4.99135e-08
2.6696e-09
5.02691e-08
3.12147e-09
5.0611e-08
3.44452e-09
5.08934e-08
3.57432e-09
5.11328e-08
3.56678e-09
5.13413e-08
3.48682e-09
5.15031e-08
3.35873e-09
5.16013e-08
3.1905e-09
5.16344e-08
2.99775e-09
5.16157e-08
2.80352e-09
5.15631e-08
2.62912e-09
5.14873e-08
2.48502e-09
5.13927e-08
2.3701e-09
5.1282e-08
2.2764e-09
5.11578e-08
2.19742e-09
5.10217e-08
2.12867e-09
5.08742e-08
2.06699e-09
5.07157e-08
2.01023e-09
5.05459e-08
1.95692e-09
5.03648e-08
1.90618e-09
5.01727e-08
1.85744e-09
4.99697e-08
1.81046e-09
4.97563e-08
1.76506e-09
4.9533e-08
1.72123e-09
4.93003e-08
1.6789e-09
4.90588e-08
1.6381e-09
4.88091e-08
1.59875e-09
4.85519e-08
1.56086e-09
4.82878e-08
1.52431e-09
4.80173e-08
1.48909e-09
4.7741e-08
1.45503e-09
4.74596e-08
1.42214e-09
4.71736e-08
1.39025e-09
4.68834e-08
1.3594e-09
4.65896e-08
1.32941e-09
4.62927e-08
1.30036e-09
4.59932e-08
1.27206e-09
4.56915e-08
1.24464e-09
4.53882e-08
1.21788e-09
4.50834e-08
1.19196e-09
4.47778e-08
1.16662e-09
4.44716e-08
1.1421e-09
4.41653e-08
1.11811e-09
4.3859e-08
1.09492e-09
4.35532e-08
1.07218e-09
4.32482e-08
1.05025e-09
4.29442e-08
1.02869e-09
4.26414e-08
1.00793e-09
4.23402e-08
9.8746e-10
4.20406e-08
9.67806e-10
4.1743e-08
9.48356e-10
4.14474e-08
9.29732e-10
4.11542e-08
9.11219e-10
4.08632e-08
8.93547e-10
4.05749e-08
8.75883e-10
4.02891e-08
8.59086e-10
4.00062e-08
8.42188e-10
3.97261e-08
8.26197e-10
3.9449e-08
8.09981e-10
3.91748e-08
7.94738e-10
3.89039e-08
7.79112e-10
3.86359e-08
7.64558e-10
3.83715e-08
7.49449e-10
3.811e-08
7.3551e-10
3.78522e-08
7.20844e-10
3.75974e-08
7.07462e-10
3.73463e-08
6.93164e-10
3.70984e-08
6.803e-10
3.68543e-08
6.66284e-10
3.66134e-08
6.53911e-10
3.63764e-08
6.40094e-10
3.61425e-08
6.28174e-10
3.59128e-08
6.14488e-10
3.56861e-08
6.02997e-10
3.54637e-08
5.8938e-10
3.52443e-08
5.78301e-10
3.50294e-08
5.64694e-10
3.48173e-08
5.54045e-10
3.461e-08
5.40364e-10
3.44053e-08
5.30185e-10
3.42057e-08
5.16376e-10
3.40085e-08
5.06708e-10
3.38166e-08
4.92754e-10
3.3627e-08
4.83634e-10
3.34428e-08
4.69535e-10
3.32608e-08
4.61104e-10
3.30845e-08
4.4679e-10
3.291e-08
4.39199e-10
3.27413e-08
4.2478e-10
3.25743e-08
4.18138e-10
3.24132e-08
4.03712e-10
3.22534e-08
3.9826e-10
3.20997e-08
3.84051e-10
3.19468e-08
3.80001e-10
3.17999e-08
3.66388e-10
3.16534e-08
3.63974e-10
3.15126e-08
3.51999e-10
3.13716e-08
3.5171e-10
3.42619e-10
5.51392e-08
2.15612e-09
-5.50645e-08
5.53086e-08
2.5002e-09
5.55939e-08
2.83622e-09
5.59102e-08
3.12825e-09
5.61944e-08
3.29011e-09
5.64332e-08
3.32801e-09
5.66384e-08
3.28156e-09
5.68108e-08
3.18636e-09
5.69409e-08
3.06037e-09
5.70239e-08
2.91478e-09
5.70649e-08
2.76248e-09
5.70764e-08
2.61762e-09
5.70699e-08
2.4915e-09
5.70519e-08
2.38818e-09
5.7025e-08
2.30324e-09
5.69912e-08
2.23123e-09
5.69517e-08
2.1682e-09
5.69071e-08
2.11153e-09
5.68578e-08
2.05961e-09
5.68034e-08
2.01125e-09
5.67439e-08
1.96574e-09
5.66788e-08
1.92252e-09
5.66079e-08
1.88131e-09
5.65312e-08
1.84182e-09
5.64484e-08
1.80402e-09
5.63596e-08
1.76773e-09
5.62646e-08
1.733e-09
5.61637e-08
1.69965e-09
5.60569e-08
1.66775e-09
5.59441e-08
1.63707e-09
5.58255e-08
1.60771e-09
5.57011e-08
1.57937e-09
5.55711e-08
1.55219e-09
5.54355e-08
1.52585e-09
5.52943e-08
1.50053e-09
5.51479e-08
1.47588e-09
5.49961e-08
1.45215e-09
5.48392e-08
1.42894e-09
5.46773e-08
1.40658e-09
5.45105e-08
1.38462e-09
5.4339e-08
1.36347e-09
5.4163e-08
1.3426e-09
5.39826e-08
1.32253e-09
5.37981e-08
1.30265e-09
5.36094e-08
1.28357e-09
5.3417e-08
1.26456e-09
5.32209e-08
1.24638e-09
5.30214e-08
1.22816e-09
5.28186e-08
1.2108e-09
5.26128e-08
1.19326e-09
5.24039e-08
1.17663e-09
5.21926e-08
1.15969e-09
5.19786e-08
1.14374e-09
5.17625e-08
1.12732e-09
5.15441e-08
1.11197e-09
5.1324e-08
1.096e-09
5.11019e-08
1.08119e-09
5.08785e-08
1.06556e-09
5.06535e-08
1.05122e-09
5.04276e-08
1.03587e-09
5.02003e-08
1.02197e-09
4.99726e-08
1.0068e-09
4.97439e-08
9.93318e-10
4.95151e-08
9.78257e-10
4.92855e-08
9.65118e-10
4.90562e-08
9.5009e-10
4.88264e-08
9.37254e-10
4.85974e-08
9.22193e-10
4.8368e-08
9.09651e-10
4.81399e-08
8.94471e-10
4.79115e-08
8.8223e-10
4.76848e-08
8.66834e-10
4.74581e-08
8.54868e-10
4.72334e-08
8.39188e-10
4.70089e-08
8.27499e-10
4.67868e-08
8.11478e-10
4.6565e-08
8.00073e-10
4.63461e-08
7.83652e-10
4.61275e-08
7.72576e-10
4.59122e-08
7.5566e-10
4.56975e-08
7.44981e-10
4.54863e-08
7.27519e-10
4.52757e-08
7.17306e-10
4.50692e-08
6.99297e-10
4.48632e-08
6.89597e-10
4.46617e-08
6.7108e-10
4.44607e-08
6.62069e-10
4.42645e-08
6.42964e-10
4.40689e-08
6.34836e-10
4.38783e-08
6.15339e-10
4.36883e-08
6.08194e-10
4.35035e-08
5.88469e-10
4.33192e-08
5.82612e-10
4.31402e-08
5.62969e-10
4.29616e-08
5.58682e-10
4.27884e-08
5.39587e-10
4.26151e-08
5.37276e-10
4.24472e-08
5.19812e-10
4.22788e-08
5.20117e-10
5.05655e-10
6.11289e-08
2.07676e-09
-6.10496e-08
6.12755e-08
2.35359e-09
6.14982e-08
2.61352e-09
6.1773e-08
2.85347e-09
6.20408e-08
3.02237e-09
6.22757e-08
3.09302e-09
6.24736e-08
3.0837e-09
6.26384e-08
3.02161e-09
6.27697e-08
2.92903e-09
6.28651e-08
2.81933e-09
6.2926e-08
2.70166e-09
6.29587e-08
2.58485e-09
6.29728e-08
2.4774e-09
6.29762e-08
2.38478e-09
6.29727e-08
2.30679e-09
6.29641e-08
2.23978e-09
6.29518e-08
2.18055e-09
6.29366e-08
2.12674e-09
6.29191e-08
2.07709e-09
6.28997e-08
2.03064e-09
6.28784e-08
1.98699e-09
6.28553e-08
1.94562e-09
6.28302e-08
1.9064e-09
6.28031e-08
1.86895e-09
6.27738e-08
1.83333e-09
6.27423e-08
1.79921e-09
6.27086e-08
1.76676e-09
6.26725e-08
1.73566e-09
6.26342e-08
1.70613e-09
6.25934e-08
1.67779e-09
6.25502e-08
1.65091e-09
6.25046e-08
1.62503e-09
6.24563e-08
1.60049e-09
6.24054e-08
1.57675e-09
6.23517e-08
1.55425e-09
6.22952e-08
1.53236e-09
6.22357e-08
1.51162e-09
6.21734e-08
1.49131e-09
6.21078e-08
1.47211e-09
6.20393e-08
1.45318e-09
6.19674e-08
1.43533e-09
6.18924e-08
1.41759e-09
6.1814e-08
1.40093e-09
6.17324e-08
1.38422e-09
6.16474e-08
1.36864e-09
6.15591e-08
1.35284e-09
6.14673e-08
1.33822e-09
6.13722e-08
1.32321e-09
6.12736e-08
1.30944e-09
6.11718e-08
1.29507e-09
6.10663e-08
1.28205e-09
6.09578e-08
1.26819e-09
6.08457e-08
1.25583e-09
6.07307e-08
1.2424e-09
6.0612e-08
1.23062e-09
6.04905e-08
1.2175e-09
6.03655e-08
1.20622e-09
6.02378e-08
1.19329e-09
6.01066e-08
1.1824e-09
5.99729e-08
1.16954e-09
5.98359e-08
1.15901e-09
5.96966e-08
1.1461e-09
5.9554e-08
1.13591e-09
5.94093e-08
1.12288e-09
5.92615e-08
1.11294e-09
5.9112e-08
1.09966e-09
5.89593e-08
1.08988e-09
5.88052e-08
1.07628e-09
5.86482e-08
1.06665e-09
5.84901e-08
1.05262e-09
5.83292e-08
1.04318e-09
5.81674e-08
1.02859e-09
5.8003e-08
1.01928e-09
5.78381e-08
1.00405e-09
5.76708e-08
9.94847e-10
5.75033e-08
9.78912e-10
5.73336e-08
9.69818e-10
5.71641e-08
9.53132e-10
5.69925e-08
9.44193e-10
5.68215e-08
9.26631e-10
5.66486e-08
9.17917e-10
5.64767e-08
8.99425e-10
5.6303e-08
8.90975e-10
5.61307e-08
8.71589e-10
5.59569e-08
8.63427e-10
5.57847e-08
8.43242e-10
5.56112e-08
8.35553e-10
5.54398e-08
8.14451e-10
5.52671e-08
8.07459e-10
5.50968e-08
7.85716e-10
5.49255e-08
7.79474e-10
5.47566e-08
7.57341e-10
5.4587e-08
7.52222e-10
5.44199e-08
7.30033e-10
5.42522e-08
7.26394e-10
5.40872e-08
7.0461e-10
5.39214e-08
7.03058e-10
5.37584e-08
6.82847e-10
5.35945e-08
6.8398e-10
6.67156e-10
6.77289e-08
1.99848e-09
-6.76506e-08
6.78577e-08
2.22482e-09
6.80381e-08
2.43315e-09
6.8266e-08
2.62552e-09
6.85061e-08
2.78226e-09
6.87294e-08
2.86971e-09
6.89212e-08
2.89197e-09
6.90794e-08
2.86335e-09
6.92069e-08
2.8016e-09
6.93051e-08
2.72105e-09
6.93752e-08
2.63157e-09
6.94202e-08
2.53988e-09
6.94458e-08
2.45177e-09
6.9459e-08
2.37157e-09
6.94646e-08
2.30123e-09
6.94648e-08
2.23953e-09
6.94611e-08
2.18434e-09
6.94542e-08
2.13359e-09
6.94451e-08
2.08625e-09
6.94342e-08
2.04145e-09
6.94222e-08
1.99907e-09
6.94091e-08
1.95865e-09
6.93952e-08
1.9203e-09
6.93806e-08
1.88358e-09
6.93652e-08
1.84871e-09
6.93492e-08
1.8152e-09
6.93326e-08
1.78341e-09
6.93154e-08
1.75282e-09
6.92977e-08
1.72386e-09
6.92795e-08
1.69595e-09
6.92608e-08
1.66962e-09
6.92417e-08
1.64417e-09
6.92219e-08
1.62023e-09
6.92017e-08
1.59698e-09
6.91808e-08
1.57518e-09
6.91593e-08
1.55387e-09
6.91369e-08
1.53398e-09
6.91138e-08
1.51439e-09
6.90897e-08
1.4962e-09
6.90648e-08
1.47811e-09
6.90387e-08
1.46145e-09
6.90116e-08
1.44469e-09
6.89831e-08
1.42939e-09
6.89536e-08
1.4138e-09
6.89225e-08
1.39974e-09
6.88901e-08
1.38518e-09
6.88561e-08
1.37227e-09
6.88207e-08
1.3586e-09
6.87834e-08
1.34673e-09
6.87447e-08
1.33379e-09
6.87039e-08
1.32283e-09
6.86616e-08
1.3105e-09
6.86171e-08
1.30033e-09
6.8571e-08
1.28849e-09
6.85226e-08
1.27905e-09
6.84725e-08
1.26759e-09
6.84199e-08
1.25878e-09
6.83656e-08
1.24757e-09
6.83088e-08
1.23928e-09
6.82502e-08
1.22813e-09
6.81889e-08
1.2203e-09
6.81259e-08
1.20908e-09
6.80601e-08
1.20169e-09
6.79927e-08
1.19035e-09
6.79223e-08
1.18329e-09
6.78503e-08
1.1717e-09
6.77753e-08
1.16483e-09
6.76987e-08
1.15285e-09
6.76193e-08
1.14614e-09
6.75382e-08
1.13365e-09
6.74542e-08
1.12717e-09
6.73688e-08
1.11406e-09
6.72803e-08
1.1077e-09
6.71905e-08
1.09386e-09
6.70979e-08
1.08752e-09
6.70039e-08
1.0729e-09
6.69072e-08
1.06654e-09
6.68092e-08
1.05109e-09
6.67086e-08
1.0448e-09
6.66069e-08
1.02834e-09
6.65026e-08
1.02217e-09
6.63974e-08
1.00469e-09
6.62898e-08
9.9856e-10
6.61812e-08
9.80116e-10
6.60707e-08
9.73997e-10
6.59592e-08
9.54749e-10
6.58458e-08
9.48906e-10
6.57317e-08
9.2858e-10
6.56159e-08
9.23244e-10
6.54993e-08
9.0228e-10
6.53815e-08
8.97293e-10
6.52628e-08
8.76002e-10
6.51431e-08
8.71932e-10
6.50226e-08
8.50616e-10
6.49011e-08
8.47897e-10
6.47789e-08
8.26792e-10
6.4656e-08
8.25911e-10
6.45321e-08
8.06768e-10
6.44074e-08
8.08653e-10
7.92782e-10
6.79275e-08
1.93332e-09
-6.78623e-08
6.80287e-08
2.12359e-09
6.81657e-08
2.29612e-09
6.83358e-08
2.45545e-09
6.8525e-08
2.59305e-09
6.87103e-08
2.68436e-09
6.88767e-08
2.72558e-09
6.90173e-08
2.7228e-09
6.91315e-08
2.68731e-09
6.92216e-08
2.63099e-09
6.92895e-08
2.56373e-09
6.93373e-08
2.49207e-09
6.93683e-08
2.42074e-09
6.9387e-08
2.3529e-09
6.93974e-08
2.29084e-09
6.94022e-08
2.23468e-09
6.94029e-08
2.18363e-09
6.94004e-08
2.13607e-09
6.93954e-08
2.09126e-09
6.93885e-08
2.04834e-09
6.93802e-08
2.00739e-09
6.93709e-08
1.96797e-09
6.93608e-08
1.93043e-09
6.93501e-08
1.89427e-09
6.93389e-08
1.8599e-09
6.93274e-08
1.82671e-09
6.93156e-08
1.7952e-09
6.93037e-08
1.76471e-09
6.92917e-08
1.73587e-09
6.92797e-08
1.70789e-09
6.92678e-08
1.68156e-09
6.9256e-08
1.65594e-09
6.92443e-08
1.63194e-09
6.92328e-08
1.60848e-09
6.92214e-08
1.58662e-09
6.92102e-08
1.5651e-09
6.9199e-08
1.5452e-09
6.91879e-08
1.52542e-09
6.91768e-08
1.50728e-09
6.91659e-08
1.48907e-09
6.91548e-08
1.47253e-09
6.91438e-08
1.45571e-09
6.91325e-08
1.44063e-09
6.91213e-08
1.42505e-09
6.91097e-08
1.41131e-09
6.90981e-08
1.39682e-09
6.9086e-08
1.38434e-09
6.90738e-08
1.3708e-09
6.9061e-08
1.35948e-09
6.90481e-08
1.34674e-09
6.90345e-08
1.33645e-09
6.90206e-08
1.3244e-09
6.90059e-08
1.315e-09
6.89909e-08
1.30352e-09
6.8975e-08
1.29494e-09
6.89586e-08
1.28393e-09
6.89413e-08
1.27609e-09
6.89235e-08
1.26539e-09
6.89046e-08
1.25821e-09
6.88851e-08
1.24763e-09
6.88643e-08
1.24101e-09
6.8843e-08
1.23043e-09
6.88204e-08
1.22432e-09
6.8797e-08
1.2137e-09
6.87723e-08
1.208e-09
6.87468e-08
1.19725e-09
6.87198e-08
1.19179e-09
6.86919e-08
1.18073e-09
6.86626e-08
1.17547e-09
6.86323e-08
1.16391e-09
6.86005e-08
1.15897e-09
6.85677e-08
1.14687e-09
6.85334e-08
1.14207e-09
6.84979e-08
1.12935e-09
6.84609e-08
1.12452e-09
6.84226e-08
1.11115e-09
6.83829e-08
1.10623e-09
6.83419e-08
1.09208e-09
6.82995e-08
1.08728e-09
6.82557e-08
1.07213e-09
6.82104e-08
1.0674e-09
6.81638e-08
1.05138e-09
6.81158e-08
1.04652e-09
6.80662e-08
1.0297e-09
6.80156e-08
1.02464e-09
6.79632e-08
1.00711e-09
6.79097e-08
1.00238e-09
6.78546e-08
9.83709e-10
6.77985e-08
9.79333e-10
6.77404e-08
9.60346e-10
6.76818e-08
9.55978e-10
6.7621e-08
9.36749e-10
6.75597e-08
9.33256e-10
6.74962e-08
9.14089e-10
6.7432e-08
9.12105e-10
6.73656e-08
8.93162e-10
6.72993e-08
8.92287e-10
6.72303e-08
8.75715e-10
6.71605e-08
8.78448e-10
8.64324e-10
7.51813e-08
1.8711e-09
-7.51191e-08
7.52716e-08
2.03323e-09
7.53897e-08
2.17802e-09
7.55331e-08
2.31205e-09
7.56957e-08
2.43047e-09
7.58603e-08
2.51976e-09
7.60142e-08
2.57175e-09
7.61486e-08
2.58833e-09
7.62604e-08
2.57553e-09
7.63501e-08
2.54135e-09
7.64197e-08
2.49412e-09
7.64716e-08
2.44014e-09
7.65083e-08
2.38405e-09
7.65328e-08
2.32843e-09
7.65482e-08
2.27542e-09
7.65572e-08
2.22563e-09
7.65616e-08
2.17927e-09
7.65623e-08
2.13536e-09
7.65601e-08
2.09351e-09
7.65555e-08
2.0529e-09
7.65491e-08
2.01378e-09
7.65414e-08
1.97571e-09
7.65326e-08
1.9392e-09
7.65231e-08
1.90377e-09
7.6513e-08
1.86998e-09
7.65026e-08
1.83715e-09
7.64918e-08
1.80595e-09
7.6481e-08
1.77557e-09
7.647e-08
1.74681e-09
7.64592e-08
1.71874e-09
7.64484e-08
1.69232e-09
7.64379e-08
1.66646e-09
7.64275e-08
1.64228e-09
7.64175e-08
1.61849e-09
7.64077e-08
1.5964e-09
7.63983e-08
1.57452e-09
7.63892e-08
1.55437e-09
7.63804e-08
1.53422e-09
7.63718e-08
1.51584e-09
7.63636e-08
1.49728e-09
7.63556e-08
1.48053e-09
7.63479e-08
1.46338e-09
7.63404e-08
1.44813e-09
7.63332e-08
1.43224e-09
7.63261e-08
1.4184e-09
7.63194e-08
1.40362e-09
7.63126e-08
1.39109e-09
7.63061e-08
1.37728e-09
7.62996e-08
1.36597e-09
7.62933e-08
1.35303e-09
7.6287e-08
1.34278e-09
7.62808e-08
1.33059e-09
7.62746e-08
1.32127e-09
7.62684e-08
1.30972e-09
7.62621e-08
1.30125e-09
7.62558e-08
1.29022e-09
7.62493e-08
1.28256e-09
7.62428e-08
1.27189e-09
7.6236e-08
1.26496e-09
7.62292e-08
1.25446e-09
7.62221e-08
1.24815e-09
7.62148e-08
1.23773e-09
7.62072e-08
1.23192e-09
7.61993e-08
1.22157e-09
7.61911e-08
1.21619e-09
7.61825e-08
1.20582e-09
7.61736e-08
1.2007e-09
7.61642e-08
1.19012e-09
7.61544e-08
1.18526e-09
7.61441e-08
1.1742e-09
7.61334e-08
1.16969e-09
7.61221e-08
1.15822e-09
7.61103e-08
1.15383e-09
7.60978e-08
1.14191e-09
7.60849e-08
1.13742e-09
7.6071e-08
1.12502e-09
7.60568e-08
1.12042e-09
7.60416e-08
1.10727e-09
7.6026e-08
1.10292e-09
7.60093e-08
1.08882e-09
7.59922e-08
1.08445e-09
7.59738e-08
1.06976e-09
7.59552e-08
1.06514e-09
7.5935e-08
1.04985e-09
7.59147e-08
1.04494e-09
7.58929e-08
1.02896e-09
7.58707e-08
1.02461e-09
7.58469e-08
1.00752e-09
7.58229e-08
1.00327e-09
7.57969e-08
9.86343e-10
7.57709e-08
9.81981e-10
7.57429e-08
9.64798e-10
7.57147e-08
9.6141e-10
7.56845e-08
9.44289e-10
7.56539e-08
9.42692e-10
7.56209e-08
9.26232e-10
7.55882e-08
9.24938e-10
7.55532e-08
9.10766e-10
7.55176e-08
9.14028e-10
9.01799e-10
8.31888e-08
1.81318e-09
-8.31308e-08
8.32688e-08
1.95322e-09
8.33703e-08
2.07652e-09
8.34912e-08
2.19109e-09
8.36283e-08
2.29339e-09
8.37703e-08
2.37779e-09
8.39072e-08
2.43484e-09
8.40311e-08
2.46439e-09
8.41374e-08
2.46929e-09
8.42246e-08
2.45411e-09
8.42939e-08
2.42483e-09
8.43474e-08
2.38668e-09
8.43872e-08
2.34415e-09
8.44158e-08
2.29985e-09
8.44354e-08
2.25584e-09
8.44482e-08
2.21286e-09
8.44558e-08
2.17162e-09
8.44595e-08
2.13168e-09
8.44599e-08
2.09307e-09
8.44577e-08
2.05511e-09
8.44534e-08
2.01814e-09
8.44474e-08
1.98172e-09
8.44401e-08
1.94649e-09
8.44318e-08
1.91199e-09
8.44229e-08
1.87891e-09
8.44135e-08
1.84657e-09
8.44037e-08
1.81574e-09
8.43937e-08
1.78556e-09
8.43836e-08
1.75693e-09
8.43735e-08
1.72884e-09
8.43635e-08
1.70237e-09
8.43536e-08
1.67632e-09
8.43439e-08
1.65196e-09
8.43345e-08
1.62788e-09
8.43254e-08
1.60554e-09
8.43166e-08
1.58332e-09
8.43081e-08
1.56287e-09
8.42999e-08
1.54237e-09
8.42921e-08
1.52368e-09
8.42846e-08
1.50477e-09
8.42774e-08
1.4877e-09
8.42706e-08
1.47022e-09
8.4264e-08
1.45468e-09
8.42578e-08
1.43846e-09
8.42519e-08
1.42436e-09
8.42462e-08
1.40926e-09
8.42408e-08
1.39649e-09
8.42357e-08
1.3824e-09
8.42308e-08
1.37086e-09
8.42262e-08
1.35767e-09
8.42217e-08
1.3472e-09
8.42175e-08
1.33484e-09
8.42135e-08
1.32529e-09
8.42096e-08
1.31361e-09
8.42059e-08
1.30493e-09
8.42023e-08
1.2938e-09
8.41989e-08
1.28595e-09
8.41956e-08
1.2752e-09
8.41925e-08
1.26813e-09
8.41893e-08
1.25759e-09
8.41863e-08
1.25115e-09
8.41833e-08
1.24077e-09
8.41804e-08
1.23479e-09
8.41774e-08
1.22457e-09
8.41746e-08
1.21899e-09
8.41716e-08
1.20882e-09
8.41688e-08
1.20352e-09
8.41658e-08
1.19318e-09
8.41628e-08
1.1882e-09
8.41596e-08
1.1774e-09
8.41566e-08
1.17275e-09
8.41531e-08
1.16166e-09
8.41499e-08
1.15708e-09
8.41461e-08
1.14568e-09
8.41426e-08
1.14095e-09
8.41384e-08
1.12917e-09
8.41345e-08
1.12439e-09
8.41299e-08
1.11181e-09
8.41255e-08
1.10737e-09
8.41203e-08
1.09395e-09
8.41154e-08
1.08938e-09
8.41096e-08
1.07559e-09
8.4104e-08
1.0707e-09
8.40974e-08
1.05645e-09
8.4091e-08
1.05133e-09
8.40837e-08
1.03628e-09
8.40764e-08
1.03193e-09
8.4068e-08
1.01595e-09
8.40598e-08
1.01144e-09
8.40502e-08
9.95911e-10
8.40408e-08
9.91435e-10
8.403e-08
9.75583e-10
8.40192e-08
9.72222e-10
8.40071e-08
9.5637e-10
8.39949e-08
9.54945e-10
8.39807e-08
9.40371e-10
8.39667e-08
9.3892e-10
8.39515e-08
9.26042e-10
8.39359e-08
9.2958e-10
9.18728e-10
9.20311e-08
1.76152e-09
-9.19794e-08
9.20999e-08
1.88435e-09
9.21854e-08
1.99103e-09
9.22859e-08
2.09065e-09
9.23986e-08
2.18068e-09
9.25176e-08
2.25874e-09
9.2635e-08
2.31741e-09
9.27446e-08
2.35482e-09
9.28416e-08
2.3723e-09
9.29236e-08
2.37213e-09
9.29903e-08
2.35813e-09
9.3043e-08
2.33399e-09
9.30835e-08
2.30359e-09
9.31139e-08
2.26947e-09
9.3136e-08
2.2338e-09
9.31514e-08
2.19747e-09
9.31616e-08
2.16142e-09
9.31677e-08
2.12557e-09
9.31704e-08
2.09029e-09
9.31705e-08
2.05509e-09
9.31682e-08
2.02042e-09
9.31641e-08
1.98585e-09
9.31585e-08
1.9521e-09
9.31518e-08
1.91869e-09
9.31442e-08
1.88645e-09
9.31361e-08
1.8547e-09
9.31275e-08
1.82431e-09
9.31187e-08
1.7944e-09
9.31097e-08
1.76595e-09
9.31006e-08
1.73791e-09
9.30915e-08
1.71143e-09
9.30826e-08
1.68528e-09
9.30737e-08
1.66078e-09
9.30651e-08
1.6365e-09
9.30568e-08
1.61391e-09
9.30486e-08
1.59143e-09
9.30408e-08
1.57069e-09
9.30333e-08
1.54991e-09
9.30261e-08
1.53088e-09
9.30192e-08
1.51169e-09
9.30126e-08
1.49429e-09
9.30063e-08
1.47652e-09
9.30003e-08
1.46067e-09
9.29946e-08
1.44416e-09
9.29892e-08
1.42977e-09
9.2984e-08
1.41439e-09
9.29792e-08
1.40135e-09
9.29746e-08
1.387e-09
9.29703e-08
1.37517e-09
9.29662e-08
1.36179e-09
9.29623e-08
1.35101e-09
9.29587e-08
1.33851e-09
9.29553e-08
1.32865e-09
9.29521e-08
1.31686e-09
9.29491e-08
1.3079e-09
9.29462e-08
1.29666e-09
9.29436e-08
1.28855e-09
9.29411e-08
1.2777e-09
9.29389e-08
1.27038e-09
9.29367e-08
1.25979e-09
9.29348e-08
1.25309e-09
9.29328e-08
1.24273e-09
9.29311e-08
1.23647e-09
9.29294e-08
1.2263e-09
9.29279e-08
1.22043e-09
9.29264e-08
1.21034e-09
9.29252e-08
1.20478e-09
9.29238e-08
1.19453e-09
9.29227e-08
1.18933e-09
9.29214e-08
1.17867e-09
9.29204e-08
1.17375e-09
9.29192e-08
1.16287e-09
9.29183e-08
1.15799e-09
9.29171e-08
1.14687e-09
9.29162e-08
1.14184e-09
9.2915e-08
1.13036e-09
9.29141e-08
1.12536e-09
9.29128e-08
1.11305e-09
9.29118e-08
1.10841e-09
9.29104e-08
1.09538e-09
9.29092e-08
1.09052e-09
9.29076e-08
1.07721e-09
9.29062e-08
1.07206e-09
9.29043e-08
1.05834e-09
9.29026e-08
1.05309e-09
9.29004e-08
1.03848e-09
9.28982e-08
1.03406e-09
9.28955e-08
1.01873e-09
9.28929e-08
1.01403e-09
9.28896e-08
9.99194e-10
9.28862e-08
9.94765e-10
9.28822e-08
9.79615e-10
9.2878e-08
9.76391e-10
9.28732e-08
9.61241e-10
9.28682e-08
9.59882e-10
9.28622e-08
9.46387e-10
9.28559e-08
9.45261e-10
9.2849e-08
9.32894e-10
9.28421e-08
9.36501e-10
9.26451e-10
1.01797e-07
1.71775e-09
-1.01753e-07
1.01854e-07
1.82758e-09
1.01923e-07
1.92176e-09
1.02003e-07
2.01014e-09
1.02093e-07
2.091e-09
1.02189e-07
2.16283e-09
1.02285e-07
2.2212e-09
1.02377e-07
2.26292e-09
1.02461e-07
2.28865e-09
1.02534e-07
2.29936e-09
1.02594e-07
2.29734e-09
1.02643e-07
2.28489e-09
1.02682e-07
2.26497e-09
1.02712e-07
2.23977e-09
1.02734e-07
2.21147e-09
1.0275e-07
2.18112e-09
1.02762e-07
2.14987e-09
1.0277e-07
2.11788e-09
1.02774e-07
2.08576e-09
1.02776e-07
2.05321e-09
1.02776e-07
2.02079e-09
1.02773e-07
1.9881e-09
1.0277e-07
1.95588e-09
1.02765e-07
1.92366e-09