/*--------------------------------*- C++ -*----------------------------------*\
| =========                 |                                                 |
| \\      /  F ield         | OpenFOAM: The Open Source CFD Toolbox           |
|  \\    /   O peration     | Version:  2.3.0                                 |
|   \\  /    A nd           | Web:      www.OpenFOAM.org                      |
|    \\/     M anipulation  |                                                 |
\*---------------------------------------------------------------------------*/
FoamFile
{
    version     2.0;
    format      ascii;
    class       volVectorField;
    location    "0.7";
    object      U_0;
}
// * * * * * * * * * * * * * * * * * * * * * * * * * * * * * * * * * * * * * //

dimensions      [0 1 -1 0 0 0 0];

internalField   nonuniform List<vector> 
2000
(
(0.175523 0.00442168 0)
(0.154832 0.00604565 0)
(0.136034 0.0061989 0)
(0.117684 0.00557966 0)
(0.0999743 0.00475257 0)
(0.0837894 0.00383729 0)
(0.0702275 0.00284646 0)
(0.0596745 0.0018037 0)
(0.0519026 0.000897391 0)
(0.0463451 0.000287296 0)
(0.0424189 -3.13079e-05 0)
(0.0396403 -0.000151665 0)
(0.0376212 -0.000161733 0)
(0.036077 -0.000122136 0)
(0.0348055 -6.56543e-05 0)
(0.0336795 -1.17049e-05 0)
(0.0326311 2.98369e-05 0)
(0.0316318 5.68022e-05 0)
(0.0306752 7.1338e-05 0)
(0.029764 7.69541e-05 0)
(0.0289028 7.69304e-05 0)
(0.0280945 7.37681e-05 0)
(0.0273398 6.91554e-05 0)
(0.0266374 6.41247e-05 0)
(0.0259842 5.92377e-05 0)
(0.0253765 5.47463e-05 0)
(0.02481 5.07316e-05 0)
(0.0242807 4.71869e-05 0)
(0.0237845 4.40638e-05 0)
(0.0233178 4.13018e-05 0)
(0.0228777 3.88432e-05 0)
(0.0224613 3.6638e-05 0)
(0.0220663 3.46454e-05 0)
(0.0216906 3.28317e-05 0)
(0.0213328 3.11699e-05 0)
(0.0209912 2.96378e-05 0)
(0.0206646 2.82186e-05 0)
(0.0203519 2.68974e-05 0)
(0.0200523 2.56648e-05 0)
(0.0197647 2.45102e-05 0)
(0.0194884 2.34288e-05 0)
(0.0192228 2.24126e-05 0)
(0.0189671 2.14589e-05 0)
(0.0187208 2.05614e-05 0)
(0.0184833 1.97186e-05 0)
(0.0182541 1.89246e-05 0)
(0.0180327 1.81792e-05 0)
(0.0178186 1.74753e-05 0)
(0.0176117 1.68145e-05 0)
(0.0174111 1.61884e-05 0)
(0.0172169 1.56006e-05 0)
(0.0170284 1.50419e-05 0)
(0.0168457 1.45164e-05 0)
(0.0166681 1.40154e-05 0)
(0.0164958 1.35424e-05 0)
(0.016328 1.30904e-05 0)
(0.0161652 1.26616e-05 0)
(0.0160063 1.22513e-05 0)
(0.0158521 1.18594e-05 0)
(0.0157014 1.14846e-05 0)
(0.0155552 1.1125e-05 0)
(0.015412 1.07799e-05 0)
(0.0152732 1.04479e-05 0)
(0.0151371 1.01298e-05 0)
(0.0150052 9.81996e-06 0)
(0.0148756 9.52659e-06 0)
(0.0147503 9.23435e-06 0)
(0.0146268 8.96406e-06 0)
(0.0145077 8.68708e-06 0)
(0.0143899 8.43756e-06 0)
(0.0142768 8.17426e-06 0)
(0.0141643 7.94462e-06 0)
(0.014057 7.69098e-06 0)
(0.0139496 7.48164e-06 0)
(0.0138478 7.2349e-06 0)
(0.0137452 7.04758e-06 0)
(0.0136489 6.8036e-06 0)
(0.0135507 6.6406e-06 0)
(0.0134598 6.39733e-06 0)
(0.0133657 6.26026e-06 0)
(0.0132801 6.01479e-06 0)
(0.0131898 5.90596e-06 0)
(0.0131095 5.65546e-06 0)
(0.0130225 5.58343e-06 0)
(0.0129476 5.31723e-06 0)
(0.0128634 5.29124e-06 0)
(0.012794 5.01034e-06 0)
(0.0127119 5.0327e-06 0)
(0.0126482 4.7279e-06 0)
(0.0125673 4.81966e-06 0)
(0.0125095 4.47905e-06 0)
(0.0124287 4.65543e-06 0)
(0.0123774 4.26635e-06 0)
(0.0122949 4.55791e-06 0)
(0.0122508 4.09874e-06 0)
(0.0121642 4.5439e-06 0)
(0.0121288 3.96768e-06 0)
(0.0120342 4.6454e-06 0)
(0.0120109 3.90687e-06 0)
(0.0118971 5.83864e-06 0)
(0.190919 0.00783039 0)
(0.189229 0.0109759 0)
(0.186858 0.0120925 0)
(0.183188 0.0119539 0)
(0.177956 0.0113244 0)
(0.171347 0.0104233 0)
(0.163979 0.00925675 0)
(0.156305 0.00782294 0)
(0.148676 0.00627534 0)
(0.141307 0.00483486 0)
(0.134328 0.0036464 0)
(0.127846 0.00274292 0)
(0.121912 0.00209167 0)
(0.116548 0.00164642 0)
(0.111722 0.00135444 0)
(0.107376 0.00116497 0)
(0.103444 0.00103708 0)
(0.0998699 0.000943049 0)
(0.0966037 0.000866683 0)
(0.0936061 0.000799647 0)
(0.0908449 0.000738221 0)
(0.0882934 0.000681098 0)
(0.085929 0.000628055 0)
(0.0837322 0.000579236 0)
(0.0816859 0.000534798 0)
(0.0797749 0.000494743 0)
(0.0779857 0.00045891 0)
(0.0763061 0.000426994 0)
(0.0747254 0.000398601 0)
(0.0732341 0.000373294 0)
(0.0718239 0.00035065 0)
(0.0704874 0.000330277 0)
(0.0692183 0.000311838 0)
(0.0680109 0.000295046 0)
(0.0668604 0.000279669 0)
(0.0657624 0.00026551 0)
(0.0647131 0.000252418 0)
(0.0637089 0.000240263 0)
(0.062747 0.000228952 0)
(0.0618243 0.000218392 0)
(0.0609387 0.000208526 0)
(0.0600872 0.000199284 0)
(0.0592684 0.00019063 0)
(0.0584797 0.000182504 0)
(0.0577199 0.000174882 0)
(0.0569866 0.000167712 0)
(0.056279 0.000160979 0)
(0.0555948 0.000154628 0)
(0.0549338 0.000148657 0)
(0.0542934 0.000143007 0)
(0.0536739 0.000137687 0)
(0.0530727 0.000132637 0)
(0.0524905 0.000127873 0)
(0.0519246 0.000123335 0)
(0.0513762 0.000119043 0)
(0.0508422 0.000114942 0)
(0.0503244 0.000111052 0)
(0.0498194 0.000107323 0)
(0.0493298 0.000103776 0)
(0.0488513 0.000100365 0)
(0.0483876 9.71143e-05 0)
(0.0479336 9.39753e-05 0)
(0.0474939 9.09802e-05 0)
(0.0470625 8.808e-05 0)
(0.0466453 8.53017e-05 0)
(0.0462349 8.26125e-05 0)
(0.0458389 8.00181e-05 0)
(0.0454481 7.75172e-05 0)
(0.0450722 7.50846e-05 0)
(0.0446998 7.27495e-05 0)
(0.0443431 7.04603e-05 0)
(0.043988 6.82757e-05 0)
(0.0436498 6.61075e-05 0)
(0.043311 6.40632e-05 0)
(0.0429908 6.19982e-05 0)
(0.0426672 6.00913e-05 0)
(0.0423647 5.81109e-05 0)
(0.0420553 5.63402e-05 0)
(0.0417703 5.44332e-05 0)
(0.0414742 5.27979e-05 0)
(0.0412066 5.09541e-05 0)
(0.0409226 4.94562e-05 0)
(0.0406726 4.76668e-05 0)
(0.0403993 4.63294e-05 0)
(0.0401673 4.45655e-05 0)
(0.0399032 4.34147e-05 0)
(0.0396898 4.16866e-05 0)
(0.0394327 4.07269e-05 0)
(0.0392387 3.90201e-05 0)
(0.0389862 3.83145e-05 0)
(0.038813 3.66117e-05 0)
(0.0385613 3.62032e-05 0)
(0.0384108 3.45008e-05 0)
(0.0381552 3.44713e-05 0)
(0.0380303 3.27649e-05 0)
(0.0377637 3.31918e-05 0)
(0.0376693 3.14847e-05 0)
(0.0373803 3.25371e-05 0)
(0.0373264 3.08455e-05 0)
(0.0369939 3.50388e-05 0)
(0.192154 0.00753135 0)
(0.192528 0.0100955 0)
(0.193529 0.0116828 0)
(0.194622 0.0122202 0)
(0.195208 0.012137 0)
(0.194967 0.0117038 0)
(0.193877 0.0109747 0)
(0.192027 0.00998364 0)
(0.189545 0.00883668 0)
(0.186575 0.00769262 0)
(0.18325 0.00667713 0)
(0.17971 0.00584053 0)
(0.176067 0.0051704 0)
(0.172419 0.00463751 0)
(0.168811 0.00420728 0)
(0.165267 0.00384892 0)
(0.161795 0.00353949 0)
(0.158401 0.00326413 0)
(0.155088 0.00301418 0)
(0.15186 0.00278496 0)
(0.14872 0.00257393 0)
(0.145674 0.00237963 0)
(0.142723 0.00220112 0)
(0.139871 0.00203764 0)
(0.13712 0.00188848 0)
(0.134471 0.00175285 0)
(0.131922 0.00162992 0)
(0.129472 0.00151872 0)
(0.12712 0.00141823 0)
(0.124862 0.00132738 0)
(0.122696 0.00124515 0)
(0.120617 0.00117053 0)
(0.118622 0.00110266 0)
(0.116706 0.00104072 0)
(0.114867 0.000984028 0)
(0.113099 0.000931958 0)
(0.1114 0.000884008 0)
(0.109765 0.000839702 0)
(0.108192 0.000798687 0)
(0.106676 0.000760598 0)
(0.105215 0.000725191 0)
(0.103805 0.000692175 0)
(0.102445 0.000661383 0)
(0.101131 0.000632573 0)
(0.0998605 0.000605633 0)
(0.0986309 0.000580349 0)
(0.0974418 0.000556653 0)
(0.0962887 0.00053434 0)
(0.0951725 0.000513386 0)
(0.0940885 0.000493586 0)
(0.0930383 0.000474955 0)
(0.0920167 0.000457286 0)
(0.0910264 0.000440628 0)
(0.0900617 0.000424769 0)
(0.0891261 0.000409785 0)
(0.0882131 0.000395467 0)
(0.0873277 0.000381911 0)
(0.0864622 0.000368906 0)
(0.0856231 0.00035657 0)
(0.0848012 0.00034469 0)
(0.0840051 0.000333408 0)
(0.0832236 0.000322489 0)
(0.0824674 0.00031212 0)
(0.0817234 0.000302035 0)
(0.0810049 0.000292448 0)
(0.0802957 0.000283093 0)
(0.0796128 0.00027418 0)
(0.0789362 0.000265464 0)
(0.0782871 0.000257143 0)
(0.077641 0.000248984 0)
(0.0770245 0.000241189 0)
(0.076407 0.000233521 0)
(0.0758221 0.000226184 0)
(0.0752315 0.000218959 0)
(0.0746773 0.000212025 0)
(0.0741119 0.000205206 0)
(0.0735882 0.000198627 0)
(0.0730462 0.000192191 0)
(0.0725528 0.000185937 0)
(0.0720326 0.000179855 0)
(0.0715697 0.000173905 0)
(0.0710692 0.000168164 0)
(0.0706375 0.000162506 0)
(0.0701543 0.000157124 0)
(0.0697548 0.000151721 0)
(0.0692862 0.000146726 0)
(0.0689205 0.000141621 0)
(0.0684629 0.000136997 0)
(0.068133 0.000132209 0)
(0.0676819 0.000128039 0)
(0.0673909 0.000123595 0)
(0.0669403 0.00011992 0)
(0.0666921 0.000115914 0)
(0.0662341 0.000112816 0)
(0.0660343 0.000109385 0)
(0.0655578 0.000106926 0)
(0.0654145 0.000104258 0)
(0.0649039 0.000102834 0)
(0.0648286 0.000101002 0)
(0.0642633 0.000104139 0)
(0.193328 0.00709885 0)
(0.193651 0.00886051 0)
(0.194568 0.01029 0)
(0.195982 0.0110399 0)
(0.197499 0.0112054 0)
(0.198775 0.0109939 0)
(0.199645 0.0105237 0)
(0.200061 0.00985836 0)
(0.200026 0.00906873 0)
(0.199577 0.00825012 0)
(0.198771 0.00749316 0)
(0.197685 0.00684923 0)
(0.196402 0.00632526 0)
(0.194989 0.00589948 0)
(0.193488 0.00554519 0)
(0.191923 0.00524024 0)
(0.190302 0.00496876 0)
(0.188629 0.0047203 0)
(0.186907 0.00448839 0)
(0.185139 0.00426921 0)
(0.183329 0.00406061 0)
(0.181483 0.00386147 0)
(0.179607 0.00367127 0)
(0.177708 0.00348981 0)
(0.175793 0.00331706 0)
(0.173867 0.003153 0)
(0.171938 0.00299757 0)
(0.170009 0.00285061 0)
(0.168088 0.00271187 0)
(0.166177 0.00258098 0)
(0.164281 0.00245757 0)
(0.162402 0.00234118 0)
(0.160545 0.00223145 0)
(0.158711 0.00212793 0)
(0.156903 0.0020303 0)
(0.155122 0.00193815 0)
(0.15337 0.00185123 0)
(0.151647 0.00176915 0)
(0.149956 0.00169173 0)
(0.148296 0.00161861 0)
(0.146669 0.00154964 0)
(0.145072 0.00148446 0)
(0.14351 0.00142299 0)
(0.141978 0.00136485 0)
(0.140481 0.00131002 0)
(0.139013 0.00125811 0)
(0.137579 0.00120913 0)
(0.136173 0.00116268 0)
(0.134801 0.00111883 0)
(0.133456 0.00107716 0)
(0.132143 0.0010378 0)
(0.130855 0.00100029 0)
(0.1296 0.000964835 0)
(0.128367 0.000930939 0)
(0.127166 0.000898873 0)
(0.125985 0.000868109 0)
(0.124837 0.000838982 0)
(0.123705 0.00081093 0)
(0.122606 0.000784355 0)
(0.121521 0.000758648 0)
(0.12047 0.000734302 0)
(0.119429 0.00071062 0)
(0.118422 0.000688221 0)
(0.117424 0.000666302 0)
(0.116461 0.00064559 0)
(0.115501 0.000625208 0)
(0.11458 0.000605965 0)
(0.113659 0.000586928 0)
(0.112778 0.000568984 0)
(0.111892 0.000551105 0)
(0.111052 0.000534322 0)
(0.110199 0.000517455 0)
(0.109398 0.000501695 0)
(0.108576 0.000485715 0)
(0.107815 0.000470876 0)
(0.107023 0.000455689 0)
(0.106301 0.000441676 0)
(0.105536 0.000427199 0)
(0.104854 0.000413964 0)
(0.104115 0.000400112 0)
(0.103474 0.00038763 0)
(0.102757 0.000374335 0)
(0.102159 0.000362598 0)
(0.101461 0.000349852 0)
(0.100908 0.000338834 0)
(0.100226 0.000326624 0)
(0.0997212 0.00031643 0)
(0.0990495 0.000304688 0)
(0.0985966 0.000295403 0)
(0.0979295 0.000284202 0)
(0.0975333 0.00027593 0)
(0.096863 0.000265298 0)
(0.0965296 0.000258244 0)
(0.0958462 0.000248302 0)
(0.0955831 0.000242684 0)
(0.094874 0.000233664 0)
(0.0946903 0.000229607 0)
(0.0939399 0.00022249 0)
(0.0938456 0.000220001 0)
(0.0930363 0.000218405 0)
(0.194314 0.00677684 0)
(0.194606 0.00806628 0)
(0.195289 0.00923162 0)
(0.196385 0.00999596 0)
(0.197709 0.0102824 0)
(0.199005 0.0101941 0)
(0.200102 0.00985621 0)
(0.200933 0.00935802 0)
(0.201484 0.00876531 0)
(0.201769 0.00814049 0)
(0.201815 0.00754488 0)
(0.201666 0.00702131 0)
(0.201374 0.00658475 0)
(0.200988 0.00622614 0)
(0.200543 0.00592744 0)
(0.200056 0.00567151 0)
(0.199534 0.00544538 0)
(0.198976 0.0052401 0)
(0.19838 0.00504979 0)
(0.197741 0.00487062 0)
(0.19706 0.00470016 0)
(0.196333 0.00453687 0)
(0.195563 0.00437988 0)
(0.19475 0.00422861 0)
(0.193897 0.00408286 0)
(0.193005 0.00394242 0)
(0.192079 0.00380726 0)
(0.191118 0.00367719 0)
(0.190128 0.00355214 0)
(0.189108 0.00343184 0)
(0.188064 0.00331618 0)
(0.186995 0.00320481 0)
(0.185907 0.00309766 0)
(0.184797 0.00299439 0)
(0.183672 0.00289494 0)
(0.18253 0.002799 0)
(0.181377 0.0027066 0)
(0.180211 0.00261741 0)
(0.179038 0.00253152 0)
(0.177854 0.00244859 0)
(0.176668 0.0023688 0)
(0.175474 0.00229175 0)
(0.174281 0.00221768 0)
(0.173082 0.00214615 0)
(0.171888 0.00207746 0)
(0.17069 0.00201108 0)
(0.1695 0.00194743 0)
(0.168307 0.00188587 0)
(0.167126 0.00182691 0)
(0.165942 0.00176981 0)
(0.164773 0.0017152 0)
(0.163602 0.00166223 0)
(0.162449 0.00161163 0)
(0.161293 0.00156243 0)
(0.160158 0.00151551 0)
(0.159021 0.00146976 0)
(0.157906 0.00142619 0)
(0.156788 0.00138356 0)
(0.155697 0.00134305 0)
(0.1546 0.00130324 0)
(0.153533 0.00126551 0)
(0.152458 0.00122821 0)
(0.151417 0.00119301 0)
(0.150364 0.00115797 0)
(0.149352 0.00112505 0)
(0.148322 0.00109203 0)
(0.147338 0.00106115 0)
(0.146331 0.00102992 0)
(0.145378 0.00100091 0)
(0.144394 0.000971247 0)
(0.143473 0.000943956 0)
(0.14251 0.000915649 0)
(0.141623 0.000889924 0)
(0.140682 0.000862802 0)
(0.13983 0.00083852 0)
(0.13891 0.000812437 0)
(0.138095 0.000789504 0)
(0.137194 0.00076432 0)
(0.136419 0.000742689 0)
(0.135535 0.000718254 0)
(0.134803 0.000697931 0)
(0.133933 0.00067412 0)
(0.133247 0.000655105 0)
(0.132389 0.000631876 0)
(0.131753 0.000614179 0)
(0.130902 0.000591488 0)
(0.130321 0.000575261 0)
(0.129473 0.000552999 0)
(0.128952 0.000538394 0)
(0.1281 0.000516672 0)
(0.127646 0.000503801 0)
(0.126782 0.000482723 0)
(0.126403 0.000471829 0)
(0.125518 0.00045167 0)
(0.125221 0.000442936 0)
(0.124302 0.000424204 0)
(0.124097 0.000417741 0)
(0.123132 0.000401766 0)
(0.123027 0.000397884 0)
(0.122001 0.000387558 0)
(0.195156 0.00650495 0)
(0.195426 0.00750637 0)
(0.195961 0.00843692 0)
(0.196788 0.00913009 0)
(0.197824 0.00947836 0)
(0.198907 0.0094977 0)
(0.199892 0.00927618 0)
(0.200698 0.00890238 0)
(0.201302 0.00844279 0)
(0.201708 0.00794797 0)
(0.201941 0.00746096 0)
(0.20203 0.00701567 0)
(0.202015 0.00663015 0)
(0.201932 0.00630495 0)
(0.201813 0.00603046 0)
(0.201675 0.00579438 0)
(0.201528 0.00558615 0)
(0.201372 0.00539795 0)
(0.201206 0.00522459 0)
(0.201025 0.00506261 0)
(0.200828 0.00490985 0)
(0.200609 0.00476475 0)
(0.200371 0.00462641 0)
(0.20011 0.00449402 0)
(0.199829 0.00436725 0)
(0.199524 0.0042456 0)
(0.1992 0.00412897 0)
(0.198852 0.00401691 0)
(0.198485 0.00390942 0)
(0.198095 0.00380599 0)
(0.197687 0.00370663 0)
(0.197255 0.0036108 0)
(0.196807 0.00351855 0)
(0.196335 0.00342929 0)
(0.195848 0.00334321 0)
(0.195336 0.00325967 0)
(0.194811 0.00317896 0)
(0.194262 0.00310044 0)
(0.193701 0.00302451 0)
(0.193117 0.00295046 0)
(0.192522 0.00287884 0)
(0.191903 0.00280884 0)
(0.191277 0.00274118 0)
(0.190627 0.00267492 0)
(0.189971 0.00261093 0)
(0.189292 0.00254814 0)
(0.18861 0.00248756 0)
(0.187904 0.00242796 0)
(0.187199 0.00237057 0)
(0.186469 0.00231392 0)
(0.185743 0.0022595 0)
(0.184991 0.00220559 0)
(0.184248 0.00215396 0)
(0.183477 0.0021026 0)
(0.18272 0.00205356 0)
(0.181932 0.00200453 0)
(0.181162 0.00195788 0)
(0.18036 0.00191098 0)
(0.179582 0.00186658 0)
(0.178768 0.00182163 0)
(0.177985 0.00177936 0)
(0.17716 0.00173615 0)
(0.176374 0.00169586 0)
(0.175541 0.00165423 0)
(0.174756 0.00161578 0)
(0.173917 0.00157557 0)
(0.173135 0.00153883 0)
(0.17229 0.00149989 0)
(0.171515 0.00146479 0)
(0.170667 0.00142693 0)
(0.169902 0.00139341 0)
(0.16905 0.00135646 0)
(0.168299 0.00132445 0)
(0.167445 0.00128827 0)
(0.166712 0.00125772 0)
(0.165854 0.00122218 0)
(0.165143 0.00119305 0)
(0.164282 0.00115805 0)
(0.163597 0.00113037 0)
(0.162733 0.00109573 0)
(0.162078 0.00106957 0)
(0.161209 0.00103521 0)
(0.160589 0.00101061 0)
(0.159713 0.000976488 0)
(0.159135 0.000953492 0)
(0.158248 0.00091965 0)
(0.157717 0.000898459 0)
(0.156817 0.000864776 0)
(0.15634 0.00084561 0)
(0.155422 0.000812328 0)
(0.155005 0.000795263 0)
(0.154062 0.000762605 0)
(0.153714 0.00074797 0)
(0.15274 0.000716349 0)
(0.152468 0.00070439 0)
(0.151454 0.000674413 0)
(0.151266 0.000665489 0)
(0.150203 0.000638573 0)
(0.150108 0.000633452 0)
(0.148984 0.000611521 0)
(0.195892 0.00625437 0)
(0.196137 0.00704857 0)
(0.196566 0.00778802 0)
(0.197196 0.00837684 0)
(0.197991 0.00873187 0)
(0.198856 0.0088315 0)
(0.199686 0.00871716 0)
(0.200401 0.00845501 0)
(0.200965 0.00810543 0)
(0.201372 0.00771476 0)
(0.201639 0.00731816 0)
(0.201787 0.00694201 0)
(0.201847 0.00660331 0)
(0.201847 0.00630772 0)
(0.201815 0.00605217 0)
(0.201766 0.00582897 0)
(0.201714 0.00563026 0)
(0.201659 0.00544947 0)
(0.201605 0.00528233 0)
(0.201546 0.0051258 0)
(0.201485 0.00497833 0)
(0.201415 0.00483856 0)
(0.201341 0.00470594 0)
(0.201256 0.00457958 0)
(0.201167 0.00445932 0)
(0.201068 0.00434441 0)
(0.200965 0.00423492 0)
(0.200851 0.00413011 0)
(0.200734 0.00403021 0)
(0.200604 0.00393439 0)
(0.200473 0.00384299 0)
(0.200327 0.00375509 0)
(0.20018 0.00367113 0)
(0.200017 0.00359008 0)
(0.199854 0.00351254 0)
(0.199673 0.00343739 0)
(0.199492 0.00336542 0)
(0.199292 0.00329536 0)
(0.199092 0.00322823 0)
(0.198872 0.00316258 0)
(0.198653 0.00309969 0)
(0.198411 0.00303793 0)
(0.198173 0.00297881 0)
(0.197908 0.00292049 0)
(0.19765 0.00286476 0)
(0.197363 0.00280951 0)
(0.197084 0.00275686 0)
(0.196775 0.00270431 0)
(0.196475 0.00265441 0)
(0.196142 0.00260423 0)
(0.195823 0.0025568 0)
(0.195467 0.0025087 0)
(0.195128 0.00246351 0)
(0.194748 0.00241727 0)
(0.194391 0.00237411 0)
(0.193988 0.00232948 0)
(0.193613 0.00228814 0)
(0.193186 0.00224485 0)
(0.192795 0.00220512 0)
(0.192345 0.00216295 0)
(0.191939 0.00212475 0)
(0.191466 0.0020835 0)
(0.191047 0.00204674 0)
(0.190552 0.00200623 0)
(0.190121 0.00197074 0)
(0.189604 0.00193078 0)
(0.189163 0.00189643 0)
(0.188625 0.00185689 0)
(0.188177 0.00182366 0)
(0.187617 0.00178438 0)
(0.187165 0.00175228 0)
(0.186584 0.00171305 0)
(0.186131 0.001682 0)
(0.185528 0.0016427 0)
(0.185077 0.0016127 0)
(0.184453 0.00157326 0)
(0.184007 0.00154429 0)
(0.183362 0.00150463 0)
(0.182926 0.00147676 0)
(0.182258 0.00143672 0)
(0.181835 0.00141005 0)
(0.181144 0.00136958 0)
(0.18074 0.0013442 0)
(0.180024 0.00130336 0)
(0.179643 0.00127929 0)
(0.178902 0.0012382 0)
(0.178549 0.00121571 0)
(0.177781 0.00117425 0)
(0.177461 0.00115361 0)
(0.176662 0.00111221 0)
(0.176383 0.00109351 0)
(0.17555 0.00105243 0)
(0.175316 0.00103612 0)
(0.174447 0.000995882 0)
(0.174264 0.000982378 0)
(0.173353 0.000943642 0)
(0.173227 0.000933568 0)
(0.172269 0.00089773 0)
(0.172206 0.000892204 0)
(0.171196 0.000860561 0)
(0.196541 0.00601132 0)
(0.196758 0.00664524 0)
(0.197104 0.0072332 0)
(0.197588 0.00772069 0)
(0.198194 0.00805176 0)
(0.198869 0.00819809 0)
(0.199545 0.00817057 0)
(0.200155 0.00800768 0)
(0.200662 0.00775582 0)
(0.201047 0.00745554 0)
(0.201318 0.00713839 0)
(0.201488 0.00682675 0)
(0.201582 0.00653575 0)
(0.201618 0.00627274 0)
(0.201622 0.00603883 0)
(0.201604 0.00583008 0)
(0.201581 0.00564154 0)
(0.201553 0.00546799 0)
(0.201526 0.00530623 0)
(0.201495 0.00515355 0)
(0.201466 0.00500909 0)
(0.201429 0.00487159 0)
(0.201393 0.00474105 0)
(0.20135 0.00461647 0)
(0.201309 0.00449811 0)
(0.20126 0.00438489 0)
(0.201215 0.00427728 0)
(0.201163 0.00417413 0)
(0.201115 0.00407611 0)
(0.201059 0.00398197 0)
(0.20101 0.00389255 0)
(0.20095 0.00380643 0)
(0.200898 0.00372466 0)
(0.200835 0.00364561 0)
(0.200781 0.0035706 0)
(0.200713 0.00349775 0)
(0.200656 0.00342868 0)
(0.200583 0.00336125 0)
(0.200522 0.00329742 0)
(0.200443 0.00323475 0)
(0.200378 0.00317556 0)
(0.200291 0.00311706 0)
(0.200221 0.003062 0)
(0.200126 0.0030072 0)
(0.200049 0.00295587 0)
(0.199945 0.00290435 0)
(0.199862 0.00285639 0)
(0.199747 0.00280775 0)
(0.199657 0.00276282 0)
(0.199531 0.00271663 0)
(0.199432 0.00267439 0)
(0.199294 0.00263031 0)
(0.199187 0.00259046 0)
(0.199035 0.00254821 0)
(0.19892 0.00251051 0)
(0.198753 0.00246981 0)
(0.19863 0.00243403 0)
(0.198448 0.00239455 0)
(0.198316 0.00236041 0)
(0.198117 0.00232183 0)
(0.197976 0.00228918 0)
(0.19776 0.00225124 0)
(0.197612 0.00222002 0)
(0.197378 0.00218256 0)
(0.197221 0.00215254 0)
(0.196968 0.0021153 0)
(0.196804 0.00208625 0)
(0.196532 0.00204903 0)
(0.196362 0.00202087 0)
(0.196068 0.00198351 0)
(0.195894 0.00195633 0)
(0.195579 0.00191861 0)
(0.1954 0.00189223 0)
(0.195063 0.00185397 0)
(0.194882 0.0018283 0)
(0.194522 0.00178944 0)
(0.19434 0.00176444 0)
(0.193956 0.00172495 0)
(0.193776 0.00170069 0)
(0.193367 0.00166035 0)
(0.193191 0.00163692 0)
(0.192757 0.00159568 0)
(0.192586 0.00157307 0)
(0.192126 0.00153107 0)
(0.191963 0.00150926 0)
(0.191476 0.00146674 0)
(0.191325 0.00144602 0)
(0.190809 0.00140274 0)
(0.190672 0.00138346 0)
(0.190127 0.00133991 0)
(0.190006 0.00132205 0)
(0.189431 0.00127873 0)
(0.18933 0.00126287 0)
(0.188723 0.00122022 0)
(0.188644 0.00120683 0)
(0.188003 0.00116537 0)
(0.187951 0.00115547 0)
(0.187275 0.00111707 0)
(0.187248 0.00111155 0)
(0.186536 0.00107678 0)
(0.197087 0.00578595 0)
(0.197276 0.00629943 0)
(0.197558 0.00677561 0)
(0.197938 0.00718041 0)
(0.198407 0.00747831 0)
(0.198934 0.00764488 0)
(0.199477 0.00767738 0)
(0.199985 0.00759364 0)
(0.200427 0.00742438 0)
(0.200779 0.00720149 0)
(0.201041 0.00695278 0)
(0.201218 0.00669837 0)
(0.20133 0.00645235 0)
(0.201389 0.00622227 0)
(0.201415 0.00601153 0)
(0.201417 0.00581881 0)
(0.201411 0.00564175 0)
(0.201395 0.00547652 0)
(0.20138 0.00532104 0)
(0.201359 0.00517292 0)
(0.20134 0.00503191 0)
(0.201313 0.00489675 0)
(0.201288 0.00476803 0)
(0.201255 0.00464459 0)
(0.201227 0.00452721 0)
(0.20119 0.0044145 0)
(0.201159 0.00430739 0)
(0.201121 0.00420432 0)
(0.20109 0.00410645 0)
(0.20105 0.00401204 0)
(0.20102 0.00392254 0)
(0.20098 0.00383595 0)
(0.200952 0.00375403 0)
(0.200912 0.00367445 0)
(0.200885 0.00359934 0)
(0.200845 0.00352601 0)
(0.20082 0.00345699 0)
(0.20078 0.00338922 0)
(0.200756 0.00332566 0)
(0.200715 0.00326283 0)
(0.200692 0.00320415 0)
(0.200651 0.0031457 0)
(0.200629 0.00309142 0)
(0.200585 0.00303686 0)
(0.200564 0.00298658 0)
(0.200518 0.00293547 0)
(0.200497 0.00288886 0)
(0.200447 0.0028408 0)
(0.200426 0.00279753 0)
(0.200373 0.0027521 0)
(0.200351 0.00271179 0)
(0.200293 0.00266864 0)
(0.200271 0.00263095 0)
(0.200208 0.00258977 0)
(0.200184 0.00255445 0)
(0.200115 0.00251498 0)
(0.20009 0.00248181 0)
(0.200014 0.00244371 0)
(0.199988 0.00241241 0)
(0.199903 0.00237526 0)
(0.199875 0.00234565 0)
(0.199782 0.00230917 0)
(0.199753 0.00228112 0)
(0.199649 0.00224522 0)
(0.199618 0.0022185 0)
(0.199504 0.00218295 0)
(0.199472 0.00215724 0)
(0.199346 0.00212176 0)
(0.199312 0.00209693 0)
(0.199174 0.00206127 0)
(0.199138 0.00203749 0)
(0.198987 0.00200149 0)
(0.19895 0.00197851 0)
(0.198785 0.00194201 0)
(0.198747 0.00191956 0)
(0.198567 0.00188253 0)
(0.198529 0.00186051 0)
(0.198333 0.00182289 0)
(0.198295 0.0018015 0)
(0.198082 0.00176293 0)
(0.198045 0.00174224 0)
(0.197815 0.00170281 0)
(0.197779 0.00168257 0)
(0.197532 0.00164247 0)
(0.197497 0.00162255 0)
(0.197232 0.00158207 0)
(0.197199 0.00156304 0)
(0.196915 0.00152159 0)
(0.196886 0.00150379 0)
(0.196582 0.0014623 0)
(0.196556 0.00144519 0)
(0.196233 0.0014041 0)
(0.196212 0.00138877 0)
(0.195869 0.00134849 0)
(0.195853 0.00133561 0)
(0.195487 0.00129617 0)
(0.195477 0.00128595 0)
(0.195092 0.00125053 0)
(0.195087 0.00124498 0)
(0.194679 0.00121275 0)
(0.197559 0.00558606 0)
(0.197721 0.00601085 0)
(0.197951 0.00640491 0)
(0.198252 0.0067452 0)
(0.198618 0.00700902 0)
(0.199029 0.00717788 0)
(0.19946 0.00724536 0)
(0.199875 0.00721789 0)
(0.200249 0.00711377 0)
(0.200561 0.00695538 0)
(0.200805 0.00676538 0)
(0.20098 0.0065613 0)
(0.201101 0.00635651 0)
(0.201173 0.00615837 0)
(0.201215 0.00597149 0)
(0.201231 0.00579611 0)
(0.201237 0.0056319 0)
(0.201231 0.00547628 0)
(0.201225 0.00532832 0)
(0.201211 0.00518592 0)
(0.201198 0.00504941 0)
(0.201177 0.00491749 0)
(0.201159 0.00479127 0)
(0.201133 0.00466945 0)
(0.20111 0.00455331 0)
(0.201079 0.00444123 0)
(0.201054 0.0043346 0)
(0.201022 0.0042315 0)
(0.200997 0.00413359 0)
(0.200964 0.00403869 0)
(0.200939 0.0039488 0)
(0.200906 0.0038614 0)
(0.200884 0.00377887 0)
(0.200852 0.00369831 0)
(0.200831 0.00362251 0)
(0.2008 0.00354814 0)
(0.200782 0.00347846 0)
(0.200751 0.00340967 0)
(0.200735 0.00334552 0)
(0.200706 0.00328175 0)
(0.200693 0.00322259 0)
(0.200664 0.00316331 0)
(0.200653 0.00310869 0)
(0.200624 0.00305339 0)
(0.200615 0.00300293 0)
(0.200587 0.00295116 0)
(0.20058 0.00290454 0)
(0.200551 0.00285591 0)
(0.200546 0.0028128 0)
(0.200516 0.00276693 0)
(0.200513 0.00272692 0)
(0.200483 0.00268348 0)
(0.200481 0.00264619 0)
(0.200449 0.00260487 0)
(0.200449 0.00257008 0)
(0.200415 0.00253059 0)
(0.200417 0.00249808 0)
(0.200381 0.00246009 0)
(0.200384 0.00242963 0)
(0.200344 0.00239269 0)
(0.200349 0.00236405 0)
(0.200306 0.00232791 0)
(0.200311 0.00230087 0)
(0.200265 0.0022655 0)
(0.200271 0.00223984 0)
(0.20022 0.00220505 0)
(0.200228 0.00218043 0)
(0.200172 0.00214588 0)
(0.20018 0.00212221 0)
(0.200119 0.00208749 0)
(0.200128 0.00206496 0)
(0.20006 0.00203011 0)
(0.20007 0.00200834 0)
(0.199996 0.00197325 0)
(0.200006 0.00195188 0)
(0.199926 0.00191653 0)
(0.199936 0.00189546 0)
(0.199849 0.00185959 0)
(0.199859 0.00183931 0)
(0.199763 0.0018025 0)
(0.199774 0.00178281 0)
(0.19967 0.00174554 0)
(0.199681 0.001726 0)
(0.199569 0.00168837 0)
(0.199579 0.00166888 0)
(0.199458 0.00163095 0)
(0.199468 0.00161262 0)
(0.199337 0.00157362 0)
(0.199347 0.00155618 0)
(0.199207 0.00151785 0)
(0.199215 0.00150069 0)
(0.199065 0.00146276 0)
(0.199073 0.00144742 0)
(0.198912 0.00141033 0)
(0.198919 0.00139789 0)
(0.198746 0.00136198 0)
(0.198751 0.00135078 0)
(0.19857 0.00131912 0)
(0.198572 0.00131387 0)
(0.198379 0.00128552 0)
(0.197991 0.00540293 0)
(0.198126 0.00575836 0)
(0.198311 0.00608815 0)
(0.198546 0.00637647 0)
(0.198829 0.00660851 0)
(0.199145 0.00677091 0)
(0.19948 0.00685744 0)
(0.19981 0.00686913 0)
(0.200117 0.00681594 0)
(0.200381 0.00671187 0)
(0.200599 0.00657367 0)
(0.200764 0.00641539 0)
(0.200884 0.00624914 0)
(0.200963 0.006082 0)
(0.201014 0.00591928 0)
(0.201042 0.00576225 0)
(0.201056 0.00561204 0)
(0.201059 0.00546719 0)
(0.201059 0.00532781 0)
(0.201052 0.00519221 0)
(0.201044 0.00506119 0)
(0.201029 0.00493348 0)
(0.201016 0.00481052 0)
(0.200996 0.00469102 0)
(0.200978 0.0045766 0)
(0.200953 0.00446556 0)
(0.200932 0.00435965 0)
(0.200906 0.00425678 0)
(0.200884 0.00415896 0)
(0.200857 0.00406374 0)
(0.200836 0.0039735 0)
(0.200808 0.00388541 0)
(0.200788 0.00380227 0)
(0.200762 0.00372081 0)
(0.200744 0.00364424 0)
(0.200718 0.00356888 0)
(0.200702 0.00349837 0)
(0.200677 0.00342858 0)
(0.200663 0.0033636 0)
(0.20064 0.00329887 0)
(0.200627 0.00323893 0)
(0.200605 0.00317875 0)
(0.200595 0.00312343 0)
(0.200574 0.00306727 0)
(0.200566 0.00301622 0)
(0.200545 0.00296365 0)
(0.200539 0.00291652 0)
(0.200519 0.00286714 0)
(0.200515 0.0028236 0)
(0.200496 0.00277709 0)
(0.200494 0.00273668 0)
(0.200474 0.00269276 0)
(0.200474 0.00265509 0)
(0.200454 0.00261342 0)
(0.200456 0.00257828 0)
(0.200436 0.00253852 0)
(0.200439 0.00250573 0)
(0.20042 0.00246752 0)
(0.200424 0.00243691 0)
(0.200404 0.00239983 0)
(0.20041 0.00237108 0)
(0.200389 0.00233498 0)
(0.200397 0.00230776 0)
(0.200374 0.00227259 0)
(0.200383 0.00224672 0)
(0.20036 0.00221232 0)
(0.20037 0.00218749 0)
(0.200345 0.00215345 0)
(0.200357 0.00212969 0)
(0.20033 0.00209547 0)
(0.200343 0.00207286 0)
(0.200314 0.00203872 0)
(0.200328 0.00201678 0)
(0.200297 0.00198268 0)
(0.200311 0.00196101 0)
(0.200279 0.00192688 0)
(0.200293 0.00190555 0)
(0.200258 0.00187082 0)
(0.200273 0.00185052 0)
(0.200235 0.00181495 0)
(0.200251 0.00179502 0)
(0.20021 0.00175943 0)
(0.200225 0.00173949 0)
(0.200181 0.00170379 0)
(0.200196 0.0016839 0)
(0.200149 0.00164772 0)
(0.200163 0.00162946 0)
(0.200111 0.00159234 0)
(0.200125 0.00157448 0)
(0.20007 0.00153869 0)
(0.200082 0.00152117 0)
(0.200023 0.0014856 0)
(0.200033 0.00147015 0)
(0.199969 0.00143527 0)
(0.199978 0.00142313 0)
(0.199908 0.00139035 0)
(0.199913 0.00137844 0)
(0.19984 0.0013491 0)
(0.199843 0.00134449 0)
(0.199764 0.00131903 0)
(0.198388 0.00523826 0)
(0.198497 0.00553929 0)
(0.198641 0.00581875 0)
(0.198821 0.00606564 0)
(0.199035 0.00627011 0)
(0.199274 0.00642265 0)
(0.199528 0.00651834 0)
(0.199782 0.00655593 0)
(0.200024 0.0065405 0)
(0.20024 0.00647989 0)
(0.200424 0.00638553 0)
(0.200571 0.0062676 0)
(0.200683 0.0061363 0)
(0.200762 0.00599812 0)
(0.200816 0.00585863 0)
(0.20085 0.00571985 0)
(0.20087 0.00558393 0)
(0.200879 0.00545037 0)
(0.200884 0.00532009 0)
(0.200882 0.00519189 0)
(0.200878 0.00506694 0)
(0.200869 0.00494409 0)
(0.20086 0.00482499 0)
(0.200846 0.00470838 0)
(0.200832 0.00459613 0)
(0.200813 0.00448655 0)
(0.200797 0.00438167 0)
(0.200776 0.00427933 0)
(0.200758 0.0041818 0)
(0.200736 0.00408652 0)
(0.200718 0.00399609 0)
(0.200696 0.00390755 0)
(0.200679 0.00382389 0)
(0.200658 0.00374174 0)
(0.200642 0.00366445 0)
(0.200621 0.00358829 0)
(0.200607 0.00351695 0)
(0.200588 0.00344633 0)
(0.200574 0.00338047 0)
(0.200556 0.00331493 0)
(0.200545 0.00325413 0)
(0.200528 0.00319315 0)
(0.200518 0.00313705 0)
(0.200502 0.00308013 0)
(0.200493 0.00302836 0)
(0.200478 0.00297507 0)
(0.200471 0.00292728 0)
(0.200457 0.00287725 0)
(0.200452 0.00283305 0)
(0.200438 0.00278602 0)
(0.200434 0.00274493 0)
(0.200421 0.00270063 0)
(0.200419 0.00266229 0)
(0.200406 0.00262034 0)
(0.200405 0.00258457 0)
(0.200393 0.00254455 0)
(0.200393 0.0025112 0)
(0.200382 0.00247276 0)
(0.200383 0.00244164 0)
(0.200371 0.00240442 0)
(0.200374 0.00237516 0)
(0.200363 0.00233908 0)
(0.200366 0.00231128 0)
(0.200355 0.00227625 0)
(0.200359 0.00224976 0)
(0.200348 0.00221557 0)
(0.200353 0.00219018 0)
(0.200342 0.00215637 0)
(0.200348 0.00213217 0)
(0.200336 0.00209823 0)
(0.200344 0.00207511 0)
(0.200331 0.00204141 0)
(0.200339 0.00201888 0)
(0.200326 0.00198538 0)
(0.200335 0.00196309 0)
(0.200322 0.00192966 0)
(0.200331 0.00190784 0)
(0.200317 0.00187367 0)
(0.200326 0.00185301 0)
(0.200311 0.0018182 0)
(0.200321 0.0017977 0)
(0.200305 0.0017631 0)
(0.200315 0.00174259 0)
(0.200298 0.001708 0)
(0.200308 0.00168772 0)
(0.20029 0.00165243 0)
(0.200299 0.00163401 0)
(0.200279 0.00159811 0)
(0.200288 0.00157973 0)
(0.200267 0.00154537 0)
(0.200275 0.00152771 0)
(0.200252 0.00149347 0)
(0.200259 0.00147807 0)
(0.200233 0.00144444 0)
(0.200239 0.00143234 0)
(0.200211 0.00140164 0)
(0.200214 0.00138981 0)
(0.200183 0.00136152 0)
(0.200185 0.00135728 0)