/*--------------------------------*- C++ -*----------------------------------*\
| =========                 |                                                 |
| \\      /  F ield         | OpenFOAM: The Open Source CFD Toolbox           |
|  \\    /   O peration     | Version:  2.3.0                                 |
|   \\  /    A nd           | Web:      www.OpenFOAM.org                      |
|    \\/     M anipulation  |                                                 |
\*---------------------------------------------------------------------------*/
FoamFile
{
    version     2.0;
    format      ascii;
    class       volScalarField;
    location    "0.25";
    object      p;
}
// * * * * * * * * * * * * * * * * * * * * * * * * * * * * * * * * * * * * * //

dimensions      [0 2 -2 0 0 0 0];

internalField   nonuniform List<scalar> 
3105
(
0.00227563
0.00173492
0.00125351
0.000900114
0.000613963
0.000360675
0.00013714
-5.26073e-05
-0.00020689
-0.000326676
-0.000414642
-0.000474725
-0.000511712
-0.000530686
-0.000536482
-0.000533288
-0.000524463
-0.000512509
-0.00049916
-0.000485532
-0.000472273
-0.000459712
-0.000447972
-0.000437054
-0.0004269
-0.000417425
-0.000408543
-0.000400176
-0.000392261
-0.000384746
-0.00037759
-0.000370765
-0.000364246
-0.000358015
-0.000352056
-0.000346355
-0.000340899
-0.000335672
-0.000330658
-0.000325841
-0.0003212
-0.000316712
-0.000312352
-0.00030809
-0.000303894
-0.000299727
-0.000295548
-0.000291309
-0.000286958
-0.000282431
-0.000277652
-0.000272528
-0.000266946
-0.000260768
-0.000253833
-0.000245971
-0.000237013
-0.000226828
-0.000215351
-0.000202775
-0.000189269
-0.000175199
-0.000160925
-0.000146775
-0.000133035
-0.000119918
-0.000107575
-9.60987e-05
-8.55305e-05
-7.58742e-05
-6.71053e-05
-5.91807e-05
-5.20457e-05
-4.56408e-05
-3.99048e-05
-3.47785e-05
-3.02059e-05
-2.6135e-05
-2.25185e-05
-1.93131e-05
-1.64798e-05
-1.39834e-05
-1.17918e-05
-9.87608e-06
-8.20956e-06
-6.76817e-06
-5.52958e-06
-4.47341e-06
-3.58061e-06
-2.83366e-06
-2.21607e-06
-1.71244e-06
-1.30815e-06
-9.89192e-07
-7.4198e-07
-5.52782e-07
-4.07414e-07
-2.90265e-07
-1.82602e-07
-5.20805e-08
0.00200154
0.00161355
0.00122411
0.000907095
0.000636382
0.00039072
0.000170575
-1.83665e-05
-0.000173377
-0.000294823
-0.000385026
-0.000447672
-0.000487351
-0.000508999
-0.000517339
-0.000516491
-0.000509774
-0.000499676
-0.000487936
-0.000475684
-0.000463593
-0.000452018
-0.00044111
-0.000430895
-0.000421339
-0.000412375
-0.000403935
-0.000395954
-0.000388376
-0.00038116
-0.000374272
-0.000367687
-0.000361386
-0.000355353
-0.000349577
-0.000344044
-0.000338743
-0.00033366
-0.000328782
-0.000324092
-0.000319571
-0.000315197
-0.000310945
-0.000306787
-0.00030269
-0.000298619
-0.000294532
-0.000290383
-0.00028612
-0.000281679
-0.000276987
-0.000271952
-0.000266462
-0.000260381
-0.000253547
-0.000245785
-0.000236923
-0.00022682
-0.00021548
-0.000202957
-0.00018948
-0.00017541
-0.000161129
-0.000146971
-0.000133221
-0.000120093
-0.000107738
-9.62478e-05
-8.56666e-05
-7.5998e-05
-6.72176e-05
-5.92821e-05
-5.21373e-05
-4.57232e-05
-3.99789e-05
-3.48449e-05
-3.02652e-05
-2.61878e-05
-2.25653e-05
-1.93545e-05
-1.65163e-05
-1.40154e-05
-1.18197e-05
-9.90021e-06
-8.23037e-06
-6.78603e-06
-5.5448e-06
-4.4863e-06
-3.59147e-06
-2.84274e-06
-2.22362e-06
-1.71867e-06
-1.31327e-06
-9.93379e-07
-7.45403e-07
-5.55599e-07
-4.09802e-07
-2.9209e-07
-1.83906e-07
-5.03145e-08
0.00179701
0.00150468
0.0011802
0.000892634
0.000639068
0.00040758
0.000198596
1.70616e-05
-0.000134155
-0.000254896
-0.000346815
-0.000412846
-0.000456838
-0.000483089
-0.000495847
-0.000498934
-0.000495524
-0.000488083
-0.000478403
-0.00046771
-0.000456782
-0.000446074
-0.000435818
-0.000426105
-0.000416948
-0.000408313
-0.000400154
-0.00039242
-0.000385067
-0.000378055
-0.000371357
-0.000364948
-0.000358812
-0.000352934
-0.000347303
-0.000341906
-0.000336734
-0.000331772
-0.000327009
-0.000322428
-0.00031801
-0.000313734
-0.000309577
-0.00030551
-0.000301501
-0.000297515
-0.000293512
-0.000289446
-0.000285264
-0.000280905
-0.000276295
-0.000271344
-0.000265939
-0.000259944
-0.000253199
-0.000245523
-0.000236739
-0.000226693
-0.000215301
-0.000202737
-0.000189341
-0.000175371
-0.000161143
-0.000147004
-0.000133264
-0.000120143
-0.000107793
-9.63067e-05
-8.57269e-05
-7.6058e-05
-6.72761e-05
-5.93385e-05
-5.21908e-05
-4.57735e-05
-4.00258e-05
-3.48883e-05
-3.0305e-05
-2.62242e-05
-2.25982e-05
-1.93841e-05
-1.65427e-05
-1.40388e-05
-1.18404e-05
-9.91832e-06
-8.2461e-06
-6.79959e-06
-5.55643e-06
-4.49621e-06
-3.59987e-06
-2.84986e-06
-2.22969e-06
-1.72392e-06
-1.31795e-06
-9.97752e-07
-7.49787e-07
-5.60354e-07
-4.15291e-07
-2.98523e-07
-1.89767e-07
-4.62358e-08
0.00162069
0.00139155
0.0011207
0.000865445
0.000633936
0.000420933
0.000226932
5.60887e-05
-8.86443e-05
-0.00020657
-0.000298669
-0.000367124
-0.000415009
-0.000445917
-0.000463529
-0.000471263
-0.000472052
-0.000468251
-0.000461633
-0.000453461
-0.000444582
-0.000435527
-0.000426603
-0.000417969
-0.00040969
-0.00040178
-0.000394225
-0.000387002
-0.000380085
-0.000373452
-0.000367084
-0.000360967
-0.000355091
-0.000349446
-0.000344025
-0.00033882
-0.000333822
-0.000329022
-0.000324407
-0.000319964
-0.000315676
-0.000311522
-0.00030748
-0.000303523
-0.000299619
-0.000295735
-0.00029183
-0.00028786
-0.000283772
-0.000279506
-0.000274988
-0.000270128
-0.000264812
-0.000258903
-0.000252238
-0.000244637
-0.00023592
-0.000225945
-0.000214657
-0.000202117
-0.000188659
-0.000174768
-0.000160729
-0.000146745
-0.000133109
-0.00012006
-0.000107763
-9.63168e-05
-8.57668e-05
-7.61186e-05
-6.73502e-05
-5.94204e-05
-5.22763e-05
-4.58596e-05
-4.01103e-05
-3.49698e-05
-3.03825e-05
-2.62971e-05
-2.26663e-05
-1.94471e-05
-1.66007e-05
-1.40918e-05
-1.18885e-05
-9.96178e-06
-8.28512e-06
-6.83441e-06
-5.58734e-06
-4.52352e-06
-3.62391e-06
-2.871e-06
-2.2483e-06
-1.74044e-06
-1.33287e-06
-1.01165e-06
-7.63361e-07
-5.74456e-07
-4.30864e-07
-3.16068e-07
-2.06407e-07
-4.46342e-08
0.00146223
0.00127985
0.00105604
0.000833721
0.000625345
0.000431003
0.000252205
9.27132e-05
-4.45011e-05
-0.000158355
-0.000249321
-0.000318991
-0.000369793
-0.00040467
-0.000426742
-0.000438987
-0.000444036
-0.000444063
-0.000440766
-0.000435401
-0.000428854
-0.000421715
-0.00041436
-0.000407012
-0.000399796
-0.000392773
-0.000385966
-0.000379383
-0.00037302
-0.000366871
-0.000360932
-0.000355196
-0.000349661
-0.000344323
-0.000339179
-0.000334225
-0.000329456
-0.000324864
-0.00032044
-0.000316172
-0.000312045
-0.000308041
-0.000304137
-0.00030031
-0.000296528
-0.000292759
-0.000288964
-0.000285099
-0.000281112
-0.000276943
-0.000272517
-0.000267745
-0.000262512
-0.000256683
-0.000250096
-0.000242574
-0.000233945
-0.000224079
-0.000212939
-0.000200619
-0.000187396
-0.000173584
-0.000159633
-0.000145893
-0.000132512
-0.000119668
-0.00010752
-9.61876e-05
-8.57232e-05
-7.61386e-05
-6.74159e-05
-5.95173e-05
-5.23935e-05
-4.59887e-05
-4.02453e-05
-3.51062e-05
-3.05174e-05
-2.64282e-05
-2.27921e-05
-1.95668e-05
-1.67135e-05
-1.41975e-05
-1.19868e-05
-1.00527e-05
-8.36871e-06
-6.91081e-06
-5.65677e-06
-4.58627e-06
-3.68037e-06
-2.92161e-06
-2.2936e-06
-1.78107e-06
-1.36958e-06
-1.04539e-06
-7.95303e-07
-6.06099e-07
-4.63978e-07
-3.52064e-07
-2.42803e-07
-6.05193e-08
0.00132421
0.0011763
0.00099104
0.00079865
0.000612346
0.000435874
0.000271916
0.000123984
-5.07158e-06
-0.00011394
-0.000202704
-0.000272479
-0.000325139
-0.000363062
-0.000388845
-0.000405039
-0.00041396
-0.000417579
-0.000417485
-0.000414895
-0.000410705
-0.000405546
-0.000399844
-0.000393875
-0.000387814
-0.000381765
-0.000375787
-0.000369917
-0.000364173
-0.000358566
-0.000353105
-0.000347795
-0.00034264
-0.000337642
-0.000332805
-0.000328127
-0.000323607
-0.000319242
-0.000315023
-0.000310941
-0.000306984
-0.000303135
-0.000299374
-0.000295677
-0.000292017
-0.00028836
-0.000284669
-0.000280901
-0.000277005
-0.00027292
-0.000268573
-0.000263874
-0.000258712
-0.000252953
-0.000246442
-0.000239014
-0.000230512
-0.000220822
-0.000209923
-0.000197917
-0.000185051
-0.00017164
-0.000158003
-0.000144459
-0.000131335
-0.000118793
-0.000106909
-9.5785e-05
-8.54805e-05
-7.60179e-05
-6.73872e-05
-5.95565e-05
-5.24815e-05
-4.61106e-05
-4.03896e-05
-3.52644e-05
-3.06831e-05
-2.65968e-05
-2.29602e-05
-1.97318e-05
-1.68736e-05
-1.43513e-05
-1.21334e-05
-1.01914e-05
-8.49903e-06
-7.03246e-06
-5.76962e-06
-4.69033e-06
-3.7758e-06
-3.0087e-06
-2.37283e-06
-1.85307e-06
-1.43523e-06
-1.10583e-06
-8.52096e-07
-6.61331e-07
-5.20372e-07
-4.127e-07
-3.08729e-07
-1.21028e-07
0.00120388
0.00108106
0.000926446
0.000760444
0.000594989
0.000435721
0.000286207
0.000149804
2.92053e-05
-7.41322e-05
-0.000159966
-0.000228998
-0.000282633
-0.000322754
-0.000351494
-0.000371009
-0.000383314
-0.00039017
-0.000393038
-0.000393077
-0.000391168
-0.000387958
-0.000383908
-0.000379336
-0.000374455
-0.000369407
-0.000364286
-0.000359153
-0.000354048
-0.000349
-0.000344031
-0.000339157
-0.000334388
-0.000329737
-0.000325208
-0.000320807
-0.000316536
-0.000312393
-0.000308374
-0.000304472
-0.000300676
-0.000296971
-0.000293339
-0.000289759
-0.000286203
-0.000282641
-0.000279035
-0.000275343
-0.000271516
-0.000267493
-0.000263203
-0.000258557
-0.000253448
-0.000247749
-0.000241318
-0.000234003
-0.000225668
-0.000216219
-0.000205645
-0.000194046
-0.000181643
-0.00016872
-0.000155572
-0.000142495
-0.000129717
-0.000117454
-0.000105877
-9.50367e-05
-8.49643e-05
-7.56838e-05
-6.71939e-05
-5.94709e-05
-5.24773e-05
-4.61669e-05
-4.04899e-05
-3.5396e-05
-3.08361e-05
-2.67638e-05
-2.31354e-05
-1.99109e-05
-1.70533e-05
-1.4529e-05
-1.23071e-05
-1.03594e-05
-8.66027e-06
-7.18596e-06
-5.91472e-06
-4.82656e-06
-3.90292e-06
-3.12667e-06
-2.48183e-06
-1.95354e-06
-1.52792e-06
-1.19193e-06
-9.33293e-07
-7.40123e-07
-6.00387e-07
-4.9923e-07
-4.09607e-07
-2.53608e-07
0.00109797
0.000993802
0.000863559
0.000720506
0.000574391
0.000431429
0.000295713
0.000170517
5.83944e-05
-3.91121e-05
-0.000121501
-0.000189126
-0.000242993
-0.000284564
-0.000315564
-0.000337793
-0.000352982
-0.000362684
-0.000368225
-0.000370688
-0.000370923
-0.000369577
-0.00036713
-0.000363928
-0.000360216
-0.000356169
-0.000351906
-0.000347513
-0.000343051
-0.000338566
-0.00033409
-0.000329651
-0.000325268
-0.000320958
-0.000316734
-0.000312603
-0.000308572
-0.000304642
-0.000300812
-0.000297077
-0.000293428
-0.000289853
-0.000286334
-0.000282853
-0.000279382
-0.000275894
-0.000272352
-0.000268715
-0.000264935
-0.000260953
-0.000256698
-0.000252087
-0.00024702
-0.000241377
-0.000235031
-0.000227849
-0.000219714
-0.000210551
-0.000200359
-0.000189232
-0.000177362
-0.000165
-0.000152416
-0.000139873
-0.000127591
-0.000115759
-0.000104516
-9.39663e-05
-8.41636e-05
-7.51111e-05
-6.68047e-05
-5.92255e-05
-5.23436e-05
-4.61193e-05
-4.05079e-05
-3.54633e-05
-3.09401e-05
-2.68943e-05
-2.32848e-05
-2.00729e-05
-1.72231e-05
-1.47028e-05
-1.24818e-05
-1.05327e-05
-8.83001e-06
-7.35064e-06
-6.0731e-06
-4.97768e-06
-4.04608e-06
-3.26145e-06
-2.60808e-06
-2.07143e-06
-1.638e-06
-1.29522e-06
-1.03151e-06
-8.35965e-07
-6.98203e-07
-6.06569e-07
-5.42514e-07
-4.66051e-07
0.00100394
0.000914142
0.000803377
0.000679981
0.000551404
0.000423627
0.000300923
0.000186484
8.27334e-05
-8.75976e-06
-8.73037e-05
-0.000152971
-0.000206433
-0.000248791
-0.000281415
-0.000305788
-0.000323376
-0.000335532
-0.000343443
-0.000348105
-0.000350324
-0.000350735
-0.00034982
-0.000347946
-0.00034538
-0.000342319
-0.000338909
-0.000335256
-0.000331438
-0.000327514
-0.000323532
-0.000319528
-0.000315529
-0.000311558
-0.000307634
-0.000303769
-0.000299972
-0.000296248
-0.000292599
-0.000289022
-0.00028551
-0.000282053
-0.000278636
-0.000275241
-0.000271843
-0.000268415
-0.000264923
-0.000261327
-0.00025758
-0.000253625
-0.000249396
-0.000244813
-0.000239784
-0.000234201
-0.000227951
-0.000220918
-0.000213007
-0.00020416
-0.000194381
-0.000183757
-0.000172454
-0.000160692
-0.000148711
-0.000136745
-0.000125002
-0.000113655
-0.000102839
-9.26427e-05
-8.31236e-05
-7.43167e-05
-6.62203e-05
-5.88128e-05
-5.20685e-05
-4.59527e-05
-4.04261e-05
-3.54474e-05
-3.0975e-05
-2.69681e-05
-2.33877e-05
-2.01974e-05
-1.7363e-05
-1.48531e-05
-1.26385e-05
-1.06925e-05
-8.99035e-06
-7.50927e-06
-6.22826e-06
-5.12796e-06
-4.19042e-06
-3.39906e-06
-2.73852e-06
-2.19461e-06
-1.75423e-06
-1.40539e-06
-1.13724e-06
-9.40029e-07
-8.05389e-07
-7.26068e-07
-6.96728e-07
-7.36505e-07
0.000919812
0.00084143
0.000746353
0.000639638
0.000526712
0.000412903
0.000302366
0.000198169
0.000102594
1.71955e-05
-5.72088e-05
-0.000120471
-0.000172984
-0.000215547
-0.000249221
-0.000275208
-0.000294732
-0.000308957
-0.000318931
-0.000325558
-0.000329588
-0.000331631
-0.000332165
-0.000331562
-0.000330106
-0.000328012
-0.000325443
-0.000322522
-0.000319344
-0.000315983
-0.000312494
-0.000308924
-0.000305309
-0.000301678
-0.000298053
-0.000294452
-0.000290888
-0.000287369
-0.000283898
-0.000280476
-0.000277098
-0.000273756
-0.000270436
-0.000267122
-0.000263793
-0.00026042
-0.000256973
-0.000253413
-0.000249695
-0.000245766
-0.000241563
-0.000237011
-0.000232027
-0.000226515
-0.000220375
-0.00021351
-0.000205841
-0.000197325
-0.000187972
-0.00017786
-0.000167131
-0.000155979
-0.000144613
-0.000133243
-0.000122058
-0.000111219
-0.000100852
-9.10472e-05
-8.18643e-05
-7.3333e-05
-6.54603e-05
-5.82406e-05
-5.1652e-05
-4.56629e-05
-4.02379e-05
-3.53401e-05
-3.09317e-05
-2.6975e-05
-2.34338e-05
-2.02736e-05
-1.7462e-05
-1.49689e-05
-1.27662e-05
-1.08281e-05
-9.13046e-06
-7.65123e-06
-6.36982e-06
-5.26731e-06
-4.32612e-06
-3.53005e-06
-2.86408e-06
-2.3144e-06
-1.86838e-06
-1.5146e-06
-1.24304e-06
-1.04515e-06
-9.14751e-07
-8.49366e-07
-8.57e-07
-1.01298e-06
0.000843986
0.000774928
0.000692637
0.000600034
0.000500926
0.000399827
0.000300574
0.000206043
0.000118366
3.90494e-05
-3.10158e-05
-9.15159e-05
-0.000142622
-0.000184876
-0.000219082
-0.000246192
-0.000267213
-0.000283131
-0.00029486
-0.000303207
-0.000308862
-0.000312399
-0.000314282
-0.000314881
-0.000314488
-0.00031333
-0.000311582
-0.000309383
-0.000306839
-0.000304036
-0.00030104
-0.000297906
-0.000294676
-0.000291385
-0.000288061
-0.000284727
-0.000281397
-0.000278083
-0.000274793
-0.000271528
-0.000268285
-0.000265059
-0.000261839
-0.000258609
-0.000255349
-0.000252034
-0.000248635
-0.000245115
-0.000241431
-0.000237534
-0.000233365
-0.000228856
-0.00022393
-0.000218504
-0.000212492
-0.000205812
-0.0001984
-0.000190225
-0.0001813
-0.000171695
-0.000161535
-0.000150985
-0.00014023
-0.000129457
-0.000118835
-0.000108513
-9.86098e-05
-8.92123e-05
-8.03806e-05
-7.2148e-05
-6.45281e-05
-5.75181e-05
-5.11004e-05
-4.5251e-05
-3.9941e-05
-3.51371e-05
-3.08045e-05
-2.69088e-05
-2.34163e-05
-2.02947e-05
-1.75134e-05
-1.50436e-05
-1.28585e-05
-1.09332e-05
-9.24444e-06
-7.77075e-06
-6.49218e-06
-5.39026e-06
-4.44788e-06
-3.64923e-06
-2.97971e-06
-2.42592e-06
-1.9757e-06
-1.61811e-06
-1.34384e-06
-1.14573e-06
-1.01987e-06
-9.68072e-07
-1.00994e-06
-1.25688e-06
0.000775181
0.000713921
0.000642192
0.00056154
0.000474546
0.000384906
0.00029603
0.000210549
0.00013043
5.71063e-05
-8.50301e-06
-6.59672e-05
-0.000115283
-0.000156786
-0.000191059
-0.00021884
-0.000240943
-0.000258191
-0.000271367
-0.000281185
-0.000288268
-0.000293148
-0.000296267
-0.000297987
-0.000298598
-0.000298334
-0.00029738
-0.000295884
-0.000293963
-0.000291711
-0.000289203
-0.000286502
-0.000283657
-0.000280708
-0.000277688
-0.000274621
-0.000271529
-0.000268425
-0.000265319
-0.000262215
-0.000259113
-0.000256008
-0.000252892
-0.000249751
-0.000246567
-0.000243317
-0.000239973
-0.000236502
-0.000232863
-0.000229009
-0.000224888
-0.000220437
-0.000215587
-0.000210266
-0.0002044
-0.000197922
-0.00019078
-0.000182951
-0.000174453
-0.000165347
-0.000155742
-0.000145781
-0.000135625
-0.00012544
-0.000115378
-0.000105574
-9.61401e-05
-8.71593e-05
-7.86914e-05
-7.07724e-05
-6.34194e-05
-5.66337e-05
-5.04042e-05
-4.47119e-05
-3.95317e-05
-3.48344e-05
-3.05892e-05
-2.67648e-05
-2.33302e-05
-2.02553e-05
-1.75115e-05
-1.50715e-05
-1.29097e-05
-1.10023e-05
-9.32693e-06
-7.86281e-06
-6.59063e-06
-5.49247e-06
-4.55169e-06
-3.75294e-06
-3.08204e-06
-2.52604e-06
-2.07326e-06
-1.71337e-06
-1.43785e-06
-1.24065e-06
-1.11957e-06
-1.0797e-06
-1.14756e-06
-1.44473e-06
0.000712362
0.000657752
0.000594865
0.000524372
0.000447954
0.000368573
0.000289175
0.000212108
0.000139163
7.16774e-05
1.05672e-05
-4.36633e-05
-9.08802e-05
-0.000131254
-0.000165183
-0.000193225
-0.000216022
-0.000234252
-0.000248576
-0.000259613
-0.000267919
-0.000273981
-0.000278211
-0.000280955
-0.0002825
-0.000283079
-0.000282881
-0.000282061
-0.000280744
-0.00027903
-0.000277003
-0.000274731
-0.000272268
-0.00026966
-0.000266944
-0.000264148
-0.000261296
-0.000258406
-0.000255488
-0.00025255
-0.000249593
-0.000246616
-0.000243611
-0.000240567
-0.000237468
-0.000234292
-0.000231014
-0.000227603
-0.000224021
-0.000220226
-0.000216168
-0.000211793
-0.000207039
-0.000201842
-0.000196142
-0.000189881
-0.00018302
-0.000175543
-0.000167467
-0.00015885
-0.000149786
-0.000140397
-0.000130826
-0.000121217
-0.000111707
-0.000102419
-9.3456e-05
-8.48981e-05
-7.68033e-05
-6.92094e-05
-6.21363e-05
-5.55894e-05
-4.95624e-05
-4.40404e-05
-3.90028e-05
-3.44244e-05
-3.02781e-05
-2.65357e-05
-2.31688e-05
-2.01497e-05
-1.74514e-05
-1.50484e-05
-1.29164e-05
-1.10326e-05
-9.37562e-06
-7.92549e-06
-6.66359e-06
-5.5726e-06
-4.63643e-06
-3.84019e-06
-3.17021e-06
-2.61398e-06
-2.16033e-06
-1.79952e-06
-1.52371e-06
-1.32774e-06
-1.2107e-06
-1.17952e-06
-1.26258e-06
-1.57212e-06
0.000654678
0.000605832
0.000550442
0.000488631
0.000421434
0.000351193
0.000280399
0.000211108
0.000144922
8.30711e-05
2.644e-05
-2.44275e-05
-6.93044e-05
-0.000108232
-0.000141462
-0.000169396
-0.000192532
-0.000211414
-0.000226593
-0.0002386
-0.000247921
-0.000254994
-0.000260199
-0.000263862
-0.000266258
-0.000267617
-0.000268129
-0.000267951
-0.000267211
-0.000266018
-0.000264458
-0.000262605
-0.000260519
-0.000258248
-0.000255834
-0.00025331
-0.0002507
-0.000248026
-0.0002453
-0.000242533
-0.000239729
-0.000236886
-0.000234
-0.000231062
-0.000228056
-0.000224965
-0.000221764
-0.000218426
-0.000214915
-0.000211194
-0.000207218
-0.000202936
-0.000198297
-0.000193245
-0.000187728
-0.0001817
-0.00017513
-0.000168008
-0.000160353
-0.000152215
-0.000143677
-0.000134845
-0.000125843
-0.000116797
-0.00010783
-9.90535e-05
-9.05619e-05
-8.24307e-05
-7.47165e-05
-6.74575e-05
-6.06761e-05
-5.4381e-05
-4.85696e-05
-4.32314e-05
-3.83495e-05
-3.39027e-05
-2.98672e-05
-2.62177e-05
-2.29285e-05
-1.99742e-05
-1.73296e-05
-1.49709e-05
-1.28752e-05
-1.10208e-05
-9.38743e-06
-7.95592e-06
-6.70839e-06
-5.62818e-06
-4.69978e-06
-3.90886e-06
-3.24221e-06
-2.68785e-06
-2.23509e-06
-1.87474e-06
-1.59956e-06
-1.40507e-06
-1.2911e-06
-1.26494e-06
-1.35287e-06
-1.64796e-06
0.000601424
0.000557637
0.000508681
0.000454336
0.000395186
0.000333063
0.000270046
0.000207903
0.000148046
9.15874e-05
3.93628e-05
-8.07247e-06
-5.04298e-05
-8.7654e-05
-0.000119879
-0.00014738
-0.00017053
-0.000189758
-0.000205514
-0.000218244
-0.00022837
-0.000236279
-0.000242316
-0.000246782
-0.000249938
-0.000252005
-0.00025317
-0.00025359
-0.000253396
-0.000252698
-0.000251587
-0.000250139
-0.00024842
-0.00024648
-0.000244365
-0.00024211
-0.000239743
-0.000237286
-0.000234756
-0.000232165
-0.000229517
-0.000226816
-0.000224057
-0.000221232
-0.00021833
-0.000215334
-0.000212223
-0.000208971
-0.000205546
-0.000201915
-0.000198037
-0.000193868
-0.000189363
-0.000184474
-0.000179157
-0.000173376
-0.000167107
-0.000160345
-0.000153107
-0.00014544
-0.000137415
-0.000129125
-0.000120677
-0.000112182
-0.000103749
-9.54787e-05
-8.74575e-05
-7.9756e-05
-7.24286e-05
-6.55135e-05
-5.90347e-05
-5.30034e-05
-4.74206e-05
-4.22792e-05
-3.75658e-05
-3.3263e-05
-2.93499e-05
-2.58044e-05
-2.26031e-05
-1.97228e-05
-1.71405e-05
-1.48339e-05
-1.27814e-05
-1.09628e-05
-9.35866e-06
-7.95077e-06
-6.72208e-06
-5.65661e-06
-4.73949e-06
-3.95693e-06
-3.29629e-06
-2.74607e-06
-2.29609e-06
-1.93766e-06
-1.66405e-06
-1.47122e-06
-1.35917e-06
-1.33439e-06
-1.41876e-06
-1.68417e-06
0.000552006
0.000512708
0.000469331
0.000421451
0.000369337
0.000314418
0.000258408
0.000202809
0.000148847
9.7513e-05
4.95806e-05
5.59565e-06
-3.41176e-05
-6.94349e-05
-0.000100399
-0.000127183
-0.000150056
-0.000169347
-0.000185415
-0.000198632
-0.000209355
-0.000217922
-0.000224641
-0.000229787
-0.000233603
-0.000236297
-0.000238051
-0.000239018
-0.000239328
-0.000239094
-0.000238407
-0.000237348
-0.000235981
-0.000234363
-0.00023254
-0.00023055
-0.000228424
-0.000226185
-0.000223853
-0.00022144
-0.000218955
-0.0002164
-0.000213775
-0.000211073
-0.000208285
-0.000205395
-0.000202386
-0.000199233
-0.00019591
-0.000192385
-0.000188622
-0.000184584
-0.000180231
-0.000175523
-0.000170424
-0.000164903
-0.000158944
-0.000152544
-0.000145721
-0.000138517
-0.000130994
-0.000123232
-0.000115325
-0.000107369
-9.94615e-05
-9.16922e-05
-8.414e-05
-7.68705e-05
-6.99355e-05
-6.33726e-05
-5.72066e-05
-5.14509e-05
-4.61091e-05
-4.11772e-05
-3.66453e-05
-3.24988e-05
-2.87202e-05
-2.52899e-05
-2.2187e-05
-1.93906e-05
-1.68795e-05
-1.46331e-05
-1.26313e-05
-1.08551e-05
-9.28612e-06
-7.90723e-06
-6.70214e-06
-5.65564e-06
-4.75352e-06
-3.98261e-06
-3.3308e-06
-2.78714e-06
-2.34193e-06
-1.98695e-06
-1.71586e-06
-1.52482e-06
-1.4136e-06
-1.3871e-06
-1.46197e-06
-1.69122e-06
0.000505916
0.000470637
0.000432146
0.000389904
0.000343965
0.000295439
0.000245732
0.000196106
0.000147611
0.000101119
5.73332e-05
1.67742e-05
-2.02185e-05
-5.34744e-05
-8.29684e-05
-0.000108793
-0.000131131
-0.000150227
-0.000166363
-0.000179839
-0.000190956
-0.000200004
-0.000207253
-0.000212951
-0.000217318
-0.000220552
-0.000222822
-0.000224277
-0.000225046
-0.000225238
-0.000224946
-0.000224251
-0.00022322
-0.00022191
-0.000220369
-0.000218638
-0.000216748
-0.000214725
-0.000212591
-0.000210359
-0.00020804
-0.000205638
-0.000203154
-0.000200583
-0.000197917
-0.000195145
-0.000192249
-0.00018921
-0.000186003
-0.000182599
-0.00017897
-0.00017508
-0.000170897
-0.000166387
-0.000161519
-0.000156272
-0.00015063
-0.000144596
-0.000138187
-0.00013144
-0.000124408
-0.000117163
-0.000109783
-0.000102356
-9.49655e-05
-8.76921e-05
-8.06074e-05
-7.37718e-05
-6.72342e-05
-6.1031e-05
-5.51874e-05
-4.97183e-05
-4.46296e-05
-3.99199e-05
-3.5582e-05
-3.16044e-05
-2.79723e-05
-2.46685e-05
-2.16749e-05
-1.89723e-05
-1.65416e-05
-1.43638e-05
-1.24204e-05
-1.06935e-05
-9.16604e-06
-7.82178e-06
-6.64535e-06
-5.62231e-06
-4.73917e-06
-3.98338e-06
-3.34345e-06
-2.80893e-06
-2.37061e-06
-2.0207e-06
-1.75315e-06
-1.56416e-06
-1.45292e-06
-1.42239e-06
-1.48417e-06
-1.67623e-06
0.000462718
0.000431064
0.00039689
0.000359598
0.0003191
0.000276256
0.000232218
0.000188033
0.000144593
0.000102656
6.2849e-05
2.56588e-05
-8.5762e-06
-3.96579e-05
-6.75128e-05
-9.21719e-05
-0.000113749
-0.000132417
-0.000148394
-0.000161916
-0.000173231
-0.000182585
-0.00019021
-0.000196327
-0.000201135
-0.000204813
-0.000207521
-0.000209401
-0.000210575
-0.00021115
-0.000211219
-0.000210861
-0.000210143
-0.000209124
-0.000207854
-0.000206372
-0.000204712
-0.000202903
-0.000200966
-0.000198917
-0.000196766
-0.000194522
-0.000192184
-0.000189753
-0.00018722
-0.000184575
-0.000181806
-0.000178893
-0.000175816
-0.000172551
-0.00016907
-0.000165346
-0.00016135
-0.000157053
-0.000152433
-0.000147469
-0.000142153
-0.000136489
-0.000130492
-0.000124195
-0.000117647
-0.000110907
-0.000104045
-9.71366e-05
-9.02555e-05
-8.34733e-05
-7.68545e-05
-7.04545e-05
-6.43189e-05
-5.84827e-05
-5.2971e-05
-4.77994e-05
-4.29756e-05
-3.85005e-05
-3.43694e-05
-3.05733e-05
-2.70999e-05
-2.39345e-05
-2.10611e-05
-1.84627e-05
-1.61221e-05
-1.40218e-05
-1.21449e-05
-1.04748e-05
-8.99557e-06
-7.69198e-06
-6.54961e-06
-5.55485e-06
-4.69495e-06
-3.95804e-06
-3.33321e-06
-2.81059e-06
-2.38142e-06
-2.03831e-06
-1.77542e-06
-1.58886e-06
-1.4771e-06
-1.44111e-06
-1.48808e-06
-1.64451e-06
0.000422028
0.000393671
0.000363344
0.00033043
0.000294752
0.000256973
0.000218034
0.000178801
0.000140024
0.000102353
6.63408e-05
3.24334e-05
9.5668e-07
-2.78784e-05
-5.39661e-05
-7.72915e-05
-9.79141e-05
-0.000115951
-0.000131562
-0.000144931
-0.000156258
-0.000165746
-0.000173596
-0.000179998
-0.000185128
-0.000189151
-0.000192213
-0.000194446
-0.000195965
-0.000196874
-0.000197263
-0.000197208
-0.000196778
-0.000196029
-0.000195012
-0.000193767
-0.00019233
-0.000190729
-0.000188986
-0.000187118
-0.000185139
-0.000183055
-0.00018087
-0.000178585
-0.000176193
-0.000173687
-0.000171055
-0.000168282
-0.00016535
-0.000162237
-0.000158922
-0.00015538
-0.000151586
-0.000147519
-0.000143158
-0.000138489
-0.000133507
-0.000128215
-0.00012263
-0.00011678
-0.000110707
-0.000104463
-9.81096e-05
-9.17105e-05
-8.53316e-05
-7.9036e-05
-7.28814e-05
-6.69183e-05
-6.11889e-05
-5.57262e-05
-5.05548e-05
-4.56908e-05
-4.11433e-05
-3.69148e-05
-3.30028e-05
-2.94004e-05
-2.60977e-05
-2.30823e-05
-2.03402e-05
-1.78565e-05
-1.56156e-05
-1.36019e-05
-1.17997e-05
-1.01939e-05
-8.76968e-06
-7.51295e-06
-6.41021e-06
-5.44871e-06
-4.61646e-06
-3.90232e-06
-3.29599e-06
-2.78815e-06
-2.37054e-06
-2.03611e-06
-1.77918e-06
-1.59571e-06
-1.4834e-06
-1.44143e-06
-1.47343e-06
-1.59681e-06
0.000383491
0.00035815
0.000331276
0.000302265
0.000270881
0.000237639
0.000203302
0.000168587
0.000134114
0.000100438
6.80405e-05
3.732e-05
8.58283e-06
-1.79586e-05
-4.21795e-05
-6.40325e-05
-8.35361e-05
-0.000100762
-0.000115822
-0.000128856
-0.000140022
-0.000149485
-0.000157413
-0.000163969
-0.000169309
-0.000173576
-0.000176906
-0.000179418
-0.000181221
-0.000182413
-0.000183078
-0.000183292
-0.000183119
-0.000182618
-0.000181836
-0.000180815
-0.00017959
-0.000178189
-0.000176636
-0.000174949
-0.000173141
-0.000171222
-0.000169195
-0.000167062
-0.00016482
-0.000162463
-0.00015998
-0.00015736
-0.000154586
-0.000151642
-0.000148507
-0.000145162
-0.000141587
-0.000137763
-0.000133675
-0.000129311
-0.000124669
-0.000119754
-0.00011458
-0.000109173
-0.00010357
-9.78149e-05
-9.19612e-05
-8.60646e-05
-8.01824e-05
-7.43699e-05
-6.86788e-05
-6.31545e-05
-5.78357e-05
-5.27534e-05
-4.79312e-05
-4.33854e-05
-3.91257e-05
-3.51561e-05
-3.14759e-05
-2.808e-05
-2.49607e-05
-2.21075e-05
-1.95085e-05
-1.71505e-05
-1.50198e-05
-1.31023e-05
-1.13839e-05
-9.85057e-06
-8.48892e-06
-7.28583e-06
-6.22882e-06
-5.30602e-06
-4.50626e-06
-3.81911e-06
-3.23494e-06
-2.74499e-06
-2.34149e-06
-2.01771e-06
-1.76816e-06
-1.5886e-06
-1.47605e-06
-1.42822e-06
-1.44617e-06
-1.53761e-06
0.000339943
0.000317898
0.000294728
0.000269863
0.000243037
0.000214622
0.000185214
0.000155378
0.000125609
9.63559e-05
6.80207e-05
4.09478e-05
1.54127e-05
-8.38061e-06
-3.02973e-05
-5.02654e-05
-6.82687e-05
-8.43372e-05
-9.85383e-05
-0.000110967
-0.000121739
-0.00013098
-0.000138823
-0.000145401
-0.000150844
-0.000155275
-0.00015881
-0.000161558
-0.000163616
-0.000165073
-0.000166008
-0.000166491
-0.000166585
-0.000166344
-0.000165815
-0.000165039
-0.00016405
-0.000162877
-0.000161543
-0.000160067
-0.000158463
-0.000156741
-0.000154906
-0.000152963
-0.000150908
-0.000148738
-0.000146446
-0.000144021
-0.000141452
-0.000138724
-0.000135821
-0.000132729
-0.000129431
-0.000125912
-0.000122162
-0.000118173
-0.000113944
-0.00010948
-0.000104795
-9.99112e-05
-9.48596e-05
-8.96778e-05
-8.44094e-05
-7.91015e-05
-7.38024e-05
-6.85595e-05
-6.34172e-05
-5.84154e-05
-5.35885e-05
-4.8965e-05
-4.45667e-05
-4.04098e-05
-3.65044e-05
-3.28558e-05
-2.94647e-05
-2.63282e-05
-2.34406e-05
-2.07937e-05
-1.83777e-05
-1.61816e-05
-1.41934e-05
-1.24011e-05
-1.07921e-05
-9.35422e-06
-8.07532e-06
-6.94367e-06
-5.94796e-06
-5.07745e-06
-4.32193e-06
-3.67187e-06
-3.11846e-06
-2.65362e-06
-2.27015e-06
-1.96175e-06
-1.72309e-06
-1.54979e-06
-1.4382e-06
-1.38476e-06
-1.38875e-06
-1.44514e-06
0.000291356
0.000272817
0.000253503
0.000232907
0.000210754
0.000187303
0.000163
0.000138269
0.000113486
8.89972e-05
6.51213e-05
4.21398e-05
2.02869e-05
-2.54448e-07
-1.93522e-05
-3.69227e-05
-5.2926e-05
-6.73607e-05
-8.02572e-05
-9.16716e-05
-0.000101679
-0.00011037
-0.000117839
-0.00012419
-0.000129524
-0.00013394
-0.000137536
-0.000140401
-0.000142619
-0.000144269
-0.000145419
-0.000146134
-0.000146469
-0.000146476
-0.000146198
-0.000145673
-0.000144933
-0.000144007
-0.000142917
-0.000141681
-0.000140315
-0.000138828
-0.000137228
-0.000135518
-0.000133699
-0.000131769
-0.000129722
-0.000127553
-0.00012525
-0.000122806
-0.000120206
-0.000117441
-0.000114497
-0.000111366
-0.000108039
-0.000104512
-0.000100786
-9.68661e-05
-9.27642e-05
-8.84991e-05
-8.40957e-05
-7.95846e-05
-7.50007e-05
-7.03822e-05
-6.5768e-05
-6.11971e-05
-5.67063e-05
-5.23291e-05
-4.80951e-05
-4.4029e-05
-4.01508e-05
-3.64752e-05
-3.30125e-05
-2.97687e-05
-2.67458e-05
-2.39427e-05
-2.13557e-05
-1.89787e-05
-1.68042e-05
-1.48233e-05
-1.30264e-05
-1.14033e-05
-9.94365e-06
-8.63688e-06
-7.47261e-06
-6.44068e-06
-5.53126e-06
-4.7349e-06
-4.04264e-06
-3.44606e-06
-2.93732e-06
-2.50923e-06
-2.1553e-06
-1.86977e-06
-1.64762e-06
-1.48442e-06
-1.37612e-06
-1.31834e-06
-1.30882e-06
-1.33611e-06
0.000242264
0.000227132
0.000211495
0.000194916
0.00017714
0.000158338
0.000138835
0.000118942
9.89325e-05
7.90646e-05
5.9581e-05
4.07019e-05
2.26171e-05
5.48138e-06
-1.05862e-05
-2.55019e-05
-3.92145e-05
-5.17031e-05
-6.29727e-05
-7.30501e-05
-8.19795e-05
-8.98185e-05
-9.66341e-05
-0.000102499
-0.00010749
-0.000111682
-0.000115152
-0.000117973
-0.000120212
-0.000121935
-0.000123201
-0.000124065
-0.000124575
-0.000124777
-0.000124708
-0.000124403
-0.000123893
-0.000123202
-0.000122352
-0.00012136
-0.00012024
-0.000119003
-0.000117657
-0.000116206
-0.000114651
-0.000112993
-0.000111229
-0.000109354
-0.000107362
-0.000105245
-0.000102996
-0.000100607
-9.80681e-05
-9.53742e-05
-9.25201e-05
-8.95037e-05
-8.63263e-05
-8.29935e-05
-7.95155e-05
-7.59073e-05
-7.21886e-05
-6.83833e-05
-6.45189e-05
-6.06249e-05
-5.67324e-05
-5.28719e-05
-4.90731e-05
-4.53633e-05
-4.17669e-05
-3.83047e-05
-3.49938e-05
-3.18476e-05
-2.88756e-05
-2.60839e-05
-2.34753e-05
-2.10502e-05
-1.88062e-05
-1.67395e-05
-1.48444e-05
-1.31141e-05
-1.15413e-05