/*--------------------------------*- C++ -*----------------------------------*\
| =========                 |                                                 |
| \\      /  F ield         | OpenFOAM: The Open Source CFD Toolbox           |
|  \\    /   O peration     | Version:  2.3.0                                 |
|   \\  /    A nd           | Web:      www.OpenFOAM.org                      |
|    \\/     M anipulation  |                                                 |
\*---------------------------------------------------------------------------*/
FoamFile
{
    version     2.0;
    format      ascii;
    class       surfaceScalarField;
    location    "0.45";
    object      phi_0;
}
// * * * * * * * * * * * * * * * * * * * * * * * * * * * * * * * * * * * * * //

dimensions      [0 3 -1 0 0 0 0];

internalField   nonuniform List<scalar> 
6598
(
2.81574e-08
2.89766e-09
-3.1055e-08
2.5281e-08
2.87635e-09
2.25831e-08
2.69787e-09
2.00975e-08
2.48567e-09
1.78404e-08
2.25703e-09
1.58228e-08
2.01764e-09
1.4047e-08
1.77584e-09
1.25074e-08
1.53956e-09
1.11919e-08
1.31552e-09
1.00827e-08
1.10921e-09
9.15804e-09
9.2463e-10
8.39395e-09
7.64095e-10
7.76576e-09
6.28189e-10
7.24977e-09
5.15984e-10
6.82437e-09
4.25398e-10
6.47074e-09
3.53634e-10
6.17314e-09
2.97599e-10
5.9189e-09
2.54239e-10
5.69812e-09
2.20779e-10
5.50327e-09
1.9485e-10
5.32874e-09
1.74529e-10
5.17042e-09
1.58321e-10
5.02532e-09
1.45107e-10
4.89124e-09
1.34072e-10
4.7666e-09
1.2464e-10
4.65019e-09
1.16411e-10
4.54108e-09
1.09112e-10
4.43853e-09
1.02553e-10
4.34192e-09
9.66059e-11
4.25074e-09
9.11784e-11
4.16454e-09
8.62024e-11
4.08292e-09
8.16256e-11
4.00551e-09
7.74053e-11
3.932e-09
7.35053e-11
3.86211e-09
6.98942e-11
3.79557e-09
6.65442e-11
3.73214e-09
6.34303e-11
3.67161e-09
6.053e-11
3.61378e-09
5.7823e-11
3.55849e-09
5.52913e-11
3.50557e-09
5.29186e-11
3.45488e-09
5.06903e-11
3.40629e-09
4.85933e-11
3.35967e-09
4.66161e-11
3.31493e-09
4.4748e-11
3.27195e-09
4.29797e-11
3.23064e-09
4.13027e-11
3.19093e-09
3.97095e-11
3.15274e-09
3.8193e-11
3.11599e-09
3.6747e-11
3.08063e-09
3.53658e-11
3.04658e-09
3.40442e-11
3.01381e-09
3.27774e-11
2.98224e-09
3.1561e-11
2.95185e-09
3.0391e-11
2.92259e-09
2.92635e-11
2.89442e-09
2.81752e-11
2.86729e-09
2.71227e-11
2.84119e-09
2.61031e-11
2.81608e-09
2.51136e-11
2.79192e-09
2.41516e-11
2.76871e-09
2.32145e-11
2.74641e-09
2.23001e-11
2.725e-09
2.14062e-11
2.70447e-09
2.05309e-11
2.6848e-09
1.96721e-11
2.66597e-09
1.8828e-11
2.64798e-09
1.79971e-11
2.6308e-09
1.71776e-11
2.61443e-09
1.63681e-11
2.59886e-09
1.55671e-11
2.58409e-09
1.47735e-11
2.5701e-09
1.39861e-11
2.5569e-09
1.32043e-11
2.54447e-09
1.24275e-11
2.53282e-09
1.16556e-11
2.52193e-09
1.08888e-11
2.5118e-09
1.0127e-11
2.50243e-09
9.36928e-12
2.49382e-09
8.61273e-12
2.48597e-09
7.8513e-12
2.47889e-09
7.07426e-12
2.47263e-09
6.26533e-12
2.46722e-09
5.40273e-12
2.46276e-09
4.46187e-12
2.45934e-09
3.42143e-12
2.45707e-09
2.26689e-12
2.45607e-09
1.0081e-12
2.45622e-09
-1.58759e-13
2.45727e-09
-1.04995e-12
2.45901e-09
-1.73728e-12
2.46127e-09
-2.25887e-12
2.46389e-09
-2.61603e-12
2.4667e-09
-2.81485e-12
2.46958e-09
-2.87815e-12
2.47239e-09
-2.80943e-12
2.475e-09
-2.61552e-12
2.47732e-09
-2.31468e-12
2.4793e-09
-1.98448e-12
-1.90738e-12
3.38297e-08
3.18217e-09
-3.41142e-08
3.32289e-08
3.47712e-09
3.23936e-08
3.53321e-09
3.14006e-08
3.47861e-09
3.0306e-08
3.35167e-09
2.91557e-08
3.16791e-09
2.79872e-08
2.9444e-09
2.6829e-08
2.69773e-09
2.57024e-08
2.44212e-09
2.46223e-08
2.18929e-09
2.35984e-08
1.94852e-09
2.26361e-08
1.72643e-09
2.17373e-08
1.52695e-09
2.09017e-08
1.3516e-09
2.01271e-08
1.20001e-09
1.94102e-08
1.07051e-09
1.87472e-08
9.60626e-10
1.81338e-08
8.67614e-10
1.75659e-08
7.8874e-10
1.70392e-08
7.21511e-10
1.655e-08
6.63771e-10
1.60946e-08
6.13732e-10
1.56697e-08
5.6995e-10
1.52725e-08
5.31286e-10
1.49003e-08
4.96852e-10
1.45507e-08
4.65955e-10
1.42218e-08
4.38056e-10
1.39116e-08
4.12731e-10
1.36186e-08
3.89641e-10
1.33413e-08
3.68511e-10
1.30783e-08
3.49111e-10
1.28287e-08
3.3125e-10
1.25914e-08
3.14762e-10
1.23654e-08
2.99505e-10
1.21499e-08
2.85353e-10
1.19443e-08
2.72197e-10
1.17477e-08
2.59939e-10
1.15598e-08
2.48493e-10
1.13798e-08
2.37782e-10
1.12074e-08
2.27738e-10
1.1042e-08
2.183e-10
1.08833e-08
2.09413e-10
1.07308e-08
2.0103e-10
1.05843e-08
1.93106e-10
1.04435e-08
1.85602e-10
1.0308e-08
1.78484e-10
1.01776e-08
1.71719e-10
1.0052e-08
1.65278e-10
9.93106e-09
1.59136e-10
9.81454e-09
1.53267e-10
9.70225e-09
1.47652e-10
9.59403e-09
1.42268e-10
9.48971e-09
1.37099e-10
9.38914e-09
1.32126e-10
9.2922e-09
1.27334e-10
9.19876e-09
1.22708e-10
9.1087e-09
1.18235e-10
9.02192e-09
1.13902e-10
8.93832e-09
1.09696e-10
8.85783e-09
1.05608e-10
8.78036e-09
1.01625e-10
8.70583e-09
9.77385e-11
8.63419e-09
9.39391e-11
8.56538e-09
9.02177e-11
8.49935e-09
8.65662e-11
8.43604e-09
8.29766e-11
8.37543e-09
7.94415e-11
8.31747e-09
7.59539e-11
8.26214e-09
7.25072e-11
8.20942e-09
6.90951e-11
8.15927e-09
6.57119e-11
8.11169e-09
6.23523e-11
8.06667e-09
5.90116e-11
8.02419e-09
5.56861e-11
7.98424e-09
5.23726e-11
7.94683e-09
4.90685e-11
7.91194e-09
4.57712e-11
7.8796e-09
4.24767e-11
7.84979e-09
3.9178e-11
7.82254e-09
3.58624e-11
7.79788e-09
3.25094e-11
7.77586e-09
2.90885e-11
7.75657e-09
2.556e-11
7.74009e-09
2.18789e-11
7.72655e-09
1.80041e-11
7.71606e-09
1.39121e-11
7.70872e-09
9.60845e-12
7.70461e-09
5.11771e-12
7.70369e-09
7.61192e-13
7.70544e-09
-2.79739e-12
7.7091e-09
-5.40384e-12
7.71417e-09
-7.32107e-12
7.72018e-09
-8.6339e-12
7.72677e-09
-9.40099e-12
7.7336e-09
-9.70419e-12
7.74036e-09
-9.57642e-12
7.7468e-09
-9.05083e-12
7.75265e-09
-8.16862e-12
7.75766e-09
-6.9928e-12
-5.10146e-12
3.59125e-08
3.03214e-09
-3.57625e-08
3.59741e-08
3.41548e-09
3.59088e-08
3.59854e-09
3.57211e-08
3.66632e-09
3.5421e-08
3.65176e-09
3.50225e-08
3.56644e-09
3.45428e-08
3.42407e-09
3.39998e-08
3.24067e-09
3.34105e-08
3.03144e-09
3.279e-08
2.80985e-09
3.21512e-08
2.58729e-09
3.15049e-08
2.37268e-09
3.08596e-08
2.17224e-09
3.02216e-08
1.9896e-09
2.95955e-08
1.82618e-09
2.89842e-08
1.68177e-09
2.83898e-08
1.55505e-09
2.78133e-08
1.44409e-09
2.72553e-08
1.34678e-09
2.67158e-08
1.26101e-09
2.61947e-08
1.18489e-09
2.56916e-08
1.1168e-09
2.52061e-08
1.0554e-09
2.47378e-08
9.99601e-10
2.42861e-08
9.48553e-10
2.38505e-08
9.01579e-10
2.34304e-08
8.58147e-10
2.30253e-08
8.17833e-10
2.26347e-08
7.80296e-10
2.22579e-08
7.45255e-10
2.18946e-08
7.12474e-10
2.15441e-08
6.81749e-10
2.12059e-08
6.52906e-10
2.08796e-08
6.25787e-10
2.05647e-08
6.00252e-10
2.02608e-08
5.76175e-10
1.99672e-08
5.53442e-10
1.96838e-08
5.31948e-10
1.941e-08
5.11599e-10
1.91454e-08
4.92308e-10
1.88897e-08
4.73995e-10
1.86425e-08
4.56587e-10
1.84036e-08
4.40018e-10
1.81724e-08
4.24226e-10
1.79489e-08
4.09155e-10
1.77326e-08
3.94752e-10
1.75234e-08
3.80969e-10
1.73209e-08
3.67761e-10
1.71249e-08
3.55088e-10
1.69353e-08
3.42909e-10
1.67517e-08
3.3119e-10
1.65741e-08
3.19897e-10
1.64022e-08
3.08998e-10
1.62359e-08
2.98464e-10
1.60749e-08
2.88266e-10
1.59193e-08
2.7838e-10
1.57687e-08
2.68779e-10
1.56232e-08
2.59441e-10
1.54825e-08
2.50342e-10
1.53467e-08
2.41463e-10
1.52155e-08
2.32784e-10
1.5089e-08
2.24284e-10
1.4967e-08
2.15946e-10
1.48494e-08
2.07753e-10
1.47363e-08
1.99687e-10
1.46276e-08
1.91734e-10
1.45231e-08
1.83878e-10
1.4423e-08
1.76105e-10
1.43271e-08
1.68401e-10
1.42354e-08
1.60753e-10
1.4148e-08
1.53149e-10
1.40648e-08
1.45578e-10
1.39857e-08
1.3803e-10
1.39109e-08
1.30496e-10
1.38403e-08
1.22968e-10
1.3774e-08
1.15439e-10
1.37118e-08
1.079e-10
1.3654e-08
1.00341e-10
1.36004e-08
9.27463e-11
1.35512e-08
8.50928e-11
1.35063e-08
7.73469e-11
1.3466e-08
6.9465e-11
1.34301e-08
6.13971e-11
1.33989e-08
5.3098e-11
1.33724e-08
4.45462e-11
1.33505e-08
3.57724e-11
1.33332e-08
2.689e-11
1.33202e-08
1.80957e-11
1.33115e-08
9.53551e-12
1.33072e-08
1.51315e-12
1.33068e-08
-5.08248e-12
1.33094e-08
-9.91342e-12
1.33141e-08
-1.33376e-11
1.33203e-08
-1.55621e-11
1.33274e-08
-1.67871e-11
1.33349e-08
-1.71073e-11
1.33425e-08
-1.66016e-11
1.33496e-08
-1.53111e-11
1.33557e-08
-1.30615e-11
-8.19086e-12
3.74701e-08
2.84176e-09
-3.72798e-08
3.76661e-08
3.21954e-09
3.78219e-08
3.44268e-09
3.79245e-08
3.5638e-09
3.79663e-08
3.60991e-09
3.79429e-08
3.58987e-09
3.78541e-08
3.51283e-09
3.77037e-08
3.39105e-09
3.74978e-08
3.23738e-09
3.72437e-08
3.0639e-09
3.69497e-08
2.88138e-09
3.66235e-08
2.6988e-09
3.62728e-08
2.52297e-09
3.5904e-08
2.35845e-09
3.55224e-08
2.20776e-09
3.51324e-08
2.07174e-09
3.47374e-08
1.95004e-09
3.43399e-08
1.84157e-09
3.39419e-08
1.74485e-09
3.35446e-08
1.65826e-09
3.31492e-08
1.58028e-09
3.27565e-08
1.50953e-09
3.23671e-08
1.44484e-09
3.19814e-08
1.38523e-09
3.16e-08
1.32995e-09
3.12232e-08
1.27837e-09
3.08514e-08
1.23e-09
3.04847e-08
1.18447e-09
3.01236e-08
1.14147e-09
2.97681e-08
1.10076e-09
2.94184e-08
1.06212e-09
2.90748e-08
1.02538e-09
2.87373e-08
9.90401e-10
2.8406e-08
9.57048e-10
2.80811e-08
9.25207e-10
2.77625e-08
8.94773e-10
2.74503e-08
8.65651e-10
2.71445e-08
8.37756e-10
2.68451e-08
8.11008e-10
2.6552e-08
7.85334e-10
2.62654e-08
7.60667e-10
2.5985e-08
7.36944e-10
2.57109e-08
7.14107e-10
2.5443e-08
6.92102e-10
2.51813e-08
6.70876e-10
2.49257e-08
6.50383e-10
2.46761e-08
6.30577e-10
2.44324e-08
6.11416e-10
2.41947e-08
5.92859e-10
2.39627e-08
5.74868e-10
2.37365e-08
5.57406e-10
2.35159e-08
5.40439e-10
2.3301e-08
5.23932e-10
2.30916e-08
5.07854e-10
2.28877e-08
4.92174e-10
2.26892e-08
4.76863e-10
2.24961e-08
4.6189e-10
2.23083e-08
4.47229e-10
2.21258e-08
4.32853e-10
2.19485e-08
4.18736e-10
2.17765e-08
4.04852e-10
2.16096e-08
3.91177e-10
2.14478e-08
3.77687e-10
2.12912e-08
3.64359e-10
2.11397e-08
3.51171e-10
2.09934e-08
3.381e-10
2.08521e-08
3.25127e-10
2.0716e-08
3.12231e-10
2.0585e-08
2.99392e-10
2.04592e-08
2.86592e-10
2.03385e-08
2.73813e-10
2.02231e-08
2.61038e-10
2.01128e-08
2.48254e-10
2.00079e-08
2.35444e-10
1.99083e-08
2.22597e-10
1.9814e-08
2.097e-10
1.97251e-08
1.9674e-10
1.96418e-08
1.83698e-10
1.9564e-08
1.70553e-10
1.94918e-08
1.57275e-10
1.94253e-08
1.43825e-10
1.93646e-08
1.30157e-10
1.93098e-08
1.16232e-10
1.92609e-08
1.02027e-10
1.92178e-08
8.75684e-11
1.91807e-08
7.29643e-11
1.91491e-08
5.84362e-11
1.91229e-08
4.43313e-11
1.91013e-08
3.10623e-11
1.9084e-08
1.89027e-11
1.90711e-08
7.7311e-12
1.90633e-08
-2.02512e-12
1.90594e-08
-9.49309e-12
1.90586e-08
-1.47541e-11
1.90601e-08
-1.82477e-11
1.90631e-08
-2.01614e-11
1.90672e-08
-2.06465e-11
1.90716e-08
-1.97404e-11
1.90755e-08
-1.69415e-11
-9.3236e-12
3.89873e-08
2.6756e-09
-3.88212e-08
3.91858e-08
3.02102e-09
3.93798e-08
3.24871e-09
3.95557e-08
3.38789e-09
3.97055e-08
3.46012e-09
3.98215e-08
3.47387e-09
3.98982e-08
3.43611e-09
3.99331e-08
3.35621e-09
3.99259e-08
3.24457e-09
3.98785e-08
3.11131e-09
3.97942e-08
2.96569e-09
3.96772e-08
2.81576e-09
3.95322e-08
2.66793e-09
3.93639e-08
2.52684e-09
3.91762e-08
2.39537e-09
3.8973e-08
2.27494e-09
3.87572e-08
2.16583e-09
3.85313e-08
2.06753e-09
3.8297e-08
1.97909e-09
3.8056e-08
1.89933e-09
3.78092e-08
1.82704e-09
3.75577e-08
1.76107e-09
3.73021e-08
1.70043e-09
3.7043e-08
1.64427e-09
3.67811e-08
1.59188e-09
3.65168e-08
1.54271e-09
3.62504e-08
1.49631e-09
3.59826e-08
1.45231e-09
3.57136e-08
1.41044e-09
3.54439e-08
1.37047e-09
3.51738e-08
1.33221e-09
3.49037e-08
1.29551e-09
3.46339e-08
1.26024e-09
3.43646e-08
1.22629e-09
3.40963e-08
1.19357e-09
3.38291e-08
1.16197e-09
3.35633e-08
1.13144e-09
3.32991e-08
1.1019e-09
3.30368e-08
1.07328e-09
3.27766e-08
1.04554e-09
3.25187e-08
1.01861e-09
3.22632e-08
9.92446e-10
3.20103e-08
9.67005e-10
3.17602e-08
9.42245e-10
3.15129e-08
9.18124e-10
3.12687e-08
8.94605e-10
3.10276e-08
8.71652e-10
3.07898e-08
8.49232e-10
3.05553e-08
8.27311e-10
3.03244e-08
8.05858e-10
3.00969e-08
7.84842e-10
2.98731e-08
7.64235e-10
2.96531e-08
7.44006e-10
2.94368e-08
7.24129e-10
2.92244e-08
7.04574e-10
2.90159e-08
6.85316e-10
2.88115e-08
6.66327e-10
2.86111e-08
6.4758e-10
2.84149e-08
6.2905e-10
2.8223e-08
6.10711e-10
2.80353e-08
5.92537e-10
2.7852e-08
5.74503e-10
2.76731e-08
5.56583e-10
2.74987e-08
5.38754e-10
2.73288e-08
5.2099e-10
2.71637e-08
5.03268e-10
2.70032e-08
4.85565e-10
2.68476e-08
4.67857e-10
2.66969e-08
4.50121e-10
2.65511e-08
4.32337e-10
2.64105e-08
4.14483e-10
2.6275e-08
3.9654e-10
2.61447e-08
3.7849e-10
2.60199e-08
3.60316e-10
2.59005e-08
3.42001e-10
2.57866e-08
3.2353e-10
2.56785e-08
3.04884e-10
2.55761e-08
2.86044e-10
2.54797e-08
2.66983e-10
2.53893e-08
2.47672e-10
2.53051e-08
2.28074e-10
2.52271e-08
2.08155e-10
2.51554e-08
1.87897e-10
2.50901e-08
1.67319e-10
2.50312e-08
1.46506e-10
2.49785e-08
1.25645e-10
2.49319e-08
1.05049e-10
2.4891e-08
8.51574e-11
2.48556e-08
6.64679e-11
2.48251e-08
4.93934e-11
2.47987e-08
3.41861e-11
2.47758e-08
2.08946e-11
2.4757e-08
9.30356e-12
2.47427e-08
-4.8314e-13
2.47324e-08
-7.89641e-12
2.4725e-08
-1.28536e-11
2.47201e-08
-1.5685e-11
2.47168e-08
-1.64427e-11
2.47142e-08
-1.43937e-11
-5.99596e-12
4.05429e-08
2.53621e-09
-4.04035e-08
4.07201e-08
2.84387e-09
4.09059e-08
3.0629e-09
4.10874e-08
3.20642e-09
4.12576e-08
3.28991e-09
4.14101e-08
3.32138e-09
4.15393e-08
3.30684e-09
4.16417e-08
3.25381e-09
4.17154e-08
3.17092e-09
4.176e-08
3.06669e-09
4.17766e-08
2.94908e-09
4.17673e-08
2.82511e-09
4.17346e-08
2.70056e-09
4.16817e-08
2.57978e-09
4.16113e-08
2.46572e-09
4.15263e-08
2.36002e-09
4.14287e-08
2.26336e-09
4.13207e-08
2.17562e-09
4.12035e-08
2.09625e-09
4.10784e-08
2.02439e-09
4.09464e-08
1.95911e-09
4.08079e-08
1.89948e-09
4.06637e-08
1.84465e-09
4.05142e-08
1.79385e-09
4.03596e-08
1.74647e-09
4.02003e-08
1.70198e-09
4.00366e-08
1.65995e-09
3.98689e-08
1.62005e-09
3.96973e-08
1.582e-09
3.95222e-08
1.54557e-09
3.93439e-08
1.51058e-09
3.91625e-08
1.47689e-09
3.89784e-08
1.44436e-09
3.87918e-08
1.41289e-09
3.8603e-08
1.38239e-09
3.84122e-08
1.35278e-09
3.82196e-08
1.32398e-09
3.80256e-08
1.29593e-09
3.78303e-08
1.26858e-09
3.76339e-08
1.24188e-09
3.74368e-08
1.21577e-09
3.7239e-08
1.19022e-09
3.70408e-08
1.16518e-09
3.68425e-08
1.14062e-09
3.66441e-08
1.11651e-09
3.64459e-08
1.09281e-09
3.6248e-08
1.06948e-09
3.60508e-08
1.04652e-09
3.58542e-08
1.02387e-09
3.56585e-08
1.00153e-09
3.54639e-08
9.79457e-10
3.52705e-08
9.5763e-10
3.50785e-08
9.36023e-10
3.4888e-08
9.14611e-10
3.46992e-08
8.93369e-10
3.45123e-08
8.72272e-10
3.43273e-08
8.51296e-10
3.41445e-08
8.30416e-10
3.39639e-08
8.09606e-10
3.37858e-08
7.88842e-10
3.36102e-08
7.68098e-10
3.34374e-08
7.4735e-10
3.32674e-08
7.26572e-10
3.31004e-08
7.0574e-10
3.29366e-08
6.84827e-10
3.2776e-08
6.6381e-10
3.26189e-08
6.42662e-10
3.24654e-08
6.21361e-10
3.23156e-08
5.99882e-10
3.21698e-08
5.78201e-10
3.2028e-08
5.56297e-10
3.18904e-08
5.34149e-10
3.17571e-08
5.11736e-10
3.16284e-08
4.8904e-10
3.15044e-08
4.66042e-10
3.13852e-08
4.42726e-10
3.1271e-08
4.19073e-10
3.11619e-08
3.9506e-10
3.10583e-08
3.70665e-10
3.09601e-08
3.45861e-10
3.08675e-08
3.20621e-10
3.07808e-08
2.94932e-10
3.06998e-08
2.68806e-10
3.06249e-08
2.42305e-10
3.05558e-08
2.15574e-10
3.04926e-08
1.88869e-10
3.0435e-08
1.62574e-10
3.0383e-08
1.37182e-10
3.03362e-08
1.13234e-10
3.02944e-08
9.12044e-11
3.02572e-08
7.14177e-11
3.02241e-08
5.40109e-11
3.01944e-08
3.90183e-11
3.01675e-08
2.64136e-11
3.01435e-08
1.6052e-11
3.01229e-08
7.73805e-12
3.01057e-08
1.51499e-12
3.00915e-08
-2.15529e-12
3.00795e-08
-2.39484e-12
3.71517e-12
4.215e-08
2.41756e-09
-4.20313e-08
4.2305e-08
2.68887e-09
4.24739e-08
2.89391e-09
4.26444e-08
3.03598e-09
4.28095e-08
3.12475e-09
4.29639e-08
3.16699e-09
4.31029e-08
3.16792e-09
4.32229e-08
3.13376e-09
4.33221e-08
3.07169e-09
4.33998e-08
2.98901e-09
4.34563e-08
2.89261e-09
4.34928e-08
2.78865e-09
4.3511e-08
2.6823e-09
4.35132e-08
2.57762e-09
4.35014e-08
2.47746e-09
4.34778e-08
2.38363e-09
4.34442e-08
2.297e-09
4.3402e-08
2.2178e-09
4.33525e-08
2.14574e-09
4.32966e-08
2.08027e-09
4.32351e-08
2.02068e-09
4.31683e-08
1.96624e-09
4.30967e-08
1.91623e-09
4.30206e-08
1.86999e-09
4.29401e-08
1.82696e-09
4.28554e-08
1.78667e-09
4.27667e-08
1.74871e-09
4.2674e-08
1.71274e-09
4.25775e-08
1.6785e-09
4.24773e-08
1.64577e-09
4.23735e-08
1.61436e-09
4.22662e-08
1.58412e-09
4.21557e-08
1.55492e-09
4.20419e-08
1.52664e-09
4.19251e-08
1.49919e-09
4.18054e-08
1.47249e-09
4.16829e-08
1.44647e-09
4.15578e-08
1.42105e-09
4.14302e-08
1.39619e-09
4.13003e-08
1.37182e-09
4.11682e-08
1.3479e-09
4.1034e-08
1.32439e-09
4.08979e-08
1.30124e-09
4.07601e-08
1.27842e-09
4.06207e-08
1.2559e-09
4.04799e-08
1.23363e-09
4.03378e-08
1.2116e-09
4.01946e-08
1.18976e-09
4.00503e-08
1.1681e-09
3.99053e-08
1.14659e-09
3.97595e-08
1.12519e-09
3.96133e-08
1.10388e-09
3.94667e-08
1.08264e-09
3.93198e-08
1.06144e-09
3.91729e-08
1.04026e-09
3.90261e-08
1.01906e-09
3.88796e-08
9.97833e-10
3.87335e-08
9.76538e-10
3.85879e-08
9.55155e-10
3.84431e-08
9.33657e-10
3.82992e-08
9.12017e-10
3.81563e-08
8.90209e-10
3.80147e-08
8.68206e-10
3.78745e-08
8.45981e-10
3.77358e-08
8.23506e-10
3.75988e-08
8.00754e-10
3.74638e-08
7.777e-10
3.73309e-08
7.54316e-10
3.72002e-08
7.30576e-10
3.70719e-08
7.06455e-10
3.69463e-08
6.81929e-10
3.68234e-08
6.56975e-10
3.67036e-08
6.31571e-10
3.6587e-08
6.05696e-10
3.64737e-08
5.79333e-10
3.63639e-08
5.52461e-10
3.62579e-08
5.25062e-10
3.61559e-08
4.97116e-10
3.60579e-08
4.68604e-10
3.59643e-08
4.39506e-10
3.58751e-08
4.09811e-10
3.57905e-08
3.79526e-10
3.57106e-08
3.48696e-10
3.56355e-08
3.17424e-10
3.55652e-08
2.85906e-10
3.54996e-08
2.54449e-10
3.54387e-08
2.23483e-10
3.53823e-08
1.93534e-10
3.53304e-08
1.65161e-10
3.52828e-08
1.3886e-10
3.52392e-08
1.14991e-10
3.51994e-08
9.37553e-11
3.51632e-08
7.52407e-11
3.51302e-08
5.94325e-11
3.51e-08
4.62044e-11
3.50723e-08
3.54379e-11
3.50468e-08
2.70758e-11
3.50235e-08
2.11632e-11
3.50029e-08
1.81556e-11
1.96726e-11
4.38113e-08
2.31438e-09
-4.37081e-08
4.39472e-08
2.553e-09
4.40991e-08
2.74199e-09
4.42556e-08
2.87946e-09
4.441e-08
2.97042e-09
4.4557e-08
3.01993e-09
4.46925e-08
3.0324e-09
4.48134e-08
3.0129e-09
4.49177e-08
2.96738e-09
4.50046e-08
2.90206e-09
4.50744e-08
2.8229e-09
4.51277e-08
2.73529e-09
4.51661e-08
2.6439e-09
4.51913e-08
2.55245e-09
4.5205e-08
2.4637e-09
4.52092e-08
2.37951e-09
4.52052e-08
2.30094e-09
4.51946e-08
2.22843e-09
4.51784e-08
2.16197e-09
4.51574e-08
2.10124e-09
4.51323e-08
2.04576e-09
4.51036e-08
1.99496e-09
4.50716e-08
1.94827e-09
4.50364e-08
1.90513e-09
4.49983e-08
1.86506e-09
4.49574e-08
1.82763e-09
4.49136e-08
1.79246e-09
4.48671e-08
1.75926e-09
4.48179e-08
1.72774e-09
4.47659e-08
1.69771e-09
4.47113e-08
1.66897e-09
4.46541e-08
1.64137e-09
4.45942e-08
1.61478e-09
4.45318e-08
1.58908e-09
4.44668e-08
1.56417e-09
4.43993e-08
1.53997e-09
4.43294e-08
1.51639e-09
4.42571e-08
1.49337e-09
4.41824e-08
1.47085e-09
4.41054e-08
1.44877e-09
4.40263e-08
1.42707e-09
4.39449e-08
1.40571e-09
4.38615e-08
1.38465e-09
4.37761e-08
1.36384e-09
4.36888e-08
1.34325e-09
4.35996e-08
1.32284e-09
4.35086e-08
1.30257e-09
4.34159e-08
1.28242e-09
4.33217e-08
1.26235e-09
4.32259e-08
1.24233e-09
4.31288e-08
1.22232e-09
4.30304e-08
1.20231e-09
4.29308e-08
1.18226e-09
4.28301e-08
1.16214e-09
4.27284e-08
1.14192e-09
4.26259e-08
1.12158e-09
4.25226e-08
1.10108e-09
4.24188e-08
1.0804e-09
4.23144e-08
1.0595e-09
4.22097e-08
1.03836e-09
4.21048e-08
1.01694e-09
4.19998e-08
9.95222e-10
4.18948e-08
9.73165e-10
4.17901e-08
9.50741e-10
4.16856e-08
9.2792e-10
4.15817e-08
9.04671e-10
4.14785e-08
8.80964e-10
4.1376e-08
8.56769e-10
4.12745e-08
8.32056e-10
4.11742e-08
8.06797e-10
4.10751e-08
7.80965e-10
4.09776e-08
7.54533e-10
4.08817e-08
7.27477e-10
4.07876e-08
6.99775e-10
4.06955e-08
6.71406e-10
4.06056e-08
6.42349e-10
4.05181e-08
6.12587e-10
4.04331e-08
5.82102e-10
4.03509e-08
5.50877e-10
4.02715e-08
5.18905e-10
4.01951e-08
4.86187e-10
4.01219e-08
4.52752e-10
4.00519e-08
4.18673e-10
3.99852e-08
3.84087e-10
3.99219e-08
3.49227e-10
3.98619e-08
3.14432e-10
3.98052e-08
2.80156e-10
3.97518e-08
2.46936e-10
3.97017e-08
2.15332e-10
3.96547e-08
1.85843e-10
3.96108e-08
1.58848e-10
3.957e-08
1.34581e-10
3.95321e-08
1.13159e-10
3.94969e-08
9.45987e-11
3.94643e-08
7.88148e-11
3.9434e-08
6.57054e-11
3.94059e-08
5.51798e-11
3.93799e-08
4.71803e-11
3.93563e-08
4.17947e-11
3.8769e-11
4.55289e-08
2.22301e-09
-4.54375e-08
4.56488e-08
2.4331e-09
4.57851e-08
2.6057e-09
4.59279e-08
2.73662e-09
4.60707e-08
2.82766e-09
4.62085e-08
2.88215e-09
4.63373e-08
2.90358e-09
4.64541e-08
2.89604e-09
4.65571e-08
2.8644e-09
4.66453e-08
2.81387e-09
4.67187e-08
2.74954e-09
4.67778e-08
2.67616e-09
4.68239e-08
2.59785e-09
4.68583e-08
2.51802e-09
4.68827e-08
2.43932e-09
4.68986e-08
2.36359e-09
4.69075e-08
2.29203e-09
4.69107e-08
2.22525e-09
4.69092e-08
2.16345e-09
4.69039e-08
2.10653e-09
4.68954e-08
2.0542e-09
4.68843e-08
2.00605e-09
4.6871e-08
1.96165e-09
4.68555e-08
1.92055e-09
4.68382e-08
1.88235e-09
4.68192e-08
1.84668e-09
4.67985e-08
1.8132e-09
4.67761e-08
1.78163e-09
4.67521e-08
1.75174e-09
4.67265e-08
1.72332e-09
4.66993e-08
1.69619e-09
4.66704e-08
1.67019e-09
4.664e-08
1.64521e-09
4.6608e-08
1.62113e-09
4.65743e-08
1.59784e-09
4.6539e-08
1.57525e-09
4.65021e-08
1.5533e-09
4.64636e-08
1.53191e-09
4.64234e-08
1.51101e-09
4.63816e-08
1.49054e-09
4.63383e-08
1.47045e-09
4.62933e-08
1.45069e-09
4.62467e-08
1.43121e-09
4.61986e-08
1.41197e-09
4.61489e-08
1.39293e-09
4.60977e-08
1.37404e-09
4.6045e-08
1.35527e-09
4.59909e-08
1.33659e-09
4.59353e-08
1.31795e-09
4.58783e-08
1.29932e-09
4.58199e-08
1.28067e-09
4.57603e-08
1.26196e-09
4.56994e-08
1.24316e-09
4.56373e-08
1.22425e-09
4.5574e-08
1.20517e-09
4.55097e-08
1.18591e-09
4.54443e-08
1.16642e-09
4.53781e-08
1.14668e-09
4.53109e-08
1.12665e-09
4.5243e-08
1.1063e-09
4.51743e-08
1.08558e-09
4.51051e-08
1.06447e-09
4.50353e-08
1.04294e-09
4.49651e-08
1.02093e-09
4.48946e-08
9.98433e-10
4.48239e-08
9.75397e-10
4.47531e-08
9.51792e-10
4.46822e-08
9.27583e-10
4.46116e-08
9.02737e-10
4.45411e-08
8.77222e-10
4.44711e-08
8.51006e-10
4.44016e-08
8.2406e-10
4.43327e-08
7.96356e-10
4.42646e-08
7.67869e-10
4.41974e-08
7.38577e-10
4.41313e-08
7.08457e-10
4.40664e-08
6.77492e-10
4.40028e-08
6.45666e-10
4.39408e-08
6.12968e-10
4.38803e-08
5.79398e-10
4.38215e-08
5.44972e-10
4.37645e-08
5.09737e-10
4.37094e-08
4.73785e-10
4.36562e-08
4.37281e-10
4.36049e-08
4.00476e-10
4.35556e-08
3.63727e-10
4.35083e-08
3.27491e-10
4.34629e-08
2.92298e-10
4.34196e-08
2.58692e-10
4.33783e-08
2.27167e-10
4.3339e-08
1.98106e-10
4.33018e-08
1.71762e-10
4.32667e-08
1.48274e-10
4.32336e-08
1.27681e-10
4.32025e-08
1.09931e-10
4.31733e-08
9.49321e-11
4.31459e-08
8.25794e-11
4.31203e-08
7.27372e-11
4.3097e-08
6.51621e-11
5.84427e-11
4.73048e-08
2.14093e-09
-4.72228e-08
4.74115e-08
2.32646e-09
4.75339e-08
2.48328e-09
4.76639e-08
2.60657e-09
4.77955e-08
2.69613e-09
4.79238e-08
2.7538e-09
4.80452e-08
2.78218e-09
4.81568e-08
2.78449e-09
4.82566e-08
2.76464e-09
4.83435e-08
2.72694e-09
4.84173e-08
2.6757e-09
4.84785e-08
2.61503e-09
4.85277e-08
2.54856e-09
4.85664e-08
2.47939e-09
4.85957e-08
2.40998e-09
4.86171e-08
2.34216e-09
4.8632e-08
2.27717e-09
4.86415e-08
2.21577e-09
4.86466e-08
2.15832e-09
4.86482e-08
2.1049e-09
4.86471e-08
2.05536e-09
4.86436e-08
2.00948e-09
4.86384e-08
1.96693e-09
4.86315e-08
1.92739e-09
4.86234e-08
1.89051e-09
4.8614e-08
1.856e-09
4.86037e-08
1.82357e-09
4.85923e-08
1.79298e-09
4.858e-08
1.76401e-09
4.85669e-08
1.73648e-09
4.85529e-08
1.71021e-09
4.8538e-08
1.68507e-09
4.85223e-08
1.66093e-09
4.85057e-08
1.63769e-09
4.84883e-08
1.61525e-09
4.847e-08
1.59353e-09
4.84509e-08
1.57244e-09
4.84309e-08
1.55192e-09
4.841e-08
1.5319e-09
4.83882e-08
1.51233e-09
4.83655e-08
1.49315e-09
4.83419e-08
1.4743e-09
4.83173e-08
1.45575e-09
4.82919e-08
1.43745e-09
4.82654e-08
1.41934e-09
4.82381e-08
1.4014e-09
4.82098e-08
1.38359e-09
4.81805e-08
1.36585e-09
4.81503e-08
1.34816e-09
4.81191e-08
1.33048e-09
4.8087e-08
1.31277e-09
4.8054e-08
1.295e-09
4.802e-08
1.27713e-09
4.79851e-08
1.25912e-09
4.79494e-08
1.24093e-09
4.79127e-08
1.22254e-09
4.78753e-08
1.2039e-09
4.7837e-08
1.18498e-09
4.77979e-08
1.16573e-09
4.77581e-08
1.14612e-09
4.77175e-08
1.12612e-09
4.76763e-08
1.10568e-09
4.76345e-08
1.08476e-09
4.75921e-08
1.06333e-09
4.75492e-08
1.04134e-09
4.75058e-08
1.01876e-09
4.74621e-08
9.95549e-10
4.7418e-08
9.71667e-10
4.73737e-08
9.47078e-10
4.73291e-08
9.21746e-10
4.72845e-08
8.95636e-10
4.72399e-08
8.68715e-10
4.71953e-08
8.40954e-10
4.71508e-08
8.12324e-10
4.71066e-08
7.828e-10
4.70627e-08
7.52361e-10
4.70192e-08
7.20988e-10
4.69762e-08
6.88668e-10
4.69337e-08
6.55396e-10
4.6892e-08
6.21178e-10
4.68509e-08
5.86042e-10
4.68106e-08
5.50048e-10
4.67711e-08
5.13306e-10
4.67324e-08
4.75992e-10
4.66945e-08
4.38368e-10
4.66574e-08
4.00791e-10
4.66212e-08
3.63706e-10
4.65859e-08
3.27623e-10
4.65515e-08
2.9306e-10
4.65182e-08
2.60493e-10
4.6486e-08
2.30301e-10
4.6455e-08
2.02746e-10
4.64253e-08
1.77984e-10
4.63969e-08
1.56072e-10
4.63698e-08
1.36982e-10
4.63441e-08
1.20635e-10
4.63198e-08
1.06912e-10
4.62969e-08
9.56122e-11
4.62758e-08
8.62727e-11
7.70749e-11
4.91416e-08
2.06642e-09
-4.90671e-08
4.92371e-08
2.2309e-09
4.93474e-08
2.37307e-09
4.94656e-08
2.48828e-09
4.95866e-08
2.57522e-09
4.97057e-08
2.63462e-09
4.98196e-08
2.66826e-09
4.99255e-08
2.6786e-09
5.00214e-08
2.66874e-09
5.01062e-08
2.64217e-09
5.01794e-08
2.60252e-09
5.02411e-08
2.55328e-09
5.0292e-08
2.49764e-09
5.03331e-08
2.43836e-09
5.03653e-08
2.37772e-09
5.039e-08
2.31746e-09
5.04084e-08
2.25886e-09
5.04214e-08
2.20275e-09
5.04301e-08
2.14962e-09
5.04353e-08
2.09967e-09
5.04377e-08
2.05294e-09
5.04379e-08
2.00929e-09
5.04363e-08
1.96853e-09
5.04333e-08
1.93043e-09
5.04291e-08
1.89473e-09
5.04239e-08
1.86119e-09
5.04179e-08
1.82958e-09
5.04112e-08
1.79969e-09
5.04038e-08
1.77133e-09
5.0396e-08
1.74434e-09
5.03876e-08
1.71856e-09
5.03788e-08
1.69388e-09
5.03696e-08
1.67017e-09
5.03599e-08
1.64733e-09
5.03499e-08
1.62528e-09
5.03395e-08
1.60394e-09
5.03287e-08
1.58323e-09
5.03175e-08
1.56309e-09
5.0306e-08
1.54345e-09
5.0294e-08
1.52427e-09
5.02817e-08
1.50547e-09
5.0269e-08
1.48703e-09
5.02558e-08
1.46889e-09
5.02423e-08
1.451e-09
5.02283e-08
1.43332e-09
5.02139e-08
1.41582e-09
5.0199e-08
1.39845e-09
5.01837e-08
1.38118e-09
5.01679e-08
1.36396e-09
5.01516e-08
1.34676e-09
5.01349e-08
1.32954e-09
5.01176e-08
1.31226e-09
5.00998e-08
1.29489e-09
5.00816e-08
1.27739e-09
5.00628e-08
1.25971e-09
5.00435e-08
1.24183e-09
5.00237e-08
1.2237e-09
5.00034e-08
1.20529e-09
4.99826e-08
1.18654e-09
4.99613e-08
1.16744e-09
4.99395e-08
1.14792e-09
4.99172e-08
1.12796e-09
4.98944e-08
1.10751e-09
4.98712e-08
1.08652e-09
4.98476e-08
1.06497e-09
4.98236e-08
1.0428e-09
4.97992e-08
1.01997e-09
4.97744e-08
9.96447e-10
4.97493e-08
9.72188e-10
4.97239e-08
9.47155e-10
4.96982e-08
9.21311e-10
4.96723e-08
8.94621e-10
4.96462e-08
8.67053e-10
4.96199e-08
8.38577e-10
4.95936e-08
8.09168e-10
4.95671e-08
7.78804e-10
4.95406e-08
7.47468e-10
4.95142e-08
7.15149e-10
4.94877e-08
6.81847e-10
4.94613e-08
6.47576e-10
4.9435e-08
6.12371e-10
4.94087e-08
5.76304e-10
4.93825e-08
5.39494e-10
4.93564e-08
5.02124e-10
4.93303e-08
4.64455e-10
4.93043e-08
4.26834e-10
4.92783e-08
3.89685e-10
4.92524e-08
3.53486e-10
4.92268e-08
3.18726e-10
4.92014e-08
2.85852e-10
4.91765e-08
2.55233e-10
4.91521e-08
2.27133e-10
4.91283e-08
2.01717e-10
4.91054e-08
1.7906e-10
4.90832e-08
1.59153e-10
4.90619e-08
1.41928e-10
4.90416e-08
1.27258e-10
4.90223e-08
1.14906e-10
4.90042e-08
1.04322e-10
9.38195e-11
5.10417e-08
1.99823e-09
-5.09735e-08
5.11279e-08
2.14471e-09
5.12274e-08
2.27357e-09
5.1335e-08
2.38069e-09
5.1446e-08
2.46426e-09
5.15563e-08
2.52424e-09
5.16629e-08
2.56172e-09
5.1763e-08
2.57851e-09
5.18547e-08
2.57702e-09
5.19368e-08
2.56006e-09
5.20087e-08
2.5306e-09
5.20704e-08
2.49161e-09
5.21222e-08
2.44584e-09
5.21648e-08
2.39573e-09
5.21992e-08
2.34336e-09
5.22263e-08
2.29037e-09
5.22471e-08
2.238e-09
5.22627e-08
2.18715e-09
5.2274e-08
2.13838e-09
5.22816e-08
2.09201e-09
5.22864e-08
2.04818e-09
5.22888e-08
2.00688e-09
5.22893e-08
1.96801e-09
5.22883e-08
1.93143e-09
5.22861e-08
1.89695e-09
5.22829e-08
1.8644e-09
5.22789e-08
1.8336e-09
5.22742e-08
1.80436e-09
5.2269e-08
1.77654e-09
5.22633e-08
1.74999e-09
5.22573e-08
1.72458e-09
5.2251e-08
1.70021e-09
5.22444e-08
1.67676e-09
5.22376e-08
1.65414e-09
5.22306e-08
1.63228e-09
5.22234e-08
1.6111e-09
5.22161e-08
1.59053e-09
5.22087e-08
1.57052e-09
5.22012e-08
1.55099e-09
5.21935e-08
1.53191e-09
5.21858e-08
1.51322e-09
5.21779e-08
1.49488e-09
5.217e-08
1.47683e-09
5.21619e-08
1.45904e-09
5.21538e-08
1.44147e-09
5.21455e-08
1.42408e-09
5.21371e-08
1.40683e-09
5.21286e-08
1.38968e-09
5.212e-08
1.37259e-09
5.21112e-08
1.35553e-09
5.21023e-08
1.33846e-09
5.20932e-08
1.32134e-09
5.2084e-08
1.30414e-09
5.20746e-08
1.28681e-09
5.20649e-08
1.26932e-09
5.20551e-08
1.25164e-09
5.20451e-08
1.23371e-09
5.20349e-08
1.21551e-09
5.20245e-08
1.19699e-09
5.20138e-08
1.17811e-09
5.20029e-08
1.15883e-09
5.19917e-08
1.1391e-09
5.19804e-08
1.11889e-09
5.19687e-08
1.09815e-09
5.19568e-08
1.07685e-09
5.19447e-08
1.05493e-09
5.19323e-08
1.03235e-09
5.19197e-08
1.00908e-09
5.19068e-08
9.8507e-10
5.18937e-08
9.60284e-10
5.18803e-08
9.34684e-10
5.18667e-08
9.08235e-10
5.18529e-08
8.80904e-10
5.18388e-08
8.52663e-10
5.18245e-08
8.23484e-10
5.18099e-08
7.93348e-10
5.17951e-08
7.6224e-10
5.17801e-08
7.30153e-10
5.17649e-08
6.97091e-10
5.17494e-08
6.63075e-10
5.17336e-08
6.28148e-10
5.17175e-08
5.92389e-10
5.17011e-08
5.55922e-10
5.16843e-08
5.18932e-10
5.16671e-08
4.81674e-10
5.16494e-08
4.44477e-10
5.16314e-08
4.07739e-10
5.1613e-08
3.71903e-10
5.15943e-08
3.37421e-10
5.15754e-08
3.04713e-10
5.15565e-08
2.74127e-10
5.15377e-08
2.45927e-10
5.15191e-08
2.20283e-10
5.15009e-08
1.97281e-10
5.14832e-08
1.76929e-10
5.14659e-08
1.59172e-10
5.14493e-08
1.43883e-10
5.14334e-08
1.30821e-10
5.14182e-08
1.1946e-10
1.08516e-10
5.3008e-08
1.9355e-09
-5.29452e-08
5.30861e-08
2.06653e-09
5.31762e-08
2.18348e-09
5.32741e-08
2.28281e-09
5.33758e-08
2.36255e-09
5.34778e-08
2.42222e-09
5.35772e-08
2.46236e-09
5.36715e-08
2.48424e-09
5.37588e-08
2.48969e-09
5.38379e-08
2.48093e-09
5.39081e-08
2.46038e-09
5.39692e-08
2.43052e-09
5.40214e-08
2.39369e-09
5.40651e-08
2.35204e-09
5.4101e-08
2.30742e-09
5.413e-08
2.26136e-09
5.4153e-08
2.21505e-09
5.41707e-08
2.1694e-09
5.41841e-08
2.12503e-09
5.41938e-08
2.08233e-09
5.42004e-08
2.04153e-09
5.42046e-08
2.00272e-09
5.42067e-08