/*--------------------------------*- C++ -*----------------------------------*\
| =========                 |                                                 |
| \\      /  F ield         | OpenFOAM: The Open Source CFD Toolbox           |
|  \\    /   O peration     | Version:  2.3.0                                 |
|   \\  /    A nd           | Web:      www.OpenFOAM.org                      |
|    \\/     M anipulation  |                                                 |
\*---------------------------------------------------------------------------*/
FoamFile
{
    version     2.0;
    format      ascii;
    class       surfaceScalarField;
    location    "1";
    object      phi_0;
}
// * * * * * * * * * * * * * * * * * * * * * * * * * * * * * * * * * * * * * //

dimensions      [0 3 -1 0 0 0 0];

internalField   nonuniform List<scalar> 
4357
(
4.99619e-08
2.04764e-09
-5.20096e-08
4.7807e-08
2.15489e-09
4.56424e-08
2.16469e-09
4.34936e-08
2.14876e-09
4.13729e-08
2.1207e-09
3.92911e-08
2.08176e-09
3.72571e-08
2.03407e-09
3.52774e-08
1.97962e-09
3.33578e-08
1.91969e-09
3.15027e-08
1.85501e-09
2.97166e-08
1.78609e-09
2.80033e-08
1.71336e-09
2.6366e-08
1.63727e-09
2.48077e-08
1.55828e-09
2.33308e-08
1.47692e-09
2.1937e-08
1.39377e-09
2.06276e-08
1.30947e-09
1.94029e-08
1.22468e-09
1.82628e-08
1.14014e-09
1.72062e-08
1.05658e-09
1.62314e-08
9.74738e-10
1.53361e-08
8.95308e-10
1.45172e-08
8.18952e-10
1.37709e-08
7.46252e-10
1.30932e-08
6.777e-10
1.24795e-08
6.13685e-10
1.19251e-08
5.54481e-10
1.14248e-08
5.00244e-10
1.09738e-08
4.51017e-10
1.05671e-08
4.06736e-10
1.01998e-08
3.67242e-10
9.86752e-09
3.32298e-10
9.56591e-09
3.01607e-10
9.29109e-09
2.74824e-10
9.0395e-09
2.51582e-10
8.80801e-09
2.31499e-10
8.59381e-09
2.14198e-10
8.39449e-09
1.99315e-10
8.20798e-09
1.86508e-10
8.03252e-09
1.75464e-10
7.86662e-09
1.65899e-10
7.70906e-09
1.57567e-10
7.55881e-09
1.5025e-10
7.41504e-09
1.43765e-10
7.27708e-09
1.3796e-10
7.14437e-09
1.32709e-10
7.01646e-09
1.27908e-10
6.89299e-09
1.23475e-10
6.77364e-09
1.19346e-10
6.65817e-09
1.15471e-10
6.54636e-09
1.11812e-10
6.43802e-09
1.08338e-10
6.33299e-09
1.0503e-10
6.23112e-09
1.0187e-10
6.13228e-09
9.88462e-11
6.03633e-09
9.59494e-11
5.94315e-09
9.31721e-11
5.85265e-09
9.05086e-11
5.76469e-09
8.79536e-11
5.67919e-09
8.55024e-11
5.59604e-09
8.31509e-11
5.51514e-09
8.08946e-11
5.43641e-09
7.87294e-11
5.35976e-09
7.66511e-11
5.28511e-09
7.46555e-11
5.21237e-09
7.27383e-11
5.14147e-09
7.08955e-11
5.07235e-09
6.91229e-11
5.00493e-09
6.74166e-11
4.93916e-09
6.57728e-11
4.87497e-09
6.41878e-11
4.81232e-09
6.26582e-11
4.75114e-09
6.11806e-11
4.69138e-09
5.97521e-11
4.63301e-09
5.83697e-11
4.57598e-09
5.70309e-11
4.52025e-09
5.57333e-11
4.46577e-09
5.44746e-11
4.41252e-09
5.32531e-11
4.36045e-09
5.2067e-11
4.30954e-09
5.09147e-11
4.25974e-09
4.97951e-11
4.21104e-09
4.87072e-11
4.16339e-09
4.76501e-11
4.11676e-09
4.66235e-11
4.07114e-09
4.56272e-11
4.02648e-09
4.46614e-11
3.98275e-09
4.37269e-11
3.93992e-09
4.2825e-11
3.89797e-09
4.19583e-11
3.85683e-09
4.11305e-11
3.81649e-09
4.0348e-11
3.77687e-09
3.96214e-11
3.7379e-09
3.89695e-11
3.69947e-09
3.84281e-11
3.66139e-09
3.80738e-11
3.6233e-09
3.8091e-11
3.58443e-09
3.88723e-11
3.54176e-09
4.26752e-11
9.83526e-11
5.77077e-08
2.15837e-09
-5.78185e-08
5.74645e-08
2.39811e-09
5.70869e-08
2.54233e-09
5.65956e-08
2.64001e-09
5.60053e-08
2.71103e-09
5.53274e-08
2.75959e-09
5.45732e-08
2.78835e-09
5.37526e-08
2.80015e-09
5.28752e-08
2.79713e-09
5.19496e-08
2.78065e-09
5.0984e-08
2.75168e-09
4.99862e-08
2.71112e-09
4.89637e-08
2.6598e-09
4.79233e-08
2.59864e-09
4.68717e-08
2.52856e-09
4.58148e-08
2.45061e-09
4.47584e-08
2.36589e-09
4.37075e-08
2.27557e-09
4.26668e-08
2.1809e-09
4.16402e-08
2.08316e-09
4.06313e-08
1.98362e-09
3.96431e-08
1.88354e-09
3.86779e-08
1.7841e-09
3.77378e-08
1.6864e-09
3.68241e-08
1.59141e-09
3.59378e-08
1.49997e-09
3.50795e-08
1.41274e-09
3.42496e-08
1.33022e-09
3.34478e-08
1.25275e-09
3.2674e-08
1.18052e-09
3.19277e-08
1.11357e-09
3.12082e-08
1.05182e-09
3.05147e-08
9.95096e-10
2.98464e-08
9.43135e-10
2.92023e-08
8.95628e-10
2.85816e-08
8.52228e-10
2.79832e-08
8.12573e-10
2.74063e-08
7.76298e-10
2.68497e-08
7.43047e-10
2.63127e-08
7.12486e-10
2.57943e-08
6.84304e-10
2.52936e-08
6.5822e-10
2.48099e-08
6.33983e-10
2.43423e-08
6.11373e-10
2.38901e-08
5.90201e-10
2.34525e-08
5.70305e-10
2.30288e-08
5.51546e-10
2.26185e-08
5.33807e-10
2.22208e-08
5.16989e-10
2.18353e-08
5.01011e-10
2.14613e-08
4.85804e-10
2.10983e-08
4.7131e-10
2.07459e-08
4.57481e-10
2.04035e-08
4.44274e-10
2.00707e-08
4.31652e-10
1.97471e-08
4.19583e-10
1.94322e-08
4.08038e-10
1.91257e-08
3.9699e-10
1.88272e-08
3.86414e-10
1.85365e-08
3.76286e-10
1.8253e-08
3.66584e-10
1.79766e-08
3.57287e-10
1.7707e-08
3.48373e-10
1.74438e-08
3.39824e-10
1.71869e-08
3.31619e-10
1.69359e-08
3.2374e-10
1.66906e-08
3.1617e-10
1.64508e-08
3.08891e-10
1.62163e-08
3.01888e-10
1.5987e-08
2.95145e-10
1.57625e-08
2.88647e-10
1.55428e-08
2.82381e-10
1.53276e-08
2.76335e-10
1.51169e-08
2.70495e-10
1.49104e-08
2.64852e-10
1.4708e-08
2.59394e-10
1.45097e-08
2.54113e-10
1.43151e-08
2.48999e-10
1.41243e-08
2.44045e-10
1.39372e-08
2.39245e-10
1.37535e-08
2.3459e-10
1.35732e-08
2.30077e-10
1.33962e-08
2.25701e-10
1.32224e-08
2.21458e-10
1.30517e-08
2.17344e-10
1.2884e-08
2.13359e-10
1.27191e-08
2.09502e-10
1.25571e-08
2.05774e-10
1.23977e-08
2.02177e-10
1.2241e-08
1.98718e-10
1.20867e-08
1.95407e-10
1.19348e-08
1.92262e-10
1.17851e-08
1.89312e-10
1.16374e-08
1.86612e-10
1.14916e-08
1.84266e-10
1.13472e-08
1.825e-10
1.12034e-08
1.81851e-10
1.10583e-08
1.84022e-10
1.0902e-08
1.98975e-10
2.79323e-10
6.27562e-08
2.15118e-09
-6.2749e-08
6.27677e-08
2.38661e-09
6.27508e-08
2.55918e-09
6.26974e-08
2.69349e-09
6.26038e-08
2.8046e-09
6.24669e-08
2.89651e-09
6.22847e-08
2.97047e-09
6.20569e-08
3.02795e-09
6.17838e-08
3.07028e-09
6.14662e-08
3.09826e-09
6.11055e-08
3.11242e-09
6.07034e-08
3.1132e-09
6.02621e-08
3.10109e-09
5.97841e-08
3.07664e-09
5.92721e-08
3.04055e-09
5.87291e-08
2.99361e-09
5.81582e-08
2.93679e-09
5.75626e-08
2.87118e-09
5.69455e-08
2.79798e-09
5.63102e-08
2.71851e-09
5.56597e-08
2.63411e-09
5.4997e-08
2.54617e-09
5.43251e-08
2.45605e-09
5.36464e-08
2.36504e-09
5.29635e-08
2.27435e-09
5.22784e-08
2.18503e-09
5.15931e-08
2.09802e-09
5.09093e-08
2.01406e-09
5.02283e-08
1.93374e-09
4.95514e-08
1.85747e-09
4.88794e-08
1.78549e-09
4.82133e-08
1.71793e-09
4.75537e-08
1.65476e-09
4.69009e-08
1.59587e-09
4.62555e-08
1.54108e-09
4.56176e-08
1.49012e-09
4.49874e-08
1.44272e-09
4.43652e-08
1.39856e-09
4.37509e-08
1.35735e-09
4.31446e-08
1.31877e-09
4.25464e-08
1.28254e-09
4.19562e-08
1.24839e-09
4.13741e-08
1.2161e-09
4.08e-08
1.18544e-09
4.0234e-08
1.15623e-09
3.9676e-08
1.12832e-09
3.9126e-08
1.10156e-09
3.85839e-08
1.07585e-09
3.80498e-08
1.05109e-09
3.75236e-08
1.0272e-09
3.70053e-08
1.00412e-09
3.64948e-08
9.81797e-10
3.59921e-08
9.60187e-10
3.54971e-08
9.39255e-10
3.50098e-08
9.18969e-10
3.45301e-08
8.99303e-10
3.40579e-08
8.80234e-10
3.35932e-08
8.6174e-10
3.31358e-08
8.43803e-10
3.26857e-08
8.26403e-10
3.22427e-08
8.09523e-10
3.18069e-08
7.93145e-10
3.1378e-08
7.77254e-10
3.0956e-08
7.61831e-10
3.05407e-08
7.4686e-10
3.01321e-08
7.32326e-10
2.97301e-08
7.18213e-10
2.93345e-08
7.04504e-10
2.89452e-08
6.91185e-10
2.85621e-08
6.78241e-10
2.81851e-08
6.65657e-10
2.7814e-08
6.53419e-10
2.74489e-08
6.41516e-10
2.70894e-08
6.29933e-10
2.67356e-08
6.1866e-10
2.63873e-08
6.07685e-10
2.60444e-08
5.96997e-10
2.57069e-08
5.86588e-10
2.53745e-08
5.76448e-10
2.50471e-08
5.66569e-10
2.47248e-08
5.56945e-10
2.44073e-08
5.4757e-10
2.40945e-08
5.38438e-10
2.37865e-08
5.29545e-10
2.34829e-08
5.2089e-10
2.31838e-08
5.12472e-10
2.2889e-08
5.04291e-10
2.25984e-08
4.96352e-10
2.23119e-08
4.88661e-10
2.20294e-08
4.81232e-10
2.17508e-08
4.74083e-10
2.14758e-08
4.67249e-10
2.12043e-08
4.60784e-10
2.09361e-08
4.54788e-10
2.06709e-08
4.49448e-10
2.04083e-08
4.45174e-10
2.01472e-08
4.42966e-10
1.98852e-08
4.45999e-10
1.96169e-08
4.67248e-10
5.40875e-10
6.7998e-08
2.17522e-09
-6.80221e-08
6.80021e-08
2.38257e-09
6.80089e-08
2.55239e-09
6.80094e-08
2.69298e-09
6.80008e-08
2.81322e-09
6.79805e-08
2.91683e-09
6.79459e-08
3.00506e-09
6.78949e-08
3.07897e-09
6.78256e-08
3.13955e-09
6.77364e-08
3.18749e-09
6.76256e-08
3.22318e-09
6.74919e-08
3.24686e-09
6.73342e-08
3.25877e-09
6.71517e-08
3.25916e-09
6.69438e-08
3.24843e-09
6.67104e-08
3.22705e-09
6.64515e-08
3.19566e-09
6.61677e-08
3.15504e-09
6.58595e-08
3.1061e-09
6.55282e-08
3.04987e-09
6.51748e-08
2.98751e-09
6.48008e-08
2.92019e-09
6.44077e-08
2.84914e-09
6.39972e-08
2.77557e-09
6.35709e-08
2.70064e-09
6.31305e-08
2.6254e-09
6.26777e-08
2.55083e-09
6.2214e-08
2.47774e-09
6.17409e-08
2.40681e-09
6.12598e-08
2.33857e-09
6.07719e-08
2.27341e-09
6.02783e-08
2.21157e-09
5.97799e-08
2.15316e-09
5.92776e-08
2.0982e-09
5.8772e-08
2.04662e-09
5.82639e-08
1.99827e-09
5.77536e-08
1.95296e-09
5.72417e-08
1.91047e-09
5.67285e-08
1.87055e-09
5.62143e-08
1.83295e-09
5.56994e-08
1.79744e-09
5.51841e-08
1.76378e-09
5.46684e-08
1.73176e-09
5.41527e-08
1.70118e-09
5.3637e-08
1.67187e-09
5.31217e-08
1.64367e-09
5.26068e-08
1.61647e-09
5.20924e-08
1.59016e-09
5.15789e-08
1.56463e-09
5.10663e-08
1.53981e-09
5.05548e-08
1.51565e-09
5.00445e-08
1.49209e-09
4.95356e-08
1.46909e-09
4.90282e-08
1.44662e-09
4.85225e-08
1.42465e-09
4.80187e-08
1.40315e-09
4.75168e-08
1.38212e-09
4.7017e-08
1.36152e-09
4.65194e-08
1.34135e-09
4.60242e-08
1.3216e-09
4.55315e-08
1.30224e-09
4.50414e-08
1.28328e-09
4.4554e-08
1.26469e-09
4.40693e-08
1.24646e-09
4.35876e-08
1.22859e-09
4.31089e-08
1.21106e-09
4.26332e-08
1.19387e-09
4.21607e-08
1.177e-09
4.16914e-08
1.16044e-09
4.12255e-08
1.14418e-09
4.07629e-08
1.12822e-09
4.03038e-08
1.11254e-09
3.98482e-08
1.09713e-09
3.93961e-08
1.082e-09
3.89477e-08
1.06713e-09
3.85029e-08
1.05251e-09
3.80617e-08
1.03814e-09
3.76243e-08
1.02402e-09
3.71906e-08
1.01014e-09
3.67607e-08
9.96502e-10
3.63345e-08
9.83098e-10
3.59121e-08
9.69932e-10
3.54936e-08
9.57002e-10
3.50788e-08
9.4431e-10
3.46678e-08
9.31862e-10
3.42606e-08
9.19662e-10
3.38572e-08
9.07719e-10
3.34575e-08
8.96045e-10
3.30615e-08
8.84656e-10
3.26692e-08
8.73578e-10
3.22804e-08
8.62844e-10
3.18952e-08
8.5251e-10
3.15133e-08
8.42658e-10
3.11346e-08
8.33438e-10
3.0759e-08
8.25122e-10
3.03859e-08
8.1828e-10
3.00146e-08
8.14257e-10
2.96438e-08
8.16749e-10
2.9275e-08
8.36041e-10
8.84171e-10
7.364e-08
2.23436e-09
-7.36991e-08
7.36093e-08
2.41324e-09
7.3591e-08
2.5707e-09
7.35768e-08
2.70719e-09
7.35635e-08
2.82654e-09
7.3549e-08
2.93135e-09
7.35313e-08
3.02276e-09
7.35087e-08
3.10154e-09
7.34798e-08
3.16843e-09
7.34433e-08
3.22402e-09
7.33978e-08
3.26868e-09
7.3342e-08
3.30268e-09
7.32745e-08
3.32622e-09
7.31942e-08
3.33953e-09
7.30997e-08
3.34289e-09
7.29901e-08
3.33668e-09
7.28644e-08
3.32136e-09
7.27219e-08
3.29752e-09
7.25621e-08
3.26586e-09
7.23848e-08
3.22718e-09
7.21899e-08
3.18239e-09
7.19777e-08
3.13246e-09
7.17484e-08
3.07841e-09
7.15027e-08
3.02124e-09
7.12414e-08
2.96197e-09
7.09652e-08
2.90154e-09
7.06752e-08
2.84083e-09
7.03724e-08
2.78061e-09
7.00576e-08
2.72156e-09
6.9732e-08
2.66421e-09
6.93964e-08
2.60899e-09
6.90518e-08
2.5562e-09
6.86989e-08
2.50604e-09
6.83385e-08
2.4586e-09
6.79712e-08
2.4139e-09
6.75976e-08
2.37186e-09
6.72182e-08
2.33239e-09
6.68333e-08
2.29533e-09
6.64434e-08
2.26049e-09
6.60486e-08
2.2277e-09
6.56493e-08
2.19674e-09
6.52457e-08
2.16743e-09
6.48379e-08
2.13957e-09
6.4426e-08
2.11301e-09
6.40103e-08
2.08758e-09
6.35909e-08
2.06314e-09
6.31678e-08
2.03957e-09
6.27412e-08
2.01676e-09
6.23112e-08
1.99464e-09
6.18779e-08
1.97311e-09
6.14414e-08
1.95211e-09
6.10019e-08
1.9316e-09
6.05595e-08
1.91152e-09
6.01142e-08
1.89185e-09
5.96663e-08
1.87255e-09
5.92159e-08
1.8536e-09
5.8763e-08
1.83497e-09
5.83079e-08
1.81666e-09
5.78506e-08
1.79863e-09
5.73913e-08
1.78089e-09
5.69302e-08
1.7634e-09
5.64673e-08
1.74617e-09
5.60028e-08
1.72918e-09
5.55368e-08
1.71242e-09
5.50695e-08
1.69588e-09
5.46011e-08
1.67954e-09
5.41315e-08
1.6634e-09
5.36611e-08
1.64745e-09
5.31898e-08
1.63167e-09
5.2718e-08
1.61607e-09
5.22455e-08
1.60062e-09
5.17727e-08
1.58533e-09
5.12997e-08
1.57019e-09
5.08265e-08
1.55519e-09
5.03533e-08
1.54032e-09
4.98802e-08
1.52559e-09
4.94074e-08
1.51098e-09
4.89349e-08
1.4965e-09
4.84629e-08
1.48215e-09
4.79915e-08
1.46793e-09
4.75207e-08
1.45383e-09
4.70508e-08
1.43986e-09
4.65818e-08
1.42603e-09
4.61138e-08
1.41234e-09
4.56468e-08
1.3988e-09
4.5181e-08
1.38543e-09
4.47165e-08
1.37224e-09
4.42533e-08
1.35925e-09
4.37915e-08
1.34648e-09
4.33311e-08
1.33397e-09
4.28722e-08
1.32178e-09
4.24147e-08
1.30997e-09
4.19587e-08
1.29866e-09
4.15041e-08
1.28803e-09
4.10508e-08
1.27841e-09
4.05987e-08
1.27043e-09
4.01475e-08
1.26545e-09
3.96978e-08
1.26641e-09
3.92556e-08
1.2783e-09
1.29628e-09
7.97303e-08
2.3197e-09
-7.98156e-08
7.96695e-08
2.474e-09
7.96239e-08
2.6163e-09
7.95865e-08
2.74457e-09
7.95536e-08
2.85954e-09
7.95226e-08
2.96234e-09
7.94917e-08
3.05363e-09
7.94594e-08
3.13382e-09
7.94245e-08
3.20333e-09
7.9386e-08
3.26255e-09
7.93429e-08
3.31178e-09
7.92943e-08
3.35129e-09
7.92392e-08
3.38128e-09
7.91767e-08
3.402e-09
7.91059e-08
3.41372e-09
7.90258e-08
3.41677e-09
7.89356e-08
3.41156e-09
7.88346e-08
3.3986e-09
7.87219e-08
3.37846e-09
7.85973e-08
3.35183e-09
7.84602e-08
3.31944e-09
7.83106e-08
3.28211e-09
7.81483e-08
3.24068e-09
7.79736e-08
3.19602e-09
7.77866e-08
3.14897e-09
7.75877e-08
3.10036e-09
7.73776e-08
3.05097e-09
7.71567e-08
3.0015e-09
7.69257e-08
2.95255e-09
7.66853e-08
2.90466e-09
7.6436e-08
2.85825e-09
7.61786e-08
2.81364e-09
7.59135e-08
2.77107e-09
7.56415e-08
2.73067e-09
7.53628e-08
2.69253e-09
7.50781e-08
2.65663e-09
7.47875e-08
2.62293e-09
7.44915e-08
2.59133e-09
7.41903e-08
2.56172e-09
7.3884e-08
2.53396e-09
7.35729e-08
2.50788e-09
7.3257e-08
2.48334e-09
7.29364e-08
2.46017e-09
7.26111e-08
2.43824e-09
7.22813e-08
2.4174e-09
7.19469e-08
2.39753e-09
7.1608e-08
2.3785e-09
7.12645e-08
2.36024e-09
7.09165e-08
2.34263e-09
7.0564e-08
2.32562e-09
7.0207e-08
2.30913e-09
6.98455e-08
2.2931e-09
6.94795e-08
2.27749e-09
6.91091e-08
2.26226e-09
6.87343e-08
2.24738e-09
6.83551e-08
2.2328e-09
6.79715e-08
2.21852e-09
6.75837e-08
2.2045e-09
6.71916e-08
2.19072e-09
6.67953e-08
2.17717e-09
6.63949e-08
2.16382e-09
6.59904e-08
2.15067e-09
6.55819e-08
2.13769e-09
6.51695e-08
2.12487e-09
6.47532e-08
2.11219e-09
6.43331e-08
2.09965e-09
6.39092e-08
2.08722e-09
6.34818e-08
2.0749e-09
6.30508e-08
2.06268e-09
6.26163e-08
2.05053e-09
6.21785e-08
2.03846e-09
6.17374e-08
2.02644e-09
6.12931e-08
2.01448e-09
6.08457e-08
2.00257e-09
6.03953e-08
1.99069e-09
5.99421e-08
1.97884e-09
5.94861e-08
1.96701e-09
5.90274e-08
1.95521e-09
5.85661e-08
1.94343e-09
5.81024e-08
1.93166e-09
5.76363e-08
1.91992e-09
5.71679e-08
1.9082e-09
5.66974e-08
1.89651e-09
5.62249e-08
1.88486e-09
5.57505e-08
1.87326e-09
5.52742e-08
1.86172e-09
5.47962e-08
1.85025e-09
5.43165e-08
1.83889e-09
5.38353e-08
1.82767e-09
5.33527e-08
1.81663e-09
5.28686e-08
1.80582e-09
5.23833e-08
1.79534e-09
5.18966e-08
1.78529e-09
5.14088e-08
1.7759e-09
5.09197e-08
1.76746e-09
5.04296e-08
1.76056e-09
4.99389e-08
1.75618e-09
4.94495e-08
1.75577e-09
4.89683e-08
1.75953e-09
1.75454e-09
8.6305e-08
2.42593e-09
-8.64112e-08
8.62187e-08
2.56033e-09
8.6147e-08
2.688e-09
8.60849e-08
2.80663e-09
8.60289e-08
2.9155e-09
8.59766e-08
3.01465e-09
8.59261e-08
3.10417e-09
8.58758e-08
3.18415e-09
8.58244e-08
3.25473e-09
8.57708e-08
3.31607e-09
8.57143e-08
3.36837e-09
8.56537e-08
3.4118e-09
8.55885e-08
3.44654e-09
8.55177e-08
3.47279e-09
8.54406e-08
3.49081e-09
8.53565e-08
3.50088e-09
8.52647e-08
3.50337e-09
8.51646e-08
3.49871e-09
8.50556e-08
3.4874e-09
8.49375e-08
3.47002e-09
8.48097e-08
3.4472e-09
8.46722e-08
3.41963e-09
8.45248e-08
3.38802e-09
8.43677e-08
3.35313e-09
8.4201e-08
3.31567e-09
8.4025e-08
3.27639e-09
8.384e-08
3.23596e-09
8.36465e-08
3.195e-09
8.3445e-08
3.1541e-09
8.32359e-08
3.11373e-09
8.30198e-08
3.07433e-09
8.27972e-08
3.03621e-09
8.25687e-08
2.99964e-09
8.23346e-08
2.96479e-09
8.20953e-08
2.93179e-09
8.18512e-08
2.90068e-09
8.16027e-08
2.87146e-09
8.13499e-08
2.84411e-09
8.10931e-08
2.81854e-09
8.08324e-08
2.79466e-09
8.05679e-08
2.77237e-09
8.02997e-08
2.75155e-09
8.00278e-08
2.73207e-09
7.97522e-08
2.71382e-09
7.94729e-08
2.69668e-09
7.91899e-08
2.68054e-09
7.89031e-08
2.6653e-09
7.86125e-08
2.65087e-09
7.8318e-08
2.63716e-09
7.80195e-08
2.62411e-09
7.7717e-08
2.61165e-09
7.74103e-08
2.59972e-09
7.70996e-08
2.58827e-09
7.67846e-08
2.57726e-09
7.64653e-08
2.56665e-09
7.61417e-08
2.5564e-09
7.58137e-08
2.5465e-09
7.54813e-08
2.5369e-09
7.51445e-08
2.52758e-09
7.48031e-08
2.51852e-09
7.44572e-08
2.50971e-09
7.41068e-08
2.50111e-09
7.37518e-08
2.4927e-09
7.33922e-08
2.48448e-09
7.30279e-08
2.47641e-09
7.26591e-08
2.46849e-09
7.22856e-08
2.46069e-09
7.19075e-08
2.453e-09
7.15248e-08
2.4454e-09
7.11375e-08
2.43787e-09
7.07455e-08
2.43041e-09
7.0349e-08
2.423e-09
6.99478e-08
2.41561e-09
6.95421e-08
2.40826e-09
6.91319e-08
2.40091e-09
6.87172e-08
2.39356e-09
6.8298e-08
2.38621e-09
6.78744e-08
2.37884e-09
6.74463e-08
2.37145e-09
6.7014e-08
2.36404e-09
6.65773e-08
2.35661e-09
6.61363e-08
2.34915e-09
6.56912e-08
2.34167e-09
6.52419e-08
2.33417e-09
6.47885e-08
2.32667e-09
6.4331e-08
2.31917e-09
6.38696e-08
2.31169e-09
6.34042e-08
2.30427e-09
6.29349e-08
2.29692e-09
6.24619e-08
2.28969e-09
6.19851e-08
2.28265e-09
6.15045e-08
2.27587e-09
6.10203e-08
2.26948e-09
6.05326e-08
2.26366e-09
6.00414e-08
2.25865e-09
5.95471e-08
2.25484e-09
5.90506e-08
2.25265e-09
5.85543e-08
2.25212e-09
5.8063e-08
2.25081e-09
2.23577e-09
9.34025e-08
2.55093e-09
-9.35275e-08
9.32933e-08
2.66954e-09
9.3197e-08
2.7843e-09
9.31103e-08
2.89326e-09
9.30306e-08
2.99529e-09
9.29554e-08
3.08983e-09
9.2883e-08
3.17658e-09
9.28118e-08
3.25535e-09
9.27404e-08
3.32605e-09
9.26679e-08
3.38866e-09
9.2593e-08
3.44323e-09
9.2515e-08
3.48983e-09
9.24329e-08
3.52856e-09
9.23462e-08
3.55957e-09
9.22539e-08
3.58305e-09
9.21556e-08
3.59924e-09
9.20505e-08
3.60844e-09
9.19382e-08
3.61102e-09
9.18182e-08
3.60739e-09
9.16902e-08
3.59805e-09
9.15538e-08
3.58352e-09
9.14091e-08
3.56439e-09
9.12558e-08
3.54128e-09
9.10941e-08
3.51482e-09
9.09242e-08
3.48564e-09
9.07462e-08
3.45439e-09
9.05605e-08
3.42165e-09
9.03675e-08
3.388e-09
9.01676e-08
3.35397e-09
8.99613e-08
3.32001e-09
8.97491e-08
3.28652e-09
8.95315e-08
3.25385e-09
8.93089e-08
3.22226e-09
8.90817e-08
3.19197e-09
8.88504e-08
3.16311e-09
8.86152e-08
3.1358e-09
8.83766e-08
3.11008e-09
8.81348e-08
3.08596e-09
8.78899e-08
3.06341e-09
8.76422e-08
3.0424e-09
8.73917e-08
3.02285e-09
8.71385e-08
3.00469e-09
8.68828e-08
2.98783e-09
8.66244e-08
2.97219e-09
8.63634e-08
2.95766e-09
8.60998e-08
2.94417e-09
8.58335e-08
2.93163e-09
8.55644e-08
2.91996e-09
8.52925e-08
2.90909e-09
8.50176e-08
2.89895e-09
8.47398e-08
2.88949e-09
8.44588e-08
2.88066e-09
8.41747e-08
2.8724e-09
8.38873e-08
2.86466e-09
8.35965e-08
2.85743e-09
8.33023e-08
2.85065e-09
8.30045e-08
2.84429e-09
8.2703e-08
2.83834e-09
8.23979e-08
2.83275e-09
8.20889e-08
2.82751e-09
8.1776e-08
2.82259e-09
8.14591e-08
2.81796e-09
8.11382e-08
2.81361e-09
8.08132e-08
2.80952e-09
8.04839e-08
2.80566e-09
8.01504e-08
2.80201e-09
7.98126e-08
2.79855e-09
7.94703e-08
2.79527e-09
7.91235e-08
2.79214e-09
7.87723e-08
2.78915e-09
7.84164e-08
2.78628e-09
7.80559e-08
2.78351e-09
7.76907e-08
2.78083e-09
7.73207e-08
2.77821e-09
7.6946e-08
2.77566e-09
7.65664e-08
2.77315e-09
7.61819e-08
2.77067e-09
7.57925e-08
2.76822e-09
7.53982e-08
2.76578e-09
7.49989e-08
2.76335e-09
7.45946e-08
2.76092e-09
7.41853e-08
2.75849e-09
7.37709e-08
2.75606e-09
7.33514e-08
2.75363e-09
7.29269e-08
2.75122e-09
7.24972e-08
2.74882e-09
7.20625e-08
2.74645e-09
7.16226e-08
2.74415e-09
7.11776e-08
2.74192e-09
7.07274e-08
2.73983e-09
7.02722e-08
2.73791e-09
6.98118e-08
2.73625e-09
6.93463e-08
2.73494e-09
6.88759e-08
2.73412e-09
6.84006e-08
2.73393e-09
6.79209e-08
2.73451e-09
6.74378e-08
2.73577e-09
6.6953e-08
2.73692e-09
6.64687e-08
2.73514e-09
2.72238e-09
1.01065e-07
2.69411e-09
-1.01208e-07
1.00934e-07
2.80025e-09
1.00814e-07
2.90412e-09
1.00703e-07
3.00425e-09
1.00599e-07
3.09952e-09
1.005e-07
3.18914e-09
1.00404e-07
3.27261e-09
1.00309e-07
3.34955e-09
1.00216e-07
3.41972e-09
1.00122e-07
3.48295e-09
1.00026e-07
3.53915e-09
9.99271e-08
3.58831e-09
9.98252e-08
3.63043e-09
9.97192e-08
3.6656e-09
9.96083e-08
3.69395e-09
9.94919e-08
3.71564e-09
9.93694e-08
3.73092e-09
9.92404e-08
3.74008e-09
9.91043e-08
3.74346e-09
9.89609e-08
3.74145e-09
9.88099e-08
3.73452e-09
9.86512e-08
3.72313e-09
9.84846e-08
3.70781e-09
9.83104e-08
3.6891e-09
9.81285e-08
3.66755e-09
9.79391e-08
3.6437e-09
9.77427e-08
3.61808e-09
9.75395e-08
3.5912e-09
9.73299e-08
3.56354e-09
9.71144e-08
3.53552e-09
9.68934e-08
3.50754e-09
9.66673e-08
3.47991e-09
9.64367e-08
3.45293e-09
9.62018e-08
3.42681e-09
9.59632e-08
3.40175e-09
9.57211e-08
3.37786e-09
9.5476e-08
3.35524e-09
9.5228e-08
3.33395e-09
9.49774e-08
3.31399e-09
9.47244e-08
3.29538e-09
9.44692e-08
3.27807e-09
9.42119e-08
3.26204e-09
9.39525e-08
3.24722e-09
9.36911e-08
3.23357e-09
9.34277e-08
3.22102e-09
9.31624e-08
3.2095e-09
9.28951e-08
3.19894e-09
9.26257e-08
3.1893e-09
9.23543e-08
3.18051e-09
9.20808e-08
3.17251e-09
9.1805e-08
3.16525e-09
9.1527e-08
3.15869e-09
9.12466e-08
3.15278e-09
9.09638e-08
3.14749e-09
9.06784e-08
3.14277e-09
9.03905e-08
3.13861e-09
9.00998e-08
3.13495e-09
8.98064e-08
3.13178e-09
8.951e-08
3.12907e-09
8.92107e-08
3.1268e-09
8.89084e-08
3.12494e-09
8.86029e-08
3.12346e-09
8.82942e-08
3.12235e-09
8.79821e-08
3.12159e-09
8.76666e-08
3.12115e-09
8.73476e-08
3.12101e-09
8.7025e-08
3.12116e-09
8.66987e-08
3.12156e-09
8.63686e-08
3.12222e-09
8.60347e-08
3.1231e-09
8.56968e-08
3.12418e-09
8.53548e-08
3.12546e-09
8.50087e-08
3.12691e-09
8.46584e-08
3.12852e-09
8.43038e-08
3.13028e-09
8.39448e-08
3.13216e-09
8.35813e-08
3.13416e-09
8.32132e-08
3.13627e-09
8.28406e-08
3.13847e-09
8.24632e-08
3.14076e-09
8.20809e-08
3.14313e-09
8.16939e-08
3.14557e-09
8.13018e-08
3.1481e-09
8.09048e-08
3.1507e-09
8.05026e-08
3.15338e-09
8.00953e-08
3.15614e-09
7.96827e-08
3.15902e-09
7.92649e-08
3.16201e-09
7.88416e-08
3.16514e-09
7.8413e-08
3.16846e-09
7.79789e-08
3.172e-09
7.75393e-08
3.17583e-09
7.70943e-08
3.18001e-09
7.66438e-08
3.18462e-09
7.6188e-08
3.18969e-09
7.57273e-08
3.19517e-09
7.52624e-08
3.20069e-09
7.4794e-08
3.2053e-09
7.43221e-08
3.20703e-09
3.20316e-09
1.09337e-07
2.85572e-09
-1.09499e-07
1.09185e-07
2.9521e-09
1.09042e-07
3.04711e-09
1.08907e-07
3.13965e-09
1.08778e-07
3.22876e-09
1.08653e-07
3.31367e-09
1.08532e-07
3.39377e-09
1.08413e-07
3.46861e-09
1.08295e-07
3.53785e-09
1.08177e-07
3.60123e-09
1.08057e-07
3.65856e-09
1.07936e-07
3.70974e-09
1.07812e-07
3.75472e-09
1.07684e-07
3.7935e-09
1.07551e-07
3.82615e-09
1.07414e-07
3.85277e-09
1.07272e-07
3.87354e-09
1.07123e-07
3.88868e-09
1.06968e-07
3.89845e-09
1.06806e-07
3.90319e-09
1.06638e-07
3.90324e-09
1.06462e-07
3.89901e-09
1.06279e-07
3.89093e-09
1.06088e-07
3.87945e-09
1.05891e-07
3.86504e-09
1.05686e-07
3.84817e-09
1.05475e-07
3.8293e-09
1.05257e-07
3.80888e-09
1.05034e-07
3.78733e-09
1.04804e-07
3.76506e-09
1.04569e-07
3.74243e-09
1.04329e-07
3.71974e-09
1.04085e-07
3.6973e-09
1.03836e-07
3.67533e-09
1.03584e-07
3.65403e-09
1.03329e-07
3.63357e-09
1.0307e-07
3.61405e-09
1.02808e-07
3.59556e-09
1.02544e-07
3.57818e-09
1.02277e-07
3.56191e-09
1.02009e-07
3.54678e-09
1.01738e-07
3.53278e-09
1.01465e-07
3.51989e-09
1.01191e-07
3.50808e-09
1.00914e-07
3.49731e-09
1.00636e-07
3.48754e-09
1.00357e-07
3.47873e-09
1.00075e-07
3.47083e-09
9.97918e-08
3.4638e-09
9.95067e-08
3.45758e-09
9.92198e-08
3.45216e-09
9.8931e-08
3.44747e-09
9.86403e-08
3.44349e-09
9.83476e-08
3.44018e-09
9.80529e-08
3.43751e-09
9.7756e-08
3.43545e-09
9.7457e-08
3.43397e-09
9.71558e-08
3.43305e-09
9.68522e-08
3.43265e-09
9.65462e-08
3.43276e-09
9.62378e-08
3.43336e-09
9.59268e-08
3.43442e-09
9.56133e-08
3.43592e-09
9.5297e-08
3.43784e-09
9.4978e-08
3.44016e-09
9.46562e-08
3.44286e-09
9.43314e-08
3.44593e-09
9.40036e-08
3.44934e-09
9.36727e-08
3.45308e-09
9.33387e-08
3.45713e-09
9.30014e-08
3.46147e-09
9.26608e-08
3.46608e-09
9.23168e-08
3.47096e-09
9.19692e-08
3.47608e-09
9.16181e-08
3.48143e-09
9.12632e-08
3.487e-09
9.09046e-08
3.49278e-09
9.05421e-08
3.49875e-09
9.01757e-08
3.50491e-09
8.98052e-08
3.51124e-09
8.94306e-08
3.51775e-09
8.90517e-08
3.52443e-09
8.86685e-08
3.53127e-09
8.8281e-08
3.53828e-09
8.78889e-08
3.54546e-09
8.74922e-08
3.55281e-09
8.70909e-08
3.56035e-09
8.66848e-08
3.5681e-09
8.62738e-08
3.57608e-09
8.5858e-08
3.5843e-09
8.54372e-08
3.59281e-09
8.50114e-08
3.60165e-09
8.45805e-08
3.61085e-09
8.41447e-08
3.62044e-09
8.3704e-08
3.63038e-09
8.32586e-08
3.64056e-09
8.28087e-08
3.65062e-09
8.23542e-08
3.65982e-09
8.18941e-08
3.66712e-09
3.67189e-09
6.85645e-08
2.72289e-09
-6.84317e-08
6.87039e-08
2.81273e-09
6.88496e-08
2.90145e-09
6.90011e-08
2.98815e-09
6.91579e-08
3.07199e-09
6.93193e-08
3.15223e-09
6.94848e-08
3.2283e-09
6.96536e-08
3.29973e-09
6.98254e-08
3.36615e-09
6.99993e-08
3.42728e-09
7.0175e-08
3.4829e-09
7.03518e-08
3.53288e-09
7.05294e-08
3.57713e-09
7.07073e-08
3.61562e-09
7.0885e-08
3.6484e-09
7.10623e-08
3.67554e-09
7.12387e-08
3.69717e-09
7.14139e-08
3.71348e-09
7.15876e-08
3.7247e-09
7.17597e-08
3.73111e-09
7.19299e-08
3.73303e-09
7.20981e-08
3.7308e-09
7.22642e-08
3.72482e-09
7.24282e-08
3.71548e-09
7.259e-08
3.70319e-09
7.27498e-08
3.6884e-09
7.29076e-08
3.6715e-09
7.30635e-08
3.65292e-09
7.32178e-08
3.63306e-09
7.33706e-08
3.61227e-09
7.35221e-08
3.5909e-09
7.36726e-08
3.56925e-09
7.38223e-08
3.54762e-09
7.39714e-08
3.52622e-09
7.41202e-08
3.50526e-09
7.42688e-08
3.48492e-09
7.44176e-08
3.46531e-09
7.45666e-08
3.44655e-09
7.47161e-08
3.4287e-09
7.48662e-08
3.41182e-09
7.5017e-08
3.39594e-09
7.51687e-08
3.38108e-09
7.53214e-08
3.36721e-09
7.54751e-08
3.35435e-09
7.563e-08
3.34246e-09
7.5786e-08
3.33151e-09
7.59432e-08
3.32148e-09
7.61017e-08
3.31233e-09
7.62615e-08
3.30403e-09
7.64226e-08
3.29653e-09
7.65849e-08
3.28981e-09
7.67485e-08
3.28384e-09
7.69135e-08
3.27857e-09
7.70797e-08
3.27399e-09
7.72471e-08
3.27005e-09
7.74158e-08
3.26674e-09
7.75857e-08
3.26403e-09
7.77569e-08
3.2619e-09
7.79292e-08
3.26031e-09
7.81028e-08
3.25925e-09
7.82774e-08
3.2587e-09
7.84532e-08
3.25864e-09
7.86301e-08
3.25905e-09
7.8808e-08
3.25991e-09
7.89869e-08
3.26121e-09
7.91669e-08
3.26292e-09
7.93478e-08
3.26503e-09
7.95296e-08
3.26752e-09
7.97123e-08
3.27038e-09
7.98958e-08
3.27359e-09
8.00802e-08
3.27714e-09
8.02652e-08
3.28102e-09
8.0451e-08
3.28521e-09
8.06373e-08
3.2897e-09
8.08243e-08
3.29448e-09
8.10118e-08
3.29954e-09
8.11997e-08
3.30488e-09
8.13879e-08
3.31047e-09
8.15765e-08
3.31633e-09
8.17653e-08
3.32245e-09
8.19542e-08
3.32881e-09
8.21432e-08
3.33544e-09
8.23322e-08
3.34231e-09
8.2521e-08
3.34946e-09
8.27096e-08
3.35687e-09
8.28979e-08
3.36456e-09
8.30857e-08
3.37255e-09
8.32729e-08
3.38086e-09
8.34595e-08
3.38951e-09
8.36452e-08
3.39853e-09
8.38301e-08
3.40795e-09
8.4014e-08
3.41779e-09
8.41967e-08
3.42808e-09
8.43783e-08
3.43881e-09
8.45588e-08
3.44995e-09
8.4738e-08
3.46135e-09
8.49158e-08
3.47277e-09
8.50919e-08
3.48374e-09
8.52655e-08
3.49356e-09
3.5013e-09
7.57719e-08
2.57772e-09
-7.56268e-08
7.59232e-08
2.66148e-09
7.60803e-08
2.74432e-09
7.6243e-08
2.82547e-09
7.64108e-08
2.90422e-09
7.65831e-08
2.97989e-09
7.67595e-08
3.05194e-09
7.69393e-08
3.11991e-09
7.7122e-08
3.18342e-09
7.73071e-08
3.24216e-09
7.74941e-08
3.29591e-09
7.76825e-08
3.3445e-09
7.78718e-08
3.38782e-09
7.80616e-08
3.42582e-09
7.82515e-08
3.4585e-09
7.84411e-08
3.4859e-09
7.86302e-08
3.50814e-09
7.88183e-08
3.52536e-09
7.90052e-08
3.53776e-09
7.91907e-08
3.54557e-09
7.93747e-08
3.54907e-09
7.95569e-08
3.54857e-09
7.97374e-08
3.54439e-09
7.99159e-08
3.53691e-09
8.00926e-08
3.52648e-09
8.02675e-08
3.5135e-09
8.04407e-08
3.49834e-09
8.06122e-08
3.48138e-09
8.07823e-08
3.46297e-09
8.09511e-08
3.44347e-09
8.11188e-08
3.42319e-09
8.12856e-08
3.40244e-09
8.14518e-08
3.38146e-09
8.16175e-08
3.36051e-09
8.1783e-08
3.33978e-09
8.19485e-08
3.31944e-09
8.21141e-08
3.29965e-09
8.22802e-08
3.28051e-09
8.24468e-08
3.26211e-09
8.26141e-08
3.24453e-09
8.27822e-08
3.2278e-09
8.29513e-08
3.21196e-09
8.31215e-08
3.19702e-09
8.32929e-08
3.18298e-09
8.34655e-08
3.16984e-09
8.36394e-08
3.15759e-09
8.38147e-08
3.14619e-09
8.39914e-08
3.13564e-09
8.41695e-08
3.12591e-09
8.43491e-08
3.11695e-09
8.45301e-08
3.10876e-09
8.47127e-08
3.1013e-09
8.48967e-08
3.09454e-09
8.50822e-08
3.08846e-09
8.52693e-08
3.08303e-09
8.54578e-08
3.07823e-09
8.56478e-08
3.07403e-09
8.58393e-08
3.07041e-09
8.60322e-08
3.06735e-09
8.62267e-08
3.06482e-09
8.64225e-08
3.06282e-09
8.66199e-08
3.06131e-09
8.68186e-08
3.06028e-09
8.70188e-08
3.05972e-09
8.72204e-08
3.05961e-09
8.74234e-08
3.05993e-09
8.76278e-08
3.06066e-09
8.78335e-08
3.0618e-09
8.80406e-08
3.06332e-09
8.82489e-08
3.06522e-09
8.84586e-08
3.06748e-09
8.86695e-08
3.07009e-09
8.88817e-08
3.07304e-09
8.90951e-08
3.07632e-09
8.93097e-08
3.07992e-09
8.95254e-08
3.08384e-09
8.97422e-08
3.08806e-09
8.99601e-08
3.09259e-09
9.0179e-08
3.09743e-09
9.03989e-08
3.10256e-09
9.06197e-08
3.108e-09
9.08414e-08
3.11374e-09
9.10639e-08
3.11979e-09
9.12872e-08
3.12617e-09
9.15112e-08
3.13288e-09
9.17358e-08
3.13994e-09
9.1961e-08
3.14736e-09
9.21867e-08
3.15517e-09
9.24128e-08
3.1634e-09
9.26392e-08
3.17207e-09
9.2866e-08
3.18121e-09
9.30929e-08
3.19085e-09
9.332e-08
3.201e-09
9.35471e-08
3.21167e-09
9.37743e-08
3.22281e-09
9.40013e-08
3.23434e-09
9.42279e-08
3.24611e-09
9.44539e-08
3.25781e-09
9.46786e-08
3.26885e-09
3.27872e-09
8.37336e-08
2.41938e-09
-8.35753e-08
8.38976e-08
2.49747e-09
8.40671e-08
2.57478e-09
8.42419e-08
2.65068e-09
8.44216e-08
2.72453e-09
8.46058e-08
2.79574e-09
8.47939e-08
2.8638e-09
8.49856e-08
2.92828e-09
8.51802e-08
2.98879e-09
8.53773e-08
3.04503e-09
8.55765e-08
3.09676e-09
8.57772e-08
3.14378e-09
8.5979e-08
3.18597e-09
8.61816e-08
3.22325e-09
8.63845e-08
3.25559e-09
8.65874e-08
3.28301e-09
8.679e-08
3.30559e-09
8.69919e-08
3.32344e-09
8.71929e-08
3.33672e-09
8.73929e-08
3.34563e-09
8.75916e-08
3.35041e-09
8.77888e-08
3.35131e-09
8.79846e-08
3.34864e-09
8.81788e-08
3.3427e-09