/*--------------------------------*- C++ -*----------------------------------*\
| =========                 |                                                 |
| \\      /  F ield         | OpenFOAM: The Open Source CFD Toolbox           |
|  \\    /   O peration     | Version:  2.3.0                                 |
|   \\  /    A nd           | Web:      www.OpenFOAM.org                      |
|    \\/     M anipulation  |                                                 |
\*---------------------------------------------------------------------------*/
FoamFile
{
    version     2.0;
    format      ascii;
    class       volVectorField;
    location    "1";
    object      U;
}
// * * * * * * * * * * * * * * * * * * * * * * * * * * * * * * * * * * * * * //

dimensions      [0 1 -1 0 0 0 0];

internalField   nonuniform List<vector> 
2250
(
(0.184647 0.00407599 1.19028e-06)
(0.177451 0.0044464 3.07455e-06)
(0.170047 0.00453788 4.40546e-06)
(0.162473 0.00449587 5.46517e-06)
(0.154921 0.00438511 6.30685e-06)
(0.14749 0.00422995 6.87447e-06)
(0.140209 0.00404442 7.14505e-06)
(0.133095 0.00383931 7.12543e-06)
(0.126166 0.00362229 6.81969e-06)
(0.119442 0.00339841 6.22436e-06)
(0.112941 0.0031711 5.33712e-06)
(0.10668 0.00294291 4.16227e-06)
(0.100673 0.00271584 2.71144e-06)
(0.0949331 0.0024916 1.00328e-06)
(0.0894705 0.00227172 -9.36514e-07)
(0.084295 0.0020576 -3.07521e-06)
(0.0794136 0.0018506 -5.37357e-06)
(0.074831 0.00165202 -7.78694e-06)
(0.0705492 0.00146308 -1.02668e-05)
(0.0665675 0.0012849 -1.27625e-05)
(0.0628827 0.00111845 -1.52238e-05)
(0.0594884 0.000964531 -1.76024e-05)
(0.0563759 0.00082369 -1.98547e-05)
(0.053534 0.000696242 -2.19428e-05)
(0.0509493 0.000582231 -2.38368e-05)
(0.0486068 0.000481444 -2.55146e-05)
(0.04649 0.000393428 -2.69633e-05)
(0.0445814 0.000317521 -2.8178e-05)
(0.0428631 0.000252898 -2.91618e-05)
(0.0413172 0.00019862 -2.99242e-05)
(0.0399259 0.000153676 -3.04804e-05)
(0.038672 0.000117026 -3.08493e-05)
(0.0375396 8.76396e-05 -3.10523e-05)
(0.0365135 6.45175e-05 -3.11121e-05)
(0.03558 4.67167e-05 -3.10513e-05)
(0.0347266 3.33626e-05 -3.08917e-05)
(0.0339424 2.36595e-05 -3.06536e-05)
(0.0332175 1.68959e-05 -3.03551e-05)
(0.0325437 1.24467e-05 -3.0012e-05)
(0.0319138 9.77311e-06 -2.96378e-05)
(0.0313216 8.41926e-06 -2.92434e-05)
(0.0307622 8.00762e-06 -2.88378e-05)
(0.0302314 8.23225e-06 -2.84277e-05)
(0.0297256 8.85164e-06 -2.80182e-05)
(0.0292421 9.6858e-06 -2.76129e-05)
(0.0287786 1.06028e-05 -2.72144e-05)
(0.0283332 1.15083e-05 -2.68239e-05)
(0.0279044 1.23384e-05 -2.64423e-05)
(0.0274911 1.3053e-05 -2.60698e-05)
(0.0270921 1.36303e-05 -2.57063e-05)
(0.0267067 1.40622e-05 -2.53513e-05)
(0.0263341 1.43502e-05 -2.50046e-05)
(0.0259738 1.45023e-05 -2.46656e-05)
(0.0256251 1.45304e-05 -2.43339e-05)
(0.0252875 1.44486e-05 -2.40092e-05)
(0.0249607 1.42719e-05 -2.36912e-05)
(0.0246442 1.40148e-05 -2.33797e-05)
(0.0243375 1.36912e-05 -2.30748e-05)
(0.0240404 1.33136e-05 -2.27762e-05)
(0.0237523 1.28934e-05 -2.24842e-05)
(0.023473 1.24402e-05 -2.21988e-05)
(0.0232021 1.19624e-05 -2.19201e-05)
(0.0229393 1.1467e-05 -2.16482e-05)
(0.0226843 1.09599e-05 -2.13833e-05)
(0.0224368 1.04458e-05 -2.11252e-05)
(0.0221965 9.9285e-06 -2.08742e-05)
(0.0219631 9.41114e-06 -2.063e-05)
(0.0217363 8.89609e-06 -2.03926e-05)
(0.0215161 8.38522e-06 -2.01617e-05)
(0.021302 7.87995e-06 -1.9937e-05)
(0.021094 7.38133e-06 -1.9718e-05)
(0.0208917 6.89016e-06 -1.9504e-05)
(0.0206951 6.40697e-06 -1.92945e-05)
(0.0205039 5.93214e-06 -1.90885e-05)
(0.020318 5.46588e-06 -1.88851e-05)
(0.0201373 5.00834e-06 -1.86829e-05)
(0.0199616 4.55958e-06 -1.84808e-05)
(0.0197907 4.11961e-06 -1.8277e-05)
(0.0196246 3.68843e-06 -1.80698e-05)
(0.0194631 3.26605e-06 -1.78572e-05)
(0.0193061 2.85245e-06 -1.76368e-05)
(0.0191536 2.44766e-06 -1.74062e-05)
(0.0190053 2.05178e-06 -1.71623e-05)
(0.0188612 1.66494e-06 -1.6902e-05)
(0.0187213 1.28742e-06 -1.66216e-05)
(0.0185853 9.19582e-07 -1.63169e-05)
(0.0184533 5.62014e-07 -1.59832e-05)
(0.0183251 2.15502e-07 -1.56154e-05)
(0.0182005 -1.18774e-07 -1.52073e-05)
(0.0180796 -4.39017e-07 -1.47522e-05)
(0.0179621 -7.42625e-07 -1.42423e-05)
(0.0178479 -1.02559e-06 -1.36684e-05)
(0.0177368 -1.28122e-06 -1.30199e-05)
(0.0176286 -1.49816e-06 -1.22836e-05)
(0.0175227 -1.65504e-06 -1.14437e-05)
(0.0174187 -1.7072e-06 -1.04791e-05)
(0.0173153 -1.54532e-06 -9.36066e-06)
(0.0172103 -1.1426e-06 -8.03637e-06)
(0.0171105 -1.65755e-07 -6.40604e-06)
(0.0167824 5.78559e-05 -5.29115e-06)
(0.193866 0.0062548 8.27954e-07)
(0.193709 0.00684813 2.4222e-06)
(0.193065 0.00706703 3.78021e-06)
(0.191937 0.00712848 4.85084e-06)
(0.190426 0.00711768 5.66222e-06)
(0.188604 0.00705719 6.21525e-06)
(0.186508 0.00695727 6.5022e-06)
(0.184166 0.0068264 6.52713e-06)
(0.181609 0.00667039 6.29811e-06)
(0.178865 0.00649257 5.81976e-06)
(0.175962 0.00629509 5.09539e-06)
(0.172928 0.0060797 4.13092e-06)
(0.169788 0.00584816 2.93659e-06)
(0.166564 0.00560232 1.52732e-06)
(0.163281 0.0053442 -7.71718e-08)
(0.15996 0.00507603 -1.85214e-06)
(0.156619 0.00480021 -3.76797e-06)
(0.153278 0.0045193 -5.7908e-06)
(0.149954 0.00423599 -7.88341e-06)
(0.14666 0.003953 -1.00065e-05)
(0.143412 0.00367303 -1.21203e-05)
(0.14022 0.00339867 -1.41859e-05)
(0.137093 0.00313236 -1.6167e-05)
(0.13404 0.00287626 -1.80314e-05)
(0.131067 0.00263225 -1.97518e-05)
(0.128178 0.00240186 -2.13074e-05)
(0.125377 0.00218622 -2.26836e-05)
(0.122665 0.0019861 -2.38724e-05)
(0.120044 0.00180187 -2.48722e-05)
(0.117512 0.00163356 -2.56869e-05)
(0.115071 0.00148088 -2.63255e-05)
(0.112716 0.00134326 -2.68006e-05)
(0.110448 0.00121993 -2.71273e-05)
(0.108263 0.00110994 -2.73228e-05)
(0.106158 0.00101223 -2.74046e-05)
(0.104131 0.000925697 -2.73905e-05)
(0.102178 0.000849201 -2.72973e-05)
(0.100297 0.00078163 -2.71404e-05)
(0.0984844 0.000721921 -2.69339e-05)
(0.0967373 0.000669079 -2.669e-05)
(0.0950529 0.000622194 -2.64191e-05)
(0.0934281 0.000580448 -2.61296e-05)
(0.0918604 0.000543117 -2.58285e-05)
(0.0903471 0.000509566 -2.55212e-05)
(0.0888856 0.000479243 -2.52115e-05)
(0.0874736 0.000451677 -2.49024e-05)
(0.0861087 0.000426474 -2.45959e-05)
(0.0847888 0.000403307 -2.42934e-05)
(0.0835119 0.000381906 -2.39955e-05)
(0.0822759 0.000362051 -2.37027e-05)
(0.081079 0.000343559 -2.3415e-05)
(0.0799194 0.000326282 -2.31324e-05)
(0.0787955 0.000310096 -2.28548e-05)
(0.0777056 0.000294899 -2.25819e-05)
(0.0766483 0.000280606 -2.23136e-05)
(0.0756221 0.000267145 -2.20499e-05)
(0.0746257 0.000254451 -2.17908e-05)
(0.0736577 0.000242471 -2.15362e-05)
(0.0727169 0.000231153 -2.12862e-05)
(0.0718022 0.000220454 -2.1041e-05)
(0.0709124 0.000210333 -2.08007e-05)
(0.0700466 0.00020075 -2.05654e-05)
(0.0692037 0.00019167 -2.03354e-05)
(0.0683827 0.000183061 -2.01108e-05)
(0.0675828 0.00017489 -1.98916e-05)
(0.0668032 0.000167127 -1.9678e-05)
(0.0660431 0.000159746 -1.94699e-05)
(0.0653016 0.000152721 -1.92672e-05)
(0.0645781 0.000146026 -1.90698e-05)
(0.063872 0.000139639 -1.88772e-05)
(0.0631826 0.00013354 -1.86893e-05)
(0.0625092 0.000127708 -1.85053e-05)
(0.0618514 0.000122125 -1.83247e-05)
(0.0612087 0.000116776 -1.81467e-05)
(0.0605804 0.000111643 -1.79703e-05)
(0.0599662 0.000106714 -1.77943e-05)
(0.0593655 0.000101975 -1.76176e-05)
(0.058778 9.74139e-05 -1.74385e-05)
(0.0582033 9.30208e-05 -1.72554e-05)
(0.0576409 8.87855e-05 -1.70663e-05)
(0.0570906 8.46992e-05 -1.68689e-05)
(0.0565519 8.07537e-05 -1.66609e-05)
(0.0560244 7.69421e-05 -1.64393e-05)
(0.055508 7.32578e-05 -1.62009e-05)
(0.0550021 6.96955e-05 -1.59422e-05)
(0.0545066 6.62504e-05 -1.56592e-05)
(0.0540211 6.29189e-05 -1.53471e-05)
(0.0535453 5.96984e-05 -1.50009e-05)
(0.0530788 5.65879e-05 -1.46147e-05)
(0.0526213 5.35886e-05 -1.41816e-05)
(0.0521725 5.07051e-05 -1.36941e-05)
(0.0517319 4.79476e-05 -1.31432e-05)
(0.051299 4.53368e-05 -1.25183e-05)
(0.0508732 4.29135e-05 -1.18068e-05)
(0.0504539 4.07635e-05 -1.09933e-05)
(0.0500396 3.90804e-05 -1.00579e-05)
(0.0496281 3.83441e-05 -8.97441e-06)
(0.0492148 3.99692e-05 -7.69736e-06)
(0.0488069 5.31197e-05 -6.19804e-06)
(0.0480924 0.000164698 -6.56622e-06)
(0.19497 0.00544215 6.59077e-07)
(0.195386 0.00604258 2.01139e-06)
(0.195769 0.00645353 3.22948e-06)
(0.196026 0.00676663 4.17738e-06)
(0.196147 0.00701863 4.87539e-06)
(0.196138 0.00721405 5.36163e-06)
(0.195994 0.00735411 5.63813e-06)
(0.195709 0.00744272 5.70044e-06)
(0.195281 0.00748409 5.55209e-06)
(0.194712 0.00748151 5.19912e-06)
(0.194004 0.00743775 4.64616e-06)
(0.193162 0.00735557 3.89807e-06)
(0.192191 0.00723784 2.96208e-06)
(0.191098 0.00708765 1.84868e-06)
(0.18989 0.00690828 5.71747e-07)
(0.188577 0.00670322 -8.5134e-07)
(0.187166 0.00647615 -2.39969e-06)
(0.185668 0.00623091 -4.04917e-06)
(0.184092 0.00597145 -5.77284e-06)
(0.182449 0.00570176 -7.54174e-06)
(0.180747 0.00542576 -9.32576e-06)
(0.178997 0.00514721 -1.10947e-05)
(0.177208 0.00486966 -1.28193e-05)
(0.175388 0.00459632 -1.44723e-05)
(0.173546 0.00432999 -1.60295e-05)
(0.171687 0.00407306 -1.74706e-05)
(0.16982 0.0038274 -1.87796e-05)
(0.167949 0.00359442 -1.99453e-05)
(0.16608 0.00337504 -2.09615e-05)
(0.164216 0.00316976 -2.18264e-05)
(0.162362 0.00297865 -2.25425e-05)
(0.16052 0.00280149 -2.3116e-05)
(0.158692 0.00263776 -2.35561e-05)
(0.156881 0.00248675 -2.38741e-05)
(0.155088 0.00234762 -2.40828e-05)
(0.153314 0.00221943 -2.41958e-05)
(0.151559 0.00210123 -2.42268e-05)
(0.149825 0.00199206 -2.41891e-05)
(0.148112 0.00189101 -2.40951e-05)
(0.146419 0.00179723 -2.39562e-05)
(0.144748 0.00170993 -2.37823e-05)
(0.143099 0.00162842 -2.35822e-05)
(0.141471 0.00155208 -2.33631e-05)
(0.139865 0.00148037 -2.3131e-05)
(0.13828 0.00141281 -2.28905e-05)
(0.136718 0.00134901 -2.26452e-05)
(0.135177 0.00128863 -2.23979e-05)
(0.133657 0.00123137 -2.21508e-05)
(0.13216 0.00117698 -2.19052e-05)
(0.130685 0.00112527 -2.1662e-05)
(0.129231 0.00107606 -2.14219e-05)
(0.127799 0.00102919 -2.11852e-05)
(0.126389 0.000984525 -2.0952e-05)
(0.125001 0.000941953 -2.07223e-05)
(0.123634 0.000901366 -2.04963e-05)
(0.122288 0.000862666 -2.0274e-05)
(0.120964 0.00082576 -2.00553e-05)
(0.119662 0.000790564 -1.98403e-05)
(0.11838 0.000756997 -1.96292e-05)
(0.117119 0.00072498 -1.94221e-05)
(0.115879 0.000694439 -1.9219e-05)
(0.114659 0.000665302 -1.90201e-05)
(0.11346 0.000637498 -1.88256e-05)
(0.11228 0.000610961 -1.86356e-05)
(0.111121 0.000585625 -1.84502e-05)
(0.10998 0.000561428 -1.82694e-05)
(0.108859 0.000538309 -1.80931e-05)
(0.107757 0.000516212 -1.79214e-05)
(0.106673 0.000495081 -1.77541e-05)
(0.105608 0.000474864 -1.75908e-05)
(0.10456 0.00045551 -1.74312e-05)
(0.103531 0.000436973 -1.72749e-05)
(0.102519 0.000419207 -1.71211e-05)
(0.101523 0.00040217 -1.69692e-05)
(0.100545 0.000385822 -1.68183e-05)
(0.0995832 0.000370126 -1.66673e-05)
(0.0986376 0.000355046 -1.65149e-05)
(0.0977078 0.000340549 -1.63597e-05)
(0.0967937 0.000326605 -1.62001e-05)
(0.0958948 0.000313184 -1.60343e-05)
(0.0950109 0.00030026 -1.586e-05)
(0.0941418 0.000287807 -1.56748e-05)
(0.0932871 0.000275803 -1.54761e-05)
(0.0924465 0.000264227 -1.52607e-05)
(0.0916197 0.000253059 -1.50252e-05)
(0.0908064 0.000242281 -1.47656e-05)
(0.0900064 0.00023188 -1.44775e-05)
(0.0892191 0.000221843 -1.41559e-05)
(0.0884444 0.00021216 -1.37951e-05)
(0.0876819 0.000202829 -1.33888e-05)
(0.0869311 0.000193851 -1.29294e-05)
(0.0861916 0.000185245 -1.24086e-05)
(0.0854629 0.000177048 -1.18167e-05)
(0.0847442 0.000169346 -1.11428e-05)
(0.0840347 0.000162326 -1.03745e-05)
(0.083333 0.000156424 -9.49959e-06)
(0.0826365 0.000152768 -8.51212e-06)
(0.081941 0.000155177 -7.44731e-06)
(0.0812498 0.000182312 -6.74033e-06)
(0.0802895 0.000302597 -9.63414e-06)
(0.195667 0.00518486 4.75856e-07)
(0.195999 0.00577121 1.46236e-06)
(0.196384 0.00622761 2.442e-06)
(0.196758 0.00658682 3.29904e-06)
(0.197102 0.00687547 3.98951e-06)
(0.197416 0.00710528 4.51611e-06)
(0.197696 0.00728259 4.87227e-06)
(0.197936 0.00741327 5.04445e-06)
(0.198129 0.00750231 5.02803e-06)
(0.198268 0.00755318 4.82706e-06)
(0.19835 0.00756822 4.44816e-06)
(0.198369 0.0075492 3.89842e-06)
(0.198322 0.00749772 3.18627e-06)
(0.198206 0.00741545 2.32212e-06)
(0.198017 0.00730425 1.31847e-06)
(0.197754 0.00716623 1.89702e-07)
(0.197418 0.00700387 -1.04786e-06)
(0.197008 0.00681994 -2.37605e-06)
(0.196525 0.00661751 -3.77506e-06)
(0.195973 0.00639988 -5.22371e-06)
(0.195353 0.00617047 -6.69992e-06)
(0.194669 0.00593276 -8.18121e-06)
(0.193926 0.00569015 -9.64534e-06)
(0.193128 0.0054459 -1.1071e-05)
(0.192279 0.00520298 -1.24383e-05)
(0.191384 0.00496406 -1.37299e-05)
(0.190448 0.00473142 -1.49306e-05)
(0.189475 0.00450691 -1.60288e-05)
(0.188471 0.00429196 -1.7016e-05)
(0.187438 0.00408758 -1.7887e-05)
(0.186381 0.0038944 -1.86403e-05)
(0.185304 0.00371267 -1.9277e-05)
(0.184208 0.00354236 -1.98012e-05)
(0.183097 0.00338319 -2.02191e-05)
(0.181973 0.00323467 -2.05386e-05)
(0.180837 0.0030962 -2.07689e-05)
(0.179692 0.00296706 -2.09199e-05)
(0.178539 0.0028465 -2.10014e-05)
(0.177379 0.00273376 -2.10236e-05)
(0.176212 0.00262807 -2.09956e-05)
(0.17504 0.00252873 -2.09264e-05)
(0.173864 0.00243506 -2.08237e-05)
(0.172683 0.00234646 -2.06945e-05)
(0.171499 0.00226239 -2.05449e-05)
(0.170312 0.00218237 -2.03799e-05)
(0.169123 0.00210599 -2.02038e-05)
(0.167931 0.0020329 -2.00199e-05)
(0.166738 0.0019628 -1.9831e-05)
(0.165544 0.00189543 -1.96392e-05)
(0.164349 0.00183059 -1.94461e-05)
(0.163155 0.00176809 -1.92527e-05)
(0.16196 0.00170779 -1.90601e-05)
(0.160766 0.00164956 -1.88687e-05)
(0.159574 0.0015933 -1.86791e-05)
(0.158383 0.00153891 -1.84916e-05)
(0.157194 0.00148632 -1.83064e-05)
(0.156008 0.00143546 -1.81239e-05)
(0.154824 0.00138625 -1.7944e-05)
(0.153644 0.00133865 -1.77671e-05)
(0.152468 0.0012926 -1.75934e-05)
(0.151296 0.00124805 -1.74228e-05)
(0.150128 0.00120495 -1.72557e-05)
(0.148965 0.00116325 -1.70922e-05)
(0.147808 0.0011229 -1.69323e-05)
(0.146656 0.00108386 -1.67763e-05)
(0.145509 0.00104608 -1.6624e-05)
(0.144369 0.00100953 -1.64755e-05)
(0.143235 0.000974155 -1.63307e-05)
(0.142109 0.00093992 -1.61894e-05)
(0.140989 0.000906784 -1.60515e-05)
(0.139876 0.000874708 -1.59165e-05)
(0.138771 0.000843655 -1.5784e-05)
(0.137673 0.000813588 -1.56535e-05)
(0.136584 0.000784472 -1.55242e-05)
(0.135502 0.000756274 -1.53954e-05)
(0.134429 0.000728961 -1.52659e-05)
(0.133364 0.000702502 -1.51346e-05)
(0.132308 0.000676867 -1.50002e-05)
(0.131261 0.000652027 -1.48611e-05)
(0.130223 0.000627955 -1.47155e-05)
(0.129194 0.000604625 -1.45614e-05)
(0.128173 0.000582013 -1.43965e-05)
(0.127162 0.000560093 -1.42181e-05)
(0.126161 0.000538846 -1.40233e-05)
(0.125168 0.00051825 -1.38088e-05)
(0.124185 0.000498288 -1.35708e-05)
(0.123211 0.000478944 -1.3305e-05)
(0.122247 0.000460205 -1.30068e-05)
(0.121291 0.000442064 -1.26707e-05)
(0.120345 0.00042452 -1.22908e-05)
(0.119408 0.000407584 -1.18604e-05)
(0.11848 0.000391287 -1.13722e-05)
(0.11756 0.000375698 -1.08185e-05)
(0.116648 0.000360959 -1.0192e-05)
(0.115743 0.000347376 -9.48837e-06)
(0.114845 0.000335653 -8.71436e-06)
(0.113951 0.000327596 -7.91614e-06)
(0.113059 0.000328698 -7.29761e-06)
(0.112178 0.000357726 -7.78468e-06)
(0.111073 0.000453872 -1.27641e-05)
(0.196259 0.00495252 3.48427e-07)
(0.196492 0.00545077 1.08503e-06)
(0.196783 0.00586376 1.87884e-06)
(0.197097 0.00620204 2.63748e-06)
(0.197417 0.00648249 3.28086e-06)
(0.197736 0.00671543 3.7852e-06)
(0.198054 0.0069061 4.14556e-06)
(0.198364 0.0070582 4.35416e-06)
(0.198663 0.00717481 4.40611e-06)
(0.198947 0.0072582 4.30376e-06)
(0.199212 0.00730991 4.05355e-06)
(0.199454 0.00733109 3.66277e-06)
(0.19967 0.00732279 3.13905e-06)
(0.199856 0.00728613 2.49088e-06)
(0.200008 0.00722241 1.72785e-06)
(0.200124 0.0071332 8.60542e-07)
(0.200199 0.00702035 -9.94314e-08)
(0.200233 0.006886 -1.13946e-06)
(0.200223 0.0067326 -2.24592e-06)
(0.200167 0.00656284 -3.40427e-06)
(0.200065 0.00637958 -4.59918e-06)
(0.199917 0.00618579 -5.81477e-06)
(0.199723 0.00598446 -7.03488e-06)
(0.199485 0.00577848 -8.24343e-06)
(0.199204 0.00557063 -9.42478e-06)
(0.198882 0.00536341 -1.05642e-05)
(0.198522 0.00515907 -1.16482e-05)
(0.198125 0.00495951 -1.26649e-05)
(0.197695 0.00476628 -1.36047e-05)
(0.197234 0.00458055 -1.44599e-05)
(0.196744 0.00440317 -1.52253e-05)
(0.196229 0.00423464 -1.58982e-05)
(0.19569 0.00407518 -1.64781e-05)
(0.195129 0.00392477 -1.69667e-05)
(0.194548 0.00378318 -1.73673e-05)
(0.193949 0.00365002 -1.76851e-05)
(0.193333 0.00352481 -1.79263e-05)
(0.192701 0.00340698 -1.80979e-05)
(0.192054 0.00329592 -1.82074e-05)
(0.191393 0.00319104 -1.82626e-05)
(0.190718 0.00309174 -1.82708e-05)
(0.190031 0.00299746 -1.82395e-05)
(0.189331 0.00290768 -1.81753e-05)
(0.188619 0.00282193 -1.80843e-05)
(0.187895 0.00273979 -1.79721e-05)
(0.18716 0.0026609 -1.78433e-05)
(0.186413 0.00258494 -1.7702e-05)
(0.185656 0.00251165 -1.75515e-05)
(0.184887 0.00244079 -1.73947e-05)
(0.184108 0.00237218 -1.72338e-05)
(0.183319 0.00230565 -1.70705e-05)
(0.18252 0.00224107 -1.69064e-05)
(0.18171 0.00217832 -1.67424e-05)
(0.180892 0.00211731 -1.65793e-05)
(0.180064 0.00205797 -1.64179e-05)
(0.179227 0.00200021 -1.62585e-05)
(0.178381 0.00194398 -1.61015e-05)
(0.177527 0.00188922 -1.59473e-05)
(0.176664 0.00183589 -1.57959e-05)
(0.175794 0.00178393 -1.56475e-05)
(0.174917 0.0017333 -1.55024e-05)
(0.174032 0.00168396 -1.53605e-05)
(0.173141 0.00163587 -1.5222e-05)
(0.172243 0.00158899 -1.5087e-05)
(0.171339 0.00154327 -1.49554e-05)
(0.170429 0.0014987 -1.48271e-05)
(0.169513 0.00145522 -1.47023e-05)
(0.168592 0.0014128 -1.45806e-05)
(0.167667 0.00137141 -1.4462e-05)
(0.166737 0.00133102 -1.43461e-05)
(0.165803 0.0012916 -1.42326e-05)
(0.164865 0.00125312 -1.41211e-05)
(0.163923 0.00121555 -1.40109e-05)
(0.162979 0.00117886 -1.39015e-05)
(0.162031 0.00114302 -1.37919e-05)
(0.161081 0.00110802 -1.36813e-05)
(0.160129 0.00107384 -1.35684e-05)
(0.159175 0.00104044 -1.34521e-05)
(0.15822 0.00100782 -1.33309e-05)
(0.157263 0.000975947 -1.32029e-05)
(0.156305 0.000944811 -1.30664e-05)
(0.155347 0.000914395 -1.2919e-05)
(0.154389 0.000884685 -1.27583e-05)
(0.15343 0.000855668 -1.25814e-05)
(0.152472 0.000827334 -1.23853e-05)
(0.151514 0.000799673 -1.21663e-05)
(0.150556 0.00077268 -1.19205e-05)
(0.1496 0.000746353 -1.16435e-05)
(0.148645 0.000720696 -1.13304e-05)
(0.147691 0.000695723 -1.09759e-05)
(0.146738 0.000671463 -1.05746e-05)
(0.145786 0.000647972 -1.01209e-05)
(0.144836 0.000625359 -9.6106e-06)
(0.143888 0.00060383 -9.04289e-06)
(0.14294 0.000583811 -8.42707e-06)
(0.141992 0.000566227 -7.80044e-06)
(0.141045 0.00055327 -7.28214e-06)
(0.140098 0.000550533 -7.23969e-06)
(0.139166 0.000571223 -8.73348e-06)
(0.138042 0.000625961 -1.38793e-05)
(0.196777 0.0047775 2.44488e-07)
(0.196947 0.00519956 7.59776e-07)
(0.197167 0.00557126 1.33104e-06)
(0.197418 0.00589145 1.9101e-06)
(0.197687 0.00616587 2.43375e-06)
(0.197965 0.00639945 2.87204e-06)
(0.19825 0.00659506 3.21599e-06)
(0.198536 0.00675488 3.45693e-06)
(0.19882 0.00688107 3.58559e-06)
(0.1991 0.00697559 3.59752e-06)
(0.199374 0.00704008 3.49334e-06)
(0.199638 0.00707594 3.27614e-06)
(0.199891 0.00708445 2.95013e-06)
(0.200131 0.00706691 2.52046e-06)
(0.200354 0.00702466 1.99332e-06)
(0.200558 0.00695922 1.37581e-06)
(0.200741 0.00687226 6.7582e-07)
(0.200901 0.00676565 -9.80695e-08)
(0.201036 0.00664146 -9.36574e-07)
(0.201144 0.00650193 -1.82971e-06)
(0.201224 0.00634944 -2.7668e-06)
(0.201275 0.00618647 -3.73655e-06)
(0.201297 0.00601552 -4.72712e-06)
(0.201289 0.00583905 -5.72629e-06)
(0.201253 0.00565943 -6.72168e-06)
(0.201188 0.00547885 -7.70101e-06)
(0.201095 0.00529932 -8.65239e-06)
(0.200977 0.00512256 -9.56469e-06)
(0.200834 0.00495005 -1.04279e-05)
(0.200668 0.00478295 -1.12333e-05)
(0.20048 0.00462215 -1.19739e-05)
(0.200273 0.00446827 -1.26444e-05)
(0.200047 0.00432167 -1.32416e-05)
(0.199804 0.00418248 -1.37639e-05)
(0.199545 0.00405067 -1.42115e-05)
(0.199271 0.00392604 -1.45865e-05)
(0.198984 0.00380827 -1.4892e-05)
(0.198684 0.00369697 -1.51324e-05)
(0.198371 0.00359169 -1.53128e-05)
(0.198047 0.00349197 -1.54389e-05)
(0.197711 0.00339731 -1.55169e-05)
(0.197364 0.00330726 -1.55525e-05)
(0.197006 0.00322137 -1.55519e-05)
(0.196638 0.00313923 -1.55205e-05)
(0.196258 0.00306045 -1.54636e-05)
(0.195867 0.00298471 -1.53857e-05)
(0.195466 0.00291171 -1.52912e-05)
(0.195054 0.00284118 -1.51836e-05)
(0.194631 0.00277291 -1.5066e-05)
(0.194196 0.00270669 -1.49411e-05)
(0.193751 0.00264237 -1.48111e-05)
(0.193295 0.0025798 -1.46777e-05)
(0.192827 0.00251887 -1.45425e-05)
(0.192348 0.00245948 -1.44065e-05)
(0.191858 0.00240154 -1.42706e-05)
(0.191357 0.00234497 -1.41356e-05)
(0.190845 0.00228971 -1.40021e-05)
(0.190321 0.00223571 -1.38703e-05)
(0.189786 0.0021829 -1.37408e-05)
(0.18924 0.00213125 -1.36137e-05)
(0.188683 0.0020807 -1.34892e-05)
(0.188115 0.00203122 -1.33676e-05)
(0.187535 0.00198278 -1.32488e-05)
(0.186945 0.00193532 -1.31329e-05)
(0.186344 0.00188882 -1.302e-05)
(0.185733 0.00184325 -1.29101e-05)
(0.185111 0.00179857 -1.2803e-05)
(0.184478 0.00175475 -1.26987e-05)
(0.183835 0.00171177 -1.25969e-05)
(0.183182 0.00166959 -1.24974e-05)
(0.182519 0.00162818 -1.23999e-05)
(0.181845 0.00158754 -1.23039e-05)
(0.181163 0.00154762 -1.22088e-05)
(0.18047 0.00150841 -1.21141e-05)
(0.179768 0.0014699 -1.2019e-05)
(0.179057 0.00143205 -1.19225e-05)
(0.178336 0.00139486 -1.18236e-05)
(0.177607 0.0013583 -1.17211e-05)
(0.176869 0.00132237 -1.16135e-05)
(0.176123 0.00128706 -1.14993e-05)
(0.175369 0.00125234 -1.13765e-05)
(0.174606 0.00121822 -1.12432e-05)
(0.173836 0.00118468 -1.10969e-05)
(0.173057 0.00115172 -1.0935e-05)
(0.172272 0.00111933 -1.07545e-05)
(0.171479 0.00108752 -1.05521e-05)
(0.170679 0.00105629 -1.03243e-05)
(0.169873 0.00102564 -1.00669e-05)
(0.169059 0.000995603 -9.77587e-06)
(0.168239 0.000966191 -9.44692e-06)
(0.167413 0.000937457 -9.07612e-06)
(0.166581 0.000909482 -8.66067e-06)
(0.165742 0.00088241 -8.201e-06)
(0.164897 0.000856502 -7.70493e-06)
(0.164046 0.000832258 -7.19816e-06)
(0.163189 0.000810685 -6.74963e-06)
(0.162326 0.000793875 -6.53178e-06)
(0.161462 0.000786017 -6.9429e-06)
(0.160611 0.000792843 -8.67584e-06)
(0.159588 0.000804551 -1.17878e-05)
(0.197238 0.00463381 1.54687e-07)
(0.197367 0.00499291 4.80445e-07)
(0.197535 0.00532153 8.5458e-07)
(0.197734 0.00561449 1.26367e-06)
(0.197954 0.00587166 1.66905e-06)
(0.198188 0.00609449 2.04006e-06)
(0.198431 0.00628441 2.35953e-06)
(0.19868 0.00644276 2.61462e-06)
(0.198931 0.00657097 2.79361e-06)
(0.199181 0.00667049 2.8885e-06)
(0.199429 0.00674263 2.89616e-06)
(0.199673 0.0067886 2.81677e-06)
(0.19991 0.00680954 2.65219e-06)
(0.200138 0.00680658 2.40525e-06)
(0.200356 0.00678096 2.07956e-06)
(0.200563 0.006734 1.6793e-06)
(0.200755 0.00666717 1.20915e-06)
(0.200932 0.00658209 6.74116e-07)
(0.201093 0.00648054 7.96259e-08)
(0.201235 0.00636446 -5.68413e-07)
(0.201359 0.00623588 -1.26352e-06)
(0.201463 0.00609693 -1.99855e-06)
(0.201547 0.00594975 -2.76566e-06)
(0.201611 0.00579649 -3.55632e-06)
(0.201655 0.00563921 -4.36139e-06)
(0.20168 0.00547987 -5.17123e-06)
(0.201686 0.00532024 -5.97596e-06)
(0.201674 0.00516192 -6.76571e-06)
(0.201644 0.0050063 -7.53093e-06)
(0.2016 0.0048545 -8.26272e-06)
(0.20154 0.00470744 -8.95308e-06)
(0.201467 0.00456579 -9.59523e-06)
(0.201382 0.00443 -1.01838e-05)
(0.201285 0.00430033 -1.07148e-05)
(0.201178 0.00417687 -1.11859e-05)
(0.201062 0.00405958 -1.15963e-05)
(0.200938 0.00394827 -1.19465e-05)
(0.200805 0.0038427 -1.22383e-05)
(0.200665 0.00374255 -1.24746e-05)
(0.200518 0.00364745 -1.2659e-05)
(0.200365 0.00355704 -1.27958e-05)
(0.200204 0.00347092 -1.28896e-05)
(0.200037 0.00338872 -1.29453e-05)
(0.199864 0.0033101 -1.29676e-05)
(0.199684 0.00323472 -1.29614e-05)
(0.199498 0.00316227 -1.2931e-05)
(0.199304 0.00309249 -1.28806e-05)
(0.199104 0.00302513 -1.28139e-05)
(0.198897 0.00295998 -1.27341e-05)
(0.198682 0.00289684 -1.26442e-05)
(0.19846 0.00283556 -1.25467e-05)
(0.19823 0.002776 -1.24437e-05)
(0.197992 0.00271803 -1.23369e-05)
(0.197745 0.00266154 -1.22277e-05)
(0.197491 0.00260646 -1.21174e-05)
(0.197227 0.00255268 -1.20069e-05)
(0.196955 0.00250015 -1.18968e-05)
(0.196674 0.0024488 -1.17878e-05)
(0.196384 0.00239856 -1.16803e-05)
(0.196084 0.0023494 -1.15747e-05)
(0.195775 0.00230125 -1.14711e-05)
(0.195456 0.00225407 -1.13698e-05)
(0.195127 0.00220782 -1.12709e-05)
(0.194789 0.00216245 -1.11745e-05)
(0.19444 0.00211794 -1.10805e-05)
(0.194081 0.00207423 -1.09889e-05)
(0.193712 0.00203129 -1.08996e-05)
(0.193332 0.0019891 -1.08125e-05)
(0.192942 0.00194761 -1.07274e-05)
(0.192541 0.0019068 -1.0644e-05)
(0.19213 0.00186663 -1.0562e-05)
(0.191708 0.00182709 -1.04809e-05)
(0.191275 0.00178814 -1.04003e-05)
(0.190831 0.00174976 -1.03195e-05)
(0.190376 0.00171193 -1.02377e-05)
(0.18991 0.00167464 -1.01542e-05)
(0.189434 0.00163785 -1.00679e-05)
(0.188946 0.00160156 -9.97761e-06)
(0.188447 0.00156575 -9.88207e-06)
(0.187937 0.00153041 -9.77972e-06)
(0.187416 0.00149552 -9.66883e-06)
(0.186884 0.00146109 -9.54742e-06)
(0.186341 0.0014271 -9.41328e-06)
(0.185787 0.00139355 -9.26394e-06)
(0.185222 0.00136043 -9.09667e-06)
(0.184646 0.00132776 -8.90844e-06)
(0.184059 0.00129554 -8.69603e-06)
(0.183461 0.00126378 -8.45605e-06)
(0.182852 0.0012325 -8.18509e-06)
(0.182232 0.00120174 -7.88019e-06)
(0.181601 0.00117156 -7.53935e-06)
(0.180959 0.00114206 -7.16294e-06)
(0.180307 0.00111341 -6.75647e-06)
(0.179643 0.00108588 -6.33608e-06)
(0.178969 0.00105997 -5.94001e-06)
(0.178285 0.00103659 -5.65152e-06)
(0.177592 0.00101722 -5.63461e-06)
(0.176894 0.00100386 -6.14028e-06)
(0.176205 0.000995748 -7.1989e-06)
(0.17536 0.000973365 -7.09009e-06)
(0.197651 0.00451342 7.45945e-08)
(0.197752 0.00482074 2.35698e-07)
(0.197883 0.0051088 4.37839e-07)
(0.19804 0.00537233 6.84245e-07)
(0.198218 0.00560904 9.55819e-07)
(0.198412 0.00581835 1.2297e-06)
(0.198616 0.00600033 1.48876e-06)
(0.198828 0.00615535 1.72018e-06)
(0.199044 0.00628398 1.91297e-06)
(0.199262 0.00638694 2.05833e-06)
(0.199479 0.00646506 2.15059e-06)
(0.199694 0.00651917 2.18681e-06)
(0.199905 0.00655018 2.16567e-06)
(0.20011 0.00655905 2.0868e-06)
(0.200307 0.00654683 1.95044e-06)
(0.200495 0.00651471 1.75732e-06)
(0.200672 0.00646398 1.50851e-06)
(0.200838 0.00639609 1.20539e-06)
(0.200991 0.0063126 8.49649e-07)
(0.201131 0.0062152 4.43441e-07)
(0.201256 0.00610567 -1.05097e-08)
(0.201365 0.00598586 -5.08752e-07)
(0.20146 0.00585765 -1.04699e-06)
(0.201539 0.0057229 -1.62001e-06)
(0.201603 0.00558345 -2.22165e-06)
(0.201652 0.00544103 -2.84487e-06)
(0.201687 0.00529724 -3.48189e-06)
(0.201709 0.00515355 -4.12439e-06)
(0.201717 0.00501124 -4.76379e-06)
(0.201714 0.00487141 -5.39155e-06)
(0.201701 0.00473497 -5.99946e-06)
(0.201678 0.00460262 -6.57998e-06)
(0.201646 0.00447488 -7.12647e-06)
(0.201606 0.00435212 -7.63342e-06)
(0.20156 0.00423454 -8.09657e-06)
(0.201508 0.00412219 -8.513e-06)
(0.201451 0.00401505 -8.88109e-06)
(0.201389 0.00391298 -9.20049e-06)
(0.201324 0.00381578 -9.47197e-06)
(0.201254 0.00372321 -9.6973e-06)
(0.201182 0.003635 -9.87903e-06)
(0.201106 0.00355085 -1.00203e-05)
(0.201028 0.00347046 -1.01248e-05)
(0.200946 0.00339355 -1.01962e-05)
(0.200862 0.00331984 -1.02385e-05)
(0.200775 0.00324907 -1.02555e-05)
(0.200685 0.003181 -1.0251e-05)
(0.200591 0.0031154 -1.02284e-05)
(0.200495 0.00305207 -1.01908e-05)
(0.200395 0.00299084 -1.01412e-05)
(0.200291 0.00293156 -1.0082e-05)
(0.200183 0.00287407 -1.00155e-05)
(0.200071 0.00281825 -9.94347e-06)
(0.199955 0.002764 -9.8675e-06)
(0.199834 0.00271121 -9.78889e-06)
(0.199708 0.00265981 -9.70871e-06)
(0.199578 0.00260969 -9.62779e-06)
(0.199441 0.00256081 -9.54683e-06)
(0.1993 0.00251308 -9.46633e-06)
(0.199152 0.00246645 -9.3867e-06)
(0.198998 0.00242086 -9.30824e-06)
(0.198838 0.00237626 -9.23117e-06)
(0.198672 0.0023326 -9.15562e-06)
(0.198498 0.00228982 -9.08167e-06)
(0.198318 0.00224789 -9.00934e-06)
(0.198131 0.00220675 -8.93861e-06)
(0.197936 0.00216638 -8.86939e-06)
(0.197733 0.00212672 -8.80155e-06)
(0.197523 0.00208775 -8.7349e-06)
(0.197305 0.00204942 -8.66919e-06)
(0.197078 0.00201169 -8.6041e-06)
(0.196842 0.00197455 -8.53924e-06)
(0.196599 0.00193796 -8.47411e-06)
(0.196346 0.00190188 -8.40815e-06)
(0.196084 0.0018663 -8.34067e-06)
(0.195812 0.00183119 -8.27087e-06)
(0.195532 0.00179653 -8.19781e-06)
(0.195241 0.00176229 -8.12042e-06)
(0.194941 0.00172846 -8.03746e-06)
(0.19463 0.00169503 -7.94748e-06)
(0.19431 0.00166197 -7.84889e-06)
(0.193979 0.00162929 -7.73984e-06)
(0.193637 0.00159696 -7.6183e-06)
(0.193285 0.00156498 -7.482e-06)
(0.192922 0.00153335 -7.32845e-06)
(0.192547 0.00150207 -7.15498e-06)
(0.192162 0.00147114 -6.95882e-06)
(0.191765 0.00144058 -6.73722e-06)
(0.191357 0.00141041 -6.48771e-06)
(0.190937 0.00138067 -6.20871e-06)
(0.190505 0.00135143 -5.90034e-06)
(0.190061 0.00132277 -5.56602e-06)
(0.189605 0.00129487 -5.21543e-06)
(0.189138 0.00126799 -4.86925e-06)
(0.188658 0.00124253 -4.56611e-06)
(0.188167 0.00121908 -4.36949e-06)
(0.187667 0.00119821 -4.35434e-06)
(0.18716 0.00117961 -4.49464e-06)
(0.186654 0.00115839 -4.19724e-06)
(0.186013 0.00111445 -1.03438e-06)
(0.198024 0.00440788 1.89328e-09)
(0.198104 0.00467301 1.59369e-08)
(0.198206 0.00492545 6.52561e-08)
(0.198331 0.00516086 1.60483e-07)
(0.198474 0.00537641 2.96821e-07)
(0.198632 0.00557051 4.62459e-07)
(0.198801 0.0057423 6.45236e-07)
(0.198978 0.00589142 8.34327e-07)
(0.199161 0.00601779 1.01973e-06)
(0.199346 0.00612161 1.19241e-06)
(0.199533 0.00620328 1.34497e-06)
(0.199719 0.0062633 1.47181e-06)
(0.199902 0.00630232 1.56878e-06)
(0.200081 0.00632109 1.63261e-06)
(0.200254 0.00632048 1.66061e-06)
(0.200421 0.00630146 1.65054e-06)
(0.200579 0.00626514 1.60043e-06)
(0.200728 0.00621275 1.50858e-06)
(0.200866 0.00614563 1.37357e-06)
(0.200993 0.00606521 1.19436e-06)
(0.201109 0.00597303 9.7046e-07)
(0.201212 0.00587067 7.02092e-07)
(0.201303 0.00575975 3.90351e-07)
(0.201381 0.00564191 3.73543e-08)
(0.201447 0.00551873 -3.53679e-07)
(0.2015 0.00539176 -7.7841e-07)
(0.201542 0.00526242 -1.23145e-06)
(0.201573 0.00513207 -1.70648e-06)
(0.201593 0.00500188 -2.19648e-06)
(0.201604 0.00487292 -2.69401e-06)
(0.201607 0.00474606 -3.19142e-06)
(0.201601 0.00462205 -3.68128e-06)