/*--------------------------------*- C++ -*----------------------------------*\
| =========                 |                                                 |
| \\      /  F ield         | OpenFOAM: The Open Source CFD Toolbox           |
|  \\    /   O peration     | Version:  2.3.0                                 |
|   \\  /    A nd           | Web:      www.OpenFOAM.org                      |
|    \\/     M anipulation  |                                                 |
\*---------------------------------------------------------------------------*/
FoamFile
{
    version     2.0;
    format      ascii;
    class       surfaceScalarField;
    location    "0.55";
    object      phi;
}
// * * * * * * * * * * * * * * * * * * * * * * * * * * * * * * * * * * * * * //

dimensions      [0 3 -1 0 0 0 0];

internalField   nonuniform List<scalar> 
6598
(
2.89629e-08
2.75186e-09
-3.17148e-08
2.55258e-08
3.43711e-09
2.21131e-08
3.41271e-09
1.89471e-08
3.16604e-09
1.60611e-08
2.88595e-09
1.35316e-08
2.52954e-09
1.14492e-08
2.08237e-09
9.83169e-09
1.61754e-09
8.64404e-09
1.18765e-09
7.8032e-09
8.40843e-10
7.21348e-09
5.89711e-10
6.79255e-09
4.20939e-10
6.47898e-09
3.13563e-10
6.23028e-09
2.48705e-10
6.01832e-09
2.11956e-10
5.82684e-09
1.91484e-10
5.64796e-09
1.78879e-10
5.47869e-09
1.69264e-10
5.31835e-09
1.60346e-10
5.167e-09
1.51345e-10
5.02479e-09
1.42215e-10
4.8916e-09
1.33184e-10
4.7671e-09
1.24506e-10
4.65072e-09
1.16373e-10
4.54183e-09
1.08891e-10
4.43974e-09
1.02089e-10
4.3438e-09
9.5942e-11
4.2534e-09
9.0399e-11
4.16801e-09
8.5392e-11
4.08716e-09
8.08547e-11
4.01043e-09
7.67226e-11
3.93749e-09
7.2942e-11
3.86803e-09
6.94651e-11
3.80177e-09
6.62535e-11
3.7385e-09
6.32747e-11
3.678e-09
6.05013e-11
3.62009e-09
5.79122e-11
3.5646e-09
5.54866e-11
3.51139e-09
5.3212e-11
3.46032e-09
5.10718e-11
3.41126e-09
4.90581e-11
3.3641e-09
4.7157e-11
3.31874e-09
4.5363e-11
3.27507e-09
4.3665e-11
3.23301e-09
4.2058e-11
3.19248e-09
4.05339e-11
3.15339e-09
3.9086e-11
3.11568e-09
3.77108e-11
3.07928e-09
3.6399e-11
3.04413e-09
3.51514e-11
3.01018e-09
3.39565e-11
2.97736e-09
3.28182e-11
2.94563e-09
3.17242e-11
2.91495e-09
3.06801e-11
2.88528e-09
2.96742e-11
2.85657e-09
2.8712e-11
2.82879e-09
2.77814e-11
2.8019e-09
2.68898e-11
2.77587e-09
2.60228e-11
2.75068e-09
2.51926e-11
2.7263e-09
2.43784e-11
2.7027e-09
2.36038e-11
2.67986e-09
2.28368e-11
2.65775e-09
2.21123e-11
2.63637e-09
2.13841e-11
2.61567e-09
2.06998e-11
2.59566e-09
2.00046e-11
2.57631e-09
1.93556e-11
2.55762e-09
1.86842e-11
2.53955e-09
1.80686e-11
2.52213e-09
1.74215e-11
2.50529e-09
1.68428e-11
2.48908e-09
1.62085e-11
2.47342e-09
1.56604e-11
2.45839e-09
1.50337e-11
2.44388e-09
1.45088e-11
2.42999e-09
1.38885e-11
2.4166e-09
1.33925e-11
2.40381e-09
1.27899e-11
2.39148e-09
1.23266e-11
2.37976e-09
1.17244e-11
2.36848e-09
1.12794e-11
2.35781e-09
1.06668e-11
2.34755e-09
1.02548e-11
2.3379e-09
9.6585e-12
2.32861e-09
9.28948e-12
2.3199e-09
8.70221e-12
2.31155e-09
8.35841e-12
2.30378e-09
7.76611e-12
2.29631e-09
7.47332e-12
2.28941e-09
6.89389e-12
2.28272e-09
6.69174e-12
2.2766e-09
6.12549e-12
2.27057e-09
6.0238e-12
2.26512e-09
5.45276e-12
2.25963e-09
5.48963e-12
2.25472e-09
4.90695e-12
2.24957e-09
5.15396e-12
2.24503e-09
4.5348e-12
5.10302e-12
3.41559e-08
2.48147e-09
-3.38855e-08
3.3976e-08
3.61698e-09
3.32892e-08
4.09948e-09
3.23228e-08
4.13248e-09
3.11862e-08
4.02252e-09
2.99047e-08
3.81104e-09
2.8509e-08
3.4781e-09
2.7075e-08
3.05153e-09
2.56756e-08
2.58704e-09
2.43626e-08
2.15391e-09
2.3158e-08
1.79424e-09
2.20643e-08
1.51472e-09
2.10772e-08
1.30065e-09
2.01918e-08
1.13404e-09
1.93975e-08
1.00632e-09
1.86824e-08
9.0657e-10
1.80355e-08
8.25805e-10
1.74469e-08
7.57822e-10
1.69085e-08
6.98784e-10
1.64134e-08
6.46448e-10
1.5956e-08
5.99529e-10
1.5532e-08
5.57274e-10
1.51373e-08
5.19178e-10
1.47688e-08
4.84849e-10
1.44238e-08
4.53936e-10
1.40998e-08
4.26097e-10
1.37947e-08
4.0099e-10
1.35068e-08
3.78297e-10
1.32345e-08
3.57715e-10
1.29764e-08
3.38979e-10
1.27312e-08
3.21848e-10
1.24981e-08
3.06123e-10
1.22759e-08
2.91629e-10
1.20639e-08
2.7822e-10
1.18614e-08
2.65775e-10
1.16677e-08
2.54185e-10
1.14823e-08
2.43366e-10
1.13045e-08
2.33237e-10
1.1134e-08
2.2374e-10
1.09703e-08
2.14811e-10
1.08129e-08
2.0641e-10
1.06616e-08
1.98482e-10
1.0516e-08
1.91e-10
1.03757e-08
1.83919e-10
1.02405e-08
1.77215e-10
1.01102e-08
1.70853e-10
9.9845e-09
1.64811e-10
9.86314e-09
1.59064e-10
9.74596e-09
1.53586e-10
9.63274e-09
1.48366e-10
9.52333e-09
1.43374e-10
9.41754e-09
1.38605e-10
9.31523e-09
1.3403e-10
9.21626e-09
1.2965e-10
9.1205e-09
1.25438e-10
9.02782e-09
1.21393e-10
8.93811e-09
1.17493e-10
8.85126e-09
1.13738e-10
8.76718e-09
1.10104e-10
8.68577e-09
1.066e-10
8.60696e-09
1.0319e-10
8.53066e-09
9.99078e-11
8.4568e-09
9.66952e-11
8.3853e-09
9.36074e-11
8.31613e-09
9.05597e-11
8.24919e-09
8.76325e-11
8.18447e-09
8.47256e-11
8.12189e-09
8.19364e-11
8.06144e-09
7.91407e-11
8.00303e-09
7.64764e-11
7.94667e-09
7.37843e-11
7.89227e-09
7.12423e-11
7.83985e-09
6.86197e-11
7.78934e-09
6.61794e-11
7.74076e-09
6.36099e-11
7.69402e-09
6.12501e-11
7.64918e-09
5.87279e-11
7.60611e-09
5.64567e-11
7.5649e-09
5.40017e-11
7.52541e-09
5.18205e-11
7.48774e-09
4.93918e-11
7.45175e-09
4.72686e-11
7.41757e-09
4.48473e-11
7.38501e-09
4.28187e-11
7.3542e-09
4.04643e-11
7.32494e-09
3.85512e-11
7.29739e-09
3.62504e-11
7.27133e-09
3.44218e-11
7.24694e-09
3.21593e-11
7.22392e-09
3.04862e-11
7.2025e-09
2.83156e-11
7.1823e-09
2.68939e-11
7.16359e-09
2.48331e-11
7.14592e-09
2.36926e-11
7.12962e-09
2.17516e-11
7.11414e-09
2.09694e-11
7.0998e-09
1.92519e-11
7.08605e-09
1.89014e-11
7.07292e-09
1.76624e-11
1.75594e-11
3.5659e-08
2.35114e-09
-3.55287e-08
3.60381e-08
3.23786e-09
3.62592e-08
3.87839e-09
3.63016e-08
4.09017e-09
3.62273e-08
4.09676e-09
3.60323e-08
4.00609e-09
3.56883e-08
3.82209e-09
3.52007e-08
3.53915e-09
3.45997e-08
3.18798e-09
3.39273e-08
2.8263e-09
3.32186e-08
2.50294e-09
3.2496e-08
2.23731e-09
3.17724e-08
2.02428e-09
3.10552e-08
1.85126e-09
3.03516e-08
1.70995e-09
2.96657e-08
1.59243e-09
2.89998e-08
1.49173e-09
2.83549e-08
1.40269e-09
2.77317e-08
1.322e-09
2.71304e-08
1.24769e-09
2.65513e-08
1.17867e-09
2.59942e-08
1.11437e-09
2.5459e-08
1.05443e-09
2.49452e-08
9.9862e-10
2.44524e-08
9.46735e-10
2.39799e-08
8.98562e-10
2.35271e-08
8.53854e-10
2.3093e-08
8.12363e-10
2.26769e-08
7.73827e-10
2.22779e-08
7.37999e-10
2.18951e-08
7.04636e-10
2.15277e-08
6.73521e-10
2.11749e-08
6.44451e-10
2.08358e-08
6.17244e-10
2.05099e-08
5.91741e-10
2.01963e-08
5.67789e-10
1.98944e-08
5.45265e-10
1.96036e-08
5.2404e-10
1.93233e-08
5.04024e-10
1.9053e-08
4.85105e-10
1.87922e-08
4.67218e-10
1.85404e-08
4.50263e-10
1.82972e-08
4.34192e-10
1.80622e-08
4.1892e-10
1.7835e-08
4.04406e-10
1.76153e-08
3.90581e-10
1.74027e-08
3.77406e-10
1.71969e-08
3.6483e-10
1.69977e-08
3.52811e-10
1.68047e-08
3.41315e-10
1.66178e-08
3.30297e-10
1.64367e-08
3.19734e-10
1.62611e-08
3.09588e-10
1.60909e-08
2.99835e-10
1.59259e-08
2.90449e-10
1.57659e-08
2.814e-10
1.56107e-08
2.72673e-10
1.54603e-08
2.64235e-10
1.53143e-08
2.56074e-10
1.51727e-08
2.48166e-10
1.50354e-08
2.40489e-10
1.49023e-08
2.33048e-10
1.47732e-08
2.25795e-10
1.4648e-08
2.1876e-10
1.45267e-08
2.11867e-10
1.44092e-08
2.0517e-10
1.42953e-08
1.98585e-10
1.41851e-08
1.92176e-10
1.40784e-08
1.8584e-10
1.39752e-08
1.79686e-10
1.38754e-08
1.73579e-10
1.3779e-08
1.67663e-10
1.36859e-08
1.61721e-10
1.3596e-08
1.56001e-10
1.35095e-08
1.50192e-10
1.34261e-08
1.44624e-10
1.33459e-08
1.38934e-10
1.32688e-08
1.33523e-10
1.31948e-08
1.27982e-10
1.31239e-08
1.22723e-10
1.30561e-08
1.17263e-10
1.29912e-08
1.12103e-10
1.29294e-08
1.06697e-10
1.28705e-08
1.01693e-10
1.28145e-08
9.64421e-11
1.27614e-08
9.16294e-11
1.27112e-08
8.65209e-11
1.26637e-08
8.18548e-11
1.2619e-08
7.68812e-11
1.2577e-08
7.24846e-11
1.25376e-08
6.77578e-11
1.25007e-08
6.37845e-11
1.24661e-08
5.938e-11
1.2434e-08
5.586e-11
1.24038e-08
5.18909e-11
1.23759e-08
4.88904e-11
1.23495e-08
4.57031e-11
1.23251e-08
4.32553e-11
1.23013e-08
4.14613e-11
3.92811e-11
3.71815e-08
2.29833e-09
-3.71287e-08
3.74733e-08
2.9461e-09
3.78146e-08
3.53706e-09
3.80768e-08
3.82793e-09
3.82799e-08
3.89365e-09
3.84369e-08
3.84915e-09
3.85248e-08
3.7341e-09
3.85197e-08
3.54432e-09
3.84157e-08
3.29195e-09
3.82283e-08
3.01372e-09
3.79802e-08
2.75099e-09
3.76906e-08
2.52698e-09
3.73701e-08
2.34477e-09
3.70247e-08
2.19666e-09
3.66603e-08
2.07437e-09
3.62815e-08
1.97123e-09
3.58914e-08
1.88183e-09
3.54921e-08
1.80196e-09
3.50854e-08
1.7287e-09
3.46729e-08
1.6602e-09
3.42561e-08
1.59543e-09
3.38367e-08
1.53383e-09
3.3416e-08
1.47512e-09
3.29955e-08
1.41913e-09
3.25764e-08
1.36579e-09
3.216e-08
1.315e-09
3.17472e-08
1.26665e-09
3.13389e-08
1.22063e-09
3.09359e-08
1.1768e-09
3.05389e-08
1.13506e-09
3.01482e-08
1.09526e-09
2.97645e-08
1.0573e-09
2.93879e-08
1.02106e-09
2.90187e-08
9.86428e-10
2.86571e-08
9.53324e-10
2.83032e-08
9.21644e-10
2.79572e-08
8.91326e-10
2.76189e-08
8.62273e-10
2.72885e-08
8.34448e-10
2.69659e-08
8.07755e-10
2.66509e-08
7.82175e-10
2.63436e-08
7.5761e-10
2.60437e-08
7.34049e-10
2.57512e-08
7.11399e-10
2.5466e-08
6.89651e-10
2.51878e-08
6.68722e-10
2.49166e-08
6.48599e-10
2.46523e-08
6.29211e-10
2.43945e-08
6.10542e-10
2.41433e-08
5.92533e-10
2.38985e-08
5.75164e-10
2.36598e-08
5.5838e-10
2.34272e-08
5.42174e-10
2.32006e-08
5.26479e-10
2.29797e-08
5.1131e-10
2.27645e-08
4.9658e-10
2.25549e-08
4.82327e-10
2.23507e-08
4.68449e-10
2.21517e-08
4.54997e-10
2.1958e-08
4.41865e-10
2.17694e-08
4.29109e-10
2.15858e-08
4.16642e-10
2.14071e-08
4.04502e-10
2.12333e-08
3.92613e-10
2.10641e-08
3.81001e-10
2.08997e-08
3.69598e-10
2.07399e-08
3.58444e-10
2.05846e-08
3.47447e-10
2.04338e-08
3.36667e-10
2.02874e-08
3.26031e-10
2.01454e-08
3.15594e-10
2.00078e-08
3.05287e-10
1.98744e-08
2.95104e-10
1.97453e-08
2.85063e-10
1.96204e-08
2.75088e-10
1.94998e-08
2.6524e-10
1.93833e-08
2.55456e-10
1.9271e-08
2.45803e-10
1.91627e-08
2.36253e-10
1.90587e-08
2.26786e-10
1.89586e-08
2.17378e-10
1.88627e-08
2.08015e-10
1.87706e-08
1.98714e-10
1.86828e-08
1.89533e-10
1.85987e-08
1.80499e-10
1.85188e-08
1.71551e-10
1.84426e-08
1.6278e-10
1.83704e-08
1.53996e-10
1.83018e-08
1.455e-10
1.82372e-08
1.37047e-10
1.8176e-08
1.29034e-10
1.81186e-08
1.21106e-10
1.80643e-08
1.13766e-10
1.80138e-08
1.06349e-10
1.79657e-08
9.99688e-11
1.79215e-08
9.30813e-11
1.78789e-08
8.82862e-11
1.78401e-08
8.20211e-11
1.7802e-08
7.96432e-11
7.39681e-11
3.87627e-08
2.24813e-09
-3.87125e-08
3.89646e-08
2.74414e-09
3.92689e-08
3.23285e-09
3.95522e-08
3.54456e-09
3.97902e-08
3.65569e-09
3.99998e-08
3.63959e-09
4.01802e-08
3.55372e-09
4.03127e-08
3.41178e-09
4.03832e-08
3.22149e-09
4.03928e-08
3.00411e-09
4.03549e-08
2.78889e-09
4.02835e-08
2.59836e-09
4.01872e-08
2.44103e-09
4.00704e-08
2.31345e-09
3.99362e-08
2.20856e-09
3.97871e-08
2.12035e-09
3.96247e-08
2.04428e-09
3.94498e-08
1.97689e-09
3.92628e-08
1.91562e-09
3.90643e-08
1.85874e-09
3.88546e-08
1.80513e-09
3.86343e-08
1.75412e-09
3.84041e-08
1.70534e-09
3.81647e-08
1.65856e-09
3.79168e-08
1.61363e-09
3.76614e-08
1.57044e-09
3.73992e-08
1.52885e-09
3.7131e-08
1.48878e-09
3.68577e-08
1.4501e-09
3.658e-08
1.41273e-09
3.62987e-08
1.37658e-09
3.60145e-08
1.34156e-09
3.57279e-08
1.30762e-09
3.54397e-08
1.27467e-09
3.51503e-08
1.24268e-09
3.48604e-08
1.21156e-09
3.45704e-08
1.1813e-09
3.42809e-08
1.15182e-09
3.39922e-08
1.12314e-09
3.37048e-08
1.09518e-09
3.3419e-08
1.06798e-09
3.31351e-08
1.04145e-09
3.28535e-08
1.01564e-09
3.25745e-08
9.90452e-10
3.22982e-08
9.65951e-10
3.20249e-08
9.42027e-10
3.17547e-08
9.18745e-10
3.1488e-08
8.96e-10
3.12246e-08
8.73853e-10
3.0965e-08
8.52205e-10
3.0709e-08
8.31117e-10
3.04569e-08
8.1048e-10
3.02087e-08
7.90381e-10
2.99645e-08
7.70678e-10
2.97243e-08
7.51494e-10
2.94883e-08
7.32639e-10
2.92563e-08
7.14286e-10
2.90286e-08
6.96197e-10
2.8805e-08
6.78588e-10
2.85856e-08
6.61186e-10
2.83705e-08
6.44236e-10
2.81597e-08
6.27459e-10
2.79531e-08
6.11108e-10
2.77508e-08
5.94876e-10
2.75528e-08
5.79037e-10
2.73591e-08
5.63255e-10
2.71697e-08
5.47875e-10
2.69847e-08
5.32463e-10
2.68039e-08
5.17455e-10
2.66276e-08
5.0237e-10
2.64555e-08
4.8771e-10
2.62878e-08
4.72919e-10
2.61244e-08
4.58507e-10
2.59655e-08
4.43937e-10
2.58109e-08
4.29732e-10
2.56608e-08
4.15291e-10
2.5515e-08
4.01282e-10
2.53738e-08
3.86974e-10
2.52369e-08
3.73232e-10
2.51046e-08
3.59051e-10
2.49765e-08
3.4547e-10
2.48532e-08
3.31303e-10
2.47341e-08
3.17849e-10
2.46198e-08
3.03799e-10
2.45096e-08
2.90713e-10
2.44043e-08
2.76839e-10
2.4303e-08
2.64145e-10
2.42066e-08
2.50335e-10
2.4114e-08
2.38087e-10
2.40265e-08
2.24535e-10
2.39425e-08
2.13083e-10
2.38636e-08
1.99995e-10
2.37877e-08
1.89688e-10
2.3717e-08
1.76981e-10
2.36487e-08
1.6829e-10
2.35858e-08
1.5598e-10
2.35244e-08
1.49726e-10
2.34683e-08
1.38127e-10
2.34127e-08
1.35222e-10
1.24789e-10
4.03759e-08
2.18961e-09
-4.03174e-08
4.053e-08
2.58997e-09
4.07794e-08
2.98352e-09
4.10429e-08
3.28099e-09
4.1276e-08
3.42257e-09
4.14793e-08
3.43638e-09
4.16598e-08
3.37316e-09
4.18106e-08
3.26101e-09
4.19206e-08
3.11151e-09
4.19869e-08
2.9378e-09
4.20167e-08
2.75911e-09
4.20208e-08
2.59422e-09
4.20078e-08
2.45402e-09
4.19822e-08
2.33899e-09
4.19465e-08
2.24427e-09
4.19022e-08
2.16466e-09
4.18503e-08
2.09619e-09
4.17912e-08
2.03597e-09
4.1725e-08
1.98188e-09
4.16514e-08
1.93235e-09
4.15702e-08
1.88631e-09
4.14813e-08
1.84304e-09
4.13845e-08
1.80208e-09
4.128e-08
1.76313e-09
4.11676e-08
1.72596e-09
4.10477e-08
1.69038e-09
4.09203e-08
1.65625e-09
4.07857e-08
1.6234e-09
4.06441e-08
1.5917e-09
4.04958e-08
1.56102e-09
4.03411e-08
1.53126e-09
4.01803e-08
1.50232e-09
4.00138e-08
1.47416e-09
3.98418e-08
1.44667e-09
3.96646e-08
1.41982e-09
3.94827e-08
1.3935e-09
3.92963e-08
1.36772e-09
3.91058e-08
1.34234e-09
3.89114e-08
1.31745e-09
3.87137e-08
1.29289e-09
3.85129e-08
1.26878e-09
3.83094e-08
1.24496e-09
3.81035e-08
1.22158e-09
3.78955e-08
1.19845e-09
3.76857e-08
1.17575e-09
3.74744e-08
1.15327e-09
3.7262e-08
1.13119e-09
3.70487e-08
1.10932e-09
3.68347e-08
1.08782e-09
3.66204e-08
1.06649e-09
3.6406e-08
1.04554e-09
3.61918e-08
1.02472e-09
3.59779e-08
1.00429e-09
3.57646e-08
9.83949e-10
3.5552e-08
9.64027e-10
3.53406e-08
9.44128e-10
3.51302e-08
9.24661e-10
3.49212e-08
9.05137e-10
3.47138e-08
8.86066e-10
3.45081e-08
8.66877e-10
3.43041e-08
8.48164e-10
3.41023e-08
8.293e-10
3.39025e-08
8.10928e-10
3.3705e-08
7.92325e-10
3.35099e-08
7.74216e-10
3.33173e-08
7.55774e-10
3.31273e-08
7.37897e-10
3.29402e-08
7.19557e-10
3.27558e-08
7.01862e-10
3.25746e-08
6.83625e-10
3.23961e-08
6.66127e-10
3.22211e-08
6.47953e-10
3.20491e-08
6.30527e-10
3.18807e-08
6.12333e-10
3.17155e-08
5.94961e-10
3.15541e-08
5.76666e-10
3.1396e-08
5.59386e-10
3.12419e-08
5.41019e-10
3.10912e-08
5.23937e-10
3.09448e-08
5.05468e-10
3.08018e-08
4.88453e-10
3.06634e-08
4.69747e-10
3.05284e-08
4.52819e-10
3.03982e-08
4.34036e-10
3.02714e-08
4.17536e-10
3.01495e-08
3.98707e-10
3.0031e-08
3.82676e-10
2.99177e-08
3.63622e-10
2.98076e-08
3.48211e-10
2.97029e-08
3.29165e-10
2.96011e-08
3.14897e-10
2.9505e-08
2.96064e-10
2.94113e-08
2.83416e-10
2.93236e-08
2.64667e-10
2.92377e-08
2.5423e-10
2.9158e-08
2.35697e-10
2.90793e-08
2.28395e-10
2.90067e-08
2.10713e-10
2.89345e-08
2.07474e-10
1.91676e-10
4.2024e-08
2.12619e-09
-4.19606e-08
4.21533e-08
2.46072e-09
4.23553e-08
2.78146e-09
4.25887e-08
3.04764e-09
4.2809e-08
3.20224e-09
4.30019e-08
3.24347e-09
4.31705e-08
3.20453e-09
4.33146e-08
3.11693e-09
4.34285e-08
2.99767e-09
4.35087e-08
2.8576e-09
4.35584e-08
2.70939e-09
4.35854e-08
2.56715e-09
4.3598e-08
2.4415e-09
4.36012e-08
2.33577e-09
4.35978e-08
2.24765e-09
4.35894e-08
2.17311e-09
4.35769e-08
2.10871e-09
4.35609e-08
2.05197e-09
4.35416e-08
2.00113e-09
4.35191e-08
1.95491e-09
4.3493e-08
1.91236e-09
4.34633e-08
1.87279e-09
4.34296e-08
1.83575e-09
4.33918e-08
1.80089e-09
4.33498e-08
1.76796e-09
4.33035e-08
1.73674e-09
4.32526e-08
1.70707e-09
4.31973e-08
1.67874e-09
4.31374e-08
1.65162e-09
4.30729e-08
1.62553e-09
4.30037e-08
1.60041e-09
4.293e-08
1.57609e-09
4.28516e-08
1.55255e-09
4.27686e-08
1.52965e-09
4.2681e-08
1.50739e-09
4.25889e-08
1.4856e-09
4.24924e-08
1.46432e-09
4.23914e-08
1.44333e-09
4.2286e-08
1.42277e-09
4.21765e-08
1.40239e-09
4.20629e-08
1.38239e-09
4.19454e-08
1.3625e-09
4.1824e-08
1.34296e-09
4.1699e-08
1.32347e-09
4.15704e-08
1.30433e-09
4.14385e-08
1.28516e-09
4.13034e-08
1.26632e-09
4.11653e-08
1.24742e-09
4.10243e-08
1.22882e-09
4.08807e-08
1.21011e-09
4.07345e-08
1.19169e-09
4.05861e-08
1.1731e-09
4.04356e-08
1.15482e-09
4.02832e-08
1.13632e-09
4.0129e-08
1.11821e-09
3.99734e-08
1.09977e-09
3.98163e-08
1.08177e-09
3.96581e-08
1.06331e-09
3.94988e-08
1.04533e-09
3.93389e-08
1.02679e-09
3.91783e-08
1.00881e-09
3.90174e-08
9.90217e-10
3.8856e-08
9.72268e-10
3.86948e-08
9.53598e-10
3.85334e-08
9.35605e-10
3.83724e-08
9.16704e-10
3.82117e-08
8.98599e-10
3.80519e-08
8.79371e-10
3.78927e-08
8.61129e-10
3.77346e-08
8.4166e-10
3.75773e-08
8.2341e-10
3.74216e-08
8.03698e-10
3.72669e-08
7.85257e-10
3.71141e-08
7.6512e-10
3.69626e-08
7.4641e-10
3.68135e-08
7.25756e-10
3.6666e-08
7.06937e-10
3.65211e-08
6.8594e-10
3.63778e-08
6.6724e-10
3.62374e-08
6.45788e-10
3.6099e-08
6.26889e-10
3.5964e-08
6.047e-10
3.58311e-08
5.85738e-10
3.57019e-08
5.63217e-10
3.55747e-08
5.44785e-10
3.54515e-08
5.21877e-10
3.53303e-08
5.03864e-10
3.52138e-08
4.8017e-10
3.50992e-08
4.62851e-10
3.49895e-08
4.38797e-10
3.48814e-08
4.22978e-10
3.47787e-08
3.98823e-10
3.46772e-08
3.84936e-10
3.45814e-08
3.60474e-10
3.44865e-08
3.49089e-10
3.43975e-08
3.24693e-10
3.4309e-08
3.16875e-10
3.42262e-08
2.93543e-10
3.41434e-08
2.90272e-10
2.69532e-10
4.37141e-08
2.06213e-09
-4.365e-08
4.3828e-08
2.34684e-09
4.39949e-08
2.61455e-09
4.4197e-08
2.84553e-09
4.43997e-08
2.99959e-09
4.45823e-08
3.06087e-09
4.47406e-08
3.04613e-09
4.48759e-08
2.98168e-09
4.49865e-08
2.8871e-09
4.50701e-08
2.77399e-09
4.51276e-08
2.65183e-09
4.51641e-08
2.53065e-09
4.51862e-08
2.41938e-09
4.51993e-08
2.32267e-09
4.52065e-08
2.24046e-09
4.52095e-08
2.17012e-09
4.52094e-08
2.10887e-09
4.52068e-08
2.0545e-09
4.52024e-08
2.00558e-09
4.51963e-08
1.96101e-09
4.51885e-08
1.92008e-09
4.51792e-08
1.88215e-09
4.51681e-08
1.84683e-09
4.51553e-08
1.81374e-09
4.51405e-08
1.78268e-09
4.51239e-08
1.75338e-09
4.51052e-08
1.72571e-09
4.50845e-08
1.69945e-09
4.50617e-08
1.67449e-09
4.50366e-08
1.65062e-09
4.50092e-08
1.62779e-09
4.49795e-08
1.60582e-09
4.49473e-08
1.58472e-09
4.49126e-08
1.56431e-09
4.48754e-08
1.54465e-09
4.48355e-08
1.5255e-09
4.47928e-08
1.50698e-09
4.47474e-08
1.48876e-09
4.46991e-08
1.47107e-09
4.46479e-08
1.45353e-09
4.45939e-08
1.43646e-09
4.45369e-08
1.41944e-09
4.4477e-08
1.40289e-09
4.44142e-08
1.38629e-09
4.43484e-08
1.37013e-09
4.42797e-08
1.35383e-09
4.42081e-08
1.33796e-09
4.41336e-08
1.32187e-09
4.40562e-08
1.3062e-09
4.39761e-08
1.29022e-09
4.38932e-08
1.27463e-09
4.38077e-08
1.25863e-09
4.37194e-08
1.24306e-09
4.36288e-08
1.22698e-09
4.35355e-08
1.21143e-09
4.34401e-08
1.19526e-09
4.33421e-08
1.1797e-09
4.32421e-08
1.16332e-09
4.31399e-08
1.14759e-09
4.30358e-08
1.13085e-09
4.29297e-08
1.11487e-09
4.28221e-08
1.0978e-09
4.27127e-08
1.08168e-09
4.2602e-08
1.06432e-09
4.24896e-08
1.04798e-09
4.23762e-08
1.03012e-09
4.22614e-08
1.01344e-09
4.21459e-08
9.94847e-10
4.20293e-08
9.77693e-10
4.19125e-08
9.58485e-10
4.17948e-08
9.41176e-10
4.16769e-08
9.21523e-10
4.15583e-08
9.0388e-10
4.144e-08
8.83465e-10
4.13212e-08
8.65202e-10
4.12032e-08
8.43713e-10
4.10852e-08
8.24989e-10
4.09682e-08
8.02859e-10
4.08511e-08
7.84364e-10
4.07353e-08
7.61621e-10
4.06195e-08
7.4266e-10
4.05058e-08
7.18404e-10
4.03926e-08
6.98916e-10
4.02818e-08
6.74007e-10
4.01713e-08
6.5535e-10
4.00632e-08
6.29926e-10
3.99554e-08
6.11644e-10
3.9851e-08
5.84597e-10
3.97471e-08
5.66753e-10
3.96471e-08
5.38856e-10
3.95472e-08
5.22841e-10
3.94512e-08
4.94792e-10
3.93553e-08
4.80865e-10
3.92636e-08
4.5218e-10
3.91721e-08
4.40558e-10
3.90851e-08
4.11726e-10
3.89981e-08
4.03827e-10
3.89154e-08
3.76324e-10
3.88323e-08
3.73374e-10
3.49124e-10
4.54523e-08
1.99976e-09
-4.539e-08
4.55545e-08
2.24471e-09
4.56967e-08
2.47236e-09
4.58706e-08
2.67161e-09
4.60531e-08
2.81704e-09
4.62239e-08
2.89014e-09
4.63736e-08
2.89641e-09
4.65014e-08
2.85388e-09
4.66076e-08
2.78092e-09
4.66914e-08
2.69012e-09
4.67532e-08
2.59003e-09
4.67958e-08
2.48809e-09
4.6824e-08
2.39119e-09
4.68426e-08
2.30403e-09
4.6855e-08
2.22808e-09
4.6863e-08
2.16211e-09
4.68678e-08
2.1041e-09
4.68701e-08
2.05217e-09
4.68706e-08
2.00511e-09
4.68696e-08
1.96198e-09
4.68675e-08
1.92226e-09
4.68642e-08
1.88538e-09
4.686e-08
1.85107e-09
4.68548e-08
1.81893e-09
4.68487e-08
1.7888e-09
4.68417e-08
1.76038e-09
4.68338e-08
1.73362e-09
4.6825e-08
1.70822e-09
4.68153e-08
1.68416e-09
4.68048e-08
1.66118e-09
4.67933e-08
1.63929e-09
4.67808e-08
1.61825e-09
4.67674e-08
1.59816e-09
4.67529e-08
1.57876e-09
4.67374e-08
1.5602e-09
4.67207e-08
1.54216e-09
4.67028e-08
1.52487e-09
4.66837e-08
1.50789e-09
4.66632e-08
1.49157e-09
4.66414e-08
1.47537e-09
4.6618e-08
1.45979e-09
4.65933e-08
1.44421e-09
4.65669e-08
1.42926e-09
4.6539e-08
1.41419e-09
4.65094e-08
1.39976e-09
4.64781e-08
1.38509e-09
4.6445e-08
1.37104e-09
4.64102e-08
1.35665e-09
4.63736e-08
1.34288e-09
4.63351e-08
1.32867e-09
4.62947e-08
1.31506e-09
4.62524e-08
1.30087e-09
4.62082e-08
1.28732e-09
4.61621e-08
1.27302e-09
4.61141e-08
1.2595e-09
4.60642e-08
1.24512e-09
4.60122e-08
1.23166e-09
4.59585e-08
1.21705e-09
4.59027e-08
1.20343e-09
4.58451e-08
1.18838e-09
4.57856e-08
1.17442e-09
4.57245e-08
1.1589e-09
4.56614e-08
1.14473e-09
4.55969e-08
1.12887e-09
4.55303e-08
1.11451e-09
4.54624e-08
1.09807e-09
4.53925e-08
1.08334e-09
4.53214e-08
1.06593e-09
4.52486e-08
1.0505e-09
4.5175e-08
1.03213e-09
4.50997e-08
1.01644e-09
4.50236e-08
9.97572e-10
4.49459e-08
9.81605e-10
4.48675e-08
9.61893e-10
4.47875e-08
9.45151e-10
4.47074e-08
9.23883e-10
4.46262e-08
9.06185e-10
4.45452e-08
8.83815e-10
4.4463e-08
8.6655e-10
4.43808e-08
8.4387e-10
4.42972e-08
8.26276e-10
4.42142e-08
8.01364e-10
4.41308e-08
7.82349e-10
4.40487e-08
7.56132e-10
4.39657e-08
7.38322e-10
4.38836e-08
7.11962e-10
4.38004e-08
6.94907e-10
4.37188e-08
6.66139e-10
4.36368e-08
6.48818e-10
4.35572e-08
6.18457e-10
4.3477e-08
6.03006e-10
4.33989e-08
5.72921e-10
4.332e-08
5.59794e-10
4.32431e-08
5.2908e-10
4.31659e-08
5.17742e-10
4.30912e-08
4.86393e-10
4.30164e-08
4.78619e-10
4.29439e-08
4.48791e-10
4.2871e-08
4.46364e-10
4.20579e-10
4.72436e-08
1.93988e-09
-4.71838e-08
4.7336e-08
2.15232e-09
4.74601e-08
2.3483e-09
4.76105e-08
2.52118e-09
4.77729e-08
2.6546e-09
4.79302e-08
2.73285e-09
4.80714e-08
2.75525e-09
4.81929e-08
2.73239e-09
4.82948e-08
2.67898e-09
4.83776e-08
2.60732e-09
4.84417e-08
2.52598e-09
4.84886e-08
2.44112e-09
4.85218e-08
2.35807e-09
4.85449e-08
2.28087e-09
4.85613e-08
2.21173e-09
4.85729e-08
2.15052e-09
4.85809e-08
2.09609e-09
4.85861e-08
2.04692e-09
4.85892e-08
2.00201e-09
4.85906e-08
1.96055e-09
4.85907e-08
1.92217e-09
4.85897e-08
1.88639e-09
4.85878e-08
1.85303e-09
4.8585e-08
1.82169e-09
4.85815e-08
1.79229e-09
4.85774e-08
1.76451e-09
4.85727e-08
1.73831e-09
4.85675e-08
1.71342e-09
4.85618e-08
1.68983e-09
4.85557e-08
1.66727e-09
4.85492e-08
1.64579e-09
4.85424e-08
1.62512e-09
4.85351e-08
1.60541e-09
4.85275e-08
1.58636e-09
4.85195e-08
1.56819e-09
4.85112e-08
1.55051e-09
4.85024e-08
1.53365e-09
4.84932e-08
1.51706e-09
4.84835e-08
1.50125e-09
4.84734e-08
1.48549e-09
4.84627e-08
1.47049e-09
4.84515e-08
1.45539e-09
4.84397e-08
1.44111e-09
4.84273e-08
1.42659e-09
4.84141e-08
1.41291e-09
4.84004e-08
1.39886e-09
4.83858e-08
1.38564e-09
4.83705e-08
1.37196e-09
4.83542e-08
1.35911e-09
4.83372e-08
1.34569e-09
4.83192e-08
1.33308e-09
4.83003e-08
1.31975e-09
4.82804e-08
1.3073e-09
4.82595e-08
1.2939e-09
4.82374e-08
1.28154e-09
4.82145e-08
1.26809e-09
4.81902e-08
1.25593e-09
4.81649e-08
1.24233e-09
4.81383e-08
1.23008e-09
4.81106e-08
1.21608e-09
4.80815e-08
1.2035e-09
4.80514e-08
1.18898e-09
4.802e-08
1.17619e-09
4.79875e-08
1.16136e-09
4.79535e-08
1.14849e-09
4.79184e-08
1.13311e-09
4.78818e-08
1.12003e-09
4.78441e-08
1.10363e-09
4.78048e-08
1.08976e-09
4.77648e-08
1.07211e-09
4.77234e-08
1.05788e-09
4.76812e-08
1.03978e-09
4.76374e-08
1.02542e-09
4.75927e-08
1.00661e-09
4.75462e-08
9.91573e-10
4.74991e-08
9.71015e-10
4.74507e-08
9.54572e-10
4.74023e-08
9.32262e-10
4.73526e-08
9.16245e-10
4.73022e-08
8.94207e-10
4.725e-08
8.78553e-10
4.71972e-08
8.54091e-10
4.71436e-08
8.35991e-10
4.70906e-08
8.09114e-10
4.70366e-08
7.92297e-10
4.69826e-08
7.65952e-10
4.69267e-08
7.50895e-10
4.68709e-08
7.21918e-10
4.6814e-08
7.05677e-10
4.67583e-08
6.74153e-10
4.67021e-08
6.59228e-10
4.66464e-08
6.28662e-10
4.65896e-08
6.16545e-10
4.65328e-08
5.85838e-10
4.64754e-08
5.75171e-10
4.64187e-08
5.43077e-10
4.63619e-08
5.35477e-10
4.63058e-08
5.04879e-10
4.62493e-08
5.02841e-10
4.773e-10
4.90921e-08
1.88263e-09
-4.90349e-08
4.91762e-08
2.06821e-09
4.9286e-08
2.23848e-09
4.94175e-08
2.38973e-09
4.95614e-08
2.51073e-09
4.97045e-08
2.58968e-09
4.98365e-08
2.62327e-09
4.9952e-08
2.61686e-09
5.00501e-08
2.58094e-09
5.01312e-08
2.5262e-09
5.01962e-08
2.46104e-09
5.02461e-08
2.39115e-09
5.02832e-08
2.32096e-09
5.03103e-08
2.25375e-09
5.03302e-08
2.19185e-09
5.03449e-08
2.13581e-09
5.03557e-08
2.08529e-09
5.03635e-08
2.03917e-09
5.03688e-08
1.99675e-09
5.03721e-08
1.95725e-09
5.03737e-08
1.92048e-09
5.03742e-08
1.88597e-09
5.03735e-08
1.85369e-09
5.03719e-08
1.82325e-09
5.03696e-08
1.79463e-09
5.03666e-08
1.76749e-09
5.03631e-08
1.74185e-09
5.03591e-08
1.71741e-09
5.03547e-08
1.69422e-09
5.035e-08
1.67198e-09
5.0345e-08
1.65079e-09
5.03398e-08
1.63035e-09
5.03343e-08
1.61085e-09
5.03287e-08
1.59194e-09
5.0323e-08
1.57393e-09
5.03172e-08
1.55634e-09
5.03112e-08
1.53963e-09
5.03052e-08
1.5231e-09
5.0299e-08
1.50745e-09
5.02927e-08
1.49174e-09
5.02863e-08
1.47693e-09
5.02798e-08
1.46187e-09
5.02731e-08
1.44781e-09
5.02663e-08
1.43335e-09
5.02593e-08
1.41991e-09
5.02522e-08
1.40597e-09
5.02448e-08
1.39303e-09
5.02373e-08
1.37949e-09
5.02295e-08
1.36695e-09
5.02214e-08
1.35374e-09
5.0213e-08
1.34148e-09
5.02043e-08
1.32841e-09
5.01953e-08
1.31639e-09
5.01859e-08
1.30327e-09
5.0176e-08
1.2914e-09
5.01659e-08
1.27826e-09
5.01551e-08
1.26669e-09
5.0144e-08
1.25347e-09
5.01322e-08
1.24189e-09
5.01199e-08
1.22833e-09
5.01069e-08
1.21646e-09
5.00935e-08
1.20238e-09
5.00794e-08
1.19031e-09
5.00648e-08
1.17596e-09
5.00494e-08
1.16394e-09
5.00334e-08
1.14906e-09
5.00164e-08
1.13701e-09
4.99989e-08
1.12119e-09
4.99802e-08
1.1084e-09
4.99612e-08
1.09115e-09
4.99412e-08
1.07786e-09
4.99208e-08
1.06023e-09
4.98993e-08
1.04693e-09
4.98771e-08
1.02879e-09
4.98536e-08
1.01502e-09
4.98294e-08
9.95242e-10
4.98041e-08
9.79868e-10
4.97787e-08
9.57682e-10
4.97525e-08
9.42396e-10
4.97258e-08
9.2095e-10
4.96974e-08
9.06973e-10
4.96679e-08
8.83556e-10
4.96375e-08
8.66449e-10
4.96073e-08
8.39301e-10
4.95765e-08
8.23105e-10
4.95454e-08
7.97016e-10
4.95124e-08
7.83897e-10
4.94786e-08
7.55709e-10
4.94436e-08
7.40655e-10
4.94087e-08
7.09048e-10
4.93738e-08
6.94204e-10
4.93384e-08
6.64052e-10
4.93023e-08
6.52661e-10
4.92649e-08
6.23165e-10
4.92267e-08
6.13416e-10
4.91879e-08
5.81812e-10
4.9149e-08
5.74413e-10
4.91098e-08
5.4406e-10
4.90706e-08
5.42047e-10
5.17771e-10
5.10014e-08
1.82801e-09
-5.09468e-08
5.10783e-08
1.99128e-09
5.11764e-08
2.14038e-09
5.12924e-08
2.27375e-09
5.14199e-08
2.38323e-09
5.15493e-08
2.4603e-09
5.16716e-08
2.501e-09
5.17809e-08
2.50751e-09
5.18751e-08
2.48672e-09
5.19543e-08
2.44702e-09
5.20193e-08
2.3961e-09
5.2071e-08
2.33937e-09
5.21111e-08
2.28086e-09
5.21416e-08
2.22327e-09
5.21647e-08
2.16879e-09
5.21823e-08
2.11825e-09
5.21956e-08
2.07193e-09
5.22057e-08
2.02913e-09
5.2213e-08
1.98945e-09
5.2218e-08
1.95218e-09
5.22213e-08
1.91725e-09
5.2223e-08
1.88424e-09
5.22235e-08
1.85321e-09
5.22229e-08
1.82381e-09
5.22215e-08
1.79607e-09
5.22193e-08
1.76967e-09
5.22165e-08
1.74465e-09
5.22132e-08
1.72073e-09
5.22094e-08
1.69796e-09
5.22053e-08
1.67608e-09
5.22009e-08
1.65517e-09
5.21963e-08
1.63497e-09
5.21915e-08
1.61565e-09
5.21866e-08
1.59688e-09
5.21815e-08
1.57897e-09
5.21764e-08
1.56143e-09
5.21713e-08
1.54479e-09
5.21661e-08
1.52824e-09
5.21609e-08
1.51264e-09
5.21558e-08
1.49687e-09
5.21506e-08
1.48211e-09
5.21455e-08
1.46697e-09
5.21404e-08
1.45294e-09
5.21354e-08
1.43839e-09
5.21303e-08
1.42498e-09
5.21253e-08
1.41097e-09
5.21203e-08
1.39805e-09
5.21153e-08
1.38445e-09
5.21103e-08
1.37193e-09
5.21054e-08
1.35868e-09
5.21004e-08
1.34646e-09
5.20955e-08
1.33335e-09
5.20904e-08
1.32142e-09
5.20854e-08
1.30829e-09
5.20803e-08
1.29655e-09
5.20751e-08
1.28338e-09
5.20698e-08
1.272e-09
5.20645e-08
1.2588e-09
5.2059e-08
1.24743e-09
5.20533e-08
1.23397e-09
5.20474e-08
1.22234e-09
5.20414e-08
1.20839e-09
5.20352e-08
1.19655e-09
5.20288e-08
1.18233e-09
5.20221e-08
1.17066e-09
5.20152e-08
1.1559e-09
5.20079e-08
1.14435e-09
5.20004e-08
1.12873e-09
5.19922e-08
1.11656e-09
5.19839e-08
1.09945e-09
5.19751e-08
1.08663e-09
5.19662e-08
1.0692e-09
5.19567e-08
1.05639e-09
5.19469e-08
1.03861e-09
5.19364e-08
1.02552e-09
5.19253e-08
1.00636e-09
5.19134e-08
9.91737e-10
5.19013e-08
9.69745e-10
5.1889e-08
9.5469e-10
5.18764e-08
9.33553e-10
5.18628e-08
9.20577e-10
5.18481e-08
8.98266e-10
5.18325e-08
8.82059e-10
5.18169e-08
8.54933e-10
5.1801e-08
8.39004e-10
5.1785e-08
8.13047e-10
5.17676e-08
8.01285e-10
5.1749e-08
7.74263e-10
5.17295e-08
7.6019e-10
5.17093e-08
7.29265e-10
5.16893e-08
7.14148e-10
5.16686e-08
6.84728e-10
5.16476e-08
6.73664e-10
5.16251e-08
6.45652e-10
5.16017e-08
6.36889e-10
5.15771e-08
6.06393e-10
5.15523e-08
5.99255e-10
5.15266e-08
5.69689e-10
5.15013e-08
5.67391e-10
5.44594e-10
5.29749e-08
1.77607e-09
-5.2923e-08
5.30455e-08
1.92067e-09
5.31337e-08
2.0522e-09
5.32368e-08
2.17065e-09
5.33501e-08
2.2699e-09
5.34666e-08
2.3438e-09
5.35791e-08
2.38859e-09
5.36818e-08
2.40473e-09
5.3772e-08
2.39652e-09
5.3849e-08
2.37001e-09
5.39134e-08
2.33174e-09
5.39661e-08
2.28667e-09
5.40083e-08
2.23868e-09
5.40414e-08
2.1901e-09
5.40673e-08
2.14296e-09
5.40874e-08
2.09811e-09
5.41031e-08
2.05624e-09
5.41153e-08
2.01697e-09
5.41245e-08
1.98022e-09
5.41313e-08
1.9454e-09
5.4136e-08
1.91252e-09
5.4139e-08
1.88121e-09
5.41406e-08
1.8516e-09
5.41411e-08
1.82338e-09
5.41405e-08
1.79663e-09