/*--------------------------------*- C++ -*----------------------------------*\
| =========                 |                                                 |
| \\      /  F ield         | OpenFOAM: The Open Source CFD Toolbox           |
|  \\    /   O peration     | Version:  2.3.0                                 |
|   \\  /    A nd           | Web:      www.OpenFOAM.org                      |
|    \\/     M anipulation  |                                                 |
\*---------------------------------------------------------------------------*/
FoamFile
{
    version     2.0;
    format      ascii;
    class       volScalarField;
    location    "0.5";
    object      p;
}
// * * * * * * * * * * * * * * * * * * * * * * * * * * * * * * * * * * * * * //

dimensions      [0 2 -2 0 0 0 0];

internalField   nonuniform List<scalar> 
3375
(
0.00521939
0.00459619
0.00408257
0.00370979
0.00340008
0.00311992
0.00286876
0.00265121
0.00246874
0.00232029
0.00220325
0.0021138
0.0020473
0.00199877
0.00196346
0.00193724
0.00191674
0.00189944
0.00188356
0.00186795
0.00185192
0.00183512
0.00181739
0.00179875
0.00177924
0.00175896
0.00173803
0.00171653
0.00169455
0.00167217
0.00164944
0.00162642
0.00160314
0.00157964
0.00155595
0.00153208
0.00150805
0.00148389
0.0014596
0.00143521
0.00141071
0.00138614
0.00136148
0.00133676
0.00131198
0.00128715
0.00126228
0.00123737
0.00121243
0.00118746
0.00116248
0.00113747
0.00111246
0.00108743
0.00106241
0.00103737
0.00101234
0.000987312
0.000962287
0.000937269
0.00091226
0.000887261
0.000862274
0.000837301
0.000812344
0.000787405
0.000762486
0.000737589
0.000712717
0.000687873
0.00066306
0.00063828
0.00061354
0.000588842
0.000564193
0.000539597
0.000515063
0.000490598
0.000466209
0.000441908
0.000417704
0.00039361
0.000369639
0.000345807
0.00032213
0.000298628
0.00027532
0.00025223
0.000229382
0.000206806
0.000184533
0.000162596
0.000141036
0.000119894
9.92176e-05
7.90592e-05
5.94761e-05
4.05381e-05
2.23687e-05
4.29069e-06
0.00492446
0.00447864
0.00405629
0.00371734
0.00342254
0.00315002
0.00290222
0.00268541
0.00250216
0.00235201
0.00223269
0.00214065
0.00207143
0.00202022
0.00198236
0.00195378
0.00193116
0.001912
0.00189452
0.00187753
0.00186034
0.00184255
0.001824
0.00180466
0.00178457
0.00176379
0.00174243
0.00172056
0.00169826
0.0016756
0.00165263
0.00162939
0.00160592
0.00158224
0.00155839
0.00153437
0.00151022
0.00148594
0.00146154
0.00143705
0.00141246
0.0013878
0.00136307
0.00133827
0.00131343
0.00128854
0.0012636
0.00123864
0.00121365
0.00118863
0.0011636
0.00113856
0.0011135
0.00108844
0.00106337
0.00103831
0.00101324
0.00098818
0.000963126
0.000938079
0.000913043
0.000888018
0.000863006
0.000838009
0.000813029
0.000788068
0.000763128
0.00073821
0.000713319
0.000688455
0.000663622
0.000638825
0.000614066
0.000589351
0.000564684
0.000540073
0.000515522
0.00049104
0.000466635
0.000442318
0.000418098
0.000393989
0.000370003
0.000346155
0.000322463
0.000298946
0.000275623
0.000252517
0.000229655
0.000207063
0.000184774
0.000162823
0.000141247
0.00012009
9.93989e-05
7.92258e-05
5.96289e-05
4.06793e-05
2.25399e-05
4.1635e-06
0.00471037
0.00437698
0.00401889
0.00370587
0.0034271
0.00316863
0.00293187
0.00272232
0.00254277
0.00239326
0.0022722
0.00217673
0.00210315
0.00204725
0.00200486
0.00197221
0.00194614
0.00192416
0.00190447
0.00188579
0.00186731
0.00184856
0.00182928
0.00180937
0.00178883
0.0017677
0.00174603
0.0017239
0.00170137
0.0016785
0.00165534
0.00163193
0.0016083
0.00158448
0.00156049
0.00153635
0.00151208
0.00148769
0.0014632
0.00143862
0.00141395
0.00138921
0.00136441
0.00133955
0.00131464
0.00128969
0.00126471
0.00123969
0.00121465
0.0011896
0.00116453
0.00113944
0.00111435
0.00108926
0.00106416
0.00103906
0.00101397
0.000988885
0.000963806
0.000938735
0.000913676
0.000888629
0.000863597
0.000838581
0.000813582
0.000788602
0.000763644
0.00073871
0.000713802
0.000688922
0.000664074
0.000639262
0.000614489
0.000589759
0.000565078
0.000540453
0.000515888
0.000491393
0.000466975
0.000442644
0.000418411
0.000394288
0.000370289
0.000346428
0.000322723
0.000299192
0.000275855
0.000252736
0.000229859
0.000207253
0.00018495
0.000162983
0.000141392
0.000120219
9.95121e-05
7.9322e-05
5.97059e-05
4.0732e-05
2.25111e-05
3.52536e-06
0.00452766
0.00426653
0.00396351
0.00368111
0.0034238
0.00318397
0.00296231
0.00276343
0.00259033
0.00244362
0.00232237
0.00222446
0.00214693
0.00208629
0.00203893
0.00200149
0.00197104
0.00194524
0.0019223
0.00190091
0.00188021
0.00185965
0.00183889
0.00181778
0.00179626
0.0017743
0.00175195
0.00172924
0.00170622
0.00168292
0.00165938
0.00163564
0.00161172
0.00158764
0.00156342
0.00153908
0.00151462
0.00149007
0.00146542
0.0014407
0.00141591
0.00139105
0.00136614
0.00134119
0.00131619
0.00129116
0.0012661
0.00124102
0.00121591
0.0011908
0.00116567
0.00114053
0.00111539
0.00109025
0.00106511
0.00103998
0.00101485
0.000989727
0.000964614
0.000939513
0.000914424
0.000889349
0.000864291
0.000839249
0.000814227
0.000789225
0.000764245
0.00073929
0.000714362
0.000689463
0.000664597
0.000639767
0.000614977
0.000590231
0.000565534
0.000540892
0.000516313
0.000491802
0.000467369
0.000443024
0.000418776
0.000394639
0.000370625
0.000346749
0.000323029
0.000299483
0.000276131
0.000252996
0.000230103
0.000207481
0.00018516
0.000163175
0.000141565
0.000120373
9.9644e-05
7.94292e-05
5.97809e-05
4.07503e-05
2.23192e-05
2.50368e-06
0.00436529
0.00415571
0.003902
0.00365211
0.0034175
0.00319637
0.00299
0.00280246
0.00263682
0.00249416
0.00237402
0.00227487
0.00219438
0.0021297
0.00207777
0.00203567
0.00200079
0.00197097
0.00194449
0.00192009
0.00189685
0.00187418
0.00185167
0.00182911
0.00180637
0.00178339
0.00176017
0.00173672
0.00171304
0.00168917
0.00166512
0.00164093
0.0016166
0.00159215
0.0015676
0.00154296
0.00151823
0.00149343
0.00146856
0.00144363
0.00141865
0.00139362
0.00136855
0.00134345
0.00131832
0.00129317
0.001268
0.00124281
0.00121762
0.00119241
0.0011672
0.00114199
0.00111678
0.00109158
0.00106638
0.00104118
0.001016
0.000990831
0.000965673
0.000940529
0.0009154
0.000890287
0.000865193
0.000840118
0.000815064
0.000790033
0.000765025
0.000740044
0.000715091
0.000690168
0.00066528
0.000640428
0.000615617
0.000590852
0.000566136
0.000541476
0.000516879
0.000492352
0.000467902
0.000443541
0.000419277
0.000395124
0.000371094
0.000347203
0.000323467
0.000299904
0.000276535
0.000253383
0.000230473
0.000207832
0.000185491
0.000163486
0.000141853
0.000120636
9.98782e-05
7.9628e-05
5.99283e-05
4.07961e-05
2.20499e-05
1.37464e-06
0.00422525
0.00405267
0.00383952
0.00361972
0.00340689
0.00320361
0.00301215
0.00283618
0.00267869
0.00254099
0.00242304
0.00232376
0.00224137
0.00217357
0.00211783
0.00207164
0.00203272
0.00199911
0.00196922
0.00194182
0.00191601
0.00189114
0.00186677
0.00184264
0.00181856
0.00179444
0.00177024
0.00174592
0.00172149
0.00169695
0.00167231
0.00164758
0.00162276
0.00159788
0.00157293
0.00154792
0.00152286
0.00149775
0.0014726
0.00144742
0.0014222
0.00139696
0.00137169
0.00134641
0.00132111
0.0012958
0.00127048
0.00124516
0.00121984
0.00119452
0.00116921
0.0011439
0.00111859
0.0010933
0.00106802
0.00104276
0.00101751
0.000992271
0.000967052
0.000941852
0.00091667
0.000891509
0.000866369
0.000841251
0.000816157
0.000791088
0.000766045
0.000741031
0.000716047
0.000691095
0.000666179
0.000641302
0.000616467
0.000591679
0.000566942
0.000542263
0.000517646
0.000493101
0.000468634
0.000444256
0.000419976
0.000395807
0.000371762
0.000347855
0.000324104
0.000300526
0.000277141
0.000253972
0.000231043
0.000208383
0.000186022
0.000163993
0.000142335
0.000121087
0.000100293
7.99949e-05
6.02228e-05
4.09494e-05
2.1849e-05
5.21883e-07
0.00410422
0.00395801
0.00377698
0.00358401
0.00339194
0.00320584
0.0030289
0.00286451
0.00271547
0.00258328
0.00246823
0.00236967
0.00228625
0.00221617
0.00215736
0.00210771
0.00206523
0.00202819
0.00199512
0.00196487
0.00193655
0.0019095
0.00188326
0.00185752
0.00183205
0.00180674
0.00178149
0.00175627
0.00173103
0.00170578
0.0016805
0.00165519
0.00162985
0.00160449
0.00157911
0.0015537
0.00152827
0.00150283
0.00147737
0.0014519
0.00142642
0.00140093
0.00137544
0.00134995
0.00132446
0.00129897
0.00127349
0.00124802
0.00122255
0.0011971
0.00117166
0.00114623
0.00112082
0.00109543
0.00107006
0.0010447
0.00101937
0.000994059
0.000968769
0.000943501
0.000918258
0.000893038
0.000867844
0.000842675
0.000817534
0.00079242
0.000767336
0.000742283
0.000717264
0.000692279
0.000667332
0.000642426
0.000617565
0.000592752
0.000567992
0.000543291
0.000518655
0.000494092
0.000469608
0.000445214
0.000420919
0.000396736
0.000372677
0.000348757
0.000324992
0.0003014
0.000278001
0.000254816
0.000231871
0.000209193
0.000186811
0.000164758
0.000143071
0.000121788
0.00010095
8.05929e-05
6.07307e-05
4.12972e-05
2.18856e-05
3.09629e-07
0.00399856
0.00387164
0.00371597
0.00354646
0.0033738
0.00320402
0.00304093
0.00288778
0.00274722
0.00262084
0.0025092
0.002412
0.00232828
0.00225666
0.00219547
0.00214295
0.00209741
0.00205732
0.00202136
0.00198846
0.00195775
0.0019286
0.00190053
0.00187319
0.00184634
0.00181982
0.00179351
0.00176735
0.00174129
0.00171529
0.00168935
0.00166344
0.00163756
0.0016117
0.00158586
0.00156003
0.00153422
0.00150842
0.00148264
0.00145687
0.00143111
0.00140537
0.00137964
0.00135392
0.00132823
0.00130255
0.00127689
0.00125125
0.00122563
0.00120003
0.00117445
0.0011489
0.00112338
0.00109788
0.0010724
0.00104695
0.00102153
0.000996136
0.000970768
0.000945428
0.000920116
0.000894833
0.00086958
0.000844356
0.000819163
0.000794002
0.000768873
0.000743779
0.000718722
0.000693702
0.000668723
0.000643787
0.000618898
0.00059406
0.000569278
0.000544557
0.000519902
0.000495322
0.000470823
0.000446415
0.000422108
0.000397913
0.000373844
0.000349913
0.000326138
0.000302536
0.000279126
0.000255929
0.00023297
0.000210275
0.000187874
0.000165797
0.00014408
0.000122759
0.000101871
8.14452e-05
6.14834e-05
4.18968e-05
2.22809e-05
9.20223e-07
0.00390556
0.00379327
0.00365772
0.00350832
0.00335334
0.00319878
0.00304874
0.00290638
0.00277418
0.0026538
0.00254596
0.00245065
0.00236726
0.00229474
0.00223179
0.00217697
0.00212885
0.0020861
0.00204754
0.0020122
0.00197927
0.00194812
0.00191827
0.00188936
0.00186113
0.0018334
0.00180602
0.00177892
0.00175201
0.00172526
0.00169863
0.0016721
0.00164566
0.00161929
0.00159298
0.00156673
0.00154052
0.00151436
0.00148824
0.00146215
0.00143611
0.0014101
0.00138412
0.00135818
0.00133226
0.00130639
0.00128054
0.00125473
0.00122895
0.0012032
0.00117749
0.00115181
0.00112616
0.00110055
0.00107497
0.00104942
0.0010239
0.000998421
0.000972972
0.000947557
0.000922174
0.000896826
0.000871511
0.00084623
0.000820984
0.000795774
0.000770601
0.000745465
0.000720368
0.000695313
0.000670302
0.000645337
0.000620422
0.000595561
0.000570757
0.000546017
0.000521346
0.000496752
0.00047224
0.000447822
0.000423506
0.000399303
0.000375227
0.000351291
0.000327509
0.000303901
0.000280484
0.000257279
0.000234309
0.000211601
0.000189182
0.000167082
0.000145334
0.000123973
0.000103031
8.25313e-05
6.24695e-05
4.27562e-05
2.3063e-05
2.28258e-06
0.00382308
0.00372228
0.00360281
0.00347045
0.00333128
0.00319074
0.00305289
0.00292079
0.00279676
0.00268243
0.00257868
0.0024857
0.00240316
0.00233032
0.00226617
0.00220957
0.00215931
0.00211427
0.00207342
0.00203587
0.00200088
0.00196784
0.00193629
0.00190586
0.00187628
0.00184734
0.00181889
0.00179083
0.00176307
0.00173555
0.00170823
0.00168107
0.00165405
0.00162716
0.00160037
0.00157367
0.00154706
0.00152052
0.00149406
0.00146765
0.00144131
0.00141503
0.00138879
0.00136261
0.00133648
0.0013104
0.00128437
0.00125838
0.00123243
0.00120653
0.00118068
0.00115486
0.00112909
0.00110336
0.00107767
0.00105202
0.00102641
0.00100084
0.000975311
0.000949818
0.000924365
0.00089895
0.000873573
0.000848235
0.000822936
0.000797676
0.000772458
0.00074728
0.000722146
0.000697056
0.000672014
0.000647021
0.000622081
0.000597198
0.000572375
0.000547618
0.000522934
0.000498327
0.000473807
0.000449381
0.000425059
0.000400852
0.000376772
0.000352833
0.00032905
0.000305439
0.000282018
0.000258808
0.000235832
0.000213112
0.000190677
0.000168555
0.000146776
0.000125373
0.000104374
8.37993e-05
6.3643e-05
4.38352e-05
2.4166e-05
4.12682e-06
0.00374948
0.00365794
0.00355148
0.00343349
0.00330829
0.0031805
0.00305395
0.0029315
0.00281535
0.00270705
0.00260757
0.00251726
0.00243601
0.00236335
0.00229851
0.00224059
0.00218863
0.00214167
0.00209883
0.0020593
0.00202242
0.00198763
0.00195446
0.00192257
0.00189167
0.00186155
0.00183204
0.00180302
0.0017744
0.0017461
0.00171807
0.00169027
0.00166267
0.00163524
0.00160796
0.00158081
0.00155378
0.00152686
0.00150004
0.00147331
0.00144666
0.0014201
0.00139361
0.00136718
0.00134083
0.00131454
0.00128831
0.00126214
0.00123603
0.00120997
0.00118397
0.00115802
0.00113212
0.00110627
0.00108047
0.00105471
0.00102901
0.00100335
0.000977734
0.000952164
0.000926638
0.000901156
0.000875717
0.000850321
0.000824969
0.00079966
0.000774396
0.000749178
0.000724006
0.000698883
0.00067381
0.00064879
0.000623826
0.000598922
0.000574082
0.00054931
0.000524613
0.000499997
0.000475469
0.000451038
0.000426713
0.000402504
0.000378424
0.000354485
0.000330702
0.00030709
0.000283669
0.000260456
0.000237474
0.000214745
0.000192295
0.000170151
0.000148341
0.000126894
0.000105836
8.51862e-05
6.49426e-05
4.50654e-05
2.54689e-05
6.1188e-06
0.00368343
0.00359957
0.00350376
0.0033979
0.00328491
0.00316861
0.00305242
0.002939
0.00283036
0.00272799
0.00263287
0.00254548
0.0024659
0.00239383
0.00232874
0.00226996
0.0022167
0.00216817
0.00212362
0.00208235
0.00204377
0.00200736
0.00197269
0.0019394
0.00190723
0.00187595
0.0018454
0.00181543
0.00178594
0.00175686
0.00172812
0.00169968
0.00167148
0.0016435
0.00161572
0.00158811
0.00156066
0.00153335
0.00150616
0.0014791
0.00145214
0.00142528
0.00139853
0.00137185
0.00134527
0.00131876
0.00129234
0.00126598
0.0012397
0.00121348
0.00118733
0.00116124
0.00113521
0.00110924
0.00108332
0.00105747
0.00103166
0.00100591
0.000980212
0.000954563
0.000928964
0.000903413
0.000877911
0.000852457
0.000827051
0.000801693
0.000776384
0.000751125
0.000725916
0.000700759
0.000675656
0.00065061
0.000625623
0.000600698
0.000575841
0.000551056
0.000526348
0.000501723
0.000477189
0.000452753
0.000428426
0.000404217
0.000380137
0.000356199
0.000332418
0.000308808
0.000285386
0.000262172
0.000239184
0.000216446
0.00019398
0.000171813
0.00014997
0.000128477
0.00010736
8.66347e-05
6.63084e-05
4.63725e-05
2.6843e-05
7.98278e-06
0.0036239
0.00354651
0.00345955
0.00336394
0.00326157
0.00315553
0.00304879
0.00294373
0.00284219
0.00274556
0.00265483
0.00257055
0.0024929
0.00242179
0.00235685
0.00229759
0.00224339
0.00219363
0.00214766
0.0021049
0.00206481
0.00202693
0.00199086
0.00195626
0.00192288
0.00189048
0.0018589
0.001828
0.00179766
0.0017678
0.00173835
0.00170925
0.00168045
0.00165192
0.00162363
0.00159555
0.00156767
0.00153995
0.0015124
0.00148499
0.00145772
0.00143057
0.00140353
0.00137661
0.00134979
0.00132306
0.00129643
0.00126989
0.00124343
0.00121704
0.00119074
0.00116451
0.00113834
0.00111225
0.00108622
0.00106026
0.00103435
0.00100851
0.000982725
0.000956996
0.000931322
0.000905703
0.000880137
0.000854624
0.000829164
0.000803756
0.000778402
0.000753101
0.000727854
0.000702663
0.000677531
0.000652458
0.000627448
0.000602504
0.00057763
0.00055283
0.000528111
0.000503478
0.000478938
0.000454499
0.00043017
0.00040596
0.000381881
0.000357945
0.000334166
0.000310557
0.000287135
0.000263918
0.000240925
0.000218176
0.000195694
0.000173501
0.000151623
0.000130082
0.000108902
8.81011e-05
6.76921e-05
4.76934e-05
2.81861e-05
9.56065e-06
0.00357007
0.00349821
0.00341869
0.00333177
0.00323863
0.00314169
0.00304348
0.00294611
0.00285123
0.00276012
0.00267372
0.00259264
0.00251716
0.00244729
0.00238283
0.00232344
0.00226865
0.00221796
0.00217085
0.00212683
0.00208542
0.00204623
0.00200888
0.00197306
0.00193853
0.00190507
0.0018725
0.00184068
0.00180951
0.00177887
0.00174871
0.00171895
0.00168955
0.00166047
0.00163166
0.00160311
0.00157478
0.00154666
0.00151873
0.00149097
0.00146338
0.00143593
0.00140861
0.00138143
0.00135437
0.00132742
0.00130058
0.00127384
0.0012472
0.00122065
0.00119419
0.00116781
0.00114152
0.0011153
0.00108915
0.00106308
0.00103707
0.00101114
0.000985263
0.000959452
0.000933703
0.000908013
0.000882382
0.00085681
0.000831295
0.000805837
0.000780436
0.000755093
0.000729809
0.000704584
0.000679421
0.000654321
0.000629288
0.000604323
0.000579433
0.000554619
0.000529889
0.000505247
0.000480701
0.000456258
0.000431927
0.000407717
0.000383638
0.000359703
0.000335924
0.000312316
0.000288893
0.000265672
0.000242672
0.00021991
0.000197409
0.000175189
0.000153273
0.000131681
0.000110436
8.95553e-05
6.90594e-05
4.89825e-05
2.94342e-05
1.0808e-05
0.00352125
0.00345418
0.00338098
0.00330148
0.00321632
0.00312741
0.00303688
0.00294653
0.00285784
0.00277197
0.00268981
0.00261197
0.0025388
0.00247041
0.00240671
0.00234748
0.0022924
0.00224107
0.00219308
0.00214802
0.00210549
0.00206514
0.00202664
0.00198971
0.00195411
0.00191964
0.00188612
0.00185342
0.00182142
0.00179003
0.00175916
0.00172875
0.00169875
0.00166911
0.00163979
0.00161075
0.00158199
0.00155346
0.00152514
0.00149703
0.0014691
0.00144135
0.00141375
0.00138631
0.001359
0.00133183
0.00130477
0.00127784
0.00125102
0.0012243
0.00119768
0.00117115
0.00114472
0.00111837
0.00109211
0.00106592
0.00103981
0.00101378
0.000987816
0.000961922
0.000936096
0.000910336
0.000884639
0.000859006
0.000833435
0.000807926
0.000782479
0.000757093
0.00073177
0.000706511
0.000681317
0.00065619
0.000631133
0.000606149
0.00058124
0.000556413
0.000531671
0.00050702
0.000482467
0.00045802
0.000433686
0.000409474
0.000385395
0.00036146
0.000337681
0.000314072
0.000290646
0.00026742
0.00024441
0.000221634
0.000199111
0.000176861
0.000154902
0.000133257
0.000111942
9.09785e-05
7.03877e-05
5.0211e-05
3.0558e-05
1.17559e-05
0.00347688
0.003414
0.00334621
0.00327306
0.00319483
0.00311299
0.00302931
0.00294535
0.00286238
0.00278144
0.00270336
0.00262875
0.00255798
0.00249123
0.00242852
0.00236972
0.0023146
0.00226289
0.00221427
0.00216838
0.00212492
0.00208357
0.00204405
0.00200611
0.00196952
0.00193411
0.00189969
0.00186615
0.00183336
0.00180122
0.00176966
0.00173861
0.00170801
0.00167781
0.00164798
0.00161847
0.00158925
0.00156031
0.00153161
0.00150314
0.00147488
0.00144682
0.00141894
0.00139123
0.00136367
0.00133626
0.001309
0.00128186
0.00125485
0.00122796
0.00120118
0.00117451
0.00114793
0.00112145
0.00109507
0.00106877
0.00104256
0.00101643
0.000990376
0.000964398
0.000938495
0.000912662
0.000886899
0.000861205
0.000835578
0.000810017
0.000784522
0.000759094
0.000733732
0.000708438
0.000683213
0.000658058
0.000632977
0.000607971
0.000583045
0.000558203
0.000533449
0.000508789
0.000484228
0.000459776
0.000435438
0.000411224
0.000387143
0.000363207
0.000339427
0.000315815
0.000292384
0.000269151
0.000246129
0.000223336
0.000200789
0.000178505
0.000156502
0.000134798
0.000113411
9.23579e-05
7.16622e-05
5.13631e-05
3.15523e-05
1.24673e-05
0.00343651
0.00337731
0.00331419
0.00324651
0.00317428
0.00309865
0.00302108
0.00294288
0.00286515
0.00278882
0.00271464
0.00264319
0.00257486
0.00250988
0.00244832
0.00239016
0.00233524
0.00228338
0.00223433
0.00218783
0.00214362
0.00210142
0.00206102
0.00202217
0.00198469
0.00194839
0.00191314
0.00187879
0.00184524
0.00181239
0.00178016
0.00174848
0.00171729
0.00168654
0.00165619
0.00162621
0.00159655
0.00156719
0.00153811
0.00150928
0.00148069
0.00145231
0.00142414
0.00139616
0.00136836
0.00134072
0.00131323
0.0012859
0.0012587
0.00123163
0.00120469
0.00117786
0.00115115
0.00112454
0.00109803
0.00107162
0.00104531
0.00101908
0.000992933
0.000966872
0.00094089
0.000914985
0.000889155
0.000863399
0.000837715
0.000812102
0.00078656
0.000761088
0.000735688
0.000710358
0.000685101
0.000659919
0.000634813
0.000609786
0.000584841
0.000559984
0.000535217
0.000510546
0.000485978
0.000461519
0.000437177
0.000412959
0.000388876
0.000364938
0.000341154
0.000317538
0.000294102
0.000270858
0.000247823
0.00022501
0.000202436
0.000180115
0.000158064
0.000136298
0.000114834
9.36856e-05
7.28747e-05
5.24329e-05
3.24264e-05
1.30079e-05
0.00339975
0.00334381
0.00328473
0.00322178
0.00315477
0.00308459
0.00301243
0.00293941
0.00286647
0.00279441
0.00272391
0.00265551
0.00258962
0.00252647
0.00246621
0.00240885
0.00235432
0.00230251
0.00225323
0.0022063
0.0021615
0.00211862
0.00207745
0.00203781
0.00199952
0.00196243
0.00192639
0.00189129
0.00185702
0.00182348
0.0017906
0.00175831
0.00172654
0.00169526
0.0016644
0.00163394
0.00160384
0.00157407
0.00154461
0.00151542
0.0014865
0.00145781
0.00142935
0.0014011
0.00137304
0.00134517
0.00131747
0.00128993
0.00126254
0.0012353
0.00120819
0.00118122
0.00115436
0.00112762
0.00110099
0.00107446
0.00104804
0.00102171
0.000995478
0.000969332
0.000943271
0.000917293
0.000891397
0.000865578
0.000839837
0.000814172
0.000788582
0.000763067
0.000737627
0.000712262
0.000686973
0.000661762
0.000636631
0.000611582
0.000586619
0.000561746
0.000536966
0.000512284
0.000487707
0.000463242
0.000438894
0.000414672
0.000390585
0.000366643
0.000342855
0.000319233
0.000295788
0.000272534
0.000249482
0.000226647
0.000204043
0.000181682
0.00015958
0.000137749
0.000116202
9.49536e-05
7.40181e-05
5.34178e-05
3.31926e-05
1.34281e-05
0.00336628
0.00331323
0.00325768
0.00319883
0.00313636
0.00307094
0.00300358
0.00293519
0.00286658
0.00279845
0.0027314
0.00266592
0.00260241
0.00254113
0.00248224
0.0024258
0.00237182
0.00232022
0.00227089
0.00222369
0.00217846
0.00213503
0.00209323
0.00205291
0.00201391
0.0019761
0.00193935
0.00190355
0.0018686
0.00183441
0.00180091
0.00176803
0.00173571
0.0017039
0.00167255
0.00164163
0.00161109
0.00158092
0.00155107
0.00152153
0.00149227
0.00146328
0.00143453
0.00140601
0.0013777
0.0013496
0.00132168
0.00129394
0.00126636
0.00123894
0.00121167
0.00118454
0.00115755
0.00113067
0.00110392
0.00107728
0.00105075
0.00102433
0.000998001
0.00097177
0.000945631
0.00091958
0.000893617
0.000867736
0.000841939
0.000816221
0.000790583
0.000765025
0.000739545
0.000714144
0.000688824
0.000663584
0.000638428
0.000613358
0.000588376
0.000563486
0.000538692
0.000513999
0.000489413
0.000464939
0.000440585
0.000416358
0.000392267
0.000368319
0.000344525
0.000320896
0.000297442
0.000274174
0.000251104
0.000228244
0.000205607
0.000183204
0.000161047
0.000139148
0.000117515
9.61602e-05
7.50924e-05
5.4323e-05
3.38689e-05
1.37665e-05
0.00333584
0.00328535
0.00323288
0.0031776
0.00311908
0.00305784
0.00299471
0.00293046
0.00286577
0.00280123
0.00273738
0.00267468
0.00261348
0.00255405
0.00249658
0.00244116
0.00238784
0.0023366
0.00228736
0.00224004
0.00219451
0.00215066
0.00210835
0.00206745
0.00202783
0.00198938
0.00195198
0.00191553
0.00187995
0.00184515
0.00181106
0.00177761
0.00174475
0.00171243
0.0016806
0.00164923
0.00161827
0.00158769
0.00155747
0.00152758
0.001498
0.00146869
0.00143966
0.00141087
0.00138232
0.00135398
0.00132584
0.0012979
0.00127014
0.00124254
0.00121511
0.00118783
0.00116069
0.00113368
0.00110681
0.00108006
0.00105342
0.0010269
0.00100048
0.000974166
0.000947949
0.000921827
0.000895796
0.000869854
0.000844
0.00081823
0.000792545
0.000766943
0.000741424
0.000715988
0.000690635
0.000665367
0.000640186
0.000615094
0.000590092
0.000565186
0.000540378
0.000515673
0.000491077
0.000466595
0.000442234
0.000418001
0.000393903
0.00036995
0.000346149
0.000322511
0.000299045
0.000275762
0.000252672
0.000229785
0.000207113
0.000184666
0.000162452
0.000140481
0.000118759
9.72936e-05
7.60883e-05
5.51443e-05
3.44615e-05
1.40372e-05
0.00330302
0.00325523
0.00320596
0.00315436
0.00309991
0.00304298
0.00298426
0.00292436
0.00286383
0.00280316
0.00274281
0.00268317
0.00262459
0.00256732
0.00251155
0.00245742
0.002405
0.0023543
0.00230532
0.00225801
0.0022123
0.0021681
0.00212532
0.00208386
0.00204362
0.0020045
0.00196641
0.00192928
0.00189301
0.00185753
0.00182279
0.00178871
0.00175525
0.00172235
0.00168998
0.00165808
0.00162664
0.0015956
0.00156495
0.00153465
0.00150468
0.00147503
0.00144566
0.00141656
0.00138771
0.0013591
0.00133071
0.00130253
0.00127455
0.00124675
0.00121913
0.00119167
0.00116437
0.00113721
0.00111019
0.00108331
0.00105655
0.00102991
0.00100339
0.000976971
0.000950662
0.000924455
0.000898346
0.000872332
0.000846411
0.000820581
0.00079484
0.000769187
0.000743621
0.000718143
0.000692753
0.000667452
0.000642241
0.000617122
0.000592097
0.000567171
0.000542346
0.000517627
0.000493018
0.000468525
0.000444155
0.000419913
0.000395807
0.000371845
0.000348034
0.000324384
0.000300902
0.000277599
0.000254483
0.000231563
0.000208847
0.000186343
0.000164059
0.000142
0.000120169
9.85676e-05
7.71949e-05
5.60418e-05
3.50949e-05
1.43082e-05
0.00326918
0.00322409
0.00317797
0.00312994
0.00307945
0.00302675
0.00297237
0.0029168
0.00286046
0.00280374
0.00274703
0.00269065
0.00263491
0.00258005
0.00252625
0.00247368
0.00242242
0.00237253
0.00232404
0.00227694
0.00223121
0.0021868
0.00214366
0.00210172
0.00206091
0.00202116
0.0019824
0.00194456
0.00190758
0.0018714
0.00183596
0.00180121
0.00176709
0.00173356
0.00170058
0.00166811
0.00163611
0.00160456
0.00157341
0.00154266
0.00151226
0.00148219
0.00145244
0.00142299
0.00139381
0.00136489
0.00133621
0.00130776
0.00127953
0.00125149
0.00122365
0.00119599
0.00116849
0.00114116
0.00111398
0.00108694
0.00106004
0.00103327
0.00100662
0.000980098
0.000953684
0.000927381
0.000901182
0.000875086
0.00084909
0.00082319
0.000797385
0.000771675
0.000746057
0.000720531
0.000695098
0.000669759
0.000644514
0.000619365
0.000594314
0.000569365
0.00054452
0.000519784
0.000495161
0.000470655
0.000446274
0.000422021
0.000397905
0.000373931
0.000350108
0.000326441
0.00030294
0.000279612
0.000256463
0.0002335
0.000210731
0.000188159
0.000165789
0.000143623
0.00012166
9.98968e-05
7.83261e-05
5.69316e-05
3.56929e-05
1.45496e-05
0.00323854
0.00319586
0.0031525
0.0031076
0.00306056
0.00301154
0.00296096
0.0029092
0.0028566
0.00280345
0.00275007
0.00269672
0.00264368
0.00259115
0.00253932
0.00248835
0.00243834
0.00238937
0.00234151
0.00229478
0.00224919
0.00220473
0.00216137
0.00211908
0.00207782
0.00203755
0.00199821
0.00195975
0.00192213
0.0018853
0.00184921
0.00181381
0.00177906
0.00174492
0.00171135
0.00167832
0.00164578
0.00161371
0.00158208
0.00155087
0.00152004
0.00148956
0.00145943
0.00142962
0.0014001
0.00137087
0.00134189
0.00131317
0.00128468
0.0012564
0.00122834
0.00120047
0.00117278
0.00114526
0.00111792
0.00109072
0.00106368
0.00103677
0.00101
0.000983355
0.000956834
0.00093043
0.000904139
0.000877958
0.000851882
0.00082591
0.000800039
0.000774268
0.000748594
0.000723019
0.00069754
0.000672159
0.000646877
0.000621696
0.000596616
0.000571641
0.000546773
0.000522017
0.000497375
0.000472854
0.000448457
0.00042419
0.000400059
0.00037607
0.000352229
0.000328542
0.000305016
0.000281656
0.000258468
0.000235457
0.000212627
0.000189979
0.000167515
0.000145232
0.000123127
0.000101192
7.94143e-05
5.77748e-05
3.62531e-05
1.4786e-05
0.00321159
0.00317096
0.00312993
0.00308764
0.00304347
0.00299752
0.00295012
0.00290159
0.00285216
0.00280208
0.0027516
0.00270093
0.00265031
0.00259992
0.00254994
0.00250051
0.00245175
0.00240376
0.00235661
0.00231035
0.00226503
0.00222064
0.00217721
0.00213471
0.00209314
0.00205247
0.00201267
0.0019737
0.00193554
0.00189815
0.00186148
0.00182551
0.0017902
0.0017555
0.00172139
0.00168783
0.0016548
0.00162225
0.00159017
0.00155852
0.00152728
0.00149642
0.00146592
0.00143577
0.00140593
0.0013764
0.00134715
0.00131816
0.00128942
0.00126092
0.00123264
0.00120457
0.0011767
0.00114902
0.00112151
0.00109417
0.00106698
0.00103995
0.00101306
0.000986306
0.000959683
0.000933186
0.000906809
0.000880548
0.000854399
0.00082836
0.000802428
0.0007766
0.000750876
0.000725254
0.000699734
0.000674316
0.000649001
0.000623789
0.000598683
0.000573685
0.000548797
0.000524023
0.000499366
0.00047483
0.00045042
0.00042614
0.000401995
0.000377992
0.000354134
0.000330428
0.000306877
0.000283487
0.000260261
0.000237201
0.00021431
0.000191586
0.000169027
0.000146628
0.00012438
0.000102271
8.02877e-05
5.84105e-05
3.66291e-05
1.49029e-05
0.00318953
0.00315061
0.00311147
0.00307128
0.00302942
0.00298593
0.0029411
0.00289517
0.00284833
0.00280078
0.0027527
0.00270429
0.00265573
0.0026072
0.00255884
0.00251081
0.00246321
0.00241615
0.00236972
0.00232398
0.00227898
0.00223477
0.00219136
0.00214877
0.002107
0.00206605
0.0020259
0.00198654
0.00194794
0.00191008
0.00187293
0.00183647
0.00180066
0.00176548
0.0017309
0.00169687
0.00166339
0.00163041
0.00159791
0.00156587
0.00153425
0.00150304
0.00147221
0.00144174
0.00141161
0.00138179
0.00135228
0.00132305
0.00129408
0.00126536
0.00123688
0.00120863
0.00118058
0.00115273
0.00112507
0.00109759
0.00107027
0.00104311
0.00101611
0.000989251
0.000962529
0.000935941
0.000909479
0.000883139
0.000856918
0.000830812
0.000804818
0.000778934
0.000753158
0.000727489
0.000701925
0.000676468
0.000651117
0.000625873
0.000600738
0.000575713
0.000550801
0.000526005
0.000501328
0.000476773
0.000452345
0.000428047
0.000403885
0.000379862
0.000355983
0.000332251
0.000308672
0.000285247
0.000261978
0.000238867
0.000215911
0.000193109
0.000170453
0.000147935
0.000125542
0.000103258
8.10653e-05
5.8946e-05
3.6901e-05
1.49217e-05
0.00317285
0.00313515
0.00309738
0.0030587
0.00301849
0.00297676
0.00293377
0.00288971
0.00284475
0.00279903
0.00275272
0.00270598
0.00265897
0.00261185
0.00256474
0.00251779
0.00247112
0.00242482
0.00237899
0.0023337
0.00228902
0.002245
0.00220167
0.00215906
0.00211719
0.00207607
0.00203569
0.00199605
0.00195715
0.00191896
0.00188146
0.00184464
0.00180847
0.00177293
0.00173798
0.00170361
0.00166978
0.00163647
0.00160366
0.00157132
0.00153941
0.00150793
0.00147684
0.00144613
0.00141576
0.00138573
0.00135602
0.0013266
0.00129745
0.00126857
0.00123994
0.00121154
0.00118336
0.00115539
0.00112761
0.00110002
0.00107261
0.00104536
0.00101827
0.00099133
0.000964536
0.00093788
0.000911356
0.000884959
0.000858685
0.000832531
0.000806493
0.000780568
0.000754756
0.000729053
0.00070346
0.000677975
0.0006526
0.000627335
0.00060218
0.000577139
0.000552211
0.000527402