/*--------------------------------*- C++ -*----------------------------------*\
| =========                 |                                                 |
| \\      /  F ield         | OpenFOAM: The Open Source CFD Toolbox           |
|  \\    /   O peration     | Version:  2.3.0                                 |
|   \\  /    A nd           | Web:      www.OpenFOAM.org                      |
|    \\/     M anipulation  |                                                 |
\*---------------------------------------------------------------------------*/
FoamFile
{
    version     2.0;
    format      ascii;
    class       surfaceScalarField;
    location    "0.5";
    object      phi;
}
// * * * * * * * * * * * * * * * * * * * * * * * * * * * * * * * * * * * * * //

dimensions      [0 3 -1 0 0 0 0];

internalField   nonuniform List<scalar> 
6598
(
2.85976e-08
2.85913e-09
-3.14568e-08
2.57449e-08
2.85278e-09
2.30662e-08
2.67864e-09
2.05963e-08
2.46991e-09
1.83513e-08
2.24505e-09
1.63419e-08
2.00935e-09
1.45709e-08
1.77103e-09
1.3033e-08
1.5379e-09
1.17165e-08
1.31648e-09
1.06044e-08
1.11209e-09
9.6758e-09
9.28616e-10
8.90745e-09
7.68357e-10
8.27547e-09
6.31979e-10
7.75676e-09
5.18707e-10
7.3301e-09
4.26657e-10
6.97686e-09
3.53239e-10
6.68132e-09
2.95539e-10
6.43068e-09
2.50646e-10
6.2148e-09
2.15875e-10
6.0259e-09
1.88904e-10
5.85808e-09
1.67818e-10
5.70697e-09
1.51107e-10
5.56936e-09
1.37616e-10
5.44287e-09
1.2649e-10
5.32576e-09
1.17112e-10
5.21671e-09
1.09045e-10
5.11473e-09
1.01983e-10
5.01901e-09
9.57131e-11
4.92893e-09
9.00867e-11
4.84393e-09
8.49982e-11
4.76356e-09
8.03705e-11
4.68741e-09
7.61454e-11
4.61514e-09
7.22765e-11
4.54641e-09
6.87257e-11
4.48095e-09
6.54605e-11
4.4185e-09
6.24525e-11
4.35882e-09
5.96765e-11
4.30171e-09
5.71098e-11
4.24698e-09
5.47324e-11
4.19445e-09
5.25259e-11
4.14398e-09
5.04741e-11
4.09542e-09
4.85624e-11
4.04864e-09
4.67776e-11
4.00353e-09
4.51081e-11
3.95999e-09
4.35433e-11
3.91791e-09
4.20739e-11
3.87722e-09
4.06915e-11
3.83783e-09
3.93886e-11
3.79968e-09
3.81584e-11
3.76268e-09
3.6995e-11
3.72679e-09
3.58927e-11
3.69194e-09
3.48467e-11
3.65809e-09
3.38525e-11
3.62518e-09
3.29061e-11
3.59318e-09
3.20038e-11
3.56204e-09
3.11421e-11
3.53172e-09
3.03181e-11
3.50219e-09
2.95289e-11
3.47342e-09
2.87718e-11
3.44537e-09
2.80444e-11
3.41803e-09
2.73447e-11
3.39136e-09
2.66703e-11
3.36534e-09
2.60195e-11
3.33995e-09
2.53904e-11
3.31517e-09
2.47812e-11
3.29098e-09
2.41904e-11
3.26736e-09
2.36165e-11
3.2443e-09
2.30581e-11
3.22179e-09
2.25136e-11
3.19981e-09
2.19819e-11
3.17835e-09
2.14617e-11
3.15739e-09
2.09518e-11
3.13694e-09
2.0451e-11
3.11698e-09
1.99582e-11
3.09751e-09
1.94723e-11
3.07852e-09
1.89923e-11
3.06e-09
1.85173e-11
3.04196e-09
1.80462e-11
3.02438e-09
1.75781e-11
3.00727e-09
1.71123e-11
2.99062e-09
1.66478e-11
2.97443e-09
1.6184e-11
2.95871e-09
1.572e-11
2.94346e-09
1.52557e-11
2.92867e-09
1.47904e-11
2.91434e-09
1.43238e-11
2.90049e-09
1.3856e-11
2.8871e-09
1.3387e-11
2.87418e-09
1.2917e-11
2.86174e-09
1.24461e-11
2.84976e-09
1.19749e-11
2.83826e-09
1.15038e-11
2.82723e-09
1.1034e-11
2.81666e-09
1.05679e-11
2.80655e-09
1.01108e-11
2.79687e-09
9.67542e-12
2.78757e-09
9.29741e-12
2.77851e-09
9.06464e-12
2.76936e-09
9.15137e-12
2.20821e-11
3.43093e-08
3.10323e-09
-3.45534e-08
3.37496e-08
3.41246e-09
3.29555e-08
3.47269e-09
3.20046e-08
3.4209e-09
3.0952e-08
3.29755e-09
2.98436e-08
3.11778e-09
2.87163e-08
2.89835e-09
2.75985e-08
2.65566e-09
2.65114e-08
2.40364e-09
2.54697e-08
2.15378e-09
2.44832e-08
1.91516e-09
2.35572e-08
1.69432e-09
2.26939e-08
1.49528e-09
2.18929e-08
1.3197e-09
2.11521e-08
1.16743e-09
2.04683e-08
1.03701e-09
1.98377e-08
9.26174e-10
1.9256e-08
8.32315e-10
1.87191e-08
7.52809e-10
1.82228e-08
6.85214e-10
1.77632e-08
6.27393e-10
1.73368e-08
5.77545e-10
1.69402e-08
5.34197e-10
1.65705e-08
4.96174e-10
1.62251e-08
4.62548e-10
1.59015e-08
4.3259e-10
1.55978e-08
4.0573e-10
1.5312e-08
3.81517e-10
1.50425e-08
3.59593e-10
1.47878e-08
3.39665e-10
1.45467e-08
3.21495e-10
1.4318e-08
3.04881e-10
1.41006e-08
2.89653e-10
1.38936e-08
2.75664e-10
1.36963e-08
2.62784e-10
1.35079e-08
2.50903e-10
1.33276e-08
2.3992e-10
1.3155e-08
2.29748e-10
1.29894e-08
2.20307e-10
1.28304e-08
2.11529e-10
1.26775e-08
2.03352e-10
1.25304e-08
1.95719e-10
1.23886e-08
1.88581e-10
1.22518e-08
1.81895e-10
1.21197e-08
1.7562e-10
1.19921e-08
1.69721e-10
1.18686e-08
1.64166e-10
1.1749e-08
1.58926e-10
1.16332e-08
1.53975e-10
1.15209e-08
1.4929e-10
1.1412e-08
1.4485e-10
1.13062e-08
1.40634e-10
1.12034e-08
1.36627e-10
1.11035e-08
1.32811e-10
1.10063e-08
1.29173e-10
1.09118e-08
1.25698e-10
1.08197e-08
1.22374e-10
1.07301e-08
1.19191e-10
1.06427e-08
1.16137e-10
1.05575e-08
1.13203e-10
1.04745e-08
1.10379e-10
1.03935e-08
1.07658e-10
1.03145e-08
1.05031e-10
1.02374e-08
1.02491e-10
1.01622e-08
1.0003e-10
1.00887e-08
9.76427e-11
1.0017e-08
9.53219e-11
9.947e-09
9.30619e-11
9.87865e-09
9.08566e-11
9.81194e-09
8.87006e-11
9.74681e-09
8.65885e-11
9.68325e-09
8.4515e-11
9.62122e-09
8.24752e-11
9.56072e-09
8.04642e-11
9.50171e-09
7.84771e-11
9.44419e-09
7.65094e-11
9.38815e-09
7.45566e-11
9.33359e-09
7.26143e-11
9.28049e-09
7.06783e-11
9.22885e-09
6.87446e-11
9.17869e-09
6.68093e-11
9.13001e-09
6.48688e-11
9.08281e-09
6.29198e-11
9.0371e-09
6.09596e-11
8.99291e-09
5.89855e-11
8.95024e-09
5.69956e-11
8.9091e-09
5.49885e-11
8.86953e-09
5.29632e-11
8.83153e-09
5.09193e-11
8.79511e-09
4.88569e-11
8.76031e-09
4.67773e-11
8.72713e-09
4.46826e-11
8.69559e-09
4.25778e-11
8.66568e-09
4.04734e-11
8.63741e-09
3.83898e-11
8.61071e-09
3.6373e-11
8.58547e-09
3.45354e-11
8.56135e-09
3.31882e-11
8.53603e-09
3.44715e-11
5.45285e-11
3.64039e-08
2.92208e-09
-3.62227e-08
3.65013e-08
3.31499e-09
3.64739e-08
3.50012e-09
3.63268e-08
3.568e-09
3.60701e-08
3.55425e-09
3.57174e-08
3.4705e-09
3.52856e-08
3.33016e-09
3.47922e-08
3.14904e-09
3.42538e-08
2.94207e-09
3.36851e-08
2.72241e-09
3.3099e-08
2.50123e-09
3.2506e-08
2.28734e-09
3.19143e-08
2.08696e-09
3.13302e-08
1.90385e-09
3.0758e-08
1.73961e-09
3.02008e-08
1.59424e-09
2.96604e-08
1.46661e-09
2.91377e-08
1.35497e-09
2.86332e-08
1.25728e-09
2.81469e-08
1.17152e-09
2.76785e-08
1.09581e-09
2.72275e-08
1.02851e-09
2.67935e-08
9.68252e-10
2.63758e-08
9.13909e-10
2.59737e-08
8.64578e-10
2.55868e-08
8.19538e-10
2.52143e-08
7.78217e-10
2.48556e-08
7.40157e-10
2.45103e-08
7.04987e-10
2.41775e-08
6.72402e-10
2.38569e-08
6.42148e-10
2.35477e-08
6.14008e-10
2.32496e-08
5.87793e-10
2.29619e-08
5.63338e-10
2.26842e-08
5.40495e-10
2.2416e-08
5.19132e-10
2.21568e-08
4.99128e-10
2.19061e-08
4.80376e-10
2.16637e-08
4.62775e-10
2.1429e-08
4.46235e-10
2.12017e-08
4.30674e-10
2.09814e-08
4.16016e-10
2.07677e-08
4.02192e-10
2.05605e-08
3.89139e-10
2.03593e-08
3.768e-10
2.01639e-08
3.6512e-10
1.9974e-08
3.54051e-10
1.97894e-08
3.43549e-10
1.96098e-08
3.33572e-10
1.9435e-08
3.24082e-10
1.92648e-08
3.15046e-10
1.9099e-08
3.0643e-10
1.89375e-08
2.98204e-10
1.87799e-08
2.90342e-10
1.86263e-08
2.82818e-10
1.84764e-08
2.75608e-10
1.83301e-08
2.6869e-10
1.81872e-08
2.62043e-10
1.80477e-08
2.55648e-10
1.79114e-08
2.49487e-10
1.77782e-08
2.43543e-10
1.76481e-08
2.37799e-10
1.75209e-08
2.32241e-10
1.73965e-08
2.26854e-10
1.72749e-08
2.21623e-10
1.7156e-08
2.16537e-10
1.70398e-08
2.11582e-10
1.69261e-08
2.06745e-10
1.68149e-08
2.02015e-10
1.67063e-08
1.97381e-10
1.66e-08
1.9283e-10
1.64962e-08
1.88352e-10
1.63947e-08
1.83937e-10
1.62956e-08
1.79574e-10
1.61988e-08
1.75251e-10
1.61044e-08
1.7096e-10
1.60123e-08
1.6669e-10
1.59224e-08
1.62431e-10
1.58349e-08
1.58173e-10
1.57498e-08
1.53908e-10
1.5667e-08
1.49626e-10
1.55865e-08
1.45319e-10
1.55085e-08
1.40979e-10
1.54328e-08
1.36599e-10
1.53596e-08
1.32172e-10
1.52889e-08
1.27694e-10
1.52208e-08
1.23158e-10
1.51552e-08
1.18563e-10
1.50922e-08
1.13906e-10
1.50318e-08
1.09188e-10
1.49742e-08
1.0441e-10
1.49193e-08
9.95785e-11
1.48672e-08
9.47055e-11
1.48178e-08
8.98143e-11
1.47713e-08
8.49497e-11
1.47275e-08
8.02036e-11
1.46862e-08
7.57945e-11
1.4647e-08
7.23892e-11
1.46079e-08
7.35964e-11
9.34119e-11
3.79782e-08
2.70465e-09
-3.77608e-08
3.8205e-08
3.08816e-09
3.83932e-08
3.31191e-09
3.853e-08
3.43121e-09
3.86088e-08
3.47553e-09
3.8625e-08
3.45426e-09
3.85787e-08
3.37644e-09
3.84735e-08
3.25424e-09
3.83153e-08
3.10034e-09
3.81111e-08
2.92656e-09
3.78689e-08
2.74348e-09
3.75963e-08
2.55993e-09
3.73005e-08
2.38272e-09
3.69879e-08
2.21649e-09
3.66636e-08
2.06387e-09
3.63319e-08
1.92591e-09
3.59961e-08
1.80244e-09
3.56586e-08
1.6925e-09
3.53212e-08
1.59472e-09
3.49851e-08
1.50757e-09
3.46514e-08
1.42954e-09
3.43206e-08
1.35925e-09
3.39934e-08
1.29551e-09
3.367e-08
1.23732e-09
3.33507e-08
1.18385e-09
3.30358e-08
1.13444e-09
3.27255e-08
1.08856e-09
3.24198e-08
1.04579e-09
3.2119e-08
1.00579e-09
3.18231e-08
9.68282e-10
3.15323e-08
9.33031e-10
3.12464e-08
8.99844e-10
3.09657e-08
8.68553e-10
3.069e-08
8.39011e-10
3.04194e-08
8.11089e-10
3.01539e-08
7.84669e-10
2.98933e-08
7.59645e-10
2.96378e-08
7.35921e-10
2.93872e-08
7.13407e-10
2.91414e-08
6.92022e-10
2.89004e-08
6.71691e-10
2.8664e-08
6.52345e-10
2.84323e-08
6.33919e-10
2.82051e-08
6.16353e-10
2.79823e-08
5.99592e-10
2.77638e-08
5.83585e-10
2.75496e-08
5.68285e-10
2.73395e-08
5.53646e-10
2.71334e-08
5.39628e-10
2.69313e-08
5.26191e-10
2.67331e-08
5.133e-10
2.65386e-08
5.00921e-10
2.63478e-08
4.89021e-10
2.61605e-08
4.77572e-10
2.59768e-08
4.66544e-10
2.57965e-08
4.55911e-10
2.56196e-08
4.45648e-10
2.54459e-08
4.35731e-10
2.52754e-08
4.26137e-10
2.5108e-08
4.16844e-10
2.49437e-08
4.07832e-10
2.47824e-08
3.9908e-10
2.46241e-08
3.90569e-10
2.44687e-08
3.82281e-10
2.43161e-08
3.74197e-10
2.41664e-08
3.663e-10
2.40194e-08
3.58573e-10
2.38751e-08
3.50997e-10
2.37336e-08
3.43558e-10
2.35947e-08
3.36237e-10
2.34585e-08
3.2902e-10
2.3325e-08
3.21888e-10
2.31941e-08
3.14828e-10
2.30659e-08
3.07821e-10
2.29402e-08
3.00853e-10
2.28173e-08
2.93907e-10
2.2697e-08
2.86968e-10
2.25794e-08
2.80018e-10
2.24646e-08
2.73044e-10
2.23524e-08
2.6603e-10
2.22431e-08
2.5896e-10
2.21366e-08
2.5182e-10
2.2033e-08
2.44597e-10
2.19323e-08
2.37277e-10
2.18346e-08
2.29851e-10
2.174e-08
2.22307e-10
2.16485e-08
2.14637e-10
2.15603e-08
2.06835e-10
2.14753e-08
1.98896e-10
2.13936e-08
1.90822e-10
2.13154e-08
1.82615e-10
2.12407e-08
1.74288e-10
2.11696e-08
1.6586e-10
2.1102e-08
1.57374e-10
2.10381e-08
1.48902e-10
2.09777e-08
1.40587e-10
2.09207e-08
1.32758e-10
2.08667e-08
1.26382e-10
2.0815e-08
1.25336e-10
1.39356e-10
3.95155e-08
2.51243e-09
-3.93233e-08
3.97428e-08
2.86084e-09
3.99666e-08
3.08818e-09
4.01731e-08
3.22467e-09
4.0355e-08
3.29364e-09
4.0505e-08
3.30427e-09
4.06178e-08
3.2636e-09
4.06911e-08
3.181e-09
4.07246e-08
3.0668e-09
4.07202e-08
2.93098e-09
4.0681e-08
2.78267e-09
4.06111e-08
2.62983e-09
4.0515e-08
2.47885e-09
4.03971e-08
2.33441e-09
4.02614e-08
2.19951e-09
4.01116e-08
2.07572e-09
3.99506e-08
1.96347e-09
3.97807e-08
1.8624e-09
3.96038e-08
1.77166e-09
3.94212e-08
1.69014e-09
3.9234e-08
1.61669e-09
3.90431e-08
1.55016e-09
3.88491e-08
1.48954e-09
3.86524e-08
1.43396e-09
3.84536e-08
1.38269e-09
3.82529e-08
1.33511e-09
3.80507e-08
1.29075e-09
3.78473e-08
1.2492e-09
3.7643e-08
1.21015e-09
3.74379e-08
1.17333e-09
3.72324e-08
1.13854e-09
3.70267e-08
1.1056e-09
3.68209e-08
1.07434e-09
3.66152e-08
1.04464e-09
3.64099e-08
1.01639e-09
3.62051e-08
9.89478e-10
3.6001e-08
9.6381e-10
3.57976e-08
9.39305e-10
3.55951e-08
9.15884e-10
3.53937e-08
8.93479e-10
3.51933e-08
8.72023e-10
3.49942e-08
8.51458e-10
3.47964e-08
8.31727e-10
3.46e-08
8.1278e-10
3.4405e-08
7.94569e-10
3.42115e-08
7.77051e-10
3.40196e-08
7.60183e-10
3.38294e-08
7.43927e-10
3.36407e-08
7.28249e-10
3.34538e-08
7.13113e-10
3.32686e-08
6.98488e-10
3.30852e-08
6.84344e-10
3.29036e-08
6.70653e-10
3.27238e-08
6.57389e-10
3.25458e-08
6.44525e-10
3.23696e-08
6.32038e-10
3.21954e-08
6.19904e-10
3.2023e-08
6.081e-10
3.18525e-08
5.96606e-10
3.1684e-08
5.854e-10
3.15174e-08
5.74463e-10
3.13527e-08
5.63773e-10
3.11899e-08
5.53311e-10
3.10291e-08
5.43059e-10
3.08703e-08
5.32998e-10
3.07135e-08
5.23107e-10
3.05587e-08
5.13369e-10
3.0406e-08
5.03765e-10
3.02553e-08
4.94276e-10
3.01066e-08
4.84882e-10
2.99601e-08
4.75564e-10
2.98157e-08
4.66303e-10
2.96734e-08
4.57079e-10
2.95334e-08
4.47871e-10
2.93955e-08
4.38661e-10
2.926e-08
4.29426e-10
2.91268e-08
4.20147e-10
2.89961e-08
4.10802e-10
2.88677e-08
4.0137e-10
2.87419e-08
3.91831e-10
2.86187e-08
3.82165e-10
2.84982e-08
3.72351e-10
2.83804e-08
3.6237e-10
2.82655e-08
3.52203e-10
2.81535e-08
3.41836e-10
2.80446e-08
3.31252e-10
2.79388e-08
3.2044e-10
2.78362e-08
3.09391e-10
2.7737e-08
2.98097e-10
2.76413e-08
2.86561e-10
2.75491e-08
2.74787e-10
2.74606e-08
2.62793e-10
2.73758e-08
2.50613e-10
2.72949e-08
2.38305e-10
2.72178e-08
2.25971e-10
2.71446e-08
2.13801e-10
2.70752e-08
2.02201e-10
2.70093e-08
1.92237e-10
2.69475e-08
1.87115e-10
1.91475e-10
4.10926e-08
2.34684e-09
-4.0927e-08
4.12981e-08
2.65535e-09
4.15131e-08
2.87314e-09
4.17243e-08
3.0135e-09
4.19249e-08
3.09301e-09
4.21089e-08
3.12033e-09
4.22709e-08
3.10162e-09
4.24074e-08
3.04444e-09
4.25168e-08
2.9574e-09
4.25988e-08
2.84899e-09
4.26544e-08
2.72708e-09
4.26856e-08
2.59864e-09
4.2695e-08
2.46944e-09
4.26855e-08
2.3439e-09
4.266e-08
2.22504e-09
4.2621e-08
2.11467e-09
4.25709e-08
2.01357e-09
4.25115e-08
1.92176e-09
4.24444e-08
1.83879e-09
4.23706e-08
1.76389e-09
4.22912e-08
1.69618e-09
4.22066e-08
1.63473e-09
4.21174e-08
1.57871e-09
4.2024e-08
1.52734e-09
4.19268e-08
1.47998e-09
4.18258e-08
1.43607e-09
4.17214e-08
1.39515e-09
4.16137e-08
1.35686e-09
4.1503e-08
1.32089e-09
4.13893e-08
1.28698e-09
4.12729e-08
1.25493e-09
4.1154e-08
1.22456e-09
4.10326e-08
1.19572e-09
4.09089e-08
1.16829e-09
4.07832e-08
1.14216e-09
4.06554e-08
1.11721e-09
4.05259e-08
1.09338e-09
4.03946e-08
1.07057e-09
4.02618e-08
1.04871e-09
4.01275e-08
1.02774e-09
3.99919e-08
1.00761e-09
3.98552e-08
9.8824e-10
3.97173e-08
9.69595e-10
3.95784e-08
9.51625e-10
3.94387e-08
9.34287e-10
3.92982e-08
9.1754e-10
3.91571e-08
9.01346e-10
3.90153e-08
8.85671e-10
3.88731e-08
8.70482e-10
3.87305e-08
8.55749e-10
3.85875e-08
8.41443e-10
3.84443e-08
8.27537e-10
3.8301e-08
8.14006e-10
3.81575e-08
8.00826e-10
3.80141e-08
7.87974e-10
3.78707e-08
7.75427e-10
3.77274e-08
7.63165e-10
3.75844e-08
7.51166e-10
3.74416e-08
7.39411e-10
3.72991e-08
7.27881e-10
3.7157e-08
7.16555e-10
3.70153e-08
7.05416e-10
3.68742e-08
6.94445e-10
3.67336e-08
6.83622e-10
3.65937e-08
6.72929e-10
3.64545e-08
6.62346e-10
3.6316e-08
6.51855e-10
3.61783e-08
6.41435e-10
3.60415e-08
6.31067e-10
3.59057e-08
6.2073e-10
3.57708e-08
6.10403e-10
3.56371e-08
6.00065e-10
3.55045e-08
5.89692e-10
3.53731e-08
5.79262e-10
3.5243e-08
5.68752e-10
3.51143e-08
5.58138e-10
3.4987e-08
5.47395e-10
3.48613e-08
5.36498e-10
3.47373e-08
5.25421e-10
3.4615e-08
5.1414e-10
3.44945e-08
5.0263e-10
3.4376e-08
4.90864e-10
3.42595e-08
4.78819e-10
3.41453e-08
4.66473e-10
3.40333e-08
4.53804e-10
3.39238e-08
4.40794e-10
3.38168e-08
4.27426e-10
3.37125e-08
4.13689e-10
3.3611e-08
3.99575e-10
3.35125e-08
3.85085e-10
3.3417e-08
3.70229e-10
3.33248e-08
3.5503e-10
3.32359e-08
3.39534e-10
3.31504e-08
3.23815e-10
3.30683e-08
3.08001e-10
3.29898e-08
2.92312e-10
3.29148e-08
2.7718e-10
3.28435e-08
2.63549e-10
3.27772e-08
2.53431e-10
2.4654e-10
4.27219e-08
2.2014e-09
-4.25764e-08
4.29054e-08
2.4718e-09
4.31039e-08
2.67462e-09
4.33044e-08
2.81305e-09
4.35e-08
2.89735e-09
4.36856e-08
2.9348e-09
4.38564e-08
2.93081e-09
4.40092e-08
2.89163e-09
4.41421e-08
2.82446e-09
4.42545e-08
2.73658e-09
4.43468e-08
2.63486e-09
4.442e-08
2.52541e-09
4.4476e-08
2.41344e-09
4.45168e-08
2.30305e-09
4.45447e-08
2.19718e-09
4.45616e-08
2.09774e-09
4.45695e-08
2.00575e-09
4.45697e-08
1.92151e-09
4.45636e-08
1.84487e-09
4.45522e-08
1.77534e-09
4.45361e-08
1.71227e-09
4.45159e-08
1.65495e-09
4.44919e-08
1.60268e-09
4.44644e-08
1.5548e-09
4.44337e-08
1.51074e-09
4.43997e-08
1.47e-09
4.43627e-08
1.43216e-09
4.43227e-08
1.39686e-09
4.42798e-08
1.36381e-09
4.4234e-08
1.33276e-09
4.41854e-08
1.30351e-09
4.41341e-08
1.27588e-09
4.40801e-08
1.24972e-09
4.40235e-08
1.22491e-09
4.39643e-08
1.20132e-09
4.39027e-08
1.17887e-09
4.38386e-08
1.15746e-09
4.37722e-08
1.13701e-09
4.37034e-08
1.11744e-09
4.36325e-08
1.0987e-09
4.35594e-08
1.08072e-09
4.34841e-08
1.06345e-09
4.34069e-08
1.04683e-09
4.33277e-08
1.03081e-09
4.32467e-08
1.01536e-09
4.31638e-08
1.00044e-09
4.30791e-08
9.85994e-10
4.29928e-08
9.72003e-10
4.29048e-08
9.58431e-10
4.28153e-08
9.45248e-10
4.27243e-08
9.32423e-10
4.2632e-08
9.19932e-10
4.25382e-08
9.07748e-10
4.24432e-08
8.95848e-10
4.2347e-08
8.84208e-10
4.22496e-08
8.72806e-10
4.21511e-08
8.61622e-10
4.20517e-08
8.50635e-10
4.19512e-08
8.39825e-10
4.18499e-08
8.29172e-10
4.17478e-08
8.18657e-10
4.1645e-08
8.0826e-10
4.15415e-08
7.97963e-10
4.14374e-08
7.87746e-10
4.13327e-08
7.77588e-10
4.12276e-08
7.67472e-10
4.11221e-08
7.57375e-10
4.10162e-08
7.47277e-10
4.09101e-08
7.37157e-10
4.08039e-08
7.26991e-10
4.06975e-08
7.16758e-10
4.05911e-08
7.06433e-10
4.04848e-08
6.95991e-10
4.03787e-08
6.85407e-10
4.02728e-08
6.74654e-10
4.01672e-08
6.63705e-10
4.00621e-08
6.52531e-10
3.99575e-08
6.41105e-10
3.98535e-08
6.29395e-10
3.97503e-08
6.17374e-10
3.96479e-08
6.05011e-10
3.95465e-08
5.92277e-10
3.94462e-08
5.79142e-10
3.93471e-08
5.65581e-10
3.92493e-08
5.51568e-10
3.9153e-08
5.37079e-10
3.90583e-08
5.22097e-10
3.89654e-08
5.06606e-10
3.88744e-08
4.90598e-10
3.87854e-08
4.74075e-10
3.86986e-08
4.5705e-10
3.86141e-08
4.39552e-10
3.8532e-08
4.21636e-10
3.84524e-08
4.03391e-10
3.83754e-08
3.8496e-10
3.83012e-08
3.66577e-10
3.82297e-08
3.48639e-10
3.81614e-08
3.31825e-10
3.8098e-08
3.16853e-10
2.99676e-10
4.44062e-08
2.07067e-09
-4.42754e-08
4.45711e-08
2.30684e-09
4.47532e-08
2.49258e-09
4.49404e-08
2.62578e-09
4.5126e-08
2.71177e-09
4.53048e-08
2.75596e-09
4.54727e-08
2.76291e-09
4.56266e-08
2.73777e-09
4.57645e-08
2.68651e-09
4.58858e-08
2.61533e-09
4.59905e-08
2.53018e-09
4.60794e-08
2.43648e-09
4.6154e-08
2.33888e-09
4.62159e-08
2.24116e-09
4.62669e-08
2.14616e-09
4.63088e-08
2.05584e-09
4.63432e-08
1.97136e-09
4.63714e-08
1.89326e-09
4.63947e-08
1.82163e-09
4.64138e-08
1.75621e-09
4.64295e-08
1.69657e-09
4.64423e-08
1.64219e-09
4.64525e-08
1.59251e-09
4.64603e-08
1.54698e-09
4.64659e-08
1.50512e-09
4.64694e-08
1.46648e-09
4.64709e-08
1.43067e-09
4.64704e-08
1.39738e-09
4.64679e-08
1.36631e-09
4.64634e-08
1.33724e-09
4.6457e-08
1.30996e-09
4.64485e-08
1.28431e-09
4.64381e-08
1.26013e-09
4.64257e-08
1.23729e-09
4.64114e-08
1.21568e-09
4.63951e-08
1.1952e-09
4.63768e-08
1.17575e-09
4.63565e-08
1.15726e-09
4.63343e-08
1.13965e-09
4.63102e-08
1.12285e-09
4.62841e-08
1.1068e-09
4.62561e-08
1.09144e-09
4.62262e-08
1.07673e-09
4.61944e-08
1.0626e-09
4.61608e-08
1.04902e-09
4.61253e-08
1.03594e-09
4.60879e-08
1.02332e-09
4.60488e-08
1.01114e-09
4.60079e-08
9.99342e-10
4.59652e-08
9.8791e-10
4.59208e-08
9.76809e-10
4.58748e-08
9.6601e-10
4.5827e-08
9.55488e-10
4.57776e-08
9.45217e-10
4.57267e-08
9.35171e-10
4.56742e-08
9.25329e-10
4.56201e-08
9.15666e-10
4.55646e-08
9.06162e-10
4.55076e-08
8.96795e-10
4.54492e-08
8.87543e-10
4.53895e-08
8.78386e-10
4.53285e-08
8.69302e-10
4.52662e-08
8.60272e-10
4.52026e-08
8.51274e-10
4.51379e-08
8.42286e-10
4.50721e-08
8.33287e-10
4.50052e-08
8.24255e-10
4.49374e-08
8.15166e-10
4.48685e-08
8.05997e-10
4.47988e-08
7.96723e-10
4.47282e-08
7.87318e-10
4.46569e-08
7.77756e-10
4.45849e-08
7.6801e-10
4.45122e-08
7.5805e-10
4.4439e-08
7.47848e-10
4.43654e-08
7.37371e-10
4.42913e-08
7.26589e-10
4.4217e-08
7.15468e-10
4.41424e-08
7.03976e-10
4.40677e-08
6.92078e-10
4.39929e-08
6.79741e-10
4.39183e-08
6.66932e-10
4.38438e-08
6.53616e-10
4.37696e-08
6.39764e-10
4.36959e-08
6.25345e-10
4.36226e-08
6.10334e-10
4.355e-08
5.94707e-10
4.34781e-08
5.7845e-10
4.34072e-08
5.61552e-10
4.33372e-08
5.44016e-10
4.32684e-08
5.25856e-10
4.32009e-08
5.07108e-10
4.31347e-08
4.87832e-10
4.307e-08
4.68127e-10
4.30068e-08
4.48144e-10
4.29452e-08
4.2811e-10
4.28855e-08
4.0835e-10
4.28281e-08
3.89234e-10
4.27745e-08
3.70433e-10
3.45932e-10
4.61474e-08
1.95085e-09
-4.60276e-08
4.62971e-08
2.15712e-09
4.64643e-08
2.3254e-09
4.66388e-08
2.45132e-09
4.68137e-08
2.53679e-09
4.69843e-08
2.58539e-09
4.71465e-08
2.60074e-09
4.72972e-08
2.58701e-09
4.74347e-08
2.54907e-09
4.75579e-08
2.49214e-09
4.76667e-08
2.42135e-09
4.77618e-08
2.34141e-09
4.78442e-08
2.25649e-09
4.79153e-08
2.17006e-09
4.79766e-08
2.08479e-09
4.80298e-08
2.00265e-09
4.80763e-08
1.9249e-09
4.81173e-08
1.85225e-09
4.81539e-08
1.78498e-09
4.81871e-08
1.72304e-09
4.82175e-08
1.6662e-09
4.82456e-08
1.6141e-09
4.82718e-08
1.56631e-09
4.82963e-08
1.52241e-09
4.83195e-08
1.48198e-09
4.83413e-08
1.44464e-09
4.83619e-08
1.41007e-09
4.83813e-08
1.37796e-09
4.83996e-08
1.34806e-09
4.84166e-08
1.32015e-09
4.84326e-08
1.29403e-09
4.84473e-08
1.26955e-09
4.84609e-08
1.24654e-09
4.84733e-08
1.2249e-09
4.84845e-08
1.2045e-09
4.84944e-08
1.18525e-09
4.85031e-08
1.16705e-09
4.85106e-08
1.14982e-09
4.85167e-08
1.13349e-09
4.85216e-08
1.11799e-09
4.85251e-08
1.10326e-09
4.85273e-08
1.08923e-09
4.85282e-08
1.07586e-09
4.85277e-08
1.06308e-09
4.85259e-08
1.05087e-09
4.85227e-08
1.03917e-09
4.8518e-08
1.02794e-09
4.8512e-08
1.01714e-09
4.85046e-08
1.00675e-09
4.84958e-08
9.9672e-10
4.84856e-08
9.87025e-10
4.8474e-08
9.77633e-10
4.84609e-08
9.68518e-10
4.84465e-08
9.59651e-10
4.84307e-08
9.51006e-10
4.84134e-08
9.42559e-10
4.83948e-08
9.34285e-10
4.83748e-08
9.26161e-10
4.83535e-08
9.18162e-10
4.83307e-08
9.10268e-10
4.83067e-08
9.02454e-10
4.82813e-08
8.94698e-10
4.82546e-08
8.86978e-10
4.82266e-08
8.7927e-10
4.81973e-08
8.71552e-10
4.81668e-08
8.63799e-10
4.81351e-08
8.55987e-10
4.81021e-08
8.48091e-10
4.8068e-08
8.40085e-10
4.80328e-08
8.31941e-10
4.79965e-08
8.23633e-10
4.79591e-08
8.15129e-10
4.79207e-08
8.06402e-10
4.78814e-08
7.97418e-10
4.78411e-08
7.88145e-10
4.77999e-08
7.78549e-10
4.77579e-08
7.68595e-10
4.77151e-08
7.58246e-10
4.76716e-08
7.47468e-10
4.76275e-08
7.36221e-10
4.75828e-08
7.24468e-10
4.75375e-08
7.12172e-10
4.74918e-08
6.99297e-10
4.74458e-08
6.85807e-10
4.73995e-08
6.71671e-10
4.73529e-08
6.56858e-10
4.73063e-08
6.41343e-10
4.72597e-08
6.25109e-10
4.72131e-08
6.08146e-10
4.71666e-08
5.90455e-10
4.71204e-08
5.72052e-10
4.70746e-08
5.52977e-10
4.70291e-08
5.33294e-10
4.69841e-08
5.13106e-10
4.69397e-08
4.92564e-10
4.68959e-08
4.71875e-10
4.6853e-08
4.51282e-10
4.68113e-08
4.30894e-10
4.6772e-08
4.0977e-10
3.8174e-10
4.79477e-08
1.83934e-09
-4.78362e-08
4.80851e-08
2.01977e-09
4.82393e-08
2.1712e-09
4.8402e-08
2.28866e-09
4.85668e-08
2.37197e-09
4.8729e-08
2.42312e-09
4.8885e-08
2.44482e-09
4.90316e-08
2.44037e-09
4.9167e-08
2.41368e-09
4.929e-08
2.36909e-09
4.94005e-08
2.31093e-09
4.94986e-08
2.24331e-09
4.95851e-08
2.1699e-09
4.96614e-08
2.09384e-09
4.97285e-08
2.01765e-09
4.97879e-08
1.94322e-09
4.98409e-08
1.87188e-09
4.98887e-08
1.80446e-09
4.99323e-08
1.74138e-09
4.99726e-08
1.68279e-09
5.00102e-08
1.62859e-09
5.00457e-08
1.57858e-09
5.00796e-08
1.53247e-09
5.0112e-08
1.48993e-09
5.01434e-08
1.45063e-09
5.01738e-08
1.41426e-09
5.02033e-08
1.38054e-09
5.02321e-08
1.34921e-09
5.02601e-08
1.32003e-09
5.02874e-08
1.2928e-09
5.03141e-08
1.26736e-09
5.03401e-08
1.24353e-09
5.03655e-08
1.22119e-09
5.03902e-08
1.2002e-09
5.04142e-08
1.18048e-09
5.04376e-08
1.1619e-09
5.04602e-08
1.1444e-09
5.04822e-08
1.12788e-09
5.05034e-08
1.11227e-09
5.05239e-08
1.09751e-09
5.05436e-08
1.08353e-09
5.05625e-08
1.07028e-09
5.05807e-08
1.0577e-09
5.0598e-08
1.04574e-09
5.06146e-08
1.03435e-09
5.06302e-08
1.02349e-09
5.0645e-08
1.01313e-09
5.0659e-08
1.00322e-09
5.0672e-08
9.93717e-10
5.06841e-08
9.84601e-10
5.06953e-08
9.75834e-10
5.07056e-08
9.67385e-10
5.07149e-08
9.59225e-10
5.07232e-08
9.51327e-10
5.07305e-08
9.43663e-10
5.07369e-08
9.36207e-10
5.07422e-08
9.28934e-10
5.07466e-08
9.21819e-10
5.07499e-08
9.14839e-10
5.07522e-08
9.07968e-10
5.07535e-08
9.01184e-10
5.07537e-08
8.94462e-10
5.07529e-08
8.87779e-10
5.07511e-08
8.81109e-10
5.07482e-08
8.7443e-10
5.07443e-08
8.67715e-10
5.07393e-08
8.60938e-10
5.07333e-08
8.54072e-10
5.07263e-08
8.47091e-10
5.07183e-08
8.39965e-10
5.07093e-08
8.32665e-10
5.06992e-08
8.25159e-10
5.06882e-08
8.17415e-10
5.06762e-08
8.094e-10
5.06633e-08
8.01078e-10
5.06494e-08
7.92415e-10
5.06347e-08
7.83371e-10
5.0619e-08
7.73909e-10
5.06025e-08
7.6399e-10
5.05851e-08
7.53573e-10
5.0567e-08
7.42619e-10
5.05481e-08
7.31088e-10
5.05284e-08
7.1894e-10
5.05081e-08
7.06139e-10
5.04871e-08
6.92648e-10
5.04655e-08
6.78438e-10
5.04434e-08
6.6348e-10
5.04207e-08
6.47757e-10
5.03976e-08
6.31256e-10
5.03741e-08
6.13981e-10
5.03502e-08
5.95949e-10
5.0326e-08
5.772e-10
5.03015e-08
5.57801e-10
5.02767e-08
5.37856e-10
5.02518e-08
5.17509e-10
5.02267e-08
4.96944e-10
5.02017e-08
4.76333e-10
5.01769e-08
4.55627e-10
5.0153e-08
4.33722e-10
4.05613e-10
4.98097e-08
1.73429e-09
-4.97047e-08
4.9937e-08
1.89249e-09
5.008e-08
2.0282e-09
5.0232e-08
2.13669e-09
5.03873e-08
2.21662e-09
5.05416e-08
2.26882e-09
5.06913e-08
2.29514e-09
5.08336e-08
2.29811e-09
5.09664e-08
2.28085e-09
5.10886e-08
2.24689e-09
5.11997e-08
2.19985e-09
5.12997e-08
2.14327e-09
5.13893e-08
2.08035e-09
5.14692e-08
2.01391e-09
5.15406e-08
1.94626e-09
5.16046e-08
1.87923e-09
5.16623e-08
1.81414e-09
5.17149e-08
1.75189e-09
5.17633e-08
1.69304e-09
5.18082e-08
1.63785e-09
5.18504e-08
1.58637e-09
5.18905e-08
1.53853e-09
5.19288e-08
1.49414e-09
5.19657e-08
1.45298e-09
5.20016e-08
1.4148e-09
5.20365e-08
1.37935e-09
5.20706e-08
1.3464e-09
5.21041e-08
1.31573e-09
5.2137e-08
1.28713e-09
5.21694e-08
1.26043e-09
5.22013e-08
1.23546e-09
5.22327e-08
1.21208e-09
5.22638e-08
1.19016e-09
5.22944e-08
1.16959e-09
5.23246e-08
1.15026e-09
5.23544e-08
1.13209e-09
5.23838e-08
1.11498e-09
5.24128e-08
1.09886e-09
5.24414e-08
1.08365e-09
5.24697e-08
1.0693e-09
5.24974e-08
1.05574e-09
5.25248e-08
1.04291e-09
5.25517e-08
1.03076e-09
5.25782e-08
1.01925e-09
5.26043e-08
1.00832e-09
5.26298e-08
9.97932e-10
5.26549e-08
9.88049e-10
5.26795e-08
9.7863e-10
5.27036e-08
9.6964e-10
5.27271e-08
9.61045e-10
5.27501e-08
9.52813e-10
5.27726e-08
9.44912e-10
5.27945e-08
9.37315e-10
5.28159e-08
9.29993e-10
5.28366e-08
9.22918e-10
5.28567e-08
9.16065e-10
5.28763e-08
9.09408e-10
5.28952e-08
9.02922e-10
5.29134e-08
8.96582e-10
5.2931e-08
8.90365e-10
5.2948e-08
8.84246e-10
5.29642e-08
8.78201e-10
5.29798e-08
8.72206e-10
5.29947e-08
8.66235e-10
5.30088e-08
8.60264e-10
5.30223e-08
8.54267e-10
5.3035e-08
8.48218e-10
5.3047e-08
8.42088e-10
5.30582e-08
8.35851e-10
5.30687e-08
8.29476e-10
5.30785e-08
8.22932e-10
5.30874e-08
8.16189e-10
5.30956e-08
8.09212e-10
5.31031e-08
8.01968e-10
5.31097e-08
7.94421e-10
5.31156e-08
7.86533e-10
5.31207e-08
7.78267e-10
5.3125e-08
7.69582e-10
5.31286e-08
7.60438e-10
5.31314e-08
7.50794e-10
5.31334e-08
7.4061e-10
5.31346e-08
7.29844e-10
5.31351e-08
7.18456e-10
5.31348e-08
7.06407e-10
5.31338e-08
6.93662e-10
5.31321e-08
6.80189e-10
5.31296e-08
6.6596e-10
5.31264e-08
6.50957e-10
5.31225e-08
6.35168e-10
5.31179e-08
6.18596e-10
5.31125e-08
6.01261e-10
5.31065e-08
5.83204e-10
5.30999e-08
5.64493e-10
5.30925e-08
5.45229e-10
5.30844e-08
5.25549e-10
5.30758e-08
5.05615e-10
5.30665e-08
4.85556e-10
5.30569e-08
4.65271e-10
5.30468e-08
4.43833e-10
4.1801e-10
5.1736e-08
1.63441e-09
-5.16361e-08
5.1855e-08
1.77344e-09
5.19884e-08
1.89479e-09
5.21309e-08
1.99425e-09
5.22775e-08
2.06999e-09
5.24243e-08
2.12203e-09
5.25679e-08
2.15151e-09
5.27058e-08
2.16029e-09
5.28358e-08
2.15081e-09
5.29568e-08
2.1259e-09
5.30681e-08
2.08858e-09
5.31695e-08
2.04183e-09
5.32614e-08
1.98843e-09
5.33445e-08
1.93086e-09
5.34195e-08
1.87125e-09
5.34874e-08
1.81129e-09
5.35493e-08
1.75229e-09
5.3606e-08
1.6952e-09
5.36584e-08
1.64063e-09
5.37073e-08
1.58895e-09
5.37533e-08
1.54033e-09
5.37971e-08
1.4948e-09
5.38389e-08
1.45228e-09
5.38793e-08
1.41263e-09
5.39184e-08
1.37568e-09
5.39565e-08
1.34125e-09
5.39937e-08
1.30913e-09
5.40303e-08
1.27916e-09
5.40663e-08
1.25117e-09
5.41017e-08
1.22498e-09
5.41367e-08
1.20047e-09
5.41713e-08
1.1775e-09
5.42055e-08
1.15596e-09
5.42393e-08
1.13573e-09
5.42729e-08
1.11673e-09
5.43061e-08
1.09885e-09
5.43391e-08
1.08203e-09
5.43717e-08
1.06619e-09
5.44041e-08
1.05126e-09
5.44362e-08
1.03718e-09
5.44681e-08
1.02388e-09
5.44997e-08
1.01131e-09
5.4531e-08
9.99427e-10
5.45621e-08
9.88176e-10
5.45929e-08
9.77514e-10
5.46235e-08
9.67399e-10
5.46537e-08
9.57791e-10
5.46837e-08
9.48652e-10
5.47134e-08
9.39949e-10
5.47428e-08
9.31646e-10
5.47719e-08
9.23714e-10
5.48007e-08
9.16121e-10
5.48291e-08
9.08838e-10
5.48573e-08
9.01839e-10
5.48851e-08
8.95095e-10
5.49126e-08
8.88582e-10
5.49397e-08
8.82275e-10
5.49665e-08
8.76147e-10
5.49929e-08
8.70176e-10
5.50189e-08
8.64337e-10
5.50446e-08
8.58607e-10
5.50698e-08
8.52961e-10
5.50947e-08
8.47375e-10
5.51191e-08
8.41824e-10
5.5143e-08
8.36284e-10
5.51666e-08
8.3073e-10
5.51897e-08
8.25134e-10
5.52123e-08
8.19469e-10
5.52344e-08
8.13708e-10
5.52561e-08
8.07822e-10
5.52772e-08
8.01779e-10
5.52979e-08
7.95549e-10
5.5318e-08
7.89098e-10
5.53376e-08
7.82392e-10
5.53566e-08
7.75396e-10
5.53751e-08
7.68072e-10
5.53929e-08
7.60383e-10
5.54102e-08
7.52288e-10
5.54269e-08
7.43749e-10
5.5443e-08
7.34724e-10
5.54584e-08
7.25173e-10
5.54732e-08
7.15054e-10
5.54873e-08
7.04329e-10
5.55008e-08
6.92958e-10
5.55135e-08
6.80908e-10
5.55256e-08
6.68146e-10
5.55369e-08
6.54646e-10
5.55475e-08
6.40391e-10
5.55573e-08
6.2537e-10
5.55663e-08
6.09589e-10
5.55745e-08
5.93069e-10
5.55818e-08
5.7585e-10
5.55883e-08
5.58003e-10
5.55939e-08
5.39626e-10
5.55986e-08
5.20849e-10
5.56024e-08
5.01819e-10
5.56053e-08
4.82648e-10
5.56073e-08
4.63269e-10
5.5608e-08
4.43107e-10
4.20688e-10
5.37292e-08
1.53873e-09
-5.36336e-08
5.38415e-08
1.66118e-09
5.39667e-08
1.76955e-09
5.41007e-08
1.86025e-09
5.42394e-08
1.9313e-09
5.43792e-08
1.98223e-09
5.45171e-08
2.01363e-09
5.46506e-08
2.02682e-09
5.47777e-08
2.02366e-09
5.48973e-08
2.00638e-09
5.50084e-08
1.97746e-09
5.51108e-08
1.93939e-09
5.52047e-08
1.89454e-09
5.52905e-08
1.84511e-09
5.53687e-08
1.79299e-09
5.54402e-08
1.73975e-09
5.55059e-08
1.68665e-09
5.55665e-08
1.63463e-09
5.56227e-08
1.58437e-09
5.56754e-08
1.5363e-09
5.5725e-08
1.49067e-09
5.57722e-08
1.44761e-09
5.58174e-08
1.40712e-09
5.58609e-08
1.36914e-09
5.5903e-08
1.33356e-09