/*--------------------------------*- C++ -*----------------------------------*\
| =========                 |                                                 |
| \\      /  F ield         | OpenFOAM: The Open Source CFD Toolbox           |
|  \\    /   O peration     | Version:  2.3.0                                 |
|   \\  /    A nd           | Web:      www.OpenFOAM.org                      |
|    \\/     M anipulation  |                                                 |
\*---------------------------------------------------------------------------*/
FoamFile
{
    version     2.0;
    format      ascii;
    class       volVectorField;
    location    "0.25";
    object      U_0;
}
// * * * * * * * * * * * * * * * * * * * * * * * * * * * * * * * * * * * * * //

dimensions      [0 1 -1 0 0 0 0];

internalField   nonuniform List<vector> 
3375
(
(0.17341 0.00612043 0)
(0.156948 0.00611008 0)
(0.141079 0.00565589 0)
(0.126075 0.0050426 0)
(0.112326 0.00437271 0)
(0.0999799 0.00369668 0)
(0.0890448 0.0030504 0)
(0.079488 0.00245814 0)
(0.0712549 0.00193444 0)
(0.0642618 0.00148661 0)
(0.058396 0.00111613 0)
(0.0535264 0.000819545 0)
(0.0495137 0.000589614 0)
(0.04622 0.000416847 0)
(0.043516 0.000290951 0)
(0.0412863 0.000201978 0)
(0.0394316 0.000141046 0)
(0.03787 0.000100676 0)
(0.0365357 7.48559e-05 0)
(0.0353774 5.89464e-05 0)
(0.0343563 4.9505e-05 0)
(0.0334432 4.40792e-05 0)
(0.0326165 4.09968e-05 0)
(0.0318604 3.91718e-05 0)
(0.0311633 3.79383e-05 0)
(0.0305167 3.69165e-05 0)
(0.029914 3.59116e-05 0)
(0.0293501 3.4841e-05 0)
(0.0288211 3.36851e-05 0)
(0.0283236 3.2456e-05 0)
(0.0278549 3.11781e-05 0)
(0.0274125 2.98782e-05 0)
(0.0269944 2.858e-05 0)
(0.0265987 2.73022e-05 0)
(0.0262238 2.60582e-05 0)
(0.0258682 2.48566e-05 0)
(0.0255306 2.37025e-05 0)
(0.0252099 2.25979e-05 0)
(0.0249051 2.15429e-05 0)
(0.0246152 2.05362e-05 0)
(0.0243395 1.95755e-05 0)
(0.0240774 1.86581e-05 0)
(0.0238281 1.77811e-05 0)
(0.0235912 1.69415e-05 0)
(0.0233662 1.61366e-05 0)
(0.0231528 1.5364e-05 0)
(0.0229507 1.46217e-05 0)
(0.0227596 1.39086e-05 0)
(0.0225793 1.32238e-05 0)
(0.0224096 1.25665e-05 0)
(0.0222504 1.19345e-05 0)
(0.0221017 1.13226e-05 0)
(0.0219635 1.072e-05 0)
(0.0218359 1.01074e-05 0)
(0.0217191 9.45465e-06 0)
(0.0216137 8.71948e-06 0)
(0.0215204 7.84933e-06 0)
(0.0214399 6.78906e-06 0)
(0.0213734 5.50652e-06 0)
(0.021322 4.06314e-06 0)
(0.0212867 2.64121e-06 0)
(0.0212682 1.40723e-06 0)
(0.0212661 3.25775e-07 0)
(0.0212752 -6.90052e-07 0)
(0.0212918 -1.50004e-06 0)
(0.0213135 -2.04408e-06 0)
(0.0213384 -2.32666e-06 0)
(0.0213647 -2.41368e-06 0)
(0.0213912 -2.37294e-06 0)
(0.021417 -2.24972e-06 0)
(0.0214413 -2.07818e-06 0)
(0.0214639 -1.88202e-06 0)
(0.0214846 -1.67895e-06 0)
(0.0215032 -1.48114e-06 0)
(0.02152 -1.29641e-06 0)
(0.0215349 -1.12899e-06 0)
(0.0215482 -9.80372e-07 0)
(0.02156 -8.50431e-07 0)
(0.0215704 -7.37858e-07 0)
(0.0215795 -6.40847e-07 0)
(0.0215877 -5.57455e-07 0)
(0.0215948 -4.8567e-07 0)
(0.0216011 -4.23733e-07 0)
(0.0216066 -3.70076e-07 0)
(0.0216115 -3.23349e-07 0)
(0.0216157 -2.82474e-07 0)
(0.0216194 -2.46587e-07 0)
(0.0216226 -2.14935e-07 0)
(0.0216254 -1.86986e-07 0)
(0.0216278 -1.62301e-07 0)
(0.0216298 -1.40621e-07 0)
(0.0216316 -1.21801e-07 0)
(0.021633 -1.05814e-07 0)
(0.0216343 -9.28651e-08 0)
(0.0216354 -8.3433e-08 0)
(0.0216363 -7.8644e-08 0)
(0.0216371 -8.11831e-08 0)
(0.021638 -9.92178e-08 0)
(0.021639 -1.65916e-07 0)
(0.0216428 -5.73383e-07 0)
(0.192287 0.00952727 0)
(0.190145 0.00993576 0)
(0.186385 0.00968227 0)
(0.181402 0.00918057 0)
(0.175689 0.00854769 0)
(0.169582 0.00782726 0)
(0.163298 0.00705722 0)
(0.157001 0.00627172 0)
(0.150826 0.00549925 0)
(0.144872 0.00476336 0)
(0.139206 0.00408258 0)
(0.133869 0.00346982 0)
(0.12888 0.00293207 0)
(0.124242 0.00247081 0)
(0.119949 0.00208299 0)
(0.115984 0.0017623 0)
(0.112328 0.00150047 0)
(0.108958 0.00128848 0)
(0.10585 0.00111751 0)
(0.10298 0.00097948 0)
(0.100327 0.000867455 0)
(0.0978701 0.000775704 0)
(0.0955891 0.000699658 0)
(0.0934669 0.000635773 0)
(0.0914882 0.000581349 0)
(0.089639 0.000534362 0)
(0.0879072 0.000493303 0)
(0.0862818 0.000457043 0)
(0.0847534 0.000424738 0)
(0.0833135 0.000395743 0)
(0.0819547 0.000369557 0)
(0.0806704 0.000345784 0)
(0.0794547 0.000324099 0)
(0.0783026 0.000304236 0)
(0.0772095 0.000285968 0)
(0.0761715 0.000269101 0)
(0.0751848 0.000253465 0)
(0.0742465 0.000238913 0)
(0.0733539 0.000225316 0)
(0.0725043 0.000212558 0)
(0.0716959 0.000200537 0)
(0.0709268 0.000189164 0)
(0.0701954 0.000178356 0)
(0.0695004 0.000168043 0)
(0.0688407 0.00015816 0)
(0.0682154 0.000148651 0)
(0.0676238 0.000139464 0)
(0.0670654 0.000130556 0)
(0.0665397 0.000121884 0)
(0.0660465 0.00011341 0)
(0.0655859 0.000105091 0)
(0.0651579 9.68771e-05 0)
(0.0647628 8.87081e-05 0)
(0.0644013 8.05054e-05 0)
(0.064074 7.21727e-05 0)
(0.063782 6.36008e-05 0)
(0.0635264 5.46778e-05 0)
(0.0633085 4.53094e-05 0)
(0.0631294 3.54542e-05 0)
(0.0629897 2.52051e-05 0)
(0.0628894 1.48621e-05 0)
(0.0628273 4.8946e-06 0)
(0.0628022 -3.58457e-06 0)
(0.0628104 -9.39011e-06 0)
(0.0628399 -1.26369e-05 0)
(0.0628834 -1.45174e-05 0)
(0.0629356 -1.54576e-05 0)
(0.0629925 -1.56349e-05 0)
(0.0630511 -1.52341e-05 0)
(0.0631093 -1.44272e-05 0)
(0.0631655 -1.33786e-05 0)
(0.0632187 -1.22123e-05 0)
(0.0632684 -1.10172e-05 0)
(0.0633143 -9.85251e-06 0)
(0.0633563 -8.75517e-06 0)
(0.0633946 -7.7455e-06 0)
(0.0634294 -6.83114e-06 0)
(0.0634608 -6.01201e-06 0)
(0.0634892 -5.28277e-06 0)
(0.0635146 -4.63565e-06 0)
(0.0635375 -4.06211e-06 0)
(0.063558 -3.55363e-06 0)
(0.0635762 -3.10241e-06 0)
(0.0635924 -2.70156e-06 0)
(0.0636068 -2.34512e-06 0)
(0.0636194 -2.02813e-06 0)
(0.0636305 -1.74644e-06 0)
(0.0636401 -1.49651e-06 0)
(0.0636485 -1.27549e-06 0)
(0.0636556 -1.08094e-06 0)
(0.0636617 -9.10949e-07 0)
(0.0636668 -7.64068e-07 0)
(0.0636712 -6.39276e-07 0)
(0.0636748 -5.36351e-07 0)
(0.0636778 -4.56355e-07 0)
(0.0636803 -4.03407e-07 0)
(0.0636825 -3.89591e-07 0)
(0.0636845 -4.51082e-07 0)
(0.0636867 -7.10101e-07 0)
(0.0636922 -1.73946e-06 0)
(0.195219 0.00893456 0)
(0.196167 0.00984422 0)
(0.19646 0.0101719 0)
(0.195979 0.0101851 0)
(0.194842 0.00997036 0)
(0.19316 0.00956518 0)
(0.191019 0.00901505 0)
(0.188504 0.00836922 0)
(0.185704 0.00767237 0)
(0.182706 0.00696245 0)
(0.179584 0.00627011 0)
(0.1764 0.00561808 0)
(0.173205 0.00502102 0)
(0.170037 0.00448628 0)
(0.166924 0.00401527 0)
(0.163886 0.00360509 0)
(0.160935 0.00325021 0)
(0.15808 0.00294383 0)
(0.155323 0.00267891 0)
(0.152666 0.00244888 0)
(0.150107 0.00224793 0)
(0.147645 0.00207117 0)
(0.145276 0.00191459 0)
(0.142999 0.00177494 0)
(0.140809 0.00164963 0)
(0.138704 0.00153658 0)
(0.13668 0.00143412 0)
(0.134734 0.00134089 0)
(0.132864 0.00125577 0)
(0.131066 0.0011778 0)
(0.129338 0.00110618 0)
(0.127676 0.00104021 0)
(0.126078 0.00097929 0)
(0.124542 0.000922865 0)
(0.123065 0.00087046 0)
(0.121646 0.000821642 0)
(0.120282 0.000776024 0)
(0.118971 0.000733257 0)
(0.117712 0.000693025 0)
(0.116503 0.000655042 0)
(0.115343 0.000619048 0)
(0.114232 0.000584808 0)
(0.113166 0.000552107 0)
(0.112147 0.00052075 0)
(0.111174 0.000490558 0)
(0.110245 0.000461368 0)
(0.109362 0.000433033 0)
(0.108523 0.000405414 0)
(0.107729 0.000378384 0)
(0.106981 0.000351816 0)
(0.106278 0.000325586 0)
(0.105621 0.000299557 0)
(0.105012 0.000273585 0)
(0.104451 0.00024751 0)
(0.10394 0.000221173 0)
(0.10348 0.000194433 0)
(0.103072 0.000167205 0)
(0.102718 0.000139513 0)
(0.102416 0.000111541 0)
(0.102169 8.36699e-05 0)
(0.101972 5.64704e-05 0)
(0.101823 3.06589e-05 0)
(0.101715 7.26159e-06 0)
(0.101647 -1.20535e-05 0)
(0.101625 -2.55693e-05 0)
(0.101635 -3.34201e-05 0)
(0.101668 -3.74035e-05 0)
(0.101715 -3.89546e-05 0)
(0.101773 -3.88964e-05 0)
(0.101836 -3.76899e-05 0)
(0.101902 -3.57155e-05 0)
(0.101968 -3.32806e-05 0)
(0.102034 -3.06268e-05 0)
(0.102097 -2.79258e-05 0)
(0.102157 -2.52912e-05 0)
(0.102214 -2.27923e-05 0)
(0.102268 -2.04653e-05 0)
(0.102318 -1.83236e-05 0)
(0.102365 -1.63664e-05 0)
(0.102408 -1.45842e-05 0)
(0.102448 -1.29638e-05 0)
(0.102484 -1.14911e-05 0)
(0.102518 -1.01526e-05 0)
(0.102549 -8.93599e-06 0)
(0.102576 -7.83083e-06 0)
(0.102602 -6.82821e-06 0)
(0.102624 -5.92071e-06 0)
(0.102644 -5.10206e-06 0)
(0.102662 -4.36703e-06 0)
(0.102677 -3.71104e-06 0)
(0.102691 -3.13015e-06 0)
(0.102703 -2.62107e-06 0)
(0.102713 -2.18114e-06 0)
(0.102721 -1.80893e-06 0)
(0.102729 -1.50546e-06 0)
(0.102735 -1.27785e-06 0)
(0.10274 -1.14926e-06 0)
(0.102744 -1.18869e-06 0)
(0.102749 -1.6125e-06 0)
(0.102755 -3.11209e-06 0)
(0.19624 0.00823044 0)
(0.197528 0.00924322 0)
(0.198699 0.0097786 0)
(0.199565 0.0100114 0)
(0.200111 0.0100166 0)
(0.200343 0.00982547 0)
(0.200256 0.00947361 0)
(0.199852 0.00900299 0)
(0.199157 0.00845427 0)
(0.198204 0.00786377 0)
(0.197035 0.00726254 0)
(0.195688 0.00667534 0)
(0.194205 0.00612005 0)
(0.192619 0.00560781 0)
(0.190962 0.005144 0)
(0.189257 0.00472945 0)
(0.187525 0.0043619 0)
(0.185779 0.00403721 0)
(0.184031 0.00375036 0)
(0.182288 0.00349619 0)
(0.180557 0.00326981 0)
(0.17884 0.0030669 0)
(0.177143 0.00288376 0)
(0.175466 0.00271732 0)
(0.173811 0.00256509 0)
(0.172181 0.00242505 0)
(0.170575 0.00229559 0)
(0.168996 0.00217541 0)
(0.167444 0.00206343 0)
(0.16592 0.00195879 0)
(0.164425 0.00186073 0)
(0.16296 0.00176861 0)
(0.161524 0.00168189 0)
(0.16012 0.00160005 0)
(0.158746 0.00152266 0)
(0.157404 0.00144929 0)
(0.156094 0.00137957 0)
(0.154816 0.00131314 0)
(0.153571 0.00124969 0)
(0.15236 0.00118889 0)
(0.151183 0.00113047 0)
(0.15004 0.00107416 0)
(0.148932 0.00101969 0)
(0.14786 0.000966832 0)
(0.146824 0.000915354 0)
(0.145826 0.000865042 0)
(0.144867 0.000815694 0)
(0.143946 0.000767116 0)
(0.143067 0.000719119 0)
(0.142229 0.00067152 0)
(0.141435 0.000624131 0)
(0.140686 0.000576759 0)
(0.139983 0.000529208 0)
(0.139329 0.000481286 0)
(0.138726 0.000432827 0)
(0.138174 0.000383733 0)
(0.137676 0.000334029 0)
(0.137233 0.000283936 0)
(0.136844 0.000233953 0)
(0.13651 0.00018492 0)
(0.136227 0.000138045 0)
(0.135994 9.4781e-05 0)
(0.135805 5.61056e-05 0)
(0.135653 2.22337e-05 0)
(0.135531 -6.28324e-06 0)
(0.135451 -2.81817e-05 0)
(0.135409 -4.30341e-05 0)
(0.135396 -5.19007e-05 0)
(0.135406 -5.65082e-05 0)
(0.135432 -5.81769e-05 0)
(0.135471 -5.78302e-05 0)
(0.135518 -5.61045e-05 0)
(0.135572 -5.34894e-05 0)
(0.135629 -5.03539e-05 0)
(0.135688 -4.69644e-05 0)
(0.135749 -4.35036e-05 0)
(0.135809 -4.00897e-05 0)
(0.135868 -3.67929e-05 0)
(0.135926 -3.36505e-05 0)
(0.135982 -3.06779e-05 0)
(0.136036 -2.78777e-05 0)
(0.136087 -2.5246e-05 0)
(0.136136 -2.2776e-05 0)
(0.136182 -2.04604e-05 0)
(0.136226 -1.8293e-05 0)
(0.136266 -1.62687e-05 0)
(0.136304 -1.4384e-05 0)
(0.136338 -1.26365e-05 0)
(0.13637 -1.10248e-05 0)
(0.136398 -9.54769e-06 0)
(0.136424 -8.20461e-06 0)
(0.136447 -6.99498e-06 0)
(0.136467 -5.91849e-06 0)
(0.136485 -4.97571e-06 0)
(0.136501 -4.16982e-06 0)
(0.136514 -3.5114e-06 0)
(0.136525 -3.03152e-06 0)
(0.136535 -2.81923e-06 0)
(0.136544 -3.145e-06 0)
(0.136554 -4.83633e-06 0)
(0.196968 0.00764093 0)
(0.198106 0.00859158 0)
(0.199301 0.00915894 0)
(0.200402 0.00945827 0)
(0.201374 0.00955667 0)
(0.202201 0.0094822 0)
(0.202857 0.00926077 0)
(0.203321 0.008924 0)
(0.203585 0.00850447 0)
(0.203652 0.00803272 0)
(0.203536 0.00753598 0)
(0.203256 0.0070372 0)
(0.202834 0.00655411 0)
(0.202292 0.00609898 0)
(0.201653 0.00567898 0)
(0.200935 0.00529712 0)
(0.200155 0.00495325 0)
(0.199327 0.00464514 0)
(0.19846 0.00436938 0)
(0.197562 0.00412207 0)
(0.196641 0.00389931 0)
(0.1957 0.00369749 0)
(0.194743 0.00351347 0)
(0.193774 0.00334454 0)
(0.192793 0.0031885 0)
(0.191805 0.00304355 0)
(0.190809 0.0029082 0)
(0.189809 0.00278128 0)
(0.188806 0.00266181 0)
(0.1878 0.00254899 0)
(0.186795 0.00244212 0)
(0.185791 0.00234061 0)
(0.184789 0.00224396 0)
(0.183791 0.0021517 0)
(0.182799 0.00206341 0)
(0.181814 0.0019787 0)
(0.180837 0.00189722 0)
(0.179869 0.00181862 0)
(0.178912 0.0017426 0)
(0.177967 0.00166885 0)
(0.177036 0.00159709 0)
(0.17612 0.00152704 0)
(0.17522 0.00145843 0)
(0.174338 0.00139103 0)
(0.173475 0.00132459 0)
(0.172633 0.00125888 0)
(0.171814 0.00119366 0)
(0.17102 0.00112873 0)
(0.170252 0.00106387 0)
(0.169513 0.00099887 0)
(0.168804 0.00093351 0)
(0.168127 0.000867581 0)
(0.167485 0.00080088 0)
(0.16688 0.000733232 0)
(0.166314 0.000664525 0)
(0.165789 0.000594763 0)
(0.165306 0.000524137 0)
(0.164868 0.00045311 0)
(0.164473 0.000382489 0)
(0.164121 0.000313472 0)
(0.163813 0.000247619 0)
(0.163545 0.000186713 0)
(0.163315 0.000132387 0)
(0.16312 8.55051e-05 0)
(0.162956 4.54566e-05 0)
(0.162814 1.164e-05 0)
(0.162697 -1.57018e-05 0)
(0.162612 -3.63107e-05 0)
(0.162554 -5.05356e-05 0)
(0.162519 -5.96228e-05 0)
(0.162504 -6.49192e-05 0)
(0.162505 -6.74397e-05 0)
(0.162519 -6.79545e-05 0)
(0.162543 -6.70504e-05 0)
(0.162576 -6.51753e-05 0)
(0.162615 -6.2663e-05 0)
(0.162659 -5.97534e-05 0)
(0.162707 -5.66131e-05 0)
(0.162758 -5.3354e-05 0)
(0.162811 -5.00488e-05 0)
(0.162865 -4.67441e-05 0)
(0.162919 -4.34695e-05 0)
(0.162973 -4.02445e-05 0)
(0.163027 -3.70831e-05 0)
(0.163079 -3.39971e-05 0)
(0.16313 -3.09978e-05 0)
(0.163179 -2.80964e-05 0)
(0.163225 -2.5305e-05 0)
(0.16327 -2.26364e-05 0)
(0.163311 -2.01033e-05 0)
(0.16335 -1.77184e-05 0)
(0.163385 -1.54943e-05 0)
(0.163418 -1.34427e-05 0)
(0.163448 -1.15758e-05 0)
(0.163474 -9.90706e-06 0)
(0.163498 -8.4566e-06 0)
(0.163519 -7.26449e-06 0)
(0.163537 -6.42807e-06 0)
(0.163552 -6.2255e-06 0)
(0.163569 -7.52547e-06 0)
(0.197594 0.00711629 0)
(0.198551 0.0079683 0)
(0.199613 0.00852345 0)
(0.200662 0.00884677 0)
(0.20166 0.00899051 0)
(0.202588 0.0089803 0)
(0.203424 0.0088373 0)
(0.204145 0.00858695 0)
(0.204737 0.00825649 0)
(0.205196 0.00787199 0)
(0.205524 0.00745711 0)
(0.205729 0.00703221 0)
(0.205822 0.0066136 0)
(0.205817 0.00621317 0)
(0.205729 0.00583854 0)
(0.20557 0.00549366 0)
(0.205352 0.00517963 0)
(0.205087 0.00489551 0)
(0.204781 0.00463909 0)
(0.204442 0.0044075 0)
(0.204074 0.0041977 0)
(0.203681 0.00400673 0)
(0.203266 0.00383189 0)
(0.20283 0.00367083 0)
(0.202376 0.00352156 0)
(0.201905 0.00338243 0)
(0.201418 0.00325205 0)
(0.200916 0.0031293 0)
(0.200401 0.00301324 0)
(0.199872 0.00290308 0)
(0.199332 0.00279817 0)
(0.198782 0.00269792 0)
(0.198222 0.00260184 0)
(0.197654 0.00250947 0)
(0.197078 0.0024204 0)
(0.196496 0.00233427 0)
(0.195908 0.00225072 0)
(0.195317 0.00216942 0)
(0.194723 0.00209005 0)
(0.194128 0.00201232 0)
(0.193532 0.00193594 0)
(0.192937 0.00186064 0)
(0.192345 0.00178613 0)
(0.191756 0.00171216 0)
(0.191173 0.00163848 0)
(0.190597 0.00156484 0)
(0.190029 0.001491 0)
(0.189472 0.00141672 0)
(0.188926 0.00134177 0)
(0.188395 0.00126592 0)
(0.187879 0.00118895 0)
(0.187381 0.00111065 0)
(0.186903 0.00103082 0)
(0.186447 0.000949347 0)
(0.186014 0.000866178 0)
(0.185606 0.000781442 0)
(0.185226 0.000695498 0)
(0.184872 0.000609016 0)
(0.184547 0.000523048 0)
(0.18425 0.000439037 0)
(0.183981 0.00035875 0)
(0.183739 0.000284097 0)
(0.183523 0.000216781 0)
(0.183332 0.000157867 0)
(0.183166 0.00010763 0)
(0.183021 6.55054e-05 0)
(0.182894 3.02517e-05 0)
(0.182781 1.14009e-06 0)
(0.182686 -2.19553e-05 0)
(0.182611 -3.93661e-05 0)
(0.182554 -5.18994e-05 0)
(0.182513 -6.05639e-05 0)
(0.182486 -6.62588e-05 0)
(0.182472 -6.96854e-05 0)
(0.182469 -7.13946e-05 0)
(0.182476 -7.18169e-05 0)
(0.182491 -7.12806e-05 0)
(0.182513 -7.00301e-05 0)
(0.182541 -6.82436e-05 0)
(0.182574 -6.60496e-05 0)
(0.182612 -6.35404e-05 0)
(0.182653 -6.07833e-05 0)
(0.182697 -5.78289e-05 0)
(0.182743 -5.47174e-05 0)
(0.18279 -5.14832e-05 0)
(0.182838 -4.81577e-05 0)
(0.182887 -4.47715e-05 0)
(0.182935 -4.13553e-05 0)
(0.182983 -3.79405e-05 0)
(0.183029 -3.45594e-05 0)
(0.183074 -3.12449e-05 0)
(0.183117 -2.80299e-05 0)
(0.183157 -2.49474e-05 0)
(0.183195 -2.20304e-05 0)
(0.18323 -1.93126e-05 0)
(0.183263 -1.68329e-05 0)
(0.183292 -1.46452e-05 0)
(0.183318 -1.2847e-05 0)
(0.183341 -1.16695e-05 0)
(0.183364 -1.17669e-05 0)
(0.198146 0.00665733 0)
(0.198959 0.00741007 0)
(0.199881 0.00793614 0)
(0.200827 0.00826443 0)
(0.201756 0.00843114 0)
(0.202645 0.00845888 0)
(0.203475 0.00836619 0)
(0.204229 0.00817448 0)
(0.204893 0.007907 0)
(0.205463 0.00758635 0)
(0.205936 0.00723322 0)
(0.206318 0.00686561 0)
(0.206615 0.00649829 0)
(0.206837 0.0061424 0)
(0.206993 0.00580554 0)
(0.207094 0.00549214 0)
(0.20715 0.00520408 0)
(0.207167 0.00494136 0)
(0.207152 0.00470268 0)
(0.207111 0.00448601 0)
(0.207048 0.00428898 0)
(0.206965 0.00410917 0)
(0.206864 0.00394429 0)
(0.206747 0.00379228 0)
(0.206615 0.00365135 0)
(0.206469 0.00351994 0)
(0.206309 0.00339677 0)
(0.206136 0.00328076 0)
(0.20595 0.00317098 0)
(0.205752 0.00306666 0)
(0.205542 0.00296715 0)
(0.20532 0.00287186 0)
(0.205088 0.00278029 0)
(0.204845 0.00269199 0)
(0.204592 0.00260653 0)
(0.20433 0.00252353 0)
(0.204059 0.00244264 0)
(0.20378 0.00236352 0)
(0.203493 0.00228583 0)
(0.2032 0.00220927 0)
(0.2029 0.00213353 0)
(0.202596 0.00205833 0)
(0.202287 0.00198337 0)
(0.201975 0.00190837 0)
(0.201661 0.00183308 0)
(0.201346 0.00175721 0)
(0.20103 0.00168051 0)
(0.200716 0.00160273 0)
(0.200404 0.00152361 0)
(0.200095 0.00144292 0)
(0.199792 0.00136043 0)
(0.199495 0.00127593 0)
(0.199206 0.00118925 0)
(0.198925 0.00110033 0)
(0.198655 0.00100918 0)
(0.198396 0.000916031 0)
(0.19815 0.000821371 0)
(0.197916 0.000726012 0)
(0.197695 0.000631145 0)
(0.197488 0.00053833 0)
(0.197295 0.000449402 0)
(0.197115 0.000366271 0)
(0.196948 0.000290611 0)
(0.196797 0.000223539 0)
(0.196659 0.000165482 0)
(0.196536 0.000116206 0)
(0.196427 7.50747e-05 0)
(0.196329 4.0985e-05 0)
(0.196241 1.27643e-05 0)
(0.196162 -1.02238e-05 0)
(0.196095 -2.83264e-05 0)
(0.19604 -4.22302e-05 0)
(0.195995 -5.27067e-05 0)
(0.19596 -6.04514e-05 0)
(0.195934 -6.60309e-05 0)
(0.195917 -6.98984e-05 0)
(0.195908 -7.24104e-05 0)
(0.195906 -7.3841e-05 0)
(0.195911 -7.43968e-05 0)
(0.195922 -7.42322e-05 0)
(0.195938 -7.34618e-05 0)
(0.195959 -7.21721e-05 0)
(0.195984 -7.04293e-05 0)
(0.196013 -6.82869e-05 0)
(0.196045 -6.57906e-05 0)
(0.19608 -6.29821e-05 0)
(0.196117 -5.9902e-05 0)
(0.196155 -5.65912e-05 0)
(0.196195 -5.30929e-05 0)
(0.196235 -4.94523e-05 0)
(0.196275 -4.57175e-05 0)
(0.196315 -4.19386e-05 0)
(0.196354 -3.8168e-05 0)
(0.196392 -3.44596e-05 0)
(0.196428 -3.08694e-05 0)
(0.196461 -2.74574e-05 0)
(0.196493 -2.42926e-05 0)
(0.196522 -2.1466e-05 0)
(0.196548 -1.91171e-05 0)
(0.196575 -1.74318e-05 0)
(0.198635 0.00624988 0)
(0.199337 0.00690963 0)
(0.20014 0.00739667 0)
(0.200983 0.00771823 0)
(0.201828 0.00789668 0)
(0.202649 0.00795037 0)
(0.203429 0.00789527 0)
(0.204152 0.00774922 0)
(0.204806 0.00753185 0)
(0.205387 0.00726264 0)
(0.205892 0.0069597 0)
(0.206324 0.006639 0)
(0.206688 0.00631391 0)
(0.206991 0.00599483 0)
(0.207241 0.00568922 0)
(0.207447 0.00540181 0)
(0.207616 0.00513506 0)
(0.207755 0.0048897 0)
(0.207869 0.00466519 0)
(0.207964 0.0044602 0)
(0.208042 0.00427298 0)
(0.208106 0.00410161 0)
(0.208159 0.00394419 0)
(0.208201 0.00379894 0)
(0.208233 0.00366428 0)
(0.208256 0.00353879 0)
(0.20827 0.00342128 0)
(0.208276 0.00331072 0)
(0.208273 0.00320621 0)
(0.208262 0.003107 0)
(0.208243 0.00301242 0)
(0.208216 0.0029219 0)
(0.208181 0.00283492 0)
(0.208138 0.00275101 0)
(0.208087 0.00266975 0)
(0.208029 0.00259073 0)
(0.207964 0.00251358 0)
(0.207891 0.00243795 0)
(0.207812 0.00236349 0)
(0.207726 0.00228988 0)
(0.207633 0.00221679 0)
(0.207535 0.00214393 0)
(0.207431 0.00207097 0)
(0.207321 0.00199764 0)
(0.207207 0.00192363 0)
(0.207089 0.00184867 0)
(0.206968 0.00177247 0)
(0.206843 0.00169476 0)
(0.206715 0.00161529 0)
(0.206586 0.00153381 0)
(0.206456 0.00145008 0)
(0.206326 0.00136392 0)
(0.206195 0.00127519 0)
(0.206066 0.00118383 0)
(0.205937 0.00108995 0)
(0.20581 0.000993827 0)
(0.205686 0.000896028 0)
(0.205563 0.00079743 0)
(0.205443 0.000699266 0)
(0.205325 0.0006031 0)
(0.20521 0.000510723 0)
(0.205098 0.000423963 0)
(0.20499 0.000344411 0)
(0.204888 0.000273169 0)
(0.204791 0.000210728 0)
(0.204702 0.000157019 0)
(0.20462 0.000111587 0)
(0.204546 7.36667e-05 0)
(0.204479 4.22526e-05 0)
(0.204418 1.62463e-05 0)
(0.204362 -5.09596e-06 0)
(0.204312 -2.23462e-05 0)
(0.204269 -3.60839e-05 0)
(0.204232 -4.69308e-05 0)
(0.204202 -5.54311e-05 0)
(0.204177 -6.20297e-05 0)
(0.204158 -6.70819e-05 0)
(0.204144 -7.08654e-05 0)
(0.204135 -7.35922e-05 0)
(0.204131 -7.54224e-05 0)
(0.204132 -7.64753e-05 0)
(0.204137 -7.68404e-05 0)
(0.204145 -7.65856e-05 0)
(0.204158 -7.57642e-05 0)
(0.204173 -7.44208e-05 0)
(0.204192 -7.2595e-05 0)
(0.204213 -7.03252e-05 0)
(0.204237 -6.76512e-05 0)
(0.204263 -6.46152e-05 0)
(0.20429 -6.12641e-05 0)
(0.204318 -5.76495e-05 0)
(0.204348 -5.38278e-05 0)
(0.204377 -4.98607e-05 0)
(0.204406 -4.5814e-05 0)
(0.204435 -4.17582e-05 0)
(0.204463 -3.77674e-05 0)
(0.20449 -3.39197e-05 0)
(0.204516 -3.0292e-05 0)
(0.204539 -2.69176e-05 0)
(0.204563 -2.34711e-05 0)
(0.199071 0.00588019 0)
(0.199686 0.0064562 0)
(0.20039 0.00690016 0)
(0.201141 0.00720797 0)
(0.201905 0.00739139 0)
(0.202657 0.00746392 0)
(0.203379 0.00743868 0)
(0.204058 0.00733032 0)
(0.204682 0.00715519 0)
(0.205245 0.00692991 0)
(0.205746 0.00667022 0)
(0.206185 0.00639028 0)
(0.206566 0.00610213 0)
(0.206896 0.00581544 0)
(0.20718 0.00553741 0)
(0.207425 0.00527294 0)
(0.207639 0.0050249 0)
(0.207827 0.00479459 0)
(0.207993 0.00458212 0)
(0.208144 0.00438677 0)
(0.208281 0.00420736 0)
(0.208407 0.00404242 0)
(0.208525 0.00389045 0)
(0.208635 0.00374997 0)
(0.20874 0.00361958 0)
(0.208838 0.00349806 0)
(0.208932 0.00338429 0)
(0.209021 0.00327733 0)
(0.209104 0.00317634 0)
(0.209183 0.00308057 0)
(0.209258 0.00298939 0)
(0.209328 0.00290221 0)
(0.209393 0.00281854 0)
(0.209454 0.00273789 0)
(0.209509 0.00265983 0)
(0.209561 0.00258396 0)
(0.209607 0.0025099 0)
(0.209649 0.00243727 0)
(0.209686 0.00236574 0)
(0.209718 0.00229496 0)
(0.209746 0.00222461 0)
(0.209769 0.00215436 0)
(0.209787 0.00208389 0)
(0.209801 0.00201291 0)
(0.209811 0.0019411 0)
(0.209816 0.00186817 0)
(0.209817 0.00179384 0)
(0.209814 0.00171783 0)
(0.209807 0.00163987 0)
(0.209796 0.00155971 0)
(0.209781 0.00147714 0)
(0.209763 0.00139197 0)
(0.209742 0.00130409 0)
(0.209717 0.00121348 0)
(0.209688 0.00112029 0)
(0.209655 0.00102482 0)
(0.209619 0.000927681 0)
(0.209578 0.000829743 0)
(0.209534 0.000732213 0)
(0.209485 0.000636578 0)
(0.209432 0.000544514 0)
(0.209376 0.000457707 0)
(0.209318 0.000377631 0)
(0.209259 0.000305339 0)
(0.2092 0.000241355 0)
(0.209143 0.000185713 0)
(0.209088 0.000138077 0)
(0.209037 9.7842e-05 0)
(0.20899 6.42094e-05 0)
(0.208947 3.62905e-05 0)
(0.208907 1.31217e-05 0)
(0.20887 -6.01032e-06 0)
(0.208837 -2.16759e-05 0)
(0.208807 -3.44242e-05 0)
(0.208781 -4.47678e-05 0)
(0.208758 -5.3138e-05 0)
(0.208739 -5.98839e-05 0)
(0.208723 -6.52814e-05 0)
(0.20871 -6.95435e-05 0)
(0.2087 -7.28316e-05 0)
(0.208694 -7.52662e-05 0)
(0.20869 -7.69366e-05 0)
(0.208689 -7.79088e-05 0)
(0.20869 -7.8233e-05 0)
(0.208694 -7.79486e-05 0)
(0.2087 -7.70893e-05 0)
(0.208709 -7.56867e-05 0)
(0.20872 -7.37732e-05 0)
(0.208732 -7.13844e-05 0)
(0.208746 -6.85611e-05 0)
(0.208762 -6.53503e-05 0)
(0.208779 -6.1806e-05 0)
(0.208796 -5.79894e-05 0)
(0.208815 -5.39686e-05 0)
(0.208833 -4.98182e-05 0)
(0.208852 -4.5617e-05 0)
(0.20887 -4.14436e-05 0)
(0.208887 -3.73562e-05 0)
(0.208904 -3.33047e-05 0)
(0.208922 -2.86542e-05 0)
(0.19946 0.00553898 0)
(0.200006 0.00604151 0)
(0.200629 0.00644218 0)
(0.201299 0.00673188 0)
(0.201989 0.00691506 0)
(0.202677 0.00700069 0)
(0.203344 0.00699905 0)
(0.203977 0.00692202 0)
(0.204566 0.00678302 0)
(0.205105 0.00659606 0)
(0.205591 0.00637472 0)
(0.206024 0.00613138 0)
(0.206408 0.00587685 0)
(0.206745 0.00561999 0)
(0.207042 0.00536766 0)
(0.207304 0.00512475 0)
(0.207537 0.00489443 0)
(0.207746 0.00467844 0)
(0.207935 0.00447739 0)
(0.208109 0.00429111 0)
(0.208271 0.00411888 0)
(0.208423 0.0039597 0)
(0.208568 0.0038124 0)
(0.208707 0.00367579 0)
(0.20884 0.00354872 0)
(0.20897 0.00343011 0)
(0.209096 0.00331899 0)
(0.209218 0.00321448 0)
(0.209338 0.00311581 0)
(0.209455 0.0030223 0)
(0.20957 0.00293331 0)
(0.209681 0.00284831 0)
(0.209791 0.00276679 0)
(0.209897 0.00268829 0)
(0.210001 0.00261238 0)
(0.210102 0.00253865 0)
(0.210201 0.00246674 0)
(0.210296 0.00239627 0)
(0.210389 0.0023269 0)
(0.210479 0.00225828 0)
(0.210566 0.00219009 0)
(0.21065 0.002122 0)
(0.210731 0.0020537 0)
(0.210808 0.00198488 0)
(0.210882 0.00191522 0)
(0.210952 0.00184445 0)
(0.211019 0.00177226 0)
(0.211082 0.00169839 0)
(0.211141 0.00162258 0)
(0.211196 0.00154458 0)
(0.211247 0.00146419 0)
(0.211293 0.00138125 0)
(0.211334 0.00129566 0)
(0.21137 0.00120745 0)
(0.2114 0.00111677 0)
(0.211424 0.00102396 0)
(0.211442 0.000929607 0)
(0.211452 0.000834559 0)
(0.211455 0.000739944 0)
(0.211451 0.000647132 0)
(0.211439 0.000557644 0)
(0.211421 0.000473 0)
(0.211397 0.000394536 0)
(0.211369 0.000323231 0)
(0.211338 0.00025962 0)
(0.211305 0.000203807 0)
(0.211272 0.000155555 0)
(0.21124 0.000114375 0)
(0.211209 7.96043e-05 0)
(0.211179 5.04907e-05 0)
(0.211152 2.62155e-05 0)
(0.211126 6.01391e-06 0)
(0.211103 -1.07506e-05 0)
(0.211081 -2.46084e-05 0)
(0.211061 -3.60428e-05 0)
(0.211043 -4.54715e-05 0)
(0.211027 -5.32375e-05 0)
(0.211013 -5.96151e-05 0)
(0.211001 -6.48187e-05 0)
(0.210991 -6.90127e-05 0)
(0.210982 -7.23202e-05 0)
(0.210975 -7.48325e-05 0)
(0.210969 -7.66165e-05 0)
(0.210965 -7.77213e-05 0)
(0.210963 -7.81841e-05 0)
(0.210962 -7.80345e-05 0)
(0.210963 -7.72988e-05 0)
(0.210965 -7.60033e-05 0)
(0.210969 -7.4177e-05 0)
(0.210973 -7.18538e-05 0)
(0.210979 -6.90744e-05 0)
(0.210986 -6.5887e-05 0)
(0.210994 -6.23485e-05 0)
(0.211002 -5.85239e-05 0)
(0.211011 -5.44856e-05 0)
(0.211021 -5.03106e-05 0)
(0.21103 -4.60721e-05 0)
(0.21104 -4.18131e-05 0)
(0.211049 -3.74461e-05 0)
(0.21106 -3.23233e-05 0)
(0.199808 0.00521986 0)
(0.200299 0.00565864 0)
(0.200854 0.00601787 0)
(0.201455 0.00628698 0)
(0.202079 0.00646587 0)
(0.202707 0.00655982 0)
(0.203322 0.0065765 0)
(0.203911 0.00652532 0)
(0.204466 0.00641718 0)
(0.204979 0.00626375 0)
(0.205448 0.00607655 0)
(0.205871 0.00586636 0)
(0.206251 0.00564273 0)
(0.206591 0.00541374 0)
(0.206893 0.00518578 0)
(0.207164 0.00496367 0)
(0.207407 0.00475071 0)
(0.207627 0.00454895 0)
(0.207829 0.00435941 0)
(0.208016 0.00418234 0)
(0.20819 0.00401746 0)
(0.208355 0.00386415 0)
(0.208513 0.00372156 0)
(0.208664 0.00358879 0)
(0.208811 0.0034649 0)
(0.208954 0.00334898 0)
(0.209093 0.0032402 0)
(0.20923 0.00313777 0)
(0.209364 0.003041 0)
(0.209496 0.00294925 0)
(0.209626 0.00286194 0)
(0.209754 0.00277855 0)
(0.209881 0.00269861 0)
(0.210006 0.00262165 0)
(0.210129 0.00254729 0)
(0.21025 0.00247511 0)
(0.21037 0.00240475 0)
(0.210488 0.00233586 0)
(0.210604 0.00226809 0)
(0.210718 0.00220111 0)
(0.21083 0.00213459 0)
(0.21094 0.00206822 0)
(0.211048 0.00200169 0)
(0.211153 0.00193469 0)
(0.211256 0.00186693 0)
(0.211356 0.00179812 0)
(0.211453 0.00172799 0)
(0.211546 0.00165626 0)
(0.211636 0.0015827 0)
(0.211722 0.00150707 0)
(0.211804 0.00142919 0)
(0.211881 0.00134893 0)
(0.211953 0.00126622 0)
(0.212019 0.0011811 0)
(0.212079 0.00109374 0)
(0.212132 0.00100449 0)
(0.212178 0.000913905 0)
(0.212215 0.000822787 0)
(0.212244 0.000732169 0)
(0.212265 0.000643287 0)
(0.212277 0.000557498 0)
(0.212281 0.000476151 0)
(0.212278 0.00040044 0)
(0.212269 0.000331261 0)
(0.212256 0.000269137 0)
(0.21224 0.000214219 0)
(0.212221 0.000166353 0)
(0.212201 0.000125147 0)
(0.212181 9.00446e-05 0)
(0.212162 6.03985e-05 0)
(0.212143 3.55077e-05 0)
(0.212125 1.46784e-05 0)
(0.212108 -2.72258e-06 0)
(0.212092 -1.72329e-05 0)
(0.212078 -2.93155e-05 0)
(0.212064 -3.93731e-05 0)
(0.212052 -4.77415e-05 0)
(0.212041 -5.46929e-05 0)
(0.21203 -6.04432e-05 0)
(0.212021 -6.51598e-05 0)
(0.212012 -6.89701e-05 0)
(0.212005 -7.19691e-05 0)
(0.211998 -7.42269e-05 0)
(0.211992 -7.57947e-05 0)
(0.211987 -7.67101e-05 0)
(0.211983 -7.70022e-05 0)
(0.211979 -7.66954e-05 0)
(0.211977 -7.58131e-05 0)
(0.211975 -7.43803e-05 0)
(0.211974 -7.24266e-05 0)
(0.211974 -6.99878e-05 0)
(0.211975 -6.71078e-05 0)
(0.211976 -6.38385e-05 0)
(0.211978 -6.0241e-05 0)
(0.211981 -5.63837e-05 0)
(0.211984 -5.2339e-05 0)
(0.211987 -4.81743e-05 0)
(0.211991 -4.39253e-05 0)
(0.211995 -3.95135e-05 0)
(0.212 -3.44862e-05 0)
(0.20012 0.00491822 0)
(0.200566 0.0053019 0)
(0.201065 0.00562263 0)
(0.201606 0.00587013 0)
(0.202172 0.00604182 0)
(0.202746 0.0061402 0)
(0.203313 0.00617069 0)
(0.203861 0.00614056 0)
(0.204382 0.00605854 0)
(0.204869 0.00593421 0)
(0.20532 0.00577726 0)
(0.205732 0.00559695 0)
(0.206106 0.00540168 0)
(0.206444 0.00519866 0)
(0.206749 0.00499385 0)
(0.207024 0.00479184 0)
(0.207275 0.00459597 0)
(0.207503 0.00440848 0)
(0.207714 0.0042307 0)
(0.207909 0.00406323 0)
(0.208093 0.00390614 0)
(0.208266 0.00375912 0)
(0.208432 0.00362165 0)
(0.208591 0.00349307 0)
(0.208745 0.00337263 0)
(0.208895 0.00325962 0)
(0.209041 0.00315332 0)
(0.209185 0.00305306 0)
(0.209326 0.00295822 0)
(0.209465 0.00286821 0)
(0.209601 0.00278252 0)
(0.209737 0.00270064 0)
(0.20987 0.00262213 0)
(0.210002 0.00254658 0)
(0.210133 0.00247357 0)
(0.210262 0.00240273 0)
(0.21039 0.00233372 0)
(0.210516 0.00226618 0)
(0.210641 0.00219979 0)
(0.210764 0.00213421 0)
(0.210885 0.00206914 0)
(0.211005 0.00200428 0)
(0.211123 0.00193932 0)
(0.211239 0.00187397 0)
(0.211353 0.00180794 0)
(0.211464 0.00174097 0)
(0.211572 0.00167279 0)
(0.211678 0.00160315 0)
(0.21178 0.00153182 0)
(0.211878 0.00145861 0)
(0.211973 0.00138334 0)
(0.212062 0.00130591 0)
(0.212147 0.00122627 0)
(0.212226 0.00114448 0)
(0.212299 0.00106073 0)
(0.212364 0.00097536 0)
(0.212423 0.000888902 0)
(0.212473 0.000802091 0)
(0.212514 0.000715864 0)
(0.212547 0.000631324 0)
(0.212571 0.00054967 0)
(0.212588 0.00047209 0)
(0.212596 0.000399642 0)
(0.212599 0.000333136 0)
(0.212596 0.000273071 0)
(0.212589 0.00021963 0)
(0.21258 0.000172722 0)
(0.212568 0.000132037 0)
(0.212555 9.71127e-05 0)
(0.212542 6.73887e-05 0)
(0.212529 4.22553e-05 0)
(0.212516 2.10983e-05 0)
(0.212504 3.33081e-06 0)
(0.212492 -1.15679e-05 0)
(0.212481 -2.40453e-05 0)
(0.21247 -3.44878e-05 0)