/*--------------------------------*- C++ -*----------------------------------*\
| =========                 |                                                 |
| \\      /  F ield         | OpenFOAM: The Open Source CFD Toolbox           |
|  \\    /   O peration     | Version:  2.3.0                                 |
|   \\  /    A nd           | Web:      www.OpenFOAM.org                      |
|    \\/     M anipulation  |                                                 |
\*---------------------------------------------------------------------------*/
FoamFile
{
    version     2.0;
    format      ascii;
    class       surfaceScalarField;
    location    "0.8";
    object      phi;
}
// * * * * * * * * * * * * * * * * * * * * * * * * * * * * * * * * * * * * * //

dimensions      [0 3 -1 0 0 0 0];

internalField   nonuniform List<scalar> 
17305
(
2.83719e-08
2.87928e-09
-3.12512e-08
2.55081e-08
2.86378e-09
2.28206e-08
2.68754e-09
2.03431e-08
2.47748e-09
1.80917e-08
2.25136e-09
1.60771e-08
2.01462e-09
1.43017e-08
1.77545e-09
1.27601e-08
1.5416e-09
1.14404e-08
1.31963e-09
1.03256e-08
1.11488e-09
9.39429e-09
9.31275e-10
8.62318e-09
7.71108e-10
7.98817e-09
6.35014e-10
7.466e-09
5.22167e-10
7.03538e-09
4.30623e-10
6.67765e-09
3.57725e-10
6.37715e-09
3.00506e-10
6.12113e-09
2.56013e-10
5.89959e-09
2.2154e-10
5.70483e-09
1.94757e-10
5.53108e-09
1.73756e-10
5.37404e-09
1.57038e-10
5.23057e-09
1.43469e-10
5.09836e-09
1.32212e-10
4.97569e-09
1.22668e-10
4.86128e-09
1.14413e-10
4.75412e-09
1.07154e-10
4.65344e-09
1.00685e-10
4.55858e-09
9.48618e-11
4.469e-09
8.95826e-11
4.38422e-09
8.47712e-11
4.30386e-09
8.03691e-11
4.22753e-09
7.63298e-11
4.15491e-09
7.26143e-11
4.08572e-09
6.91893e-11
4.0197e-09
6.60259e-11
3.9566e-09
6.30984e-11
3.89621e-09
6.0384e-11
3.83835e-09
5.78622e-11
3.78284e-09
5.55149e-11
3.72951e-09
5.3326e-11
3.67823e-09
5.12809e-11
3.62886e-09
4.93668e-11
3.58129e-09
4.75721e-11
3.5354e-09
4.58866e-11
3.4911e-09
4.43012e-11
3.4483e-09
4.28075e-11
3.4069e-09
4.13983e-11
3.36683e-09
4.0067e-11
3.32802e-09
3.88076e-11
3.29041e-09
3.76147e-11
3.25392e-09
3.64836e-11
3.21851e-09
3.54097e-11
3.18413e-09
3.43892e-11
3.15071e-09
3.34183e-11
3.11821e-09
3.24938e-11
3.0866e-09
3.16125e-11
3.05583e-09
3.07718e-11
3.02586e-09
2.99691e-11
2.99666e-09
2.9202e-11
2.96819e-09
2.84684e-11
2.94042e-09
2.77662e-11
2.91333e-09
2.70937e-11
2.88688e-09
2.64492e-11
2.86105e-09
2.58311e-11
2.83581e-09
2.52379e-11
2.81114e-09
2.46683e-11
2.78702e-09
2.41211e-11
2.76343e-09
2.35951e-11
2.74034e-09
2.30892e-11
2.71774e-09
2.26024e-11
2.6956e-09
2.21339e-11
2.67392e-09
2.16828e-11
2.65267e-09
2.12482e-11
2.63184e-09
2.08295e-11
2.61141e-09
2.04261e-11
2.59138e-09
2.00372e-11
2.57172e-09
1.96623e-11
2.55241e-09
1.9301e-11
2.53346e-09
1.89527e-11
2.51484e-09
1.86171e-11
2.49655e-09
1.82938e-11
2.47857e-09
1.79826e-11
2.46089e-09
1.76831e-11
2.44349e-09
1.73952e-11
2.42637e-09
1.71187e-11
2.40952e-09
1.68537e-11
2.39292e-09
1.66002e-11
2.37656e-09
1.63583e-11
2.36043e-09
1.61285e-11
2.34452e-09
1.59112e-11
2.32881e-09
1.57076e-11
2.31329e-09
1.55198e-11
2.29794e-09
1.53517e-11
2.28273e-09
1.52121e-11
2.26761e-09
1.51224e-11
2.25246e-09
1.51449e-11
2.23703e-09
1.54332e-11
2.22101e-09
1.60192e-11
4.8069e-11
3.34103e-08
3.15068e-09
-3.36817e-08
3.28252e-08
3.44886e-09
3.20082e-08
3.50458e-09
3.10359e-08
3.44971e-09
2.99639e-08
3.32337e-09
2.88377e-08
3.14089e-09
2.7694e-08
2.91909e-09
2.65613e-08
2.67432e-09
2.54604e-08
2.42055e-09
2.4406e-08
2.16928e-09
2.34076e-08
1.92964e-09
2.24705e-08
1.70817e-09
2.15967e-08
1.50881e-09
2.07857e-08
1.33319e-09
2.00353e-08
1.18106e-09
1.93421e-08
1.05089e-09
1.87023e-08
9.40344e-10
1.81115e-08
8.46762e-10
1.75656e-08
7.67482e-10
1.70603e-08
7.00048e-10
1.65917e-08
6.42315e-10
1.61563e-08
5.92484e-10
1.57507e-08
5.49093e-10
1.53719e-08
5.10975e-10
1.50174e-08
4.77212e-10
1.46847e-08
4.47084e-10
1.43718e-08
4.20026e-10
1.40769e-08
3.95594e-10
1.37983e-08
3.7343e-10
1.35347e-08
3.53245e-10
1.32846e-08
3.34801e-10
1.30471e-08
3.17897e-10
1.28211e-08
3.02365e-10
1.26056e-08
2.88057e-10
1.24e-08
2.74847e-10
1.22034e-08
2.62623e-10
1.20152e-08
2.51288e-10
1.18348e-08
2.40755e-10
1.16617e-08
2.30949e-10
1.14954e-08
2.21802e-10
1.13355e-08
2.13253e-10
1.11816e-08
2.0525e-10
1.10332e-08
1.97745e-10
1.089e-08
1.90695e-10
1.07519e-08
1.84063e-10
1.06184e-08
1.77814e-10
1.04892e-08
1.71919e-10
1.03643e-08
1.66348e-10
1.02433e-08
1.61079e-10
1.0126e-08
1.56088e-10
1.00123e-08
1.51355e-10
9.90189e-09
1.46862e-10
9.79471e-09
1.42591e-10
9.69057e-09
1.38529e-10
9.58932e-09
1.34661e-10
9.49084e-09
1.30973e-10
9.395e-09
1.27456e-10
9.30168e-09
1.24097e-10
9.21076e-09
1.20887e-10
9.12214e-09
1.17816e-10
9.03574e-09
1.14878e-10
8.95144e-09
1.12063e-10
8.86917e-09
1.09365e-10
8.78884e-09
1.06777e-10
8.71038e-09
1.04293e-10
8.63371e-09
1.01907e-10
8.55876e-09
9.96141e-11
8.48548e-09
9.74094e-11
8.41378e-09
9.52882e-11
8.34362e-09
9.32464e-11
8.27495e-09
9.128e-11
8.2077e-09
8.93853e-11
8.14182e-09
8.7559e-11
8.07727e-09
8.57979e-11
8.014e-09
8.4099e-11
7.95197e-09
8.24598e-11
7.89113e-09
8.08775e-11
7.83144e-09
7.93501e-11
7.77286e-09
7.78754e-11
7.71537e-09
7.64514e-11
7.65891e-09
7.50765e-11
7.60345e-09
7.37491e-11
7.54897e-09
7.24678e-11
7.49542e-09
7.12316e-11
7.44277e-09
7.00394e-11
7.391e-09
6.88906e-11
7.34007e-09
6.77848e-11
7.28995e-09
6.67218e-11
7.2406e-09
6.57019e-11
7.19201e-09
6.4726e-11
7.14412e-09
6.37958e-11
7.09692e-09
6.29146e-11
7.05035e-09
6.20886e-11
7.00437e-09
6.13303e-11
6.95891e-09
6.06674e-11
6.91387e-09
6.01698e-11
6.86898e-09
6.00297e-11
6.82365e-09
6.07634e-11
6.77251e-09
6.71606e-11
1.20812e-10
3.48057e-08
2.99738e-09
-3.46524e-08
3.48707e-08
3.38391e-09
3.48095e-08
3.56574e-09
3.46278e-08
3.63139e-09
3.43363e-08
3.61494e-09
3.39491e-08
3.5281e-09
3.34836e-08
3.38457e-09
3.29576e-08
3.20029e-09
3.23878e-08
2.99033e-09
3.17891e-08
2.76799e-09
3.11742e-08
2.54453e-09
3.05536e-08
2.3288e-09
2.99354e-08
2.12702e-09
2.93257e-08
1.94287e-09
2.87289e-08
1.77788e-09
2.81478e-08
1.63195e-09
2.75843e-08
1.50387e-09
2.70392e-08
1.3918e-09
2.6513e-08
1.29368e-09
2.60057e-08
1.20743e-09
2.55168e-08
1.13118e-09
2.5046e-08
1.06329e-09
2.45927e-08
1.00239e-09
2.41563e-08
9.47372e-10
2.37362e-08
8.97338e-10
2.33317e-08
8.51578e-10
2.29422e-08
8.09528e-10
2.2567e-08
7.70735e-10
2.22056e-08
7.34829e-10
2.18574e-08
7.01509e-10
2.15216e-08
6.70518e-10
2.11979e-08
6.4164e-10
2.08856e-08
6.14686e-10
2.05842e-08
5.89489e-10
2.02931e-08
5.65902e-10
2.00119e-08
5.43791e-10
1.97402e-08
5.23038e-10
1.94774e-08
5.03535e-10
1.92232e-08
4.85185e-10
1.89771e-08
4.67898e-10
1.87387e-08
4.51593e-10
1.85078e-08
4.36198e-10
1.82839e-08
4.21645e-10
1.80667e-08
4.07874e-10
1.78559e-08
3.94828e-10
1.76513e-08
3.82457e-10
1.74525e-08
3.70713e-10
1.72593e-08
3.59555e-10
1.70714e-08
3.48944e-10
1.68887e-08
3.38843e-10
1.67108e-08
3.29219e-10
1.65376e-08
3.20042e-10
1.63689e-08
3.11283e-10
1.62045e-08
3.02918e-10
1.60443e-08
2.94923e-10
1.5888e-08
2.87274e-10
1.57355e-08
2.79952e-10
1.55866e-08
2.72938e-10
1.54413e-08
2.66214e-10
1.52994e-08
2.59765e-10
1.51607e-08
2.53574e-10
1.50251e-08
2.47628e-10
1.48926e-08
2.41913e-10
1.47629e-08
2.36418e-10
1.46361e-08
2.31131e-10
1.45119e-08
2.26041e-10
1.43904e-08
2.21139e-10
1.42714e-08
2.16415e-10
1.41548e-08
2.11859e-10
1.40406e-08
2.07466e-10
1.39287e-08
2.03225e-10
1.38189e-08
1.99132e-10
1.37113e-08
1.95178e-10
1.36058e-08
1.91358e-10
1.35022e-08
1.87665e-10
1.34006e-08
1.84096e-10
1.33008e-08
1.80644e-10
1.32028e-08
1.77304e-10
1.31066e-08
1.74074e-10
1.30121e-08
1.70948e-10
1.29193e-08
1.67923e-10
1.2828e-08
1.64996e-10
1.27383e-08
1.62165e-10
1.26502e-08
1.59426e-10
1.25634e-08
1.56778e-10
1.24781e-08
1.54218e-10
1.23941e-08
1.51747e-10
1.23115e-08
1.49364e-10
1.22301e-08
1.47068e-10
1.215e-08
1.44862e-10
1.2071e-08
1.42748e-10
1.19932e-08
1.40732e-10
1.19165e-08
1.38826e-10
1.18408e-08
1.37053e-10
1.1766e-08
1.35466e-10
1.16919e-08
1.34196e-10
1.16183e-08
1.33614e-10
1.15441e-08
1.34959e-10
1.14643e-08
1.46968e-10
2.05502e-10
3.56409e-08
2.8056e-09
-3.54491e-08
3.58364e-08
3.18839e-09
3.59908e-08
3.41131e-09
3.60918e-08
3.53041e-09
3.61328e-08
3.57394e-09
3.61099e-08
3.55098e-09
3.60237e-08
3.47081e-09
3.58782e-08
3.34582e-09
3.56796e-08
3.18889e-09
3.54355e-08
3.0121e-09
3.51538e-08
2.82619e-09
3.48425e-08
2.64017e-09
3.45086e-08
2.46088e-09
3.41585e-08
2.29295e-09
3.37974e-08
2.13898e-09
3.34295e-08
1.9999e-09
3.30579e-08
1.87546e-09
3.26851e-08
1.76461e-09
3.23128e-08
1.66593e-09
3.19424e-08
1.57783e-09
3.15748e-08
1.49879e-09
3.12107e-08
1.4274e-09
3.08506e-08
1.36247e-09
3.0495e-08
1.30302e-09
3.01441e-08
1.24823e-09
2.97982e-08
1.19746e-09
2.94576e-08
1.15018e-09
2.91223e-08
1.10597e-09
2.87926e-08
1.06452e-09
2.84686e-08
1.02554e-09
2.81503e-08
9.88802e-10
2.78378e-08
9.54123e-10
2.75312e-08
9.21336e-10
2.72304e-08
8.90296e-10
2.69354e-08
8.60874e-10
2.66462e-08
8.32958e-10
2.63628e-08
8.06443e-10
2.60851e-08
7.81234e-10
2.58131e-08
7.57248e-10
2.55466e-08
7.34404e-10
2.52855e-08
7.1263e-10
2.50299e-08
6.91861e-10
2.47795e-08
6.72035e-10
2.45343e-08
6.53096e-10
2.42941e-08
6.3499e-10
2.40589e-08
6.17671e-10
2.38285e-08
6.01092e-10
2.36028e-08
5.85212e-10
2.33818e-08
5.69993e-10
2.31652e-08
5.55398e-10
2.29531e-08
5.41393e-10
2.27452e-08
5.27947e-10
2.25414e-08
5.15031e-10
2.23417e-08
5.02617e-10
2.2146e-08
4.90679e-10
2.1954e-08
4.79193e-10
2.17659e-08
4.68137e-10
2.15813e-08
4.57489e-10
2.14003e-08
4.4723e-10
2.12227e-08
4.3734e-10
2.10485e-08
4.27802e-10
2.08775e-08
4.18599e-10
2.07097e-08
4.09716e-10
2.0545e-08
4.01138e-10
2.03833e-08
3.92851e-10
2.02245e-08
3.84841e-10
2.00685e-08
3.77097e-10
1.99153e-08
3.69606e-10
1.97648e-08
3.62359e-10
1.96169e-08
3.55343e-10
1.94716e-08
3.4855e-10
1.93288e-08
3.41971e-10
1.91884e-08
3.35595e-10
1.90503e-08
3.29417e-10
1.89145e-08
3.23427e-10
1.8781e-08
3.17618e-10
1.86497e-08
3.11984e-10
1.85205e-08
3.06519e-10
1.83933e-08
3.01217e-10
1.82682e-08
2.96071e-10
1.8145e-08
2.91079e-10
1.80238e-08
2.86234e-10
1.79044e-08
2.81533e-10
1.77869e-08
2.76973e-10
1.76711e-08
2.72551e-10
1.75571e-08
2.68265e-10
1.74447e-08
2.64113e-10
1.7334e-08
2.60094e-10
1.72248e-08
2.56211e-10
1.71172e-08
2.52463e-10
1.70111e-08
2.48858e-10
1.69065e-08
2.45402e-10
1.68032e-08
2.42114e-10
1.67012e-08
2.3903e-10
1.66004e-08
2.36227e-10
1.65007e-08
2.33904e-10
1.64017e-08
2.32619e-10
1.63023e-08
2.34331e-10
1.62005e-08
2.48765e-10
3.00898e-10
3.63927e-08
2.63762e-09
-3.62248e-08
3.65907e-08
2.99044e-09
3.67826e-08
3.21943e-09
3.69556e-08
3.35734e-09
3.71024e-08
3.42719e-09
3.72157e-08
3.43768e-09
3.72905e-08
3.39594e-09
3.73248e-08
3.31154e-09
3.73187e-08
3.19506e-09
3.7274e-08
3.05671e-09
3.71944e-08
2.90588e-09
3.70838e-08
2.7507e-09
3.6947e-08
2.5977e-09
3.67884e-08
2.4516e-09
3.6612e-08
2.31537e-09
3.64213e-08
2.19052e-09
3.62194e-08
2.07739e-09
3.60085e-08
1.97553e-09
3.57904e-08
1.884e-09
3.55666e-08
1.80165e-09
3.53381e-08
1.72725e-09
3.51059e-08
1.65966e-09
3.48705e-08
1.59785e-09
3.46326e-08
1.54095e-09
3.43926e-08
1.48822e-09
3.4151e-08
1.43908e-09
3.39081e-08
1.39304e-09
3.36643e-08
1.34973e-09
3.342e-08
1.30884e-09
3.31754e-08
1.27011e-09
3.29309e-08
1.23335e-09
3.26867e-08
1.19837e-09
3.24429e-08
1.16504e-09
3.22e-08
1.13322e-09
3.19581e-08
1.10282e-09
3.17173e-08
1.07373e-09
3.14779e-08
1.04586e-09
3.124e-08
1.01914e-09
3.10037e-08
9.935e-10
3.07693e-08
9.68874e-10
3.05367e-08
9.45203e-10
3.03061e-08
9.22435e-10
3.00776e-08
9.00519e-10
2.98513e-08
8.79411e-10
2.96272e-08
8.59069e-10
2.94055e-08
8.39454e-10
2.9186e-08
8.20531e-10
2.8969e-08
8.02264e-10
2.87543e-08
7.84625e-10
2.85421e-08
7.67583e-10
2.83324e-08
7.51111e-10
2.81252e-08
7.35184e-10
2.79204e-08
7.19777e-10
2.77182e-08
7.04869e-10
2.75184e-08
6.90436e-10
2.73212e-08
6.76461e-10
2.71264e-08
6.62923e-10
2.69341e-08
6.49804e-10
2.67442e-08
6.37088e-10
2.65568e-08
6.24758e-10
2.63718e-08
6.12799e-10
2.61892e-08
6.01196e-10
2.6009e-08
5.89936e-10
2.58311e-08
5.79004e-10
2.56556e-08
5.68389e-10
2.54823e-08
5.58079e-10
2.53114e-08
5.48062e-10
2.51427e-08
5.38327e-10
2.49761e-08
5.28864e-10
2.48118e-08
5.19663e-10
2.46497e-08
5.10714e-10
2.44896e-08
5.0201e-10
2.43317e-08
4.93541e-10
2.41758e-08
4.853e-10
2.40219e-08
4.77278e-10
2.38701e-08
4.69469e-10
2.37202e-08
4.61866e-10
2.35723e-08
4.54462e-10
2.34262e-08
4.47253e-10
2.32821e-08
4.40232e-10
2.31398e-08
4.33395e-10
2.29993e-08
4.26737e-10
2.28605e-08
4.20254e-10
2.27236e-08
4.13944e-10
2.25883e-08
4.07803e-10
2.24547e-08
4.0183e-10
2.23228e-08
3.96024e-10
2.21925e-08
3.90386e-10
2.20638e-08
3.84916e-10
2.19367e-08
3.79619e-10
2.1811e-08
3.74501e-10
2.16869e-08
3.69577e-10
2.15641e-08
3.64868e-10
2.14427e-08
3.60422e-10
2.13226e-08
3.56342e-10
2.12036e-08
3.52881e-10
2.10855e-08
3.5074e-10
2.09676e-08
3.52206e-10
2.08506e-08
3.65741e-10
4.04502e-10
3.71381e-08
2.49583e-09
-3.69963e-08
3.73152e-08
2.81326e-09
3.74994e-08
3.03533e-09
3.76783e-08
3.17842e-09
3.78457e-08
3.25979e-09
3.79955e-08
3.28783e-09
3.81227e-08
3.26874e-09
3.82239e-08
3.21036e-09
3.82974e-08
3.12154e-09
3.83431e-08
3.01104e-09
3.8362e-08
2.88699e-09
3.83561e-08
2.75656e-09
3.83281e-08
2.62568e-09
3.82809e-08
2.49884e-09
3.82172e-08
2.37907e-09
3.81396e-08
2.26809e-09
3.80504e-08
2.16662e-09
3.79513e-08
2.07458e-09
3.78439e-08
1.99141e-09
3.77293e-08
1.91628e-09
3.76083e-08
1.84822e-09
3.74817e-08
1.78629e-09
3.73499e-08
1.72962e-09
3.72135e-08
1.67743e-09
3.70726e-08
1.62905e-09
3.69277e-08
1.58396e-09
3.67791e-08
1.54168e-09
3.6627e-08
1.50188e-09
3.64716e-08
1.46423e-09
3.63132e-08
1.42852e-09
3.6152e-08
1.39453e-09
3.59883e-08
1.3621e-09
3.58222e-08
1.3311e-09
3.5654e-08
1.3014e-09
3.54839e-08
1.2729e-09
3.53121e-08
1.24553e-09
3.51388e-08
1.21918e-09
3.49642e-08
1.19381e-09
3.47883e-08
1.16933e-09
3.46115e-08
1.1457e-09
3.44338e-08
1.12287e-09
3.42555e-08
1.10079e-09
3.40766e-08
1.07942e-09
3.38972e-08
1.05872e-09
3.37177e-08
1.03866e-09
3.35379e-08
1.0192e-09
3.33581e-08
1.00032e-09
3.31784e-08
9.81982e-10
3.29989e-08
9.64171e-10
3.28196e-08
9.4686e-10
3.26407e-08
9.30029e-10
3.24622e-08
9.13657e-10
3.22842e-08
8.97727e-10
3.21069e-08
8.82221e-10
3.19302e-08
8.67122e-10
3.17542e-08
8.52416e-10
3.15791e-08
8.38087e-10
3.14048e-08
8.24123e-10
3.12313e-08
8.10511e-10
3.10589e-08
7.97238e-10
3.08874e-08
7.84293e-10
3.07169e-08
7.71665e-10
3.05475e-08
7.59344e-10
3.03792e-08
7.47319e-10
3.0212e-08
7.35581e-10
3.00459e-08
7.24121e-10
2.98811e-08
7.1293e-10
2.97174e-08
7.02e-10
2.95549e-08
6.91323e-10
2.93937e-08
6.80891e-10
2.92337e-08
6.70697e-10
2.9075e-08
6.60735e-10
2.89175e-08
6.50998e-10
2.87614e-08
6.41479e-10
2.86065e-08
6.32172e-10
2.84529e-08
6.23073e-10
2.83006e-08
6.14175e-10
2.81496e-08
6.05475e-10
2.79998e-08
5.96967e-10
2.78514e-08
5.88647e-10
2.77043e-08
5.80513e-10
2.75585e-08
5.7256e-10
2.74139e-08
5.64786e-10
2.72707e-08
5.5719e-10
2.71287e-08
5.49769e-10
2.6988e-08
5.42525e-10
2.68486e-08
5.35456e-10
2.67104e-08
5.28566e-10
2.65735e-08
5.21857e-10
2.64378e-08
5.15336e-10
2.63033e-08
5.09014e-10
2.61699e-08
5.02905e-10
2.60378e-08
4.97042e-10
2.59067e-08
4.91479e-10
2.57767e-08
4.86338e-10
2.56477e-08
4.81903e-10
2.55195e-08
4.78919e-10
2.53922e-08
4.79529e-10
2.52682e-08
4.89712e-10
5.11898e-10
3.78887e-08
2.37434e-09
-3.77672e-08
3.80445e-08
2.65749e-09
3.82124e-08
2.86742e-09
3.83808e-08
3.01003e-09
3.85436e-08
3.09694e-09
3.86959e-08
3.13553e-09
3.88333e-08
3.13135e-09
3.89527e-08
3.09098e-09
3.90523e-08
3.02197e-09
3.91314e-08
2.93194e-09
3.91904e-08
2.82801e-09
3.92304e-08
2.71657e-09
3.92531e-08
2.60298e-09
3.92605e-08
2.49144e-09
3.92546e-08
2.3849e-09
3.92375e-08
2.28523e-09
3.92108e-08
2.19333e-09
3.91759e-08
2.10943e-09
3.91341e-08
2.03325e-09
3.90862e-08
1.96421e-09
3.90328e-08
1.90157e-09
3.89746e-08
1.84456e-09
3.89117e-08
1.79244e-09
3.88446e-08
1.74452e-09
3.87735e-08
1.70023e-09
3.86984e-08
1.65904e-09
3.86195e-08
1.62054e-09
3.8537e-08
1.58438e-09
3.8451e-08
1.55026e-09
3.83616e-08
1.51796e-09
3.82688e-08
1.48727e-09
3.81729e-08
1.45803e-09
3.80739e-08
1.4301e-09
3.79719e-08
1.40335e-09
3.78671e-08
1.3777e-09
3.77596e-08
1.35304e-09
3.76495e-08
1.3293e-09
3.75369e-08
1.30641e-09
3.74219e-08
1.2843e-09
3.73047e-08
1.26293e-09
3.71854e-08
1.24224e-09
3.7064e-08
1.22219e-09
3.69406e-08
1.20274e-09
3.68155e-08
1.18385e-09
3.66887e-08
1.16549e-09
3.65602e-08
1.14763e-09
3.64303e-08
1.13025e-09
3.6299e-08
1.11331e-09
3.61664e-08
1.09679e-09
3.60325e-08
1.08069e-09
3.58976e-08
1.06497e-09
3.57616e-08
1.04962e-09
3.56248e-08
1.03462e-09
3.5487e-08
1.01996e-09
3.53485e-08
1.00563e-09
3.52093e-08
9.9161e-10
3.50695e-08
9.77892e-10
3.49292e-08
9.64464e-10
3.47884e-08
9.51316e-10
3.46472e-08
9.38439e-10
3.45056e-08
9.25824e-10
3.43638e-08
9.13461e-10
3.42218e-08
9.01345e-10
3.40797e-08
8.89465e-10
3.39374e-08
8.77817e-10
3.37952e-08
8.66393e-10
3.36529e-08
8.55187e-10
3.35107e-08
8.44192e-10
3.33686e-08
8.33404e-10
3.32267e-08
8.22816e-10
3.3085e-08
8.12423e-10
3.29435e-08
8.02222e-10
3.28023e-08
7.92206e-10
3.26614e-08
7.82373e-10
3.25209e-08
7.72717e-10
3.23807e-08
7.63236e-10
3.22409e-08
7.53925e-10
3.21016e-08
7.44782e-10
3.19628e-08
7.35804e-10
3.18245e-08
7.26989e-10
3.16866e-08
7.18335e-10
3.15494e-08
7.0984e-10
3.14126e-08
7.01504e-10
3.12765e-08
6.93325e-10
3.1141e-08
6.85306e-10
3.1006e-08
6.77447e-10
3.08717e-08
6.69751e-10
3.07381e-08
6.62222e-10
3.06051e-08
6.54866e-10
3.04727e-08
6.47691e-10
3.0341e-08
6.40711e-10
3.021e-08
6.33946e-10
3.00796e-08
6.27432e-10
2.99498e-08
6.2123e-10
2.98207e-08
6.15469e-10
2.96922e-08
6.10432e-10
2.95643e-08
6.06796e-10
2.94376e-08
6.06197e-10
2.93156e-08
6.11771e-10
6.17482e-10
3.86464e-08
2.26802e-09
-3.85401e-08
3.87838e-08
2.5201e-09
3.89355e-08
2.71578e-09
3.90906e-08
2.8549e-09
3.92431e-08
2.94438e-09
3.93885e-08
2.99012e-09
3.95229e-08
2.99695e-09
3.96435e-08
2.97042e-09
3.97485e-08
2.91694e-09
3.98373e-08
2.84314e-09
3.991e-08
2.75532e-09
3.99674e-08
2.65917e-09
4.00108e-08
2.55957e-09
4.00418e-08
2.46043e-09
4.00621e-08
2.36461e-09
4.00733e-08
2.27402e-09
4.00769e-08
2.18976e-09
4.00741e-08
2.11224e-09
4.00659e-08
2.04144e-09
4.00531e-08
1.97698e-09
4.00364e-08
1.91835e-09
4.0016e-08
1.86492e-09
3.99924e-08
1.81608e-09
3.99656e-08
1.77124e-09
3.9936e-08
1.72989e-09
3.99035e-08
1.69156e-09
3.98681e-08
1.65585e-09
3.98301e-08
1.62244e-09
3.97893e-08
1.59105e-09
3.97458e-08
1.56144e-09
3.96997e-08
1.53342e-09
3.96509e-08
1.50681e-09
3.95995e-08
1.48149e-09
3.95455e-08
1.45733e-09
3.9489e-08
1.43422e-09
3.94299e-08
1.41208e-09
3.93684e-08
1.39081e-09
3.93045e-08
1.37035e-09
3.92382e-08
1.35063e-09
3.91695e-08
1.3316e-09
3.90985e-08
1.3132e-09
3.90253e-08
1.2954e-09
3.89499e-08
1.27814e-09
3.88724e-08
1.26139e-09
3.87928e-08
1.24511e-09
3.87111e-08
1.22928e-09
3.86275e-08
1.21387e-09
3.8542e-08
1.19885e-09
3.84546e-08
1.18419e-09
3.83654e-08
1.16989e-09
3.82745e-08
1.15591e-09
3.81818e-08
1.14224e-09
3.80876e-08
1.12887e-09
3.79918e-08
1.11577e-09
3.78944e-08
1.10295e-09
3.77957e-08
1.09038e-09
3.76955e-08
1.07805e-09
3.7594e-08
1.06595e-09
3.74913e-08
1.05408e-09
3.73873e-08
1.04242e-09
3.72822e-08
1.03096e-09
3.71759e-08
1.0197e-09
3.70686e-08
1.00864e-09
3.69603e-08
9.97754e-10
3.68511e-08
9.87049e-10
3.6741e-08
9.76515e-10
3.663e-08
9.66148e-10
3.65183e-08
9.55943e-10
3.64058e-08
9.45894e-10
3.62926e-08
9.35998e-10
3.61788e-08
9.2625e-10
3.60644e-08
9.16647e-10
3.59494e-08
9.07185e-10
3.58339e-08
8.97861e-10
3.57179e-08
8.88673e-10
3.56015e-08
8.79617e-10
3.54848e-08
8.70692e-10
3.53677e-08
8.61895e-10
3.52502e-08
8.53225e-10
3.51326e-08
8.44682e-10
3.50146e-08
8.36264e-10
3.48965e-08
8.27971e-10
3.47782e-08
8.19805e-10
3.46598e-08
8.11765e-10
3.45412e-08
8.03855e-10
3.44226e-08
7.96077e-10
3.43039e-08
7.88435e-10
3.41852e-08
7.80935e-10
3.40665e-08
7.73586e-10
3.39478e-08
7.66399e-10
3.38291e-08
7.59388e-10
3.37104e-08
7.52578e-10
3.35919e-08
7.46006e-10
3.34734e-08
7.39737e-10
3.33549e-08
7.33894e-10
3.32366e-08
7.28725e-10
3.31187e-08
7.24749e-10
3.3002e-08
7.22915e-10
3.289e-08
7.23774e-10
7.15671e-10
3.94116e-08
2.17325e-09
-3.93168e-08
3.95338e-08
2.39793e-09
3.96707e-08
2.5788e-09
3.98131e-08
2.71259e-09
3.99547e-08
2.80272e-09
4.00914e-08
2.85347e-09
4.02194e-08
2.86891e-09
4.03362e-08
2.85365e-09
4.044e-08
2.81312e-09
4.05301e-08
2.75303e-09
4.06065e-08
2.67892e-09
4.06698e-08
2.59586e-09
4.07211e-08
2.50829e-09
4.07617e-08
2.41983e-09
4.07931e-08
2.33323e-09
4.08167e-08
2.25042e-09
4.08338e-08
2.17261e-09
4.08457e-08
2.1004e-09
4.08531e-08
2.03395e-09
4.0857e-08
1.97308e-09
4.08579e-08
1.91746e-09
4.08562e-08
1.86661e-09
4.08523e-08
1.82004e-09
4.08462e-08
1.77728e-09
4.08383e-08
1.73785e-09
4.08285e-08
1.70136e-09
4.08169e-08
1.66745e-09
4.08035e-08
1.63581e-09
4.07884e-08
1.60618e-09
4.07715e-08
1.57833e-09
4.07528e-08
1.55207e-09
4.07324e-08
1.52725e-09
4.07102e-08
1.50372e-09
4.06862e-08
1.48135e-09
4.06603e-08
1.46005e-09
4.06327e-08
1.43972e-09
4.06032e-08
1.42027e-09
4.05719e-08
1.40164e-09
4.05388e-08
1.38376e-09
4.05038e-08
1.36656e-09
4.0467e-08
1.35e-09
4.04284e-08
1.33402e-09
4.0388e-08
1.31858e-09
4.03457e-08
1.30365e-09
4.03016e-08
1.28919e-09
4.02557e-08
1.27516e-09
4.02081e-08
1.26153e-09
4.01586e-08
1.24828e-09
4.01074e-08
1.23539e-09
4.00545e-08
1.22282e-09
3.99999e-08
1.21056e-09
3.99435e-08
1.19859e-09
3.98855e-08
1.18689e-09
3.98258e-08
1.17545e-09
3.97645e-08
1.16426e-09
3.97016e-08
1.15328e-09
3.96371e-08
1.14253e-09
3.95711e-08
1.13198e-09
3.95035e-08
1.12162e-09
3.94345e-08
1.11144e-09
3.9364e-08
1.10144e-09
3.92921e-08
1.09161e-09
3.92188e-08
1.08193e-09
3.91442e-08
1.07241e-09
3.90682e-08
1.06303e-09
3.89909e-08
1.05378e-09
3.89124e-08
1.04468e-09
3.88326e-08
1.03569e-09
3.87517e-08
1.02683e-09
3.86696e-08
1.01809e-09
3.85864e-08
1.00946e-09
3.85021e-08
1.00095e-09
3.84168e-08
9.92536e-10
3.83304e-08
9.84229e-10
3.8243e-08
9.76023e-10
3.81547e-08
9.67916e-10
3.80655e-08
9.59905e-10
3.79754e-08
9.5199e-10
3.78845e-08
9.44169e-10
3.77927e-08
9.36441e-10
3.77002e-08
9.28807e-10
3.76069e-08
9.21266e-10
3.75129e-08
9.13821e-10
3.74182e-08
9.06473e-10
3.73228e-08
8.99224e-10
3.72268e-08
8.9208e-10
3.71302e-08
8.85044e-10
3.7033e-08
8.78125e-10
3.69352e-08
8.71332e-10
3.6837e-08
8.64676e-10
3.67382e-08
8.58176e-10
3.66389e-08
8.51856e-10
3.65392e-08
8.45754e-10
3.6439e-08
8.39932e-10
3.63384e-08
8.34497e-10
3.62374e-08
8.29638e-10
3.61365e-08
8.25665e-10
3.60366e-08
8.22837e-10
3.59406e-08
8.19737e-10
8.01992e-10
4.01848e-08
2.08748e-09
-4.0099e-08
4.02944e-08
2.28832e-09
4.04185e-08
2.45469e-09
4.0549e-08
2.58204e-09
4.06804e-08
2.67139e-09
4.08083e-08
2.72556e-09
4.09294e-08
2.74779e-09
4.10412e-08
2.7419e-09
4.11419e-08
2.71242e-09
4.12307e-08
2.66423e-09
4.13074e-08
2.60216e-09
4.13725e-08
2.53074e-09
4.14269e-08
2.45394e-09
4.14716e-08
2.37512e-09
4.15079e-08
2.29689e-09
4.15372e-08
2.22118e-09
4.15605e-08
2.14925e-09
4.15791e-08
2.08185e-09
4.15938e-08
2.01927e-09
4.16053e-08
1.96154e-09
4.16143e-08
1.90845e-09
4.16212e-08
1.85968e-09
4.16264e-08
1.81486e-09
4.16301e-08
1.77359e-09
4.16325e-08
1.7355e-09
4.16336e-08
1.70022e-09
4.16336e-08
1.66745e-09
4.16325e-08
1.63689e-09
4.16304e-08
1.60833e-09
4.16272e-08
1.58153e-09
4.16229e-08
1.55633e-09
4.16176e-08
1.53257e-09
4.16112e-08
1.51011e-09
4.16037e-08
1.48884e-09
4.15951e-08
1.46864e-09
4.15854e-08
1.44943e-09
4.15745e-08
1.43113e-09
4.15625e-08
1.41366e-09
4.15493e-08
1.39696e-09
4.15349e-08
1.38096e-09
4.15193e-08
1.36562e-09
4.15024e-08
1.35088e-09
4.14843e-08
1.3367e-09
4.14649e-08
1.32304e-09
4.14442e-08
1.30987e-09
4.14222e-08
1.29714e-09
4.1399e-08
1.28483e-09
4.13743e-08
1.2729e-09
4.13484e-08
1.26134e-09
4.13211e-08
1.25012e-09
4.12924e-08
1.23921e-09
4.12624e-08
1.2286e-09
4.1231e-08
1.21827e-09
4.11983e-08
1.20819e-09
4.11642e-08
1.19836e-09
4.11287e-08
1.18876e-09
4.10919e-08
1.17937e-09
4.10537e-08
1.17018e-09
4.10141e-08
1.16118e-09
4.09732e-08
1.15236e-09
4.09309e-08
1.14371e-09
4.08873e-08
1.13522e-09
4.08424e-08
1.12688e-09
4.07961e-08
1.11868e-09
4.07485e-08
1.11061e-09
4.06996e-08
1.10267e-09
4.06495e-08
1.09486e-09
4.0598e-08
1.08715e-09
4.05453e-08
1.07956e-09
4.04913e-08
1.07206e-09
4.04361e-08
1.06467e-09
4.03797e-08
1.05737e-09
4.03221e-08
1.05016e-09
4.02633e-08
1.04304e-09
4.02033e-08
1.036e-09
4.01422e-08
1.02904e-09
4.00799e-08
1.02216e-09
4.00166e-08
1.01535e-09
3.99521e-08
1.00862e-09
3.98866e-08
1.00196e-09
3.982e-08
9.95379e-10
3.97524e-08
9.88869e-10
3.96838e-08
9.82435e-10
3.96142e-08
9.76078e-10
3.95436e-08
9.69801e-10
3.94721e-08
9.63609e-10
3.93996e-08
9.57507e-10
3.93262e-08
9.51502e-10
3.9252e-08
9.45606e-10
3.91768e-08
9.3983e-10
3.91008e-08
9.34193e-10
3.90239e-08
9.28719e-10
3.89462e-08
9.23444e-10
3.88678e-08
9.18422e-10
3.87885e-08
9.13737e-10
3.87086e-08
9.09506e-10
3.86285e-08
9.05826e-10
3.85489e-08
9.02386e-10
3.84721e-08
8.96557e-10
8.73739e-10
4.09666e-08
2.00894e-09
-4.0888e-08
4.10658e-08
2.1891e-09
4.11787e-08
2.34178e-09
4.12986e-08
2.46212e-09
4.14204e-08
2.54963e-09
4.154e-08
2.60593e-09
4.16543e-08
2.63347e-09
4.17609e-08
2.63535e-09
4.1858e-08
2.61533e-09
4.19447e-08
2.57754e-09
4.20206e-08
2.52618e-09
4.20862e-08
2.46522e-09
4.21419e-08
2.39824e-09
4.21887e-08
2.32831e-09
4.22277e-08
2.2579e-09
4.226e-08
2.18888e-09
4.22867e-08
2.12254e-09
4.23088e-08
2.05974e-09
4.23272e-08
2.0009e-09
4.23425e-08
1.94616e-09
4.23555e-08
1.89547e-09
4.23666e-08
1.84864e-09
4.2376e-08
1.80538e-09
4.23842e-08
1.7654e-09
4.23914e-08
1.72838e-09
4.23975e-08
1.69404e-09
4.24029e-08
1.66208e-09
4.24075e-08
1.63228e-09
4.24114e-08
1.6044e-09
4.24147e-08
1.57827e-09
4.24173e-08
1.5537e-09
4.24194e-08
1.53057e-09
4.24207e-08
1.50873e-09
4.24215e-08
1.48808e-09
4.24216e-08
1.46851e-09
4.24211e-08
1.44994e-09
4.242e-08
1.43228e-09
4.24182e-08
1.41547e-09
4.24157e-08
1.39945e-09
4.24125e-08
1.38415e-09
4.24086e-08
1.36952e-09
4.2404e-08
1.35551e-09
4.23986e-08
1.34208e-09
4.23924e-08
1.32919e-09
4.23855e-08
1.31681e-09
4.23777e-08
1.30489e-09
4.23692e-08
1.2934e-09
4.23597e-08
1.28233e-09
4.23494e-08
1.27164e-09
4.23383e-08
1.2613e-09
4.23262e-08
1.2513e-09
4.23132e-08
1.24161e-09
4.22992e-08
1.23221e-09
4.22843e-08
1.22309e-09
4.22685e-08
1.21423e-09
4.22516e-08
1.20561e-09
4.22338e-08
1.19721e-09
4.22149e-08
1.18904e-09
4.2195e-08
1.18106e-09
4.21741e-08
1.17327e-09
4.21522e-08
1.16566e-09
4.21292e-08
1.15822e-09
4.21051e-08
1.15094e-09
4.208e-08
1.14381e-09
4.20538e-08
1.13682e-09
4.20265e-08
1.12996e-09
4.19981e-08
1.12322e-09
4.19687e-08
1.11661e-09
4.19381e-08
1.1101e-09
4.19065e-08
1.1037e-09
4.18737e-08
1.0974e-09
4.18399e-08
1.0912e-09
4.1805e-08
1.08508e-09
4.1769e-08
1.07905e-09
4.17319e-08
1.0731e-09
4.16937e-08
1.06723e-09
4.16544e-08
1.06143e-09
4.16141e-08
1.05571e-09
4.15726e-08
1.05005e-09
4.15301e-08
1.04447e-09
4.14866e-08
1.03895e-09
4.14419e-08
1.0335e-09
4.13962e-08
1.02812e-09
4.13495e-08
1.02281e-09
4.13017e-08
1.01758e-09
4.12529e-08
1.01242e-09
4.12031e-08
1.00735e-09
4.11522e-08
1.00237e-09
4.11003e-08
9.97484e-10
4.10474e-08
9.92717e-10
4.09936e-08
9.88081e-10
4.09387e-08
9.836e-10
4.08828e-08
9.79306e-10
4.0826e-08
9.75242e-10
4.07683e-08
9.71465e-10
4.07098e-08
9.68019e-10
4.06508e-08
9.64822e-10
4.0592e-08
9.61171e-10
4.05346e-08
9.53937e-10
9.301e-10
4.17576e-08
1.93633e-09
-4.1685e-08
4.18481e-08
2.09857e-09
4.19513e-08
2.2386e-09
4.20617e-08
2.35175e-09
4.21747e-08
2.43666e-09
4.22866e-08
2.49404e-09
4.23944e-08
2.52563e-09
4.24958e-08
2.53392e-09
4.25892e-08
2.52196e-09
4.26735e-08
2.49326e-09
4.27483e-08
2.4514e-09
4.28136e-08
2.39987e-09
4.287e-08
2.34188e-09
4.29181e-08
2.2802e-09
4.29589e-08
2.21714e-09
4.29932e-08
2.15449e-09
4.30222e-08
2.09357e-09
4.30467e-08
2.03527e-09
4.30674e-08
1.98013e-09
4.30852e-08
1.9284e-09
4.31005e-08
1.88014e-09
4.31139e-08
1.83524e-09
4.31258e-08
1.79355e-09
4.31363e-08
1.75484e-09
4.31459e-08
1.71886e-09
4.31545e-08
1.68537e-09
4.31624e-08
1.65415e-09
4.31698e-08
1.62497e-09
4.31765e-08
1.59764e-09
4.31828e-08
1.572e-09
4.31886e-08
1.54789e-09
4.3194e-08
1.52517e-09
4.3199e-08
1.50373e-09
4.32036e-08
1.48345e-09
4.32079e-08
1.46426e-09
4.32118e-08
1.44605e-09
4.32153e-08
1.42876e-09
4.32184e-08
1.41232e-09
4.32212e-08
1.39666e-09
4.32236e-08
1.38174e-09
4.32257e-08
1.36749e-09
4.32273e-08
1.35388e-09
4.32285e-08
1.34086e-09
4.32293e-08
1.32839e-09
4.32297e-08
1.31644e-09
4.32296e-08
1.30497e-09
4.32291e-08
1.29395e-09
4.3228e-08
1.28335e-09
4.32265e-08
1.27316e-09
4.32245e-08
1.26333e-09
4.32219e-08
1.25386e-09
4.32188e-08
1.24471e-09
4.32151e-08
1.23588e-09
4.32109e-08
1.22734e-09
4.3206e-08
1.21908e-09
4.32006e-08
1.21107e-09
4.31945e-08
1.20331e-09
4.31877e-08
1.19579e-09
4.31803e-08
1.18847e-09
4.31722e-08
1.18137e-09
4.31634e-08
1.17446e-09
4.31539e-08
1.16773e-09
4.31437e-08
1.16118e-09
4.31327e-08
1.15479e-09
4.31209e-08
1.14856e-09
4.31084e-08
1.14247e-09
4.30951e-08
1.13652e-09
4.3081e-08
1.1307e-09
4.30661e-08
1.125e-09
4.30504e-08
1.11942e-09
4.30339e-08
1.11395e-09
4.30165e-08
1.10859e-09
4.29982e-08
1.10333e-09
4.29791e-08
1.09816e-09
4.29591e-08
1.09308e-09
4.29383e-08
1.08809e-09
4.29165e-08
1.08318e-09
4.28939e-08
1.07835e-09
4.28703e-08
1.0736e-09
4.28459e-08
1.06893e-09
4.28205e-08
1.06433e-09
4.27942e-08
1.0598e-09
4.2767e-08
1.05535e-09
4.27388e-08
1.05097e-09
4.27097e-08
1.04667e-09
4.26797e-08
1.04246e-09
4.26487e-08
1.03833e-09
4.26167e-08
1.0343e-09
4.25839e-08
1.03037e-09
4.255e-08
1.02656e-09
4.25152e-08
1.02289e-09
4.24794e-08
1.01937e-09
4.24427e-08
1.01604e-09
4.2405e-08
1.01292e-09
4.23664e-08
1.01004e-09
4.23271e-08
1.00739e-09
4.22871e-08
1.00476e-09
4.22471e-08
1.00123e-09
4.22073e-08
9.93744e-10
9.71883e-10
4.25586e-08
1.86871e-09
-4.24909e-08
4.26417e-08
2.01538e-09
4.27365e-08
2.14386e-09
4.28383e-08
2.2499e-09
4.29433e-08
2.33171e-09
4.3048e-08
2.38933e-09
4.31497e-08
2.42394e-09
4.32462e-08
2.43743e-09
4.33358e-08
2.43232e-09
4.34175e-08
2.41151e-09
4.34909e-08
2.37807e-09
4.35557e-08
2.33503e-09
4.36124e-08
2.28523e-09
4.36614e-08
2.23119e-09
4.37035e-08
2.17503e-09
4.37395e-08
2.11847e-09
4.37703e-08
2.06279e-09
4.37966e-08
2.00893e-09
4.38192e-08
1.95749e-09
4.38388e-08
1.9088e-09
4.3856e-08
1.86301e-09
4.38711e-08
1.82014e-09
4.38845e-08
1.78009e-09
4.38967e-08