/*--------------------------------*- C++ -*----------------------------------*\
| =========                 |                                                 |
| \\      /  F ield         | OpenFOAM: The Open Source CFD Toolbox           |
|  \\    /   O peration     | Version:  2.3.0                                 |
|   \\  /    A nd           | Web:      www.OpenFOAM.org                      |
|    \\/     M anipulation  |                                                 |
\*---------------------------------------------------------------------------*/
FoamFile
{
    version     2.0;
    format      ascii;
    class       volVectorField;
    location    "0.95";
    object      U;
}
// * * * * * * * * * * * * * * * * * * * * * * * * * * * * * * * * * * * * * //

dimensions      [0 1 -1 0 0 0 0];

internalField   nonuniform List<vector> 
3375
(
(0.170603 0.00600306 0)
(0.15407 0.00606198 0)
(0.138181 0.00563579 0)
(0.123129 0.00503031 0)
(0.109325 0.00436225 0)
(0.0969362 0.00368521 0)
(0.0859765 0.00303627 0)
(0.0764115 0.00244116 0)
(0.068184 0.00191554 0)
(0.0612071 0.00146736 0)
(0.0553645 0.00109825 0)
(0.0505203 0.000804547 0)
(0.0465309 0.000578585 0)
(0.0432547 0.000410332 0)
(0.0405598 0.000288981 0)
(0.0383292 0.000204176 0)
(0.0364633 0.000146762 0)
(0.0348805 0.000109124 0)
(0.0335163 8.52305e-05 0)
(0.032321 7.05059e-05 0)
(0.031257 6.16228e-05 0)
(0.030297 5.62669e-05 0)
(0.0294206 5.29033e-05 0)
(0.0286134 5.05688e-05 0)
(0.0278645 4.86972e-05 0)
(0.0271661 4.69836e-05 0)
(0.0265121 4.5285e-05 0)
(0.0258977 4.3552e-05 0)
(0.025319 4.17831e-05 0)
(0.024773 3.99987e-05 0)
(0.0242566 3.82248e-05 0)
(0.0237676 3.64856e-05 0)
(0.0233036 3.48004e-05 0)
(0.0228628 3.31824e-05 0)
(0.0224434 3.16399e-05 0)
(0.0220437 3.01768e-05 0)
(0.0216624 2.87938e-05 0)
(0.021298 2.74896e-05 0)
(0.0209495 2.62614e-05 0)
(0.0206156 2.51055e-05 0)
(0.0202956 2.40179e-05 0)
(0.0199883 2.29944e-05 0)
(0.0196931 2.20309e-05 0)
(0.0194091 2.11233e-05 0)
(0.0191358 2.02679e-05 0)
(0.0188723 1.94611e-05 0)
(0.0186183 1.86995e-05 0)
(0.0183731 1.79802e-05 0)
(0.0181362 1.73003e-05 0)
(0.0179072 1.66572e-05 0)
(0.0176857 1.60484e-05 0)
(0.0174712 1.54718e-05 0)
(0.0172634 1.49252e-05 0)
(0.017062 1.44067e-05 0)
(0.0168666 1.39147e-05 0)
(0.0166769 1.34473e-05 0)
(0.0164927 1.30032e-05 0)
(0.0163136 1.25809e-05 0)
(0.0161395 1.21791e-05 0)
(0.0159701 1.17965e-05 0)
(0.0158051 1.14321e-05 0)
(0.0156445 1.10848e-05 0)
(0.0154879 1.07536e-05 0)
(0.0153352 1.04376e-05 0)
(0.0151863 1.01359e-05 0)
(0.0150409 9.84777e-06 0)
(0.0148989 9.57248e-06 0)
(0.0147602 9.30932e-06 0)
(0.0146246 9.05767e-06 0)
(0.014492 8.81694e-06 0)
(0.0143623 8.58659e-06 0)
(0.0142353 8.36609e-06 0)
(0.014111 8.15498e-06 0)
(0.0139891 7.95286e-06 0)
(0.0138697 7.75927e-06 0)
(0.0137527 7.57389e-06 0)
(0.0136378 7.39639e-06 0)
(0.0135251 7.22642e-06 0)
(0.0134145 7.06375e-06 0)
(0.0133058 6.90811e-06 0)
(0.013199 6.75928e-06 0)
(0.013094 6.61706e-06 0)
(0.0129907 6.4813e-06 0)
(0.0128891 6.35184e-06 0)
(0.0127891 6.2286e-06 0)
(0.0126905 6.1115e-06 0)
(0.0125934 6.00049e-06 0)
(0.0124976 5.89561e-06 0)
(0.0124031 5.79693e-06 0)
(0.0123098 5.70464e-06 0)
(0.0122176 5.6191e-06 0)
(0.0121265 5.541e-06 0)
(0.0120363 5.47154e-06 0)
(0.0119469 5.41324e-06 0)
(0.0118582 5.37133e-06 0)
(0.0117699 5.35822e-06 0)
(0.0116816 5.4113e-06 0)
(0.0115913 5.55012e-06 0)
(0.0115153 5.05208e-06 0)
(0.0112633 3.48198e-05 0)
(0.189507 0.00946392 0)
(0.187167 0.00996763 0)
(0.183226 0.00974474 0)
(0.17804 0.00924753 0)
(0.172108 0.00861288 0)
(0.165777 0.00788752 0)
(0.159268 0.00711005 0)
(0.15275 0.00631605 0)
(0.146356 0.0055354 0)
(0.140188 0.00479266 0)
(0.134312 0.00410706 0)
(0.128768 0.00349181 0)
(0.123577 0.00295382 0)
(0.11874 0.00249423 0)
(0.114251 0.00210945 0)
(0.110093 0.00179258 0)
(0.106247 0.0015348 0)
(0.102689 0.00132667 0)
(0.0993962 0.00115903 0)
(0.0963447 0.00102365 0)
(0.0935122 0.00091353 0)
(0.0908777 0.000822951 0)
(0.0884219 0.000747426 0)
(0.0861276 0.000683519 0)
(0.0839791 0.000628655 0)
(0.0819627 0.000580923 0)
(0.0800661 0.000538918 0)
(0.0782784 0.000501599 0)
(0.0765899 0.000468189 0)
(0.0749921 0.000438094 0)
(0.0734775 0.000410852 0)
(0.0720392 0.000386094 0)
(0.0706713 0.000363516 0)
(0.0693683 0.000342865 0)
(0.0681253 0.000323925 0)
(0.0669382 0.000306509 0)
(0.0658028 0.000290457 0)
(0.0647157 0.000275627 0)
(0.0636736 0.000261896 0)
(0.0626736 0.000249156 0)
(0.061713 0.000237311 0)
(0.0607894 0.000226278 0)
(0.0599005 0.000215983 0)
(0.0590442 0.000206359 0)
(0.0582188 0.00019735 0)
(0.0574224 0.000188902 0)
(0.0566534 0.000180971 0)
(0.0559103 0.000173515 0)
(0.0551917 0.000166497 0)
(0.0544964 0.000159884 0)
(0.0538232 0.000153646 0)
(0.0531709 0.000147755 0)
(0.0525384 0.000142187 0)
(0.0519249 0.00013692 0)
(0.0513294 0.000131932 0)
(0.050751 0.000127206 0)
(0.0501889 0.000122723 0)
(0.0496424 0.000118468 0)
(0.0491107 0.000114426 0)
(0.0485933 0.000110584 0)
(0.0480894 0.00010693 0)
(0.0475984 0.000103452 0)
(0.0471198 0.000100139 0)
(0.0466531 9.69817e-05 0)
(0.0461978 9.39708e-05 0)
(0.0457533 9.1098e-05 0)
(0.0453192 8.83553e-05 0)
(0.0448951 8.57355e-05 0)
(0.0444806 8.32319e-05 0)
(0.0440753 8.0838e-05 0)
(0.0436789 7.85483e-05 0)
(0.0432909 7.6357e-05 0)
(0.0429111 7.42593e-05 0)
(0.042539 7.22505e-05 0)
(0.0421745 7.03261e-05 0)
(0.0418173 6.84823e-05 0)
(0.041467 6.67153e-05 0)
(0.0411233 6.50217e-05 0)
(0.0407861 6.33983e-05 0)
(0.0404551 6.18422e-05 0)
(0.0401299 6.03508e-05 0)
(0.0398105 5.89217e-05 0)
(0.0394966 5.75527e-05 0)
(0.0391879 5.6242e-05 0)
(0.0388843 5.49879e-05 0)
(0.0385855 5.3789e-05 0)
(0.0382913 5.26442e-05 0)
(0.0380015 5.15527e-05 0)
(0.0377159 5.05142e-05 0)
(0.0374343 4.9529e-05 0)
(0.0371565 4.85984e-05 0)
(0.0368822 4.77254e-05 0)
(0.0366112 4.69161e-05 0)
(0.0363432 4.61839e-05 0)
(0.0360779 4.55582e-05 0)
(0.0358147 4.51123e-05 0)
(0.0355524 4.50465e-05 0)
(0.0352876 4.58475e-05 0)
(0.0350394 5.1413e-05 0)
(0.0345277 0.000122151 0)
(0.192494 0.00909491 0)
(0.193255 0.0100459 0)
(0.193374 0.0103825 0)
(0.192704 0.0103918 0)
(0.191353 0.0101715 0)
(0.189441 0.00975964 0)
(0.187055 0.00920134 0)
(0.184283 0.00854662 0)
(0.181217 0.00784127 0)
(0.177944 0.00712417 0)
(0.174541 0.00642652 0)
(0.171072 0.00577124 0)
(0.167587 0.00517285 0)
(0.164126 0.00463828 0)
(0.160718 0.0041684 0)
(0.157382 0.00375975 0)
(0.154134 0.00340634 0)
(0.150979 0.00310102 0)
(0.147923 0.00283655 0)
(0.144966 0.00260628 0)
(0.142108 0.0024044 0)
(0.139348 0.00222609 0)
(0.136683 0.00206743 0)
(0.134112 0.0019253 0)
(0.13163 0.00179723 0)
(0.129236 0.00168124 0)
(0.126926 0.00157575 0)
(0.124697 0.00147949 0)
(0.122547 0.00139139 0)
(0.120472 0.00131057 0)
(0.11847 0.00123627 0)
(0.116537 0.00116782 0)
(0.11467 0.00110465 0)
(0.112868 0.00104625 0)
(0.111127 0.000992174 0)
(0.109445 0.000942012 0)
(0.107818 0.000895407 0)
(0.106246 0.000852039 0)
(0.104725 0.000811621 0)
(0.103253 0.000773894 0)
(0.101828 0.000738629 0)
(0.100448 0.000705619 0)
(0.0991106 0.000674678 0)
(0.0978145 0.000645638 0)
(0.0965577 0.00061835 0)
(0.0953384 0.000592676 0)
(0.0941552 0.000568496 0)
(0.0930063 0.000545697 0)
(0.0918904 0.000524179 0)
(0.0908061 0.00050385 0)
(0.0897519 0.000484627 0)
(0.0887268 0.000466433 0)
(0.0877294 0.000449198 0)
(0.0867586 0.00043286 0)
(0.0858133 0.000417358 0)
(0.0848926 0.00040264 0)
(0.0839953 0.000388655 0)
(0.0831207 0.000375358 0)
(0.0822677 0.000362706 0)
(0.0814356 0.00035066 0)
(0.0806234 0.000339184 0)
(0.0798306 0.000328245 0)
(0.0790562 0.00031781 0)
(0.0782996 0.000307852 0)
(0.0775602 0.000298343 0)
(0.0768373 0.000289257 0)
(0.0761302 0.000280572 0)
(0.0754384 0.000272266 0)
(0.0747614 0.000264319 0)
(0.0740985 0.000256711 0)
(0.0734493 0.000249425 0)
(0.0728133 0.000242445 0)
(0.07219 0.000235754 0)
(0.071579 0.00022934 0)
(0.0709798 0.000223188 0)
(0.070392 0.000217286 0)
(0.0698152 0.000211623 0)
(0.0692491 0.000206188 0)
(0.0686931 0.00020097 0)
(0.0681471 0.000195962 0)
(0.0676106 0.000191155 0)
(0.0670833 0.00018654 0)
(0.0665648 0.000182112 0)
(0.0660549 0.000177863 0)
(0.0655532 0.000173788 0)
(0.0650594 0.000169883 0)
(0.0645732 0.000166143 0)
(0.0640943 0.000162565 0)
(0.0636224 0.000159148 0)
(0.0631572 0.00015589 0)
(0.0626984 0.000152795 0)
(0.0622456 0.000149867 0)
(0.0617985 0.000147122 0)
(0.0613568 0.000144591 0)
(0.0609197 0.000142343 0)
(0.0604868 0.000140557 0)
(0.0600565 0.000139721 0)
(0.0596253 0.0001414 0)
(0.0592051 0.000157435 0)
(0.0585367 0.000246755 0)
(0.193534 0.00845361 0)
(0.194653 0.00949776 0)
(0.195673 0.0100553 0)
(0.196382 0.0103015 0)
(0.196754 0.0103161 0)
(0.196795 0.0101312 0)
(0.196499 0.00978227 0)
(0.195873 0.00931195 0)
(0.19494 0.00876217 0)
(0.193736 0.00817038 0)
(0.192303 0.00756845 0)
(0.190682 0.00698158 0)
(0.188916 0.00642774 0)
(0.187039 0.00591792 0)
(0.185083 0.00545708 0)
(0.183073 0.0050456 0)
(0.18103 0.00468079 0)
(0.178967 0.00435811 0)
(0.176897 0.00407232 0)
(0.174827 0.00381811 0)
(0.172765 0.0035906 0)
(0.170713 0.00338552 0)
(0.168677 0.0031993 0)
(0.166659 0.00302903 0)
(0.164661 0.00287237 0)
(0.162686 0.00272748 0)
(0.160734 0.0025929 0)
(0.158808 0.00246745 0)
(0.156909 0.0023502 0)
(0.155037 0.00224038 0)
(0.153195 0.00213733 0)
(0.151382 0.0020405 0)
(0.1496 0.00194941 0)
(0.147848 0.00186363 0)
(0.146128 0.00178277 0)
(0.144438 0.00170648 0)
(0.142781 0.00163446 0)
(0.141155 0.00156641 0)
(0.13956 0.00150207 0)
(0.137997 0.00144119 0)
(0.136464 0.00138354 0)
(0.134963 0.00132892 0)
(0.133491 0.00127714 0)
(0.13205 0.00122803 0)
(0.130638 0.0011814 0)
(0.129255 0.00113712 0)
(0.1279 0.00109504 0)
(0.126574 0.00105503 0)
(0.125275 0.00101696 0)
(0.124002 0.000980736 0)
(0.122756 0.000946236 0)
(0.121535 0.000913365 0)
(0.12034 0.000882032 0)
(0.119168 0.00085215 0)
(0.118021 0.000823639 0)
(0.116896 0.000796422 0)
(0.115795 0.000770431 0)
(0.114715 0.000745598 0)
(0.113657 0.000721861 0)
(0.112619 0.000699163 0)
(0.111602 0.000677448 0)
(0.110605 0.000656666 0)
(0.109627 0.000636768 0)
(0.108667 0.000617709 0)
(0.107726 0.000599446 0)
(0.106802 0.000581939 0)
(0.105896 0.000565151 0)
(0.105006 0.000549046 0)
(0.104132 0.000533591 0)
(0.103274 0.000518754 0)
(0.102431 0.000504506 0)
(0.101603 0.00049082 0)
(0.10079 0.000477669 0)
(0.0999906 0.000465029 0)
(0.0992047 0.000452878 0)
(0.0984321 0.000441193 0)
(0.0976723 0.000429954 0)
(0.096925 0.000419143 0)
(0.0961897 0.000408743 0)
(0.0954662 0.000398737 0)
(0.094754 0.00038911 0)
(0.0940529 0.000379849 0)
(0.0933624 0.00037094 0)
(0.0926824 0.000362372 0)
(0.0920124 0.000354136 0)
(0.0913521 0.000346221 0)
(0.0907011 0.000338621 0)
(0.0900593 0.00033133 0)
(0.0894262 0.000324342 0)
(0.0888015 0.000317658 0)
(0.0881848 0.000311279 0)
(0.0875759 0.000305215 0)
(0.0869743 0.00029949 0)
(0.0863796 0.000294153 0)
(0.0857912 0.000289321 0)
(0.0852084 0.000285287 0)
(0.0846297 0.000282868 0)
(0.0840523 0.000284875 0)
(0.0834845 0.000306728 0)
(0.0827058 0.000393684 0)
(0.194272 0.00794914 0)
(0.195251 0.00892735 0)
(0.196304 0.00952053 0)
(0.197263 0.00983863 0)
(0.198085 0.00995164 0)
(0.198751 0.00988906 0)
(0.199236 0.00967685 0)
(0.199516 0.00934696 0)
(0.199584 0.0089328 0)
(0.199443 0.00846572 0)
(0.199107 0.00797365 0)
(0.198597 0.00747995 0)
(0.197933 0.00700248 0)
(0.197142 0.00655341 0)
(0.196243 0.00613964 0)
(0.195258 0.00576378 0)
(0.194203 0.00542532 0)
(0.193092 0.00512169 0)
(0.191934 0.00484926 0)
(0.190739 0.00460401 0)
(0.189513 0.00438201 0)
(0.18826 0.00417972 0)
(0.186985 0.00399406 0)
(0.18569 0.00382252 0)
(0.18438 0.00366303 0)
(0.183055 0.00351395 0)
(0.181719 0.00337398 0)
(0.180373 0.00324207 0)
(0.17902 0.00311741 0)
(0.177661 0.00299932 0)
(0.176298 0.00288723 0)
(0.174933 0.00278068 0)
(0.173568 0.00267926 0)
(0.172203 0.00258263 0)
(0.170841 0.00249046 0)
(0.169482 0.00240248 0)
(0.168129 0.00231844 0)
(0.166781 0.0022381 0)
(0.165441 0.00216126 0)
(0.164108 0.00208772 0)
(0.162784 0.00201731 0)
(0.16147 0.00194987 0)
(0.160166 0.00188524 0)
(0.158873 0.00182328 0)
(0.157591 0.00176387 0)
(0.156321 0.00170687 0)
(0.155064 0.00165218 0)
(0.153819 0.00159969 0)
(0.152588 0.00154929 0)
(0.15137 0.0015009 0)
(0.150165 0.00145442 0)
(0.148974 0.00140976 0)
(0.147798 0.00136685 0)
(0.146635 0.00132561 0)
(0.145486 0.00128597 0)
(0.144351 0.00124785 0)
(0.143231 0.00121119 0)
(0.142125 0.00117593 0)
(0.141032 0.00114201 0)
(0.139954 0.00110937 0)
(0.13889 0.00107796 0)
(0.13784 0.00104772 0)
(0.136803 0.0010186 0)
(0.135781 0.000990566 0)
(0.134771 0.000963558 0)
(0.133775 0.000937539 0)
(0.132793 0.000912467 0)
(0.131823 0.000888303 0)
(0.130866 0.00086501 0)
(0.129922 0.000842551 0)
(0.12899 0.000820893 0)
(0.128071 0.000800004 0)
(0.127163 0.000779853 0)
(0.126268 0.000760411 0)
(0.125384 0.000741651 0)
(0.124512 0.000723547 0)
(0.123651 0.000706073 0)
(0.122801 0.000689208 0)
(0.121962 0.000672929 0)
(0.121134 0.000657217 0)
(0.120316 0.000642051 0)
(0.119508 0.000627416 0)
(0.11871 0.000613294 0)
(0.117922 0.000599671 0)
(0.117143 0.000586534 0)
(0.116374 0.000573872 0)
(0.115614 0.000561674 0)
(0.114862 0.000549934 0)
(0.114119 0.000538646 0)
(0.113385 0.000527809 0)
(0.112658 0.000517429 0)
(0.111939 0.000507517 0)
(0.111227 0.000498109 0)
(0.110523 0.000489273 0)
(0.109825 0.000481173 0)
(0.109132 0.000474209 0)
(0.108445 0.000469487 0)
(0.10776 0.000470661 0)
(0.107088 0.000492423 0)
(0.106239 0.000562236 0)
(0.194902 0.00751598 0)
(0.195707 0.00838981 0)
(0.196628 0.0089679 0)
(0.19754 0.00931013 0)
(0.198397 0.00947 0)
(0.199178 0.00947439 0)
(0.199861 0.00934447 0)
(0.200423 0.00910568 0)
(0.200848 0.00878565 0)
(0.201132 0.00841095 0)
(0.201276 0.00800568 0)
(0.201289 0.0075905 0)
(0.201182 0.0071818 0)
(0.20097 0.00679139 0)
(0.200667 0.00642667 0)
(0.200286 0.00609129 0)
(0.19984 0.00578601 0)
(0.199338 0.00550963 0)
(0.19879 0.00525972 0)
(0.1982 0.00503329 0)
(0.197575 0.00482724 0)
(0.196917 0.00463864 0)
(0.19623 0.00446489 0)
(0.195516 0.00430375 0)
(0.194776 0.00415338 0)
(0.194012 0.00401226 0)
(0.193226 0.00387919 0)
(0.192419 0.0037532 0)
(0.191592 0.00363349 0)
(0.190746 0.00351945 0)
(0.189883 0.00341055 0)
(0.189004 0.00330635 0)
(0.18811 0.00320651 0)
(0.187203 0.0031107 0)
(0.186282 0.00301865 0)
(0.185351 0.00293014 0)
(0.184409 0.00284494 0)
(0.183458 0.00276287 0)
(0.182498 0.00268376 0)
(0.181531 0.00260746 0)
(0.180558 0.00253383 0)
(0.179579 0.00246275 0)
(0.178596 0.00239409 0)
(0.177609 0.00232776 0)
(0.176619 0.00226365 0)
(0.175627 0.00220167 0)
(0.174633 0.00214173 0)
(0.173639 0.00208377 0)
(0.172644 0.0020277 0)
(0.17165 0.00197345 0)
(0.170656 0.00192095 0)
(0.169664 0.00187015 0)
(0.168674 0.00182098 0)
(0.167687 0.00177339 0)
(0.166702 0.00172733 0)
(0.165721 0.00168273 0)
(0.164743 0.00163955 0)
(0.163769 0.00159774 0)
(0.1628 0.00155725 0)
(0.161836 0.00151805 0)
(0.160876 0.00148008 0)
(0.159921 0.0014433 0)
(0.158972 0.00140768 0)
(0.158029 0.00137318 0)
(0.157091 0.00133976 0)
(0.15616 0.00130737 0)
(0.155234 0.001276 0)
(0.154315 0.0012456 0)
(0.153402 0.00121614 0)
(0.152496 0.0011876 0)
(0.151596 0.00115993 0)
(0.150703 0.00113312 0)
(0.149817 0.00110713 0)
(0.148937 0.00108194 0)
(0.148064 0.00105752 0)
(0.147198 0.00103386 0)
(0.146339 0.00101092 0)
(0.145486 0.000988683 0)
(0.144641 0.000967133 0)
(0.143802 0.00094625 0)
(0.14297 0.000926014 0)
(0.142145 0.00090641 0)
(0.141326 0.000887422 0)
(0.140515 0.000869037 0)
(0.139709 0.000851243 0)
(0.13891 0.000834029 0)
(0.138118 0.000817388 0)
(0.137332 0.000801312 0)
(0.136552 0.0007858 0)
(0.135778 0.000770854 0)
(0.13501 0.000756481 0)
(0.134248 0.000742704 0)
(0.133491 0.000729565 0)
(0.13274 0.000717154 0)
(0.131993 0.000705673 0)
(0.131251 0.000695599 0)
(0.130513 0.000688189 0)
(0.129779 0.000687169 0)
(0.129061 0.000703745 0)
(0.128192 0.00074777 0)
(0.195457 0.00714629 0)
(0.196121 0.00791672 0)
(0.196904 0.00846311 0)
(0.197713 0.00881019 0)
(0.198502 0.00899405 0)
(0.199249 0.00903795 0)
(0.199934 0.00896046 0)
(0.200538 0.00878292 0)
(0.201049 0.00852878 0)
(0.20146 0.00822097 0)
(0.201769 0.00788049 0)
(0.201982 0.00752553 0)
(0.202105 0.00717091 0)
(0.202148 0.0068277 0)
(0.202121 0.0065033 0)
(0.202034 0.00620192 0)
(0.201896 0.00592514 0)
(0.201715 0.00567271 0)
(0.201498 0.00544314 0)
(0.201248 0.00523427 0)
(0.200971 0.00504367 0)
(0.200669 0.00486894 0)
(0.200342 0.00470783 0)
(0.199994 0.00455837 0)
(0.199625 0.0044189 0)
(0.199236 0.00428801 0)
(0.198827 0.00416455 0)
(0.198399 0.00404759 0)
(0.197952 0.00393636 0)
(0.197487 0.00383025 0)
(0.197005 0.00372874 0)
(0.196505 0.00363141 0)
(0.195989 0.0035379 0)
(0.195457 0.00344792 0)
(0.194909 0.00336119 0)
(0.194347 0.00327749 0)
(0.19377 0.00319663 0)
(0.193179 0.00311844 0)
(0.192575 0.00304275 0)
(0.191959 0.00296942 0)
(0.19133 0.00289835 0)
(0.19069 0.00282941 0)
(0.190039 0.0027625 0)
(0.189378 0.00269754 0)
(0.188706 0.00263444 0)
(0.188026 0.00257313 0)
(0.187337 0.00251354 0)
(0.186639 0.0024556 0)
(0.185934 0.00239926 0)
(0.185221 0.00234447 0)
(0.184502 0.00229116 0)
(0.183777 0.0022393 0)
(0.183046 0.00218884 0)
(0.182309 0.00213973 0)
(0.181568 0.00209194 0)
(0.180822 0.00204543 0)
(0.180072 0.00200015 0)
(0.179319 0.00195608 0)
(0.178562 0.00191318 0)
(0.177802 0.00187142 0)
(0.17704 0.00183076 0)
(0.176276 0.00179117 0)
(0.175509 0.00175264 0)
(0.174742 0.00171512 0)
(0.173972 0.00167858 0)
(0.173202 0.00164301 0)
(0.172432 0.00160838 0)
(0.171661 0.00157465 0)
(0.170889 0.00154182 0)
(0.170118 0.00150984 0)
(0.169347 0.00147871 0)
(0.168577 0.00144839 0)
(0.167808 0.00141887 0)
(0.167039 0.00139013 0)
(0.166271 0.00136215 0)
(0.165505 0.0013349 0)
(0.16474 0.00130838 0)
(0.163977 0.00128256 0)
(0.163216 0.00125744 0)
(0.162456 0.00123298 0)
(0.161698 0.0012092 0)
(0.160943 0.00118606 0)
(0.160189 0.00116356 0)
(0.159438 0.00114169 0)
(0.158689 0.00112044 0)
(0.157942 0.0010998 0)
(0.157198 0.00107978 0)
(0.156456 0.00106037 0)
(0.155717 0.00104158 0)
(0.15498 0.0010234 0)
(0.154246 0.00100586 0)
(0.153514 0.00098898 0)
(0.152784 0.000972821 0)
(0.152057 0.000957486 0)
(0.151332 0.000943198 0)
(0.150608 0.000930457 0)
(0.149887 0.000920472 0)
(0.149169 0.000916295 0)
(0.148469 0.000924443 0)
(0.147637 0.000940022 0)
(0.195947 0.00682824 0)
(0.196504 0.00750393 0)
(0.197168 0.00800981 0)
(0.197873 0.00835001 0)
(0.198579 0.00854614 0)
(0.199259 0.00861676 0)
(0.199895 0.00857786 0)
(0.200472 0.00844727 0)
(0.200977 0.00824471 0)
(0.201406 0.00798991 0)
(0.201755 0.00770117 0)
(0.202028 0.00739462 0)
(0.202231 0.00708365 0)
(0.202369 0.0067786 0)
(0.202452 0.00648677 0)
(0.202488 0.00621268 0)
(0.202484 0.00595856 0)
(0.202448 0.00572491 0)
(0.202384 0.00551103 0)
(0.202297 0.00531546 0)
(0.20219 0.0051364 0)
(0.202066 0.00497192 0)
(0.201926 0.00482014 0)
(0.201771 0.00467937 0)
(0.201603 0.00454812 0)
(0.201422 0.00442511 0)
(0.201227 0.00430925 0)
(0.20102 0.00419967 0)
(0.2008 0.00409561 0)
(0.200568 0.00399647 0)
(0.200323 0.00390173 0)
(0.200065 0.00381096 0)
(0.199795 0.0037238 0)
(0.199513 0.00363994 0)
(0.199219 0.00355911 0)
(0.198912 0.00348109 0)
(0.198594 0.00340567 0)
(0.198264 0.00333267 0)
(0.197922 0.00326194 0)
(0.197569 0.00319334 0)
(0.197205 0.00312674 0)
(0.196829 0.00306203 0)
(0.196443 0.00299912 0)
(0.196046 0.00293791 0)
(0.195638 0.00287833 0)
(0.19522 0.0028203 0)
(0.194793 0.00276376 0)
(0.194355 0.00270864 0)
(0.193908 0.0026549 0)
(0.193452 0.00260248 0)
(0.192987 0.00255133 0)
(0.192513 0.00250142 0)
(0.19203 0.00245271 0)
(0.191539 0.00240515 0)
(0.191041 0.00235871 0)
(0.190534 0.00231336 0)
(0.19002 0.00226907 0)
(0.189499 0.00222581 0)
(0.188971 0.00218354 0)
(0.188436 0.00214225 0)
(0.187894 0.00210191 0)
(0.187347 0.00206249 0)
(0.186793 0.00202398 0)
(0.186234 0.00198634 0)
(0.185669 0.00194955 0)
(0.1851 0.0019136 0)
(0.184525 0.00187847 0)
(0.183945 0.00184413 0)
(0.183361 0.00181056 0)
(0.182772 0.00177776 0)
(0.182179 0.00174569 0)
(0.181583 0.00171436 0)
(0.180983 0.00168373 0)
(0.180379 0.00165379 0)
(0.179772 0.00162454 0)
(0.179162 0.00159595 0)
(0.178549 0.00156802 0)
(0.177933 0.00154074 0)
(0.177314 0.00151408 0)
(0.176694 0.00148805 0)
(0.17607 0.00146263 0)
(0.175445 0.00143782 0)
(0.174818 0.00141361 0)
(0.174189 0.00139 0)
(0.173559 0.00136698 0)
(0.172926 0.00134456 0)
(0.172293 0.00132273 0)
(0.171657 0.00130149 0)
(0.171021 0.00128087 0)
(0.170383 0.00126086 0)
(0.169744 0.00124149 0)
(0.169104 0.0012228 0)
(0.168463 0.00120485 0)
(0.167821 0.00118776 0)
(0.167177 0.00117174 0)
(0.166533 0.00115725 0)
(0.165888 0.00114525 0)
(0.165246 0.00113768 0)
(0.164619 0.00113642 0)
(0.163878 0.00112633 0)
(0.196382 0.00654903 0)
(0.196855 0.00714061 0)
(0.197421 0.00760268 0)
(0.198035 0.00792902 0)
(0.198659 0.00813049 0)
(0.19927 0.00822051 0)
(0.199849 0.00821218 0)
(0.200382 0.00812015 0)
(0.200858 0.00796079 0)
(0.201271 0.00775088 0)
(0.201618 0.00750631 0)
(0.201902 0.00724131 0)
(0.202127 0.00696795 0)
(0.202297 0.00669585 0)
(0.202421 0.00643208 0)
(0.202504 0.00618136 0)
(0.202554 0.00594638 0)
(0.202577 0.00572827 0)
(0.202577 0.00552697 0)
(0.202559 0.00534168 0)
(0.202526 0.00517115 0)
(0.20248 0.0050139 0)
(0.202424 0.00486845 0)
(0.202358 0.00473338 0)
(0.202284 0.00460741 0)
(0.202202 0.00448938 0)
(0.202112 0.00437834 0)
(0.202015 0.00427345 0)
(0.201911 0.004174 0)
(0.201799 0.0040794 0)
(0.20168 0.00398916 0)
(0.201553 0.00390286 0)
(0.20142 0.00382012 0)
(0.201278 0.00374064 0)
(0.20113 0.00366414 0)
(0.200974 0.0035904 0)
(0.20081 0.00351921 0)
(0.200638 0.00345038 0)
(0.200459 0.00338375 0)
(0.200272 0.00331918 0)
(0.200077 0.00325654 0)
(0.199875 0.00319571 0)
(0.199664 0.00313659 0)
(0.199446 0.00307909 0)
(0.19922 0.00302313 0)
(0.198986 0.00296862 0)
(0.198744 0.0029155 0)
(0.198494 0.0028637 0)
(0.198237 0.00281318 0)
(0.197971 0.00276387 0)
(0.197698 0.00271573 0)
(0.197417 0.00266871 0)
(0.197129 0.00262278 0)
(0.196832 0.00257789 0)
(0.196529 0.00253401 0)
(0.196217 0.00249111 0)
(0.195899 0.00244915 0)
(0.195572 0.0024081 0)
(0.195239 0.00236794 0)
(0.194899 0.00232865 0)
(0.194551 0.00229019 0)
(0.194197 0.00225255 0)
(0.193835 0.00221569 0)
(0.193467 0.00217961 0)
(0.193092 0.00214427 0)
(0.192711 0.00210966 0)
(0.192323 0.00207577 0)
(0.191929 0.00204257 0)
(0.191528 0.00201005 0)
(0.191122 0.00197819 0)
(0.190709 0.00194698 0)
(0.190291 0.0019164 0)
(0.189867 0.00188644 0)
(0.189438 0.00185708 0)
(0.189003 0.00182833 0)
(0.188562 0.00180015 0)
(0.188116 0.00177256 0)
(0.187666 0.00174553 0)
(0.18721 0.00171906 0)
(0.186749 0.00169314 0)
(0.186284 0.00166777 0)
(0.185813 0.00164295 0)
(0.185339 0.00161866 0)
(0.184859 0.00159492 0)
(0.184376 0.00157171 0)
(0.183888 0.00154905 0)
(0.183396 0.00152693 0)
(0.1829 0.00150538 0)
(0.1824 0.00148439 0)
(0.181896 0.00146399 0)
(0.181388 0.0014442 0)
(0.180876 0.00142507 0)
(0.180361 0.00140666 0)
(0.179842 0.00138908 0)
(0.179319 0.00137253 0)
(0.178793 0.00135736 0)
(0.178264 0.00134417 0)
(0.177737 0.00133362 0)
(0.177221 0.00132398 0)
(0.176605 0.00129491 0)
(0.19677 0.00629987 0)
(0.197177 0.0068184 0)
(0.197662 0.0072371 0)
(0.198195 0.00754548 0)
(0.198746 0.00774718 0)
(0.199292 0.00785093 0)
(0.199815 0.00786692 0)
(0.200302 0.00780699 0)
(0.200743 0.00768456 0)
(0.201132 0.00751372 0)
(0.201466 0.00730812 0)
(0.201745 0.00708022 0)
(0.201973 0.00684083 0)
(0.202153 0.00659875 0)
(0.202291 0.00636076 0)
(0.202394 0.0061316 0)
(0.202466 0.0059143 0)
(0.202513 0.00571044 0)
(0.20254 0.00552053 0)
(0.202551 0.00534429 0)
(0.202549 0.00518098 0)
(0.202537 0.00502957 0)
(0.202515 0.00488892 0)
(0.202487 0.0047579 0)
(0.202453 0.00463544 0)
(0.202413 0.00452057 0)
(0.202369 0.00441242 0)
(0.20232 0.00431025 0)
(0.202267 0.00421341 0)
(0.20221 0.00412136 0)
(0.202149 0.00403362 0)
(0.202084 0.0039498 0)
(0.202016 0.00386953 0)
(0.201944 0.00379252 0)
(0.201867 0.00371851 0)
(0.201787 0.00364726 0)
(0.201703 0.00357857 0)
(0.201615 0.00351226 0)
(0.201522 0.00344816 0)
(0.201426 0.00338613 0)
(0.201325 0.00332604 0)
(0.20122 0.00326777 0)
(0.20111 0.00321122 0)
(0.200995 0.0031563 0)
(0.200876 0.00310291 0)
(0.200753 0.00305097 0)
(0.200624 0.00300042 0)
(0.20049 0.00295119 0)
(0.200351 0.00290321 0)
(0.200208 0.00285644 0)
(0.200059 0.00281082 0)
(0.199904 0.00276629 0)
(0.199745 0.00272283 0)
(0.19958 0.00268039 0)
(0.199409 0.00263892 0)
(0.199233 0.00259839 0)
(0.199052 0.00255878 0)
(0.198865 0.00252004 0)
(0.198672 0.00248215 0)
(0.198474 0.00244508 0)
(0.19827 0.00240879 0)
(0.19806 0.00237328 0)
(0.197845 0.00233851 0)
(0.197623 0.00230446 0)
(0.197396 0.0022711 0)
(0.197164 0.00223842 0)
(0.196925 0.00220641 0)
(0.196681 0.00217503 0)
(0.196431 0.00214427 0)
(0.196175 0.00211412 0)
(0.195914 0.00208456 0)
(0.195646 0.00205558 0)
(0.195374 0.00202716 0)
(0.195095 0.00199928 0)
(0.194811 0.00197195 0)
(0.194521 0.00194515 0)
(0.194225 0.00191887 0)
(0.193925 0.0018931 0)
(0.193618 0.00186783 0)
(0.193306 0.00184306 0)
(0.192989 0.00181879 0)
(0.192666 0.001795 0)
(0.192337 0.00177171 0)
(0.192004 0.00174891 0)
(0.191665 0.0017266 0)
(0.191321 0.00170479 0)
(0.190971 0.00168349 0)
(0.190617 0.0016627 0)
(0.190257 0.00164244 0)
(0.189892 0.00162274 0)
(0.189522 0.00160361 0)
(0.189146 0.00158511 0)
(0.188766 0.0015673 0)
(0.18838 0.00155027 0)
(0.18799 0.00153416 0)
(0.187595 0.00151921 0)
(0.187197 0.00150561 0)
(0.186798 0.00149296 0)
(0.186406 0.00147724 0)
(0.185928 0.00143757 0)
(0.197117 0.00607482 0)
(0.19747 0.00653057 0)
(0.197889 0.00690831 0)
(0.198352 0.00719658 0)
(0.198838 0.00739461 0)
(0.199324 0.0075074 0)
(0.199795 0.00754246 0)
(0.200238 0.00750914 0)
(0.200644 0.00741832 0)
(0.201007 0.00728166 0)
(0.201323 0.00711076 0)
(0.201592 0.00691642 0)
(0.201817 0.00670818 0)
(0.201999 0.00649406 0)
(0.202143 0.00628041 0)
(0.202254 0.00607189 0)
(0.202338 0.00587172 0)
(0.202398 0.00568181 0)
(0.202438 0.0055031 0)
(0.202463 0.00533577 0)
(0.202475 0.00517949 0)
(0.202478 0.00503364 0)
(0.202472 0.00489741 0)
(0.20246 0.00476993 0)
(0.202442 0.00465036 0)
(0.20242 0.00453789 0)
(0.202394 0.00443179 0)
(0.202366 0.0043314 0)
(0.202334 0.00423615 0)
(0.2023 0.00414556 0)
(0.202263 0.00405917 0)
(0.202225 0.00397663 0)
(0.202184 0.0038976 0)
(0.202142 0.0038218 0)
(0.202098 0.00374898 0)
(0.202052 0.00367892 0)
(0.202004 0.00361142 0)
(0.201954 0.00354631 0)
(0.201902 0.00348343 0)
(0.201849 0.00342264 0)
(0.201793 0.00336382 0)
(0.201736 0.00330685 0)
(0.201676 0.00325163 0)
(0.201615 0.00319806 0)
(0.201551 0.00314605 0)
(0.201485 0.00309554 0)
(0.201416 0.00304643 0)
(0.201345 0.00299868 0)
(0.201271 0.00295222 0)
(0.201195 0.00290698 0)
(0.201116 0.00286292 0)
(0.201034 0.00281999 0)
(0.200949 0.00277814 0)
(0.200861 0.00273733 0)
(0.20077 0.00269751 0)
(0.200675 0.00265866 0)
(0.200578 0.00262073 0)
(0.200477 0.00258369 0)
(0.200372 0.0025475 0)
(0.200264 0.00251215 0)
(0.200152 0.00247759 0)
(0.200037 0.0024438 0)
(0.199918 0.00241075 0)
(0.199794 0.00237843 0)
(0.199667 0.0023468 0)
(0.199536 0.00231584 0)
(0.199401 0.00228553 0)
(0.199261 0.00225586 0)
(0.199117 0.00222679 0)
(0.198969 0.00219832 0)
(0.198817 0.00217043 0)
(0.19866 0.0021431 0)
(0.198499 0.00211632 0)
(0.198333 0.00209007 0)
(0.198163 0.00206433 0)
(0.197988 0.00203911 0)
(0.197808 0.00201439 0)
(0.197624 0.00199015 0)
(0.197435 0.0019664 0)
(0.197241 0.00194312 0)
(0.197043 0.00192032 0)
(0.196839 0.00189798 0)
(0.196631 0.00187611 0)
(0.196418 0.0018547 0)
(0.1962 0.00183377 0)
(0.195977 0.00181331 0)
(0.195749 0.00179333 0)
(0.195516 0.00177385 0)
(0.195278 0.00175488 0)
(0.195035 0.00173644 0)
(0.194787 0.00171856 0)
(0.194534 0.00170128 0)
(0.194276 0.00168466 0)
(0.194012 0.00166876 0)
(0.193744 0.00165369 0)
(0.193471 0.00163952 0)
(0.193194 0.0016261 0)
(0.192915 0.0016123 0)
(0.19264 0.00159326 0)
(0.192292 0.00155087 0)
(0.197429 0.0058697 0)
(0.197737 0.0062717 0)
(0.198101 0.00661184 0)
(0.198505 0.00687927 0)
(0.198931 0.00707089 0)
(0.199363 0.00718893 0)
(0.199785 0.00723861 0)
(0.200187 0.00722714 0)
(0.200559 0.00716318 0)
(0.200896 0.0070563 0)
(0.201194 0.00691619 0)
(0.201451 0.00675213 0)
(0.201669 0.00657248 0)
(0.201849 0.00638444 0)
(0.201996 0.00619386 0)
(0.202112 0.00600527 0)
(0.202202 0.00582191 0)
(0.20227 0.00564592 0)
(0.202319 0.00547857 0)
(0.202353 0.00532038 0)
(0.202374 0.00517142 0)
(0.202385 0.00503137 0)
(0.202388 0.00489974 0)
(0.202384 0.00477592 0)
(0.202375 0.00465926 0)
(0.202361 0.00454912 0)
(0.202344 0.0044449 0)
(0.202324 0.00434605 0)
(0.202302 0.00425207 0)
(0.202277 0.00416254 0)
(0.202251 0.00407705 0)
(0.202223 0.00399528 0)
(0.202194 0.00391693 0)
(0.202164 0.00384173 0)
(0.202133 0.00376945 0)
(0.202101 0.00369989 0)
(0.202068 0.00363286 0)
(0.202035 0.0035682 0)
(0.202 0.00350577 0)
(0.201965 0.00344543 0)
(0.20193 0.00338706 0)
(0.201893 0.00333055 0)
(0.201856 0.00327581 0)
(0.201818 0.00322273 0)
(0.201779 0.00317125 0)
(0.20174 0.00312129 0)
(0.2017 0.00307276 0)
(0.201658 0.00302562 0)
(0.201616 0.0029798 0)
(0.201573 0.00293524 0)
(0.201528 0.00289189 0)
(0.201483 0.0028497 0)
(0.201436 0.00280863 0)
(0.201388 0.00276863 0)
(0.201338 0.00272966 0)
(0.201287 0.00269168 0)
(0.201235 0.00265467 0)
(0.201181 0.00261857 0)
(0.201125 0.00258336 0)
(0.201067 0.00254901 0)
(0.201007 0.00251548 0)
(0.200946 0.00248276 0)
(0.200882 0.0024508 0)
(0.200816 0.00241959 0)
(0.200748 0.0023891 0)
(0.200678 0.0023593 0)
(0.200605 0.00233018 0)
(0.20053 0.00230171 0)
(0.200452 0.00227387 0)
(0.200372 0.00224663 0)
(0.200289 0.00222 0)
(0.200203 0.00219394 0)
(0.200114 0.00216843 0)
(0.200022 0.00214347 0)
(0.199927 0.00211905 0)
(0.199829 0.00209514 0)
(0.199728 0.00207173 0)
(0.199623 0.00204883 0)
(0.199516 0.00202641 0)
(0.199404 0.00200447 0)
(0.19929 0.00198301 0)
(0.199171 0.00196202 0)
(0.19905 0.0019415 0)
(0.198924 0.00192145 0)
(0.198795 0.00190187 0)
(0.198661 0.00188276 0)
(0.198524 0.00186414 0)
(0.198383 0.00184602 0)
(0.198238 0.00182841 0)
(0.198088 0.00181133 0)
(0.197935 0.00179481 0)
(0.197777 0.00177889 0)
(0.197615 0.0017636 0)
(0.197448 0.001749 0)
(0.197278 0.00173512 0)
(0.197103 0.00172191 0)
(0.196925 0.00170901 0)
(0.196745 0.00169493 0)
(0.196564 0.00167502 0)
(0.196327 0.00163575 0)