/*--------------------------------*- C++ -*----------------------------------*\
| =========                 |                                                 |
| \\      /  F ield         | OpenFOAM: The Open Source CFD Toolbox           |
|  \\    /   O peration     | Version:  2.3.0                                 |
|   \\  /    A nd           | Web:      www.OpenFOAM.org                      |
|    \\/     M anipulation  |                                                 |
\*---------------------------------------------------------------------------*/
FoamFile
{
    version     2.0;
    format      ascii;
    class       volVectorField;
    location    "0.4";
    object      U_0;
}
// * * * * * * * * * * * * * * * * * * * * * * * * * * * * * * * * * * * * * //

dimensions      [0 1 -1 0 0 0 0];

internalField   nonuniform List<vector> 
1650
(
(0.179819 0.00363667 0)
(0.159957 0.0049497 0)
(0.141208 0.00497948 0)
(0.122611 0.00448382 0)
(0.104463 0.00390161 0)
(0.0875262 0.00323722 0)
(0.0729351 0.00245751 0)
(0.0613872 0.0015553 0)
(0.05295 0.000737544 0)
(0.0470655 0.000200578 0)
(0.0429965 -5.65731e-05 0)
(0.0401623 -0.000140786 0)
(0.0381326 -0.000140355 0)
(0.0365951 -0.000105079 0)
(0.0353316 -5.80181e-05 0)
(0.0342084 -1.47623e-05 0)
(0.0331549 1.76677e-05 0)
(0.0321445 3.8204e-05 0)
(0.0311786 4.73164e-05 0)
(0.0302694 4.91972e-05 0)
(0.0294187 4.94798e-05 0)
(0.0286169 4.88199e-05 0)
(0.0278659 4.49122e-05 0)
(0.0271767 3.92872e-05 0)
(0.0265492 3.55797e-05 0)
(0.0259676 3.39158e-05 0)
(0.0254223 3.18013e-05 0)
(0.0249159 2.84555e-05 0)
(0.0244525 2.5118e-05 0)
(0.0240259 2.31048e-05 0)
(0.0236277 2.19637e-05 0)
(0.023253 2.07246e-05 0)
(0.0229033 1.91332e-05 0)
(0.0225794 1.73481e-05 0)
(0.0222837 1.53235e-05 0)
(0.0220146 1.35733e-05 0)
(0.0217705 1.2284e-05 0)
(0.0215464 1.13224e-05 0)
(0.0213422 1.03376e-05 0)
(0.0211571 9.18271e-06 0)
(0.0209935 7.88575e-06 0)
(0.0208507 6.56343e-06 0)
(0.0207296 5.28173e-06 0)
(0.0206283 4.01499e-06 0)
(0.0205467 2.95341e-06 0)
(0.0204831 1.96318e-06 0)
(0.0204377 1.08063e-06 0)
(0.0204094 3.07759e-07 0)
(0.0203969 -3.30849e-07 0)
(0.0203986 -1.35368e-06 0)
(0.0204114 -1.94461e-06 0)
(0.0204326 -2.23689e-06 0)
(0.0204572 -2.41467e-06 0)
(0.0204836 -2.20933e-06 0)
(0.0205069 -1.94596e-06 0)
(0.0205282 -1.46228e-06 0)
(0.0205437 -1.17669e-06 0)
(0.0205582 -7.3888e-07 0)
(0.0205657 -5.91792e-07 0)
(0.0205758 -2.71643e-07 0)
(0.193414 0.00633958 0)
(0.191712 0.0089245 0)
(0.189166 0.0096585 0)
(0.185187 0.0094756 0)
(0.179599 0.0090364 0)
(0.172564 0.00841459 0)
(0.164688 0.00753373 0)
(0.156493 0.00634025 0)
(0.148441 0.00499348 0)
(0.140797 0.00374058 0)
(0.133648 0.00274175 0)
(0.127065 0.00201714 0)
(0.121099 0.00151385 0)
(0.115755 0.00117935 0)
(0.110978 0.00096808 0)
(0.106694 0.000835714 0)
(0.102825 0.000747915 0)
(0.0993081 0.000682259 0)
(0.0960998 0.000621997 0)
(0.0931596 0.000564931 0)
(0.0904522 0.000519024 0)
(0.0879487 0.000480934 0)
(0.0856329 0.000438826 0)
(0.0834931 0.000394224 0)
(0.0815154 0.000357971 0)
(0.0796764 0.000330894 0)
(0.0779603 0.000304909 0)
(0.0763617 0.000277096 0)
(0.07488 0.000251185 0)
(0.0735015 0.000230881 0)
(0.0722152 0.000214213 0)
(0.0710114 0.000197909 0)
(0.0698905 0.000181166 0)
(0.0688495 0.000164594 0)
(0.0678912 0.000148057 0)
(0.0670089 0.00013306 0)
(0.0662014 0.000119994 0)
(0.0654596 0.000108351 0)
(0.0647855 9.69605e-05 0)
(0.0641742 8.54273e-05 0)
(0.0636306 7.38212e-05 0)
(0.0631496 6.2589e-05 0)
(0.0627341 5.19069e-05 0)
(0.0623785 4.17424e-05 0)
(0.062083 3.2535e-05 0)
(0.0618436 2.38072e-05 0)
(0.0616584 1.57427e-05 0)
(0.061524 8.63142e-06 0)
(0.0614342 2.54962e-06 0)
(0.0613851 -2.74705e-06 0)
(0.0613658 -7.13485e-06 0)
(0.0613709 -9.29257e-06 0)
(0.061388 -1.02721e-05 0)
(0.0614141 -9.57625e-06 0)
(0.0614386 -8.60174e-06 0)
(0.061464 -6.72816e-06 0)
(0.0614823 -5.68211e-06 0)
(0.0615016 -3.89591e-06 0)
(0.061511 -3.31369e-06 0)
(0.0615262 -1.87118e-06 0)
(0.194142 0.00583193 0)
(0.194378 0.0081128 0)
(0.195196 0.00936862 0)
(0.195981 0.00974492 0)
(0.196189 0.00971549 0)
(0.195546 0.00946141 0)
(0.194049 0.00892591 0)
(0.191785 0.00807167 0)
(0.188894 0.00700901 0)
(0.18554 0.00593067 0)
(0.181851 0.00500156 0)
(0.177962 0.00427721 0)
(0.174011 0.00372272 0)
(0.170089 0.0032947 0)
(0.166238 0.0029584 0)
(0.162482 0.00268429 0)
(0.158829 0.00245321 0)
(0.155283 0.00225069 0)
(0.151849 0.00206053 0)
(0.148514 0.00188204 0)
(0.145278 0.00172716 0)
(0.142157 0.001591 0)
(0.139164 0.00145581 0)
(0.136298 0.00132372 0)
(0.133563 0.0012111 0)
(0.130958 0.00111879 0)
(0.128479 0.00103214 0)
(0.126118 0.000944212 0)
(0.123878 0.000861406 0)
(0.121755 0.00079153 0)
(0.119749 0.000731605 0)
(0.117853 0.000675421 0)
(0.11607 0.000620347 0)
(0.114393 0.000566355 0)
(0.112827 0.00051317 0)
(0.111362 0.000463951 0)
(0.110002 0.000419638 0)
(0.108737 0.000379302 0)
(0.107572 0.00034044 0)
(0.106502 0.000302181 0)
(0.105532 0.000264442 0)
(0.104655 0.00022815 0)
(0.103875 0.000193593 0)
(0.103185 0.000160995 0)
(0.102585 0.000130817 0)
(0.102071 0.000102344 0)
(0.101641 7.58548e-05 0)
(0.101291 5.21285e-05 0)
(0.101012 3.14285e-05 0)
(0.1008 1.47921e-05 0)
(0.100643 1.44093e-06 0)
(0.10053 -6.65821e-06 0)
(0.100451 -1.13679e-05 0)
(0.100393 -1.22266e-05 0)
(0.100355 -1.22684e-05 0)
(0.100318 -9.96534e-06 0)
(0.100298 -8.77118e-06 0)
(0.100267 -6.07073e-06 0)
(0.100258 -5.31195e-06 0)
(0.100228 -2.95612e-06 0)
(0.194923 0.00549013 0)
(0.195127 0.00720771 0)
(0.195973 0.00850396 0)
(0.197274 0.00910841 0)
(0.198599 0.00924185 0)
(0.199649 0.00911235 0)
(0.200296 0.00875006 0)
(0.20049 0.00814284 0)
(0.200217 0.00735529 0)
(0.199502 0.00651238 0)
(0.19839 0.00574715 0)
(0.19697 0.00513365 0)
(0.195349 0.00466195 0)
(0.193599 0.00429333 0)
(0.191762 0.00399639 0)
(0.189866 0.00374362 0)
(0.187915 0.0035207 0)
(0.185919 0.00331801 0)
(0.18389 0.00312258 0)
(0.181819 0.00293717 0)
(0.179711 0.00277471 0)
(0.177572 0.00262535 0)
(0.175408 0.00246542 0)
(0.17322 0.00229871 0)
(0.171034 0.00214757 0)
(0.16888 0.00201736 0)
(0.166775 0.00189493 0)
(0.164706 0.00177136 0)
(0.162669 0.001651 0)
(0.160657 0.00154183 0)
(0.158681 0.00143996 0)
(0.156752 0.00134011 0)
(0.154894 0.0012428 0)
(0.153111 0.00114948 0)
(0.151414 0.00105836 0)
(0.14979 0.000971862 0)
(0.148239 0.000890036 0)
(0.146751 0.000812354 0)
(0.145342 0.000736472 0)
(0.144016 0.000662246 0)
(0.142788 0.000589588 0)
(0.141653 0.000519803 0)
(0.140616 0.000452778 0)
(0.139669 0.000389036 0)
(0.13881 0.00032884 0)
(0.13804 0.000271449 0)
(0.137357 0.000217637 0)
(0.136759 0.000168648 0)
(0.136247 0.000125028 0)
(0.135806 8.7715e-05 0)
(0.135446 5.80585e-05 0)
(0.135131 3.65948e-05 0)
(0.134892 2.19238e-05 0)
(0.134663 1.32094e-05 0)
(0.134508 8.28982e-06 0)
(0.134326 6.2527e-06 0)
(0.134231 5.28014e-06 0)
(0.134072 5.08502e-06 0)
(0.134026 5.00222e-06 0)
(0.133874 5.19606e-06 0)
(0.195565 0.00533077 0)
(0.195768 0.00666501 0)
(0.196432 0.00785221 0)
(0.197541 0.00854325 0)
(0.198836 0.00875569 0)
(0.200057 0.00866244 0)
(0.201067 0.00835608 0)
(0.201813 0.00786383 0)
(0.202277 0.00723388 0)
(0.202448 0.00654492 0)
(0.202335 0.0058953 0)
(0.201991 0.00535855 0)
(0.201492 0.0049418 0)
(0.200889 0.0046187 0)
(0.200224 0.00436135 0)
(0.199515 0.00414307 0)
(0.19876 0.003951 0)
(0.197959 0.00377633 0)
(0.197113 0.00360509 0)
(0.196212 0.00343999 0)
(0.195265 0.00329788 0)
(0.194278 0.00317267 0)
(0.193227 0.00303769 0)
(0.192091 0.00289069 0)
(0.19089 0.00274893 0)
(0.18966 0.00261641 0)
(0.188426 0.00248519 0)
(0.187186 0.00235387 0)
(0.185943 0.00223108 0)
(0.18468 0.00212486 0)
(0.183391 0.0020245 0)
(0.182063 0.00191702 0)
(0.180713 0.0018005 0)
(0.179362 0.00168028 0)
(0.17806 0.00156197 0)
(0.176815 0.00145532 0)
(0.175619 0.00135909 0)
(0.174428 0.00126649 0)
(0.173239 0.00116929 0)
(0.172062 0.00106747 0)
(0.170935 0.000963996 0)
(0.169871 0.000864007 0)
(0.168884 0.000768571 0)
(0.167959 0.000678175 0)
(0.167101 0.000592684 0)
(0.166292 0.000509556 0)
(0.165552 0.000430765 0)
(0.164854 0.000355981 0)
(0.16424 0.000288659 0)
(0.163654 0.000227283 0)
(0.163174 0.000177637 0)
(0.162694 0.000136175 0)
(0.162341 0.000106906 0)
(0.161945 8.34468e-05 0)
(0.161699 7.03906e-05 0)
(0.161354 5.78098e-05 0)
(0.161194 5.20433e-05 0)
(0.160878 4.31873e-05 0)
(0.160796 4.07499e-05 0)
(0.160487 3.35081e-05 0)
(0.196101 0.00520731 0)
(0.196311 0.00629597 0)
(0.196859 0.00731949 0)
(0.197761 0.00801775 0)
(0.198876 0.00829191 0)
(0.199997 0.00824335 0)
(0.200978 0.00798229 0)
(0.201761 0.00756523 0)
(0.202337 0.00704045 0)
(0.202699 0.00645962 0)
(0.20285 0.00589255 0)
(0.202832 0.0054066 0)
(0.202702 0.00501938 0)
(0.202499 0.00471553 0)
(0.202266 0.00447448 0)
(0.202027 0.00427326 0)
(0.201775 0.00409707 0)
(0.20151 0.00393719 0)
(0.201231 0.00378148 0)
(0.200914 0.00362772 0)
(0.200576 0.00349186 0)
(0.200235 0.00337978 0)
(0.199865 0.00327027 0)
(0.199422 0.00315084 0)
(0.198918 0.00302797 0)
(0.198378 0.00290447 0)
(0.197822 0.00277624 0)
(0.197252 0.00264567 0)
(0.19668 0.00252462 0)
(0.196099 0.00242518 0)
(0.195497 0.00233807 0)
(0.194851 0.00224939 0)
(0.194147 0.00214989 0)
(0.193375 0.00203221 0)
(0.192587 0.00189653 0)
(0.191839 0.00176658 0)
(0.191161 0.00165888 0)
(0.190499 0.00157137 0)
(0.189806 0.00148379 0)
(0.189051 0.00138272 0)
(0.18828 0.00126736 0)
(0.187518 0.00114762 0)
(0.18681 0.00103213 0)
(0.18613 0.000923164 0)
(0.185508 0.000823564 0)
(0.184885 0.000725659 0)
(0.184325 0.000635089 0)
(0.183738 0.000545121 0)
(0.183237 0.000465357 0)
(0.182685 0.000386201 0)
(0.182261 0.000322817 0)
(0.181758 0.000263206 0)
(0.181428 0.000222234 0)
(0.180978 0.000183306 0)
(0.180741 0.00016221 0)
(0.180327 0.000137181 0)
(0.180165 0.000126399 0)
(0.179766 0.000106436 0)
(0.179679 0.000101306 0)
(0.179278 8.28975e-05 0)
(0.196571 0.00508614 0)
(0.196779 0.00599502 0)
(0.197249 0.00685993 0)
(0.197988 0.00751161 0)
(0.198922 0.00782326 0)
(0.199911 0.00782878 0)
(0.200811 0.00762395 0)
(0.201546 0.00727338 0)
(0.202109 0.00683056 0)
(0.202495 0.00633913 0)
(0.202703 0.00584506 0)
(0.202773 0.00540396 0)
(0.202752 0.00504032 0)
(0.202666 0.00474777 0)
(0.202559 0.00451287 0)
(0.202459 0.00431884 0)
(0.20236 0.00414847 0)
(0.202266 0.00399154 0)
(0.202181 0.00384188 0)
(0.202072 0.0036941 0)
(0.201949 0.00355578 0)
(0.201844 0.00344174 0)
(0.201743 0.00334352 0)
(0.201602 0.00324212 0)
(0.201423 0.0031321 0)
(0.201225 0.00301655 0)
(0.201019 0.00289385 0)
(0.200797 0.00276402 0)
(0.200577 0.00263988 0)
(0.200362 0.00253991 0)
(0.200147 0.0024584 0)
(0.199914 0.00238434 0)
(0.199652 0.0023087 0)
(0.199316 0.00221329 0)
(0.198925 0.00207999 0)
(0.19853 0.0019301 0)
(0.198209 0.00179975 0)
(0.197935 0.00170862 0)
(0.197664 0.00163838 0)
(0.197313 0.00155772 0)
(0.196917 0.00145216 0)
(0.196475 0.00132694 0)
(0.196074 0.00120112 0)
(0.195661 0.00107912 0)
(0.195316 0.000972596 0)
(0.194928 0.000866431 0)
(0.194619 0.000773836 0)
(0.194228 0.000677775 0)
(0.193941 0.000596932 0)
(0.193538 0.000510142 0)
(0.193277 0.000443071 0)
(0.192873 0.000372687 0)
(0.192659 0.000325114 0)
(0.192277 0.000274961 0)
(0.192121 0.00024845 0)
(0.191759 0.000214788 0)
(0.191648 0.000201248 0)
(0.191286 0.000173145 0)
(0.191221 0.000167194 0)
(0.190842 0.000138951 0)
(0.196993 0.00496379 0)
(0.197191 0.00572942 0)
(0.197601 0.00645817 0)
(0.198216 0.00704434 0)
(0.198992 0.00736843 0)
(0.199848 0.00742412 0)
(0.20066 0.00728121 0)
(0.201337 0.00699383 0)
(0.20187 0.00661902 0)
(0.202252 0.00620364 0)
(0.202476 0.00577577 0)
(0.202577 0.00537771 0)
(0.2026 0.00504061 0)
(0.20256 0.00476137 0)
(0.202494 0.0045296 0)
(0.202435 0.00433859 0)
(0.202378 0.00417172 0)
(0.202327 0.00401408 0)
(0.202293 0.00386579 0)
(0.202247 0.00372365 0)
(0.202184 0.00358416 0)
(0.202133 0.00346221 0)
(0.202104 0.0033639 0)
(0.202058 0.00327138 0)
(0.201994 0.00316791 0)
(0.201925 0.00305568 0)
(0.201858 0.00293673 0)
(0.201773 0.00280781 0)
(0.201689 0.00268051 0)
(0.201611 0.00257755 0)
(0.201542 0.00249457 0)
(0.20147 0.00242251 0)
(0.201405 0.00235907 0)
(0.201299 0.00228564 0)
(0.201144 0.00216805 0)
(0.20095 0.00201092 0)
(0.200802 0.0018574 0)
(0.200697 0.00175004 0)
(0.200636 0.00168711 0)
(0.200518 0.00162641 0)
(0.200376 0.00153968 0)
(0.200158 0.00141884 0)
(0.199979 0.00129159 0)
(0.199749 0.0011615 0)
(0.199597 0.00105228 0)
(0.199371 0.000940543 0)
(0.199243 0.000849024 0)
(0.199007 0.00075009 0)
(0.198895 0.000672353 0)
(0.198639 0.000584161 0)
(0.198531 0.000518864 0)
(0.198257 0.000444769 0)
(0.198161 0.000394211 0)
(0.197895 0.000338779 0)
(0.197823 0.00030859 0)
(0.19757 0.000271361 0)
(0.197514 0.000257109 0)
(0.197251 0.000225401 0)
(0.197214 0.000220927 0)
(0.196924 0.000186801 0)
(0.197374 0.00484078 0)
(0.197558 0.00548971 0)
(0.197916 0.00610473 0)
(0.198434 0.00662562 0)
(0.199081 0.00694561 0)
(0.199813 0.00703877 0)
(0.200535 0.00695402 0)
(0.201154 0.00672867 0)
(0.201651 0.00641478 0)
(0.202022 0.00606409 0)
(0.202254 0.00569441 0)
(0.202373 0.00533737 0)
(0.202424 0.00502934 0)
(0.202415 0.00476594 0)
(0.202373 0.00453714 0)
(0.202331 0.00434853 0)
(0.202292 0.00418576 0)
(0.202254 0.00402836 0)
(0.202231 0.00388068 0)
(0.202204 0.00374338 0)
(0.202161 0.00360523 0)
(0.202117 0.00347697 0)
(0.202094 0.00337437 0)
(0.202073 0.00328414 0)
(0.202044 0.00318218 0)
(0.202014 0.00306952 0)
(0.201992 0.00295302 0)
(0.201955 0.00282701 0)
(0.201916 0.0026995 0)
(0.201874 0.00259424 0)
(0.20184 0.0025078 0)
(0.201807 0.00243143 0)
(0.201798 0.00236848 0)
(0.201777 0.00230548 0)
(0.201739 0.00220378 0)
(0.201652 0.00205129 0)
(0.201579 0.0018863 0)
(0.201514 0.00176148 0)
(0.20151 0.00169484 0)
(0.201475 0.00164254 0)
(0.201458 0.00157112 0)
(0.201362 0.00145745 0)
(0.201307 0.00133489 0)
(0.201175 0.00120201 0)
(0.201122 0.00109354 0)
(0.200975 0.000978028 0)
(0.200937 0.000887606 0)
(0.200783 0.00078609 0)
(0.20076 0.000710302 0)
(0.200597 0.000622064 0)
(0.200578 0.000558638 0)
(0.200404 0.000485016 0)
(0.200381 0.000432681 0)
(0.200213 0.000376555 0)
(0.200192 0.000343314 0)
(0.200035 0.000306027 0)
(0.200014 0.000292348 0)
(0.199844 0.000260147 0)
(0.199825 0.000258784 0)
(0.199623 0.000222063 0)
(0.197717 0.00471875 0)
(0.197887 0.00527228 0)
(0.198196 0.00579376 0)
(0.198637 0.00625458 0)
(0.199181 0.00656197 0)
(0.199802 0.00667842 0)
(0.200434 0.00664121 0)
(0.200995 0.00647583 0)
(0.201455 0.00621931 0)
(0.20181 0.0059231 0)
(0.202048 0.00560458 0)
(0.20218 0.00528655 0)
(0.202248 0.00500618 0)
(0.202265 0.00476073 0)
(0.202244 0.00453914 0)
(0.202214 0.0043543 0)
(0.202188 0.00419524 0)
(0.202159 0.004039 0)
(0.202137 0.00389255 0)
(0.202117 0.00375904 0)
(0.202086 0.00362361 0)
(0.202045 0.00349313 0)
(0.202018 0.00338636 0)
(0.202001 0.0032936 0)
(0.201986 0.00318982 0)
(0.201965 0.00307617 0)
(0.201955 0.00296164 0)
(0.201935 0.00283886 0)
(0.201911 0.00271353 0)
(0.201875 0.00260778 0)
(0.201846 0.00251875 0)
(0.201816 0.00243751 0)
(0.201815 0.00236978 0)
(0.201811 0.00230603 0)
(0.201819 0.00221307 0)
(0.201787 0.00207044 0)
(0.201752 0.00190771 0)
(0.201687 0.00177307 0)
(0.201679 0.00169793 0)
(0.201655 0.00164218 0)
(0.201682 0.00157751 0)
(0.201641 0.00146943 0)
(0.201644 0.00135486 0)
(0.201558 0.00122384 0)
(0.201545 0.00111899 0)
(0.201432 0.00100162 0)
(0.201424 0.000912063 0)
(0.201304 0.000807782 0)
(0.201311 0.000731496 0)
(0.201192 0.000642593 0)
(0.201209 0.000579021 0)
(0.20109 0.000507306 0)
(0.201098 0.000452821 0)
(0.200988 0.000398368 0)
(0.200989 0.000362241 0)
(0.200891 0.000326477 0)
(0.200885 0.000314135 0)
(0.200772 0.000282785 0)
(0.200762 0.000285536 0)
(0.200617 0.000247837 0)
(0.198023 0.0045985 0)
(0.198182 0.00507485 0)
(0.198448 0.00552047 0)
(0.198823 0.00592575 0)
(0.199284 0.00621538 0)
(0.19981 0.00634589 0)
(0.200357 0.00634479 0)
(0.200859 0.00623204 0)
(0.201279 0.00602932 0)
(0.201615 0.0057806 0)
(0.201855 0.00550777 0)
(0.201996 0.00522756 0)
(0.202076 0.00497261 0)
(0.202115 0.00474585 0)
(0.202114 0.00453633 0)
(0.202093 0.00435612 0)
(0.202076 0.00419931 0)
(0.202057 0.0040453 0)
(0.202037 0.00390128 0)
(0.202018 0.00377216 0)
(0.201997 0.00364113 0)
(0.201961 0.00351003 0)
(0.201932 0.00339895 0)
(0.201917 0.00330203 0)
(0.201907 0.00319584 0)
(0.201888 0.00308148 0)
(0.201879 0.00296764 0)
(0.201866 0.00284708 0)
(0.20185 0.00272624 0)
(0.201815 0.00262213 0)
(0.201786 0.00253076 0)
(0.201758 0.00244516 0)
(0.201755 0.00237216 0)
(0.201748 0.00230219 0)
(0.201767 0.00221128 0)
(0.201759 0.00207815 0)
(0.201745 0.00192579 0)
(0.20168 0.00178964 0)
(0.201661 0.00170645 0)
(0.20163 0.00164045 0)
(0.201666 0.00157536 0)
(0.201644 0.00147021 0)
(0.201669 0.00136449 0)
(0.201604 0.001238 0)
(0.201607 0.00113869 0)
(0.201508 0.00102122 0)
(0.20151 0.00093267 0)
(0.201402 0.000825817 0)
(0.201416 0.000747664 0)
(0.201313 0.000657648 0)
(0.201337 0.000592148 0)
(0.201242 0.000522356 0)
(0.201258 0.000464995 0)
(0.201175 0.000413 0)
(0.201182 0.000374032 0)
(0.20111 0.000340215 0)
(0.201109 0.000329507 0)
(0.201025 0.000299405 0)
(0.201019 0.00030659 0)
(0.200904 0.00026834 0)
(0.198296 0.00448034 0)
(0.198445 0.00489474 0)
(0.198673 0.00528051 0)
(0.198992 0.00563449 0)
(0.199385 0.00590223 0)
(0.199829 0.00604221 0)
(0.200299 0.006068 0)
(0.200744 0.00599617 0)
(0.201122 0.00584235 0)
(0.201435 0.00563864 0)
(0.201673 0.00540658 0)
(0.201819 0.00516239 0)
(0.201908 0.00493208 0)
(0.201963 0.00472175 0)
(0.201979 0.00452594 0)
(0.201967 0.00435273 0)
(0.201957 0.00419888 0)
(0.201947 0.00404943 0)
(0.201932 0.00390854 0)
(0.201914 0.0037825 0)
(0.201899 0.00365677 0)
(0.201868 0.00352567 0)
(0.201842 0.00340969 0)
(0.20183 0.0033096 0)
(0.201822 0.00320235 0)
(0.201803 0.00308686 0)
(0.201792 0.00297247 0)
(0.201781 0.00285385 0)
(0.201772 0.00273867 0)
(0.201739 0.0026365 0)
(0.20171 0.00254223 0)
(0.201685 0.00245314 0)
(0.201683 0.0023765 0)
(0.201669 0.00229907 0)
(0.201687 0.00220673 0)
(0.201685 0.00208109 0)
(0.201682 0.00194117 0)
(0.201622 0.00180782 0)
(0.201601 0.00171864 0)
(0.201565 0.00164065 0)
(0.201598 0.00157173 0)
(0.201579 0.00146754 0)
(0.201611 0.00137003 0)
(0.201556 0.00124866 0)
(0.201565 0.0011555 0)
(0.201477 0.00103903 0)
(0.201482 0.000951978 0)
(0.201383 0.0008433 0)
(0.201396 0.000763176 0)
(0.2013 0.000672163 0)
(0.201322 0.000603893 0)
(0.201234 0.000535762 0)
(0.20125 0.000475067 0)
(0.201176 0.000425594 0)
(0.201183 0.000383723 0)
(0.201121 0.000351732 0)
(0.20112 0.000342474 0)
(0.201049 0.000313578 0)
(0.201044 0.000324957 0)
(0.200947 0.000286154 0)
(0.198539 0.00436635 0)
(0.198677 0.00472938 0)
(0.198874 0.00506867 0)
(0.199146 0.00537754 0)
(0.199481 0.00562046 0)
(0.199854 0.00576594 0)
(0.200255 0.00581178 0)
(0.200646 0.00577075 0)
(0.200984 0.00566014 0)
(0.201271 0.00549908 0)
(0.201501 0.00530254 0)
(0.201649 0.00509106 0)
(0.201743 0.00488609 0)
(0.20181 0.00469063 0)
(0.20184 0.00450815 0)
(0.201837 0.00434539 0)
(0.201833 0.00419614 0)
(0.20183 0.00405193 0)
(0.20182 0.00391409 0)
(0.201806 0.00378807 0)
(0.201792 0.00366777 0)
(0.201765 0.00354073 0)
(0.201746 0.00342051 0)
(0.201738 0.00331605 0)
(0.20173 0.00320914 0)
(0.20171 0.00309327 0)
(0.201699 0.00297687 0)
(0.201689 0.0028594 0)
(0.201684 0.00275026 0)
(0.201653 0.00264978 0)
(0.201626 0.00255236 0)
(0.201605 0.00246092 0)
(0.201606 0.00238248 0)
(0.201587 0.00229799 0)
(0.2016 0.00220278 0)
(0.201596 0.00208263 0)
(0.201597 0.00195425 0)
(0.201545 0.00182474 0)
(0.201528 0.00173155 0)
(0.201492 0.00164266 0)
(0.201519 0.00156904 0)
(0.201499 0.00146453 0)
(0.20153 0.00137424 0)
(0.201481 0.00125762 0)
(0.201495 0.00117018 0)
(0.201415 0.00105504 0)
(0.201424 0.000970021 0)
(0.201332 0.000860396 0)
(0.201345 0.000778796 0)
(0.201254 0.000687324 0)
(0.201272 0.000616343 0)
(0.201187 0.000549833 0)
(0.201198 0.000485663 0)
(0.201127 0.000438493 0)
(0.201131 0.00039346 0)
(0.201074 0.000362957 0)
(0.201071 0.000354654 0)
(0.201008 0.000326786 0)
(0.201003 0.000341891 0)
(0.200918 0.000302412 0)
(0.198756 0.00425901 0)
(0.198881 0.00457815 0)
(0.199053 0.00487915 0)
(0.199284 0.00515126 0)
(0.19957 0.00536862 0)
(0.199883 0.00551454 0)
(0.200221 0.00557658 0)
(0.200562 0.00556005 0)
(0.200863 0.00548528 0)
(0.201121 0.00536147 0)
(0.201337 0.00519617 0)
(0.201484 0.00501492 0)
(0.201581 0.00483598 0)
(0.201655 0.0046563 0)
(0.201697 0.00448591 0)
(0.201702 0.00433358 0)
(0.201703 0.0041894 0)
(0.201704 0.00405018 0)
(0.201699 0.00391767 0)
(0.201691 0.00379248 0)
(0.20168 0.00367523 0)
(0.201655 0.00355417 0)
(0.20164 0.00343258 0)
(0.201638 0.00332114 0)
(0.201631 0.00321373 0)
(0.201608 0.00310045 0)
(0.201596 0.00298205 0)
(0.20159 0.00286384 0)
(0.20159 0.00276078 0)
(0.20156 0.00266234 0)
(0.201533 0.00256158 0)
(0.201518 0.00246789 0)
(0.201521 0.00238864 0)
(0.201499 0.00229861 0)
(0.201506 0.00220086 0)
(0.201501 0.00208444 0)
(0.201503 0.00196536 0)
(0.201458 0.00183924 0)
(0.201447 0.00174368 0)
(0.201412 0.00164614 0)
(0.201435 0.00156824 0)
(0.201411 0.00146233 0)
(0.20144 0.00137785 0)
(0.201396 0.00126525 0)
(0.201412 0.00118302 0)
(0.201341 0.0010693 0)
(0.201354 0.000986605 0)
(0.20127 0.000876619 0)
(0.201284 0.000794165 0)
(0.201197 0.000702958 0)
(0.201212 0.000629868 0)
(0.201129 0.000565162 0)
(0.201136 0.000497559 0)
(0.201066 0.000452377 0)
(0.201067 0.000403842 0)
(0.201012 0.000374513 0)
(0.201008 0.000366587 0)
(0.20095 0.000339565 0)
(0.200944 0.000357825 0)
(0.20087 0.000317495 0)
(0.198949 0.00415818 0)
(0.19906 0.00444193 0)
(0.199211 0.00470841 0)
(0.199406 0.00495151 0)
(0.19965 0.00514667 0)
(0.199914 0.00528707 0)
(0.200196 0.00536255 0)
(0.20049 0.00536597 0)
(0.200756 0.00531765 0)
(0.200984 0.00522641 0)
(0.201182 0.00509083 0)
(0.201326 0.00493672 0)
(0.201422 0.00478176 0)
(0.201498 0.00461896 0)
(0.20155 0.00446056 0)
(0.201562 0.00431643 0)
(0.201566 0.00417796 0)
(0.201573 0.00404536 0)
(0.201572 0.00392054 0)
(0.201567 0.00379886 0)
(0.20156 0.0036802 0)
(0.201536 0.00356063 0)
(0.201524 0.00344302 0)
(0.201528 0.00332822 0)
(0.201524 0.00321725 0)
(0.201499 0.00310668 0)
(0.201484 0.00298877 0)
(0.201483 0.00286885 0)
(0.201489 0.00276964 0)
(0.201457 0.00267283 0)
(0.201431 0.00256973 0)
(0.201423 0.0024744 0)
(0.201428 0.00239456 0)
(0.201403 0.00230044 0)
(0.201407 0.00220147 0)
(0.2014 0.00208756 0)
(0.201401 0.00197513 0)
(0.201362 0.00185117 0)
(0.201356 0.00175407 0)
(0.201324 0.00165013 0)
(0.201342 0.00156944 0)
(0.201317 0.00146171 0)
(0.201343 0.00138128 0)
(0.201303 0.00127152 0)
(0.201321 0.00119402 0)
(0.201258 0.00108169 0)
(0.201274 0.00100146 0)
(0.201198 0.00089164 0)
(0.201213 0.000809125 0)
(0.201132 0.000718857 0)
(0.201145 0.000644243 0)
(0.201064 0.000581535 0)
(0.201068 0.000510648 0)
(0.201 0.000467249 0)
(0.200999 0.000414941 0)
(0.200945 0.000386561 0)
(0.20094 0.00037842 0)
(0.200887 0.000352032 0)
(0.200881 0.000372832 0)
(0.200814 0.000331505 0)
(0.199124 0.00406245 0)
(0.199218 0.00431898 0)
(0.19935 0.00455563 0)
(0.199516 0.00477368 0)
(0.199721 0.00495244 0)
(0.199943 0.0050831 0)
(0.200176 0.0051666 0)
(0.200425 0.00518723 0)
(0.200659 0.00515799 0)
(0.200857 0.0050956 0)
(0.201034 0.0049887 0)
(0.201172 0.00485631 0)
(0.201264 0.00472192 0)
(0.201339 0.0045773 0)
(0.201396 0.00443258 0)
(0.201415 0.00429657 0)
(0.201423 0.00416391 0)
(0.201434 0.00403816 0)
(0.201436 0.00391983 0)
(0.201433 0.00380288 0)
(0.201428 0.00368388 0)
(0.201407 0.00356245 0)
(0.2014 0.00345009 0)
(0.201406 0.00333827 0)
(0.201405 0.00322277 0)
(0.20138 0.00311 0)
(0.201362 0.00299387 0)
(0.201366 0.00287479 0)
(0.201378 0.00277751 0)
(0.201344 0.00268081 0)
(0.201319 0.00257714 0)
(0.201318 0.00248144 0)
(0.201325 0.00240059 0)
(0.201297 0.00230292 0)
(0.201298 0.00220382 0)
(0.201291 0.00209163 0)
(0.201292 0.0019838 0)
(0.201257 0.00186124 0)
(0.201255 0.00176326 0)
(0.201226 0.0016541 0)
(0.201241 0.00157161 0)
(0.201214 0.00146241 0)
(0.201238 0.00138503 0)
(0.201201 0.00127688 0)
(0.20122 0.00120337 0)
(0.201165 0.00109222 0)
(0.201184 0.00101438 0)
(0.201116 0.000905196 0)
(0.201132 0.000823537 0)
(0.201058 0.000734901 0)
(0.20107 0.000659277 0)
(0.200993 0.000598772 0)
(0.200994 0.000524816 0)
(0.200929 0.000483106 0)
(0.200926 0.000426777 0)
(0.200875 0.000399178 0)
(0.200868 0.00039028 0)
(0.200821 0.000364323 0)
(0.200814 0.000387117 0)
(0.200755 0.000344613 0)
(0.199287 0.00397169 0)
(0.199365 0.00420362 0)
(0.199476 0.00441659 0)
(0.199616 0.00461143 0)
(0.199783 0.00477702 0)
(0.199967 0.00489863 0)
(0.200158 0.00498374 0)
(0.200363 0.0050196 0)
(0.200566 0.00500674 0)
(0.200737 0.00496677 0)
(0.200886 0.00488638 0)
(0.201013 0.00477291 0)
(0.201103 0.00465673 0)
(0.201174 0.00453207 0)
(0.201233 0.00440153 0)
(0.201254 0.00427418 0)
(0.201265 0.00414758 0)
(0.201281 0.00402583 0)
(0.201287 0.00391272 0)
(0.201285 0.00380337 0)
(0.201278 0.00368878 0)
(0.201263 0.00356555 0)
(0.201263 0.00345297 0)
(0.201269 0.0033446 0)
(0.201268 0.00322951 0)
(0.201244 0.00311253 0)
(0.201226 0.00299621 0)
(0.201235 0.00288167 0)
(0.201253 0.00278634 0)
(0.201216 0.00268661 0)
(0.201191 0.00258318 0)
(0.201198 0.00248861 0)
(0.201206 0.00240617 0)
(0.201175 0.00230537 0)
(0.201177 0.00220756 0)
(0.20117 0.00209685 0)
(0.20117 0.00199182 0)
(0.201139 0.00186998 0)
(0.20114 0.00177217 0)
(0.201113 0.00165874 0)
(0.201125 0.00157433 0)
(0.201099 0.00146354 0)
(0.20112 0.00138883 0)
(0.201087 0.00128134 0)
(0.201106 0.00121124 0)
(0.201059 0.00110133 0)
(0.201079 0.00102593 0)
(0.201019 0.000917365 0)
(0.201036 0.000837107 0)
(0.20097 0.000750805 0)
(0.200981 0.000674838 0)
(0.20091 0.000616954 0)
(0.20091 0.000540171 0)
(0.20085 0.000500163 0)
(0.200845 0.00043955 0)
(0.200797 0.000412645 0)
(0.20079 0.000402608 0)
(0.200747 0.000376888 0)
(0.20074 0.000401327 0)
(0.200689 0.00035734 0)
(0.199437 0.00388647 0)
(0.199501 0.00409443 0)
(0.199591 0.004287 0)
(0.199707 0.00446244 0)
(0.19984 0.00461563 0)
(0.199985 0.00473137 0)
(0.20014 0.00481482 0)
(0.200303 0.00486154 0)
(0.200473 0.00486479 0)
(0.200617 0.00483982 0)
(0.200735 0.00478264 0)
(0.200847 0.00469107 0)
(0.200934 0.00458971 0)
(0.200999 0.00448302 0)
(0.201054 0.00436647 0)
(0.201075 0.00424692 0)
(0.201086 0.00412957 0)
(0.201108 0.00401195 0)
(0.201121 0.00390215 0)
(0.201119 0.00380136 0)
(0.201108 0.00369171 0)
(0.201094 0.00356793 0)
(0.201104 0.00345348 0)
(0.201113 0.00334549 0)
(0.201109 0.00323577 0)
(0.201085 0.00311835 0)
(0.201068 0.00299784 0)
(0.201085 0.00288683 0)
(0.201105 0.0027948 0)
(0.201064 0.00269047 0)
(0.201042 0.00258742 0)
(0.201058 0.00249566 0)
(0.201065 0.0024117 0)
(0.201034 0.00230798 0)
(0.201036 0.00221222 0)
(0.201031 0.002103 0)
(0.20103 0.00199992 0)
(0.201003 0.00187789 0)
(0.201006 0.00178051 0)
(0.200982 0.00166404 0)
(0.200991 0.00157821 0)
(0.200967 0.00146548 0)
(0.200985 0.00139287 0)
(0.200956 0.00128506 0)
(0.200974 0.00121756 0)
(0.200934 0.0011088 0)
(0.200954 0.00103614 0)
(0.200904 0.000928262 0)
(0.200921 0.000849628 0)
(0.200864 0.000766056 0)
(0.200874 0.000690306 0)
(0.200811 0.000635453 0)
(0.200811 0.000556116 0)
(0.200756 0.000517904 0)
(0.200751 0.000452946 0)
(0.200708 0.00042673 0)
(0.200701 0.000415273 0)
(0.200664 0.000389651 0)
(0.200657 0.000415416 0)
(0.200613 0.000369825 0)
(0.199576 0.00380745 0)
(0.199624 0.00399592 0)
(0.199695 0.00417004 0)
(0.199787 0.0043304 0)
(0.199888 0.00447218 0)
(0.199997 0.00458319 0)
(0.200117 0.00466569 0)
(0.200243 0.00471785 0)
(0.200378 0.00473521 0)
(0.200494 0.00472179 0)
(0.200584 0.0046822 0)
(0.200674 0.0046145 0)
(0.200753 0.00452513 0)
(0.200812 0.00443005 0)
(0.200859 0.00432844 0)
(0.200878 0.00421711 0)
(0.200889 0.00411079 0)
(0.200911 0.004001 0)
(0.200933 0.00389049 0)
(0.200933 0.00379227 0)
(0.200912 0.00368784 0)
(0.200899 0.00356932 0)
(0.20092 0.00345777 0)
(0.200935 0.00334585 0)
(0.20093 0.00323671 0)
(0.200899 0.00312318 0)
(0.200884 0.0030014 0)
(0.200913 0.0028896 0)
(0.200934 0.0027991 0)
(0.200886 0.00269345 0)
(0.200871 0.00259214 0)
(0.200895 0.00250154 0)
(0.200899 0.00241602 0)
(0.200867 0.00231114 0)
(0.200873 0.00221745 0)
(0.200871 0.00210865 0)
(0.200868 0.00200751 0)
(0.200846 0.00188558 0)
(0.20085 0.00178846 0)
(0.20083 0.00166963 0)
(0.200837 0.00158317 0)
(0.200815 0.00146849 0)
(0.200831 0.00139741 0)
(0.200806 0.00128896 0)
(0.200822 0.00122324 0)
(0.20079 0.00111468 0)
(0.200808 0.00104445 0)
(0.200767 0.000937683 0)
(0.200783 0.000861011 0)
(0.200737 0.000780228 0)
(0.200746 0.000704962 0)
(0.200692 0.0006534 0)
(0.200693 0.00057158 0)
(0.200647 0.000535201 0)
(0.200642 0.00046585 0)
(0.200606 0.000440608 0)
(0.200599 0.000427389 0)
(0.200568 0.000401955 0)
(0.200561 0.000428565 0)
(0.200525 0.000381337 0)
(0.199704 0.00373824 0)
(0.199736 0.00391197 0)
(0.199786 0.00407225 0)
(0.199857 0.00422 0)
(0.199927 0.00435153 0)
(0.200001 0.0044582 0)
(0.200088 0.00454163 0)
(0.200179 0.00459715 0)
(0.200279 0.00462358 0)
(0.200365 0.00462012 0)
(0.20043 0.00459165 0)
(0.200494 0.00454211 0)
(0.200555 0.00446729 0)
(0.200609 0.00438111 0)
(0.200647 0.00429077 0)
(0.200661 0.00418794 0)
(0.200671 0.00408891 0)
(0.200687 0.00398831 0)
(0.200712 0.00388018 0)
(0.20072 0.00377938 0)
(0.200695 0.00367954 0)
(0.200683 0.00357039 0)
(0.200707 0.00346292 0)
(0.200724 0.00334636 0)
(0.200723 0.00323129 0)
(0.200689 0.0031204 0)
(0.200672 0.0030082 0)
(0.200713 0.00289616 0)
(0.200735 0.00279744 0)
(0.200682 0.00269265 0)
(0.200672 0.00259885 0)
(0.200704 0.00250596 0)
(0.200705 0.00241641 0)
(0.200675 0.00231352 0)
(0.200684 0.00222284 0)
(0.200684 0.00211301 0)
(0.200681 0.00201346 0)
(0.200664 0.00189262 0)
(0.20067 0.00179589 0)
(0.200654 0.00167491 0)
(0.200658 0.00158863 0)
(0.200641 0.00147256 0)
(0.200654 0.00140217 0)
(0.200634 0.00129281 0)
(0.200647 0.00122894 0)
(0.200623 0.00111996 0)
(0.200639 0.00105124 0)
(0.200607 0.000945718 0)
(0.200622 0.000871154 0)
(0.200587 0.00079291 0)
(0.200594 0.000718243 0)
(0.200553 0.000670314 0)
(0.200554 0.000586361 0)
(0.200518 0.000551509 0)
(0.200514 0.000478032 0)
(0.200486 0.000453598 0)
(0.200481 0.000438853 0)
(0.200456 0.00041328 0)
(0.200451 0.000440863 0)
(0.200423 0.000391741 0)
(0.199821 0.00368587 0)
(0.199839 0.00384685 0)
(0.199867 0.0039999 0)