/*--------------------------------*- C++ -*----------------------------------*\
| =========                 |                                                 |
| \\      /  F ield         | OpenFOAM: The Open Source CFD Toolbox           |
|  \\    /   O peration     | Version:  2.3.0                                 |
|   \\  /    A nd           | Web:      www.OpenFOAM.org                      |
|    \\/     M anipulation  |                                                 |
\*---------------------------------------------------------------------------*/
FoamFile
{
    version     2.0;
    format      ascii;
    class       surfaceScalarField;
    location    "0.1";
    object      phi;
}
// * * * * * * * * * * * * * * * * * * * * * * * * * * * * * * * * * * * * * //

dimensions      [0 3 -1 0 0 0 0];

internalField   nonuniform List<scalar> 
5273
(
3.15606e-08
3.02439e-09
2.86647e-08
2.89598e-09
2.6024e-08
2.64069e-09
2.35273e-08
2.49669e-09
2.11924e-08
2.33487e-09
1.90521e-08
2.14032e-09
1.71224e-08
1.92966e-09
1.54074e-08
1.71503e-09
1.39039e-08
1.5035e-09
1.26032e-08
1.30067e-09
1.14919e-08
1.11139e-09
1.05525e-08
9.39369e-10
9.76554e-09
7.86942e-10
9.11048e-09
6.55061e-10
8.56703e-09
5.43444e-10
8.11622e-09
4.50814e-10
7.74102e-09
3.75197e-10
7.42679e-09
3.14237e-10
7.16131e-09
2.65474e-10
6.93476e-09
2.26555e-10
6.73938e-09
1.95373e-10
6.56926e-09
1.70127e-10
6.41992e-09
1.49334e-10
6.28814e-09
1.31782e-10
6.17167e-09
1.16471e-10
6.06911e-09
1.0256e-10
5.97977e-09
8.93427e-11
5.90348e-09
7.62818e-11
5.8404e-09
6.30856e-11
5.79064e-09
4.97585e-11
5.75408e-09
3.65651e-11
5.73009e-09
2.39804e-11
5.71761e-09
1.24869e-11
5.71469e-09
2.92097e-12
5.71802e-09
-3.33651e-12
5.72477e-09
-6.74663e-12
5.73317e-09
-8.40296e-12
5.74175e-09
-8.57938e-12
5.7495e-09
-7.74338e-12
5.75598e-09
-6.48401e-12
5.76112e-09
-5.13718e-12
5.76496e-09
-3.83958e-12
5.7676e-09
-2.63923e-12
5.76916e-09
-1.56554e-12
5.76974e-09
-5.78975e-13
5.76937e-09
3.72442e-13
5.76808e-09
1.28332e-12
5.76614e-09
1.94217e-12
5.76386e-09
2.2789e-12
5.76153e-09
2.33636e-12
5.75933e-09
2.19275e-12
5.75741e-09
1.92656e-12
5.75581e-09
1.60227e-12
5.75454e-09
1.26672e-12
5.75359e-09
9.50673e-13
5.75292e-09
6.71154e-13
5.75248e-09
4.35562e-13
5.75224e-09
2.44807e-13
5.75214e-09
9.59139e-14
5.75215e-09
-6.20801e-15
5.75222e-09
-7.18395e-14
5.75233e-09
-1.12895e-13
5.75247e-09
-1.36276e-13
5.75261e-09
-1.45817e-13
5.75276e-09
-1.45054e-13
5.7529e-09
-1.37431e-13
5.75302e-09
-1.26381e-13
5.75314e-09
-1.14219e-13
5.75324e-09
-1.01935e-13
5.75333e-09
-9.00638e-14
5.75341e-09
-7.89599e-14
5.75348e-09
-6.88044e-14
5.75354e-09
-5.9602e-14
5.75359e-09
-5.14137e-14
5.75363e-09
-4.41748e-14
5.75367e-09
-3.7798e-14
5.7537e-09
-3.22188e-14
5.75373e-09
-2.7372e-14
5.75375e-09
-2.31955e-14
5.75377e-09
-1.95401e-14
5.75379e-09
-1.63771e-14
5.7538e-09
-1.36784e-14
5.75381e-09
-1.13363e-14
5.75382e-09
-9.35931e-15
5.75383e-09
-7.68088e-15
5.75384e-09
-6.24175e-15
5.75384e-09
-5.03817e-15
5.75385e-09
-4.00819e-15
5.75385e-09
-3.12919e-15
5.75385e-09
-2.41272e-15
5.75385e-09
-1.78893e-15
5.75385e-09
-1.26528e-15
5.75385e-09
-8.27931e-16
5.75386e-09
-4.34199e-16
5.75386e-09
-1.37035e-16
5.75386e-09
1.51953e-16
5.75385e-09
4.32152e-16
5.75385e-09
6.5734e-16
5.75385e-09
8.79912e-16
2.74216e-15
3.64394e-08
2.455e-09
3.61725e-08
3.16291e-09
3.55879e-08
3.22528e-09
3.48078e-08
3.27678e-09
3.38706e-08
3.27205e-09
3.28322e-08
3.17871e-09
3.17402e-08
3.02173e-09
3.06289e-08
2.82633e-09
2.95242e-08
2.60812e-09
2.84461e-08
2.37878e-09
2.74091e-08
2.14847e-09
2.64228e-08
1.92559e-09
2.54934e-08
1.71637e-09
2.46237e-08
1.52479e-09
2.38143e-08
1.35284e-09
2.30643e-08
1.20085e-09
2.23715e-08
1.06791e-09
2.17335e-08
9.52293e-10
2.11471e-08
8.5184e-10
2.06094e-08
7.64243e-10
2.01175e-08
6.87264e-10
1.96688e-08
6.18835e-10
1.92611e-08
5.57105e-10
1.88924e-08
5.00423e-10
1.85616e-08
4.47314e-10
1.82677e-08
3.96483e-10
1.80101e-08
3.46878e-10
1.77886e-08
2.97823e-10
1.76025e-08
2.49189e-10
1.74507e-08
2.0151e-10
1.73314e-08
1.55945e-10
1.72412e-08
1.141e-10
1.71761e-08
7.75894e-11
1.71319e-08
4.71943e-11
1.71061e-08
2.24221e-11
1.70959e-08
3.40719e-12
1.70957e-08
-8.18718e-12
1.70998e-08
-1.26737e-11
1.7105e-08
-1.29616e-11
1.71096e-08
-1.10726e-11
1.71127e-08
-8.20148e-12
1.71139e-08
-5.05057e-12
1.71133e-08
-2.01399e-12
1.71106e-08
1.08514e-12
1.71056e-08
4.47154e-12
1.70983e-08
7.68092e-12
1.70894e-08
1.01734e-11
1.70797e-08
1.16695e-11
1.70698e-08
1.217e-11
1.70603e-08
1.18442e-11
1.70515e-08
1.09261e-11
1.70438e-08
9.64923e-12
1.70372e-08
8.21164e-12
1.70317e-08
6.76287e-12
1.70272e-08
5.40418e-12
1.70237e-08
4.19515e-12
1.7021e-08
3.16325e-12
1.70189e-08
2.31284e-12
1.70174e-08
1.6318e-12
1.70163e-08
1.10034e-12
1.70155e-08
6.91686e-13
1.7015e-08
3.83992e-13
1.70147e-08
1.58722e-13
1.70146e-08
7.74571e-15
1.70145e-08
-7.84123e-14
1.70145e-08
-1.21867e-13
1.70145e-08
-1.41749e-13
1.70145e-08
-1.47893e-13
1.70146e-08
-1.45653e-13
1.70146e-08
-1.38312e-13
1.70147e-08
-1.28111e-13
1.70147e-08
-1.16562e-13
1.70148e-08
-1.04584e-13
1.70148e-08
-9.28329e-14
1.70148e-08
-8.16803e-14
1.70149e-08
-7.1287e-14
1.70149e-08
-6.17447e-14
1.70149e-08
-5.3162e-14
1.7015e-08
-4.54552e-14
1.7015e-08
-3.85546e-14
1.7015e-08
-3.24161e-14
1.7015e-08
-2.70346e-14
1.7015e-08
-2.23133e-14
1.7015e-08
-1.82151e-14
1.7015e-08
-1.46859e-14
1.7015e-08
-1.16303e-14
1.7015e-08
-9.01351e-15
1.7015e-08
-6.77374e-15
1.7015e-08
-4.85257e-15
1.7015e-08
-3.25059e-15
1.7015e-08
-1.90688e-15
1.7015e-08
-7.89374e-16
1.7015e-08
1.82702e-16
1.7015e-08
1.1317e-15
1.7015e-08
1.97898e-15
1.7015e-08
2.71162e-15
1.7015e-08
3.34375e-15
1.7015e-08
3.86729e-15
1.7015e-08
4.60666e-15
6.91458e-15
3.78829e-08
1.77488e-09
3.83063e-08
2.73957e-09
3.84814e-08
3.05015e-09
3.85193e-08
3.23889e-09
3.84263e-08
3.36503e-09
3.821e-08
3.395e-09
3.78906e-08
3.3411e-09
3.74888e-08
3.22818e-09
3.70227e-08
3.07416e-09
3.65092e-08
2.89237e-09
3.59629e-08
2.69469e-09
3.53969e-08
2.49159e-09
3.48219e-08
2.29144e-09
3.42464e-08
2.1003e-09
3.36772e-08
1.92202e-09
3.31195e-08
1.75854e-09
3.25772e-08
1.61023e-09
3.20531e-08
1.47637e-09
3.15494e-08
1.35553e-09
3.10678e-08
1.24588e-09
3.06096e-08
1.14545e-09
3.01761e-08
1.05228e-09
2.97687e-08
9.64526e-10
2.93887e-08
8.8043e-10
2.90376e-08
7.98416e-10
2.87169e-08
7.17147e-10
2.84281e-08
6.35676e-10
2.81723e-08
5.53662e-10
2.79499e-08
4.71569e-10
2.77607e-08
3.90752e-10
2.76033e-08
3.13316e-10
2.74757e-08
2.41721e-10
2.7375e-08
1.7822e-10
2.72979e-08
1.24325e-10
2.72395e-08
8.08681e-11
2.71947e-08
4.8138e-11
2.71611e-08
2.5463e-11
2.7137e-08
1.14189e-11
2.71199e-08
4.11465e-12
2.71071e-08
1.76535e-12
2.70959e-08
2.96669e-12
2.70842e-08
6.65672e-12
2.70701e-08
1.20533e-11
2.70528e-08
1.83878e-11
2.70325e-08
2.47703e-11
2.70099e-08
3.02779e-11
2.69859e-08
3.42065e-11
2.69613e-08
3.62343e-11
2.69371e-08
3.64062e-11
2.69139e-08
3.50084e-11
2.68924e-08
3.24403e-11
2.6873e-08
2.91194e-11
2.68557e-08
2.54223e-11
2.68409e-08
2.16547e-11
2.68282e-08
1.80414e-11
2.68177e-08
1.47311e-11
2.6809e-08
1.18072e-11
2.68021e-08
9.30202e-12
2.67965e-08
7.20979e-12
2.67921e-08
5.50116e-12
2.67886e-08
4.13269e-12
2.6786e-08
3.05972e-12
2.67839e-08
2.23824e-12
2.67823e-08
1.62274e-12
2.6781e-08
1.16732e-12
2.67801e-08
8.32355e-13
2.67793e-08
5.8721e-13
2.67788e-08
4.08813e-13
2.67784e-08
2.79865e-13
2.6778e-08
1.87416e-13
2.67778e-08
1.21653e-13
2.67776e-08
7.52531e-14
2.67774e-08
4.28993e-14
2.67773e-08
2.06618e-14
2.67772e-08
5.61478e-15
2.67772e-08
-4.37552e-15
2.67771e-08
-1.04623e-14
2.67771e-08
-1.36552e-14
2.6777e-08
-1.48156e-14
2.6777e-08
-1.46252e-14
2.6777e-08
-1.35385e-14
2.6777e-08
-1.19502e-14
2.6777e-08
-1.00765e-14
2.6777e-08
-8.08405e-15
2.6777e-08
-6.11437e-15
2.67769e-08
-4.20634e-15
2.67769e-08
-2.42007e-15
2.67769e-08
-7.67652e-16
2.67769e-08
8.13193e-16
2.67769e-08
2.29154e-15
2.67769e-08
3.65166e-15
2.67769e-08
4.91448e-15
2.67769e-08
6.03973e-15
2.67769e-08
7.05292e-15
2.67769e-08
7.91415e-15
2.67769e-08
8.6271e-15
2.67769e-08
9.24917e-15
2.67769e-08
9.8051e-15
2.67769e-08
1.0677e-14
1.21009e-14
3.90454e-08
1.31458e-09
3.95345e-08
2.25044e-09
3.98928e-08
2.69181e-09
4.01791e-08
2.95262e-09
4.04031e-08
3.14097e-09
4.05537e-08
3.24448e-09
4.06295e-08
3.26528e-09
4.06354e-08
3.22223e-09
4.05776e-08
3.132e-09
4.04629e-08
3.00706e-09
4.02992e-08
2.85837e-09
4.00948e-08
2.69601e-09
3.98577e-08
2.52851e-09
3.95955e-08
2.36251e-09
3.93149e-08
2.20263e-09
3.90218e-08
2.05169e-09
3.8721e-08
1.91099e-09
3.84168e-08
1.78059e-09
3.81126e-08
1.65973e-09
3.78113e-08
1.5471e-09
3.75157e-08
1.4411e-09
3.7228e-08
1.33998e-09
3.69505e-08
1.242e-09
3.66855e-08
1.14547e-09
3.6435e-08
1.04887e-09
3.62012e-08
9.50986e-10
3.59858e-08
8.51119e-10
3.57901e-08
7.49316e-10
3.56151e-08
6.46573e-10
3.5461e-08
5.44855e-10
3.53274e-08
4.46884e-10
3.52135e-08
3.55676e-10
3.51177e-08
2.73989e-10
3.50382e-08
2.03879e-10
3.49724e-08
1.4661e-10
3.4918e-08
1.02591e-10
3.48723e-08
7.11141e-11
3.48331e-08
5.06337e-11
3.4798e-08
3.91983e-11
3.47649e-08
3.48862e-11
3.47318e-08
3.60077e-11
3.46974e-08
4.10887e-11
3.46607e-08
4.87977e-11
3.46213e-08
5.77765e-11
3.45794e-08
6.66184e-11
3.45357e-08
7.40355e-11
3.44908e-08
7.90904e-11
3.44457e-08
8.13295e-11
3.44013e-08
8.07535e-11
3.43587e-08
7.76922e-11
3.43184e-08
7.26632e-11
3.42813e-08
6.62544e-11
3.42477e-08
5.90402e-11
3.42178e-08
5.15265e-11
3.41917e-08
4.41228e-11
3.41693e-08
3.71332e-11
3.41504e-08
3.07601e-11
3.41346e-08
2.51174e-11
3.41215e-08
2.02459e-11
3.41109e-08
1.61326e-11
3.41023e-08
1.2727e-11
3.40954e-08
9.95891e-12
3.40899e-08
7.74687e-12
3.40855e-08
6.00363e-12
3.4082e-08
4.64256e-12
3.40793e-08
3.58629e-12
3.40771e-08
2.77009e-12
3.40754e-08
2.14131e-12
3.4074e-08
1.65766e-12
3.40729e-08
1.2858e-12
3.4072e-08
9.99552e-13
3.40713e-08
7.78714e-13
3.40707e-08
6.07888e-13
3.40703e-08
4.75357e-13
3.40699e-08
3.72242e-13
3.40696e-08
2.9188e-13
3.40694e-08
2.29203e-13
3.40692e-08
1.80242e-13
3.4069e-08
1.42066e-13
3.40689e-08
1.12327e-13
3.40688e-08
8.92486e-14
3.40687e-08
7.13529e-14
3.40687e-08
5.7529e-14
3.40686e-08
4.69139e-14
3.40686e-08
3.87811e-14
3.40685e-08
3.26208e-14
3.40685e-08
2.80036e-14
3.40685e-08
2.45728e-14
3.40684e-08
2.2082e-14
3.40684e-08
2.02932e-14
3.40684e-08
1.90405e-14
3.40684e-08
1.82194e-14
3.40684e-08
1.76675e-14
3.40684e-08
1.73209e-14
3.40684e-08
1.70901e-14
3.40684e-08
1.69184e-14
3.40684e-08
1.68442e-14
3.40683e-08
1.68675e-14
3.40683e-08
1.72274e-14
1.73801e-14
4.0321e-08
1.01228e-09
4.07306e-08
1.84086e-09
4.10916e-08
2.33083e-09
4.14135e-08
2.63063e-09
4.17099e-08
2.84462e-09
4.19713e-08
2.98307e-09
4.21901e-08
3.04646e-09
4.23643e-08
3.04805e-09
4.24939e-08
3.00244e-09
4.25799e-08
2.92102e-09
4.26249e-08
2.81341e-09
4.26324e-08
2.68849e-09
4.26069e-08
2.55404e-09
4.2553e-08
2.41635e-09
4.24756e-08
2.28006e-09
4.2379e-08
2.14828e-09
4.22673e-08
2.02268e-09
4.21441e-08
1.90384e-09
4.20124e-08
1.79144e-09
4.18749e-08
1.68459e-09
4.17339e-08
1.58201e-09
4.15917e-08
1.48221e-09
4.14501e-08
1.38363e-09
4.13108e-08
1.28472e-09
4.11756e-08
1.18412e-09
4.10458e-08
1.0808e-09
4.09226e-08
9.74313e-10
4.08069e-08
8.64988e-10
4.06994e-08
7.54123e-10
4.06002e-08
6.43964e-10
4.05097e-08
5.3747e-10
4.04275e-08
4.37864e-10
4.03533e-08
3.48126e-10
4.02866e-08
2.70584e-10
4.02265e-08
2.0674e-10
4.01719e-08
1.57165e-10
4.01217e-08
1.21359e-10
4.00743e-08
9.79698e-11
4.00284e-08
8.51718e-11
3.99822e-08
8.10185e-11
3.99346e-08
8.36224e-11
3.98845e-08
9.11761e-11
3.98314e-08
1.01914e-10
3.97752e-08
1.14042e-10
3.9716e-08
1.25784e-10
3.96545e-08
1.35557e-10
3.95914e-08
1.42189e-10
3.95277e-08
1.45041e-10
3.94644e-08
1.43995e-10
3.94028e-08
1.39345e-10
3.93438e-08
1.31665e-10
3.92883e-08
1.21681e-10
3.92372e-08
1.10163e-10
3.91909e-08
9.78456e-11
3.91496e-08
8.53772e-11
3.91135e-08
7.32839e-11
3.90823e-08
6.19593e-11
3.90557e-08
5.16665e-11
3.90334e-08
4.25508e-11
3.90149e-08
3.46596e-11
3.89997e-08
2.79652e-11
3.89872e-08
2.23882e-11
3.89772e-08
1.78162e-11
3.89691e-08
1.41179e-11
3.89625e-08
1.11571e-11
3.89573e-08
8.80494e-12
3.89531e-08
6.94698e-12
3.89498e-08
5.48509e-12
3.89471e-08
4.33726e-12
3.8945e-08
3.43655e-12
3.89432e-08
2.72914e-12
3.89418e-08
2.17242e-12
3.89407e-08
1.73312e-12
3.89398e-08
1.38542e-12
3.89391e-08
1.10936e-12
3.89385e-08
8.89593e-13
3.8938e-08
7.14246e-13
3.89376e-08
5.7406e-13
3.89373e-08
4.61874e-13
3.8937e-08
3.72015e-13
3.89368e-08
3.00068e-13
3.89366e-08
2.42449e-13
3.89365e-08
1.96332e-13
3.89364e-08
1.59484e-13
3.89363e-08
1.30062e-13
3.89362e-08
1.06636e-13
3.89362e-08
8.80398e-14
3.89361e-08
7.32991e-14
3.89361e-08
6.16679e-14
3.8936e-08
5.25066e-14
3.8936e-08
4.53019e-14
3.8936e-08
3.96817e-14
3.8936e-08
3.52617e-14
3.8936e-08
3.17991e-14
3.89359e-08
2.9075e-14
3.89359e-08
2.69059e-14
3.89359e-08
2.5246e-14
3.89359e-08
2.40062e-14
3.89359e-08
2.32373e-14
2.22352e-14
4.17121e-08
8.05732e-10
4.20337e-08
1.51929e-09
4.23559e-08
2.00858e-09
4.26587e-08
2.32788e-09
4.29492e-08
2.55415e-09
4.32226e-08
2.70964e-09
4.34715e-08
2.79758e-09
4.36921e-08
2.82738e-09
4.38831e-08
2.81146e-09
4.40438e-08
2.76031e-09
4.41746e-08
2.68263e-09
4.42768e-08
2.58627e-09
4.43527e-08
2.47817e-09
4.4405e-08
2.36408e-09
4.44366e-08
2.2484e-09
4.44507e-08
2.13422e-09
4.445e-08
2.02336e-09
4.44372e-08
1.91668e-09
4.44145e-08
1.81417e-09
4.43838e-08
1.71526e-09
4.43469e-08
1.61895e-09
4.43051e-08
1.52402e-09
4.42596e-08
1.4291e-09
4.42114e-08
1.33289e-09
4.41613e-08
1.23419e-09
4.41099e-08
1.13221e-09
4.40576e-08
1.02666e-09
4.40045e-08
9.18054e-10
4.39509e-08
8.07764e-10
4.38968e-08
6.98042e-10
4.38425e-08
5.91778e-10
4.37882e-08
4.92111e-10
4.37344e-08
4.01985e-10
4.36812e-08
3.23781e-10
4.36288e-08
2.59103e-10
4.35773e-08
2.08672e-10
4.35264e-08
1.72239e-10
4.34757e-08
1.4874e-10
4.34242e-08
1.36584e-10
4.33713e-08
1.33931e-10
4.33161e-08
1.38848e-10
4.32579e-08
1.49357e-10
4.31964e-08
1.63432e-10
4.31315e-08
1.78994e-10
4.30632e-08
1.93996e-10
4.29922e-08
2.06602e-10
4.2919e-08
2.15394e-10
4.28445e-08
2.195e-10
4.27699e-08
2.18613e-10
4.26963e-08
2.12918e-10
4.2625e-08
2.02971e-10
4.25571e-08
1.89581e-10
4.24936e-08
1.73684e-10
4.24352e-08
1.56241e-10
4.23824e-08
1.38155e-10
4.23355e-08
1.20214e-10
4.22944e-08
1.03051e-10
4.2259e-08
8.71327e-11
4.22287e-08
7.27597e-11
4.22033e-08
6.00854e-11
4.21821e-08
4.91407e-11
4.21647e-08
3.98637e-11
4.21504e-08
3.21275e-11
4.21387e-08
2.57653e-11
4.21293e-08
2.05919e-11
4.21217e-08
1.64226e-11
4.21155e-08
1.30854e-11
4.21106e-08
1.04274e-11
4.21066e-08
8.31673e-12
4.21034e-08
6.64309e-12
4.21008e-08
5.31592e-12
4.20987e-08
4.2622e-12
4.2097e-08
3.42387e-12
4.20956e-08
2.75523e-12
4.20945e-08
2.22047e-12
4.20936e-08
1.7917e-12
4.20929e-08
1.4471e-12
4.20923e-08
1.16961e-12
4.20918e-08
9.45848e-13
4.20914e-08
7.65206e-13
4.20911e-08
6.19334e-13
4.20909e-08
5.01502e-13
4.20906e-08
4.0633e-13
4.20905e-08
3.29534e-13
4.20903e-08
2.67602e-13
4.20902e-08
2.17734e-13
4.20901e-08
1.77656e-13
4.20901e-08
1.45482e-13
4.209e-08
1.19715e-13
4.209e-08
9.91132e-14
4.20899e-08
8.26525e-14
4.20899e-08
6.95551e-14
4.20899e-08
5.91058e-14
4.20898e-08
5.07874e-14
4.20898e-08
4.41728e-14
4.20898e-08
3.88895e-14
4.20898e-08
3.47466e-14
4.20898e-08
3.15216e-14
4.20898e-08
2.90943e-14
2.68992e-14
4.31957e-08
6.57735e-10
4.3447e-08
1.26802e-09
4.3725e-08
1.73057e-09
4.39986e-08
2.05427e-09
4.42661e-08
2.28666e-09
4.45242e-08
2.45156e-09
4.47666e-08
2.55518e-09
4.49892e-08
2.60476e-09
4.51902e-08
2.61045e-09
4.53688e-08
2.58175e-09
4.55247e-08
2.52666e-09
4.56588e-08
2.45222e-09
4.57723e-08
2.36468e-09
4.5867e-08
2.26933e-09
4.59451e-08
2.17028e-09
4.60088e-08
2.07055e-09
4.60601e-08
1.97204e-09
4.6101e-08
1.87579e-09
4.61331e-08
1.78206e-09
4.61579e-08
1.69054e-09
4.61763e-08
1.60052e-09
4.61893e-08
1.51103e-09
4.61974e-08
1.42097e-09
4.6201e-08
1.32926e-09
4.62003e-08
1.23494e-09
4.61951e-08
1.1374e-09
4.61852e-08
1.03653e-09
4.61704e-08
9.32876e-10
4.61504e-08
8.27783e-10
4.61251e-08
7.23337e-10
4.60947e-08
6.22182e-10
4.60596e-08
5.27198e-10
4.60205e-08
4.41124e-10
4.5978e-08
3.66242e-10
4.59329e-08
3.04161e-10
4.58859e-08
2.55706e-10
4.58373e-08
2.20857e-10
4.57872e-08
1.98843e-10
4.57354e-08
1.88347e-10
4.56816e-08
1.87717e-10
4.56254e-08
1.95091e-10
4.55663e-08
2.08457e-10
4.55041e-08
2.25668e-10
4.54386e-08
2.44482e-10
4.53699e-08
2.62668e-10
4.52983e-08
2.78184e-10
4.52243e-08
2.8938e-10
4.51487e-08
2.9514e-10
4.50724e-08
2.94938e-10
4.49965e-08
2.88795e-10
4.49223e-08
2.77199e-10
4.48509e-08
2.60982e-10
4.47834e-08
2.41198e-10
4.47206e-08
2.18997e-10
4.46632e-08
1.95522e-10
4.46116e-08
1.71815e-10
4.45659e-08
1.48758e-10
4.4526e-08
1.2704e-10
4.44916e-08
1.0714e-10
4.44624e-08
8.93473e-11
4.44377e-08
7.37762e-11
4.44172e-08
6.04069e-11
4.44002e-08
4.91182e-11
4.43862e-08
3.97223e-11
4.43748e-08
3.19949e-11
4.43656e-08
2.57012e-11
4.4358e-08
2.06141e-11
4.43519e-08
1.65257e-11
4.4347e-08
1.32524e-11
4.4343e-08
1.06374e-11
4.43398e-08
8.54974e-12
4.43372e-08
6.88231e-12
4.4335e-08
5.54867e-12
4.43333e-08
4.47993e-12
4.43319e-08
3.62156e-12
4.43308e-08
2.93062e-12
4.43298e-08
2.37328e-12
4.43291e-08
1.92289e-12
4.43285e-08
1.55842e-12
4.4328e-08
1.26316e-12
4.43276e-08
1.02385e-12
4.43272e-08
8.29831e-13
4.4327e-08
6.72529e-13
4.43268e-08
5.45081e-13
4.43266e-08
4.41881e-13
4.43264e-08
3.5841e-13
4.43263e-08
2.90998e-13
4.43262e-08
2.36611e-13
4.43262e-08
1.92812e-13
4.43261e-08
1.57594e-13
4.43261e-08
1.29298e-13
4.4326e-08
1.06631e-13
4.4326e-08
8.84607e-14
4.4326e-08
7.39212e-14
4.4326e-08
6.23156e-14
4.43259e-08
5.3035e-14
4.43259e-08
4.56975e-14
4.43259e-08
3.99204e-14
4.43259e-08
3.54237e-14
3.1768e-14
4.47579e-08
5.47045e-10
4.49564e-08
1.06953e-09
4.51931e-08
1.49384e-09
4.54372e-08
1.81018e-09
4.56803e-08
2.04353e-09
4.59184e-08
2.21347e-09
4.61459e-08
2.32764e-09
4.63586e-08
2.39208e-09
4.65542e-08
2.41491e-09
4.67315e-08
2.40439e-09
4.68904e-08
2.36777e-09
4.70312e-08
2.31143e-09
4.71549e-08
2.24101e-09
4.72628e-08
2.16135e-09
4.73568e-08
2.07631e-09
4.74386e-08
1.98881e-09
4.75098e-08
1.90082e-09
4.75721e-08
1.81351e-09
4.76267e-08
1.72738e-09
4.76749e-08
1.64238e-09
4.77173e-08
1.55806e-09
4.77546e-08
1.47373e-09
4.77871e-08
1.38855e-09
4.78146e-08
1.30169e-09
4.78371e-08
1.21243e-09
4.78542e-08
1.12034e-09
4.78653e-08
1.02543e-09
4.78699e-08
9.28284e-10
4.78675e-08
8.30136e-10
4.7858e-08
7.32851e-10
4.78415e-08
6.38764e-10
4.78182e-08
5.50428e-10
4.7789e-08
4.70306e-10
4.77548e-08
4.005e-10
4.77164e-08
3.42562e-10
4.76747e-08
2.97373e-10
4.76305e-08
2.65091e-10
4.75841e-08
2.45206e-10
4.75358e-08
2.36668e-10
4.74855e-08
2.38037e-10
4.7433e-08
2.47585e-10
4.73781e-08
2.63343e-10
4.73206e-08
2.83141e-10
4.72604e-08
3.04661e-10
4.71976e-08
3.25561e-10
4.71321e-08
3.43647e-10
4.70644e-08
3.57078e-10
4.6995e-08
3.64521e-10
4.69247e-08
3.65234e-10
4.68544e-08
3.59069e-10
4.67852e-08
3.46411e-10
4.67181e-08
3.28074e-10
4.66542e-08
3.05179e-10
4.65941e-08
2.79017e-10
4.65387e-08
2.5092e-10
4.64884e-08
2.22149e-10
4.64434e-08
1.93808e-10
4.64036e-08
1.66791e-10
4.6369e-08
1.41755e-10
4.63392e-08
1.19125e-10
4.63139e-08
9.91134e-11
4.62925e-08
8.17561e-11
4.62747e-08
6.69545e-11
4.62599e-08
5.45161e-11
4.62477e-08
4.41922e-11
4.62377e-08
3.57103e-11
4.62295e-08
2.87984e-11
4.62228e-08
2.3201e-11
4.62174e-08
1.86879e-11
4.6213e-08
1.50592e-11
4.62094e-08
1.21456e-11
4.62064e-08
9.80656e-12
4.62041e-08
7.92732e-12
4.62021e-08
6.41545e-12
4.62006e-08
5.19704e-12
4.61993e-08
4.21335e-12
4.61982e-08
3.41774e-12
4.61974e-08
2.77326e-12
4.61967e-08
2.25055e-12
4.61961e-08
1.8262e-12
4.61957e-08
1.48153e-12
4.61953e-08
1.20151e-12
4.6195e-08
9.74016e-13
4.61947e-08
7.89303e-13
4.61946e-08
6.39414e-13
4.61944e-08
5.17901e-13
4.61943e-08
4.19521e-13
4.61942e-08
3.39951e-13
4.61941e-08
2.75693e-13
4.6194e-08
2.23881e-13
4.6194e-08
1.82141e-13
4.61939e-08
1.48596e-13
4.61939e-08
1.21647e-13
4.61939e-08
1.00031e-13
4.61938e-08
8.27421e-14
4.61938e-08
6.89072e-14
4.61938e-08
5.79245e-14
4.61938e-08
4.9238e-14
4.61938e-08
4.24066e-14
3.70101e-14
4.63917e-08
4.6135e-10
4.65509e-08
9.10391e-10
4.67515e-08
1.29317e-09
4.69677e-08
1.59405e-09
4.71877e-08
1.82346e-09
4.74063e-08
1.99495e-09
4.7618e-08
2.11588e-09
4.78186e-08
2.1915e-09
4.80053e-08
2.22822e-09
4.81767e-08
2.23298e-09
4.83323e-08
2.2122e-09
4.84721e-08
2.17157e-09
4.8597e-08
2.11618e-09
4.87079e-08
2.05042e-09
4.88063e-08
1.9779e-09
4.88937e-08
1.90142e-09
4.89715e-08
1.82298e-09
4.90412e-08
1.74386e-09
4.91038e-08
1.66474e-09
4.91604e-08
1.58579e-09
4.92116e-08
1.50684e-09
4.92579e-08
1.42744e-09
4.92995e-08
1.34701e-09
4.93362e-08
1.26498e-09
4.93678e-08
1.18083e-09
4.93938e-08
1.09433e-09
4.94136e-08
1.00558e-09
4.94267e-08
9.15178e-10
4.94326e-08
8.24246e-10
4.9431e-08
7.34427e-10
4.9422e-08
6.47757e-10
4.9406e-08
5.66463e-10
4.93836e-08
4.92722e-10
4.93557e-08
4.28435e-10
4.93232e-08
3.75059e-10
4.9287e-08
3.33496e-10
4.92481e-08
3.04035e-10
4.92069e-08
2.86372e-10
4.91639e-08
2.79693e-10
4.91192e-08
2.82763e-10
4.90728e-08
2.94003e-10
4.90246e-08
3.11534e-10
4.89745e-08
3.33214e-10
4.89224e-08
3.56715e-10
4.88684e-08
3.79639e-10
4.88123e-08
3.997e-10
4.87545e-08
4.14919e-10
4.86952e-08
4.23792e-10
4.8635e-08
4.25399e-10
4.85747e-08
4.19433e-10
4.85149e-08
4.06172e-10
4.84566e-08
3.86383e-10
4.84006e-08
3.61212e-10
4.83475e-08
3.32035e-10
4.82982e-08
3.00315e-10
4.82528e-08
2.67479e-10
4.82118e-08
2.34806e-10
4.81753e-08
2.03362e-10
4.8143e-08
1.73957e-10
4.8115e-08
1.4714e-10
4.80909e-08
1.2322e-10
4.80704e-08
1.02295e-10
4.8053e-08
8.43003e-11
4.80385e-08
6.90539e-11
4.80264e-08
5.62977e-11
4.80164e-08
4.57367e-11
4.80081e-08
3.70671e-11
4.80013e-08
2.99972e-11
4.79957e-08
2.426e-11
4.79912e-08
1.96196e-11
4.79874e-08
1.58733e-11
4.79844e-08
1.28513e-11
4.79819e-08
1.0413e-11
4.79799e-08
8.44411e-12
4.79782e-08
6.85235e-12
4.79769e-08
5.56371e-12
4.79758e-08
4.51901e-12
4.79749e-08
3.67102e-12
4.79742e-08
2.98201e-12
4.79736e-08
2.42173e-12
4.79731e-08
1.96596e-12
4.79727e-08
1.59515e-12
4.79724e-08
1.2935e-12
4.79721e-08
1.04824e-12
4.79719e-08
8.48949e-13
4.79717e-08
6.87161e-13
4.79716e-08
5.55977e-13
4.79715e-08
4.49719e-13
4.79714e-08
3.6377e-13
4.79713e-08
2.94357e-13
4.79713e-08
2.38351e-13
4.79712e-08
1.9326e-13
4.79712e-08
1.56992e-13
4.79712e-08
1.2786e-13
4.79711e-08
1.04531e-13
4.79711e-08
8.58545e-14
4.79711e-08
7.09929e-14
4.79711e-08
5.92117e-14
4.79711e-08
4.99066e-14
4.25978e-14
4.80947e-08
3.93178e-10
4.82243e-08
7.80846e-10
4.83944e-08
1.123e-09
4.85848e-08
1.40368e-09
4.87833e-08
1.62497e-09
4.89833e-08
1.79491e-09
4.91798e-08
1.91946e-09
4.93682e-08
2.00309e-09
4.95455e-08
2.05085e-09
4.97101e-08
2.06841e-09
4.9861e-08
2.06127e-09
4.99982e-08
2.03446e-09
5.01218e-08
1.99251e-09
5.02329e-08
1.93937e-09
5.03324e-08
1.87838e-09
5.04216e-08
1.8122e-09
5.05018e-08
1.74278e-09
5.05742e-08
1.6715e-09
5.06397e-08
1.59918e-09
5.06994e-08
1.52618e-09
5.07537e-08
1.45254e-09
5.0803e-08
1.37806e-09
5.08477e-08
1.30239e-09
5.08875e-08
1.22517e-09
5.09222e-08
1.1461e-09
5.09514e-08
1.0651e-09
5.09747e-08
9.82357e-10
5.09914e-08
8.98475e-10
5.10011e-08
8.14481e-10
5.10037e-08
7.31821e-10
5.09992e-08
6.52263e-10
5.09879e-08
5.77742e-10
5.09705e-08
5.10172e-10
5.09477e-08
4.51259e-10
5.09204e-08
4.02352e-10
5.08895e-08
3.64346e-10
5.08559e-08
3.3762e-10
5.08203e-08
3.22032e-10
5.0783e-08
3.16956e-10
5.07444e-08
3.21341e-10
5.07047e-08
3.33758e-10
5.06638e-08
3.52431e-10
5.06217e-08
3.75284e-10
5.05784e-08
4.00017e-10
5.05338e-08
4.24231e-10
5.04879e-08
4.45598e-10
5.04408e-08
4.62055e-10
5.03926e-08
4.71983e-10
5.03437e-08
4.74326e-10
5.02945e-08
4.68647e-10
5.02455e-08
4.55117e-10
5.01974e-08
4.34447e-10
5.01509e-08
4.07766e-10
5.01064e-08
3.76487e-10
5.00646e-08
3.42153e-10
5.00258e-08
3.06296e-10
4.99903e-08
2.70321e-10
4.99582e-08
2.35423e-10
4.99296e-08
2.02533e-10
4.99045e-08
1.72309e-10
4.98825e-08
1.45143e-10
4.98636e-08
1.21199e-10
4.98475e-08
1.00453e-10
4.98338e-08
8.27444e-11
4.98223e-08
6.78194e-11
4.98126e-08
5.53744e-11
4.98046e-08
4.5088e-11
4.9798e-08
3.66447e-11
4.97925e-08
2.97505e-11
4.9788e-08
2.41424e-11
4.97842e-08
1.95913e-11
4.97812e-08
1.59026e-11
4.97787e-08
1.29142e-11
4.97766e-08
1.04923e-11
4.9775e-08
8.52819e-12
4.97736e-08
6.93389e-12
4.97725e-08
5.63847e-12
4.97716e-08
4.58494e-12
4.97708e-08
3.72751e-12
4.97702e-08
3.02929e-12
4.97697e-08
2.46057e-12
4.97693e-08
1.99734e-12
4.9769e-08
1.62011e-12
4.97687e-08
1.31308e-12
4.97685e-08
1.06337e-12
4.97683e-08
8.60445e-13
4.97682e-08
6.95741e-13
4.97681e-08
5.62203e-13
4.9768e-08
4.54072e-13
4.97679e-08
3.66651e-13
4.97679e-08
2.9605e-13
4.97678e-08
2.39142e-13
4.97678e-08
1.93333e-13
4.97677e-08
1.56507e-13
4.97677e-08
1.26991e-13
4.97677e-08
1.03354e-13
4.97677e-08
8.4517e-14
4.97677e-08
6.95641e-14
4.97677e-08
5.77283e-14
4.84358e-14
4.98664e-08
3.37771e-10
4.99733e-08
6.73893e-10
5.01181e-08
9.78223e-10
5.02853e-08
1.2365e-09
5.04637e-08
1.44656e-09
5.06463e-08
1.61226e-09
5.0828e-08
1.73775e-09
5.10045e-08
1.82662e-09
5.11726e-08
1.88279e-09
5.13302e-08
1.91081e-09
5.14762e-08
1.91527e-09
5.16101e-08
1.90053e-09
5.17321e-08
1.87056e-09
5.18425e-08
1.82889e-09
5.19423e-08
1.77857e-09
5.20325e-08
1.72206e-09
5.2114e-08
1.66128e-09
5.21879e-08
1.59763e-09
5.2255e-08
1.53202e-09
5.23162e-08
1.46498e-09
5.2372e-08
1.39672e-09
5.24228e-08
1.32725e-09
5.24688e-08
1.25642e-09
5.25099e-08
1.18406e-09
5.2546e-08
1.11005e-09
5.25766e-08
1.03444e-09
5.26015e-08
9.57504e-10
5.26201e-08
8.79835e-10
5.26322e-08
8.02381e-10
5.26376e-08
7.26419e-10
5.26364e-08
6.53493e-10
5.26288e-08
5.85289e-10
5.26155e-08
5.23486e-10
5.25972e-08
4.69611e-10
5.25746e-08
4.24906e-10
5.25487e-08
3.90242e-10
5.25203e-08
3.66055e-10
5.249e-08
3.5232e-10
5.24584e-08
3.48566e-10
5.24258e-08
3.53899e-10
5.23926e-08
3.67024e-10
5.23587e-08
3.8628e-10
5.23243e-08
4.09678e-10
5.22894e-08
4.34979e-10
5.22538e-08
4.59816e-10
5.22175e-08
4.81866e-10
5.21805e-08
4.99035e-10
5.21429e-08
5.09634e-10
5.21047e-08
5.12515e-10
5.20662e-08
5.07141e-10
5.20277e-08
4.93589e-10
5.19897e-08
4.72498e-10
5.19525e-08
4.4496e-10
5.19166e-08
4.12383e-10
5.18824e-08
3.76339e-10
5.18503e-08
3.38417e-10
5.18205e-08
3.00101e-10
5.17933e-08
2.62673e-10
5.17686e-08
2.27155e-10
5.17467e-08
1.94291e-10
5.17272e-08
1.64548e-10
5.17103e-08
1.3815e-10
5.16956e-08
1.15119e-10
5.16831e-08
9.53227e-11
5.16723e-08
7.85234e-11
5.16633e-08
6.44213e-11
5.16557e-08
5.26889e-11
5.16493e-08
4.29983e-11
5.16441e-08
3.50388e-11
5.16397e-08
2.85282e-11
5.1636e-08
2.32178e-11
5.16331e-08
1.88941e-11
5.16306e-08
1.53768e-11
5.16286e-08
1.25161e-11
5.16269e-08
1.01891e-11
5.16255e-08
8.29519e-12
5.16244e-08
6.75291e-12
5.16235e-08
5.49625e-12
5.16228e-08
4.47185e-12
5.16222e-08
3.63655e-12
5.16217e-08
2.95538e-12
5.16213e-08
2.39998e-12
5.16209e-08
1.94729e-12
5.16207e-08
1.57854e-12
5.16205e-08
1.27839e-12
5.16203e-08
1.03429e-12
5.16201e-08
8.36022e-13
5.162e-08
6.75151e-13
5.16199e-08
5.44789e-13
5.16199e-08
4.39314e-13
5.16198e-08
3.54077e-13
5.16198e-08
2.85317e-13
5.16197e-08
2.29937e-13
5.16197e-08
1.85392e-13
5.16197e-08
1.49666e-13
5.16197e-08
1.2105e-13
5.16196e-08
9.82213e-14
5.16196e-08
8.00835e-14
5.16196e-08
6.57104e-14
5.44225e-14
5.17075e-08
2.91958e-10
5.17969e-08
5.84477e-10
5.19207e-08
8.54454e-10
5.20673e-08
1.08986e-09
5.22272e-08
1.28668e-09
5.23935e-08
1.44594e-09
5.25612e-08
1.5701e-09
5.2726e-08
1.66179e-09
5.28848e-08
1.724e-09
5.30353e-08
1.76028e-09
5.31762e-08
1.7744e-09
5.33067e-08
1.77003e-09
5.34266e-08
1.75062e-09
5.35363e-08
1.71928e-09
5.36361e-08
1.67874e-09
5.37269e-08
1.63128e-09
5.38094e-08
1.57872e-09
5.38846e-08
1.52247e-09
5.39531e-08
1.46348e-09
5.40157e-08
1.40241e-09
5.40728e-08
1.33961e-09
5.41248e-08
1.27525e-09
5.41719e-08
1.20934e-09
5.4214e-08
1.1419e-09
5.42511e-08
1.07295e-09
5.42829e-08
1.00264e-09
5.43091e-08
9.31311e-10
5.43294e-08
8.5956e-10
5.43435e-08
7.88259e-10
5.43514e-08
7.18546e-10
5.43531e-08
6.51776e-10
5.4349e-08
5.89422e-10
5.43395e-08
5.32962e-10
5.43254e-08
4.83761e-10
5.43073e-08
4.42961e-10
5.42862e-08
4.11396e-10
5.42627e-08
3.89533e-10
5.42376e-08
3.77434e-10
5.42114e-08
3.74749e-10
5.41846e-08
3.80713e-10
5.41574e-08
3.9416e-10
5.41302e-08
4.13543e-10
5.41029e-08
4.3697e-10
5.40756e-08
4.62288e-10
5.40482e-08
4.87194e-10
5.40206e-08
5.09406e-10
5.39928e-08
5.26836e-10
5.39647e-08
5.37771e-10
5.39362e-08
5.41006e-10
5.39074e-08
5.35929e-10
5.38785e-08
5.22536e-10
5.38496e-08
5.01393e-10
5.3821e-08
4.73533e-10
5.37931e-08
4.40329e-10
5.37661e-08
4.03344e-10
5.37403e-08
3.64184e-10
5.3716e-08
3.24367e-10
5.36935e-08
2.8523e-10
5.36728e-08
2.47858e-10
5.3654e-08
2.13057e-10
5.36372e-08
1.81359e-10
5.36223e-08
1.53044e-10
5.36092e-08
1.28178e-10
5.35979e-08
1.06664e-10
5.35881e-08
8.82877e-11
5.35798e-08
7.27629e-11
5.35727e-08
5.97662e-11
5.35667e-08
4.89667e-11
5.35617e-08
4.00458e-11
5.35576e-08
3.27097e-11
5.35541e-08
2.66966e-11
5.35512e-08
2.17787e-11
5.35488e-08
1.77622e-11
5.35468e-08
1.4484e-11
5.35452e-08
1.18092e-11
5.35439e-08
9.62657e-12
5.35428e-08
7.84523e-12
5.35419e-08
6.39107e-12
5.35412e-08
5.20381e-12
5.35406e-08
4.23442e-12
5.35401e-08
3.44302e-12
5.35397e-08
2.79712e-12
5.35394e-08
2.27022e-12
5.35391e-08
1.8407e-12
5.35389e-08
1.49084e-12
5.35387e-08
1.20615e-12
5.35386e-08
9.74753e-13
5.35385e-08
7.86895e-13
5.35384e-08
6.34576e-13
5.35383e-08
5.11263e-13
5.35382e-08
4.11562e-13
5.35382e-08
3.31088e-13
5.35382e-08
2.66245e-13
5.35381e-08
2.14071e-13
5.35381e-08
1.72202e-13
5.35381e-08
1.38661e-13
5.35381e-08
1.11883e-13
5.35381e-08
9.05945e-14
5.35381e-08
7.37144e-14
6.04548e-14
5.36196e-08
2.53546e-10
5.36952e-08
5.08899e-10
5.38016e-08
7.48075e-10
5.39302e-08
9.61192e-10
5.40732e-08
1.14367e-09
5.42243e-08
1.29485e-09
5.43786e-08
1.41581e-09
5.45321e-08
1.50826e-09
5.46817e-08
1.5744e-09
5.48251e-08
1.61693e-09
5.49606e-08
1.63885e-09
5.50874e-08
1.64323e-09
5.52051e-08
1.63298e-09
5.53135e-08
1.61081e-09
5.54131e-08
1.57915e-09
5.55043e-08
1.54007e-09
5.55878e-08
1.49528e-09
5.56641e-08
1.44612e-09
5.5734e-08
1.39361e-09
5.57979e-08
1.33846e-09
5.58564e-08
1.28114e-09
5.59097e-08
1.22194e-09
5.5958e-08
1.16103e-09
5.60014e-08
1.09854e-09
5.60397e-08
1.03463e-09
5.60728e-08
9.69524e-10
5.61005e-08