/*--------------------------------*- C++ -*----------------------------------*\
| =========                 |                                                 |
| \\      /  F ield         | OpenFOAM: The Open Source CFD Toolbox           |
|  \\    /   O peration     | Version:  2.3.0                                 |
|   \\  /    A nd           | Web:      www.OpenFOAM.org                      |
|    \\/     M anipulation  |                                                 |
\*---------------------------------------------------------------------------*/
FoamFile
{
    version     2.0;
    format      ascii;
    class       surfaceScalarField;
    location    "0.1";
    object      phi_0;
}
// * * * * * * * * * * * * * * * * * * * * * * * * * * * * * * * * * * * * * //

dimensions      [0 3 -1 0 0 0 0];

internalField   nonuniform List<scalar> 
5273
(
3.15606e-08
3.02438e-09
2.86647e-08
2.89596e-09
2.6024e-08
2.64067e-09
2.35274e-08
2.49666e-09
2.11925e-08
2.33482e-09
1.90523e-08
2.14025e-09
1.71227e-08
1.92958e-09
1.54078e-08
1.71493e-09
1.39044e-08
1.50338e-09
1.26039e-08
1.30053e-09
1.14926e-08
1.11122e-09
1.05535e-08
9.39175e-10
9.76675e-09
7.86718e-10
9.11195e-09
6.54803e-10
8.5688e-09
5.43149e-10
8.11832e-09
4.50477e-10
7.74351e-09
3.74812e-10
7.42971e-09
3.138e-10
7.16473e-09
2.64978e-10
6.93874e-09
2.25996e-10
6.74399e-09
1.94746e-10
6.57456e-09
1.69427e-10
6.42602e-09
1.48547e-10
6.29513e-09
1.30882e-10
6.17972e-09
1.15415e-10
6.07844e-09
1.01284e-10
5.99066e-09
8.77741e-11
5.9163e-09
7.43666e-11
5.85548e-09
6.08169e-11
5.80829e-09
4.71902e-11
5.77447e-09
3.38168e-11
5.75326e-09
2.12133e-11
5.74339e-09
9.86426e-12
5.74244e-09
9.51725e-13
5.74696e-09
-4.52e-12
5.75442e-09
-7.46212e-12
5.76314e-09
-8.71376e-12
5.7717e-09
-8.55993e-12
5.77924e-09
-7.54232e-12
5.78545e-09
-6.20931e-12
5.79029e-09
-4.84004e-12
5.79383e-09
-3.54099e-12
5.79619e-09
-2.35516e-12
5.79749e-09
-1.3072e-12
5.79781e-09
-3.20219e-13
5.79719e-09
6.20165e-13
5.79571e-09
1.48055e-12
5.79367e-09
2.04657e-12
5.79137e-09
2.2942e-12
5.78909e-09
2.28265e-12
5.78699e-09
2.09372e-12
5.78519e-09
1.80345e-12
5.78372e-09
1.47176e-12
5.78258e-09
1.1407e-12
5.78174e-09
8.36466e-13
5.78117e-09
5.72509e-13
5.78082e-09
3.53517e-13
5.78064e-09
1.78975e-13
5.78059e-09
4.76715e-14
5.78063e-09
-3.76495e-14
5.78072e-09
-9.19271e-14
5.78084e-09
-1.25286e-13
5.78099e-09
-1.42686e-13
5.78114e-09
-1.47755e-13
5.78128e-09
-1.43908e-13
5.78141e-09
-1.3446e-13
5.78154e-09
-1.22584e-13
5.78165e-09
-1.10133e-13
5.78174e-09
-9.78184e-14
5.78183e-09
-8.61401e-14
5.78191e-09
-7.52987e-14
5.78197e-09
-6.54604e-14
5.78203e-09
-5.66146e-14
5.78208e-09
-4.87671e-14
5.78212e-09
-4.18531e-14
5.78215e-09
-3.57862e-14
5.78218e-09
-3.04765e-14
5.78221e-09
-2.58712e-14
5.78223e-09
-2.18948e-14
5.78225e-09
-1.84303e-14
5.78227e-09
-1.54307e-14
5.78228e-09
-1.28673e-14
5.78229e-09
-1.0651e-14
5.7823e-09
-8.77629e-15
5.78231e-09
-7.19681e-15
5.78231e-09
-5.82879e-15
5.78232e-09
-4.69297e-15
5.78232e-09
-3.72532e-15
5.78232e-09
-2.88931e-15
5.78232e-09
-2.21879e-15
5.78233e-09
-1.62791e-15
5.78233e-09
-1.13161e-15
5.78233e-09
-7.20506e-16
5.78233e-09
-3.5216e-16
5.78233e-09
-6.59374e-17
5.78233e-09
2.10553e-16
5.78233e-09
4.70442e-16
5.78233e-09
6.87506e-16
5.78233e-09
8.80807e-16
2.68406e-15
3.64394e-08
2.45499e-09
3.61725e-08
3.16287e-09
3.5588e-08
3.22523e-09
3.48079e-08
3.2767e-09
3.38708e-08
3.27194e-09
3.28325e-08
3.17857e-09
3.17405e-08
3.02154e-09
3.06294e-08
2.82609e-09
2.95249e-08
2.60782e-09
2.8447e-08
2.37841e-09
2.74102e-08
2.14802e-09
2.64244e-08
1.92505e-09
2.54954e-08
1.71572e-09
2.46261e-08
1.52402e-09
2.38174e-08
1.35193e-09
2.30681e-08
1.19978e-09
2.23762e-08
1.06665e-09
2.17392e-08
9.50818e-10
2.11541e-08
8.50117e-10
2.06178e-08
7.62239e-10
2.01276e-08
6.84934e-10
1.96809e-08
6.16127e-10
1.92755e-08
5.53945e-10
1.89097e-08
4.96711e-10
1.85822e-08
4.42926e-10
1.82922e-08
3.91283e-10
1.80392e-08
3.40756e-10
1.78228e-08
2.90749e-10
1.76424e-08
2.41271e-10
1.74965e-08
1.93031e-10
1.7383e-08
1.47356e-10
1.72983e-08
1.05955e-10
1.72378e-08
7.03619e-11
1.71977e-08
4.10171e-11
1.7176e-08
1.71974e-11
1.71689e-08
-3.44142e-13
1.71701e-08
-9.99762e-12
1.71748e-08
-1.32254e-11
1.718e-08
-1.27782e-11
1.71843e-08
-1.04976e-11
1.71869e-08
-7.44397e-12
1.71876e-08
-4.2539e-12
1.71865e-08
-1.19927e-12
1.71832e-08
1.9875e-12
1.71775e-08
5.40574e-12
1.71696e-08
8.45331e-12
1.71604e-08
1.06716e-11
1.71506e-08
1.18623e-11
1.71408e-08
1.20898e-11
1.71316e-08
1.15543e-11
1.71232e-08
1.0498e-11
1.71158e-08
9.14884e-12
1.71096e-08
7.69238e-12
1.71045e-08
6.26387e-12
1.71004e-08
4.95079e-12
1.70971e-08
3.80121e-12
1.70946e-08
2.83373e-12
1.70928e-08
2.04611e-12
1.70914e-08
1.42185e-12
1.70904e-08
9.39005e-13
1.70898e-08
5.70625e-13
1.70893e-08
2.95952e-13
1.70891e-08
9.84677e-14
1.7089e-08
-2.77387e-14
1.70889e-08
-9.5807e-14
1.70889e-08
-1.29194e-13
1.7089e-08
-1.43243e-13
1.7089e-08
-1.45873e-13
1.7089e-08
-1.41563e-13
1.70891e-08
-1.33128e-13
1.70891e-08
-1.22487e-13
1.70892e-08
-1.10881e-13
1.70892e-08
-9.91404e-14
1.70893e-08
-8.77518e-14
1.70893e-08
-7.70434e-14
1.70893e-08
-6.71301e-14
1.70893e-08
-5.80389e-14
1.70894e-08
-4.9885e-14
1.70894e-08
-4.25732e-14
1.70894e-08
-3.60434e-14
1.70894e-08
-3.02446e-14
1.70894e-08
-2.51579e-14
1.70894e-08
-2.07061e-14
1.70895e-08
-1.68391e-14
1.70895e-08
-1.35213e-14
1.70895e-08
-1.06418e-14
1.70895e-08
-8.1741e-15
1.70895e-08
-6.07783e-15
1.70895e-08
-4.26866e-15
1.70895e-08
-2.7727e-15
1.70895e-08
-1.52386e-15
1.70895e-08
-4.68997e-16
1.70895e-08
4.67374e-16
1.70895e-08
1.38304e-15
1.70895e-08
2.1856e-15
1.70895e-08
2.86679e-15
1.70895e-08
3.44226e-15
1.70895e-08
3.92551e-15
1.70895e-08
4.60385e-15
6.78911e-15
3.78829e-08
1.77486e-09
3.83063e-08
2.73952e-09
3.84814e-08
3.05008e-09
3.85194e-08
3.23877e-09
3.84264e-08
3.36487e-09
3.82102e-08
3.39478e-09
3.78909e-08
3.34081e-09
3.74892e-08
3.22781e-09
3.70233e-08
3.07369e-09
3.651e-08
2.89179e-09
3.5964e-08
2.69398e-09
3.53983e-08
2.49072e-09
3.48237e-08
2.29038e-09
3.42487e-08
2.09902e-09
3.36801e-08
1.92048e-09
3.31232e-08
1.75669e-09
3.25818e-08
1.60803e-09
3.20589e-08
1.47376e-09
3.15566e-08
1.35243e-09
3.10766e-08
1.24221e-09
3.06204e-08
1.14112e-09
3.01894e-08
1.04717e-09
2.97848e-08
9.58485e-10
2.94083e-08
8.73282e-10
2.90612e-08
7.8997e-10
2.87453e-08
7.07231e-10
2.84618e-08
6.24197e-10
2.82119e-08
5.40679e-10
2.79958e-08
4.5736e-10
2.7813e-08
3.75834e-10
2.7662e-08
2.98394e-10
2.75404e-08
2.27563e-10
2.74452e-08
1.65486e-10
2.73728e-08
1.13469e-10
2.73178e-08
7.22114e-11
2.72757e-08
4.17556e-11
2.72444e-08
2.12513e-11
2.72222e-08
9.02223e-12
2.72063e-08
3.1475e-12
2.71939e-08
1.88276e-12
2.71825e-08
3.89478e-12
2.71701e-08
8.17416e-12
2.7155e-08
1.39529e-11
2.71365e-08
2.04101e-11
2.71153e-08
2.66333e-11
2.7092e-08
3.17234e-11
2.70676e-08
3.5085e-11
2.7043e-08
3.6512e-11
2.70189e-08
3.61394e-11
2.69962e-08
3.43056e-11
2.69752e-08
3.143e-11
2.69565e-08
2.79275e-11
2.694e-08
2.41587e-11
2.69259e-08
2.0406e-11
2.69139e-08
1.68702e-11
2.69041e-08
1.36769e-11
2.6896e-08
1.08905e-11
2.68895e-08
8.528e-12
2.68844e-08
6.57289e-12
2.68803e-08
4.98933e-12
2.68772e-08
3.73093e-12
2.68747e-08
2.75259e-12
2.68728e-08
2.00967e-12
2.68713e-08
1.45613e-12
2.68702e-08
1.04754e-12
2.68693e-08
7.47496e-13
2.68686e-08
5.28086e-13
2.68681e-08
3.68497e-13
2.68677e-08
2.53098e-13
2.68674e-08
1.70258e-13
2.68672e-08
1.11153e-13
2.6867e-08
6.93517e-14
2.68669e-08
4.00537e-14
2.68667e-08
1.98418e-14
2.68667e-08
6.13059e-15
2.68666e-08
-3.02583e-15
2.68666e-08
-8.63706e-15
2.68665e-08
-1.16317e-14
2.68665e-08
-1.27526e-14
2.68665e-08
-1.26189e-14
2.68664e-08
-1.16552e-14
2.68664e-08
-1.02131e-14
2.68664e-08
-8.50681e-15
2.68664e-08
-6.68209e-15
2.68664e-08
-4.88426e-15
2.68664e-08
-3.13764e-15
2.68664e-08
-1.48668e-15
2.68664e-08
5.48325e-17
2.68664e-08
1.55403e-15
2.68664e-08
2.93444e-15
2.68664e-08
4.20126e-15
2.68664e-08
5.38552e-15
2.68663e-08
6.42654e-15
2.68663e-08
7.35846e-15
2.68663e-08
8.14359e-15
2.68663e-08
8.78633e-15
2.68663e-08
9.33365e-15
2.68663e-08
9.8286e-15
2.68663e-08
1.06164e-14
1.18778e-14
3.90454e-08
1.31456e-09
3.95345e-08
2.25038e-09
3.98929e-08
2.69172e-09
4.01792e-08
2.95247e-09
4.04033e-08
3.14077e-09
4.05538e-08
3.24421e-09
4.06297e-08
3.26492e-09
4.06358e-08
3.22177e-09
4.0578e-08
3.13142e-09
4.04635e-08
3.00633e-09
4.03e-08
2.85746e-09
4.00958e-08
2.69488e-09
3.98591e-08
2.52714e-09
3.95973e-08
2.36083e-09
3.93172e-08
2.2006e-09
3.90246e-08
2.04924e-09
3.87246e-08
1.90804e-09
3.84213e-08
1.77706e-09
3.81182e-08
1.65551e-09
3.78183e-08
1.54207e-09
3.75243e-08
1.43511e-09
3.72387e-08
1.33286e-09
3.69636e-08
1.23354e-09
3.67014e-08
1.13546e-09
3.64543e-08
1.03708e-09
3.62243e-08
9.37258e-10
3.60131e-08
8.35402e-10
3.5822e-08
7.31766e-10
3.56518e-08
6.27601e-10
3.55025e-08
5.25132e-10
3.53736e-08
4.27265e-10
3.52641e-08
3.37064e-10
3.51724e-08
2.57184e-10
3.50964e-08
1.89487e-10
3.50335e-08
1.3504e-10
3.49813e-08
9.3961e-11
3.49373e-08
6.52948e-11
3.4899e-08
4.72868e-11
3.48643e-08
3.79242e-11
3.48309e-08
3.52878e-11
3.4797e-08
3.77093e-11
3.47615e-08
4.37223e-11
3.47235e-08
5.19747e-11
3.46828e-08
6.10636e-11
3.46399e-08
6.95889e-11
3.45952e-08
7.63339e-11
3.45498e-08
8.05002e-11
3.45046e-08
8.17819e-11
3.44604e-08
8.03019e-11
3.44182e-08
7.64718e-11
3.43788e-08
7.08529e-11
3.43427e-08
6.40462e-11
3.43102e-08
5.66162e-11
3.42816e-08
4.90448e-11
3.42568e-08
4.17097e-11
3.42356e-08
3.48808e-11
3.42177e-08
2.87284e-11
3.42029e-08
2.33377e-11
3.41907e-08
1.87266e-11
3.41809e-08
1.48653e-11
3.41729e-08
1.16923e-11
3.41665e-08
9.13088e-12
3.41614e-08
7.09593e-12
3.41574e-08
5.49899e-12
3.41542e-08
4.25539e-12
3.41517e-08
3.29186e-12
3.41496e-08
2.54787e-12
3.4148e-08
1.97464e-12
3.41467e-08
1.53322e-12
3.41457e-08
1.19317e-12
3.41449e-08
9.30674e-13
3.41442e-08
7.27546e-13
3.41437e-08
5.69839e-13
3.41433e-08
4.47061e-13
3.41429e-08
3.51193e-13
3.41427e-08
2.76224e-13
3.41424e-08
2.17597e-13
3.41423e-08
1.71669e-13
3.41421e-08
1.35767e-13
3.4142e-08
1.07742e-13
3.41419e-08
8.59381e-14
3.41418e-08
6.90003e-14
3.41417e-08
5.58859e-14
3.41417e-08
4.57969e-14
3.41416e-08
3.80455e-14
3.41416e-08
3.21602e-14
3.41416e-08
2.77484e-14
3.41416e-08
2.44443e-14
3.41415e-08
2.20434e-14
3.41415e-08
2.03108e-14
3.41415e-08
1.90863e-14
3.41415e-08
1.82777e-14
3.41415e-08
1.7712e-14
3.41415e-08
1.73385e-14
3.41415e-08
1.70722e-14
3.41415e-08
1.68649e-14
3.41414e-08
1.67397e-14
3.41414e-08
1.67146e-14
3.41414e-08
1.69976e-14
1.6993e-14
4.0321e-08
1.01224e-09
4.07306e-08
1.84079e-09
4.10916e-08
2.33072e-09
4.14136e-08
2.63046e-09
4.171e-08
2.84439e-09
4.19714e-08
2.98276e-09
4.21903e-08
3.04606e-09
4.23646e-08
3.04753e-09
4.24942e-08
3.00178e-09
4.25803e-08
2.92019e-09
4.26254e-08
2.81238e-09
4.26331e-08
2.68721e-09
4.26078e-08
2.55246e-09
4.25542e-08
2.41442e-09
4.2477e-08
2.27772e-09
4.23808e-08
2.14544e-09
4.22696e-08
2.01926e-09
4.2147e-08
1.89972e-09
4.2016e-08
1.78651e-09
4.18793e-08
1.67869e-09
4.17395e-08
1.57498e-09
4.15985e-08
1.47384e-09
4.14583e-08
1.37369e-09
4.13208e-08
1.27298e-09
4.11875e-08
1.17037e-09
4.10599e-08
1.06492e-09
4.0939e-08
9.5629e-10
4.08257e-08
8.45053e-10
4.07205e-08
7.3276e-10
4.06238e-08
6.21906e-10
4.05354e-08
5.15622e-10
4.04553e-08
4.17175e-10
4.0383e-08
3.29454e-10
4.03179e-08
2.54605e-10
4.0259e-08
1.9391e-10
4.02053e-08
1.47662e-10
4.01555e-08
1.15104e-10
4.01081e-08
9.46753e-11
4.00616e-08
8.44474e-11
4.00145e-08
8.24265e-11
3.99655e-08
8.66972e-11
3.99138e-08
9.54206e-11
3.9859e-08
1.06791e-10
3.98011e-08
1.1898e-10
3.97404e-08
1.30234e-10
3.96777e-08
1.39063e-10
3.96137e-08
1.44449e-10
3.95496e-08
1.45922e-10
3.94864e-08
1.43518e-10
3.94252e-08
1.37649e-10
3.93671e-08
1.28965e-10
3.93129e-08
1.18232e-10
3.92633e-08
1.0623e-10
3.92187e-08
9.36794e-11
3.91792e-08
8.11941e-11
3.91448e-08
6.92587e-11
3.91153e-08
5.82204e-11
3.90903e-08
4.82971e-11
3.90695e-08
3.95939e-11
3.90522e-08
3.21252e-11
3.90381e-08
2.58385e-11
3.90266e-08
2.06372e-11
3.90173e-08
1.63982e-11
3.90098e-08
1.29853e-11
3.90038e-08
1.02624e-11
3.8999e-08
8.10448e-12
3.89951e-08
6.40245e-12
3.8992e-08
5.06397e-12
3.89895e-08
4.01261e-12
3.89875e-08
3.18666e-12
3.89859e-08
2.53672e-12
3.89846e-08
2.02407e-12
3.89836e-08
1.61846e-12
3.89827e-08
1.29656e-12
3.8982e-08
1.04029e-12
3.89815e-08
8.35753e-13
3.8981e-08
6.7219e-13
3.89807e-08
5.41149e-13
3.89804e-08
4.36089e-13
3.89801e-08
3.51808e-13
3.89799e-08
2.84226e-13
3.89798e-08
2.30036e-13
3.89796e-08
1.86613e-13
3.89795e-08
1.51884e-13
3.89794e-08
1.24124e-13
3.89794e-08
1.02e-13
3.89793e-08
8.44327e-14
3.89793e-08
7.04818e-14
3.89792e-08
5.94693e-14
3.89792e-08
5.07883e-14
3.89792e-08
4.39496e-14
3.89791e-08
3.86103e-14
3.89791e-08
3.4393e-14
3.89791e-08
3.10767e-14
3.89791e-08
2.84528e-14
3.89791e-08
2.63577e-14
3.89791e-08
2.47314e-14
3.89791e-08
2.35058e-14
3.89791e-08
2.2712e-14
2.16056e-14
4.17121e-08
8.05696e-10
4.20337e-08
1.51921e-09
4.2356e-08
2.00846e-09
4.26587e-08
2.3277e-09
4.29492e-08
2.55389e-09
4.32227e-08
2.7093e-09
4.34716e-08
2.79713e-09
4.36923e-08
2.82681e-09
4.38834e-08
2.81074e-09
4.40442e-08
2.75941e-09
4.4175e-08
2.68152e-09
4.42773e-08
2.58489e-09
4.43533e-08
2.47648e-09
4.44057e-08
2.36201e-09
4.44376e-08
2.2459e-09
4.44518e-08
2.13118e-09
4.44514e-08
2.01971e-09
4.44388e-08
1.91228e-09
4.44164e-08
1.8089e-09
4.43862e-08
1.70896e-09
4.43497e-08
1.61145e-09
4.43084e-08
1.51511e-09
4.42635e-08
1.41857e-09
4.4216e-08
1.32052e-09
4.41666e-08
1.21981e-09
4.41158e-08
1.11571e-09
4.40639e-08
1.00811e-09
4.40113e-08
8.97698e-10
4.3958e-08
7.86109e-10
4.3904e-08
6.75813e-10
4.38498e-08
5.69854e-10
4.37956e-08
4.71415e-10
4.37417e-08
3.83366e-10
4.36883e-08
3.07926e-10
4.36358e-08
2.46493e-10
4.35839e-08
1.99532e-10
4.35324e-08
1.66552e-10
4.34808e-08
1.46285e-10
4.34283e-08
1.37003e-10
4.33739e-08
1.36779e-10
4.3317e-08
1.4361e-10
4.3257e-08
1.55452e-10
4.31935e-08
1.70219e-10
4.31267e-08
1.85796e-10
4.30568e-08
2.00157e-10
4.29843e-08
2.11562e-10
4.291e-08
2.1875e-10
4.28349e-08
2.21036e-10
4.27601e-08
2.18291e-10
4.26869e-08
2.10852e-10
4.26165e-08
1.99396e-10
4.25499e-08
1.84805e-10
4.24881e-08
1.68053e-10
4.24317e-08
1.50105e-10
4.2381e-08
1.31838e-10
4.23363e-08
1.13994e-10
4.22974e-08
9.71476e-11
4.2264e-08
8.17027e-11
4.22357e-08
6.79003e-11
4.22119e-08
5.58406e-11
4.21923e-08
4.55118e-11
4.21761e-08
3.68201e-11
4.21629e-08
2.96172e-11
4.21521e-08
2.3724e-11
4.21434e-08
1.89513e-11
4.21364e-08
1.51167e-11
4.21308e-08
1.20537e-11
4.21262e-08
9.61686e-12
4.21225e-08
7.68223e-12
4.21196e-08
6.14732e-12
4.21172e-08
4.92862e-12
4.21153e-08
3.95937e-12
4.21137e-08
3.18662e-12
4.21124e-08
2.5689e-12
4.21114e-08
2.07373e-12
4.21105e-08
1.67583e-12
4.21099e-08
1.35539e-12
4.21093e-08
1.09687e-12
4.21089e-08
8.88063e-13
4.21085e-08
7.19258e-13
4.21082e-08
5.82767e-13
4.21079e-08
4.72394e-13
4.21077e-08
3.83161e-13
4.21076e-08
3.111e-13
4.21075e-08
2.52941e-13
4.21074e-08
2.06077e-13
4.21073e-08
1.684e-13
4.21072e-08
1.38126e-13
4.21072e-08
1.1387e-13
4.21071e-08
9.44677e-14
4.21071e-08
7.8951e-14
4.2107e-08
6.65981e-14
4.2107e-08
5.67255e-14
4.2107e-08
4.88538e-14
4.2107e-08
4.25783e-14
4.2107e-08
3.75603e-14
4.2107e-08
3.36031e-14
4.2107e-08
3.05097e-14
4.2107e-08
2.81567e-14
2.5951e-14
4.31957e-08
6.57693e-10
4.3447e-08
1.26794e-09
4.3725e-08
1.73042e-09
4.39987e-08
2.05407e-09
4.42662e-08
2.28638e-09
4.45243e-08
2.45119e-09
4.47667e-08
2.55471e-09
4.49894e-08
2.60416e-09
4.51904e-08
2.60969e-09
4.5369e-08
2.58081e-09
4.55251e-08
2.52549e-09
4.56592e-08
2.45078e-09
4.57727e-08
2.36292e-09
4.58675e-08
2.26719e-09
4.59457e-08
2.1677e-09
4.60095e-08
2.06743e-09
4.60609e-08
1.9683e-09
4.61019e-08
1.8713e-09
4.61341e-08
1.7767e-09
4.61589e-08
1.68416e-09
4.61774e-08
1.59295e-09
4.61904e-08
1.50209e-09
4.61985e-08
1.41047e-09
4.6202e-08
1.31701e-09
4.6201e-08
1.22081e-09
4.61954e-08
1.12133e-09
4.61849e-08
1.01861e-09
4.61692e-08
9.13372e-10
4.61482e-08
8.07178e-10
4.61217e-08
7.02306e-10
4.609e-08
6.01535e-10
4.60536e-08
5.07787e-10
4.60132e-08
4.23748e-10
4.59696e-08
3.51564e-10
4.59234e-08
2.92663e-10
4.58753e-08
2.47651e-10
4.58256e-08
2.16285e-10
4.57743e-08
1.97597e-10
4.57211e-08
1.9012e-10
4.56658e-08
1.92083e-10
4.56079e-08
2.01522e-10
4.5547e-08
2.16328e-10
4.5483e-08
2.34274e-10
4.54157e-08
2.53069e-10
4.53454e-08
2.70494e-10
4.52723e-08
2.84593e-10
4.51972e-08
2.93868e-10
4.51209e-08
2.97397e-10
4.50443e-08
2.94854e-10
4.49687e-08
2.86447e-10
4.48953e-08
2.72819e-10
4.48252e-08
2.54918e-10
4.47594e-08
2.33866e-10
4.46986e-08
2.10843e-10
4.46435e-08
1.86975e-10
4.45942e-08
1.63259e-10
4.45509e-08
1.40513e-10
4.45132e-08
1.19345e-10
4.4481e-08
1.00158e-10
4.44536e-08
8.31658e-11
4.44307e-08
6.8422e-11
4.44117e-08
5.5858e-11
4.4396e-08
4.53184e-11
4.43831e-08
3.65939e-11
4.43726e-08
2.94506e-11
4.43641e-08
2.36526e-11
4.43572e-08
1.89778e-11
4.43515e-08
1.52266e-11
4.4347e-08
1.22252e-11
4.43433e-08
9.82711e-12
4.43403e-08
7.91114e-12
4.43379e-08
6.37883e-12
4.4336e-08
5.1512e-12
4.43344e-08
4.16555e-12
4.43331e-08
3.37234e-12
4.4332e-08
2.7326e-12
4.43311e-08
2.2156e-12
4.43304e-08
1.7971e-12
4.43299e-08
1.45792e-12
4.43294e-08
1.18279e-12
4.4329e-08
9.59521e-13
4.43287e-08
7.78323e-13
4.43285e-08
6.31287e-13
4.43283e-08
5.12068e-13
4.43281e-08
4.15469e-13
4.4328e-08
3.37286e-13
4.43279e-08
2.74121e-13
4.43278e-08
2.23129e-13
4.43277e-08
1.82046e-13
4.43277e-08
1.49e-13
4.43276e-08
1.22432e-13
4.43276e-08
1.01141e-13
4.43276e-08
8.40565e-14
4.43275e-08
7.03733e-14
4.43275e-08
5.94339e-14
4.43275e-08
5.06805e-14
4.43275e-08
4.37387e-14
4.43275e-08
3.8258e-14
4.43275e-08
3.39738e-14
3.04325e-14
4.47579e-08
5.47e-10
4.49564e-08
1.06944e-09
4.51931e-08
1.49368e-09
4.54372e-08
1.80996e-09
4.56804e-08
2.04323e-09
4.59185e-08
2.21308e-09
4.61461e-08
2.32713e-09
4.63588e-08
2.39144e-09
4.65543e-08
2.41411e-09
4.67317e-08
2.4034e-09
4.68907e-08
2.36656e-09
4.70315e-08
2.30995e-09
4.71552e-08
2.23922e-09
4.72632e-08
2.15917e-09
4.73572e-08
2.07369e-09
4.7439e-08
1.98567e-09
4.75102e-08
1.89707e-09
4.75725e-08
1.80904e-09
4.76271e-08
1.72207e-09
4.76752e-08
1.63609e-09
4.77175e-08
1.55065e-09
4.77545e-08
1.46503e-09
4.77866e-08
1.37841e-09
4.78136e-08
1.28995e-09
4.78354e-08
1.19901e-09
4.78516e-08
1.10522e-09
4.78614e-08
1.00871e-09
4.78646e-08
9.10239e-10
4.78606e-08
8.11207e-10
4.78492e-08
7.13645e-10
4.78307e-08
6.20005e-10
4.78056e-08
5.3288e-10
4.77747e-08
4.54698e-10
4.77388e-08
3.87455e-10
4.76989e-08
3.32549e-10
4.76559e-08
2.90676e-10
4.76104e-08
2.61799e-10
4.75628e-08
2.45222e-10
4.75131e-08
2.39737e-10
4.74615e-08
2.43768e-10
4.74075e-08
2.55457e-10
4.73511e-08
2.72717e-10
4.72921e-08
2.93276e-10
4.72304e-08
3.14753e-10
4.71661e-08
3.34802e-10
4.70994e-08
3.51303e-10
4.70307e-08
3.62558e-10
4.69607e-08
3.67428e-10
4.68902e-08
3.65387e-10
4.68201e-08
3.565e-10
4.67516e-08
3.4134e-10
4.66856e-08
3.20872e-10
4.66232e-08
2.96319e-10
4.6565e-08
2.6902e-10
4.65117e-08
2.40307e-10
4.64635e-08
2.11401e-10
4.64207e-08
1.83335e-10
4.63832e-08
1.56915e-10
4.63506e-08
1.32702e-10
4.63227e-08
1.1103e-10
4.62991e-08
9.20319e-11
4.62793e-08
7.56807e-11
4.62628e-08
6.18302e-11
4.62491e-08
5.02569e-11
4.62379e-08
4.06959e-11
4.62287e-08
3.28698e-11
4.62211e-08
2.65098e-11
4.6215e-08
2.13687e-11
4.621e-08
1.72276e-11
4.62059e-08
1.38988e-11
4.62026e-08
1.12248e-11
4.61999e-08
9.07598e-12
4.61977e-08
7.34727e-12
4.61959e-08
5.9543e-12
4.61945e-08
4.82978e-12
4.61933e-08
3.92032e-12
4.61923e-08
3.18352e-12
4.61915e-08
2.58575e-12
4.61909e-08
2.10025e-12
4.61904e-08
1.70561e-12
4.61899e-08
1.38471e-12
4.61896e-08
1.12376e-12
4.61893e-08
9.11581e-13
4.61891e-08
7.39181e-13
4.61889e-08
5.99199e-13
4.61888e-08
4.85649e-13
4.61886e-08
3.9368e-13
4.61885e-08
3.19259e-13
4.61885e-08
2.59135e-13
4.61884e-08
2.1064e-13
4.61883e-08
1.71552e-13
4.61883e-08
1.40127e-13
4.61883e-08
1.14865e-13
4.61883e-08
9.45889e-14
4.61882e-08
7.83536e-14
4.61882e-08
6.53558e-14
4.61882e-08
5.50185e-14
4.61882e-08
4.68256e-14
4.61882e-08
4.03709e-14
3.52331e-14
4.63917e-08
4.61301e-10
4.65509e-08
9.10288e-10
4.67516e-08
1.29301e-09
4.69677e-08
1.59382e-09
4.71878e-08
1.82314e-09
4.74063e-08
1.99454e-09
4.76181e-08
2.11535e-09
4.78187e-08
2.19083e-09
4.80054e-08
2.22739e-09
4.81769e-08
2.23196e-09
4.83325e-08
2.21096e-09
4.84724e-08
2.17006e-09
4.85972e-08
2.11436e-09
4.87082e-08
2.04823e-09
4.88066e-08
1.97528e-09
4.8894e-08
1.8983e-09
4.89718e-08
1.81927e-09
4.90414e-08
1.73946e-09
4.91039e-08
1.65954e-09
4.91603e-08
1.57968e-09
4.92113e-08
1.49968e-09
4.92572e-08
1.4191e-09
4.92982e-08
1.33738e-09
4.93342e-08
1.25393e-09
4.93649e-08
1.16831e-09
4.93898e-08
1.08035e-09
4.94083e-08
9.9026e-10
4.94197e-08
8.98773e-10
4.94238e-08
8.07161e-10
4.94202e-08
7.17201e-10
4.94092e-08
6.31028e-10
4.93912e-08
5.50909e-10
4.93669e-08
4.78997e-10
4.93372e-08
4.17113e-10
4.93032e-08
3.6659e-10
4.92657e-08
3.28172e-10
4.92255e-08
3.01981e-10
4.91832e-08
2.87541e-10
4.9139e-08
2.83879e-10
4.90932e-08
2.8961e-10
4.90456e-08
3.03011e-10
4.89963e-08
3.22065e-10
4.89451e-08
3.44513e-10
4.88919e-08
3.67949e-10
4.88367e-08
3.89958e-10
4.87797e-08
4.08314e-10
4.87211e-08
4.21169e-10
4.86613e-08
4.27213e-10
4.86009e-08
4.25749e-10
4.85407e-08
4.16701e-10
4.84815e-08
4.0056e-10
4.84241e-08
3.78273e-10
4.83693e-08
3.5111e-10
4.83178e-08
3.20519e-10
4.82702e-08
2.87977e-10
4.82267e-08
2.54875e-10
4.81876e-08
2.22423e-10
4.81529e-08
1.91588e-10
4.81225e-08
1.63076e-10
4.80962e-08
1.37333e-10
4.80737e-08
1.14571e-10
4.80546e-08
9.48147e-11
4.80385e-08
7.794e-11
4.8025e-08
6.37247e-11
4.80138e-08
5.18883e-11
4.80045e-08
4.21263e-11
4.79969e-08
3.4136e-11
4.79907e-08
2.76335e-11
4.79855e-08
2.23631e-11
4.79813e-08
1.81023e-11
4.79779e-08
1.46621e-11
4.79751e-08
1.18851e-11
4.79728e-08
9.64208e-12
4.79709e-08
7.82854e-12
4.79694e-08
6.36022e-12
4.79681e-08
5.16972e-12
4.79671e-08
4.20315e-12
4.79663e-08
3.41748e-12
4.79656e-08
2.77829e-12
4.7965e-08
2.25792e-12
4.79646e-08
1.83418e-12
4.79642e-08
1.48913e-12
4.79639e-08
1.20821e-12
4.79637e-08
9.79644e-13
4.79635e-08
7.93818e-13
4.79633e-08
6.42878e-13
4.79632e-08
5.20441e-13
4.79631e-08
4.21225e-13
4.7963e-08
3.40941e-13
4.7963e-08
2.76082e-13
4.79629e-08
2.23729e-13
4.79629e-08
1.81566e-13
4.79628e-08
1.47634e-13
4.79628e-08
1.20366e-13
4.79628e-08
9.85113e-14
4.79628e-08
8.10077e-14
4.79628e-08
6.70633e-14
4.79627e-08
5.59913e-14
4.79627e-08
4.72401e-14
4.03422e-14
4.80947e-08
3.93126e-10
4.82243e-08
7.80737e-10
4.83944e-08
1.12283e-09
4.85848e-08
1.40343e-09
4.87833e-08
1.62463e-09
4.89834e-08
1.79447e-09
4.91798e-08
1.91891e-09
4.93683e-08
2.0024e-09
4.95457e-08
2.05e-09
4.97103e-08
2.06736e-09
4.98612e-08
2.06e-09
4.99984e-08
2.03293e-09
5.0122e-08
1.99067e-09
5.02331e-08
1.93718e-09
5.03326e-08
1.87578e-09
5.04218e-08
1.8091e-09
5.05019e-08
1.73913e-09
5.05742e-08
1.6672e-09
5.06396e-08
1.59413e-09
5.0699e-08
1.52028e-09
5.0753e-08
1.44569e-09
5.0802e-08
1.37014e-09
5.0846e-08
1.29331e-09
5.08851e-08
1.21485e-09
5.09189e-08
1.13451e-09
5.0947e-08
1.05228e-09
5.09688e-08
9.6843e-10
5.09839e-08
8.83685e-10
5.09919e-08
7.99191e-10
5.09926e-08
7.16507e-10
5.09861e-08
6.37485e-10
5.09729e-08
5.64099e-10
5.09537e-08
4.98248e-10
5.09292e-08
4.41577e-10
5.09004e-08
3.95338e-10
5.08683e-08
3.60294e-10
5.08336e-08
3.36676e-10
5.0797e-08
3.24187e-10
5.07588e-08
3.22045e-10
5.07194e-08
3.29043e-10
5.06788e-08
3.43595e-10
5.06371e-08
3.63778e-10
5.05942e-08
3.87388e-10
5.05501e-08
4.12035e-10
5.05048e-08
4.35292e-10
5.04582e-08
4.54876e-10
5.04105e-08
4.6885e-10
5.0362e-08
4.75779e-10
5.03129e-08
4.74833e-10
5.02638e-08
4.65817e-10
5.02152e-08
4.49134e-10
5.01678e-08
4.25686e-10
5.01222e-08
3.96754e-10
5.00788e-08
3.63834e-10
5.00383e-08
3.28498e-10
5.00009e-08
2.9225e-10
4.99669e-08
2.56426e-10
4.99364e-08
2.22121e-10
4.99093e-08
1.90155e-10
4.98856e-08
1.61073e-10
4.9865e-08
1.35165e-10
4.98473e-08
1.12507e-10
4.98322e-08
9.30087e-11
4.98195e-08
7.64614e-11
4.98088e-08
6.2583e-11
4.97999e-08
5.10564e-11
4.97924e-08
4.1558e-11
4.97863e-08
3.37788e-11
4.97812e-08
2.74359e-11
4.97771e-08
2.22799e-11
4.97736e-08
1.80961e-11
4.97708e-08
1.47039e-11
4.97685e-08
1.19534e-11
4.97666e-08
9.72203e-12
4.9765e-08
7.91024e-12
4.97638e-08
6.43766e-12
4.97627e-08
5.23961e-12
4.97619e-08
4.26405e-12
4.97612e-08
3.46915e-12
4.97606e-08
2.82117e-12
4.97602e-08
2.29289e-12
4.97598e-08
1.86223e-12
4.97595e-08
1.51127e-12
4.97593e-08
1.22545e-12
4.97591e-08
9.92854e-13
4.97589e-08
8.03749e-13
4.97588e-08
6.50197e-13
4.97587e-08
5.2565e-13
4.97586e-08
4.24764e-13
4.97585e-08
3.43175e-13
4.97585e-08
2.7726e-13
4.97584e-08
2.24112e-13
4.97584e-08
1.81312e-13
4.97584e-08
1.46891e-13
4.97583e-08
1.19284e-13
4.97583e-08
9.71672e-14
4.97583e-08
7.9528e-14
4.97583e-08
6.55082e-14
4.97583e-08
5.44089e-14
4.56799e-14
4.98664e-08
3.37717e-10
4.99733e-08
6.73779e-10
5.01181e-08
9.78041e-10
5.02853e-08
1.23624e-09
5.04637e-08
1.44622e-09
5.06464e-08
1.61181e-09
5.08281e-08
1.73718e-09
5.10046e-08
1.82591e-09
5.11727e-08
1.88192e-09
5.13303e-08
1.90975e-09
5.14763e-08
1.91399e-09
5.16103e-08
1.89899e-09
5.17322e-08
1.86873e-09
5.18427e-08
1.82671e-09
5.19425e-08
1.77598e-09
5.20325e-08
1.71901e-09
5.2114e-08
1.6577e-09
5.21877e-08
1.59344e-09
5.22547e-08
1.52714e-09
5.23157e-08
1.45932e-09
5.23712e-08
1.3902e-09
5.24215e-08
1.31977e-09
5.24669e-08
1.24791e-09
5.25073e-08
1.17448e-09
5.25424e-08
1.09939e-09
5.2572e-08
1.02274e-09
5.25955e-08
9.44901e-10
5.26126e-08
8.66559e-10
5.26231e-08
7.88758e-10
5.26267e-08
7.12871e-10
5.26237e-08
6.40512e-10
5.26144e-08
5.734e-10
5.25994e-08
5.13212e-10
5.25796e-08
4.61426e-10
5.25557e-08
4.19209e-10
5.25287e-08
3.87321e-10
5.24993e-08
3.6607e-10
5.24682e-08
3.55289e-10
5.24359e-08
3.54354e-10
5.24027e-08
3.62215e-10
5.23689e-08
3.77417e-10
5.23345e-08
3.98144e-10
5.22996e-08
4.22272e-10
5.22642e-08
4.47464e-10
5.22281e-08
4.71319e-10
5.21915e-08
4.9155e-10
5.21542e-08
5.06173e-10
5.21163e-08
5.13681e-10
5.20779e-08
5.13148e-10
5.20395e-08
5.0428e-10
5.20012e-08
4.87393e-10
5.19636e-08
4.63335e-10
5.1927e-08
4.33356e-10
5.18918e-08
3.98963e-10
5.18586e-08
3.61766e-10
5.18275e-08
3.23337e-10
5.17988e-08
2.85092e-10
5.17727e-08
2.48216e-10
5.17493e-08
2.13619e-10
5.17284e-08
1.81925e-10
5.17101e-08
1.53495e-10
5.16941e-08
1.28458e-10
5.16804e-08
1.06762e-10
5.16686e-08
8.82211e-11
5.16586e-08
7.25647e-11
5.16502e-08
5.94746e-11
5.16431e-08
4.86184e-11
5.16373e-08
3.96726e-11
5.16324e-08
3.23365e-11
5.16283e-08
2.63413e-11
5.16249e-08
2.1453e-11
5.16222e-08
1.74724e-11
5.16199e-08
1.42324e-11
5.1618e-08
1.15952e-11
5.16165e-08
9.4478e-12
5.16152e-08
7.69821e-12
5.16142e-08
6.27188e-12
5.16133e-08
5.10843e-12
5.16127e-08
4.15906e-12
5.16121e-08
3.38419e-12
5.16116e-08
2.75177e-12
5.16113e-08
2.23574e-12
5.1611e-08
1.81484e-12
5.16107e-08
1.47179e-12
5.16105e-08
1.19241e-12
5.16103e-08
9.65112e-13
5.16102e-08
7.80406e-13
5.16101e-08
6.30484e-13
5.161e-08
5.08955e-13
5.161e-08
4.10597e-13
5.16099e-08
3.31085e-13
5.16099e-08
2.66924e-13
5.16098e-08
2.15229e-13
5.16098e-08
1.73635e-13
5.16098e-08
1.40255e-13
5.16098e-08
1.1351e-13
5.16098e-08
9.21625e-14
5.16097e-08
7.51847e-14
5.16097e-08
6.17307e-14
5.11562e-14
5.17075e-08
2.91902e-10
5.17969e-08
5.84358e-10
5.19207e-08
8.54266e-10
5.20674e-08
1.08959e-09
5.22272e-08
1.28632e-09
5.23936e-08
1.44547e-09
5.25612e-08
1.56952e-09
5.27261e-08
1.66107e-09
5.28849e-08
1.72312e-09
5.30354e-08
1.75921e-09
5.31763e-08
1.77311e-09
5.33068e-08
1.7685e-09
5.34267e-08
1.7488e-09
5.35363e-08
1.71712e-09
5.36361e-08
1.6762e-09
5.37268e-08
1.6283e-09
5.38093e-08
1.57524e-09
5.38843e-08
1.51842e-09
5.39526e-08
1.4588e-09
5.4015e-08
1.39701e-09
5.40717e-08
1.33343e-09
5.41233e-08
1.26821e-09
5.41698e-08
1.20141e-09
5.42112e-08
1.13304e-09
5.42474e-08
1.06317e-09
5.42782e-08
9.91998e-10
5.43031e-08
9.19946e-10
5.4322e-08
8.47682e-10
5.43346e-08
7.76163e-10
5.43409e-08
7.06604e-10
5.4341e-08
6.4042e-10
5.43352e-08
5.79117e-10
5.43243e-08
5.24172e-10
5.43088e-08
4.76919e-10
5.42896e-08
4.38434e-10
5.42674e-08
4.09462e-10
5.42431e-08
3.90358e-10
5.42174e-08
3.81053e-10
5.41907e-08
3.81052e-10
5.41635e-08
3.89435e-10
5.4136e-08
4.04877e-10
5.41085e-08
4.25672e-10
5.4081e-08
4.49791e-10
5.40534e-08
4.74979e-10
5.40259e-08
4.98895e-10
5.39981e-08
5.1928e-10
5.39702e-08
5.34153e-10
5.39419e-08
5.41968e-10
5.39133e-08
5.41739e-10
5.38845e-08
5.33093e-10
5.38556e-08
5.16269e-10
5.38269e-08
4.92042e-10
5.37986e-08
4.61614e-10
5.37711e-08
4.26466e-10
5.37447e-08
3.88208e-10
5.37196e-08
3.48435e-10
5.36961e-08
3.08605e-10
5.36743e-08
2.69962e-10
5.36545e-08
2.33478e-10
5.36365e-08
1.99843e-10
5.36206e-08
1.69475e-10
5.36065e-08
1.42557e-10
5.35941e-08
1.19077e-10
5.35835e-08
9.88808e-11
5.35743e-08
8.17152e-11
5.35665e-08
6.72718e-11
5.35599e-08
5.52194e-11
5.35544e-08
4.52294e-11
5.35497e-08
3.69915e-11
5.35458e-08
3.02245e-11
5.35426e-08
2.4681e-11
5.35399e-08
2.01475e-11
5.35377e-08
1.64437e-11
5.35359e-08
1.34191e-11
5.35344e-08
1.09493e-11
5.35332e-08
8.93215e-12
5.35322e-08
7.28436e-12
5.35313e-08
5.93798e-12
5.35307e-08
4.83774e-12
5.35301e-08
3.93866e-12
5.35296e-08
3.20409e-12
5.35293e-08
2.60418e-12
5.3529e-08
2.11449e-12
5.35287e-08
1.71507e-12
5.35285e-08
1.38959e-12
5.35284e-08
1.12462e-12
5.35282e-08
9.0917e-13
5.35281e-08
7.34197e-13
5.35281e-08
5.92279e-13
5.3528e-08
4.77354e-13
5.35279e-08
3.84406e-13
5.35279e-08
3.09361e-13
5.35279e-08
2.48874e-13
5.35278e-08
2.00189e-13
5.35278e-08
1.61102e-13
5.35278e-08
1.29778e-13
5.35278e-08
1.04763e-13
5.35278e-08
8.48591e-14
5.35278e-08
6.90781e-14
5.66776e-14
5.36196e-08
2.53488e-10
5.36952e-08
5.08777e-10
5.38016e-08
7.47881e-10
5.39302e-08
9.60918e-10
5.40733e-08
1.14331e-09
5.42243e-08
1.29438e-09
5.43786e-08
1.41522e-09
5.45322e-08
1.50753e-09
5.46818e-08
1.57351e-09
5.48251e-08
1.61586e-09
5.49607e-08
1.63757e-09
5.50875e-08
1.64171e-09
5.52051e-08
1.63118e-09
5.53135e-08
1.60869e-09
5.5413e-08
1.57667e-09
5.55042e-08
1.53717e-09
5.55875e-08
1.49191e-09
5.56637e-08
1.44223e-09
5.57334e-08
1.38913e-09
5.5797e-08
1.33334e-09
5.58552e-08
1.27531e-09
5.5908e-08
1.21536e-09
5.59558e-08
1.15366e-09
5.59984e-08
1.09038e-09
5.60359e-08
1.02569e-09
5.6068e-08
9.59881e-10
5.60945e-08