/*--------------------------------*- C++ -*----------------------------------*\
| =========                 |                                                 |
| \\      /  F ield         | OpenFOAM: The Open Source CFD Toolbox           |
|  \\    /   O peration     | Version:  2.3.0                                 |
|   \\  /    A nd           | Web:      www.OpenFOAM.org                      |
|    \\/     M anipulation  |                                                 |
\*---------------------------------------------------------------------------*/
FoamFile
{
    version     2.0;
    format      ascii;
    class       volVectorField;
    location    "0.1";
    object      U;
}
// * * * * * * * * * * * * * * * * * * * * * * * * * * * * * * * * * * * * * //

dimensions      [0 1 -1 0 0 0 0];

internalField   nonuniform List<vector> 
868
(
(0.189037 0.00251857 0)
(0.177275 0.00353893 0)
(0.166535 0.00360967 0)
(0.156318 0.00348975 0)
(0.146004 0.00344112 0)
(0.135062 0.00331412 0)
(0.123779 0.00311699 0)
(0.113046 0.00289881 0)
(0.102826 0.00266684 0)
(0.0931553 0.00229017 0)
(0.0847016 0.00175983 0)
(0.077687 0.00120344 0)
(0.0720028 0.000596169 0)
(0.0678111 -2.02784e-05 0)
(0.065374 -0.000440648 0)
(0.0645823 -0.000558949 0)
(0.0649006 -0.000465335 0)
(0.0656596 -0.000292437 0)
(0.0664159 -0.000147638 0)
(0.0669922 -6.13882e-05 0)
(0.0673833 -2.11325e-05 0)
(0.0676317 -6.74068e-06 0)
(0.067784 -3.60569e-06 0)
(0.0678778 -4.05843e-06 0)
(0.0679382 -4.84055e-06 0)
(0.0679802 -5.10562e-06 0)
(0.068012 -4.905e-06 0)
(0.0680376 -4.43823e-06 0)
(0.0680591 -3.89314e-06 0)
(0.0680775 -3.3585e-06 0)
(0.0680934 -2.87308e-06 0)
(0.068107 -2.44371e-06 0)
(0.0681188 -2.06826e-06 0)
(0.0681289 -1.74375e-06 0)
(0.0681375 -1.46562e-06 0)
(0.0681449 -1.228e-06 0)
(0.0681511 -1.02441e-06 0)
(0.0681564 -8.521e-07 0)
(0.0681609 -7.04966e-07 0)
(0.0681646 -5.82258e-07 0)
(0.0681678 -4.77365e-07 0)
(0.0681704 -3.88862e-07 0)
(0.0681726 -3.1466e-07 0)
(0.0681744 -2.50556e-07 0)
(0.0681758 -1.97699e-07 0)
(0.0681769 -1.51328e-07 0)
(0.0681779 -1.10899e-07 0)
(0.0681784 -7.78239e-08 0)
(0.068179 -4.87191e-08 0)
(0.068179 -1.23463e-08 0)
(0.196086 0.0040775 0)
(0.195662 0.00605524 0)
(0.194917 0.00664677 0)
(0.193691 0.00631392 0)
(0.192464 0.00638325 0)
(0.190866 0.00673487 0)
(0.188028 0.0066139 0)
(0.184514 0.00625299 0)
(0.181094 0.00613909 0)
(0.177445 0.00588842 0)
(0.173404 0.00514749 0)
(0.169553 0.0043151 0)
(0.166235 0.00362571 0)
(0.16326 0.00279144 0)
(0.160543 0.00170479 0)
(0.158315 0.000672708 0)
(0.156889 -1.54189e-05 0)
(0.156307 -0.000311682 0)
(0.156358 -0.000367589 0)
(0.156739 -0.000310635 0)
(0.157219 -0.000221364 0)
(0.157655 -0.000141861 0)
(0.157984 -8.50587e-05 0)
(0.158202 -5.01556e-05 0)
(0.158332 -3.07329e-05 0)
(0.158403 -2.0557e-05 0)
(0.158439 -1.52677e-05 0)
(0.158457 -1.21923e-05 0)
(0.158466 -1.01795e-05 0)
(0.15847 -8.64904e-06 0)
(0.158473 -7.36655e-06 0)
(0.158475 -6.26338e-06 0)
(0.158477 -5.31076e-06 0)
(0.158478 -4.49018e-06 0)
(0.158479 -3.78264e-06 0)
(0.15848 -3.1782e-06 0)
(0.158481 -2.66162e-06 0)
(0.158482 -2.22705e-06 0)
(0.158483 -1.84994e-06 0)
(0.158483 -1.53839e-06 0)
(0.158484 -1.26096e-06 0)
(0.158485 -1.04295e-06 0)
(0.158485 -8.36966e-07 0)
(0.158485 -6.8247e-07 0)
(0.158486 -5.29986e-07 0)
(0.158486 -4.12331e-07 0)
(0.158486 -3.04872e-07 0)
(0.158486 -1.98209e-07 0)
(0.158486 -1.38074e-07 0)
(0.158485 -1.98492e-08 0)
(0.196294 0.00379259 0)
(0.196703 0.0052536 0)
(0.197307 0.0058256 0)
(0.197368 0.00569159 0)
(0.197762 0.00589581 0)
(0.198701 0.0063913 0)
(0.199001 0.00658897 0)
(0.198691 0.00644312 0)
(0.19857 0.00629898 0)
(0.198413 0.00610464 0)
(0.19782 0.00563872 0)
(0.19709 0.00496495 0)
(0.196504 0.00417458 0)
(0.19587 0.00320115 0)
(0.194946 0.00208619 0)
(0.193814 0.00106651 0)
(0.19277 0.000332217 0)
(0.192019 -0.000112828 0)
(0.191596 -0.000351185 0)
(0.191433 -0.000434192 0)
(0.191434 -0.00040769 0)
(0.191507 -0.000324788 0)
(0.19159 -0.00022852 0)
(0.19165 -0.000145703 0)
(0.191681 -8.57722e-05 0)
(0.191688 -4.76189e-05 0)
(0.191679 -2.57774e-05 0)
(0.191662 -1.41218e-05 0)
(0.191642 -8.24377e-06 0)
(0.191622 -5.34594e-06 0)
(0.191604 -3.86689e-06 0)
(0.191588 -3.04075e-06 0)
(0.191574 -2.51352e-06 0)
(0.191563 -2.13315e-06 0)
(0.191553 -1.82613e-06 0)
(0.191544 -1.57264e-06 0)
(0.191537 -1.347e-06 0)
(0.191532 -1.16684e-06 0)
(0.191527 -9.8326e-07 0)
(0.191523 -8.5462e-07 0)
(0.19152 -6.91058e-07 0)
(0.191517 -6.05486e-07 0)
(0.191515 -4.57963e-07 0)
(0.191513 -3.93992e-07 0)
(0.191512 -2.71064e-07 0)
(0.19151 -2.01031e-07 0)
(0.19151 -1.13536e-07 0)
(0.191508 -1.75557e-08 0)
(0.191508 3.14235e-08 0)
(0.191506 1.60853e-07 0)
(0.196689 0.00353492 0)
(0.19698 0.00453609 0)
(0.19785 0.00520622 0)
(0.198066 0.00542753 0)
(0.198223 0.00560862 0)
(0.199217 0.00596007 0)
(0.20016 0.00628323 0)
(0.200574 0.0062161 0)
(0.201073 0.00590957 0)
(0.201693 0.00572222 0)
(0.202064 0.00547497 0)
(0.202322 0.00488371 0)
(0.202667 0.0040567 0)
(0.202868 0.00315857 0)
(0.20269 0.00223888 0)
(0.202198 0.0013822 0)
(0.201585 0.00069968 0)
(0.200987 0.000217482 0)
(0.200466 -7.17253e-05 0)
(0.200049 -0.000198431 0)
(0.199741 -0.000223433 0)
(0.199527 -0.000189697 0)
(0.199385 -0.000134345 0)
(0.199289 -8.17342e-05 0)
(0.199221 -4.20169e-05 0)
(0.199167 -1.69638e-05 0)
(0.199121 -2.83167e-06 0)
(0.19908 3.77299e-06 0)
(0.199043 6.25862e-06 0)
(0.199009 6.7063e-06 0)
(0.19898 6.24739e-06 0)
(0.198954 5.45757e-06 0)
(0.198932 4.60881e-06 0)
(0.198913 3.80999e-06 0)
(0.198898 3.11094e-06 0)
(0.198884 2.50102e-06 0)
(0.198873 2.01209e-06 0)
(0.198864 1.57919e-06 0)
(0.198856 1.27693e-06 0)
(0.198849 9.69315e-07 0)
(0.198844 8.13533e-07 0)
(0.19884 5.94116e-07 0)
(0.198837 5.39792e-07 0)
(0.198833 3.96999e-07 0)
(0.198831 3.94742e-07 0)
(0.198829 3.31466e-07 0)
(0.198828 3.45466e-07 0)
(0.198825 3.60506e-07 0)
(0.198825 3.74592e-07 0)
(0.198823 4.62748e-07 0)
(0.197191 0.00343518 0)
(0.197376 0.00425772 0)
(0.198156 0.00478588 0)
(0.198368 0.00508477 0)
(0.198435 0.00542464 0)
(0.199311 0.00573007 0)
(0.200222 0.00591178 0)
(0.200657 0.00586234 0)
(0.201238 0.00562671 0)
(0.201953 0.00541515 0)
(0.202366 0.0051513 0)
(0.202681 0.00462207 0)
(0.203164 0.00387966 0)
(0.203566 0.00311462 0)
(0.203602 0.0023686 0)
(0.203308 0.00162148 0)
(0.202859 0.000955046 0)
(0.202374 0.000453707 0)
(0.201906 0.000129306 0)
(0.20148 -4.73232e-05 0)
(0.20112 -0.000122915 0)
(0.200844 -0.000128985 0)
(0.200642 -9.87641e-05 0)
(0.200494 -5.90124e-05 0)
(0.200386 -2.488e-05 0)
(0.200302 -5.74773e-07 0)
(0.200236 1.39984e-05 0)
(0.200181 2.0632e-05 0)
(0.200135 2.22796e-05 0)
(0.200095 2.12542e-05 0)
(0.200061 1.90341e-05 0)
(0.200032 1.64498e-05 0)
(0.200008 1.39193e-05 0)
(0.199987 1.16114e-05 0)
(0.199969 9.605e-06 0)
(0.199954 7.87122e-06 0)
(0.199942 6.44738e-06 0)
(0.199931 5.2092e-06 0)
(0.199923 4.26427e-06 0)
(0.199916 3.38707e-06 0)
(0.19991 2.80644e-06 0)
(0.199905 2.19063e-06 0)
(0.199901 1.85975e-06 0)
(0.199897 1.44919e-06 0)
(0.199895 1.27177e-06 0)
(0.199892 1.03077e-06 0)
(0.199891 9.46338e-07 0)
(0.199889 8.44361e-07 0)
(0.199888 8.16797e-07 0)
(0.199886 8.34352e-07 0)
(0.197681 0.0033689 0)
(0.197721 0.00404778 0)
(0.198379 0.00441194 0)
(0.198681 0.00475108 0)
(0.198692 0.00523284 0)
(0.19935 0.00544304 0)
(0.200205 0.00546137 0)
(0.20066 0.00552237 0)
(0.201157 0.00538313 0)
(0.201773 0.00503042 0)
(0.202131 0.00471416 0)
(0.202413 0.00436496 0)
(0.202898 0.00381623 0)
(0.203309 0.0031249 0)
(0.20333 0.00239477 0)
(0.203059 0.0016871 0)
(0.202715 0.00108698 0)
(0.202362 0.000651937 0)
(0.20199 0.00036121 0)
(0.201617 0.000177058 0)
(0.201282 7.96177e-05 0)
(0.201009 4.11983e-05 0)
(0.200796 3.54913e-05 0)
(0.200635 4.18749e-05 0)
(0.200514 4.85648e-05 0)
(0.200423 5.2564e-05 0)
(0.200351 5.26773e-05 0)
(0.200293 4.98753e-05 0)
(0.200245 4.52412e-05 0)
(0.200204 3.9806e-05 0)
(0.20017 3.42888e-05 0)
(0.20014 2.90964e-05 0)
(0.200115 2.44295e-05 0)
(0.200094 2.03361e-05 0)
(0.200076 1.6836e-05 0)
(0.200061 1.38382e-05 0)
(0.200049 1.13681e-05 0)
(0.200038 9.23487e-06 0)
(0.20003 7.57549e-06 0)
(0.200023 6.06881e-06 0)
(0.200017 5.01454e-06 0)
(0.200012 3.96018e-06 0)
(0.200008 3.32224e-06 0)
(0.200004 2.61423e-06 0)
(0.200002 2.24385e-06 0)
(0.199999 1.80392e-06 0)
(0.199998 1.61128e-06 0)
(0.199996 1.37689e-06 0)
(0.199995 1.30368e-06 0)
(0.199993 1.24148e-06 0)
(0.198106 0.00324963 0)
(0.198063 0.00385708 0)
(0.19861 0.00420137 0)
(0.198955 0.00445116 0)
(0.198911 0.00489043 0)
(0.199409 0.00514175 0)
(0.20024 0.00513095 0)
(0.200635 0.00514314 0)
(0.200953 0.00502234 0)
(0.201535 0.004699 0)
(0.201975 0.00443411 0)
(0.202201 0.00418785 0)
(0.202516 0.00369623 0)
(0.202836 0.00299548 0)
(0.202896 0.00232161 0)
(0.202721 0.00176542 0)
(0.20247 0.00129523 0)
(0.202188 0.000899116 0)
(0.201868 0.000591232 0)
(0.20154 0.000372604 0)
(0.201243 0.000233856 0)
(0.200997 0.000155554 0)
(0.2008 0.00011753 0)
(0.200646 0.000101704 0)
(0.200526 9.50725e-05 0)
(0.200433 8.98971e-05 0)
(0.20036 8.36026e-05 0)
(0.2003 7.59279e-05 0)
(0.200251 6.7351e-05 0)
(0.200209 5.85706e-05 0)
(0.200175 5.01546e-05 0)
(0.200145 4.24412e-05 0)
(0.200121 3.55968e-05 0)
(0.2001 2.9634e-05 0)
(0.200082 2.45493e-05 0)
(0.200068 2.02041e-05 0)
(0.200055 1.66165e-05 0)
(0.200045 1.35292e-05 0)
(0.200037 1.11061e-05 0)
(0.20003 8.92891e-06 0)
(0.200024 7.36777e-06 0)
(0.200019 5.84691e-06 0)
(0.200015 4.88118e-06 0)
(0.200012 3.85523e-06 0)
(0.200009 3.28084e-06 0)
(0.200007 2.62617e-06 0)
(0.200005 2.32014e-06 0)
(0.200003 1.94352e-06 0)
(0.200003 1.82132e-06 0)
(0.2 1.67538e-06 0)
(0.198503 0.00314602 0)
(0.19841 0.00368375 0)
(0.198781 0.00401853 0)
(0.199162 0.00417308 0)
(0.199183 0.0045472 0)
(0.1995 0.00486019 0)
(0.20018 0.00481301 0)
(0.200574 0.00474269 0)
(0.200846 0.00472651 0)
(0.20136 0.0045156 0)
(0.201774 0.00419549 0)
(0.201914 0.00389343 0)
(0.202114 0.00348191 0)
(0.202423 0.00293334 0)
(0.202552 0.00239049 0)
(0.202422 0.00191207 0)
(0.202188 0.00146527 0)
(0.201946 0.00106414 0)
(0.201691 0.000750845 0)
(0.201425 0.000529845 0)
(0.201174 0.00038216 0)
(0.200959 0.000286756 0)
(0.200781 0.000226794 0)
(0.200635 0.000188744 0)
(0.200519 0.000162629 0)
(0.200427 0.000142135 0)
(0.200353 0.000124351 0)
(0.200294 0.000108174 0)
(0.200245 9.32883e-05 0)
(0.200204 7.97155e-05 0)
(0.20017 6.75486e-05 0)
(0.200141 5.68183e-05 0)
(0.200117 4.75019e-05 0)
(0.200097 3.94854e-05 0)
(0.20008 3.26925e-05 0)
(0.200066 2.69116e-05 0)
(0.200054 2.214e-05 0)
(0.200044 1.80462e-05 0)
(0.200036 1.48171e-05 0)
(0.200029 1.19352e-05 0)
(0.200024 9.84021e-06 0)
(0.200019 7.82931e-06 0)
(0.200015 6.51915e-06 0)
(0.200012 5.15826e-06 0)
(0.20001 4.37059e-06 0)
(0.200007 3.48889e-06 0)
(0.200006 3.06494e-06 0)
(0.200003 2.53806e-06 0)
(0.200003 2.36456e-06 0)
(0.200001 2.13149e-06 0)
(0.198829 0.00306226 0)
(0.198729 0.00349252 0)
(0.198954 0.00383796 0)
(0.199331 0.00398415 0)
(0.19942 0.00424099 0)
(0.199587 0.00453056 0)
(0.200124 0.0045387 0)
(0.200553 0.00446299 0)
(0.20077 0.00445291 0)
(0.201124 0.00427419 0)
(0.201505 0.00393873 0)
(0.201681 0.00365821 0)
(0.201832 0.00337197 0)
(0.202066 0.00293948 0)
(0.20218 0.00242569 0)
(0.20208 0.00195255 0)
(0.201893 0.00154622 0)
(0.201711 0.0011965 0)
(0.201519 0.000910701 0)
(0.201303 0.000692431 0)
(0.20109 0.000531494 0)
(0.200901 0.000414346 0)
(0.200741 0.00033043 0)
(0.200607 0.000270675 0)
(0.200499 0.000226837 0)
(0.200411 0.000192706 0)
(0.20034 0.000164627 0)
(0.200282 0.000140662 0)
(0.200235 0.000119799 0)
(0.200195 0.00010153 0)
(0.200162 8.5584e-05 0)
(0.200135 7.17577e-05 0)
(0.200112 5.9878e-05 0)
(0.200092 4.97227e-05 0)
(0.200076 4.11487e-05 0)
(0.200062 3.38724e-05 0)
(0.200051 2.78678e-05 0)
(0.200042 2.27284e-05 0)
(0.200034 1.86618e-05 0)
(0.200028 1.50494e-05 0)
(0.200022 1.24004e-05 0)
(0.200018 9.88174e-06 0)
(0.200014 8.21507e-06 0)
(0.200011 6.50642e-06 0)
(0.200009 5.49881e-06 0)
(0.200006 4.38128e-06 0)
(0.200005 3.83551e-06 0)
(0.200003 3.15307e-06 0)
(0.200003 2.92668e-06 0)
(0.200001 2.60348e-06 0)
(0.199086 0.0029982 0)
(0.199028 0.00333479 0)
(0.199146 0.00366699 0)
(0.199447 0.00382691 0)
(0.1996 0.00398543 0)
(0.199715 0.00422802 0)
(0.200092 0.00430095 0)
(0.200476 0.00421328 0)
(0.200673 0.00415659 0)
(0.200934 0.00404037 0)
(0.201276 0.00377963 0)
(0.201464 0.00350341 0)
(0.201553 0.00323142 0)
(0.201695 0.00285557 0)
(0.201805 0.00240469 0)
(0.201767 0.00199321 0)
(0.201635 0.0016476 0)
(0.201487 0.00133757 0)
(0.201332 0.00106138 0)
(0.201158 0.000835035 0)
(0.200982 0.000660205 0)
(0.200822 0.000527114 0)
(0.200684 0.000426217 0)
(0.200566 0.000349939 0)
(0.200467 0.000291371 0)
(0.200386 0.000244884 0)
(0.20032 0.00020677 0)
(0.200265 0.000174798 0)
(0.20022 0.000147594 0)
(0.200183 0.000124281 0)
(0.200152 0.000104285 0)
(0.200126 8.71687e-05 0)
(0.200104 7.25922e-05 0)
(0.200086 6.02076e-05 0)
(0.200071 4.97904e-05 0)
(0.200058 4.0975e-05 0)
(0.200048 3.37058e-05 0)
(0.200039 2.74974e-05 0)
(0.200032 2.2575e-05 0)
(0.200026 1.82183e-05 0)
(0.200021 1.50044e-05 0)
(0.200016 1.19689e-05 0)
(0.200013 9.93959e-06 0)
(0.20001 7.87656e-06 0)
(0.200008 6.64572e-06 0)
(0.200006 5.28792e-06 0)
(0.200005 4.61825e-06 0)
(0.200003 3.77788e-06 0)
(0.200003 3.49767e-06 0)
(0.200001 3.08255e-06 0)
(0.199311 0.0029542 0)
(0.199296 0.00321231 0)
(0.199351 0.00348993 0)
(0.199559 0.00366741 0)
(0.199735 0.00378635 0)
(0.199834 0.00395293 0)
(0.200068 0.00404268 0)
(0.200386 0.00398554 0)
(0.200589 0.00391237 0)
(0.200769 0.00381866 0)
(0.201012 0.00360517 0)
(0.201187 0.00333113 0)
(0.201265 0.00307057 0)
(0.201358 0.0027722 0)
(0.201452 0.00241272 0)
(0.201448 0.00205369 0)
(0.201353 0.00173393 0)
(0.201234 0.00144471 0)
(0.201115 0.00118328 0)
(0.200986 0.000961111 0)
(0.200849 0.000781847 0)
(0.20072 0.000638741 0)
(0.200606 0.000524245 0)
(0.200506 0.000432951 0)
(0.20042 0.000360018 0)
(0.200349 0.000300979 0)
(0.200289 0.000252402 0)
(0.20024 0.000211917 0)
(0.200199 0.000177868 0)
(0.200165 0.000149061 0)
(0.200137 0.000124631 0)
(0.200113 0.000103907 0)
(0.200094 8.63773e-05 0)
(0.200077 7.15566e-05 0)
(0.200064 5.91304e-05 0)
(0.200052 4.86425e-05 0)
(0.200043 4.00018e-05 0)
(0.200035 3.2637e-05 0)
(0.200028 2.67894e-05 0)
(0.200023 2.163e-05 0)
(0.200019 1.78066e-05 0)
(0.200015 1.42145e-05 0)
(0.200012 1.17944e-05 0)
(0.200009 9.3498e-06 0)
(0.200008 7.87838e-06 0)
(0.200005 6.26207e-06 0)
(0.200005 5.45838e-06 0)
(0.200003 4.44808e-06 0)
(0.200002 4.10952e-06 0)
(0.200001 3.59432e-06 0)
(0.199515 0.00290363 0)
(0.19953 0.003107 0)
(0.199563 0.00332534 0)
(0.199684 0.00349947 0)
(0.199832 0.00360703 0)
(0.199933 0.00371173 0)
(0.200075 0.00378866 0)
(0.200286 0.00376426 0)
(0.200451 0.00368101 0)
(0.200575 0.00357923 0)
(0.200738 0.00341359 0)
(0.200888 0.00318677 0)
(0.200964 0.00295081 0)
(0.201014 0.00269815 0)
(0.20107 0.00240136 0)
(0.201081 0.00208747 0)
(0.201028 0.00179627 0)
(0.200947 0.0015342 0)
(0.200864 0.00129521 0)
(0.200774 0.00108255 0)
(0.200676 0.000901011 0)
(0.20058 0.000749191 0)
(0.200493 0.000622821 0)
(0.200416 0.00051822 0)
(0.200348 0.000432057 0)
(0.20029 0.000360952 0)
(0.200241 0.000301917 0)
(0.200201 0.000252616 0)
(0.200166 0.000211264 0)
(0.200138 0.000176467 0)
(0.200114 0.00014714 0)
(0.200094 0.000122408 0)
(0.200078 0.00010159 0)
(0.200064 8.40615e-05 0)
(0.200053 6.94071e-05 0)
(0.200043 5.70696e-05 0)
(0.200035 4.69149e-05 0)
(0.200029 3.82772e-05 0)
(0.200024 3.14117e-05 0)
(0.200019 2.53713e-05 0)
(0.200015 2.08782e-05 0)
(0.200012 1.66759e-05 0)
(0.20001 1.38268e-05 0)
(0.200008 1.0964e-05 0)
(0.200006 9.22831e-06 0)
(0.200005 7.3287e-06 0)
(0.200004 6.37725e-06 0)
(0.200002 5.18039e-06 0)
(0.200002 4.7772e-06 0)
(0.200001 4.15141e-06 0)
(0.199708 0.0028496 0)
(0.199731 0.00302292 0)
(0.199756 0.00319554 0)
(0.199818 0.00334673 0)
(0.199909 0.00344944 0)
(0.199984 0.00352048 0)
(0.200059 0.0035667 0)
(0.200172 0.00355431 0)
(0.200286 0.00348472 0)
(0.200374 0.0033877 0)
(0.200465 0.00325245 0)
(0.200556 0.00306446 0)
(0.200611 0.00284797 0)
(0.20064 0.00261991 0)
(0.200669 0.00237122 0)
(0.200683 0.00210636 0)
(0.200662 0.00184766 0)
(0.200617 0.00160727 0)
(0.200566 0.00138488 0)
(0.200511 0.00118153 0)
(0.200453 0.00100113 0)
(0.200393 0.000844911 0)
(0.200337 0.000711024 0)
(0.200287 0.000596992 0)
(0.200242 0.000500524 0)
(0.200203 0.000419274 0)
(0.20017 0.00035092 0)
(0.200141 0.000293407 0)
(0.200117 0.000245007 0)
(0.200097 0.000204272 0)
(0.200081 0.000170001 0)
(0.200067 0.000141178 0)
(0.200055 0.000116987 0)
(0.200045 9.66779e-05 0)
(0.200037 7.97395e-05 0)
(0.20003 6.55138e-05 0)
(0.200025 5.38197e-05 0)
(0.20002 4.38948e-05 0)
(0.200016 3.60032e-05 0)
(0.200013 2.908e-05 0)
(0.200011 2.3917e-05 0)
(0.200009 1.91074e-05 0)
(0.200007 1.58315e-05 0)
(0.200005 1.25542e-05 0)
(0.200004 1.05568e-05 0)
(0.200003 8.37708e-06 0)
(0.200003 7.27974e-06 0)
(0.200002 5.89801e-06 0)
(0.200001 5.4313e-06 0)
(0.2 4.6946e-06 0)
(0.1999 0.0028129 0)
(0.19991 0.00297093 0)
(0.19992 0.00311838 0)
(0.199938 0.00324883 0)
(0.199966 0.00334442 0)
(0.199994 0.00340239 0)
(0.20002 0.00343231 0)
(0.200057 0.00342391 0)
(0.200098 0.00336551 0)
(0.200129 0.00326878 0)
(0.200158 0.00314069 0)
(0.200189 0.00297454 0)
(0.200212 0.00277776 0)
(0.200224 0.0025667 0)
(0.200234 0.00234375 0)
(0.20024 0.00210771 0)
(0.200236 0.00186952 0)
(0.200223 0.00164242 0)
(0.200207 0.00143105 0)
(0.200189 0.00123603 0)
(0.20017 0.00105943 0)
(0.20015 0.000903051 0)
(0.200131 0.000766557 0)
(0.200113 0.000648344 0)
(0.200096 0.000546688 0)
(0.200082 0.000459851 0)
(0.200069 0.000386006 0)
(0.200058 0.000323377 0)
(0.200049 0.000270369 0)
(0.200041 0.000225583 0)
(0.200034 0.000187814 0)
(0.200028 0.000156005 0)
(0.200023 0.000129288 0)
(0.200019 0.000106851 0)
(0.200016 8.81339e-05 0)
(0.200013 7.24176e-05 0)
(0.200011 5.94933e-05 0)
(0.200009 4.8532e-05 0)
(0.200007 3.98054e-05 0)
(0.200006 3.21631e-05 0)
(0.200005 2.64465e-05 0)
(0.200004 2.11389e-05 0)
(0.200003 1.75055e-05 0)
(0.200002 1.38863e-05 0)
(0.200002 1.16662e-05 0)
(0.200001 9.25332e-06 0)
(0.200001 8.0293e-06 0)
(0.200001 6.48964e-06 0)
(0.200001 5.96611e-06 0)
(0.2 5.12677e-06 0)
(0.192538 -8.58171e-05 0)
(0.209353 -0.00153076 0)
(0.191635 0.00107288 0)
(0.207334 0.000986082 0)
(0.192838 -0.000749276 0)
(0.206249 -0.00039616 0)
(0.191695 0.000992735 0)
(0.205989 0.000782907 0)
(0.190617 2.14981e-06 0)
(0.204408 -0.000302042 0)
(0.189624 0.000308155 0)
(0.203087 0.00108955 0)
(0.196998 -0.000192518 0)
(0.203479 -0.00166563 0)
(0.195719 0.0013343 0)
(0.20243 0.00100586 0)
(0.198054 -0.000686388 0)
(0.200299 -0.000246781 0)
(0.197173 0.00116085 0)
(0.20027 0.000888888 0)
(0.197058 0.000292638 0)
(0.198181 0.000109021 0)
(0.196346 0.00107686 0)
(0.196348 0.00201786 0)
(0.199667 -9.32787e-05 0)
(0.200323 -0.00153156 0)
(0.19749 0.00122727 0)
(0.200477 0.000902664 0)
(0.199856 -0.000507267 0)
(0.198393 -1.92515e-05 0)
(0.198403 0.0010103 0)
(0.199277 0.000969638 0)
(0.198231 0.000519408 0)
(0.197589 0.000585164 0)
(0.197152 0.00141344 0)
(0.196608 0.00244114 0)
(0.200307 1.84968e-05 0)
(0.199681 -0.00138734 0)
(0.198022 0.00104217 0)
(0.200011 0.000878025 0)
(0.200083 -0.000385105 0)
(0.198257 0.00022104 0)
(0.19858 0.000960768 0)
(0.199203 0.000974342 0)
(0.198377 0.000800906 0)
(0.197721 0.00097546 0)
(0.197528 0.00170865 0)
(0.197149 0.00261714 0)
(0.20031 7.48787e-05 0)
(0.19974 -0.00113348 0)
(0.198351 0.000820747 0)
(0.199806 0.000866955 0)
(0.200066 -0.00025397 0)
(0.198448 0.000425142 0)
(0.198664 0.000978645 0)
(0.199202 0.000947628 0)
(0.198457 0.00105713 0)
(0.197913 0.00133851 0)
(0.19785 0.00189721 0)
(0.1976 0.00263902 0)
(0.200221 0.000124307 0)
(0.199857 -0.000886085 0)
(0.198671 0.000590656 0)
(0.19967 0.000894992 0)
(0.200012 -0.000101303 0)
(0.198676 0.000520791 0)
(0.198752 0.00106235 0)
(0.199232 0.000979461 0)
(0.198573 0.00123236 0)
(0.19809 0.00161098 0)
(0.198134 0.00204411 0)
(0.198021 0.00265955 0)
(0.200142 0.000138976 0)
(0.199946 -0.000637612 0)
(0.198973 0.00042363 0)
(0.199573 0.000891667 0)
(0.199956 7.79807e-05 0)
(0.198914 0.000583464 0)
(0.198835 0.00115681 0)
(0.199256 0.00105651 0)
(0.198737 0.00133567 0)
(0.198295 0.00181493 0)
(0.198381 0.00219429 0)
(0.198371 0.00267725 0)
(0.200085 0.000137076 0)
(0.199996 -0.000399825 0)
(0.199237 0.000298938 0)
(0.199531 0.000861936 0)
(0.199895 0.000284983 0)
(0.199131 0.000623386 0)
(0.198936 0.00121737 0)
(0.199284 0.00118525 0)
(0.198925 0.00142325 0)
(0.198514 0.00193701 0)
(0.198588 0.00230382 0)
(0.198658 0.00269241 0)
(0.200047 0.000126106 0)
(0.200016 -0.000200337 0)
(0.199457 0.000241184 0)
(0.199539 0.000812092 0)
(0.199835 0.000477855 0)
(0.199322 0.000682133 0)
(0.199066 0.00125632 0)
(0.199312 0.0013247 0)
(0.1991 0.00150366 0)
(0.198752 0.00199943 0)
(0.198789 0.00238099 0)
(0.198894 0.00271379 0)
(0.200023 0.000110974 0)
(0.200018 -3.90614e-05 0)
(0.199628 0.000238865 0)
(0.199583 0.000753713 0)
(0.199791 0.000641003 0)
(0.199477 0.000769647 0)
(0.199214 0.00126766 0)
(0.199354 0.00143897 0)
(0.199257 0.00159975 0)
(0.198992 0.00203533 0)
(0.198985 0.00241541 0)
(0.199083 0.00271563 0)
(0.200009 9.72721e-05 0)
(0.200009 8.68891e-05 0)
(0.19976 0.000277453 0)
(0.199657 0.000704282 0)
(0.199771 0.00076738 0)
(0.199602 0.00087889 0)
(0.19938 0.00127672 0)
(0.19943 0.00152584 0)
(0.199402 0.00170223 0)
(0.199226 0.00205804 0)
(0.199192 0.00241739 0)
(0.199269 0.00270566 0)
(0.200002 8.88227e-05 0)
(0.199999 0.000179387 0)
(0.199857 0.000342928 0)
(0.199752 0.000680128 0)
(0.199788 0.000856034 0)
(0.19971 0.000996733 0)
(0.199559 0.00130546 0)
(0.19955 0.0015835 0)
(0.199549 0.00179022 0)
(0.199457 0.00208409 0)
(0.199421 0.002407 0)
(0.199468 0.00268117 0)
(0.2 8.66896e-05 0)
(0.199994 0.000238666 0)
(0.199925 0.000411408 0)
(0.199853 0.000685507 0)
(0.199848 0.000913152 0)
(0.199815 0.00109613 0)
(0.199735 0.00135025 0)
(0.19971 0.00162106 0)
(0.199712 0.00185337 0)
(0.199677 0.00211223 0)
(0.199654 0.00239257 0)
(0.199674 0.00264611 0)
(0.2 8.80337e-05 0)
(0.199997 0.000268729 0)
(0.199977 0.000456682 0)
(0.199951 0.000702379 0)
(0.199944 0.000944848 0)
(0.199934 0.00115432 0)
(0.19991 0.00138744 0)
(0.199898 0.00164439 0)
(0.199898 0.0018863 0)
(0.19989 0.00213012 0)
(0.199883 0.00238329 0)
(0.199888 0.00262118 0)
)
;

boundaryField
{
    top
    {
        type            zeroGradient;
    }
    inlet
    {
        type            fixedValue;
        value           uniform (0.2 0 0);
    }
    outlet
    {
        type            zeroGradient;
    }
    plate
    {
        type            fixedValue;
        value           uniform (0 0 0);
    }
    symmBound
    {
        type            zeroGradient;
    }
    frontAndBack
    {
        type            empty;
    }
}


// ************************************************************************* //
