/*--------------------------------*- C++ -*----------------------------------*\
| =========                 |                                                 |
| \\      /  F ield         | OpenFOAM: The Open Source CFD Toolbox           |
|  \\    /   O peration     | Version:  2.3.0                                 |
|   \\  /    A nd           | Web:      www.OpenFOAM.org                      |
|    \\/     M anipulation  |                                                 |
\*---------------------------------------------------------------------------*/
FoamFile
{
    version     2.0;
    format      ascii;
    class       volVectorField;
    location    "0.7";
    object      U;
}
// * * * * * * * * * * * * * * * * * * * * * * * * * * * * * * * * * * * * * //

dimensions      [0 1 -1 0 0 0 0];

internalField   nonuniform List<vector> 
2250
(
(0.184648 0.00407594 1.19022e-06)
(0.177451 0.00444636 3.07433e-06)
(0.170048 0.00453785 4.40504e-06)
(0.162474 0.00449584 5.46452e-06)
(0.154921 0.00438508 6.30593e-06)
(0.14749 0.00422992 6.87324e-06)
(0.14021 0.00404438 7.14345e-06)
(0.133096 0.00383927 7.12341e-06)
(0.126167 0.00362226 6.8172e-06)
(0.119443 0.00339837 6.22132e-06)
(0.112942 0.00317106 5.33347e-06)
(0.106682 0.00294286 4.15793e-06)
(0.100675 0.00271579 2.70632e-06)
(0.0949346 0.00249156 9.97297e-07)
(0.0894722 0.00227167 -9.43455e-07)
(0.0842969 0.00205755 -3.08322e-06)
(0.0794156 0.00185055 -5.38276e-06)
(0.0748332 0.00165197 -7.79744e-06)
(0.0705515 0.00146302 -1.02787e-05)
(0.0665701 0.00128484 -1.2776e-05)
(0.0628854 0.0011184 -1.52391e-05)
(0.0594914 0.000964475 -1.76196e-05)
(0.0563791 0.000823633 -1.9874e-05)
(0.0535374 0.000696184 -2.19644e-05)
(0.050953 0.000582173 -2.38609e-05)
(0.0486108 0.000481386 -2.55415e-05)
(0.0464943 0.000393369 -2.69932e-05)
(0.044586 0.000317461 -2.82112e-05)
(0.042868 0.000252838 -2.91985e-05)
(0.0413224 0.000198558 -2.99649e-05)
(0.0399314 0.000153612 -3.05253e-05)
(0.038678 0.000116961 -3.08988e-05)
(0.037546 8.75715e-05 -3.11069e-05)
(0.0365203 6.44465e-05 -3.11721e-05)
(0.0355872 4.66424e-05 -3.11172e-05)
(0.0347344 3.32845e-05 -3.0964e-05)
(0.0339506 2.35773e-05 -3.07328e-05)
(0.0332264 1.6809e-05 -3.04418e-05)
(0.0325532 1.23549e-05 -3.01068e-05)
(0.0319239 9.67591e-06 -2.97413e-05)
(0.0313324 8.31635e-06 -2.93564e-05)
(0.0307738 7.89865e-06 -2.89609e-05)
(0.0302437 8.11685e-06 -2.85617e-05)
(0.0297388 8.72953e-06 -2.81641e-05)
(0.0292562 9.55699e-06 -2.77716e-05)
(0.0287936 1.04672e-05 -2.73867e-05)
(0.0283493 1.1366e-05 -2.7011e-05)
(0.0279216 1.21892e-05 -2.66452e-05)
(0.0275095 1.28967e-05 -2.62897e-05)
(0.0271117 1.34667e-05 -2.59444e-05)
(0.0267277 1.38911e-05 -2.56091e-05)
(0.0263565 1.41713e-05 -2.52833e-05)
(0.0259977 1.43152e-05 -2.49667e-05)
(0.0256506 1.43349e-05 -2.4659e-05)
(0.0253148 1.42443e-05 -2.436e-05)
(0.0249898 1.40583e-05 -2.40693e-05)
(0.0246752 1.37915e-05 -2.37871e-05)
(0.0243706 1.34577e-05 -2.35132e-05)
(0.0240756 1.30694e-05 -2.32477e-05)
(0.0237899 1.26379e-05 -2.29908e-05)
(0.023513 1.21729e-05 -2.27427e-05)
(0.0232448 1.16826e-05 -2.25034e-05)
(0.0229848 1.11742e-05 -2.22733e-05)
(0.0227327 1.06533e-05 -2.20524e-05)
(0.0224883 1.01248e-05 -2.18408e-05)
(0.0222513 9.59252e-06 -2.16387e-05)
(0.0220214 9.05942e-06 -2.14459e-05)
(0.0217984 8.52795e-06 -2.12623e-05)
(0.0215821 7.99997e-06 -2.10876e-05)
(0.0213722 7.4769e-06 -2.09216e-05)
(0.0211686 6.95978e-06 -2.07635e-05)
(0.0209711 6.44941e-06 -2.06129e-05)
(0.0207794 5.94632e-06 -2.04687e-05)
(0.0205935 5.45088e-06 -2.033e-05)
(0.0204131 4.96333e-06 -2.01954e-05)
(0.0202383 4.48382e-06 -2.00635e-05)
(0.0200687 4.01244e-06 -1.99325e-05)
(0.0199044 3.5492e-06 -1.98004e-05)
(0.0197451 3.09414e-06 -1.96649e-05)
(0.0195909 2.64726e-06 -1.95232e-05)
(0.0194415 2.20859e-06 -1.93722e-05)
(0.019297 1.77819e-06 -1.92086e-05)
(0.0191571 1.35623e-06 -1.90281e-05)
(0.0190219 9.42901e-07 -1.88265e-05)
(0.0188913 5.38533e-07 -1.85984e-05)
(0.0187651 1.43671e-07 -1.83381e-05)
(0.0186433 -2.41045e-07 -1.8039e-05)
(0.0185257 -6.14583e-07 -1.76936e-05)
(0.0184124 -9.75497e-07 -1.72933e-05)
(0.0183031 -1.32184e-06 -1.68283e-05)
(0.0181978 -1.65063e-06 -1.62874e-05)
(0.0180962 -1.95737e-06 -1.56578e-05)
(0.0179983 -2.23503e-06 -1.49244e-05)
(0.0179036 -2.47178e-06 -1.40693e-05)
(0.0178119 -2.646e-06 -1.30707e-05)
(0.0177224 -2.71388e-06 -1.19013e-05)
(0.017634 -2.56963e-06 -1.05247e-05)
(0.0175444 -2.179e-06 -8.88158e-06)
(0.0174586 -1.24978e-06 -6.86555e-06)
(0.0171729 5.09675e-05 -5.16419e-06)
(0.193866 0.00625473 8.27885e-07)
(0.193709 0.00684806 2.42198e-06)
(0.193066 0.00706696 3.7798e-06)
(0.191938 0.00712841 4.85022e-06)
(0.190426 0.0071176 5.66136e-06)
(0.188604 0.0070571 6.21411e-06)
(0.186509 0.00695718 6.50073e-06)
(0.184167 0.00682631 6.52529e-06)
(0.18161 0.00667028 6.29584e-06)
(0.178866 0.00649246 5.81702e-06)
(0.175964 0.00629496 5.09211e-06)
(0.17293 0.00607956 4.12703e-06)
(0.169789 0.005848 2.93202e-06)
(0.166566 0.00560215 1.52199e-06)
(0.163283 0.00534402 -8.33463e-08)
(0.159962 0.00507584 -1.85925e-06)
(0.156621 0.0048 -3.77613e-06)
(0.153281 0.00451909 -5.80011e-06)
(0.149957 0.00423576 -7.89399e-06)
(0.146664 0.00395276 -1.00185e-05)
(0.143416 0.00367277 -1.21339e-05)
(0.140224 0.0033984 -1.42012e-05)
(0.137097 0.00313207 -1.61842e-05)
(0.134045 0.00287596 -1.80506e-05)
(0.131072 0.00263194 -1.97734e-05)
(0.128184 0.00240152 -2.13314e-05)
(0.125383 0.00218587 -2.27103e-05)
(0.122672 0.00198572 -2.39021e-05)
(0.120051 0.00180147 -2.49052e-05)
(0.117521 0.00163314 -2.57236e-05)
(0.11508 0.00148043 -2.63662e-05)
(0.112726 0.00134279 -2.68455e-05)
(0.110459 0.00121943 -2.71769e-05)
(0.108274 0.00110941 -2.73774e-05)
(0.106171 0.00101168 -2.74649e-05)
(0.104145 0.000925111 -2.74568e-05)
(0.102193 0.00084858 -2.737e-05)
(0.100313 0.000780973 -2.72202e-05)
(0.0985021 0.000721226 -2.70214e-05)
(0.0967565 0.000668344 -2.67858e-05)
(0.0950736 0.000621417 -2.65238e-05)
(0.0934505 0.000579628 -2.62441e-05)
(0.0918846 0.000542251 -2.59535e-05)
(0.0903732 0.000508653 -2.56574e-05)
(0.0889138 0.00047828 -2.53599e-05)
(0.087504 0.000450661 -2.50639e-05)
(0.0861415 0.000425403 -2.47716e-05)
(0.0848241 0.000402178 -2.44843e-05)
(0.0835499 0.000380718 -2.42029e-05)
(0.0823169 0.0003608 -2.39277e-05)
(0.0811231 0.000342243 -2.36589e-05)
(0.0799669 0.000324897 -2.33966e-05)
(0.0788465 0.00030864 -2.31406e-05)
(0.0777605 0.000293369 -2.2891e-05)
(0.0767073 0.000278998 -2.26477e-05)
(0.0756855 0.000265455 -2.24106e-05)
(0.0746937 0.000252677 -2.21798e-05)
(0.0737308 0.000240608 -2.19555e-05)
(0.0727953 0.000229198 -2.17378e-05)
(0.0718864 0.000218402 -2.15268e-05)
(0.0710027 0.000208179 -2.13229e-05)
(0.0701434 0.00019849 -2.11263e-05)
(0.0693074 0.0001893 -2.09372e-05)
(0.0684939 0.000180575 -2.07558e-05)
(0.0677019 0.000172283 -2.05823e-05)
(0.0669307 0.000164394 -2.04167e-05)
(0.0661795 0.000156882 -2.02591e-05)
(0.0654476 0.000149719 -2.01094e-05)
(0.0647344 0.00014288 -1.99674e-05)
(0.0640391 0.000136344 -1.98328e-05)
(0.0633611 0.000130089 -1.97052e-05)
(0.0627 0.000124094 -1.95838e-05)
(0.0620552 0.000118342 -1.94679e-05)
(0.0614262 0.000112816 -1.93566e-05)
(0.0608126 0.0001075 -1.92486e-05)
(0.0602139 0.000102379 -1.91426e-05)
(0.0596297 9.7441e-05 -1.90367e-05)
(0.0590596 9.26738e-05 -1.89292e-05)
(0.0585033 8.80665e-05 -1.88178e-05)
(0.0579605 8.36092e-05 -1.86997e-05)
(0.0574307 7.92931e-05 -1.85721e-05)
(0.0569138 7.51104e-05 -1.84316e-05)
(0.0564093 7.10539e-05 -1.82742e-05)
(0.055917 6.71178e-05 -1.80955e-05)
(0.0554367 6.32968e-05 -1.78905e-05)
(0.054968 5.95869e-05 -1.76535e-05)
(0.0545107 5.5985e-05 -1.7378e-05)
(0.0540645 5.24895e-05 -1.70565e-05)
(0.0536291 4.91005e-05 -1.66807e-05)
(0.0532042 4.58204e-05 -1.6241e-05)
(0.0527893 4.26553e-05 -1.57264e-05)
(0.0523843 3.96171e-05 -1.5124e-05)
(0.0519885 3.6728e-05 -1.44193e-05)
(0.0516013 3.40303e-05 -1.35945e-05)
(0.051222 3.16084e-05 -1.26287e-05)
(0.0508494 2.96483e-05 -1.14957e-05)
(0.050481 2.86021e-05 -1.0162e-05)
(0.0501125 2.97768e-05 -8.57498e-06)
(0.0497491 4.13911e-05 -6.69528e-06)
(0.0491156 0.000141058 -6.37191e-06)
(0.194971 0.00544203 6.5901e-07)
(0.195387 0.00604246 2.01118e-06)
(0.19577 0.0064534 3.22909e-06)
(0.196027 0.0067665 4.17679e-06)
(0.196148 0.00701848 4.87458e-06)
(0.196138 0.00721389 5.36055e-06)
(0.195994 0.00735393 5.63675e-06)
(0.19571 0.00744253 5.69872e-06)
(0.195282 0.00748388 5.54999e-06)
(0.194713 0.00748128 5.19658e-06)
(0.194005 0.0074375 4.64313e-06)
(0.193163 0.00735529 3.89449e-06)
(0.192193 0.00723754 2.95789e-06)
(0.1911 0.00708733 1.84381e-06)
(0.189892 0.00690794 5.66109e-07)
(0.188579 0.00670285 -8.57823e-07)
(0.187168 0.00647574 -2.40712e-06)
(0.18567 0.00623047 -4.05763e-06)
(0.184095 0.00597099 -5.78245e-06)
(0.182452 0.00570126 -7.55262e-06)
(0.180751 0.00542522 -9.33805e-06)
(0.179001 0.00514663 -1.11085e-05)
(0.177212 0.00486905 -1.28348e-05)
(0.175393 0.00459566 -1.44897e-05)
(0.173551 0.00432929 -1.6049e-05)
(0.171693 0.00407231 -1.74923e-05)
(0.169826 0.00382661 -1.88038e-05)
(0.167956 0.00359357 -1.99723e-05)
(0.166087 0.00337414 -2.09915e-05)
(0.164224 0.00316879 -2.18596e-05)
(0.162371 0.00297762 -2.25793e-05)
(0.160529 0.00280039 -2.31567e-05)
(0.158703 0.00263659 -2.36011e-05)
(0.156893 0.0024855 -2.39238e-05)
(0.155101 0.00234629 -2.41376e-05)
(0.153328 0.00221801 -2.42561e-05)
(0.151574 0.00209972 -2.42932e-05)
(0.149841 0.00199045 -2.4262e-05)
(0.14813 0.0018893 -2.41751e-05)
(0.146439 0.0017954 -2.40438e-05)
(0.14477 0.00170799 -2.38783e-05)
(0.143122 0.00162636 -2.36872e-05)
(0.141496 0.0015499 -2.34779e-05)
(0.139892 0.00147805 -2.32563e-05)
(0.13831 0.00141035 -2.30272e-05)
(0.13675 0.00134641 -2.27942e-05)
(0.135212 0.00128586 -2.25602e-05)
(0.133696 0.00122843 -2.23274e-05)
(0.132202 0.00117388 -2.20972e-05)
(0.13073 0.00112198 -2.18707e-05)
(0.12928 0.00107258 -2.16484e-05)
(0.127852 0.0010255 -2.14308e-05)
(0.126446 0.000980629 -2.12182e-05)
(0.125063 0.000937834 -2.10106e-05)
(0.123701 0.000897012 -2.08083e-05)
(0.122361 0.000858065 -2.06112e-05)
(0.121043 0.000820901 -2.04196e-05)
(0.119746 0.000785435 -2.02335e-05)
(0.118471 0.000751583 -2.00532e-05)
(0.117218 0.000719268 -1.98788e-05)
(0.115986 0.000688415 -1.97106e-05)
(0.114774 0.000658951 -1.95488e-05)
(0.113584 0.000630805 -1.93936e-05)
(0.112414 0.000603909 -1.92451e-05)
(0.111264 0.000578198 -1.91036e-05)
(0.110135 0.000553609 -1.89691e-05)
(0.109026 0.000530082 -1.88417e-05)
(0.107936 0.000507557 -1.87212e-05)
(0.106866 0.000485979 -1.86075e-05)
(0.105815 0.000465295 -1.85003e-05)
(0.104783 0.000445454 -1.83993e-05)
(0.10377 0.000426409 -1.83037e-05)
(0.102775 0.000408114 -1.8213e-05)
(0.101799 0.000390525 -1.81261e-05)
(0.100841 0.000373603 -1.80419e-05)
(0.0999003 0.000357308 -1.79592e-05)
(0.0989773 0.000341606 -1.78762e-05)
(0.0980718 0.000326463 -1.77913e-05)
(0.0971833 0.000311847 -1.77021e-05)
(0.0963118 0.00029773 -1.76063e-05)
(0.0954569 0.000284084 -1.75008e-05)
(0.0946186 0.000270885 -1.73826e-05)
(0.0937965 0.000258109 -1.72477e-05)
(0.0929905 0.000245737 -1.7092e-05)
(0.0922003 0.000233748 -1.69105e-05)
(0.0914257 0.000222128 -1.66978e-05)
(0.0906665 0.000210861 -1.64476e-05)
(0.0899224 0.000199939 -1.61526e-05)
(0.0891931 0.000189354 -1.58049e-05)
(0.0884785 0.000179104 -1.53952e-05)
(0.087778 0.000169197 -1.49128e-05)
(0.0870913 0.00015965 -1.43457e-05)
(0.0864179 0.000150508 -1.36802e-05)
(0.0857573 0.000141856 -1.29002e-05)
(0.0851083 0.000133877 -1.19881e-05)
(0.0844699 0.000126985 -1.0925e-05)
(0.0838393 0.000122231 -9.69661e-06)
(0.0832126 0.000123101 -8.32537e-06)
(0.0825918 0.000146323 -7.19503e-06)
(0.0817339 0.000252987 -9.20524e-06)
(0.195667 0.00518471 4.75791e-07)
(0.195999 0.00577105 1.46215e-06)
(0.196385 0.00622744 2.44162e-06)
(0.196759 0.00658664 3.29848e-06)
(0.197103 0.00687528 3.98873e-06)
(0.197417 0.00710506 4.51509e-06)
(0.197697 0.00728236 4.87097e-06)
(0.197937 0.00741302 5.04283e-06)
(0.19813 0.00750203 5.02606e-06)
(0.198269 0.00755287 4.8247e-06)
(0.198351 0.00756788 4.44535e-06)
(0.198371 0.00754883 3.89511e-06)
(0.198324 0.00749732 3.1824e-06)
(0.198207 0.00741501 2.31764e-06)
(0.198018 0.00730377 1.31329e-06)
(0.197756 0.00716571 1.83758e-07)
(0.19742 0.00700331 -1.05465e-06)
(0.19701 0.00681933 -2.38378e-06)
(0.196528 0.00661685 -3.78383e-06)
(0.195975 0.00639916 -5.23363e-06)
(0.195356 0.0061697 -6.71111e-06)
(0.194672 0.00593193 -8.19379e-06)
(0.193929 0.00568926 -9.65946e-06)
(0.193131 0.00544494 -1.10868e-05)
(0.192282 0.00520195 -1.2456e-05)
(0.191388 0.00496295 -1.37496e-05)
(0.190453 0.00473023 -1.49526e-05)
(0.189481 0.00450563 -1.60533e-05)
(0.188477 0.00429059 -1.70431e-05)
(0.187445 0.00408611 -1.79172e-05)
(0.186388 0.00389282 -1.86736e-05)
(0.185311 0.00371098 -1.93139e-05)
(0.184216 0.00354055 -1.98419e-05)
(0.183106 0.00338125 -2.0264e-05)
(0.181983 0.00323259 -2.05882e-05)
(0.180849 0.00309398 -2.08235e-05)
(0.179705 0.00296468 -2.09799e-05)
(0.178552 0.00284396 -2.10674e-05)
(0.177393 0.00273104 -2.1096e-05)
(0.176228 0.00262517 -2.10751e-05)
(0.175058 0.00252563 -2.10134e-05)
(0.173883 0.00243175 -2.0919e-05)
(0.172704 0.00234293 -2.07987e-05)
(0.171522 0.00225862 -2.06587e-05)
(0.170337 0.00217835 -2.05042e-05)
(0.16915 0.00210171 -2.03393e-05)
(0.167961 0.00202834 -2.01677e-05)
(0.166771 0.00195794 -1.9992e-05)
(0.16558 0.00189026 -1.98144e-05)
(0.164388 0.00182509 -1.96365e-05)
(0.163197 0.00176225 -1.94597e-05)
(0.162006 0.00170158 -1.92848e-05)
(0.160817 0.00164297 -1.91125e-05)
(0.159629 0.0015863 -1.89434e-05)
(0.158442 0.00153148 -1.87778e-05)
(0.157259 0.00147844 -1.86162e-05)
(0.156078 0.00142709 -1.84588e-05)
(0.154901 0.00137739 -1.8306e-05)
(0.153727 0.00132926 -1.81579e-05)
(0.152558 0.00128266 -1.80148e-05)
(0.151394 0.00123752 -1.7877e-05)
(0.150234 0.0011938 -1.77447e-05)
(0.14908 0.00115146 -1.76181e-05)
(0.147932 0.00111043 -1.74974e-05)
(0.146791 0.00107068 -1.73828e-05)
(0.145655 0.00103216 -1.72743e-05)
(0.144527 0.000994828 -1.7172e-05)
(0.143406 0.000958637 -1.70758e-05)
(0.142293 0.000923547 -1.69855e-05)
(0.141188 0.000889516 -1.6901e-05)
(0.140092 0.000856505 -1.68218e-05)
(0.139004 0.000824475 -1.67474e-05)
(0.137925 0.000793387 -1.66771e-05)
(0.136855 0.000763208 -1.66101e-05)
(0.135794 0.0007339 -1.65453e-05)
(0.134744 0.000705431 -1.64814e-05)
(0.133703 0.000677768 -1.64171e-05)
(0.132673 0.000650881 -1.63505e-05)
(0.131654 0.00062474 -1.62795e-05)
(0.130645 0.000599317 -1.62019e-05)
(0.129647 0.000574586 -1.61148e-05)
(0.12866 0.00055052 -1.60151e-05)
(0.127685 0.000527097 -1.58993e-05)
(0.126721 0.000504296 -1.57633e-05)
(0.125769 0.000482096 -1.56023e-05)
(0.124829 0.000460481 -1.54111e-05)
(0.123901 0.000439437 -1.51838e-05)
(0.122984 0.000418952 -1.49134e-05)
(0.12208 0.000399022 -1.45923e-05)
(0.121188 0.000379649 -1.42119e-05)
(0.120308 0.000360849 -1.37623e-05)
(0.11944 0.000342657 -1.32326e-05)
(0.118583 0.000325144 -1.26111e-05)
(0.117738 0.000308453 -1.18857e-05)
(0.116904 0.000292883 -1.10463e-05)
(0.116079 0.000279097 -1.00919e-05)
(0.115262 0.00026877 -9.05697e-06)
(0.114452 0.000266901 -8.11835e-06)
(0.113653 0.000290344 -8.10543e-06)
(0.112657 0.000374552 -1.20755e-05)
(0.196259 0.00495233 3.48365e-07)
(0.196492 0.00545057 1.08483e-06)
(0.196784 0.00586355 1.87849e-06)
(0.197098 0.00620181 2.63695e-06)
(0.197417 0.00648224 3.28014e-06)
(0.197737 0.00671516 3.78425e-06)
(0.198054 0.00690581 4.14436e-06)
(0.198365 0.00705788 4.35268e-06)
(0.198664 0.00717446 4.4043e-06)
(0.198948 0.00725782 4.30159e-06)
(0.199213 0.00730949 4.05098e-06)
(0.199455 0.00733063 3.65975e-06)
(0.199671 0.00732229 3.13552e-06)
(0.199857 0.00728559 2.4868e-06)
(0.200009 0.00722183 1.72314e-06)
(0.200125 0.00713256 8.55149e-07)
(0.200201 0.00701965 -1.05587e-07)
(0.200235 0.00688524 -1.14646e-06)
(0.200225 0.00673178 -2.25385e-06)
(0.200169 0.00656196 -3.41322e-06)
(0.200067 0.00637863 -4.60927e-06)
(0.199919 0.00618476 -5.82611e-06)
(0.199726 0.00598334 -7.0476e-06)
(0.199488 0.00577728 -8.25766e-06)
(0.199207 0.00556933 -9.44067e-06)
(0.198885 0.00536202 -1.05819e-05)
(0.198525 0.00515757 -1.16679e-05)
(0.198129 0.0049579 -1.26868e-05)
(0.197699 0.00476454 -1.3629e-05)
(0.197239 0.00457868 -1.44868e-05)
(0.19675 0.00440115 -1.52552e-05)
(0.196235 0.00423247 -1.59312e-05)
(0.195696 0.00407285 -1.65146e-05)
(0.195136 0.00392227 -1.70069e-05)
(0.194556 0.00378049 -1.74116e-05)
(0.193957 0.00364714 -1.77339e-05)
(0.193342 0.00352172 -1.79799e-05)
(0.192711 0.00340366 -1.81568e-05)
(0.192065 0.00329237 -1.82721e-05)
(0.191405 0.00318724 -1.83334e-05)
(0.190732 0.00308766 -1.83485e-05)
(0.190046 0.00299309 -1.83245e-05)
(0.189347 0.002903 -1.82682e-05)
(0.188637 0.00281692 -1.81859e-05)
(0.187914 0.00273444 -1.8083e-05)
(0.187181 0.00265518 -1.79643e-05)
(0.186436 0.00257883 -1.7834e-05)
(0.185681 0.00250513 -1.76953e-05)
(0.184915 0.00243383 -1.75513e-05)
(0.184138 0.00236475 -1.74041e-05)
(0.183351 0.00229772 -1.72556e-05)
(0.182555 0.00223261 -1.71074e-05)
(0.181749 0.00216931 -1.69606e-05)
(0.180934 0.00210772 -1.6816e-05)
(0.18011 0.00204775 -1.66744e-05)
(0.179277 0.00198933 -1.65363e-05)
(0.178436 0.0019324 -1.64022e-05)
(0.177587 0.00187691 -1.62723e-05)
(0.17673 0.0018228 -1.61471e-05)
(0.175866 0.00177002 -1.60266e-05)
(0.174994 0.00171853 -1.59112e-05)
(0.174117 0.00166828 -1.58011e-05)
(0.173233 0.00161923 -1.56963e-05)
(0.172343 0.00157133 -1.5597e-05)
(0.171447 0.00152456 -1.55034e-05)
(0.170547 0.00147886 -1.54153e-05)
(0.169642 0.0014342 -1.53328e-05)
(0.168732 0.00139055 -1.52558e-05)
(0.167819 0.00134787 -1.51841e-05)
(0.166902 0.00130612 -1.51175e-05)
(0.165982 0.00126528 -1.50555e-05)
(0.165059 0.0012253 -1.49977e-05)
(0.164133 0.00118617 -1.49433e-05)
(0.163206 0.00114784 -1.48916e-05)
(0.162278 0.0011103 -1.48416e-05)
(0.161348 0.00107352 -1.4792e-05)
(0.160418 0.00103748 -1.47416e-05)
(0.159487 0.00100214 -1.46885e-05)
(0.158557 0.0009675 -1.46309e-05)
(0.157627 0.000933529 -1.45665e-05)
(0.156699 0.000900211 -1.44928e-05)
(0.155771 0.000867529 -1.44067e-05)
(0.154846 0.000835469 -1.43049e-05)
(0.153923 0.000804018 -1.41833e-05)
(0.153002 0.000773165 -1.40378e-05)
(0.152085 0.000742904 -1.38631e-05)
(0.151171 0.000713228 -1.36538e-05)
(0.15026 0.000684139 -1.34033e-05)
(0.149354 0.000655644 -1.31047e-05)
(0.148451 0.000627759 -1.275e-05)
(0.147554 0.000600518 -1.23307e-05)
(0.146661 0.000573983 -1.1838e-05)
(0.145772 0.000548265 -1.12635e-05)
(0.144889 0.00052357 -1.06015e-05)
(0.14401 0.000500311 -9.85478e-06)
(0.143135 0.00047936 -9.05133e-06)
(0.142264 0.000462751 -8.29289e-06)
(0.141397 0.000455586 -7.90606e-06)
(0.140547 0.000469826 -8.84698e-06)
(0.139526 0.000515604 -1.30538e-05)
(0.196778 0.00477726 2.44432e-07)
(0.196947 0.00519931 7.59596e-07)
(0.197167 0.00557099 1.33072e-06)
(0.197418 0.00589116 1.90963e-06)
(0.197687 0.00616557 2.43309e-06)
(0.197966 0.00639912 2.87119e-06)
(0.19825 0.0065947 3.21491e-06)
(0.198536 0.0067545 3.45559e-06)
(0.198821 0.00688066 3.58396e-06)
(0.199101 0.00697514 3.59558e-06)
(0.199375 0.00703959 3.49104e-06)
(0.199639 0.00707541 3.27345e-06)
(0.199893 0.00708388 2.94699e-06)
(0.200132 0.00706628 2.51683e-06)
(0.200355 0.00702398 1.98914e-06)
(0.200559 0.00695848 1.37102e-06)
(0.200743 0.00687146 6.7036e-07)
(0.200903 0.00676478 -1.04272e-07)
(0.201038 0.00664052 -9.43597e-07)
(0.201146 0.00650091 -1.83763e-06)
(0.201226 0.00634834 -2.77572e-06)
(0.201278 0.00618528 -3.74657e-06)
(0.201299 0.00601423 -4.73835e-06)
(0.201292 0.00583766 -5.73885e-06)
(0.201255 0.00565793 -6.7357e-06)
(0.201191 0.00547723 -7.71663e-06)
(0.201098 0.00529757 -8.66976e-06)
(0.20098 0.00512068 -9.58398e-06)
(0.200838 0.00494802 -1.04493e-05)
(0.200672 0.00478077 -1.1257e-05)
(0.200484 0.00461981 -1.20001e-05)
(0.200277 0.00446575 -1.26734e-05)
(0.200052 0.00431895 -1.32736e-05)
(0.199809 0.00417956 -1.37991e-05)
(0.199551 0.00404753 -1.42503e-05)
(0.199278 0.00392266 -1.46292e-05)
(0.198991 0.00380464 -1.49389e-05)
(0.198691 0.00369307 -1.51839e-05)
(0.19838 0.0035875 -1.53693e-05)
(0.198056 0.00348747 -1.55009e-05)
(0.197721 0.00339249 -1.55847e-05)
(0.197375 0.00330208 -1.56268e-05)
(0.197018 0.00321582 -1.56331e-05)
(0.19665 0.00313327 -1.56092e-05)
(0.196272 0.00305407 -1.55604e-05)
(0.195883 0.00297788 -1.54914e-05)
(0.195483 0.00290439 -1.54064e-05)
(0.195072 0.00283335 -1.53091e-05)
(0.19465 0.00276453 -1.52027e-05)
(0.194218 0.00269773 -1.50898e-05)
(0.193775 0.00263279 -1.49727e-05)
(0.19332 0.00256957 -1.48533e-05)
(0.192855 0.00250794 -1.47331e-05)
(0.192379 0.00244781 -1.46132e-05)
(0.191892 0.00238908 -1.44948e-05)
(0.191393 0.00233167 -1.43784e-05)
(0.190884 0.00227553 -1.42649e-05)
(0.190364 0.00222059 -1.41546e-05)
(0.189833 0.00216679 -1.4048e-05)
(0.189292 0.00211408 -1.39454e-05)
(0.188739 0.00206243 -1.38471e-05)
(0.188176 0.00201178 -1.37534e-05)
(0.187602 0.00196209 -1.36643e-05)
(0.187018 0.00191332 -1.358e-05)
(0.186424 0.00186544 -1.35006e-05)
(0.18582 0.00181841 -1.34261e-05)
(0.185206 0.00177219 -1.33565e-05)
(0.184581 0.00172675 -1.32917e-05)
(0.183948 0.00168206 -1.32315e-05)
(0.183304 0.00163808 -1.31756e-05)
(0.182652 0.0015948 -1.31238e-05)
(0.181991 0.00155217 -1.30754e-05)
(0.18132 0.00151018 -1.303e-05)
(0.180642 0.00146879 -1.29866e-05)
(0.179954 0.001428 -1.29444e-05)
(0.179259 0.00138776 -1.29023e-05)
(0.178556 0.00134807 -1.28589e-05)
(0.177846 0.00130891 -1.28127e-05)
(0.177129 0.00127025 -1.27619e-05)
(0.176404 0.0012321 -1.27042e-05)
(0.175673 0.00119442 -1.26373e-05)
(0.174936 0.00115722 -1.25584e-05)
(0.174192 0.00112048 -1.24642e-05)
(0.173444 0.0010842 -1.23511e-05)
(0.172689 0.00104837 -1.22149e-05)
(0.17193 0.00101299 -1.2051e-05)
(0.171166 0.000978077 -1.18542e-05)
(0.170398 0.000943629 -1.16187e-05)
(0.169626 0.000909668 -1.1338e-05)
(0.16885 0.000876226 -1.10056e-05)
(0.168071 0.000843356 -1.06146e-05)
(0.167288 0.000811142 -1.0159e-05)
(0.166503 0.000779732 -9.63497e-06)
(0.165714 0.000749387 -9.04538e-06)
(0.164923 0.000720592 -8.40887e-06)
(0.164129 0.000694305 -7.78312e-06)
(0.163333 0.000672481 -7.32002e-06)
(0.162539 0.000658993 -7.37729e-06)
(0.161759 0.000659181 -8.58745e-06)
(0.160826 0.00066485 -1.10381e-05)
(0.197239 0.00463354 1.54638e-07)
(0.197367 0.00499261 4.80287e-07)
(0.197536 0.00532122 8.543e-07)
(0.197734 0.00561416 1.26325e-06)
(0.197955 0.0058713 1.66848e-06)
(0.198189 0.0060941 2.03931e-06)
(0.198432 0.00628399 2.35859e-06)
(0.19868 0.00644231 2.61347e-06)
(0.198931 0.00657049 2.79221e-06)
(0.199182 0.00666997 2.88683e-06)
(0.19943 0.00674207 2.89418e-06)
(0.199674 0.00678799 2.81446e-06)
(0.199911 0.00680887 2.6495e-06)
(0.200139 0.00680587 2.40214e-06)
(0.200358 0.00678019 2.07598e-06)
(0.200564 0.00673316 1.67521e-06)
(0.200756 0.00666626 1.20449e-06)
(0.200934 0.0065811 6.68819e-07)
(0.201094 0.00647948 7.36292e-08)
(0.201237 0.00636331 -5.75181e-07)
(0.201361 0.00623464 -1.27113e-06)
(0.201465 0.00609559 -2.0071e-06)
(0.201549 0.00594831 -2.77524e-06)
(0.201614 0.00579494 -3.56704e-06)
(0.201658 0.00563754 -4.37335e-06)
(0.201683 0.00547807 -5.18455e-06)
(0.201689 0.0053183 -5.99077e-06)
(0.201677 0.00515984 -6.78216e-06)
(0.201648 0.00500405 -7.54917e-06)
(0.201603 0.00485208 -8.28291e-06)
(0.201544 0.00470484 -8.97541e-06)
(0.201471 0.00456298 -9.6199e-06)
(0.201386 0.00442698 -1.0211e-05)
(0.20129 0.00429708 -1.07448e-05)
(0.201183 0.00417338 -1.12189e-05)
(0.201068 0.00405583 -1.16326e-05)
(0.200943 0.00394424 -1.19864e-05)
(0.200811 0.00383837 -1.22822e-05)
(0.200672 0.00373789 -1.25227e-05)
(0.200525 0.00364245 -1.27117e-05)
(0.200372 0.00355166 -1.28535e-05)
(0.200213 0.00346515 -1.29528e-05)
(0.200046 0.00338253 -1.30144e-05)
(0.199874 0.00330346 -1.30431e-05)
(0.199695 0.0032276 -1.30438e-05)
(0.199509 0.00315464 -1.3021e-05)
(0.199317 0.00308431 -1.29787e-05)
(0.199118 0.00301636 -1.29207e-05)
(0.198911 0.00295058 -1.28504e-05)
(0.198698 0.00288678 -1.27708e-05)
(0.198477 0.0028248 -1.26843e-05)
(0.198248 0.00276448 -1.25931e-05)
(0.198012 0.00270571 -1.24991e-05)
(0.197767 0.00264837 -1.24038e-05)
(0.197514 0.00259238 -1.23082e-05)
(0.197253 0.00253764 -1.22136e-05)
(0.196983 0.00248408 -1.21206e-05)
(0.196705 0.00243164 -1.20299e-05)
(0.196417 0.00238025 -1.1942e-05)
(0.19612 0.00232986 -1.18573e-05)
(0.195814 0.00228041 -1.17761e-05)
(0.195499 0.00223185 -1.16986e-05)
(0.195174 0.00218414 -1.16251e-05)
(0.19484 0.00213723 -1.15557e-05)
(0.194496 0.00209108 -1.14903e-05)
(0.194142 0.00204565 -1.1429e-05)
(0.193778 0.00200089 -1.13718e-05)
(0.193404 0.00195677 -1.13186e-05)
(0.19302 0.00191325 -1.12691e-05)
(0.192627 0.00187029 -1.12231e-05)
(0.192223 0.00182787 -1.11802e-05)
(0.191809 0.00178595 -1.11399e-05)
(0.191385 0.00174451 -1.11017e-05)
(0.190951 0.0017035 -1.10648e-05)
(0.190507 0.00166292 -1.10283e-05)
(0.190053 0.00162272 -1.09912e-05)
(0.189588 0.0015829 -1.09523e-05)
(0.189114 0.00154344 -1.09099e-05)
(0.18863 0.0015043 -1.08625e-05)
(0.188136 0.00146548 -1.08081e-05)
(0.187633 0.00142697 -1.07442e-05)
(0.187119 0.00138875 -1.06684e-05)
(0.186596 0.00135082 -1.05775e-05)
(0.186064 0.00131316 -1.04682e-05)
(0.185522 0.00127579 -1.03366e-05)
(0.184972 0.00123869 -1.01784e-05)
(0.184412 0.00120188 -9.9889e-06)
(0.183843 0.00116537 -9.763e-06)
(0.183265 0.00112919 -9.49527e-06)
(0.182679 0.00109337 -9.18037e-06)
(0.182084 0.00105799 -8.8136e-06)
(0.181481 0.00102313 -8.39211e-06)
(0.18087 0.000988979 -7.91741e-06)
(0.18025 0.000955811 -7.40064e-06)
(0.179623 0.000924121 -6.87308e-06)
(0.178988 0.000894771 -6.40735e-06)
(0.178347 0.000869213 -6.15101e-06)
(0.177705 0.000849377 -6.33474e-06)
(0.177071 0.000834849 -7.00016e-06)
(0.176298 0.000808567 -6.6157e-06)
(0.197652 0.00451311 7.45542e-08)
(0.197752 0.0048204 2.35569e-07)
(0.197883 0.00510844 4.3761e-07)
(0.19804 0.00537195 6.83905e-07)
(0.198218 0.00560863 9.55355e-07)
(0.198412 0.0058179 1.22909e-06)
(0.198617 0.00599985 1.488e-06)
(0.198828 0.00615483 1.71925e-06)
(0.199044 0.00628342 1.91184e-06)
(0.199262 0.00638635 2.05698e-06)
(0.19948 0.00646441 2.149e-06)
(0.199695 0.00651848 2.18495e-06)
(0.199906 0.00654943 2.16351e-06)
(0.200111 0.00655824 2.0843e-06)
(0.200308 0.00654596 1.94757e-06)
(0.200496 0.00651377 1.75404e-06)
(0.200674 0.00646297 1.50477e-06)
(0.20084 0.006395 1.20114e-06)
(0.200993 0.00631142 8.44838e-07)
(0.201132 0.00621393 4.3801e-07)
(0.201257 0.0061043 -1.66225e-08)
(0.201367 0.00598439 -5.15617e-07)
(0.201462 0.00585606 -1.05468e-06)
(0.201541 0.0057212 -1.62861e-06)
(0.201605 0.00558162 -2.23125e-06)
(0.201655 0.00543905 -2.85557e-06)
(0.20169 0.00529512 -3.49379e-06)
(0.201711 0.00515126 -4.13762e-06)
(0.20172 0.00500878 -4.77846e-06)
(0.201718 0.00486877 -5.4078e-06)
(0.201704 0.00473213 -6.01743e-06)
(0.201681 0.00459956 -6.59984e-06)
(0.20165 0.0044716 -7.14839e-06)
(0.201611 0.0043486 -7.6576e-06)
(0.201565 0.00423075 -8.12321e-06)
(0.201513 0.00411812 -8.54231e-06)
(0.201456 0.00401067 -8.91331e-06)
(0.201395 0.00390828 -9.23588e-06)
(0.201329 0.00381073 -9.51082e-06)
(0.201261 0.00371779 -9.7399e-06)
(0.201188 0.00362918 -9.92571e-06)
(0.201113 0.0035446 -1.00714e-05)
(0.201035 0.00346376 -1.01807e-05)
(0.200954 0.00338637 -1.02573e-05)
(0.200871 0.00331214 -1.03052e-05)
(0.200784 0.00324081 -1.03284e-05)
(0.200695 0.00317214 -1.03305e-05)
(0.200602 0.0031059 -1.0315e-05)
(0.200506 0.0030419 -1.02852e-05)
(0.200407 0.00297995 -1.02439e-05)
(0.200304 0.00291989 -1.01937e-05)
(0.200198 0.00286158 -1.01369e-05)
(0.200087 0.00280489 -1.00753e-05)
(0.199972 0.0027497 -1.00105e-05)
(0.199852 0.00269592 -9.944e-06)
(0.199728 0.00264346 -9.87679e-06)
(0.199598 0.00259222 -9.8098e-06)
(0.199464 0.00254213 -9.74376e-06)
(0.199324 0.00249313 -9.67923e-06)
(0.199178 0.00244515 -9.61669e-06)
(0.199027 0.00239812 -9.55647e-06)
(0.198869 0.002352 -9.49885e-06)
(0.198705 0.00230671 -9.444e-06)
(0.198535 0.00226222 -9.39205e-06)
(0.198357 0.00221847 -9.34306e-06)
(0.198173 0.00217541 -9.29704e-06)
(0.197982 0.002133 -9.25393e-06)
(0.197783 0.00209119 -9.21362e-06)
(0.197577 0.00204993 -9.1759e-06)
(0.197363 0.00200919 -9.14053e-06)
(0.197142 0.00196893 -9.10714e-06)
(0.196912 0.00192911 -9.07528e-06)
(0.196674 0.00188969 -9.0444e-06)
(0.196427 0.00185064 -9.01381e-06)
(0.196173 0.00181193 -8.98267e-06)
(0.195909 0.00177353 -8.94999e-06)
(0.195636 0.00173541 -8.91459e-06)
(0.195355 0.00169754 -8.87511e-06)
(0.195065 0.00165991 -8.82992e-06)
(0.194765 0.00162249 -8.77716e-06)
(0.194456 0.00158527 -8.71469e-06)
(0.194137 0.00154822 -8.64005e-06)
(0.19381 0.00151134 -8.55046e-06)
(0.193472 0.00147461 -8.44275e-06)
(0.193125 0.00143804 -8.31342e-06)
(0.192768 0.00140162 -8.15858e-06)
(0.192401 0.00136535 -7.97406e-06)
(0.192024 0.00132925 -7.75547e-06)
(0.191638 0.00129334 -7.49846e-06)
(0.191241 0.00125767 -7.19919e-06)
(0.190835 0.00122229 -6.85517e-06)
(0.190418 0.00118731 -6.46679e-06)
(0.189991 0.00115291 -6.04002e-06)
(0.189554 0.00111935 -5.59116e-06)
(0.189108 0.00108703 -5.15373e-06)
(0.188652 0.00105656 -4.78575e-06)
(0.188189 0.00102859 -4.55981e-06)
(0.187722 0.00100302 -4.46469e-06)
(0.187256 0.000975779 -3.98559e-06)
(0.18667 0.000929232 -9.43906e-07)
(0.198024 0.00440752 1.86378e-09)
(0.198104 0.00467263 1.58426e-08)
(0.198207 0.00492503 6.5089e-08)
(0.198331 0.00516042 1.60235e-07)
(0.198474 0.00537594 2.96482e-07)
(0.198632 0.00557 4.6202e-07)
(0.198802 0.00574176 6.44685e-07)
(0.198979 0.00589084 8.3365e-07)
(0.199161 0.00601717 1.01892e-06)
(0.199347 0.00612094 1.19144e-06)
(0.199534 0.00620256 1.34382e-06)
(0.19972 0.00626253 1.47047e-06)
(0.199903 0.00630149 1.56723e-06)
(0.200082 0.0063202 1.63081e-06)
(0.200256 0.00631952 1.65855e-06)
(0.200422 0.00630042 1.64818e-06)
(0.20058 0.00626403 1.59774e-06)
(0.200729 0.00621155 1.50552e-06)
(0.200868 0.00614434 1.3701e-06)
(0.200995 0.00606382 1.19044e-06)
(0.20111 0.00597153 9.66042e-07)
(0.201214 0.00586906 6.97123e-07)
(0.201305 0.00575803 3.84775e-07)
(0.201383 0.00564006 3.11089e-08)
(0.201449 0.00551674 -3.60661e-07)
(0.201502 0.00538962 -7.86204e-07)
(0.201544 0.00526013 -1.24013e-06)
(0.201575 0.0051296 -1.71614e-06)
(0.201596 0.00499924 -2.20723e-06)
(0.201607 0.00487008 -2.70593e-06)
(0.20161 0.00474301 -3.20464e-06)