/*--------------------------------*- C++ -*----------------------------------*\
| =========                 |                                                 |
| \\      /  F ield         | OpenFOAM: The Open Source CFD Toolbox           |
|  \\    /   O peration     | Version:  2.3.0                                 |
|   \\  /    A nd           | Web:      www.OpenFOAM.org                      |
|    \\/     M anipulation  |                                                 |
\*---------------------------------------------------------------------------*/
FoamFile
{
    version     2.0;
    format      ascii;
    class       volScalarField;
    location    "0.1";
    object      p;
}
// * * * * * * * * * * * * * * * * * * * * * * * * * * * * * * * * * * * * * //

dimensions      [0 2 -2 0 0 0 0];

internalField   nonuniform List<scalar> 
3105
(
0.00249386
0.00218086
0.00157949
0.00100571
0.000520235
0.000111381
-0.000229554
-0.000494739
-0.000665569
-0.000743428
-0.000755398
-0.000731978
-0.000694289
-0.000656172
-0.000625129
-0.000602384
-0.000586378
-0.000575507
-0.000568068
-0.000562007
-0.00055544
-0.00054721
-0.000536788
-0.000523845
-0.0005081
-0.000489345
-0.000467407
-0.000442162
-0.000413264
-0.000382527
-0.00035088
-0.000319312
-0.000289253
-0.000261326
-0.000235973
-0.000213296
-0.000193148
-0.00017527
-0.000159382
-0.000145224
-0.000132575
-0.000121255
-0.000111107
-0.000101992
-9.37803e-05
-8.63548e-05
-7.96086e-05
-7.34494e-05
-6.78001e-05
-6.25982e-05
-5.77938e-05
-5.33468e-05
-4.9225e-05
-4.54022e-05
-4.18556e-05
-3.85656e-05
-3.55146e-05
-3.26863e-05
-3.00658e-05
-2.76389e-05
-2.53925e-05
-2.33145e-05
-2.13931e-05
-1.96177e-05
-1.79782e-05
-1.64649e-05
-1.5069e-05
-1.3782e-05
-1.25961e-05
-1.1504e-05
-1.04988e-05
-9.57423e-06
-8.72422e-06
-7.94318e-06
-7.22595e-06
-6.56759e-06
-5.96355e-06
-5.40959e-06
-4.90169e-06
-4.43627e-06
-4.0097e-06
-3.61897e-06
-3.26084e-06
-2.93278e-06
-2.63193e-06
-2.35611e-06
-2.10279e-06
-1.87012e-06
-1.65583e-06
-1.45835e-06
-1.27558e-06
-1.1063e-06
-9.48389e-07
-8.01043e-07
-6.6204e-07
-5.30995e-07
-4.05606e-07
-2.85626e-07
-1.69126e-07
-5.56794e-08
0.0020592
0.00189118
0.00146842
0.000973286
0.000515623
0.000127681
-0.000191384
-0.000440065
-0.000606357
-0.000689477
-0.000711106
-0.000697779
-0.000668764
-0.000637355
-0.000611305
-0.000592046
-0.000578315
-0.000568983
-0.000562702
-0.000557531
-0.000551687
-0.000544111
-0.000534309
-0.000521959
-0.000506771
-0.000488542
-0.00046708
-0.0004421
-0.000414032
-0.000383007
-0.000351458
-0.000319805
-0.00028969
-0.000261665
-0.000236229
-0.000213489
-0.000193291
-0.000175375
-0.000159457
-0.000145274
-0.000132606
-0.000121272
-0.000111115
-0.000101994
-9.37807e-05
-8.63547e-05
-7.96089e-05
-7.34505e-05
-6.78021e-05
-6.26008e-05
-5.77967e-05
-5.33498e-05
-4.9228e-05
-4.5405e-05
-4.18582e-05
-3.85681e-05
-3.55169e-05
-3.26884e-05
-3.00677e-05
-2.76407e-05
-2.53942e-05
-2.3316e-05
-2.13946e-05
-1.96191e-05
-1.79795e-05
-1.64662e-05
-1.50701e-05
-1.37831e-05
-1.25971e-05
-1.1505e-05
-1.04997e-05
-9.57507e-06
-8.725e-06
-7.94392e-06
-7.22664e-06
-6.56823e-06
-5.96414e-06
-5.41015e-06
-4.90221e-06
-4.43675e-06
-4.01014e-06
-3.61938e-06
-3.26121e-06
-2.93313e-06
-2.63224e-06
-2.3564e-06
-2.10305e-06
-1.87036e-06
-1.65604e-06
-1.45854e-06
-1.27574e-06
-1.10645e-06
-9.48506e-07
-8.01155e-07
-6.62113e-07
-5.3106e-07
-4.05646e-07
-2.85629e-07
-1.69138e-07
-5.5617e-08
0.00176126
0.00165615
0.00136181
0.000951629
0.000533998
0.000170795
-0.000124107
-0.000353879
-0.000515527
-0.000608854
-0.000647481
-0.000650341
-0.000634161
-0.000612603
-0.000593398
-0.000578308
-0.000566894
-0.000558876
-0.000553514
-0.00054916
-0.000544067
-0.000537159
-0.000527991
-0.000516299
-0.00050181
-0.00048429
-0.000463526
-0.000439261
-0.000411772
-0.000381877
-0.000350387
-0.000319035
-0.000289324
-0.000261517
-0.000236218
-0.000213555
-0.00019339
-0.000175478
-0.000159542
-0.000145332
-0.000132635
-0.000121274
-0.000111096
-0.000101961
-9.37399e-05
-8.6311e-05
-7.95649e-05
-7.34079e-05
-6.77621e-05
-6.25636e-05
-5.7762e-05
-5.33175e-05
-4.91981e-05
-4.53772e-05
-4.18324e-05
-3.85442e-05
-3.54947e-05
-3.2668e-05
-3.00488e-05
-2.76233e-05
-2.53782e-05
-2.33013e-05
-2.13811e-05
-1.96068e-05
-1.79682e-05
-1.64559e-05
-1.50608e-05
-1.37745e-05
-1.25893e-05
-1.14979e-05
-1.04933e-05
-9.56924e-06
-8.71972e-06
-7.93914e-06
-7.22232e-06
-6.56434e-06
-5.96063e-06
-5.40699e-06
-4.89937e-06
-4.43421e-06
-4.00786e-06
-3.61735e-06
-3.2594e-06
-2.93153e-06
-2.63082e-06
-2.35516e-06
-2.10196e-06
-1.86942e-06
-1.65522e-06
-1.45786e-06
-1.27515e-06
-1.10599e-06
-9.48127e-07
-8.00876e-07
-6.61902e-07
-5.30935e-07
-4.0559e-07
-2.85587e-07
-1.69161e-07
-5.56477e-08
0.001555
0.00146815
0.00125196
0.00092146
0.000553507
0.000218883
-5.37906e-05
-0.00026625
-0.000421826
-0.000521518
-0.000573354
-0.00059076
-0.000587935
-0.000577085
-0.00056529
-0.000554972
-0.000546865
-0.000541215
-0.000537415
-0.000534141
-0.000529989
-0.000523961
-0.000515586
-0.000504669
-0.000491033
-0.000474453
-0.000454695
-0.000431572
-0.000405304
-0.000376656
-0.000346584
-0.000316702
-0.000287539
-0.000260417
-0.000235612
-0.000213273
-0.000193304
-0.000175501
-0.000159617
-0.000145418
-0.00013271
-0.000121326
-0.000111121
-0.000101961
-9.37166e-05
-8.6271e-05
-7.95131e-05
-7.33483e-05
-6.7699e-05
-6.24995e-05
-5.76986e-05
-5.3256e-05
-4.91392e-05
-4.53215e-05
-4.178e-05
-3.84951e-05
-3.5449e-05
-3.26256e-05
-3.00096e-05
-2.7587e-05
-2.53448e-05
-2.32706e-05
-2.13529e-05
-1.95809e-05
-1.79445e-05
-1.64341e-05
-1.50409e-05
-1.37564e-05
-1.25728e-05
-1.14828e-05
-1.04796e-05
-9.55683e-06
-8.70848e-06
-7.92894e-06
-7.21309e-06
-6.55599e-06
-5.95311e-06
-5.40021e-06
-4.89326e-06
-4.42873e-06
-4.00294e-06
-3.61297e-06
-3.25548e-06
-2.92806e-06
-2.62774e-06
-2.35246e-06
-2.09959e-06
-1.86737e-06
-1.65345e-06
-1.45636e-06
-1.2739e-06
-1.10497e-06
-9.47332e-07
-8.00281e-07
-6.6148e-07
-5.30698e-07
-4.05532e-07
-2.85705e-07
-1.69321e-07
-5.58448e-08
0.00139113
0.00131002
0.00114036
0.000875588
0.000560099
0.000258384
7.50198e-06
-0.000189753
-0.000338486
-0.00044062
-0.000501187
-0.000529864
-0.000538221
-0.000536682
-0.000531626
-0.000525967
-0.000521338
-0.000518271
-0.000516079
-0.000513757
-0.000510442
-0.000505293
-0.00049772
-0.00048757
-0.000474839
-0.000459353
-0.00044083
-0.000419129
-0.000394533
-0.000367738
-0.000339585
-0.000311312
-0.000283734
-0.000257819
-0.000233931
-0.000212228
-0.000192695
-0.000175177
-0.000159469
-0.000145374
-0.000132717
-0.000121349
-0.000111138
-0.000101961
-9.36935e-05
-8.62256e-05
-7.94478e-05
-7.32683e-05
-6.76088e-05
-6.24034e-05
-5.76008e-05
-5.3159e-05
-4.90447e-05
-4.52308e-05
-4.16939e-05
-3.84141e-05
-3.53734e-05
-3.25551e-05
-2.99443e-05
-2.75266e-05
-2.5289e-05
-2.32192e-05
-2.13057e-05
-1.95376e-05
-1.79047e-05
-1.63977e-05
-1.50076e-05
-1.3726e-05
-1.25451e-05
-1.14576e-05
-1.04567e-05
-9.53595e-06
-8.68954e-06
-7.91178e-06
-7.19751e-06
-6.54191e-06
-5.94039e-06
-5.38876e-06
-4.88293e-06
-4.41945e-06
-3.9946e-06
-3.60552e-06
-3.24883e-06
-2.92215e-06
-2.6225e-06
-2.34784e-06
-2.09554e-06
-1.86384e-06
-1.65042e-06
-1.45377e-06
-1.27174e-06
-1.10318e-06
-9.45927e-07
-7.9921e-07
-6.60887e-07
-5.30222e-07
-4.05336e-07
-2.85689e-07
-1.69482e-07
-5.61224e-08
0.00125213
0.00117429
0.00103313
0.000818709
0.000553778
0.000287702
5.85863e-05
-0.000124844
-0.00026638
-0.000368487
-0.000434448
-0.000471314
-0.000488654
-0.000495228
-0.000496338
-0.000494996
-0.000493608
-0.000493045
-0.000492466
-0.00049103
-0.000488409
-0.000484033
-0.000477228
-0.000467843
-0.000456014
-0.00044162
-0.000424355
-0.000404151
-0.000381342
-0.000356529
-0.000330463
-0.000304139
-0.000278356
-0.000253881
-0.000231122
-0.000210267
-0.000191346
-0.000174259
-0.000158854
-0.000144969
-0.000132453
-0.000121173
-0.00011101
-0.000101855
-9.35879e-05
-8.61132e-05
-7.93233e-05
-7.31334e-05
-6.74645e-05
-6.22538e-05
-5.74496e-05
-5.30099e-05
-4.88999e-05
-4.5092e-05
-4.15624e-05
-3.82904e-05
-3.52577e-05
-3.24475e-05
-2.98444e-05
-2.74342e-05
-2.52038e-05
-2.31407e-05
-2.12335e-05
-1.94713e-05
-1.7844e-05
-1.6342e-05
-1.49567e-05
-1.36796e-05
-1.25027e-05
-1.14189e-05
-1.04215e-05
-9.50393e-06
-8.66046e-06
-7.88539e-06
-7.17357e-06
-6.52024e-06
-5.9208e-06
-5.37108e-06
-4.86698e-06
-4.40508e-06
-3.98169e-06
-3.59395e-06
-3.23849e-06
-2.91293e-06
-2.61431e-06
-2.34058e-06
-2.08915e-06
-1.85824e-06
-1.64556e-06
-1.44959e-06
-1.2682e-06
-1.10021e-06
-9.43525e-07
-7.97299e-07
-6.59443e-07
-5.2922e-07
-4.0475e-07
-2.85439e-07
-1.69492e-07
-5.63273e-08
0.00113093
0.0010562
0.000934826
0.000759227
0.000538743
0.000307265
0.00010011
-6.94223e-05
-0.000203517
-0.000304422
-0.000373406
-0.000415811
-0.000440295
-0.000453983
-0.000460652
-0.000463273
-0.000464935
-0.000466746
-0.00046776
-0.000467298
-0.000465429
-0.000461815
-0.000455789
-0.000447212
-0.000436306
-0.000422994
-0.000406979
-0.000388249
-0.000367188
-0.000344348
-0.00032035
-0.000295973
-0.000271963
-0.00024899
-0.000227452
-0.000207543
-0.000189332
-0.000172771
-0.000157754
-0.000144156
-0.00013185
-0.00012072
-0.00011066
-0.000101564
-9.33381e-05
-8.58738e-05
-7.90908e-05
-7.29031e-05
-6.72349e-05
-6.20259e-05
-5.72264e-05
-5.27935e-05
-4.86924e-05
-4.48949e-05
-4.13765e-05
-3.81161e-05
-3.50951e-05
-3.22964e-05
-2.97044e-05
-2.73049e-05
-2.50845e-05
-2.30309e-05
-2.11326e-05
-1.93787e-05
-1.77591e-05
-1.62643e-05
-1.48856e-05
-1.36146e-05
-1.24434e-05
-1.13648e-05
-1.03722e-05
-9.45909e-06
-8.61968e-06
-7.84835e-06
-7.13998e-06
-6.48981e-06
-5.89324e-06
-5.34617e-06
-4.84449e-06
-4.38482e-06
-3.96347e-06
-3.57758e-06
-3.22382e-06
-2.89981e-06
-2.60263e-06
-2.33021e-06
-2.08e-06
-1.85018e-06
-1.63854e-06
-1.4435e-06
-1.26299e-06
-1.09581e-06
-9.3989e-07
-7.94349e-07
-6.57156e-07
-5.27542e-07
-4.03631e-07
-2.84807e-07
-1.69236e-07
-5.63802e-08
0.0010241
0.000953168
0.000847513
0.000701592
0.000517521
0.000317725
0.000132746
-2.23094e-05
-0.000148521
-0.000247506
-0.000318065
-0.000363952
-0.000393784
-0.000413513
-0.000425127
-0.000431324
-0.000435839
-0.000439908
-0.000442465
-0.000443053
-0.000442076
-0.000439302
-0.000434063
-0.000426303
-0.000416356
-0.000404155
-0.000389384
-0.000372091
-0.000352727
-0.000331781
-0.000309728
-0.000287203
-0.000264904
-0.000243427
-0.00022313
-0.000204209
-0.000186761
-0.000170787
-0.000156219
-0.000142962
-0.000130912
-0.000119975
-0.000110054
-0.000101056
-9.28938e-05
-8.54758e-05
-7.87215e-05
-7.25524e-05
-6.68991e-05
-6.17039e-05
-5.69177e-05
-5.24991e-05
-4.84135e-05
-4.4632e-05
-4.113e-05
-3.78861e-05
-3.48811e-05
-3.2098e-05
-2.95209e-05
-2.71355e-05
-2.49284e-05
-2.28873e-05
-2.10006e-05
-1.92576e-05
-1.76481e-05
-1.61627e-05
-1.47926e-05
-1.35296e-05
-1.23658e-05
-1.12941e-05
-1.03077e-05
-9.40036e-06
-8.56624e-06
-7.79981e-06
-7.09593e-06
-6.44986e-06
-5.85704e-06
-5.31343e-06
-4.81491e-06
-4.35814e-06
-3.93944e-06
-3.55597e-06
-3.20444e-06
-2.88246e-06
-2.58715e-06
-2.31643e-06
-2.0678e-06
-1.83942e-06
-1.62911e-06
-1.43529e-06
-1.25593e-06
-1.0898e-06
-9.34873e-07
-7.90231e-07
-6.53893e-07
-5.25068e-07
-4.01882e-07
-2.83706e-07
-1.68669e-07
-5.62792e-08
0.000929716
0.000863047
0.000770204
0.000646979
0.000492453
0.000320935
0.0001572
1.66293e-05
-0.000100947
-0.000197089
-0.000268321
-0.000316166
-0.000349548
-0.000374242
-0.000390294
-0.000399564
-0.00040657
-0.000412841
-0.000416931
-0.000418531
-0.00041852
-0.000416703
-0.000412262
-0.00040529
-0.000396341
-0.000385318
-0.000371802
-0.000355898
-0.000338147
-0.00031899
-0.000298767
-0.000278003
-0.000257341
-0.000237317
-0.000218252
-0.000200336
-0.000183687
-0.000168344
-0.00015427
-0.000141396
-0.000129645
-0.000118936
-0.000109189
-0.000100321
-9.2253e-05
-8.49039e-05
-7.81988e-05
-7.20666e-05
-6.64438e-05
-6.1275e-05
-5.65131e-05
-5.21181e-05
-4.80558e-05
-4.42972e-05
-4.08177e-05
-3.75956e-05
-3.46117e-05
-3.18486e-05
-2.92905e-05
-2.69231e-05
-2.47328e-05
-2.27075e-05
-2.08354e-05
-1.9106e-05
-1.75091e-05
-1.60355e-05
-1.46762e-05
-1.34232e-05
-1.22686e-05
-1.12054e-05
-1.02268e-05
-9.32674e-06
-8.49925e-06
-7.73893e-06
-7.04064e-06
-6.3997e-06
-5.81158e-06
-5.27227e-06
-4.77772e-06
-4.32456e-06
-3.90917e-06
-3.52872e-06
-3.17998e-06
-2.86053e-06
-2.56758e-06
-2.29897e-06
-2.05232e-06
-1.82574e-06
-1.6171e-06
-1.42481e-06
-1.24687e-06
-1.08204e-06
-9.28352e-07
-7.84835e-07
-6.49562e-07
-5.21721e-07
-3.99446e-07
-2.82094e-07
-1.6778e-07
-5.60377e-08
0.000846062
0.000783435
0.000701208
0.000596185
0.000465723
0.000318465
0.000174043
4.7557e-05
-6.04076e-05
-0.000152413
-0.000223728
-0.000272711
-0.000308026
-0.000336443
-0.000356472
-0.00036833
-0.000377312
-0.000385701
-0.000391397
-0.000393901
-0.000394794
-0.000394055
-0.000390498
-0.000384286
-0.000376331
-0.000366544
-0.000354299
-0.00033971
-0.000323464
-0.000306002
-0.000287521
-0.000268425
-0.000249319
-0.000230702
-0.000212856
-0.000195955
-0.000180132
-0.000165453
-0.000151912
-0.000139461
-0.000128043
-0.000117598
-0.000108056
-9.93475e-05
-9.14006e-05
-8.41439e-05
-7.75098e-05
-7.14339e-05
-6.58577e-05
-6.07293e-05
-5.60037e-05
-5.16424e-05
-4.7612e-05
-4.38841e-05
-4.04338e-05
-3.72396e-05
-3.42821e-05
-3.1544e-05
-2.90095e-05
-2.66641e-05
-2.44946e-05
-2.24884e-05
-2.06343e-05
-1.89215e-05
-1.734e-05
-1.58806e-05
-1.45345e-05
-1.32936e-05
-1.21503e-05
-1.10974e-05
-1.01284e-05
-9.23706e-06
-8.41762e-06
-7.6647e-06
-6.9732e-06
-6.3385e-06
-5.75609e-06
-5.22203e-06
-4.73228e-06
-4.28351e-06
-3.87216e-06
-3.49538e-06
-3.15004e-06
-2.83367e-06
-2.54356e-06
-2.27755e-06
-2.03329e-06
-1.80889e-06
-1.60227e-06
-1.41185e-06
-1.23564e-06
-1.0724e-06
-9.20199e-07
-7.78052e-07
-6.44072e-07
-5.17426e-07
-3.96268e-07
-2.79934e-07
-1.66554e-07
-5.56622e-08
0.000771551
0.000712663
0.000639386
0.000549263
0.000438293
0.000311599
0.000184574
7.13721e-05
-2.65284e-05
-0.000113098
-0.000183848
-0.000233615
-0.000269533
-0.000300213
-0.000323742
-0.000337961
-0.000348352
-0.000358576
-0.000365994
-0.000369354
-0.000370972
-0.000371378
-0.000368883
-0.000363418
-0.000356352
-0.000347787
-0.000336833
-0.000323507
-0.000308668
-0.000292817
-0.000276007
-0.000258505
-0.000240881
-0.000223622
-0.000206974
-0.000191088
-0.000176105
-0.000162117
-0.000149139
-0.000137146
-0.000126098
-0.000115948
-0.000106643
-9.81222e-05
-9.0323e-05
-8.31831e-05
-7.66421e-05
-7.06421e-05
-6.51295e-05
-6.00561e-05
-5.53796e-05
-5.10631e-05
-4.70743e-05
-4.33853e-05
-3.99717e-05
-3.6812e-05
-3.3887e-05
-3.11794e-05
-2.86734e-05
-2.63546e-05
-2.42099e-05
-2.22268e-05
-2.03941e-05
-1.87012e-05
-1.71382e-05
-1.56958e-05
-1.43654e-05
-1.3139e-05
-1.2009e-05
-1.09685e-05
-1.00108e-05
-9.12992e-06
-8.32008e-06
-7.57598e-06
-6.89258e-06
-6.26531e-06
-5.68972e-06
-5.16189e-06
-4.67788e-06
-4.23435e-06
-3.82781e-06
-3.45542e-06
-3.11411e-06
-2.80143e-06
-2.5147e-06
-2.25179e-06
-2.01038e-06
-1.7886e-06
-1.58439e-06
-1.39619e-06
-1.22203e-06
-1.0607e-06
-9.1027e-07
-7.69758e-07
-6.3732e-07
-5.12102e-07
-3.92287e-07
-2.7719e-07
-1.64971e-07
-5.51537e-08
0.000704921
0.000649617
0.000583543
0.000505622
0.000410909
0.000301819
0.000190221
8.90339e-05
9.21963e-07
-7.90752e-05
-0.000148153
-0.000198483
-0.000234283
-0.000265778
-0.000292141
-0.000308729
-0.000320079
-0.000331578
-0.000340747
-0.000345087
-0.000347248
-0.000348716
-0.00034743
-0.00034273
-0.000336385
-0.000328971
-0.000319377
-0.000307333
-0.000293817
-0.000279477
-0.000264264
-0.000248281
-0.000232059
-0.000216095
-0.000200614
-0.000185739
-0.000171607
-0.000158331
-0.000145948
-0.000134445
-0.000123798
-0.000113976
-0.000104937
-9.66319e-05
-8.90069e-05
-8.20084e-05
-7.55829e-05
-6.96788e-05
-6.42475e-05
-5.92447e-05
-5.46308e-05
-5.03709e-05
-4.64341e-05
-4.27932e-05
-3.94244e-05
-3.63065e-05
-3.34205e-05
-3.07493e-05
-2.82772e-05
-2.59901e-05
-2.38747e-05
-2.19189e-05
-2.01115e-05
-1.8442e-05
-1.69006e-05
-1.54782e-05
-1.41663e-05
-1.2957e-05
-1.18428e-05
-1.08167e-05
-9.8724e-06
-9.00378e-06
-8.20523e-06
-7.47149e-06
-6.79762e-06
-6.17908e-06
-5.6115e-06
-5.09101e-06
-4.61373e-06
-4.17636e-06
-3.77547e-06
-3.40825e-06
-3.07169e-06
-2.76334e-06
-2.4806e-06
-2.22133e-06
-1.98327e-06
-1.76457e-06
-1.56319e-06
-1.3776e-06
-1.20586e-06
-1.04675e-06
-8.98408e-07
-7.59821e-07
-6.29197e-07
-5.05661e-07
-3.87437e-07
-2.73816e-07
-1.63004e-07
-5.45094e-08
0.00064492
0.00059322
0.000532861
0.000465027
0.00038411
0.000290008
0.000192
0.00010161
2.24926e-05
-5.0261e-05
-0.000116236
-0.000166822
-0.000202447
-0.000233558
-0.000261709
-0.000280693
-0.000292837
-0.00030492
-0.000315669
-0.000321262
-0.000323852
-0.000326072
-0.000326023
-0.00032223
-0.000316543
-0.000310184
-0.000301992
-0.000291261
-0.000278964
-0.000265987
-0.000252269
-0.000237739
-0.000222853
-0.000208128
-0.000193789
-0.00017992
-0.00016665
-0.000154104
-0.000142337
-0.000131351
-0.000121135
-0.000111669
-0.000102925
-9.48635e-05
-8.74392e-05
-8.06065e-05
-7.43192e-05
-6.85314e-05
-6.31997e-05
-5.82838e-05
-5.37469e-05
-4.95563e-05
-4.56826e-05
-4.20997e-05
-3.87845e-05
-3.57162e-05
-3.28764e-05
-3.0248e-05
-2.78158e-05
-2.55657e-05
-2.34846e-05
-2.15607e-05
-1.97828e-05
-1.81405e-05
-1.66244e-05
-1.52253e-05
-1.39349e-05
-1.27454e-05
-1.16494e-05
-1.06402e-05
-9.7114e-06
-8.85705e-06
-8.0716e-06
-7.34991e-06
-6.68709e-06
-6.07869e-06
-5.52042e-06
-5.00846e-06
-4.53901e-06
-4.1088e-06
-3.71448e-06
-3.35326e-06
-3.02221e-06
-2.7189e-06
-2.44079e-06
-2.18576e-06
-1.95159e-06
-1.73647e-06
-1.53837e-06
-1.35582e-06
-1.18688e-06
-1.03037e-06
-8.84449e-07
-7.481e-07
-6.19585e-07
-4.98013e-07
-3.81649e-07
-2.69768e-07
-1.60628e-07
-5.37236e-08
0.000590284
0.000542604
0.000487025
0.000427214
0.000357858
0.000276773
0.000190891
0.00011011
3.89166e-05
-2.64645e-05
-8.79953e-05
-0.000138268
-0.000173966
-0.000203901
-0.000232538
-0.000253753
-0.000266878
-0.000278973
-0.000290829
-0.000297861
-0.000300907
-0.000303541
-0.000304685
-0.000302054
-0.000297044
-0.000291522
-0.000284619
-0.000275206
-0.000264066
-0.000252323
-0.000240013
-0.000226895
-0.000213302
-0.000199765
-0.000186528
-0.000173652
-0.000161243
-0.000149435
-0.000138302
-0.000127858
-0.000118099
-0.000109017
-0.000100596
-9.28047e-05
-8.56071e-05
-7.89647e-05
-7.28381e-05
-6.71876e-05
-6.19744e-05
-5.71621e-05
-5.27173e-05
-4.86093e-05
-4.48106e-05
-4.12963e-05
-3.80442e-05
-3.50342e-05
-3.22483e-05
-2.96698e-05
-2.72839e-05
-2.50766e-05
-2.30353e-05
-2.11481e-05
-1.94042e-05
-1.77934e-05
-1.63063e-05
-1.4934e-05
-1.36684e-05
-1.25017e-05
-1.14268e-05
-1.0437e-05
-9.52597e-06
-8.68803e-06
-7.91766e-06
-7.20982e-06
-6.55972e-06
-5.963e-06
-5.41544e-06
-4.9133e-06
-4.45284e-06
-4.03087e-06
-3.64412e-06
-3.28981e-06
-2.96511e-06
-2.6676e-06
-2.39481e-06
-2.14466e-06
-1.91497e-06
-1.70396e-06
-1.50966e-06
-1.33059e-06
-1.16489e-06
-1.01135e-06
-8.6822e-07
-7.3445e-07
-6.08364e-07
-4.89059e-07
-3.7485e-07
-2.64996e-07
-1.57814e-07
-5.27885e-08
0.000539997
0.000496885
0.000445547
0.000391905
0.000332251
0.000262645
0.00018745
0.000115259
5.11666e-05
-7.28684e-06
-6.36234e-05
-0.000112604
-0.000148386
-0.000176951
-0.000204983
-0.000227903
-0.000242242
-0.000254023
-0.000266332
-0.000274838
-0.000278612
-0.000281457
-0.000283545
-0.00028216
-0.000277851
-0.000272939
-0.000267169
-0.000259121
-0.00024917
-0.000238568
-0.000227553
-0.000215784
-0.000203433
-0.000191024
-0.000178843
-0.00016694
-0.000155391
-0.00014433
-0.000133845
-0.000123962
-0.000114684
-0.000106013
-9.79397e-05
-9.04445e-05
-8.34986e-05
-7.70706e-05
-7.11274e-05
-6.56351e-05
-6.05595e-05
-5.58684e-05
-5.15313e-05
-4.752e-05
-4.38089e-05
-4.03746e-05
-3.71957e-05
-3.42532e-05
-3.15295e-05
-2.90086e-05
-2.66758e-05
-2.45177e-05
-2.25219e-05
-2.06768e-05
-1.89718e-05
-1.73969e-05
-1.5943e-05
-1.46014e-05
-1.3364e-05
-1.22234e-05
-1.11725e-05
-1.02048e-05
-9.31418e-06
-8.49496e-06
-7.7418e-06
-7.04977e-06
-6.41419e-06
-5.83079e-06
-5.29546e-06
-4.80451e-06
-4.35433e-06
-3.94177e-06
-3.56364e-06
-3.21723e-06
-2.89976e-06
-2.60888e-06
-2.34217e-06
-2.09759e-06
-1.87301e-06
-1.6667e-06
-1.47672e-06
-1.30164e-06
-1.13962e-06
-9.89494e-07
-8.4954e-07
-7.18719e-07
-5.95408e-07
-4.78701e-07
-3.66964e-07
-2.59447e-07
-1.54532e-07
-5.16953e-08
0.000493244
0.000454998
0.000407866
0.000359163
0.000307399
0.000247696
0.000182082
0.00011786
6.00898e-05
7.62046e-06
-4.31842e-05
-8.95618e-05
-0.000125233
-0.000152857
-0.000179508
-0.000203066
-0.000218677
-0.00023032
-0.000242593
-0.00025233
-0.000257033
-0.000259931
-0.000262533
-0.000262345
-0.000258925
-0.000254582
-0.000249784
-0.000243073
-0.000234324
-0.000224764
-0.000214898
-0.00020439
-0.000193241
-0.000181917
-0.000170751
-0.000159798
-0.000149105
-0.000138795
-0.000128969
-0.000119663
-0.000110886
-0.000102648
-9.49472e-05
-8.77726e-05
-8.11027e-05
-7.49126e-05
-6.91754e-05
-6.38622e-05
-5.89438e-05
-5.43916e-05
-5.01784e-05
-4.62785e-05
-4.26682e-05
-3.93258e-05
-3.62311e-05
-3.33658e-05
-3.07132e-05
-2.82579e-05
-2.59857e-05
-2.38837e-05
-2.19396e-05
-2.01423e-05
-1.84815e-05
-1.69474e-05
-1.55312e-05
-1.42243e-05
-1.3019e-05
-1.19079e-05
-1.08842e-05
-9.9416e-06
-9.07403e-06
-8.27603e-06
-7.54237e-06
-6.86826e-06
-6.24913e-06
-5.68082e-06
-5.15933e-06
-4.68108e-06
-4.24255e-06
-3.84064e-06
-3.47229e-06
-3.13482e-06
-2.82556e-06
-2.54219e-06
-2.28236e-06
-2.0441e-06
-1.82531e-06
-1.62433e-06
-1.43925e-06
-1.26868e-06
-1.11085e-06
-9.64578e-07
-8.28225e-07
-7.00751e-07
-5.80588e-07
-4.66836e-07
-3.57914e-07
-2.5307e-07
-1.50751e-07
-5.0434e-08
0.000449446
0.00041607
0.000373441
0.000328901
0.000283284
0.000232095
0.000175261
0.000118318
6.61365e-05
1.89512e-05
-2.63168e-05
-6.92514e-05
-0.000104448
-0.000131401
-0.000156129
-0.000179319
-0.000196244
-0.000208179
-0.00021993
-0.000230209
-0.000235867
-0.000238943
-0.000241823
-0.000242737
-0.000240393
-0.000236625
-0.000232545
-0.000227009
-0.000219457
-0.000210901
-0.000202069
-0.000192735
-0.00018275
-0.000172478
-0.000162281
-0.000152246
-0.000142398
-0.000132839
-0.000123676
-0.000114958
-0.000106701
-9.89158e-05
-9.16104e-05
-8.47796e-05
-7.84091e-05
-7.248e-05
-6.69707e-05
-6.18576e-05
-5.71159e-05
-5.27208e-05
-4.86481e-05
-4.48749e-05
-4.13793e-05
-3.81413e-05
-3.51421e-05
-3.23646e-05
-2.97926e-05
-2.74116e-05
-2.5208e-05
-2.31691e-05
-2.12835e-05
-1.95402e-05
-1.79291e-05
-1.64411e-05
-1.50673e-05
-1.37996e-05
-1.26304e-05
-1.15526e-05
-1.05595e-05
-9.6451e-06
-8.80351e-06
-8.02938e-06
-7.31768e-06
-6.66373e-06
-6.06312e-06
-5.51181e-06
-5.00591e-06
-4.54196e-06
-4.11653e-06
-3.72663e-06
-3.36928e-06
-3.04189e-06
-2.74186e-06
-2.46694e-06
-2.21487e-06
-1.98372e-06
-1.77146e-06
-1.57648e-06
-1.39692e-06
-1.23143e-06
-1.0783e-06
-9.36383e-07
-8.04085e-07
-6.80386e-07
-5.63772e-07
-4.53358e-07
-3.47619e-07
-2.45807e-07
-1.46439e-07
-4.89942e-08
0.000408344
0.000379474
0.000341554
0.000300869
0.000260138
0.000216091
0.000167064
0.000116808
6.99312e-05
2.74919e-05
-1.28746e-05
-5.198e-05
-8.57771e-05
-0.000111998
-0.000134996
-0.000157267
-0.000175024
-0.000187279
-0.000198203
-0.000208491
-0.000215181
-0.000218771
-0.000221764
-0.000223431
-0.000222132
-0.000218975
-0.000215442
-0.000210911
-0.000204557
-0.000197018
-0.000189133
-0.000180861
-0.000171981
-0.000162725
-0.000153456
-0.000144302
-0.00013528
-0.000126469
-0.000117974
-0.000109853
-0.000102128
-9.48142e-05
-8.79237e-05
-8.14579e-05
-7.54087e-05
-6.97625e-05
-6.45027e-05
-5.96105e-05
-5.50652e-05
-5.08455e-05
-4.69304e-05
-4.32993e-05
-3.99329e-05
-3.68125e-05
-3.39209e-05
-3.1242e-05
-2.87607e-05
-2.64632e-05
-2.43365e-05
-2.23687e-05
-2.05486e-05
-1.88658e-05
-1.73106e-05
-1.58741e-05
-1.45478e-05
-1.3324e-05
-1.21952e-05
-1.11546e-05
-1.01959e-05
-9.31306e-06
-8.50054e-06
-7.75315e-06
-7.06602e-06
-6.43464e-06
-5.85476e-06
-5.32247e-06
-4.83402e-06
-4.38606e-06
-3.9753e-06
-3.59885e-06
-3.25382e-06
-2.93771e-06
-2.64801e-06
-2.38257e-06
-2.13918e-06
-1.91599e-06
-1.71104e-06
-1.52277e-06
-1.34939e-06
-1.18959e-06
-1.04174e-06
-9.04687e-07
-7.7693e-07
-6.57461e-07
-5.44828e-07
-4.3816e-07
-3.35999e-07
-2.37604e-07
-1.41563e-07
-4.73649e-08
0.000369841
0.00034478
0.000311576
0.000274823
0.000238118
0.000199799
0.000157647
0.000113726
7.18508e-05
3.35225e-05
-2.54896e-06
-3.74916e-05
-6.90537e-05
-9.46354e-05
-0.000116377
-0.000137074
-0.000154633
-0.000167216
-0.000177687
-0.000187775
-0.000195228
-0.000199361
-0.000202296
-0.00020434
-0.000204011
-0.000201615
-0.000198593
-0.00019488
-0.000189638
-0.00018311
-0.0001761
-0.000168778
-0.000160932
-0.000152663
-0.000144291
-0.000135983
-0.000127767
-0.000119698
-0.000111871
-0.000104352
-9.71696e-05
-9.03421e-05
-8.38843e-05
-7.78029e-05
-7.20953e-05
-6.67528e-05
-6.17633e-05
-5.7112e-05
-5.27823e-05
-4.87562e-05
-4.50157e-05
-4.15429e-05
-3.83202e-05
-3.53311e-05
-3.25595e-05
-2.99907e-05
-2.76107e-05
-2.54064e-05
-2.33657e-05
-2.1477e-05
-1.973e-05
-1.81146e-05
-1.66217e-05
-1.52426e-05
-1.39693e-05
-1.27942e-05
-1.17105e-05
-1.07114e-05
-9.79088e-06
-8.94322e-06
-8.16306e-06
-7.44544e-06
-6.78566e-06
-6.17942e-06
-5.62261e-06
-5.1115e-06
-4.64249e-06
-4.21234e-06
-3.81792e-06
-3.45642e-06
-3.12511e-06
-2.82156e-06
-2.54338e-06
-2.28848e-06
-2.05476e-06
-1.84044e-06
-1.64363e-06
-1.46283e-06
-1.29634e-06
-1.14288e-06
-1.00089e-06
-8.69267e-07
-7.46569e-07
-6.31815e-07
-5.23622e-07
-4.21137e-07
-3.22974e-07
-2.28404e-07
-1.36092e-07
-4.55367e-08
0.000333873
0.000311854
0.000283093
0.000250368
0.000217237
0.000183573
0.000147374
0.000109232
7.19995e-05
3.75174e-05
5.35474e-06
-2.56667e-05
-5.46605e-05
-7.92323e-05
-9.97081e-05
-0.000118541
-0.00013538
-0.000148373
-0.000158695
-0.000168206
-0.000175814
-0.00018043
-0.000183434
-0.000185691
-0.000186171
-0.00018459
-0.000182061
-0.000178967
-0.000174686
-0.000169143
-0.000162978
-0.000156514
-0.000149621
-0.000142299
-0.000134795
-0.0001273
-0.000119864
-0.000112526
-0.000105366
-9.84525e-05
-9.1822e-05
-8.5494e-05
-7.94854e-05
-7.38069e-05
-6.84606e-05
-6.3442e-05
-5.8743e-05
-5.43526e-05
-5.02577e-05
-4.64437e-05
-4.28953e-05
-3.95968e-05
-3.65331e-05
-3.36891e-05
-3.10506e-05
-2.86039e-05
-2.63361e-05
-2.42352e-05
-2.22896e-05
-2.04889e-05
-1.88228e-05
-1.72822e-05
-1.58582e-05
-1.45427e-05
-1.33281e-05
-1.22072e-05
-1.11733e-05
-1.02202e-05
-9.34202e-06
-8.53333e-06
-7.78903e-06
-7.10437e-06
-6.47491e-06
-5.89651e-06
-5.36527e-06
-4.87761e-06
-4.43013e-06
-4.01972e-06
-3.64339e-06
-3.29848e-06
-2.98236e-06
-2.69273e-06
-2.42731e-06
-2.1841e-06
-1.96109e-06
-1.75659e-06
-1.5688e-06
-1.39628e-06
-1.23742e-06
-1.09099e-06
-9.55504e-07
-8.29899e-07
-7.1281e-07
-6.03286e-07
-5.00021e-07
-4.02181e-07
-3.08464e-07
-2.18149e-07
-1.29995e-07
-4.3505e-08
0.000293886
0.000274788
0.000250698
0.000222716
0.000193744
0.000164776
0.000134478
0.00010247
7.05545e-05
4.05009e-05
1.24e-05
-1.45761e-05
-4.01877e-05
-6.27291e-05
-8.16969e-05
-9.87862e-05
-0.00011456
-0.000127484
-0.000137438
-0.000146065
-0.000153487
-0.000158646
-0.000161935
-0.000164313
-0.000165402
-0.00016467
-0.00016275
-0.000160269
-0.000156943
-0.0001525
-0.000147314
-0.000141787
-0.000135918
-0.000129653
-0.000123141
-0.000116574
-0.000110029
-0.00010354
-9.71662e-05
-9.09735e-05
-8.50044e-05
-7.92817e-05
-7.38234e-05
-6.86433e-05
-6.37477e-05
-5.91367e-05
-5.48062e-05
-5.07492e-05
-4.69562e-05
-4.34161e-05
-4.01168e-05
-3.70455e-05
-3.41892e-05
-3.15352e-05
-2.90709e-05
-2.67842e-05
-2.46637e-05
-2.26984e-05
-2.08778e-05
-1.91923e-05
-1.76325e-05
-1.619e-05
-1.48565e-05
-1.36246e-05
-1.24869e-05
-1.1437e-05
-1.04686e-05
-9.57574e-06
-8.75308e-06
-7.99551e-06
-7.29823e-06
-6.65683e-06
-6.06711e-06
-5.52523e-06
-5.02752e-06
-4.57064e-06
-4.15139e-06
-3.76687e-06
-3.41428e-06
-3.09112e-06
-2.79494e-06
-2.52357e-06
-2.27488e-06
-2.047e-06
-1.83805e-06
-1.64643e-06
-1.47048e-06
-1.30884e-06
-1.15999e-06
-1.02277e-06
-8.95818e-07
-7.78108e-07
-6.68383e-07
-5.65725e-07
-4.68936e-07
-3.77201e-07
-2.89334e-07
-2.04621e-07
-1.21944e-07
-4.08125e-08
0.000250286
0.000233952
0.000214369
0.000191619
0.000167495
0.000143301
0.000118612
9.28112e-05
6.66332e-05
4.13881e-05
1.76171e-05
-4.98462e-06
-2.657e-05
-4.63708e-05
-6.36415e-05
-7.8892e-05
-9.27315e-05
-0.000104551
-0.000113988
-0.000121962
-0.000128939
-0.000134236
-0.000137726
-0.000140121
-0.000141541
-0.000141573
-0.000140405
-0.000138577
-0.000136106
-0.000132749
-0.000128645
-0.000124132
-0.000119324
-0.00011418
-0.000108771
-0.000103246
-9.77023e-05
-9.21773e-05
-8.67148e-05
-8.1371e-05
-7.61897e-05
-7.11972e-05
-6.64121e-05
-6.18496e-05
-5.75193e-05
-5.34252e-05
-4.95667e-05
-4.59406e-05
-4.25412e-05
-3.93608e-05
-3.63904e-05
-3.36203e-05
-3.10403e-05
-2.86399e-05
-2.64088e-05
-2.43368e-05
-2.24139e-05
-2.06307e-05
-1.89781e-05
-1.74476e-05
-1.60309e-05
-1.47203e-05
-1.35085e-05
-1.23889e-05
-1.13549e-05
-1.04004e-05
-9.52003e-06
-8.70832e-06
-7.96037e-06
-7.27156e-06
-6.63756e-06
-6.05434e-06
-5.51811e-06
-5.02536e-06
-4.57277e-06
-4.1573e-06
-3.77604e-06
-3.42636e-06
-3.10572e-06
-2.81183e-06
-2.54247e-06
-2.29568e-06
-2.0695e-06
-1.86225e-06
-1.67222e-06
-1.49795e-06
-1.33793e-06
-1.19091e-06
-1.05553e-06
-9.30725e-07
-8.15256e-07
-7.08183e-07
-6.0837e-07
-5.14971e-07
-4.26906e-07
-3.43416e-07
-2.63442e-07
-1.86312e-07
-1.11036e-07
-3.71589e-08
0.000207201
0.000193467
0.000177768
0.000159871
0.000140615
0.000121032
0.000101253
8.08765e-05
6.00914e-05
3.97066e-05
2.02658e-05
1.7012e-06
-1.61191e-05
-3.27713e-05
-4.75961e-05
-6.06118e-05
-7.23348e-05
-8.27407e-05
-9.14532e-05
-9.86723e-05
-0.000104803
-0.000109702
-0.000113196
-0.000115604
-0.00011716
-0.000117688
-0.000117175
-0.000115944
-0.000114158
-0.000111713
-0.000108622
-0.000105095
-0.000101281
-9.71928e-05
-9.28605e-05
-8.83813e-05
-8.38458e-05
-7.93011e-05
-7.47824e-05
-7.03327e-05
-6.5992e-05
-6.17876e-05
-5.77384e-05
-5.38596e-05
-5.01622e-05
-4.66526e-05
-4.33333e-05
-4.02038e-05
-3.72615e-05
-3.45016e-05
-3.19184e-05
-2.95046e-05
-2.72527e-05
-2.51547e-05
-2.32023e-05
-2.13873e-05
-1.97016e-05
-1.81373e-05
-1.66868e-05
-1.53428e-05
-1.40983e-05
-1.29467e-05
-1.18818e-05
-1.08975e-05
-9.98843e-06
-9.14924e-06
-8.37503e-06
-7.66118e-06
-7.00336e-06
-6.39752e-06
-5.83986e-06
-5.32686e-06
-4.85516e-06
-4.42171e-06
-4.02357e-06
-3.65808e-06
-3.32267e-06
-3.01505e-06