/*--------------------------------*- C++ -*----------------------------------*\
| =========                 |                                                 |
| \\      /  F ield         | OpenFOAM: The Open Source CFD Toolbox           |
|  \\    /   O peration     | Version:  2.3.0                                 |
|   \\  /    A nd           | Web:      www.OpenFOAM.org                      |
|    \\/     M anipulation  |                                                 |
\*---------------------------------------------------------------------------*/
FoamFile
{
    version     2.0;
    format      ascii;
    class       volScalarField;
    location    "0.45";
    object      p;
}
// * * * * * * * * * * * * * * * * * * * * * * * * * * * * * * * * * * * * * //

dimensions      [0 2 -2 0 0 0 0];

internalField   nonuniform List<scalar> 
2250
(
0.00158023
0.00129878
0.00106865
0.000916476
0.000801037
0.000697134
0.000598872
0.000505879
0.000417515
0.000332847
0.000251324
0.000172855
9.76264e-05
2.59606e-05
-4.17423e-05
-0.000105043
-0.000163499
-0.000216698
-0.000264291
-0.000306019
-0.000341729
-0.000371386
-0.000395083
-0.00041303
-0.00042555
-0.000433059
-0.000436048
-0.000435057
-0.000430656
-0.000423416
-0.000413893
-0.00040261
-0.000390047
-0.000376627
-0.000362715
-0.000348618
-0.000334584
-0.000320809
-0.000307438
-0.000294577
-0.000282296
-0.000270633
-0.000259606
-0.000249215
-0.000239446
-0.000230277
-0.000221679
-0.000213621
-0.000206072
-0.000198997
-0.000192367
-0.000186151
-0.000180324
-0.000174859
-0.000169733
-0.000164927
-0.000160422
-0.000156199
-0.000152244
-0.00014854
-0.000145075
-0.000141834
-0.000138804
-0.000135973
-0.000133326
-0.000130852
-0.000128535
-0.000126364
-0.000124322
-0.000122396
-0.00012057
-0.000118827
-0.000117152
-0.000115525
-0.000113929
-0.000112345
-0.00011075
-0.000109125
-0.000107447
-0.000105691
-0.000103833
-0.000101847
-9.97033e-05
-9.73729e-05
-9.48236e-05
-9.20217e-05
-8.89319e-05
-8.55178e-05
-8.17422e-05
-7.75689e-05
-7.29634e-05
-6.78939e-05
-6.23328e-05
-5.62563e-05
-4.9644e-05
-4.24753e-05
-3.4722e-05
-2.6331e-05
-1.71925e-05
-7.29128e-06
0.00128947
0.00113735
0.000991845
0.000878457
0.000782316
0.000690544
0.000600465
0.000512832
0.00042797
0.000345668
0.0002658
0.00018851
0.000114118
4.30343e-05
-2.42897e-05
-8.73822e-05
-0.000145779
-0.000199053
-0.000246843
-0.000288878
-0.000324991
-0.000355138
-0.000379397
-0.000397966
-0.000411153
-0.000419364
-0.000423075
-0.000422817
-0.000419148
-0.000412632
-0.000403816
-0.00039322
-0.000381315
-0.000368522
-0.000355204
-0.000341666
-0.000328154
-0.000314864
-0.000301942
-0.000289494
-0.000277591
-0.000266274
-0.000255563
-0.000245459
-0.000235952
-0.000227021
-0.00021864
-0.000210781
-0.000203413
-0.000196505
-0.000190027
-0.000183952
-0.000178253
-0.000172908
-0.000167893
-0.00016319
-0.00015878
-0.000154647
-0.000150775
-0.00014715
-0.000143759
-0.000140588
-0.000137624
-0.000134854
-0.000132267
-0.000129849
-0.000127587
-0.000125467
-0.000123475
-0.000121597
-0.000119817
-0.000118119
-0.000116488
-0.000114904
-0.00011335
-0.000111806
-0.000110252
-0.000108666
-0.000107027
-0.00010531
-0.00010349
-0.000101542
-9.9436e-05
-9.71432e-05
-9.46315e-05
-9.18673e-05
-8.8815e-05
-8.54382e-05
-8.16997e-05
-7.7563e-05
-7.29931e-05
-6.79579e-05
-6.24293e-05
-5.63833e-05
-4.97988e-05
-4.26548e-05
-3.4923e-05
-2.65459e-05
-1.73833e-05
-7.86576e-06
0.00113961
0.00105188
0.00094458
0.000843661
0.00075143
0.000663399
0.000577693
0.000494526
0.000414133
0.00033637
0.000261078
0.000188288
0.000118202
5.11254e-05
-1.2574e-05
-7.24926e-05
-0.000128218
-0.000179355
-0.000225558
-0.00026655
-0.000302145
-0.00033226
-0.000356922
-0.000376268
-0.000390537
-0.000400061
-0.000405246
-0.000406554
-0.000404482
-0.000399539
-0.000392232
-0.000383045
-0.000372429
-0.000360789
-0.000348485
-0.000335822
-0.000323055
-0.000310389
-0.000297985
-0.000285961
-0.000274404
-0.000263367
-0.000252883
-0.000242963
-0.000233606
-0.000224799
-0.000216523
-0.000208753
-0.000201465
-0.000194629
-0.00018822
-0.00018221
-0.000176575
-0.000171291
-0.000166338
-0.000161696
-0.000157347
-0.000153274
-0.000149461
-0.000145895
-0.000142561
-0.000139446
-0.000136537
-0.000133822
-0.000131287
-0.00012892
-0.000126707
-0.000124635
-0.00012269
-0.000120857
-0.000119121
-0.000117466
-0.000115875
-0.000114331
-0.000112815
-0.000111309
-0.000109791
-0.00010824
-0.000106635
-0.000104951
-0.000103164
-0.000101247
-9.91726e-05
-9.69102e-05
-9.44284e-05
-9.16933e-05
-8.86696e-05
-8.53206e-05
-8.16091e-05
-7.74985e-05
-7.29538e-05
-6.79429e-05
-6.2438e-05
-5.64152e-05
-4.98548e-05
-4.27381e-05
-3.50417e-05
-2.67243e-05
-1.77559e-05
-9.17603e-06
0.000992636
0.000933712
0.000854346
0.000772362
0.000693624
0.000617294
0.000542197
0.000468328
0.000396009
0.000325391
0.000256548
0.000189632
0.000124903
6.26904e-05
3.3671e-06
-5.26762e-05
-0.000105048
-0.000153375
-0.000197329
-0.000236641
-0.000271118
-0.000300657
-0.000325251
-0.000344988
-0.00036005
-0.000370703
-0.000377282
-0.00038018
-0.000379826
-0.000376667
-0.000371157
-0.000363734
-0.000354814
-0.000344777
-0.000333964
-0.00032267
-0.000311146
-0.000299599
-0.000288194
-0.000277056
-0.000266281
-0.000255934
-0.000246055
-0.000236667
-0.000227778
-0.000219384
-0.000211474
-0.000204031
-0.000197034
-0.000190461
-0.000184288
-0.000178494
-0.000173056
-0.000167953
-0.000163167
-0.000158679
-0.000154473
-0.000150533
-0.000146845
-0.000143395
-0.00014017
-0.000137157
-0.000134345
-0.000131721
-0.000129273
-0.000126988
-0.000124853
-0.000122855
-0.000120981
-0.000119216
-0.000117545
-0.000115953
-0.000114423
-0.000112938
-0.00011148
-0.00011003
-0.000108567
-0.000107071
-0.00010552
-0.000103889
-0.000102155
-0.00010029
-9.82681e-05
-9.60579e-05
-9.36284e-05
-9.09459e-05
-8.7975e-05
-8.46793e-05
-8.10217e-05
-7.69656e-05
-7.24762e-05
-6.75219e-05
-6.20752e-05
-5.61136e-05
-4.96197e-05
-4.25805e-05
-3.49875e-05
-2.68484e-05
-1.83416e-05
-1.11671e-05
0.000866944
0.000826545
0.000770218
0.000707101
0.000642113
0.000576495
0.000510426
0.000444335
0.000378803
0.000314273
0.000251053
0.000189423
0.000129688
7.21827e-05
1.72552e-05
-3.47427e-05
-8.34668e-05
-0.000128594
-0.000169837
-0.00020696
-0.000239789
-0.000268224
-0.000292243
-0.000311906
-0.000327349
-0.000338784
-0.000346482
-0.000350768
-0.000352
-0.000350561
-0.000346841
-0.000341224
-0.00033408
-0.000325752
-0.000316553
-0.00030676
-0.000296612
-0.000286312
-0.000276023
-0.00026588
-0.000255983
-0.000246407
-0.000237205
-0.000228411
-0.000220043
-0.000212108
-0.000204604
-0.000197521
-0.000190848
-0.000184566
-0.00017866
-0.000173109
-0.000167896
-0.000163004
-0.000158414
-0.00015411
-0.000150078
-0.000146303
-0.00014277
-0.000139468
-0.000136384
-0.000133506
-0.000130821
-0.000128317
-0.000125984
-0.000123808
-0.000121778
-0.00011988
-0.000118101
-0.000116427
-0.000114843
-0.000113335
-0.000111886
-0.000110479
-0.000109097
-0.00010772
-0.000106329
-0.000104903
-0.000103421
-0.000101859
-0.000100192
-9.83949e-05
-9.64399e-05
-9.42974e-05
-9.19361e-05
-8.93228e-05
-8.64227e-05
-8.31998e-05
-7.96178e-05
-7.56408e-05
-7.12351e-05
-6.63702e-05
-6.10202e-05
-5.51655e-05
-4.87938e-05
-4.19033e-05
-3.4514e-05
-2.67136e-05
-1.89141e-05
-1.3238e-05
0.000757554
0.000728046
0.000686679
0.000637559
0.000584071
0.00052818
0.000470879
0.000412872
0.000354795
0.000297167
0.000240393
0.000184812
0.000130754
7.85499e-05
2.85305e-05
-1.89774e-05
-6.36601e-05
-0.000105226
-0.000143416
-0.000178015
-0.000208861
-0.000235851
-0.000258951
-0.000278193
-0.000293675
-0.00030556
-0.000314062
-0.000319443
-0.000322001
-0.000322054
-0.000319934
-0.000315972
-0.000310491
-0.000303797
-0.000296171
-0.000287868
-0.000279113
-0.000270098
-0.000260986
-0.000251908
-0.000242972
-0.000234258
-0.000225827
-0.000217721
-0.000209967
-0.000202582
-0.00019557
-0.000188931
-0.000182658
-0.000176741
-0.000171167
-0.000165922
-0.000160991
-0.000156359
-0.000152012
-0.000147936
-0.000144116
-0.000140539
-0.000137194
-0.000134068
-0.00013115
-0.000128427
-0.00012589
-0.000123526
-0.000121324
-0.000119272
-0.00011736
-0.000115573
-0.0001139
-0.000112327
-0.00011084
-0.000109425
-0.000108065
-0.000106744
-0.000105445
-0.00010415
-0.00010284
-0.000101494
-0.00010009
-9.8607e-05
-9.70198e-05
-9.53031e-05
-9.34299e-05
-9.13711e-05
-8.90962e-05
-8.65727e-05
-8.37667e-05
-8.06433e-05
-7.71674e-05
-7.33046e-05
-6.90227e-05
-6.42931e-05
-5.90928e-05
-5.34062e-05
-4.72286e-05
-4.05747e-05
-3.35009e-05
-2.61787e-05
-1.91761e-05
-1.45892e-05
0.000660225
0.000637407
0.000606043
0.000567754
0.000524503
0.000478012
0.000429437
0.000379567
0.00032904
0.000278404
0.000228122
0.000178594
0.000130182
8.32318e-05
3.80729e-05
-4.98004e-06
-4.56327e-05
-8.36158e-05
-0.000118692
-0.000150665
-0.000179381
-0.000204742
-0.000226702
-0.000245274
-0.000260526
-0.000272579
-0.000281602
-0.000287805
-0.000291428
-0.000292736
-0.000292005
-0.000289519
-0.000285554
-0.000280377
-0.000274239
-0.00026737
-0.000259974
-0.000252231
-0.000244298
-0.000236302
-0.000228352
-0.000220531
-0.000212906
-0.000205525
-0.000198422
-0.000191622
-0.000185136
-0.000178972
-0.000173128
-0.000167601
-0.000162382
-0.000157463
-0.000152832
-0.000148477
-0.000144387
-0.000140549
-0.000136953
-0.000133586
-0.000130436
-0.000127494
-0.000124748
-0.000122188
-0.000119803
-0.000117582
-0.000115515
-0.000113591
-0.000111798
-0.000110125
-0.000108559
-0.000107088
-0.000105697
-0.000104374
-0.000103102
-0.000101867
-0.000100651
-9.94377e-05
-9.82071e-05
-9.69403e-05
-9.56162e-05
-9.4213e-05
-9.27073e-05
-9.10742e-05
-8.92874e-05
-8.73188e-05
-8.51389e-05
-8.27163e-05
-8.00186e-05
-7.70125e-05
-7.36646e-05
-6.99426e-05
-6.58166e-05
-6.12608e-05
-5.62558e-05
-5.07915e-05
-4.48732e-05
-3.85335e-05
-3.18639e-05
-2.5092e-05
-1.8805e-05
-1.46636e-05
0.000571858
0.000553621
0.000529304
0.000499307
0.000464593
0.000426405
0.000385779
0.000343489
0.000300153
0.000256314
0.000212447
0.000168969
0.000126253
8.46423e-05
4.44549e-05
5.98748e-06
-3.0487e-05
-6.47221e-05
-9.65013e-05
-0.000125643
-0.000152007
-0.000175493
-0.000196051
-0.000213675
-0.000228407
-0.000240335
-0.000249586
-0.000256323
-0.000260739
-0.000263046
-0.000263472
-0.000262254
-0.000259625
-0.000255816
-0.000251044
-0.000245512
-0.000239405
-0.000232889
-0.000226107
-0.000219185
-0.000212226
-0.000205315
-0.000198521
-0.000191897
-0.000185483
-0.000179308
-0.000173391
-0.000167743
-0.000162371
-0.000157274
-0.00015245
-0.000147893
-0.000143597
-0.000139552
-0.000135749
-0.000132179
-0.000128831
-0.000125696
-0.000122764
-0.000120024
-0.000117468
-0.000115085
-0.000112865
-0.0001108
-0.000108878
-0.000107089
-0.000105423
-0.000103868
-0.000102414
-0.000101047
-9.9756e-05
-9.85264e-05
-9.73443e-05
-9.61948e-05
-9.50618e-05
-9.39286e-05
-9.27774e-05
-9.15893e-05
-9.03443e-05
-8.90212e-05
-8.75974e-05
-8.60492e-05
-8.43512e-05
-8.24764e-05
-8.03965e-05
-7.80818e-05
-7.55013e-05
-7.26238e-05
-6.94179e-05
-6.58539e-05
-6.19046e-05
-5.75473e-05
-5.2767e-05
-4.756e-05
-4.19418e-05
-3.59618e-05
-2.97348e-05
-2.3502e-05
-1.77501e-05
-1.35211e-05
0.000490508
0.000475677
0.00045654
0.000432921
0.000405201
0.000374205
0.000340756
0.000305519
0.000269042
0.000231813
0.000194272
0.000156817
0.000119806
8.3564e-05
4.83924e-05
1.4568e-05
-1.76567e-05
-4.80547e-05
-7.64271e-05
-0.000102606
-0.000126458
-0.000147886
-0.000166831
-0.000183275
-0.000197239
-0.00020878
-0.00021799
-0.000224994
-0.000229939
-0.000232995
-0.000234347
-0.000234186
-0.000232707
-0.000230104
-0.000226564
-0.000222262
-0.000217363
-0.000212013
-0.000206346
-0.000200477
-0.000194504
-0.000188512
-0.000182567
-0.000176726
-0.000171032
-0.000165516
-0.000160204
-0.00015511
-0.000150246
-0.000145615
-0.000141221
-0.00013706
-0.000133129
-0.000129422
-0.000125933
-0.000122653
-0.000119576
-0.000116693
-0.000113995
-0.000111473
-0.00010912
-0.000106926
-0.000104883
-0.00010298
-0.000101211
-9.95632e-05
-9.80286e-05
-9.65963e-05
-9.52556e-05
-9.39951e-05
-9.28029e-05
-9.16663e-05
-9.0572e-05
-8.95057e-05
-8.84526e-05
-8.73966e-05
-8.63209e-05
-8.52077e-05
-8.40379e-05
-8.27914e-05
-8.14468e-05
-7.99816e-05
-7.83716e-05
-7.65915e-05
-7.46144e-05
-7.24127e-05
-6.99575e-05
-6.72196e-05
-6.41705e-05
-6.07829e-05
-5.70327e-05
-5.29007e-05
-4.83761e-05
-4.34611e-05
-3.81796e-05
-3.25911e-05
-2.6816e-05
-2.10678e-05
-1.5684e-05
-1.12245e-05
0.000414689
0.000402565
0.000387414
0.000368809
0.000346818
0.000321967
0.000294859
0.000266014
0.000235883
0.000204877
0.000173381
0.000141748
0.000110304
7.93481e-05
4.91535e-05
1.99725e-05
-7.96588e-06
-3.44561e-05
-5.93178e-05
-8.23975e-05
-0.000103571
-0.000122744
-0.000139856
-0.000154877
-0.00016781
-0.00017869
-0.00018758
-0.00019457
-0.000199771
-0.000203315
-0.000205345
-0.000206016
-0.000205486
-0.000203913
-0.000201455
-0.000198261
-0.000194471
-0.000190216
-0.000185612
-0.000180765
-0.000175766
-0.000170692
-0.000165612
-0.000160578
-0.000155635
-0.000150818
-0.000146153
-0.000141659
-0.000137351
-0.000133236
-0.00012932
-0.000125603
-0.000122085
-0.000118764
-0.000115634
-0.00011269
-0.000109927
-0.000107337
-0.000104914
-0.000102651
-0.00010054
-9.85728e-05
-9.67423e-05
-9.50401e-05
-9.34579e-05
-9.19869e-05
-9.06181e-05
-8.93419e-05
-8.81484e-05
-8.70269e-05
-8.59663e-05
-8.49548e-05
-8.39797e-05
-8.30278e-05
-8.20847e-05
-8.11354e-05
-8.01638e-05
-7.91527e-05
-7.80838e-05
-7.69379e-05
-7.56943e-05
-7.4331e-05
-7.28249e-05
-7.11513e-05
-6.92846e-05
-6.71977e-05
-6.48631e-05
-6.2253e-05
-5.93398e-05
-5.60978e-05
-5.25045e-05
-4.85424e-05
-4.42034e-05
-3.94929e-05
-3.44384e-05
-2.91007e-05
-2.3588e-05
-1.80651e-05
-1.27488e-05
-8.0829e-06
0.000358693
0.00034839
0.00033577
0.000320367
0.000302136
0.000281443
0.000258744
0.000234449
0.000208926
0.00018252
0.000155564
0.000128368
0.000101221
7.43904e-05
4.81239e-05
2.26482e-05
-1.83021e-06
-2.51259e-05
-4.70757e-05
-6.75402e-05
-8.64049e-05
-0.000103582
-0.00011901
-0.000132656
-0.000144515
-0.000154606
-0.000162975
-0.000169691
-0.00017484
-0.000178528
-0.00018087
-0.000181993
-0.00018203
-0.000181112
-0.000179373
-0.000176942
-0.000173939
-0.000170479
-0.000166666
-0.000162594
-0.000158347
-0.000153996
-0.000149604
-0.000145222
-0.000140894
-0.000136654
-0.000132529
-0.00012854
-0.000124702
-0.000121026
-0.000117517
-0.000114181
-0.000111017
-0.000108025
-0.000105201
-0.000102543
-0.000100046
-9.77038e-05
-9.55115e-05
-9.34626e-05
-9.15508e-05
-8.97693e-05
-8.81111e-05
-8.6569e-05
-8.51355e-05
-8.38028e-05
-8.25625e-05
-8.14061e-05
-8.03246e-05
-7.93083e-05
-7.8347e-05
-7.74299e-05
-7.65457e-05
-7.5682e-05
-7.48258e-05
-7.39632e-05
-7.30796e-05
-7.2159e-05
-7.11848e-05
-7.01391e-05
-6.90028e-05
-6.77557e-05
-6.63764e-05
-6.48422e-05
-6.31295e-05
-6.12134e-05
-5.90686e-05
-5.66697e-05
-5.39915e-05
-5.10106e-05
-4.77063e-05
-4.40633e-05
-4.00738e-05
-3.57427e-05
-3.10931e-05
-2.61743e-05
-2.10694e-05
-1.5897e-05
-1.08135e-05
-6.24812e-06
0.000316346
0.000307347
0.000296476
0.000283282
0.000267676
0.000249929
0.000230403
0.00020943
0.000187317
0.000164361
0.00014085
0.000117058
9.32423e-05
6.9644e-05
4.64854e-05
2.39711e-05
2.28758e-06
-1.83978e-05
-3.79376e-05
-5.6206e-05
-7.30989e-05
-8.85355e-05
-0.000102458
-0.000114835
-0.000125654
-0.00013493
-0.000142697
-0.000149009
-0.000153938
-0.000157569
-0.00016
-0.000161338
-0.000161692
-0.000161179
-0.000159911
-0.000157999
-0.00015555
-0.000152665
-0.000149435
-0.000145945
-0.00014227
-0.000138475
-0.00013462
-0.000130751
-0.00012691
-0.000123129
-0.000119436
-0.000115852
-0.000112391
-0.000109066
-0.000105884
-0.00010285
-9.99651e-05
-9.72305e-05
-9.46444e-05
-9.22043e-05
-8.99065e-05
-8.77468e-05
-8.57202e-05
-8.38214e-05
-8.20447e-05
-8.03841e-05
-7.88335e-05
-7.73863e-05
-7.60356e-05
-7.47744e-05
-7.35953e-05
-7.24906e-05
-7.14521e-05
-7.04711e-05
-6.95388e-05
-6.86454e-05
-6.77809e-05
-6.69344e-05
-6.60946e-05
-6.52494e-05
-6.4386e-05
-6.34907e-05
-6.25492e-05
-6.15462e-05
-6.04656e-05
-5.92902e-05
-5.80024e-05
-5.65834e-05
-5.50139e-05
-5.3274e-05
-5.13439e-05
-4.92039e-05
-4.68352e-05
-4.42211e-05
-4.13475e-05
-3.82051e-05
-3.47908e-05
-3.11097e-05
-2.71781e-05
-2.30242e-05
-1.86879e-05
-1.42154e-05
-9.65859e-06
-5.15106e-06
0.000272888
0.000265139
0.000255891
0.000244743
0.000231592
0.000216636
0.000200153
0.000182409
0.000163651
0.000144125
0.000124073
0.000103727
8.33116e-05
6.30334e-05
4.30868e-05
2.36507e-05
4.88833e-06
-1.30537e-05
-3.0046e-05
-4.59778e-05
-6.07568e-05
-7.43107e-05
-8.6587e-05
-9.75536e-05
-0.000107198
-0.000115527
-0.000122566
-0.000128357
-0.000132955
-0.000136429
-0.000138858
-0.00014033
-0.000140935
-0.00014077
-0.000139929
-0.000138506
-0.000136592
-0.000134273
-0.000131629
-0.000128732
-0.000125651
-0.000122442
-0.000119158
-0.000115844
-0.000112536
-0.000109266
-0.000106058
-0.000102934
-9.99089e-05
-9.69943e-05
-9.41984e-05
-9.15268e-05
-8.89826e-05
-8.6567e-05
-8.42796e-05
-8.21189e-05
-8.00823e-05
-7.81664e-05
-7.63674e-05
-7.46808e-05
-7.31019e-05
-7.16256e-05
-7.02465e-05
-6.89589e-05
-6.77569e-05
-6.66344e-05
-6.55848e-05
-6.46013e-05
-6.36769e-05
-6.28039e-05
-6.19744e-05
-6.118e-05
-6.04118e-05
-5.96604e-05
-5.89157e-05
-5.8167e-05
-5.74033e-05
-5.66124e-05
-5.57817e-05
-5.48979e-05
-5.39468e-05
-5.29134e-05
-5.17823e-05
-5.05372e-05
-4.91614e-05
-4.76379e-05
-4.59498e-05
-4.40803e-05
-4.20141e-05
-3.9737e-05
-3.72378e-05
-3.45087e-05
-3.15462e-05
-2.83522e-05
-2.49337e-05
-2.13011e-05
-1.74639e-05
-1.34218e-05
-9.15202e-06
-4.58803e-06
0.000228123
0.000221653
0.000214015
0.000204872
0.000194119
0.000181896
0.000168414
0.000153872
0.000138466
0.000122388
0.000105836
8.89991e-05
7.20626e-05
5.52003e-05
3.85751e-05
2.2338e-05
6.62736e-06
-8.43236e-06
-2.27311e-05
-3.61739e-05
-4.86816e-05
-6.01914e-05
-7.06566e-05
-8.00475e-05
-8.83505e-05
-9.55675e-05
-0.000101716
-0.000106825
-0.00011094
-0.000114112
-0.000116404
-0.000117885
-0.000118628
-0.00011871
-0.000118208
-0.000117199
-0.000115758
-0.000113955
-0.000111859
-0.00010953
-0.000107026
-0.000104396
-0.000101685
-9.8933e-05
-9.61717e-05
-9.34296e-05
-9.07295e-05
-8.80903e-05
-8.55264e-05
-8.30494e-05
-8.06673e-05
-7.83861e-05
-7.62093e-05
-7.41387e-05
-7.21749e-05
-7.03171e-05
-6.85635e-05
-6.69118e-05
-6.53589e-05
-6.39013e-05
-6.25352e-05
-6.12563e-05
-6.006e-05
-5.89418e-05
-5.78964e-05
-5.69188e-05
-5.60033e-05
-5.51442e-05
-5.43354e-05
-5.35704e-05
-5.28426e-05
-5.21448e-05
-5.14693e-05
-5.08083e-05
-5.01532e-05
-4.9495e-05
-4.88243e-05
-4.8131e-05
-4.74045e-05
-4.66335e-05
-4.58063e-05
-4.49105e-05
-4.39333e-05
-4.28612e-05
-4.16808e-05
-4.03783e-05
-3.89399e-05
-3.73525e-05
-3.56039e-05
-3.36829e-05
-3.15807e-05
-2.92905e-05
-2.68083e-05
-2.41328e-05
-2.12641e-05
-1.82016e-05
-1.49392e-05
-1.1457e-05
-7.71314e-06
-3.64357e-06
0.000181794
0.000176635
0.000170598
0.000163418
0.000155002
0.000145446
0.0001349
0.000123513
0.000111428
9.87938e-05
8.5759e-05
7.2473e-05
5.90803e-05
4.57187e-05
3.25181e-05
1.95994e-05
7.07348e-06
-4.95923e-06
-1.64099e-05
-2.72016e-05
-3.72697e-05
-4.65625e-05
-5.50412e-05
-6.26799e-05
-6.94654e-05
-7.53967e-05
-8.04847e-05
-8.47508e-05
-8.82262e-05
-9.09502e-05
-9.29695e-05
-9.43361e-05
-9.5106e-05
-9.53381e-05
-9.5092e-05
-9.44277e-05
-9.34037e-05
-9.20762e-05
-9.04984e-05
-8.87199e-05
-8.67861e-05
-8.47382e-05
-8.26125e-05
-8.04413e-05
-7.82522e-05
-7.60686e-05
-7.39104e-05
-7.17936e-05
-6.97311e-05
-6.7733e-05
-6.58071e-05
-6.39586e-05
-6.21915e-05
-6.05078e-05
-5.89084e-05
-5.73932e-05
-5.59613e-05
-5.46109e-05
-5.334e-05
-5.21458e-05
-5.10255e-05
-4.99755e-05
-4.89925e-05
-4.80727e-05
-4.72119e-05
-4.6406e-05
-4.56506e-05
-4.49409e-05
-4.42721e-05
-4.36389e-05
-4.3036e-05
-4.24576e-05
-4.18975e-05
-4.13493e-05
-4.08063e-05
-4.02612e-05
-3.97064e-05
-3.91338e-05
-3.85349e-05
-3.79008e-05
-3.72222e-05
-3.64891e-05
-3.56915e-05
-3.48187e-05
-3.38602e-05
-3.28051e-05
-3.16429e-05
-3.03633e-05
-2.89568e-05
-2.74149e-05
-2.57303e-05
-2.38975e-05
-2.19122e-05
-1.97714e-05
-1.74719e-05
-1.50084e-05
-1.23691e-05
-9.5299e-06
-6.44782e-06
-3.04574e-06
0.000133549
0.000129757
0.000125347
0.00012013
0.000114036
0.000107125
9.94988e-05
9.12593e-05
8.25052e-05
7.33394e-05
6.3868e-05
5.41978e-05
4.44329e-05
3.46736e-05
2.50148e-05
1.55455e-05
6.34732e-06
-2.50541e-06
-1.09467e-05
-1.89193e-05
-2.63748e-05
-3.32741e-05
-3.95874e-05
-4.52945e-05
-5.0384e-05
-5.48538e-05
-5.87098e-05
-6.1966e-05
-6.46433e-05
-6.67688e-05
-6.83747e-05
-6.94974e-05
-7.01766e-05
-7.04539e-05
-7.03722e-05
-6.99743e-05
-6.93026e-05
-6.83981e-05
-6.72996e-05
-6.60436e-05
-6.46639e-05
-6.3191e-05
-6.16525e-05
-6.00725e-05
-5.84722e-05
-5.68697e-05
-5.52803e-05
-5.37167e-05
-5.21891e-05
-5.07056e-05
-4.92726e-05
-4.78946e-05
-4.6575e-05
-4.53157e-05
-4.41178e-05
-4.29815e-05
-4.19064e-05
-4.08915e-05
-3.99353e-05
-3.9036e-05
-3.81915e-05
-3.73993e-05
-3.66569e-05
-3.59616e-05
-3.53102e-05
-3.46998e-05
-3.41271e-05
-3.35884e-05
-3.30803e-05
-3.25988e-05
-3.21399e-05
-3.16993e-05
-3.12725e-05
-3.08547e-05
-3.04409e-05
-3.00258e-05
-2.96036e-05
-2.91686e-05
-2.87143e-05
-2.82343e-05
-2.77217e-05
-2.71693e-05
-2.65697e-05
-2.59153e-05
-2.51983e-05
-2.44111e-05
-2.3546e-05
-2.25957e-05
-2.15535e-05
-2.04132e-05
-1.91696e-05
-1.78182e-05
-1.63555e-05
-1.4778e-05
-1.30817e-05
-1.12599e-05
-9.30008e-06
-7.17966e-06
-4.86127e-06
-2.27907e-06
8.25883e-05
8.02378e-05
7.75154e-05
7.43099e-05
7.05775e-05
6.63521e-05
6.16923e-05
5.66568e-05
5.13039e-05
4.56946e-05
3.98925e-05
3.39619e-05
2.79662e-05
2.19667e-05
1.60215e-05
1.01854e-05
4.50884e-06
-9.62152e-07
-6.18665e-06
-1.1129e-05
-1.5759e-05
-2.0052e-05
-2.39893e-05
-2.75577e-05
-3.07496e-05
-3.35628e-05
-3.60003e-05
-3.80699e-05
-3.97834e-05
-4.11567e-05
-4.22088e-05
-4.29614e-05
-4.34381e-05
-4.36638e-05
-4.36644e-05
-4.34658e-05
-4.30939e-05
-4.25735e-05
-4.19287e-05
-4.1182e-05
-4.03541e-05
-3.94642e-05
-3.85295e-05
-3.75652e-05
-3.65848e-05
-3.55998e-05
-3.462e-05
-3.36535e-05
-3.27072e-05
-3.17864e-05
-3.08952e-05
-3.00369e-05
-2.92137e-05
-2.84271e-05
-2.7678e-05
-2.69667e-05
-2.62929e-05
-2.56563e-05
-2.5056e-05
-2.44909e-05
-2.39598e-05
-2.34612e-05
-2.29937e-05
-2.25554e-05
-2.21445e-05
-2.17592e-05
-2.13973e-05
-2.10567e-05
-2.07352e-05
-2.04303e-05
-2.01395e-05
-1.98602e-05
-1.95896e-05
-1.93247e-05
-1.90624e-05
-1.87993e-05
-1.8532e-05
-1.82569e-05
-1.797e-05
-1.76674e-05
-1.73447e-05
-1.69976e-05
-1.66216e-05
-1.6212e-05
-1.5764e-05
-1.5273e-05
-1.47343e-05
-1.41436e-05
-1.34966e-05
-1.27896e-05
-1.20193e-05
-1.11827e-05
-1.02773e-05
-9.30036e-06
-8.24832e-06
-7.11564e-06
-5.8927e-06
-4.5629e-06
-3.09949e-06
-1.45407e-06
2.83301e-05
2.75177e-05
2.65673e-05
2.54521e-05
2.41598e-05
2.27012e-05
2.10954e-05
1.93619e-05
1.75205e-05
1.55919e-05
1.35977e-05
1.15599e-05
9.5002e-06
7.43959e-06
5.39807e-06
3.39441e-06
1.44595e-06
-4.3156e-07
-2.22411e-06
-3.91952e-06
-5.50749e-06
-6.97969e-06
-8.32974e-06
-9.55322e-06
-1.06476e-05
-1.16122e-05
-1.24481e-05
-1.3158e-05
-1.3746e-05
-1.42175e-05
-1.4579e-05
-1.48378e-05
-1.50021e-05
-1.50803e-05
-1.50813e-05
-1.50138e-05
-1.48867e-05
-1.47085e-05
-1.44874e-05
-1.4231e-05
-1.39464e-05
-1.36404e-05
-1.33186e-05
-1.29865e-05
-1.26485e-05
-1.23088e-05
-1.19706e-05
-1.16369e-05
-1.131e-05
-1.09917e-05
-1.06836e-05
-1.03866e-05
-1.01017e-05
-9.82941e-06
-9.56996e-06
-9.32351e-06
-9.09001e-06
-8.86931e-06
-8.66112e-06
-8.46508e-06
-8.28076e-06
-8.10766e-06
-7.94524e-06
-7.7929e-06
-7.65002e-06
-7.51591e-06
-7.38988e-06
-7.27116e-06
-7.15898e-06
-7.05251e-06
-6.95087e-06
-6.85314e-06
-6.75835e-06
-6.66548e-06
-6.57346e-06
-6.48114e-06
-6.38732e-06
-6.29076e-06
-6.19012e-06
-6.08402e-06
-5.97101e-06
-5.8496e-06
-5.71825e-06
-5.57537e-06
-5.41938e-06
-5.24869e-06
-5.06174e-06
-4.85705e-06
-4.63324e-06
-4.38904e-06
-4.12331e-06
-3.83503e-06
-3.52328e-06
-3.187e-06
-2.82482e-06
-2.43459e-06
-2.01271e-06
-1.55323e-06
-1.0471e-06
-4.79454e-07
0.000126224
0.000129071
0.00013539
0.000144746
0.00015678
0.00017141
0.000188684
0.000208685
0.000231516
0.000257317
0.00028627
0.000318615
0.000354654
0.000394776
0.000439485
0.000489445
0.000545551
0.00060904
0.000681681
0.000766117
0.000866508
0.000989885
0.00114925
0.0013731
0.00172183
0.00012551
0.000128187
0.000134313
0.000143466
0.000155279
0.000169659
0.000186652
0.000206332
0.000228794
0.000254167
0.000282621
0.000314375
0.00034971
0.000388977
0.000432628
0.00048125
0.000535614
0.000596754
0.00066608
0.00074555
0.000837885
0.00094671
0.00107585
0.00122407
0.0013613
0.000124299
0.000126885
0.00013287
0.000141858
0.000153476
0.000167628
0.000184352
0.000203717
0.00022581
0.000250747
0.000278684
0.000309817
0.000344394
0.000382724
0.000425191
0.000472279
0.000524598
0.000582919
0.000648199
0.000721573
0.000804209
0.000896708
0.000997199
0.00109615
0.00116574
0.000122478
0.000124976
0.000130786
0.000139543
0.000150883
0.000164705
0.000181038
0.000199942
0.000221494
0.000245793
0.000272971
0.000303195
0.000336668
0.000373635
0.00041439
0.000459281
0.000508712
0.00056313
0.000622973
0.000688535
0.000759624
0.000834795
0.000909768
0.000974717
0.0010114
0.000119931
0.000122336
0.000127945
0.000136426
0.000147428
0.000160842
0.000176691
0.000195025
0.000215902
0.000239404
0.000265634
0.000294721
0.000326813
0.00036208
0.000400711
0.000442898
0.000488822
0.000538598
0.000592183
0.000649183
0.000708502
0.000767739
0.000822292
0.000864415
0.000883227
0.000116528
0.000118832
0.00012421
0.000132361
0.000142947
0.000155857
0.000171102
0.000188718
0.000208749
0.00023125
0.000256292
0.000283959
0.000314339
0.000347518
0.000383569
0.000422528
0.000464357
0.00050888
0.000555677
0.000603902
0.000652028
0.000697497
0.000736371
0.000763263
0.000772051
0.000112125
0.000114314
0.000119425
0.000127182
0.000137265
0.00014956
0.000164067
0.000180808
0.000199808
0.000221094
0.000244703
0.000270668
0.000299016
0.000329746
0.00036282
0.00039813
0.000435455
0.000474401
0.000514305
0.000554113
0.000592229
0.00062638
0.000653575
0.000670327
0.000673306
0.000106564
0.00010862
0.00011342
0.000120712
0.000130193
0.00014175
0.000155371
0.000171064
0.000188831
0.000208674
0.000230591
0.000254568
0.000280569
0.000308517
0.000338276
0.000369621
0.000402201
0.00043549
0.000468718
0.000500812
0.000530331
0.00055546
0.000574091
0.000584073
0.000583656
9.96743e-05
0.000101575
0.000106015
0.000112761
0.000121533
0.000132217
0.000144792
0.00015925
0.000175574
0.000193737
0.000213705
0.00023542
0.000258792
0.000283679
0.000309873
0.000337072
0.000364852
0.000392636
0.000419659
0.000444951
0.000467327
0.000485439
0.000497881
0.000503379
0.000501051
9.12817e-05
9.29995e-05
9.70192e-05
0.00010313
0.000111072
0.000120737
0.000132095
0.000145122
0.000159784
0.000176033
0.000193804
0.000213005
0.000233505
0.00025512
0.000277596
0.000300595
0.000323676
0.00034628
0.00036772
0.000387188
0.000403779
0.000416548
0.000424598
0.000427206
0.000423954
8.34209e-05
8.49772e-05
8.86226e-05
9.41616e-05
0.000101357
0.000110105
0.000120372
0.000132124
0.000145319
0.000159894
0.000175769
0.000192835
0.000210944
0.000229894
0.000249422
0.000269192
0.000288782
0.00030768
0.000325289
0.000340941
0.000353922
0.000363534
0.000369156
0.000370335
0.000366875
7.67048e-05
7.813e-05
8.1464e-05
8.65262e-05
9.30981e-05
0.000101082
0.000110441
0.000121138
0.000133122
0.000146326
0.00016066
0.000176007
0.000192212
0.000209068
0.000226316
0.000243629
0.000260613
0.000276805
0.000291682
0.000304678
0.00031522
0.000322766
0.000326865
0.000327214
0.000323706
6.8889e-05
7.01643e-05
7.31421e-05
7.76605e-05
8.3523e-05
9.06392e-05
9.89705e-05
0.000108477
0.000119106
0.000130784
0.000143419
0.000156891
0.000171043
0.000185676
0.000200541
0.000215336
0.000229705
0.000243243
0.000255508
0.00026604
0.000274387
0.000280146
0.000282999
0.000282751
0.00027936
5.98228e-05
6.09266e-05
6.34987e-05
6.73989e-05
7.2456e-05
7.8589e-05
8.57598e-05
9.39287e-05
0.000103041
0.000113026
0.000123792
0.000135223
0.000147171
0.00015945
0.000171837
0.000184062
0.000195819
0.000206771
0.000216559
0.000224821
0.000231219
0.000235462
0.000237335
0.000236723
0.000233622
4.93523e-05
5.02606e-05
5.23725e-05
5.55721e-05
5.97179e-05
6.4741e-05
7.06066e-05
7.72774e-05
8.47027e-05
9.2817e-05
0.000101538
0.00011076
0.000120353
0.000130156
0.000139978
0.000149597
0.000158764
0.000167213
0.000174666
0.000180858
0.000185544
0.000188525
0.000189664
0.000188897
0.000186242
3.73301e-05
3.80165e-05
3.9608e-05
4.20168e-05
4.51355e-05
4.89109e-05
5.33145e-05
5.83151e-05
6.38706e-05
6.9927e-05
7.64167e-05
8.32553e-05
9.03387e-05
9.7541e-05
0.000104715
0.000111692
0.00011829
0.000124313
0.000129568
0.000133871
0.000137061
0.000139009
0.000139634
0.000138906
0.00013685
2.36312e-05
2.40666e-05
2.50724e-05
2.65921e-05
2.85581e-05
3.09361e-05
3.3707e-05
3.68495e-05
4.03351e-05
4.41274e-05
4.81813e-05
5.24405e-05
5.6837e-05
6.1289e-05
6.57023e-05
6.99712e-05
7.39814e-05
7.76151e-05
8.07561e-05
8.32969e-05
8.51455e-05
8.62324e-05
8.65153e-05
8.5983e-05
8.46548e-05
8.17736e-06
8.32982e-06
8.67984e-06
9.20763e-06
9.88981e-06
1.07145e-05
1.16749e-05
1.27635e-05
1.39701e-05
1.52816e-05
1.66819e-05
1.81511e-05
1.96649e-05
2.11946e-05
2.27072e-05
2.41659e-05
2.55312e-05
2.67629e-05
2.78216e-05
2.86714e-05
2.9282e-05
2.96311e-05
2.97059e-05
2.95046e-05
2.90361e-05
)
;

boundaryField
{
    top
    {
        type            fixedValue;
        value           uniform 0;
    }
    inlet
    {
        type            zeroGradient;
    }
    outlet
    {
        type            fixedValue;
        value           uniform 0;
    }
    plate
    {
        type            zeroGradient;
    }
    symmBound
    {
        type            zeroGradient;
    }
    frontAndBack
    {
        type            empty;
    }
}


// ************************************************************************* //
