/*--------------------------------*- C++ -*----------------------------------*\
| =========                 |                                                 |
| \\      /  F ield         | OpenFOAM: The Open Source CFD Toolbox           |
|  \\    /   O peration     | Version:  2.3.0                                 |
|   \\  /    A nd           | Web:      www.OpenFOAM.org                      |
|    \\/     M anipulation  |                                                 |
\*---------------------------------------------------------------------------*/
FoamFile
{
    version     2.0;
    format      ascii;
    class       surfaceScalarField;
    location    "0.45";
    object      phi_0;
}
// * * * * * * * * * * * * * * * * * * * * * * * * * * * * * * * * * * * * * //

dimensions      [0 3 -1 0 0 0 0];

internalField   nonuniform List<scalar> 
4357
(
4.99633e-08
2.04746e-09
-5.20107e-08
4.78085e-08
2.15473e-09
4.5644e-08
2.16453e-09
4.34954e-08
2.14859e-09
4.13749e-08
2.12052e-09
3.92933e-08
2.08156e-09
3.72595e-08
2.03386e-09
3.52801e-08
1.97939e-09
3.33607e-08
1.91944e-09
3.15059e-08
1.85474e-09
2.97201e-08
1.7858e-09
2.80071e-08
1.71304e-09
2.63701e-08
1.63692e-09
2.48122e-08
1.55791e-09
2.33357e-08
1.47653e-09
2.19424e-08
1.39335e-09
2.06333e-08
1.30902e-09
1.94091e-08
1.22421e-09
1.82695e-08
1.13964e-09
1.72134e-08
1.05605e-09
1.62393e-08
9.74178e-10
1.53445e-08
8.9472e-10
1.45262e-08
8.18333e-10
1.37806e-08
7.45602e-10
1.31036e-08
6.77017e-10
1.24906e-08
6.12967e-10
1.19369e-08
5.53725e-10
1.14374e-08
4.99447e-10
1.09873e-08
4.50175e-10
1.05814e-08
4.05845e-10
1.02151e-08
3.66297e-10
9.88383e-09
3.31296e-10
9.58329e-09
3.00541e-10
9.3096e-09
2.73689e-10
9.05923e-09
2.50372e-10
8.82902e-09
2.30209e-10
8.6162e-09
2.12822e-10
8.41835e-09
1.97847e-10
8.23341e-09
1.84943e-10
8.05961e-09
1.73794e-10
7.89549e-09
1.6412e-10
7.73982e-09
1.55671e-10
7.59159e-09
1.48231e-10
7.44997e-09
1.41617e-10
7.3143e-09
1.35677e-10
7.18401e-09
1.30284e-10
7.05868e-09
1.25333e-10
6.93794e-09
1.20744e-10
6.82149e-09
1.1645e-10
6.70908e-09
1.12402e-10
6.60052e-09
1.08561e-10
6.49563e-09
1.04897e-10
6.39424e-09
1.01388e-10
6.29622e-09
9.80181e-11
6.20145e-09
9.47737e-11
6.1098e-09
9.16452e-11
6.02118e-09
8.8625e-11
5.93547e-09
8.57066e-11
5.85258e-09
8.28843e-11
5.77243e-09
8.0153e-11
5.69492e-09
7.75079e-11
5.61998e-09
7.49443e-11
5.54752e-09
7.24574e-11
5.47748e-09
7.00426e-11
5.40978e-09
6.76952e-11
5.34437e-09
6.54106e-11
5.28119e-09
6.31842e-11
5.22018e-09
6.10114e-11
5.16129e-09
5.8888e-11
5.10448e-09
5.68097e-11
5.04971e-09
5.47724e-11
4.99694e-09
5.27723e-11
4.94613e-09
5.08058e-11
4.89726e-09
4.88697e-11
4.8503e-09
4.69607e-11
4.80522e-09
4.50763e-11
4.76201e-09
4.3214e-11
4.72064e-09
4.13716e-11
4.68109e-09
3.95472e-11
4.64335e-09
3.77391e-11
4.60741e-09
3.59456e-11
4.57324e-09
3.41648e-11
4.54085e-09
3.23949e-11
4.51021e-09
3.06337e-11
4.48133e-09
2.88789e-11
4.45421e-09
2.71288e-11
4.42882e-09
2.53821e-11
4.40518e-09
2.36393e-11
4.38328e-09
2.19033e-11
4.3631e-09
2.01808e-11
4.34462e-09
1.8483e-11
4.32779e-09
1.68271e-11
4.31255e-09
1.52379e-11
4.2988e-09
1.37498e-11
4.28639e-09
1.24114e-11
4.27509e-09
1.12959e-11
4.26456e-09
1.05302e-11
4.25422e-09
1.03431e-11
4.24263e-09
1.15897e-11
2.7008e-11
5.77092e-08
2.15803e-09
-5.78198e-08
5.74662e-08
2.39778e-09
5.70887e-08
2.54199e-09
5.65977e-08
2.63964e-09
5.60076e-08
2.71062e-09
5.533e-08
2.75915e-09
5.4576e-08
2.78786e-09
5.37558e-08
2.79961e-09
5.28787e-08
2.79654e-09
5.19534e-08
2.78e-09
5.09883e-08
2.75097e-09
4.9991e-08
2.71033e-09
4.89689e-08
2.65895e-09
4.79291e-08
2.59771e-09
4.68781e-08
2.52755e-09
4.5822e-08
2.44951e-09
4.47663e-08
2.3647e-09
4.37162e-08
2.27429e-09
4.26763e-08
2.17952e-09
4.16507e-08
2.08167e-09
4.06429e-08
1.98202e-09
3.96558e-08
1.88182e-09
3.86918e-08
1.78226e-09
3.7753e-08
1.68443e-09
3.68407e-08
1.58931e-09
3.59559e-08
1.49772e-09
3.50993e-08
1.41033e-09
3.42712e-08
1.32764e-09
3.34713e-08
1.24999e-09
3.26996e-08
1.17757e-09
3.19555e-08
1.11041e-09
3.12384e-08
1.04844e-09
3.05474e-08
9.91473e-10
2.98819e-08
9.39256e-10
2.92408e-08
8.91475e-10
2.86232e-08
8.47783e-10
2.80282e-08
8.07816e-10
2.74548e-08
7.71207e-10
2.69022e-08
7.37602e-10
2.63693e-08
7.06664e-10
2.58553e-08
6.78082e-10
2.53594e-08
6.51573e-10
2.48808e-08
6.26885e-10
2.44186e-08
6.03797e-10
2.39722e-08
5.8212e-10
2.35408e-08
5.61689e-10
2.31237e-08
5.42364e-10
2.27204e-08
5.24025e-10
2.23303e-08
5.06574e-10
2.19528e-08
4.89927e-10
2.15873e-08
4.74013e-10
2.12335e-08
4.58773e-10
2.08907e-08
4.44155e-10
2.05586e-08
4.30116e-10
2.02368e-08
4.16617e-10
1.99248e-08
4.03624e-10
1.96223e-08
3.91106e-10
1.9329e-08
3.79033e-10
1.90445e-08
3.67379e-10
1.87685e-08
3.56118e-10
1.85008e-08
3.45226e-10
1.82411e-08
3.3468e-10
1.79891e-08
3.24456e-10
1.77446e-08
3.14534e-10
1.75074e-08
3.04892e-10
1.72773e-08
2.95509e-10
1.70541e-08
2.86367e-10
1.68376e-08
2.77448e-10
1.66278e-08
2.68733e-10
1.64244e-08
2.60206e-10
1.62273e-08
2.51852e-10
1.60364e-08
2.43656e-10
1.58516e-08
2.35605e-10
1.56728e-08
2.27686e-10
1.54999e-08
2.19889e-10
1.53328e-08
2.12204e-10
1.51714e-08
2.04621e-10
1.50156e-08
1.97134e-10
1.48654e-08
1.89735e-10
1.47207e-08
1.82421e-10
1.45815e-08
1.75185e-10
1.44476e-08
1.68023e-10
1.43191e-08
1.60932e-10
1.41958e-08
1.5391e-10
1.40777e-08
1.46954e-10
1.39648e-08
1.40067e-10
1.38569e-08
1.33256e-10
1.3754e-08
1.26531e-10
1.3656e-08
1.19914e-10
1.35628e-08
1.13439e-10
1.34741e-08
1.07153e-10
1.33898e-08
1.01117e-10
1.33096e-08
9.54172e-11
1.32332e-08
9.01602e-11
1.31601e-08
8.54911e-11
1.30898e-08
8.16199e-11
1.30214e-08
7.89024e-11
1.29537e-08
7.81278e-11
1.28828e-08
8.24375e-11
1.07572e-10
6.27578e-08
2.15071e-09
-6.27505e-08
6.27695e-08
2.38613e-09
6.27528e-08
2.55867e-09
6.26995e-08
2.69293e-09
6.26061e-08
2.80399e-09
6.24694e-08
2.89584e-09
6.22875e-08
2.96973e-09
6.206e-08
3.02714e-09
6.17872e-08
3.06938e-09
6.14699e-08
3.09727e-09
6.11095e-08
3.11132e-09
6.07079e-08
3.112e-09
6.02671e-08
3.09976e-09
5.97896e-08
3.07519e-09
5.92782e-08
3.03896e-09
5.87358e-08
2.99187e-09
5.81656e-08
2.93489e-09
5.75708e-08
2.86911e-09
5.69546e-08
2.79574e-09
5.63202e-08
2.71607e-09
5.56707e-08
2.63147e-09
5.50092e-08
2.54332e-09
5.43385e-08
2.45297e-09
5.36612e-08
2.36171e-09
5.29798e-08
2.27075e-09
5.22964e-08
2.18115e-09
5.16129e-08
2.09383e-09
5.0931e-08
2.00955e-09
5.02521e-08
1.92888e-09
4.95774e-08
1.85222e-09
4.8908e-08
1.77984e-09
4.82446e-08
1.71185e-09
4.75878e-08
1.64821e-09
4.69383e-08
1.58882e-09
4.62963e-08
1.53349e-09
4.56621e-08
1.48196e-09
4.5036e-08
1.43394e-09
4.4418e-08
1.38913e-09
4.38084e-08
1.34721e-09
4.32072e-08
1.30788e-09
4.26145e-08
1.27085e-09
4.20302e-08
1.23585e-09
4.14544e-08
1.20265e-09
4.08872e-08
1.17102e-09
4.03285e-08
1.14078e-09
3.97784e-08
1.11178e-09
3.92369e-08
1.08386e-09
3.87041e-08
1.05691e-09
3.81798e-08
1.03084e-09
3.76641e-08
1.00557e-09
3.71571e-08
9.81015e-10
3.66588e-08
9.57131e-10
3.61691e-08
9.33867e-10
3.5688e-08
9.11183e-10
3.52156e-08
8.89043e-10
3.47518e-08
8.67416e-10
3.42966e-08
8.46274e-10
3.38501e-08
8.25591e-10
3.34121e-08
8.05343e-10
3.29827e-08
7.85507e-10
3.25619e-08
7.66059e-10
3.21496e-08
7.46978e-10
3.17458e-08
7.28241e-10
3.13505e-08
7.09828e-10
3.09637e-08
6.91718e-10
3.05853e-08
6.7389e-10
3.02153e-08
6.56323e-10
2.98538e-08
6.38999e-10
2.95006e-08
6.21899e-10
2.91558e-08
6.05005e-10
2.88194e-08
5.883e-10
2.84913e-08
5.71768e-10
2.81715e-08
5.55395e-10
2.786e-08
5.39167e-10
2.75568e-08
5.23073e-10
2.72619e-08
5.07102e-10
2.69753e-08
4.91246e-10
2.66969e-08
4.75499e-10
2.64268e-08
4.59855e-10
2.61649e-08
4.44312e-10
2.59112e-08
4.28867e-10
2.56657e-08
4.13521e-10
2.54284e-08
3.98276e-10
2.51992e-08
3.83139e-10
2.4978e-08
3.68119e-10
2.47648e-08
3.53234e-10
2.45596e-08
3.3851e-10
2.43621e-08
3.23987e-10
2.41723e-08
3.09721e-10
2.399e-08
2.95791e-10
2.38148e-08
2.82297e-10
2.36466e-08
2.6937e-10
2.34848e-08
2.57172e-10
2.33291e-08
2.45908e-10
2.31787e-08
2.35842e-10
2.3033e-08
2.2735e-10
2.28908e-08
2.21064e-10
2.27506e-08
2.18385e-10
2.26092e-08
2.23781e-10
2.50364e-10
6.79998e-08
2.17462e-09
-6.80237e-08
6.8004e-08
2.38193e-09
6.80109e-08
2.55171e-09
6.80116e-08
2.69224e-09
6.80032e-08
2.81242e-09
6.79831e-08
2.91595e-09
6.79487e-08
3.0041e-09
6.78979e-08
3.07791e-09
6.78289e-08
3.13838e-09
6.774e-08
3.18621e-09
6.76295e-08
3.22177e-09
6.74962e-08
3.24531e-09
6.73389e-08
3.25706e-09
6.71568e-08
3.25729e-09
6.69494e-08
3.24637e-09
6.67165e-08
3.2248e-09
6.64582e-08
3.1932e-09
6.61749e-08
3.15234e-09
6.58675e-08
3.10315e-09
6.55369e-08
3.04667e-09
6.51844e-08
2.98401e-09
6.48113e-08
2.91639e-09
6.44193e-08
2.84502e-09
6.40099e-08
2.7711e-09
6.35849e-08
2.69578e-09
6.31459e-08
2.62014e-09
6.26946e-08
2.54512e-09
6.22326e-08
2.47156e-09
6.17613e-08
2.40012e-09
6.12822e-08
2.33134e-09
6.07965e-08
2.26559e-09
6.03052e-08
2.2031e-09
5.98094e-08
2.14401e-09
5.93099e-08
2.08831e-09
5.88075e-08
2.03594e-09
5.83027e-08
1.98673e-09
5.77961e-08
1.94051e-09
5.72882e-08
1.89703e-09
5.67794e-08
1.85606e-09
5.62699e-08
1.81734e-09
5.57601e-08
1.78062e-09
5.52503e-08
1.74567e-09
5.47407e-08
1.71226e-09
5.42315e-08
1.6802e-09
5.3723e-08
1.64932e-09
5.32153e-08
1.61944e-09
5.27087e-08
1.59045e-09
5.22034e-08
1.56221e-09
5.16996e-08
1.53465e-09
5.11975e-08
1.50766e-09
5.06974e-08
1.48119e-09
5.01993e-08
1.45517e-09
4.97036e-08
1.42955e-09
4.92105e-08
1.40431e-09
4.87202e-08
1.37938e-09
4.82328e-08
1.35476e-09
4.77487e-08
1.3304e-09
4.7268e-08
1.30629e-09
4.67909e-08
1.2824e-09
4.63177e-08
1.25871e-09
4.58486e-08
1.23519e-09
4.53838e-08
1.21182e-09
4.49234e-08
1.18859e-09
4.44678e-08
1.16547e-09
4.40171e-08
1.14244e-09
4.35715e-08
1.11949e-09
4.31312e-08
1.09659e-09
4.26965e-08
1.07373e-09
4.22675e-08
1.05089e-09
4.18444e-08
1.02806e-09
4.14275e-08
1.00521e-09
4.10169e-08
9.82339e-10
4.06129e-08
9.5943e-10
4.02156e-08
9.36475e-10
3.98252e-08
9.13466e-10
3.94419e-08
8.90397e-10
3.90659e-08
8.67266e-10
3.86973e-08
8.44071e-10
3.83363e-08
8.20815e-10
3.79831e-08
7.97504e-10
3.76379e-08
7.74146e-10
3.73006e-08
7.50754e-10
3.69716e-08
7.27345e-10
3.66508e-08
7.03942e-10
3.63383e-08
6.80579e-10
3.60342e-08
6.57298e-10
3.57386e-08
6.34159e-10
3.54513e-08
6.11241e-10
3.51724e-08
5.8865e-10
3.49017e-08
5.66517e-10
3.4639e-08
5.4501e-10
3.4384e-08
5.24336e-10
3.41364e-08
5.04744e-10
3.38958e-08
4.86539e-10
3.36615e-08
4.70109e-10
3.34329e-08
4.55988e-10
3.32089e-08
4.45037e-10
3.29883e-08
4.3899e-10
3.27701e-08
4.42009e-10
4.61504e-10
7.36418e-08
2.23362e-09
-7.37008e-08
7.36113e-08
2.41245e-09
7.35932e-08
2.56986e-09
7.35791e-08
2.70628e-09
7.3566e-08
2.82555e-09
7.35517e-08
2.93027e-09
7.35342e-08
3.02158e-09
7.35118e-08
3.10025e-09
7.34832e-08
3.16702e-09
7.34469e-08
3.22247e-09
7.34017e-08
3.26699e-09
7.33462e-08
3.30082e-09
7.32791e-08
3.32418e-09
7.31991e-08
3.33729e-09
7.3105e-08
3.34044e-09
7.29958e-08
3.334e-09
7.28706e-08
3.31843e-09
7.27286e-08
3.29431e-09
7.25694e-08
3.26236e-09
7.23927e-08
3.22336e-09
7.21985e-08
3.17823e-09
7.1987e-08
3.12793e-09
7.17585e-08
3.07348e-09
7.15137e-08
3.01588e-09
7.12534e-08
2.95614e-09
7.09783e-08
2.89521e-09
7.06895e-08
2.83395e-09
7.03879e-08
2.77315e-09
7.00745e-08
2.71346e-09
6.97505e-08
2.65543e-09
6.94166e-08
2.59947e-09
6.90738e-08
2.54588e-09
6.87229e-08
2.49486e-09
6.83648e-08
2.44649e-09
6.79999e-08
2.40078e-09
6.7629e-08
2.35767e-09
6.72525e-08
2.31704e-09
6.68708e-08
2.27872e-09
6.64843e-08
2.24254e-09
6.60933e-08
2.2083e-09
6.56982e-08
2.17579e-09
6.5299e-08
2.14481e-09
6.48961e-08
2.11517e-09
6.44896e-08
2.08668e-09
6.40798e-08
2.0592e-09
6.36667e-08
2.03256e-09
6.32505e-08
2.00664e-09
6.28314e-08
1.98131e-09
6.24095e-08
1.95649e-09
6.19851e-08
1.93209e-09
6.15583e-08
1.90802e-09
6.11292e-08
1.88423e-09
6.06981e-08
1.86066e-09
6.02651e-08
1.83726e-09
5.98305e-08
1.814e-09
5.93945e-08
1.79082e-09
5.89572e-08
1.76771e-09
5.85188e-08
1.74462e-09
5.80797e-08
1.72153e-09
5.764e-08
1.6984e-09
5.72e-08
1.67522e-09
5.67598e-08
1.65194e-09
5.63199e-08
1.62856e-09
5.58803e-08
1.60504e-09
5.54414e-08
1.58135e-09
5.50034e-08
1.55748e-09
5.45666e-08
1.5334e-09
5.41312e-08
1.50908e-09
5.36976e-08
1.48451e-09
5.3266e-08
1.45967e-09
5.28367e-08
1.43453e-09
5.241e-08
1.40909e-09
5.19861e-08
1.38332e-09
5.15653e-08
1.35721e-09
5.1148e-08
1.33077e-09
5.07344e-08
1.30398e-09
5.03249e-08
1.27684e-09
4.99196e-08
1.24935e-09
4.95189e-08
1.22152e-09
4.9123e-08
1.19336e-09
4.87323e-08
1.1649e-09
4.83469e-08
1.13614e-09
4.79671e-08
1.10712e-09
4.75932e-08
1.07789e-09
4.72252e-08
1.0485e-09
4.68635e-08
1.01901e-09
4.65082e-08
9.89531e-10
4.61592e-08
9.60165e-10
4.58168e-08
9.31067e-10
4.54809e-08
9.02424e-10
4.51515e-08
8.74462e-10
4.48283e-08
8.47455e-10
4.45114e-08
8.21731e-10
4.42002e-08
7.9768e-10
4.38945e-08
7.75788e-10
4.35938e-08
7.56699e-10
4.32975e-08
7.41372e-10
4.3005e-08
7.31431e-10
4.27175e-08
7.29599e-10
7.37104e-10
7.97322e-08
2.31882e-09
-7.98174e-08
7.96716e-08
2.47306e-09
7.96262e-08
2.61529e-09
7.9589e-08
2.74347e-09
7.95562e-08
2.85835e-09
7.95254e-08
2.96105e-09
7.94947e-08
3.05223e-09
7.94627e-08
3.1323e-09
7.9428e-08
3.20167e-09
7.93898e-08
3.26074e-09
7.9347e-08
3.30981e-09
7.92986e-08
3.34913e-09
7.92439e-08
3.37893e-09
7.91818e-08
3.39943e-09
7.91113e-08
3.41091e-09
7.90316e-08
3.4137e-09
7.89418e-08
3.40821e-09
7.88412e-08
3.39495e-09
7.8729e-08
3.37448e-09
7.86049e-08
3.34749e-09
7.84684e-08
3.31472e-09
7.83194e-08
3.27697e-09
7.81578e-08
3.23509e-09
7.79837e-08
3.18994e-09
7.77975e-08
3.14236e-09
7.75995e-08
3.09318e-09
7.73903e-08
3.04318e-09
7.71704e-08
2.99303e-09
7.69405e-08
2.94337e-09
7.67012e-08
2.89469e-09
7.64533e-08
2.84744e-09
7.61972e-08
2.80191e-09
7.59337e-08
2.75835e-09
7.56633e-08
2.71689e-09
7.53865e-08
2.67759e-09
7.51038e-08
2.64044e-09
7.48154e-08
2.6054e-09
7.45218e-08
2.57236e-09
7.42231e-08
2.54119e-09
7.39197e-08
2.51174e-09
7.36116e-08
2.48385e-09
7.32991e-08
2.45736e-09
7.29821e-08
2.43211e-09
7.26609e-08
2.40792e-09
7.23354e-08
2.38467e-09
7.20058e-08
2.3622e-09
7.1672e-08
2.3404e-09
7.13342e-08
2.31915e-09
7.09923e-08
2.29834e-09
7.06465e-08
2.2779e-09
7.02968e-08
2.25775e-09
6.99432e-08
2.2378e-09
6.95859e-08
2.218e-09
6.92248e-08
2.19829e-09
6.88602e-08
2.17862e-09
6.84921e-08
2.15894e-09
6.81206e-08
2.13921e-09
6.77458e-08
2.11939e-09
6.73679e-08
2.09944e-09
6.6987e-08
2.07932e-09
6.66032e-08
2.05899e-09
6.62167e-08
2.03842e-09
6.58277e-08
2.01758e-09
6.54363e-08
1.99641e-09
6.50428e-08
1.97491e-09
6.46472e-08
1.95302e-09
6.42499e-08
1.93072e-09
6.3851e-08
1.90798e-09
6.34508e-08
1.88477e-09
6.30494e-08
1.86105e-09
6.26471e-08
1.83681e-09
6.22442e-08
1.81201e-09
6.18409e-08
1.78664e-09
6.14374e-08
1.76068e-09
6.1034e-08
1.73412e-09
6.06311e-08
1.70694e-09
6.02288e-08
1.67915e-09
5.98274e-08
1.65073e-09
5.94272e-08
1.62169e-09
5.90285e-08
1.59206e-09
5.86316e-08
1.56184e-09
5.82367e-08
1.53106e-09
5.7844e-08
1.49977e-09
5.74539e-08
1.46801e-09
5.70665e-08
1.43586e-09
5.66822e-08
1.4034e-09
5.63009e-08
1.37075e-09
5.5923e-08
1.33806e-09
5.55486e-08
1.30551e-09
5.51777e-08
1.27332e-09
5.48104e-08
1.24176e-09
5.44467e-08
1.21116e-09
5.40866e-08
1.18189e-09
5.37298e-08
1.1544e-09
5.33764e-08
1.12922e-09
5.30261e-08
1.10705e-09
5.26787e-08
1.08876e-09
5.23345e-08
1.07557e-09
5.19956e-08
1.06852e-09
1.06483e-09
8.6307e-08
2.42491e-09
-8.64131e-08
8.62208e-08
2.55923e-09
8.61493e-08
2.68682e-09
8.60874e-08
2.80535e-09
8.60317e-08
2.91412e-09
8.59795e-08
3.01316e-09
8.59292e-08
3.10255e-09
8.58791e-08
3.1824e-09
8.5828e-08
3.25282e-09
8.57747e-08
3.314e-09
8.57184e-08
3.36611e-09
8.56582e-08
3.40934e-09
8.55933e-08
3.44386e-09
8.55228e-08
3.46988e-09
8.54461e-08
3.48764e-09
8.53624e-08
3.49743e-09
8.5271e-08
3.49962e-09
8.51713e-08
3.49463e-09
8.50628e-08
3.48297e-09
8.49451e-08
3.4652e-09
8.48178e-08
3.44196e-09
8.46809e-08
3.41394e-09
8.45341e-08
3.38184e-09
8.43777e-08
3.34641e-09
8.42116e-08
3.30839e-09
8.40363e-08
3.26848e-09
8.38521e-08
3.22737e-09
8.36595e-08
3.18569e-09
8.34588e-08
3.144e-09
8.32508e-08
3.10278e-09
8.30357e-08
3.06246e-09
8.28143e-08
3.02334e-09
8.2587e-08
2.98569e-09
8.23542e-08
2.94968e-09
8.21163e-08
2.91542e-09
8.18738e-08
2.88295e-09
8.1627e-08
2.85227e-09
8.1376e-08
2.82332e-09
8.11211e-08
2.79605e-09
8.08625e-08
2.77033e-09
8.06003e-08
2.74605e-09
8.03346e-08
2.72309e-09
8.00654e-08
2.70131e-09
7.97928e-08
2.68058e-09
7.95166e-08
2.66077e-09
7.92371e-08
2.64177e-09
7.8954e-08
2.62345e-09
7.86675e-08
2.60571e-09
7.83774e-08
2.58846e-09
7.80837e-08
2.5716e-09
7.77864e-08
2.55505e-09
7.74854e-08
2.53874e-09
7.71808e-08
2.52261e-09
7.68725e-08
2.50658e-09
7.65605e-08
2.4906e-09
7.62449e-08
2.47462e-09
7.59255e-08
2.45859e-09
7.56024e-08
2.44245e-09
7.52757e-08
2.42615e-09
7.49454e-08
2.40966e-09
7.46115e-08
2.39292e-09
7.4274e-08
2.37589e-09
7.3933e-08
2.35853e-09
7.35887e-08
2.34078e-09
7.3241e-08
2.32262e-09
7.289e-08
2.30399e-09
7.25359e-08
2.28485e-09
7.21787e-08
2.26517e-09
7.18185e-08
2.2449e-09
7.14556e-08
2.224e-09
7.109e-08
2.20244e-09
7.07218e-08
2.18019e-09
7.03512e-08
2.15722e-09
6.99784e-08
2.1335e-09
6.96035e-08
2.109e-09
6.92267e-08
2.08371e-09
6.88483e-08
2.05762e-09
6.84683e-08
2.03072e-09
6.8087e-08
2.00301e-09
6.77045e-08
1.9745e-09
6.73211e-08
1.9452e-09
6.69371e-08
1.91515e-09
6.65524e-08
1.88438e-09
6.61675e-08
1.85296e-09
6.57824e-08
1.82095e-09
6.53973e-08
1.78846e-09
6.50125e-08
1.75561e-09
6.4628e-08
1.72257e-09
6.42439e-08
1.68954e-09
6.38605e-08
1.65676e-09
6.34777e-08
1.62453e-09
6.30957e-08
1.59318e-09
6.27145e-08
1.56312e-09
6.2334e-08
1.5348e-09
6.19545e-08
1.50879e-09
6.15758e-08
1.4857e-09
6.11983e-08
1.46627e-09
6.08227e-08
1.45119e-09
6.04508e-08
1.44039e-09
1.4301e-09
9.34045e-08
2.54976e-09
-9.35294e-08
9.32955e-08
2.66828e-09
9.31994e-08
2.78294e-09
9.31129e-08
2.8918e-09
9.30333e-08
2.99372e-09
9.29583e-08
3.08813e-09
9.28862e-08
3.17474e-09
9.28152e-08
3.25335e-09
9.27441e-08
3.32389e-09
9.26718e-08
3.38632e-09
9.25972e-08
3.44069e-09
9.25195e-08
3.48707e-09
9.24378e-08
3.52557e-09
9.23514e-08
3.55632e-09
9.22595e-08
3.57953e-09
9.21615e-08
3.59541e-09
9.20568e-08
3.60429e-09
9.19449e-08
3.60651e-09
9.18254e-08
3.60251e-09
9.16979e-08
3.59275e-09
9.15621e-08
3.57777e-09
9.14178e-08
3.55816e-09
9.12651e-08
3.53452e-09
9.11041e-08
3.50749e-09
9.09347e-08
3.47771e-09
9.07574e-08
3.44578e-09
9.05725e-08
3.41233e-09
9.03803e-08
3.37791e-09
9.01812e-08
3.34304e-09
8.99759e-08
3.30817e-09
8.97646e-08
3.2737e-09
8.9548e-08
3.23997e-09
8.93264e-08
3.20723e-09
8.91004e-08
3.1757e-09
8.88703e-08
3.14551e-09
8.86365e-08
3.11676e-09
8.83993e-08
3.08948e-09
8.8159e-08
3.06367e-09
8.79157e-08
3.03931e-09
8.76697e-08
3.01634e-09
8.7421e-08
2.99469e-09
8.71699e-08
2.97426e-09
8.69162e-08
2.95495e-09
8.66601e-08
2.93667e-09
8.64016e-08
2.91931e-09
8.61406e-08
2.90277e-09
8.58771e-08
2.88695e-09
8.5611e-08
2.87176e-09
8.53424e-08
2.85711e-09
8.50711e-08
2.84291e-09
8.4797e-08
2.8291e-09
8.45202e-08
2.81558e-09
8.42405e-08
2.80231e-09
8.39578e-08
2.78921e-09
8.36722e-08
2.77623e-09
8.33835e-08
2.7633e-09
8.30918e-08
2.75037e-09
8.27968e-08
2.73738e-09
8.24987e-08
2.72429e-09
8.21973e-08
2.71104e-09
8.18927e-08
2.69758e-09
8.15847e-08
2.68385e-09
8.12734e-08
2.66982e-09
8.09588e-08
2.65542e-09
8.06408e-08
2.64061e-09
8.03194e-08
2.62534e-09
7.99947e-08
2.60956e-09
7.96666e-08
2.59322e-09
7.93353e-08
2.57628e-09
7.90006e-08
2.55869e-09
7.86626e-08
2.5404e-09
7.83214e-08
2.52138e-09
7.79771e-08
2.50159e-09
7.76296e-08
2.48099e-09
7.7279e-08
2.45955e-09
7.69255e-08
2.43726e-09
7.6569e-08
2.41408e-09
7.62097e-08
2.39001e-09
7.58477e-08
2.36504e-09
7.5483e-08
2.33917e-09
7.51158e-08
2.31242e-09
7.47462e-08
2.28481e-09
7.43742e-08
2.25638e-09
7.39999e-08
2.22719e-09
7.36236e-08
2.19731e-09
7.32452e-08
2.16685e-09
7.28649e-08
2.13594e-09
7.24827e-08
2.10474e-09
7.20988e-08
2.07347e-09
7.17132e-08
2.04236e-09
7.1326e-08
2.01171e-09
7.09373e-08
1.98187e-09
7.05472e-08
1.95322e-09
7.01558e-08
1.92623e-09
6.97632e-08
1.90139e-09
6.93696e-08
1.87924e-09
6.89756e-08
1.86032e-09
6.85818e-08
1.84495e-09
6.81895e-08
1.83274e-09
1.8213e-09
1.01067e-07
2.69279e-09
-1.0121e-07
1.00936e-07
2.79883e-09
1.00817e-07
2.90259e-09
1.00706e-07
3.00261e-09
1.00602e-07
3.09774e-09
1.00503e-07
3.18723e-09
1.00407e-07
3.27054e-09
1.00313e-07
3.34732e-09
1.0022e-07
3.41731e-09
1.00126e-07
3.48034e-09
1.0003e-07
3.53633e-09
9.99317e-08
3.58525e-09
9.98301e-08
3.62712e-09
9.97244e-08
3.66202e-09
9.96139e-08
3.69006e-09
9.94979e-08
3.71144e-09
9.93758e-08
3.72637e-09
9.92472e-08
3.73515e-09
9.91116e-08
3.73812e-09
9.89686e-08
3.73568e-09
9.88181e-08
3.72826e-09
9.86599e-08
3.71636e-09
9.8494e-08
3.70048e-09
9.83203e-08
3.68117e-09
9.8139e-08
3.65897e-09
9.79504e-08
3.63442e-09
9.77547e-08
3.60804e-09
9.75523e-08
3.58034e-09
9.73435e-08
3.5518e-09
9.71288e-08
3.52283e-09
9.69087e-08
3.49381e-09
9.66836e-08
3.46507e-09
9.6454e-08
3.43688e-09
9.62202e-08
3.40947e-09
9.59827e-08
3.383e-09
9.57419e-08
3.3576e-09
9.5498e-08
3.33335e-09
9.52514e-08
3.31029e-09
9.50023e-08
3.28844e-09
9.47508e-08
3.26778e-09
9.44973e-08
3.24827e-09
9.42416e-08
3.22987e-09
9.39841e-08
3.2125e-09
9.37247e-08
3.1961e-09
9.34634e-08
3.18059e-09
9.32003e-08
3.1659e-09
9.29353e-08
3.15193e-09
9.26684e-08
3.13862e-09
9.23997e-08
3.12588e-09
9.21289e-08
3.11365e-09
9.18562e-08
3.10185e-09
9.15813e-08
3.09042e-09
9.13043e-08
3.07929e-09
9.10252e-08
3.06841e-09
9.07437e-08
3.0577e-09
9.04599e-08
3.04712e-09
9.01736e-08
3.03661e-09
8.98849e-08
3.02611e-09
8.95936e-08
3.01557e-09
8.92997e-08
3.00493e-09
8.90031e-08
2.99415e-09
8.87038e-08
2.98317e-09
8.84017e-08
2.97193e-09
8.80967e-08
2.96039e-09
8.77889e-08
2.94849e-09
8.7478e-08
2.93618e-09
8.71642e-08
2.9234e-09
8.68473e-08
2.91011e-09
8.65273e-08
2.89626e-09
8.62042e-08
2.88179e-09
8.58779e-08
2.86667e-09
8.55485e-08
2.85083e-09
8.52158e-08
2.83425e-09
8.48799e-08
2.81689e-09
8.45408e-08
2.7987e-09
8.41984e-08
2.77966e-09
8.38527e-08
2.75975e-09
8.35038e-08
2.73894e-09
8.31516e-08
2.71724e-09
8.27961e-08
2.69462e-09
8.24374e-08
2.67112e-09
8.20755e-08
2.64675e-09
8.17103e-08
2.62154e-09
8.13419e-08
2.59555e-09
8.09704e-08
2.56886e-09
8.05957e-08
2.54157e-09
8.02178e-08
2.51381e-09
7.98368e-08
2.48574e-09
7.94527e-08
2.45756e-09
7.90656e-08
2.4295e-09
7.86754e-08
2.40186e-09
7.82823e-08
2.37497e-09
7.78864e-08
2.34918e-09
7.74877e-08
2.32492e-09
7.70865e-08
2.30261e-09
7.6683e-08
2.2827e-09
7.62778e-08
2.26553e-09
7.58715e-08
2.25127e-09
7.54645e-08
2.23971e-09
2.23055e-09
1.09339e-07
2.85425e-09
-1.09501e-07
1.09188e-07
2.95052e-09
1.09045e-07
3.04541e-09
1.0891e-07
3.13782e-09
1.08781e-07
3.22679e-09
1.08656e-07
3.31155e-09
1.08535e-07
3.39148e-09
1.08417e-07
3.46615e-09
1.08299e-07
3.53519e-09
1.08181e-07
3.59835e-09
1.08061e-07
3.65546e-09
1.0794e-07
3.70639e-09
1.07816e-07
3.75109e-09
1.07689e-07
3.78958e-09
1.07557e-07
3.82191e-09
1.0742e-07
3.84819e-09
1.07278e-07
3.86859e-09
1.0713e-07
3.88333e-09
1.06975e-07
3.89267e-09
1.06814e-07
3.89693e-09
1.06646e-07
3.89648e-09
1.0647e-07
3.8917e-09
1.06288e-07
3.88304e-09
1.06098e-07
3.87092e-09
1.05901e-07
3.85583e-09
1.05697e-07
3.83822e-09
1.05487e-07
3.81855e-09
1.0527e-07
3.79727e-09
1.05047e-07
3.7748e-09
1.04818e-07
3.75152e-09
1.04584e-07
3.7278e-09
1.04345e-07
3.70396e-09
1.04102e-07
3.68026e-09
1.03855e-07
3.65693e-09
1.03603e-07
3.63417e-09
1.03349e-07
3.61213e-09
1.03091e-07
3.59091e-09
1.02831e-07
3.5706e-09
1.02568e-07
3.55124e-09
1.02303e-07
3.53286e-09
1.02036e-07
3.51545e-09
1.01767e-07
3.49899e-09
1.01496e-07
3.48346e-09
1.01223e-07
3.46881e-09
1.00949e-07
3.45498e-09
1.00673e-07
3.44193e-09
1.00395e-07
3.4296e-09
1.00116e-07
3.41791e-09
9.98349e-08
3.40681e-09
9.95523e-08
3.39625e-09
9.9268e-08
3.38614e-09
9.8982e-08
3.37645e-09
9.86942e-08
3.3671e-09
9.84045e-08
3.35804e-09
9.8113e-08
3.34921e-09
9.78196e-08
3.34057e-09
9.75241e-08
3.33205e-09
9.72266e-08
3.3236e-09
9.6927e-08
3.31517e-09
9.66253e-08
3.30671e-09
9.63212e-08
3.29816e-09
9.6015e-08
3.28947e-09
9.57063e-08
3.28058e-09
9.53952e-08
3.27146e-09
9.50817e-08
3.26203e-09
9.47656e-08
3.25225e-09
9.44469e-08
3.24208e-09
9.41256e-08
3.23145e-09
9.38016e-08
3.22031e-09
9.34747e-08
3.20862e-09
9.31451e-08
3.19633e-09
9.28125e-08
3.18339e-09
9.2477e-08
3.16976e-09
9.21385e-08
3.15541e-09
9.17969e-08
3.14028e-09
9.14522e-08
3.12436e-09
9.11043e-08
3.10762e-09
9.07532e-08
3.09003e-09
9.03989e-08
3.0716e-09
9.00412e-08
3.05231e-09
8.96801e-08
3.03218e-09
8.93157e-08
3.01122e-09
8.89477e-08
2.98947e-09
8.85763e-08
2.96699e-09
8.82013e-08
2.94386e-09
8.78227e-08
2.92016e-09
8.74405e-08
2.89602e-09
8.70546e-08
2.87161e-09
8.66651e-08
2.84711e-09
8.62719e-08
2.82274e-09
8.58749e-08
2.79878e-09
8.54744e-08
2.77552e-09
8.50703e-08
2.7533e-09
8.46627e-08
2.73247e-09
8.42519e-08
2.7134e-09
8.38382e-08
2.69642e-09
8.34219e-08
2.68178e-09
8.30037e-08
2.66956e-09
8.25837e-08
2.6597e-09
2.65269e-09
6.85657e-08
2.72133e-09
-6.84328e-08
6.87052e-08
2.81106e-09
6.8851e-08
2.89965e-09
6.90026e-08
2.98621e-09
6.91595e-08
3.0699e-09
6.9321e-08
3.14998e-09
6.94866e-08
3.22588e-09
6.96557e-08
3.29712e-09
6.98275e-08
3.36333e-09
7.00017e-08
3.42424e-09
7.01775e-08
3.47962e-09
7.03545e-08
3.52933e-09
7.05323e-08
3.5733e-09
7.07104e-08
3.61149e-09
7.08884e-08
3.64393e-09
7.10659e-08
3.67071e-09
7.12425e-08
3.69196e-09
7.1418e-08
3.70785e-09
7.1592e-08
3.71863e-09
7.17644e-08
3.72455e-09
7.1935e-08
3.72594e-09
7.21035e-08
3.72315e-09
7.227e-08
3.71655e-09
7.24344e-08
3.70655e-09
7.25966e-08
3.69356e-09
7.27569e-08
3.67799e-09
7.29151e-08
3.66027e-09
7.30716e-08
3.6408e-09
7.32264e-08
3.61997e-09
7.33798e-08
3.59815e-09
7.35319e-08
3.57566e-09
7.36831e-08
3.55281e-09
7.38335e-08
3.52988e-09
7.39833e-08
3.50708e-09
7.41329e-08
3.48462e-09
7.42823e-08
3.46265e-09
7.4432e-08
3.44129e-09
7.45819e-08
3.42065e-09
7.47324e-08
3.40078e-09
7.48835e-08
3.38172e-09
7.50355e-08
3.3635e-09
7.51884e-08
3.34611e-09
7.53423e-08
3.32953e-09
7.54973e-08
3.31376e-09
7.56536e-08
3.29873e-09
7.58111e-08
3.28443e-09
7.59699e-08
3.27079e-09
7.613e-08
3.25777e-09
7.62915e-08
3.24531e-09
7.64544e-08
3.23336e-09
7.66187e-08
3.22187e-09
7.67844e-08
3.21078e-09
7.69514e-08
3.20003e-09
7.71199e-08
3.18958e-09
7.72897e-08
3.17937e-09
7.74609e-08
3.16935e-09
7.76335e-08
3.15947e-09
7.78075e-08
3.14967e-09
7.79827e-08
3.13991e-09
7.81593e-08
3.13013e-09
7.83372e-08
3.12027e-09
7.85163e-08
3.1103e-09
7.86968e-08
3.10016e-09
7.88784e-08
3.0898e-09
7.90613e-08
3.07916e-09
7.92453e-08
3.06821e-09
7.94305e-08
3.05687e-09
7.96169e-08
3.04511e-09
7.98043e-08
3.03288e-09
7.99928e-08
3.02014e-09
8.01823e-08
3.00682e-09
8.03728e-08
2.9929e-09
8.05642e-08
2.97832e-09
8.07566e-08
2.96306e-09
8.09498e-08
2.94708e-09
8.11438e-08
2.93035e-09
8.13385e-08
2.91285e-09
8.1534e-08
2.89456e-09
8.17301e-08
2.87548e-09
8.19268e-08
2.8556e-09
8.21241e-08
2.83493e-09
8.23218e-08
2.81351e-09
8.25199e-08
2.79137e-09
8.27183e-08
2.76857e-09
8.2917e-08
2.74517e-09
8.31159e-08
2.72129e-09
8.33148e-08
2.69705e-09
8.35138e-08
2.6726e-09
8.37128e-08
2.64811e-09
8.39118e-08
2.62382e-09
8.41106e-08
2.59996e-09
8.43093e-08
2.57681e-09
8.45079e-08
2.55467e-09
8.47065e-08
2.53385e-09
8.49053e-08
2.51463e-09
8.51045e-08
2.49729e-09
8.53043e-08
2.48197e-09
8.55051e-08
2.4687e-09
8.57076e-08
2.45727e-09
2.44713e-09
7.57731e-08
2.57607e-09
-7.56279e-08
7.59245e-08
2.65971e-09
7.60817e-08
2.74241e-09
7.62445e-08
2.82342e-09
7.64124e-08
2.90201e-09
7.65849e-08
2.97752e-09
7.67614e-08
3.04938e-09
7.69413e-08
3.11715e-09
7.71242e-08
3.18044e-09
7.73095e-08
3.23895e-09
7.74967e-08
3.29245e-09
7.76852e-08
3.34077e-09
7.78747e-08
3.38379e-09
7.80648e-08
3.42147e-09
7.82549e-08
3.4538e-09
7.84448e-08
3.48084e-09
7.8634e-08
3.50267e-09
7.88224e-08
3.51946e-09
7.90097e-08
3.53139e-09
7.91955e-08
3.5387e-09
7.93798e-08
3.54165e-09
7.95624e-08
3.54056e-09
7.97432e-08
3.53575e-09
7.99222e-08
3.52758e-09
8.00993e-08
3.51642e-09
8.02747e-08
3.50265e-09
8.04483e-08
3.48663e-09
8.06204e-08
3.46874e-09
8.0791e-08
3.44935e-09
8.09604e-08
3.42877e-09
8.11287e-08
3.40734e-09
8.12962e-08
3.38534e-09
8.1463e-08
3.36303e-09
8.16295e-08
3.34063e-09
8.17957e-08
3.31835e-09
8.1962e-08
3.29634e-09
8.21286e-08
3.27475e-09
8.22955e-08
3.25368e-09
8.24631e-08
3.2332e-09
8.26315e-08
3.21338e-09
8.28007e-08
3.19425e-09
8.2971e-08
3.17582e-09
8.31424e-08
3.1581e-09
8.33151e-08
3.14108e-09
8.34891e-08
3.12474e-09
8.36645e-08
3.10905e-09
8.38413e-08
3.09397e-09
8.40196e-08
3.07947e-09
8.41994e-08
3.06549e-09
8.43808e-08
3.05199e-09
8.45637e-08
3.03893e-09
8.47482e-08
3.02626e-09
8.49343e-08
3.01393e-09
8.5122e-08
3.00188e-09
8.53113e-08
2.99007e-09
8.55023e-08
2.97844e-09
8.56948e-08
2.96696e-09
8.58889e-08
2.95556e-09
8.60846e-08
2.9442e-09
8.62819e-08
2.93283e-09
8.64808e-08
2.9214e-09
8.66812e-08
2.90986e-09
8.68832e-08
2.89816e-09
8.70868e-08
2.88624e-09
8.72919e-08
2.87407e-09
8.74985e-08
2.86159e-09
8.77066e-08
2.84875e-09
8.79162e-08
2.83551e-09
8.81273e-08
2.82182e-09
8.83398e-08
2.80762e-09
8.85537e-08
2.79289e-09
8.8769e-08
2.77758e-09
8.89857e-08
2.76165e-09
8.92037e-08
2.74506e-09
8.9423e-08
2.72779e-09
8.96435e-08
2.70981e-09
8.98653e-08
2.6911e-09
9.00882e-08
2.67165e-09
9.03122e-08
2.65146e-09
9.05373e-08
2.63052e-09
9.07634e-08
2.60885e-09
9.09904e-08
2.58649e-09
9.12183e-08
2.56347e-09
9.1447e-08
2.53986e-09
9.16765e-08
2.51573e-09
9.19066e-08
2.49118e-09
9.21373e-08
2.46633e-09
9.23685e-08
2.44135e-09
9.26003e-08
2.41639e-09
9.28324e-08
2.39167e-09
9.30649e-08
2.36742e-09
9.32979e-08
2.34389e-09
9.35312e-08
2.32135e-09
9.3765e-08
2.30007e-09
9.39993e-08
2.2803e-09
9.42343e-08
2.26227e-09
9.44702e-08
2.2461e-09
9.47071e-08
2.23181e-09
9.49452e-08
2.21917e-09
2.20801e-09
8.37348e-08
2.41764e-09
-8.35764e-08
8.38989e-08
2.49561e-09
8.40685e-08
2.57277e-09
8.42434e-08
2.64852e-09
8.44233e-08
2.7222e-09
8.46075e-08
2.79324e-09
8.47958e-08
2.86111e-09
8.49876e-08
2.92537e-09
8.51824e-08
2.98566e-09
8.53797e-08
3.04166e-09
8.5579e-08
3.09312e-09
8.57799e-08
3.13986e-09
8.5982e-08
3.18174e-09
8.61847e-08
3.21869e-09
8.63879e-08
3.25067e-09
8.6591e-08
3.2777e-09
8.67938e-08
3.29986e-09
8.6996e-08
3.31726e-09
8.71974e-08
3.33006e-09
8.73976e-08
3.33845e-09
8.75966e-08
3.34265e-09
8.77942e-08
3.34295e-09
8.79903e-08
3.33962e-09
8.81849e-08
3.33298e-09