/*--------------------------------*- C++ -*----------------------------------*\
| =========                 |                                                 |
| \\      /  F ield         | OpenFOAM: The Open Source CFD Toolbox           |
|  \\    /   O peration     | Version:  2.3.0                                 |
|   \\  /    A nd           | Web:      www.OpenFOAM.org                      |
|    \\/     M anipulation  |                                                 |
\*---------------------------------------------------------------------------*/
FoamFile
{
    version     2.0;
    format      ascii;
    class       volVectorField;
    location    "0.65";
    object      U;
}
// * * * * * * * * * * * * * * * * * * * * * * * * * * * * * * * * * * * * * //

dimensions      [0 1 -1 0 0 0 0];

internalField   nonuniform List<vector> 
3105
(
(0.17153 0.00584546 0)
(0.154905 0.00598853 0)
(0.139084 0.00560992 0)
(0.124078 0.00502391 0)
(0.110269 0.00436653 0)
(0.0978518 0.00369684 0)
(0.0868542 0.0030525 0)
(0.0772454 0.00245968 0)
(0.0689687 0.00193465 0)
(0.0619394 0.00148576 0)
(0.0560439 0.00111502 0)
(0.0511488 0.000819114 0)
(0.0471122 0.000590707 0)
(0.0437935 0.000420037 0)
(0.0410615 0.000296479 0)
(0.0387992 0.000209778 0)
(0.0369066 0.000150818 0)
(0.0353017 0.000111979 0)
(0.0339192 8.71934e-05 0)
(0.0327085 7.18381e-05 0)
(0.0316318 6.25325e-05 0)
(0.0306608 5.69106e-05 0)
(0.0297749 5.3392e-05 0)
(0.0289591 5.09762e-05 0)
(0.0282025 4.90687e-05 0)
(0.0274969 4.73444e-05 0)
(0.0268362 4.5647e-05 0)
(0.0262156 4.39184e-05 0)
(0.0256311 4.21529e-05 0)
(0.0250794 4.03684e-05 0)
(0.0245577 3.85903e-05 0)
(0.0240636 3.68432e-05 0)
(0.0235949 3.51466e-05 0)
(0.0231495 3.35147e-05 0)
(0.0227258 3.19563e-05 0)
(0.0223221 3.04759e-05 0)
(0.021937 2.90747e-05 0)
(0.0215691 2.77518e-05 0)
(0.0212172 2.65045e-05 0)
(0.0208803 2.53294e-05 0)
(0.0205573 2.42226e-05 0)
(0.0202474 2.31799e-05 0)
(0.0199497 2.21973e-05 0)
(0.0196636 2.12707e-05 0)
(0.0193882 2.03964e-05 0)
(0.019123 1.95708e-05 0)
(0.0188674 1.87906e-05 0)
(0.0186208 1.80527e-05 0)
(0.0183828 1.73541e-05 0)
(0.0181529 1.66924e-05 0)
(0.0179307 1.6065e-05 0)
(0.0177157 1.54696e-05 0)
(0.0175077 1.49043e-05 0)
(0.0173063 1.43669e-05 0)
(0.0171112 1.38559e-05 0)
(0.016922 1.33695e-05 0)
(0.0167385 1.29061e-05 0)
(0.0165605 1.24643e-05 0)
(0.0163877 1.20428e-05 0)
(0.0162198 1.16404e-05 0)
(0.0160567 1.12559e-05 0)
(0.0158982 1.08883e-05 0)
(0.0157441 1.05365e-05 0)
(0.0155942 1.01996e-05 0)
(0.0154483 9.87684e-06 0)
(0.0153063 9.56737e-06 0)
(0.0151681 9.27044e-06 0)
(0.0150335 8.9854e-06 0)
(0.0149024 8.71162e-06 0)
(0.0147747 8.44849e-06 0)
(0.0146502 8.19551e-06 0)
(0.0145289 7.95219e-06 0)
(0.0144106 7.71808e-06 0)
(0.0142953 7.4928e-06 0)
(0.0141829 7.27598e-06 0)
(0.0140732 7.06729e-06 0)
(0.0139663 6.86648e-06 0)
(0.013862 6.67329e-06 0)
(0.0137602 6.48754e-06 0)
(0.0136609 6.30906e-06 0)
(0.013564 6.13773e-06 0)
(0.0134694 5.9735e-06 0)
(0.0133771 5.81634e-06 0)
(0.013287 5.66628e-06 0)
(0.0131991 5.5234e-06 0)
(0.0131131 5.38786e-06 0)
(0.0130292 5.25988e-06 0)
(0.0129472 5.1398e-06 0)
(0.012867 5.02799e-06 0)
(0.0127886 4.92509e-06 0)
(0.0127118 4.83194e-06 0)
(0.0126366 4.74964e-06 0)
(0.0125628 4.68002e-06 0)
(0.0124903 4.62604e-06 0)
(0.0124188 4.59326e-06 0)
(0.0123481 4.59343e-06 0)
(0.0122778 4.65927e-06 0)
(0.0122062 4.82433e-06 0)
(0.0121432 4.59103e-06 0)
(0.0119558 2.64242e-05 0)
(0.190556 0.00926513 0)
(0.188184 0.00988409 0)
(0.184294 0.00972202 0)
(0.179167 0.00924367 0)
(0.173269 0.00861824 0)
(0.166958 0.00790102 0)
(0.160462 0.00713038 0)
(0.153952 0.00634149 0)
(0.14756 0.00556436 0)
(0.141387 0.00482367 0)
(0.135502 0.00413869 0)
(0.129946 0.00352279 0)
(0.124739 0.00298313 0)
(0.119886 0.00252117 0)
(0.115377 0.00213362 0)
(0.1112 0.00181385 0)
(0.107334 0.00155328 0)
(0.103756 0.0013426 0)
(0.100443 0.00117274 0)
(0.0973719 0.00103548 0)
(0.0945201 0.000923813 0)
(0.0918669 0.000831985 0)
(0.0893932 0.000755459 0)
(0.0870815 0.000690749 0)
(0.0849164 0.000635234 0)
(0.082884 0.000586966 0)
(0.080972 0.000544508 0)
(0.0791696 0.000506797 0)
(0.0774671 0.000473039 0)
(0.0758559 0.000442629 0)
(0.0743284 0.000415097 0)
(0.0728778 0.000390068 0)
(0.0714982 0.000367235 0)
(0.070184 0.000346342 0)
(0.0689305 0.000327172 0)
(0.0677333 0.000309537 0)
(0.0665883 0.000293274 0)
(0.0654922 0.000278242 0)
(0.0644416 0.000264317 0)
(0.0634336 0.000251388 0)
(0.0624656 0.000239361 0)
(0.061535 0.000228149 0)
(0.0606396 0.00021768 0)
(0.0597775 0.000207885 0)
(0.0589466 0.000198708 0)
(0.0581454 0.000190094 0)
(0.057372 0.000181999 0)
(0.0566252 0.00017438 0)
(0.0559034 0.000167199 0)
(0.0552055 0.000160424 0)
(0.0545303 0.000154023 0)
(0.0538765 0.000147969 0)
(0.0532433 0.000142237 0)
(0.0526296 0.000136804 0)
(0.0520345 0.000131649 0)
(0.0514573 0.000126754 0)
(0.0508971 0.0001221 0)
(0.0503532 0.000117671 0)
(0.0498249 0.000113453 0)
(0.0493116 0.000109432 0)
(0.0488126 0.000105595 0)
(0.0483275 0.000101931 0)
(0.0478556 9.84279e-05 0)
(0.0473964 9.50768e-05 0)
(0.0469496 9.1868e-05 0)
(0.0465146 8.8793e-05 0)
(0.046091 8.58436e-05 0)
(0.0456785 8.30125e-05 0)
(0.0452767 8.02927e-05 0)
(0.0448853 7.76779e-05 0)
(0.0445038 7.51622e-05 0)
(0.0441321 7.274e-05 0)
(0.0437698 7.04063e-05 0)
(0.0434167 6.81565e-05 0)
(0.0430725 6.59864e-05 0)
(0.0427369 6.38919e-05 0)
(0.0424098 6.18697e-05 0)
(0.0420909 5.99164e-05 0)
(0.0417801 5.80293e-05 0)
(0.0414771 5.62059e-05 0)
(0.0411817 5.4444e-05 0)
(0.0408938 5.27418e-05 0)
(0.0406131 5.10979e-05 0)
(0.0403396 4.95113e-05 0)
(0.0400731 4.79814e-05 0)
(0.0398133 4.6508e-05 0)
(0.0395601 4.50915e-05 0)
(0.0393134 4.3733e-05 0)
(0.0390729 4.2434e-05 0)
(0.0388384 4.11973e-05 0)
(0.0386098 4.00271e-05 0)
(0.0383868 3.89292e-05 0)
(0.038169 3.79134e-05 0)
(0.0379563 3.69958e-05 0)
(0.0377482 3.62069e-05 0)
(0.0375439 3.56135e-05 0)
(0.0373426 3.53846e-05 0)
(0.0371413 3.59396e-05 0)
(0.0369514 4.00853e-05 0)
(0.0365773 9.10896e-05 0)
(0.193531 0.00893225 0)
(0.194274 0.00995597 0)
(0.194424 0.0103414 0)
(0.1938 0.0103679 0)
(0.192488 0.0101575 0)
(0.190607 0.00975604 0)
(0.188249 0.00920749 0)
(0.185504 0.00856079 0)
(0.182462 0.00786159 0)
(0.179209 0.00714884 0)
(0.175822 0.00645386 0)
(0.172366 0.00579972 0)
(0.168891 0.00520125 0)
(0.165437 0.00466573 0)
(0.162034 0.00419436 0)
(0.158702 0.00378397 0)
(0.155454 0.00342877 0)
(0.152299 0.00312177 0)
(0.149241 0.0028558 0)
(0.146281 0.00262422 0)
(0.143419 0.00242123 0)
(0.140654 0.00224196 0)
(0.137984 0.00208248 0)
(0.135406 0.00193963 0)
(0.132917 0.0018109 0)
(0.130515 0.0016943 0)
(0.128198 0.00158825 0)
(0.125961 0.00149144 0)
(0.123802 0.00140281 0)
(0.121718 0.00132147 0)
(0.119706 0.00124665 0)
(0.117764 0.0011777 0)
(0.115889 0.00111404 0)
(0.114078 0.00105515 0)
(0.112328 0.00100059 0)
(0.110637 0.000949953 0)
(0.109002 0.00090288 0)
(0.107421 0.000859051 0)
(0.105892 0.000818176 0)
(0.104412 0.000779999 0)
(0.102979 0.000744287 0)
(0.101592 0.000710834 0)
(0.100248 0.000679451 0)
(0.098946 0.000649972 0)
(0.0976835 0.000622245 0)
(0.0964591 0.000596133 0)
(0.0952713 0.000571513 0)
(0.0941184 0.000548272 0)
(0.0929992 0.000526309 0)
(0.0919121 0.000505532 0)
(0.0908561 0.000485855 0)
(0.0898297 0.000467202 0)
(0.0888319 0.000449503 0)
(0.0878615 0.000432692 0)
(0.0869175 0.000416711 0)
(0.085999 0.000401503 0)
(0.0851049 0.00038702 0)
(0.0842344 0.000373214 0)
(0.0833867 0.000360042 0)
(0.0825609 0.000347465 0)
(0.0817563 0.000335444 0)
(0.0809721 0.000323946 0)
(0.0802078 0.000312939 0)
(0.0794626 0.000302393 0)
(0.0787359 0.000292281 0)
(0.0780272 0.000282576 0)
(0.0773359 0.000273254 0)
(0.0766615 0.000264294 0)
(0.0760035 0.000255674 0)
(0.0753615 0.000247375 0)
(0.074735 0.000239378 0)
(0.0741237 0.000231667 0)
(0.0735271 0.000224226 0)
(0.0729448 0.000217042 0)
(0.0723766 0.000210099 0)
(0.0718221 0.000203386 0)
(0.0712811 0.000196892 0)
(0.0707531 0.000190606 0)
(0.070238 0.000184519 0)
(0.0697355 0.000178623 0)
(0.0692454 0.000172909 0)
(0.0687673 0.000167373 0)
(0.0683012 0.000162007 0)
(0.0678467 0.000156809 0)
(0.0674036 0.000151775 0)
(0.0669718 0.000146903 0)
(0.0665511 0.000142193 0)
(0.0661411 0.000137645 0)
(0.0657417 0.000133264 0)
(0.0653527 0.000129055 0)
(0.0649737 0.000125027 0)
(0.0646045 0.000121195 0)
(0.0642447 0.00011758 0)
(0.063894 0.000114223 0)
(0.0635518 0.000111195 0)
(0.0632174 0.000108658 0)
(0.0628893 0.000107015 0)
(0.0625648 0.000107509 0)
(0.0622505 0.000118561 0)
(0.0617644 0.000182031 0)
(0.194568 0.00831338 0)
(0.195677 0.00939796 0)
(0.19671 0.0099937 0)
(0.197447 0.0102586 0)
(0.197848 0.0102848 0)
(0.197914 0.010111 0)
(0.197645 0.00977255 0)
(0.197045 0.00931118 0)
(0.196137 0.00876861 0)
(0.194958 0.00818239 0)
(0.193548 0.00758441 0)
(0.191949 0.00700004 0)
(0.190202 0.00644747 0)
(0.188343 0.00593795 0)
(0.186402 0.00547676 0)
(0.184406 0.00506456 0)
(0.182375 0.00469884 0)
(0.180323 0.00437526 0)
(0.178262 0.00408863 0)
(0.176201 0.00383371 0)
(0.174146 0.00360562 0)
(0.172101 0.00340009 0)
(0.170071 0.00321351 0)
(0.168057 0.00304296 0)
(0.166063 0.00288607 0)
(0.164091 0.00274098 0)
(0.162142 0.00260619 0)
(0.160218 0.00248053 0)
(0.158319 0.00236306 0)
(0.156449 0.00225298 0)
(0.154606 0.00214965 0)
(0.152793 0.00205251 0)
(0.15101 0.00196107 0)
(0.149257 0.00187492 0)
(0.147535 0.00179366 0)
(0.145844 0.00171695 0)
(0.144185 0.00164448 0)
(0.142556 0.00157596 0)
(0.140959 0.00151113 0)
(0.139394 0.00144973 0)
(0.137859 0.00139155 0)
(0.136355 0.00133638 0)
(0.134882 0.00128402 0)
(0.133438 0.00123431 0)
(0.132025 0.00118707 0)
(0.13064 0.00114216 0)
(0.129285 0.00109943 0)
(0.127958 0.00105875 0)
(0.126658 0.00101999 0)
(0.125386 0.000983053 0)
(0.124141 0.000947819 0)
(0.122922 0.000914193 0)
(0.121728 0.000882082 0)
(0.12056 0.000851398 0)
(0.119416 0.00082206 0)
(0.118297 0.000793992 0)
(0.117201 0.000767121 0)
(0.116128 0.000741382 0)
(0.115078 0.000716709 0)
(0.114049 0.000693045 0)
(0.113043 0.000670333 0)
(0.112057 0.00064852 0)
(0.111092 0.000627557 0)
(0.110147 0.000607398 0)
(0.109222 0.000587998 0)
(0.108316 0.000569316 0)
(0.10743 0.000551313 0)
(0.106561 0.000533953 0)
(0.105711 0.0005172 0)
(0.104879 0.000501023 0)
(0.104065 0.000485391 0)
(0.103267 0.000470275 0)
(0.102487 0.000455648 0)
(0.101723 0.000441485 0)
(0.100975 0.000427762 0)
(0.100244 0.000414459 0)
(0.0995283 0.000401554 0)
(0.0988284 0.000389029 0)
(0.0981439 0.000376867 0)
(0.0974746 0.000365053 0)
(0.0968203 0.000353573 0)
(0.0961808 0.000342414 0)
(0.0955559 0.000331568 0)
(0.0949455 0.000321024 0)
(0.0943494 0.000310777 0)
(0.0937675 0.000300823 0)
(0.0931994 0.000291159 0)
(0.0926452 0.000281788 0)
(0.0921045 0.000272713 0)
(0.0915772 0.000263943 0)
(0.0910631 0.000255495 0)
(0.0905619 0.000247389 0)
(0.0900732 0.000239666 0)
(0.0895967 0.000232388 0)
(0.089132 0.000225677 0)
(0.0886782 0.000219795 0)
(0.088234 0.000215409 0)
(0.0877971 0.000214676 0)
(0.0873723 0.000228544 0)
(0.0868026 0.000289448 0)
(0.195304 0.00782299 0)
(0.196281 0.00882539 0)
(0.19734 0.00944794 0)
(0.198317 0.00978484 0)
(0.199158 0.00990976 0)
(0.199843 0.00985756 0)
(0.200347 0.00965509 0)
(0.200647 0.00933376 0)
(0.200736 0.00892673 0)
(0.200616 0.00846541 0)
(0.200301 0.00797775 0)
(0.199811 0.00748718 0)
(0.199167 0.00701174 0)
(0.198393 0.00656378 0)
(0.197512 0.00615046 0)
(0.196543 0.00577463 0)
(0.195503 0.00543596 0)
(0.194405 0.00513205 0)
(0.193261 0.00485934 0)
(0.192078 0.00461388 0)
(0.190864 0.00439177 0)
(0.189622 0.00418944 0)
(0.188357 0.00400383 0)
(0.187073 0.00383238 0)
(0.185772 0.00367302 0)
(0.184456 0.00352406 0)
(0.183128 0.00338421 0)
(0.18179 0.0032524 0)
(0.180444 0.0031278 0)
(0.179093 0.00300973 0)
(0.177736 0.00289761 0)
(0.176378 0.00279099 0)
(0.175018 0.00268945 0)
(0.173659 0.00259265 0)
(0.172302 0.00250026 0)
(0.170948 0.00241202 0)
(0.169599 0.00232767 0)
(0.168256 0.00224698 0)
(0.166919 0.00216974 0)
(0.165591 0.00209576 0)
(0.16427 0.00202486 0)
(0.16296 0.00195688 0)
(0.16166 0.00189168 0)
(0.16037 0.0018291 0)
(0.159092 0.00176902 0)
(0.157826 0.00171132 0)
(0.156573 0.00165588 0)
(0.155333 0.0016026 0)
(0.154106 0.00155137 0)
(0.152893 0.00150209 0)
(0.151694 0.00145468 0)
(0.150509 0.00140905 0)
(0.149338 0.00136512 0)
(0.148182 0.00132281 0)
(0.147041 0.00128204 0)
(0.145915 0.00124275 0)
(0.144804 0.00120487 0)
(0.143708 0.00116833 0)
(0.142627 0.00113308 0)
(0.141561 0.00109905 0)
(0.140511 0.00106618 0)
(0.139475 0.00103443 0)
(0.138455 0.00100373 0)
(0.13745 0.000974054 0)
(0.13646 0.000945337 0)
(0.135485 0.000917539 0)
(0.134525 0.000890617 0)
(0.13358 0.000864528 0)
(0.13265 0.000839234 0)
(0.131735 0.000814697 0)
(0.130835 0.000790882 0)
(0.12995 0.000767753 0)
(0.129079 0.000745279 0)
(0.128223 0.00072343 0)
(0.127382 0.000702176 0)
(0.126555 0.00068149 0)
(0.125743 0.000661348 0)
(0.124946 0.000641725 0)
(0.124163 0.0006226 0)
(0.123394 0.000603954 0)
(0.12264 0.000585768 0)
(0.1219 0.000568028 0)
(0.121175 0.000550719 0)
(0.120464 0.000533832 0)
(0.119767 0.000517359 0)
(0.119085 0.000501293 0)
(0.118417 0.000485633 0)
(0.117763 0.000470383 0)
(0.117123 0.000455548 0)
(0.116498 0.000441143 0)
(0.115886 0.000427189 0)
(0.115288 0.00041372 0)
(0.114704 0.000400791 0)
(0.114133 0.000388492 0)
(0.113576 0.000376992 0)
(0.11303 0.00036665 0)
(0.112496 0.000358362 0)
(0.111972 0.000354885 0)
(0.111464 0.000366684 0)
(0.110835 0.000413937 0)
(0.195932 0.00739704 0)
(0.196742 0.00828761 0)
(0.197667 0.00888815 0)
(0.19859 0.00924778 0)
(0.199462 0.00941964 0)
(0.200258 0.00943399 0)
(0.200955 0.00931323 0)
(0.201532 0.0090826 0)
(0.201974 0.00876948 0)
(0.202274 0.00840047 0)
(0.202435 0.00799971 0)
(0.202464 0.00758791 0)
(0.202373 0.00718161 0)
(0.202176 0.00679276 0)
(0.201887 0.00642898 0)
(0.201521 0.0060941 0)
(0.201088 0.00578907 0)
(0.200599 0.00551281 0)
(0.200063 0.00526298 0)
(0.199485 0.00503666 0)
(0.198872 0.00483078 0)
(0.198225 0.0046424 0)
(0.197549 0.00446893 0)
(0.196845 0.0043081 0)
(0.196116 0.00415806 0)
(0.195362 0.00401728 0)
(0.194586 0.00388453 0)
(0.193788 0.00375883 0)
(0.192971 0.00363938 0)
(0.192134 0.00352555 0)
(0.19128 0.00341681 0)
(0.19041 0.00331272 0)
(0.189525 0.00321293 0)
(0.188626 0.00311711 0)
(0.187714 0.003025 0)
(0.18679 0.00293636 0)
(0.185856 0.00285098 0)
(0.184913 0.00276867 0)
(0.183961 0.00268926 0)
(0.183002 0.00261259 0)
(0.182036 0.00253854 0)
(0.181065 0.00246698 0)
(0.180089 0.00239777 0)
(0.17911 0.00233083 0)
(0.178127 0.00226605 0)
(0.177143 0.00220334 0)
(0.176157 0.00214261 0)
(0.17517 0.00208378 0)
(0.174184 0.00202678 0)
(0.173198 0.00197154 0)
(0.172213 0.00191798 0)
(0.171231 0.00186604 0)
(0.17025 0.00181567 0)
(0.169273 0.00176679 0)
(0.168299 0.00171936 0)
(0.167329 0.00167333 0)
(0.166364 0.00162863 0)
(0.165404 0.00158522 0)
(0.164448 0.00154304 0)
(0.163499 0.00150206 0)
(0.162555 0.00146223 0)
(0.161618 0.00142349 0)
(0.160687 0.00138581 0)
(0.159763 0.00134915 0)
(0.158847 0.00131347 0)
(0.157938 0.00127872 0)
(0.157038 0.00124486 0)
(0.156145 0.00121187 0)
(0.15526 0.00117971 0)
(0.154384 0.00114834 0)
(0.153518 0.00111772 0)
(0.15266 0.00108784 0)
(0.151811 0.00105865 0)
(0.150972 0.00103012 0)
(0.150142 0.00100224 0)
(0.149323 0.000974971 0)
(0.148513 0.000948292 0)
(0.147714 0.000922179 0)
(0.146926 0.000896613 0)
(0.146148 0.000871573 0)
(0.14538 0.000847043 0)
(0.144624 0.000823008 0)
(0.143879 0.000799456 0)
(0.143146 0.000776378 0)
(0.142424 0.000753767 0)
(0.141713 0.000731621 0)
(0.141015 0.00070994 0)
(0.140328 0.000688733 0)
(0.139653 0.00066801 0)
(0.138991 0.000647793 0)
(0.13834 0.000628112 0)
(0.137702 0.000609015 0)
(0.137076 0.000590573 0)
(0.136462 0.000572902 0)
(0.13586 0.000556215 0)
(0.13527 0.000540942 0)
(0.134691 0.000528104 0)
(0.134122 0.0005205 0)
(0.133573 0.000526166 0)
(0.13292 0.000552849 0)
(0.196482 0.00702988 0)
(0.197155 0.00781365 0)
(0.197942 0.00837763 0)
(0.19876 0.00874035 0)
(0.199562 0.00893615 0)
(0.200321 0.00898993 0)
(0.201019 0.00892135 0)
(0.201636 0.00875175 0)
(0.20216 0.0085044 0)
(0.202584 0.00820225 0)
(0.202907 0.00786633 0)
(0.203133 0.00751492 0)
(0.203269 0.00716295 0)
(0.203324 0.00682162 0)
(0.203309 0.0064985 0)
(0.203234 0.00619796 0)
(0.203107 0.00592175 0)
(0.202936 0.00566971 0)
(0.202729 0.00544047 0)
(0.202489 0.00523191 0)
(0.202221 0.00504164 0)
(0.201928 0.00486727 0)
(0.201611 0.00470655 0)
(0.201272 0.00455751 0)
(0.200912 0.00441847 0)
(0.200531 0.004288 0)
(0.200131 0.00416495 0)
(0.199712 0.00404837 0)
(0.199274 0.00393748 0)
(0.198818 0.00383167 0)
(0.198344 0.00373041 0)
(0.197853 0.00363327 0)
(0.197345 0.00353989 0)
(0.196822 0.00344997 0)
(0.196283 0.00336325 0)
(0.195729 0.0032795 0)
(0.19516 0.00319852 0)
(0.194578 0.00312014 0)
(0.193982 0.00304419 0)
(0.193374 0.00297054 0)
(0.192754 0.00289907 0)
(0.192123 0.00282966 0)
(0.19148 0.00276222 0)
(0.190828 0.00269664 0)
(0.190165 0.00263286 0)
(0.189494 0.00257078 0)
(0.188814 0.00251034 0)
(0.188126 0.00245147 0)
(0.18743 0.00239412 0)
(0.186728 0.00233823 0)
(0.186019 0.00228374 0)
(0.185304 0.0022306 0)
(0.184584 0.00217876 0)
(0.183859 0.00212819 0)
(0.18313 0.00207883 0)
(0.182397 0.00203064 0)
(0.18166 0.00198359 0)
(0.180921 0.00193763 0)
(0.180179 0.00189272 0)
(0.179435 0.00184884 0)
(0.178689 0.00180594 0)
(0.177942 0.00176399 0)
(0.177195 0.00172296 0)
(0.176447 0.0016828 0)
(0.175699 0.0016435 0)
(0.174952 0.00160502 0)
(0.174205 0.00156732 0)
(0.17346 0.00153038 0)
(0.172717 0.00149417 0)
(0.171975 0.00145866 0)
(0.171236 0.00142382 0)
(0.170499 0.00138963 0)
(0.169766 0.00135606 0)
(0.169036 0.00132309 0)
(0.168309 0.00129069 0)
(0.167587 0.00125884 0)
(0.16687 0.00122753 0)
(0.166157 0.00119673 0)
(0.165449 0.00116642 0)
(0.164747 0.00113659 0)
(0.16405 0.00110723 0)
(0.163359 0.00107833 0)
(0.162675 0.00104987 0)
(0.161998 0.00102186 0)
(0.161327 0.000994285 0)
(0.160664 0.000967155 0)
(0.160009 0.000940476 0)
(0.159361 0.00091426 0)
(0.158721 0.000888527 0)
(0.15809 0.000863308 0)
(0.157467 0.000838643 0)
(0.156852 0.000814594 0)
(0.156247 0.000791249 0)
(0.15565 0.000768747 0)
(0.155063 0.000747331 0)
(0.154484 0.000727462 0)
(0.153914 0.000710136 0)
(0.153354 0.000697669 0)
(0.152814 0.00069479 0)
(0.152182 0.000698533 0)
(0.196966 0.00671159 0)
(0.197534 0.00739899 0)
(0.198203 0.00791929 0)
(0.198916 0.00827344 0)
(0.199632 0.00848122 0)
(0.200324 0.00856167 0)
(0.200972 0.00853153 0)
(0.20156 0.00840876 0)
(0.202078 0.00821298 0)
(0.202518 0.00796389 0)
(0.202879 0.00767986 0)
(0.203163 0.00737707 0)
(0.203377 0.00706902 0)
(0.203526 0.00676617 0)
(0.203619 0.00647596 0)
(0.203665 0.00620304 0)
(0.20367 0.00594978 0)
(0.203642 0.0057168 0)
(0.203586 0.00550347 0)
(0.203507 0.0053084 0)
(0.203408 0.00512981 0)
(0.203291 0.00496579 0)
(0.203158 0.00481449 0)
(0.203011 0.00467421 0)
(0.20285 0.00454343 0)
(0.202676 0.00442088 0)
(0.202488 0.00430547 0)
(0.202288 0.00419629 0)
(0.202075 0.0040926 0)
(0.20185 0.00399378 0)
(0.201612 0.0038993 0)
(0.201361 0.00380874 0)
(0.201099 0.00372173 0)
(0.200824 0.00363796 0)
(0.200537 0.00355715 0)
(0.200237 0.00347908 0)
(0.199926 0.00340355 0)
(0.199604 0.00333036 0)
(0.19927 0.00325937 0)
(0.198924 0.00319043 0)
(0.198567 0.00312342 0)
(0.198199 0.00305822 0)
(0.197821 0.00299474 0)
(0.197432 0.00293288 0)
(0.197033 0.00287256 0)
(0.196623 0.0028137 0)
(0.196204 0.00275624 0)
(0.195776 0.00270012 0)
(0.195338 0.00264527 0)
(0.194891 0.00259164 0)
(0.194435 0.00253919 0)
(0.193971 0.00248786 0)
(0.193499 0.00243761 0)
(0.193019 0.00238841 0)
(0.192532 0.00234021 0)
(0.192037 0.00229298 0)
(0.191536 0.00224667 0)
(0.191028 0.00220126 0)
(0.190513 0.00215672 0)
(0.189993 0.002113 0)
(0.189467 0.00207008 0)
(0.188935 0.00202794 0)
(0.188399 0.00198653 0)
(0.187858 0.00194584 0)
(0.187312 0.00190583 0)
(0.186763 0.00186647 0)
(0.18621 0.00182775 0)
(0.185653 0.00178963 0)
(0.185094 0.00175209 0)
(0.184531 0.00171511 0)
(0.183967 0.00167866 0)
(0.1834 0.00164272 0)
(0.182832 0.00160726 0)
(0.182262 0.00157228 0)
(0.181691 0.00153774 0)
(0.18112 0.00150363 0)
(0.180548 0.00146993 0)
(0.179977 0.00143663 0)
(0.179406 0.00140371 0)
(0.178835 0.00137117 0)
(0.178266 0.00133899 0)
(0.177698 0.00130716 0)
(0.177131 0.00127568 0)
(0.176567 0.00124456 0)
(0.176005 0.00121378 0)
(0.175446 0.00118337 0)
(0.174891 0.00115334 0)
(0.174338 0.00112369 0)
(0.173789 0.00109447 0)
(0.173244 0.00106571 0)
(0.172704 0.00103747 0)
(0.172168 0.00100981 0)
(0.171637 0.000982839 0)
(0.17111 0.000956715 0)
(0.170589 0.000931688 0)
(0.170072 0.000908202 0)
(0.169562 0.000887089 0)
(0.16906 0.000869858 0)
(0.168574 0.000857963 0)
(0.168008 0.000840826 0)
(0.197393 0.00643043 0)
(0.197878 0.00703283 0)
(0.19845 0.00750731 0)
(0.19907 0.00784617 0)
(0.199704 0.0080588 0)
(0.200326 0.00815853 0)
(0.200916 0.00815886 0)
(0.20146 0.00807458 0)
(0.201947 0.00792202 0)
(0.20237 0.00771794 0)
(0.202729 0.00747826 0)
(0.203024 0.00721728 0)
(0.203258 0.00694715 0)
(0.203438 0.00667759 0)
(0.203571 0.0064158 0)
(0.203663 0.0061666 0)
(0.203721 0.00593282 0)
(0.203751 0.00571567 0)
(0.203758 0.00551517 0)
(0.203747 0.00533059 0)
(0.203721 0.0051607 0)
(0.203681 0.00500406 0)
(0.203631 0.0048592 0)
(0.203572 0.0047247 0)
(0.203503 0.00459926 0)
(0.203427 0.00448175 0)
(0.203343 0.00437118 0)
(0.203251 0.00426672 0)
(0.203152 0.00416766 0)
(0.203046 0.0040734 0)
(0.202932 0.00398343 0)
(0.202811 0.00389734 0)
(0.202683 0.00381474 0)
(0.202548 0.00373534 0)
(0.202405 0.00365886 0)
(0.202254 0.00358506 0)
(0.202096 0.00351373 0)
(0.20193 0.00344469 0)
(0.201757 0.00337777 0)
(0.201576 0.00331283 0)
(0.201388 0.00324974 0)
(0.201191 0.00318838 0)
(0.200987 0.00312864 0)
(0.200776 0.00307043 0)
(0.200556 0.00301366 0)
(0.200329 0.00295826 0)
(0.200094 0.00290414 0)
(0.199852 0.00285125 0)
(0.199602 0.00279951 0)
(0.199344 0.00274889 0)
(0.199079 0.00269932 0)
(0.198806 0.00265075 0)
(0.198526 0.00260315 0)
(0.198239 0.00255645 0)
(0.197945 0.00251064 0)
(0.197644 0.00246566 0)
(0.197335 0.00242148 0)
(0.19702 0.00237806 0)
(0.196698 0.00233537 0)
(0.19637 0.00229339 0)
(0.196035 0.00225206 0)
(0.195694 0.00221138 0)
(0.195347 0.0021713 0)
(0.194993 0.0021318 0)
(0.194634 0.00209285 0)
(0.19427 0.00205442 0)
(0.1939 0.00201649 0)
(0.193525 0.00197903 0)
(0.193145 0.00194201 0)
(0.19276 0.00190543 0)
(0.19237 0.00186924 0)
(0.191977 0.00183343 0)
(0.191579 0.00179797 0)
(0.191177 0.00176286 0)
(0.190772 0.00172806 0)
(0.190363 0.00169357 0)
(0.189951 0.00165936 0)
(0.189536 0.00162543 0)
(0.189119 0.00159175 0)
(0.188699 0.00155832 0)
(0.188277 0.00152514 0)
(0.187854 0.00149219 0)
(0.187429 0.00145948 0)
(0.187002 0.00142701 0)
(0.186575 0.00139478 0)
(0.186147 0.00136281 0)
(0.185719 0.00133111 0)
(0.185291 0.00129971 0)
(0.184862 0.00126864 0)
(0.184435 0.00123795 0)
(0.184008 0.00120771 0)
(0.183581 0.00117798 0)
(0.183156 0.00114889 0)
(0.182732 0.00112059 0)
(0.18231 0.00109333 0)
(0.18189 0.0010675 0)
(0.181472 0.00104366 0)
(0.18106 0.00102245 0)
(0.18066 0.00100274 0)
(0.180188 0.000970068 0)
(0.19777 0.00617816 0)
(0.198188 0.00670696 0)
(0.198681 0.0071368 0)
(0.19922 0.00745658 0)
(0.19978 0.0076689 0)
(0.200336 0.00778216 0)
(0.20087 0.00780671 0)
(0.201367 0.00775447 0)
(0.201819 0.00763888 0)
(0.202218 0.00747399 0)
(0.202562 0.00727349 0)
(0.202852 0.00704987 0)
(0.203089 0.00681402 0)
(0.203278 0.00657484 0)
(0.203425 0.00633918 0)
(0.203536 0.00611191 0)
(0.203616 0.00589615 0)
(0.20367 0.00569357 0)
(0.203704 0.00550475 0)
(0.203721 0.00532946 0)
(0.203725 0.00516701 0)
(0.203718 0.00501638 0)
(0.203702 0.00487647 0)
(0.203679 0.00474613 0)
(0.20365 0.00462431 0)
(0.203615 0.00451003 0)
(0.203575 0.00440242 0)
(0.203531 0.00430073 0)
(0.203483 0.00420433 0)
(0.20343 0.00411264 0)
(0.203374 0.0040252 0)
(0.203314 0.00394161 0)
(0.20325 0.0038615 0)
(0.203182 0.00378458 0)
(0.20311 0.00371057 0)
(0.203035 0.00363926 0)
(0.202955 0.00357042 0)
(0.202871 0.00350387 0)
(0.202784 0.00343946 0)
(0.202692 0.00337704 0)
(0.202596 0.00331646 0)
(0.202495 0.00325762 0)
(0.20239 0.00320041 0)
(0.202281 0.00314472 0)
(0.202167 0.00309047 0)
(0.202048 0.00303757 0)
(0.201925 0.00298595 0)
(0.201797 0.00293554 0)
(0.201664 0.00288627 0)
(0.201526 0.00283809 0)
(0.201384 0.00279093 0)
(0.201236 0.00274474 0)
(0.201083 0.00269948 0)
(0.200925 0.0026551 0)
(0.200762 0.00261155 0)
(0.200594 0.00256879 0)
(0.20042 0.00252678 0)
(0.200241 0.00248549 0)
(0.200058 0.00244486 0)
(0.199869 0.00240488 0)
(0.199674 0.0023655 0)
(0.199475 0.0023267 0)
(0.19927 0.00228843 0)
(0.199061 0.00225067 0)
(0.198846 0.00221339 0)
(0.198626 0.00217655 0)
(0.198401 0.00214013 0)
(0.198171 0.00210411 0)
(0.197937 0.00206845 0)
(0.197698 0.00203312 0)
(0.197454 0.00199812 0)
(0.197205 0.0019634 0)
(0.196952 0.00192895 0)
(0.196695 0.00189474 0)
(0.196433 0.00186076 0)
(0.196167 0.00182699 0)
(0.195897 0.00179341 0)
(0.195624 0.00176001 0)
(0.195346 0.00172676 0)
(0.195065 0.00169367 0)
(0.194781 0.00166073 0)
(0.194494 0.00162792 0)
(0.194203 0.00159525 0)
(0.193909 0.00156272 0)
(0.193613 0.00153035 0)
(0.193315 0.00149813 0)
(0.193014 0.0014661 0)
(0.19271 0.00143428 0)
(0.192405 0.0014027 0)
(0.192098 0.00137143 0)
(0.19179 0.00134052 0)
(0.19148 0.00131006 0)
(0.191168 0.00128017 0)
(0.190856 0.00125101 0)
(0.190542 0.00122279 0)
(0.190228 0.0011958 0)
(0.189915 0.00117036 0)
(0.189604 0.00114633 0)
(0.1893 0.00112102 0)
(0.188933 0.00107959 0)
(0.198103 0.00594919 0)
(0.198468 0.00641482 0)
(0.198894 0.00680288 0)
(0.199364 0.0071017 0)
(0.199858 0.00730985 0)
(0.200354 0.00743192 0)
(0.200834 0.00747542 0)
(0.201288 0.00744976 0)
(0.201704 0.00736581 0)
(0.202076 0.00723523 0)
(0.202403 0.00706961 0)
(0.202682 0.0068798 0)
(0.202915 0.0066754 0)
(0.203106 0.00646451 0)
(0.203259 0.00625354 0)
(0.203378 0.00604727 0)
(0.203469 0.00584899 0)
(0.203536 0.00566068 0)
(0.203583 0.00548335 0)
(0.203614 0.00531723 0)
(0.203632 0.00516204 0)
(0.20364 0.00501717 0)
(0.203639 0.00488185 0)
(0.203632 0.00475521 0)
(0.203619 0.00463641 0)
(0.203601 0.00452464 0)
(0.20358 0.00441917 0)
(0.203556 0.00431935 0)
(0.203528 0.0042246 0)
(0.203498 0.00413443 0)
(0.203466 0.0040484 0)
(0.203431 0.00396613 0)
(0.203394 0.00388729 0)
(0.203356 0.00381161 0)
(0.203315 0.00373882 0)
(0.203273 0.0036687 0)
(0.203229 0.00360106 0)
(0.203183 0.00353573 0)
(0.203135 0.00347253 0)
(0.203085 0.00341134 0)
(0.203034 0.00335202 0)
(0.20298 0.00329445 0)
(0.202924 0.00323853 0)
(0.202866 0.00318417 0)
(0.202807 0.00313127 0)
(0.202744 0.00307974 0)
(0.20268 0.00302952 0)
(0.202613 0.00298053 0)
(0.202544 0.00293271 0)
(0.202472 0.00288599 0)
(0.202398 0.00284032 0)
(0.202321 0.00279564 0)
(0.202241 0.0027519 0)
(0.202158 0.00270905 0)
(0.202073 0.00266704 0)
(0.201984 0.00262583 0)
(0.201893 0.00258538 0)
(0.201798 0.00254564 0)
(0.2017 0.00250658 0)
(0.201599 0.00246815 0)
(0.201494 0.00243031 0)
(0.201386 0.00239304 0)
(0.201275 0.0023563 0)
(0.20116 0.00232005 0)
(0.201042 0.00228425 0)
(0.20092 0.00224889 0)
(0.200795 0.00221391 0)
(0.200666 0.0021793 0)
(0.200533 0.00214503 0)
(0.200397 0.00211106 0)
(0.200257 0.00207737 0)
(0.200114 0.00204393 0)
(0.199967 0.00201071 0)
(0.199816 0.0019777 0)
(0.199662 0.00194487 0)
(0.199504 0.00191219 0)
(0.199343 0.00187966 0)
(0.199178 0.00184725 0)
(0.19901 0.00181494 0)
(0.198838 0.00178273 0)
(0.198663 0.00175061 0)
(0.198485 0.00171857 0)
(0.198303 0.0016866 0)
(0.198119 0.00165472 0)
(0.197931 0.00162292 0)
(0.19774 0.00159122 0)
(0.197546 0.00155965 0)
(0.19735 0.00152823 0)
(0.19715 0.001497 0)
(0.196948 0.00146601 0)
(0.196744 0.00143534 0)
(0.196536 0.00140506 0)
(0.196327 0.00137529 0)
(0.196114 0.00134618 0)
(0.1959 0.00131792 0)
(0.195684 0.00129069 0)
(0.195467 0.00126457 0)
(0.19525 0.00123895 0)
(0.195036 0.00121055 0)
(0.194769 0.00116672 0)
(0.198398 0.00573952 0)
(0.198719 0.00615113 0)
(0.199089 0.00650103 0)
(0.1995 0.00677842 0)
(0.199935 0.00697972 0)
(0.200376 0.0071068 0)
(0.200808 0.00716482 0)
(0.201219 0.00716096 0)
(0.201601 0.00710391 0)
(0.201947 0.0070032 0)
(0.202254 0.00686855 0)
(0.20252 0.00670926 0)
(0.202747 0.00653373 0)
(0.202936 0.00634922 0)
(0.203091 0.00616167 0)
(0.203215 0.00597566 0)
(0.203312 0.00579451 0)
(0.203387 0.00562044 0)
(0.203443 0.00545476 0)
(0.203482 0.00529806 0)
(0.203509 0.00515042 0)
(0.203526 0.00501158 0)
(0.203534 0.00488104 0)
(0.203535 0.00475822 0)
(0.20353 0.00464248 0)
(0.203521 0.00453317 0)
(0.203508 0.0044297 0)
(0.203492 0.00433152 0)
(0.203474 0.00423813 0)
(0.203453 0.0041491 0)
(0.203431 0.00406404 0)
(0.203407 0.0039826 0)
(0.203381 0.0039045 0)
(0.203355 0.00382946 0)
(0.203327 0.00375725 0)
(0.203298 0.00368767 0)
(0.203269 0.00362053 0)
(0.203239 0.00355567 0)
(0.203208 0.00349294 0)
(0.203176 0.0034322 0)
(0.203144 0.00337334 0)
(0.20311 0.00331624 0)
(0.203077 0.00326079 0)
(0.203042 0.00320692 0)
(0.203007 0.00315452 0)
(0.202971 0.00310352 0)
(0.202934 0.00305385 0)
(0.202896 0.00300544 0)
(0.202857 0.00295822 0)
(0.202818 0.00291213 0)
(0.202777 0.00286712 0)
(0.202735 0.00282313 0)
(0.202692 0.0027801 0)
(0.202648 0.002738 0)
(0.202603 0.00269676 0)
(0.202557 0.00265635 0)
(0.202509 0.00261673 0)
(0.202459 0.00257784 0)
(0.202408 0.00253964 0)
(0.202356 0.00250211 0)
(0.202301 0.00246519 0)
(0.202246 0.00242886 0)
(0.202188 0.00239306 0)
(0.202128 0.00235778 0)
(0.202067 0.00232296 0)
(0.202003 0.00228858 0)
(0.201938 0.00225461 0)
(0.20187 0.00222101 0)
(0.2018 0.00218774 0)
(0.201728 0.00215479 0)
(0.201654 0.00212211 0)
(0.201577 0.00208968 0)
(0.201498 0.00205747 0)
(0.201417 0.00202547 0)
(0.201333 0.00199363 0)
(0.201247 0.00196194 0)
(0.201158 0.00193037 0)
(0.201067 0.00189892 0)
(0.200973 0.00186756 0)
(0.200877 0.00183627 0)
(0.200778 0.00180505 0)
(0.200676 0.0017739 0)
(0.200572 0.00174279 0)
(0.200466 0.00171175 0)
(0.200356 0.00168077 0)
(0.200244 0.00164986 0)
(0.200129 0.00161906 0)
(0.200012 0.00158838 0)
(0.199892 0.00155786 0)
(0.199769 0.00152757 0)
(0.199644 0.00149756 0)
(0.199516 0.00146793 0)
(0.199385 0.00143877 0)
(0.199252 0.00141023 0)
(0.199116 0.00138244 0)
(0.198978 0.00135553 0)
(0.198838 0.00132939 0)
(0.198697 0.0013032 0)
(0.198556 0.00127392 0)