/*--------------------------------*- C++ -*----------------------------------*\
| =========                 |                                                 |
| \\      /  F ield         | OpenFOAM: The Open Source CFD Toolbox           |
|  \\    /   O peration     | Version:  2.3.0                                 |
|   \\  /    A nd           | Web:      www.OpenFOAM.org                      |
|    \\/     M anipulation  |                                                 |
\*---------------------------------------------------------------------------*/
FoamFile
{
    version     2.0;
    format      ascii;
    class       surfaceScalarField;
    location    "1";
    object      phi_0;
}
// * * * * * * * * * * * * * * * * * * * * * * * * * * * * * * * * * * * * * //

dimensions      [0 3 -1 0 0 0 0];

internalField   nonuniform List<scalar> 
1660
(
6.34777e-08
2.71693e-09
-6.61946e-08
5.97945e-08
3.68325e-09
5.58168e-08
3.9776e-09
5.18688e-08
3.948e-09
4.79698e-08
3.89909e-09
4.40804e-08
3.88931e-09
4.02031e-08
3.87732e-09
3.63767e-08
3.8264e-09
3.26643e-08
3.71246e-09
2.91439e-08
3.52035e-09
2.59017e-08
3.24217e-09
2.30027e-08
2.89902e-09
2.05088e-08
2.49396e-09
1.84552e-08
2.05358e-09
1.6837e-08
1.61817e-09
1.56087e-08
1.22834e-09
1.46992e-08
9.09464e-10
1.4033e-08
6.66199e-10
1.35395e-08
4.93561e-10
1.31629e-08
3.76522e-10
1.28608e-08
3.02165e-10
1.26026e-08
2.58165e-10
1.23651e-08
2.3748e-10
1.21344e-08
2.30752e-10
1.19051e-08
2.29238e-10
1.16735e-08
2.31616e-10
1.14418e-08
2.31706e-10
1.12102e-08
2.31639e-10
1.09817e-08
2.28493e-10
1.07584e-08
2.23312e-10
1.05408e-08
2.17558e-10
1.0332e-08
2.0878e-10
1.01306e-08
2.01435e-10
9.93839e-09
1.92202e-10
9.75463e-09
1.83759e-10
9.5786e-09
1.76034e-10
9.41126e-09
1.67343e-10
9.2504e-09
1.60859e-10
9.09699e-09
1.53403e-10
8.94987e-09
1.47121e-10
8.808e-09
1.41876e-10
8.67152e-09
1.36477e-10
8.53922e-09
1.32297e-10
8.41032e-09
1.28904e-10
8.28552e-09
1.24804e-10
8.16222e-09
1.23292e-10
8.04246e-09
1.19766e-10
7.92277e-09
1.19683e-10
7.8057e-09
1.17072e-10
1.31038e-10
7.27418e-08
2.50674e-09
-7.25316e-08
7.28661e-08
3.55899e-09
7.25311e-08
4.31259e-09
7.18521e-08
4.62701e-09
7.09831e-08
4.76804e-09
6.99685e-08
4.90391e-09
6.87741e-08
5.07173e-09
6.73818e-08
5.21875e-09
6.58076e-08
5.28667e-09
6.40839e-08
5.24403e-09
6.22393e-08
5.08673e-09
6.03141e-08
4.82427e-09
5.835e-08
4.45807e-09
5.63915e-08
4.01202e-09
5.44821e-08
3.52763e-09
5.26576e-08
3.05275e-09
5.09371e-08
2.63006e-09
4.93268e-08
2.27649e-09
4.782e-08
2.00036e-09
4.64066e-08
1.78993e-09
4.50854e-08
1.62332e-09
4.38504e-08
1.49318e-09
4.26892e-08
1.3987e-09
4.15956e-08
1.32434e-09
4.05615e-08
1.26332e-09
3.95823e-08
1.21082e-09
3.86526e-08
1.16139e-09
3.777e-08
1.11424e-09
3.69298e-08
1.06874e-09
3.61324e-08
1.02071e-09
3.53716e-08
9.78295e-10
3.46507e-08
9.29717e-10
3.39616e-08
8.9054e-10
3.33084e-08
8.45369e-10
3.26832e-08
8.0902e-10
3.20893e-08
7.69873e-10
3.15197e-08
7.36926e-10
3.09779e-08
7.02646e-10
3.04561e-08
6.75274e-10
2.99596e-08
6.43642e-10
2.94777e-08
6.23705e-10
2.90189e-08
5.95291e-10
2.85706e-08
5.80637e-10
2.81425e-08
5.56991e-10
2.77217e-08
5.45633e-10
2.73186e-08
5.26398e-10
2.69194e-08
5.18869e-10
2.65347e-08
5.04424e-10
2.61499e-08
5.01903e-10
5.06449e-10
7.87711e-08
2.47712e-09
-7.87415e-08
7.90869e-08
3.24327e-09
7.9364e-08
4.03547e-09
7.94909e-08
4.50008e-09
7.95112e-08
4.74779e-09
7.94927e-08
4.92238e-09
7.94515e-08
5.11289e-09
7.93576e-08
5.31265e-09
7.91784e-08
5.46592e-09
7.88938e-08
5.52858e-09
7.84964e-08
5.48411e-09
7.79849e-08
5.33578e-09
7.73589e-08
5.08411e-09
7.66292e-08
4.74174e-09
7.5813e-08
4.34384e-09
7.49369e-08
3.92881e-09
7.40237e-08
3.54327e-09
7.30925e-08
3.20764e-09
7.21506e-08
2.94226e-09
7.12113e-08
2.72931e-09
7.02666e-08
2.56801e-09
6.93268e-08
2.43295e-09
6.83878e-08
2.33768e-09
6.74571e-08
2.25507e-09
6.65284e-08
2.19197e-09
6.5608e-08
2.13123e-09
6.46902e-08
2.07918e-09
6.37817e-08
2.02278e-09
6.28773e-08
1.97313e-09
6.19848e-08
1.9132e-09
6.1098e-08
1.86511e-09
6.0227e-08
1.80074e-09
5.93626e-08
1.75496e-09
5.85177e-08
1.69023e-09
5.76804e-08
1.64634e-09
5.68653e-08
1.58497e-09
5.60588e-08
1.54344e-09
5.5276e-08
1.48541e-09
5.45023e-08
1.44894e-09
5.37537e-08
1.39232e-09
5.30126e-08
1.36475e-09
5.22979e-08
1.31002e-09
5.15882e-08
1.29032e-09
5.09056e-08
1.23956e-09
5.02255e-08
1.2258e-09
4.9572e-08
1.17984e-09
4.89183e-08
1.17258e-09
4.82899e-08
1.13281e-09
4.76559e-08
1.13595e-09
1.11149e-09
8.53474e-08
2.48161e-09
-8.53519e-08
8.55145e-08
3.0762e-09
8.58077e-08
3.74227e-09
8.60611e-08
4.24662e-09
8.62342e-08
4.57468e-09
8.63777e-08
4.77888e-09
8.65468e-08
4.94384e-09
8.6744e-08
5.11549e-09
8.69372e-08
5.27271e-09
8.71042e-08
5.36153e-09
8.72192e-08
5.36912e-09
8.72747e-08
5.28024e-09
8.72553e-08
5.10356e-09
8.7156e-08
4.84101e-09
8.69749e-08
4.525e-09
8.67239e-08
4.17981e-09
8.6416e-08
3.85116e-09
8.60698e-08
3.55384e-09
8.5694e-08
3.31803e-09
8.53025e-08
3.12084e-09
8.48874e-08
2.98313e-09
8.44607e-08
2.85962e-09
8.40153e-08
2.78304e-09
8.35637e-08
2.70675e-09
8.30957e-08
2.6599e-09
8.26205e-08
2.60644e-09
8.21296e-08
2.57012e-09
8.16292e-08
2.52317e-09
8.11129e-08
2.48944e-09
8.05866e-08
2.43947e-09
8.00435e-08
2.40823e-09
7.94937e-08
2.35051e-09
7.89257e-08
2.32293e-09
7.83548e-08
2.26114e-09
7.77659e-08
2.23529e-09
7.7176e-08
2.17486e-09
7.6571e-08
2.14839e-09
7.59654e-08
2.09107e-09
7.53479e-08
2.06642e-09
7.47315e-08
2.00873e-09
7.4104e-08
1.9922e-09
7.34811e-08
1.93295e-09
7.28467e-08
1.92476e-09
7.22187e-08
1.86754e-09
7.15799e-08
1.86453e-09
7.09474e-08
1.81238e-09
7.03046e-08
1.81534e-09
6.96683e-08
1.76919e-09
6.90207e-08
1.78353e-09
1.74969e-09
9.24412e-08
2.47932e-09
-9.24389e-08
9.25472e-08
2.97012e-09
9.27809e-08
3.50859e-09
9.30345e-08
3.99301e-09
9.32482e-08
4.36105e-09
9.34285e-08
4.59851e-09
9.36125e-08
4.7599e-09
9.38259e-08
4.9021e-09
9.40614e-08
5.03714e-09
9.43006e-08
5.12239e-09
9.45157e-08
5.15403e-09
9.46971e-08
5.09881e-09
9.48322e-08
4.96848e-09
9.49138e-08
4.75937e-09
9.49357e-08
4.5031e-09
9.49036e-08
4.21196e-09
9.48252e-08
3.92953e-09
9.4717e-08
3.66202e-09
9.45862e-08
3.44886e-09
9.44458e-08
3.2612e-09
9.42909e-08
3.13802e-09
9.41315e-08
3.019e-09
9.39613e-08
2.95331e-09
9.37898e-08
2.87825e-09
9.36105e-08
2.83919e-09
9.34282e-08
2.78873e-09
9.32388e-08
2.75952e-09
9.30431e-08
2.71888e-09
9.28386e-08
2.69393e-09
9.26252e-08
2.65284e-09
9.23991e-08
2.63434e-09
9.21648e-08
2.58479e-09
9.19153e-08
2.57247e-09
9.16581e-08
2.5183e-09
9.1385e-08
2.50838e-09
9.11021e-08
2.45778e-09
9.0806e-08
2.44453e-09
9.04975e-08
2.39951e-09
9.01776e-08
2.38635e-09
8.98448e-08
2.34159e-09
8.95006e-08
2.33636e-09
8.91453e-08
2.28826e-09
8.87791e-08
2.291e-09
8.8401e-08
2.24557e-09
8.80136e-08
2.25201e-09
8.7612e-08
2.21391e-09
8.72026e-08
2.22481e-09
8.67776e-08
2.19411e-09
8.63456e-08
2.2156e-09
2.19843e-09
1.00082e-07
2.46669e-09
-1.00069e-07
1.00164e-07
2.88733e-09
1.00344e-07
3.32948e-09
1.00571e-07
3.76512e-09
1.00796e-07
4.13652e-09
1.00999e-07
4.39585e-09
1.01185e-07
4.57326e-09
1.01386e-07
4.70147e-09
1.01606e-07
4.81748e-09
1.01836e-07
4.89176e-09
1.02056e-07
4.93452e-09
1.0225e-07
4.90466e-09
1.02409e-07
4.80923e-09
1.02525e-07
4.64385e-09
1.02592e-07
4.43534e-09
1.02614e-07
4.19009e-09
1.02597e-07
3.94657e-09
1.02554e-07
3.70494e-09
1.02494e-07
3.50871e-09
1.02427e-07
3.32812e-09
1.02355e-07
3.21074e-09
1.02281e-07
3.0929e-09
1.02205e-07
3.02869e-09
1.02131e-07
2.95255e-09
1.02059e-07
2.91151e-09
1.01987e-07
2.8608e-09
1.01918e-07
2.82851e-09
1.01847e-07
2.78983e-09
1.01778e-07
2.76311e-09
1.01705e-07
2.72598e-09
1.01629e-07
2.70958e-09
1.01549e-07
2.66513e-09
1.01465e-07
2.65656e-09
1.01375e-07
2.60863e-09
1.01281e-07
2.60234e-09
1.01177e-07
2.56176e-09
1.0107e-07
2.55065e-09
1.00952e-07
2.51788e-09
1.00832e-07
2.50667e-09
1.00698e-07
2.47564e-09
1.00561e-07
2.47321e-09
1.00411e-07
2.43851e-09
1.00258e-07
2.44336e-09
1.00091e-07
2.41275e-09
9.99223e-08
2.42078e-09
9.9736e-08
2.40016e-09
9.95491e-08
2.41178e-09
9.93433e-08
2.39987e-09
9.91357e-08
2.4232e-09
2.42556e-09
1.08318e-07
2.4471e-09
-1.08299e-07
1.08392e-07
2.8139e-09
1.08528e-07
3.1928e-09
1.08728e-07
3.56587e-09
1.08944e-07
3.91997e-09
1.09156e-07
4.18438e-09
1.09347e-07
4.38151e-09
1.0954e-07
4.50842e-09
1.09743e-07
4.61497e-09
1.09952e-07
4.68259e-09
1.10158e-07
4.72849e-09
1.10346e-07
4.71646e-09
1.10506e-07
4.64974e-09
1.10626e-07
4.52349e-09
1.10705e-07
4.35652e-09
1.10742e-07
4.15337e-09
1.10743e-07
3.94488e-09
1.10718e-07
3.7301e-09
1.10678e-07
3.54923e-09
1.10629e-07
3.37735e-09
1.10577e-07
3.26193e-09
1.10524e-07
3.14589e-09
1.10474e-07
3.07902e-09
1.10424e-07
3.00247e-09
1.1038e-07
2.95559e-09
1.10337e-07
2.90419e-09
1.103e-07
2.86499e-09
1.10263e-07
2.82678e-09
1.10232e-07
2.79389e-09
1.10201e-07
2.75787e-09
1.10172e-07
2.73793e-09
1.10141e-07
2.6963e-09
1.10113e-07
2.68503e-09
1.1008e-07
2.64159e-09
1.1005e-07
2.63181e-09
1.10013e-07
2.59849e-09
1.0998e-07
2.58385e-09
1.09939e-07
2.55906e-09
1.09901e-07
2.54495e-09
1.09854e-07
2.52267e-09
1.09808e-07
2.51848e-09
1.09754e-07
2.49266e-09
1.09702e-07
2.4952e-09
1.09641e-07
2.47429e-09
1.09582e-07
2.47996e-09
1.09511e-07
2.47075e-09
1.09443e-07
2.47998e-09
1.09363e-07
2.47982e-09
1.09284e-07
2.50256e-09
2.51613e-09
1.17203e-07
2.42323e-09
-1.17179e-07
1.17269e-07
2.74733e-09
1.17384e-07
3.07835e-09
1.17549e-07
3.40079e-09
1.1775e-07
3.71908e-09
1.17956e-07
3.97847e-09
1.18153e-07
4.18422e-09
1.1834e-07
4.32157e-09
1.18529e-07
4.42563e-09
1.18718e-07
4.494e-09
1.18907e-07
4.53918e-09
1.19084e-07
4.54004e-09
1.19237e-07
4.49635e-09
1.19357e-07
4.40361e-09
1.1944e-07
4.27325e-09
1.19485e-07
4.10846e-09
1.19497e-07
3.93246e-09
1.19482e-07
3.74545e-09
1.19451e-07
3.58054e-09
1.19409e-07
3.4194e-09
1.19365e-07
3.30547e-09
1.19319e-07
3.19183e-09
1.19276e-07
3.12188e-09
1.19234e-07
3.04533e-09
1.19196e-07
2.99284e-09
1.1916e-07
2.94038e-09
1.1913e-07
2.89488e-09
1.19101e-07
2.85611e-09
1.19077e-07
2.81756e-09
1.19054e-07
2.78086e-09
1.19036e-07
2.7565e-09
1.19016e-07
2.71598e-09
1.19e-07
2.70074e-09
1.18982e-07
2.66017e-09
1.18968e-07
2.64588e-09
1.1895e-07
2.61653e-09
1.18935e-07
2.59838e-09
1.18917e-07
2.57745e-09
1.18901e-07
2.5608e-09
1.18881e-07
2.54226e-09
1.18863e-07
2.53628e-09
1.18842e-07
2.51456e-09
1.18822e-07
2.51505e-09
1.18797e-07
2.49877e-09
1.18775e-07
2.5022e-09
1.18747e-07
2.49823e-09
1.18722e-07
2.50575e-09
1.18691e-07
2.51065e-09
1.18661e-07
2.53235e-09
2.5506e-09
1.26789e-07
2.39406e-09
-1.2676e-07
1.2685e-07
2.68602e-09
1.26949e-07
2.97983e-09
1.27088e-07
3.2617e-09
1.27266e-07
3.54068e-09
1.2746e-07
3.78466e-09
1.27654e-07
3.9904e-09
1.27837e-07
4.13839e-09
1.28014e-07
4.2487e-09
1.28186e-07
4.32192e-09
1.28358e-07
4.36756e-09
1.28519e-07
4.37881e-09
1.28662e-07
4.35341e-09
1.28778e-07
4.28755e-09
1.28863e-07
4.18857e-09
1.28914e-07
4.05739e-09
1.28935e-07
3.91161e-09
1.28929e-07
3.75158e-09
1.28905e-07
3.60438e-09
1.28869e-07
3.45509e-09
1.28831e-07
3.34367e-09
1.2879e-07
3.23272e-09
1.28752e-07
3.16029e-09
1.28713e-07
3.08367e-09
1.28679e-07
3.02707e-09
1.28647e-07
2.97276e-09
1.28618e-07
2.92312e-09
1.28592e-07
2.88244e-09
1.28569e-07
2.84037e-09
1.28548e-07
2.80177e-09
1.28531e-07
2.77376e-09
1.28514e-07
2.73326e-09
1.285e-07
2.7145e-09
1.28485e-07
2.6755e-09
1.28473e-07
2.65785e-09
1.28459e-07
2.62996e-09
1.28448e-07
2.6099e-09
1.28435e-07
2.59011e-09
1.28423e-07
2.57265e-09
1.28411e-07
2.5548e-09
1.28399e-07
2.54813e-09
1.28386e-07
2.52777e-09
1.28373e-07
2.52741e-09
1.28359e-07
2.51325e-09
1.28346e-07
2.5156e-09
1.2833e-07
2.51344e-09
1.28315e-07
2.52065e-09
1.28299e-07
2.52719e-09
1.28283e-07
2.5482e-09
2.56834e-09
1.37141e-07
2.37874e-09
-1.37125e-07
1.37188e-07
2.63828e-09
1.37274e-07
2.89401e-09
1.37396e-07
3.13993e-09
1.3755e-07
3.38633e-09
1.37728e-07
3.60716e-09
1.3791e-07
3.80795e-09
1.38085e-07
3.96351e-09
1.38251e-07
4.08258e-09
1.38409e-07
4.16369e-09
1.38563e-07
4.21384e-09
1.38708e-07
4.23414e-09
1.38837e-07
4.22376e-09
1.38946e-07
4.17881e-09
1.39029e-07
4.10569e-09
1.39084e-07
4.00253e-09
1.39111e-07
3.88423e-09
1.39114e-07
3.74895e-09
1.39098e-07
3.62054e-09
1.39068e-07
3.48451e-09
1.39036e-07
3.37647e-09
1.38999e-07
3.26897e-09
1.38965e-07
3.19438e-09
1.38931e-07
3.11762e-09
1.389e-07
3.05822e-09
1.38871e-07
3.00142e-09
1.38845e-07
2.94978e-09
1.38821e-07
2.90596e-09
1.38799e-07
2.86236e-09
1.3878e-07
2.82131e-09
1.38763e-07
2.79052e-09
1.38747e-07
2.74965e-09
1.38733e-07
2.72774e-09
1.38719e-07
2.68972e-09
1.38707e-07
2.66953e-09
1.38695e-07
2.64194e-09
1.38684e-07
2.62104e-09
1.38674e-07
2.60092e-09
1.38662e-07
2.58399e-09
1.38652e-07
2.56532e-09
1.38641e-07
2.55859e-09
1.3863e-07
2.5387e-09
1.3862e-07
2.5379e-09
1.38608e-07
2.5251e-09
1.38596e-07
2.52714e-09
1.38584e-07
2.52542e-09
1.38572e-07
2.53304e-09
1.38559e-07
2.54007e-09
1.38547e-07
2.56082e-09
2.58194e-09
1.70113e-07
2.33458e-09
-1.70069e-07
1.70182e-07
2.56867e-09
1.70281e-07
2.79542e-09
1.70409e-07
3.01157e-09
1.70565e-07
3.23029e-09
1.70742e-07
3.43081e-09
1.7093e-07
3.61983e-09
1.71112e-07
3.78172e-09
1.71283e-07
3.91168e-09
1.71444e-07
4.00263e-09
1.71596e-07
4.06139e-09
1.71739e-07
4.09105e-09
1.71868e-07
4.09455e-09
1.7198e-07
4.06749e-09
1.72068e-07
4.01764e-09
1.72131e-07
3.93956e-09
1.72167e-07
3.84835e-09
1.72178e-07
3.73771e-09
1.72169e-07
3.6294e-09
1.72143e-07
3.51026e-09
1.72112e-07
3.40736e-09
1.72077e-07
3.3042e-09
1.72045e-07
3.22687e-09
1.72012e-07
3.14991e-09
1.71982e-07
3.08853e-09
1.71955e-07
3.02851e-09
1.71928e-07
2.97689e-09
1.71905e-07
2.92868e-09
1.71882e-07
2.88536e-09
1.71862e-07
2.84153e-09
1.71844e-07
2.80833e-09
1.71826e-07
2.76735e-09
1.71812e-07
2.74165e-09
1.71797e-07
2.70497e-09
1.71785e-07
2.68195e-09
1.71772e-07
2.6543e-09
1.7176e-07
2.63319e-09
1.7175e-07
2.61157e-09
1.71737e-07
2.59628e-09
1.71727e-07
2.57588e-09
1.71716e-07
2.56925e-09
1.71705e-07
2.54998e-09
1.71694e-07
2.54844e-09
1.71682e-07
2.53709e-09
1.7167e-07
2.53915e-09
1.71658e-07
2.53736e-09
1.71646e-07
2.54579e-09
1.71633e-07
2.55293e-09
1.7162e-07
2.5737e-09
2.59567e-09
2.14567e-07
2.27927e-09
-2.14512e-07
2.14654e-07
2.48125e-09
2.14771e-07
2.67867e-09
2.14911e-07
2.87169e-09
2.15069e-07
3.07221e-09
2.15238e-07
3.2616e-09
2.15413e-07
3.4448e-09
2.15586e-07
3.60886e-09
2.15751e-07
3.74732e-09
2.15905e-07
3.84813e-09
2.16049e-07
3.9179e-09
2.16182e-07
3.95743e-09
2.16303e-07
3.97369e-09
2.1641e-07
3.96072e-09
2.16497e-07
3.93059e-09
2.16564e-07
3.8727e-09
2.16606e-07
3.80561e-09
2.16627e-07
3.7176e-09
2.16627e-07
3.62859e-09
2.1661e-07
3.52809e-09
2.16584e-07
3.43317e-09
2.1655e-07
3.3379e-09
2.16521e-07
3.25575e-09
2.16493e-07
3.17822e-09
2.16466e-07
3.11552e-09
2.16443e-07
3.05109e-09
2.16418e-07
3.00176e-09
2.16399e-07
2.94812e-09
2.16377e-07
2.90708e-09
2.16358e-07
2.86082e-09
2.16341e-07
2.82533e-09
2.16323e-07
2.78554e-09
2.1631e-07
2.75467e-09
2.16294e-07
2.72043e-09
2.16282e-07
2.69403e-09
2.16271e-07
2.66587e-09
2.16258e-07
2.64562e-09
2.16249e-07
2.62095e-09
2.16237e-07
2.60845e-09
2.16227e-07
2.58588e-09
2.16217e-07
2.57904e-09
2.16206e-07
2.56128e-09
2.16196e-07
2.5583e-09
2.16184e-07
2.54849e-09
2.16173e-07
2.5509e-09
2.16161e-07
2.54856e-09
2.16149e-07
2.55834e-09
2.16136e-07
2.56562e-09
2.16124e-07
2.58552e-09
2.60937e-09
2.70658e-07
2.20138e-09
-2.7058e-07
2.70767e-07
2.37147e-09
2.70898e-07
2.54754e-09
2.7104e-07
2.73013e-09
2.71184e-07
2.92831e-09
2.71323e-07
3.12232e-09
2.71454e-07
3.3138e-09
2.71586e-07
3.47669e-09
2.71719e-07
3.61497e-09
2.71844e-07
3.72255e-09
2.7196e-07
3.80172e-09
2.72069e-07
3.8494e-09
2.72166e-07
3.87615e-09
2.72254e-07
3.8727e-09
2.72327e-07
3.85737e-09
2.72387e-07
3.81293e-09
2.72429e-07
3.76327e-09
2.72454e-07
3.69272e-09
2.72464e-07
3.61838e-09
2.72458e-07
3.53495e-09
2.72444e-07
3.44715e-09
2.72419e-07
3.36287e-09
2.72395e-07
3.2792e-09
2.72375e-07
3.19879e-09
2.72356e-07
3.13437e-09
2.72342e-07
3.06488e-09
2.72324e-07
3.01944e-09
2.72312e-07
2.9605e-09
2.72296e-07
2.92292e-09
2.72281e-07
2.87548e-09
2.72269e-07
2.83742e-09
2.72254e-07
2.80058e-09
2.72245e-07
2.76375e-09
2.72233e-07
2.73291e-09
2.72223e-07
2.7034e-09
2.72215e-07
2.67393e-09
2.72205e-07
2.65557e-09
2.72199e-07
2.62703e-09
2.7219e-07
2.61753e-09
2.72183e-07
2.59351e-09
2.72176e-07
2.58566e-09
2.72167e-07
2.57046e-09
2.7216e-07
2.5654e-09
2.72151e-07
2.55697e-09
2.72142e-07
2.55998e-09
2.72134e-07
2.55689e-09
2.72124e-07
2.56787e-09
2.72114e-07
2.57544e-09
2.72104e-07
2.59559e-09
2.61877e-09
3.41581e-07
-3.41505e-07
3.41674e-07
3.4177e-07
3.41856e-07
3.41924e-07
3.41973e-07
3.42027e-07
3.42083e-07
3.4214e-07
3.42197e-07
3.4225e-07
3.42301e-07
3.42346e-07
3.42388e-07
3.42423e-07
3.42453e-07
3.42475e-07
3.42491e-07
3.42501e-07
3.42502e-07
3.42501e-07
3.42493e-07
3.42486e-07
3.42477e-07
3.42471e-07
3.42468e-07
3.42463e-07
3.4246e-07
3.42456e-07
3.42451e-07
3.42448e-07
3.42443e-07
3.42441e-07
3.42438e-07
3.42435e-07
3.42434e-07
3.42431e-07
3.4243e-07
3.42428e-07
3.42426e-07
3.42425e-07
3.42423e-07
3.42422e-07
3.4242e-07
3.42418e-07
3.42416e-07
3.42413e-07
3.42411e-07
3.42407e-07
6.90599e-08
-1.31431e-10
6.90358e-08
-4.62172e-11
6.89693e-08
8.60889e-11
6.89066e-08
9.24677e-11
6.8824e-08
2.16102e-10
6.87416e-08
1.54732e-10
6.86315e-08
3.08119e-10
6.8501e-08
2.50444e-10
6.82696e-08
5.04737e-10
6.79391e-08
5.63248e-10
6.72768e-08
1.17115e-09
1.78348e-09
7.446e-08
-5.65676e-11
7.44847e-08
-7.09749e-11
7.44046e-08
1.66163e-10
7.43726e-08
1.24479e-10
7.42605e-08
3.28273e-10
7.41836e-08
2.31628e-10
7.40274e-08
4.64308e-10
7.38677e-08
4.10103e-10
7.3606e-08
7.66457e-10
7.3239e-08
9.3029e-10
7.28153e-08
1.59476e-09
2.06719e-09
8.04322e-08
1.32924e-11
8.04099e-08
-4.8674e-11
8.03737e-08
2.02402e-10
8.02944e-08
2.0371e-10
8.02273e-08
3.95433e-10
8.00791e-08
3.79821e-10
7.99725e-08
5.70861e-10
7.97135e-08
6.69174e-10
7.95138e-08
9.66099e-10
7.9153e-08
1.29108e-09
7.89747e-08
1.77307e-09
2.30039e-09
8.69151e-08
4.52631e-11
8.68457e-08
2.07386e-11
8.68325e-08
2.15512e-10
8.67369e-08
2.99395e-10
8.66717e-08
4.60552e-10
8.65127e-08
5.38856e-10
8.63735e-08
7.10081e-10
8.61413e-08
9.01372e-10
8.59209e-08
1.18652e-09
8.5666e-08
1.54598e-09
8.54944e-08
1.94466e-09
2.44288e-09
9.38909e-08
6.23331e-11
9.38152e-08
9.64777e-11
9.37867e-08
2.4397e-10
9.37008e-08
3.85369e-10
9.3615e-08
5.46324e-10
9.3465e-08
6.88879e-10
9.32995e-08
8.75557e-10
9.30948e-08
1.10606e-09
9.28832e-08
1.39812e-09
9.26891e-08
1.7401e-09
9.25246e-08
2.10917e-09
2.52857e-09
1.01412e-07
7.70187e-11
1.01347e-07
1.61084e-10
1.01292e-07
2.99003e-10
1.01212e-07
4.65025e-10
1.01109e-07
6.49183e-10
1.00968e-07
8.30595e-10
1.00797e-07
1.04605e-09
1.0061e-07
1.29331e-09
1.00419e-07
1.58893e-09
1.00259e-07
1.90053e-09
1.00126e-07
2.24157e-09
2.58588e-09
1.09531e-07
9.20186e-11
1.09476e-07
2.16875e-10
1.09405e-07
3.69962e-10
1.09318e-07
5.51294e-10
1.09207e-07
7.60401e-10
1.09069e-07
9.68331e-10
1.08907e-07
1.20821e-09
1.08736e-07
1.46423e-09
1.0857e-07
1.75515e-09
1.08435e-07
2.0353e-09
1.08337e-07
2.3401e-09
2.62404e-09
1.18301e-07
1.07668e-10
1.18249e-07
2.68393e-10
1.18171e-07
4.48938e-10
1.18076e-07
6.46057e-10
1.17961e-07
8.75331e-10
1.17826e-07
1.10307e-09
1.17677e-07
1.35752e-09
1.17525e-07
1.61609e-09
1.17385e-07
1.89511e-09
1.17273e-07
2.14699e-09
1.17201e-07
2.41233e-09
2.64603e-09
1.27773e-07
1.24133e-10
1.27721e-07
3.19952e-10
1.2764e-07
5.29486e-10
1.27541e-07
7.45644e-10
1.27425e-07
9.91471e-10
1.27295e-07
1.23321e-09
1.27159e-07
1.49348e-09
1.27027e-07
1.7476e-09
1.26915e-07
2.00723e-09
1.26826e-07
2.23593e-09
1.26771e-07
2.4679e-09
2.65655e-09
1.38002e-07
1.4182e-10
1.3795e-07
3.72557e-10
1.37869e-07
6.09944e-10
1.37768e-07
8.46231e-10
1.37654e-07
1.10613e-09
1.37531e-07
1.35643e-09
1.37408e-07
1.61617e-09
1.37295e-07
1.86085e-09
1.37211e-07
2.09096e-09
1.3715e-07
2.29695e-09
1.37125e-07
2.49286e-09
2.65625e-09
1.70996e-07
1.64312e-10
1.70929e-07
4.39028e-10
1.7083e-07
7.09246e-10
1.70711e-07
9.65592e-10
1.7058e-07
1.23712e-09
1.70447e-07
1.48948e-09
1.70322e-07
1.74123e-09
1.70216e-07
1.96609e-09
1.7014e-07
2.16759e-09
1.70083e-07
2.35345e-09
1.70056e-07
2.51976e-09
2.64407e-09
2.15441e-07
1.93287e-10
2.15357e-07
5.23047e-10
2.15235e-07
8.30675e-10
2.15097e-07
1.10363e-09
2.14953e-07
1.3814e-09
2.14816e-07
1.62694e-09
2.14692e-07
1.86509e-09
2.14601e-07
2.05662e-09
2.14528e-07
2.2412e-09
2.14485e-07
2.3959e-09
2.14479e-07
2.52538e-09
2.61184e-09
2.71442e-07
2.26071e-10
2.71353e-07
6.12622e-10
2.71222e-07
9.61196e-10
2.71076e-07
1.24914e-09
2.70927e-07
1.53044e-09
2.70803e-07
1.75146e-09
2.70702e-07
1.96615e-09
2.70613e-07
2.14595e-09
2.70551e-07
2.303e-09
2.70521e-07
2.42534e-09
2.70529e-07
2.5175e-09
2.56133e-09
3.42014e-07
3.4195e-07
3.41858e-07
3.41756e-07
3.41654e-07
3.41581e-07
3.4152e-07
3.41472e-07
3.4144e-07
3.4143e-07
3.41448e-07
)
;

boundaryField
{
    top
    {
        type            calculated;
        value           nonuniform List<scalar> 
62
(
2.12543e-09
2.2778e-09
2.45195e-09
2.6438e-09
2.86068e-09
3.07339e-09
3.25983e-09
3.42045e-09
3.55771e-09
3.66617e-09
3.74819e-09
3.79895e-09
3.83058e-09
3.8311e-09
3.82229e-09
3.7831e-09
3.74043e-09
3.67721e-09
3.60872e-09
3.53335e-09
3.44865e-09
3.37037e-09
3.28661e-09
3.2072e-09
3.14099e-09
3.06761e-09
3.02461e-09
2.96327e-09
2.92755e-09
2.87995e-09
2.84037e-09
2.80556e-09
2.76558e-09
2.73669e-09
2.70581e-09
2.6755e-09
2.65831e-09
2.6277e-09
2.61961e-09
2.59525e-09
2.58653e-09
2.57294e-09
2.56656e-09
2.55889e-09
2.56213e-09
2.55875e-09
2.57024e-09
2.57839e-09
2.59899e-09
2.62007e-09
2.49288e-10
6.75823e-10
1.05359e-09
1.35147e-09
1.63183e-09
1.82471e-09
2.02778e-09
2.19387e-09
2.33437e-09
2.43573e-09
2.49935e-09
2.50469e-09
)
;
    }
    inlet
    {
        type            calculated;
        value           nonuniform List<scalar> 
14
(
-1.71018e-07
-2.1547e-07
-2.71475e-07
-3.42037e-07
-6.90099e-08
-7.45348e-08
-8.05021e-08
-8.6947e-08
-9.3908e-08
-1.01426e-07
-1.09546e-07
-1.18317e-07
-1.27789e-07
-1.3802e-07
)
;
    }
    outlet
    {
        type            calculated;
        value           nonuniform List<scalar> 
14
(
1.71606e-07
2.16111e-07
2.72095e-07
3.42406e-07
7.67466e-09
2.57745e-08
4.70508e-08
6.83825e-08
8.58968e-08
9.89086e-08
1.09193e-07
1.18627e-07
1.28265e-07
1.38533e-07
)
;
    }
    plate
    {
        type            calculated;
        value           uniform 0;
    }
    symmBound
    {
        type            calculated;
        value           nonuniform List<scalar> 
12
(
8.13929e-11
7.03448e-11
-1.95673e-11
-2.97449e-11
-1.33511e-10
-7.23833e-11
-1.98003e-10
-1.19896e-10
-2.73365e-10
-2.327e-10
-5.08852e-10
-7.01361e-10
)
;
    }
    frontAndBack
    {
        type            empty;
        value           nonuniform 0();
    }
}


// ************************************************************************* //
