/*--------------------------------*- C++ -*----------------------------------*\
| =========                 |                                                 |
| \\      /  F ield         | OpenFOAM: The Open Source CFD Toolbox           |
|  \\    /   O peration     | Version:  2.3.0                                 |
|   \\  /    A nd           | Web:      www.OpenFOAM.org                      |
|    \\/     M anipulation  |                                                 |
\*---------------------------------------------------------------------------*/
FoamFile
{
    version     2.0;
    format      ascii;
    class       volVectorField;
    location    "0.8";
    object      U_0;
}
// * * * * * * * * * * * * * * * * * * * * * * * * * * * * * * * * * * * * * //

dimensions      [0 1 -1 0 0 0 0];

internalField   nonuniform List<vector> 
3105
(
(0.176796 0.00434444 0)
(0.156087 0.00594967 0)
(0.13739 0.0061215 0)
(0.119254 0.00553044 0)
(0.101764 0.00473143 0)
(0.0857184 0.0038485 0)
(0.0721559 0.00288942 0)
(0.0614956 0.00187653 0)
(0.0535664 0.000988311 0)
(0.0478434 0.000380541 0)
(0.0437604 5.37568e-05 0)
(0.0408437 -8.07616e-05 0)
(0.0387117 -0.000107114 0)
(0.0370796 -8.2399e-05 0)
(0.0357439 -3.89024e-05 0)
(0.0345754 4.29141e-06 0)
(0.033503 3.7754e-05 0)
(0.0324938 5.93424e-05 0)
(0.0315366 7.07749e-05 0)
(0.0306299 7.49566e-05 0)
(0.0297745 7.46036e-05 0)
(0.0289709 7.17745e-05 0)
(0.0282182 6.78272e-05 0)
(0.0275139 6.35662e-05 0)
(0.0268548 5.94158e-05 0)
(0.026237 5.55649e-05 0)
(0.0256567 5.2065e-05 0)
(0.0251103 4.89084e-05 0)
(0.0245946 4.60573e-05 0)
(0.0241064 4.34744e-05 0)
(0.0236435 4.11177e-05 0)
(0.0232033 3.89591e-05 0)
(0.0227842 3.69664e-05 0)
(0.0223844 3.51239e-05 0)
(0.0220026 3.34073e-05 0)
(0.0216372 3.18101e-05 0)
(0.0212874 3.03127e-05 0)
(0.0209519 2.89146e-05 0)
(0.02063 2.75982e-05 0)
(0.0203206 2.63676e-05 0)
(0.0200233 2.52045e-05 0)
(0.019737 2.41179e-05 0)
(0.0194615 2.30868e-05 0)
(0.0191956 2.21251e-05 0)
(0.0189394 2.12082e-05 0)
(0.0186917 2.03553e-05 0)
(0.0184528 1.95373e-05 0)
(0.0182214 1.87792e-05 0)
(0.017998 1.80466e-05 0)
(0.0177812 1.73715e-05 0)
(0.0175717 1.67127e-05 0)
(0.017368 1.61106e-05 0)
(0.0171711 1.55152e-05 0)
(0.0169794 1.49776e-05 0)
(0.016794 1.44367e-05 0)
(0.0166129 1.39564e-05 0)
(0.016438 1.34623e-05 0)
(0.0162667 1.30335e-05 0)
(0.0161013 1.25795e-05 0)
(0.0159389 1.21974e-05 0)
(0.0157823 1.17771e-05 0)
(0.0156279 1.1438e-05 0)
(0.0154795 1.10458e-05 0)
(0.0153325 1.07469e-05 0)
(0.0151915 1.03777e-05 0)
(0.0150513 1.01167e-05 0)
(0.0149174 9.7657e-06 0)
(0.0147832 9.54103e-06 0)
(0.0146559 9.20369e-06 0)
(0.0145272 9.01494e-06 0)
(0.0144061 8.6863e-06 0)
(0.0142824 8.53389e-06 0)
(0.0141673 8.20903e-06 0)
(0.0140481 8.09419e-06 0)
(0.0139386 7.76809e-06 0)
(0.0138234 7.6928e-06 0)
(0.0137194 7.36e-06 0)
(0.0136076 7.32765e-06 0)
(0.0135091 6.98205e-06 0)
(0.0134001 6.99685e-06 0)
(0.0133069 6.63223e-06 0)
(0.0132002 6.69948e-06 0)
(0.0131124 6.30826e-06 0)
(0.0130073 6.43635e-06 0)
(0.012925 6.00806e-06 0)
(0.0128208 6.20825e-06 0)
(0.0127442 5.73138e-06 0)
(0.0126399 6.01651e-06 0)
(0.0125695 5.47793e-06 0)
(0.012464 5.86534e-06 0)
(0.0124002 5.24679e-06 0)
(0.0122922 5.76164e-06 0)
(0.0122357 5.03823e-06 0)
(0.0121234 5.71573e-06 0)
(0.0120754 4.85232e-06 0)
(0.0119562 5.74868e-06 0)
(0.0119187 4.68219e-06 0)
(0.0117884 5.90436e-06 0)
(0.0117657 4.60456e-06 0)
(0.0116108 7.75318e-06 0)
(0.192274 0.00771236 0)
(0.190397 0.0107981 0)
(0.18782 0.0118837 0)
(0.18396 0.0117271 0)
(0.178523 0.0110938 0)
(0.171684 0.0102049 0)
(0.164059 0.00905882 0)
(0.15614 0.0076511 0)
(0.148311 0.00613243 0)
(0.140804 0.00472079 0)
(0.133753 0.00355871 0)
(0.127258 0.00267744 0)
(0.121362 0.00204296 0)
(0.116073 0.00160842 0)
(0.111347 0.00132217 0)
(0.107113 0.00113537 0)
(0.103301 0.00100897 0)
(0.0998439 0.000916523 0)
(0.0966896 0.000842381 0)
(0.0937944 0.000778321 0)
(0.0911237 0.000720516 0)
(0.0886495 0.000667481 0)
(0.086349 0.000618775 0)
(0.0842028 0.000574304 0)
(0.0821948 0.000533984 0)
(0.0803104 0.00049763 0)
(0.0785377 0.000464931 0)
(0.0768655 0.000435522 0)
(0.0752847 0.000409006 0)
(0.0737868 0.000385017 0)
(0.0723648 0.000363209 0)
(0.0710122 0.000343302 0)
(0.0697237 0.000325034 0)
(0.0684939 0.000308215 0)
(0.0673192 0.000292657 0)
(0.0661948 0.000278237 0)
(0.0651182 0.000264817 0)
(0.0640853 0.000252319 0)
(0.0630942 0.000240634 0)
(0.0621412 0.000229717 0)
(0.0612252 0.000219473 0)
(0.0603428 0.000209882 0)
(0.0594933 0.000200852 0)
(0.0586733 0.000192386 0)
(0.0578829 0.000184388 0)
(0.0571185 0.000176883 0)
(0.056381 0.000169769 0)
(0.0556665 0.00016309 0)
(0.0549765 0.000156734 0)
(0.0543067 0.00015077 0)
(0.0536595 0.000145069 0)
(0.05303 0.000139725 0)
(0.0524217 0.00013459 0)
(0.0518287 0.000129789 0)
(0.0512558 0.000125144 0)
(0.0506959 0.000120819 0)
(0.0501552 0.000116601 0)
(0.0496254 0.000112698 0)
(0.0491144 0.000108852 0)
(0.048612 0.000105323 0)
(0.0481282 0.000101801 0)
(0.0476508 9.86072e-05 0)
(0.0471924 9.53671e-05 0)
(0.0467378 9.24764e-05 0)
(0.0463029 8.94811e-05 0)
(0.0458691 8.68656e-05 0)
(0.0454562 8.40823e-05 0)
(0.0450414 8.17193e-05 0)
(0.0446492 7.91181e-05 0)
(0.0442516 7.69902e-05 0)
(0.043879 7.45428e-05 0)
(0.0434971 7.26373e-05 0)
(0.0431432 7.03172e-05 0)
(0.0427753 6.86253e-05 0)
(0.0424395 6.64081e-05 0)
(0.0420839 6.49246e-05 0)
(0.0417657 6.27861e-05 0)
(0.041421 6.15112e-05 0)
(0.0411201 5.94272e-05 0)
(0.0407846 5.83648e-05 0)
(0.040501 5.63127e-05 0)
(0.0401728 5.54704e-05 0)
(0.0399066 5.34254e-05 0)
(0.0395838 5.2821e-05 0)
(0.0393356 5.07519e-05 0)
(0.0390158 5.04122e-05 0)
(0.0387865 4.82879e-05 0)
(0.038467 4.8244e-05 0)
(0.0382577 4.60326e-05 0)
(0.0379354 4.63285e-05 0)
(0.0377481 4.39891e-05 0)
(0.0374188 4.46889e-05 0)
(0.0372559 4.21729e-05 0)
(0.0369144 4.33614e-05 0)
(0.0367798 4.06168e-05 0)
(0.0364187 4.24106e-05 0)
(0.0363185 3.93806e-05 0)
(0.0359259 4.20122e-05 0)
(0.0358717 3.86891e-05 0)
(0.0354248 4.6075e-05 0)
(0.193244 0.00742878 0)
(0.193601 0.0100276 0)
(0.194592 0.0116172 0)
(0.195637 0.0121304 0)
(0.19608 0.0120315 0)
(0.195592 0.0115964 0)
(0.194176 0.0108659 0)
(0.191953 0.00986097 0)
(0.18908 0.00868654 0)
(0.185722 0.00750675 0)
(0.182024 0.00645408 0)
(0.178135 0.00558299 0)
(0.174176 0.00488343 0)
(0.170246 0.00432701 0)
(0.166394 0.00388073 0)
(0.162643 0.0035149 0)
(0.159002 0.00320643 0)
(0.155474 0.00293932 0)
(0.152061 0.00270328 0)
(0.148763 0.00249196 0)
(0.145582 0.00230142 0)
(0.142517 0.00212912 0)
(0.139567 0.00197325 0)
(0.136732 0.00183237 0)
(0.13401 0.0017052 0)
(0.131398 0.00159044 0)
(0.128892 0.00148684 0)
(0.126487 0.0013932 0)
(0.124182 0.00130837 0)
(0.121969 0.00123131 0)
(0.119845 0.00116109 0)
(0.117806 0.00109689 0)
(0.115847 0.00103799 0)
(0.113963 0.000983797 0)
(0.112151 0.000933761 0)
(0.110406 0.000887451 0)
(0.108726 0.00084446 0)
(0.107106 0.000804477 0)
(0.105545 0.00076719 0)
(0.104036 0.000732377 0)
(0.10258 0.000699785 0)
(0.101172 0.000669261 0)
(0.0998124 0.000640588 0)
(0.0984947 0.000613667 0)
(0.0972212 0.0005883 0)
(0.0959853 0.000564433 0)
(0.0947903 0.00054188 0)
(0.0936286 0.000520623 0)
(0.0925049 0.000500478 0)
(0.0914107 0.000481467 0)
(0.0903521 0.000463398 0)
(0.0893194 0.000446333 0)
(0.0883205 0.000430061 0)
(0.0873439 0.00041469 0)
(0.0863999 0.000399982 0)
(0.0854745 0.000386093 0)
(0.0845811 0.000372752 0)
(0.0837028 0.000360168 0)
(0.0828562 0.000348024 0)
(0.0820209 0.000336594 0)
(0.0812178 0.000325501 0)
(0.080422 0.000315097 0)
(0.0796595 0.000304929 0)
(0.0788999 0.000295441 0)
(0.0781755 0.00028609 0)
(0.077449 0.000277423 0)
(0.0767604 0.000268792 0)
(0.0760643 0.000260867 0)
(0.0754097 0.000252871 0)
(0.0747412 0.00024562 0)
(0.074119 0.000238184 0)
(0.0734756 0.000231551 0)
(0.0728846 0.000224605 0)
(0.0722636 0.000218545 0)
(0.071703 0.00021203 0)
(0.0711019 0.000206505 0)
(0.0705711 0.000200366 0)
(0.0699873 0.000195351 0)
(0.069486 0.000189535 0)
(0.0689167 0.00018501 0)
(0.0684452 0.000179475 0)
(0.0678874 0.00017543 0)
(0.0674462 0.000170134 0)
(0.0668967 0.000166574 0)
(0.0664869 0.00016147 0)
(0.0659418 0.000158414 0)
(0.0655651 0.000153466 0)
(0.06502 0.000150938 0)
(0.064679 0.000146117 0)
(0.0641285 0.000144156 0)
(0.0638263 0.000139437 0)
(0.0632639 0.000138106 0)
(0.0630053 0.000133479 0)
(0.0624225 0.000132849 0)
(0.0622138 0.000128347 0)
(0.0615993 0.000128514 0)
(0.0614498 0.000124211 0)
(0.0607877 0.000125566 0)
(0.0607107 0.000121534 0)
(0.0599797 0.000129145 0)
(0.194244 0.00700963 0)
(0.194572 0.00887677 0)
(0.195579 0.0103778 0)
(0.197118 0.0111332 0)
(0.19871 0.0112876 0)
(0.199974 0.0110762 0)
(0.20075 0.0106061 0)
(0.201009 0.0099224 0)
(0.200767 0.00909055 0)
(0.200069 0.00821452 0)
(0.198975 0.00739633 0)
(0.197573 0.00669443 0)
(0.195951 0.00611843 0)
(0.194184 0.00564746 0)
(0.192322 0.00525554 0)
(0.190389 0.00492098 0)
(0.1884 0.00462768 0)
(0.186362 0.0043643 0)
(0.184283 0.00412321 0)
(0.182169 0.00389952 0)
(0.180027 0.00369025 0)
(0.177864 0.00349365 0)
(0.175689 0.00330874 0)
(0.173509 0.0031349 0)
(0.171332 0.0029717 0)
(0.169163 0.00281864 0)
(0.167009 0.00267525 0)
(0.164873 0.00254095 0)
(0.162763 0.00241519 0)
(0.160678 0.00229737 0)
(0.158626 0.00218697 0)
(0.156605 0.00208343 0)
(0.15462 0.00198628 0)
(0.15267 0.00189504 0)
(0.150759 0.0018093 0)
(0.148884 0.00172866 0)
(0.147051 0.00165276 0)
(0.145254 0.00158127 0)
(0.143499 0.0015139 0)
(0.14178 0.00145033 0)
(0.140103 0.00139034 0)
(0.13846 0.00133366 0)
(0.136859 0.00128009 0)
(0.135291 0.0012294 0)
(0.133764 0.00118141 0)
(0.132267 0.00113595 0)
(0.130811 0.00109284 0)
(0.129382 0.00105194 0)
(0.127993 0.0010131 0)
(0.12663 0.000976204 0)
(0.125305 0.000941113 0)
(0.124002 0.000907729 0)
(0.122739 0.000875931 0)
(0.121494 0.000845646 0)
(0.120288 0.000816754 0)
(0.119097 0.000789207 0)
(0.117946 0.000762885 0)
(0.116806 0.000737767 0)
(0.115707 0.000713723 0)
(0.114614 0.000690765 0)
(0.113565 0.000668746 0)
(0.112516 0.000647714 0)
(0.111514 0.000627498 0)
(0.110506 0.000608188 0)
(0.109549 0.000589583 0)
(0.108579 0.000571816 0)
(0.107665 0.000554652 0)
(0.10673 0.000538271 0)
(0.105858 0.0005224 0)
(0.104955 0.000507269 0)
(0.104124 0.000492558 0)
(0.103251 0.000478562 0)
(0.102459 0.000464894 0)
(0.101612 0.000451931 0)
(0.100859 0.000439205 0)
(0.100035 0.000427186 0)
(0.0993219 0.000415314 0)
(0.0985177 0.000404167 0)
(0.0978437 0.000393072 0)
(0.0970559 0.000382735 0)
(0.0964222 0.000372358 0)
(0.0956469 0.000362775 0)
(0.0950547 0.000353066 0)
(0.0942876 0.000344207 0)
(0.093739 0.000335116 0)
(0.0929751 0.000326966 0)
(0.0924728 0.000318468 0)
(0.0917063 0.000311012 0)
(0.0912541 0.000303109 0)
(0.090478 0.000296347 0)
(0.0900807 0.00028906 0)
(0.0892866 0.000283017 0)
(0.0889505 0.000276401 0)
(0.0881279 0.000271127 0)
(0.0878611 0.000265285 0)
(0.086997 0.000260934 0)
(0.0868096 0.000255924 0)
(0.0858879 0.000253265 0)
(0.085792 0.000249084 0)
(0.0847943 0.000253058 0)
(0.195074 0.0067129 0)
(0.195388 0.00813289 0)
(0.19618 0.00942102 0)
(0.197464 0.0102267 0)
(0.198971 0.0105005 0)
(0.200392 0.0103924 0)
(0.201553 0.0100388 0)
(0.202403 0.00951596 0)
(0.20294 0.00887872 0)
(0.203177 0.00819386 0)
(0.203138 0.00753426 0)
(0.20287 0.00695227 0)
(0.202427 0.00646645 0)
(0.201863 0.00606718 0)
(0.201213 0.00573514 0)
(0.200496 0.00545242 0)
(0.199721 0.00520538 0)
(0.198887 0.00498412 0)
(0.197995 0.00478168 0)
(0.197044 0.00459319 0)
(0.196036 0.0044155 0)
(0.194972 0.0042466 0)
(0.193856 0.00408539 0)
(0.19269 0.00393114 0)
(0.19148 0.00378351 0)
(0.190228 0.00364215 0)
(0.18894 0.00350685 0)
(0.187617 0.00337728 0)
(0.186268 0.00325322 0)
(0.184891 0.00313434 0)
(0.183495 0.00302043 0)
(0.182079 0.00291117 0)
(0.180651 0.0028064 0)
(0.179208 0.00270583 0)
(0.17776 0.00260936 0)
(0.176303 0.00251672 0)
(0.174847 0.00242784 0)
(0.173386 0.00234247 0)
(0.171931 0.00226058 0)
(0.170474 0.00218191 0)
(0.169029 0.00210648 0)
(0.167584 0.002034 0)
(0.166155 0.00196453 0)
(0.164729 0.00189777 0)
(0.163321 0.00183381 0)
(0.161918 0.00177233 0)
(0.160537 0.00171345 0)
(0.15916 0.00165681 0)
(0.157809 0.0016026 0)
(0.156462 0.00155042 0)
(0.155144 0.00150049 0)
(0.153828 0.00145238 0)
(0.152544 0.00140638 0)
(0.15126 0.00136199 0)
(0.150012 0.00131958 0)
(0.148761 0.00127859 0)
(0.14755 0.00123945 0)
(0.146332 0.00120156 0)
(0.145159 0.00116541 0)
(0.143973 0.00113033 0)
(0.142838 0.00109691 0)
(0.141683 0.00106439 0)
(0.140586 0.00103346 0)
(0.139462 0.00100327 0)
(0.138403 0.000974618 0)
(0.137309 0.00094653 0)
(0.136288 0.000919961 0)
(0.135221 0.000893782 0)
(0.134239 0.000869123 0)
(0.133197 0.000844674 0)
(0.132254 0.000821769 0)
(0.131236 0.000798889 0)
(0.130333 0.000777597 0)
(0.129335 0.000756141 0)
(0.128472 0.000736344 0)
(0.127494 0.000716176 0)
(0.126672 0.000697773 0)
(0.125708 0.000678775 0)
(0.124929 0.00066168 0)
(0.123978 0.000643744 0)
(0.123244 0.000627899 0)
(0.122299 0.000610922 0)
(0.121613 0.000596283 0)
(0.120672 0.00058019 0)
(0.120036 0.00056672 0)
(0.119093 0.000551452 0)
(0.118511 0.000539151 0)
(0.117559 0.000524648 0)
(0.117037 0.000513554 0)
(0.116069 0.000499779 0)
(0.115613 0.00048995 0)
(0.114619 0.000476917 0)
(0.114236 0.000468435 0)
(0.113207 0.000456239 0)
(0.112905 0.000449185 0)
(0.111826 0.000438145 0)
(0.111616 0.000432496 0)
(0.110474 0.000423685 0)
(0.110366 0.00041955 0)
(0.109144 0.000416995 0)
(0.195757 0.00647479 0)
(0.196068 0.00762371 0)
(0.196727 0.00870526 0)
(0.197763 0.00947794 0)
(0.199033 0.00982137 0)
(0.200309 0.00979789 0)
(0.201427 0.00952932 0)
(0.202319 0.00910761 0)
(0.202983 0.00859073 0)
(0.20343 0.00802777 0)
(0.203683 0.00747102 0)
(0.203773 0.00696459 0)
(0.203739 0.00653092 0)
(0.203621 0.00616983 0)
(0.203451 0.00586907 0)
(0.203245 0.00561415 0)
(0.203011 0.00539305 0)
(0.202748 0.00519677 0)
(0.202456 0.00501898 0)
(0.202128 0.00485504 0)
(0.201766 0.00470187 0)
(0.201364 0.00455723 0)
(0.200927 0.00441982 0)
(0.200448 0.00428859 0)
(0.199935 0.00416305 0)
(0.199381 0.00404261 0)
(0.198793 0.00392702 0)
(0.198166 0.00381576 0)
(0.197509 0.00370869 0)
(0.196814 0.00360529 0)
(0.19609 0.00350548 0)
(0.195332 0.00340879 0)
(0.194548 0.00331523 0)
(0.193732 0.00322436 0)
(0.192895 0.00313629 0)
(0.192026 0.00305057 0)
(0.191141 0.00296743 0)
(0.190227 0.00288641 0)
(0.189301 0.0028078 0)
(0.188347 0.00273113 0)
(0.187385 0.00265678 0)
(0.186399 0.00258422 0)
(0.185408 0.00251391 0)
(0.184394 0.00244525 0)
(0.183382 0.00237881 0)
(0.182345 0.00231388 0)
(0.181316 0.00225115 0)
(0.180263 0.00218979 0)
(0.179223 0.00213062 0)
(0.178158 0.00207268 0)
(0.177112 0.00201691 0)
(0.176039 0.00196223 0)
(0.174991 0.00190972 0)
(0.173915 0.00185814 0)
(0.17287 0.00180875 0)
(0.171793 0.00176011 0)
(0.170754 0.00171368 0)
(0.169679 0.00166781 0)
(0.16865 0.0016242 0)
(0.167578 0.00158093 0)
(0.166563 0.00154 0)
(0.165497 0.00149916 0)
(0.164498 0.00146076 0)
(0.163439 0.0014222 0)
(0.162458 0.00138619 0)
(0.161407 0.00134973 0)
(0.160448 0.00131599 0)
(0.159404 0.00128148 0)
(0.158469 0.00124988 0)
(0.157433 0.00121716 0)
(0.156524 0.00118759 0)
(0.155495 0.00115651 0)
(0.154615 0.00112887 0)
(0.153592 0.00109928 0)
(0.152743 0.00107348 0)
(0.151724 0.00104525 0)
(0.15091 0.00102123 0)
(0.149893 0.000994221 0)
(0.149116 0.000971909 0)
(0.148099 0.000945998 0)
(0.147363 0.000925372 0)
(0.146342 0.000900432 0)
(0.145651 0.000881478 0)
(0.144622 0.000857412 0)
(0.14398 0.000840121 0)
(0.142939 0.000816854 0)
(0.142351 0.000801254 0)
(0.141291 0.00077871 0)
(0.140764 0.000764868 0)
(0.139678 0.000743016 0)
(0.139218 0.000731002 0)
(0.138099 0.000709896 0)
(0.137713 0.00069978 0)
(0.136551 0.000679611 0)
(0.136248 0.000671438 0)
(0.135032 0.000652673 0)
(0.134822 0.000646449 0)
(0.133539 0.000630241 0)
(0.13343 0.000626316 0)
(0.132067 0.000615626 0)
(0.196342 0.00626012 0)
(0.196645 0.0072176 0)
(0.19721 0.00812205 0)
(0.198061 0.00881775 0)
(0.199116 0.00918869 0)
(0.200218 0.00923845 0)
(0.201227 0.00905115 0)
(0.202064 0.00871427 0)
(0.202714 0.00828944 0)
(0.203185 0.00782018 0)
(0.203502 0.00734574 0)
(0.203686 0.0069009 0)
(0.203773 0.00650825 0)
(0.203792 0.00617379 0)
(0.203773 0.00589172 0)
(0.20373 0.00565131 0)
(0.203677 0.00544251 0)
(0.203611 0.00525726 0)
(0.203535 0.0050901 0)
(0.203444 0.00493685 0)
(0.203339 0.00479491 0)
(0.203215 0.00466203 0)
(0.203075 0.00453701 0)
(0.202913 0.00441855 0)
(0.202735 0.00430618 0)
(0.202533 0.00419899 0)
(0.202315 0.00409684 0)
(0.20207 0.00399892 0)
(0.20181 0.0039052 0)
(0.201523 0.00381488 0)
(0.20122 0.00372807 0)
(0.200889 0.00364396 0)
(0.200543 0.0035628 0)
(0.200167 0.00348378 0)
(0.199778 0.0034073 0)
(0.199358 0.00333253 0)
(0.198927 0.00326003 0)
(0.198463 0.00318888 0)
(0.197991 0.00311984 0)
(0.197485 0.00305189 0)
(0.196973 0.00298595 0)
(0.196426 0.00292087 0)
(0.195877 0.00285777 0)
(0.195291 0.00279535 0)
(0.194708 0.0027349 0)
(0.194085 0.00267496 0)
(0.193469 0.00261704 0)
(0.192812 0.00255945 0)
(0.192167 0.00250395 0)
(0.191478 0.00244861 0)
(0.190808 0.00239546 0)
(0.19009 0.00234227 0)
(0.189397 0.00229141 0)
(0.188652 0.0022403 0)
(0.187941 0.00219167 0)
(0.187171 0.00214255 0)
(0.186445 0.00209611 0)
(0.185653 0.00204891 0)
(0.184915 0.0020046 0)
(0.184104 0.00195923 0)
(0.183357 0.00191702 0)
(0.182528 0.00187341 0)
(0.181777 0.00183324 0)
(0.180931 0.00179129 0)
(0.180178 0.00175312 0)
(0.179317 0.00171274 0)
(0.178567 0.00167654 0)
(0.177692 0.00163762 0)
(0.176948 0.00160334 0)
(0.176059 0.00156579 0)
(0.175324 0.00153341 0)
(0.174422 0.00149711 0)
(0.173701 0.00146658 0)
(0.172785 0.00143145 0)
(0.172081 0.00140275 0)
(0.171151 0.00136866 0)
(0.170467 0.00134179 0)
(0.169523 0.00130863 0)
(0.168864 0.00128358 0)
(0.167903 0.00125126 0)
(0.167274 0.00122806 0)
(0.166294 0.00119646 0)
(0.165699 0.00117513 0)
(0.164697 0.00114418 0)
(0.164141 0.00112475 0)
(0.163114 0.0010944 0)
(0.162604 0.00107693 0)
(0.161546 0.00104713 0)
(0.161087 0.00103171 0)
(0.159995 0.00100248 0)
(0.159594 0.00098918 0)
(0.15846 0.000960656 0)
(0.158124 0.000949542 0)
(0.156942 0.000922011 0)
(0.156678 0.000913143 0)
(0.155439 0.000887154 0)
(0.155256 0.000880677 0)
(0.15395 0.000857323 0)
(0.153856 0.000853795 0)
(0.152474 0.000835144 0)
(0.196852 0.00605679 0)
(0.197143 0.00686471 0)
(0.197635 0.00762316 0)
(0.198343 0.00823142 0)
(0.199222 0.00859899 0)
(0.200164 0.00870289 0)
(0.201059 0.00858973 0)
(0.201827 0.00832994 0)
(0.202441 0.00798337 0)
(0.202902 0.00759225 0)
(0.203231 0.00718923 0)
(0.203446 0.0068014 0)
(0.203576 0.00644889 0)
(0.203643 0.00614054 0)
(0.203675 0.00587548 0)
(0.203684 0.00564666 0)
(0.203685 0.00544637 0)
(0.203676 0.00526762 0)
(0.203666 0.00510589 0)
(0.203645 0.00495746 0)
(0.203621 0.00482036 0)
(0.203585 0.00469241 0)
(0.203547 0.00457274 0)
(0.203494 0.00445983 0)
(0.203439 0.00435342 0)
(0.203369 0.0042523 0)
(0.203297 0.00415658 0)
(0.203208 0.00406511 0)
(0.203118 0.0039782 0)
(0.203009 0.00389466 0)
(0.2029 0.003815 0)
(0.202769 0.00373795 0)
(0.202639 0.00366422 0)
(0.202486 0.00359246 0)
(0.202334 0.00352361 0)
(0.202155 0.00345621 0)
(0.20198 0.00339144 0)
(0.201775 0.00332767 0)
(0.201576 0.00326637 0)
(0.201344 0.00320569 0)
(0.20112 0.00314737 0)
(0.200859 0.00308936 0)
(0.20061 0.00303367 0)
(0.20032 0.002978 0)
(0.200045 0.00292468 0)
(0.199725 0.00287108 0)
(0.199425 0.00281992 0)
(0.199075 0.00276819 0)
(0.19875 0.00271903 0)
(0.198369 0.002669 0)
(0.19802 0.00262172 0)
(0.19761 0.00257326 0)
(0.197238 0.00252776 0)
(0.196797 0.00248074 0)
(0.196404 0.00243696 0)
(0.195934 0.00239129 0)
(0.195521 0.00234917 0)
(0.195021 0.00230475 0)
(0.19459 0.00226425 0)
(0.194062 0.002221 0)
(0.193615 0.0021821 0)
(0.193058 0.00213995 0)
(0.192598 0.00210261 0)
(0.192013 0.00206148 0)
(0.191542 0.0020257 0)
(0.19093 0.00198551 0)
(0.19045 0.00195128 0)
(0.189811 0.00191195 0)
(0.189326 0.00187928 0)
(0.18866 0.00184073 0)
(0.188173 0.00180963 0)
(0.18748 0.00177178 0)
(0.186993 0.00174226 0)
(0.186274 0.00170504 0)
(0.185791 0.0016771 0)
(0.185044 0.00164043 0)
(0.18457 0.00161412 0)
(0.183794 0.00157792 0)
(0.183332 0.00155327 0)
(0.182527 0.00151747 0)
(0.182081 0.00149455 0)
(0.181245 0.00145907 0)
(0.18082 0.00143793 0)
(0.179951 0.00140273 0)
(0.179551 0.00138343 0)
(0.178647 0.00134853 0)
(0.178278 0.00133113 0)
(0.177336 0.00129655 0)
(0.177003 0.00128115 0)
(0.176019 0.00124697 0)
(0.175727 0.00123365 0)
(0.174698 0.00120008 0)
(0.174453 0.00118893 0)
(0.173374 0.00115634 0)
(0.173182 0.00114746 0)
(0.172048 0.00111645 0)
(0.171915 0.00111017 0)
(0.17072 0.00108172 0)
(0.170652 0.00107868 0)
(0.16939 0.00105425 0)
(0.197301 0.0058607 0)
(0.197575 0.00654727 0)
(0.198007 0.00718803 0)
(0.198606 0.00771534 0)
(0.199342 0.00806317 0)
(0.200144 0.00820175 0)
(0.20093 0.00815111 0)
(0.201626 0.00796096 0)
(0.202201 0.00768373 0)
(0.202644 0.00735992 0)
(0.202974 0.00701933 0)
(0.203203 0.00668407 0)
(0.203356 0.00637126 0)
(0.20345 0.00609016 0)
(0.203509 0.00584316 0)
(0.20354 0.00562634 0)
(0.203564 0.00543453 0)
(0.203575 0.00526185 0)
(0.203585 0.00510482 0)
(0.203585 0.00496 0)
(0.203586 0.0048261 0)
(0.203574 0.00470092 0)
(0.203566 0.0045841 0)
(0.203544 0.00447382 0)
(0.203527 0.00437024 0)
(0.203497 0.00427172 0)
(0.203472 0.00417884 0)
(0.203433 0.00408997 0)
(0.203401 0.00400596 0)
(0.203353 0.00392511 0)
(0.203314 0.0038485 0)
(0.203257 0.0037743 0)
(0.203211 0.00370387 0)
(0.203144 0.00363517 0)
(0.203089 0.0035699 0)
(0.203011 0.0035058 0)
(0.202948 0.0034449 0)
(0.202857 0.00338467 0)
(0.202785 0.00332752 0)
(0.20268 0.00327059 0)
(0.202597 0.00321669 0)
(0.202478 0.0031626 0)
(0.202384 0.00311155 0)
(0.202248 0.00305992 0)
(0.202142 0.00301142 0)
(0.201989 0.00296194 0)
(0.20187 0.00291574 0)
(0.201698 0.00286814 0)
(0.201566 0.00282402 0)
(0.201373 0.00277809 0)
(0.201228 0.00273587 0)
(0.201014 0.00269141 0)
(0.200855 0.00265097 0)
(0.200619 0.0026078 0)
(0.200446 0.00256902 0)
(0.200187 0.00252701 0)
(0.200001 0.00248979 0)
(0.199717 0.00244879 0)
(0.199518 0.00241307 0)
(0.199209 0.00237295 0)
(0.198998 0.00233867 0)
(0.198663 0.00229933 0)
(0.19844 0.00226643 0)
(0.198079 0.00222778 0)
(0.197845 0.00219623 0)
(0.197457 0.00215815 0)
(0.197214 0.00212794 0)
(0.196797 0.00209033 0)
(0.196547 0.00206146 0)
(0.196102 0.00202424 0)
(0.195846 0.0019967 0)
(0.195371 0.00195978 0)
(0.195111 0.00193357 0)
(0.194606 0.00189689 0)
(0.194345 0.00187204 0)
(0.193808 0.0018355 0)
(0.193548 0.00181204 0)
(0.192979 0.0017756 0)
(0.192722 0.00175354 0)
(0.19212 0.00171717 0)
(0.19187 0.00169658 0)
(0.191233 0.0016602 0)
(0.190993 0.00164115 0)
(0.19032 0.00160477 0)
(0.190093 0.00158729 0)
(0.189382 0.00155098 0)
(0.189171 0.00153513 0)
(0.188422 0.00149895 0)
(0.188231 0.00148482 0)
(0.18744 0.00144892 0)
(0.187272 0.0014366 0)
(0.186439 0.00140126 0)
(0.186298 0.00139083 0)
(0.185419 0.00135647 0)
(0.185309 0.00134812 0)
(0.184382 0.00131532 0)
(0.184306 0.00130951 0)
(0.183328 0.0012792 0)
(0.18329 0.00127657 0)
(0.182259 0.00124984 0)
(0.197696 0.00567134 0)
(0.197951 0.00625868 0)
(0.198334 0.00680529 0)
(0.198845 0.00726299 0)
(0.199468 0.00758451 0)
(0.200151 0.00774183 0)
(0.200836 0.00773997 0)
(0.20146 0.00761037 0)
(0.201993 0.00739493 0)
(0.202416 0.00713019 0)
(0.202742 0.00684429 0)
(0.202977 0.00655654 0)
(0.203146 0.00628173 0)
(0.203257 0.00602833 0)
(0.203336 0.00580059 0)
(0.203384 0.00559688 0)
(0.203423 0.00541447 0)
(0.203445 0.00524862 0)
(0.203466 0.00509693 0)
(0.203475 0.00495613 0)
(0.203486 0.00482561 0)
(0.203483 0.00470305 0)
(0.203485 0.00458868 0)
(0.203473 0.00448035 0)
(0.203467 0.00437875 0)
(0.203448 0.00428178 0)
(0.203438 0.00419054 0)
(0.203413 0.00410289 0)
(0.203399 0.0040203 0)
(0.203368 0.00394047 0)
(0.203352 0.00386518 0)
(0.203316 0.0037919 0)
(0.203298 0.0037228 0)
(0.203257 0.00365503 0)
(0.203237 0.00359118 0)
(0.203191 0.00352808 0)
(0.203169 0.00346874 0)
(0.203118 0.00340962 0)
(0.203093 0.00335421 0)
(0.203037 0.00329853 0)
(0.20301 0.00324658 0)
(0.202946 0.00319389 0)
(0.202916 0.00314501 0)
(0.202845 0.00309494 0)
(0.202812 0.00304883 0)
(0.202732 0.00300106 0)
(0.202696 0.00295746 0)
(0.202606 0.00291172 0)
(0.202566 0.00287041 0)
(0.202465 0.00282646 0)
(0.20242 0.00278726 0)
(0.202308 0.00274488 0)
(0.202258 0.00270763 0)
(0.202132 0.00266663 0)
(0.202078 0.0026312 0)
(0.201937 0.0025914 0)
(0.201878 0.00255767 0)
(0.201722 0.00251891 0)
(0.201657 0.00248678 0)
(0.201484 0.00244892 0)
(0.201414 0.0024183 0)
(0.201222 0.00238119 0)
(0.201147 0.00235201 0)
(0.200936 0.00231553 0)
(0.200856 0.00228771 0)
(0.200624 0.00225174 0)
(0.200539 0.00222525 0)
(0.200286 0.00218967 0)
(0.200197 0.00216447 0)
(0.19992 0.00212915 0)
(0.199828 0.00210522 0)
(0.199527 0.0020701 0)
(0.199431 0.00204739 0)
(0.199106 0.00201237 0)
(0.199008 0.00199089 0)
(0.198656 0.00195589 0)
(0.198557 0.00193563 0)
(0.198177 0.00190062 0)
(0.198079 0.00188155 0)
(0.197671 0.0018465 0)
(0.197574 0.00182868 0)
(0.197136 0.00179351 0)
(0.197042 0.00177698 0)
(0.196574 0.00174174 0)
(0.196485 0.00172648 0)
(0.195984 0.00169128 0)
(0.195901 0.00167732 0)
(0.195367 0.00164224 0)
(0.195292 0.00162967 0)
(0.194725 0.0015949 0)
(0.194659 0.00158378 0)
(0.194057 0.00154962 0)
(0.194002 0.00154005 0)
(0.193363 0.00150694 0)
(0.193321 0.00149917 0)
(0.192646 0.00146766 0)
(0.192617 0.00146225 0)
(0.191904 0.0014332 0)
(0.19189 0.00143071 0)
(0.191139 0.00140502 0)
(0.198043 0.00548937 0)
(0.198281 0.00599562 0)
(0.19862 0.00646625 0)
(0.199061 0.00686557 0)
(0.199592 0.00715938 0)
(0.200176 0.00732406 0)
(0.200771 0.00735765 0)
(0.201326 0.0072782 0)
(0.201814 0.00711689 0)
(0.202214 0.00690436 0)
(0.202532 0.0066667 0)
(0.202769 0.00642147 0)
(0.202948 0.00618211 0)
(0.203073 0.00595602 0)
(0.203166 0.00574835 0)
(0.203228 0.00555887 0)
(0.203279 0.00538697 0)
(0.20331 0.00522893 0)
(0.203341 0.00508352 0)
(0.203356 0.00494753 0)
(0.203373 0.00482105 0)
(0.203376 0.00470158 0)
(0.203384 0.00458997 0)
(0.203376 0.00448373 0)
(0.203377 0.00438414 0)
(0.203362 0.00428863 0)
(0.203358 0.00419888 0)
(0.203337 0.00411222 0)
(0.203329 0.00403073 0)
(0.203304 0.00395151 0)
(0.203295 0.00387707 0)
(0.203266 0.00380417 0)
(0.203255 0.00373576 0)
(0.203223 0.00366823 0)
(0.203213 0.003605 0)
(0.203177 0.00354205 0)
(0.203167 0.00348332 0)
(0.203129 0.00342434 0)
(0.203119 0.00336957 0)
(0.203078 0.00331404 0)
(0.203069 0.0032628 0)
(0.203024 0.00321029 0)
(0.203016 0.00316223 0)
(0.202968 0.0031124 0)
(0.20296 0.00306723 0)
(0.202908 0.00301978 0)
(0.202901 0.00297724 0)
(0.202845 0.00293192 0)
(0.202838 0.00289181 0)
(0.202776 0.00284838 0)
(0.202771 0.00281053 0)
(0.202702 0.00276878 0)
(0.202697 0.00273305 0)
(0.202622 0.00269278 0)
(0.202617 0.00265901 0)
(0.202534 0.00262008 0)
(0.202529 0.00258814 0)
(0.202437 0.00255036 0)
(0.202433 0.00252016 0)
(0.202331 0.00248338 0)
(0.202326 0.00245481 0)
(0.202214 0.0024189 0)
(0.202209 0.00239187 0)
(0.202085 0.0023567 0)
(0.202079 0.00233111 0)
(0.201943 0.00229655 0)
(0.201937 0.00227235 0)
(0.201786 0.00223826 0)
(0.20178 0.00221541 0)
(0.201614 0.00218167 0)
(0.201607 0.00216009 0)
(0.201426 0.00212665 0)
(0.201418 0.00210626 0)
(0.20122 0.00207301 0)
(0.201212 0.0020538 0)
(0.200996 0.00202067 0)
(0.200988 0.00200259 0)
(0.200753 0.00196955 0)
(0.200745 0.00195253 0)
(0.20049 0.00191956 0)
(0.200482 0.00190364 0)
(0.200206 0.00187066 0)
(0.200199 0.00185585 0)
(0.199901 0.00182293 0)
(0.199894 0.00180915 0)
(0.199575 0.00177641 0)
(0.199569 0.00176369 0)
(0.199226 0.00173122 0)
(0.199221 0.00171962 0)
(0.198855 0.00168762 0)
(0.198851 0.0016772 0)
(0.198461 0.00164595 0)
(0.198458 0.00163685 0)
(0.198043 0.00160678 0)
(0.198042 0.00159926 0)
(0.197602 0.00157089 0)
(0.197602 0.00156555 0)
(0.197137 0.00153966 0)
(0.197138 0.00153704 0)
(0.196649 0.00151444 0)
(0.19835 0.00531551 0)
(0.198569 0.00575524 0)
(0.198871 0.00616383 0)
(0.199254 0.00651429 0)
(0.199711 0.00678148 0)
(0.200211 0.00694623 0)
(0.200727 0.00700407 0)
(0.201218 0.0069644 0)
(0.201662 0.00684926 0)
(0.202035 0.0066827 0)
(0.202341 0.00648788 0)
(0.202577 0.00628075 0)
(0.202762 0.006074 0)
(0.202895 0.0058742 0)
(0.203 0.00568689 0)
(0.203073 0.00551253 0)
(0.203134 0.00535214 0)
(0.203174 0.00520286 0)
(0.203212 0.00506458 0)
(0.203233 0.0049342 0)
(0.203257 0.00481247 0)
(0.203264 0.00469668 0)
(0.203277 0.00458828 0)
(0.203274 0.00448451 0)
(0.203278 0.00438718 0)
(0.203267 0.00429337 0)
(0.203266 0.00420525 0)
(0.203248 0.00411971 0)
(0.203244 0.00403937 0)
(0.203222 0.00396085 0)
(0.203215 0.00388721 0)
(0.20319 0.00381469 0)
(0.203182 0.00374684 0)
(0.203153 0.00367946 0)
(0.203145 0.00361664 0)
(0.203115 0.00355371 0)
(0.203107 0.00349528 0)
(0.203074 0.00343622 0)
(0.203068 0.00338168 0)
(0.203033 0.00332601 0)
(0.203028 0.00327498 0)
(0.202991 0.0032223 0)
(0.202987 0.00317446 0)
(0.202949 0.00312444 0)
(0.202947 0.00307951 0)
(0.202906 0.0030319 0)
(0.202906 0.00298963 0)
(0.202863 0.00294419 0)
(0.202865 0.00290439 0)
(0.202819 0.0028609 0)
(0.202823 0.00282343 0)
(0.202775 0.00278167 0)
(0.202781 0.00274638 0)
(0.202729 0.0027062 0)
(0.202738 0.00267293 0)
(0.202682 0.00263418 0)
(0.202693 0.00260281 0)
(0.202632 0.00256533 0)
(0.202645 0.00253577 0)
(0.20258 0.00249939 0)
(0.202595 0.00247154 0)
(0.202524 0.00243616 0)
(0.202541 0.0024099 0)
(0.202465 0.0023754 0)
(0.202483 0.00235063 0)
(0.2024 0.00231689 0)
(0.20242 0.00229355 0)
(0.202329 0.00226043 0)
(0.202351 0.00223847 0)
(0.202252 0.00220586 0)
(0.202275 0.00218517 0)
(0.202167 0.00215305 0)
(0.202191 0.00213353 0)
(0.202075 0.00210178 0)
(0.202099 0.00208343 0)
(0.201972 0.00205197 0)
(0.201998 0.00203469 0)
(0.20186 0.00200355 0)
(0.201886 0.00198724 0)
(0.201737 0.00195635 0)
(0.201762 0.00194109 0)
(0.201601 0.00191038 0)
(0.201627 0.0018961 0)
(0.201453 0.00186571 0)
(0.201478 0.00185231 0)
(0.201291 0.00182231 0)
(0.201315 0.00180986 0)
(0.201115 0.00178032 0)
(0.201137 0.00176884 0)
(0.200923 0.00173999 0)
(0.200943 0.00172956 0)
(0.200714 0.00170163 0)
(0.200732 0.00169244 0)
(0.200489 0.00166581 0)
(0.200503 0.00165814 0)
(0.200245 0.00163332 0)
(0.200255 0.00162776 0)
(0.199983 0.00160543 0)
(0.199989 0.00160252 0)
(0.199701 0.00158347 0)