/*--------------------------------*- C++ -*----------------------------------*\
| =========                 |                                                 |
| \\      /  F ield         | OpenFOAM: The Open Source CFD Toolbox           |
|  \\    /   O peration     | Version:  2.3.0                                 |
|   \\  /    A nd           | Web:      www.OpenFOAM.org                      |
|    \\/     M anipulation  |                                                 |
\*---------------------------------------------------------------------------*/
FoamFile
{
    version     2.0;
    format      ascii;
    class       volScalarField;
    location    "0.8";
    object      p;
}
// * * * * * * * * * * * * * * * * * * * * * * * * * * * * * * * * * * * * * //

dimensions      [0 2 -2 0 0 0 0];

internalField   nonuniform List<scalar> 
8750
(
0.00259874
0.00201162
0.00153311
0.00118828
0.00090332
0.000647263
0.000420072
0.00022633
6.75372e-05
-5.73207e-05
-0.000150825
-0.000216787
-0.000259874
-0.000285056
-0.000297067
-0.000300019
-0.000297215
-0.000291127
-0.000283476
-0.000275375
-0.000267481
-0.00026013
-0.000253454
-0.000247462
-0.000242098
-0.000237279
-0.000232918
-0.000228932
-0.000225253
-0.000221822
-0.000218595
-0.000215534
-0.000212612
-0.000209807
-0.000207101
-0.000204482
-0.000201936
-0.000199454
-0.000197028
-0.00019465
-0.000192314
-0.000190013
-0.000187743
-0.000185497
-0.000183272
-0.000181064
-0.000178868
-0.00017668
-0.000174498
-0.000172319
-0.000170139
-0.000167956
-0.000165767
-0.00016357
-0.000161363
-0.000159143
-0.000156909
-0.000154658
-0.000152389
-0.0001501
-0.000147788
-0.000145453
-0.000143092
-0.000140703
-0.000138285
-0.000135835
-0.000133353
-0.000130836
-0.000128281
-0.000125687
-0.000123052
-0.000120374
-0.000117649
-0.000114876
-0.000112052
-0.000109173
-0.000106238
-0.000103242
-0.000100181
-9.70535e-05
-9.38538e-05
-9.05779e-05
-8.72211e-05
-8.37783e-05
-8.0244e-05
-7.66121e-05
-7.28761e-05
-6.90291e-05
-6.50631e-05
-6.09698e-05
-5.67398e-05
-5.23628e-05
-4.7827e-05
-4.31191e-05
-3.82233e-05
-3.31198e-05
-2.77823e-05
-2.21715e-05
-1.60328e-05
-1.20778e-05
0.0023207
0.00190235
0.00150967
0.00119688
0.000926085
0.000677227
0.000453148
0.000260034
0.000100421
-2.61379e-05
-0.000121888
-0.000190397
-0.000236143
-0.000263951
-0.000278453
-0.000283694
-0.000282942
-0.000278655
-0.00027256
-0.000265788
-0.000259019
-0.000252616
-0.000246737
-0.000241418
-0.000236623
-0.00023229
-0.000228346
-0.000224722
-0.000221358
-0.000218204
-0.000215222
-0.000212381
-0.000209655
-0.000207028
-0.000204483
-0.000202009
-0.000199597
-0.000197237
-0.000194924
-0.000192649
-0.000190409
-0.000188197
-0.000186008
-0.00018384
-0.000181686
-0.000179545
-0.000177411
-0.000175283
-0.000173156
-0.000171029
-0.000168898
-0.000166761
-0.000164616
-0.00016246
-0.000160292
-0.00015811
-0.000155911
-0.000153694
-0.000151456
-0.000149197
-0.000146915
-0.000144607
-0.000142272
-0.000139909
-0.000137515
-0.000135088
-0.000132628
-0.000130132
-0.000127598
-0.000125024
-0.000122407
-0.000119747
-0.00011704
-0.000114283
-0.000111475
-0.000108612
-0.000105691
-0.000102709
-9.96631e-05
-9.65486e-05
-9.33617e-05
-9.00983e-05
-8.67534e-05
-8.33222e-05
-7.9799e-05
-7.61778e-05
-7.24522e-05
-6.86151e-05
-6.46588e-05
-6.05747e-05
-5.63535e-05
-5.19849e-05
-4.74571e-05
-4.27567e-05
-3.78678e-05
-3.27701e-05
-2.74364e-05
-2.18248e-05
-1.55669e-05
-1.21074e-05
0.00211755
0.00180518
0.00147231
0.00118412
0.000928959
0.000693742
0.00048034
0.000294239
0.000138196
1.22775e-05
-8.51305e-05
-0.000156882
-0.000206748
-0.000238952
-0.000257677
-0.000266686
-0.000269111
-0.000267388
-0.000263295
-0.000258049
-0.000252428
-0.000246888
-0.000241663
-0.000236849
-0.000232457
-0.000228454
-0.000224789
-0.000221409
-0.000218261
-0.000215303
-0.000212499
-0.00020982
-0.000207244
-0.000204754
-0.000202337
-0.00019998
-0.000197676
-0.000195417
-0.000193196
-0.000191007
-0.000188846
-0.000186708
-0.000184589
-0.000182484
-0.00018039
-0.000178304
-0.000176223
-0.000174143
-0.000172062
-0.000169977
-0.000167887
-0.000165788
-0.000163679
-0.000161558
-0.000159422
-0.00015727
-0.0001551
-0.00015291
-0.000150699
-0.000148465
-0.000146206
-0.000143921
-0.000141607
-0.000139265
-0.00013689
-0.000134483
-0.000132041
-0.000129562
-0.000127044
-0.000124486
-0.000121885
-0.000119239
-0.000116546
-0.000113804
-0.000111008
-0.000108158
-0.00010525
-0.00010228
-9.92449e-05
-9.61415e-05
-9.29654e-05
-8.97123e-05
-8.63776e-05
-8.29561e-05
-7.94424e-05
-7.58305e-05
-7.21139e-05
-6.82855e-05
-6.43376e-05
-6.02618e-05
-5.60487e-05
-5.16879e-05
-4.71679e-05
-4.24754e-05
-3.75945e-05
-3.25058e-05
-2.7184e-05
-2.15877e-05
-1.54295e-05
-1.31411e-05
0.00194559
0.00170175
0.00141986
0.00115998
0.000924938
0.00070722
0.00050793
0.00033177
0.000181692
5.82986e-05
-3.93921e-05
-0.000113527
-0.000167148
-0.000203812
-0.000227171
-0.000240612
-0.000247041
-0.000248792
-0.000247624
-0.00024479
-0.000241133
-0.000237181
-0.00023324
-0.000229466
-0.000225923
-0.000222621
-0.00021954
-0.000216652
-0.000213925
-0.00021133
-0.000208842
-0.000206441
-0.00020411
-0.000201839
-0.000199617
-0.000197437
-0.000195291
-0.000193176
-0.000191085
-0.000189016
-0.000186965
-0.000184927
-0.0001829
-0.00018088
-0.000178865
-0.000176852
-0.000174839
-0.000172822
-0.0001708
-0.000168771
-0.000166732
-0.000164682
-0.000162618
-0.000160539
-0.000158444
-0.00015633
-0.000154195
-0.000152039
-0.00014986
-0.000147656
-0.000145426
-0.000143168
-0.000140881
-0.000138563
-0.000136212
-0.000133827
-0.000131406
-0.000128947
-0.000126449
-0.00012391
-0.000121327
-0.000118698
-0.000116022
-0.000113295
-0.000110515
-0.00010768
-0.000104785
-0.000101829
-9.88076e-05
-9.57169e-05
-9.25533e-05
-8.93122e-05
-8.59892e-05
-8.25791e-05
-7.90764e-05
-7.54753e-05
-7.17692e-05
-6.79512e-05
-6.40135e-05
-5.99477e-05
-5.57445e-05
-5.13938e-05
-4.68841e-05
-4.22024e-05
-3.73341e-05
-3.2262e-05
-2.69683e-05
-2.14344e-05
-1.56272e-05
-1.49676e-05
0.00179351
0.00159897
0.00136269
0.00113246
0.000918272
0.000717874
0.000532724
0.000367014
0.000223783
0.000104032
7.24849e-06
-6.81656e-05
-0.000124639
-0.000165125
-0.000192749
-0.00021049
-0.000220975
-0.000226373
-0.000228375
-0.000228228
-0.000226811
-0.00022471
-0.000222292
-0.000219775
-0.000217276
-0.000214849
-0.00021251
-0.000210259
-0.000208083
-0.000205972
-0.00020391
-0.000201889
-0.000199898
-0.000197932
-0.000195984
-0.000194052
-0.000192132
-0.00019022
-0.000188316
-0.000186417
-0.00018452
-0.000182624
-0.000180727
-0.000178827
-0.000176922
-0.000175011
-0.000173091
-0.000171162
-0.000169221
-0.000167267
-0.000165298
-0.000163313
-0.00016131
-0.000159289
-0.000157246
-0.000155182
-0.000153095
-0.000150984
-0.000148847
-0.000146682
-0.000144489
-0.000142267
-0.000140013
-0.000137726
-0.000135405
-0.000133049
-0.000130655
-0.000128223
-0.00012575
-0.000123234
-0.000120673
-0.000118067
-0.000115411
-0.000112704
-0.000109943
-0.000107126
-0.000104249
-0.00010131
-9.83048e-05
-9.52301e-05
-9.20819e-05
-8.88558e-05
-8.55473e-05
-8.21514e-05
-7.86626e-05
-7.50751e-05
-7.13823e-05
-6.75774e-05
-6.36528e-05
-5.96e-05
-5.541e-05
-5.10727e-05
-4.65772e-05
-4.19115e-05
-3.70628e-05
-3.20194e-05
-2.67793e-05
-2.13832e-05
-1.61485e-05
-1.72315e-05
0.00166271
0.00150384
0.00130527
0.00110239
0.000907992
0.000723931
0.000552431
0.000397267
0.000261398
0.000146072
5.11404e-05
-2.45516e-05
-8.29192e-05
-0.000126386
-0.00015759
-0.000179116
-0.000193302
-0.00020213
-0.000207193
-0.000209707
-0.00021056
-0.000210374
-0.000209566
-0.000208401
-0.000207043
-0.000205587
-0.000204081
-0.000202551
-0.000201008
-0.000199453
-0.000197887
-0.000196309
-0.000194718
-0.000193112
-0.000191492
-0.000189857
-0.000188208
-0.000186545
-0.000184867
-0.000183176
-0.000181471
-0.000179751
-0.000178017
-0.000176267
-0.000174501
-0.000172718
-0.000170918
-0.0001691
-0.000167262
-0.000165404
-0.000163524
-0.000161623
-0.000159699
-0.00015775
-0.000155777
-0.000153777
-0.000151751
-0.000149696
-0.000147612
-0.000145499
-0.000143353
-0.000141176
-0.000138965
-0.000136718
-0.000134436
-0.000132116
-0.000129757
-0.000127357
-0.000124915
-0.000122429
-0.000119897
-0.000117317
-0.000114687
-0.000112005
-0.000109268
-0.000106474
-0.000103619
-0.000100701
-9.77167e-05
-9.46618e-05
-9.15328e-05
-8.83254e-05
-8.5035e-05
-8.16568e-05
-7.81854e-05
-7.46149e-05
-7.0939e-05
-6.71508e-05
-6.32428e-05
-5.92068e-05
-5.50339e-05
-5.07145e-05
-4.62384e-05
-4.15949e-05
-3.67748e-05
-3.17752e-05
-2.66194e-05
-2.14365e-05
-1.68931e-05
-1.94563e-05
0.00154992
0.00141672
0.00124829
0.00106984
0.000894162
0.000725659
0.000567299
0.00042255
0.000294228
0.000183754
9.12878e-05
1.60554e-05
-4.34212e-05
-8.91062e-05
-0.000123208
-0.000147947
-0.000165386
-0.000177317
-0.000185219
-0.000190254
-0.000193302
-0.000195003
-0.000195804
-0.000196012
-0.000195825
-0.000195373
-0.000194736
-0.000193964
-0.000193086
-0.000192122
-0.000191083
-0.000189978
-0.000188814
-0.000187597
-0.00018633
-0.000185019
-0.000183666
-0.000182274
-0.000180847
-0.000179387
-0.000177895
-0.000176372
-0.000174821
-0.000173241
-0.000171633
-0.000169997
-0.000168333
-0.000166643
-0.000164924
-0.000163178
-0.000161403
-0.000159599
-0.000157767
-0.000155905
-0.000154013
-0.00015209
-0.000150136
-0.000148149
-0.00014613
-0.000144076
-0.000141989
-0.000139865
-0.000137706
-0.000135508
-0.000133272
-0.000130996
-0.000128679
-0.000126319
-0.000123915
-0.000121465
-0.000118968
-0.000116421
-0.000113823
-0.000111171
-0.000108463
-0.000105697
-0.000102869
-9.99772e-05
-9.70177e-05
-9.39871e-05
-9.08816e-05
-8.76971e-05
-8.44291e-05
-8.10728e-05
-7.76228e-05
-7.40734e-05
-7.04184e-05
-6.6651e-05
-6.27639e-05
-5.87491e-05
-5.45981e-05
-5.03018e-05
-4.5851e-05
-4.12371e-05
-3.64557e-05
-3.15155e-05
-2.64717e-05
-2.15488e-05
-1.76768e-05
-2.11446e-05
0.00145159
0.00133731
0.00119293
0.00103597
0.000877751
0.000723911
0.000577992
0.000443281
0.000322449
0.000217028
0.000127435
5.32173e-05
-6.7314e-06
-5.39826e-05
-9.03674e-05
-0.000117781
-0.000138025
-0.000152706
-0.000163181
-0.00017055
-0.000175667
-0.000179172
-0.000181536
-0.000183089
-0.000184064
-0.000184617
-0.000184854
-0.000184848
-0.000184646
-0.000184283
-0.000183783
-0.000183163
-0.000182439
-0.000181621
-0.000180719
-0.000179741
-0.000178695
-0.000177587
-0.000176421
-0.000175202
-0.000173933
-0.000172618
-0.000171259
-0.000169859
-0.000168418
-0.000166938
-0.000165421
-0.000163867
-0.000162277
-0.000160651
-0.00015899
-0.000157293
-0.00015556
-0.000153793
-0.00015199
-0.000150151
-0.000148276
-0.000146365
-0.000144417
-0.000142432
-0.000140408
-0.000138345
-0.000136244
-0.000134101
-0.000131917
-0.000129691
-0.000127422
-0.000125107
-0.000122746
-0.000120338
-0.00011788
-0.000115372
-0.00011281
-0.000110193
-0.000107519
-0.000104785
-0.000101989
-9.91271e-05
-9.61968e-05
-9.31946e-05
-9.01167e-05
-8.69591e-05
-8.37174e-05
-8.03868e-05
-7.69621e-05
-7.34378e-05
-6.98078e-05
-6.60654e-05
-6.22035e-05
-5.82144e-05
-5.40901e-05
-4.98222e-05
-4.54027e-05
-4.08258e-05
-3.60925e-05
-3.12244e-05
-2.63091e-05
-2.16485e-05
-1.83024e-05
-2.19307e-05
0.00136505
0.00126517
0.00114008
0.00100173
0.000859482
0.000719284
0.000585027
0.000459885
0.000346387
0.00024612
0.000159699
8.69385e-05
2.70462e-05
-2.12126e-05
-5.93395e-05
-8.89361e-05
-0.000111565
-0.000128653
-0.000141436
-0.000150939
-0.000157979
-0.00016319
-0.00016705
-0.000169908
-0.000172019
-0.000173563
-0.000174669
-0.000175427
-0.000175902
-0.000176143
-0.000176184
-0.000176054
-0.000175772
-0.000175357
-0.000174824
-0.000174185
-0.00017345
-0.000172628
-0.000171727
-0.000170753
-0.000169712
-0.000168609
-0.000167447
-0.00016623
-0.000164961
-0.000163642
-0.000162275
-0.000160862
-0.000159405
-0.000157903
-0.000156359
-0.000154773
-0.000153145
-0.000151476
-0.000149766
-0.000148015
-0.000146224
-0.000144392
-0.000142519
-0.000140605
-0.00013865
-0.000136652
-0.000134611
-0.000132528
-0.0001304
-0.000128227
-0.000126009
-0.000123743
-0.000121429
-0.000119066
-0.000116651
-0.000114184
-0.000111662
-0.000109083
-0.000106446
-0.000103748
-0.000100986
-9.81574e-05
-9.52595e-05
-9.22888e-05
-8.92416e-05
-8.6114e-05
-8.29017e-05
-7.96001e-05
-7.6204e-05
-7.27082e-05
-6.91065e-05
-6.53926e-05
-6.15597e-05
-5.76003e-05
-5.3507e-05
-4.92722e-05
-4.48895e-05
-4.03557e-05
-3.56777e-05
-3.08892e-05
-2.61031e-05
-2.16643e-05
-1.86206e-05
-2.16738e-05
0.00128821
0.00119966
0.00109015
0.000967761
0.00083991
0.000712297
0.000588917
0.00047284
0.00036646
0.000271372
0.000188333
0.000117379
5.79808e-05
9.19207e-06
-3.02017e-05
-6.15405e-05
-8.61677e-05
-0.00010534
-0.000120171
-0.000131606
-0.000140422
-0.000147231
-0.000152512
-0.000156625
-0.000159838
-0.000162353
-0.000164314
-0.000165829
-0.000166978
-0.000167821
-0.000168403
-0.000168761
-0.000168924
-0.000168914
-0.000168751
-0.000168451
-0.000168028
-0.000167495
-0.00016686
-0.000166134
-0.000165322
-0.000164432
-0.000163469
-0.000162438
-0.000161342
-0.000160185
-0.000158971
-0.000157701
-0.000156377
-0.000155002
-0.000153577
-0.000152103
-0.000150581
-0.000149013
-0.000147398
-0.000145737
-0.000144031
-0.00014228
-0.000140485
-0.000138644
-0.000136758
-0.000134827
-0.00013285
-0.000130827
-0.000128757
-0.000126639
-0.000124474
-0.000122259
-0.000119994
-0.000117677
-0.000115307
-0.000112883
-0.000110402
-0.000107864
-0.000105266
-0.000102605
-9.98793e-05
-9.70862e-05
-9.42227e-05
-9.12854e-05
-8.8271e-05
-8.51755e-05
-8.19949e-05
-7.87245e-05
-7.53594e-05
-7.18945e-05
-6.83237e-05
-6.46412e-05
-6.08401e-05
-5.69136e-05
-5.28548e-05
-4.86569e-05
-4.43151e-05
-3.9829e-05
-3.52103e-05
-3.05021e-05
-2.58313e-05
-2.15452e-05
-1.85637e-05
-2.0466e-05
0.00121947
0.00114007
0.00104329
0.000934527
0.000819526
0.000703433
0.000590147
0.000482608
0.000383076
0.000293124
0.000213605
0.00014473
8.61884e-05
3.72799e-05
-2.96184e-06
-3.56451e-05
-6.19138e-05
-8.28647e-05
-9.94935e-05
-0.000112665
-0.000123104
-0.000131399
-0.00013802
-0.000143329
-0.000147606
-0.000151065
-0.000153864
-0.000156125
-0.00015794
-0.000159381
-0.000160503
-0.000161349
-0.000161955
-0.00016235
-0.000162557
-0.000162598
-0.000162489
-0.000162245
-0.000161878
-0.000161399
-0.000160818
-0.000160143
-0.00015938
-0.000158535
-0.000157614
-0.00015662
-0.000155559
-0.000154433
-0.000153244
-0.000151996
-0.000150691
-0.000149331
-0.000147916
-0.000146449
-0.00014493
-0.00014336
-0.00014174
-0.000140071
-0.000138353
-0.000136587
-0.000134771
-0.000132907
-0.000130995
-0.000129033
-0.000127022
-0.00012496
-0.000122849
-0.000120685
-0.00011847
-0.0001162
-0.000113876
-0.000111496
-0.000109059
-0.000106561
-0.000104003
-0.000101381
-9.86924e-05
-9.59357e-05
-9.31077e-05
-9.02052e-05
-8.72248e-05
-8.41628e-05
-8.10152e-05
-7.77775e-05
-7.4445e-05
-7.10126e-05
-6.74747e-05
-6.38253e-05
-6.00583e-05
-5.6167e-05
-5.21452e-05
-4.7987e-05
-4.3689e-05
-3.92531e-05
-3.46946e-05
-3.00618e-05
-2.54825e-05
-2.1271e-05
-1.81467e-05
-1.85673e-05
0.00115753
0.00108571
0.000999445
0.000902336
0.000798728
0.000693112
0.000589143
0.000489601
0.000396612
0.000311701
0.000235778
0.000169189
0.000111804
6.31261e-05
2.24047e-05
-1.12654e-05
-3.8848e-05
-6.12919e-05
-7.94788e-05
-9.41917e-05
-0.000106102
-0.000115767
-0.00012364
-0.000130083
-0.000135379
-0.000139749
-0.000143365
-0.000146357
-0.00014883
-0.000150863
-0.000152519
-0.000153851
-0.000154899
-0.000155698
-0.000156277
-0.000156658
-0.000156863
-0.000156909
-0.00015681
-0.000156581
-0.000156231
-0.000155771
-0.000155209
-0.000154552
-0.000153806
-0.000152977
-0.00015207
-0.000151088
-0.000150036
-0.000148916
-0.000147732
-0.000146485
-0.000145178
-0.000143813
-0.000142391
-0.000140912
-0.00013938
-0.000137793
-0.000136153
-0.000134461
-0.000132717
-0.000130921
-0.000129073
-0.000127173
-0.000125221
-0.000123217
-0.000121159
-0.000119048
-0.000116882
-0.000114661
-0.000112383
-0.000110048
-0.000107653
-0.000105198
-0.00010268
-0.000100097
-9.74465e-05
-9.47269e-05
-9.19351e-05
-8.9068e-05
-8.61225e-05
-8.30948e-05
-7.99811e-05
-7.67771e-05
-7.34782e-05
-7.00795e-05
-6.65757e-05
-6.2961e-05
-5.92295e-05
-5.53752e-05
-5.13921e-05
-4.72755e-05
-4.30229e-05
-3.86381e-05
-3.41383e-05
-2.95722e-05
-2.50571e-05
-2.08501e-05
-1.74438e-05
-1.63056e-05
0.00110138
0.00103595
0.000958504
0.000871377
0.000777829
0.000681686
0.000586279
0.000494194
0.000407417
0.00032741
0.000255109
0.000190957
0.000134968
8.68185e-05
4.59383e-05
1.16011e-05
-1.69961e-05
-4.06662e-05
-6.01825e-05
-7.62477e-05
-8.94767e-05
-0.000100392
-0.000109427
-0.000116936
-0.000123201
-0.000128447
-0.000132852
-0.000136558
-0.000139674
-0.000142289
-0.000144475
-0.000146288
-0.000147777
-0.000148978
-0.000149926
-0.000150648
-0.000151167
-0.000151504
-0.000151674
-0.000151695
-0.000151578
-0.000151334
-0.000150974
-0.000150505
-0.000149936
-0.000149272
-0.00014852
-0.000147684
-0.000146769
-0.000145779
-0.000144716
-0.000143584
-0.000142386
-0.000141123
-0.000139798
-0.000138412
-0.000136967
-0.000135463
-0.000133903
-0.000132286
-0.000130613
-0.000128886
-0.000127103
-0.000125265
-0.000123373
-0.000121425
-0.000119423
-0.000117364
-0.000115249
-0.000113076
-0.000110845
-0.000108555
-0.000106204
-0.00010379
-0.000101313
-9.87695e-05
-9.6158e-05
-9.34761e-05
-9.0721e-05
-8.789e-05
-8.49798e-05
-8.19871e-05
-7.8908e-05
-7.57385e-05
-7.24741e-05
-6.911e-05
-6.56412e-05
-6.20622e-05
-5.83675e-05
-5.45513e-05
-5.06083e-05
-4.65344e-05
-4.23281e-05
-3.79941e-05
-3.35499e-05
-2.90405e-05
-2.45644e-05
-2.031e-05
-1.65551e-05
-1.39852e-05
0.00105021
0.00099027
0.000920284
0.000841745
0.000757064
0.000669452
0.00058188
0.000496721
0.000415812
0.00034054
0.000271842
0.000210229
0.000155826
0.000108451
6.76901e-05
3.29693e-05
3.62888e-06
-2.102e-05
-4.16495e-05
-5.88841e-05
-7.32821e-05
-8.53277e-05
-9.54309e-05
-0.000103932
-0.00011111
-0.000117191
-0.000122356
-0.000126752
-0.000130496
-0.000133682
-0.000136389
-0.000138678
-0.000140601
-0.000142203
-0.000143519
-0.00014458
-0.000145413
-0.00014604
-0.00014648
-0.000146751
-0.000146867
-0.00014684
-0.000146683
-0.000146404
-0.000146012
-0.000145515
-0.000144919
-0.00014423
-0.000143453
-0.000142592
-0.000141653
-0.000140637
-0.000139548
-0.000138389
-0.000137161
-0.000135869
-0.000134512
-0.000133092
-0.000131611
-0.00013007
-0.00012847
-0.000126811
-0.000125094
-0.00012332
-0.000121487
-0.000119598
-0.00011765
-0.000115644
-0.00011358
-0.000111457
-0.000109273
-0.000107028
-0.000104721
-0.00010235
-9.99143e-05
-9.7411e-05
-9.48385e-05
-9.21947e-05
-8.94769e-05
-8.66825e-05
-8.38083e-05
-8.08512e-05
-7.78074e-05
-7.4673e-05
-7.14438e-05
-6.81152e-05
-6.46823e-05
-6.114e-05
-5.74829e-05
-5.37059e-05
-4.9804e-05
-4.57736e-05
-4.1614e-05
-3.73298e-05
-3.29375e-05
-2.84752e-05
-2.40184e-05
-1.96866e-05
-1.55787e-05
-1.18316e-05
0.00100334
0.000948175
0.000884583
0.000813471
0.000736604
0.000656653
0.000576229
0.000497478
0.000422088
0.000351357
0.000286209
0.000227192
0.00017452
0.000128124
8.77188e-05
5.28638e-05
2.30248e-05
-2.37535e-06
-2.3915e-05
-4.21439e-05
-5.7564e-05
-7.06197e-05
-8.16943e-05
-9.11126e-05
-9.91451e-05
-0.000106015
-0.000111906
-0.000116966
-0.000121318
-0.000125061
-0.000128277
-0.000131033
-0.000133387
-0.000135384
-0.000137065
-0.000138463
-0.000139608
-0.000140524
-0.000141234
-0.000141755
-0.000142104
-0.000142296
-0.000142341
-0.000142253
-0.00014204
-0.00014171
-0.000141271
-0.00014073
-0.000140092
-0.000139362
-0.000138546
-0.000137647
-0.000136669
-0.000135614
-0.000134486
-0.000133287
-0.000132019
-0.000130684
-0.000129284
-0.00012782
-0.000126293
-0.000124704
-0.000123053
-0.000121342
-0.000119571
-0.000117739
-0.000115848
-0.000113896
-0.000111883
-0.000109809
-0.000107673
-0.000105475
-0.000103212
-0.000100885
-9.84904e-05
-9.60278e-05
-9.3495e-05
-9.08899e-05
-8.821e-05
-8.54528e-05
-8.26153e-05
-7.96944e-05
-7.66866e-05
-7.35881e-05
-7.03949e-05
-6.71026e-05
-6.37065e-05
-6.02017e-05
-5.65833e-05
-5.28463e-05
-4.89863e-05
-4.50002e-05
-4.08871e-05
-3.66517e-05
-3.23077e-05
-2.78849e-05
-2.34347e-05
-1.90154e-05
-1.4594e-05
-9.97433e-06
0.000960232
0.000909258
0.000851198
0.000786542
0.000716569
0.000643487
0.000569568
0.000496728
0.000426506
0.000360109
0.000298426
0.000242028
0.000191192
0.000145938
0.000106089
7.13178e-05
4.11986e-05
1.52548e-05
-7.00577e-06
-2.60625e-05
-4.23625e-05
-5.63095e-05
-6.82584e-05
-7.85155e-05
-8.73405e-05
-9.49512e-05
-0.000101529
-0.000107225
-0.000112162
-0.000116444
-0.000120157
-0.00012337
-0.000126145
-0.000128532
-0.000130574
-0.000132306
-0.000133761
-0.000134965
-0.000135943
-0.000136714
-0.000137296
-0.000137705
-0.000137955
-0.000138057
-0.000138022
-0.000137861
-0.00013758
-0.000137187
-0.000136689
-0.000136092
-0.0001354
-0.000134619
-0.000133752
-0.000132802
-0.000131774
-0.00013067
-0.000129492
-0.000128243
-0.000126924
-0.000125537
-0.000124084
-0.000122566
-0.000120983
-0.000119336
-0.000117626
-0.000115854
-0.000114019
-0.000112121
-0.000110161
-0.000108137
-0.00010605
-0.000103898
-0.000101681
-9.9397e-05
-9.70453e-05
-9.46241e-05
-9.21316e-05
-8.95659e-05
-8.69246e-05
-8.42053e-05
-8.14053e-05
-7.85214e-05
-7.55503e-05
-7.24886e-05
-6.93322e-05
-6.6077e-05
-6.27186e-05
-5.92523e-05
-5.56734e-05
-5.19774e-05
-4.81601e-05
-4.42186e-05
-4.01522e-05
-3.59644e-05
-3.1666e-05
-2.72775e-05
-2.28278e-05
-1.83264e-05
-1.36552e-05
-8.45851e-06
0.000920414
0.000873161
0.000819929
0.000760919
0.000697039
0.000630112
0.0005621
0.000494701
0.000429303
0.000367019
0.000308696
0.00025491
0.00020598
0.000161997
0.000122872
8.8371e-05
5.81652e-05
3.18659e-05
9.05921e-06
-1.06686e-05
-2.77118e-05
-4.24339e-05
-5.51602e-05
-6.61767e-05
-7.57298e-05
-8.40297e-05
-9.12542e-05
-9.75525e-05
-0.00010305
-0.000107851
-0.000112044
-0.000115703
-0.000118891
-0.00012166
-0.000124056
-0.000126118
-0.000127879
-0.000129369
-0.000130613
-0.000131632
-0.000132447
-0.000133073
-0.000133526
-0.000133819
-0.000133964
-0.00013397
-0.000133848
-0.000133604
-0.000133247
-0.000132783
-0.000132216
-0.000131553
-0.000130798
-0.000129955
-0.000129028
-0.00012802
-0.000126933
-0.00012577
-0.000124533
-0.000123225
-0.000121846
-0.000120399
-0.000118884
-0.000117303
-0.000115655
-0.000113943
-0.000112165
-0.000110322
-0.000108415
-0.000106442
-0.000104404
-0.0001023
-0.000100129
-9.78895e-05
-9.55811e-05
-9.3202e-05
-9.07506e-05
-8.8225e-05
-8.56231e-05
-8.29425e-05
-8.01806e-05
-7.73346e-05
-7.44012e-05
-7.1377e-05
-6.82583e-05
-6.50412e-05
-6.17213e-05
-5.82945e-05
-5.47562e-05
-5.1102e-05
-4.73282e-05
-4.34319e-05
-3.94122e-05
-3.52713e-05
-3.10165e-05
-2.66595e-05
-2.22102e-05
-1.76423e-05
-1.27936e-05
-7.26992e-06
0.000883503
0.000839577
0.00079059
0.000736543
0.000678062
0.000616651
0.000553999
0.000491597
0.000430689
0.000372295
0.000317209
0.000266002
0.000219019
0.000176405
0.000138139
0.000104069
7.39463e-05
4.74606e-05
2.42681e-05
4.0159e-06
-1.36405e-05
-2.90249e-05
-4.24331e-05
-5.4129e-05
-6.43444e-05
-7.32798e-05
-8.11074e-05
-8.79737e-05
-9.40032e-05
-9.93013e-05
-0.000103957
-0.000108047
-0.000111636
-0.000114778
-0.000117522
-0.000119908
-0.000121972
-0.000123744
-0.000125251
-0.000126517
-0.000127562
-0.000128404
-0.00012906
-0.000129544
-0.000129868
-0.000130043
-0.000130079
-0.000129985
-0.000129769
-0.000129437
-0.000128997
-0.000128453
-0.000127811
-0.000127075
-0.000126249
-0.000125337
-0.000124341
-0.000123266
-0.000122112
-0.000120883
-0.00011958
-0.000118205
-0.000116759
-0.000115243
-0.000113659
-0.000112007
-0.000110287
-0.0001085
-0.000106647
-0.000104726
-0.000102738
-0.000100682
-9.85572e-05
-9.63633e-05
-9.40989e-05
-9.17627e-05
-8.93531e-05
-8.68684e-05
-8.43067e-05
-8.16656e-05
-7.89428e-05
-7.61354e-05
-7.32405e-05
-7.02548e-05
-6.71748e-05
-6.39967e-05
-6.07164e-05
-5.733e-05
-5.38332e-05
-5.02218e-05
-4.64923e-05
-4.26418e-05
-3.8669e-05
-3.45747e-05
-3.03625e-05
-2.60367e-05
-2.15917e-05
-1.69788e-05
-1.20219e-05
-6.36185e-06
0.00084917
0.000808236
0.000763009
0.000713348
0.000659664
0.000603201
0.000545408
0.000487589
0.000430851
0.00037612
0.000324139
0.000275458
0.000230438
0.000189262
0.000151966
0.000118461
8.85695e-05
6.20478e-05
3.86155e-05
1.79749e-05
-1.71729e-07
-1.61103e-05
-3.01067e-05
-4.24026e-05
-5.32137e-05
-6.27295e-05
-7.11148e-05
-7.85119e-05
-8.50433e-05
-9.08138e-05
-9.59131e-05
-0.000100418
-0.000104395
-0.0001079
-0.000110983
-0.000113686
-0.000116046
-0.000118096
-0.000119863
-0.000121373
-0.000122647
-0.000123704
-0.000124562
-0.000125235
-0.000125737
-0.00012608
-0.000126275
-0.00012633
-0.000126255
-0.000126058
-0.000125743
-0.000125319
-0.000124791
-0.000124162
-0.000123438
-0.000122623
-0.00012172
-0.000120732
-0.000119662
-0.000118513
-0.000117286
-0.000115983
-0.000114607
-0.000113158
-0.000111638
-0.000110047
-0.000108386
-0.000106656
-0.000104857
-0.000102988
-0.000101051
-9.90439e-05
-9.69669e-05
-9.48191e-05
-9.25994e-05
-9.03068e-05
-8.79399e-05
-8.5497e-05
-8.29762e-05
-8.03755e-05
-7.76926e-05
-7.49248e-05
-7.20692e-05
-6.9123e-05
-6.60825e-05
-6.29444e-05
-5.97048e-05
-5.63598e-05
-5.29054e-05
-4.93378e-05
-4.56534e-05
-4.18493e-05
-3.79238e-05
-3.38762e-05
-2.97069e-05
-2.54135e-05
-2.09799e-05
-1.63453e-05
-1.13407e-05
-5.67654e-06
0.000817133
0.000778904
0.000737027
0.00069126
0.000641853
0.000589834
0.000536446
0.000482826
0.000429954
0.000378664
0.000329645
0.000283423
0.000240361
0.00020067
0.000164428
0.000131601
0.000102067
7.56426e-05
5.21021e-05
3.11983e-05
1.26765e-05
-3.71284e-06
-1.82068e-05
-3.10246e-05
-4.23648e-05
-5.24048e-05
-6.1301e-05
-6.91902e-05
-7.61915e-05
-8.24079e-05
-8.79287e-05
-9.28309e-05
-9.71813e-05
-0.000101038
-0.00010445
-0.000107462
-0.000110113
-0.000112435
-0.000114458
-0.000116208
-0.000117708
-0.000118977
-0.000120035
-0.000120897
-0.000121576
-0.000122087
-0.000122439
-0.000122644
-0.000122711
-0.000122646
-0.000122459
-0.000122154
-0.000121739
-0.000121219
-0.000120598
-0.00011988
-0.00011907
-0.00011817
-0.000117184
-0.000116115
-0.000114965
-0.000113736
-0.00011243
-0.000111048
-0.000109593
-0.000108064
-0.000106462
-0.000104789
-0.000103045
-0.00010123
-9.93443e-05
-9.7387e-05
-9.53582e-05
-9.32572e-05
-9.10831e-05
-8.88349e-05
-8.65114e-05
-8.4111e-05
-8.16321e-05
-7.90726e-05
-7.64304e-05
-7.37031e-05
-7.08879e-05
-6.79819e-05
-6.49821e-05
-6.18849e-05
-5.86869e-05
-5.53843e-05
-5.19734e-05
-4.84505e-05
-4.48121e-05
-4.10553e-05
-3.71776e-05
-3.31772e-05
-2.90516e-05
-2.47936e-05
-2.038e-05
-1.57464e-05
-1.07431e-05
-5.15873e-06
0.000787149
0.000751378
0.000712502
0.000670208
0.000624625
0.000576604
0.000527212
0.000477436
0.000428141
0.000380077
0.000333874
0.00029003
0.000248905
0.000210726
0.000175603
0.000143543
0.000114475
8.82643e-05
6.47337e-05
4.36809e-05
2.48911e-05
8.14858e-06
-6.75585e-06
-2.0019e-05
-3.18223e-05
-4.23301e-05
-5.16894e-05
-6.00305e-05
-6.74681e-05
-7.41025e-05
-8.00215e-05
-8.53016e-05
-9.00095e-05
-9.42035e-05
-9.79344e-05
-0.000101247
-0.00010418
-0.000106768
-0.000109042
-0.000111028
-0.00011275
-0.00011423
-0.000115485
-0.000116533
-0.000117389
-0.000118066
-0.000118576
-0.00011893
-0.000119137
-0.000119206
-0.000119144
-0.00011896
-0.000118659
-0.000118247
-0.000117728
-0.000117109
-0.000116391
-0.000115581
-0.00011468
-0.000113692
-0.000112619
-0.000111464
-0.000110229
-0.000108915
-0.000107524
-0.000106058
-0.000104517
-0.000102902
-0.000101213
-9.94522e-05
-9.76183e-05
-9.57115e-05
-9.37316e-05
-9.16781e-05
-8.95504e-05
-8.73474e-05
-8.5068e-05
-8.2711e-05
-8.02747e-05
-7.77573e-05
-7.51567e-05
-7.24707e-05
-6.96967e-05
-6.68321e-05
-6.38738e-05
-6.08186e-05
-5.76632e-05
-5.44041e-05
-5.10376e-05
-4.75604e-05
-4.3969e-05
-4.02602e-05
-3.64312e-05
-3.2479e-05
-2.83988e-05
-2.41799e-05
-1.97956e-05
-1.51837e-05
-1.02189e-05
-4.76225e-06
0.000759008
0.000725479
0.000689303
0.000650121
0.000607968
0.00056355
0.000517784
0.000471528
0.000425542
0.000380494
0.000336959
0.000295405
0.000256181
0.000219524
0.000185564
0.000154345
0.000125833
9.99367e-05
7.65206e-05
5.54224e-05
3.64635e-05
1.94594e-05
4.22764e-06
-9.40698e-06
-2.16085e-05
-3.25279e-05
-4.23021e-05
-5.1054e-05
-5.8893e-05
-6.5916e-05
-7.22086e-05
-7.78458e-05
-8.28938e-05
-8.74109e-05
-9.1448e-05
-9.50503e-05
-9.82575e-05
-0.000101105
-0.000103623
-0.000105841
-0.000107781
-0.000109467
-0.000110917
-0.00011215
-0.00011318
-0.000114022
-0.000114688
-0.000115189
-0.000115537
-0.000115738
-0.000115803
-0.000115739
-0.000115552
-0.000115248
-0.000114832
-0.00011431
-0.000113687
-0.000112965
-0.00011215
-0.000111243
-0.000110248
-0.000109167
-0.000108003
-0.000106758
-0.000105433
-0.00010403
-0.000102549
-0.000100993
-9.93612e-05
-9.76546e-05
-9.58734e-05
-9.40178e-05
-9.20875e-05
-9.00823e-05
-8.80016e-05
-8.58445e-05
-8.36102e-05
-8.12973e-05
-7.89044e-05
-7.64299e-05
-7.38718e-05
-7.1228e-05
-6.84962e-05
-6.56738e-05
-6.2758e-05
-5.97458e-05
-5.6634e-05
-5.34193e-05
-5.00984e-05
-4.66679e-05
-4.31244e-05
-3.94647e-05
-3.56854e-05
-3.17826e-05
-2.77499e-05
-2.35745e-05
-1.92288e-05
-1.46562e-05
-9.75704e-06
-4.45172e-06
0.000732526
0.000701049
0.000667313
0.00063093
0.000591863
0.0005507
0.000508229
0.000465196
0.000422265
0.000380033
0.000339022
0.000299663
0.000262294
0.000227153
0.000194387
0.000164065
0.000136183
0.000110687
8.74771e-05
6.64267e-05
4.73892e-05
3.0209e-05
1.47285e-05
7.93429e-07
-1.17431e-05
-2.30186e-05
-3.31594e-05
-4.22805e-05
-5.04852e-05
-5.78664e-05
-6.45065e-05
-7.04788e-05
-7.58484e-05
-8.06727e-05
-8.50027e-05
-8.88837e-05
-9.23555e-05
-9.54538e-05
-9.82103e-05
-0.000100653
-0.000102807
-0.000104695
-0.000106337
-0.000107751
-0.000108953
-0.000109958
-0.000110779
-0.000111427
-0.000111914
-0.000112248
-0.000112438
-0.000112493
-0.000112419
-0.000112223
-0.000111911
-0.000111487
-0.000110958
-0.000110325
-0.000109595
-0.00010877
-0.000107853
-0.000106848
-0.000105755
-0.000104579
-0.00010332
-0.000101981
-0.000100562
-9.90642e-05
-9.74895e-05
-9.5838e-05
-9.41102e-05
-9.23064e-05
-9.04264e-05
-8.84702e-05
-8.64372e-05
-8.43268e-05
-8.21382e-05
-7.98702e-05
-7.75215e-05
-7.50907e-05
-7.2576e-05
-6.99754e-05
-6.72867e-05
-6.45074e-05
-6.16351e-05
-5.86668e-05
-5.55996e-05
-5.24305e-05
-4.91561e-05
-4.57733e-05
-4.22787e-05
-3.86691e-05
-3.49407e-05