/*--------------------------------*- C++ -*----------------------------------*\
| =========                 |                                                 |
| \\      /  F ield         | OpenFOAM: The Open Source CFD Toolbox           |
|  \\    /   O peration     | Version:  2.3.0                                 |
|   \\  /    A nd           | Web:      www.OpenFOAM.org                      |
|    \\/     M anipulation  |                                                 |
\*---------------------------------------------------------------------------*/
FoamFile
{
    version     2.0;
    format      ascii;
    class       surfaceScalarField;
    location    "0.8";
    object      phi_0;
}
// * * * * * * * * * * * * * * * * * * * * * * * * * * * * * * * * * * * * * //

dimensions      [0 3 -1 0 0 0 0];

internalField   nonuniform List<scalar> 
17305
(
2.83161e-08
2.88409e-09
-3.12002e-08
2.54494e-08
2.86669e-09
2.27595e-08
2.6899e-09
2.02801e-08
2.47942e-09
1.80272e-08
2.25284e-09
1.60116e-08
2.01566e-09
1.42355e-08
1.77608e-09
1.26936e-08
1.54186e-09
1.1374e-08
1.3196e-09
1.02594e-08
1.11465e-09
9.32843e-09
9.30942e-10
8.55765e-09
7.70779e-10
7.92287e-09
6.34784e-10
7.40076e-09
5.22112e-10
6.96996e-09
4.30792e-10
6.61182e-09
3.58144e-10
6.31064e-09
3.01177e-10
6.05372e-09
2.56922e-10
5.83106e-09
2.2266e-10
5.63501e-09
1.96056e-10
5.45981e-09
1.752e-10
5.30121e-09
1.58595e-10
5.1561e-09
1.45112e-10
5.02218e-09
1.33918e-10
4.89776e-09
1.2442e-10
4.78156e-09
1.16197e-10
4.6726e-09
1.08961e-10
4.57009e-09
1.02508e-10
4.4734e-09
9.66969e-11
4.38197e-09
9.14268e-11
4.29535e-09
8.66225e-11
4.21312e-09
8.22265e-11
4.13493e-09
7.81924e-11
4.06045e-09
7.44814e-11
3.98939e-09
7.10605e-11
3.92149e-09
6.79005e-11
3.85651e-09
6.49758e-11
3.79425e-09
6.22634e-11
3.7345e-09
5.97431e-11
3.67711e-09
5.73966e-11
3.6219e-09
5.52078e-11
3.56874e-09
5.3162e-11
3.51749e-09
5.12464e-11
3.46804e-09
4.94496e-11
3.42028e-09
4.77613e-11
3.37411e-09
4.61723e-11
3.32943e-09
4.46744e-11
3.28617e-09
4.32603e-11
3.24425e-09
4.19235e-11
3.20359e-09
4.06579e-11
3.16413e-09
3.94582e-11
3.12581e-09
3.83196e-11
3.08858e-09
3.72377e-11
3.05237e-09
3.62085e-11
3.01714e-09
3.52284e-11
2.98285e-09
3.42941e-11
2.94944e-09
3.34025e-11
2.91689e-09
3.2551e-11
2.88516e-09
3.17369e-11
2.8542e-09
3.09579e-11
2.82399e-09
3.02118e-11
2.79449e-09
2.94968e-11
2.76568e-09
2.8811e-11
2.73753e-09
2.81528e-11
2.71e-09
2.75204e-11
2.68309e-09
2.69126e-11
2.65676e-09
2.63281e-11
2.631e-09
2.57655e-11
2.60577e-09
2.52237e-11
2.58107e-09
2.47018e-11
2.55687e-09
2.41987e-11
2.53316e-09
2.37136e-11
2.50992e-09
2.32455e-11
2.48712e-09
2.27938e-11
2.46476e-09
2.23578e-11
2.44283e-09
2.19369e-11
2.4213e-09
2.15303e-11
2.40016e-09
2.11377e-11
2.3794e-09
2.07586e-11
2.35901e-09
2.03925e-11
2.33897e-09
2.00391e-11
2.31927e-09
1.9698e-11
2.2999e-09
1.93692e-11
2.28085e-09
1.90523e-11
2.2621e-09
1.87473e-11
2.24365e-09
1.84541e-11
2.22547e-09
1.8173e-11
2.20757e-09
1.7904e-11
2.18992e-09
1.76475e-11
2.17252e-09
1.74042e-11
2.15534e-09
1.71752e-11
2.13838e-09
1.69621e-11
2.12161e-09
1.67677e-11
2.10502e-09
1.65977e-11
2.08855e-09
1.64631e-11
2.07216e-09
1.639e-11
2.05571e-09
1.64506e-11
2.03889e-09
1.68239e-11
2.0213e-09
1.75885e-11
5.27455e-11
3.33506e-08
3.16045e-09
-3.36269e-08
3.27605e-08
3.45681e-09
3.19384e-08
3.51201e-09
3.0961e-08
3.45681e-09
2.98838e-08
3.33005e-09
2.87523e-08
3.14711e-09
2.76036e-08
2.92485e-09
2.64658e-08
2.67966e-09
2.53598e-08
2.42551e-09
2.43005e-08
2.17396e-09
2.32973e-08
1.93415e-09
2.23555e-08
1.71262e-09
2.14769e-08
1.51332e-09
2.06612e-08
1.33785e-09
1.99061e-08
1.18594e-09
1.92082e-08
1.05602e-09
1.85636e-08
9.4574e-10
1.79681e-08
8.52414e-10
1.74174e-08
7.73371e-10
1.69073e-08
7.06146e-10
1.64339e-08
6.48591e-10
1.59936e-08
5.98909e-10
1.55831e-08
5.55642e-10
1.51994e-08
5.17625e-10
1.48399e-08
4.83945e-10
1.45022e-08
4.53886e-10
1.41842e-08
4.26886e-10
1.38842e-08
4.02504e-10
1.36006e-08
3.80384e-10
1.33317e-08
3.60239e-10
1.30765e-08
3.4183e-10
1.28338e-08
3.2496e-10
1.26025e-08
3.09457e-10
1.23818e-08
2.95177e-10
1.21709e-08
2.81991e-10
1.1969e-08
2.6979e-10
1.17755e-08
2.58474e-10
1.15898e-08
2.47959e-10
1.14114e-08
2.38167e-10
1.12398e-08
2.29031e-10
1.10745e-08
2.20492e-10
1.09152e-08
2.12495e-10
1.07614e-08
2.04994e-10
1.06129e-08
1.97945e-10
1.04694e-08
1.91311e-10
1.03305e-08
1.85058e-10
1.0196e-08
1.79155e-10
1.00657e-08
1.73575e-10
9.93931e-09
1.68294e-10
9.81668e-09
1.63288e-10
9.6976e-09
1.58538e-10
9.58189e-09
1.54025e-10
9.4694e-09
1.49733e-10
9.35996e-09
1.45646e-10
9.25344e-09
1.41751e-10
9.1497e-09
1.38035e-10
9.04861e-09
1.34486e-10
8.95007e-09
1.31093e-10
8.85396e-09
1.27847e-10
8.76018e-09
1.24739e-10
8.66863e-09
1.2176e-10
8.57923e-09
1.18903e-10
8.49188e-09
1.16161e-10
8.4065e-09
1.13526e-10
8.32303e-09
1.10994e-10
8.24138e-09
1.08558e-10
8.1615e-09
1.06213e-10
8.08331e-09
1.03954e-10
8.00676e-09
1.01778e-10
7.93178e-09
9.96789e-11
7.85832e-09
9.76538e-11
7.78634e-09
9.5699e-11
7.71577e-09
9.38111e-11
7.64658e-09
9.19872e-11
7.57871e-09
9.02243e-11
7.51213e-09
8.85199e-11
7.44679e-09
8.68715e-11
7.38265e-09
8.52771e-11
7.31967e-09
8.37346e-11
7.25782e-09
8.22422e-11
7.19706e-09
8.07984e-11
7.13736e-09
7.94019e-11
7.07868e-09
7.80516e-11
7.02098e-09
7.67464e-11
6.96425e-09
7.54858e-11
6.90843e-09
7.42695e-11
6.85351e-09
7.30974e-11
6.79944e-09
7.19701e-11
6.7462e-09
7.08884e-11
6.69375e-09
6.98542e-11
6.64205e-09
6.88705e-11
6.59107e-09
6.79426e-11
6.54076e-09
6.70795e-11
6.49106e-09
6.62984e-11
6.44189e-09
6.56351e-11
6.3931e-09
6.51748e-11
6.34441e-09
6.51443e-11
6.2951e-09
6.61322e-11
6.23926e-09
7.34334e-11
1.33505e-10
3.47457e-08
3.01089e-09
-3.45961e-08
3.48063e-08
3.39619e-09
3.47406e-08
3.57778e-09
3.45539e-08
3.64344e-09
3.42571e-08
3.62691e-09
3.38642e-08
3.53993e-09
3.33929e-08
3.39622e-09
3.28608e-08
3.21175e-09
3.22847e-08
3.00162e-09
3.16794e-08
2.77917e-09
3.10579e-08
2.5557e-09
3.04305e-08
2.34005e-09
2.98053e-08
2.13845e-09
2.91886e-08
1.95457e-09
2.85847e-08
1.78991e-09
2.79964e-08
1.64434e-09
2.74255e-08
1.51662e-09
2.6873e-08
1.40491e-09
2.63392e-08
1.30712e-09
2.58242e-08
1.22117e-09
2.53276e-08
1.14518e-09
2.4849e-08
1.07752e-09
2.43878e-08
1.01682e-09
2.39435e-08
9.61964e-10
2.35154e-08
9.12073e-10
2.31028e-08
8.66438e-10
2.27052e-08
8.24497e-10
2.23219e-08
7.85801e-10
2.19523e-08
7.49984e-10
2.15958e-08
7.16744e-10
2.12518e-08
6.85829e-10
2.09197e-08
6.57021e-10
2.05991e-08
6.30132e-10
2.02892e-08
6.04996e-10
1.99898e-08
5.81465e-10
1.97001e-08
5.59406e-10
1.94199e-08
5.38701e-10
1.91486e-08
5.19242e-10
1.88859e-08
5.0093e-10
1.86312e-08
4.83677e-10
1.83843e-08
4.67402e-10
1.81448e-08
4.52032e-10
1.79123e-08
4.37499e-10
1.76865e-08
4.23742e-10
1.74671e-08
4.10706e-10
1.72538e-08
3.98339e-10
1.70464e-08
3.86595e-10
1.68445e-08
3.75432e-10
1.6648e-08
3.6481e-10
1.64566e-08
3.54692e-10
1.62701e-08
3.45047e-10
1.60883e-08
3.35844e-10
1.59109e-08
3.27054e-10
1.57379e-08
3.18652e-10
1.55691e-08
3.10614e-10
1.54042e-08
3.02918e-10
1.52431e-08
2.95544e-10
1.50857e-08
2.88473e-10
1.49319e-08
2.81687e-10
1.47815e-08
2.7517e-10
1.46343e-08
2.68907e-10
1.44904e-08
2.62884e-10
1.43494e-08
2.57087e-10
1.42114e-08
2.51505e-10
1.40763e-08
2.46127e-10
1.39439e-08
2.40941e-10
1.38142e-08
2.35938e-10
1.3687e-08
2.31109e-10
1.35624e-08
2.26445e-10
1.34401e-08
2.21938e-10
1.33202e-08
2.1758e-10
1.32025e-08
2.13366e-10
1.30871e-08
2.09287e-10
1.29737e-08
2.05339e-10
1.28624e-08
2.01515e-10
1.27531e-08
1.97811e-10
1.26458e-08
1.94221e-10
1.25403e-08
1.90741e-10
1.24367e-08
1.87368e-10
1.23348e-08
1.84097e-10
1.22347e-08
1.80925e-10
1.21362e-08
1.7785e-10
1.20394e-08
1.74869e-10
1.19442e-08
1.7198e-10
1.18505e-08
1.69182e-10
1.17583e-08
1.66474e-10
1.16675e-08
1.63855e-10
1.15782e-08
1.61327e-10
1.14902e-08
1.5889e-10
1.14035e-08
1.56549e-10
1.1318e-08
1.54308e-10
1.12338e-08
1.52177e-10
1.11507e-08
1.50174e-10
1.10687e-08
1.48331e-10
1.09876e-08
1.46715e-10
1.09073e-08
1.45489e-10
1.08273e-08
1.45092e-10
1.07466e-08
1.46923e-10
1.06592e-08
1.60797e-10
2.27602e-10
3.558e-08
2.82229e-09
-3.53914e-08
3.57718e-08
3.20433e-09
3.59224e-08
3.42719e-09
3.60193e-08
3.54655e-09
3.60558e-08
3.59036e-09
3.60282e-08
3.56762e-09
3.59367e-08
3.48764e-09
3.57857e-08
3.36282e-09
3.55812e-08
3.20607e-09
3.53309e-08
3.02948e-09
3.50428e-08
2.84384e-09
3.47247e-08
2.65816e-09
3.43838e-08
2.4793e-09
3.40265e-08
2.31187e-09
3.3658e-08
2.15844e-09
3.32824e-08
2.01994e-09
3.29029e-08
1.89608e-09
3.2522e-08
1.78581e-09
3.21415e-08
1.68767e-09
3.17626e-08
1.60008e-09
3.13863e-08
1.52149e-09
3.10133e-08
1.45052e-09
3.06441e-08
1.38598e-09
3.02792e-08
1.32688e-09
2.99189e-08
1.2724e-09
2.95634e-08
1.22191e-09
2.9213e-08
1.17489e-09
2.88679e-08
1.13093e-09
2.85282e-08
1.08969e-09
2.8194e-08
1.05092e-09
2.78654e-08
1.01438e-09
2.75426e-08
9.79883e-10
2.72254e-08
9.47267e-10
2.6914e-08
9.16386e-10
2.66084e-08
8.87115e-10
2.63085e-08
8.59339e-10
2.60142e-08
8.32954e-10
2.57256e-08
8.07867e-10
2.54425e-08
7.83992e-10
2.51649e-08
7.6125e-10
2.48928e-08
7.3957e-10
2.46259e-08
7.18884e-10
2.43643e-08
6.99132e-10
2.41078e-08
6.80258e-10
2.38563e-08
6.62208e-10
2.36097e-08
6.44935e-10
2.33679e-08
6.28393e-10
2.31308e-08
6.12541e-10
2.28982e-08
5.9734e-10
2.26702e-08
5.82754e-10
2.24465e-08
5.68749e-10
2.2227e-08
5.55294e-10
2.20117e-08
5.42359e-10
2.18005e-08
5.29917e-10
2.15931e-08
5.17942e-10
2.13896e-08
5.0641e-10
2.11899e-08
4.95298e-10
2.09938e-08
4.84585e-10
2.08012e-08
4.74251e-10
2.06121e-08
4.64278e-10
2.04264e-08
4.54648e-10
2.02439e-08
4.45344e-10
2.00646e-08
4.3635e-10
1.98885e-08
4.27653e-10
1.97154e-08
4.19238e-10
1.95452e-08
4.11092e-10
1.9378e-08
4.03203e-10
1.92135e-08
3.9556e-10
1.90518e-08
3.88151e-10
1.88928e-08
3.80966e-10
1.87364e-08
3.73996e-10
1.85825e-08
3.67232e-10
1.84311e-08
3.60665e-10
1.82822e-08
3.54288e-10
1.81356e-08
3.48092e-10
1.79913e-08
3.42071e-10
1.78493e-08
3.36219e-10
1.77095e-08
3.30529e-10
1.75719e-08
3.24997e-10
1.74364e-08
3.19616e-10
1.73029e-08
3.14384e-10
1.71715e-08
3.09295e-10
1.7042e-08
3.04347e-10
1.69145e-08
2.99538e-10
1.67888e-08
2.94864e-10
1.66649e-08
2.90326e-10
1.65429e-08
2.85922e-10
1.64225e-08
2.81655e-10
1.63039e-08
2.77527e-10
1.61869e-08
2.73542e-10
1.60715e-08
2.6971e-10
1.59576e-08
2.66046e-10
1.58452e-08
2.62575e-10
1.57342e-08
2.59346e-10
1.56245e-08
2.56463e-10
1.55158e-08
2.54169e-10
1.54077e-08
2.53132e-10
1.52991e-08
2.55592e-10
1.51872e-08
2.72685e-10
3.33736e-10
3.63306e-08
2.6573e-09
-3.61656e-08
3.65252e-08
3.0097e-09
3.67136e-08
3.23876e-09
3.68831e-08
3.37707e-09
3.70261e-08
3.44739e-09
3.71354e-08
3.45837e-09
3.72059e-08
3.41709e-09
3.72355e-08
3.33318e-09
3.72244e-08
3.21719e-09
3.71745e-08
3.07936e-09
3.70893e-08
2.9291e-09
3.69729e-08
2.77456e-09
3.68299e-08
2.62227e-09
3.66648e-08
2.47693e-09
3.64818e-08
2.34152e-09
3.62842e-08
2.2175e-09
3.6075e-08
2.10522e-09
3.58567e-08
2.00419e-09
3.56309e-08
1.91347e-09
3.5399e-08
1.83189e-09
3.51623e-08
1.75823e-09
3.49215e-08
1.69133e-09
3.46773e-08
1.63017e-09
3.44303e-08
1.57387e-09
3.4181e-08
1.52172e-09
3.39298e-08
1.47311e-09
3.36771e-08
1.42759e-09
3.34233e-08
1.38476e-09
3.31686e-08
1.34432e-09
3.29135e-08
1.30602e-09
3.26582e-08
1.26967e-09
3.24031e-08
1.23508e-09
3.21482e-08
1.20212e-09
3.18939e-08
1.17066e-09
3.16405e-08
1.14059e-09
3.1388e-08
1.11182e-09
3.11367e-08
1.08425e-09
3.08867e-08
1.05782e-09
3.06383e-08
1.03245e-09
3.03915e-08
1.00807e-09
3.01464e-08
9.84637e-10
2.99032e-08
9.62088e-10
2.96619e-08
9.40376e-10
2.94227e-08
9.19456e-10
2.91857e-08
8.99286e-10
2.89508e-08
8.79827e-10
2.87181e-08
8.61043e-10
2.84878e-08
8.42902e-10
2.82597e-08
8.25371e-10
2.80341e-08
8.08422e-10
2.78108e-08
7.92028e-10
2.75899e-08
7.76163e-10
2.73715e-08
7.60803e-10
2.71555e-08
7.45926e-10
2.69419e-08
7.31509e-10
2.67308e-08
7.17535e-10
2.65221e-08
7.03982e-10
2.63158e-08
6.90834e-10
2.6112e-08
6.78073e-10
2.59106e-08
6.65683e-10
2.57116e-08
6.53649e-10
2.5515e-08
6.41957e-10
2.53208e-08
6.30592e-10
2.51289e-08
6.19542e-10
2.49393e-08
6.08793e-10
2.47521e-08
5.98336e-10
2.45671e-08
5.88157e-10
2.43844e-08
5.78246e-10
2.4204e-08
5.68594e-10
2.40258e-08
5.59191e-10
2.38497e-08
5.50027e-10
2.36759e-08
5.41093e-10
2.35041e-08
5.32383e-10
2.33345e-08
5.23888e-10
2.3167e-08
5.156e-10
2.30016e-08
5.07514e-10
2.28382e-08
4.99622e-10
2.26768e-08
4.91919e-10
2.25174e-08
4.844e-10
2.236e-08
4.7706e-10
2.22044e-08
4.69894e-10
2.20508e-08
4.629e-10
2.18991e-08
4.56073e-10
2.17492e-08
4.49413e-10
2.16012e-08
4.42917e-10
2.14549e-08
4.36585e-10
2.13104e-08
4.30418e-10
2.11677e-08
4.2442e-10
2.10266e-08
4.18593e-10
2.08872e-08
4.12946e-10
2.07494e-08
4.07492e-10
2.06132e-08
4.02251e-10
2.04785e-08
3.97258e-10
2.03453e-08
3.92579e-10
2.02134e-08
3.8835e-10
2.00827e-08
3.84888e-10
1.99528e-08
3.83038e-10
1.98229e-08
3.8548e-10
1.96934e-08
4.02147e-10
4.49544e-10
3.70746e-08
2.51844e-09
-3.69358e-08
3.72486e-08
2.83572e-09
3.74294e-08
3.05797e-09
3.76049e-08
3.20152e-09
3.77689e-08
3.28347e-09
3.79151e-08
3.31214e-09
3.80385e-08
3.29371e-09
3.81356e-08
3.23602e-09
3.82049e-08
3.14792e-09
3.82461e-08
3.03818e-09
3.82602e-08
2.91494e-09
3.82494e-08
2.78539e-09
3.82162e-08
2.65546e-09
3.81635e-08
2.52962e-09
3.80942e-08
2.41089e-09
3.80107e-08
2.30099e-09
3.79153e-08
2.20061e-09
3.78098e-08
2.10966e-09
3.76957e-08
2.02756e-09
3.75742e-08
1.95347e-09
3.7446e-08
1.88642e-09
3.73118e-08
1.82547e-09
3.71723e-08
1.76973e-09
3.70277e-08
1.71843e-09
3.68785e-08
1.67092e-09
3.6725e-08
1.62665e-09
3.65674e-08
1.58517e-09
3.6406e-08
1.54613e-09
3.62411e-08
1.50922e-09
3.60729e-08
1.47422e-09
3.59017e-08
1.44091e-09
3.57276e-08
1.40915e-09
3.55509e-08
1.37879e-09
3.53719e-08
1.34971e-09
3.51907e-08
1.32181e-09
3.50075e-08
1.295e-09
3.48225e-08
1.26921e-09
3.4636e-08
1.24436e-09
3.4448e-08
1.22039e-09
3.42589e-08
1.19724e-09
3.40686e-08
1.17487e-09
3.38775e-08
1.15323e-09
3.36856e-08
1.13227e-09
3.34931e-08
1.11196e-09
3.33001e-08
1.09227e-09
3.31068e-08
1.07315e-09
3.29133e-08
1.05459e-09
3.27196e-08
1.03656e-09
3.25259e-08
1.01902e-09
3.23324e-08
1.00197e-09
3.21391e-08
9.85368e-10
3.1946e-08
9.69206e-10
3.17534e-08
9.53462e-10
3.15612e-08
9.3812e-10
3.13695e-08
9.23163e-10
3.11785e-08
9.08575e-10
3.09881e-08
8.94343e-10
3.07985e-08
8.80452e-10
3.06097e-08
8.66891e-10
3.04217e-08
8.53647e-10
3.02347e-08
8.40708e-10
3.00485e-08
8.28064e-10
2.98634e-08
8.15705e-10
2.96794e-08
8.0362e-10
2.94963e-08
7.918e-10
2.93144e-08
7.80237e-10
2.91337e-08
7.68921e-10
2.89541e-08
7.57845e-10
2.87757e-08
7.47001e-10
2.85985e-08
7.36382e-10
2.84225e-08
7.25981e-10
2.82478e-08
7.15791e-10
2.80744e-08
7.05806e-10
2.79023e-08
6.9602e-10
2.77315e-08
6.86427e-10
2.75619e-08
6.77024e-10
2.73938e-08
6.67804e-10
2.72269e-08
6.58764e-10
2.70614e-08
6.49899e-10
2.68973e-08
6.41207e-10
2.67345e-08
6.32685e-10
2.6573e-08
6.2433e-10
2.6413e-08
6.16141e-10
2.62543e-08
6.08118e-10
2.60969e-08
6.0026e-10
2.59409e-08
5.9257e-10
2.57863e-08
5.85049e-10
2.5633e-08
5.77704e-10
2.54811e-08
5.7054e-10
2.53305e-08
5.6357e-10
2.51811e-08
5.56809e-10
2.50331e-08
5.50286e-10
2.48863e-08
5.44043e-10
2.47407e-08
5.38161e-10
2.45963e-08
5.32802e-10
2.44528e-08
5.2833e-10
2.43102e-08
5.25662e-10
2.41683e-08
5.27391e-10
2.40296e-08
5.40826e-10
5.70666e-10
3.78239e-08
2.39988e-09
-3.77054e-08
3.79766e-08
2.68311e-09
3.81412e-08
2.89333e-09
3.83063e-08
3.03645e-09
3.84657e-08
3.12401e-09
3.86145e-08
3.16333e-09
3.87483e-08
3.15992e-09
3.8864e-08
3.12037e-09
3.89597e-08
3.05223e-09
3.90347e-08
2.96311e-09
3.90895e-08
2.86017e-09
3.91251e-08
2.74977e-09
3.91433e-08
2.6373e-09
3.9146e-08
2.52693e-09
3.91353e-08
2.42162e-09
3.9113e-08
2.3232e-09
3.90811e-08
2.23259e-09
3.90407e-08
2.14998e-09
3.89932e-08
2.07508e-09
3.89394e-08
2.0073e-09
3.88799e-08
1.94591e-09
3.88152e-08
1.89012e-09
3.87458e-08
1.83918e-09
3.86718e-08
1.79243e-09
3.85934e-08
1.74926e-09
3.85109e-08
1.70917e-09
3.84243e-08
1.67174e-09
3.83338e-08
1.63663e-09
3.82395e-08
1.60353e-09
3.81415e-08
1.57223e-09
3.80399e-08
1.54251e-09
3.79349e-08
1.51422e-09
3.78264e-08
1.48721e-09
3.77148e-08
1.46137e-09
3.76e-08
1.4366e-09
3.74822e-08
1.41279e-09
3.73615e-08
1.38988e-09
3.72381e-08
1.3678e-09
3.7112e-08
1.34648e-09
3.69834e-08
1.32586e-09
3.68523e-08
1.30591e-09
3.6719e-08
1.28656e-09
3.65835e-08
1.26779e-09
3.64459e-08
1.24955e-09
3.63063e-08
1.23182e-09
3.61649e-08
1.21455e-09
3.60218e-08
1.19774e-09
3.5877e-08
1.18134e-09
3.57307e-08
1.16534e-09
3.55829e-08
1.14972e-09
3.54338e-08
1.13445e-09
3.52835e-08
1.11953e-09
3.51321e-08
1.10493e-09
3.49795e-08
1.09064e-09
3.4826e-08
1.07665e-09
3.46717e-08
1.06294e-09
3.45165e-08
1.0495e-09
3.43607e-08
1.03632e-09
3.42041e-08
1.0234e-09
3.40471e-08
1.01071e-09
3.38895e-08
9.98254e-10
3.37316e-08
9.86023e-10
3.35733e-08
9.74007e-10
3.34147e-08
9.622e-10
3.32559e-08
9.50593e-10
3.3097e-08
9.39181e-10
3.29379e-08
9.27958e-10
3.27789e-08
9.16917e-10
3.26198e-08
9.06053e-10
3.24608e-08
8.95361e-10
3.2302e-08
8.84835e-10
3.21433e-08
8.74473e-10
3.19848e-08
8.64268e-10
3.18266e-08
8.54218e-10
3.16687e-08
8.44319e-10
3.15112e-08
8.34567e-10
3.1354e-08
8.2496e-10
3.11973e-08
8.15496e-10
3.1041e-08
8.06171e-10
3.08853e-08
7.96986e-10
3.073e-08
7.87938e-10
3.05753e-08
7.79028e-10
3.04212e-08
7.70256e-10
3.02677e-08
7.61622e-10
3.01148e-08
7.53131e-10
2.99626e-08
7.44784e-10
2.98111e-08
7.36588e-10
2.96602e-08
7.2855e-10
2.95101e-08
7.2068e-10
2.93606e-08
7.12994e-10
2.92119e-08
7.05511e-10
2.9064e-08
6.98264e-10
2.89167e-08
6.91305e-10
2.87701e-08
6.84724e-10
2.86242e-08
6.78698e-10
2.8479e-08
6.73598e-10
2.83344e-08
6.70289e-10
2.81909e-08
6.70848e-10
2.80522e-08
6.79482e-10
6.91375e-10
3.85803e-08
2.29652e-09
-3.84769e-08
3.87145e-08
2.54886e-09
3.88629e-08
2.74494e-09
3.90147e-08
2.88466e-09
3.91639e-08
2.97485e-09
3.93058e-08
3.02139e-09
3.94367e-08
3.02907e-09
3.95536e-08
3.00345e-09
3.96549e-08
2.95095e-09
3.97398e-08
2.87818e-09
3.98085e-08
2.79145e-09
3.98618e-08
2.69646e-09
3.9901e-08
2.59809e-09
3.99277e-08
2.50024e-09
3.99436e-08
2.40576e-09
3.99502e-08
2.31657e-09
3.99491e-08
2.23372e-09
3.99414e-08
2.15764e-09
3.99283e-08
2.08827e-09
3.99103e-08
2.02525e-09
3.98882e-08
1.96803e-09
3.98623e-08
1.91601e-09
3.98329e-08
1.86855e-09
3.98003e-08
1.82509e-09
3.97645e-08
1.78508e-09
3.97256e-08
1.74807e-09
3.96836e-08
1.71367e-09
3.96387e-08
1.68154e-09
3.95908e-08
1.65141e-09
3.954e-08
1.62305e-09
3.94863e-08
1.59626e-09
3.94296e-08
1.57086e-09
3.93701e-08
1.54673e-09
3.93077e-08
1.52374e-09
3.92426e-08
1.50178e-09
3.91746e-08
1.48076e-09
3.91039e-08
1.4606e-09
3.90305e-08
1.44122e-09
3.89544e-08
1.42256e-09
3.88757e-08
1.40457e-09
3.87944e-08
1.38718e-09
3.87106e-08
1.37036e-09
3.86243e-08
1.35406e-09
3.85356e-08
1.33824e-09
3.84446e-08
1.32286e-09
3.83512e-08
1.30791e-09
3.82556e-08
1.29334e-09
3.81578e-08
1.27913e-09
3.80579e-08
1.26526e-09
3.79559e-08
1.25171e-09
3.78519e-08
1.23845e-09
3.7746e-08
1.22547e-09
3.76382e-08
1.21275e-09
3.75285e-08
1.20028e-09
3.74171e-08
1.18804e-09
3.7304e-08
1.17603e-09
3.71893e-08
1.16422e-09
3.7073e-08
1.1526e-09
3.69553e-08
1.14118e-09
3.6836e-08
1.12993e-09
3.67154e-08
1.11885e-09
3.65935e-08
1.10794e-09
3.64704e-08
1.09718e-09
3.6346e-08
1.08656e-09
3.62205e-08
1.07609e-09
3.60939e-08
1.06575e-09
3.59663e-08
1.05554e-09
3.58378e-08
1.04546e-09
3.57083e-08
1.0355e-09
3.55781e-08
1.02565e-09
3.5447e-08
1.01592e-09
3.53152e-08
1.00629e-09
3.51827e-08
9.9677e-10
3.50495e-08
9.87351e-10
3.49158e-08
9.78033e-10
3.47816e-08
9.68812e-10
3.46468e-08
9.59687e-10
3.45117e-08
9.50657e-10
3.43761e-08
9.41721e-10
3.42402e-08
9.32879e-10
3.4104e-08
9.2413e-10
3.39676e-08
9.15477e-10
3.38309e-08
9.06921e-10
3.36941e-08
8.98465e-10
3.35571e-08
8.90112e-10
3.342e-08
8.81869e-10
3.32829e-08
8.73742e-10
3.31457e-08
8.65742e-10
3.30085e-08
8.57881e-10
3.28713e-08
8.50177e-10
3.27341e-08
8.42655e-10
3.25971e-08
8.3535e-10
3.246e-08
8.2832e-10
3.23231e-08
8.2166e-10
3.21863e-08
8.15544e-10
3.20495e-08
8.10313e-10
3.19132e-08
8.0667e-10
3.17781e-08
8.05948e-10
3.16481e-08
8.09442e-10
8.05786e-10
3.93441e-08
2.20473e-09
-3.92523e-08
3.94631e-08
2.42984e-09
3.95968e-08
2.61123e-09
3.97358e-08
2.7457e-09
3.9874e-08
2.83661e-09
4.00072e-08
2.88824e-09
4.01317e-08
2.9046e-09
4.02448e-08
2.89034e-09
4.03449e-08
2.85086e-09
4.04312e-08
2.79189e-09
4.05036e-08
2.71895e-09
4.0563e-08
2.63715e-09
4.06102e-08
2.55089e-09
4.06466e-08
2.4638e-09
4.06737e-08
2.37863e-09
4.0693e-08
2.2973e-09
4.07057e-08
2.221e-09
4.0713e-08
2.15033e-09
4.07159e-08
2.08542e-09
4.0715e-08
2.0261e-09
4.0711e-08
1.97202e-09
4.07043e-08
1.92272e-09
4.06952e-08
1.87769e-09
4.06838e-08
1.83644e-09
4.06704e-08
1.79852e-09
4.06549e-08
1.76353e-09
4.06375e-08
1.7311e-09
4.06181e-08
1.70093e-09
4.05967e-08
1.67276e-09
4.05734e-08
1.64635e-09
4.05482e-08
1.62153e-09
4.05209e-08
1.59813e-09
4.04916e-08
1.576e-09
4.04604e-08
1.55502e-09
4.0427e-08
1.5351e-09
4.03917e-08
1.51613e-09
4.03542e-08
1.49802e-09
4.03147e-08
1.48072e-09
4.02732e-08
1.46413e-09
4.02295e-08
1.44822e-09
4.01838e-08
1.43292e-09
4.0136e-08
1.41819e-09
4.0086e-08
1.40397e-09
4.0034e-08
1.39023e-09
3.998e-08
1.37693e-09
3.99239e-08
1.36404e-09
3.98657e-08
1.35152e-09
3.98054e-08
1.33936e-09
3.97432e-08
1.32751e-09
3.96789e-08
1.31597e-09
3.96127e-08
1.3047e-09
3.95445e-08
1.29369e-09
3.94743e-08
1.28292e-09
3.94022e-08
1.27236e-09
3.93282e-08
1.26202e-09
3.92524e-08
1.25187e-09
3.91747e-08
1.2419e-09
3.90952e-08
1.23209e-09
3.9014e-08
1.22244e-09
3.8931e-08
1.21293e-09
3.88463e-08
1.20356e-09
3.87599e-08
1.19432e-09
3.86719e-08
1.18519e-09
3.85823e-08
1.17617e-09
3.84911e-08
1.16726e-09
3.83984e-08
1.15845e-09
3.83042e-08
1.14972e-09
3.82086e-08
1.14108e-09
3.81116e-08
1.13253e-09
3.80132e-08
1.12404e-09
3.79135e-08
1.11563e-09
3.78125e-08
1.10729e-09
3.77102e-08
1.09901e-09
3.76068e-08
1.09079e-09
3.75022e-08
1.08263e-09
3.73965e-08
1.07453e-09
3.72897e-08
1.06648e-09
3.71819e-08
1.05849e-09
3.7073e-08
1.05055e-09
3.69633e-08
1.04266e-09
3.68526e-08
1.03483e-09
3.6741e-08
1.02705e-09
3.66286e-08
1.01933e-09
3.65154e-08
1.01167e-09
3.64014e-08
1.00408e-09
3.62867e-08
9.96567e-10
3.61713e-08
9.89131e-10
3.60553e-08
9.81789e-10
3.59386e-08
9.74554e-10
3.58213e-08
9.67447e-10
3.57035e-08
9.60493e-10
3.55851e-08
9.53733e-10
3.54662e-08
9.47223e-10
3.53468e-08
9.41057e-10
3.5227e-08
9.35393e-10
3.51068e-08
9.30512e-10
3.49865e-08
9.26886e-10
3.48674e-08
9.25066e-10
3.47528e-08
9.24053e-10
9.08998e-10
4.01159e-08
2.12198e-09
-4.00332e-08
4.02224e-08
2.32339e-09
4.03432e-08
2.49041e-09
4.04704e-08
2.61853e-09
4.05982e-08
2.70874e-09
4.07226e-08
2.76386e-09
4.08401e-08
2.7871e-09
4.09482e-08
2.78228e-09
4.10451e-08
2.75393e-09
4.11301e-08
2.70693e-09
4.12029e-08
2.64612e-09
4.1264e-08
2.57602e-09
4.13143e-08
2.50061e-09
4.13549e-08
2.42323e-09
4.1387e-08
2.34651e-09
4.1412e-08
2.27234e-09
4.1431e-08
2.20199e-09
4.14451e-08
2.13619e-09
4.14553e-08
2.07525e-09
4.14622e-08
2.01915e-09
4.14666e-08
1.96771e-09
4.14687e-08
1.92058e-09
4.1469e-08
1.87741e-09
4.14676e-08
1.83777e-09
4.14649e-08
1.80131e-09
4.14607e-08
1.76765e-09
4.14553e-08
1.73649e-09
4.14487e-08
1.70755e-09
4.14409e-08
1.68059e-09
4.14318e-08
1.65539e-09
4.14216e-08
1.63178e-09
4.14101e-08
1.6096e-09
4.13974e-08
1.58872e-09
4.13834e-08
1.569e-09
4.13682e-08
1.55036e-09
4.13516e-08
1.5327e-09
4.13337e-08
1.51593e-09
4.13144e-08
1.49997e-09
4.12938e-08
1.48477e-09
4.12717e-08
1.47027e-09
4.12483e-08
1.4564e-09
4.12233e-08
1.44311e-09
4.11969e-08
1.43037e-09
4.1169e-08
1.41812e-09
4.11396e-08
1.40634e-09
4.11087e-08
1.39498e-09
4.10762e-08
1.38401e-09
4.10422e-08
1.3734e-09
4.10065e-08
1.36314e-09
4.09693e-08
1.35318e-09
4.09305e-08
1.34351e-09
4.08901e-08
1.3341e-09
4.08481e-08
1.32494e-09
4.08044e-08
1.31601e-09
4.07592e-08
1.30729e-09
4.07123e-08
1.29876e-09
4.06638e-08
1.2904e-09
4.06136e-08
1.28222e-09
4.05619e-08
1.27418e-09
4.05085e-08
1.26629e-09
4.04536e-08
1.25853e-09
4.0397e-08
1.25088e-09
4.03389e-08
1.24334e-09
4.02791e-08
1.2359e-09
4.02178e-08
1.22856e-09
4.0155e-08
1.2213e-09
4.00906e-08
1.21411e-09
4.00247e-08
1.20699e-09
3.99573e-08
1.19994e-09
3.98884e-08
1.19295e-09
3.9818e-08
1.186e-09
3.97462e-08
1.17911e-09
3.96729e-08
1.17226e-09
3.95983e-08
1.16545e-09
3.95222e-08
1.15867e-09
3.94448e-08
1.15193e-09
3.93661e-08
1.14522e-09
3.9286e-08
1.13854e-09
3.92047e-08
1.13189e-09
3.91221e-08
1.12526e-09
3.90382e-08
1.11867e-09
3.89532e-08
1.1121e-09
3.88669e-08
1.10557e-09
3.87795e-08
1.09907e-09
3.8691e-08
1.09261e-09
3.86014e-08
1.0862e-09
3.85107e-08
1.07985e-09
3.84189e-08
1.07356e-09
3.83261e-08
1.06736e-09
3.82323e-08
1.06126e-09
3.81375e-08
1.05529e-09
3.80417e-08
1.0495e-09
3.7945e-08
1.04393e-09
3.78474e-08
1.03867e-09
3.77489e-08
1.03385e-09
3.76498e-08
1.02968e-09
3.75503e-08
1.02638e-09
3.74515e-08
1.02382e-09
3.73561e-08
1.01951e-09
9.97818e-10
4.08964e-08
2.0465e-09
-4.08209e-08
4.09924e-08
2.22737e-09
4.1102e-08
2.38082e-09
4.12185e-08
2.50203e-09
4.13367e-08
2.59049e-09
4.14528e-08
2.64781e-09
4.15634e-08
2.67643e-09
4.16663e-08
2.67947e-09
4.17595e-08
2.66065e-09
4.18423e-08
2.62413e-09
4.19144e-08
2.5741e-09
4.19758e-08
2.51453e-09
4.20274e-08
2.44901e-09
4.20701e-08
2.3806e-09
4.21048e-08
2.31175e-09
4.21328e-08
2.24433e-09
4.21552e-08
2.17965e-09
4.21729e-08
2.11852e-09
4.21867e-08
2.06137e-09
4.21975e-08
2.00835e-09
4.22059e-08
1.95938e-09
4.22122e-08
1.91427e-09
4.22168e-08
1.87274e-09
4.22201e-08
1.83449e-09
4.22222e-08
1.7992e-09
4.22233e-08
1.76658e-09
4.22234e-08
1.73635e-09
4.22227e-08
1.70826e-09
4.22212e-08
1.6821e-09
4.22189e-08
1.65768e-09
4.22159e-08
1.63483e-09
4.22121e-08
1.6134e-09
4.22075e-08
1.59326e-09
4.22022e-08
1.57431e-09
4.21962e-08
1.55643e-09
4.21893e-08
1.53954e-09
4.21817e-08
1.52357e-09
4.21732e-08
1.50843e-09
4.2164e-08
1.49406e-09
4.21538e-08
1.48041e-09
4.21428e-08
1.46741e-09
4.21309e-08
1.45503e-09
4.2118e-08
1.44321e-09
4.21043e-08
1.43191e-09
4.20895e-08
1.42109e-09
4.20737e-08
1.41073e-09
4.2057e-08
1.40078e-09
4.20392e-08
1.39122e-09
4.20203e-08
1.38202e-09
4.20003e-08
1.37315e-09
4.19792e-08
1.36459e-09
4.1957e-08
1.35631e-09
4.19337e-08
1.3483e-09
4.19091e-08
1.34054e-09
4.18834e-08
1.333e-09
4.18565e-08
1.32568e-09
4.18283e-08
1.31855e-09
4.17989e-08
1.3116e-09
4.17683e-08
1.30482e-09
4.17364e-08
1.29819e-09
4.17032e-08
1.2917e-09
4.16688e-08
1.28535e-09
4.1633e-08
1.27911e-09
4.15959e-08
1.27297e-09
4.15575e-08
1.26694e-09
4.15178e-08
1.261e-09
4.14768e-08
1.25514e-09
4.14345e-08
1.24935e-09
4.13908e-08
1.24363e-09
4.13458e-08
1.23796e-09
4.12994e-08
1.23235e-09
4.12517e-08
1.22679e-09
4.12027e-08
1.22127e-09
4.11524e-08
1.21579e-09
4.11007e-08
1.21034e-09
4.10477e-08
1.20492e-09
4.09934e-08
1.19952e-09
4.09378e-08
1.19415e-09
4.08809e-08
1.18879e-09
4.08227e-08
1.18346e-09
4.07632e-08
1.17815e-09
4.07025e-08
1.17286e-09
4.06405e-08
1.16759e-09
4.05772e-08
1.16234e-09
4.05127e-08
1.15713e-09
4.04469e-08
1.15195e-09
4.038e-08
1.14682e-09
4.03118e-08
1.14174e-09
4.02424e-08
1.13673e-09
4.01719e-08
1.13182e-09
4.01001e-08
1.12703e-09
4.00272e-08
1.12239e-09
3.99532e-08
1.11796e-09
3.9878e-08
1.11382e-09
3.98018e-08
1.11005e-09
3.97247e-08
1.10678e-09
3.96471e-08
1.10402e-09
3.95698e-08
1.10114e-09
3.94944e-08
1.09492e-09
1.07098e-09
4.1686e-08
1.977e-09
-4.16165e-08
4.17733e-08
2.14008e-09
4.18731e-08
2.28099e-09
4.19801e-08
2.39511e-09
4.20895e-08
2.48106e-09
4.21978e-08
2.53954e-09
4.23019e-08
2.57231e-09
4.23995e-08
2.58182e-09
4.2489e-08
2.57115e-09
4.25694e-08
2.54379e-09
4.26401e-08
2.50334e-09
4.27014e-08
2.45328e-09
4.27536e-08
2.39681e-09
4.27975e-08
2.33671e-09
4.28339e-08
2.27528e-09
4.2864e-08
2.2143e-09
4.28885e-08
2.15509e-09
4.29085e-08
2.09854e-09
4.29247e-08
2.04516e-09
4.29379e-08
1.99521e-09
4.29485e-08
1.94873e-09
4.29571e-08
1.90564e-09
4.29641e-08
1.86576e-09
4.29698e-08
1.82885e-09
4.29743e-08
1.79469e-09
4.29779e-08
1.76301e-09
4.29806e-08
1.73359e-09
4.29826e-08
1.70623e-09
4.2984e-08
1.68071e-09
4.29848e-08
1.65688e-09
4.29851e-08
1.63458e-09
4.29848e-08
1.61367e-09
4.2984e-08
1.59404e-09
4.29828e-08
1.57557e-09
4.2981e-08
1.55817e-09
4.29788e-08
1.54177e-09
4.29761e-08
1.52627e-09
4.29729e-08
1.51162e-09
4.29692e-08
1.49774e-09
4.2965e-08
1.48459e-09
4.29603e-08
1.47211e-09
4.29551e-08
1.46025e-09
4.29493e-08
1.44897e-09
4.2943e-08
1.43823e-09
4.29361e-08
1.428e-09
4.29286e-08
1.41823e-09
4.29205e-08
1.40889e-09
4.29118e-08
1.39996e-09
4.29024e-08
1.39141e-09
4.28923e-08
1.38322e-09
4.28815e-08
1.37535e-09
4.28701e-08
1.36779e-09
4.28578e-08
1.36052e-09
4.28449e-08
1.35351e-09
4.28311e-08
1.34675e-09
4.28166e-08
1.34023e-09
4.28012e-08
1.33392e-09
4.2785e-08
1.32781e-09
4.27679e-08
1.32188e-09
4.275e-08
1.31613e-09
4.27312e-08
1.31054e-09
4.27114e-08
1.3051e-09
4.26907e-08
1.29979e-09
4.26691e-08
1.29461e-09
4.26465e-08
1.28954e-09
4.26229e-08
1.28458e-09
4.25983e-08
1.27972e-09
4.25727e-08
1.27494e-09
4.25461e-08
1.27025e-09
4.25185e-08
1.26563e-09
4.24897e-08
1.26107e-09
4.246e-08
1.25657e-09
4.24291e-08
1.25213e-09
4.23972e-08
1.24773e-09
4.23641e-08
1.24337e-09
4.233e-08
1.23906e-09
4.22947e-08
1.23477e-09
4.22584e-08
1.23052e-09
4.22209e-08
1.22629e-09
4.21822e-08
1.22209e-09
4.21425e-08
1.21792e-09
4.21016e-08
1.21377e-09
4.20595e-08
1.20964e-09
4.20163e-08
1.20555e-09
4.19719e-08
1.20149e-09
4.19264e-08
1.19746e-09
4.18798e-08
1.19349e-09
4.18319e-08
1.18957e-09
4.17829e-08
1.18573e-09
4.17328e-08
1.18198e-09
4.16815e-08
1.17835e-09
4.1629e-08
1.17487e-09
4.15753e-08
1.17159e-09
4.15206e-08
1.16857e-09
4.14648e-08
1.16588e-09
4.1408e-08
1.16355e-09
4.13506e-08
1.16141e-09
4.12932e-08
1.15858e-09
4.12364e-08
1.15172e-09
1.12895e-09
4.24855e-08
1.91253e-09
-4.24211e-08
4.25654e-08
2.06016e-09
4.26568e-08
2.18964e-09
4.27552e-08
2.29675e-09
4.28565e-08
2.37969e-09
4.29575e-08
2.43851e-09
4.30555e-08
2.47437e-09
4.31481e-08
2.48918e-09
4.32338e-08
2.48544e-09
4.33116e-08
2.46605e-09
4.33808e-08
2.43409e-09
4.34415e-08
2.39259e-09
4.34939e-08
2.34439e-09
4.35387e-08
2.292e-09
4.35764e-08
2.23753e-09
4.3608e-08
2.18271e-09
4.36343e-08
2.12881e-09
4.36561e-08
2.07675e-09
4.36741e-08
2.02713e-09
4.3689e-08
1.98029e-09
4.37014e-08
1.93637e-09
4.37116e-08
1.89537e-09
4.37202e-08
1.8572e-09
4.37273e-08
1.82171e-09
4.37333e-08