/*--------------------------------*- C++ -*----------------------------------*\
| =========                 |                                                 |
| \\      /  F ield         | OpenFOAM: The Open Source CFD Toolbox           |
|  \\    /   O peration     | Version:  2.3.0                                 |
|   \\  /    A nd           | Web:      www.OpenFOAM.org                      |
|    \\/     M anipulation  |                                                 |
\*---------------------------------------------------------------------------*/
FoamFile
{
    version     2.0;
    format      ascii;
    class       volVectorField;
    location    "0.4";
    object      U_0;
}
// * * * * * * * * * * * * * * * * * * * * * * * * * * * * * * * * * * * * * //

dimensions      [0 1 -1 0 0 0 0];

internalField   nonuniform List<vector> 
6875
(
(0.17118 0.00596084 0)
(0.154726 0.00603186 0)
(0.138907 0.00561377 0)
(0.123912 0.00501559 0)
(0.110151 0.0043547 0)
(0.0977936 0.00368446 0)
(0.0868521 0.00304159 0)
(0.0772921 0.00245151 0)
(0.0690577 0.00192967 0)
(0.0620641 0.00148389 0)
(0.0561976 0.00111585 0)
(0.0513251 0.000822034 0)
(0.0473058 0.00059505 0)
(0.0440006 0.000425159 0)
(0.0412796 0.000301828 0)
(0.0390268 0.000214921 0)
(0.0371435 0.00015545 0)
(0.0355482 0.000115914 0)
(0.0341761 9.035e-05 0)
(0.0329769 7.42171e-05 0)
(0.0319126 6.41936e-05 0)
(0.030955 5.79489e-05 0)
(0.0300831 5.39191e-05 0)
(0.0292818 5.11048e-05 0)
(0.0285398 4.89026e-05 0)
(0.0278488 4.69735e-05 0)
(0.0272025 4.51447e-05 0)
(0.0265958 4.33422e-05 0)
(0.0260247 4.15458e-05 0)
(0.0254858 3.97612e-05 0)
(0.0249763 3.80039e-05 0)
(0.0244937 3.62906e-05 0)
(0.0240359 3.4635e-05 0)
(0.0236008 3.30471e-05 0)
(0.0231867 3.15324e-05 0)
(0.0227921 3.00933e-05 0)
(0.0224156 2.87298e-05 0)
(0.0220559 2.74397e-05 0)
(0.0217118 2.62199e-05 0)
(0.0213824 2.50666e-05 0)
(0.0210666 2.39758e-05 0)
(0.0207638 2.29432e-05 0)
(0.020473 2.19647e-05 0)
(0.0201937 2.10365e-05 0)
(0.0199252 2.01548e-05 0)
(0.019667 1.93163e-05 0)
(0.0194185 1.85178e-05 0)
(0.0191792 1.77563e-05 0)
(0.0189488 1.70292e-05 0)
(0.0187268 1.6334e-05 0)
(0.018513 1.56684e-05 0)
(0.018307 1.50304e-05 0)
(0.0181084 1.44179e-05 0)
(0.0179171 1.38293e-05 0)
(0.0177327 1.32628e-05 0)
(0.0175552 1.27171e-05 0)
(0.0173842 1.21907e-05 0)
(0.0172196 1.16823e-05 0)
(0.0170613 1.11907e-05 0)
(0.0169091 1.07148e-05 0)
(0.0167628 1.02536e-05 0)
(0.0166224 9.80611e-06 0)
(0.0164877 9.37136e-06 0)
(0.0163587 8.94848e-06 0)
(0.0162354 8.53666e-06 0)
(0.0161175 8.1352e-06 0)
(0.0160052 7.74355e-06 0)
(0.0158983 7.36138e-06 0)
(0.0157968 6.98861e-06 0)
(0.0157008 6.62538e-06 0)
(0.0156101 6.27188e-06 0)
(0.0155248 5.92798e-06 0)
(0.0154448 5.59275e-06 0)
(0.0153702 5.26356e-06 0)
(0.0153011 4.93521e-06 0)
(0.0152375 4.59893e-06 0)
(0.0151796 4.24168e-06 0)
(0.0151277 3.84582e-06 0)
(0.0150822 3.38976e-06 0)
(0.0150435 2.85035e-06 0)
(0.0150122 2.21283e-06 0)
(0.0149889 1.50217e-06 0)
(0.0149741 8.10108e-07 0)
(0.0149682 2.90039e-07 0)
(0.0149704 -3.30363e-07 0)
(0.014978 -7.95692e-07 0)
(0.0149898 -1.15943e-06 0)
(0.0150046 -1.41033e-06 0)
(0.0150214 -1.5508e-06 0)
(0.0150393 -1.60085e-06 0)
(0.0150574 -1.58781e-06 0)
(0.0150752 -1.51938e-06 0)
(0.0150922 -1.41162e-06 0)
(0.015108 -1.2804e-06 0)
(0.0151224 -1.13e-06 0)
(0.0151351 -9.60065e-07 0)
(0.015146 -7.67698e-07 0)
(0.0151547 -5.39361e-07 0)
(0.015161 -2.48348e-07 0)
(0.0151626 2.18169e-07 0)
(0.190017 0.00940522 0)
(0.187677 0.00991088 0)
(0.183725 0.00968538 0)
(0.178522 0.00918726 0)
(0.172572 0.00855449 0)
(0.166224 0.00783327 0)
(0.159704 0.00706153 0)
(0.153179 0.00627414 0)
(0.146784 0.00550036 0)
(0.140619 0.00476414 0)
(0.134754 0.00408422 0)
(0.129227 0.00347352 0)
(0.124057 0.00293884 0)
(0.119248 0.00248137 0)
(0.114791 0.00209769 0)
(0.11067 0.00178113 0)
(0.106864 0.00152315 0)
(0.103349 0.00131455 0)
(0.100101 0.00114637 0)
(0.0970965 0.00101052 0)
(0.0943114 0.000900074 0)
(0.0917245 0.000809373 0)
(0.0893164 0.000733927 0)
(0.0870691 0.000670281 0)
(0.0849669 0.000615827 0)
(0.0829957 0.000568619 0)
(0.081143 0.000527212 0)
(0.0793978 0.000490534 0)
(0.0777503 0.000457779 0)
(0.0761921 0.000428332 0)
(0.0747155 0.000401713 0)
(0.0733138 0.000377542 0)
(0.071981 0.000355507 0)
(0.0707117 0.000335348 0)
(0.0695014 0.000316848 0)
(0.0683456 0.000299818 0)
(0.0672406 0.000284097 0)
(0.066183 0.000269543 0)
(0.0651696 0.000256034 0)
(0.0641977 0.000243462 0)
(0.0632648 0.000231732 0)
(0.0623686 0.000220761 0)
(0.061507 0.000210474 0)
(0.0606782 0.000200809 0)
(0.0598803 0.000191705 0)
(0.059112 0.000183113 0)
(0.0583717 0.000174986 0)
(0.0576583 0.000167283 0)
(0.0569704 0.000159968 0)
(0.0563071 0.000153007 0)
(0.0556674 0.000146371 0)
(0.0550504 0.000140032 0)
(0.0544553 0.000133965 0)
(0.0538813 0.000128148 0)
(0.0533279 0.000122561 0)
(0.0527944 0.000117185 0)
(0.0522803 0.000112001 0)
(0.0517851 0.000106995 0)
(0.0513084 0.000102151 0)
(0.0508499 9.7456e-05 0)
(0.0504092 9.28971e-05 0)
(0.0499861 8.84626e-05 0)
(0.0495803 8.41414e-05 0)
(0.0491916 7.99233e-05 0)
(0.0488199 7.5799e-05 0)
(0.0484651 7.17599e-05 0)
(0.0481271 6.77982e-05 0)
(0.0478058 6.39072e-05 0)
(0.0475013 6.00811e-05 0)
(0.0472135 5.63143e-05 0)
(0.0469425 5.26011e-05 0)
(0.0466885 4.8934e-05 0)
(0.0464514 4.53023e-05 0)
(0.0462315 4.16898e-05 0)
(0.046029 3.80729e-05 0)
(0.0458443 3.44199e-05 0)
(0.0456778 3.06909e-05 0)
(0.0455301 2.6841e-05 0)
(0.0454018 2.28257e-05 0)
(0.0452936 1.86092e-05 0)
(0.0452059 1.41778e-05 0)
(0.0451391 9.57321e-06 0)
(0.0450931 4.93433e-06 0)
(0.0450673 5.84783e-07 0)
(0.0450619 -3.12133e-06 0)
(0.0450721 -5.61107e-06 0)
(0.0450932 -7.23216e-06 0)
(0.0451219 -8.28992e-06 0)
(0.0451557 -8.88356e-06 0)
(0.0451923 -9.07822e-06 0)
(0.0452301 -8.96256e-06 0)
(0.0452677 -8.57935e-06 0)
(0.045304 -8.0011e-06 0)
(0.0453382 -7.29819e-06 0)
(0.0453698 -6.49846e-06 0)
(0.0453981 -5.60483e-06 0)
(0.0454228 -4.60244e-06 0)
(0.0454431 -3.43399e-06 0)
(0.0454581 -1.97432e-06 0)
(0.0454642 2.33027e-07 0)
(0.193003 0.00904446 0)
(0.193777 0.0099976 0)
(0.193887 0.0103268 0)
(0.193184 0.010328 0)
(0.191788 0.0101011 0)
(0.189822 0.0096846 0)
(0.187379 0.00912345 0)
(0.184551 0.00846735 0)
(0.181431 0.00776158 0)
(0.178111 0.00704445 0)
(0.174667 0.00634674 0)
(0.171164 0.00569109 0)
(0.167655 0.00509193 0)
(0.164178 0.00455626 0)
(0.160762 0.00408513 0)
(0.157428 0.00367532 0)
(0.154188 0.00332103 0)
(0.151049 0.00301527 0)
(0.148015 0.00275092 0)
(0.145087 0.00252135 0)
(0.142264 0.00232074 0)
(0.139544 0.00214421 0)
(0.136923 0.00198776 0)
(0.134399 0.00184818 0)
(0.131969 0.0017229 0)
(0.129628 0.00160987 0)
(0.127373 0.00150743 0)
(0.125201 0.00141425 0)
(0.123109 0.0013292 0)
(0.121092 0.00125135 0)
(0.119149 0.00117992 0)
(0.117275 0.00111421 0)
(0.115468 0.00105364 0)
(0.113724 0.00099767 0)
(0.112042 0.000945854 0)
(0.110417 0.000897778 0)
(0.108849 0.00085308 0)
(0.107333 0.000811437 0)
(0.105869 0.000772559 0)
(0.104453 0.00073619 0)
(0.103084 0.000702098 0)
(0.10176 0.000670079 0)
(0.100479 0.000639945 0)
(0.0992393 0.000611532 0)
(0.0980392 0.000584689 0)
(0.0968773 0.000559281 0)
(0.0957522 0.000535186 0)
(0.0946627 0.000512293 0)
(0.0936077 0.000490502 0)
(0.0925859 0.000469721 0)
(0.0915964 0.000449867 0)
(0.0906383 0.000430863 0)
(0.0897107 0.00041264 0)
(0.088813 0.000395134 0)
(0.0879443 0.000378284 0)
(0.087104 0.000362037 0)
(0.0862917 0.000346341 0)
(0.0855069 0.00033115 0)
(0.084749 0.00031642 0)
(0.0840178 0.000302111 0)
(0.083313 0.000288184 0)
(0.0826342 0.000274604 0)
(0.0819814 0.000261339 0)
(0.0813544 0.000248357 0)
(0.0807532 0.00023563 0)
(0.0801776 0.000223132 0)
(0.0796278 0.000210838 0)
(0.0791038 0.000198726 0)
(0.0786057 0.000186775 0)
(0.0781337 0.000174967 0)
(0.077688 0.000163279 0)
(0.0772689 0.000151689 0)
(0.0768766 0.000140166 0)
(0.0765116 0.000128673 0)
(0.0761744 0.000117163 0)
(0.0758653 0.000105578 0)
(0.0755851 9.38602e-05 0)
(0.0753343 8.1957e-05 0)
(0.0751133 6.98409e-05 0)
(0.0749227 5.75301e-05 0)
(0.0747624 4.51119e-05 0)
(0.0746319 3.27571e-05 0)
(0.0745299 2.07058e-05 0)
(0.074454 9.23705e-06 0)
(0.074401 -1.02868e-06 0)
(0.0743745 -9.16949e-06 0)
(0.07437 -1.47071e-05 0)
(0.0743811 -1.81177e-05 0)
(0.0744033 -2.00423e-05 0)
(0.074433 -2.09001e-05 0)
(0.0744676 -2.09732e-05 0)
(0.0745046 -2.03838e-05 0)
(0.0745424 -1.92865e-05 0)
(0.0745796 -1.78343e-05 0)
(0.074615 -1.61027e-05 0)
(0.0746479 -1.41137e-05 0)
(0.0746773 -1.18422e-05 0)
(0.0747022 -9.15747e-06 0)
(0.0747214 -5.70278e-06 0)
(0.0747295 -3.47159e-07 0)
(0.194027 0.00841042 0)
(0.195188 0.0094632 0)
(0.196232 0.0100167 0)
(0.196942 0.0102554 0)
(0.197298 0.0102619 0)
(0.197308 0.0100686 0)
(0.196969 0.00971135 0)
(0.196291 0.00923314 0)
(0.195301 0.00867592 0)
(0.194036 0.00807707 0)
(0.192542 0.00746836 0)
(0.190862 0.00687497 0)
(0.189039 0.00631489 0)
(0.18711 0.00579917 0)
(0.185107 0.00533289 0)
(0.183055 0.00491659 0)
(0.180975 0.00454764 0)
(0.178882 0.00422162 0)
(0.176787 0.00393333 0)
(0.174699 0.00367746 0)
(0.172624 0.0034491 0)
(0.170566 0.00324395 0)
(0.168528 0.00305835 0)
(0.166514 0.00288932 0)
(0.164525 0.00273444 0)
(0.162564 0.00259177 0)
(0.16063 0.00245977 0)
(0.158727 0.00233719 0)
(0.156854 0.00222302 0)
(0.155012 0.00211642 0)
(0.153203 0.00201668 0)
(0.151427 0.00192319 0)
(0.149683 0.00183543 0)
(0.147973 0.00175293 0)
(0.146297 0.00167526 0)
(0.144654 0.00160206 0)
(0.143045 0.00153298 0)
(0.141469 0.0014677 0)
(0.139926 0.00140594 0)
(0.138417 0.00134743 0)
(0.13694 0.00129194 0)
(0.135496 0.00123923 0)
(0.134084 0.00118911 0)
(0.132704 0.00114139 0)
(0.131356 0.00109589 0)
(0.130038 0.00105244 0)
(0.128752 0.00101091 0)
(0.127496 0.00097114 0)
(0.12627 0.00093301 0)
(0.125073 0.000896399 0)
(0.123907 0.000861194 0)
(0.122769 0.000827288 0)
(0.121661 0.000794585 0)
(0.120581 0.000762991 0)
(0.11953 0.000732421 0)
(0.118507 0.000702793 0)
(0.117513 0.00067403 0)
(0.116547 0.00064606 0)
(0.115609 0.000618815 0)
(0.114699 0.000592231 0)
(0.113818 0.000566247 0)
(0.112965 0.000540806 0)
(0.11214 0.000515852 0)
(0.111344 0.000491335 0)
(0.110577 0.000467207 0)
(0.109839 0.000443421 0)
(0.10913 0.000419937 0)
(0.108451 0.000396715 0)
(0.107803 0.000373717 0)
(0.107185 0.000350908 0)
(0.106598 0.000328251 0)
(0.106043 0.000305706 0)
(0.10552 0.000283225 0)
(0.105031 0.000260757 0)
(0.104575 0.000238239 0)
(0.104153 0.00021561 0)
(0.103766 0.000192817 0)
(0.103415 0.000169834 0)
(0.103099 0.000146689 0)
(0.10282 0.000123495 0)
(0.102577 0.000100488 0)
(0.102368 7.80553e-05 0)
(0.102193 5.67341e-05 0)
(0.102048 3.70793e-05 0)
(0.101931 1.9409e-05 0)
(0.101835 4.04914e-06 0)
(0.101762 -8.55111e-06 0)
(0.101716 -1.79422e-05 0)
(0.101691 -2.40615e-05 0)
(0.101682 -2.75928e-05 0)
(0.101683 -2.92592e-05 0)
(0.101693 -2.95192e-05 0)
(0.101709 -2.87399e-05 0)
(0.101728 -2.72156e-05 0)
(0.101749 -2.50957e-05 0)
(0.10177 -2.24334e-05 0)
(0.10179 -1.92057e-05 0)
(0.101808 -1.52077e-05 0)
(0.101822 -9.7655e-06 0)
(0.101824 -6.84455e-07 0)
(0.194737 0.00791102 0)
(0.195774 0.00890599 0)
(0.196875 0.00950055 0)
(0.197869 0.00981445 0)
(0.198711 0.00992097 0)
(0.199386 0.00984989 0)
(0.199867 0.00962756 0)
(0.200133 0.00928652 0)
(0.200175 0.00886063 0)
(0.2 0.00838157 0)
(0.199623 0.00787755 0)
(0.199067 0.00737217 0)
(0.198355 0.00688352 0)
(0.197512 0.00642392 0)
(0.196561 0.00600045 0)
(0.195524 0.00561583 0)
(0.194418 0.00526962 0)
(0.193257 0.00495931 0)
(0.192052 0.00468127 0)
(0.190812 0.00443146 0)
(0.189544 0.00420592 0)
(0.188252 0.00400102 0)
(0.186941 0.00381365 0)
(0.185614 0.00364116 0)
(0.184274 0.00348143 0)
(0.182924 0.0033327 0)
(0.181565 0.0031936 0)
(0.180201 0.00306301 0)
(0.178833 0.00294001 0)
(0.177463 0.00282387 0)
(0.176092 0.00271395 0)
(0.174723 0.00260974 0)
(0.173356 0.00251077 0)
(0.171994 0.00241664 0)
(0.170638 0.002327 0)
(0.169288 0.00224153 0)
(0.167947 0.00215992 0)
(0.166615 0.00208193 0)
(0.165293 0.0020073 0)
(0.163982 0.00193582 0)
(0.162684 0.00186727 0)
(0.161398 0.00180147 0)
(0.160126 0.00173824 0)
(0.158869 0.00167741 0)
(0.157626 0.00161883 0)
(0.156399 0.00156235 0)
(0.155189 0.00150784 0)
(0.153995 0.00145517 0)
(0.152819 0.00140422 0)
(0.15166 0.00135487 0)
(0.15052 0.00130702 0)
(0.149399 0.00126056 0)
(0.148297 0.00121539 0)
(0.147215 0.00117143 0)
(0.146154 0.00112857 0)
(0.145113 0.00108674 0)
(0.144093 0.00104585 0)
(0.143095 0.00100582 0)
(0.142119 0.000966574 0)
(0.141167 0.000928042 0)
(0.140237 0.000890152 0)
(0.139331 0.000852836 0)
(0.13845 0.000816029 0)
(0.137593 0.000779668 0)
(0.136763 0.000743694 0)
(0.135959 0.000708051 0)
(0.135182 0.000672686 0)
(0.134432 0.000637548 0)
(0.133712 0.000602588 0)
(0.13302 0.000567761 0)
(0.132359 0.000533017 0)
(0.131729 0.000498307 0)
(0.131131 0.000463576 0)
(0.130566 0.000428766 0)
(0.130035 0.00039382 0)
(0.129539 0.00035869 0)
(0.129078 0.000323354 0)
(0.128653 0.000287841 0)
(0.128265 0.000252264 0)
(0.127913 0.000216855 0)
(0.127598 0.000182005 0)
(0.127318 0.000148278 0)
(0.127072 0.000116402 0)
(0.126858 8.71652e-05 0)
(0.126674 6.12356e-05 0)
(0.126516 3.87424e-05 0)
(0.12638 1.94388e-05 0)
(0.126261 3.5159e-06 0)
(0.126162 -8.95941e-06 0)
(0.126086 -1.82098e-05 0)
(0.126029 -2.4331e-05 0)
(0.125987 -2.77777e-05 0)
(0.125956 -2.91824e-05 0)
(0.125935 -2.90753e-05 0)
(0.125921 -2.77995e-05 0)
(0.125911 -2.55259e-05 0)
(0.125905 -2.22787e-05 0)
(0.1259 -1.78164e-05 0)
(0.125895 -1.12519e-05 0)
(0.125881 8.67627e-07 0)
(0.195337 0.00748248 0)
(0.196206 0.00838099 0)
(0.197189 0.00896574 0)
(0.198155 0.00930637 0)
(0.199056 0.00946087 0)
(0.199875 0.00945683 0)
(0.200587 0.00931587 0)
(0.201168 0.0090642 0)
(0.201604 0.0087301 0)
(0.20189 0.00834067 0)
(0.202027 0.00792049 0)
(0.202026 0.00749061 0)
(0.201899 0.0070678 0)
(0.201661 0.00666412 0)
(0.201328 0.00628715 0)
(0.200913 0.00594065 0)
(0.20043 0.00562546 0)
(0.19989 0.00534034 0)
(0.199301 0.00508285 0)
(0.19867 0.00484995 0)
(0.198002 0.00463848 0)
(0.197302 0.00444542 0)
(0.196573 0.00426807 0)
(0.195816 0.00410413 0)
(0.195035 0.00395166 0)
(0.19423 0.00380907 0)
(0.193404 0.00367508 0)
(0.192559 0.00354862 0)
(0.191694 0.00342886 0)
(0.190813 0.00331509 0)
(0.189916 0.00320674 0)
(0.189005 0.00310332 0)
(0.188081 0.0030044 0)
(0.187145 0.00290964 0)
(0.186199 0.00281871 0)
(0.185244 0.00273133 0)
(0.18428 0.00264724 0)
(0.18331 0.00256623 0)
(0.182335 0.00248807 0)
(0.181355 0.00241259 0)
(0.180371 0.0023396 0)
(0.179385 0.00226895 0)
(0.178398 0.00220048 0)
(0.177411 0.00213406 0)
(0.176424 0.00206956 0)
(0.175438 0.00200685 0)
(0.174456 0.00194581 0)
(0.173477 0.00188635 0)
(0.172502 0.00182834 0)
(0.171532 0.0017717 0)
(0.170569 0.00171633 0)
(0.169612 0.00166214 0)
(0.168664 0.00160904 0)
(0.167724 0.00155695 0)
(0.166793 0.00150578 0)
(0.165873 0.00145545 0)
(0.164965 0.00140588 0)
(0.164068 0.00135701 0)
(0.163185 0.00130875 0)
(0.162315 0.00126103 0)
(0.16146 0.00121379 0)
(0.160621 0.00116695 0)
(0.159798 0.00112045 0)
(0.158993 0.00107422 0)
(0.158206 0.0010282 0)
(0.157438 0.000982338 0)
(0.156692 0.000936567 0)
(0.155966 0.000890837 0)
(0.155263 0.000845096 0)
(0.154584 0.000799293 0)
(0.15393 0.000753377 0)
(0.153301 0.000707296 0)
(0.152699 0.000660999 0)
(0.152125 0.000614435 0)
(0.151581 0.000567563 0)
(0.151067 0.000520367 0)
(0.150583 0.000472872 0)
(0.150132 0.000425177 0)
(0.149713 0.000377491 0)
(0.149327 0.000330167 0)
(0.148972 0.000283734 0)
(0.14865 0.000238899 0)
(0.148357 0.000196511 0)
(0.148094 0.000157453 0)
(0.147859 0.000122466 0)
(0.147649 9.19121e-05 0)
(0.147463 6.58962e-05 0)
(0.147298 4.41558e-05 0)
(0.147151 2.60799e-05 0)
(0.147019 1.14516e-05 0)
(0.1469 2.81785e-07 0)
(0.146797 -7.86862e-06 0)
(0.146709 -1.35346e-05 0)
(0.146635 -1.6968e-05 0)
(0.146573 -1.83922e-05 0)
(0.14652 -1.81031e-05 0)
(0.146474 -1.62479e-05 0)
(0.146434 -1.26421e-05 0)
(0.146398 -6.42252e-06 0)
(0.146357 6.60188e-06 0)
(0.19586 0.00711593 0)
(0.196593 0.00791791 0)
(0.197446 0.00847632 0)
(0.198319 0.00882442 0)
(0.199166 0.00900366 0)
(0.199966 0.00903878 0)
(0.200699 0.00894907 0)
(0.201346 0.00875683 0)
(0.201891 0.00848644 0)
(0.20233 0.00816158 0)
(0.20266 0.00780386 0)
(0.202887 0.00743204 0)
(0.203019 0.00706137 0)
(0.203064 0.00670322 0)
(0.203034 0.00636518 0)
(0.202939 0.00605153 0)
(0.20279 0.00576387 0)
(0.202594 0.0055019 0)
(0.202359 0.00526403 0)
(0.202089 0.00504802 0)
(0.201788 0.00485132 0)
(0.201459 0.00467141 0)
(0.201106 0.00450597 0)
(0.200728 0.00435292 0)
(0.200328 0.00421051 0)
(0.199906 0.00407724 0)
(0.199463 0.00395191 0)
(0.199 0.0038335 0)
(0.198517 0.00372119 0)
(0.198016 0.00361429 0)
(0.197497 0.00351224 0)
(0.19696 0.00341456 0)
(0.196407 0.00332085 0)
(0.195837 0.00323074 0)
(0.195252 0.00314393 0)
(0.194653 0.00306016 0)
(0.19404 0.00297919 0)
(0.193414 0.00290079 0)
(0.192776 0.00282477 0)
(0.192126 0.00275095 0)
(0.191465 0.00267917 0)
(0.190795 0.00260929 0)
(0.190115 0.00254116 0)
(0.189428 0.00247466 0)
(0.188732 0.00240967 0)
(0.18803 0.00234608 0)
(0.187322 0.00228378 0)
(0.186609 0.00222267 0)
(0.185892 0.00216267 0)
(0.185171 0.00210367 0)
(0.184448 0.00204559 0)
(0.183723 0.00198836 0)
(0.182997 0.00193188 0)
(0.182271 0.00187608 0)
(0.181546 0.00182089 0)
(0.180823 0.00176622 0)
(0.180102 0.00171201 0)
(0.179385 0.00165818 0)
(0.178672 0.00160467 0)
(0.177965 0.00155139 0)
(0.177264 0.00149829 0)
(0.17657 0.00144529 0)
(0.175885 0.00139233 0)
(0.175209 0.00133935 0)
(0.174544 0.00128628 0)
(0.17389 0.00123307 0)
(0.173248 0.00117965 0)
(0.17262 0.00112598 0)
(0.172008 0.00107199 0)
(0.171411 0.00101765 0)
(0.170831 0.0009629 0)
(0.170269 0.000907694 0)
(0.169728 0.00085199 0)
(0.169206 0.000795755 0)
(0.168707 0.000738972 0)
(0.16823 0.000681663 0)
(0.167777 0.000623907 0)
(0.167349 0.000565877 0)
(0.166946 0.000507872 0)
(0.166568 0.000450349 0)
(0.166215 0.000393949 0)
(0.165887 0.000339482 0)
(0.165584 0.000287875 0)
(0.165304 0.000240058 0)
(0.165046 0.000196797 0)
(0.164811 0.000158542 0)
(0.164596 0.000125431 0)
(0.1644 9.72781e-05 0)
(0.164222 7.37915e-05 0)
(0.16406 5.46177e-05 0)
(0.163912 3.91828e-05 0)
(0.163777 2.68673e-05 0)
(0.163653 1.72488e-05 0)
(0.163539 1.0164e-05 0)
(0.163435 5.43125e-06 0)
(0.16334 2.76868e-06 0)
(0.163255 2.02874e-06 0)
(0.163178 3.37393e-06 0)
(0.16311 7.64648e-06 0)
(0.163033 1.8828e-05 0)
(0.196321 0.00680008 0)
(0.196948 0.00751296 0)
(0.197687 0.00803634 0)
(0.198464 0.00838071 0)
(0.199237 0.00857322 0)
(0.199979 0.00863464 0)
(0.200674 0.00858209 0)
(0.201304 0.00843462 0)
(0.201858 0.0082132 0)
(0.202328 0.0079386 0)
(0.202714 0.00762997 0)
(0.203019 0.00730412 0)
(0.203248 0.00697499 0)
(0.203408 0.00665327 0)
(0.203509 0.00634646 0)
(0.203558 0.00605913 0)
(0.203565 0.00579349 0)
(0.203535 0.00554991 0)
(0.203475 0.00532755 0)
(0.20339 0.00512481 0)
(0.203282 0.0049397 0)
(0.203154 0.00477015 0)
(0.203008 0.00461416 0)
(0.202845 0.00446992 0)
(0.202666 0.00433581 0)
(0.202471 0.00421047 0)
(0.202261 0.00409274 0)
(0.202036 0.00398165 0)
(0.201797 0.0038764 0)
(0.201543 0.0037763 0)
(0.201274 0.00368078 0)
(0.200992 0.00358937 0)
(0.200695 0.00350165 0)
(0.200384 0.00341726 0)
(0.20006 0.00333589 0)
(0.199723 0.00325727 0)
(0.199373 0.00318114 0)
(0.19901 0.00310728 0)
(0.198634 0.0030355 0)
(0.198247 0.00296562 0)
(0.197848 0.00289748 0)
(0.197438 0.00283091 0)
(0.197017 0.00276578 0)
(0.196585 0.00270197 0)
(0.196144 0.00263936 0)
(0.195694 0.00257782 0)
(0.195234 0.00251726 0)
(0.194766 0.00245758 0)
(0.19429 0.00239869 0)
(0.193807 0.00234048 0)
(0.193317 0.00228288 0)
(0.192821 0.00222581 0)
(0.19232 0.00216917 0)
(0.191813 0.0021129 0)
(0.191303 0.00205691 0)
(0.190789 0.00200114 0)
(0.190273 0.00194549 0)
(0.189754 0.00188991 0)
(0.189234 0.00183432 0)
(0.188714 0.00177865 0)
(0.188194 0.00172283 0)
(0.187675 0.00166679 0)
(0.187158 0.00161046 0)
(0.186645 0.00155377 0)
(0.186135 0.00149667 0)
(0.18563 0.00143909 0)
(0.185131 0.00138098 0)
(0.184638 0.00132228 0)
(0.184153 0.00126293 0)
(0.183678 0.00120289 0)
(0.183212 0.00114212 0)
(0.182757 0.00108057 0)
(0.182314 0.00101822 0)
(0.181884 0.00095504 0)
(0.181468 0.000891054 0)
(0.181067 0.000826318 0)
(0.180682 0.000760963 0)
(0.180313 0.000695224 0)
(0.179961 0.000629475 0)
(0.179626 0.000564254 0)
(0.179309 0.000500277 0)
(0.179008 0.00043842 0)
(0.178725 0.000379651 0)
(0.178459 0.000324916 0)
(0.178209 0.000274996 0)
(0.177975 0.000230367 0)
(0.177757 0.000191205 0)
(0.177554 0.000157412 0)
(0.177366 0.000128731 0)
(0.177191 0.000104752 0)
(0.177029 8.4942e-05 0)
(0.176879 6.88255e-05 0)
(0.176739 5.59883e-05 0)
(0.176608 4.59969e-05 0)
(0.176486 3.84498e-05 0)
(0.176372 3.30719e-05 0)
(0.176266 2.97489e-05 0)
(0.176167 2.86202e-05 0)
(0.176075 3.04248e-05 0)
(0.175972 3.78342e-05 0)
(0.196729 0.00652242 0)
(0.197272 0.00715549 0)
(0.197917 0.00764015 0)
(0.198608 0.00797418 0)
(0.199306 0.0081735 0)
(0.199987 0.00825427 0)
(0.200631 0.00823113 0)
(0.201224 0.0081202 0)
(0.201755 0.00793938 0)
(0.202218 0.00770677 0)
(0.202611 0.00743936 0)
(0.202935 0.00715226 0)
(0.203195 0.00685821 0)
(0.203397 0.00656725 0)
(0.203549 0.00628671 0)
(0.203658 0.00602137 0)
(0.203731 0.00577386 0)
(0.203775 0.00554516 0)
(0.203794 0.00533502 0)
(0.203793 0.00514243 0)
(0.203776 0.00496592 0)
(0.203744 0.00480383 0)
(0.203699 0.0046545 0)
(0.203643 0.00451635 0)
(0.203577 0.00438797 0)
(0.203501 0.00426809 0)
(0.203415 0.00415565 0)
(0.203319 0.00404973 0)
(0.203214 0.00394954 0)
(0.2031 0.00385442 0)
(0.202976 0.00376381 0)
(0.202843 0.00367723 0)
(0.2027 0.00359426 0)
(0.202548 0.00351452 0)
(0.202386 0.00343771 0)
(0.202215 0.00336354 0)
(0.202034 0.00329174 0)
(0.201844 0.0032221 0)
(0.201644 0.00315441 0)
(0.201435 0.00308848 0)
(0.201217 0.00302413 0)
(0.200989 0.0029612 0)
(0.200753 0.00289956 0)
(0.200507 0.00283906 0)
(0.200253 0.00277958 0)
(0.199991 0.00272099 0)
(0.19972 0.00266319 0)
(0.199441 0.00260607 0)
(0.199154 0.00254953 0)
(0.198859 0.00249347 0)
(0.198557 0.0024378 0)
(0.198249 0.00238243 0)
(0.197933 0.00232728 0)
(0.197612 0.00227225 0)
(0.197284 0.00221727 0)
(0.196952 0.00216225 0)
(0.196614 0.00210712 0)
(0.196272 0.00205179 0)
(0.195926 0.00199619 0)
(0.195577 0.00194025 0)
(0.195225 0.00188388 0)
(0.194871 0.00182701 0)
(0.194515 0.00176958 0)
(0.194158 0.00171151 0)
(0.193801 0.00165273 0)
(0.193444 0.00159318 0)
(0.193088 0.0015328 0)
(0.192735 0.00147153 0)
(0.192384 0.00140931 0)
(0.192036 0.00134611 0)
(0.191693 0.00128188 0)
(0.191354 0.00121658 0)
(0.191022 0.0011502 0)
(0.190696 0.00108273 0)
(0.190378 0.00101422 0)
(0.190067 0.000944763 0)
(0.189766 0.000874522 0)
(0.189473 0.000803786 0)
(0.18919 0.000732982 0)
(0.188917 0.000662698 0)
(0.188654 0.000593695 0)
(0.188401 0.000526874 0)
(0.188158 0.000463212 0)
(0.187926 0.000403651 0)
(0.187703 0.000348967 0)
(0.187492 0.000299657 0)
(0.187291 0.000255932 0)
(0.187101 0.000217741 0)
(0.186921 0.000184852 0)
(0.186751 0.000156896 0)
(0.186592 0.000133404 0)
(0.186441 0.000113909 0)
(0.186299 9.79535e-05 0)
(0.186165 8.50824e-05 0)
(0.186039 7.49095e-05 0)
(0.185919 6.71594e-05 0)
(0.185806 6.16783e-05 0)
(0.185699 5.85017e-05 0)
(0.185598 5.80231e-05 0)
(0.185485 6.09963e-05 0)
(0.197091 0.00627417 0)
(0.197569 0.00683719 0)
(0.198135 0.00728282 0)
(0.19875 0.0076025 0)
(0.19938 0.00780402 0)
(0.200001 0.00789903 0)
(0.200596 0.00789961 0)
(0.201149 0.00781926 0)
(0.20165 0.00767317 0)
(0.202093 0.00747699 0)
(0.202477 0.00724569 0)
(0.2028 0.00699281 0)
(0.203068 0.00672996 0)
(0.203285 0.00646651 0)
(0.203457 0.00620953 0)
(0.203591 0.00596389 0)
(0.203692 0.00573255 0)
(0.203768 0.00551696 0)
(0.203821 0.00531737 0)
(0.203858 0.00513329 0)
(0.20388 0.00496371 0)
(0.203891 0.00480737 0)
(0.203893 0.00466293 0)
(0.203886 0.00452906 0)
(0.203871 0.00440453 0)
(0.203851 0.00428823 0)
(0.203824 0.00417918 0)
(0.203791 0.00407652 0)
(0.203752 0.00397953 0)
(0.203708 0.00388757 0)
(0.203659 0.00380008 0)
(0.203603 0.00371661 0)
(0.203542 0.00363673 0)
(0.203475 0.00356008 0)
(0.203403 0.00348634 0)
(0.203324 0.00341523 0)
(0.20324 0.00334648 0)
(0.20315 0.00327986 0)
(0.203053 0.00321516 0)
(0.202951 0.00315219 0)
(0.202842 0.00309076 0)
(0.202728 0.00303071 0)
(0.202607 0.00297189 0)
(0.20248 0.00291415 0)
(0.202346 0.00285736 0)
(0.202207 0.0028014 0)
(0.202061 0.00274613 0)
(0.201909 0.00269146 0)
(0.201751 0.00263727 0)
(0.201587 0.00258346 0)
(0.201417 0.00252993 0)
(0.201242 0.00247657 0)
(0.201061 0.0024233 0)
(0.200874 0.00237003 0)
(0.200682 0.00231666 0)
(0.200485 0.0022631 0)
(0.200283 0.00220927 0)
(0.200077 0.00215509 0)
(0.199866 0.00210046 0)
(0.199651 0.0020453 0)
(0.199432 0.00198954 0)
(0.19921 0.00193309 0)
(0.198985 0.00187587 0)
(0.198757 0.00181782 0)
(0.198527 0.00175884 0)
(0.198295 0.00169888 0)
(0.198061 0.00163787 0)
(0.197827 0.00157575 0)
(0.197593 0.00151247 0)
(0.197358 0.00144797 0)
(0.197124 0.00138221 0)
(0.196891 0.00131517 0)
(0.19666 0.00124684 0)
(0.196431 0.00117723 0)
(0.196205 0.00110641 0)
(0.195981 0.00103448 0)
(0.195761 0.000961659 0)
(0.195545 0.000888257 0)
(0.195332 0.000814733 0)
(0.195124 0.000741701 0)
(0.194919 0.000669932 0)
(0.194719 0.000600324 0)
(0.194524 0.000533838 0)
(0.194333 0.000471389 0)
(0.194148 0.000413737 0)
(0.193968 0.000361388 0)
(0.193795 0.000314581 0)
(0.193628 0.000273306 0)
(0.193468 0.000237373 0)
(0.193316 0.000206454 0)
(0.19317 0.00018012 0)
(0.19303 0.000157925 0)
(0.192897 0.000139425 0)
(0.19277 0.000124193 0)
(0.192649 0.000111849 0)
(0.192534 0.000102096 0)
(0.192423 9.47368e-05 0)
(0.192317 8.96918e-05 0)
(0.192218 8.69725e-05 0)
(0.192103 8.58224e-05 0)
(0.197415 0.00604929 0)
(0.197839 0.00655142 0)
(0.19834 0.00695954 0)
(0.198888 0.00726252 0)
(0.199457 0.00746268 0)
(0.200024 0.00756778 0)
(0.200571 0.00758742 0)
(0.201085 0.00753281 0)
(0.201555 0.0074167 0)
(0.201977 0.00725254 0)
(0.202346 0.00705344 0)
(0.202664 0.00683144 0)
(0.202931 0.00659704 0)
(0.203152 0.00635895 0)
(0.203333 0.0061239 0)
(0.203478 0.00589675 0)
(0.203593 0.00568068 0)
(0.203684 0.00547749 0)
(0.203754 0.00528785 0)
(0.203808 0.00511172 0)
(0.203849 0.00494847 0)
(0.20388 0.00479723 0)
(0.203902 0.00465694 0)
(0.203916 0.00452652 0)
(0.203925 0.00440494 0)
(0.203929 0.00429122 0)
(0.203929 0.0041845 0)
(0.203924 0.00408399 0)
(0.203916 0.00398902 0)
(0.203904 0.003899 0)
(0.203889 0.00381342 0)
(0.20387 0.0037318 0)
(0.203848 0.00365377 0)
(0.203823 0.00357896 0)
(0.203794 0.00350706 0)
(0.203763 0.00343778 0)
(0.203727 0.00337088 0)
(0.203689 0.00330612 0)
(0.203647 0.00324328 0)
(0.203602 0.00318217 0)
(0.203553 0.00312261 0)
(0.2035 0.00306443 0)
(0.203444 0.00300748 0)
(0.203384 0.00295161 0)
(0.20332 0.00289668 0)
(0.203252 0.00284256 0)
(0.20318 0.00278912 0)
(0.203105 0.00273626 0)
(0.203025 0.00268385 0)
(0.202942 0.00263178 0)
(0.202855 0.00257995 0)
(0.202763 0.00252826 0)
(0.202668 0.0024766 0)
(0.202569 0.00242488 0)
(0.202466 0.002373 0)
(0.202359 0.00232087 0)
(0.202248 0.00226839 0)
(0.202134 0.00221547 0)
(0.202016 0.00216202 0)
(0.201894 0.00210795 0)
(0.201769 0.00205317 0)
(0.201641 0.0019976 0)
(0.20151 0.00194115 0)
(0.201375 0.00188375 0)
(0.201239 0.0018253 0)
(0.201099 0.00176574 0)
(0.200958 0.001705 0)
(0.200814 0.00164302 0)
(0.200668 0.00157973 0)
(0.200521 0.00151508 0)
(0.200373 0.00144905 0)
(0.200223 0.00138161 0)
(0.200073 0.00131274 0)
(0.199922 0.00124249 0)
(0.19977 0.00117092 0)
(0.199618 0.00109817 0)
(0.199467 0.00102447 0)
(0.199315 0.000950143 0)
(0.199163 0.000875665 0)
(0.199011 0.000801652 0)
(0.198859 0.000728865 0)
(0.198708 0.000658175 0)
(0.198557 0.000590503 0)
(0.198407 0.000526726 0)
(0.198258 0.000467576 0)
(0.198112 0.000413559 0)
(0.197969 0.000364932 0)
(0.197829 0.000321724 0)
(0.197693 0.000283786 0)
(0.197561 0.00025083 0)
(0.197434 0.000222474 0)
(0.197311 0.000198305 0)
(0.197192 0.000177905 0)
(0.197078 0.000160867 0)
(0.196968 0.000146819 0)
(0.196861 0.000135458 0)
(0.196759 0.000126551 0)
(0.19666 0.000119915 0)
(0.196567 0.00011524 0)
(0.196457 0.000110877 0)
(0.197705 0.00584347 0)
(0.198086 0.00629284 0)
(0.198531 0.00666591 0)
(0.199022 0.00695107 0)
(0.199536 0.00714721 0)
(0.200053 0.00725902 0)
(0.200556 0.00729383 0)
(0.201033 0.0072608 0)
(0.201474 0.00717057 0)
(0.201873 0.0070346 0)
(0.202227 0.00686427 0)
(0.202535 0.00667025 0)
(0.202799 0.00646199 0)
(0.203021 0.0062475 0)
(0.203205 0.00603313 0)
(0.203357 0.00582366 0)
(0.20348 0.00562238 0)
(0.20358 0.00543133 0)
(0.20366 0.00525154 0)
(0.203724 0.00508329 0)
(0.203775 0.00492635 0)
(0.203816 0.00478014 0)
(0.203849 0.00464389 0)
(0.203874 0.00451675 0)
(0.203894 0.00439785 0)
(0.203909 0.00428638 0)
(0.203921 0.00418158 0)
(0.203929 0.00408275 0)
(0.203934 0.00398929 0)
(0.203936 0.00390063 0)
(0.203936 0.00381631 0)
(0.203934 0.00373589 0)
(0.20393 0.003659 0)
(0.203923 0.0035853 0)
(0.203915 0.00351447 0)
(0.203905 0.00344626 0)
(0.203892 0.00338041 0)
(0.203878 0.0033167 0)
(0.203862 0.00325491 0)
(0.203845 0.00319486 0)
(0.203825 0.00313636 0)
(0.203803 0.00307925 0)
(0.203779 0.00302338 0)
(0.203754 0.0029686 0)
(0.203726 0.00291477 0)
(0.203696 0.00286175 0)
(0.203664 0.00280943 0)
(0.20363 0.00275769 0)
(0.203594 0.0027064 0)
(0.203555 0.00265545 0)
(0.203514 0.00260475 0)
(0.20347 0.00255417 0)
(0.203425 0.00250363 0)
(0.203376 0.00245301 0)
(0.203326 0.00240221 0)
(0.203273 0.00235115 0)
(0.203217 0.00229972 0)
(0.203159 0.00224782 0)
(0.203098 0.00219536 0)
(0.203035 0.00214225 0)
(0.202969 0.0020884 0)
(0.202901 0.00203371 0)
(0.20283 0.0019781 0)
(0.202757 0.00192149 0)
(0.202682 0.00186378 0)
(0.202604 0.00180491 0)
(0.202524 0.0017448 0)
(0.202442 0.00168339 0)
(0.202357 0.00162061 0)
(0.202271 0.00155642 0)
(0.202182 0.00149079 0)
(0.202091 0.00142368 0)
(0.201998 0.00135512 0)
(0.201903 0.00128512 0)
(0.201806 0.00121379 0)
(0.201707 0.00114126 0)
(0.201606 0.00106778 0)
(0.201503 0.000993674 0)
(0.201397 0.000919422 0)
(0.201289 0.000845624 0)
(0.201179 0.000773014 0)
(0.201066 0.000702421 0)
(0.200952 0.000634715 0)
(0.200836 0.000570725 0)
(0.200719 0.000511147 0)
(0.200602 0.000456477 0)
(0.200485 0.000406984 0)
(0.200369 0.00036273 0)
(0.200256 0.000323601 0)
(0.200144 0.000289356 0)