/*--------------------------------*- C++ -*----------------------------------*\
| =========                 |                                                 |
| \\      /  F ield         | OpenFOAM: The Open Source CFD Toolbox           |
|  \\    /   O peration     | Version:  2.3.0                                 |
|   \\  /    A nd           | Web:      www.OpenFOAM.org                      |
|    \\/     M anipulation  |                                                 |
\*---------------------------------------------------------------------------*/
FoamFile
{
    version     2.0;
    format      ascii;
    class       volScalarField;
    location    "0.15";
    object      p;
}
// * * * * * * * * * * * * * * * * * * * * * * * * * * * * * * * * * * * * * //

dimensions      [0 2 -2 0 0 0 0];

internalField   nonuniform List<scalar> 
3105
(
0.00235954
0.00208086
0.00149962
0.000947412
0.000494933
0.000107517
-0.000231137
-0.000497835
-0.000666443
-0.000740798
-0.000747569
-0.000715996
-0.000669527
-0.00062434
-0.000587862
-0.000560571
-0.000540688
-0.000526557
-0.000516457
-0.00050858
-0.00050161
-0.000494976
-0.000488593
-0.000482479
-0.000476583
-0.000470817
-0.000465051
-0.00045903
-0.000452445
-0.000445127
-0.000437082
-0.000428287
-0.000418547
-0.000407618
-0.000395341
-0.000381609
-0.000366323
-0.000349443
-0.000331056
-0.00031124
-0.000290586
-0.000269601
-0.000248627
-0.000228405
-0.000209146
-0.000191145
-0.000174548
-0.000159374
-0.000145537
-0.000132923
-0.000121409
-0.000110877
-0.000101227
-9.2365e-05
-8.42156e-05
-7.6716e-05
-6.98154e-05
-6.34741e-05
-5.76611e-05
-5.23497e-05
-4.75141e-05
-4.31262e-05
-3.91543e-05
-3.55634e-05
-3.23169e-05
-2.93788e-05
-2.67149e-05
-2.42944e-05
-2.20905e-05
-2.00804e-05
-1.82444e-05
-1.65661e-05
-1.50314e-05
-1.36278e-05
-1.23442e-05
-1.11711e-05
-1.0099e-05
-9.12023e-06
-8.22642e-06
-7.41111e-06
-6.6672e-06
-5.98902e-06
-5.37048e-06
-4.80672e-06
-4.29236e-06
-3.8234e-06
-3.39497e-06
-3.0039e-06
-2.64562e-06
-2.3179e-06
-2.01606e-06
-1.7391e-06
-1.48208e-06
-1.24436e-06
-1.02261e-06
-8.1414e-07
-6.1832e-07
-4.32199e-07
-2.54266e-07
-8.20914e-08
0.00194808
0.00180188
0.00139288
0.000915884
0.000489239
0.000122442
-0.000193818
-0.000442832
-0.00060621
-0.000686351
-0.000703413
-0.000681902
-0.000643767
-0.000605105
-0.000573563
-0.000549687
-0.000532002
-0.000519305
-0.000510195
-0.000503031
-0.000496602
-0.000490419
-0.00048445
-0.000478731
-0.000473208
-0.000467798
-0.00046238
-0.00045669
-0.000450399
-0.000443334
-0.000435518
-0.000426946
-0.000417431
-0.000406717
-0.000394642
-0.000381107
-0.000366005
-0.000349286
-0.000331006
-0.000311445
-0.000290732
-0.000269835
-0.000248834
-0.000228619
-0.000209328
-0.000191301
-0.000174679
-0.000159488
-0.000145637
-0.000133013
-0.000121489
-0.000110949
-0.000101291
-9.24229e-05
-8.42672e-05
-7.67616e-05
-6.98552e-05
-6.35082e-05
-5.76899e-05
-5.23737e-05
-4.75342e-05
-4.31431e-05
-3.91688e-05
-3.55763e-05
-3.23287e-05
-2.93897e-05
-2.67252e-05
-2.43041e-05
-2.20997e-05
-2.0089e-05
-1.82524e-05
-1.65736e-05
-1.50382e-05
-1.36341e-05
-1.235e-05
-1.11764e-05
-1.01039e-05
-9.12463e-06
-8.23041e-06
-7.41475e-06
-6.67051e-06
-5.99202e-06
-5.3732e-06
-4.80919e-06
-4.29458e-06
-3.82541e-06
-3.39677e-06
-3.00553e-06
-2.64706e-06
-2.31921e-06
-2.0172e-06
-1.74013e-06
-1.48298e-06
-1.24511e-06
-1.02332e-06
-8.14645e-07
-6.18796e-07
-4.3253e-07
-2.54571e-07
-8.23015e-08
0.00165975
0.0015735
0.00129272
0.000897515
0.000504803
0.0001614
-0.000128069
-0.00035689
-0.0005159
-0.00060616
-0.000640062
-0.00063523
-0.000610617
-0.000581951
-0.000556922
-0.000536915
-0.000521505
-0.000510242
-0.000502106
-0.000495641
-0.000489747
-0.000484005
-0.00047843
-0.000473105
-0.000468006
-0.000463046
-0.000458076
-0.000452805
-0.000446886
-0.000440152
-0.00043265
-0.000424392
-0.000415186
-0.000404762
-0.000392956
-0.000379674
-0.000364809
-0.000348311
-0.000330235
-0.000310822
-0.000290496
-0.000269512
-0.000248514
-0.000228457
-0.000209223
-0.000191244
-0.000174652
-0.000159483
-0.000145645
-0.000133027
-0.000121507
-0.000110965
-0.000101308
-9.24379e-05
-8.42798e-05
-7.67711e-05
-6.9861e-05
-6.35099e-05
-5.76874e-05
-5.23677e-05
-4.75255e-05
-4.31329e-05
-3.91582e-05
-3.5566e-05
-3.23194e-05
-2.93817e-05
-2.67184e-05
-2.42985e-05
-2.20951e-05
-2.00851e-05
-1.82493e-05
-1.65709e-05
-1.50359e-05
-1.36321e-05
-1.23483e-05
-1.1175e-05
-1.01026e-05
-9.12355e-06
-8.22949e-06
-7.41398e-06
-6.66986e-06
-5.9915e-06
-5.37277e-06
-4.80887e-06
-4.29434e-06
-3.82526e-06
-3.39668e-06
-3.00552e-06
-2.64709e-06
-2.31933e-06
-2.01732e-06
-1.74034e-06
-1.48321e-06
-1.24535e-06
-1.02366e-06
-8.14913e-07
-6.19067e-07
-4.32793e-07
-2.54574e-07
-8.22462e-08
0.00146422
0.00139521
0.00119023
0.000869036
0.000520202
0.000204885
-6.01264e-05
-0.000270819
-0.000423229
-0.000518795
-0.000565921
-0.000576976
-0.000566757
-0.000548866
-0.000531095
-0.000515971
-0.000504074
-0.000495367
-0.000489004
-0.000483784
-0.000478888
-0.000474022
-0.000469182
-0.00046443
-0.000459818
-0.00045534
-0.000450854
-0.000446035
-0.000440518
-0.00043414
-0.00042696
-0.000419018
-0.000410142
-0.000400061
-0.000388598
-0.00037566
-0.000361158
-0.000345049
-0.000327399
-0.000308418
-0.000288504
-0.000268019
-0.000247726
-0.000227622
-0.00020861
-0.000190816
-0.000174356
-0.000159293
-0.000145523
-0.000132951
-0.000121459
-0.000110934
-0.000101292
-9.24306e-05
-8.42789e-05
-7.67744e-05
-6.98659e-05
-6.35141e-05
-5.76891e-05
-5.23657e-05
-4.75198e-05
-4.3124e-05
-3.91469e-05
-3.55536e-05
-3.23066e-05
-2.93692e-05
-2.67066e-05
-2.42877e-05
-2.20852e-05
-2.00763e-05
-1.82414e-05
-1.65639e-05
-1.50296e-05
-1.36265e-05
-1.23433e-05
-1.11705e-05
-1.00987e-05
-9.12008e-06
-8.22646e-06
-7.41134e-06
-6.66758e-06
-5.98956e-06
-5.37113e-06
-4.80751e-06
-4.29323e-06
-3.8244e-06
-3.39603e-06
-3.00507e-06
-2.64682e-06
-2.31925e-06
-2.01738e-06
-1.74056e-06
-1.48357e-06
-1.24581e-06
-1.02426e-06
-8.15578e-07
-6.19699e-07
-4.33514e-07
-2.5483e-07
-8.23149e-08
0.00130977
0.00124445
0.00108282
0.000823867
0.000524506
0.000241484
-8.67456e-07
-0.000195908
-0.00034104
-0.000438265
-0.000493993
-0.000517181
-0.000519137
-0.000511092
-0.000500377
-0.000490254
-0.000482058
-0.000476068
-0.000471636
-0.000467881
-0.000464246
-0.000460487
-0.000456521
-0.000452415
-0.000448334
-0.000444358
-0.000440329
-0.000435915
-0.000430783
-0.000424782
-0.00041795
-0.000410331
-0.000401793
-0.000392089
-0.000381036
-0.000368542
-0.00035453
-0.000338973
-0.00032195
-0.000303673
-0.000284481
-0.000264732
-0.000245008
-0.000225592
-0.000207104
-0.000189704
-0.000173571
-0.000158715
-0.000145109
-0.00013265
-0.000121238
-0.000110764
-0.00010117
-9.23419e-05
-8.42176e-05
-7.67355e-05
-6.98444e-05
-6.3505e-05
-5.76875e-05
-5.23674e-05
-4.75215e-05
-4.31238e-05
-3.91439e-05
-3.55474e-05
-3.22979e-05
-2.93586e-05
-2.66948e-05
-2.42754e-05
-2.20729e-05
-2.00644e-05
-1.823e-05
-1.65533e-05
-1.50199e-05
-1.36176e-05
-1.23352e-05
-1.11633e-05
-1.00922e-05
-9.11439e-06
-8.22147e-06
-7.40698e-06
-6.66381e-06
-5.98634e-06
-5.3684e-06
-4.80525e-06
-4.29139e-06
-3.82294e-06
-3.39495e-06
-3.00431e-06
-2.64638e-06
-2.31909e-06
-2.01752e-06
-1.74092e-06
-1.48421e-06
-1.24661e-06
-1.02526e-06
-8.16775e-07
-6.20836e-07
-4.34789e-07
-2.55615e-07
-8.28161e-08
0.0011778
0.00111419
0.00097992
0.000769856
0.000518018
0.000268702
4.83971e-05
-0.000132475
-0.000270389
-0.000367033
-0.000427771
-0.000459708
-0.000471604
-0.000472327
-0.000468187
-0.000462788
-0.000458137
-0.000454816
-0.000452296
-0.000449943
-0.000447496
-0.000444811
-0.000441743
-0.000438326
-0.000434784
-0.000431242
-0.000427553
-0.000423431
-0.00041862
-0.000412969
-0.000406459
-0.000399123
-0.000390885
-0.00038154
-0.000370905
-0.000358883
-0.000345425
-0.000330527
-0.000314273
-0.000296849
-0.000278547
-0.000259737
-0.0002409
-0.000222357
-0.00020456
-0.00018773
-0.000172042
-0.000157546
-0.00014421
-0.000131952
-0.000120689
-0.00011035
-0.000100822
-9.20646e-05
-8.40007e-05
-7.65704e-05
-6.97233e-05
-6.34205e-05
-5.76315e-05
-5.2332e-05
-4.74993e-05
-4.31086e-05
-3.91314e-05
-3.55346e-05
-3.22832e-05
-2.93419e-05
-2.66761e-05
-2.42553e-05
-2.20521e-05
-2.00436e-05
-1.82098e-05
-1.6534e-05
-1.50018e-05
-1.36009e-05
-1.232e-05
-1.11495e-05
-1.00798e-05
-9.10322e-06
-8.21155e-06
-7.3982e-06
-6.65611e-06
-5.97962e-06
-5.3626e-06
-4.80027e-06
-4.2872e-06
-3.81944e-06
-3.39212e-06
-3.00207e-06
-2.64473e-06
-2.31791e-06
-2.01689e-06
-1.74065e-06
-1.48446e-06
-1.24717e-06
-1.02615e-06
-8.18047e-07
-6.22125e-07
-4.36232e-07
-2.56784e-07
-8.37282e-08
0.00106272
0.00100176
0.000886869
0.000713573
0.000502633
0.000286352
8.8666e-05
-7.82599e-05
-0.000209121
-0.000304043
-0.000367416
-0.000405516
-0.000425376
-0.000433663
-0.000435467
-0.000434493
-0.000433267
-0.000432578
-0.000431923
-0.000430899
-0.000429597
-0.000427992
-0.000425824
-0.000423088
-0.000420096
-0.000417003
-0.000413627
-0.000409734
-0.000405186
-0.000399852
-0.000393644
-0.000386574
-0.000378615
-0.000369603
-0.000359359
-0.000347811
-0.00033494
-0.000320745
-0.000305289
-0.000288757
-0.000271437
-0.000253655
-0.000235789
-0.000218162
-0.000201152
-0.000185005
-0.000169873
-0.000155813
-0.000142813
-0.000130818
-0.000119761
-0.00010958
-0.000100191
-9.15443e-05
-8.35735e-05
-7.62236e-05
-6.94477e-05
-6.32062e-05
-5.74689e-05
-5.2211e-05
-4.74098e-05
-4.30412e-05
-3.9078e-05
-3.54891e-05
-3.22415e-05
-2.93015e-05
-2.6636e-05
-2.42152e-05
-2.20124e-05
-2.00049e-05
-1.81726e-05
-1.64987e-05
-1.49688e-05
-1.35704e-05
-1.22919e-05
-1.11239e-05
-1.00566e-05
-9.08236e-06
-8.19287e-06
-7.38153e-06
-6.64133e-06
-5.96655e-06
-5.35112e-06
-4.79024e-06
-4.27853e-06
-3.81198e-06
-3.38581e-06
-2.99678e-06
-2.64043e-06
-2.31445e-06
-2.01434e-06
-1.73875e-06
-1.48338e-06
-1.24666e-06
-1.02618e-06
-8.18714e-07
-6.23016e-07
-4.37478e-07
-2.58002e-07
-8.47619e-08
0.000961643
0.000904068
0.000804035
0.000658467
0.000481415
0.000295872
0.000120761
-3.21284e-05
-0.000155784
-0.000248274
-0.000312787
-0.000355063
-0.000381016
-0.000395602
-0.000402731
-0.000405897
-0.000407886
-0.000409684
-0.000410853
-0.000411158
-0.000410995
-0.000410471
-0.000409206
-0.000407144
-0.000404717
-0.000402117
-0.000399084
-0.000395418
-0.000391119
-0.000386093
-0.000380184
-0.000373384
-0.000365712
-0.000357032
-0.00034718
-0.000336113
-0.000323838
-0.000310344
-0.00029569
-0.000280065
-0.000263725
-0.000246945
-0.000230045
-0.000213345
-0.000197169
-0.000181739
-0.000167197
-0.000153609
-0.000140989
-0.000129301
-0.000118495
-0.000108516
-9.92977e-05
-9.07904e-05
-8.29388e-05
-7.56925e-05
-6.9008e-05
-6.28475e-05
-5.71802e-05
-5.19813e-05
-4.72279e-05
-4.2896e-05
-3.89593e-05
-3.53888e-05
-3.21532e-05
-2.92206e-05
-2.65602e-05
-2.41433e-05
-2.19441e-05
-1.99398e-05
-1.81111e-05
-1.64412e-05
-1.49153e-05
-1.3521e-05
-1.22467e-05
-1.10827e-05
-1.00193e-05
-9.04862e-06
-8.16254e-06
-7.35434e-06
-6.61706e-06
-5.94496e-06
-5.33202e-06
-4.77339e-06
-4.26376e-06
-3.79911e-06
-3.3747e-06
-2.98726e-06
-2.63241e-06
-2.30774e-06
-2.00896e-06
-1.73442e-06
-1.48021e-06
-1.24442e-06
-1.02476e-06
-8.18203e-07
-6.23014e-07
-4.37912e-07
-2.58784e-07
-8.56328e-08
0.000872285
0.000818427
0.000730594
0.000606669
0.000457191
0.000298566
0.000144825
6.20762e-06
-0.000109619
-0.000199045
-0.000263707
-0.000308612
-0.000339046
-0.000358759
-0.000370505
-0.000377354
-0.000382233
-0.000386353
-0.000389326
-0.000390962
-0.000391894
-0.000392427
-0.000392089
-0.000390718
-0.000388851
-0.000386764
-0.00038412
-0.00038071
-0.000376669
-0.000371963
-0.000366367
-0.000359846
-0.000352476
-0.000344156
-0.000334718
-0.000324137
-0.000312452
-0.000299662
-0.000285809
-0.000271062
-0.000255659
-0.000239847
-0.000223905
-0.000208119
-0.000192767
-0.000178053
-0.000164115
-0.000151028
-0.000138819
-0.00012747
-0.000116943
-0.000107193
-9.81691e-05
-8.98259e-05
-8.21151e-05
-7.49916e-05
-6.84151e-05
-6.23499e-05
-5.67664e-05
-5.16396e-05
-4.69463e-05
-4.26629e-05
-3.87636e-05
-3.52212e-05
-3.2006e-05
-2.90883e-05
-2.64391e-05
-2.40311e-05
-2.18395e-05
-1.98423e-05
-1.80203e-05
-1.6357e-05
-1.48377e-05
-1.34497e-05
-1.21815e-05
-1.10233e-05
-9.9655e-06
-9.00001e-06
-8.11878e-06
-7.31503e-06
-6.58188e-06
-5.91356e-06
-5.3041e-06
-4.74864e-06
-4.24194e-06
-3.77995e-06
-3.35799e-06
-2.97278e-06
-2.62002e-06
-2.2972e-06
-2.00023e-06
-1.7272e-06
-1.47454e-06
-1.24009e-06
-1.02156e-06
-8.16227e-07
-6.21884e-07
-4.37511e-07
-2.59012e-07
-8.61626e-08
0.000792823
0.000742877
0.00066549
0.000558869
0.000431455
0.000295609
0.000161583
3.72911e-05
-7.01361e-05
-0.000155916
-0.000219937
-0.000266278
-0.000299838
-0.000323523
-0.000339038
-0.000349025
-0.000356516
-0.000362819
-0.000367511
-0.000370428
-0.000372419
-0.00037398
-0.000374574
-0.000373904
-0.000372583
-0.000371012
-0.000368799
-0.000365684
-0.000361914
-0.000357541
-0.000352281
-0.000346059
-0.000339012
-0.000331079
-0.000322074
-0.000311986
-0.000300899
-0.000288811
-0.000275735
-0.000261832
-0.000247339
-0.000232474
-0.000217462
-0.000202555
-0.000188007
-0.000174009
-0.000160687
-0.000148118
-0.000136341
-0.000125352
-0.000115127
-0.00010563
-9.68231e-05
-8.86649e-05
-8.11136e-05
-7.41293e-05
-6.76751e-05
-6.17181e-05
-5.623e-05
-5.11861e-05
-4.65633e-05
-4.2338e-05
-3.84856e-05
-3.498e-05
-3.17935e-05
-2.88982e-05
-2.62667e-05
-2.38733e-05
-2.16942e-05
-1.97082e-05
-1.78967e-05
-1.62432e-05
-1.47332e-05
-1.33541e-05
-1.20944e-05
-1.09441e-05
-9.89372e-06
-8.93513e-06
-8.06031e-06
-7.26246e-06
-6.53475e-06
-5.87141e-06
-5.26653e-06
-4.71525e-06
-4.21238e-06
-3.75388e-06
-3.33515e-06
-2.95285e-06
-2.60281e-06
-2.28243e-06
-1.98778e-06
-1.71678e-06
-1.46608e-06
-1.23341e-06
-1.01639e-06
-8.12626e-07
-6.19492e-07
-4.36161e-07
-2.58561e-07
-8.62981e-08
0.000721798
0.00067583
0.000607429
0.000514814
0.000405184
0.000288574
0.000172271
6.16553e-05
-3.71034e-05
-0.000118509
-0.000181069
-0.000227883
-0.000263418
-0.000290021
-0.000308554
-0.000321178
-0.000330964
-0.000339259
-0.000345534
-0.000349659
-0.000352678
-0.000355221
-0.000356708
-0.000356739
-0.000355968
-0.000354903
-0.000353138
-0.000350357
-0.00034688
-0.000342849
-0.000337948
-0.000332057
-0.000325351
-0.000317817
-0.000309265
-0.000299691
-0.000289204
-0.000277802
-0.000265485
-0.00025241
-0.000238805
-0.000224851
-0.00021073
-0.000196674
-0.000182918
-0.000169631
-0.000156929
-0.000144891
-0.000133563
-0.000122956
-0.000113054
-0.000103833
-9.52623e-05
-8.73078e-05
-7.99335e-05
-7.31039e-05
-6.67861e-05
-6.09501e-05
-5.55688e-05
-5.06181e-05
-4.60752e-05
-4.19174e-05
-3.81208e-05
-3.46606e-05
-3.15108e-05
-2.86453e-05
-2.60382e-05
-2.36654e-05
-2.15041e-05
-1.9534e-05
-1.7737e-05
-1.60969e-05
-1.45995e-05
-1.32321e-05
-1.19834e-05
-1.08433e-05
-9.80241e-06
-8.85261e-06
-7.98591e-06
-7.19553e-06
-6.47468e-06
-5.81763e-06
-5.21851e-06
-4.67249e-06
-4.17444e-06
-3.72034e-06
-3.30564e-06
-2.92703e-06
-2.58039e-06
-2.26306e-06
-1.97131e-06
-1.70288e-06
-1.45459e-06
-1.22417e-06
-1.00908e-06
-8.07248e-07
-6.15714e-07
-4.33761e-07
-2.57382e-07
-8.6081e-08
0.000657953
0.000615885
0.000555225
0.000474202
0.000379208
0.000278733
0.000177886
7.99459e-05
-9.99224e-06
-8.6304e-05
-0.000146659
-0.000193186
-0.000229783
-0.000258447
-0.000279363
-0.000294083
-0.000305723
-0.000315793
-0.000323563
-0.00032879
-0.000332744
-0.000336223
-0.000338561
-0.000339262
-0.000339037
-0.000338478
-0.000337167
-0.000334748
-0.000331588
-0.000327909
-0.000323381
-0.000317845
-0.000311502
-0.00030438
-0.000296297
-0.000287247
-0.000277359
-0.000266639
-0.00025507
-0.000242801
-0.00023005
-0.000216971
-0.000203714
-0.000190487
-0.000177506
-0.000164924
-0.000152844
-0.000141346
-0.000130485
-0.000120278
-0.00011072
-0.000101795
-9.34799e-05
-8.57477e-05
-7.85675e-05
-7.19085e-05
-6.57416e-05
-6.00393e-05
-5.47763e-05
-4.99292e-05
-4.54763e-05
-4.13954e-05
-3.76638e-05
-3.42577e-05
-3.11528e-05
-2.83247e-05
-2.57491e-05
-2.34031e-05
-2.12653e-05
-1.93161e-05
-1.7538e-05
-1.59153e-05
-1.44338e-05
-1.30813e-05
-1.18463e-05
-1.0719e-05
-9.68987e-06
-8.75091e-06
-7.89421e-06
-7.113e-06
-6.40057e-06
-5.75121e-06
-5.15914e-06
-4.61955e-06
-4.1274e-06
-3.67868e-06
-3.26891e-06
-2.89478e-06
-2.55228e-06
-2.23871e-06
-1.95045e-06
-1.68519e-06
-1.43983e-06
-1.21214e-06
-9.99454e-07
-7.99937e-07
-6.10434e-07
-4.30234e-07
-2.55464e-07
-8.5552e-08
0.000600152
0.000561871
0.000508025
0.000436797
0.000353905
0.000266849
0.000179439
9.32203e-05
1.19315e-05
-5.89653e-05
-0.000116504
-0.000162053
-0.000198965
-0.000228929
-0.000251612
-0.000267928
-0.000280974
-0.000292571
-0.000301759
-0.000307957
-0.000312686
-0.000317055
-0.000320229
-0.000321531
-0.000321811
-0.000321781
-0.000320939
-0.000318879
-0.000316054
-0.000312743
-0.000308591
-0.000303424
-0.000297471
-0.00029078
-0.000283166
-0.000274644
-0.000265365
-0.000255325
-0.000244485
-0.000232992
-0.000221066
-0.000208837
-0.000196418
-0.000183996
-0.000171773
-0.000159887
-0.000148431
-0.000137482
-0.000127101
-0.000117312
-0.000108117
-9.95069e-05
-9.14666e-05
-8.39749e-05
-7.70062e-05
-7.05339e-05
-6.45324e-05
-5.8977e-05
-5.38442e-05
-4.9112e-05
-4.47595e-05
-4.07654e-05
-3.71081e-05
-3.37652e-05
-3.07138e-05
-2.7931e-05
-2.53942e-05
-2.30818e-05
-2.09735e-05
-1.90506e-05
-1.72962e-05
-1.56951e-05
-1.42335e-05
-1.28992e-05
-1.1681e-05
-1.05691e-05
-9.55422e-06
-8.62835e-06
-7.78369e-06
-7.0135e-06
-6.31117e-06
-5.67105e-06
-5.08743e-06
-4.55556e-06
-4.07047e-06
-3.62818e-06
-3.2243e-06
-2.85555e-06
-2.51799e-06
-2.20892e-06
-1.92482e-06
-1.66337e-06
-1.4215e-06
-1.19707e-06
-9.873e-07
-7.90539e-07
-6.03528e-07
-4.25508e-07
-2.52786e-07
-8.47291e-08
0.000547428
0.000512834
0.000465155
0.000402268
0.000329412
0.000253625
0.000177945
0.000102378
2.92114e-05
-3.62359e-05
-9.0418e-05
-0.000134309
-0.000170888
-0.000201482
-0.000225392
-0.000242925
-0.000256951
-0.000269708
-0.000280212
-0.000287311
-0.000292616
-0.000297759
-0.000301784
-0.000303641
-0.00030434
-0.000304839
-0.000304495
-0.000302783
-0.000300289
-0.000297369
-0.000293597
-0.000288795
-0.000283255
-0.000277018
-0.000269877
-0.000261881
-0.000253215
-0.000243849
-0.000233716
-0.000222975
-0.000211851
-0.000200447
-0.000188839
-0.000177198
-0.000165716
-0.00015452
-0.000143688
-0.000133295
-0.000123405
-0.00011405
-0.000105236
-9.69596e-05
-8.92126e-05
-8.19793e-05
-7.52392e-05
-6.89697e-05
-6.31485e-05
-5.77537e-05
-5.27638e-05
-4.81582e-05
-4.3917e-05
-4.00201e-05
-3.6447e-05
-3.31767e-05
-3.01878e-05
-2.74588e-05
-2.49686e-05
-2.26968e-05
-2.06244e-05
-1.87335e-05
-1.70079e-05
-1.5433e-05
-1.39953e-05
-1.26829e-05
-1.14848e-05
-1.03913e-05
-9.39344e-06
-8.48312e-06
-7.65271e-06
-6.89556e-06
-6.20518e-06
-5.57597e-06
-5.00232e-06
-4.47955e-06
-4.00278e-06
-3.56807e-06
-3.17114e-06
-2.80873e-06
-2.47699e-06
-2.17323e-06
-1.89402e-06
-1.63706e-06
-1.3993e-06
-1.17871e-06
-9.72405e-07
-7.78885e-07
-5.94864e-07
-4.19509e-07
-2.49317e-07
-8.36155e-08
0.000499022
0.000467935
0.000425951
0.000370335
0.000305939
0.000239624
0.000174003
0.000107982
4.24765e-05
-1.75889e-05
-6.81474e-05
-0.000109833
-0.000145471
-0.000176117
-0.000200783
-0.000219216
-0.00023384
-0.000247319
-0.000258979
-0.000266997
-0.00027269
-0.000278373
-0.00028325
-0.000285696
-0.000286708
-0.000287673
-0.000287869
-0.000286504
-0.000284304
-0.000281789
-0.000278426
-0.00027398
-0.00026885
-0.000263097
-0.000256441
-0.000248953
-0.000240886
-0.000232194
-0.000222762
-0.000212746
-0.000202395
-0.000191791
-0.000180974
-0.000170092
-0.000159336
-0.000148821
-0.000138613
-0.000128782
-0.000119394
-0.000110486
-0.000102069
-9.41437e-05
-8.67077e-05
-7.97506e-05
-7.32561e-05
-6.72056e-05
-6.15799e-05
-5.63598e-05
-5.15259e-05
-4.70591e-05
-4.29408e-05
-3.9152e-05
-3.56736e-05
-3.24859e-05
-2.95687e-05
-2.69022e-05
-2.44667e-05
-2.22431e-05
-2.02133e-05
-1.83605e-05
-1.66693e-05
-1.51255e-05
-1.37161e-05
-1.24296e-05
-1.12552e-05
-1.01835e-05
-9.20543e-06
-8.31331e-06
-7.49956e-06
-6.75765e-06
-6.0812e-06
-5.46471e-06
-4.90269e-06
-4.39052e-06
-3.92344e-06
-3.49757e-06
-3.10873e-06
-2.75369e-06
-2.42871e-06
-2.13113e-06
-1.85762e-06
-1.60587e-06
-1.37291e-06
-1.15677e-06
-9.54545e-07
-7.64802e-07
-5.84312e-07
-4.12155e-07
-2.45017e-07
-8.22062e-08
0.00045436
0.000426417
0.000389798
0.000340798
0.000283606
0.000225106
0.000168008
0.000110614
5.24277e-05
-2.47446e-06
-4.94662e-05
-8.8547e-05
-0.000122629
-0.000152802
-0.000177801
-0.000196856
-0.000211817
-0.000225579
-0.000238094
-0.000247065
-0.000253078
-0.000259006
-0.000264638
-0.00026776
-0.000269011
-0.000270308
-0.00027107
-0.000270097
-0.000268138
-0.000266005
-0.00026309
-0.000259005
-0.000254264
-0.000249008
-0.000242858
-0.00023586
-0.000228366
-0.000220349
-0.000211616
-0.000202303
-0.000192692
-0.000182866
-0.000172821
-0.000162681
-0.000152632
-0.000142789
-0.000133203
-0.000123937
-0.00011506
-0.000106612
-9.86072e-05
-9.10502e-05
-8.39426e-05
-7.7279e-05
-7.10471e-05
-6.52318e-05
-5.9817e-05
-5.47861e-05
-5.01216e-05
-4.58064e-05
-4.18229e-05
-3.81537e-05
-3.47808e-05
-3.16859e-05
-2.88503e-05
-2.62555e-05
-2.38831e-05
-2.17155e-05
-1.97355e-05
-1.79274e-05
-1.62764e-05
-1.4769e-05
-1.33927e-05
-1.21364e-05
-1.09895e-05
-9.94298e-06
-8.98801e-06
-8.11695e-06
-7.32247e-06
-6.59817e-06
-5.9378e-06
-5.33599e-06
-4.78738e-06
-4.28744e-06
-3.83153e-06
-3.41585e-06
-3.03631e-06
-2.68977e-06
-2.37259e-06
-2.08213e-06
-1.81516e-06
-1.56943e-06
-1.34199e-06
-1.13099e-06
-9.33485e-07
-7.48113e-07
-5.71736e-07
-4.03358e-07
-2.39839e-07
-8.0491e-08
0.000413055
0.000387687
0.000356094
0.000313328
0.000262413
0.000210352
0.000160427
0.000110743
5.94934e-05
9.57441e-06
-3.39976e-05
-7.02909e-05
-0.000102313
-0.000131521
-0.000156445
-0.000175848
-0.000190981
-0.000204666
-0.000217619
-0.000227513
-0.00023391
-0.000239805
-0.00024596
-0.000249854
-0.000251357
-0.000252793
-0.000254082
-0.000253603
-0.000251859
-0.000250029
-0.000247588
-0.000243892
-0.000239498
-0.000234724
-0.000229117
-0.000222616
-0.000215663
-0.000208306
-0.000200277
-0.000191651
-0.000182745
-0.000173667
-0.000164377
-0.00015496
-0.000145602
-0.000136419
-0.000127454
-0.000118759
-0.0001104
-0.000102423
-9.48438e-05
-8.76706e-05
-8.0908e-05
-7.45546e-05
-6.8602e-05
-6.30382e-05
-5.78498e-05
-5.30228e-05
-4.85419e-05
-4.43914e-05
-4.05553e-05
-3.70176e-05
-3.37615e-05
-3.07702e-05
-2.80263e-05
-2.55127e-05
-2.32124e-05
-2.11089e-05
-1.91863e-05
-1.74297e-05
-1.58252e-05
-1.43598e-05
-1.30217e-05
-1.18002e-05
-1.0685e-05
-9.66745e-06
-8.73893e-06
-7.89203e-06
-7.11963e-06
-6.41548e-06
-5.77351e-06
-5.18849e-06
-4.6552e-06
-4.16924e-06
-3.72608e-06
-3.32204e-06
-2.95314e-06
-2.61631e-06
-2.30802e-06
-2.0257e-06
-1.7662e-06
-1.52734e-06
-1.30622e-06
-1.10106e-06
-9.08987e-07
-7.28634e-07
-5.56997e-07
-3.93022e-07
-2.33731e-07
-7.84564e-08
0.000374916
0.000351365
0.000324242
0.000287481
0.000242385
0.000195717
0.000151635
0.000108631
6.3965e-05
1.90493e-05
-2.12699e-05
-5.49189e-05
-8.45478e-05
-0.000112232
-0.000136663
-0.000156179
-0.000171383
-0.000184743
-0.000197665
-0.000208312
-0.000215243
-0.000220944
-0.000227258
-0.000231944
-0.000233838
-0.000235239
-0.000236895
-0.000237011
-0.00023552
-0.000233879
-0.000231896
-0.000228656
-0.00022458
-0.000220239
-0.00021521
-0.00020924
-0.000202788
-0.00019605
-0.000188727
-0.000180783
-0.000172546
-0.000164183
-0.000155633
-0.000146931
-0.000138249
-0.000129715
-0.000121368
-0.000113246
-0.000105411
-9.79133e-05
-9.07727e-05
-8.39978e-05
-7.75958e-05
-7.15687e-05
-6.59116e-05
-6.06154e-05
-5.56692e-05
-5.10611e-05
-4.67779e-05
-4.28058e-05
-3.91301e-05
-3.57361e-05
-3.26086e-05
-2.9732e-05
-2.70904e-05
-2.4668e-05
-2.24491e-05
-2.04183e-05
-1.8561e-05
-1.68631e-05
-1.53116e-05
-1.38943e-05
-1.25998e-05
-1.14179e-05
-1.0339e-05
-9.35435e-06
-8.45593e-06
-7.63651e-06
-6.88919e-06
-6.20792e-06
-5.58684e-06
-5.02086e-06
-4.50496e-06
-4.03484e-06
-3.60615e-06
-3.21529e-06
-2.85844e-06
-2.53261e-06
-2.2344e-06
-1.96129e-06
-1.71026e-06
-1.47918e-06
-1.26524e-06
-1.06672e-06
-8.80811e-07
-7.06179e-07
-5.39954e-07
-3.81052e-07
-2.2664e-07
-7.6085e-08
0.000339858
0.000317333
0.000293858
0.000262832
0.000223412
0.000181418
0.000141995
0.000104628
6.61047e-05
2.62498e-05
-1.08844e-05
-4.2171e-05
-6.92924e-05
-9.4929e-05
-0.000118444
-0.000137849
-0.000153027
-0.000165933
-0.0001784
-0.000189444
-0.000197045
-0.000202601
-0.000208675
-0.000213969
-0.000216453
-0.000217779
-0.000219553
-0.000220284
-0.000219157
-0.000217599
-0.000215989
-0.000213289
-0.000209561
-0.000205575
-0.000201115
-0.000195715
-0.000189735
-0.000183554
-0.000176931
-0.000169684
-0.000162096
-0.000154411
-0.000146586
-0.000138592
-0.000130572
-0.000122674
-0.00011494
-0.000107394
-0.000100089
-9.30791e-05
-8.63885e-05
-8.0026e-05
-7.39996e-05
-6.83144e-05
-6.29688e-05
-5.7956e-05
-5.32674e-05
-4.88932e-05
-4.48222e-05
-4.10421e-05
-3.754e-05
-3.43024e-05
-3.13156e-05
-2.85652e-05
-2.60368e-05
-2.37158e-05
-2.15878e-05
-1.96387e-05
-1.78548e-05
-1.62233e-05
-1.47317e-05
-1.33687e-05
-1.21236e-05
-1.09866e-05
-9.94853e-06
-9.00119e-06
-8.13676e-06
-7.34833e-06
-6.6293e-06
-5.97383e-06
-5.37629e-06
-4.83177e-06
-4.33544e-06
-3.88316e-06
-3.47075e-06
-3.09474e-06
-2.75146e-06
-2.438e-06
-2.15113e-06
-1.88839e-06
-1.64689e-06
-1.42457e-06
-1.21872e-06
-1.02766e-06
-8.48723e-07
-6.80564e-07
-5.20471e-07
-3.67348e-07
-2.18519e-07
-7.33662e-08
0.000307708
0.000285714
0.000264905
0.000239014
0.000205186
0.0001676
0.000131986
9.92007e-05
6.61532e-05
3.13271e-05
-2.48606e-06
-3.16127e-05
-5.63938e-05
-7.96913e-05
-0.00010185
-0.000120841
-0.000135848
-0.000148277
-0.000160049
-0.000171032
-0.000179235
-0.000184842
-0.000190421
-0.000195949
-0.000199142
-0.000200529
-0.000202172
-0.000203378
-0.000202761
-0.000201291
-0.000199911
-0.000197765
-0.00019445
-0.000190749
-0.000186788
-0.000182001
-0.000176514
-0.000170837
-0.000164881
-0.000158347
-0.000151401
-0.000144354
-0.000137223
-0.000129928
-0.000122564
-0.000115288
-0.000108162
-0.000101194
-9.44266e-05
-8.79129e-05
-8.16828e-05
-7.5746e-05
-7.01101e-05
-6.47823e-05
-5.97639e-05
-5.50504e-05
-5.06352e-05
-4.65102e-05
-4.26662e-05
-3.90925e-05
-3.57776e-05
-3.27095e-05
-2.98758e-05
-2.72635e-05
-2.48595e-05
-2.26505e-05
-2.06234e-05
-1.87652e-05
-1.70634e-05
-1.5506e-05
-1.40817e-05
-1.27796e-05
-1.15899e-05
-1.05033e-05
-9.51107e-06
-8.60551e-06
-7.7792e-06
-7.02551e-06
-6.33816e-06
-5.71158e-06
-5.14039e-06
-4.61988e-06
-4.14545e-06
-3.71314e-06
-3.31894e-06
-2.95953e-06
-2.63142e-06
-2.33181e-06
-2.05761e-06
-1.80647e-06
-1.57563e-06
-1.3631e-06
-1.1663e-06
-9.83611e-07
-8.1249e-07
-6.51601e-07
-4.98414e-07
-3.51813e-07
-2.09314e-07
-7.03102e-08
0.000272348
0.00025107
0.00023241
0.000211507
0.000184004
0.000151719
0.000120147
9.17473e-05
6.42623e-05
3.51158e-05
5.46182e-06
-2.10985e-05
-4.34435e-05
-6.39706e-05
-8.40621e-05
-0.000102133
-0.000116744
-0.000128608
-0.00013947
-0.000149922
-0.00015849
-0.000164326
-0.000169336
-0.000174691
-0.000178579
-0.000180272
-0.000181657
-0.000183128
-0.000183173
-0.000181948
-0.000180698
-0.000179079
-0.000176324
-0.000172972
-0.000169509
-0.000165453
-0.000160618
-0.00015551
-0.000150266
-0.000144558
-0.000138381
-0.000132063
-0.000125715
-0.000119237
-0.00011265
-0.000106106
-9.96909e-05
-9.34106e-05
-8.72872e-05
-8.13716e-05
-7.56996e-05
-7.02828e-05
-6.51277e-05
-6.02426e-05
-5.56315e-05
-5.12925e-05
-4.72208e-05
-4.34105e-05
-3.98541e-05
-3.6543e-05
-3.34673e-05
-3.06167e-05
-2.79803e-05
-2.55468e-05
-2.33045e-05
-2.12418e-05
-1.93469e-05
-1.76083e-05
-1.60147e-05
-1.45554e-05
-1.322e-05
-1.19987e-05
-1.08824e-05
-9.86261e-06
-8.93128e-06
-8.08115e-06
-7.30536e-06
-6.59773e-06
-5.95237e-06
-5.36405e-06
-4.82776e-06
-4.33905e-06
-3.89361e-06
-3.48772e-06
-3.11762e-06
-2.78018e-06
-2.47213e-06
-2.19084e-06
-1.93341e-06
-1.69762e-06
-1.48088e-06
-1.28131e-06
-1.09651e-06
-9.24893e-07
-7.64142e-07
-6.12914e-07
-4.68914e-07
-3.31009e-07
-1.96968e-07
-6.61766e-08
0.000233696
0.000214217
0.00019727
0.000180356
0.000159114
0.000133127
0.000106405
8.22317e-05
5.97431e-05
3.63446e-05
1.18048e-05
-1.13139e-05
-3.11397e-05
-4.88185e-05
-6.60709e-05
-8.23382e-05
-9.60937e-05
-0.000107231
-0.000117014
-0.000126405
-0.000134703
-0.000140758
-0.000145411
-0.000150168
-0.000154265
-0.000156455
-0.000157743
-0.00015915
-0.000159729
-0.000158965
-0.000157833
-0.000156594
-0.000154539
-0.000151742
-0.000148767
-0.000145433
-0.000141402
-0.000136982
-0.000132472
-0.000127667
-0.000122423
-0.000116968
-0.000111489
-0.00010593
-0.000100255
-9.45705e-05
-8.89817e-05
-8.35075e-05
-7.81553e-05
-7.29632e-05
-6.79693e-05
-6.31893e-05
-5.86292e-05
-5.42964e-05
-5.01968e-05
-4.63312e-05
-4.26967e-05
-3.9289e-05
-3.61027e-05
-3.31312e-05
-3.03665e-05
-2.78002e-05
-2.54231e-05
-2.32258e-05
-2.11984e-05
-1.93309e-05
-1.76133e-05
-1.60357e-05
-1.45883e-05
-1.32618e-05
-1.20471e-05
-1.09356e-05
-9.91921e-06
-8.99034e-06
-8.14185e-06
-7.36721e-06
-6.66021e-06
-6.01527e-06
-5.42706e-06
-4.89083e-06
-4.402e-06
-3.95654e-06
-3.55054e-06
-3.18057e-06
-2.84323e-06
-2.53567e-06
-2.2549e-06
-1.9985e-06
-1.76386e-06
-1.54893e-06
-1.35136e-06
-1.16942e-06
-1.00093e-06
-8.44416e-07
-6.9779e-07
-5.5978e-07
-4.28334e-07
-3.02384e-07
-1.79945e-07
-6.04458e-08
0.000194878
0.000178387
0.000163162
0.000148975
0.000132798
0.000113033
9.16103e-05
7.14443e-05
5.30216e-05
3.46228e-05
1.524e-05
-3.88832e-06
-2.09349e-05
-3.59305e-05
-5.02552e-05
-6.41045e-05
-7.63079e-05
-8.63593e-05
-9.50454e-05
-0.000103207
-0.000110622
-0.000116455
-0.000120867
-0.000124967
-0.000128773
-0.000131271
-0.000132606
-0.000133755
-0.000134546
-0.000134325
-0.000133478
-0.000132499
-0.000131029
-0.000128844
-0.000126335
-0.000123618
-0.000120418
-0.00011679
-0.000113019
-0.000109076
-0.000104793
-0.000100258
-9.56622e-05
-9.10251e-05
-8.6297e-05
-8.1528e-05
-7.6813e-05
-7.21908e-05
-6.76657e-05
-6.32602e-05
-5.90078e-05
-5.49282e-05
-5.10281e-05
-4.73135e-05
-4.37905e-05
-4.04617e-05
-3.73258e-05
-3.43802e-05
-3.16211e-05
-2.90435e-05
-2.66415e-05
-2.44083e-05
-2.23366e-05
-2.04187e-05
-1.86467e-05
-1.70123e-05
-1.55073e-05
-1.41234e-05
-1.28525e-05
-1.16867e-05
-1.06183e-05
-9.64022e-06
-8.74532e-06
-7.92716e-06
-7.17957e-06