/*--------------------------------*- C++ -*----------------------------------*\
| =========                 |                                                 |
| \\      /  F ield         | OpenFOAM: The Open Source CFD Toolbox           |
|  \\    /   O peration     | Version:  2.3.0                                 |
|   \\  /    A nd           | Web:      www.OpenFOAM.org                      |
|    \\/     M anipulation  |                                                 |
\*---------------------------------------------------------------------------*/
FoamFile
{
    version     2.0;
    format      ascii;
    class       surfaceScalarField;
    location    "0.15";
    object      phi;
}
// * * * * * * * * * * * * * * * * * * * * * * * * * * * * * * * * * * * * * //

dimensions      [0 3 -1 0 0 0 0];

internalField   nonuniform List<scalar> 
6068
(
2.90544e-08
2.77082e-09
-3.18253e-08
2.56427e-08
3.41176e-09
2.22791e-08
3.36355e-09
1.91685e-08
3.11061e-09
1.6312e-08
2.85649e-09
1.37771e-08
2.53497e-09
1.16682e-08
2.10885e-09
1.00225e-08
1.64573e-09
8.81401e-09
1.20848e-09
7.95902e-09
8.54986e-10
7.36102e-09
5.98002e-10
6.93882e-09
4.22196e-10
6.62886e-09
3.09958e-10
6.38487e-09
2.43995e-10
6.17822e-09
2.0665e-10
5.99417e-09
1.84045e-10
5.82499e-09
1.69182e-10
5.66661e-09
1.5838e-10
5.51781e-09
1.48797e-10
5.37891e-09
1.38906e-10
5.25026e-09
1.28644e-10
5.13169e-09
1.18578e-10
5.02261e-09
1.09077e-10
4.9225e-09
1.00111e-10
4.83091e-09
9.15926e-11
4.74732e-09
8.3587e-11
4.67123e-09
7.60876e-11
4.60235e-09
6.88826e-11
4.54049e-09
6.18586e-11
4.48531e-09
5.51787e-11
4.43636e-09
4.89552e-11
4.39335e-09
4.30044e-11
4.35626e-09
3.70935e-11
4.32503e-09
3.12236e-11
4.29955e-09
2.54887e-11
4.27968e-09
1.98626e-11
4.26539e-09
1.42901e-11
4.25653e-09
8.86356e-12
4.25288e-09
3.64675e-12
4.25379e-09
-9.08244e-13
4.25851e-09
-4.71896e-12
4.26604e-09
-7.52647e-12
4.27552e-09
-9.48704e-12
4.28593e-09
-1.04109e-11
4.2966e-09
-1.06662e-11
4.30697e-09
-1.03689e-11
4.31668e-09
-9.71087e-12
4.32559e-09
-8.91199e-12
4.33368e-09
-8.09201e-12
4.34099e-09
-7.30671e-12
4.34758e-09
-6.58944e-12
4.35353e-09
-5.95102e-12
4.35892e-09
-5.38524e-12
4.3638e-09
-4.88591e-12
4.36825e-09
-4.44288e-12
4.37229e-09
-4.04607e-12
4.37598e-09
-3.68569e-12
4.37933e-09
-3.35362e-12
4.38237e-09
-3.04281e-12
4.38512e-09
-2.75066e-12
4.3876e-09
-2.47632e-12
4.38982e-09
-2.22193e-12
4.39181e-09
-1.98921e-12
4.39359e-09
-1.78031e-12
4.39519e-09
-1.59536e-12
4.39662e-09
-1.43359e-12
4.39791e-09
-1.29271e-12
4.39908e-09
-1.1703e-12
4.40015e-09
-1.06324e-12
4.40112e-09
-9.68854e-13
4.402e-09
-8.84841e-13
4.40281e-09
-8.09186e-13
4.40355e-09
-7.40696e-13
4.40423e-09
-6.77936e-13
4.40485e-09
-6.2063e-13
4.40542e-09
-5.67527e-13
4.40594e-09
-5.19051e-13
4.40641e-09
-4.73766e-13
4.40684e-09
-4.32622e-13
4.40724e-09
-3.93924e-13
4.4076e-09
-3.59081e-13
4.40792e-09
-3.25923e-13
4.40822e-09
-2.96518e-13
4.40849e-09
-2.68043e-13
4.40873e-09
-2.43317e-13
4.40895e-09
-2.18748e-13
4.40915e-09
-1.98069e-13
4.40932e-09
-1.76599e-13
4.40948e-09
-1.59644e-13
4.40962e-09
-1.40262e-13
4.40975e-09
-1.27079e-13
4.40986e-09
-1.08729e-13
4.40996e-09
-9.89995e-14
4.41004e-09
-8.22057e-14
4.41011e-09
-7.33436e-14
4.41017e-09
-6.07999e-14
4.41023e-09
-5.1342e-14
4.41027e-09
-4.06434e-14
4.4103e-09
-3.50288e-14
-2.90569e-14
3.43273e-08
2.51014e-09
-3.40666e-08
3.41611e-08
3.57804e-09
3.35019e-08
4.02273e-09
3.25816e-08
4.03085e-09
3.14974e-08
3.94074e-09
3.02563e-08
3.77607e-09
2.88802e-08
3.48496e-09
2.74455e-08
3.08039e-09
2.60338e-08
2.62021e-09
2.47079e-08
2.18089e-09
2.34977e-08
1.80815e-09
2.24074e-08
1.51246e-09
2.143e-08
1.28744e-09
2.05574e-08
1.11658e-09
1.97785e-08
9.85493e-10
1.90829e-08
8.79713e-10
1.84595e-08
7.92529e-10
1.78979e-08
7.19971e-10
1.73894e-08
6.57352e-10
1.69271e-08
6.01154e-10
1.65056e-08
5.50132e-10
1.61201e-08
5.04066e-10
1.57668e-08
4.62413e-10
1.54428e-08
4.24167e-10
1.51458e-08
3.88552e-10
1.48741e-08
3.55291e-10
1.46261e-08
3.24045e-10
1.44008e-08
2.94233e-10
1.41971e-08
2.6552e-10
1.40142e-08
2.38117e-10
1.3851e-08
2.12137e-10
1.37068e-08
1.87161e-10
1.35812e-08
1.62696e-10
1.34737e-08
1.38732e-10
1.33837e-08
1.15472e-10
1.33107e-08
9.29506e-11
1.32538e-08
7.11476e-11
1.32123e-08
5.04117e-11
1.31847e-08
3.12299e-11
1.31697e-08
1.41125e-11
1.3165e-08
-3.45409e-14
1.31683e-08
-1.0908e-11
1.31777e-08
-1.8869e-11
1.31909e-08
-2.35396e-11
1.32061e-08
-2.59281e-11
1.32222e-08
-2.64306e-11
1.32381e-08
-2.56494e-11
1.32534e-08
-2.42212e-11
1.32679e-08
-2.25175e-11
1.32813e-08
-2.07443e-11
1.32937e-08
-1.90317e-11
1.33052e-08
-1.74361e-11
1.33158e-08
-1.59618e-11
1.33255e-08
-1.4607e-11
1.33344e-08
-1.33554e-11
1.33426e-08
-1.21904e-11
1.335e-08
-1.10974e-11
1.33567e-08
-1.00663e-11
1.33627e-08
-9.09e-12
1.33682e-08
-8.17133e-12
1.3373e-08
-7.31471e-12
1.33773e-08
-6.5292e-12
1.33811e-08
-5.82018e-12
1.33846e-08
-5.19183e-12
1.33876e-08
-4.6418e-12
1.33903e-08
-4.16532e-12
1.33928e-08
-3.75321e-12
1.3395e-08
-3.39703e-12
1.3397e-08
-3.08632e-12
1.33989e-08
-2.81322e-12
1.34006e-08
-2.57001e-12
1.34021e-08
-2.35157e-12
1.34035e-08
-2.15337e-12
1.34048e-08
-1.9724e-12
1.3406e-08
-1.80647e-12
1.34071e-08
-1.65354e-12
1.34081e-08
-1.513e-12
1.3409e-08
-1.38271e-12
1.34098e-08
-1.26322e-12
1.34106e-08
-1.15193e-12
1.34113e-08
-1.05045e-12
1.34119e-08
-9.55178e-13
1.34125e-08
-8.69195e-13
1.3413e-08
-7.87451e-13
1.34135e-08
-7.1479e-13
1.34139e-08
-6.44327e-13
1.34143e-08
-5.8315e-13
1.34146e-08
-5.21777e-13
1.34149e-08
-4.70894e-13
1.34152e-08
-4.16098e-13
1.34155e-08
-3.75218e-13
1.34157e-08
-3.24146e-13
1.34159e-08
-2.92981e-13
1.3416e-08
-2.44956e-13
1.34162e-08
-2.19742e-13
1.34163e-08
-1.78531e-13
1.34164e-08
-1.55916e-13
1.34165e-08
-1.18086e-13
1.34166e-08
-1.04357e-13
-8.03357e-14
3.58601e-08
2.38762e-09
-3.57376e-08
3.62397e-08
3.19841e-09
3.64729e-08
3.78954e-09
3.65386e-08
3.96518e-09
3.65042e-08
3.97513e-09
3.63557e-08
3.92452e-09
3.60514e-08
3.78931e-09
3.55869e-08
3.5449e-09
3.49911e-08
3.21601e-09
3.43125e-08
2.85951e-09
3.35964e-08
2.52423e-09
3.28732e-08
2.23564e-09
3.21593e-08
2.0014e-09
3.14602e-08
1.81569e-09
3.07791e-08
1.66661e-09
3.01173e-08
1.54151e-09
2.94769e-08
1.43292e-09
2.88611e-08
1.3357e-09
2.82732e-08
1.24531e-09
2.77146e-08
1.15975e-09
2.71849e-08
1.0798e-09
2.66824e-08
1.00657e-09
2.62054e-08
9.39444e-10
2.57531e-08
8.76479e-10
2.53256e-08
8.16035e-10
2.49234e-08
7.57451e-10
2.45472e-08
7.00286e-10
2.41973e-08
6.44155e-10
2.38736e-08
5.89152e-10
2.35759e-08
5.35846e-10
2.33036e-08
4.84407e-10
2.30566e-08
4.3423e-10
2.28346e-08
3.84687e-10
2.26374e-08
3.35863e-10
2.24647e-08
2.88204e-10
2.23158e-08
2.41896e-10
2.21898e-08
1.97119e-10
2.20858e-08
1.54455e-10
2.20022e-08
1.14834e-10
2.19372e-08
7.90625e-11
2.1889e-08
4.81477e-11
2.18554e-08
2.26892e-11
2.18338e-08
2.77193e-12
2.18214e-08
-1.11268e-11
2.18161e-08
-2.06815e-11
2.1816e-08
-2.63543e-11
2.18195e-08
-2.91332e-11
2.18254e-08
-3.0128e-11
2.18329e-08
-3.0003e-11
2.18414e-08
-2.92118e-11
2.18504e-08
-2.80751e-11
2.18598e-08
-2.67698e-11
2.18692e-08
-2.53715e-11
2.18785e-08
-2.39306e-11
2.18876e-08
-2.24526e-11
2.18963e-08
-2.09339e-11
2.19046e-08
-1.93723e-11
2.19123e-08
-1.77743e-11
2.19194e-08
-1.61564e-11
2.19258e-08
-1.4554e-11
2.19315e-08
-1.30049e-11
2.19365e-08
-1.15517e-11
2.19409e-08
-1.02244e-11
2.19447e-08
-9.0446e-12
2.19481e-08
-8.01594e-12
2.19511e-08
-7.1334e-12
2.19537e-08
-6.38006e-12
2.19561e-08
-5.7395e-12
2.19582e-08
-5.18937e-12
2.19601e-08
-4.71394e-12
2.19618e-08
-4.29574e-12
2.19634e-08
-3.92511e-12
2.19648e-08
-3.59095e-12
2.19661e-08
-3.28867e-12
2.19673e-08
-3.01174e-12
2.19684e-08
-2.75836e-12
2.19694e-08
-2.52476e-12
2.19704e-08
-2.3096e-12
2.19712e-08
-2.11114e-12
2.1972e-08
-1.92756e-12
2.19727e-08
-1.7588e-12
2.19733e-08
-1.60161e-12
2.19739e-08
-1.45826e-12
2.19745e-08
-1.32325e-12
2.1975e-08
-1.20171e-12
2.19754e-08
-1.08514e-12
2.19758e-08
-9.82318e-13
2.19761e-08
-8.80725e-13
2.19765e-08
-7.94398e-13
2.19768e-08
-7.03994e-13
2.1977e-08
-6.33442e-13
2.19772e-08
-5.49283e-13
2.19774e-08
-4.95283e-13
2.19776e-08
-4.13697e-13
2.19778e-08
-3.73255e-13
2.19779e-08
-2.98285e-13
2.1978e-08
-2.64478e-13
2.19781e-08
-1.95523e-13
2.19781e-08
-1.73461e-13
-1.24761e-13
3.74231e-08
2.33976e-09
-3.73753e-08
3.7709e-08
2.91252e-09
3.80535e-08
3.44508e-09
3.83226e-08
3.6961e-09
3.85438e-08
3.75395e-09
3.87309e-08
3.73739e-09
3.88529e-08
3.66735e-09
3.88757e-08
3.52201e-09
3.87876e-08
3.30418e-09
3.86032e-08
3.0439e-09
3.83504e-08
2.77697e-09
3.80559e-08
2.53016e-09
3.77374e-08
2.31992e-09
3.74037e-08
2.14942e-09
3.70585e-08
2.01178e-09
3.67018e-08
1.89822e-09
3.63332e-08
1.80149e-09
3.59549e-08
1.71403e-09
3.55713e-08
1.62889e-09
3.51879e-08
1.54317e-09
3.48092e-08
1.45848e-09
3.44377e-08
1.3781e-09
3.40732e-08
1.30392e-09
3.37142e-08
1.23551e-09
3.33594e-08
1.17077e-09
3.30099e-08
1.10695e-09
3.26688e-08
1.04143e-09
3.23397e-08
9.73234e-10
3.20251e-08
9.0373e-10
3.17259e-08
8.35098e-10
3.14422e-08
7.68085e-10
3.11748e-08
7.01645e-10
3.09248e-08
6.34655e-10
3.06935e-08
5.67246e-10
3.04814e-08
5.00222e-10
3.02891e-08
4.34238e-10
3.01163e-08
3.69876e-10
2.99627e-08
3.08051e-10
2.98278e-08
2.49764e-10
2.97109e-08
1.95948e-10
2.96112e-08
1.47851e-10
2.95274e-08
1.06538e-10
2.94578e-08
7.23861e-11
2.94011e-08
4.55041e-11
2.93557e-08
2.47917e-11
2.93198e-08
9.53052e-12
2.92919e-08
-1.21705e-12
2.92707e-08
-8.92656e-12
2.9255e-08
-1.43661e-11
2.9244e-08
-1.81545e-11
2.92367e-08
-2.07813e-11
2.92324e-08
-2.25515e-11
2.92307e-08
-2.36637e-11
2.92311e-08
-2.42817e-11
2.92331e-08
-2.44683e-11
2.92364e-08
-2.4248e-11
2.92407e-08
-2.36247e-11
2.92455e-08
-2.26079e-11
2.92506e-08
-2.12309e-11
2.92556e-08
-1.95724e-11
2.92603e-08
-1.77341e-11
2.92646e-08
-1.58371e-11
2.92684e-08
-1.39866e-11
2.92716e-08
-1.22713e-11
2.92743e-08
-1.07398e-11
2.92766e-08
-9.41612e-12
2.92785e-08
-8.29223e-12
2.92801e-08
-7.35339e-12
2.92815e-08
-6.56578e-12
2.92827e-08
-5.90557e-12
2.92837e-08
-5.34074e-12
2.92847e-08
-4.85488e-12
2.92855e-08
-4.4255e-12
2.92863e-08
-4.04537e-12
2.9287e-08
-3.70028e-12
2.92876e-08
-3.3889e-12
2.92882e-08
-3.10206e-12
2.92887e-08
-2.84033e-12
2.92892e-08
-2.598e-12
2.92896e-08
-2.37539e-12
2.929e-08
-2.16942e-12
2.92904e-08
-1.97868e-12
2.92908e-08
-1.80336e-12
2.92911e-08
-1.63901e-12
2.92914e-08
-1.48978e-12
2.92916e-08
-1.34722e-12
2.92919e-08
-1.22012e-12
2.92921e-08
-1.09543e-12
2.92923e-08
-9.8734e-13
2.92924e-08
-8.763e-13
2.92926e-08
-7.86474e-13
2.92927e-08
-6.81947e-13
2.92928e-08
-6.1384e-13
2.92929e-08
-5.08158e-13
2.9293e-08
-4.60349e-13
2.92931e-08
-3.59553e-13
2.92931e-08
-3.19123e-13
2.92932e-08
-2.28621e-13
2.92932e-08
-2.01866e-13
-1.27099e-13
3.90393e-08
2.28657e-09
-3.89861e-08
3.92362e-08
2.71555e-09
3.95366e-08
3.1447e-09
3.98163e-08
3.41637e-09
4.00563e-08
3.51397e-09
4.02782e-08
3.51548e-09
4.04792e-08
3.4664e-09
4.06349e-08
3.36625e-09
4.0725e-08
3.2141e-09
4.07465e-08
3.0224e-09
4.07124e-08
2.81105e-09
4.064e-08
2.60257e-09
4.05434e-08
2.41657e-09
4.04319e-08
2.2609e-09
4.031e-08
2.13364e-09
4.01774e-08
2.0309e-09
4.00312e-08
1.94765e-09
3.98702e-08
1.87503e-09
3.96957e-08
1.80334e-09
3.95112e-08
1.72772e-09
3.93205e-08
1.64914e-09
3.91274e-08
1.57121e-09
3.89341e-08
1.49725e-09
3.874e-08
1.42958e-09
3.85421e-08
1.36868e-09
3.83375e-08
1.31155e-09
3.81267e-08
1.25224e-09
3.79137e-08
1.18627e-09
3.77029e-08
1.11445e-09
3.74968e-08
1.04121e-09
3.72954e-08
9.6953e-10
3.70983e-08
8.98743e-10
3.69062e-08
8.26731e-10
3.67208e-08
7.52646e-10
3.65439e-08
6.77189e-10
3.63764e-08
6.01669e-10
3.62188e-08
5.27446e-10
3.60712e-08
4.55689e-10
3.59337e-08
3.87278e-10
3.58065e-08
3.23101e-10
3.56899e-08
2.64446e-10
3.55841e-08
2.12436e-10
3.54888e-08
1.67634e-10
3.54041e-08
1.30215e-10
3.53293e-08
9.95588e-11
3.52638e-08
7.50115e-11
3.52071e-08
5.5532e-11
3.51584e-08
3.98053e-11
3.5117e-08
2.6997e-11
3.50823e-08
1.65679e-11
3.50535e-08
7.99658e-12
3.50299e-08
1.01069e-12
3.50109e-08
-4.64336e-12
3.49959e-08
-9.25841e-12
3.49844e-08
-1.29858e-11
3.49761e-08
-1.59127e-11
3.49705e-08
-1.80474e-11
3.49673e-08
-1.93586e-11
3.49658e-08
-1.9828e-11
3.49658e-08
-1.95081e-11
3.49666e-08
-1.85173e-11
3.49678e-08
-1.70436e-11
3.49691e-08
-1.52859e-11
3.49702e-08
-1.3445e-11
3.49712e-08
-1.16666e-11
3.49718e-08
-1.00567e-11
3.49722e-08
-8.65856e-12
3.49723e-08
-7.49123e-12
3.49723e-08
-6.52726e-12
3.49721e-08
-5.74614e-12
3.49719e-08
-5.10385e-12
3.49716e-08
-4.57813e-12
3.49713e-08
-4.13216e-12
3.4971e-08
-3.75471e-12
3.49707e-08
-3.42089e-12
3.49705e-08
-3.12905e-12
3.49702e-08
-2.86253e-12
3.497e-08
-2.62418e-12
3.49698e-08
-2.40292e-12
3.49697e-08
-2.20219e-12
3.49695e-08
-2.01486e-12
3.49694e-08
-1.84269e-12
3.49692e-08
-1.68269e-12
3.49691e-08
-1.53321e-12
3.4969e-08
-1.39584e-12
3.4969e-08
-1.26475e-12
3.49689e-08
-1.14595e-12
3.49688e-08
-1.03014e-12
3.49688e-08
-9.26526e-13
3.49687e-08
-8.2236e-13
3.49687e-08
-7.34239e-13
3.49686e-08
-6.32604e-13
3.49686e-08
-5.67375e-13
3.49685e-08
-4.57542e-13
3.49685e-08
-4.14476e-13
3.49684e-08
-3.07087e-13
3.49684e-08
-2.67383e-13
3.49683e-08
-1.72772e-13
3.49683e-08
-1.47772e-13
-5.58526e-14
4.06748e-08
2.2188e-09
-4.0607e-08
4.08263e-08
2.56401e-09
4.10677e-08
2.90327e-09
4.13215e-08
3.16261e-09
4.15474e-08
3.28805e-09
4.1751e-08
3.31185e-09
4.19408e-08
3.27664e-09
4.21075e-08
3.19951e-09
4.22364e-08
3.08527e-09
4.23202e-08
2.93864e-09
4.23629e-08
2.7683e-09
4.23746e-08
2.59086e-09
4.23656e-08
2.42557e-09
4.23443e-08
2.28217e-09
4.23163e-08
2.16167e-09
4.22831e-08
2.06407e-09
4.22434e-08
1.98744e-09
4.21949e-08
1.92351e-09
4.21371e-08
1.86112e-09
4.2071e-08
1.79382e-09
4.19982e-08
1.72194e-09
4.19208e-08
1.64857e-09
4.18416e-08
1.57648e-09
4.17621e-08
1.50909e-09
4.16807e-08
1.45009e-09
4.15932e-08
1.39897e-09
4.14969e-08
1.34854e-09
4.1393e-08
1.29025e-09
4.12853e-08
1.22213e-09
4.11771e-08
1.14934e-09
4.10691e-08
1.07753e-09
4.09601e-08
1.00775e-09
4.08494e-08
9.37514e-10
4.07375e-08
8.6454e-10
4.0626e-08
7.8866e-10
4.05162e-08
7.11454e-10
4.04086e-08
6.35063e-10
4.03032e-08
5.61108e-10
4.02e-08
4.90449e-10
4.00994e-08
4.23718e-10
4.00019e-08
3.61895e-10
3.99084e-08
3.0595e-10
3.98196e-08
2.56459e-10
3.97361e-08
2.13681e-10
3.96584e-08
1.77305e-10
3.95866e-08
1.4678e-10
3.95209e-08
1.21207e-10
3.94613e-08
9.94267e-11
3.94077e-08
8.06089e-11
3.936e-08
6.42539e-11
3.9318e-08
5.00269e-11
3.92812e-08
3.77621e-11
3.92493e-08
2.72817e-11
3.92217e-08
1.83083e-11
3.91982e-08
1.05879e-11
3.91783e-08
3.9398e-12
3.9162e-08
-1.69908e-12
3.91489e-08
-6.27138e-12
3.91387e-08
-9.67902e-12
3.91311e-08
-1.1875e-11
3.91255e-08
-1.29012e-11
3.91214e-08
-1.29292e-11
3.91183e-08
-1.21901e-11
3.91158e-08
-1.09744e-11
3.91137e-08
-9.52652e-12
3.91117e-08
-8.05823e-12
3.91097e-08
-6.69877e-12
3.91077e-08
-5.53434e-12
3.91058e-08
-4.57177e-12
3.91039e-08
-3.81603e-12
3.9102e-08
-3.22415e-12
3.91002e-08
-2.77663e-12
3.90985e-08
-2.42578e-12
3.90969e-08
-2.15825e-12
3.90954e-08
-1.93819e-12
3.9094e-08
-1.7637e-12
3.90928e-08
-1.60964e-12
3.90916e-08
-1.48153e-12
3.90906e-08
-1.36191e-12
3.90897e-08
-1.25839e-12
3.90888e-08
-1.15873e-12
3.9088e-08
-1.0695e-12
3.90873e-08
-9.83125e-13
3.90867e-08
-9.03165e-13
3.90861e-08
-8.26332e-13
3.90856e-08
-7.53006e-13
3.90851e-08
-6.82765e-13
3.90847e-08
-6.14953e-13
3.90844e-08
-5.48941e-13
3.9084e-08
-4.84544e-13
3.90837e-08
-4.25288e-13
3.90834e-08
-3.54492e-13
3.90832e-08
-3.13004e-13
3.90829e-08
-2.25015e-13
3.90827e-08
-2.00045e-13
3.90825e-08
-1.10782e-13
3.90823e-08
-8.10373e-14
3.90822e-08
-2.61064e-15
3.9082e-08
1.52761e-14
1.04324e-13
4.23334e-08
2.14295e-09
-4.22575e-08
4.24627e-08
2.43468e-09
4.26567e-08
2.70931e-09
4.28783e-08
2.94098e-09
4.30872e-08
3.07917e-09
4.32739e-08
3.12519e-09
4.34441e-08
3.10639e-09
4.35979e-08
3.04567e-09
4.3728e-08
2.95516e-09
4.38278e-08
2.83893e-09
4.38962e-08
2.6998e-09
4.39382e-08
2.54888e-09
4.39608e-08
2.40302e-09
4.39707e-08
2.27229e-09
4.39735e-08
2.15884e-09
4.39729e-08
2.06462e-09
4.397e-08
1.9904e-09
4.39637e-08
1.92977e-09
4.39532e-08
1.87163e-09
4.39382e-08
1.80886e-09
4.39186e-08
1.74153e-09
4.38947e-08
1.67245e-09
4.38679e-08
1.60323e-09
4.38407e-08
1.53634e-09
4.38138e-08
1.47695e-09
4.37852e-08
1.42757e-09
4.37515e-08
1.38225e-09
4.37114e-08
1.33043e-09
4.36664e-08
1.26712e-09
4.36192e-08
1.19651e-09
4.3571e-08
1.1257e-09
4.35212e-08
1.05761e-09
4.34684e-08
9.9028e-10
4.34123e-08
9.20586e-10
4.33536e-08
8.47383e-10
4.3293e-08
7.72035e-10
4.3231e-08
6.97142e-10
4.31673e-08
6.24787e-10
4.31018e-08
5.55886e-10
4.30347e-08
4.90847e-10
4.29663e-08
4.30319e-10
4.28972e-08
3.74992e-10
4.28285e-08
3.25246e-10
4.27609e-08
2.81253e-10
4.26953e-08
2.42864e-10
4.26324e-08
2.09687e-10
4.25726e-08
1.80996e-10
4.25163e-08
1.55787e-10
4.24636e-08
1.33235e-10
4.2415e-08
1.12862e-10
4.23706e-08
9.44855e-11
4.23302e-08
7.80968e-11
4.22938e-08
6.36811e-11
4.22611e-08
5.1056e-11
4.22317e-08
3.99494e-11
4.22056e-08
3.00903e-11
4.21826e-08
2.13335e-11
4.21626e-08
1.37056e-11
4.21456e-08
7.33986e-12
4.21313e-08
2.3735e-12
4.21195e-08
-1.12353e-12
4.21098e-08
-3.24613e-12
4.21018e-08
-4.18087e-12
4.20951e-08
-4.24145e-12
4.20893e-08
-3.72328e-12
4.20842e-08
-2.91248e-12
4.20795e-08
-2.02182e-12
4.20752e-08
-1.20635e-12
4.20711e-08
-5.2201e-13
4.20673e-08
-1.50391e-14
4.20637e-08
3.42908e-13
4.20604e-08
5.56887e-13
4.20573e-08
6.7765e-13
4.20544e-08
7.14532e-13
4.20518e-08
7.11539e-13
4.20493e-08
6.68357e-13
4.20471e-08
6.17505e-13
4.20451e-08
5.49825e-13
4.20432e-08
4.89314e-13
4.20416e-08
4.22625e-13
4.204e-08
3.68231e-13
4.20386e-08
3.12564e-13
4.20374e-08
2.69606e-13
4.20363e-08
2.27667e-13
4.20352e-08
1.97565e-13
4.20343e-08
1.68965e-13
4.20335e-08
1.52132e-13
4.20327e-08
1.35053e-13
4.2032e-08
1.31309e-13
4.20314e-08
1.25408e-13
4.20309e-08
1.29414e-13
4.20304e-08
1.42851e-13
4.20299e-08
1.41361e-13
4.20295e-08
1.81925e-13
4.20291e-08
1.76664e-13
4.20288e-08
2.24528e-13
4.20285e-08
2.3548e-13
4.20282e-08
2.78547e-13
4.20279e-08
2.8621e-13
3.48857e-13
4.40268e-08
2.06543e-09
-4.39493e-08
4.41432e-08
2.31827e-09
4.4304e-08
2.54848e-09
4.44951e-08
2.74988e-09
4.46856e-08
2.88872e-09
4.48595e-08
2.95128e-09
4.50159e-08
2.94996e-09
4.51571e-08
2.90451e-09
4.52811e-08
2.83112e-09
4.53836e-08
2.7365e-09
4.54615e-08
2.62186e-09
4.55162e-08
2.49419e-09
4.55522e-08
2.36697e-09
4.55749e-08
2.24966e-09
4.55888e-08
2.14487e-09
4.55984e-08
2.05506e-09
4.56064e-08
1.98241e-09
4.56135e-08
1.92264e-09
4.56191e-08
1.86602e-09
4.56224e-08
1.80561e-09
4.56225e-08
1.74138e-09
4.56189e-08
1.67605e-09
4.56117e-08
1.61043e-09
4.56025e-08
1.54553e-09
4.55935e-08
1.48599e-09
4.55851e-08
1.43596e-09
4.55756e-08
1.39172e-09
4.55629e-08
1.34312e-09
4.55464e-08
1.28364e-09
4.5527e-08
1.2159e-09
4.5506e-08
1.14675e-09
4.54836e-08
1.08002e-09
4.54592e-08
1.01461e-09
4.54323e-08
9.47518e-10
4.54025e-08
8.77161e-10
4.537e-08
8.04565e-10
4.53348e-08
7.32343e-10
4.52968e-08
6.62756e-10
4.52559e-08
5.96813e-10
4.52119e-08
5.34868e-10
4.51649e-08
4.77333e-10
4.51153e-08
4.2458e-10
4.50638e-08
3.76711e-10
4.50114e-08
3.33715e-10
4.49587e-08
2.95476e-10
4.49067e-08
2.61698e-10
4.48559e-08
2.31792e-10
4.48068e-08
2.04909e-10
4.47598e-08
1.80263e-10
4.47152e-08
1.57408e-10
4.46735e-08
1.36257e-10
4.46346e-08
1.1693e-10
4.45988e-08
9.95657e-11
4.45657e-08
8.41119e-11
4.45353e-08
7.03448e-11
4.45074e-08
5.79615e-11
4.4482e-08
4.67584e-11
4.4459e-08
3.66939e-11
4.44385e-08
2.78943e-11
4.44203e-08
2.05255e-11
4.44045e-08
1.47337e-11
4.43907e-08
1.05016e-11
4.43788e-08
7.70907e-12
4.43685e-08
6.0723e-12
4.43595e-08
5.3003e-12
4.43515e-08
5.06757e-12
4.43444e-08
5.12702e-12
4.43379e-08
5.2677e-12
4.4332e-08
5.39322e-12
4.43265e-08
5.41773e-12
4.43215e-08
5.34865e-12
4.43169e-08
5.1693e-12
4.43127e-08
4.92634e-12
4.43088e-08
4.61874e-12
4.43052e-08
4.29417e-12
4.43019e-08
3.94622e-12
4.42989e-08
3.61291e-12
4.42962e-08
3.27906e-12
4.42937e-08
2.97502e-12
4.42914e-08
2.67972e-12
4.42894e-08
2.41869e-12
4.42875e-08
2.1692e-12
4.42858e-08
1.95323e-12
4.42843e-08
1.74828e-12
4.42829e-08
1.57504e-12
4.42817e-08
1.41008e-12
4.42806e-08
1.2761e-12
4.42796e-08
1.14558e-12
4.42787e-08
1.04693e-12
4.42778e-08
9.47149e-13
4.42771e-08
8.75501e-13
4.42764e-08
8.10751e-13
4.42758e-08
7.51861e-13
4.42753e-08
7.24871e-13
4.42748e-08
6.80054e-13
4.42743e-08
6.68962e-13
4.42739e-08
6.53987e-13
4.42735e-08
6.46942e-13
4.42732e-08
6.42304e-13
6.59995e-13
4.5765e-08
1.98989e-09
-4.56894e-08
4.58713e-08
2.21192e-09
4.60098e-08
2.40997e-09
4.61749e-08
2.58483e-09
4.63471e-08
2.71653e-09
4.65099e-08
2.78847e-09
4.6657e-08
2.80285e-09
4.67887e-08
2.77276e-09
4.69058e-08
2.71407e-09
4.70063e-08
2.636e-09
4.70873e-08
2.54088e-09
4.71481e-08
2.4334e-09
4.71915e-08
2.32355e-09
4.72216e-08
2.2196e-09
4.72418e-08
2.12458e-09
4.72562e-08
2.04069e-09
4.72684e-08
1.97022e-09
4.72803e-08
1.91073e-09
4.72916e-08
1.8547e-09
4.73012e-08
1.79605e-09
4.73081e-08
1.73448e-09
4.73117e-08
1.67243e-09
4.73116e-08
1.61053e-09
4.73083e-08
1.54878e-09
4.73039e-08
1.49045e-09
4.73002e-08
1.43964e-09
4.72975e-08
1.39443e-09
4.7294e-08
1.34658e-09
4.72879e-08
1.28972e-09
4.72787e-08
1.2251e-09
4.72672e-08
1.15832e-09
4.72542e-08
1.09295e-09
4.72403e-08
1.0286e-09
4.72248e-08
9.63025e-10
4.7207e-08
8.94887e-10
4.71866e-08
8.24983e-10
4.71633e-08
7.5562e-10
4.71371e-08
6.88971e-10
4.71078e-08
6.26114e-10
4.70753e-08
5.67425e-10
4.70394e-08
5.13174e-10
4.70005e-08
4.63486e-10
4.6959e-08
4.18207e-10
4.69156e-08
3.77106e-10
4.68711e-08
3.39986e-10
4.68262e-08
3.06576e-10
4.67817e-08
2.76373e-10
4.67379e-08
2.48659e-10
4.66954e-08
2.22744e-10
4.66546e-08
1.98238e-10
4.66157e-08
1.7512e-10
4.65791e-08
1.53605e-10
4.65447e-08
1.3394e-10
4.65126e-08
1.16191e-10
4.64827e-08
1.00211e-10
4.6455e-08
8.57228e-11
4.64292e-08
7.2507e-11
4.64054e-08
6.04721e-11
4.63836e-08
4.97157e-11
4.63638e-08
4.03869e-11
4.63458e-08
3.26568e-11
4.63298e-08
2.6548e-11
4.63155e-08
2.19929e-11
4.63028e-08
1.87502e-11
4.62916e-08
1.65581e-11
4.62816e-08
1.50898e-11
4.62726e-08
1.40967e-11
4.62645e-08
1.33389e-11
4.62572e-08
1.26975e-11
4.62506e-08
1.20559e-11
4.62445e-08
1.14035e-11
4.6239e-08
1.07003e-11
4.62339e-08
9.98529e-12
4.62293e-08
9.24286e-12
4.62251e-08
8.52068e-12
4.62212e-08
7.80257e-12
4.62177e-08
7.13031e-12
4.62145e-08
6.48e-12
4.62116e-08
5.88806e-12
4.62089e-08
5.32368e-12
4.62065e-08
4.82006e-12
4.62044e-08
4.34338e-12
4.62024e-08
3.9249e-12
4.62006e-08
3.52916e-12
4.6199e-08
3.18851e-12
4.61975e-08
2.86403e-12
4.61962e-08
2.59282e-12
4.6195e-08
2.32969e-12
4.6194e-08
2.11953e-12
4.6193e-08
1.90988e-12
4.61921e-08
1.74937e-12
4.61914e-08
1.59224e-12
4.61906e-08
1.4666e-12
4.619e-08
1.35886e-12
4.61894e-08
1.26793e-12
4.61889e-08
1.1868e-12
4.61884e-08
1.14089e-12
4.6188e-08
1.07419e-12
4.61876e-08
1.05562e-12
1.017e-12
4.75551e-08
1.91778e-09
-4.7483e-08
4.76527e-08
2.11436e-09
4.77753e-08
2.28733e-09
4.79198e-08
2.44034e-09
4.80749e-08
2.56148e-09
4.82263e-08
2.63703e-09
4.83655e-08
2.66367e-09
4.84902e-08
2.64808e-09
4.86011e-08
2.60314e-09
4.86981e-08
2.53899e-09
4.87791e-08
2.4599e-09
4.88427e-08
2.36983e-09
4.88904e-08
2.27582e-09
4.89254e-08
2.18458e-09
4.89505e-08
2.09952e-09
4.89687e-08
2.02244e-09
4.89839e-08
1.95499e-09
4.89986e-08
1.89612e-09
4.90125e-08
1.8408e-09
4.90245e-08
1.78402e-09
4.90339e-08
1.72507e-09
4.90404e-08
1.66598e-09
4.90434e-08
1.6075e-09
4.90429e-08
1.54925e-09
4.90403e-08
1.49309e-09
4.90377e-08
1.4422e-09
4.90364e-08
1.39575e-09
4.90353e-08
1.34764e-09
4.90325e-08
1.29258e-09
4.90266e-08
1.23102e-09
4.90179e-08
1.16698e-09
4.90077e-08
1.1032e-09
4.89966e-08
1.03964e-09
4.89846e-08
9.75035e-10
4.89709e-08
9.08642e-10
4.89547e-08
8.41185e-10
4.89357e-08
7.7461e-10
4.89138e-08
7.10861e-10
4.88889e-08
6.51001e-10
4.88609e-08
5.95434e-10
4.88297e-08
5.44367e-10
4.87954e-08
4.97753e-10
4.87584e-08
4.55211e-10
4.87192e-08
4.16286e-10
4.86786e-08
3.80655e-10
4.86371e-08
3.4802e-10
4.85956e-08
3.17919e-10
4.85545e-08
2.89735e-10
4.85143e-08
2.62895e-10
4.84755e-08
2.37094e-10
4.84382e-08
2.12386e-10
4.84028e-08
1.89057e-10
4.83693e-08
1.67429e-10
4.83378e-08
1.47652e-10
4.83084e-08
1.29661e-10
4.82809e-08
1.13233e-10
4.82552e-08
9.81738e-11
4.82313e-08
8.43758e-11
4.82091e-08
7.19111e-11
4.81886e-08
6.08954e-11
4.81698e-08
5.14902e-11
4.81526e-08
4.37215e-11
4.8137e-08
3.75514e-11
4.8123e-08
3.27693e-11
4.81104e-08
2.91488e-11
4.80991e-08
2.63799e-11
4.8089e-08
2.42299e-11
4.80799e-08
2.2451e-11
4.80717e-08
2.09173e-11
4.80642e-08
1.94918e-11
4.80575e-08
1.81513e-11
4.80513e-08
1.68341e-11
4.80458e-08
1.55714e-11
4.80407e-08
1.4331e-11
4.8036e-08
1.31585e-11
4.80318e-08
1.20255e-11
4.8028e-08
1.09765e-11
4.80245e-08
9.97643e-12
4.80213e-08
9.06777e-12
4.80184e-08
8.20828e-12
4.80158e-08
7.43922e-12
4.80134e-08
6.71425e-12
4.80113e-08
6.07476e-12
4.80093e-08
5.47081e-12
4.80076e-08
4.94762e-12
4.8006e-08
4.44921e-12
4.80045e-08
4.02838e-12
4.80032e-08
3.62062e-12
4.80021e-08
3.28894e-12
4.8001e-08
2.95922e-12
4.80001e-08
2.7021e-12
4.79992e-08
2.44362e-12
4.79984e-08
2.24553e-12
4.79978e-08
2.0493e-12
4.79971e-08
1.90774e-12
4.79966e-08
1.7504e-12
4.7996e-08
1.67021e-12
4.79956e-08
1.5384e-12
4.79951e-08
1.50439e-12
1.40373e-12
4.94025e-08
1.84935e-09
-4.9334e-08
4.94923e-08
2.0245e-09
4.96027e-08
2.17691e-09
4.97311e-08
2.312e-09
4.98705e-08
2.4221e-09
5.00101e-08
2.49741e-09
5.01413e-08
2.53242e-09
5.02602e-08
2.52923e-09
5.03661e-08
2.49721e-09
5.04592e-08
2.44589e-09
5.05385e-08
2.38063e-09
5.06028e-08
2.3055e-09
5.0653e-08
2.22563e-09
5.06915e-08
2.1461e-09
5.07205e-08
2.07048e-09
5.07424e-08
2.00055e-09
5.07604e-08
1.93699e-09
5.07771e-08
1.87945e-09
5.07926e-08
1.82528e-09
5.08059e-08
1.7707e-09
5.08166e-08
1.71442e-09
5.08245e-08
1.65803e-09
5.08294e-08
1.60261e-09
5.08309e-08
1.54769e-09
5.083e-08
1.494e-09
5.08285e-08
1.44375e-09
5.08276e-08
1.39661e-09
5.0827e-08
1.34824e-09
5.0825e-08
1.29463e-09
5.08201e-08
1.23586e-09
5.08126e-08
1.17456e-09
5.08033e-08
1.11249e-09
5.07931e-08
1.04984e-09
5.07819e-08
9.86154e-10
5.07693e-08
9.21324e-10
5.07543e-08
8.56125e-10
5.07367e-08
7.92212e-10
5.07163e-08
7.3128e-10
5.0693e-08
6.74332e-10
5.06666e-08
6.21791e-10
5.06372e-08
5.73816e-10
5.06047e-08
5.30212e-10
5.05695e-08
4.90394e-10
5.05321e-08
4.53716e-10
5.0493e-08
4.19723e-10
5.0453e-08
3.88054e-10
5.04127e-08
3.58251e-10
5.03726e-08
3.29771e-10
5.03334e-08
3.02158e-10
5.02952e-08
2.75217e-10
5.02585e-08
2.49087e-10
5.02235e-08
2.24119e-10
5.01902e-08
2.0069e-10
5.01589e-08
1.79009e-10
5.01294e-08
1.59087e-10
5.01019e-08
1.40767e-10
5.00762e-08
1.23901e-10
5.00521e-08
1.08394e-10
5.00298e-08
9.43038e-11
5.00089e-08
8.17144e-11
4.99897e-08
7.07634e-11
4.99719e-08
6.14602e-11
4.99557e-08
5.37775e-11
4.99409e-08
4.7522e-11
4.99276e-08
4.24989e-11
4.99156e-08
3.84191e-11
4.99047e-08
3.50726e-11
4.98949e-08
3.22147e-11
4.98861e-08
2.97223e-11
4.98782e-08
2.7445e-11
4.9871e-08
2.53526e-11
4.98645e-08
2.33642e-11
4.98585e-08
2.15044e-11
4.98531e-08
1.97238e-11
4.98482e-08
1.80655e-11
4.98438e-08
1.64874e-11
4.98397e-08
1.50359e-11
4.9836e-08
1.36638e-11
4.98327e-08
1.24193e-11
4.98296e-08
1.12475e-11
4.98269e-08
1.0198e-11
4.98244e-08
9.21094e-12
4.98221e-08
8.33842e-12
4.98201e-08
7.515e-12
4.98182e-08
6.79954e-12
4.98165e-08
6.11788e-12
4.9815e-08
5.53954e-12
4.98137e-08
4.97936e-12
4.98124e-08
4.51995e-12
4.98113e-08
4.06343e-12
4.98103e-08
3.705e-12
4.98094e-08
3.33939e-12
4.98086e-08
3.06513e-12
4.98079e-08
2.77593e-12
4.98072e-08
2.58046e-12
4.98066e-08
2.34349e-12
4.98061e-08
2.22671e-12
4.98056e-08
2.0267e-12
4.98051e-08
1.9759e-12
1.81055e-12
5.13111e-08
1.78436e-09
-5.12461e-08
5.13942e-08
1.94142e-09
5.14945e-08
2.07664e-09
5.16096e-08
2.19683e-09
5.17352e-08
2.29658e-09
5.18632e-08
2.36932e-09
5.19862e-08
2.40945e-09
5.20992e-08
2.41627e-09
5.22005e-08
2.39591e-09
5.22898e-08
2.35659e-09
5.23667e-08
2.30371e-09
5.24308e-08
2.24142e-09
5.24824e-08
2.17398e-09
5.25234e-08
2.10515e-09
5.25555e-08
2.03832e-09
5.25806e-08
1.97551e-09
5.2601e-08
1.91656e-09
5.26194e-08
1.86104e-09
5.26363e-08
1.80843e-09
5.26506e-08
1.75641e-09
5.2662e-08
1.70293e-09
5.26711e-08
1.64901e-09
5.26774e-08
1.59632e-09
5.26806e-08
1.54445e-09
5.26814e-08
1.49319e-09
5.26812e-08
1.444e-09
5.26809e-08
1.39691e-09
5.26804e-08
1.34875e-09
5.26785e-08
1.2965e-09
5.26741e-08
1.2402e-09
5.26673e-08
1.18143e-09
5.26586e-08
1.12114e-09
5.26489e-08
1.05957e-09
5.26381e-08
9.96976e-10
5.26257e-08
9.33726e-10
5.26111e-08
8.70664e-10
5.25941e-08
8.09262e-10
5.25743e-08
7.51048e-10
5.25517e-08
6.96968e-10
5.2526e-08
6.47421e-10
5.24974e-08
6.0249e-10
5.24657e-08
5.61838e-10
5.24314e-08
5.24717e-10
5.23948e-08
4.90314e-10
5.23565e-08
4.58038e-10
5.23171e-08
4.27445e-10
5.22773e-08
3.98066e-10
5.22377e-08
3.69409e-10
5.21987e-08
3.41127e-10
5.21608e-08
3.13143e-10
5.21242e-08
2.85686e-10
5.20891e-08
2.59172e-10
5.20558e-08
2.34026e-10
5.20243e-08
2.10508e-10
5.19947e-08
1.88695e-10
5.19669e-08
1.68498e-10
5.1941e-08
1.49828e-10
5.19168e-08
1.32612e-10
5.18942e-08
1.16909e-10
5.18731e-08
1.02776e-10
5.18536e-08
9.0325e-11
5.18355e-08
7.9542e-11
5.18189e-08
7.04001e-11
5.18037e-08
6.27133e-11
5.17898e-08
5.63128e-11
5.17773e-08
5.09284e-11
5.1766e-08
4.63738e-11
5.17558e-08
4.24116e-11
5.17466e-08
3.89265e-11
5.17383e-08
3.57591e-11
5.17308e-08
3.28761e-11
5.1724e-08
3.01799e-11
5.17178e-08
2.76897e-11
5.17122e-08
2.53392e-11
5.17071e-08
2.31699e-11
5.17024e-08
2.11244e-11
5.16982e-08
1.92517e-11
5.16944e-08
1.7491e-11
5.16909e-08
1.58963e-11
5.16878e-08
1.43994e-11
5.16849e-08
1.30584e-11
5.16823e-08
1.17991e-11
5.168e-08
1.06847e-11
5.16779e-08
9.63352e-12
5.16759e-08
8.71864e-12
5.16742e-08
7.84692e-12
5.16726e-08
7.10537e-12
5.16712e-08
6.38702e-12
5.167e-08
5.79546e-12
5.16688e-08
5.20716e-12
5.16678e-08
4.74411e-12
5.16668e-08
4.26725e-12
5.1666e-08
3.91396e-12
5.16652e-08
3.52891e-12
5.16645e-08
3.27687e-12
5.16639e-08
2.95809e-12
5.16634e-08
2.80304e-12
5.16629e-08
2.53268e-12
5.16624e-08
2.46404e-12
2.23255e-12
5.32843e-08
1.72254e-09
-5.32225e-08
5.33614e-08
1.86437e-09
5.34528e-08
1.98519e-09
5.35569e-08
2.09269e-09
5.36705e-08
2.18303e-09
5.37877e-08
2.25211e-09
5.3902e-08
2.29515e-09
5.40085e-08
2.30974e-09
5.41052e-08
2.29926e-09
5.41911e-08
2.27069e-09
5.42657e-08