/*--------------------------------*- C++ -*----------------------------------*\
| =========                 |                                                 |
| \\      /  F ield         | OpenFOAM: The Open Source CFD Toolbox           |
|  \\    /   O peration     | Version:  2.3.0                                 |
|   \\  /    A nd           | Web:      www.OpenFOAM.org                      |
|    \\/     M anipulation  |                                                 |
\*---------------------------------------------------------------------------*/
FoamFile
{
    version     2.0;
    format      ascii;
    class       volScalarField;
    location    "0.2";
    object      p;
}
// * * * * * * * * * * * * * * * * * * * * * * * * * * * * * * * * * * * * * //

dimensions      [0 2 -2 0 0 0 0];

internalField   nonuniform List<scalar> 
8750
(
0.00306474
0.00247002
0.00198404
0.00163326
0.00134296
0.00108161
0.000849034
0.000649819
0.000485458
0.000354927
0.000255652
0.00018384
0.000134846
0.000103716
8.57229e-05
7.67536e-05
7.3494e-05
7.34572e-05
7.49027e-05
7.66986e-05
7.8173e-05
7.89755e-05
7.89661e-05
7.81311e-05
7.65251e-05
7.4233e-05
7.13483e-05
6.79611e-05
6.41529e-05
5.99961e-05
5.55543e-05
5.08853e-05
4.6043e-05
4.10798e-05
3.60484e-05
3.10037e-05
2.60039e-05
2.11121e-05
1.63977e-05
1.19383e-05
7.8235e-06
4.15914e-06
1.07289e-06
-1.28008e-06
-2.71394e-06
-3.01477e-06
-1.95375e-06
6.91057e-07
5.1074e-06
1.13475e-05
1.93827e-05
2.87905e-05
3.91675e-05
5.00105e-05
6.08317e-05
7.12388e-05
8.09431e-05
8.97544e-05
9.75675e-05
0.000104344
0.000110097
0.000114871
0.000118729
0.000121744
0.000123991
0.000125541
0.000126461
0.00012681
0.000126641
0.000126001
0.000124931
0.000123467
0.00012164
0.00011948
0.000117013
0.000114261
0.000111247
0.000107991
0.000104511
0.000100828
9.69554e-05
9.29115e-05
8.87103e-05
8.43662e-05
7.98917e-05
7.52989e-05
7.05982e-05
6.57993e-05
6.09105e-05
5.59393e-05
5.0892e-05
4.57743e-05
4.05908e-05
3.53455e-05
3.00422e-05
2.4684e-05
1.92738e-05
1.38144e-05
8.30996e-06
2.76501e-06
0.00278377
0.00235932
0.00196013
0.00164167
0.00136564
0.00111153
0.000882098
0.000683519
0.000518334
0.000386095
0.000284565
0.000210195
0.000158531
0.000124761
0.000104264
9.2992e-05
8.76671e-05
8.58148e-05
8.56891e-05
8.61415e-05
8.6476e-05
8.63156e-05
8.54932e-05
8.39698e-05
8.17777e-05
7.8983e-05
7.56633e-05
7.18961e-05
6.77527e-05
6.32972e-05
5.8587e-05
5.36746e-05
4.86097e-05
4.34413e-05
3.82195e-05
3.29967e-05
2.78295e-05
2.2779e-05
1.79131e-05
1.33079e-05
9.05111e-06
5.24647e-06
2.01926e-06
-4.77745e-07
-2.06047e-06
-2.51457e-06
-1.60574e-06
8.9581e-07
5.17559e-06
1.13382e-05
1.92162e-05
2.85404e-05
3.88964e-05
4.97547e-05
6.05934e-05
7.10171e-05
8.07386e-05
8.95676e-05
9.73984e-05
0.000104192
0.000109961
0.000114748
0.00011862
0.000121647
0.000123905
0.000125465
0.000126394
0.000126751
0.000126589
0.000125956
0.000124892
0.000123433
0.000121611
0.000119456
0.000116992
0.000114243
0.000111232
0.000107978
0.000104501
0.000100819
9.6948e-05
9.29052e-05
8.87049e-05
8.43615e-05
7.98877e-05
7.52953e-05
7.05951e-05
6.57965e-05
6.09079e-05
5.5937e-05
5.089e-05
4.57724e-05
4.05891e-05
3.53441e-05
3.0041e-05
2.4683e-05
1.9273e-05
1.38139e-05
8.31013e-06
2.76436e-06
0.00257929
0.00226174
0.00192301
0.00162927
0.00136885
0.00112838
0.000909624
0.000718066
0.000556464
0.00042488
0.000321705
0.000244101
0.000188315
0.000150138
0.000125397
0.000110328
0.000101792
9.73385e-05
9.51747e-05
9.40666e-05
9.32213e-05
9.21705e-05
9.06696e-05
8.86189e-05
8.60051e-05
8.28623e-05
7.92459e-05
7.52185e-05
7.08418e-05
6.61736e-05
6.1267e-05
5.61716e-05
5.09352e-05
4.56052e-05
4.02303e-05
3.48618e-05
2.95552e-05
2.43706e-05
1.93747e-05
1.46425e-05
1.02605e-05
6.33136e-06
2.97937e-06
3.56667e-07
-1.35264e-06
-1.93311e-06
-1.14753e-06
1.23994e-06
5.42558e-06
1.15431e-05
1.95293e-05
2.88808e-05
3.90676e-05
4.98055e-05
6.05844e-05
7.09775e-05
8.06792e-05
8.94951e-05
9.73181e-05
0.000104108
0.000109877
0.000114667
0.000118542
0.000121574
0.000123838
0.000125404
0.000126339
0.000126702
0.000126547
0.000125919
0.00012486
0.000123406
0.000121588
0.000119437
0.000116976
0.000114231
0.000111222
0.00010797
0.000104495
0.000100814
9.69445e-05
9.29026e-05
8.87029e-05
8.436e-05
7.98864e-05
7.52942e-05
7.0594e-05
6.57955e-05
6.09069e-05
5.59359e-05
5.08889e-05
4.57713e-05
4.05879e-05
3.53428e-05
3.00396e-05
2.46814e-05
1.92713e-05
1.3812e-05
8.3079e-06
2.76016e-06
0.00240645
0.00215787
0.0018706
0.00160539
0.00136515
0.00114224
0.000937654
0.000756091
0.000600501
0.000471487
0.00036807
0.000288115
0.000228597
0.000185972
0.000156597
0.000137087
0.000124529
0.00011658
0.000111467
0.000107922
0.000105089
0.000102429
9.96262e-05
9.6519e-05
9.30421e-05
8.91869e-05
8.49761e-05
8.04466e-05
7.56404e-05
7.06004e-05
6.53687e-05
5.99861e-05
5.44934e-05
4.89327e-05
4.33482e-05
3.77878e-05
3.23036e-05
2.69533e-05
2.18012e-05
1.69206e-05
1.23966e-05
8.33098e-06
4.84756e-06
2.09853e-06
2.68483e-07
-4.26392e-07
2.51965e-07
2.53964e-06
6.62889e-06
1.2617e-05
2.04131e-05
2.97512e-05
3.99744e-05
5.04801e-05
6.10119e-05
7.12261e-05
8.08048e-05
8.95321e-05
9.72906e-05
0.000104036
0.000109775
0.000114548
0.000118415
0.000121446
0.000123712
0.000125284
0.000126226
0.000126598
0.000126451
0.000125833
0.000124783
0.000123337
0.000121528
0.000119384
0.000116931
0.000114192
0.000111189
0.000107943
0.000104472
0.000100795
9.69292e-05
9.28901e-05
8.86928e-05
8.43518e-05
7.98798e-05
7.52887e-05
7.05894e-05
6.57915e-05
6.09034e-05
5.59328e-05
5.08859e-05
4.57683e-05
4.0585e-05
3.53398e-05
3.00364e-05
2.46778e-05
1.92671e-05
1.3807e-05
8.3017e-06
2.75066e-06
0.00225374
0.00205471
0.00181344
0.0015781
0.00135883
0.00115332
0.000962947
0.000791896
0.000643213
0.000517898
0.000415442
0.000334258
0.00027193
0.000225517
0.000191901
0.000168105
0.000151499
0.000139905
0.000131621
0.000125388
0.000120314
0.000115804
0.000111482
0.000107125
0.000102616
9.78994e-05
9.29634e-05
8.78166e-05
8.24794e-05
7.69785e-05
7.13431e-05
6.56047e-05
5.97965e-05
5.39545e-05
4.8118e-05
4.23306e-05
3.66408e-05
3.11032e-05
2.57798e-05
2.07417e-05
1.60726e-05
1.18733e-05
8.26648e-06
5.40313e-06
3.46543e-06
2.66536e-06
3.23389e-06
5.39617e-06
9.32931e-06
1.51067e-05
2.26236e-05
3.1587e-05
4.15393e-05
5.18931e-05
6.21419e-05
7.20132e-05
8.13104e-05
8.9828e-05
9.74304e-05
0.000104061
0.000109718
0.000114435
0.000118266
0.000121275
0.000123531
0.000125101
0.000126046
0.000126424
0.000126286
0.000125678
0.000124639
0.000123206
0.000121408
0.000119276
0.000116834
0.000114106
0.000111113
0.000107877
0.000104415
0.000100746
9.68874e-05
9.28548e-05
8.86632e-05
8.43271e-05
7.98592e-05
7.52717e-05
7.05753e-05
6.57797e-05
6.08935e-05
5.59242e-05
5.08784e-05
4.57616e-05
4.05786e-05
3.53337e-05
3.00302e-05
2.46712e-05
1.92597e-05
1.37983e-05
8.29086e-06
2.73434e-06
0.00212251
0.00195932
0.00175604
0.00154827
0.00134891
0.00115981
0.000983166
0.000822732
0.000681477
0.000560651
0.00046011
0.000378709
0.000314543
0.000265198
0.000228043
0.000200496
0.000180216
0.000165214
0.000153889
0.000145015
0.000137693
0.000131292
0.000125389
0.000119713
0.000114098
0.000108453
0.00010273
9.69113e-05
9.09967e-05
8.4996e-05
7.8926e-05
7.28077e-05
6.66666e-05
6.05321e-05
5.44381e-05
4.84235e-05
4.25331e-05
3.68182e-05
3.13379e-05
2.61612e-05
2.137e-05
1.7063e-05
1.33608e-05
1.04101e-05
8.3867e-06
7.49215e-06
7.94227e-06
9.94232e-06
1.36469e-05
1.91079e-05
2.62153e-05
3.46872e-05
4.41008e-05
5.39764e-05
6.38808e-05
7.34077e-05
8.23195e-05
9.05092e-05
9.78571e-05
0.000104294
0.000109805
0.000114416
0.000118173
0.000121131
0.000123354
0.000124903
0.000125838
0.000126214
0.000126078
0.000125475
0.000124445
0.000123021
0.000121235
0.000119115
0.000116686
0.000113971
0.000110991
0.000107767
0.000104318
0.000100661
9.68126e-05
9.27901e-05
8.86078e-05
8.42799e-05
7.98194e-05
7.52383e-05
7.05474e-05
6.57564e-05
6.0874e-05
5.59079e-05
5.08645e-05
4.57495e-05
4.05679e-05
3.53237e-05
3.00206e-05
2.46614e-05
1.92491e-05
1.37863e-05
8.2757e-06
2.71092e-06
0.00200945
0.00187204
0.00169911
0.00151595
0.00133543
0.00116198
0.000998553
0.000848609
0.000714972
0.000599066
0.000501057
0.00042018
0.000354965
0.000303457
0.000263455
0.000232738
0.000209244
0.000191176
0.000177048
0.000165687
0.000156207
0.00014796
0.000140493
0.000133495
0.000126767
0.000120179
0.000113655
0.000107154
0.000100654
9.41492e-05
8.76439e-05
8.11491e-05
7.4682e-05
6.82654e-05
6.19278e-05
5.57035e-05
4.96331e-05
4.37647e-05
3.81543e-05
3.28684e-05
2.79864e-05
2.3604e-05
1.98373e-05
1.68266e-05
1.4737e-05
1.37549e-05
1.40756e-05
1.58797e-05
1.92967e-05
2.43597e-05
3.09604e-05
3.88402e-05
4.76174e-05
5.68636e-05
6.61874e-05
7.5261e-05
8.37834e-05
9.15867e-05
9.8606e-05
0.000104783
0.000110094
0.000114554
0.000118196
0.000121072
0.000123236
0.000124745
0.000125653
0.000126012
0.000125867
0.000125261
0.000124232
0.000122814
0.000121035
0.000118924
0.000116506
0.000113803
0.000110836
0.000107625
0.000104188
0.000100545
9.67095e-05
9.26993e-05
8.85286e-05
8.42115e-05
7.97609e-05
7.51886e-05
7.05055e-05
6.57213e-05
6.08447e-05
5.58833e-05
5.08438e-05
4.57319e-05
4.05526e-05
3.531e-05
3.00077e-05
2.46488e-05
1.92358e-05
1.37711e-05
8.25727e-06
2.68168e-06
0.00191098
0.00179256
0.00164384
0.00148232
0.00131939
0.00116069
0.00100978
0.000869948
0.000743872
0.000633089
0.000538021
0.000458224
0.000392599
0.000339583
0.000297351
0.00026401
0.000237757
0.000216983
0.000200324
0.000186674
0.000175173
0.000165172
0.000156198
0.000147916
0.000140095
0.000132577
0.000125262
0.000118084
0.000111004
0.000104002
9.70697e-05
9.02079e-05
8.34263e-05
7.67412e-05
7.01756e-05
6.37592e-05
5.75285e-05
5.15281e-05
4.58108e-05
4.04402e-05
3.54921e-05
3.10581e-05
2.72486e-05
2.41947e-05
2.20488e-05
2.09794e-05
2.11589e-05
2.27424e-05
2.5835e-05
3.04549e-05
3.6498e-05
4.37318e-05
5.18187e-05
6.03779e-05
6.90515e-05
7.75319e-05
8.55778e-05
9.29849e-05
9.96439e-05
0.000105518
0.00011059
0.000114862
0.000118361
0.000121128
0.000123211
0.00012466
0.000125525
0.000125853
0.000125688
0.000125069
0.000124033
0.000122612
0.000120835
0.000118729
0.000116318
0.000113623
0.000110667
0.000107468
0.000104044
0.000100412
9.65903e-05
9.25928e-05
8.84346e-05
8.41293e-05
7.96897e-05
7.51276e-05
7.04537e-05
6.56776e-05
6.0808e-05
5.58526e-05
5.08181e-05
4.57102e-05
4.05339e-05
3.52935e-05
2.99926e-05
2.46342e-05
1.9221e-05
1.37551e-05
8.23653e-06
2.64921e-06
0.00182439
0.00172044
0.00159113
0.00144836
0.0013015
0.00115653
0.00101736
0.000887175
0.000768506
0.000662947
0.000571119
0.000492845
0.00042734
0.000373376
0.000329458
0.000293986
0.000265398
0.000242265
0.000223346
0.000207613
0.00019424
0.00018259
0.000172182
0.000162663
0.000153779
0.000145352
0.000137258
0.000129412
0.00012176
0.000114267
0.000106914
9.96921e-05
9.26038e-05
8.56588e-05
7.88748e-05
7.22768e-05
6.58974e-05
5.97772e-05
5.39659e-05
4.85232e-05
4.35211e-05
3.90462e-05
3.52015e-05
3.21084e-05
2.99049e-05
2.8741e-05
2.87667e-05
3.01124e-05
3.28619e-05
3.70211e-05
4.2492e-05
4.90669e-05
5.64496e-05
6.43037e-05
7.23047e-05
8.01686e-05
8.76652e-05
9.46177e-05
0.000100906
0.000106463
0.00011127
0.00011533
0.000118663
0.000121302
0.000123285
0.000124659
0.000125467
0.000125753
0.000125557
0.000124917
0.000123866
0.000122436
0.000120655
0.000118548
0.00011614
0.000113451
0.000110502
0.000107311
0.000103898
0.000100278
9.64676e-05
9.24822e-05
8.83359e-05
8.40423e-05
7.96138e-05
7.50621e-05
7.03977e-05
6.56302e-05
6.07681e-05
5.58192e-05
5.079e-05
4.56865e-05
4.05137e-05
3.52758e-05
2.99765e-05
2.4619e-05
1.92059e-05
1.37382e-05
8.21493e-06
2.61687e-06
0.00174761
0.00165503
0.0015414
0.00141469
0.00128233
0.00115003
0.00102182
0.000900772
0.000789294
0.000688984
0.000600606
0.000524205
0.000459257
0.000404824
0.000359697
0.000322537
0.000292004
0.000266838
0.000245923
0.000228309
0.000213216
0.000200027
0.000188263
0.00017756
0.000167651
0.000158338
0.00014948
0.000140977
0.00013276
0.000124781
0.00011701
0.000109431
0.000102039
9.48372e-05
8.78378e-05
8.10614e-05
7.45364e-05
6.82996e-05
6.23968e-05
5.68841e-05
5.18288e-05
4.73116e-05
4.34282e-05
4.0289e-05
3.80181e-05
3.67474e-05
3.66057e-05
3.77015e-05
4.00999e-05
4.37977e-05
4.87029e-05
5.46309e-05
6.13219e-05
6.84789e-05
7.58102e-05
8.30547e-05
8.99962e-05
9.64665e-05
0.00010235
0.000107575
0.000112108
0.000115942
0.000119094
0.000121588
0.000123459
0.000124744
0.000125484
0.000125718
0.000125482
0.000124812
0.00012374
0.000122295
0.000120505
0.000118393
0.000115983
0.000113296
0.000110351
0.000107167
0.000103761
0.000100151
9.63506e-05
9.23758e-05
8.82404e-05
8.39576e-05
7.95396e-05
7.49978e-05
7.03425e-05
6.55833e-05
6.07286e-05
5.57861e-05
5.07623e-05
4.56632e-05
4.04938e-05
3.52584e-05
2.99609e-05
2.46043e-05
1.91908e-05
1.37212e-05
8.19399e-06
2.58757e-06
0.001679
0.00159562
0.00149478
0.0013818
0.00126238
0.00114168
0.00102364
0.000911205
0.000806648
0.000711543
0.000626753
0.000552496
0.000488469
0.000433978
0.000388061
0.000349614
0.000317493
0.000290602
0.000267943
0.000248648
0.00023199
0.000217377
0.000204339
0.000192512
0.000181617
0.000171446
0.000161842
0.000152694
0.000143918
0.000135457
0.000127271
0.000119337
0.00011164
0.00010418
9.69642e-05
9.00073e-05
8.33342e-05
7.69776e-05
7.09793e-05
6.53913e-05
6.02759e-05
5.57079e-05
5.17748e-05
4.85766e-05
4.62235e-05
4.48308e-05
4.45079e-05
4.53444e-05
4.73897e-05
5.06334e-05
5.49897e-05
6.02942e-05
6.63187e-05
7.28011e-05
7.94794e-05
8.6115e-05
9.25062e-05
9.84931e-05
0.000103961
0.000108838
0.000113083
0.000116682
0.000119641
0.00012198
0.000123727
0.000124914
0.000125576
0.000125749
0.000125466
0.000124759
0.00012366
0.000122195
0.000120389
0.000118268
0.000115853
0.000113164
0.00011022
0.00010704
0.00010364
0.000100037
9.62447e-05
9.22789e-05
8.81529e-05
8.38797e-05
7.9471e-05
7.49382e-05
7.02914e-05
6.55399e-05
6.06921e-05
5.57555e-05
5.07368e-05
4.56418e-05
4.04755e-05
3.52426e-05
2.99466e-05
2.45904e-05
1.91763e-05
1.37051e-05
8.17479e-06
2.56298e-06
0.00161728
0.00154151
0.00145125
0.00135
0.00124205
0.00113191
0.00102325
0.000918891
0.000820946
0.00073095
0.000649825
0.00057792
0.000515113
0.000460914
0.000414577
0.0003752
0.000341822
0.000313493
0.000289332
0.000268553
0.000250484
0.000234564
0.000220341
0.000207453
0.000195619
0.000184621
0.000174294
0.000164514
0.000155188
0.00014625
0.000137652
0.000129361
0.00012136
0.00011364
0.000106203
9.90614e-05
9.22347e-05
8.57518e-05
7.96504e-05
7.3978e-05
6.8792e-05
6.41606e-05
6.01635e-05
5.68904e-05
5.44386e-05
5.29079e-05
5.23909e-05
5.29604e-05
5.46532e-05
5.74535e-05
6.12809e-05
6.59892e-05
7.1377e-05
7.72127e-05
8.32612e-05
8.93051e-05
9.51567e-05
0.000100665
0.000105718
0.00011024
0.000114188
0.000117541
0.000120298
0.000122473
0.000124086
0.000125166
0.000125742
0.000125846
0.000125508
0.000124759
0.000123626
0.000122135
0.000120311
0.000118177
0.000115753
0.000113059
0.000110113
0.000106934
0.000103537
9.99385e-05
9.61528e-05
9.21943e-05
8.80762e-05
8.3811e-05
7.94105e-05
7.48856e-05
7.02462e-05
6.55016e-05
6.06599e-05
5.57286e-05
5.07144e-05
4.56231e-05
4.04597e-05
3.52287e-05
2.99337e-05
2.45779e-05
1.91632e-05
1.36906e-05
8.15786e-06
2.54354e-06
0.00156142
0.00149208
0.00141068
0.00131948
0.00122166
0.00112106
0.00102104
0.000924205
0.000832541
0.000747517
0.00067008
0.000600678
0.000539331
0.000485722
0.000439287
0.000399302
0.000364966
0.000335468
0.000310035
0.000287962
0.000268635
0.00025153
0.000236214
0.000222334
0.000209611
0.000197822
0.000186797
0.000176403
0.00016654
0.000157132
0.000148125
0.000139479
0.000131172
0.000123189
0.000115528
0.000108196
0.00010121
9.45928e-05
8.83793e-05
8.2612e-05
7.73432e-05
7.26347e-05
6.85583e-05
6.51938e-05
6.26268e-05
6.09428e-05
6.02198e-05
6.05163e-05
6.18586e-05
6.42267e-05
6.75459e-05
7.16851e-05
7.64663e-05
8.16843e-05
8.71283e-05
9.26e-05
9.79259e-05
0.000102963
0.000107604
0.00011177
0.000115416
0.000118516
0.000121062
0.000123063
0.000124535
0.000125499
0.000125981
0.000126009
0.000125611
0.000124813
0.000123641
0.00012212
0.000120272
0.00011812
0.000115684
0.000112981
0.000110031
0.00010685
0.000103454
9.98582e-05
9.60767e-05
9.21236e-05
8.80116e-05
8.37531e-05
7.93594e-05
7.48411e-05
7.02081e-05
6.54694e-05
6.0633e-05
5.57063e-05
5.0696e-05
4.56077e-05
4.04467e-05
3.52171e-05
2.9923e-05
2.45671e-05
1.91518e-05
1.36778e-05
8.1434e-06
2.52883e-06
0.0015106
0.00144677
0.00137289
0.00129033
0.00120145
0.00110945
0.00101733
0.000927485
0.000841756
0.000761534
0.000687766
0.000620966
0.000561269
0.000508498
0.000462242
0.000421933
0.000386913
0.000356495
0.000330007
0.000306825
0.000286392
0.000268222
0.000251908
0.000237109
0.000223552
0.000211014
0.00019932
0.000188334
0.000177947
0.000168079
0.000158668
0.000149672
0.000141058
0.000132811
0.000124923
0.000117396
0.000110243
0.000103484
9.71496e-05
9.12768e-05
8.59129e-05
8.11136e-05
7.69429e-05
7.34713e-05
7.07734e-05
6.89223e-05
6.79828e-05
6.80016e-05
6.89961e-05
7.09434e-05
7.37739e-05
7.73697e-05
8.15731e-05
8.62016e-05
9.10658e-05
9.59857e-05
0.000100801
0.000105376
0.000109608
0.000113419
0.00011676
0.000119601
0.000121931
0.000123751
0.000125073
0.000125913
0.000126294
0.000126239
0.000125773
0.00012492
0.000123705
0.000122148
0.000120273
0.0001181
0.000115647
0.000112933
0.000109976
0.00010679
0.000103392
9.97967e-05
9.60174e-05
9.20677e-05
8.79602e-05
8.37067e-05
7.93184e-05
7.48056e-05
7.01778e-05
6.54439e-05
6.06119e-05
5.56891e-05
5.06819e-05
4.55961e-05
4.04368e-05
3.52083e-05
2.99145e-05
2.45584e-05
1.91422e-05
1.3667e-05
8.13145e-06
2.51808e-06
0.00146415
0.00140513
0.00133768
0.0012626
0.00118159
0.00109731
0.0010124
0.000929031
0.000848885
0.00077327
0.000703115
0.000638976
0.000581073
0.000529343
0.000483504
0.000443121
0.000407662
0.000376552
0.000349214
0.0003251
0.000303707
0.000284594
0.000267378
0.000251737
0.000237405
0.000224162
0.000211834
0.000200279
0.000189386
0.00017907
0.000169265
0.000159921
0.000151004
0.000142492
0.000134374
0.000126648
0.000119323
0.000112416
0.000105951
9.99622e-05
9.44915e-05
8.95883e-05
8.53092e-05
8.1716e-05
7.88731e-05
7.68426e-05
7.56779e-05
7.54154e-05
7.60653e-05
7.76029e-05
7.9963e-05
8.30393e-05
8.66916e-05
9.0757e-05
9.50656e-05
9.94533e-05
0.000103772
0.000107896
0.000111725
0.000115182
0.000118216
0.000120794
0.000122902
0.000124534
0.000125699
0.000126409
0.000126682
0.000126537
0.000125998
0.000125084
0.000123819
0.000122223
0.000120316
0.000118117
0.000115645
0.000112916
0.000109948
0.000106755
0.000103353
9.97551e-05
9.59758e-05
9.20277e-05
8.79228e-05
8.36727e-05
7.92882e-05
7.47795e-05
7.01558e-05
6.54257e-05
6.05972e-05
5.56773e-05
5.06725e-05
4.55885e-05
4.04304e-05
3.52025e-05
2.99086e-05
2.45519e-05
1.91347e-05
1.36583e-05
8.1219e-06
2.51044e-06
0.00142152
0.00136672
0.00130484
0.00123627
0.0011622
0.00108485
0.00100651
0.000929109
0.000854193
0.000782975
0.000716348
0.000654892
0.000598886
0.00054836
0.000503139
0.0004629
0.000427221
0.000395627
0.000367629
0.00034275
0.000320542
0.000300604
0.000282585
0.00026618
0.000251134
0.000237234
0.000224308
0.000212213
0.000200835
0.000190086
0.000179896
0.000170211
0.000160994
0.000152218
0.000143869
0.000135942
0.00012844
0.000121377
0.000114774
0.00010866
0.000103072
9.80529e-05
9.36524e-05
8.99245e-05
8.69242e-05
8.47037e-05
8.33064e-05
8.27602e-05
8.30693e-05
8.42077e-05
8.61143e-05
8.86933e-05
9.1819e-05
9.53462e-05
9.91218e-05
0.000102997
0.000106834
0.000110517
0.000113948
0.000117053
0.00011978
0.000122093
0.000123972
0.000125412
0.000126414
0.000126986
0.000127144
0.000126904
0.000126284
0.000125305
0.000123985
0.000122344
0.000120401
0.000118172
0.000115677
0.00011293
0.000109948
0.000106745
0.000103336
9.97341e-05
9.59527e-05
9.20041e-05
8.79e-05
8.36517e-05
7.92696e-05
7.47636e-05
7.01426e-05
6.54153e-05
6.05892e-05
5.56714e-05
5.06682e-05
4.55853e-05
4.04277e-05
3.51998e-05
2.99055e-05
2.45479e-05
1.91295e-05
1.36517e-05
8.11461e-06
2.5052e-06
0.00138225
0.0013312
0.00127418
0.00121129
0.00114337
0.00107223
0.000999851
0.000927951
0.000857919
0.000790875
0.00072767
0.000668887
0.000614849
0.000565655
0.000521218
0.00048131
0.000445605
0.000413717
0.000385235
0.000359747
0.000336861
0.000316216
0.00029749
0.0002804
0.000264704
0.000250199
0.000236714
0.000224109
0.00021227
0.000201106
0.000190543
0.000180527
0.000171014
0.000161978
0.000153397
0.000145266
0.000137584
0.00013036
0.000123612
0.000117364
0.000111648
0.000106502
0.000101969
9.80946e-05
9.49259e-05
9.25062e-05
9.08704e-05
9.0039e-05
9.00115e-05
9.07609e-05
9.22301e-05
9.4332e-05
9.69541e-05
9.99661e-05
0.00010323
0.000106611
0.000109982
0.000113233
0.000116273
0.000119029
0.000121448
0.000123493
0.000125141
0.000126383
0.000127215
0.000127645
0.000127682
0.00012734
0.000126635
0.000125584
0.000124204
0.000122514
0.000120529
0.000118268
0.000115745
0.000112977
0.000109978
0.000106762
0.000103343
9.97348e-05
9.5949e-05
9.19978e-05
8.78927e-05
8.36444e-05
7.92631e-05
7.47583e-05
7.01389e-05
6.54131e-05
6.05884e-05
5.56717e-05
5.06693e-05
4.55868e-05
4.04291e-05
3.52007e-05
2.99054e-05
2.45465e-05
1.91265e-05
1.36473e-05
8.10944e-06
2.50183e-06
0.00134596
0.00129825
0.00124551
0.00118762
0.00112514
0.00105957
0.000992605
0.000925758
0.000860275
0.000797178
0.000737272
0.000681128
0.000629098
0.000581333
0.000537816
0.0004984
0.000462839
0.000430825
0.000402019
0.00037607
0.000352637
0.000331397
0.00031206
0.000294364
0.000278085
0.000263026
0.000249025
0.000235944
0.000223669
0.000212108
0.000201188
0.00019085
0.00018105
0.000171755
0.000162946
0.00015461
0.000146744
0.000139355
0.000132456
0.000126067
0.000120214
0.000114932
0.000110255
0.000106224
0.000102878
0.000100251
9.83723e-05
9.72552e-05
9.68956e-05
9.72658e-05
9.83124e-05
9.99562e-05
0.000102096
0.000104614
0.000107387
0.00011029
0.000113209
0.00011604
0.000118696
0.000121106
0.000123218
0.000124993
0.000126407
0.000127445
0.000128104
0.000128384
0.000128295
0.000127845
0.000127049
0.000125921
0.000124477
0.000122732
0.000120703
0.000118404
0.00011585
0.000113057
0.000110038
0.000106806
0.000103375
9.97578e-05
9.59653e-05
9.20096e-05
8.79014e-05
8.36514e-05
7.92692e-05
7.47643e-05
7.0145e-05
6.54195e-05
6.05951e-05
5.56786e-05
5.06761e-05
4.55932e-05
4.04348e-05
3.52053e-05
2.99085e-05
2.45478e-05
1.9126e-05
1.36451e-05
8.10626e-06
2.49995e-06
0.0013123
0.00126761
0.00121866
0.00116519
0.00110755
0.00104697
0.000984918
0.000922707
0.000861449
0.000802074
0.000745329
0.000691771
0.000641764
0.000595497
0.00055301
0.000514219
0.000478949
0.000446962
0.000417978
0.000391704
0.000367846
0.00034612
0.000326265
0.000308043
0.000291245
0.000275688
0.000261214
0.000247691
0.000235008
0.000223073
0.000211812
0.000201164
0.000191084
0.000181538
0.000172502
0.000163961
0.000155911
0.000148353
0.000141297
0.00013476
0.000128764
0.000123336
0.000118507
0.000114311
0.000110778
0.000107939
0.000105814
0.000104412
0.000103724
0.000103725
0.000104363
0.000105566
0.000107243
0.000109288
0.000111588
0.000114032
0.000116512
0.000118932
0.000121211
0.00012328
0.000125086
0.000126591
0.000127767
0.000128599
0.000129078
0.000129205
0.000128983
0.00012842
0.000127527
0.000126318
0.000124804
0.000123001
0.000120922
0.000118581
0.000115994
0.000113172
0.00011013
0.000106879
0.000103434
9.98041e-05
9.60026e-05
9.20401e-05
8.79269e-05
8.36733e-05
7.92887e-05
7.4782e-05
7.01615e-05
6.54351e-05
6.06099e-05
5.56926e-05
5.06891e-05
4.56049e-05
4.0445e-05
3.52138e-05
2.9915e-05
2.45521e-05
1.9128e-05
1.36451e-05
8.10495e-06
2.49931e-06
0.001281
0.00123904
0.00119346
0.00114393
0.0010906
0.00103451
0.000976911
0.000918949
0.00086161
0.000805731
0.000752005
0.000700963
0.000652972
0.00060825
0.000566876
0.000528823
0.000493971
0.000462142
0.000433112
0.000406639
0.00038247
0.000360361
0.000340079
0.000321408
0.000304158
0.000288156
0.000273255
0.000259328
0.000246266
0.00023398
0.000222395
0.000211452
0.000201103
0.000191312
0.000182053
0.00017331
0.000165074
0.000157345
0.000150129
0.000143438
0.000137292
0.000131711
0.000126722
0.000122353
0.000118628
0.000115571
0.000113197
0.00011151
0.000110501
0.000110141
0.000110384
0.000111162
0.000112395
0.000113985
0.000115831
0.00011783
0.000119885
0.000121906
0.000123815
0.000125546
0.000127049
0.000128283
0.00012922
0.000129841
0.000130138
0.000130105
0.000129746
0.000129065
0.000128071
0.000126774
0.000125186
0.00012332
0.000121187
0.000118802
0.000116176
0.000113322
0.000110253
0.000106982
0.000103518
9.98744e-05
9.60615e-05
9.209e-05
8.79699e-05
8.37109e-05
7.9322e-05
7.4812e-05
7.0189e-05
6.54603e-05
6.06332e-05
5.57139e-05
5.07085e-05
4.56223e-05
4.04602e-05
3.52265e-05
2.99251e-05
2.45595e-05
1.91327e-05
1.36473e-05
8.10544e-06
2.49975e-06
0.00125182
0.00121234
0.00116979
0.00112376
0.00107429
0.00102224
0.000968682
0.000914614
0.000860903
0.000808303
0.000757448
0.00070884
0.000662843
0.00061969
0.000579494
0.000542268
0.000507942
0.000476386
0.000447429
0.000420869
0.000396498
0.000374103
0.000353479
0.000334436
0.000316797
0.000300406
0.000285124
0.00027083
0.000257421
0.000244809
0.000232921
0.000221698
0.00021109
0.000201062
0.000191586
0.000182643
0.000174222
0.000166321
0.000158941
0.000152093
0.000145791
0.000140051
0.000134896
0.000130347
0.000126425
0.000123146
0.000120522
0.000118553
0.000117226
0.000116515
0.000116375
0.000116745
0.00011755
0.000118703
0.000120111
0.000121682
0.000123325
0.000124956
0.000126503
0.000127902
0.000129103
0.000130066
0.000130762
0.000131171
0.000131281
0.000131085
0.000130584
0.00012978
0.00012868
0.000127291
0.000125625
0.00012369
0.0001215
0.000119065
0.000116398
0.000113509
0.000110411
0.000107114
0.00010363
9.99695e-05
9.61428e-05
9.21601e-05
8.80309e-05
8.37646e-05
7.93698e-05
7.4855e-05
7.02278e-05
6.54957e-05
6.06653e-05
5.57431e-05
5.07348e-05
4.56456e-05
4.04805e-05
3.52436e-05
2.9939e-05
2.45701e-05
1.91401e-05
1.36519e-05
8.10768e-06
2.50118e-06
0.00122454
0.00118733
0.0011475
0.00110461
0.00105861
0.00101021
0.000960315
0.000909813
0.000859459
0.000809926
0.000761793
0.000715529
0.000671489
0.000629914
0.000590939
0.000554612
0.000520901
0.00048972
0.000460938
0.000434396
0.00040992
0.00038733
0.000366448
0.000347104
0.000329142
0.000312416
0.000296799
0.000282177
0.000268453
0.000255541
0.000243371
0.000231883
0.000221031
0.000210775
0.000201088
0.000191949
0.000183345
0.000175271
0.000167727
0.000160718
0.000154255
0.000148352
0.000143025
0.000138292
0.000134168
0.000130665
0.00012779
0.00012554
0.000123903
0.000122849
0.000122338
0.000122314
0.000122707
0.000123439
0.000124427
0.000125584
0.000126827
0.000128079
0.000129271
0.000130343
0.000131245
0.000131938
0.000132393
0.000132587
0.000132507
0.000132144
0.000131497
0.000130565
0.000129354
0.000127869
0.000126119
0.000124113
0.000121861
0.000119373
0.00011666
0.000113733
0.000110601
0.000107277
0.00010377
0.00010009
9.62472e-05
9.2251e-05
8.81108e-05
8.38352e-05
7.94327e-05
7.49113e-05
7.02786e-05
6.55415e-05
6.07068e-05
5.57804e-05
5.07682e-05
4.56752e-05
4.05062e-05
3.52655e-05
2.99569e-05
2.45842e-05
1.91504e-05
1.36587e-05
8.11163e-06
2.50352e-06
0.00119899
0.00116385
0.00112649
0.00108643
0.00104355
0.00099843
0.000951876
0.00090464
0.000857389
0.000810722
0.000765162
0.000721147
0.000679016
0.000639013
0.000601288
0.000565914
0.000532892
0.000502171
0.000473656
0.000447224
0.000422733
0.000400033
0.000378969
0.000359395
0.00034117
0.000324164
0.000308258
0.000293348
0.00027934
0.000266156
0.000253726
0.000241993
0.000230909
0.000220437
0.000210546
0.000201216
0.000192432
0.000184186
0.000176476
0.000169304
0.000162678
0.000156608
0.000151105
0.000146184
0.000141855
0.000138126
0.000135001
0.000132474
0.000130531
0.000129144
0.000128273
0.000127868
0.000127865
0.000128192
0.000128774
0.000129531
0.000130387
0.00013127
0.000132115
0.000132864
0.000133471
0.000133896
0.000134108
0.000134086
0.000133813
0.00013328
0.000132483
0.00013142
0.000130093
0.000128508
0.000126671
0.000124588
0.00012227
0.000119726
0.000116964
0.000113994
0.000110827
0.000107472
0.000103939
0.000100237
9.63754e-05
9.23635e-05
8.821e-05
8.39232e-05
7.95112e-05
7.49817e-05
7.03418e-05
6.55985e-05
6.0758e-05
5.58264e-05
5.08091e-05
4.57113e-05
4.05376e-05
3.52922e-05
2.99791e-05
2.46018e-05
1.91636e-05
1.36679e-05
8.11728e-06
2.50674e-06
0.00117501
0.00114177
0.00110665
0.00106914
0.00102907
0.000986935
0.000943418
0.000899176
0.000854793
0.000810799
0.000767667
0.000725801
0.000685523
0.000647074
0.000610614
0.000576233
0.000543959
0.00051377
0.000485602
0.000459362
0.000434937
0.000412203
0.000391032
0.000371294
0.000352865
0.00033563
0.000319482
0.000304322
0.000290066
0.000276637
0.00026397
0.00025201
0.00024071
0.000230032
0.000219947
0.000210433
0.000201472
0.000193057
0.000185181
0.000177845
0.000171054
0.000164813
0.000159132
0.00015402
0.000149484
0.000145529
0.000142155
0.000139355
0.000137111
0.000135399
0.00013418
0.000133407
0.000133022
0.000132959
0.000133149
0.00013352
0.000134001
0.000134524
0.00013503
0.000135463
0.000135778
0.000135936
0.000135907
0.000135667
0.000135199
0.000134493
0.000133542
0.000132344
0.000130898
0.000129208
0.000127279
0.000125117
0.000122729
0.000120124
0.000117309
0.000114294
0.000111088
0.000107699
0.000104137
0.000100411
9.6528e-05
9.24981e-05
8.83292e-05
8.40292e-05
7.96059e-05
7.50665e-05
7.04179e-05
6.56669e-05
6.08194e-05
5.58813e-05
5.0858e-05
4.57543e-05
4.0575e-05
3.53241e-05
3.00056e-05
2.46231e-05
1.91799e-05
1.36795e-05
8.12462e-06
2.51083e-06
0.00115244
0.00112096
0.00108787
0.00105268
0.00101517
0.000975734
0.000934986
0.000893489
0.000851755
0.000810253
0.000769408
0.00072959
0.000691103
0.00065418
0.000618987
0.000585627
0.000554147
0.000524549
0.000496795
0.000470819
0.000446534
0.000423839
0.000402627
0.000382787
0.000364212
0.0003468
0.000330453
0.000315083
0.000300611
0.000286966
0.000274086
0.000261918
0.000250418
0.000239548
0.000229278
0.000219586
0.000210455
0.000201872
0.000193832
0.000186333
0.000179375
0.000172963
0.000167102
0.000161797
0.000157054
0.000152873
0.000149252
0.000146181
0.000143645
0.000141616
0.000140059
0.000138931
0.000138177
0.000137738
0.00013755
0.000137548
0.000137664
0.000137839
0.000138013
0.000138135
0.000138162
0.000138055
0.000137785