/*--------------------------------*- C++ -*----------------------------------*\
| =========                 |                                                 |
| \\      /  F ield         | OpenFOAM: The Open Source CFD Toolbox           |
|  \\    /   O peration     | Version:  2.3.0                                 |
|   \\  /    A nd           | Web:      www.OpenFOAM.org                      |
|    \\/     M anipulation  |                                                 |
\*---------------------------------------------------------------------------*/
FoamFile
{
    version     2.0;
    format      ascii;
    class       surfaceScalarField;
    location    "0.2";
    object      phi_0;
}
// * * * * * * * * * * * * * * * * * * * * * * * * * * * * * * * * * * * * * //

dimensions      [0 3 -1 0 0 0 0];

internalField   nonuniform List<scalar> 
17305
(
2.83862e-08
2.87743e-09
-3.12637e-08
2.55238e-08
2.86244e-09
2.28375e-08
2.68625e-09
2.03613e-08
2.47621e-09
1.81112e-08
2.25011e-09
1.60978e-08
2.01339e-09
1.43236e-08
1.77424e-09
1.27832e-08
1.5404e-09
1.14648e-08
1.31844e-09
1.03511e-08
1.11368e-09
9.42105e-09
9.30032e-10
8.65126e-09
7.69789e-10
8.01767e-09
6.33583e-10
7.49709e-09
5.20585e-10
7.06823e-09
4.28854e-10
6.71249e-09
3.5574e-10
6.41422e-09
2.98278e-10
6.1607e-09
2.53521e-10
5.94193e-09
2.18768e-10
5.75024e-09
1.91691e-10
5.57985e-09
1.70382e-10
5.42651e-09
1.53344e-10
5.28707e-09
1.39439e-10
5.15924e-09
1.2783e-10
5.04133e-09
1.17915e-10
4.93206e-09
1.09268e-10
4.83047e-09
1.01589e-10
4.7358e-09
9.46723e-11
4.64743e-09
8.83695e-11
4.56485e-09
8.2575e-11
4.48764e-09
7.72096e-11
4.41543e-09
7.22119e-11
4.3479e-09
6.75318e-11
4.28477e-09
6.31273e-11
4.22581e-09
5.89625e-11
4.1708e-09
5.5006e-11
4.11957e-09
5.12307e-11
4.07196e-09
4.7613e-11
4.02783e-09
4.41314e-11
3.98706e-09
4.07642e-11
3.94958e-09
3.74855e-11
3.91532e-09
3.42604e-11
3.88428e-09
3.10389e-11
3.85653e-09
2.77511e-11
3.83222e-09
2.43064e-11
3.81162e-09
2.06005e-11
3.7951e-09
1.65233e-11
3.78315e-09
1.19474e-11
3.77636e-09
6.7915e-12
3.77495e-09
1.40542e-12
3.7777e-09
-2.74648e-12
3.78342e-09
-5.71795e-12
3.79126e-09
-7.84622e-12
3.80052e-09
-9.25606e-12
3.81056e-09
-1.00384e-11
3.82086e-09
-1.03037e-11
3.83104e-09
-1.01745e-11
3.8408e-09
-9.76733e-12
3.84999e-09
-9.18253e-12
3.85849e-09
-8.49993e-12
3.86627e-09
-7.77861e-12
3.87332e-09
-7.05955e-12
3.87969e-09
-6.3689e-12
3.88542e-09
-5.72165e-12
3.89054e-09
-5.12485e-12
3.89512e-09
-4.5804e-12
3.89921e-09
-4.08699e-12
3.90285e-09
-3.64158e-12
3.90609e-09
-3.2403e-12
3.90897e-09
-2.87917e-12
3.91152e-09
-2.55434e-12
3.91379e-09
-2.2623e-12
3.91579e-09
-1.99988e-12
3.91755e-09
-1.76427e-12
3.9191e-09
-1.55304e-12
3.92047e-09
-1.36405e-12
3.92166e-09
-1.19544e-12
3.92271e-09
-1.04546e-12
3.92362e-09
-9.12563e-13
3.92442e-09
-7.95231e-13
3.92511e-09
-6.92151e-13
3.92571e-09
-6.01959e-13
3.92623e-09
-5.23401e-13
3.92669e-09
-4.55229e-13
3.92708e-09
-3.96242e-13
3.92743e-09
-3.45306e-13
3.92773e-09
-3.01307e-13
3.92799e-09
-2.63198e-13
3.92822e-09
-2.30027e-13
3.92842e-09
-2.00874e-13
3.9286e-09
-1.74923e-13
3.92875e-09
-1.51414e-13
3.92888e-09
-1.29642e-13
3.92899e-09
-1.08936e-13
3.92908e-09
-8.85728e-14
3.92915e-09
-6.77286e-14
3.92919e-09
-4.53803e-14
3.92921e-09
-2.0526e-14
3.92921e-09
5.66533e-15
8.31168e-14
3.34257e-08
3.147e-09
-3.36952e-08
3.28426e-08
3.44555e-09
3.20276e-08
3.50118e-09
3.10577e-08
3.44614e-09
2.99882e-08
3.31962e-09
2.88646e-08
3.13695e-09
2.77239e-08
2.91495e-09
2.65943e-08
2.66998e-09
2.54968e-08
2.41597e-09
2.44461e-08
2.16443e-09
2.34516e-08
1.92446e-09
2.25188e-08
1.7026e-09
2.16496e-08
1.50279e-09
2.08435e-08
1.32664e-09
2.00985e-08
1.17393e-09
1.94111e-08
1.0431e-09
1.87776e-08
9.31818e-10
1.81937e-08
8.3744e-10
1.76551e-08
7.57298e-10
1.71579e-08
6.88932e-10
1.66981e-08
6.30195e-10
1.62721e-08
5.79281e-10
1.58769e-08
5.34722e-10
1.55093e-08
4.95341e-10
1.5167e-08
4.6021e-10
1.48477e-08
4.286e-10
1.45494e-08
3.99934e-10
1.42703e-08
3.73753e-10
1.4009e-08
3.4969e-10
1.37641e-08
3.27441e-10
1.35346e-08
3.06753e-10
1.33194e-08
2.87412e-10
1.31177e-08
2.69231e-10
1.29287e-08
2.5205e-10
1.2752e-08
2.35724e-10
1.25869e-08
2.20128e-10
1.24329e-08
2.05148e-10
1.22899e-08
1.90682e-10
1.21574e-08
1.76632e-10
1.20352e-08
1.62902e-10
1.19233e-08
1.49386e-10
1.18216e-08
1.35962e-10
1.17302e-08
1.22483e-10
1.16492e-08
1.08775e-10
1.15788e-08
9.46517e-11
1.15195e-08
7.99343e-11
1.14715e-08
6.45057e-11
1.14351e-08
4.83601e-11
1.14103e-08
3.16151e-11
1.13973e-08
1.4357e-11
1.13959e-08
-1.29695e-12
1.14032e-08
-1.30968e-11
1.14166e-08
-2.11864e-11
1.14339e-08
-2.65756e-11
1.14537e-08
-2.98077e-11
1.14747e-08
-3.13136e-11
1.1496e-08
-3.14984e-11
1.1517e-08
-3.07265e-11
1.15371e-08
-2.93091e-11
1.15561e-08
-2.74963e-11
1.15738e-08
-2.54781e-11
1.15901e-08
-2.33905e-11
1.16051e-08
-2.13255e-11
1.16187e-08
-1.93405e-11
1.1631e-08
-1.74681e-11
1.16422e-08
-1.57239e-11
1.16522e-08
-1.41125e-11
1.16612e-08
-1.26321e-11
1.16692e-08
-1.1277e-11
1.16764e-08
-1.00401e-11
1.16828e-08
-8.91383e-12
1.16884e-08
-7.89064e-12
1.16933e-08
-6.96359e-12
1.16977e-08
-6.1262e-12
1.17015e-08
-5.37246e-12
1.17049e-08
-4.69675e-12
1.17078e-08
-4.09376e-12
1.17103e-08
-3.55834e-12
1.17124e-08
-3.08543e-12
1.17143e-08
-2.67001e-12
1.17159e-08
-2.30717e-12
1.17173e-08
-1.992e-12
1.17185e-08
-1.71962e-12
1.17195e-08
-1.48529e-12
1.17204e-08
-1.28437e-12
1.17212e-08
-1.11245e-12
1.17219e-08
-9.65306e-13
1.17224e-08
-8.39051e-13
1.17229e-08
-7.30086e-13
1.17234e-08
-6.35153e-13
1.17238e-08
-5.51306e-13
1.17241e-08
-4.75937e-13
1.17244e-08
-4.06668e-13
1.17246e-08
-3.41299e-13
1.17248e-08
-2.77604e-13
1.17249e-08
-2.13112e-13
1.1725e-08
-1.44789e-13
1.17251e-08
-6.99411e-14
1.17251e-08
1.55895e-14
1.72995e-13
3.48211e-08
2.99227e-09
-3.46664e-08
3.48878e-08
3.3789e-09
3.48285e-08
3.56046e-09
3.46489e-08
3.62569e-09
3.43598e-08
3.60878e-09
3.39753e-08
3.52145e-09
3.35128e-08
3.37741e-09
3.29902e-08
3.19258e-09
3.24242e-08
2.98202e-09
3.18296e-08
2.75902e-09
3.12192e-08
2.53482e-09
3.06036e-08
2.31826e-09
2.99908e-08
2.11554e-09
2.93871e-08
1.93033e-09
2.87969e-08
1.76418e-09
2.8223e-08
1.61696e-09
2.76674e-08
1.48746e-09
2.7131e-08
1.37385e-09
2.66142e-08
1.27404e-09
2.61172e-08
1.18597e-09
2.56396e-08
1.10774e-09
2.51812e-08
1.0377e-09
2.47415e-08
9.74464e-10
2.43199e-08
9.16903e-10
2.3916e-08
8.641e-10
2.35293e-08
8.15321e-10
2.31593e-08
7.69976e-10
2.28054e-08
7.27584e-10
2.24674e-08
6.87748e-10
2.21447e-08
6.50133e-10
2.1837e-08
6.14452e-10
2.15439e-08
5.80451e-10
2.12653e-08
5.47905e-10
2.10007e-08
5.16609e-10
2.075e-08
4.86375e-10
2.05131e-08
4.5703e-10
2.02899e-08
4.28412e-10
2.00802e-08
4.00366e-10
1.98841e-08
3.72738e-10
1.97016e-08
3.45369e-10
1.95329e-08
3.18087e-10
1.93782e-08
2.90699e-10
1.92377e-08
2.62992e-10
1.91117e-08
2.34744e-10
1.90006e-08
2.05753e-10
1.89047e-08
1.75891e-10
1.8824e-08
1.45191e-10
1.87584e-08
1.13966e-10
1.8707e-08
8.29555e-11
1.86682e-08
5.32074e-11
1.86417e-08
2.51557e-11
1.86288e-08
-2.03657e-13
1.86278e-08
-2.01805e-11
1.86355e-08
-3.42115e-11
1.86493e-08
-4.36482e-11
1.86674e-08
-4.94281e-11
1.86883e-08
-5.23526e-11
1.87107e-08
-5.31197e-11
1.87337e-08
-5.23247e-11
1.87566e-08
-5.04551e-11
1.8779e-08
-4.78943e-11
1.88006e-08
-4.49313e-11
1.8821e-08
-4.17745e-11
1.88403e-08
-3.85679e-11
1.88582e-08
-3.54063e-11
1.88748e-08
-3.23489e-11
1.88901e-08
-2.94302e-11
1.89042e-08
-2.66686e-11
1.8917e-08
-2.40725e-11
1.89286e-08
-2.16439e-11
1.89391e-08
-1.93819e-11
1.89484e-08
-1.72838e-11
1.89568e-08
-1.5346e-11
1.89643e-08
-1.35647e-11
1.89708e-08
-1.19356e-11
1.89766e-08
-1.04541e-11
1.89816e-08
-9.11529e-12
1.8986e-08
-7.91327e-12
1.89897e-08
-6.84165e-12
1.89929e-08
-5.89322e-12
1.89957e-08
-5.06e-12
1.8998e-08
-4.33345e-12
1.9e-08
-3.70437e-12
1.90017e-08
-3.16336e-12
1.90031e-08
-2.70072e-12
1.90043e-08
-2.30695e-12
1.90053e-08
-1.97269e-12
1.90062e-08
-1.6891e-12
1.90069e-08
-1.44788e-12
1.90075e-08
-1.24143e-12
1.9008e-08
-1.06285e-12
1.90084e-08
-9.06022e-13
1.90088e-08
-7.65447e-13
1.90091e-08
-6.36155e-13
1.90093e-08
-5.13394e-13
1.90095e-08
-3.9223e-13
1.90096e-08
-2.67006e-13
1.90097e-08
-1.31889e-13
1.90097e-08
2.3779e-14
2.63831e-13
3.56564e-08
2.79926e-09
-3.54634e-08
3.58533e-08
3.18194e-09
3.60094e-08
3.40444e-09
3.61121e-08
3.52293e-09
3.61551e-08
3.56579e-09
3.61345e-08
3.54208e-09
3.60508e-08
3.4611e-09
3.59082e-08
3.33523e-09
3.57128e-08
3.17734e-09
3.54724e-08
2.99949e-09
3.51948e-08
2.81242e-09
3.48879e-08
2.62511e-09
3.45591e-08
2.44439e-09
3.42145e-08
2.27487e-09
3.38596e-08
2.11913e-09
3.34984e-08
1.97811e-09
3.31343e-08
1.85154e-09
3.27698e-08
1.73836e-09
3.24067e-08
1.63714e-09
3.20464e-08
1.54626e-09
3.169e-08
1.46418e-09
3.13382e-08
1.38949e-09
3.09917e-08
1.32096e-09
3.0651e-08
1.25758e-09
3.03166e-08
1.19848e-09
2.9989e-08
1.143e-09
2.96684e-08
1.09056e-09
2.93553e-08
1.04071e-09
2.90499e-08
9.93074e-10
2.87527e-08
9.47318e-10
2.8464e-08
9.03163e-10
2.81841e-08
8.60357e-10
2.79134e-08
8.18673e-10
2.76521e-08
7.77901e-10
2.74006e-08
7.37844e-10
2.71593e-08
6.98314e-10
2.69286e-08
6.5913e-10
2.67089e-08
6.20113e-10
2.65005e-08
5.81082e-10
2.6304e-08
5.41843e-10
2.61199e-08
5.02191e-10
2.59487e-08
4.61904e-10
2.5791e-08
4.20756e-10
2.56472e-08
3.7854e-10
2.55178e-08
3.35122e-10
2.54032e-08
2.90514e-10
2.53034e-08
2.44981e-10
2.52182e-08
1.99162e-10
2.5147e-08
1.54156e-10
2.50887e-08
1.1145e-10
2.50414e-08
7.2513e-11
2.50035e-08
3.76858e-11
2.49766e-08
6.71516e-12
2.49611e-08
-1.87441e-11
2.4955e-08
-3.75447e-11
2.49564e-08
-5.07975e-11
2.49636e-08
-5.95538e-11
2.49752e-08
-6.47429e-11
2.49901e-08
-6.71825e-11
2.50072e-08
-6.75681e-11
2.50258e-08
-6.64694e-11
2.50452e-08
-6.43367e-11
2.50649e-08
-6.1514e-11
2.50846e-08
-5.82565e-11
2.51039e-08
-5.47481e-11
2.51227e-08
-5.11186e-11
2.51407e-08
-4.74578e-11
2.51579e-08
-4.38274e-11
2.51741e-08
-4.027e-11
2.51893e-08
-3.68152e-11
2.52034e-08
-3.34848e-11
2.52164e-08
-3.02956e-11
2.52283e-08
-2.72609e-11
2.52391e-08
-2.43919e-11
2.52489e-08
-2.1698e-11
2.52576e-08
-1.91866e-11
2.52654e-08
-1.68632e-11
2.52722e-08
-1.47312e-11
2.52781e-08
-1.27915e-11
2.52833e-08
-1.10422e-11
2.52877e-08
-9.47898e-12
2.52915e-08
-8.09499e-12
2.52946e-08
-6.88088e-12
2.52973e-08
-5.82539e-12
2.52995e-08
-4.91558e-12
2.53013e-08
-4.13745e-12
2.53029e-08
-3.4763e-12
2.53041e-08
-2.91731e-12
2.53051e-08
-2.44594e-12
2.53059e-08
-2.04832e-12
2.53065e-08
-1.71145e-12
2.53071e-08
-1.42348e-12
2.53075e-08
-1.17365e-12
2.53078e-08
-9.52256e-13
2.5308e-08
-7.50276e-13
2.53082e-08
-5.58931e-13
2.53083e-08
-3.68957e-13
2.53083e-08
-1.71346e-13
2.53083e-08
5.42124e-14
3.81645e-13
3.64085e-08
2.63013e-09
-3.62393e-08
3.66077e-08
2.98266e-09
3.6801e-08
3.21114e-09
3.69756e-08
3.34834e-09
3.71241e-08
3.41735e-09
3.72392e-08
3.42692e-09
3.73162e-08
3.38414e-09
3.73528e-08
3.29861e-09
3.73493e-08
3.18088e-09
3.73076e-08
3.04117e-09
3.72312e-08
2.88882e-09
3.71243e-08
2.73197e-09
3.69916e-08
2.57712e-09
3.68375e-08
2.42896e-09
3.66662e-08
2.29047e-09
3.64812e-08
2.16311e-09
3.62855e-08
2.04723e-09
3.60815e-08
1.94235e-09
3.58711e-08
1.84752e-09
3.56558e-08
1.76154e-09
3.54368e-08
1.68317e-09
3.52151e-08
1.61124e-09
3.49914e-08
1.54467e-09
3.47664e-08
1.48256e-09
3.45408e-08
1.42412e-09
3.43151e-08
1.36871e-09
3.40898e-08
1.31579e-09
3.38656e-08
1.26493e-09
3.36429e-08
1.21575e-09
3.34223e-08
1.16792e-09
3.32043e-08
1.12117e-09
3.29895e-08
1.07522e-09
3.27783e-08
1.02987e-09
3.25713e-08
9.8487e-10
3.23691e-08
9.4003e-10
3.21723e-08
8.95144e-10
3.19814e-08
8.50015e-10
3.17971e-08
8.04443e-10
3.16199e-08
7.58227e-10
3.14506e-08
7.11154e-10
3.12898e-08
6.63001e-10
3.11382e-08
6.13545e-10
3.09963e-08
5.62575e-10
3.08649e-08
5.0994e-10
3.07445e-08
4.55601e-10
3.06352e-08
3.99729e-10
3.05374e-08
3.42802e-10
3.04509e-08
2.85705e-10
3.03753e-08
2.29763e-10
3.03101e-08
1.76619e-10
3.02547e-08
1.27902e-10
3.02077e-08
8.46678e-11
3.01673e-08
4.71296e-11
3.0134e-08
1.45963e-11
3.0109e-08
-1.25584e-11
3.00917e-08
-3.35345e-11
3.00812e-08
-4.90096e-11
3.00764e-08
-5.99556e-11
3.00765e-08
-6.72392e-11
3.00805e-08
-7.16269e-11
3.00878e-08
-7.37736e-11
3.00977e-08
-7.42198e-11
3.01096e-08
-7.33969e-11
3.0123e-08
-7.16403e-11
3.01374e-08
-6.92058e-11
3.01526e-08
-6.62851e-11
3.01682e-08
-6.30213e-11
3.01838e-08
-5.95208e-11
3.01994e-08
-5.58645e-11
3.02147e-08
-5.21152e-11
3.02296e-08
-4.83237e-11
3.02438e-08
-4.45327e-11
3.02573e-08
-4.07802e-11
3.027e-08
-3.71004e-11
3.02819e-08
-3.35249e-11
3.02928e-08
-3.00826e-11
3.03027e-08
-2.67999e-11
3.03117e-08
-2.36996e-11
3.03197e-08
-2.0801e-11
3.03268e-08
-1.8119e-11
3.03329e-08
-1.56635e-11
3.03383e-08
-1.34396e-11
3.03429e-08
-1.14474e-11
3.03467e-08
-9.68216e-12
3.03499e-08
-8.1346e-12
3.03526e-08
-6.79188e-12
3.03547e-08
-5.63811e-12
3.03565e-08
-4.65527e-12
3.03579e-08
-3.82406e-12
3.03589e-08
-3.12472e-12
3.03598e-08
-2.53768e-12
3.03604e-08
-2.04419e-12
3.03608e-08
-1.62663e-12
3.03612e-08
-1.26873e-12
3.03614e-08
-9.55376e-13
3.03615e-08
-6.72297e-13
3.03615e-08
-4.05426e-13
3.03615e-08
-1.42413e-13
3.03614e-08
1.50708e-13
5.62955e-13
3.7154e-08
2.48721e-09
-3.70111e-08
3.73325e-08
2.80421e-09
3.75179e-08
3.02568e-09
3.76983e-08
3.16798e-09
3.78672e-08
3.24842e-09
3.80187e-08
3.27541e-09
3.81477e-08
3.25515e-09
3.82509e-08
3.19546e-09
3.83266e-08
3.1052e-09
3.83746e-08
2.9931e-09
3.83962e-08
2.86728e-09
3.83932e-08
2.7349e-09
3.83685e-08
2.60185e-09
3.83248e-08
2.47261e-09
3.82651e-08
2.35018e-09
3.8192e-08
2.23628e-09
3.81076e-08
2.13158e-09
3.8014e-08
2.03599e-09
3.79126e-08
1.94892e-09
3.78046e-08
1.8695e-09
3.7691e-08
1.79674e-09
3.75726e-08
1.72965e-09
3.745e-08
1.66731e-09
3.73236e-08
1.60889e-09
3.71941e-08
1.55368e-09
3.70617e-08
1.50105e-09
3.6927e-08
1.45051e-09
3.67903e-08
1.4016e-09
3.66521e-08
1.35395e-09
3.65128e-08
1.30723e-09
3.63729e-08
1.26114e-09
3.62327e-08
1.21542e-09
3.60927e-08
1.16981e-09
3.59535e-08
1.12408e-09
3.58155e-08
1.07801e-09
3.56793e-08
1.03137e-09
3.55454e-08
9.83947e-10
3.54143e-08
9.35524e-10
3.52866e-08
8.85878e-10
3.5163e-08
8.34783e-10
3.5044e-08
7.82011e-10
3.49302e-08
7.27347e-10
3.48222e-08
6.70612e-10
3.47204e-08
6.11711e-10
3.46253e-08
5.50702e-10
3.45371e-08
4.8788e-10
3.44561e-08
4.23873e-10
3.43821e-08
3.59708e-10
3.4315e-08
2.96807e-10
3.42548e-08
2.36842e-10
3.42012e-08
1.8144e-10
3.41541e-08
1.31792e-10
3.41128e-08
8.84852e-11
3.40759e-08
5.14782e-11
3.40433e-08
2.00371e-11
3.40159e-08
-6.18463e-12
3.3994e-08
-2.70214e-11
3.39769e-08
-4.29531e-11
3.39645e-08
-5.47999e-11
3.39562e-08
-6.33004e-11
3.39515e-08
-6.91021e-11
3.395e-08
-7.27559e-11
3.39514e-08
-7.4715e-11
3.39551e-08
-7.53425e-11
3.39608e-08
-7.49236e-11
3.39682e-08
-7.36796e-11
3.39769e-08
-7.17807e-11
3.39868e-08
-6.93586e-11
3.39974e-08
-6.65166e-11
3.40087e-08
-6.33381e-11
3.40202e-08
-5.98931e-11
3.40319e-08
-5.62429e-11
3.40436e-08
-5.24434e-11
3.4055e-08
-4.85477e-11
3.40661e-08
-4.46067e-11
3.40767e-08
-4.06699e-11
3.40867e-08
-3.67849e-11
3.4096e-08
-3.2997e-11
3.41045e-08
-2.93478e-11
3.41123e-08
-2.58747e-11
3.41192e-08
-2.26092e-11
3.41254e-08
-1.95767e-11
3.41307e-08
-1.67953e-11
3.41353e-08
-1.42756e-11
3.41392e-08
-1.20212e-11
3.41424e-08
-1.00285e-11
3.41451e-08
-8.28785e-12
3.41472e-08
-6.78437e-12
3.41489e-08
-5.49911e-12
3.41502e-08
-4.41029e-12
3.41511e-08
-3.49445e-12
3.41518e-08
-2.72756e-12
3.41523e-08
-2.08584e-12
3.41526e-08
-1.54645e-12
3.41527e-08
-1.08776e-12
3.41527e-08
-6.8949e-13
3.41526e-08
-3.3358e-13
3.41525e-08
1.81883e-15
3.41523e-08
3.63973e-13
8.47496e-13
3.79049e-08
2.36461e-09
-3.77823e-08
3.80619e-08
2.64722e-09
3.82311e-08
2.85645e-09
3.84009e-08
2.9982e-09
3.85652e-08
3.0841e-09
3.87191e-08
3.12155e-09
3.88581e-08
3.11609e-09
3.89793e-08
3.07429e-09
3.90808e-08
3.0037e-09
3.9162e-08
2.91191e-09
3.92233e-08
2.80603e-09
3.92657e-08
2.69244e-09
3.92911e-08
2.57647e-09
3.93014e-08
2.46228e-09
3.92988e-08
2.35282e-09
3.92852e-08
2.24992e-09
3.92623e-08
2.15446e-09
3.92316e-08
2.06664e-09
3.91944e-08
1.98614e-09
3.91516e-08
1.91234e-09
3.91038e-08
1.84448e-09
3.90518e-08
1.78172e-09
3.89958e-08
1.72328e-09
3.89363e-08
1.66841e-09
3.88735e-08
1.61646e-09
3.88077e-08
1.56685e-09
3.87392e-08
1.51907e-09
3.86681e-08
1.47269e-09
3.85947e-08
1.42733e-09
3.85193e-08
1.38264e-09
3.84421e-08
1.33832e-09
3.83634e-08
1.29409e-09
3.82836e-08
1.24968e-09
3.82028e-08
1.20483e-09
3.81215e-08
1.1593e-09
3.804e-08
1.11286e-09
3.79587e-08
1.06527e-09
3.7878e-08
1.01628e-09
3.77982e-08
9.65679e-10
3.77197e-08
9.13217e-10
3.76431e-08
8.58672e-10
3.75686e-08
8.01842e-10
3.74966e-08
7.42583e-10
3.74275e-08
6.80852e-10
3.73614e-08
6.16777e-10
3.72985e-08
5.50735e-10
3.7239e-08
4.83432e-10
3.71827e-08
4.15943e-10
3.71299e-08
3.49687e-10
3.70804e-08
2.86284e-10
3.70346e-08
2.27288e-10
3.69925e-08
1.73893e-10
3.69542e-08
1.2679e-10
3.69195e-08
8.61647e-11
3.68878e-08
5.17425e-11
3.68588e-08
2.28273e-11
3.68329e-08
-1.19932e-12
3.68106e-08
-2.06052e-11
3.67916e-08
-3.58414e-11
3.67759e-08
-4.7585e-11
3.67633e-08
-5.64441e-11
3.67534e-08
-6.29435e-11
3.67463e-08
-6.75233e-11
3.67415e-08
-7.05425e-11
3.67388e-08
-7.22878e-11
3.67381e-08
-7.29844e-11
3.67391e-08
-7.28081e-11
3.67417e-08
-7.18962e-11
3.67455e-08
-7.03576e-11
3.67505e-08
-6.82808e-11
3.67563e-08
-6.57409e-11
3.67629e-08
-6.28044e-11
3.677e-08
-5.95337e-11
3.67774e-08
-5.59893e-11
3.6785e-08
-5.22313e-11
3.67927e-08
-4.83206e-11
3.68002e-08
-4.43186e-11
3.68075e-08
-4.02862e-11
3.68144e-08
-3.6283e-11
3.68209e-08
-3.23657e-11
3.68269e-08
-2.85863e-11
3.68323e-08
-2.49909e-11
3.68371e-08
-2.16178e-11
3.68414e-08
-1.8497e-11
3.6845e-08
-1.56489e-11
3.68481e-08
-1.3085e-11
3.68506e-08
-1.08076e-11
3.68526e-08
-8.81085e-12
3.68542e-08
-7.08164e-12
3.68554e-08
-5.60137e-12
3.68562e-08
-4.34712e-12
3.68568e-08
-3.29328e-12
3.68571e-08
-2.41284e-12
3.68573e-08
-1.67864e-12
3.68572e-08
-1.0642e-12
3.68571e-08
-5.44995e-13
3.68568e-08
-9.66471e-14
3.68565e-08
3.16331e-13
3.68562e-08
7.43357e-13
1.26942e-12
3.86628e-08
2.25719e-09
-3.85553e-08
3.88014e-08
2.50861e-09
3.89543e-08
2.70351e-09
3.91108e-08
2.8417e-09
3.92648e-08
2.93009e-09
3.94118e-08
2.97461e-09
3.95478e-08
2.98007e-09
3.967e-08
2.95201e-09
3.97769e-08
2.89685e-09
3.98676e-08
2.82117e-09
3.99424e-08
2.73127e-09
4.0002e-08
2.63283e-09
4.00478e-08
2.53068e-09
4.00813e-08
2.42872e-09
4.01044e-08
2.32978e-09
4.01185e-08
2.23576e-09
4.01253e-08
2.14771e-09
4.01259e-08
2.06602e-09
4.01214e-08
1.99061e-09
4.01127e-08
1.92109e-09
4.01003e-08
1.85688e-09
4.00847e-08
1.79731e-09
4.00663e-08
1.74171e-09
4.00452e-08
1.68944e-09
4.00218e-08
1.6399e-09
3.99961e-08
1.59255e-09
3.99683e-08
1.5469e-09
3.99384e-08
1.50255e-09
3.99066e-08
1.4591e-09
3.98731e-08
1.41621e-09
3.98378e-08
1.37358e-09
3.9801e-08
1.33089e-09
3.97628e-08
1.28789e-09
3.97233e-08
1.2443e-09
3.96828e-08
1.19987e-09
3.96413e-08
1.15434e-09
3.95991e-08
1.10747e-09
3.95563e-08
1.05902e-09
3.95133e-08
1.00873e-09
3.94701e-08
9.56385e-10
3.9427e-08
9.01759e-10
3.93842e-08
8.44671e-10
3.93418e-08
7.85007e-10
3.92999e-08
7.22765e-10
3.92585e-08
6.58121e-10
3.92178e-08
5.91492e-10
3.91776e-08
5.23604e-10
3.9138e-08
4.55514e-10
3.90991e-08
3.88573e-10
3.90611e-08
3.24291e-10
3.90243e-08
2.64116e-10
3.8989e-08
2.09191e-10
3.89556e-08
1.60229e-10
3.89242e-08
1.17504e-10
3.88951e-08
8.09057e-11
3.88679e-08
5.00147e-11
3.88425e-08
2.41851e-11
3.88191e-08
2.74429e-12
3.87981e-08
-1.4766e-11
3.87793e-08
-2.87932e-11
3.87627e-08
-3.98966e-11
3.87483e-08
-4.85686e-11
3.87361e-08
-5.52273e-11
3.87257e-08
-6.02177e-11
3.87173e-08
-6.38181e-11
3.87105e-08
-6.62489e-11
3.87054e-08
-6.76828e-11
3.87018e-08
-6.82548e-11
3.86995e-08
-6.80712e-11
3.86984e-08
-6.7218e-11
3.86984e-08
-6.57676e-11
3.86994e-08
-6.37843e-11
3.87012e-08
-6.13284e-11
3.87037e-08
-5.84594e-11
3.87067e-08
-5.52381e-11
3.87101e-08
-5.17281e-11
3.87138e-08
-4.79952e-11
3.87176e-08
-4.41077e-11
3.87214e-08
-4.01348e-11
3.87252e-08
-3.6145e-11
3.87288e-08
-3.22042e-11
3.87322e-08
-2.83739e-11
3.87353e-08
-2.47086e-11
3.87381e-08
-2.12546e-11
3.87405e-08
-1.80486e-11
3.87425e-08
-1.51166e-11
3.87442e-08
-1.24742e-11
3.87455e-08
-1.01266e-11
3.87465e-08
-8.06957e-12
3.87472e-08
-6.2909e-12
3.87476e-08
-4.77166e-12
3.87478e-08
-3.48815e-12
3.87478e-08
-2.41347e-12
3.87476e-08
-1.5192e-12
3.87473e-08
-7.76972e-13
3.87469e-08
-1.57718e-13
3.87465e-08
3.72582e-13
3.87459e-08
8.50517e-13
3.87454e-08
1.31817e-12
1.84684e-12
3.94281e-08
2.16131e-09
-3.93322e-08
3.95515e-08
2.38525e-09
3.96897e-08
2.56524e-09
3.98334e-08
2.69803e-09
3.99765e-08
2.787e-09
4.01147e-08
2.83645e-09
4.02443e-08
2.85044e-09
4.03627e-08
2.83357e-09
4.04683e-08
2.79125e-09
4.05603e-08
2.72918e-09
4.06387e-08
2.65288e-09
4.07041e-08
2.56742e-09
4.07576e-08
2.47717e-09
4.08006e-08
2.38576e-09
4.08345e-08
2.2959e-09
4.08607e-08
2.2095e-09
4.08807e-08
2.12774e-09
4.08955e-08
2.05117e-09
4.09062e-08
1.97991e-09
4.09136e-08
1.91377e-09
4.09181e-08
1.85233e-09
4.09203e-08
1.79509e-09
4.09206e-08
1.74149e-09
4.0919e-08
1.69098e-09
4.09159e-08
1.64302e-09
4.09113e-08
1.59715e-09
4.09053e-08
1.5529e-09
4.0898e-08
1.50987e-09
4.08894e-08
1.46771e-09
4.08795e-08
1.42606e-09
4.08685e-08
1.38463e-09
4.08563e-08
1.34311e-09
4.08429e-08
1.30122e-09
4.08285e-08
1.25871e-09
4.08131e-08
1.2153e-09
4.07967e-08
1.17075e-09
4.07793e-08
1.1248e-09
4.07612e-08
1.07721e-09
4.07421e-08
1.02774e-09
4.07224e-08
9.76162e-10
4.07018e-08
9.22277e-10
4.06806e-08
8.65923e-10
4.06586e-08
8.07016e-10
4.06358e-08
7.45584e-10
4.06121e-08
6.81832e-10
4.05874e-08
6.16189e-10
4.05616e-08
5.49362e-10
4.05348e-08
4.82352e-10
4.05069e-08
4.16404e-10
4.04783e-08
3.52895e-10
4.04493e-08
2.93142e-10
4.04203e-08
2.38214e-10
4.03917e-08
1.88809e-10
4.0364e-08
1.45245e-10
4.03374e-08
1.07498e-10
4.03121e-08
7.5272e-11
4.02882e-08
4.80841e-11
4.02656e-08
2.53403e-11
4.02444e-08
6.4167e-12
4.02248e-08
-9.18211e-12
4.02068e-08
-2.18898e-11
4.01904e-08
-3.21572e-11
4.01756e-08
-4.03805e-11
4.01622e-08
-4.68899e-11
4.01504e-08
-5.19537e-11
4.01399e-08
-5.57863e-11
4.01308e-08
-5.85559e-11
4.01229e-08
-6.03942e-11
4.01162e-08
-6.14043e-11
4.01107e-08
-6.16687e-11
4.01062e-08
-6.12557e-11
4.01026e-08
-6.02256e-11
4.00999e-08
-5.86344e-11
4.0098e-08
-5.65379e-11
4.00968e-08
-5.3994e-11
4.00961e-08
-5.1064e-11
4.00959e-08
-4.78133e-11
4.00961e-08
-4.43116e-11
4.00966e-08
-4.0631e-11
4.00973e-08
-3.68452e-11
4.00981e-08
-3.30273e-11
4.0099e-08
-2.92472e-11
4.00999e-08
-2.55694e-11
4.01007e-08
-2.20512e-11
4.01014e-08
-1.87404e-11
4.01019e-08
-1.56745e-11
4.01023e-08
-1.28796e-11
4.01026e-08
-1.03706e-11
4.01027e-08
-8.15172e-12
4.01026e-08
-6.21761e-12
4.01024e-08
-4.55467e-12
4.0102e-08
-3.14292e-12
4.01016e-08
-1.95776e-12
4.0101e-08
-9.71892e-13
4.01004e-08
-1.55225e-13
4.00997e-08
5.25513e-13
4.0099e-08
1.10301e-12
4.00982e-08
1.60985e-12
4.00975e-08
2.08399e-12
2.57605e-12
4.02014e-08
2.07445e-09
-4.01146e-08
4.03122e-08
2.27445e-09
4.04376e-08
2.43987e-09
4.05695e-08
2.56613e-09
4.07022e-08
2.65425e-09
4.08316e-08
2.70704e-09
4.09543e-08
2.72774e-09
4.10678e-08
2.72016e-09
4.11702e-08
2.6888e-09
4.12609e-08
2.63854e-09
4.13396e-08
2.57419e-09
4.14067e-08
2.50024e-09
4.14632e-08
2.42067e-09
4.15102e-08
2.33878e-09
4.15489e-08
2.25718e-09
4.15807e-08
2.17775e-09
4.16067e-08
2.10173e-09
4.16281e-08
2.02982e-09
4.16457e-08
1.9623e-09
4.16603e-08
1.89913e-09
4.16726e-08
1.84006e-09
4.16829e-08
1.78472e-09
4.16918e-08
1.73268e-09
4.16993e-08
1.68346e-09
4.17057e-08
1.63662e-09
4.17111e-08
1.59173e-09
4.17156e-08
1.54838e-09
4.17193e-08
1.5062e-09
4.17221e-08
1.46484e-09
4.17242e-08
1.42398e-09
4.17255e-08
1.38332e-09
4.17261e-08
1.34257e-09
4.17258e-08
1.30146e-09
4.17248e-08
1.25972e-09
4.1723e-08
1.21711e-09
4.17204e-08
1.17337e-09
4.17169e-08
1.12826e-09
4.17126e-08
1.08154e-09
4.17073e-08
1.03299e-09
4.17011e-08
9.82383e-10
4.16938e-08
9.2955e-10
4.16854e-08
8.74352e-10
4.16757e-08
8.16729e-10
4.16645e-08
7.56738e-10
4.16518e-08
6.94595e-10
4.16372e-08
6.30727e-10
4.16208e-08
5.65803e-10
4.16024e-08
5.00746e-10
4.15821e-08
4.36683e-10
4.15602e-08
3.74851e-10
4.15369e-08
3.16434e-10
4.15127e-08
2.6241e-10
4.1488e-08
2.13449e-10
4.14634e-08
1.69886e-10
4.14392e-08
1.31752e-10
4.14156e-08
9.88349e-11
4.13929e-08
7.07479e-11
4.13713e-08
4.69994e-11
4.13506e-08
2.70515e-11
4.13311e-08
1.03722e-11
4.13127e-08
-3.50694e-12
4.12955e-08
-1.49779e-11
4.12795e-08
-2.44018e-11
4.12647e-08
-3.20943e-11
4.12511e-08
-3.83141e-11
4.12386e-08
-4.32693e-11
4.12272e-08
-4.71244e-11
4.12168e-08
-5.00083e-11
4.12074e-08
-5.2022e-11
4.1199e-08
-5.32455e-11
4.11915e-08
-5.37448e-11
4.11848e-08
-5.35769e-11
4.1179e-08
-5.27947e-11
4.11739e-08
-5.14506e-11
4.11695e-08
-4.95991e-11
4.11657e-08
-4.72988e-11
4.11625e-08
-4.4613e-11
4.11598e-08
-4.16098e-11
4.11575e-08
-3.83614e-11
4.11556e-08
-3.49424e-11
4.1154e-08
-3.14281e-11
4.11527e-08
-2.7892e-11
4.11515e-08
-2.44035e-11
4.11505e-08
-2.10253e-11
4.11496e-08
-1.78117e-11
4.11487e-08
-1.4807e-11
4.11479e-08
-1.20441e-11
4.1147e-08
-9.54494e-12
4.11462e-08
-7.31992e-12
4.11454e-08
-5.36939e-12
4.11445e-08
-3.68467e-12
4.11436e-08
-2.2498e-12
4.11427e-08
-1.04322e-12
4.11417e-08
-3.84723e-14
4.11408e-08
7.94318e-13
4.11398e-08
1.48513e-12
4.11389e-08
2.06378e-12
4.11379e-08
2.56125e-12
4.1137e-08
3.00955e-12
3.43687e-12
4.09833e-08
1.99482e-09
-4.09037e-08
4.10837e-08
2.17407e-09
4.11979e-08
2.32571e-09
4.13191e-08
2.44488e-09
4.14423e-08
2.53109e-09
4.15634e-08
2.58593e-09
4.16793e-08
2.61186e-09
4.17875e-08
2.61196e-09
4.18863e-08
2.58998e-09
4.19748e-08
2.55003e-09
4.20527e-08
2.49628e-09
4.21203e-08
2.43271e-09
4.21781e-08
2.36285e-09
4.22271e-08
2.28975e-09
4.22684e-08
2.21586e-09
4.23032e-08
2.143e-09
4.23324e-08
2.07247e-09
4.23572e-08
2.00504e-09
4.23784e-08
1.94113e-09
4.23967e-08
1.88083e-09
4.24127e-08
1.82403e-09
4.24269e-08
1.77048e-09
4.24398e-08
1.71986e-09
4.24514e-08
1.67179e-09
4.24622e-08
1.62589e-09
4.24721e-08
1.58179e-09
4.24814e-08
1.53912e-09
4.249e-08
1.49754e-09
4.24981e-08
1.45674e-09
4.25057e-08
1.41642e-09
4.25127e-08
1.37628e-09
4.25192e-08
1.33606e-09
4.25252e-08
1.29549e-09
4.25306e-08
1.25433e-09
4.25354e-08
1.21233e-09
4.25395e-08
1.16925e-09
4.25429e-08
1.12486e-09
4.25455e-08
1.07893e-09
4.25472e-08
1.03126e-09
4.2548e-08
9.81657e-10
4.25476e-08
9.29955e-10
4.25459e-08
8.76047e-10
4.25427e-08
8.199e-10
4.25378e-08
7.61588e-10
4.25311e-08
7.01337e-10
4.25223e-08
6.39557e-10
4.25112e-08
5.76874e-10
4.24978e-08
5.14128e-10
4.24822e-08
4.5233e-10
4.24644e-08
3.9258e-10
4.24449e-08
3.35935e-10
4.24241e-08
2.83282e-10
4.24023e-08
2.35248e-10
4.238e-08
1.92173e-10
4.23576e-08
1.5413e-10
4.23355e-08
1.20967e-10
4.23139e-08
9.23703e-11
4.22929e-08
6.79248e-11
4.22728e-08
4.71644e-11
4.22536e-08
2.96185e-11
4.22352e-08
1.48385e-11
4.22178e-08
2.42083e-12
4.22014e-08
-7.97334e-12
4.21859e-08
-1.66337e-11
4.21714e-08
-2.38085e-11
4.21579e-08
-2.96992e-11
4.21452e-08
-3.44667e-11
4.21334e-08
-3.82374e-11
4.21225e-08
-4.11109e-11
4.21124e-08
-4.31658e-11
4.21032e-08
-4.44669e-11
4.20947e-08
-4.50695e-11
4.20869e-08
-4.50246e-11
4.20798e-08
-4.43825e-11
4.20734e-08
-4.31956e-11
4.20676e-08
-4.15201e-11
4.20624e-08
-3.94171e-11
4.20578e-08
-3.6953e-11
4.20536e-08
-3.41984e-11
4.20499e-08
-3.12273e-11
4.20466e-08
-2.81146e-11
4.20436e-08
-2.49345e-11
4.2041e-08
-2.17575e-11
4.20386e-08
-1.86486e-11
4.20365e-08
-1.56649e-11
4.20345e-08
-1.28538e-11
4.20327e-08
-1.02521e-11
4.20311e-08
-7.8857e-12
4.20295e-08
-5.76922e-12
4.2028e-08
-3.90708e-12
4.20267e-08
-2.29449e-12
4.20253e-08
-9.18928e-13
4.2024e-08
2.38915e-13
4.20228e-08
1.20285e-12
4.20216e-08
1.99883e-12
4.20204e-08
2.65417e-12
4.20193e-08
3.19693e-12
4.20182e-08
3.65503e-12
4.20172e-08
4.0538e-12
4.40233e-12
4.17745e-08
1.92114e-09
-4.17008e-08
4.18662e-08
2.08238e-09
4.19706e-08
2.22128e-09
4.20823e-08
2.33319e-09
4.21966e-08
2.41672e-09
4.231e-08
2.47257e-09
4.24194e-08
2.50248e-09
4.25224e-08
2.5089e-09
4.26175e-08
2.4949e-09
4.27036e-08
2.46395e-09
4.27803e-08
2.41962e-09
4.28476e-08
2.36538e-09
4.2906e-08
2.30441e-09
4.29563e-08
2.23946e-09
4.29994e-08
2.17281e-09
4.30361e-08
2.10623e-09
4.30676e-08
2.041e-09
4.30947e-08
1.97798e-09
4.31181e-08
1.91766e-09
4.31387e-08
1.86025e-09
4.3157e-08
1.80576e-09
4.31734e-08
1.75405e-09
4.31884e-08
1.70488e-09
4.32022e-08
1.65797e-09
4.32151e-08
1.613e-09
4.32272e-08
1.56966e-09
4.32387e-08
1.52763e-09
4.32497e-08
1.4866e-09
4.32601e-08
1.44629e-09
4.32701e-08
1.40641e-09
4.32797e-08
1.36671e-09
4.32888e-08
1.32692e-09
4.32975e-08
1.2868e-09
4.33057e-08
1.24612e-09
4.33134e-08
1.20463e-09
4.33206e-08
1.16213e-09
4.3327e-08
1.11839e-09
4.33328e-08
1.0732e-09
4.33376e-08
1.02638e-09
4.33415e-08
9.77759e-10
4.33443e-08
9.27195e-10
4.33457e-08
8.74604e-10
4.33457e-08
8.19976e-10
4.33438e-08
7.63402e-10
4.33401e-08
7.0511e-10
4.33341e-08
6.45492e-10
4.33259e-08
5.85127e-10
4.33152e-08
5.24774e-10
4.33022e-08
4.65337e-10
4.3287e-08
4.07791e-10
4.32699e-08
3.53074e-10
4.32512e-08
3.01988e-10
4.32313e-08
2.55113e-10
4.32107e-08
2.12785e-10
4.31897e-08
1.75103e-10
4.31687e-08
1.41966e-10
4.3148e-08
1.13121e-10
4.31277e-08
8.82141e-11
4.3108e-08
6.68405e-11
4.3089e-08
4.85804e-11
4.30709e-08
3.3028e-11
4.30535e-08
1.98096e-11
4.30369e-08
8.59425e-12
4.30212e-08
-9.00525e-13
4.30063e-08
-8.90798e-12
4.29922e-08
-1.56207e-11
4.29789e-08
-2.11949e-11
4.29664e-08
-2.57548e-11
4.29547e-08
-2.9398e-11
4.29438e-08
-3.22027e-11
4.29335e-08
-3.42324e-11
4.2924e-08
-3.55419e-11
4.29152e-08
-3.61813e-11
4.2907e-08
-3.61995e-11
4.28994e-08
-3.56476e-11
4.28925e-08
-3.45802e-11
4.28861e-08
-3.30568e-11
4.28803e-08
-3.1142e-11
4.2875e-08
-2.89048e-11
4.28702e-08
-2.64175e-11
4.28658e-08
-2.37539e-11
4.28619e-08
-2.09872e-11
4.28583e-08
-1.81874e-11
4.28551e-08
-1.54196e-11
4.28522e-08
-1.27413e-11
4.28495e-08
-1.02013e-11
4.28471e-08
-7.83795e-12
4.28449e-08
-5.67932e-12
4.28429e-08
-3.74262e-12
4.2841e-08
-2.0351e-12
4.28393e-08
-5.54787e-13
4.28376e-08
7.08241e-13
4.28361e-08
1.76997e-12
4.28347e-08
2.65061e-12
4.28333e-08
3.3734e-12
4.2832e-08
3.9633e-12
4.28307e-08
4.44572e-12
4.28295e-08
4.84494e-12
4.28284e-08
5.18004e-12
5.44689e-12
4.25755e-08
1.85244e-09
-4.25068e-08
4.26598e-08
1.99804e-09
4.27558e-08
2.12532e-09
4.28589e-08