/*--------------------------------*- C++ -*----------------------------------*\
| =========                 |                                                 |
| \\      /  F ield         | OpenFOAM: The Open Source CFD Toolbox           |
|  \\    /   O peration     | Version:  2.3.0                                 |
|   \\  /    A nd           | Web:      www.OpenFOAM.org                      |
|    \\/     M anipulation  |                                                 |
\*---------------------------------------------------------------------------*/
FoamFile
{
    version     2.0;
    format      ascii;
    class       surfaceScalarField;
    location    "0.55";
    object      phi;
}
// * * * * * * * * * * * * * * * * * * * * * * * * * * * * * * * * * * * * * //

dimensions      [0 3 -1 0 0 0 0];

internalField   nonuniform List<scalar> 
6598
(
2.85976e-08
2.85914e-09
-3.14568e-08
2.57449e-08
2.85278e-09
2.30662e-08
2.67864e-09
2.05963e-08
2.46991e-09
1.83513e-08
2.24505e-09
1.63419e-08
2.00935e-09
1.45709e-08
1.77103e-09
1.3033e-08
1.5379e-09
1.17165e-08
1.31648e-09
1.06044e-08
1.11209e-09
9.67579e-09
9.28617e-10
8.90744e-09
7.68358e-10
8.27545e-09
6.3198e-10
7.75675e-09
5.18708e-10
7.33009e-09
4.26659e-10
6.97685e-09
3.53241e-10
6.68131e-09
2.95541e-10
6.43066e-09
2.50648e-10
6.21478e-09
2.15877e-10
6.02587e-09
1.88906e-10
5.85805e-09
1.67821e-10
5.70694e-09
1.5111e-10
5.56932e-09
1.37619e-10
5.44283e-09
1.26494e-10
5.32571e-09
1.17117e-10
5.21666e-09
1.0905e-10
5.11467e-09
1.01989e-10
5.01896e-09
9.57194e-11
4.92886e-09
9.00935e-11
4.84386e-09
8.50058e-11
4.76348e-09
8.0379e-11
4.68732e-09
7.61549e-11
4.61503e-09
7.22871e-11
4.5463e-09
6.87375e-11
4.48082e-09
6.54735e-11
4.41836e-09
6.2467e-11
4.35866e-09
5.96925e-11
4.30154e-09
5.71276e-11
4.24678e-09
5.47521e-11
4.19424e-09
5.25477e-11
4.14374e-09
5.04983e-11
4.09515e-09
4.85891e-11
4.04834e-09
4.68072e-11
4.0032e-09
4.51408e-11
3.95962e-09
4.35795e-11
3.91751e-09
4.2114e-11
3.87677e-09
4.07357e-11
3.83734e-09
3.94375e-11
3.79912e-09
3.82124e-11
3.76207e-09
3.70546e-11
3.72611e-09
3.59584e-11
3.69119e-09
3.49192e-11
3.65726e-09
3.39325e-11
3.62426e-09
3.29942e-11
3.59216e-09
3.21008e-11
3.56091e-09
3.1249e-11
3.53048e-09
3.04357e-11
3.50082e-09
2.96582e-11
3.47191e-09
2.8914e-11
3.44371e-09
2.82006e-11
3.41619e-09
2.75161e-11
3.38933e-09
2.68585e-11
3.3631e-09
2.62259e-11
3.33749e-09
2.56165e-11
3.31246e-09
2.50289e-11
3.288e-09
2.44616e-11
3.26408e-09
2.39131e-11
3.2407e-09
2.33822e-11
3.21783e-09
2.28677e-11
3.19547e-09
2.23683e-11
3.17358e-09
2.18831e-11
3.15217e-09
2.1411e-11
3.13122e-09
2.0951e-11
3.11072e-09
2.05022e-11
3.09066e-09
2.00637e-11
3.07102e-09
1.96347e-11
3.05181e-09
1.92143e-11
3.033e-09
1.88018e-11
3.01461e-09
1.83966e-11
2.99661e-09
1.79979e-11
2.979e-09
1.76051e-11
2.96179e-09
1.72177e-11
2.94495e-09
1.68352e-11
2.92849e-09
1.64571e-11
2.91241e-09
1.60832e-11
2.8967e-09
1.5713e-11
2.88135e-09
1.53466e-11
2.86637e-09
1.49839e-11
2.85174e-09
1.46252e-11
2.83747e-09
1.42707e-11
2.82355e-09
1.39214e-11
2.80997e-09
1.35783e-11
2.79673e-09
1.32433e-11
2.78381e-09
1.29198e-11
2.7712e-09
1.26136e-11
2.75886e-09
1.2339e-11
2.74672e-09
1.21367e-11
2.73462e-09
1.20997e-11
2.7222e-09
1.24229e-11
3.24909e-11
3.43093e-08
3.10323e-09
-3.45534e-08
3.37496e-08
3.41246e-09
3.29555e-08
3.47269e-09
3.20045e-08
3.4209e-09
3.0952e-08
3.29755e-09
2.98436e-08
3.11778e-09
2.87163e-08
2.89835e-09
2.75985e-08
2.65566e-09
2.65114e-08
2.40364e-09
2.54697e-08
2.15378e-09
2.44831e-08
1.91516e-09
2.35572e-08
1.69433e-09
2.26939e-08
1.49528e-09
2.18929e-08
1.3197e-09
2.11521e-08
1.16744e-09
2.04683e-08
1.03702e-09
1.98377e-08
9.2618e-10
1.9256e-08
8.32322e-10
1.87191e-08
7.52816e-10
1.82227e-08
6.85223e-10
1.77632e-08
6.27403e-10
1.73367e-08
5.77555e-10
1.69401e-08
5.34209e-10
1.65704e-08
4.96188e-10
1.6225e-08
4.62563e-10
1.59014e-08
4.32607e-10
1.55977e-08
4.05749e-10
1.53119e-08
3.81539e-10
1.50423e-08
3.59616e-10
1.47876e-08
3.39692e-10
1.45465e-08
3.21524e-10
1.43177e-08
3.04914e-10
1.41003e-08
2.8969e-10
1.38934e-08
2.75705e-10
1.3696e-08
2.6283e-10
1.35075e-08
2.50954e-10
1.33272e-08
2.39977e-10
1.31546e-08
2.29811e-10
1.29889e-08
2.20378e-10
1.28299e-08
2.11608e-10
1.26769e-08
2.03439e-10
1.25297e-08
1.95816e-10
1.23878e-08
1.88689e-10
1.22509e-08
1.82015e-10
1.21188e-08
1.75754e-10
1.1991e-08
1.69869e-10
1.18674e-08
1.64331e-10
1.17478e-08
1.59109e-10
1.16318e-08
1.54178e-10
1.15193e-08
1.49515e-10
1.14102e-08
1.45099e-10
1.13042e-08
1.4091e-10
1.12012e-08
1.36932e-10
1.1101e-08
1.33149e-10
1.10036e-08
1.29547e-10
1.09087e-08
1.26111e-10
1.08163e-08
1.22831e-10
1.07263e-08
1.19696e-10
1.06385e-08
1.16694e-10
1.05529e-08
1.13818e-10
1.04694e-08
1.11057e-10
1.03878e-08
1.08405e-10
1.03082e-08
1.05854e-10
1.02304e-08
1.03397e-10
1.01544e-08
1.01027e-10
1.00801e-08
9.87383e-11
1.00075e-08
9.65254e-11
9.93652e-09
9.43829e-11
9.86708e-09
9.23057e-11
9.79916e-09
9.02889e-11
9.73271e-09
8.83279e-11
9.66771e-09
8.64184e-11
9.6041e-09
8.45563e-11
9.54187e-09
8.27376e-11
9.48097e-09
8.09583e-11
9.42139e-09
7.92149e-11
9.3631e-09
7.75037e-11
9.30608e-09
7.58215e-11
9.25031e-09
7.41648e-11
9.19578e-09
7.25307e-11
9.14247e-09
7.09161e-11
9.09037e-09
6.93184e-11
9.03947e-09
6.77348e-11
8.98976e-09
6.61631e-11
8.94125e-09
6.46012e-11
8.89391e-09
6.30472e-11
8.84776e-09
6.15e-11
8.80278e-09
5.99585e-11
8.75899e-09
5.84226e-11
8.71636e-09
5.68928e-11
8.67491e-09
5.53708e-11
8.63463e-09
5.38596e-11
8.59551e-09
5.23645e-11
8.55754e-09
5.08956e-11
8.52068e-09
4.94718e-11
8.48488e-09
4.81381e-11
8.45e-09
4.70162e-11
8.41563e-09
4.64658e-11
8.37836e-09
4.9701e-11
8.11858e-11
3.64039e-08
2.92208e-09
-3.62227e-08
3.65013e-08
3.31499e-09
3.64739e-08
3.50012e-09
3.63268e-08
3.56801e-09
3.60701e-08
3.55425e-09
3.57174e-08
3.4705e-09
3.52856e-08
3.33017e-09
3.47922e-08
3.14905e-09
3.42538e-08
2.94207e-09
3.36851e-08
2.72242e-09
3.3099e-08
2.50124e-09
3.2506e-08
2.28735e-09
3.19143e-08
2.08697e-09
3.13302e-08
1.90385e-09
3.0758e-08
1.73962e-09
3.02008e-08
1.59425e-09
2.96603e-08
1.46662e-09
2.91377e-08
1.35498e-09
2.86332e-08
1.2573e-09
2.81469e-08
1.17154e-09
2.76784e-08
1.09583e-09
2.72275e-08
1.02853e-09
2.67934e-08
9.68275e-10
2.63757e-08
9.13935e-10
2.59736e-08
8.64607e-10
2.55867e-08
8.1957e-10
2.52141e-08
7.78253e-10
2.48555e-08
7.40197e-10
2.45101e-08
7.05032e-10
2.41773e-08
6.72453e-10
2.38566e-08
6.42205e-10
2.35475e-08
6.14071e-10
2.32493e-08
5.87864e-10
2.29616e-08
5.63418e-10
2.26838e-08
5.40584e-10
2.24156e-08
5.19232e-10
2.21563e-08
4.9924e-10
2.19056e-08
4.805e-10
2.16631e-08
4.62914e-10
2.14283e-08
4.4639e-10
2.12009e-08
4.30847e-10
2.09805e-08
4.1621e-10
2.07668e-08
4.02408e-10
2.05594e-08
3.8938e-10
2.03581e-08
3.77068e-10
2.01625e-08
3.65418e-10
1.99725e-08
3.54383e-10
1.97877e-08
3.43919e-10
1.96079e-08
3.33984e-10
1.94328e-08
3.2454e-10
1.92624e-08
3.15555e-10
1.90963e-08
3.06996e-10
1.89344e-08
2.98833e-10
1.87765e-08
2.9104e-10
1.86225e-08
2.83593e-10
1.84721e-08
2.76467e-10
1.83253e-08
2.69642e-10
1.81819e-08
2.63098e-10
1.80418e-08
2.56816e-10
1.79048e-08
2.50779e-10
1.77709e-08
2.44972e-10
1.76399e-08
2.39379e-10
1.75118e-08
2.33986e-10
1.73864e-08
2.28781e-10
1.72637e-08
2.2375e-10
1.71435e-08
2.18881e-10
1.70259e-08
2.14164e-10
1.69107e-08
2.09588e-10
1.67979e-08
2.05143e-10
1.66873e-08
2.00819e-10
1.6579e-08
1.96607e-10
1.6473e-08
1.92498e-10
1.6369e-08
1.88483e-10
1.62672e-08
1.84553e-10
1.61675e-08
1.80701e-10
1.60698e-08
1.76919e-10
1.59741e-08
1.732e-10
1.58804e-08
1.69534e-10
1.57886e-08
1.65916e-10
1.56988e-08
1.62339e-10
1.56109e-08
1.58795e-10
1.5525e-08
1.55278e-10
1.54409e-08
1.51782e-10
1.53588e-08
1.48301e-10
1.52786e-08
1.4483e-10
1.52002e-08
1.41364e-10
1.51238e-08
1.379e-10
1.50494e-08
1.34433e-10
1.49768e-08
1.30964e-10
1.49062e-08
1.2749e-10
1.48376e-08
1.24015e-10
1.47709e-08
1.20542e-10
1.47062e-08
1.17081e-10
1.46434e-08
1.1365e-10
1.45826e-08
1.10283e-10
1.45237e-08
1.07065e-10
1.44665e-08
1.04228e-10
1.44103e-08
1.02606e-10
1.43525e-08
1.07559e-10
1.39062e-10
3.79782e-08
2.70465e-09
-3.77608e-08
3.8205e-08
3.08816e-09
3.83932e-08
3.31191e-09
3.853e-08
3.43121e-09
3.86088e-08
3.47553e-09
3.8625e-08
3.45426e-09
3.85787e-08
3.37645e-09
3.84735e-08
3.25425e-09
3.83152e-08
3.10034e-09
3.81111e-08
2.92657e-09
3.78689e-08
2.74348e-09
3.75963e-08
2.55994e-09
3.73005e-08
2.38273e-09
3.69879e-08
2.2165e-09
3.66636e-08
2.06389e-09
3.63319e-08
1.92593e-09
3.59961e-08
1.80245e-09
3.56585e-08
1.69251e-09
3.53211e-08
1.59474e-09
3.49851e-08
1.50759e-09
3.46513e-08
1.42956e-09
3.43206e-08
1.35928e-09
3.39933e-08
1.29555e-09
3.36699e-08
1.23735e-09
3.33506e-08
1.18389e-09
3.30357e-08
1.13448e-09
3.27253e-08
1.08861e-09
3.24197e-08
1.04585e-09
3.21188e-08
1.00586e-09
3.18229e-08
9.68357e-10
3.1532e-08
9.33115e-10
3.12462e-08
8.99938e-10
3.09654e-08
8.68659e-10
3.06897e-08
8.39131e-10
3.0419e-08
8.11223e-10
3.01534e-08
7.8482e-10
2.98929e-08
7.59814e-10
2.96372e-08
7.3611e-10
2.93865e-08
7.13619e-10
2.91407e-08
6.9226e-10
2.88996e-08
6.71957e-10
2.86631e-08
6.52642e-10
2.84313e-08
6.34251e-10
2.82039e-08
6.16724e-10
2.7981e-08
6.00006e-10
2.77624e-08
5.84048e-10
2.7548e-08
5.68801e-10
2.73377e-08
5.54223e-10
2.71314e-08
5.40271e-10
2.6929e-08
5.26908e-10
2.67305e-08
5.14099e-10
2.65356e-08
5.01811e-10
2.63445e-08
4.90012e-10
2.61568e-08
4.78675e-10
2.59726e-08
4.6777e-10
2.57918e-08
4.57275e-10
2.56143e-08
4.47163e-10
2.544e-08
4.37414e-10
2.52688e-08
4.28004e-10
2.51007e-08
4.18916e-10
2.49355e-08
4.10129e-10
2.47733e-08
4.01625e-10
2.46139e-08
3.93388e-10
2.44573e-08
3.854e-10
2.43034e-08
3.77647e-10
2.41521e-08
3.70113e-10
2.40035e-08
3.62783e-10
2.38574e-08
3.55644e-10
2.37139e-08
3.48682e-10
2.35728e-08
3.41884e-10
2.34342e-08
3.35236e-10
2.3298e-08
3.28727e-10
2.31641e-08
3.22344e-10
2.30326e-08
3.16076e-10
2.29034e-08
3.09909e-10
2.27765e-08
3.03832e-10
2.26518e-08
2.97834e-10
2.25295e-08
2.91902e-10
2.24094e-08
2.86027e-10
2.22915e-08
2.80197e-10
2.21759e-08
2.744e-10
2.20626e-08
2.68626e-10
2.19515e-08
2.62865e-10
2.18427e-08
2.57108e-10
2.17362e-08
2.51344e-10
2.1632e-08
2.45566e-10
2.15301e-08
2.39767e-10
2.14306e-08
2.3394e-10
2.13335e-08
2.28081e-10
2.12388e-08
2.22189e-10
2.11465e-08
2.16264e-10
2.10567e-08
2.10313e-10
2.09695e-08
2.04348e-10
2.08847e-08
1.98394e-10
2.08025e-08
1.92502e-10
2.07228e-08
1.86797e-10
2.06454e-08
1.8162e-10
2.05698e-08
1.78196e-10
2.04953e-08
1.82056e-10
2.0571e-10
3.95155e-08
2.51243e-09
-3.93233e-08
3.97428e-08
2.86084e-09
3.99666e-08
3.08818e-09
4.01731e-08
3.22468e-09
4.0355e-08
3.29364e-09
4.0505e-08
3.30427e-09
4.06178e-08
3.26361e-09
4.06911e-08
3.181e-09
4.07246e-08
3.0668e-09
4.07202e-08
2.93098e-09
4.0681e-08
2.78268e-09
4.06111e-08
2.62984e-09
4.0515e-08
2.47886e-09
4.0397e-08
2.33442e-09
4.02614e-08
2.19952e-09
4.01116e-08
2.07573e-09
3.99506e-08
1.96349e-09
3.97807e-08
1.86242e-09
3.96037e-08
1.77168e-09
3.94211e-08
1.69017e-09
3.9234e-08
1.61672e-09
3.90431e-08
1.55019e-09
3.8849e-08
1.48958e-09
3.86524e-08
1.43401e-09
3.84535e-08
1.38274e-09
3.82528e-08
1.33517e-09
3.80506e-08
1.29081e-09
3.78472e-08
1.24927e-09
3.76428e-08
1.21023e-09
3.74378e-08
1.17343e-09
3.72322e-08
1.13865e-09
3.70265e-08
1.10572e-09
3.68206e-08
1.07448e-09
3.6615e-08
1.0448e-09
3.64096e-08
1.01657e-09
3.62048e-08
9.89673e-10
3.60006e-08
9.6403e-10
3.57971e-08
9.39552e-10
3.55946e-08
9.16162e-10
3.5393e-08
8.9379e-10
3.51926e-08
8.72373e-10
3.49934e-08
8.51849e-10
3.47955e-08
8.32166e-10
3.4599e-08
8.13272e-10
3.44038e-08
7.9512e-10
3.42102e-08
7.77667e-10
3.40182e-08
7.60872e-10
3.38277e-08
7.44699e-10
3.36388e-08
7.29111e-10
3.34517e-08
7.14076e-10
3.32662e-08
6.99564e-10
3.30825e-08
6.85545e-10
3.29005e-08
6.71993e-10
3.27203e-08
6.58883e-10
3.25419e-08
6.46191e-10
3.23652e-08
6.33894e-10
3.21904e-08
6.2197e-10
3.20174e-08
6.104e-10
3.18463e-08
5.99164e-10
3.1677e-08
5.88244e-10
3.15095e-08
5.77621e-10
3.13438e-08
5.6728e-10
3.118e-08
5.57203e-10
3.1018e-08
5.47374e-10
3.08579e-08
5.37779e-10
3.06996e-08
5.28403e-10
3.05432e-08
5.1923e-10
3.03886e-08
5.10245e-10
3.02358e-08
5.01436e-10
3.00849e-08
4.92787e-10
2.99358e-08
4.84286e-10
2.97887e-08
4.75916e-10
2.96433e-08
4.67666e-10
2.94999e-08
4.5952e-10
2.93583e-08
4.51465e-10
2.92187e-08
4.43487e-10
2.90809e-08
4.35571e-10
2.89451e-08
4.27703e-10
2.88113e-08
4.19869e-10
2.86794e-08
4.12056e-10
2.85496e-08
4.04247e-10
2.84218e-08
3.96431e-10
2.82961e-08
3.88592e-10
2.81725e-08
3.80718e-10
2.8051e-08
3.72796e-10
2.79318e-08
3.64814e-10
2.78148e-08
3.56761e-10
2.77001e-08
3.4863e-10
2.75877e-08
3.40412e-10
2.74778e-08
3.32106e-10
2.73704e-08
3.23711e-10
2.72655e-08
3.15233e-10
2.71631e-08
3.06688e-10
2.70634e-08
2.98107e-10
2.69663e-08
2.89557e-10
2.6872e-08
2.8119e-10
2.67802e-08
2.73414e-10
2.66908e-08
2.67532e-10
2.66051e-08
2.67829e-10
2.78858e-10
4.10926e-08
2.34684e-09
-4.0927e-08
4.12981e-08
2.65535e-09
4.15131e-08
2.87314e-09
4.17243e-08
3.0135e-09
4.19249e-08
3.09301e-09
4.21089e-08
3.12033e-09
4.22709e-08
3.10162e-09
4.24074e-08
3.04445e-09
4.25168e-08
2.95741e-09
4.25988e-08
2.849e-09
4.26544e-08
2.72709e-09
4.26856e-08
2.59865e-09
4.2695e-08
2.46946e-09
4.26855e-08
2.34391e-09
4.26599e-08
2.22506e-09
4.2621e-08
2.11469e-09
4.25709e-08
2.01359e-09
4.25115e-08
1.92179e-09
4.24444e-08
1.83882e-09
4.23706e-08
1.76393e-09
4.22911e-08
1.69621e-09
4.22065e-08
1.63477e-09
4.21174e-08
1.57875e-09
4.2024e-08
1.52739e-09
4.19267e-08
1.48004e-09
4.18257e-08
1.43614e-09
4.17213e-08
1.39523e-09
4.16136e-08
1.35695e-09
4.15029e-08
1.32099e-09
4.13892e-08
1.28709e-09
4.12728e-08
1.25506e-09
4.11538e-08
1.2247e-09
4.10324e-08
1.19589e-09
4.09087e-08
1.16847e-09
4.07829e-08
1.14236e-09
4.06552e-08
1.11744e-09
4.05256e-08
1.09364e-09
4.03942e-08
1.07086e-09
4.02614e-08
1.04904e-09
4.0127e-08
1.02812e-09
3.99914e-08
1.00802e-09
3.98545e-08
9.88708e-10
3.97166e-08
9.70121e-10
3.95776e-08
9.52216e-10
3.94378e-08
9.3495e-10
3.92972e-08
9.18283e-10
3.91559e-08
9.02179e-10
3.9014e-08
8.86604e-10
3.88716e-08
8.71527e-10
3.87287e-08
8.56919e-10
3.85855e-08
8.42752e-10
3.84421e-08
8.29002e-10
3.82984e-08
8.15644e-10
3.81547e-08
8.02656e-10
3.80108e-08
7.90017e-10
3.7867e-08
7.77707e-10
3.77233e-08
7.65708e-10
3.75797e-08
7.54002e-10
3.74363e-08
7.42571e-10
3.72931e-08
7.314e-10
3.71503e-08
7.20472e-10
3.70078e-08
7.09773e-10
3.68657e-08
6.99287e-10
3.67241e-08
6.89001e-10
3.65829e-08
6.789e-10
3.64424e-08
6.68971e-10
3.63024e-08
6.59199e-10
3.61631e-08
6.4957e-10
3.60244e-08
6.40072e-10
3.58865e-08
6.30689e-10
3.57494e-08
6.21409e-10
3.56131e-08
6.12216e-10
3.54777e-08
6.03097e-10
3.53432e-08
5.94036e-10
3.52096e-08
5.85019e-10
3.50771e-08
5.76031e-10
3.49456e-08
5.67055e-10
3.48152e-08
5.58076e-10
3.4686e-08
5.49078e-10
3.4558e-08
5.40045e-10
3.44313e-08
5.30959e-10
3.43059e-08
5.21804e-10
3.4182e-08
5.12564e-10
3.40594e-08
5.03223e-10
3.39385e-08
4.93764e-10
3.38191e-08
4.84175e-10
3.37014e-08
4.74441e-10
3.35855e-08
4.64551e-10
3.34714e-08
4.54497e-10
3.33593e-08
4.44273e-10
3.32491e-08
4.33879e-10
3.3141e-08
4.23323e-10
3.30351e-08
4.12621e-10
3.29314e-08
4.01811e-10
3.283e-08
3.90965e-10
3.27309e-08
3.80248e-10
3.26343e-08
3.70058e-10
3.25403e-08
3.61455e-10
3.24514e-08
3.56812e-10
3.53732e-10
4.27219e-08
2.2014e-09
-4.25764e-08
4.29054e-08
2.4718e-09
4.31039e-08
2.67463e-09
4.33044e-08
2.81305e-09
4.35e-08
2.89736e-09
4.36856e-08
2.9348e-09
4.38564e-08
2.93081e-09
4.40092e-08
2.89164e-09
4.41421e-08
2.82447e-09
4.42545e-08
2.73659e-09
4.43468e-08
2.63487e-09
4.442e-08
2.52542e-09
4.4476e-08
2.41346e-09
4.45168e-08
2.30306e-09
4.45447e-08
2.1972e-09
4.45616e-08
2.09776e-09
4.45694e-08
2.00577e-09
4.45697e-08
1.92154e-09
4.45636e-08
1.8449e-09
4.45522e-08
1.77538e-09
4.45361e-08
1.71231e-09
4.45158e-08
1.655e-09
4.44919e-08
1.60273e-09
4.44644e-08
1.55486e-09
4.44336e-08
1.51081e-09
4.43997e-08
1.47008e-09
4.43627e-08
1.43224e-09
4.43227e-08
1.39696e-09
4.42797e-08
1.36392e-09
4.42339e-08
1.33289e-09
4.41853e-08
1.30365e-09
4.4134e-08
1.27604e-09
4.408e-08
1.2499e-09
4.40234e-08
1.22511e-09
4.39642e-08
1.20155e-09
4.39025e-08
1.17913e-09
4.38384e-08
1.15775e-09
4.37719e-08
1.13733e-09
4.37031e-08
1.11781e-09
4.36321e-08
1.09912e-09
4.3559e-08
1.08119e-09
4.34837e-08
1.06397e-09
4.34064e-08
1.04742e-09
4.33271e-08
1.03147e-09
4.3246e-08
1.01611e-09
4.3163e-08
1.00127e-09
4.30782e-08
9.86933e-10
4.29918e-08
9.73057e-10
4.29037e-08
9.59613e-10
4.28141e-08
9.46573e-10
4.27229e-08
9.33908e-10
4.26303e-08
9.21595e-10
4.25363e-08
9.0961e-10
4.24411e-08
8.97932e-10
4.23445e-08
8.86539e-10
4.22468e-08
8.75412e-10
4.2148e-08
8.64534e-10
4.20481e-08
8.53886e-10
4.19472e-08
8.43453e-10
4.18454e-08
8.33219e-10
4.17427e-08
8.23168e-10
4.16392e-08
8.13285e-10
4.15349e-08
8.03557e-10
4.143e-08
7.9397e-10
4.13244e-08
7.84509e-10
4.12182e-08
7.7516e-10
4.11115e-08
7.65911e-10
4.10043e-08
7.56747e-10
4.08967e-08
7.47654e-10
4.07888e-08
7.38619e-10
4.06806e-08
7.29627e-10
4.05721e-08
7.20662e-10
4.04635e-08
7.11711e-10
4.03548e-08
7.02758e-10
4.0246e-08
6.93786e-10
4.01373e-08
6.84779e-10
4.00286e-08
6.75721e-10
3.99201e-08
6.66593e-10
3.98118e-08
6.57377e-10
3.97038e-08
6.48056e-10
3.95961e-08
6.38611e-10
3.94889e-08
6.29022e-10
3.93822e-08
6.19272e-10
3.92761e-08
6.0934e-10
3.91706e-08
5.9921e-10
3.90659e-08
5.88865e-10
3.89621e-08
5.78287e-10
3.88592e-08
5.67466e-10
3.87573e-08
5.56388e-10
3.86565e-08
5.45049e-10
3.85569e-08
5.33447e-10
3.84587e-08
5.2159e-10
3.83618e-08
5.09496e-10
3.82664e-08
4.97202e-10
3.81726e-08
4.84785e-10
3.80804e-08
4.72395e-10
3.79902e-08
4.60347e-10
3.79023e-08
4.49263e-10
3.78196e-08
4.39589e-10
4.24086e-10
4.44062e-08
2.07067e-09
-4.42754e-08
4.45711e-08
2.30685e-09
4.47532e-08
2.49259e-09
4.49404e-08
2.62579e-09
4.5126e-08
2.71178e-09
4.53048e-08
2.75596e-09
4.54727e-08
2.76292e-09
4.56266e-08
2.73778e-09
4.57645e-08
2.68652e-09
4.58858e-08
2.61534e-09
4.59905e-08
2.53019e-09
4.60794e-08
2.43649e-09
4.6154e-08
2.33889e-09
4.62159e-08
2.24117e-09
4.62669e-08
2.14618e-09
4.63088e-08
2.05586e-09
4.63432e-08
1.97138e-09
4.63714e-08
1.89329e-09
4.63947e-08
1.82166e-09
4.64138e-08
1.75624e-09
4.64295e-08
1.69662e-09
4.64423e-08
1.64224e-09
4.64524e-08
1.59256e-09
4.64602e-08
1.54705e-09
4.64659e-08
1.50519e-09
4.64694e-08
1.46656e-09
4.64709e-08
1.43076e-09
4.64703e-08
1.39748e-09
4.64678e-08
1.36643e-09
4.64633e-08
1.33737e-09
4.64569e-08
1.31011e-09
4.64484e-08
1.28448e-09
4.6438e-08
1.26032e-09
4.64256e-08
1.2375e-09
4.64113e-08
1.21592e-09
4.63949e-08
1.19547e-09
4.63766e-08
1.17606e-09
4.63563e-08
1.15761e-09
4.63341e-08
1.14004e-09
4.63099e-08
1.12329e-09
4.62838e-08
1.1073e-09
4.62558e-08
1.092e-09
4.62259e-08
1.07736e-09
4.6194e-08
1.06331e-09
4.61603e-08
1.04982e-09
4.61247e-08
1.03684e-09
4.60873e-08
1.02433e-09
4.60481e-08
1.01227e-09
4.60071e-08
1.00062e-09
4.59644e-08
9.89338e-10
4.59199e-08
9.78411e-10
4.58737e-08
9.67807e-10
4.58258e-08
9.57502e-10
4.57762e-08
9.47473e-10
4.57251e-08
9.37698e-10
4.56723e-08
9.28157e-10
4.5618e-08
9.18829e-10
4.55622e-08
9.09698e-10
4.55049e-08
9.00745e-10
4.54462e-08
8.91954e-10
4.5386e-08
8.83309e-10
4.53245e-08
8.74794e-10
4.52617e-08
8.66393e-10
4.51976e-08
8.58092e-10
4.51322e-08
8.49876e-10
4.50656e-08
8.4173e-10
4.49979e-08
8.33639e-10
4.49291e-08
8.2559e-10
4.48592e-08
8.17566e-10
4.47882e-08
8.09553e-10
4.47163e-08
8.01535e-10
4.46435e-08
7.93496e-10
4.45698e-08
7.8542e-10
4.44952e-08
7.77289e-10
4.44199e-08
7.69087e-10
4.43439e-08
7.60794e-10
4.42673e-08
7.52392e-10
4.419e-08
7.43863e-10
4.41122e-08
7.35185e-10
4.40339e-08
7.26338e-10
4.39552e-08
7.17301e-10
4.38762e-08
7.08054e-10
4.37969e-08
6.98574e-10
4.37174e-08
6.8884e-10
4.36377e-08
6.78833e-10
4.35581e-08
6.68532e-10
4.34784e-08
6.5792e-10
4.33989e-08
6.46981e-10
4.33196e-08
6.35702e-10
4.32406e-08
6.24075e-10
4.31619e-08
6.12099e-10
4.30837e-08
5.9978e-10
4.30061e-08
5.87137e-10
4.29291e-08
5.74206e-10
4.28528e-08
5.61055e-10
4.27774e-08
5.47803e-10
4.27031e-08
5.34639e-10
4.26307e-08
5.2171e-10
4.25623e-08
5.07986e-10
4.83998e-10
4.61474e-08
1.95086e-09
-4.60276e-08
4.62971e-08
2.15713e-09
4.64643e-08
2.3254e-09
4.66388e-08
2.45132e-09
4.68137e-08
2.5368e-09
4.69843e-08
2.58539e-09
4.71465e-08
2.60074e-09
4.72972e-08
2.58701e-09
4.74347e-08
2.54908e-09
4.75579e-08
2.49215e-09
4.76667e-08
2.42136e-09
4.77618e-08
2.34142e-09
4.78441e-08
2.25651e-09
4.79152e-08
2.17008e-09
4.79766e-08
2.08482e-09
4.80298e-08
2.00268e-09
4.80762e-08
1.92493e-09
4.81173e-08
1.85228e-09
4.81539e-08
1.78501e-09
4.81871e-08
1.72308e-09
4.82174e-08
1.66625e-09
4.82455e-08
1.61415e-09
4.82717e-08
1.56637e-09
4.82963e-08
1.52247e-09
4.83194e-08
1.48205e-09
4.83413e-08
1.44473e-09
4.83619e-08
1.41017e-09
4.83813e-08
1.37807e-09
4.83995e-08
1.34818e-09
4.84166e-08
1.32029e-09
4.84325e-08
1.29419e-09
4.84473e-08
1.26972e-09
4.84609e-08
1.24674e-09
4.84732e-08
1.22512e-09
4.84844e-08
1.20475e-09
4.84943e-08
1.18553e-09
4.8503e-08
1.16737e-09
4.85104e-08
1.15018e-09
4.85166e-08
1.1339e-09
4.85214e-08
1.11845e-09
4.85249e-08
1.10377e-09
4.85271e-08
1.08981e-09
4.8528e-08
1.07651e-09
4.85275e-08
1.06382e-09
4.85256e-08
1.0517e-09
4.85223e-08
1.0401e-09
4.85177e-08
1.02899e-09
4.85116e-08
1.01832e-09
4.85042e-08
1.00808e-09
4.84953e-08
9.98209e-10
4.8485e-08
9.88696e-10
4.84733e-08
9.79509e-10
4.84602e-08
9.70622e-10
4.84456e-08
9.62009e-10
4.84297e-08
9.53649e-10
4.84123e-08
9.45518e-10
4.83936e-08
9.37597e-10
4.83734e-08
9.29866e-10
4.83518e-08
9.22306e-10
4.83289e-08
9.14898e-10
4.83046e-08
9.07625e-10
4.82789e-08
9.0047e-10
4.82519e-08
8.93417e-10
4.82235e-08
8.86448e-10
4.81938e-08
8.79549e-10
4.81629e-08
8.72702e-10
4.81306e-08
8.65892e-10
4.80971e-08
8.59102e-10
4.80624e-08
8.52316e-10
4.80264e-08
8.45517e-10
4.79892e-08
8.38689e-10
4.79509e-08
8.31813e-10
4.79115e-08
8.24872e-10
4.78709e-08
8.17846e-10
4.78293e-08
8.10717e-10
4.77866e-08
8.03464e-10
4.77429e-08
7.96067e-10
4.76983e-08
7.88504e-10
4.76527e-08
7.80753e-10
4.76063e-08
7.72792e-10
4.7559e-08
7.64597e-10
4.75109e-08
7.56144e-10
4.7462e-08
7.47411e-10
4.74125e-08
7.38373e-10
4.73623e-08
7.29007e-10
4.73116e-08
7.19293e-10
4.72603e-08
7.09209e-10
4.72085e-08
6.98737e-10
4.71564e-08
6.87865e-10
4.71039e-08
6.76581e-10
4.70511e-08
6.64883e-10
4.69981e-08
6.52776e-10
4.69449e-08
6.40278e-10
4.68917e-08
6.27421e-10
4.68385e-08
6.14261e-10
4.67855e-08
6.00875e-10
4.67328e-08
5.87319e-10
4.66811e-08
5.73364e-10
4.66319e-08
5.57164e-10
5.29423e-10
4.79477e-08
1.83934e-09
-4.78362e-08
4.80851e-08
2.01978e-09
4.82393e-08
2.17121e-09
4.8402e-08
2.28866e-09
4.85668e-08
2.37197e-09
4.8729e-08
2.42313e-09
4.8885e-08
2.44483e-09
4.90316e-08
2.44037e-09
4.9167e-08
2.41369e-09
4.929e-08
2.3691e-09
4.94004e-08
2.31095e-09
4.94985e-08
2.24333e-09
4.95851e-08
2.16992e-09
4.96613e-08
2.09386e-09
4.97285e-08
2.01767e-09
4.97879e-08
1.94325e-09
4.98409e-08
1.87191e-09
4.98887e-08
1.80449e-09
4.99323e-08
1.74142e-09
4.99726e-08
1.68283e-09
5.00102e-08
1.62864e-09
5.00457e-08
1.57863e-09
5.00795e-08
1.53253e-09
5.0112e-08
1.48999e-09
5.01434e-08
1.4507e-09
5.01737e-08
1.41435e-09
5.02033e-08
1.38064e-09
5.0232e-08
1.34932e-09
5.02601e-08
1.32015e-09
5.02874e-08
1.29295e-09
5.03141e-08
1.26752e-09
5.03401e-08
1.24371e-09
5.03654e-08
1.22139e-09
5.03901e-08
1.20043e-09
5.04141e-08
1.18073e-09
5.04375e-08
1.16219e-09
5.04601e-08
1.14472e-09
5.04821e-08
1.12825e-09
5.05033e-08
1.11269e-09
5.05237e-08
1.09798e-09
5.05435e-08
1.08406e-09
5.05624e-08
1.07087e-09
5.05805e-08
1.05837e-09
5.05979e-08
1.04649e-09
5.06144e-08
1.0352e-09
5.063e-08
1.02445e-09
5.06448e-08
1.0142e-09
5.06587e-08
1.00442e-09
5.06717e-08
9.95072e-10
5.06838e-08
9.86122e-10
5.0695e-08
9.77541e-10
5.07052e-08
9.693e-10
5.07144e-08
9.61374e-10
5.07227e-08
9.53735e-10
5.073e-08
9.46362e-10
5.07363e-08
9.3923e-10
5.07415e-08
9.32319e-10
5.07458e-08
9.25607e-10
5.0749e-08
9.19075e-10
5.07512e-08
9.12703e-10
5.07524e-08
9.06474e-10
5.07525e-08
9.00369e-10
5.07515e-08
8.9437e-10
5.07495e-08
8.8846e-10
5.07464e-08
8.82622e-10
5.07423e-08
8.76839e-10
5.07371e-08
8.71093e-10
5.07308e-08
8.65367e-10
5.07235e-08
8.59644e-10
5.07151e-08
8.53905e-10
5.07057e-08
8.48132e-10
5.06952e-08
8.42306e-10
5.06837e-08
8.36408e-10
5.06711e-08
8.30417e-10
5.06575e-08
8.24314e-10
5.06429e-08
8.18076e-10
5.06273e-08
8.11681e-10
5.06107e-08
8.05106e-10
5.05931e-08
7.98327e-10
5.05746e-08
7.91321e-10
5.05551e-08
7.84061e-10
5.05347e-08
7.76523e-10
5.05134e-08
7.68682e-10
5.04913e-08
7.60511e-10
5.04683e-08
7.51986e-10
5.04445e-08
7.43085e-10
5.042e-08
7.33784e-10
5.03946e-08
7.24064e-10
5.03686e-08
7.13911e-10
5.03419e-08
7.03312e-10
5.03145e-08
6.92265e-10
5.02865e-08
6.80773e-10
5.02579e-08
6.6885e-10
5.02288e-08
6.56526e-10
5.01992e-08
6.43842e-10
5.01693e-08
6.30833e-10
5.01391e-08
6.17455e-10
5.01092e-08
6.03259e-10
5.00802e-08
5.86229e-10
5.5889e-10
4.98097e-08
1.7343e-09
-4.97047e-08
4.9937e-08
1.89249e-09
5.008e-08
2.02821e-09
5.0232e-08
2.13669e-09
5.03873e-08
2.21663e-09
5.05416e-08
2.26883e-09
5.06913e-08
2.29515e-09
5.08336e-08
2.29812e-09
5.09664e-08
2.28086e-09
5.10886e-08
2.2469e-09
5.11997e-08
2.19987e-09
5.12997e-08
2.14328e-09
5.13893e-08
2.08037e-09
5.14692e-08
2.01393e-09
5.15406e-08
1.94628e-09
5.16046e-08
1.87925e-09
5.16623e-08
1.81416e-09
5.17149e-08
1.75193e-09
5.17632e-08
1.69308e-09
5.18082e-08
1.63789e-09
5.18504e-08
1.58642e-09
5.18904e-08
1.53858e-09
5.19288e-08
1.4942e-09
5.19657e-08
1.45305e-09
5.20015e-08
1.41488e-09
5.20365e-08
1.37944e-09
5.20706e-08
1.3465e-09
5.21041e-08
1.31584e-09
5.2137e-08
1.28726e-09
5.21693e-08
1.26057e-09
5.22012e-08
1.23562e-09
5.22327e-08
1.21226e-09
5.22637e-08
1.19037e-09
5.22943e-08
1.16982e-09
5.23245e-08
1.15053e-09
5.23543e-08
1.13238e-09
5.23837e-08
1.11531e-09
5.24128e-08
1.09923e-09
5.24414e-08
1.08408e-09
5.24696e-08
1.06978e-09
5.24974e-08
1.05628e-09
5.25247e-08
1.04351e-09
5.25516e-08
1.03144e-09
5.25781e-08
1.02001e-09
5.26041e-08
1.00918e-09
5.26297e-08
9.98896e-10
5.26548e-08
9.89132e-10
5.26793e-08
9.79846e-10
5.27034e-08
9.71006e-10
5.27269e-08
9.62578e-10
5.275e-08
9.54533e-10
5.27724e-08
9.46842e-10
5.27943e-08
9.39479e-10
5.28156e-08
9.32418e-10
5.28363e-08
9.25635e-10
5.28565e-08
9.19107e-10
5.2876e-08
9.12813e-10
5.28949e-08
9.06732e-10
5.29131e-08
9.00843e-10
5.29307e-08
8.95128e-10
5.29476e-08
8.89567e-10
5.29638e-08
8.84141e-10
5.29793e-08
8.78834e-10
5.29942e-08
8.73627e-10
5.30083e-08
8.68503e-10
5.30217e-08
8.63443e-10
5.30343e-08
8.58431e-10
5.30463e-08
8.53448e-10
5.30574e-08
8.48476e-10
5.30678e-08
8.43497e-10
5.30775e-08
8.38492e-10
5.30863e-08
8.33441e-10
5.30944e-08
8.28324e-10
5.31017e-08
8.23121e-10
5.31082e-08
8.17809e-10
5.31139e-08
8.12367e-10
5.31188e-08
8.06772e-10
5.31229e-08
8.01e-10
5.31262e-08
7.95026e-10
5.31287e-08
7.88825e-10
5.31304e-08
7.82372e-10
5.31313e-08
7.75639e-10
5.31314e-08
7.68602e-10
5.31307e-08
7.61233e-10
5.31292e-08
7.53507e-10
5.31268e-08
7.454e-10
5.31237e-08
7.36889e-10
5.31198e-08
7.27955e-10
5.31152e-08
7.18581e-10
5.31097e-08
7.08756e-10
5.31035e-08
6.98475e-10
5.30965e-08
6.87742e-10
5.30888e-08
6.7657e-10
5.30804e-08
6.64983e-10
5.30712e-08
6.53008e-10
5.30614e-08
6.40654e-10
5.3051e-08
6.27817e-10
5.30403e-08
6.13993e-10
5.30291e-08
5.97459e-10
5.7328e-10
5.1736e-08
1.63442e-09
-5.16361e-08
5.1855e-08
1.77344e-09
5.19884e-08
1.8948e-09
5.21309e-08
1.99426e-09
5.22775e-08
2.07e-09
5.24243e-08
2.12204e-09
5.25679e-08
2.15152e-09
5.27057e-08
2.1603e-09
5.28358e-08
2.15082e-09
5.29568e-08
2.12591e-09
5.3068e-08
2.0886e-09
5.31695e-08
2.04184e-09
5.32614e-08
1.98844e-09
5.33445e-08
1.93088e-09
5.34195e-08
1.87127e-09
5.34874e-08
1.81131e-09
5.35493e-08
1.75232e-09
5.3606e-08
1.69523e-09
5.36584e-08
1.64066e-09
5.37073e-08
1.58899e-09
5.37533e-08
1.54038e-09
5.3797e-08
1.49486e-09
5.38389e-08
1.45234e-09
5.38792e-08
1.4127e-09
5.39183e-08
1.37576e-09
5.39564e-08
1.34134e-09
5.39937e-08
1.30924e-09
5.40303e-08
1.27928e-09
5.40662e-08
1.2513e-09
5.41017e-08
1.22513e-09
5.41367e-08
1.20064e-09
5.41712e-08
1.17769e-09
5.42054e-08
1.15617e-09
5.42393e-08
1.13597e-09
5.42728e-08
1.11699e-09
5.43061e-08
1.09915e-09
5.4339e-08
1.08237e-09
5.43717e-08
1.06657e-09
5.44041e-08
1.05169e-09
5.44362e-08
1.03765e-09
5.4468e-08
1.02442e-09
5.44996e-08
1.01192e-09
5.4531e-08
1.00011e-09
5.4562e-08
9.88942e-10
5.45928e-08
9.78375e-10
5.46234e-08
9.68365e-10
5.46536e-08
9.58876e-10
5.46836e-08
9.49871e-10
5.47133e-08
9.41316e-10
5.47427e-08
9.3318e-10
5.47718e-08
9.25434e-10
5.48006e-08
9.18049e-10
5.48291e-08
9.10999e-10
5.48572e-08
9.0426e-10
5.4885e-08
8.97806e-10
5.49125e-08
8.91617e-10
5.49397e-08
8.85669e-10
5.49665e-08
8.79944e-10
5.49929e-08
8.7442e-10
5.50189e-08
8.69079e-10
5.50446e-08
8.63902e-10
5.50699e-08
8.5887e-10
5.50947e-08
8.53966e-10
5.51192e-08
8.49173e-10
5.51432e-08
8.44472e-10
5.51668e-08
8.39846e-10
5.519e-08
8.35278e-10
5.52127e-08
8.30749e-10
5.52349e-08
8.26242e-10
5.52567e-08
8.21739e-10
5.52779e-08
8.17219e-10
5.52987e-08
8.12665e-10
5.5319e-08
8.08056e-10
5.53387e-08
8.0337e-10
5.5358e-08
7.98588e-10
5.53766e-08
7.93686e-10
5.53948e-08
7.88641e-10
5.54123e-08
7.83431e-10
5.54293e-08
7.78029e-10
5.54458e-08
7.72412e-10
5.54616e-08
7.66553e-10
5.54768e-08
7.60427e-10
5.54914e-08
7.54007e-10
5.55053e-08
7.47267e-10
5.55187e-08
7.40181e-10
5.55313e-08
7.32727e-10
5.55434e-08
7.24882e-10
5.55547e-08
7.16626e-10
5.55653e-08
7.07943e-10
5.55753e-08
6.98824e-10
5.55845e-08
6.89263e-10
5.55929e-08
6.79264e-10
5.56007e-08
6.68841e-10
5.56076e-08
6.58012e-10
5.56139e-08
6.46799e-10
5.56193e-08
6.35194e-10
5.5624e-08
6.23081e-10
5.5628e-08
6.10026e-10
5.56306e-08
5.94832e-10
5.75017e-10
5.37292e-08
1.53873e-09
-5.36336e-08
5.38415e-08
1.66119e-09
5.39667e-08
1.76956e-09
5.41007e-08
1.86025e-09
5.42394e-08
1.9313e-09
5.43792e-08
1.98224e-09
5.45171e-08
2.01364e-09
5.46506e-08
2.02683e-09
5.47777e-08
2.02367e-09
5.48973e-08
2.0064e-09
5.50084e-08
1.97748e-09
5.51108e-08
1.9394e-09
5.52047e-08
1.89456e-09
5.52904e-08
1.84513e-09
5.53687e-08
1.79301e-09
5.54402e-08
1.73978e-09
5.55059e-08
1.68668e-09
5.55664e-08
1.63467e-09
5.56227e-08
1.58441e-09
5.56754e-08
1.53634e-09
5.5725e-08
1.49072e-09
5.57722e-08
1.44766e-09
5.58174e-08
1.40718e-09
5.58609e-08
1.36921e-09
5.5903e-08
1.33364e-09