/*--------------------------------*- C++ -*----------------------------------*\
| =========                 |                                                 |
| \\      /  F ield         | OpenFOAM: The Open Source CFD Toolbox           |
|  \\    /   O peration     | Version:  2.3.0                                 |
|   \\  /    A nd           | Web:      www.OpenFOAM.org                      |
|    \\/     M anipulation  |                                                 |
\*---------------------------------------------------------------------------*/
FoamFile
{
    version     2.0;
    format      ascii;
    class       surfaceScalarField;
    location    "0.55";
    object      phi_0;
}
// * * * * * * * * * * * * * * * * * * * * * * * * * * * * * * * * * * * * * //

dimensions      [0 3 -1 0 0 0 0];

internalField   nonuniform List<scalar> 
6598
(
2.85976e-08
2.85914e-09
-3.14568e-08
2.57449e-08
2.85278e-09
2.30662e-08
2.67864e-09
2.05963e-08
2.46991e-09
1.83513e-08
2.24505e-09
1.63419e-08
2.00935e-09
1.45709e-08
1.77103e-09
1.3033e-08
1.5379e-09
1.17165e-08
1.31648e-09
1.06044e-08
1.11209e-09
9.67579e-09
9.28617e-10
8.90744e-09
7.68358e-10
8.27545e-09
6.3198e-10
7.75675e-09
5.18708e-10
7.33009e-09
4.26659e-10
6.97685e-09
3.53241e-10
6.68131e-09
2.95541e-10
6.43066e-09
2.50648e-10
6.21478e-09
2.15877e-10
6.02588e-09
1.88906e-10
5.85805e-09
1.67821e-10
5.70694e-09
1.5111e-10
5.56932e-09
1.37619e-10
5.44283e-09
1.26494e-10
5.32571e-09
1.17117e-10
5.21666e-09
1.0905e-10
5.11468e-09
1.01989e-10
5.01896e-09
9.57193e-11
4.92886e-09
9.00935e-11
4.84386e-09
8.50057e-11
4.76348e-09
8.03789e-11
4.68732e-09
7.61548e-11
4.61504e-09
7.2287e-11
4.5463e-09
6.87373e-11
4.48083e-09
6.54734e-11
4.41836e-09
6.24668e-11
4.35867e-09
5.96923e-11
4.30154e-09
5.71274e-11
4.24679e-09
5.47518e-11
4.19424e-09
5.25474e-11
4.14374e-09
5.0498e-11
4.09515e-09
4.85888e-11
4.04835e-09
4.68068e-11
4.00321e-09
4.51404e-11
3.95963e-09
4.3579e-11
3.91751e-09
4.21134e-11
3.87678e-09
4.07352e-11
3.83734e-09
3.94368e-11
3.79913e-09
3.82117e-11
3.76208e-09
3.70538e-11
3.72612e-09
3.59576e-11
3.6912e-09
3.49183e-11
3.65727e-09
3.39315e-11
3.62428e-09
3.29931e-11
3.59218e-09
3.20996e-11
3.56093e-09
3.12476e-11
3.53049e-09
3.04342e-11
3.50084e-09
2.96565e-11
3.47193e-09
2.89121e-11
3.44373e-09
2.81986e-11
3.41621e-09
2.75139e-11
3.38936e-09
2.6856e-11
3.36313e-09
2.62231e-11
3.33752e-09
2.56135e-11
3.31249e-09
2.50257e-11
3.28804e-09
2.4458e-11
3.26413e-09
2.39091e-11
3.24075e-09
2.33779e-11
3.21789e-09
2.2863e-11
3.19552e-09
2.23632e-11
3.17365e-09
2.18775e-11
3.15224e-09
2.14049e-11
3.1313e-09
2.09443e-11
3.1108e-09
2.04949e-11
3.09075e-09
2.00558e-11
3.07112e-09
1.9626e-11
3.05192e-09
1.92049e-11
3.03312e-09
1.87916e-11
3.01474e-09
1.83855e-11
2.99675e-09
1.79858e-11
2.97916e-09
1.7592e-11
2.96196e-09
1.72036e-11
2.94514e-09
1.68199e-11
2.9287e-09
1.64406e-11
2.91263e-09
1.60654e-11
2.89694e-09
1.56939e-11
2.88161e-09
1.5326e-11
2.86665e-09
1.49618e-11
2.85205e-09
1.46015e-11
2.8378e-09
1.42454e-11
2.82391e-09
1.38944e-11
2.81036e-09
1.35496e-11
2.79715e-09
1.32129e-11
2.78426e-09
1.28877e-11
2.77168e-09
1.25798e-11
2.75937e-09
1.23035e-11
2.74727e-09
1.20994e-11
2.73521e-09
1.20606e-11
2.72283e-09
1.23814e-11
3.23375e-11
3.43093e-08
3.10323e-09
-3.45534e-08
3.37496e-08
3.41246e-09
3.29555e-08
3.47269e-09
3.20045e-08
3.4209e-09
3.0952e-08
3.29755e-09
2.98436e-08
3.11778e-09
2.87163e-08
2.89835e-09
2.75985e-08
2.65566e-09
2.65114e-08
2.40364e-09
2.54697e-08
2.15378e-09
2.44831e-08
1.91516e-09
2.35572e-08
1.69433e-09
2.26939e-08
1.49528e-09
2.18929e-08
1.3197e-09
2.11521e-08
1.16744e-09
2.04683e-08
1.03702e-09
1.98377e-08
9.2618e-10
1.9256e-08
8.32322e-10
1.87191e-08
7.52816e-10
1.82227e-08
6.85223e-10
1.77632e-08
6.27403e-10
1.73367e-08
5.77555e-10
1.69401e-08
5.34209e-10
1.65704e-08
4.96188e-10
1.6225e-08
4.62563e-10
1.59014e-08
4.32607e-10
1.55977e-08
4.05749e-10
1.53119e-08
3.81538e-10
1.50423e-08
3.59616e-10
1.47876e-08
3.39691e-10
1.45465e-08
3.21524e-10
1.43177e-08
3.04914e-10
1.41003e-08
2.89689e-10
1.38934e-08
2.75704e-10
1.3696e-08
2.6283e-10
1.35075e-08
2.50954e-10
1.33272e-08
2.39976e-10
1.31546e-08
2.2981e-10
1.29889e-08
2.20377e-10
1.28299e-08
2.11607e-10
1.26769e-08
2.03438e-10
1.25297e-08
1.95815e-10
1.23878e-08
1.88688e-10
1.2251e-08
1.82014e-10
1.21188e-08
1.75752e-10
1.1991e-08
1.69868e-10
1.18674e-08
1.64328e-10
1.17478e-08
1.59106e-10
1.16318e-08
1.54175e-10
1.15193e-08
1.49512e-10
1.14102e-08
1.45095e-10
1.13042e-08
1.40907e-10
1.12012e-08
1.36928e-10
1.11011e-08
1.33145e-10
1.10036e-08
1.29542e-10
1.09088e-08
1.26106e-10
1.08164e-08
1.22825e-10
1.07263e-08
1.19689e-10
1.06386e-08
1.16687e-10
1.0553e-08
1.1381e-10
1.04694e-08
1.11048e-10
1.03879e-08
1.08395e-10
1.03083e-08
1.05843e-10
1.02305e-08
1.03385e-10
1.01545e-08
1.01014e-10
1.00802e-08
9.87238e-11
1.00076e-08
9.65096e-11
9.93665e-09
9.43655e-11
9.86723e-09
9.22865e-11
9.79932e-09
9.02678e-11
9.7329e-09
8.83048e-11
9.66791e-09
8.63931e-11
9.60432e-09
8.45286e-11
9.54211e-09
8.27071e-11
9.48124e-09
8.0925e-11
9.42169e-09
7.91785e-11
9.36343e-09
7.7464e-11
9.30645e-09
7.57781e-11
9.25071e-09
7.41176e-11
9.19622e-09
7.24792e-11
9.14295e-09
7.08601e-11
9.0909e-09
6.92575e-11
9.04005e-09
6.76688e-11
8.9904e-09
6.60915e-11
8.94194e-09
6.45237e-11
8.89467e-09
6.29635e-11
8.84859e-09
6.14097e-11
8.80369e-09
5.98612e-11
8.75997e-09
5.8318e-11
8.71744e-09
5.67805e-11
8.67608e-09
5.52504e-11
8.6359e-09
5.3731e-11
8.59688e-09
5.22275e-11
8.55902e-09
5.07499e-11
8.52228e-09
4.93174e-11
8.48661e-09
4.79748e-11
8.45187e-09
4.68436e-11
8.41765e-09
4.62828e-11
8.38054e-09
4.94887e-11
8.07894e-11
3.64039e-08
2.92208e-09
-3.62227e-08
3.65013e-08
3.31499e-09
3.64739e-08
3.50012e-09
3.63268e-08
3.56801e-09
3.60701e-08
3.55425e-09
3.57174e-08
3.4705e-09
3.52856e-08
3.33017e-09
3.47922e-08
3.14905e-09
3.42538e-08
2.94207e-09
3.36851e-08
2.72242e-09
3.3099e-08
2.50124e-09
3.2506e-08
2.28735e-09
3.19143e-08
2.08697e-09
3.13302e-08
1.90385e-09
3.0758e-08
1.73962e-09
3.02008e-08
1.59425e-09
2.96603e-08
1.46662e-09
2.91377e-08
1.35498e-09
2.86332e-08
1.2573e-09
2.81469e-08
1.17154e-09
2.76784e-08
1.09583e-09
2.72275e-08
1.02853e-09
2.67934e-08
9.68274e-10
2.63757e-08
9.13934e-10
2.59736e-08
8.64606e-10
2.55867e-08
8.1957e-10
2.52142e-08
7.78253e-10
2.48555e-08
7.40197e-10
2.45101e-08
7.05031e-10
2.41773e-08
6.72452e-10
2.38566e-08
6.42204e-10
2.35475e-08
6.14071e-10
2.32493e-08
5.87864e-10
2.29616e-08
5.63417e-10
2.26838e-08
5.40583e-10
2.24156e-08
5.19231e-10
2.21563e-08
4.99239e-10
2.19056e-08
4.80499e-10
2.16631e-08
4.62912e-10
2.14283e-08
4.46388e-10
2.12009e-08
4.30845e-10
2.09805e-08
4.16207e-10
2.07668e-08
4.02405e-10
2.05594e-08
3.89377e-10
2.03581e-08
3.77064e-10
2.01626e-08
3.65415e-10
1.99725e-08
3.54379e-10
1.97877e-08
3.43914e-10
1.96079e-08
3.33978e-10
1.94329e-08
3.24535e-10
1.92624e-08
3.15549e-10
1.90963e-08
3.06988e-10
1.89344e-08
2.98825e-10
1.87766e-08
2.91031e-10
1.86225e-08
2.83583e-10
1.84722e-08
2.76456e-10
1.83254e-08
2.69629e-10
1.8182e-08
2.63084e-10
1.80418e-08
2.56801e-10
1.79049e-08
2.50763e-10
1.7771e-08
2.44954e-10
1.764e-08
2.39359e-10
1.75119e-08
2.33964e-10
1.73865e-08
2.28756e-10
1.72638e-08
2.23722e-10
1.71437e-08
2.1885e-10
1.70261e-08
2.1413e-10
1.69109e-08
2.09551e-10
1.67981e-08
2.05102e-10
1.66876e-08
2.00774e-10
1.65793e-08
1.96557e-10
1.64733e-08
1.92443e-10
1.63694e-08
1.88422e-10
1.62676e-08
1.84487e-10
1.61679e-08
1.80629e-10
1.60702e-08
1.7684e-10
1.59746e-08
1.73112e-10
1.58809e-08
1.69438e-10
1.57892e-08
1.65812e-10
1.56995e-08
1.62224e-10
1.56117e-08
1.5867e-10
1.55258e-08
1.55142e-10
1.54418e-08
1.51634e-10
1.53598e-08
1.4814e-10
1.52796e-08
1.44655e-10
1.52014e-08
1.41175e-10
1.51252e-08
1.37695e-10
1.50508e-08
1.34212e-10
1.49784e-08
1.30725e-10
1.49079e-08
1.27234e-10
1.48395e-08
1.23739e-10
1.47729e-08
1.20247e-10
1.47084e-08
1.16765e-10
1.46458e-08
1.13313e-10
1.45852e-08
1.09924e-10
1.45265e-08
1.06684e-10
1.44695e-08
1.03824e-10
1.44136e-08
1.02176e-10
1.43561e-08
1.07069e-10
1.38378e-10
3.79782e-08
2.70465e-09
-3.77608e-08
3.8205e-08
3.08816e-09
3.83932e-08
3.31191e-09
3.853e-08
3.43121e-09
3.86088e-08
3.47553e-09
3.8625e-08
3.45426e-09
3.85787e-08
3.37645e-09
3.84735e-08
3.25425e-09
3.83152e-08
3.10034e-09
3.81111e-08
2.92657e-09
3.78689e-08
2.74348e-09
3.75963e-08
2.55994e-09
3.73005e-08
2.38273e-09
3.69879e-08
2.2165e-09
3.66636e-08
2.06389e-09
3.63319e-08
1.92593e-09
3.59961e-08
1.80245e-09
3.56586e-08
1.69251e-09
3.53211e-08
1.59474e-09
3.49851e-08
1.50759e-09
3.46513e-08
1.42956e-09
3.43206e-08
1.35928e-09
3.39933e-08
1.29555e-09
3.36699e-08
1.23735e-09
3.33506e-08
1.18389e-09
3.30357e-08
1.13448e-09
3.27253e-08
1.08861e-09
3.24197e-08
1.04585e-09
3.21188e-08
1.00586e-09
3.18229e-08
9.68356e-10
3.1532e-08
9.33114e-10
3.12462e-08
8.99937e-10
3.09654e-08
8.68658e-10
3.06897e-08
8.39129e-10
3.0419e-08
8.11222e-10
3.01534e-08
7.84818e-10
2.98929e-08
7.59812e-10
2.96373e-08
7.36108e-10
2.93865e-08
7.13616e-10
2.91407e-08
6.92256e-10
2.88996e-08
6.71954e-10
2.86631e-08
6.52638e-10
2.84313e-08
6.34246e-10
2.8204e-08
6.16719e-10
2.7981e-08
6.00001e-10
2.77624e-08
5.84042e-10
2.7548e-08
5.68795e-10
2.73377e-08
5.54215e-10
2.71314e-08
5.40263e-10
2.6929e-08
5.26899e-10
2.67305e-08
5.14089e-10
2.65357e-08
5.018e-10
2.63445e-08
4.9e-10
2.61569e-08
4.7866e-10
2.59727e-08
4.67755e-10
2.57919e-08
4.57257e-10
2.56144e-08
4.47144e-10
2.54401e-08
4.37392e-10
2.52689e-08
4.2798e-10
2.51008e-08
4.18889e-10
2.49356e-08
4.10099e-10
2.47734e-08
4.01592e-10
2.4614e-08
3.93351e-10
2.44574e-08
3.8536e-10
2.43035e-08
3.77602e-10
2.41523e-08
3.70063e-10
2.40037e-08
3.62728e-10
2.38577e-08
3.55583e-10
2.37142e-08
3.48615e-10
2.35731e-08
3.41809e-10
2.34345e-08
3.35154e-10
2.32983e-08
3.28637e-10
2.31645e-08
3.22245e-10
2.3033e-08
3.15966e-10
2.29039e-08
3.09788e-10
2.2777e-08
3.03699e-10
2.26524e-08
2.97688e-10
2.25301e-08
2.91743e-10
2.24101e-08
2.85852e-10
2.22923e-08
2.80005e-10
2.21768e-08
2.7419e-10
2.20635e-08
2.68397e-10
2.19526e-08
2.62616e-10
2.18439e-08
2.56836e-10
2.17375e-08
2.51048e-10
2.16334e-08
2.45245e-10
2.15317e-08
2.39418e-10
2.14323e-08
2.33562e-10
2.13354e-08
2.27673e-10
2.12409e-08
2.21748e-10
2.11488e-08
2.1579e-10
2.10593e-08
2.09804e-10
2.09722e-08
2.03802e-10
2.08877e-08
1.9781e-10
2.08058e-08
1.9188e-10
2.07263e-08
1.86134e-10
2.06492e-08
1.80916e-10
2.0574e-08
1.77445e-10
2.04998e-08
1.81223e-10
2.04711e-10
3.95155e-08
2.51243e-09
-3.93233e-08
3.97428e-08
2.86084e-09
3.99666e-08
3.08818e-09
4.01731e-08
3.22468e-09
4.0355e-08
3.29364e-09
4.0505e-08
3.30427e-09
4.06178e-08
3.26361e-09
4.06911e-08
3.181e-09
4.07246e-08
3.0668e-09
4.07202e-08
2.93098e-09
4.0681e-08
2.78268e-09
4.06111e-08
2.62984e-09
4.0515e-08
2.47886e-09
4.0397e-08
2.33442e-09
4.02614e-08
2.19952e-09
4.01116e-08
2.07573e-09
3.99506e-08
1.96349e-09
3.97807e-08
1.86242e-09
3.96037e-08
1.77168e-09
3.94211e-08
1.69017e-09
3.9234e-08
1.61672e-09
3.90431e-08
1.55019e-09
3.8849e-08
1.48958e-09
3.86524e-08
1.43401e-09
3.84535e-08
1.38274e-09
3.82528e-08
1.33517e-09
3.80506e-08
1.29081e-09
3.78472e-08
1.24927e-09
3.76428e-08
1.21023e-09
3.74378e-08
1.17343e-09
3.72322e-08
1.13865e-09
3.70265e-08
1.10572e-09
3.68206e-08
1.07448e-09
3.6615e-08
1.0448e-09
3.64096e-08
1.01656e-09
3.62048e-08
9.89671e-10
3.60006e-08
9.64027e-10
3.57971e-08
9.39549e-10
3.55946e-08
9.16158e-10
3.53931e-08
8.93786e-10
3.51926e-08
8.72368e-10
3.49934e-08
8.51844e-10
3.47955e-08
8.3216e-10
3.4599e-08
8.13266e-10
3.44039e-08
7.95113e-10
3.42102e-08
7.77659e-10
3.40182e-08
7.60864e-10
3.38277e-08
7.44689e-10
3.36389e-08
7.291e-10
3.34517e-08
7.14064e-10
3.32662e-08
6.9955e-10
3.30825e-08
6.8553e-10
3.29005e-08
6.71976e-10
3.27203e-08
6.58864e-10
3.25419e-08
6.4617e-10
3.23653e-08
6.3387e-10
3.21905e-08
6.21944e-10
3.20175e-08
6.1037e-10
3.18464e-08
5.99131e-10
3.1677e-08
5.88207e-10
3.15096e-08
5.7758e-10
3.13439e-08
5.67234e-10
3.11801e-08
5.57152e-10
3.10182e-08
5.47318e-10
3.08581e-08
5.37717e-10
3.06998e-08
5.28334e-10
3.05434e-08
5.19153e-10
3.03888e-08
5.10161e-10
3.02361e-08
5.01342e-10
3.00852e-08
4.92683e-10
2.99362e-08
4.84171e-10
2.9789e-08
4.75789e-10
2.96437e-08
4.67526e-10
2.95003e-08
4.59365e-10
2.93588e-08
4.51295e-10
2.92192e-08
4.43299e-10
2.90815e-08
4.35364e-10
2.89458e-08
4.27476e-10
2.8812e-08
4.1962e-10
2.86803e-08
4.11782e-10
2.85505e-08
4.03948e-10
2.84228e-08
3.96103e-10
2.82972e-08
3.88234e-10
2.81737e-08
3.80327e-10
2.80524e-08
3.7237e-10
2.79333e-08
3.6435e-10
2.78164e-08
3.56257e-10
2.77019e-08
3.48083e-10
2.75898e-08
3.3982e-10
2.748e-08
3.31466e-10
2.73728e-08
3.2302e-10
2.72681e-08
3.1449e-10
2.7166e-08
3.0589e-10
2.70666e-08
2.97252e-10
2.69698e-08
2.88644e-10
2.68757e-08
2.80216e-10
2.67843e-08
2.72379e-10
2.66953e-08
2.66428e-10
2.66099e-08
2.66629e-10
2.77536e-10
4.10926e-08
2.34684e-09
-4.0927e-08
4.12981e-08
2.65535e-09
4.15131e-08
2.87314e-09
4.17243e-08
3.0135e-09
4.19249e-08
3.09301e-09
4.21089e-08
3.12033e-09
4.22709e-08
3.10162e-09
4.24074e-08
3.04445e-09
4.25168e-08
2.95741e-09
4.25988e-08
2.849e-09
4.26544e-08
2.72709e-09
4.26856e-08
2.59865e-09
4.2695e-08
2.46946e-09
4.26855e-08
2.34391e-09
4.26599e-08
2.22506e-09
4.2621e-08
2.11469e-09
4.25709e-08
2.01359e-09
4.25115e-08
1.92179e-09
4.24444e-08
1.83882e-09
4.23706e-08
1.76393e-09
4.22911e-08
1.69621e-09
4.22065e-08
1.63477e-09
4.21174e-08
1.57875e-09
4.2024e-08
1.52739e-09
4.19267e-08
1.48004e-09
4.18257e-08
1.43613e-09
4.17213e-08
1.39523e-09
4.16136e-08
1.35695e-09
4.15029e-08
1.32099e-09
4.13892e-08
1.28709e-09
4.12728e-08
1.25505e-09
4.11538e-08
1.2247e-09
4.10324e-08
1.19588e-09
4.09087e-08
1.16847e-09
4.07829e-08
1.14236e-09
4.06552e-08
1.11744e-09
4.05256e-08
1.09363e-09
4.03943e-08
1.07086e-09
4.02614e-08
1.04904e-09
4.0127e-08
1.02811e-09
3.99914e-08
1.00802e-09
3.98545e-08
9.88702e-10
3.97166e-08
9.70114e-10
3.95776e-08
9.52208e-10
3.94378e-08
9.34941e-10
3.92972e-08
9.18273e-10
3.91559e-08
9.02168e-10
3.9014e-08
8.86592e-10
3.88716e-08
8.71514e-10
3.87287e-08
8.56904e-10
3.85856e-08
8.42736e-10
3.84421e-08
8.28983e-10
3.82985e-08
8.15623e-10
3.81547e-08
8.02632e-10
3.80109e-08
7.89991e-10
3.78671e-08
7.77678e-10
3.77233e-08
7.65675e-10
3.75797e-08
7.53965e-10
3.74363e-08
7.4253e-10
3.72932e-08
7.31354e-10
3.71503e-08
7.20421e-10
3.70079e-08
7.09716e-10
3.68658e-08
6.99224e-10
3.67242e-08
6.88931e-10
3.65831e-08
6.78823e-10
3.64425e-08
6.68884e-10
3.63026e-08
6.59103e-10
3.61633e-08
6.49464e-10
3.60247e-08
6.39954e-10
3.58868e-08
6.30558e-10
3.57497e-08
6.21264e-10
3.56134e-08
6.12056e-10
3.5478e-08
6.02919e-10
3.53436e-08
5.9384e-10
3.521e-08
5.84803e-10
3.50776e-08
5.75792e-10
3.49461e-08
5.66792e-10
3.48158e-08
5.57787e-10
3.46867e-08
5.4876e-10
3.45588e-08
5.39695e-10
3.44321e-08
5.30575e-10
3.43069e-08
5.21383e-10
3.4183e-08
5.12103e-10
3.40606e-08
5.02719e-10
3.39397e-08
4.93215e-10
3.38205e-08
4.83576e-10
3.3703e-08
4.73788e-10
3.35872e-08
4.63842e-10
3.34733e-08
4.53728e-10
3.33614e-08
4.4344e-10
3.32514e-08
4.3298e-10
3.31435e-08
4.22353e-10
3.30378e-08
4.11578e-10
3.29344e-08
4.00692e-10
3.28333e-08
3.89768e-10
3.27345e-08
3.78971e-10
3.26382e-08
3.68698e-10
3.25446e-08
3.60008e-10
3.2456e-08
3.55265e-10
3.52105e-10
4.27219e-08
2.2014e-09
-4.25764e-08
4.29054e-08
2.4718e-09
4.31039e-08
2.67463e-09
4.33044e-08
2.81305e-09
4.35e-08
2.89736e-09
4.36856e-08
2.9348e-09
4.38564e-08
2.93081e-09
4.40092e-08
2.89164e-09
4.41421e-08
2.82447e-09
4.42545e-08
2.73659e-09
4.43468e-08
2.63487e-09
4.442e-08
2.52542e-09
4.4476e-08
2.41346e-09
4.45168e-08
2.30306e-09
4.45447e-08
2.1972e-09
4.45616e-08
2.09776e-09
4.45694e-08
2.00577e-09
4.45697e-08
1.92154e-09
4.45636e-08
1.8449e-09
4.45522e-08
1.77538e-09
4.45361e-08
1.71231e-09
4.45158e-08
1.655e-09
4.44919e-08
1.60273e-09
4.44644e-08
1.55486e-09
4.44336e-08
1.51081e-09
4.43997e-08
1.47008e-09
4.43627e-08
1.43224e-09
4.43227e-08
1.39696e-09
4.42797e-08
1.36392e-09
4.42339e-08
1.33288e-09
4.41853e-08
1.30365e-09
4.4134e-08
1.27604e-09
4.408e-08
1.2499e-09
4.40234e-08
1.22511e-09
4.39642e-08
1.20155e-09
4.39025e-08
1.17912e-09
4.38384e-08
1.15774e-09
4.37719e-08
1.13733e-09
4.37031e-08
1.11781e-09
4.36321e-08
1.09911e-09
4.3559e-08
1.08118e-09
4.34837e-08
1.06396e-09
4.34064e-08
1.04741e-09
4.33272e-08
1.03147e-09
4.3246e-08
1.0161e-09
4.3163e-08
1.00126e-09
4.30783e-08
9.86921e-10
4.29918e-08
9.73044e-10
4.29037e-08
9.59598e-10
4.28141e-08
9.46556e-10
4.27229e-08
9.33889e-10
4.26303e-08
9.21574e-10
4.25364e-08
9.09587e-10
4.24411e-08
8.97905e-10
4.23446e-08
8.86509e-10
4.22469e-08
8.75379e-10
4.21481e-08
8.64496e-10
4.20482e-08
8.53844e-10
4.19473e-08
8.43406e-10
4.18455e-08
8.33166e-10
4.17428e-08
8.23109e-10
4.16393e-08
8.1322e-10
4.1535e-08
8.03485e-10
4.14301e-08
7.93889e-10
4.13245e-08
7.84418e-10
4.12183e-08
7.7506e-10
4.11116e-08
7.65799e-10
4.10044e-08
7.56623e-10
4.08969e-08
7.47517e-10
4.0789e-08
7.38466e-10
4.06808e-08
7.29457e-10
4.05724e-08
7.20475e-10
4.04638e-08
7.11503e-10
4.03551e-08
7.02528e-10
4.02464e-08
6.93532e-10
4.01377e-08
6.84498e-10
4.0029e-08
6.7541e-10
3.99206e-08
6.66251e-10
3.98123e-08
6.57001e-10
3.97044e-08
6.47642e-10
3.95968e-08
6.38156e-10
3.94897e-08
6.28522e-10
3.9383e-08
6.18724e-10
3.9277e-08
6.08741e-10
3.91717e-08
5.98555e-10
3.90671e-08
5.88149e-10
3.89634e-08
5.77507e-10
3.88606e-08
5.66616e-10
3.87589e-08
5.55466e-10
3.86583e-08
5.44049e-10
3.85589e-08
5.32366e-10
3.84608e-08
5.20423e-10
3.83642e-08
5.08238e-10
3.8269e-08
4.95852e-10
3.81754e-08
4.83339e-10
3.80835e-08
4.70851e-10
3.79935e-08
4.58703e-10
3.7906e-08
4.47518e-10
3.78235e-08
4.37743e-10
4.22192e-10
4.44062e-08
2.07067e-09
-4.42754e-08
4.45711e-08
2.30685e-09
4.47532e-08
2.49259e-09
4.49404e-08
2.62579e-09
4.5126e-08
2.71178e-09
4.53048e-08
2.75596e-09
4.54727e-08
2.76292e-09
4.56266e-08
2.73778e-09
4.57645e-08
2.68652e-09
4.58858e-08
2.61534e-09
4.59905e-08
2.53019e-09
4.60794e-08
2.43649e-09
4.6154e-08
2.33889e-09
4.62159e-08
2.24117e-09
4.62669e-08
2.14618e-09
4.63088e-08
2.05586e-09
4.63432e-08
1.97138e-09
4.63714e-08
1.89329e-09
4.63947e-08
1.82166e-09
4.64138e-08
1.75624e-09
4.64295e-08
1.69661e-09
4.64423e-08
1.64224e-09
4.64524e-08
1.59256e-09
4.64602e-08
1.54704e-09
4.64659e-08
1.50519e-09
4.64694e-08
1.46655e-09
4.64709e-08
1.43076e-09
4.64703e-08
1.39748e-09
4.64678e-08
1.36642e-09
4.64633e-08
1.33737e-09
4.64569e-08
1.31011e-09
4.64484e-08
1.28447e-09
4.6438e-08
1.26031e-09
4.64256e-08
1.2375e-09
4.64113e-08
1.21592e-09
4.63949e-08
1.19547e-09
4.63766e-08
1.17605e-09
4.63563e-08
1.1576e-09
4.63341e-08
1.14003e-09
4.63099e-08
1.12329e-09
4.62838e-08
1.10729e-09
4.62558e-08
1.092e-09
4.62259e-08
1.07735e-09
4.6194e-08
1.0633e-09
4.61603e-08
1.04981e-09
4.61248e-08
1.03682e-09
4.60874e-08
1.02432e-09
4.60481e-08
1.01226e-09
4.60071e-08
1.0006e-09
4.59644e-08
9.8932e-10
4.59199e-08
9.78391e-10
4.58737e-08
9.67784e-10
4.58258e-08
9.57477e-10
4.57762e-08
9.47444e-10
4.57251e-08
9.37666e-10
4.56723e-08
9.2812e-10
4.5618e-08
9.18789e-10
4.55622e-08
9.09653e-10
4.5505e-08
9.00694e-10
4.54462e-08
8.91897e-10
4.53861e-08
8.83245e-10
4.53246e-08
8.74722e-10
4.52618e-08
8.66313e-10
4.51976e-08
8.58003e-10
4.51323e-08
8.49777e-10
4.50657e-08
8.4162e-10
4.4998e-08
8.33517e-10
4.49292e-08
8.25453e-10
4.48593e-08
8.17414e-10
4.47884e-08
8.09384e-10
4.47165e-08
8.01348e-10
4.46437e-08
7.93288e-10
4.457e-08
7.85189e-10
4.44955e-08
7.77034e-10
4.44202e-08
7.68804e-10
4.43442e-08
7.60481e-10
4.42676e-08
7.52047e-10
4.41903e-08
7.43481e-10
4.41126e-08
7.34764e-10
4.40343e-08
7.25875e-10
4.39557e-08
7.16792e-10
4.38767e-08
7.07494e-10
4.37975e-08
6.97959e-10
4.37181e-08
6.88167e-10
4.36385e-08
6.78096e-10
4.3559e-08
6.67727e-10
4.34794e-08
6.57041e-10
4.34e-08
6.46024e-10
4.33208e-08
6.34661e-10
4.32419e-08
6.22946e-10
4.31634e-08
6.10876e-10
4.30854e-08
5.98459e-10
4.30079e-08
5.85712e-10
4.29311e-08
5.72675e-10
4.2855e-08
5.59414e-10
4.27798e-08
5.4605e-10
4.27057e-08
5.32773e-10
4.26335e-08
5.19733e-10
4.25654e-08
5.0591e-10
4.81891e-10
4.61474e-08
1.95086e-09
-4.60276e-08
4.62971e-08
2.15713e-09
4.64643e-08
2.3254e-09
4.66388e-08
2.45132e-09
4.68137e-08
2.5368e-09
4.69843e-08
2.58539e-09
4.71465e-08
2.60074e-09
4.72972e-08
2.58701e-09
4.74347e-08
2.54908e-09
4.75579e-08
2.49215e-09
4.76667e-08
2.42136e-09
4.77618e-08
2.34142e-09
4.78441e-08
2.25651e-09
4.79152e-08
2.17008e-09
4.79766e-08
2.08482e-09
4.80298e-08
2.00267e-09
4.80762e-08
1.92493e-09
4.81173e-08
1.85228e-09
4.81539e-08
1.78501e-09
4.81871e-08
1.72308e-09
4.82174e-08
1.66625e-09
4.82455e-08
1.61415e-09
4.82717e-08
1.56637e-09
4.82963e-08
1.52247e-09
4.83194e-08
1.48205e-09
4.83413e-08
1.44473e-09
4.83619e-08
1.41016e-09
4.83813e-08
1.37807e-09
4.83995e-08
1.34818e-09
4.84166e-08
1.32029e-09
4.84325e-08
1.29419e-09
4.84473e-08
1.26972e-09
4.84609e-08
1.24674e-09
4.84732e-08
1.22512e-09
4.84844e-08
1.20475e-09
4.84943e-08
1.18553e-09
4.8503e-08
1.16737e-09
4.85104e-08
1.15018e-09
4.85166e-08
1.1339e-09
4.85214e-08
1.11845e-09
4.8525e-08
1.10377e-09
4.85271e-08
1.0898e-09
4.8528e-08
1.0765e-09
4.85275e-08
1.06381e-09
4.85256e-08
1.05169e-09
4.85223e-08
1.04009e-09
4.85177e-08
1.02898e-09
4.85116e-08
1.01831e-09
4.85042e-08
1.00806e-09
4.84953e-08
9.9819e-10
4.8485e-08
9.88675e-10
4.84733e-08
9.79485e-10
4.84602e-08
9.70595e-10
4.84456e-08
9.61979e-10
4.84297e-08
9.53615e-10
4.84123e-08
9.4548e-10
4.83936e-08
9.37555e-10
4.83734e-08
9.29818e-10
4.83519e-08
9.22252e-10
4.83289e-08
9.14838e-10
4.83046e-08
9.07558e-10
4.82789e-08
9.00395e-10
4.82519e-08
8.93333e-10
4.82236e-08
8.86355e-10
4.81939e-08
8.79444e-10
4.81629e-08
8.72586e-10
4.81307e-08
8.65762e-10
4.80972e-08
8.58958e-10
4.80624e-08
8.52155e-10
4.80265e-08
8.45339e-10
4.79893e-08
8.38491e-10
4.7951e-08
8.31593e-10
4.79116e-08
8.24627e-10
4.7871e-08
8.17575e-10
4.78294e-08
8.10416e-10
4.77868e-08
8.03131e-10
4.77431e-08
7.95699e-10
4.76985e-08
7.88097e-10
4.7653e-08
7.80304e-10
4.76066e-08
7.72297e-10
4.75593e-08
7.64052e-10
4.75112e-08
7.55545e-10
4.74625e-08
7.46752e-10
4.7413e-08
7.37651e-10
4.73628e-08
7.28216e-10
4.73121e-08
7.18427e-10
4.72609e-08
7.08264e-10
4.72092e-08
6.97707e-10
4.71572e-08
6.86744e-10
4.71047e-08
6.75364e-10
4.70521e-08
6.63564e-10
4.69992e-08
6.5135e-10
4.69461e-08
6.38739e-10
4.6893e-08
6.25766e-10
4.684e-08
6.12487e-10
4.6787e-08
5.98979e-10
4.67345e-08
5.85302e-10
4.6683e-08
5.7123e-10
4.6634e-08
5.54932e-10
5.27164e-10
4.79477e-08
1.83934e-09
-4.78362e-08
4.80851e-08
2.01978e-09
4.82393e-08
2.17121e-09
4.8402e-08
2.28866e-09
4.85668e-08
2.37197e-09
4.8729e-08
2.42313e-09
4.8885e-08
2.44483e-09
4.90316e-08
2.44037e-09
4.9167e-08
2.41369e-09
4.929e-08
2.3691e-09
4.94004e-08
2.31095e-09
4.94985e-08
2.24333e-09
4.95851e-08
2.16992e-09
4.96613e-08
2.09386e-09
4.97285e-08
2.01767e-09
4.97879e-08
1.94325e-09
4.98409e-08
1.87191e-09
4.98887e-08
1.80449e-09
4.99323e-08
1.74142e-09
4.99726e-08
1.68283e-09
5.00102e-08
1.62864e-09
5.00457e-08
1.57863e-09
5.00795e-08
1.53253e-09
5.0112e-08
1.48999e-09
5.01434e-08
1.4507e-09
5.01737e-08
1.41435e-09
5.02033e-08
1.38064e-09
5.0232e-08
1.34932e-09
5.02601e-08
1.32015e-09
5.02874e-08
1.29294e-09
5.03141e-08
1.26751e-09
5.03401e-08
1.24371e-09
5.03654e-08
1.22139e-09
5.03901e-08
1.20043e-09
5.04141e-08
1.18073e-09
5.04375e-08
1.16219e-09
5.04601e-08
1.14472e-09
5.04821e-08
1.12824e-09
5.05033e-08
1.11268e-09
5.05237e-08
1.09797e-09
5.05435e-08
1.08405e-09
5.05624e-08
1.07087e-09
5.05805e-08
1.05836e-09
5.05979e-08
1.04648e-09
5.06144e-08
1.03519e-09
5.063e-08
1.02444e-09
5.06448e-08
1.01419e-09
5.06587e-08
1.00441e-09
5.06717e-08
9.95054e-10
5.06838e-08
9.86102e-10
5.0695e-08
9.77519e-10
5.07052e-08
9.69276e-10
5.07144e-08
9.61346e-10
5.07227e-08
9.53704e-10
5.073e-08
9.46327e-10
5.07363e-08
9.39191e-10
5.07416e-08
9.32275e-10
5.07458e-08
9.25558e-10
5.07491e-08
9.1902e-10
5.07512e-08
9.12642e-10
5.07524e-08
9.06405e-10
5.07525e-08
9.00292e-10
5.07516e-08
8.94284e-10
5.07495e-08
8.88365e-10
5.07465e-08
8.82516e-10
5.07423e-08
8.7672e-10
5.07371e-08
8.7096e-10
5.07309e-08
8.65219e-10
5.07236e-08
8.59479e-10
5.07152e-08
8.53721e-10
5.07057e-08
8.47927e-10
5.06952e-08
8.42079e-10
5.06837e-08
8.36156e-10
5.06712e-08
8.30138e-10
5.06576e-08
8.24004e-10
5.0643e-08
8.17733e-10
5.06274e-08
8.11301e-10
5.06108e-08
8.04686e-10
5.05932e-08
7.97864e-10
5.05747e-08
7.9081e-10
5.05553e-08
7.83498e-10
5.05349e-08
7.75903e-10
5.05137e-08
7.68e-10
5.04915e-08
7.59763e-10
5.04686e-08
7.51167e-10
5.04448e-08
7.42187e-10
5.04203e-08
7.32803e-10
5.0395e-08
7.22995e-10
5.0369e-08
7.12747e-10
5.03423e-08
7.02048e-10
5.0315e-08
6.90894e-10
5.0287e-08
6.79289e-10
5.02585e-08
6.6725e-10
5.02295e-08
6.54804e-10
5.02e-08
6.41995e-10
5.01701e-08
6.2886e-10
5.01401e-08
6.15356e-10
5.01102e-08
6.01041e-10
5.00813e-08
5.83913e-10
5.5654e-10
4.98097e-08
1.7343e-09
-4.97047e-08
4.9937e-08
1.89249e-09
5.008e-08
2.02821e-09
5.0232e-08
2.13669e-09
5.03873e-08
2.21663e-09
5.05416e-08
2.26883e-09
5.06913e-08
2.29515e-09
5.08336e-08
2.29812e-09
5.09664e-08
2.28086e-09
5.10886e-08
2.2469e-09
5.11997e-08
2.19987e-09
5.12997e-08
2.14328e-09
5.13893e-08
2.08037e-09
5.14692e-08
2.01393e-09
5.15406e-08
1.94628e-09
5.16046e-08
1.87925e-09
5.16623e-08
1.81416e-09
5.17149e-08
1.75192e-09
5.17632e-08
1.69308e-09
5.18082e-08
1.63789e-09
5.18504e-08
1.58642e-09
5.18904e-08
1.53858e-09
5.19288e-08
1.4942e-09
5.19657e-08
1.45304e-09
5.20015e-08
1.41487e-09
5.20365e-08
1.37944e-09
5.20706e-08
1.3465e-09
5.21041e-08
1.31584e-09
5.2137e-08
1.28726e-09
5.21693e-08
1.26057e-09
5.22012e-08
1.23562e-09
5.22327e-08
1.21226e-09
5.22637e-08
1.19036e-09
5.22943e-08
1.16982e-09
5.23245e-08
1.15052e-09
5.23543e-08
1.13238e-09
5.23837e-08
1.11531e-09
5.24128e-08
1.09923e-09
5.24414e-08
1.08407e-09
5.24696e-08
1.06977e-09
5.24974e-08
1.05627e-09
5.25247e-08
1.04351e-09
5.25516e-08
1.03143e-09
5.25781e-08
1.02e-09
5.26041e-08
1.00917e-09
5.26297e-08
9.98884e-10
5.26548e-08
9.89118e-10
5.26793e-08
9.79831e-10
5.27034e-08
9.70988e-10
5.27269e-08
9.62558e-10
5.275e-08
9.54511e-10
5.27724e-08
9.46818e-10
5.27943e-08
9.39451e-10
5.28156e-08
9.32387e-10
5.28364e-08
9.256e-10
5.28565e-08
9.19068e-10
5.2876e-08
9.12769e-10
5.28949e-08
9.06683e-10
5.29131e-08
9.00788e-10
5.29307e-08
8.95066e-10
5.29476e-08
8.89498e-10
5.29638e-08
8.84064e-10
5.29793e-08
8.78748e-10
5.29942e-08
8.73531e-10
5.30083e-08
8.68395e-10
5.30217e-08
8.63323e-10
5.30343e-08
8.58297e-10
5.30463e-08
8.53299e-10
5.30574e-08
8.4831e-10
5.30678e-08
8.43312e-10
5.30775e-08
8.38286e-10
5.30864e-08
8.33212e-10
5.30944e-08
8.2807e-10
5.31017e-08
8.22839e-10
5.31082e-08
8.17497e-10
5.3114e-08
8.12021e-10
5.31189e-08
8.06389e-10
5.3123e-08
8.00577e-10
5.31263e-08
7.94559e-10
5.31288e-08
7.8831e-10
5.31305e-08
7.81803e-10
5.31314e-08
7.75014e-10
5.31315e-08
7.67914e-10
5.31307e-08
7.60478e-10
5.31292e-08
7.52679e-10
5.31269e-08
7.44494e-10
5.31238e-08
7.35899e-10
5.31199e-08
7.26874e-10
5.31153e-08
7.17404e-10
5.31099e-08
7.07477e-10
5.31037e-08
6.97088e-10
5.30967e-08
6.86242e-10
5.3089e-08
6.74951e-10
5.30806e-08
6.63241e-10
5.30714e-08
6.5114e-10
5.30616e-08
6.38658e-10
5.30513e-08
6.25695e-10
5.30406e-08
6.11753e-10
5.30294e-08
5.95121e-10
5.70895e-10
5.1736e-08
1.63442e-09
-5.16361e-08
5.1855e-08
1.77344e-09
5.19884e-08
1.8948e-09
5.21309e-08
1.99426e-09
5.22775e-08
2.07e-09
5.24243e-08
2.12204e-09
5.25679e-08
2.15151e-09
5.27057e-08
2.1603e-09
5.28358e-08
2.15082e-09
5.29568e-08
2.12591e-09
5.3068e-08
2.0886e-09
5.31695e-08
2.04184e-09
5.32614e-08
1.98844e-09
5.33445e-08
1.93088e-09
5.34195e-08
1.87127e-09
5.34874e-08
1.81131e-09
5.35493e-08
1.75232e-09
5.3606e-08
1.69523e-09
5.36584e-08
1.64066e-09
5.37073e-08
1.58899e-09
5.37533e-08
1.54038e-09
5.3797e-08
1.49486e-09
5.38389e-08
1.45234e-09
5.38792e-08
1.4127e-09
5.39183e-08
1.37576e-09
5.39564e-08
1.34134e-09
5.39937e-08
1.30923e-09
5.40303e-08
1.27928e-09
5.40662e-08
1.25129e-09
5.41017e-08
1.22513e-09
5.41367e-08
1.20063e-09
5.41712e-08
1.17768e-09
5.42054e-08
1.15616e-09
5.42393e-08
1.13596e-09
5.42728e-08
1.11699e-09
5.43061e-08
1.09915e-09
5.4339e-08
1.08237e-09
5.43717e-08
1.06657e-09
5.44041e-08
1.05168e-09
5.44362e-08
1.03765e-09
5.4468e-08
1.02441e-09
5.44996e-08
1.01191e-09
5.4531e-08
1.0001e-09
5.4562e-08
9.88932e-10
5.45928e-08
9.78364e-10
5.46234e-08
9.68353e-10
5.46536e-08
9.58862e-10
5.46836e-08
9.49855e-10
5.47133e-08
9.41298e-10
5.47427e-08
9.33161e-10
5.47718e-08
9.25412e-10
5.48006e-08
9.18024e-10
5.48291e-08
9.10971e-10
5.48572e-08
9.04228e-10
5.4885e-08
8.97771e-10
5.49125e-08
8.91577e-10
5.49397e-08
8.85625e-10
5.49665e-08
8.79895e-10
5.49929e-08
8.74365e-10
5.50189e-08
8.69017e-10
5.50446e-08
8.63833e-10
5.50699e-08
8.58793e-10
5.50947e-08
8.5388e-10
5.51192e-08
8.49077e-10
5.51432e-08
8.44365e-10
5.51668e-08
8.39727e-10
5.519e-08
8.35145e-10
5.52127e-08
8.30601e-10
5.52349e-08
8.26077e-10
5.52567e-08
8.21555e-10
5.52779e-08
8.17015e-10
5.52987e-08
8.12438e-10
5.5319e-08
8.07803e-10
5.53387e-08
8.03091e-10
5.53579e-08
7.98278e-10
5.53766e-08
7.93342e-10
5.53948e-08
7.88261e-10
5.54123e-08
7.83011e-10
5.54293e-08
7.77565e-10
5.54457e-08
7.719e-10
5.54615e-08
7.65989e-10
5.54767e-08
7.59806e-10
5.54913e-08
7.53324e-10
5.55053e-08
7.46517e-10
5.55186e-08
7.3936e-10
5.55313e-08
7.31828e-10
5.55433e-08
7.23899e-10
5.55546e-08
7.15554e-10
5.55652e-08
7.06776e-10
5.55752e-08
6.97555e-10
5.55844e-08
6.87888e-10
5.55928e-08
6.77777e-10
5.56005e-08
6.67236e-10
5.56075e-08
6.56286e-10
5.56137e-08
6.44949e-10
5.56191e-08
6.33218e-10
5.56238e-08
6.20982e-10
5.56278e-08
6.07811e-10
5.56304e-08
5.9252e-10
5.72644e-10
5.37292e-08
1.53873e-09
-5.36336e-08
5.38415e-08
1.66119e-09
5.39667e-08
1.76956e-09
5.41007e-08
1.86025e-09
5.42394e-08
1.9313e-09
5.43792e-08
1.98224e-09
5.45171e-08
2.01364e-09
5.46506e-08
2.02683e-09
5.47777e-08
2.02367e-09
5.48973e-08
2.0064e-09
5.50084e-08
1.97748e-09
5.51108e-08
1.9394e-09
5.52047e-08
1.89456e-09
5.52904e-08
1.84513e-09
5.53687e-08
1.79301e-09
5.54402e-08
1.73978e-09
5.55059e-08
1.68668e-09
5.55664e-08
1.63467e-09
5.56227e-08
1.58441e-09
5.56754e-08
1.53634e-09
5.5725e-08
1.49072e-09
5.57722e-08
1.44766e-09
5.58174e-08
1.40718e-09
5.58609e-08
1.36921e-09
5.5903e-08
1.33364e-09
5.5944e-08