/*--------------------------------*- C++ -*----------------------------------*\
| =========                 |                                                 |
| \\      /  F ield         | OpenFOAM: The Open Source CFD Toolbox           |
|  \\    /   O peration     | Version:  2.3.0                                 |
|   \\  /    A nd           | Web:      www.OpenFOAM.org                      |
|    \\/     M anipulation  |                                                 |
\*---------------------------------------------------------------------------*/
FoamFile
{
    version     2.0;
    format      ascii;
    class       volVectorField;
    location    "0.55";
    object      U_0;
}
// * * * * * * * * * * * * * * * * * * * * * * * * * * * * * * * * * * * * * //

dimensions      [0 1 -1 0 0 0 0];

internalField   nonuniform List<vector> 
3375
(
(0.173031 0.00585775 0)
(0.15668 0.00597828 0)
(0.140942 0.00558457 0)
(0.125995 0.00500155 0)
(0.112267 0.00435128 0)
(0.0999364 0.00368812 0)
(0.089015 0.00304961 0)
(0.079469 0.00246186 0)
(0.0712432 0.00194076 0)
(0.0642546 0.00149442 0)
(0.0583915 0.00112481 0)
(0.0535232 0.00082876 0)
(0.0495106 0.00059922 0)
(0.0462161 0.00042675 0)
(0.0435107 0.000301046 0)
(0.041279 0.000212119 0)
(0.0394219 0.000151053 0)
(0.0378575 0.000110364 0)
(0.03652 8.40685e-05 0)
(0.0353584 6.75739e-05 0)
(0.0343336 5.74915e-05 0)
(0.0334164 5.14167e-05 0)
(0.0325854 4.77132e-05 0)
(0.0318246 4.53185e-05 0)
(0.0311224 4.35788e-05 0)
(0.0304702 4.21182e-05 0)
(0.0298614 4.07397e-05 0)
(0.0292908 3.93557e-05 0)
(0.0287545 3.794e-05 0)
(0.028249 3.64976e-05 0)
(0.0277715 3.50463e-05 0)
(0.0273195 3.36072e-05 0)
(0.0268909 3.2199e-05 0)
(0.0264836 3.08359e-05 0)
(0.026096 2.95281e-05 0)
(0.0257265 2.82816e-05 0)
(0.0253736 2.70989e-05 0)
(0.0250361 2.59806e-05 0)
(0.0247129 2.49252e-05 0)
(0.024403 2.393e-05 0)
(0.0241052 2.29921e-05 0)
(0.023819 2.21082e-05 0)
(0.0235433 2.12745e-05 0)
(0.0232776 2.04876e-05 0)
(0.0230213 1.97441e-05 0)
(0.0227737 1.9041e-05 0)
(0.0225342 1.83752e-05 0)
(0.0223026 1.77441e-05 0)
(0.0220782 1.71451e-05 0)
(0.0218606 1.65758e-05 0)
(0.0216496 1.60343e-05 0)
(0.0214448 1.55185e-05 0)
(0.0212458 1.50268e-05 0)
(0.0210524 1.45574e-05 0)
(0.0208642 1.41089e-05 0)
(0.0206811 1.36799e-05 0)
(0.0205029 1.32693e-05 0)
(0.0203292 1.28758e-05 0)
(0.0201599 1.24984e-05 0)
(0.0199948 1.2136e-05 0)
(0.0198338 1.17879e-05 0)
(0.0196766 1.14532e-05 0)
(0.0195232 1.1131e-05 0)
(0.0193733 1.08206e-05 0)
(0.0192269 1.05215e-05 0)
(0.0190839 1.02329e-05 0)
(0.0189441 9.95429e-06 0)
(0.0188074 9.68514e-06 0)
(0.0186737 9.42494e-06 0)
(0.018543 9.17315e-06 0)
(0.0184151 8.92938e-06 0)
(0.0182899 8.69322e-06 0)
(0.0181675 8.46428e-06 0)
(0.0180477 8.24217e-06 0)
(0.0179305 8.02664e-06 0)
(0.0178158 7.81724e-06 0)
(0.0177035 7.61381e-06 0)
(0.0175936 7.41603e-06 0)
(0.0174862 7.22379e-06 0)
(0.017381 7.03668e-06 0)
(0.0172781 6.85466e-06 0)
(0.0171775 6.6776e-06 0)
(0.0170792 6.50537e-06 0)
(0.016983 6.33782e-06 0)
(0.016889 6.17502e-06 0)
(0.0167972 6.0169e-06 0)
(0.0167075 5.86363e-06 0)
(0.0166199 5.71523e-06 0)
(0.0165345 5.57199e-06 0)
(0.0164511 5.43417e-06 0)
(0.0163697 5.30229e-06 0)
(0.0162904 5.17703e-06 0)
(0.016213 5.05934e-06 0)
(0.0161375 4.95117e-06 0)
(0.0160639 4.8555e-06 0)
(0.015992 4.77983e-06 0)
(0.0159216 4.74802e-06 0)
(0.0158517 4.78361e-06 0)
(0.0157893 4.44094e-06 0)
(0.0156285 2.32911e-05 0)
(0.192061 0.00930849 0)
(0.189955 0.00986238 0)
(0.186259 0.00965325 0)
(0.181311 0.00916344 0)
(0.175614 0.00853767 0)
(0.169518 0.00782244 0)
(0.163243 0.00705567 0)
(0.156955 0.00627231 0)
(0.150787 0.00550149 0)
(0.144837 0.00476696 0)
(0.139175 0.00408735 0)
(0.13384 0.00347557 0)
(0.128852 0.00293861 0)
(0.124214 0.00247795 0)
(0.11992 0.00209051 0)
(0.115953 0.00177001 0)
(0.112293 0.00150822 0)
(0.108919 0.00129618 0)
(0.105805 0.0011251 0)
(0.10293 0.000986959 0)
(0.10027 0.000874851 0)
(0.0978051 0.000783059 0)
(0.0955151 0.000707024 0)
(0.0933829 0.000643203 0)
(0.0913928 0.000588901 0)
(0.0895311 0.000542094 0)
(0.0877852 0.000501273 0)
(0.0861441 0.000465314 0)
(0.0845983 0.000433374 0)
(0.0831389 0.000404809 0)
(0.0817585 0.000379123 0)
(0.0804501 0.00035592 0)
(0.0792078 0.000334882 0)
(0.078026 0.000315743 0)
(0.0769 0.000298282 0)
(0.0758254 0.000282306 0)
(0.0747983 0.000267653 0)
(0.0738152 0.000254178 0)
(0.0728728 0.000241758 0)
(0.0719684 0.000230281 0)
(0.0710992 0.000219653 0)
(0.070263 0.000209787 0)
(0.0694576 0.00020061 0)
(0.0686809 0.000192054 0)
(0.0679313 0.000184063 0)
(0.0672071 0.000176584 0)
(0.0665068 0.000169571 0)
(0.065829 0.000162984 0)
(0.0651724 0.000156786 0)
(0.0645359 0.000150945 0)
(0.0639184 0.000145431 0)
(0.0633189 0.000140218 0)
(0.0627365 0.000135284 0)
(0.0621704 0.000130605 0)
(0.0616198 0.000126164 0)
(0.0610839 0.000121942 0)
(0.060562 0.000117924 0)
(0.0600536 0.000114096 0)
(0.0595581 0.000110443 0)
(0.0590749 0.000106954 0)
(0.0586034 0.000103618 0)
(0.0581434 0.000100425 0)
(0.0576942 9.73644e-05 0)
(0.0572555 9.44282e-05 0)
(0.056827 9.16081e-05 0)
(0.0564082 8.88967e-05 0)
(0.0559989 8.62869e-05 0)
(0.0555986 8.37722e-05 0)
(0.0552073 8.13467e-05 0)
(0.0548245 7.90044e-05 0)
(0.0544501 7.67401e-05 0)
(0.0540838 7.45488e-05 0)
(0.0537254 7.24258e-05 0)
(0.0533747 7.03665e-05 0)
(0.0530317 6.8367e-05 0)
(0.052696 6.64231e-05 0)
(0.0523676 6.45312e-05 0)
(0.0520463 6.26878e-05 0)
(0.0517321 6.08899e-05 0)
(0.0514249 5.9134e-05 0)
(0.0511245 5.74177e-05 0)
(0.0508309 5.57385e-05 0)
(0.050544 5.40939e-05 0)
(0.0502639 5.24818e-05 0)
(0.0499904 5.09008e-05 0)
(0.0497235 4.93492e-05 0)
(0.0494633 4.78264e-05 0)
(0.0492096 4.63315e-05 0)
(0.0489626 4.48649e-05 0)
(0.0487222 4.34272e-05 0)
(0.0484883 4.20201e-05 0)
(0.048261 4.06468e-05 0)
(0.0480402 3.93118e-05 0)
(0.0478259 3.80246e-05 0)
(0.047618 3.68019e-05 0)
(0.0474162 3.56847e-05 0)
(0.0472202 3.47869e-05 0)
(0.0470281 3.44194e-05 0)
(0.0468484 3.68156e-05 0)
(0.0465288 7.73299e-05 0)
(0.19505 0.00881796 0)
(0.195995 0.00980069 0)
(0.19632 0.0101463 0)
(0.195865 0.0101611 0)
(0.194742 0.00994933 0)
(0.193071 0.00954822 0)
(0.19094 0.00900158 0)
(0.188433 0.00835857 0)
(0.18564 0.00766416 0)
(0.182647 0.00695639 0)
(0.179528 0.00626591 0)
(0.176347 0.00561544 0)
(0.173153 0.00501966 0)
(0.169985 0.00448593 0)
(0.166872 0.00401572 0)
(0.163832 0.00360621 0)
(0.160879 0.00325193 0)
(0.15802 0.00294616 0)
(0.155258 0.0026819 0)
(0.152595 0.00245262 0)
(0.150029 0.00225251 0)
(0.147558 0.0020767 0)
(0.14518 0.00192115 0)
(0.142891 0.00178263 0)
(0.140689 0.00165853 0)
(0.138569 0.0015468 0)
(0.136528 0.00144575 0)
(0.134564 0.00135404 0)
(0.132672 0.00127055 0)
(0.13085 0.00119436 0)
(0.129095 0.00112467 0)
(0.127403 0.00106079 0)
(0.125771 0.00100214 0)
(0.124197 0.000948193 0)
(0.122678 0.000898487 0)
(0.121211 0.000852611 0)
(0.119794 0.000810199 0)
(0.118424 0.000770922 0)
(0.117098 0.000734489 0)
(0.115816 0.000700636 0)
(0.114574 0.000669128 0)
(0.113371 0.000639755 0)
(0.112205 0.000612326 0)
(0.111073 0.000586672 0)
(0.109975 0.00056264 0)
(0.108909 0.000540093 0)
(0.107873 0.000518907 0)
(0.106866 0.00049897 0)
(0.105886 0.000480182 0)
(0.104932 0.000462452 0)
(0.104004 0.000445696 0)
(0.1031 0.000429842 0)
(0.102219 0.000414819 0)
(0.101359 0.000400568 0)
(0.100521 0.000387031 0)
(0.0997031 0.000374157 0)
(0.0989046 0.000361899 0)
(0.0981248 0.000350215 0)
(0.0973629 0.000339063 0)
(0.0966183 0.000328409 0)
(0.0958905 0.000318218 0)
(0.0951787 0.00030846 0)
(0.0944824 0.000299106 0)
(0.0938012 0.000290129 0)
(0.0931345 0.000281506 0)
(0.0924819 0.000273212 0)
(0.0918429 0.000265226 0)
(0.0912173 0.000257529 0)
(0.0906045 0.000250102 0)
(0.0900044 0.000242927 0)
(0.0894164 0.000235986 0)
(0.0888405 0.000229266 0)
(0.0882762 0.000222751 0)
(0.0877235 0.000216426 0)
(0.087182 0.000210279 0)
(0.0866515 0.000204297 0)
(0.0861319 0.000198468 0)
(0.0856231 0.000192781 0)
(0.085125 0.000187225 0)
(0.0846373 0.00018179 0)
(0.0841601 0.000176467 0)
(0.0836932 0.000171247 0)
(0.0832367 0.000166121 0)
(0.0827905 0.000161083 0)
(0.0823545 0.000156125 0)
(0.0819289 0.000151243 0)
(0.0815136 0.000146431 0)
(0.0811087 0.000141686 0)
(0.0807143 0.000137007 0)
(0.0803303 0.000132394 0)
(0.0799568 0.000127849 0)
(0.0795939 0.000123377 0)
(0.0792416 0.00011899 0)
(0.0789 0.000114708 0)
(0.078569 0.00011057 0)
(0.0782484 0.000106674 0)
(0.0779377 0.000103283 0)
(0.0776355 0.000101311 0)
(0.0773469 0.000107242 0)
(0.0769339 0.000153079 0)
(0.196101 0.00809324 0)
(0.197373 0.0091587 0)
(0.198561 0.00972153 0)
(0.199445 0.00996718 0)
(0.200003 0.00998231 0)
(0.200243 0.00979974 0)
(0.200162 0.00945445 0)
(0.199765 0.00898871 0)
(0.199075 0.00844379 0)
(0.198127 0.00785642 0)
(0.196961 0.00725781 0)
(0.195617 0.00667285 0)
(0.194135 0.0061195 0)
(0.192551 0.005609 0)
(0.190893 0.00514678 0)
(0.189188 0.00473373 0)
(0.187454 0.00436761 0)
(0.185705 0.0040443 0)
(0.183953 0.00375882 0)
(0.182206 0.00350601 0)
(0.180469 0.00328103 0)
(0.178746 0.00307957 0)
(0.17704 0.00289796 0)
(0.175353 0.00273316 0)
(0.173687 0.00258271 0)
(0.172043 0.00244463 0)
(0.170422 0.00231731 0)
(0.168826 0.00219948 0)
(0.167254 0.00209011 0)
(0.165707 0.00198834 0)
(0.164186 0.00189346 0)
(0.162692 0.00180486 0)
(0.161223 0.001722 0)
(0.159781 0.00164443 0)
(0.158365 0.00157173 0)
(0.156975 0.00150352 0)
(0.155612 0.00143947 0)
(0.154274 0.00137927 0)
(0.152962 0.00132263 0)
(0.151675 0.00126929 0)
(0.150413 0.00121902 0)
(0.149176 0.00117159 0)
(0.147962 0.00112681 0)
(0.146772 0.00108448 0)
(0.145606 0.00104444 0)
(0.144461 0.00100652 0)
(0.143339 0.000970588 0)
(0.142239 0.000936498 0)
(0.141159 0.000904129 0)
(0.1401 0.000873365 0)
(0.139061 0.000844101 0)
(0.138042 0.000816238 0)
(0.137042 0.000789685 0)
(0.13606 0.000764357 0)
(0.135097 0.000740177 0)
(0.134151 0.00071707 0)
(0.133223 0.00069497 0)
(0.132311 0.000673814 0)
(0.131416 0.000653543 0)
(0.130536 0.000634103 0)
(0.129673 0.000615442 0)
(0.128824 0.000597513 0)
(0.127991 0.000580271 0)
(0.127172 0.000563675 0)
(0.126368 0.000547685 0)
(0.125577 0.000532264 0)
(0.1248 0.000517377 0)
(0.124037 0.00050299 0)
(0.123286 0.000489074 0)
(0.122549 0.000475598 0)
(0.121824 0.000462533 0)
(0.121112 0.000449853 0)
(0.120412 0.000437533 0)
(0.119725 0.000425547 0)
(0.119049 0.000413872 0)
(0.118386 0.000402486 0)
(0.117734 0.000391368 0)
(0.117095 0.000380496 0)
(0.116467 0.000369851 0)
(0.11585 0.000359414 0)
(0.115246 0.000349168 0)
(0.114653 0.000339095 0)
(0.114072 0.00032918 0)
(0.113502 0.000319408 0)
(0.112945 0.000309765 0)
(0.112399 0.000300241 0)
(0.111866 0.000290824 0)
(0.111345 0.000281507 0)
(0.110836 0.000272286 0)
(0.11034 0.000263157 0)
(0.109856 0.000254124 0)
(0.109386 0.000245193 0)
(0.108928 0.00023638 0)
(0.108483 0.000227719 0)
(0.108052 0.000219272 0)
(0.107634 0.000211196 0)
(0.107228 0.000203917 0)
(0.106835 0.000198973 0)
(0.106458 0.000204347 0)
(0.105981 0.000242794 0)
(0.196852 0.00751297 0)
(0.197972 0.00850538 0)
(0.199173 0.00910124 0)
(0.200286 0.00941532 0)
(0.201265 0.0095232 0)
(0.202097 0.00945635 0)
(0.202758 0.00924088 0)
(0.203227 0.00890865 0)
(0.203494 0.00849275 0)
(0.203564 0.00802406 0)
(0.203451 0.00752998 0)
(0.203173 0.00703357 0)
(0.202753 0.00655263 0)
(0.202213 0.00609947 0)
(0.201574 0.00568133 0)
(0.200856 0.00530124 0)
(0.200075 0.0049591 0)
(0.199245 0.0046527 0)
(0.198376 0.00437867 0)
(0.197475 0.00413315 0)
(0.19655 0.00391227 0)
(0.195604 0.00371247 0)
(0.194641 0.00353061 0)
(0.193664 0.00336404 0)
(0.192676 0.00321058 0)
(0.191677 0.00306845 0)
(0.19067 0.00293622 0)
(0.189656 0.00281273 0)
(0.188636 0.00269703 0)
(0.187613 0.00258837 0)
(0.186586 0.0024861 0)
(0.185558 0.00238967 0)
(0.18453 0.00229862 0)
(0.183501 0.00221253 0)
(0.182474 0.00213103 0)
(0.181449 0.00205381 0)
(0.180426 0.00198056 0)
(0.179408 0.00191102 0)
(0.178393 0.00184494 0)
(0.177383 0.00178209 0)
(0.176379 0.00172226 0)
(0.17538 0.00166526 0)
(0.174387 0.00161093 0)
(0.173402 0.00155908 0)
(0.172423 0.00150957 0)
(0.171452 0.00146226 0)
(0.170488 0.00141703 0)
(0.169532 0.00137374 0)
(0.168584 0.00133229 0)
(0.167644 0.00129256 0)
(0.166713 0.00125448 0)
(0.165791 0.00121793 0)
(0.164877 0.00118283 0)
(0.163972 0.00114911 0)
(0.163076 0.0011167 0)
(0.162188 0.0010855 0)
(0.16131 0.00105548 0)
(0.160441 0.00102655 0)
(0.159581 0.000998656 0)
(0.158731 0.00097175 0)
(0.157889 0.000945775 0)
(0.157057 0.000920681 0)
(0.156233 0.000896419 0)
(0.155419 0.000872946 0)
(0.154615 0.000850217 0)
(0.153819 0.00082819 0)
(0.153033 0.000806828 0)
(0.152256 0.000786091 0)
(0.151488 0.000765944 0)
(0.150729 0.000746351 0)
(0.14998 0.000727277 0)
(0.14924 0.000708692 0)
(0.148509 0.000690563 0)
(0.147787 0.000672858 0)
(0.147076 0.000655549 0)
(0.146373 0.000638607 0)
(0.14568 0.000622003 0)
(0.144997 0.000605709 0)
(0.144324 0.0005897 0)
(0.14366 0.00057395 0)
(0.143006 0.000558434 0)
(0.142363 0.000543129 0)
(0.14173 0.000528012 0)
(0.141107 0.000513061 0)
(0.140496 0.000498258 0)
(0.139895 0.000483585 0)
(0.139305 0.000469027 0)
(0.138727 0.000454572 0)
(0.138161 0.000440211 0)
(0.137606 0.000425939 0)
(0.137064 0.000411759 0)
(0.136534 0.00039768 0)
(0.136018 0.000383723 0)
(0.135514 0.00036993 0)
(0.135024 0.000356391 0)
(0.134547 0.000343309 0)
(0.134084 0.00033124 0)
(0.133634 0.000322038 0)
(0.133203 0.000322756 0)
(0.132692 0.000345054 0)
(0.197494 0.0070038 0)
(0.198435 0.00788587 0)
(0.199496 0.00846465 0)
(0.200552 0.00880172 0)
(0.201555 0.00895438 0)
(0.202486 0.00895144 0)
(0.203324 0.00881448 0)
(0.204048 0.008569 0)
(0.204643 0.00824255 0)
(0.205105 0.00786147 0)
(0.205435 0.0074496 0)
(0.205641 0.0070274 0)
(0.205736 0.00661125 0)
(0.205732 0.00621309 0)
(0.205644 0.00584062 0)
(0.205485 0.00549783 0)
(0.205268 0.00518585 0)
(0.205001 0.00490378 0)
(0.204695 0.00464947 0)
(0.204354 0.00442007 0)
(0.203983 0.00421258 0)
(0.203587 0.00402408 0)
(0.203168 0.00385191 0)
(0.202727 0.00369375 0)
(0.202267 0.00354766 0)
(0.201789 0.00341201 0)
(0.201294 0.00328546 0)
(0.200783 0.00316694 0)
(0.200256 0.00305555 0)
(0.199715 0.00295056 0)
(0.199161 0.00285137 0)
(0.198594 0.00275744 0)
(0.198014 0.00266835 0)
(0.197424 0.00258372 0)
(0.196822 0.0025032 0)
(0.196211 0.0024265 0)
(0.195591 0.00235336 0)
(0.194962 0.00228352 0)
(0.194325 0.00221677 0)
(0.193682 0.00215292 0)
(0.193031 0.00209177 0)
(0.192374 0.00203316 0)
(0.191712 0.00197694 0)
(0.191045 0.00192295 0)
(0.190373 0.00187108 0)
(0.189697 0.0018212 0)
(0.189018 0.00177319 0)
(0.188335 0.00172696 0)
(0.18765 0.00168239 0)
(0.186963 0.00163942 0)
(0.186274 0.00159794 0)
(0.185583 0.00155789 0)
(0.184891 0.00151918 0)
(0.184199 0.00148175 0)
(0.183506 0.00144553 0)
(0.182812 0.00141047 0)
(0.18212 0.00137651 0)
(0.181427 0.00134358 0)
(0.180736 0.00131164 0)
(0.180045 0.00128065 0)
(0.179356 0.00125054 0)
(0.178669 0.00122129 0)
(0.177983 0.00119284 0)
(0.1773 0.00116516 0)
(0.176618 0.0011382 0)
(0.17594 0.00111193 0)
(0.175264 0.00108631 0)
(0.174591 0.00106131 0)
(0.173921 0.00103689 0)
(0.173255 0.00101302 0)
(0.172593 0.000989656 0)
(0.171934 0.000966775 0)
(0.171279 0.000944344 0)
(0.170629 0.000922329 0)
(0.169983 0.0009007 0)
(0.169343 0.000879426 0)
(0.168707 0.000858477 0)
(0.168076 0.000837823 0)
(0.167451 0.000817434 0)
(0.166831 0.000797283 0)
(0.166218 0.00077734 0)
(0.165611 0.000757579 0)
(0.165011 0.000737972 0)
(0.164417 0.000718497 0)
(0.163831 0.000699128 0)
(0.163253 0.000679846 0)
(0.162682 0.000660631 0)
(0.16212 0.000641469 0)
(0.161567 0.00062235 0)
(0.161022 0.000603268 0)
(0.160488 0.000584225 0)
(0.159963 0.000565234 0)
(0.159448 0.000546321 0)
(0.158944 0.000527539 0)
(0.158451 0.000508995 0)
(0.15797 0.000490922 0)
(0.1575 0.000473916 0)
(0.157043 0.000459691 0)
(0.156605 0.000452965 0)
(0.156103 0.000454804 0)
(0.198058 0.00655711 0)
(0.198856 0.00733097 0)
(0.199775 0.00787605 0)
(0.200723 0.0082173 0)
(0.201654 0.00839308 0)
(0.202545 0.0084282 0)
(0.203378 0.00834174 0)
(0.204134 0.00815517 0)
(0.2048 0.00789193 0)
(0.205371 0.0075749 0)
(0.205846 0.00722495 0)
(0.206229 0.0068602 0)
(0.206527 0.00649549 0)
(0.20675 0.00614203 0)
(0.206907 0.00580748 0)
(0.207008 0.00549634 0)
(0.207063 0.00521052 0)
(0.20708 0.00495006 0)
(0.207065 0.00471371 0)
(0.207023 0.00449947 0)
(0.206958 0.00430501 0)
(0.206873 0.00412796 0)
(0.206769 0.00396607 0)
(0.20665 0.00381732 0)
(0.206514 0.00367996 0)
(0.206363 0.00355248 0)
(0.206198 0.00343365 0)
(0.206019 0.00332243 0)
(0.205827 0.00321796 0)
(0.20562 0.00311953 0)
(0.205401 0.00302653 0)
(0.205169 0.00293847 0)
(0.204924 0.00285492 0)
(0.204667 0.00277549 0)
(0.204398 0.00269985 0)
(0.204117 0.00262772 0)
(0.203825 0.00255883 0)
(0.203521 0.00249296 0)
(0.203207 0.00242989 0)
(0.202882 0.00236942 0)
(0.202547 0.00231139 0)
(0.202202 0.00225562 0)
(0.201848 0.00220199 0)
(0.201484 0.00215034 0)
(0.201111 0.00210056 0)
(0.20073 0.00205254 0)
(0.20034 0.00200616 0)
(0.199942 0.00196134 0)
(0.199537 0.00191798 0)
(0.199124 0.001876 0)
(0.198704 0.00183532 0)
(0.198277 0.00179587 0)
(0.197843 0.0017576 0)
(0.197404 0.00172042 0)
(0.196958 0.00168429 0)
(0.196507 0.00164915 0)
(0.19605 0.00161496 0)
(0.195588 0.00158165 0)
(0.195122 0.00154919 0)
(0.194651 0.00151754 0)
(0.194176 0.00148664 0)
(0.193697 0.00145647 0)
(0.193214 0.00142699 0)
(0.192728 0.00139815 0)
(0.192239 0.00136993 0)
(0.191747 0.00134229 0)
(0.191252 0.0013152 0)
(0.190755 0.00128862 0)
(0.190257 0.00126252 0)
(0.189756 0.00123688 0)
(0.189254 0.00121165 0)
(0.188751 0.00118682 0)
(0.188246 0.00116235 0)
(0.187742 0.0011382 0)
(0.187237 0.00111435 0)
(0.186731 0.00109078 0)
(0.186226 0.00106744 0)
(0.185722 0.0010443 0)
(0.185219 0.00102135 0)
(0.184716 0.00099854 0)
(0.184216 0.000975851 0)
(0.183717 0.000953251 0)
(0.18322 0.000930714 0)
(0.182726 0.000908211 0)
(0.182235 0.000885719 0)
(0.181747 0.000863213 0)
(0.181263 0.000840676 0)
(0.180783 0.00081809 0)
(0.180308 0.000795445 0)
(0.179838 0.000772735 0)
(0.179373 0.000749965 0)
(0.178915 0.00072715 0)
(0.178462 0.000704322 0)
(0.178016 0.000681542 0)
(0.177578 0.000658923 0)
(0.177147 0.000636703 0)
(0.176724 0.000615405 0)
(0.176312 0.000596243 0)
(0.175917 0.000581152 0)
(0.175467 0.000562865 0)
(0.198557 0.00616014 0)
(0.199245 0.00683516 0)
(0.200043 0.00733745 0)
(0.200886 0.00767081 0)
(0.201731 0.00785809 0)
(0.202554 0.00791896 0)
(0.203335 0.00786995 0)
(0.204059 0.00772902 0)
(0.204715 0.00751595 0)
(0.205297 0.00725046 0)
(0.205803 0.00695079 0)
(0.206236 0.00663305 0)
(0.206601 0.00631067 0)
(0.206904 0.00599415 0)
(0.207155 0.00569097 0)
(0.207361 0.00540595 0)
(0.20753 0.00514158 0)
(0.207668 0.00489862 0)
(0.207782 0.00467659 0)
(0.207876 0.00447419 0)
(0.207953 0.00428973 0)
(0.208016 0.00412131 0)
(0.208067 0.00396709 0)
(0.208107 0.00382534 0)
(0.208137 0.0036945 0)
(0.208157 0.00357323 0)
(0.208168 0.00346037 0)
(0.20817 0.00335495 0)
(0.208164 0.00325615 0)
(0.208148 0.00316326 0)
(0.208123 0.0030757 0)
(0.20809 0.00299296 0)
(0.208048 0.00291461 0)
(0.207997 0.00284028 0)
(0.207937 0.00276962 0)
(0.207868 0.00270235 0)
(0.20779 0.0026382 0)
(0.207704 0.00257693 0)
(0.207609 0.00251833 0)
(0.207505 0.00246221 0)
(0.207392 0.00240838 0)
(0.207271 0.00235669 0)
(0.207141 0.00230698 0)
(0.207002 0.00225913 0)
(0.206856 0.00221301 0)
(0.2067 0.00216849 0)
(0.206537 0.00212549 0)
(0.206365 0.0020839 0)
(0.206186 0.00204362 0)
(0.205998 0.00200459 0)
(0.205802 0.00196672 0)
(0.205599 0.00192994 0)
(0.205388 0.00189419 0)
(0.20517 0.0018594 0)
(0.204945 0.00182552 0)
(0.204712 0.00179249 0)
(0.204472 0.00176027 0)
(0.204225 0.00172881 0)
(0.203972 0.00169806 0)
(0.203712 0.00166798 0)
(0.203446 0.00163854 0)
(0.203173 0.00160969 0)
(0.202895 0.0015814 0)
(0.20261 0.00155364 0)
(0.20232 0.00152636 0)
(0.202025 0.00149955 0)
(0.201724 0.00147316 0)
(0.201418 0.00144716 0)
(0.201107 0.00142153 0)
(0.200792 0.00139624 0)
(0.200472 0.00137125 0)
(0.200148 0.00134654 0)
(0.19982 0.00132206 0)
(0.199488 0.00129781 0)
(0.199152 0.00127373 0)
(0.198813 0.00124981 0)
(0.198471 0.00122602 0)
(0.198127 0.00120231 0)
(0.197779 0.00117867 0)
(0.19743 0.00115505 0)
(0.197078 0.00113144 0)
(0.196725 0.00110779 0)
(0.196371 0.00108409 0)
(0.196015 0.00106029 0)
(0.195659 0.00103639 0)
(0.195303 0.00101234 0)
(0.194946 0.000988139 0)
(0.19459 0.000963759 0)
(0.194235 0.000939193 0)
(0.193881 0.000914436 0)
(0.193528 0.000889493 0)
(0.193177 0.000864383 0)
(0.192829 0.00083914 0)
(0.192483 0.00081383 0)
(0.192141 0.000788565 0)
(0.191802 0.00076355 0)
(0.191467 0.000739157 0)
(0.191139 0.000715932 0)
(0.190824 0.000693364 0)
(0.190462 0.000659214 0)
(0.198999 0.00579958 0)
(0.199603 0.00638691 0)
(0.200301 0.00684299 0)
(0.20105 0.00716111 0)
(0.201814 0.00735275 0)
(0.202566 0.0074321 0)
(0.203289 0.00741272 0)
(0.203968 0.00730941 0)
(0.204593 0.00713861 0)
(0.205157 0.0069171 0)
(0.205659 0.00666078 0)
(0.206098 0.00638389 0)
(0.20648 0.00609856 0)
(0.20681 0.00581453 0)
(0.207095 0.00553904 0)
(0.20734 0.00527705 0)
(0.207554 0.00503149 0)
(0.207741 0.0048037 0)
(0.207907 0.00459381 0)
(0.208057 0.00440118 0)
(0.208193 0.00422464 0)
(0.208319 0.00406279 0)
(0.208436 0.00391415 0)
(0.208545 0.00377729 0)
(0.208648 0.00365088 0)
(0.208745 0.00353373 0)
(0.208836 0.00342479 0)
(0.208923 0.00332317 0)
(0.209004 0.00322809 0)
(0.20908 0.00313888 0)
(0.209151 0.00305497 0)
(0.209218 0.00297587 0)
(0.209279 0.00290115 0)
(0.209335 0.00283043 0)
(0.209386 0.00276338 0)
(0.209431 0.0026997 0)
(0.209472 0.00263913 0)
(0.209506 0.00258143 0)
(0.209536 0.00252638 0)
(0.209559 0.00247378 0)
(0.209578 0.00242345 0)
(0.20959 0.00237523 0)
(0.209596 0.00232896 0)
(0.209597 0.00228451 0)
(0.209592 0.00224175 0)
(0.209581 0.00220056 0)
(0.209564 0.00216083 0)
(0.209541 0.00212246 0)
(0.209511 0.00208535 0)
(0.209476 0.00204944 0)
(0.209435 0.00201462 0)
(0.209387 0.00198084 0)
(0.209334 0.00194801 0)
(0.209274 0.00191609 0)
(0.209208 0.001885 0)
(0.209136 0.0018547 0)
(0.209058 0.00182513 0)
(0.208974 0.00179624 0)
(0.208884 0.00176799 0)
(0.208788 0.00174033 0)
(0.208686 0.00171323 0)
(0.208578 0.00168664 0)
(0.208464 0.00166053 0)
(0.208344 0.00163485 0)
(0.208219 0.00160959 0)
(0.208088 0.00158469 0)
(0.207952 0.00156014 0)
(0.20781 0.00153589 0)
(0.207662 0.00151191 0)
(0.207509 0.00148818 0)
(0.207352 0.00146466 0)
(0.207189 0.00144133 0)
(0.207021 0.00141814 0)
(0.206848 0.00139507 0)
(0.20667 0.00137209 0)
(0.206488 0.00134916 0)
(0.206302 0.00132625 0)
(0.206111 0.00130334 0)
(0.205917 0.00128038 0)
(0.205718 0.00125735 0)
(0.205516 0.00123421 0)
(0.20531 0.00121093 0)
(0.2051 0.00118747 0)
(0.204888 0.00116382 0)
(0.204673 0.00113994 0)
(0.204455 0.0011158 0)
(0.204235 0.00109139 0)
(0.204013 0.00106668 0)
(0.203789 0.00104167 0)
(0.203563 0.00101634 0)
(0.203336 0.000990715 0)
(0.203108 0.000964801 0)
(0.202879 0.000938638 0)
(0.20265 0.000912289 0)
(0.20242 0.000885856 0)
(0.202191 0.000859491 0)
(0.201963 0.000833378 0)
(0.201738 0.000807442 0)
(0.201521 0.000779535 0)
(0.201265 0.000736026 0)
(0.199393 0.00546633 0)
(0.19993 0.00597742 0)
(0.200547 0.00638769 0)
(0.201214 0.00668621 0)
(0.201903 0.00687687 0)
(0.20259 0.0069689 0)
(0.203257 0.00697285 0)
(0.20389 0.00690072 0)
(0.20448 0.00676602 0)
(0.205019 0.00658285 0)
(0.205506 0.00636491 0)
(0.20594 0.00612469 0)
(0.206324 0.00587305 0)
(0.206661 0.00561891 0)
(0.206958 0.0053692 0)
(0.20722 0.00512886 0)
(0.207453 0.0049011 0)
(0.207662 0.00468771 0)
(0.207851 0.00448933 0)
(0.208024 0.00430584 0)
(0.208186 0.00413658 0)
(0.208337 0.00398056 0)
(0.208481 0.00383668 0)
(0.208619 0.00370379 0)
(0.208751 0.00358079 0)
(0.20888 0.00346664 0)
(0.209004 0.00336044 0)
(0.209126 0.00326137 0)
(0.209244 0.00316872 0)
(0.209359 0.00308187 0)
(0.209471 0.00300028 0)
(0.209581 0.00292347 0)
(0.209688 0.00285103 0)
(0.209792 0.00278259 0)
(0.209894 0.00271783 0)
(0.209992 0.00265645 0)
(0.210088 0.00259819 0)
(0.210181 0.00254282 0)
(0.210271 0.00249011 0)
(0.210358 0.00243987 0)
(0.210441 0.00239192 0)
(0.210522 0.00234609 0)
(0.210599 0.00230223 0)
(0.210673 0.00226019 0)
(0.210743 0.00221985 0)
(0.21081 0.0021811 0)
(0.210874 0.0021438 0)
(0.210933 0.00210788 0)
(0.210989 0.00207322 0)
(0.211042 0.00203974 0)
(0.21109 0.00200736 0)
(0.211135 0.00197601 0)
(0.211175 0.00194561 0)
(0.211212 0.00191609 0)
(0.211244 0.0018874 0)
(0.211272 0.00185947 0)
(0.211296 0.00183226 0)
(0.211316 0.00180571 0)
(0.211332 0.00177977 0)
(0.211343 0.0017544 0)
(0.21135 0.00172956 0)
(0.211353 0.00170519 0)
(0.211351 0.00168127 0)
(0.211345 0.00165775 0)
(0.211334 0.00163461 0)
(0.211319 0.00161179 0)
(0.2113 0.00158927 0)
(0.211276 0.00156701 0)
(0.211248 0.00154499 0)
(0.211215 0.00152315 0)
(0.211178 0.00150148 0)
(0.211136 0.00147994 0)
(0.21109 0.0014585 0)
(0.21104 0.00143712 0)
(0.210986 0.00141576 0)
(0.210927 0.0013944 0)
(0.210864 0.001373 0)
(0.210797 0.00135152 0)
(0.210726 0.00132993 0)
(0.210651 0.0013082 0)
(0.210572 0.00128629 0)
(0.210489 0.00126417 0)
(0.210402 0.00124179 0)
(0.210312 0.00121914 0)
(0.210218 0.00119618 0)
(0.210121 0.00117288 0)
(0.21002 0.00114922 0)
(0.209916 0.00112518 0)
(0.20981 0.00110075 0)
(0.2097 0.00107592 0)
(0.209587 0.0010507 0)
(0.209472 0.0010251 0)
(0.209355 0.000999171 0)
(0.209235 0.00097296 0)
(0.209113 0.000946551 0)
(0.208989 0.00092004 0)
(0.208864 0.000893438 0)
(0.208739 0.000866242 0)
(0.208616 0.00083561 0)
(0.208465 0.000789427 0)
(0.199746 0.00515419 0)
(0.200228 0.00559957 0)
(0.200778 0.00596646 0)
(0.201375 0.00624303 0)
(0.201998 0.0064286 0)
(0.202625 0.00652846 0)
(0.203239 0.00655041 0)
(0.203828 0.00650393 0)
(0.204383 0.00639998 0)
(0.204896 0.0062503 0)
(0.205365 0.0060665 0)
(0.205789 0.00585945 0)
(0.206169 0.00563876 0)
(0.206508 0.00541254 0)
(0.206811 0.00518726 0)
(0.207082 0.00496778 0)
(0.207325 0.00475745 0)
(0.207545 0.00455835 0)
(0.207747 0.00437155 0)
(0.207933 0.00419734 0)
(0.208107 0.0040355 0)
(0.208272 0.00388541 0)
(0.208429 0.00374631 0)
(0.208579 0.00361732 0)
(0.208725 0.00349755 0)
(0.208867 0.00338616 0)
(0.209005 0.00328234 0)
(0.209141 0.0031854 0)
(0.209274 0.00309469 0)
(0.209405 0.00300964 0)
(0.209534 0.00292975 0)
(0.209661 0.00285458 0)
(0.209787 0.00278373 0)
(0.20991 0.00271685 0)
(0.210032 0.00265362 0)
(0.210153 0.00259377 0)
(0.210272 0.00253703 0)
(0.210389 0.00248317 0)
(0.210505 0.00243199 0)
(0.210619 0.00238329 0)
(0.210731 0.00233688 0)
(0.210842 0.0022926 0)
(0.210951 0.00225031 0)
(0.211058 0.00220986 0)
(0.211164 0.00217112 0)
(0.211267 0.00213398 0)
(0.211369 0.00209831 0)
(0.211468 0.00206403 0)
(0.211566 0.00203103 0)
(0.211662 0.00199923 0)
(0.211755 0.00196854 0)
(0.211846 0.00193888 0)
(0.211935 0.00191019 0)
(0.212022 0.00188239 0)
(0.212107 0.00185543 0)
(0.212189 0.00182924 0)
(0.212268 0.00180377 0)
(0.212345 0.00177896 0)
(0.21242 0.00175477 0)
(0.212492 0.00173115 0)
(0.212561 0.00170806 0)
(0.212627 0.00168545 0)
(0.212691 0.00166327 0)
(0.212752 0.0016415 0)
(0.21281 0.00162009 0)
(0.212866 0.00159901 0)
(0.212918 0.00157821 0)
(0.212967 0.00155766 0)
(0.213014 0.00153734 0)
(0.213057 0.00151719 0)
(0.213097 0.00149719 0)
(0.213134 0.00147731 0)
(0.213168 0.0014575 0)
(0.213199 0.00143773 0)
(0.213227 0.00141797 0)
(0.213251 0.00139818 0)
(0.213273 0.00137832 0)
(0.213291 0.00135836 0)
(0.213306 0.00133826 0)
(0.213317 0.00131798 0)
(0.213326 0.0012975 0)
(0.213331 0.00127676 0)
(0.213333 0.00125574 0)
(0.213332 0.0012344 0)
(0.213327 0.00121272 0)
(0.21332 0.00119065 0)
(0.213309 0.00116819 0)
(0.213295 0.0011453 0)
(0.213278 0.00112197 0)
(0.213257 0.0010982 0)
(0.213234 0.00107399 0)
(0.213208 0.00104936 0)
(0.213178 0.00102435 0)
(0.213146 0.000999 0)
(0.21311 0.000973382 0)
(0.213072 0.000947536 0)
(0.213032 0.000921356 0)
(0.212989 0.000894147 0)
(0.212945 0.000863179 0)
(0.212882 0.000819548 0)
(0.200062 0.00485872 0)
(0.2005 0.00524759 0)
(0.200994 0.00557448 0)
(0.201531 0.00582826 0)
(0.202095 0.00600584 0)
(0.202667 0.00610961 0)
(0.203233 0.00614499 0)
(0.203781 0.00611932 0)
(0.204302 0.00604134 0)
(0.204789 0.00592068 0)
(0.205239 0.0057671 0)
(0.205651 0.00558993 0)
(0.206025 0.0053976 0)
(0.206363 0.00519739 0)
(0.206669 0.0049953 0)
(0.206944 0.00479596 0)
(0.207194 0.00460277 0)
(0.207423 0.004418 0)
(0.207633 0.00424301 0)
(0.207829 0.00407846 0)
(0.208012 0.00392444 0)
(0.208185 0.00378071 0)
(0.20835 0.00364677 0)
(0.208509 0.003522 0)
(0.208662 0.00340573 0)
(0.208811 0.00329727 0)
(0.208957 0.00319597 0)
(0.2091 0.00310121 0)
(0.20924 0.00301243 0)
(0.209378 0.00292912 0)
(0.209514 0.00285083 0)
(0.209649 0.00277713 0)
(0.209782 0.00270767 0)
(0.209914 0.00264212 0)
(0.210044 0.00258016 0)
(0.210173 0.00252153 0)
(0.210302 0.00246599 0)
(0.210428 0.00241331 0)
(0.210554 0.00236327 0)
(0.210679 0.00231571 0)
(0.210803 0.00227043 0)
(0.210926 0.00222727 0)
(0.211048 0.0021861 0)
(0.211169 0.00214677 0)
(0.211288 0.00210915 0)
(0.211407 0.00207313 0)
(0.211525 0.0020386 0)
(0.211641 0.00200545 0)
(0.211757 0.00197359 0)
(0.211871 0.00194294 0)
(0.211984 0.0019134 0)
(0.212096 0.00188491 0)
(0.212207 0.00185739 0)
(0.212317 0.00183078 0)
(0.212425 0.00180501 0)
(0.212532 0.00178002 0)
(0.212638 0.00175575 0)
(0.212743 0.00173217 0)
(0.212846 0.0017092 0)
(0.212947 0.00168682 0)
(0.213047 0.00166496 0)
(0.213146 0.0016436 0)
(0.213243 0.00162268 0)
(0.213338 0.00160217 0)
(0.213432 0.00158203 0)
(0.213524 0.00156222 0)
(0.213615 0.0015427 0)
(0.213704 0.00152344 0)
(0.213791 0.0015044 0)
(0.213876 0.00148555 0)
(0.213959 0.00146684 0)
(0.214041 0.00144825 0)
(0.21412 0.00142974 0)
(0.214197 0.00141127 0)
(0.214273 0.00139281 0)
(0.214346 0.00137432 0)
(0.214418 0.00135576 0)
(0.214487 0.0013371 0)
(0.214554 0.00131829 0)
(0.214618 0.00129931 0)
(0.214681 0.00128011 0)
(0.214741 0.00126065 0)
(0.214798 0.00124091 0)
(0.214854 0.00122084 0)
(0.214906 0.00120042 0)
(0.214957 0.00117962 0)
(0.215004 0.0011584 0)
(0.21505 0.00113676 0)
(0.215092 0.00111466 0)
(0.215132 0.00109212 0)
(0.215169 0.00106914 0)
(0.215203 0.00104573 0)
(0.215234 0.00102192 0)
(0.215263 0.00099777 0)
(0.215288 0.000973312 0)
(0.215311 0.000948563 0)
(0.21533 0.000923367 0)
(0.215347 0.000897044 0)
(0.21536 0.000867482 0)