/*--------------------------------*- C++ -*----------------------------------*\
| =========                 |                                                 |
| \\      /  F ield         | OpenFOAM: The Open Source CFD Toolbox           |
|  \\    /   O peration     | Version:  2.3.0                                 |
|   \\  /    A nd           | Web:      www.OpenFOAM.org                      |
|    \\/     M anipulation  |                                                 |
\*---------------------------------------------------------------------------*/
FoamFile
{
    version     2.0;
    format      ascii;
    class       surfaceScalarField;
    location    "0.35";
    object      phi_0;
}
// * * * * * * * * * * * * * * * * * * * * * * * * * * * * * * * * * * * * * //

dimensions      [0 3 -1 0 0 0 0];

internalField   nonuniform List<scalar> 
5273
(
3.15604e-08
3.0246e-09
2.8664e-08
2.89644e-09
2.60225e-08
2.64144e-09
2.35248e-08
2.49778e-09
2.11884e-08
2.33634e-09
1.90462e-08
2.14223e-09
1.71141e-08
1.93206e-09
1.53962e-08
1.71796e-09
1.38892e-08
1.50701e-09
1.25844e-08
1.3048e-09
1.14682e-08
1.11618e-09
1.05233e-08
9.44881e-10
9.73006e-09
7.93235e-10
9.06785e-09
6.62214e-10
8.51629e-09
5.51557e-10
8.05628e-09
4.60006e-10
7.67067e-09
3.8561e-10
7.34464e-09
3.26032e-10
7.06582e-09
2.78826e-10
6.82417e-09
2.41647e-10
6.61178e-09
2.12391e-10
6.42252e-09
1.89261e-10
6.25173e-09
1.70787e-10
6.09592e-09
1.5581e-10
5.95248e-09
1.43444e-10
5.81945e-09
1.33026e-10
5.69537e-09
1.24075e-10
5.57913e-09
1.16244e-10
5.46984e-09
1.0929e-10
5.3668e-09
1.03038e-10
5.26944e-09
9.73658e-11
5.17725e-09
9.21861e-11
5.08982e-09
8.74333e-11
5.00676e-09
8.30571e-11
4.92774e-09
7.90174e-11
4.85246e-09
7.52809e-11
4.78064e-09
7.18188e-11
4.71204e-09
6.86057e-11
4.64642e-09
6.56188e-11
4.58358e-09
6.28374e-11
4.52334e-09
6.02427e-11
4.46552e-09
5.78176e-11
4.40997e-09
5.55466e-11
4.35656e-09
5.34154e-11
4.30515e-09
5.14111e-11
4.25563e-09
4.95221e-11
4.20789e-09
4.77377e-11
4.16184e-09
4.60482e-11
4.1174e-09
4.44448e-11
4.07448e-09
4.29194e-11
4.03301e-09
4.14648e-11
3.99294e-09
4.00741e-11
3.9542e-09
3.87412e-11
3.91674e-09
3.74604e-11
3.88051e-09
3.62263e-11
3.84548e-09
3.50342e-11
3.8116e-09
3.38793e-11
3.77884e-09
3.27575e-11
3.74717e-09
3.16647e-11
3.71658e-09
3.05972e-11
3.68703e-09
2.95514e-11
3.6585e-09
2.85239e-11
3.63099e-09
2.75116e-11
3.60448e-09
2.65116e-11
3.57896e-09
2.55211e-11
3.55442e-09
2.45375e-11
3.53086e-09
2.35585e-11
3.50828e-09
2.25816e-11
3.48667e-09
2.16047e-11
3.46605e-09
2.0625e-11
3.44641e-09
1.96399e-11
3.42776e-09
1.86461e-11
3.41012e-09
1.76398e-11
3.39351e-09
1.66172e-11
3.37793e-09
1.55743e-11
3.36342e-09
1.45081e-11
3.35001e-09
1.34171e-11
3.3377e-09
1.23026e-11
3.32654e-09
1.11691e-11
3.31651e-09
1.00255e-11
3.30763e-09
8.88468e-12
3.29986e-09
7.7633e-12
3.29318e-09
6.6807e-12
3.28752e-09
5.65742e-12
3.28281e-09
4.71362e-12
3.27894e-09
3.86723e-12
3.27581e-09
3.13265e-12
3.27329e-09
2.51965e-12
3.27126e-09
2.03274e-12
3.26959e-09
1.67091e-12
3.26816e-09
1.42782e-12
3.26687e-09
1.29259e-12
3.26562e-09
1.25051e-12
3.26433e-09
1.28457e-12
3.26295e-09
1.37704e-12
3.26144e-09
1.51267e-12
3.25976e-09
1.68584e-12
3.25785e-09
1.90398e-12
3.25568e-09
2.17083e-12
8.17475e-12
3.64392e-08
2.45548e-09
3.61717e-08
3.16392e-09
3.55862e-08
3.22694e-09
3.48047e-08
3.27921e-09
3.38657e-08
3.2754e-09
3.28248e-08
3.18315e-09
3.17294e-08
3.02743e-09
3.06139e-08
2.83347e-09
2.9504e-08
2.61692e-09
2.84193e-08
2.38945e-09
2.73743e-08
2.16125e-09
2.63784e-08
1.94077e-09
2.54373e-08
1.73428e-09
2.45537e-08
1.5458e-09
2.37279e-08
1.3774e-09
2.29584e-08
1.22947e-09
2.22429e-08
1.10118e-09
2.1578e-08
9.90893e-10
2.09603e-08
8.96515e-10
2.03861e-08
8.15831e-10
1.98518e-08
7.46695e-10
1.93539e-08
6.87161e-10
1.88892e-08
6.3554e-10
1.84546e-08
5.90421e-10
1.80473e-08
5.50652e-10
1.76651e-08
5.15309e-10
1.73055e-08
4.8366e-10
1.69666e-08
4.55129e-10
1.66466e-08
4.2926e-10
1.6344e-08
4.05692e-10
1.60572e-08
3.84133e-10
1.5785e-08
3.64348e-10
1.55263e-08
3.46139e-10
1.52801e-08
3.29339e-10
1.50453e-08
3.13807e-10
1.48211e-08
2.99417e-10
1.46069e-08
2.86061e-10
1.44018e-08
2.7364e-10
1.42054e-08
2.62068e-10
1.4017e-08
2.51267e-10
1.3836e-08
2.41166e-10
1.36622e-08
2.31702e-10
1.34949e-08
2.22817e-10
1.33338e-08
2.14458e-10
1.31787e-08
2.06579e-10
1.30291e-08
1.99137e-10
1.28847e-08
1.92091e-10
1.27454e-08
1.85407e-10
1.26107e-08
1.79052e-10
1.24807e-08
1.72995e-10
1.23549e-08
1.67208e-10
1.22333e-08
1.61666e-10
1.21157e-08
1.56345e-10
1.2002e-08
1.51224e-10
1.18919e-08
1.4628e-10
1.17855e-08
1.41495e-10
1.16825e-08
1.36851e-10
1.15829e-08
1.3233e-10
1.14867e-08
1.27917e-10
1.13937e-08
1.23595e-10
1.13039e-08
1.1935e-10
1.12172e-08
1.15168e-10
1.11337e-08
1.11037e-10
1.10533e-08
1.06942e-10
1.09759e-08
1.02874e-10
1.09016e-08
9.88207e-11
1.08304e-08
9.47717e-11
1.07623e-08
9.07171e-11
1.06972e-08
8.66473e-11
1.06353e-08
8.25528e-11
1.05765e-08
7.8424e-11
1.05209e-08
7.42512e-11
1.04685e-08
7.00253e-11
1.04194e-08
6.57387e-11
1.03736e-08
6.13865e-11
1.03311e-08
5.69689e-11
1.02921e-08
5.24933e-11
1.02564e-08
4.7977e-11
1.02241e-08
4.34486e-11
1.01952e-08
3.89488e-11
1.01695e-08
3.45301e-11
1.0147e-08
3.02536e-11
1.01275e-08
2.61859e-11
1.01108e-08
2.2394e-11
1.00966e-08
1.894e-11
1.00846e-08
1.58766e-11
1.00745e-08
1.32425e-11
1.00659e-08
1.10604e-11
1.00586e-08
9.33482e-12
1.00522e-08
8.05256e-12
1.00465e-08
7.18383e-12
1.00411e-08
6.68479e-12
1.00358e-08
6.50098e-12
1.00305e-08
6.57177e-12
1.00251e-08
6.83603e-12
1.00194e-08
7.2416e-12
1.00133e-08
7.7641e-12
1.00067e-08
8.44941e-12
9.99869e-09
1.02129e-11
1.99938e-11
3.78827e-08
1.77557e-09
3.83056e-08
2.74104e-09
3.84799e-08
3.05258e-09
3.85167e-08
3.24246e-09
3.84221e-08
3.36999e-09
3.82036e-08
3.40161e-09
3.78814e-08
3.34968e-09
3.74758e-08
3.23908e-09
3.70049e-08
3.08776e-09
3.64853e-08
2.90911e-09
3.59315e-08
2.71507e-09
3.53561e-08
2.51617e-09
3.47694e-08
2.32089e-09
3.41799e-08
2.13539e-09
3.35936e-08
1.96364e-09
3.30154e-08
1.80771e-09
3.24484e-08
1.66816e-09
3.18949e-08
1.54443e-09
3.13561e-08
1.43526e-09
3.08329e-08
1.33906e-09
3.03255e-08
1.25409e-09
2.9834e-08
1.17869e-09
2.93582e-08
1.11137e-09
2.88977e-08
1.05083e-09
2.84524e-08
9.95996e-10
2.80217e-08
9.45984e-10
2.76053e-08
9.00088e-10
2.72027e-08
8.57744e-10
2.68134e-08
8.18505e-10
2.64371e-08
7.82011e-10
2.60733e-08
7.47973e-10
2.57215e-08
7.16151e-10
2.53813e-08
6.86345e-10
2.50522e-08
6.58382e-10
2.47339e-08
6.32113e-10
2.44259e-08
6.07404e-10
2.41279e-08
5.84137e-10
2.38393e-08
5.62201e-10
2.35599e-08
5.41497e-10
2.32892e-08
5.21932e-10
2.30269e-08
5.03423e-10
2.27728e-08
4.85888e-10
2.25263e-08
4.69256e-10
2.22873e-08
4.53456e-10
2.20555e-08
4.38427e-10
2.18305e-08
4.24107e-10
2.16122e-08
4.10442e-10
2.14002e-08
3.97378e-10
2.11944e-08
3.84867e-10
2.09945e-08
3.72862e-10
2.08004e-08
3.61319e-10
2.06119e-08
3.50196e-10
2.04287e-08
3.39456e-10
2.02509e-08
3.29059e-10
2.00782e-08
3.1897e-10
1.99106e-08
3.09155e-10
1.97478e-08
2.9958e-10
1.959e-08
2.90215e-10
1.94368e-08
2.81028e-10
1.92884e-08
2.7199e-10
1.91447e-08
2.63072e-10
1.90056e-08
2.54247e-10
1.88712e-08
2.45489e-10
1.87414e-08
2.36773e-10
1.86162e-08
2.28074e-10
1.84956e-08
2.19369e-10
1.83797e-08
2.10636e-10
1.82686e-08
2.01855e-10
1.81623e-08
1.93006e-10
1.80607e-08
1.8407e-10
1.79641e-08
1.75029e-10
1.78725e-08
1.65867e-10
1.7786e-08
1.56573e-10
1.77046e-08
1.47138e-10
1.76284e-08
1.37564e-10
1.75575e-08
1.27863e-10
1.74919e-08
1.18063e-10
1.74317e-08
1.08211e-10
1.73768e-08
9.83763e-11
1.73271e-08
8.86476e-11
1.72825e-08
7.9134e-11
1.72428e-08
6.99588e-11
1.72077e-08
6.1252e-11
1.71769e-08
5.3142e-11
1.71501e-08
4.57461e-11
1.71269e-08
3.91619e-11
1.71066e-08
3.34602e-11
1.7089e-08
2.86802e-11
1.70735e-08
2.48273e-11
1.70597e-08
2.18732e-11
1.70471e-08
1.97582e-11
1.70354e-08
1.83967e-11
1.70242e-08
1.76831e-11
1.70133e-08
1.75005e-11
1.70024e-08
1.77312e-11
1.69914e-08
1.82738e-11
1.69801e-08
1.90801e-11
1.69682e-08
2.02974e-11
1.6955e-08
2.34418e-11
3.41094e-11
3.90452e-08
1.31546e-09
3.95339e-08
2.25231e-09
3.98916e-08
2.69486e-09
4.0177e-08
2.95708e-09
4.03998e-08
3.14716e-09
4.05487e-08
3.25275e-09
4.06223e-08
3.27603e-09
4.06255e-08
3.23594e-09
4.0564e-08
3.14921e-09
4.04448e-08
3.02838e-09
4.02753e-08
2.88452e-09
4.00637e-08
2.72781e-09
3.98176e-08
2.56692e-09
3.95444e-08
2.40864e-09
3.92502e-08
2.25779e-09
3.89406e-08
2.1174e-09
3.86197e-08
1.98899e-09
3.82912e-08
1.8729e-09
3.79578e-08
1.76868e-09
3.76215e-08
1.67535e-09
3.72839e-08
1.5917e-09
3.69462e-08
1.51644e-09
3.66092e-08
1.44836e-09
3.62736e-08
1.38637e-09
3.59401e-08
1.32952e-09
3.5609e-08
1.27704e-09
3.52808e-08
1.22829e-09
3.49558e-08
1.18276e-09
3.46343e-08
1.14005e-09
3.43165e-08
1.09983e-09
3.40026e-08
1.06185e-09
3.36929e-08
1.02589e-09
3.33874e-08
9.91787e-10
3.30864e-08
9.59391e-10
3.27899e-08
9.28576e-10
3.24981e-08
8.99231e-10
3.2211e-08
8.71256e-10
3.19286e-08
8.44561e-10
3.16511e-08
8.19062e-10
3.13783e-08
7.94681e-10
3.11104e-08
7.71346e-10
3.08473e-08
7.48988e-10
3.0589e-08
7.27542e-10
3.03355e-08
7.06947e-10
3.00868e-08
6.87146e-10
2.98428e-08
6.68082e-10
2.96036e-08
6.49701e-10
2.9369e-08
6.31954e-10
2.91391e-08
6.14791e-10
2.89138e-08
5.98165e-10
2.86931e-08
5.82029e-10
2.84769e-08
5.6634e-10
2.82653e-08
5.51052e-10
2.80583e-08
5.36125e-10
2.78557e-08
5.21517e-10
2.76577e-08
5.07185e-10
2.74642e-08
4.9309e-10
2.72752e-08
4.79193e-10
2.70908e-08
4.65453e-10
2.69109e-08
4.51832e-10
2.67357e-08
4.38292e-10
2.65652e-08
4.24795e-10
2.63993e-08
4.11305e-10
2.62383e-08
3.97784e-10
2.60822e-08
3.84199e-10
2.59311e-08
3.70516e-10
2.5785e-08
3.56702e-10
2.56441e-08
3.42726e-10
2.55086e-08
3.2856e-10
2.53785e-08
3.14175e-10
2.52539e-08
2.9955e-10
2.51351e-08
2.84663e-10
2.50222e-08
2.69503e-10
2.49153e-08
2.54068e-10
2.48145e-08
2.3837e-10
2.47199e-08
2.22442e-10
2.46316e-08
2.0634e-10
2.45497e-08
1.90149e-10
2.44741e-08
1.73984e-10
2.44047e-08
1.57992e-10
2.43415e-08
1.42345e-10
2.42842e-08
1.27233e-10
2.42326e-08
1.12855e-10
2.41864e-08
9.94052e-11
2.41451e-08
8.70618e-11
2.41083e-08
7.59727e-11
2.40755e-08
6.62468e-11
2.40462e-08
5.79468e-11
2.40199e-08
5.10858e-11
2.39962e-08
4.56273e-11
2.39745e-08
4.1489e-11
2.39543e-08
3.85495e-11
2.39353e-08
3.66575e-11
2.39172e-08
3.56436e-11
2.38996e-08
3.5336e-11
2.38823e-08
3.55845e-11
2.3865e-08
3.63162e-11
2.38476e-08
3.77471e-11
2.38296e-08
4.13853e-11
5.07989e-11
4.03208e-08
1.01332e-09
4.07301e-08
1.84309e-09
4.10905e-08
2.33442e-09
4.14117e-08
2.63585e-09
4.17071e-08
2.8518e-09
4.19672e-08
2.9926e-09
4.21844e-08
3.05882e-09
4.23566e-08
3.06378e-09
4.24836e-08
3.02218e-09
4.25665e-08
2.9455e-09
4.26075e-08
2.8435e-09
4.26102e-08
2.72517e-09
4.25786e-08
2.59847e-09
4.25174e-08
2.4699e-09
4.24308e-08
2.34432e-09
4.23231e-08
2.22508e-09
4.21979e-08
2.11419e-09
4.20583e-08
2.01253e-09
4.19068e-08
1.92019e-09
4.17455e-08
1.83669e-09
4.15759e-08
1.76125e-09
4.13994e-08
1.69295e-09
4.1217e-08
1.63081e-09
4.10294e-08
1.57396e-09
4.08373e-08
1.5216e-09
4.06413e-08
1.47305e-09
4.04418e-08
1.42774e-09
4.02394e-08
1.38522e-09
4.00343e-08
1.34512e-09
3.9827e-08
1.30716e-09
3.96177e-08
1.27108e-09
3.94069e-08
1.23671e-09
3.91948e-08
1.20389e-09
3.89817e-08
1.17249e-09
3.87679e-08
1.1424e-09
3.85536e-08
1.11352e-09
3.83391e-08
1.08578e-09
3.81245e-08
1.0591e-09
3.79102e-08
1.0334e-09
3.76963e-08
1.00863e-09
3.74829e-08
9.84714e-10
3.72703e-08
9.61608e-10
3.70586e-08
9.39253e-10
3.68479e-08
9.17596e-10
3.66385e-08
8.9659e-10
3.64304e-08
8.76184e-10
3.62237e-08
8.56333e-10
3.60187e-08
8.36991e-10
3.58154e-08
8.18113e-10
3.56139e-08
7.99656e-10
3.54143e-08
7.81576e-10
3.52169e-08
7.6383e-10
3.50215e-08
7.46375e-10
3.48285e-08
7.2917e-10
3.46378e-08
7.12169e-10
3.44497e-08
6.95332e-10
3.42642e-08
6.78614e-10
3.40814e-08
6.61972e-10
3.39015e-08
6.45362e-10
3.37246e-08
6.28739e-10
3.35508e-08
6.1206e-10
3.33803e-08
5.95281e-10
3.32133e-08
5.78356e-10
3.30498e-08
5.61243e-10
3.28901e-08
5.43899e-10
3.27343e-08
5.26281e-10
3.25827e-08
5.08349e-10
3.24353e-08
4.90065e-10
3.22925e-08
4.71392e-10
3.21544e-08
4.52298e-10
3.20212e-08
4.32755e-10
3.18931e-08
4.12743e-10
3.17704e-08
3.92254e-10
3.16531e-08
3.71294e-10
3.15416e-08
3.49891e-10
3.1436e-08
3.28099e-10
3.13363e-08
3.06005e-10
3.12427e-08
2.83734e-10
3.11552e-08
2.61447e-10
3.10739e-08
2.39346e-10
3.09986e-08
2.1766e-10
3.09292e-08
1.96644e-10
3.08655e-08
1.76561e-10
3.08072e-08
1.57666e-10
3.07541e-08
1.40194e-10
3.07057e-08
1.24342e-10
3.06617e-08
1.10258e-10
3.06216e-08
9.80328e-11
3.0585e-08
8.76947e-11
3.05514e-08
7.92095e-11
3.05204e-08
7.24849e-11
3.04916e-08
6.73783e-11
3.04645e-08
6.37081e-11
3.04389e-08
6.12684e-11
3.04144e-08
5.98471e-11
3.03907e-08
5.92555e-11
3.03676e-08
5.93924e-11
3.03449e-08
6.04469e-11
3.03228e-08
6.3506e-11
6.99737e-11
4.1712e-08
8.06935e-10
4.20332e-08
1.52184e-09
4.2355e-08
2.01267e-09
4.2657e-08
2.33379e-09
4.29466e-08
2.56221e-09
4.3219e-08
2.72026e-09
4.34665e-08
2.81125e-09
4.36856e-08
2.84468e-09
4.38748e-08
2.83307e-09
4.40332e-08
2.78703e-09
4.41613e-08
2.7154e-09
4.42603e-08
2.62616e-09
4.43323e-08
2.52645e-09
4.438e-08
2.42224e-09
4.44061e-08
2.31819e-09
4.44136e-08
2.21764e-09
4.4405e-08
2.12277e-09
4.43827e-08
2.0348e-09
4.43488e-08
1.95415e-09
4.43047e-08
1.88072e-09
4.4252e-08
1.81403e-09
4.41914e-08
1.75345e-09
4.4124e-08
1.69825e-09
4.40503e-08
1.6477e-09
4.39707e-08
1.60115e-09
4.38858e-08
1.558e-09
4.37957e-08
1.51777e-09
4.37009e-08
1.48003e-09
4.36016e-08
1.44445e-09
4.3498e-08
1.41075e-09
4.33904e-08
1.3787e-09
4.3279e-08
1.34814e-09
4.3164e-08
1.3189e-09
4.30456e-08
1.29087e-09
4.2924e-08
1.26395e-09
4.27995e-08
1.23804e-09
4.26722e-08
1.21306e-09
4.25424e-08
1.18895e-09
4.24101e-08
1.16564e-09
4.22757e-08
1.14307e-09
4.21392e-08
1.12118e-09
4.20009e-08
1.09993e-09
4.18609e-08
1.07926e-09
4.17194e-08
1.05913e-09
4.15765e-08
1.03948e-09
4.14324e-08
1.02028e-09
4.12872e-08
1.00147e-09
4.11412e-08
9.83018e-10
4.09944e-08
9.64879e-10
4.08471e-08
9.47009e-10
4.06993e-08
9.29365e-10
4.05512e-08
9.11904e-10
4.0403e-08
8.94582e-10
4.02548e-08
8.77355e-10
4.01068e-08
8.60178e-10
3.99592e-08
8.43007e-10
3.9812e-08
8.25793e-10
3.96655e-08
8.08491e-10
3.95198e-08
7.91051e-10
3.93751e-08
7.73424e-10
3.92316e-08
7.5556e-10
3.90895e-08
7.37409e-10
3.89489e-08
7.1892e-10
3.88101e-08
7.00042e-10
3.86733e-08
6.80726e-10
3.85386e-08
6.60922e-10
3.84064e-08
6.40582e-10
3.82768e-08
6.19661e-10
3.81501e-08
5.98117e-10
3.80265e-08
5.75913e-10
3.79062e-08
5.53019e-10
3.77895e-08
5.29415e-10
3.76767e-08
5.05098e-10
3.75679e-08
4.80082e-10
3.74634e-08
4.54409e-10
3.73633e-08
4.28155e-10
3.72679e-08
4.01432e-10
3.71772e-08
3.74399e-10
3.70914e-08
3.47257e-10
3.70105e-08
3.2025e-10
3.69345e-08
2.93658e-10
3.68634e-08
2.67784e-10
3.6797e-08
2.42942e-10
3.67352e-08
2.19437e-10
3.66779e-08
1.9755e-10
3.66247e-08
1.77521e-10
3.65754e-08
1.59531e-10
3.65297e-08
1.43698e-10
3.64874e-08
1.3007e-10
3.6448e-08
1.18622e-10
3.64112e-08
1.09262e-10
3.63767e-08
1.01843e-10
3.63443e-08
9.61684e-11
3.63135e-08
9.20142e-11
3.62842e-08
8.91455e-11
3.62561e-08
8.73472e-11
3.6229e-08
8.64817e-11
3.62029e-08
8.66241e-11
3.61781e-08
8.82532e-11
9.07326e-11
4.31956e-08
6.59083e-10
4.34465e-08
1.27088e-09
4.37241e-08
1.73512e-09
4.39971e-08
2.06081e-09
4.42638e-08
2.29552e-09
4.45209e-08
2.46315e-09
4.47621e-08
2.57e-09
4.49834e-08
2.62341e-09
4.51829e-08
2.63362e-09
4.53596e-08
2.61025e-09
4.55136e-08
2.56144e-09
4.56454e-08
2.4944e-09
4.57562e-08
2.41557e-09
4.5848e-08
2.33045e-09
4.59228e-08
2.24342e-09
4.59827e-08
2.15776e-09
4.60297e-08
2.07574e-09
4.60658e-08
1.99874e-09
4.60925e-08
1.92747e-09
4.61111e-08
1.86207e-09
4.61228e-08
1.80237e-09
4.61283e-08
1.74793e-09
4.61283e-08
1.69825e-09
4.61232e-08
1.65275e-09
4.61135e-08
1.61089e-09
4.60993e-08
1.57218e-09
4.60809e-08
1.53619e-09
4.60584e-08
1.50254e-09
4.60319e-08
1.47091e-09
4.60016e-08
1.44105e-09
4.59676e-08
1.41275e-09
4.59299e-08
1.38583e-09
4.58886e-08
1.36015e-09
4.58439e-08
1.33558e-09
4.57958e-08
1.31202e-09
4.57445e-08
1.28937e-09
4.569e-08
1.26757e-09
4.56324e-08
1.24653e-09
4.55719e-08
1.2262e-09
4.55084e-08
1.2065e-09
4.54422e-08
1.1874e-09
4.53733e-08
1.16882e-09
4.53019e-08
1.15073e-09
4.52279e-08
1.13307e-09
4.51516e-08
1.11579e-09
4.5073e-08
1.09886e-09
4.49923e-08
1.08222e-09
4.49095e-08
1.06582e-09
4.48247e-08
1.04963e-09
4.47381e-08
1.03359e-09
4.46498e-08
1.01767e-09
4.45599e-08
1.00181e-09
4.44685e-08
9.85976e-10
4.43758e-08
9.7011e-10
4.42818e-08
9.54167e-10
4.41867e-08
9.38098e-10
4.40906e-08
9.2185e-10
4.39938e-08
9.05371e-10
4.38962e-08
8.88607e-10
4.37981e-08
8.71504e-10
4.36997e-08
8.54004e-10
4.3601e-08
8.36051e-10
4.35024e-08
8.17587e-10
4.34039e-08
7.98554e-10
4.33057e-08
7.78894e-10
4.32081e-08
7.58551e-10
4.31112e-08
7.37471e-10
4.30152e-08
7.15601e-10
4.29205e-08
6.92892e-10
4.28271e-08
6.69305e-10
4.27353e-08
6.44806e-10
4.26453e-08
6.19376e-10
4.25574e-08
5.93013e-10
4.24717e-08
5.6574e-10
4.23885e-08
5.37607e-10
4.2308e-08
5.08706e-10
4.22303e-08
4.79168e-10
4.21555e-08
4.49174e-10
4.20838e-08
4.18953e-10
4.20153e-08
3.88777e-10
4.195e-08
3.58958e-10
4.18879e-08
3.29834e-10
4.18291e-08
3.01751e-10
4.17735e-08
2.75048e-10
4.1721e-08
2.50037e-10
4.16715e-08
2.26987e-10
4.1625e-08
2.06106e-10
4.15811e-08
1.87536e-10
4.15399e-08
1.71341e-10
4.1501e-08
1.57511e-10
4.14643e-08
1.45963e-10
4.14296e-08
1.36554e-10
4.13966e-08
1.29087e-10
4.13653e-08
1.23334e-10
4.13354e-08
1.19051e-10
4.13067e-08
1.16008e-10
4.12792e-08
1.14023e-10
4.12528e-08
1.13012e-10
4.12282e-08
1.12847e-10
1.113e-10
4.47577e-08
5.48528e-10
4.49559e-08
1.07266e-09
4.51922e-08
1.49882e-09
4.54357e-08
1.8173e-09
4.56781e-08
2.05313e-09
4.59153e-08
2.22596e-09
4.61418e-08
2.34351e-09
4.63533e-08
2.41193e-09
4.65475e-08
2.43943e-09
4.67233e-08
2.4344e-09
4.68806e-08
2.40422e-09
4.70195e-08
2.35544e-09
4.71412e-08
2.29387e-09
4.72471e-08
2.22457e-09
4.73389e-08
2.15165e-09
4.74183e-08
2.07831e-09
4.74872e-08
2.00684e-09
4.75472e-08
1.93878e-09
4.75996e-08
1.875e-09
4.76458e-08
1.81589e-09
4.76867e-08
1.7615e-09
4.7723e-08
1.71161e-09
4.77554e-08
1.66588e-09
4.77842e-08
1.62392e-09
4.78098e-08
1.58528e-09
4.78324e-08
1.54958e-09
4.78522e-08
1.51643e-09
4.78692e-08
1.48553e-09
4.78835e-08
1.45658e-09
4.78952e-08
1.42935e-09
4.79043e-08
1.40365e-09
4.79109e-08
1.37929e-09
4.79149e-08
1.35616e-09
4.79164e-08
1.33411e-09
4.79153e-08
1.31305e-09
4.79118e-08
1.2929e-09
4.79058e-08
1.27356e-09
4.78974e-08
1.25497e-09
4.78865e-08
1.23705e-09
4.78733e-08
1.21975e-09
4.78576e-08
1.20301e-09
4.78397e-08
1.18678e-09
4.78194e-08
1.17099e-09
4.77969e-08
1.15561e-09
4.77721e-08
1.14057e-09
4.77451e-08
1.12583e-09
4.7716e-08
1.11134e-09
4.76848e-08
1.09706e-09
4.76515e-08
1.08293e-09
4.76161e-08
1.06891e-09
4.75789e-08
1.05495e-09
4.75397e-08
1.04099e-09
4.74987e-08
1.027e-09
4.74559e-08
1.01291e-09
4.74114e-08
9.98666e-10
4.73652e-08
9.84224e-10
4.73176e-08
9.69524e-10
4.72684e-08
9.54508e-10
4.72179e-08
9.39116e-10
4.71661e-08
9.23287e-10
4.71132e-08
9.06959e-10
4.70592e-08
8.90068e-10
4.70042e-08
8.72551e-10
4.69484e-08
8.54343e-10
4.68919e-08
8.35378e-10
4.68349e-08
8.15595e-10
4.67774e-08
7.94931e-10
4.67197e-08
7.7333e-10
4.66619e-08
7.50737e-10
4.6604e-08
7.27106e-10
4.65465e-08
7.02404e-10
4.64892e-08
6.76609e-10
4.64325e-08
6.4972e-10
4.63765e-08
6.21762e-10
4.63213e-08
5.92794e-10
4.62671e-08
5.62912e-10
4.6214e-08
5.3226e-10
4.61622e-08
5.01028e-10
4.61116e-08
4.69457e-10
4.60626e-08
4.37836e-10
4.60151e-08
4.06489e-10
4.59691e-08
3.75769e-10
4.59248e-08
3.46039e-10
4.58822e-08
3.17652e-10
4.58413e-08
2.90938e-10
4.58021e-08
2.66181e-10
4.57646e-08
2.43606e-10
4.57288e-08
2.23371e-10
4.56946e-08
2.05555e-10
4.56619e-08
1.90163e-10
4.56308e-08
1.77125e-10
4.5601e-08
1.66309e-10
4.55726e-08
1.57528e-10
4.55454e-08
1.5056e-10
4.55192e-08
1.45164e-10
4.54941e-08
1.41098e-10
4.547e-08
1.38138e-10
4.5447e-08
1.36046e-10
4.54256e-08
1.34226e-10
1.29598e-10
4.63916e-08
4.62956e-10
4.65505e-08
9.13775e-10
4.67508e-08
1.29855e-09
4.69664e-08
1.6017e-09
4.71858e-08
1.83373e-09
4.74035e-08
2.00825e-09
4.76143e-08
2.1327e-09
4.78138e-08
2.21243e-09
4.79992e-08
2.25396e-09
4.81693e-08
2.26432e-09
4.83235e-08
2.25009e-09
4.84618e-08
2.21711e-09
4.8585e-08
2.17063e-09
4.86943e-08
2.11526e-09
4.87911e-08
2.05484e-09
4.8877e-08
1.99243e-09
4.89535e-08
1.93033e-09
4.90222e-08
1.87014e-09
4.90843e-08
1.8129e-09
4.9141e-08
1.7592e-09
4.91932e-08
1.70925e-09
4.92418e-08
1.66304e-09
4.92873e-08
1.62039e-09
4.93302e-08
1.58104e-09
4.93708e-08
1.54468e-09
4.94093e-08
1.51101e-09
4.9446e-08
1.47973e-09
4.9481e-08
1.45056e-09
4.95143e-08
1.42327e-09
4.9546e-08
1.39765e-09
4.95761e-08
1.37352e-09
4.96047e-08
1.35072e-09
4.96317e-08
1.32913e-09
4.96572e-08
1.30862e-09
4.96812e-08
1.28911e-09
4.97035e-08
1.2705e-09
4.97244e-08
1.25272e-09
4.97437e-08
1.23568e-09
4.97614e-08
1.21933e-09
4.97775e-08
1.20361e-09
4.97921e-08
1.18845e-09
4.98051e-08
1.1738e-09
4.98164e-08
1.15961e-09
4.98262e-08
1.14583e-09
4.98344e-08
1.13239e-09
4.9841e-08
1.11926e-09
4.98459e-08
1.10638e-09
4.98493e-08
1.0937e-09
4.98511e-08
1.08117e-09
4.98512e-08
1.06874e-09
4.98498e-08
1.05637e-09
4.98468e-08
1.04399e-09
4.98423e-08
1.03155e-09
4.98362e-08
1.01901e-09
4.98285e-08
1.0063e-09
4.98194e-08
9.93361e-10
4.98088e-08
9.80139e-10
4.97967e-08
9.6657e-10
4.97832e-08
9.52592e-10
4.97684e-08
9.38138e-10
4.97522e-08
9.23143e-10
4.97347e-08
9.07538e-10
4.9716e-08
8.91254e-10
4.96962e-08
8.74221e-10
4.96752e-08
8.56372e-10
4.96531e-08
8.37638e-10
4.96301e-08
8.17952e-10
4.96062e-08
7.97253e-10
4.95814e-08
7.75483e-10
4.95559e-08
7.52594e-10
4.95298e-08
7.28549e-10
4.95031e-08
7.03326e-10
4.94759e-08
6.76922e-10
4.94483e-08
6.49366e-10
4.94204e-08
6.20714e-10
4.93922e-08
5.91068e-10
4.93639e-08
5.6057e-10
4.93355e-08
5.29413e-10
4.93071e-08
4.9784e-10
4.92788e-08
4.66137e-10
4.92507e-08
4.34629e-10
4.92228e-08
4.03667e-10
4.91952e-08
3.73614e-10
4.9168e-08
3.44823e-10
4.91413e-08
3.17626e-10
4.91152e-08
2.92311e-10
4.90897e-08
2.6911e-10
4.90649e-08
2.48189e-10
4.90408e-08
2.2964e-10
4.90175e-08
2.1348e-10
4.8995e-08
1.99655e-10
4.89732e-08
1.88046e-10
4.89523e-08
1.78483e-10
4.89321e-08
1.70757e-10
4.89126e-08
1.64635e-10
4.88938e-08
1.59872e-10
4.88758e-08
1.56209e-10
4.88585e-08
1.53297e-10
4.88424e-08
1.50285e-10
1.44031e-10
4.80946e-08
3.94895e-10
4.82239e-08
7.84461e-10
4.83937e-08
1.12874e-09
4.85836e-08
1.41181e-09
4.87815e-08
1.63584e-09
4.89808e-08
1.80893e-09
4.91764e-08
1.93713e-09
4.93639e-08
2.02499e-09
4.95402e-08
2.07765e-09
4.97036e-08
2.10091e-09
4.98533e-08
2.10039e-09
4.99891e-08
2.08127e-09
5.01115e-08
2.04825e-09
5.02213e-08
2.00547e-09
5.03196e-08
1.95648e-09
5.04079e-08
1.90418e-09
5.04874e-08
1.85081e-09
5.05595e-08
1.79803e-09
5.06255e-08
1.74697e-09
5.06863e-08
1.69835e-09
5.0743e-08
1.65257e-09
5.07963e-08
1.60975e-09
5.08468e-08
1.56988e-09
5.0895e-08
1.53282e-09
5.09413e-08
1.49838e-09
5.0986e-08
1.46634e-09
5.10292e-08
1.43646e-09
5.10712e-08
1.40855e-09
5.11121e-08
1.3824e-09
5.11519e-08
1.35783e-09
5.11908e-08
1.33469e-09
5.12286e-08
1.31285e-09
5.12656e-08
1.29218e-09
5.13016e-08
1.27258e-09
5.13368e-08
1.25397e-09
5.1371e-08
1.23625e-09
5.14044e-08
1.21935e-09
5.14369e-08
1.20321e-09
5.14684e-08
1.18776e-09
5.14991e-08
1.17295e-09
5.15288e-08
1.15871e-09
5.15577e-08
1.14499e-09
5.15855e-08
1.13174e-09
5.16125e-08
1.1189e-09
5.16384e-08
1.10643e-09
5.16634e-08
1.09428e-09
5.16874e-08
1.0824e-09
5.17103e-08
1.07073e-09
5.17323e-08
1.05923e-09
5.17532e-08
1.04784e-09
5.1773e-08
1.03652e-09
5.17918e-08
1.0252e-09
5.18095e-08
1.01384e-09
5.18262e-08
1.00239e-09
5.18417e-08
9.90772e-10
5.18561e-08
9.78941e-10
5.18694e-08
9.66833e-10
5.18816e-08
9.54384e-10
5.18927e-08
9.41529e-10
5.19026e-08
9.28202e-10
5.19114e-08
9.14334e-10
5.19191e-08
8.99855e-10
5.19257e-08
8.84695e-10
5.19311e-08
8.68781e-10
5.19354e-08
8.52043e-10
5.19386e-08
8.34411e-10
5.19408e-08
8.15818e-10
5.19418e-08
7.96198e-10
5.19418e-08
7.75494e-10
5.19408e-08
7.53656e-10
5.19387e-08
7.30645e-10
5.19356e-08
7.06441e-10
5.19314e-08
6.81041e-10
5.19263e-08
6.5447e-10
5.19203e-08
6.26787e-10
5.19132e-08
5.98089e-10
5.19053e-08
5.68516e-10
5.18965e-08
5.38254e-10
5.18868e-08
5.07538e-10
5.18762e-08
4.76644e-10
5.1865e-08
4.45886e-10
5.18531e-08
4.15601e-10
5.18405e-08
3.86139e-10
5.18275e-08
3.57843e-10
5.18141e-08
3.31033e-10
5.18004e-08
3.05994e-10
5.17866e-08
2.82954e-10
5.17727e-08
2.62084e-10
5.17588e-08
2.4348e-10
5.17451e-08
2.27171e-10
5.17317e-08
2.13118e-10
5.17185e-08
2.01219e-10
5.17057e-08
1.9132e-10
5.16932e-08
1.8323e-10
5.16811e-08
1.76729e-10
5.16694e-08
1.71575e-10
5.16581e-08
1.67492e-10
5.16473e-08
1.64072e-10
5.16372e-08
1.6042e-10
1.53922e-10
4.98663e-08
3.39586e-10
4.9973e-08
6.7771e-10
5.01175e-08
9.84267e-10
5.02843e-08
1.24505e-09
5.04621e-08
1.45796e-09
5.06441e-08
1.62691e-09
5.08251e-08
1.75616e-09
5.10008e-08
1.84934e-09
5.11679e-08
1.9105e-09
5.13245e-08
1.94428e-09
5.14695e-08
1.9554e-09
5.16024e-08
1.94837e-09
5.17234e-08
1.9273e-09
5.1833e-08
1.89591e-09
5.1932e-08
1.85742e-09
5.20216e-08
1.81455e-09
5.2103e-08
1.76945e-09
5.21772e-08
1.72378e-09
5.22455e-08
1.67873e-09
5.23087e-08
1.63512e-09
5.23678e-08
1.59347e-09
5.24235e-08
1.55405e-09
5.24764e-08
1.51695e-09
5.25271e-08
1.48216e-09
5.25759e-08
1.4496e-09
5.26231e-08
1.41911e-09
5.2669e-08
1.39055e-09
5.27138e-08
1.36375e-09
5.27577e-08
1.33858e-09
5.28006e-08
1.31487e-09
5.28428e-08
1.29251e-09
5.28842e-08
1.27138e-09
5.29251e-08
1.25137e-09
5.29652e-08
1.2324e-09
5.30048e-08
1.21437e-09
5.30439e-08
1.19722e-09
5.30823e-08
1.18088e-09
5.31203e-08
1.16528e-09
5.31577e-08
1.15037e-09
5.31945e-08
1.13608e-09
5.32309e-08
1.12236e-09
5.32667e-08
1.10917e-09
5.3302e-08
1.09646e-09
5.33367e-08
1.08416e-09
5.33709e-08
1.07224e-09
5.34045e-08
1.06065e-09
5.34376e-08
1.04933e-09
5.34701e-08
1.03824e-09
5.3502e-08
1.02733e-09
5.35333e-08
1.01655e-09
5.35639e-08
1.00586e-09
5.35939e-08
9.95183e-10
5.36233e-08
9.84484e-10
5.3652e-08
9.73705e-10
5.368e-08
9.62787e-10
5.37072e-08
9.51672e-10
5.37338e-08
9.40301e-10
5.37595e-08
9.28611e-10
5.37845e-08
9.16537e-10
5.38087e-08
9.04014e-10
5.38321e-08
8.90973e-10
5.38546e-08
8.77345e-10
5.38762e-08
8.6306e-10
5.3897e-08
8.48048e-10
5.39168e-08
8.32238e-10
5.39356e-08
8.1556e-10
5.39535e-08
7.97949e-10
5.39703e-08
7.7934e-10
5.39862e-08
7.59678e-10
5.40009e-08
7.38912e-10
5.40145e-08
7.17007e-10
5.4027e-08
6.93942e-10
5.40384e-08
6.69715e-10
5.40485e-08
6.44352e-10
5.40574e-08
6.17908e-10
5.4065e-08
5.90477e-10
5.40713e-08
5.62193e-10
5.40763e-08
5.33233e-10
5.408e-08
5.03816e-10
5.40825e-08
4.74205e-10
5.40837e-08
4.44694e-10
5.40837e-08
4.156e-10
5.40826e-08
3.87253e-10
5.40804e-08
3.59976e-10
5.40774e-08
3.34075e-10
5.40736e-08
3.09819e-10
5.40691e-08
2.87431e-10
5.40641e-08
2.67076e-10
5.40587e-08
2.48856e-10
5.40531e-08
2.32807e-10
5.40473e-08
2.18902e-10
5.40415e-08
2.07055e-10
5.40356e-08
1.97132e-10
5.40299e-08
1.88959e-10
5.40243e-08
1.82331e-10
5.40189e-08
1.77017e-10
5.40136e-08
1.72739e-10
5.40086e-08
1.69087e-10
5.40038e-08
1.65268e-10
1.59465e-10
5.17074e-08
2.93858e-10
5.17967e-08
5.88468e-10
5.19202e-08
8.60764e-10
5.20664e-08
1.09877e-09
5.22259e-08
1.29852e-09
5.23917e-08
1.46113e-09
5.25587e-08
1.58912e-09
5.27229e-08
1.68519e-09
5.28809e-08
1.75244e-09
5.30307e-08
1.79452e-09
5.31708e-08
1.81531e-09
5.33005e-08
1.81862e-09
5.34198e-08
1.80804e-09
5.35289e-08
1.78684e-09
5.36283e-08
1.75794e-09
5.37191e-08
1.72382e-09
5.3802e-08
1.68652e-09
5.38781e-08
1.64765e-09
5.39484e-08
1.60846e-09
5.40137e-08
1.56981e-09
5.40749e-08
1.53231e-09
5.41326e-08
1.49634e-09
5.41874e-08
1.4621e-09
5.42399e-08
1.42967e-09
5.42905e-08
1.39906e-09
5.43394e-08
1.3702e-09
5.43869e-08
1.34301e-09
5.44333e-08
1.31737e-09
5.44787e-08
1.29318e-09
5.45232e-08
1.27034e-09
5.4567e-08
1.24873e-09
5.46101e-08
1.22826e-09
5.46527e-08
1.20886e-09
5.46946e-08
1.19043e-09
5.47361e-08
1.1729e-09
5.47771e-08
1.15622e-09
5.48177e-08
1.14031e-09
5.48578e-08
1.12512e-09
5.48976e-08
1.11059e-09
5.4937e-08
1.09668e-09
5.4976e-08
1.08333e-09
5.50147e-08
1.07049e-09
5.50531e-08
1.05812e-09
5.5091e-08
1.04617e-09
5.51287e-08
1.03459e-09
5.5166e-08
1.02334e-09
5.5203e-08
1.01237e-09
5.52396e-08
1.00164e-09
5.52758e-08
9.91087e-10
5.53117e-08
9.80676e-10
5.53472e-08
9.70355e-10
5.53823e-08
9.60074e-10
5.5417e-08
9.4978e-10
5.54513e-08
9.3942e-10
5.54851e-08
9.28941e-10
5.55185e-08
9.18285e-10
5.55514e-08
9.07394e-10
5.55838e-08
8.96207e-10
5.56157e-08
8.84663e-10
5.5647e-08
8.72698e-10
5.56777e-08
8.60245e-10
5.57078e-08
8.47239e-10
5.57373e-08
8.33611e-10
5.5766e-08
8.19294e-10
5.57941e-08
8.0422e-10
5.58213e-08
7.88322e-10
5.58477e-08
7.71537e-10
5.58733e-08
7.53805e-10
5.58979e-08
7.35072e-10
5.59215e-08
7.15292e-10
5.59441e-08
6.94432e-10
5.59655e-08
6.72473e-10
5.59858e-08
6.49415e-10
5.60049e-08
6.25285e-10
5.60227e-08
6.00136e-10
5.60391e-08
5.74058e-10
5.60541e-08
5.47176e-10
5.60677e-08
5.19656e-10
5.60798e-08
4.91705e-10
5.60904e-08
4.63565e-10
5.60996e-08
4.35508e-10
5.61074e-08
4.0783e-10
5.61138e-08
3.80836e-10
5.61189e-08
3.54827e-10
5.61229e-08
3.30087e-10
5.61259e-08
3.0687e-10
5.61279e-08
2.85387e-10
5.61292e-08
2.65796e-10
5.61299e-08
2.482e-10
5.613e-08
2.3264e-10
5.61298e-08
2.19099e-10
5.61294e-08
2.07507e-10
5.61288e-08
1.97746e-10
5.61281e-08
1.8966e-10
5.61273e-08
1.83063e-10
5.61266e-08
1.77738e-10
5.61259e-08
1.73421e-10
5.61253e-08
1.69739e-10
5.61245e-08
1.66074e-10
1.61386e-10
5.36195e-08
2.55516e-10
5.3695e-08
5.13034e-10
5.38011e-08
7.54603e-10
5.39295e-08
9.70392e-10
5.40721e-08
1.15588e-09
5.42228e-08
1.31047e-09
5.43766e-08
1.43531e-09
5.45296e-08
1.53218e-09
5.46787e-08
1.60339e-09
5.48215e-08
1.65172e-09
5.49565e-08
1.68029e-09
5.50828e-08
1.69227e-09
5.52001e-08
1.69074e-09
5.53084e-08
1.67854e-09
5.54081e-08
1.65826e-09
5.54998e-08
1.63216e-09
5.55842e-08
1.60214e-09
5.56621e-08
1.56974e-09
5.57343e-08
1.53619e-09
5.58017e-08
1.50241e-09
5.5865e-08
1.46905e-09
5.59247e-08
1.43657e-09
5.59816e-08
1.40527e-09
5.60359e-08
1.3753e-09
5.60883e-08
1.34675e-09
5.61388e-08
1.31962e-09
5.6188e-08
1.29389e-09
5.62358e-08
1.26949e-09
5.62826e-08
1.24637e-09
5.63285e-08
1.22444e-09
5.63736e-08