/*--------------------------------*- C++ -*----------------------------------*\
| =========                 |                                                 |
| \\      /  F ield         | OpenFOAM: The Open Source CFD Toolbox           |
|  \\    /   O peration     | Version:  2.3.0                                 |
|   \\  /    A nd           | Web:      www.OpenFOAM.org                      |
|    \\/     M anipulation  |                                                 |
\*---------------------------------------------------------------------------*/
FoamFile
{
    version     2.0;
    format      ascii;
    class       volVectorField;
    location    "0.35";
    object      U;
}
// * * * * * * * * * * * * * * * * * * * * * * * * * * * * * * * * * * * * * //

dimensions      [0 1 -1 0 0 0 0];

internalField   nonuniform List<vector> 
2700
(
(0.185025 0.0050203 0)
(0.173514 0.00578135 0)
(0.158817 0.00543639 0)
(0.143355 0.00502213 0)
(0.128973 0.00454763 0)
(0.11597 0.00399867 0)
(0.104222 0.00342417 0)
(0.0936848 0.0028664 0)
(0.0843684 0.00234805 0)
(0.0762552 0.00188215 0)
(0.0692818 0.00147674 0)
(0.0633541 0.00113512 0)
(0.0583613 0.000856084 0)
(0.0541847 0.000634908 0)
(0.0507045 0.000464613 0)
(0.0478054 0.000337117 0)
(0.0453824 0.000244225 0)
(0.043343 0.000178322 0)
(0.0416088 0.000132788 0)
(0.0401155 0.00010214 0)
(0.0388117 8.20239e-05 0)
(0.0376574 6.91059e-05 0)
(0.0366217 6.09234e-05 0)
(0.0356814 5.57234e-05 0)
(0.0348192 5.23067e-05 0)
(0.0340222 4.98888e-05 0)
(0.0332807 4.79823e-05 0)
(0.0325873 4.63033e-05 0)
(0.0319364 4.47014e-05 0)
(0.0313235 4.31082e-05 0)
(0.0307449 4.15027e-05 0)
(0.0301975 3.98886e-05 0)
(0.0296788 3.82802e-05 0)
(0.0291864 3.66947e-05 0)
(0.0287182 3.51474e-05 0)
(0.0282725 3.36506e-05 0)
(0.0278476 3.22129e-05 0)
(0.0274419 3.08394e-05 0)
(0.0270541 2.95325e-05 0)
(0.026683 2.82922e-05 0)
(0.0263274 2.71172e-05 0)
(0.0259862 2.6005e-05 0)
(0.0256586 2.49526e-05 0)
(0.0253437 2.39564e-05 0)
(0.0250408 2.30129e-05 0)
(0.024749 2.21185e-05 0)
(0.0244679 2.12696e-05 0)
(0.0241968 2.0463e-05 0)
(0.0239352 1.96954e-05 0)
(0.0236826 1.89639e-05 0)
(0.0234386 1.82657e-05 0)
(0.0232028 1.75983e-05 0)
(0.0229749 1.69593e-05 0)
(0.0227545 1.63465e-05 0)
(0.0225414 1.5758e-05 0)
(0.0223353 1.51917e-05 0)
(0.0221359 1.46461e-05 0)
(0.0219431 1.41195e-05 0)
(0.0217566 1.36103e-05 0)
(0.0215764 1.31172e-05 0)
(0.0214023 1.26389e-05 0)
(0.0212341 1.21741e-05 0)
(0.0210718 1.17217e-05 0)
(0.0209153 1.12806e-05 0)
(0.0207646 1.08499e-05 0)
(0.0206195 1.04286e-05 0)
(0.02048 1.0016e-05 0)
(0.0203462 9.61122e-06 0)
(0.020218 9.2133e-06 0)
(0.0200954 8.82102e-06 0)
(0.0199784 8.43266e-06 0)
(0.0198672 8.04587e-06 0)
(0.0197616 7.65754e-06 0)
(0.019662 7.26375e-06 0)
(0.0195682 6.86013e-06 0)
(0.0194805 6.44206e-06 0)
(0.0193989 6.0056e-06 0)
(0.0193237 5.54803e-06 0)
(0.019255 5.06883e-06 0)
(0.0191928 4.5701e-06 0)
(0.0191373 4.0571e-06 0)
(0.0190883 3.53792e-06 0)
(0.0190456 3.02304e-06 0)
(0.0190091 2.52444e-06 0)
(0.0189784 2.05448e-06 0)
(0.0189529 1.6248e-06 0)
(0.0189321 1.24516e-06 0)
(0.0189153 9.22654e-07 0)
(0.0189017 6.6116e-07 0)
(0.0188908 4.61283e-07 0)
(0.0188816 3.20799e-07 0)
(0.0188736 2.35352e-07 0)
(0.0188663 1.98894e-07 0)
(0.018859 2.04056e-07 0)
(0.0188513 2.4248e-07 0)
(0.0188431 3.0656e-07 0)
(0.0188339 3.94404e-07 0)
(0.0188236 4.9906e-07 0)
(0.0188142 4.01376e-07 0)
(0.0187765 6.14917e-06 0)
(0.200885 0.00843008 0)
(0.202375 0.00989665 0)
(0.200757 0.00956132 0)
(0.196718 0.00920161 0)
(0.191612 0.00878853 0)
(0.185984 0.00823181 0)
(0.179998 0.0075746 0)
(0.173805 0.00687097 0)
(0.167569 0.00615341 0)
(0.161427 0.00544479 0)
(0.155475 0.00476515 0)
(0.149776 0.00413113 0)
(0.144373 0.00355464 0)
(0.139285 0.00304263 0)
(0.13452 0.00259745 0)
(0.130075 0.00221757 0)
(0.125939 0.00189849 0)
(0.122095 0.00163382 0)
(0.118524 0.00141621 0)
(0.115206 0.00123815 0)
(0.11212 0.00109257 0)
(0.109247 0.000973161 0)
(0.106567 0.000874543 0)
(0.104064 0.000792304 0)
(0.101721 0.000722922 0)
(0.0995236 0.000663649 0)
(0.0974584 0.000612379 0)
(0.095514 0.000567516 0)
(0.0936798 0.000527854 0)
(0.0919462 0.000492487 0)
(0.090305 0.00046072 0)
(0.0887486 0.000432023 0)
(0.0872703 0.000405974 0)
(0.0858639 0.000382238 0)
(0.0845241 0.000360538 0)
(0.0832458 0.000340644 0)
(0.0820247 0.000322357 0)
(0.0808568 0.000305508 0)
(0.0797383 0.000289947 0)
(0.0786661 0.000275543 0)
(0.077637 0.00026218 0)
(0.0766485 0.000249754 0)
(0.0756979 0.000238174 0)
(0.074783 0.000227357 0)
(0.0739018 0.000217231 0)
(0.0730525 0.000207731 0)
(0.0722332 0.000198797 0)
(0.0714424 0.000190378 0)
(0.0706788 0.000182425 0)
(0.069941 0.000174897 0)
(0.0692278 0.000167754 0)
(0.0685382 0.000160962 0)
(0.0678713 0.000154489 0)
(0.0672261 0.000148306 0)
(0.0666019 0.000142387 0)
(0.065998 0.000136706 0)
(0.0654138 0.000131242 0)
(0.0648487 0.000125974 0)
(0.0643023 0.000120884 0)
(0.0637741 0.000115952 0)
(0.0632638 0.000111164 0)
(0.0627712 0.000106504 0)
(0.062296 0.000101958 0)
(0.061838 9.75124e-05 0)
(0.0613971 9.31566e-05 0)
(0.0609732 8.88792e-05 0)
(0.0605664 8.46704e-05 0)
(0.0601766 8.05207e-05 0)
(0.0598039 7.6421e-05 0)
(0.0594484 7.23624e-05 0)
(0.0591102 6.83352e-05 0)
(0.0587895 6.43293e-05 0)
(0.0584865 6.0334e-05 0)
(0.0582015 5.63388e-05 0)
(0.0579346 5.23348e-05 0)
(0.0576862 4.83163e-05 0)
(0.0574565 4.42838e-05 0)
(0.0572457 4.0246e-05 0)
(0.0570538 3.62219e-05 0)
(0.0568806 3.22422e-05 0)
(0.056726 2.83487e-05 0)
(0.0565895 2.45921e-05 0)
(0.0564701 2.1029e-05 0)
(0.056367 1.77167e-05 0)
(0.0562789 1.47087e-05 0)
(0.0562041 1.20501e-05 0)
(0.0561411 9.7738e-06 0)
(0.056088 7.89757e-06 0)
(0.056043 6.42312e-06 0)
(0.0560043 5.33593e-06 0)
(0.0559701 4.60683e-06 0)
(0.0559388 4.19476e-06 0)
(0.0559091 4.05016e-06 0)
(0.0558799 4.11911e-06 0)
(0.0558501 4.34805e-06 0)
(0.0558192 4.69257e-06 0)
(0.0557865 5.13588e-06 0)
(0.0557516 5.71977e-06 0)
(0.0557168 7.02552e-06 0)
(0.05564 1.93195e-05 0)
(0.201535 0.00623593 0)
(0.204572 0.0085179 0)
(0.206672 0.00908196 0)
(0.207307 0.00942219 0)
(0.207014 0.00959795 0)
(0.2061 0.00950846 0)
(0.204629 0.00919454 0)
(0.202656 0.00873058 0)
(0.200277 0.00817085 0)
(0.197592 0.00755537 0)
(0.194689 0.00691831 0)
(0.191639 0.00628833 0)
(0.188504 0.0056872 0)
(0.185332 0.00512961 0)
(0.182164 0.00462383 0)
(0.179029 0.00417283 0)
(0.175946 0.00377556 0)
(0.172931 0.00342831 0)
(0.169993 0.00312584 0)
(0.167138 0.00286237 0)
(0.164367 0.00263219 0)
(0.161682 0.00243009 0)
(0.159082 0.00225154 0)
(0.156565 0.00209272 0)
(0.154131 0.00195052 0)
(0.151777 0.00182241 0)
(0.149501 0.00170637 0)
(0.1473 0.00160078 0)
(0.145172 0.00150431 0)
(0.143115 0.0014159 0)
(0.141126 0.00133466 0)
(0.139203 0.00125984 0)
(0.137344 0.00119081 0)
(0.135545 0.001127 0)
(0.133806 0.00106793 0)
(0.132123 0.00101316 0)
(0.130495 0.0009623 0)
(0.128918 0.000915008 0)
(0.127392 0.000870964 0)
(0.125914 0.000829881 0)
(0.124482 0.0007915 0)
(0.123094 0.000755586 0)
(0.121749 0.000721925 0)
(0.120444 0.000690321 0)
(0.119179 0.000660598 0)
(0.117951 0.000632595 0)
(0.11676 0.000606164 0)
(0.115603 0.00058117 0)
(0.11448 0.000557491 0)
(0.113389 0.000535014 0)
(0.11233 0.000513636 0)
(0.111302 0.00049326 0)
(0.110302 0.0004738 0)
(0.109332 0.000455174 0)
(0.108389 0.000437306 0)
(0.107474 0.000420128 0)
(0.106585 0.000403573 0)
(0.105723 0.000387582 0)
(0.104886 0.000372099 0)
(0.104075 0.00035707 0)
(0.103289 0.000342446 0)
(0.102527 0.000328181 0)
(0.101791 0.000314233 0)
(0.101079 0.000300562 0)
(0.100392 0.000287131 0)
(0.0997297 0.000273906 0)
(0.0990924 0.000260857 0)
(0.0984802 0.000247953 0)
(0.0978934 0.000235168 0)
(0.0973322 0.000222477 0)
(0.0967971 0.000209856 0)
(0.0962884 0.000197282 0)
(0.0958066 0.000184738 0)
(0.095352 0.000172208 0)
(0.0949251 0.000159689 0)
(0.0945263 0.000147189 0)
(0.0941559 0.000134732 0)
(0.0938141 0.000122368 0)
(0.0935008 0.00011017 0)
(0.0932158 9.82341e-05 0)
(0.0929587 8.66828e-05 0)
(0.0927286 7.56525e-05 0)
(0.0925243 6.52872e-05 0)
(0.0923443 5.5727e-05 0)
(0.0921869 4.70969e-05 0)
(0.0920498 3.94965e-05 0)
(0.0919308 3.2992e-05 0)
(0.0918274 2.76115e-05 0)
(0.091737 2.33426e-05 0)
(0.0916572 2.01342e-05 0)
(0.0915855 1.78998e-05 0)
(0.0915198 1.65241e-05 0)
(0.0914581 1.58714e-05 0)
(0.0913986 1.57957e-05 0)
(0.0913401 1.61542e-05 0)
(0.0912813 1.68275e-05 0)
(0.0912216 1.77609e-05 0)
(0.09116 1.91127e-05 0)
(0.0910974 2.27282e-05 0)
(0.0909968 3.76372e-05 0)
(0.200979 0.00442482 0)
(0.20338 0.0069941 0)
(0.205872 0.00811942 0)
(0.207687 0.00879095 0)
(0.208964 0.00923216 0)
(0.209884 0.00940411 0)
(0.210456 0.00933327 0)
(0.210656 0.00908488 0)
(0.210499 0.00871226 0)
(0.21002 0.00825496 0)
(0.209261 0.00774681 0)
(0.208264 0.00721752 0)
(0.207068 0.00669124 0)
(0.205713 0.0061859 0)
(0.204235 0.00571334 0)
(0.202663 0.00528018 0)
(0.201023 0.00488881 0)
(0.199336 0.00453851 0)
(0.197617 0.00422656 0)
(0.195878 0.00394912 0)
(0.194129 0.00370192 0)
(0.192377 0.00348076 0)
(0.190627 0.00328178 0)
(0.188883 0.00310158 0)
(0.187149 0.00293731 0)
(0.185426 0.00278661 0)
(0.183717 0.00264756 0)
(0.182023 0.00251864 0)
(0.180347 0.00239862 0)
(0.17869 0.00228652 0)
(0.177053 0.00218153 0)
(0.175436 0.00208299 0)
(0.173842 0.00199036 0)
(0.17227 0.00190316 0)
(0.170721 0.00182098 0)
(0.169196 0.00174345 0)
(0.167696 0.00167024 0)
(0.16622 0.00160105 0)
(0.164769 0.0015356 0)
(0.163342 0.00147363 0)
(0.161941 0.00141491 0)
(0.160565 0.00135922 0)
(0.159213 0.00130634 0)
(0.157887 0.00125608 0)
(0.156585 0.00120826 0)
(0.155308 0.00116272 0)
(0.154055 0.00111928 0)
(0.152827 0.00107779 0)
(0.151623 0.00103813 0)
(0.150443 0.00100014 0)
(0.149287 0.000963711 0)
(0.148154 0.000928715 0)
(0.147045 0.00089504 0)
(0.145959 0.00086258 0)
(0.144897 0.000831231 0)
(0.143858 0.000800897 0)
(0.142843 0.000771485 0)
(0.141851 0.000742906 0)
(0.140882 0.000715078 0)
(0.139937 0.000687919 0)
(0.139015 0.000661353 0)
(0.138118 0.000635309 0)
(0.137245 0.000609716 0)
(0.136396 0.00058451 0)
(0.135572 0.000559631 0)
(0.134774 0.000535021 0)
(0.134001 0.000510628 0)
(0.133255 0.000486402 0)
(0.132536 0.000462298 0)
(0.131845 0.000438275 0)
(0.131182 0.000414296 0)
(0.130548 0.000390332 0)
(0.129944 0.000366362 0)
(0.129371 0.000342378 0)
(0.128828 0.00031839 0)
(0.128318 0.000294435 0)
(0.12784 0.000270579 0)
(0.127394 0.000246929 0)
(0.126982 0.000223628 0)
(0.126602 0.00020086 0)
(0.126254 0.000178844 0)
(0.125938 0.00015782 0)
(0.125651 0.000138035 0)
(0.125394 0.000119729 0)
(0.125164 0.000103112 0)
(0.124958 8.83538e-05 0)
(0.124775 7.5565e-05 0)
(0.124612 6.47936e-05 0)
(0.124466 5.602e-05 0)
(0.124335 4.91589e-05 0)
(0.124216 4.40666e-05 0)
(0.124107 4.0551e-05 0)
(0.124005 3.83857e-05 0)
(0.123908 3.7326e-05 0)
(0.123815 3.71299e-05 0)
(0.123725 3.75899e-05 0)
(0.123635 3.86017e-05 0)
(0.123546 4.04309e-05 0)
(0.123457 4.52949e-05 0)
(0.123337 5.96658e-05 0)
(0.200608 0.00333605 0)
(0.202297 0.00577232 0)
(0.204389 0.00710323 0)
(0.206231 0.00789292 0)
(0.207777 0.00842487 0)
(0.20914 0.00872274 0)
(0.21033 0.00880128 0)
(0.21131 0.00870709 0)
(0.21206 0.00848549 0)
(0.212583 0.00817134 0)
(0.212888 0.00779426 0)
(0.212993 0.00738093 0)
(0.212915 0.00695421 0)
(0.212678 0.00653211 0)
(0.212303 0.00612753 0)
(0.211812 0.00574879 0)
(0.211225 0.00540023 0)
(0.21056 0.00508315 0)
(0.209829 0.00479665 0)
(0.209044 0.00453848 0)
(0.208215 0.0043057 0)
(0.207349 0.00409511 0)
(0.20645 0.00390365 0)
(0.205524 0.00372851 0)
(0.204575 0.00356728 0)
(0.203604 0.00341794 0)
(0.202615 0.00327883 0)
(0.201611 0.0031486 0)
(0.200592 0.00302619 0)
(0.199561 0.00291072 0)
(0.198519 0.00280152 0)
(0.197469 0.00269799 0)
(0.196412 0.00259968 0)
(0.195349 0.00250619 0)
(0.194282 0.00241716 0)
(0.193212 0.0023323 0)
(0.19214 0.00225132 0)
(0.191067 0.00217398 0)
(0.189995 0.00210005 0)
(0.188925 0.00202932 0)
(0.187857 0.00196158 0)
(0.186792 0.00189666 0)
(0.185731 0.00183438 0)
(0.184675 0.00177457 0)
(0.183625 0.00171708 0)
(0.182582 0.00166177 0)
(0.181545 0.00160848 0)
(0.180516 0.0015571 0)
(0.179495 0.00150748 0)
(0.178483 0.00145951 0)
(0.17748 0.00141306 0)
(0.176488 0.00136804 0)
(0.175505 0.00132431 0)
(0.174534 0.00128179 0)
(0.173575 0.00124037 0)
(0.172627 0.00119994 0)
(0.171693 0.00116042 0)
(0.170771 0.0011217 0)
(0.169864 0.00108369 0)
(0.168971 0.00104631 0)
(0.168094 0.00100946 0)
(0.167232 0.000973072 0)
(0.166387 0.000937054 0)
(0.16556 0.000901332 0)
(0.16475 0.00086583 0)
(0.16396 0.00083048 0)
(0.163189 0.000795215 0)
(0.16244 0.000759976 0)
(0.161712 0.000724706 0)
(0.161007 0.000689356 0)
(0.160326 0.000653887 0)
(0.15967 0.000618268 0)
(0.15904 0.000582487 0)
(0.158437 0.00054655 0)
(0.157861 0.000510496 0)
(0.157314 0.000474399 0)
(0.156797 0.000438379 0)
(0.15631 0.000402606 0)
(0.155853 0.000367306 0)
(0.155427 0.000332752 0)
(0.155031 0.000299262 0)
(0.154666 0.000267181 0)
(0.154329 0.000236861 0)
(0.15402 0.000208638 0)
(0.153739 0.000182813 0)
(0.153482 0.000159627 0)
(0.153248 0.000139243 0)
(0.153035 0.000121741 0)
(0.152841 0.000107108 0)
(0.152664 9.52427e-05 0)
(0.152501 8.59641e-05 0)
(0.15235 7.9023e-05 0)
(0.152209 7.41214e-05 0)
(0.152077 7.09333e-05 0)
(0.151951 6.91323e-05 0)
(0.15183 6.84319e-05 0)
(0.151713 6.86749e-05 0)
(0.151599 7.01379e-05 0)
(0.151488 7.46814e-05 0)
(0.151353 8.57656e-05 0)
(0.200397 0.00261524 0)
(0.201585 0.00476243 0)
(0.203226 0.00613056 0)
(0.204837 0.0069866 0)
(0.206289 0.00757056 0)
(0.207631 0.00794067 0)
(0.208881 0.00811167 0)
(0.210012 0.00811766 0)
(0.211 0.00799787 0)
(0.211838 0.00778463 0)
(0.212527 0.00750484 0)
(0.213072 0.00718244 0)
(0.213482 0.00683824 0)
(0.213767 0.00648914 0)
(0.213941 0.0061478 0)
(0.214018 0.0058229 0)
(0.214012 0.00551963 0)
(0.213934 0.00524039 0)
(0.213796 0.0049855 0)
(0.213606 0.00475383 0)
(0.213371 0.00454345 0)
(0.213097 0.00435203 0)
(0.212788 0.00417717 0)
(0.212447 0.0040166 0)
(0.212077 0.00386828 0)
(0.21168 0.00373046 0)
(0.211257 0.00360168 0)
(0.210812 0.00348073 0)
(0.210344 0.00336662 0)
(0.209854 0.00325857 0)
(0.209345 0.00315593 0)
(0.208817 0.00305817 0)
(0.208271 0.00296487 0)
(0.207709 0.00287565 0)
(0.20713 0.00279022 0)
(0.206537 0.00270829 0)
(0.20593 0.00262963 0)
(0.20531 0.00255402 0)
(0.204678 0.00248127 0)
(0.204036 0.00241119 0)
(0.203383 0.00234363 0)
(0.20272 0.00227841 0)
(0.202049 0.00221539 0)
(0.201371 0.00215444 0)
(0.200685 0.00209541 0)
(0.199993 0.00203819 0)
(0.199296 0.00198264 0)
(0.198594 0.00192866 0)
(0.197888 0.00187613 0)
(0.197179 0.00182494 0)
(0.196468 0.00177498 0)
(0.195754 0.00172615 0)
(0.19504 0.00167835 0)
(0.194325 0.00163149 0)
(0.193611 0.00158545 0)
(0.192898 0.00154015 0)
(0.192187 0.00149549 0)
(0.191478 0.00145138 0)
(0.190773 0.00140772 0)
(0.190073 0.00136442 0)
(0.189377 0.00132139 0)
(0.188688 0.00127854 0)
(0.188005 0.0012358 0)
(0.187331 0.00119306 0)
(0.186665 0.00115026 0)
(0.186009 0.00110731 0)
(0.185364 0.00106416 0)
(0.184731 0.00102072 0)
(0.184112 0.000976938 0)
(0.183506 0.00093277 0)
(0.182916 0.000888174 0)
(0.182342 0.000843129 0)
(0.181786 0.000797634 0)
(0.181249 0.000751719 0)
(0.180732 0.000705454 0)
(0.180235 0.000658954 0)
(0.179761 0.000612393 0)
(0.179309 0.000566005 0)
(0.17888 0.000520091 0)
(0.178475 0.000475008 0)
(0.178093 0.000431162 0)
(0.177735 0.000388991 0)
(0.1774 0.000348937 0)
(0.177088 0.000311424 0)
(0.176797 0.000276831 0)
(0.176528 0.000245464 0)
(0.176278 0.000217542 0)
(0.176047 0.00019318 0)
(0.175833 0.000172382 0)
(0.175634 0.000155051 0)
(0.175448 0.000140989 0)
(0.175275 0.000129917 0)
(0.175112 0.000121494 0)
(0.174959 0.000115344 0)
(0.174813 0.000111084 0)
(0.174674 0.000108369 0)
(0.174541 0.000106984 0)
(0.174412 0.000107089 0)
(0.174289 0.000109777 0)
(0.174148 0.000115485 0)
(0.200273 0.00210939 0)
(0.20113 0.00396217 0)
(0.202406 0.00528597 0)
(0.203764 0.00617338 0)
(0.205051 0.00678866 0)
(0.206267 0.00720005 0)
(0.207423 0.00742844 0)
(0.208502 0.00750107 0)
(0.209484 0.00745163 0)
(0.210359 0.00731007 0)
(0.211128 0.0071013 0)
(0.21179 0.00684705 0)
(0.212353 0.00656623 0)
(0.212821 0.00627445 0)
(0.213206 0.00598378 0)
(0.213516 0.00570285 0)
(0.213761 0.00543726 0)
(0.213952 0.00519007 0)
(0.214096 0.00496243 0)
(0.214199 0.00475407 0)
(0.214268 0.00456383 0)
(0.214307 0.00439007 0)
(0.214319 0.00423095 0)
(0.214307 0.00408463 0)
(0.214272 0.00394939 0)
(0.214216 0.00382374 0)
(0.21414 0.00370634 0)
(0.214044 0.00359612 0)
(0.21393 0.00349215 0)
(0.213798 0.00339369 0)
(0.213649 0.00330014 0)
(0.213482 0.00321098 0)
(0.213298 0.0031258 0)
(0.213098 0.00304425 0)
(0.212883 0.00296602 0)
(0.212652 0.00289087 0)
(0.212406 0.00281854 0)
(0.212145 0.00274886 0)
(0.21187 0.00268161 0)
(0.211582 0.00261664 0)
(0.211281 0.00255379 0)
(0.210967 0.0024929 0)
(0.210641 0.00243384 0)
(0.210303 0.00237648 0)
(0.209953 0.00232069 0)
(0.209593 0.00226635 0)
(0.209223 0.00221335 0)
(0.208843 0.00216157 0)
(0.208453 0.00211091 0)
(0.208055 0.00206126 0)
(0.207648 0.00201252 0)
(0.207234 0.00196459 0)
(0.206812 0.00191737 0)
(0.206384 0.00187077 0)
(0.20595 0.00182467 0)
(0.20551 0.001779 0)
(0.205065 0.00173364 0)
(0.204617 0.00168852 0)
(0.204164 0.00164351 0)
(0.203709 0.00159855 0)
(0.203252 0.00155352 0)
(0.202793 0.00150834 0)
(0.202333 0.00146291 0)
(0.201874 0.00141715 0)
(0.201416 0.00137096 0)
(0.20096 0.00132428 0)
(0.200507 0.00127701 0)
(0.200057 0.0012291 0)
(0.199613 0.00118047 0)
(0.199174 0.00113109 0)
(0.198741 0.0010809 0)
(0.198317 0.00102991 0)
(0.197902 0.000978129 0)
(0.197496 0.000925599 0)
(0.197101 0.000872421 0)
(0.196718 0.000818748 0)
(0.196348 0.000764796 0)
(0.195991 0.000710853 0)
(0.195648 0.000657277 0)
(0.19532 0.000604491 0)
(0.195006 0.000552968 0)
(0.194707 0.000503214 0)
(0.194424 0.000455742 0)
(0.194155 0.000411039 0)
(0.193902 0.000369546 0)
(0.193662 0.000331622 0)
(0.193437 0.000297529 0)
(0.193225 0.000267418 0)
(0.193025 0.000241319 0)
(0.192837 0.000219144 0)
(0.19266 0.0002007 0)
(0.192492 0.0001857 0)
(0.192334 0.000173789 0)
(0.192183 0.000164566 0)
(0.19204 0.00015762 0)
(0.191903 0.00015257 0)
(0.191771 0.000149134 0)
(0.191645 0.000147266 0)
(0.191526 0.000147164 0)
(0.191392 0.000146654 0)
(0.200197 0.0017391 0)
(0.200832 0.00333135 0)
(0.20183 0.0045655 0)
(0.20296 0.00544822 0)
(0.204081 0.00607664 0)
(0.205162 0.00651234 0)
(0.206201 0.00678038 0)
(0.207186 0.00690364 0)
(0.208098 0.00691001 0)
(0.208929 0.00682619 0)
(0.209675 0.006675 0)
(0.210338 0.00647625 0)
(0.210921 0.00624719 0)
(0.211429 0.00600232 0)
(0.21187 0.00575312 0)
(0.212251 0.00550811 0)
(0.212581 0.00527314 0)
(0.212868 0.0050518 0)
(0.213118 0.00484589 0)
(0.213337 0.00465584 0)
(0.213531 0.00448118 0)
(0.213703 0.00432086 0)
(0.213856 0.00417357 0)
(0.213992 0.00403787 0)
(0.214114 0.00391236 0)
(0.214222 0.00379577 0)
(0.214316 0.00368696 0)
(0.214398 0.00358495 0)
(0.214469 0.0034889 0)
(0.214527 0.00339811 0)
(0.214573 0.00331201 0)
(0.214608 0.00323011 0)
(0.214632 0.003152 0)
(0.214644 0.00307732 0)
(0.214645 0.00300578 0)
(0.214635 0.00293712 0)
(0.214613 0.00287111 0)
(0.214581 0.00280753 0)
(0.214538 0.0027462 0)
(0.214484 0.00268695 0)
(0.214419 0.00262961 0)
(0.214344 0.00257404 0)
(0.214258 0.00252009 0)
(0.214162 0.00246763 0)
(0.214056 0.00241653 0)
(0.21394 0.00236668 0)
(0.213814 0.00231795 0)
(0.213679 0.00227022 0)
(0.213534 0.0022234 0)
(0.21338 0.00217737 0)
(0.213217 0.00213203 0)
(0.213046 0.00208726 0)
(0.212866 0.00204298 0)
(0.212678 0.00199907 0)
(0.212482 0.00195543 0)
(0.212279 0.00191197 0)
(0.212068 0.00186858 0)
(0.211851 0.00182515 0)
(0.211628 0.00178159 0)
(0.211398 0.00173779 0)
(0.211163 0.00169366 0)
(0.210923 0.00164908 0)
(0.210678 0.00160397 0)
(0.210429 0.00155823 0)
(0.210177 0.00151175 0)
(0.209922 0.00146447 0)
(0.209665 0.00141628 0)
(0.209406 0.00136712 0)
(0.209146 0.00131692 0)
(0.208886 0.00126563 0)
(0.208626 0.00121321 0)
(0.208367 0.00115966 0)
(0.208111 0.00110501 0)
(0.207857 0.00104931 0)
(0.207606 0.000992677 0)
(0.20736 0.000935295 0)
(0.207118 0.000877408 0)
(0.206881 0.000819335 0)
(0.20665 0.000761473 0)
(0.206425 0.000704281 0)
(0.206207 0.000648274 0)
(0.205996 0.000593999 0)
(0.205792 0.000542008 0)
(0.205596 0.00049283 0)
(0.205407 0.000446942 0)
(0.205226 0.000404738 0)
(0.205053 0.000366515 0)
(0.204887 0.00033245 0)
(0.204728 0.000302597 0)
(0.204577 0.00027689 0)
(0.204433 0.000255148 0)
(0.204295 0.000237096 0)
(0.204164 0.000222381 0)
(0.204038 0.000210604 0)
(0.203917 0.000201344 0)
(0.203802 0.000194199 0)
(0.203691 0.00018882 0)
(0.203584 0.000184927 0)
(0.203484 0.000181933 0)
(0.203371 0.000175901 0)
(0.200147 0.00145747 0)
(0.20063 0.00282776 0)
(0.201417 0.00395267 0)
(0.202354 0.00480383 0)
(0.203321 0.00543055 0)
(0.204275 0.00587964 0)
(0.205204 0.00617593 0)
(0.206093 0.00633902 0)
(0.206928 0.0063916 0)
(0.207699 0.00635666 0)
(0.208399 0.00625474 0)
(0.209031 0.00610383 0)
(0.209595 0.00591966 0)
(0.210096 0.00571562 0)
(0.210539 0.0055026 0)
(0.210932 0.00528891 0)
(0.211281 0.00508056 0)
(0.211593 0.00488152 0)
(0.211874 0.00469409 0)
(0.212129 0.00451933 0)
(0.212363 0.00435733 0)
(0.21258 0.00420762 0)
(0.212782 0.00406934 0)
(0.212972 0.00394146 0)
(0.213152 0.00382289 0)
(0.213323 0.00371261 0)
(0.213485 0.00360965 0)
(0.21364 0.00351317 0)
(0.213787 0.00342243 0)
(0.213927 0.0033368 0)
(0.214061 0.00325573 0)
(0.214187 0.00317877 0)
(0.214307 0.00310552 0)
(0.214421 0.00303564 0)
(0.214528 0.00296885 0)
(0.214628 0.00290487 0)
(0.214721 0.00284349 0)
(0.214808 0.0027845 0)
(0.214887 0.00272769 0)
(0.214961 0.0026729 0)
(0.215027 0.00261997 0)
(0.215086 0.00256874 0)
(0.215139 0.00251907 0)
(0.215185 0.00247082 0)
(0.215223 0.00242385 0)
(0.215255 0.00237805 0)
(0.21528 0.00233329 0)
(0.215298 0.00228946 0)
(0.215309 0.00224643 0)
(0.215313 0.0022041 0)
(0.21531 0.00216235 0)
(0.215301 0.00212108 0)
(0.215284 0.00208017 0)
(0.215261 0.00203952 0)
(0.215231 0.00199901 0)
(0.215195 0.00195855 0)
(0.215152 0.00191802 0)
(0.215103 0.00187731 0)
(0.215048 0.00183631 0)
(0.214986 0.00179492 0)
(0.214919 0.00175302 0)
(0.214846 0.00171051 0)
(0.214768 0.00166728 0)
(0.214684 0.00162323 0)
(0.214596 0.00157825 0)
(0.214502 0.00153225 0)
(0.214405 0.00148514 0)
(0.214303 0.00143684 0)
(0.214197 0.00138728 0)
(0.214088 0.0013364 0)
(0.213976 0.00128418 0)
(0.213861 0.0012306 0)
(0.213744 0.00117569 0)
(0.213625 0.00111952 0)
(0.213505 0.00106223 0)
(0.213383 0.00100399 0)
(0.21326 0.000945063 0)
(0.213137 0.00088579 0)
(0.213014 0.000826574 0)
(0.212891 0.000767892 0)
(0.212768 0.00071027 0)
(0.212646 0.000654266 0)
(0.212526 0.000600447 0)
(0.212406 0.000549355 0)
(0.212289 0.000501481 0)
(0.212174 0.000457237 0)
(0.212062 0.000416938 0)
(0.211952 0.00038078 0)
(0.211846 0.000348839 0)
(0.211742 0.000321071 0)
(0.211642 0.000297316 0)
(0.211546 0.00027732 0)
(0.211453 0.000260749 0)
(0.211363 0.000247217 0)
(0.211277 0.000236312 0)
(0.211193 0.000227622 0)
(0.211113 0.000220739 0)
(0.211036 0.000215186 0)
(0.210964 0.00020985 0)
(0.21088 0.000200141 0)
(0.200113 0.00123654 0)
(0.200487 0.00241997 0)
(0.201115 0.00343232 0)
(0.201891 0.00423499 0)
(0.202721 0.00484723 0)
(0.203559 0.00530008 0)
(0.204386 0.0056148 0)
(0.205187 0.00580811 0)
(0.205948 0.00589838 0)
(0.206658 0.00590494 0)
(0.207311 0.00584585 0)
(0.207906 0.00573719 0)
(0.208443 0.00559321 0)
(0.208926 0.00542618 0)
(0.209358 0.00524626 0)
(0.209745 0.00506148 0)
(0.210093 0.00487786 0)
(0.210407 0.00469959 0)
(0.210693 0.0045294 0)
(0.210956 0.0043688 0)
(0.211199 0.00421841 0)
(0.211427 0.00407823 0)
(0.211643 0.00394782 0)
(0.211848 0.00382654 0)
(0.212044 0.00371361 0)
(0.212233 0.00360823 0)
(0.212416 0.00350965 0)
(0.212593 0.00341715 0)
(0.212766 0.00333011 0)
(0.212934 0.00324796 0)
(0.213097 0.00317024 0)
(0.213257 0.00309652 0)
(0.213413 0.00302643 0)
(0.213565 0.00295966 0)
(0.213713 0.00289592 0)
(0.213858 0.00283499 0)
(0.213998 0.00277662 0)
(0.214135 0.00272061 0)
(0.214269 0.00266679 0)
(0.214398 0.00261497 0)
(0.214524 0.00256501 0)
(0.214646 0.00251673 0)
(0.214764 0.00247001 0)
(0.214878 0.00242471 0)
(0.214988 0.00238068 0)
(0.215094 0.00233781 0)
(0.215196 0.00229598 0)
(0.215294 0.00225505 0)
(0.215388 0.00221492 0)
(0.215477 0.00217546 0)
(0.215562 0.00213657 0)
(0.215642 0.00209813 0)
(0.215718 0.00206003 0)
(0.21579 0.00202215 0)
(0.215856 0.00198439 0)
(0.215919 0.00194663 0)
(0.215977 0.00190876 0)
(0.21603 0.00187066 0)
(0.216078 0.00183223 0)
(0.216122 0.00179333 0)
(0.216161 0.00175387 0)
(0.216195 0.00171373 0)
(0.216225 0.0016728 0)
(0.21625 0.00163096 0)
(0.21627 0.00158812 0)
(0.216286 0.00154417 0)
(0.216297 0.00149901 0)
(0.216303 0.00145256 0)
(0.216305 0.00140476 0)
(0.216303 0.00135553 0)
(0.216296 0.00130485 0)
(0.216286 0.00125272 0)
(0.21627 0.00119915 0)
(0.216251 0.00114423 0)
(0.216228 0.00108807 0)
(0.216201 0.00103087 0)
(0.21617 0.00097289 0)
(0.216135 0.000914457 0)
(0.216096 0.000855974 0)
(0.216054 0.000797909 0)
(0.216009 0.000740779 0)
(0.21596 0.000685133 0)
(0.215909 0.000631525 0)
(0.215856 0.00058049 0)
(0.215801 0.000532514 0)
(0.215744 0.00048801 0)
(0.215686 0.000447294 0)
(0.215628 0.000410576 0)
(0.21557 0.000377947 0)
(0.215512 0.000349382 0)
(0.215455 0.000324748 0)
(0.215399 0.000303814 0)
(0.215345 0.000286276 0)
(0.215291 0.000271771 0)
(0.21524 0.000259905 0)
(0.21519 0.000250265 0)
(0.215141 0.000242408 0)
(0.215095 0.00023573 0)
(0.215051 0.000228905 0)
(0.214999 0.000217702 0)
(0.200088 0.00105897 0)
(0.200384 0.00208514 0)
(0.20089 0.00298979 0)
(0.201534 0.00373475 0)
(0.202243 0.00432228 0)
(0.202976 0.00477026 0)
(0.20371 0.00509488 0)
(0.20443 0.00530992 0)
(0.205122 0.00543015 0)
(0.205774 0.00547147 0)
(0.206381 0.00544938 0)
(0.20694 0.00537805 0)
(0.207449 0.00527021 0)
(0.207911 0.00513695 0)
(0.208329 0.00498771 0)
(0.208707 0.00483008 0)
(0.209049 0.00466997 0)
(0.20936 0.00451171 0)
(0.209645 0.00435828 0)
(0.209908 0.00421158 0)
(0.210152 0.00407264 0)
(0.210382 0.00394185 0)
(0.2106 0.00381917 0)
(0.210807 0.00370429 0)
(0.211006 0.00359671 0)
(0.211199 0.00349587 0)
(0.211385 0.00340121 0)
(0.211567 0.00331216 0)
(0.211745 0.0032282 0)
(0.211919 0.00314887 0)
(0.21209 0.00307375 0)
(0.212258 0.00300247 0)
(0.212423 0.00293469 0)
(0.212585 0.00287014 0)
(0.212745 0.00280856 0)
(0.212903 0.00274971 0)
(0.213059 0.00269338 0)
(0.213212 0.00263939 0)
(0.213363 0.00258755 0)
(0.213512 0.00253771 0)
(0.213659 0.00248969 0)
(0.213804 0.00244337 0)
(0.213947 0.00239859 0)
(0.214087 0.00235523 0)
(0.214226 0.00231315 0)
(0.214362 0.00227224 0)
(0.214496 0.00223236 0)
(0.214628 0.00219341 0)
(0.214757 0.00215525 0)
(0.214884 0.00211779 0)
(0.215008 0.0020809 0)
(0.21513 0.00204448 0)
(0.215249 0.0020084 0)
(0.215366 0.00197256 0)
(0.21548 0.00193685 0)
(0.215591 0.00190114 0)
(0.215699 0.00186533 0)
(0.215804 0.00182931 0)
(0.215906 0.00179295 0)
(0.216004 0.00175615 0)
(0.2161 0.00171878 0)
(0.216192 0.00168074 0)
(0.216281 0.0016419 0)
(0.216366 0.00160217 0)
(0.216448 0.00156142 0)
(0.216525 0.00151957 0)
(0.216599 0.00147651 0)
(0.216669 0.00143216 0)
(0.216735 0.00138644 0)
(0.216797 0.0013393 0)
(0.216854 0.00129071 0)
(0.216907 0.00124065 0)
(0.216955 0.00118916 0)
(0.216998 0.00113631 0)
(0.217037 0.00108222 0)
(0.21707 0.00102708 0)
(0.217099 0.000971137 0)
(0.217122 0.000914706 0)
(0.21714 0.000858173 0)
(0.217153 0.000801985 0)
(0.217161 0.000746633 0)
(0.217164 0.000692641 0)
(0.217162 0.000640536 0)
(0.217156 0.000590828 0)
(0.217145 0.000543984 0)
(0.217132 0.000500403 0)
(0.217115 0.000460397 0)
(0.217096 0.000424175 0)
(0.217076 0.000391841 0)
(0.217053 0.000363385 0)
(0.21703 0.000338697 0)
(0.217007 0.000317577 0)
(0.216983 0.000299747 0)
(0.21696 0.000284875 0)
(0.216937 0.000272591 0)
(0.216914 0.000262493 0)
(0.216893 0.000254125 0)
(0.216872 0.000246844 0)
(0.216852 0.000239371 0)
(0.216826 0.00022846 0)
(0.20007 0.000913453 0)
(0.200308 0.00180666 0)
(0.200719 0.00261198 0)
(0.201255 0.0032956 0)
(0.20186 0.00385121 0)
(0.202498 0.00428714 0)
(0.203148 0.00461441 0)
(0.203793 0.00484375 0)
(0.20442 0.00498684 0)
(0.205019 0.00505655 0)
(0.205581 0.00506586 0)
(0.206104 0.00502708 0)
(0.206587 0.00495138 0)
(0.207028 0.00484875 0)
(0.207431 0.00472777 0)
(0.207799 0.00459557 0)
(0.208134 0.00445784 0)
(0.208441 0.00431891 0)
(0.208723 0.00418194 0)
(0.208985 0.00404908 0)
(0.209229 0.00392168 0)
(0.209458 0.00380047 0)
(0.209675 0.00368574 0)
(0.209882 0.00357746 0)
(0.210081 0.00347541 0)
(0.210274 0.00337925 0)
(0.21046 0.00328858 0)
(0.210642 0.00320299 0)
(0.210819 0.00312207 0)
(0.210993 0.00304545 0)
(0.211164 0.00297277 0)
(0.211332 0.00290372 0)
(0.211498 0.00283802 0)
(0.211661 0.0027754 0)
(0.211823 0.00271564 0)
(0.211982 0.00265852 0)
(0.21214 0.00260385 0)
(0.212296 0.00255144 0)
(0.212451 0.00250115 0)
(0.212604 0.0024528 0)
(0.212756 0.00240625 0)
(0.212906 0.00236137 0)
(0.213055 0.00231801 0)
(0.213203 0.00227605 0)
(0.21335 0.00223537 0)
(0.213495 0.00219585 0)
(0.213638 0.00215736 0)
(0.213781 0.00211979 0)
(0.213922 0.00208304 0)
(0.214062 0.00204698 0)
(0.2142 0.00201151 0)
(0.214336 0.00197651 0)
(0.214472 0.00194188 0)
(0.214605 0.00190751 0)
(0.214737 0.00187329 0)
(0.214867 0.00183909 0)
(0.214996 0.00180483 0)
(0.215122 0.00177037 0)
(0.215247 0.00173561 0)
(0.215369 0.00170044 0)
(0.21549 0.00166474 0)
(0.215607 0.0016284 0)
(0.215723 0.00159131 0)
(0.215836 0.00155336 0)
(0.215946 0.00151445 0)
(0.216053 0.00147448 0)
(0.216157 0.00143335 0)
(0.216258 0.00139098 0)
(0.216356 0.0013473 0)
(0.216449 0.00130226 0)
(0.216539 0.00125583 0)
(0.216625 0.001208 0)
(0.216706 0.0011588 0)
(0.216783 0.0011083 0)
(0.216855 0.00105662 0)
(0.216922 0.00100394 0)
(0.216983 0.000950491 0)
(0.21704 0.000896575 0)
(0.21709 0.000842553 0)
(0.217135 0.000788843 0)
(0.217174 0.000735903 0)
(0.217208 0.000684221 0)
(0.217236 0.000634289 0)
(0.217259 0.000586585 0)
(0.217277 0.000541546 0)
(0.217291 0.000499551 0)
(0.217301 0.000460896 0)
(0.217308 0.000425789 0)
(0.217312 0.000394334 0)
(0.217313 0.000366538 0)
(0.217313 0.000342312 0)
(0.217312 0.000321479 0)
(0.21731 0.000303794 0)
(0.217308 0.000288955 0)
(0.217305 0.000276618 0)
(0.217302 0.000266404 0)