/*--------------------------------*- C++ -*----------------------------------*\
| =========                 |                                                 |
| \\      /  F ield         | OpenFOAM: The Open Source CFD Toolbox           |
|  \\    /   O peration     | Version:  2.3.0                                 |
|   \\  /    A nd           | Web:      www.OpenFOAM.org                      |
|    \\/     M anipulation  |                                                 |
\*---------------------------------------------------------------------------*/
FoamFile
{
    version     2.0;
    format      ascii;
    class       volVectorField;
    location    "0.1";
    object      U_0;
}
// * * * * * * * * * * * * * * * * * * * * * * * * * * * * * * * * * * * * * //

dimensions      [0 1 -1 0 0 0 0];

internalField   nonuniform List<vector> 
3375
(
(0.175881 0.00517189 0)
(0.155202 0.00652204 0)
(0.135203 0.00628315 0)
(0.116315 0.00532997 0)
(0.0990084 0.00439742 0)
(0.0839416 0.00341123 0)
(0.0715127 0.00251145 0)
(0.0616039 0.00159585 0)
(0.0539721 0.000800975 0)
(0.0484711 0.000319706 0)
(0.0445704 0.000118132 0)
(0.0416275 2.12108e-05 0)
(0.0394561 -4.77399e-05 0)
(0.0378612 -4.41124e-05 0)
(0.0365765 -1.01939e-05 0)
(0.0354735 6.9781e-06 0)
(0.0345571 1.66304e-05 0)
(0.0337838 2.69862e-05 0)
(0.0330718 3.73234e-05 0)
(0.0324357 3.10032e-05 0)
(0.0318821 3.11637e-05 0)
(0.0314154 2.91301e-05 0)
(0.0310301 2.14884e-05 0)
(0.0307044 2.78752e-05 0)
(0.0304332 2.21054e-05 0)
(0.030255 6.71583e-06 0)
(0.0301701 6.10649e-06 0)
(0.030144 8.36464e-06 0)
(0.0301842 -8.9645e-06 0)
(0.0302986 -2.30565e-05 0)
(0.0304542 -2.39857e-05 0)
(0.0306152 -2.16908e-05 0)
(0.0307615 -1.84625e-05 0)
(0.0308827 -1.48217e-05 0)
(0.0309784 -1.1858e-05 0)
(0.0310529 -9.41675e-06 0)
(0.0311098 -7.20942e-06 0)
(0.0311529 -5.75835e-06 0)
(0.0311869 -4.73504e-06 0)
(0.0312156 -4.21419e-06 0)
(0.0312422 -4.14023e-06 0)
(0.0312677 -3.78297e-06 0)
(0.0312908 -3.3386e-06 0)
(0.0313126 -3.46778e-06 0)
(0.0313331 -2.90929e-06 0)
(0.0313509 -2.52793e-06 0)
(0.0313668 -2.39645e-06 0)
(0.0313818 -2.24807e-06 0)
(0.0313952 -1.84577e-06 0)
(0.0314066 -1.63253e-06 0)
(0.0314173 -1.62982e-06 0)
(0.0314274 -1.4406e-06 0)
(0.0314362 -1.21321e-06 0)
(0.0314442 -1.19699e-06 0)
(0.031452 -1.16073e-06 0)
(0.0314593 -9.83089e-07 0)
(0.0314656 -8.75755e-07 0)
(0.0314716 -8.71659e-07 0)
(0.0314773 -8.05305e-07 0)
(0.0314825 -6.92035e-07 0)
(0.0314872 -6.34859e-07 0)
(0.0314915 -6.07303e-07 0)
(0.0314956 -5.52016e-07 0)
(0.0314994 -4.90159e-07 0)
(0.0315028 -4.5276e-07 0)
(0.0315059 -4.23059e-07 0)
(0.0315089 -3.85118e-07 0)
(0.0315116 -3.47957e-07 0)
(0.031514 -3.19743e-07 0)
(0.0315163 -2.95244e-07 0)
(0.0315185 -2.69066e-07 0)
(0.0315204 -2.45192e-07 0)
(0.0315222 -2.23431e-07 0)
(0.0315239 -2.05282e-07 0)
(0.0315254 -1.8614e-07 0)
(0.0315268 -1.69852e-07 0)
(0.031528 -1.53783e-07 0)
(0.0315292 -1.40442e-07 0)
(0.0315303 -1.26867e-07 0)
(0.0315313 -1.15119e-07 0)
(0.0315322 -1.04119e-07 0)
(0.031533 -9.40484e-08 0)
(0.0315337 -8.48787e-08 0)
(0.0315344 -7.6323e-08 0)
(0.031535 -6.86832e-08 0)
(0.0315356 -6.12786e-08 0)
(0.031536 -5.51305e-08 0)
(0.0315365 -4.86079e-08 0)
(0.0315369 -4.34561e-08 0)
(0.0315372 -3.79124e-08 0)
(0.0315376 -3.36485e-08 0)
(0.0315378 -2.87328e-08 0)
(0.0315381 -2.52104e-08 0)
(0.0315383 -2.08596e-08 0)
(0.0315385 -1.77224e-08 0)
(0.0315386 -1.36428e-08 0)
(0.0315387 -1.21414e-08 0)
(0.0315388 -8.34402e-09 0)
(0.0315389 -1.01769e-08 0)
(0.0315389 1.13003e-09 0)
(0.1913 0.00916471 0)
(0.19136 0.011405 0)
(0.189204 0.0126758 0)
(0.184371 0.0125262 0)
(0.177839 0.0118998 0)
(0.17052 0.00993657 0)
(0.162445 0.00869152 0)
(0.15406 0.00755491 0)
(0.145987 0.00584694 0)
(0.138467 0.00436764 0)
(0.131772 0.00328206 0)
(0.125743 0.00250412 0)
(0.12031 0.00187293 0)
(0.115547 0.00145012 0)
(0.111405 0.00119075 0)
(0.10772 0.000961787 0)
(0.104491 0.000770288 0)
(0.101737 0.000655427 0)
(0.099304 0.0005945 0)
(0.0971725 0.000489271 0)
(0.0953203 0.000410992 0)
(0.0937699 0.000336347 0)
(0.09247 0.000257273 0)
(0.0913623 0.000224907 0)
(0.090468 0.00016168 0)
(0.0897996 7.55711e-05 0)
(0.0893562 3.41161e-05 0)
(0.0890881 -9.61855e-06 0)
(0.0889938 -7.4518e-05 0)
(0.0890539 -0.000111631 0)
(0.0892121 -0.000120555 0)
(0.0894111 -0.000114512 0)
(0.0896123 -9.53423e-05 0)
(0.0897875 -7.09043e-05 0)
(0.0899298 -5.43812e-05 0)
(0.0900412 -4.16537e-05 0)
(0.0901271 -3.11527e-05 0)
(0.0901926 -2.45e-05 0)
(0.090244 -1.99231e-05 0)
(0.0902882 -1.7604e-05 0)
(0.0903291 -1.72241e-05 0)
(0.090368 -1.57898e-05 0)
(0.090404 -1.37346e-05 0)
(0.0904378 -1.39467e-05 0)
(0.0904682 -1.19534e-05 0)
(0.0904948 -1.02307e-05 0)
(0.0905184 -9.54237e-06 0)
(0.0905397 -8.87949e-06 0)
(0.0905584 -7.39982e-06 0)
(0.0905747 -6.54457e-06 0)
(0.0905895 -6.41064e-06 0)
(0.0906033 -5.69275e-06 0)
(0.0906155 -4.84475e-06 0)
(0.0906266 -4.70816e-06 0)
(0.0906372 -4.5361e-06 0)
(0.0906469 -3.89554e-06 0)
(0.0906556 -3.48517e-06 0)
(0.0906638 -3.42208e-06 0)
(0.0906715 -3.16251e-06 0)
(0.0906785 -2.74643e-06 0)
(0.0906849 -2.51417e-06 0)
(0.0906908 -2.39148e-06 0)
(0.0906963 -2.18083e-06 0)
(0.0907014 -1.94579e-06 0)
(0.090706 -1.79486e-06 0)
(0.0907103 -1.674e-06 0)
(0.0907143 -1.5267e-06 0)
(0.090718 -1.38299e-06 0)
(0.0907214 -1.27137e-06 0)
(0.0907245 -1.17371e-06 0)
(0.0907274 -1.07105e-06 0)
(0.0907301 -9.76821e-07 0)
(0.0907326 -8.91845e-07 0)
(0.0907349 -8.19548e-07 0)
(0.090737 -7.44264e-07 0)
(0.0907389 -6.80227e-07 0)
(0.0907407 -6.16793e-07 0)
(0.0907423 -5.63363e-07 0)
(0.0907438 -5.09787e-07 0)
(0.0907452 -4.63563e-07 0)
(0.0907464 -4.19171e-07 0)
(0.0907476 -3.79432e-07 0)
(0.0907486 -3.42606e-07 0)
(0.0907496 -3.08407e-07 0)
(0.0907504 -2.77757e-07 0)
(0.0907512 -2.48205e-07 0)
(0.0907519 -2.23001e-07 0)
(0.0907525 -1.97073e-07 0)
(0.0907531 -1.76134e-07 0)
(0.0907536 -1.53435e-07 0)
(0.090754 -1.36105e-07 0)
(0.0907544 -1.15531e-07 0)
(0.0907548 -1.0186e-07 0)
(0.090755 -8.21621e-08 0)
(0.0907553 -7.2723e-08 0)
(0.0907554 -5.38521e-08 0)
(0.0907556 -5.06131e-08 0)
(0.0907557 -2.74856e-08 0)
(0.0907558 -2.50388e-08 0)
(0.0907558 -4.37452e-09 0)
(0.192467 0.00760681 0)
(0.193513 0.0104189 0)
(0.194738 0.011454 0)
(0.196059 0.0124116 0)
(0.196927 0.0116897 0)
(0.196663 0.0113892 0)
(0.195355 0.0102707 0)
(0.192883 0.00999441 0)
(0.18945 0.00862385 0)
(0.185541 0.0073268 0)
(0.18171 0.00640211 0)
(0.177866 0.00546318 0)
(0.173941 0.00456083 0)
(0.170133 0.00396079 0)
(0.166535 0.0035428 0)
(0.16302 0.00312442 0)
(0.159668 0.00268579 0)
(0.156692 0.00231408 0)
(0.153985 0.00208128 0)
(0.151434 0.00177906 0)
(0.149019 0.00153507 0)
(0.146891 0.00128469 0)
(0.145075 0.00104215 0)
(0.143468 0.000917046 0)
(0.142047 0.000712072 0)
(0.140835 0.000461035 0)
(0.139879 0.000308781 0)
(0.139169 0.00017795 0)
(0.138636 1.28951e-05 0)
(0.138273 -0.000111815 0)
(0.138055 -0.000172747 0)
(0.137927 -0.000184431 0)
(0.137901 -0.000173439 0)
(0.137913 -0.000147613 0)
(0.137937 -0.0001175 0)
(0.137966 -9.16053e-05 0)
(0.137995 -6.81181e-05 0)
(0.138017 -5.21343e-05 0)
(0.138035 -4.17094e-05 0)
(0.13805 -3.61981e-05 0)
(0.138067 -3.46321e-05 0)
(0.138088 -3.20778e-05 0)
(0.138111 -2.8467e-05 0)
(0.138136 -2.6525e-05 0)
(0.138159 -2.42861e-05 0)
(0.13818 -2.02445e-05 0)
(0.138197 -1.82039e-05 0)
(0.138212 -1.66956e-05 0)
(0.138224 -1.37172e-05 0)
(0.138234 -1.19865e-05 0)
(0.138243 -1.16804e-05 0)
(0.13825 -1.03768e-05 0)
(0.138257 -8.76731e-06 0)
(0.138263 -8.46639e-06 0)
(0.138268 -8.17176e-06 0)
(0.138273 -7.01693e-06 0)
(0.138278 -6.22551e-06 0)
(0.138282 -6.11457e-06 0)
(0.138286 -5.68262e-06 0)
(0.138289 -4.93071e-06 0)
(0.138293 -4.49254e-06 0)
(0.138295 -4.26961e-06 0)
(0.138298 -3.9104e-06 0)
(0.138301 -3.48676e-06 0)
(0.138303 -3.21037e-06 0)
(0.138305 -2.99691e-06 0)
(0.138307 -2.74225e-06 0)
(0.138309 -2.48469e-06 0)
(0.138311 -2.28459e-06 0)
(0.138312 -2.11203e-06 0)
(0.138314 -1.93219e-06 0)
(0.138315 -1.76565e-06 0)
(0.138317 -1.61212e-06 0)
(0.138318 -1.48549e-06 0)
(0.138319 -1.35034e-06 0)
(0.13832 -1.23704e-06 0)
(0.138321 -1.12242e-06 0)
(0.138322 -1.02847e-06 0)
(0.138323 -9.30506e-07 0)
(0.138323 -8.48447e-07 0)
(0.138324 -7.68096e-07 0)
(0.138325 -6.95993e-07 0)
(0.138325 -6.29297e-07 0)
(0.138326 -5.6707e-07 0)
(0.138326 -5.1091e-07 0)
(0.138327 -4.56761e-07 0)
(0.138327 -4.10892e-07 0)
(0.138328 -3.62195e-07 0)
(0.138328 -3.24203e-07 0)
(0.138328 -2.81373e-07 0)
(0.138328 -2.49718e-07 0)
(0.138329 -2.10454e-07 0)
(0.138329 -1.84849e-07 0)
(0.138329 -1.47799e-07 0)
(0.138329 -1.26864e-07 0)
(0.138329 -9.01217e-08 0)
(0.138329 -7.62752e-08 0)
(0.138329 -4.49757e-08 0)
(0.138329 -3.91546e-08 0)
(0.138329 4.70188e-09 0)
(0.193308 0.00722623 0)
(0.19403 0.0088346 0)
(0.195253 0.0103157 0)
(0.197092 0.0104924 0)
(0.198969 0.012223 0)
(0.200237 0.00944864 0)
(0.201049 0.0109629 0)
(0.201907 0.00957795 0)
(0.201699 0.00916008 0)
(0.200958 0.00793313 0)
(0.200047 0.00717383 0)
(0.198737 0.00667749 0)
(0.197067 0.00582181 0)
(0.195384 0.00525369 0)
(0.193781 0.00489375 0)
(0.191962 0.00445712 0)
(0.189901 0.00397957 0)
(0.187962 0.00353816 0)
(0.186272 0.00327419 0)
(0.184657 0.00294203 0)
(0.182946 0.00267637 0)
(0.18124 0.00230774 0)
(0.179717 0.00189324 0)
(0.178393 0.00171565 0)
(0.177164 0.00144706 0)
(0.17599 0.00107928 0)
(0.174936 0.000837418 0)
(0.174031 0.000596678 0)
(0.173258 0.000320858 0)
(0.172622 0.000139442 0)
(0.172104 3.26271e-05 0)
(0.171676 -5.45961e-05 0)
(0.171341 -9.15999e-05 0)
(0.171074 -8.66702e-05 0)
(0.170854 -7.98478e-05 0)
(0.170686 -6.84538e-05 0)
(0.170563 -5.27835e-05 0)
(0.170465 -4.17382e-05 0)
(0.170382 -3.33576e-05 0)
(0.170312 -3.08242e-05 0)
(0.170254 -3.47083e-05 0)
(0.170213 -3.54134e-05 0)
(0.170188 -3.22212e-05 0)
(0.170176 -3.87878e-05 0)
(0.170173 -2.75576e-05 0)
(0.170175 -2.51481e-05 0)
(0.170176 -2.26259e-05 0)
(0.170176 -2.03914e-05 0)
(0.170175 -1.61694e-05 0)
(0.170172 -1.35541e-05 0)
(0.170167 -1.31549e-05 0)
(0.170162 -1.14548e-05 0)
(0.170158 -9.37228e-06 0)
(0.170153 -9.13333e-06 0)
(0.170149 -8.93353e-06 0)
(0.170145 -7.48066e-06 0)
(0.170142 -6.53882e-06 0)
(0.170138 -6.54224e-06 0)
(0.170135 -6.10682e-06 0)
(0.170132 -5.2062e-06 0)
(0.17013 -4.71589e-06 0)
(0.170127 -4.53517e-06 0)
(0.170125 -4.14748e-06 0)
(0.170122 -3.67097e-06 0)
(0.17012 -3.38215e-06 0)
(0.170118 -3.18142e-06 0)
(0.170117 -2.91094e-06 0)
(0.170115 -2.63567e-06 0)
(0.170114 -2.42943e-06 0)
(0.170113 -2.26037e-06 0)
(0.170112 -2.07044e-06 0)
(0.170111 -1.89641e-06 0)
(0.17011 -1.7372e-06 0)
(0.170109 -1.6089e-06 0)
(0.170108 -1.46553e-06 0)
(0.170107 -1.34837e-06 0)
(0.170107 -1.22567e-06 0)
(0.170106 -1.12667e-06 0)
(0.170106 -1.0225e-06 0)
(0.170105 -9.34626e-07 0)
(0.170105 -8.47816e-07 0)
(0.170105 -7.69819e-07 0)
(0.170104 -6.97148e-07 0)
(0.170104 -6.28563e-07 0)
(0.170104 -5.6724e-07 0)
(0.170104 -5.0618e-07 0)
(0.170103 -4.55244e-07 0)
(0.170103 -3.9985e-07 0)
(0.170103 -3.56444e-07 0)
(0.170103 -3.06851e-07 0)
(0.170103 -2.6956e-07 0)
(0.170103 -2.2358e-07 0)
(0.170102 -1.9259e-07 0)
(0.170102 -1.48266e-07 0)
(0.170102 -1.2124e-07 0)
(0.170102 -7.95121e-08 0)
(0.170102 -6.24695e-08 0)
(0.170102 -1.39694e-08 0)
(0.170102 -8.21306e-09 0)
(0.170101 4.43648e-08 0)
(0.194192 0.00677935 0)
(0.194768 0.00826565 0)
(0.195827 0.00979936 0)
(0.197253 0.00989218 0)
(0.198936 0.011018 0)
(0.200214 0.0100176 0)
(0.201064 0.00936618 0)
(0.202215 0.0105591 0)
(0.203154 0.00840508 0)
(0.203232 0.00788864 0)
(0.203417 0.0070358 0)
(0.203384 0.00674121 0)
(0.203009 0.00614488 0)
(0.202718 0.0054683 0)
(0.202477 0.00523994 0)
(0.20191 0.00504841 0)
(0.201051 0.00462672 0)
(0.200237 0.00408504 0)
(0.199609 0.00374068 0)
(0.199022 0.00334448 0)
(0.198267 0.00316691 0)
(0.197329 0.00289843 0)
(0.196442 0.00241264 0)
(0.195746 0.00219261 0)
(0.195065 0.0019031 0)
(0.194322 0.00149767 0)
(0.193595 0.00125264 0)
(0.192888 0.000999343 0)
(0.192204 0.000666491 0)
(0.191591 0.000431891 0)
(0.191052 0.000284271 0)
(0.190574 0.000162162 0)
(0.190164 0.00010038 0)
(0.189799 7.98048e-05 0)
(0.189462 5.72287e-05 0)
(0.189174 3.99227e-05 0)
(0.188943 3.35452e-05 0)
(0.188752 2.83364e-05 0)
(0.18859 2.5973e-05 0)
(0.188447 2.06564e-05 0)
(0.188319 7.43895e-06 0)
(0.18821 -3.79927e-06 0)
(0.188126 -1.17062e-05 0)
(0.188063 -2.05694e-05 0)
(0.188017 -2.40153e-05 0)
(0.187987 -2.06181e-05 0)
(0.187964 -1.86228e-05 0)
(0.187944 -1.67856e-05 0)
(0.187926 -1.17029e-05 0)
(0.187907 -8.48629e-06 0)
(0.187887 -8.43027e-06 0)
(0.187869 -6.92788e-06 0)
(0.187851 -4.80316e-06 0)
(0.187835 -5.03859e-06 0)
(0.187819 -5.42491e-06 0)
(0.187806 -4.10147e-06 0)
(0.187794 -3.25556e-06 0)
(0.187782 -3.64819e-06 0)
(0.187771 -3.54801e-06 0)
(0.187761 -2.75936e-06 0)
(0.187752 -2.41645e-06 0)
(0.187743 -2.47556e-06 0)
(0.187736 -2.27718e-06 0)
(0.187728 -1.92508e-06 0)
(0.187722 -1.77841e-06 0)
(0.187716 -1.73896e-06 0)
(0.18771 -1.60068e-06 0)
(0.187705 -1.43437e-06 0)
(0.1877 -1.33718e-06 0)
(0.187696 -1.2797e-06 0)
(0.187692 -1.18161e-06 0)
(0.187688 -1.09446e-06 0)
(0.187685 -1.00957e-06 0)
(0.187682 -9.59122e-07 0)
(0.187679 -8.76824e-07 0)
(0.187677 -8.22357e-07 0)
(0.187675 -7.48257e-07 0)
(0.187673 -7.02044e-07 0)
(0.187671 -6.38941e-07 0)
(0.187669 -5.91176e-07 0)
(0.187668 -5.38881e-07 0)
(0.187666 -4.92828e-07 0)
(0.187665 -4.48328e-07 0)
(0.187664 -4.0462e-07 0)
(0.187663 -3.66414e-07 0)
(0.187662 -3.23578e-07 0)
(0.187661 -2.9217e-07 0)
(0.18766 -2.49723e-07 0)
(0.18766 -2.21567e-07 0)
(0.187659 -1.81257e-07 0)
(0.187658 -1.5618e-07 0)
(0.187658 -1.15907e-07 0)
(0.187657 -9.45632e-08 0)
(0.187657 -5.24804e-08 0)
(0.187656 -3.22359e-08 0)
(0.187656 9.33818e-09 0)
(0.187656 2.2919e-08 0)
(0.187655 7.02569e-08 0)
(0.187655 7.19317e-08 0)
(0.187654 1.28458e-07 0)
(0.19499 0.00681975 0)
(0.195541 0.0077457 0)
(0.19632 0.00915366 0)
(0.197404 0.00896923 0)
(0.198843 0.010286 0)
(0.200056 0.00982405 0)
(0.200871 0.00830824 0)
(0.20191 0.0104787 0)
(0.203189 0.00825711 0)
(0.203253 0.0074949 0)
(0.203349 0.00719418 0)
(0.203539 0.006964 0)
(0.203689 0.0058277 0)
(0.203863 0.00539582 0)
(0.203875 0.00526535 0)
(0.203665 0.00520898 0)
(0.20337 0.00463842 0)
(0.203319 0.0041415 0)
(0.203311 0.00386733 0)
(0.203165 0.00363205 0)
(0.20293 0.0034991 0)
(0.202557 0.00309399 0)
(0.202179 0.00255817 0)
(0.201947 0.00240552 0)
(0.201645 0.00213967 0)
(0.201269 0.001736 0)
(0.200914 0.0015273 0)
(0.200512 0.0012783 0)
(0.200067 0.000910598 0)
(0.199643 0.000664886 0)
(0.199228 0.000506315 0)
(0.198829 0.000354888 0)
(0.198484 0.000274014 0)
(0.198172 0.00024495 0)
(0.197866 0.000206546 0)
(0.197589 0.000169121 0)
(0.197359 0.000142285 0)
(0.197164 0.000118138 0)
(0.196994 0.000103737 0)
(0.196841 9.15774e-05 0)
(0.196697 7.02671e-05 0)
(0.196566 4.97217e-05 0)
(0.196454 3.28914e-05 0)
(0.19636 1.24464e-05 0)
(0.196285 1.09951e-06 0)
(0.196227 -1.43767e-06 0)
(0.196181 -3.81621e-06 0)
(0.19614 -4.59854e-06 0)
(0.196106 -8.40143e-08 0)
(0.196073 2.98256e-06 0)
(0.196041 2.3196e-06 0)
(0.196011 3.22935e-06 0)
(0.195983 4.88742e-06 0)
(0.195956 3.70015e-06 0)
(0.195932 2.29112e-06 0)
(0.195911 3.05511e-06 0)
(0.195891 3.41266e-06 0)
(0.195872 2.32054e-06 0)
(0.195856 1.82264e-06 0)
(0.195841 2.2327e-06 0)
(0.195826 2.19816e-06 0)
(0.195813 1.70805e-06 0)
(0.195801 1.53815e-06 0)
(0.19579 1.59303e-06 0)
(0.19578 1.44299e-06 0)
(0.19577 1.18246e-06 0)
(0.195762 1.0618e-06 0)
(0.195754 1.00107e-06 0)
(0.195747 8.79638e-07 0)
(0.19574 7.25498e-07 0)
(0.195734 6.40649e-07 0)
(0.195728 5.58772e-07 0)
(0.195723 4.91725e-07 0)
(0.195718 3.93685e-07 0)
(0.195714 3.50472e-07 0)
(0.19571 2.83799e-07 0)
(0.195707 2.53898e-07 0)
(0.195704 1.99314e-07 0)
(0.195701 1.76083e-07 0)
(0.195698 1.4268e-07 0)
(0.195696 1.22703e-07 0)
(0.195694 1.02992e-07 0)
(0.195692 8.81058e-08 0)
(0.19569 7.88054e-08 0)
(0.195688 6.83301e-08 0)
(0.195687 6.89542e-08 0)
(0.195686 6.06632e-08 0)
(0.195684 6.97213e-08 0)
(0.195683 6.62063e-08 0)
(0.195682 7.98614e-08 0)
(0.195681 8.03259e-08 0)
(0.19568 1.00128e-07 0)
(0.19568 1.02899e-07 0)
(0.195679 1.28734e-07 0)
(0.195678 1.35196e-07 0)
(0.195678 1.63952e-07 0)
(0.195677 1.69999e-07 0)
(0.195677 2.05852e-07 0)
(0.195676 2.07298e-07 0)
(0.195675 2.55168e-07 0)
(0.195653 0.00626246 0)
(0.196164 0.007427 0)
(0.196799 0.00856655 0)
(0.197691 0.00815281 0)
(0.198826 0.00998728 0)
(0.199956 0.00891567 0)
(0.200691 0.00811195 0)
(0.20168 0.00933765 0)
(0.202926 0.00794666 0)
(0.202983 0.00741362 0)
(0.202986 0.00721441 0)
(0.203293 0.00667207 0)
(0.203661 0.00581715 0)
(0.203798 0.00534766 0)
(0.203793 0.00528945 0)
(0.20367 0.00512746 0)
(0.203591 0.00482106 0)
(0.203748 0.00414082 0)
(0.203847 0.00391216 0)
(0.203754 0.00326212 0)
(0.203642 0.0036292 0)
(0.203548 0.00339688 0)
(0.203512 0.00252917 0)
(0.203465 0.00243981 0)
(0.203251 0.00225518 0)
(0.203048 0.00181054 0)
(0.202921 0.00162244 0)
(0.2027 0.00140645 0)
(0.202435 0.00105646 0)
(0.202191 0.00084294 0)
(0.201897 0.000684838 0)
(0.201579 0.000508138 0)
(0.201313 0.000414453 0)
(0.201077 0.000379051 0)
(0.200838 0.000328138 0)
(0.20062 0.000276966 0)
(0.200437 0.000236074 0)
(0.200276 0.000197209 0)
(0.200135 0.000173783 0)
(0.200006 0.000157894 0)
(0.19988 0.000131995 0)
(0.199761 0.000105433 0)
(0.199655 8.19769e-05 0)
(0.199559 5.43395e-05 0)
(0.199474 3.48413e-05 0)
(0.199404 2.67648e-05 0)
(0.199343 1.96939e-05 0)
(0.199289 1.50904e-05 0)
(0.199243 1.77182e-05 0)
(0.199201 1.96646e-05 0)
(0.19916 1.76672e-05 0)
(0.199123 1.75483e-05 0)
(0.199089 1.83788e-05 0)
(0.199057 1.59104e-05 0)
(0.199027 1.31491e-05 0)
(0.199001 1.30251e-05 0)
(0.198977 1.2605e-05 0)
(0.198954 1.05636e-05 0)
(0.198933 9.23341e-06 0)
(0.198915 9.05825e-06 0)
(0.198898 8.48025e-06 0)
(0.198882 7.41345e-06 0)
(0.198868 6.73721e-06 0)
(0.198854 6.37158e-06 0)
(0.198842 5.81453e-06 0)
(0.19883 5.15223e-06 0)
(0.19882 4.68059e-06 0)
(0.198811 4.30864e-06 0)
(0.198802 3.89034e-06 0)
(0.198794 3.4526e-06 0)
(0.198787 3.12104e-06 0)
(0.19878 2.81119e-06 0)
(0.198774 2.53712e-06 0)
(0.198768 2.24032e-06 0)
(0.198763 2.0265e-06 0)
(0.198758 1.79686e-06 0)
(0.198754 1.6252e-06 0)
(0.19875 1.43524e-06 0)
(0.198747 1.29359e-06 0)
(0.198744 1.15013e-06 0)
(0.198741 1.0318e-06 0)
(0.198738 9.22165e-07 0)
(0.198736 8.26231e-07 0)
(0.198734 7.43923e-07 0)
(0.198732 6.66883e-07 0)
(0.19873 6.08709e-07 0)
(0.198728 5.46254e-07 0)
(0.198727 5.07848e-07 0)
(0.198725 4.61109e-07 0)
(0.198724 4.3655e-07 0)
(0.198723 4.0301e-07 0)
(0.198722 3.92586e-07 0)
(0.198721 3.69313e-07 0)
(0.19872 3.70886e-07 0)
(0.19872 3.5846e-07 0)
(0.198719 3.67939e-07 0)
(0.198718 3.62394e-07 0)
(0.198718 3.81513e-07 0)
(0.198717 3.79726e-07 0)
(0.198716 4.11448e-07 0)
(0.19616 0.00608718 0)
(0.196657 0.00708552 0)
(0.197215 0.00819748 0)
(0.197922 0.00770033 0)
(0.198912 0.00918102 0)
(0.199923 0.00835499 0)
(0.200502 0.00782487 0)
(0.201471 0.00853511 0)
(0.202695 0.00758215 0)
(0.202704 0.00714037 0)
(0.202693 0.00705584 0)
(0.203101 0.0066167 0)
(0.203498 0.00550555 0)
(0.20351 0.00535175 0)
(0.203483 0.00536913 0)
(0.203415 0.00528064 0)
(0.203488 0.00469274 0)
(0.203745 0.00403861 0)
(0.203791 0.00370265 0)
(0.203716 0.00373186 0)
(0.203563 0.00355342 0)
(0.203502 0.00316026 0)
(0.203659 0.00268543 0)
(0.203678 0.00247492 0)
(0.203413 0.00225406 0)
(0.203253 0.00191247 0)
(0.203219 0.00176696 0)
(0.203042 0.00151937 0)
(0.202866 0.00113725 0)
(0.202736 0.000954583 0)
(0.202513 0.000808348 0)
(0.202242 0.000625121 0)
(0.202025 0.000528999 0)
(0.20184 0.000486525 0)
(0.20165 0.000422452 0)
(0.201479 0.000361988 0)
(0.201331 0.000312666 0)
(0.201192 0.00026219 0)
(0.201069 0.000231604 0)
(0.200961 0.000213715 0)
(0.200857 0.000184522 0)
(0.200759 0.000153827 0)
(0.200669 0.000127135 0)
(0.200582 9.53693e-05 0)
(0.2005 7.08131e-05 0)
(0.200428 5.92623e-05 0)
(0.20036 4.83613e-05 0)
(0.200299 3.97178e-05 0)
(0.200246 3.97089e-05 0)
(0.200199 3.96841e-05 0)
(0.200155 3.57185e-05 0)
(0.200116 3.42352e-05 0)
(0.200079 3.40244e-05 0)
(0.200044 3.00933e-05 0)
(0.200012 2.58334e-05 0)
(0.199984 2.47019e-05 0)
(0.199958 2.33601e-05 0)
(0.199933 2.01933e-05 0)
(0.199911 1.78728e-05 0)
(0.199891 1.69938e-05 0)
(0.199873 1.57705e-05 0)
(0.199855 1.40262e-05 0)
(0.19984 1.2758e-05 0)
(0.199825 1.19012e-05 0)
(0.199812 1.08692e-05 0)
(0.1998 9.74032e-06 0)
(0.199789 8.86349e-06 0)
(0.199779 8.13257e-06 0)
(0.199769 7.36966e-06 0)
(0.199761 6.60392e-06 0)
(0.199753 5.98826e-06 0)
(0.199746 5.4162e-06 0)
(0.199739 4.90233e-06 0)
(0.199733 4.37645e-06 0)
(0.199727 3.96557e-06 0)
(0.199722 3.54875e-06 0)
(0.199718 3.21293e-06 0)
(0.199714 2.86674e-06 0)
(0.19971 2.58822e-06 0)
(0.199707 2.31779e-06 0)
(0.199703 2.08573e-06 0)
(0.199701 1.87189e-06 0)
(0.199698 1.68237e-06 0)
(0.199696 1.51511e-06 0)
(0.199694 1.36136e-06 0)
(0.199692 1.23437e-06 0)
(0.19969 1.1096e-06 0)
(0.199688 1.01541e-06 0)
(0.199687 9.18877e-07 0)
(0.199686 8.49384e-07 0)
(0.199684 7.76262e-07 0)
(0.199683 7.30385e-07 0)
(0.199682 6.76037e-07 0)
(0.199682 6.49622e-07 0)
(0.199681 6.13896e-07 0)
(0.19968 6.01334e-07 0)
(0.199679 5.80334e-07 0)
(0.199679 5.81033e-07 0)
(0.199678 5.73065e-07 0)
(0.199677 5.86468e-07 0)
(0.196612 0.00546571 0)
(0.197037 0.00720979 0)
(0.197586 0.00748244 0)
(0.198168 0.00695396 0)
(0.198966 0.00897858 0)
(0.199939 0.0078523 0)
(0.200421 0.00723127 0)
(0.201189 0.00821882 0)
(0.202386 0.00741945 0)
(0.202438 0.00705854 0)
(0.202515 0.00687771 0)
(0.203051 0.00621587 0)
(0.203324 0.00545408 0)
(0.203186 0.00533239 0)
(0.203085 0.00544739 0)
(0.203149 0.00516992 0)
(0.203466 0.00448124 0)
(0.203653 0.00392213 0)
(0.203569 0.00399399 0)
(0.203483 0.00362462 0)
(0.20338 0.00362484 0)
(0.203461 0.00314525 0)
(0.203555 0.00253309 0)
(0.203426 0.00290289 0)
(0.203305 0.00224291 0)
(0.203297 0.00184525 0)
(0.203192 0.00177565 0)
(0.202962 0.00154352 0)
(0.202819 0.00117466 0)
(0.202754 0.00105643 0)
(0.202563 0.000923095 0)
(0.202319 0.000731128 0)
(0.202132 0.000630506 0)
(0.201973 0.000577852 0)
(0.201806 0.000501413 0)
(0.201659 0.000437752 0)
(0.201527 0.000386082 0)
(0.201393 0.000325402 0)
(0.201276 0.000285754 0)
(0.20118 0.000263165 0)
(0.201091 0.000229036 0)
(0.201009 0.000195172 0)
(0.200932 0.000167842 0)
(0.200852 0.000134404 0)
(0.200773 0.000107292 0)
(0.2007 9.38497e-05 0)
(0.200631 7.98053e-05 0)
(0.200567 6.71686e-05 0)
(0.200513 6.41529e-05 0)
(0.200464 6.15909e-05 0)
(0.200419 5.51708e-05 0)
(0.200379 5.20918e-05 0)
(0.200342 5.0733e-05 0)
(0.200306 4.52238e-05 0)
(0.200274 3.94153e-05 0)
(0.200246 3.72976e-05 0)
(0.200219 3.50059e-05 0)
(0.200193 3.06077e-05 0)
(0.20017 2.72008e-05 0)
(0.200151 2.55608e-05 0)
(0.200131 2.36364e-05 0)
(0.200114 2.11508e-05 0)
(0.200098 1.92402e-05 0)
(0.200083 1.78561e-05 0)
(0.20007 1.6309e-05 0)
(0.200057 1.46728e-05 0)
(0.200046 1.33619e-05 0)
(0.200035 1.22474e-05 0)
(0.200026 1.11108e-05 0)
(0.200017 9.99033e-06 0)
(0.200009 9.0707e-06 0)
(0.200001 8.21815e-06 0)
(0.199995 7.44536e-06 0)
(0.199989 6.67273e-06 0)
(0.199983 6.05042e-06 0)
(0.199978 5.43311e-06 0)
(0.199973 4.92043e-06 0)
(0.199969 4.40635e-06 0)
(0.199965 3.98089e-06 0)
(0.199962 3.57396e-06 0)
(0.199959 3.21966e-06 0)
(0.199956 2.89364e-06 0)
(0.199953 2.60367e-06 0)
(0.199951 2.34476e-06 0)
(0.199949 2.10882e-06 0)
(0.199947 1.90735e-06 0)
(0.199945 1.71586e-06 0)
(0.199943 1.56126e-06 0)
(0.199942 1.41126e-06 0)
(0.19994 1.2932e-06 0)
(0.199939 1.17727e-06 0)
(0.199938 1.0934e-06 0)
(0.199937 1.00488e-06 0)
(0.199936 9.49027e-07 0)
(0.199935 8.86831e-07 0)
(0.199935 8.51862e-07 0)
(0.199934 8.12257e-07 0)
(0.199933 7.95091e-07 0)
(0.199933 7.78188e-07 0)
(0.199932 7.73232e-07 0)
(0.19695 0.00549338 0)
(0.197388 0.00688583 0)
(0.197973 0.00703212 0)
(0.198447 0.00692929 0)
(0.199051 0.00788905 0)
(0.199945 0.0078344 0)
(0.200453 0.00668606 0)
(0.201011 0.00759963 0)
(0.201865 0.00726074 0)
(0.202181 0.00677736 0)
(0.202412 0.00669486 0)
(0.202967 0.00601632 0)
(0.203026 0.00558349 0)
(0.202867 0.00538364 0)
(0.202858 0.0054237 0)
(0.203049 0.00503833 0)
(0.20339 0.00433014 0)
(0.203465 0.00400887 0)
(0.203357 0.0038734 0)
(0.203265 0.00371881 0)
(0.203245 0.00360253 0)
(0.20338 0.0031044 0)
(0.203337 0.00275913 0)
(0.203132 0.00238861 0)
(0.203218 0.00225952 0)
(0.203281 0.00209833 0)
(0.203093 0.00200616 0)
(0.20282 0.00172439 0)
(0.202701 0.00123581 0)
(0.20265 0.0011541 0)
(0.202468 0.00103155 0)
(0.202255 0.000837851 0)
(0.202105 0.000734167 0)
(0.201961 0.000665311 0)
(0.201802 0.000572449 0)
(0.201668 0.000508256 0)
(0.201545 0.000457468 0)
(0.201414 0.000387992 0)
(0.201301 0.000339288 0)
(0.201209 0.000310432 0)
(0.201124 0.000269593 0)
(0.201049 0.000233057 0)
(0.20098 0.000207181 0)
(0.200904 0.000173723 0)
(0.200828 0.000144985 0)
(0.200757 0.000129905 0)
(0.200687 0.000112582 0)
(0.200624 9.57841e-05 0)
(0.20057 8.96559e-05 0)
(0.200521 8.44177e-05 0)
(0.200476 7.53914e-05 0)
(0.200436 7.06789e-05 0)
(0.2004 6.81432e-05 0)
(0.200363 6.09178e-05 0)
(0.200332 5.34882e-05 0)
(0.200304 5.04438e-05 0)
(0.200276 4.72262e-05 0)
(0.20025 4.15199e-05 0)
(0.200228 3.69533e-05 0)
(0.200208 3.45285e-05 0)
(0.200189 3.18771e-05 0)
(0.200171 2.86041e-05 0)
(0.200155 2.60169e-05 0)
(0.20014 2.40866e-05 0)
(0.200127 2.1997e-05 0)
(0.200114 1.98229e-05 0)
(0.200103 1.80616e-05 0)
(0.200092 1.65501e-05 0)
(0.200083 1.50188e-05 0)
(0.200074 1.35243e-05 0)
(0.200066 1.22895e-05 0)
(0.200058 1.11457e-05 0)
(0.200052 1.01009e-05 0)
(0.200046 9.06951e-06 0)
(0.20004 8.22704e-06 0)
(0.200035 7.401e-06 0)
(0.20003 6.70333e-06 0)
(0.200026 6.01381e-06 0)
(0.200022 5.43513e-06 0)
(0.200019 4.88564e-06 0)
(0.200015 4.40383e-06 0)
(0.200013 3.96048e-06 0)
(0.20001 3.56584e-06 0)
(0.200008 3.21097e-06 0)
(0.200005 2.88947e-06 0)
(0.200003 2.60994e-06 0)
(0.200002 2.34894e-06 0)
(0.2 2.1312e-06 0)
(0.199999 1.92518e-06 0)
(0.199997 1.75669e-06 0)
(0.199996 1.59558e-06 0)
(0.199995 1.4725e-06 0)
(0.199994 1.34762e-06 0)
(0.199993 1.26173e-06 0)
(0.199992 1.17096e-06 0)
(0.199991 1.11377e-06 0)
(0.199991 1.05322e-06 0)
(0.19999 1.01909e-06 0)
(0.19999 9.90981e-07 0)
(0.199989 9.68195e-07 0)
(0.197316 0.00517917 0)
(0.197776 0.00639932 0)
(0.198302 0.00683451 0)
(0.198676 0.00627595 0)
(0.199185 0.00738355 0)
(0.199991 0.00781932 0)
(0.200496 0.00600929 0)
(0.200811 0.00704457 0)
(0.201677 0.00725582 0)
(0.202049 0.00645372 0)
(0.202158 0.0064318 0)
(0.202597 0.00586291 0)
(0.20265 0.00542154 0)
(0.202649 0.00542755 0)
(0.202787 0.00520947 0)
(0.203 0.00514964 0)
(0.203197 0.00413618 0)
(0.203204 0.00396884 0)
(0.203153 0.00390556 0)
(0.203103 0.00376721 0)
(0.203129 0.00363371 0)
(0.203208 0.00297542 0)
(0.203147 0.00283275 0)
(0.203043 0.00256849 0)
(0.203068 0.00242207 0)
(0.203094 0.00210338 0)
(0.202925 0.00199831 0)
(0.202703 0.00171789 0)
(0.202638 0.00128252 0)
(0.202553 0.00123202 0)
(0.202351 0.00110805 0)
(0.202164 0.000916066 0)
(0.202051 0.000826547 0)
(0.201917 0.000753068 0)
(0.201762 0.000648103 0)
(0.201636 0.000582864 0)
(0.201522 0.000531529 0)
(0.201399 0.000452552 0)
(0.201294 0.000396683 0)
(0.201203 0.000362355 0)
(0.201113 0.000311742 0)
(0.201036 0.000269461 0)
(0.20097 0.000243995 0)
(0.2009 0.000210841 0)
(0.200829 0.000181927 0)
(0.200762 0.000166227 0)
(0.200694 0.000146027 0)
(0.20063 0.000125163 0)
(0.200577 0.000115901 0)
(0.200528 0.000107822 0)
(0.200483 9.60314e-05 0)
(0.200444 8.97659e-05 0)
(0.200408 8.61287e-05 0)
(0.200371 7.70276e-05 0)
(0.20034 6.78721e-05 0)
(0.200313 6.39985e-05 0)
(0.200286 5.99182e-05 0)
(0.200259 5.2824e-05 0)
(0.200237 4.70194e-05 0)
(0.200218 4.38078e-05 0)
(0.200198 4.04246e-05 0)
(0.20018 3.63243e-05 0)
(0.200165 3.30297e-05 0)
(0.20015 3.05422e-05 0)
(0.200137 2.78867e-05 0)
(0.200124 2.51459e-05 0)
(0.200113 2.29233e-05 0)
(0.200102 2.10057e-05 0)
(0.200093 1.90598e-05 0)
(0.200084 1.71741e-05 0)
(0.200076 1.56167e-05 0)
(0.200069 1.4174e-05 0)
(0.200062 1.28454e-05 0)
(0.200056 1.1545e-05 0)
(0.20005 1.04758e-05 0)
(0.200045 9.43485e-06 0)
(0.200041 8.54556e-06 0)
(0.200036 7.67444e-06 0)
(0.200033 6.93766e-06 0)
(0.200029 6.24089e-06 0)
(0.200026 5.62736e-06 0)
(0.200023 5.06261e-06 0)
(0.200021 4.55999e-06 0)
(0.200018 4.10579e-06 0)
(0.200016 3.69603e-06 0)
(0.200014 3.33574e-06 0)
(0.200012 3.0029e-06 0)
(0.200011 2.72011e-06 0)
(0.200009 2.45581e-06 0)
(0.200008 2.23579e-06 0)
(0.200007 2.02726e-06 0)
(0.200006 1.86443e-06 0)
(0.200005 1.70126e-06 0)
(0.200004 1.58499e-06 0)
(0.200003 1.46413e-06 0)
(0.200002 1.38467e-06 0)
(0.200001 1.30157e-06 0)
(0.200001 1.25099e-06 0)
(0.2 1.21012e-06 0)
(0.199999 1.16986e-06 0)
(0.197724 0.00501871 0)
(0.198119 0.00598071 0)
(0.19853 0.00670819 0)
(0.198912 0.00576083 0)
(0.199285 0.00713632 0)
(0.199951 0.00733494 0)
(0.200538 0.00565287 0)
(0.200717 0.00679635 0)
(0.201432 0.00725537 0)
(0.20194 0.0058164 0)
(0.201879 0.00621398 0)
(0.202292 0.00595118 0)
(0.202453 0.00521861 0)
(0.202446 0.00535955 0)
(0.202649 0.00531746 0)
(0.202917 0.00467973 0)
(0.203006 0.00423393 0)
(0.202946 0.00402029 0)
(0.202913 0.00394117 0)
(0.202959 0.00375138 0)
(0.203041 0.00346577 0)
(0.203079 0.00311415 0)
(0.203005 0.00290395 0)
(0.20285 0.00252806 0)
(0.202863 0.00231538 0)
(0.202954 0.00213353 0)
(0.202789 0.00220837 0)
(0.202542 0.00166841 0)
(0.20255 0.0014611 0)
(0.202455 0.00135173 0)
(0.202253 0.00118869 0)
(0.2021 0.000974759 0)
(0.202012 0.000898868 0)
(0.201873 0.000825176 0)
(0.20171 0.000714361 0)
(0.201586 0.000649345 0)
(0.201476 0.000592467 0)
(0.201365 0.000500533 0)
(0.201278 0.000443821 0)
(0.201195 0.000412984 0)
(0.201101 0.00035755 0)
(0.201018 0.000309633 0)
(0.200949 0.000282328 0)
(0.20088 0.000247264 0)
(0.200814 0.000217653 0)
(0.200753 0.000202191 0)
(0.200688 0.000180084 0)
(0.200626 0.000155753 0)
(0.200573 0.000143495 0)
(0.200523 0.000132251 0)
(0.200478 0.000117192 0)
(0.200441 0.000109283 0)
(0.200405 0.000104629 0)
(0.200369 9.34414e-05 0)
(0.200338 8.24152e-05 0)
(0.200312 7.78573e-05 0)
(0.200285 7.30225e-05 0)
(0.200259 6.44483e-05 0)
(0.200237 5.73083e-05 0)
(0.200218 5.33209e-05 0)
(0.200198 4.92183e-05 0)
(0.20018 4.42546e-05 0)
(0.200165 4.0233e-05 0)
(0.200151 3.71882e-05 0)
(0.200137 3.3945e-05 0)
(0.200125 3.06114e-05 0)
(0.200114 2.79241e-05 0)
(0.200103 2.55958e-05 0)