/*--------------------------------*- C++ -*----------------------------------*\
| =========                 |                                                 |
| \\      /  F ield         | OpenFOAM: The Open Source CFD Toolbox           |
|  \\    /   O peration     | Version:  2.3.0                                 |
|   \\  /    A nd           | Web:      www.OpenFOAM.org                      |
|    \\/     M anipulation  |                                                 |
\*---------------------------------------------------------------------------*/
FoamFile
{
    version     2.0;
    format      ascii;
    class       surfaceScalarField;
    location    "0.05";
    object      phi;
}
// * * * * * * * * * * * * * * * * * * * * * * * * * * * * * * * * * * * * * //

dimensions      [0 3 -1 0 0 0 0];

internalField   nonuniform List<scalar> 
2863
(
2.82039e-08
2.89148e-09
-3.10953e-08
2.53255e-08
2.87833e-09
2.26275e-08
2.69806e-09
2.01462e-08
2.48126e-09
1.79002e-08
2.24603e-09
1.59021e-08
1.99804e-09
1.41561e-08
1.74607e-09
1.26576e-08
1.49852e-09
1.1395e-08
1.26254e-09
1.03512e-08
1.04385e-09
9.50473e-09
8.4643e-10
8.8327e-09
6.72032e-10
8.31246e-09
5.20237e-10
7.92335e-09
3.8911e-10
7.64716e-09
2.76194e-10
7.46902e-09
1.78134e-10
7.38099e-09
8.80399e-11
7.37162e-09
9.3646e-12
7.40876e-09
-3.71392e-11
7.4637e-09
-5.49369e-11
7.5216e-09
-5.79052e-11
7.57489e-09
-5.32925e-11
7.62051e-09
-4.56208e-11
7.65794e-09
-3.74261e-11
7.68783e-09
-2.98921e-11
7.7113e-09
-2.34655e-11
7.72953e-09
-1.82266e-11
7.74361e-09
-1.40831e-11
7.75449e-09
-1.08814e-11
7.76293e-09
-8.4437e-12
7.76954e-09
-6.6026e-12
7.77475e-09
-5.21464e-12
7.77891e-09
-4.16396e-12
7.78228e-09
-3.36118e-12
7.78502e-09
-2.73961e-12
7.78727e-09
-2.25067e-12
7.78913e-09
-1.85971e-12
7.79067e-09
-1.54245e-12
7.79195e-09
-1.28187e-12
7.79302e-09
-1.06594e-12
7.7939e-09
-8.8595e-13
7.79464e-09
-7.35455e-13
7.79525e-09
-6.0948e-13
7.79575e-09
-5.04062e-13
7.79617e-09
-4.15957e-13
7.79651e-09
-3.4246e-13
7.79679e-09
-2.81283e-13
7.79702e-09
-2.30481e-13
7.79721e-09
-1.88389e-13
7.79736e-09
-1.53594e-13
7.79749e-09
-1.24891e-13
7.79759e-09
-1.01264e-13
7.79767e-09
-8.18576e-14
7.79774e-09
-6.59545e-14
7.79779e-09
-5.29515e-14
7.79783e-09
-4.23433e-14
7.79787e-09
-3.37068e-14
7.79789e-09
-2.66894e-14
7.79791e-09
-2.09988e-14
7.79793e-09
-1.63943e-14
7.79794e-09
-1.26783e-14
7.79795e-09
-9.68874e-15
7.79796e-09
-7.29237e-15
7.79797e-09
-5.37932e-15
7.79797e-09
-3.85741e-15
7.79797e-09
-2.65024e-15
7.79797e-09
-1.69792e-15
7.79797e-09
-9.50958e-16
7.79797e-09
-3.65448e-16
7.79797e-09
4.86529e-17
7.79797e-09
3.12343e-16
7.79797e-09
5.1998e-16
7.79797e-09
7.12791e-16
7.79797e-09
8.92073e-16
7.79797e-09
1.0494e-15
7.79797e-09
1.1792e-15
7.79797e-09
1.28079e-15
7.79797e-09
1.35412e-15
7.79797e-09
1.40628e-15
7.79796e-09
1.43646e-15
7.79796e-09
1.45575e-15
7.79796e-09
1.45925e-15
7.79796e-09
1.45897e-15
7.79796e-09
1.44849e-15
7.79796e-09
1.43528e-15
7.79796e-09
1.41958e-15
7.79795e-09
1.39682e-15
7.79795e-09
1.37921e-15
7.79795e-09
1.35232e-15
7.79795e-09
1.32951e-15
7.79795e-09
1.30529e-15
7.79795e-09
1.27428e-15
7.79795e-09
1.25224e-15
7.79795e-09
1.21771e-15
7.79794e-09
1.1883e-15
7.79794e-09
1.15615e-15
7.79794e-09
1.11093e-15
7.79794e-09
1.07271e-15
7.79794e-09
9.91293e-16
1.50282e-15
3.61466e-08
3.15072e-09
-3.64059e-08
3.55658e-08
3.45914e-09
3.47458e-08
3.51806e-09
3.37671e-08
3.45994e-09
3.26887e-08
3.32443e-09
3.15603e-08
3.12648e-09
3.04233e-08
2.88304e-09
2.9311e-08
2.61084e-09
2.82495e-08
2.32405e-09
2.72594e-08
2.03396e-09
2.63569e-08
1.74888e-09
2.55551e-08
1.47388e-09
2.4864e-08
1.21133e-09
2.42909e-08
9.62204e-10
2.38397e-08
7.27418e-10
2.35091e-08
5.08721e-10
2.32857e-08
3.11445e-10
2.31522e-08
1.42853e-10
2.31028e-08
1.22146e-11
2.31228e-08
-7.494e-11
2.31827e-08
-1.17812e-10
2.32607e-08
-1.31244e-10
2.33422e-08
-1.271e-10
2.34185e-08
-1.13742e-10
2.34853e-08
-9.67008e-11
2.35412e-08
-7.9322e-11
2.35864e-08
-6.34204e-11
2.36221e-08
-4.98076e-11
2.36499e-08
-3.86791e-11
2.36713e-08
-2.98777e-11
2.36878e-08
-2.30799e-11
2.37005e-08
-1.79122e-11
2.37103e-08
-1.40169e-11
2.37181e-08
-1.10851e-11
2.37242e-08
-8.86726e-12
2.37291e-08
-7.17144e-12
2.37331e-08
-5.85561e-12
2.37364e-08
-4.81757e-12
2.37391e-08
-3.9852e-12
2.37413e-08
-3.30807e-12
2.37432e-08
-2.7509e-12
2.37447e-08
-2.28864e-12
2.3746e-08
-1.90313e-12
2.37471e-08
-1.58072e-12
2.3748e-08
-1.31082e-12
2.37488e-08
-1.08495e-12
2.37494e-08
-8.96111e-13
2.37499e-08
-7.38488e-13
2.37503e-08
-6.0715e-13
2.37506e-08
-4.97924e-13
2.37509e-08
-4.07263e-13
2.37512e-08
-3.32163e-13
2.37513e-08
-2.70076e-13
2.37515e-08
-2.18852e-13
2.37516e-08
-1.76674e-13
2.37517e-08
-1.42014e-13
2.37518e-08
-1.13589e-13
2.37519e-08
-9.03243e-14
2.37519e-08
-7.13245e-14
2.37519e-08
-5.58432e-14
2.3752e-08
-4.32603e-14
2.3752e-08
-3.30612e-14
2.3752e-08
-2.48183e-14
2.3752e-08
-1.81771e-14
2.3752e-08
-1.28429e-14
2.3752e-08
-8.57324e-15
2.37521e-08
-5.17295e-15
2.37521e-08
-2.49532e-15
2.37521e-08
-4.94632e-16
2.37521e-08
9.65119e-16
2.37521e-08
2.11456e-15
2.3752e-08
3.07196e-15
2.3752e-08
3.89102e-15
2.3752e-08
4.58048e-15
2.3752e-08
5.14225e-15
2.3752e-08
5.58114e-15
2.3752e-08
5.90878e-15
2.3752e-08
6.13871e-15
2.3752e-08
6.28901e-15
2.3752e-08
6.37407e-15
2.3752e-08
6.40937e-15
2.3752e-08
6.40634e-15
2.3752e-08
6.37323e-15
2.3752e-08
6.32065e-15
2.3752e-08
6.24776e-15
2.3752e-08
6.16854e-15
2.3752e-08
6.07336e-15
2.3752e-08
5.97823e-15
2.3752e-08
5.87303e-15
2.3752e-08
5.76484e-15
2.3752e-08
5.65646e-15
2.3752e-08
5.53755e-15
2.3752e-08
5.42303e-15
2.37519e-08
5.29786e-15
2.37519e-08
5.16707e-15
2.37519e-08
5.0323e-15
2.37519e-08
4.8731e-15
2.37519e-08
4.70281e-15
2.37519e-08
4.58283e-15
4.26824e-15
4.0828e-08
2.96083e-09
-4.06381e-08
4.09412e-08
3.34592e-09
4.09322e-08
3.52703e-09
4.08051e-08
3.58703e-09
4.05702e-08
3.5594e-09
4.02422e-08
3.45447e-09
3.98408e-08
3.28439e-09
3.93878e-08
3.0639e-09
3.89049e-08
2.80693e-09
3.84135e-08
2.52532e-09
3.7934e-08
2.22842e-09
3.74848e-08
1.92302e-09
3.70821e-08
1.61405e-09
3.67384e-08
1.30596e-09
3.64615e-08
1.00432e-09
3.62532e-08
7.16977e-10
3.61094e-08
4.55246e-10
3.60193e-08
2.32979e-10
3.59703e-08
6.11456e-11
3.5959e-08
-6.36243e-11
3.59785e-08
-1.3732e-10
3.60207e-08
-1.73385e-10
3.60765e-08
-1.82953e-10
3.61384e-08
-1.75598e-10
3.62003e-08
-1.58627e-10
3.62582e-08
-1.37251e-10
3.63098e-08
-1.14955e-10
3.63539e-08
-9.38855e-11
3.63904e-08
-7.52039e-11
3.64199e-08
-5.93803e-11
3.64432e-08
-4.64367e-11
3.64615e-08
-3.61315e-11
3.64755e-08
-2.80945e-11
3.64864e-08
-2.19174e-11
3.64947e-08
-1.72112e-11
3.65012e-08
-1.36353e-11
3.65062e-08
-1.09102e-11
3.65102e-08
-8.81625e-12
3.65134e-08
-7.18789e-12
3.6516e-08
-5.90339e-12
3.65182e-08
-4.87523e-12
3.65199e-08
-4.04119e-12
3.65214e-08
-3.35709e-12
3.65226e-08
-2.79128e-12
3.65236e-08
-2.32062e-12
3.65244e-08
-1.92777e-12
3.65251e-08
-1.5993e-12
3.65257e-08
-1.32454e-12
3.65262e-08
-1.09481e-12
3.65266e-08
-9.02925e-13
3.65269e-08
-7.42871e-13
3.65272e-08
-6.09582e-13
3.65274e-08
-4.98778e-13
3.65276e-08
-4.06833e-13
3.65278e-08
-3.30679e-13
3.65279e-08
-2.67724e-13
3.6528e-08
-2.15779e-13
3.65281e-08
-1.73005e-13
3.65282e-08
-1.37857e-13
3.65282e-08
-1.0904e-13
3.65283e-08
-8.54705e-14
3.65283e-08
-6.62413e-14
3.65283e-08
-5.0595e-14
3.65283e-08
-3.78994e-14
3.65284e-08
-2.76272e-14
3.65284e-08
-1.93422e-14
3.65284e-08
-1.26869e-14
3.65284e-08
-7.37487e-15
3.65284e-08
-3.18112e-15
3.65284e-08
5.03298e-17
3.65284e-08
2.57578e-15
3.65284e-08
4.62194e-15
3.65284e-08
6.29609e-15
3.65284e-08
7.6469e-15
3.65284e-08
8.71142e-15
3.65284e-08
9.52411e-15
3.65284e-08
1.01217e-14
3.65284e-08
1.05398e-14
3.65284e-08
1.08125e-14
3.65283e-08
1.09712e-14
3.65283e-08
1.10393e-14
3.65283e-08
1.1042e-14
3.65283e-08
1.0989e-14
3.65283e-08
1.09024e-14
3.65283e-08
1.078e-14
3.65283e-08
1.06428e-14
3.65283e-08
1.04827e-14
3.65283e-08
1.03145e-14
3.65283e-08
1.01356e-14
3.65283e-08
9.94634e-15
3.65283e-08
9.75565e-15
3.65283e-08
9.55257e-15
3.65283e-08
9.34581e-15
3.65283e-08
9.13121e-15
3.65283e-08
8.89858e-15
3.65283e-08
8.65807e-15
3.65283e-08
8.38253e-15
3.65283e-08
8.07594e-15
3.65283e-08
7.7465e-15
6.59845e-15
4.53451e-08
2.73414e-09
-4.51184e-08
4.55935e-08
3.09752e-09
4.58108e-08
3.30972e-09
4.59824e-08
3.41545e-09
4.61011e-08
3.44069e-09
4.61622e-08
3.39332e-09
4.61663e-08
3.28033e-09
4.61184e-08
3.11177e-09
4.60271e-08
2.89822e-09
4.59031e-08
2.64929e-09
4.57584e-08
2.37319e-09
4.56046e-08
2.07681e-09
4.54523e-08
1.76635e-09
4.53097e-08
1.44856e-09
4.51821e-08
1.13196e-09
4.50715e-08
8.27563e-10
4.49777e-08
5.48989e-10
4.48998e-08
3.10919e-10
4.48368e-08
1.24105e-10
4.47863e-08
-1.31273e-11
4.47524e-08
-1.03403e-10
4.47346e-08
-1.55532e-10
4.47305e-08
-1.78935e-10
4.47372e-08
-1.82209e-10
4.4751e-08
-1.72474e-10
4.4769e-08
-1.55262e-10
4.47887e-08
-1.3463e-10
4.48082e-08
-1.13378e-10
4.48263e-08
-9.32919e-11
4.48423e-08
-7.53767e-11
4.48559e-08
-6.00686e-11
4.48672e-08
-4.74177e-11
4.48763e-08
-3.72345e-11
4.48836e-08
-2.9203e-11
4.48894e-08
-2.29616e-11
4.48939e-08
-1.81555e-11
4.48974e-08
-1.44677e-11
4.49003e-08
-1.16324e-11
4.49025e-08
-9.43757e-12
4.49043e-08
-7.72036e-12
4.49058e-08
-6.35939e-12
4.4907e-08
-5.26617e-12
4.4908e-08
-4.37696e-12
4.49089e-08
-3.646e-12
4.49096e-08
-3.04019e-12
4.49102e-08
-2.53518e-12
4.49107e-08
-2.11264e-12
4.49112e-08
-1.7584e-12
4.49115e-08
-1.4612e-12
4.49119e-08
-1.21189e-12
4.49121e-08
-1.00293e-12
4.49123e-08
-8.28002e-13
4.49125e-08
-6.8178e-13
4.49127e-08
-5.59761e-13
4.49128e-08
-4.58117e-13
4.49129e-08
-3.73601e-13
4.4913e-08
-3.03461e-13
4.49131e-08
-2.45368e-13
4.49131e-08
-1.97354e-13
4.49132e-08
-1.57757e-13
4.49132e-08
-1.25179e-13
4.49132e-08
-9.84416e-14
4.49133e-08
-7.65539e-14
4.49133e-08
-5.86831e-14
4.49133e-08
-4.41314e-14
4.49133e-08
-3.23167e-14
4.49133e-08
-2.27568e-14
4.49133e-08
-1.50548e-14
4.49133e-08
-8.8748e-15
4.49133e-08
-3.931e-15
4.49133e-08
3.87847e-18
4.49133e-08
3.13352e-15
4.49133e-08
5.6477e-15
4.49133e-08
7.64943e-15
4.49133e-08
9.21591e-15
4.49133e-08
1.04137e-14
4.49133e-08
1.13047e-14
4.49133e-08
1.19446e-14
4.49133e-08
1.23819e-14
4.49133e-08
1.26613e-14
4.49133e-08
1.28138e-14
4.49133e-08
1.28742e-14
4.49133e-08
1.28559e-14
4.49133e-08
1.27876e-14
4.49133e-08
1.26696e-14
4.49133e-08
1.25255e-14
4.49133e-08
1.23517e-14
4.49133e-08
1.21607e-14
4.49133e-08
1.19562e-14
4.49133e-08
1.17348e-14
4.49133e-08
1.15077e-14
4.49133e-08
1.12664e-14
4.49133e-08
1.10128e-14
4.49133e-08
1.07513e-14
4.49133e-08
1.04617e-14
4.49133e-08
1.01568e-14
4.49133e-08
9.80768e-15
4.49133e-08
9.399e-15
4.49133e-08
8.88185e-15
7.64919e-15
5.0244e-08
2.53772e-09
-5.00476e-08
5.04879e-08
2.85362e-09
5.07365e-08
3.06109e-09
5.09736e-08
3.17844e-09
5.11906e-08
3.22362e-09
5.138e-08
3.20397e-09
5.15359e-08
3.12441e-09
5.16559e-08
2.99172e-09
5.17404e-08
2.81374e-09
5.17917e-08
2.598e-09
5.18135e-08
2.3514e-09
5.18099e-08
2.08039e-09
5.17847e-08
1.79153e-09
5.17409e-08
1.49237e-09
5.16807e-08
1.19218e-09
5.1606e-08
9.02218e-10
5.15198e-08
6.35241e-10
5.14269e-08
4.03806e-10
5.1334e-08
2.17052e-10
5.12449e-08
7.58924e-11
5.11653e-08
-2.37291e-11
5.10979e-08
-8.81364e-11
5.10436e-08
-1.24694e-10
5.10019e-08
-1.40502e-10
5.09713e-08
-1.41828e-10
5.09498e-08
-1.33813e-10
5.09357e-08
-1.20452e-10
5.0927e-08
-1.04682e-10
5.09222e-08
-8.85335e-11
5.09201e-08
-7.33025e-11
5.09198e-08
-5.97146e-11
5.09204e-08
-4.80799e-11
5.09216e-08
-3.84263e-11
5.0923e-08
-3.06082e-11
5.09245e-08
-2.43893e-11
5.09258e-08
-1.9502e-11
5.0927e-08
-1.56857e-11
5.09281e-08
-1.27085e-11
5.0929e-08
-1.03766e-11
5.09298e-08
-8.53559e-12
5.09306e-08
-7.06645e-12
5.09312e-08
-5.88017e-12
5.09317e-08
-4.91118e-12
5.09322e-08
-4.11156e-12
5.09326e-08
-3.44626e-12
5.09329e-08
-2.88931e-12
5.09332e-08
-2.42115e-12
5.09335e-08
-2.02667e-12
5.09337e-08
-1.69391e-12
5.09339e-08
-1.41318e-12
5.09341e-08
-1.1765e-12
5.09343e-08
-9.77172e-13
5.09344e-08
-8.09552e-13
5.09345e-08
-6.68829e-13
5.09346e-08
-5.509e-13
5.09347e-08
-4.5226e-13
5.09347e-08
-3.69917e-13
5.09348e-08
-3.01322e-13
5.09348e-08
-2.44302e-13
5.09349e-08
-1.97013e-13
5.09349e-08
-1.57888e-13
5.09349e-08
-1.25598e-13
5.0935e-08
-9.9017e-14
5.0935e-08
-7.71924e-14
5.0935e-08
-5.93205e-14
5.0935e-08
-4.47261e-14
5.0935e-08
-3.28444e-14
5.0935e-08
-2.32047e-14
5.0935e-08
-1.5409e-14
5.0935e-08
-9.11564e-15
5.0935e-08
-4.04192e-15
5.0935e-08
2.97918e-17
5.0935e-08
3.28836e-15
5.09351e-08
5.88188e-15
5.09351e-08
7.92076e-15
5.09351e-08
9.49669e-15
5.09351e-08
1.06904e-14
5.09351e-08
1.15728e-14
5.09351e-08
1.22031e-14
5.09351e-08
1.26355e-14
5.09351e-08
1.29078e-14
5.09351e-08
1.30612e-14
5.09351e-08
1.3114e-14
5.09351e-08
1.30986e-14
5.09351e-08
1.30202e-14
5.09351e-08
1.29027e-14
5.09351e-08
1.2748e-14
5.09351e-08
1.25665e-14
5.09351e-08
1.23665e-14
5.09351e-08
1.21438e-14
5.0935e-08
1.19093e-14
5.0935e-08
1.16581e-14
5.0935e-08
1.13869e-14
5.0935e-08
1.11046e-14
5.0935e-08
1.07872e-14
5.0935e-08
1.04449e-14
5.0935e-08
1.00506e-14
5.0935e-08
9.57513e-15
5.0935e-08
8.9654e-15
7.9241e-15
5.56475e-08
2.37333e-09
-5.54831e-08
5.58624e-08
2.63873e-09
5.60954e-08
2.82805e-09
5.63297e-08
2.94414e-09
5.65566e-08
2.99674e-09
5.67688e-08
2.99179e-09
5.696e-08
2.93321e-09
5.71258e-08
2.82591e-09
5.72637e-08
2.67587e-09
5.73724e-08
2.48925e-09
5.74517e-08
2.2721e-09
5.75017e-08
2.03046e-09
5.75224e-08
1.77077e-09
5.75143e-08
1.50045e-09
5.74783e-08
1.22823e-09
5.74163e-08
9.64149e-10
5.73326e-08
7.18959e-10
5.72337e-08
5.027e-10
5.71282e-08
3.22604e-10
5.70233e-08
1.80771e-10
5.69247e-08
7.49149e-11
5.68361e-08
4.62232e-13
5.67596e-08
-4.82011e-11
5.66957e-08
-7.66551e-11
5.6644e-08
-9.01371e-11
5.66034e-08
-9.31281e-11
5.65722e-08
-8.92962e-11
5.6549e-08
-8.14665e-11
5.65322e-08
-7.17122e-11
5.65203e-08
-6.14686e-11
5.65123e-08
-5.16535e-11
5.6507e-08
-4.27871e-11
5.65036e-08
-3.51035e-11
5.65017e-08
-2.86442e-11
5.65006e-08
-2.33327e-11
5.65002e-08
-1.90302e-11
5.65e-08
-1.5576e-11
5.65001e-08
-1.28126e-11
5.65004e-08
-1.05987e-11
5.65007e-08
-8.81588e-12
5.6501e-08
-7.36885e-12
5.65013e-08
-6.18359e-12
5.65015e-08
-5.20378e-12
5.65018e-08
-4.38698e-12
5.65021e-08
-3.70135e-12
5.65023e-08
-3.12284e-12
5.65025e-08
-2.63295e-12
5.65027e-08
-2.21726e-12
5.65029e-08
-1.86421e-12
5.6503e-08
-1.56438e-12
5.65032e-08
-1.30993e-12
5.65033e-08
-1.09427e-12
5.65034e-08
-9.11759e-13
5.65035e-08
-7.57594e-13
5.65036e-08
-6.27622e-13
5.65036e-08
-5.18271e-13
5.65037e-08
-4.26468e-13
5.65037e-08
-3.49566e-13
5.65038e-08
-2.85298e-13
5.65038e-08
-2.31717e-13
5.65038e-08
-1.87157e-13
5.65039e-08
-1.50196e-13
5.65039e-08
-1.19617e-13
5.65039e-08
-9.43865e-14
5.65039e-08
-7.36237e-14
5.65039e-08
-5.65844e-14
5.65039e-08
-4.26414e-14
5.65039e-08
-3.1267e-14
5.65039e-08
-2.20153e-14
5.6504e-08
-1.45071e-14
5.6504e-08
-8.4249e-15
5.6504e-08
-3.5144e-15
5.6504e-08
4.33063e-16
5.6504e-08
3.58658e-15
5.6504e-08
6.08246e-15
5.6504e-08
8.03253e-15
5.6504e-08
9.53263e-15
5.6504e-08
1.06655e-14
5.6504e-08
1.15e-14
5.6504e-08
1.20976e-14
5.6504e-08
1.25031e-14
5.6504e-08
1.27622e-14
5.6504e-08
1.28994e-14
5.6504e-08
1.29492e-14
5.6504e-08
1.29225e-14
5.6504e-08
1.28431e-14
5.6504e-08
1.27181e-14
5.6504e-08
1.25571e-14
5.6504e-08
1.2371e-14
5.6504e-08
1.2157e-14
5.6504e-08
1.19243e-14
5.6504e-08
1.16718e-14
5.6504e-08
1.13927e-14
5.6504e-08
1.1097e-14
5.6504e-08
1.07613e-14
5.6504e-08
1.03907e-14
5.6504e-08
9.9619e-15
5.6504e-08
9.44016e-15
5.6504e-08
8.7884e-15
7.89118e-15
6.16168e-08
2.2345e-09
-6.14779e-08
6.18013e-08
2.45421e-09
6.20087e-08
2.62059e-09
6.22233e-08
2.72957e-09
6.24356e-08
2.78439e-09
6.26388e-08
2.78867e-09
6.28266e-08
2.74538e-09
6.29944e-08
2.65812e-09
6.31388e-08
2.53148e-09
6.32574e-08
2.37062e-09
6.33486e-08
2.18088e-09
6.34112e-08
1.96788e-09
6.34443e-08
1.73771e-09
6.34475e-08
1.49722e-09
6.34216e-08
1.25417e-09
6.33686e-08
1.01711e-09
6.32928e-08
7.94767e-10
6.32004e-08
5.95116e-10
6.3099e-08
4.23976e-10
6.29959e-08
2.83824e-10
6.2897e-08
1.73894e-10
6.28061e-08
9.13175e-11
6.27258e-08
3.21418e-11
6.2657e-08
-7.88784e-12
6.25999e-08
-3.29853e-11
6.25536e-08
-4.68667e-11
6.25171e-08
-5.27901e-11
6.2489e-08
-5.33481e-11
6.24678e-08
-5.05575e-11
6.24523e-08
-4.59241e-11
6.24411e-08
-4.05005e-11
6.24333e-08
-3.49797e-11
6.2428e-08
-2.97796e-11
6.24245e-08
-2.51188e-11
6.24222e-08
-2.10784e-11
6.24208e-08
-1.76531e-11
6.242e-08
-1.47903e-11
6.24196e-08
-1.2416e-11
6.24195e-08
-1.0452e-11
6.24195e-08
-8.82493e-12
6.24196e-08
-7.47135e-12
6.24198e-08
-6.33897e-12
6.24199e-08
-5.38593e-12
6.24201e-08
-4.57927e-12
6.24203e-08
-3.8933e-12
6.24205e-08
-3.30797e-12
6.24207e-08
-2.80738e-12
6.24209e-08
-2.37881e-12
6.2421e-08
-2.01187e-12
6.24211e-08
-1.69787e-12
6.24213e-08
-1.4295e-12
6.24214e-08
-1.20051e-12
6.24215e-08
-1.00549e-12
6.24215e-08
-8.39752e-13
6.24216e-08
-6.99211e-13
6.24217e-08
-5.80311e-13
6.24217e-08
-4.79962e-13
6.24218e-08
-3.95474e-13
6.24218e-08
-3.24521e-13
6.24218e-08
-2.65088e-13
6.24219e-08
-2.15436e-13
6.24219e-08
-1.74069e-13
6.24219e-08
-1.39698e-13
6.24219e-08
-1.11218e-13
6.24219e-08
-8.76835e-14
6.2422e-08
-6.82899e-14
6.2422e-08
-5.23538e-14
6.2422e-08
-3.9297e-14
6.2422e-08
-2.86298e-14
6.2422e-08
-1.99373e-14
6.2422e-08
-1.28712e-14
6.2422e-08
-7.1456e-15
6.2422e-08
-2.52569e-15
6.2422e-08
1.18064e-15
6.2422e-08
4.13097e-15
6.2422e-08
6.45533e-15
6.2422e-08
8.2636e-15
6.2422e-08
9.64977e-15
6.2422e-08
1.06917e-14
6.2422e-08
1.1458e-14
6.2422e-08
1.20003e-14
6.2422e-08
1.23687e-14
6.2422e-08
1.25939e-14
6.2422e-08
1.27121e-14
6.2422e-08
1.27402e-14
6.2422e-08
1.27019e-14
6.2422e-08
1.26091e-14
6.2422e-08
1.24714e-14
6.2422e-08
1.23011e-14
6.2422e-08
1.2098e-14
6.2422e-08
1.18694e-14
6.2422e-08
1.16168e-14
6.2422e-08
1.13323e-14
6.2422e-08
1.10246e-14
6.2422e-08
1.0673e-14
6.2422e-08
1.02772e-14
6.2422e-08
9.81809e-15
6.2422e-08
9.26133e-15
6.2422e-08
8.58447e-15
7.74401e-15
6.8209e-08
2.11693e-09
-6.80914e-08
6.83648e-08
2.29835e-09
6.85439e-08
2.44151e-09
6.87331e-08
2.54037e-09
6.89233e-08
2.59424e-09
6.91075e-08
2.60443e-09
6.92801e-08
2.57281e-09
6.94362e-08
2.50196e-09
6.95723e-08
2.39538e-09
6.96857e-08
2.25726e-09
6.97743e-08
2.0923e-09
6.98366e-08
1.90557e-09
6.98716e-08
1.70264e-09
6.98792e-08
1.48968e-09
6.98599e-08
1.27342e-09
6.9816e-08
1.06103e-09
6.97511e-08
8.59643e-10
6.96706e-08
6.75631e-10
6.95808e-08
5.13817e-10
6.94878e-08
3.76758e-10
6.9397e-08
2.64691e-10
6.93123e-08
1.76101e-10
6.9236e-08
1.08411e-10
6.91696e-08
5.85351e-11
6.91133e-08
2.32464e-11
6.90669e-08
-4.66548e-13
6.90296e-08
-1.54424e-11
6.90002e-08
-2.39713e-11
6.89776e-08
-2.79517e-11
6.89606e-08
-2.89096e-11
6.89481e-08
-2.79675e-11
6.8939e-08
-2.5947e-11
6.89327e-08
-2.34135e-11
6.89283e-08
-2.07385e-11
6.89253e-08
-1.81437e-11
6.89234e-08
-1.57471e-11
6.89222e-08
-1.36017e-11
6.89215e-08
-1.17169e-11
6.89212e-08
-1.00806e-11
6.8921e-08
-8.66805e-12
6.8921e-08
-7.45133e-12
6.89211e-08
-6.40363e-12
6.89212e-08
-5.50036e-12
6.89213e-08
-4.72057e-12
6.89215e-08
-4.04641e-12
6.89216e-08
-3.46317e-12
6.89218e-08
-2.95851e-12
6.89219e-08
-2.52207e-12
6.89221e-08
-2.14506e-12
6.89222e-08
-1.81986e-12
6.89223e-08
-1.53991e-12
6.89224e-08
-1.29944e-12
6.89225e-08
-1.09338e-12
6.89226e-08
-9.17241e-13
6.89226e-08
-7.67072e-13
6.89227e-08
-6.39381e-13
6.89227e-08
-5.31092e-13
6.89228e-08
-4.39506e-13
6.89228e-08
-3.62257e-13
6.89228e-08
-2.97284e-13
6.89229e-08
-2.4279e-13
6.89229e-08
-1.97215e-13
6.89229e-08
-1.59209e-13
6.89229e-08
-1.27603e-13
6.89229e-08
-1.01396e-13
6.8923e-08
-7.9725e-14
6.8923e-08
-6.1857e-14
6.8923e-08
-4.71669e-14
6.8923e-08
-3.51239e-14
6.8923e-08
-2.52785e-14
6.8923e-08
-1.7252e-14
6.8923e-08
-1.07301e-14
6.8923e-08
-5.45226e-15
6.8923e-08
-1.2037e-15
6.8923e-08
2.19317e-15
6.8923e-08
4.88565e-15
6.8923e-08
6.9972e-15
6.8923e-08
8.63272e-15
6.8923e-08
9.87909e-15
6.8923e-08
1.08118e-14
6.8923e-08
1.14895e-14
6.8923e-08
1.19662e-14
6.8923e-08
1.22787e-14
6.8923e-08
1.24651e-14
6.8923e-08
1.25478e-14
6.8923e-08
1.2551e-14
6.8923e-08
1.24902e-14
6.8923e-08
1.23762e-14
6.8923e-08
1.22221e-14
6.8923e-08
1.20301e-14
6.8923e-08
1.18061e-14
6.8923e-08
1.15535e-14
6.8923e-08
1.12645e-14
6.8923e-08
1.09452e-14
6.8923e-08
1.05788e-14
6.8923e-08
1.01603e-14
6.8923e-08
9.67431e-15
6.8923e-08
9.08953e-15
6.8923e-08
8.39131e-15
7.55688e-15
6.78502e-08
2.02743e-09
-6.77607e-08
6.79677e-08
2.18093e-09
6.81041e-08
2.30509e-09
6.82505e-08
2.39399e-09
6.83995e-08
2.4452e-09
6.85454e-08
2.4585e-09
6.86834e-08
2.43482e-09
6.88094e-08
2.37595e-09
6.89202e-08
2.2846e-09
6.90133e-08
2.1642e-09
6.90868e-08
2.01883e-09
6.91393e-08
1.85303e-09
6.91701e-08
1.67184e-09
6.9179e-08
1.48077e-09
6.91667e-08
1.28572e-09
6.91349e-08
1.09282e-09
6.90865e-08
9.08026e-10
6.90255e-08
7.36685e-10
6.89564e-08
5.82943e-10
6.88838e-08
4.49332e-10
6.88118e-08
3.36666e-10
6.87436e-08
2.44327e-10
6.86813e-08
1.70707e-10
6.86262e-08
1.13612e-10
6.85789e-08
7.05841e-11
6.85393e-08
3.91519e-11
6.85068e-08
1.69594e-11
6.84809e-08
1.94161e-12
6.84607e-08
-7.66675e-12
6.84451e-08
-1.33598e-11
6.84334e-08
-1.62808e-11
6.84248e-08
-1.73344e-11
6.84186e-08
-1.71893e-11
6.84142e-08
-1.63336e-11
6.84111e-08
-1.50943e-11
6.84091e-08
-1.36853e-11
6.84077e-08
-1.2248e-11
6.84069e-08
-1.08604e-11
6.84063e-08
-9.56839e-12
6.84061e-08
-8.38931e-12
6.84059e-08
-7.32797e-12
6.84059e-08
-6.38158e-12
6.8406e-08
-5.54206e-12
6.8406e-08
-4.80076e-12
6.84061e-08
-4.14786e-12
6.84062e-08
-3.57447e-12
6.84064e-08
-3.07215e-12
6.84065e-08
-2.63315e-12
6.84066e-08
-2.25055e-12
6.84067e-08
-1.91797e-12
6.84068e-08
-1.62971e-12
6.84068e-08
-1.38061e-12
6.84069e-08
-1.16599e-12
6.8407e-08
-9.81615e-13
6.8407e-08
-8.23705e-13
6.84071e-08
-6.88863e-13
6.84071e-08
-5.74062e-13
6.84072e-08
-4.76612e-13
6.84072e-08
-3.94135e-13
6.84072e-08
-3.2454e-13
6.84073e-08
-2.65991e-13
6.84073e-08
-2.16881e-13
6.84073e-08
-1.7581e-13
6.84073e-08
-1.41565e-13
6.84073e-08
-1.13094e-13
6.84073e-08
-8.94914e-14
6.84073e-08
-6.99818e-14
6.84073e-08
-5.39019e-14
6.84073e-08
-4.06872e-14
6.84074e-08
-2.98588e-14
6.84074e-08
-2.10122e-14
6.84074e-08
-1.38091e-14
6.84074e-08
-7.96773e-15
6.84074e-08
-3.25381e-15
6.84074e-08
5.25899e-16
6.84074e-08
3.53432e-15
6.84074e-08
5.90596e-15
6.84074e-08
7.75539e-15
6.84074e-08
9.17716e-15
6.84074e-08
1.02528e-14
6.84074e-08
1.10467e-14
6.84074e-08
1.16167e-14
6.84074e-08
1.20044e-14
6.84074e-08
1.22498e-14
6.84074e-08
1.23797e-14
6.84074e-08
1.24188e-14
6.84074e-08
1.23858e-14
6.84074e-08
1.22925e-14
6.84074e-08
1.21523e-14
6.84074e-08
1.19701e-14
6.84074e-08
1.17502e-14
6.84074e-08
1.14977e-14
6.84074e-08
1.1205e-14
6.84074e-08
1.08761e-14
6.84074e-08
1.04977e-14
6.84074e-08
1.00608e-14
6.84074e-08
9.55384e-15
6.84074e-08
8.94781e-15
6.84074e-08
8.23077e-15
7.38505e-15
8.56706e-08
1.9451e-09
-8.55883e-08
8.57771e-08
2.07446e-09
8.59013e-08
2.18085e-09
8.60361e-08
2.25922e-09
8.61748e-08
2.30651e-09
8.63118e-08
2.32146e-09
8.64424e-08
2.30417e-09
8.65627e-08
2.25573e-09
8.66692e-08
2.1781e-09
8.67593e-08
2.07404e-09
8.68312e-08
1.94697e-09
8.68834e-08
1.80087e-09
8.69151e-08
1.64015e-09
8.69262e-08
1.46966e-09
8.69174e-08
1.29449e-09
8.68904e-08
1.11982e-09
8.68478e-08
9.50668e-10
8.67929e-08
7.9151e-10
8.67299e-08
6.45948e-10
8.66628e-08
5.16434e-10
8.65953e-08
4.0417e-10
8.65304e-08
3.09231e-10
8.64703e-08
2.30813e-10
8.64164e-08
1.67512e-10
8.63694e-08
1.17565e-10
8.63295e-08
7.90594e-11
8.62964e-08
5.008e-11
8.62695e-08
2.88332e-11
8.62481e-08
1.37066e-11
8.62315e-08
3.30107e-12
8.62187e-08
-3.54357e-12
8.62092e-08
-7.77726e-12
8.62021e-08
-1.01398e-11
8.6197e-08
-1.12451e-11
8.61934e-08
-1.1492e-11
8.61909e-08
-1.11871e-11
8.61892e-08
-1.05532e-11
8.61881e-08
-9.74639e-12
8.61874e-08
-8.86181e-12
8.6187e-08
-7.96516e-12
8.61868e-08
-7.09713e-12
8.61867e-08
-6.28002e-12
8.61867e-08
-5.5255e-12
8.61867e-08
-4.8379e-12
8.61868e-08
-4.21761e-12
8.61868e-08
-3.66225e-12
8.61869e-08
-3.16822e-12
8.6187e-08
-2.7311e-12
8.61871e-08
-2.34618e-12
8.61872e-08
-2.0087e-12
8.61873e-08
-1.71401e-12
8.61874e-08
-1.45769e-12
8.61875e-08
-1.23556e-12
8.61875e-08
-1.04375e-12
8.61876e-08
-8.78707e-13
8.61876e-08
-7.37171e-13
8.61877e-08
-6.16199e-13
8.61877e-08
-5.13141e-13
8.61877e-08
-4.25626e-13
8.61878e-08
-3.51547e-13
8.61878e-08
-2.89041e-13
8.61878e-08
-2.36465e-13
8.61878e-08
-1.92379e-13
8.61878e-08
-1.55525e-13
8.61878e-08
-1.24809e-13
8.61879e-08
-9.92858e-14
8.61879e-08
-7.81402e-14
8.61879e-08
-6.0673e-14
8.61879e-08
-4.62873e-14
8.61879e-08
-3.44751e-14
8.61879e-08
-2.48064e-14
8.61879e-08
-1.69195e-14
8.61879e-08
-1.05114e-14
8.61879e-08
-5.32945e-15
8.61879e-08
-1.16368e-15
8.61879e-08
2.1638e-15
8.61879e-08
4.79788e-15
8.61879e-08
6.86328e-15
8.61879e-08
8.46238e-15
8.61879e-08
9.6825e-15
8.61879e-08
1.05943e-14
8.61879e-08
1.12588e-14
8.61879e-08
1.17231e-14
8.61879e-08
1.20288e-14
8.61879e-08
1.22068e-14
8.61879e-08
1.22829e-14
8.61879e-08
1.22781e-14
8.61879e-08
1.22062e-14
8.61879e-08
1.20805e-14
8.61879e-08
1.19081e-14
8.61879e-08
1.1693e-14
8.61879e-08
1.14401e-14
8.61879e-08
1.11443e-14
8.61879e-08
1.08061e-14
8.61879e-08
1.04158e-14
8.61879e-08
9.96236e-15
8.61879e-08
9.43498e-15
8.61879e-08
8.80981e-15
8.61879e-08
8.07289e-15
7.20846e-15
1.08177e-07
1.88119e-09
-1.08113e-07
1.08259e-07
1.99263e-09
1.08354e-07
2.08504e-09
1.08459e-07
2.1543e-09
1.08568e-07
2.19736e-09
1.08677e-07
2.2125e-09
1.08782e-07
2.19927e-09
1.0888e-07
2.15824e-09
1.08967e-07
2.09086e-09
1.09042e-07
1.99934e-09
1.09102e-07
1.88657e-09
1.09147e-07
1.75602e-09
1.09176e-07
1.61157e-09
1.09188e-07
1.45746e-09
1.09184e-07
1.29814e-09
1.09166e-07
1.13809e-09
1.09135e-07
9.81587e-10
1.09094e-07
8.32508e-10
1.09046e-07
6.94053e-10
1.08994e-07
5.68572e-10
1.0894e-07
4.57482e-10
1.08888e-07
3.61304e-10
1.08839e-07
2.79793e-10
1.08795e-07
2.12122e-10
1.08755e-07
1.57064e-10
1.08721e-07
1.13158e-10
1.08692e-07
7.88474e-11
1.08669e-07
5.25901e-11
1.08649e-07
3.29359e-11
1.08634e-07
1.85754e-11
1.08622e-07
8.36774e-12
1.08613e-07
1.35562e-12
1.08606e-07
-3.1833e-12
1.08601e-07
-6.11892e-12
1.08597e-07
-7.75819e-12
1.08594e-07
-8.51015e-12
1.08593e-07
-8.65523e-12
1.08591e-07
-8.44275e-12
1.0859e-07
-7.98039e-12
1.0859e-07
-7.38902e-12
1.08589e-07
-6.73783e-12
1.08589e-07
-6.07043e-12
1.08589e-07
-5.41934e-12
1.08589e-07
-4.80083e-12
1.08589e-07
-4.22605e-12
1.08589e-07
-3.69935e-12
1.08589e-07
-3.22227e-12
1.08589e-07
-2.79405e-12
1.08589e-07
-2.41246e-12
1.08589e-07
-2.07473e-12
1.08589e-07
-1.77736e-12
1.0859e-07
-1.517e-12
1.0859e-07
-1.29002e-12
1.0859e-07
-1.09304e-12
1.0859e-07
-9.22806e-13
1.0859e-07
-7.76229e-13
1.0859e-07
-6.505e-13
1.0859e-07
-5.43043e-13
1.0859e-07
-4.51522e-13
1.0859e-07
-3.73841e-13
1.0859e-07
-3.08132e-13
1.0859e-07
-2.52729e-13
1.0859e-07
-2.06169e-13
1.0859e-07
-1.67167e-13
1.0859e-07
-1.34597e-13
1.0859e-07
-1.07482e-13
1.0859e-07
-8.49772e-14
1.0859e-07
-6.63547e-14
1.0859e-07
-5.09919e-14
1.0859e-07
-3.83576e-14
1.0859e-07
-2.8001e-14
1.0859e-07
-1.95411e-14
1.0859e-07
-1.26576e-14
1.0859e-07
-7.08188e-15
1.0859e-07
-2.5891e-15
1.0859e-07
1.00406e-15
1.0859e-07
3.85903e-15
1.0859e-07
6.10619e-15
1.0859e-07
7.85483e-15
1.0859e-07
9.19705e-15
1.0859e-07
1.02086e-14
1.0859e-07
1.09533e-14
1.0859e-07
1.14827e-14
1.0859e-07
1.18398e-14
1.0859e-07
1.20585e-14
1.0859e-07
1.21664e-14
1.0859e-07
1.21856e-14
1.0859e-07
1.21321e-14
1.0859e-07
1.20188e-14
1.0859e-07
1.18546e-14
1.0859e-07
1.16438e-14
1.0859e-07
1.13907e-14
1.0859e-07
1.10924e-14
1.0859e-07
1.07468e-14
1.0859e-07
1.03465e-14
1.0859e-07
9.88011e-15
1.0859e-07
9.33649e-15
1.0859e-07
8.69591e-15
1.0859e-07
7.94222e-15
7.06117e-15
1.36595e-07
-1.36568e-07
1.36629e-07
1.36671e-07
1.36718e-07
1.36768e-07
1.36819e-07
1.3687e-07
1.36919e-07
1.36963e-07
1.37003e-07
1.37037e-07
1.37064e-07
1.37084e-07
1.37096e-07
1.371e-07
1.37097e-07
1.37088e-07
1.37073e-07
1.37054e-07
1.37032e-07
1.37009e-07
1.36986e-07
1.36963e-07
1.36942e-07
1.36922e-07
1.36905e-07
1.36889e-07
1.36876e-07
1.36864e-07
1.36855e-07
1.36847e-07
1.36841e-07
1.36835e-07
1.36831e-07
1.36828e-07
1.36825e-07
1.36823e-07
1.36821e-07
1.3682e-07
1.36819e-07
1.36818e-07
1.36817e-07
1.36817e-07
1.36816e-07
1.36816e-07
1.36816e-07
1.36815e-07
1.36815e-07
1.36815e-07
1.36815e-07
1.36815e-07
1.36815e-07
1.36815e-07
1.36815e-07
1.36815e-07
1.36815e-07
1.36815e-07
1.36815e-07
1.36815e-07
1.36815e-07
1.36815e-07
1.36815e-07
1.36815e-07
1.36815e-07
1.36815e-07
1.36815e-07
1.36815e-07
1.36815e-07
1.36815e-07
1.36815e-07
1.36815e-07
1.36815e-07
1.36815e-07
1.36815e-07
1.36815e-07
1.36815e-07
1.36815e-07
1.36815e-07
1.36815e-07
1.36815e-07
1.36815e-07
1.36815e-07
1.36815e-07
1.36815e-07
1.36815e-07
1.36815e-07
1.36815e-07
1.36815e-07
1.36815e-07
1.36815e-07
1.36815e-07
1.36815e-07
1.36815e-07
1.36815e-07
1.36815e-07
1.36815e-07
1.36815e-07
1.36815e-07
1.36815e-07
3.44605e-08
2.0603e-12
3.44583e-08
4.49664e-12
3.44551e-08
7.42424e-12
3.44507e-08
1.09448e-11
3.44449e-08
1.51717e-11
3.44376e-08
2.02322e-11
3.44283e-08
2.62683e-11
3.44168e-08
3.34368e-11
3.44026e-08
4.19131e-11
3.43853e-08
5.1898e-11
3.43642e-08
6.36268e-11
3.43388e-08
7.73816e-11
3.43082e-08
9.35092e-11
3.42715e-08
1.12448e-10
3.42276e-08
1.34773e-10
3.4175e-08
1.61272e-10
3.41118e-08
1.93086e-10
3.40352e-08
2.31962e-10
3.39414e-08
2.80759e-10
3.38237e-08
3.44521e-10
3.3671e-08
4.33053e-10
3.34606e-08
5.68e-10
3.31395e-08
8.06856e-10
3.25418e-08
1.35778e-09
2.99285e-09
3.80475e-08
3.29943e-12
3.80451e-08
6.83998e-12
3.80416e-08
1.09315e-11
3.80368e-08
1.57473e-11
3.80305e-08
2.14652e-11
3.80225e-08
2.82755e-11
3.80124e-08
3.63819e-11
3.79998e-08
4.60051e-11
3.79843e-08
5.73885e-11
3.79654e-08
7.08085e-11
3.79425e-08
8.65867e-11
3.79147e-08
1.05108e-10
3.78814e-08
1.26843e-10
3.78414e-08
1.52394e-10
3.77937e-08
1.82553e-10
3.77365e-08
2.18423e-10
3.7668e-08
2.61614e-10
3.75853e-08
3.14615e-10
3.74846e-08
3.81513e-10
3.73596e-08
4.69479e-10
3.72005e-08
5.92136e-10
3.69906e-08
7.77936e-10
3.67049e-08
1.09256e-09
3.63637e-08
1.69902e-09
2.95064e-09
4.20079e-08
4.61934e-12
4.20053e-08
9.37177e-12
4.20015e-08
1.47231e-11
4.19963e-08
2.09435e-11
4.19895e-08
2.8279e-11
4.19808e-08
3.69867e-11
4.19699e-08
4.73371e-11
4.19562e-08
5.96196e-11
4.19395e-08
7.4151e-11