/*--------------------------------*- C++ -*----------------------------------*\
| =========                 |                                                 |
| \\      /  F ield         | OpenFOAM: The Open Source CFD Toolbox           |
|  \\    /   O peration     | Version:  2.3.0                                 |
|   \\  /    A nd           | Web:      www.OpenFOAM.org                      |
|    \\/     M anipulation  |                                                 |
\*---------------------------------------------------------------------------*/
FoamFile
{
    version     2.0;
    format      ascii;
    class       surfaceScalarField;
    location    "0.7";
    object      phi_0;
}
// * * * * * * * * * * * * * * * * * * * * * * * * * * * * * * * * * * * * * //

dimensions      [0 3 -1 0 0 0 0];

internalField   nonuniform List<scalar> 
5764
(
2.00247e-08
5.01075e-09
-2.50354e-08
1.48947e-08
5.12996e-09
1.09261e-08
3.96862e-09
8.23252e-09
2.69358e-09
6.59137e-09
1.64114e-09
5.64102e-09
9.50349e-10
5.07097e-09
5.70057e-10
4.69122e-09
3.79744e-10
4.40217e-09
2.89053e-10
4.15965e-09
2.4252e-10
3.94731e-09
2.12334e-10
3.75944e-09
1.8788e-10
3.59295e-09
1.66485e-10
3.44498e-09
1.47969e-10
3.31266e-09
1.32326e-10
3.1934e-09
1.1926e-10
3.08509e-09
1.08307e-10
2.98607e-09
9.9017e-11
2.89505e-09
9.10209e-11
2.81099e-09
8.40563e-11
2.73307e-09
7.79252e-11
2.66057e-09
7.24951e-11
2.59292e-09
6.7649e-11
2.52961e-09
6.33111e-11
2.47021e-09
5.93991e-11
2.41434e-09
5.58693e-11
2.36169e-09
5.26543e-11
2.31195e-09
4.97402e-11
2.2649e-09
4.70546e-11
2.22028e-09
4.4616e-11
2.17794e-09
4.2341e-11
2.13767e-09
4.02733e-11
2.09934e-09
3.83281e-11
2.06278e-09
3.65569e-11
2.0279e-09
3.48803e-11
1.99454e-09
3.33552e-11
1.96265e-09
3.18942e-11
1.93207e-09
3.05766e-11
1.90279e-09
2.92856e-11
1.87465e-09
2.81376e-11
1.84766e-09
2.69884e-11
1.82169e-09
2.59737e-11
1.79673e-09
2.49573e-11
1.77267e-09
2.40573e-11
1.74952e-09
2.31517e-11
1.72717e-09
2.23526e-11
1.70564e-09
2.15332e-11
1.68483e-09
2.08103e-11
1.66476e-09
2.00641e-11
1.64535e-09
1.94076e-11
1.62662e-09
1.87346e-11
1.60848e-09
1.81379e-11
1.59095e-09
1.75351e-11
1.57398e-09
1.69685e-11
1.55754e-09
1.6435e-11
1.54167e-09
1.58764e-11
1.52624e-09
1.54254e-11
1.51136e-09
1.48771e-11
1.49688e-09
1.44817e-11
1.48292e-09
1.39592e-11
1.46927e-09
1.36489e-11
1.45621e-09
1.30654e-11
1.44332e-09
1.28912e-11
1.43105e-09
1.2269e-11
1.41886e-09
1.21906e-11
1.40734e-09
1.15199e-11
1.39572e-09
1.16176e-11
1.38487e-09
1.0854e-11
1.37371e-09
1.11599e-11
1.36345e-09
1.02604e-11
1.3526e-09
1.0842e-11
1.34278e-09
9.82265e-12
1.332e-09
1.07819e-11
1.32249e-09
9.51413e-12
1.1702e-11
2.69246e-08
4.90538e-09
-2.68192e-08
2.55755e-08
6.47903e-09
2.35616e-08
5.98248e-09
2.1404e-08
4.85124e-09
1.93773e-08
3.66785e-09
1.76086e-08
2.71904e-09
1.6125e-08
2.05366e-09
1.4907e-08
1.59773e-09
1.39112e-08
1.28485e-09
1.30883e-08
1.06547e-09
1.23944e-08
9.06152e-10
1.17971e-08
7.85209e-10
1.12741e-08
6.89499e-10
1.08104e-08
6.11689e-10
1.03952e-08
5.47453e-10
1.00206e-08
4.93876e-10
9.68021e-09
4.48726e-10
9.36897e-09
4.10257e-10
9.0829e-09
3.77094e-10
8.81873e-09
3.48221e-10
8.57382e-09
3.22841e-10
8.34592e-09
3.00389e-10
8.13319e-09
2.80378e-10
7.93403e-09
2.62471e-10
7.7471e-09
2.46335e-10
7.5712e-09
2.31768e-10
7.40534e-09
2.18513e-10
7.24861e-09
2.06474e-10
7.10025e-09
1.95407e-10
6.95955e-09
1.85317e-10
6.82595e-09
1.75949e-10
6.69883e-09
1.67386e-10
6.57779e-09
1.59374e-10
6.46231e-09
1.52034e-10
6.35207e-09
1.45121e-10
6.24664e-09
1.38783e-10
6.14578e-09
1.32758e-10
6.0491e-09
1.27256e-10
5.95644e-09
1.21943e-10
5.86745e-09
1.1713e-10
5.78203e-09
1.1241e-10
5.69984e-09
1.08159e-10
5.62083e-09
1.03965e-10
5.5447e-09
1.00191e-10
5.47141e-09
9.64376e-11
5.40069e-09
9.30744e-11
5.33255e-09
8.96718e-11
5.26672e-09
8.66391e-11
5.20325e-09
8.35345e-11
5.14187e-09
8.07921e-11
5.08264e-09
7.79631e-11
5.0253e-09
7.54758e-11
4.96995e-09
7.28904e-11
4.91634e-09
7.05787e-11
4.86455e-09
6.82182e-11
4.81441e-09
6.60251e-11
4.76592e-09
6.39075e-11
4.71898e-09
6.18252e-11
4.67358e-09
5.98801e-11
4.62959e-09
5.79465e-11
4.58703e-09
5.62055e-11
4.54586e-09
5.42395e-11
4.50593e-09
5.28179e-11
4.46734e-09
5.08596e-11
4.42988e-09
4.96536e-11
4.39368e-09
4.77208e-11
4.35841e-09
4.68839e-11
4.32437e-09
4.48966e-11
4.29104e-09
4.44863e-11
4.25889e-09
4.24085e-11
4.22717e-09
4.25625e-11
4.19648e-09
4.05167e-11
4.16587e-09
4.1395e-11
4.13604e-09
3.93424e-11
4.26733e-11
2.83084e-08
4.27269e-09
-2.76757e-08
2.86205e-08
6.16696e-09
2.83095e-08
6.29345e-09
2.75914e-08
5.56931e-09
2.66296e-08
4.6297e-09
2.55497e-08
3.79889e-09
2.44395e-08
3.16393e-09
2.33513e-08
2.68586e-09
2.23196e-08
2.31663e-09
2.13608e-08
2.0242e-09
2.04785e-08
1.78849e-09
1.9669e-08
1.59471e-09
1.89266e-08
1.4319e-09
1.82453e-08
1.29301e-09
1.76192e-08
1.17355e-09
1.70426e-08
1.07039e-09
1.65104e-08
9.80967e-10
1.60176e-08
9.03078e-10
1.55599e-08
8.34793e-10
1.51335e-08
7.74572e-10
1.47353e-08
7.21099e-10
1.43623e-08
6.73398e-10
1.40121e-08
6.30576e-10
1.36825e-08
5.92015e-10
1.33718e-08
5.5707e-10
1.30782e-08
5.2536e-10
1.28003e-08
4.96377e-10
1.25369e-08
4.69928e-10
1.22867e-08
4.45545e-10
1.20488e-08
4.2321e-10
1.18224e-08
4.02443e-10
1.16064e-08
3.83372e-10
1.14002e-08
3.65515e-10
1.12032e-08
3.49079e-10
1.10147e-08
3.33592e-10
1.08342e-08
3.19329e-10
1.06611e-08
3.05774e-10
1.04951e-08
2.93324e-10
1.03357e-08
2.81342e-10
1.01824e-08
2.70401e-10
1.00351e-08
2.59729e-10
9.89321e-09
2.50038e-10
9.75666e-09
2.40514e-10
9.62497e-09
2.31886e-10
9.49808e-09
2.23323e-10
9.37554e-09
2.15611e-10
9.25739e-09
2.07826e-10
9.14316e-09
2.0087e-10
9.03295e-09
1.93741e-10
8.92629e-09
1.87452e-10
8.82335e-09
1.8091e-10
8.72361e-09
1.75209e-10
8.62733e-09
1.6917e-10
8.534e-09
1.63916e-10
8.4439e-09
1.5832e-10
8.3565e-09
1.53417e-10
8.27215e-09
1.48261e-10
8.19028e-09
1.43692e-10
8.11132e-09
1.38843e-10
8.0346e-09
1.34667e-10
7.96067e-09
1.30132e-10
7.88882e-09
1.26093e-10
7.81962e-09
1.2202e-10
7.75229e-09
1.18191e-10
7.68755e-09
1.14388e-10
7.62442e-09
1.10851e-10
7.5638e-09
1.07504e-10
7.50452e-09
1.04183e-10
7.44766e-09
1.01347e-10
7.39179e-09
9.82737e-11
7.33824e-09
9.61153e-11
7.28515e-09
9.36026e-11
7.23419e-09
9.23516e-11
7.18308e-09
9.04573e-11
9.27759e-11
2.9128e-08
3.86323e-09
-2.87186e-08
2.97215e-08
5.57353e-09
3.00073e-08
6.00759e-09
3.00103e-08
5.56635e-09
2.9793e-08
4.84698e-09
2.94121e-08
4.17979e-09
2.89163e-08
3.65969e-09
2.83414e-08
3.26073e-09
2.77184e-08
2.93971e-09
2.70713e-08
2.67127e-09
2.64165e-08
2.44331e-09
2.5764e-08
2.24717e-09
2.51207e-08
2.07522e-09
2.44917e-08
1.92205e-09
2.38809e-08
1.78434e-09
2.32911e-08
1.6602e-09
2.27239e-08
1.54813e-09
2.21801e-08
1.44686e-09
2.16598e-08
1.35508e-09
2.11627e-08
1.27174e-09
2.0688e-08
1.19578e-09
2.02349e-08
1.12647e-09
1.98025e-08
1.06298e-09
1.93897e-08
1.00482e-09
1.89955e-08
9.51285e-10
1.86188e-08
9.02051e-10
1.82587e-08
8.56488e-10
1.79142e-08
8.14461e-10
1.75844e-08
7.75329e-10
1.72684e-08
7.39168e-10
1.69656e-08
7.05283e-10
1.6675e-08
6.73935e-10
1.63961e-08
6.4439e-10
1.61282e-08
6.17032e-10
1.58707e-08
5.91099e-10
1.56229e-08
5.67091e-10
1.53845e-08
5.44163e-10
1.51549e-08
5.23e-10
1.49336e-08
5.02563e-10
1.47202e-08
4.83809e-10
1.45145e-08
4.65476e-10
1.43158e-08
4.48752e-10
1.4124e-08
4.32264e-10
1.39386e-08
4.17286e-10
1.37596e-08
4.02356e-10
1.35863e-08
3.88897e-10
1.34189e-08
3.75243e-10
1.32567e-08
3.63064e-10
1.30999e-08
3.50484e-10
1.2948e-08
3.39447e-10
1.28011e-08
3.27813e-10
1.26585e-08
3.17791e-10
1.25207e-08
3.06956e-10
1.23868e-08
2.97747e-10
1.22576e-08
2.87594e-10
1.21319e-08
2.79069e-10
1.20106e-08
2.69549e-10
1.18926e-08
2.61689e-10
1.17789e-08
2.52591e-10
1.16681e-08
2.45477e-10
1.15615e-08
2.3676e-10
1.14575e-08
2.30086e-10
1.13576e-08
2.21902e-10
1.126e-08
2.15783e-10
1.11665e-08
2.07832e-10
1.1075e-08
2.02441e-10
1.09875e-08
1.94909e-10
1.09015e-08
1.90199e-10
1.08197e-08
1.83137e-10
1.07388e-08
1.7922e-10
1.06621e-08
1.72821e-10
1.05855e-08
1.70193e-10
1.05129e-08
1.64902e-10
1.04399e-08
1.6353e-10
1.62957e-10
3.00304e-08
3.62065e-09
-2.97879e-08
3.05688e-08
5.03518e-09
3.09676e-08
5.60882e-09
3.1178e-08
5.35594e-09
3.12446e-08
4.78038e-09
3.12026e-08
4.22178e-09
3.10733e-08
3.78895e-09
3.08711e-08
3.46293e-09
3.06099e-08
3.20092e-09
3.03031e-08
2.97807e-09
2.99613e-08
2.78513e-09
2.95916e-08
2.61692e-09
2.9199e-08
2.46777e-09
2.87883e-08
2.33272e-09
2.83642e-08
2.20851e-09
2.79308e-08
2.09352e-09
2.74923e-08
1.98669e-09
2.70518e-08
1.88736e-09
2.66122e-08
1.79469e-09
2.61758e-08
1.70815e-09
2.57445e-08
1.62705e-09
2.53199e-08
1.55111e-09
2.49031e-08
1.47975e-09
2.4495e-08
1.41288e-09
2.40964e-08
1.34993e-09
2.37075e-08
1.29092e-09
2.33288e-08
1.23522e-09
2.29602e-08
1.183e-09
2.2602e-08
1.13352e-09
2.2254e-08
1.08717e-09
2.19162e-08
1.04309e-09
2.15883e-08
1.00185e-09
2.12702e-08
9.62469e-10
2.09616e-08
9.25686e-10
2.06623e-08
8.90403e-10
2.03719e-08
8.57507e-10
2.00903e-08
8.2574e-10
1.9817e-08
7.96251e-10
1.95521e-08
7.67489e-10
1.92949e-08
7.40987e-10
1.90456e-08
7.14835e-10
1.88034e-08
6.90926e-10
1.85686e-08
6.67109e-10
1.83404e-08
6.45469e-10
1.81191e-08
6.23648e-10
1.7904e-08
6.04025e-10
1.76953e-08
5.83862e-10
1.74924e-08
5.65985e-10
1.72957e-08
5.47224e-10
1.71042e-08
5.30936e-10
1.69186e-08
5.13403e-10
1.67378e-08
4.98551e-10
1.65627e-08
4.82046e-10
1.63921e-08
4.68387e-10
1.6227e-08
4.52733e-10
1.60659e-08
4.40131e-10
1.59102e-08
4.25225e-10
1.57582e-08
4.1367e-10
1.56116e-08
3.99227e-10
1.54682e-08
3.8884e-10
1.53303e-08
3.74744e-10
1.51952e-08
3.65192e-10
1.50655e-08
3.51596e-10
1.49382e-08
3.43037e-10
1.48165e-08
3.29524e-10
1.46967e-08
3.22246e-10
1.45826e-08
3.0899e-10
1.44699e-08
3.02966e-10
1.4363e-08
2.90041e-10
1.42567e-08
2.85441e-10
1.41564e-08
2.73112e-10
1.40561e-08
2.70551e-10
1.39614e-08
2.5963e-10
1.3866e-08
2.58871e-10
2.53671e-10
3.10013e-08
3.46168e-09
-3.08423e-08
3.14455e-08
4.591e-09
3.18425e-08
5.21176e-09
3.20899e-08
5.10857e-09
3.22243e-08
4.64597e-09
3.22886e-08
4.15754e-09
3.2301e-08
3.77654e-09
3.22683e-08
3.49557e-09
3.21959e-08
3.27341e-09
3.20898e-08
3.08414e-09
3.19557e-08
2.91924e-09
3.17967e-08
2.77594e-09
3.16141e-08
2.65028e-09
3.14092e-08
2.53765e-09
3.11834e-08
2.4343e-09
3.09387e-08
2.33823e-09
3.06772e-08
2.24816e-09
3.04011e-08
2.16349e-09
3.01125e-08
2.08335e-09
2.98132e-08
2.00738e-09
2.95054e-08
1.93484e-09
2.91909e-08
1.86568e-09
2.88713e-08
1.79933e-09
2.85482e-08
1.73599e-09
2.8223e-08
1.6751e-09
2.78969e-08
1.61701e-09
2.75711e-08
1.56104e-09
2.72464e-08
1.5077e-09
2.69238e-08
1.45614e-09
2.66039e-08
1.40711e-09
2.62874e-08
1.35953e-09
2.59748e-08
1.31448e-09
2.56666e-08
1.27065e-09
2.5363e-08
1.22932e-09
2.50644e-08
1.18897e-09
2.47708e-08
1.15108e-09
2.44827e-08
1.11384e-09
2.41999e-08
1.07908e-09
2.39228e-08
1.04458e-09
2.36511e-08
1.01269e-09
2.33853e-08
9.80674e-10
2.31248e-08
9.51427e-10
2.28701e-08
9.21744e-10
2.26207e-08
8.94874e-10
2.23772e-08
8.67209e-10
2.21387e-08
8.42502e-10
2.1906e-08
8.16522e-10
2.16782e-08
7.93767e-10
2.14562e-08
7.6924e-10
2.12388e-08
7.48337e-10
2.10271e-08
7.25083e-10
2.08198e-08
7.05882e-10
2.06182e-08
6.83673e-10
2.04206e-08
6.65936e-10
2.02288e-08
6.44555e-10
2.00407e-08
6.28195e-10
1.98585e-08
6.07509e-10
1.96796e-08
5.92531e-10
1.95066e-08
5.72195e-10
1.93367e-08
5.58793e-10
1.91728e-08
5.38604e-10
1.90116e-08
5.26441e-10
1.88566e-08
5.06587e-10
1.87038e-08
4.95858e-10
1.85575e-08
4.75805e-10
1.84128e-08
4.66929e-10
1.82749e-08
4.46861e-10
1.81381e-08
4.398e-10
1.80083e-08
4.19865e-10
1.78789e-08
4.14809e-10
1.77566e-08
3.9539e-10
1.76341e-08
3.93032e-10
1.75184e-08
3.75376e-10
1.7402e-08
3.75292e-10
3.64071e-10
3.20119e-08
3.3405e-09
-3.18907e-08
3.23681e-08
4.23474e-09
3.27402e-08
4.83971e-09
3.29924e-08
4.85637e-09
3.31378e-08
4.50057e-09
3.32239e-08
4.07143e-09
3.32755e-08
3.72498e-09
3.32995e-08
3.47154e-09
3.32987e-08
3.27421e-09
3.3277e-08
3.10587e-09
3.32386e-08
2.95764e-09
3.31859e-08
2.82865e-09
3.31192e-08
2.71693e-09
3.3038e-08
2.61885e-09
3.29419e-08
2.5304e-09
3.28309e-08
2.44927e-09
3.27052e-08
2.37377e-09
3.25655e-08
2.30328e-09
3.24121e-08
2.23671e-09
3.22457e-08
2.17373e-09
3.20673e-08
2.11333e-09
3.18774e-08
2.05554e-09
3.16772e-08
1.99952e-09
3.14675e-08
1.94566e-09
3.12495e-08
1.89316e-09
3.10238e-08
1.84266e-09
3.07916e-08
1.79321e-09
3.05537e-08
1.74568e-09
3.03109e-08
1.69885e-09
3.00641e-08
1.65392e-09
2.98143e-08
1.60938e-09
2.95619e-08
1.56686e-09
2.9308e-08
1.52455e-09
2.90529e-08
1.48446e-09
2.87974e-08
1.44444e-09
2.85417e-08
1.40676e-09
2.82867e-08
1.36885e-09
2.80324e-08
1.33343e-09
2.77796e-08
1.29732e-09
2.75283e-08
1.26404e-09
2.72793e-08
1.22966e-09
2.70322e-08
1.1985e-09
2.6788e-08
1.16595e-09
2.6546e-08
1.13684e-09
2.63074e-08
1.10586e-09
2.60713e-08
1.07862e-09
2.58389e-08
1.04887e-09
2.56093e-08
1.0234e-09
2.53838e-08
9.9475e-10
2.5161e-08
9.71115e-10
2.49426e-08
9.4347e-10
2.47269e-08
9.21555e-10
2.4516e-08
8.94642e-10
2.43077e-08
8.74237e-10
2.41044e-08
8.47832e-10
2.39036e-08
8.28959e-10
2.37082e-08
8.0297e-10
2.3515e-08
7.85671e-10
2.33275e-08
7.59701e-10
2.3142e-08
7.44274e-10
2.29626e-08
7.18038e-10
2.27849e-08
7.04144e-10
2.26136e-08
6.77928e-10
2.24436e-08
6.65806e-10
2.22804e-08
6.38976e-10
2.21182e-08
6.29177e-10
2.19631e-08
6.01968e-10
2.18085e-08
5.94401e-10
2.16613e-08
5.67086e-10
2.15141e-08
5.61946e-10
2.13745e-08
5.35063e-10
2.12344e-08
5.3311e-10
2.11014e-08
5.08315e-10
2.09677e-08
5.09037e-10
4.91093e-10
3.30511e-08
3.23251e-09
-3.29431e-08
3.33346e-08
3.95121e-09
3.36714e-08
4.50286e-09
3.39222e-08
4.60557e-09
3.40717e-08
4.35114e-09
3.41608e-08
3.98227e-09
3.42206e-08
3.66523e-09
3.42605e-08
3.43164e-09
3.42825e-08
3.25216e-09
3.42894e-08
3.09894e-09
3.42854e-08
2.96168e-09
3.42735e-08
2.84058e-09
3.42548e-08
2.73564e-09
3.42289e-08
2.64472e-09
3.41953e-08
2.56404e-09
3.41533e-08
2.49124e-09
3.41028e-08
2.42428e-09
3.40434e-08
2.36266e-09
3.39751e-08
2.30506e-09
3.38974e-08
2.25136e-09
3.38106e-08
2.2002e-09
3.37143e-08
2.1518e-09
3.36089e-08
2.10487e-09
3.34945e-08
2.0601e-09
3.33714e-08
2.01623e-09
3.32398e-08
1.97427e-09
3.31002e-08
1.93281e-09
3.29528e-08
1.89316e-09
3.27981e-08
1.85352e-09
3.26364e-08
1.81564e-09
3.24685e-08
1.77729e-09
3.22945e-08
1.7408e-09
3.21155e-08
1.70357e-09
3.19315e-08
1.66849e-09
3.17434e-08
1.63252e-09
3.15512e-08
1.59899e-09
3.13558e-08
1.56423e-09
3.11571e-08
1.53213e-09
3.09562e-08
1.49818e-09
3.07529e-08
1.46733e-09
3.05485e-08
1.43408e-09
3.03424e-08
1.40461e-09
3.01359e-08
1.37243e-09
2.99283e-08
1.3445e-09
2.97209e-08
1.31324e-09
2.95128e-08
1.28669e-09
2.93058e-08
1.25586e-09
2.90987e-08
1.23055e-09
2.88933e-08
1.20013e-09
2.8688e-08
1.1764e-09
2.8485e-08
1.14647e-09
2.82823e-08
1.12431e-09
2.80824e-08
1.09452e-09
2.7883e-08
1.07364e-09
2.76871e-08
1.04374e-09
2.74917e-08
1.02434e-09
2.73003e-08
9.9435e-10
2.71095e-08
9.76531e-10
2.69231e-08
9.4604e-10
2.67372e-08
9.30219e-10
2.65564e-08
8.9884e-10
2.63759e-08
8.8463e-10
2.6201e-08
8.52823e-10
2.60263e-08
8.40522e-10
2.58577e-08
8.07591e-10
2.56889e-08
7.97887e-10
2.55267e-08
7.64162e-10
2.53643e-08
7.56855e-10
2.52086e-08
7.22739e-10
2.50525e-08
7.18037e-10
2.49033e-08
6.84292e-10
2.47534e-08
6.83036e-10
2.46101e-08
6.51596e-10
2.44659e-08
6.53292e-10
6.28913e-10
3.41131e-08
3.12778e-09
-3.40084e-08
3.43427e-08
3.72166e-09
3.46394e-08
4.20609e-09
3.48833e-08
4.36171e-09
3.50371e-08
4.19735e-09
3.51279e-08
3.89149e-09
3.51892e-08
3.60392e-09
3.52338e-08
3.38696e-09
3.52639e-08
3.22205e-09
3.52808e-08
3.08203e-09
3.52881e-08
2.95439e-09
3.52894e-08
2.83931e-09
3.52868e-08
2.73827e-09
3.52806e-08
2.65091e-09
3.52707e-08
2.57392e-09
3.52567e-08
2.50523e-09
3.52386e-08
2.44241e-09
3.5216e-08
2.38524e-09
3.51889e-08
2.33216e-09
3.51568e-08
2.28345e-09
3.51196e-08
2.23739e-09
3.50768e-08
2.19458e-09
3.50285e-08
2.15325e-09
3.49741e-08
2.11448e-09
3.49138e-08
2.07648e-09
3.48473e-08
2.04078e-09
3.47748e-08
2.00537e-09
3.46957e-08
1.97217e-09
3.46106e-08
1.93863e-09
3.4519e-08
1.90724e-09
3.44215e-08
1.87482e-09
3.43177e-08
1.84457e-09
3.42084e-08
1.81286e-09
3.40933e-08
1.78363e-09
3.39731e-08
1.7527e-09
3.38475e-08
1.72467e-09
3.37172e-08
1.69452e-09
3.35817e-08
1.6676e-09
3.34422e-08
1.63769e-09
3.3298e-08
1.61148e-09
3.31507e-08
1.58142e-09
3.29993e-08
1.55596e-09
3.28455e-08
1.52629e-09
3.2688e-08
1.502e-09
3.25285e-08
1.47275e-09
3.23657e-08
1.44951e-09
3.22016e-08
1.41993e-09
3.20348e-08
1.39732e-09
3.18677e-08
1.36728e-09
3.16982e-08
1.3459e-09
3.15289e-08
1.31578e-09
3.13573e-08
1.29585e-09
3.11866e-08
1.26523e-09
3.1014e-08
1.24623e-09
3.08431e-08
1.21469e-09
3.06705e-08
1.1969e-09
3.05002e-08
1.16468e-09
3.03284e-08
1.14834e-09
3.01594e-08
1.11502e-09
2.99889e-08
1.10068e-09
2.9822e-08
1.06574e-09
2.96538e-08
1.05283e-09
2.94897e-08
1.01697e-09
2.93243e-08
1.00586e-09
2.91636e-08
9.68321e-10
2.90016e-08
9.59866e-10
2.88446e-08
9.21165e-10
2.86865e-08
9.14993e-10
2.85337e-08
8.75563e-10
2.83799e-08
8.71834e-10
2.82313e-08
8.32837e-10
2.80818e-08
8.32605e-10
2.79374e-08
7.95938e-10
2.7792e-08
7.98708e-10
7.69253e-10
3.51963e-08
3.02471e-09
-3.50932e-08
3.53885e-08
3.52951e-09
3.56458e-08
3.9488e-09
3.5877e-08
4.13044e-09
3.6034e-08
4.04041e-09
3.61279e-08
3.79753e-09
3.61901e-08
3.54177e-09
3.62367e-08
3.34035e-09
3.62709e-08
3.18783e-09
3.6293e-08
3.05998e-09
3.63053e-08
2.94208e-09
3.63113e-08
2.83331e-09
3.63138e-08
2.73577e-09
3.63137e-08
2.65093e-09
3.63116e-08
2.5761e-09
3.6307e-08
2.50977e-09
3.63004e-08
2.44907e-09
3.62915e-08
2.39414e-09
3.62805e-08
2.3431e-09
3.62672e-08
2.29673e-09
3.62517e-08
2.25295e-09
3.62334e-08
2.2129e-09
3.62124e-08
2.17423e-09
3.61882e-08
2.13862e-09
3.61611e-08
2.10364e-09
3.61304e-08
2.07149e-09
3.60963e-08
2.03944e-09
3.60582e-08
2.01024e-09
3.60165e-08
1.98042e-09
3.59702e-08
1.95344e-09
3.59201e-08
1.92502e-09
3.58652e-08
1.89942e-09
3.58063e-08
1.87175e-09
3.57427e-08
1.84726e-09
3.56751e-08
1.82031e-09
3.56026e-08
1.7971e-09
3.55262e-08
1.77096e-09
3.54448e-08
1.74901e-09
3.53595e-08
1.72302e-09
3.52692e-08
1.70178e-09
3.51754e-08
1.67517e-09
3.5077e-08
1.65433e-09
3.49756e-08
1.62769e-09
3.48698e-08
1.60789e-09
3.4761e-08
1.58147e-09
3.46477e-08
1.5628e-09
3.4532e-08
1.53565e-09
3.44122e-08
1.51718e-09
3.42907e-08
1.48875e-09
3.41654e-08
1.47119e-09
3.4039e-08
1.44219e-09
3.39087e-08
1.42616e-09
3.37776e-08
1.39631e-09
3.36429e-08
1.38089e-09
3.35083e-08
1.34932e-09
3.33704e-08
1.33478e-09
3.32331e-08
1.30198e-09
3.30928e-08
1.28867e-09
3.29536e-08
1.25425e-09
3.28113e-08
1.24298e-09
3.26707e-08
1.2063e-09
3.25275e-08
1.19602e-09
3.23864e-08
1.15804e-09
3.22431e-08
1.14924e-09
3.21023e-08
1.10904e-09
3.19594e-08
1.10276e-09
3.18194e-08
1.06123e-09
3.16774e-08
1.05696e-09
3.15386e-08
1.01434e-09
3.13986e-08
1.01187e-09
3.12615e-08
9.69957e-10
3.1123e-08
9.71068e-10
3.09877e-08
9.31286e-10
3.08513e-08
9.35033e-10
9.02683e-10
3.63018e-08
2.9248e-09
-3.62019e-08
3.64683e-08
3.36306e-09
3.66905e-08
3.72657e-09
3.69051e-08
3.91587e-09
3.70625e-08
3.88303e-09
3.71605e-08
3.69946e-09
3.72242e-08
3.47816e-09
3.72718e-08
3.29268e-09
3.73087e-08
3.15095e-09
3.73346e-08
3.03413e-09
3.73505e-08
2.92611e-09
3.73594e-08
2.82443e-09
3.73643e-08
2.73094e-09
3.73665e-08
2.64868e-09
3.73669e-08
2.57567e-09
3.73655e-08
2.51124e-09
3.73625e-08
2.45204e-09
3.7358e-08
2.39862e-09
3.73525e-08
2.34865e-09
3.73457e-08
2.30353e-09
3.73379e-08
2.26069e-09
3.73289e-08
2.22196e-09
3.73188e-08
2.18433e-09
3.73072e-08
2.15023e-09
3.72943e-08
2.11646e-09
3.72798e-08
2.08603e-09
3.72639e-08
2.05538e-09
3.72458e-08
2.02825e-09
3.72262e-08
2.0001e-09
3.7204e-08
1.97558e-09
3.71799e-08
1.94916e-09
3.71529e-08
1.92636e-09
3.71238e-08
1.90089e-09
3.70916e-08
1.87946e-09
3.70571e-08
1.85479e-09
3.70193e-08
1.83489e-09
3.6979e-08
1.81125e-09
3.69351e-08
1.793e-09
3.68884e-08
1.76967e-09
3.68377e-08
1.75249e-09
3.67844e-08
1.72844e-09
3.67272e-08
1.71155e-09
3.66676e-08
1.6873e-09
3.6604e-08
1.6715e-09
3.65379e-08
1.64749e-09
3.64675e-08
1.63322e-09
3.63946e-08
1.60853e-09
3.63174e-08
1.59437e-09
3.62384e-08
1.56778e-09
3.61553e-08
1.55431e-09
3.60708e-08
1.52674e-09
3.59819e-08
1.51505e-09
3.58914e-08
1.48676e-09
3.57968e-08
1.47555e-09
3.57011e-08
1.44494e-09
3.56016e-08
1.43429e-09
3.55015e-08
1.40208e-09
3.53977e-08
1.39244e-09
3.52938e-08
1.35823e-09
3.51859e-08
1.35083e-09
3.50782e-08
1.31405e-09
3.49672e-08
1.30697e-09
3.48565e-08
1.26876e-09
3.47429e-08
1.26282e-09
3.46301e-08
1.22187e-09
3.45148e-08
1.2181e-09
3.44e-08
1.17596e-09
3.4283e-08
1.17403e-09
3.41667e-08
1.13063e-09
3.40493e-08
1.12921e-09
3.39325e-08
1.08683e-09
3.3814e-08
1.08956e-09
3.36962e-08
1.04908e-09
3.35778e-08
1.05342e-09
1.02061e-09
3.74319e-08
2.82973e-09
-3.73369e-08
3.75798e-08
3.21523e-09
3.77728e-08
3.53354e-09
3.79687e-08
3.71993e-09
3.81233e-08
3.72841e-09
3.82253e-08
3.59752e-09
3.82912e-08
3.41224e-09
3.83398e-08
3.24412e-09
3.83784e-08
3.1123e-09
3.84073e-08
3.00524e-09
3.84266e-08
2.90681e-09
3.84381e-08
2.81289e-09
3.84449e-08
2.7242e-09
3.84486e-08
2.64497e-09
3.84504e-08
2.57389e-09
3.84503e-08
2.51134e-09
3.84487e-08
2.45356e-09
3.84458e-08
2.40156e-09
3.8442e-08
2.35245e-09
3.84372e-08
2.30828e-09
3.8432e-08
2.26592e-09
3.8426e-08
2.22799e-09
3.84196e-08
2.19075e-09
3.84124e-08
2.15744e-09
3.84048e-08
2.12405e-09
3.83963e-08
2.09446e-09
3.83875e-08
2.06417e-09
3.83777e-08
2.03805e-09
3.83675e-08
2.01035e-09
3.8356e-08
1.98704e-09
3.83439e-08
1.96131e-09
3.83303e-08
1.93997e-09
3.83159e-08
1.91532e-09
3.82997e-08
1.89561e-09
3.82827e-08
1.87182e-09
3.82637e-08
1.85384e-09
3.82437e-08
1.83126e-09
3.82214e-08
1.81532e-09
3.81978e-08
1.79324e-09
3.81715e-08
1.77886e-09
3.81437e-08
1.75617e-09
3.81132e-08
1.74207e-09
3.80814e-08
1.71917e-09
3.80466e-08
1.70626e-09
3.80104e-08
1.68365e-09
3.79709e-08
1.67279e-09
3.79295e-08
1.64989e-09
3.78846e-08
1.63931e-09
3.78382e-08
1.61411e-09
3.77884e-08
1.60416e-09
3.77375e-08
1.57763e-09
3.76829e-08
1.56966e-09
3.76266e-08
1.543e-09
3.75666e-08
1.53564e-09
3.75052e-08
1.5063e-09
3.74403e-08
1.49921e-09
3.73742e-08
1.46818e-09
3.73047e-08
1.46193e-09
3.72343e-08
1.42859e-09
3.71602e-08
1.42492e-09
3.7085e-08
1.38926e-09
3.7007e-08
1.38505e-09
3.69277e-08
1.34803e-09
3.68457e-08
1.34485e-09
3.67628e-08
1.30469e-09
3.66779e-08
1.30307e-09
3.65918e-08
1.26207e-09
3.65033e-08
1.26244e-09
3.64135e-08
1.22052e-09
3.63232e-08
1.21949e-09
3.62315e-08
1.1785e-09
3.6138e-08
1.18303e-09
3.60429e-08
1.14416e-09
3.59479e-08
1.14848e-09
1.11726e-09
3.8589e-08
2.74038e-09
-3.84997e-08
3.87222e-08
3.0821e-09
3.88915e-08
3.36416e-09
3.90688e-08
3.54262e-09
3.92178e-08
3.57944e-09
3.93224e-08
3.49297e-09
3.93911e-08
3.34347e-09
3.94408e-08
3.19446e-09
3.94806e-08
3.07247e-09
3.95118e-08
2.97403e-09
3.95341e-08
2.88455e-09
3.95483e-08
2.79868e-09
3.9557e-08
2.7155e-09
3.95621e-08
2.63988e-09
3.9565e-08
2.57096e-09
3.9566e-08
2.5104e-09
3.95654e-08
2.45412e-09
3.95633e-08
2.40363e-09
3.95603e-08
2.35544e-09
3.95564e-08
2.31222e-09
3.95521e-08
2.27026e-09
3.9547e-08
2.23302e-09
3.95418e-08
2.196e-09
3.9536e-08
2.16325e-09
3.95301e-08
2.12995e-09
3.95236e-08
2.10089e-09
3.95173e-08
2.07055e-09
3.95103e-08
2.04498e-09
3.95035e-08
2.0172e-09
3.9496e-08
1.99447e-09
3.94886e-08
1.96878e-09
3.94804e-08
1.94815e-09
3.94721e-08
1.92356e-09
3.9463e-08
1.90477e-09
3.94538e-08
1.88105e-09
3.94435e-08
1.86407e-09
3.94331e-08
1.84164e-09
3.94215e-08
1.82698e-09
3.94096e-08
1.8051e-09
3.9396e-08
1.79245e-09
3.9382e-08
1.77019e-09
3.93663e-08
1.75776e-09
3.93501e-08
1.73538e-09
3.93321e-08
1.72425e-09
3.93137e-08
1.70212e-09
3.9293e-08
1.69343e-09
3.92714e-08
1.67152e-09
3.92473e-08
1.66344e-09
3.92224e-08
1.63898e-09
3.91949e-08
1.63162e-09
3.9167e-08
1.60556e-09
3.91366e-08
1.60011e-09
3.91047e-08
1.57481e-09
3.90701e-08
1.57028e-09
3.90343e-08
1.54212e-09
3.89959e-08
1.53762e-09
3.89561e-08
1.50794e-09
3.89138e-08
1.50421e-09
3.88706e-08
1.47185e-09
3.88244e-08
1.47106e-09
3.87764e-08
1.43727e-09
3.87266e-08
1.43493e-09
3.86747e-08
1.3999e-09
3.86207e-08
1.39887e-09
3.85649e-08
1.36049e-09
3.85077e-08
1.36018e-09
3.84485e-08
1.32131e-09
3.83875e-08
1.32344e-09
3.83232e-08
1.28482e-09
3.82593e-08
1.28339e-09
3.81932e-08
1.24459e-09
3.81254e-08
1.25086e-09
3.80541e-08
1.21547e-09
3.79834e-08
1.21916e-09
1.19068e-09
3.97751e-08
2.65686e-09
-3.96916e-08
3.98958e-08
2.96138e-09
4.00461e-08
3.2139e-09
4.0206e-08
3.38271e-09
4.03473e-08
3.43817e-09
4.04526e-08
3.38763e-09
4.05243e-08
3.27178e-09
4.05754e-08
3.14334e-09
4.06161e-08
3.03177e-09
4.0649e-08
2.94115e-09
4.06738e-08
2.85977e-09
4.06905e-08
2.78191e-09
4.07013e-08
2.70476e-09
4.07078e-08
2.63332e-09
4.07119e-08
2.5669e-09
4.07138e-08
2.50848e-09
4.07142e-08
2.45379e-09
4.07129e-08
2.4049e-09
4.07106e-08
2.35778e-09
4.07072e-08
2.3156e-09
4.07033e-08
2.27411e-09
4.06988e-08
2.23757e-09
4.0694e-08
2.20076e-09
4.06887e-08
2.16852e-09
4.06834e-08
2.1353e-09
4.06776e-08
2.10666e-09
4.0672e-08
2.07618e-09
4.0666e-08
2.05101e-09
4.06602e-08
2.02299e-09
4.06541e-08
2.00055e-09
4.06482e-08
1.97469e-09
4.06419e-08
1.9544e-09
4.06359e-08
1.92958e-09
4.06294e-08
1.9113e-09
4.06231e-08
1.8873e-09
4.06164e-08
1.87082e-09
4.06099e-08
1.84812e-09
4.06027e-08
1.83414e-09
4.05959e-08
1.81189e-09
4.05882e-08
1.80022e-09
4.05805e-08
1.7779e-09
4.05719e-08
1.76631e-09
4.05633e-08
1.74401e-09
4.05537e-08
1.7338e-09
4.05442e-08
1.7116e-09
4.05337e-08
1.70401e-09
4.05227e-08
1.6825e-09
4.05102e-08
1.67591e-09
4.04975e-08
1.65169e-09
4.04831e-08
1.64601e-09
4.04686e-08
1.62006e-09
4.04529e-08
1.61583e-09
4.04362e-08
1.59155e-09
4.04177e-08
1.58869e-09
4.03984e-08
1.5615e-09
4.03776e-08
1.55842e-09
4.03555e-08
1.53004e-09
4.03319e-08
1.52781e-09
4.03074e-08
1.49627e-09
4.02814e-08
1.49714e-09
4.0253e-08
1.46564e-09
4.0224e-08
1.46393e-09
4.01928e-08
1.43108e-09
4.01603e-08
1.4314e-09
4.01254e-08
1.39532e-09
4.00903e-08
1.39531e-09
4.00528e-08
1.35883e-09
4.00144e-08
1.36186e-09
3.99715e-08
1.32769e-09
3.99296e-08
1.32529e-09
3.98857e-08
1.28849e-09
3.98404e-08
1.29617e-09
3.97904e-08
1.26547e-09
3.97414e-08
1.26813e-09
1.24262e-09
4.09919e-08
2.57886e-09
-4.09139e-08
4.11017e-08
2.85154e-09
4.12362e-08
3.07939e-09
4.13805e-08
3.2384e-09
4.1513e-08
3.30574e-09
4.16172e-08
3.28335e-09
4.16913e-08
3.19769e-09
4.17442e-08
3.09046e-09
4.17857e-08
2.99026e-09
4.18197e-08
2.90713e-09
4.18465e-08
2.83302e-09
4.18656e-08
2.76278e-09
4.18784e-08
2.69195e-09
4.18865e-08
2.62522e-09
4.18918e-08
2.56167e-09
4.18947e-08
2.50556e-09
4.18959e-08
2.45257e-09
4.18954e-08
2.40537e-09
4.18938e-08
2.35945e-09
4.18909e-08
2.31842e-09
4.18875e-08
2.27751e-09
4.18834e-08
2.2417e-09
4.1879e-08
2.2052e-09
4.1874e-08
2.17346e-09
4.1869e-08
2.14036e-09
4.18635e-08
2.11213e-09
4.18581e-08
2.08154e-09
4.18525e-08
2.0567e-09
4.1847e-08
2.02848e-09
4.18413e-08
2.00617e-09
4.18359e-08
1.98014e-09
4.18303e-08
1.96001e-09
4.1825e-08
1.9349e-09
4.18193e-08
1.91693e-09
4.18141e-08
1.89259e-09
4.18085e-08
1.87634e-09
4.18034e-08
1.85326e-09
4.17979e-08
1.83963e-09
4.1793e-08
1.81681e-09
4.17875e-08
1.80564e-09
4.17823e-08
1.78311e-09
4.17768e-08
1.77181e-09
4.17714e-08
1.74947e-09
4.17655e-08
1.73964e-09
4.17599e-08
1.71719e-09
4.1754e-08
1.70995e-09
4.1748e-08
1.68853e-09
4.17412e-08
1.68265e-09
4.17346e-08
1.65837e-09
4.17269e-08
1.65368e-09
4.17192e-08
1.62775e-09
4.17113e-08
1.6237e-09
4.17026e-08
1.60023e-09
4.16933e-08
1.59803e-09
4.16832e-08
1.57164e-09
4.16726e-08
1.56896e-09
4.16609e-08
1.54176e-09
4.16485e-08
1.54019e-09
4.16355e-08
1.50928e-09
4.1622e-08
1.51062e-09
4.16061e-08
1.48157e-09
4.15906e-08
1.47948e-09
4.15731e-08
1.44855e-09
4.1555e-08
1.44945e-09
4.15346e-08
1.41581e-09
4.15145e-08
1.41535e-09
4.14923e-08
1.38102e-09
4.14702e-08
1.384e-09
4.14432e-08
1.35465e-09
4.14173e-08
1.35119e-09
4.13902e-08
1.31565e-09
4.13622e-08
1.32414e-09
4.13291e-08
1.29861e-09
4.1297e-08
1.3002e-09
1.27719e-09
4.22407e-08
2.50594e-09
-4.21678e-08
4.23409e-08
2.75133e-09
4.24622e-08
2.95814e-09
4.25928e-08
3.10785e-09
4.2716e-08
3.1825e-09
4.28176e-08
3.18171e-09
4.28932e-08
3.12213e-09
4.29479e-08
3.03575e-09
4.29903e-08
2.94787e-09
4.30251e-08
2.8723e-09
4.30533e-08
2.80481e-09
4.30745e-08
2.74162e-09
4.30893e-08
2.67715e-09
4.3099e-08
2.61551e-09
4.31054e-08
2.55526e-09
4.31093e-08
2.50165e-09
4.31114e-08
2.45048e-09
4.31118e-08
2.40502e-09
4.31108e-08
2.36043e-09
4.31086e-08
2.32064e-09
4.31056e-08
2.28044e-09
4.31019e-08
2.24541e-09
4.30978e-08
2.20931e-09
4.30932e-08
2.17808e-09
4.30884e-08
2.14518e-09
4.30832e-08
2.11735e-09
4.3078e-08
2.08672e-09
4.30725e-08
2.06217e-09
4.30671e-08
2.03384e-09
4.30617e-08
2.01158e-09
4.30564e-08
1.98544e-09
4.30511e-08
1.96538e-09
4.3046e-08
1.94e-09
4.30407e-08
1.92222e-09
4.30357e-08
1.8976e-09
4.30306e-08
1.88145e-09
4.30258e-08
1.85801e-09
4.30209e-08
1.84457e-09
4.30165e-08
1.82118e-09
4.3012e-08
1.81016e-09
4.30076e-08
1.7875e-09
4.30033e-08
1.7761e-09
4.2999e-08
1.7538e-09
4.29946e-08
1.74402e-09
4.29904e-08
1.72135e-09
4.29864e-08
1.71401e-09
4.29823e-08
1.69255e-09
4.29781e-08
1.68688e-09
4.2974e-08
1.66244e-09
4.29695e-08
1.65823e-09
4.29648e-08
1.63249e-09
4.29605e-08
1.62791e-09
4.29556e-08
1.60513e-09
4.29508e-08
1.6029e-09
4.29452e-08
1.57721e-09
4.29399e-08
1.57422e-09
4.29336e-08
1.54808e-09
4.29272e-08
1.54662e-09
4.29202e-08
1.51624e-09
4.29137e-08
1.51712e-09
4.29048e-08
1.49048e-09
4.28969e-08
1.48743e-09
4.28874e-08
1.45799e-09
4.2878e-08
1.45886e-09
4.28662e-08
1.42757e-09
4.28553e-08
1.42626e-09
4.28427e-08
1.39369e-09
4.28308e-08
1.39582e-09
4.28145e-08
1.371e-09
4.27989e-08
1.36682e-09
4.27828e-08
1.33175e-09
4.27665e-08
1.34037e-09
4.27453e-08
1.31978e-09
4.27249e-08
1.32062e-09
1.29936e-09
4.3523e-08
2.43767e-09
-4.34547e-08
4.36147e-08
2.65964e-09
4.37245e-08
2.84831e-09
4.3843e-08
2.98934e-09
4.39572e-08
3.06828e-09
4.40551e-08
3.08385e-09
4.4131e-08
3.04618e-09
4.41874e-08
2.97944e-09
4.42307e-08
2.9045e-09
4.42662e-08
2.83683e-09
4.42954e-08
2.77556e-09
4.43182e-08
2.71883e-09
4.43349e-08
2.66053e-09
4.43462e-08
2.60421e-09
4.43538e-08
2.54763e-09
4.43587e-08
2.49675e-09
4.43616e-08
2.44754e-09
4.43628e-08
2.40387e-09
4.43625e-08
2.36072e-09
4.43609e-08
2.32224e-09
4.43585e-08
2.28288e-09
4.43552e-08
2.24866e-09
4.43514e-08
2.21308e-09
4.43472e-08
2.18235e-09