/*--------------------------------*- C++ -*----------------------------------*\
| =========                 |                                                 |
| \\      /  F ield         | OpenFOAM: The Open Source CFD Toolbox           |
|  \\    /   O peration     | Version:  2.3.0                                 |
|   \\  /    A nd           | Web:      www.OpenFOAM.org                      |
|    \\/     M anipulation  |                                                 |
\*---------------------------------------------------------------------------*/
FoamFile
{
    version     2.0;
    format      ascii;
    class       volScalarField;
    location    "0.45";
    object      p;
}
// * * * * * * * * * * * * * * * * * * * * * * * * * * * * * * * * * * * * * //

dimensions      [0 2 -2 0 0 0 0];

internalField   nonuniform List<scalar> 
3105
(
0.00228555
0.00174587
0.0012655
0.000912989
0.000627666
0.000375221
0.000152559
-3.62832e-05
-0.000189626
-0.000308434
-0.000395379
-0.000454398
-0.000490279
-0.000508108
-0.000512717
-0.000508298
-0.000498207
-0.000484943
-0.00047024
-0.000455209
-0.000440496
-0.000426426
-0.000413121
-0.00040058
-0.000388743
-0.000377525
-0.000366842
-0.000356616
-0.000346784
-0.000337298
-0.000328121
-0.000319227
-0.000310597
-0.00030222
-0.000294086
-0.000286191
-0.000278529
-0.000271099
-0.000263899
-0.000256927
-0.00025018
-0.000243659
-0.00023736
-0.000231283
-0.000225424
-0.000219783
-0.000214357
-0.000209143
-0.000204138
-0.000199339
-0.000194743
-0.000190347
-0.000186146
-0.000182137
-0.000178314
-0.000174672
-0.000171207
-0.000167912
-0.000164781
-0.000161807
-0.000158983
-0.000156302
-0.000153754
-0.00015133
-0.000149021
-0.000146816
-0.000144704
-0.000142672
-0.000140708
-0.000138798
-0.000136926
-0.000135076
-0.000133232
-0.000131375
-0.000129486
-0.000127544
-0.000125528
-0.000123414
-0.000121178
-0.000118791
-0.000116223
-0.000113435
-0.000110386
-0.000107025
-0.000103298
-9.9145e-05
-9.45116e-05
-8.93562e-05
-8.36589e-05
-7.7431e-05
-7.07504e-05
-6.36879e-05
-5.63593e-05
-4.88634e-05
-4.12899e-05
-3.3715e-05
-2.61778e-05
-1.86977e-05
-1.12643e-05
-3.84813e-06
0.00201178
0.00162465
0.00123614
0.000919979
0.000650084
0.000405263
0.000185991
-2.04314e-06
-0.00015611
-0.000276572
-0.000365749
-0.000427325
-0.000465894
-0.000486389
-0.000493537
-0.000491458
-0.000483469
-0.000472057
-0.000458957
-0.000445296
-0.000431744
-0.000418655
-0.000406175
-0.000394331
-0.000383085
-0.000372372
-0.000362123
-0.000352274
-0.000342772
-0.000333577
-0.000324658
-0.000315994
-0.000307572
-0.000299382
-0.000291419
-0.000283679
-0.00027616
-0.000268861
-0.000261781
-0.00025492
-0.000248278
-0.000241852
-0.000235643
-0.00022965
-0.00022387
-0.000218303
-0.000212946
-0.000207797
-0.000202854
-0.000198114
-0.000193574
-0.00018923
-0.000185079
-0.000181117
-0.00017734
-0.000173742
-0.000170318
-0.000167063
-0.00016397
-0.000161034
-0.000158245
-0.000155598
-0.000153083
-0.000150691
-0.000148414
-0.000146239
-0.000144156
-0.000142153
-0.000140217
-0.000138334
-0.000136489
-0.000134666
-0.000132848
-0.000131016
-0.000129151
-0.000127234
-0.000125242
-0.000123152
-0.000120939
-0.000118576
-0.00011603
-0.000113266
-0.000110241
-0.000106906
-0.000103205
-9.9079e-05
-9.44725e-05
-8.93414e-05
-8.36649e-05
-7.74684e-05
-7.07981e-05
-6.37412e-05
-5.6414e-05
-4.89176e-05
-4.13418e-05
-3.37646e-05
-2.62236e-05
-1.87384e-05
-1.12987e-05
-3.88322e-06
0.00180737
0.00151579
0.00119216
0.000905414
0.000652664
0.000422014
0.000213901
3.32735e-05
-0.000117
-0.000236758
-0.00032765
-0.000392611
-0.00043549
-0.000460586
-0.000472148
-0.000473998
-0.00046931
-0.000460546
-0.000449499
-0.000437389
-0.000424993
-0.000412763
-0.000400928
-0.000389579
-0.000378726
-0.000368336
-0.000358362
-0.000348754
-0.000339469
-0.000330471
-0.000321735
-0.00031324
-0.000304975
-0.000296931
-0.000289103
-0.000281489
-0.000274088
-0.000266898
-0.00025992
-0.000253154
-0.000246599
-0.000240257
-0.000234125
-0.000228204
-0.000222492
-0.000216988
-0.000211691
-0.000206599
-0.00020171
-0.00019702
-0.000192528
-0.00018823
-0.000184123
-0.000180202
-0.000176464
-0.000172904
-0.000169516
-0.000166296
-0.000163236
-0.000160332
-0.000157575
-0.000154957
-0.000152471
-0.000150108
-0.000147857
-0.00014571
-0.000143653
-0.000141676
-0.000139765
-0.000137906
-0.000136085
-0.000134285
-0.00013249
-0.000130681
-0.00012884
-0.000126945
-0.000124975
-0.000122908
-0.000120717
-0.000118376
-0.000115853
-0.000113112
-0.000110111
-0.000106799
-0.000103122
-9.90208e-05
-9.44375e-05
-8.93272e-05
-8.36659e-05
-7.74633e-05
-7.07918e-05
-6.37518e-05
-5.64397e-05
-4.89504e-05
-4.13773e-05
-3.38037e-05
-2.62667e-05
-1.87882e-05
-1.1362e-05
-3.99487e-06
0.0016311
0.00140266
0.00113258
0.000878114
0.000647402
0.000435221
0.000242077
7.21271e-05
-7.16742e-05
-0.000188627
-0.00027971
-0.000347103
-0.000393884
-0.000423644
-0.000440064
-0.000446564
-0.000446077
-0.000440953
-0.000432967
-0.000423378
-0.000413029
-0.000402451
-0.000391948
-0.000381676
-0.0003717
-0.000362034
-0.000352663
-0.000343564
-0.000334715
-0.000326093
-0.000317686
-0.000309481
-0.000301473
-0.000293659
-0.000286037
-0.00027861
-0.000271378
-0.000264342
-0.000257505
-0.000250869
-0.000244434
-0.000238202
-0.000232173
-0.000226347
-0.000220724
-0.000215304
-0.000210085
-0.000205066
-0.000200245
-0.00019562
-0.000191189
-0.000186949
-0.000182897
-0.000179028
-0.000175339
-0.000171826
-0.000168484
-0.000165306
-0.000162288
-0.000159422
-0.000156703
-0.000154122
-0.000151671
-0.000149342
-0.000147124
-0.000145008
-0.000142982
-0.000141035
-0.000139153
-0.000137323
-0.00013553
-0.000133758
-0.000131991
-0.000130209
-0.000128394
-0.000126525
-0.000124582
-0.000122541
-0.000120376
-0.000118062
-0.000115565
-0.000112851
-0.000109877
-0.000106592
-0.000102942
-9.88653e-05
-9.43056e-05
-8.92168e-05
-8.35765e-05
-7.7396e-05
-7.07228e-05
-6.36715e-05
-5.63832e-05
-4.89303e-05
-4.13862e-05
-3.38374e-05
-2.63222e-05
-1.88722e-05
-1.15009e-05
-4.29391e-06
0.00147265
0.00129094
0.00106784
0.000846269
0.000638664
0.000445123
0.000267163
0.000108545
-2.77546e-05
-0.000140653
-0.000230619
-0.000299246
-0.000348959
-0.000382705
-0.0004036
-0.000414625
-0.00041841
-0.000417128
-0.000412474
-0.000405703
-0.000397697
-0.000389046
-0.000380123
-0.00037115
-0.000362249
-0.000353482
-0.000344872
-0.000336427
-0.000328145
-0.000320023
-0.000312057
-0.000304247
-0.000296594
-0.0002891
-0.000281769
-0.000274605
-0.000267613
-0.000260797
-0.000254161
-0.000247709
-0.000241444
-0.000235368
-0.000229483
-0.00022379
-0.000218291
-0.000212985
-0.000207873
-0.000202953
-0.000198226
-0.000193688
-0.000189339
-0.000185175
-0.000181195
-0.000177395
-0.00017377
-0.000170318
-0.000167033
-0.00016391
-0.000160944
-0.000158128
-0.000155456
-0.00015292
-0.000150512
-0.000148224
-0.000146046
-0.000143968
-0.00014198
-0.000140069
-0.000138222
-0.000136426
-0.000134667
-0.000132928
-0.000131192
-0.000129442
-0.000127659
-0.000125821
-0.000123909
-0.000121899
-0.000119766
-0.000117483
-0.000115018
-0.000112335
-0.000109391
-0.000106137
-0.000102517
-9.84705e-05
-9.39405e-05
-8.88822e-05
-8.32748e-05
-7.71325e-05
-7.05108e-05
-6.35129e-05
-5.62325e-05
-4.87884e-05
-4.12969e-05
-3.38124e-05
-2.63621e-05
-1.89855e-05
-1.17356e-05
-4.84357e-06
0.00133461
0.00118734
0.00100275
0.000811068
0.000625508
0.000449813
0.00028667
0.000139591
1.14288e-05
-9.65054e-05
-0.000184292
-0.000253046
-0.00030464
-0.000341455
-0.000366085
-0.000381082
-0.000388761
-0.000391092
-0.000389663
-0.000385689
-0.000380064
-0.000373416
-0.00036617
-0.000358601
-0.000350881
-0.000343116
-0.000335364
-0.000327662
-0.00032003
-0.000312481
-0.000305027
-0.000297676
-0.000290437
-0.000283318
-0.000276329
-0.000269478
-0.000262772
-0.000256219
-0.000249825
-0.000243596
-0.000237537
-0.000231651
-0.000225943
-0.000220415
-0.000215069
-0.000209906
-0.000204927
-0.000200131
-0.00019552
-0.000191091
-0.000186844
-0.000182776
-0.000178886
-0.00017517
-0.000171625
-0.000168248
-0.000165033
-0.000161977
-0.000159074
-0.000156318
-0.000153702
-0.00015122
-0.000148863
-0.000146624
-0.000144492
-0.000142459
-0.000140513
-0.000138643
-0.000136836
-0.000135079
-0.000133357
-0.000131654
-0.000129954
-0.00012824
-0.000126491
-0.000124689
-0.000122811
-0.000120836
-0.000118738
-0.000116489
-0.000114059
-0.000111411
-0.000108503
-0.000105284
-0.0001017
-9.7691e-05
-9.3203e-05
-8.81926e-05
-8.26414e-05
-7.65659e-05
-7.00227e-05
-6.31075e-05
-5.59201e-05
-4.85725e-05
-4.11507e-05
-3.3713e-05
-2.63331e-05
-1.90714e-05
-1.20035e-05
-5.57699e-06
0.00121423
0.00109203
0.000938051
0.000772723
0.000607982
0.000449467
0.000300745
0.000165171
4.54419e-05
-5.69852e-05
-0.000141866
-0.000209903
-0.000262498
-0.000301537
-0.000329151
-0.000347497
-0.000358588
-0.000364185
-0.000365746
-0.00036443
-0.000361117
-0.000356451
-0.000350891
-0.000344753
-0.000338252
-0.000331527
-0.000324673
-0.000317751
-0.000310804
-0.000303861
-0.000296948
-0.000290084
-0.000283285
-0.000276567
-0.000269944
-0.000263427
-0.00025703
-0.000250761
-0.000244629
-0.000238643
-0.000232809
-0.000227133
-0.00022162
-0.000216274
-0.000211097
-0.000206093
-0.000201262
-0.000196606
-0.000192124
-0.000187818
-0.000183685
-0.000179725
-0.000175936
-0.000172315
-0.00016886
-0.000165567
-0.000162432
-0.00015945
-0.000156617
-0.000153927
-0.000151374
-0.000148951
-0.000146651
-0.000144464
-0.000142383
-0.000140398
-0.000138497
-0.000136671
-0.000134905
-0.000133188
-0.000131505
-0.00012984
-0.000128178
-0.0001265
-0.000124788
-0.000123021
-0.00012118
-0.000119241
-0.00011718
-0.000114968
-0.000112575
-0.000109965
-0.000107095
-0.000103917
-0.000100376
-9.64176e-05
-9.19883e-05
-8.7049e-05
-8.1584e-05
-7.5611e-05
-6.91851e-05
-6.23952e-05
-5.53388e-05
-4.81182e-05
-4.08191e-05
-3.35105e-05
-2.62617e-05
-1.91382e-05
-1.22639e-05
-6.29492e-06
0.00110824
0.00100467
0.000875042
0.000732631
0.000587203
0.000444969
0.000310019
0.000185628
7.43501e-05
-2.22715e-05
-0.000103734
-0.000170391
-0.000223247
-0.000263764
-0.000293667
-0.000314758
-0.000328763
-0.000337238
-0.000341506
-0.000342649
-0.000341515
-0.00033875
-0.000334833
-0.000330107
-0.00032482
-0.000319142
-0.000313195
-0.000307066
-0.000300817
-0.000294495
-0.000288136
-0.00028177
-0.000275423
-0.000269116
-0.000262868
-0.000256697
-0.000250616
-0.00024464
-0.000238779
-0.000233044
-0.000227444
-0.000221985
-0.000216674
-0.000211517
-0.000206517
-0.000201677
-0.000197001
-0.00019249
-0.000188144
-0.000183965
-0.000179952
-0.000176105
-0.000172421
-0.0001689
-0.000165538
-0.000162332
-0.000159279
-0.000156375
-0.000153614
-0.000150992
-0.000148503
-0.00014614
-0.000143896
-0.000141763
-0.000139732
-0.000137793
-0.000135938
-0.000134153
-0.000132429
-0.00013075
-0.000129104
-0.000127476
-0.000125848
-0.000124205
-0.000122527
-0.000120796
-0.000118989
-0.000117086
-0.00011506
-0.000112885
-0.00011053
-0.000107959
-0.00010513
-0.000101998
-9.85098e-05
-9.46137e-05
-9.02614e-05
-8.54174e-05
-8.00689e-05
-7.42341e-05
-6.79648e-05
-6.13424e-05
-5.44588e-05
-4.74092e-05
-4.02775e-05
-3.31335e-05
-2.60468e-05
-1.90971e-05
-1.24461e-05
-6.81306e-06
0.00101411
0.000924897
0.000814717
0.000691936
0.000564019
0.000436945
0.000314981
0.000201322
9.83898e-05
7.75499e-06
-6.989e-05
-0.000134618
-0.000187098
-0.000228433
-0.000259992
-0.000283258
-0.000299696
-0.000310659
-0.000317333
-0.000320712
-0.000321602
-0.000320634
-0.000318293
-0.000314941
-0.000310847
-0.000306207
-0.000301168
-0.000295836
-0.00029029
-0.000284594
-0.000278796
-0.000272935
-0.000267046
-0.000261156
-0.000255289
-0.000249467
-0.000243708
-0.000238029
-0.000232443
-0.000226963
-0.000221599
-0.000216361
-0.000211255
-0.000206289
-0.000201468
-0.000196797
-0.000192277
-0.000187913
-0.000183705
-0.000179656
-0.000175764
-0.00017203
-0.000168453
-0.000165031
-0.000161762
-0.000158644
-0.000155673
-0.000152846
-0.000150157
-0.000147602
-0.000145175
-0.00014287
-0.00014068
-0.000138598
-0.000136614
-0.00013472
-0.000132906
-0.000131161
-0.000129473
-0.000127829
-0.000126216
-0.00012462
-0.000123024
-0.000121411
-0.000119764
-0.000118064
-0.000116289
-0.000114417
-0.000112425
-0.000110285
-0.000107967
-0.000105435
-0.000102651
-9.95688e-05
-9.61415e-05
-9.23202e-05
-8.80613e-05
-8.33339e-05
-7.81279e-05
-7.2461e-05
-6.63812e-05
-5.99619e-05
-5.32881e-05
-4.64476e-05
-3.95204e-05
-3.25763e-05
-2.56866e-05
-1.89379e-05
-1.25026e-05
-7.02866e-06
0.00092986
0.000852043
0.00075753
0.000651404
0.000539112
0.00042598
0.000316159
0.000212715
0.000117931
3.33635e-05
-4.01706e-05
-0.000102522
-0.000154085
-0.000195656
-0.000228298
-0.000253212
-0.000271622
-0.00028469
-0.000293464
-0.000298847
-0.000301589
-0.000302297
-0.00030145
-0.000299417
-0.000296484
-0.000292866
-0.000288724
-0.000284185
-0.000279344
-0.000274277
-0.000269043
-0.000263692
-0.000258264
-0.000252795
-0.000247313
-0.000241845
-0.000236412
-0.000231033
-0.000225725
-0.000220503
-0.000215379
-0.000210364
-0.000205467
-0.000200695
-0.000196056
-0.000191553
-0.000187193
-0.000182977
-0.000178909
-0.000174989
-0.00017122
-0.0001676
-0.00016413
-0.000160808
-0.000157633
-0.000154602
-0.000151712
-0.00014896
-0.000146342
-0.000143852
-0.000141486
-0.000139238
-0.0001371
-0.000135065
-0.000133126
-0.000131273
-0.000129497
-0.000127787
-0.000126132
-0.000124519
-0.000122936
-0.000121368
-0.000119799
-0.000118213
-0.000116593
-0.00011492
-0.000113173
-0.000111331
-0.000109369
-0.000107262
-0.00010498
-0.000102488
-9.97501e-05
-9.67235e-05
-9.3364e-05
-8.96277e-05
-8.54759e-05
-8.08818e-05
-7.58377e-05
-7.03605e-05
-6.44939e-05
-5.83035e-05
-5.18665e-05
-4.52635e-05
-3.85697e-05
-3.18534e-05
-2.51847e-05
-1.86494e-05
-1.2405e-05
-6.94531e-06
0.000853885
0.000785375
0.000703628
0.000611591
0.000513092
0.000412644
0.00031408
0.000220275
0.000133362
5.4848e-05
-1.43766e-05
-7.3997e-05
-0.000124184
-0.000165481
-0.000198689
-0.000224761
-0.000244704
-0.000259503
-0.000270071
-0.000277216
-0.000281625
-0.000283873
-0.000284422
-0.000283642
-0.000281825
-0.000279198
-0.000275938
-0.000272182
-0.000268041
-0.000263602
-0.000258933
-0.000254094
-0.000249132
-0.000244087
-0.000238994
-0.000233883
-0.00022878
-0.000223705
-0.00021868
-0.00021372
-0.00020884
-0.000204051
-0.000199366
-0.000194792
-0.000190337
-0.000186007
-0.000181808
-0.000177744
-0.000173817
-0.000170031
-0.000166385
-0.000162881
-0.00015952
-0.000156299
-0.000153218
-0.000150275
-0.000147467
-0.000144791
-0.000142243
-0.000139819
-0.000137513
-0.00013532
-0.000133233
-0.000131245
-0.000129348
-0.000127535
-0.000125795
-0.000124118
-0.000122494
-0.00012091
-0.000119354
-0.000117811
-0.000116267
-0.000114706
-0.00011311
-0.000111461
-0.00010974
-0.000107925
-0.000105994
-0.000103919
-0.000101673
-9.92231e-05
-9.65345e-05
-9.3568e-05
-9.02832e-05
-8.66407e-05
-8.26065e-05
-7.81578e-05
-7.32888e-05
-6.80156e-05
-6.23772e-05
-5.64319e-05
-5.02493e-05
-4.39025e-05
-3.74614e-05
-3.09912e-05
-2.45583e-05
-1.82411e-05
-1.21642e-05
-6.64477e-06
0.000784907
0.000724178
0.000652973
0.000572865
0.000486455
0.000397441
0.000309229
0.000224446
0.000145063
7.25113e-05
7.71195e-06
-4.89045e-05
-9.73346e-05
-0.000137914
-0.000171225
-0.000198005
-0.000219067
-0.000235236
-0.000247293
-0.000255951
-0.000261834
-0.000265471
-0.000267306
-0.000267698
-0.00026694
-0.000265265
-0.000262859
-0.000259871
-0.00025642
-0.000252602
-0.000248496
-0.000244168
-0.000239672
-0.000235055
-0.000230354
-0.000225604
-0.000220834
-0.000216068
-0.000211329
-0.000206636
-0.000202003
-0.000197447
-0.000192977
-0.000188605
-0.000184339
-0.000180186
-0.000176153
-0.000172243
-0.000168462
-0.000164811
-0.000161293
-0.000157908
-0.000154658
-0.000151541
-0.000148557
-0.000145704
-0.00014298
-0.000140382
-0.000137906
-0.000135548
-0.000133303
-0.000131166
-0.000129131
-0.00012719
-0.000125337
-0.000123563
-0.00012186
-0.000120216
-0.000118623
-0.000117067
-0.000115537
-0.000114019
-0.000112499
-0.000110962
-0.00010939
-0.000107766
-0.000106071
-0.000104284
-0.000102382
-0.000100341
-9.81336e-05
-9.5729e-05
-9.30941e-05
-9.01933e-05
-8.69899e-05
-8.34489e-05
-7.95407e-05
-7.52461e-05
-7.0561e-05
-6.55002e-05
-6.00985e-05
-5.44074e-05
-4.84891e-05
-4.24094e-05
-3.62326e-05
-3.00196e-05
-2.3831e-05
-1.7733e-05
-1.18116e-05
-6.23189e-06
0.000721889
0.000667794
0.000605411
0.000535441
0.000459583
0.000380803
0.00030204
0.000225645
0.000153406
8.66629e-05
2.6331e-05
-2.70846e-05
-7.345e-05
-0.000112935
-0.000145939
-0.000173018
-0.000194815
-0.000212007
-0.000225254
-0.000235176
-0.000242328
-0.000247196
-0.000250192
-0.000251664
-0.000251896
-0.000251122
-0.000249535
-0.000247288
-0.000244509
-0.000241302
-0.000237753
-0.000233932
-0.000229901
-0.00022571
-0.000221402
-0.000217016
-0.000212582
-0.000208129
-0.00020368
-0.000199257
-0.000194877
-0.000190556
-0.000186307
-0.000182141
-0.000178069
-0.000174097
-0.000170234
-0.000166484
-0.000162853
-0.000159342
-0.000155955
-0.000152694
-0.000149559
-0.00014655
-0.000143666
-0.000140907
-0.00013827
-0.000135752
-0.000133351
-0.000131062
-0.000128881
-0.000126803
-0.000124822
-0.000122931
-0.000121123
-0.000119391
-0.000117725
-0.000116116
-0.000114555
-0.000113029
-0.000111527
-0.000110035
-0.000108541
-0.000107029
-0.000105483
-0.000103885
-0.000102218
-0.00010046
-9.85918e-05
-9.65879e-05
-9.44228e-05
-9.20678e-05
-8.94922e-05
-8.66633e-05
-8.35482e-05
-8.0116e-05
-7.63411e-05
-7.22073e-05
-6.77118e-05
-6.28682e-05
-5.77075e-05
-5.2275e-05
-4.6626e-05
-4.08192e-05
-3.49133e-05
-2.89636e-05
-2.30241e-05
-1.71471e-05
-1.13837e-05
-5.79375e-06
0.000663982
0.000615632
0.000560728
0.000499418
0.000432758
0.000363091
0.000292906
0.000224258
0.000158749
9.76093e-05
4.1724e-05
-8.36255e-06
-5.24232e-05
-9.0499e-05
-0.000122841
-0.000149852
-0.000172029
-0.000189916
-0.000204063
-0.000215
-0.000223216
-0.000229145
-0.000233169
-0.000235615
-0.000236756
-0.000236824
-0.000236009
-0.000234471
-0.00023234
-0.000229726
-0.00022672
-0.000223399
-0.000219827
-0.00021606
-0.000212144
-0.000208121
-0.000204025
-0.000199886
-0.000195731
-0.000191582
-0.000187458
-0.000183377
-0.000179353
-0.000175399
-0.000171525
-0.00016774
-0.000164052
-0.000160466
-0.000156989
-0.000153624
-0.000150373
-0.00014724
-0.000144224
-0.000141327
-0.000138548
-0.000135887
-0.000133341
-0.000130908
-0.000128586
-0.00012637
-0.000124256
-0.00012224
-0.000120316
-0.000118478
-0.000116718
-0.00011503
-0.000113405
-0.000111835
-0.000110308
-0.000108815
-0.000107343
-0.000105882
-0.000104416
-0.000102932
-0.000101414
-9.98462e-05
-9.82102e-05
-9.64868e-05
-9.46553e-05
-9.26931e-05
-9.05756e-05
-8.82761e-05
-8.57662e-05
-8.30162e-05
-7.99967e-05
-7.66804e-05
-7.30453e-05
-6.90778e-05
-6.47762e-05
-6.01531e-05
-5.52355e-05
-5.00636e-05
-4.46859e-05
-3.91551e-05
-3.35235e-05
-2.7841e-05
-2.21541e-05
-1.65023e-05
-1.09108e-05
-5.38191e-06
0.000610478
0.000567169
0.000518678
0.000464813
0.000406176
0.000344603
0.000282167
0.000220639
0.000161428
0.000105649
5.41366e-05
7.44745e-06
-3.413e-05
-7.05404e-05
-0.000101917
-0.000128536
-0.00015077
-0.000169046
-0.000183816
-0.000195525
-0.000204595
-0.000211412
-0.000216323
-0.000219628
-0.000221588
-0.000222427
-0.00022233
-0.000221458
-0.000219943
-0.000217899
-0.000215418
-0.000212583
-0.000209462
-0.000206113
-0.000202585
-0.000198924
-0.000195165
-0.000191341
-0.000187481
-0.000183608
-0.000179744
-0.000175907
-0.000172112
-0.000168373
-0.000164702
-0.000161108
-0.000157599
-0.000154184
-0.000150866
-0.000147651
-0.000144541
-0.000141541
-0.00013865
-0.00013587
-0.0001332
-0.000130641
-0.000128191
-0.000125847
-0.000123608
-0.000121469
-0.000119427
-0.000117477
-0.000115614
-0.000113833
-0.000112126
-0.000110486
-0.000108906
-0.000107377
-0.000105889
-0.000104432
-0.000102995
-0.000101566
-0.000100133
-9.86815e-05
-9.71965e-05
-9.56624e-05
-9.40622e-05
-9.23774e-05
-9.05883e-05
-8.86734e-05
-8.66097e-05
-8.43723e-05
-8.19352e-05
-7.92715e-05
-7.6355e-05
-7.31617e-05
-6.96728e-05
-6.58768e-05
-6.17729e-05
-5.73724e-05
-5.26994e-05
-4.77889e-05
-4.26836e-05
-3.74302e-05
-3.20752e-05
-2.66628e-05
-2.12322e-05
-1.58128e-05
-1.04133e-05
-5.01519e-06
0.000560784
0.000521943
0.000479012
0.000431591
0.000379966
0.00032557
0.000270114
0.0002151
0.000161753
0.000111066
6.3812e-05
2.05373e-05
-1.84335e-05
-5.2976e-05
-8.31327e-05
-0.000109077
-0.000131077
-0.000149462
-0.000164592
-0.000176837
-0.000186555
-0.000194084
-0.000199733
-0.000203776
-0.000206457
-0.000207986
-0.000208545
-0.000208289
-0.000207351
-0.000205845
-0.000203868
-0.000201501
-0.000198817
-0.000195875
-0.00019273
-0.000189425
-0.000186001
-0.000182492
-0.000178926
-0.000175331
-0.000171729
-0.000168138
-0.000164575
-0.000161056
-0.000157592
-0.000154193
-0.00015087
-0.000147628
-0.000144475
-0.000141415
-0.000138452
-0.000135589
-0.000132828
-0.000130169
-0.000127615
-0.000125163
-0.000122813
-0.000120563
-0.000118412
-0.000116355
-0.000114389
-0.00011251
-0.000110713
-0.000108992
-0.000107342
-0.000105755
-0.000104224
-0.00010274
-0.000101295
-9.98791e-05
-9.84812e-05
-9.70903e-05
-9.5694e-05
-9.42793e-05
-9.28319e-05
-9.13367e-05
-8.97776e-05
-8.81369e-05
-8.63961e-05
-8.45348e-05
-8.25316e-05
-8.03635e-05
-7.80067e-05
-7.5437e-05
-7.2631e-05
-6.95678e-05
-6.62312e-05
-6.26118e-05
-5.87092e-05
-5.45337e-05
-5.01065e-05
-4.5458e-05
-4.06259e-05
-3.5651e-05
-3.05745e-05
-2.54351e-05
-2.02657e-05
-1.50877e-05
-9.9025e-06
-4.69123e-06
0.000514389
0.000479547
0.000441481
0.000399675
0.000354201
0.000306172
0.000256992
0.000207921
0.000160009
0.000114131
7.09882e-05
3.11027e-05
-5.18602e-06
-3.77072e-05
-6.64356e-05
-9.14639e-05
-0.000112974
-0.000131211
-0.000146458
-0.000159013
-0.000169179
-0.000177244
-0.00018348
-0.000188134
-0.00019143
-0.000193562
-0.000194705
-0.000195009
-0.000194602
-0.000193598
-0.000192094
-0.000190174
-0.000187908
-0.000185362
-0.000182587
-0.000179632
-0.000176538
-0.000173339
-0.000170068
-0.00016675
-0.00016341
-0.000160067
-0.00015674
-0.000153443
-0.000150189
-0.000146991
-0.000143856
-0.000140793
-0.000137809
-0.000134909
-0.000132097
-0.000129377
-0.000126751
-0.00012422
-0.000121784
-0.000119445
-0.000117201
-0.00011505
-0.000112991
-0.000111021
-0.000109136
-0.000107332
-0.000105606
-0.000103951
-0.000102362
-0.000100832
-9.93548e-05
-9.79217e-05
-9.65244e-05
-9.51537e-05
-9.37996e-05
-9.24512e-05
-9.10968e-05
-8.97241e-05
-8.83195e-05
-8.68687e-05
-8.53563e-05
-8.37658e-05
-8.20795e-05
-8.02786e-05
-7.8343e-05
-7.62516e-05
-7.39828e-05
-7.15149e-05
-6.8827e-05
-6.59011e-05
-6.27232e-05
-5.92853e-05
-5.55877e-05
-5.16396e-05
-4.74595e-05
-4.30741e-05
-3.85159e-05
-3.38209e-05
-2.90251e-05
-2.4162e-05
-1.92593e-05
-1.43332e-05
-9.38317e-06
-4.39909e-06
0.000470856
0.000439619
0.000405848
0.00036897
0.000328912
0.000286539
0.000242998
0.000199338
0.000156449
0.000115091
7.58916e-05
3.93373e-05
5.76691e-06
-2.46213e-05
-5.17537e-05
-7.56611e-05
-9.64569e-05
-0.000114316
-0.000129453
-0.000142106
-0.000152525
-0.000160952
-0.000167624
-0.000172759
-0.000176557
-0.000179201
-0.000180851
-0.00018165
-0.000181723
-0.000181179
-0.000180115
-0.000178612
-0.000176745
-0.000174576
-0.00017216
-0.000169545
-0.000166773
-0.000163881
-0.0001609
-0.000157858
-0.00015478
-0.000151687
-0.000148596
-0.000145524
-0.000142485
-0.000139489
-0.000136548
-0.000133668
-0.000130858
-0.000128123
-0.000125468
-0.000122895
-0.000120409
-0.00011801
-0.0001157
-0.000113478
-0.000111344
-0.000109298
-0.000107337
-0.000105458
-0.000103659
-0.000101936
-0.000100285
-9.87009e-05
-9.71781e-05
-9.57107e-05
-9.42918e-05
-9.2914e-05
-9.15694e-05
-9.02492e-05
-8.89439e-05
-8.76431e-05
-8.63361e-05
-8.50108e-05
-8.36546e-05
-8.2254e-05
-8.07945e-05
-7.92604e-05
-7.76354e-05
-7.59018e-05
-7.40412e-05
-7.20343e-05
-6.98613e-05
-6.7503e-05
-6.4941e-05
-6.21594e-05
-5.91463e-05
-5.58953e-05
-5.24066e-05
-4.86886e-05
-4.47575e-05
-4.06362e-05
-3.63533e-05
-3.19399e-05
-2.74273e-05
-2.28446e-05
-1.8215e-05
-1.35517e-05
-8.85525e-06
-4.12554e-06
0.000429802
0.000401839
0.000371894
0.000339371
0.000304107
0.000266771
0.0002283
0.000189561
0.000151302
0.000114175
7.87336e-05
4.54235e-05
1.4571e-05
-1.36129e-05
-3.90222e-05
-6.16419e-05
-8.15315e-05
-9.88084e-05
-0.000113631
-0.000126186
-0.000136671
-0.000145292
-0.000152248
-0.00015773
-0.000161917
-0.000164973
-0.000167047
-0.000168271
-0.000168764
-0.000168631
-0.000167966
-0.000166849
-0.000165353
-0.00016354
-0.000161465
-0.000159177
-0.000156718
-0.000154124
-0.000151428
-0.00014866
-0.000145842
-0.000142997
-0.000140144
-0.000137299
-0.000134476
-0.000131687
-0.000128942
-0.000126249
-0.000123618
-0.000121052
-0.000118558
-0.000116139
-0.000113797
-0.000111536
-0.000109355
-0.000107257
-0.000105239
-0.000103302
-0.000101444
-9.96622e-05
-9.79545e-05
-9.63174e-05
-9.47469e-05
-9.32385e-05
-9.1787e-05
-9.03869e-05
-8.90317e-05
-8.77145e-05
-8.64278e-05
-8.51632e-05
-8.3912e-05
-8.26644e-05
-8.14101e-05
-8.01379e-05
-7.88361e-05
-7.74917e-05
-7.60913e-05
-7.46203e-05
-7.30635e-05
-7.14045e-05
-6.96263e-05
-6.77115e-05
-6.56423e-05
-6.34015e-05
-6.09729e-05
-5.83428e-05
-5.55009e-05
-5.24418e-05
-4.91662e-05
-4.56814e-05
-4.20013e-05
-3.8146e-05
-3.41401e-05
-3.00103e-05
-2.57841e-05
-2.14862e-05
-1.71366e-05
-1.27467e-05
-8.31925e-06
-3.86143e-06
0.00039087
0.000365899
0.000339385
0.00031074
0.000279745
0.000246917
0.000213019
0.000178764
0.000144777
0.000111609
7.9744e-05
4.95812e-05
2.14267e-05
-4.50691e-06
-2.80947e-05
-4.92893e-05
-6.81092e-05
-8.46261e-05
-9.89519e-05
-0.000111227
-0.000121608
-0.000130263
-0.000137359
-0.00014306
-0.000147522
-0.000150891
-0.000153303
-0.00015488
-0.000155733
-0.00015596
-0.000155652
-0.000154885
-0.000153731
-0.000152251
-0.000150498
-0.000148522
-0.000146363
-0.000144059
-0.000141643
-0.000139142
-0.000136582
-0.000133985
-0.00013137
-0.000128752
-0.000126147
-0.000123567
-0.000121022
-0.000118521
-0.000116072
-0.00011368
-0.000111352
-0.00010909
-0.000106899
-0.00010478
-0.000102735
-0.000100765
-9.88689e-05
-9.70467e-05
-9.5297e-05
-9.36178e-05
-9.20068e-05
-9.04609e-05
-8.89764e-05
-8.75491e-05
-8.61745e-05
-8.4847e-05
-8.35609e-05
-8.23097e-05
-8.10864e-05
-7.98831e-05
-7.86916e-05
-7.75028e-05
-7.63072e-05
-7.50942e-05
-7.38528e-05
-7.25711e-05
-7.12365e-05
-6.98356e-05
-6.83541e-05
-6.67771e-05
-6.50892e-05
-6.32745e-05
-6.13172e-05
-5.92018e-05
-5.69143e-05
-5.44428e-05
-5.17785e-05
-4.8917e-05
-4.58589e-05
-4.26107e-05
-3.91845e-05
-3.55976e-05
-3.18709e-05
-2.80277e-05
-2.40915e-05
-2.00837e-05
-1.60217e-05
-1.19156e-05
-7.77062e-06
-3.59577e-06
0.000346814
0.000325111
0.00030227
0.000277743
0.000251273
0.000223239
0.000194233
0.000164819
0.000135493
0.000106705
7.88568e-05
5.22935e-05
2.72906e-05
4.05232e-06
-1.72864e-05
-3.66536e-05
-5.40328e-05
-6.94545e-05
-8.2986e-05
-9.47229e-05
-0.00010478
-0.000113285
-0.000120371
-0.000126171
-0.000130816
-0.000134432
-0.000137135
-0.000139036
-0.000140233
-0.000140819
-0.000140875
-0.000140476
-0.000139688
-0.000138569
-0.000137172
-0.000135543
-0.000133724
-0.000131751
-0.000129655
-0.000127466
-0.000125208
-0.000122902
-0.000120568
-0.000118221
-0.000115877
-0.000113548
-0.000111243
-0.000108974
-0.000106746
-0.000104567
-0.000102441
-0.000100373
-9.83669e-05
-9.64239e-05
-9.45462e-05
-9.27347e-05
-9.09896e-05
-8.93104e-05
-8.76962e-05
-8.61453e-05
-8.46557e-05
-8.32246e-05
-8.18489e-05
-8.05246e-05
-7.92477e-05
-7.80132e-05
-7.68157e-05
-7.56495e-05
-7.4508e-05
-7.33842e-05
-7.22705e-05
-7.11586e-05
-7.00397e-05
-6.89042e-05
-6.77422e-05
-6.65427e-05
-6.52942e-05
-6.39847e-05
-6.26013e-05
-6.11308e-05
-5.95593e-05
-5.78729e-05
-5.60579e-05
-5.4101e-05
-5.19903e-05
-4.97157e-05
-4.72701e-05
-4.46498e-05
-4.18557e-05
-3.88931e-05
-3.57722e-05
-3.25072e-05
-2.91155e-05
-2.56166e-05
-2.20298e-05
-1.83731e-05
-1.46613e-05
-1.0904e-05
-7.10883e-06
-3.27889e-06
0.00029756
0.000279327
0.000260307
0.000240011
0.000218176
0.000195062
0.000171116
0.000146759
0.000122368
9.8291e-05
7.48461e-05
5.23152e-05
3.09327e-05
1.08818e-05
-7.70549e-06
-2.47454e-05
-4.0198e-05
-5.40619e-05
-6.63678e-05
-7.71721e-05
-8.65506e-05
-9.45925e-05
-0.000101396
-0.000107063
-0.000111696
-0.000115398
-0.000118264
-0.000120387
-0.000121854
-0.000122743
-0.000123128
-0.000123076
-0.000122646
-0.000121894
-0.000120866
-0.000119608
-0.000118158
-0.000116549
-0.000114813
-0.000112977
-0.000111065
-0.000109097
-0.000107092
-0.000105065
-0.000103031
-0.000101003
-9.89889e-05
-9.69996e-05
-9.5042e-05
-9.31225e-05
-9.12464e-05
-8.9418e-05
-8.76406e-05
-8.59169e-05
-8.42485e-05
-8.26366e-05
-8.10817e-05
-7.95836e-05
-7.81416e-05
-7.67545e-05
-7.54204e-05
-7.41371e-05
-7.29018e-05
-7.17113e-05
-7.05618e-05
-6.94491e-05
-6.83685e-05
-6.73148e-05
-6.62822e-05
-6.52646e-05
-6.42552e-05
-6.32467e-05
-6.22314e-05
-6.12007e-05
-6.01459e-05
-5.90574e-05
-5.79251e-05
-5.67384e-05
-5.54863e-05
-5.41572e-05
-5.27395e-05
-5.12212e-05
-4.9591e-05
-4.78377e-05
-4.59518e-05
-4.3925e-05
-4.17518e-05
-3.94292e-05
-3.69581e-05
-3.43428e-05
-3.15914e-05
-2.87151e-05
-2.57279e-05
-2.26451e-05
-1.94822e-05
-1.62539e-05
-1.29726e-05
-9.64724e-06
-6.28707e-06
-2.89529e-06
0.000247684
0.000232815
0.000217432
0.000201112
0.000183608
0.000165096
0.0001459
0.000126328
0.000106655
8.71394e-05
6.80246e-05
4.95309e-05
3.18483e-05
1.51315e-05
-5.00127e-07
-1.49628e-05
-2.82055e-05
-4.02074e-05
-5.09735e-05
-6.0531e-05
-6.89245e-05
-7.62119e-05
-8.24608e-05
-8.77449e-05
-9.2141e-05
-9.57268e-05
-9.85791e-05
-0.000100772
-0.000102376
-0.000103458
-0.00010408
-0.000104299
-0.000104168
-0.000103734
-0.000103041
-0.000102127
-0.000101028
-9.97752e-05
-9.83962e-05
-9.69159e-05
-9.53565e-05
-9.37372e-05
-9.20753e-05
-9.03856e-05
-8.86814e-05
-8.69738e-05
-8.52729e-05
-8.3587e-05
-8.19234e-05
-8.02881e-05
-7.86862e-05
-7.71218e-05
-7.55983e-05
-7.41183e-05
-7.26836e-05
-7.12953e-05
-6.99542e-05
-6.86604e-05
-6.74133e-05
-6.62121e-05
-6.50553e-05
-6.39412e-05
-6.28673e-05
-6.1831e-05
-6.08292e-05
-5.98582e-05
-5.89141e-05
-5.79923e-05
-5.70881e-05
-5.61961e-05
-5.53106e-05
-5.44254e-05
-5.35336e-05
-5.26284e-05
-5.17019e-05
-5.07461e-05
-4.97525e-05
-4.87121e-05
-4.76158e-05
-4.64538e-05
-4.52166e-05
-4.38943e-05