/*--------------------------------*- C++ -*----------------------------------*\
| =========                 |                                                 |
| \\      /  F ield         | OpenFOAM: The Open Source CFD Toolbox           |
|  \\    /   O peration     | Version:  2.3.0                                 |
|   \\  /    A nd           | Web:      www.OpenFOAM.org                      |
|    \\/     M anipulation  |                                                 |
\*---------------------------------------------------------------------------*/
FoamFile
{
    version     2.0;
    format      ascii;
    class       surfaceScalarField;
    location    "0.45";
    object      phi_0;
}
// * * * * * * * * * * * * * * * * * * * * * * * * * * * * * * * * * * * * * //

dimensions      [0 3 -1 0 0 0 0];

internalField   nonuniform List<scalar> 
6068
(
2.82996e-08
2.83245e-09
-3.1132e-08
2.54403e-08
2.85929e-09
2.27452e-08
2.69509e-09
2.02591e-08
2.48605e-09
1.79993e-08
2.25985e-09
1.59766e-08
2.02271e-09
1.41939e-08
1.78268e-09
1.26463e-08
1.54764e-09
1.13219e-08
1.32435e-09
1.02036e-08
1.11833e-09
9.26996e-09
9.33621e-10
8.49734e-09
7.72615e-10
7.86135e-09
6.35988e-10
7.33844e-09
5.22911e-10
6.90704e-09
4.314e-10
6.54831e-09
3.58736e-10
6.24643e-09
3.01878e-10
5.98862e-09
2.57807e-10
5.76486e-09
2.23758e-10
5.56751e-09
1.97359e-10
5.39083e-09
1.76675e-10
5.23064e-09
1.60193e-10
5.08386e-09
1.46775e-10
4.94827e-09
1.3559e-10
4.82223e-09
1.26046e-10
4.70449e-09
1.17732e-10
4.59413e-09
1.10366e-10
4.49038e-09
1.03753e-10
4.39262e-09
9.77586e-11
4.30033e-09
9.22891e-11
4.21305e-09
8.72746e-11
4.13039e-09
8.26616e-11
4.05198e-09
7.84071e-11
3.97751e-09
7.44748e-11
3.90668e-09
7.0833e-11
3.83922e-09
6.74539e-11
3.77491e-09
6.43124e-11
3.71352e-09
6.13861e-11
3.65487e-09
5.86548e-11
3.59877e-09
5.61001e-11
3.54506e-09
5.37059e-11
3.49361e-09
5.14574e-11
3.44426e-09
4.93415e-11
3.39692e-09
4.73465e-11
3.35146e-09
4.54618e-11
3.30778e-09
4.3678e-11
3.26579e-09
4.19864e-11
3.22541e-09
4.03795e-11
3.18656e-09
3.88503e-11
3.14917e-09
3.73925e-11
3.11317e-09
3.60002e-11
3.0785e-09
3.46683e-11
3.04511e-09
3.3392e-11
3.01294e-09
3.21667e-11
2.98195e-09
3.09886e-11
2.9521e-09
2.98536e-11
2.92334e-09
2.87585e-11
2.89564e-09
2.76998e-11
2.86897e-09
2.66747e-11
2.84329e-09
2.56802e-11
2.81857e-09
2.47138e-11
2.7948e-09
2.37729e-11
2.77195e-09
2.28553e-11
2.74999e-09
2.19587e-11
2.72891e-09
2.10812e-11
2.70868e-09
2.02208e-11
2.68931e-09
1.93758e-11
2.67076e-09
1.85443e-11
2.65304e-09
1.77248e-11
2.63612e-09
1.69159e-11
2.62001e-09
1.61159e-11
2.60468e-09
1.53238e-11
2.59015e-09
1.45383e-11
2.57639e-09
1.37587e-11
2.5634e-09
1.29843e-11
2.55119e-09
1.22149e-11
2.53974e-09
1.14507e-11
2.52905e-09
1.06917e-11
2.51911e-09
9.9374e-12
2.50992e-09
9.18635e-12
2.50149e-09
8.43463e-12
2.49381e-09
7.6749e-12
2.48692e-09
6.89536e-12
2.48084e-09
6.07939e-12
2.47563e-09
5.20667e-12
2.47137e-09
4.25659e-12
2.46816e-09
3.21481e-12
2.46608e-09
2.07637e-12
2.46522e-09
8.65025e-13
2.46544e-09
-2.18205e-13
2.46646e-09
-1.02295e-12
2.46809e-09
-1.62963e-12
2.47016e-09
-2.06653e-12
2.4725e-09
-2.34281e-12
2.47496e-09
-2.45869e-12
2.47739e-09
-2.43376e-12
2.47966e-09
-2.2743e-12
2.48163e-09
-1.96593e-12
2.48315e-09
-1.51853e-12
-7.01723e-13
3.40077e-08
3.12048e-09
-3.42957e-08
3.34189e-08
3.44803e-09
3.25915e-08
3.52257e-09
3.16042e-08
3.47333e-09
3.05142e-08
3.34987e-09
2.93672e-08
3.16972e-09
2.82005e-08
2.94934e-09
2.7043e-08
2.70513e-09
2.5916e-08
2.45132e-09
2.48347e-08
2.19968e-09
2.38088e-08
1.95955e-09
2.28438e-08
1.73758e-09
2.1942e-08
1.53782e-09
2.11029e-08
1.36193e-09
2.03247e-08
1.20963e-09
1.96041e-08
1.07936e-09
1.89373e-08
9.68714e-10
1.83201e-08
8.74997e-10
1.77483e-08
7.95502e-10
1.72179e-08
7.27742e-10
1.67251e-08
6.69559e-10
1.62661e-08
6.19152e-10
1.58378e-08
5.75067e-10
1.54372e-08
5.36152e-10
1.50618e-08
5.01504e-10
1.47091e-08
4.70423e-10
1.43771e-08
4.42362e-10
1.4064e-08
4.16891e-10
1.3768e-08
3.93668e-10
1.34879e-08
3.72413e-10
1.32223e-08
3.52896e-10
1.297e-08
3.34925e-10
1.27301e-08
3.18334e-10
1.25016e-08
3.02978e-10
1.22837e-08
2.88734e-10
1.20757e-08
2.7549e-10
1.18768e-08
2.63149e-10
1.16866e-08
2.51625e-10
1.15044e-08
2.4084e-10
1.13298e-08
2.30726e-10
1.11623e-08
2.21223e-10
1.10015e-08
2.12275e-10
1.0847e-08
2.03833e-10
1.06985e-08
1.95855e-10
1.05556e-08
1.88301e-10
1.04182e-08
1.81134e-10
1.02858e-08
1.74324e-10
1.01584e-08
1.67841e-10
1.00355e-08
1.6166e-10
9.91718e-09
1.55755e-10
9.80308e-09
1.50105e-10
9.69306e-09
1.4469e-10
9.58696e-09
1.39492e-10
9.48463e-09
1.34492e-10
9.38595e-09
1.29676e-10
9.29077e-09
1.25028e-10
9.19899e-09
1.20535e-10
9.11051e-09
1.16185e-10
9.02522e-09
1.11964e-10
8.94304e-09
1.07862e-10
8.86388e-09
1.03868e-10
8.78768e-09
9.99731e-11
8.71437e-09
9.61668e-11
8.64389e-09
9.24406e-11
8.57618e-09
8.87864e-11
8.51121e-09
8.51961e-11
8.44892e-09
8.16624e-11
8.38929e-09
7.81781e-11
8.33228e-09
7.47367e-11
8.27786e-09
7.13319e-11
8.22602e-09
6.79579e-11
8.17673e-09
6.46093e-11
8.12999e-09
6.12815e-11
8.08578e-09
5.79705e-11
8.04409e-09
5.4673e-11
8.00492e-09
5.13864e-11
7.96826e-09
4.81085e-11
7.93412e-09
4.48364e-11
7.90249e-09
4.15654e-11
7.87339e-09
3.82869e-11
7.84684e-09
3.49862e-11
7.82287e-09
3.1641e-11
7.80154e-09
2.82205e-11
7.78294e-09
2.46874e-11
7.76714e-09
2.1004e-11
7.75425e-09
1.7143e-11
7.74437e-09
1.3101e-11
7.73754e-09
8.90562e-12
7.73379e-09
4.61377e-12
7.73301e-09
5.55008e-13
7.73466e-09
-2.66426e-12
7.738e-09
-4.96876e-12
7.74252e-09
-6.59147e-12
7.74781e-09
-7.62823e-12
7.75347e-09
-8.12162e-12
7.75918e-09
-8.14148e-12
7.76462e-09
-7.71656e-12
7.76946e-09
-6.80548e-12
7.77324e-09
-5.29779e-12
-2.20114e-12
3.60995e-08
2.97982e-09
-3.59588e-08
3.61665e-08
3.381e-09
3.61087e-08
3.58037e-09
3.59273e-08
3.65473e-09
3.56332e-08
3.64399e-09
3.52404e-08
3.56257e-09
3.47658e-08
3.42387e-09
3.42274e-08
3.24354e-09
3.3642e-08
3.03675e-09
3.30247e-08
2.81701e-09
3.23885e-08
2.59572e-09
3.17442e-08
2.38185e-09
3.11003e-08
2.1817e-09
3.04632e-08
1.99901e-09
2.98376e-08
1.83532e-09
2.92264e-08
1.69052e-09
2.86318e-08
1.56336e-09
2.80548e-08
1.45199e-09
2.7496e-08
1.3543e-09
2.69555e-08
1.26822e-09
2.64332e-08
1.19185e-09
2.59288e-08
1.12357e-09
2.54418e-08
1.06203e-09
2.49719e-08
1.00613e-09
2.45184e-08
9.54996e-10
2.40808e-08
9.07958e-10
2.36587e-08
8.6447e-10
2.32515e-08
8.24105e-10
2.28587e-08
7.86518e-10
2.24796e-08
7.51425e-10
2.21139e-08
7.18591e-10
2.17611e-08
6.87811e-10
2.14205e-08
6.5891e-10
2.10917e-08
6.3173e-10
2.07743e-08
6.06134e-10
2.04678e-08
5.81995e-10
2.01718e-08
5.59198e-10
1.98858e-08
5.37642e-10
1.96094e-08
5.1723e-10
1.93422e-08
4.97877e-10
1.90839e-08
4.79504e-10
1.88342e-08
4.62037e-10
1.85926e-08
4.4541e-10
1.83589e-08
4.29563e-10
1.81328e-08
4.14438e-10
1.79139e-08
3.99984e-10
1.77021e-08
3.86152e-10
1.7497e-08
3.72898e-10
1.72985e-08
3.60181e-10
1.71063e-08
3.47962e-10
1.69202e-08
3.36205e-10
1.674e-08
3.24877e-10
1.65656e-08
3.13946e-10
1.63967e-08
3.03384e-10
1.62332e-08
2.93161e-10
1.6075e-08
2.83252e-10
1.59219e-08
2.73633e-10
1.57738e-08
2.6428e-10
1.56306e-08
2.5517e-10
1.54921e-08
2.46283e-10
1.53584e-08
2.37599e-10
1.52293e-08
2.29099e-10
1.51047e-08
2.20764e-10
1.49845e-08
2.12577e-10
1.48688e-08
2.04523e-10
1.47574e-08
1.96584e-10
1.46503e-08
1.88746e-10
1.45475e-08
1.80994e-10
1.44489e-08
1.73316e-10
1.43546e-08
1.65698e-10
1.42644e-08
1.58127e-10
1.41784e-08
1.50594e-10
1.40966e-08
1.43087e-10
1.4019e-08
1.35598e-10
1.39455e-08
1.28119e-10
1.38763e-08
1.20642e-10
1.38112e-08
1.13161e-10
1.37504e-08
1.05668e-10
1.36938e-08
9.81514e-11
1.36415e-08
9.05935e-11
1.35935e-08
8.29697e-11
1.35499e-08
7.52459e-11
1.35108e-08
6.73809e-11
1.34761e-08
5.93327e-11
1.3446e-08
5.10716e-11
1.34206e-08
4.26006e-11
1.33997e-08
3.39817e-11
1.33833e-08
2.53609e-11
1.33709e-08
1.69567e-11
1.33625e-08
8.92548e-12
1.33583e-08
1.55592e-12
1.33577e-08
-4.38155e-12
1.33597e-08
-8.59363e-12
1.33636e-08
-1.14496e-11
1.33686e-08
-1.31203e-11
1.33742e-08
-1.378e-11
1.338e-08
-1.3507e-11
1.33854e-08
-1.22169e-11
1.33896e-08
-9.52718e-12
-3.37511e-12
3.76663e-08
2.79614e-09
-3.74826e-08
3.78634e-08
3.18384e-09
3.80244e-08
3.41943e-09
3.81318e-08
3.54736e-09
3.81783e-08
3.59742e-09
3.81598e-08
3.58109e-09
3.8076e-08
3.50763e-09
3.79306e-08
3.38901e-09
3.77294e-08
3.23797e-09
3.74798e-08
3.0666e-09
3.71898e-08
2.88568e-09
3.68675e-08
2.7042e-09
3.65201e-08
2.52906e-09
3.61542e-08
2.36489e-09
3.57753e-08
2.21429e-09
3.53876e-08
2.07822e-09
3.49945e-08
1.9564e-09
3.45987e-08
1.84779e-09
3.42021e-08
1.75095e-09
3.3806e-08
1.66429e-09
3.34116e-08
1.58627e-09
3.30196e-08
1.51554e-09
3.26307e-08
1.45089e-09
3.22455e-08
1.39137e-09
3.18643e-08
1.33619e-09
3.14875e-08
1.28471e-09
3.11155e-08
1.23646e-09
3.07486e-08
1.19105e-09
3.0387e-08
1.14816e-09
3.00308e-08
1.10754e-09
2.96804e-08
1.06899e-09
2.93359e-08
1.03234e-09
2.89974e-08
9.9744e-10
2.8665e-08
9.64155e-10
2.83387e-08
9.32372e-10
2.80187e-08
9.01988e-10
2.7705e-08
8.72911e-10
2.73976e-08
8.45053e-10
2.70965e-08
8.18338e-10
2.68017e-08
7.92691e-10
2.65131e-08
7.68048e-10
2.62308e-08
7.44344e-10
2.59547e-08
7.21524e-10
2.56847e-08
6.99532e-10
2.54209e-08
6.78319e-10
2.5163e-08
6.57836e-10
2.49111e-08
6.3804e-10
2.46651e-08
6.18888e-10
2.4425e-08
6.0034e-10
2.41906e-08
5.82359e-10
2.39619e-08
5.64908e-10
2.37388e-08
5.47952e-10
2.35213e-08
5.31459e-10
2.33093e-08
5.15397e-10
2.31027e-08
4.99734e-10
2.29015e-08
4.84443e-10
2.27056e-08
4.69494e-10
2.25151e-08
4.54859e-10
2.23297e-08
4.40513e-10
2.21496e-08
4.26429e-10
2.19746e-08
4.12583e-10
2.18047e-08
3.98949e-10
2.164e-08
3.85505e-10
2.14804e-08
3.72228e-10
2.13258e-08
3.59095e-10
2.11763e-08
3.46085e-10
2.10318e-08
3.33178e-10
2.08925e-08
3.20352e-10
2.07582e-08
3.07589e-10
2.0629e-08
2.9487e-10
2.0505e-08
2.82177e-10
2.03861e-08
2.69495e-10
2.02724e-08
2.56808e-10
2.01639e-08
2.44102e-10
2.00606e-08
2.31365e-10
1.99627e-08
2.18585e-10
1.98701e-08
2.05751e-10
1.97829e-08
1.92848e-10
1.97012e-08
1.79859e-10
1.9625e-08
1.66761e-10
1.95545e-08
1.53524e-10
1.94896e-08
1.40112e-10
1.94305e-08
1.26485e-10
1.93772e-08
1.12618e-10
1.93298e-08
9.85124e-11
1.92882e-08
8.42263e-11
1.92522e-08
6.99056e-11
1.92218e-08
5.58064e-11
1.91965e-08
4.2291e-11
1.91756e-08
2.9757e-11
1.91587e-08
1.84725e-11
1.9146e-08
8.33914e-12
1.91378e-08
-3.69245e-13
1.91332e-08
-6.92958e-12
1.91314e-08
-1.12899e-11
1.91315e-08
-1.3877e-11
1.91328e-08
-1.48442e-11
1.91347e-08
-1.40817e-11
1.91361e-08
-1.09207e-11
-2.26945e-12
3.91924e-08
2.63371e-09
-3.903e-08
3.93909e-08
2.9854e-09
3.95881e-08
3.22223e-09
3.97676e-08
3.36787e-09
3.99208e-08
3.44418e-09
4.00405e-08
3.46144e-09
4.01211e-08
3.42704e-09
4.01599e-08
3.35016e-09
4.01568e-08
3.24109e-09
4.01134e-08
3.10995e-09
4.00331e-08
2.96602e-09
3.99199e-08
2.81736e-09
3.97785e-08
2.67043e-09
3.96135e-08
2.52991e-09
3.9429e-08
2.39879e-09
3.92287e-08
2.27854e-09
3.90156e-08
2.16953e-09
3.87921e-08
2.07129e-09
3.85601e-08
1.98292e-09
3.83212e-08
1.90324e-09
3.80764e-08
1.83107e-09
3.78266e-08
1.76527e-09
3.75727e-08
1.70482e-09
3.73152e-08
1.64887e-09
3.70547e-08
1.59672e-09
3.67916e-08
1.5478e-09
3.65264e-08
1.50165e-09
3.62595e-08
1.4579e-09
3.59914e-08
1.41628e-09
3.57224e-08
1.37654e-09
3.54529e-08
1.33852e-09
3.51832e-08
1.30204e-09
3.49137e-08
1.26698e-09
3.46446e-08
1.23323e-09
3.43763e-08
1.2007e-09
3.4109e-08
1.16928e-09
3.38429e-08
1.13892e-09
3.35785e-08
1.10954e-09
3.33157e-08
1.08108e-09
3.30549e-08
1.05349e-09
3.27963e-08
1.0267e-09
3.25399e-08
1.00067e-09
3.22861e-08
9.75357e-10
3.20349e-08
9.50721e-10
3.17865e-08
9.26719e-10
3.1541e-08
9.03315e-10
3.12986e-08
8.80474e-10
3.10593e-08
8.58163e-10
3.08233e-08
8.36349e-10
3.05907e-08
8.15001e-10
3.03615e-08
7.9409e-10
3.01359e-08
7.73586e-10
2.99139e-08
7.53461e-10
2.96956e-08
7.33688e-10
2.94811e-08
7.14239e-10
2.92704e-08
6.95088e-10
2.90637e-08
6.76208e-10
2.8861e-08
6.57573e-10
2.86623e-08
6.39157e-10
2.84678e-08
6.20935e-10
2.82775e-08
6.02883e-10
2.80915e-08
5.84974e-10
2.79098e-08
5.67184e-10
2.77326e-08
5.4949e-10
2.75598e-08
5.31866e-10
2.73916e-08
5.1429e-10
2.7228e-08
4.96737e-10
2.70692e-08
4.79185e-10
2.69152e-08
4.61613e-10
2.67661e-08
4.43998e-10
2.66219e-08
4.2632e-10
2.64828e-08
4.0856e-10
2.6349e-08
3.907e-10
2.62203e-08
3.72722e-10
2.60971e-08
3.54613e-10
2.59793e-08
3.36356e-10
2.58671e-08
3.17937e-10
2.57606e-08
2.9934e-10
2.566e-08
2.80543e-10
2.55652e-08
2.61523e-10
2.54765e-08
2.4225e-10
2.53939e-08
2.22695e-10
2.53175e-08
2.02835e-10
2.52475e-08
1.82672e-10
2.51837e-08
1.62253e-10
2.51263e-08
1.41702e-10
2.50749e-08
1.21246e-10
2.50295e-08
1.01231e-10
2.49897e-08
8.21053e-11
2.49551e-08
6.43466e-11
2.49252e-08
4.83281e-11
2.48993e-08
3.42549e-11
2.48767e-08
2.22114e-11
2.48577e-08
1.20834e-11
2.48427e-08
3.7336e-12
2.48313e-08
-2.47607e-12
2.48226e-08
-6.17467e-12
2.48159e-08
-7.33212e-12
2.48102e-08
-5.25332e-12
3.60683e-12
4.07563e-08
2.496e-09
-4.06186e-08
4.09334e-08
2.80831e-09
4.11215e-08
3.03419e-09
4.13058e-08
3.18353e-09
4.14788e-08
3.27117e-09
4.16342e-08
3.30608e-09
4.17665e-08
3.29472e-09
4.18721e-08
3.24458e-09
4.1949e-08
3.16418e-09
4.19969e-08
3.06204e-09
4.20168e-08
2.94613e-09
4.20107e-08
2.8235e-09
4.19811e-08
2.69994e-09
4.19312e-08
2.57988e-09
4.18637e-08
2.4663e-09
4.17813e-08
2.36095e-09
4.16863e-08
2.26453e-09
4.15806e-08
2.17699e-09
4.14657e-08
2.09779e-09
4.13428e-08
2.02613e-09
4.12128e-08
1.96107e-09
4.10764e-08
1.90168e-09
4.09341e-08
1.84712e-09
4.07863e-08
1.79662e-09
4.06335e-08
1.74956e-09
4.04759e-08
1.70539e-09
4.03139e-08
1.6637e-09
4.01476e-08
1.62413e-09
3.99775e-08
1.58641e-09
3.98037e-08
1.55031e-09
3.96266e-08
1.51564e-09
3.94464e-08
1.48226e-09
3.92633e-08
1.45004e-09
3.90777e-08
1.41887e-09
3.88897e-08
1.38866e-09
3.86997e-08
1.35933e-09
3.85078e-08
1.33081e-09
3.83143e-08
1.30303e-09
3.81195e-08
1.27594e-09
3.79235e-08
1.24949e-09
3.77265e-08
1.22362e-09
3.75289e-08
1.19831e-09
3.73307e-08
1.17351e-09
3.71323e-08
1.14918e-09
3.69337e-08
1.12529e-09
3.67352e-08
1.10181e-09
3.6537e-08
1.07871e-09
3.63392e-08
1.05596e-09
3.6142e-08
1.03353e-09
3.59456e-08
1.01139e-09
3.57502e-08
9.89532e-10
3.55558e-08
9.67915e-10
3.53628e-08
9.46518e-10
3.51711e-08
9.25317e-10
3.49811e-08
9.04288e-10
3.47928e-08
8.83406e-10
3.46063e-08
8.62646e-10
3.44219e-08
8.41985e-10
3.42397e-08
8.21397e-10
3.40598e-08
8.0086e-10
3.38823e-08
7.80347e-10
3.37074e-08
7.59834e-10
3.35353e-08
7.39297e-10
3.33661e-08
7.1871e-10
3.31999e-08
6.98049e-10
3.30369e-08
6.7729e-10
3.28773e-08
6.56408e-10
3.27211e-08
6.35378e-10
3.25685e-08
6.14177e-10
3.24197e-08
5.92783e-10
3.22749e-08
5.71173e-10
3.21341e-08
5.49327e-10
3.19976e-08
5.27224e-10
3.18654e-08
5.04846e-10
3.17379e-08
4.82178e-10
3.1615e-08
4.59202e-10
3.14971e-08
4.35902e-10
3.13841e-08
4.12261e-10
3.12764e-08
3.8826e-10
3.11741e-08
3.63876e-10
3.10772e-08
3.39088e-10
3.09861e-08
3.1388e-10
3.09006e-08
2.88252e-10
3.08211e-08
2.62242e-10
3.07474e-08
2.35945e-10
3.06795e-08
2.09545e-10
3.06174e-08
1.83339e-10
3.05609e-08
1.5774e-10
3.05098e-08
1.33249e-10
3.04638e-08
1.10383e-10
3.04225e-08
8.95719e-11
3.03857e-08
7.10926e-11
3.03528e-08
5.50647e-11
3.03234e-08
4.14756e-11
3.02969e-08
3.03048e-11
3.02729e-08
2.15022e-11
3.02517e-08
1.50178e-11
3.02334e-08
1.09945e-11
3.02179e-08
1.02103e-11
1.61112e-11
4.2371e-08
2.37776e-09
-4.22528e-08
4.25263e-08
2.653e-09
4.26971e-08
2.86341e-09
4.287e-08
3.01062e-09
4.30377e-08
3.10349e-09
4.31946e-08
3.14913e-09
4.33362e-08
3.15316e-09
4.3459e-08
3.1218e-09
4.3561e-08
3.06218e-09
4.36414e-08
2.98158e-09
4.37007e-08
2.88691e-09
4.37398e-08
2.78433e-09
4.37607e-08
2.67907e-09
4.37654e-08
2.57521e-09
4.3756e-08
2.47567e-09
4.37347e-08
2.38229e-09
4.37032e-08
2.29603e-09
4.3663e-08
2.21712e-09
4.36155e-08
2.14533e-09
4.35615e-08
2.08013e-09
4.35017e-08
2.02083e-09
4.34367e-08
1.96669e-09
4.33668e-08
1.91699e-09
4.32924e-08
1.8711e-09
4.32135e-08
1.82842e-09
4.31304e-08
1.78849e-09
4.30432e-08
1.7509e-09
4.2952e-08
1.71531e-09
4.2857e-08
1.68145e-09
4.27582e-08
1.6491e-09
4.26557e-08
1.61806e-09
4.25498e-08
1.58818e-09
4.24405e-08
1.55934e-09
4.2328e-08
1.53142e-09
4.22123e-08
1.50432e-09
4.20937e-08
1.47797e-09
4.19722e-08
1.45228e-09
4.18481e-08
1.4272e-09
4.17213e-08
1.40266e-09
4.15922e-08
1.37861e-09
4.14608e-08
1.35502e-09
4.13273e-08
1.33182e-09
4.11918e-08
1.30898e-09
4.10545e-08
1.28647e-09
4.09156e-08
1.26425e-09
4.07751e-08
1.24229e-09
4.06332e-08
1.22056e-09
4.04902e-08
1.19903e-09
4.0346e-08
1.17767e-09
4.0201e-08
1.15646e-09
4.00551e-08
1.13536e-09
3.99087e-08
1.11436e-09
3.97618e-08
1.09343e-09
3.96145e-08
1.07254e-09
3.94672e-08
1.05166e-09
3.93198e-08
1.03078e-09
3.91726e-08
1.00987e-09
3.90256e-08
9.889e-10
3.88792e-08
9.67845e-10
3.87334e-08
9.46681e-10
3.85883e-08
9.25382e-10
3.84443e-08
9.03921e-10
3.83013e-08
8.82271e-10
3.81596e-08
8.60407e-10
3.80193e-08
8.38301e-10
3.78807e-08
8.15927e-10
3.77438e-08
7.93258e-10
3.7609e-08
7.70268e-10
3.74762e-08
7.46931e-10
3.73458e-08
7.23222e-10
3.72178e-08
6.99117e-10
3.70926e-08
6.74594e-10
3.69701e-08
6.49631e-10
3.68508e-08
6.24208e-10
3.67347e-08
5.98307e-10
3.66219e-08
5.71911e-10
3.65128e-08
5.45003e-10
3.64075e-08
5.17566e-10
3.63062e-08
4.89584e-10
3.62091e-08
4.6104e-10
3.61162e-08
4.31924e-10
3.60279e-08
4.02235e-10
3.59441e-08
3.72001e-10
3.58651e-08
3.41291e-10
3.57908e-08
3.10247e-10
3.57212e-08
2.79104e-10
3.56563e-08
2.48207e-10
3.55961e-08
2.18012e-10
3.55403e-08
1.8905e-10
3.54888e-08
1.61858e-10
3.54415e-08
1.36889e-10
3.53981e-08
1.14454e-10
3.53585e-08
9.47209e-11
3.53222e-08
7.77338e-11
3.5289e-08
6.34831e-11
3.52586e-08
5.189e-11
3.52308e-08
4.287e-11
3.52053e-08
3.64998e-11
3.51822e-08
3.32757e-11
3.45467e-11
4.40395e-08
2.27421e-09
-4.39359e-08
4.4176e-08
2.51642e-09
4.43296e-08
2.70986e-09
4.44884e-08
2.85186e-09
4.46451e-08
2.94676e-09
4.47946e-08
2.99964e-09
4.49326e-08
3.01514e-09
4.5056e-08
2.9984e-09
4.51629e-08
2.95532e-09
4.52523e-08
2.8921e-09
4.53245e-08
2.8147e-09
4.53803e-08
2.72857e-09
4.5421e-08
2.63836e-09
4.54484e-08
2.54784e-09
4.54642e-08
2.45983e-09
4.54703e-08
2.37622e-09
4.54682e-08
2.29812e-09
4.54593e-08
2.22602e-09
4.54447e-08
2.15992e-09
4.54253e-08
2.09954e-09
4.54017e-08
2.04441e-09
4.53745e-08
1.99396e-09
4.53438e-08
1.94763e-09
4.53101e-08
1.90486e-09
4.52733e-08
1.86518e-09
4.52337e-08
1.82814e-09
4.51912e-08
1.79337e-09
4.5146e-08
1.76056e-09
4.5098e-08
1.72945e-09
4.50472e-08
1.69981e-09
4.49938e-08
1.67147e-09
4.49377e-08
1.64426e-09
4.4879e-08
1.61806e-09
4.48177e-08
1.59274e-09
4.47538e-08
1.56822e-09
4.46874e-08
1.54439e-09
4.46185e-08
1.52119e-09
4.45471e-08
1.49854e-09
4.44734e-08
1.47638e-09
4.43974e-08
1.45466e-09
4.43191e-08
1.43333e-09
4.42385e-08
1.41233e-09
4.41559e-08
1.39163e-09
4.40712e-08
1.37118e-09
4.39845e-08
1.35094e-09
4.38959e-08
1.33089e-09
4.38055e-08
1.31098e-09
4.37133e-08
1.29119e-09
4.36195e-08
1.27148e-09
4.35242e-08
1.25182e-09
4.34273e-08
1.23219e-09
4.33292e-08
1.21255e-09
4.32297e-08
1.19287e-09
4.31291e-08
1.17313e-09
4.30275e-08
1.1533e-09
4.29249e-08
1.13335e-09
4.28215e-08
1.11326e-09
4.27174e-08
1.09298e-09
4.26128e-08
1.0725e-09
4.25077e-08
1.05178e-09
4.24023e-08
1.03079e-09
4.22967e-08
1.00951e-09
4.21911e-08
9.87905e-10
4.20855e-08
9.65942e-10
4.19802e-08
9.43592e-10
4.18753e-08
9.20825e-10
4.1771e-08
8.97611e-10
4.16673e-08
8.7392e-10
4.15645e-08
8.49722e-10
4.14628e-08
8.2499e-10
4.13622e-08
7.99695e-10
4.1263e-08
7.73814e-10
4.11653e-08
7.4732e-10
4.10693e-08
7.20193e-10
4.09752e-08
6.92411e-10
4.08832e-08
6.63957e-10
4.07933e-08
6.34813e-10
4.07059e-08
6.04963e-10
4.06211e-08
5.74394e-10
4.05391e-08
5.43096e-10
4.04599e-08
5.1107e-10
4.03838e-08
4.78332e-10
4.03109e-08
4.44932e-10
4.02412e-08
4.10972e-10
4.01748e-08
3.76624e-10
4.01118e-08
3.4216e-10
4.0052e-08
3.07957e-10
3.99956e-08
2.74491e-10
3.99423e-08
2.42302e-10
3.98922e-08
2.11929e-10
3.98453e-08
1.83834e-10
3.98014e-08
1.58348e-10
3.97605e-08
1.35668e-10
3.97223e-08
1.15872e-10
3.96868e-08
9.89698e-11
3.96538e-08
8.48966e-11
3.96231e-08
7.35678e-11
3.95946e-08
6.49734e-11
3.95687e-08
5.92147e-11
5.57731e-11
4.57636e-08
2.182e-09
-4.56714e-08
4.58846e-08
2.39547e-09
4.60225e-08
2.57194e-09
4.61675e-08
2.70691e-09
4.63125e-08
2.80168e-09
4.64527e-08
2.85948e-09
4.65839e-08
2.88389e-09
4.67033e-08
2.87908e-09
4.68087e-08
2.84987e-09
4.68993e-08
2.80146e-09
4.69751e-08
2.73897e-09
4.70365e-08
2.66713e-09
4.70848e-08
2.59011e-09
4.71213e-08
2.51135e-09
4.71476e-08
2.43351e-09
4.71653e-08
2.35849e-09
4.71759e-08
2.28753e-09
4.71806e-08
2.22127e-09
4.71806e-08
2.15994e-09
4.71767e-08
2.10345e-09
4.71696e-08
2.05154e-09
4.71597e-08
2.0038e-09
4.71476e-08
1.95982e-09
4.71333e-08
1.91914e-09
4.71171e-08
1.88136e-09
4.70991e-08
1.8461e-09
4.70795e-08
1.81305e-09
4.70581e-08
1.78191e-09
4.70351e-08
1.75244e-09
4.70105e-08
1.72443e-09
4.69843e-08
1.69772e-09
4.69564e-08
1.67214e-09
4.69269e-08
1.64756e-09
4.68958e-08
1.62388e-09
4.6863e-08
1.60099e-09
4.68286e-08
1.5788e-09
4.67925e-08
1.55724e-09
4.67548e-08
1.53624e-09
4.67155e-08
1.51572e-09
4.66745e-08
1.49564e-09
4.66319e-08
1.47594e-09
4.65877e-08
1.45656e-09
4.65418e-08
1.43747e-09
4.64944e-08
1.41861e-09
4.64454e-08
1.39996e-09
4.63948e-08
1.38146e-09
4.63427e-08
1.36308e-09
4.62891e-08
1.34479e-09
4.6234e-08
1.32655e-09
4.61775e-08
1.30832e-09
4.61196e-08
1.29008e-09
4.60604e-08
1.27179e-09
4.59998e-08
1.25341e-09
4.59381e-08
1.23492e-09
4.58751e-08
1.21629e-09
4.5811e-08
1.19747e-09
4.57458e-08
1.17844e-09
4.56796e-08
1.15916e-09
4.56125e-08
1.13961e-09
4.55445e-08
1.11974e-09
4.54758e-08
1.09952e-09
4.54064e-08
1.07892e-09
4.53364e-08
1.0579e-09
4.52659e-08
1.03644e-09
4.5195e-08
1.01448e-09
4.51238e-08
9.92009e-10
4.50525e-08
9.68979e-10
4.4981e-08
9.4536e-10
4.49096e-08
9.21117e-10
4.48384e-08
8.96219e-10
4.47674e-08
8.70634e-10
4.46969e-08
8.44334e-10
4.4627e-08
8.1729e-10
4.45577e-08
7.89478e-10
4.44892e-08
7.60875e-10
4.44217e-08
7.3146e-10
4.43553e-08
7.01215e-10
4.42901e-08
6.70127e-10
4.42263e-08
6.38184e-10
4.41641e-08
6.05384e-10
4.41034e-08
5.71736e-10
4.40445e-08
5.37273e-10
4.39873e-08
5.02064e-10
4.39321e-08
4.6623e-10
4.38787e-08
4.2997e-10
4.38273e-08
3.93573e-10
4.37778e-08
3.57429e-10
4.37303e-08
3.22015e-10
4.36847e-08
2.87865e-10
4.36412e-08
2.55506e-10
4.35996e-08
2.25395e-10
4.35601e-08
1.97873e-10
4.35226e-08
1.73156e-10
4.34871e-08
1.51349e-10
4.34536e-08
1.32475e-10
4.3422e-08
1.16485e-10
4.33923e-08
1.03288e-10
4.33645e-08
9.27798e-11
4.3339e-08
8.47023e-11
7.74094e-11
4.75456e-08
2.09876e-09
-4.74624e-08
4.76536e-08
2.28751e-09
4.77777e-08
2.44783e-09
4.79098e-08
2.5748e-09
4.80436e-08
2.66788e-09
4.81743e-08
2.72878e-09
4.82981e-08
2.76009e-09
4.84121e-08
2.76509e-09
4.85143e-08
2.74768e-09
4.86036e-08
2.71214e-09
4.86798e-08
2.66279e-09
4.87432e-08
2.60375e-09
4.87946e-08
2.53867e-09
4.88353e-08
2.47068e-09
4.88665e-08
2.40227e-09
4.88897e-08
2.33529e-09
4.89062e-08
2.27102e-09
4.89172e-08
2.21026e-09
4.89238e-08
2.15338e-09
4.89268e-08
2.10049e-09
4.89268e-08
2.05146e-09
4.89246e-08
2.00606e-09
4.89204e-08
1.96399e-09
4.89146e-08
1.92492e-09
4.89075e-08
1.88851e-09
4.88991e-08
1.85447e-09
4.88896e-08
1.8225e-09
4.88792e-08
1.79237e-09
4.88678e-08
1.76385e-09
4.88554e-08
1.73676e-09
4.88422e-08
1.71093e-09
4.88281e-08
1.68622e-09
4.88132e-08
1.66252e-09
4.87973e-08
1.6397e-09
4.87807e-08
1.61768e-09
4.87631e-08
1.59637e-09
4.87446e-08
1.57569e-09
4.87253e-08
1.55558e-09
4.8705e-08
1.53597e-09
4.86839e-08
1.5168e-09
4.86618e-08
1.49802e-09
4.86388e-08
1.47958e-09
4.86148e-08
1.46143e-09
4.85899e-08
1.44352e-09
4.85641e-08
1.42582e-09
4.85372e-08
1.40829e-09
4.85094e-08
1.39088e-09
4.84807e-08
1.37356e-09
4.84509e-08
1.35629e-09
4.84202e-08
1.33904e-09
4.83885e-08
1.32176e-09
4.83559e-08
1.30443e-09
4.83223e-08
1.287e-09
4.82878e-08
1.26945e-09
4.82523e-08
1.25173e-09
4.8216e-08
1.23381e-09
4.81788e-08
1.21566e-09
4.81407e-08
1.19724e-09
4.81018e-08
1.1785e-09
4.80621e-08
1.15942e-09
4.80217e-08
1.13996e-09
4.79805e-08
1.12007e-09
4.79387e-08
1.09972e-09
4.78963e-08
1.07887e-09
4.78533e-08
1.05748e-09
4.78098e-08
1.03552e-09
4.77658e-08
1.01294e-09
4.77215e-08
9.89701e-10
4.76768e-08
9.65776e-10
4.76319e-08
9.41123e-10
4.75868e-08
9.1571e-10
4.75417e-08
8.89502e-10
4.74965e-08
8.62469e-10
4.74514e-08
8.34583e-10
4.74064e-08
8.05821e-10
4.73617e-08
7.76158e-10
4.73174e-08
7.45578e-10
4.72734e-08
7.14067e-10
4.723e-08
6.81618e-10
4.71871e-08
6.48233e-10
4.71449e-08
6.13932e-10
4.71035e-08
5.78758e-10
4.70627e-08
5.42793e-10
4.70228e-08
5.06176e-10
4.69836e-08
4.69116e-10
4.69453e-08
4.31908e-10
4.69078e-08
3.94941e-10
4.68711e-08
3.58678e-10
4.68354e-08
3.23632e-10
4.68006e-08
2.90306e-10
4.67668e-08
2.59146e-10
4.67342e-08
2.30492e-10
4.67028e-08
2.04571e-10
4.66726e-08
1.81508e-10
4.66438e-08
1.61338e-10
4.66162e-08
1.44025e-10
4.659e-08
1.29469e-10
4.65653e-08
1.17488e-10
4.65424e-08
1.07588e-10
9.77507e-11
4.93879e-08
2.02283e-09
-4.9312e-08
4.9485e-08
2.19042e-09
4.9597e-08
2.33585e-09
4.97173e-08
2.45447e-09
4.98404e-08
2.54475e-09
4.99619e-08
2.60728e-09
5.00782e-08
2.64381e-09
5.01865e-08
2.65681e-09
5.02848e-08
2.64938e-09
5.03719e-08
2.625e-09
5.04474e-08
2.58729e-09
5.05114e-08
2.53976e-09
5.05645e-08
2.48561e-09
5.06075e-08
2.42762e-09
5.06417e-08
2.36809e-09
5.06682e-08
2.3088e-09
5.06882e-08
2.25104e-09
5.07028e-08
2.19569e-09
5.07129e-08
2.14324e-09
5.07195e-08
2.09393e-09
5.07231e-08
2.04778e-09
5.07245e-08
2.0047e-09
5.0724e-08
1.9645e-09
5.0722e-08
1.92693e-09
5.07187e-08
1.89176e-09
5.07145e-08
1.85874e-09
5.07093e-08
1.82763e-09
5.07035e-08
1.79824e-09
5.06969e-08
1.77037e-09
5.06898e-08
1.74386e-09
5.06822e-08
1.71856e-09
5.06741e-08
1.69433e-09
5.06655e-08
1.67108e-09
5.06565e-08
1.6487e-09
5.06471e-08
1.62709e-09
5.06373e-08
1.60619e-09
5.06271e-08
1.58591e-09
5.06165e-08
1.5662e-09
5.06055e-08
1.54698e-09
5.0594e-08
1.52822e-09
5.05822e-08
1.50984e-09
5.057e-08
1.49182e-09
5.05573e-08
1.47409e-09
5.05442e-08
1.45662e-09
5.05307e-08
1.43936e-09
5.05167e-08
1.42229e-09
5.05022e-08
1.40534e-09
5.04873e-08
1.3885e-09
5.04719e-08
1.37171e-09
5.0456e-08
1.35495e-09
5.04395e-08
1.33818e-09
5.04226e-08
1.32136e-09
5.04052e-08
1.30445e-09
5.03872e-08
1.28742e-09
5.03687e-08
1.27023e-09
5.03497e-08
1.25284e-09
5.03301e-08
1.23522e-09
5.031e-08
1.21733e-09
5.02894e-08
1.19912e-09
5.02683e-08
1.18056e-09
5.02466e-08
1.16161e-09
5.02245e-08
1.14222e-09
5.02018e-08
1.12237e-09
5.01787e-08
1.102e-09
5.01551e-08
1.08107e-09
5.01311e-08
1.05954e-09
5.01066e-08
1.03738e-09
5.00818e-08
1.01454e-09
5.00566e-08
9.90983e-10
5.0031e-08
9.66668e-10
5.00052e-08
9.4156e-10
4.99791e-08
9.15623e-10
4.99527e-08
8.88825e-10
4.99261e-08
8.61137e-10
4.98994e-08
8.32533e-10
4.98726e-08
8.02989e-10
4.98457e-08
7.72489e-10
4.98187e-08
7.4102e-10
4.97918e-08
7.08579e-10
4.97648e-08
6.75174e-10
4.97379e-08
6.40831e-10
4.97111e-08
6.05603e-10
4.96843e-08
5.69583e-10
4.96576e-08
5.32916e-10
4.96309e-08
4.95816e-10
4.96042e-08
4.58576e-10
4.95776e-08
4.21569e-10
4.9551e-08
3.85237e-10
4.95246e-08
3.50061e-10
4.94984e-08
3.16516e-10
4.94725e-08
2.85026e-10
4.94471e-08
2.55925e-10
4.94222e-08
2.29446e-10
4.9398e-08
2.05722e-10
4.93745e-08
1.84805e-10
4.93519e-08
1.66668e-10
4.93301e-08
1.51205e-10
4.93094e-08
1.38189e-10
4.929e-08
1.27039e-10
1.15919e-10
5.12929e-08
1.95304e-09
-5.12231e-08
5.13807e-08
2.10254e-09
5.14821e-08
2.2345e-09
5.15917e-08
2.34484e-09
5.17049e-08
2.43159e-09
5.18176e-08
2.4946e-09
5.19265e-08
2.53491e-09
5.20289e-08
2.55434e-09
5.2123e-08
2.55528e-09
5.22075e-08
2.54053e-09
5.22817e-08
2.51307e-09
5.23456e-08
2.47585e-09
5.23996e-08
2.43166e-09
5.24443e-08
2.38295e-09
5.24805e-08
2.3318e-09
5.25095e-08
2.27989e-09
5.2532e-08
2.22849e-09
5.25492e-08
2.1785e-09
5.25619e-08
2.13053e-09
5.25709e-08
2.08489e-09
5.2577e-08
2.04175e-09
5.25806e-08
2.0011e-09
5.25822e-08
1.96286e-09
5.25823e-08
1.92688e-09
5.2581e-08
1.89299e-09
5.25788e-08
1.86101e-09
5.25756e-08
1.83076e-09
5.25718e-08
1.80207e-09
5.25674e-08
1.77479e-09
5.25625e-08
1.74876e-09
5.25572e-08
1.72386e-09
5.25515e-08
1.69999e-09
5.25456e-08
1.67703e-09
5.25394e-08
1.65489e-09
5.2533e-08
1.63351e-09
5.25264e-08
1.61279e-09
5.25196e-08
1.59268e-09
5.25127e-08
1.57312e-09
5.25056e-08
1.55404e-09
5.24984e-08
1.5354e-09
5.24911e-08
1.51715e-09
5.24837e-08
1.49924e-09
5.24762e-08
1.48163e-09
5.24685e-08
1.46428e-09
5.24607e-08
1.44715e-09
5.24528e-08
1.43019e-09
5.24448e-08
1.41338e-09
5.24366e-08
1.39667e-09
5.24283e-08
1.38004e-09
5.24198e-08
1.36343e-09
5.24112e-08
1.34682e-09
5.24023e-08
1.33017e-09
5.23934e-08
1.31344e-09
5.23842e-08
1.2966e-09
5.23748e-08
1.27961e-09
5.23652e-08
1.26244e-09
5.23554e-08
1.24503e-09
5.23453e-08
1.22736e-09
5.23351e-08
1.20939e-09
5.23246e-08
1.19107e-09
5.23138e-08
1.17237e-09
5.23028e-08
1.15324e-09
5.22915e-08
1.13364e-09
5.228e-08
1.11353e-09
5.22682e-08
1.09287e-09
5.22561e-08
1.07161e-09
5.22438e-08
1.04972e-09
5.22311e-08
1.02715e-09
5.22183e-08
1.00386e-09
5.22051e-08
9.79813e-10
5.21917e-08
9.5497e-10
5.2178e-08
9.29296e-10
5.21641e-08
9.02758e-10
5.21499e-08
8.75325e-10
5.21355e-08
8.46973e-10
5.21208e-08
8.17678e-10
5.21059e-08
7.87426e-10
5.20907e-08
7.56206e-10
5.20752e-08
7.24019e-10
5.20595e-08
6.90878e-10
5.20435e-08
6.56817e-10
5.20272e-08
6.21895e-10
5.20106e-08
5.86212e-10
5.19936e-08
5.49917e-10
5.19762e-08
5.13221e-10
5.19584e-08
4.76409e-10
5.19401e-08
4.39833e-10
5.19214e-08
4.03908e-10
5.19024e-08
3.69079e-10
5.18832e-08
3.35789e-10
5.18637e-08
3.04435e-10
5.18443e-08
2.7534e-10
5.1825e-08
2.48735e-10
5.1806e-08
2.24763e-10
5.17873e-08
2.03485e-10
5.17691e-08
1.84884e-10
5.17515e-08
1.68856e-10
5.17345e-08
1.55167e-10
5.17182e-08
1.43268e-10
1.31783e-10
5.32631e-08
1.88854e-09
-5.31986e-08
5.33431e-08
2.02254e-09
5.34352e-08
2.14247e-09
5.35351e-08
2.24487e-09
5.3639e-08
2.32768e-09
5.37434e-08
2.39029e-09
5.3845e-08
2.43322e-09
5.39417e-08
2.45771e-09
5.40314e-08
2.46559e-09
5.41128e-08
2.45906e-09
5.41853e-08
2.44055e-09
5.42487e-08
2.41253e-09
5.4303e-08
2.37737e-09
5.43487e-08
2.3372e-09
5.43866e-08
2.29391e-09
5.44174e-08
2.24904e-09
5.44421e-08
2.20381e-09
5.44615e-08
2.15914e-09
5.44764e-08
2.11566e-09
5.44875e-08
2.07379e-09
5.44954e-08
2.03377e-09
5.45008e-08