/*--------------------------------*- C++ -*----------------------------------*\
| =========                 |                                                 |
| \\      /  F ield         | OpenFOAM: The Open Source CFD Toolbox           |
|  \\    /   O peration     | Version:  2.3.0                                 |
|   \\  /    A nd           | Web:      www.OpenFOAM.org                      |
|    \\/     M anipulation  |                                                 |
\*---------------------------------------------------------------------------*/
FoamFile
{
    version     2.0;
    format      ascii;
    class       volVectorField;
    location    "0.45";
    object      U;
}
// * * * * * * * * * * * * * * * * * * * * * * * * * * * * * * * * * * * * * //

dimensions      [0 1 -1 0 0 0 0];

internalField   nonuniform List<vector> 
3105
(
(0.171537 0.00584494 0)
(0.154912 0.00598818 0)
(0.139092 0.00560965 0)
(0.124087 0.00502369 0)
(0.110279 0.00436634 0)
(0.0978621 0.00369668 0)
(0.0868654 0.00305236 0)
(0.0772573 0.00245957 0)
(0.0689814 0.00193455 0)
(0.0619528 0.00148568 0)
(0.0560581 0.00111494 0)
(0.0511638 0.000819028 0)
(0.0471279 0.000590614 0)
(0.0438102 0.000419934 0)
(0.0410791 0.000296362 0)
(0.0388179 0.000209646 0)
(0.0369264 0.000150669 0)
(0.0353228 0.000111812 0)
(0.0339416 8.70089e-05 0)
(0.0327325 7.16368e-05 0)
(0.0316574 6.23154e-05 0)
(0.0306881 5.66784e-05 0)
(0.0298041 5.31456e-05 0)
(0.0289904 5.07163e-05 0)
(0.0282359 4.87954e-05 0)
(0.0275327 4.70579e-05 0)
(0.0268744 4.53469e-05 0)
(0.0262564 4.36045e-05 0)
(0.0256746 4.18245e-05 0)
(0.0251259 4.00248e-05 0)
(0.0246074 3.82309e-05 0)
(0.0241166 3.6467e-05 0)
(0.0236514 3.47528e-05 0)
(0.0232098 3.31023e-05 0)
(0.0227901 3.15244e-05 0)
(0.0223906 3.00235e-05 0)
(0.0220099 2.86009e-05 0)
(0.0216467 2.72555e-05 0)
(0.0212999 2.59847e-05 0)
(0.0209683 2.47852e-05 0)
(0.020651 2.36528e-05 0)
(0.0203471 2.25835e-05 0)
(0.0200557 2.15731e-05 0)
(0.0197763 2.06176e-05 0)
(0.019508 1.97132e-05 0)
(0.0192504 1.88562e-05 0)
(0.0190028 1.80434e-05 0)
(0.0187646 1.72715e-05 0)
(0.0185356 1.65378e-05 0)
(0.0183152 1.58395e-05 0)
(0.0181029 1.51742e-05 0)
(0.0178986 1.45395e-05 0)
(0.0177018 1.39334e-05 0)
(0.0175122 1.33539e-05 0)
(0.0173295 1.27991e-05 0)
(0.0171535 1.22674e-05 0)
(0.016984 1.17572e-05 0)
(0.0168207 1.12671e-05 0)
(0.0166633 1.07956e-05 0)
(0.0165118 1.03416e-05 0)
(0.016366 9.9039e-06 0)
(0.0162257 9.48135e-06 0)
(0.0160907 9.07296e-06 0)
(0.0159609 8.67779e-06 0)
(0.0158363 8.29497e-06 0)
(0.0157167 7.92367e-06 0)
(0.015602 7.56314e-06 0)
(0.0154921 7.21264e-06 0)
(0.015387 6.87149e-06 0)
(0.0152866 6.53905e-06 0)
(0.0151908 6.21469e-06 0)
(0.0150996 5.89787e-06 0)
(0.015013 5.58814e-06 0)
(0.0149308 5.28528e-06 0)
(0.0148532 4.98924e-06 0)
(0.01478 4.70037e-06 0)
(0.0147112 4.41932e-06 0)
(0.0146468 4.14697e-06 0)
(0.0145867 3.88408e-06 0)
(0.014531 3.63064e-06 0)
(0.0144796 3.38493e-06 0)
(0.0144325 3.14228e-06 0)
(0.0143899 2.89371e-06 0)
(0.0143518 2.62478e-06 0)
(0.0143185 2.3154e-06 0)
(0.0142904 1.94218e-06 0)
(0.0142679 1.49066e-06 0)
(0.0142517 9.9101e-07 0)
(0.0142422 5.37541e-07 0)
(0.0142398 1.47922e-07 0)
(0.014243 -2.66512e-07 0)
(0.0142502 -6.03376e-07 0)
(0.0142606 -8.58286e-07 0)
(0.014273 -1.0192e-06 0)
(0.0142867 -1.08356e-06 0)
(0.0143007 -1.06588e-06 0)
(0.0143143 -9.74535e-07 0)
(0.0143265 -8.01753e-07 0)
(0.0143365 -5.75373e-07 0)
(0.0143437 -1.56257e-07 0)
(0.190563 0.00926444 0)
(0.188192 0.00988351 0)
(0.184303 0.00972143 0)
(0.179177 0.00924305 0)
(0.173281 0.00861758 0)
(0.166971 0.00790034 0)
(0.160477 0.00712967 0)
(0.153968 0.00634076 0)
(0.147578 0.00556362 0)
(0.141407 0.00482291 0)
(0.135524 0.0041379 0)
(0.129971 0.00352196 0)
(0.124766 0.00298227 0)
(0.119915 0.00252026 0)
(0.11541 0.00213265 0)
(0.111235 0.00181281 0)
(0.107372 0.00155216 0)
(0.103797 0.0013414 0)
(0.100488 0.00117144 0)
(0.0974208 0.0010341 0)
(0.0945731 0.000922336 0)
(0.0919243 0.000830411 0)
(0.0894551 0.000753786 0)
(0.0871484 0.000688975 0)
(0.0849886 0.000633354 0)
(0.0829619 0.000584978 0)
(0.081056 0.000542407 0)
(0.07926 0.000504579 0)
(0.0775643 0.000470698 0)
(0.0759604 0.000440159 0)
(0.0744407 0.000412492 0)
(0.0729985 0.000387321 0)
(0.0716277 0.000364339 0)
(0.070323 0.000343289 0)
(0.0690796 0.000323954 0)
(0.0678931 0.000306146 0)
(0.0667597 0.000289702 0)
(0.0656758 0.000274479 0)
(0.0646382 0.000260352 0)
(0.063644 0.000247213 0)
(0.0626907 0.000234965 0)
(0.0617758 0.000223522 0)
(0.0608971 0.000212809 0)
(0.0600527 0.00020276 0)
(0.0592408 0.000193316 0)
(0.0584596 0.000184423 0)
(0.0577076 0.000176035 0)
(0.0569835 0.00016811 0)
(0.0562859 0.000160609 0)
(0.0556136 0.000153499 0)
(0.0549655 0.000146748 0)
(0.0543406 0.000140328 0)
(0.053738 0.000134214 0)
(0.0531569 0.000128383 0)
(0.0525963 0.000122813 0)
(0.0520557 0.000117484 0)
(0.0515343 0.000112378 0)
(0.0510315 0.000107479 0)
(0.0505467 0.000102771 0)
(0.0500795 9.82405e-05 0)
(0.0496293 9.38739e-05 0)
(0.0491958 8.9659e-05 0)
(0.0487785 8.55846e-05 0)
(0.0483772 8.16401e-05 0)
(0.0479914 7.78159e-05 0)
(0.0476209 7.41029e-05 0)
(0.0472655 7.04926e-05 0)
(0.0469249 6.69772e-05 0)
(0.046599 6.35494e-05 0)
(0.0462876 6.02024e-05 0)
(0.0459905 5.69301e-05 0)
(0.0457077 5.37268e-05 0)
(0.0454391 5.05877e-05 0)
(0.0451845 4.75088e-05 0)
(0.044944 4.44871e-05 0)
(0.0447175 4.15206e-05 0)
(0.0445049 3.86078e-05 0)
(0.0443063 3.57472e-05 0)
(0.0441217 3.29357e-05 0)
(0.043951 3.01664e-05 0)
(0.0437944 2.74259e-05 0)
(0.043652 2.46919e-05 0)
(0.0435241 2.19309e-05 0)
(0.0434109 1.90983e-05 0)
(0.0433131 1.61419e-05 0)
(0.043231 1.30098e-05 0)
(0.0431654 9.66896e-06 0)
(0.0431166 6.14995e-06 0)
(0.0430848 2.5977e-06 0)
(0.04307 -6.46056e-07 0)
(0.0430716 -3.23249e-06 0)
(0.0430846 -4.91615e-06 0)
(0.0431058 -6.02892e-06 0)
(0.0431326 -6.7038e-06 0)
(0.0431628 -6.95614e-06 0)
(0.0431942 -6.81813e-06 0)
(0.0432252 -6.30803e-06 0)
(0.0432538 -5.38414e-06 0)
(0.0432782 -3.9958e-06 0)
(0.0432947 -1.33941e-06 0)
(0.193538 0.00893106 0)
(0.194282 0.00995479 0)
(0.194433 0.0103401 0)
(0.193809 0.0103666 0)
(0.192498 0.0101561 0)
(0.190619 0.00975451 0)
(0.188263 0.00920587 0)
(0.18552 0.00855907 0)
(0.182479 0.00785978 0)
(0.179228 0.00714693 0)
(0.175844 0.00645183 0)
(0.17239 0.00579758 0)
(0.168918 0.00519897 0)
(0.165467 0.0046633 0)
(0.162067 0.00419176 0)
(0.158739 0.00378119 0)
(0.155495 0.00342581 0)
(0.152344 0.0031186 0)
(0.14929 0.00285243 0)
(0.146335 0.00262062 0)
(0.143478 0.00241739 0)
(0.140719 0.00223789 0)
(0.138054 0.00207815 0)
(0.135483 0.00193503 0)
(0.133001 0.00180602 0)
(0.130607 0.00168913 0)
(0.128297 0.00158276 0)
(0.126069 0.00148563 0)
(0.123919 0.00139665 0)
(0.121845 0.00131495 0)
(0.119844 0.00123975 0)
(0.117913 0.00117039 0)
(0.11605 0.0011063 0)
(0.114251 0.00104696 0)
(0.112515 0.00099192 0)
(0.110838 0.00094078 0)
(0.109219 0.000893178 0)
(0.107655 0.00084879 0)
(0.106144 0.000807327 0)
(0.104683 0.000768531 0)
(0.103271 0.000732167 0)
(0.101906 0.000698028 0)
(0.100585 0.000665925 0)
(0.0993082 0.000635687 0)
(0.0980723 0.000607163 0)
(0.0968763 0.000580214 0)
(0.0957188 0.000554714 0)
(0.0945982 0.000530549 0)
(0.0935134 0.000507617 0)
(0.0924631 0.000485823 0)
(0.0914461 0.00046508 0)
(0.0904614 0.000445309 0)
(0.089508 0.000426439 0)
(0.0885849 0.000408402 0)
(0.0876912 0.000391137 0)
(0.0868261 0.000374588 0)
(0.0859889 0.000358701 0)
(0.0851788 0.000343428 0)
(0.0843953 0.000328724 0)
(0.0836378 0.000314548 0)
(0.0829056 0.00030086 0)
(0.0821984 0.000287623 0)
(0.0815157 0.000274805 0)
(0.0808571 0.000262373 0)
(0.0802222 0.000250298 0)
(0.0796108 0.000238552 0)
(0.0790225 0.00022711 0)
(0.0784572 0.000215949 0)
(0.0779147 0.000205045 0)
(0.0773949 0.000194378 0)
(0.0768976 0.000183929 0)
(0.0764227 0.000173682 0)
(0.0759702 0.000163619 0)
(0.0755401 0.00015373 0)
(0.0751323 0.000144001 0)
(0.074747 0.000134423 0)
(0.0743842 0.000124988 0)
(0.0740438 0.000115685 0)
(0.0737262 0.000106501 0)
(0.0734313 9.74134e-05 0)
(0.0731594 8.83899e-05 0)
(0.0729107 7.93842e-05 0)
(0.0726857 7.0337e-05 0)
(0.0724845 6.11823e-05 0)
(0.0723077 5.18621e-05 0)
(0.0721556 4.23485e-05 0)
(0.0720282 3.26719e-05 0)
(0.0719252 2.29394e-05 0)
(0.0718455 1.33299e-05 0)
(0.071787 4.18707e-06 0)
(0.0717494 -3.84014e-06 0)
(0.0717352 -9.84739e-06 0)
(0.0717378 -1.36933e-05 0)
(0.0717525 -1.59181e-05 0)
(0.0717755 -1.69158e-05 0)
(0.0718036 -1.69178e-05 0)
(0.071834 -1.60042e-05 0)
(0.071864 -1.40506e-05 0)
(0.0718907 -1.06619e-05 0)
(0.0719064 -3.64434e-06 0)
(0.194575 0.0083118 0)
(0.195684 0.00939634 0)
(0.196718 0.00999195 0)
(0.197456 0.0102567 0)
(0.197858 0.0102828 0)
(0.197925 0.0101088 0)
(0.197657 0.00977013 0)
(0.197058 0.00930858 0)
(0.196153 0.00876582 0)
(0.194975 0.00817939 0)
(0.193567 0.0075812 0)
(0.19197 0.00699659 0)
(0.190226 0.00644376 0)
(0.188369 0.00593396 0)
(0.186432 0.00547248 0)
(0.184439 0.00505997 0)
(0.182411 0.00469391 0)
(0.180363 0.00436997 0)
(0.178307 0.00408297 0)
(0.17625 0.00382765 0)
(0.1742 0.00359915 0)
(0.172161 0.00339318 0)
(0.170136 0.00320615 0)
(0.168129 0.00303512 0)
(0.166142 0.00287772 0)
(0.164177 0.00273209 0)
(0.162236 0.00259675 0)
(0.160321 0.0024705 0)
(0.158432 0.00235239 0)
(0.156572 0.00224165 0)
(0.15474 0.00213761 0)
(0.152939 0.00203973 0)
(0.151168 0.00194751 0)
(0.149429 0.00186053 0)
(0.147722 0.0017784 0)
(0.146047 0.00170077 0)
(0.144405 0.00162732 0)
(0.142795 0.00155777 0)
(0.141217 0.00149184 0)
(0.139673 0.00142929 0)
(0.138161 0.00136989 0)
(0.136681 0.00131344 0)
(0.135234 0.00125974 0)
(0.133818 0.0012086 0)
(0.132435 0.00115986 0)
(0.131082 0.00111336 0)
(0.129761 0.00106897 0)
(0.12847 0.00102653 0)
(0.12721 0.000985931 0)
(0.12598 0.000947049 0)
(0.124779 0.000909775 0)
(0.123608 0.000874005 0)
(0.122466 0.000839641 0)
(0.121352 0.000806593 0)
(0.120267 0.000774774 0)
(0.11921 0.000744103 0)
(0.11818 0.000714505 0)
(0.117178 0.000685907 0)
(0.116203 0.000658243 0)
(0.115255 0.000631447 0)
(0.114334 0.000605461 0)
(0.113439 0.000580226 0)
(0.112571 0.000555689 0)
(0.111729 0.000531799 0)
(0.110914 0.000508508 0)
(0.110124 0.00048577 0)
(0.109361 0.000463544 0)
(0.108624 0.000441789 0)
(0.107914 0.000420466 0)
(0.10723 0.000399542 0)
(0.106572 0.000378983 0)
(0.10594 0.000358759 0)
(0.105336 0.000338843 0)
(0.104758 0.000319211 0)
(0.104207 0.000299842 0)
(0.103683 0.000280717 0)
(0.103187 0.000261817 0)
(0.102719 0.000243122 0)
(0.102278 0.000224607 0)
(0.101866 0.000206237 0)
(0.101483 0.000187967 0)
(0.101129 0.000169738 0)
(0.100805 0.000151486 0)
(0.10051 0.000133151 0)
(0.100246 0.000114707 0)
(0.100012 9.61923e-05 0)
(0.0998075 7.77591e-05 0)
(0.0996324 5.97066e-05 0)
(0.0994852 4.24705e-05 0)
(0.0993636 2.64485e-05 0)
(0.0992639 1.19382e-05 0)
(0.0991829 -6.18421e-07 0)
(0.0991254 -1.06564e-05 0)
(0.099091 -1.77211e-05 0)
(0.0990732 -2.18462e-05 0)
(0.0990676 -2.36028e-05 0)
(0.0990706 -2.34036e-05 0)
(0.0990785 -2.1226e-05 0)
(0.0990876 -1.62684e-05 0)
(0.0990861 -4.67044e-06 0)
(0.195311 0.00782106 0)
(0.196289 0.00882336 0)
(0.197348 0.00944577 0)
(0.198325 0.00978248 0)
(0.199168 0.00990718 0)
(0.199854 0.00985474 0)
(0.200358 0.00965203 0)
(0.20066 0.00933043 0)
(0.20075 0.00892313 0)
(0.200631 0.00846151 0)
(0.200318 0.00797354 0)
(0.199829 0.00748263 0)
(0.199188 0.00700682 0)
(0.198416 0.00655847 0)
(0.197537 0.00614473 0)
(0.196571 0.00576845 0)
(0.195534 0.0054293 0)
(0.194439 0.00512488 0)
(0.193298 0.00485163 0)
(0.19212 0.0046056 0)
(0.190909 0.00438288 0)
(0.189672 0.00417992 0)
(0.188412 0.00399364 0)
(0.187134 0.00382148 0)
(0.185838 0.00366136 0)
(0.184529 0.00351162 0)
(0.183208 0.00337092 0)
(0.181878 0.00323822 0)
(0.180541 0.00311268 0)
(0.179198 0.00299361 0)
(0.177852 0.00288044 0)
(0.176504 0.00277271 0)
(0.175156 0.00266999 0)
(0.17381 0.00257193 0)
(0.172466 0.00247823 0)
(0.171127 0.00238858 0)
(0.169794 0.00230275 0)
(0.168468 0.00222049 0)
(0.16715 0.00214159 0)
(0.165842 0.00206586 0)
(0.164543 0.00199311 0)
(0.163256 0.00192318 0)
(0.161981 0.00185591 0)
(0.160718 0.00179115 0)
(0.159469 0.00172877 0)
(0.158235 0.00166863 0)
(0.157015 0.00161063 0)
(0.155811 0.00155464 0)
(0.154623 0.00150055 0)
(0.153451 0.00144827 0)
(0.152297 0.0013977 0)
(0.151159 0.00134873 0)
(0.15004 0.00130129 0)
(0.148939 0.00125529 0)
(0.147857 0.00121065 0)
(0.146794 0.00116728 0)
(0.14575 0.00112512 0)
(0.144727 0.00108409 0)
(0.143723 0.00104412 0)
(0.142739 0.00100515 0)
(0.141777 0.000967101 0)
(0.140835 0.000929924 0)
(0.139915 0.000893557 0)
(0.139017 0.000857941 0)
(0.138141 0.000823022 0)
(0.137288 0.000788748 0)
(0.136458 0.000755068 0)
(0.13565 0.000721935 0)
(0.134867 0.000689305 0)
(0.134108 0.000657133 0)
(0.133373 0.00062538 0)
(0.132663 0.00059401 0)
(0.131979 0.000562989 0)
(0.131321 0.000532286 0)
(0.13069 0.000501875 0)
(0.130085 0.000471729 0)
(0.129508 0.000441826 0)
(0.128959 0.000412137 0)
(0.128438 0.000382631 0)
(0.127947 0.00035327 0)
(0.127485 0.000324006 0)
(0.127054 0.000294784 0)
(0.126653 0.000265556 0)
(0.126284 0.000236298 0)
(0.125946 0.000207044 0)
(0.12564 0.000177924 0)
(0.125365 0.000149216 0)
(0.12512 0.000121371 0)
(0.124904 9.50018e-05 0)
(0.124715 7.0779e-05 0)
(0.124552 4.92161e-05 0)
(0.124411 3.03011e-05 0)
(0.124288 1.40503e-05 0)
(0.124181 9.09915e-07 0)
(0.124093 -9.04563e-06 0)
(0.124025 -1.58261e-05 0)
(0.123973 -1.92366e-05 0)
(0.123934 -1.9179e-05 0)
(0.123903 -1.47198e-05 0)
(0.123865 -7.17054e-07 0)
(0.195939 0.00739475 0)
(0.196749 0.00828519 0)
(0.197674 0.00888556 0)
(0.198599 0.00924498 0)
(0.199471 0.00941659 0)
(0.200268 0.00943066 0)
(0.200967 0.00930961 0)
(0.201544 0.00907867 0)
(0.201987 0.00876521 0)
(0.202288 0.00839584 0)
(0.20245 0.00799468 0)
(0.202481 0.00758247 0)
(0.202392 0.00717571 0)
(0.202196 0.00678637 0)
(0.20191 0.00642207 0)
(0.201545 0.00608663 0)
(0.201114 0.005781 0)
(0.200628 0.0055041 0)
(0.200095 0.00525359 0)
(0.19952 0.00502654 0)
(0.19891 0.00481989 0)
(0.198267 0.0046307 0)
(0.197594 0.00445636 0)
(0.196895 0.00429462 0)
(0.19617 0.0041436 0)
(0.195422 0.00400178 0)
(0.194651 0.00386794 0)
(0.19386 0.00374107 0)
(0.193049 0.00362039 0)
(0.19222 0.00350524 0)
(0.191374 0.00339511 0)
(0.190513 0.00328955 0)
(0.189637 0.00318819 0)
(0.188748 0.00309071 0)
(0.187848 0.00299684 0)
(0.186937 0.00290633 0)
(0.186016 0.00281896 0)
(0.185087 0.00273455 0)
(0.184151 0.00265292 0)
(0.183209 0.0025739 0)
(0.182262 0.00249736 0)
(0.18131 0.00242315 0)
(0.180356 0.00235116 0)
(0.1794 0.00228126 0)
(0.178443 0.00221336 0)
(0.177486 0.00214735 0)
(0.17653 0.00208313 0)
(0.175575 0.00202061 0)
(0.174623 0.00195972 0)
(0.173674 0.00190037 0)
(0.172729 0.00184248 0)
(0.17179 0.00178597 0)
(0.170856 0.00173078 0)
(0.169928 0.00167684 0)
(0.169008 0.00162407 0)
(0.168095 0.00157241 0)
(0.167192 0.00152179 0)
(0.166297 0.00147216 0)
(0.165413 0.00142346 0)
(0.164539 0.00137561 0)
(0.163677 0.00132858 0)
(0.162827 0.00128229 0)
(0.16199 0.0012367 0)
(0.161167 0.00119175 0)
(0.160357 0.00114739 0)
(0.159563 0.00110356 0)
(0.158784 0.00106023 0)
(0.158022 0.00101735 0)
(0.157276 0.000974865 0)
(0.156548 0.000932738 0)
(0.155839 0.000890931 0)
(0.155149 0.000849406 0)
(0.154479 0.00080813 0)
(0.15383 0.000767075 0)
(0.153202 0.000726212 0)
(0.152596 0.000685516 0)
(0.152013 0.000644964 0)
(0.151454 0.00060453 0)
(0.15092 0.000564184 0)
(0.150411 0.000523891 0)
(0.149928 0.000483614 0)
(0.149472 0.000443319 0)
(0.149043 0.00040299 0)
(0.148642 0.000362656 0)
(0.14827 0.000322424 0)
(0.147926 0.000282526 0)
(0.14761 0.000243351 0)
(0.147321 0.000205467 0)
(0.147059 0.000169587 0)
(0.146822 0.000136458 0)
(0.146609 0.000106697 0)
(0.146418 8.06462e-05 0)
(0.146248 5.84656e-05 0)
(0.146097 3.99394e-05 0)
(0.145961 2.4698e-05 0)
(0.145838 1.28571e-05 0)
(0.145727 4.7446e-06 0)
(0.145629 5.65213e-07 0)
(0.145547 1.37711e-06 0)
(0.145461 1.25365e-05 0)
(0.196489 0.00702723 0)
(0.197162 0.00781085 0)
(0.19795 0.00837463 0)
(0.198769 0.0087371 0)
(0.199571 0.00893264 0)
(0.200331 0.00898612 0)
(0.20103 0.00891721 0)
(0.201648 0.00874726 0)
(0.202173 0.00849954 0)
(0.202598 0.00819697 0)
(0.202922 0.00786061 0)
(0.203149 0.00750873 0)
(0.203287 0.00715623 0)
(0.203343 0.00681435 0)
(0.20333 0.00649063 0)
(0.203256 0.00618945 0)
(0.20313 0.00591254 0)
(0.202962 0.00565977 0)
(0.202757 0.00542974 0)
(0.202519 0.00522034 0)
(0.202254 0.00502917 0)
(0.201964 0.00485384 0)
(0.20165 0.0046921 0)
(0.201314 0.00454198 0)
(0.200957 0.00440178 0)
(0.200581 0.00427009 0)
(0.200185 0.00414573 0)
(0.19977 0.00402775 0)
(0.199337 0.00391539 0)
(0.198887 0.00380799 0)
(0.198419 0.00370505 0)
(0.197935 0.00360613 0)
(0.197435 0.00351085 0)
(0.196919 0.00341892 0)
(0.196389 0.00333006 0)
(0.195844 0.00324403 0)
(0.195286 0.00316063 0)
(0.194715 0.00307967 0)
(0.194132 0.003001 0)
(0.193538 0.00292445 0)
(0.192932 0.00284991 0)
(0.192316 0.00277725 0)
(0.191691 0.00270635 0)
(0.191057 0.00263712 0)
(0.190415 0.00256946 0)
(0.189765 0.00250328 0)
(0.189109 0.0024385 0)
(0.188447 0.00237504 0)
(0.187779 0.00231283 0)
(0.187107 0.0022518 0)
(0.18643 0.00219188 0)
(0.185751 0.00213301 0)
(0.185069 0.00207512 0)
(0.184385 0.00201816 0)
(0.1837 0.00196207 0)
(0.183015 0.00190679 0)
(0.18233 0.00185226 0)
(0.181645 0.00179843 0)
(0.180963 0.00174524 0)
(0.180283 0.00169265 0)
(0.179607 0.0016406 0)
(0.178934 0.00158904 0)
(0.178266 0.00153792 0)
(0.177604 0.00148719 0)
(0.176948 0.0014368 0)
(0.176299 0.00138671 0)
(0.175658 0.00133687 0)
(0.175025 0.00128725 0)
(0.174402 0.00123779 0)
(0.173789 0.00118846 0)
(0.173187 0.00113922 0)
(0.172597 0.00109004 0)
(0.17202 0.0010409 0)
(0.171457 0.000991758 0)
(0.170907 0.000942598 0)
(0.170374 0.000893397 0)
(0.169856 0.000844137 0)
(0.169356 0.000794797 0)
(0.168874 0.000745357 0)
(0.16841 0.000695793 0)
(0.167966 0.000646087 0)
(0.167542 0.000596234 0)
(0.16714 0.000546261 0)
(0.166759 0.000496254 0)
(0.1664 0.000446398 0)
(0.166063 0.000397011 0)
(0.165748 0.000348578 0)
(0.165454 0.000301749 0)
(0.165182 0.000257297 0)
(0.164931 0.000216005 0)
(0.164699 0.000178529 0)
(0.164486 0.000145291 0)
(0.164291 0.000116466 0)
(0.164113 9.20038e-05 0)
(0.16395 7.1831e-05 0)
(0.1638 5.58094e-05 0)
(0.163664 4.36801e-05 0)
(0.163538 3.54388e-05 0)
(0.163425 3.19501e-05 0)
(0.163301 3.66083e-05 0)
(0.196973 0.00670859 0)
(0.197541 0.0073958 0)
(0.198211 0.00791587 0)
(0.198925 0.00826976 0)
(0.199641 0.00847725 0)
(0.200334 0.00855738 0)
(0.200982 0.00852689 0)
(0.201572 0.00840373 0)
(0.20209 0.00820754 0)
(0.202531 0.00795801 0)
(0.202893 0.00767349 0)
(0.203179 0.00737019 0)
(0.203393 0.00706158 0)
(0.203544 0.00675812 0)
(0.203639 0.00646725 0)
(0.203685 0.00619363 0)
(0.203692 0.00593962 0)
(0.203666 0.00570583 0)
(0.203612 0.00549163 0)
(0.203535 0.00529563 0)
(0.203437 0.00511605 0)
(0.203323 0.00495098 0)
(0.203193 0.00479855 0)
(0.203048 0.00465705 0)
(0.20289 0.00452499 0)
(0.202719 0.00440107 0)
(0.202535 0.00428419 0)
(0.202338 0.00417345 0)
(0.202129 0.00406809 0)
(0.201908 0.00396748 0)
(0.201675 0.00387111 0)
(0.201429 0.00377853 0)
(0.201172 0.00368936 0)
(0.200903 0.00360329 0)
(0.200622 0.00352004 0)
(0.20033 0.00343937 0)
(0.200027 0.00336107 0)
(0.199713 0.00328494 0)
(0.199388 0.00321082 0)
(0.199052 0.00313855 0)
(0.198706 0.003068 0)
(0.19835 0.00299904 0)
(0.197984 0.00293157 0)
(0.197609 0.00286547 0)
(0.197225 0.00280065 0)
(0.196832 0.00273703 0)
(0.196431 0.00267451 0)
(0.196022 0.00261303 0)
(0.195605 0.00255251 0)
(0.195181 0.00249287 0)
(0.19475 0.00243406 0)
(0.194313 0.002376 0)
(0.19387 0.00231865 0)
(0.193421 0.00226193 0)
(0.192968 0.0022058 0)
(0.19251 0.00215019 0)
(0.192048 0.00209505 0)
(0.191583 0.00204032 0)
(0.191115 0.00198596 0)
(0.190644 0.00193191 0)
(0.190172 0.00187812 0)
(0.189699 0.00182454 0)
(0.189225 0.00177112 0)
(0.188751 0.00171782 0)
(0.188278 0.00166457 0)
(0.187806 0.00161135 0)
(0.187337 0.0015581 0)
(0.18687 0.00150479 0)
(0.186406 0.00145137 0)
(0.185947 0.00139781 0)
(0.185492 0.00134407 0)
(0.185043 0.00129011 0)
(0.184601 0.00123593 0)
(0.184166 0.00118148 0)
(0.183738 0.00112675 0)
(0.18332 0.00107172 0)
(0.182911 0.00101638 0)
(0.182512 0.000960716 0)
(0.182124 0.000904718 0)
(0.181748 0.000848378 0)
(0.181385 0.000791701 0)
(0.181035 0.000734712 0)
(0.180699 0.000677483 0)
(0.180378 0.000620154 0)
(0.180071 0.000562974 0)
(0.179779 0.00050633 0)
(0.179502 0.000450773 0)
(0.179239 0.000397005 0)
(0.178992 0.000345826 0)
(0.178758 0.000298033 0)
(0.178539 0.000254296 0)
(0.178334 0.000215062 0)
(0.178142 0.000180557 0)
(0.177963 0.000150814 0)
(0.177796 0.000125758 0)
(0.177641 0.000105202 0)
(0.177497 8.89322e-05 0)
(0.177363 7.69235e-05 0)
(0.17724 6.9533e-05 0)
(0.177105 6.71815e-05 0)
(0.197399 0.00642706 0)
(0.197885 0.00702924 0)
(0.198458 0.00750347 0)
(0.199079 0.00784204 0)
(0.199713 0.00805437 0)
(0.200336 0.00815375 0)
(0.200926 0.0081537 0)
(0.201471 0.00806902 0)
(0.201959 0.00791602 0)
(0.202384 0.00771146 0)
(0.202743 0.00747127 0)
(0.203039 0.00720973 0)
(0.203274 0.00693901 0)
(0.203456 0.0066688 0)
(0.20359 0.00640631 0)
(0.203683 0.00615636 0)
(0.203742 0.00592178 0)
(0.203774 0.00570376 0)
(0.203783 0.00550235 0)
(0.203773 0.00531678 0)
(0.203749 0.00514582 0)
(0.203711 0.00498806 0)
(0.203663 0.00484198 0)
(0.203606 0.00470618 0)
(0.20354 0.00457936 0)
(0.203466 0.00446037 0)
(0.203384 0.00434823 0)
(0.203296 0.00424208 0)
(0.2032 0.00414121 0)
(0.203097 0.00404502 0)
(0.202987 0.003953 0)
(0.20287 0.00386472 0)
(0.202746 0.00377978 0)
(0.202615 0.00369789 0)
(0.202477 0.00361874 0)
(0.202332 0.0035421 0)
(0.20218 0.00346775 0)
(0.20202 0.00339549 0)
(0.201854 0.00332514 0)
(0.20168 0.00325655 0)
(0.2015 0.00318957 0)
(0.201312 0.00312407 0)
(0.201117 0.00305994 0)
(0.200916 0.00299706 0)
(0.200707 0.00293532 0)
(0.200492 0.00287464 0)
(0.20027 0.00281493 0)
(0.200042 0.00275609 0)
(0.199807 0.00269806 0)
(0.199566 0.00264075 0)
(0.199319 0.0025841 0)
(0.199065 0.00252803 0)
(0.198806 0.00247249 0)
(0.198542 0.0024174 0)
(0.198272 0.0023627 0)
(0.197997 0.00230833 0)
(0.197718 0.00225424 0)
(0.197434 0.00220036 0)
(0.197145 0.00214663 0)
(0.196853 0.00209301 0)
(0.196558 0.00203943 0)
(0.196259 0.00198584 0)
(0.195957 0.00193219 0)
(0.195653 0.00187842 0)
(0.195347 0.00182449 0)
(0.19504 0.00177035 0)
(0.194731 0.00171595 0)
(0.194422 0.00166124 0)
(0.194113 0.00160618 0)
(0.193804 0.00155074 0)
(0.193496 0.00149487 0)
(0.193189 0.00143855 0)
(0.192885 0.00138175 0)
(0.192583 0.00132444 0)
(0.192284 0.00126661 0)
(0.19199 0.00120824 0)
(0.191699 0.00114932 0)
(0.191414 0.00108985 0)
(0.191134 0.00102982 0)
(0.19086 0.000969245 0)
(0.190593 0.000908148 0)
(0.190333 0.000846587 0)
(0.190081 0.000784668 0)
(0.189837 0.000722577 0)
(0.189601 0.00066061 0)
(0.189373 0.000599201 0)
(0.189154 0.000538934 0)
(0.188943 0.000480532 0)
(0.188741 0.000424794 0)
(0.188547 0.000372511 0)
(0.188361 0.000324348 0)
(0.188185 0.000280774 0)
(0.188017 0.000242046 0)
(0.187858 0.000208232 0)
(0.187708 0.000179277 0)
(0.187566 0.000155026 0)
(0.187432 0.000135274 0)
(0.187306 0.00011985 0)
(0.18719 0.000108535 0)
(0.187061 9.95872e-05 0)
(0.197776 0.00617443 0)
(0.198195 0.00670298 0)
(0.198688 0.00713254 0)
(0.199229 0.00745201 0)
(0.199789 0.007664 0)
(0.200346 0.00777689 0)
(0.20088 0.00780103 0)
(0.201379 0.00774837 0)
(0.201831 0.00763231 0)
(0.202231 0.00746692 0)
(0.202576 0.00726586 0)
(0.202867 0.00704166 0)
(0.203105 0.00680518 0)
(0.203295 0.00656531 0)
(0.203444 0.00632892 0)
(0.203555 0.00610087 0)
(0.203637 0.00588426 0)
(0.203692 0.00568078 0)
(0.203728 0.00549098 0)
(0.203747 0.00531465 0)
(0.203752 0.00515109 0)
(0.203747 0.00499927 0)
(0.203733 0.00485808 0)
(0.203712 0.00472639 0)
(0.203684 0.00460311 0)
(0.203652 0.00448727 0)
(0.203615 0.004378 0)
(0.203573 0.00427453 0)
(0.203527 0.00417623 0)
(0.203478 0.00408251 0)
(0.203425 0.00399291 0)
(0.203368 0.00390699 0)
(0.203307 0.00382441 0)
(0.203243 0.00374485 0)
(0.203175 0.00366803 0)
(0.203104 0.00359371 0)
(0.203029 0.00352167 0)
(0.20295 0.00345171 0)
(0.202868 0.00338366 0)
(0.202781 0.00331736 0)
(0.202691 0.00325265 0)
(0.202597 0.00318942 0)
(0.2025 0.00312752 0)
(0.202398 0.00306685 0)
(0.202292 0.00300731 0)
(0.202182 0.00294878 0)
(0.202068 0.00289118 0)
(0.20195 0.00283441 0)
(0.201828 0.00277839 0)
(0.201702 0.00272305 0)
(0.201572 0.0026683 0)
(0.201438 0.00261406 0)
(0.2013 0.00256027 0)
(0.201158 0.00250685 0)
(0.201012 0.00245374 0)
(0.200863 0.00240087 0)
(0.200709 0.00234817 0)
(0.200552 0.00229557 0)
(0.200392 0.00224302 0)
(0.200228 0.00219046 0)
(0.200061 0.00213781 0)
(0.19989 0.00208502 0)
(0.199717 0.00203204 0)
(0.199541 0.0019788 0)
(0.199363 0.00192524 0)
(0.199183 0.00187132 0)
(0.199 0.00181699 0)
(0.198816 0.00176219 0)
(0.19863 0.00170687 0)
(0.198443 0.001651 0)
(0.198255 0.00159453 0)
(0.198066 0.00153743 0)
(0.197878 0.00147967 0)
(0.197689 0.00142123 0)
(0.197501 0.00136208 0)
(0.197313 0.00130221 0)
(0.197127 0.00124161 0)
(0.196942 0.00118029 0)
(0.196759 0.00111825 0)
(0.196579 0.00105551 0)
(0.196401 0.000992118 0)
(0.196226 0.000928152 0)
(0.196054 0.000863748 0)
(0.195885 0.000799123 0)
(0.195719 0.000734603 0)
(0.195557 0.000670644 0)
(0.195398 0.000607838 0)
(0.195243 0.000546901 0)
(0.195091 0.00048861 0)
(0.194944 0.000433727 0)
(0.1948 0.000382903 0)
(0.194661 0.000336611 0)
(0.194526 0.000295129 0)
(0.194397 0.000258558 0)
(0.194273 0.000226869 0)
(0.194154 0.000199923 0)
(0.194042 0.000177497 0)
(0.193934 0.000159291 0)
(0.193834 0.000144657 0)
(0.193721 0.000130786 0)
(0.198109 0.00594508 0)
(0.198475 0.00641044 0)
(0.198902 0.00679819 0)
(0.199372 0.00709669 0)
(0.199867 0.00730448 0)
(0.200363 0.00742615 0)
(0.200845 0.00746923 0)
(0.201298 0.00744311 0)
(0.201715 0.00735866 0)
(0.202089 0.00722754 0)
(0.202416 0.00706135 0)
(0.202696 0.00687092 0)
(0.202931 0.00666586 0)
(0.203123 0.00645425 0)
(0.203277 0.00624251 0)
(0.203397 0.00603542 0)
(0.203489 0.00583625 0)
(0.203557 0.005647 0)
(0.203606 0.00546865 0)
(0.203638 0.00530145 0)
(0.203658 0.0051451 0)
(0.203668 0.00499899 0)
(0.203669 0.00486234 0)
(0.203663 0.00473428 0)
(0.203652 0.00461396 0)
(0.203637 0.00450057 0)
(0.203618 0.00439337 0)
(0.203596 0.0042917 0)
(0.203571 0.00419498 0)
(0.203543 0.0041027 0)
(0.203514 0.00401441 0)
(0.203482 0.00392973 0)
(0.203448 0.00384832 0)
(0.203413 0.00376989 0)
(0.203376 0.00369418 0)
(0.203337 0.00362094 0)
(0.203297 0.00354997 0)
(0.203255 0.00348108 0)
(0.203212 0.0034141 0)
(0.203167 0.00334887 0)
(0.20312 0.00328525 0)
(0.203072 0.0032231 0)
(0.203022 0.00316231 0)
(0.20297 0.00310276 0)
(0.202916 0.00304433 0)
(0.202861 0.00298694 0)
(0.202804 0.00293048 0)
(0.202745 0.00287486 0)
(0.202684 0.00281999 0)
(0.202621 0.0027658 0)
(0.202556 0.00271219 0)
(0.202489 0.00265909 0)
(0.20242 0.00260643 0)
(0.202348 0.00255412 0)
(0.202275 0.0025021 0)
(0.2022 0.0024503 0)
(0.202122 0.00239863 0)
(0.202042 0.00234705 0)
(0.20196 0.00229546 0)
(0.201876 0.00224382 0)
(0.20179 0.00219205 0)
(0.201702 0.00214008 0)
(0.201612 0.00208786 0)
(0.20152 0.00203532 0)
(0.201426 0.0019824 0)
(0.20133 0.00192904 0)
(0.201232 0.00187518 0)
(0.201133 0.00182078 0)
(0.201032 0.00176578 0)
(0.20093 0.00171013 0)
(0.200827 0.00165379 0)
(0.200722 0.00159672 0)
(0.200616 0.00153889 0)
(0.20051 0.00148027 0)
(0.200402 0.00142084 0)
(0.200294 0.0013606 0)
(0.200186 0.00129952 0)
(0.200077 0.00123762 0)
(0.199969 0.00117491 0)
(0.19986 0.00111142 0)
(0.199751 0.00104722 0)
(0.199643 0.000982391 0)
(0.199535 0.000917098 0)
(0.199427 0.000851576 0)
(0.19932 0.000786164 0)
(0.199212 0.00072132 0)
(0.199105 0.000657626 0)
(0.198998 0.000595769 0)
(0.198891 0.000536487 0)
(0.198785 0.000480502 0)
(0.19868 0.000428435 0)
(0.198576 0.000380754 0)
(0.198474 0.000337749 0)
(0.198375 0.000299546 0)
(0.198278 0.000266136 0)
(0.198185 0.000237398 0)
(0.198095 0.000213097 0)
(0.198009 0.000192848 0)
(0.197928 0.000175769 0)
(0.197833 0.000158938 0)
(0.198404 0.00573503 0)
(0.198725 0.00614634 0)
(0.199097 0.00649592 0)
(0.199508 0.00677295 0)
(0.199943 0.00697386 0)
(0.200385 0.00710053 0)
(0.200818 0.00715809 0)
(0.20123 0.00715375 0)
(0.201612 0.00709618 0)
(0.201959 0.0069949 0)
(0.202267 0.00685965 0)
(0.202535 0.0066997 0)
(0.202762 0.00652348 0)
(0.202953 0.00633822 0)
(0.203109 0.00614986 0)
(0.203234 0.00596299 0)
(0.203332 0.00578092 0)
(0.203408 0.00560587 0)
(0.203465 0.00543913 0)
(0.203506 0.0052813 0)
(0.203535 0.00513246 0)
(0.203553 0.00499233 0)
(0.203562 0.00486042 0)
(0.203565 0.00473612 0)
(0.203562 0.0046188 0)
(0.203555 0.00450782 0)
(0.203545 0.00440256 0)
(0.203531 0.00430246 0)
(0.203515 0.00420703 0)
(0.203497 0.00411582 0)
(0.203477 0.00402843 0)
(0.203456 0.00394451 0)
(0.203433 0.00386375 0)
(0.203409 0.00378588 0)
(0.203385 0.00371066 0)
(0.20336 0.00363786 0)
(0.203334 0.00356729 0)
(0.203307 0.00349878 0)
(0.20328 0.00343215 0)
(0.203253 0.00336726 0)
(0.203224 0.00330397 0)
(0.203196 0.00324216 0)
(0.203167 0.0031817 0)
(0.203137 0.00312249 0)
(0.203107 0.00306442 0)
(0.203077 0.00300738 0)
(0.203046 0.0029513 0)
(0.203015 0.00289607 0)
(0.202983 0.00284161 0)
(0.20295 0.00278784 0)
(0.202917 0.00273467 0)
(0.202883 0.00268202 0)
(0.202849 0.00262983 0)
(0.202813 0.002578 0)
(0.202777 0.00252647 0)
(0.20274 0.00247516 0)
(0.202703 0.00242401 0)
(0.202664 0.00237293 0)
(0.202625 0.00232186 0)
(0.202585 0.00227073 0)
(0.202543 0.00221946 0)
(0.202501 0.002168 0)
(0.202458 0.00211628 0)
(0.202413 0.00206422 0)
(0.202368 0.00201177 0)
(0.202322 0.00195887 0)
(0.202274 0.00190545 0)
(0.202226 0.00185145 0)
(0.202176 0.00179684 0)
(0.202126 0.00174155 0)
(0.202074 0.00168554 0)
(0.202022 0.00162876 0)
(0.201968 0.0015712 0)
(0.201914 0.00151281 0)
(0.201858 0.00145358 0)
(0.201801 0.00139349 0)
(0.201744 0.00133255 0)
(0.201685 0.00127075 0)
(0.201626 0.00120811 0)
(0.201566 0.00114469 0)
(0.201504 0.00108055 0)
(0.201441 0.00101579 0)
(0.201378 0.000950595 0)
(0.201313 0.000885203 0)
(0.201246 0.000819956 0)
(0.201178 0.000755301 0)
(0.201108 0.000691797 0)
(0.201036 0.000630088 0)
(0.200963 0.000570863 0)
(0.200889 0.000514795 0)
(0.200814 0.00046247 0)
(0.200738 0.000414339 0)
(0.200663 0.000370697 0)