/*--------------------------------*- C++ -*----------------------------------*\
| =========                 |                                                 |
| \\      /  F ield         | OpenFOAM: The Open Source CFD Toolbox           |
|  \\    /   O peration     | Version:  2.3.0                                 |
|   \\  /    A nd           | Web:      www.OpenFOAM.org                      |
|    \\/     M anipulation  |                                                 |
\*---------------------------------------------------------------------------*/
FoamFile
{
    version     2.0;
    format      ascii;
    class       volVectorField;
    location    "0.45";
    object      U_0;
}
// * * * * * * * * * * * * * * * * * * * * * * * * * * * * * * * * * * * * * //

dimensions      [0 1 -1 0 0 0 0];

internalField   nonuniform List<vector> 
3105
(
(0.171537 0.00584494 0)
(0.154912 0.00598817 0)
(0.139092 0.00560965 0)
(0.124087 0.00502369 0)
(0.110279 0.00436634 0)
(0.0978622 0.00369668 0)
(0.0868655 0.00305236 0)
(0.0772574 0.00245957 0)
(0.0689815 0.00193455 0)
(0.0619529 0.00148568 0)
(0.0560582 0.00111494 0)
(0.0511639 0.000819027 0)
(0.0471281 0.000590613 0)
(0.0438103 0.000419933 0)
(0.0410793 0.000296361 0)
(0.038818 0.000209644 0)
(0.0369266 0.000150667 0)
(0.035323 0.00011181 0)
(0.0339418 8.70071e-05 0)
(0.0327327 7.16348e-05 0)
(0.0316576 6.23132e-05 0)
(0.0306884 5.66761e-05 0)
(0.0298044 5.31431e-05 0)
(0.0289907 5.07136e-05 0)
(0.0282363 4.87926e-05 0)
(0.027533 4.70549e-05 0)
(0.0268748 4.53439e-05 0)
(0.0262568 4.36013e-05 0)
(0.0256751 4.18211e-05 0)
(0.0251264 4.00213e-05 0)
(0.0246079 3.82272e-05 0)
(0.0241171 3.64632e-05 0)
(0.023652 3.47488e-05 0)
(0.0232104 3.30981e-05 0)
(0.0227907 3.152e-05 0)
(0.0223913 3.00189e-05 0)
(0.0220106 2.85961e-05 0)
(0.0216475 2.72505e-05 0)
(0.0213007 2.59795e-05 0)
(0.0209692 2.47797e-05 0)
(0.0206519 2.36471e-05 0)
(0.0203481 2.25775e-05 0)
(0.0200568 2.15668e-05 0)
(0.0197775 2.06111e-05 0)
(0.0195093 1.97063e-05 0)
(0.0192517 1.88491e-05 0)
(0.0190042 1.80359e-05 0)
(0.0187661 1.72638e-05 0)
(0.0185372 1.65297e-05 0)
(0.0183168 1.58311e-05 0)
(0.0181047 1.51654e-05 0)
(0.0179005 1.45304e-05 0)
(0.0177038 1.39239e-05 0)
(0.0175143 1.33439e-05 0)
(0.0173318 1.27888e-05 0)
(0.0171559 1.22567e-05 0)
(0.0169865 1.1746e-05 0)
(0.0168233 1.12555e-05 0)
(0.0166662 1.07836e-05 0)
(0.0165148 1.03291e-05 0)
(0.0163692 9.89092e-06 0)
(0.016229 9.46788e-06 0)
(0.0160942 9.059e-06 0)
(0.0159647 8.66332e-06 0)
(0.0158403 8.27998e-06 0)
(0.0157209 7.90815e-06 0)
(0.0156064 7.54707e-06 0)
(0.0154968 7.19602e-06 0)
(0.015392 6.85429e-06 0)
(0.0152918 6.52124e-06 0)
(0.0151963 6.19626e-06 0)
(0.0151054 5.8788e-06 0)
(0.0150191 5.56845e-06 0)
(0.0149373 5.26496e-06 0)
(0.01486 4.96838e-06 0)
(0.0147871 4.67906e-06 0)
(0.0147187 4.39772e-06 0)
(0.0146547 4.12523e-06 0)
(0.0145951 3.86229e-06 0)
(0.0145398 3.60873e-06 0)
(0.0144888 3.36251e-06 0)
(0.0144422 3.11838e-06 0)
(0.0144 2.86661e-06 0)
(0.0143625 2.59184e-06 0)
(0.0143298 2.27306e-06 0)
(0.0143024 1.88672e-06 0)
(0.0142807 1.42175e-06 0)
(0.0142654 9.19057e-07 0)
(0.014257 4.81087e-07 0)
(0.0142556 7.12549e-08 0)
(0.0142596 -3.31647e-07 0)
(0.0142674 -6.60626e-07 0)
(0.0142783 -9.06363e-07 0)
(0.0142912 -1.05712e-06 0)
(0.0143053 -1.11169e-06 0)
(0.0143195 -1.08845e-06 0)
(0.0143333 -9.92288e-07 0)
(0.0143456 -8.16509e-07 0)
(0.0143558 -5.9433e-07 0)
(0.0143634 -2.17599e-07 0)
(0.190563 0.00926443 0)
(0.188192 0.00988351 0)
(0.184303 0.00972142 0)
(0.179177 0.00924304 0)
(0.173281 0.00861757 0)
(0.166971 0.00790033 0)
(0.160477 0.00712967 0)
(0.153968 0.00634075 0)
(0.147578 0.00556361 0)
(0.141407 0.0048229 0)
(0.135524 0.00413789 0)
(0.129971 0.00352196 0)
(0.124766 0.00298226 0)
(0.119915 0.00252025 0)
(0.11541 0.00213264 0)
(0.111236 0.0018128 0)
(0.107372 0.00155215 0)
(0.103798 0.00134138 0)
(0.100489 0.00117143 0)
(0.0974213 0.00103408 0)
(0.0945737 0.00092232 0)
(0.0919249 0.000830395 0)
(0.0894558 0.000753768 0)
(0.0871491 0.000688956 0)
(0.0849894 0.000633335 0)
(0.0829627 0.000584957 0)
(0.0810568 0.000542385 0)
(0.0792609 0.000504556 0)
(0.0775653 0.000470673 0)
(0.0759615 0.000440133 0)
(0.0744419 0.000412465 0)
(0.0729997 0.000387292 0)
(0.0716291 0.000364309 0)
(0.0703245 0.000343258 0)
(0.0690812 0.000323921 0)
(0.0678948 0.000306111 0)
(0.0667615 0.000289664 0)
(0.0656777 0.000274439 0)
(0.0646402 0.000260311 0)
(0.0636462 0.00024717 0)
(0.062693 0.000234919 0)
(0.0617783 0.000223474 0)
(0.0608998 0.000212759 0)
(0.0600556 0.000202707 0)
(0.0592439 0.00019326 0)
(0.0584629 0.000184364 0)
(0.0577111 0.000175973 0)
(0.0569872 0.000168045 0)
(0.0562899 0.000160541 0)
(0.0556178 0.000153427 0)
(0.05497 0.000146672 0)
(0.0543455 0.000140249 0)
(0.0537432 0.000134131 0)
(0.0531624 0.000128296 0)
(0.0526022 0.000122721 0)
(0.052062 0.000117388 0)
(0.051541 0.000112278 0)
(0.0510386 0.000107374 0)
(0.0505543 0.000102661 0)
(0.0500876 9.81255e-05 0)
(0.0496379 9.37535e-05 0)
(0.0492049 8.95331e-05 0)
(0.0487882 8.5453e-05 0)
(0.0483875 8.15027e-05 0)
(0.0480023 7.76724e-05 0)
(0.0476325 7.39531e-05 0)
(0.0472778 7.03363e-05 0)
(0.046938 6.68142e-05 0)
(0.0466128 6.33795e-05 0)
(0.0463023 6.00254e-05 0)
(0.0460061 5.67457e-05 0)
(0.0457242 5.35349e-05 0)
(0.0454565 5.03882e-05 0)
(0.045203 4.73016e-05 0)
(0.0449635 4.42723e-05 0)
(0.0447381 4.12982e-05 0)
(0.0445268 3.83779e-05 0)
(0.0443294 3.55098e-05 0)
(0.044146 3.26903e-05 0)
(0.0439767 2.99117e-05 0)
(0.0438215 2.71596e-05 0)
(0.0436807 2.44099e-05 0)
(0.0435543 2.16272e-05 0)
(0.0434429 1.87653e-05 0)
(0.0433469 1.57708e-05 0)
(0.0432669 1.25919e-05 0)
(0.0432034 9.20017e-06 0)
(0.0431569 5.63988e-06 0)
(0.0431275 2.07693e-06 0)
(0.0431153 -1.12986e-06 0)
(0.043119 -3.59219e-06 0)
(0.0431337 -5.1915e-06 0)
(0.0431562 -6.25491e-06 0)
(0.043184 -6.88683e-06 0)
(0.043215 -7.0967e-06 0)
(0.0432471 -6.92881e-06 0)
(0.0432785 -6.39408e-06 0)
(0.0433075 -5.45641e-06 0)
(0.0433323 -4.08455e-06 0)
(0.0433495 -1.53823e-06 0)
(0.193538 0.00893105 0)
(0.194282 0.00995477 0)
(0.194433 0.0103401 0)
(0.193809 0.0103666 0)
(0.192498 0.0101561 0)
(0.190619 0.00975449 0)
(0.188263 0.00920585 0)
(0.18552 0.00855906 0)
(0.182479 0.00785976 0)
(0.179229 0.00714691 0)
(0.175844 0.00645181 0)
(0.17239 0.00579756 0)
(0.168918 0.00519895 0)
(0.165468 0.00466328 0)
(0.162068 0.00419173 0)
(0.158739 0.00378116 0)
(0.155495 0.00342578 0)
(0.152344 0.00311857 0)
(0.14929 0.00285239 0)
(0.146335 0.00262059 0)
(0.143479 0.00241735 0)
(0.140719 0.00223784 0)
(0.138055 0.00207811 0)
(0.135484 0.00193498 0)
(0.133002 0.00180597 0)
(0.130608 0.00168908 0)
(0.128298 0.00158271 0)
(0.12607 0.00148557 0)
(0.12392 0.00139659 0)
(0.121846 0.00131488 0)
(0.119845 0.00123968 0)
(0.117915 0.00117031 0)
(0.116051 0.00110621 0)
(0.114253 0.00104687 0)
(0.112517 0.000991829 0)
(0.11084 0.000940684 0)
(0.109222 0.000893076 0)
(0.107658 0.000848682 0)
(0.106146 0.000807213 0)
(0.104686 0.00076841 0)
(0.103274 0.00073204 0)
(0.101909 0.000697894 0)
(0.100589 0.000665782 0)
(0.099312 0.000635537 0)
(0.0980764 0.000607004 0)
(0.0968807 0.000580046 0)
(0.0957235 0.000554537 0)
(0.0946033 0.000530363 0)
(0.0935188 0.00050742 0)
(0.0924689 0.000485615 0)
(0.0914524 0.000464861 0)
(0.0904681 0.000445079 0)
(0.0895151 0.000426197 0)
(0.0885925 0.000408147 0)
(0.0876993 0.000390869 0)
(0.0868348 0.000374305 0)
(0.0859982 0.000358404 0)
(0.0851888 0.000343116 0)
(0.084406 0.000328396 0)
(0.0836492 0.000314203 0)
(0.0829178 0.000300498 0)
(0.0822114 0.000287243 0)
(0.0815296 0.000274406 0)
(0.0808718 0.000261955 0)
(0.0802379 0.00024986 0)
(0.0796275 0.000238093 0)
(0.0790404 0.00022663 0)
(0.0784763 0.000215446 0)
(0.077935 0.000204519 0)
(0.0774164 0.000193829 0)
(0.0769205 0.000183355 0)
(0.076447 0.000173082 0)
(0.075996 0.000162994 0)
(0.0755675 0.000153078 0)
(0.0751615 0.000143323 0)
(0.0747779 0.000133718 0)
(0.0744169 0.000124256 0)
(0.0740785 0.000114925 0)
(0.0737629 0.00010571 0)
(0.0734702 9.65882e-05 0)
(0.0732006 8.75252e-05 0)
(0.0729543 7.84721e-05 0)
(0.0727318 6.93676e-05 0)
(0.0725334 6.01452e-05 0)
(0.0723594 5.07484e-05 0)
(0.0722102 4.11551e-05 0)
(0.0720859 3.14046e-05 0)
(0.071986 2.16138e-05 0)
(0.0719093 1.19678e-05 0)
(0.0718535 2.86364e-06 0)
(0.0718194 -4.98235e-06 0)
(0.0718081 -1.07169e-05 0)
(0.0718131 -1.43364e-05 0)
(0.0718296 -1.64084e-05 0)
(0.0718541 -1.72921e-05 0)
(0.0718833 -1.72174e-05 0)
(0.0719146 -1.62425e-05 0)
(0.0719454 -1.42516e-05 0)
(0.0719727 -1.08867e-05 0)
(0.0719893 -4.02944e-06 0)
(0.194575 0.00831179 0)
(0.195684 0.00939632 0)
(0.196718 0.00999194 0)
(0.197456 0.0102567 0)
(0.197858 0.0102827 0)
(0.197926 0.0101088 0)
(0.197657 0.00977011 0)
(0.197059 0.00930855 0)
(0.196153 0.00876579 0)
(0.194975 0.00817935 0)
(0.193567 0.00758116 0)
(0.191971 0.00699655 0)
(0.190226 0.00644372 0)
(0.188369 0.00593392 0)
(0.186432 0.00547244 0)
(0.184439 0.00505992 0)
(0.182411 0.00469386 0)
(0.180363 0.00436992 0)
(0.178307 0.00408291 0)
(0.17625 0.00382759 0)
(0.1742 0.00359908 0)
(0.172161 0.00339311 0)
(0.170137 0.00320608 0)
(0.16813 0.00303504 0)
(0.166143 0.00287764 0)
(0.164178 0.002732 0)
(0.162237 0.00259665 0)
(0.160322 0.00247039 0)
(0.158433 0.00235228 0)
(0.156573 0.00224153 0)
(0.154742 0.00213749 0)
(0.15294 0.0020396 0)
(0.15117 0.00194737 0)
(0.149431 0.00186038 0)
(0.147724 0.00177824 0)
(0.146049 0.0017006 0)
(0.144407 0.00162714 0)
(0.142797 0.00155757 0)
(0.14122 0.00149163 0)
(0.139676 0.00142907 0)
(0.138164 0.00136967 0)
(0.136685 0.0013132 0)
(0.135238 0.00125948 0)
(0.133822 0.00120833 0)
(0.132439 0.00115957 0)
(0.131087 0.00111306 0)
(0.129766 0.00106864 0)
(0.128476 0.00102619 0)
(0.127216 0.00098557 0)
(0.125986 0.000946668 0)
(0.124786 0.000909373 0)
(0.123615 0.00087358 0)
(0.122474 0.000839192 0)
(0.121361 0.000806119 0)
(0.120276 0.000774273 0)
(0.119219 0.000743575 0)
(0.11819 0.000713948 0)
(0.117189 0.000685321 0)
(0.116215 0.000657625 0)
(0.115268 0.000630796 0)
(0.114347 0.000604775 0)
(0.113454 0.000579505 0)
(0.112587 0.00055493 0)
(0.111746 0.000531002 0)
(0.110932 0.00050767 0)
(0.110144 0.000484891 0)
(0.109382 0.000462621 0)
(0.108646 0.000440821 0)
(0.107937 0.000419451 0)
(0.107255 0.000398478 0)
(0.106598 0.000377869 0)
(0.105969 0.000357593 0)
(0.105366 0.000337625 0)
(0.10479 0.000317939 0)
(0.104241 0.000298515 0)
(0.10372 0.000279333 0)
(0.103226 0.000260375 0)
(0.10276 0.000241619 0)
(0.102322 0.000223039 0)
(0.101913 0.0002046 0)
(0.101533 0.000186252 0)
(0.101182 0.000167936 0)
(0.10086 0.000149587 0)
(0.100569 0.000131146 0)
(0.100308 0.000112592 0)
(0.100077 9.39785e-05 0)
(0.0998766 7.5474e-05 0)
(0.0997051 5.74013e-05 0)
(0.0995612 4.02084e-05 0)
(0.0994427 2.42678e-05 0)
(0.0993455 9.89255e-06 0)
(0.0992673 -2.45812e-06 0)
(0.0992136 -1.21876e-05 0)
(0.0991821 -1.88879e-05 0)
(0.0991667 -2.27157e-05 0)
(0.0991631 -2.42674e-05 0)
(0.0991677 -2.39286e-05 0)
(0.0991769 -2.16674e-05 0)
(0.0991872 -1.67173e-05 0)
(0.099187 -5.29771e-06 0)
(0.195311 0.00782104 0)
(0.196289 0.00882334 0)
(0.197348 0.00944575 0)
(0.198326 0.00978246 0)
(0.199168 0.00990715 0)
(0.199854 0.00985471 0)
(0.200359 0.009652 0)
(0.20066 0.0093304 0)
(0.20075 0.00892309 0)
(0.200632 0.00846147 0)
(0.200318 0.00797349 0)
(0.19983 0.00748258 0)
(0.199188 0.00700676 0)
(0.198416 0.00655841 0)
(0.197538 0.00614467 0)
(0.196571 0.00576839 0)
(0.195534 0.00542923 0)
(0.19444 0.0051248 0)
(0.193299 0.00485155 0)
(0.19212 0.00460552 0)
(0.19091 0.00438279 0)
(0.189673 0.00417982 0)
(0.188413 0.00399353 0)
(0.187134 0.00382137 0)
(0.185839 0.00366124 0)
(0.18453 0.00351149 0)
(0.183209 0.00337078 0)
(0.181879 0.00323808 0)
(0.180542 0.00311252 0)
(0.179199 0.00299344 0)
(0.177853 0.00288026 0)
(0.176505 0.00277251 0)
(0.175158 0.00266978 0)
(0.173811 0.00257172 0)
(0.172468 0.00247799 0)
(0.171129 0.00238834 0)
(0.169796 0.00230249 0)
(0.16847 0.00222021 0)
(0.167153 0.00214129 0)
(0.165844 0.00206554 0)
(0.164546 0.00199277 0)
(0.163259 0.00192282 0)
(0.161984 0.00185553 0)
(0.160722 0.00179075 0)
(0.159473 0.00172834 0)
(0.158239 0.00166818 0)
(0.15702 0.00161015 0)
(0.155816 0.00155413 0)
(0.154628 0.00150001 0)
(0.153457 0.0014477 0)
(0.152303 0.00139709 0)
(0.151166 0.00134809 0)
(0.150048 0.00130062 0)
(0.148947 0.00125458 0)
(0.147866 0.00120989 0)
(0.146803 0.00116648 0)
(0.14576 0.00112428 0)
(0.144737 0.0010832 0)
(0.143734 0.00104318 0)
(0.142752 0.00100415 0)
(0.14179 0.000966051 0)
(0.14085 0.000928817 0)
(0.139931 0.000892389 0)
(0.139034 0.000856711 0)
(0.138159 0.000821728 0)
(0.137307 0.000787386 0)
(0.136478 0.000753636 0)
(0.135672 0.000720431 0)
(0.134891 0.000687724 0)
(0.134133 0.000655474 0)
(0.1334 0.00062364 0)
(0.132692 0.000592186 0)
(0.13201 0.000561079 0)
(0.131354 0.000530288 0)
(0.130725 0.000499785 0)
(0.130122 0.000469547 0)
(0.129548 0.000439547 0)
(0.129001 0.000409758 0)
(0.128483 0.000380147 0)
(0.127995 0.000350675 0)
(0.127536 0.00032129 0)
(0.127108 0.000291939 0)
(0.126711 0.000262574 0)
(0.126345 0.000233175 0)
(0.126011 0.000203788 0)
(0.125708 0.00017456 0)
(0.125436 0.000145792 0)
(0.125195 0.000117962 0)
(0.124983 9.17043e-05 0)
(0.124797 6.76883e-05 0)
(0.124637 4.63652e-05 0)
(0.124499 2.76607e-05 0)
(0.124378 1.16829e-05 0)
(0.124273 -1.13446e-06 0)
(0.124188 -1.07977e-05 0)
(0.124123 -1.72557e-05 0)
(0.124074 -2.03591e-05 0)
(0.124036 -2.0093e-05 0)
(0.124007 -1.55336e-05 0)
(0.123971 -1.59028e-06 0)
(0.195939 0.00739473 0)
(0.196749 0.00828516 0)
(0.197675 0.00888554 0)
(0.198599 0.00924495 0)
(0.199471 0.00941656 0)
(0.200268 0.00943063 0)
(0.200967 0.00930958 0)
(0.201545 0.00907863 0)
(0.201987 0.00876517 0)
(0.202288 0.00839579 0)
(0.20245 0.00799463 0)
(0.202481 0.00758241 0)
(0.202392 0.00717565 0)
(0.202197 0.00678631 0)
(0.20191 0.00642199 0)
(0.201545 0.00608655 0)
(0.201115 0.00578092 0)
(0.200628 0.00550401 0)
(0.200095 0.00525349 0)
(0.19952 0.00502644 0)
(0.19891 0.00481978 0)
(0.198267 0.00463058 0)
(0.197595 0.00445623 0)
(0.196895 0.00429447 0)
(0.196171 0.00414345 0)
(0.195422 0.00400162 0)
(0.194652 0.00386776 0)
(0.193861 0.00374088 0)
(0.19305 0.00362019 0)
(0.192221 0.00350503 0)
(0.191375 0.00339488 0)
(0.190514 0.00328931 0)
(0.189638 0.00318793 0)
(0.18875 0.00309043 0)
(0.187849 0.00299654 0)
(0.186938 0.00290601 0)
(0.186018 0.00281863 0)
(0.185089 0.00273419 0)
(0.184153 0.00265254 0)
(0.183211 0.00257349 0)
(0.182264 0.00249692 0)
(0.181313 0.00242269 0)
(0.180359 0.00235067 0)
(0.179403 0.00228074 0)
(0.178447 0.0022128 0)
(0.17749 0.00214675 0)
(0.176534 0.0020825 0)
(0.175579 0.00201994 0)
(0.174627 0.00195901 0)
(0.173679 0.00189962 0)
(0.172735 0.00184168 0)
(0.171795 0.00178512 0)
(0.170862 0.00172988 0)
(0.169935 0.00167588 0)
(0.169015 0.00162305 0)
(0.168103 0.00157133 0)
(0.1672 0.00152066 0)
(0.166307 0.00147096 0)
(0.165423 0.00142219 0)
(0.16455 0.00137427 0)
(0.163689 0.00132716 0)
(0.16284 0.00128079 0)
(0.162004 0.00123512 0)
(0.161182 0.00119008 0)
(0.160373 0.00114563 0)
(0.15958 0.00110171 0)
(0.158803 0.00105828 0)
(0.158041 0.0010153 0)
(0.157297 0.000972704 0)
(0.156571 0.000930467 0)
(0.155863 0.000888546 0)
(0.155175 0.000846903 0)
(0.154507 0.000805506 0)
(0.15386 0.000764325 0)
(0.153234 0.000723333 0)
(0.15263 0.000682505 0)
(0.15205 0.000641816 0)
(0.151493 0.00060124 0)
(0.150962 0.000560746 0)
(0.150455 0.000520299 0)
(0.149975 0.000479859 0)
(0.149522 0.000439394 0)
(0.149097 0.000398892 0)
(0.148699 0.00035839 0)
(0.14833 0.000318008 0)
(0.147989 0.000278 0)
(0.147676 0.000238779 0)
(0.147391 0.000200941 0)
(0.147132 0.000165213 0)
(0.146898 0.000132344 0)
(0.146688 0.00010291 0)
(0.146501 7.7236e-05 0)
(0.146333 5.54288e-05 0)
(0.146184 3.72096e-05 0)
(0.14605 2.22466e-05 0)
(0.145928 1.07291e-05 0)
(0.145819 2.93143e-06 0)
(0.145724 -1.01822e-06 0)
(0.145643 -4.77725e-08 0)
(0.14556 1.11903e-05 0)
(0.196489 0.00702721 0)
(0.197162 0.00781082 0)
(0.19795 0.00837459 0)
(0.198769 0.00873707 0)
(0.199571 0.0089326 0)
(0.200331 0.00898608 0)
(0.20103 0.00891717 0)
(0.201648 0.00874722 0)
(0.202173 0.00849949 0)
(0.202598 0.00819692 0)
(0.202922 0.00786055 0)
(0.203149 0.00750866 0)
(0.203287 0.00715617 0)
(0.203343 0.00681427 0)
(0.20333 0.00649055 0)
(0.203256 0.00618936 0)
(0.203131 0.00591245 0)
(0.202962 0.00565967 0)
(0.202757 0.00542963 0)
(0.20252 0.00522022 0)
(0.202255 0.00502904 0)
(0.201964 0.0048537 0)
(0.20165 0.00469195 0)
(0.201314 0.00454182 0)
(0.200958 0.00440161 0)
(0.200581 0.0042699 0)
(0.200186 0.00414553 0)
(0.199771 0.00402754 0)
(0.199338 0.00391515 0)
(0.198888 0.00380775 0)
(0.19842 0.00370479 0)
(0.197936 0.00360584 0)
(0.197436 0.00351055 0)
(0.19692 0.00341859 0)
(0.19639 0.00332971 0)
(0.195846 0.00324365 0)
(0.195288 0.00316023 0)
(0.194717 0.00307924 0)
(0.194134 0.00300054 0)
(0.193539 0.00292397 0)
(0.192934 0.00284939 0)
(0.192318 0.0027767 0)
(0.191693 0.00270576 0)
(0.191059 0.00263649 0)
(0.190418 0.00256879 0)
(0.189768 0.00250257 0)
(0.189112 0.00243774 0)
(0.18845 0.00237423 0)
(0.187783 0.00231197 0)
(0.187111 0.00225088 0)
(0.186435 0.00219091 0)
(0.185756 0.00213198 0)
(0.185074 0.00207403 0)
(0.18439 0.002017 0)
(0.183706 0.00196083 0)
(0.183021 0.00190548 0)
(0.182336 0.00185087 0)
(0.181653 0.00179695 0)
(0.180971 0.00174368 0)
(0.180292 0.001691 0)
(0.179616 0.00163885 0)
(0.178945 0.00158719 0)
(0.178278 0.00153596 0)
(0.177616 0.00148512 0)
(0.176961 0.00143462 0)
(0.176313 0.00138441 0)
(0.175673 0.00133444 0)
(0.175041 0.00128468 0)
(0.174419 0.00123509 0)
(0.173808 0.00118562 0)
(0.173207 0.00113624 0)
(0.172619 0.00108691 0)
(0.172043 0.00103761 0)
(0.171482 0.000988306 0)
(0.170934 0.00093898 0)
(0.170403 0.00088961 0)
(0.169887 0.000840174 0)
(0.169389 0.000790654 0)
(0.168909 0.000741025 0)
(0.168447 0.000691267 0)
(0.168006 0.000641361 0)
(0.167585 0.000591304 0)
(0.167185 0.000541129 0)
(0.166807 0.000490934 0)
(0.166451 0.000440918 0)
(0.166116 0.000391422 0)
(0.165804 0.000342957 0)
(0.165514 0.000296198 0)
(0.165244 0.000251929 0)
(0.164995 0.000210927 0)
(0.164766 0.000173824 0)
(0.164556 0.000141008 0)
(0.164363 0.000112614 0)
(0.164187 8.85755e-05 0)
(0.164026 6.88208e-05 0)
(0.163879 5.31647e-05 0)
(0.163744 4.13189e-05 0)
(0.163621 3.32946e-05 0)
(0.163508 2.99659e-05 0)
(0.163387 3.47372e-05 0)
(0.196973 0.00670856 0)
(0.197541 0.00739577 0)
(0.198211 0.00791584 0)
(0.198925 0.00826972 0)
(0.199641 0.00847721 0)
(0.200334 0.00855734 0)
(0.200983 0.00852684 0)
(0.201572 0.00840368 0)
(0.20209 0.00820748 0)
(0.202531 0.00795795 0)
(0.202893 0.00767343 0)
(0.203179 0.00737012 0)
(0.203394 0.0070615 0)
(0.203544 0.00675804 0)
(0.203639 0.00646716 0)
(0.203686 0.00619353 0)
(0.203693 0.00593952 0)
(0.203666 0.00570572 0)
(0.203612 0.00549151 0)
(0.203535 0.0052955 0)
(0.203438 0.00511591 0)
(0.203323 0.00495082 0)
(0.203193 0.00479838 0)
(0.203049 0.00465688 0)
(0.20289 0.0045248 0)
(0.202719 0.00440086 0)
(0.202535 0.00428397 0)
(0.202338 0.00417321 0)
(0.20213 0.00406783 0)
(0.201908 0.00396721 0)
(0.201675 0.00387082 0)
(0.20143 0.00377821 0)
(0.201173 0.00368902 0)
(0.200904 0.00360293 0)
(0.200623 0.00351966 0)
(0.200331 0.00343896 0)
(0.200028 0.00336062 0)
(0.199714 0.00328446 0)
(0.199389 0.0032103 0)
(0.199053 0.003138 0)
(0.198707 0.00306741 0)
(0.198352 0.00299842 0)
(0.197986 0.0029309 0)
(0.197611 0.00286476 0)
(0.197227 0.00279989 0)
(0.196835 0.00273622 0)
(0.196433 0.00267365 0)
(0.196024 0.00261211 0)
(0.195608 0.00255153 0)
(0.195184 0.00249183 0)
(0.194753 0.00243295 0)
(0.194317 0.00237482 0)
(0.193874 0.00231739 0)
(0.193426 0.0022606 0)
(0.192972 0.00220438 0)
(0.192515 0.00214868 0)
(0.192054 0.00209345 0)
(0.191589 0.00203862 0)
(0.191121 0.00198416 0)
(0.190651 0.00193 0)
(0.190179 0.0018761 0)
(0.189707 0.0018224 0)
(0.189233 0.00176885 0)
(0.18876 0.00171541 0)
(0.188288 0.00166203 0)
(0.187817 0.00160867 0)
(0.187348 0.00155527 0)
(0.186882 0.0015018 0)
(0.18642 0.00144822 0)
(0.185961 0.00139449 0)
(0.185508 0.00134057 0)
(0.18506 0.00128644 0)
(0.184619 0.00123207 0)
(0.184185 0.00117743 0)
(0.183759 0.0011225 0)
(0.183342 0.00106727 0)
(0.182934 0.00101172 0)
(0.182537 0.000955846 0)
(0.182151 0.000899627 0)
(0.181777 0.000843062 0)
(0.181416 0.000786155 0)
(0.181068 0.000728937 0)
(0.180735 0.000671485 0)
(0.180415 0.000613954 0)
(0.18011 0.000556609 0)
(0.17982 0.000499862 0)
(0.179545 0.000444285 0)
(0.179285 0.000390602 0)
(0.17904 0.000339624 0)
(0.178808 0.000292141 0)
(0.178591 0.000248795 0)
(0.178388 0.000210007 0)
(0.178198 0.000175967 0)
(0.178021 0.00014669 0)
(0.177856 0.00012208 0)
(0.177703 0.000101922 0)
(0.177561 8.59925e-05 0)
(0.177428 7.42719e-05 0)
(0.177307 6.71064e-05 0)
(0.177174 6.4931e-05 0)
(0.197399 0.00642703 0)
(0.197885 0.00702921 0)
(0.198458 0.00750343 0)
(0.199079 0.007842 0)
(0.199713 0.00805432 0)
(0.200336 0.0081537 0)
(0.200927 0.00815365 0)
(0.201471 0.00806896 0)
(0.201959 0.00791596 0)
(0.202384 0.0077114 0)
(0.202743 0.00747119 0)
(0.203039 0.00720965 0)
(0.203275 0.00693892 0)
(0.203456 0.00666871 0)
(0.20359 0.00640621 0)
(0.203683 0.00615626 0)
(0.203743 0.00592167 0)
(0.203774 0.00570364 0)
(0.203783 0.00550222 0)
(0.203774 0.00531663 0)
(0.203749 0.00514567 0)
(0.203712 0.00498789 0)
(0.203664 0.0048418 0)
(0.203606 0.00470599 0)
(0.20354 0.00457916 0)
(0.203466 0.00446015 0)
(0.203385 0.00434799 0)
(0.203296 0.00424182 0)
(0.2032 0.00414094 0)
(0.203098 0.00404473 0)
(0.202988 0.00395269 0)
(0.202871 0.00386438 0)
(0.202747 0.00377942 0)
(0.202616 0.0036975 0)
(0.202478 0.00361832 0)
(0.202333 0.00354165 0)
(0.202181 0.00346727 0)
(0.202021 0.00339497 0)
(0.201855 0.00332459 0)
(0.201681 0.00325596 0)
(0.201501 0.00318894 0)
(0.201313 0.0031234 0)
(0.201119 0.00305922 0)
(0.200917 0.00299628 0)
(0.200709 0.0029345 0)
(0.200494 0.00287376 0)
(0.200272 0.00281399 0)
(0.200044 0.00275509 0)
(0.199809 0.00269699 0)
(0.199568 0.00263961 0)
(0.199321 0.00258289 0)
(0.199068 0.00252674 0)
(0.198809 0.00247111 0)
(0.198545 0.00241593 0)
(0.198275 0.00236114 0)
(0.198001 0.00230668 0)
(0.197722 0.00225248 0)
(0.197438 0.00219849 0)
(0.19715 0.00214465 0)
(0.196858 0.0020909 0)
(0.196563 0.00203719 0)
(0.196264 0.00198347 0)
(0.195963 0.00192968 0)
(0.19566 0.00187577 0)
(0.195354 0.00182168 0)
(0.195047 0.00176738 0)
(0.194739 0.00171281 0)
(0.194431 0.00165792 0)
(0.194122 0.00160268 0)
(0.193814 0.00154705 0)
(0.193507 0.00149099 0)
(0.193201 0.00143447 0)
(0.192898 0.00137746 0)
(0.192597 0.00131993 0)
(0.192299 0.00126188 0)
(0.192006 0.00120328 0)
(0.191716 0.00114413 0)
(0.191432 0.00108442 0)
(0.191153 0.00102415 0)
(0.190881 0.000963322 0)
(0.190615 0.000901976 0)
(0.190357 0.00084017 0)
(0.190106 0.000778018 0)
(0.189863 0.000715719 0)
(0.189629 0.000653589 0)
(0.189403 0.000592081 0)
(0.189185 0.000531804 0)
(0.188975 0.000473496 0)
(0.188774 0.000417966 0)
(0.188582 0.000365996 0)
(0.188398 0.00031823 0)
(0.188223 0.000275107 0)
(0.188057 0.000236855 0)
(0.187899 0.000203519 0)
(0.18775 0.000175024 0)
(0.18761 0.000151195 0)
(0.187477 0.000131814 0)
(0.187353 0.000116706 0)
(0.187238 0.000105649 0)
(0.187111 9.69295e-05 0)
(0.197776 0.00617439 0)
(0.198195 0.00670294 0)
(0.198688 0.00713249 0)
(0.199229 0.00745196 0)
(0.199789 0.00766395 0)
(0.200346 0.00777683 0)
(0.20088 0.00780098 0)
(0.201379 0.00774831 0)
(0.201831 0.00763224 0)
(0.202231 0.00746684 0)
(0.202576 0.00726578 0)
(0.202867 0.00704158 0)
(0.203105 0.00680508 0)
(0.203295 0.00656521 0)
(0.203444 0.00632882 0)
(0.203556 0.00610075 0)
(0.203637 0.00588414 0)
(0.203693 0.00568064 0)
(0.203728 0.00549084 0)
(0.203747 0.0053145 0)
(0.203752 0.00515092 0)
(0.203747 0.00499909 0)
(0.203733 0.00485789 0)
(0.203712 0.00472618 0)
(0.203685 0.00460289 0)
(0.203652 0.00448703 0)
(0.203615 0.00437774 0)
(0.203573 0.00427426 0)
(0.203528 0.00417593 0)
(0.203478 0.0040822 0)
(0.203425 0.00399257 0)
(0.203368 0.00390663 0)
(0.203308 0.00382403 0)
(0.203244 0.00374444 0)
(0.203176 0.00366759 0)
(0.203105 0.00359324 0)
(0.20303 0.00352116 0)
(0.202951 0.00345117 0)
(0.202869 0.00338308 0)
(0.202782 0.00331673 0)
(0.202692 0.00325199 0)
(0.202598 0.0031887 0)
(0.202501 0.00312676 0)
(0.202399 0.00306604 0)
(0.202293 0.00300643 0)
(0.202183 0.00294785 0)
(0.20207 0.00289018 0)
(0.201952 0.00283335 0)
(0.20183 0.00277726 0)
(0.201704 0.00272184 0)
(0.201574 0.00266701 0)
(0.20144 0.00261269 0)
(0.201302 0.00255881 0)
(0.20116 0.0025053 0)
(0.201015 0.00245209 0)
(0.200865 0.00239911 0)
(0.200712 0.00234629 0)
(0.200555 0.00229358 0)
(0.200395 0.00224091 0)
(0.200231 0.00218821 0)
(0.200064 0.00213543 0)
(0.199894 0.00208249 0)
(0.199722 0.00202936 0)
(0.199546 0.00197596 0)
(0.199368 0.00192224 0)
(0.199188 0.00186815 0)
(0.199006 0.00181363 0)
(0.198822 0.00175864 0)
(0.198637 0.00170313 0)
(0.19845 0.00164705 0)
(0.198263 0.00159037 0)
(0.198075 0.00153306 0)
(0.197886 0.00147507 0)
(0.197698 0.0014164 0)
(0.197511 0.00135701 0)
(0.197324 0.0012969 0)
(0.197138 0.00123605 0)
(0.196954 0.00117447 0)
(0.196772 0.00111217 0)
(0.196593 0.00104917 0)
(0.196416 0.000985522 0)
(0.196241 0.000921304 0)
(0.19607 0.000856664 0)
(0.195902 0.000791834 0)
(0.195737 0.000727155 0)
(0.195576 0.000663103 0)
(0.195418 0.000600294 0)
(0.195264 0.000539454 0)
(0.195113 0.00048137 0)
(0.194966 0.000426794 0)
(0.194823 0.000376358 0)
(0.194685 0.000330508 0)
(0.194551 0.000289496 0)
(0.194423 0.0002534 0)
(0.1943 0.000222172 0)
(0.194183 0.000195653 0)
(0.194071 0.000173608 0)
(0.193965 0.000155732 0)
(0.193866 0.000141381 0)
(0.193753 0.000127776 0)
(0.198109 0.00594504 0)
(0.198475 0.0064104 0)
(0.198902 0.00679814 0)
(0.199373 0.00709663 0)
(0.199867 0.00730442 0)
(0.200363 0.00742609 0)
(0.200845 0.00746916 0)
(0.201299 0.00744304 0)
(0.201715 0.00735859 0)
(0.202089 0.00722747 0)
(0.202416 0.00706127 0)
(0.202696 0.00687083 0)
(0.202931 0.00666576 0)
(0.203123 0.00645415 0)
(0.203277 0.0062424 0)
(0.203397 0.0060353 0)
(0.203489 0.00583612 0)
(0.203557 0.00564686 0)
(0.203606 0.0054685 0)
(0.203639 0.00530128 0)
(0.203658 0.00514492 0)
(0.203668 0.0049988 0)
(0.203669 0.00486214 0)
(0.203664 0.00473406 0)
(0.203653 0.00461373 0)
(0.203637 0.00450032 0)
(0.203618 0.00439311 0)
(0.203596 0.00429142 0)
(0.203571 0.00419467 0)
(0.203544 0.00410237 0)
(0.203514 0.00401405 0)
(0.203482 0.00392935 0)
(0.203449 0.00384792 0)
(0.203414 0.00376946 0)
(0.203377 0.00369371 0)
(0.203338 0.00362044 0)
(0.203298 0.00354943 0)
(0.203256 0.00348051 0)
(0.203213 0.00341349 0)
(0.203167 0.00334822 0)
(0.203121 0.00328455 0)
(0.203072 0.00322236 0)
(0.203022 0.00316152 0)
(0.202971 0.00310191 0)
(0.202917 0.00304343 0)
(0.202862 0.00298597 0)
(0.202805 0.00292944 0)
(0.202746 0.00287375 0)
(0.202685 0.00281881 0)
(0.202622 0.00276454 0)
(0.202557 0.00271085 0)
(0.20249 0.00265766 0)
(0.202421 0.00260491 0)
(0.20235 0.0025525 0)
(0.202277 0.00250038 0)
(0.202202 0.00244846 0)
(0.202124 0.00239668 0)
(0.202045 0.00234497 0)
(0.201963 0.00229326 0)
(0.201879 0.00224148 0)
(0.201793 0.00218957 0)
(0.201705 0.00213745 0)
(0.201615 0.00208507 0)
(0.201523 0.00203237 0)
(0.201429 0.00197927 0)
(0.201334 0.00192573 0)
(0.201236 0.00187169 0)
(0.201137 0.00181709 0)
(0.201037 0.00176188 0)
(0.200935 0.00170602 0)
(0.200832 0.00164946 0)
(0.200727 0.00159216 0)
(0.200622 0.0015341 0)
(0.200516 0.00147524 0)
(0.200409 0.00141557 0)
(0.200301 0.00135507 0)
(0.200193 0.00129373 0)
(0.200085 0.00123157 0)
(0.199977 0.0011686 0)
(0.199869 0.00110485 0)
(0.19976 0.00104038 0)
(0.199653 0.0009753 0)
(0.199545 0.000909776 0)
(0.199437 0.000844054 0)
(0.19933 0.000778491 0)
(0.199223 0.000713563 0)
(0.199116 0.00064987 0)
(0.199009 0.00058811 0)
(0.198903 0.000529026 0)
(0.198797 0.000473334 0)
(0.198692 0.000421637 0)
(0.198589 0.00037438 0)
(0.198488 0.000331828 0)
(0.19839 0.000294085 0)
(0.198294 0.000261125 0)
(0.198201 0.000232807 0)
(0.198112 0.000208886 0)
(0.198027 0.000188972 0)
(0.197946 0.000172187 0)
(0.197852 0.000155635 0)
(0.198404 0.00573499 0)
(0.198725 0.00614629 0)
(0.199097 0.00649587 0)
(0.199508 0.00677289 0)
(0.199943 0.0069738 0)
(0.200385 0.00710046 0)
(0.200818 0.00715802 0)
(0.20123 0.00715368 0)
(0.201612 0.0070961 0)
(0.201959 0.00699482 0)
(0.202267 0.00685956 0)
(0.202535 0.0066996 0)
(0.202763 0.00652337 0)
(0.202953 0.00633811 0)
(0.203109 0.00614974 0)
(0.203234 0.00596286 0)
(0.203332 0.00578078 0)
(0.203408 0.00560572 0)
(0.203465 0.00543897 0)
(0.203506 0.00528113 0)
(0.203535 0.00513228 0)
(0.203553 0.00499213 0)
(0.203563 0.0048602 0)
(0.203565 0.0047359 0)
(0.203563 0.00461856 0)
(0.203556 0.00450756 0)
(0.203545 0.00440228 0)
(0.203531 0.00430216 0)
(0.203515 0.00420671 0)
(0.203497 0.00411547 0)
(0.203477 0.00402806 0)
(0.203456 0.00394411 0)
(0.203434 0.00386333 0)
(0.20341 0.00378543 0)
(0.203386 0.00371018 0)
(0.20336 0.00363735 0)
(0.203334 0.00356674 0)
(0.203308 0.00349818 0)
(0.203281 0.00343151 0)
(0.203253 0.00336658 0)
(0.203225 0.00330325 0)
(0.203197 0.00324138 0)
(0.203168 0.00318087 0)
(0.203138 0.00312161 0)
(0.203108 0.00306348 0)
(0.203078 0.00300638 0)
(0.203047 0.00295023 0)
(0.203016 0.00289493 0)
(0.202984 0.0028404 0)
(0.202951 0.00278654 0)
(0.202918 0.00273329 0)
(0.202884 0.00268055 0)
(0.20285 0.00262826 0)
(0.202815 0.00257633 0)
(0.202779 0.0025247 0)
(0.202742 0.00247328 0)
(0.202705 0.002422 0)
(0.202666 0.0023708 0)
(0.202627 0.0023196 0)
(0.202587 0.00226833 0)
(0.202545 0.00221692 0)
(0.202503 0.0021653 0)
(0.20246 0.00211342 0)
(0.202416 0.00206119 0)
(0.202371 0.00200857 0)
(0.202325 0.00195548 0)
(0.202277 0.00190187 0)
(0.202229 0.00184767 0)
(0.20218 0.00179285 0)
(0.202129 0.00173734 0)
(0.202078 0.00168111 0)
(0.202026 0.00162411 0)
(0.201972 0.0015663 0)
(0.201918 0.00150767 0)
(0.201862 0.00144819 0)
(0.201806 0.00138785 0)
(0.201749 0.00132665 0)
(0.20169 0.00126458 0)
(0.201631 0.00120169 0)
(0.201571 0.001138 0)
(0.201509 0.0010736 0)
(0.201447 0.0010086 0)
(0.201383 0.000943183 0)
(0.201318 0.000877603 0)
(0.201252 0.000812215 0)
(0.201183 0.000747484 0)
(0.201113 0.000683984 0)
(0.201042 0.000622368 0)
(0.200969 0.000563331 0)
(0.200895 0.000507538 0)
(0.20082 0.000455561 0)
(0.200745 0.000407829 0)
(0.200669 0.000364616 0)