/*--------------------------------*- C++ -*----------------------------------*\
| =========                 |                                                 |
| \\      /  F ield         | OpenFOAM: The Open Source CFD Toolbox           |
|  \\    /   O peration     | Version:  2.3.0                                 |
|   \\  /    A nd           | Web:      www.OpenFOAM.org                      |
|    \\/     M anipulation  |                                                 |
\*---------------------------------------------------------------------------*/
FoamFile
{
    version     2.0;
    format      ascii;
    class       volVectorField;
    location    "0.05";
    object      U;
}
// * * * * * * * * * * * * * * * * * * * * * * * * * * * * * * * * * * * * * //

dimensions      [0 1 -1 0 0 0 0];

internalField   nonuniform List<vector> 
2700
(
(0.185028 0.0050185 0)
(0.173528 0.00577691 0)
(0.158852 0.00542858 0)
(0.143425 0.00501023 0)
(0.129094 0.00453085 0)
(0.116159 0.00397618 0)
(0.104503 0.0033951 0)
(0.0940839 0.00283001 0)
(0.0849175 0.0023038 0)
(0.0769903 0.0018298 0)
(0.0702434 0.00141627 0)
(0.064588 0.00106642 0)
(0.0599209 0.000778439 0)
(0.0561359 0.00054675 0)
(0.0531325 0.00036393 0)
(0.0508198 0.000222578 0)
(0.0491148 0.000116332 0)
(0.0479361 3.9083e-05 0)
(0.0472016 -1.71283e-05 0)
(0.0468368 -5.89955e-05 0)
(0.0467765 -7.72268e-05 0)
(0.0468576 -6.76327e-05 0)
(0.0469796 -4.71501e-05 0)
(0.0471004 -2.93538e-05 0)
(0.0472006 -1.76533e-05 0)
(0.0472772 -1.05154e-05 0)
(0.0473313 -6.32097e-06 0)
(0.0473667 -3.90171e-06 0)
(0.0473878 -2.6878e-06 0)
(0.0473989 -2.0753e-06 0)
(0.0474033 -1.73536e-06 0)
(0.0474035 -1.45696e-06 0)
(0.0474008 -1.15846e-06 0)
(0.0473967 -9.70247e-07 0)
(0.0473926 -8.73558e-07 0)
(0.047389 -8.18877e-07 0)
(0.0473862 -7.73882e-07 0)
(0.0473842 -7.24832e-07 0)
(0.0473828 -6.69091e-07 0)
(0.047382 -6.08649e-07 0)
(0.0473815 -5.46778e-07 0)
(0.0473813 -4.86336e-07 0)
(0.0473812 -4.29145e-07 0)
(0.0473812 -3.75945e-07 0)
(0.0473813 -3.30299e-07 0)
(0.0473815 -2.88587e-07 0)
(0.0473816 -2.53117e-07 0)
(0.0473818 -2.20936e-07 0)
(0.047382 -1.92702e-07 0)
(0.0473822 -1.67857e-07 0)
(0.0473824 -1.46127e-07 0)
(0.0473826 -1.27024e-07 0)
(0.0473827 -1.1033e-07 0)
(0.0473829 -9.57697e-08 0)
(0.0473831 -8.30607e-08 0)
(0.0473832 -7.18915e-08 0)
(0.0473833 -6.22077e-08 0)
(0.0473834 -5.37266e-08 0)
(0.0473836 -4.63644e-08 0)
(0.0473837 -3.99401e-08 0)
(0.0473837 -3.43733e-08 0)
(0.0473838 -2.95543e-08 0)
(0.0473839 -2.53597e-08 0)
(0.047384 -2.17387e-08 0)
(0.047384 -1.86326e-08 0)
(0.0473841 -1.5897e-08 0)
(0.0473841 -1.35958e-08 0)
(0.0473842 -1.15762e-08 0)
(0.0473842 -9.89149e-09 0)
(0.0473842 -8.44811e-09 0)
(0.0473842 -7.19824e-09 0)
(0.0473843 -6.14303e-09 0)
(0.0473843 -5.20953e-09 0)
(0.0473843 -4.41838e-09 0)
(0.0473843 -3.74492e-09 0)
(0.0473843 -3.15468e-09 0)
(0.0473843 -2.68526e-09 0)
(0.0473844 -2.26618e-09 0)
(0.0473844 -1.93947e-09 0)
(0.0473844 -1.65253e-09 0)
(0.0473844 -1.41009e-09 0)
(0.0473844 -1.20245e-09 0)
(0.0473844 -1.01783e-09 0)
(0.0473844 -8.8031e-10 0)
(0.0473844 -7.46232e-10 0)
(0.0473844 -6.46625e-10 0)
(0.0473844 -5.47677e-10 0)
(0.0473844 -4.58428e-10 0)
(0.0473844 -3.94169e-10 0)
(0.0473844 -3.28271e-10 0)
(0.0473844 -3.01599e-10 0)
(0.0473844 -2.73085e-10 0)
(0.0473844 -2.53805e-10 0)
(0.0473844 -2.54611e-10 0)
(0.0473844 -2.33596e-10 0)
(0.0473844 -2.27773e-10 0)
(0.0473844 -2.26312e-10 0)
(0.0473844 -2.23946e-10 0)
(0.0473844 -3.05032e-10 0)
(0.0473844 -2.59477e-10 0)
(0.200889 0.00842423 0)
(0.202391 0.00988375 0)
(0.200799 0.00953964 0)
(0.1968 0.00916901 0)
(0.191756 0.00874239 0)
(0.186215 0.00816891 0)
(0.180352 0.00749117 0)
(0.174324 0.00676271 0)
(0.168308 0.00601546 0)
(0.162455 0.00527165 0)
(0.156879 0.00455039 0)
(0.151667 0.00386665 0)
(0.14689 0.0032295 0)
(0.142608 0.00264216 0)
(0.138873 0.00210421 0)
(0.135719 0.00161542 0)
(0.133158 0.00117871 0)
(0.131175 0.000799966 0)
(0.129727 0.000485066 0)
(0.128733 0.000238272 0)
(0.128051 6.88662e-05 0)
(0.127615 -2.43298e-05 0)
(0.127396 -6.43099e-05 0)
(0.127321 -7.37582e-05 0)
(0.127307 -6.49085e-05 0)
(0.12731 -4.95488e-05 0)
(0.12731 -3.4531e-05 0)
(0.127299 -2.23221e-05 0)
(0.127275 -1.24866e-05 0)
(0.127239 -5.20637e-06 0)
(0.127191 -2.80011e-07 0)
(0.127139 2.65003e-06 0)
(0.127086 4.06876e-06 0)
(0.127037 4.36187e-06 0)
(0.126993 3.98488e-06 0)
(0.126955 3.32133e-06 0)
(0.126924 2.61498e-06 0)
(0.126897 1.98753e-06 0)
(0.126876 1.4804e-06 0)
(0.126858 1.09244e-06 0)
(0.126843 8.04603e-07 0)
(0.126831 5.93937e-07 0)
(0.12682 4.40163e-07 0)
(0.126812 3.27308e-07 0)
(0.126805 2.41158e-07 0)
(0.126799 1.76237e-07 0)
(0.126794 1.25513e-07 0)
(0.126789 8.66542e-08 0)
(0.126786 5.65272e-08 0)
(0.126783 3.32188e-08 0)
(0.12678 1.52306e-08 0)
(0.126778 1.71012e-09 0)
(0.126776 -8.31737e-09 0)
(0.126774 -1.56221e-08 0)
(0.126773 -2.06815e-08 0)
(0.126772 -2.3814e-08 0)
(0.126771 -2.56428e-08 0)
(0.12677 -2.63631e-08 0)
(0.12677 -2.62572e-08 0)
(0.126769 -2.55182e-08 0)
(0.126769 -2.43477e-08 0)
(0.126768 -2.28906e-08 0)
(0.126768 -2.12082e-08 0)
(0.126768 -1.94228e-08 0)
(0.126768 -1.76555e-08 0)
(0.126767 -1.5843e-08 0)
(0.126767 -1.41604e-08 0)
(0.126767 -1.25398e-08 0)
(0.126767 -1.10519e-08 0)
(0.126767 -9.69688e-09 0)
(0.126767 -8.40408e-09 0)
(0.126767 -7.25627e-09 0)
(0.126767 -6.17125e-09 0)
(0.126767 -5.20818e-09 0)
(0.126767 -4.36076e-09 0)
(0.126767 -3.58439e-09 0)
(0.126767 -2.94932e-09 0)
(0.126767 -2.35671e-09 0)
(0.126767 -1.87418e-09 0)
(0.126767 -1.43196e-09 0)
(0.126767 -1.04942e-09 0)
(0.126767 -7.21367e-10 0)
(0.126767 -4.35221e-10 0)
(0.126767 -2.40677e-10 0)
(0.126767 -5.0711e-11 0)
(0.126767 7.82479e-11 0)
(0.126767 2.08492e-10 0)
(0.126767 3.40508e-10 0)
(0.126767 4.23651e-10 0)
(0.126767 5.24676e-10 0)
(0.126767 5.63199e-10 0)
(0.126767 5.89194e-10 0)
(0.126767 6.16554e-10 0)
(0.126767 5.94271e-10 0)
(0.126766 6.04161e-10 0)
(0.126766 5.91834e-10 0)
(0.126766 5.50183e-10 0)
(0.126766 5.10388e-10 0)
(0.126766 3.71933e-10 0)
(0.126766 1.29068e-10 0)
(0.201538 0.0062253 0)
(0.204584 0.00849489 0)
(0.206704 0.00904337 0)
(0.207372 0.00936381 0)
(0.207128 0.00951452 0)
(0.206284 0.00939346 0)
(0.204912 0.00904003 0)
(0.203076 0.00852703 0)
(0.200884 0.00790681 0)
(0.19845 0.00721698 0)
(0.195882 0.00648835 0)
(0.193276 0.00574486 0)
(0.190725 0.00500235 0)
(0.188311 0.00426987 0)
(0.186107 0.0035538 0)
(0.184167 0.0028629 0)
(0.182521 0.00221157 0)
(0.181177 0.00161916 0)
(0.180113 0.00110688 0)
(0.179289 0.000695773 0)
(0.178658 0.000397733 0)
(0.178179 0.000201899 0)
(0.177802 8.33091e-05 0)
(0.177486 1.97352e-05 0)
(0.177217 -4.21891e-06 0)
(0.176977 -5.24482e-06 0)
(0.176749 4.09903e-06 0)
(0.176526 1.633e-05 0)
(0.176305 2.81198e-05 0)
(0.176091 3.70345e-05 0)
(0.175891 4.20674e-05 0)
(0.175709 4.32506e-05 0)
(0.175548 4.12828e-05 0)
(0.175409 3.72697e-05 0)
(0.17529 3.23073e-05 0)
(0.175191 2.72243e-05 0)
(0.175108 2.25243e-05 0)
(0.175039 1.84432e-05 0)
(0.174983 1.50366e-05 0)
(0.174936 1.22598e-05 0)
(0.174898 1.00239e-05 0)
(0.174866 8.23024e-06 0)
(0.17484 6.78859e-06 0)
(0.174817 5.62304e-06 0)
(0.174799 4.67411e-06 0)
(0.174783 3.89522e-06 0)
(0.17477 3.25192e-06 0)
(0.174759 2.71734e-06 0)
(0.174749 2.27133e-06 0)
(0.174741 1.89813e-06 0)
(0.174735 1.58521e-06 0)
(0.174729 1.32278e-06 0)
(0.174724 1.10269e-06 0)
(0.17472 9.18032e-07 0)
(0.174716 7.63262e-07 0)
(0.174713 6.33804e-07 0)
(0.174711 5.2557e-07 0)
(0.174709 4.35148e-07 0)
(0.174707 3.59821e-07 0)
(0.174705 2.97122e-07 0)
(0.174704 2.45095e-07 0)
(0.174703 2.01932e-07 0)
(0.174702 1.66281e-07 0)
(0.174701 1.36846e-07 0)
(0.174701 1.12571e-07 0)
(0.1747 9.2591e-08 0)
(0.1747 7.61672e-08 0)
(0.174699 6.26436e-08 0)
(0.174699 5.16004e-08 0)
(0.174699 4.25343e-08 0)
(0.174698 3.52098e-08 0)
(0.174698 2.92444e-08 0)
(0.174698 2.44156e-08 0)
(0.174698 2.05107e-08 0)
(0.174698 1.72971e-08 0)
(0.174698 1.47284e-08 0)
(0.174698 1.26026e-08 0)
(0.174697 1.09216e-08 0)
(0.174697 9.5638e-09 0)
(0.174697 8.48636e-09 0)
(0.174697 7.64343e-09 0)
(0.174697 6.94183e-09 0)
(0.174697 6.38585e-09 0)
(0.174697 5.87529e-09 0)
(0.174697 5.46458e-09 0)
(0.174697 5.10328e-09 0)
(0.174697 4.78561e-09 0)
(0.174697 4.54469e-09 0)
(0.174697 4.29569e-09 0)
(0.174697 4.10304e-09 0)
(0.174697 3.91654e-09 0)
(0.174697 3.72903e-09 0)
(0.174697 3.59011e-09 0)
(0.174697 3.42107e-09 0)
(0.174697 3.27723e-09 0)
(0.174697 3.13745e-09 0)
(0.174697 2.9532e-09 0)
(0.174697 2.76442e-09 0)
(0.174697 2.52101e-09 0)
(0.174697 1.62701e-09 0)
(0.200981 0.00441078 0)
(0.20339 0.00696368 0)
(0.205897 0.00806858 0)
(0.207737 0.00871399 0)
(0.209047 0.00912177 0)
(0.210016 0.00925109 0)
(0.210654 0.00912618 0)
(0.210944 0.00880961 0)
(0.210908 0.00835154 0)
(0.210593 0.00778743 0)
(0.210052 0.00714585 0)
(0.209342 0.00644991 0)
(0.208521 0.00571677 0)
(0.207643 0.00495944 0)
(0.206756 0.00419101 0)
(0.205896 0.00342926 0)
(0.205085 0.00269871 0)
(0.204333 0.00202869 0)
(0.203638 0.00144858 0)
(0.202993 0.000982259 0)
(0.202392 0.000639453 0)
(0.20183 0.000410448 0)
(0.2013 0.000272569 0)
(0.200792 0.000200595 0)
(0.2003 0.00017058 0)
(0.19982 0.000164357 0)
(0.199354 0.000168753 0)
(0.198908 0.000175087 0)
(0.198489 0.00017785 0)
(0.198101 0.000174725 0)
(0.19775 0.000165468 0)
(0.197439 0.000151264 0)
(0.197168 0.000133968 0)
(0.196936 0.000115528 0)
(0.196739 9.75446e-05 0)
(0.196575 8.10853e-05 0)
(0.196438 6.67026e-05 0)
(0.196325 5.45481e-05 0)
(0.196232 4.45139e-05 0)
(0.196155 3.63539e-05 0)
(0.196092 2.97726e-05 0)
(0.196039 2.44786e-05 0)
(0.195996 2.02137e-05 0)
(0.195959 1.67629e-05 0)
(0.195929 1.39539e-05 0)
(0.195904 1.16517e-05 0)
(0.195882 9.75304e-06 0)
(0.195864 8.17785e-06 0)
(0.195849 6.86489e-06 0)
(0.195836 5.76641e-06 0)
(0.195825 4.84473e-06 0)
(0.195815 4.07001e-06 0)
(0.195808 3.41813e-06 0)
(0.195801 2.86911e-06 0)
(0.195795 2.40663e-06 0)
(0.19579 2.01719e-06 0)
(0.195786 1.68938e-06 0)
(0.195783 1.41348e-06 0)
(0.19578 1.18158e-06 0)
(0.195777 9.86752e-07 0)
(0.195775 8.23353e-07 0)
(0.195773 6.86361e-07 0)
(0.195772 5.71738e-07 0)
(0.195771 4.7589e-07 0)
(0.19577 3.95837e-07 0)
(0.195769 3.28997e-07 0)
(0.195768 2.73307e-07 0)
(0.195767 2.26857e-07 0)
(0.195767 1.88298e-07 0)
(0.195766 1.56243e-07 0)
(0.195766 1.29743e-07 0)
(0.195766 1.0781e-07 0)
(0.195765 8.96625e-08 0)
(0.195765 7.46817e-08 0)
(0.195765 6.22407e-08 0)
(0.195765 5.20084e-08 0)
(0.195765 4.35358e-08 0)
(0.195765 3.66e-08 0)
(0.195765 3.09229e-08 0)
(0.195765 2.62772e-08 0)
(0.195764 2.25044e-08 0)
(0.195764 1.9379e-08 0)
(0.195764 1.68332e-08 0)
(0.195764 1.46925e-08 0)
(0.195764 1.29348e-08 0)
(0.195764 1.1475e-08 0)
(0.195764 1.02265e-08 0)
(0.195764 9.20966e-09 0)
(0.195764 8.30573e-09 0)
(0.195764 7.55283e-09 0)
(0.195764 6.9154e-09 0)
(0.195764 6.34073e-09 0)
(0.195764 5.88601e-09 0)
(0.195764 5.45532e-09 0)
(0.195764 5.07227e-09 0)
(0.195764 4.73265e-09 0)
(0.195764 4.36002e-09 0)
(0.195764 3.98798e-09 0)
(0.195764 3.55927e-09 0)
(0.195764 2.20479e-09 0)
(0.200609 0.00331919 0)
(0.202306 0.00573587 0)
(0.20441 0.00704284 0)
(0.20627 0.00780231 0)
(0.207841 0.00829582 0)
(0.209237 0.00854476 0)
(0.210469 0.00856112 0)
(0.211503 0.00838825 0)
(0.212321 0.00806753 0)
(0.212929 0.007629 0)
(0.213344 0.00709638 0)
(0.213585 0.00648976 0)
(0.213673 0.00582591 0)
(0.213631 0.00512002 0)
(0.213476 0.00438911 0)
(0.213224 0.00365539 0)
(0.212883 0.00294709 0)
(0.212461 0.00229587 0)
(0.211969 0.00173163 0)
(0.211419 0.00127655 0)
(0.210828 0.000938897 0)
(0.210212 0.000710144 0)
(0.209588 0.000569436 0)
(0.208963 0.00049197 0)
(0.208346 0.000454349 0)
(0.207742 0.000438051 0)
(0.20716 0.000429192 0)
(0.206607 0.00041866 0)
(0.206091 0.000401476 0)
(0.205617 0.000376249 0)
(0.205191 0.000343884 0)
(0.204813 0.000306655 0)
(0.204483 0.000267321 0)
(0.204199 0.000228482 0)
(0.203957 0.000192155 0)
(0.203754 0.000159618 0)
(0.203583 0.000131454 0)
(0.203442 0.000107705 0)
(0.203325 8.80629e-05 0)
(0.203228 7.20299e-05 0)
(0.203148 5.90447e-05 0)
(0.203081 4.85623e-05 0)
(0.203026 4.00967e-05 0)
(0.20298 3.32387e-05 0)
(0.202941 2.76559e-05 0)
(0.202909 2.30849e-05 0)
(0.202882 1.93202e-05 0)
(0.202859 1.62022e-05 0)
(0.202839 1.36073e-05 0)
(0.202823 1.14392e-05 0)
(0.202809 9.6218e-06 0)
(0.202797 8.09476e-06 0)
(0.202787 6.8097e-06 0)
(0.202779 5.72697e-06 0)
(0.202771 4.81411e-06 0)
(0.202765 4.04433e-06 0)
(0.20276 3.39531e-06 0)
(0.202756 2.84808e-06 0)
(0.202752 2.38704e-06 0)
(0.202749 1.99878e-06 0)
(0.202746 1.67219e-06 0)
(0.202744 1.3976e-06 0)
(0.202742 1.16705e-06 0)
(0.20274 9.73608e-07 0)
(0.202739 8.11484e-07 0)
(0.202738 6.75663e-07 0)
(0.202737 5.62085e-07 0)
(0.202736 4.67088e-07 0)
(0.202735 3.87888e-07 0)
(0.202735 3.21847e-07 0)
(0.202734 2.66953e-07 0)
(0.202734 2.21334e-07 0)
(0.202734 1.83428e-07 0)
(0.202733 1.51995e-07 0)
(0.202733 1.25865e-07 0)
(0.202733 1.0426e-07 0)
(0.202733 8.63693e-08 0)
(0.202733 7.16352e-08 0)
(0.202733 5.95292e-08 0)
(0.202733 4.95778e-08 0)
(0.202733 4.14393e-08 0)
(0.202732 3.47183e-08 0)
(0.202732 2.92162e-08 0)
(0.202732 2.46517e-08 0)
(0.202732 2.08949e-08 0)
(0.202732 1.78018e-08 0)
(0.202732 1.52043e-08 0)
(0.202732 1.30832e-08 0)
(0.202732 1.12806e-08 0)
(0.202732 9.78736e-09 0)
(0.202732 8.56083e-09 0)
(0.202732 7.50278e-09 0)
(0.202732 6.65609e-09 0)
(0.202732 5.91055e-09 0)
(0.202732 5.25579e-09 0)
(0.202732 4.69338e-09 0)
(0.202732 4.12794e-09 0)
(0.202732 3.57815e-09 0)
(0.202732 2.95959e-09 0)
(0.202732 1.57677e-09 0)
(0.200398 0.00259585 0)
(0.201592 0.00472071 0)
(0.203243 0.00606206 0)
(0.20487 0.00688501 0)
(0.206341 0.00742751 0)
(0.207707 0.00774546 0)
(0.208985 0.00785076 0)
(0.210148 0.00777411 0)
(0.211172 0.00755071 0)
(0.21205 0.00720816 0)
(0.212781 0.00676792 0)
(0.213365 0.00624832 0)
(0.213806 0.00566574 0)
(0.214106 0.00503622 0)
(0.214267 0.00437798 0)
(0.214288 0.0037138 0)
(0.214172 0.00307116 0)
(0.213926 0.0024797 0)
(0.213564 0.00196649 0)
(0.213104 0.00155083 0)
(0.212571 0.00123962 0)
(0.211991 0.00102559 0)
(0.211386 0.000890578 0)
(0.210773 0.000812091 0)
(0.210164 0.000768291 0)
(0.209568 0.000741095 0)
(0.208995 0.000717035 0)
(0.208451 0.000687561 0)
(0.207944 0.000648561 0)
(0.207479 0.000599558 0)
(0.207058 0.0005425 0)
(0.206683 0.000480659 0)
(0.206353 0.000417658 0)
(0.206066 0.000356762 0)
(0.20582 0.000300438 0)
(0.20561 0.000250209 0)
(0.205434 0.000206721 0)
(0.205285 0.00016994 0)
(0.205161 0.000139378 0)
(0.205058 0.000114298 0)
(0.204972 9.38803e-05 0)
(0.2049 7.73209e-05 0)
(0.20484 6.38972e-05 0)
(0.20479 5.29927e-05 0)
(0.204748 4.41002e-05 0)
(0.204712 3.68129e-05 0)
(0.204682 3.08095e-05 0)
(0.204657 2.58384e-05 0)
(0.204636 2.17031e-05 0)
(0.204618 1.82495e-05 0)
(0.204602 1.53558e-05 0)
(0.204589 1.29252e-05 0)
(0.204578 1.088e-05 0)
(0.204569 9.15669e-06 0)
(0.204561 7.70347e-06 0)
(0.204554 6.47748e-06 0)
(0.204549 5.44317e-06 0)
(0.204544 4.57053e-06 0)
(0.20454 3.83467e-06 0)
(0.204536 3.21438e-06 0)
(0.204533 2.69198e-06 0)
(0.204531 2.25227e-06 0)
(0.204529 1.88253e-06 0)
(0.204527 1.57188e-06 0)
(0.204526 1.31115e-06 0)
(0.204524 1.09243e-06 0)
(0.204523 9.0926e-07 0)
(0.204522 7.55894e-07 0)
(0.204522 6.27799e-07 0)
(0.204521 5.20854e-07 0)
(0.204521 4.31762e-07 0)
(0.20452 3.57596e-07 0)
(0.20452 2.95872e-07 0)
(0.20452 2.44598e-07 0)
(0.204519 2.01965e-07 0)
(0.204519 1.66648e-07 0)
(0.204519 1.37396e-07 0)
(0.204519 1.13253e-07 0)
(0.204519 9.33785e-08 0)
(0.204519 7.70146e-08 0)
(0.204518 6.35927e-08 0)
(0.204518 5.25234e-08 0)
(0.204518 4.3445e-08 0)
(0.204518 3.59506e-08 0)
(0.204518 2.9785e-08 0)
(0.204518 2.47241e-08 0)
(0.204518 2.05102e-08 0)
(0.204518 1.70633e-08 0)
(0.204518 1.41834e-08 0)
(0.204518 1.18078e-08 0)
(0.204518 9.87793e-09 0)
(0.204518 8.25419e-09 0)
(0.204518 6.95139e-09 0)
(0.204518 5.84557e-09 0)
(0.204518 4.89011e-09 0)
(0.204518 4.08358e-09 0)
(0.204518 3.31741e-09 0)
(0.204518 2.59169e-09 0)
(0.204518 1.81623e-09 0)
(0.204518 5.77971e-10 0)
(0.200275 0.00208778 0)
(0.201136 0.00391585 0)
(0.202421 0.0052105 0)
(0.203791 0.00606257 0)
(0.205094 0.00663434 0)
(0.206328 0.00699183 0)
(0.207505 0.00715325 0)
(0.208604 0.00714269 0)
(0.209606 0.00699017 0)
(0.210497 0.00672148 0)
(0.211272 0.00635706 0)
(0.211927 0.00591439 0)
(0.212457 0.00540963 0)
(0.212857 0.00485901 0)
(0.213123 0.00428071 0)
(0.21325 0.00369639 0)
(0.213238 0.00313099 0)
(0.213094 0.00261056 0)
(0.21283 0.00215827 0)
(0.212465 0.00179023 0)
(0.212025 0.00151197 0)
(0.211534 0.0013173 0)
(0.211015 0.00119076 0)
(0.210485 0.00111253 0)
(0.209958 0.00106281 0)
(0.209442 0.0010248 0)
(0.208946 0.000986035 0)
(0.208475 0.00093881 0)
(0.208035 0.000879827 0)
(0.207629 0.000809406 0)
(0.207259 0.000730307 0)
(0.206926 0.000646558 0)
(0.206631 0.000562432 0)
(0.206371 0.000481697 0)
(0.206146 0.000407183 0)
(0.205951 0.000340633 0)
(0.205785 0.000282783 0)
(0.205643 0.000233579 0)
(0.205524 0.000192425 0)
(0.205423 0.000158422 0)
(0.205338 0.000130552 0)
(0.205267 0.00010781 0)
(0.205207 8.92739e-05 0)
(0.205157 7.41493e-05 0)
(0.205115 6.17722e-05 0)
(0.205079 5.16029e-05 0)
(0.205049 4.32102e-05 0)
(0.205023 3.62524e-05 0)
(0.205002 3.04602e-05 0)
(0.204983 2.56206e-05 0)
(0.204968 2.15649e-05 0)
(0.204954 1.81575e-05 0)
(0.204943 1.52899e-05 0)
(0.204934 1.28734e-05 0)
(0.204926 1.08351e-05 0)
(0.204919 9.11506e-06 0)
(0.204913 7.66342e-06 0)
(0.204908 6.43826e-06 0)
(0.204904 5.40464e-06 0)
(0.2049 4.53293e-06 0)
(0.204897 3.79832e-06 0)
(0.204895 3.17961e-06 0)
(0.204893 2.65898e-06 0)
(0.204891 2.22123e-06 0)
(0.204889 1.85355e-06 0)
(0.204888 1.54492e-06 0)
(0.204887 1.28625e-06 0)
(0.204886 1.06956e-06 0)
(0.204885 8.88414e-07 0)
(0.204885 7.37076e-07 0)
(0.204884 6.10858e-07 0)
(0.204884 5.05688e-07 0)
(0.204883 4.18095e-07 0)
(0.204883 3.45268e-07 0)
(0.204883 2.84709e-07 0)
(0.204883 2.34497e-07 0)
(0.204882 1.92902e-07 0)
(0.204882 1.58536e-07 0)
(0.204882 1.30213e-07 0)
(0.204882 1.06872e-07 0)
(0.204882 8.76962e-08 0)
(0.204882 7.18914e-08 0)
(0.204882 5.89166e-08 0)
(0.204882 4.82302e-08 0)
(0.204882 3.94428e-08 0)
(0.204882 3.22376e-08 0)
(0.204882 2.62668e-08 0)
(0.204882 2.13785e-08 0)
(0.204882 1.73298e-08 0)
(0.204882 1.39988e-08 0)
(0.204882 1.13037e-08 0)
(0.204882 9.06717e-09 0)
(0.204882 7.26831e-09 0)
(0.204882 5.77161e-09 0)
(0.204882 4.4951e-09 0)
(0.204882 3.42896e-09 0)
(0.204882 2.45529e-09 0)
(0.204882 1.55587e-09 0)
(0.204882 6.50189e-10 0)
(0.204882 -4.76569e-10 0)
(0.200198 0.00171556 0)
(0.200837 0.00328109 0)
(0.201842 0.00448408 0)
(0.202982 0.00532966 0)
(0.204115 0.0059131 0)
(0.20521 0.00629393 0)
(0.206264 0.00649484 0)
(0.207262 0.00653593 0)
(0.208185 0.00644198 0)
(0.209019 0.00623628 0)
(0.209756 0.00593823 0)
(0.210391 0.00556474 0)
(0.210916 0.00513174 0)
(0.211327 0.00465539 0)
(0.211618 0.00415334 0)
(0.211784 0.00364564 0)
(0.211825 0.00315446 0)
(0.211747 0.00270217 0)
(0.211561 0.00230829 0)
(0.211285 0.00198608 0)
(0.21094 0.00173993 0)
(0.210549 0.00156459 0)
(0.210131 0.00144692 0)
(0.209702 0.00136965 0)
(0.209274 0.0013151 0)
(0.208855 0.001268 0)
(0.208452 0.00121701 0)
(0.208069 0.00115524 0)
(0.20771 0.00108009 0)
(0.207376 0.000992471 0)
(0.207069 0.000895694 0)
(0.206791 0.000794285 0)
(0.20654 0.000692953 0)
(0.206317 0.000595835 0)
(0.20612 0.000506048 0)
(0.205947 0.000425539 0)
(0.205798 0.000355168 0)
(0.205669 0.000294918 0)
(0.205559 0.000244163 0)
(0.205465 0.000201918 0)
(0.205385 0.000167043 0)
(0.205318 0.000138392 0)
(0.20526 0.0001149 0)
(0.205212 9.56314e-05 0)
(0.205171 7.97947e-05 0)
(0.205136 6.67381e-05 0)
(0.205106 5.59338e-05 0)
(0.205081 4.69591e-05 0)
(0.20506 3.9477e-05 0)
(0.205042 3.32192e-05 0)
(0.205026 2.7971e-05 0)
(0.205013 2.35595e-05 0)
(0.205002 1.98452e-05 0)
(0.204993 1.67141e-05 0)
(0.204985 1.40723e-05 0)
(0.204978 1.18424e-05 0)
(0.204972 9.95975e-06 0)
(0.204968 8.37039e-06 0)
(0.204963 7.02906e-06 0)
(0.20496 5.89745e-06 0)
(0.204957 4.94342e-06 0)
(0.204955 4.13959e-06 0)
(0.204952 3.46287e-06 0)
(0.204951 2.89362e-06 0)
(0.204949 2.41527e-06 0)
(0.204948 2.01361e-06 0)
(0.204947 1.6768e-06 0)
(0.204946 1.39458e-06 0)
(0.204945 1.15851e-06 0)
(0.204945 9.61214e-07 0)
(0.204944 7.96552e-07 0)
(0.204944 6.5927e-07 0)
(0.204943 5.44882e-07 0)
(0.204943 4.49729e-07 0)
(0.204943 3.70604e-07 0)
(0.204943 3.04968e-07 0)
(0.204942 2.50589e-07 0)
(0.204942 2.05631e-07 0)
(0.204942 1.6855e-07 0)
(0.204942 1.37973e-07 0)
(0.204942 1.12826e-07 0)
(0.204942 9.2105e-08 0)
(0.204942 7.50845e-08 0)
(0.204942 6.1083e-08 0)
(0.204942 4.95739e-08 0)
(0.204942 4.01417e-08 0)
(0.204942 3.23498e-08 0)
(0.204942 2.59681e-08 0)
(0.204942 2.07099e-08 0)
(0.204942 1.63921e-08 0)
(0.204942 1.29031e-08 0)
(0.204942 1.00321e-08 0)
(0.204942 7.7175e-09 0)
(0.204942 5.81364e-09 0)
(0.204942 4.20575e-09 0)
(0.204942 2.87195e-09 0)
(0.204942 1.68835e-09 0)
(0.204942 6.19039e-10 0)
(0.204942 -4.02239e-10 0)
(0.204942 -1.48998e-09 0)
(0.200148 0.0014323 0)
(0.200633 0.00277418 0)
(0.201427 0.00386634 0)
(0.202371 0.00467898 0)
(0.203348 0.00525973 0)
(0.204312 0.00565359 0)
(0.20525 0.00588328 0)
(0.206148 0.00596607 0)
(0.206986 0.00592208 0)
(0.207751 0.00577165 0)
(0.208434 0.00553287 0)
(0.209028 0.00522196 0)
(0.209526 0.00485443 0)
(0.209924 0.00444604 0)
(0.210216 0.00401364 0)
(0.210399 0.00357567 0)
(0.210473 0.00315171 0)
(0.210444 0.00276099 0)
(0.210322 0.0024199 0)
(0.210122 0.00213935 0)
(0.209862 0.00192279 0)
(0.209561 0.00176564 0)
(0.209236 0.00165667 0)
(0.208901 0.00158087 0)
(0.208565 0.0015226 0)
(0.208237 0.00146818 0)
(0.20792 0.00140741 0)
(0.207618 0.00133424 0)
(0.207333 0.00124663 0)
(0.207066 0.00114593 0)
(0.206819 0.00103576 0)
(0.206591 0.000920933 0)
(0.206383 0.000806396 0)
(0.206196 0.000696508 0)
(0.206028 0.000594585 0)
(0.205879 0.000502742 0)
(0.205748 0.000421967 0)
(0.205633 0.000352323 0)
(0.205533 0.000293216 0)
(0.205447 0.000243643 0)
(0.205373 0.000202413 0)
(0.20531 0.000168302 0)
(0.205256 0.000140153 0)
(0.20521 0.000116934 0)
(0.205171 9.77581e-05 0)
(0.205138 8.18855e-05 0)
(0.205109 6.87091e-05 0)
(0.205085 5.77366e-05 0)
(0.205065 4.85716e-05 0)
(0.205047 4.0895e-05 0)
(0.205032 3.44499e-05 0)
(0.20502 2.90281e-05 0)
(0.205009 2.44601e-05 0)
(0.205 2.06073e-05 0)
(0.204992 1.73554e-05 0)
(0.204986 1.46093e-05 0)
(0.20498 1.22902e-05 0)
(0.204975 1.03318e-05 0)
(0.204971 8.67843e-06 0)
(0.204968 7.28322e-06 0)
(0.204965 6.10656e-06 0)
(0.204962 5.11484e-06 0)
(0.20496 4.27967e-06 0)
(0.204959 3.57691e-06 0)
(0.204957 2.98618e-06 0)
(0.204956 2.49002e-06 0)
(0.204955 2.07385e-06 0)
(0.204954 1.72507e-06 0)
(0.204953 1.4332e-06 0)
(0.204953 1.18921e-06 0)
(0.204952 9.85473e-07 0)
(0.204952 8.1555e-07 0)
(0.204952 6.73929e-07 0)
(0.204951 5.56083e-07 0)
(0.204951 4.58092e-07 0)
(0.204951 3.76782e-07 0)
(0.204951 3.09411e-07 0)
(0.20495 2.53688e-07 0)
(0.20495 2.07698e-07 0)
(0.20495 1.69759e-07 0)
(0.20495 1.38531e-07 0)
(0.20495 1.12805e-07 0)
(0.20495 9.16642e-08 0)
(0.20495 7.42857e-08 0)
(0.20495 6.00054e-08 0)
(0.20495 4.83048e-08 0)
(0.20495 3.86608e-08 0)
(0.20495 3.07611e-08 0)
(0.20495 2.42743e-08 0)
(0.20495 1.89569e-08 0)
(0.20495 1.46608e-08 0)
(0.20495 1.11454e-08 0)
(0.20495 8.30554e-09 0)
(0.20495 5.98555e-09 0)
(0.20495 4.04193e-09 0)
(0.20495 2.43683e-09 0)
(0.20495 1.04368e-09 0)
(0.20495 -1.90878e-10 0)
(0.20495 -1.32114e-09 0)
(0.20495 -2.42257e-09 0)
(0.200113 0.00121004 0)
(0.20049 0.00236373 0)
(0.201122 0.00334211 0)
(0.201904 0.00410529 0)
(0.202741 0.00467105 0)
(0.203585 0.00506881 0)
(0.204418 0.00531803 0)
(0.205221 0.00543349 0)
(0.20598 0.00543151 0)
(0.206678 0.00532943 0)
(0.207307 0.00514367 0)
(0.207859 0.00488947 0)
(0.208328 0.00458161 0)
(0.208708 0.00423515 0)
(0.208996 0.00386595 0)
(0.20919 0.00349082 0)
(0.209289 0.00312711 0)
(0.2093 0.00279137 0)
(0.209232 0.00249742 0)
(0.209096 0.00225425 0)
(0.208908 0.00206455 0)
(0.208685 0.00192427 0)
(0.208439 0.00182375 0)
(0.208184 0.00174995 0)
(0.207928 0.00168915 0)
(0.207676 0.0016292 0)
(0.207433 0.00156102 0)
(0.2072 0.00147933 0)
(0.206978 0.00138259 0)
(0.20677 0.00127241 0)
(0.206574 0.00115258 0)
(0.206391 0.001028 0)
(0.206222 0.000903725 0)
(0.206067 0.000784224 0)
(0.205926 0.000672935 0)
(0.205799 0.000572113 0)
(0.205685 0.000482873 0)
(0.205584 0.000405387 0)
(0.205495 0.000339134 0)
(0.205418 0.000283148 0)
(0.20535 0.00023624 0)
(0.205292 0.000197159 0)
(0.205242 0.0001647 0)
(0.205199 0.000137772 0)
(0.205162 0.000115423 0)
(0.205131 9.68454e-05 0)
(0.205104 8.13703e-05 0)
(0.205081 6.8448e-05 0)
(0.205061 5.76307e-05 0)
(0.205045 4.85547e-05 0)
(0.20503 4.09246e-05 0)
(0.205018 3.44992e-05 0)
(0.205008 2.90814e-05 0)
(0.204999 2.45089e-05 0)
(0.204992 2.06474e-05 0)
(0.204985 1.73853e-05 0)
(0.20498 1.46292e-05 0)
(0.204975 1.23011e-05 0)
(0.204971 1.0335e-05 0)
(0.204968 8.67536e-06 0)
(0.204965 7.2753e-06 0)
(0.204963 6.09497e-06 0)
(0.204961 5.1007e-06 0)
(0.204959 4.26386e-06 0)
(0.204958 3.56023e-06 0)
(0.204957 2.96915e-06 0)
(0.204956 2.47323e-06 0)
(0.204955 2.05755e-06 0)
(0.204954 1.7096e-06 0)
(0.204954 1.41864e-06 0)
(0.204953 1.17562e-06 0)
(0.204953 9.72872e-07 0)
(0.204953 8.03865e-07 0)
(0.204952 6.63203e-07 0)
(0.204952 5.46245e-07 0)
(0.204952 4.49178e-07 0)
(0.204952 3.68741e-07 0)
(0.204952 3.0219e-07 0)
(0.204951 2.47235e-07 0)
(0.204951 2.01884e-07 0)
(0.204951 1.64532e-07 0)
(0.204951 1.33763e-07 0)
(0.204951 1.08471e-07 0)
(0.204951 8.76901e-08 0)
(0.204951 7.06186e-08 0)
(0.204951 5.66322e-08 0)
(0.204951 4.51244e-08 0)
(0.204951 3.56984e-08 0)
(0.204951 2.79767e-08 0)
(0.204951 2.1657e-08 0)
(0.204951 1.65493e-08 0)
(0.204951 1.23857e-08 0)
(0.204951 9.01702e-09 0)
(0.204951 6.27648e-09 0)
(0.204951 3.9965e-09 0)
(0.204951 2.11995e-09 0)
(0.204951 5.19544e-10 0)
(0.204951 -8.74962e-10 0)
(0.204951 -2.11142e-09 0)
(0.204951 -3.25541e-09 0)
(0.200089 0.00103145 0)
(0.200387 0.00202689 0)
(0.200895 0.00289671 0)
(0.201542 0.00360164 0)
(0.202256 0.00414262 0)
(0.202992 0.00453612 0)
(0.203728 0.00479683 0)
(0.204446 0.00493694 0)
(0.20513 0.00496962 0)
(0.205766 0.00490938 0)
(0.206345 0.0047707 0)
(0.206857 0.00456758 0)
(0.207297 0.00431383 0)
(0.207661 0.00402357 0)
(0.207944 0.00371148 0)
(0.208145 0.00339284 0)
(0.208265 0.00308302 0)
(0.20831 0.0027963 0)
(0.208286 0.00254439 0)
(0.208204 0.00233476 0)
(0.208078 0.00216945 0)
(0.20792 0.00204488 0)
(0.207743 0.00195265 0)
(0.207555 0.00188148 0)
(0.207366 0.00181932 0)
(0.207179 0.00175549 0)
(0.206997 0.00168199 0)
(0.206822 0.00159426 0)
(0.206655 0.00149116 0)
(0.206495 0.00137449 0)
(0.206344 0.00124808 0)
(0.2062 0.00111683 0)
(0.206065 0.000985761 0)
(0.205939 0.000859372 0)
(0.205822 0.000741163 0)
(0.205715 0.000633486 0)
(0.205618 0.000537576 0)
(0.205531 0.000453721 0)
(0.205453 0.000381501 0)
(0.205384 0.000320024 0)
(0.205323 0.000268144 0)
(0.20527 0.000224623 0)
(0.205225 0.000188246 0)
(0.205185 0.000157894 0)
(0.205151 0.000132575 0)
(0.205121 0.000111439 0)
(0.205096 9.37695e-05 0)
(0.205074 7.89708e-05 0)
(0.205056 6.65531e-05 0)
(0.20504 5.61146e-05 0)
(0.205027 4.73256e-05 0)
(0.205015 3.99156e-05 0)
(0.205005 3.36616e-05 0)
(0.204997 2.83793e-05 0)
(0.20499 2.39157e-05 0)
(0.204984 2.01429e-05 0)
(0.204979 1.6954e-05 0)
(0.204974 1.42592e-05 0)
(0.204971 1.19827e-05 0)
(0.204968 1.00605e-05 0)
(0.204965 8.43848e-06 0)
(0.204963 7.07068e-06 0)
(0.204961 5.9182e-06 0)
(0.204959 4.94798e-06 0)
(0.204958 4.13204e-06 0)
(0.204957 3.44649e-06 0)
(0.204956 2.87119e-06 0)
(0.204955 2.3889e-06 0)
(0.204954 1.9851e-06 0)
(0.204954 1.64736e-06 0)
(0.204953 1.3652e-06 0)
(0.204953 1.12975e-06 0)
(0.204953 9.33459e-07 0)
(0.204952 7.70072e-07 0)
(0.204952 6.34224e-07 0)
(0.204952 5.21465e-07 0)
(0.204952 4.28012e-07 0)
(0.204952 3.5067e-07 0)
(0.204952 2.86775e-07 0)
(0.204952 2.34031e-07 0)
(0.204951 1.90569e-07 0)
(0.204951 1.54769e-07 0)
(0.204951 1.25336e-07 0)
(0.204951 1.01158e-07 0)
(0.204951 8.13021e-08 0)
(0.204951 6.50346e-08 0)
(0.204951 5.16684e-08 0)
(0.204951 4.07222e-08 0)
(0.204951 3.17705e-08 0)
(0.204951 2.44547e-08 0)
(0.204951 1.85381e-08 0)
(0.204951 1.37277e-08 0)
(0.204951 9.83161e-09 0)
(0.204951 6.67052e-09 0)
(0.204951 4.05668e-09 0)
(0.204951 1.91191e-09 0)
(0.204951 1.08226e-10 0)
(0.204951 -1.44034e-09 0)
(0.204951 -2.78114e-09 0)
(0.204951 -3.98041e-09 0)
(0.200071 0.000885206 0)
(0.200309 0.00174702 0)
(0.200722 0.00251704 0)
(0.20126 0.00316048 0)
(0.201867 0.00366989 0)
(0.202506 0.00405239 0)
(0.203154 0.00431776 0)
(0.203793 0.00447546 0)
(0.204408 0.00453601 0)
(0.204987 0.00451129 0)
(0.205517 0.00441383 0)
(0.205992 0.0042562 0)
(0.206405 0.00405106 0)
(0.206752 0.0038114 0)
(0.20703 0.00355069 0)
(0.207237 0.00328271 0)
(0.207375 0.00302103 0)
(0.207447 0.00277805 0)
(0.207461 0.00256373 0)
(0.207426 0.00238426 0)
(0.207351 0.00224121 0)
(0.207249 0.00213135 0)
(0.207129 0.00204737 0)
(0.206999 0.00197945 0)
(0.206866 0.0019171 0)
(0.206734 0.00185095 0)
(0.206604 0.00177401 0)
(0.206479 0.00168238 0)
(0.206357 0.00157529 0)
(0.20624 0.00145464 0)
(0.206126 0.00132425 0)
(0.206017 0.00118889 0)
(0.205912 0.00105352 0)
(0.205812 0.000922569 0)
(0.205717 0.000799558 0)
(0.205629 0.000686902 0)
(0.205548 0.000585939 0)
(0.205474 0.000497076 0)
(0.205407 0.000420007 0)
(0.205346 0.000353938 0)
(0.205293 0.000297794 0)
(0.205246 0.000250382 0)
(0.205204 0.000210508 0)
(0.205168 0.00017705 0)
(0.205137 0.000149001 0)
(0.20511 0.000125484 0)
(0.205087 0.000105752 0)
(0.205067 8.9175e-05 0)
(0.20505 7.52303e-05 0)
(0.205035 6.3484e-05 0)
(0.205022 5.35775e-05 0)
(0.205012 4.52143e-05 0)
(0.205002 3.81482e-05 0)
(0.204995 3.21748e-05 0)
(0.204988 2.71236e-05 0)
(0.204982 2.28516e-05 0)
(0.204977 1.9239e-05 0)
(0.204973 1.61848e-05 0)
(0.20497 1.36038e-05 0)
(0.204967 1.14238e-05 0)
(0.204964 9.58368e-06 0)
(0.204962 8.03157e-06 0)
(0.20496 6.7235e-06 0)
(0.204959 5.62206e-06 0)
(0.204958 4.69558e-06 0)
(0.204957 3.91702e-06 0)
(0.204956 3.26355e-06 0)
(0.204955 2.71564e-06 0)
(0.204954 2.25679e-06 0)
(0.204954 1.87295e-06 0)
(0.204953 1.55221e-06 0)
(0.204953 1.28451e-06 0)
(0.204953 1.06134e-06 0)
(0.204952 8.75563e-07 0)
(0.204952 7.21099e-07 0)
(0.204952 5.92873e-07 0)
(0.204952 4.86587e-07 0)