/*--------------------------------*- C++ -*----------------------------------*\
| =========                 |                                                 |
| \\      /  F ield         | OpenFOAM: The Open Source CFD Toolbox           |
|  \\    /   O peration     | Version:  2.3.0                                 |
|   \\  /    A nd           | Web:      www.OpenFOAM.org                      |
|    \\/     M anipulation  |                                                 |
\*---------------------------------------------------------------------------*/
FoamFile
{
    version     2.0;
    format      ascii;
    class       surfaceScalarField;
    location    "0.25";
    object      phi_0;
}
// * * * * * * * * * * * * * * * * * * * * * * * * * * * * * * * * * * * * * //

dimensions      [0 3 -1 0 0 0 0];

internalField   nonuniform List<scalar> 
6598
(
2.90001e-08
2.73893e-09
-3.1739e-08
2.55634e-08
3.43672e-09
2.21407e-08
3.42271e-09
1.8962e-08
3.17869e-09
1.60702e-08
2.89176e-09
1.35432e-08
2.52702e-09
1.14673e-08
2.0759e-09
9.85507e-09
1.61223e-09
8.66952e-09
1.18555e-09
7.82906e-09
8.40458e-10
7.23977e-09
5.89291e-10
6.81963e-09
4.20142e-10
6.5072e-09
3.12427e-10
6.26e-09
2.47199e-10
6.04967e-09
2.1033e-10
5.8598e-09
1.89871e-10
5.68291e-09
1.76889e-10
5.51644e-09
1.66475e-10
5.35955e-09
1.56882e-10
5.21187e-09
1.47687e-10
5.07319e-09
1.38672e-10
4.94346e-09
1.29734e-10
4.82248e-09
1.20982e-10
4.70987e-09
1.12613e-10
4.60509e-09
1.04776e-10
4.50753e-09
9.75619e-11
4.41651e-09
9.10156e-11
4.33137e-09
8.51381e-11
4.25151e-09
7.98634e-11
4.17646e-09
7.50515e-11
4.10588e-09
7.0574e-11
4.0395e-09
6.63838e-11
3.97704e-09
6.24614e-11
3.91826e-09
5.87811e-11
3.86292e-09
5.53356e-11
3.81083e-09
5.20971e-11
3.76182e-09
4.90022e-11
3.7158e-09
4.60196e-11
3.67265e-09
4.31559e-11
3.63224e-09
4.04078e-11
3.59447e-09
3.77657e-11
3.55926e-09
3.5219e-11
3.52651e-09
3.27441e-11
3.49618e-09
3.03271e-11
3.46822e-09
2.79691e-11
3.44256e-09
2.56562e-11
3.41919e-09
2.33716e-11
3.39807e-09
2.11198e-11
3.37917e-09
1.8898e-11
3.36249e-09
1.66826e-11
3.34801e-09
1.44762e-11
3.33571e-09
1.23056e-11
3.32554e-09
1.01665e-11
3.31751e-09
8.02756e-12
3.3116e-09
5.90906e-12
3.30774e-09
3.86415e-12
3.30583e-09
1.90742e-12
3.3058e-09
3.38916e-14
3.30741e-09
-1.61643e-12
3.31039e-09
-2.97611e-12
3.31448e-09
-4.08983e-12
3.31932e-09
-4.84198e-12
3.32464e-09
-5.32024e-12
3.33016e-09
-5.51967e-12
3.33563e-09
-5.46434e-12
3.34088e-09
-5.25796e-12
3.34584e-09
-4.95612e-12
3.35045e-09
-4.60688e-12
3.3547e-09
-4.2538e-12
3.35862e-09
-3.92003e-12
3.36225e-09
-3.62702e-12
3.36562e-09
-3.368e-12
3.36877e-09
-3.15176e-12
3.37173e-09
-2.96304e-12
3.37453e-09
-2.79654e-12
3.37716e-09
-2.63792e-12
3.37965e-09
-2.48869e-12
3.38199e-09
-2.33724e-12
3.38418e-09
-2.19441e-12
3.38623e-09
-2.04887e-12
3.38814e-09
-1.91024e-12
3.38991e-09
-1.76733e-12
3.39154e-09
-1.63284e-12
3.39304e-09
-1.49479e-12
3.39441e-09
-1.36905e-12
3.39565e-09
-1.24194e-12
3.39678e-09
-1.13037e-12
3.3978e-09
-1.01755e-12
3.39872e-09
-9.20669e-13
3.39954e-09
-8.19977e-13
3.40027e-09
-7.34479e-13
3.40092e-09
-6.43968e-13
3.40149e-09
-5.68843e-13
3.40198e-09
-4.90234e-13
3.4024e-09
-4.2753e-13
3.40277e-09
-3.64695e-13
3.40308e-09
-3.16258e-13
3.40336e-09
-2.72232e-13
3.40359e-09
-2.37534e-13
-2.1654e-13
3.41868e-08
2.45954e-09
-3.39075e-08
3.40114e-08
3.61215e-09
3.33236e-08
4.11053e-09
3.23491e-08
4.15316e-09
3.12028e-08
4.0381e-09
2.99162e-08
3.81362e-09
2.85224e-08
3.46966e-09
2.70968e-08
3.03788e-09
2.57091e-08
2.57325e-09
2.44071e-08
2.14245e-09
2.32105e-08
1.78586e-09
2.21215e-08
1.50916e-09
2.11373e-08
1.29666e-09
2.02545e-08
1.12991e-09
1.94636e-08
1.00131e-09
1.87529e-08
9.00495e-10
1.81118e-08
8.18079e-10
1.75303e-08
7.47895e-10
1.70002e-08
6.8704e-10
1.6514e-08
6.33901e-10
1.60658e-08
5.86841e-10
1.56511e-08
5.44438e-10
1.52662e-08
5.05879e-10
1.49081e-08
4.70749e-10
1.45741e-08
4.38742e-10
1.4262e-08
4.0961e-10
1.39699e-08
3.83147e-10
1.36959e-08
3.59141e-10
1.34385e-08
3.37293e-10
1.31963e-08
3.17198e-10
1.29684e-08
2.98507e-10
1.27537e-08
2.81045e-10
1.25515e-08
2.64702e-10
1.23609e-08
2.49366e-10
1.21813e-08
2.34964e-10
1.2012e-08
2.21376e-10
1.18526e-08
2.0842e-10
1.17026e-08
1.95987e-10
1.15617e-08
1.84055e-10
1.14295e-08
1.72583e-10
1.13058e-08
1.61518e-10
1.11902e-08
1.50811e-10
1.10826e-08
1.40389e-10
1.09827e-08
1.30203e-10
1.08904e-08
1.20243e-10
1.08056e-08
1.10466e-10
1.07281e-08
1.0083e-10
1.06579e-08
9.13414e-11
1.05948e-08
8.19929e-11
1.05388e-08
7.27415e-11
1.04896e-08
6.36014e-11
1.04473e-08
5.46407e-11
1.04116e-08
4.58687e-11
1.03824e-08
3.72621e-11
1.03594e-08
2.89005e-11
1.03423e-08
2.09411e-11
1.03307e-08
1.34875e-11
1.03242e-08
6.58418e-12
1.03221e-08
4.783e-13
1.03236e-08
-4.5195e-12
1.03281e-08
-8.59198e-12
1.03348e-08
-1.14758e-11
1.03428e-08
-1.34081e-11
1.03518e-08
-1.44359e-11
1.0361e-08
-1.46732e-11
1.03701e-08
-1.44183e-11
1.0379e-08
-1.38438e-11
1.03875e-08
-1.31016e-11
1.03956e-08
-1.23172e-11
1.04032e-08
-1.15618e-11
1.04105e-08
-1.08919e-11
1.04174e-08
-1.02937e-11
1.0424e-08
-9.78644e-12
1.04304e-08
-9.33128e-12
1.04365e-08
-8.91371e-12
1.04424e-08
-8.49893e-12
1.0448e-08
-8.09047e-12
1.04533e-08
-7.66172e-12
1.04584e-08
-7.23951e-12
1.04631e-08
-6.79794e-12
1.04676e-08
-6.36337e-12
1.04717e-08
-5.91012e-12
1.04755e-08
-5.47303e-12
1.04791e-08
-5.02331e-12
1.04823e-08
-4.60421e-12
1.04852e-08
-4.1802e-12
1.04879e-08
-3.79907e-12
1.04903e-08
-3.41461e-12
1.04925e-08
-3.07868e-12
1.04944e-08
-2.73358e-12
1.04961e-08
-2.4407e-12
1.04976e-08
-2.13378e-12
1.04989e-08
-1.88544e-12
1.05e-08
-1.62087e-12
1.0501e-08
-1.42332e-12
1.05019e-08
-1.20644e-12
1.05026e-08
-1.06498e-12
1.05032e-08
-8.9618e-13
1.05038e-08
-8.16177e-13
-6.93484e-13
3.56843e-08
2.32385e-09
-3.55486e-08
3.60678e-08
3.22869e-09
3.62914e-08
3.8869e-09
3.63315e-08
4.11309e-09
3.62495e-08
4.12011e-09
3.60457e-08
4.01742e-09
3.56967e-08
3.81867e-09
3.52104e-08
3.52412e-09
3.46177e-08
3.16602e-09
3.39579e-08
2.80222e-09
3.32625e-08
2.48121e-09
3.2551e-08
2.22067e-09
3.18351e-08
2.0126e-09
3.11227e-08
1.84233e-09
3.04225e-08
1.70144e-09
2.97406e-08
1.58244e-09
2.908e-08
1.47863e-09
2.84423e-08
1.38569e-09
2.78276e-08
1.30166e-09
2.72363e-08
1.22521e-09
2.66685e-08
1.15467e-09
2.61242e-08
1.08871e-09
2.56033e-08
1.02679e-09
2.51052e-08
9.68897e-10
2.4629e-08
9.14939e-10
2.41739e-08
8.64711e-10
2.37391e-08
8.17944e-10
2.33239e-08
7.74322e-10
2.29278e-08
7.33431e-10
2.25502e-08
6.94782e-10
2.21906e-08
6.58032e-10
2.18486e-08
6.23085e-10
2.15234e-08
5.89897e-10
2.12144e-08
5.58392e-10
2.09208e-08
5.28506e-10
2.06422e-08
5.00064e-10
2.03778e-08
4.72782e-10
2.01273e-08
4.46497e-10
1.98902e-08
4.2116e-10
1.96661e-08
3.96689e-10
1.94546e-08
3.7298e-10
1.92555e-08
3.49929e-10
1.90685e-08
3.27399e-10
1.88934e-08
3.05299e-10
1.873e-08
2.836e-10
1.85783e-08
2.62235e-10
1.8438e-08
2.41134e-10
1.8309e-08
2.20304e-10
1.81912e-08
1.99748e-10
1.80846e-08
1.79415e-10
1.79888e-08
1.59338e-10
1.79038e-08
1.39642e-10
1.78293e-08
1.20378e-10
1.7765e-08
1.01556e-10
1.77106e-08
8.33334e-11
1.76656e-08
6.5983e-11
1.76293e-08
4.97203e-11
1.76012e-08
3.4728e-11
1.75803e-08
2.13068e-11
1.7566e-08
9.84348e-12
1.7557e-08
4.10259e-13
1.75523e-08
-6.783e-12
1.7551e-08
-1.21111e-11
1.75522e-08
-1.56576e-11
1.75552e-08
-1.76132e-11
1.75593e-08
-1.85239e-11
1.75641e-08
-1.86866e-11
1.75694e-08
-1.83974e-11
1.7575e-08
-1.78922e-11
1.75807e-08
-1.73211e-11
1.75866e-08
-1.68008e-11
1.75927e-08
-1.6323e-11
1.75988e-08
-1.59343e-11
1.76051e-08
-1.55753e-11
1.76114e-08
-1.52259e-11
1.76177e-08
-1.48316e-11
1.7624e-08
-1.43993e-11
1.76302e-08
-1.38859e-11
1.76363e-08
-1.33391e-11
1.76423e-08
-1.27166e-11
1.7648e-08
-1.20674e-11
1.76534e-08
-1.13499e-11
1.76586e-08
-1.0629e-11
1.76634e-08
-9.8561e-12
1.76679e-08
-9.11282e-12
1.76721e-08
-8.33593e-12
1.76759e-08
-7.61942e-12
1.76793e-08
-6.87744e-12
1.76825e-08
-6.21803e-12
1.76853e-08
-5.52832e-12
1.76878e-08
-4.94179e-12
1.769e-08
-4.31788e-12
1.76919e-08
-3.8222e-12
1.76936e-08
-3.27935e-12
1.7695e-08
-2.89326e-12
1.76963e-08
-2.44027e-12
1.76974e-08
-2.17485e-12
1.76983e-08
-1.8083e-12
1.76991e-08
-1.67066e-12
-1.38761e-12
3.72018e-08
2.26764e-09
-3.71456e-08
3.74966e-08
2.93389e-09
3.78405e-08
3.54301e-09
3.81037e-08
3.8498e-09
3.83036e-08
3.92029e-09
3.84539e-08
3.86704e-09
3.85356e-08
3.73697e-09
3.85276e-08
3.53218e-09
3.84262e-08
3.26742e-09
3.82469e-08
2.98152e-09
3.80105e-08
2.71759e-09
3.77331e-08
2.49809e-09
3.74228e-08
2.32281e-09
3.70845e-08
2.18072e-09
3.67241e-08
2.06178e-09
3.63479e-08
1.95864e-09
3.59607e-08
1.86587e-09
3.55657e-08
1.78065e-09
3.51651e-08
1.70231e-09
3.476e-08
1.63026e-09
3.43517e-08
1.56295e-09
3.39419e-08
1.49856e-09
3.35326e-08
1.43607e-09
3.31261e-08
1.37542e-09
3.27239e-08
1.31711e-09
3.23268e-08
1.26183e-09
3.19348e-08
1.20997e-09
3.15478e-08
1.16129e-09
3.11662e-08
1.11497e-09
3.07911e-08
1.06993e-09
3.04236e-08
1.02552e-09
3.0065e-08
9.81751e-10
2.97159e-08
9.38915e-10
2.93771e-08
8.97242e-10
2.90487e-08
8.56844e-10
2.87313e-08
8.1756e-10
2.84249e-08
7.79098e-10
2.813e-08
7.41397e-10
2.78466e-08
7.04555e-10
2.75748e-08
6.68568e-10
2.73144e-08
6.33336e-10
2.70656e-08
5.98723e-10
2.68285e-08
5.64553e-10
2.6603e-08
5.30706e-10
2.63895e-08
4.97161e-10
2.61879e-08
4.63851e-10
2.59983e-08
4.30699e-10
2.58209e-08
3.97726e-10
2.56557e-08
3.64969e-10
2.55027e-08
3.32407e-10
2.53619e-08
3.00106e-10
2.52333e-08
2.68254e-10
2.51167e-08
2.36963e-10
2.5012e-08
2.06312e-10
2.49187e-08
1.76552e-10
2.48366e-08
1.48069e-10
2.47652e-08
1.21166e-10
2.47038e-08
9.61134e-11
2.46517e-08
7.33767e-11
2.46081e-08
5.34662e-11
2.4572e-08
3.65036e-11
2.45426e-08
2.26268e-11
2.45189e-08
1.16384e-11
2.44999e-08
3.29928e-12
2.44848e-08
-2.50342e-12
2.44729e-08
-6.60314e-12
2.44636e-08
-9.35563e-12
2.44564e-08
-1.12022e-11
2.44509e-08
-1.2481e-11
2.44471e-08
-1.34346e-11
2.44445e-08
-1.42633e-11
2.44432e-08
-1.49789e-11
2.44429e-08
-1.56903e-11
2.44437e-08
-1.63231e-11
2.44453e-08
-1.68662e-11
2.44477e-08
-1.72493e-11
2.44508e-08
-1.74897e-11
2.44545e-08
-1.75251e-11
2.44586e-08
-1.74299e-11
2.4463e-08
-1.71399e-11
2.44676e-08
-1.67319e-11
2.44724e-08
-1.61436e-11
2.44773e-08
-1.54791e-11
2.44821e-08
-1.46644e-11
2.44868e-08
-1.3831e-11
2.44914e-08
-1.28786e-11
2.44957e-08
-1.19626e-11
2.44998e-08
-1.09439e-11
2.45036e-08
-1.00097e-11
2.4507e-08
-8.97505e-12
2.45101e-08
-8.07959e-12
2.45129e-08
-7.08571e-12
2.45154e-08
-6.29612e-12
2.45175e-08
-5.40065e-12
2.45194e-08
-4.77684e-12
2.4521e-08
-4.01441e-12
2.45224e-08
-3.58846e-12
2.45235e-08
-2.9617e-12
2.45246e-08
-2.74524e-12
-2.25164e-12
3.87775e-08
2.21619e-09
-3.8726e-08
3.89815e-08
2.72992e-09
3.92883e-08
3.23621e-09
3.95747e-08
3.56336e-09
3.98135e-08
3.68146e-09
4.00207e-08
3.65986e-09
4.01972e-08
3.56047e-09
4.03266e-08
3.40276e-09
4.03966e-08
3.19742e-09
4.04097e-08
2.96847e-09
4.0379e-08
2.74828e-09
4.0317e-08
2.56005e-09
4.02302e-08
2.40965e-09
4.01209e-08
2.28998e-09
3.99915e-08
2.1912e-09
3.98449e-08
2.10529e-09
3.96839e-08
2.02685e-09
3.95109e-08
1.95368e-09
3.93272e-08
1.88598e-09
3.91333e-08
1.82414e-09
3.89291e-08
1.76717e-09
3.87145e-08
1.71312e-09
3.84905e-08
1.66009e-09
3.82589e-08
1.60703e-09
3.80219e-08
1.55411e-09
3.77811e-08
1.50263e-09
3.75369e-08
1.45414e-09
3.72888e-08
1.40945e-09
3.70358e-08
1.36796e-09
3.67778e-08
1.32788e-09
3.6516e-08
1.28739e-09
3.6252e-08
1.24574e-09
3.59876e-08
1.2033e-09
3.57239e-08
1.16095e-09
3.54615e-08
1.11927e-09
3.5201e-08
1.07799e-09
3.49436e-08
1.0365e-09
3.46903e-08
9.94686e-10
3.44419e-08
9.52935e-10
3.41989e-08
9.11568e-10
3.39617e-08
8.70627e-10
3.37304e-08
8.29953e-10
3.35057e-08
7.89308e-10
3.32878e-08
7.48552e-10
3.30773e-08
7.07674e-10
3.28745e-08
6.66613e-10
3.268e-08
6.25287e-10
3.2494e-08
5.83725e-10
3.23169e-08
5.41992e-10
3.21492e-08
5.00122e-10
3.19911e-08
4.58238e-10
3.18428e-08
4.16581e-10
3.17044e-08
3.75333e-10
3.1576e-08
3.34665e-10
3.14577e-08
2.94915e-10
3.13492e-08
2.56539e-10
3.12505e-08
2.19918e-10
3.11611e-08
1.85459e-10
3.10807e-08
1.5374e-10
3.10089e-08
1.25307e-10
3.0945e-08
1.00378e-10
3.08885e-08
7.91219e-11
3.08387e-08
6.14655e-11
3.07948e-08
4.72047e-11
3.07563e-08
3.60343e-11
3.07224e-08
2.72361e-11
3.06927e-08
2.03276e-11
3.06667e-08
1.4798e-11
3.0644e-08
1.0236e-11
3.06243e-08
6.32665e-12
3.06072e-08
2.78336e-12
3.05926e-08
-3.95289e-13
3.05804e-08
-3.41625e-12
3.05702e-08
-6.18626e-12
3.05621e-08
-8.71169e-12
3.05557e-08
-1.09058e-11
3.0551e-08
-1.28035e-11
3.05478e-08
-1.43227e-11
3.0546e-08
-1.55722e-11
3.05453e-08
-1.64543e-11
3.05456e-08
-1.70717e-11
3.05468e-08
-1.73328e-11
3.05487e-08
-1.7385e-11
3.05512e-08
-1.7127e-11
3.05541e-08
-1.6749e-11
3.05573e-08
-1.6108e-11
3.05608e-08
-1.54256e-11
3.05644e-08
-1.44948e-11
3.05679e-08
-1.35863e-11
3.05714e-08
-1.24288e-11
3.05747e-08
-1.13826e-11
3.05777e-08
-1.01064e-11
3.05805e-08
-9.06684e-12
3.05829e-08
-7.81557e-12
3.05851e-08
-6.93599e-12
3.05869e-08
-5.82166e-12
3.05885e-08
-5.20138e-12
3.05898e-08
-4.26556e-12
3.0591e-08
-3.94763e-12
-3.19526e-12
4.03861e-08
2.1583e-09
-4.03282e-08
4.05417e-08
2.57434e-09
4.0794e-08
2.98394e-09
4.10619e-08
3.29542e-09
4.12988e-08
3.44461e-09
4.15032e-08
3.45545e-09
4.16829e-08
3.38074e-09
4.18322e-08
3.25352e-09
4.19411e-08
3.08847e-09
4.20081e-08
2.9015e-09
4.2041e-08
2.71533e-09
4.20507e-08
2.55041e-09
4.20443e-08
2.41596e-09
4.20252e-08
2.30911e-09
4.19946e-08
2.22187e-09
4.19535e-08
2.14637e-09
4.19034e-08
2.07697e-09
4.18456e-08
2.01146e-09
4.17812e-08
1.95039e-09
4.17104e-08
1.89487e-09
4.16329e-08
1.84473e-09
4.15476e-08
1.79842e-09
4.1454e-08
1.75366e-09
4.13527e-08
1.70833e-09
4.12453e-08
1.66158e-09
4.11333e-08
1.61459e-09
4.10177e-08
1.56972e-09
4.08982e-08
1.52901e-09
4.07732e-08
1.49293e-09
4.06412e-08
1.45987e-09
4.05016e-08
1.42701e-09
4.03553e-08
1.39202e-09
4.02041e-08
1.35449e-09
4.00492e-08
1.3158e-09
3.9891e-08
1.27753e-09
3.97293e-08
1.23968e-09
3.95648e-08
1.201e-09
3.93987e-08
1.16077e-09
3.92322e-08
1.11942e-09
3.9066e-08
1.07776e-09
3.89005e-08
1.03623e-09
3.87357e-08
9.94695e-10
3.85722e-08
9.52812e-10
3.84104e-08
9.10372e-10
3.82507e-08
8.67377e-10
3.80935e-08
8.23775e-10
3.79394e-08
7.79455e-10
3.77887e-08
7.34403e-10
3.7642e-08
6.88679e-10
3.74998e-08
6.42352e-10
3.73624e-08
5.95592e-10
3.72303e-08
5.48666e-10
3.71038e-08
5.01819e-10
3.69832e-08
4.553e-10
3.68686e-08
4.09496e-10
3.67603e-08
3.6488e-10
3.66583e-08
3.21886e-10
3.65628e-08
2.81001e-10
3.64737e-08
2.42851e-10
3.63909e-08
2.08021e-10
3.63145e-08
1.76849e-10
3.6244e-08
1.49564e-10
3.61793e-08
1.26175e-10
3.612e-08
1.06544e-10
3.60657e-08
9.0337e-11
3.6016e-08
7.69383e-11
3.59705e-08
6.57731e-11
3.5929e-08
5.63103e-11
3.58912e-08
4.80869e-11
3.58567e-08
4.07624e-11
3.58255e-08
3.4023e-11
3.57973e-08
2.77529e-11
3.57722e-08
2.17701e-11
3.57498e-08
1.61579e-11
3.57302e-08
1.09159e-11
3.57131e-08
6.15496e-12
3.56985e-08
1.83522e-12
3.56861e-08
-1.93298e-12
3.56758e-08
-5.30931e-12
3.56675e-08
-8.15185e-12
3.5661e-08
-1.05757e-11
3.56561e-08
-1.24438e-11
3.56527e-08
-1.39315e-11
3.56505e-08
-1.49103e-11
3.56494e-08
-1.56316e-11
3.56492e-08
-1.59233e-11
3.56498e-08
-1.60707e-11
3.56511e-08
-1.58011e-11
3.5653e-08
-1.54453e-11
3.56552e-08
-1.46382e-11
3.56576e-08
-1.38322e-11
3.56601e-08
-1.25874e-11
3.56626e-08
-1.15185e-11
3.56648e-08
-1.00652e-11
3.56669e-08
-9.01168e-12
3.56687e-08
-7.59112e-12
3.56703e-08
-6.78488e-12
3.56715e-08
-5.5349e-12
3.56727e-08
-5.1064e-12
-4.06765e-12
4.20316e-08
2.09673e-09
-4.197e-08
4.21617e-08
2.4442e-09
4.23668e-08
2.77884e-09
4.26052e-08
3.05709e-09
4.2831e-08
3.21882e-09
4.30278e-08
3.25864e-09
4.31982e-08
3.21029e-09
4.33426e-08
3.10914e-09
4.34558e-08
2.97527e-09
4.35353e-08
2.82202e-09
4.35853e-08
2.66527e-09
4.36145e-08
2.52123e-09
4.36308e-08
2.39967e-09
4.36388e-08
2.30116e-09
4.36402e-08
2.22043e-09
4.36358e-08
2.15072e-09
4.36263e-08
2.08653e-09
4.36124e-08
2.02539e-09
4.35949e-08
1.96781e-09
4.35746e-08
1.91521e-09
4.35513e-08
1.868e-09
4.35245e-08
1.82525e-09
4.34933e-08
1.78489e-09
4.34574e-08
1.74424e-09
4.34174e-08
1.70154e-09
4.33746e-08
1.65737e-09
4.333e-08
1.61429e-09
4.3284e-08
1.57507e-09
4.32357e-08
1.54124e-09
4.31834e-08
1.5121e-09
4.31257e-08
1.48477e-09
4.30621e-08
1.45561e-09
4.29938e-08
1.42277e-09
4.29221e-08
1.38752e-09
4.28471e-08
1.35253e-09
4.27681e-08
1.31862e-09
4.2685e-08
1.28414e-09
4.25984e-08
1.2474e-09
4.25093e-08
1.20843e-09
4.24187e-08
1.1684e-09
4.23266e-08
1.12831e-09
4.22331e-08
1.08821e-09
4.21383e-08
1.04763e-09
4.20424e-08
1.00624e-09
4.19458e-08
9.64027e-10
4.18485e-08
9.20998e-10
4.1751e-08
8.77012e-10
4.16534e-08
8.31974e-10
4.15562e-08
7.8589e-10
4.14597e-08
7.38842e-10
4.13643e-08
6.91023e-10
4.12702e-08
6.42705e-10
4.11779e-08
5.94166e-10
4.10875e-08
5.45713e-10
4.09992e-08
4.97762e-10
4.09133e-08
4.50762e-10
4.08301e-08
4.05118e-10
4.07498e-08
3.61302e-10
4.06727e-08
3.1995e-10
4.05991e-08
2.81673e-10
4.0529e-08
2.46879e-10
4.04627e-08
2.15835e-10
4.04003e-08
1.8865e-10
4.03415e-08
1.65314e-10
4.02863e-08
1.45563e-10
4.02344e-08
1.28863e-10
4.01855e-08
1.146e-10
4.01396e-08
1.02223e-10
4.00965e-08
9.12241e-11
4.0056e-08
8.12461e-11
4.00181e-08
7.19268e-11
3.99828e-08
6.30828e-11
3.995e-08
5.4511e-11
3.99199e-08
4.62704e-11
3.98924e-08
3.83868e-11
3.98676e-08
3.10317e-11
3.98452e-08
2.41884e-11
3.98253e-08
1.79679e-11
3.98078e-08
1.2227e-11
3.97925e-08
7.10494e-12
3.97794e-08
2.4973e-12
3.97684e-08
-1.40432e-12
3.97592e-08
-4.76503e-12
3.97517e-08
-7.42071e-12
3.97458e-08
-9.66332e-12
3.97412e-08
-1.13199e-11
3.97378e-08
-1.27334e-11
3.97356e-08
-1.36016e-11
3.97345e-08
-1.42835e-11
3.97342e-08
-1.43385e-11
3.97346e-08
-1.4247e-11
3.97355e-08
-1.3488e-11
3.97367e-08
-1.27543e-11
3.97381e-08
-1.1417e-11
3.97395e-08
-1.04024e-11
3.97407e-08
-8.8527e-12
3.97419e-08
-7.95198e-12
3.97428e-08
-6.46967e-12
3.97437e-08
-5.9576e-12
-4.6635e-12
4.37208e-08
2.03515e-09
-4.36592e-08
4.38351e-08
2.32995e-09
4.40049e-08
2.60904e-09
4.42121e-08
2.84985e-09
4.44211e-08
3.00984e-09
4.46092e-08
3.07047e-09
4.47713e-08
3.04828e-09
4.49081e-08
2.97229e-09
4.50186e-08
2.86483e-09
4.51009e-08
2.73968e-09
4.51572e-08
2.60896e-09
4.51936e-08
2.48485e-09
4.52173e-08
2.37599e-09
4.52335e-08
2.28489e-09
4.5245e-08
2.20895e-09
4.52526e-08
2.14317e-09
4.52565e-08
2.08263e-09
4.52571e-08
2.02473e-09
4.52552e-08
1.96977e-09
4.52513e-08
1.91908e-09
4.52461e-08
1.87322e-09
4.52396e-08
1.83176e-09
4.52313e-08
1.79318e-09
4.52207e-08
1.75486e-09
4.52077e-08
1.71448e-09
4.5193e-08
1.67206e-09
4.51774e-08
1.62993e-09
4.51615e-08
1.59099e-09
4.51455e-08
1.55718e-09
4.51289e-08
1.52876e-09
4.51101e-08
1.50356e-09
4.50881e-08
1.47756e-09
4.50633e-08
1.44763e-09
4.50364e-08
1.41436e-09
4.50079e-08
1.38104e-09
4.49771e-08
1.34944e-09
4.49433e-08
1.31801e-09
4.49064e-08
1.28424e-09
4.48673e-08
1.24751e-09
4.48267e-08
1.2091e-09
4.47845e-08
1.17048e-09
4.47407e-08
1.13199e-09
4.46953e-08
1.09308e-09
4.46482e-08
1.05326e-09
4.45997e-08
1.01254e-09
4.45497e-08
9.70969e-10
4.44983e-08
9.28418e-10
4.44456e-08
8.84704e-10
4.43917e-08
8.39757e-10
4.43369e-08
7.93654e-10
4.42813e-08
7.46608e-10
4.42252e-08
6.98889e-10
4.41685e-08
6.50789e-10
4.41116e-08
6.02657e-10
4.40544e-08
5.54936e-10
4.39971e-08
5.08035e-10
4.394e-08
4.6228e-10
4.38832e-08
4.18062e-10
4.38272e-08
3.75954e-10
4.37723e-08
3.36545e-10
4.3719e-08
3.00262e-10
4.36674e-08
2.67414e-10
4.36178e-08
2.38204e-10
4.35704e-08
2.12757e-10
4.3525e-08
1.90941e-10
4.34815e-08
1.72348e-10
4.34398e-08
1.56376e-10
4.33995e-08
1.42436e-10
4.33608e-08
1.29968e-10
4.33235e-08
1.18584e-10
4.32875e-08
1.07877e-10
4.3253e-08
9.75872e-11
4.32201e-08
8.74454e-11
4.31889e-08
7.74569e-11
4.31596e-08
6.76595e-11
4.31324e-08
5.8281e-11
4.31072e-08
4.93698e-11
4.30841e-08
4.10716e-11
4.3063e-08
3.32621e-11
4.30441e-08
2.60684e-11
4.30272e-08
1.94031e-11
4.30123e-08
1.34992e-11
4.29993e-08
8.24167e-12
4.2988e-08
3.83847e-12
4.29783e-08
2.4777e-15
4.29701e-08
-3.11538e-12
4.29633e-08
-5.89297e-12
4.29577e-08
-8.05827e-12
4.29534e-08
-9.96984e-12
4.29503e-08
-1.11673e-11
4.29481e-08
-1.20924e-11
4.29468e-08
-1.21847e-11
4.29462e-08
-1.21168e-11
4.2946e-08
-1.12451e-11
4.29461e-08
-1.05327e-11
4.29464e-08
-9.11773e-12
4.29467e-08
-8.28088e-12
4.2947e-08
-6.73907e-12
4.29472e-08
-6.2105e-12
-4.77454e-12
4.54596e-08
1.97538e-09
-4.53998e-08
4.55617e-08
2.22778e-09
4.57066e-08
2.46418e-09
4.58855e-08
2.67097e-09
4.60744e-08
2.82092e-09
4.62512e-08
2.89363e-09
4.64054e-08
2.89408e-09
4.65356e-08
2.84211e-09
4.66422e-08
2.75827e-09
4.67248e-08
2.65703e-09
4.67848e-08
2.549e-09
4.68261e-08
2.44351e-09
4.68546e-08
2.34752e-09
4.68753e-08
2.26416e-09
4.68914e-08
2.19287e-09
4.6904e-08
2.13051e-09
4.69135e-08
2.07318e-09
4.69198e-08
2.01839e-09
4.69235e-08
1.96614e-09
4.69251e-08
1.91748e-09
4.69254e-08
1.87285e-09
4.69251e-08
1.83205e-09
4.69242e-08
1.79416e-09
4.6922e-08
1.75699e-09
4.69184e-08
1.71813e-09
4.69132e-08
1.67719e-09
4.6907e-08
1.63615e-09
4.69005e-08
1.59756e-09
4.68944e-08
1.56327e-09
4.68891e-08
1.534e-09
4.68841e-08
1.50857e-09
4.68783e-08
1.48339e-09
4.68712e-08
1.45475e-09
4.68631e-08
1.42246e-09
4.68544e-08
1.38973e-09
4.68449e-08
1.35894e-09
4.68339e-08
1.32895e-09
4.68212e-08
1.29696e-09
4.68069e-08
1.26178e-09
4.67915e-08
1.22455e-09
4.6775e-08
1.18698e-09
4.67574e-08
1.14962e-09
4.67385e-08
1.11194e-09
4.67184e-08
1.07339e-09
4.6697e-08
1.03393e-09
4.66743e-08
9.9366e-10
4.66502e-08
9.52482e-10
4.66248e-08
9.10147e-10
4.6598e-08
8.66517e-10
4.657e-08
8.21651e-10
4.65408e-08
7.75783e-10
4.65105e-08
7.29197e-10
4.64791e-08
6.82199e-10
4.64466e-08
6.35173e-10
4.6413e-08
5.88581e-10
4.63782e-08
5.42809e-10
4.63424e-08
4.98105e-10
4.63057e-08
4.5473e-10
4.62685e-08
4.13131e-10
4.62312e-08
3.73833e-10
4.61942e-08
3.37263e-10
4.61579e-08
3.03759e-10
4.61225e-08
2.73591e-10
4.60882e-08
2.47009e-10
4.60551e-08
2.24049e-10
4.6023e-08
2.04465e-10
4.59917e-08
1.87717e-10
4.59609e-08
1.73192e-10
4.59306e-08
1.60278e-10
4.59007e-08
1.48526e-10
4.58711e-08
1.37473e-10
4.58419e-08
1.26774e-10
4.58133e-08
1.16072e-10
4.57854e-08
1.05286e-10
4.57587e-08
9.44341e-11
4.57332e-08
8.37772e-11
4.57091e-08
7.34443e-11
4.56865e-08
6.36304e-11
4.56655e-08
5.42564e-11
4.56462e-08
4.54355e-11
4.56285e-08
3.7104e-11
4.56125e-08
2.95109e-11
4.55981e-08
2.26089e-11
4.55853e-08
1.66438e-11
4.55739e-08
1.13819e-11
4.55638e-08
6.93927e-12
4.5555e-08
2.94641e-12
4.55474e-08
-4.08706e-13
4.55408e-08
-3.45472e-12
4.55355e-08
-5.7854e-12
4.55311e-08
-7.75561e-12
4.55278e-08
-8.83213e-12
4.55252e-08
-9.57839e-12
4.55234e-08
-9.40263e-12
4.5522e-08
-9.18397e-12
4.55211e-08
-8.14923e-12
4.55203e-08
-7.5326e-12
4.55197e-08
-6.14171e-12
4.55192e-08
-5.678e-12
-4.27369e-12
4.72523e-08
1.91778e-09
-4.71947e-08
4.73446e-08
2.13542e-09
4.74711e-08
2.33771e-09
4.7626e-08
2.51606e-09
4.77942e-08
2.65268e-09
4.79574e-08
2.73048e-09
4.81032e-08
2.74827e-09
4.82275e-08
2.71784e-09
4.83302e-08
2.6555e-09
4.84122e-08
2.57506e-09
4.84745e-08
2.48667e-09
4.852e-08
2.39803e-09
4.85529e-08
2.31464e-09
4.85775e-08
2.23953e-09
4.85971e-08
2.17332e-09
4.8613e-08
2.11454e-09
4.86258e-08
2.0604e-09
4.86354e-08
2.00878e-09
4.86421e-08
1.95944e-09
4.86465e-08
1.91311e-09
4.86493e-08
1.87e-09
4.86514e-08
1.82998e-09
4.8653e-08
1.79257e-09
4.86539e-08
1.75612e-09
4.86535e-08
1.71848e-09
4.86516e-08
1.67907e-09
4.86483e-08
1.63944e-09
4.86442e-08
1.60169e-09
4.86403e-08
1.56722e-09
4.86374e-08
1.53685e-09
4.86359e-08
1.51013e-09
4.86349e-08
1.48434e-09
4.86337e-08
1.45597e-09
4.86319e-08
1.42423e-09
4.86299e-08
1.39178e-09
4.86278e-08
1.36105e-09
4.86253e-08
1.33138e-09
4.86221e-08
1.30015e-09
4.86179e-08
1.26597e-09
4.86128e-08
1.22967e-09
4.86069e-08
1.19288e-09
4.86003e-08
1.15629e-09
4.85928e-08
1.11944e-09
4.85844e-08
1.08179e-09
4.8575e-08
1.04328e-09
4.85647e-08
1.00401e-09
4.85532e-08
9.63904e-10
4.85407e-08
9.22671e-10
4.85271e-08
8.80126e-10
4.85124e-08
8.36312e-10
4.84967e-08
7.91481e-10
4.848e-08
7.45944e-10
4.84622e-08
7.00037e-10
4.84432e-08
6.54169e-10
4.84229e-08
6.0883e-10
4.84013e-08
5.64396e-10
4.83784e-08
5.21039e-10
4.83542e-08
4.78882e-10
4.83291e-08
4.38229e-10
4.83035e-08
3.99515e-10
4.82776e-08
3.63141e-10
4.82519e-08
3.29455e-10
4.82267e-08
2.98787e-10
4.82022e-08
2.71506e-10
4.81784e-08
2.47819e-10
4.81552e-08
2.27649e-10
4.81324e-08
2.10557e-10
4.81097e-08
1.95938e-10
4.80868e-08
1.8313e-10
4.80637e-08
1.71603e-10
4.80404e-08
1.60829e-10
4.80168e-08
1.50361e-10
4.79931e-08
1.39758e-10
4.79695e-08
1.28834e-10
4.79464e-08
1.17568e-10
4.7924e-08
1.06219e-10
4.79024e-08
9.49868e-11
4.78819e-08
8.41151e-11
4.78626e-08
7.35964e-11
4.78445e-08
6.35392e-11
4.78277e-08
5.39192e-11
4.78122e-08
4.49739e-11
4.77981e-08
3.67373e-11
4.77853e-08
2.94589e-11
4.77737e-08
2.29963e-11
4.77632e-08
1.7422e-11
4.77537e-08
1.24159e-11
4.77452e-08
8.06498e-12
4.77377e-08
4.09119e-12
4.77311e-08
7.90043e-13
4.77254e-08
-2.07748e-12
4.77207e-08
-4.07931e-12
4.77167e-08
-5.6092e-12
4.77135e-08
-6.19959e-12
4.77109e-08
-6.54334e-12
4.77088e-08
-6.04467e-12
4.7707e-08
-5.7476e-12
4.77055e-08
-4.69008e-12
4.77042e-08
-4.35616e-12
-3.16397e-12
4.91026e-08
1.86223e-09
-4.9047e-08
4.91868e-08
2.05124e-09
4.92987e-08
2.22581e-09
4.94339e-08
2.3808e-09
4.95828e-08
2.50382e-09
4.97312e-08
2.58208e-09
4.98676e-08
2.6119e-09
4.9986e-08
2.59946e-09
5.00852e-08
2.5563e-09
5.0166e-08
2.49426e-09
5.02297e-08
2.42293e-09
5.02785e-08
2.34925e-09
5.03154e-08
2.27777e-09
5.03437e-08
2.21119e-09
5.03664e-08
2.15066e-09
5.03851e-08
2.09584e-09
5.04004e-08
2.04505e-09
5.04125e-08
1.99665e-09
5.04216e-08
1.95035e-09
5.04282e-08
1.90656e-09
5.04329e-08
1.86528e-09
5.04365e-08
1.82636e-09
5.04395e-08
1.78957e-09
5.04419e-08
1.7538e-09
5.0443e-08
1.71732e-09
5.04426e-08
1.67949e-09
5.04406e-08
1.64146e-09
5.04374e-08
1.60483e-09
5.04341e-08
1.5706e-09
5.04315e-08
1.53942e-09
5.04304e-08
1.51125e-09
5.04304e-08
1.48427e-09
5.04308e-08
1.4556e-09
5.04308e-08
1.42426e-09
5.04305e-08
1.3921e-09
5.04303e-08
1.36122e-09
5.04304e-08
1.33131e-09
5.04303e-08
1.30025e-09
5.04295e-08
1.26671e-09
5.04279e-08
1.23124e-09
5.04257e-08
1.19517e-09
5.04228e-08
1.15916e-09
5.04193e-08
1.12293e-09
5.04151e-08
1.08599e-09
5.04101e-08
1.04826e-09
5.04043e-08
1.00983e-09
5.03976e-08
9.70591e-10
5.039e-08
9.30243e-10
5.03816e-08
8.88577e-10
5.03723e-08
8.45621e-10
5.03621e-08
8.01636e-10
5.03511e-08
7.56967e-10
5.03392e-08
7.11993e-10
5.03262e-08
6.67159e-10
5.0312e-08
6.22976e-10
5.02966e-08
5.79805e-10
5.02799e-08
5.37751e-10
5.0262e-08
4.96822e-10
5.0243e-08
4.57184e-10
5.02234e-08
4.19159e-10
5.02034e-08
3.83098e-10
5.01835e-08
3.49356e-10
5.0164e-08
3.18335e-10
5.01449e-08
2.90515e-10
5.01265e-08
2.6626e-10
5.01085e-08
2.45651e-10
5.00907e-08
2.28366e-10
5.00728e-08
2.13828e-10
5.00546e-08
2.01347e-10
5.00359e-08
1.90303e-10
5.00166e-08
1.80091e-10
4.99968e-08
1.70153e-10
4.99766e-08
1.59964e-10
4.99562e-08
1.49236e-10
4.99359e-08
1.37906e-10
4.99159e-08
1.26204e-10
4.98965e-08
1.14386e-10
4.98779e-08
1.02728e-10
4.98602e-08
9.13096e-11
4.98435e-08
8.02464e-11
4.98278e-08
6.95753e-11
4.98133e-08
5.95094e-11
4.97998e-08
5.0167e-11
4.97875e-08
4.17692e-11
4.97763e-08
3.42787e-11
4.9766e-08
2.77132e-11
4.97565e-08
2.18411e-11
4.9748e-08
1.66365e-11
4.97402e-08
1.19077e-11
4.97331e-08
7.80062e-12
4.97269e-08
4.2125e-12
4.97214e-08
1.41368e-12
4.97165e-08
-7.87103e-13
4.97124e-08
-2.1113e-12
4.97089e-08
-2.99623e-12
4.9706e-08
-3.09858e-12
4.97034e-08
-3.15716e-12
4.97012e-08
-2.5553e-12
4.96993e-08
-2.38735e-12
-1.55152e-12
5.10137e-08
1.80873e-09
-5.09602e-08
5.10909e-08
1.97406e-09
5.11908e-08
2.1259e-09
5.131e-08
2.26163e-09
5.14417e-08
2.37214e-09
5.15755e-08
2.44826e-09
5.17017e-08
2.48572e-09
5.18138e-08
2.48735e-09
5.19094e-08
2.46068e-09
5.19888e-08
2.41489e-09
5.20532e-08
2.35855e-09
5.21043e-08
2.29812e-09
5.21444e-08
2.23765e-09
5.21761e-08
2.17953e-09
5.22016e-08
2.1251e-09
5.22228e-08
2.07468e-09
5.22404e-08
2.02748e-09
5.22546e-08
1.98242e-09
5.22657e-08
1.93921e-09
5.22743e-08
1.89803e-09
5.22807e-08
1.8588e-09
5.22858e-08
1.8213e-09
5.22899e-08
1.78541e-09
5.22933e-08
1.75045e-09
5.22955e-08
1.71514e-09
5.22961e-08
1.67889e-09
5.22951e-08
1.64248e-09
5.22928e-08
1.60707e-09
5.22901e-08
1.57334e-09
5.22877e-08
1.54175e-09
5.22866e-08
1.51242e-09
5.22866e-08
1.4842e-09
5.22872e-08
1.45503e-09
5.22875e-08
1.42395e-09
5.22875e-08
1.39213e-09
5.22876e-08
1.36113e-09
5.22881e-08
1.33082e-09
5.22886e-08
1.29966e-09
5.22888e-08
1.26656e-09
5.22882e-08
1.23182e-09
5.2287e-08
1.19643e-09
5.22852e-08
1.16094e-09
5.22829e-08
1.12522e-09
5.228e-08
1.0889e-09
5.22764e-08
1.05189e-09
5.2272e-08
1.01422e-09
5.22668e-08
9.75768e-10
5.22608e-08
9.362e-10
5.22541e-08
8.95306e-10
5.22466e-08
8.53105e-10
5.22384e-08
8.09859e-10
5.22294e-08
7.65944e-10
5.22196e-08
7.21796e-10
5.22089e-08
6.77899e-10
5.21971e-08
6.34777e-10
5.21841e-08
5.92766e-10
5.21699e-08
5.5192e-10
5.21546e-08
5.12147e-10
5.21383e-08
4.73484e-10
5.21213e-08
4.36131e-10
5.21041e-08
4.00382e-10
5.20868e-08
3.66603e-10
5.20699e-08
3.35275e-10
5.20534e-08
3.06986e-10
5.20374e-08
2.82242e-10
5.20218e-08
2.6126e-10
5.20063e-08
2.43837e-10
5.19907e-08
2.29436e-10
5.19747e-08
2.17358e-10
5.19581e-08
2.06893e-10
5.19409e-08
1.97346e-10
5.1923e-08
1.8804e-10
5.19046e-08
1.78374e-10
5.18858e-08
1.67966e-10
5.1867e-08
1.56719e-10
5.18484e-08
1.44822e-10
5.18302e-08
1.32569e-10
5.18127e-08
1.20253e-10
5.1796e-08
1.08045e-10
5.17801e-08
9.60751e-11
5.17653e-08
8.44624e-11
5.17514e-08
7.33945e-11
5.17385e-08
6.30724e-11
5.17266e-08
5.36685e-11
5.17156e-08
4.52484e-11
5.17055e-08
3.77643e-11
5.16963e-08
3.10962e-11
5.16878e-08
2.5104e-11
5.168e-08
1.97115e-11
5.16729e-08
1.48983e-11
5.16664e-08
1.0713e-11
5.16606e-08
7.22554e-12
5.16554e-08
4.46303e-12
5.16508e-08
2.46637e-12
5.16467e-08
1.09392e-12
5.16432e-08
3.80033e-13
5.16401e-08
-3.11117e-14
5.16375e-08
4.87047e-14
5.16351e-08
3.80924e-14
4.2297e-13
5.29888e-08
1.75739e-09
-5.29375e-08
5.30599e-08
1.90301e-09
5.31497e-08
2.03609e-09
5.32555e-08
2.15584e-09
5.33722e-08
2.25537e-09
5.34924e-08
2.32806e-09
5.36082e-08
2.36991e-09
5.37136e-08
2.382e-09
5.38053e-08
2.36893e-09
5.38829e-08
2.3373e-09
5.39473e-08
2.29419e-09
5.39999e-08
2.24551e-09
5.40425e-08
2.19507e-09
5.40769e-08