/*--------------------------------*- C++ -*----------------------------------*\
| =========                 |                                                 |
| \\      /  F ield         | OpenFOAM: The Open Source CFD Toolbox           |
|  \\    /   O peration     | Version:  2.3.0                                 |
|   \\  /    A nd           | Web:      www.OpenFOAM.org                      |
|    \\/     M anipulation  |                                                 |
\*---------------------------------------------------------------------------*/
FoamFile
{
    version     2.0;
    format      ascii;
    class       volVectorField;
    location    "0.25";
    object      U;
}
// * * * * * * * * * * * * * * * * * * * * * * * * * * * * * * * * * * * * * //

dimensions      [0 1 -1 0 0 0 0];

internalField   nonuniform List<vector> 
3375
(
(0.175809 0.00433526 0)
(0.155408 0.00596427 0)
(0.136817 0.00614305 0)
(0.118605 0.00555007 0)
(0.101029 0.00472926 0)
(0.0849681 0.00382764 0)
(0.0714673 0.00286169 0)
(0.0609141 0.00184846 0)
(0.0530926 0.000966592 0)
(0.0474528 0.000366755 0)
(0.0434307 4.53598e-05 0)
(0.0405606 -8.53942e-05 0)
(0.0384651 -0.000108899 0)
(0.0368614 -8.23434e-05 0)
(0.0355485 -3.79964e-05 0)
(0.0343991 5.04393e-06 0)
(0.0333445 3.73954e-05 0)
(0.0323554 5.74527e-05 0)
(0.0314229 6.76942e-05 0)
(0.0305444 7.13382e-05 0)
(0.0297185 7.08729e-05 0)
(0.0289442 6.8021e-05 0)
(0.0282206 6.40144e-05 0)
(0.0275462 5.96596e-05 0)
(0.0269183 5.53836e-05 0)
(0.0263337 5.13811e-05 0)
(0.0257888 4.77433e-05 0)
(0.0252799 4.45076e-05 0)
(0.0248033 4.16452e-05 0)
(0.0243557 3.90506e-05 0)
(0.0239348 3.66202e-05 0)
(0.0235388 3.43244e-05 0)
(0.0231661 3.21592e-05 0)
(0.0228153 3.01182e-05 0)
(0.022485 2.82181e-05 0)
(0.022174 2.64551e-05 0)
(0.0218813 2.47794e-05 0)
(0.021606 2.31629e-05 0)
(0.0213475 2.16167e-05 0)
(0.0211052 2.0146e-05 0)
(0.0208785 1.87492e-05 0)
(0.0206667 1.74237e-05 0)
(0.0204694 1.61512e-05 0)
(0.0202861 1.49182e-05 0)
(0.0201166 1.37261e-05 0)
(0.0199606 1.25638e-05 0)
(0.0198177 1.14128e-05 0)
(0.0196879 1.02731e-05 0)
(0.0195709 9.13713e-06 0)
(0.0194667 7.97651e-06 0)
(0.0193752 6.78236e-06 0)
(0.0192963 5.57534e-06 0)
(0.0192299 4.38159e-06 0)
(0.0191757 3.24179e-06 0)
(0.0191338 2.18826e-06 0)
(0.019104 1.2367e-06 0)
(0.0190858 3.91035e-07 0)
(0.0190787 -3.74584e-07 0)
(0.019082 -1.59702e-06 0)
(0.0190941 -2.36711e-06 0)
(0.0191136 -3.11874e-06 0)
(0.0191388 -3.59826e-06 0)
(0.0191677 -3.92035e-06 0)
(0.0191988 -4.03337e-06 0)
(0.0192305 -3.95381e-06 0)
(0.0192615 -3.75376e-06 0)
(0.0192912 -3.48129e-06 0)
(0.0193191 -3.17552e-06 0)
(0.0193449 -2.87204e-06 0)
(0.0193687 -2.58794e-06 0)
(0.0193907 -2.34041e-06 0)
(0.019411 -2.12586e-06 0)
(0.01943 -1.9482e-06 0)
(0.0194477 -1.79884e-06 0)
(0.0194645 -1.67268e-06 0)
(0.0194802 -1.55709e-06 0)
(0.0194951 -1.45317e-06 0)
(0.0195091 -1.3508e-06 0)
(0.0195223 -1.25832e-06 0)
(0.0195346 -1.16611e-06 0)
(0.0195462 -1.08127e-06 0)
(0.0195569 -9.94609e-07 0)
(0.0195668 -9.15245e-07 0)
(0.0195759 -8.33653e-07 0)
(0.0195843 -7.61104e-07 0)
(0.0195919 -6.87515e-07 0)
(0.0195989 -6.24609e-07 0)
(0.0196052 -5.60687e-07 0)
(0.0196109 -5.07031e-07 0)
(0.019616 -4.50625e-07 0)
(0.0196205 -4.03035e-07 0)
(0.0196246 -3.5225e-07 0)
(0.0196281 -3.0936e-07 0)
(0.0196313 -2.65406e-07 0)
(0.0196339 -2.28424e-07 0)
(0.0196364 -1.94787e-07 0)
(0.0196382 -1.64747e-07 0)
(0.0196402 -1.4511e-07 0)
(0.0196413 -1.19827e-07 0)
(0.0196432 -1.16624e-07 0)
(0.191003 0.00771142 0)
(0.189321 0.0108227 0)
(0.186882 0.0119005 0)
(0.183019 0.0117543 0)
(0.177509 0.0111145 0)
(0.170587 0.0101938 0)
(0.162901 0.00901023 0)
(0.154974 0.00757887 0)
(0.1472 0.0060591 0)
(0.139776 0.00465959 0)
(0.132802 0.00351096 0)
(0.126368 0.00263981 0)
(0.120522 0.00201199 0)
(0.115279 0.00158153 0)
(0.110598 0.00129854 0)
(0.106416 0.00111428 0)
(0.10266 0.000988003 0)
(0.0992659 0.000893125 0)
(0.09618 0.000816394 0)
(0.0933579 0.000751484 0)
(0.0907626 0.000694243 0)
(0.0883646 0.000641836 0)
(0.0861412 0.000593023 0)
(0.0840741 0.000547615 0)
(0.0821478 0.000505748 0)
(0.0803492 0.000467577 0)
(0.0786666 0.000433146 0)
(0.0770897 0.000402316 0)
(0.0756093 0.000374699 0)
(0.0742173 0.000349651 0)
(0.0729071 0.00032656 0)
(0.0716731 0.000305111 0)
(0.0705104 0.000285129 0)
(0.0694147 0.00026645 0)
(0.0683817 0.000249001 0)
(0.0674081 0.000232673 0)
(0.0664906 0.000217226 0)
(0.0656266 0.000202498 0)
(0.0648141 0.000188464 0)
(0.064051 0.000175094 0)
(0.0633355 0.000162339 0)
(0.062666 0.000150152 0)
(0.0620412 0.000138442 0)
(0.0614601 0.000127138 0)
(0.0609215 0.000116225 0)
(0.0604247 0.000105656 0)
(0.059969 9.53661e-05 0)
(0.0595538 8.53515e-05 0)
(0.0591784 7.56043e-05 0)
(0.0588423 6.6049e-05 0)
(0.058545 5.66692e-05 0)
(0.0582858 4.75361e-05 0)
(0.0580639 3.86796e-05 0)
(0.0578786 3.01109e-05 0)
(0.0577287 2.19327e-05 0)
(0.0576128 1.43292e-05 0)
(0.0575291 7.43307e-06 0)
(0.0574749 1.27721e-06 0)
(0.0574476 -4.73e-06 0)
(0.0574435 -1.03404e-05 0)
(0.0574583 -1.43807e-05 0)
(0.0574878 -1.67964e-05 0)
(0.0575278 -1.8253e-05 0)
(0.0575746 -1.87457e-05 0)
(0.0576249 -1.84095e-05 0)
(0.0576761 -1.76034e-05 0)
(0.0577265 -1.65134e-05 0)
(0.0577751 -1.52871e-05 0)
(0.0578214 -1.40616e-05 0)
(0.0578653 -1.29101e-05 0)
(0.057907 -1.18957e-05 0)
(0.0579466 -1.10049e-05 0)
(0.0579845 -1.02439e-05 0)
(0.0580207 -9.57646e-06 0)
(0.0580556 -8.98274e-06 0)
(0.058089 -8.41977e-06 0)
(0.0581211 -7.89087e-06 0)
(0.0581516 -7.36209e-06 0)
(0.0581807 -6.86294e-06 0)
(0.0582081 -6.3625e-06 0)
(0.058234 -5.88801e-06 0)
(0.0582581 -5.40902e-06 0)
(0.0582806 -4.96056e-06 0)
(0.0583013 -4.50962e-06 0)
(0.0583205 -4.09904e-06 0)
(0.0583378 -3.69138e-06 0)
(0.0583537 -3.33257e-06 0)
(0.058368 -2.97662e-06 0)
(0.0583809 -2.67068e-06 0)
(0.0583924 -2.36034e-06 0)
(0.0584027 -2.09791e-06 0)
(0.0584118 -1.82639e-06 0)
(0.0584197 -1.6031e-06 0)
(0.0584268 -1.37205e-06 0)
(0.0584325 -1.19129e-06 0)
(0.0584382 -1.00748e-06 0)
(0.0584421 -8.73464e-07 0)
(0.0584469 -7.4065e-07 0)
(0.058449 -6.56901e-07 0)
(0.0584538 -5.75825e-07 0)
(0.19208 0.0073904 0)
(0.192543 0.0100576 0)
(0.193646 0.0116661 0)
(0.194717 0.0122006 0)
(0.195121 0.0121012 0)
(0.194556 0.0116319 0)
(0.193047 0.0108532 0)
(0.190752 0.00980619 0)
(0.187861 0.00860546 0)
(0.184531 0.00741791 0)
(0.180884 0.00637399 0)
(0.17705 0.00551997 0)
(0.173139 0.00483587 0)
(0.169242 0.00428747 0)
(0.165411 0.00384247 0)
(0.161678 0.00347408 0)
(0.158063 0.00316011 0)
(0.154571 0.00288528 0)
(0.151205 0.00264196 0)
(0.147964 0.00242611 0)
(0.144849 0.00223354 0)
(0.141859 0.00206015 0)
(0.138996 0.00190321 0)
(0.136257 0.00176096 0)
(0.133638 0.00163164 0)
(0.131136 0.00151372 0)
(0.128744 0.00140614 0)
(0.12646 0.00130818 0)
(0.12428 0.001219 0)
(0.1222 0.00113745 0)
(0.120218 0.00106226 0)
(0.118332 0.000992593 0)
(0.116537 0.000927866 0)
(0.114831 0.000867594 0)
(0.113209 0.000811433 0)
(0.111669 0.000758937 0)
(0.110207 0.000709443 0)
(0.108821 0.000662454 0)
(0.107508 0.000617763 0)
(0.106266 0.00057519 0)
(0.105092 0.000534538 0)
(0.103985 0.000495626 0)
(0.102944 0.000458209 0)
(0.101967 0.000422094 0)
(0.101053 0.000387206 0)
(0.100201 0.000353419 0)
(0.0994116 0.000320599 0)
(0.0986827 0.000288719 0)
(0.0980142 0.00025777 0)
(0.0974053 0.000227645 0)
(0.0968554 0.000198347 0)
(0.0963635 0.000170048 0)
(0.0959287 0.00014281 0)
(0.0955495 0.000116571 0)
(0.0952243 9.14695e-05 0)
(0.094951 6.78641e-05 0)
(0.094727 4.61014e-05 0)
(0.0945488 2.6626e-05 0)
(0.0944124 9.68475e-06 0)
(0.0943137 -5.14024e-06 0)
(0.0942475 -1.66069e-05 0)
(0.0942081 -2.58535e-05 0)
(0.0941899 -3.17134e-05 0)
(0.0941881 -3.49172e-05 0)
(0.0941983 -3.58362e-05 0)
(0.0942165 -3.53079e-05 0)
(0.0942401 -3.3946e-05 0)
(0.0942669 -3.21447e-05 0)
(0.0942959 -3.02119e-05 0)
(0.094326 -2.8324e-05 0)
(0.0943572 -2.66215e-05 0)
(0.0943888 -2.5097e-05 0)
(0.0944214 -2.37844e-05 0)
(0.0944542 -2.26123e-05 0)
(0.0944878 -2.15307e-05 0)
(0.0945215 -2.04567e-05 0)
(0.0945554 -1.93992e-05 0)
(0.0945889 -1.82983e-05 0)
(0.0946221 -1.72135e-05 0)
(0.0946543 -1.60894e-05 0)
(0.0946858 -1.49866e-05 0)
(0.0947157 -1.38503e-05 0)
(0.0947445 -1.27578e-05 0)
(0.0947714 -1.16464e-05 0)
(0.0947969 -1.06113e-05 0)
(0.0948203 -9.57555e-06 0)
(0.0948421 -8.64478e-06 0)
(0.0948619 -7.7181e-06 0)
(0.09488 -6.91093e-06 0)
(0.0948962 -6.09501e-06 0)
(0.0949106 -5.40697e-06 0)
(0.0949236 -4.69611e-06 0)
(0.0949346 -4.12667e-06 0)
(0.0949449 -3.52301e-06 0)
(0.0949528 -3.08065e-06 0)
(0.0949611 -2.58792e-06 0)
(0.0949664 -2.28056e-06 0)
(0.0949735 -1.89328e-06 0)
(0.0949762 -1.72865e-06 0)
(0.0949832 -1.45189e-06 0)
(0.193099 0.00695702 0)
(0.193499 0.00890634 0)
(0.194598 0.0104427 0)
(0.196179 0.0112179 0)
(0.197764 0.0113738 0)
(0.198988 0.0111361 0)
(0.199695 0.0106234 0)
(0.199883 0.00989401 0)
(0.1996 0.00902182 0)
(0.198897 0.00812006 0)
(0.197827 0.00729686 0)
(0.196466 0.00660764 0)
(0.19489 0.00605114 0)
(0.193161 0.00559638 0)
(0.191319 0.00521307 0)
(0.189394 0.00487861 0)
(0.187407 0.00457724 0)
(0.185374 0.00430073 0)
(0.183309 0.00404697 0)
(0.181219 0.00381447 0)
(0.179111 0.0035991 0)
(0.176989 0.00339613 0)
(0.174862 0.00320333 0)
(0.172743 0.00302095 0)
(0.170641 0.00284984 0)
(0.168566 0.00269019 0)
(0.166518 0.00254137 0)
(0.164499 0.00240208 0)
(0.162508 0.00227068 0)
(0.160547 0.00214562 0)
(0.158621 0.00202602 0)
(0.156737 0.00191174 0)
(0.1549 0.00180281 0)
(0.153115 0.00169911 0)
(0.151383 0.00160065 0)
(0.149706 0.00150716 0)
(0.148085 0.00141799 0)
(0.146524 0.00133261 0)
(0.145021 0.00125078 0)
(0.143578 0.00117226 0)
(0.142195 0.00109674 0)
(0.140872 0.00102394 0)
(0.139608 0.000953472 0)
(0.138405 0.000885025 0)
(0.137263 0.000818489 0)
(0.136182 0.000753706 0)
(0.135163 0.000690472 0)
(0.134206 0.000628761 0)
(0.133313 0.000568599 0)
(0.132482 0.000509878 0)
(0.131714 0.000452613 0)
(0.131009 0.000397085 0)
(0.130367 0.000343461 0)
(0.129787 0.000291766 0)
(0.129267 0.000242305 0)
(0.128807 0.000195708 0)
(0.128402 0.000152449 0)
(0.128052 0.000112763 0)
(0.127753 7.74888e-05 0)
(0.1275 4.78268e-05 0)
(0.127288 2.31855e-05 0)
(0.127115 2.69433e-06 0)
(0.126974 -1.22266e-05 0)
(0.12686 -2.23564e-05 0)
(0.12677 -2.91936e-05 0)
(0.126698 -3.30662e-05 0)
(0.126641 -3.47626e-05 0)
(0.126597 -3.51266e-05 0)
(0.126563 -3.47866e-05 0)
(0.126538 -3.41424e-05 0)
(0.12652 -3.34944e-05 0)
(0.126509 -3.28317e-05 0)
(0.126504 -3.2235e-05 0)
(0.126504 -3.16899e-05 0)
(0.12651 -3.11497e-05 0)
(0.126519 -3.04849e-05 0)
(0.126533 -2.97041e-05 0)
(0.12655 -2.87221e-05 0)
(0.126569 -2.76474e-05 0)
(0.126591 -2.63917e-05 0)
(0.126614 -2.50608e-05 0)
(0.126638 -2.35719e-05 0)
(0.126663 -2.20623e-05 0)
(0.126688 -2.04328e-05 0)
(0.126713 -1.88545e-05 0)
(0.126737 -1.72003e-05 0)
(0.12676 -1.56681e-05 0)
(0.126782 -1.4084e-05 0)
(0.126803 -1.26762e-05 0)
(0.126822 -1.12127e-05 0)
(0.126839 -9.97251e-06 0)
(0.126855 -8.66246e-06 0)
(0.126869 -7.62812e-06 0)
(0.126881 -6.49992e-06 0)
(0.126891 -5.70561e-06 0)
(0.126901 -4.77172e-06 0)
(0.126908 -4.23288e-06 0)
(0.126917 -3.48204e-06 0)
(0.12692 -3.20106e-06 0)
(0.126928 -2.63505e-06 0)
(0.193944 0.00665518 0)
(0.194302 0.00814742 0)
(0.195162 0.00947763 0)
(0.196489 0.0103062 0)
(0.198008 0.0105892 0)
(0.199418 0.0104668 0)
(0.200542 0.0100785 0)
(0.201342 0.00951123 0)
(0.201841 0.00882755 0)
(0.202062 0.00810405 0)
(0.202029 0.00742459 0)
(0.201783 0.00684519 0)
(0.201376 0.00637688 0)
(0.200847 0.00599877 0)
(0.200224 0.00568353 0)
(0.199519 0.00540822 0)
(0.198744 0.00515673 0)
(0.197906 0.00492163 0)
(0.197012 0.00470262 0)
(0.196068 0.00450059 0)
(0.195074 0.00431331 0)
(0.194029 0.00413603 0)
(0.192933 0.00396444 0)
(0.191791 0.0037964 0)
(0.190614 0.00363227 0)
(0.189412 0.00347443 0)
(0.188195 0.00332568 0)
(0.186962 0.00318713 0)
(0.185711 0.00305707 0)
(0.184436 0.00293178 0)
(0.183139 0.00280802 0)
(0.181824 0.00268494 0)
(0.180501 0.00256338 0)
(0.179179 0.00244449 0)
(0.177862 0.00232898 0)
(0.176553 0.00221662 0)
(0.175255 0.0021066 0)
(0.173975 0.00199875 0)
(0.172717 0.00189352 0)
(0.171485 0.00179113 0)
(0.17028 0.00169148 0)
(0.169105 0.00159426 0)
(0.167962 0.00149901 0)
(0.166852 0.00140538 0)
(0.165777 0.00131327 0)
(0.16474 0.00122257 0)
(0.163742 0.00113308 0)
(0.162786 0.00104483 0)
(0.161874 0.000957915 0)
(0.161007 0.000872342 0)
(0.160187 0.000788231 0)
(0.159415 0.000705991 0)
(0.158693 0.000625928 0)
(0.158021 0.000548247 0)
(0.157398 0.000473439 0)
(0.156825 0.000402267 0)
(0.156302 0.000335392 0)
(0.155826 0.000273471 0)
(0.155397 0.000217312 0)
(0.155011 0.000167647 0)
(0.154667 0.000124803 0)
(0.154361 8.95967e-05 0)
(0.154092 6.13142e-05 0)
(0.153854 3.95424e-05 0)
(0.153645 2.26959e-05 0)
(0.153461 1.02751e-05 0)
(0.1533 1.3445e-06 0)
(0.153159 -5.12542e-06 0)
(0.153035 -9.93761e-06 0)
(0.152927 -1.36854e-05 0)
(0.152833 -1.68264e-05 0)
(0.152752 -1.974e-05 0)
(0.152684 -2.25098e-05 0)
(0.152626 -2.48929e-05 0)
(0.152578 -2.69576e-05 0)
(0.15254 -2.861e-05 0)
(0.152512 -2.98884e-05 0)
(0.15249 -3.06398e-05 0)
(0.152477 -3.10427e-05 0)
(0.152469 -3.09876e-05 0)
(0.152467 -3.06322e-05 0)
(0.15247 -2.98563e-05 0)
(0.152477 -2.88741e-05 0)
(0.152487 -2.75416e-05 0)
(0.152501 -2.61248e-05 0)
(0.152515 -2.443e-05 0)
(0.152532 -2.27684e-05 0)
(0.152549 -2.08694e-05 0)
(0.152567 -1.9108e-05 0)
(0.152585 -1.71255e-05 0)
(0.152602 -1.5397e-05 0)
(0.152618 -1.34637e-05 0)
(0.152632 -1.19203e-05 0)
(0.152646 -1.01696e-05 0)
(0.152657 -8.94452e-06 0)
(0.152669 -7.45906e-06 0)
(0.152676 -6.62042e-06 0)
(0.152685 -5.41039e-06 0)
(0.152689 -4.97426e-06 0)
(0.152698 -4.02763e-06 0)
(0.19465 0.00641944 0)
(0.194985 0.00762781 0)
(0.195692 0.00875482 0)
(0.19677 0.00955633 0)
(0.198061 0.0099137 0)
(0.199343 0.00988065 0)
(0.200445 0.00958038 0)
(0.201309 0.00911559 0)
(0.201944 0.00855123 0)
(0.202375 0.00794407 0)
(0.202622 0.00735832 0)
(0.202718 0.00684554 0)
(0.202701 0.00642431 0)
(0.202608 0.00608467 0)
(0.202462 0.00580539 0)
(0.202274 0.00556447 0)
(0.202047 0.00534437 0)
(0.201785 0.0051363 0)
(0.201489 0.00494024 0)
(0.201163 0.0047592 0)
(0.200807 0.00459359 0)
(0.200417 0.00443993 0)
(0.199988 0.00429277 0)
(0.199519 0.00414702 0)
(0.199013 0.00400042 0)
(0.198478 0.00385496 0)
(0.197922 0.00371547 0)
(0.197351 0.00358642 0)
(0.196761 0.00346893 0)
(0.196145 0.00335957 0)
(0.195494 0.00325241 0)
(0.194807 0.00314285 0)
(0.194089 0.00302997 0)
(0.19335 0.00291612 0)
(0.192595 0.00280417 0)
(0.191823 0.00269441 0)
(0.191036 0.00258488 0)
(0.190237 0.00247442 0)
(0.189432 0.00236381 0)
(0.188626 0.00225436 0)
(0.187823 0.00214673 0)
(0.187024 0.00204078 0)
(0.18623 0.00193589 0)
(0.185443 0.00183161 0)
(0.184665 0.0017279 0)
(0.183898 0.00162465 0)
(0.183145 0.00152164 0)
(0.182407 0.00141889 0)
(0.181687 0.00131653 0)
(0.180987 0.00121468 0)
(0.180309 0.0011136 0)
(0.179655 0.00101379 0)
(0.179028 0.000915714 0)
(0.178428 0.000819743 0)
(0.177857 0.0007265 0)
(0.177316 0.00063692 0)
(0.176805 0.000551819 0)
(0.176324 0.000471892 0)
(0.175875 0.000398107 0)
(0.175456 0.000331706 0)
(0.175068 0.00027329 0)
(0.17471 0.000223137 0)
(0.17438 0.000180691 0)
(0.174077 0.000145572 0)
(0.1738 0.000117359 0)
(0.173547 9.48817e-05 0)
(0.173315 7.68085e-05 0)
(0.173103 6.20559e-05 0)
(0.17291 4.97117e-05 0)
(0.172733 3.91176e-05 0)
(0.172573 2.9726e-05 0)
(0.172427 2.10264e-05 0)
(0.172297 1.28448e-05 0)
(0.17218 5.43277e-06 0)
(0.172077 -1.285e-06 0)
(0.171986 -7.14491e-06 0)
(0.171908 -1.22922e-05 0)
(0.17184 -1.67102e-05 0)
(0.171784 -2.041e-05 0)
(0.171737 -2.32701e-05 0)
(0.1717 -2.55088e-05 0)
(0.171671 -2.69511e-05 0)
(0.17165 -2.78887e-05 0)
(0.171635 -2.81373e-05 0)
(0.171626 -2.80726e-05 0)
(0.171621 -2.74377e-05 0)
(0.171622 -2.6659e-05 0)
(0.171626 -2.53503e-05 0)
(0.171633 -2.40161e-05 0)
(0.171643 -2.21494e-05 0)
(0.171654 -2.04161e-05 0)
(0.171666 -1.81948e-05 0)
(0.171677 -1.63487e-05 0)
(0.171689 -1.40776e-05 0)
(0.171699 -1.24509e-05 0)
(0.17171 -1.03924e-05 0)
(0.171717 -9.21611e-06 0)
(0.171726 -7.48533e-06 0)
(0.171729 -6.86225e-06 0)
(0.171738 -5.46019e-06 0)
(0.195261 0.00621645 0)
(0.195577 0.00722197 0)
(0.196177 0.00816935 0)
(0.197062 0.00889343 0)
(0.198142 0.00927662 0)
(0.19926 0.00931781 0)
(0.20027 0.0091026 0)
(0.201095 0.00872687 0)
(0.201726 0.00825797 0)
(0.202183 0.00774531 0)
(0.202487 0.00723839 0)
(0.202666 0.00678062 0)
(0.202753 0.00639414 0)
(0.202783 0.00607793 0)
(0.20278 0.00581748 0)
(0.202757 0.00559375 0)
(0.202716 0.0053895 0)
(0.202658 0.00519517 0)
(0.202585 0.00501035 0)
(0.202497 0.00483874 0)
(0.202397 0.00468231 0)
(0.202281 0.00453947 0)
(0.202149 0.0044056 0)
(0.201995 0.00427428 0)
(0.201818 0.00414047 0)
(0.201622 0.00400414 0)
(0.201414 0.00387035 0)
(0.201198 0.00374575 0)
(0.200976 0.0036346 0)
(0.200743 0.003536 0)
(0.200491 0.00344382 0)
(0.200212 0.00335003 0)
(0.199906 0.00324989 0)
(0.199579 0.00314507 0)
(0.199238 0.00304087 0)
(0.198881 0.00293967 0)
(0.198506 0.00283892 0)
(0.198111 0.00273534 0)
(0.1977 0.00262869 0)
(0.19728 0.00252101 0)
(0.196853 0.00241426 0)
(0.19642 0.00230886 0)
(0.195981 0.00220403 0)
(0.195536 0.00209907 0)
(0.195086 0.0019939 0)
(0.194634 0.0018885 0)
(0.19418 0.00178264 0)
(0.193725 0.00167618 0)
(0.19327 0.00156919 0)
(0.192818 0.00146182 0)
(0.19237 0.0013544 0)
(0.191927 0.00124749 0)
(0.191492 0.00114163 0)
(0.191065 0.00103734 0)
(0.190647 0.000935394 0)
(0.19024 0.000836688 0)
(0.189845 0.000741959 0)
(0.189462 0.000652064 0)
(0.189093 0.000568253 0)
(0.18874 0.000491689 0)
(0.188402 0.000422856 0)
(0.188082 0.000362081 0)
(0.18778 0.000309444 0)
(0.187495 0.000264933 0)
(0.187227 0.000227865 0)
(0.186976 0.000196962 0)
(0.18674 0.00017097 0)
(0.186518 0.000148837 0)
(0.18631 0.000129551 0)
(0.186113 0.000112376 0)
(0.18593 9.66214e-05 0)
(0.185757 8.20339e-05 0)
(0.185597 6.83104e-05 0)
(0.185449 5.54172e-05 0)
(0.185313 4.33549e-05 0)
(0.185189 3.23964e-05 0)
(0.185077 2.24105e-05 0)
(0.184976 1.34353e-05 0)
(0.184887 5.4207e-06 0)
(0.184809 -1.47314e-06 0)
(0.184741 -7.47479e-06 0)
(0.184683 -1.23259e-05 0)
(0.184634 -1.63338e-05 0)
(0.184594 -1.92664e-05 0)
(0.184561 -2.15974e-05 0)
(0.184535 -2.3049e-05 0)
(0.184516 -2.41595e-05 0)
(0.184501 -2.44632e-05 0)
(0.184493 -2.45442e-05 0)
(0.184488 -2.37499e-05 0)
(0.184488 -2.28519e-05 0)
(0.184491 -2.1078e-05 0)
(0.184496 -1.94873e-05 0)
(0.184502 -1.71332e-05 0)
(0.184508 -1.53768e-05 0)
(0.184515 -1.29384e-05 0)
(0.18452 -1.15115e-05 0)
(0.184526 -9.31475e-06 0)
(0.184529 -8.51837e-06 0)
(0.184535 -6.65706e-06 0)
(0.195799 0.0060292 0)
(0.196095 0.006874 0)
(0.196611 0.00766763 0)
(0.197348 0.00829914 0)
(0.198251 0.00867628 0)
(0.199215 0.00877382 0)
(0.200121 0.00863792 0)
(0.200887 0.00834425 0)
(0.201491 0.00795809 0)
(0.20194 0.00752688 0)
(0.202253 0.00709111 0)
(0.202456 0.0066864 0)
(0.202577 0.00633468 0)
(0.202644 0.00603982 0)
(0.202684 0.005793 0)
(0.20271 0.00557978 0)
(0.202726 0.00538535 0)
(0.202731 0.00520017 0)
(0.202728 0.00502284 0)
(0.202716 0.00485662 0)
(0.202696 0.00470404 0)
(0.202669 0.00456498 0)
(0.202637 0.00443649 0)
(0.202596 0.00431229 0)
(0.202544 0.00418565 0)
(0.202481 0.00405472 0)
(0.202411 0.00392387 0)
(0.202337 0.00380016 0)
(0.202262 0.00368937 0)
(0.202187 0.00359323 0)
(0.202109 0.00350764 0)
(0.20202 0.00342348 0)
(0.201916 0.00333241 0)
(0.201799 0.00323385 0)
(0.201674 0.00313436 0)
(0.201542 0.00303903 0)
(0.201399 0.00294594 0)
(0.201242 0.00284994 0)
(0.201071 0.0027489 0)
(0.200891 0.00264484 0)
(0.200704 0.00254091 0)
(0.200511 0.00243842 0)
(0.20031 0.00233654 0)
(0.200102 0.00223427 0)
(0.199887 0.00213141 0)
(0.199666 0.00202807 0)
(0.199439 0.00192407 0)
(0.199205 0.00181912 0)
(0.198965 0.00171311 0)
(0.198721 0.00160616 0)
(0.198473 0.00149866 0)
(0.198221 0.00139116 0)
(0.197968 0.00128423 0)
(0.197713 0.00117853 0)
(0.197456 0.00107488 0)
(0.197199 0.000974078 0)
(0.196942 0.000876857 0)
(0.196686 0.000784032 0)
(0.196432 0.000696631 0)
(0.196181 0.000615631 0)
(0.195936 0.000541752 0)
(0.195699 0.000475616 0)
(0.19547 0.000417479 0)
(0.19525 0.000367278 0)
(0.19504 0.000324495 0)
(0.194839 0.00028823 0)
(0.194647 0.000257304 0)
(0.194463 0.000230555 0)
(0.194285 0.000206883 0)
(0.194114 0.000185579 0)
(0.193949 0.000165917 0)
(0.19379 0.000147424 0)
(0.193638 0.000129597 0)
(0.193492 0.000112419 0)
(0.193355 9.59256e-05 0)
(0.193226 8.0431e-05 0)
(0.193107 6.59633e-05 0)
(0.192996 5.27985e-05 0)
(0.192896 4.0659e-05 0)
(0.192804 2.97289e-05 0)
(0.192722 1.98069e-05 0)
(0.192648 1.12317e-05 0)
(0.192584 3.75922e-06 0)
(0.192527 -2.3037e-06 0)
(0.192479 -7.4616e-06 0)
(0.192437 -1.14512e-05 0)
(0.192403 -1.4906e-05 0)
(0.192373 -1.73692e-05 0)
(0.192351 -1.94622e-05 0)
(0.192332 -2.04526e-05 0)
(0.19232 -2.11044e-05 0)
(0.192311 -2.05387e-05 0)
(0.192307 -1.98618e-05 0)
(0.192304 -1.80517e-05 0)
(0.192304 -1.66233e-05 0)
(0.192304 -1.42145e-05 0)
(0.192306 -1.27787e-05 0)
(0.192307 -1.03431e-05 0)
(0.192309 -9.46585e-06 0)
(0.19231 -7.27419e-06 0)
(0.196274 0.00584975 0)
(0.19655 0.0065627 0)
(0.196999 0.00722952 0)
(0.19762 0.00777473 0)
(0.198379 0.00813005 0)
(0.199204 0.00826335 0)
(0.200004 0.00819314 0)
(0.200705 0.00797322 0)
(0.201274 0.00766116 0)
(0.201708 0.00730186 0)
(0.202023 0.00693078 0)
(0.202238 0.00657757 0)
(0.202377 0.00626161 0)
(0.202465 0.00598876 0)
(0.202526 0.00575489 0)
(0.202572 0.0055506 0)
(0.20261 0.00536425 0)
(0.202638 0.00518685 0)
(0.202658 0.00501627 0)
(0.202671 0.00485516 0)
(0.202675 0.00470586 0)
(0.202675 0.00456871 0)
(0.202671 0.00444209 0)
(0.202666 0.00432092 0)
(0.202654 0.0041983 0)
(0.202636 0.00407119 0)
(0.202611 0.003943 0)
(0.202582 0.00382016 0)
(0.202552 0.00370826 0)
(0.202524 0.00361032 0)
(0.202501 0.00352478 0)
(0.202479 0.00344366 0)
(0.202451 0.00335696 0)
(0.202418 0.00326163 0)
(0.202381 0.00316395 0)
(0.202341 0.00307082 0)
(0.202298 0.00298169 0)
(0.202248 0.00289063 0)
(0.20219 0.00279381 0)
(0.202126 0.00269268 0)
(0.202057 0.00259103 0)
(0.201983 0.00249092 0)
(0.201904 0.00239171 0)
(0.20182 0.00229212 0)
(0.20173 0.00219183 0)
(0.201635 0.00209105 0)
(0.201535 0.00198972 0)
(0.201428 0.00188743 0)
(0.201315 0.00178389 0)
(0.201197 0.00167916 0)
(0.201073 0.00157367 0)
(0.200945 0.00146797 0)
(0.200812 0.00136268 0)
(0.200674 0.00125849 0)
(0.200531 0.00115628 0)
(0.200384 0.00105689 0)
(0.200232 0.000960925 0)
(0.200075 0.000868858 0)
(0.199915 0.000781438 0)
(0.199753 0.00069969 0)
(0.199591 0.000624467 0)
(0.199431 0.000556305 0)
(0.199275 0.000495414 0)
(0.199122 0.000442 0)
(0.198976 0.000395988 0)
(0.198834 0.000356807 0)
(0.198697 0.000323363 0)
(0.198562 0.000294459 0)
(0.198431 0.000268925 0)
(0.198301 0.000245915 0)
(0.198172 0.000224561 0)
(0.198045 0.000204267 0)
(0.19792 0.000184441 0)
(0.197797 0.000164936 0)
(0.197679 0.000145725 0)
(0.197564 0.000127223 0)
(0.197456 0.000109605 0)
(0.197353 9.31781e-05 0)
(0.197257 7.7749e-05 0)
(0.197168 6.35006e-05 0)
(0.197086 5.0256e-05 0)
(0.197011 3.83891e-05 0)
(0.196944 2.77559e-05 0)
(0.196883 1.87376e-05 0)
(0.19683 1.08991e-05 0)
(0.196782 4.46575e-06 0)
(0.196741 -1.23429e-06 0)
(0.196703 -5.82296e-06 0)
(0.196672 -9.93495e-06 0)
(0.196644 -1.28754e-05 0)
(0.196624 -1.53102e-05 0)
(0.196605 -1.63477e-05 0)
(0.196593 -1.69841e-05 0)
(0.196581 -1.62166e-05 0)
(0.196576 -1.55216e-05 0)
(0.196568 -1.35935e-05 0)
(0.196567 -1.24396e-05 0)
(0.196562 -1.01047e-05 0)
(0.196561 -9.28896e-06 0)
(0.196557 -7.02287e-06 0)
(0.196695 0.00567572 0)
(0.196952 0.00628073 0)
(0.197346 0.00684541 0)
(0.197875 0.00731597 0)
(0.198516 0.00764186 0)
(0.19922 0.00779297 0)
(0.199919 0.0077734 0)
(0.200551 0.0076182 0)
(0.20108 0.00737295 0)
(0.201497 0.00707788 0)
(0.201809 0.00676513 0)
(0.202032 0.00645995 0)
(0.202186 0.00617894 0)
(0.202291 0.00592887 0)
(0.202367 0.00570898 0)
(0.202428 0.00551378 0)
(0.202478 0.00533481 0)
(0.202518 0.00516457 0)
(0.20255 0.00500093 0)
(0.202574 0.0048458 0)
(0.202589 0.00470067 0)
(0.202598 0.0045657 0)
(0.202605 0.00444019 0)
(0.20261 0.00432052 0)
(0.202612 0.00420058 0)
(0.202609 0.0040769 0)
(0.202599 0.00395194 0)
(0.202584 0.0038312 0)
(0.202565 0.00371917 0)
(0.202547 0.0036188 0)
(0.202535 0.00353028 0)
(0.202529 0.00344789 0)
(0.202525 0.00336205 0)
(0.202519 0.00326823 0)
(0.20251 0.00317133 0)
(0.202501 0.00307852 0)
(0.202492 0.00299046 0)
(0.202481 0.00290158 0)
(0.202466 0.00280733 0)
(0.202447 0.00270838 0)
(0.202425 0.0026085 0)
(0.202399 0.00251006 0)
(0.20237 0.00241269 0)
(0.202337 0.00231506 0)
(0.202301 0.00221677 0)
(0.20226 0.00211807 0)
(0.202216 0.00201897 0)
(0.202166 0.00191901 0)
(0.202112 0.00181776 0)
(0.202054 0.0017152 0)
(0.201991 0.0016118 0)
(0.201924 0.00150818 0)
(0.201852 0.00140495 0)
(0.201776 0.00130285 0)
(0.201695 0.00120289 0)
(0.201609 0.0011059 0)
(0.201517 0.00101225 0)
(0.20142 0.0009222 0)
(0.201317 0.000836342 0)
(0.201211 0.000755538 0)
(0.201103 0.000680449 0)
(0.200995 0.000611543 0)
(0.200888 0.000549224 0)
(0.200783 0.000493999 0)
(0.200682 0.000446089 0)
(0.200583 0.000405232 0)
(0.200488 0.000370534 0)
(0.200393 0.000340819 0)
(0.200299 0.000314806 0)
(0.200204 0.000291499 0)
(0.200109 0.000269961 0)
(0.200011 0.000249472 0)
(0.199914 0.000229272 0)
(0.199815 0.000209011 0)
(0.199718 0.000188578 0)
(0.199621 0.000168386 0)
(0.199529 0.000148727 0)
(0.19944 0.000130015 0)
(0.199356 0.000112203 0)
(0.199276 9.546e-05 0)
(0.199202 7.9657e-05 0)
(0.199133 6.51549e-05 0)
(0.199071 5.19325e-05 0)
(0.199012 4.0405e-05 0)
(0.198961 3.02803e-05 0)
(0.198913 2.17228e-05 0)
(0.198871 1.41266e-05 0)
(0.198832 7.70931e-06 0)
(0.198799 1.89236e-06 0)
(0.198767 -2.78244e-06 0)
(0.198742 -6.82606e-06 0)
(0.198718 -9.45904e-06 0)
(0.198701 -1.14514e-05 0)
(0.198683 -1.19345e-05 0)
(0.198673 -1.21652e-05 0)
(0.19866 -1.10381e-05 0)
(0.198655 -1.0377e-05 0)
(0.198644 -8.47102e-06 0)
(0.198642 -7.84572e-06 0)
(0.198633 -5.80489e-06 0)
(0.19707 0.00550724 0)
(0.197309 0.00602457 0)
(0.197656 0.00650654 0)
(0.198111 0.00691334 0)
(0.198655 0.00720784 0)
(0.199256 0.00736531 0)
(0.199863 0.00738301 0)
(0.200426 0.00728167 0)
(0.200912 0.00709493 0)
(0.201307 0.00685685 0)
(0.201613 0.00659603 0)
(0.201841 0.00633432 0)
(0.202006 0.0060864 0)
(0.202125 0.00585946 0)
(0.202215 0.00565469 0)
(0.202287 0.00546937 0)
(0.202347 0.00529809 0)
(0.202395 0.00513539 0)
(0.202435 0.00497935 0)
(0.202466 0.00483096 0)
(0.202489 0.00469079 0)
(0.202505 0.00455881 0)
(0.202517 0.0044348 0)
(0.202528 0.00431636 0)
(0.202536 0.00419856 0)
(0.202538 0.00407822 0)
(0.202535 0.00395705 0)
(0.202525 0.00383933 0)
(0.202511 0.00372836 0)
(0.202496 0.00362641 0)
(0.202485 0.00353444 0)
(0.202482 0.00344887 0)
(0.202482 0.00336188 0)
(0.202483 0.00326871 0)
(0.202482 0.00317258 0)
(0.20248 0.00307966 0)
(0.202479 0.0029912 0)
(0.20248 0.00290272 0)
(0.202479 0.00280987 0)
(0.202475 0.00271274 0)
(0.202468 0.00261449 0)
(0.202458 0.00251742 0)
(0.202446 0.00242139 0)
(0.202431 0.00232526 0)
(0.202414 0.0022286 0)
(0.202393 0.00213163 0)
(0.202368 0.00203435 0)
(0.20234 0.00193626 0)
(0.202309 0.00183687 0)
(0.202274 0.00173612 0)
(0.202235 0.00163446 0)
(0.202193 0.00153256 0)
(0.202147 0.00143112 0)
(0.202098 0.00133099 0)
(0.202044 0.00123316 0)
(0.201986 0.00113844 0)
(0.201923 0.00104715 0)
(0.201854 0.000959424 0)
(0.201781 0.000875527 0)
(0.201703 0.000795976 0)
(0.201623 0.000721324 0)
(0.201543 0.000652139 0)
(0.201463 0.00058898 0)
(0.201384 0.000532504 0)
(0.201309 0.000483188 0)
(0.201235 0.000441087 0)
(0.201164 0.000405553 0)
(0.201093 0.000375492 0)
(0.201022 0.000349589 0)
(0.200948 0.000326721 0)
(0.200874 0.000305824 0)
(0.200796 0.000285968 0)
(0.200717 0.000266223 0)
(0.200636 0.00024605 0)
(0.200554 0.00022525 0)
(0.200472 0.000204181 0)
(0.200393 0.000183235 0)
(0.200315 0.000162913 0)
(0.200242 0.000143309 0)
(0.200171 0.000124614 0)
(0.200105 0.000106786 0)
(0.200043 9.01538e-05 0)
(0.199986 7.48273e-05 0)
(0.199932 6.11988e-05 0)
(0.199885 4.91456e-05 0)
(0.199839 3.87578e-05 0)
(0.1998 2.95717e-05 0)
(0.199762 2.16013e-05 0)
(0.19973 1.44022e-05 0)
(0.199697 8.28747e-06 0)
(0.199672 2.93896e-06 0)
(0.199645 -1.08729e-06 0)
(0.199626 -4.26729e-06 0)
(0.199605 -5.98282e-06 0)
(0.199592 -7.13805e-06 0)
(0.199575 -6.96085e-06 0)
(0.199568 -6.88323e-06 0)
(0.199554 -5.64161e-06 0)
(0.19955 -5.28534e-06 0)
(0.199537 -3.72656e-06 0)
(0.197403 0.00534497 0)
(0.197625 0.00579072 0)
(0.197933 0.00620498 0)
(0.198326 0.00655806 0)
(0.198792 0.00682282 0)
(0.199306 0.00697971 0)
(0.199831 0.00702297 0)
(0.200329 0.00696425 0)
(0.20077 0.00682733 0)
(0.20114 0.00663907 0)
(0.201437 0.0064239 0)
(0.201666 0.0062012 0)
(0.201839 0.00598423 0)
(0.201969 0.00578019 0)
(0.202069 0.00559158 0)
(0.202151 0.00541766 0)
(0.202219 0.00525534 0)
(0.202274 0.00510083 0)
(0.202319 0.00495258 0)
(0.202357 0.00481109 0)
(0.202386 0.00467638 0)
(0.202407 0.00454808 0)
(0.202424 0.00442624 0)
(0.202438 0.00430937 0)
(0.20245 0.00419376 0)
(0.202456 0.00407677 0)
(0.202456 0.00395957 0)
(0.202451 0.00384523 0)
(0.202441 0.00373601 0)
(0.202429 0.00363352 0)
(0.202419 0.0035388 0)
(0.202415 0.00344979 0)
(0.202415 0.00336086 0)
(0.202417 0.00326787 0)
(0.202418 0.00317258 0)
(0.202417 0.00307964 0)
(0.202417 0.00299035 0)
(0.202419 0.00290142 0)
(0.202421 0.0028093 0)
(0.202421 0.00271375 0)
(0.202418 0.00261709 0)
(0.202413 0.00252128 0)
(0.202406 0.00242639 0)
(0.202396 0.00233153 0)
(0.202385 0.00223634 0)
(0.20237 0.00214097 0)
(0.202352 0.00204533 0)
(0.202331 0.00194886 0)
(0.202307 0.00185108 0)
(0.20228 0.00175189 0)
(0.20225 0.0016517 0)
(0.202217 0.00155124 0)
(0.202182 0.00145137 0)
(0.202143 0.00135295 0)
(0.2021 0.001257 0)
(0.202053 0.00116436 0)
(0.202002 0.00107535 0)
(0.201946 0.000989817 0)
(0.201885 0.000907719 0)
(0.201821 0.000829366 0)
(0.201755 0.000755265 0)
(0.201687 0.000685977 0)
(0.20162 0.000622128 0)
(0.201555 0.000564537 0)
(0.201492 0.000513963 0)
(0.201431 0.000470751 0)
(0.201371 0.000434522 0)
(0.201312 0.000404298 0)
(0.201252 0.000378761 0)
(0.20119 0.000356627 0)
(0.201126 0.000336665 0)
(0.201059 0.000317727 0)
(0.20099 0.000298741 0)
(0.200918 0.000278999 0)
(0.200846 0.000258224 0)
(0.200773 0.000236689 0)
(0.200702 0.000214854 0)