/*--------------------------------*- C++ -*----------------------------------*\
| =========                 |                                                 |
| \\      /  F ield         | OpenFOAM: The Open Source CFD Toolbox           |
|  \\    /   O peration     | Version:  2.3.0                                 |
|   \\  /    A nd           | Web:      www.OpenFOAM.org                      |
|    \\/     M anipulation  |                                                 |
\*---------------------------------------------------------------------------*/
FoamFile
{
    version     2.0;
    format      ascii;
    class       volVectorField;
    location    "0.25";
    object      U_0;
}
// * * * * * * * * * * * * * * * * * * * * * * * * * * * * * * * * * * * * * //

dimensions      [0 1 -1 0 0 0 0];

internalField   nonuniform List<vector> 
3375
(
(0.175835 0.00434687 0)
(0.155413 0.00597704 0)
(0.136792 0.0061509 0)
(0.118573 0.0055484 0)
(0.101009 0.0047239 0)
(0.0849616 0.00382527 0)
(0.07147 0.0028623 0)
(0.0609201 0.00184968 0)
(0.0530973 0.000966938 0)
(0.0474551 0.00036626 0)
(0.0434317 4.48872e-05 0)
(0.0405608 -8.54483e-05 0)
(0.0384649 -0.000108738 0)
(0.036861 -8.21601e-05 0)
(0.0355481 -3.78629e-05 0)
(0.0343988 5.03501e-06 0)
(0.0333447 3.72228e-05 0)
(0.0323566 5.72385e-05 0)
(0.0314252 6.75656e-05 0)
(0.0305471 7.13032e-05 0)
(0.0297212 7.08634e-05 0)
(0.0289468 6.79903e-05 0)
(0.0282234 6.39589e-05 0)
(0.0275492 5.95882e-05 0)
(0.0269218 5.53059e-05 0)
(0.0263378 5.13118e-05 0)
(0.0257935 4.76983e-05 0)
(0.0252849 4.44921e-05 0)
(0.0248085 4.16446e-05 0)
(0.0243612 3.90393e-05 0)
(0.0239407 3.65848e-05 0)
(0.0235452 3.42687e-05 0)
(0.023173 3.20928e-05 0)
(0.0228228 3.00529e-05 0)
(0.0224932 2.81605e-05 0)
(0.0221828 2.63977e-05 0)
(0.0218907 2.4712e-05 0)
(0.0216162 2.30869e-05 0)
(0.0213585 2.15387e-05 0)
(0.0211171 2.00697e-05 0)
(0.0208912 1.8676e-05 0)
(0.0206803 1.7351e-05 0)
(0.0204839 1.6075e-05 0)
(0.0203016 1.48381e-05 0)
(0.0201331 1.36419e-05 0)
(0.0199782 1.24721e-05 0)
(0.0198365 1.13119e-05 0)
(0.0197079 1.0163e-05 0)
(0.0195923 9.01397e-06 0)
(0.0194895 7.836e-06 0)
(0.0193995 6.62638e-06 0)
(0.0193222 5.40901e-06 0)
(0.0192574 4.21182e-06 0)
(0.019205 3.07768e-06 0)
(0.0191649 2.03241e-06 0)
(0.0191369 1.09075e-06 0)
(0.0191206 2.51667e-07 0)
(0.0191153 -6.36616e-07 0)
(0.0191202 -1.73759e-06 0)
(0.0191339 -2.53113e-06 0)
(0.0191546 -3.23415e-06 0)
(0.0191807 -3.70291e-06 0)
(0.0192104 -3.98593e-06 0)
(0.0192419 -4.06506e-06 0)
(0.0192738 -3.95377e-06 0)
(0.0193048 -3.73535e-06 0)
(0.0193344 -3.45215e-06 0)
(0.019362 -3.14234e-06 0)
(0.0193877 -2.83938e-06 0)
(0.0194113 -2.5591e-06 0)
(0.0194331 -2.31714e-06 0)
(0.0194533 -2.10671e-06 0)
(0.0194721 -1.93515e-06 0)
(0.0194898 -1.78925e-06 0)
(0.0195065 -1.66489e-06 0)
(0.0195222 -1.55017e-06 0)
(0.019537 -1.44645e-06 0)
(0.0195509 -1.34412e-06 0)
(0.0195641 -1.25155e-06 0)
(0.0195763 -1.15913e-06 0)
(0.0195878 -1.07391e-06 0)
(0.0195984 -9.86847e-07 0)
(0.0196082 -9.07085e-07 0)
(0.0196172 -8.25407e-07 0)
(0.0196256 -7.53015e-07 0)
(0.0196331 -6.79854e-07 0)
(0.0196399 -6.17396e-07 0)
(0.0196461 -5.53936e-07 0)
(0.0196517 -5.0046e-07 0)
(0.0196567 -4.4416e-07 0)
(0.0196612 -3.965e-07 0)
(0.0196652 -3.4575e-07 0)
(0.0196687 -3.02959e-07 0)
(0.0196718 -2.59348e-07 0)
(0.0196744 -2.22835e-07 0)
(0.0196768 -1.89806e-07 0)
(0.0196785 -1.60456e-07 0)
(0.0196805 -1.41389e-07 0)
(0.0196816 -1.16835e-07 0)
(0.0196835 -1.13998e-07 0)
(0.191021 0.0077175 0)
(0.18933 0.0108324 0)
(0.186871 0.011911 0)
(0.182994 0.0117572 0)
(0.177481 0.0111076 0)
(0.170563 0.0101832 0)
(0.162888 0.00900297 0)
(0.154977 0.00757754 0)
(0.147214 0.00606142 0)
(0.139792 0.00466222 0)
(0.132813 0.00351266 0)
(0.126373 0.00264057 0)
(0.120522 0.0020119 0)
(0.115276 0.00158109 0)
(0.110596 0.00129826 0)
(0.106416 0.00111396 0)
(0.102662 0.00098728 0)
(0.0992694 0.000892234 0)
(0.0961854 0.000815855 0)
(0.0933644 0.000751432 0)
(0.0907696 0.000694398 0)
(0.088372 0.000641898 0)
(0.086149 0.000592865 0)
(0.0840823 0.000547243 0)
(0.0821567 0.000505247 0)
(0.0803589 0.000467066 0)
(0.0786772 0.000432723 0)
(0.0771012 0.000402009 0)
(0.0756216 0.000374452 0)
(0.0742306 0.000349369 0)
(0.0729217 0.000326189 0)
(0.0716892 0.00030466 0)
(0.0705281 0.00028463 0)
(0.0694341 0.000265938 0)
(0.068403 0.000248495 0)
(0.0674311 0.000232148 0)
(0.0665155 0.000216647 0)
(0.0656536 0.000201868 0)
(0.0648433 0.000187805 0)
(0.0640825 0.000174417 0)
(0.0633695 0.000161647 0)
(0.0627026 0.000149437 0)
(0.0620806 0.00013769 0)
(0.0615024 0.000126348 0)
(0.060967 0.000115397 0)
(0.0604736 0.000104782 0)
(0.0600215 9.44428e-05 0)
(0.05961 8.43838e-05 0)
(0.0592387 7.45862e-05 0)
(0.0589068 6.49724e-05 0)
(0.0586139 5.55449e-05 0)
(0.0583593 4.63785e-05 0)
(0.0581422 3.74934e-05 0)
(0.0579617 2.89096e-05 0)
(0.0578167 2.07461e-05 0)
(0.0577058 1.31905e-05 0)
(0.0576267 6.35741e-06 0)
(0.0575771 1.61443e-07 0)
(0.0575539 -5.82339e-06 0)
(0.0575533 -1.12587e-05 0)
(0.0575711 -1.49924e-05 0)
(0.0576029 -1.72729e-05 0)
(0.0576447 -1.85521e-05 0)
(0.0576926 -1.88914e-05 0)
(0.0577435 -1.8431e-05 0)
(0.057795 -1.75545e-05 0)
(0.0578455 -1.64209e-05 0)
(0.057894 -1.51767e-05 0)
(0.0579402 -1.39516e-05 0)
(0.0579839 -1.28133e-05 0)
(0.0580256 -1.18184e-05 0)
(0.058065 -1.09409e-05 0)
(0.0581029 -1.0198e-05 0)
(0.0581391 -9.53915e-06 0)
(0.058174 -8.94837e-06 0)
(0.0582074 -8.38511e-06 0)
(0.0582394 -7.85363e-06 0)
(0.0582698 -7.32203e-06 0)
(0.0582988 -6.82009e-06 0)
(0.058326 -6.31698e-06 0)
(0.0583518 -5.83976e-06 0)
(0.0583757 -5.35858e-06 0)
(0.0583981 -4.90847e-06 0)
(0.0584185 -4.45739e-06 0)
(0.0584374 -4.04785e-06 0)
(0.0584545 -3.6425e-06 0)
(0.0584702 -3.28627e-06 0)
(0.0584842 -2.93321e-06 0)
(0.058497 -2.62936e-06 0)
(0.0585083 -2.32109e-06 0)
(0.0585184 -2.06014e-06 0)
(0.0585273 -1.79063e-06 0)
(0.058535 -1.56938e-06 0)
(0.058542 -1.3413e-06 0)
(0.0585476 -1.16355e-06 0)
(0.0585531 -9.83348e-07 0)
(0.0585569 -8.5259e-07 0)
(0.0585616 -7.23016e-07 0)
(0.0585637 -6.418e-07 0)
(0.0585683 -5.63501e-07 0)
(0.19209 0.00740486 0)
(0.192551 0.0100779 0)
(0.193643 0.0116872 0)
(0.194702 0.0122122 0)
(0.195097 0.0120976 0)
(0.194528 0.0116184 0)
(0.193021 0.0108384 0)
(0.19074 0.00979534 0)
(0.187867 0.00860021 0)
(0.184548 0.00741812 0)
(0.180905 0.00637817 0)
(0.177067 0.00552529 0)
(0.173149 0.00483963 0)
(0.169244 0.00428883 0)
(0.165408 0.00384216 0)
(0.161675 0.00347281 0)
(0.158061 0.00315817 0)
(0.154571 0.00288317 0)
(0.151207 0.00264034 0)
(0.147967 0.00242518 0)
(0.144854 0.00223303 0)
(0.141867 0.0020598 0)
(0.139006 0.00190293 0)
(0.136268 0.00176062 0)
(0.133651 0.00163113 0)
(0.131149 0.00151301 0)
(0.128758 0.00140533 0)
(0.126474 0.00130734 0)
(0.124294 0.00121815 0)
(0.122215 0.00113647 0)
(0.120235 0.00106108 0)
(0.11835 0.000991239 0)
(0.116557 0.000926413 0)
(0.114854 0.000866125 0)
(0.113235 0.000809979 0)
(0.111698 0.00075744 0)
(0.110239 0.000707825 0)
(0.108856 0.000660706 0)
(0.107546 0.000615917 0)
(0.106306 0.000573264 0)
(0.105136 0.000532532 0)
(0.104033 0.000493521 0)
(0.102995 0.000455977 0)
(0.102022 0.000419732 0)
(0.101113 0.000384715 0)
(0.100266 0.000350788 0)
(0.0994816 0.000317824 0)
(0.0987581 0.000285815 0)
(0.0980953 0.000254736 0)
(0.0974925 0.000224476 0)
(0.0969489 0.000195077 0)
(0.0964635 0.000166714 0)
(0.0960354 0.000139414 0)
(0.0956631 0.000113125 0)
(0.0953448 8.8034e-05 0)
(0.0950783 6.45125e-05 0)
(0.094861 4.2912e-05 0)
(0.0946891 2.37241e-05 0)
(0.0945586 6.94307e-06 0)
(0.0944653 -7.43531e-06 0)
(0.0944036 -1.87181e-05 0)
(0.094368 -2.73318e-05 0)
(0.0943529 -3.27045e-05 0)
(0.0943535 -3.5514e-05 0)
(0.0943655 -3.60992e-05 0)
(0.0943849 -3.53828e-05 0)
(0.0944094 -3.39086e-05 0)
(0.0944369 -3.20528e-05 0)
(0.0944664 -3.0105e-05 0)
(0.0944969 -2.82285e-05 0)
(0.0945284 -2.65522e-05 0)
(0.0945605 -2.50453e-05 0)
(0.0945934 -2.37608e-05 0)
(0.0946267 -2.25947e-05 0)
(0.0946607 -2.15073e-05 0)
(0.0946946 -2.04215e-05 0)
(0.0947288 -1.93484e-05 0)
(0.0947624 -1.82316e-05 0)
(0.0947958 -1.71313e-05 0)
(0.094828 -1.59932e-05 0)
(0.0948594 -1.48774e-05 0)
(0.0948893 -1.37303e-05 0)
(0.094918 -1.26294e-05 0)
(0.0949447 -1.15138e-05 0)
(0.09497 -1.04777e-05 0)
(0.0949931 -9.44464e-06 0)
(0.0950147 -8.51809e-06 0)
(0.0950341 -7.59743e-06 0)
(0.0950519 -6.79554e-06 0)
(0.0950679 -5.98594e-06 0)
(0.095082 -5.3035e-06 0)
(0.0950947 -4.60001e-06 0)
(0.0951055 -4.03774e-06 0)
(0.0951156 -3.44348e-06 0)
(0.0951233 -3.00966e-06 0)
(0.0951314 -2.52722e-06 0)
(0.0951365 -2.2278e-06 0)
(0.0951435 -1.8497e-06 0)
(0.0951461 -1.6901e-06 0)
(0.095153 -1.4213e-06 0)
(0.193102 0.00697394 0)
(0.193503 0.00892919 0)
(0.194596 0.0104653 0)
(0.196171 0.011232 0)
(0.19775 0.0113736 0)
(0.198967 0.011124 0)
(0.199672 0.0106059 0)
(0.199866 0.00987691 0)
(0.199597 0.00900918 0)
(0.198907 0.00811454 0)
(0.197846 0.00729878 0)
(0.196488 0.00661446 0)
(0.194909 0.00605899 0)
(0.193171 0.00560233 0)
(0.191321 0.00521587 0)
(0.18939 0.0048782 0)
(0.187401 0.00457449 0)
(0.18537 0.00429738 0)
(0.183307 0.0040445 0)
(0.18122 0.00381305 0)
(0.179112 0.00359791 0)
(0.17699 0.00339448 0)
(0.174866 0.00320125 0)
(0.172749 0.00301892 0)
(0.170652 0.00284831 0)
(0.16858 0.00268933 0)
(0.166535 0.00254102 0)
(0.164516 0.00240182 0)
(0.162523 0.00227009 0)
(0.160561 0.00214441 0)
(0.158635 0.00202418 0)
(0.156751 0.00190942 0)
(0.154917 0.00180019 0)
(0.153133 0.00169637 0)
(0.151404 0.00159787 0)
(0.14973 0.00150432 0)
(0.148113 0.001415 0)
(0.146554 0.00132945 0)
(0.145056 0.0012475 0)
(0.143617 0.00116886 0)
(0.142237 0.00109321 0)
(0.140918 0.00102023 0)
(0.139658 0.000949526 0)
(0.138459 0.000880822 0)
(0.137322 0.000814033 0)
(0.136246 0.000748974 0)
(0.135232 0.000685456 0)
(0.134281 0.000623487 0)
(0.133393 0.000563071 0)
(0.132569 0.000504097 0)
(0.131808 0.000446628 0)
(0.13111 0.000390961 0)
(0.130475 0.000337221 0)
(0.129902 0.000285446 0)
(0.12939 0.000236017 0)
(0.128936 0.000189578 0)
(0.128539 0.000146549 0)
(0.128196 0.000107207 0)
(0.127903 7.25456e-05 0)
(0.127656 4.356e-05 0)
(0.12745 1.93032e-05 0)
(0.127282 -2.92966e-07 0)
(0.127145 -1.44048e-05 0)
(0.127035 -2.38923e-05 0)
(0.126948 -3.02903e-05 0)
(0.126878 -3.37565e-05 0)
(0.126824 -3.51889e-05 0)
(0.126781 -3.54024e-05 0)
(0.126749 -3.49926e-05 0)
(0.126725 -3.4334e-05 0)
(0.126709 -3.36937e-05 0)
(0.126699 -3.30162e-05 0)
(0.126695 -3.24389e-05 0)
(0.126697 -3.18867e-05 0)
(0.126703 -3.13195e-05 0)
(0.126714 -3.06152e-05 0)
(0.126729 -2.97889e-05 0)
(0.126746 -2.87628e-05 0)
(0.126766 -2.76438e-05 0)
(0.126788 -2.63459e-05 0)
(0.126812 -2.49747e-05 0)
(0.126837 -2.34501e-05 0)
(0.126862 -2.19091e-05 0)
(0.126887 -2.0256e-05 0)
(0.126912 -1.86604e-05 0)
(0.126936 -1.69965e-05 0)
(0.126959 -1.54586e-05 0)
(0.126981 -1.38745e-05 0)
(0.127001 -1.2468e-05 0)
(0.12702 -1.10106e-05 0)
(0.127037 -9.77729e-06 0)
(0.127052 -8.47968e-06 0)
(0.127066 -7.45815e-06 0)
(0.127078 -6.34829e-06 0)
(0.127088 -5.57012e-06 0)
(0.127098 -4.65674e-06 0)
(0.127104 -4.13259e-06 0)
(0.127113 -3.40035e-06 0)
(0.127116 -3.12813e-06 0)
(0.127124 -2.57793e-06 0)
(0.193942 0.00667061 0)
(0.194301 0.00816946 0)
(0.195161 0.0095003 0)
(0.196487 0.0103231 0)
(0.198003 0.0105939 0)
(0.199408 0.0104583 0)
(0.200528 0.0100613 0)
(0.201329 0.00949099 0)
(0.201835 0.00880944 0)
(0.202065 0.0080925 0)
(0.20204 0.00742207 0)
(0.2018 0.00685071 0)
(0.201393 0.00638666 0)
(0.20086 0.00600863 0)
(0.200229 0.00569038 0)
(0.199519 0.00541052 0)
(0.19874 0.00515482 0)
(0.197901 0.00491763 0)
(0.197009 0.00469894 0)
(0.196067 0.00449838 0)
(0.195074 0.00431209 0)
(0.194028 0.00413456 0)
(0.192931 0.00396176 0)
(0.19179 0.00379242 0)
(0.190617 0.00362786 0)
(0.189421 0.00347093 0)
(0.18821 0.00332401 0)
(0.18698 0.00318719 0)
(0.185729 0.00305779 0)
(0.184451 0.00293183 0)
(0.18315 0.0028067 0)
(0.181834 0.00268236 0)
(0.180512 0.00256006 0)
(0.179191 0.0024409 0)
(0.177876 0.00232523 0)
(0.176568 0.00221253 0)
(0.175273 0.00210206 0)
(0.173995 0.00199389 0)
(0.172741 0.00188853 0)
(0.171513 0.00178611 0)
(0.170312 0.00168638 0)
(0.169141 0.00158898 0)
(0.168001 0.00149344 0)
(0.166895 0.00139947 0)
(0.165824 0.00130701 0)
(0.164791 0.00121591 0)
(0.163797 0.001126 0)
(0.162846 0.00103734 0)
(0.161938 0.000950039 0)
(0.161077 0.000864085 0)
(0.160263 0.000779656 0)
(0.159497 0.000697179 0)
(0.15878 0.000616924 0)
(0.158114 0.000539119 0)
(0.157498 0.000464324 0)
(0.156932 0.000393313 0)
(0.156414 0.000326733 0)
(0.155945 0.000265279 0)
(0.155522 0.000209778 0)
(0.155142 0.000160869 0)
(0.154803 0.00011906 0)
(0.154503 8.47876e-05 0)
(0.154238 5.74894e-05 0)
(0.154004 3.65712e-05 0)
(0.153799 2.03506e-05 0)
(0.153619 8.50368e-06 0)
(0.153461 -1.85649e-08 0)
(0.153322 -6.21738e-06 0)
(0.153201 -1.08611e-05 0)
(0.153095 -1.45178e-05 0)
(0.153004 -1.76296e-05 0)
(0.152925 -2.05908e-05 0)
(0.152858 -2.33039e-05 0)
(0.152802 -2.56328e-05 0)
(0.152757 -2.76326e-05 0)
(0.152721 -2.92084e-05 0)
(0.152694 -3.03937e-05 0)
(0.152674 -3.10514e-05 0)
(0.152662 -3.13658e-05 0)
(0.152655 -3.12232e-05 0)
(0.152655 -3.07814e-05 0)
(0.152659 -2.99254e-05 0)
(0.152667 -2.88698e-05 0)
(0.152678 -2.7475e-05 0)
(0.152691 -2.60046e-05 0)
(0.152707 -2.42661e-05 0)
(0.152724 -2.2566e-05 0)
(0.152741 -2.06374e-05 0)
(0.152759 -1.88497e-05 0)
(0.152777 -1.68521e-05 0)
(0.152794 -1.51139e-05 0)
(0.15281 -1.31852e-05 0)
(0.152824 -1.16513e-05 0)
(0.152838 -9.92392e-06 0)
(0.152848 -8.72077e-06 0)
(0.152859 -7.26784e-06 0)
(0.152866 -6.4522e-06 0)
(0.152876 -5.27429e-06 0)
(0.152879 -4.85241e-06 0)
(0.152888 -3.93372e-06 0)
(0.194643 0.00643305 0)
(0.194983 0.00764886 0)
(0.195693 0.00877742 0)
(0.196772 0.00957436 0)
(0.198064 0.00992049 0)
(0.199343 0.00987388 0)
(0.20044 0.00956358 0)
(0.201302 0.00909422 0)
(0.201939 0.00853043 0)
(0.202373 0.00792885 0)
(0.202626 0.00735232 0)
(0.202726 0.00684898 0)
(0.202712 0.00643413 0)
(0.202618 0.00609658 0)
(0.202469 0.00581538 0)
(0.202276 0.0055697 0)
(0.202046 0.0053441 0)
(0.201781 0.00513232 0)
(0.201486 0.00493557 0)
(0.201162 0.00475606 0)
(0.200807 0.0045923 0)
(0.200417 0.00443922 0)
(0.199986 0.00429076 0)
(0.199516 0.00414249 0)
(0.19901 0.00399378 0)
(0.19848 0.0038481 0)
(0.197931 0.00371062 0)
(0.197366 0.0035848 0)
(0.196779 0.00347004 0)
(0.196161 0.00336144 0)
(0.195506 0.00325292 0)
(0.194815 0.00314105 0)
(0.194096 0.00302641 0)
(0.193358 0.00291202 0)
(0.192604 0.00280012 0)
(0.191833 0.00269001 0)
(0.191046 0.00257954 0)
(0.190247 0.00246816 0)
(0.189445 0.00235711 0)
(0.188643 0.00224764 0)
(0.187843 0.00214008 0)
(0.187047 0.00203405 0)
(0.186256 0.00192889 0)
(0.185471 0.00182427 0)
(0.184696 0.00172018 0)
(0.183932 0.00161647 0)
(0.183182 0.00151296 0)
(0.182447 0.00140969 0)
(0.18173 0.00130683 0)
(0.181033 0.00120449 0)
(0.180359 0.00110299 0)
(0.17971 0.00100286 0)
(0.179087 0.000904532 0)
(0.178491 0.000808385 0)
(0.177925 0.000715116 0)
(0.177388 0.000625679 0)
(0.176881 0.000540863 0)
(0.176405 0.000461393 0)
(0.17596 0.000388325 0)
(0.175546 0.000322854 0)
(0.175163 0.000265538 0)
(0.174809 0.000216423 0)
(0.174484 0.000175031 0)
(0.174185 0.000140923 0)
(0.173911 0.000113644 0)
(0.173661 9.18661e-05 0)
(0.173432 7.42983e-05 0)
(0.173223 5.98935e-05 0)
(0.173032 4.77809e-05 0)
(0.172858 3.7333e-05 0)
(0.172701 2.80047e-05 0)
(0.172558 1.92748e-05 0)
(0.17243 1.11704e-05 0)
(0.172315 3.84416e-06 0)
(0.172214 -2.76306e-06 0)
(0.172126 -8.49445e-06 0)
(0.17205 -1.35201e-05 0)
(0.171985 -1.78094e-05 0)
(0.171931 -2.13645e-05 0)
(0.171886 -2.40812e-05 0)
(0.171851 -2.61728e-05 0)
(0.171823 -2.74735e-05 0)
(0.171804 -2.82787e-05 0)
(0.17179 -2.84126e-05 0)
(0.171783 -2.82466e-05 0)
(0.171779 -2.75236e-05 0)
(0.171781 -2.66595e-05 0)
(0.171785 -2.52719e-05 0)
(0.171793 -2.38573e-05 0)
(0.171803 -2.19231e-05 0)
(0.171815 -2.01301e-05 0)
(0.171827 -1.78744e-05 0)
(0.171839 -1.60072e-05 0)
(0.171851 -1.37444e-05 0)
(0.17186 -1.21311e-05 0)
(0.171871 -1.01104e-05 0)
(0.171877 -8.96129e-06 0)
(0.171886 -7.27789e-06 0)
(0.171889 -6.6746e-06 0)
(0.171897 -5.31776e-06 0)
(0.195252 0.00622792 0)
(0.195573 0.00724068 0)
(0.196178 0.00818957 0)
(0.197067 0.0089095 0)
(0.198149 0.00928307 0)
(0.199267 0.00931238 0)
(0.200272 0.00908768 0)
(0.201093 0.00870687 0)
(0.201722 0.0082375 0)
(0.202179 0.00772916 0)
(0.202484 0.00723046 0)
(0.202666 0.00678196 0)
(0.202757 0.00640269 0)
(0.202789 0.00608988 0)
(0.202786 0.0058287 0)
(0.202761 0.00560072 0)
(0.202718 0.00539068 0)
(0.202658 0.00519181 0)
(0.202584 0.00500546 0)
(0.202497 0.00483498 0)
(0.202397 0.00468071 0)
(0.202282 0.00453921 0)
(0.202148 0.00440456 0)
(0.201992 0.00427029 0)
(0.201815 0.004133 0)
(0.201621 0.00399493 0)
(0.201417 0.00386234 0)
(0.201206 0.00374143 0)
(0.200989 0.00363465 0)
(0.200757 0.0035388 0)
(0.200503 0.00344632 0)
(0.20022 0.00334973 0)
(0.199912 0.00324658 0)
(0.199586 0.00314051 0)
(0.199245 0.00303665 0)
(0.198889 0.00293562 0)
(0.198512 0.00283382 0)
(0.198116 0.00272861 0)
(0.197707 0.00262083 0)
(0.197289 0.00251289 0)
(0.196864 0.00240634 0)
(0.196433 0.00230102 0)
(0.195995 0.00219598 0)
(0.195552 0.00209069 0)
(0.195104 0.00198516 0)
(0.194654 0.00187934 0)
(0.194201 0.00177296 0)
(0.193748 0.00166592 0)
(0.193295 0.00155834 0)
(0.192844 0.00145041 0)
(0.192398 0.00134252 0)
(0.191958 0.00123523 0)
(0.191525 0.00112907 0)
(0.1911 0.0010246 0)
(0.190685 0.000922615 0)
(0.19028 0.000824001 0)
(0.189888 0.000729493 0)
(0.189507 0.000640034 0)
(0.189141 0.000556938 0)
(0.188791 0.000481276 0)
(0.188457 0.000413477 0)
(0.18814 0.000353793 0)
(0.18784 0.000302348 0)
(0.187559 0.000259006 0)
(0.187294 0.000222954 0)
(0.187045 0.000192839 0)
(0.186811 0.000167432 0)
(0.186591 0.000145705 0)
(0.186385 0.00012668 0)
(0.186191 0.000109645 0)
(0.186009 9.39526e-05 0)
(0.185838 7.94197e-05 0)
(0.185681 6.57087e-05 0)
(0.185534 5.28696e-05 0)
(0.185401 4.09192e-05 0)
(0.185279 3.01123e-05 0)
(0.18517 2.02779e-05 0)
(0.185072 1.14619e-05 0)
(0.184985 3.62475e-06 0)
(0.184909 -3.08609e-06 0)
(0.184843 -8.88769e-06 0)
(0.184787 -1.3532e-05 0)
(0.184741 -1.73357e-05 0)
(0.184702 -2.00877e-05 0)
(0.184671 -2.22622e-05 0)
(0.184647 -2.35811e-05 0)
(0.184629 -2.45648e-05 0)
(0.184616 -2.4745e-05 0)
(0.184608 -2.46895e-05 0)
(0.184605 -2.37626e-05 0)
(0.184606 -2.2731e-05 0)
(0.184609 -2.08524e-05 0)
(0.184614 -1.91753e-05 0)
(0.18462 -1.67816e-05 0)
(0.184627 -1.50018e-05 0)
(0.184633 -1.25858e-05 0)
(0.184638 -1.11748e-05 0)
(0.184644 -9.03388e-06 0)
(0.184647 -8.25745e-06 0)
(0.184652 -6.45964e-06 0)
(0.195789 0.0060381 0)
(0.19609 0.00688914 0)
(0.196612 0.00768411 0)
(0.197354 0.00831238 0)
(0.19826 0.00868217 0)
(0.199224 0.00877005 0)
(0.200127 0.00862555 0)
(0.200889 0.00832668 0)
(0.201488 0.0079394 0)
(0.201934 0.00751131 0)
(0.202247 0.00708238 0)
(0.202451 0.00668605 0)
(0.202575 0.00634139 0)
(0.202646 0.00605038 0)
(0.202689 0.00580367 0)
(0.202715 0.00558715 0)
(0.20273 0.00538753 0)
(0.202734 0.00519779 0)
(0.202729 0.00501846 0)
(0.202716 0.00485281 0)
(0.202696 0.00470213 0)
(0.20267 0.00456473 0)
(0.202638 0.00443605 0)
(0.202596 0.00430904 0)
(0.202543 0.00417831 0)
(0.20248 0.00404459 0)
(0.202411 0.003914 0)
(0.20234 0.00379356 0)
(0.202268 0.00368765 0)
(0.202197 0.00359568 0)
(0.202119 0.00351118 0)
(0.202028 0.00342451 0)
(0.201922 0.00332957 0)
(0.201805 0.00322889 0)
(0.201682 0.00312982 0)
(0.20155 0.00303537 0)
(0.201405 0.00294157 0)
(0.201246 0.0028435 0)
(0.201075 0.0027406 0)
(0.200896 0.00263588 0)
(0.200711 0.00253217 0)
(0.200518 0.00242992 0)
(0.200318 0.00232793 0)
(0.200111 0.00222532 0)
(0.199897 0.00212213 0)
(0.199677 0.00201843 0)
(0.199449 0.00191394 0)
(0.199216 0.00180838 0)
(0.198977 0.00170173 0)
(0.198734 0.00159418 0)
(0.198486 0.00148617 0)
(0.198236 0.00137826 0)
(0.197983 0.00127103 0)
(0.197729 0.00116518 0)
(0.197474 0.00106151 0)
(0.197217 0.00096079 0)
(0.196961 0.000863757 0)
(0.196705 0.000771291 0)
(0.196452 0.000684473 0)
(0.196203 0.000604252 0)
(0.19596 0.000531337 0)
(0.195724 0.000466295 0)
(0.195498 0.000409355 0)
(0.19528 0.000360357 0)
(0.195072 0.000318691 0)
(0.194873 0.000283348 0)
(0.194682 0.00025311 0)
(0.194499 0.000226823 0)
(0.194322 0.000203447 0)
(0.194152 0.000182311 0)
(0.193988 0.000162702 0)
(0.19383 0.000144177 0)
(0.193679 0.00012627 0)
(0.193535 0.00010906 0)
(0.193399 9.26111e-05 0)
(0.193272 7.72319e-05 0)
(0.193155 6.29352e-05 0)
(0.193047 4.99526e-05 0)
(0.192949 3.79912e-05 0)
(0.192858 2.72523e-05 0)
(0.192779 1.75542e-05 0)
(0.192707 9.23201e-06 0)
(0.192645 2.03025e-06 0)
(0.19259 -3.77926e-06 0)
(0.192544 -8.71295e-06 0)
(0.192504 -1.25245e-05 0)
(0.192471 -1.58191e-05 0)
(0.192443 -1.81315e-05 0)
(0.192421 -2.00523e-05 0)
(0.192404 -2.08609e-05 0)
(0.192393 -2.13121e-05 0)
(0.192385 -2.05652e-05 0)
(0.192381 -1.97198e-05 0)
(0.192379 -1.77983e-05 0)
(0.19238 -1.62827e-05 0)
(0.19238 -1.38559e-05 0)
(0.192382 -1.24035e-05 0)
(0.192383 -1.0016e-05 0)
(0.192385 -9.14838e-06 0)
(0.192385 -7.03043e-06 0)
(0.196265 0.00585606 0)
(0.196545 0.00657409 0)
(0.196999 0.00724227 0)
(0.197626 0.00778525 0)
(0.198389 0.008135 0)
(0.199215 0.00826048 0)
(0.200012 0.0081829 0)
(0.200708 0.00795835 0)
(0.201272 0.00764502 0)
(0.201703 0.00728792 0)
(0.202015 0.00692229 0)
(0.202231 0.00657615 0)
(0.202372 0.00626637 0)
(0.202464 0.00599716 0)
(0.202529 0.00576398 0)
(0.202578 0.00555747 0)
(0.202615 0.0053669 0)
(0.202642 0.0051854 0)
(0.202661 0.00501273 0)
(0.202672 0.00485175 0)
(0.202676 0.00470382 0)
(0.202676 0.00456815 0)
(0.202674 0.00444166 0)
(0.202668 0.00431815 0)
(0.202655 0.00419154 0)
(0.202636 0.0040613 0)
(0.202611 0.00393271 0)
(0.202582 0.00381239 0)
(0.202554 0.00370491 0)
(0.202529 0.00361151 0)
(0.202508 0.0035281 0)
(0.202486 0.00344523 0)
(0.202458 0.00335449 0)
(0.202424 0.00325645 0)
(0.202387 0.00315904 0)
(0.202349 0.00306728 0)
(0.202305 0.00297794 0)
(0.202254 0.00288475 0)
(0.202195 0.00278561 0)
(0.202131 0.00268345 0)
(0.202062 0.00258197 0)
(0.201988 0.00248222 0)
(0.20191 0.00238295 0)
(0.201825 0.00228303 0)
(0.201736 0.0021824 0)
(0.201641 0.00208131 0)
(0.20154 0.00197954 0)
(0.201433 0.00187663 0)
(0.20132 0.0017724 0)
(0.201202 0.00166703 0)
(0.201079 0.001561 0)
(0.20095 0.0014549 0)
(0.200817 0.00134934 0)
(0.200679 0.00124504 0)
(0.200536 0.00114287 0)
(0.200389 0.00104362 0)
(0.200236 0.000947826 0)
(0.200079 0.000856003 0)
(0.199919 0.000769017 0)
(0.199758 0.000687925 0)
(0.199597 0.000613547 0)
(0.199438 0.000546358 0)
(0.199283 0.000486576 0)
(0.199132 0.000434388 0)
(0.198986 0.000389608 0)
(0.198845 0.000351503 0)
(0.198709 0.000318887 0)
(0.198575 0.000290551 0)
(0.198443 0.000265372 0)
(0.198313 0.000242538 0)
(0.198184 0.000221199 0)
(0.198057 0.000200795 0)
(0.197932 0.000180781 0)
(0.19781 0.000161106 0)
(0.197692 0.000141817 0)
(0.197579 0.000123352 0)
(0.197472 0.000105854 0)
(0.197371 8.95796e-05 0)
(0.197277 7.43137e-05 0)
(0.197189 6.0243e-05 0)
(0.19711 4.72187e-05 0)
(0.197037 3.5623e-05 0)
(0.196972 2.53047e-05 0)
(0.196912 1.66036e-05 0)
(0.196861 9.05623e-06 0)
(0.196814 2.85458e-06 0)
(0.196774 -2.65041e-06 0)
(0.196738 -7.06788e-06 0)
(0.196708 -1.09926e-05 0)
(0.196681 -1.37277e-05 0)
(0.196662 -1.5921e-05 0)
(0.196644 -1.672e-05 0)
(0.196633 -1.71171e-05 0)
(0.196622 -1.61656e-05 0)
(0.196617 -1.53125e-05 0)
(0.19661 -1.33114e-05 0)
(0.196609 -1.20944e-05 0)
(0.196604 -9.78286e-06 0)
(0.196604 -8.95668e-06 0)
(0.196599 -6.75974e-06 0)
(0.196687 0.00567976 0)
(0.196948 0.0062888 0)
(0.197346 0.00685477 0)
(0.19788 0.00732374 0)
(0.198525 0.00764533 0)
(0.19923 0.00779038 0)
(0.199927 0.00776508 0)
(0.200555 0.00760616 0)
(0.201079 0.00735969 0)
(0.201492 0.00706608 0)
(0.201802 0.00675747 0)
(0.202025 0.00645786 0)
(0.20218 0.0061819 0)
(0.202288 0.00593501 0)
(0.202369 0.00571609 0)
(0.202433 0.00551953 0)
(0.202483 0.00533735 0)
(0.202523 0.00516375 0)
(0.202554 0.0049983 0)
(0.202576 0.00484305 0)
(0.202591 0.00469871 0)
(0.2026 0.00456477 0)
(0.202607 0.00443944 0)
(0.202613 0.00431794 0)
(0.202615 0.00419452 0)
(0.20261 0.00406785 0)
(0.202598 0.00394223 0)
(0.202582 0.00382326 0)
(0.202564 0.00371473 0)
(0.202549 0.0036184 0)
(0.20254 0.00353238 0)
(0.202536 0.00344905 0)
(0.202532 0.00335967 0)
(0.202525 0.00326305 0)
(0.202517 0.00316616 0)
(0.202508 0.00307482 0)
(0.202499 0.00298691 0)
(0.202488 0.00289614 0)
(0.202472 0.0027995 0)
(0.202453 0.00269934 0)
(0.20243 0.00259951 0)
(0.202404 0.00250145 0)
(0.202374 0.00240406 0)
(0.202341 0.00230611 0)
(0.202304 0.0022075 0)
(0.202263 0.00210851 0)
(0.202218 0.00200899 0)
(0.202168 0.0019084 0)
(0.202114 0.0018064 0)
(0.202055 0.00170315 0)
(0.201992 0.00159921 0)
(0.201925 0.00149518 0)
(0.201853 0.0013917 0)
(0.201776 0.00128957 0)
(0.201695 0.00118976 0)
(0.201608 0.00109297 0)
(0.201515 0.000999487 0)
(0.201417 0.00090961 0)
(0.201314 0.000824068 0)
(0.201208 0.00074376 0)
(0.2011 0.000669328 0)
(0.200992 0.000601238 0)
(0.200885 0.000539946 0)
(0.200781 0.000485952 0)
(0.200681 0.000439364 0)
(0.200583 0.000399742 0)
(0.200488 0.000366045 0)
(0.200393 0.000337032 0)
(0.200298 0.000311452 0)
(0.200203 0.000288351 0)
(0.200106 0.000266821 0)
(0.200008 0.000246157 0)
(0.19991 0.000225651 0)
(0.199811 0.00020506 0)
(0.199714 0.000184385 0)
(0.199618 0.000164091 0)
(0.199527 0.000144457 0)
(0.199439 0.000125844 0)
(0.199356 0.000108159 0)
(0.199278 9.15648e-05 0)
(0.199206 7.59603e-05 0)
(0.199138 6.17256e-05 0)
(0.199077 4.88393e-05 0)
(0.19902 3.76747e-05 0)
(0.19897 2.78959e-05 0)
(0.198923 1.96278e-05 0)
(0.198883 1.22663e-05 0)
(0.198844 6.04262e-06 0)
(0.198812 4.22446e-07 0)
(0.198782 -4.03782e-06 0)
(0.198758 -7.8232e-06 0)
(0.198734 -1.01861e-05 0)
(0.198718 -1.18934e-05 0)
(0.198701 -1.21375e-05 0)
(0.198692 -1.21517e-05 0)
(0.198679 -1.08979e-05 0)
(0.198674 -1.01272e-05 0)
(0.198664 -8.20968e-06 0)
(0.198662 -7.55048e-06 0)
(0.198653 -5.55979e-06 0)
(0.197064 0.00550956 0)
(0.197305 0.00602993 0)
(0.197657 0.0065129 0)
(0.198115 0.00691852 0)
(0.198662 0.00720991 0)
(0.199264 0.00736297 0)
(0.19987 0.00737636 0)
(0.20043 0.0072721 0)
(0.200912 0.00708429 0)
(0.201304 0.00684718 0)
(0.201608 0.00658935 0)
(0.201835 0.00633183 0)
(0.202001 0.00608783 0)
(0.202123 0.00586351 0)
(0.202216 0.00565975 0)
(0.202291 0.00547371 0)
(0.202352 0.00530021 0)
(0.2024 0.00513503 0)
(0.202439 0.00497756 0)
(0.202469 0.00482889 0)
(0.202491 0.00468903 0)
(0.202507 0.00455758 0)
(0.20252 0.00443365 0)
(0.202531 0.00431377 0)
(0.202539 0.00419314 0)
(0.20254 0.00407025 0)
(0.202534 0.00394835 0)
(0.202523 0.00383179 0)
(0.202509 0.00372333 0)
(0.202496 0.00362453 0)
(0.202488 0.00353487 0)
(0.202487 0.00344897 0)
(0.202488 0.00335928 0)
(0.202489 0.00326363 0)
(0.202488 0.00316732 0)
(0.202487 0.00307564 0)
(0.202487 0.00298748 0)
(0.202487 0.00289747 0)
(0.202486 0.00280248 0)
(0.202481 0.00270414 0)
(0.202473 0.00260583 0)
(0.202463 0.00250907 0)
(0.20245 0.00241304 0)
(0.202435 0.00231661 0)
(0.202416 0.00221964 0)
(0.202395 0.00212239 0)
(0.20237 0.00202469 0)
(0.202341 0.00192594 0)
(0.202309 0.00182575 0)
(0.202274 0.00172426 0)
(0.202235 0.00162202 0)
(0.202192 0.00151972 0)
(0.202146 0.00141808 0)
(0.202096 0.00131799 0)
(0.202042 0.0012204 0)
(0.201983 0.00112596 0)
(0.201919 0.00103488 0)
(0.201849 0.000947299 0)
(0.201774 0.000863588 0)
(0.201696 0.000784345 0)
(0.201616 0.000710169 0)
(0.201536 0.000641663 0)
(0.201456 0.000579443 0)
(0.201378 0.000524179 0)
(0.201303 0.00047626 0)
(0.20123 0.000435545 0)
(0.201159 0.000401192 0)
(0.201087 0.000371997 0)
(0.201015 0.000346645 0)
(0.200941 0.000324046 0)
(0.200865 0.000303155 0)
(0.200786 0.000283058 0)
(0.200706 0.000262885 0)
(0.200624 0.00024222 0)
(0.200542 0.000221001 0)
(0.20046 0.000199669 0)
(0.200382 0.000178627 0)
(0.200305 0.000158318 0)
(0.200232 0.000138785 0)
(0.200162 0.000120201 0)
(0.200098 0.000102544 0)
(0.200037 8.61684e-05 0)
(0.199981 7.11856e-05 0)
(0.199929 5.79493e-05 0)
(0.199883 4.62855e-05 0)
(0.199838 3.62364e-05 0)
(0.1998 2.73258e-05 0)
(0.199763 1.95773e-05 0)
(0.199731 1.25897e-05 0)
(0.1997 6.69791e-06 0)
(0.199675 1.61378e-06 0)
(0.199649 -2.12762e-06 0)
(0.199631 -5.00029e-06 0)
(0.19961 -6.44272e-06 0)
(0.199598 -7.34381e-06 0)
(0.199582 -6.99731e-06 0)
(0.199575 -6.77383e-06 0)
(0.199561 -5.48372e-06 0)
(0.199558 -5.07264e-06 0)
(0.199545 -3.53569e-06 0)
(0.197399 0.00534599 0)
(0.197623 0.00579392 0)
(0.197933 0.00620889 0)
(0.198329 0.00656115 0)
(0.198797 0.00682379 0)
(0.199312 0.0069775 0)
(0.199836 0.00701754 0)
(0.200331 0.00695663 0)
(0.20077 0.00681888 0)
(0.201138 0.00663122 0)
(0.201433 0.00641811 0)
(0.201661 0.00619845 0)
(0.201835 0.00598443 0)
(0.201967 0.00578248 0)
(0.20207 0.00559486 0)
(0.202154 0.00542072 0)
(0.202223 0.005257 0)
(0.202278 0.00510072 0)
(0.202323 0.00495138 0)
(0.20236 0.00480955 0)
(0.202388 0.00467482 0)
(0.202409 0.00454665 0)
(0.202427 0.00442472 0)
(0.202442 0.00430673 0)
(0.202453 0.0041889 0)
(0.202458 0.00406986 0)
(0.202456 0.00395195 0)
(0.20245 0.00383829 0)
(0.202439 0.00373072 0)
(0.202428 0.00363046 0)
(0.20242 0.00353758 0)
(0.202419 0.0034486 0)
(0.202421 0.00335781 0)
(0.202423 0.00326289 0)
(0.202423 0.00316732 0)
(0.202422 0.00307527 0)
(0.202423 0.00298624 0)
(0.202426 0.00289614 0)
(0.202428 0.0028023 0)
(0.202427 0.00270566 0)
(0.202423 0.00260886 0)
(0.202417 0.00251324 0)
(0.20241 0.00241834 0)
(0.2024 0.00232324 0)
(0.202387 0.00222778 0)
(0.202372 0.00213212 0)
(0.202353 0.00203602 0)
(0.202332 0.00193885 0)
(0.202307 0.00184024 0)
(0.20228 0.00174025 0)
(0.20225 0.00163944 0)
(0.202216 0.0015386 0)
(0.20218 0.00143858 0)
(0.202141 0.00134027 0)
(0.202097 0.00124465 0)
(0.202049 0.00115239 0)
(0.201997 0.00106363 0)
(0.20194 0.000978206 0)
(0.201878 0.000896171 0)
(0.201813 0.000817965 0)
(0.201747 0.000744175 0)
(0.201679 0.000675422 0)
(0.201613 0.000612417 0)
(0.201548 0.000556022 0)
(0.201485 0.000506914 0)
(0.201424 0.000465233 0)
(0.201364 0.00043037 0)
(0.201304 0.000401196 0)
(0.201243 0.000376345 0)
(0.20118 0.000354548 0)
(0.201115 0.000334589 0)
(0.201046 0.000315343 0)
(0.200976 0.000295813 0)
(0.200904 0.000275424 0)
(0.200831 0.000254057 0)
(0.200758 0.000232094 0)
(0.200687 0.000210021 0)