/*--------------------------------*- C++ -*----------------------------------*\
| =========                 |                                                 |
| \\      /  F ield         | OpenFOAM: The Open Source CFD Toolbox           |
|  \\    /   O peration     | Version:  2.3.0                                 |
|   \\  /    A nd           | Web:      www.OpenFOAM.org                      |
|    \\/     M anipulation  |                                                 |
\*---------------------------------------------------------------------------*/
FoamFile
{
    version     2.0;
    format      ascii;
    class       surfaceScalarField;
    location    "0.75";
    object      phi;
}
// * * * * * * * * * * * * * * * * * * * * * * * * * * * * * * * * * * * * * //

dimensions      [0 3 -1 0 0 0 0];

internalField   nonuniform List<scalar> 
3203
(
3.95879e-08
3.60931e-09
-4.31972e-08
3.50011e-08
4.58685e-09
3.04305e-08
4.57055e-09
2.6125e-08
4.30554e-09
2.21122e-08
4.01277e-09
1.85143e-08
3.59788e-09
1.55045e-08
3.00985e-09
1.31626e-08
2.34191e-09
1.14728e-08
1.68981e-09
1.0313e-08
1.15974e-09
9.52526e-09
7.8775e-10
8.97745e-09
5.47816e-10
8.57635e-09
4.011e-10
8.25908e-09
3.17272e-10
7.98453e-09
2.74542e-10
7.73085e-09
2.53681e-10
7.48902e-09
2.41831e-10
7.25693e-09
2.32089e-10
7.03534e-09
2.21595e-10
6.82555e-09
2.09785e-10
6.62845e-09
1.97101e-10
6.44454e-09
1.83914e-10
6.27312e-09
1.71419e-10
6.11382e-09
1.59296e-10
5.9653e-09
1.48525e-10
5.82672e-09
1.38581e-10
5.69696e-09
1.29759e-10
5.57509e-09
1.21867e-10
5.4603e-09
1.14792e-10
5.35189e-09
1.08411e-10
5.24914e-09
1.02751e-10
5.15185e-09
9.72856e-11
5.05908e-09
9.27668e-11
4.97097e-09
8.81157e-11
4.88682e-09
8.41492e-11
4.80646e-09
8.03629e-11
4.72976e-09
7.66985e-11
4.65623e-09
7.35269e-11
4.58574e-09
7.04867e-11
4.51842e-09
6.73246e-11
4.45351e-09
6.49082e-11
4.39132e-09
6.21944e-11
4.33162e-09
5.97016e-11
4.27394e-09
5.76734e-11
4.2187e-09
5.52463e-11
4.16528e-09
5.34191e-11
4.11384e-09
5.144e-11
4.06424e-09
4.95956e-11
4.01643e-09
4.78069e-11
3.96983e-09
4.66014e-11
3.92543e-09
4.44019e-11
3.88176e-09
4.36678e-11
3.83974e-09
4.20261e-11
3.79861e-09
4.11279e-11
3.75928e-09
3.93311e-11
3.71941e-09
3.98701e-11
3.68187e-09
3.75388e-11
3.64337e-09
3.8496e-11
3.60668e-09
3.669e-11
4.1828e-11
4.67201e-08
3.26592e-09
-4.63767e-08
4.64279e-08
4.87905e-09
4.54702e-08
5.52828e-09
4.41605e-08
5.61524e-09
4.26159e-08
5.55737e-09
4.08528e-08
5.36096e-09
3.89122e-08
4.95041e-09
3.69059e-08
4.34823e-09
3.49497e-08
3.64598e-09
3.31289e-08
2.98056e-09
3.1472e-08
2.4447e-09
2.99703e-08
2.04946e-09
2.86136e-08
1.75787e-09
2.73938e-08
1.53703e-09
2.62947e-08
1.37364e-09
2.53006e-08
1.2478e-09
2.4397e-08
1.14544e-09
2.35716e-08
1.05741e-09
2.28142e-08
9.79008e-10
2.21165e-08
9.07566e-10
2.14713e-08
8.42254e-10
2.08734e-08
7.81842e-10
2.03173e-08
7.27473e-10
1.97994e-08
6.77258e-10
1.93151e-08
6.32745e-10
1.88617e-08
5.92006e-10
1.84357e-08
5.55763e-10
1.80347e-08
5.22828e-10
1.76562e-08
4.93333e-10
1.72984e-08
4.66243e-10
1.6959e-08
4.42079e-10
1.66373e-08
4.19029e-10
1.63309e-08
3.99144e-10
1.60397e-08
3.79386e-10
1.57616e-08
3.62236e-10
1.54964e-08
3.45516e-10
1.52428e-08
3.30294e-10
1.50005e-08
3.15884e-10
1.4768e-08
3.02934e-10
1.45459e-08
2.89428e-10
1.43321e-08
2.78673e-10
1.41277e-08
2.66643e-10
1.39308e-08
2.56598e-10
1.3742e-08
2.46437e-10
1.35601e-08
2.37204e-10
1.33857e-08
2.27829e-10
1.3217e-08
2.20136e-10
1.30556e-08
2.10981e-10
1.28991e-08
2.0433e-10
1.27492e-08
1.96478e-10
1.26038e-08
1.89749e-10
1.24646e-08
1.82931e-10
1.23287e-08
1.77885e-10
1.21991e-08
1.70695e-10
1.20721e-08
1.66373e-10
1.19502e-08
1.61798e-10
1.18304e-08
1.57316e-10
1.1715e-08
1.53878e-10
1.15999e-08
1.51846e-10
1.56079e-10
4.92818e-08
3.0769e-09
-4.90928e-08
4.97542e-08
4.40666e-09
4.99574e-08
5.325e-09
4.99542e-08
5.61852e-09
4.98293e-08
5.68222e-09
4.9561e-08
5.62927e-09
4.90902e-08
5.42121e-09
4.84158e-08
5.02266e-09
4.75803e-08
4.4814e-09
4.66503e-08
3.9106e-09
4.56797e-08
3.41524e-09
4.46968e-08
3.03243e-09
4.3711e-08
2.74361e-09
4.27298e-08
2.51831e-09
4.1762e-08
2.34136e-09
4.08134e-08
2.19647e-09
3.98863e-08
2.07248e-09
3.89832e-08
1.96053e-09
3.81052e-08
1.85699e-09
3.7254e-08
1.75882e-09
3.64303e-08
1.66595e-09
3.56355e-08
1.57668e-09
3.48695e-08
1.4934e-09
3.41334e-08
1.41339e-09
3.34262e-08
1.3399e-09
3.27484e-08
1.26987e-09
3.20984e-08
1.20578e-09
3.14761e-08
1.14513e-09
3.08796e-08
1.08975e-09
3.03088e-08
1.03705e-09
2.97615e-08
9.8938e-10
2.92377e-08
9.42892e-10
2.87347e-08
9.02065e-10
2.82531e-08
8.61e-10
2.77901e-08
8.25223e-10
2.73464e-08
7.89237e-10
2.69193e-08
7.5744e-10
2.65096e-08
7.25599e-10
2.61145e-08
6.9803e-10
2.57356e-08
6.68333e-10
2.53693e-08
6.44942e-10
2.50181e-08
6.17807e-10
2.46782e-08
5.9657e-10
2.43522e-08
5.72417e-10
2.4036e-08
5.53372e-10
2.37333e-08
5.30558e-10
2.34389e-08
5.14553e-10
2.31575e-08
4.92333e-10
2.28831e-08
4.78759e-10
2.26216e-08
4.57994e-10
2.23656e-08
4.45696e-10
2.21223e-08
4.26282e-10
2.18832e-08
4.17001e-10
2.16569e-08
3.96953e-10
2.1433e-08
3.90296e-10
2.12215e-08
3.73252e-10
2.10114e-08
3.67405e-10
2.08124e-08
3.52862e-10
2.06128e-08
3.51488e-10
3.46671e-10
5.19722e-08
3.01392e-09
-5.19092e-08
5.23562e-08
4.02264e-09
5.27541e-08
4.92709e-09
5.30296e-08
5.343e-09
5.32566e-08
5.45531e-09
5.3451e-08
5.43487e-09
5.35628e-08
5.30933e-09
5.35458e-08
5.0397e-09
5.33874e-08
4.63978e-09
5.31132e-08
4.18481e-09
5.27627e-08
3.7658e-09
5.23648e-08
3.43025e-09
5.19294e-08
3.179e-09
5.1461e-08
2.98678e-09
5.09659e-08
2.83647e-09
5.04501e-08
2.71225e-09
4.99162e-08
2.60639e-09
4.9367e-08
2.50972e-09
4.88038e-08
2.42016e-09
4.82292e-08
2.33345e-09
4.76447e-08
2.25038e-09
4.70534e-08
2.168e-09
4.64568e-08
2.09e-09
4.58583e-08
2.01195e-09
4.52587e-08
1.93946e-09
4.46615e-08
1.86704e-09
4.4067e-08
1.80033e-09
4.34783e-08
1.73384e-09
4.28951e-08
1.67289e-09
4.23203e-08
1.61184e-09
4.17533e-08
1.55644e-09
4.11965e-08
1.49963e-09
4.06487e-08
1.4499e-09
4.01129e-08
1.39682e-09
3.95865e-08
1.35165e-09
3.90731e-08
1.30255e-09
3.85696e-08
1.26096e-09
3.80796e-08
1.21565e-09
3.75995e-08
1.17811e-09
3.71333e-08
1.13448e-09
3.66765e-08
1.10183e-09
3.62342e-08
1.06006e-09
3.58004e-08
1.03042e-09
3.53814e-08
9.91352e-10
3.49702e-08
9.64558e-10
3.4574e-08
9.26789e-10
3.41849e-08
9.03702e-10
3.3811e-08
8.66207e-10
3.34426e-08
8.47141e-10
3.30906e-08
8.10035e-10
3.27428e-08
7.9344e-10
3.2411e-08
7.58127e-10
3.20828e-08
7.45173e-10
3.17714e-08
7.08396e-10
3.14611e-08
7.00505e-10
3.11678e-08
6.66637e-10
3.08753e-08
6.5982e-10
3.0598e-08
6.30228e-10
3.03194e-08
6.30073e-10
6.10058e-10
5.48241e-08
2.97325e-09
-5.47834e-08
5.50936e-08
3.75306e-09
5.54805e-08
4.54024e-09
5.5807e-08
5.01652e-09
5.60781e-08
5.18415e-09
5.63352e-08
5.17773e-09
5.65659e-08
5.07871e-09
5.67318e-08
4.87374e-09
5.68054e-08
4.56617e-09
5.67898e-08
4.20051e-09
5.67118e-08
3.84377e-09
5.65967e-08
3.54535e-09
5.64548e-08
3.32088e-09
5.62899e-08
3.15171e-09
5.61037e-08
3.02271e-09
5.58998e-08
2.91615e-09
5.56785e-08
2.82767e-09
5.54412e-08
2.74699e-09
5.51869e-08
2.67448e-09
5.49163e-08
2.60406e-09
5.46285e-08
2.53811e-09
5.43252e-08
2.47135e-09
5.40055e-08
2.40967e-09
5.36722e-08
2.34524e-09
5.33243e-08
2.28742e-09
5.29651e-08
2.22616e-09
5.25935e-08
2.17203e-09
5.22129e-08
2.1144e-09
5.18222e-08
2.06363e-09
5.14248e-08
2.00916e-09
5.10195e-08
1.96179e-09
5.061e-08
1.90908e-09
5.0194e-08
1.86593e-09
4.97767e-08
1.81413e-09
4.93541e-08
1.77425e-09
4.89324e-08
1.72425e-09
4.85072e-08
1.68617e-09
4.80843e-08
1.63853e-09
4.76595e-08
1.60294e-09
4.72391e-08
1.55484e-09
4.68171e-08
1.52384e-09
4.6402e-08
1.47512e-09
4.59856e-08
1.44684e-09
4.55775e-08
1.39943e-09
4.51691e-08
1.37296e-09
4.47701e-08
1.32586e-09
4.43712e-08
1.30255e-09
4.39835e-08
1.25391e-09
4.35951e-08
1.23556e-09
4.32196e-08
1.18551e-09
4.28439e-08
1.16915e-09
4.2481e-08
1.12101e-09
4.21182e-08
1.10796e-09
4.17701e-08
1.0565e-09
4.14204e-08
1.05029e-09
4.10855e-08
1.0015e-09
4.075e-08
9.95328e-10
4.04283e-08
9.51959e-10
4.0104e-08
9.54354e-10
9.19063e-10
5.78036e-08
2.92195e-09
-5.77523e-08
5.80018e-08
3.55488e-09
5.83359e-08
4.2061e-09
5.86642e-08
4.68824e-09
5.89405e-08
4.90784e-09
5.91872e-08
4.93101e-09
5.94164e-08
4.84952e-09
5.96071e-08
4.68302e-09
5.97346e-08
4.43867e-09
5.97939e-08
4.14122e-09
5.98003e-08
3.83739e-09
5.97775e-08
3.56818e-09
5.97378e-08
3.36056e-09
5.96872e-08
3.20227e-09
5.9626e-08
3.08393e-09
5.95569e-08
2.98528e-09
5.94793e-08
2.90521e-09
5.93949e-08
2.8314e-09
5.93018e-08
2.76758e-09
5.92007e-08
2.7052e-09
5.90891e-08
2.64973e-09
5.89683e-08
2.59217e-09
5.88355e-08
2.54243e-09
5.86933e-08
2.48747e-09
5.85386e-08
2.44212e-09
5.83746e-08
2.39013e-09
5.81982e-08
2.34845e-09
5.80127e-08
2.29986e-09
5.78151e-08
2.2612e-09
5.76091e-08
2.21514e-09
5.73914e-08
2.17955e-09
5.71663e-08
2.13413e-09
5.69294e-08
2.10287e-09
5.66866e-08
2.05689e-09
5.64323e-08
2.02854e-09
5.61732e-08
1.98336e-09
5.59037e-08
1.95565e-09
5.56301e-08
1.91219e-09
5.53467e-08
1.88628e-09
5.50611e-08
1.84047e-09
5.47658e-08
1.81916e-09
5.44704e-08
1.77055e-09
5.41659e-08
1.7513e-09
5.38621e-08
1.70324e-09
5.35505e-08
1.6845e-09
5.32406e-08
1.63583e-09
5.29239e-08
1.61923e-09
5.26109e-08
1.56689e-09
5.22912e-08
1.5553e-09
5.19763e-08
1.50039e-09
5.16559e-08
1.48957e-09
5.13405e-08
1.43634e-09
5.10211e-08
1.42744e-09
5.07085e-08
1.36902e-09
5.03913e-08
1.36757e-09
5.0081e-08
1.31175e-09
4.97679e-08
1.3084e-09
4.94612e-08
1.2587e-09
4.91511e-08
1.26448e-09
1.22129e-09
6.0911e-08
2.85975e-09
-6.08488e-08
6.10719e-08
3.39395e-09
6.13479e-08
3.93016e-09
6.16559e-08
4.38023e-09
6.19315e-08
4.63223e-09
6.2168e-08
4.69444e-09
6.23805e-08
4.63703e-09
6.25632e-08
4.50033e-09
6.26986e-08
4.30326e-09
6.27796e-08
4.0602e-09
6.28124e-08
3.80459e-09
6.28163e-08
3.56436e-09
6.28053e-08
3.37156e-09
6.27878e-08
3.21971e-09
6.27645e-08
3.10722e-09
6.27381e-08
3.01168e-09
6.27078e-08
2.9355e-09
6.2676e-08
2.86327e-09
6.26409e-08
2.80266e-09
6.26042e-08
2.74188e-09
6.25631e-08
2.69088e-09
6.25195e-08
2.63578e-09
6.24699e-08
2.59201e-09
6.24171e-08
2.54029e-09
6.23576e-08
2.50162e-09
6.22944e-08
2.45329e-09
6.22239e-08
2.41891e-09
6.21495e-08
2.3743e-09
6.20671e-08
2.34358e-09
6.19806e-08
2.30164e-09
6.18857e-08
2.27452e-09
6.17868e-08
2.233e-09
6.16785e-08
2.21113e-09
6.15665e-08
2.16889e-09
6.14449e-08
2.1502e-09
6.13191e-08
2.10912e-09
6.11842e-08
2.09058e-09
6.10449e-08
2.05143e-09
6.0896e-08
2.03522e-09
6.07436e-08
1.99283e-09
6.0581e-08
1.98183e-09
6.04156e-08
1.93588e-09
6.02407e-08
1.92624e-09
6.00628e-08
1.88115e-09
5.9876e-08
1.87129e-09
5.96858e-08
1.82601e-09
5.94875e-08
1.81759e-09
5.92871e-08
1.7673e-09
5.9079e-08
1.76339e-09
5.88693e-08
1.71008e-09
5.86523e-08
1.70656e-09
5.84325e-08
1.6561e-09
5.82081e-08
1.65188e-09
5.79822e-08
1.59489e-09
5.7751e-08
1.59879e-09
5.75182e-08
1.54458e-09
5.72823e-08
1.54427e-09
5.70432e-08
1.49776e-09
5.68013e-08
1.50641e-09
1.4647e-09
6.41572e-08
2.79307e-09
-6.40905e-08
6.42988e-08
3.25239e-09
6.45255e-08
3.7034e-09
6.48029e-08
4.10289e-09
6.5069e-08
4.3661e-09
6.52999e-08
4.4635e-09
6.54993e-08
4.43773e-09
6.56701e-08
4.3295e-09
6.58031e-08
4.17021e-09
6.58924e-08
3.97094e-09
6.59385e-08
3.75851e-09
6.59544e-08
3.54846e-09
6.59537e-08
3.37225e-09
6.59465e-08
3.22694e-09
6.59344e-08
3.11931e-09
6.59203e-08
3.02571e-09
6.59034e-08
2.95245e-09
6.5886e-08
2.88064e-09
6.5867e-08
2.82165e-09
6.58488e-08
2.76013e-09
6.58286e-08
2.71107e-09
6.58089e-08
2.65542e-09
6.57867e-08
2.61427e-09
6.57642e-08
2.56274e-09
6.5739e-08
2.52687e-09
6.57133e-08
2.47893e-09
6.56843e-08
2.4479e-09
6.5655e-08
2.40361e-09
6.56218e-08
2.37682e-09
6.5588e-08
2.33546e-09
6.55498e-08
2.31267e-09
6.55111e-08
2.2717e-09
6.54673e-08
2.25494e-09
6.54226e-08
2.21364e-09
6.53727e-08
2.20006e-09
6.53207e-08
2.1611e-09
6.52641e-08
2.14721e-09
6.52051e-08
2.11043e-09
6.51402e-08
2.10014e-09
6.50733e-08
2.05971e-09
6.49999e-08
2.05525e-09
6.49238e-08
2.01193e-09
6.48422e-08
2.00787e-09
6.4757e-08
1.96638e-09
6.46668e-08
1.96151e-09
6.45715e-08
1.92128e-09
6.44712e-08
1.91789e-09
6.43664e-08
1.87211e-09
6.42567e-08
1.8731e-09
6.41431e-08
1.82361e-09
6.40251e-08
1.8246e-09
6.38991e-08
1.78208e-09
6.37712e-08
1.77978e-09
6.36378e-08
1.72833e-09
6.35004e-08
1.7361e-09
6.33564e-08
1.68865e-09
6.32117e-08
1.68897e-09
6.3058e-08
1.65144e-09
6.29023e-08
1.66212e-09
1.62724e-09
6.75546e-08
2.72593e-09
-6.74875e-08
6.76824e-08
3.1246e-09
6.78742e-08
3.51165e-09
6.81177e-08
3.85931e-09
6.83665e-08
4.11735e-09
6.85907e-08
4.23925e-09
6.87815e-08
4.24699e-09
6.89422e-08
4.16875e-09
6.90703e-08
4.04211e-09
6.91626e-08
3.87861e-09
6.92178e-08
3.70338e-09
6.92433e-08
3.52295e-09
6.92499e-08
3.36565e-09
6.92483e-08
3.22855e-09
6.92413e-08
3.12625e-09
6.92323e-08
3.03473e-09
6.92204e-08
2.96438e-09
6.92075e-08
2.89353e-09
6.9193e-08
2.8362e-09
6.91792e-08
2.77386e-09
6.91643e-08
2.72596e-09
6.91505e-08
2.66929e-09
6.91355e-08
2.62923e-09
6.91208e-08
2.57741e-09
6.91053e-08
2.54238e-09
6.90902e-08
2.49402e-09
6.90738e-08
2.46438e-09
6.90582e-08
2.41917e-09
6.90411e-08
2.39393e-09
6.90246e-08
2.35193e-09
6.90066e-08
2.33073e-09
6.89892e-08
2.28905e-09
6.897e-08
2.27419e-09
6.89507e-08
2.23285e-09
6.89304e-08
2.22039e-09
6.89086e-08
2.18293e-09
6.8886e-08
2.1698e-09
6.88624e-08
2.13401e-09
6.88364e-08
2.12614e-09
6.88098e-08
2.08634e-09
6.87808e-08
2.08424e-09
6.87494e-08
2.04331e-09
6.8717e-08
2.04033e-09
6.8681e-08
2.00231e-09
6.86447e-08
1.99782e-09
6.86036e-08
1.96236e-09
6.85613e-08
1.96018e-09
6.85148e-08
1.91865e-09
6.84662e-08
1.92172e-09
6.8414e-08
1.87585e-09
6.8362e-08
1.87657e-09
6.83003e-08
1.84372e-09
6.82392e-08
1.84095e-09
6.81732e-08
1.79432e-09
6.81053e-08
1.80398e-09
6.80291e-08
1.76485e-09
6.79549e-08
1.76319e-09
6.78717e-08
1.73462e-09
6.77869e-08
1.74691e-09
1.71946e-09
7.11136e-08
2.65999e-09
-7.10477e-08
7.12298e-08
3.00843e-09
7.13968e-08
3.34465e-09
7.16087e-08
3.64737e-09
7.18357e-08
3.89034e-09
7.20492e-08
4.02577e-09
7.22332e-08
4.06304e-09
7.23865e-08
4.01545e-09
7.25095e-08
3.91913e-09
7.2602e-08
3.78606e-09
7.26631e-08
3.64226e-09
7.26969e-08
3.48921e-09
7.27106e-08
3.35196e-09
7.27139e-08
3.22518e-09
7.2711e-08
3.12912e-09
7.27055e-08
3.04032e-09
7.2697e-08
2.97287e-09
7.26867e-08
2.90379e-09
7.26744e-08
2.8485e-09
7.26622e-08
2.78605e-09
7.26491e-08
2.73903e-09
7.26365e-08
2.68191e-09
7.26236e-08
2.64211e-09
7.26105e-08
2.5905e-09
7.25976e-08
2.55533e-09
7.25849e-08
2.50672e-09
7.25716e-08
2.47763e-09
7.25593e-08
2.43154e-09
7.25466e-08
2.40664e-09
7.25344e-08
2.36407e-09
7.25221e-08
2.34301e-09
7.25105e-08
2.30073e-09
7.24988e-08
2.28584e-09
7.24868e-08
2.24482e-09
7.24762e-08
2.23101e-09
7.24639e-08
2.19528e-09
7.24527e-08
2.18093e-09
7.24413e-08
2.14545e-09
7.24293e-08
2.13813e-09
7.24172e-08
2.09847e-09
7.24055e-08
2.09594e-09
7.23913e-08
2.05748e-09
7.23789e-08
2.05278e-09
7.23632e-08
2.018e-09
7.23497e-08
2.01129e-09
7.23326e-08
1.97947e-09
7.23163e-08
1.97642e-09
7.22974e-08
1.93758e-09
7.22778e-08
1.94129e-09
7.22551e-08
1.8986e-09
7.22361e-08
1.89557e-09
7.22088e-08
1.87098e-09
7.21822e-08
1.86755e-09
7.21533e-08
1.82324e-09
7.21243e-08
1.83301e-09
7.20875e-08
1.80165e-09
7.20532e-08
1.79742e-09
7.20135e-08
1.77438e-09
7.19724e-08
1.78797e-09
1.7663e-09
7.4844e-08
2.59575e-09
-7.47798e-08
7.495e-08
2.90241e-09
7.50978e-08
3.19685e-09
7.52827e-08
3.46251e-09
7.54867e-08
3.68634e-09
7.56856e-08
3.82689e-09
7.58618e-08
3.88679e-09
7.60094e-08
3.86788e-09
7.61281e-08
3.80041e-09
7.62195e-08
3.69465e-09
7.6284e-08
3.57775e-09
7.63241e-08
3.44912e-09
7.63446e-08
3.33152e-09
7.63529e-08
3.21683e-09
7.6354e-08
3.12808e-09
7.63514e-08
3.04291e-09
7.63459e-08
2.97834e-09
7.6338e-08
2.91167e-09
7.63278e-08
2.85871e-09
7.63168e-08
2.79707e-09
7.63051e-08
2.75075e-09
7.6293e-08
2.69398e-09
7.62811e-08
2.65397e-09
7.62686e-08
2.60307e-09
7.62565e-08
2.5674e-09
7.62444e-08
2.5188e-09
7.62321e-08
2.48991e-09
7.62204e-08
2.44328e-09
7.62089e-08
2.41815e-09
7.61976e-08
2.37533e-09
7.61869e-08
2.35371e-09
7.61763e-08
2.31134e-09
7.61668e-08
2.29533e-09
7.61564e-08
2.25529e-09
7.61483e-08
2.23905e-09
7.61386e-08
2.20505e-09
7.61303e-08
2.18914e-09
7.61223e-08
2.15352e-09
7.61144e-08
2.14605e-09
7.61063e-08
2.10657e-09
7.60999e-08
2.10227e-09
7.60912e-08
2.06624e-09
7.60851e-08
2.0589e-09
7.60762e-08
2.02686e-09
7.607e-08
2.0175e-09
7.60615e-08
1.98791e-09
7.60543e-08
1.98366e-09
7.60459e-08
1.94597e-09
7.60375e-08
1.9497e-09
7.6026e-08
1.91012e-09
7.6019e-08
1.90253e-09
7.6007e-08
1.88305e-09
7.59946e-08
1.87991e-09
7.59813e-08
1.8365e-09
7.59693e-08
1.84508e-09
7.59512e-08
1.81969e-09
7.59343e-08
1.81439e-09
7.59152e-08
1.79344e-09
7.58955e-08
1.80769e-09
1.79e-09
7.87554e-08
2.53346e-09
-7.86932e-08
7.88524e-08
2.80544e-09
7.89841e-08
3.06517e-09
7.91463e-08
3.30028e-09
7.9328e-08
3.50461e-09
7.95101e-08
3.64481e-09
7.96766e-08
3.72027e-09
7.98186e-08
3.72588e-09
7.99339e-08
3.68519e-09
8.00237e-08
3.60485e-09
8.00897e-08
3.51171e-09
8.01342e-08
3.40463e-09
8.01604e-08
3.30531e-09
8.01736e-08
3.20359e-09
8.01786e-08
3.12317e-09
8.01788e-08
3.04264e-09
8.01761e-08
2.9811e-09
8.01705e-08
2.91721e-09
8.01625e-08
2.86675e-09
8.01528e-08
2.80676e-09
8.01425e-08
2.76108e-09
8.01311e-08
2.70536e-09
8.012e-08
2.66505e-09
8.0108e-08
2.61504e-09
8.00965e-08
2.57892e-09
8.00849e-08
2.53044e-09
8.00732e-08
2.50157e-09
8.00618e-08
2.45474e-09
8.00507e-08
2.42916e-09
8.00398e-08
2.38628e-09
8.00297e-08
2.36384e-09
8.00192e-08
2.3218e-09
8.00104e-08
2.30411e-09
8.00003e-08
2.26538e-09
7.99927e-08
2.24667e-09
7.99839e-08
2.21386e-09
7.99762e-08
2.19686e-09
7.99689e-08
2.16078e-09
7.99621e-08
2.15287e-09
7.99549e-08
2.11375e-09
7.99499e-08
2.10733e-09
7.99428e-08
2.07335e-09
7.99381e-08
2.0636e-09
7.99314e-08
2.0335e-09
7.99267e-08
2.02222e-09
7.99211e-08
1.99356e-09
7.99162e-08
1.98852e-09
7.9911e-08
1.95118e-09
7.99063e-08
1.95438e-09
7.98986e-08
1.91779e-09
7.98942e-08
1.907e-09
7.98879e-08
1.88932e-09
7.98808e-08
1.88703e-09
7.98725e-08
1.84481e-09
7.9866e-08
1.85154e-09
7.98559e-08
1.82978e-09
7.98448e-08
1.82554e-09
7.98334e-08
1.80485e-09
7.98221e-08
1.81892e-09
1.80392e-09
8.28577e-08
2.47359e-09
-8.27979e-08
8.29464e-08
2.71674e-09
8.3064e-08
2.94759e-09
8.3207e-08
3.15726e-09
8.33682e-08
3.34348e-09
8.35328e-08
3.48016e-09
8.36877e-08
3.56539e-09
8.38231e-08
3.59044e-09
8.39348e-08
3.57348e-09
8.4023e-08
3.5167e-09
8.40894e-08
3.44529e-09
8.41366e-08
3.35747e-09
8.41672e-08
3.27474e-09
8.41848e-08
3.18593e-09
8.41935e-08
3.11448e-09
8.41966e-08
3.03957e-09
8.41962e-08
2.98143e-09
8.41929e-08
2.92057e-09
8.4187e-08
2.87262e-09
8.41789e-08
2.81491e-09
8.417e-08
2.76999e-09
8.41595e-08
2.71578e-09
8.41492e-08
2.67536e-09
8.41381e-08
2.6262e-09
8.41271e-08
2.58987e-09
8.4116e-08
2.54157e-09
8.41049e-08
2.51261e-09
8.40939e-08
2.4658e-09
8.40833e-08
2.43979e-09
8.40727e-08
2.39686e-09
8.4063e-08
2.37356e-09
8.40526e-08
2.33211e-09
8.40442e-08
2.31252e-09
8.40345e-08
2.27507e-09
8.40268e-08
2.2544e-09
8.40187e-08
2.22197e-09
8.4011e-08
2.2045e-09
8.4004e-08
2.16781e-09
8.39976e-08
2.15926e-09
8.39907e-08
2.12066e-09
8.39858e-08
2.11227e-09
8.39794e-08
2.07971e-09
8.39748e-08
2.06821e-09
8.39691e-08
2.0392e-09
8.39644e-08
2.02693e-09
8.39597e-08
1.99828e-09
8.39554e-08
1.99285e-09
8.39508e-08
1.95575e-09
8.39473e-08
1.9579e-09
8.39412e-08
1.92383e-09
8.39363e-08
1.91193e-09
8.39319e-08
1.8937e-09
8.3927e-08
1.89198e-09
8.39197e-08
1.85206e-09
8.39144e-08
1.85688e-09
8.39076e-08
1.83655e-09
8.38982e-08
1.83497e-09
8.38889e-08
1.81414e-09
8.38805e-08
1.82732e-09
1.81422e-09
8.71611e-08
2.41665e-09
-8.71041e-08
8.7242e-08
2.6358e-09
8.7347e-08
2.84263e-09
8.74733e-08
3.03095e-09
8.76157e-08
3.20105e-09
8.77634e-08
3.33252e-09
8.79054e-08
3.42336e-09
8.80328e-08
3.46301e-09
8.81402e-08
3.46605e-09
8.82265e-08
3.43049e-09
8.82926e-08
3.37917e-09
8.83411e-08
3.30891e-09
8.83747e-08
3.24122e-09
8.83959e-08
3.16472e-09
8.8408e-08
3.10232e-09
8.84138e-08
3.0338e-09
8.84156e-08
2.97959e-09
8.84143e-08
2.92192e-09
8.84105e-08
2.87641e-09
8.8404e-08
2.82138e-09
8.83965e-08
2.77745e-09
8.83873e-08
2.72504e-09
8.83778e-08
2.68481e-09
8.83676e-08
2.6364e-09
8.83574e-08
2.60015e-09
8.83468e-08
2.55211e-09
8.83364e-08
2.52298e-09
8.8326e-08
2.47629e-09
8.83158e-08
2.44997e-09
8.83057e-08
2.40694e-09
8.82964e-08
2.38286e-09
8.82864e-08
2.34208e-09
8.82783e-08
2.32066e-09
8.82691e-08
2.2842e-09
8.82613e-08
2.26224e-09
8.82538e-08
2.22948e-09
8.82463e-08
2.21199e-09
8.82394e-08
2.17467e-09
8.82334e-08
2.16534e-09
8.82267e-08
2.12726e-09
8.82217e-08
2.1173e-09
8.82159e-08
2.08553e-09
8.82112e-08
2.07291e-09
8.82061e-08
2.04435e-09
8.82012e-08
2.03175e-09
8.81969e-08
2.0026e-09
8.81928e-08
1.99696e-09
8.81882e-08
1.96032e-09
8.81851e-08
1.96107e-09
8.81801e-08
1.92882e-09
8.81744e-08
1.91756e-09
8.81705e-08
1.89762e-09
8.81667e-08
1.89581e-09
8.81596e-08
1.85912e-09
8.81542e-08
1.86233e-09
8.81488e-08
1.8419e-09
8.81401e-08
1.84368e-09
8.81314e-08
1.82289e-09
8.81239e-08
1.83482e-09
1.82313e-09
9.16761e-08
2.36347e-09
-9.16229e-08
9.17494e-08
2.56248e-09
9.18429e-08
2.74913e-09
9.19544e-08
2.91942e-09
9.208e-08
3.07552e-09
9.22115e-08
3.201e-09
9.23401e-08
3.29473e-09
9.24582e-08
3.34491e-09
9.25601e-08
3.36416e-09
9.26436e-08
3.34699e-09
9.27088e-08
3.31397e-09
9.27578e-08
3.25988e-09
9.27931e-08
3.20597e-09
9.28168e-08
3.14101e-09
9.28318e-08
3.08731e-09
9.284e-08
3.02556e-09
9.28438e-08
2.9758e-09
9.28443e-08
2.92148e-09
9.28424e-08
2.87832e-09
9.28376e-08
2.82613e-09
9.28316e-08
2.78348e-09
9.28236e-08
2.73302e-09
9.28152e-08
2.69327e-09
9.2806e-08
2.64555e-09
9.27965e-08
2.60963e-09
9.27868e-08
2.5619e-09
9.27771e-08
2.53264e-09
9.27673e-08
2.48606e-09
9.27577e-08
2.4596e-09
9.27482e-08
2.41641e-09
9.27394e-08
2.3917e-09
9.273e-08
2.35152e-09
9.27221e-08
2.3285e-09
9.27136e-08
2.29268e-09
9.27059e-08
2.26997e-09
9.26989e-08
2.23649e-09
9.26917e-08
2.21916e-09
9.26851e-08
2.18128e-09
9.26793e-08
2.17115e-09
9.26731e-08
2.13348e-09
9.26681e-08
2.12233e-09
9.26627e-08
2.0909e-09
9.26581e-08
2.07756e-09
9.26533e-08
2.04907e-09
9.26486e-08
2.03651e-09
9.26445e-08
2.00666e-09
9.26407e-08
2.00082e-09
9.26361e-08
1.96488e-09
9.2633e-08
1.96419e-09
9.26287e-08
1.93305e-09
9.26229e-08
1.92336e-09
9.2619e-08
1.90153e-09
9.26158e-08
1.89907e-09
9.2609e-08
1.86588e-09
9.26034e-08
1.86791e-09
9.25987e-08
1.84668e-09
9.25905e-08
1.85179e-09
9.25822e-08
1.83128e-09
9.25751e-08
1.84193e-09
1.83135e-09
9.79406e-08
2.31394e-09
-9.78911e-08
9.80076e-08
2.49547e-09
9.80921e-08
2.66471e-09
9.81918e-08
2.81965e-09
9.83037e-08
2.96362e-09
9.84218e-08
3.0829e-09
9.85386e-08
3.17797e-09
9.86478e-08
3.23567e-09
9.87442e-08
3.26781e-09
9.88249e-08
3.26629e-09
9.88893e-08
3.2496e-09
9.89386e-08
3.21051e-09
9.89751e-08
3.1695e-09
9.90007e-08
3.11545e-09
9.9018e-08
3.06997e-09
9.90285e-08
3.01507e-09
9.90342e-08
2.97012e-09
9.90363e-08
2.91936e-09
9.9036e-08
2.87855e-09
9.90329e-08
2.82922e-09
9.90283e-08
2.78815e-09
9.90216e-08
2.7397e-09
9.90142e-08
2.7007e-09
9.9006e-08
2.65371e-09
9.89973e-08
2.61832e-09
9.89883e-08
2.57095e-09
9.89793e-08
2.54163e-09
9.89702e-08
2.49512e-09
9.89611e-08
2.46867e-09
9.89523e-08
2.42528e-09
9.89439e-08
2.40007e-09
9.8935e-08
2.36038e-09
9.89275e-08
2.33605e-09
9.89196e-08
2.30059e-09
9.89121e-08
2.27746e-09
9.89055e-08
2.24311e-09
9.88987e-08
2.22598e-09
9.88923e-08
2.18759e-09
9.88868e-08
2.17671e-09
9.88809e-08
2.13932e-09
9.8876e-08
2.12725e-09
9.8871e-08
2.09594e-09
9.88664e-08
2.08212e-09
9.8862e-08
2.05345e-09
9.88575e-08
2.04107e-09
9.88535e-08
2.0106e-09
9.88499e-08
2.00442e-09
9.88455e-08
1.96929e-09
9.88423e-08
1.9674e-09
9.88386e-08
1.9368e-09
9.8833e-08
1.92891e-09
9.8829e-08
1.90553e-09
9.8826e-08
1.90213e-09
9.88196e-08
1.87224e-09
9.88141e-08
1.87341e-09
9.88094e-08
1.85132e-09
9.88018e-08
1.85941e-09
9.87939e-08
1.83921e-09
9.87871e-08
1.84875e-09
1.83911e-09
1.1002e-07
2.26387e-09
-1.0997e-07
1.10085e-07
2.43045e-09
1.10165e-07
2.58485e-09
1.10258e-07
2.72658e-09
1.10362e-07
2.86003e-09
1.10472e-07
2.97311e-09
1.10581e-07
3.06876e-09
1.10685e-07
3.13207e-09
1.10778e-07
3.17468e-09
1.10857e-07
3.18663e-09
1.10922e-07
3.18466e-09
1.10973e-07
3.1597e-09
1.11011e-07
3.13111e-09
1.11039e-07
3.0877e-09
1.11059e-07
3.0502e-09
1.11072e-07
3.00216e-09
1.1108e-07
2.96231e-09
1.11084e-07
2.91538e-09
1.11085e-07
2.8771e-09
1.11084e-07
2.8307e-09
1.1108e-07
2.79151e-09
1.11075e-07
2.74521e-09
1.11068e-07
2.70721e-09
1.11061e-07
2.66111e-09
1.11053e-07
2.62642e-09
1.11044e-07
2.57943e-09
1.11036e-07
2.55021e-09
1.11027e-07
2.50369e-09
1.11018e-07
2.47736e-09
1.1101e-07
2.43379e-09
1.11002e-07
2.40815e-09
1.10993e-07
2.36887e-09
1.10986e-07
2.34347e-09
1.10978e-07
2.30819e-09
1.10971e-07
2.28477e-09
1.10965e-07
2.24957e-09
1.10958e-07
2.23257e-09
1.10952e-07
2.19374e-09
1.10946e-07
2.18215e-09
1.10941e-07
2.14497e-09
1.10936e-07
2.13211e-09
1.10931e-07
2.10078e-09
1.10927e-07
2.08667e-09
1.10922e-07
2.05765e-09
1.10918e-07
2.04543e-09
1.10914e-07
2.01459e-09
1.10911e-07
2.00787e-09
1.10906e-07
1.97353e-09
1.10903e-07
1.97081e-09
1.10899e-07
1.94035e-09
1.10894e-07
1.93411e-09
1.1089e-07
1.90969e-09
1.10887e-07
1.90528e-09
1.10881e-07
1.87828e-09
1.10875e-07
1.87883e-09
1.10871e-07
1.85611e-09
1.10863e-07
1.86681e-09
1.10856e-07
1.84682e-09
1.10849e-07
1.85547e-09
1.84671e-09
1.23583e-07
2.21539e-09
-1.23534e-07
1.23644e-07
2.36885e-09
1.23718e-07
2.51085e-09
1.23803e-07
2.64164e-09
1.23897e-07
2.7665e-09
1.23996e-07
2.87401e-09
1.24095e-07
2.96963e-09
1.2419e-07
3.037e-09
1.24277e-07
3.08774e-09
1.24353e-07
3.11075e-09
1.24416e-07
3.12138e-09
1.24467e-07
3.10918e-09
1.24506e-07
3.09214e-09
1.24534e-07
3.0589e-09
1.24556e-07
3.02902e-09
1.2457e-07
2.98756e-09
1.2458e-07
2.95274e-09
1.24585e-07
2.90965e-09
1.24588e-07
2.87403e-09
1.24589e-07
2.8305e-09
1.24587e-07
2.79333e-09
1.24583e-07
2.74923e-09
1.24578e-07
2.71246e-09
1.24571e-07
2.66741e-09
1.24564e-07
2.63358e-09
1.24557e-07
2.58697e-09
1.24549e-07
2.55805e-09
1.24541e-07
2.51145e-09
1.24533e-07
2.48525e-09
1.24525e-07
2.44162e-09
1.24518e-07
2.41556e-09
1.2451e-07
2.37664e-09
1.24503e-07
2.35042e-09
1.24496e-07
2.31517e-09
1.24489e-07
2.29159e-09
1.24483e-07
2.25563e-09
1.24477e-07
2.23864e-09
1.24472e-07
2.1995e-09
1.24466e-07
2.18721e-09
1.24461e-07
2.1502e-09
1.24457e-07
2.13669e-09
1.24452e-07
2.10519e-09
1.24448e-07
2.091e-09
1.24444e-07
2.06154e-09
1.2444e-07
2.04935e-09
1.24436e-07
2.01848e-09
1.24433e-07
2.01101e-09
1.24429e-07
1.97734e-09
1.24426e-07
1.97428e-09
1.24423e-07
1.9436e-09
1.24418e-07
1.9387e-09
1.24414e-07
1.91378e-09
1.24411e-07
1.9084e-09
1.24405e-07
1.88375e-09
1.244e-07
1.88397e-09
1.24395e-07
1.86083e-09
1.24389e-07
1.87372e-09
1.24382e-07
1.85382e-09
1.24375e-07
1.86182e-09
1.85386e-09
1.3881e-07
2.17105e-09
-1.38765e-07
1.38865e-07
2.31324e-09
1.38931e-07
2.44502e-09
1.39006e-07
2.56702e-09
1.39087e-07
2.6853e-09
1.39172e-07
2.78848e-09
1.39258e-07
2.88353e-09
1.39342e-07
2.95369e-09
1.39419e-07
3.01043e-09
1.39488e-07
3.04203e-09
1.39546e-07
3.06277e-09
1.39594e-07
3.06141e-09
1.39632e-07
3.05451e-09
1.3966e-07
3.03054e-09
1.39681e-07
3.00779e-09
1.39697e-07
2.97235e-09
1.39707e-07
2.94218e-09
1.39714e-07
2.90266e-09
1.39719e-07
2.86961e-09
1.3972e-07
2.82874e-09
1.3972e-07
2.79351e-09
1.39718e-07
2.75151e-09
1.39714e-07
2.71612e-09
1.39709e-07
2.67221e-09
1.39704e-07
2.63939e-09
1.39697e-07
2.59312e-09
1.39691e-07
2.56467e-09
1.39684e-07
2.51798e-09
1.39678e-07
2.49189e-09
1.39671e-07
2.44831e-09
1.39665e-07
2.42181e-09
1.39658e-07
2.38326e-09
1.39652e-07
2.35643e-09
1.39646e-07
2.3211e-09
1.3964e-07
2.29749e-09
1.39635e-07
2.26088e-09
1.3963e-07
2.2438e-09
1.39625e-07
2.20453e-09
1.3962e-07
2.19154e-09
1.39616e-07
2.15465e-09
1.39612e-07
2.14072e-09
1.39608e-07
2.10885e-09
1.39604e-07
2.09482e-09
1.39601e-07
2.06484e-09
1.39598e-07
2.05256e-09
1.39594e-07
2.02198e-09
1.39592e-07
2.01361e-09
1.39589e-07
1.98048e-09
1.39585e-07
1.97755e-09
1.39583e-07
1.94627e-09
1.39579e-07
1.94252e-09
1.39575e-07
1.91755e-09
1.39572e-07
1.91118e-09
1.39568e-07
1.88832e-09
1.39563e-07
1.88866e-09
1.39559e-07
1.86512e-09
1.39553e-07
1.8797e-09
1.39547e-07
1.85999e-09
1.39541e-07
1.86737e-09
1.86021e-09
1.55905e-07
2.13331e-09
-1.55868e-07
1.55952e-07
2.26648e-09
1.56007e-07
2.39051e-09
1.56068e-07
2.50601e-09
1.56133e-07
2.61977e-09
1.56202e-07
2.71992e-09
1.56271e-07
2.81425e-09
1.56338e-07
2.88612e-09
1.56402e-07
2.94688e-09
1.56459e-07
2.9847e-09
1.56509e-07
3.01285e-09
1.56551e-07
3.01989e-09
1.56584e-07
3.02106e-09
1.5661e-07
3.00477e-09
1.5663e-07
2.9882e-09
1.56644e-07
2.95791e-09
1.56655e-07
2.93168e-09
1.56662e-07
2.89521e-09
1.56667e-07
2.86433e-09
1.5667e-07
2.82569e-09
1.56672e-07
2.79214e-09
1.56671e-07
2.75192e-09
1.5667e-07
2.71789e-09
1.56667e-07
2.67509e-09
1.56663e-07
2.64334e-09
1.56658e-07
2.5974e-09
1.56654e-07
2.56949e-09
1.56649e-07
2.52273e-09
1.56644e-07
2.49671e-09
1.56639e-07
2.45329e-09
1.56635e-07
2.42634e-09
1.5663e-07
2.38816e-09
1.56625e-07
2.36092e-09
1.56621e-07
2.32545e-09
1.56616e-07
2.30196e-09
1.56612e-07
2.2648e-09
1.56609e-07
2.24757e-09
1.56605e-07
2.20835e-09
1.56602e-07
2.19468e-09
1.56598e-07
2.15789e-09
1.56595e-07
2.14376e-09
1.56593e-07
2.11139e-09
1.5659e-07
2.09769e-09
1.56588e-07
2.06723e-09
1.56585e-07
2.05476e-09
1.56583e-07
2.0247e-09
1.56581e-07
2.01532e-09
1.56579e-07
1.98272e-09
1.56576e-07
1.98023e-09
1.56574e-07
1.94799e-09
1.56572e-07
1.94525e-09
1.56568e-07
1.92069e-09
1.56566e-07
1.91319e-09
1.56563e-07
1.8916e-09
1.56559e-07
1.89253e-09
1.56556e-07
1.86856e-09
1.56551e-07
1.88417e-09
1.56546e-07
1.86507e-09
1.56542e-07
1.8716e-09
1.86519e-09
1.75101e-07
2.10473e-09
-1.75072e-07
1.75135e-07
2.23215e-09
1.75174e-07
2.35197e-09
1.75216e-07
2.46371e-09
1.75261e-07
2.57489e-09
1.75308e-07
2.67311e-09
1.75355e-07
2.76677e-09
1.75402e-07
2.83952e-09
1.75446e-07
2.90244e-09
1.75487e-07
2.94411e-09
1.75523e-07
2.97674e-09
1.75554e-07
2.98922e-09
1.75579e-07
2.99571e-09
1.75599e-07
2.98468e-09
1.75615e-07
2.9725e-09
1.75627e-07
2.94597e-09
1.75636e-07
2.9225e-09
1.75643e-07
2.88823e-09
1.75648e-07
2.85886e-09
1.75652e-07
2.82174e-09
1.75655e-07
2.78941e-09
1.75657e-07
2.75046e-09
1.75657e-07
2.71752e-09
1.75656e-07
2.67561e-09
1.75655e-07
2.64475e-09