/*--------------------------------*- C++ -*----------------------------------*\
| =========                 |                                                 |
| \\      /  F ield         | OpenFOAM: The Open Source CFD Toolbox           |
|  \\    /   O peration     | Version:  2.3.0                                 |
|   \\  /    A nd           | Web:      www.OpenFOAM.org                      |
|    \\/     M anipulation  |                                                 |
\*---------------------------------------------------------------------------*/
FoamFile
{
    version     2.0;
    format      ascii;
    class       volVectorField;
    location    "0.75";
    object      U;
}
// * * * * * * * * * * * * * * * * * * * * * * * * * * * * * * * * * * * * * //

dimensions      [0 1 -1 0 0 0 0];

internalField   nonuniform List<vector> 
1650
(
(0.179796 0.0036317 0)
(0.159938 0.00494793 0)
(0.141187 0.00497897 0)
(0.122587 0.00448495 0)
(0.104427 0.00390418 0)
(0.0874777 0.00323976 0)
(0.0728745 0.00245927 0)
(0.0613167 0.00155599 0)
(0.0528729 0.000737368 0)
(0.0469829 0.000200702 0)
(0.0429074 -5.56505e-05 0)
(0.0400654 -0.000140208 0)
(0.0380283 -0.000139786 0)
(0.0364836 -0.000103481 0)
(0.0352074 -5.5672e-05 0)
(0.0340683 -1.22785e-05 0)
(0.0329986 1.96264e-05 0)
(0.031975 3.9421e-05 0)
(0.0309935 4.94599e-05 0)
(0.0300599 5.2871e-05 0)
(0.0291788 5.23363e-05 0)
(0.0283537 4.96706e-05 0)
(0.027584 4.64243e-05 0)
(0.0268679 4.28107e-05 0)
(0.026201 3.96142e-05 0)
(0.0255793 3.65617e-05 0)
(0.024998 3.38875e-05 0)
(0.0244527 3.15236e-05 0)
(0.0239403 2.9383e-05 0)
(0.023456 2.74981e-05 0)
(0.0229993 2.58142e-05 0)
(0.0225646 2.41618e-05 0)
(0.022154 2.28923e-05 0)
(0.0217603 2.14784e-05 0)
(0.0213888 2.03361e-05 0)
(0.0210297 1.92666e-05 0)
(0.0206922 1.81376e-05 0)
(0.0203626 1.7317e-05 0)
(0.0200551 1.63982e-05 0)
(0.0197506 1.55016e-05 0)
(0.0194704 1.48515e-05 0)
(0.0191871 1.41099e-05 0)
(0.0189319 1.33432e-05 0)
(0.0186664 1.29419e-05 0)
(0.0184345 1.21198e-05 0)
(0.0181835 1.18057e-05 0)
(0.017974 1.11509e-05 0)
(0.017734 1.08056e-05 0)
(0.017547 1.02043e-05 0)
(0.017314 1.01642e-05 0)
(0.0171496 9.28158e-06 0)
(0.0169201 9.5065e-06 0)
(0.0167789 8.81001e-06 0)
(0.0165468 8.94622e-06 0)
(0.0164324 8.107e-06 0)
(0.0161908 8.95267e-06 0)
(0.0161044 7.68427e-06 0)
(0.0158445 8.75058e-06 0)
(0.015794 7.61995e-06 0)
(0.0154921 1.05247e-05 0)
(0.193391 0.00633537 0)
(0.19169 0.00892481 0)
(0.189143 0.00966106 0)
(0.185163 0.00947942 0)
(0.179564 0.00904251 0)
(0.172518 0.00842091 0)
(0.16463 0.00754032 0)
(0.156421 0.00634813 0)
(0.148353 0.00499924 0)
(0.140683 0.00374469 0)
(0.133513 0.00274809 0)
(0.126913 0.00202236 0)
(0.120921 0.00151829 0)
(0.11555 0.00118654 0)
(0.110742 0.000977902 0)
(0.106424 0.000846067 0)
(0.10252 0.00075732 0)
(0.0989687 0.000690593 0)
(0.0957166 0.000634642 0)
(0.0927248 0.000584204 0)
(0.0899621 0.000537443 0)
(0.0874026 0.000493371 0)
(0.0850257 0.000453397 0)
(0.0828125 0.000416247 0)
(0.0807468 0.000383602 0)
(0.0788136 0.000353964 0)
(0.077001 0.000327887 0)
(0.0752943 0.000304577 0)
(0.073689 0.00028383 0)
(0.0721671 0.00026511 0)
(0.0707331 0.00024847 0)
(0.0693645 0.000232749 0)
(0.0680744 0.000219335 0)
(0.0668348 0.000206042 0)
(0.0656679 0.000194554 0)
(0.0645374 0.000183571 0)
(0.063479 0.000173332 0)
(0.0624407 0.000164123 0)
(0.0614788 0.000155517 0)
(0.0605197 0.000146884 0)
(0.0596444 0.00013989 0)
(0.0587532 0.000132413 0)
(0.0579578 0.000125782 0)
(0.0571229 0.000119803 0)
(0.0564035 0.000113641 0)
(0.0556142 0.000108361 0)
(0.0549685 0.000103222 0)
(0.0542148 9.81702e-05 0)
(0.053642 9.3711e-05 0)
(0.052913 8.97977e-05 0)
(0.0524158 8.50176e-05 0)
(0.0516981 8.20692e-05 0)
(0.0512803 7.83473e-05 0)
(0.05056 7.5255e-05 0)
(0.0502288 7.17441e-05 0)
(0.0494857 7.07421e-05 0)
(0.0492523 6.68062e-05 0)
(0.0484606 6.64874e-05 0)
(0.048341 6.38674e-05 0)
(0.0474621 6.90373e-05 0)
(0.194119 0.00582272 0)
(0.194354 0.00811073 0)
(0.195172 0.00937137 0)
(0.195958 0.00975079 0)
(0.196159 0.00972597 0)
(0.195507 0.00947145 0)
(0.194004 0.00893564 0)
(0.191733 0.00808463 0)
(0.188834 0.00702292 0)
(0.185459 0.00594524 0)
(0.181749 0.00501785 0)
(0.177842 0.00429092 0)
(0.173864 0.00373682 0)
(0.169917 0.00331307 0)
(0.166042 0.00298171 0)
(0.162257 0.00271053 0)
(0.158567 0.00247917 0)
(0.154972 0.00227436 0)
(0.151477 0.00208969 0)
(0.14808 0.00192091 0)
(0.144794 0.00176673 0)
(0.141611 0.00162464 0)
(0.138547 0.00149634 0)
(0.135593 0.00137838 0)
(0.132759 0.00127327 0)
(0.130035 0.00117744 0)
(0.12743 0.00109211 0)
(0.124924 0.00101474 0)
(0.122538 0.00094565 0)
(0.120235 0.000882511 0)
(0.118051 0.000826296 0)
(0.115933 0.000773567 0)
(0.113931 0.000727596 0)
(0.11198 0.00068316 0)
(0.110145 0.000644317 0)
(0.10834 0.000607041 0)
(0.106658 0.000573528 0)
(0.104979 0.000541697 0)
(0.103439 0.000513429 0)
(0.101872 0.000484754 0)
(0.100461 0.000461151 0)
(0.0989912 0.000435922 0)
(0.0977036 0.000414842 0)
(0.0963135 0.000393278 0)
(0.0951474 0.000374489 0)
(0.0938208 0.000354973 0)
(0.0927748 0.000339302 0)
(0.0914986 0.000320919 0)
(0.0905715 0.000307523 0)
(0.0893299 0.000291408 0)
(0.0885303 0.000278988 0)
(0.0873001 0.000264604 0)
(0.0866359 0.000255028 0)
(0.0854004 0.000240728 0)
(0.0848805 0.00023299 0)
(0.0836097 0.000221823 0)
(0.0832551 0.000214901 0)
(0.0819159 0.00020564 0)
(0.0817393 0.00020175 0)
(0.0802975 0.000201645 0)
(0.194904 0.00548131 0)
(0.195102 0.00720562 0)
(0.195946 0.00850769 0)
(0.197248 0.00911567 0)
(0.198572 0.00925558 0)
(0.199613 0.00912561 0)
(0.200255 0.00876154 0)
(0.200444 0.008158 0)
(0.200172 0.00737284 0)
(0.199443 0.00653301 0)
(0.198321 0.00577132 0)
(0.196885 0.00515587 0)
(0.195245 0.00468589 0)
(0.193473 0.0043207 0)
(0.191624 0.00402727 0)
(0.189707 0.00377839 0)
(0.187741 0.00356007 0)
(0.185711 0.00336043 0)
(0.18364 0.00317545 0)
(0.181507 0.00300011 0)
(0.179348 0.00283436 0)
(0.17714 0.00267479 0)
(0.174926 0.0025251 0)
(0.172679 0.00238063 0)
(0.170446 0.00224682 0)
(0.168193 0.00211854 0)
(0.165977 0.00200023 0)
(0.163744 0.00188743 0)
(0.161572 0.00178386 0)
(0.15938 0.00168474 0)
(0.157272 0.00159451 0)
(0.155138 0.00150674 0)
(0.153105 0.0014286 0)
(0.15104 0.001351 0)
(0.149096 0.00128253 0)
(0.1471 0.00121425 0)
(0.145257 0.00115393 0)
(0.143329 0.00109363 0)
(0.141593 0.00104126 0)
(0.139735 0.000986286 0)
(0.138107 0.000941569 0)
(0.136315 0.000891899 0)
(0.134802 0.000852182 0)
(0.133063 0.000808034 0)
(0.131675 0.000773155 0)
(0.129977 0.000732246 0)
(0.12872 0.000702713 0)
(0.127056 0.000664244 0)
(0.125934 0.000639182 0)
(0.124286 0.00060343 0)
(0.123317 0.000581738 0)
(0.121663 0.000548627 0)
(0.120857 0.00053137 0)
(0.119184 0.000498867 0)
(0.118554 0.000485892 0)
(0.116828 0.000457296 0)
(0.116401 0.000446213 0)
(0.114594 0.000421875 0)
(0.114378 0.000415566 0)
(0.11246 0.00040185 0)
(0.195552 0.00532416 0)
(0.195743 0.00666382 0)
(0.196403 0.00785745 0)
(0.197511 0.00855115 0)
(0.19881 0.0087705 0)
(0.20002 0.00867787 0)
(0.201028 0.00836955 0)
(0.201766 0.00788038 0)
(0.202234 0.007253 0)
(0.202392 0.00656793 0)
(0.202281 0.00592456 0)
(0.201921 0.00538718 0)
(0.201415 0.00497233 0)
(0.200791 0.00465105 0)
(0.200126 0.00439716 0)
(0.199393 0.00418284 0)
(0.198642 0.00399773 0)
(0.197812 0.00382796 0)
(0.196959 0.00367217 0)
(0.19601 0.00352315 0)
(0.19504 0.00338232 0)
(0.193967 0.00324397 0)
(0.192881 0.00311377 0)
(0.191693 0.00298381 0)
(0.190507 0.00286335 0)
(0.189216 0.0027427 0)
(0.187949 0.00263171 0)
(0.186568 0.00252057 0)
(0.185239 0.00241868 0)
(0.183784 0.00231638 0)
(0.182409 0.00222323 0)
(0.180898 0.00212806 0)
(0.179493 0.00204398 0)
(0.177936 0.00195497 0)
(0.176521 0.00187866 0)
(0.174925 0.00179618 0)
(0.173521 0.00172601 0)
(0.171893 0.00165015 0)
(0.170513 0.00158647 0)
(0.168865 0.0015144 0)
(0.167522 0.00145859 0)
(0.165857 0.00139021 0)
(0.164571 0.00133996 0)
(0.162884 0.00127625 0)
(0.161675 0.00123102 0)
(0.159965 0.00117072 0)
(0.158844 0.00113111 0)
(0.157114 0.00107275 0)
(0.156096 0.0010396 0)
(0.154332 0.000982834 0)
(0.153443 0.000953895 0)
(0.151633 0.000901082 0)
(0.150884 0.000876941 0)
(0.149023 0.00082413 0)
(0.148435 0.000806834 0)
(0.146495 0.000758435 0)
(0.146094 0.0007428 0)
(0.14406 0.00070079 0)
(0.143854 0.000692319 0)
(0.141703 0.00065989 0)
(0.196093 0.00520398 0)
(0.196286 0.00629727 0)
(0.196831 0.00732737 0)
(0.197726 0.00802638 0)
(0.198851 0.00830696 0)
(0.199956 0.00826054 0)
(0.200942 0.00799855 0)
(0.20171 0.0075838 0)
(0.202295 0.00706139 0)
(0.202637 0.00648372 0)
(0.202804 0.00592472 0)
(0.202764 0.00543883 0)
(0.202641 0.00505379 0)
(0.20241 0.00475143 0)
(0.202194 0.00451565 0)
(0.201918 0.00431682 0)
(0.201686 0.00414852 0)
(0.201382 0.00399348 0)
(0.201119 0.00385419 0)
(0.20076 0.00372049 0)
(0.200441 0.0035972 0)
(0.200009 0.00347473 0)
(0.199624 0.00336295 0)
(0.199111 0.00324799 0)
(0.198659 0.00314543 0)
(0.198062 0.00303806 0)
(0.197548 0.00294351 0)
(0.196865 0.00284396 0)
(0.196291 0.00275632 0)
(0.195525 0.00266348 0)
(0.194896 0.00258257 0)
(0.194048 0.00249407 0)
(0.19337 0.00242094 0)
(0.192442 0.00233528 0)
(0.191726 0.00226822 0)
(0.190717 0.00218668 0)
(0.189973 0.00212327 0)
(0.188886 0.00204663 0)
(0.188123 0.00198771 0)
(0.186962 0.00191189 0)
(0.18619 0.00186009 0)
(0.184956 0.00178484 0)
(0.184194 0.00173775 0)
(0.182884 0.00166572 0)
(0.182146 0.00162162 0)
(0.18076 0.00155181 0)
(0.180057 0.00151226 0)
(0.178601 0.00144212 0)
(0.177951 0.00140952 0)
(0.176416 0.00133956 0)
(0.175838 0.0013096 0)
(0.17422 0.00124385 0)
(0.173727 0.00121799 0)
(0.172029 0.00115035 0)
(0.171638 0.00113254 0)
(0.169843 0.00106959 0)
(0.169576 0.00105174 0)
(0.16768 0.00099597 0)
(0.167542 0.000987107 0)
(0.165537 0.000938815 0)
(0.19657 0.00508592 0)
(0.196756 0.00600009 0)
(0.197224 0.00687185 0)
(0.197947 0.00752103 0)
(0.198902 0.00783909 0)
(0.199867 0.00784809 0)
(0.200778 0.00764242 0)
(0.201492 0.00729353 0)
(0.202072 0.00685433 0)
(0.202426 0.00636408 0)
(0.202664 0.00587858 0)
(0.202704 0.00543834 0)
(0.202702 0.00507824 0)
(0.202578 0.00478672 0)
(0.202502 0.00455962 0)
(0.202351 0.00436571 0)
(0.202286 0.0042039 0)
(0.202139 0.00405251 0)
(0.202083 0.00391893 0)
(0.20192 0.00378886 0)
(0.201855 0.00367281 0)
(0.20166 0.00355518 0)
(0.201576 0.00345284 0)
(0.201341 0.00334377 0)
(0.201235 0.00325181 0)
(0.200957 0.0031508 0)
(0.200828 0.00306738 0)
(0.200501 0.00297452 0)
(0.200349 0.00289832 0)
(0.199967 0.0028119 0)
(0.199792 0.00274262 0)
(0.199354 0.00265974 0)
(0.199155 0.00259878 0)
(0.198654 0.00251774 0)
(0.198434 0.00246263 0)
(0.197866 0.00238519 0)
(0.197628 0.00233256 0)
(0.19699 0.00225964 0)
(0.196734 0.00221106 0)
(0.196025 0.00213732 0)
(0.195756 0.00209588 0)
(0.19497 0.00202065 0)
(0.194697 0.00198285 0)
(0.193832 0.00191065 0)
(0.193561 0.00187433 0)
(0.192615 0.00180377 0)
(0.192347 0.00177069 0)
(0.191322 0.00169778 0)
(0.191069 0.0016709 0)
(0.189961 0.00159768 0)
(0.189738 0.00157227 0)
(0.188539 0.00150308 0)
(0.188343 0.00147965 0)
(0.187068 0.00140712 0)
(0.186913 0.00139183 0)
(0.185546 0.00132409 0)
(0.185444 0.00130677 0)
(0.183992 0.00124678 0)
(0.183937 0.0012385 0)
(0.1824 0.00118394 0)
(0.196996 0.00496543 0)
(0.19717 0.00573878 0)
(0.19758 0.00647588 0)
(0.198169 0.00705452 0)
(0.198976 0.00738507 0)
(0.199802 0.00744586 0)
(0.20063 0.00730141 0)
(0.201281 0.00701521 0)
(0.201839 0.00664678 0)
(0.202178 0.00622914 0)
(0.202441 0.00580994 0)
(0.202508 0.00541467 0)
(0.202558 0.00508159 0)
(0.202471 0.00480133 0)
(0.202446 0.00458155 0)
(0.202326 0.00438979 0)
(0.202312 0.00423162 0)
(0.202199 0.00408049 0)
(0.202203 0.00394914 0)
(0.202088 0.00381803 0)
(0.202099 0.00370473 0)
(0.201969 0.00358638 0)
(0.201982 0.00348812 0)
(0.201832 0.00337943 0)
(0.201844 0.00329219 0)
(0.201676 0.00319214 0)
(0.201688 0.0031141 0)
(0.201496 0.00302237 0)
(0.20151 0.00295233 0)
(0.201289 0.00286725 0)
(0.201303 0.00280463 0)
(0.201054 0.00272299 0)
(0.201067 0.00266962 0)
(0.200782 0.00259 0)
(0.200796 0.00254261 0)
(0.200472 0.00246743 0)
(0.200482 0.00242184 0)
(0.200119 0.0023516 0)
(0.200125 0.00231084 0)
(0.199715 0.00223909 0)
(0.19972 0.00220614 0)
(0.199257 0.00213275 0)
(0.199262 0.00210218 0)
(0.198746 0.00203261 0)
(0.198749 0.00200277 0)
(0.19818 0.00193577 0)
(0.198176 0.00190848 0)
(0.197552 0.00183831 0)
(0.197547 0.00181635 0)
(0.196862 0.00174513 0)
(0.196868 0.00172471 0)
(0.196119 0.00165982 0)
(0.196113 0.00163808 0)
(0.195314 0.0015684 0)
(0.195316 0.0015559 0)
(0.194447 0.00149101 0)
(0.194455 0.00147406 0)
(0.193537 0.0014189 0)
(0.193536 0.00141096 0)
(0.19256 0.00135903 0)
(0.197378 0.00484364 0)
(0.197539 0.00550298 0)
(0.1979 0.00612952 0)
(0.198386 0.00663734 0)
(0.199067 0.00696181 0)
(0.199767 0.00706276 0)
(0.200506 0.0069775 0)
(0.201096 0.00675139 0)
(0.201625 0.00644583 0)
(0.20195 0.0060896 0)
(0.202221 0.00572877 0)
(0.202307 0.00537706 0)
(0.202387 0.00507295 0)
(0.202327 0.00480641 0)
(0.202328 0.00459505 0)
(0.202226 0.00440559 0)
(0.202228 0.00425082 0)
(0.202128 0.00409998 0)
(0.202146 0.00397057 0)
(0.202045 0.00383784 0)
(0.202073 0.00372611 0)
(0.201963 0.0036058 0)
(0.201995 0.00350928 0)
(0.201876 0.00339962 0)
(0.20191 0.00331398 0)
(0.201783 0.00321309 0)
(0.201824 0.00313729 0)
(0.201684 0.0030443 0)
(0.201735 0.00297687 0)
(0.201582 0.00289083 0)
(0.20164 0.00283093 0)
(0.201474 0.00274824 0)
(0.201541 0.00269815 0)
(0.201359 0.0026181 0)
(0.201433 0.00257344 0)
(0.201235 0.00249952 0)
(0.201311 0.0024559 0)
(0.201098 0.00238688 0)
(0.201177 0.00234976 0)
(0.200941 0.00227863 0)
(0.201028 0.0022496 0)
(0.200764 0.00217837 0)
(0.200853 0.00215022 0)
(0.200565 0.00208378 0)
(0.200653 0.00205569 0)
(0.200343 0.00199344 0)
(0.200423 0.0019681 0)
(0.200085 0.00190219 0)
(0.200163 0.00188254 0)
(0.199787 0.0018144 0)
(0.199873 0.00179512 0)
(0.19947 0.00173867 0)
(0.199525 0.00171622 0)
(0.199098 0.00165127 0)
(0.199156 0.00164049 0)
(0.198684 0.00158205 0)
(0.198726 0.00156326 0)
(0.198238 0.00151621 0)
(0.198256 0.00150861 0)
(0.197729 0.00146312 0)
(0.197719 0.00472293 0)
(0.197868 0.00528835 0)
(0.198185 0.00582549 0)
(0.198592 0.00626946 0)
(0.199167 0.00657701 0)
(0.199759 0.00670375 0)
(0.200408 0.00666975 0)
(0.200939 0.00649979 0)
(0.20143 0.00625147 0)
(0.201744 0.00594915 0)
(0.202013 0.00563925 0)
(0.202117 0.0053285 0)
(0.202214 0.00505394 0)
(0.202182 0.00480355 0)
(0.202198 0.00460226 0)
(0.202117 0.00441638 0)
(0.202122 0.00426523 0)
(0.202038 0.0041158 0)
(0.202054 0.00398878 0)
(0.201969 0.00385529 0)
(0.201991 0.00374488 0)
(0.201901 0.00362328 0)
(0.201925 0.00352727 0)
(0.20183 0.00341719 0)
(0.201854 0.00333152 0)
(0.201755 0.00322989 0)
(0.201785 0.00315488 0)
(0.201679 0.00306037 0)
(0.201718 0.00299363 0)
(0.201606 0.00290646 0)
(0.201652 0.00284706 0)
(0.201535 0.00276313 0)
(0.201589 0.00271357 0)
(0.201467 0.00263327 0)
(0.201527 0.00258773 0)
(0.201402 0.00251548 0)
(0.201464 0.00247071 0)
(0.201336 0.00240208 0)
(0.201404 0.00236593 0)
(0.201265 0.00229483 0)
(0.201342 0.00226599 0)
(0.201193 0.00219719 0)
(0.201272 0.00216782 0)
(0.201115 0.00210464 0)
(0.201192 0.00207456 0)
(0.201033 0.00201658 0)
(0.201104 0.00199047 0)
(0.200935 0.00192772 0)
(0.201008 0.0019088 0)
(0.200814 0.00184357 0)
(0.200893 0.00182129 0)
(0.200701 0.00177353 0)
(0.200748 0.00174973 0)
(0.200543 0.0016876 0)
(0.2006 0.0016772 0)
(0.200369 0.00162591 0)
(0.200404 0.00160409 0)
(0.200174 0.00156323 0)
(0.200192 0.00155631 0)
(0.199938 0.00151695 0)
(0.198023 0.00460486 0)
(0.198163 0.0050928 0)
(0.198439 0.005557 0)
(0.198784 0.00594542 0)
(0.199268 0.00623108 0)
(0.19977 0.00637125 0)
(0.200331 0.00637759 0)
(0.200806 0.00625785 0)
(0.201254 0.00606182 0)
(0.201558 0.00580839 0)
(0.201817 0.0055436 0)
(0.201938 0.0052706 0)
(0.202042 0.00502498 0)
(0.202038 0.00479249 0)
(0.202062 0.00460281 0)
(0.202005 0.00442222 0)
(0.202009 0.00427504 0)
(0.201944 0.00412826 0)
(0.201953 0.0040041 0)
(0.201886 0.00387108 0)
(0.201898 0.00376181 0)
(0.201829 0.00364013 0)
(0.201838 0.00354388 0)
(0.201766 0.0034343 0)
(0.201773 0.00334777 0)
(0.201699 0.00324583 0)
(0.201711 0.00317101 0)
(0.201631 0.0030754 0)
(0.20165 0.0030084 0)
(0.201568 0.00292057 0)
(0.201592 0.00286056 0)
(0.20151 0.00277604 0)
(0.201538 0.0027254 0)
(0.201455 0.00264579 0)
(0.201487 0.00259747 0)
(0.201408 0.00252724 0)
(0.20144 0.00248041 0)
(0.201361 0.00241169 0)
(0.2014 0.00237537 0)
(0.201316 0.00230433 0)
(0.201362 0.00227377 0)
(0.201276 0.0022075 0)
(0.201323 0.00217535 0)
(0.201237 0.00211527 0)
(0.201281 0.00208198 0)
(0.2012 0.00202689 0)
(0.20124 0.00199941 0)
(0.201157 0.00193815 0)
(0.201204 0.00191928 0)
(0.201102 0.00185694 0)
(0.20115 0.00182992 0)
(0.201062 0.00178841 0)
(0.201089 0.00176425 0)
(0.20099 0.00170294 0)
(0.201029 0.00169176 0)
(0.200918 0.00164664 0)
(0.200936 0.00162268 0)
(0.200829 0.00158459 0)
(0.20084 0.00157839 0)
(0.200719 0.00154339 0)
(0.198294 0.00449051 0)
(0.198426 0.00491468 0)
(0.198664 0.00531846 0)
(0.19896 0.00565925 0)
(0.199367 0.00592164 0)
(0.199793 0.00606657 0)
(0.200273 0.00610244 0)
(0.200695 0.00602545 0)
(0.201096 0.00587643 0)
(0.201387 0.00566788 0)
(0.201632 0.00544389 0)
(0.201766 0.00520553 0)
(0.201874 0.00498744 0)
(0.201894 0.00477376 0)
(0.201923 0.00459681 0)
(0.201888 0.00442321 0)
(0.201892 0.00428049 0)
(0.201844 0.0041373 0)
(0.201847 0.00401637 0)
(0.201797 0.00388504 0)
(0.201799 0.0037767 0)
(0.201748 0.0036561 0)
(0.201746 0.00355931 0)
(0.201693 0.00345075 0)
(0.201688 0.00336325 0)
(0.201632 0.00326118 0)
(0.20163 0.00318629 0)
(0.20157 0.00309007 0)
(0.201574 0.00302238 0)
(0.201513 0.00293428 0)
(0.201519 0.00287315 0)
(0.20146 0.0027887 0)
(0.201469 0.00273611 0)
(0.201412 0.00265784 0)
(0.201423 0.0026063 0)
(0.201369 0.00253774 0)
(0.201381 0.00248918 0)
(0.201329 0.00242 0)
(0.201346 0.00238316 0)
(0.201292 0.00231229 0)
(0.201314 0.00227943 0)
(0.201261 0.00221549 0)
(0.201284 0.00218036 0)
(0.201233 0.00212277 0)
(0.201253 0.00208691 0)
(0.201207 0.00203308 0)
(0.201227 0.00200462 0)
(0.201179 0.00194386 0)
(0.201206 0.0019246 0)
(0.201148 0.0018651 0)
(0.201173 0.00183407 0)
(0.201125 0.0017956 0)
(0.20114 0.00177205 0)
(0.201085 0.00171121 0)
(0.201108 0.00169844 0)
(0.201046 0.0016576 0)
(0.201056 0.00163354 0)
(0.200995 0.00159595 0)
(0.201001 0.00158994 0)
(0.200933 0.00155774 0)
(0.198537 0.00438081 0)
(0.198659 0.00475228 0)
(0.198865 0.00510569 0)
(0.199119 0.00540592 0)
(0.19946 0.0056456 0)
(0.199823 0.00578987 0)
(0.20023 0.00584622 0)
(0.200601 0.00580406 0)
(0.200957 0.00569618 0)
(0.201229 0.00552854 0)
(0.20146 0.00534198 0)
(0.2016 0.00513553 0)
(0.20171 0.00494325 0)
(0.201747 0.0047485 0)
(0.201783 0.0045849 0)
(0.201765 0.0044197 0)
(0.201771 0.00428209 0)
(0.201736 0.00414316 0)
(0.201737 0.00402564 0)
(0.201699 0.00389703 0)
(0.201695 0.00378956 0)
(0.201658 0.00367083 0)
(0.20165 0.00357368 0)
(0.20161 0.00346618 0)
(0.201599 0.00337803 0)
(0.201554 0.00327593 0)
(0.201547 0.00320075 0)
(0.201499 0.0031043 0)
(0.201494 0.00303583 0)
(0.201446 0.00294755 0)
(0.201444 0.00288523 0)
(0.201399 0.00280124 0)
(0.201396 0.00274631 0)
(0.201355 0.00266952 0)
(0.201354 0.00261519 0)
(0.201314 0.00254745 0)
(0.201317 0.0024979 0)
(0.201277 0.00242795 0)
(0.201283 0.00239047 0)
(0.201245 0.00231993 0)
(0.201254 0.00228473 0)
(0.201216 0.00222265 0)
(0.201228 0.00218515 0)
(0.201191 0.00212899 0)
(0.201201 0.00209178 0)
(0.201169 0.00203812 0)
(0.201179 0.00200898 0)
(0.201146 0.00194842 0)
(0.201161 0.00192839 0)
(0.201123 0.00187144 0)
(0.201136 0.00183827 0)
(0.201101 0.00180011 0)
(0.201112 0.00177734 0)
(0.201074 0.00171796 0)
(0.201086 0.00170324 0)
(0.201043 0.00166457 0)
(0.20105 0.00164229 0)
(0.201005 0.00160447 0)
(0.201007 0.00159789 0)
(0.20096 0.00156751 0)
(0.198755 0.0042766 0)
(0.198867 0.00460426 0)
(0.199044 0.00491564 0)
(0.199261 0.00518149 0)
(0.199548 0.0054 0)
(0.199855 0.0055404 0)
(0.2002 0.0056103 0)
(0.200522 0.00559545 0)
(0.200834 0.00552257 0)
(0.201084 0.00539145 0)
(0.201299 0.00523924 0)
(0.201439 0.00506228 0)
(0.20155 0.00489414 0)
(0.201599 0.00471797 0)
(0.20164 0.00456782 0)
(0.201636 0.00441207 0)
(0.201645 0.00428029 0)
(0.201621 0.00414609 0)
(0.201621 0.00403205 0)
(0.201593 0.00390687 0)
(0.201587 0.00380052 0)
(0.201559 0.00368408 0)
(0.201548 0.00358697 0)
(0.201517 0.00348042 0)
(0.201505 0.00339203 0)
(0.201467 0.00329003 0)
(0.201458 0.00321441 0)
(0.201418 0.00311788 0)
(0.20141 0.0030488 0)
(0.20137 0.00296027 0)
(0.201364 0.00289681 0)
(0.201327 0.00281349 0)
(0.20132 0.00275613 0)
(0.201286 0.00268062 0)
(0.201281 0.00262429 0)
(0.201248 0.00255637 0)
(0.201248 0.00250657 0)
(0.201214 0.00243574 0)
(0.201216 0.0023974 0)
(0.201186 0.00232738 0)
(0.201189 0.00229009 0)
(0.201158 0.00222913 0)
(0.201166 0.00219018 0)
(0.201136 0.00213453 0)
(0.201142 0.00209672 0)
(0.201115 0.00204275 0)
(0.201121 0.00201321 0)
(0.201095 0.00195284 0)
(0.201104 0.00193162 0)
(0.201075 0.00187681 0)
(0.201084 0.00184336 0)
(0.201052 0.00180378 0)
(0.201062 0.00178134 0)
(0.201032 0.00172464 0)
(0.201039 0.00170802 0)
(0.201003 0.00166975 0)
(0.20101 0.00165036 0)
(0.200971 0.00161243 0)
(0.200971 0.00160472 0)
(0.200932 0.00157559 0)
(0.19895 0.00417874 0)
(0.19905 0.0044699 0)
(0.199202 0.00474628 0)
(0.199387 0.00498305 0)
(0.199627 0.00518237 0)
(0.199886 0.00531713 0)
(0.200178 0.00539548 0)
(0.200454 0.00540127 0)
(0.200726 0.00535732 0)
(0.200951 0.00525791 0)
(0.201147 0.00513675 0)
(0.201284 0.00498696 0)
(0.201394 0.00484141 0)
(0.201449 0.00468325 0)
(0.201495 0.00454625 0)
(0.2015 0.00440058 0)
(0.201514 0.0042754 0)
(0.201497 0.00414625 0)
(0.201499 0.00403572 0)
(0.201478 0.00391441 0)
(0.201473 0.00380958 0)
(0.20145 0.00369572 0)
(0.20144 0.00359906 0)
(0.201414 0.00349343 0)
(0.201404 0.00340519 0)
(0.201371 0.00330337 0)
(0.201362 0.00322734 0)
(0.201327 0.00313075 0)
(0.201319 0.00306123 0)
(0.201285 0.00297238 0)
(0.201277 0.00290788 0)
(0.201246 0.00282526 0)
(0.201238 0.00276568 0)
(0.201209 0.00269101 0)
(0.201203 0.00263347 0)
(0.201173 0.00256469 0)
(0.201173 0.00251496 0)
(0.201143 0.00244335 0)
(0.201143 0.002404 0)
(0.201118 0.00233446 0)
(0.201119 0.00229561 0)
(0.201092 0.00223503 0)
(0.201098 0.00219521 0)
(0.201072 0.00213973 0)
(0.201076 0.00210164 0)
(0.201053 0.00204701 0)
(0.201058 0.00201732 0)
(0.201035 0.00195737 0)
(0.201042 0.00193457 0)
(0.201016 0.00188133 0)
(0.201025 0.00184903 0)
(0.200995 0.00180733 0)
(0.201004 0.00178447 0)
(0.200978 0.0017312 0)
(0.200983 0.00171312 0)
(0.20095 0.00167413 0)
(0.200957 0.00165786 0)
(0.200923 0.00162014 0)
(0.200921 0.00161113 0)
(0.200887 0.00158295 0)
(0.199125 0.00408728 0)
(0.199213 0.0043478 0)
(0.199343 0.00459501 0)
(0.199498 0.00480723 0)
(0.199699 0.00498937 0)
(0.199915 0.00511759 0)
(0.20016 0.00520085 0)
(0.200394 0.00522173 0)
(0.200629 0.00520105 0)
(0.200827 0.00512858 0)
(0.201004 0.00503489 0)
(0.201132 0.00490999 0)
(0.201238 0.00478557 0)
(0.201297 0.00464479 0)
(0.201346 0.00452057 0)
(0.201359 0.00438521 0)
(0.201376 0.00426729 0)
(0.201365 0.0041435 0)
(0.201369 0.00403654 0)
(0.201353 0.00391939 0)
(0.201349 0.00381655 0)
(0.201331 0.00370546 0)
(0.201323 0.00360971 0)
(0.201301 0.00350502 0)
(0.201293 0.00341736 0)
(0.201265 0.00331583 0)
(0.201257 0.0032395 0)
(0.201227 0.00314286 0)
(0.201219 0.00307306 0)
(0.20119 0.00298384 0)
(0.201182 0.00291853 0)
(0.201155 0.00283641 0)
(0.201147 0.00277501 0)
(0.201122 0.00270074 0)
(0.201117 0.00264248 0)
(0.20109 0.00257262 0)
(0.20109 0.00252301 0)
(0.201064 0.0024507 0)
(0.201063 0.00241037 0)
(0.201041 0.0023411 0)
(0.201041 0.00230114 0)
(0.201017 0.00224063 0)
(0.201023 0.00220006 0)
(0.200999 0.00214457 0)
(0.201003 0.00210655 0)
(0.200983 0.00205102 0)
(0.200986 0.00202114 0)
(0.200966 0.00196199 0)
(0.200972 0.00193756 0)
(0.20095 0.00188509 0)
(0.200957 0.00185471 0)
(0.200931 0.00181113 0)
(0.200938 0.00178719 0)
(0.200915 0.00173728 0)
(0.20092 0.00171832 0)
(0.20089 0.00167834 0)
(0.200896 0.00166482 0)
(0.200867 0.00162741 0)
(0.200864 0.00161724 0)
(0.200834 0.00158988 0)
(0.199289 0.00400014 0)
(0.199364 0.0042339 0)
(0.199471 0.00445612 0)
(0.199599 0.00464736 0)
(0.199763 0.00481425 0)
(0.199941 0.00493559 0)
(0.200143 0.0050215 0)
(0.200338 0.00505355 0)
(0.200537 0.00505156 0)
(0.200706 0.00500195 0)
(0.200863 0.00493253 0)
(0.200979 0.00483053 0)
(0.201079 0.00472616 0)
(0.201137 0.00460231 0)
(0.201188 0.00449067 0)
(0.201205 0.00436583 0)
(0.201225 0.00425559 0)
(0.20122 0.00413759 0)
(0.201226 0.00403437 0)
(0.201214 0.0039215 0)
(0.201212 0.00382123 0)
(0.201198 0.00371305 0)
(0.201192 0.00361864 0)
(0.201174 0.00351512 0)
(0.201168 0.00342837 0)
(0.201144 0.00332736 0)
(0.201138 0.00325094 0)
(0.201112 0.00315421 0)
(0.201106 0.00308436 0)
(0.20108 0.0029947 0)
(0.201074 0.00292879 0)
(0.20105 0.00284705 0)
(0.201044 0.00278412 0)
(0.201021 0.00271005 0)
(0.201018 0.00265127 0)
(0.200994 0.0025803 0)
(0.200994 0.00253081 0)
(0.200971 0.00245782 0)
(0.20097 0.00241663 0)
(0.200952 0.0023475 0)
(0.200952 0.00230652 0)
(0.200931 0.00224607 0)
(0.200936 0.00220492 0)
(0.200915 0.00214906 0)
(0.200918 0.00211132 0)
(0.200901 0.0020551 0)
(0.200904 0.00202463 0)
(0.200886 0.00196644 0)
(0.200891 0.00194089 0)
(0.200872 0.00188848 0)
(0.200878 0.00185988 0)
(0.200856 0.00181517 0)
(0.200862 0.00179005 0)
(0.200841 0.00174288 0)
(0.200846 0.00172332 0)
(0.200819 0.00168269 0)
(0.200825 0.00167153 0)
(0.2008 0.00163424 0)
(0.200797 0.00162315 0)
(0.200771 0.00159657 0)
(0.199442 0.00391587 0)
(0.199503 0.00412569 0)
(0.199589 0.00432614 0)
(0.19969 0.00449935 0)
(0.199821 0.00465326 0)
(0.199962 0.00476811 0)
(0.200125 0.00485541 0)
(0.200282 0.00489611 0)
(0.200446 0.00490929 0)
(0.200587 0.00487899 0)
(0.20072 0.00483084 0)
(0.200821 0.00474974 0)
(0.200911 0.00466417 0)
(0.200966 0.00455676 0)
(0.201015 0.00445743 0)
(0.201035 0.00434311 0)
(0.201056 0.00424074 0)
(0.201056 0.00412872 0)
(0.201063 0.00402957 0)
(0.201055 0.00392094 0)
(0.201055 0.00382356 0)
(0.201044 0.00371846 0)
(0.201041 0.00362568 0)
(0.201026 0.00352365 0)
(0.201023 0.00343806 0)
(0.201003 0.00333769 0)
(0.200999 0.00326157 0)
(0.200978 0.0031647 0)
(0.200973 0.00309499 0)
(0.200952 0.00300501 0)
(0.200947 0.00293846 0)
(0.200927 0.00285712 0)
(0.200922 0.00279293 0)
(0.200903 0.00271888 0)
(0.200901 0.00265976 0)
(0.200881 0.00258773 0)
(0.20088 0.00253824 0)
(0.200862 0.00246473 0)
(0.200861 0.00242265 0)
(0.200845 0.00235367 0)
(0.200846 0.00231175 0)
(0.200828 0.00225118 0)
(0.200833 0.00220978 0)
(0.200815 0.00215331 0)
(0.200818 0.00211563 0)
(0.200804 0.00205928 0)
(0.200806 0.00202796 0)
(0.200791 0.0019704 0)
(0.200796 0.00194438 0)
(0.200779 0.00189184 0)
(0.200785 0.00186441 0)
(0.200767 0.00181907 0)
(0.200771 0.0017931 0)
(0.200753 0.00174815 0)
(0.200759 0.00172794 0)
(0.200736 0.00168703 0)
(0.20074 0.00167805 0)
(0.200719 0.00164066 0)
(0.200717 0.00162878 0)
(0.200695 0.001603 0)
(0.199584 0.00383633 0)
(0.199631 0.00402528 0)
(0.199696 0.00420742 0)
(0.199771 0.00436551 0)
(0.199871 0.00450901 0)
(0.199978 0.00461853 0)
(0.200104 0.0047066 0)
(0.200225 0.00475404 0)
(0.200354 0.00477927 0)
(0.200466 0.00476472 0)
(0.200574 0.00473431 0)
(0.200657 0.00467143 0)
(0.200733 0.00460259 0)
(0.200782 0.00451038 0)
(0.200826 0.00442269 0)
(0.200847 0.00431834 0)
(0.200868 0.00422366 0)
(0.200871 0.00411746 0)
(0.200879 0.00402244 0)
(0.200874 0.00391796 0)
(0.200876 0.00382346 0)
(0.200868 0.00372144 0)
(0.200867 0.00363051 0)
(0.200856 0.0035301 0)
(0.200855 0.00344596 0)
(0.20084 0.0033462 0)
(0.200838 0.00327078 0)
(0.200822 0.00317384 0)
(0.200818 0.00310427 0)
(0.200802 0.0030143 0)
(0.200799 0.0029471 0)
(0.200782 0.00286611 0)
(0.20078 0.00280103 0)
(0.200764 0.00272684 0)
(0.200763 0.00266751 0)
(0.200748 0.00259462 0)
(0.200747 0.00254495 0)
(0.200733 0.00247114 0)
(0.200732 0.00242817 0)
(0.20072 0.00235928 0)
(0.200722 0.00231668 0)
(0.200706 0.00225572 0)
(0.200711 0.00221433 0)
(0.200697 0.00215728 0)
(0.200699 0.00211936 0)
(0.200689 0.00206318 0)
(0.200691 0.00203104 0)
(0.200678 0.00197385 0)
(0.200683 0.00194768 0)
(0.20067 0.00189488 0)
(0.200674 0.0018684 0)
(0.20066 0.00182264 0)
(0.200663 0.00179593 0)
(0.200649 0.00175291 0)
(0.200654 0.00173224 0)
(0.200636 0.00169099 0)
(0.200638 0.00168394 0)
(0.200623 0.00164658 0)
(0.200621 0.00163398 0)
(0.200604 0.00160888 0)
(0.199712 0.00376538 0)
(0.199745 0.003937 0)
(0.19979 0.00410454 0)
(0.199842 0.00425067 0)
(0.199912 0.00438634 0)
(0.199988 0.00449189 0)
(0.200078 0.0045806 0)
(0.200165 0.00463312 0)
(0.200259 0.00466741 0)
(0.200341 0.00466509 0)
(0.200421 0.00464843 0)
(0.200485 0.00460036 0)
(0.200544 0.00454534 0)
(0.200583 0.00446607 0)
(0.20062 0.00438873 0)
(0.200638 0.0042932 0)
(0.200657 0.00420547 0)
(0.200662 0.00410462 0)
(0.20067 0.00401347 0)
(0.200668 0.00391278 0)
(0.200671 0.00382099 0)
(0.200667 0.00372171 0)
(0.200668 0.00363275 0)
(0.200661 0.00353393 0)
(0.200661 0.00345138 0)
(0.200651 0.00335226 0)
(0.200651 0.00327773 0)
(0.20064 0.00318089 0)
(0.200638 0.00311149 0)
(0.200627 0.00302173 0)
(0.200625 0.00295401 0)
(0.200613 0.0028734 0)
(0.200613 0.00280772 0)
(0.200601 0.00273334 0)
(0.200601 0.00267402 0)
(0.200591 0.00260037 0)
(0.20059 0.00255054 0)
(0.200581 0.00247661 0)
(0.200581 0.00243283 0)
(0.200572 0.00236397 0)
(0.200574 0.00232103 0)
(0.200563 0.00225943 0)
(0.200567 0.00221828 0)
(0.200557 0.00216065 0)
(0.200559 0.00212252 0)
(0.200552 0.00206659 0)
(0.200554 0.00203348 0)
(0.200545 0.00197679 0)
(0.200549 0.00195083 0)
(0.20054 0.00189711 0)
(0.200542 0.00187178 0)
(0.200534 0.00182597 0)
(0.200536 0.00179817 0)
(0.200525 0.00175666 0)
(0.20053 0.00173639 0)
(0.200517 0.00169441 0)
(0.200518 0.00168867 0)
(0.200507 0.00165171 0)
(0.200507 0.0016387 0)
(0.200494 0.00161385 0)
(0.199828 0.00370922 0)
(0.199847 0.00386764 0)
(0.199873 0.00402454 0)
(0.199903 0.0041621 0)
(0.199946 0.00429252 0)
(0.199991 0.00439519 0)
(0.200046 0.00448452 0)
(0.200099 0.00454056 0)
(0.200158 0.00458078 0)
(0.200208 0.00458697 0)
(0.20026 0.00457979 0)
(0.2003 0.00454229 0)
(0.20034 0.00449737 0)
(0.200367 0.00442772 0)