/*--------------------------------*- C++ -*----------------------------------*\
| =========                 |                                                 |
| \\      /  F ield         | OpenFOAM: The Open Source CFD Toolbox           |
|  \\    /   O peration     | Version:  2.3.0                                 |
|   \\  /    A nd           | Web:      www.OpenFOAM.org                      |
|    \\/     M anipulation  |                                                 |
\*---------------------------------------------------------------------------*/
FoamFile
{
    version     2.0;
    format      ascii;
    class       volVectorField;
    location    "0.35";
    object      U;
}
// * * * * * * * * * * * * * * * * * * * * * * * * * * * * * * * * * * * * * //

dimensions      [0 1 -1 0 0 0 0];

internalField   nonuniform List<vector> 
3375
(
(0.170629 0.00600097 0)
(0.154098 0.00606063 0)
(0.138212 0.0056348 0)
(0.123163 0.00502956 0)
(0.109361 0.00436168 0)
(0.0969746 0.00368478 0)
(0.0860172 0.00303595 0)
(0.0764543 0.00244092 0)
(0.068229 0.00191536 0)
(0.0612542 0.00146721 0)
(0.0554136 0.0010981 0)
(0.0505716 0.000804383 0)
(0.0465845 0.000578386 0)
(0.0433108 0.000410085 0)
(0.0406187 0.000288677 0)
(0.0383911 0.00020381 0)
(0.0365287 0.000146332 0)
(0.0349497 0.000108632 0)
(0.0335898 8.46778e-05 0)
(0.032399 6.98966e-05 0)
(0.0313402 6.09613e-05 0)
(0.0303856 5.55573e-05 0)
(0.0295152 5.21493e-05 0)
(0.0287143 4.97729e-05 0)
(0.0279722 4.78609e-05 0)
(0.027281 4.61074e-05 0)
(0.0266347 4.43687e-05 0)
(0.0260285 4.25943e-05 0)
(0.0254585 4.07825e-05 0)
(0.0249217 3.89532e-05 0)
(0.0244152 3.71321e-05 0)
(0.0239366 3.53434e-05 0)
(0.0234837 3.36061e-05 0)
(0.0230546 3.19335e-05 0)
(0.0226476 3.03338e-05 0)
(0.0222612 2.88108e-05 0)
(0.0218938 2.73653e-05 0)
(0.0215443 2.59959e-05 0)
(0.0212115 2.46997e-05 0)
(0.0208944 2.34731e-05 0)
(0.020592 2.2312e-05 0)
(0.0203035 2.12122e-05 0)
(0.0200281 2.01695e-05 0)
(0.0197652 1.91797e-05 0)
(0.019514 1.82392e-05 0)
(0.0192742 1.73443e-05 0)
(0.019045 1.64916e-05 0)
(0.0188261 1.56782e-05 0)
(0.0186171 1.4901e-05 0)
(0.0184176 1.41574e-05 0)
(0.0182272 1.34451e-05 0)
(0.0180455 1.27617e-05 0)
(0.0178725 1.21053e-05 0)
(0.0177077 1.14737e-05 0)
(0.0175509 1.08653e-05 0)
(0.017402 1.02782e-05 0)
(0.0172608 9.71099e-06 0)
(0.0171271 9.16206e-06 0)
(0.0170008 8.63024e-06 0)
(0.0168817 8.11468e-06 0)
(0.0167698 7.61503e-06 0)
(0.016665 7.13164e-06 0)
(0.0165671 6.66544e-06 0)
(0.0164761 6.2176e-06 0)
(0.016392 5.78847e-06 0)
(0.0163146 5.37577e-06 0)
(0.016244 4.97161e-06 0)
(0.0161803 4.55865e-06 0)
(0.0161236 4.10552e-06 0)
(0.0160745 3.56437e-06 0)
(0.0160337 2.88054e-06 0)
(0.0160021 2.04457e-06 0)
(0.0159812 1.17104e-06 0)
(0.0159726 5.15235e-07 0)
(0.0159761 -4.15845e-07 0)
(0.015988 -1.20364e-06 0)
(0.0160071 -1.89644e-06 0)
(0.0160318 -2.4277e-06 0)
(0.0160607 -2.78811e-06 0)
(0.0160925 -3.00042e-06 0)
(0.0161259 -3.09192e-06 0)
(0.0161598 -3.08925e-06 0)
(0.0161935 -3.01325e-06 0)
(0.0162263 -2.8834e-06 0)
(0.0162577 -2.71715e-06 0)
(0.0162874 -2.52919e-06 0)
(0.0163152 -2.33131e-06 0)
(0.0163411 -2.13221e-06 0)
(0.016365 -1.93801e-06 0)
(0.016387 -1.75265e-06 0)
(0.0164071 -1.57842e-06 0)
(0.0164255 -1.41631e-06 0)
(0.0164422 -1.26645e-06 0)
(0.0164573 -1.12831e-06 0)
(0.016471 -1.00085e-06 0)
(0.0164833 -8.82659e-07 0)
(0.0164943 -7.73692e-07 0)
(0.0165041 -6.92545e-07 0)
(0.0165123 -7.99444e-07 0)
(0.0165333 -2.68291e-06 0)
(0.189534 0.00946147 0)
(0.187198 0.00996571 0)
(0.18326 0.00974285 0)
(0.178079 0.00924555 0)
(0.172151 0.00861084 0)
(0.165825 0.00788542 0)
(0.159321 0.00710792 0)
(0.152809 0.00631388 0)
(0.146421 0.00553319 0)
(0.140259 0.00479041 0)
(0.134389 0.00410475 0)
(0.128853 0.00348939 0)
(0.123669 0.00295127 0)
(0.118841 0.00249151 0)
(0.11436 0.00210652 0)
(0.110212 0.00178941 0)
(0.106376 0.00153137 0)
(0.102829 0.00132295 0)
(0.0995471 0.00115502 0)
(0.0965078 0.00101935 0)
(0.0936882 0.000908913 0)
(0.0910675 0.000818019 0)
(0.0886265 0.000742174 0)
(0.086348 0.000677941 0)
(0.0842164 0.000622741 0)
(0.0822181 0.000574664 0)
(0.0803407 0.000532301 0)
(0.0785735 0.00049461 0)
(0.0769069 0.00046081 0)
(0.0753326 0.000430308 0)
(0.0738429 0.000402639 0)
(0.0724312 0.000377433 0)
(0.0710917 0.000354384 0)
(0.069819 0.000333239 0)
(0.0686084 0.00031378 0)
(0.0674556 0.00029582 0)
(0.066357 0.000279196 0)
(0.065309 0.000263766 0)
(0.0643085 0.000249406 0)
(0.0633529 0.000236007 0)
(0.0624395 0.000223471 0)
(0.0615662 0.000211714 0)
(0.0607308 0.00020066 0)
(0.0599314 0.000190243 0)
(0.0591665 0.000180403 0)
(0.0584345 0.000171086 0)
(0.0577339 0.000162247 0)
(0.0570636 0.000153842 0)
(0.0564224 0.000145832 0)
(0.0558092 0.000138183 0)
(0.0552231 0.000130865 0)
(0.0546634 0.000123847 0)
(0.0541292 0.000117104 0)
(0.0536199 0.000110612 0)
(0.0531348 0.000104349 0)
(0.0526736 9.82946e-05 0)
(0.0522358 9.24299e-05 0)
(0.0518208 8.6738e-05 0)
(0.0514286 8.12034e-05 0)
(0.0510586 7.58125e-05 0)
(0.0507109 7.05537e-05 0)
(0.0503851 6.54171e-05 0)
(0.0500811 6.03939e-05 0)
(0.0497989 5.54742e-05 0)
(0.0495385 5.06434e-05 0)
(0.0493 4.58767e-05 0)
(0.0490834 4.11324e-05 0)
(0.0488893 3.63437e-05 0)
(0.0487183 3.14121e-05 0)
(0.0485711 2.62049e-05 0)
(0.048449 2.05662e-05 0)
(0.0483532 1.43737e-05 0)
(0.0482851 7.64423e-06 0)
(0.0482458 7.81422e-07 0)
(0.0482378 -5.47379e-06 0)
(0.0482555 -9.91296e-06 0)
(0.048292 -1.30595e-05 0)
(0.0483428 -1.53841e-05 0)
(0.0484039 -1.70024e-05 0)
(0.0484722 -1.79479e-05 0)
(0.0485447 -1.82906e-05 0)
(0.0486192 -1.81451e-05 0)
(0.0486937 -1.76287e-05 0)
(0.0487669 -1.68496e-05 0)
(0.0488376 -1.58981e-05 0)
(0.0489051 -1.48459e-05 0)
(0.0489689 -1.37493e-05 0)
(0.0490289 -1.26498e-05 0)
(0.0490848 -1.15769e-05 0)
(0.0491368 -1.05495e-05 0)
(0.0491848 -9.57885e-06 0)
(0.0492291 -8.67012e-06 0)
(0.0492699 -7.82437e-06 0)
(0.0493072 -7.03986e-06 0)
(0.0493413 -6.31358e-06 0)
(0.0493724 -5.64424e-06 0)
(0.0494007 -5.04501e-06 0)
(0.0494265 -4.61178e-06 0)
(0.0494497 -4.8842e-06 0)
(0.0494863 -8.56871e-06 0)
(0.192521 0.00909063 0)
(0.193285 0.0100418 0)
(0.193407 0.0103782 0)
(0.192741 0.0103873 0)
(0.191394 0.0101667 0)
(0.189487 0.00975468 0)
(0.187106 0.00919614 0)
(0.18434 0.00854118 0)
(0.18128 0.00783557 0)
(0.178014 0.00711817 0)
(0.174619 0.00642018 0)
(0.171157 0.00576453 0)
(0.167681 0.0051657 0)
(0.16423 0.00463065 0)
(0.160832 0.00416023 0)
(0.157509 0.003751 0)
(0.154272 0.00339697 0)
(0.151131 0.003091 0)
(0.148089 0.00282585 0)
(0.145148 0.00259486 0)
(0.142307 0.00239223 0)
(0.139564 0.00221314 0)
(0.136919 0.00205366 0)
(0.134368 0.00191068 0)
(0.131909 0.0017817 0)
(0.129539 0.00166476 0)
(0.127255 0.00155828 0)
(0.125053 0.00146096 0)
(0.122933 0.00137176 0)
(0.120889 0.00128977 0)
(0.11892 0.00121422 0)
(0.117024 0.00114447 0)
(0.115196 0.00107993 0)
(0.113435 0.00102008 0)
(0.111739 0.000964466 0)
(0.110104 0.000912691 0)
(0.108529 0.000864387 0)
(0.107011 0.000819229 0)
(0.105548 0.000776925 0)
(0.104138 0.000737215 0)
(0.102779 0.000699862 0)
(0.10147 0.000664657 0)
(0.100209 0.000631407 0)
(0.0989935 0.00059994 0)
(0.0978231 0.000570102 0)
(0.096696 0.000541752 0)
(0.0956111 0.00051476 0)
(0.0945672 0.000489012 0)
(0.0935632 0.000464399 0)
(0.0925981 0.000440826 0)
(0.0916711 0.000418202 0)
(0.0907814 0.000396447 0)
(0.0899283 0.000375483 0)
(0.0891111 0.000355242 0)
(0.0883293 0.000335658 0)
(0.0875825 0.000316672 0)
(0.0868703 0.000298228 0)
(0.0861924 0.000280274 0)
(0.0855485 0.000262765 0)
(0.0849385 0.000245656 0)
(0.0843623 0.000228909 0)
(0.0838199 0.000212487 0)
(0.0833112 0.000196354 0)
(0.0828364 0.000180472 0)
(0.0823958 0.000164789 0)
(0.0819896 0.000149239 0)
(0.0816183 0.000133727 0)
(0.0812825 0.000118126 0)
(0.0809828 0.000102281 0)
(0.0807202 8.60277e-05 0)
(0.0804954 6.9227e-05 0)
(0.0803089 5.18229e-05 0)
(0.0801604 3.38749e-05 0)
(0.0800476 1.5556e-05 0)
(0.0799672 -2.13949e-06 0)
(0.0799287 -1.71571e-05 0)
(0.0799268 -2.80631e-05 0)
(0.0799522 -3.53653e-05 0)
(0.0799983 -4.01835e-05 0)
(0.0800597 -4.31822e-05 0)
(0.080132 -4.46839e-05 0)
(0.0802115 -4.49379e-05 0)
(0.0802951 -4.41918e-05 0)
(0.0803804 -4.27015e-05 0)
(0.0804657 -4.06978e-05 0)
(0.0805495 -3.83714e-05 0)
(0.0806308 -3.58716e-05 0)
(0.0807088 -3.33094e-05 0)
(0.0807832 -3.07643e-05 0)
(0.0808536 -2.82904e-05 0)
(0.0809199 -2.59217e-05 0)
(0.0809822 -2.36773e-05 0)
(0.0810404 -2.15653e-05 0)
(0.0810947 -1.95865e-05 0)
(0.0811451 -1.77388e-05 0)
(0.0811918 -1.60245e-05 0)
(0.081235 -1.4478e-05 0)
(0.081275 -1.32758e-05 0)
(0.0813113 -1.32083e-05 0)
(0.0813561 -1.64561e-05 0)
(0.193561 0.00844801 0)
(0.194682 0.00949213 0)
(0.195706 0.0100494 0)
(0.196417 0.0102951 0)
(0.196793 0.0103093 0)
(0.196837 0.0101239 0)
(0.196546 0.00977442 0)
(0.195925 0.00930354 0)
(0.194997 0.00875318 0)
(0.193798 0.00816078 0)
(0.192372 0.00755816 0)
(0.190759 0.00697056 0)
(0.189 0.00641592 0)
(0.187132 0.00590521 0)
(0.185186 0.00544342 0)
(0.183187 0.00503093 0)
(0.181155 0.00466503 0)
(0.179105 0.00434121 0)
(0.177048 0.00405421 0)
(0.174994 0.00379873 0)
(0.172947 0.00356988 0)
(0.170914 0.0033634 0)
(0.168897 0.0031757 0)
(0.1669 0.00300388 0)
(0.164925 0.00284559 0)
(0.162973 0.00269898 0)
(0.161048 0.00256258 0)
(0.159151 0.00243522 0)
(0.157282 0.00231595 0)
(0.155444 0.00220398 0)
(0.153637 0.00209867 0)
(0.151863 0.00199944 0)
(0.150122 0.00190582 0)
(0.148415 0.00181736 0)
(0.146742 0.00173367 0)
(0.145105 0.00165439 0)
(0.143503 0.0015792 0)
(0.141936 0.00150781 0)
(0.140406 0.00143994 0)
(0.138911 0.00137533 0)
(0.137452 0.00131376 0)
(0.13603 0.00125499 0)
(0.134643 0.00119884 0)
(0.133293 0.00114511 0)
(0.131978 0.00109363 0)
(0.1307 0.00104422 0)
(0.129457 0.000996753 0)
(0.12825 0.000951068 0)
(0.127078 0.000907036 0)
(0.125943 0.000864529 0)
(0.124843 0.00082343 0)
(0.123779 0.000783626 0)
(0.12275 0.000745012 0)
(0.121757 0.000707487 0)
(0.120801 0.000670958 0)
(0.11988 0.000635336 0)
(0.118995 0.000600537 0)
(0.118147 0.000566481 0)
(0.117336 0.000533094 0)
(0.116561 0.000500307 0)
(0.115824 0.000468055 0)
(0.115125 0.000436274 0)
(0.114464 0.000404902 0)
(0.113842 0.000373868 0)
(0.113259 0.00034309 0)
(0.112717 0.000312465 0)
(0.112215 0.000281864 0)
(0.111756 0.000251135 0)
(0.111339 0.000220115 0)
(0.110965 0.000188676 0)
(0.110635 0.00015679 0)
(0.110349 0.000124641 0)
(0.110105 9.27442e-05 0)
(0.109903 6.18372e-05 0)
(0.109737 3.23622e-05 0)
(0.1096 4.91486e-06 0)
(0.109499 -1.9139e-05 0)
(0.10944 -3.80951e-05 0)
(0.109416 -5.14869e-05 0)
(0.109418 -6.03423e-05 0)
(0.109441 -6.5784e-05 0)
(0.109481 -6.8662e-05 0)
(0.109533 -6.95417e-05 0)
(0.109593 -6.88741e-05 0)
(0.10966 -6.70481e-05 0)
(0.109731 -6.4403e-05 0)
(0.109803 -6.12213e-05 0)
(0.109876 -5.77245e-05 0)
(0.109949 -5.40788e-05 0)
(0.11002 -5.0404e-05 0)
(0.11009 -4.67822e-05 0)
(0.110157 -4.32671e-05 0)
(0.110222 -3.9891e-05 0)
(0.110284 -3.66707e-05 0)
(0.110343 -3.3615e-05 0)
(0.110399 -3.07355e-05 0)
(0.110452 -2.80782e-05 0)
(0.110502 -2.58286e-05 0)
(0.110548 -2.46626e-05 0)
(0.110599 -2.57148e-05 0)
(0.194299 0.00794234 0)
(0.19528 0.00892037 0)
(0.196335 0.00951315 0)
(0.197297 0.00983069 0)
(0.198122 0.00994306 0)
(0.198791 0.00987978 0)
(0.199279 0.00966682 0)
(0.199564 0.00933613 0)
(0.199636 0.00892111 0)
(0.199499 0.00845312 0)
(0.199169 0.00796006 0)
(0.198664 0.00746528 0)
(0.198007 0.00698666 0)
(0.197223 0.00653633 0)
(0.196332 0.00612121 0)
(0.195356 0.00574391 0)
(0.19431 0.0054039 0)
(0.193209 0.00509863 0)
(0.192063 0.00482446 0)
(0.19088 0.00457737 0)
(0.189668 0.00435343 0)
(0.18843 0.00414907 0)
(0.187171 0.00396125 0)
(0.185895 0.00378741 0)
(0.184604 0.0036255 0)
(0.1833 0.00347385 0)
(0.181987 0.00333116 0)
(0.180666 0.00319639 0)
(0.179341 0.00306868 0)
(0.178011 0.00294736 0)
(0.176681 0.00283186 0)
(0.175351 0.0027217 0)
(0.174023 0.00261645 0)
(0.1727 0.00251576 0)
(0.171382 0.0024193 0)
(0.170072 0.00232678 0)
(0.16877 0.00223792 0)
(0.167479 0.0021525 0)
(0.166199 0.00207027 0)
(0.164932 0.00199105 0)
(0.163678 0.00191462 0)
(0.16244 0.00184082 0)
(0.161218 0.00176947 0)
(0.160013 0.00170041 0)
(0.158826 0.00163351 0)
(0.157658 0.0015686 0)
(0.15651 0.00150557 0)
(0.155383 0.00144427 0)
(0.154278 0.0013846 0)
(0.153196 0.00132643 0)
(0.152137 0.00126965 0)
(0.151102 0.00121416 0)
(0.150093 0.00115984 0)
(0.149109 0.00110661 0)
(0.148153 0.00105435 0)
(0.147224 0.00100299 0)
(0.146324 0.000952428 0)
(0.145453 0.00090258 0)
(0.144613 0.000853365 0)
(0.143804 0.000804704 0)
(0.143027 0.000756522 0)
(0.142283 0.000708744 0)
(0.141574 0.000661291 0)
(0.1409 0.00061408 0)
(0.140262 0.000567013 0)
(0.139662 0.000519973 0)
(0.1391 0.000472828 0)
(0.138578 0.000425441 0)
(0.138097 0.000377697 0)
(0.137657 0.000329563 0)
(0.137259 0.000281171 0)
(0.136903 0.000232926 0)
(0.136588 0.000185603 0)
(0.136312 0.000140336 0)
(0.136073 9.83693e-05 0)
(0.135869 6.01004e-05 0)
(0.135692 2.53653e-05 0)
(0.135536 -5.25925e-06 0)
(0.135414 -3.08138e-05 0)
(0.135326 -5.05245e-05 0)
(0.135267 -6.4531e-05 0)
(0.135233 -7.38687e-05 0)
(0.135218 -7.95794e-05 0)
(0.13522 -8.25216e-05 0)
(0.135235 -8.3342e-05 0)
(0.135261 -8.25554e-05 0)
(0.135295 -8.05863e-05 0)
(0.135336 -7.77819e-05 0)
(0.135382 -7.44197e-05 0)
(0.135431 -7.07125e-05 0)
(0.135482 -6.68185e-05 0)
(0.135535 -6.28511e-05 0)
(0.135589 -5.88891e-05 0)
(0.135643 -5.49856e-05 0)
(0.135696 -5.11761e-05 0)
(0.135749 -4.74909e-05 0)
(0.1358 -4.398e-05 0)
(0.13585 -4.07757e-05 0)
(0.135897 -3.82116e-05 0)
(0.135947 -3.60411e-05 0)
(0.194929 0.00750799 0)
(0.195736 0.00838151 0)
(0.196659 0.00895911 0)
(0.197574 0.0093007 0)
(0.198433 0.00945984 0)
(0.199217 0.00946341 0)
(0.199903 0.00933258 0)
(0.200468 0.00909283 0)
(0.200897 0.00877174 0)
(0.201184 0.00839591 0)
(0.201333 0.00798941 0)
(0.201351 0.00757289 0)
(0.201249 0.00716275 0)
(0.201042 0.00677078 0)
(0.200745 0.00640438 0)
(0.200371 0.00606719 0)
(0.199932 0.00575999 0)
(0.199439 0.00548154 0)
(0.198899 0.00522943 0)
(0.198319 0.00500066 0)
(0.197705 0.00479213 0)
(0.197059 0.0046009 0)
(0.196385 0.00442435 0)
(0.195684 0.00426024 0)
(0.19496 0.00410672 0)
(0.194213 0.00396226 0)
(0.193445 0.00382564 0)
(0.192658 0.00369587 0)
(0.191853 0.00357217 0)
(0.191031 0.00345388 0)
(0.190194 0.00334046 0)
(0.189344 0.00323148 0)
(0.188481 0.00312655 0)
(0.187607 0.00302535 0)
(0.186724 0.00292758 0)
(0.185832 0.002833 0)
(0.184934 0.00274136 0)
(0.18403 0.00265247 0)
(0.183121 0.00256614 0)
(0.18221 0.00248218 0)
(0.181297 0.00240044 0)
(0.180383 0.00232077 0)
(0.17947 0.00224303 0)
(0.178559 0.00216708 0)
(0.177651 0.0020928 0)
(0.176748 0.00202007 0)
(0.17585 0.00194878 0)
(0.174959 0.00187882 0)
(0.174076 0.00181008 0)
(0.173201 0.00174246 0)
(0.172337 0.00167586 0)
(0.171485 0.00161019 0)
(0.170645 0.00154536 0)
(0.169819 0.00148127 0)
(0.169007 0.00141783 0)
(0.168212 0.00135496 0)
(0.167434 0.00129257 0)
(0.166675 0.00123058 0)
(0.165935 0.00116891 0)
(0.165217 0.00110749 0)
(0.164521 0.00104624 0)
(0.163848 0.000985089 0)
(0.163201 0.000923952 0)
(0.162579 0.000862747 0)
(0.161986 0.000801379 0)
(0.161421 0.00073974 0)
(0.160886 0.000677724 0)
(0.160383 0.000615237 0)
(0.159913 0.000552246 0)
(0.159476 0.000488839 0)
(0.159072 0.000425314 0)
(0.158703 0.000362268 0)
(0.158366 0.000300657 0)
(0.158062 0.000241745 0)
(0.157789 0.000186878 0)
(0.157547 0.000137062 0)
(0.157332 9.287e-05 0)
(0.157142 5.3927e-05 0)
(0.15697 1.98068e-05 0)
(0.156814 -9.24472e-06 0)
(0.156684 -3.30105e-05 0)
(0.156578 -5.13615e-05 0)
(0.156494 -6.47007e-05 0)
(0.15643 -7.391e-05 0)
(0.156383 -7.98525e-05 0)
(0.156351 -8.32565e-05 0)
(0.156332 -8.46983e-05 0)
(0.156323 -8.46371e-05 0)
(0.156324 -8.3446e-05 0)
(0.156333 -8.14242e-05 0)
(0.156348 -7.88077e-05 0)
(0.156369 -7.57778e-05 0)
(0.156394 -7.24709e-05 0)
(0.156423 -6.89876e-05 0)
(0.156454 -6.54015e-05 0)
(0.156488 -6.17691e-05 0)
(0.156524 -5.81414e-05 0)
(0.15656 -5.45691e-05 0)
(0.156596 -5.09858e-05 0)
(0.156634 -4.5766e-05 0)
(0.195483 0.0071371 0)
(0.19615 0.0079071 0)
(0.196935 0.00845293 0)
(0.197746 0.0087993 0)
(0.198538 0.00898235 0)
(0.199287 0.00902535 0)
(0.199975 0.00894686 0)
(0.200582 0.00876823 0)
(0.201096 0.0085129 0)
(0.20151 0.00820381 0)
(0.201824 0.00786192 0)
(0.202041 0.00750545 0)
(0.202168 0.00714918 0)
(0.202215 0.00680419 0)
(0.202193 0.00647788 0)
(0.202112 0.00617442 0)
(0.20198 0.00589542 0)
(0.201805 0.00564061 0)
(0.201594 0.0054085 0)
(0.201353 0.00519691 0)
(0.201084 0.00500342 0)
(0.20079 0.0048256 0)
(0.200474 0.0046612 0)
(0.200136 0.00450824 0)
(0.199779 0.00436504 0)
(0.199402 0.00423017 0)
(0.199007 0.00410248 0)
(0.198594 0.00398102 0)
(0.198164 0.00386499 0)
(0.197717 0.00375378 0)
(0.197255 0.00364683 0)
(0.196777 0.00354372 0)
(0.196284 0.00344406 0)
(0.195778 0.00334753 0)
(0.195258 0.00325385 0)
(0.194727 0.00316276 0)
(0.194183 0.00307404 0)
(0.193629 0.0029875 0)
(0.193064 0.00290295 0)
(0.192491 0.00282023 0)
(0.191909 0.00273918 0)
(0.19132 0.00265966 0)
(0.190724 0.00258154 0)
(0.190123 0.00250469 0)
(0.189516 0.002429 0)
(0.188906 0.00235436 0)
(0.188293 0.00228066 0)
(0.187679 0.00220779 0)
(0.187063 0.00213567 0)
(0.186447 0.00206419 0)
(0.185833 0.00199326 0)
(0.18522 0.0019228 0)
(0.184611 0.0018527 0)
(0.184006 0.0017829 0)
(0.183406 0.00171329 0)
(0.182813 0.0016438 0)
(0.182228 0.00157435 0)
(0.181651 0.00150486 0)
(0.181084 0.00143524 0)
(0.180529 0.00136544 0)
(0.179986 0.00129537 0)
(0.179456 0.00122497 0)
(0.178942 0.00115415 0)
(0.178444 0.00108284 0)
(0.177963 0.00101096 0)
(0.177502 0.000938427 0)
(0.17706 0.000865164 0)
(0.176639 0.000791144 0)
(0.17624 0.000716419 0)
(0.175864 0.000641195 0)
(0.175511 0.00056591 0)
(0.175182 0.000491305 0)
(0.174875 0.000418447 0)
(0.174591 0.00034865 0)
(0.174329 0.000283271 0)
(0.17409 0.000223408 0)
(0.173871 0.00016975 0)
(0.173673 0.000122582 0)
(0.173495 8.18454e-05 0)
(0.173332 4.68177e-05 0)
(0.173182 1.68587e-05 0)
(0.173043 -8.19277e-06 0)
(0.172921 -2.85534e-05 0)
(0.172815 -4.44665e-05 0)
(0.172725 -5.63957e-05 0)
(0.172649 -6.50264e-05 0)
(0.172586 -7.10113e-05 0)
(0.172535 -7.48989e-05 0)
(0.172494 -7.71306e-05 0)
(0.172463 -7.80593e-05 0)
(0.17244 -7.79702e-05 0)
(0.172424 -7.70913e-05 0)
(0.172415 -7.56028e-05 0)
(0.172412 -7.36447e-05 0)
(0.172413 -7.1324e-05 0)
(0.172419 -6.872e-05 0)
(0.172429 -6.58813e-05 0)
(0.172442 -6.27819e-05 0)
(0.172456 -5.90418e-05 0)
(0.172474 -5.21731e-05 0)
(0.195974 0.00681785 0)
(0.196532 0.00749299 0)
(0.197198 0.00799823 0)
(0.197906 0.00833765 0)
(0.198614 0.00853291 0)
(0.199297 0.00860255 0)
(0.199936 0.00856257 0)
(0.200515 0.0084308 0)
(0.201024 0.00822695 0)
(0.201455 0.00797075 0)
(0.201808 0.00768049 0)
(0.202085 0.0073723 0)
(0.202291 0.00705954 0)
(0.202434 0.00675255 0)
(0.202521 0.00645863 0)
(0.202562 0.00618228 0)
(0.202563 0.00592574 0)
(0.202531 0.00568949 0)
(0.202473 0.00547282 0)
(0.202392 0.00527427 0)
(0.202292 0.00509201 0)
(0.202175 0.00492411 0)
(0.202043 0.00476869 0)
(0.201897 0.00462403 0)
(0.201738 0.00448863 0)
(0.201566 0.00436118 0)
(0.201382 0.00424059 0)
(0.201186 0.00412595 0)
(0.200979 0.0040165 0)
(0.20076 0.00391161 0)
(0.20053 0.00381073 0)
(0.200288 0.00371342 0)
(0.200036 0.00361929 0)
(0.199773 0.003528 0)
(0.199499 0.00343926 0)
(0.199215 0.00335282 0)
(0.198922 0.00326843 0)
(0.198618 0.00318589 0)
(0.198306 0.00310501 0)
(0.197984 0.00302562 0)
(0.197654 0.00294755 0)
(0.197316 0.00287066 0)
(0.19697 0.00279482 0)
(0.196617 0.00271988 0)
(0.196258 0.00264573 0)
(0.195892 0.00257226 0)
(0.195521 0.00249934 0)
(0.195144 0.00242688 0)
(0.194764 0.00235478 0)
(0.194379 0.00228292 0)
(0.193992 0.00221123 0)
(0.193602 0.00213959 0)
(0.193211 0.00206792 0)
(0.192819 0.00199614 0)
(0.192426 0.00192414 0)
(0.192035 0.00185185 0)
(0.191645 0.00177918 0)
(0.191257 0.00170605 0)
(0.190873 0.00163238 0)
(0.190493 0.0015581 0)
(0.190118 0.00148313 0)
(0.189749 0.00140741 0)
(0.189388 0.00133086 0)
(0.189035 0.00125342 0)
(0.188691 0.00117502 0)
(0.188356 0.00109559 0)
(0.188033 0.00101511 0)
(0.187722 0.000933615 0)
(0.187423 0.000851229 0)
(0.187136 0.000768252 0)
(0.186863 0.000685222 0)
(0.186603 0.000602963 0)
(0.186357 0.000522586 0)
(0.186123 0.000445408 0)
(0.185903 0.000372752 0)
(0.185697 0.000305714 0)
(0.185504 0.000245035 0)
(0.185325 0.000191111 0)
(0.185159 0.000143967 0)
(0.185007 0.000103368 0)
(0.184867 6.88861e-05 0)
(0.184738 3.97013e-05 0)
(0.184617 1.50911e-05 0)
(0.184504 -5.34131e-06 0)
(0.184401 -2.19825e-05 0)
(0.184309 -3.52002e-05 0)
(0.184227 -4.54219e-05 0)
(0.184154 -5.31529e-05 0)
(0.18409 -5.88564e-05 0)
(0.184035 -6.29182e-05 0)
(0.183987 -6.56498e-05 0)
(0.183946 -6.73016e-05 0)
(0.183911 -6.80755e-05 0)
(0.183882 -6.81326e-05 0)
(0.183858 -6.75993e-05 0)
(0.183839 -6.65674e-05 0)
(0.183824 -6.50806e-05 0)
(0.183813 -6.30635e-05 0)
(0.183805 -5.99961e-05 0)
(0.183798 -5.33663e-05 0)
(0.196409 0.00653742 0)
(0.196884 0.00712836 0)
(0.197452 0.0075897 0)
(0.198067 0.00791519 0)
(0.198694 0.00811571 0)
(0.199307 0.00820468 0)
(0.199889 0.0081952 0)
(0.200425 0.0081019 0)
(0.200903 0.00794117 0)
(0.201319 0.00772976 0)
(0.20167 0.00748357 0)
(0.201958 0.00721681 0)
(0.202186 0.00694155 0)
(0.20236 0.00666739 0)
(0.202487 0.0064014 0)
(0.202575 0.00614828 0)
(0.202629 0.00591073 0)
(0.202657 0.00568986 0)
(0.202662 0.00548559 0)
(0.202649 0.00529713 0)
(0.202622 0.00512318 0)
(0.202583 0.00496229 0)
(0.202533 0.00481295 0)
(0.202474 0.00467371 0)
(0.202408 0.00454328 0)
(0.202334 0.0044205 0)
(0.202252 0.00430437 0)
(0.202165 0.00419403 0)
(0.20207 0.00408877 0)
(0.201969 0.00398797 0)
(0.201861 0.00389111 0)
(0.201747 0.00379772 0)
(0.201627 0.00370743 0)
(0.2015 0.0036199 0)
(0.201367 0.00353481 0)
(0.201227 0.00345191 0)
(0.201081 0.00337095 0)
(0.200929 0.00329172 0)
(0.200771 0.00321401 0)
(0.200607 0.00313765 0)
(0.200437 0.00306246 0)
(0.200261 0.00298828 0)
(0.20008 0.00291497 0)
(0.199893 0.00284239 0)
(0.199701 0.00277041 0)
(0.199504 0.00269889 0)
(0.199302 0.00262773 0)
(0.199095 0.00255679 0)
(0.198884 0.00248598 0)
(0.198669 0.00241518 0)
(0.198451 0.00234429 0)
(0.198229 0.0022732 0)
(0.198004 0.00220181 0)
(0.197777 0.00213003 0)
(0.197548 0.00205775 0)
(0.197317 0.00198489 0)
(0.197085 0.00191136 0)
(0.196853 0.00183706 0)
(0.19662 0.00176192 0)
(0.196388 0.00168586 0)
(0.196157 0.00160879 0)
(0.195928 0.00153066 0)
(0.195701 0.00145139 0)
(0.195476 0.00137093 0)
(0.195256 0.00128921 0)
(0.195039 0.00120621 0)
(0.194827 0.00112194 0)
(0.194619 0.00103647 0)
(0.194417 0.000950002 0)
(0.194221 0.00086289 0)
(0.194029 0.000775729 0)
(0.193844 0.000689371 0)
(0.193664 0.000604919 0)
(0.193489 0.000523641 0)
(0.193321 0.0004468 0)
(0.193159 0.000375461 0)
(0.193005 0.000310378 0)
(0.192858 0.000251973 0)
(0.19272 0.000200351 0)
(0.19259 0.000155378 0)
(0.192468 0.000116687 0)
(0.192355 8.37646e-05 0)
(0.19225 5.60358e-05 0)
(0.192151 3.27515e-05 0)
(0.192059 1.32376e-05 0)
(0.191972 -2.95611e-06 0)
(0.191891 -1.62239e-05 0)
(0.191817 -2.69248e-05 0)
(0.19175 -3.54119e-05 0)
(0.191688 -4.20462e-05 0)
(0.191631 -4.71469e-05 0)
(0.19158 -5.09776e-05 0)
(0.191534 -5.37525e-05 0)
(0.191492 -5.56433e-05 0)
(0.191454 -5.6786e-05 0)
(0.19142 -5.72791e-05 0)
(0.191389 -5.71654e-05 0)
(0.191362 -5.6359e-05 0)
(0.191338 -5.43771e-05 0)
(0.191313 -4.93824e-05 0)
(0.196796 0.00628702 0)
(0.197205 0.00680482 0)
(0.197692 0.0072227 0)
(0.198227 0.00753016 0)
(0.19878 0.00773084 0)
(0.199329 0.00783346 0)
(0.199854 0.00784822 0)
(0.200344 0.00778694 0)
(0.200788 0.00766305 0)
(0.20118 0.00749063 0)
(0.201517 0.00728331 0)
(0.201799 0.00705356 0)
(0.20203 0.00681216 0)
(0.202214 0.00656792 0)
(0.202356 0.00632759 0)
(0.202463 0.00609592 0)
(0.202539 0.00587592 0)
(0.202591 0.00566917 0)
(0.202623 0.00547615 0)
(0.202639 0.00529658 0)
(0.202642 0.0051297 0)
(0.202635 0.00497447 0)
(0.20262 0.00482973 0)
(0.202598 0.00469435 0)
(0.20257 0.00456721 0)
(0.202537 0.00444734 0)
(0.2025 0.00433384 0)
(0.202459 0.00422596 0)
(0.202415 0.00412302 0)
(0.202367 0.00402444 0)
(0.202316 0.00392974 0)
(0.202261 0.00383847 0)
(0.202203 0.00375025 0)
(0.202143 0.00366476 0)
(0.202079 0.00358169 0)
(0.202012 0.00350078 0)
(0.201942 0.00342178 0)
(0.201868 0.00334448 0)
(0.201792 0.00326868 0)
(0.201713 0.00319418 0)
(0.20163 0.00312081 0)
(0.201545 0.00304841 0)
(0.201456 0.00297683 0)
(0.201364 0.00290591 0)
(0.201269 0.00283552 0)
(0.201172 0.00276553 0)
(0.201071 0.00269581 0)
(0.200968 0.00262623 0)
(0.200861 0.00255667 0)
(0.200752 0.00248702 0)
(0.200641 0.00241715 0)
(0.200527 0.00234697 0)
(0.200411 0.00227636 0)
(0.200292 0.00220522 0)
(0.200172 0.00213344 0)
(0.200049 0.00206092 0)
(0.199926 0.00198756 0)
(0.1998 0.00191328 0)
(0.199674 0.00183799 0)
(0.199547 0.00176159 0)
(0.199419 0.00168402 0)
(0.19929 0.00160521 0)
(0.199162 0.00152508 0)
(0.199033 0.00144359 0)
(0.198905 0.00136069 0)
(0.198778 0.00127639 0)
(0.198651 0.00119072 0)
(0.198525 0.00110379 0)
(0.1984 0.00101583 0)
(0.198275 0.000927251 0)
(0.198151 0.000838655 0)
(0.198028 0.000750882 0)
(0.197905 0.000664988 0)
(0.197782 0.000582158 0)
(0.197661 0.00050357 0)
(0.197542 0.000430235 0)
(0.197425 0.000362894 0)
(0.197311 0.000301989 0)
(0.197202 0.000247674 0)
(0.197097 0.000199865 0)
(0.196997 0.000158274 0)
(0.196903 0.00012248 0)
(0.196814 9.19575e-05 0)
(0.196731 6.61327e-05 0)
(0.196653 4.44371e-05 0)
(0.19658 2.62569e-05 0)
(0.196511 1.10452e-05 0)
(0.196445 -1.59889e-06 0)
(0.196384 -1.20135e-05 0)
(0.196326 -2.04983e-05 0)
(0.196272 -2.73262e-05 0)
(0.196222 -3.27527e-05 0)
(0.196174 -3.69976e-05 0)
(0.19613 -4.0242e-05 0)
(0.196088 -4.26307e-05 0)
(0.196049 -4.427e-05 0)
(0.196012 -4.52113e-05 0)
(0.195978 -4.53953e-05 0)
(0.195945 -4.4492e-05 0)
(0.19591 -4.15861e-05 0)
(0.197143 0.00606072 0)
(0.197498 0.00651565 0)
(0.197918 0.00689249 0)
(0.198384 0.00717976 0)
(0.198871 0.00737669 0)
(0.19936 0.00748827 0)
(0.199833 0.00752202 0)
(0.200279 0.00748728 0)
(0.200688 0.00739491 0)
(0.201053 0.00725658 0)
(0.201373 0.00708387 0)
(0.201645 0.00688758 0)
(0.201873 0.00667724 0)
(0.202059 0.00646085 0)
(0.202207 0.00624476 0)
(0.202322 0.00603362 0)
(0.202409 0.00583063 0)
(0.202473 0.00563771 0)
(0.202519 0.00545576 0)
(0.202548 0.00528496 0)
(0.202566 0.00512497 0)
(0.202573 0.00497515 0)
(0.202573 0.00483467 0)
(0.202567 0.00470266 0)
(0.202555 0.00457824 0)
(0.20254 0.00446058 0)
(0.202521 0.00434893 0)
(0.202499 0.00424262 0)
(0.202475 0.00414104 0)
(0.202449 0.00404368 0)
(0.202421 0.00395007 0)
(0.202392 0.00385982 0)
(0.202361 0.00377255 0)
(0.202328 0.00368796 0)
(0.202295 0.00360576 0)
(0.20226 0.0035257 0)
(0.202224 0.00344753 0)
(0.202186 0.00337104 0)
(0.202148 0.00329604 0)
(0.202108 0.00322233 0)
(0.202067 0.00314976 0)
(0.202025 0.00307815 0)
(0.201982 0.00300735 0)
(0.201938 0.00293721 0)
(0.201893 0.00286759 0)
(0.201846 0.00279836 0)
(0.201798 0.00272938 0)
(0.201749 0.00266053 0)
(0.201699 0.00259168 0)
(0.201647 0.00252272 0)
(0.201595 0.00245351 0)
(0.201541 0.00238396 0)
(0.201485 0.00231394 0)
(0.201429 0.00224335 0)
(0.201371 0.00217207 0)
(0.201313 0.00210001 0)
(0.201253 0.00202706 0)
(0.201192 0.00195314 0)
(0.201129 0.00187813 0)
(0.201066 0.00180198 0)
(0.201002 0.00172458 0)
(0.200937 0.00164589 0)
(0.20087 0.00156583 0)
(0.200803 0.00148437 0)
(0.200735 0.00140147 0)
(0.200666 0.00131716 0)
(0.200595 0.00123149 0)
(0.200523 0.0011446 0)
(0.20045 0.00105677 0)
(0.200375 0.000968383 0)
(0.200297 0.000880056 0)
(0.200218 0.000792587 0)
(0.200136 0.000706958 0)
(0.200052 0.000624256 0)
(0.199966 0.000545562 0)
(0.19988 0.000471814 0)
(0.199793 0.000403723 0)
(0.199706 0.000341734 0)
(0.199621 0.000286038 0)
(0.199538 0.000236599 0)
(0.199458 0.000193194 0)
(0.199381 0.000155462 0)
(0.199307 0.000122948 0)
(0.199238 9.51491e-05 0)
(0.199172 7.15414e-05 0)
(0.19911 5.16049e-05 0)
(0.199051 3.48564e-05 0)
(0.198996 2.0827e-05 0)
(0.198943 9.10519e-06 0)
(0.198892 -6.2787e-07 0)
(0.198845 -8.6411e-06 0)
(0.198799 -1.51695e-05 0)
(0.198756 -2.04179e-05 0)
(0.198714 -2.45686e-05 0)
(0.198674 -2.77746e-05 0)
(0.198635 -3.01537e-05 0)
(0.198598 -3.17761e-05 0)
(0.198561 -3.26331e-05 0)
(0.198527 -3.25842e-05 0)
(0.198487 -3.14853e-05 0)
(0.197454 0.00585433 0)
(0.197764 0.00625543 0)
(0.198129 0.00659459 0)
(0.198535 0.00686093 0)
(0.198964 0.00705138 0)
(0.199398 0.00716813 0)
(0.199823 0.00721643 0)
(0.200227 0.00720345 0)
(0.200602 0.00713786 0)
(0.200942 0.00702921 0)
(0.201242 0.0068872 0)
(0.201503 0.00672109 0)
(0.201724 0.00653924 0)
(0.201908 0.00634883 0)
(0.202058 0.00615571 0)
(0.202178 0.00596439 0)
(0.202272 0.0057781 0)
(0.202344 0.00559898 0)
(0.202397 0.00542826 0)
(0.202436 0.00526648 0)
(0.202462 0.00511367 0)
(0.202478 0.00496952 0)
(0.202486 0.0048335 0)
(0.202488 0.00470498 0)
(0.202485 0.00458331 0)
(0.202477 0.00446781 0)
(0.202467 0.00435787 0)
(0.202454 0.00425291 0)
(0.202438 0.00415242 0)
(0.202421 0.00405592 0)
(0.202403 0.00396301 0)
(0.202384 0.00387331 0)
(0.202363 0.00378649 0)
(0.202342 0.00370226 0)
(0.202321 0.00362036 0)
(0.202299 0.00354053 0)
(0.202277 0.00346257 0)
(0.202254 0.00338625 0)
(0.202231 0.0033114 0)
(0.202208 0.00323784 0)
(0.202185 0.00316539 0)
(0.202162 0.00309391 0)
(0.202139 0.00302323 0)
(0.202116 0.00295322 0)
(0.202092 0.00288374 0)
(0.202069 0.00281465 0)
(0.202045 0.00274583 0)
(0.202021 0.00267715 0)
(0.201997 0.00260848 0)
(0.201973 0.00253971 0)
(0.201949 0.00247071 0)
(0.201924 0.00240138 0)
(0.201899 0.00233159 0)
(0.201873 0.00226124 0)
(0.201847 0.00219022 0)
(0.201821 0.00211843 0)
(0.201794 0.00204577 0)
(0.201766 0.00197214 0)
(0.201738 0.00189746 0)
(0.201709 0.00182163 0)
(0.201679 0.00174459 0)
(0.201648 0.00166628 0)
(0.201616 0.00158664 0)
(0.201583 0.00150564 0)
(0.201548 0.00142326 0)
(0.201512 0.00133955 0)
(0.201474 0.00125457 0)
(0.201434 0.0011685 0)
(0.201391 0.0010816 0)
(0.201345 0.000994292 0)
(0.201296 0.000907141 0)
(0.201244 0.000820901 0)
(0.201188 0.00073647 0)
(0.201129 0.000654835 0)
(0.201066 0.000576971 0)
(0.201002 0.000503741 0)
(0.200935 0.000435813 0)
(0.200867 0.000373625 0)
(0.2008 0.00031739 0)
(0.200733 0.000267112 0)
(0.200667 0.000222626 0)
(0.200603 0.000183631 0)
(0.200541 0.000149733 0)