/*--------------------------------*- C++ -*----------------------------------*\
| =========                 |                                                 |
| \\      /  F ield         | OpenFOAM: The Open Source CFD Toolbox           |
|  \\    /   O peration     | Version:  2.3.0                                 |
|   \\  /    A nd           | Web:      www.OpenFOAM.org                      |
|    \\/     M anipulation  |                                                 |
\*---------------------------------------------------------------------------*/
FoamFile
{
    version     2.0;
    format      ascii;
    class       volVectorField;
    location    "0.85";
    object      U_0;
}
// * * * * * * * * * * * * * * * * * * * * * * * * * * * * * * * * * * * * * //

dimensions      [0 1 -1 0 0 0 0];

internalField   nonuniform List<vector> 
2945
(
(0.160864 0.00623854 0)
(0.121927 0.00658578 0)
(0.0902673 0.00468609 0)
(0.0670998 0.00259336 0)
(0.0524454 0.00111102 0)
(0.0437229 0.000363242 0)
(0.038446 9.76924e-05 0)
(0.0350849 4.29784e-05 0)
(0.0327151 5.5841e-05 0)
(0.0308339 7.56793e-05 0)
(0.0292182 8.43883e-05 0)
(0.0277889 8.25252e-05 0)
(0.0265186 7.54288e-05 0)
(0.0253892 6.7318e-05 0)
(0.0243816 6.00414e-05 0)
(0.0234765 5.39441e-05 0)
(0.0226574 4.88404e-05 0)
(0.0219107 4.44884e-05 0)
(0.0212259 4.07035e-05 0)
(0.0205947 3.73762e-05 0)
(0.0200105 3.44233e-05 0)
(0.0194678 3.1794e-05 0)
(0.0189618 2.94444e-05 0)
(0.018489 2.73338e-05 0)
(0.0180456 2.54389e-05 0)
(0.0176292 2.3723e-05 0)
(0.0172367 2.21723e-05 0)
(0.0168665 2.07598e-05 0)
(0.0165161 1.94752e-05 0)
(0.0161845 1.82976e-05 0)
(0.0158692 1.72236e-05 0)
(0.0155702 1.62313e-05 0)
(0.0152847 1.53267e-05 0)
(0.0150135 1.44822e-05 0)
(0.0147535 1.37163e-05 0)
(0.0145061 1.29899e-05 0)
(0.0142679 1.23379e-05 0)
(0.0140413 1.17091e-05 0)
(0.0138221 1.11492e-05 0)
(0.0136137 1.06017e-05 0)
(0.0134109 1.01212e-05 0)
(0.0132185 9.63618e-06 0)
(0.0130301 9.22868e-06 0)
(0.012852 8.79229e-06 0)
(0.0126761 8.4459e-06 0)
(0.0125108 8.05367e-06 0)
(0.0123459 7.75686e-06 0)
(0.0121921 7.3991e-06 0)
(0.0120367 7.1523e-06 0)
(0.0118936 6.81513e-06 0)
(0.0117464 6.61919e-06 0)
(0.0116132 6.29503e-06 0)
(0.0114731 6.14718e-06 0)
(0.0113491 5.83033e-06 0)
(0.0112149 5.72577e-06 0)
(0.0110997 5.41388e-06 0)
(0.0109703 5.35476e-06 0)
(0.0108637 5.03191e-06 0)
(0.010738 5.03425e-06 0)
(0.0106399 4.68922e-06 0)
(0.0105167 4.74567e-06 0)
(0.0104271 4.38373e-06 0)
(0.0103051 4.49992e-06 0)
(0.0102243 4.09637e-06 0)
(0.0101021 4.30636e-06 0)
(0.0100305 3.83795e-06 0)
(0.00990621 4.14591e-06 0)
(0.0098447 3.60843e-06 0)
(0.00971614 4.03881e-06 0)
(0.00966577 3.39686e-06 0)
(0.00953006 4.00107e-06 0)
(0.00949252 3.20681e-06 0)
(0.0093453 4.05418e-06 0)
(0.00932418 3.04571e-06 0)
(0.00915406 4.85032e-06 0)
(0.190301 0.0112381 0)
(0.182785 0.0137179 0)
(0.171673 0.0121788 0)
(0.157825 0.00927033 0)
(0.143403 0.00631873 0)
(0.129937 0.00404025 0)
(0.118209 0.00257129 0)
(0.108535 0.00172558 0)
(0.100751 0.00126359 0)
(0.094446 0.00100593 0)
(0.0892091 0.000846703 0)
(0.084739 0.000732624 0)
(0.0808445 0.000641234 0)
(0.0774045 0.000564949 0)
(0.0743356 0.000501133 0)
(0.0715755 0.000447909 0)
(0.0690748 0.000403299 0)
(0.0667947 0.000365495 0)
(0.0647037 0.000333018 0)
(0.0627768 0.000304821 0)
(0.060993 0.000280092 0)
(0.059336 0.00025827 0)
(0.0577908 0.000238889 0)
(0.0563463 0.00022159 0)
(0.0549912 0.000206083 0)
(0.0537181 0.000192115 0)
(0.0525175 0.000179489 0)
(0.0513849 0.000168035 0)
(0.0503121 0.000157604 0)
(0.0492967 0.000148084 0)
(0.0483308 0.000139366 0)
(0.0474144 0.000131363 0)
(0.0465392 0.000124007 0)
(0.0457074 0.000117214 0)
(0.0449096 0.000110958 0)
(0.0441507 0.000105139 0)
(0.0434196 9.97792e-05 0)
(0.0427242 9.47606e-05 0)
(0.042051 9.01331e-05 0)
(0.0414111 8.57793e-05 0)
(0.0407883 8.17665e-05 0)
(0.0401977 7.7952e-05 0)
(0.0396188 7.44728e-05 0)
(0.0390721 7.11004e-05 0)
(0.0385317 6.80688e-05 0)
(0.0380244 6.50805e-05 0)
(0.0375177 6.24196e-05 0)
(0.0370463 5.97518e-05 0)
(0.0365689 5.74278e-05 0)
(0.0361305 5.50096e-05 0)
(0.0356786 5.29973e-05 0)
(0.0352707 5.07812e-05 0)
(0.0348408 4.90485e-05 0)
(0.0344617 4.69976e-05 0)
(0.0340503 4.55097e-05 0)
(0.0336987 4.36031e-05 0)
(0.0333024 4.23475e-05 0)
(0.0329776 4.05269e-05 0)
(0.0325931 3.9538e-05 0)
(0.0322949 3.77575e-05 0)
(0.0319186 3.70023e-05 0)
(0.0316472 3.52747e-05 0)
(0.0312752 3.47559e-05 0)
(0.0310316 3.30077e-05 0)
(0.0306595 3.282e-05 0)
(0.0304452 3.09777e-05 0)
(0.0300678 3.113e-05 0)
(0.0298853 2.91902e-05 0)
(0.0294962 2.97457e-05 0)
(0.029349 2.76243e-05 0)
(0.0289399 2.87246e-05 0)
(0.0288332 2.63262e-05 0)
(0.0283919 2.81404e-05 0)
(0.0283356 2.54411e-05 0)
(0.0278387 3.01568e-05 0)
(0.191274 0.0103303 0)
(0.192717 0.0140685 0)
(0.193364 0.0139466 0)
(0.191018 0.0119329 0)
(0.185756 0.0094949 0)
(0.178656 0.00740024 0)
(0.170792 0.00582506 0)
(0.162963 0.00467746 0)
(0.155577 0.00382742 0)
(0.148759 0.00318575 0)
(0.1425 0.00269592 0)
(0.136754 0.00231606 0)
(0.131478 0.0020147 0)
(0.126635 0.00177028 0)
(0.122185 0.00156898 0)
(0.118093 0.00140155 0)
(0.11432 0.00126099 0)
(0.110831 0.00114181 0)
(0.107595 0.00103962 0)
(0.104586 0.000951153 0)
(0.101777 0.000873807 0)
(0.0991504 0.000805736 0)
(0.0966855 0.000745376 0)
(0.0943694 0.000691591 0)
(0.0921856 0.000643382 0)
(0.0901257 0.000600009 0)
(0.088175 0.000560775 0)
(0.0863291 0.000525214 0)
(0.0845742 0.000492793 0)
(0.0829094 0.000463231 0)
(0.0813207 0.000436105 0)
(0.0798106 0.000411248 0)
(0.0783642 0.000388317 0)
(0.0769877 0.000367212 0)
(0.075664 0.00034766 0)
(0.0744038 0.000329584 0)
(0.0731866 0.000312784 0)
(0.0720284 0.000297197 0)
(0.0709041 0.00028265 0)
(0.0698361 0.000269131 0)
(0.0687932 0.000256464 0)
(0.0678054 0.000244651 0)
(0.0668339 0.000233586 0)
(0.0659182 0.000223193 0)
(0.0650095 0.000213474 0)
(0.0641589 0.000204305 0)
(0.0633053 0.000195706 0)
(0.0625142 0.000187577 0)
(0.061709 0.000179961 0)
(0.0609728 0.00017269 0)
(0.0602095 0.00016595 0)
(0.0595247 0.000159403 0)
(0.0587976 0.000153428 0)
(0.0581613 0.000147501 0)
(0.0574647 0.000142184 0)
(0.0568751 0.000136813 0)
(0.0562036 0.000132086 0)
(0.0556596 0.000127151 0)
(0.0550076 0.000123036 0)
(0.054509 0.000118439 0)
(0.0538706 0.000114848 0)
(0.0534182 0.000110605 0)
(0.052787 0.000107507 0)
(0.0523824 0.000103501 0)
(0.0517512 0.000101025 0)
(0.0513973 9.71353e-05 0)
(0.0507577 9.52732e-05 0)
(0.0504586 9.15234e-05 0)
(0.0498003 9.03442e-05 0)
(0.049562 8.66517e-05 0)
(0.0488718 8.63437e-05 0)
(0.0487032 8.26569e-05 0)
(0.0479628 8.34464e-05 0)
(0.0478774 7.98907e-05 0)
(0.0470596 8.55396e-05 0)
(0.191874 0.00900406 0)
(0.193592 0.01257 0)
(0.196724 0.0132352 0)
(0.198864 0.0120173 0)
(0.198878 0.0102288 0)
(0.196954 0.00861159 0)
(0.193754 0.00735598 0)
(0.189898 0.00638524 0)
(0.185753 0.00559932 0)
(0.181486 0.00494415 0)
(0.177166 0.00439434 0)
(0.172836 0.00393039 0)
(0.168538 0.00353398 0)
(0.164315 0.00319063 0)
(0.1602 0.00289074 0)
(0.156217 0.00262809 0)
(0.15238 0.0023977 0)
(0.148698 0.00219526 0)
(0.145171 0.00201664 0)
(0.1418 0.00185853 0)
(0.138579 0.0017178 0)
(0.135506 0.00159218 0)
(0.132571 0.00147946 0)
(0.129771 0.00137806 0)
(0.127094 0.00128638 0)
(0.124541 0.00120334 0)
(0.122095 0.00112772 0)
(0.119761 0.00105885 0)
(0.117521 0.000995708 0)
(0.115381 0.000937935 0)
(0.113323 0.000884648 0)
(0.111357 0.000835709 0)
(0.10946 0.000790327 0)
(0.107648 0.000748521 0)
(0.105894 0.000709567 0)
(0.10422 0.000673585 0)
(0.102593 0.000639908 0)
(0.101043 0.000608752 0)
(0.0995282 0.00057943 0)
(0.0980892 0.000552316 0)
(0.096675 0.00052664 0)
(0.0953369 0.0005029 0)
(0.0940118 0.000480329 0)
(0.0927656 0.000459431 0)
(0.0915197 0.000439474 0)
(0.0903579 0.000421035 0)
(0.0891822 0.000403267 0)
(0.0880983 0.000386941 0)
(0.0869845 0.000371073 0)
(0.0859734 0.000356531 0)
(0.0849137 0.00034233 0)
(0.0839714 0.000329327 0)
(0.0829583 0.000316564 0)
(0.0820818 0.000304908 0)
(0.0811083 0.000293367 0)
(0.0802956 0.000282931 0)
(0.0793544 0.000272456 0)
(0.0786046 0.000263049 0)
(0.0776883 0.000253616 0)
(0.0770018 0.000245082 0)
(0.0761025 0.000236517 0)
(0.0754805 0.000228879 0)
(0.0745899 0.000221083 0)
(0.0740352 0.000214183 0)
(0.0731435 0.000207293 0)
(0.0726603 0.000200982 0)
(0.0717564 0.000194931 0)
(0.0713508 0.000189288 0)
(0.0704211 0.000184117 0)
(0.0701013 0.000179094 0)
(0.069129 0.00017501 0)
(0.0689062 0.000170613 0)
(0.0678694 0.000167998 0)
(0.0677581 0.000164265 0)
(0.0666307 0.000168223 0)
(0.192839 0.00822195 0)
(0.194048 0.0112191 0)
(0.19684 0.0122183 0)
(0.199702 0.0114813 0)
(0.201389 0.0100887 0)
(0.201684 0.00877338 0)
(0.200947 0.00775671 0)
(0.199617 0.00697956 0)
(0.19796 0.00634475 0)
(0.196075 0.00580042 0)
(0.193985 0.00532772 0)
(0.191701 0.00491534 0)
(0.189244 0.00455049 0)
(0.186651 0.00422208 0)
(0.183953 0.00392291 0)
(0.181185 0.00364934 0)
(0.178369 0.00339897 0)
(0.175535 0.00317001 0)
(0.172694 0.00296027 0)
(0.169871 0.00276818 0)
(0.167072 0.00259171 0)
(0.164315 0.00242974 0)
(0.1616 0.00228059 0)
(0.158944 0.00214342 0)
(0.15634 0.00201679 0)
(0.153805 0.00190011 0)
(0.151326 0.00179204 0)
(0.148921 0.00169231 0)
(0.146572 0.00159961 0)
(0.1443 0.00151393 0)
(0.142081 0.00143398 0)
(0.13994 0.00136001 0)
(0.137845 0.00129068 0)
(0.135831 0.0012265 0)
(0.133855 0.00116609 0)
(0.131961 0.00111013 0)
(0.130097 0.00105723 0)
(0.128316 0.00100826 0)
(0.126556 0.000961685 0)
(0.124882 0.000918691 0)
(0.123217 0.00087749 0)
(0.121644 0.00083958 0)
(0.120066 0.000803012 0)
(0.118588 0.000769458 0)
(0.11709 0.000736833 0)
(0.1157 0.000707101 0)
(0.114274 0.000677809 0)
(0.112969 0.000651409 0)
(0.111607 0.000625016 0)
(0.110384 0.000601485 0)
(0.109078 0.000577626 0)
(0.107933 0.000556616 0)
(0.106676 0.000534936 0)
(0.105607 0.000516169 0)
(0.104392 0.000496333 0)
(0.103398 0.000479623 0)
(0.102217 0.00046137 0)
(0.101299 0.000446461 0)
(0.100143 0.000429704 0)
(0.0993013 0.000416387 0)
(0.0981622 0.000400845 0)
(0.0973996 0.000389153 0)
(0.0962672 0.000374644 0)
(0.0955879 0.00036439 0)
(0.0944509 0.000351032 0)
(0.0938608 0.000342054 0)
(0.092706 0.0003297 0)
(0.0922128 0.000322137 0)
(0.0910248 0.000310798 0)
(0.0906385 0.000304628 0)
(0.0893984 0.00029456 0)
(0.0891315 0.00028977 0)
(0.0878166 0.000281689 0)
(0.0876828 0.000278034 0)
(0.0862687 0.000277885 0)
(0.193631 0.00777195 0)
(0.194617 0.0102074 0)
(0.196835 0.0113464 0)
(0.199425 0.0109471 0)
(0.201353 0.0098163 0)
(0.202283 0.00866556 0)
(0.202425 0.00776926 0)
(0.202137 0.00710105 0)
(0.201646 0.00656647 0)
(0.20103 0.00610825 0)
(0.200279 0.00570707 0)
(0.199378 0.00535583 0)
(0.198313 0.005045 0)
(0.197101 0.0047644 0)
(0.195746 0.00450601 0)
(0.194271 0.00426584 0)
(0.19268 0.00404133 0)
(0.190996 0.0038314 0)
(0.189222 0.00363428 0)
(0.187382 0.00344931 0)
(0.185475 0.0032749 0)
(0.183529 0.00311089 0)
(0.181536 0.00295594 0)
(0.179527 0.00281016 0)
(0.177489 0.0026723 0)
(0.175454 0.00254266 0)
(0.173403 0.00241991 0)
(0.171371 0.00230464 0)
(0.169332 0.00219531 0)
(0.167328 0.00209282 0)
(0.16532 0.00199542 0)
(0.163359 0.00190428 0)
(0.161397 0.00181744 0)
(0.159491 0.00173634 0)
(0.157583 0.0016588 0)
(0.155741 0.00158657 0)
(0.153892 0.00151721 0)
(0.152119 0.00145283 0)
(0.150331 0.00139063 0)
(0.148631 0.00133323 0)
(0.146905 0.0012773 0)
(0.145278 0.00122603 0)
(0.143613 0.00117565 0)
(0.142061 0.00112978 0)
(0.140454 0.00108423 0)
(0.138977 0.00104321 0)
(0.137424 0.0010018 0)
(0.136022 0.00096512 0)
(0.13452 0.000927369 0)
(0.133192 0.00089451 0)
(0.131734 0.000859974 0)
(0.130481 0.000830545 0)
(0.129064 0.00079879 0)
(0.127886 0.000772474 0)
(0.126502 0.000743075 0)
(0.125402 0.000719666 0)
(0.124043 0.000692275 0)
(0.123022 0.00067148 0)
(0.121682 0.000645957 0)
(0.120744 0.000627535 0)
(0.119413 0.000603505 0)
(0.118562 0.000587517 0)
(0.117231 0.000564712 0)
(0.116472 0.000550956 0)
(0.115129 0.00052948 0)
(0.11447 0.000517789 0)
(0.113102 0.000497423 0)
(0.112552 0.000487987 0)
(0.111142 0.000468745 0)
(0.110713 0.000461529 0)
(0.109242 0.000443785 0)
(0.108946 0.000438668 0)
(0.107394 0.000423568 0)
(0.107244 0.000420044 0)
(0.105586 0.000413762 0)
(0.194281 0.00746077 0)
(0.195154 0.00941685 0)
(0.196941 0.0105629 0)
(0.199153 0.0104277 0)
(0.200976 0.00952849 0)
(0.202036 0.00850625 0)
(0.202435 0.00768206 0)
(0.202479 0.00707319 0)
(0.202387 0.00659526 0)
(0.202252 0.00618686 0)
(0.202064 0.00582658 0)
(0.201805 0.005511 0)
(0.201449 0.00523455 0)
(0.201005 0.0049889 0)
(0.200459 0.00476519 0)
(0.199831 0.00455849 0)
(0.199104 0.00436513 0)
(0.198301 0.00418394 0)
(0.197402 0.00401259 0)
(0.196434 0.00385072 0)
(0.195377 0.00369617 0)
(0.194263 0.00354928 0)
(0.193066 0.00340822 0)
(0.191827 0.00327382 0)
(0.190514 0.00314433 0)
(0.189173 0.00302093 0)
(0.187765 0.00290171 0)
(0.186345 0.00278828 0)
(0.184865 0.00267846 0)
(0.183389 0.00257429 0)
(0.181857 0.00247323 0)
(0.180344 0.00237775 0)
(0.178779 0.00228486 0)
(0.177248 0.00219749 0)
(0.175663 0.00211218 0)
(0.17413 0.00203234 0)
(0.172539 0.00195403 0)
(0.171015 0.00188121 0)
(0.169427 0.0018093 0)
(0.167925 0.00174305 0)
(0.166348 0.00167699 0)
(0.164875 0.00161676 0)
(0.163314 0.00155607 0)
(0.161878 0.00150134 0)
(0.160336 0.00144546 0)
(0.158944 0.00139586 0)
(0.157423 0.00134422 0)
(0.156079 0.00129937 0)
(0.154579 0.00125153 0)
(0.153289 0.001211 0)
(0.151809 0.00116658 0)
(0.150576 0.00113003 0)
(0.149113 0.0010886 0)
(0.147943 0.00105574 0)
(0.146494 0.00101687 0)
(0.145391 0.000987558 0)
(0.14395 0.000950844 0)
(0.14292 0.000924814 0)
(0.141482 0.000890121 0)
(0.140529 0.000867121 0)
(0.139086 0.000834027 0)
(0.138218 0.000814187 0)
(0.136762 0.000782363 0)
(0.135986 0.000765487 0)
(0.134507 0.000735051 0)
(0.133832 0.000720974 0)
(0.132316 0.000691684 0)
(0.131753 0.000680627 0)
(0.130186 0.000652551 0)
(0.129746 0.00064444 0)
(0.128111 0.000618124 0)
(0.127808 0.000612712 0)
(0.126085 0.000589707 0)
(0.125931 0.000586375 0)
(0.124099 0.000572574 0)
(0.194847 0.00719844 0)
(0.195637 0.00877713 0)
(0.197106 0.0098414 0)
(0.198979 0.00989837 0)
(0.200637 0.00921728 0)
(0.201707 0.00832619 0)
(0.202197 0.00756588 0)
(0.202352 0.00699924 0)
(0.202377 0.00655961 0)
(0.202387 0.00618435 0)
(0.202379 0.00584869 0)
(0.20235 0.00555158 0)
(0.202265 0.0052916 0)
(0.202142 0.00506366 0)
(0.201957 0.00485903 0)
(0.201738 0.00467256 0)
(0.201456 0.00449945 0)
(0.201139 0.00433875 0)
(0.200752 0.00418735 0)
(0.20033 0.00404538 0)
(0.199832 0.00390976 0)
(0.199303 0.00378139 0)
(0.198693 0.00365742 0)
(0.198057 0.00353943 0)
(0.197339 0.00342464 0)
(0.196602 0.00331512 0)
(0.195779 0.00320785 0)
(0.194949 0.00310555 0)
(0.194031 0.00300478 0)
(0.193118 0.00290898 0)
(0.192115 0.00281416 0)
(0.19113 0.00272447 0)
(0.190052 0.00263525 0)
(0.189009 0.00255138 0)
(0.187867 0.00246746 0)
(0.186777 0.00238911 0)
(0.185582 0.00231021 0)
(0.184458 0.00223721 0)
(0.183219 0.00216302 0)
(0.182072 0.00209528 0)
(0.180798 0.00202556 0)
(0.17964 0.00196282 0)
(0.178337 0.0018974 0)
(0.177178 0.00183941 0)
(0.175853 0.00177793 0)
(0.174701 0.00172457 0)
(0.173358 0.00166662 0)
(0.172223 0.00161772 0)
(0.170866 0.00156305 0)
(0.169755 0.00151836 0)
(0.168385 0.00146669 0)
(0.167307 0.00142601 0)
(0.165924 0.00137701 0)
(0.164886 0.00134014 0)
(0.16349 0.00129344 0)
(0.1625 0.00126038 0)
(0.161089 0.0012156 0)
(0.160154 0.00118616 0)
(0.158723 0.00114324 0)
(0.157852 0.00111718 0)
(0.156397 0.00107571 0)
(0.155597 0.00105328 0)
(0.154113 0.0010129 0)
(0.153394 0.000993952 0)
(0.151871 0.000954862 0)
(0.151244 0.000939201 0)
(0.149671 0.000901205 0)
(0.149147 0.000889101 0)
(0.147513 0.000852364 0)
(0.147103 0.000843694 0)
(0.145395 0.000808963 0)
(0.145112 0.000803392 0)
(0.143312 0.000772545 0)
(0.143168 0.000769495 0)
(0.141261 0.000747832 0)
(0.195351 0.00695141 0)
(0.19607 0.00824783 0)
(0.1973 0.00919275 0)
(0.198884 0.00937499 0)
(0.200367 0.0088893 0)
(0.201412 0.00813508 0)
(0.201951 0.00744144 0)
(0.202169 0.00691123 0)
(0.202238 0.00650204 0)
(0.202292 0.00615421 0)
(0.202332 0.00583855 0)
(0.202373 0.00555425 0)
(0.202372 0.0053028 0)
(0.202359 0.00508312 0)
(0.202301 0.00488727 0)
(0.20224 0.00471076 0)
(0.202134 0.00454771 0)
(0.202029 0.00439782 0)
(0.201872 0.00425716 0)
(0.201717 0.00412683 0)
(0.201501 0.0040027 0)
(0.201289 0.00388667 0)
(0.201008 0.0037746 0)
(0.200734 0.00366918 0)
(0.200382 0.00356621 0)
(0.200042 0.00346908 0)
(0.199614 0.00337311 0)
(0.199206 0.00328256 0)
(0.198702 0.00319215 0)
(0.198226 0.00310709 0)
(0.197645 0.00302137 0)
(0.197105 0.00294122 0)
(0.196448 0.00285968 0)
(0.195847 0.00278405 0)
(0.195118 0.00270632 0)
(0.194461 0.00263482 0)
(0.193664 0.00256058 0)
(0.192957 0.00249309 0)
(0.192096 0.00242201 0)
(0.191348 0.00235854 0)
(0.190426 0.00229048 0)
(0.189644 0.00223088 0)
(0.188668 0.00216583 0)
(0.187861 0.00210997 0)
(0.186834 0.0020477 0)
(0.186009 0.00199564 0)
(0.184935 0.00193579 0)
(0.184101 0.0018875 0)
(0.182984 0.00182997 0)
(0.18215 0.00178536 0)
(0.180992 0.00173003 0)
(0.180166 0.00168903 0)
(0.178968 0.00163565 0)
(0.178158 0.00159815 0)
(0.176921 0.00154643 0)
(0.176137 0.00151262 0)
(0.174861 0.00146224 0)
(0.174111 0.00143201 0)
(0.172793 0.00138305 0)
(0.172086 0.00135615 0)
(0.170724 0.00130822 0)
(0.170069 0.00128509 0)
(0.168659 0.00123787 0)
(0.168067 0.00121841 0)
(0.166603 0.00117223 0)
(0.166084 0.00115617 0)
(0.164559 0.00111093 0)
(0.164124 0.00109864 0)
(0.16253 0.00105466 0)
(0.162189 0.00104594 0)
(0.160515 0.00100416 0)
(0.16028 0.000998666 0)
(0.158515 0.000961194 0)
(0.158395 0.000958504 0)
(0.156529 0.000929935 0)
(0.195802 0.00671157 0)
(0.196456 0.00780044 0)
(0.197503 0.00862363 0)
(0.198849 0.00887728 0)
(0.20016 0.00855554 0)
(0.201159 0.00793759 0)
(0.201728 0.00731535 0)
(0.201997 0.00681976 0)
(0.202097 0.00643612 0)
(0.202173 0.00611284 0)
(0.202226 0.00581668 0)
(0.202291 0.00554507 0)
(0.202314 0.00530047 0)
(0.202339 0.00508584 0)
(0.202316 0.00489438 0)
(0.202309 0.00472301 0)
(0.202259 0.00456466 0)
(0.202232 0.00442001 0)
(0.202156 0.00428403 0)
(0.202109 0.00415931 0)
(0.202006 0.00404043 0)
(0.201935 0.00393077 0)
(0.201799 0.00382468 0)
(0.201701 0.0037264 0)
(0.201527 0.00363001 0)
(0.201398 0.00354068 0)
(0.201181 0.00345175 0)
(0.201017 0.00336947 0)
(0.200752 0.00328629 0)
(0.200549 0.0032097 0)
(0.200232 0.00313113 0)
(0.199988 0.00305942 0)
(0.199615 0.00298473 0)
(0.19933 0.00291732 0)
(0.198899 0.002846 0)
(0.198572 0.00278234 0)
(0.198082 0.00271387 0)
(0.197714 0.00265369 0)
(0.197163 0.00258754 0)
(0.196757 0.00253077 0)
(0.196145 0.00246676 0)
(0.195705 0.00241318 0)
(0.195033 0.00235131 0)
(0.194561 0.00230077 0)
(0.19383 0.00224075 0)
(0.193333 0.00219339 0)
(0.192544 0.00213482 0)
(0.192027 0.00209058 0)
(0.191179 0.00203341 0)
(0.190649 0.00199227 0)
(0.189745 0.00193646 0)
(0.189208 0.00189844 0)
(0.188248 0.00184383 0)
(0.18771 0.00180879 0)
(0.186695 0.00175506 0)
(0.186164 0.00172336 0)
(0.185093 0.00167022 0)
(0.184578 0.00164182 0)
(0.18345 0.00158963 0)
(0.182957 0.00156419 0)
(0.181771 0.00151244 0)
(0.18131 0.0014906 0)
(0.180064 0.00143907 0)
(0.179643 0.00142077 0)
(0.178333 0.00137006 0)
(0.177961 0.00135486 0)
(0.176583 0.00130482 0)
(0.17627 0.00129326 0)
(0.174818 0.0012445 0)
(0.174573 0.00123628 0)
(0.173042 0.0011899 0)
(0.172873 0.00118471 0)
(0.171256 0.00114288 0)
(0.171171 0.00114056 0)
(0.169462 0.00110724 0)
(0.196207 0.00648073 0)
(0.196802 0.00741367 0)
(0.197704 0.00812915 0)
(0.198855 0.00841575 0)
(0.200006 0.00822324 0)
(0.200945 0.00773342 0)
(0.201527 0.00718659 0)
(0.201838 0.00672663 0)
(0.201966 0.00636537 0)
(0.202062 0.00606416 0)
(0.202121 0.00578748 0)
(0.202199 0.00553001 0)
(0.202231 0.00529314 0)
(0.202273 0.00508337 0)
(0.202261 0.00489512 0)
(0.202274 0.00472738 0)
(0.202237 0.0045718 0)
(0.202238 0.00443031 0)
(0.202185 0.0042964 0)
(0.202177 0.00417445 0)
(0.202109 0.00405753 0)
(0.202093 0.00395088 0)
(0.202008 0.00384705 0)
(0.201984 0.00375224 0)
(0.201879 0.0036585 0)
(0.201845 0.00357321 0)
(0.201719 0.00348739 0)
(0.201672 0.00340974 0)
(0.201519 0.00333011 0)
(0.201457 0.00325868 0)
(0.201274 0.00318398 0)
(0.201195 0.00311787 0)
(0.200978 0.00304728 0)
(0.20088 0.0029858 0)
(0.200624 0.00291877 0)
(0.200504 0.00286127 0)
(0.200207 0.00279707 0)
(0.200064 0.0027432 0)
(0.199721 0.00268114 0)
(0.199555 0.00263069 0)
(0.199163 0.0025705 0)
(0.198974 0.00252306 0)
(0.198532 0.00246472 0)
(0.198321 0.00242012 0)
(0.197826 0.00236318 0)
(0.197594 0.00232158 0)
(0.197045 0.00226556 0)
(0.196795 0.00222673 0)
(0.196189 0.00217154 0)
(0.195924 0.00213544 0)
(0.195262 0.00208104 0)
(0.194985 0.00204771 0)
(0.194265 0.00199404 0)
(0.19398 0.00196326 0)
(0.193201 0.00190982 0)
(0.192914 0.00188205 0)
(0.192074 0.00182859 0)
(0.19179 0.00180367 0)
(0.19089 0.0017509 0)
(0.190614 0.00172849 0)
(0.189651 0.00167561 0)
(0.189389 0.00165646 0)
(0.188362 0.00160335 0)
(0.188121 0.00158733 0)
(0.187029 0.00153504 0)
(0.186814 0.0015216 0)
(0.185653 0.00146966 0)
(0.185472 0.00145942 0)
(0.184241 0.0014089 0)
(0.1841 0.0014015 0)
(0.182796 0.00135354 0)
(0.182698 0.00134876 0)
(0.181319 0.00130546 0)
(0.18127 0.00130338 0)
(0.179814 0.00126818 0)
(0.19657 0.00626221 0)
(0.197111 0.00707277 0)
(0.197895 0.00769839 0)
(0.198889 0.00799375 0)
(0.199896 0.00789774 0)
(0.200766 0.00752213 0)
(0.201344 0.00705243 0)
(0.201689 0.00663094 0)
(0.201844 0.0062908 0)
(0.201958 0.00600935 0)
(0.202023 0.00575156 0)
(0.202111 0.00550957 0)
(0.202148 0.00528197 0)
(0.202202 0.00507801 0)
(0.202195 0.00489303 0)
(0.20222 0.00472876 0)
(0.202186 0.00457553 0)
(0.202199 0.0044368 0)
(0.202151 0.00430425 0)
(0.202159 0.00418421 0)
(0.202099 0.00406806 0)
(0.202104 0.00396307 0)
(0.202033 0.00385987 0)
(0.202036 0.0037668 0)
(0.201954 0.00367369 0)
(0.201957 0.00359038 0)
(0.201862 0.00350536 0)
(0.201864 0.00343002 0)
(0.201755 0.00335146 0)
(0.201756 0.00328273 0)
(0.20163 0.00320936 0)
(0.201628 0.00314637 0)
(0.201482 0.00307739 0)
(0.201476 0.00301941 0)
(0.201308 0.00295431 0)
(0.201296 0.0029007 0)
(0.201102 0.00283865 0)
(0.201083 0.00278909 0)
(0.200859 0.00272928 0)
(0.200832 0.00268341 0)
(0.200575 0.00262563 0)
(0.200539 0.00258288 0)
(0.200246 0.00252704 0)
(0.200199 0.00248728 0)
(0.199867 0.00243276 0)
(0.199811 0.00239615 0)
(0.199436 0.00234248 0)
(0.199369 0.00230859 0)
(0.198949 0.00225558 0)
(0.198873 0.0022243 0)
(0.198406 0.00217188 0)
(0.198322 0.0021432 0)
(0.197806 0.00209144 0)
(0.197714 0.00206512 0)
(0.197146 0.00201322 0)
(0.19705 0.00198972 0)
(0.196427 0.00193752 0)
(0.196329 0.00191635 0)
(0.195653 0.00186493 0)
(0.195554 0.00184598 0)
(0.194821 0.00179404 0)
(0.194725 0.001778 0)
(0.193934 0.00172561 0)
(0.193845 0.00171204 0)
(0.192997 0.00166082 0)
(0.192916 0.0016494 0)
(0.192006 0.0015982 0)
(0.191939 0.00158929 0)
(0.19097 0.00153989 0)
(0.190917 0.00153321 0)
(0.189887 0.00148657 0)
(0.189852 0.00148213 0)
(0.188759 0.00144012 0)
(0.188743 0.00143802 0)
(0.18759 0.00140378 0)
(0.196896 0.00605769 0)
(0.197389 0.00676818 0)
(0.198074 0.00731986 0)
(0.198938 0.00761066 0)
(0.199819 0.00758381 0)
(0.200617 0.00730546 0)
(0.201178 0.00691151 0)
(0.201547 0.00653181 0)
(0.201726 0.00621318 0)
(0.20186 0.00594965 0)
(0.20193 0.00570955 0)
(0.202026 0.00548368 0)
(0.202067 0.00526683 0)
(0.202132 0.0050699 0)
(0.20213 0.00488875 0)
(0.202163 0.00472815 0)
(0.202133 0.00457735 0)
(0.202153 0.00444149 0)
(0.202107 0.00431034 0)
(0.202122 0.00419213 0)
(0.202064 0.00407651 0)
(0.202077 0.00397281 0)
(0.20201 0.00386976 0)
(0.202023 0.00377783 0)
(0.201947 0.00368463 0)
(0.201963 0.00360242 0)
(0.201878 0.00351724 0)
(0.201898 0.00344307 0)
(0.201804 0.0033644 0)
(0.201828 0.00329703 0)
(0.201723 0.00322363 0)
(0.201751 0.00316223 0)
(0.201635 0.0030934 0)
(0.201667 0.0030372 0)
(0.201538 0.00297247 0)
(0.201572 0.00292096 0)
(0.201428 0.00285945 0)
(0.201465 0.00281237 0)
(0.201302 0.00275328 0)
(0.201341 0.00271013 0)
(0.201157 0.0026534 0)
(0.201196 0.0026135 0)
(0.200991 0.00255892 0)
(0.201029 0.00252233 0)
(0.200797 0.00246913 0)
(0.200835 0.00243595 0)
(0.200574 0.00238381 0)
(0.200609 0.00235341 0)
(0.200318 0.00230208 0)
(0.20035 0.00227432 0)
(0.200025 0.00222366 0)
(0.200055 0.00219843 0)
(0.199694 0.00214867 0)
(0.199719 0.00212583 0)
(0.19932 0.0020758 0)
(0.199343 0.00205574 0)
(0.198902 0.00200556 0)
(0.198922 0.00198722 0)
(0.198441 0.00193816 0)
(0.198457 0.00192204 0)
(0.197931 0.00187229 0)
(0.197946 0.00185877 0)
(0.197374 0.00180871 0)
(0.197387 0.0017968 0)
(0.196773 0.00174846 0)
(0.196783 0.00173868 0)
(0.196119 0.00169015 0)
(0.19613 0.00168199 0)
(0.195421 0.00163586 0)
(0.19543 0.0016294 0)
(0.194674 0.0015862 0)
(0.194682 0.00158183 0)
(0.19388 0.00154319 0)
(0.193886 0.00154073 0)
(0.19304 0.00150956 0)
(0.19719 0.00586709 0)
(0.197639 0.00649368 0)
(0.198241 0.00698399 0)
(0.198997 0.00726387 0)
(0.199768 0.00728522 0)
(0.200495 0.00708683 0)
(0.201031 0.00676414 0)
(0.201413 0.00642872 0)
(0.201612 0.00613311 0)
(0.201763 0.0058864 0)
(0.20184 0.00566249 0)
(0.201943 0.00545261 0)
(0.201988 0.00524756 0)
(0.202061 0.00505889 0)
(0.202065 0.00488231 0)
(0.202105 0.00472572 0)
(0.202078 0.00457753 0)
(0.202104 0.00444472 0)
(0.20206 0.00431521 0)
(0.20208 0.00419896 0)
(0.202024 0.00408401 0)
(0.202041 0.00398157 0)
(0.201976 0.00387865 0)
(0.201994 0.00378769 0)
(0.201921 0.00369428 0)
(0.20194 0.00361286 0)
(0.20186 0.0035273 0)
(0.201884 0.00345382 0)
(0.201798 0.00337467 0)
(0.201827 0.00330801 0)
(0.201733 0.00323413 0)
(0.201768 0.00317348 0)
(0.201667 0.00310424 0)
(0.201707 0.00304881 0)
(0.201598 0.0029838 0)
(0.201645 0.00293324 0)
(0.201527 0.00287146 0)
(0.20158 0.00282562 0)
(0.20145 0.00276642 0)
(0.201509 0.00272457 0)
(0.201368 0.00266808 0)
(0.201431 0.00262952 0)
(0.201277 0.00257537 0)
(0.201345 0.00254042 0)
(0.201175 0.00248772 0)
(0.201247 0.00245637 0)
(0.201059 0.00240509 0)
(0.201135 0.00237654 0)
(0.200928 0.00232632 0)
(0.201005 0.00230049 0)
(0.200777 0.0022512 0)
(0.200855 0.00222779 0)
(0.200605 0.00217977 0)
(0.200683 0.00215897 0)
(0.200407 0.00211066 0)
(0.200486 0.00209259 0)
(0.200183 0.0020447 0)
(0.200258 0.00202766 0)
(0.19993 0.00198128 0)
(0.200002 0.0019668 0)
(0.199642 0.00191968 0)
(0.199712 0.00190753 0)
(0.199321 0.00186068 0)
(0.199385 0.00184914 0)
(0.198967 0.00180448 0)
(0.199024 0.00179558 0)
(0.19857 0.00175075 0)
(0.198621 0.0017424 0)
(0.198138 0.00170066 0)
(0.198178 0.00169379 0)
(0.197664 0.001655 0)
(0.197694 0.00165036 0)
(0.197146 0.00161618 0)
(0.197163 0.00161304 0)
(0.196588 0.00158595 0)
(0.197455 0.00568951 0)
(0.197864 0.00624491 0)
(0.198396 0.00668352 0)
(0.199061 0.00694995 0)
(0.199738 0.00700433 0)
(0.200396 0.00687001 0)
(0.200901 0.00661178 0)
(0.201286 0.00632148 0)
(0.201501 0.00605081 0)
(0.201667 0.00582059 0)
(0.201752 0.0056115 0)
(0.20186 0.00541687 0)
(0.201909 0.0052242 0)
(0.201987 0.0050448 0)
(0.201998 0.00487367 0)
(0.202044 0.00472144 0)
(0.202023 0.00457611 0)
(0.202052 0.00444646 0)
(0.202013 0.00431891 0)
(0.202034 0.00420474 0)
(0.201984 0.00409075 0)
(0.202001 0.00398957 0)
(0.201941 0.00388698 0)
(0.201957 0.00379693 0)
(0.20189 0.00370344 0)
(0.201908 0.00362266 0)
(0.201835 0.00353681 0)
(0.201856 0.00346377 0)
(0.201777 0.0033842 0)
(0.201803 0.00331791 0)
(0.201719 0.00324353 0)
(0.20175 0.00318318 0)
(0.201661 0.00311351 0)
(0.201698 0.00305829 0)
(0.201603 0.00299286 0)
(0.201646 0.00294261 0)
(0.201546 0.00288035 0)
(0.201596 0.00283497 0)
(0.201489 0.00277544 0)
(0.201545 0.00273391 0)
(0.201432 0.00267746 0)
(0.201493 0.00263916 0)
(0.201373 0.00258513 0)
(0.20144 0.00255072 0)
(0.201311 0.00249816 0)
(0.201384 0.0024674 0)
(0.201245 0.00241665 0)
(0.201322 0.00238861 0)
(0.201173 0.00233921 0)
(0.201254 0.00231391 0)
(0.201093 0.00226577 0)
(0.201177 0.00224273 0)
(0.201004 0.00219614 0)
(0.20109 0.00217603 0)
(0.200902 0.0021292 0)
(0.20099 0.00211163 0)
(0.200787 0.00206611 0)
(0.200872 0.00204888 0)
(0.200656 0.00200507 0)
(0.200739 0.00199103 0)
(0.200503 0.00194647 0)
(0.200585 0.00193439 0)
(0.200331 0.0018911 0)
(0.200405 0.00187867 0)
(0.200137 0.00183764 0)
(0.200205 0.00182881 0)
(0.199913 0.00178793 0)
(0.199972 0.00177847 0)
(0.199664 0.00174132 0)
(0.199711 0.00173352 0)
(0.199383 0.00169907 0)
(0.199419 0.00169387 0)
(0.19907 0.00166424 0)
(0.199088 0.00166025 0)
(0.198723 0.00163722 0)
(0.197696 0.0055238 0)
(0.198069 0.00601856 0)
(0.19854 0.00641303 0)
(0.199127 0.00666533 0)
(0.199724 0.00674208 0)
(0.200317 0.00665822 0)
(0.200789 0.0064564 0)
(0.201167 0.00621026 0)
(0.201395 0.0059662 0)
(0.201572 0.00575281 0)
(0.201667 0.00555751 0)
(0.201777 0.00537711 0)
(0.201831 0.00519691 0)
(0.201912 0.0050275 0)
(0.201931 0.0048627 0)
(0.20198 0.00471528 0)
(0.201967 0.00457313 0)
(0.201996 0.00444669 0)
(0.201964 0.0043214 0)
(0.201985 0.0042094 0)
(0.201941 0.00409669 0)
(0.201956 0.0039968 0)
(0.201904 0.00389477 0)
(0.201917 0.00380559 0)
(0.201858 0.00371224 0)
(0.201872 0.00363199 0)
(0.201806 0.00354606 0)
(0.201822 0.00347329 0)
(0.201753 0.00339349 0)
(0.201772 0.00332734 0)
(0.201698 0.00325266 0)
(0.201722 0.00319231 0)
(0.201645 0.0031224 0)
(0.201672 0.00306701 0)
(0.201592 0.00300131 0)
(0.201624 0.00295099 0)
(0.201541 0.00288832 0)
(0.201579 0.00284291 0)
(0.201491 0.00278317 0)
(0.201535 0.00274133 0)
(0.201444 0.00268503 0)
(0.201491 0.00264634 0)
(0.201398 0.00259241 0)
(0.20145 0.00255786 0)
(0.201352 0.00250541 0)
(0.20141 0.0024744 0)
(0.201306 0.00242416 0)
(0.201369 0.00239572 0)
(0.20126 0.00234708 0)
(0.201326 0.00232133 0)
(0.201213 0.0022743 0)
(0.201281 0.00225062 0)
(0.201162 0.00220527 0)
(0.201233 0.00218491 0)
(0.201106 0.00213936 0)
(0.20118 0.00212114 0)
(0.201045 0.002078 0)
(0.201116 0.00205952 0)
(0.200978 0.00201793 0)
(0.201048 0.00200348 0)
(0.200897 0.00196119 0)
(0.200968 0.00194811 0)
(0.200809 0.00190836 0)
(0.200871 0.00189423 0)
(0.200706 0.00185623 0)
(0.200766 0.00184689 0)
(0.200585 0.00180967 0)
(0.200636 0.00179846 0)
(0.20045 0.00176541 0)
(0.20049 0.00175648 0)
(0.200291 0.00172565 0)
(0.200322 0.00171969 0)
(0.200111 0.00169406 0)
(0.200126 0.00168923 0)
(0.199906 0.00166956 0)
(0.197915 0.00536895 0)