/*--------------------------------*- C++ -*----------------------------------*\
| =========                 |                                                 |
| \\      /  F ield         | OpenFOAM: The Open Source CFD Toolbox           |
|  \\    /   O peration     | Version:  2.3.0                                 |
|   \\  /    A nd           | Web:      www.OpenFOAM.org                      |
|    \\/     M anipulation  |                                                 |
\*---------------------------------------------------------------------------*/
FoamFile
{
    version     2.0;
    format      ascii;
    class       volVectorField;
    location    "0.6";
    object      U;
}
// * * * * * * * * * * * * * * * * * * * * * * * * * * * * * * * * * * * * * //

dimensions      [0 1 -1 0 0 0 0];

internalField   nonuniform List<vector> 
8750
(
(0.171314 0.00595333 0)
(0.154869 0.00602775 0)
(0.139057 0.00561148 0)
(0.124065 0.00501456 0)
(0.110306 0.00435467 0)
(0.0979498 0.00368519 0)
(0.0870081 0.00304288 0)
(0.0774468 0.00245317 0)
(0.0692102 0.00193153 0)
(0.0622136 0.00148581 0)
(0.0563436 0.00111769 0)
(0.0514675 0.000823713 0)
(0.0474447 0.000596504 0)
(0.0441362 0.000426362 0)
(0.0414123 0.000302783 0)
(0.0391572 0.000215651 0)
(0.037272 0.000155988 0)
(0.0356752 0.000116299 0)
(0.0343018 9.06206e-05 0)
(0.0331017 7.441e-05 0)
(0.0320366 6.43405e-05 0)
(0.0310782 5.80757e-05 0)
(0.0302055 5.40458e-05 0)
(0.0294033 5.12459e-05 0)
(0.0286602 4.90682e-05 0)
(0.027968 4.71701e-05 0)
(0.0273201 4.53763e-05 0)
(0.0267115 4.36111e-05 0)
(0.0261383 4.18532e-05 0)
(0.025597 4.01078e-05 0)
(0.0250847 3.83901e-05 0)
(0.024599 3.67166e-05 0)
(0.0241375 3.51012e-05 0)
(0.0236985 3.35539e-05 0)
(0.0232801 3.20804e-05 0)
(0.0228807 3.06831e-05 0)
(0.0224989 2.93622e-05 0)
(0.0221334 2.81156e-05 0)
(0.0217831 2.69402e-05 0)
(0.0214469 2.58323e-05 0)
(0.0211238 2.47879e-05 0)
(0.0208131 2.38028e-05 0)
(0.0205138 2.28729e-05 0)
(0.0202254 2.19945e-05 0)
(0.0199471 2.11638e-05 0)
(0.0196783 2.03775e-05 0)
(0.0194186 1.96323e-05 0)
(0.0191673 1.89255e-05 0)
(0.0189241 1.82543e-05 0)
(0.0186886 1.76163e-05 0)
(0.0184603 1.70092e-05 0)
(0.0182388 1.64309e-05 0)
(0.018024 1.58796e-05 0)
(0.0178153 1.53535e-05 0)
(0.0176126 1.4851e-05 0)
(0.0174156 1.43706e-05 0)
(0.017224 1.3911e-05 0)
(0.0170377 1.34707e-05 0)
(0.0168563 1.30488e-05 0)
(0.0166797 1.26441e-05 0)
(0.0165077 1.22556e-05 0)
(0.0163402 1.18824e-05 0)
(0.0161769 1.15235e-05 0)
(0.0160178 1.11783e-05 0)
(0.0158626 1.0846e-05 0)
(0.0157112 1.05259e-05 0)
(0.0155636 1.02173e-05 0)
(0.0154196 9.91974e-06 0)
(0.015279 9.63259e-06 0)
(0.0151419 9.35537e-06 0)
(0.015008 9.08763e-06 0)
(0.0148773 8.82894e-06 0)
(0.0147497 8.57893e-06 0)
(0.0146252 8.33724e-06 0)
(0.0145036 8.10357e-06 0)
(0.0143849 7.87762e-06 0)
(0.014269 7.65919e-06 0)
(0.0141559 7.44805e-06 0)
(0.0140454 7.24402e-06 0)
(0.0139376 7.047e-06 0)
(0.0138323 6.85688e-06 0)
(0.0137296 6.67364e-06 0)
(0.0136293 6.49727e-06 0)
(0.0135314 6.32783e-06 0)
(0.0134359 6.16545e-06 0)
(0.0133426 6.01034e-06 0)
(0.0132516 5.86274e-06 0)
(0.0131628 5.72307e-06 0)
(0.0130761 5.59187e-06 0)
(0.0129914 5.46982e-06 0)
(0.0129087 5.35796e-06 0)
(0.0128278 5.25775e-06 0)
(0.0127487 5.17138e-06 0)
(0.0126712 5.10241e-06 0)
(0.012595 5.05716e-06 0)
(0.0125199 5.04825e-06 0)
(0.0124454 5.10897e-06 0)
(0.0123698 5.30361e-06 0)
(0.0123035 4.89016e-06 0)
(0.0121135 2.69503e-05 0)
(0.190158 0.00939781 0)
(0.187829 0.0099063 0)
(0.183889 0.0096817 0)
(0.178697 0.00918415 0)
(0.172757 0.00855202 0)
(0.16642 0.00783147 0)
(0.159909 0.00706042 0)
(0.153393 0.0062737 0)
(0.147006 0.00550051 0)
(0.14085 0.00476477 0)
(0.134991 0.0040852 0)
(0.129471 0.0034747 0)
(0.124307 0.00294009 0)
(0.119504 0.00248258 0)
(0.115052 0.00209879 0)
(0.110935 0.00178208 0)
(0.107133 0.00152395 0)
(0.103622 0.00131522 0)
(0.100377 0.00114694 0)
(0.0973747 0.00101103 0)
(0.0945916 0.00090059 0)
(0.0920062 0.000809936 0)
(0.0895989 0.00073458 0)
(0.0873519 0.000671063 0)
(0.0852493 0.000616768 0)
(0.083277 0.000569746 0)
(0.0814226 0.000528546 0)
(0.0796748 0.000492093 0)
(0.0780241 0.000459577 0)
(0.0764617 0.000430382 0)
(0.07498 0.000404029 0)
(0.0735723 0.000380135 0)
(0.0722325 0.000358387 0)
(0.0709552 0.000338528 0)
(0.0697357 0.000320339 0)
(0.0685696 0.000303632 0)
(0.067453 0.000288245 0)
(0.0663825 0.000274039 0)
(0.0653549 0.000260891 0)
(0.0643674 0.000248692 0)
(0.0634173 0.00023735 0)
(0.0625023 0.000226781 0)
(0.0616202 0.000216912 0)
(0.060769 0.00020768 0)
(0.0599471 0.000199026 0)
(0.0591527 0.0001909 0)
(0.0583842 0.000183256 0)
(0.0576404 0.000176056 0)
(0.0569199 0.000169262 0)
(0.0562215 0.000162842 0)
(0.0555442 0.000156767 0)
(0.0548869 0.000151011 0)
(0.0542486 0.00014555 0)
(0.0536286 0.000140363 0)
(0.0530259 0.000135429 0)
(0.0524399 0.00013073 0)
(0.0518697 0.000126251 0)
(0.0513149 0.000121977 0)
(0.0507747 0.000117893 0)
(0.0502485 0.000113987 0)
(0.049736 0.000110248 0)
(0.0492364 0.000106664 0)
(0.0487495 0.000103226 0)
(0.0482747 9.99252e-05 0)
(0.0478117 9.67524e-05 0)
(0.04736 9.37e-05 0)
(0.0469193 9.07609e-05 0)
(0.0464894 8.79283e-05 0)
(0.0460698 8.51959e-05 0)
(0.0456602 8.2558e-05 0)
(0.0452605 8.00091e-05 0)
(0.0448704 7.75443e-05 0)
(0.0444896 7.5159e-05 0)
(0.0441179 7.28489e-05 0)
(0.0437551 7.06102e-05 0)
(0.0434011 6.8439e-05 0)
(0.0430556 6.63323e-05 0)
(0.0427184 6.42869e-05 0)
(0.0423895 6.23003e-05 0)
(0.0420687 6.037e-05 0)
(0.0417558 5.8494e-05 0)
(0.0414508 5.66706e-05 0)
(0.0411534 5.48984e-05 0)
(0.0408637 5.31766e-05 0)
(0.0405814 5.15045e-05 0)
(0.0403064 4.98823e-05 0)
(0.0400387 4.83103e-05 0)
(0.0397781 4.679e-05 0)
(0.0395245 4.53235e-05 0)
(0.0392778 4.39141e-05 0)
(0.0390378 4.2567e-05 0)
(0.0388043 4.12895e-05 0)
(0.038577 4.00934e-05 0)
(0.0383557 3.89974e-05 0)
(0.03814 3.80354e-05 0)
(0.0379293 3.72774e-05 0)
(0.0377225 3.68961e-05 0)
(0.0375165 3.7331e-05 0)
(0.0373237 4.08616e-05 0)
(0.0369487 9.15791e-05 0)
(0.193144 0.00903127 0)
(0.193927 0.00998641 0)
(0.194046 0.0103165 0)
(0.193354 0.0103182 0)
(0.191968 0.0100921 0)
(0.190013 0.00967653 0)
(0.187581 0.0091163 0)
(0.184764 0.00846111 0)
(0.181656 0.00775617 0)
(0.178347 0.00703976 0)
(0.174914 0.00634264 0)
(0.171423 0.00568744 0)
(0.167924 0.00508861 0)
(0.164457 0.00455319 0)
(0.161051 0.00408225 0)
(0.157726 0.00367261 0)
(0.154495 0.0033185 0)
(0.151364 0.00301297 0)
(0.148339 0.00274889 0)
(0.145418 0.00251964 0)
(0.142602 0.00231941 0)
(0.139887 0.00214331 0)
(0.137272 0.00198734 0)
(0.134752 0.00184828 0)
(0.132325 0.00172356 0)
(0.129986 0.00161113 0)
(0.127733 0.00150932 0)
(0.125561 0.0014168 0)
(0.123468 0.00133244 0)
(0.12145 0.00125531 0)
(0.119503 0.00118463 0)
(0.117624 0.00111971 0)
(0.115811 0.00105995 0)
(0.11406 0.00100483 0)
(0.112368 0.000953897 0)
(0.110732 0.00090674 0)
(0.109151 0.000862998 0)
(0.107621 0.00082235 0)
(0.10614 0.000784509 0)
(0.104705 0.000749219 0)
(0.103316 0.000716251 0)
(0.101968 0.000685402 0)
(0.100661 0.000656488 0)
(0.0993928 0.000629344 0)
(0.0981614 0.000603825 0)
(0.0969653 0.000579795 0)
(0.095803 0.000557138 0)
(0.0946729 0.000535743 0)
(0.0935738 0.000515515 0)
(0.0925044 0.000496364 0)
(0.0914634 0.000478209 0)
(0.0904497 0.000460979 0)
(0.0894622 0.000444607 0)
(0.0884999 0.000429031 0)
(0.0875619 0.000414197 0)
(0.0866472 0.000400053 0)
(0.085755 0.000386552 0)
(0.0848846 0.000373653 0)
(0.0840351 0.000361314 0)
(0.0832059 0.0003495 0)
(0.0823963 0.000338177 0)
(0.0816056 0.000327313 0)
(0.0808334 0.000316881 0)
(0.080079 0.000306852 0)
(0.0793419 0.000297203 0)
(0.0786217 0.00028791 0)
(0.0779179 0.000278951 0)
(0.07723 0.000270307 0)
(0.0765577 0.000261959 0)
(0.0759006 0.000253889 0)
(0.0752583 0.000246081 0)
(0.0746306 0.00023852 0)
(0.0740171 0.000231191 0)
(0.0734176 0.000224083 0)
(0.0728318 0.000217181 0)
(0.0722594 0.000210476 0)
(0.0717003 0.000203956 0)
(0.0711542 0.000197612 0)
(0.070621 0.000191436 0)
(0.0701004 0.000185418 0)
(0.0695924 0.000179553 0)
(0.0690968 0.000173834 0)
(0.0686135 0.000168256 0)
(0.0681423 0.000162815 0)
(0.0676831 0.000157508 0)
(0.0672358 0.000152333 0)
(0.0668004 0.00014729 0)
(0.0663766 0.000142381 0)
(0.0659643 0.000137611 0)
(0.0655635 0.000132986 0)
(0.065174 0.000128518 0)
(0.0647956 0.000124224 0)
(0.064428 0.000120131 0)
(0.0640709 0.000116283 0)
(0.0637238 0.000112761 0)
(0.0633861 0.00010973 0)
(0.0630565 0.000107597 0)
(0.0627318 0.00010755 0)
(0.0624199 0.000117357 0)
(0.0619378 0.000179819 0)
(0.194169 0.00839345 0)
(0.195337 0.00944776 0)
(0.196389 0.010002 0)
(0.197107 0.010241 0)
(0.197471 0.0102481 0)
(0.19749 0.0100554 0)
(0.197162 0.00969881 0)
(0.196494 0.00922131 0)
(0.195513 0.0086648 0)
(0.19426 0.00806663 0)
(0.192777 0.00745852 0)
(0.191108 0.00686565 0)
(0.189296 0.00630602 0)
(0.187378 0.00579068 0)
(0.185386 0.00532477 0)
(0.183345 0.00490883 0)
(0.181275 0.00454028 0)
(0.179192 0.00421473 0)
(0.177107 0.00392696 0)
(0.175029 0.00367169 0)
(0.172962 0.00344403 0)
(0.170913 0.00323964 0)
(0.168883 0.0030549 0)
(0.166876 0.00288679 0)
(0.164894 0.0027329 0)
(0.162937 0.00259129 0)
(0.161008 0.00246041 0)
(0.159108 0.00233901 0)
(0.157238 0.00222608 0)
(0.155397 0.00212077 0)
(0.153588 0.00202239 0)
(0.15181 0.00193032 0)
(0.150063 0.00184405 0)
(0.148348 0.00176309 0)
(0.146665 0.00168704 0)
(0.145014 0.00161552 0)
(0.143394 0.00154819 0)
(0.141805 0.00148474 0)
(0.140248 0.00142489 0)
(0.138721 0.00136838 0)
(0.137225 0.00131497 0)
(0.135758 0.00126444 0)
(0.134321 0.00121659 0)
(0.132912 0.00117123 0)
(0.131532 0.00112821 0)
(0.130179 0.00108735 0)
(0.128854 0.00104851 0)
(0.127555 0.00101157 0)
(0.126282 0.000976394 0)
(0.125035 0.000942872 0)
(0.123812 0.000910898 0)
(0.122614 0.000880374 0)
(0.121439 0.000851208 0)
(0.120288 0.000823317 0)
(0.119159 0.000796622 0)
(0.118053 0.000771051 0)
(0.116968 0.000746534 0)
(0.115905 0.00072301 0)
(0.114862 0.000700419 0)
(0.11384 0.000678705 0)
(0.112837 0.000657818 0)
(0.111854 0.000637708 0)
(0.11089 0.000618332 0)
(0.109944 0.000599645 0)
(0.109017 0.00058161 0)
(0.108108 0.000564188 0)
(0.107217 0.000547344 0)
(0.106343 0.000531046 0)
(0.105486 0.000515261 0)
(0.104646 0.000499962 0)
(0.103823 0.000485121 0)
(0.103015 0.000470712 0)
(0.102224 0.00045671 0)
(0.101449 0.000443093 0)
(0.10069 0.000429839 0)
(0.0999464 0.000416929 0)
(0.0992181 0.000404343 0)
(0.0985052 0.000392065 0)
(0.0978075 0.000380079 0)
(0.0971249 0.000368369 0)
(0.0964573 0.000356923 0)
(0.0958047 0.000345729 0)
(0.095167 0.000334777 0)
(0.0945442 0.00032406 0)
(0.0939361 0.000313569 0)
(0.0933428 0.000303303 0)
(0.0927643 0.000293259 0)
(0.0922004 0.000283439 0)
(0.0916511 0.000273849 0)
(0.0911165 0.000264501 0)
(0.0905963 0.000255411 0)
(0.0900905 0.000246609 0)
(0.0895989 0.000238138 0)
(0.0891212 0.000230072 0)
(0.0886571 0.000222541 0)
(0.0882059 0.000215815 0)
(0.0877663 0.00021056 0)
(0.0873358 0.000208822 0)
(0.0869201 0.000221053 0)
(0.0863603 0.000281184 0)
(0.19488 0.00789075 0)
(0.195923 0.00888695 0)
(0.197031 0.00948212 0)
(0.198032 0.00979631 0)
(0.198882 0.00990311 0)
(0.199564 0.00983239 0)
(0.200053 0.00961048 0)
(0.200327 0.00926993 0)
(0.200377 0.00884456 0)
(0.200212 0.00836603 0)
(0.199845 0.00786252 0)
(0.199298 0.0073576 0)
(0.198596 0.00686938 0)
(0.197763 0.00641021 0)
(0.196822 0.00598716 0)
(0.195795 0.00560299 0)
(0.194699 0.00525729 0)
(0.193548 0.00494757 0)
(0.192353 0.00467022 0)
(0.191122 0.0044212 0)
(0.189863 0.00419656 0)
(0.18858 0.00399268 0)
(0.187277 0.00380643 0)
(0.185958 0.00363517 0)
(0.184626 0.00347677 0)
(0.183283 0.00332948 0)
(0.181931 0.00319191 0)
(0.180572 0.00306295 0)
(0.179208 0.00294169 0)
(0.177841 0.00282737 0)
(0.176473 0.00271939 0)
(0.175105 0.0026172 0)
(0.173738 0.00252037 0)
(0.172374 0.00242848 0)
(0.171014 0.0023412 0)
(0.16966 0.00225819 0)
(0.168311 0.00217917 0)
(0.16697 0.00210388 0)
(0.165637 0.0020321 0)
(0.164313 0.00196359 0)
(0.162999 0.00189815 0)
(0.161694 0.00183562 0)
(0.160401 0.0017758 0)
(0.159119 0.00171855 0)
(0.157848 0.00166372 0)
(0.15659 0.00161117 0)
(0.155344 0.00156077 0)
(0.154111 0.00151242 0)
(0.152892 0.00146599 0)
(0.151685 0.00142138 0)
(0.150492 0.0013785 0)
(0.149313 0.00133725 0)
(0.148148 0.00129755 0)
(0.146997 0.00125931 0)
(0.145859 0.00122247 0)
(0.144736 0.00118694 0)
(0.143628 0.00115267 0)
(0.142533 0.00111958 0)
(0.141453 0.00108762 0)
(0.140387 0.00105673 0)
(0.139335 0.00102685 0)
(0.138297 0.000997926 0)
(0.137274 0.000969918 0)
(0.136265 0.000942775 0)
(0.13527 0.000916452 0)
(0.13429 0.000890907 0)
(0.133324 0.0008661 0)
(0.132372 0.000841992 0)
(0.131434 0.000818547 0)
(0.130511 0.00079573 0)
(0.129601 0.000773507 0)
(0.128706 0.000751847 0)
(0.127825 0.00073072 0)
(0.126959 0.000710097 0)
(0.126106 0.000689952 0)
(0.125268 0.000670258 0)
(0.124445 0.000650993 0)
(0.123636 0.000632132 0)
(0.122841 0.000613656 0)
(0.12206 0.000595544 0)
(0.121295 0.00057778 0)
(0.120544 0.000560347 0)
(0.119807 0.000543232 0)
(0.119086 0.000526423 0)
(0.11838 0.000509913 0)
(0.117688 0.000493696 0)
(0.117012 0.000477769 0)
(0.116351 0.000462136 0)
(0.115706 0.000446805 0)
(0.115075 0.000431791 0)
(0.114461 0.000417121 0)
(0.113861 0.000402833 0)
(0.113278 0.000388991 0)
(0.112709 0.000375696 0)
(0.112156 0.00036313 0)
(0.111617 0.000351663 0)
(0.111091 0.00034219 0)
(0.110578 0.000337376 0)
(0.110084 0.000347601 0)
(0.109467 0.0003954 0)
(0.19548 0.00745898 0)
(0.196356 0.00835846 0)
(0.197346 0.00894379 0)
(0.198318 0.0092847 0)
(0.199226 0.00943941 0)
(0.200051 0.00943562 0)
(0.20077 0.00929496 0)
(0.201358 0.00904362 0)
(0.201802 0.00870989 0)
(0.202095 0.00832085 0)
(0.202241 0.00790105 0)
(0.202248 0.00747155 0)
(0.202129 0.00704912 0)
(0.2019 0.00664583 0)
(0.201575 0.00626928 0)
(0.201168 0.00592325 0)
(0.200694 0.0056086 0)
(0.200163 0.00532413 0)
(0.199582 0.00506741 0)
(0.19896 0.0048354 0)
(0.198301 0.00462494 0)
(0.197609 0.00443304 0)
(0.196887 0.00425699 0)
(0.196138 0.00409448 0)
(0.195365 0.00394357 0)
(0.194567 0.00380269 0)
(0.193748 0.00367053 0)
(0.192908 0.00354606 0)
(0.192049 0.00342841 0)
(0.191173 0.0033169 0)
(0.19028 0.00321094 0)
(0.189372 0.00311006 0)
(0.188449 0.00301384 0)
(0.187514 0.00292192 0)
(0.186567 0.00283399 0)
(0.18561 0.00274978 0)
(0.184643 0.00266903 0)
(0.183668 0.00259153 0)
(0.182685 0.00251708 0)
(0.181696 0.00244549 0)
(0.180701 0.00237659 0)
(0.179701 0.00231025 0)
(0.178698 0.00224631 0)
(0.177691 0.00218464 0)
(0.176682 0.00212513 0)
(0.175672 0.00206767 0)
(0.174661 0.00201215 0)
(0.173649 0.00195848 0)
(0.172638 0.00190657 0)
(0.171628 0.00185633 0)
(0.17062 0.00180769 0)
(0.169613 0.00176057 0)
(0.16861 0.0017149 0)
(0.167609 0.00167061 0)
(0.166612 0.00162765 0)
(0.165619 0.00158594 0)
(0.164631 0.00154545 0)
(0.163648 0.0015061 0)
(0.162669 0.00146785 0)
(0.161697 0.00143065 0)
(0.16073 0.00139445 0)
(0.15977 0.00135921 0)
(0.158817 0.00132488 0)
(0.15787 0.00129143 0)
(0.156931 0.0012588 0)
(0.155999 0.00122696 0)
(0.155075 0.00119588 0)
(0.154159 0.00116552 0)
(0.153252 0.00113584 0)
(0.152353 0.00110681 0)
(0.151463 0.00107839 0)
(0.150582 0.00105057 0)
(0.149711 0.0010233 0)
(0.148849 0.000996557 0)
(0.147997 0.000970315 0)
(0.147156 0.000944548 0)
(0.146325 0.00091923 0)
(0.145504 0.000894338 0)
(0.144694 0.000869849 0)
(0.143896 0.000845743 0)
(0.143109 0.000822002 0)
(0.142334 0.000798608 0)
(0.14157 0.000775548 0)
(0.140819 0.00075281 0)
(0.140081 0.000730386 0)
(0.139355 0.000708271 0)
(0.138642 0.000686465 0)
(0.137943 0.000664973 0)
(0.137257 0.000643808 0)
(0.136585 0.000622992 0)
(0.135927 0.000602559 0)
(0.135283 0.000582563 0)
(0.134653 0.000563084 0)
(0.134038 0.000544252 0)
(0.133437 0.000526296 0)
(0.13285 0.000509665 0)
(0.132277 0.000495398 0)
(0.131716 0.000486313 0)
(0.131178 0.000490923 0)
(0.130534 0.000520184 0)
(0.196005 0.00708923 0)
(0.196744 0.00789198 0)
(0.197602 0.00845092 0)
(0.198482 0.00879931 0)
(0.199336 0.00897877 0)
(0.200142 0.00901411 0)
(0.200882 0.00892464 0)
(0.201534 0.00873268 0)
(0.202087 0.00846257 0)
(0.202532 0.00813802 0)
(0.20287 0.00778062 0)
(0.203104 0.00740912 0)
(0.203242 0.00703879 0)
(0.203295 0.006681 0)
(0.203272 0.00634337 0)
(0.203185 0.00603019 0)
(0.203044 0.0057431 0)
(0.202855 0.0054818 0)
(0.202627 0.00524473 0)
(0.202364 0.00502965 0)
(0.202071 0.00483403 0)
(0.20175 0.00465536 0)
(0.201403 0.00449131 0)
(0.201032 0.00433982 0)
(0.200639 0.00419912 0)
(0.200224 0.00406774 0)
(0.199787 0.00394445 0)
(0.19933 0.00382826 0)
(0.198853 0.00371833 0)
(0.198357 0.003614 0)
(0.197842 0.00351469 0)
(0.197309 0.00341993 0)
(0.196759 0.00332933 0)
(0.196191 0.00324254 0)
(0.195608 0.00315925 0)
(0.195009 0.00307921 0)
(0.194395 0.00300219 0)
(0.193766 0.00292797 0)
(0.193124 0.00285636 0)
(0.192469 0.00278722 0)
(0.191801 0.00272037 0)
(0.191122 0.00265569 0)
(0.190432 0.00259305 0)
(0.18973 0.00253233 0)
(0.189019 0.00247344 0)
(0.188299 0.00241627 0)
(0.18757 0.00236075 0)
(0.186832 0.00230677 0)
(0.186087 0.00225428 0)
(0.185335 0.0022032 0)
(0.184577 0.00215347 0)
(0.183813 0.00210501 0)
(0.183043 0.00205779 0)
(0.182268 0.00201173 0)
(0.181489 0.00196679 0)
(0.180706 0.00192292 0)
(0.17992 0.00188008 0)
(0.179131 0.00183822 0)
(0.17834 0.00179729 0)
(0.177547 0.00175726 0)
(0.176752 0.00171809 0)
(0.175956 0.00167975 0)
(0.17516 0.00164218 0)
(0.174364 0.00160537 0)
(0.173568 0.00156928 0)
(0.172773 0.00153387 0)
(0.171979 0.00149911 0)
(0.171187 0.00146497 0)
(0.170396 0.00143142 0)
(0.169608 0.00139844 0)
(0.168823 0.001366 0)
(0.168041 0.00133405 0)
(0.167263 0.00130259 0)
(0.166489 0.00127159 0)
(0.165719 0.00124101 0)
(0.164954 0.00121084 0)
(0.164194 0.00118106 0)
(0.16344 0.00115163 0)
(0.162691 0.00112255 0)
(0.16195 0.00109379 0)
(0.161215 0.00106533 0)
(0.160487 0.00103717 0)
(0.159767 0.00100928 0)
(0.159054 0.000981663 0)
(0.158351 0.000954307 0)
(0.157656 0.000927212 0)
(0.15697 0.000900381 0)
(0.156294 0.000873824 0)
(0.155628 0.000847561 0)
(0.154972 0.000821621 0)
(0.154327 0.000796048 0)
(0.153692 0.000770909 0)
(0.153069 0.000746302 0)
(0.152458 0.000722383 0)
(0.151858 0.000699415 0)
(0.151269 0.000677895 0)
(0.150692 0.000658883 0)
(0.150128 0.000644894 0)
(0.149586 0.000641686 0)
(0.148951 0.000649915 0)
(0.196466 0.00677015 0)
(0.197099 0.00748365 0)
(0.197844 0.0080075 0)
(0.198628 0.00835218 0)
(0.199407 0.00854491 0)
(0.200156 0.00860655 0)
(0.200857 0.00855423 0)
(0.201493 0.00840701 0)
(0.202053 0.00818586 0)
(0.20253 0.00791154 0)
(0.202923 0.00760321 0)
(0.203234 0.00727767 0)
(0.203469 0.00694888 0)
(0.203636 0.00662753 0)
(0.203743 0.00632114 0)
(0.2038 0.00603431 0)
(0.203813 0.00576925 0)
(0.20379 0.00552638 0)
(0.203737 0.00530486 0)
(0.203658 0.00510309 0)
(0.203556 0.00491911 0)
(0.203434 0.00475085 0)
(0.203295 0.00459632 0)
(0.203138 0.00445371 0)
(0.202965 0.00432142 0)
(0.202776 0.00419808 0)
(0.202572 0.00408253 0)
(0.202353 0.00397382 0)
(0.202119 0.00387113 0)
(0.20187 0.0037738 0)
(0.201606 0.00368127 0)
(0.201327 0.00359306 0)
(0.201034 0.00350876 0)
(0.200726 0.00342803 0)
(0.200405 0.00335056 0)
(0.200069 0.00327608 0)
(0.199719 0.00320436 0)
(0.199356 0.00313519 0)
(0.198979 0.00306839 0)
(0.198589 0.00300378 0)
(0.198187 0.00294121 0)
(0.197771 0.00288055 0)
(0.197344 0.00282168 0)
(0.196904 0.00276448 0)
(0.196452 0.00270886 0)
(0.195989 0.00265471 0)
(0.195515 0.00260196 0)
(0.19503 0.00255052 0)
(0.194535 0.00250032 0)
(0.194029 0.0024513 0)
(0.193514 0.0024034 0)
(0.192989 0.00235656 0)
(0.192455 0.00231072 0)
(0.191913 0.00226584 0)
(0.191362 0.00222187 0)
(0.190803 0.00217876 0)
(0.190236 0.00213647 0)
(0.189663 0.00209498 0)
(0.189082 0.00205422 0)
(0.188495 0.00201418 0)
(0.187903 0.00197482 0)
(0.187304 0.00193611 0)
(0.1867 0.001898 0)
(0.186091 0.00186048 0)
(0.185478 0.00182352 0)
(0.184861 0.00178708 0)
(0.184239 0.00175114 0)
(0.183615 0.00171567 0)
(0.182988 0.00168064 0)
(0.182358 0.00164604 0)
(0.181726 0.00161183 0)
(0.181092 0.00157799 0)
(0.180457 0.0015445 0)
(0.179822 0.00151133 0)
(0.179185 0.00147846 0)
(0.178549 0.00144587 0)
(0.177913 0.00141354 0)
(0.177278 0.00138146 0)
(0.176645 0.00134959 0)
(0.176013 0.00131793 0)
(0.175383 0.00128647 0)
(0.174756 0.00125518 0)
(0.174131 0.00122406 0)
(0.173511 0.0011931 0)
(0.172894 0.0011623 0)
(0.172281 0.00113166 0)
(0.171674 0.00110119 0)
(0.171071 0.0010709 0)
(0.170475 0.00104082 0)
(0.169884 0.00101099 0)
(0.1693 0.000981463 0)
(0.168723 0.000952313 0)
(0.168153 0.000923658 0)
(0.167591 0.000895672 0)
(0.167037 0.000868639 0)
(0.16649 0.00084306 0)
(0.165952 0.0008199 0)
(0.165425 0.000801055 0)
(0.164918 0.000789384 0)
(0.164326 0.000777548 0)
(0.196875 0.00648922 0)
(0.197425 0.00712279 0)
(0.198075 0.00760786 0)
(0.198772 0.00794218 0)
(0.199477 0.00814174 0)
(0.200163 0.00822273 0)
(0.200814 0.00819982 0)
(0.201414 0.00808914 0)
(0.201951 0.00790859 0)
(0.20242 0.00767627 0)
(0.202819 0.00740917 0)
(0.203149 0.0071224 0)
(0.203416 0.00682871 0)
(0.203625 0.00653816 0)
(0.203783 0.00625808 0)
(0.203898 0.00599328 0)
(0.203978 0.00574641 0)
(0.204027 0.00551846 0)
(0.204053 0.00530921 0)
(0.204058 0.00511764 0)
(0.204046 0.00494232 0)
(0.20402 0.00478158 0)
(0.203981 0.00463377 0)
(0.203931 0.00449733 0)
(0.20387 0.00437083 0)
(0.2038 0.00425305 0)
(0.203719 0.00414289 0)
(0.203628 0.00403946 0)
(0.203528 0.00394198 0)
(0.203419 0.00384979 0)
(0.203299 0.00376233 0)
(0.20317 0.00367915 0)
(0.203031 0.00359981 0)
(0.202882 0.00352398 0)
(0.202723 0.00345134 0)
(0.202554 0.00338161 0)
(0.202375 0.00331457 0)
(0.202185 0.00324998 0)
(0.201986 0.00318766 0)
(0.201776 0.00312744 0)
(0.201557 0.00306915 0)
(0.201327 0.00301267 0)
(0.201087 0.00295785 0)
(0.200836 0.00290458 0)
(0.200576 0.00285276 0)
(0.200306 0.00280229 0)
(0.200025 0.00275308 0)
(0.199735 0.00270506 0)
(0.199435 0.00265813 0)
(0.199126 0.00261224 0)
(0.198807 0.00256733 0)
(0.198478 0.00252333 0)
(0.19814 0.00248018 0)
(0.197794 0.00243785 0)
(0.197438 0.00239627 0)
(0.197074 0.00235541 0)
(0.196701 0.00231523 0)
(0.196319 0.00227567 0)
(0.19593 0.00223672 0)
(0.195532 0.00219833 0)
(0.195127 0.00216046 0)
(0.194714 0.00212309 0)
(0.194295 0.00208618 0)
(0.193868 0.00204971 0)
(0.193434 0.00201364 0)
(0.192994 0.00197796 0)
(0.192548 0.00194262 0)
(0.192096 0.00190761 0)
(0.191638 0.00187289 0)
(0.191175 0.00183846 0)
(0.190707 0.00180427 0)
(0.190235 0.00177031 0)
(0.189758 0.00173656 0)
(0.189277 0.00170298 0)
(0.188792 0.00166957 0)
(0.188304 0.0016363 0)
(0.187813 0.00160315 0)
(0.18732 0.00157011 0)
(0.186824 0.00153715 0)
(0.186327 0.00150426 0)
(0.185828 0.00147142 0)
(0.185328 0.00143864 0)
(0.184827 0.00140589 0)
(0.184326 0.00137317 0)
(0.183825 0.00134048 0)
(0.183325 0.00130783 0)
(0.182826 0.00127523 0)
(0.182328 0.00124269 0)
(0.181832 0.00121026 0)
(0.181339 0.00117796 0)
(0.180848 0.00114587 0)
(0.18036 0.00111408 0)
(0.179875 0.0010827 0)
(0.179394 0.00105194 0)
(0.178916 0.00102206 0)
(0.178444 0.000993549 0)
(0.177976 0.000967178 0)
(0.177516 0.000944103 0)
(0.177073 0.00092466 0)
(0.176552 0.000896398 0)
(0.197238 0.00623766 0)
(0.197722 0.00680106 0)
(0.198294 0.00724703 0)
(0.198915 0.007567 0)
(0.199551 0.00776875 0)
(0.200179 0.00786399 0)
(0.200779 0.0078648 0)
(0.201338 0.00778471 0)
(0.201846 0.0076389 0)
(0.202296 0.00744302 0)
(0.202686 0.00721206 0)
(0.203016 0.00695955 0)
(0.20329 0.0066971 0)
(0.203513 0.0064341 0)
(0.203691 0.00617764 0)
(0.203831 0.0059326 0)
(0.203939 0.00570196 0)
(0.20402 0.00548718 0)
(0.204079 0.00528854 0)
(0.204122 0.00510555 0)
(0.20415 0.00493722 0)
(0.204166 0.0047823 0)
(0.204173 0.00463946 0)
(0.204172 0.00450737 0)
(0.204163 0.00438481 0)
(0.204147 0.00427068 0)
(0.204125 0.00416401 0)
(0.204097 0.00406395 0)
(0.204063 0.00396978 0)
(0.204023 0.00388086 0)
(0.203978 0.00379667 0)
(0.203926 0.00371674 0)
(0.203869 0.00364067 0)
(0.203805 0.00356811 0)
(0.203736 0.00349874 0)
(0.20366 0.0034323 0)
(0.203578 0.00336854 0)
(0.203489 0.00330724 0)
(0.203394 0.00324821 0)
(0.203292 0.00319126 0)
(0.203183 0.00313625 0)
(0.203068 0.00308301 0)
(0.202945 0.00303143 0)
(0.202816 0.00298137 0)
(0.202679 0.00293273 0)
(0.202535 0.00288541 0)
(0.202384 0.00283931 0)
(0.202225 0.00279434 0)
(0.202059 0.00275043 0)
(0.201886 0.00270751 0)
(0.201705 0.0026655 0)
(0.201516 0.00262434 0)
(0.20132 0.00258397 0)
(0.201117 0.00254435 0)
(0.200906 0.00250541 0)
(0.200688 0.00246711 0)
(0.200462 0.0024294 0)
(0.200229 0.00239224 0)
(0.199988 0.0023556 0)
(0.19974 0.00231942 0)
(0.199485 0.00228368 0)
(0.199223 0.00224835 0)
(0.198954 0.00221338 0)
(0.198678 0.00217874 0)
(0.198395 0.00214441 0)
(0.198106 0.00211035 0)
(0.19781 0.00207654 0)
(0.197507 0.00204295 0)
(0.197199 0.00200954 0)
(0.196884 0.0019763 0)
(0.196563 0.0019432 0)
(0.196237 0.00191022 0)
(0.195905 0.00187732 0)
(0.195568 0.00184449 0)
(0.195226 0.0018117 0)
(0.194879 0.00177894 0)
(0.194527 0.00174618 0)
(0.194171 0.00171339 0)
(0.193811 0.00168058 0)
(0.193447 0.00164771 0)
(0.193079 0.00161477 0)
(0.192709 0.00158176 0)
(0.192335 0.00154866 0)
(0.191959 0.00151548 0)
(0.19158 0.0014822 0)
(0.191199 0.00144884 0)
(0.190817 0.00141541 0)
(0.190433 0.00138194 0)
(0.190048 0.00134845 0)
(0.189663 0.001315 0)
(0.189277 0.00128165 0)
(0.18889 0.0012485 0)
(0.188505 0.00121568 0)
(0.188119 0.00118339 0)
(0.187734 0.00115189 0)
(0.187351 0.00112159 0)
(0.18697 0.00109305 0)
(0.186593 0.00106673 0)
(0.186228 0.0010411 0)
(0.185793 0.00100152 0)
(0.197563 0.0060094 0)
(0.197993 0.00651183 0)
(0.198499 0.00692023 0)
(0.199054 0.00722347 0)
(0.199629 0.00742385 0)
(0.200202 0.00752917 0)
(0.200755 0.00754906 0)
(0.201275 0.00749471 0)
(0.201752 0.00737889 0)
(0.20218 0.00721506 0)
(0.202556 0.00701632 0)
(0.202879 0.00679471 0)
(0.203153 0.00656077 0)
(0.203381 0.00632318 0)
(0.203567 0.00608871 0)
(0.203719 0.00586223 0)
(0.20384 0.00564693 0)
(0.203936 0.00544462 0)
(0.204013 0.00525601 0)
(0.204073 0.00508104 0)
(0.204119 0.00491912 0)
(0.204155 0.00476937 0)
(0.204182 0.00463076 0)
(0.204202 0.0045022 0)
(0.204217 0.00438268 0)
(0.204225 0.00427122 0)
(0.20423 0.00416697 0)
(0.20423 0.00406916 0)
(0.204226 0.00397712 0)
(0.204218 0.00389027 0)
(0.204207 0.00380809 0)
(0.204192 0.00373016 0)
(0.204174 0.00365608 0)
(0.204152 0.0035855 0)
(0.204127 0.00351814 0)
(0.204098 0.00345371 0)
(0.204065 0.00339198 0)
(0.204029 0.00333274 0)
(0.203988 0.00327579 0)
(0.203944 0.00322095 0)
(0.203896 0.00316806 0)
(0.203843 0.00311697 0)
(0.203786 0.00306756 0)
(0.203725 0.00301969 0)
(0.20366 0.00297325 0)
(0.20359 0.00292815 0)
(0.203515 0.00288427 0)
(0.203435 0.00284154 0)
(0.203351 0.00279988 0)
(0.203262 0.00275919 0)
(0.203167 0.00271942 0)
(0.203068 0.0026805 0)
(0.202963 0.00264236 0)
(0.202853 0.00260495 0)
(0.202738 0.00256821 0)
(0.202617 0.00253208 0)
(0.202491 0.00249653 0)
(0.202359 0.0024615 0)
(0.202222 0.00242696 0)
(0.202079 0.00239285 0)
(0.20193 0.00235914 0)
(0.201776 0.00232579 0)
(0.201616 0.00229276 0)
(0.201451 0.00226002 0)
(0.20128 0.00222753 0)
(0.201103 0.00219527 0)
(0.200921 0.00216319 0)
(0.200733 0.00213128 0)
(0.20054 0.00209949 0)
(0.200341 0.0020678 0)
(0.200137 0.00203618 0)
(0.199927 0.0020046 0)
(0.199712 0.00197304 0)
(0.199492 0.00194147 0)
(0.199267 0.00190987 0)
(0.199037 0.0018782 0)
(0.198802 0.00184646 0)
(0.198563 0.00181461 0)
(0.198319 0.00178264 0)
(0.19807 0.00175053 0)
(0.197817 0.00171826 0)
(0.19756 0.00168582 0)
(0.1973 0.00165321 0)
(0.197035 0.00162041 0)
(0.196767 0.00158742 0)
(0.196495 0.00155426 0)
(0.196221 0.00152094 0)
(0.195943 0.00148748 0)
(0.195663 0.00145391 0)
(0.19538 0.00142029 0)
(0.195095 0.00138669 0)
(0.194808 0.0013532 0)
(0.194518 0.00131997 0)
(0.194228 0.00128717 0)
(0.193935 0.00125506 0)
(0.193642 0.00122397 0)
(0.193349 0.00119423 0)
(0.193057 0.00116573 0)
(0.192773 0.00113591 0)
(0.192426 0.00109035 0)
(0.197854 0.00580013 0)
(0.19824 0.00624973 0)
(0.198692 0.00662302 0)
(0.199189 0.0069084 0)
(0.199709 0.00710476 0)
(0.200232 0.00721678 0)
(0.200741 0.00725184 0)
(0.201224 0.00721908 0)
(0.201671 0.00712916 0)
(0.202077 0.00699353 0)
(0.202437 0.00682359 0)
(0.202752 0.00663 0)
(0.203022 0.00642225 0)
(0.20325 0.00620831 0)
(0.203441 0.00599459 0)
(0.203598 0.00578585 0)
(0.203728 0.00558541 0)
(0.203834 0.00539531 0)
(0.20392 0.00521662 0)
(0.203989 0.00504962 0)
(0.204046 0.00489409 0)
(0.204093 0.00474946 0)
(0.20413 0.00461496 0)
(0.204161 0.00448977 0)
(0.204186 0.00437302 0)
(0.204207 0.00426391 0)
(0.204223 0.00416168 0)
(0.204236 0.00406565 0)
(0.204245 0.00397522 0)
(0.204252 0.00388984 0)
(0.204256 0.00380906 0)
(0.204258 0.00373244 0)
(0.204257 0.00365963 0)
(0.204254 0.0035903 0)
(0.204249 0.00352416 0)
(0.204241 0.00346095 0)
(0.204231 0.00340044 0)
(0.20422 0.00334242 0)
(0.204206 0.0032867 0)
(0.204189 0.00323311 0)
(0.204171 0.00318148 0)
(0.20415 0.00313168 0)
(0.204126 0.00308357 0)
(0.2041 0.00303703 0)
(0.204072 0.00299195 0)
(0.204041 0.00294822 0)
(0.204007 0.00290575 0)
(0.20397 0.00286444 0)
(0.203931 0.00282422 0)
(0.203889 0.002785 0)
(0.203843 0.00274672 0)
(0.203794 0.0027093 0)
(0.203743 0.00267269 0)
(0.203687 0.00263681 0)
(0.203629 0.00260162 0)
(0.203567 0.00256705 0)
(0.203501 0.00253307 0)
(0.203432 0.00249961 0)
(0.203359 0.00246664 0)
(0.203283 0.00243411 0)
(0.203202 0.00240198 0)
(0.203118 0.0023702 0)
(0.203029 0.00233874 0)
(0.202937 0.00230755 0)
(0.202841 0.00227661 0)
(0.20274 0.00224588 0)
(0.202635 0.00221531 0)
(0.202526 0.00218489 0)
(0.202413 0.00215457 0)
(0.202296 0.00212432 0)
(0.202174 0.00209412 0)
(0.202049 0.00206392 0)
(0.201919 0.00203371 0)
(0.201784 0.00200345 0)
(0.201646 0.00197312 0)
(0.201503 0.00194269 0)
(0.201356 0.00191213 0)
(0.201205 0.00188143 0)
(0.201049 0.00185055 0)
(0.20089 0.00181948 0)
(0.200727 0.0017882 0)
(0.200559 0.00175669 0)
(0.200388 0.00172495 0)
(0.200213 0.00169297 0)
(0.200034 0.00166074 0)
(0.199852 0.00162828 0)
(0.199666 0.00159559 0)
(0.199476 0.00156271 0)
(0.199283 0.00152966 0)
(0.199087 0.00149649 0)
(0.198888 0.00146329 0)
(0.198686 0.00143014 0)
(0.19848 0.00139719 0)
(0.198272 0.0013646 0)
(0.198061 0.00133259 0)
(0.197848 0.00130143 0)
(0.197633 0.00127126 0)
(0.197419 0.0012416 0)
(0.197207 0.00120952 0)