/*--------------------------------*- C++ -*----------------------------------*\
| =========                 |                                                 |
| \\      /  F ield         | OpenFOAM: The Open Source CFD Toolbox           |
|  \\    /   O peration     | Version:  2.3.0                                 |
|   \\  /    A nd           | Web:      www.OpenFOAM.org                      |
|    \\/     M anipulation  |                                                 |
\*---------------------------------------------------------------------------*/
FoamFile
{
    version     2.0;
    format      ascii;
    class       volVectorField;
    location    "0.5";
    object      U;
}
// * * * * * * * * * * * * * * * * * * * * * * * * * * * * * * * * * * * * * //

dimensions      [0 1 -1 0 0 0 0];

internalField   nonuniform List<vector> 
3105
(
(0.176802 0.00434403 0)
(0.156093 0.00594933 0)
(0.137397 0.00612119 0)
(0.119263 0.00553013 0)
(0.101774 0.00473113 0)
(0.0857302 0.00384824 0)
(0.0721689 0.00288927 0)
(0.0615094 0.00187653 0)
(0.0535808 0.000988388 0)
(0.0478582 0.000380594 0)
(0.0437758 5.37273e-05 0)
(0.0408597 -8.0883e-05 0)
(0.0387286 -0.000107303 0)
(0.0370974 -8.26326e-05 0)
(0.0357628 -3.91648e-05 0)
(0.0345956 4.01223e-06 0)
(0.0335246 3.74671e-05 0)
(0.032517 5.90524e-05 0)
(0.0315615 7.04842e-05 0)
(0.0306565 7.46647e-05 0)
(0.029803 7.43096e-05 0)
(0.0290015 7.14757e-05 0)
(0.0282508 6.75224e-05 0)
(0.0275487 6.32531e-05 0)
(0.0268919 5.90932e-05 0)
(0.0262766 5.52315e-05 0)
(0.025699 5.17199e-05 0)
(0.0251554 4.85501e-05 0)
(0.0246426 4.5684e-05 0)
(0.0241577 4.30853e-05 0)
(0.023698 4.07115e-05 0)
(0.0232615 3.85362e-05 0)
(0.0228461 3.65246e-05 0)
(0.0224503 3.46636e-05 0)
(0.0220727 3.2925e-05 0)
(0.0217118 3.13074e-05 0)
(0.0213667 2.97862e-05 0)
(0.0210363 2.83667e-05 0)
(0.0207197 2.70252e-05 0)
(0.020416 2.57707e-05 0)
(0.0201246 2.45808e-05 0)
(0.0198446 2.34666e-05 0)
(0.0195757 2.24084e-05 0)
(0.0193169 2.14149e-05 0)
(0.019068 2.04713e-05 0)
(0.0188283 1.95811e-05 0)
(0.0185976 1.87361e-05 0)
(0.0183751 1.79351e-05 0)
(0.0181607 1.71764e-05 0)
(0.0179538 1.64539e-05 0)
(0.0177544 1.57687e-05 0)
(0.0175618 1.5115e-05 0)
(0.0173762 1.44909e-05 0)
(0.0171967 1.38986e-05 0)
(0.0170237 1.33258e-05 0)
(0.0168564 1.27879e-05 0)
(0.0166951 1.22585e-05 0)
(0.0165391 1.17683e-05 0)
(0.0163887 1.12783e-05 0)
(0.0162433 1.08275e-05 0)
(0.0161033 1.03761e-05 0)
(0.0159678 9.95653e-06 0)
(0.0158375 9.54126e-06 0)
(0.0157114 9.14574e-06 0)
(0.0155904 8.76093e-06 0)
(0.0154732 8.38867e-06 0)
(0.0153611 8.02659e-06 0)
(0.0152525 7.68193e-06 0)
(0.0151489 7.33507e-06 0)
(0.0150485 7.02178e-06 0)
(0.0149531 6.68523e-06 0)
(0.0148607 6.39938e-06 0)
(0.0147733 6.071e-06 0)
(0.0146886 5.80194e-06 0)
(0.0146091 5.48787e-06 0)
(0.0145318 5.234e-06 0)
(0.01446 4.9302e-06 0)
(0.01439 4.69708e-06 0)
(0.0143258 4.39804e-06 0)
(0.0142628 4.19234e-06 0)
(0.014206 3.88567e-06 0)
(0.0141498 3.70956e-06 0)
(0.0141004 3.39749e-06 0)
(0.0140509 3.24398e-06 0)
(0.0140087 2.9276e-06 0)
(0.0139655 2.79812e-06 0)
(0.0139304 2.47423e-06 0)
(0.0138932 2.38101e-06 0)
(0.0138651 2.04408e-06 0)
(0.0138333 1.99199e-06 0)
(0.0138119 1.63241e-06 0)
(0.0137851 1.61593e-06 0)
(0.01377 1.2571e-06 0)
(0.0137473 1.29387e-06 0)
(0.0137376 9.54474e-07 0)
(0.013718 1.04217e-06 0)
(0.0137127 7.13401e-07 0)
(0.0136948 8.68835e-07 0)
(0.0136923 5.74732e-07 0)
(0.0136741 9.52019e-07 0)
(0.19228 0.00771163 0)
(0.190403 0.0107974 0)
(0.187827 0.0118829 0)
(0.183969 0.0117262 0)
(0.178533 0.0110928 0)
(0.171697 0.0102039 0)
(0.164074 0.00905778 0)
(0.156157 0.00765017 0)
(0.14833 0.00613163 0)
(0.140826 0.0047201 0)
(0.133778 0.00355804 0)
(0.127285 0.00267673 0)
(0.121392 0.00204217 0)
(0.116107 0.00160749 0)
(0.111384 0.00132111 0)
(0.107154 0.00113417 0)
(0.103344 0.00100764 0)
(0.0998915 0.000915083 0)
(0.0967413 0.000840843 0)
(0.0938504 0.00077669 0)
(0.0911842 0.000718797 0)
(0.0887148 0.000665668 0)
(0.0864194 0.000616863 0)
(0.0842787 0.000572289 0)
(0.0822764 0.000531861 0)
(0.0803983 0.000495395 0)
(0.0786321 0.000462579 0)
(0.076967 0.000433048 0)
(0.0753937 0.0004064 0)
(0.0739038 0.000382275 0)
(0.0724903 0.000360322 0)
(0.0711468 0.000340269 0)
(0.0698678 0.000321842 0)
(0.0686484 0.000304864 0)
(0.0674845 0.000289128 0)
(0.0663719 0.000274533 0)
(0.0653075 0.000260919 0)
(0.0642878 0.000248233 0)
(0.0633105 0.000236339 0)
(0.0623725 0.000225214 0)
(0.0614721 0.000214742 0)
(0.0606065 0.000204919 0)
(0.0597745 0.000195646 0)
(0.0589735 0.000186921 0)
(0.0582028 0.000178666 0)
(0.0574599 0.00017087 0)
(0.0567444 0.000163482 0)
(0.0560541 0.000156478 0)
(0.0553887 0.000149835 0)
(0.0547461 0.000143513 0)
(0.0541265 0.000137504 0)
(0.0535277 0.000131773 0)
(0.05295 0.000126303 0)
(0.0523915 0.000121085 0)
(0.0518526 0.000116073 0)
(0.0513314 0.000111304 0)
(0.0508287 0.000106687 0)
(0.0503422 0.000102305 0)
(0.0498733 9.80344e-05 0)
(0.0494193 9.39838e-05 0)
(0.0489822 9.00277e-05 0)
(0.0485589 8.62541e-05 0)
(0.048152 8.25794e-05 0)
(0.0477578 7.9037e-05 0)
(0.0473796 7.56048e-05 0)
(0.0470132 7.2271e-05 0)
(0.0466626 6.90383e-05 0)
(0.0463229 6.59098e-05 0)
(0.0459988 6.28376e-05 0)
(0.0456848 5.99114e-05 0)
(0.0453865 5.69707e-05 0)
(0.0450973 5.42223e-05 0)
(0.0448242 5.13964e-05 0)
(0.0445591 4.87834e-05 0)
(0.0443108 4.60837e-05 0)
(0.0440692 4.35952e-05 0)
(0.0438452 4.10045e-05 0)
(0.0436265 3.86537e-05 0)
(0.0434264 3.61509e-05 0)
(0.04323 3.39566e-05 0)
(0.0430537 3.15031e-05 0)
(0.0428789 2.94737e-05 0)
(0.042726 2.70797e-05 0)
(0.0425721 2.51993e-05 0)
(0.0424424 2.2877e-05 0)
(0.0423085 2.11619e-05 0)
(0.0422015 1.89139e-05 0)
(0.0420863 1.74187e-05 0)
(0.0420013 1.52451e-05 0)
(0.0419032 1.40074e-05 0)
(0.0418392 1.19007e-05 0)
(0.0417563 1.09335e-05 0)
(0.0417118 8.99588e-06 0)
(0.0416413 8.39347e-06 0)
(0.0416137 6.71524e-06 0)
(0.0415523 6.51841e-06 0)
(0.041538 5.10781e-06 0)
(0.0414818 5.44188e-06 0)
(0.0414761 4.37767e-06 0)
(0.0414196 5.46531e-06 0)
(0.193249 0.00742757 0)
(0.193607 0.0100263 0)
(0.194599 0.0116157 0)
(0.195644 0.0121288 0)
(0.196089 0.0120297 0)
(0.195603 0.0115944 0)
(0.194188 0.0108638 0)
(0.191966 0.00985882 0)
(0.189096 0.00868437 0)
(0.18574 0.00750453 0)
(0.182044 0.00645176 0)
(0.178159 0.00558055 0)
(0.174203 0.00488084 0)
(0.170276 0.00432424 0)
(0.166428 0.00387777 0)
(0.162681 0.00351174 0)
(0.159044 0.00320308 0)
(0.15552 0.00293575 0)
(0.152112 0.0026995 0)
(0.14882 0.00248796 0)
(0.145645 0.0022972 0)
(0.142586 0.00212465 0)
(0.139643 0.00196851 0)
(0.136815 0.00182735 0)
(0.134101 0.00169986 0)
(0.131496 0.00158478 0)
(0.128999 0.00148084 0)
(0.126604 0.00138684 0)
(0.124308 0.00130162 0)
(0.122107 0.00122416 0)
(0.119994 0.00115351 0)
(0.117967 0.00108888 0)
(0.116021 0.00102951 0)
(0.114151 0.000974839 0)
(0.112354 0.000924277 0)
(0.110625 0.000877444 0)
(0.108962 0.000833876 0)
(0.10736 0.000793324 0)
(0.105818 0.000755409 0)
(0.10433 0.00071997 0)
(0.102896 0.000686691 0)
(0.101511 0.00065547 0)
(0.100176 0.000626055 0)
(0.098885 0.000598361 0)
(0.0976388 0.000572196 0)
(0.0964337 0.000547469 0)
(0.0952694 0.000524051 0)
(0.0941426 0.000501841 0)
(0.0930536 0.000480769 0)
(0.091999 0.000460715 0)
(0.0909794 0.000441642 0)
(0.0899914 0.000423442 0)
(0.0890363 0.000406072 0)
(0.0881103 0.000389477 0)
(0.0872152 0.000373565 0)
(0.0863471 0.000358361 0)
(0.0855084 0.000343706 0)
(0.0846946 0.000329708 0)
(0.083909 0.000316149 0)
(0.0831465 0.000303182 0)
(0.0824113 0.000290601 0)
(0.0816973 0.000278512 0)
(0.08101 0.000266794 0)
(0.0803425 0.000255448 0)
(0.0797011 0.000244479 0)
(0.0790781 0.000233795 0)
(0.0784811 0.000223458 0)
(0.0779009 0.000213391 0)
(0.0773469 0.000203581 0)
(0.0768082 0.000194095 0)
(0.0762961 0.000184733 0)
(0.0757976 0.000175755 0)
(0.0753267 0.00016679 0)
(0.0748674 0.000158224 0)
(0.0744372 0.000149659 0)
(0.0740162 0.00014147 0)
(0.073626 0.000133266 0)
(0.0732424 0.000125468 0)
(0.072892 0.000117579 0)
(0.0725449 0.000110197 0)
(0.072234 0.000102557 0)
(0.0719224 9.56086e-05 0)
(0.0716508 8.82417e-05 0)
(0.0713735 8.17083e-05 0)
(0.0711408 7.46578e-05 0)
(0.0708963 6.8589e-05 0)
(0.0707019 6.18868e-05 0)
(0.0704883 5.64104e-05 0)
(0.0703313 5.00948e-05 0)
(0.0701458 4.53215e-05 0)
(0.0700248 3.94267e-05 0)
(0.0698641 3.5442e-05 0)
(0.0697767 3.0204e-05 0)
(0.0696367 2.72535e-05 0)
(0.0695791 2.28813e-05 0)
(0.0694543 2.11376e-05 0)
(0.0694212 1.76865e-05 0)
(0.0693055 1.74628e-05 0)
(0.0692907 1.52252e-05 0)
(0.0691756 1.64728e-05 0)
(0.194249 0.00700802 0)
(0.194578 0.00887501 0)
(0.195585 0.0103759 0)
(0.197125 0.0111311 0)
(0.198718 0.0112852 0)
(0.199983 0.0110736 0)
(0.20076 0.0106033 0)
(0.20102 0.00991941 0)
(0.20078 0.00908739 0)
(0.200083 0.00821117 0)
(0.198991 0.00739276 0)
(0.197591 0.00669058 0)
(0.195971 0.00611427 0)
(0.194207 0.005643 0)
(0.192348 0.00525076 0)
(0.190418 0.00491587 0)
(0.188432 0.00462222 0)
(0.186399 0.00435848 0)
(0.184324 0.00411701 0)
(0.182214 0.00389292 0)
(0.180077 0.00368322 0)
(0.177919 0.00348617 0)
(0.17575 0.00330078 0)
(0.173577 0.00312645 0)
(0.171407 0.0029627 0)
(0.169246 0.00280909 0)
(0.1671 0.0026651 0)
(0.164974 0.00253018 0)
(0.162873 0.00240373 0)
(0.1608 0.00228522 0)
(0.158758 0.00217405 0)
(0.15675 0.00206974 0)
(0.154778 0.00197173 0)
(0.152843 0.00187963 0)
(0.150947 0.00179294 0)
(0.14909 0.00171135 0)
(0.147273 0.00163439 0)
(0.145497 0.00156185 0)
(0.143761 0.0014933 0)
(0.142065 0.00142858 0)
(0.14041 0.00136729 0)
(0.138795 0.00130932 0)
(0.137219 0.00125433 0)
(0.135681 0.0012022 0)
(0.134183 0.00115267 0)
(0.132722 0.0011056 0)
(0.131298 0.00106082 0)
(0.12991 0.00101813 0)
(0.128559 0.000977473 0)
(0.127241 0.000938614 0)
(0.125959 0.000901532 0)
(0.124708 0.000866013 0)
(0.123493 0.000832024 0)
(0.122307 0.000799428 0)
(0.121155 0.000768124 0)
(0.120032 0.000738085 0)
(0.118942 0.000709114 0)
(0.117878 0.000681306 0)
(0.116848 0.000654391 0)
(0.115842 0.00062851 0)
(0.114869 0.000603429 0)
(0.113919 0.000579201 0)
(0.113002 0.000555748 0)
(0.112106 0.000532934 0)
(0.111243 0.000510896 0)
(0.1104 0.000489339 0)
(0.109591 0.00046851 0)
(0.108799 0.000448114 0)
(0.108042 0.000428308 0)
(0.1073 0.000408989 0)
(0.106595 0.000390065 0)
(0.105903 0.000371684 0)
(0.105249 0.000353553 0)
(0.104605 0.000335945 0)
(0.104002 0.000318596 0)
(0.103407 0.00030169 0)
(0.102855 0.000285058 0)
(0.102306 0.000268866 0)
(0.101806 0.000252873 0)
(0.101303 0.000237429 0)
(0.100854 0.000221988 0)
(0.100396 0.000207315 0)
(0.0999987 0.000192478 0)
(0.0995843 0.000178553 0)
(0.0992387 0.000164414 0)
(0.0988661 0.000151329 0)
(0.098572 0.000137966 0)
(0.0982388 0.000125946 0)
(0.0979955 0.000113462 0)
(0.0976983 0.000102721 0)
(0.0975046 9.12176e-05 0)
(0.0972393 8.19456e-05 0)
(0.097093 7.18292e-05 0)
(0.0968544 6.44766e-05 0)
(0.0967514 5.61051e-05 0)
(0.0965327 5.09932e-05 0)
(0.0964681 4.45296e-05 0)
(0.096261 4.20401e-05 0)
(0.0962296 3.82309e-05 0)
(0.096022 3.79923e-05 0)
(0.195079 0.00671091 0)
(0.195394 0.00813073 0)
(0.196187 0.00941865 0)
(0.197471 0.0102242 0)
(0.198979 0.0104977 0)
(0.200401 0.0103893 0)
(0.201563 0.0100355 0)
(0.202413 0.00951241 0)
(0.202952 0.00887492 0)
(0.20319 0.00818979 0)
(0.203153 0.00752986 0)
(0.202885 0.00694751 0)
(0.202444 0.00646128 0)
(0.201882 0.00606159 0)
(0.201234 0.0057291 0)
(0.200519 0.00544592 0)
(0.199746 0.00519839 0)
(0.198914 0.00497662 0)
(0.198025 0.00477362 0)
(0.197078 0.00458454 0)
(0.196073 0.00440622 0)
(0.195013 0.00423666 0)
(0.193901 0.00407472 0)
(0.19274 0.00391973 0)
(0.191535 0.0037713 0)
(0.190289 0.00362913 0)
(0.189007 0.00349294 0)
(0.187692 0.00336247 0)
(0.18635 0.00323741 0)
(0.184982 0.00311752 0)
(0.183595 0.00300247 0)
(0.18219 0.00289208 0)
(0.180771 0.00278603 0)
(0.179342 0.00268421 0)
(0.177906 0.00258631 0)
(0.176464 0.00249227 0)
(0.175022 0.0024018 0)
(0.173579 0.0023149 0)
(0.172141 0.00223125 0)
(0.170705 0.00215087 0)
(0.169279 0.00207347 0)
(0.167859 0.00199908 0)
(0.166452 0.00192745 0)
(0.165055 0.00185855 0)
(0.163673 0.00179222 0)
(0.162304 0.00172834 0)
(0.160952 0.00166686 0)
(0.159615 0.00160757 0)
(0.158298 0.00155051 0)
(0.156996 0.00149539 0)
(0.155716 0.00144233 0)
(0.154452 0.00139101 0)
(0.153212 0.00134153 0)
(0.151989 0.00129366 0)
(0.150791 0.00124739 0)
(0.149609 0.00120264 0)
(0.148455 0.00115925 0)
(0.147316 0.00111727 0)
(0.146206 0.00107649 0)
(0.145112 0.00103696 0)
(0.144048 0.000998548 0)
(0.142998 0.000961153 0)
(0.14198 0.000924894 0)
(0.140976 0.000889362 0)
(0.140006 0.000855005 0)
(0.139048 0.000821143 0)
(0.138125 0.000788426 0)
(0.137214 0.000756128 0)
(0.13634 0.000724815 0)
(0.135475 0.000693977 0)
(0.134651 0.0006639 0)
(0.133833 0.000634337 0)
(0.133061 0.00060539 0)
(0.132289 0.000576876 0)
(0.131569 0.000549059 0)
(0.130845 0.000521493 0)
(0.130177 0.000494728 0)
(0.1295 0.00046814 0)
(0.128886 0.000442326 0)
(0.128256 0.000416761 0)
(0.127698 0.000391812 0)
(0.127114 0.000367307 0)
(0.126613 0.000343321 0)
(0.126074 0.000319851 0)
(0.125631 0.000296997 0)
(0.125135 0.000274708 0)
(0.124751 0.000253117 0)
(0.124296 0.000232347 0)
(0.12397 0.000212209 0)
(0.123554 0.000193288 0)
(0.123287 0.000174789 0)
(0.122903 0.000158018 0)
(0.122694 0.000141783 0)
(0.122338 0.000127816 0)
(0.122185 0.000114438 0)
(0.121849 0.000103645 0)
(0.121747 9.35193e-05 0)
(0.121421 8.62009e-05 0)
(0.12137 8.06009e-05 0)
(0.12104 7.6402e-05 0)
(0.195762 0.00647242 0)
(0.196074 0.00762114 0)
(0.196733 0.00870247 0)
(0.197771 0.00947492 0)
(0.199041 0.00981811 0)
(0.200318 0.00979439 0)
(0.201436 0.00952554 0)
(0.20233 0.00910356 0)
(0.202994 0.00858638 0)
(0.203442 0.00802312 0)
(0.203697 0.00746599 0)
(0.203787 0.00695916 0)
(0.203754 0.00652502 0)
(0.203638 0.00616345 0)
(0.203469 0.00586216 0)
(0.203265 0.0056067 0)
(0.203032 0.005385 0)
(0.202772 0.00518812 0)
(0.202481 0.00500964 0)
(0.202156 0.004845 0)
(0.201795 0.00469104 0)
(0.201397 0.00454559 0)
(0.200961 0.00440725 0)
(0.200487 0.0042751 0)
(0.199976 0.00414853 0)
(0.199427 0.00402705 0)
(0.198843 0.0039103 0)
(0.198222 0.00379791 0)
(0.197568 0.00368953 0)
(0.19688 0.00358486 0)
(0.196162 0.00348357 0)
(0.195412 0.00338545 0)
(0.194635 0.00329021 0)
(0.193829 0.00319773 0)
(0.192999 0.00310774 0)
(0.192143 0.00302024 0)
(0.191266 0.00293495 0)
(0.190367 0.00285195 0)
(0.189451 0.00277098 0)
(0.188515 0.00269211 0)
(0.187567 0.00261512 0)
(0.186601 0.00254009 0)
(0.185626 0.00246686 0)
(0.184636 0.00239542 0)
(0.183641 0.00232574 0)
(0.182634 0.0022577 0)
(0.181626 0.00219139 0)
(0.180608 0.00212657 0)
(0.179591 0.00206347 0)
(0.178568 0.0020017 0)
(0.177548 0.00194161 0)
(0.176524 0.00188273 0)
(0.175508 0.0018254 0)
(0.174487 0.00176922 0)
(0.173478 0.00171444 0)
(0.172466 0.00166081 0)
(0.171469 0.00160842 0)
(0.17047 0.00155715 0)
(0.169488 0.001507 0)
(0.168505 0.00145785 0)
(0.167543 0.00140983 0)
(0.166579 0.00136253 0)
(0.165639 0.00131647 0)
(0.164698 0.0012708 0)
(0.163784 0.00122655 0)
(0.162868 0.00118242 0)
(0.161984 0.00113975 0)
(0.161095 0.00109709 0)
(0.160244 0.00105578 0)
(0.159385 0.00101453 0)
(0.158568 0.000974431 0)
(0.15774 0.000934409 0)
(0.156962 0.000895466 0)
(0.156168 0.000856438 0)
(0.155431 0.000818723 0)
(0.154672 0.000780603 0)
(0.153979 0.000744056 0)
(0.153255 0.00070691 0)
(0.152609 0.00067144 0)
(0.151922 0.000635347 0)
(0.151325 0.0006009 0)
(0.150675 0.000565939 0)
(0.15013 0.000532699 0)
(0.149517 0.000498859 0)
(0.149027 0.000467095 0)
(0.14845 0.000434583 0)
(0.148017 0.000404491 0)
(0.147474 0.000373773 0)
(0.1471 0.000345662 0)
(0.146588 0.000317185 0)
(0.146275 0.000291349 0)
(0.14579 0.000265476 0)
(0.145539 0.000242823 0)
(0.145076 0.000220361 0)
(0.144886 0.000201822 0)
(0.144436 0.000183105 0)
(0.144308 0.000169355 0)
(0.143862 0.000154619 0)
(0.143797 0.000147282 0)
(0.14334 0.000136589 0)
(0.196347 0.00625737 0)
(0.196651 0.00721463 0)
(0.197217 0.00811883 0)
(0.198068 0.00881429 0)
(0.199123 0.00918496 0)
(0.200227 0.00923447 0)
(0.201237 0.00904687 0)
(0.202075 0.00870971 0)
(0.202725 0.00828455 0)
(0.203198 0.00781497 0)
(0.203514 0.00734012 0)
(0.203701 0.00689487 0)
(0.203788 0.0065017 0)
(0.203809 0.00616674 0)
(0.20379 0.00588408 0)
(0.203749 0.0056431 0)
(0.203697 0.00543362 0)
(0.203633 0.00524773 0)
(0.203558 0.00507979 0)
(0.203469 0.0049258 0)
(0.203365 0.00478295 0)
(0.203244 0.00464919 0)
(0.203105 0.00452311 0)
(0.202947 0.00440363 0)
(0.202769 0.00429004 0)
(0.202572 0.00418171 0)
(0.202354 0.00407819 0)
(0.202116 0.00397898 0)
(0.201857 0.00388372 0)
(0.201576 0.00379197 0)
(0.201275 0.00370339 0)
(0.200951 0.00361767 0)
(0.200607 0.00353448 0)
(0.20024 0.00345363 0)
(0.199854 0.00337483 0)
(0.199444 0.003298 0)
(0.199017 0.00322287 0)
(0.198565 0.00314943 0)
(0.198098 0.00307746 0)
(0.197606 0.00300696 0)
(0.1971 0.00293775 0)
(0.19657 0.00286982 0)
(0.196028 0.00280307 0)
(0.195463 0.00273743 0)
(0.194887 0.00267292 0)
(0.194289 0.00260932 0)
(0.193683 0.00254689 0)
(0.193056 0.00248519 0)
(0.192422 0.00242472 0)
(0.191769 0.00236483 0)
(0.191112 0.00230619 0)
(0.190436 0.00224803 0)
(0.189759 0.00219104 0)
(0.189063 0.00213447 0)
(0.18837 0.00207895 0)
(0.187658 0.00202386 0)
(0.186953 0.0019697 0)
(0.186229 0.00191602 0)
(0.185516 0.00186323 0)
(0.184783 0.00181083 0)
(0.184066 0.00175942 0)
(0.183328 0.00170809 0)
(0.18261 0.00165793 0)
(0.181871 0.00160741 0)
(0.181155 0.00155839 0)
(0.180418 0.00150867 0)
(0.17971 0.0014607 0)
(0.178978 0.00141188 0)
(0.178281 0.00136482 0)
(0.177557 0.0013169 0)
(0.176876 0.00127059 0)
(0.176162 0.00122337 0)
(0.1755 0.00117779 0)
(0.174799 0.00113105 0)
(0.17416 0.00108644 0)
(0.173475 0.00104019 0)
(0.172864 0.000996555 0)
(0.172196 0.000950907 0)
(0.171616 0.000908188 0)
(0.170968 0.000863257 0)
(0.170423 0.000821427 0)
(0.169795 0.00077735 0)
(0.16929 0.000736713 0)
(0.168682 0.00069354 0)
(0.168221 0.00065451 0)
(0.167634 0.000612528 0)
(0.16722 0.000575387 0)
(0.166653 0.000535147 0)
(0.166289 0.00050032 0)
(0.16574 0.000462351 0)
(0.16543 0.000430319 0)
(0.164896 0.000395096 0)
(0.164643 0.000367093 0)
(0.164119 0.000335491 0)
(0.163923 0.000312678 0)
(0.163403 0.000284913 0)
(0.16327 0.000268267 0)
(0.162745 0.000244729 0)
(0.162678 0.000236105 0)
(0.162134 0.000217501 0)
(0.196857 0.00605365 0)
(0.197148 0.00686133 0)
(0.197641 0.00761949 0)
(0.19835 0.0082275 0)
(0.199229 0.00859476 0)
(0.200173 0.00869841 0)
(0.201068 0.00858492 0)
(0.201837 0.00832486 0)
(0.202452 0.00797792 0)
(0.202915 0.00758648 0)
(0.203243 0.00718302 0)
(0.20346 0.00679478 0)
(0.203591 0.00644171 0)
(0.20366 0.00613287 0)
(0.203692 0.00586715 0)
(0.203703 0.00563775 0)
(0.203704 0.00543671 0)
(0.203698 0.00525731 0)
(0.203687 0.00509473 0)
(0.203669 0.00494555 0)
(0.203646 0.00480745 0)
(0.203613 0.00467861 0)
(0.203574 0.00455777 0)
(0.203526 0.00444382 0)
(0.20347 0.00433605 0)
(0.203405 0.00423374 0)
(0.203332 0.00413648 0)
(0.203249 0.00404367 0)
(0.203158 0.00395503 0)
(0.203056 0.00387 0)
(0.202946 0.00378835 0)
(0.202822 0.00370962 0)
(0.202692 0.0036336 0)
(0.202546 0.00355992 0)
(0.202394 0.00348843 0)
(0.202225 0.00341886 0)
(0.202049 0.00335106 0)
(0.201856 0.00328489 0)
(0.201656 0.00322015 0)
(0.201438 0.00315679 0)
(0.201213 0.00309463 0)
(0.200968 0.00303362 0)
(0.200718 0.00297364 0)
(0.200447 0.00291456 0)
(0.200171 0.00285645 0)
(0.199874 0.00279896 0)
(0.199573 0.00274244 0)
(0.19925 0.00268628 0)
(0.198924 0.00263118 0)
(0.198576 0.00257619 0)
(0.198226 0.00252235 0)
(0.197853 0.00246843 0)
(0.197481 0.00241565 0)
(0.197084 0.00236267 0)
(0.196691 0.00231067 0)
(0.196272 0.00225842 0)
(0.19586 0.00220701 0)
(0.19542 0.00215538 0)
(0.194991 0.00210456 0)
(0.194532 0.00205351 0)
(0.194088 0.00200342 0)
(0.193613 0.00195274 0)
(0.193156 0.00190331 0)
(0.192667 0.00185263 0)
(0.1922 0.00180364 0)
(0.191697 0.00175283 0)
(0.191224 0.0017042 0)
(0.190711 0.00165353 0)
(0.190235 0.00160526 0)
(0.189714 0.00155487 0)
(0.189238 0.00150686 0)
(0.188711 0.00145652 0)
(0.188238 0.00140857 0)
(0.187706 0.0013579 0)
(0.187241 0.00131039 0)
(0.186708 0.00125955 0)
(0.186255 0.00121266 0)
(0.185722 0.00116182 0)
(0.185284 0.00111551 0)
(0.184752 0.00106485 0)
(0.184334 0.00101907 0)
(0.183805 0.000968717 0)
(0.18341 0.000923825 0)
(0.182885 0.000873896 0)
(0.182519 0.000830493 0)
(0.181999 0.000781321 0)
(0.181665 0.000739898 0)
(0.181148 0.000692202 0)
(0.180851 0.00065324 0)
(0.180336 0.000607373 0)
(0.180079 0.000571249 0)
(0.179567 0.000528014 0)
(0.179355 0.00049668 0)
(0.178842 0.000457287 0)
(0.178675 0.000431918 0)
(0.178153 0.000395758 0)
(0.178038 0.000377269 0)
(0.177504 0.000345222 0)
(0.177449 0.000335965 0)
(0.176894 0.000310191 0)
(0.197305 0.00585715 0)
(0.19758 0.00654346 0)
(0.198013 0.00718389 0)
(0.198613 0.00771094 0)
(0.199349 0.00805843 0)
(0.200153 0.00819676 0)
(0.200938 0.00814576 0)
(0.201636 0.00795535 0)
(0.202211 0.00767771 0)
(0.202657 0.0073536 0)
(0.202986 0.00701252 0)
(0.203217 0.00667687 0)
(0.20337 0.00636345 0)
(0.203466 0.00608187 0)
(0.203524 0.00583415 0)
(0.203559 0.00561676 0)
(0.203582 0.00542412 0)
(0.203596 0.0052508 0)
(0.203606 0.00509284 0)
(0.203609 0.00494727 0)
(0.203609 0.00481229 0)
(0.203602 0.00468624 0)
(0.203592 0.00456815 0)
(0.203575 0.00445684 0)
(0.203556 0.00435178 0)
(0.203531 0.00425208 0)
(0.203505 0.00415751 0)
(0.203472 0.00406731 0)
(0.203438 0.00398139 0)
(0.203397 0.00389905 0)
(0.203356 0.00382027 0)
(0.203307 0.0037444 0)
(0.203258 0.00367145 0)
(0.203199 0.00360087 0)
(0.203142 0.00353267 0)
(0.203074 0.00346645 0)
(0.203008 0.00340217 0)
(0.202928 0.00333958 0)
(0.202852 0.00327856 0)
(0.202761 0.00321901 0)
(0.202673 0.00316075 0)
(0.20257 0.00310373 0)
(0.20247 0.00304781 0)
(0.202353 0.00299285 0)
(0.20224 0.00293891 0)
(0.202109 0.00288557 0)
(0.201981 0.00283331 0)
(0.201835 0.00278124 0)
(0.201693 0.00273039 0)
(0.201531 0.00267936 0)
(0.201375 0.00262972 0)
(0.201196 0.0025796 0)
(0.201025 0.00253094 0)
(0.200829 0.00248161 0)
(0.200643 0.00243358 0)
(0.20043 0.00238479 0)
(0.20023 0.00233702 0)
(0.199999 0.00228852 0)
(0.199784 0.00224091 0)
(0.199537 0.00219262 0)
(0.199308 0.00214544 0)
(0.199045 0.00209719 0)
(0.198804 0.00205049 0)
(0.198524 0.00200178 0)
(0.198271 0.00195525 0)
(0.197975 0.0019057 0)
(0.197711 0.00185905 0)
(0.197401 0.00180896 0)
(0.19713 0.00176224 0)
(0.196806 0.00171201 0)
(0.196529 0.00166525 0)
(0.196192 0.00161476 0)
(0.195911 0.00156758 0)
(0.19556 0.00151597 0)
(0.195278 0.00146868 0)
(0.194916 0.00141624 0)
(0.194636 0.00136929 0)
(0.194264 0.00131623 0)
(0.193988 0.0012695 0)
(0.193607 0.00121622 0)
(0.193339 0.00116964 0)
(0.192949 0.00111613 0)
(0.192691 0.00107002 0)
(0.192294 0.0010164 0)
(0.192051 0.000971592 0)
(0.191645 0.000917989 0)
(0.191421 0.00087507 0)
(0.191009 0.000822718 0)
(0.190807 0.000782529 0)
(0.190384 0.000731639 0)
(0.190206 0.000693523 0)
(0.189776 0.000644599 0)
(0.189628 0.000611631 0)
(0.189191 0.00056715 0)
(0.189073 0.000541463 0)
(0.188617 0.000499258 0)
(0.188534 0.000480109 0)
(0.188061 0.00044115 0)
(0.188024 0.000431175 0)
(0.187534 0.000400843 0)
(0.1977 0.00566737 0)
(0.197957 0.00625444 0)
(0.198339 0.00680067 0)
(0.198852 0.00725812 0)
(0.199475 0.00757924 0)
(0.20016 0.00773632 0)
(0.200844 0.00773406 0)
(0.20147 0.00760422 0)
(0.202003 0.00738832 0)
(0.202428 0.00712331 0)
(0.202753 0.00683687 0)
(0.202991 0.00654876 0)
(0.203159 0.00627328 0)
(0.203274 0.00601942 0)
(0.203351 0.0057909 0)
(0.203403 0.00558663 0)
(0.20344 0.00540331 0)
(0.203466 0.00523683 0)
(0.203486 0.00508413 0)
(0.203499 0.0049426 0)
(0.203508 0.0048109 0)
(0.20351 0.00468749 0)
(0.20351 0.00457175 0)
(0.203503 0.00446242 0)
(0.203496 0.00435924 0)
(0.203482 0.0042611 0)
(0.20347 0.00416805 0)
(0.203451 0.00407909 0)
(0.203434 0.00399445 0)
(0.203411 0.00391315 0)
(0.203391 0.00383551 0)
(0.203364 0.00376063 0)
(0.203342 0.00368878 0)
(0.203311 0.00361923 0)
(0.203286 0.00355218 0)
(0.203251 0.00348709 0)
(0.203224 0.00342402 0)
(0.203185 0.00336273 0)
(0.203155 0.00330303 0)
(0.203112 0.00324494 0)
(0.203078 0.00318814 0)
(0.20303 0.00313274 0)
(0.202992 0.00307845 0)
(0.20294 0.00302527 0)
(0.202896 0.00297316 0)
(0.202838 0.00292172 0)
(0.20279 0.00287152 0)
(0.202725 0.00282142 0)
(0.202671 0.00277283 0)
(0.202599 0.00272378 0)
(0.202538 0.00267657 0)
(0.202458 0.00262846 0)
(0.202391 0.00258234 0)
(0.202302 0.00253514 0)
(0.202228 0.00248973 0)
(0.202129 0.00244322 0)
(0.202048 0.00239801 0)
(0.201938 0.00235185 0)
(0.201849 0.00230663 0)
(0.201729 0.00226055 0)
(0.201632 0.00221575 0)
(0.201502 0.00216957 0)
(0.201396 0.00212541 0)
(0.201255 0.00207861 0)
(0.201142 0.00203481 0)
(0.200987 0.00198678 0)
(0.200867 0.00194269 0)
(0.2007 0.00189374 0)
(0.200574 0.00184927 0)
(0.200394 0.00179997 0)
(0.200263 0.00175529 0)
(0.200071 0.00170586 0)
(0.199935 0.00166072 0)
(0.199729 0.00160964 0)
(0.199589 0.00156397 0)
(0.199371 0.00151156 0)
(0.19923 0.00146616 0)
(0.198998 0.00141275 0)
(0.198857 0.00136717 0)
(0.198614 0.00131341 0)
(0.198474 0.00126777 0)
(0.198218 0.00121346 0)
(0.198081 0.00116795 0)
(0.197813 0.00111305 0)
(0.197681 0.00106899 0)
(0.197399 0.00101335 0)
(0.197277 0.000970723 0)
(0.196983 0.000916112 0)
(0.196872 0.000876535 0)
(0.196564 0.000823916 0)
(0.196461 0.000785447 0)
(0.196142 0.000733439 0)
(0.196056 0.000699636 0)
(0.195728 0.000652357 0)
(0.195661 0.000628243 0)
(0.19531 0.000583136 0)
(0.195261 0.000564575 0)
(0.194888 0.000521377 0)
(0.194867 0.000509603 0)
(0.194488 0.000477414 0)
(0.198047 0.00548496 0)
(0.198286 0.00599094 0)
(0.198625 0.00646114 0)
(0.199068 0.0068602 0)
(0.199599 0.00715357 0)
(0.200184 0.00731802 0)
(0.200779 0.00735116 0)
(0.201336 0.00727151 0)
(0.201824 0.00710969 0)
(0.202226 0.00689691 0)
(0.202543 0.00665867 0)
(0.202783 0.0064131 0)
(0.202961 0.00617302 0)
(0.203089 0.00594649 0)
(0.203181 0.00573797 0)
(0.203246 0.00554795 0)
(0.203295 0.00537507 0)
(0.203331 0.0052164 0)
(0.20336 0.00506989 0)
(0.203379 0.00493318 0)
(0.203395 0.00480545 0)
(0.203402 0.00468513 0)
(0.203408 0.00457207 0)
(0.203406 0.00446484 0)
(0.203404 0.00436358 0)
(0.203395 0.00426692 0)
(0.203388 0.00417525 0)
(0.203374 0.00408729 0)
(0.203364 0.00400362 0)
(0.203345 0.00392298 0)
(0.203333 0.00384601 0)
(0.203312 0.00377158 0)
(0.203298 0.0037002 0)
(0.203275 0.00363101 0)
(0.20326 0.0035643 0)
(0.203235 0.00349956 0)
(0.20322 0.00343676 0)
(0.203193 0.00337583 0)
(0.203177 0.00331637 0)
(0.20315 0.00325869 0)
(0.203133 0.00320213 0)
(0.203105 0.00314721 0)
(0.203087 0.00309324 0)
(0.203057 0.00304056 0)
(0.203038 0.00298893 0)
(0.203007 0.00293801 0)
(0.202988 0.00288849 0)
(0.202954 0.00283892 0)
(0.202934 0.00279123 0)
(0.202898 0.0027427 0)
(0.202876 0.00269654 0)
(0.202836 0.002649 0)
(0.202814 0.00260399 0)
(0.20277 0.00255755 0)
(0.202746 0.00251329 0)
(0.202698 0.00246781 0)
(0.202672 0.00242377 0)
(0.20262 0.00237886 0)
(0.202589 0.00233476 0)
(0.202533 0.0022899 0)
(0.2025 0.00224633 0)
(0.202438 0.00220124 0)
(0.202402 0.00215866 0)
(0.202334 0.0021128 0)
(0.202295 0.00207101 0)
(0.202219 0.00202384 0)
(0.202177 0.00198176 0)
(0.202092 0.00193358 0)
(0.202048 0.00189089 0)
(0.201955 0.00184235 0)
(0.201908 0.00179924 0)
(0.201807 0.00175086 0)
(0.201757 0.00170761 0)
(0.201646 0.00165739 0)
(0.201593 0.00161339 0)
(0.201472 0.00156148 0)
(0.201418 0.00151786 0)
(0.201286 0.00146495 0)
(0.20123 0.00142069 0)
(0.201088 0.00136746 0)
(0.201032 0.00132314 0)
(0.200879 0.00126923 0)
(0.200822 0.00122495 0)
(0.200658 0.00117 0)
(0.200603 0.00112768 0)
(0.200424 0.0010717 0)
(0.200372 0.00103004 0)
(0.200182 0.000974822 0)
(0.200134 0.000936126 0)
(0.199933 0.00088424 0)
(0.199884 0.000846435 0)
(0.199669 0.00079356 0)
(0.199628 0.000759386 0)
(0.199404 0.000710399 0)
(0.199376 0.000688589 0)
(0.199131 0.000643215 0)
(0.199109 0.000626083 0)
(0.198844 0.000581781 0)
(0.198831 0.000567227 0)
(0.198568 0.000534621 0)
(0.198353 0.00531065 0)
(0.198574 0.0057501 0)
(0.198876 0.00615819 0)
(0.19926 0.0065084 0)
(0.199717 0.0067751 0)
(0.200219 0.00693964 0)
(0.200735 0.00699699 0)
(0.201228 0.00695714 0)
(0.201671 0.00684146 0)
(0.202047 0.00667468 0)
(0.202352 0.00647923 0)
(0.202591 0.00627178 0)
(0.202774 0.00606427 0)
(0.202911 0.00586404 0)
(0.203015 0.00567582 0)
(0.203091 0.00550092 0)
(0.20315 0.00533949 0)
(0.203194 0.00518958 0)
(0.203231 0.00505014 0)
(0.203256 0.00491902 0)
(0.203278 0.00479597 0)
(0.20329 0.00467932 0)
(0.203301 0.00456942 0)
(0.203302 0.00446463 0)
(0.203305 0.00436559 0)
(0.203299 0.00427059 0)
(0.203296 0.00418049 0)
(0.203284 0.00409364 0)
(0.203278 0.00401102 0)
(0.203261 0.00393109 0)
(0.203253 0.00385477 0)
(0.203234 0.00378078 0)
(0.203224 0.00370976 0)
(0.203203 0.00364085 0)
(0.203192 0.00357427 0)
(0.20317 0.00350974 0)
(0.203159 0.00344689 0)
(0.203136 0.00338614 0)
(0.203124 0.00332651 0)
(0.203102 0.00326899 0)
(0.20309 0.00321221 0)
(0.203068 0.00315739 0)
(0.203056 0.00310321 0)
(0.203034 0.00305057 0)
(0.203022 0.00299884 0)
(0.203 0.00294786 0)
(0.202989 0.00289842 0)
(0.202966 0.00284869 0)
(0.202956 0.00280125 0)
(0.202933 0.00275252 0)
(0.202924 0.00270671 0)
(0.202899 0.00265901 0)
(0.202891 0.0026143 0)
(0.202865 0.00256789 0)
(0.202858 0.00252382 0)
(0.202831 0.00247869 0)
(0.202824 0.00243477 0)
(0.202797 0.00239047 0)
(0.202788 0.00234655 0)
(0.202759 0.00230221 0)
(0.20275 0.00225901 0)
(0.20272 0.00221421 0)
(0.20271 0.00217239 0)
(0.202677 0.00212659 0)
(0.202668 0.00208601 0)
(0.20263 0.00203896 0)
(0.202622 0.00199814 0)
(0.202579 0.00195025 0)
(0.20257 0.00190856 0)
(0.202522 0.0018605 0)
(0.202513 0.00181809 0)
(0.202461 0.00177038 0)
(0.202451 0.00172829 0)
(0.202393 0.00167875 0)
(0.202382 0.00163591 0)
(0.202317 0.00158444 0)
(0.202306 0.00154214 0)
(0.202234 0.00148999 0)
(0.202221 0.00144661 0)
(0.202142 0.00139419 0)
(0.202128 0.00135084 0)
(0.202042 0.00129767 0)
(0.202027 0.00125455 0)
(0.201931 0.00119986 0)
(0.201919 0.00115934 0)
(0.201811 0.001104 0)
(0.201797 0.00106333 0)
(0.20168 0.00100859 0)
(0.201666 0.00097014 0)
(0.201543 0.000920028 0)
(0.201524 0.00088331 0)
(0.201389 0.000830887 0)
(0.201373 0.00079698 0)
(0.201228 0.000746665 0)
(0.201222 0.000726816 0)
(0.201062 0.000682628 0)