/*--------------------------------*- C++ -*----------------------------------*\
| =========                 |                                                 |
| \\      /  F ield         | OpenFOAM: The Open Source CFD Toolbox           |
|  \\    /   O peration     | Version:  2.3.0                                 |
|   \\  /    A nd           | Web:      www.OpenFOAM.org                      |
|    \\/     M anipulation  |                                                 |
\*---------------------------------------------------------------------------*/
FoamFile
{
    version     2.0;
    format      ascii;
    class       surfaceScalarField;
    location    "0.55";
    object      phi_0;
}
// * * * * * * * * * * * * * * * * * * * * * * * * * * * * * * * * * * * * * //

dimensions      [0 3 -1 0 0 0 0];

internalField   nonuniform List<scalar> 
2863
(
2.88891e-08
2.77929e-09
-3.16684e-08
2.5411e-08
3.47816e-09
2.19512e-08
3.45979e-09
1.87416e-08
3.20959e-09
1.58154e-08
2.92616e-09
1.32528e-08
2.56267e-09
1.1151e-08
2.10178e-09
9.52658e-09
1.6244e-09
8.34273e-09
1.18385e-09
7.51301e-09
8.29717e-10
6.938e-09
5.75008e-10
6.53227e-09
4.05728e-10
6.23283e-09
2.99443e-10
5.99642e-09
2.3641e-10
5.79437e-09
2.02051e-10
5.61025e-09
1.84121e-10
5.43654e-09
1.73701e-10
5.27095e-09
1.65591e-10
5.11351e-09
1.57441e-10
4.96494e-09
1.48576e-10
4.82581e-09
1.39123e-10
4.69634e-09
1.29475e-10
4.5763e-09
1.20035e-10
4.4652e-09
1.11108e-10
4.36231e-09
1.02883e-10
4.26687e-09
9.54448e-11
4.17807e-09
8.88036e-11
4.09515e-09
8.29203e-11
4.01741e-09
7.77316e-11
3.94426e-09
7.31493e-11
3.87517e-09
6.90923e-11
3.80969e-09
6.54777e-11
3.74746e-09
6.22381e-11
3.68815e-09
5.93098e-11
3.6315e-09
5.66471e-11
3.57729e-09
5.4206e-11
3.52533e-09
5.19583e-11
3.47546e-09
4.98701e-11
3.42754e-09
4.79293e-11
3.38142e-09
4.61109e-11
3.33702e-09
4.44095e-11
3.29421e-09
4.28059e-11
3.25291e-09
4.12986e-11
3.21304e-09
3.98715e-11
3.17451e-09
3.85269e-11
3.13727e-09
3.72451e-11
3.10123e-09
3.60362e-11
3.06635e-09
3.48805e-11
3.03257e-09
3.37812e-11
2.99984e-09
3.27273e-11
2.96812e-09
3.17243e-11
2.93737e-09
3.07526e-11
2.90754e-09
2.98269e-11
2.87861e-09
2.89278e-11
2.85055e-09
2.80619e-11
2.82333e-09
2.72184e-11
2.79693e-09
2.64046e-11
2.77132e-09
2.56043e-11
2.74649e-09
2.48322e-11
2.72242e-09
2.40671e-11
2.6991e-09
2.33228e-11
2.67651e-09
2.25907e-11
2.65464e-09
2.18731e-11
2.63348e-09
2.11585e-11
2.61301e-09
2.04645e-11
2.59324e-09
1.97729e-11
2.57416e-09
1.90826e-11
2.55576e-09
1.84017e-11
2.53803e-09
1.77288e-11
2.52096e-09
1.70665e-11
2.50456e-09
1.63976e-11
2.48881e-09
1.57518e-11
2.47372e-09
1.50865e-11
2.45927e-09
1.44531e-11
2.44549e-09
1.3785e-11
2.43232e-09
1.31669e-11
2.41982e-09
1.25016e-11
2.40791e-09
1.19079e-11
2.39665e-09
1.12558e-11
2.38597e-09
1.0686e-11
2.37594e-09
1.003e-11
2.36646e-09
9.47768e-12
2.35764e-09
8.82495e-12
2.34931e-09
8.32089e-12
2.34162e-09
7.69495e-12
2.33437e-09
7.24494e-12
2.32774e-09
6.63139e-12
2.32152e-09
6.22647e-12
2.31588e-09
5.63664e-12
2.31057e-09
5.31268e-12
2.30579e-09
4.77618e-12
2.30123e-09
4.56326e-12
2.29715e-09
4.07352e-12
2.29318e-09
3.97883e-12
2.28964e-09
3.53564e-12
2.28605e-09
3.59487e-12
2.28283e-09
3.21436e-12
2.27934e-09
3.48628e-12
2.27621e-09
3.13403e-12
3.86376e-12
3.63145e-08
2.48942e-09
-3.60246e-08
3.61384e-08
3.65429e-09
3.54208e-08
4.17732e-09
3.44174e-08
4.21301e-09
3.32408e-08
4.10278e-09
3.19109e-08
3.8926e-09
3.04511e-08
3.56155e-09
2.89394e-08
3.13615e-09
2.74527e-08
2.67049e-09
2.60475e-08
2.23493e-09
2.47487e-08
1.87383e-09
2.35586e-08
1.59578e-09
2.24756e-08
1.38243e-09
2.14985e-08
1.2136e-09
2.06176e-08
1.08286e-09
1.98227e-08
9.79081e-10
1.91033e-08
8.93123e-10
1.845e-08
8.18879e-10
1.78546e-08
7.52822e-10
1.73101e-08
6.93089e-10
1.68104e-08
6.38756e-10
1.63506e-08
5.89345e-10
1.5926e-08
5.44572e-10
1.5533e-08
5.04187e-10
1.51679e-08
4.67927e-10
1.48279e-08
4.35474e-10
1.45102e-08
4.06496e-10
1.42125e-08
3.80643e-10
1.39326e-08
3.57574e-10
1.36688e-08
3.36933e-10
1.34195e-08
3.18411e-10
1.31833e-08
3.0171e-10
1.29589e-08
2.86584e-10
1.27454e-08
2.72808e-10
1.25419e-08
2.60209e-10
1.23475e-08
2.48623e-10
1.21615e-08
2.37934e-10
1.19833e-08
2.28016e-10
1.18125e-08
2.18804e-10
1.16484e-08
2.102e-10
1.14906e-08
2.02165e-10
1.13388e-08
1.94623e-10
1.11926e-08
1.87548e-10
1.10516e-08
1.80878e-10
1.09155e-08
1.746e-10
1.07841e-08
1.68648e-10
1.06571e-08
1.63032e-10
1.05343e-08
1.57685e-10
1.04155e-08
1.52609e-10
1.03004e-08
1.47757e-10
1.0189e-08
1.43139e-10
1.00811e-08
1.38691e-10
9.97645e-09
1.34445e-10
9.87504e-09
1.30338e-10
9.77672e-09
1.26388e-10
9.68138e-09
1.22552e-10
9.58894e-09
1.1885e-10
9.49931e-09
1.15227e-10
9.41242e-09
1.11726e-10
9.32821e-09
1.08276e-10
9.24661e-09
1.04923e-10
9.16758e-09
1.0162e-10
9.09106e-09
9.83939e-11
9.01703e-09
9.51902e-11
8.94542e-09
9.207e-11
8.87624e-09
8.89595e-11
8.80943e-09
8.58897e-11
8.74499e-09
8.28403e-11
8.68288e-09
7.98437e-11
8.62308e-09
7.68604e-11
8.56558e-09
7.38996e-11
8.51036e-09
7.09741e-11
8.4574e-09
6.80444e-11
8.40669e-09
6.51638e-11
8.35822e-09
6.22516e-11
8.31197e-09
5.9424e-11
8.26792e-09
5.65443e-11
8.22604e-09
5.37913e-11
8.18632e-09
5.09707e-11
8.14872e-09
4.82929e-11
8.11325e-09
4.55014e-11
8.07983e-09
4.28962e-11
8.04849e-09
4.01663e-11
8.01909e-09
3.77154e-11
7.99168e-09
3.51116e-11
7.96608e-09
3.28375e-11
7.94237e-09
3.03445e-11
7.92035e-09
2.82496e-11
7.90006e-09
2.592e-11
7.88127e-09
2.41094e-11
7.86401e-09
2.20291e-11
7.84799e-09
2.05899e-11
7.8333e-09
1.87612e-11
7.81954e-09
1.77387e-11
7.80689e-09
1.6189e-11
7.79479e-09
1.56913e-11
7.7835e-09
1.45046e-11
7.77234e-09
1.46497e-11
7.76159e-09
1.38841e-11
1.48627e-11
4.03648e-08
2.37487e-09
-4.02503e-08
4.07803e-08
3.2388e-09
4.10343e-08
3.92333e-09
4.10959e-08
4.15139e-09
4.10414e-08
4.15734e-09
4.08659e-08
4.06804e-09
4.05329e-08
3.89454e-09
4.00421e-08
3.627e-09
3.94235e-08
3.28908e-09
3.87216e-08
2.93683e-09
3.79744e-08
2.62102e-09
3.72066e-08
2.36356e-09
3.64313e-08
2.15774e-09
3.56555e-08
1.9894e-09
3.48878e-08
1.85054e-09
3.41336e-08
1.7333e-09
3.33961e-08
1.63069e-09
3.26772e-08
1.53776e-09
3.19784e-08
1.45156e-09
3.1301e-08
1.37056e-09
3.06456e-08
1.29408e-09
3.00131e-08
1.22185e-09
2.94039e-08
1.15381e-09
2.88181e-08
1.08994e-09
2.82558e-08
1.03024e-09
2.77167e-08
9.74587e-10
2.72003e-08
9.22883e-10
2.6706e-08
8.74952e-10
2.6233e-08
8.30596e-10
2.57804e-08
7.89555e-10
2.53472e-08
7.51588e-10
2.49325e-08
7.16424e-10
2.45352e-08
6.8383e-10
2.41545e-08
6.53561e-10
2.37893e-08
6.25428e-10
2.34387e-08
5.9922e-10
2.31018e-08
5.74785e-10
2.27779e-08
5.51937e-10
2.24661e-08
5.30575e-10
2.21658e-08
5.10533e-10
2.18762e-08
4.91736e-10
2.15968e-08
4.74043e-10
2.13269e-08
4.57397e-10
2.10662e-08
4.41669e-10
2.08139e-08
4.2683e-10
2.05698e-08
4.12742e-10
2.03334e-08
3.99412e-10
2.01044e-08
3.86707e-10
1.98824e-08
3.74624e-10
1.96671e-08
3.6306e-10
1.94582e-08
3.52028e-10
1.92555e-08
3.41401e-10
1.90587e-08
3.31235e-10
1.88677e-08
3.21397e-10
1.86821e-08
3.11929e-10
1.85019e-08
3.02725e-10
1.8327e-08
2.93841e-10
1.8157e-08
2.85145e-10
1.7992e-08
2.76733e-10
1.78319e-08
2.6845e-10
1.76764e-08
2.60401e-10
1.75255e-08
2.52454e-10
1.73792e-08
2.44709e-10
1.72374e-08
2.37008e-10
1.71e-08
2.29511e-10
1.69669e-08
2.22014e-10
1.68381e-08
2.1466e-10
1.67137e-08
2.07308e-10
1.65934e-08
2.00118e-10
1.64774e-08
1.92898e-10
1.63655e-08
1.85805e-10
1.62577e-08
1.78696e-10
1.61541e-08
1.71683e-10
1.60546e-08
1.64657e-10
1.59592e-08
1.57703e-10
1.58678e-08
1.50768e-10
1.57805e-08
1.43902e-10
1.56971e-08
1.37095e-10
1.56178e-08
1.30368e-10
1.55424e-08
1.23692e-10
1.54708e-08
1.17069e-10
1.54032e-08
1.10529e-10
1.53392e-08
1.04082e-10
1.52791e-08
9.78302e-11
1.52225e-08
9.16891e-11
1.51696e-08
8.5778e-11
1.512e-08
7.99425e-11
1.50739e-08
7.44005e-11
1.50308e-08
6.89885e-11
1.49909e-08
6.4021e-11
1.49537e-08
5.9203e-11
1.49193e-08
5.49833e-11
1.48873e-08
5.07938e-11
1.48576e-08
4.7421e-11
1.48298e-08
4.39585e-11
1.48039e-08
4.16122e-11
1.47793e-08
3.91108e-11
1.4756e-08
3.79609e-11
1.47332e-08
3.66493e-11
3.66717e-11
4.48459e-08
2.33208e-09
-4.48031e-08
4.51504e-08
2.93426e-09
4.55397e-08
3.53408e-09
4.58388e-08
3.8523e-09
4.60656e-08
3.93051e-09
4.62468e-08
3.88684e-09
4.63601e-08
3.78127e-09
4.6378e-08
3.60905e-09
4.62904e-08
3.37668e-09
4.61115e-08
3.11574e-09
4.58677e-08
2.86481e-09
4.55805e-08
2.65081e-09
4.52612e-08
2.47704e-09
4.49146e-08
2.33592e-09
4.45468e-08
2.21843e-09
4.41623e-08
2.11772e-09
4.37645e-08
2.02852e-09
4.33552e-08
1.94703e-09
4.2936e-08
1.87076e-09
4.25083e-08
1.79828e-09
4.20735e-08
1.72889e-09
4.16331e-08
1.66225e-09
4.11886e-08
1.59831e-09
4.07415e-08
1.53703e-09
4.02933e-08
1.47848e-09
3.98452e-08
1.42264e-09
3.93986e-08
1.36953e-09
3.89544e-08
1.31909e-09
3.85138e-08
1.27127e-09
3.80774e-08
1.22594e-09
3.7646e-08
1.18299e-09
3.72202e-08
1.14225e-09
3.68004e-08
1.1036e-09
3.63871e-08
1.06686e-09
3.59806e-08
1.03193e-09
3.55811e-08
9.98667e-10
3.51889e-08
9.66982e-10
3.48042e-08
9.36724e-10
3.44269e-08
9.07872e-10
3.40571e-08
8.8027e-10
3.36949e-08
8.53916e-10
3.33403e-08
8.2866e-10
3.29932e-08
8.04516e-10
3.26535e-08
7.81329e-10
3.23212e-08
7.59132e-10
3.19962e-08
7.37754e-10
3.16784e-08
7.17268e-10
3.13676e-08
6.97484e-10
3.10638e-08
6.7847e-10
3.07668e-08
6.60058e-10
3.04764e-08
6.42334e-10
3.01928e-08
6.2509e-10
2.99155e-08
6.0847e-10
2.96447e-08
5.92237e-10
2.93801e-08
5.76533e-10
2.91217e-08
5.61133e-10
2.88693e-08
5.46207e-10
2.8623e-08
5.31484e-10
2.83825e-08
5.17201e-10
2.81479e-08
5.03027e-10
2.79191e-08
4.89244e-10
2.7696e-08
4.75514e-10
2.74786e-08
4.62136e-10
2.72669e-08
4.48728e-10
2.70607e-08
4.35694e-10
2.68602e-08
4.22526e-10
2.66652e-08
4.0967e-10
2.64758e-08
3.96668e-10
2.62919e-08
3.84021e-10
2.61137e-08
3.71147e-10
2.59408e-08
3.58615e-10
2.57737e-08
3.45841e-10
2.5612e-08
3.33396e-10
2.5456e-08
3.20672e-10
2.53054e-08
3.08294e-10
2.51605e-08
2.95629e-10
2.50211e-08
2.83363e-10
2.48873e-08
2.70814e-10
2.4759e-08
2.58756e-10
2.46363e-08
2.46335e-10
2.45189e-08
2.34444e-10
2.44073e-08
2.2216e-10
2.43008e-08
2.10562e-10
2.42e-08
1.9866e-10
2.41041e-08
1.87578e-10
2.40137e-08
1.76157e-10
2.39281e-08
1.65612e-10
2.38477e-08
1.5473e-10
2.37718e-08
1.44927e-10
2.37009e-08
1.34917e-10
2.36339e-08
1.26153e-10
2.35716e-08
1.17285e-10
2.35128e-08
1.09674e-10
2.34581e-08
1.02073e-10
2.34062e-08
9.58595e-11
2.33581e-08
8.97441e-11
2.33118e-08
8.54024e-11
2.32687e-08
8.1012e-11
2.32264e-08
7.89728e-11
7.61077e-11
4.98103e-08
2.28231e-09
-4.97605e-08
5.00135e-08
2.73106e-09
5.03549e-08
3.19262e-09
5.06818e-08
3.52544e-09
5.09486e-08
3.66374e-09
5.11721e-08
3.6633e-09
5.13645e-08
3.58885e-09
5.15097e-08
3.46387e-09
5.15905e-08
3.29585e-09
5.16057e-08
3.10057e-09
5.15688e-08
2.90165e-09
5.14985e-08
2.7211e-09
5.14057e-08
2.56987e-09
5.12947e-08
2.44695e-09
5.11686e-08
2.34455e-09
5.10299e-08
2.25638e-09
5.08803e-08
2.17814e-09
5.07204e-08
2.10691e-09
5.05504e-08
2.04076e-09
5.03703e-08
1.9784e-09
5.01801e-08
1.91912e-09
4.99799e-08
1.86245e-09
4.977e-08
1.80819e-09
4.95508e-08
1.75621e-09
4.93228e-08
1.70648e-09
4.90865e-08
1.65891e-09
4.88426e-08
1.6135e-09
4.85915e-08
1.57015e-09
4.83339e-08
1.52885e-09
4.80704e-08
1.48944e-09
4.78015e-08
1.45188e-09
4.75278e-08
1.41599e-09
4.72497e-08
1.3817e-09
4.69677e-08
1.34884e-09
4.66823e-08
1.31735e-09
4.63939e-08
1.28705e-09
4.6103e-08
1.25792e-09
4.58099e-08
1.22977e-09
4.55152e-08
1.20264e-09
4.52191e-08
1.17633e-09
4.49221e-08
1.15093e-09
4.46245e-08
1.12624e-09
4.43267e-08
1.10236e-09
4.40289e-08
1.07907e-09
4.37315e-08
1.05652e-09
4.34348e-08
1.03443e-09
4.31391e-08
1.01303e-09
4.28446e-08
9.91992e-10
4.25515e-08
9.71542e-10
4.22602e-08
9.51383e-10
4.19707e-08
9.31761e-10
4.16835e-08
9.12312e-10
4.13986e-08
8.93393e-10
4.11163e-08
8.74557e-10
4.08366e-08
8.56187e-10
4.05599e-08
8.37819e-10
4.02863e-08
8.19883e-10
4.00159e-08
8.01837e-10
3.97489e-08
7.84246e-10
3.94855e-08
7.66424e-10
3.92257e-08
7.49058e-10
3.89698e-08
7.31385e-10
3.87178e-08
7.14147e-10
3.847e-08
6.96491e-10
3.82263e-08
6.79366e-10
3.79872e-08
6.61647e-10
3.77525e-08
6.44437e-10
3.75225e-08
6.26606e-10
3.72971e-08
6.09405e-10
3.70768e-08
5.9143e-10
3.68613e-08
5.74138e-10
3.66512e-08
5.55988e-10
3.6446e-08
5.38571e-10
3.62465e-08
5.20198e-10
3.60521e-08
5.02679e-10
3.58636e-08
4.84125e-10
3.56804e-08
4.6658e-10
3.55033e-08
4.4792e-10
3.53315e-08
4.30498e-10
3.51661e-08
4.11764e-10
3.50061e-08
3.94439e-10
3.48526e-08
3.75662e-10
3.47045e-08
3.58634e-10
3.4563e-08
3.40172e-10
3.44268e-08
3.23774e-10
3.42972e-08
3.05768e-10
3.41728e-08
2.90057e-10
3.40549e-08
2.72591e-10
3.39419e-08
2.57902e-10
3.38354e-08
2.41436e-10
3.37333e-08
2.28259e-10
3.36375e-08
2.13123e-10
3.35454e-08
2.01716e-10
3.34595e-08
1.88022e-10
3.33765e-08
1.78836e-10
3.32994e-08
1.66856e-10
3.32242e-08
1.60617e-10
3.31545e-08
1.50725e-10
3.30854e-08
1.48026e-10
1.40179e-10
5.52713e-08
2.22086e-09
-5.52098e-08
5.54257e-08
2.57658e-09
5.56947e-08
2.92368e-09
5.59937e-08
3.22637e-09
5.62597e-08
3.39774e-09
5.64798e-08
3.44328e-09
5.66661e-08
3.40249e-09
5.68194e-08
3.31055e-09
5.69304e-08
3.18493e-09
5.69941e-08
3.03679e-09
5.70164e-08
2.87938e-09
5.701e-08
2.72752e-09
5.69868e-08
2.59307e-09
5.69533e-08
2.4804e-09
5.69125e-08
2.38538e-09
5.68661e-08
2.30283e-09
5.68152e-08
2.22903e-09
5.67605e-08
2.16162e-09
5.6702e-08
2.09919e-09
5.66397e-08
2.04075e-09
5.65731e-08
1.98571e-09
5.65019e-08
1.93361e-09
5.64259e-08
1.88422e-09
5.63448e-08
1.8373e-09
5.62585e-08
1.79277e-09
5.6167e-08
1.75049e-09
5.607e-08
1.71041e-09
5.59678e-08
1.67239e-09
5.58602e-08
1.63641e-09
5.57474e-08
1.60226e-09
5.56294e-08
1.56994e-09
5.55061e-08
1.53921e-09
5.53778e-08
1.51007e-09
5.52443e-08
1.48228e-09
5.51058e-08
1.45585e-09
5.49624e-08
1.4305e-09
5.4814e-08
1.40629e-09
5.46609e-08
1.3829e-09
5.4503e-08
1.36048e-09
5.43407e-08
1.33868e-09
5.41739e-08
1.31773e-09
5.40029e-08
1.29726e-09
5.38277e-08
1.27753e-09
5.36486e-08
1.25814e-09
5.34657e-08
1.23942e-09
5.32793e-08
1.22087e-09
5.30894e-08
1.20295e-09
5.28963e-08
1.18507e-09
5.27001e-08
1.16772e-09
5.25012e-08
1.15032e-09
5.22995e-08
1.1334e-09
5.20956e-08
1.11624e-09
5.18894e-08
1.0996e-09
5.16814e-08
1.0826e-09
5.14715e-08
1.0661e-09
5.12601e-08
1.04915e-09
5.10473e-08
1.03265e-09
5.08337e-08
1.01552e-09
5.0619e-08
9.98898e-10
5.0404e-08
9.81461e-10
5.01884e-08
9.64625e-10
4.99729e-08
9.46884e-10
4.97573e-08
9.29765e-10
4.95423e-08
9.11535e-10
4.93275e-08
8.94084e-10
4.9114e-08
8.75218e-10
4.89012e-08
8.57167e-10
4.86902e-08
8.37633e-10
4.84804e-08
8.1919e-10
4.82728e-08
7.99042e-10
4.80668e-08
7.80138e-10
4.78635e-08
7.59301e-10
4.76623e-08
7.39797e-10
4.74643e-08
7.18126e-10
4.7269e-08
6.98061e-10
4.70774e-08
6.75716e-10
4.68886e-08
6.55339e-10
4.6704e-08
6.32509e-10
4.65226e-08
6.11957e-10
4.63458e-08
5.88493e-10
4.61727e-08
5.67616e-10
4.60047e-08
5.43627e-10
4.58404e-08
5.2292e-10
4.56815e-08
4.99036e-10
4.55264e-08
4.78914e-10
4.53771e-08
4.55106e-10
4.52316e-08
4.35521e-10
4.50923e-08
4.11881e-10
4.49567e-08
3.93495e-10
4.48274e-08
3.70724e-10
4.47014e-08
3.54281e-10
4.45819e-08
3.32651e-10
4.44652e-08
3.18423e-10
4.43552e-08
2.98027e-10
4.42473e-08
2.86674e-10
4.41462e-08
2.68028e-10
4.40462e-08
2.60544e-10
4.39528e-08
2.44186e-10
4.38596e-08
2.41194e-10
2.27644e-10
6.12844e-08
2.15634e-09
-6.12199e-08
6.14141e-08
2.44689e-09
6.16181e-08
2.71974e-09
6.18726e-08
2.97181e-09
6.21189e-08
3.1515e-09
6.23314e-08
3.23073e-09
6.25064e-08
3.22747e-09
6.26483e-08
3.16868e-09
6.2757e-08
3.07629e-09
6.28302e-08
2.96356e-09
6.28696e-08
2.83992e-09
6.28824e-08
2.7148e-09
6.28781e-08
2.59734e-09
6.2865e-08
2.49351e-09
6.28468e-08
2.40353e-09
6.28255e-08
2.32416e-09
6.2802e-08
2.25247e-09
6.27773e-08
2.18641e-09
6.27516e-08
2.12487e-09
6.27252e-08
2.06712e-09
6.26981e-08
2.01281e-09
6.26702e-08
1.96154e-09
6.26412e-08
1.91318e-09
6.26111e-08
1.86743e-09
6.25796e-08
1.82426e-09
6.25466e-08
1.78344e-09
6.25121e-08
1.74499e-09
6.24758e-08
1.70866e-09
6.24377e-08
1.67452e-09
6.23977e-08
1.64226e-09
6.23557e-08
1.61197e-09
6.23115e-08
1.58333e-09
6.22652e-08
1.55644e-09
6.22165e-08
1.53096e-09
6.21653e-08
1.50703e-09
6.21116e-08
1.48424e-09
6.20551e-08
1.46278e-09
6.19958e-08
1.44216e-09
6.19336e-08
1.4227e-09
6.18685e-08
1.40382e-09
6.18002e-08
1.38598e-09
6.17289e-08
1.36855e-09
6.16544e-08
1.35205e-09
6.15768e-08
1.33578e-09
6.14958e-08
1.32038e-09
6.14117e-08
1.30499e-09
6.13242e-08
1.29044e-09
6.12335e-08
1.27573e-09
6.11395e-08
1.26179e-09
6.10423e-08
1.24751e-09
6.09417e-08
1.23397e-09
6.08381e-08
1.21986e-09
6.07312e-08
1.2065e-09
6.06214e-08
1.1924e-09
6.05084e-08
1.17909e-09
6.03926e-08
1.16491e-09
6.02738e-08
1.15151e-09
6.01523e-08
1.13696e-09
6.0028e-08
1.12324e-09
5.99014e-08
1.10809e-09
5.97721e-08
1.09389e-09
5.96408e-08
1.07815e-09
5.95071e-08
1.0635e-09
5.93716e-08
1.04702e-09
5.92339e-08
1.03185e-09
5.90947e-08
1.01439e-09
5.89536e-08
9.98258e-10
5.88117e-08
9.79557e-10
5.86683e-08
9.62603e-10
5.85244e-08
9.42881e-10
5.83792e-08
9.25321e-10
5.82339e-08
9.04659e-10
5.80874e-08
8.86231e-10
5.79414e-08
8.64172e-10
5.7795e-08
8.44509e-10
5.76497e-08
8.20986e-10
5.75044e-08
8.00603e-10
5.73604e-08
7.76522e-10
5.72162e-08
7.56113e-10
5.70738e-08
7.30984e-10
5.6932e-08
7.0939e-10
5.6793e-08
6.82602e-10
5.66552e-08
6.60737e-10
5.65201e-08
6.34099e-10
5.63858e-08
6.1323e-10
5.62546e-08
5.86366e-10
5.61246e-08
5.65476e-10
5.59988e-08
5.37682e-10
5.58745e-08
5.17774e-10
5.57546e-08
4.90635e-10
5.56356e-08
4.73287e-10
5.5521e-08
4.47222e-10
5.54073e-08
4.32108e-10
5.52986e-08
4.06741e-10
5.5191e-08
3.94349e-10
5.50883e-08
3.70651e-10
5.49861e-08
3.62789e-10
5.48886e-08
3.41645e-10
5.47908e-08
3.39032e-10
3.21409e-10
6.79146e-08
2.09489e-09
-6.78532e-08
6.80238e-08
2.33767e-09
6.81824e-08
2.56117e-09
6.83865e-08
2.76774e-09
6.86009e-08
2.93713e-09
6.8797e-08
3.03462e-09
6.89607e-08
3.06377e-09
6.90908e-08
3.03851e-09
6.91908e-08
2.97635e-09
6.92626e-08
2.89173e-09
6.93077e-08
2.7948e-09
6.93296e-08
2.69296e-09
6.93343e-08
2.59261e-09
6.9329e-08
2.49878e-09
6.93186e-08
2.414e-09
6.93051e-08
2.33763e-09
6.92897e-08
2.26787e-09
6.92731e-08
2.20303e-09
6.92558e-08
2.14216e-09
6.92383e-08
2.08463e-09
6.92208e-08
2.03027e-09
6.92036e-08
1.9788e-09
6.91865e-08
1.93022e-09
6.91697e-08
1.88425e-09
6.9153e-08
1.84094e-09
6.91365e-08
1.79999e-09
6.912e-08
1.76149e-09
6.91035e-08
1.72511e-09
6.9087e-08
1.69101e-09
6.90705e-08
1.65878e-09
6.90538e-08
1.62864e-09
6.9037e-08
1.60014e-09
6.90199e-08
1.57354e-09
6.90026e-08
1.54834e-09
6.89847e-08
1.52487e-09
6.89664e-08
1.50254e-09
6.89474e-08
1.48176e-09
6.89278e-08
1.46181e-09
6.89072e-08
1.44325e-09
6.88858e-08
1.42522e-09
6.88633e-08
1.40847e-09
6.88398e-08
1.39204e-09
6.88151e-08
1.37683e-09
6.87891e-08
1.36172e-09
6.87617e-08
1.34779e-09
6.8733e-08
1.3337e-09
6.87026e-08
1.32078e-09
6.86709e-08
1.3075e-09
6.86373e-08
1.29535e-09
6.86022e-08
1.28262e-09
6.85652e-08
1.271e-09
6.85265e-08
1.25855e-09
6.84858e-08
1.24721e-09
6.84434e-08
1.23479e-09
6.83989e-08
1.22357e-09
6.83527e-08
1.21116e-09
6.83042e-08
1.19996e-09
6.82539e-08
1.18723e-09
6.82014e-08
1.17578e-09
6.81471e-08
1.16241e-09
6.80906e-08
1.15041e-09
6.80324e-08
1.13636e-09
6.79719e-08
1.12395e-09
6.79098e-08
1.10916e-09
6.78453e-08
1.09628e-09
6.77792e-08
1.08049e-09
6.77108e-08
1.0667e-09
6.7641e-08
1.04938e-09
6.75692e-08
1.03443e-09
6.74963e-08
1.01575e-09
6.74214e-08
1.00021e-09
6.73454e-08
9.80627e-10
6.72674e-08
9.64305e-10
6.71882e-08
9.43353e-10
6.71071e-08
9.25535e-10
6.70257e-08
9.02388e-10
6.69434e-08
8.82927e-10
6.6861e-08
8.58923e-10
6.6777e-08
8.40106e-10
6.66921e-08
8.15875e-10
6.66058e-08
7.95721e-10
6.65201e-08
7.68356e-10
6.64344e-08
7.46425e-10
6.63497e-08
7.18773e-10
6.6264e-08
6.98884e-10
6.61785e-08
6.71902e-10
6.60918e-08
6.52151e-10
6.60067e-08
6.22786e-10
6.59217e-08
6.02779e-10
6.5839e-08
5.7333e-10
6.5756e-08
5.56352e-10
6.56742e-08
5.28985e-10
6.55918e-08
5.14477e-10
6.55109e-08
4.87623e-10
6.54304e-08
4.74854e-10
6.53523e-08
4.48798e-10
6.52743e-08
4.40805e-10
6.51983e-08
4.17591e-10
6.51214e-08
4.15928e-10
3.97268e-10
6.76202e-08
2.04836e-09
-6.75737e-08
6.76995e-08
2.25838e-09
6.78123e-08
2.44839e-09
6.7956e-08
2.62409e-09
6.81159e-08
2.77716e-09
6.82698e-08
2.88077e-09
6.84039e-08
2.92961e-09
6.85126e-08
2.92984e-09
6.85962e-08
2.89279e-09
6.86571e-08
2.83074e-09
6.8698e-08
2.75399e-09
6.87212e-08
2.66976e-09
6.87303e-08
2.58343e-09
6.873e-08
2.49909e-09
6.87243e-08
2.41971e-09
6.87157e-08
2.34625e-09
6.87053e-08
2.27828e-09
6.86937e-08
2.21461e-09
6.86814e-08
2.15449e-09
6.86687e-08
2.09731e-09
6.86559e-08
2.04303e-09
6.86433e-08
1.9914e-09
6.8631e-08
1.94256e-09
6.8619e-08
1.89622e-09
6.86074e-08
1.85255e-09
6.85962e-08
1.81118e-09
6.85854e-08
1.7723e-09
6.8575e-08
1.7355e-09
6.8565e-08
1.70103e-09
6.85554e-08
1.66838e-09
6.85461e-08
1.6379e-09
6.85373e-08
1.609e-09
6.85287e-08
1.5821e-09
6.85205e-08
1.55655e-09
6.85125e-08
1.53286e-09
6.85048e-08
1.51026e-09
6.84972e-08
1.48935e-09
6.84898e-08
1.46922e-09
6.84824e-08
1.45066e-09
6.84751e-08
1.43255e-09
6.84676e-08
1.41591e-09
6.84602e-08
1.39949e-09
6.84525e-08
1.3845e-09
6.84448e-08
1.36948e-09
6.84367e-08
1.35589e-09
6.84284e-08
1.34199e-09
6.84197e-08
1.32949e-09
6.84107e-08
1.31647e-09
6.84012e-08
1.30486e-09
6.83913e-08
1.29247e-09
6.83808e-08
1.28149e-09
6.83699e-08
1.26949e-09
6.83582e-08
1.25888e-09
6.8346e-08
1.24698e-09
6.83331e-08
1.23653e-09
6.83195e-08
1.22472e-09
6.83051e-08
1.21439e-09
6.829e-08
1.20235e-09
6.82739e-08
1.19186e-09
6.8257e-08
1.17926e-09
6.82392e-08
1.16824e-09
6.82206e-08
1.15493e-09
6.8201e-08
1.14358e-09
6.81806e-08
1.12958e-09
6.8159e-08
1.11784e-09
6.81366e-08
1.10289e-09
6.81128e-08
1.09047e-09
6.80882e-08
1.07397e-09
6.80624e-08
1.06026e-09
6.8036e-08
1.04216e-09
6.80084e-08
1.02784e-09
6.798e-08
1.00896e-09
6.79504e-08
9.9396e-10
6.79198e-08
9.73961e-10
6.78877e-08
9.57595e-10
6.78548e-08
9.35308e-10
6.78212e-08
9.16518e-10
6.77874e-08
8.92716e-10
6.77528e-08
8.74732e-10
6.77169e-08
8.5181e-10
6.76792e-08
8.33357e-10
6.76408e-08
8.0675e-10
6.76022e-08
7.85025e-10
6.75641e-08
7.56872e-10
6.75253e-08
7.37674e-10
6.74858e-08
7.11418e-10
6.74445e-08
6.93508e-10
6.74028e-08
6.6441e-10
6.73608e-08
6.44837e-10
6.73195e-08
6.14588e-10
6.72783e-08
5.97558e-10
6.72367e-08
5.70597e-10
6.71944e-08
5.56744e-10
6.71513e-08
5.30741e-10
6.7108e-08
5.18201e-10
6.70651e-08
4.91624e-10
6.70224e-08
4.83554e-10
6.69802e-08
4.59757e-10
6.69374e-08
4.58764e-10
4.40745e-10
8.54425e-08
2.00055e-09
-8.53947e-08
8.55163e-08
2.18454e-09
8.5617e-08
2.34768e-09
8.57422e-08
2.49891e-09
8.58857e-08
2.63367e-09
8.60261e-08
2.74036e-09
8.61529e-08
2.80281e-09
8.62584e-08
2.82433e-09
8.63404e-08
2.81081e-09
8.64005e-08
2.77058e-09
8.64421e-08
2.71243e-09
8.64682e-08
2.64368e-09
8.64817e-08
2.56991e-09
8.64859e-08
2.49489e-09
8.6484e-08
2.42161e-09
8.64786e-08
2.35169e-09
8.6471e-08
2.2859e-09
8.64618e-08
2.22376e-09
8.64515e-08
2.16484e-09
8.64403e-08
2.10844e-09
8.64288e-08
2.0546e-09
8.64171e-08
2.00303e-09
8.64056e-08
1.95405e-09
8.63945e-08
1.90737e-09
8.63837e-08
1.86332e-09
8.63734e-08
1.82149e-09
8.63635e-08
1.7822e-09
8.63541e-08
1.74492e-09
8.63451e-08
1.71003e-09
8.63366e-08
1.6769e-09
8.63285e-08
1.64598e-09
8.63209e-08
1.6166e-09
8.63137e-08
1.58928e-09
8.6307e-08
1.56325e-09
8.63007e-08
1.53916e-09
8.62949e-08
1.5161e-09
8.62894e-08
1.49486e-09
8.62843e-08
1.47432e-09
8.62794e-08
1.4555e-09
8.62749e-08
1.43705e-09
8.62706e-08
1.42023e-09
8.62666e-08
1.40352e-09
8.62626e-08
1.38842e-09
8.6259e-08
1.37315e-09
8.62553e-08
1.35951e-09
8.62519e-08
1.34543e-09
8.62485e-08
1.33293e-09
8.62451e-08
1.31977e-09
8.62418e-08
1.30821e-09
8.62385e-08
1.29574e-09
8.62352e-08
1.28482e-09
8.62318e-08
1.27285e-09
8.62284e-08
1.26235e-09
8.62248e-08
1.25054e-09
8.62211e-08
1.24022e-09
8.62173e-08
1.22855e-09
8.62133e-08
1.21838e-09
8.62091e-08
1.20654e-09
8.62047e-08
1.19625e-09
8.62e-08
1.18397e-09
8.6195e-08
1.17321e-09
8.61898e-08
1.16017e-09
8.61842e-08
1.14915e-09
8.61783e-08
1.13546e-09
8.61721e-08
1.12408e-09
8.61656e-08
1.10939e-09
8.61585e-08
1.09761e-09
8.6151e-08
1.08144e-09
8.61428e-08
1.0684e-09
8.61345e-08
1.05052e-09
8.61255e-08
1.0368e-09
8.61163e-08
1.01823e-09
8.61065e-08
1.00372e-09
8.60962e-08
9.84273e-10
8.60852e-08
9.68565e-10
8.60732e-08
9.47293e-10
8.60609e-08
9.28831e-10
8.60482e-08
9.05388e-10
8.60357e-08
8.87234e-10
8.60224e-08
8.65194e-10
8.60079e-08
8.47818e-10
8.59922e-08
8.22464e-10
8.5976e-08
8.01214e-10
8.59601e-08
7.72752e-10
8.59441e-08
7.53684e-10
8.59277e-08
7.27792e-10
8.59099e-08
7.1135e-10
8.58909e-08
6.83356e-10
8.58715e-08
6.64283e-10
8.58517e-08
6.34347e-10
8.58328e-08
6.16523e-10
8.58129e-08
5.90438e-10
8.5793e-08
5.76689e-10
8.57716e-08
5.52167e-10
8.57494e-08
5.40337e-10
8.5727e-08
5.14083e-10
8.57044e-08
5.06076e-10
8.56818e-08
4.82445e-10
8.56595e-08
4.81051e-10
4.64681e-10
1.07982e-07
1.96068e-09
-1.07942e-07
1.0804e-07
2.12609e-09
1.08117e-07
2.27082e-09
1.0821e-07
2.40549e-09
1.08318e-07
2.52632e-09
1.08426e-07
2.63241e-09
1.08525e-07
2.70359e-09
1.0861e-07
2.73913e-09
1.08678e-07
2.74296e-09
1.08729e-07
2.72007e-09
1.08764e-07
2.67698e-09
1.08788e-07
2.62017e-09
1.08802e-07
2.55558e-09
1.08809e-07
2.48755e-09
1.08811e-07
2.41939e-09
1.0881e-07
2.35293e-09
1.08807e-07
2.28943e-09
1.08802e-07
2.22891e-09
1.08795e-07
2.17133e-09
1.08787e-07
2.11599e-09
1.08779e-07
2.0629e-09
1.08771e-07
2.01168e-09
1.08762e-07
1.96274e-09
1.08753e-07
1.91586e-09
1.08745e-07
1.87152e-09
1.08737e-07
1.82934e-09
1.0873e-07
1.78975e-09
1.08723e-07
1.75213e-09
1.08716e-07
1.71692e-09
1.08709e-07
1.68345e-09
1.08703e-07
1.65219e-09
1.08697e-07
1.62243e-09
1.08692e-07
1.59477e-09
1.08686e-07
1.56836e-09
1.08682e-07
1.54393e-09
1.08677e-07
1.52049e-09
1.08673e-07
1.49893e-09
1.08669e-07
1.47805e-09
1.08666e-07
1.45895e-09
1.08663e-07
1.4402e-09
1.0866e-07
1.42316e-09
1.08657e-07
1.40618e-09
1.08655e-07
1.39092e-09
1.08653e-07
1.3754e-09
1.0865e-07
1.3616e-09
1.08649e-07
1.34733e-09
1.08647e-07
1.33468e-09
1.08645e-07
1.32136e-09
1.08644e-07
1.30967e-09
1.08642e-07
1.29708e-09
1.08641e-07
1.28602e-09
1.0864e-07
1.27399e-09
1.08639e-07
1.26335e-09
1.08638e-07
1.25156e-09
1.08637e-07
1.24111e-09
1.08636e-07
1.22947e-09
1.08635e-07
1.21914e-09
1.08635e-07
1.20737e-09
1.08634e-07
1.1969e-09
1.08633e-07
1.18475e-09
1.08632e-07
1.17394e-09
1.08632e-07
1.16102e-09
1.08631e-07
1.15e-09
1.0863e-07
1.13634e-09
1.08629e-07
1.12499e-09
1.08628e-07
1.11019e-09
1.08627e-07
1.0986e-09
1.08626e-07
1.08238e-09
1.08625e-07
1.06973e-09
1.08624e-07
1.0519e-09
1.08622e-07
1.03842e-09
1.0862e-07
1.01994e-09
1.08619e-07
1.00535e-09
1.08617e-07
9.86139e-10
1.08615e-07
9.70162e-10
1.08613e-07
9.49699e-10
1.0861e-07
9.31346e-10
1.08607e-07
9.0874e-10
1.08604e-07
8.9012e-10
1.08601e-07
8.68067e-10
1.08598e-07
8.50639e-10
1.08595e-07
8.25846e-10
1.0859e-07
8.05632e-10
1.08586e-07
7.77342e-10
1.08581e-07
7.58529e-10
1.08577e-07
7.32221e-10
1.08572e-07
7.15881e-10
1.08567e-07
6.8873e-10
1.08561e-07
6.69906e-10
1.08554e-07
6.41255e-10
1.08548e-07
6.22836e-10
1.08541e-07
5.97273e-10
1.08535e-07
5.83184e-10
1.08528e-07
5.59004e-10
1.0852e-07
5.47902e-10
1.08512e-07
5.22177e-10
1.08504e-07
5.14574e-10
1.08494e-07
4.91607e-10
1.08486e-07
4.8965e-10
4.73832e-10
1.36516e-07
-1.36501e-07
1.36538e-07
1.36567e-07
1.36604e-07
1.36646e-07
1.36691e-07
1.36734e-07
1.36771e-07
1.36803e-07
1.36827e-07
1.36845e-07
1.36858e-07
1.36866e-07
1.36871e-07
1.36875e-07
1.36876e-07
1.36876e-07
1.36876e-07
1.36875e-07
1.36873e-07
1.36871e-07
1.36868e-07
1.36866e-07
1.36863e-07
1.36861e-07
1.36858e-07
1.36856e-07
1.36854e-07
1.36851e-07
1.36849e-07
1.36847e-07
1.36846e-07
1.36844e-07
1.36842e-07
1.36841e-07
1.36839e-07
1.36838e-07
1.36837e-07
1.36836e-07
1.36835e-07
1.36835e-07
1.36834e-07
1.36833e-07
1.36833e-07
1.36832e-07
1.36832e-07
1.36832e-07
1.36832e-07
1.36831e-07
1.36831e-07
1.36831e-07
1.36831e-07
1.36831e-07
1.36831e-07
1.36832e-07
1.36832e-07
1.36832e-07
1.36832e-07
1.36833e-07
1.36833e-07
1.36833e-07
1.36834e-07
1.36834e-07
1.36834e-07
1.36835e-07
1.36835e-07
1.36836e-07
1.36836e-07
1.36837e-07
1.36837e-07
1.36837e-07
1.36837e-07
1.36838e-07
1.36838e-07
1.36839e-07
1.36839e-07
1.36839e-07
1.36839e-07
1.36839e-07
1.36839e-07
1.36839e-07
1.3684e-07
1.36839e-07
1.36839e-07
1.36838e-07
1.36837e-07
1.36837e-07
1.36837e-07
1.36836e-07
1.36835e-07
1.36834e-07
1.36832e-07
1.36831e-07
1.3683e-07
1.36829e-07
1.36827e-07
1.36825e-07
1.36823e-07
1.3682e-07
3.44473e-08
8.81003e-11
3.44492e-08
-6.21133e-11
3.44458e-08
7.40707e-11
3.44491e-08
-5.82719e-11
3.4442e-08
6.8335e-11
3.44404e-08
-4.66199e-11
3.44288e-08
6.81696e-11
3.44228e-08
-3.22384e-11
3.4406e-08
7.12297e-11
3.43946e-08
-1.3442e-11
3.43704e-08
8.05855e-11
3.43532e-08
1.35838e-11
3.43194e-08
9.76336e-11
3.42906e-08
4.82139e-11
3.42446e-08
1.20139e-10
3.42006e-08
9.30374e-11
3.41377e-08
1.52525e-10
3.40727e-08
1.53741e-10
3.39859e-08
1.99602e-10
3.38892e-08
2.3858e-10
3.37607e-08
2.76115e-10
3.35859e-08
3.90444e-10
3.33146e-08
4.84995e-10
3.27395e-08
9.52851e-10
1.57492e-09
3.80435e-08
9.32797e-11
3.80445e-08
-6.30996e-11
3.80403e-08
7.83285e-11
3.80398e-08
-5.78213e-11
3.80338e-08
7.43818e-11
3.80274e-08
-4.02924e-11
3.80199e-08
7.56965e-11
3.80063e-08
-1.86554e-11
3.79969e-08
8.06756e-11
3.79732e-08
1.02021e-11
3.79604e-08
9.34345e-11
3.79246e-08
4.93729e-11
3.79061e-08
1.16127e-10
3.78534e-08
1.00948e-10
3.78263e-08
1.47205e-10
3.77509e-08
1.68483e-10
3.77115e-08
1.91916e-10
3.76044e-08
2.60767e-10
3.75457e-08
2.58349e-10
3.73901e-08
3.94197e-10
3.7286e-08
3.80146e-10
3.70271e-08
6.494e-10
3.67646e-08
7.47444e-10
3.63233e-08
1.39423e-09
1.87357e-09
4.20233e-08
7.91543e-11
4.20021e-08
-4.18927e-11
4.20192e-08
6.1182e-11
4.19957e-08
-3.42248e-11
4.20122e-08
5.77917e-11
4.1982e-08
-1.00016e-11
4.19963e-08
6.13691e-11
4.1959e-08
1.86488e-11
4.19694e-08
7.02101e-11
4.19239e-08
5.57843e-11
4.19277e-08
8.95826e-11
4.18722e-08
1.04858e-10
4.18652e-08
1.23163e-10
4.1798e-08
1.68111e-10
4.1773e-08
1.7224e-10
4.16925e-08
2.4895e-10
4.16399e-08
2.44589e-10
4.15434e-08
3.5717e-10
4.14462e-08
3.55593e-10
4.13223e-08
5.18098e-10
4.11377e-08
5.6479e-10
4.0949e-08
8.38019e-10
4.06304e-08
1.06606e-09
4.04438e-08
1.5809e-09
2.06707e-09
4.64055e-08