/*--------------------------------*- C++ -*----------------------------------*\
| =========                 |                                                 |
| \\      /  F ield         | OpenFOAM: The Open Source CFD Toolbox           |
|  \\    /   O peration     | Version:  2.3.0                                 |
|   \\  /    A nd           | Web:      www.OpenFOAM.org                      |
|    \\/     M anipulation  |                                                 |
\*---------------------------------------------------------------------------*/
FoamFile
{
    version     2.0;
    format      ascii;
    class       volVectorField;
    location    "1";
    object      U;
}
// * * * * * * * * * * * * * * * * * * * * * * * * * * * * * * * * * * * * * //

dimensions      [0 1 -1 0 0 0 0];

internalField   nonuniform List<vector> 
5940
(
(0.172148 0.00510078 0)
(0.150948 0.00684242 0)
(0.132598 0.00710945 0)
(0.115182 0.00644352 0)
(0.0985075 0.00546239 0)
(0.0833642 0.00438876 0)
(0.0706815 0.00326741 0)
(0.0607313 0.00215356 0)
(0.0532445 0.0012079 0)
(0.0477333 0.000550574 0)
(0.0437206 0.000174447 0)
(0.0407964 2.82952e-07 0)
(0.0386209 -5.27303e-05 0)
(0.0369345 -4.37542e-05 0)
(0.0355519 -9.47607e-06 0)
(0.0343532 2.84559e-05 0)
(0.0332689 5.92179e-05 0)
(0.0322633 7.95749e-05 0)
(0.0313206 9.04555e-05 0)
(0.0304348 9.42961e-05 0)
(0.0296032 9.35797e-05 0)
(0.0288241 9.02718e-05 0)
(0.0280951 8.57248e-05 0)
(0.027413 8.07827e-05 0)
(0.0267743 7.59175e-05 0)
(0.0261754 7.13545e-05 0)
(0.0256125 6.71728e-05 0)
(0.0250821 6.33756e-05 0)
(0.0245812 5.99317e-05 0)
(0.0241069 5.67991e-05 0)
(0.0236567 5.39359e-05 0)
(0.0232286 5.1305e-05 0)
(0.0228207 4.8875e-05 0)
(0.0224313 4.66205e-05 0)
(0.0220591 4.45208e-05 0)
(0.0217027 4.25594e-05 0)
(0.0213612 4.07222e-05 0)
(0.0210334 3.89983e-05 0)
(0.0207185 3.73776e-05 0)
(0.0204156 3.58522e-05 0)
(0.0201241 3.44145e-05 0)
(0.0198432 3.30585e-05 0)
(0.0195723 3.17779e-05 0)
(0.0193109 3.05679e-05 0)
(0.0190584 2.9423e-05 0)
(0.0188143 2.83394e-05 0)
(0.0185783 2.73123e-05 0)
(0.0183498 2.63386e-05 0)
(0.0181285 2.54139e-05 0)
(0.017914 2.45359e-05 0)
(0.017706 2.37006e-05 0)
(0.0175042 2.29062e-05 0)
(0.0173082 2.21492e-05 0)
(0.0171179 2.14282e-05 0)
(0.016933 2.07399e-05 0)
(0.0167531 2.00836e-05 0)
(0.0165782 1.94561e-05 0)
(0.0164079 1.88571e-05 0)
(0.0162422 1.82834e-05 0)
(0.0160807 1.77353e-05 0)
(0.0159233 1.72096e-05 0)
(0.0157699 1.6707e-05 0)
(0.0156203 1.6224e-05 0)
(0.0154743 1.57622e-05 0)
(0.0153319 1.53177e-05 0)
(0.0151928 1.48925e-05 0)
(0.0150569 1.44825e-05 0)
(0.0149242 1.40903e-05 0)
(0.0147945 1.37115e-05 0)
(0.0146676 1.33492e-05 0)
(0.0145436 1.29985e-05 0)
(0.0144222 1.26634e-05 0)
(0.0143035 1.23381e-05 0)
(0.0141872 1.20277e-05 0)
(0.0140734 1.17255e-05 0)
(0.0139619 1.14376e-05 0)
(0.0138527 1.11564e-05 0)
(0.0137456 1.08891e-05 0)
(0.0136407 1.06269e-05 0)
(0.0135378 1.03786e-05 0)
(0.0134369 1.01337e-05 0)
(0.0133378 9.90286e-06 0)
(0.0132407 9.67375e-06 0)
(0.0131453 9.45895e-06 0)
(0.0130517 9.24415e-06 0)
(0.0129597 9.04424e-06 0)
(0.0128694 8.84244e-06 0)
(0.0127806 8.6564e-06 0)
(0.0126934 8.46643e-06 0)
(0.0126076 8.29337e-06 0)
(0.0125234 8.11411e-06 0)
(0.0124404 7.95323e-06 0)
(0.0123589 7.78357e-06 0)
(0.0122786 7.63418e-06 0)
(0.0121998 7.47311e-06 0)
(0.0121219 7.33468e-06 0)
(0.0120456 7.1813e-06 0)
(0.0119701 7.05342e-06 0)
(0.0118961 6.90674e-06 0)
(0.0118228 6.78903e-06 0)
(0.011751 6.64808e-06 0)
(0.0116798 6.54035e-06 0)
(0.0116101 6.40426e-06 0)
(0.0115409 6.30646e-06 0)
(0.0114732 6.17425e-06 0)
(0.0114058 6.08639e-06 0)
(0.01134 5.95699e-06 0)
(0.0112743 5.87928e-06 0)
(0.0112103 5.75167e-06 0)
(0.0111463 5.68449e-06 0)
(0.011084 5.55747e-06 0)
(0.0110215 5.50134e-06 0)
(0.0109609 5.37362e-06 0)
(0.0108998 5.32936e-06 0)
(0.0108408 5.1995e-06 0)
(0.010781 5.16809e-06 0)
(0.0107235 5.03437e-06 0)
(0.0106649 5.01716e-06 0)
(0.0106089 4.87768e-06 0)
(0.0105514 4.8764e-06 0)
(0.0104969 4.72883e-06 0)
(0.0104404 4.74562e-06 0)
(0.0103873 4.58726e-06 0)
(0.0103316 4.62484e-06 0)
(0.0102799 4.45243e-06 0)
(0.0102249 4.5142e-06 0)
(0.0101747 4.32373e-06 0)
(0.0101202 4.41402e-06 0)
(0.0100714 4.2006e-06 0)
(0.0100173 4.32473e-06 0)
(0.00997005 4.08232e-06 0)
(0.0099161 4.24719e-06 0)
(0.00987041 3.96815e-06 0)
(0.00981637 4.18249e-06 0)
(0.00977239 3.85711e-06 0)
(0.00971793 4.13229e-06 0)
(0.00967585 3.74803e-06 0)
(0.00962059 4.09895e-06 0)
(0.00958068 3.63926e-06 0)
(0.00952411 4.08601e-06 0)
(0.00948675 3.52845e-06 0)
(0.00942817 4.09904e-06 0)
(0.00939396 3.41199e-06 0)
(0.00933239 4.14784e-06 0)
(0.00930226 3.28408e-06 0)
(0.00923614 4.25377e-06 0)
(0.0092117 3.13745e-06 0)
(0.00913806 4.48846e-06 0)
(0.00912275 3.08736e-06 0)
(0.00903007 6.53053e-06 0)
(0.189429 0.00904192 0)
(0.18737 0.0124025 0)
(0.18477 0.0137447 0)
(0.181051 0.0136304 0)
(0.175796 0.0128558 0)
(0.169171 0.0117512 0)
(0.161763 0.0103786 0)
(0.154061 0.00877869 0)
(0.14642 0.00710802 0)
(0.139062 0.00556319 0)
(0.132134 0.0042724 0)
(0.125743 0.00327084 0)
(0.119939 0.00253383 0)
(0.114726 0.00201536 0)
(0.110066 0.0016619 0)
(0.105895 0.00142256 0)
(0.102146 0.00125611 0)
(0.0987567 0.00113349 0)
(0.0956735 0.00103651 0)
(0.0928519 0.000954821 0)
(0.0902559 0.00088303 0)
(0.087856 0.00081853 0)
(0.0856279 0.000760111 0)
(0.0835516 0.000707184 0)
(0.0816103 0.000659351 0)
(0.0797896 0.00061623 0)
(0.0780771 0.000577402 0)
(0.0764622 0.000542417 0)
(0.0749355 0.000510826 0)
(0.0734891 0.000482205 0)
(0.0721157 0.000456173 0)
(0.0708093 0.000432393 0)
(0.0695644 0.000410579 0)
(0.0683761 0.00039049 0)
(0.0672403 0.000371921 0)
(0.0661529 0.000354702 0)
(0.0651108 0.00033869 0)
(0.0641107 0.000323763 0)
(0.06315 0.000309817 0)
(0.062226 0.000296763 0)
(0.0613365 0.00028452 0)
(0.0604794 0.000273023 0)
(0.0596528 0.000262207 0)
(0.0588549 0.000252021 0)
(0.0580842 0.000242412 0)
(0.0573391 0.00023334 0)
(0.0566183 0.000224761 0)
(0.0559204 0.000216642 0)
(0.0552444 0.000208947 0)
(0.054589 0.00020165 0)
(0.0539534 0.000194719 0)
(0.0533365 0.000188133 0)
(0.0527375 0.000181866 0)
(0.0521555 0.0001759 0)
(0.0515898 0.000170213 0)
(0.0510396 0.000164791 0)
(0.0505043 0.000159613 0)
(0.0499831 0.00015467 0)
(0.0494757 0.000149942 0)
(0.0489812 0.000145422 0)
(0.0484993 0.000141093 0)
(0.0480294 0.000136951 0)
(0.0475711 0.000132977 0)
(0.0471238 0.000129171 0)
(0.0466872 0.000125516 0)
(0.0462608 0.000122012 0)
(0.0458444 0.000118641 0)
(0.0454374 0.000115408 0)
(0.0450396 0.000112294 0)
(0.0446505 0.000109307 0)
(0.0442701 0.000106425 0)
(0.0438978 0.000103659 0)
(0.0435335 0.000100986 0)
(0.0431767 9.84213e-05 0)
(0.0428275 9.59391e-05 0)
(0.0424852 9.35573e-05 0)
(0.0421501 9.1248e-05 0)
(0.0418214 8.90333e-05 0)
(0.0414994 8.68814e-05 0)
(0.0411834 8.48196e-05 0)
(0.0408737 8.28114e-05 0)
(0.0405696 8.08898e-05 0)
(0.0402715 7.90128e-05 0)
(0.0399785 7.72199e-05 0)
(0.0396912 7.54629e-05 0)
(0.0394088 7.37886e-05 0)
(0.0391317 7.21412e-05 0)
(0.0388591 7.05767e-05 0)
(0.0385916 6.90298e-05 0)
(0.0383282 6.7567e-05 0)
(0.0380698 6.61121e-05 0)
(0.0378151 6.47439e-05 0)
(0.0375652 6.3373e-05 0)
(0.0373187 6.20929e-05 0)
(0.0370769 6.07989e-05 0)
(0.0368382 5.96013e-05 0)
(0.036604 5.83776e-05 0)
(0.0363725 5.72578e-05 0)
(0.0361456 5.6098e-05 0)
(0.035921 5.50516e-05 0)
(0.0357009 5.39495e-05 0)
(0.0354828 5.2973e-05 0)
(0.0352693 5.19232e-05 0)
(0.0350572 5.10139e-05 0)
(0.0348499 5.00106e-05 0)
(0.0346436 4.91661e-05 0)
(0.0344422 4.82039e-05 0)
(0.0342413 4.74225e-05 0)
(0.0340456 4.6496e-05 0)
(0.0338497 4.57771e-05 0)
(0.0336594 4.48807e-05 0)
(0.0334683 4.4224e-05 0)
(0.0332832 4.33519e-05 0)
(0.0330965 4.27584e-05 0)
(0.0329165 4.19046e-05 0)
(0.0327338 4.13759e-05 0)
(0.0325586 4.05336e-05 0)
(0.0323797 4.00725e-05 0)
(0.0322093 3.92346e-05 0)
(0.0320339 3.88452e-05 0)
(0.0318681 3.80035e-05 0)
(0.0316957 3.76913e-05 0)
(0.0315345 3.68367e-05 0)
(0.0313647 3.66092e-05 0)
(0.0312081 3.57307e-05 0)
(0.0310406 3.55974e-05 0)
(0.0308886 3.46823e-05 0)
(0.0307228 3.46556e-05 0)
(0.0305755 3.36887e-05 0)
(0.030411 3.37841e-05 0)
(0.0302686 3.27471e-05 0)
(0.0301046 3.29847e-05 0)
(0.0299674 3.1855e-05 0)
(0.0298032 3.22603e-05 0)
(0.0296716 3.10097e-05 0)
(0.0295062 3.16157e-05 0)
(0.0293809 3.02086e-05 0)
(0.0292131 3.1058e-05 0)
(0.0290949 2.94493e-05 0)
(0.0289232 3.05984e-05 0)
(0.0288134 2.87289e-05 0)
(0.0286356 3.02539e-05 0)
(0.0285362 2.80454e-05 0)
(0.0283492 3.0053e-05 0)
(0.0282631 2.74013e-05 0)
(0.0280624 3.00535e-05 0)
(0.0279947 2.68362e-05 0)
(0.0277718 3.04785e-05 0)
(0.0277324 2.67722e-05 0)
(0.027467 3.53529e-05 0)
(0.190547 0.00899156 0)
(0.191003 0.0117542 0)
(0.192104 0.0135423 0)
(0.193311 0.0141536 0)
(0.193906 0.0140105 0)
(0.19352 0.0134439 0)
(0.192152 0.0125653 0)
(0.189949 0.0114353 0)
(0.187091 0.010164 0)
(0.183744 0.00889621 0)
(0.180061 0.00774567 0)
(0.176186 0.00676386 0)
(0.17224 0.00595062 0)
(0.168315 0.0052848 0)
(0.164465 0.004738 0)
(0.160719 0.00428292 0)
(0.157089 0.00389711 0)
(0.153585 0.00356394 0)
(0.150207 0.0032718 0)
(0.146957 0.00301286 0)
(0.143834 0.00278176 0)
(0.140836 0.0025747 0)
(0.137961 0.00238882 0)
(0.135206 0.00222177 0)
(0.132567 0.00207155 0)
(0.13004 0.0019363 0)
(0.127619 0.00181437 0)
(0.125301 0.00170421 0)
(0.12308 0.00160444 0)
(0.120951 0.00151382 0)
(0.118909 0.00143123 0)
(0.11695 0.00135574 0)
(0.115068 0.0012865 0)
(0.113258 0.00122279 0)
(0.111518 0.00116399 0)
(0.109843 0.00110956 0)
(0.108229 0.00105906 0)
(0.106673 0.00101207 0)
(0.105171 0.000968253 0)
(0.103721 0.000927311 0)
(0.10232 0.000888978 0)
(0.100966 0.000853025 0)
(0.0996547 0.000819245 0)
(0.0983854 0.000787459 0)
(0.0971558 0.000757502 0)
(0.0959638 0.000729231 0)
(0.0948077 0.000702514 0)
(0.0936856 0.000677236 0)
(0.0925962 0.000653287 0)
(0.0915378 0.000630577 0)
(0.0905091 0.000609013 0)
(0.0895088 0.000588521 0)
(0.0885357 0.000569024 0)
(0.0875885 0.000550462 0)
(0.0866663 0.000532767 0)
(0.085768 0.000515893 0)
(0.0848926 0.000499781 0)
(0.0840392 0.000484392 0)
(0.0832069 0.000469675 0)
(0.082395 0.0004556 0)
(0.0816026 0.00044212 0)
(0.080829 0.000429213 0)
(0.0800736 0.000416834 0)
(0.0793355 0.000404968 0)
(0.0786144 0.000393574 0)
(0.0779093 0.000382642 0)
(0.07722 0.00037213 0)
(0.0765457 0.000362037 0)
(0.0758861 0.000352321 0)
(0.0752404 0.000342986 0)
(0.0746084 0.000333987 0)
(0.0739894 0.000325337 0)
(0.0733834 0.000316988 0)
(0.0727894 0.00030896 0)
(0.0722076 0.000301202 0)
(0.0716369 0.000293739 0)
(0.0710778 0.000286518 0)
(0.0705291 0.000279571 0)
(0.0699913 0.000272839 0)
(0.0694632 0.000266365 0)
(0.0689453 0.00026008 0)
(0.0684366 0.000254039 0)
(0.0679375 0.000248163 0)
(0.0674469 0.000242519 0)
(0.0669657 0.000237018 0)
(0.0664922 0.00023174 0)
(0.0660276 0.000226583 0)
(0.0655702 0.000221642 0)
(0.0651215 0.000216801 0)
(0.0646793 0.000212172 0)
(0.0642454 0.000207621 0)
(0.0638176 0.000203282 0)
(0.0633978 0.000198998 0)
(0.0629835 0.000194928 0)
(0.0625771 0.00019089 0)
(0.0621756 0.00018707 0)
(0.0617819 0.000183257 0)
(0.0613924 0.000179673 0)
(0.0610108 0.000176067 0)
(0.0606327 0.000172703 0)
(0.0602625 0.000169288 0)
(0.0598951 0.00016613 0)
(0.0595359 0.000162889 0)
(0.0591787 0.000159929 0)
(0.0588299 0.000156847 0)
(0.0584822 0.000154073 0)
(0.0581434 0.000151137 0)
(0.0578047 0.000148542 0)
(0.0574754 0.000145736 0)
(0.0571452 0.000143314 0)
(0.0568251 0.000140626 0)
(0.0565027 0.000138372 0)
(0.0561915 0.000135788 0)
(0.0558766 0.0001337 0)
(0.0555739 0.000131207 0)
(0.0552658 0.000129283 0)
(0.0549715 0.000126866 0)
(0.0546696 0.000125107 0)
(0.0543835 0.000122753 0)
(0.0540874 0.000121163 0)
(0.0538093 0.000118855 0)
(0.0535182 0.00011744 0)
(0.0532481 0.000115162 0)
(0.0529614 0.000113931 0)
(0.0526994 0.000111664 0)
(0.0524164 0.000110629 0)
(0.0521624 0.000108352 0)
(0.0518823 0.00010753 0)
(0.0516367 0.00010522 0)
(0.0513584 0.000104632 0)
(0.0511217 0.00010226 0)
(0.0508441 0.000101935 0)
(0.0506168 9.9468e-05 0)
(0.0503386 9.94411e-05 0)
(0.0501214 9.68407e-05 0)
(0.049841 9.7157e-05 0)
(0.0496352 9.43762e-05 0)
(0.0493503 9.5093e-05 0)
(0.0491576 9.2076e-05 0)
(0.0488656 9.3265e-05 0)
(0.0486884 8.99461e-05 0)
(0.0483855 9.16976e-05 0)
(0.0482271 8.80035e-05 0)
(0.0479083 9.04291e-05 0)
(0.047774 8.6294e-05 0)
(0.0474315 8.95384e-05 0)
(0.0473294 8.49683e-05 0)
(0.046951 8.9433e-05 0)
(0.0468945 8.48722e-05 0)
(0.0464596 9.52484e-05 0)
(0.191702 0.00850286 0)
(0.192127 0.0104263 0)
(0.193232 0.0120183 0)
(0.1949 0.0128598 0)
(0.196637 0.0130341 0)
(0.198019 0.0127805 0)
(0.198864 0.0122491 0)
(0.199154 0.0115165 0)
(0.19893 0.0106538 0)
(0.19825 0.00975107 0)
(0.197179 0.00889273 0)
(0.195798 0.00812957 0)
(0.194188 0.00747507 0)
(0.192418 0.00691807 0)
(0.190537 0.00644013 0)
(0.188575 0.00602378 0)
(0.186552 0.00565489 0)
(0.184483 0.00532278 0)
(0.182376 0.00501976 0)
(0.180243 0.0047405 0)
(0.178091 0.00448141 0)
(0.175928 0.0042401 0)
(0.173762 0.00401495 0)
(0.171601 0.00380474 0)
(0.16945 0.00360848 0)
(0.167316 0.00342528 0)
(0.165203 0.00325427 0)
(0.163116 0.00309465 0)
(0.161058 0.00294559 0)
(0.159032 0.00280633 0)
(0.157041 0.00267614 0)
(0.155085 0.00255433 0)
(0.153167 0.00244027 0)
(0.151287 0.00233337 0)
(0.149446 0.00223308 0)
(0.147644 0.00213889 0)
(0.145881 0.00205035 0)
(0.144157 0.00196704 0)
(0.142472 0.00188856 0)
(0.140825 0.00181457 0)
(0.139216 0.00174474 0)
(0.137644 0.00167876 0)
(0.136108 0.00161637 0)
(0.134607 0.00155731 0)
(0.133141 0.00150134 0)
(0.131709 0.00144827 0)
(0.13031 0.00139789 0)
(0.128942 0.00135002 0)
(0.127606 0.00130449 0)
(0.1263 0.00126116 0)
(0.125024 0.00121988 0)
(0.123775 0.00118052 0)
(0.122555 0.00114297 0)
(0.121362 0.00110712 0)
(0.120194 0.00107286 0)
(0.119052 0.0010401 0)
(0.117935 0.00100875 0)
(0.116841 0.000978744 0)
(0.115771 0.000949985 0)
(0.114723 0.000922423 0)
(0.113697 0.000895976 0)
(0.112691 0.000870603 0)
(0.111707 0.000846228 0)
(0.110742 0.000822821 0)
(0.109797 0.000800309 0)
(0.10887 0.000778672 0)
(0.107962 0.00075784 0)
(0.107071 0.000737803 0)
(0.106198 0.00071849 0)
(0.105341 0.000699902 0)
(0.104501 0.000681968 0)
(0.103676 0.000664698 0)
(0.102866 0.000648017 0)
(0.102072 0.000631946 0)
(0.101292 0.000616408 0)
(0.100525 0.000601433 0)
(0.0997734 0.000586938 0)
(0.0990341 0.000572965 0)
(0.0983084 0.000559425 0)
(0.0975946 0.000546372 0)
(0.0968938 0.000533707 0)
(0.0962042 0.0005215 0)
(0.095527 0.000509638 0)
(0.0948602 0.000498209 0)
(0.0942055 0.000487086 0)
(0.0935603 0.000476376 0)
(0.0929269 0.000465933 0)
(0.0923023 0.000455886 0)
(0.091689 0.00044607 0)
(0.0910838 0.000436638 0)
(0.0904897 0.000427401 0)
(0.089903 0.000418539 0)
(0.0893272 0.000409836 0)
(0.088758 0.000401504 0)
(0.0881996 0.000393295 0)
(0.0876469 0.000385458 0)
(0.0871052 0.000377704 0)
(0.0865682 0.000370329 0)
(0.0860424 0.000362996 0)
(0.0855203 0.000356054 0)
(0.0850096 0.000349111 0)
(0.0845016 0.000342574 0)
(0.0840054 0.000335991 0)
(0.0835108 0.000329837 0)
(0.0830285 0.000323586 0)
(0.0825465 0.000317795 0)
(0.0820776 0.00031185 0)
(0.0816075 0.000306403 0)
(0.0811515 0.000300738 0)
(0.0806926 0.000295621 0)
(0.0802491 0.000290214 0)
(0.0798006 0.000285413 0)
(0.0793693 0.00028024 0)
(0.0789305 0.000275745 0)
(0.078511 0.000270785 0)
(0.0780813 0.000266589 0)
(0.0776733 0.000261818 0)
(0.0772519 0.000257917 0)
(0.0768553 0.000253315 0)
(0.0764413 0.000249707 0)
(0.076056 0.00024525 0)
(0.0756486 0.000241937 0)
(0.0752747 0.000237603 0)
(0.074873 0.00023459 0)
(0.0745105 0.000230355 0)
(0.0741134 0.000227651 0)
(0.0737628 0.000223489 0)
(0.073369 0.00022111 0)
(0.0730306 0.000216993 0)
(0.0726389 0.000214957 0)
(0.0723134 0.000210855 0)
(0.0719221 0.000209188 0)
(0.0716105 0.000205068 0)
(0.0712175 0.000203802 0)
(0.0709212 0.00019963 0)
(0.0705241 0.000198803 0)
(0.070245 0.00019454 0)
(0.0698408 0.000194202 0)
(0.0695814 0.000189809 0)
(0.0691661 0.000190013 0)
(0.06893 0.000185458 0)
(0.0684983 0.000186264 0)
(0.0682904 0.000181532 0)
(0.0678355 0.000182999 0)
(0.0676626 0.000178121 0)
(0.0671748 0.000180339 0)
(0.067047 0.000175437 0)
(0.0665125 0.000178926 0)
(0.0664436 0.000174556 0)
(0.0658444 0.000183815 0)
(0.192684 0.00806896 0)
(0.193076 0.00950008 0)
(0.19394 0.0108086 0)
(0.195302 0.0116636 0)
(0.196901 0.0119797 0)
(0.198416 0.011884 0)
(0.199654 0.0115259 0)
(0.200559 0.0110013 0)
(0.201142 0.0103715 0)
(0.201429 0.00969515 0)
(0.201449 0.00903117 0)
(0.201241 0.00842333 0)
(0.200851 0.00789106 0)
(0.200322 0.00743258 0)
(0.199688 0.00703654 0)
(0.198969 0.00669017 0)
(0.198177 0.00638243 0)
(0.197318 0.00610453 0)
(0.196396 0.00584977 0)
(0.195414 0.00561321 0)
(0.194375 0.00539139 0)
(0.193283 0.00518196 0)
(0.192142 0.00498338 0)
(0.190955 0.00479458 0)
(0.189728 0.00461481 0)
(0.188464 0.00444351 0)
(0.187169 0.00428017 0)
(0.185845 0.00412435 0)
(0.184498 0.00397563 0)
(0.18313 0.00383363 0)
(0.181747 0.00369796 0)
(0.18035 0.0035683 0)
(0.178943 0.00344432 0)
(0.177529 0.00332573 0)
(0.176111 0.00321224 0)
(0.174691 0.00310361 0)
(0.173271 0.00299959 0)
(0.171854 0.00289998 0)
(0.170441 0.00280454 0)
(0.169034 0.0027131 0)
(0.167635 0.00262545 0)
(0.166244 0.00254144 0)
(0.164864 0.00246088 0)
(0.163495 0.00238362 0)
(0.162139 0.0023095 0)
(0.160795 0.00223839 0)
(0.159465 0.00217013 0)
(0.15815 0.00210461 0)
(0.156849 0.00204168 0)
(0.155564 0.00198124 0)
(0.154294 0.00192315 0)
(0.153041 0.00186733 0)
(0.151803 0.00181365 0)
(0.150582 0.00176203 0)
(0.149377 0.00171236 0)
(0.148189 0.00166457 0)
(0.147017 0.00161855 0)
(0.145862 0.00157424 0)
(0.144723 0.00153155 0)
(0.1436 0.00149042 0)
(0.142494 0.00145076 0)
(0.141404 0.00141253 0)
(0.140329 0.00137564 0)
(0.139271 0.00134006 0)
(0.138228 0.00130571 0)
(0.1372 0.00127257 0)
(0.136188 0.00124054 0)
(0.135191 0.00120962 0)
(0.134209 0.00117972 0)
(0.133241 0.00115085 0)
(0.132287 0.00112291 0)
(0.131348 0.00109592 0)
(0.130422 0.00106978 0)
(0.12951 0.00104452 0)
(0.128612 0.00102004 0)
(0.127726 0.000996377 0)
(0.126854 0.000973427 0)
(0.125994 0.000951241 0)
(0.125148 0.000929704 0)
(0.124312 0.000908882 0)
(0.12349 0.000888651 0)
(0.122678 0.000869093 0)
(0.121879 0.00085007 0)
(0.12109 0.000831685 0)
(0.120314 0.000813782 0)
(0.119546 0.000796484 0)
(0.118792 0.000779619 0)
(0.118046 0.000763333 0)
(0.117312 0.00074743 0)
(0.116586 0.000732086 0)
(0.115872 0.000717078 0)
(0.115165 0.000702613 0)
(0.114471 0.000688435 0)
(0.113783 0.00067479 0)
(0.113107 0.000661385 0)
(0.112436 0.000648505 0)
(0.111779 0.000635819 0)
(0.111125 0.000623658 0)
(0.110485 0.00061164 0)
(0.109847 0.000600153 0)
(0.109224 0.000588757 0)
(0.108601 0.000577904 0)
(0.107994 0.000567087 0)
(0.107386 0.000556831 0)
(0.106795 0.000546552 0)
(0.106201 0.000536861 0)
(0.105624 0.000527083 0)
(0.105043 0.000517927 0)
(0.104482 0.000508615 0)
(0.103913 0.000499968 0)
(0.103366 0.000491088 0)
(0.10281 0.000482928 0)
(0.102277 0.000474448 0)
(0.101731 0.000466755 0)
(0.101212 0.000458646 0)
(0.100676 0.000451403 0)
(0.100171 0.000443636 0)
(0.0996434 0.00043683 0)
(0.0991522 0.000429378 0)
(0.0986332 0.000422999 0)
(0.0981559 0.000415833 0)
(0.0976438 0.000409875 0)
(0.0971806 0.000402971 0)
(0.0966744 0.00039743 0)
(0.0962257 0.000390762 0)
(0.095724 0.000385639 0)
(0.0952902 0.000379182 0)
(0.0947915 0.00037448 0)
(0.0943735 0.000368211 0)
(0.093876 0.000363938 0)
(0.0934748 0.000357833 0)
(0.0929763 0.000354002 0)
(0.0925935 0.000348039 0)
(0.0920914 0.000344664 0)
(0.091729 0.000338827 0)
(0.0912201 0.000335925 0)
(0.0908805 0.000330201 0)
(0.090361 0.000327791 0)
(0.0900478 0.000322182 0)
(0.0895126 0.000320278 0)
(0.0892302 0.000314804 0)
(0.0886731 0.000313418 0)
(0.0884275 0.000308131 0)
(0.0878403 0.000307282 0)
(0.0876395 0.000302269 0)
(0.0870118 0.000302067 0)
(0.086866 0.000297452 0)
(0.0861843 0.000298596 0)
(0.0861066 0.000294891 0)
(0.0853552 0.00030113 0)
(0.193496 0.00771492 0)
(0.193875 0.00886113 0)
(0.194591 0.00993705 0)
(0.195677 0.01073 0)
(0.196996 0.0111138 0)
(0.198328 0.011127 0)
(0.199501 0.0108843 0)
(0.200447 0.0104847 0)
(0.201163 0.00999173 0)
(0.201672 0.00945158 0)
(0.201998 0.00890698 0)
(0.202167 0.00839403 0)
(0.202211 0.00793413 0)
(0.202161 0.00753251 0)
(0.202041 0.00718393 0)
(0.201868 0.00687941 0)
(0.201652 0.00661 0)
(0.201395 0.00636819 0)
(0.201099 0.00614802 0)
(0.200763 0.00594495 0)
(0.200388 0.00575563 0)
(0.199971 0.00557764 0)
(0.199516 0.00540926 0)
(0.19902 0.00524927 0)
(0.198486 0.00509677 0)
(0.197915 0.00495105 0)
(0.197308 0.00481153 0)
(0.196665 0.0046777 0)
(0.195989 0.00454913 0)
(0.195282 0.00442542 0)
(0.194544 0.0043062 0)
(0.193777 0.00419117 0)
(0.192983 0.00408004 0)
(0.192164 0.00397258 0)
(0.191321 0.00386856 0)
(0.190456 0.0037678 0)
(0.18957 0.00367014 0)
(0.188666 0.00357543 0)
(0.187744 0.00348355 0)
(0.186806 0.00339438 0)
(0.185854 0.00330782 0)
(0.184889 0.00322378 0)
(0.183913 0.00314217 0)
(0.182927 0.00306292 0)
(0.181933 0.00298595 0)
(0.180931 0.00291119 0)
(0.179923 0.00283858 0)
(0.17891 0.00276807 0)
(0.177893 0.00269957 0)
(0.176873 0.00263305 0)
(0.175851 0.00256843 0)
(0.174828 0.00250568 0)
(0.173805 0.00244472 0)
(0.172783 0.00238553 0)
(0.171763 0.00232803 0)
(0.170744 0.0022722 0)
(0.169729 0.00221796 0)
(0.168716 0.00216529 0)
(0.167708 0.00211412 0)
(0.166704 0.00206444 0)
(0.165705 0.00201617 0)
(0.164712 0.0019693 0)
(0.163724 0.00192375 0)
(0.162743 0.00187953 0)
(0.161768 0.00183655 0)
(0.160799 0.00179481 0)
(0.159838 0.00175425 0)
(0.158884 0.00171485 0)
(0.157938 0.00167655 0)
(0.156998 0.00163936 0)
(0.156067 0.00160318 0)
(0.155144 0.00156806 0)
(0.154229 0.00153388 0)
(0.153321 0.0015007 0)
(0.152423 0.0014684 0)
(0.151532 0.00143704 0)
(0.15065 0.00140651 0)
(0.149775 0.00137687 0)
(0.148911 0.00134799 0)
(0.148053 0.00131995 0)
(0.147205 0.00129263 0)
(0.146363 0.0012661 0)
(0.145532 0.00124023 0)
(0.144707 0.00121513 0)
(0.143893 0.00119063 0)
(0.143085 0.00116686 0)
(0.142287 0.00114365 0)
(0.141495 0.00112114 0)
(0.140714 0.00109913 0)
(0.139937 0.0010778 0)
(0.139172 0.00105692 0)
(0.138411 0.0010367 0)
(0.137663 0.00101689 0)
(0.136917 0.000997717 0)
(0.136184 0.000978901 0)
(0.135453 0.000960715 0)
(0.134736 0.000942837 0)
(0.134019 0.000925582 0)
(0.133317 0.000908585 0)
(0.132614 0.000892208 0)
(0.131927 0.000876038 0)
(0.131238 0.000860491 0)
(0.130566 0.000845099 0)
(0.129889 0.000830338 0)
(0.129232 0.000815677 0)
(0.128568 0.000801659 0)
(0.127925 0.000787686 0)
(0.127272 0.000774375 0)
(0.126644 0.000761048 0)
(0.126002 0.000748408 0)
(0.125388 0.00073569 0)
(0.124757 0.000723691 0)
(0.124158 0.000711544 0)
(0.123536 0.000700157 0)
(0.122951 0.00068855 0)
(0.122338 0.000677749 0)
(0.121767 0.000666649 0)
(0.121162 0.000656412 0)
(0.120606 0.000645792 0)
(0.120008 0.000636098 0)
(0.119466 0.000625931 0)
(0.118874 0.000616763 0)
(0.118348 0.000607025 0)
(0.117761 0.000598367 0)
(0.117251 0.000589039 0)
(0.116666 0.000580878 0)
(0.116174 0.000571941 0)
(0.11559 0.000564267 0)
(0.115116 0.000555708 0)
(0.114531 0.000548509 0)
(0.114077 0.000540322 0)
(0.113488 0.000533588 0)
(0.113056 0.000525772 0)
(0.11246 0.000519493 0)
(0.112053 0.000512057 0)
(0.111447 0.000506221 0)
(0.111067 0.000499188 0)
(0.110447 0.000493779 0)
(0.110098 0.00048719 0)
(0.109457 0.000482189 0)
(0.109146 0.000476105 0)
(0.108478 0.000471501 0)
(0.108209 0.000466002 0)
(0.107506 0.000461825 0)
(0.107289 0.000456992 0)
(0.106539 0.000453432 0)
(0.106384 0.000449345 0)
(0.105576 0.000447208 0)
(0.105494 0.000444313 0)
(0.104614 0.000446408 0)
(0.194195 0.00741393 0)
(0.194557 0.00836315 0)
(0.19517 0.00925417 0)
(0.196056 0.00995334 0)
(0.197136 0.0103523 0)
(0.198265 0.0104425 0)
(0.199305 0.0102941 0)
(0.200182 0.00999188 0)
(0.200877 0.00959924 0)
(0.201407 0.00915885 0)
(0.201793 0.00870435 0)
(0.202059 0.00826434 0)
(0.202229 0.00785907 0)
(0.202327 0.00749762 0)
(0.202374 0.00717967 0)
(0.202385 0.00689988 0)
(0.202371 0.00665155 0)
(0.202334 0.00642859 0)
(0.202278 0.00622607 0)
(0.202202 0.00604016 0)
(0.202105 0.00586795 0)
(0.201987 0.00570724 0)
(0.201848 0.00555637 0)
(0.201687 0.00541406 0)
(0.201505 0.00527932 0)
(0.2013 0.00515135 0)
(0.201072 0.00502948 0)
(0.200823 0.00491311 0)
(0.20055 0.00480172 0)
(0.200255 0.00469483 0)
(0.199938 0.00459202 0)
(0.199598 0.00449292 0)
(0.199237 0.00439719 0)
(0.198853 0.00430455 0)
(0.198447 0.00421474 0)
(0.198021 0.00412754 0)
(0.197573 0.00404274 0)
(0.197105 0.0039602 0)
(0.196618 0.00387976 0)
(0.19611 0.0038013 0)
(0.195584 0.0037247 0)
(0.19504 0.00364988 0)
(0.194478 0.00357675 0)
(0.193899 0.00350524 0)
(0.193305 0.00343527 0)
(0.192694 0.00336682 0)
(0.192069 0.00329981 0)
(0.191429 0.00323421 0)
(0.190777 0.00316997 0)
(0.190111 0.00310706 0)
(0.189434 0.00304545 0)
(0.188746 0.00298512 0)
(0.188047 0.00292602 0)
(0.187338 0.00286815 0)
(0.18662 0.00281146 0)
(0.185894 0.00275596 0)
(0.185161 0.00270159 0)
(0.184419 0.00264837 0)
(0.183672 0.00259625 0)
(0.182919 0.00254523 0)
(0.182161 0.00249528 0)
(0.181398 0.0024464 0)
(0.180631 0.00239854 0)
(0.17986 0.00235172 0)
(0.179087 0.00230589 0)
(0.17831 0.00226107 0)
(0.177532 0.0022172 0)
(0.176752 0.0021743 0)
(0.175971 0.00213232 0)
(0.175189 0.00209128 0)
(0.174408 0.00205112 0)
(0.173625 0.00201188 0)
(0.172844 0.00197348 0)
(0.172062 0.00193596 0)
(0.171283 0.00189924 0)
(0.170503 0.00186338 0)
(0.169727 0.00182829 0)
(0.168951 0.00179402 0)
(0.168179 0.00176049 0)
(0.167407 0.00172775 0)
(0.16664 0.00169571 0)
(0.165873 0.00166444 0)
(0.165112 0.00163382 0)
(0.164351 0.00160395 0)
(0.163596 0.0015747 0)
(0.162842 0.00154618 0)
(0.162095 0.00151823 0)
(0.161347 0.00149099 0)
(0.160608 0.00146429 0)
(0.159867 0.00143828 0)
(0.159136 0.00141277 0)
(0.158403 0.00138792 0)
(0.157681 0.00136355 0)
(0.156956 0.00133982 0)
(0.156243 0.00131652 0)
(0.155526 0.00129386 0)
(0.154823 0.00127159 0)
(0.154114 0.00124994 0)
(0.153421 0.00122866 0)
(0.15272 0.00120798 0)
(0.152037 0.00118763 0)
(0.151344 0.00116787 0)
(0.150671 0.00114841 0)
(0.149986 0.00112953 0)
(0.149323 0.00111092 0)
(0.148646 0.00109288 0)
(0.147995 0.00107507 0)
(0.147325 0.00105783 0)
(0.146684 0.0010408 0)
(0.146021 0.00102432 0)
(0.145393 0.00100803 0)
(0.144736 0.000992281 0)
(0.144119 0.000976695 0)
(0.143469 0.00096164 0)
(0.142864 0.000946731 0)
(0.142219 0.00093234 0)
(0.141628 0.000918082 0)
(0.140987 0.000904325 0)
(0.140409 0.000890696 0)
(0.139771 0.000877545 0)
(0.139207 0.000864527 0)
(0.138572 0.000851953 0)
(0.138023 0.000839532 0)
(0.137389 0.000827508 0)
(0.136857 0.000815675 0)
(0.136222 0.000804174 0)
(0.135707 0.000792926 0)
(0.13507 0.00078192 0)
(0.134574 0.000771261 0)
(0.133933 0.000760721 0)
(0.133458 0.000750665 0)
(0.132809 0.00074056 0)
(0.132357 0.00073113 0)
(0.131698 0.000721426 0)
(0.131273 0.000712658 0)
(0.130599 0.00070332 0)
(0.130204 0.000695265 0)
(0.129511 0.000686256 0)
(0.129151 0.000678979 0)
(0.128433 0.000670273 0)
(0.128113 0.000663848 0)
(0.127363 0.000655445 0)
(0.12709 0.000649945 0)
(0.1263 0.00064192 0)
(0.126081 0.000637396 0)
(0.125243 0.000630018 0)
(0.125087 0.000626525 0)
(0.124188 0.000620597 0)
(0.124106 0.000618504 0)
(0.123136 0.000615944 0)
(0.194805 0.00714381 0)
(0.195146 0.00793986 0)
(0.19568 0.00868207 0)
(0.196416 0.00928406 0)
(0.197306 0.00966638 0)
(0.198257 0.00980382 0)
(0.199164 0.0097317 0)
(0.199957 0.00951262 0)
(0.200607 0.00920365 0)
(0.201119 0.00884558 0)
(0.201511 0.00846751 0)
(0.201801 0.00809233 0)
(0.20201 0.00773744 0)
(0.202157 0.00741305 0)
(0.202258 0.00712206 0)
(0.202328 0.0068623 0)
(0.202377 0.00662943 0)
(0.202409 0.00641891 0)
(0.202428 0.0062269 0)
(0.202436 0.00605039 0)
(0.202432 0.00588703 0)
(0.202417 0.00573499 0)
(0.202392 0.0055928 0)
(0.202355 0.00545931 0)
(0.202309 0.00533354 0)
(0.202251 0.00521471 0)
(0.202182 0.00510213 0)
(0.202102 0.0049952 0)
(0.202011 0.00489339 0)
(0.201908 0.00479621 0)
(0.201793 0.00470322 0)
(0.201666 0.00461403 0)
(0.201527 0.00452828 0)
(0.201375 0.00444565 0)
(0.201211 0.00436587 0)
(0.201033 0.00428869 0)
(0.200842 0.00421388 0)
(0.200638 0.00414124 0)
(0.20042 0.0040706 0)
(0.200189 0.00400181 0)
(0.199944 0.00393472 0)
(0.199685 0.00386922 0)
(0.199413 0.0038052 0)
(0.199127 0.00374257 0)
(0.198827 0.00368123 0)
(0.198514 0.00362113 0)
(0.198188 0.00356218 0)
(0.197848 0.00350434 0)
(0.197495 0.00344754 0)
(0.197129 0.00339175 0)
(0.196751 0.00333692 0)
(0.196359 0.00328302 0)
(0.195956 0.00323002 0)
(0.195541 0.00317788 0)
(0.195115 0.00312659 0)
(0.194676 0.00307612 0)
(0.194228 0.00302645 0)
(0.193767 0.00297757 0)
(0.193298 0.00292945 0)
(0.192817 0.00288209 0)
(0.192328 0.00283547 0)
(0.191828 0.00278959 0)
(0.191321 0.00274442 0)
(0.190804 0.00269998 0)
(0.190279 0.00265622 0)
(0.189746 0.00261318 0)
(0.189207 0.00257081 0)
(0.188659 0.00252914 0)
(0.188105 0.00248813 0)
(0.187544 0.0024478 0)
(0.186979 0.00240812 0)
(0.186406 0.00236911 0)
(0.185829 0.00233073 0)
(0.185245 0.00229302 0)
(0.184659 0.00225592 0)
(0.184066 0.00221947 0)
(0.183472 0.00218362 0)
(0.182871 0.00214841 0)
(0.18227 0.0021138 0)
(0.181662 0.0020798 0)
(0.181055 0.00204639 0)
(0.180441 0.00201358 0)
(0.179829 0.00198133 0)
(0.179211 0.00194969 0)
(0.178595 0.00191859 0)
(0.177973 0.00188807 0)
(0.177355 0.00185808 0)
(0.17673 0.00182866 0)
(0.17611 0.00179976 0)
(0.175483 0.0017714 0)
(0.174862 0.00174356 0)
(0.174233 0.00171624 0)
(0.173613 0.00168942 0)
(0.172983 0.0016631 0)
(0.172364 0.00163727 0)
(0.171733 0.00161193 0)
(0.171116 0.00158707 0)
(0.170486 0.00156266 0)
(0.169871 0.00153873 0)
(0.169241 0.00151523 0)
(0.168629 0.00149221 0)
(0.168 0.00146958 0)
(0.167392 0.00144743 0)
(0.166763 0.00142565 0)
(0.16616 0.00140435 0)
(0.165533 0.00138338 0)
(0.164935 0.00136291 0)
(0.164308 0.00134271 0)
(0.163716 0.00132304 0)
(0.16309 0.00130359 0)
(0.162506 0.0012847 0)
(0.16188 0.00126596 0)
(0.161303 0.00124784 0)
(0.160678 0.00122978 0)
(0.160109 0.00121241 0)
(0.159483 0.00119499 0)
(0.158924 0.00117836 0)
(0.158297 0.00116156 0)
(0.157748 0.00114565 0)
(0.15712 0.00112944 0)
(0.156582 0.00111426 0)
(0.155951 0.00109859 0)
(0.155426 0.00108414 0)
(0.154792 0.00106899 0)
(0.15428 0.00105526 0)
(0.15364 0.00104059 0)
(0.153145 0.00102762 0)