/*--------------------------------*- C++ -*----------------------------------*\
| =========                 |                                                 |
| \\      /  F ield         | OpenFOAM: The Open Source CFD Toolbox           |
|  \\    /   O peration     | Version:  2.3.0                                 |
|   \\  /    A nd           | Web:      www.OpenFOAM.org                      |
|    \\/     M anipulation  |                                                 |
\*---------------------------------------------------------------------------*/
FoamFile
{
    version     2.0;
    format      ascii;
    class       surfaceScalarField;
    location    "0.4";
    object      phi;
}
// * * * * * * * * * * * * * * * * * * * * * * * * * * * * * * * * * * * * * //

dimensions      [0 3 -1 0 0 0 0];

internalField   nonuniform List<scalar> 
5273
(
3.15604e-08
3.0246e-09
2.8664e-08
2.89644e-09
2.60225e-08
2.64145e-09
2.35248e-08
2.49778e-09
2.11884e-08
2.33635e-09
1.90462e-08
2.14223e-09
1.71141e-08
1.93206e-09
1.53961e-08
1.71797e-09
1.38891e-08
1.50702e-09
1.25843e-08
1.30481e-09
1.14681e-08
1.11619e-09
1.05232e-08
9.44891e-10
9.73e-09
7.93246e-10
9.06777e-09
6.62226e-10
8.5162e-09
5.5157e-10
8.05618e-09
4.60021e-10
7.67055e-09
3.85627e-10
7.3445e-09
3.26051e-10
7.06565e-09
2.78847e-10
6.82398e-09
2.41671e-10
6.61157e-09
2.12417e-10
6.42228e-09
1.8929e-10
6.25146e-09
1.7082e-10
6.09561e-09
1.55848e-10
5.95212e-09
1.43486e-10
5.81905e-09
1.33073e-10
5.69492e-09
1.24128e-10
5.57862e-09
1.16303e-10
5.46926e-09
1.09355e-10
5.36615e-09
1.03111e-10
5.2687e-09
9.74476e-11
5.17643e-09
9.22773e-11
5.08889e-09
8.75349e-11
5.00572e-09
8.31703e-11
4.92658e-09
7.91434e-11
4.85116e-09
7.54211e-11
4.77918e-09
7.19746e-11
4.7104e-09
6.87787e-11
4.64459e-09
6.58109e-11
4.58154e-09
6.30505e-11
4.52106e-09
6.04788e-11
4.46298e-09
5.80792e-11
4.40715e-09
5.58361e-11
4.35341e-09
5.37356e-11
4.30165e-09
5.1765e-11
4.25174e-09
4.99129e-11
4.20357e-09
4.81688e-11
4.15704e-09
4.65234e-11
4.11208e-09
4.49681e-11
4.06858e-09
4.34952e-11
4.02648e-09
4.20976e-11
3.98571e-09
4.07691e-11
3.94621e-09
3.95036e-11
3.90791e-09
3.82958e-11
3.87077e-09
3.71409e-11
3.83474e-09
3.60342e-11
3.79977e-09
3.49716e-11
3.76582e-09
3.39492e-11
3.73285e-09
3.29633e-11
3.70084e-09
3.20106e-11
3.66976e-09
3.10879e-11
3.63956e-09
3.01922e-11
3.61024e-09
2.93206e-11
3.58177e-09
2.84705e-11
3.55413e-09
2.76394e-11
3.52731e-09
2.68248e-11
3.50128e-09
2.60243e-11
3.47605e-09
2.52359e-11
3.45159e-09
2.44574e-11
3.4279e-09
2.36867e-11
3.40498e-09
2.29219e-11
3.38282e-09
2.21613e-11
3.36142e-09
2.14029e-11
3.34077e-09
2.06454e-11
3.32089e-09
1.9887e-11
3.30176e-09
1.91264e-11
3.2834e-09
1.83618e-11
3.26581e-09
1.75919e-11
3.24899e-09
1.68146e-11
3.23296e-09
1.60281e-11
3.21773e-09
1.52302e-11
3.20331e-09
1.44185e-11
3.18972e-09
1.3591e-11
3.17698e-09
1.27462e-11
3.16509e-09
1.18836e-11
3.15409e-09
1.10047e-11
3.14398e-09
1.01129e-11
3.13476e-09
9.21446e-12
3.12644e-09
8.31831e-12
3.11901e-09
7.43636e-12
3.11242e-09
6.5825e-12
3.10665e-09
5.77221e-12
3.10163e-09
5.02164e-12
3.09728e-09
4.34677e-12
3.09352e-09
3.76343e-12
3.09023e-09
3.28856e-12
3.08728e-09
2.94918e-12
3.08449e-09
2.79549e-12
3.08158e-09
2.90766e-12
9.98592e-12
3.64392e-08
2.45548e-09
3.61717e-08
3.16392e-09
3.55862e-08
3.22694e-09
3.48047e-08
3.27922e-09
3.38657e-08
3.27541e-09
3.28248e-08
3.18316e-09
3.17294e-08
3.02744e-09
3.06139e-08
2.83349e-09
2.95039e-08
2.61694e-09
2.84193e-08
2.38947e-09
2.73742e-08
2.16127e-09
2.63783e-08
1.9408e-09
2.54372e-08
1.73431e-09
2.45536e-08
1.54584e-09
2.37277e-08
1.37744e-09
2.29583e-08
1.22952e-09
2.22426e-08
1.10124e-09
2.15777e-08
9.90951e-10
2.096e-08
8.9658e-10
2.03858e-08
8.15905e-10
1.98514e-08
7.4678e-10
1.93534e-08
6.87256e-10
1.88886e-08
6.35648e-10
1.84539e-08
5.90543e-10
1.80466e-08
5.50789e-10
1.76642e-08
5.15464e-10
1.73045e-08
4.83835e-10
1.69655e-08
4.55325e-10
1.66454e-08
4.29481e-10
1.63425e-08
4.0594e-10
1.60556e-08
3.84412e-10
1.57832e-08
3.64661e-10
1.55242e-08
3.4649e-10
1.52777e-08
3.29733e-10
1.50426e-08
3.14248e-10
1.48181e-08
2.99911e-10
1.46034e-08
2.86613e-10
1.4398e-08
2.74257e-10
1.4201e-08
2.62757e-10
1.4012e-08
2.52036e-10
1.38305e-08
2.42024e-10
1.36559e-08
2.32657e-10
1.34879e-08
2.2388e-10
1.3326e-08
2.15642e-10
1.31698e-08
2.07895e-10
1.30191e-08
2.00598e-10
1.28736e-08
1.93713e-10
1.27329e-08
1.87206e-10
1.25968e-08
1.81044e-10
1.24651e-08
1.75199e-10
1.23376e-08
1.69646e-10
1.2214e-08
1.64359e-10
1.20942e-08
1.59317e-10
1.1978e-08
1.54499e-10
1.18652e-08
1.49886e-10
1.17558e-08
1.45461e-10
1.16496e-08
1.41208e-10
1.15464e-08
1.37111e-10
1.14462e-08
1.33156e-10
1.13489e-08
1.2933e-10
1.12544e-08
1.25619e-10
1.11626e-08
1.22011e-10
1.10734e-08
1.18496e-10
1.09868e-08
1.15061e-10
1.09027e-08
1.11697e-10
1.08212e-08
1.08393e-10
1.0742e-08
1.0514e-10
1.06654e-08
1.01929e-10
1.05911e-08
9.87496e-11
1.05192e-08
9.55943e-11
1.04496e-08
9.24547e-11
1.03825e-08
8.93229e-11
1.03177e-08
8.61915e-11
1.02553e-08
8.30536e-11
1.01952e-08
7.99024e-11
1.01376e-08
7.67319e-11
1.00825e-08
7.35357e-11
1.00297e-08
7.03082e-11
9.97952e-09
6.70435e-11
9.93181e-09
6.37361e-11
9.88666e-09
6.03812e-11
9.8441e-09
5.6975e-11
9.80418e-09
5.35162e-11
9.76692e-09
5.00068e-11
9.73235e-09
4.64539e-11
9.70048e-09
4.2871e-11
9.67131e-09
3.92794e-11
9.64482e-09
3.57086e-11
9.62094e-09
3.21958e-11
9.59959e-09
2.87857e-11
9.58065e-09
2.55277e-11
9.56395e-09
2.24731e-11
9.5493e-09
1.96731e-11
9.53647e-09
1.71753e-11
9.52521e-09
1.5024e-11
9.51523e-09
1.32652e-11
9.50621e-09
1.19695e-11
9.4977e-09
1.13022e-11
9.48816e-09
1.24472e-11
2.42683e-11
3.78827e-08
1.77558e-09
3.83056e-08
2.74105e-09
3.84799e-08
3.05258e-09
3.85167e-08
3.24246e-09
3.84221e-08
3.37e-09
3.82036e-08
3.40163e-09
3.78814e-08
3.3497e-09
3.74758e-08
3.2391e-09
3.70049e-08
3.08779e-09
3.64852e-08
2.90914e-09
3.59314e-08
2.71511e-09
3.5356e-08
2.51622e-09
3.47693e-08
2.32094e-09
3.41797e-08
2.13544e-09
3.35935e-08
1.9637e-09
3.30152e-08
1.80779e-09
3.24482e-08
1.66825e-09
3.18946e-08
1.54453e-09
3.13558e-08
1.43538e-09
3.08325e-08
1.33919e-09
3.03251e-08
1.25424e-09
2.98335e-08
1.17886e-09
2.93576e-08
1.11156e-09
2.8897e-08
1.05105e-09
2.84516e-08
9.96248e-10
2.80208e-08
9.4627e-10
2.76042e-08
9.00412e-10
2.72014e-08
8.5811e-10
2.6812e-08
8.18919e-10
2.64354e-08
7.82479e-10
2.60714e-08
7.48501e-10
2.57193e-08
7.16746e-10
2.53787e-08
6.87015e-10
2.50493e-08
6.59136e-10
2.47306e-08
6.32961e-10
2.44222e-08
6.08358e-10
2.41236e-08
5.85208e-10
2.38344e-08
5.63403e-10
2.35544e-08
5.42845e-10
2.32829e-08
5.23443e-10
2.30199e-08
5.05114e-10
2.27647e-08
4.8778e-10
2.25172e-08
4.71371e-10
2.22771e-08
4.55819e-10
2.20439e-08
4.41064e-10
2.18174e-08
4.27048e-10
2.15974e-08
4.13718e-10
2.13836e-08
4.01025e-10
2.11757e-08
3.88923e-10
2.09736e-08
3.77368e-10
2.07769e-08
3.66321e-10
2.05855e-08
3.55743e-10
2.03992e-08
3.45601e-10
2.02179e-08
3.35859e-10
2.00413e-08
3.26486e-10
1.98693e-08
3.17454e-10
1.97018e-08
3.08733e-10
1.95386e-08
3.00297e-10
1.93796e-08
2.92119e-10
1.92248e-08
2.84176e-10
1.90739e-08
2.76443e-10
1.89271e-08
2.68898e-10
1.8784e-08
2.61518e-10
1.86448e-08
2.54282e-10
1.85093e-08
2.47169e-10
1.83776e-08
2.4016e-10
1.82495e-08
2.33233e-10
1.8125e-08
2.26371e-10
1.80042e-08
2.19555e-10
1.78871e-08
2.12767e-10
1.77735e-08
2.05988e-10
1.76636e-08
1.99203e-10
1.75574e-08
1.92396e-10
1.74549e-08
1.85551e-10
1.73562e-08
1.78654e-10
1.72612e-08
1.71692e-10
1.71701e-08
1.64651e-10
1.70829e-08
1.57521e-10
1.69997e-08
1.50291e-10
1.69204e-08
1.42953e-10
1.68453e-08
1.35499e-10
1.67744e-08
1.2793e-10
1.67076e-08
1.20248e-10
1.66452e-08
1.12467e-10
1.6587e-08
1.0461e-10
1.65332e-08
9.67136e-11
1.64836e-08
8.88283e-11
1.64383e-08
8.10203e-11
1.63971e-08
7.33693e-11
1.636e-08
6.59667e-11
1.63266e-08
5.89109e-11
1.62967e-08
5.23022e-11
1.62702e-08
4.62375e-11
1.62466e-08
4.08056e-11
1.62255e-08
3.60868e-11
1.62066e-08
3.21631e-11
1.61894e-08
2.916e-11
1.61733e-08
2.74354e-11
1.61567e-08
2.90083e-11
4.19861e-11
3.90452e-08
1.31546e-09
3.95339e-08
2.25232e-09
3.98916e-08
2.69487e-09
4.0177e-08
2.95709e-09
4.03998e-08
3.14718e-09
4.05487e-08
3.25276e-09
4.06223e-08
3.27605e-09
4.06255e-08
3.23596e-09
4.0564e-08
3.14924e-09
4.04447e-08
3.02842e-09
4.02753e-08
2.88457e-09
4.00636e-08
2.72786e-09
3.98176e-08
2.56699e-09
3.95443e-08
2.40872e-09
3.92501e-08
2.25788e-09
3.89404e-08
2.1175e-09
3.86196e-08
1.98911e-09
3.8291e-08
1.87304e-09
3.79576e-08
1.76884e-09
3.76212e-08
1.67554e-09
3.72836e-08
1.59191e-09
3.69457e-08
1.51668e-09
3.66087e-08
1.44864e-09
3.6273e-08
1.38668e-09
3.59394e-08
1.32988e-09
3.56082e-08
1.27745e-09
3.52799e-08
1.22875e-09
3.49547e-08
1.18329e-09
3.4633e-08
1.14065e-09
3.43149e-08
1.10051e-09
3.40008e-08
1.06262e-09
3.36908e-08
1.02676e-09
3.3385e-08
9.92773e-10
3.30837e-08
9.60506e-10
3.27868e-08
9.29834e-10
3.24945e-08
9.00651e-10
3.22069e-08
8.72856e-10
3.19239e-08
8.46363e-10
3.16457e-08
8.21089e-10
3.13721e-08
7.96961e-10
3.11033e-08
7.73907e-10
3.08393e-08
7.51862e-10
3.05799e-08
7.30766e-10
3.03251e-08
7.1056e-10
3.0075e-08
6.91191e-10
2.98294e-08
6.72606e-10
2.95884e-08
6.54759e-10
2.93518e-08
6.37601e-10
2.91197e-08
6.21091e-10
2.88918e-08
6.05186e-10
2.86683e-08
5.89847e-10
2.8449e-08
5.75035e-10
2.82339e-08
5.60715e-10
2.80229e-08
5.4685e-10
2.7816e-08
5.33408e-10
2.76131e-08
5.20354e-10
2.74142e-08
5.07658e-10
2.72192e-08
4.95287e-10
2.70281e-08
4.83212e-10
2.68409e-08
4.71402e-10
2.66575e-08
4.59828e-10
2.64779e-08
4.4846e-10
2.63022e-08
4.3727e-10
2.61302e-08
4.2623e-10
2.59621e-08
4.1531e-10
2.57977e-08
4.04484e-10
2.56373e-08
3.93723e-10
2.54806e-08
3.82999e-10
2.53279e-08
3.72286e-10
2.51791e-08
3.61557e-10
2.50343e-08
3.50785e-10
2.48936e-08
3.39946e-10
2.47569e-08
3.29013e-10
2.46245e-08
3.17965e-10
2.44964e-08
3.06778e-10
2.43727e-08
2.95432e-10
2.42534e-08
2.83906e-10
2.41387e-08
2.72185e-10
2.40288e-08
2.60254e-10
2.39236e-08
2.48102e-10
2.38234e-08
2.35725e-10
2.37282e-08
2.23126e-10
2.36381e-08
2.10321e-10
2.35533e-08
1.97336e-10
2.34737e-08
1.84218e-10
2.33993e-08
1.71033e-10
2.33303e-08
1.57867e-10
2.32665e-08
1.4483e-10
2.32078e-08
1.32051e-10
2.31541e-08
1.19673e-10
2.31052e-08
1.0785e-10
2.30607e-08
9.67357e-11
2.30205e-08
8.6478e-11
2.29841e-08
7.7212e-11
2.29511e-08
6.90587e-11
2.29211e-08
6.21397e-11
2.28937e-08
5.66394e-11
2.2868e-08
5.30778e-11
2.28434e-08
5.36417e-11
6.44321e-11
4.03208e-08
1.01333e-09
4.07301e-08
1.84309e-09
4.10905e-08
2.33443e-09
4.14117e-08
2.63586e-09
4.17071e-08
2.85182e-09
4.19672e-08
2.99262e-09
4.21844e-08
3.05885e-09
4.23566e-08
3.06381e-09
4.24836e-08
3.02222e-09
4.25665e-08
2.94555e-09
4.26075e-08
2.84355e-09
4.26101e-08
2.72523e-09
4.25786e-08
2.59855e-09
4.25173e-08
2.46999e-09
4.24307e-08
2.34442e-09
4.2323e-08
2.22521e-09
4.21978e-08
2.11433e-09
4.20582e-08
2.01269e-09
4.19066e-08
1.92038e-09
4.17452e-08
1.83691e-09
4.15756e-08
1.76151e-09
4.13991e-08
1.69324e-09
4.12166e-08
1.63115e-09
4.10289e-08
1.57435e-09
4.08367e-08
1.52204e-09
4.06406e-08
1.47355e-09
4.04411e-08
1.42832e-09
4.02385e-08
1.38588e-09
4.00333e-08
1.34587e-09
3.98258e-08
1.30801e-09
3.96163e-08
1.27205e-09
3.94053e-08
1.23781e-09
3.91929e-08
1.20514e-09
3.89795e-08
1.17391e-09
3.87653e-08
1.144e-09
3.85507e-08
1.11534e-09
3.83357e-08
1.08784e-09
3.81206e-08
1.06142e-09
3.79057e-08
1.03602e-09
3.76911e-08
1.01158e-09
3.74769e-08
9.88044e-10
3.72634e-08
9.65355e-10
3.70507e-08
9.43467e-10
3.6839e-08
9.22332e-10
3.66282e-08
9.01906e-10
3.64187e-08
8.82148e-10
3.62104e-08
8.63016e-10
3.60036e-08
8.44473e-10
3.57982e-08
8.26483e-10
3.55944e-08
8.09008e-10
3.53922e-08
7.92016e-10
3.51918e-08
7.75473e-10
3.49931e-08
7.59345e-10
3.47964e-08
7.43602e-10
3.46016e-08
7.28212e-10
3.44088e-08
7.13143e-10
3.42181e-08
6.98365e-10
3.40295e-08
6.83847e-10
3.38432e-08
6.69558e-10
3.36591e-08
6.55467e-10
3.34774e-08
6.41543e-10
3.32981e-08
6.27756e-10
3.31213e-08
6.14072e-10
3.29471e-08
6.00461e-10
3.27755e-08
5.86889e-10
3.26066e-08
5.73325e-10
3.24406e-08
5.59735e-10
3.22775e-08
5.46086e-10
3.21175e-08
5.32344e-10
3.19606e-08
5.18477e-10
3.18069e-08
5.04451e-10
3.16566e-08
4.90233e-10
3.15098e-08
4.75793e-10
3.13667e-08
4.61099e-10
3.12274e-08
4.46122e-10
3.10919e-08
4.30835e-10
3.09606e-08
4.15213e-10
3.08336e-08
3.99235e-10
3.0711e-08
3.82884e-10
3.05929e-08
3.6615e-10
3.04796e-08
3.49032e-10
3.03712e-08
3.3154e-10
3.02678e-08
3.13702e-10
3.01696e-08
2.95563e-10
3.00766e-08
2.77194e-10
2.9989e-08
2.5869e-10
2.99066e-08
2.40176e-10
2.98297e-08
2.21805e-10
2.9758e-08
2.03752e-10
2.96914e-08
1.86213e-10
2.96299e-08
1.69393e-10
2.95731e-08
1.53498e-10
2.95209e-08
1.38726e-10
2.94728e-08
1.25257e-10
2.94286e-08
1.13252e-10
2.93879e-08
1.02871e-10
2.93502e-08
9.43418e-11
2.93151e-08
8.82268e-11
2.92824e-08
8.63305e-11
9.19476e-11
4.1712e-08
8.06938e-10
4.20332e-08
1.52185e-09
4.2355e-08
2.01268e-09
4.2657e-08
2.3338e-09
4.29466e-08
2.56222e-09
4.3219e-08
2.72028e-09
4.34665e-08
2.81127e-09
4.36856e-08
2.84472e-09
4.38747e-08
2.83312e-09
4.40332e-08
2.78708e-09
4.41613e-08
2.71546e-09
4.42603e-08
2.62623e-09
4.43323e-08
2.52654e-09
4.43799e-08
2.42234e-09
4.44061e-08
2.3183e-09
4.44135e-08
2.21777e-09
4.44049e-08
2.12293e-09
4.43826e-08
2.03499e-09
4.43486e-08
1.95437e-09
4.43046e-08
1.88096e-09
4.42518e-08
1.81432e-09
4.41912e-08
1.75378e-09
4.41237e-08
1.69863e-09
4.40499e-08
1.64814e-09
4.39703e-08
1.60165e-09
4.38853e-08
1.55858e-09
4.37952e-08
1.51843e-09
4.37003e-08
1.48078e-09
4.36009e-08
1.44531e-09
4.34971e-08
1.41172e-09
4.33894e-08
1.37982e-09
4.32778e-08
1.34941e-09
4.31626e-08
1.32035e-09
4.3044e-08
1.29251e-09
4.29222e-08
1.26581e-09
4.27974e-08
1.24015e-09
4.26697e-08
1.21546e-09
4.25395e-08
1.19166e-09
4.24068e-08
1.16871e-09
4.22719e-08
1.14654e-09
4.21348e-08
1.1251e-09
4.19958e-08
1.10435e-09
4.1855e-08
1.08424e-09
4.17126e-08
1.06474e-09
4.15687e-08
1.04579e-09
4.14235e-08
1.02737e-09
4.12771e-08
1.00944e-09
4.11296e-08
9.91963e-10
4.09812e-08
9.74906e-10
4.08319e-08
9.58238e-10
4.0682e-08
9.41927e-10
4.05316e-08
9.25943e-10
4.03806e-08
9.10255e-10
4.02294e-08
8.94834e-10
4.0078e-08
8.79648e-10
3.99265e-08
8.64668e-10
3.9775e-08
8.49864e-10
3.96236e-08
8.35205e-10
3.94725e-08
8.2066e-10
3.93218e-08
8.06197e-10
3.91715e-08
7.91784e-10
3.90219e-08
7.77388e-10
3.8873e-08
7.62974e-10
3.87249e-08
7.48508e-10
3.85779e-08
7.33955e-10
3.84319e-08
7.19278e-10
3.82872e-08
7.04438e-10
3.81439e-08
6.894e-10
3.80021e-08
6.74123e-10
3.7862e-08
6.58569e-10
3.77238e-08
6.42699e-10
3.75875e-08
6.26475e-10
3.74535e-08
6.09859e-10
3.73218e-08
5.92813e-10
3.71926e-08
5.75303e-10
3.70661e-08
5.57296e-10
3.69426e-08
5.38763e-10
3.68221e-08
5.19679e-10
3.6705e-08
5.00025e-10
3.65913e-08
4.79794e-10
3.64814e-08
4.58987e-10
3.63753e-08
4.37622e-10
3.62733e-08
4.15739e-10
3.61754e-08
3.93401e-10
3.60819e-08
3.70698e-10
3.59929e-08
3.47756e-10
3.59083e-08
3.2473e-10
3.58283e-08
3.01811e-10
3.57528e-08
2.79214e-10
3.56819e-08
2.57178e-10
3.56153e-08
2.35953e-10
3.5553e-08
2.15788e-10
3.54948e-08
1.96924e-10
3.54405e-08
1.79579e-10
3.53898e-08
1.63948e-10
3.53425e-08
1.5022e-10
3.52982e-08
1.38633e-10
3.52567e-08
1.29663e-10
3.52187e-08
1.2439e-10
1.23022e-10
4.31956e-08
6.59086e-10
4.34465e-08
1.27088e-09
4.37241e-08
1.73513e-09
4.39971e-08
2.06082e-09
4.42638e-08
2.29554e-09
4.45209e-08
2.46318e-09
4.47621e-08
2.57004e-09
4.49834e-08
2.62344e-09
4.51828e-08
2.63366e-09
4.53596e-08
2.6103e-09
4.55136e-08
2.56151e-09
4.56453e-08
2.49448e-09
4.57562e-08
2.41566e-09
4.5848e-08
2.33056e-09
4.59228e-08
2.24354e-09
4.59826e-08
2.15791e-09
4.60296e-08
2.07591e-09
4.60657e-08
1.99894e-09
4.60924e-08
1.9277e-09
4.6111e-08
1.86234e-09
4.61226e-08
1.80268e-09
4.61281e-08
1.74829e-09
4.61281e-08
1.69866e-09
4.6123e-08
1.65322e-09
4.61132e-08
1.61143e-09
4.6099e-08
1.5728e-09
4.60805e-08
1.5369e-09
4.6058e-08
1.50335e-09
4.60314e-08
1.47184e-09
4.6001e-08
1.44212e-09
4.59669e-08
1.41396e-09
4.59291e-08
1.38721e-09
4.58877e-08
1.36172e-09
4.58428e-08
1.33737e-09
4.57946e-08
1.31405e-09
4.57431e-08
1.29168e-09
4.56883e-08
1.27019e-09
4.56305e-08
1.2495e-09
4.55697e-08
1.22956e-09
4.55059e-08
1.21031e-09
4.54393e-08
1.19171e-09
4.53699e-08
1.17369e-09
4.5298e-08
1.15623e-09
4.52234e-08
1.13927e-09
4.51464e-08
1.12279e-09
4.50671e-08
1.10673e-09
4.49854e-08
1.09107e-09
4.49016e-08
1.07578e-09
4.48157e-08
1.06081e-09
4.47278e-08
1.04613e-09
4.4638e-08
1.03172e-09
4.45464e-08
1.01754e-09
4.44531e-08
1.00357e-09
4.43582e-08
9.89761e-10
4.42617e-08
9.76093e-10
4.41639e-08
9.62532e-10
4.40647e-08
9.49047e-10
4.39643e-08
9.35605e-10
4.38628e-08
9.22172e-10
4.37603e-08
9.08716e-10
4.36568e-08
8.952e-10
4.35526e-08
8.81589e-10
4.34478e-08
8.67846e-10
4.33424e-08
8.53931e-10
4.32365e-08
8.39805e-10
4.31304e-08
8.25428e-10
4.3024e-08
8.10756e-10
4.29177e-08
7.95748e-10
4.28114e-08
7.80359e-10
4.27055e-08
7.64544e-10
4.25999e-08
7.4826e-10
4.24949e-08
7.3146e-10
4.23907e-08
7.14102e-10
4.22874e-08
6.96142e-10
4.21851e-08
6.7754e-10
4.20842e-08
6.58257e-10
4.19847e-08
6.38261e-10
4.18868e-08
6.17523e-10
4.17908e-08
5.96022e-10
4.16969e-08
5.73751e-10
4.16051e-08
5.50715e-10
4.15158e-08
5.26938e-10
4.14291e-08
5.02468e-10
4.13451e-08
4.7738e-10
4.1264e-08
4.51784e-10
4.1186e-08
4.25823e-10
4.1111e-08
3.99679e-10
4.10393e-08
3.73567e-10
4.09707e-08
3.47734e-10
4.09055e-08
3.22448e-10
4.08434e-08
2.97992e-10
4.07846e-08
2.74647e-10
4.07288e-08
2.52684e-10
4.0676e-08
2.32349e-10
4.06261e-08
2.13863e-10
4.05789e-08
1.97426e-10
4.05343e-08
1.83256e-10
4.04923e-08
1.71651e-10
4.04538e-08
1.62874e-10
1.54527e-10
4.47577e-08
5.48532e-10
4.49559e-08
1.07267e-09
4.51922e-08
1.49883e-09
4.54357e-08
1.81731e-09
4.56781e-08
2.05315e-09
4.59153e-08
2.22598e-09
4.61418e-08
2.34354e-09
4.63533e-08
2.41197e-09
4.65475e-08
2.43948e-09
4.67233e-08
2.43446e-09
4.68805e-08
2.40429e-09
4.70195e-08
2.35552e-09
4.71412e-08
2.29397e-09
4.72471e-08
2.22468e-09
4.73388e-08
2.15179e-09
4.74183e-08
2.07847e-09
4.74871e-08
2.00703e-09
4.75471e-08
1.93899e-09
4.75996e-08
1.87524e-09
4.76457e-08
1.81617e-09
4.76866e-08
1.76182e-09
4.77229e-08
1.71198e-09
4.77552e-08
1.66631e-09
4.7784e-08
1.62441e-09
4.78096e-08
1.58585e-09
4.78322e-08
1.55023e-09
4.78519e-08
1.51718e-09
4.78689e-08
1.48638e-09
4.78832e-08
1.45755e-09
4.78948e-08
1.43046e-09
4.79039e-08
1.40491e-09
4.79104e-08
1.38074e-09
4.79143e-08
1.3578e-09
4.79157e-08
1.33599e-09
4.79145e-08
1.31519e-09
4.79109e-08
1.29532e-09
4.79048e-08
1.27631e-09
4.78962e-08
1.25809e-09
4.78851e-08
1.24059e-09
4.78717e-08
1.22376e-09
4.78558e-08
1.20755e-09
4.78376e-08
1.19191e-09
4.78171e-08
1.17679e-09
4.77942e-08
1.16215e-09
4.7769e-08
1.14796e-09
4.77416e-08
1.13416e-09
4.77119e-08
1.12072e-09
4.76801e-08
1.10761e-09
4.76461e-08
1.09479e-09
4.761e-08
1.08223e-09
4.75718e-08
1.06989e-09
4.75317e-08
1.05774e-09
4.74895e-08
1.04574e-09
4.74454e-08
1.03386e-09
4.73994e-08
1.02208e-09
4.73516e-08
1.01034e-09
4.7302e-08
9.9863e-10
4.72507e-08
9.869e-10
4.71978e-08
9.75118e-10
4.71432e-08
9.63247e-10
4.70872e-08
9.51247e-10
4.70297e-08
9.3908e-10
4.69708e-08
9.26704e-10
4.69107e-08
9.14076e-10
4.68493e-08
9.01152e-10
4.67869e-08
8.87887e-10
4.67234e-08
8.74233e-10
4.6659e-08
8.60143e-10
4.65938e-08
8.45568e-10
4.65279e-08
8.30456e-10
4.64614e-08
8.14759e-10
4.63944e-08
7.98425e-10
4.63271e-08
7.81404e-10
4.62596e-08
7.63649e-10
4.6192e-08
7.45112e-10
4.61246e-08
7.25752e-10
4.60573e-08
7.05529e-10
4.59904e-08
6.84413e-10
4.5924e-08
6.62381e-10
4.58584e-08
6.39424e-10
4.57935e-08
6.15548e-10
4.57297e-08
5.90781e-10
4.5667e-08
5.65176e-10
4.56055e-08
5.38816e-10
4.55455e-08
5.11821e-10
4.5487e-08
4.84345e-10
4.54301e-08
4.56583e-10
4.53749e-08
4.28768e-10
4.53215e-08
4.0116e-10
4.52699e-08
3.74049e-10
4.52201e-08
3.47731e-10
4.51722e-08
3.22509e-10
4.51263e-08
2.9867e-10
4.50821e-08
2.76477e-10
4.50398e-08
2.56164e-10
4.49993e-08
2.37929e-10
4.49606e-08
2.21946e-10
4.4924e-08
2.08312e-10
4.48902e-08
1.96611e-10
1.82928e-10
4.63916e-08
4.6296e-10
4.65505e-08
9.13783e-10
4.67508e-08
1.29856e-09
4.69664e-08
1.60172e-09
4.71858e-08
1.83375e-09
4.74035e-08
2.00828e-09
4.76143e-08
2.13274e-09
4.78138e-08
2.21248e-09
4.79992e-08
2.25401e-09
4.81693e-08
2.26439e-09
4.83234e-08
2.25016e-09
4.84618e-08
2.21719e-09
4.8585e-08
2.17073e-09
4.86943e-08
2.11538e-09
4.87911e-08
2.05498e-09
4.8877e-08
1.9926e-09
4.89535e-08
1.93052e-09
4.90221e-08
1.87036e-09
4.90842e-08
1.81316e-09
4.91409e-08
1.75949e-09
4.91931e-08
1.70959e-09
4.92417e-08
1.66342e-09
4.92871e-08
1.62083e-09
4.933e-08
1.58155e-09
4.93706e-08
1.54527e-09
4.94091e-08
1.51169e-09
4.94458e-08
1.4805e-09
4.94807e-08
1.45144e-09
4.9514e-08
1.42428e-09
4.95457e-08
1.39879e-09
4.95758e-08
1.37482e-09
4.96043e-08
1.35221e-09
4.96313e-08
1.33082e-09
4.96567e-08
1.31055e-09
4.96806e-08
1.2913e-09
4.97029e-08
1.27299e-09
4.97237e-08
1.25554e-09
4.97429e-08
1.23888e-09
4.97605e-08
1.22296e-09
4.97766e-08
1.20772e-09
4.9791e-08
1.19311e-09
4.98039e-08
1.17907e-09
4.98151e-08
1.16556e-09
4.98247e-08
1.15254e-09
4.98327e-08
1.13997e-09
4.98391e-08
1.1278e-09
4.98438e-08
1.116e-09
4.98469e-08
1.10453e-09
4.98483e-08
1.09334e-09
4.98481e-08
1.08242e-09
4.98463e-08
1.07172e-09
4.98428e-08
1.0612e-09
4.98378e-08
1.05083e-09
4.9831e-08
1.04057e-09
4.98227e-08
1.0304e-09
4.98128e-08
1.02026e-09
4.98013e-08
1.01013e-09
4.97882e-08
9.9997e-10
4.97736e-08
9.89735e-10
4.97575e-08
9.79389e-10
4.97398e-08
9.68889e-10
4.97207e-08
9.58192e-10
4.97002e-08
9.47255e-10
4.96782e-08
9.36032e-10
4.96549e-08
9.24473e-10
4.96302e-08
9.12531e-10
4.96043e-08
9.00154e-10
4.95772e-08
8.87291e-10
4.95489e-08
8.73886e-10
4.95194e-08
8.59887e-10
4.9489e-08
8.45238e-10
4.94575e-08
8.29883e-10
4.94251e-08
8.1377e-10
4.93919e-08
7.96844e-10
4.9358e-08
7.79055e-10
4.93234e-08
7.60355e-10
4.92882e-08
7.40704e-10
4.92526e-08
7.20066e-10
4.92165e-08
6.98418e-10
4.91802e-08
6.75748e-10
4.91437e-08
6.52062e-10
4.91071e-08
6.27389e-10
4.90705e-08
6.01784e-10
4.9034e-08
5.75332e-10
4.89976e-08
5.48155e-10
4.89615e-08
5.20414e-10
4.89258e-08
4.92306e-10
4.88905e-08
4.64068e-10
4.88557e-08
4.35966e-10
4.88215e-08
4.08291e-10
4.87879e-08
3.81348e-10
4.87549e-08
3.55443e-10
4.87227e-08
3.30869e-10
4.86913e-08
3.07894e-10
4.86607e-08
2.86753e-10
4.8631e-08
2.67635e-10
4.86023e-08
2.50661e-10
4.85748e-08
2.35765e-10
4.85493e-08
2.22125e-10
2.05548e-10
4.80946e-08
3.94899e-10
4.82239e-08
7.84469e-10
4.83937e-08
1.12875e-09
4.85836e-08
1.41182e-09
4.87815e-08
1.63586e-09
4.89808e-08
1.80896e-09
4.91764e-08
1.93717e-09
4.93638e-08
2.02503e-09
4.95401e-08
2.07771e-09
4.97036e-08
2.10097e-09
4.98533e-08
2.10047e-09
4.99891e-08
2.08137e-09
5.01115e-08
2.04836e-09
5.02212e-08
2.0056e-09
5.03196e-08
1.95663e-09
5.04078e-08
1.90435e-09
5.04873e-08
1.85101e-09
5.05594e-08
1.79825e-09
5.06254e-08
1.74723e-09
5.06862e-08
1.69866e-09
5.07429e-08
1.65292e-09
5.07961e-08
1.61015e-09
5.08466e-08
1.57034e-09
5.08948e-08
1.53335e-09
5.09411e-08
1.49898e-09
5.09858e-08
1.46702e-09
5.1029e-08
1.43725e-09
5.1071e-08
1.40945e-09
5.11119e-08
1.38342e-09
5.11517e-08
1.35899e-09
5.11905e-08
1.33602e-09
5.12283e-08
1.31436e-09
5.12653e-08
1.2939e-09
5.13013e-08
1.27454e-09
5.13364e-08
1.25619e-09
5.13706e-08
1.23877e-09
5.14039e-08
1.22221e-09
5.14364e-08
1.20645e-09
5.14679e-08
1.19143e-09
5.14985e-08
1.1771e-09
5.15282e-08
1.16341e-09
5.1557e-08
1.1503e-09
5.15848e-08
1.13773e-09
5.16117e-08
1.12567e-09
5.16376e-08
1.11407e-09
5.16625e-08
1.10289e-09
5.16864e-08
1.09209e-09
5.17093e-08
1.08163e-09
5.17312e-08
1.07148e-09
5.1752e-08
1.0616e-09
5.17717e-08
1.05196e-09
5.17904e-08
1.04251e-09
5.1808e-08
1.03323e-09
5.18245e-08
1.02407e-09
5.18399e-08
1.015e-09
5.18542e-08
1.00599e-09
5.18673e-08
9.96988e-10
5.18794e-08
9.87963e-10
5.18902e-08
9.78873e-10
5.18999e-08
9.69676e-10
5.19085e-08
9.6033e-10
5.19159e-08
9.5079e-10
5.19221e-08
9.4101e-10
5.19272e-08
9.30942e-10
5.19312e-08
9.20537e-10
5.1934e-08
9.09743e-10
5.19356e-08
8.98507e-10
5.19361e-08
8.86774e-10
5.19355e-08
8.74488e-10
5.19338e-08
8.61594e-10
5.1931e-08
8.48032e-10
5.19271e-08
8.33746e-10
5.19222e-08
8.18678e-10
5.19163e-08
8.02773e-10
5.19094e-08
7.85977e-10
5.19015e-08
7.68242e-10
5.18927e-08
7.49522e-10
5.1883e-08
7.29782e-10
5.18724e-08
7.08997e-10
5.1861e-08
6.87152e-10
5.18488e-08
6.64256e-10
5.18358e-08
6.40334e-10
5.18222e-08
6.1544e-10
5.18079e-08
5.8966e-10
5.17929e-08
5.63114e-10
5.17774e-08
5.35959e-10
5.17613e-08
5.0839e-10
5.17447e-08
4.80638e-10
5.17277e-08
4.52965e-10
5.17103e-08
4.25655e-10
5.16927e-08
3.99009e-10
5.16748e-08
3.73325e-10
5.16568e-08
3.48892e-10
5.16387e-08
3.25976e-10
5.16206e-08
3.04803e-10
5.16027e-08
2.85547e-10
5.15851e-08
2.68286e-10
5.1568e-08
2.52858e-10
5.15518e-08
2.38333e-10
2.21179e-10
4.98663e-08
3.39591e-10
4.9973e-08
6.77719e-10
5.01175e-08
9.84281e-10
5.02843e-08
1.24507e-09
5.04621e-08
1.45799e-09
5.06441e-08
1.62695e-09
5.08251e-08
1.7562e-09
5.10008e-08
1.84939e-09
5.11679e-08
1.91056e-09
5.13245e-08
1.94435e-09
5.14695e-08
1.95549e-09
5.16024e-08
1.94847e-09
5.17234e-08
1.92741e-09
5.18329e-08
1.89604e-09
5.1932e-08
1.85758e-09
5.20216e-08
1.81473e-09
5.21029e-08
1.76966e-09
5.21772e-08
1.72401e-09
5.22454e-08
1.679e-09
5.23086e-08
1.63543e-09
5.23677e-08
1.59383e-09
5.24234e-08
1.55446e-09
5.24763e-08
1.51742e-09
5.2527e-08
1.4827e-09
5.25758e-08
1.45021e-09
5.2623e-08
1.41981e-09
5.26689e-08
1.39135e-09
5.27137e-08
1.36467e-09
5.27575e-08
1.33962e-09
5.28004e-08
1.31606e-09
5.28425e-08
1.29386e-09
5.2884e-08
1.27291e-09
5.29248e-08
1.25311e-09
5.29649e-08
1.23437e-09
5.30045e-08
1.21661e-09
5.30435e-08
1.19976e-09
5.3082e-08
1.18376e-09
5.31199e-08
1.16854e-09
5.31573e-08
1.15405e-09
5.31941e-08
1.14024e-09
5.32305e-08
1.12707e-09
5.32663e-08
1.11449e-09
5.33016e-08
1.10245e-09
5.33363e-08
1.09093e-09
5.33705e-08
1.07986e-09
5.34042e-08
1.06923e-09
5.34373e-08
1.05898e-09
5.34698e-08
1.0491e-09
5.35018e-08
1.03953e-09
5.35331e-08
1.03024e-09
5.35639e-08
1.0212e-09
5.3594e-08
1.01237e-09
5.36235e-08
1.00372e-09
5.36524e-08
9.95214e-10
5.36806e-08
9.8681e-10
5.37081e-08
9.78474e-10
5.37349e-08
9.70168e-10
5.3761e-08
9.61853e-10
5.37864e-08
9.53489e-10
5.3811e-08
9.45035e-10
5.38349e-08
9.36447e-10
5.3858e-08
9.27681e-10
5.38804e-08
9.18692e-10
5.39019e-08
9.0943e-10
5.39226e-08
8.99847e-10
5.39424e-08
8.89891e-10
5.39614e-08
8.79507e-10
5.39795e-08
8.68643e-10
5.39968e-08
8.57241e-10
5.40131e-08
8.45244e-10
5.40286e-08
8.32595e-10
5.40431e-08
8.19234e-10
5.40567e-08
8.05106e-10
5.40693e-08
7.90153e-10
5.40809e-08
7.74322e-10
5.40916e-08
7.57564e-10
5.41013e-08
7.39834e-10
5.411e-08
7.21096e-10
5.41177e-08
7.01324e-10
5.41243e-08
6.80505e-10
5.41299e-08
6.58645e-10
5.41345e-08
6.35771e-10
5.4138e-08
6.11933e-10
5.41404e-08
5.87214e-10
5.41418e-08
5.6173e-10
5.41421e-08
5.35631e-10
5.41414e-08
5.09104e-10
5.41397e-08
4.8237e-10
5.4137e-08
4.55678e-10
5.41333e-08
4.29302e-10
5.41288e-08
4.03526e-10
5.41235e-08
3.78638e-10
5.41175e-08
3.54914e-10
5.41109e-08
3.32609e-10
5.41037e-08
3.11937e-10
5.40962e-08
2.93058e-10
5.40885e-08
2.76022e-10
5.40807e-08
2.6064e-10
5.40729e-08
2.461e-10
2.2999e-10
5.17074e-08
2.93863e-10
5.17967e-08
5.88477e-10
5.19202e-08
8.60779e-10
5.20664e-08
1.09879e-09
5.22259e-08
1.29855e-09
5.23917e-08
1.46116e-09
5.25587e-08
1.58916e-09
5.27229e-08
1.68524e-09
5.28809e-08
1.7525e-09
5.30307e-08
1.79459e-09
5.31708e-08
1.81539e-09
5.33005e-08
1.81872e-09
5.34198e-08
1.80815e-09
5.35288e-08
1.78698e-09
5.36283e-08
1.7581e-09
5.3719e-08
1.724e-09
5.3802e-08
1.68673e-09
5.38781e-08
1.6479e-09
5.39483e-08
1.60874e-09
5.40137e-08
1.57013e-09
5.40748e-08
1.53268e-09
5.41325e-08
1.49676e-09
5.41873e-08
1.46258e-09
5.42398e-08
1.43022e-09
5.42904e-08
1.39969e-09
5.43392e-08
1.37091e-09
5.43868e-08
1.34382e-09
5.44331e-08
1.31829e-09
5.44785e-08
1.29423e-09
5.45231e-08
1.27153e-09
5.45668e-08
1.25009e-09
5.46099e-08
1.22981e-09
5.46524e-08
1.21061e-09
5.46944e-08
1.19241e-09
5.47359e-08
1.17515e-09
5.47769e-08
1.15876e-09
5.48174e-08
1.14319e-09
5.48576e-08
1.12838e-09
5.48974e-08
1.11427e-09
5.49368e-08
1.10084e-09
5.49758e-08
1.08802e-09
5.50145e-08
1.07579e-09
5.50529e-08
1.06409e-09
5.50909e-08
1.05289e-09
5.51286e-08
1.04216e-09
5.5166e-08
1.03185e-09
5.5203e-08
1.02194e-09
5.52398e-08
1.01238e-09
5.52761e-08
1.00314e-09
5.53122e-08
9.94195e-10
5.53479e-08
9.855e-10
5.53832e-08
9.77024e-10
5.54182e-08
9.68734e-10
5.54528e-08
9.60594e-10
5.54871e-08
9.52569e-10
5.55209e-08
9.44624e-10
5.55544e-08
9.36721e-10
5.55874e-08
9.28823e-10
5.562e-08
9.2089e-10
5.56522e-08
9.12883e-10
5.56838e-08
9.04759e-10
5.5715e-08
8.96475e-10
5.57458e-08
8.87986e-10
5.57759e-08
8.79245e-10
5.58056e-08
8.70204e-10
5.58347e-08
8.60812e-10
5.58632e-08
8.51017e-10
5.5891e-08
8.40767e-10
5.59183e-08
8.30005e-10
5.59448e-08
8.18676e-10
5.59707e-08
8.06725e-10
5.59958e-08
7.94093e-10
5.60202e-08
7.80726e-10
5.60438e-08
7.66569e-10
5.60666e-08
7.51569e-10
5.60884e-08
7.35679e-10
5.61094e-08
7.18857e-10
5.61294e-08
7.01067e-10
5.61485e-08
6.82284e-10
5.61665e-08
6.62498e-10
5.61834e-08
6.41714e-10
5.61992e-08
6.19957e-10
5.62139e-08
5.97277e-10
5.62274e-08
5.73754e-10
5.62396e-08
5.49497e-10
5.62506e-08
5.24648e-10
5.62603e-08
4.99383e-10
5.62688e-08
4.7391e-10
5.6276e-08
4.48463e-10
5.6282e-08
4.23299e-10
5.62868e-08
3.98686e-10
5.62906e-08
3.74893e-10
5.62933e-08
3.52181e-10
5.62951e-08
3.3079e-10
5.62961e-08
3.10922e-10
5.62965e-08
2.92721e-10
5.62963e-08
2.76229e-10
5.62956e-08
2.61288e-10
5.62944e-08
2.47316e-10
2.3304e-10
5.36195e-08
2.55521e-10
5.3695e-08
5.13044e-10
5.38011e-08
7.54618e-10
5.39295e-08
9.70414e-10
5.40721e-08
1.15591e-09
5.42228e-08
1.3105e-09
5.43766e-08
1.43535e-09
5.45296e-08
1.53224e-09
5.46787e-08
1.60345e-09
5.48215e-08
1.65179e-09
5.49565e-08
1.68038e-09
5.50828e-08
1.69238e-09
5.52001e-08
1.69086e-09
5.53084e-08
1.67868e-09
5.54081e-08
1.65843e-09
5.54997e-08
1.63235e-09
5.55841e-08
1.60236e-09
5.5662e-08
1.56999e-09
5.57343e-08
1.53648e-09
5.58017e-08
1.50274e-09
5.58649e-08
1.46942e-09
5.59247e-08
1.437e-09
5.59815e-08
1.40576e-09
5.60359e-08
1.37586e-09
5.60882e-08
1.34738e-09
5.61387e-08
1.32034e-09
5.61878e-08
1.29471e-09
5.62357e-08
1.27043e-09
5.62825e-08
1.24743e-09
5.63284e-08
1.22565e-09
5.63735e-08