/*--------------------------------*- C++ -*----------------------------------*\
| =========                 |                                                 |
| \\      /  F ield         | OpenFOAM: The Open Source CFD Toolbox           |
|  \\    /   O peration     | Version:  2.3.0                                 |
|   \\  /    A nd           | Web:      www.OpenFOAM.org                      |
|    \\/     M anipulation  |                                                 |
\*---------------------------------------------------------------------------*/
FoamFile
{
    version     2.0;
    format      ascii;
    class       volScalarField;
    location    "0.05";
    object      p;
}
// * * * * * * * * * * * * * * * * * * * * * * * * * * * * * * * * * * * * * //

dimensions      [0 2 -2 0 0 0 0];

internalField   nonuniform List<scalar> 
3375
(
0.00225636
0.00185757
0.00125024
0.000653363
0.000198344
-0.000192148
-0.000525789
-0.000737386
-0.000867273
-0.000942712
-0.000953659
-0.000931136
-0.000889785
-0.000835529
-0.000769629
-0.000681962
-0.000586217
-0.000498654
-0.000417898
-0.000354086
-0.0003075
-0.000271576
-0.000243273
-0.000220743
-0.000202333
-0.000186185
-0.000172297
-0.000159568
-0.00014797
-0.000137301
-0.000127443
-0.000118348
-0.000109966
-0.0001022
-9.49949e-05
-8.83174e-05
-8.2118e-05
-7.63503e-05
-7.09828e-05
-6.59855e-05
-6.13291e-05
-5.69894e-05
-5.29436e-05
-4.91707e-05
-4.56518e-05
-4.23703e-05
-3.931e-05
-3.64559e-05
-3.37948e-05
-3.13158e-05
-2.90064e-05
-2.68542e-05
-2.485e-05
-2.29843e-05
-2.12483e-05
-1.9633e-05
-1.81317e-05
-1.67372e-05
-1.54411e-05
-1.42374e-05
-1.31202e-05
-1.20837e-05
-1.11227e-05
-1.0232e-05
-9.40682e-06
-8.6427e-06
-7.93553e-06
-7.28149e-06
-6.67697e-06
-6.11853e-06
-5.60287e-06
-5.12693e-06
-4.68782e-06
-4.28286e-06
-3.90961e-06
-3.56578e-06
-3.24926e-06
-2.95803e-06
-2.69014e-06
-2.44385e-06
-2.21731e-06
-2.00907e-06
-1.81747e-06
-1.64123e-06
-1.47896e-06
-1.32941e-06
-1.19157e-06
-1.0641e-06
-9.46386e-07
-8.37035e-07
-7.35487e-07
-6.40702e-07
-5.51899e-07
-4.68288e-07
-3.88942e-07
-3.13431e-07
-2.40348e-07
-1.70271e-07
-1.01001e-07
-3.40467e-08
0.00181783
0.00157826
0.00115382
0.000645324
0.000221486
-0.000151242
-0.00047792
-0.000674763
-0.000806104
-0.000898714
-0.000917851
-0.000903932
-0.000872259
-0.000825394
-0.000763302
-0.000679523
-0.000589023
-0.000502434
-0.000419839
-0.000355355
-0.000309411
-0.000272489
-0.000243388
-0.000220656
-0.000202338
-0.000185983
-0.000172126
-0.000159457
-0.000147884
-0.000137221
-0.000127366
-0.000118273
-0.000109896
-0.000102133
-9.49297e-05
-8.82563e-05
-8.20607e-05
-7.6296e-05
-7.09318e-05
-6.59378e-05
-6.12844e-05
-5.69477e-05
-5.2905e-05
-4.91346e-05
-4.56185e-05
-4.23398e-05
-3.92821e-05
-3.64309e-05
-3.37722e-05
-3.12943e-05
-2.8986e-05
-2.68353e-05
-2.48326e-05
-2.29684e-05
-2.12338e-05
-1.96203e-05
-1.81202e-05
-1.67261e-05
-1.54307e-05
-1.42277e-05
-1.31112e-05
-1.20754e-05
-1.1115e-05
-1.02249e-05
-9.40027e-06
-8.63671e-06
-7.93006e-06
-7.27649e-06
-6.67241e-06
-6.11436e-06
-5.59907e-06
-5.12345e-06
-4.68465e-06
-4.27997e-06
-3.90698e-06
-3.56339e-06
-3.24709e-06
-2.95607e-06
-2.68836e-06
-2.44224e-06
-2.21585e-06
-2.00775e-06
-1.81628e-06
-1.64016e-06
-1.478e-06
-1.32854e-06
-1.1908e-06
-1.0634e-06
-9.45768e-07
-8.36483e-07
-7.34989e-07
-6.4028e-07
-5.51517e-07
-4.67953e-07
-3.8865e-07
-3.13177e-07
-2.40141e-07
-1.70003e-07
-1.00862e-07
-3.40701e-08
0.00158072
0.00142089
0.00106898
0.000648976
0.000272313
-8.47024e-05
-0.000405141
-0.000581075
-0.000698875
-0.000810336
-0.000845923
-0.000850774
-0.000829221
-0.000792631
-0.000737522
-0.000661525
-0.000580803
-0.000495125
-0.000418267
-0.00035649
-0.000308826
-0.000273079
-0.000244433
-0.000221254
-0.000202138
-0.000186106
-0.00017212
-0.000159349
-0.000147705
-0.000137045
-0.000127181
-0.000118096
-0.000109729
-0.00010197
-9.47746e-05
-8.81123e-05
-8.19253e-05
-7.61682e-05
-7.08126e-05
-6.58266e-05
-6.11805e-05
-5.68511e-05
-5.28153e-05
-4.90511e-05
-4.55409e-05
-4.22679e-05
-3.92154e-05
-3.63689e-05
-3.37149e-05
-3.12414e-05
-2.89369e-05
-2.67899e-05
-2.47906e-05
-2.29297e-05
-2.11981e-05
-1.95874e-05
-1.80899e-05
-1.66982e-05
-1.5405e-05
-1.42041e-05
-1.30894e-05
-1.20554e-05
-1.10967e-05
-1.02081e-05
-9.38483e-06
-8.62254e-06
-7.91709e-06
-7.26463e-06
-6.66156e-06
-6.10444e-06
-5.59e-06
-5.11518e-06
-4.67709e-06
-4.27308e-06
-3.90071e-06
-3.55769e-06
-3.24191e-06
-2.95137e-06
-2.68409e-06
-2.43837e-06
-2.21235e-06
-2.00459e-06
-1.81342e-06
-1.63758e-06
-1.47568e-06
-1.32645e-06
-1.18894e-06
-1.06173e-06
-9.44291e-07
-8.35173e-07
-7.33844e-07
-6.39291e-07
-5.50647e-07
-4.67205e-07
-3.88046e-07
-3.12614e-07
-2.39787e-07
-1.69587e-07
-1.00594e-07
-3.42813e-08
0.00142866
0.00128394
0.000970175
0.000636915
0.000301766
-3.37348e-05
-0.000331706
-0.000481717
-0.000609915
-0.000722989
-0.000749283
-0.000775832
-0.00075617
-0.00073495
-0.00069186
-0.000625465
-0.000553965
-0.000478376
-0.00041348
-0.000356088
-0.000307429
-0.000273241
-0.000245847
-0.000221957
-0.000201853
-0.00018619
-0.000171995
-0.00015906
-0.000147378
-0.000136699
-0.000126838
-0.000117779
-0.000109431
-0.000101682
-9.45044e-05
-8.78626e-05
-8.16904e-05
-7.59472e-05
-7.0607e-05
-6.5635e-05
-6.10018e-05
-5.66852e-05
-5.26612e-05
-4.89079e-05
-4.5408e-05
-4.21448e-05
-3.91013e-05
-3.6263e-05
-3.36169e-05
-3.11508e-05
-2.88529e-05
-2.67123e-05
-2.47189e-05
-2.28635e-05
-2.1137e-05
-1.95311e-05
-1.8038e-05
-1.66503e-05
-1.53609e-05
-1.41636e-05
-1.30522e-05
-1.20212e-05
-1.10652e-05
-1.01792e-05
-9.35835e-06
-8.59826e-06
-7.89485e-06
-7.24427e-06
-6.64293e-06
-6.0874e-06
-5.57444e-06
-5.10096e-06
-4.66411e-06
-4.26125e-06
-3.88992e-06
-3.54788e-06
-3.23299e-06
-2.94327e-06
-2.67675e-06
-2.43171e-06
-2.20632e-06
-1.99913e-06
-1.80849e-06
-1.63313e-06
-1.47168e-06
-1.32286e-06
-1.18573e-06
-1.05886e-06
-9.41744e-07
-8.32922e-07
-7.31868e-07
-6.37577e-07
-5.49161e-07
-4.65929e-07
-3.87017e-07
-3.11674e-07
-2.39169e-07
-1.68991e-07
-1.00185e-07
-3.45067e-08
0.00126752
0.0011309
0.00088329
0.000596521
0.000312043
1.50471e-05
-0.000266575
-0.000388349
-0.000525233
-0.000637168
-0.000674787
-0.000691773
-0.000687782
-0.000680803
-0.000639447
-0.000583505
-0.000524238
-0.000459404
-0.000402294
-0.000350069
-0.000305076
-0.000272278
-0.000245576
-0.000221693
-0.000201706
-0.000185751
-0.000171473
-0.000158499
-0.000146826
-0.000136144
-0.000126302
-0.000117291
-0.000108974
-0.000101244
-9.40991e-05
-8.74906e-05
-8.13419e-05
-7.56216e-05
-7.03056e-05
-6.5355e-05
-6.07413e-05
-5.6444e-05
-5.24377e-05
-4.87004e-05
-4.52158e-05
-4.1967e-05
-3.89365e-05
-3.61103e-05
-3.34756e-05
-3.10201e-05
-2.87321e-05
-2.66005e-05
-2.46157e-05
-2.27682e-05
-2.10491e-05
-1.94501e-05
-1.79634e-05
-1.65815e-05
-1.52976e-05
-1.41053e-05
-1.29987e-05
-1.1972e-05
-1.102e-05
-1.01377e-05
-9.32023e-06
-8.56331e-06
-7.86282e-06
-7.21494e-06
-6.61609e-06
-6.06285e-06
-5.55199e-06
-5.08045e-06
-4.64539e-06
-4.24417e-06
-3.87437e-06
-3.53373e-06
-3.22012e-06
-2.93158e-06
-2.66613e-06
-2.42208e-06
-2.19759e-06
-1.99123e-06
-1.80136e-06
-1.62669e-06
-1.46589e-06
-1.31765e-06
-1.18107e-06
-1.05471e-06
-9.3805e-07
-8.29658e-07
-7.29e-07
-6.35083e-07
-5.47002e-07
-4.64082e-07
-3.85498e-07
-3.1036e-07
-2.38223e-07
-1.68215e-07
-9.96835e-08
-3.46375e-08
0.0011023
0.000985927
0.00080561
0.000533926
0.000328844
7.54767e-05
-0.000203158
-0.000338666
-0.000432458
-0.000551145
-0.000608411
-0.000608561
-0.000635185
-0.000621125
-0.000578804
-0.000541649
-0.000493517
-0.000436294
-0.000387996
-0.000342426
-0.000300734
-0.000269309
-0.000243798
-0.000220533
-0.000200891
-0.00018488
-0.000170563
-0.000157607
-0.000145997
-0.000135346
-0.000125554
-0.000116618
-0.000108345
-0.000100647
-9.35518e-05
-8.69903e-05
-8.0875e-05
-7.51882e-05
-6.99066e-05
-6.49851e-05
-6.03982e-05
-5.61272e-05
-5.21447e-05
-4.84288e-05
-4.49646e-05
-4.17349e-05
-3.87216e-05
-3.59112e-05
-3.32916e-05
-3.085e-05
-2.85748e-05
-2.64552e-05
-2.44815e-05
-2.26444e-05
-2.09349e-05
-1.93448e-05
-1.78663e-05
-1.64921e-05
-1.52153e-05
-1.40296e-05
-1.2929e-05
-1.19079e-05
-1.09611e-05
-1.00836e-05
-9.27061e-06
-8.5178e-06
-7.82111e-06
-7.17673e-06
-6.58111e-06
-6.03085e-06
-5.52272e-06
-5.0537e-06
-4.62097e-06
-4.22189e-06
-3.85406e-06
-3.51524e-06
-3.20331e-06
-2.9163e-06
-2.65226e-06
-2.40948e-06
-2.18618e-06
-1.9809e-06
-1.79203e-06
-1.61827e-06
-1.45831e-06
-1.31084e-06
-1.17497e-06
-1.04926e-06
-9.3321e-07
-8.25378e-07
-7.25239e-07
-6.31806e-07
-5.44172e-07
-4.61663e-07
-3.83493e-07
-3.08693e-07
-2.36937e-07
-1.67282e-07
-9.91159e-08
-3.46242e-08
0.000977252
0.000870719
0.000737852
0.000498201
0.000315447
0.000112911
-0.000144529
-0.000274255
-0.000353065
-0.000495395
-0.000541241
-0.000527575
-0.000593525
-0.000541462
-0.000523608
-0.000505951
-0.000460257
-0.000410741
-0.00037271
-0.000332563
-0.000294288
-0.000265171
-0.000240838
-0.000218297
-0.000199257
-0.000183421
-0.000169139
-0.000156302
-0.000144832
-0.000134259
-0.000124567
-0.000115744
-0.000107531
-9.98808e-05
-9.28559e-05
-8.63554e-05
-8.02834e-05
-7.46421e-05
-6.94058e-05
-6.45216e-05
-5.99691e-05
-5.57321e-05
-5.17797e-05
-4.80907e-05
-4.46523e-05
-4.14466e-05
-3.84549e-05
-3.56644e-05
-3.30634e-05
-3.06392e-05
-2.83799e-05
-2.62751e-05
-2.43153e-05
-2.2491e-05
-2.07934e-05
-1.92144e-05
-1.77461e-05
-1.63814e-05
-1.51134e-05
-1.39358e-05
-1.28427e-05
-1.18286e-05
-1.08882e-05
-1.00166e-05
-9.20911e-06
-8.46138e-06
-7.76938e-06
-7.12934e-06
-6.53771e-06
-5.99113e-06
-5.4864e-06
-5.0205e-06
-4.59064e-06
-4.19422e-06
-3.82884e-06
-3.49227e-06
-3.18241e-06
-2.8973e-06
-2.635e-06
-2.39382e-06
-2.17198e-06
-1.96804e-06
-1.78041e-06
-1.60778e-06
-1.44887e-06
-1.30235e-06
-1.16737e-06
-1.04247e-06
-9.27177e-07
-8.20043e-07
-7.20551e-07
-6.27721e-07
-5.40642e-07
-4.58653e-07
-3.80993e-07
-3.06643e-07
-2.35328e-07
-1.66195e-07
-9.84497e-08
-3.44657e-08
0.000876892
0.000781386
0.000662226
0.000473084
0.000288919
0.000132751
-8.04966e-05
-0.00023414
-0.000295483
-0.000429833
-0.000480232
-0.000459463
-0.000497343
-0.00050259
-0.000493278
-0.000472688
-0.000427216
-0.000386507
-0.000356287
-0.000319832
-0.000285863
-0.00025974
-0.000236532
-0.000214867
-0.000196749
-0.000181349
-0.000167232
-0.000154615
-0.000143333
-0.000132866
-0.000123323
-0.000114652
-0.000106514
-9.89307e-05
-9.20011e-05
-8.55752e-05
-7.95564e-05
-7.39746e-05
-6.87955e-05
-6.39566e-05
-5.94471e-05
-5.52526e-05
-5.13371e-05
-4.7681e-05
-4.42744e-05
-4.1098e-05
-3.81324e-05
-3.53659e-05
-3.27877e-05
-3.03845e-05
-2.81445e-05
-2.60577e-05
-2.41147e-05
-2.23059e-05
-2.06227e-05
-1.90569e-05
-1.7601e-05
-1.62477e-05
-1.49903e-05
-1.38225e-05
-1.27385e-05
-1.17327e-05
-1.08001e-05
-9.93567e-06
-9.13481e-06
-8.39321e-06
-7.70687e-06
-7.07205e-06
-6.48525e-06
-5.9431e-06
-5.44246e-06
-4.98033e-06
-4.55395e-06
-4.16073e-06
-3.79831e-06
-3.46446e-06
-3.1571e-06
-2.87428e-06
-2.61409e-06
-2.37484e-06
-2.15478e-06
-1.95245e-06
-1.76632e-06
-1.59506e-06
-1.43742e-06
-1.29206e-06
-1.15816e-06
-1.03424e-06
-9.19859e-07
-8.1357e-07
-7.14862e-07
-6.22763e-07
-5.36359e-07
-4.5501e-07
-3.77958e-07
-3.04175e-07
-2.33407e-07
-1.64897e-07
-9.76479e-08
-3.42004e-08
0.000784208
0.000696676
0.000587208
0.00045042
0.00027047
0.000138726
-6.46045e-06
-0.000201733
-0.000256504
-0.000341223
-0.00041586
-0.000415177
-0.000412622
-0.000473316
-0.000462762
-0.000432513
-0.000389963
-0.000364177
-0.000339564
-0.000306227
-0.000276914
-0.000253523
-0.000231201
-0.000210464
-0.00019346
-0.000178666
-0.000164833
-0.00015254
-0.000141481
-0.000131141
-0.000121809
-0.000113329
-0.000105275
-9.77822e-05
-9.09768e-05
-8.46371e-05
-7.86811e-05
-7.31754e-05
-6.80663e-05
-6.32809e-05
-5.88238e-05
-5.46813e-05
-5.08098e-05
-4.71928e-05
-4.38246e-05
-4.06835e-05
-3.77488e-05
-3.5011e-05
-3.24599e-05
-3.00819e-05
-2.78648e-05
-2.57994e-05
-2.38763e-05
-2.2086e-05
-2.04199e-05
-1.887e-05
-1.74288e-05
-1.6089e-05
-1.48442e-05
-1.3688e-05
-1.26147e-05
-1.16189e-05
-1.06955e-05
-9.83957e-06
-9.04657e-06
-8.31223e-06
-7.6326e-06
-7.00399e-06
-6.4229e-06
-5.88602e-06
-5.39024e-06
-4.93258e-06
-4.51032e-06
-4.12091e-06
-3.76199e-06
-3.43138e-06
-3.12699e-06
-2.8469e-06
-2.58921e-06
-2.35224e-06
-2.13429e-06
-1.93389e-06
-1.74954e-06
-1.57991e-06
-1.42378e-06
-1.2798e-06
-1.14717e-06
-1.02443e-06
-9.11139e-07
-8.05857e-07
-7.08082e-07
-6.16855e-07
-5.31258e-07
-4.50675e-07
-3.74341e-07
-3.01258e-07
-2.31142e-07
-1.63337e-07
-9.67023e-08
-3.38623e-08
0.000703262
0.000626842
0.000526258
0.000424719
0.000250857
0.000143556
3.32257e-05
-0.000166443
-0.000209785
-0.00026492
-0.000366162
-0.000371853
-0.000375053
-0.000418795
-0.000411564
-0.000387186
-0.000356205
-0.000346821
-0.000321852
-0.000291085
-0.000266254
-0.000245604
-0.000224543
-0.000205079
-0.000189381
-0.000175301
-0.00016188
-0.000150044
-0.000139238
-0.000129052
-0.000120006
-0.000111756
-0.000103789
-9.64206e-05
-8.97736e-05
-8.35287e-05
-7.76457e-05
-7.2236e-05
-6.72098e-05
-6.24854e-05
-5.80915e-05
-5.40116e-05
-5.01913e-05
-4.66203e-05
-4.32978e-05
-4.01981e-05
-3.72995e-05
-3.45953e-05
-3.20762e-05
-2.97275e-05
-2.75374e-05
-2.5497e-05
-2.35973e-05
-2.18286e-05
-2.01825e-05
-1.86511e-05
-1.7227e-05
-1.59032e-05
-1.4673e-05
-1.35304e-05
-1.24698e-05
-1.14856e-05
-1.05729e-05
-9.72695e-06
-8.94314e-06
-8.21731e-06
-7.54553e-06
-6.92417e-06
-6.34978e-06
-5.81908e-06
-5.32898e-06
-4.87657e-06
-4.45914e-06
-4.07419e-06
-3.71938e-06
-3.39256e-06
-3.09164e-06
-2.81474e-06
-2.55999e-06
-2.32571e-06
-2.11023e-06
-1.9121e-06
-1.72984e-06
-1.56211e-06
-1.40775e-06
-1.26539e-06
-1.13427e-06
-1.01291e-06
-9.00891e-07
-7.96793e-07
-7.00114e-07
-6.09912e-07
-5.25265e-07
-4.45587e-07
-3.70095e-07
-2.97846e-07
-2.28492e-07
-1.6149e-07
-9.5609e-08
-3.34618e-08
0.000632568
0.000566055
0.000475388
0.000390927
0.000239021
0.000142279
5.37363e-05
-0.000126117
-0.000169127
-0.000209294
-0.000312342
-0.000336791
-0.000331156
-0.00036665
-0.000370862
-0.000356333
-0.000328487
-0.000324685
-0.000300525
-0.000274549
-0.000254036
-0.000236297
-0.000216874
-0.000198961
-0.000184656
-0.000171231
-0.000158332
-0.000147109
-0.000136591
-0.000126598
-0.000117924
-0.00010992
-0.000102035
-9.48342e-05
-8.83826e-05
-8.22351e-05
-7.6437e-05
-7.1148e-05
-6.62168e-05
-6.156e-05
-5.72418e-05
-5.32363e-05
-4.94743e-05
-4.59564e-05
-4.26879e-05
-3.96364e-05
-3.67791e-05
-3.41138e-05
-3.16319e-05
-2.93172e-05
-2.71581e-05
-2.51468e-05
-2.32741e-05
-2.15305e-05
-1.99075e-05
-1.83976e-05
-1.69934e-05
-1.5688e-05
-1.44748e-05
-1.33479e-05
-1.23018e-05
-1.13311e-05
-1.04309e-05
-9.5964e-06
-8.82324e-06
-8.10724e-06
-7.44457e-06
-6.83162e-06
-6.26498e-06
-5.74143e-06
-5.25792e-06
-4.81158e-06
-4.39976e-06
-4.01998e-06
-3.66994e-06
-3.34749e-06
-3.05062e-06
-2.77742e-06
-2.52606e-06
-2.2949e-06
-2.08229e-06
-1.88678e-06
-1.70695e-06
-1.54144e-06
-1.38913e-06
-1.24866e-06
-1.11927e-06
-9.9952e-07
-8.88983e-07
-7.86261e-07
-6.90855e-07
-6.01844e-07
-5.18303e-07
-4.39679e-07
-3.65168e-07
-2.93888e-07
-2.25424e-07
-1.59342e-07
-9.43515e-08
-3.29983e-08
0.000569791
0.000506192
0.00043319
0.000353757
0.00023235
0.000137578
5.85278e-05
-9.48004e-05
-0.000120844
-0.000166661
-0.000249905
-0.000305195
-0.000297697
-0.000325263
-0.000325367
-0.000316663
-0.000307037
-0.000300379
-0.000280738
-0.000258908
-0.000242064
-0.000226787
-0.000208527
-0.000192116
-0.000179268
-0.000166456
-0.000154218
-0.000143726
-0.000133486
-0.000123749
-0.000115559
-0.000107797
-9.99813e-05
-9.30108e-05
-8.67916e-05
-8.07352e-05
-7.5039e-05
-6.99015e-05
-6.50756e-05
-6.0492e-05
-5.62653e-05
-5.23472e-05
-4.86498e-05
-4.5193e-05
-4.19881e-05
-3.89916e-05
-3.61809e-05
-3.35604e-05
-3.11216e-05
-2.88459e-05
-2.67224e-05
-2.47445e-05
-2.2903e-05
-2.11881e-05
-1.95917e-05
-1.81065e-05
-1.67251e-05
-1.54407e-05
-1.42471e-05
-1.31383e-05
-1.21089e-05
-1.11536e-05
-1.02677e-05
-9.44644e-06
-8.68548e-06
-7.98079e-06
-7.32856e-06
-6.72526e-06
-6.16752e-06
-5.65218e-06
-5.17624e-06
-4.73688e-06
-4.33149e-06
-3.95764e-06
-3.61307e-06
-3.29567e-06
-3.00342e-06
-2.73448e-06
-2.48703e-06
-2.25945e-06
-2.05014e-06
-1.85766e-06
-1.68061e-06
-1.51766e-06
-1.3677e-06
-1.2294e-06
-1.10201e-06
-9.84107e-07
-8.75276e-07
-7.74137e-07
-6.80198e-07
-5.92557e-07
-5.10291e-07
-4.32883e-07
-3.59502e-07
-2.89337e-07
-2.21907e-07
-1.5687e-07
-9.29093e-08
-3.24699e-08
0.00051542
0.000453411
0.000395852
0.000324951
0.000223747
0.000131894
6.49806e-05
-5.33464e-05
-9.79954e-05
-0.000131429
-0.000201939
-0.000269977
-0.000263937
-0.000294826
-0.000279703
-0.000274747
-0.000291147
-0.000278522
-0.000259926
-0.000241311
-0.000228901
-0.000216095
-0.000199083
-0.000184546
-0.000173189
-0.000160914
-0.000149578
-0.000139934
-0.000129906
-0.000120512
-0.000112921
-0.000105364
-9.76041e-05
-9.09516e-05
-8.49937e-05
-7.9009e-05
-7.34399e-05
-6.84908e-05
-6.37748e-05
-5.92693e-05
-5.51542e-05
-5.13368e-05
-4.77093e-05
-4.43227e-05
-4.11923e-05
-3.82578e-05
-3.54989e-05
-3.29297e-05
-3.05404e-05
-2.8309e-05
-2.62258e-05
-2.4286e-05
-2.24801e-05
-2.0798e-05
-1.92319e-05
-1.77747e-05
-1.64193e-05
-1.5159e-05
-1.39876e-05
-1.28994e-05
-1.1889e-05
-1.09514e-05
-1.00817e-05
-9.27546e-06
-8.52842e-06
-7.83659e-06
-7.19627e-06
-6.60396e-06
-6.05636e-06
-5.55038e-06
-5.08306e-06
-4.65165e-06
-4.2536e-06
-3.88652e-06
-3.54819e-06
-3.23653e-06
-2.94956e-06
-2.68546e-06
-2.44248e-06
-2.21899e-06
-2.01344e-06
-1.8244e-06
-1.65053e-06
-1.4905e-06
-1.34323e-06
-1.2074e-06
-1.0823e-06
-9.66506e-07
-8.59622e-07
-7.60292e-07
-6.68027e-07
-5.81953e-07
-5.01146e-07
-4.25125e-07
-3.53038e-07
-2.84143e-07
-2.17904e-07
-1.54048e-07
-9.12635e-08
-3.18729e-08
0.000466829
0.000411744
0.00035915
0.000298407
0.000211972
0.000130013
7.67692e-05
-7.55091e-06
-0.000102342
-0.000103431
-0.000157525
-0.00023626
-0.000228445
-0.000250168
-0.000262251
-0.000259557
-0.000260548
-0.000251392
-0.000237534
-0.000223734
-0.000215379
-0.000204267
-0.000188854
-0.000176686
-0.000166658
-0.000154658
-0.000144484
-0.000135718
-0.000125798
-0.000116903
-0.000110019
-0.000102576
-9.48749e-05
-8.86626e-05
-8.29764e-05
-7.70301e-05
-7.16296e-05
-6.6911e-05
-6.23008e-05
-5.78788e-05
-5.39013e-05
-5.01978e-05
-4.66435e-05
-4.33379e-05
-4.02947e-05
-3.74285e-05
-3.47264e-05
-3.22158e-05
-2.98831e-05
-2.77014e-05
-2.56636e-05
-2.37671e-05
-2.20016e-05
-2.03565e-05
-1.88246e-05
-1.73992e-05
-1.60733e-05
-1.48401e-05
-1.36939e-05
-1.26289e-05
-1.16401e-05
-1.07223e-05
-9.87106e-06
-9.08185e-06
-8.35056e-06
-7.67329e-06
-7.04643e-06
-6.46655e-06
-5.93044e-06
-5.43504e-06
-4.97748e-06
-4.55509e-06
-4.16535e-06
-3.80593e-06
-3.47466e-06
-3.1695e-06
-2.88851e-06
-2.6299e-06
-2.39196e-06
-2.17311e-06
-1.97183e-06
-1.7867e-06
-1.61643e-06
-1.45971e-06
-1.31549e-06
-1.18246e-06
-1.05995e-06
-9.46546e-07
-8.41868e-07
-7.44589e-07
-6.54225e-07
-5.69926e-07
-4.90777e-07
-4.16329e-07
-3.45715e-07
-2.78257e-07
-2.13376e-07
-1.50851e-07
-8.9396e-08
-3.12019e-08
0.000421272
0.000377666
0.000321591
0.000278466
0.00020325
0.000120387
8.98124e-05
2.33757e-05
-9.51206e-05
-8.44482e-05
-0.000120543
-0.00020089
-0.000202222
-0.000207833
-0.000240328
-0.000238179
-0.000226904
-0.000228886
-0.000219194
-0.000208414
-0.000201759
-0.000191052
-0.000177744
-0.000168786
-0.000159768
-0.000147714
-0.000139022
-0.000131037
-0.000121119
-0.000112993
-0.000106875
-9.93909e-05
-9.17811e-05
-8.61639e-05
-8.0723e-05
-7.47695e-05
-6.96054e-05
-6.51599e-05
-6.06368e-05
-5.6307e-05
-5.25019e-05
-4.89228e-05
-4.54421e-05
-4.22314e-05
-3.92898e-05
-3.64969e-05
-3.38563e-05
-3.14128e-05
-2.91444e-05
-2.70179e-05
-2.50309e-05
-2.31834e-05
-2.14634e-05
-1.98599e-05
-1.83665e-05
-1.69768e-05
-1.56839e-05
-1.44813e-05
-1.33633e-05
-1.23246e-05
-1.13599e-05
-1.04645e-05
-9.63398e-06
-8.86392e-06
-8.15034e-06
-7.48945e-06
-6.87773e-06
-6.31184e-06
-5.78864e-06
-5.30515e-06
-4.85858e-06
-4.44633e-06
-4.06594e-06
-3.71515e-06
-3.39183e-06
-3.09398e-06
-2.81972e-06
-2.5673e-06
-2.33505e-06
-2.12141e-06
-1.92493e-06
-1.74421e-06
-1.578e-06
-1.425e-06
-1.28421e-06
-1.15435e-06
-1.03475e-06
-9.24047e-07
-8.21857e-07
-7.26889e-07
-6.38667e-07
-5.56371e-07
-4.79093e-07
-4.06418e-07
-3.37468e-07
-2.71624e-07
-2.08281e-07
-1.4725e-07
-8.72889e-08
-3.04505e-08
0.000380392
0.00034323
0.000291947
0.000255522
0.000194821
0.000113732
9.1601e-05
4.07642e-05
-7.53911e-05
-7.60631e-05
-9.05614e-05
-0.000164991
-0.000183488
-0.000177358
-0.00020744
-0.000206547
-0.000205988
-0.000213452
-0.000196377
-0.000191163
-0.000187389
-0.000177431
-0.000166919
-0.000160669
-0.000151962
-0.000140044
-0.000133381
-0.00012589
-0.000115872
-0.000108897
-0.00010348
-9.57371e-05
-8.83202e-05
-8.34773e-05
-7.82008e-05
-7.21938e-05
-6.7374e-05
-6.32347e-05
-5.87599e-05
-5.45414e-05
-5.09536e-05
-4.75032e-05
-4.40936e-05
-4.09972e-05
-3.8173e-05
-3.54558e-05
-3.28812e-05
-3.05149e-05
-2.83189e-05
-2.6253e-05
-2.43227e-05
-2.25303e-05
-2.08614e-05
-1.93043e-05
-1.78538e-05
-1.65042e-05
-1.52483e-05
-1.40798e-05
-1.29934e-05
-1.19839e-05
-1.10463e-05
-1.0176e-05
-9.36857e-06
-8.61993e-06
-7.92616e-06
-7.2836e-06
-6.68882e-06
-6.13857e-06
-5.62982e-06
-5.15966e-06
-4.7254e-06
-4.3245e-06
-3.95459e-06
-3.61345e-06
-3.29903e-06
-3.00937e-06
-2.74264e-06
-2.49714e-06
-2.27126e-06
-2.06347e-06
-1.87237e-06
-1.69659e-06
-1.53492e-06
-1.3861e-06
-1.24916e-06
-1.12284e-06
-1.00651e-06
-8.98826e-07
-7.99424e-07
-7.07048e-07
-6.21228e-07
-5.41177e-07
-4.65999e-07
-3.95309e-07
-3.2823e-07
-2.64193e-07
-2.02577e-07
-1.43218e-07
-8.4924e-08
-2.96122e-08
0.000343431
0.000309572
0.0002683
0.000229513
0.000183346
0.000119395
8.34908e-05
4.65229e-05
-3.28933e-05
-7.80499e-05
-8.17962e-05
-0.000139599
-0.000153016
-0.000151605
-0.000178356
-0.000178512
-0.000190184
-0.000189146
-0.00017785
-0.000178231
-0.000172699
-0.00016061
-0.000158251
-0.000153129
-0.000142763
-0.000131836
-0.00012752
-0.00012007
-0.000110083
-0.000104757
-9.97959e-05
-9.15692e-05
-8.45589e-05
-8.06369e-05
-7.53622e-05
-6.92741e-05
-6.49599e-05
-6.11304e-05
-5.66401e-05
-5.25731e-05
-4.92588e-05
-4.5929e-05
-4.25858e-05
-3.96315e-05
-3.69407e-05
-3.42968e-05
-3.17927e-05
-2.95164e-05
-2.74014e-05
-2.54012e-05
-2.35337e-05
-2.18035e-05
-2.01915e-05
-1.86858e-05
-1.72832e-05
-1.59781e-05
-1.47633e-05
-1.36328e-05
-1.25815e-05
-1.16045e-05
-1.0697e-05
-9.85454e-06
-9.0729e-06
-8.34811e-06
-7.67639e-06
-7.05423e-06
-6.4783e-06
-5.94548e-06
-5.45281e-06
-4.9975e-06
-4.57695e-06
-4.1887e-06
-3.83045e-06
-3.50008e-06
-3.19556e-06
-2.91502e-06
-2.65669e-06
-2.41891e-06
-2.20012e-06
-1.99886e-06
-1.81375e-06
-1.64348e-06
-1.48687e-06
-1.34271e-06
-1.21006e-06
-1.0877e-06
-9.75006e-07
-8.70695e-07
-7.74402e-07
-6.84917e-07
-6.01778e-07
-5.24231e-07
-4.51397e-07
-3.82921e-07
-3.17932e-07
-2.55907e-07
-1.96222e-07
-1.38725e-07
-8.22836e-08
-2.86802e-08
0.000309028
0.000279473
0.000244524
0.000208901
0.000171093
0.000118164
7.65174e-05
5.04322e-05
-4.34938e-06
-6.89295e-05
-7.77657e-05
-0.000113054
-0.000124184
-0.000130771
-0.000150987
-0.000162351
-0.000164156
-0.000166694
-0.000157839
-0.000165204
-0.000159181
-0.000147158
-0.000147738
-0.000144206
-0.000132924
-0.000124494
-0.000121503
-0.000113237
-0.000103737
-0.000100568
-9.56131e-05
-8.67485e-05
-8.0631e-05
-7.76701e-05
-7.21446e-05
-6.59974e-05
-6.24074e-05
-5.88323e-05
-5.42359e-05
-5.04023e-05
-4.74236e-05
-4.41867e-05
-4.09063e-05
-3.8135e-05
-3.55896e-05
-3.30096e-05
-3.05826e-05
-2.84123e-05
-2.63865e-05
-2.44563e-05
-2.26587e-05
-2.09985e-05
-1.94495e-05
-1.80005e-05
-1.66508e-05
-1.53951e-05
-1.42258e-05
-1.31372e-05
-1.21249e-05
-1.11839e-05
-1.03097e-05
-9.49812e-06
-8.74503e-06
-8.04665e-06
-7.39938e-06
-6.79982e-06
-6.24479e-06
-5.73127e-06
-5.25644e-06
-4.8176e-06
-4.41224e-06
-4.03802e-06
-3.69271e-06
-3.37426e-06
-3.08073e-06
-2.81031e-06
-2.56129e-06
-2.33208e-06
-2.12116e-06
-1.92714e-06
-1.74868e-06
-1.58452e-06
-1.43354e-06
-1.29455e-06
-1.16665e-06
-1.04868e-06
-9.40031e-07
-8.39463e-07
-7.46622e-07
-6.60347e-07
-5.80185e-07
-5.05417e-07
-4.35189e-07
-3.69169e-07
-3.06505e-07
-2.4671e-07
-1.89172e-07
-1.33742e-07
-7.93506e-08
-2.76474e-08
0.000278316
0.000250217
0.000224855
0.000188308
0.000156507
0.000117211
6.94554e-05
5.13283e-05
1.17727e-05
-5.25031e-05
-6.46782e-05
-7.99147e-05
-0.000117323
-0.000114176
-0.000124005
-0.000150102
-0.000141813
-0.000141168
-0.000148679
-0.0001457
-0.00013969
-0.000141769
-0.000138908
-0.000126857
-0.000120031
-0.000120259
-0.000115564
-0.000106647
-9.79359e-05
-9.65111e-05
-9.09585e-05
-8.10354e-05
-7.67394e-05
-7.449e-05
-6.84466e-05
-6.23908e-05
-5.97779e-05
-5.63088e-05
-5.14911e-05
-4.80479e-05
-4.54553e-05
-4.22543e-05
-3.90454e-05
-3.65156e-05
-3.41157e-05
-3.15808e-05
-2.92424e-05
-2.71986e-05
-2.52687e-05
-2.3412e-05
-2.16927e-05
-2.01111e-05
-1.86314e-05
-1.72444e-05
-1.59531e-05
-1.47519e-05
-1.36327e-05
-1.25904e-05
-1.16209e-05
-1.07196e-05
-9.88222e-06
-9.10462e-06
-8.38302e-06
-7.71377e-06
-7.09346e-06
-6.51884e-06
-5.98687e-06
-5.49466e-06
-5.03951e-06
-4.61885e-06
-4.23028e-06
-3.87154e-06
-3.54052e-06
-3.23524e-06
-2.95385e-06
-2.6946e-06
-2.45587e-06
-2.23611e-06
-2.0339e-06
-1.84787e-06
-1.67676e-06
-1.51936e-06
-1.37458e-06
-1.24131e-06
-1.11867e-06
-1.00556e-06
-9.01371e-07
-8.04939e-07
-7.15913e-07
-6.33187e-07
-5.56317e-07
-4.84622e-07
-4.17275e-07
-3.53971e-07
-2.93879e-07
-2.36548e-07
-1.81383e-07
-1.28239e-07
-7.61096e-08
-2.65041e-08
0.000245057
0.000227115
0.000206322
0.000172862
0.000138689
0.00011218
7.41303e-05
4.15252e-05
1.62587e-05
-3.20703e-05
-5.7512e-05
-6.11446e-05
-8.51719e-05
-0.000106376
-0.000108579
-0.000121388
-0.000125366
-0.000119739
-0.000145054
-0.000129708
-0.00012567
-0.000130918
-0.000124954
-0.00011192
-0.000114187
-0.000116419
-0.000104815
-9.59498e-05
-9.46653e-05
-9.22251e-05
-8.69211e-05
-7.48594e-05
-7.3426e-05
-7.0918e-05
-6.40758e-05
-5.85915e-05
-5.71175e-05
-5.34997e-05
-4.8314e-05
-4.55712e-05
-4.33657e-05
-4.01017e-05
-3.70025e-05
-3.47912e-05
-3.25118e-05
-2.99923e-05
-2.77644e-05
-2.58726e-05
-2.40419e-05
-2.22617e-05
-2.06309e-05
-1.91376e-05
-1.77332e-05
-1.64138e-05
-1.51868e-05
-1.40455e-05
-1.29811e-05
-1.19894e-05
-1.1067e-05
-1.02093e-05
-9.4122e-06
-8.67194e-06
-7.98492e-06
-7.34769e-06
-6.757e-06
-6.20979e-06
-5.70316e-06
-5.23438e-06
-4.80087e-06
-4.4002e-06
-4.03008e-06
-3.68837e-06
-3.37306e-06
-3.08226e-06
-2.81421e-06
-2.56726e-06
-2.33983e-06
-2.13049e-06
-1.93784e-06
-1.76061e-06
-1.59759e-06
-1.44762e-06
-1.30969e-06
-1.18271e-06
-1.06586e-06
-9.58079e-07
-8.58812e-07
-7.66935e-07
-6.82109e-07
-6.03289e-07
-5.30042e-07
-4.61733e-07
-3.97558e-07
-3.37244e-07
-2.79984e-07
-2.25365e-07
-1.72811e-07
-1.22184e-07
-7.25479e-08
-2.52385e-08
0.000212851
0.00020125
0.000185251
0.000162704
0.000116298
9.60605e-05
8.50128e-05
3.46006e-05
1.06326e-05
-5.59581e-06
-3.32489e-05
-5.66567e-05
-5.95126e-05
-8.95514e-05
-9.46346e-05
-8.84816e-05
-0.000108638
-0.00011452
-0.000119626
-0.00011548
-0.000120304
-0.000112497
-0.000104333
-0.000108656
-0.000107736
-0.000101333
-8.76219e-05
-8.63369e-05
-9.15198e-05
-8.45613e-05
-7.56142e-05
-6.96783e-05
-7.07368e-05
-6.70774e-05
-5.72444e-05
-5.48128e-05
-5.4105e-05
-4.98467e-05
-4.39206e-05
-4.25569e-05
-4.06961e-05
-3.72257e-05
-3.43886e-05
-3.26461e-05
-3.0433e-05
-2.78868e-05
-2.58379e-05
-2.41597e-05
-2.24448e-05
-2.07596e-05
-1.92497e-05
-1.78736e-05
-1.65657e-05
-1.53333e-05
-1.419e-05
-1.31266e-05
-1.21333e-05
-1.12074e-05
-1.0346e-05
-9.54493e-06
-8.80026e-06
-8.10855e-06
-7.4665e-06
-6.87092e-06
-6.31877e-06
-5.80722e-06
-5.33358e-06
-4.89529e-06
-4.48995e-06
-4.11531e-06
-3.76922e-06
-3.44969e-06
-3.15484e-06
-2.8829e-06
-2.63224e-06
-2.40129e-06
-2.1886e-06
-1.99281e-06
-1.81263e-06
-1.64687e-06
-1.49439e-06
-1.35411e-06
-1.22509e-06
-1.10631e-06
-9.97007e-07
-8.9619e-07
-8.03332e-07
-7.17392e-07
-6.3804e-07
-5.64315e-07
-4.9579e-07
-4.31897e-07
-3.71856e-07
-3.15444e-07
-2.61873e-07
-2.10791e-07
-1.61639e-07
-1.14289e-07
-6.7908e-08
-2.35855e-08
0.000185738
0.000179132
0.000152332
0.000130854
0.000111006
8.5737e-05
6.96937e-05
4.51824e-05
1.8662e-05
-3.1918e-06
-1.64073e-05
-4.05829e-05
-5.40216e-05
-6.08187e-05
-7.22287e-05
-7.99175e-05
-8.49903e-05
-9.16096e-05
-9.53717e-05
-0.000101972
-9.93489e-05
-9.22884e-05
-9.6188e-05
-9.57973e-05
-9.07892e-05
-8.39931e-05
-8.00277e-05
-8.11462e-05
-7.58316e-05
-6.87135e-05
-6.22534e-05
-6.85073e-05
-6.58542e-05
-5.51902e-05
-5.03742e-05
-5.21287e-05
-5.04511e-05
-4.33876e-05
-3.94098e-05
-3.94908e-05
-3.70959e-05
-3.32213e-05
-3.11904e-05
-2.9977e-05
-2.76167e-05
-2.49653e-05
-2.32869e-05
-2.19055e-05
-2.03092e-05
-1.87489e-05
-1.74141e-05
-1.61965e-05
-1.50126e-05
-1.38947e-05
-1.28637e-05
-1.19036e-05
-1.10042e-05
-1.01653e-05
-9.38516e-06
-8.65934e-06
-7.98433e-06
-7.35721e-06
-6.77504e-06
-6.23491e-06
-5.73411e-06
-5.27008e-06
-4.8404e-06
-4.44276e-06
-4.075e-06
-3.73506e-06
-3.42102e-06
-3.13108e-06
-2.86352e-06
-2.61675e-06
-2.38927e-06
-2.17968e-06
-1.98665e-06
-1.80896e-06
-1.64542e-06
-1.49496e-06
-1.35656e-06
-1.22923e-06
-1.1121e-06
-1.00428e-06
-9.05053e-07
-8.13534e-07
-7.29238e-07
-6.51225e-07
-5.79188e-07
-5.12264e-07
-4.50052e-07
-3.92053e-07
-3.3754e-07
-2.86334e-07
-2.377e-07
-1.91334e-07
-1.46726e-07
-1.03752e-07
-6.16818e-08
-2.14053e-08
0.000147604
0.000141967
0.000119164
0.000103826
0.000102916
8.16491e-05
4.83391e-05
4.60686e-05
2.92592e-05
1.11547e-06
-9.77573e-06
-2.20965e-05
-4.1206e-05
-4.57305e-05
-5.35551e-05
-6.60976e-05
-6.78817e-05
-7.13915e-05
-7.6532e-05
-8.01324e-05
-7.73344e-05
-8.25936e-05
-7.93483e-05
-7.66509e-05
-7.32446e-05
-7.03862e-05
-7.32033e-05
-7.05082e-05
-6.01947e-05
-6.03147e-05
-5.98173e-05
-5.94306e-05
-5.13074e-05
-4.41918e-05
-4.85641e-05
-4.75872e-05
-4.01595e-05
-3.46303e-05
-3.74115e-05
-3.68792e-05
-3.1922e-05
-2.85708e-05
-2.84008e-05
-2.70458e-05
-2.4129e-05
-2.12183e-05
-2.02994e-05
-1.92321e-05
-1.7734e-05
-1.63355e-05
-1.52322e-05
-1.42029e-05
-1.31589e-05
-1.21766e-05
-1.12806e-05
-1.04429e-05
-9.65436e-06
-8.9192e-06
-8.23579e-06
-7.59961e-06
-7.0077e-06
-6.4577e-06
-5.94705e-06
-5.47321e-06
-5.03381e-06
-4.62663e-06
-4.24956e-06
-3.90057e-06
-3.57779e-06
-3.27941e-06
-3.00375e-06
-2.74923e-06
-2.51435e-06
-2.29772e-06