/*--------------------------------*- C++ -*----------------------------------*\
| =========                 |                                                 |
| \\      /  F ield         | OpenFOAM: The Open Source CFD Toolbox           |
|  \\    /   O peration     | Version:  2.3.0                                 |
|   \\  /    A nd           | Web:      www.OpenFOAM.org                      |
|    \\/     M anipulation  |                                                 |
\*---------------------------------------------------------------------------*/
FoamFile
{
    version     2.0;
    format      ascii;
    class       surfaceScalarField;
    location    "0.05";
    object      phi;
}
// * * * * * * * * * * * * * * * * * * * * * * * * * * * * * * * * * * * * * //

dimensions      [0 3 -1 0 0 0 0];

internalField   nonuniform List<scalar> 
6598
(
2.9029e-08
2.99234e-09
-3.20214e-08
2.55068e-08
3.52225e-09
2.19564e-08
3.55042e-09
1.8806e-08
3.15032e-09
1.61124e-08
2.69359e-09
1.37629e-08
2.34951e-09
1.18715e-08
1.89139e-09
1.04286e-08
1.44297e-09
9.36874e-09
1.05983e-09
8.62099e-09
7.4775e-10
8.12025e-09
5.00739e-10
7.78877e-09
3.31476e-10
7.57941e-09
2.09368e-10
7.46817e-09
1.11234e-10
7.44123e-09
2.69425e-11
7.4851e-09
-4.38714e-11
7.56362e-09
-7.85162e-11
7.6466e-09
-8.29781e-11
7.72392e-09
-7.73214e-11
7.77902e-09
-5.51041e-11
7.81414e-09
-3.51229e-11
7.83794e-09
-2.3793e-11
7.85279e-09
-1.48558e-11
7.86255e-09
-9.75521e-12
7.86911e-09
-6.56323e-12
7.87331e-09
-4.19833e-12
7.87617e-09
-2.86387e-12
7.87846e-09
-2.29069e-12
7.88027e-09
-1.80143e-12
7.88172e-09
-1.45615e-12
7.88294e-09
-1.21708e-12
7.8839e-09
-9.59507e-13
7.88464e-09
-7.37788e-13
7.88523e-09
-5.98545e-13
7.88572e-09
-4.82453e-13
7.88609e-09
-3.71571e-13
7.88638e-09
-2.89443e-13
7.88661e-09
-2.29662e-13
7.88679e-09
-1.79894e-13
7.88693e-09
-1.39928e-13
7.88704e-09
-1.10301e-13
7.88712e-09
-8.56751e-14
7.88719e-09
-6.6719e-14
7.88724e-09
-5.30468e-14
7.88728e-09
-4.12605e-14
7.88732e-09
-3.26802e-14
7.88734e-09
-2.599e-14
7.88736e-09
-2.1461e-14
7.88738e-09
-1.75619e-14
7.8874e-09
-1.46322e-14
7.88741e-09
-1.3035e-14
7.88742e-09
-1.17663e-14
7.88743e-09
-1.092e-14
7.88744e-09
-1.03999e-14
7.88745e-09
-1.02e-14
7.88746e-09
-9.95379e-15
7.88747e-09
-9.98378e-15
7.88748e-09
-1.01597e-14
7.88749e-09
-1.01932e-14
7.8875e-09
-1.02811e-14
7.88751e-09
-1.03766e-14
7.88752e-09
-1.04482e-14
7.88753e-09
-1.0487e-14
7.88755e-09
-1.05428e-14
7.88756e-09
-1.04398e-14
7.88757e-09
-1.03298e-14
7.88758e-09
-1.02866e-14
7.88759e-09
-1.01186e-14
7.8876e-09
-9.91925e-15
7.88761e-09
-9.69287e-15
7.88762e-09
-9.47406e-15
7.88762e-09
-9.14366e-15
7.88763e-09
-8.81009e-15
7.88764e-09
-8.53172e-15
7.88765e-09
-8.18394e-15
7.88766e-09
-7.81379e-15
7.88767e-09
-7.43359e-15
7.88767e-09
-7.06625e-15
7.88768e-09
-6.63273e-15
7.88769e-09
-6.21029e-15
7.88769e-09
-5.81159e-15
7.8877e-09
-5.42375e-15
7.8877e-09
-4.92189e-15
7.88771e-09
-4.61838e-15
7.88771e-09
-3.93505e-15
7.88771e-09
-3.89526e-15
7.88772e-09
-2.8028e-15
7.88772e-09
-3.19789e-15
7.88772e-09
-1.61182e-15
7.88772e-09
-2.36884e-15
7.88772e-09
-6.23237e-16
7.88773e-09
-1.11614e-15
7.88773e-09
1.80167e-16
7.88773e-09
3.82081e-16
7.88772e-09
8.58819e-16
7.88772e-09
2.42595e-15
7.88772e-09
8.40165e-16
7.88772e-09
5.05349e-15
7.88771e-09
1.22639e-15
7.21675e-15
3.44735e-08
2.88626e-09
-3.43674e-08
3.43253e-08
3.67047e-09
3.37133e-08
4.16243e-09
3.27599e-08
4.10369e-09
3.15858e-08
3.86771e-09
3.01945e-08
3.74076e-09
2.87921e-08
3.29382e-09
2.74522e-08
2.78288e-09
2.62129e-08
2.29911e-09
2.5114e-08
1.84667e-09
2.41779e-08
1.43679e-09
2.33942e-08
1.11518e-09
2.27854e-08
8.18194e-10
2.23373e-08
5.5937e-10
2.20182e-08
3.46016e-10
2.18428e-08
1.31532e-10
2.17779e-08
-1.36405e-11
2.18079e-08
-1.12952e-10
2.18794e-08
-1.48842e-10
2.19517e-08
-1.27398e-10
2.20125e-08
-9.59305e-11
2.20585e-08
-6.98166e-11
2.20866e-08
-4.29299e-11
2.21025e-08
-2.56414e-11
2.21108e-08
-1.48071e-11
2.2114e-08
-7.44501e-12
2.21145e-08
-3.40741e-12
2.2114e-08
-1.75291e-12
2.21129e-08
-6.60649e-13
2.21114e-08
3.30759e-14
2.21097e-08
4.55926e-13
2.21078e-08
9.07605e-13
2.21058e-08
1.26566e-12
2.21038e-08
1.44658e-12
2.21017e-08
1.57328e-12
2.20997e-08
1.67894e-12
2.20977e-08
1.72298e-12
2.20957e-08
1.72236e-12
2.20938e-08
1.70231e-12
2.2092e-08
1.6631e-12
2.20903e-08
1.60878e-12
2.20887e-08
1.54761e-12
2.20871e-08
1.47912e-12
2.20857e-08
1.40517e-12
2.20843e-08
1.33121e-12
2.2083e-08
1.25723e-12
2.20818e-08
1.18325e-12
2.20807e-08
1.1101e-12
2.20796e-08
1.03962e-12
2.20786e-08
9.71672e-13
2.20777e-08
9.06002e-13
2.20769e-08
8.43354e-13
2.20761e-08
7.83811e-13
2.20753e-08
7.27393e-13
2.20746e-08
6.74053e-13
2.2074e-08
6.23894e-13
2.20734e-08
5.76654e-13
2.20729e-08
5.32341e-13
2.20724e-08
4.90977e-13
2.20719e-08
4.52314e-13
2.20715e-08
4.16255e-13
2.20711e-08
3.82683e-13
2.20707e-08
3.51479e-13
2.20704e-08
3.22511e-13
2.20701e-08
2.95721e-13
2.20698e-08
2.70883e-13
2.20695e-08
2.47875e-13
2.20693e-08
2.26685e-13
2.20691e-08
2.07123e-13
2.20689e-08
1.89091e-13
2.20687e-08
1.72499e-13
2.20685e-08
1.57297e-13
2.20684e-08
1.43302e-13
2.20683e-08
1.30433e-13
2.20681e-08
1.18686e-13
2.2068e-08
1.07936e-13
2.20679e-08
9.81019e-14
2.20678e-08
8.91423e-14
2.20677e-08
8.1018e-14
2.20676e-08
7.35836e-14
2.20676e-08
6.68505e-14
2.20675e-08
6.06871e-14
2.20674e-08
5.53375e-14
2.20674e-08
5.00865e-14
2.20673e-08
4.61587e-14
2.20673e-08
4.12831e-14
2.20673e-08
3.91631e-14
2.20672e-08
3.40534e-14
2.20672e-08
3.38996e-14
2.20671e-08
2.84757e-14
2.20671e-08
2.95895e-14
2.20671e-08
2.51327e-14
2.20671e-08
2.5877e-14
2.2067e-08
2.34386e-14
2.2067e-08
2.29218e-14
2.2067e-08
2.37654e-14
2.2067e-08
1.92271e-14
2.2067e-08
2.67845e-14
2.20669e-08
1.76589e-14
2.68489e-14
3.59181e-08
2.72087e-09
-3.57527e-08
3.6345e-08
3.24355e-09
3.67538e-08
3.75366e-09
3.68463e-08
4.01113e-09
3.6889e-08
3.82501e-09
3.67149e-08
3.9149e-09
3.63387e-08
3.67005e-09
3.58868e-08
3.23476e-09
3.53916e-08
2.79427e-09
3.48388e-08
2.39954e-09
3.42879e-08
1.9876e-09
3.37276e-08
1.67556e-09
3.32431e-08
1.30268e-09
3.2837e-08
9.65458e-10
3.25192e-08
6.63804e-10
3.22708e-08
3.79961e-10
3.20791e-08
1.78048e-10
3.1944e-08
2.21181e-11
3.18497e-08
-5.44944e-11
3.17953e-08
-7.29879e-11
3.17777e-08
-7.83432e-11
3.17792e-08
-7.13948e-11
3.17843e-08
-4.79418e-11
3.17882e-08
-2.95521e-11
3.17889e-08
-1.54954e-11
3.17861e-08
-4.68386e-12
3.17808e-08
1.8745e-12
3.17741e-08
4.99213e-12
3.17667e-08
6.65824e-12
3.17595e-08
7.23658e-12
3.17526e-08
7.35021e-12
3.1746e-08
7.55119e-12
3.17396e-08
7.64878e-12
3.17335e-08
7.53065e-12
3.17277e-08
7.37351e-12
3.17222e-08
7.20264e-12
3.1717e-08
6.95653e-12
3.1712e-08
6.66689e-12
3.17074e-08
6.36688e-12
3.1703e-08
6.05262e-12
3.16989e-08
5.73268e-12
3.1695e-08
5.41831e-12
3.16914e-08
5.10683e-12
3.1688e-08
4.80024e-12
3.16848e-08
4.50592e-12
3.16818e-08
4.22387e-12
3.16791e-08
3.95232e-12
3.16765e-08
3.69236e-12
3.16741e-08
3.44576e-12
3.16718e-08
3.21202e-12
3.16697e-08
2.99036e-12
3.16678e-08
2.78099e-12
3.1666e-08
2.58375e-12
3.16643e-08
2.3982e-12
3.16628e-08
2.22388e-12
3.16613e-08
2.06042e-12
3.166e-08
1.90728e-12
3.16588e-08
1.76403e-12
3.16576e-08
1.63024e-12
3.16566e-08
1.50539e-12
3.16556e-08
1.389e-12
3.16547e-08
1.28062e-12
3.16539e-08
1.1798e-12
3.16531e-08
1.08611e-12
3.16524e-08
9.9915e-13
3.16518e-08
9.1847e-13
3.16512e-08
8.43679e-13
3.16506e-08
7.74459e-13
3.16501e-08
7.1041e-13
3.16497e-08
6.51206e-13
3.16492e-08
5.96538e-13
3.16489e-08
5.46114e-13
3.16485e-08
4.99605e-13
3.16482e-08
4.56752e-13
3.16479e-08
4.17337e-13
3.16476e-08
3.81096e-13
3.16474e-08
3.47796e-13
3.16471e-08
3.17258e-13
3.16469e-08
2.89277e-13
3.16467e-08
2.63611e-13
3.16466e-08
2.40193e-13
3.16464e-08
2.18663e-13
3.16463e-08
1.99385e-13
3.16461e-08
1.81114e-13
3.1646e-08
1.65823e-13
3.16459e-08
1.49674e-13
3.16458e-08
1.38741e-13
3.16457e-08
1.23448e-13
3.16456e-08
1.16983e-13
3.16455e-08
1.02283e-13
3.16455e-08
9.89185e-14
3.16454e-08
8.66348e-14
3.16454e-08
8.36089e-14
3.16453e-08
7.53687e-14
3.16453e-08
7.12545e-14
3.16452e-08
6.8438e-14
3.16452e-08
5.9882e-14
3.16451e-08
6.54029e-14
3.16451e-08
5.31741e-14
6.06501e-14
3.74419e-08
2.52452e-09
-3.72456e-08
3.77584e-08
2.92712e-09
3.80774e-08
3.43459e-09
3.84737e-08
3.61483e-09
3.86927e-08
3.60604e-09
3.88975e-08
3.71008e-09
3.90445e-08
3.52313e-09
3.91336e-08
3.14562e-09
3.91277e-08
2.80018e-09
3.9088e-08
2.43922e-09
3.89525e-08
2.12312e-09
3.87285e-08
1.89959e-09
3.85181e-08
1.51308e-09
3.82906e-08
1.19289e-09
3.81033e-08
8.51091e-10
3.79102e-08
5.73078e-10
3.77363e-08
3.51962e-10
3.75738e-08
1.84646e-10
3.74287e-08
9.05978e-11
3.73137e-08
4.2035e-11
3.72271e-08
8.2449e-12
3.71641e-08
-8.38112e-12
3.71245e-08
-8.39874e-12
3.7099e-08
-4.00329e-12
3.70803e-08
3.17887e-12
3.70647e-08
1.09569e-11
3.70503e-08
1.62797e-11
3.70361e-08
1.91929e-11
3.70221e-08
2.06339e-11
3.70088e-08
2.05134e-11
3.69964e-08
1.97162e-11
3.69849e-08
1.90523e-11
3.69743e-08
1.83239e-11
3.69643e-08
1.7445e-11
3.69551e-08
1.66367e-11
3.69464e-08
1.5878e-11
3.69383e-08
1.50719e-11
3.69307e-08
1.42605e-11
3.69236e-08
1.34731e-11
3.6917e-08
1.26946e-11
3.69107e-08
1.19374e-11
3.6905e-08
1.12145e-11
3.68995e-08
1.05176e-11
3.68945e-08
9.84737e-12
3.68898e-08
9.21245e-12
3.68854e-08
8.61146e-12
3.68813e-08
8.03984e-12
3.68775e-08
7.4981e-12
3.6874e-08
6.98748e-12
3.68707e-08
6.50632e-12
3.68676e-08
6.05277e-12
3.68648e-08
5.62615e-12
3.68621e-08
5.22558e-12
3.68597e-08
4.84981e-12
3.68574e-08
4.4976e-12
3.68553e-08
4.16786e-12
3.68533e-08
3.85945e-12
3.68515e-08
3.57126e-12
3.68499e-08
3.30225e-12
3.68483e-08
3.05133e-12
3.68469e-08
2.81749e-12
3.68456e-08
2.59977e-12
3.68443e-08
2.3972e-12
3.68432e-08
2.2089e-12
3.68422e-08
2.03402e-12
3.68412e-08
1.87169e-12
3.68404e-08
1.72115e-12
3.68396e-08
1.58167e-12
3.68388e-08
1.45252e-12
3.68381e-08
1.33303e-12
3.68375e-08
1.22256e-12
3.68369e-08
1.12053e-12
3.68364e-08
1.02633e-12
3.68359e-08
9.39448e-13
3.68355e-08
8.59391e-13
3.68351e-08
7.85681e-13
3.68347e-08
7.17854e-13
3.68344e-08
6.55526e-13
3.68341e-08
5.98292e-13
3.68338e-08
5.45732e-13
3.68335e-08
4.97653e-13
3.68333e-08
4.53403e-13
3.68331e-08
4.13471e-13
3.68329e-08
3.75941e-13
3.68327e-08
3.43662e-13
3.68325e-08
3.10908e-13
3.68324e-08
2.86517e-13
3.68323e-08
2.56481e-13
3.68321e-08
2.39881e-13
3.6832e-08
2.12066e-13
3.68319e-08
2.00943e-13
3.68318e-08
1.77754e-13
3.68317e-08
1.68121e-13
3.68317e-08
1.5153e-13
3.68316e-08
1.41601e-13
3.68315e-08
1.32472e-13
3.68315e-08
1.19349e-13
3.68314e-08
1.18453e-13
3.68314e-08
1.05645e-13
1.06646e-13
3.90078e-08
2.36102e-09
-3.88443e-08
3.92817e-08
2.65331e-09
3.9524e-08
3.19226e-09
3.98513e-08
3.28749e-09
4.01244e-08
3.333e-09
4.04063e-08
3.42815e-09
4.04822e-08
3.44717e-09
4.0741e-08
2.88683e-09
4.08321e-08
2.70908e-09
4.09707e-08
2.30067e-09
4.0991e-08
2.10277e-09
4.09464e-08
1.94424e-09
4.09336e-08
1.5259e-09
4.08568e-08
1.26961e-09
4.07795e-08
9.28468e-10
4.06615e-08
6.91019e-10
4.05381e-08
4.75402e-10
4.04134e-08
3.09315e-10
4.02935e-08
2.10488e-10
4.01906e-08
1.44936e-10
4.01021e-08
9.67643e-11
4.00285e-08
6.51878e-11
3.99731e-08
4.70553e-11
3.99323e-08
3.6795e-11
3.99012e-08
3.42209e-11
3.98764e-08
3.58011e-11
3.98551e-08
3.75941e-11
3.98352e-08
3.90319e-11
3.98163e-08
3.95481e-11
3.97986e-08
3.82404e-11
3.97822e-08
3.61115e-11
3.97671e-08
3.41272e-11
3.97534e-08
3.20946e-11
3.97408e-08
3.00444e-11
3.97291e-08
2.8264e-11
3.97184e-08
2.66541e-11
3.97084e-08
2.50727e-11
3.96991e-08
2.35675e-11
3.96904e-08
2.2146e-11
3.96823e-08
2.07716e-11
3.96748e-08
1.9461e-11
3.96678e-08
1.82265e-11
3.96612e-08
1.70501e-11
3.96551e-08
1.59303e-11
3.96495e-08
1.48771e-11
3.96442e-08
1.38859e-11
3.96393e-08
1.29486e-11
3.96347e-08
1.20646e-11
3.96305e-08
1.12343e-11
3.96265e-08
1.04543e-11
3.96229e-08
9.72107e-12
3.96195e-08
9.03296e-12
3.96163e-08
8.38801e-12
3.96134e-08
7.78387e-12
3.96106e-08
7.21832e-12
3.96081e-08
6.68935e-12
3.96058e-08
6.19499e-12
3.96036e-08
5.73334e-12
3.96016e-08
5.30256e-12
3.95998e-08
4.9009e-12
3.95981e-08
4.52665e-12
3.95965e-08
4.17823e-12
3.9595e-08
3.85406e-12
3.95937e-08
3.55271e-12
3.95925e-08
3.27277e-12
3.95913e-08
3.01289e-12
3.95903e-08
2.77182e-12
3.95893e-08
2.54838e-12
3.95884e-08
2.34142e-12
3.95876e-08
2.14986e-12
3.95868e-08
1.9727e-12
3.95861e-08
1.80896e-12
3.95855e-08
1.65774e-12
3.95849e-08
1.51819e-12
3.95844e-08
1.38951e-12
3.95839e-08
1.27096e-12
3.95835e-08
1.16181e-12
3.95831e-08
1.06142e-12
3.95827e-08
9.69157e-13
3.95824e-08
8.84379e-13
3.95821e-08
8.06741e-13
3.95818e-08
7.35258e-13
3.95815e-08
6.70546e-13
3.95813e-08
6.09925e-13
3.95811e-08
5.57211e-13
3.95809e-08
5.0458e-13
3.95807e-08
4.63892e-13
3.95805e-08
4.16314e-13
3.95804e-08
3.87232e-13
3.95803e-08
3.4396e-13
3.95801e-08
3.23077e-13
3.958e-08
2.87101e-13
3.95799e-08
2.69123e-13
3.95798e-08
2.42639e-13
3.95798e-08
2.2556e-13
3.95797e-08
2.08438e-13
3.95796e-08
1.90517e-13
3.95795e-08
1.81367e-13
3.95795e-08
1.68181e-13
1.5997e-13
4.06083e-08
2.25153e-09
-4.04989e-08
4.08593e-08
2.40232e-09
4.10873e-08
2.96429e-09
4.12288e-08
3.14602e-09
4.16493e-08
2.91252e-09
4.17568e-08
3.32061e-09
4.19945e-08
3.20944e-09
4.22328e-08
2.64854e-09
4.23395e-08
2.60244e-09
4.24484e-08
2.19169e-09
4.24879e-08
2.0633e-09
4.25132e-08
1.919e-09
4.25146e-08
1.52444e-09
4.24933e-08
1.2909e-09
4.24605e-08
9.61307e-10
4.23907e-08
7.60809e-10
4.23144e-08
5.51687e-10
4.22257e-08
3.97982e-10
4.21309e-08
3.05365e-10
4.20466e-08
2.29165e-10
4.19735e-08
1.69875e-10
4.19097e-08
1.29005e-10
4.18572e-08
9.95579e-11
4.18143e-08
7.96642e-11
4.17784e-08
7.01898e-11
4.17482e-08
6.60063e-11
4.17224e-08
6.33222e-11
4.16993e-08
6.21452e-11
4.16779e-08
6.09293e-11
4.16581e-08
5.80292e-11
4.16398e-08
5.44511e-11
4.16229e-08
5.10492e-11
4.16074e-08
4.75294e-11
4.15934e-08
4.41148e-11
4.15804e-08
4.11928e-11
4.15685e-08
3.85715e-11
4.15575e-08
3.60801e-11
4.15473e-08
3.37817e-11
4.15378e-08
3.16436e-11
4.1529e-08
2.9599e-11
4.15208e-08
2.76724e-11
4.15131e-08
2.58723e-11
4.1506e-08
2.41665e-11
4.14994e-08
2.25514e-11
4.14932e-08
2.10393e-11
4.14875e-08
1.9621e-11
4.14822e-08
1.82835e-11
4.14772e-08
1.70256e-11
4.14726e-08
1.58467e-11
4.14683e-08
1.47409e-11
4.14643e-08
1.37032e-11
4.14606e-08
1.27306e-11
4.14572e-08
1.18199e-11
4.1454e-08
1.09676e-11
4.1451e-08
1.01703e-11
4.14483e-08
9.42496e-12
4.14458e-08
8.72874e-12
4.14434e-08
8.07882e-12
4.14413e-08
7.47251e-12
4.14393e-08
6.90729e-12
4.14374e-08
6.38073e-12
4.14357e-08
5.89054e-12
4.14341e-08
5.4345e-12
4.14327e-08
5.01053e-12
4.14313e-08
4.61666e-12
4.14301e-08
4.251e-12
4.14289e-08
3.91176e-12
4.14279e-08
3.59728e-12
4.14269e-08
3.30594e-12
4.1426e-08
3.03623e-12
4.14252e-08
2.78673e-12
4.14245e-08
2.55608e-12
4.14238e-08
2.34301e-12
4.14232e-08
2.14633e-12
4.14226e-08
1.96492e-12
4.14221e-08
1.79774e-12
4.14216e-08
1.64375e-12
4.14211e-08
1.50207e-12
4.14207e-08
1.3718e-12
4.14204e-08
1.25206e-12
4.142e-08
1.14235e-12
4.14197e-08
1.04131e-12
4.14194e-08
9.49699e-13
4.14192e-08
8.64016e-13
4.1419e-08
7.89101e-13
4.14187e-08
7.14911e-13
4.14186e-08
6.56477e-13
4.14184e-08
5.89911e-13
4.14182e-08
5.47169e-13
4.14181e-08
4.87211e-13
4.14179e-08
4.55583e-13
4.14178e-08
4.05828e-13
4.14177e-08
3.78661e-13
4.14176e-08
3.41443e-13
4.14175e-08
3.16625e-13
4.14174e-08
2.90661e-13
4.14174e-08
2.67664e-13
4.14173e-08
2.4975e-13
4.14172e-08
2.35402e-13
2.17212e-13
4.22609e-08
2.14745e-09
-4.21569e-08
4.23973e-08
2.26597e-09
4.27157e-08
2.64588e-09
4.27199e-08
3.14183e-09
4.32059e-08
2.4265e-09
4.32885e-08
3.23806e-09
4.35443e-08
2.95364e-09
4.36723e-08
2.52052e-09
4.38645e-08
2.41025e-09
4.39068e-08
2.14931e-09
4.39581e-08
2.01199e-09
4.40395e-08
1.83767e-09
4.3994e-08
1.56994e-09
4.40405e-08
1.24442e-09
4.40084e-08
9.93381e-10
4.39497e-08
8.19532e-10
4.38892e-08
6.1214e-10
4.38154e-08
4.71763e-10
4.37355e-08
3.85318e-10
4.36627e-08
3.01918e-10
4.35986e-08
2.33965e-10
4.35422e-08
1.85452e-10
4.34941e-08
1.47678e-10
4.34522e-08
1.21509e-10
4.34146e-08
1.07763e-10
4.33817e-08
9.89202e-11
4.33535e-08
9.15667e-11
4.33286e-08
8.70068e-11
4.33063e-08
8.3299e-11
4.32858e-08
7.84318e-11
4.32669e-08
7.344e-11
4.32492e-08
6.87334e-11
4.3233e-08
6.37473e-11
4.32181e-08
5.89533e-11
4.32045e-08
5.48495e-11
4.31919e-08
5.11353e-11
4.31803e-08
4.76551e-11
4.31696e-08
4.45103e-11
4.31596e-08
4.16093e-11
4.31504e-08
3.885e-11
4.31418e-08
3.62728e-11
4.31338e-08
3.38786e-11
4.31263e-08
3.1615e-11
4.31194e-08
2.94789e-11
4.31129e-08
2.74857e-11
4.3107e-08
2.56198e-11
4.31014e-08
2.38627e-11
4.30962e-08
2.2213e-11
4.30914e-08
2.06691e-11
4.30869e-08
1.92226e-11
4.30827e-08
1.78661e-11
4.30789e-08
1.65958e-11
4.30753e-08
1.54072e-11
4.30719e-08
1.42953e-11
4.30689e-08
1.32556e-11
4.3066e-08
1.22841e-11
4.30633e-08
1.13768e-11
4.30609e-08
1.05301e-11
4.30586e-08
9.7403e-12
4.30565e-08
9.00413e-12
4.30546e-08
8.31838e-12
4.30528e-08
7.68001e-12
4.30511e-08
7.08615e-12
4.30496e-08
6.53405e-12
4.30482e-08
6.02112e-12
4.30469e-08
5.54491e-12
4.30457e-08
5.1031e-12
4.30446e-08
4.69348e-12
4.30436e-08
4.31397e-12
4.30427e-08
3.96259e-12
4.30419e-08
3.6375e-12
4.30411e-08
3.33693e-12
4.30404e-08
3.05923e-12
4.30397e-08
2.80286e-12
4.30391e-08
2.56634e-12
4.30385e-08
2.34833e-12
4.3038e-08
2.14749e-12
4.30376e-08
1.96265e-12
4.30372e-08
1.79267e-12
4.30368e-08
1.6364e-12
4.30364e-08
1.49316e-12
4.30361e-08
1.36123e-12
4.30358e-08
1.2415e-12
4.30356e-08
1.12963e-12
4.30353e-08
1.0315e-12
4.30351e-08
9.34782e-13
4.30349e-08
8.57783e-13
4.30347e-08
7.71388e-13
4.30345e-08
7.14336e-13
4.30344e-08
6.36961e-13
4.30343e-08
5.94066e-13
4.30341e-08
5.29936e-13
4.3034e-08
4.93134e-13
4.30339e-08
4.44666e-13
4.30338e-08
4.11867e-13
4.30337e-08
3.76519e-13
4.30336e-08
3.4815e-13
4.30336e-08
3.21488e-13
4.30335e-08
3.05054e-13
2.76956e-13
4.39342e-08
2.04584e-09
-4.38326e-08
4.4054e-08
2.14612e-09
4.43387e-08
2.36118e-09
4.44076e-08
3.073e-09
4.46967e-08
2.13733e-09
4.49443e-08
2.99047e-09
4.50494e-08
2.84855e-09
4.5291e-08
2.27889e-09
4.53898e-08
2.3115e-09
4.54104e-08
2.1287e-09
4.55201e-08
1.90233e-09
4.55937e-08
1.76403e-09
4.55324e-08
1.6313e-09
4.56105e-08
1.16628e-09
4.55844e-08
1.01947e-09
4.55266e-08
8.77339e-10
4.54694e-08
6.69373e-10
4.54005e-08
5.40613e-10
4.53333e-08
4.52542e-10
4.52731e-08
3.62092e-10
4.52183e-08
2.88817e-10
4.51676e-08
2.3614e-10
4.51216e-08
1.93622e-10
4.50795e-08
1.63604e-10
4.50404e-08
1.4693e-10
4.50054e-08
1.33914e-10
4.49752e-08
1.21761e-10
4.4949e-08
1.1322e-10
4.4926e-08
1.06223e-10
4.49055e-08
9.89263e-11
4.48864e-08
9.25454e-11
4.48685e-08
8.6683e-11
4.48519e-08
8.03263e-11
4.48366e-08
7.42456e-11
4.48225e-08
6.90042e-11
4.48094e-08
6.41607e-11
4.47974e-08
5.96443e-11
4.47863e-08
5.56262e-11
4.4776e-08
5.193e-11
4.47664e-08
4.84208e-11
4.47575e-08
4.51688e-11
4.47493e-08
4.21613e-11
4.47416e-08
3.93184e-11
4.47344e-08
3.66414e-11
4.47277e-08
3.41515e-11
4.47215e-08
3.1823e-11
4.47158e-08
2.96313e-11
4.47104e-08
2.75761e-11
4.47054e-08
2.5655e-11
4.47008e-08
2.3856e-11
4.46965e-08
2.21699e-11
4.46925e-08
2.05917e-11
4.46888e-08
1.91157e-11
4.46853e-08
1.77355e-11
4.46821e-08
1.64452e-11
4.46792e-08
1.52398e-11
4.46764e-08
1.41143e-11
4.46739e-08
1.30641e-11
4.46716e-08
1.20846e-11
4.46694e-08
1.11717e-11
4.46674e-08
1.03214e-11
4.46655e-08
9.52987e-12
4.46638e-08
8.79352e-12
4.46623e-08
8.10897e-12
4.46608e-08
7.47296e-12
4.46595e-08
6.88248e-12
4.46582e-08
6.33462e-12
4.46571e-08
5.82665e-12
4.46561e-08
5.356e-12
4.46551e-08
4.9202e-12
4.46542e-08
4.51697e-12
4.46534e-08
4.14413e-12
4.46527e-08
3.79962e-12
4.4652e-08
3.48154e-12
4.46514e-08
3.18805e-12
4.46508e-08
2.9175e-12
4.46503e-08
2.66823e-12
4.46498e-08
2.43878e-12
4.46494e-08
2.22776e-12
4.4649e-08
2.03371e-12
4.46486e-08
1.85581e-12
4.46483e-08
1.69195e-12
4.4648e-08
1.54316e-12
4.46477e-08
1.40421e-12
4.46475e-08
1.28208e-12
4.46472e-08
1.16209e-12
4.4647e-08
1.06588e-12
4.46468e-08
9.59e-13
4.46467e-08
8.87145e-13
4.46465e-08
7.91769e-13
4.46464e-08
7.37221e-13
4.46462e-08
6.58237e-13
4.46461e-08
6.11466e-13
4.4646e-08
5.51355e-13
4.46459e-08
5.10374e-13
4.46458e-08
4.65217e-13
4.46457e-08
4.31232e-13
4.46457e-08
3.95878e-13
4.46456e-08
3.76565e-13
3.38765e-13
4.56729e-08
1.96268e-09
-4.55897e-08
4.57875e-08
2.03154e-09
4.59686e-08
2.18005e-09
4.61679e-08
2.87369e-09
4.62813e-08
2.02398e-09
4.6619e-08
2.65272e-09
4.66886e-08
2.77894e-09
4.685e-08
2.11754e-09
4.7043e-08
2.11844e-09
4.70158e-08
2.15597e-09
4.71224e-08
1.79573e-09
4.71955e-08
1.69088e-09
4.72173e-08
1.60954e-09
4.72201e-08
1.16346e-09
4.71924e-08
1.04719e-09
4.71334e-08
9.36307e-10
4.70948e-08
7.0797e-10
4.70468e-08
5.88596e-10
4.69971e-08
5.02248e-10
4.69439e-08
4.15302e-10
4.68894e-08
3.43363e-10
4.68363e-08
2.89174e-10
4.67886e-08
2.41307e-10
4.67468e-08
2.05408e-10
4.67091e-08
1.84644e-10
4.66752e-08
1.67822e-10
4.66448e-08
1.52143e-10
4.66176e-08
1.40437e-10
4.65939e-08
1.29979e-10
4.6573e-08
1.19832e-10
4.65536e-08
1.11921e-10
4.65354e-08
1.04853e-10
4.65186e-08
9.71202e-11
4.6503e-08
8.98576e-11
4.64885e-08
8.35567e-11
4.6475e-08
7.75655e-11
4.64627e-08
7.1987e-11
4.64512e-08
6.70887e-11
4.64406e-08
6.25718e-11
4.64307e-08
5.82793e-11
4.64216e-08
5.43337e-11
4.6413e-08
5.06974e-11
4.64051e-08
4.72545e-11
4.63977e-08
4.40187e-11
4.63909e-08
4.10186e-11
4.63845e-08
3.82143e-11
4.63785e-08
3.5574e-11
4.6373e-08
3.31009e-11
4.63679e-08
3.07916e-11
4.63631e-08
2.86297e-11
4.63587e-08
2.66038e-11
4.63545e-08
2.47084e-11
4.63507e-08
2.29364e-11
4.63472e-08
2.12797e-11
4.63439e-08
1.97312e-11
4.63408e-08
1.82848e-11
4.6338e-08
1.69346e-11
4.63354e-08
1.56747e-11
4.6333e-08
1.44998e-11
4.63308e-08
1.34049e-11
4.63287e-08
1.2385e-11
4.63268e-08
1.14356e-11
4.6325e-08
1.05525e-11
4.63234e-08
9.73145e-12
4.63219e-08
8.96866e-12
4.63205e-08
8.26045e-12
4.63193e-08
7.60334e-12
4.63181e-08
6.99405e-12
4.6317e-08
6.4295e-12
4.6316e-08
5.90674e-12
4.63151e-08
5.423e-12
4.63143e-08
4.9757e-12
4.63135e-08
4.56236e-12
4.63128e-08
4.18071e-12
4.63122e-08
3.82855e-12
4.63116e-08
3.50386e-12
4.63111e-08
3.2047e-12
4.63106e-08
2.9293e-12
4.63101e-08
2.67598e-12
4.63097e-08
2.44302e-12
4.63094e-08
2.22942e-12
4.6309e-08
2.03266e-12
4.63087e-08
1.85393e-12
4.63084e-08
1.68709e-12
4.63082e-08
1.54023e-12
4.63079e-08
1.39626e-12
4.63077e-08
1.28027e-12
4.63075e-08
1.15228e-12
4.63073e-08
1.06517e-12
4.63072e-08
9.51251e-13
4.6307e-08
8.84696e-13
4.63069e-08
7.90409e-13
4.63068e-08
7.33369e-13
4.63067e-08
6.61254e-13
4.63066e-08
6.11861e-13
4.63065e-08
5.56578e-13
4.63064e-08
5.16715e-13
4.63063e-08
4.72659e-13
4.63062e-08
4.49866e-13
4.02467e-13
4.74593e-08
1.86365e-09
-4.73603e-08
4.75558e-08
1.93504e-09
4.7693e-08
2.04278e-09
4.79521e-08
2.61462e-09
4.79572e-08
2.0189e-09
4.83124e-08
2.2975e-09
4.84056e-08
2.6858e-09
4.84867e-08
2.03642e-09
4.86701e-08
1.93506e-09
4.87469e-08
2.07915e-09
4.87959e-08
1.7467e-09
4.88593e-08
1.62744e-09
4.89005e-08
1.56833e-09
4.88977e-08
1.16629e-09
4.88695e-08
1.07544e-09
4.88309e-08
9.74832e-10
4.87899e-08
7.49025e-10
4.87508e-08
6.27639e-10
4.87113e-08
5.41746e-10
4.86665e-08
4.60107e-10
4.86163e-08
3.9362e-10
4.85625e-08
3.42934e-10
4.85123e-08
2.91514e-10
4.84694e-08
2.48295e-10
4.84334e-08
2.20628e-10
4.84026e-08
1.98635e-10
4.83742e-08
1.8062e-10
4.8347e-08
1.6758e-10
4.83225e-08
1.5445e-10
4.83008e-08
1.41556e-10
4.82807e-08
1.32038e-10
4.82621e-08
1.23494e-10
4.8245e-08
1.14183e-10
4.82291e-08
1.05777e-10
4.82142e-08
9.84667e-11
4.82004e-08
9.12912e-11
4.81878e-08
8.46387e-11
4.8176e-08
7.88728e-11
4.81651e-08
7.35128e-11
4.81549e-08
6.84044e-11
4.81455e-08
6.37521e-11
4.81367e-08
5.94745e-11
4.81286e-08
5.54106e-11
4.8121e-08
5.15987e-11
4.8114e-08
4.80775e-11
4.81074e-08
4.4785e-11
4.81013e-08
4.16826e-11
4.80956e-08
3.87799e-11
4.80903e-08
3.60722e-11
4.80854e-08
3.35373e-11
4.80808e-08
3.11621e-11
4.80766e-08
2.89407e-11
4.80727e-08
2.68645e-11
4.8069e-08
2.49235e-11
4.80657e-08
2.31096e-11
4.80625e-08
2.14155e-11
4.80596e-08
1.98341e-11
4.8057e-08
1.83587e-11
4.80545e-08
1.69829e-11
4.80522e-08
1.57007e-11
4.80501e-08
1.45065e-11
4.80481e-08
1.33949e-11
4.80463e-08
1.23608e-11
4.80446e-08
1.13995e-11
4.80431e-08
1.05064e-11
4.80417e-08
9.6771e-12
4.80404e-08
8.90767e-12
4.80392e-08
8.19422e-12
4.80381e-08
7.53313e-12
4.8037e-08
6.92096e-12
4.80361e-08
6.35446e-12
4.80353e-08
5.83061e-12
4.80345e-08
5.34652e-12
4.80338e-08
4.89951e-12
4.80331e-08
4.48701e-12
4.80325e-08
4.10668e-12
4.80319e-08
3.75623e-12
4.80314e-08
3.43357e-12
4.8031e-08
3.13678e-12
4.80306e-08
2.86382e-12
4.80302e-08
2.61351e-12
4.80298e-08
2.38294e-12
4.80295e-08
2.17342e-12
4.80292e-08
1.97791e-12
4.80289e-08
1.80562e-12
4.80287e-08
1.637e-12
4.80285e-08
1.50066e-12
4.80283e-08
1.35099e-12
4.80281e-08
1.24818e-12
4.80279e-08
1.1152e-12
4.80278e-08
1.03631e-12
4.80276e-08
9.26283e-13
4.80275e-08
8.58691e-13
4.80274e-08
7.74223e-13
4.80273e-08
7.16178e-13
4.80272e-08
6.50525e-13
4.80271e-08
6.04471e-13
4.8027e-08
5.51676e-13
4.8027e-08
5.24957e-13
4.67924e-13
4.93007e-08
1.74047e-09
-4.91776e-08
4.93843e-08
1.85151e-09
4.95126e-08
1.91447e-09
4.97487e-08
2.37849e-09
4.97751e-08
1.99247e-09
5.00745e-08
1.99812e-09
5.01688e-08
2.59155e-09
5.02441e-08
1.96114e-09
5.03874e-08
1.79177e-09
5.04665e-08
2.00005e-09
5.05073e-08
1.70586e-09
5.05927e-08
1.54208e-09
5.06533e-08
1.50765e-09
5.06423e-08
1.17735e-09
5.06143e-08
1.10341e-09
5.06031e-08
9.86016e-10
5.05543e-08
7.97802e-10
5.05101e-08
6.71868e-10
5.047e-08
5.81814e-10
5.04331e-08
4.97071e-10
5.03951e-08
4.31643e-10
5.03524e-08
3.85607e-10
5.03082e-08
3.35725e-10
5.02649e-08
2.91609e-10
5.0226e-08
2.59503e-10
5.01936e-08
2.30998e-10
5.01648e-08
2.09405e-10
5.01377e-08
1.94695e-10
5.01134e-08
1.7878e-10
5.00915e-08
1.63409e-10
5.0071e-08
1.52606e-10
5.0052e-08
1.42482e-10
5.00347e-08
1.31452e-10
5.00185e-08
1.21989e-10
5.00033e-08
1.13705e-10
4.99893e-08
1.05277e-10
4.99764e-08
9.75522e-11
4.99643e-08
9.09527e-11
4.99531e-08
8.47269e-11
4.99427e-08
7.87706e-11
4.9933e-08
7.34075e-11
4.9924e-08
6.84796e-11
4.99157e-08
6.37721e-11
4.99079e-08
5.93683e-11
4.99007e-08
5.53176e-11
4.98939e-08
5.15256e-11
4.98877e-08
4.79475e-11
4.98818e-08
4.46045e-11
4.98764e-08
4.14893e-11
4.98714e-08
3.85721e-11
4.98667e-08
3.58382e-11
4.98624e-08
3.32825e-11
4.98583e-08
3.08944e-11
4.98546e-08
2.86619e-11
4.98511e-08
2.65756e-11
4.98479e-08
2.46274e-11
4.98449e-08
2.2809e-11
4.98422e-08
2.11125e-11
4.98396e-08
1.95305e-11
4.98373e-08
1.80562e-11
4.98351e-08
1.66831e-11
4.98331e-08
1.54051e-11
4.98312e-08
1.42162e-11
4.98295e-08
1.31109e-11
4.9828e-08
1.2084e-11
4.98265e-08
1.11305e-11
4.98252e-08
1.02459e-11
4.98239e-08
9.42556e-12
4.98228e-08
8.66542e-12
4.98218e-08
7.96151e-12
4.98208e-08
7.3101e-12
4.98199e-08
6.70771e-12
4.98191e-08
6.15102e-12
4.98184e-08
5.63696e-12
4.98177e-08
5.16257e-12
4.98171e-08
4.72515e-12
4.98165e-08
4.32207e-12
4.9816e-08
3.95094e-12
4.98155e-08
3.60955e-12
4.98151e-08
3.29554e-12
4.98147e-08
3.00757e-12
4.98144e-08
2.7423e-12
4.9814e-08
2.5012e-12
4.98137e-08
2.27628e-12
4.98135e-08
2.0779e-12
4.98132e-08
1.884e-12
4.9813e-08
1.72677e-12
4.98128e-08
1.55486e-12
4.98126e-08
1.43594e-12
4.98124e-08
1.28341e-12
4.98123e-08
1.19185e-12
4.98121e-08
1.06567e-12
4.9812e-08
9.87262e-13
4.98119e-08
8.9011e-13
4.98118e-08
8.23177e-13
4.98117e-08
7.46941e-13
4.98116e-08
6.94372e-13
4.98115e-08
6.32789e-13
4.98114e-08
6.01802e-13
5.35003e-13
5.11918e-08
1.65004e-09
-5.11013e-08
5.12834e-08
1.75988e-09
5.14087e-08
1.78912e-09
5.15928e-08
2.19438e-09
5.16709e-08
1.91441e-09
5.18133e-08
1.85572e-09
5.20514e-08
2.35347e-09
5.2078e-08
1.93455e-09
5.21718e-08
1.69798e-09
5.22904e-08
1.88144e-09
5.23062e-08
1.69004e-09
5.23991e-08
1.44918e-09
5.24527e-08
1.45405e-09
5.24371e-08
1.193e-09
5.24249e-08
1.1156e-09
5.24153e-08
9.95607e-10
5.23925e-08
8.20535e-10
5.23593e-08
7.051e-10
5.23159e-08
6.25192e-10
5.22724e-08
5.406e-10
5.2233e-08
4.7107e-10
5.21964e-08
4.22126e-10
5.2161e-08
3.71212e-10
5.21225e-08
3.30111e-10
5.20842e-08
2.97782e-10
5.20508e-08
2.6436e-10
5.20206e-08
2.39583e-10
5.19928e-08
2.22574e-10
5.19687e-08
2.02876e-10
5.19471e-08
1.84948e-10
5.19265e-08
1.73199e-10
5.19075e-08
1.61469e-10
5.18903e-08
1.48744e-10
5.18738e-08
1.3847e-10
5.18582e-08
1.29255e-10
5.1844e-08
1.19472e-10
5.18309e-08
1.10692e-10
5.18185e-08
1.03309e-10
5.18071e-08
9.61841e-11
5.17965e-08
8.93474e-11
5.17866e-08
8.32812e-11
5.17774e-08
7.76969e-11
5.17689e-08
7.23199e-11
5.17609e-08
6.7311e-11
5.17535e-08
6.27266e-11
5.17466e-08
5.84242e-11
5.17402e-08
5.4357e-11
5.17342e-08
5.05641e-11
5.17287e-08
4.70337e-11
5.17235e-08
4.37253e-11
5.17188e-08
4.06242e-11
5.17143e-08
3.77265e-11
5.17102e-08
3.50195e-11
5.17064e-08
3.24887e-11
5.17028e-08
3.01237e-11
5.16995e-08
2.79153e-11
5.16965e-08
2.58543e-11
5.16937e-08
2.39313e-11
5.16911e-08
2.21383e-11
5.16886e-08
2.04675e-11
5.16864e-08
1.89113e-11
5.16844e-08
1.74628e-11
5.16825e-08
1.61154e-11
5.16807e-08
1.48627e-11
5.16791e-08
1.36989e-11
5.16776e-08
1.26184e-11
5.16762e-08
1.16157e-11
5.1675e-08
1.0686e-11
5.16738e-08
9.82449e-12
5.16727e-08
9.02667e-12
5.16718e-08
8.28834e-12
5.16709e-08
7.60556e-12
5.167e-08
6.97456e-12
5.16693e-08
6.39185e-12
5.16686e-08
5.8541e-12
5.1668e-08
5.35823e-12
5.16674e-08
4.90129e-12
5.16669e-08
4.48054e-12
5.16664e-08
4.09349e-12
5.16659e-08
3.73746e-12
5.16655e-08
3.41095e-12
5.16652e-08
3.11017e-12
5.16648e-08
2.83673e-12
5.16645e-08
2.5817e-12
5.16642e-08
2.3566e-12
5.1664e-08
2.13684e-12
5.16638e-08
1.95821e-12
5.16635e-08
1.76354e-12
5.16634e-08
1.62813e-12
5.16632e-08
1.45559e-12
5.1663e-08
1.35106e-12
5.16629e-08
1.20835e-12
5.16628e-08
1.11887e-12
5.16626e-08
1.00872e-12
5.16625e-08
9.32671e-13
5.16624e-08
8.45662e-13
5.16623e-08
7.86274e-13
5.16622e-08
7.15831e-13
5.16622e-08
6.80315e-13
6.0357e-13
5.31448e-08
1.60227e-09
-5.3097e-08
5.32427e-08
1.66197e-09
5.33517e-08
1.68013e-09
5.35048e-08
2.04131e-09
5.3615e-08
1.80414e-09
5.37178e-08
1.753e-09
5.39262e-08
2.14505e-09
5.39664e-08
1.89431e-09
5.40534e-08
1.611e-09
5.41614e-08
1.77344e-09
5.42003e-08
1.6511e-09
5.42748e-08
1.3747e-09
5.4322e-08
1.40692e-09
5.42828e-08
1.23214e-09
5.43114e-08
1.087e-09
5.43079e-08
9.99111e-10
5.4297e-08
8.31494e-10
5.42682e-08
7.3389e-10
5.42261e-08
6.67234e-10
5.41827e-08
5.84077e-10
5.41409e-08