/*--------------------------------*- C++ -*----------------------------------*\
| =========                 |                                                 |
| \\      /  F ield         | OpenFOAM: The Open Source CFD Toolbox           |
|  \\    /   O peration     | Version:  2.3.0                                 |
|   \\  /    A nd           | Web:      www.OpenFOAM.org                      |
|    \\/     M anipulation  |                                                 |
\*---------------------------------------------------------------------------*/
FoamFile
{
    version     2.0;
    format      ascii;
    class       volScalarField;
    location    "0.65";
    object      p;
}
// * * * * * * * * * * * * * * * * * * * * * * * * * * * * * * * * * * * * * //

dimensions      [0 2 -2 0 0 0 0];

internalField   nonuniform List<scalar> 
2945
(
0.00221764
0.00127776
0.000581384
0.000113303
-0.000207266
-0.000409671
-0.000514755
-0.000552259
-0.00055178
-0.000534441
-0.000511978
-0.000489556
-0.000468799
-0.000449828
-0.000432307
-0.000415872
-0.000400258
-0.000385293
-0.000370879
-0.000356957
-0.000343493
-0.000330462
-0.000317849
-0.000305641
-0.000293828
-0.000282401
-0.000271355
-0.000260682
-0.000250378
-0.000240438
-0.000230858
-0.000221632
-0.000212756
-0.000204224
-0.000196032
-0.000188175
-0.000180644
-0.000173435
-0.00016654
-0.000159952
-0.000153662
-0.000147664
-0.000141947
-0.000136503
-0.000131322
-0.000126395
-0.000121709
-0.000117255
-0.000113021
-0.000108993
-0.00010516
-0.000101507
-9.80204e-05
-9.46838e-05
-9.14809e-05
-8.83939e-05
-8.54037e-05
-8.24898e-05
-7.96297e-05
-7.67995e-05
-7.39726e-05
-7.11205e-05
-6.82116e-05
-6.52114e-05
-6.2082e-05
-5.87817e-05
-5.52643e-05
-5.14786e-05
-4.73677e-05
-4.28678e-05
-3.79069e-05
-3.23957e-05
-2.63086e-05
-1.8724e-05
-1.58021e-05
0.00204089
0.00125305
0.000607856
0.00015297
-0.000166164
-0.000372229
-0.000483068
-0.000526571
-0.000531424
-0.000518427
-0.000499306
-0.000479366
-0.000460432
-0.000442809
-0.000426306
-0.000410662
-0.000395677
-0.000381224
-0.000367235
-0.000353671
-0.000340512
-0.000327744
-0.000315359
-0.000303351
-0.000291715
-0.000280445
-0.000269539
-0.000258992
-0.000248801
-0.000238964
-0.000229477
-0.000220336
-0.000211538
-0.000203078
-0.000194952
-0.000187155
-0.00017968
-0.000172523
-0.000165676
-0.000159133
-0.000152885
-0.000146926
-0.000141245
-0.000135836
-0.000130687
-0.000125789
-0.000121132
-0.000116705
-0.000112496
-0.000108492
-0.000104682
-0.000101051
-9.75845e-05
-9.42674e-05
-9.10832e-05
-8.80141e-05
-8.5041e-05
-8.21434e-05
-7.92991e-05
-7.64839e-05
-7.36715e-05
-7.08332e-05
-6.79376e-05
-6.49502e-05
-6.18331e-05
-5.85446e-05
-5.50383e-05
-5.12633e-05
-4.71624e-05
-4.26718e-05
-3.77193e-05
-3.22146e-05
-2.61366e-05
-1.84893e-05
-1.56734e-05
0.00186604
0.00121084
0.000624993
0.00019304
-0.000117747
-0.000325541
-0.000444112
-0.000496945
-0.000509963
-0.000503002
-0.000487914
-0.000470542
-0.000453253
-0.00043674
-0.000421045
-0.000406031
-0.000391561
-0.000377542
-0.000363923
-0.000350677
-0.000337793
-0.000325265
-0.000313089
-0.000301264
-0.00028979
-0.000278664
-0.000267886
-0.000257454
-0.000247367
-0.000237624
-0.000228221
-0.000219158
-0.000210431
-0.000202036
-0.00019397
-0.000186227
-0.000178804
-0.000171694
-0.000164891
-0.000158388
-0.000152179
-0.000146255
-0.000140608
-0.000135229
-0.00013011
-0.00012524
-0.000120609
-0.000116206
-0.00011202
-0.000108038
-0.000104249
-0.000100638
-9.71904e-05
-9.38914e-05
-9.07245e-05
-8.7672e-05
-8.47148e-05
-8.18326e-05
-7.9003e-05
-7.62021e-05
-7.34034e-05
-7.05785e-05
-6.76958e-05
-6.47209e-05
-6.1616e-05
-5.83392e-05
-5.48445e-05
-5.10805e-05
-4.69904e-05
-4.25102e-05
-3.75677e-05
-3.2074e-05
-2.59994e-05
-1.83661e-05
-1.59899e-05
0.00171087
0.00116254
0.000636435
0.000232535
-6.48645e-05
-0.000270611
-0.000395223
-0.000457474
-0.000479781
-0.000480397
-0.000470907
-0.000457474
-0.000442918
-0.000428329
-0.000414027
-0.000400057
-0.000386395
-0.000373019
-0.000359922
-0.000347107
-0.000334585
-0.000322363
-0.000310451
-0.000298854
-0.000287578
-0.000276628
-0.000266004
-0.000255711
-0.000245747
-0.000236115
-0.000226813
-0.000217841
-0.000209197
-0.000200878
-0.000192881
-0.000185202
-0.000177838
-0.000170782
-0.000164029
-0.000157573
-0.000151407
-0.000145523
-0.000139914
-0.000134571
-0.000129484
-0.000124645
-0.000120043
-0.000115668
-0.000111508
-0.000107551
-0.000103784
-0.000100195
-9.67688e-05
-9.34899e-05
-9.03421e-05
-8.73079e-05
-8.43683e-05
-8.1503e-05
-7.86898e-05
-7.59047e-05
-7.31214e-05
-7.03114e-05
-6.74433e-05
-6.44827e-05
-6.13918e-05
-5.81288e-05
-5.46475e-05
-5.0897e-05
-4.68203e-05
-4.23536e-05
-3.74251e-05
-3.19488e-05
-2.58816e-05
-1.83718e-05
-1.67095e-05
0.00156576
0.00110776
0.000641366
0.000268165
-1.33378e-05
-0.000214205
-0.000342457
-0.000412753
-0.000443957
-0.000452413
-0.000449099
-0.000440263
-0.000429058
-0.000416925
-0.000404461
-0.000391905
-0.00037936
-0.000366886
-0.000354528
-0.000342328
-0.00033032
-0.000318534
-0.000306993
-0.000295716
-0.000284717
-0.000274007
-0.000263596
-0.000253489
-0.000243692
-0.000234209
-0.000225041
-0.000216189
-0.000207654
-0.000199434
-0.000191528
-0.000183933
-0.000176644
-0.000169658
-0.00016297
-0.000156574
-0.000150463
-0.00014463
-0.000139069
-0.00013377
-0.000128725
-0.000123924
-0.000119359
-0.000115018
-0.00011089
-0.000106963
-0.000103225
-9.96628e-05
-9.6262e-05
-9.30074e-05
-8.98828e-05
-8.68708e-05
-8.39525e-05
-8.11077e-05
-7.83142e-05
-7.55483e-05
-7.27836e-05
-6.99918e-05
-6.71414e-05
-6.41984e-05
-6.11247e-05
-5.78789e-05
-5.44149e-05
-5.06818e-05
-4.66227e-05
-4.21746e-05
-3.72664e-05
-3.18171e-05
-2.57781e-05
-1.85165e-05
-1.77622e-05
0.00143287
0.00105008
0.000640069
0.000297871
3.31244e-05
-0.000161072
-0.000290779
-0.000367322
-0.000406287
-0.000422023
-0.000424717
-0.00042053
-0.00041283
-0.000403341
-0.000392906
-0.000381945
-0.000370682
-0.00035926
-0.000347777
-0.000336314
-0.000324933
-0.000313683
-0.000302604
-0.000291727
-0.000281078
-0.000270675
-0.000260535
-0.000250669
-0.000241086
-0.000231794
-0.000222798
-0.000214102
-0.000205708
-0.000197616
-0.000189826
-0.000182338
-0.000175147
-0.000168251
-0.000161645
-0.000155325
-0.000149285
-0.000143518
-0.000138017
-0.000132774
-0.000127782
-0.00012303
-0.00011851
-0.000114212
-0.000110124
-0.000106234
-0.000102532
-9.90031e-05
-9.56337e-05
-9.24089e-05
-8.93127e-05
-8.63277e-05
-8.34353e-05
-8.06153e-05
-7.78458e-05
-7.5103e-05
-7.23609e-05
-6.95911e-05
-6.67625e-05
-6.38409e-05
-6.07886e-05
-5.75643e-05
-5.4122e-05
-5.04111e-05
-4.63753e-05
-4.19523e-05
-3.70731e-05
-3.16639e-05
-2.56878e-05
-1.87918e-05
-1.902e-05
0.00131342
0.000991793
0.000633031
0.000321164
7.3472e-05
-0.000112851
-0.00024219
-0.000323212
-0.000368609
-0.000390785
-0.000399037
-0.000399313
-0.000395084
-0.00038828
-0.000379946
-0.000370659
-0.000360758
-0.000350462
-0.000339926
-0.000329266
-0.000318573
-0.000307917
-0.000297355
-0.000286932
-0.000276681
-0.000266631
-0.000256804
-0.000247218
-0.000237887
-0.000228823
-0.000220032
-0.000211523
-0.000203299
-0.000195362
-0.000187715
-0.000180356
-0.000173285
-0.0001665
-0.000159996
-0.00015377
-0.000147817
-0.000142131
-0.000136705
-0.000131532
-0.000126605
-0.000121914
-0.00011745
-0.000113204
-0.000109165
-0.000105322
-0.000101663
-9.81752e-05
-9.48443e-05
-9.16558e-05
-8.8594e-05
-8.56417e-05
-8.27805e-05
-7.99904e-05
-7.72497e-05
-7.45347e-05
-7.18197e-05
-6.90766e-05
-6.62741e-05
-6.33786e-05
-6.03525e-05
-5.71546e-05
-5.37394e-05
-5.00567e-05
-4.60509e-05
-4.1661e-05
-3.68214e-05
-3.14689e-05
-2.55967e-05
-1.91525e-05
-2.02766e-05
0.00120644
0.000934095
0.000620996
0.000338354
0.000107767
-6.98845e-05
-0.00019742
-0.000281369
-0.000331923
-0.000359654
-0.000372926
-0.000377375
-0.000376486
-0.000372322
-0.000366086
-0.000358492
-0.000349978
-0.000340836
-0.000331275
-0.000321447
-0.00031147
-0.000301437
-0.00029142
-0.000281475
-0.000271648
-0.000261976
-0.000252487
-0.000243206
-0.00023415
-0.000225335
-0.000216772
-0.00020847
-0.000200436
-0.000192675
-0.000185188
-0.000177978
-0.000171045
-0.000164387
-0.000158001
-0.000151885
-0.000146034
-0.000140442
-0.000135104
-0.000130014
-0.000125162
-0.000120543
-0.000116146
-0.000111963
-0.000107982
-0.000104194
-0.000100586
-9.71465e-05
-9.38611e-05
-9.07155e-05
-8.76943e-05
-8.47805e-05
-8.19561e-05
-7.92012e-05
-7.64943e-05
-7.38121e-05
-7.1129e-05
-6.84171e-05
-6.56457e-05
-6.27811e-05
-5.97862e-05
-5.66201e-05
-5.32379e-05
-4.95898e-05
-4.56215e-05
-4.12737e-05
-3.64858e-05
-3.12084e-05
-2.54783e-05
-1.95224e-05
-2.12876e-05
0.00111058
0.000877983
0.000605016
0.000350089
0.000136424
-3.20542e-05
-0.000156675
-0.000242223
-0.000296766
-0.000329188
-0.000346913
-0.000355199
-0.000357466
-0.000355852
-0.000351675
-0.000345759
-0.00033863
-0.000330649
-0.00032207
-0.000313084
-0.000303835
-0.000294435
-0.000284973
-0.000275519
-0.000266128
-0.000256845
-0.000247707
-0.000238741
-0.000229973
-0.000221419
-0.000213095
-0.000205012
-0.000197181
-0.000189605
-0.000182292
-0.000175242
-0.000168457
-0.000161937
-0.000155681
-0.000149684
-0.000143945
-0.000138458
-0.000133218
-0.000128219
-0.000123454
-0.000118914
-0.000114593
-0.000110479
-0.000106565
-0.000102838
-9.92887e-05
-9.59034e-05
-9.26694e-05
-8.95724e-05
-8.65971e-05
-8.3727e-05
-8.09441e-05
-7.8229e-05
-7.55605e-05
-7.29154e-05
-7.02686e-05
-6.75923e-05
-6.48563e-05
-6.20272e-05
-5.90683e-05
-5.59393e-05
-5.25958e-05
-4.8989e-05
-4.50657e-05
-4.07696e-05
-3.60456e-05
-3.08608e-05
-2.53001e-05
-1.98119e-05
-2.18282e-05
0.00102452
0.000824177
0.000586101
0.000357052
0.000159927
9.20677e-07
-0.000119915
-0.000205926
-0.000263396
-0.00029969
-0.000321301
-0.000333067
-0.00033828
-0.000339099
-0.000336921
-0.000332652
-0.000326896
-0.00032007
-0.000312474
-0.000304331
-0.000295813
-0.000287051
-0.000278149
-0.00026919
-0.000260241
-0.000251353
-0.000242571
-0.000233927
-0.000225451
-0.000217164
-0.000209086
-0.000201229
-0.000193605
-0.000186223
-0.000179088
-0.000172205
-0.000165575
-0.0001592
-0.000153079
-0.000147209
-0.000141588
-0.000136212
-0.000131077
-0.000126175
-0.000121501
-0.000117047
-0.000112806
-0.000108768
-0.000104925
-0.000101265
-9.77784e-05
-9.44522e-05
-9.12739e-05
-8.82295e-05
-8.53041e-05
-8.24813e-05
-7.97436e-05
-7.70718e-05
-7.44449e-05
-7.18404e-05
-6.92331e-05
-6.65959e-05
-6.38988e-05
-6.1109e-05
-5.81904e-05
-5.51031e-05
-5.18036e-05
-4.82441e-05
-4.43731e-05
-4.01373e-05
-3.54885e-05
-3.04105e-05
-2.5031e-05
-1.99385e-05
-2.17496e-05
0.000947026
0.00077307
0.000565104
0.000359894
0.00017876
2.93766e-05
-8.69964e-05
-0.000172506
-0.000231948
-0.000271338
-0.000296281
-0.000311157
-0.000319088
-0.000322208
-0.000321952
-0.000319289
-0.000314883
-0.0003092
-0.000302582
-0.000295282
-0.000287495
-0.000279372
-0.000271034
-0.000262574
-0.000254069
-0.000245581
-0.000237157
-0.000228839
-0.000220659
-0.000212644
-0.000204814
-0.000197186
-0.000189775
-0.000182589
-0.000175637
-0.000168924
-0.000162454
-0.000156227
-0.000150245
-0.000144506
-0.000139007
-0.000133746
-0.000128718
-0.000123917
-0.000119338
-0.000114974
-0.000110817
-0.000106858
-0.000103089
-9.94991e-05
-9.60779e-05
-9.28136e-05
-8.96937e-05
-8.67045e-05
-8.38314e-05
-8.10584e-05
-7.83681e-05
-7.57418e-05
-7.31589e-05
-7.0597e-05
-6.80316e-05
-6.54359e-05
-6.27804e-05
-6.00328e-05
-5.71576e-05
-5.41157e-05
-5.08645e-05
-4.73575e-05
-4.35452e-05
-3.93775e-05
-3.48131e-05
-2.98509e-05
-2.46482e-05
-1.98451e-05
-2.10143e-05
0.00087696
0.00072482
0.00054273
0.000359241
0.000193404
5.36627e-05
-5.77339e-05
-0.000141931
-0.000202495
-0.000244259
-0.00027199
-0.000289603
-0.000300009
-0.000305277
-0.000306853
-0.000305743
-0.000302655
-0.000298099
-0.000292449
-0.000285987
-0.000278931
-0.000271449
-0.000263676
-0.000255718
-0.000247661
-0.000239575
-0.000231514
-0.000223525
-0.000215646
-0.000207905
-0.000200327
-0.000192932
-0.000185736
-0.00017875
-0.000171984
-0.000165444
-0.000159136
-0.000153061
-0.00014722
-0.000141614
-0.000136241
-0.000131097
-0.00012618
-0.000121483
-0.000117001
-0.000112729
-0.000108658
-0.00010478
-0.000101087
-9.75692e-05
-9.42156e-05
-9.1015e-05
-8.79551e-05
-8.50227e-05
-8.22034e-05
-7.94815e-05
-7.684e-05
-7.42605e-05
-7.17229e-05
-6.92051e-05
-6.6683e-05
-6.41303e-05
-6.15182e-05
-5.88149e-05
-5.59856e-05
-5.29921e-05
-4.97927e-05
-4.63425e-05
-4.25941e-05
-3.85009e-05
-3.40276e-05
-2.91848e-05
-2.41417e-05
-1.95104e-05
-1.96979e-05
0.000813335
0.000679429
0.000519545
0.00035567
0.000204319
7.4122e-05
-3.19253e-05
-0.00011414
-0.000175074
-0.000218543
-0.000248541
-0.000268515
-0.00028114
-0.00028839
-0.000291691
-0.000292068
-0.00029026
-0.000286806
-0.000282111
-0.00027648
-0.00027015
-0.000263308
-0.000256102
-0.000248648
-0.000241042
-0.000233361
-0.000225668
-0.000218012
-0.000210436
-0.000202973
-0.000195652
-0.000188494
-0.000181516
-0.000174734
-0.000168157
-0.000161794
-0.000155651
-0.000149731
-0.000144035
-0.000138565
-0.00013332
-0.000128296
-0.000123491
-0.0001189
-0.000114519
-0.00011034
-0.000106357
-0.000102563
-9.89476e-05
-9.55029e-05
-9.22183e-05
-8.90827e-05
-8.60842e-05
-8.32098e-05
-8.04454e-05
-7.77757e-05
-7.5184e-05
-7.26523e-05
-7.01608e-05
-6.76881e-05
-6.52104e-05
-6.27021e-05
-6.01347e-05
-5.74773e-05
-5.46958e-05
-5.17531e-05
-4.86085e-05
-4.52187e-05
-4.15385e-05
-3.75246e-05
-3.3147e-05
-2.84227e-05
-2.35153e-05
-1.89487e-05
-1.79605e-05
0.000755299
0.0006368
0.000495986
0.000349699
0.00021194
9.10868e-05
-9.35987e-06
-8.90487e-05
-0.000149699
-0.000194261
-0.000226026
-0.000247987
-0.000262566
-0.000271618
-0.000276527
-0.000278314
-0.000277735
-0.000275352
-0.000271591
-0.000266779
-0.00026117
-0.000254966
-0.000248325
-0.000241377
-0.000234225
-0.000226953
-0.000219629
-0.000212311
-0.000205043
-0.000197863
-0.000190802
-0.000183885
-0.000177131
-0.000170556
-0.000164173
-0.00015799
-0.000152016
-0.000146254
-0.000140707
-0.000135376
-0.000130262
-0.000125361
-0.000120672
-0.00011619
-0.00011191
-0.000107828
-0.000103935
-0.000100226
-9.66906e-05
-9.33211e-05
-9.01072e-05
-8.70382e-05
-8.41025e-05
-8.12874e-05
-7.85791e-05
-7.59626e-05
-7.34219e-05
-7.0939e-05
-6.84949e-05
-6.60683e-05
-6.36362e-05
-6.11733e-05
-5.86521e-05
-5.60422e-05
-5.33105e-05
-5.04207e-05
-4.73336e-05
-4.40074e-05
-4.03991e-05
-3.64684e-05
-3.21891e-05
-2.75797e-05
-2.27834e-05
-1.81999e-05
-1.59989e-05
0.000702122
0.000596778
0.000472376
0.000341786
0.000216672
0.000104877
1.01768e-05
-6.65547e-05
-0.000126361
-0.000171461
-0.000204523
-0.000228105
-0.000244369
-0.000255033
-0.000261418
-0.000264527
-0.000265117
-0.000263765
-0.000260913
-0.000256903
-0.000252005
-0.000246432
-0.000240355
-0.000233912
-0.000227215
-0.000220354
-0.000213404
-0.000206427
-0.000199471
-0.000192579
-0.000185783
-0.000179111
-0.000172585
-0.000166222
-0.000160037
-0.000154039
-0.000148238
-0.000142638
-0.000137244
-0.000132056
-0.000127076
-0.000122302
-0.000117732
-0.000113362
-0.000109188
-0.000105204
-0.000101405
-9.77826e-05
-9.43299e-05
-9.10377e-05
-8.78966e-05
-8.48962e-05
-8.20251e-05
-7.92709e-05
-7.66204e-05
-7.40588e-05
-7.15704e-05
-6.91379e-05
-6.67424e-05
-6.43634e-05
-6.19783e-05
-5.95625e-05
-5.70892e-05
-5.45286e-05
-5.18487e-05
-4.90143e-05
-4.59874e-05
-4.2728e-05
-3.9195e-05
-3.53507e-05
-3.11713e-05
-2.66723e-05
-2.19662e-05
-1.7317e-05
-1.40008e-05
0.000653183
0.000559177
0.000448948
0.000332321
0.000218892
0.000115798
2.68993e-05
-4.65437e-05
-0.000105033
-0.000150176
-0.000184095
-0.000208943
-0.000226623
-0.0002387
-0.00024642
-0.000250751
-0.000252442
-0.000252074
-0.000250098
-0.000246869
-0.000242667
-0.000237716
-0.000232198
-0.000226258
-0.000220015
-0.000213568
-0.000206994
-0.000200361
-0.000193722
-0.000187121
-0.000180595
-0.000174173
-0.000167879
-0.000161733
-0.00015575
-0.000149943
-0.000144319
-0.000138887
-0.000133649
-0.000128609
-0.000123767
-0.000119124
-0.000114676
-0.000110422
-0.000106356
-0.000102475
-9.87718e-05
-9.52402e-05
-9.18726e-05
-8.86605e-05
-8.55948e-05
-8.26653e-05
-7.98611e-05
-7.71702e-05
-7.45794e-05
-7.20748e-05
-6.96407e-05
-6.72604e-05
-6.49155e-05
-6.2586e-05
-6.02498e-05
-5.78832e-05
-5.54598e-05
-5.29509e-05
-5.03252e-05
-4.75489e-05
-4.45853e-05
-4.13959e-05
-3.79416e-05
-3.41868e-05
-3.01084e-05
-2.57159e-05
-2.1086e-05
-1.63538e-05
-1.21128e-05
0.000607951
0.000523801
0.000425862
0.000321636
0.000218943
0.000124139
4.10197e-05
-2.88916e-05
-8.56697e-05
-0.000130421
-0.000164793
-0.000190567
-0.000209394
-0.000222683
-0.000231588
-0.000237033
-0.000239748
-0.000240308
-0.00023917
-0.000236694
-0.000233169
-0.000228829
-0.000223861
-0.00021842
-0.00021263
-0.000206595
-0.000200399
-0.000194113
-0.000187793
-0.000181488
-0.000175235
-0.000169068
-0.000163012
-0.000157087
-0.000151312
-0.000145699
-0.000140258
-0.000134997
-0.000129921
-0.000125033
-0.000120335
-0.000115826
-0.000111505
-0.00010737
-0.000103417
-9.9642e-05
-9.60387e-05
-9.2601e-05
-8.93217e-05
-8.61928e-05
-8.32054e-05
-8.03498e-05
-7.76152e-05
-7.49901e-05
-7.24617e-05
-7.00164e-05
-6.76391e-05
-6.53134e-05
-6.30214e-05
-6.07438e-05
-5.8459e-05
-5.61439e-05
-5.3773e-05
-5.13185e-05
-4.87501e-05
-4.60349e-05
-4.31379e-05
-4.0022e-05
-3.66499e-05
-3.29876e-05
-2.90118e-05
-2.47235e-05
-2.01633e-05
-1.53573e-05
-1.04271e-05
0.000565972
0.000490455
0.000403222
0.000310004
0.000217131
0.000130173
5.27456e-05
-1.34679e-05
-6.82158e-05
-0.000112196
-0.000146653
-0.000173033
-0.000192745
-0.00020704
-0.000216975
-0.000223418
-0.00022707
-0.000228497
-0.000228151
-0.000226395
-0.000223525
-0.000219779
-0.000215351
-0.000210402
-0.000205061
-0.000199438
-0.00019362
-0.000187682
-0.000181684
-0.000175677
-0.000169702
-0.000163794
-0.00015798
-0.000152282
-0.000146719
-0.000141306
-0.000136053
-0.000130968
-0.000126058
-0.000121327
-0.000116776
-0.000112407
-0.000108217
-0.000104206
-0.00010037
-9.67045e-05
-9.32048e-05
-8.98647e-05
-8.66774e-05
-8.36351e-05
-8.07293e-05
-7.79506e-05
-7.52887e-05
-7.27324e-05
-7.02694e-05
-6.78863e-05
-6.55685e-05
-6.33001e-05
-6.10639e-05
-5.88409e-05
-5.66103e-05
-5.43497e-05
-5.20343e-05
-4.96372e-05
-4.71293e-05
-4.44788e-05
-4.1652e-05
-3.86133e-05
-3.53273e-05
-3.17609e-05
-2.78896e-05
-2.37054e-05
-1.92157e-05
-1.43634e-05
-8.98399e-06
0.000526856
0.000458953
0.00038109
0.000297649
0.000213731
0.000134151
6.22777e-05
-1.38142e-07
-5.26029e-05
-9.54887e-05
-0.000129699
-0.000156384
-0.000176728
-0.000191825
-0.00020263
-0.000209949
-0.000214448
-0.000216672
-0.000217066
-0.000215994
-0.00021375
-0.000210578
-0.000206677
-0.00020221
-0.000197312
-0.000192097
-0.000186656
-0.000181067
-0.000175393
-0.000169687
-0.000163994
-0.000158348
-0.00015278
-0.000147313
-0.000141968
-0.000136759
-0.000131698
-0.000126795
-0.000122057
-0.000117487
-0.000113089
-0.000108863
-0.00010481
-0.000100927
-9.72115e-05
-9.36603e-05
-9.02682e-05
-8.70296e-05
-8.3938e-05
-8.0986e-05
-7.81654e-05
-7.54671e-05
-7.28813e-05
-7.0397e-05
-6.80025e-05
-6.56847e-05
-6.34295e-05
-6.12216e-05
-5.90441e-05
-5.68788e-05
-5.47055e-05
-5.25026e-05
-5.0246e-05
-4.79099e-05
-4.5466e-05
-4.2884e-05
-4.01313e-05
-3.71741e-05
-3.39781e-05
-3.05113e-05
-2.67473e-05
-2.26692e-05
-1.82569e-05
-1.33968e-05
-7.78355e-06
0.000490265
0.000429118
0.000359495
0.000284751
0.000208981
0.000136308
6.98082e-05
1.12338e-05
-3.87544e-05
-8.02726e-05
-0.000113942
-0.000140655
-0.000161389
-0.000177087
-0.000188602
-0.00019667
-0.000201916
-0.000204863
-0.000205941
-0.000205509
-0.00020386
-0.000201239
-0.000197846
-0.00019385
-0.000189387
-0.000184575
-0.000179509
-0.000174267
-0.000168918
-0.000163516
-0.000158106
-0.000152727
-0.000147409
-0.000142178
-0.000137054
-0.000132054
-0.000127191
-0.000122475
-0.000117912
-0.000113509
-0.000109268
-0.000105192
-0.000101279
-9.75288e-05
-9.39391e-05
-9.05064e-05
-8.72262e-05
-8.40932e-05
-8.11013e-05
-7.82434e-05
-7.55116e-05
-7.28975e-05
-7.03912e-05
-6.79825e-05
-6.56598e-05
-6.34106e-05
-6.12214e-05
-5.90772e-05
-5.69618e-05
-5.48575e-05
-5.2745e-05
-5.06031e-05
-4.8409e-05
-4.61375e-05
-4.37616e-05
-4.12521e-05
-3.85779e-05
-3.57064e-05
-3.26047e-05
-2.92415e-05
-2.55886e-05
-2.16209e-05
-1.72972e-05
-1.24723e-05
-6.80104e-06
0.000455905
0.000400786
0.000338446
0.000271453
0.000203087
0.000136854
7.55198e-05
2.07833e-05
-2.65869e-05
-6.65118e-05
-9.93826e-05
-0.00012587
-0.000146765
-0.000162869
-0.000174932
-0.000183619
-0.000189511
-0.0001931
-0.0001948
-0.00019496
-0.00019387
-0.000191772
-0.000188868
-0.000185327
-0.00018129
-0.000176874
-0.000172178
-0.000167283
-0.000162258
-0.00015716
-0.000152037
-0.000146927
-0.000141863
-0.000136871
-0.000131974
-0.000127188
-0.000122527
-0.000118003
-0.000113622
-0.00010939
-0.000105312
-0.000101389
-9.76212e-05
-9.40088e-05
-9.05493e-05
-8.72395e-05
-8.40756e-05
-8.10525e-05
-7.81644e-05
-7.54046e-05
-7.27657e-05
-7.02394e-05
-6.78164e-05
-6.54869e-05
-6.32396e-05
-6.10626e-05
-5.89428e-05
-5.68658e-05
-5.48159e-05
-5.27762e-05
-5.0728e-05
-4.8651e-05
-4.65231e-05
-4.43202e-05
-4.20164e-05
-3.95836e-05
-3.69922e-05
-3.4211e-05
-3.12083e-05
-2.79532e-05
-2.4416e-05
-2.05648e-05
-1.63441e-05
-1.15968e-05
-6.00024e-06
0.00042352
0.000373805
0.000317934
0.000257867
0.000196229
0.000135982
7.95844e-05
2.86447e-05
-1.60113e-05
-5.41605e-05
-8.60099e-05
-0.000112043
-0.000132886
-0.000149208
-0.000161659
-0.000170836
-0.000177267
-0.000181413
-0.000183669
-0.000184369
-0.000183797
-0.000182192
-0.000179753
-0.000176651
-0.000173026
-0.000168998
-0.000164666
-0.000160114
-0.000155413
-0.00015062
-0.000145784
-0.000140946
-0.000136139
-0.000131391
-0.000126724
-0.000122157
-0.000117703
-0.000113375
-0.00010918
-0.000105125
-0.000101214
-9.74501e-05
-9.38331e-05
-9.03631e-05
-8.70384e-05
-8.38563e-05
-8.08132e-05
-7.79043e-05
-7.51243e-05
-7.24668e-05
-6.99248e-05
-6.74903e-05
-6.51545e-05
-6.29078e-05
-6.07397e-05
-5.86386e-05
-5.65918e-05
-5.45857e-05
-5.2605e-05
-5.06336e-05
-4.86535e-05
-4.66451e-05
-4.45874e-05
-4.24572e-05
-4.02297e-05
-3.78782e-05
-3.53743e-05
-3.26881e-05
-2.97893e-05
-2.66473e-05
-2.3231e-05
-1.95039e-05
-1.54022e-05
-1.07717e-05
-5.3431e-06
0.000392882
0.000348038
0.000297937
0.000244076
0.000188553
0.00013386
8.21592e-05
3.49449e-05
-6.93868e-06
-4.31674e-05
-7.38043e-05
-9.91776e-05
-0.00011977
-0.00013613
-0.000148814
-0.000158347
-0.00016521
-0.000169826
-0.000172567
-0.000173751
-0.000173654
-0.000172507
-0.000170508
-0.000167824
-0.000164597
-0.000160947
-0.000156973
-0.00015276
-0.000148379
-0.000143891
-0.000139344
-0.00013478
-0.000130233
-0.000125732
-0.0001213
-0.000116956
-0.000112715
-0.000108588
-0.000104584
-0.000100711
-9.69729e-05
-9.33723e-05
-8.99108e-05
-8.65882e-05
-8.34032e-05
-8.03535e-05
-7.74357e-05
-7.46456e-05
-7.19781e-05
-6.94272e-05
-6.69862e-05
-6.46476e-05
-6.2403e-05
-6.02432e-05
-5.81581e-05
-5.61366e-05
-5.41667e-05
-5.22352e-05
-5.03276e-05
-4.84283e-05
-4.65201e-05
-4.45845e-05
-4.2601e-05
-4.05479e-05
-3.84012e-05
-3.61356e-05
-3.37239e-05
-3.11378e-05
-2.8348e-05
-2.53243e-05
-2.20351e-05
-1.84409e-05
-1.44747e-05
-9.99493e-06
-4.79528e-06
0.000363794
0.00032336
0.000278433
0.000230154
0.000180195
0.000130648
8.33986e-05
3.98124e-05
7.23118e-07
-3.3479e-05
-6.27471e-05
-8.72825e-05
-0.000107445
-0.000123675
-0.000136441
-0.000146202
-0.000153385
-0.00015838
-0.00016153
-0.000163139
-0.000163467
-0.00016274
-0.00016115
-0.000158862
-0.000156015
-0.000152729
-0.000149103
-0.000145223
-0.00014116
-0.000136974
-0.000132716
-0.000128427
-0.000124143
-0.000119892
-0.000115699
-0.000111582
-0.000107557
-0.000103636
-9.98291e-05
-9.61428e-05
-9.25823e-05
-8.91507e-05
-8.58497e-05
-8.26795e-05
-7.96392e-05
-7.67267e-05
-7.39391e-05
-7.12725e-05
-6.8722e-05
-6.62821e-05
-6.39465e-05
-6.1708e-05
-5.95587e-05
-5.74898e-05
-5.54917e-05
-5.35539e-05
-5.16648e-05
-4.98118e-05
-4.79812e-05
-4.6158e-05
-4.43259e-05
-4.24671e-05
-4.05623e-05
-3.85906e-05
-3.65293e-05
-3.43544e-05
-3.204e-05
-2.95592e-05
-2.68837e-05
-2.39843e-05
-2.08289e-05
-1.73769e-05
-1.35625e-05
-9.26221e-06
-4.32773e-06
0.000336053
0.000299626
0.000259358
0.000216119
0.000171241
0.000126471
8.34425e-05
4.33854e-05
7.09958e-06
-2.49884e-05
-5.27515e-05
-7.62896e-05
-9.58578e-05
-0.000111802
-0.00012451
-0.000134374
-0.000141774
-0.000147059
-0.000150548
-0.000152522
-0.000153229
-0.000152884
-0.000151673
-0.000149758
-0.000147274
-0.000144339
-0.000141053
-0.0001375
-0.00013375
-0.000129866
-0.000125896
-0.000121884
-0.000117865
-0.000113868
-0.000109917
-0.000106032
-0.000102228
-9.85185e-05
-9.4913e-05
-9.14188e-05
-8.80413e-05
-8.47839e-05
-8.16486e-05
-7.8636e-05
-7.57455e-05
-7.29753e-05
-7.03227e-05
-6.77842e-05
-6.53554e-05
-6.3031e-05
-6.08052e-05
-5.86711e-05
-5.66213e-05
-5.46475e-05
-5.27405e-05
-5.08903e-05
-4.9086e-05
-4.73156e-05
-4.5566e-05
-4.3823e-05
-4.20711e-05
-4.02934e-05
-3.84716e-05
-3.65858e-05
-3.46147e-05
-3.25354e-05
-3.03234e-05
-2.79531e-05
-2.53977e-05
-2.26286e-05
-1.96141e-05
-1.63142e-05
-1.26671e-05
-8.56999e-06
-3.91848e-06
0.000296023
0.000265118
0.00023119
0.000194808
0.000156897
0.000118772
8.17268e-05
4.67936e-05
1.46984e-05
-1.41123e-05
-3.943e-05
-6.12388e-05
-7.96664e-05
-9.49364e-05
-0.000107328
-0.000117144
-0.00012469
-0.000130261
-0.00013413
-0.000136548
-0.000137738
-0.000137899
-0.000137204
-0.000135806
-0.000133835
-0.000131405
-0.000128611
-0.000125537
-0.000122253
-0.000118818
-0.000115282
-0.000111688
-0.000108072
-0.000104461
-0.000100881
-9.73521e-05
-9.38896e-05
-9.05067e-05
-8.72134e-05
-8.40176e-05
-8.09249e-05
-7.79391e-05
-7.50627e-05
-7.22965e-05
-6.96405e-05
-6.70933e-05
-6.46527e-05
-6.23157e-05
-6.00784e-05
-5.79361e-05
-5.58835e-05
-5.39144e-05
-5.20221e-05
-5.01988e-05
-4.84363e-05
-4.67253e-05
-4.50559e-05
-4.3417e-05
-4.17965e-05
-4.01815e-05
-3.85577e-05
-3.69096e-05
-3.52205e-05
-3.34721e-05
-3.1645e-05
-2.97181e-05
-2.76693e-05
-2.54749e-05
-2.311e-05
-2.05479e-05
-1.77582e-05
-1.47034e-05
-1.13313e-05
-7.57134e-06
-3.36377e-06
0.000245528
0.000220946
0.000194161
0.000165494
0.000135524
0.000105158
7.53322e-05
4.68383e-05
2.02716e-05
-3.95809e-06
-2.5609e-05
-4.45853e-05
-6.09092e-05
-7.46908e-05
-8.60985e-05
-9.53356e-05
-0.000102621
-0.000108178
-0.000112221
-0.000114952
-0.00011656
-0.000117213
-0.000117062
-0.000116243
-0.000114873
-0.000113054
-0.000110877
-0.000108417
-0.00010574
-0.000102903
-9.99524e-05
-9.69298e-05
-9.38686e-05
-9.07971e-05
-8.77388e-05
-8.47132e-05
-8.17361e-05
-7.88201e-05
-7.59755e-05
-7.32099e-05
-7.05294e-05
-6.7938e-05
-6.54384e-05
-6.3032e-05
-6.07192e-05
-5.84991e-05
-5.63701e-05
-5.43299e-05
-5.23751e-05
-5.05021e-05
-4.87061e-05
-4.69819e-05
-4.53237e-05
-4.37249e-05
-4.21783e-05
-4.06758e-05
-3.92088e-05
-3.77676e-05
-3.63418e-05
-3.492e-05
-3.34899e-05
-3.20381e-05
-3.05498e-05
-2.90095e-05
-2.74001e-05
-2.57036e-05
-2.39006e-05
-2.19707e-05
-1.9892e-05
-1.76409e-05
-1.51912e-05
-1.2512e-05
-9.56654e-06
-6.31741e-06
-2.75018e-06
0.000194515
0.000175813
0.000155577
0.000133966
0.000111322
8.8241e-05
6.53669e-05
4.32656e-05
2.23889e-05
3.07457e-06
-1.44485e-05
-3.00528e-05
-4.3699e-05
-5.54186e-05
-6.52962e-05
-7.34524e-05
-8.00301e-05
-8.51833e-05
-8.90685e-05
-9.18389e-05
-9.36402e-05
-9.46075e-05
-9.48648e-05
-9.45238e-05
-9.36841e-05
-9.24339e-05
-9.08502e-05
-8.90004e-05
-8.69426e-05
-8.47268e-05
-8.23958e-05
-7.99859e-05
-7.75278e-05
-7.50473e-05
-7.25661e-05
-7.01019e-05
-6.76695e-05
-6.52807e-05
-6.29449e-05
-6.06697e-05
-5.84607e-05
-5.6322e-05
-5.42564e-05
-5.22656e-05
-5.03501e-05
-4.85098e-05
-4.67434e-05
-4.50493e-05
-4.34249e-05
-4.18672e-05
-4.03726e-05
-3.89366e-05
-3.75547e-05
-3.62213e-05
-3.49304e-05
-3.36756e-05
-3.24495e-05
-3.12443e-05
-3.00512e-05
-2.8861e-05
-2.76633e-05
-2.6447e-05
-2.52001e-05
-2.39097e-05
-2.25618e-05
-2.11414e-05
-1.96326e-05
-1.80186e-05
-1.62812e-05
-1.44013e-05
-1.23579e-05
-1.01288e-05
-7.69152e-06
-5.03116e-06
-2.15755e-06
0.000142419
0.00012919
0.000114958
9.97881e-05
8.38688e-05
6.75687e-05
5.13018e-05
3.54433e-05
2.03062e-05
6.139e-06
-6.87429e-06
-1.8614e-05
-2.90197e-05
-3.8082e-05
-4.58325e-05
-5.23331e-05
-5.76674e-05
-6.1932e-05
-6.52305e-05
-6.7668e-05
-6.93476e-05
-7.03677e-05
-7.08201e-05
-7.07891e-05
-7.03513e-05
-6.9575e-05
-6.85209e-05
-6.72425e-05
-6.57861e-05
-6.41921e-05
-6.24953e-05
-6.07252e-05
-5.89071e-05
-5.70623e-05
-5.52086e-05
-5.33609e-05
-5.15314e-05
-4.97301e-05
-4.7965e-05
-4.62425e-05
-4.45675e-05
-4.29436e-05
-4.13733e-05
-3.98582e-05
-3.83992e-05
-3.69961e-05
-3.56483e-05
-3.43547e-05
-3.31135e-05
-3.19225e-05
-3.07789e-05
-2.96795e-05
-2.86207e-05
-2.75985e-05
-2.66083e-05
-2.56451e-05
-2.47035e-05
-2.37773e-05
-2.28601e-05
-2.19446e-05
-2.10231e-05
-2.00871e-05
-1.91275e-05
-1.81345e-05
-1.70975e-05
-1.60052e-05
-1.48455e-05
-1.36057e-05
-1.22723e-05
-1.0831e-05
-9.26719e-06
-7.56656e-06
-5.71725e-06
-3.71618e-06
-1.57747e-06
8.8108e-05
8.01462e-05
7.16204e-05
6.25501e-05
5.30264e-05
4.32481e-05
3.34448e-05
2.38286e-05
1.45817e-05
5.85451e-06
-2.23547e-06
-9.60515e-06
-1.62048e-05
-2.20147e-05
-2.70405e-05
-3.13077e-05
-3.4857e-05
-3.77392e-05
-4.00115e-05
-4.17343e-05
-4.29682e-05
-4.37724e-05
-4.42034e-05
-4.43138e-05
-4.41518e-05
-4.37612e-05
-4.31812e-05
-4.24467e-05
-4.15882e-05
-4.06324e-05
-3.96024e-05
-3.85182e-05
-3.73966e-05
-3.62521e-05
-3.50969e-05
-3.39411e-05
-3.27932e-05
-3.16599e-05
-3.0547e-05
-2.94588e-05
-2.83988e-05
-2.73697e-05
-2.63733e-05
-2.54108e-05
-2.44829e-05
-2.35898e-05
-2.27312e-05
-2.19064e-05
-2.11144e-05
-2.03538e-05
-1.9623e-05
-1.892e-05
-1.82425e-05
-1.75879e-05
-1.69534e-05
-1.63359e-05
-1.57317e-05
-1.51372e-05
-1.4548e-05
-1.39597e-05
-1.33673e-05
-1.27655e-05
-1.21483e-05
-1.15097e-05
-1.08428e-05
-1.01405e-05
-9.39519e-06
-8.59879e-06
-7.74287e-06
-6.81873e-06
-5.81778e-06
-4.73229e-06
-3.55701e-06
-2.29301e-06
-9.52343e-07
3.00534e-05
2.73393e-05
2.44429e-05
2.13684e-05
1.81435e-05
1.48314e-05
1.15063e-05
8.23721e-06
5.08413e-06
2.09765e-06
-6.81793e-07
-3.22459e-06
-5.51189e-06
-7.53478e-06
-9.29294e-06
-1.0793e-05
-1.20471e-05
-1.30711e-05
-1.38835e-05
-1.45041e-05
-1.49534e-05
-1.52513e-05
-1.54171e-05
-1.54691e-05
-1.54241e-05
-1.52974e-05
-1.51027e-05