/*--------------------------------*- C++ -*----------------------------------*\
| =========                 |                                                 |
| \\      /  F ield         | OpenFOAM: The Open Source CFD Toolbox           |
|  \\    /   O peration     | Version:  2.3.0                                 |
|   \\  /    A nd           | Web:      www.OpenFOAM.org                      |
|    \\/     M anipulation  |                                                 |
\*---------------------------------------------------------------------------*/
FoamFile
{
    version     2.0;
    format      ascii;
    class       surfaceScalarField;
    location    "0.2";
    object      phi;
}
// * * * * * * * * * * * * * * * * * * * * * * * * * * * * * * * * * * * * * //

dimensions      [0 3 -1 0 0 0 0];

internalField   nonuniform List<scalar> 
5764
(
1.97173e-08
5.03699e-09
-2.47543e-08
1.46771e-08
5.04015e-09
1.08392e-08
3.83796e-09
8.26699e-09
2.57219e-09
6.6106e-09
1.65639e-09
5.59893e-09
1.01167e-09
5.03126e-09
5.67666e-10
4.66491e-09
3.66346e-10
4.38834e-09
2.76569e-10
4.16075e-09
2.27592e-10
3.95162e-09
2.09133e-10
3.76471e-09
1.86911e-10
3.60547e-09
1.59242e-10
3.46606e-09
1.39406e-10
3.34034e-09
1.25724e-10
3.22985e-09
1.10489e-10
3.13082e-09
9.90238e-11
3.03878e-09
9.2044e-11
2.95583e-09
8.29456e-11
2.88204e-09
7.37896e-11
2.81317e-09
6.88759e-11
2.75156e-09
6.16037e-11
2.69535e-09
5.62119e-11
2.64324e-09
5.21166e-11
2.59769e-09
4.55503e-11
2.55449e-09
4.31929e-11
2.5154e-09
3.9097e-11
2.48312e-09
3.22807e-11
2.45188e-09
3.12349e-11
2.42499e-09
2.68896e-11
2.40617e-09
1.88184e-11
2.38754e-09
1.86365e-11
2.37078e-09
1.67601e-11
2.36167e-09
9.10992e-12
2.35507e-09
6.60089e-12
2.34929e-09
5.77058e-12
2.34998e-09
-6.81478e-13
2.35567e-09
-5.6929e-12
2.3614e-09
-5.72647e-12
2.36793e-09
-6.53133e-12
2.37596e-09
-8.03157e-12
2.38226e-09
-6.30307e-12
2.38655e-09
-4.28482e-12
2.39096e-09
-4.41047e-12
2.39476e-09
-3.8037e-12
2.39723e-09
-2.47181e-12
2.39999e-09
-2.75606e-12
2.40349e-09
-3.5028e-12
2.40631e-09
-2.81517e-12
2.40849e-09
-2.18128e-12
2.41085e-09
-2.36334e-12
2.41307e-09
-2.22232e-12
2.41486e-09
-1.78675e-12
2.41675e-09
-1.89266e-12
2.4187e-09
-1.9506e-12
2.4202e-09
-1.49815e-12
2.42143e-09
-1.23147e-12
2.42266e-09
-1.23097e-12
2.42379e-09
-1.13068e-12
2.42476e-09
-9.66172e-13
2.42557e-09
-8.09671e-13
2.42628e-09
-7.05262e-13
2.42693e-09
-6.53784e-13
2.42747e-09
-5.43637e-13
2.42784e-09
-3.66489e-13
2.4282e-09
-3.5903e-13
2.42859e-09
-3.95359e-13
2.4289e-09
-3.02045e-13
2.42908e-09
-1.8691e-13
2.42929e-09
-2.10676e-13
2.42946e-09
-1.71204e-13
2.42959e-09
-1.2877e-13
2.42971e-09
-1.17892e-13
2.42982e-09
-1.09208e-13
-8.50094e-14
2.69339e-08
5.24274e-09
-2.71396e-08
2.55115e-08
6.46255e-09
2.35283e-08
5.82117e-09
2.13241e-08
4.77638e-09
1.91822e-08
3.7983e-09
1.73614e-08
2.83247e-09
1.59216e-08
2.0074e-09
1.47476e-08
1.54037e-09
1.37997e-08
1.22445e-09
1.30223e-08
1.00502e-09
1.23515e-08
8.79977e-10
1.17705e-08
7.67858e-10
1.12711e-08
6.58659e-10
1.08332e-08
5.77263e-10
1.04413e-08
5.17646e-10
1.00915e-08
4.60332e-10
9.77557e-09
4.14925e-10
9.48695e-09
3.80669e-10
9.22631e-09
3.43583e-10
8.99076e-09
3.09341e-10
8.77397e-09
2.85661e-10
8.57787e-09
2.5771e-10
8.39877e-09
2.35308e-10
8.23498e-09
2.15909e-10
8.0877e-09
1.92828e-10
7.95183e-09
1.79065e-10
7.8304e-09
1.60522e-10
7.72472e-09
1.37968e-10
7.62826e-09
1.27691e-10
7.54594e-09
1.09213e-10
7.47978e-09
8.49715e-11
7.42066e-09
7.77546e-11
7.37232e-09
6.51045e-11
7.33988e-09
4.15534e-11
7.31643e-09
3.00501e-11
7.30097e-09
2.12232e-11
7.29896e-09
1.33238e-12
7.30649e-09
-1.3224e-11
7.31626e-09
-1.54938e-11
7.32819e-09
-1.8457e-11
7.34172e-09
-2.15619e-11
7.35253e-09
-1.71136e-11
7.36076e-09
-1.25199e-11
7.36891e-09
-1.25555e-11
7.37591e-09
-1.08053e-11
7.38134e-09
-7.90678e-12
7.38732e-09
-8.73777e-12
7.39412e-09
-1.02991e-11
7.39999e-09
-8.68139e-12
7.40514e-09
-7.33746e-12
7.41042e-09
-7.6352e-12
7.41533e-09
-7.13604e-12
7.41968e-09
-6.14261e-12
7.4241e-09
-6.30445e-12
7.42831e-09
-6.16865e-12
7.43177e-09
-4.9515e-12
7.4348e-09
-4.26084e-12
7.43767e-09
-4.10792e-12
7.44023e-09
-3.68727e-12
7.4424e-09
-3.13361e-12
7.44424e-09
-2.64677e-12
7.44585e-09
-2.31909e-12
7.44729e-09
-2.09917e-12
7.44849e-09
-1.74304e-12
7.44941e-09
-1.28228e-12
7.45029e-09
-1.23658e-12
7.45114e-09
-1.25257e-12
7.45182e-09
-9.77149e-13
7.45231e-09
-6.78657e-13
7.4528e-09
-6.95462e-13
7.45318e-09
-5.59111e-13
7.45351e-09
-4.51638e-13
7.45378e-09
-3.95298e-13
7.45404e-09
-3.66991e-13
-2.62015e-13
2.84045e-08
4.77434e-09
-2.79361e-08
2.93905e-08
5.47658e-09
2.86294e-08
6.58229e-09
2.77967e-08
5.60906e-09
2.66598e-08
4.93523e-09
2.55325e-08
3.95979e-09
2.43681e-08
3.17175e-09
2.32367e-08
2.67181e-09
2.21977e-08
2.26343e-09
2.12612e-08
1.94154e-09
2.03938e-08
1.74736e-09
1.95971e-08
1.56455e-09
1.88773e-08
1.37839e-09
1.82282e-08
1.22643e-09
1.76374e-08
1.10841e-09
1.70989e-08
9.98904e-10
1.66028e-08
9.11013e-10
1.61436e-08
8.39868e-10
1.57234e-08
7.63707e-10
1.53397e-08
6.93084e-10
1.49846e-08
6.40716e-10
1.46598e-08
5.82519e-10
1.43609e-08
5.34267e-10
1.40862e-08
4.90611e-10
1.38368e-08
4.42227e-10
1.36066e-08
4.09237e-10
1.3399e-08
3.6814e-10
1.32145e-08
3.22408e-10
1.30464e-08
2.95807e-10
1.29004e-08
2.55197e-10
1.27781e-08
2.07333e-10
1.26694e-08
1.86402e-10
1.25791e-08
1.55481e-10
1.25118e-08
1.08784e-10
1.24601e-08
8.17783e-11
1.24223e-08
5.90533e-11
1.24031e-08
2.04656e-11
1.23983e-08
-8.37718e-12
1.23996e-08
-1.68279e-11
1.24052e-08
-2.39899e-11
1.24144e-08
-3.08327e-11
1.24222e-08
-2.49062e-11
1.24281e-08
-1.84297e-11
1.24346e-08
-1.90039e-11
1.24404e-08
-1.66e-11
1.2445e-08
-1.25396e-11
1.24506e-08
-1.43791e-11
1.24575e-08
-1.71986e-11
1.24638e-08
-1.49434e-11
1.24696e-08
-1.3161e-11
1.24758e-08
-1.3821e-11
1.24818e-08
-1.31126e-11
1.24873e-08
-1.16605e-11
1.2493e-08
-1.19748e-11
1.24985e-08
-1.16676e-11
1.25032e-08
-9.63876e-12
1.25074e-08
-8.45801e-12
1.25113e-08
-8.0606e-12
1.25148e-08
-7.20283e-12
1.25178e-08
-6.12799e-12
1.25204e-08
-5.17654e-12
1.25226e-08
-4.52004e-12
1.25245e-08
-4.05652e-12
1.25262e-08
-3.38089e-12
1.25274e-08
-2.56899e-12
1.25287e-08
-2.44849e-12
1.25298e-08
-2.41e-12
1.25307e-08
-1.90709e-12
1.25314e-08
-1.38335e-12
1.25321e-08
-1.36552e-12
1.25327e-08
-1.10014e-12
1.25331e-08
-9.07906e-13
1.25335e-08
-7.80876e-13
1.25339e-08
-7.33279e-13
-5.02361e-13
2.91749e-08
4.52532e-09
-2.89258e-08
2.97479e-08
4.90353e-09
2.99167e-08
6.41348e-09
3.06359e-08
4.88983e-09
2.98515e-08
5.71971e-09
2.96718e-08
4.13947e-09
2.91051e-08
3.73845e-09
2.84548e-08
3.32211e-09
2.77911e-08
2.92713e-09
2.71353e-08
2.59733e-09
2.64687e-08
2.41394e-09
2.58018e-08
2.23144e-09
2.51471e-08
2.0331e-09
2.45186e-08
1.85496e-09
2.39241e-08
1.70291e-09
2.3365e-08
1.55798e-09
2.28305e-08
1.44555e-09
2.23151e-08
1.35524e-09
2.18265e-08
1.2523e-09
2.13698e-08
1.14978e-09
2.09401e-08
1.07043e-09
2.05398e-08
9.8283e-10
2.01637e-08
9.10323e-10
1.9812e-08
8.42308e-10
1.94889e-08
7.65358e-10
1.91879e-08
7.10215e-10
1.89125e-08
6.43521e-10
1.86632e-08
5.71745e-10
1.84321e-08
5.26877e-10
1.82268e-08
4.60479e-10
1.80497e-08
3.84459e-10
1.7889e-08
3.47076e-10
1.77504e-08
2.94104e-10
1.764e-08
2.19226e-10
1.75494e-08
1.72401e-10
1.74764e-08
1.31983e-10
1.74258e-08
7.11129e-11
1.73933e-08
2.41163e-11
1.73707e-08
5.78273e-12
1.73566e-08
-9.88584e-12
1.73499e-08
-2.41626e-11
1.7345e-08
-1.99624e-11
1.73405e-08
-1.40052e-11
1.73385e-08
-1.69336e-11
1.73371e-08
-1.52457e-11
1.73358e-08
-1.12639e-11
1.73366e-08
-1.51853e-11
1.73396e-08
-2.02036e-11
1.73427e-08
-1.80106e-11
1.7346e-08
-1.64069e-11
1.73503e-08
-1.81667e-11
1.7355e-08
-1.78548e-11
1.73597e-08
-1.63463e-11
1.7365e-08
-1.72236e-11
1.73705e-08
-1.71389e-11
1.73754e-08
-1.45699e-11
1.738e-08
-1.30661e-11
1.73845e-08
-1.25312e-11
1.73886e-08
-1.12903e-11
1.73921e-08
-9.67667e-12
1.73951e-08
-8.16059e-12
1.73976e-08
-7.06538e-12
1.73999e-08
-6.30173e-12
1.74018e-08
-5.26082e-12
1.74032e-08
-4.04204e-12
1.74046e-08
-3.82682e-12
1.74059e-08
-3.73282e-12
1.7407e-08
-2.98228e-12
1.74078e-08
-2.20437e-12
1.74086e-08
-2.14057e-12
1.74092e-08
-1.72981e-12
1.74098e-08
-1.43699e-12
1.74102e-08
-1.22633e-12
1.74106e-08
-1.1638e-12
-7.8062e-13
3.01318e-08
4.34309e-09
-2.99496e-08
3.05564e-08
4.47895e-09
3.08311e-08
6.13879e-09
3.15518e-08
4.16917e-09
3.08751e-08
6.39642e-09
3.12803e-08
3.73425e-09
3.13068e-08
3.71189e-09
3.10692e-08
3.55979e-09
3.07776e-08
3.21866e-09
3.04725e-08
2.90245e-09
3.01332e-08
2.75329e-09
2.97639e-08
2.60073e-09
2.93581e-08
2.43885e-09
2.89286e-08
2.28446e-09
2.84977e-08
2.13383e-09
2.80801e-08
1.97562e-09
2.76666e-08
1.85897e-09
2.72457e-08
1.77618e-09
2.68214e-08
1.67659e-09
2.64069e-08
1.56428e-09
2.60052e-08
1.47214e-09
2.56233e-08
1.36474e-09
2.52541e-08
1.27952e-09
2.48966e-08
1.19975e-09
2.45601e-08
1.10187e-09
2.42414e-08
1.02897e-09
2.39452e-08
9.39659e-10
2.36724e-08
8.44564e-10
2.34133e-08
7.86024e-10
2.31766e-08
6.97198e-10
2.29674e-08
5.93616e-10
2.27718e-08
5.42648e-10
2.25955e-08
4.70451e-10
2.24472e-08
3.67476e-10
2.23195e-08
3.00102e-10
2.22098e-08
2.41726e-10
2.21232e-08
1.57727e-10
2.20567e-08
9.05616e-11
2.20021e-08
6.03856e-11
2.19585e-08
3.37175e-11
2.19259e-08
8.4552e-12
2.18992e-08
6.72283e-12
2.18763e-08
8.93423e-12
2.18586e-08
7.34285e-13
2.18442e-08
-8.16581e-13
2.18315e-08
1.38374e-12
2.18228e-08
-6.45537e-12
2.18178e-08
-1.52196e-11
2.18138e-08
-1.39893e-11
2.18108e-08
-1.33782e-11
2.18099e-08
-1.7341e-11
2.18106e-08
-1.84963e-11
2.18119e-08
-1.76476e-11
2.18145e-08
-1.97885e-11
2.1818e-08
-2.06608e-11
2.18216e-08
-1.81606e-11
2.18253e-08
-1.68351e-11
2.18294e-08
-1.6622e-11
2.18335e-08
-1.53758e-11
2.18373e-08
-1.34443e-11
2.18405e-08
-1.1377e-11
2.18432e-08
-9.74577e-12
2.18455e-08
-8.62544e-12
2.18474e-08
-7.18101e-12
2.18489e-08
-5.50046e-12
2.18502e-08
-5.18086e-12
2.18516e-08
-5.06444e-12
2.18527e-08
-4.07819e-12
2.18535e-08
-3.03363e-12
2.18543e-08
-2.92545e-12
2.18549e-08
-2.37149e-12
2.18554e-08
-1.96803e-12
2.18559e-08
-1.67522e-12
2.18563e-08
-1.60169e-12
-1.06123e-12
3.11622e-08
4.15733e-09
-3.09765e-08
3.13815e-08
4.25967e-09
3.19057e-08
5.61465e-09
3.18479e-08
4.22694e-09
3.2569e-08
5.67534e-09
3.24117e-08
3.89152e-09
3.24752e-08
3.64838e-09
3.24299e-08
3.60508e-09
3.23313e-08
3.31731e-09
3.22268e-08
3.00689e-09
3.2111e-08
2.86917e-09
3.19828e-08
2.72886e-09
3.18133e-08
2.60841e-09
3.16e-08
2.49774e-09
3.13654e-08
2.36842e-09
3.11333e-08
2.20773e-09
3.09007e-08
2.09152e-09
3.06495e-08
2.02738e-09
3.03722e-08
1.95395e-09
3.00817e-08
1.85472e-09
2.9786e-08
1.76783e-09
2.94997e-08
1.65108e-09
2.92153e-08
1.56391e-09
2.89268e-08
1.48827e-09
2.86441e-08
1.38457e-09
2.83679e-08
1.30513e-09
2.81066e-08
1.20105e-09
2.78628e-08
1.08828e-09
2.7625e-08
1.02381e-09
2.74009e-08
9.21331e-10
2.71993e-08
7.95217e-10
2.70043e-08
7.37672e-10
2.68196e-08
6.55178e-10
2.66563e-08
5.30767e-10
2.65094e-08
4.47005e-10
2.63766e-08
3.74489e-10
2.62642e-08
2.70141e-10
2.61713e-08
1.83452e-10
2.609e-08
1.41643e-10
2.60195e-08
1.04218e-10
2.59608e-08
6.71623e-11
2.591e-08
5.75553e-11
2.58655e-08
5.34773e-11
2.58287e-08
3.74427e-11
2.57976e-08
3.02901e-11
2.57704e-08
2.86735e-11
2.5749e-08
1.49098e-11
2.57333e-08
4.49023e-13
2.57199e-08
-5.90154e-13
2.57082e-08
-1.66782e-12
2.56994e-08
-8.54944e-12
2.56932e-08
-1.22644e-11
2.56887e-08
-1.3155e-11
2.56865e-08
-1.75486e-11
2.5686e-08
-2.02243e-11
2.56863e-08
-1.84813e-11
2.56875e-08
-1.7981e-11
2.56897e-08
-1.88852e-11
2.56928e-08
-1.8442e-11
2.56962e-08
-1.68065e-11
2.56993e-08
-1.44792e-11
2.57019e-08
-1.23301e-11
2.57041e-08
-1.08244e-11
2.57058e-08
-8.93951e-12
2.57071e-08
-6.73418e-12
2.57082e-08
-6.29481e-12
2.57093e-08
-6.21197e-12
2.57103e-08
-5.03973e-12
2.5711e-08
-3.74471e-12
2.57117e-08
-3.6067e-12
2.57122e-08
-2.93361e-12
2.57127e-08
-2.41522e-12
2.57131e-08
-2.06254e-12
2.57134e-08
-1.97516e-12
-1.29895e-12
3.21997e-08
3.94709e-09
-3.19894e-08
3.23469e-08
4.11246e-09
3.28251e-08
5.13648e-09
3.27585e-08
4.29349e-09
3.34608e-08
4.97309e-09
3.32748e-08
4.0775e-09
3.34199e-08
3.50329e-09
3.34279e-08
3.5971e-09
3.33864e-08
3.35878e-09
3.33597e-08
3.03356e-09
3.33422e-08
2.88667e-09
3.33252e-08
2.74584e-09
3.32791e-08
2.65454e-09
3.31978e-08
2.579e-09
3.30987e-08
2.46754e-09
3.30031e-08
2.30334e-09
3.29138e-08
2.18087e-09
3.28101e-08
2.13108e-09
3.26741e-08
2.0899e-09
3.25163e-08
2.01257e-09
3.23421e-08
1.94201e-09
3.21718e-08
1.82136e-09
3.19993e-08
1.73641e-09
3.18139e-08
1.67371e-09
3.16222e-08
1.57621e-09
3.14258e-08
1.50155e-09
3.12349e-08
1.39193e-09
3.10559e-08
1.26734e-09
3.08763e-08
1.20336e-09
3.07012e-08
1.09643e-09
3.05431e-08
9.5335e-10
3.03841e-08
8.96626e-10
3.02248e-08
8.1454e-10
3.00765e-08
6.79006e-10
2.99369e-08
5.86613e-10
2.98042e-08
5.07228e-10
2.96856e-08
3.88689e-10
2.95837e-08
2.85392e-10
2.94916e-08
2.33722e-10
2.94082e-08
1.87646e-10
2.93346e-08
1.4071e-10
2.92677e-08
1.24455e-10
2.9207e-08
1.14191e-10
2.91548e-08
8.96519e-11
2.91092e-08
7.59184e-11
2.90685e-08
6.93889e-11
2.90352e-08
4.82114e-11
2.90094e-08
2.61878e-11
2.89872e-08
2.16365e-11
2.8967e-08
1.85484e-11
2.89499e-08
8.55812e-12
2.8936e-08
1.57903e-12
2.89248e-08
-1.93752e-12
2.89167e-08
-9.44989e-12
2.89112e-08
-1.47232e-11
2.89068e-08
-1.40667e-11
2.89038e-08
-1.49375e-11
2.89026e-08
-1.77618e-11
2.89034e-08
-1.92048e-11
2.89054e-08
-1.87816e-11
2.89078e-08
-1.68589e-11
2.89099e-08
-1.44696e-11
2.89117e-08
-1.26765e-11
2.89132e-08
-1.03438e-11
2.8914e-08
-7.55424e-12
2.89146e-08
-6.96171e-12
2.89154e-08
-6.97352e-12
2.89161e-08
-5.68944e-12
2.89165e-08
-4.20096e-12
2.8917e-08
-4.06102e-12
2.89173e-08
-3.31929e-12
2.89176e-08
-2.68522e-12
2.89179e-08
-2.32313e-12
2.89181e-08
-2.20659e-12
-1.44442e-12
3.32333e-08
3.71582e-09
-3.3002e-08
3.33689e-08
3.97687e-09
3.37617e-08
4.74367e-09
3.38072e-08
4.24798e-09
3.4252e-08
4.52824e-09
3.42502e-08
4.07931e-09
3.43594e-08
3.39407e-09
3.4385e-08
3.57154e-09
3.43733e-08
3.37049e-09
3.43562e-08
3.05064e-09
3.43575e-08
2.88534e-09
3.43679e-08
2.7355e-09
3.43627e-08
2.65973e-09
3.434e-08
2.60165e-09
3.43081e-08
2.49944e-09
3.42837e-08
2.32773e-09
3.42668e-08
2.19777e-09
3.42458e-08
2.1521e-09
3.41965e-08
2.13914e-09
3.41307e-08
2.07841e-09
3.40464e-08
2.02629e-09
3.39666e-08
1.90115e-09
3.38845e-08
1.81856e-09
3.37888e-08
1.76943e-09
3.36835e-08
1.6815e-09
3.35681e-08
1.61687e-09
3.34521e-08
1.50796e-09
3.33435e-08
1.37598e-09
3.32306e-08
1.31621e-09
3.3116e-08
1.21107e-09
3.30159e-08
1.05344e-09
3.29102e-08
1.00232e-09
3.27961e-08
9.28677e-10
3.26838e-08
7.91262e-10
3.25726e-08
6.9784e-10
3.24604e-08
6.19442e-10
3.23546e-08
4.94513e-10
3.22608e-08
3.79106e-10
3.21745e-08
3.20039e-10
3.20946e-08
2.67578e-10
3.20219e-08
2.13449e-10
3.19527e-08
1.93636e-10
3.18872e-08
1.79621e-10
3.18288e-08
1.48141e-10
3.17759e-08
1.28752e-10
3.17275e-08
1.17834e-10
3.16867e-08
8.90208e-11
3.16546e-08
5.82251e-11
3.16271e-08
4.91335e-11
3.16016e-08
4.40405e-11
3.15788e-08
3.14044e-11
3.15589e-08
2.14283e-11
3.15419e-08
1.50754e-11
3.15286e-08
3.88909e-12
3.15184e-08
-4.56148e-12
3.15097e-08
-5.33143e-12
3.15024e-08
-7.65485e-12
3.1497e-08
-1.2313e-11
3.14942e-08
-1.64316e-11
3.14939e-08
-1.85093e-11
3.14949e-08
-1.78124e-11
3.14961e-08
-1.56908e-11
3.14973e-08
-1.39272e-11
3.14982e-08
-1.12109e-11
3.14985e-08
-7.82938e-12
3.14985e-08
-6.99478e-12
3.14988e-08
-7.20987e-12
3.14989e-08
-5.86504e-12
3.1499e-08
-4.27664e-12
3.14991e-08
-4.1918e-12
3.14993e-08
-3.43597e-12
3.14993e-08
-2.7147e-12
3.14993e-08
-2.37442e-12
3.14994e-08
-2.2507e-12
-1.44471e-12
3.42698e-08
3.51468e-09
-3.40687e-08
3.44268e-08
3.81982e-09
3.47422e-08
4.42829e-09
3.48661e-08
4.12407e-09
3.5099e-08
4.29537e-09
3.52228e-08
3.95547e-09
3.53055e-08
3.31145e-09
3.53548e-08
3.52216e-09
3.53708e-08
3.35454e-09
3.53535e-08
3.06792e-09
3.53647e-08
2.87418e-09
3.53639e-08
2.7363e-09
3.53725e-08
2.65113e-09
3.53662e-08
2.60791e-09
3.53571e-08
2.50857e-09
3.53598e-08
2.32502e-09
3.53715e-08
2.18605e-09
3.53792e-08
2.14446e-09
3.53645e-08
2.15376e-09
3.53461e-08
2.09683e-09
3.53105e-08
2.06191e-09
3.52832e-08
1.9285e-09
3.52516e-08
1.85015e-09
3.52097e-08
1.81131e-09
3.51622e-08
1.729e-09
3.51061e-08
1.673e-09
3.50473e-08
1.56675e-09
3.49931e-08
1.43018e-09
3.49322e-08
1.37704e-09
3.48665e-08
1.27682e-09
3.48173e-08
1.10268e-09
3.47603e-08
1.05925e-09
3.46913e-08
9.97689e-10
3.46187e-08
8.63827e-10
3.45426e-08
7.74021e-10
3.446e-08
7.02001e-10
3.43771e-08
5.77444e-10
3.43014e-08
4.54739e-10
3.42304e-08
3.91071e-10
3.41641e-08
3.33895e-10
3.41032e-08
2.74347e-10
3.4043e-08
2.53863e-10
3.39835e-08
2.39064e-10
3.39284e-08
2.03263e-10
3.38768e-08
1.80404e-10
3.38277e-08
1.66902e-10
3.37852e-08
1.31492e-10
3.37518e-08
9.16354e-11
3.37236e-08
7.73721e-11
3.36972e-08
7.03777e-11
3.36728e-08
5.58799e-11
3.36503e-08
4.3882e-11
3.363e-08
3.53495e-11
3.36134e-08
2.05087e-11
3.36003e-08
8.51247e-12
3.35888e-08
6.24418e-12
3.35782e-08
2.84954e-12
3.35695e-08
-3.51517e-12
3.35631e-08
-1.0122e-11
3.35598e-08
-1.51731e-11
3.35588e-08
-1.68012e-11
3.35588e-08
-1.57104e-11
3.35592e-08
-1.4322e-11
3.35594e-08
-1.1383e-11
3.3559e-08
-7.47926e-12
3.35584e-08
-6.39689e-12
3.3558e-08
-6.80934e-12
3.35576e-08
-5.46088e-12
3.35573e-08
-3.91205e-12
3.3557e-08
-3.93603e-12
3.35568e-08
-3.2192e-12
3.35565e-08
-2.46297e-12
3.35564e-08
-2.20262e-12
3.35562e-08
-2.07166e-12
-1.26842e-12
3.53296e-08
3.34323e-09
-3.51581e-08
3.54923e-08
3.65711e-09
3.57498e-08
4.17085e-09
3.59049e-08
3.96887e-09
3.60552e-08
4.1451e-09
3.62189e-08
3.7918e-09
3.62988e-08
3.23155e-09
3.63505e-08
3.47049e-09
3.63879e-08
3.31709e-09
3.63747e-08
3.08117e-09
3.63925e-08
2.85638e-09
3.63865e-08
2.74229e-09
3.63936e-08
2.64404e-09
3.63895e-08
2.61202e-09
3.6389e-08
2.50906e-09
3.64035e-08
2.3105e-09
3.64242e-08
2.16538e-09
3.64317e-08
2.13696e-09
3.64293e-08
2.15609e-09
3.64286e-08
2.0976e-09
3.64125e-08
2.07801e-09
3.64089e-08
1.93201e-09
3.63964e-08
1.86271e-09
3.63781e-08
1.82964e-09
3.63604e-08
1.74665e-09
3.63382e-08
1.69522e-09
3.63131e-08
1.59184e-09
3.62907e-08
1.4526e-09
3.62611e-08
1.40666e-09
3.62239e-08
1.31395e-09
3.62077e-08
1.1189e-09
3.61827e-08
1.08428e-09
3.61459e-08
1.03446e-09
3.61042e-08
9.05494e-10
3.60574e-08
8.20872e-10
3.6002e-08
7.57383e-10
3.59421e-08
6.37343e-10
3.58856e-08
5.11199e-10
3.5831e-08
4.45714e-10
3.57799e-08
3.84952e-10
3.57338e-08
3.20511e-10
3.56867e-08
3.00976e-10
3.56384e-08
2.87376e-10
3.55921e-08
2.49493e-10
3.55471e-08
2.25466e-10
3.55024e-08
2.11543e-10
3.54627e-08
1.71226e-10
3.54316e-08
1.22715e-10
3.54059e-08
1.03033e-10
3.53822e-08
9.4115e-11
3.53596e-08
7.84462e-11
3.53379e-08
6.56631e-11
3.5317e-08
5.62079e-11
3.52992e-08
3.82685e-11
3.52851e-08
2.26395e-11
3.52725e-08
1.88857e-11
3.52606e-08
1.47443e-11
3.52499e-08
7.14553e-12
3.52411e-08
-1.28524e-12
3.52355e-08
-9.56677e-12
3.52324e-08
-1.37137e-11
3.52308e-08
-1.41122e-11
3.52302e-08
-1.37774e-11
3.52297e-08
-1.08725e-11
3.52287e-08
-6.43176e-12
3.52274e-08
-5.15006e-12
3.52264e-08
-5.78618e-12
3.52255e-08
-4.52932e-12
3.52247e-08
-3.08771e-12
3.5224e-08
-3.29325e-12
3.52235e-08
-2.6756e-12
3.52229e-08
-1.93117e-12
3.52225e-08
-1.79216e-12
3.52221e-08
-1.67521e-12
-9.24951e-13
3.64165e-08
3.17703e-09
-3.62503e-08
3.65542e-08
3.51944e-09
3.6811e-08
3.91407e-09
3.69446e-08
3.83523e-09
3.70745e-08
4.0152e-09
3.72675e-08
3.59881e-09
3.73205e-08
3.17862e-09
3.73813e-08
3.40967e-09
3.74206e-08
3.27777e-09
3.74266e-08
3.07521e-09
3.74439e-08
2.83908e-09
3.74424e-08
2.74374e-09
3.74407e-08
2.64572e-09
3.74335e-08
2.61921e-09
3.74401e-08
2.50252e-09
3.74695e-08
2.28112e-09
3.74907e-08
2.14415e-09
3.74903e-08
2.13729e-09
3.74933e-08
2.1531e-09
3.74933e-08
2.0976e-09
3.74828e-08
2.08854e-09
3.74871e-08
1.92768e-09
3.74785e-08
1.87138e-09
3.74698e-08
1.83832e-09
3.74659e-08
1.75059e-09
3.74595e-08
1.70154e-09
3.74522e-08
1.59914e-09
3.74394e-08
1.46544e-09
3.74261e-08
1.41991e-09
3.74073e-08
1.33278e-09
3.74038e-08
1.1224e-09
3.73925e-08
1.09561e-09
3.73721e-08
1.05482e-09
3.73496e-08
9.27981e-10
3.73223e-08
8.48195e-10
3.7286e-08
7.93657e-10
3.72433e-08
6.8006e-10
3.72015e-08
5.53023e-10
3.71591e-08
4.88134e-10
3.71195e-08
4.24497e-10
3.70851e-08
3.54909e-10
3.70493e-08
3.36809e-10
3.70117e-08
3.24987e-10
3.6975e-08
2.86194e-10
3.69378e-08
2.62675e-10
3.68992e-08
2.50107e-10
3.68639e-08
2.0651e-10
3.68366e-08
1.5005e-10
3.68147e-08
1.24979e-10
3.67948e-08
1.13937e-10
3.67759e-08
9.74184e-11
3.67566e-08
8.49483e-11
3.67368e-08
7.5999e-11
3.67193e-08
5.57685e-11
3.67054e-08
3.65131e-11
3.66931e-08
3.11944e-11
3.66814e-08
2.64773e-11
3.66702e-08
1.82857e-11
3.66603e-08
8.6119e-12
3.66532e-08
-2.43466e-12
3.66485e-08
-9.05821e-12
3.66456e-08
-1.11522e-11
3.6644e-08
-1.22425e-11
3.66428e-08
-9.64326e-12
3.66411e-08
-4.74976e-12
3.66393e-08
-3.3418e-12
3.66378e-08
-4.25247e-12
3.66364e-08
-3.14242e-12
3.66352e-08
-1.86702e-12
3.66342e-08
-2.31671e-12
3.66334e-08
-1.84736e-12
3.66326e-08
-1.15051e-12
3.6632e-08
-1.17797e-12
3.66314e-08
-1.08948e-12
-4.35012e-13
3.75304e-08
3.01317e-09
-3.73665e-08
3.76405e-08
3.40934e-09
3.79195e-08
3.63502e-09
3.80147e-08
3.74009e-09
3.81268e-08
3.90305e-09
3.83627e-08
3.36293e-09
3.83736e-08
3.16774e-09
3.84392e-08
3.34408e-09
3.84757e-08
3.24122e-09
3.85015e-08
3.04947e-09
3.85213e-08
2.81927e-09
3.85261e-08
2.73895e-09
3.85196e-08
2.65218e-09
3.85114e-08
2.62741e-09
3.85275e-08
2.48646e-09
3.85663e-08
2.24226e-09
3.85802e-08
2.13027e-09
3.85739e-08
2.14358e-09
3.85802e-08
2.14685e-09
3.85756e-08
2.10215e-09
3.85773e-08
2.08682e-09
3.85747e-08
1.93029e-09
3.8568e-08
1.87813e-09
3.85664e-08
1.83985e-09
3.85637e-08
1.75334e-09
3.85628e-08
1.70244e-09
3.8563e-08
1.59888e-09
3.85541e-08
1.47434e-09
3.85465e-08
1.42759e-09
3.85383e-08
1.34094e-09
3.85345e-08
1.12623e-09
3.85249e-08
1.10516e-09
3.85123e-08
1.06744e-09
3.85006e-08
9.39708e-10
3.84845e-08
8.64275e-10
3.8459e-08
8.19156e-10
3.84265e-08
7.12596e-10
3.83933e-08
5.86175e-10
3.83578e-08
5.23682e-10
3.83248e-08
4.57446e-10
3.82975e-08
3.82211e-10
3.82688e-08
3.65507e-10
3.82387e-08
3.55071e-10
3.82093e-08
3.15642e-10
3.81784e-08
2.93601e-10
3.8145e-08
2.83506e-10
3.81137e-08
2.37772e-10
3.80897e-08
1.74015e-10
3.8071e-08
1.43745e-10
3.80546e-08
1.3026e-10
3.80392e-08
1.12848e-10
3.80226e-08
1.01522e-10
3.80042e-08
9.43944e-11
3.79873e-08
7.26607e-11
3.79741e-08
4.97498e-11
3.79627e-08
4.26166e-11
3.79519e-08
3.72375e-11
3.79414e-08
2.88287e-11
3.79315e-08
1.8527e-11
3.79237e-08
5.33444e-12
3.7918e-08
-3.40685e-12
3.7914e-08
-7.11263e-12
3.79116e-08
-9.8612e-12
3.79098e-08
-7.78029e-12
3.79075e-08
-2.53614e-12
3.79053e-08
-1.09907e-12
3.79034e-08
-2.34184e-12
3.79017e-08
-1.41284e-12
3.79001e-08
-3.49682e-13
3.78989e-08
-1.08994e-12
3.78979e-08
-7.96153e-13
3.78969e-08
-1.75507e-13
3.78961e-08
-4.05011e-13
3.78954e-08
-3.58241e-13
1.7116e-13
3.8669e-08
2.86551e-09
-3.85214e-08
3.8778e-08
3.30036e-09
3.90099e-08
3.40316e-09
3.91633e-08
3.58666e-09
3.91762e-08
3.89019e-09
3.94928e-08
3.04631e-09
3.94953e-08
3.16527e-09
3.95111e-08
3.32829e-09
3.95502e-08
3.20206e-09
3.96043e-08
2.99538e-09
3.96353e-08
2.78826e-09
3.96431e-08
2.73117e-09
3.96323e-08
2.66303e-09
3.9624e-08
2.63573e-09
3.96524e-08
2.45802e-09
3.96917e-08
2.20292e-09
3.9694e-08
2.128e-09
3.96889e-08
2.14867e-09
3.96954e-08
2.14035e-09
3.96912e-08
2.10639e-09
3.96956e-08
2.08238e-09
3.96875e-08
1.93836e-09
3.96853e-08
1.88036e-09
3.96865e-08
1.83871e-09
3.96833e-08
1.75647e-09
3.96856e-08
1.70021e-09
3.96855e-08
1.5989e-09
3.96826e-08
1.47724e-09
3.96796e-08
1.43066e-09
3.96718e-08
1.34875e-09
3.96655e-08
1.13252e-09
3.96489e-08
1.12173e-09
3.96434e-08
1.07296e-09
3.96353e-08
9.47748e-10
3.96251e-08
8.74481e-10
3.96045e-08
8.39749e-10
3.95775e-08
7.39604e-10
3.95486e-08
6.15063e-10
3.95159e-08
5.56434e-10
3.94858e-08
4.87497e-10
3.94619e-08
4.06096e-10
3.94368e-08
3.90614e-10
3.94111e-08
3.80807e-10
3.9386e-08
3.40709e-10
3.93589e-08
3.20712e-10
3.93288e-08
3.13658e-10
3.93002e-08
2.66326e-10
3.92786e-08
1.95663e-10
3.92618e-08
1.60496e-10
3.92479e-08
1.44213e-10
3.92351e-08
1.25654e-10
3.92205e-08
1.16098e-10
3.9203e-08
1.11918e-10
3.91863e-08
8.92967e-11
3.91735e-08
6.25847e-11
3.91629e-08
5.32246e-11
3.91533e-08
4.68243e-11
3.91438e-08
3.83406e-11
3.91344e-08
2.7904e-11
3.91266e-08
1.31601e-11
3.91204e-08
2.81423e-12
3.91155e-08
-2.27484e-12
3.91125e-08
-6.83284e-12
3.91101e-08
-5.41787e-12
3.91075e-08
8.63252e-14
3.9105e-08
1.44914e-12
3.91028e-08
-1.8052e-13
3.91008e-08
5.47496e-13
3.90991e-08
1.36516e-12
3.90977e-08
3.03301e-13
3.90965e-08
4.15781e-13
3.90954e-08
9.37987e-13
3.90945e-08
4.83666e-13
3.90937e-08
4.7588e-13
8.63494e-13
3.98429e-08
2.72298e-09
-3.97004e-08
3.99437e-08
3.19954e-09
4.01337e-08
3.21317e-09
4.03192e-08
3.4012e-09
4.03362e-08
3.87315e-09
4.06035e-08
2.77902e-09
4.05033e-08
3.2655e-09
4.05961e-08
3.23545e-09
4.06862e-08
3.112e-09
4.0748e-08
2.93359e-09
4.07812e-08
2.75497e-09
4.07839e-08
2.72856e-09
4.07676e-08
2.6793e-09
4.07708e-08
2.63248e-09
4.08133e-08
2.41551e-09
4.08426e-08
2.17368e-09
4.08405e-08
2.13006e-09
4.08378e-08
2.1514e-09
4.0839e-08
2.13914e-09
4.08411e-08
2.10432e-09
4.08418e-08
2.08167e-09
4.08337e-08
1.9464e-09
4.08327e-08
1.88135e-09
4.08362e-08
1.83522e-09
4.08339e-08
1.75879e-09
4.08379e-08
1.69621e-09
4.08352e-08
1.60162e-09
4.08386e-08
1.47387e-09
4.08346e-08
1.43462e-09
4.08332e-08
1.35018e-09
4.08185e-08
1.14723e-09
4.08008e-08
1.13938e-09
4.07899e-08
1.08395e-09
4.0789e-08
9.48604e-10
4.07811e-08
8.82337e-10
4.07623e-08
8.58585e-10
4.07384e-08
7.63489e-10
4.07111e-08
6.42423e-10
4.06787e-08
5.88838e-10
4.06493e-08
5.16815e-10
4.06268e-08
4.28605e-10
4.06034e-08
4.14051e-10
4.058e-08
4.04179e-10
4.05572e-08
3.63583e-10
4.05318e-08
3.46099e-10
4.05031e-08
3.42303e-10
4.04761e-08
2.93373e-10
4.04558e-08
2.15908e-10
4.04401e-08
1.7626e-10
4.04274e-08
1.5687e-10
4.04162e-08
1.3684e-10
4.04027e-08
1.2958e-10
4.03854e-08
1.29296e-10
4.03685e-08
1.06173e-10
4.03557e-08
7.5409e-11
4.03455e-08
6.33335e-11
4.0337e-08
5.5398e-11
4.03285e-08
4.68366e-11
4.03198e-08
3.66048e-11
4.03121e-08
2.08002e-11
4.03056e-08
9.38379e-12
4.03001e-08
3.16926e-12
4.02966e-08
-3.33971e-12
4.02939e-08
-2.69663e-12
4.0291e-08
2.99722e-12
4.02883e-08
4.19168e-12
4.02859e-08
2.13439e-12
4.02838e-08
2.65355e-12
4.0282e-08
3.20072e-12
4.02805e-08
1.79756e-12
4.02792e-08
1.73913e-12
4.0278e-08
2.14635e-12
4.0277e-08
1.45434e-12
4.02761e-08
1.38096e-12
1.61851e-12
4.10529e-08
2.58621e-09
-4.09161e-08
4.11361e-08
3.11637e-09
4.13299e-08
3.0193e-09
4.14624e-08
3.26874e-09
4.16029e-08
3.73263e-09
4.16192e-08
2.76276e-09
4.19094e-08
2.97529e-09
4.17556e-08
3.38919e-09
4.18357e-08
3.03197e-09
4.19243e-08
2.84496e-09
4.19505e-08
2.72877e-09
4.19544e-08
2.72468e-09
4.19396e-08
2.69409e-09
4.19567e-08
2.61537e-09
4.20076e-08
2.36457e-09
4.20204e-08
2.16088e-09
4.20178e-08
2.13271e-09
4.20154e-08
2.15376e-09
4.20178e-08
2.13673e-09
4.20196e-08
2.10261e-09
4.20204e-08
2.08082e-09
4.20141e-08
1.95267e-09
4.20142e-08
1.88131e-09
4.20205e-08
1.82893e-09
4.20174e-08
1.76184e-09
4.20211e-08
1.69253e-09
4.20183e-08
1.60446e-09
4.20245e-08
1.46763e-09
4.20219e-08
1.43723e-09
4.20216e-08
1.35048e-09
4.19975e-08
1.17137e-09
4.19871e-08
1.14973e-09
4.19695e-08
1.10155e-09
4.1969e-08
9.49126e-10
4.19634e-08
8.87884e-10
4.19466e-08
8.75374e-10
4.19265e-08
7.83653e-10
4.18995e-08
6.69414e-10
4.18662e-08
6.22169e-10
4.18364e-08
5.46555e-10
4.18142e-08
4.50784e-10
4.17916e-08
4.36719e-10
4.17695e-08
4.26234e-10
4.17475e-08
3.85629e-10
4.17225e-08
3.71096e-10
4.16942e-08
3.70544e-10
4.16681e-08
3.19547e-10
4.16487e-08
2.35211e-10
4.16333e-08
1.91689e-10
4.16212e-08
1.68995e-10
4.16109e-08
1.47175e-10
4.15978e-08
1.42668e-10
4.158e-08
1.47043e-10
4.15626e-08
1.23549e-10
4.15496e-08
8.84514e-11
4.15397e-08
7.3228e-11
4.15319e-08
6.32312e-11
4.15242e-08
5.45519e-11
4.1516e-08
4.4748e-11
4.15086e-08
2.82431e-11
4.15017e-08
1.62358e-11
4.14958e-08
9.11534e-12
4.1492e-08
4.66441e-13
4.1489e-08
2.56513e-13
4.14859e-08
6.09215e-12
4.14831e-08
7.04286e-12
4.14807e-08
4.54119e-12
4.14785e-08
4.85393e-12
4.14766e-08
5.10836e-12
4.1475e-08
3.35018e-12
4.14736e-08
3.14219e-12
4.14723e-08
3.42106e-12
4.14713e-08
2.48455e-12
4.14703e-08
2.3376e-12
2.4206e-12
4.22824e-08
2.47779e-09
-4.2174e-08
4.2385e-08
3.01379e-09
4.25428e-08
2.86151e-09
4.26836e-08
3.12792e-09
4.28252e-08
3.59097e-09
4.28499e-08
2.73815e-09
4.30907e-08
2.7345e-09
4.29272e-08
3.55267e-09
4.30012e-08
2.9579e-09
4.30999e-08
2.74627e-09
4.31454e-08
2.68333e-09
4.31605e-08
2.70956e-09
4.31653e-08
2.68925e-09
4.31892e-08
2.59147e-09
4.32309e-08
2.32288e-09
4.32248e-08
2.16699e-09
4.32249e-08
2.1326e-09
4.32258e-08
2.15285e-09
4.32331e-08
2.12945e-09
4.32293e-08
2.10642e-09
4.32356e-08
2.0745e-09
4.32266e-08
1.96164e-09
4.32332e-08
1.87473e-09
4.32374e-08
1.82469e-09
4.3234e-08
1.7653e-09
4.32378e-08
1.68874e-09
4.32375e-08
1.60478e-09
4.32413e-08
1.46373e-09
4.32386e-08
1.43998e-09
4.32327e-08
1.35642e-09
4.32184e-08
1.18561e-09
4.32072e-08
1.16099e-09
4.31862e-08
1.12253e-09
4.31802e-08
9.5512e-10
4.3177e-08
8.91072e-10
4.31619e-08
8.90529e-10
4.31468e-08
7.98672e-10
4.31201e-08
6.96133e-10
4.30859e-08
6.56432e-10
4.30553e-08
5.77128e-10
4.30329e-08
4.73174e-10
4.30107e-08
4.58874e-10
4.29896e-08
4.47328e-10
4.29677e-08
4.076e-10
4.29423e-08
3.96509e-10
4.29138e-08
3.98997e-10
4.28883e-08
3.45062e-10
4.28698e-08
2.5373e-10
4.28543e-08
2.07122e-10
4.28422e-08
1.81088e-10
4.28322e-08
1.57188e-10
4.28191e-08
1.55791e-10
4.28008e-08
1.65352e-10
4.2783e-08
1.41336e-10
4.27698e-08
1.01661e-10
4.276e-08
8.30466e-11
4.27526e-08
7.0579e-11
4.27454e-08
6.1805e-11
4.27376e-08
5.25674e-11
4.27302e-08
3.55848e-11
4.27231e-08
2.33841e-11
4.27167e-08
1.55072e-11
4.27127e-08
4.45546e-12
4.27096e-08
3.33185e-12
4.27064e-08
9.28418e-12
4.27035e-08
9.94153e-12
4.27011e-08
7.00947e-12
4.26988e-08
7.12562e-12
4.26968e-08
7.06217e-12
4.26952e-08
4.93752e-12
4.26938e-08
4.60737e-12
4.26925e-08
4.74559e-12
4.26914e-08
3.56114e-12
4.26904e-08
3.33619e-12
3.26053e-12
4.35567e-08
2.38783e-09
-4.34667e-08
4.36761e-08
2.89442e-09
4.37865e-08
2.75107e-09
4.39479e-08
2.96654e-09
4.40591e-08
3.47977e-09
4.41268e-08
2.67046e-09
4.4215e-08
2.64631e-09
4.42436e-08
3.52405e-09
4.42228e-08
2.97868e-09