/*--------------------------------*- C++ -*----------------------------------*\
| =========                 |                                                 |
| \\      /  F ield         | OpenFOAM: The Open Source CFD Toolbox           |
|  \\    /   O peration     | Version:  2.3.0                                 |
|   \\  /    A nd           | Web:      www.OpenFOAM.org                      |
|    \\/     M anipulation  |                                                 |
\*---------------------------------------------------------------------------*/
FoamFile
{
    version     2.0;
    format      ascii;
    class       volVectorField;
    location    "0.85";
    object      U;
}
// * * * * * * * * * * * * * * * * * * * * * * * * * * * * * * * * * * * * * //

dimensions      [0 1 -1 0 0 0 0];

internalField   nonuniform List<vector> 
2000
(
(0.170376 0.00604952 0)
(0.153676 0.00611303 0)
(0.137623 0.005684 0)
(0.12242 0.00507066 0)
(0.108486 0.00439118 0)
(0.0959938 0.00370055 0)
(0.0849615 0.00303743 0)
(0.0753561 0.00242899 0)
(0.0671191 0.00189201 0)
(0.0601604 0.00143512 0)
(0.0543585 0.00106028 0)
(0.0495715 0.000763743 0)
(0.0456493 0.000537452 0)
(0.0424445 0.000370822 0)
(0.0398203 0.000252461 0)
(0.0376558 0.00017148 0)
(0.0358493 0.000118282 0)
(0.034318 8.49069e-05 0)
(0.032997 6.50639e-05 0)
(0.0318372 5.40047e-05 0)
(0.030802 4.83053e-05 0)
(0.029865 4.56174e-05 0)
(0.0290073 4.44209e-05 0)
(0.0282155 4.37984e-05 0)
(0.0274798 4.32464e-05 0)
(0.0267932 4.25282e-05 0)
(0.0261504 4.15664e-05 0)
(0.0255471 4.03703e-05 0)
(0.0249799 3.89883e-05 0)
(0.0244456 3.74811e-05 0)
(0.0239417 3.59065e-05 0)
(0.0234657 3.43133e-05 0)
(0.0230154 3.27386e-05 0)
(0.0225888 3.12089e-05 0)
(0.022184 2.97415e-05 0)
(0.0217993 2.83467e-05 0)
(0.0214332 2.70294e-05 0)
(0.0210841 2.57907e-05 0)
(0.0207509 2.46291e-05 0)
(0.0204323 2.35418e-05 0)
(0.0201272 2.25246e-05 0)
(0.0198348 2.15733e-05 0)
(0.019554 2.06832e-05 0)
(0.0192841 1.98499e-05 0)
(0.0190243 1.90689e-05 0)
(0.0187741 1.83361e-05 0)
(0.0185327 1.76478e-05 0)
(0.0182996 1.70003e-05 0)
(0.0180744 1.63906e-05 0)
(0.0178565 1.58154e-05 0)
(0.0176455 1.52723e-05 0)
(0.0174411 1.47587e-05 0)
(0.0172428 1.42724e-05 0)
(0.0170503 1.38113e-05 0)
(0.0168633 1.33736e-05 0)
(0.0166816 1.29576e-05 0)
(0.0165049 1.25617e-05 0)
(0.0163328 1.21845e-05 0)
(0.0161653 1.18248e-05 0)
(0.016002 1.14813e-05 0)
(0.0158428 1.11529e-05 0)
(0.0156874 1.08387e-05 0)
(0.0155358 1.05377e-05 0)
(0.0153878 1.02491e-05 0)
(0.0152432 9.97219e-06 0)
(0.0151018 9.70616e-06 0)
(0.0149636 9.45042e-06 0)
(0.0148283 9.20437e-06 0)
(0.014696 8.96749e-06 0)
(0.0145665 8.73928e-06 0)
(0.0144396 8.51927e-06 0)
(0.0143154 8.30707e-06 0)
(0.0141936 8.10229e-06 0)
(0.0140743 7.9046e-06 0)
(0.0139573 7.71372e-06 0)
(0.0138425 7.52936e-06 0)
(0.0137299 7.3513e-06 0)
(0.0136195 7.17932e-06 0)
(0.013511 7.01325e-06 0)
(0.0134046 6.85295e-06 0)
(0.0133001 6.6983e-06 0)
(0.0131974 6.54923e-06 0)
(0.0130965 6.40566e-06 0)
(0.0129973 6.2676e-06 0)
(0.0128998 6.13509e-06 0)
(0.0128039 6.00817e-06 0)
(0.0127096 5.88694e-06 0)
(0.0126168 5.77169e-06 0)
(0.0125254 5.66257e-06 0)
(0.0124353 5.56004e-06 0)
(0.0123465 5.46469e-06 0)
(0.0122589 5.37739e-06 0)
(0.0121724 5.29968e-06 0)
(0.0120868 5.23434e-06 0)
(0.0120021 5.18684e-06 0)
(0.0119179 5.17036e-06 0)
(0.0118337 5.22032e-06 0)
(0.0117484 5.29829e-06 0)
(0.011672 5.65026e-06 0)
(0.0114395 3.14816e-05 0)
(0.189593 0.00957239 0)
(0.187387 0.010108 0)
(0.183616 0.0099072 0)
(0.178618 0.00942145 0)
(0.172872 0.0087893 0)
(0.166716 0.00805887 0)
(0.160366 0.00727037 0)
(0.153986 0.00646112 0)
(0.147708 0.00566281 0)
(0.14163 0.00490166 0)
(0.135821 0.00419829 0)
(0.130322 0.003567 0)
(0.125152 0.00301535 0)
(0.120319 0.00254474 0)
(0.115816 0.00215149 0)
(0.111631 0.00182837 0)
(0.107745 0.0015661 0)
(0.10414 0.00135472 0)
(0.100793 0.00118464 0)
(0.0976841 0.00104722 0)
(0.0947924 0.000935213 0)
(0.092099 0.000842732 0)
(0.0895862 0.000765212 0)
(0.0872378 0.000699202 0)
(0.0850393 0.000642151 0)
(0.0829774 0.000592198 0)
(0.0810403 0.000547994 0)
(0.0792173 0.000508553 0)
(0.0774989 0.000473143 0)
(0.0758763 0.000441209 0)
(0.0743419 0.000412311 0)
(0.0728885 0.000386095 0)
(0.0715098 0.00036226 0)
(0.0702 0.000340551 0)
(0.0689539 0.000320741 0)
(0.0677667 0.000302632 0)
(0.0666341 0.000286047 0)
(0.0655521 0.000270826 0)
(0.0645172 0.000256831 0)
(0.0635261 0.000243935 0)
(0.0625757 0.000232027 0)
(0.0616634 0.000221008 0)
(0.0607866 0.00021079 0)
(0.0599431 0.000201297 0)
(0.0591308 0.00019246 0)
(0.0583478 0.000184218 0)
(0.0575922 0.000176517 0)
(0.0568624 0.000169309 0)
(0.056157 0.000162552 0)
(0.0554745 0.000156207 0)
(0.0548137 0.000150241 0)
(0.0541733 0.000144623 0)
(0.0535523 0.000139325 0)
(0.0529496 0.000134323 0)
(0.0523643 0.000129595 0)
(0.0517955 0.000125119 0)
(0.0512423 0.000120878 0)
(0.0507041 0.000116854 0)
(0.0501801 0.000113032 0)
(0.0496696 0.000109397 0)
(0.049172 0.000105938 0)
(0.0486867 0.000102642 0)
(0.0482131 9.94973e-05 0)
(0.0477509 9.6495e-05 0)
(0.0472995 9.36254e-05 0)
(0.0468584 9.08801e-05 0)
(0.0464272 8.82513e-05 0)
(0.0460056 8.57318e-05 0)
(0.0455931 8.33149e-05 0)
(0.0451895 8.09946e-05 0)
(0.0447944 7.87652e-05 0)
(0.0444075 7.66216e-05 0)
(0.0440285 7.45591e-05 0)
(0.0436571 7.25732e-05 0)
(0.0432931 7.06602e-05 0)
(0.0429363 6.88162e-05 0)
(0.0425864 6.70381e-05 0)
(0.0422432 6.53228e-05 0)
(0.0419064 6.36676e-05 0)
(0.041576 6.20703e-05 0)
(0.0412516 6.05287e-05 0)
(0.0409332 5.9041e-05 0)
(0.0406204 5.76056e-05 0)
(0.0403133 5.62214e-05 0)
(0.0400115 5.48876e-05 0)
(0.0397149 5.36035e-05 0)
(0.0394233 5.2369e-05 0)
(0.0391366 5.11844e-05 0)
(0.0388546 5.00505e-05 0)
(0.0385772 4.8969e-05 0)
(0.038304 4.79427e-05 0)
(0.0380349 4.69761e-05 0)
(0.0377697 4.60776e-05 0)
(0.037508 4.52624e-05 0)
(0.0372495 4.45623e-05 0)
(0.0369937 4.40539e-05 0)
(0.0367393 4.39329e-05 0)
(0.0364839 4.46952e-05 0)
(0.0362382 5.1452e-05 0)
(0.0357615 0.000114358 0)
(0.192592 0.00910133 0)
(0.193395 0.0100699 0)
(0.193648 0.0104407 0)
(0.193186 0.010485 0)
(0.192097 0.0102964 0)
(0.190478 0.00991123 0)
(0.188404 0.00937357 0)
(0.185951 0.00873373 0)
(0.183198 0.00803858 0)
(0.180226 0.0073283 0)
(0.177106 0.00663534 0)
(0.173897 0.00598353 0)
(0.17065 0.00538796 0)
(0.167402 0.00485577 0)
(0.164184 0.0043877 0)
(0.161016 0.00398005 0)
(0.157911 0.0036265 0)
(0.15488 0.00331965 0)
(0.151928 0.0030521 0)
(0.149058 0.00281716 0)
(0.146271 0.00260911 0)
(0.143567 0.00242329 0)
(0.140946 0.00225604 0)
(0.138406 0.00210447 0)
(0.135947 0.00196637 0)
(0.133568 0.00184003 0)
(0.131265 0.0017241 0)
(0.129038 0.00161749 0)
(0.126885 0.0015193 0)
(0.124804 0.00142876 0)
(0.122793 0.00134522 0)
(0.12085 0.00126807 0)
(0.118972 0.00119678 0)
(0.117158 0.00113086 0)
(0.115404 0.00106987 0)
(0.113709 0.00101339 0)
(0.112071 0.000961032 0)
(0.110487 0.000912461 0)
(0.108956 0.000867354 0)
(0.107474 0.00082542 0)
(0.106039 0.000786391 0)
(0.104651 0.000750024 0)
(0.103306 0.000716098 0)
(0.102003 0.000684412 0)
(0.100739 0.000654782 0)
(0.0995139 0.000627041 0)
(0.0983249 0.000601038 0)
(0.0971706 0.000576636 0)
(0.0960494 0.000553708 0)
(0.0949599 0.00053214 0)
(0.0939006 0.000511829 0)
(0.0928702 0.000492679 0)
(0.0918673 0.000474604 0)
(0.0908909 0.000457524 0)
(0.0899397 0.000441366 0)
(0.0890126 0.000426065 0)
(0.0881087 0.000411559 0)
(0.0872269 0.000397792 0)
(0.0863663 0.000384713 0)
(0.085526 0.000372274 0)
(0.0847054 0.000360433 0)
(0.0839034 0.000349149 0)
(0.0831195 0.000338386 0)
(0.0823529 0.000328108 0)
(0.081603 0.000318286 0)
(0.0808692 0.00030889 0)
(0.0801508 0.000299893 0)
(0.0794474 0.000291271 0)
(0.0787583 0.000283002 0)
(0.0780832 0.000275063 0)
(0.0774215 0.000267436 0)
(0.0767728 0.000260103 0)
(0.0761367 0.000253047 0)
(0.0755127 0.000246254 0)
(0.0749006 0.000239708 0)
(0.0742999 0.000233398 0)
(0.0737104 0.000227312 0)
(0.0731316 0.000221438 0)
(0.0725633 0.000215767 0)
(0.0720052 0.000210291 0)
(0.071457 0.000205 0)
(0.0709184 0.000199889 0)
(0.0703892 0.000194951 0)
(0.0698692 0.000190182 0)
(0.0693579 0.000185576 0)
(0.0688553 0.000181131 0)
(0.0683611 0.000176845 0)
(0.067875 0.000172717 0)
(0.0673968 0.000168748 0)
(0.0669263 0.000164941 0)
(0.066463 0.000161302 0)
(0.0660069 0.000157843 0)
(0.0655575 0.000154581 0)
(0.0651144 0.000151557 0)
(0.0646772 0.000148847 0)
(0.0642452 0.000146643 0)
(0.0638169 0.000145443 0)
(0.0633898 0.000147021 0)
(0.0629692 0.000163396 0)
(0.0623359 0.000242467 0)
(0.193703 0.00839516 0)
(0.194754 0.00942668 0)
(0.195767 0.0100039 0)
(0.196538 0.0102777 0)
(0.19703 0.010323 0)
(0.197244 0.0101708 0)
(0.197168 0.00985481 0)
(0.196799 0.00941632 0)
(0.19615 0.00889636 0)
(0.19525 0.00833201 0)
(0.194131 0.00775493 0)
(0.19283 0.00719031 0)
(0.191382 0.00665612 0)
(0.189819 0.00616337 0)
(0.188171 0.00571706 0)
(0.18646 0.00531762 0)
(0.184705 0.00496236 0)
(0.182922 0.00464685 0)
(0.18112 0.00436591 0)
(0.179307 0.00411438 0)
(0.17749 0.0038875 0)
(0.175673 0.0036812 0)
(0.17386 0.0034921 0)
(0.172053 0.00331749 0)
(0.170256 0.00315526 0)
(0.168471 0.00300379 0)
(0.166699 0.00286181 0)
(0.164943 0.00272835 0)
(0.163203 0.00260266 0)
(0.161483 0.00248412 0)
(0.159782 0.00237221 0)
(0.158102 0.00226651 0)
(0.156445 0.00216662 0)
(0.15481 0.0020722 0)
(0.153199 0.00198293 0)
(0.151613 0.0018985 0)
(0.150051 0.00181865 0)
(0.148514 0.0017431 0)
(0.147003 0.0016716 0)
(0.145517 0.00160392 0)
(0.144056 0.00153984 0)
(0.142621 0.00147914 0)
(0.141211 0.00142163 0)
(0.139826 0.00136712 0)
(0.138466 0.00131544 0)
(0.137131 0.00126641 0)
(0.13582 0.00121989 0)
(0.134532 0.00117571 0)
(0.133269 0.00113376 0)
(0.132028 0.00109389 0)
(0.13081 0.00105598 0)
(0.129615 0.00101991 0)
(0.128441 0.000985585 0)
(0.127289 0.000952893 0)
(0.126157 0.000921741 0)
(0.125046 0.000892038 0)
(0.123955 0.000863699 0)
(0.122884 0.000836644 0)
(0.121831 0.000810799 0)
(0.120797 0.000786092 0)
(0.119781 0.000762459 0)
(0.118783 0.000739836 0)
(0.117802 0.000718167 0)
(0.116838 0.000697396 0)
(0.115891 0.000677473 0)
(0.114959 0.00065835 0)
(0.114043 0.000639982 0)
(0.113143 0.000622326 0)
(0.112257 0.000605345 0)
(0.111386 0.000589001 0)
(0.110529 0.000573259 0)
(0.109686 0.000558089 0)
(0.108856 0.00054346 0)
(0.10804 0.000529344 0)
(0.107236 0.000515715 0)
(0.106445 0.000502549 0)
(0.105667 0.000489825 0)
(0.104901 0.000477522 0)
(0.104146 0.00046562 0)
(0.103403 0.000454104 0)
(0.102672 0.000442956 0)
(0.101952 0.000432164 0)
(0.101242 0.000421714 0)
(0.100543 0.000411598 0)
(0.0998552 0.000401804 0)
(0.0991772 0.000392328 0)
(0.0985092 0.000383163 0)
(0.097851 0.000374307 0)
(0.0972023 0.00036576 0)
(0.096563 0.000357528 0)
(0.0959328 0.000349618 0)
(0.0953114 0.000342048 0)
(0.0946984 0.000334852 0)
(0.0940936 0.000328092 0)
(0.0934963 0.0003219 0)
(0.092906 0.00031659 0)
(0.0923214 0.00031301 0)
(0.0917406 0.000314167 0)
(0.0911679 0.000334068 0)
(0.0904192 0.000406217 0)
(0.194559 0.00783963 0)
(0.195414 0.00877189 0)
(0.196368 0.00936359 0)
(0.197271 0.00969616 0)
(0.198074 0.00983101 0)
(0.19876 0.00979732 0)
(0.199304 0.00961971 0)
(0.199684 0.00932785 0)
(0.199888 0.00895321 0)
(0.199916 0.00852558 0)
(0.199778 0.00807157 0)
(0.199488 0.00761352 0)
(0.199065 0.00716862 0)
(0.198528 0.00674861 0)
(0.197897 0.00636027 0)
(0.197188 0.00600623 0)
(0.196416 0.0056861 0)
(0.195592 0.00539754 0)
(0.194726 0.00513713 0)
(0.193825 0.00490111 0)
(0.192894 0.00468582 0)
(0.191937 0.00448796 0)
(0.190958 0.00430475 0)
(0.189958 0.00413389 0)
(0.18894 0.0039736 0)
(0.187906 0.00382247 0)
(0.186858 0.00367943 0)
(0.185796 0.00354365 0)
(0.184724 0.0034145 0)
(0.183641 0.00329145 0)
(0.18255 0.00317411 0)
(0.181453 0.00306212 0)
(0.180349 0.00295518 0)
(0.179241 0.00285302 0)
(0.178129 0.00275538 0)
(0.177015 0.00266203 0)
(0.1759 0.00257276 0)
(0.174785 0.00248736 0)
(0.173669 0.00240564 0)
(0.172555 0.00232741 0)
(0.171444 0.0022525 0)
(0.170334 0.00218073 0)
(0.169228 0.00211197 0)
(0.168126 0.00204605 0)
(0.167028 0.00198284 0)
(0.165935 0.00192221 0)
(0.164848 0.00186403 0)
(0.163766 0.00180819 0)
(0.16269 0.00175457 0)
(0.161621 0.00170307 0)
(0.160559 0.00165358 0)
(0.159503 0.00160602 0)
(0.158455 0.00156028 0)
(0.157414 0.00151629 0)
(0.156381 0.00147397 0)
(0.155356 0.00143323 0)
(0.154339 0.001394 0)
(0.153331 0.00135621 0)
(0.15233 0.0013198 0)
(0.151338 0.0012847 0)
(0.150354 0.00125085 0)
(0.149379 0.00121819 0)
(0.148413 0.00118666 0)
(0.147455 0.00115622 0)
(0.146506 0.00112681 0)
(0.145566 0.00109839 0)
(0.144635 0.00107091 0)
(0.143713 0.00104433 0)
(0.142799 0.00101861 0)
(0.141894 0.000993701 0)
(0.140998 0.000969578 0)
(0.140111 0.000946202 0)
(0.139233 0.000923541 0)
(0.138363 0.000901564 0)
(0.137503 0.000880241 0)
(0.136651 0.000859545 0)
(0.135808 0.000839451 0)
(0.134973 0.000819935 0)
(0.134147 0.000800974 0)
(0.13333 0.000782549 0)
(0.132522 0.000764641 0)
(0.131722 0.000747234 0)
(0.130931 0.000730312 0)
(0.130148 0.000713864 0)
(0.129373 0.000697878 0)
(0.128607 0.000682348 0)
(0.127849 0.000667267 0)
(0.1271 0.000652635 0)
(0.126358 0.000638452 0)
(0.125625 0.000624727 0)
(0.124899 0.000611474 0)
(0.124181 0.00059872 0)
(0.123471 0.000586512 0)
(0.122768 0.00057494 0)
(0.122072 0.000564187 0)
(0.121383 0.000554674 0)
(0.120699 0.000547513 0)
(0.120021 0.000546192 0)
(0.119355 0.000562098 0)
(0.118545 0.000609951 0)
(0.195316 0.00736021 0)
(0.195974 0.00815777 0)
(0.19675 0.00871396 0)
(0.197542 0.00906095 0)
(0.198302 0.00923864 0)
(0.199009 0.0092712 0)
(0.199641 0.00917798 0)
(0.200179 0.00898157 0)
(0.200609 0.00870689 0)
(0.200927 0.0083783 0)
(0.201133 0.00801804 0)
(0.201233 0.00764524 0)
(0.201237 0.00727519 0)
(0.201156 0.00691906 0)
(0.201004 0.006584 0)
(0.20079 0.00627374 0)
(0.200527 0.00598932 0)
(0.200221 0.0057299 0)
(0.199881 0.00549352 0)
(0.199512 0.00527764 0)
(0.199117 0.00507956 0)
(0.198699 0.00489675 0)
(0.19826 0.00472694 0)
(0.197802 0.0045682 0)
(0.197327 0.00441896 0)
(0.196834 0.00427796 0)
(0.196324 0.00414419 0)
(0.195799 0.00401686 0)
(0.195259 0.00389538 0)
(0.194705 0.00377924 0)
(0.194136 0.00366804 0)
(0.193554 0.00356147 0)
(0.19296 0.00345923 0)
(0.192353 0.00336109 0)
(0.191735 0.00326682 0)
(0.191106 0.00317622 0)
(0.190467 0.00308912 0)
(0.189818 0.00300534 0)
(0.189159 0.00292471 0)
(0.188492 0.00284709 0)
(0.187816 0.00277233 0)
(0.187133 0.0027003 0)
(0.186442 0.00263087 0)
(0.185744 0.00256391 0)
(0.185039 0.00249931 0)
(0.184329 0.00243697 0)
(0.183612 0.00237677 0)
(0.182891 0.00231863 0)
(0.182164 0.00226244 0)
(0.181433 0.00220812 0)
(0.180697 0.00215559 0)
(0.179957 0.00210477 0)
(0.179214 0.00205557 0)
(0.178468 0.00200793 0)
(0.177718 0.00196179 0)
(0.176966 0.00191707 0)
(0.176212 0.00187371 0)
(0.175455 0.00183166 0)
(0.174697 0.00179085 0)
(0.173937 0.00175124 0)
(0.173176 0.00171277 0)
(0.172413 0.0016754 0)
(0.17165 0.00163908 0)
(0.170887 0.00160376 0)
(0.170123 0.00156941 0)
(0.169359 0.00153598 0)
(0.168596 0.00150344 0)
(0.167833 0.00147175 0)
(0.16707 0.00144087 0)
(0.166308 0.00141078 0)
(0.165547 0.00138143 0)
(0.164788 0.00135282 0)
(0.16403 0.0013249 0)
(0.163273 0.00129765 0)
(0.162519 0.00127104 0)
(0.161766 0.00124506 0)
(0.161015 0.00121968 0)
(0.160267 0.00119488 0)
(0.159521 0.00117064 0)
(0.158778 0.00114696 0)
(0.158037 0.0011238 0)
(0.1573 0.00110117 0)
(0.156565 0.00107905 0)
(0.155834 0.00105742 0)
(0.155106 0.0010363 0)
(0.154381 0.00101566 0)
(0.15366 0.000995516 0)
(0.152943 0.000975868 0)
(0.152229 0.000956724 0)
(0.151519 0.000938099 0)
(0.150813 0.000920017 0)
(0.15011 0.000902518 0)
(0.149412 0.000885667 0)
(0.148717 0.000869575 0)
(0.148026 0.000854464 0)
(0.147338 0.000840805 0)
(0.146653 0.000829729 0)
(0.145974 0.000824132 0)
(0.14531 0.00083019 0)
(0.144525 0.000845243 0)
(0.195995 0.00695249 0)
(0.196503 0.00762302 0)
(0.197116 0.00812707 0)
(0.197769 0.00846813 0)
(0.198419 0.0086664 0)
(0.199042 0.00873939 0)
(0.199619 0.00870261 0)
(0.200134 0.0085737 0)
(0.200577 0.00837239 0)
(0.20094 0.00811852 0)
(0.201224 0.00783053 0)
(0.201432 0.00752462 0)
(0.20157 0.00721414 0)
(0.201645 0.00690932 0)
(0.201666 0.0066173 0)
(0.201643 0.00634239 0)
(0.201583 0.00608664 0)
(0.201494 0.00585041 0)
(0.20138 0.00563289 0)
(0.201246 0.00543258 0)
(0.201097 0.00524769 0)
(0.200933 0.00507635 0)
(0.200757 0.0049168 0)
(0.20057 0.00476747 0)
(0.200372 0.00462704 0)
(0.200165 0.00449438 0)
(0.199948 0.00436859 0)
(0.199722 0.00424894 0)
(0.199487 0.00413483 0)
(0.199242 0.00402579 0)
(0.198989 0.00392144 0)
(0.198726 0.00382143 0)
(0.198455 0.00372551 0)
(0.198175 0.00363341 0)
(0.197886 0.00354493 0)
(0.197588 0.00345987 0)
(0.197282 0.00337805 0)
(0.196968 0.0032993 0)
(0.196645 0.00322346 0)
(0.196313 0.00315039 0)
(0.195974 0.00307995 0)
(0.195626 0.003012 0)
(0.195271 0.00294642 0)
(0.194907 0.00288309 0)
(0.194536 0.00282191 0)
(0.194157 0.00276276 0)
(0.19377 0.00270554 0)
(0.193376 0.00265017 0)
(0.192974 0.00259654 0)
(0.192565 0.00254459 0)
(0.192149 0.00249422 0)
(0.191726 0.00244536 0)
(0.191296 0.00239793 0)
(0.190859 0.00235188 0)
(0.190416 0.00230713 0)
(0.189966 0.00226363 0)
(0.189509 0.00222131 0)
(0.189047 0.00218013 0)
(0.188578 0.00214002 0)
(0.188103 0.00210094 0)
(0.187623 0.00206284 0)
(0.187137 0.00202567 0)
(0.186645 0.0019894 0)
(0.186148 0.00195398 0)
(0.185646 0.00191938 0)
(0.185139 0.00188556 0)
(0.184627 0.00185248 0)
(0.18411 0.00182011 0)
(0.183589 0.00178843 0)
(0.183064 0.0017574 0)
(0.182534 0.00172699 0)
(0.182 0.00169718 0)
(0.181463 0.00166796 0)
(0.180922 0.00163928 0)
(0.180377 0.00161114 0)
(0.17983 0.00158351 0)
(0.179279 0.00155638 0)
(0.178725 0.00152974 0)
(0.178168 0.00150355 0)
(0.177609 0.00147783 0)
(0.177047 0.00145255 0)
(0.176483 0.0014277 0)
(0.175917 0.00140329 0)
(0.175349 0.0013793 0)
(0.17478 0.00135574 0)
(0.174208 0.0013326 0)
(0.173636 0.0013099 0)
(0.173062 0.00128765 0)
(0.172487 0.00126586 0)
(0.171911 0.00124456 0)
(0.171334 0.00122377 0)
(0.170756 0.00120356 0)
(0.170177 0.00118399 0)
(0.169598 0.0011652 0)
(0.169018 0.00114741 0)
(0.168438 0.00113105 0)
(0.167858 0.00111696 0)
(0.167281 0.00110667 0)
(0.166716 0.00110087 0)
(0.166051 0.00108567 0)
(0.196604 0.00660292 0)
(0.197 0.00716234 0)
(0.197481 0.00760684 0)
(0.198006 0.007928 0)
(0.198544 0.00813281 0)
(0.199069 0.00823207 0)
(0.199566 0.00823726 0)
(0.200019 0.0081616 0)
(0.200419 0.00802014 0)
(0.200761 0.00782844 0)
(0.201042 0.00760145 0)
(0.201264 0.00735261 0)
(0.201431 0.0070934 0)
(0.201548 0.00683302 0)
(0.201622 0.00657831 0)
(0.201661 0.00633389 0)
(0.20167 0.00610251 0)
(0.201655 0.00588543 0)
(0.201622 0.0056828 0)
(0.201574 0.00549405 0)
(0.201515 0.0053182 0)
(0.201448 0.00515407 0)
(0.201373 0.00500043 0)
(0.201293 0.00485614 0)
(0.201207 0.00472014 0)
(0.201118 0.00459155 0)
(0.201024 0.0044696 0)
(0.200927 0.00435366 0)
(0.200826 0.00424319 0)
(0.200721 0.00413775 0)
(0.200613 0.00403698 0)
(0.200501 0.00394056 0)
(0.200386 0.00384821 0)
(0.200267 0.00375971 0)
(0.200144 0.00367482 0)
(0.200018 0.00359335 0)
(0.199887 0.00351513 0)
(0.199752 0.00343997 0)
(0.199614 0.00336773 0)
(0.19947 0.00329824 0)
(0.199323 0.00323137 0)
(0.199171 0.00316698 0)
(0.199015 0.00310494 0)
(0.198854 0.00304514 0)
(0.198688 0.00298745 0)
(0.198518 0.00293177 0)
(0.198342 0.00287799 0)
(0.198162 0.00282601 0)
(0.197976 0.00277575 0)
(0.197786 0.0027271 0)
(0.19759 0.00267999 0)
(0.197389 0.00263434 0)
(0.197183 0.00259007 0)
(0.196971 0.00254711 0)
(0.196754 0.00250539 0)
(0.196532 0.00246484 0)
(0.196304 0.00242541 0)
(0.196071 0.00238703 0)
(0.195832 0.00234966 0)
(0.195588 0.00231323 0)
(0.195338 0.0022777 0)
(0.195082 0.00224302 0)
(0.194822 0.00220914 0)
(0.194555 0.00217603 0)
(0.194284 0.00214364 0)
(0.194006 0.00211194 0)
(0.193724 0.00208089 0)
(0.193435 0.00205045 0)
(0.193142 0.00202059 0)
(0.192843 0.00199129 0)
(0.192539 0.00196252 0)
(0.19223 0.00193425 0)
(0.191915 0.00190645 0)
(0.191596 0.0018791 0)
(0.191271 0.00185219 0)
(0.190941 0.00182568 0)
(0.190607 0.00179958 0)
(0.190267 0.00177385 0)
(0.189923 0.00174849 0)
(0.189574 0.00172348 0)
(0.189221 0.00169883 0)
(0.188863 0.00167451 0)
(0.1885 0.00165052 0)
(0.188134 0.00162687 0)
(0.187763 0.00160355 0)
(0.187388 0.00158058 0)
(0.187008 0.00155795 0)
(0.186625 0.00153569 0)
(0.186238 0.00151382 0)
(0.185847 0.00149237 0)
(0.185453 0.00147137 0)
(0.185055 0.00145089 0)
(0.184653 0.001431 0)
(0.184247 0.00141183 0)
(0.183839 0.00139356 0)
(0.183427 0.00137648 0)
(0.183013 0.00136096 0)
(0.1826 0.00134702 0)
(0.182194 0.00133159 0)
(0.181705 0.00129771 0)
(0.197121 0.00631086 0)
(0.197436 0.00678131 0)
(0.197815 0.00717046 0)
(0.198237 0.00746696 0)
(0.198677 0.00767056 0)
(0.199115 0.00778655 0)
(0.199535 0.00782259 0)
(0.199925 0.00778819 0)
(0.200276 0.00769449 0)
(0.200582 0.00755349 0)
(0.20084 0.00737708 0)
(0.201051 0.00717632 0)
(0.201218 0.00696095 0)
(0.201343 0.00673909 0)
(0.201431 0.00651714 0)
(0.201489 0.00629975 0)
(0.201521 0.00609009 0)
(0.201532 0.00589003 0)
(0.201527 0.00570045 0)
(0.201509 0.00552153 0)
(0.201481 0.00535296 0)
(0.201446 0.00519417 0)
(0.201405 0.00504444 0)
(0.20136 0.004903 0)
(0.201312 0.00476913 0)
(0.201262 0.00464215 0)
(0.20121 0.00452148 0)
(0.201157 0.00440659 0)
(0.201103 0.00429705 0)
(0.201047 0.00419247 0)
(0.200991 0.00409253 0)
(0.200935 0.00399694 0)
(0.200877 0.00390545 0)
(0.200819 0.00381783 0)
(0.20076 0.00373388 0)
(0.2007 0.00365341 0)
(0.200639 0.00357624 0)
(0.200577 0.00350222 0)
(0.200514 0.00343117 0)
(0.20045 0.00336296 0)
(0.200384 0.00329744 0)
(0.200317 0.00323447 0)
(0.200249 0.00317393 0)
(0.200179 0.0031157 0)
(0.200107 0.00305965 0)
(0.200033 0.00300568 0)
(0.199958 0.00295367 0)
(0.19988 0.00290353 0)
(0.1998 0.00285515 0)
(0.199717 0.00280845 0)
(0.199632 0.00276334 0)
(0.199545 0.00271972 0)
(0.199455 0.00267753 0)
(0.199362 0.00263669 0)
(0.199267 0.00259711 0)
(0.199168 0.00255874 0)
(0.199066 0.00252151 0)
(0.198962 0.00248535 0)
(0.198854 0.0024502 0)
(0.198742 0.00241602 0)
(0.198628 0.00238273 0)
(0.19851 0.00235031 0)
(0.198388 0.00231868 0)
(0.198263 0.00228782 0)
(0.198134 0.00225767 0)
(0.198001 0.00222819 0)
(0.197864 0.00219935 0)
(0.197724 0.0021711 0)
(0.19758 0.00214342 0)
(0.197432 0.00211626 0)
(0.19728 0.0020896 0)
(0.197124 0.00206342 0)
(0.196964 0.00203767 0)
(0.1968 0.00201234 0)
(0.196631 0.0019874 0)
(0.196459 0.00196284 0)
(0.196283 0.00193863 0)
(0.196102 0.00191475 0)
(0.195917 0.0018912 0)
(0.195729 0.00186795 0)
(0.195536 0.001845 0)
(0.195339 0.00182234 0)
(0.195137 0.00179996 0)
(0.194932 0.00177786 0)
(0.194722 0.00175605 0)
(0.194509 0.00173453 0)
(0.194291 0.00171332 0)
(0.194069 0.00169241 0)
(0.193843 0.00167185 0)
(0.193613 0.00165166 0)
(0.193379 0.00163189 0)
(0.19314 0.00161258 0)
(0.192898 0.00159382 0)
(0.192651 0.0015757 0)
(0.192401 0.00155835 0)
(0.192147 0.00154187 0)
(0.191891 0.00152619 0)
(0.191633 0.00151035 0)
(0.191378 0.00148998 0)
(0.191059 0.00145103 0)
(0.197581 0.00606476 0)
(0.197832 0.00646344 0)
(0.198133 0.00680265 0)
(0.19847 0.00707193 0)
(0.198826 0.00726793 0)
(0.199186 0.00739226 0)
(0.199535 0.00744945 0)
(0.199865 0.00744604 0)
(0.200165 0.00739007 0)
(0.200433 0.00729053 0)
(0.200663 0.00715669 0)
(0.200856 0.00699741 0)
(0.201012 0.00682079 0)
(0.201134 0.00663383 0)
(0.201225 0.00644227 0)
(0.201289 0.0062506 0)
(0.201331 0.0060621 0)
(0.201353 0.00587904 0)
(0.20136 0.00570278 0)
(0.201355 0.00553408 0)
(0.201341 0.00537318 0)
(0.201319 0.00522 0)
(0.201293 0.00507428 0)
(0.201262 0.00493563 0)
(0.201229 0.00480362 0)
(0.201193 0.00467783 0)
(0.201157 0.00455783 0)
(0.20112 0.00444327 0)
(0.201083 0.0043338 0)
(0.201045 0.00422912 0)
(0.201008 0.00412897 0)
(0.20097 0.00403309 0)
(0.200933 0.00394128 0)
(0.200897 0.00385334 0)
(0.200861 0.00376908 0)
(0.200825 0.00368832 0)
(0.20079 0.0036109 0)
(0.200755 0.00353668 0)
(0.20072 0.00346549 0)
(0.200686 0.0033972 0)
(0.200652 0.00333166 0)
(0.200618 0.00326875 0)
(0.200584 0.00320834 0)
(0.20055 0.00315031 0)
(0.200516 0.00309454 0)
(0.200482 0.00304092 0)
(0.200448 0.00298934 0)
(0.200413 0.0029397 0)
(0.200378 0.0028919 0)
(0.200343 0.00284584 0)
(0.200307 0.00280143 0)
(0.20027 0.0027586 0)
(0.200232 0.00271725 0)
(0.200194 0.0026773 0)
(0.200154 0.00263868 0)
(0.200114 0.00260133 0)
(0.200073 0.00256516 0)
(0.20003 0.00253012 0)
(0.199986 0.00249615 0)
(0.199941 0.00246317 0)
(0.199894 0.00243115 0)
(0.199845 0.00240001 0)
(0.199796 0.00236972 0)
(0.199744 0.00234022 0)
(0.199691 0.00231147 0)
(0.199636 0.00228342 0)
(0.199579 0.00225603 0)
(0.19952 0.00222926 0)
(0.199459 0.00220308 0)
(0.199396 0.00217744 0)
(0.19933 0.00215231 0)
(0.199263 0.00212767 0)
(0.199193 0.00210349 0)
(0.199121 0.00207973 0)
(0.199047 0.00205637 0)
(0.19897 0.00203338 0)
(0.19889 0.00201075 0)
(0.198808 0.00198846 0)
(0.198724 0.00196649 0)
(0.198636 0.00194482 0)
(0.198546 0.00192345 0)
(0.198454 0.00190236 0)
(0.198358 0.00188154 0)
(0.19826 0.001861 0)
(0.198159 0.00184074 0)
(0.198055 0.00182076 0)
(0.197948 0.00180107 0)
(0.197837 0.00178169 0)
(0.197724 0.00176264 0)
(0.197608 0.00174395 0)
(0.197488 0.00172566 0)
(0.197366 0.00170782 0)
(0.19724 0.0016905 0)
(0.197111 0.00167376 0)
(0.196979 0.00165766 0)
(0.196844 0.00164217 0)
(0.196707 0.00162696 0)
(0.196568 0.00161074 0)
(0.196427 0.00158975 0)
(0.196241 0.0015552 0)
(0.198002 0.00584557 0)
(0.1982 0.00618556 0)
(0.198436 0.00648127 0)
(0.1987 0.00672416 0)
(0.198983 0.00690986 0)
(0.199272 0.0070378 0)
(0.199557 0.00711012 0)
(0.199828 0.00713092 0)
(0.20008 0.00710574 0)
(0.200307 0.00704106 0)
(0.200506 0.00694385 0)
(0.200677 0.00682104 0)
(0.200818 0.00667917 0)
(0.200931 0.00652412 0)
(0.201019 0.00636095 0)
(0.201085 0.00619381 0)
(0.20113 0.00602595 0)
(0.201158 0.00585982 0)
(0.201173 0.00569716 0)
(0.201176 0.00553911 0)
(0.20117 0.00538637 0)
(0.201158 0.00523929 0)
(0.201139 0.00509801 0)
(0.201117 0.00496247 0)
(0.201092 0.00483254 0)
(0.201065 0.00470803 0)
(0.201037 0.00458871 0)
(0.201008 0.00447438 0)
(0.200978 0.00436479 0)
(0.200949 0.00425975 0)
(0.200919 0.00415905 0)
(0.20089 0.00406251 0)
(0.200862 0.00396995 0)
(0.200834 0.0038812 0)
(0.200807 0.00379609 0)
(0.200781 0.00371449 0)
(0.200755 0.00363623 0)
(0.20073 0.00356117 0)
(0.200706 0.00348919 0)
(0.200682 0.00342013 0)
(0.200659 0.00335387 0)
(0.200637 0.00329029 0)
(0.200616 0.00322926 0)
(0.200595 0.00317066 0)
(0.200575 0.00311438 0)
(0.200555 0.0030603 0)
(0.200536 0.00300832 0)
(0.200517 0.00295834 0)
(0.200498 0.00291026 0)
(0.20048 0.00286399 0)
(0.200462 0.00281942 0)
(0.200444 0.00277648 0)
(0.200427 0.00273509 0)
(0.200409 0.00269515 0)
(0.200392 0.0026566 0)
(0.200374 0.00261936 0)
(0.200357 0.00258337 0)
(0.200339 0.00254855 0)
(0.200321 0.00251485 0)
(0.200303 0.00248219 0)
(0.200285 0.00245053 0)
(0.200266 0.00241981 0)
(0.200247 0.00238998 0)
(0.200227 0.00236098 0)
(0.200207 0.00233276 0)
(0.200186 0.00230529 0)
(0.200165 0.00227852 0)
(0.200143 0.00225241 0)
(0.20012 0.00222692 0)
(0.200097 0.002202 0)
(0.200072 0.00217764 0)
(0.200047 0.00215379 0)
(0.200021 0.00213043 0)
(0.199994 0.00210752 0)
(0.199966 0.00208503 0)
(0.199937 0.00206296 0)
(0.199906 0.00204126 0)
(0.199875 0.00201993 0)
(0.199842 0.00199894 0)
(0.199808 0.00197828 0)
(0.199773 0.00195793 0)
(0.199737 0.00193789 0)
(0.199699 0.00191815 0)
(0.199659 0.0018987 0)
(0.199618 0.00187955 0)
(0.199575 0.0018607 0)
(0.199531 0.00184216 0)
(0.199485 0.00182394 0)
(0.199438 0.00180608 0)
(0.199388 0.00178859 0)
(0.199337 0.00177152 0)
(0.199284 0.00175491 0)
(0.199229 0.0017388 0)
(0.199172 0.00172325 0)
(0.199113 0.00170825 0)
(0.199053 0.00169372 0)
(0.19899 0.00167924 0)
(0.198926 0.00166375 0)
(0.198859 0.00164488 0)
(0.198762 0.001619 0)
(0.198391 0.00565448 0)
(0.198545 0.00594714 0)
(0.198725 0.00620596 0)
(0.198928 0.00642439 0)
(0.199146 0.00659818 0)
(0.199372 0.00672571 0)
(0.199596 0.00680756 0)
(0.199813 0.00684604 0)
(0.200017 0.00684473 0)
(0.200203 0.00680812 0)
(0.200369 0.00674129 0)
(0.200514 0.00664949 0)
(0.200636 0.00653787 0)
(0.200737 0.00641125 0)
(0.200818 0.00627396 0)
(0.20088 0.00612971 0)
(0.200925 0.00598159 0)
(0.200956 0.00583209 0)
(0.200975 0.00568311 0)
(0.200984 0.00553609 0)
(0.200984 0.00539205 0)
(0.200978 0.00525169 0)
(0.200966 0.00511547 0)
(0.200951 0.00498363 0)
(0.200933 0.0048563 0)
(0.200912 0.00473353 0)
(0.20089 0.00461527 0)
(0.200868 0.00450145 0)
(0.200844 0.00439199 0)
(0.20082 0.00428676 0)
(0.200797 0.00418564 0)
(0.200773 0.0040885 0)
(0.20075 0.00399522 0)
(0.200728 0.00390566 0)
(0.200706 0.00381969 0)
(0.200685 0.00373719 0)
(0.200664 0.00365801 0)
(0.200644 0.00358204 0)
(0.200625 0.00350914 0)
(0.200607 0.00343919 0)
(0.200589 0.00337207 0)
(0.200572 0.00330765 0)
(0.200556 0.00324581 0)
(0.200541 0.00318645 0)
(0.200526 0.00312945 0)
(0.200512 0.00307469 0)
(0.200498 0.00302208 0)
(0.200485 0.0029715 0)
(0.200472 0.00292287 0)
(0.20046 0.00287609 0)
(0.200449 0.00283106 0)
(0.200438 0.0027877 0)
(0.200427 0.00274593 0)
(0.200417 0.00270566 0)
(0.200407 0.00266681 0)
(0.200398 0.00262932 0)
(0.200388 0.00259311 0)
(0.200379 0.00255811 0)
(0.20037 0.00252426 0)
(0.200362 0.00249149 0)
(0.200353 0.00245976 0)
(0.200345 0.00242899 0)
(0.200337 0.00239915 0)
(0.200328 0.00237017 0)
(0.20032 0.002342 0)
(0.200312 0.00231462 0)
(0.200304 0.00228796 0)
(0.200295 0.00226198 0)
(0.200287 0.00223665 0)
(0.200278 0.00221194 0)
(0.20027 0.00218779 0)
(0.200261 0.00216419 0)
(0.200252 0.0021411 0)
(0.200242 0.00211849 0)
(0.200233 0.00209633 0)
(0.200223 0.0020746 0)
(0.200212 0.00205328 0)
(0.200202 0.00203234 0)
(0.200191 0.00201177 0)
(0.200179 0.00199155 0)
(0.200167 0.00197167 0)
(0.200155 0.00195212 0)
(0.200142 0.0019329 0)
(0.200128 0.00191399 0)
(0.200114 0.00189541 0)
(0.200099 0.00187715 0)
(0.200084 0.00185922 0)
(0.200067 0.00184165 0)
(0.20005 0.00182445 0)
(0.200032 0.00180766 0)
(0.200014 0.0017913 0)
(0.199994 0.00177541 0)
(0.199973 0.00176003 0)
(0.199952 0.0017452 0)
(0.19993 0.0017309 0)
(0.199906 0.00171704 0)
(0.199882 0.0017033 0)
(0.199855 0.00168906 0)
(0.199826 0.00167337 0)
(0.199779 0.00165588 0)
(0.198755 0.00549141 0)
(0.198869 0.00574674 0)