/*--------------------------------*- C++ -*----------------------------------*\
| =========                 |                                                 |
| \\      /  F ield         | OpenFOAM: The Open Source CFD Toolbox           |
|  \\    /   O peration     | Version:  2.3.0                                 |
|   \\  /    A nd           | Web:      www.OpenFOAM.org                      |
|    \\/     M anipulation  |                                                 |
\*---------------------------------------------------------------------------*/
FoamFile
{
    version     2.0;
    format      ascii;
    class       volScalarField;
    location    "1";
    object      p;
}
// * * * * * * * * * * * * * * * * * * * * * * * * * * * * * * * * * * * * * //

dimensions      [0 2 -2 0 0 0 0];

internalField   nonuniform List<scalar> 
2889
(
0.00253543
0.00199837
0.00148858
0.00111118
0.000809949
0.00054515
0.000310831
0.000110624
-5.36502e-05
-0.000182862
-0.000279595
-0.000347666
-0.000391753
-0.000416881
-0.000427891
-0.000429034
-0.000423769
-0.00041471
-0.000403708
-0.000391975
-0.000380242
-0.000368901
-0.000358115
-0.000347919
-0.000338271
-0.000329099
-0.000320325
-0.000311876
-0.000303693
-0.000295727
-0.000287945
-0.000280322
-0.000272843
-0.000265498
-0.00025828
-0.000251188
-0.000244222
-0.00023738
-0.000230666
-0.000224078
-0.00021762
-0.000211293
-0.000205097
-0.000199033
-0.000193102
-0.000187305
-0.000181641
-0.000176111
-0.000170714
-0.000165449
-0.000160317
-0.000155315
-0.000150443
-0.000145699
-0.000141081
-0.000136589
-0.000132219
-0.00012797
-0.00012384
-0.000119825
-0.000115924
-0.000112134
-0.000108451
-0.000104874
-0.000101398
-9.80203e-05
-9.4738e-05
-9.15474e-05
-8.8445e-05
-8.5427e-05
-8.24897e-05
-7.96293e-05
-7.68416e-05
-7.41226e-05
-7.1468e-05
-6.88735e-05
-6.63345e-05
-6.38463e-05
-6.1404e-05
-5.90028e-05
-5.66372e-05
-5.4302e-05
-5.19913e-05
-4.96993e-05
-4.74198e-05
-4.51461e-05
-4.28714e-05
-4.05883e-05
-3.82892e-05
-3.59658e-05
-3.3609e-05
-3.12094e-05
-2.87564e-05
-2.62379e-05
-2.36401e-05
-2.09455e-05
-1.81308e-05
-1.51564e-05
-1.1806e-05
-1.06338e-05
0.0022515
0.00186281
0.00145285
0.0011158
0.000831199
0.000574529
0.000343934
0.000144752
-2.01069e-05
-0.000150873
-0.000249763
-0.000320335
-0.000367071
-0.000394844
-0.000408383
-0.000411869
-0.000408717
-0.000401526
-0.000392147
-0.000381806
-0.000371257
-0.000360916
-0.000350975
-0.000341492
-0.000332449
-0.000323793
-0.000315463
-0.0003074
-0.000299552
-0.000291883
-0.000284364
-0.000276975
-0.000269707
-0.000262551
-0.000255506
-0.000248572
-0.000241749
-0.000235039
-0.000228446
-0.000221971
-0.000215616
-0.000209385
-0.000203278
-0.000197298
-0.000191445
-0.000185721
-0.000180125
-0.000174659
-0.000169322
-0.000164114
-0.000159035
-0.000154084
-0.000149259
-0.00014456
-0.000139985
-0.000135533
-0.000131202
-0.000126989
-0.000122893
-0.000118911
-0.000115041
-0.00011128
-0.000107626
-0.000104075
-0.000100625
-9.72717e-05
-9.40127e-05
-9.08443e-05
-8.77631e-05
-8.47654e-05
-8.18476e-05
-7.90057e-05
-7.62358e-05
-7.35338e-05
-7.08956e-05
-6.83167e-05
-6.57926e-05
-6.33188e-05
-6.08903e-05
-5.85023e-05
-5.61493e-05
-5.38262e-05
-5.15272e-05
-4.92464e-05
-4.69775e-05
-4.47141e-05
-4.24492e-05
-4.01756e-05
-3.78854e-05
-3.55705e-05
-3.3222e-05
-3.08301e-05
-2.83844e-05
-2.58727e-05
-2.32811e-05
-2.05916e-05
-1.77803e-05
-1.48026e-05
-1.13368e-05
-1.06555e-05
0.0020406
0.0017436
0.00140408
0.00109979
0.000832899
0.000590415
0.000371137
0.000179611
1.88134e-05
-0.000110988
-0.000211363
-0.000285143
-0.00033608
-0.000368413
-0.000386384
-0.000393859
-0.000394092
-0.000389643
-0.000382405
-0.000373692
-0.000364361
-0.000354926
-0.000345663
-0.000336697
-0.000328059
-0.000319733
-0.000311681
-0.000303859
-0.000296228
-0.000288754
-0.000281415
-0.000274194
-0.00026708
-0.000260068
-0.000253158
-0.000246348
-0.000239641
-0.000233039
-0.000226546
-0.000220164
-0.000213897
-0.000207747
-0.000201717
-0.000195807
-0.000190021
-0.000184359
-0.000178822
-0.000173411
-0.000168125
-0.000162966
-0.000157933
-0.000153025
-0.000148241
-0.000143581
-0.000139043
-0.000134625
-0.000130327
-0.000126146
-0.000122079
-0.000118126
-0.000114283
-0.000110548
-0.000106918
-0.00010339
-9.99624e-05
-9.66306e-05
-9.33919e-05
-9.02429e-05
-8.71803e-05
-8.42004e-05
-8.12996e-05
-7.8474e-05
-7.57198e-05
-7.30328e-05
-7.04089e-05
-6.78438e-05
-6.5333e-05
-6.28719e-05
-6.04557e-05
-5.80794e-05
-5.57378e-05
-5.34256e-05
-5.11371e-05
-4.88664e-05
-4.66073e-05
-4.43532e-05
-4.20974e-05
-3.98325e-05
-3.75508e-05
-3.5244e-05
-3.29034e-05
-3.05192e-05
-2.80809e-05
-2.55767e-05
-2.29927e-05
-2.0312e-05
-1.75122e-05
-1.45502e-05
-1.12028e-05
-1.17289e-05
0.00185864
0.00162223
0.00133922
0.00106987
0.000825818
0.000602027
0.000398027
0.000217557
6.36023e-05
-6.30516e-05
-0.000163311
-0.000239276
-0.000293939
-0.000330835
-0.000353632
-0.000365778
-0.000370269
-0.000369538
-0.000365444
-0.000359334
-0.000352124
-0.000344403
-0.000336523
-0.000328675
-0.000320948
-0.00031337
-0.000305939
-0.00029864
-0.000291454
-0.000284364
-0.000277359
-0.000270432
-0.000263578
-0.000256799
-0.000250096
-0.000243474
-0.000236938
-0.000230491
-0.00022414
-0.000217888
-0.000211741
-0.000205702
-0.000199773
-0.000193959
-0.000188261
-0.000182682
-0.000177222
-0.000171884
-0.000166666
-0.000161571
-0.000156598
-0.000151747
-0.000147016
-0.000142407
-0.000137916
-0.000133544
-0.000129288
-0.000125148
-0.00012112
-0.000117203
-0.000113395
-0.000109693
-0.000106094
-0.000102596
-9.91967e-05
-9.5892e-05
-9.26791e-05
-8.95548e-05
-8.65157e-05
-8.35583e-05
-8.0679e-05
-7.78739e-05
-7.51394e-05
-7.24712e-05
-6.98654e-05
-6.73176e-05
-6.48234e-05
-6.23783e-05
-5.99774e-05
-5.76159e-05
-5.52885e-05
-5.299e-05
-5.07147e-05
-4.84567e-05
-4.62099e-05
-4.39677e-05
-4.17234e-05
-3.94697e-05
-3.71989e-05
-3.49028e-05
-3.25725e-05
-3.01987e-05
-2.77709e-05
-2.52778e-05
-2.27065e-05
-2.00429e-05
-1.72727e-05
-1.43804e-05
-1.14298e-05
-1.36697e-05
0.00169462
0.00150351
0.00126907
0.00103471
0.000814781
0.000610033
0.000421562
0.000252803
0.000106713
-1.55488e-05
-0.000114385
-0.000191322
-0.000248714
-0.000289461
-0.000316664
-0.000333322
-0.000342114
-0.000345281
-0.000344592
-0.000341375
-0.000336579
-0.000330849
-0.000324602
-0.000318095
-0.000311476
-0.000304822
-0.000298171
-0.000291538
-0.00028493
-0.000278346
-0.000271788
-0.00026526
-0.000258764
-0.000252308
-0.000245899
-0.000239543
-0.000233249
-0.000227024
-0.000220876
-0.000214811
-0.000208836
-0.000202955
-0.000197173
-0.000191494
-0.000185922
-0.00018046
-0.000175109
-0.000169872
-0.00016475
-0.000159744
-0.000154855
-0.000150082
-0.000145425
-0.000140885
-0.000136461
-0.00013215
-0.000127953
-0.000123868
-0.000119893
-0.000116026
-0.000112265
-0.000108608
-0.000105052
-0.000101594
-9.82334e-05
-9.49654e-05
-9.17875e-05
-8.86965e-05
-8.56892e-05
-8.27622e-05
-7.99118e-05
-7.71345e-05
-7.44265e-05
-7.17837e-05
-6.92022e-05
-6.66777e-05
-6.42059e-05
-6.17823e-05
-5.94021e-05
-5.70604e-05
-5.47522e-05
-5.24722e-05
-5.02147e-05
-4.79739e-05
-4.57438e-05
-4.35179e-05
-4.12894e-05
-3.90511e-05
-3.67954e-05
-3.45141e-05
-3.21986e-05
-2.98397e-05
-2.74275e-05
-2.49514e-05
-2.24011e-05
-1.97684e-05
-1.70571e-05
-1.43227e-05
-1.20175e-05
-1.60901e-05
0.00155112
0.00139376
0.00119876
0.000995845
0.000798958
0.000612542
0.000439247
0.000282396
0.000144805
2.78433e-05
-6.85071e-05
-0.000145301
-0.00020436
-0.000248021
-0.000278863
-0.000299453
-0.000312143
-0.000318957
-0.000321544
-0.000321184
-0.000318828
-0.000315156
-0.000310634
-0.000305571
-0.000300164
-0.000294537
-0.000288762
-0.000282887
-0.000276938
-0.000270937
-0.000264897
-0.000258832
-0.000252755
-0.000246679
-0.000240615
-0.000234576
-0.000228572
-0.000222614
-0.000216712
-0.000210875
-0.000205111
-0.000199425
-0.000193826
-0.000188317
-0.000182904
-0.00017759
-0.000172378
-0.000167272
-0.000162273
-0.000157382
-0.000152601
-0.000147931
-0.000143371
-0.000138923
-0.000134584
-0.000130356
-0.000126236
-0.000122225
-0.000118319
-0.000114518
-0.00011082
-0.000107222
-0.000103723
-0.00010032
-9.70105e-05
-9.37914e-05
-9.06602e-05
-8.76138e-05
-8.4649e-05
-8.17625e-05
-7.89509e-05
-7.62107e-05
-7.35381e-05
-7.09293e-05
-6.83803e-05
-6.58871e-05
-6.34452e-05
-6.10504e-05
-5.86979e-05
-5.6383e-05
-5.41005e-05
-5.18454e-05
-4.9612e-05
-4.73946e-05
-4.51872e-05
-4.29834e-05
-4.07764e-05
-3.85592e-05
-3.63243e-05
-3.40637e-05
-3.17689e-05
-2.94311e-05
-2.70413e-05
-2.45905e-05
-2.20723e-05
-1.94885e-05
-1.68727e-05
-1.43834e-05
-1.28453e-05
-1.84027e-05
0.00142533
0.00129277
0.00112902
0.000953575
0.000778401
0.000609697
0.000451217
0.00030625
0.000177461
6.63463e-05
-2.67913e-05
-0.000102601
-0.00016244
-0.000208159
-0.000241875
-0.000265753
-0.000281836
-0.000291926
-0.000297537
-0.000299877
-0.00029988
-0.000298234
-0.000295439
-0.000291843
-0.000287682
-0.000283118
-0.000278258
-0.000273176
-0.000267922
-0.000262535
-0.000257042
-0.00025147
-0.000245838
-0.000240167
-0.000234473
-0.000228774
-0.000223083
-0.000217415
-0.000211782
-0.000206195
-0.000200663
-0.000195195
-0.000189798
-0.00018448
-0.000179246
-0.000174101
-0.000169048
-0.000164091
-0.000159233
-0.000154477
-0.000149823
-0.000145273
-0.000140828
-0.000136487
-0.000132252
-0.000128122
-0.000124096
-0.000120174
-0.000116353
-0.000112633
-0.000109012
-0.000105488
-0.000102059
-9.87234e-05
-9.54779e-05
-9.23202e-05
-8.92477e-05
-8.62574e-05
-8.33464e-05
-8.05114e-05
-7.77491e-05
-7.50562e-05
-7.24289e-05
-6.98637e-05
-6.73566e-05
-6.49036e-05
-6.25005e-05
-6.0143e-05
-5.78265e-05
-5.55463e-05
-5.32975e-05
-5.10749e-05
-4.88731e-05
-4.66865e-05
-4.4509e-05
-4.23345e-05
-4.01562e-05
-3.79672e-05
-3.57602e-05
-3.35274e-05
-3.12607e-05
-2.89519e-05
-2.65929e-05
-2.41774e-05
-2.17041e-05
-1.91883e-05
-1.67001e-05
-1.45034e-05
-1.36734e-05
-1.99651e-05
0.00131394
0.00120001
0.00106109
0.000909382
0.000754287
0.000602411
0.000458124
0.000324726
0.000204757
9.97888e-05
1.03763e-05
-6.37862e-05
-0.000123663
-0.000170686
-0.000206567
-0.000233111
-0.00025207
-0.00026503
-0.000273359
-0.000278184
-0.000280398
-0.000280688
-0.000279567
-0.00027741
-0.000274486
-0.000270987
-0.00026705
-0.000262772
-0.000258226
-0.000253464
-0.000248532
-0.000243463
-0.000238288
-0.000233032
-0.00022772
-0.000222371
-0.000217004
-0.000211636
-0.000206281
-0.000200953
-0.000195663
-0.000190422
-0.000185239
-0.000180122
-0.000175077
-0.00017011
-0.000165226
-0.000160429
-0.000155723
-0.000151111
-0.000146595
-0.000142176
-0.000137855
-0.000133634
-0.000129513
-0.000125491
-0.000121569
-0.000117746
-0.000114021
-0.000110392
-0.000106858
-0.000103418
-0.000100069
-9.68106e-05
-9.3639e-05
-9.05523e-05
-8.75479e-05
-8.46231e-05
-8.1775e-05
-7.90005e-05
-7.62964e-05
-7.36595e-05
-7.10862e-05
-6.8573e-05
-6.6116e-05
-6.37114e-05
-6.13551e-05
-5.90428e-05
-5.67701e-05
-5.45324e-05
-5.23248e-05
-5.01423e-05
-4.79796e-05
-4.5831e-05
-4.36909e-05
-4.15529e-05
-3.94106e-05
-3.72573e-05
-3.50857e-05
-3.28883e-05
-3.06576e-05
-2.8386e-05
-2.6067e-05
-2.36969e-05
-2.12807e-05
-1.88481e-05
-1.65033e-05
-1.45852e-05
-1.42406e-05
-2.03196e-05
0.00121444
0.00111497
0.000995897
0.000864449
0.000727513
0.000591327
0.000460457
0.000338181
0.000226924
0.000128283
4.29945e-05
-2.89692e-05
-8.82419e-05
-0.000135899
-0.000173299
-0.000201924
-0.000223257
-0.000238677
-0.000249406
-0.000256476
-0.000260731
-0.000262838
-0.000263315
-0.000262551
-0.000260838
-0.000258392
-0.000255373
-0.0002519
-0.000248064
-0.000243934
-0.000239567
-0.000235007
-0.000230293
-0.000225459
-0.000220532
-0.000215538
-0.000210499
-0.000205435
-0.000200363
-0.000195299
-0.000190257
-0.000185248
-0.000180283
-0.000175371
-0.00017052
-0.000165736
-0.000161027
-0.000156396
-0.000151847
-0.000147385
-0.000143012
-0.000138729
-0.000134539
-0.000130443
-0.000126442
-0.000122535
-0.000118723
-0.000115006
-0.000111382
-0.00010785
-0.000104411
-0.000101061
-9.77989e-05
-9.46235e-05
-9.15323e-05
-8.8523e-05
-8.55933e-05
-8.27404e-05
-7.99616e-05
-7.7254e-05
-7.46146e-05
-7.20401e-05
-6.95271e-05
-6.70722e-05
-6.46717e-05
-6.23218e-05
-6.00186e-05
-5.77578e-05
-5.55352e-05
-5.33462e-05
-5.11861e-05
-4.905e-05
-4.69326e-05
-4.48285e-05
-4.27321e-05
-4.06372e-05
-3.85376e-05
-3.64265e-05
-3.42972e-05
-3.21424e-05
-2.9955e-05
-2.77284e-05
-2.54575e-05
-2.31417e-05
-2.07917e-05
-1.84494e-05
-1.62416e-05
-1.45311e-05
-1.436e-05
-1.93527e-05
0.00112478
0.00103689
0.000933845
0.00081955
0.000698787
0.00057704
0.000458742
0.00034707
0.000244327
0.000152092
7.12224e-05
1.90688e-06
-5.62148e-05
-0.000103916
-0.000142249
-0.000172411
-0.00019564
-0.000213119
-0.000225924
-0.000234989
-0.000241098
-0.000244889
-0.00024687
-0.000247436
-0.000246894
-0.000245476
-0.000243361
-0.000240687
-0.000237558
-0.00023406
-0.000230258
-0.00022621
-0.000221961
-0.00021755
-0.000213012
-0.000208376
-0.000203668
-0.000198912
-0.000194126
-0.00018933
-0.000184538
-0.000179764
-0.00017502
-0.000170317
-0.000165664
-0.000161068
-0.000156536
-0.000152074
-0.000147687
-0.000143379
-0.000139152
-0.00013501
-0.000130955
-0.000126988
-0.00012311
-0.000119322
-0.000115625
-0.000112017
-0.000108498
-0.000105069
-0.000101727
-9.84713e-05
-9.53006e-05
-9.2213e-05
-8.92065e-05
-8.6279e-05
-8.34282e-05
-8.06516e-05
-7.79466e-05
-7.53104e-05
-7.274e-05
-7.02323e-05
-6.77842e-05
-6.53921e-05
-6.30526e-05
-6.0762e-05
-5.85164e-05
-5.63118e-05
-5.41439e-05
-5.20083e-05
-4.99005e-05
-4.78156e-05
-4.57486e-05
-4.3694e-05
-4.16464e-05
-3.95999e-05
-3.75482e-05
-3.54851e-05
-3.34037e-05
-3.12975e-05
-2.91596e-05
-2.69845e-05
-2.47683e-05
-2.25131e-05
-2.02341e-05
-1.79801e-05
-1.58832e-05
-1.42777e-05
-1.39753e-05
-1.73031e-05
0.00104334
0.000964981
0.000875024
0.000775232
0.000668734
0.000560132
0.000453509
0.000351861
0.00025735
0.000171505
9.5252e-05
2.89421e-05
-2.75652e-05
-7.47918e-05
-0.000113528
-0.000144723
-0.000169392
-0.000188538
-0.000203095
-0.000213896
-0.000221659
-0.000226983
-0.000230358
-0.000232178
-0.000232753
-0.000232327
-0.000231094
-0.000229203
-0.000226773
-0.000223901
-0.000220665
-0.000217128
-0.000213344
-0.000209358
-0.000205211
-0.000200936
-0.000196562
-0.000192116
-0.00018762
-0.000183094
-0.000178556
-0.000174021
-0.000169502
-0.000165012
-0.00016056
-0.000156155
-0.000151804
-0.000147515
-0.000143293
-0.000139142
-0.000135066
-0.000131068
-0.000127151
-0.000123316
-0.000119566
-0.0001159
-0.00011232
-0.000108826
-0.000105417
-0.000102092
-9.88519e-05
-9.56942e-05
-9.26179e-05
-8.96215e-05
-8.67031e-05
-8.38608e-05
-8.10924e-05
-7.83955e-05
-7.57676e-05
-7.32061e-05
-7.07082e-05
-6.82708e-05
-6.58908e-05
-6.3565e-05
-6.129e-05
-5.90621e-05
-5.68776e-05
-5.47327e-05
-5.26231e-05
-5.05446e-05
-4.84928e-05
-4.64629e-05
-4.445e-05
-4.24489e-05
-4.04541e-05
-3.84601e-05
-3.64608e-05
-3.44499e-05
-3.24212e-05
-3.03683e-05
-2.82849e-05
-2.61662e-05
-2.40095e-05
-2.18187e-05
-1.96111e-05
-1.74361e-05
-1.54142e-05
-1.38116e-05
-1.31561e-05
-1.46271e-05
0.000968781
0.000898464
0.00081935
0.000731846
0.000637852
0.000541108
0.00044524
0.000352992
0.000266366
0.000186818
0.000115297
5.22673e-05
-2.23957e-06
-4.85402e-05
-8.72047e-05
-0.000118968
-0.000144649
-0.000165082
-0.000181068
-0.000193341
-0.000202547
-0.000209241
-0.000213888
-0.000216869
-0.000218495
-0.000219015
-0.000218629
-0.000217499
-0.000215754
-0.000213499
-0.00021082
-0.000207791
-0.00020447
-0.00020091
-0.000197155
-0.000193241
-0.000189204
-0.00018507
-0.000180867
-0.000176615
-0.000172334
-0.000168041
-0.000163751
-0.000159477
-0.00015523
-0.00015102
-0.000146855
-0.000142743
-0.000138689
-0.0001347
-0.000130778
-0.000126929
-0.000123154
-0.000119456
-0.000115836
-0.000112297
-0.000108838
-0.000105461
-0.000102165
-9.8949e-05
-9.58135e-05
-9.27571e-05
-8.97787e-05
-8.68768e-05
-8.40499e-05
-8.1296e-05
-7.86132e-05
-7.59992e-05
-7.34516e-05
-7.0968e-05
-6.85455e-05
-6.61814e-05
-6.38727e-05
-6.16163e-05
-5.94087e-05
-5.72466e-05
-5.51262e-05
-5.3044e-05
-5.09958e-05
-4.89775e-05
-4.69848e-05
-4.5013e-05
-4.30575e-05
-4.11131e-05
-3.91747e-05
-3.72366e-05
-3.52932e-05
-3.33384e-05
-3.13661e-05
-2.93704e-05
-2.73455e-05
-2.5287e-05
-2.31932e-05
-2.10683e-05
-1.89297e-05
-1.68211e-05
-1.48386e-05
-1.31618e-05
-1.20472e-05
-1.18123e-05
0.000900023
0.000836628
0.000766628
0.000689586
0.000606517
0.000520402
0.000434371
0.000350877
0.000271746
0.000198334
0.000131587
7.20363e-05
1.98423e-05
-2.51474e-05
-6.33212e-05
-9.52304e-05
-0.000121522
-0.000142879
-0.000159979
-0.000173458
-0.000183889
-0.000191779
-0.000197561
-0.0002016
-0.000204197
-0.000205604
-0.000206023
-0.000205622
-0.000204538
-0.000202883
-0.000200752
-0.000198222
-0.00019536
-0.000192222
-0.000188857
-0.000185305
-0.000181604
-0.000177785
-0.000173876
-0.0001699
-0.00016588
-0.000161833
-0.000157775
-0.000153721
-0.000149684
-0.000145673
-0.000141698
-0.000137766
-0.000133886
-0.000130062
-0.000126299
-0.000122602
-0.000118974
-0.000115416
-0.000111933
-0.000108524
-0.000105191
-0.000101934
-9.87549e-05
-9.56519e-05
-9.26252e-05
-8.96739e-05
-8.67971e-05
-8.39935e-05
-8.12616e-05
-7.85997e-05
-7.60059e-05
-7.34781e-05
-7.10142e-05
-6.86116e-05
-6.62679e-05
-6.39803e-05
-6.1746e-05
-5.95618e-05
-5.74247e-05
-5.53314e-05
-5.32782e-05
-5.12616e-05
-4.92777e-05
-4.73226e-05
-4.53919e-05
-4.34813e-05
-4.15862e-05
-3.97016e-05
-3.78226e-05
-3.59437e-05
-3.40594e-05
-3.2164e-05
-3.02516e-05
-2.83165e-05
-2.63534e-05
-2.43582e-05
-2.23295e-05
-2.02711e-05
-1.81977e-05
-1.61434e-05
-1.41735e-05
-1.23813e-05
-1.08085e-05
-9.23414e-06
0.000836173
0.000778838
0.000716602
0.000648524
0.000574999
0.000498369
0.000421286
0.000345898
0.000273839
0.000206357
0.00014436
8.84181e-05
3.87813e-05
-4.57566e-06
-4.18935e-05
-7.35695e-05
-0.000100102
-0.000122042
-0.000139949
-0.000154369
-0.000165803
-0.000174707
-0.000181477
-0.000186456
-0.000189935
-0.000192158
-0.000193329
-0.000193616
-0.000193163
-0.000192086
-0.000190484
-0.000188442
-0.000186029
-0.000183307
-0.000180327
-0.000177135
-0.00017377
-0.000170265
-0.000166651
-0.000162954
-0.000159196
-0.000155397
-0.000151575
-0.000147745
-0.00014392
-0.000140112
-0.000136331
-0.000132586
-0.000128883
-0.000125229
-0.00012163
-0.00011809
-0.000114613
-0.000111201
-0.000107857
-0.000104583
-0.00010138
-9.82493e-05
-9.51909e-05
-9.2205e-05
-8.92913e-05
-8.64493e-05
-8.36782e-05
-8.09768e-05
-7.83438e-05
-7.57776e-05
-7.32766e-05
-7.08388e-05
-6.8462e-05
-6.61441e-05
-6.38826e-05
-6.16748e-05
-5.95182e-05
-5.74097e-05
-5.53463e-05
-5.33248e-05
-5.13419e-05
-4.93941e-05
-4.74777e-05
-4.55887e-05
-4.37232e-05
-4.18768e-05
-4.00452e-05
-3.82235e-05
-3.6407e-05
-3.45905e-05
-3.27685e-05
-3.09357e-05
-2.90864e-05
-2.72152e-05
-2.53169e-05
-2.33877e-05
-2.14259e-05
-1.94341e-05
-1.74227e-05
-1.54138e-05
-1.34417e-05
-1.15276e-05
-9.57104e-06
-7.09744e-06
0.000776482
0.000724526
0.000668993
0.000608652
0.000543479
0.000475295
0.000406319
0.000338401
0.000272977
0.000211177
0.000153856
0.000101593
5.46956e-05
1.32344e-05
-2.29145e-05
-5.40218e-05
-8.04596e-05
-0.000102661
-0.000121084
-0.000136185
-0.0001484
-0.000158129
-0.000165733
-0.000171527
-0.000175786
-0.000178745
-0.000180604
-0.000181531
-0.000181669
-0.00018114
-0.000180046
-0.000178473
-0.000176496
-0.000174179
-0.000171578
-0.00016874
-0.000165707
-0.000162515
-0.000159195
-0.000155776
-0.000152282
-0.000148734
-0.00014515
-0.000141546
-0.000137938
-0.000134337
-0.000130754
-0.000127198
-0.000123678
-0.000120199
-0.000116768
-0.00011339
-0.000110068
-0.000106806
-0.000103607
-0.000100473
-9.74049e-05
-9.44042e-05
-9.14716e-05
-8.86072e-05
-8.58111e-05
-8.30828e-05
-8.04216e-05
-7.78267e-05
-7.52968e-05
-7.28305e-05
-7.04263e-05
-6.80823e-05
-6.57967e-05
-6.35672e-05
-6.13915e-05
-5.92673e-05
-5.71918e-05
-5.51625e-05
-5.31763e-05
-5.12301e-05
-4.93209e-05
-4.74452e-05
-4.55994e-05
-4.37799e-05
-4.19827e-05
-4.02038e-05
-3.84388e-05
-3.66833e-05
-3.49326e-05
-3.31816e-05
-3.14253e-05
-2.96584e-05
-2.78754e-05
-2.60712e-05
-2.42408e-05
-2.23802e-05
-2.04872e-05
-1.85624e-05
-1.66111e-05
-1.46435e-05
-1.26666e-05
-1.06502e-05
-8.42033e-06
-5.45229e-06
0.000720317
0.000673192
0.000623515
0.000569908
0.000512067
0.000451402
0.000389753
0.000328692
0.000269464
0.000213074
0.000160313
0.000111747
6.77168e-05
2.83601e-05
-6.3566e-06
-3.66018e-05
-6.26422e-05
-8.48097e-05
-0.000103471
-0.000119004
-0.000131778
-0.000142143
-0.000150419
-0.000156894
-0.000161824
-0.00016543
-0.000167904
-0.000169413
-0.000170097
-0.000170079
-0.000169462
-0.000168336
-0.000166777
-0.000164853
-0.000162619
-0.000160128
-0.000157421
-0.000154537
-0.00015151
-0.000148368
-0.000145138
-0.000141841
-0.000138496
-0.000135122
-0.000131733
-0.000128343
-0.000124961
-0.000121599
-0.000118265
-0.000114966
-0.000111707
-0.000108495
-0.000105334
-0.000102228
-9.91782e-05
-9.61884e-05
-9.32601e-05
-9.03945e-05
-8.75924e-05
-8.48544e-05
-8.21805e-05
-7.95705e-05
-7.70239e-05
-7.45399e-05
-7.21176e-05
-6.97555e-05
-6.74524e-05
-6.52065e-05
-6.3016e-05
-6.08789e-05
-5.87931e-05
-5.67562e-05
-5.47658e-05
-5.28193e-05
-5.0914e-05
-4.90468e-05
-4.72147e-05
-4.54146e-05
-4.3643e-05
-4.18964e-05
-4.0171e-05
-3.8463e-05
-3.67681e-05
-3.50822e-05
-3.34006e-05
-3.17186e-05
-3.00313e-05
-2.83337e-05
-2.66205e-05
-2.48866e-05
-2.31271e-05
-2.13379e-05
-1.95158e-05
-1.76592e-05
-1.57684e-05
-1.38425e-05
-1.18683e-05
-9.78465e-06
-7.39739e-06
-4.24712e-06
0.000667134
0.000624393
0.000579889
0.00053219
0.000480816
0.000426854
0.000371821
0.00031704
0.000263575
0.000212311
0.000163963
0.000119071
7.79869e-05
4.08943e-05
7.82629e-06
-2.1305e-05
-4.66801e-05
-6.85452e-05
-8.71872e-05
-0.000102913
-0.000116031
-0.000126842
-0.000135627
-0.000142644
-0.000148127
-0.000152283
-0.000155293
-0.000157318
-0.000158494
-0.000158944
-0.000158769
-0.000158061
-0.000156898
-0.000155347
-0.000153467
-0.00015131
-0.000148922
-0.00014634
-0.000143601
-0.000140734
-0.000137766
-0.000134719
-0.000131616
-0.000128472
-0.000125305
-0.000122127
-0.00011895
-0.000115786
-0.000112642
-0.000109526
-0.000106445
-0.000103404
-0.000100408
-9.7461e-05
-9.45661e-05
-9.17258e-05
-8.8942e-05
-8.62163e-05
-8.35497e-05
-8.09429e-05
-7.8396e-05
-7.59091e-05
-7.34818e-05
-7.11135e-05
-6.88032e-05
-6.65498e-05
-6.43522e-05
-6.22087e-05
-6.01176e-05
-5.80772e-05
-5.60853e-05
-5.41399e-05
-5.22385e-05
-5.03788e-05
-4.85581e-05
-4.67737e-05
-4.50226e-05
-4.33018e-05
-4.1608e-05
-3.99379e-05
-3.82879e-05
-3.66543e-05
-3.50331e-05
-3.34203e-05
-3.18114e-05
-3.02019e-05
-2.85872e-05
-2.69624e-05
-2.53224e-05
-2.36623e-05
-2.19772e-05
-2.02624e-05
-1.85138e-05
-1.67278e-05
-1.48998e-05
-1.30205e-05
-1.10632e-05
-8.95369e-06
-6.51121e-06
-3.38672e-06
0.000616465
0.000577736
0.000537848
0.000495377
0.000449737
0.000401765
0.000352709
0.000303673
0.000255558
0.000209129
0.000165027
0.000123752
8.56556e-05
5.0945e-05
1.97013e-05
-8.10164e-06
-3.25753e-05
-5.38947e-05
-7.22785e-05
-8.79705e-05
-0.000101225
-0.000112295
-0.000121424
-0.000128841
-0.000134755
-0.000139357
-0.000142817
-0.000145285
-0.000146894
-0.000147762
-0.000147989
-0.000147667
-0.000146871
-0.000145672
-0.000144129
-0.000142293
-0.000140212
-0.000137924
-0.000135467
-0.00013287
-0.000130162
-0.000127365
-0.000124501
-0.000121589
-0.000118645
-0.000115682
-0.000112714
-0.00010975
-0.0001068
-0.000103871
-0.000100972
-9.81064e-05
-9.52806e-05
-9.24982e-05
-8.97627e-05
-8.70768e-05
-8.44426e-05
-8.18619e-05
-7.93358e-05
-7.68652e-05
-7.44504e-05
-7.20915e-05
-6.97883e-05
-6.75404e-05
-6.5347e-05
-6.32071e-05
-6.11195e-05
-5.90829e-05
-5.70958e-05
-5.51564e-05
-5.32628e-05
-5.1413e-05
-4.96049e-05
-4.78361e-05
-4.61042e-05
-4.44065e-05
-4.27403e-05
-4.11027e-05
-3.94906e-05
-3.79008e-05
-3.633e-05
-3.47746e-05
-3.32309e-05
-3.16948e-05
-3.01624e-05
-2.86293e-05
-2.7091e-05
-2.55427e-05
-2.39797e-05
-2.23971e-05
-2.07898e-05
-1.91528e-05
-1.74812e-05
-1.57691e-05
-1.40084e-05
-1.21838e-05
-1.02617e-05
-8.16726e-06
-5.75003e-06
-2.77172e-06
0.000567895
0.00053287
0.000497144
0.000459339
0.000418816
0.000376218
0.00033257
0.000288788
0.000245629
0.000203748
0.000163709
0.000125968
9.08623e-05
5.8611e-05
2.93265e-05
3.02798e-06
-2.0342e-05
-4.09007e-05
-5.88094e-05
-7.42573e-05
-8.74497e-05
-9.85971e-05
-0.000107907
-0.000115578
-0.000121797
-0.000126736
-0.000130551
-0.000133384
-0.000135358
-0.000136588
-0.00013717
-0.000137193
-0.000136734
-0.00013586
-0.00013463
-0.000133098
-0.00013131
-0.000129306
-0.000127121
-0.000124789
-0.000122335
-0.000119785
-0.000117161
-0.000114479
-0.000111759
-0.000109013
-0.000106254
-0.000103493
-0.00010074
-9.80033e-05
-9.52891e-05
-9.26038e-05
-8.99524e-05
-8.73393e-05
-8.4768e-05
-8.22414e-05
-7.97618e-05
-7.7331e-05
-7.49505e-05
-7.26211e-05
-7.03433e-05
-6.81174e-05
-6.59434e-05
-6.38208e-05
-6.1749e-05
-5.97273e-05
-5.77545e-05
-5.58295e-05
-5.39508e-05
-5.21169e-05
-5.0326e-05
-4.85762e-05
-4.68656e-05
-4.51919e-05
-4.35528e-05
-4.19459e-05
-4.03686e-05
-3.88182e-05
-3.72918e-05
-3.57863e-05
-3.42985e-05
-3.28252e-05
-3.13627e-05
-2.99074e-05
-2.84553e-05
-2.70023e-05
-2.55441e-05
-2.40763e-05
-2.25941e-05
-2.10928e-05
-1.95671e-05
-1.80119e-05
-1.64211e-05
-1.47874e-05
-1.31001e-05
-1.13405e-05
-9.47307e-06
-7.43021e-06
-5.09624e-06
-2.32278e-06
0.00052105
0.000489466
0.000457523
0.000423919
0.000387995
0.000350246
0.000311512
0.000272551
0.000233992
0.00019639
0.000160234
0.000125934
9.38051e-05
6.40659e-05
3.68472e-05
1.22001e-05
-9.89201e-06
-2.95005e-05
-4.67387e-05
-6.17499e-05
-7.46961e-05
-8.5749e-05
-9.50826e-05
-0.000102867
-0.000109267
-0.000114434
-0.00011851
-0.000121625
-0.000123895
-0.000125427
-0.000126315
-0.000126642
-0.000126484
-0.000125906
-0.000124967
-0.000123719
-0.000122208
-0.000120474
-0.000118553
-0.000116476
-0.000114273
-0.000111966
-0.000109577
-0.000107126
-0.000104629
-0.000102101
-9.95538e-05
-9.69992e-05
-9.44465e-05
-9.19043e-05
-8.93795e-05
-8.68783e-05
-8.4406e-05
-8.19669e-05
-7.95647e-05
-7.72025e-05
-7.48826e-05
-7.26071e-05
-7.03773e-05
-6.81944e-05
-6.60589e-05
-6.39713e-05
-6.19316e-05
-5.99394e-05
-5.79945e-05
-5.6096e-05
-5.4243e-05
-5.24345e-05
-5.06691e-05
-4.89454e-05
-4.72619e-05
-4.56168e-05
-4.40082e-05
-4.24342e-05
-4.08924e-05
-3.93808e-05
-3.78967e-05
-3.64378e-05
-3.50012e-05
-3.35842e-05
-3.21837e-05
-3.07966e-05
-2.94195e-05
-2.8049e-05
-2.66814e-05
-2.53127e-05
-2.39389e-05
-2.25557e-05
-2.11586e-05
-1.97427e-05
-1.83031e-05
-1.68339e-05
-1.53287e-05
-1.37791e-05
-1.21727e-05
-1.04897e-05
-8.69619e-06
-6.73549e-06
-4.52405e-06
-1.97692e-06
0.000467082
0.000439323
0.000411493
0.000382406
0.000351415
0.000318871
0.000285442
0.000251725
0.000218221
0.000185381
0.000153612
0.000123266
9.46258e-05
6.79006e-05
4.32302e-05
2.06897e-05
2.97209e-07
-1.7977e-05
-3.42014e-05
-4.84737e-05
-6.09121e-05
-7.16479e-05
-8.0819e-05
-8.85645e-05
-9.50209e-05
-0.000100319
-0.000104583
-0.000107927
-0.000110457
-0.000112269
-0.000113452
-0.000114083
-0.000114233
-0.000113966
-0.000113338
-0.000112399
-0.000111194
-0.000109763
-0.00010814
-0.000106357
-0.000104441
-0.000102416
-0.000100304
-9.8124e-05
-9.58919e-05
-9.36225e-05
-9.13284e-05
-8.90208e-05
-8.67093e-05
-8.44022e-05
-8.21068e-05
-7.98292e-05
-7.75747e-05
-7.53478e-05
-7.31523e-05
-7.09912e-05
-6.88671e-05
-6.6782e-05
-6.47375e-05
-6.27347e-05
-6.07745e-05
-5.88572e-05
-5.69831e-05
-5.5152e-05
-5.33636e-05
-5.16174e-05
-4.99126e-05
-4.82482e-05
-4.66231e-05
-4.5036e-05
-4.34856e-05
-4.19702e-05
-4.04881e-05
-3.90376e-05
-3.76166e-05
-3.62231e-05
-3.48549e-05
-3.35096e-05
-3.21847e-05
-3.08777e-05
-2.95857e-05
-2.83058e-05
-2.70351e-05
-2.57702e-05
-2.45077e-05
-2.3244e-05
-2.19753e-05
-2.06975e-05
-1.94064e-05
-1.80972e-05
-1.67648e-05
-1.54035e-05
-1.4006e-05
-1.25634e-05
-1.10628e-05
-9.48473e-06
-7.8e-06
-5.96598e-06
-3.93073e-06
-1.65509e-06
0.000405202
0.00038161
0.000358157
0.000333805
0.000307953
0.00028084
0.000252973
0.000224804
0.000196715
0.000169051
0.000142135
0.000116253
9.16465e-05
6.85016e-05
4.6954e-05
2.70902e-05
8.95135e-06
-7.46042e-06
-2.21763e-05
-3.52543e-05
-4.67722e-05
-5.68228e-05
-6.55074e-05
-7.29326e-05
-7.92057e-05
-8.44325e-05
-8.87153e-05
-9.21508e-05
-9.48301e-05
-9.68372e-05
-9.82497e-05
-9.91384e-05
-9.95673e-05
-9.95946e-05
-9.92724e-05
-9.86477e-05
-9.77623e-05
-9.66537e-05
-9.53552e-05
-9.38965e-05
-9.23038e-05
-9.06004e-05
-8.88068e-05
-8.69414e-05
-8.502e-05
-8.30567e-05
-8.10639e-05
-7.90523e-05
-7.70313e-05
-7.50091e-05
-7.29927e-05
-7.09881e-05
-6.90007e-05
-6.70348e-05
-6.50941e-05
-6.31817e-05
-6.13002e-05
-5.94517e-05
-5.76378e-05
-5.58597e-05
-5.41183e-05
-5.24141e-05
-5.07474e-05
-4.91183e-05
-4.75266e-05
-4.59718e-05
-4.44533e-05
-4.29704e-05
-4.1522e-05
-4.01072e-05
-3.87247e-05
-3.73732e-05
-3.60511e-05
-3.47568e-05
-3.34887e-05
-3.22449e-05
-3.10233e-05
-2.98221e-05
-2.86388e-05
-2.74713e-05
-2.6317e-05
-2.51734e-05
-2.40376e-05
-2.29069e-05
-2.17781e-05
-2.06479e-05
-1.95129e-05
-1.83693e-05
-1.72131e-05
-1.60399e-05
-1.48447e-05
-1.36217e-05
-1.23637e-05
-1.10619e-05
-9.70397e-06
-8.27334e-06
-6.74751e-06
-5.09857e-06
-3.29969e-06
-1.34185e-06
0.0003409
0.000321447
0.000302256
0.000282446
0.000261489
0.000239542
0.000216981
0.000194138
0.000171293
0.000148702
0.00012661
0.000105243
8.4792e-05
6.5417e-05
4.72392e-05
3.03443e-05
1.47845e-05
5.81169e-07
-1.22711e-05
-2.38002e-05
-3.40526e-05
-4.30885e-05
-5.0978e-05
-5.77981e-05
-6.36289e-05
-6.85519e-05
-7.26475e-05
-7.59938e-05
-7.86653e-05
-8.07323e-05
-8.22605e-05
-8.33107e-05
-8.39388e-05
-8.41957e-05
-8.41278e-05
-8.3777e-05
-8.31811e-05
-8.23741e-05
-8.13864e-05
-8.02451e-05
-7.89745e-05
-7.75959e-05
-7.61286e-05
-7.45893e-05
-7.2993e-05
-7.13527e-05
-6.96801e-05
-6.79852e-05
-6.62768e-05
-6.45626e-05
-6.28493e-05
-6.11426e-05
-5.94474e-05
-5.7768e-05
-5.61079e-05
-5.447e-05
-5.2857e-05
-5.12707e-05
-4.97128e-05
-4.81845e-05
-4.66868e-05
-4.52202e-05
-4.37852e-05
-4.23818e-05
-4.10101e-05
-3.96696e-05
-3.836e-05
-3.70806e-05
-3.58307e-05
-3.46094e-05
-3.34157e-05
-3.22484e-05
-3.11063e-05
-2.9988e-05
-2.8892e-05
-2.78169e-05
-2.67608e-05
-2.57221e-05
-2.46987e-05
-2.36888e-05
-2.26902e-05
-2.17006e-05
-2.07177e-05
-1.97389e-05
-1.87616e-05