/*--------------------------------*- C++ -*----------------------------------*\
| =========                 |                                                 |
| \\      /  F ield         | OpenFOAM: The Open Source CFD Toolbox           |
|  \\    /   O peration     | Version:  2.3.0                                 |
|   \\  /    A nd           | Web:      www.OpenFOAM.org                      |
|    \\/     M anipulation  |                                                 |
\*---------------------------------------------------------------------------*/
FoamFile
{
    version     2.0;
    format      ascii;
    class       volVectorField;
    location    "1";
    object      U;
}
// * * * * * * * * * * * * * * * * * * * * * * * * * * * * * * * * * * * * * //

dimensions      [0 1 -1 0 0 0 0];

internalField   nonuniform List<vector> 
2889
(
(0.173574 0.00566421 0)
(0.156961 0.00590271 0)
(0.141231 0.00557705 0)
(0.126263 0.00501886 0)
(0.112433 0.00438006 0)
(0.0999628 0.00372371 0)
(0.0888924 0.00308814 0)
(0.0791944 0.00250015 0)
(0.0708156 0.00197667 0)
(0.0636762 0.00152665 0)
(0.0576683 0.00115273 0)
(0.0526634 0.000852307 0)
(0.0485237 0.000618743 0)
(0.0451112 0.000442853 0)
(0.0422963 0.000314435 0)
(0.0399622 0.000223486 0)
(0.0380087 0.000161004 0)
(0.0363524 0.00011938 0)
(0.0349268 9.24909e-05 0)
(0.0336799 7.56216e-05 0)
(0.0325722 6.52815e-05 0)
(0.0315742 5.89937e-05 0)
(0.0306644 5.50769e-05 0)
(0.0298269 5.24457e-05 0)
(0.0290502 5.04391e-05 0)
(0.0283257 4.86834e-05 0)
(0.0276469 4.69888e-05 0)
(0.0270088 4.52761e-05 0)
(0.0264074 4.3527e-05 0)
(0.0258393 4.1753e-05 0)
(0.0253016 3.99773e-05 0)
(0.0247919 3.82241e-05 0)
(0.0243079 3.65139e-05 0)
(0.0238477 3.48626e-05 0)
(0.0234095 3.32803e-05 0)
(0.0229916 3.1773e-05 0)
(0.0225925 3.03433e-05 0)
(0.022211 2.89909e-05 0)
(0.0218458 2.7714e-05 0)
(0.0214959 2.65098e-05 0)
(0.0211601 2.53746e-05 0)
(0.0208377 2.43045e-05 0)
(0.0205277 2.32957e-05 0)
(0.0202294 2.23442e-05 0)
(0.0199421 2.14463e-05 0)
(0.0196651 2.05985e-05 0)
(0.0193979 1.97975e-05 0)
(0.0191399 1.90402e-05 0)
(0.0188906 1.83238e-05 0)
(0.0186495 1.76455e-05 0)
(0.0184161 1.70029e-05 0)
(0.0181902 1.63937e-05 0)
(0.0179712 1.58158e-05 0)
(0.0177588 1.52674e-05 0)
(0.0175528 1.47465e-05 0)
(0.0173528 1.42515e-05 0)
(0.0171584 1.37808e-05 0)
(0.0169695 1.3333e-05 0)
(0.0167858 1.29067e-05 0)
(0.016607 1.25007e-05 0)
(0.016433 1.21138e-05 0)
(0.0162634 1.1745e-05 0)
(0.0160981 1.13931e-05 0)
(0.0159369 1.10573e-05 0)
(0.0157796 1.07366e-05 0)
(0.0156261 1.04304e-05 0)
(0.0154762 1.01377e-05 0)
(0.0153297 9.85788e-06 0)
(0.0151865 9.5903e-06 0)
(0.0150464 9.33432e-06 0)
(0.0149094 9.08937e-06 0)
(0.0147752 8.85493e-06 0)
(0.0146439 8.63049e-06 0)
(0.0145151 8.41556e-06 0)
(0.014389 8.20978e-06 0)
(0.0142653 8.01275e-06 0)
(0.0141439 7.82403e-06 0)
(0.0140248 7.64341e-06 0)
(0.0139079 7.47049e-06 0)
(0.013793 7.30505e-06 0)
(0.0136801 7.14683e-06 0)
(0.0135691 6.9956e-06 0)
(0.0134599 6.85118e-06 0)
(0.0133524 6.71342e-06 0)
(0.0132466 6.58217e-06 0)
(0.0131424 6.45732e-06 0)
(0.0130396 6.33882e-06 0)
(0.0129383 6.22666e-06 0)
(0.0128383 6.12087e-06 0)
(0.0127396 6.02161e-06 0)
(0.0126421 5.92919e-06 0)
(0.0125456 5.84424e-06 0)
(0.0124502 5.76798e-06 0)
(0.0123557 5.70285e-06 0)
(0.0122618 5.65417e-06 0)
(0.0121685 5.63464e-06 0)
(0.0120751 5.68303e-06 0)
(0.0119799 5.8155e-06 0)
(0.0118998 5.24076e-06 0)
(0.0116343 3.6871e-05 0)
(0.192743 0.00906231 0)
(0.190446 0.00979761 0)
(0.186686 0.0096915 0)
(0.181674 0.00923633 0)
(0.175862 0.0086274 0)
(0.169616 0.00792549 0)
(0.163171 0.0071683 0)
(0.156697 0.00639044 0)
(0.150328 0.00562166 0)
(0.144164 0.00488641 0)
(0.138277 0.00420389 0)
(0.13271 0.0035877 0)
(0.127483 0.00304547 0)
(0.122604 0.00257923 0)
(0.118066 0.00218638 0)
(0.113855 0.00186088 0)
(0.109952 0.00159465 0)
(0.106336 0.00137872 0)
(0.102984 0.00120423 0)
(0.099873 0.00106306 0)
(0.0969813 0.000948178 0)
(0.0942881 0.000853775 0)
(0.0917745 0.000775215 0)
(0.0894235 0.000708906 0)
(0.0872194 0.000652129 0)
(0.0851486 0.000602851 0)
(0.0831987 0.000559566 0)
(0.0813589 0.00052116 0)
(0.0796195 0.0004868 0)
(0.0779719 0.000455855 0)
(0.0764086 0.000427838 0)
(0.0749228 0.000402363 0)
(0.0735083 0.000379115 0)
(0.0721598 0.000357833 0)
(0.0708724 0.000338299 0)
(0.0696418 0.000320321 0)
(0.0684639 0.000303737 0)
(0.0673351 0.000288404 0)
(0.0662523 0.000274195 0)
(0.0652125 0.000261002 0)
(0.064213 0.000248727 0)
(0.0632512 0.000237285 0)
(0.062325 0.0002266 0)
(0.0614323 0.000216605 0)
(0.0605711 0.00020724 0)
(0.0597398 0.000198454 0)
(0.0589366 0.000190199 0)
(0.0581601 0.000182432 0)
(0.0574088 0.000175117 0)
(0.0566814 0.000168219 0)
(0.0559768 0.000161707 0)
(0.0552938 0.000155553 0)
(0.0546314 0.000149733 0)
(0.0539884 0.000144223 0)
(0.0533641 0.000139003 0)
(0.0527576 0.000134053 0)
(0.0521679 0.000129355 0)
(0.0515944 0.000124894 0)
(0.0510363 0.000120654 0)
(0.0504929 0.000116622 0)
(0.0499636 0.000112785 0)
(0.0494478 0.000109131 0)
(0.0489449 0.00010565 0)
(0.0484543 0.000102331 0)
(0.0479755 9.91648e-05 0)
(0.047508 9.61432e-05 0)
(0.0470514 9.32578e-05 0)
(0.0466053 9.05013e-05 0)
(0.0461691 8.78667e-05 0)
(0.0457425 8.53473e-05 0)
(0.0453251 8.29373e-05 0)
(0.0449166 8.0631e-05 0)
(0.0445165 7.84232e-05 0)
(0.0441247 7.6309e-05 0)
(0.0437406 7.4284e-05 0)
(0.0433641 7.2344e-05 0)
(0.0429949 7.04849e-05 0)
(0.0426326 6.87034e-05 0)
(0.042277 6.69961e-05 0)
(0.0419278 6.53598e-05 0)
(0.0415848 6.37919e-05 0)
(0.0412477 6.22896e-05 0)
(0.0409163 6.08508e-05 0)
(0.0405904 5.94733e-05 0)
(0.0402697 5.81553e-05 0)
(0.0399541 5.68952e-05 0)
(0.0396432 5.56917e-05 0)
(0.0393369 5.45438e-05 0)
(0.039035 5.34509e-05 0)
(0.0387371 5.2413e-05 0)
(0.0384433 5.14312e-05 0)
(0.0381531 5.0508e-05 0)
(0.0378663 4.96496e-05 0)
(0.0375826 4.88687e-05 0)
(0.0373018 4.81951e-05 0)
(0.0370231 4.77036e-05 0)
(0.0367456 4.75999e-05 0)
(0.0364656 4.83815e-05 0)
(0.0362032 5.41243e-05 0)
(0.0356642 0.000128717 0)
(0.195702 0.00869949 0)
(0.196503 0.00980738 0)
(0.19675 0.0102441 0)
(0.196228 0.0102973 0)
(0.195009 0.010109 0)
(0.193214 0.00972979 0)
(0.190939 0.00920202 0)
(0.188271 0.00857331 0)
(0.185298 0.00788882 0)
(0.182108 0.00718723 0)
(0.178775 0.00649984 0)
(0.175366 0.00585002 0)
(0.17193 0.00525314 0)
(0.168508 0.00471717 0)
(0.165131 0.00424402 0)
(0.161818 0.00383116 0)
(0.158585 0.00347328 0)
(0.155441 0.00316372 0)
(0.152388 0.00289549 0)
(0.149431 0.00266203 0)
(0.146567 0.00245752 0)
(0.143798 0.00227706 0)
(0.14112 0.00211664 0)
(0.138532 0.00197303 0)
(0.136031 0.00184367 0)
(0.133614 0.00172652 0)
(0.131278 0.00161995 0)
(0.129022 0.00152264 0)
(0.126841 0.00143352 0)
(0.124734 0.00135168 0)
(0.122697 0.00127636 0)
(0.120729 0.00120689 0)
(0.118826 0.00114271 0)
(0.116985 0.00108331 0)
(0.115206 0.00102824 0)
(0.113483 0.000977095 0)
(0.111817 0.000929526 0)
(0.110203 0.000885213 0)
(0.108641 0.00084387 0)
(0.107127 0.000805239 0)
(0.10566 0.000769093 0)
(0.104238 0.000735223 0)
(0.102859 0.000703445 0)
(0.101521 0.00067359 0)
(0.100223 0.000645509 0)
(0.0989618 0.000619066 0)
(0.0977372 0.000594136 0)
(0.0965472 0.00057061 0)
(0.0953904 0.000548385 0)
(0.0942655 0.000527369 0)
(0.0931713 0.00050748 0)
(0.0921063 0.000488639 0)
(0.0910696 0.000470778 0)
(0.0900599 0.000453831 0)
(0.0890761 0.00043774 0)
(0.0881173 0.000422451 0)
(0.0871825 0.000407914 0)
(0.0862708 0.000394082 0)
(0.0853812 0.000380912 0)
(0.0845129 0.000368366 0)
(0.0836651 0.000356407 0)
(0.082837 0.000345 0)
(0.0820279 0.000334115 0)
(0.0812371 0.000323721 0)
(0.0804639 0.000313792 0)
(0.0797076 0.000304302 0)
(0.0789677 0.000295228 0)
(0.0782435 0.000286546 0)
(0.0775345 0.000278238 0)
(0.0768401 0.000270283 0)
(0.0761597 0.000262663 0)
(0.075493 0.000255362 0)
(0.0748394 0.000248364 0)
(0.0741984 0.000241654 0)
(0.0735696 0.000235219 0)
(0.0729526 0.000229046 0)
(0.0723469 0.000223123 0)
(0.0717522 0.00021744 0)
(0.071168 0.000211985 0)
(0.070594 0.00020675 0)
(0.0700299 0.000201725 0)
(0.0694751 0.000196903 0)
(0.0689295 0.000192277 0)
(0.0683927 0.000187839 0)
(0.0678644 0.000183584 0)
(0.0673441 0.000179506 0)
(0.0668317 0.0001756 0)
(0.0663267 0.000171864 0)
(0.0658289 0.000168295 0)
(0.065338 0.000164891 0)
(0.0648536 0.000161653 0)
(0.0643754 0.000158588 0)
(0.063903 0.000155709 0)
(0.063436 0.000153045 0)
(0.062974 0.000150667 0)
(0.0625161 0.000148757 0)
(0.0620611 0.000147814 0)
(0.0616051 0.000149457 0)
(0.0611607 0.000166089 0)
(0.0604568 0.000259641 0)
(0.196728 0.00806351 0)
(0.197883 0.00920903 0)
(0.198983 0.00985115 0)
(0.199795 0.0101446 0)
(0.200269 0.0101938 0)
(0.200407 0.0100426 0)
(0.20021 0.00972553 0)
(0.199683 0.00928339 0)
(0.198847 0.00875734 0)
(0.197738 0.00818464 0)
(0.196394 0.00759706 0)
(0.194858 0.00702006 0)
(0.193169 0.00647222 0)
(0.191363 0.00596533 0)
(0.189472 0.00550528 0)
(0.18752 0.0050933 0)
(0.185528 0.00472734 0)
(0.183513 0.0044034 0)
(0.181484 0.00411653 0)
(0.179452 0.00386159 0)
(0.177422 0.00363375 0)
(0.1754 0.0034287 0)
(0.173389 0.00324281 0)
(0.171393 0.00307307 0)
(0.169413 0.00291707 0)
(0.167452 0.00277289 0)
(0.165511 0.00263899 0)
(0.163593 0.00251418 0)
(0.161698 0.00239746 0)
(0.159828 0.00228807 0)
(0.157984 0.00218533 0)
(0.156166 0.00208869 0)
(0.154377 0.00199767 0)
(0.152615 0.00191185 0)
(0.150883 0.00183086 0)
(0.149179 0.00175435 0)
(0.147505 0.00168201 0)
(0.14586 0.00161358 0)
(0.144245 0.00154878 0)
(0.14266 0.00148739 0)
(0.141104 0.00142918 0)
(0.139577 0.00137396 0)
(0.138079 0.00132154 0)
(0.13661 0.00127175 0)
(0.135169 0.00122443 0)
(0.133757 0.00117943 0)
(0.132372 0.00113661 0)
(0.131013 0.00109584 0)
(0.129682 0.00105702 0)
(0.128377 0.00102002 0)
(0.127097 0.000984749 0)
(0.125843 0.000951105 0)
(0.124613 0.000918999 0)
(0.123407 0.000888348 0)
(0.122224 0.000859073 0)
(0.121065 0.0008311 0)
(0.119928 0.00080436 0)
(0.118813 0.000778789 0)
(0.117719 0.000754326 0)
(0.116646 0.000730913 0)
(0.115593 0.000708498 0)
(0.114561 0.000687028 0)
(0.113547 0.000666458 0)
(0.112552 0.000646742 0)
(0.111575 0.000627838 0)
(0.110616 0.000609707 0)
(0.109674 0.000592312 0)
(0.108749 0.000575616 0)
(0.107841 0.000559587 0)
(0.106948 0.000544194 0)
(0.106071 0.000529408 0)
(0.105208 0.000515201 0)
(0.104361 0.000501546 0)
(0.103527 0.00048842 0)
(0.102708 0.0004758 0)
(0.101901 0.000463663 0)
(0.101108 0.00045199 0)
(0.100327 0.000440762 0)
(0.0995587 0.000429961 0)
(0.0988021 0.00041957 0)
(0.098057 0.000409574 0)
(0.0973231 0.00039996 0)
(0.0966 0.000390713 0)
(0.0958875 0.000381822 0)
(0.095185 0.000373276 0)
(0.0944924 0.000365066 0)
(0.0938093 0.000357183 0)
(0.0931353 0.000349621 0)
(0.0924701 0.000342373 0)
(0.0918134 0.000335439 0)
(0.0911649 0.000328819 0)
(0.090524 0.000322521 0)
(0.0898906 0.000316568 0)
(0.0892641 0.000311007 0)
(0.0886439 0.000305956 0)
(0.0880294 0.000301712 0)
(0.087419 0.000299111 0)
(0.0868098 0.000301069 0)
(0.0862106 0.000323666 0)
(0.0853916 0.000414063 0)
(0.197449 0.00755669 0)
(0.19847 0.00860731 0)
(0.199582 0.0092718 0)
(0.200617 0.00963793 0)
(0.201515 0.0097859 0)
(0.202256 0.00975522 0)
(0.202817 0.00957317 0)
(0.203176 0.00927049 0)
(0.203324 0.00887996 0)
(0.203264 0.00843272 0)
(0.203008 0.00795656 0)
(0.202575 0.00747491 0)
(0.201987 0.00700604 0)
(0.201267 0.00656272 0)
(0.200436 0.00615258 0)
(0.199514 0.00577895 0)
(0.198519 0.00544192 0)
(0.197463 0.0051394 0)
(0.196358 0.00486809 0)
(0.195213 0.00462415 0)
(0.194033 0.00440373 0)
(0.192825 0.00420327 0)
(0.191591 0.00401968 0)
(0.190336 0.00385034 0)
(0.189061 0.00369313 0)
(0.187771 0.00354634 0)
(0.186466 0.0034086 0)
(0.185149 0.00327883 0)
(0.183822 0.00315617 0)
(0.182488 0.00303993 0)
(0.181146 0.00292954 0)
(0.179801 0.00282452 0)
(0.178452 0.00272446 0)
(0.177102 0.00262903 0)
(0.175751 0.0025379 0)
(0.174403 0.00245082 0)
(0.173056 0.00236753 0)
(0.171714 0.00228781 0)
(0.170376 0.00221147 0)
(0.169045 0.00213832 0)
(0.16772 0.00206818 0)
(0.166403 0.00200091 0)
(0.165094 0.00193636 0)
(0.163794 0.00187439 0)
(0.162505 0.00181489 0)
(0.161225 0.00175773 0)
(0.159956 0.00170281 0)
(0.158699 0.00165003 0)
(0.157453 0.00159929 0)
(0.15622 0.0015505 0)
(0.154999 0.00150357 0)
(0.15379 0.00145844 0)
(0.152594 0.00141501 0)
(0.151411 0.00137322 0)
(0.150242 0.00133301 0)
(0.149085 0.00129429 0)
(0.147942 0.00125702 0)
(0.146812 0.00122113 0)
(0.145696 0.00118657 0)
(0.144593 0.00115328 0)
(0.143503 0.00112121 0)
(0.142426 0.0010903 0)
(0.141363 0.00106052 0)
(0.140313 0.00103182 0)
(0.139276 0.00100415 0)
(0.138252 0.000977478 0)
(0.137241 0.000951757 0)
(0.136242 0.000926951 0)
(0.135256 0.000903025 0)
(0.134282 0.000879944 0)
(0.133321 0.000857675 0)
(0.132371 0.000836189 0)
(0.131434 0.000815453 0)
(0.130508 0.000795442 0)
(0.129593 0.000776127 0)
(0.12869 0.000757484 0)
(0.127798 0.000739488 0)
(0.126917 0.000722117 0)
(0.126046 0.000705349 0)
(0.125186 0.000689164 0)
(0.124336 0.000673543 0)
(0.123496 0.00065847 0)
(0.122666 0.000643927 0)
(0.121846 0.000629901 0)
(0.121035 0.000616377 0)
(0.120233 0.000603343 0)
(0.11944 0.00059079 0)
(0.118656 0.000578708 0)
(0.11788 0.000567093 0)
(0.117112 0.000555941 0)
(0.116352 0.000545256 0)
(0.115599 0.00053505 0)
(0.114854 0.000525353 0)
(0.114115 0.000516235 0)
(0.113383 0.000507858 0)
(0.112657 0.000500627 0)
(0.111935 0.000495674 0)
(0.111216 0.000496781 0)
(0.11051 0.000519164 0)
(0.109619 0.00059095 0)
(0.198051 0.00711108 0)
(0.198906 0.0080429 0)
(0.199878 0.00868169 0)
(0.200852 0.00907104 0)
(0.201773 0.00926685 0)
(0.202617 0.00930281 0)
(0.203363 0.00920222 0)
(0.203988 0.00899 0)
(0.204477 0.00869325 0)
(0.204826 0.00833841 0)
(0.205036 0.00794955 0)
(0.205113 0.0075474 0)
(0.205069 0.00714866 0)
(0.204917 0.00676562 0)
(0.204672 0.00640628 0)
(0.204347 0.00607489 0)
(0.203954 0.00577274 0)
(0.203503 0.00549905 0)
(0.203004 0.0052517 0)
(0.202461 0.00502791 0)
(0.201881 0.00482466 0)
(0.201267 0.00463905 0)
(0.200622 0.00446845 0)
(0.199948 0.00431058 0)
(0.199247 0.00416353 0)
(0.198522 0.00402575 0)
(0.197772 0.00389597 0)
(0.197 0.00377316 0)
(0.196207 0.00365653 0)
(0.195393 0.00354541 0)
(0.194561 0.00343926 0)
(0.193711 0.00333766 0)
(0.192845 0.00324023 0)
(0.191964 0.00314666 0)
(0.191068 0.00305668 0)
(0.190159 0.00297006 0)
(0.189238 0.0028866 0)
(0.188306 0.00280611 0)
(0.187365 0.00272844 0)
(0.186414 0.00265342 0)
(0.185456 0.00258094 0)
(0.18449 0.00251088 0)
(0.183518 0.00244311 0)
(0.182541 0.00237756 0)
(0.18156 0.00231411 0)
(0.180574 0.00225269 0)
(0.179586 0.00219321 0)
(0.178595 0.00213562 0)
(0.177603 0.00207982 0)
(0.17661 0.00202577 0)
(0.175616 0.0019734 0)
(0.174623 0.00192265 0)
(0.17363 0.00187347 0)
(0.172639 0.00182581 0)
(0.171649 0.00177961 0)
(0.170661 0.00173484 0)
(0.169676 0.00169143 0)
(0.168694 0.00164936 0)
(0.167716 0.00160857 0)
(0.166741 0.00156903 0)
(0.16577 0.0015307 0)
(0.164803 0.00149353 0)
(0.16384 0.0014575 0)
(0.162883 0.00142256 0)
(0.16193 0.00138869 0)
(0.160983 0.00135585 0)
(0.160041 0.001324 0)
(0.159104 0.00129312 0)
(0.158173 0.00126318 0)
(0.157248 0.00123414 0)
(0.156329 0.00120599 0)
(0.155416 0.00117869 0)
(0.154509 0.00115221 0)
(0.153608 0.00112654 0)
(0.152714 0.00110165 0)
(0.151825 0.00107752 0)
(0.150943 0.00105412 0)
(0.150068 0.00103144 0)
(0.149198 0.00100946 0)
(0.148335 0.000988148 0)
(0.147478 0.000967501 0)
(0.146628 0.000947499 0)
(0.145783 0.000928128 0)
(0.144945 0.000909373 0)
(0.144113 0.000891223 0)
(0.143287 0.000873668 0)
(0.142467 0.000856698 0)
(0.141652 0.000840308 0)
(0.140844 0.000824494 0)
(0.140041 0.000809257 0)
(0.139243 0.000794603 0)
(0.138451 0.000780552 0)
(0.137664 0.000767145 0)
(0.136882 0.00075447 0)
(0.136104 0.000742727 0)
(0.135331 0.000732397 0)
(0.13456 0.000724765 0)
(0.133794 0.000723661 0)
(0.133044 0.000740563 0)
(0.132138 0.000784918 0)
(0.198565 0.00672174 0)
(0.199285 0.00754293 0)
(0.200117 0.00814247 0)
(0.20098 0.00853515 0)
(0.201828 0.00875606 0)
(0.202632 0.00883222 0)
(0.203373 0.00878419 0)
(0.204034 0.00863327 0)
(0.204601 0.00840255 0)
(0.205067 0.00811491 0)
(0.205432 0.00779136 0)
(0.205699 0.00745026 0)
(0.205874 0.00710669 0)
(0.205968 0.00677213 0)
(0.205989 0.00645447 0)
(0.205948 0.00615842 0)
(0.205855 0.00588605 0)
(0.205716 0.00563749 0)
(0.20554 0.00541152 0)
(0.205329 0.0052062 0)
(0.20509 0.0050192 0)
(0.204824 0.00484817 0)
(0.204534 0.00469087 0)
(0.204221 0.0045453 0)
(0.203887 0.00440976 0)
(0.203531 0.00428279 0)
(0.203155 0.00416321 0)
(0.202759 0.00405004 0)
(0.202344 0.0039425 0)
(0.20191 0.00383994 0)
(0.201458 0.00374183 0)
(0.200988 0.00364774 0)
(0.2005 0.00355731 0)
(0.199995 0.00347023 0)
(0.199475 0.00338625 0)
(0.198938 0.00330513 0)
(0.198386 0.00322669 0)
(0.197819 0.00315075 0)
(0.197238 0.00307717 0)
(0.196644 0.00300581 0)
(0.196036 0.00293655 0)
(0.195416 0.00286928 0)
(0.194784 0.00280393 0)
(0.194141 0.00274038 0)
(0.193486 0.00267858 0)
(0.192822 0.00261846 0)
(0.192147 0.00255993 0)
(0.191463 0.00250296 0)
(0.190771 0.00244749 0)
(0.19007 0.00239346 0)
(0.189362 0.00234083 0)
(0.188646 0.00228956 0)
(0.187923 0.00223961 0)
(0.187194 0.00219094 0)
(0.18646 0.00214351 0)
(0.185719 0.00209729 0)
(0.184974 0.00205225 0)
(0.184224 0.00200836 0)
(0.18347 0.00196559 0)
(0.182712 0.0019239 0)
(0.181951 0.00188327 0)
(0.181186 0.00184368 0)
(0.180419 0.0018051 0)
(0.179649 0.00176749 0)
(0.178877 0.00173085 0)
(0.178104 0.00169514 0)
(0.177329 0.00166035 0)
(0.176552 0.00162644 0)
(0.175775 0.0015934 0)
(0.174997 0.00156121 0)
(0.174218 0.00152985 0)
(0.17344 0.0014993 0)
(0.172661 0.00146953 0)
(0.171882 0.00144054 0)
(0.171104 0.0014123 0)
(0.170326 0.0013848 0)
(0.169549 0.00135802 0)
(0.168773 0.00133195 0)
(0.167998 0.00130657 0)
(0.167224 0.00128188 0)
(0.166451 0.00125785 0)
(0.16568 0.00123448 0)
(0.16491 0.00121176 0)
(0.164142 0.00118967 0)
(0.163375 0.00116822 0)
(0.16261 0.00114739 0)
(0.161847 0.00112719 0)
(0.161085 0.0011076 0)
(0.160326 0.00108864 0)
(0.159568 0.0010703 0)
(0.158812 0.00105261 0)
(0.158057 0.00103558 0)
(0.157305 0.00101927 0)
(0.156554 0.00100379 0)
(0.155804 0.000989348 0)
(0.155056 0.000976452 0)
(0.154309 0.000966328 0)
(0.153565 0.000962076 0)
(0.152839 0.000970219 0)
(0.151978 0.000984757 0)
(0.199003 0.00637944 0)
(0.199617 0.00710205 0)
(0.20033 0.00765607 0)
(0.201087 0.00804016 0)
(0.201847 0.00827398 0)
(0.202582 0.00837771 0)
(0.203271 0.00836882 0)
(0.203901 0.00826533 0)
(0.204459 0.0080868 0)
(0.204938 0.00785291 0)
(0.205337 0.00758203 0)
(0.205659 0.00729044 0)
(0.205908 0.00699178 0)
(0.206091 0.00669675 0)
(0.206217 0.00641306 0)
(0.206293 0.00614568 0)
(0.206327 0.00589724 0)
(0.206326 0.00566861 0)
(0.206297 0.00545934 0)
(0.206243 0.00526818 0)
(0.206167 0.00509345 0)
(0.206073 0.00493329 0)
(0.205963 0.00478585 0)
(0.205838 0.00464943 0)
(0.205698 0.00452252 0)
(0.205544 0.00440381 0)
(0.205377 0.0042922 0)
(0.205196 0.00418677 0)
(0.205002 0.00408675 0)
(0.204796 0.0039915 0)
(0.204576 0.00390052 0)
(0.204343 0.00381335 0)
(0.204098 0.00372964 0)
(0.20384 0.00364907 0)
(0.203569 0.00357137 0)
(0.203286 0.00349632 0)
(0.202991 0.00342371 0)
(0.202683 0.00335338 0)
(0.202363 0.00328516 0)
(0.202031 0.00321893 0)
(0.201687 0.00315456 0)
(0.201332 0.00309195 0)
(0.200965 0.003031 0)
(0.200587 0.00297164 0)
(0.200198 0.00291377 0)
(0.199799 0.00285735 0)
(0.199388 0.0028023 0)
(0.198968 0.00274857 0)
(0.198537 0.00269611 0)
(0.198096 0.00264487 0)
(0.197646 0.00259482 0)
(0.197186 0.00254591 0)
(0.196717 0.00249811 0)
(0.196239 0.00245139 0)
(0.195753 0.00240572 0)
(0.195258 0.00236106 0)
(0.194755 0.00231739 0)
(0.194244 0.00227469 0)
(0.193726 0.00223293 0)
(0.1932 0.00219209 0)
(0.192667 0.00215214 0)
(0.192127 0.00211307 0)
(0.19158 0.00207486 0)
(0.191027 0.00203749 0)
(0.190468 0.00200093 0)
(0.189903 0.00196517 0)
(0.189332 0.0019302 0)
(0.188756 0.00189599 0)
(0.188175 0.00186254 0)
(0.187588 0.00182982 0)
(0.186997 0.00179783 0)
(0.186401 0.00176655 0)
(0.185801 0.00173596 0)
(0.185197 0.00170605 0)
(0.184588 0.00167682 0)
(0.183976 0.00164825 0)
(0.18336 0.00162032 0)
(0.182741 0.00159304 0)
(0.182119 0.00156639 0)
(0.181493 0.00154036 0)
(0.180865 0.00151495 0)
(0.180233 0.00149015 0)
(0.179599 0.00146595 0)
(0.178963 0.00144236 0)
(0.178324 0.00141936 0)
(0.177683 0.00139697 0)
(0.177039 0.00137517 0)
(0.176394 0.00135398 0)
(0.175746 0.0013334 0)
(0.175096 0.00131344 0)
(0.174445 0.00129413 0)
(0.173792 0.0012755 0)
(0.173136 0.0012576 0)
(0.172479 0.00124054 0)
(0.17182 0.00122455 0)
(0.17116 0.00121008 0)
(0.170498 0.0011981 0)
(0.169839 0.00119049 0)
(0.169195 0.00118898 0)
(0.168433 0.00117704 0)
(0.199374 0.00607279 0)
(0.199905 0.0067091 0)
(0.20052 0.00721613 0)
(0.201182 0.00758482 0)
(0.201858 0.0078242 0)
(0.202522 0.00794806 0)
(0.203153 0.00797042 0)
(0.203737 0.0079062 0)
(0.204263 0.00777171 0)
(0.204724 0.00758369 0)
(0.205119 0.00735811 0)
(0.205449 0.00710936 0)
(0.205717 0.00684974 0)
(0.205929 0.00658917 0)
(0.206092 0.00633506 0)
(0.206213 0.00609254 0)
(0.206298 0.00586464 0)
(0.206353 0.00565281 0)
(0.206384 0.00545726 0)
(0.206395 0.00527736 0)
(0.20639 0.005112 0)
(0.206371 0.00495979 0)
(0.20634 0.00481929 0)
(0.206299 0.0046891 0)
(0.206249 0.00456792 0)
(0.20619 0.0044546 0)
(0.206122 0.00434815 0)
(0.206047 0.00424773 0)
(0.205964 0.00415261 0)
(0.205873 0.0040622 0)
(0.205775 0.00397599 0)
(0.205669 0.00389354 0)
(0.205555 0.0038145 0)
(0.205433 0.00373855 0)
(0.205304 0.00366543 0)
(0.205166 0.0035949 0)
(0.205021 0.00352675 0)
(0.204868 0.00346082 0)
(0.204707 0.00339694 0)
(0.204538 0.00333497 0)
(0.204361 0.0032748 0)
(0.204175 0.0032163 0)
(0.203982 0.00315939 0)
(0.203781 0.00310397 0)
(0.203571 0.00304997 0)
(0.203353 0.00299731 0)
(0.203127 0.00294593 0)
(0.202893 0.00289577 0)
(0.20265 0.00284677 0)
(0.2024 0.0027989 0)
(0.202141 0.00275211 0)
(0.201875 0.00270635 0)
(0.2016 0.00266159 0)
(0.201318 0.0026178 0)
(0.201027 0.00257494 0)
(0.200729 0.00253299 0)
(0.200423 0.00249191 0)
(0.200109 0.00245169 0)
(0.199787 0.0024123 0)
(0.199458 0.00237371 0)
(0.199122 0.00233591 0)
(0.198778 0.00229888 0)
(0.198427 0.00226259 0)
(0.198068 0.00222703 0)
(0.197703 0.00219218 0)
(0.197331 0.00215802 0)
(0.196951 0.00212455 0)
(0.196565 0.00209174 0)
(0.196172 0.00205959 0)
(0.195773 0.00202807 0)
(0.195367 0.00199718 0)
(0.194955 0.00196691 0)
(0.194537 0.00193724 0)
(0.194113 0.00190817 0)
(0.193682 0.00187968 0)
(0.193246 0.00185177 0)
(0.192804 0.00182443 0)
(0.192357 0.00179765 0)
(0.191903 0.00177143 0)
(0.191445 0.00174576 0)
(0.190981 0.00172064 0)
(0.190512 0.00169606 0)
(0.190037 0.00167203 0)
(0.189558 0.00164854 0)
(0.189074 0.0016256 0)
(0.188585 0.00160321 0)
(0.188091 0.00158137 0)
(0.187592 0.00156009 0)
(0.187089 0.00153939 0)
(0.186581 0.00151927 0)
(0.186068 0.00149977 0)
(0.185551 0.00148093 0)
(0.18503 0.00146279 0)
(0.184504 0.00144548 0)
(0.183974 0.00142918 0)
(0.18344 0.00141423 0)
(0.182903 0.00140122 0)
(0.182367 0.00139075 0)
(0.181842 0.00138075 0)
(0.181214 0.00134962 0)
(0.199686 0.00579383 0)
(0.200151 0.00635583 0)
(0.200684 0.00681754 0)
(0.201264 0.00716711 0)
(0.201865 0.00740672 0)
(0.202462 0.00754488 0)
(0.203035 0.00759225 0)
(0.203572 0.00756088 0)
(0.204061 0.00746422 0)
(0.204497 0.00731633 0)
(0.204877 0.00713094 0)
(0.205201 0.00692065 0)
(0.20547 0.00669647 0)
(0.205691 0.00646747 0)
(0.205867 0.00624072 0)
(0.206005 0.00602131 0)
(0.206111 0.00581257 0)
(0.20619 0.00561636 0)
(0.206246 0.00543343 0)
(0.206285 0.0052637 0)
(0.206309 0.00510653 0)
(0.206321 0.00496102 0)
(0.206323 0.00482606 0)
(0.206317 0.00470057 0)
(0.206304 0.00458347 0)
(0.206285 0.0044738 0)
(0.206261 0.00437069 0)
(0.206231 0.0042734 0)
(0.206196 0.00418126 0)
(0.206157 0.00409372 0)
(0.206114 0.00401032 0)
(0.206066 0.00393063 0)
(0.206014 0.00385433 0)
(0.205958 0.00378109 0)
(0.205898 0.00371068 0)
(0.205833 0.00364285 0)
(0.205764 0.00357741 0)
(0.205691 0.00351418 0)
(0.205613 0.00345301 0)
(0.205531 0.00339376 0)
(0.205444 0.0033363 0)
(0.205353 0.00328053 0)
(0.205257 0.00322635 0)
(0.205156 0.00317365 0)
(0.20505 0.00312237 0)
(0.204939 0.00307243 0)
(0.204824 0.00302376 0)
(0.204703 0.00297631 0)
(0.204577 0.00293001 0)
(0.204446 0.00288481 0)
(0.204309 0.00284067 0)
(0.204167 0.00279755 0)
(0.204019 0.00275541 0)
(0.203866 0.0027142 0)
(0.203707 0.0026739 0)
(0.203543 0.00263448 0)
(0.203373 0.00259589 0)
(0.203197 0.00255813 0)
(0.203015 0.00252115 0)
(0.202828 0.00248494 0)
(0.202635 0.00244947 0)
(0.202435 0.00241472 0)
(0.20223 0.00238067 0)
(0.202019 0.0023473 0)
(0.201802 0.0023146 0)
(0.201579 0.00228254 0)
(0.20135 0.00225111 0)
(0.201115 0.00222029 0)
(0.200874 0.00219007 0)
(0.200627 0.00216043 0)
(0.200374 0.00213137 0)
(0.200115 0.00210287 0)
(0.19985 0.00207492 0)
(0.199579 0.00204751 0)
(0.199302 0.00202063 0)
(0.199019 0.00199427 0)
(0.19873 0.00196842 0)
(0.198436 0.00194309 0)
(0.198135 0.00191826 0)
(0.197829 0.00189393 0)
(0.197517 0.00187009 0)
(0.197199 0.00184676 0)
(0.196875 0.00182391 0)
(0.196546 0.00180157 0)
(0.196211 0.00177972 0)
(0.19587 0.00175839 0)
(0.195524 0.00173756 0)
(0.195172 0.00171725 0)
(0.194814 0.00169749 0)
(0.194451 0.00167827 0)
(0.194081 0.00165965 0)
(0.193707 0.00164164 0)
(0.193327 0.00162431 0)
(0.192941 0.00160775 0)
(0.192549 0.00159211 0)
(0.192153 0.00157757 0)
(0.191753 0.00156432 0)
(0.191352 0.00155185 0)
(0.190957 0.00153583 0)
(0.190475 0.0014944 0)
(0.199945 0.00553718 0)
(0.200356 0.00603569 0)
(0.200822 0.00645531 0)
(0.201332 0.00678399 0)
(0.201865 0.00701989 0)
(0.2024 0.00716756 0)
(0.20292 0.00723464 0)
(0.203411 0.00723066 0)
(0.203864 0.00716652 0)
(0.204273 0.00705388 0)
(0.204634 0.0069044 0)
(0.204946 0.00672902 0)
(0.205211 0.00653745 0)
(0.205433 0.00633794 0)
(0.205614 0.00613709 0)
(0.20576 0.00593987 0)
(0.205876 0.00574974 0)
(0.205967 0.00556889 0)
(0.206037 0.00539846 0)
(0.206089 0.0052388 0)
(0.206127 0.00508973 0)
(0.206153 0.00495072 0)
(0.20617 0.00482103 0)
(0.206179 0.00469983 0)
(0.206182 0.0045863 0)
(0.20618 0.00447964 0)
(0.206173 0.00437912 0)
(0.206162 0.0042841 0)
(0.206147 0.004194 0)
(0.20613 0.00410833 0)
(0.206109 0.00402666 0)
(0.206086 0.00394861 0)
(0.20606 0.00387386 0)
(0.206032 0.00380214 0)
(0.206002 0.00373319 0)
(0.205969 0.0036668 0)
(0.205934 0.00360279 0)
(0.205897 0.00354099 0)
(0.205858 0.00348124 0)
(0.205817 0.00342342 0)
(0.205773 0.00336741 0)
(0.205727 0.0033131 0)
(0.205679 0.00326039 0)
(0.205628 0.00320919 0)
(0.205575 0.00315943 0)
(0.205519 0.00311103 0)
(0.205461 0.00306393 0)
(0.2054 0.00301806 0)
(0.205337 0.00297338 0)
(0.205271 0.00292982 0)
(0.205201 0.00288735 0)
(0.205129 0.00284591 0)
(0.205054 0.00280547 0)
(0.204976 0.00276598 0)
(0.204894 0.00272742 0)
(0.204809 0.00268975 0)
(0.204721 0.00265293 0)
(0.204629 0.00261695 0)
(0.204533 0.00258176 0)
(0.204434 0.00254735 0)
(0.204332 0.00251368 0)
(0.204225 0.00248074 0)
(0.204114 0.0024485 0)
(0.204 0.00241695 0)
(0.203881 0.00238605 0)
(0.203758 0.0023558 0)
(0.203632 0.00232617 0)
(0.2035 0.00229714 0)
(0.203365 0.00226871 0)
(0.203225 0.00224085 0)
(0.203081 0.00221356 0)
(0.202932 0.00218681 0)
(0.202778 0.00216059 0)
(0.20262 0.00213491 0)
(0.202457 0.00210973 0)
(0.20229 0.00208506 0)
(0.202117 0.00206089 0)
(0.20194 0.00203721 0)
(0.201758 0.00201401 0)
(0.201571 0.00199129 0)
(0.201379 0.00196905 0)
(0.201182 0.00194729 0)
(0.20098 0.001926 0)
(0.200773 0.00190518 0)
(0.200561 0.00188485 0)
(0.200344 0.001865 0)
(0.200121 0.00184564 0)
(0.199893 0.00182679 0)
(0.19966 0.00180846 0)
(0.199421 0.00179066 0)
(0.199178 0.00177343 0)
(0.198928 0.0017568 0)
(0.198673 0.00174082 0)
(0.198413 0.00172556 0)
(0.198148 0.00171109 0)
(0.197877 0.00169749 0)
(0.197603 0.00168455 0)
(0.197326 0.00167106 0)
(0.197052 0.00165187 0)
(0.196706 0.00160828 0)
(0.200159 0.00529898 0)
(0.200524 0.00574344 0)
(0.200934 0.00612488 0)
(0.201383 0.0064323 0)
(0.201856 0.00666181 0)
(0.202336 0.00681514 0)
(0.202805 0.00689749 0)
(0.203253 0.00691612 0)
(0.203671 0.00687974 0)
(0.204052 0.00679792 0)
(0.204393 0.00668043 0)
(0.204692 0.00653664 0)
(0.20495 0.00637507 0)
(0.205169 0.00620312 0)
(0.205351 0.00602687 0)
(0.205502 0.00585107 0)
(0.205624 0.00567922 0)
(0.205723 0.00551368 0)
(0.2058 0.00535591 0)
(0.205861 0.0052066 0)
(0.205908 0.00506594 0)
(0.205943 0.00493373 0)
(0.205968 0.00480954 0)
(0.205986 0.00469281 0)
(0.205997 0.00458293 0)
(0.206002 0.00447927 0)
(0.206004 0.00438125 0)
(0.206001 0.00428833 0)
(0.205995 0.00420002 0)
(0.205987 0.00411589 0)
(0.205976 0.00403556 0)
(0.205963 0.0039587 0)
(0.205948 0.00388501 0)
(0.205931 0.00381424 0)
(0.205913 0.00374616 0)
(0.205894 0.00368058 0)
(0.205873 0.00361733 0)
(0.205851 0.00355625 0)
(0.205828 0.0034972 0)
(0.205804 0.00344005 0)
(0.205779 0.0033847 0)
(0.205752 0.00333105 0)
(0.205725 0.003279 0)
(0.205697 0.00322847 0)
(0.205667 0.00317939 0)
(0.205637 0.00313169 0)
(0.205606 0.0030853 0)
(0.205573 0.00304017 0)
(0.205539 0.00299624 0)
(0.205504 0.00295346 0)
(0.205468 0.0029118 0)
(0.205431 0.00287119 0)
(0.205392 0.00283162 0)
(0.205351 0.00279302 0)
(0.20531 0.00275538 0)
(0.205266 0.00271866 0)
(0.205221 0.00268283 0)
(0.205174 0.00264785 0)
(0.205126 0.00261369 0)
(0.205075 0.00258034 0)
(0.205023 0.00254777 0)
(0.204968 0.00251594 0)
(0.204912 0.00248484 0)
(0.204853 0.00245445 0)
(0.204792 0.00242474 0)
(0.204728 0.0023957 0)
(0.204663 0.0023673 0)
(0.204594 0.00233953 0)
(0.204523 0.00231236 0)
(0.20445 0.00228579 0)
(0.204373 0.0022598 0)
(0.204294 0.00223437 0)
(0.204212 0.00220949 0)
(0.204126 0.00218514 0)
(0.204038 0.00216133 0)
(0.203947 0.00213803 0)
(0.203852 0.00211523 0)
(0.203754 0.00209294 0)
(0.203652 0.00207113 0)
(0.203547 0.00204982 0)
(0.203439 0.00202899 0)
(0.203327 0.00200864 0)
(0.203211 0.00198877 0)
(0.203091 0.00196938 0)
(0.202968 0.00195048 0)
(0.20284 0.00193206 0)
(0.202709 0.00191415 0)
(0.202573 0.00189674 0)
(0.202434 0.00187985 0)
(0.20229 0.00186351 0)
(0.202141 0.00184773 0)
(0.201988 0.00183255 0)
(0.201831 0.001818 0)
(0.20167 0.00180412 0)
(0.201503 0.00179095 0)
(0.201333 0.00177841 0)
(0.20116 0.00176608 0)
(0.200984 0.00175241 0)
(0.200807 0.00173256 0)
(0.200573 0.0016927 0)
(0.200331 0.00507652 0)