/*--------------------------------*- C++ -*----------------------------------*\
| =========                 |                                                 |
| \\      /  F ield         | OpenFOAM: The Open Source CFD Toolbox           |
|  \\    /   O peration     | Version:  2.3.0                                 |
|   \\  /    A nd           | Web:      www.OpenFOAM.org                      |
|    \\/     M anipulation  |                                                 |
\*---------------------------------------------------------------------------*/
FoamFile
{
    version     2.0;
    format      ascii;
    class       volVectorField;
    location    "0.6";
    object      U_0;
}
// * * * * * * * * * * * * * * * * * * * * * * * * * * * * * * * * * * * * * //

dimensions      [0 1 -1 0 0 0 0];

internalField   nonuniform List<vector> 
3105
(
(0.176798 0.00434428 0)
(0.156089 0.00594953 0)
(0.137393 0.00612136 0)
(0.119258 0.00553029 0)
(0.101768 0.00473128 0)
(0.0857235 0.00384838 0)
(0.0721615 0.00288935 0)
(0.0615016 0.00187653 0)
(0.0535727 0.000988344 0)
(0.0478499 0.000380566 0)
(0.0437671 5.37482e-05 0)
(0.0408507 -8.08076e-05 0)
(0.038719 -0.000107189 0)
(0.0370873 -8.24941e-05 0)
(0.0357521 -3.90118e-05 0)
(0.0345841 4.17448e-06 0)
(0.0335123 3.76333e-05 0)
(0.0325037 5.92207e-05 0)
(0.0315473 7.06529e-05 0)
(0.0306413 7.48336e-05 0)
(0.0297867 7.44799e-05 0)
(0.028984 7.1648e-05 0)
(0.0282321 6.76991e-05 0)
(0.0275288 6.34337e-05 0)
(0.0268706 5.92803e-05 0)
(0.0262538 5.54233e-05 0)
(0.0256747 5.19191e-05 0)
(0.0251295 4.87555e-05 0)
(0.024615 4.58988e-05 0)
(0.0241282 4.33086e-05 0)
(0.0236666 4.0945e-05 0)
(0.023228 3.87787e-05 0)
(0.0228105 3.67778e-05 0)
(0.0224123 3.4927e-05 0)
(0.0220322 3.32014e-05 0)
(0.0216688 3.15951e-05 0)
(0.0213209 3.00883e-05 0)
(0.0209876 2.86795e-05 0)
(0.0206679 2.73537e-05 0)
(0.020361 2.61103e-05 0)
(0.0200661 2.49383e-05 0)
(0.0197825 2.38368e-05 0)
(0.0195097 2.27966e-05 0)
(0.0192469 2.18185e-05 0)
(0.0189938 2.08915e-05 0)
(0.0187495 2.00213e-05 0)
(0.018514 1.91918e-05 0)
(0.0182864 1.84156e-05 0)
(0.0180667 1.76706e-05 0)
(0.0178542 1.69754e-05 0)
(0.0176489 1.63042e-05 0)
(0.01745 1.56789e-05 0)
(0.0172578 1.50719e-05 0)
(0.0170714 1.45075e-05 0)
(0.0168911 1.39559e-05 0)
(0.0167161 1.34456e-05 0)
(0.0165468 1.29413e-05 0)
(0.0163822 1.24792e-05 0)
(0.016223 1.20153e-05 0)
(0.0160681 1.15963e-05 0)
(0.0159184 1.11677e-05 0)
(0.0157723 1.07859e-05 0)
(0.0156314 1.03896e-05 0)
(0.0154937 1.00396e-05 0)
(0.015361 9.67254e-06 0)
(0.015231 9.35095e-06 0)
(0.0151061 9.00825e-06 0)
(0.0149834 8.71448e-06 0)
(0.0148658 8.39093e-06 0)
(0.01475 8.12375e-06 0)
(0.0146394 7.81681e-06 0)
(0.01453 7.57275e-06 0)
(0.0144262 7.28309e-06 0)
(0.0143229 7.05775e-06 0)
(0.0142255 6.78478e-06 0)
(0.014128 6.57741e-06 0)
(0.0140369 6.31857e-06 0)
(0.0139448 6.13106e-06 0)
(0.0138598 5.87906e-06 0)
(0.0137729 5.71835e-06 0)
(0.0136938 5.46724e-06 0)
(0.0136117 5.3341e-06 0)
(0.0135384 5.08617e-06 0)
(0.0134608 4.97822e-06 0)
(0.0133932 4.7341e-06 0)
(0.0133198 4.66067e-06 0)
(0.0132577 4.40104e-06 0)
(0.013188 4.38435e-06 0)
(0.0131315 4.09777e-06 0)
(0.0130648 4.14769e-06 0)
(0.0130138 3.82825e-06 0)
(0.0129493 3.96461e-06 0)
(0.0129039 3.59709e-06 0)
(0.0128405 3.85195e-06 0)
(0.0128009 3.40126e-06 0)
(0.0127366 3.83309e-06 0)
(0.0127036 3.26233e-06 0)
(0.0126352 3.91364e-06 0)
(0.0126116 3.1446e-06 0)
(0.0125304 4.55219e-06 0)
(0.192276 0.00771205 0)
(0.1904 0.0107978 0)
(0.187823 0.0118833 0)
(0.183964 0.0117267 0)
(0.178527 0.0110933 0)
(0.17169 0.0102044 0)
(0.164065 0.00905834 0)
(0.156147 0.00765068 0)
(0.148319 0.00613207 0)
(0.140814 0.00472049 0)
(0.133764 0.00355842 0)
(0.12727 0.00267714 0)
(0.121375 0.00204263 0)
(0.116088 0.00160803 0)
(0.111363 0.00132172 0)
(0.107131 0.00113487 0)
(0.103319 0.00100841 0)
(0.0998644 0.000915922 0)
(0.0967118 0.00084174 0)
(0.0938183 0.000777639 0)
(0.0911496 0.000719797 0)
(0.0886774 0.00066672 0)
(0.086379 0.000617975 0)
(0.0842351 0.000573459 0)
(0.0822295 0.000533098 0)
(0.0803477 0.000496692 0)
(0.0785777 0.000463946 0)
(0.0769085 0.000434482 0)
(0.0753308 0.000407913 0)
(0.0738363 0.000383865 0)
(0.0724178 0.000361998 0)
(0.071069 0.000342028 0)
(0.0697845 0.000323693 0)
(0.0685591 0.000306806 0)
(0.0673888 0.000291174 0)
(0.0662694 0.00027668 0)
(0.0651979 0.00026318 0)
(0.0641705 0.000250599 0)
(0.0631851 0.00023883 0)
(0.0622385 0.000227818 0)
(0.061329 0.000217486 0)
(0.0604537 0.000207788 0)
(0.0596113 0.000198663 0)
(0.0587994 0.00019008 0)
(0.0580171 0.000181978 0)
(0.0572619 0.000174346 0)
(0.0565335 0.000167116 0)
(0.0558292 0.000160302 0)
(0.0551493 0.000153819 0)
(0.0544912 0.000147706 0)
(0.0538553 0.000141869 0)
(0.0532389 0.000136359 0)
(0.0526432 0.000131082 0)
(0.052065 0.000126095 0)
(0.051506 0.000121301 0)
(0.0509628 0.000116771 0)
(0.0504376 0.000112396 0)
(0.0499265 0.000108268 0)
(0.0494327 0.000104254 0)
(0.0489514 0.00010048 0)
(0.0484866 9.67831e-05 0)
(0.0480329 9.33167e-05 0)
(0.0475953 8.99017e-05 0)
(0.0471674 8.6702e-05 0)
(0.0467554 8.3538e-05 0)
(0.0463515 8.05743e-05 0)
(0.0459637 7.76268e-05 0)
(0.0455825 7.48791e-05 0)
(0.0452176 7.21163e-05 0)
(0.0448577 6.95649e-05 0)
(0.0445149 6.69649e-05 0)
(0.0441752 6.45855e-05 0)
(0.0438534 6.21392e-05 0)
(0.0435329 5.99064e-05 0)
(0.0432315 5.7602e-05 0)
(0.0429292 5.55035e-05 0)
(0.0426477 5.33255e-05 0)
(0.0423627 5.13593e-05 0)
(0.0421006 4.92785e-05 0)
(0.0418321 4.74597e-05 0)
(0.0415891 4.54539e-05 0)
(0.0413361 4.37799e-05 0)
(0.0411119 4.18541e-05 0)
(0.0408736 4.03142e-05 0)
(0.040668 3.84704e-05 0)
(0.0404433 3.7092e-05 0)
(0.0402563 3.52736e-05 0)
(0.0400439 3.41255e-05 0)
(0.0398755 3.2305e-05 0)
(0.0396737 3.14176e-05 0)
(0.0395244 2.9594e-05 0)
(0.0393308 2.90262e-05 0)
(0.0392012 2.71822e-05 0)
(0.0390122 2.7023e-05 0)
(0.0389039 2.51133e-05 0)
(0.0387141 2.55021e-05 0)
(0.0386302 2.35628e-05 0)
(0.0384298 2.45041e-05 0)
(0.0383785 2.26485e-05 0)
(0.0381492 2.50637e-05 0)
(0.193246 0.00742826 0)
(0.193603 0.010027 0)
(0.194595 0.0116165 0)
(0.19564 0.0121297 0)
(0.196083 0.0120306 0)
(0.195597 0.0115955 0)
(0.194181 0.010865 0)
(0.191959 0.00986 0)
(0.189087 0.00868558 0)
(0.185729 0.00750579 0)
(0.182033 0.00645308 0)
(0.178145 0.00558195 0)
(0.174188 0.00488233 0)
(0.170259 0.00432583 0)
(0.166408 0.00387947 0)
(0.162659 0.00351356 0)
(0.15902 0.00320501 0)
(0.155494 0.00293782 0)
(0.152083 0.00270169 0)
(0.148788 0.00249028 0)
(0.145609 0.00229965 0)
(0.142546 0.00212724 0)
(0.1396 0.00197126 0)
(0.136768 0.00183027 0)
(0.134049 0.00170297 0)
(0.13144 0.00158807 0)
(0.128937 0.00148433 0)
(0.126537 0.00139054 0)
(0.124235 0.00130555 0)
(0.122027 0.00122832 0)
(0.119908 0.00115792 0)
(0.117874 0.00109354 0)
(0.11592 0.00103444 0)
(0.114042 0.000980047 0)
(0.112237 0.000929792 0)
(0.110499 0.000883264 0)
(0.108826 0.000840036 0)
(0.107213 0.000799809 0)
(0.105659 0.000762266 0)
(0.10416 0.000727178 0)
(0.102713 0.000694312 0)
(0.101315 0.000663483 0)
(0.0999646 0.000634511 0)
(0.0986585 0.000607255 0)
(0.097396 0.000581558 0)
(0.0961734 0.000557329 0)
(0.0949907 0.000534408 0)
(0.093844 0.000512759 0)
(0.0927343 0.000492211 0)
(0.0916571 0.00047277 0)
(0.0906143 0.000454265 0)
(0.0896008 0.000436722 0)
(0.0886195 0.000419982 0)
(0.0876648 0.000404084 0)
(0.0867404 0.000388873 0)
(0.0858399 0.000374407 0)
(0.0849684 0.00036052 0)
(0.0841182 0.000347308 0)
(0.0832959 0.000334575 0)
(0.0824925 0.000322461 0)
(0.0817163 0.000310738 0)
(0.0809566 0.000299581 0)
(0.0802239 0.000288753 0)
(0.0795052 0.000278429 0)
(0.0788135 0.000268394 0)
(0.0781333 0.000258804 0)
(0.0774806 0.000249461 0)
(0.0768368 0.00024053 0)
(0.0762214 0.000231787 0)
(0.075612 0.000223446 0)
(0.0750325 0.000215235 0)
(0.0744557 0.00020741 0)
(0.073911 0.000199691 0)
(0.0733653 0.00019231 0)
(0.0728542 0.000185041 0)
(0.0723383 0.000178059 0)
(0.0718602 0.000171196 0)
(0.0713726 0.00016459 0)
(0.0709269 0.000158068 0)
(0.0704663 0.000151848 0)
(0.0700527 0.000145619 0)
(0.0696177 0.000139766 0)
(0.0692361 0.000133837 0)
(0.0688253 0.000128319 0)
(0.0684756 0.000122695 0)
(0.0680873 0.000117548 0)
(0.0677699 0.000112146 0)
(0.0674019 0.000107475 0)
(0.0671176 0.000102272 0)
(0.0667669 9.81108e-05 0)
(0.066517 9.316e-05 0)
(0.0661795 8.95726e-05 0)
(0.0659661 8.4936e-05 0)
(0.0656358 8.20076e-05 0)
(0.0654626 7.77779e-05 0)
(0.0651303 7.56108e-05 0)
(0.0650035 7.21422e-05 0)
(0.064655 7.05954e-05 0)
(0.0645851 6.84232e-05 0)
(0.0642 6.87581e-05 0)
(0.194246 0.00700893 0)
(0.194574 0.00887599 0)
(0.195581 0.0103769 0)
(0.197121 0.0111323 0)
(0.198713 0.0112865 0)
(0.199978 0.011075 0)
(0.200754 0.0106048 0)
(0.201013 0.00992106 0)
(0.200773 0.00908914 0)
(0.200075 0.00821306 0)
(0.198982 0.00739478 0)
(0.197581 0.00669279 0)
(0.19596 0.00611665 0)
(0.194194 0.00564556 0)
(0.192333 0.00525351 0)
(0.190401 0.00491881 0)
(0.188414 0.00462536 0)
(0.186378 0.00436183 0)
(0.184301 0.00412059 0)
(0.182188 0.00389674 0)
(0.180048 0.00368729 0)
(0.177888 0.00349051 0)
(0.175715 0.0033054 0)
(0.173538 0.00313136 0)
(0.171364 0.00296794 0)
(0.169198 0.00281464 0)
(0.167047 0.002671 0)
(0.164916 0.00253643 0)
(0.162809 0.00241039 0)
(0.16073 0.00229228 0)
(0.158682 0.00218156 0)
(0.156666 0.0020777 0)
(0.154686 0.00198019 0)
(0.152743 0.0018886 0)
(0.150838 0.00180246 0)
(0.148971 0.00172142 0)
(0.147144 0.00164509 0)
(0.145356 0.00157316 0)
(0.143609 0.0015053 0)
(0.1419 0.00144124 0)
(0.140232 0.00138072 0)
(0.138601 0.00132349 0)
(0.13701 0.00126933 0)
(0.135455 0.00121803 0)
(0.13394 0.0011694 0)
(0.132458 0.00112327 0)
(0.131015 0.00107945 0)
(0.129604 0.00103783 0)
(0.12823 0.000998198 0)
(0.126886 0.000960503 0)
(0.125578 0.000924545 0)
(0.124298 0.000890281 0)
(0.123053 0.000857542 0)
(0.121835 0.000826285 0)
(0.12065 0.000796369 0)
(0.119489 0.000767759 0)
(0.118362 0.000740318 0)
(0.117255 0.000714043 0)
(0.116183 0.000688778 0)
(0.115129 0.000664561 0)
(0.114109 0.000641219 0)
(0.113104 0.000618807 0)
(0.112135 0.000597179 0)
(0.111177 0.000576347 0)
(0.110256 0.000556246 0)
(0.109344 0.000536808 0)
(0.10847 0.000518051 0)
(0.107601 0.000499864 0)
(0.106771 0.000482285 0)
(0.105944 0.000465212 0)
(0.105159 0.000448687 0)
(0.104371 0.000432588 0)
(0.103629 0.000417032 0)
(0.102879 0.000401771 0)
(0.10218 0.000387108 0)
(0.101467 0.000372594 0)
(0.10081 0.000358738 0)
(0.100132 0.000344916 0)
(0.099517 0.000331761 0)
(0.0988721 0.000318623 0)
(0.0982997 0.000306094 0)
(0.0976867 0.000293585 0)
(0.0971569 0.000281702 0)
(0.096574 0.000269745 0)
(0.0960875 0.000258532 0)
(0.0955324 0.00024715 0)
(0.0950905 0.000236512 0)
(0.09456 0.000225821 0)
(0.0941647 0.000215782 0)
(0.0936547 0.000205767 0)
(0.0933089 0.000196509 0)
(0.0928135 0.000187165 0)
(0.0925213 0.000178913 0)
(0.0920323 0.00017026 0)
(0.0917997 0.000163315 0)
(0.0913056 0.000155434 0)
(0.0911408 0.000150379 0)
(0.0906257 0.000143317 0)
(0.090539 0.000140682 0)
(0.0899839 0.000136306 0)
(0.195076 0.00671203 0)
(0.19539 0.00813193 0)
(0.196183 0.00941995 0)
(0.197467 0.0102256 0)
(0.198974 0.0104992 0)
(0.200395 0.010391 0)
(0.201557 0.0100373 0)
(0.202407 0.00951437 0)
(0.202945 0.00887703 0)
(0.203182 0.00819208 0)
(0.203144 0.00753234 0)
(0.202876 0.00695023 0)
(0.202434 0.00646424 0)
(0.201871 0.00606481 0)
(0.201222 0.00573257 0)
(0.200506 0.00544966 0)
(0.199731 0.0052024 0)
(0.198898 0.00498094 0)
(0.198008 0.00477826 0)
(0.197059 0.00458953 0)
(0.196052 0.00441157 0)
(0.19499 0.00424241 0)
(0.193875 0.0040809 0)
(0.192712 0.00392635 0)
(0.191504 0.00377839 0)
(0.190254 0.00363668 0)
(0.188968 0.00350102 0)
(0.187649 0.00337106 0)
(0.186302 0.00324659 0)
(0.18493 0.00312728 0)
(0.183537 0.0030129 0)
(0.182126 0.00290317 0)
(0.180702 0.00279786 0)
(0.179265 0.00269679 0)
(0.177822 0.00259971 0)
(0.176372 0.0025065 0)
(0.174921 0.00241696 0)
(0.173468 0.00233094 0)
(0.172019 0.00224832 0)
(0.170572 0.00216893 0)
(0.169134 0.00209269 0)
(0.167701 0.0020194 0)
(0.16628 0.00194904 0)
(0.164867 0.00188139 0)
(0.163469 0.00181643 0)
(0.162081 0.00175398 0)
(0.160711 0.00169397 0)
(0.159352 0.00163628 0)
(0.158014 0.00158081 0)
(0.156687 0.00152746 0)
(0.155383 0.00147615 0)
(0.154091 0.00142675 0)
(0.152823 0.00137923 0)
(0.151567 0.00133342 0)
(0.150337 0.00128934 0)
(0.149118 0.00124678 0)
(0.147928 0.00120582 0)
(0.146746 0.00116621 0)
(0.145596 0.00112806 0)
(0.144453 0.00109112 0)
(0.143343 0.0010555 0)
(0.142237 0.00102094 0)
(0.141168 0.000987645 0)
(0.140101 0.000955196 0)
(0.139073 0.000924005 0)
(0.138043 0.000893449 0)
(0.137056 0.00086414 0)
(0.136063 0.000835301 0)
(0.135118 0.000807669 0)
(0.134162 0.00078037 0)
(0.133259 0.00075426 0)
(0.132338 0.000728312 0)
(0.131478 0.000703625 0)
(0.130592 0.000678838 0)
(0.129775 0.000655478 0)
(0.128924 0.00063172 0)
(0.12815 0.000609578 0)
(0.127332 0.000586767 0)
(0.126602 0.000565708 0)
(0.125817 0.000543816 0)
(0.125134 0.00052376 0)
(0.124379 0.000502678 0)
(0.123743 0.000483687 0)
(0.123018 0.000463277 0)
(0.122431 0.000445422 0)
(0.121732 0.000425665 0)
(0.121197 0.000408882 0)
(0.120521 0.000389876 0)
(0.120042 0.000374273 0)
(0.119383 0.000355907 0)
(0.118965 0.000341853 0)
(0.118317 0.000324039 0)
(0.117966 0.00031191 0)
(0.11732 0.000294671 0)
(0.117043 0.000284852 0)
(0.116386 0.000268462 0)
(0.116193 0.000261529 0)
(0.115509 0.000246467 0)
(0.11541 0.000242858 0)
(0.114683 0.000231375 0)
(0.195759 0.00647374 0)
(0.196071 0.00762256 0)
(0.196729 0.00870401 0)
(0.197766 0.00947657 0)
(0.199037 0.00981988 0)
(0.200313 0.0097963 0)
(0.201431 0.0095276 0)
(0.202324 0.00910579 0)
(0.202987 0.00858879 0)
(0.203435 0.00802572 0)
(0.203689 0.00746883 0)
(0.203779 0.00696226 0)
(0.203746 0.00652839 0)
(0.203628 0.00616712 0)
(0.203459 0.00586613 0)
(0.203253 0.00561099 0)
(0.20302 0.00538962 0)
(0.202758 0.0051931 0)
(0.202466 0.00501501 0)
(0.20214 0.00485078 0)
(0.201778 0.00469727 0)
(0.201378 0.0045523 0)
(0.200941 0.00441452 0)
(0.200465 0.00428291 0)
(0.199952 0.00415696 0)
(0.199401 0.00403608 0)
(0.198814 0.00392001 0)
(0.198191 0.00380827 0)
(0.197534 0.00370064 0)
(0.196842 0.00359671 0)
(0.19612 0.00349627 0)
(0.195366 0.003399 0)
(0.194585 0.00330472 0)
(0.193774 0.0032132 0)
(0.192939 0.00312431 0)
(0.192076 0.00303789 0)
(0.191194 0.00295384 0)
(0.190287 0.002872 0)
(0.189364 0.0027924 0)
(0.188419 0.00271481 0)
(0.187462 0.00263935 0)
(0.186485 0.00256576 0)
(0.1855 0.00249422 0)
(0.184498 0.00242443 0)
(0.18349 0.0023566 0)
(0.182469 0.00229043 0)
(0.181446 0.00222614 0)
(0.18041 0.00216343 0)
(0.179377 0.0021025 0)
(0.178333 0.00204307 0)
(0.177295 0.00198536 0)
(0.176246 0.00192902 0)
(0.175207 0.00187438 0)
(0.174158 0.00182095 0)
(0.173124 0.00176921 0)
(0.172079 0.00171854 0)
(0.171053 0.00166951 0)
(0.170015 0.00162143 0)
(0.169 0.00157494 0)
(0.167972 0.00152926 0)
(0.166973 0.00148515 0)
(0.165957 0.00144168 0)
(0.164976 0.00139982 0)
(0.163975 0.00135835 0)
(0.163014 0.0013186 0)
(0.16203 0.00127896 0)
(0.161092 0.00124115 0)
(0.160126 0.0012032 0)
(0.159214 0.00116716 0)
(0.158267 0.00113075 0)
(0.157383 0.00109636 0)
(0.156457 0.00106132 0)
(0.155603 0.00102852 0)
(0.154698 0.000994633 0)
(0.153877 0.000963367 0)
(0.152994 0.000930497 0)
(0.152208 0.00090068 0)
(0.151347 0.000868744 0)
(0.150598 0.000840254 0)
(0.149759 0.000809216 0)
(0.149051 0.000782015 0)
(0.148232 0.000751717 0)
(0.147568 0.000725952 0)
(0.146768 0.000696185 0)
(0.146152 0.000672029 0)
(0.145369 0.000642729 0)
(0.144805 0.000620168 0)
(0.144036 0.000591429 0)
(0.143529 0.000570671 0)
(0.142768 0.000542307 0)
(0.142326 0.000523882 0)
(0.141566 0.00049581 0)
(0.141195 0.000480137 0)
(0.140428 0.000452534 0)
(0.140137 0.000439942 0)
(0.139351 0.000413407 0)
(0.13915 0.00040442 0)
(0.138333 0.00037979 0)
(0.138229 0.000374951 0)
(0.137366 0.000354579 0)
(0.196343 0.00625889 0)
(0.196648 0.00721627 0)
(0.197213 0.0081206 0)
(0.198063 0.00881618 0)
(0.199119 0.009187 0)
(0.200222 0.00923664 0)
(0.201231 0.00904921 0)
(0.202069 0.00871222 0)
(0.202719 0.00828726 0)
(0.203191 0.00781788 0)
(0.203507 0.00734327 0)
(0.203693 0.0068983 0)
(0.20378 0.00650543 0)
(0.203799 0.0061708 0)
(0.20378 0.00588846 0)
(0.203739 0.00564784 0)
(0.203685 0.00543872 0)
(0.20362 0.00525323 0)
(0.203545 0.0050857 0)
(0.203455 0.00493216 0)
(0.20335 0.00478982 0)
(0.203227 0.00465659 0)
(0.203088 0.00453113 0)
(0.202928 0.00441226 0)
(0.20275 0.00429939 0)
(0.20255 0.00419173 0)
(0.202331 0.00408901 0)
(0.20209 0.00399055 0)
(0.20183 0.00389617 0)
(0.201546 0.00380526 0)
(0.201243 0.00371768 0)
(0.200916 0.00363292 0)
(0.20057 0.00355087 0)
(0.200199 0.00347113 0)
(0.19981 0.00339364 0)
(0.199396 0.00331807 0)
(0.198965 0.00324443 0)
(0.198508 0.00317238 0)
(0.198036 0.00310208 0)
(0.197538 0.0030331 0)
(0.197026 0.00296574 0)
(0.196489 0.0028995 0)
(0.19594 0.00283483 0)
(0.195366 0.00277111 0)
(0.194783 0.00270889 0)
(0.194174 0.00264753 0)
(0.193559 0.0025876 0)
(0.192918 0.00252846 0)
(0.192274 0.00247071 0)
(0.191604 0.00241364 0)
(0.190935 0.00235799 0)
(0.190239 0.00230288 0)
(0.189548 0.00224924 0)
(0.18883 0.00219599 0)
(0.18812 0.00214429 0)
(0.187382 0.00209282 0)
(0.186658 0.00204296 0)
(0.185902 0.00199319 0)
(0.185167 0.00194508 0)
(0.184397 0.00189691 0)
(0.183654 0.00185049 0)
(0.182873 0.00180379 0)
(0.182126 0.00175903 0)
(0.181337 0.00171366 0)
(0.180589 0.00167051 0)
(0.179793 0.00162636 0)
(0.179048 0.00158472 0)
(0.178249 0.00154174 0)
(0.177509 0.00150149 0)
(0.176709 0.00145957 0)
(0.175979 0.00142068 0)
(0.175178 0.00137966 0)
(0.174461 0.00134216 0)
(0.173663 0.00130186 0)
(0.172962 0.00126576 0)
(0.172167 0.00122604 0)
(0.171487 0.00119133 0)
(0.170695 0.00115213 0)
(0.170039 0.00111875 0)
(0.169252 0.00108004 0)
(0.168625 0.00104802 0)
(0.167842 0.00100963 0)
(0.167248 0.000979232 0)
(0.166468 0.000940895 0)
(0.165912 0.000912417 0)
(0.165135 0.000874054 0)
(0.164623 0.00084752 0)
(0.163844 0.000809301 0)
(0.163382 0.00078498 0)
(0.162598 0.000746725 0)
(0.162194 0.000725234 0)
(0.161399 0.000686975 0)
(0.16106 0.000668691 0)
(0.160248 0.000630837 0)
(0.159983 0.000616017 0)
(0.159144 0.00057947 0)
(0.158961 0.000568695 0)
(0.158087 0.000534471 0)
(0.157993 0.000528538 0)
(0.157072 0.000498967 0)
(0.196854 0.00605538 0)
(0.197145 0.00686318 0)
(0.197637 0.00762149 0)
(0.198346 0.00822964 0)
(0.199225 0.00859707 0)
(0.200168 0.00870086 0)
(0.201063 0.00858755 0)
(0.201831 0.00832766 0)
(0.202446 0.00798093 0)
(0.202908 0.00758971 0)
(0.203236 0.0071865 0)
(0.203452 0.00679854 0)
(0.203582 0.00644579 0)
(0.20365 0.00613728 0)
(0.203682 0.00587192 0)
(0.203692 0.0056429 0)
(0.203693 0.00544225 0)
(0.203686 0.00526326 0)
(0.203675 0.00510112 0)
(0.203656 0.00495241 0)
(0.203631 0.00481485 0)
(0.203598 0.00468657 0)
(0.203558 0.00456638 0)
(0.203508 0.00445307 0)
(0.203452 0.00434609 0)
(0.203385 0.0042445 0)
(0.203312 0.00414812 0)
(0.203227 0.00405611 0)
(0.203135 0.00396844 0)
(0.20303 0.00388431 0)
(0.202919 0.00380375 0)
(0.202793 0.00372605 0)
(0.202661 0.00365128 0)
(0.202513 0.0035788 0)
(0.202358 0.00350876 0)
(0.202187 0.00344056 0)
(0.202009 0.00337444 0)
(0.201812 0.00330976 0)
(0.201609 0.00324694 0)
(0.201386 0.00318522 0)
(0.201158 0.00312522 0)
(0.200908 0.00306601 0)
(0.200654 0.00300844 0)
(0.200377 0.00295142 0)
(0.200097 0.00289596 0)
(0.199792 0.00284089 0)
(0.199486 0.0027873 0)
(0.199153 0.00273396 0)
(0.198822 0.00268206 0)
(0.198461 0.00263024 0)
(0.198106 0.00257991 0)
(0.197718 0.00252941 0)
(0.197339 0.00248053 0)
(0.196925 0.00243123 0)
(0.196524 0.00238369 0)
(0.196084 0.0023355 0)
(0.195662 0.0022892 0)
(0.195198 0.00224202 0)
(0.194758 0.00219686 0)
(0.19427 0.00215058 0)
(0.193813 0.0021065 0)
(0.193304 0.00206099 0)
(0.192832 0.00201799 0)
(0.192302 0.00197311 0)
(0.191819 0.00193118 0)
(0.19127 0.00188682 0)
(0.190777 0.0018459 0)
(0.19021 0.001802 0)
(0.189711 0.001762 0)
(0.189127 0.00171851 0)
(0.188625 0.0016794 0)
(0.188026 0.00163616 0)
(0.187523 0.00159807 0)
(0.186911 0.00155486 0)
(0.186411 0.00151787 0)
(0.185786 0.00147458 0)
(0.185293 0.00143875 0)
(0.184656 0.00139528 0)
(0.184173 0.00136059 0)
(0.183526 0.00131696 0)
(0.183058 0.00128348 0)
(0.182399 0.00123953 0)
(0.181951 0.00120764 0)
(0.18128 0.00116307 0)
(0.180857 0.00113317 0)
(0.180173 0.0010879 0)
(0.17978 0.00105998 0)
(0.179082 0.00101435 0)
(0.178726 0.000988665 0)
(0.17801 0.000942614 0)
(0.177698 0.00091982 0)
(0.17696 0.000873502 0)
(0.176698 0.000853924 0)
(0.175935 0.000807929 0)
(0.17573 0.000791807 0)
(0.174937 0.000747311 0)
(0.174795 0.000735354 0)
(0.173964 0.000693413 0)
(0.173893 0.000686746 0)
(0.173018 0.000649665 0)
(0.197303 0.00585909 0)
(0.197577 0.00654554 0)
(0.198009 0.00718614 0)
(0.198609 0.00771334 0)
(0.199345 0.00806101 0)
(0.200148 0.00819949 0)
(0.200933 0.00814868 0)
(0.20163 0.00795845 0)
(0.202205 0.00768103 0)
(0.20265 0.00735714 0)
(0.202979 0.00701633 0)
(0.203209 0.00668097 0)
(0.203362 0.00636787 0)
(0.203457 0.00608664 0)
(0.203515 0.00583929 0)
(0.203549 0.0056223 0)
(0.203571 0.00543007 0)
(0.203584 0.0052572 0)
(0.203594 0.00509969 0)
(0.203596 0.00495463 0)
(0.203595 0.00482019 0)
(0.203587 0.00469472 0)
(0.203576 0.0045773 0)
(0.203558 0.00446666 0)
(0.203539 0.00436241 0)
(0.203512 0.00426347 0)
(0.203485 0.00416982 0)
(0.203451 0.00408046 0)
(0.203416 0.00399558 0)
(0.203373 0.00391418 0)
(0.203331 0.00383656 0)
(0.20328 0.00376175 0)
(0.20323 0.00369013 0)
(0.203169 0.00362078 0)
(0.203111 0.00355413 0)
(0.20304 0.0034893 0)
(0.202972 0.00342684 0)
(0.20289 0.00336578 0)
(0.202812 0.00330689 0)
(0.202717 0.00324898 0)
(0.202628 0.00319314 0)
(0.20252 0.00313791 0)
(0.202419 0.0030847 0)
(0.202296 0.00303178 0)
(0.202182 0.00298082 0)
(0.202044 0.00292992 0)
(0.201915 0.00288091 0)
(0.201761 0.00283176 0)
(0.201618 0.00278448 0)
(0.201446 0.0027368 0)
(0.201288 0.00269107 0)
(0.201097 0.0026446 0)
(0.200925 0.00260027 0)
(0.200715 0.00255482 0)
(0.200528 0.0025117 0)
(0.200298 0.00246715 0)
(0.200096 0.0024251 0)
(0.199846 0.0023813 0)
(0.199629 0.00234019 0)
(0.199359 0.00229699 0)
(0.199128 0.00225673 0)
(0.198837 0.00221391 0)
(0.198593 0.0021745 0)
(0.198281 0.00213187 0)
(0.198025 0.00209328 0)
(0.197693 0.00205071 0)
(0.197426 0.00201287 0)
(0.197073 0.00197029 0)
(0.196796 0.00193306 0)
(0.196423 0.0018904 0)
(0.196139 0.00185375 0)
(0.195745 0.00181082 0)
(0.195455 0.00177491 0)
(0.195042 0.0017314 0)
(0.194749 0.00169639 0)
(0.194316 0.00165213 0)
(0.194022 0.00161814 0)
(0.193569 0.00157307 0)
(0.193277 0.00153997 0)
(0.192805 0.00149418 0)
(0.192518 0.00146201 0)
(0.192026 0.00141531 0)
(0.191748 0.00138454 0)
(0.191237 0.00133662 0)
(0.190972 0.00130781 0)
(0.190438 0.00125857 0)
(0.190191 0.00123148 0)
(0.189635 0.00118153 0)
(0.189409 0.00115627 0)
(0.18883 0.0011057 0)
(0.188631 0.0010831 0)
(0.188026 0.00103208 0)
(0.187859 0.00101245 0)
(0.187225 0.00096164 0)
(0.187095 0.000945077 0)
(0.186431 0.000896018 0)
(0.18634 0.000883481 0)
(0.185642 0.000837002 0)
(0.185597 0.000829962 0)
(0.184861 0.000788556 0)
(0.197697 0.00566953 0)
(0.197954 0.00625675 0)
(0.198335 0.00680317 0)
(0.198848 0.00726077 0)
(0.199471 0.0075821 0)
(0.200155 0.00773933 0)
(0.200839 0.00773729 0)
(0.201464 0.00760762 0)
(0.201997 0.00739197 0)
(0.202421 0.00712717 0)
(0.202746 0.00684101 0)
(0.202983 0.00655319 0)
(0.203152 0.00627804 0)
(0.203265 0.00602455 0)
(0.203342 0.0057964 0)
(0.203393 0.00559256 0)
(0.20343 0.00540967 0)
(0.203454 0.00524367 0)
(0.203474 0.00509143 0)
(0.203486 0.00495043 0)
(0.203494 0.0048193 0)
(0.203495 0.00469649 0)
(0.203495 0.00458144 0)
(0.203486 0.00447279 0)
(0.203479 0.00437044 0)
(0.203464 0.00427308 0)
(0.20345 0.004181 0)
(0.20343 0.00409291 0)
(0.203413 0.00400934 0)
(0.203388 0.00392902 0)
(0.203367 0.00385259 0)
(0.203339 0.00377879 0)
(0.203315 0.00370834 0)
(0.203282 0.00364001 0)
(0.203256 0.00357461 0)
(0.203219 0.00351088 0)
(0.20319 0.0034498 0)
(0.20315 0.00338994 0)
(0.203118 0.00333259 0)
(0.203072 0.00327603 0)
(0.203037 0.00322194 0)
(0.202985 0.0031682 0)
(0.202947 0.00311692 0)
(0.202889 0.00306567 0)
(0.202846 0.00301682 0)
(0.202782 0.00296774 0)
(0.202734 0.00292104 0)
(0.202661 0.00287384 0)
(0.202608 0.00282906 0)
(0.202527 0.00278344 0)
(0.202469 0.0027404 0)
(0.202378 0.00269607 0)
(0.202313 0.00265458 0)
(0.202211 0.00261133 0)
(0.20214 0.00257117 0)
(0.202027 0.00252886 0)
(0.201949 0.00248984 0)
(0.201823 0.00244832 0)
(0.201738 0.00241029 0)
(0.201599 0.00236933 0)
(0.201506 0.00233222 0)
(0.201353 0.00229153 0)
(0.201253 0.00225533 0)
(0.201085 0.00221466 0)
(0.200978 0.00217932 0)
(0.200795 0.00213852 0)
(0.200681 0.0021039 0)
(0.200481 0.00206292 0)
(0.200361 0.00202882 0)
(0.200144 0.0019876 0)
(0.200018 0.00195396 0)
(0.199784 0.00191218 0)
(0.199652 0.00187925 0)
(0.199401 0.00183652 0)
(0.199265 0.00180447 0)
(0.198995 0.00176051 0)
(0.198858 0.00172949 0)
(0.198568 0.00168439 0)
(0.19843 0.00165401 0)
(0.198121 0.00160798 0)
(0.197983 0.00157824 0)
(0.197654 0.00153096 0)
(0.197518 0.00150245 0)
(0.197169 0.00145346 0)
(0.197039 0.00142695 0)
(0.196667 0.00137637 0)
(0.196546 0.00135107 0)
(0.196151 0.00129985 0)
(0.196039 0.0012757 0)
(0.195622 0.00122379 0)
(0.195523 0.00120209 0)
(0.195082 0.00114959 0)
(0.194999 0.00113062 0)
(0.194532 0.00107839 0)
(0.194467 0.00106175 0)
(0.193974 0.00101157 0)
(0.193929 0.000998914 0)
(0.193408 0.000951105 0)
(0.193386 0.000943873 0)
(0.192836 0.00090151 0)
(0.198045 0.00548734 0)
(0.198283 0.00599348 0)
(0.198622 0.00646389 0)
(0.199064 0.00686311 0)
(0.199595 0.00715671 0)
(0.200179 0.00732133 0)
(0.200774 0.0073547 0)
(0.20133 0.00727521 0)
(0.201818 0.00711365 0)
(0.202219 0.0069011 0)
(0.202536 0.00666314 0)
(0.202775 0.00641787 0)
(0.202953 0.00617812 0)
(0.20308 0.00595198 0)
(0.203172 0.00574384 0)
(0.203236 0.00555428 0)
(0.203285 0.00538182 0)
(0.20332 0.00522369 0)
(0.203348 0.00507764 0)
(0.203367 0.00494151 0)
(0.203382 0.00481434 0)
(0.203388 0.00469467 0)
(0.203393 0.0045823 0)
(0.20339 0.00447578 0)
(0.203387 0.00437536 0)
(0.203377 0.0042795 0)
(0.203369 0.00418883 0)
(0.203354 0.00410176 0)
(0.203343 0.0040192 0)
(0.203323 0.00393955 0)
(0.20331 0.00386385 0)
(0.203287 0.00379051 0)
(0.203272 0.00372061 0)
(0.203248 0.00365261 0)
(0.203231 0.00358768 0)
(0.203205 0.0035242 0)
(0.203188 0.00346357 0)
(0.203159 0.00340393 0)
(0.203142 0.00334707 0)
(0.203112 0.00329072 0)
(0.203094 0.00323719 0)
(0.203062 0.00318372 0)
(0.203044 0.00313308 0)
(0.20301 0.00308216 0)
(0.202992 0.00303405 0)
(0.202955 0.00298539 0)
(0.202936 0.00293953 0)
(0.202896 0.00289283 0)
(0.202877 0.00284905 0)
(0.202833 0.002804 0)
(0.202814 0.00276213 0)
(0.202765 0.00271845 0)
(0.202745 0.00267827 0)
(0.202692 0.00263579 0)
(0.202671 0.00259705 0)
(0.202612 0.00255563 0)
(0.202589 0.00251814 0)
(0.202524 0.0024776 0)
(0.202499 0.00244123 0)
(0.202427 0.00240131 0)
(0.202401 0.00236605 0)
(0.202321 0.00232636 0)
(0.202293 0.00229222 0)
(0.202203 0.0022525 0)
(0.202174 0.00221934 0)
(0.202075 0.00217952 0)
(0.202043 0.00214714 0)
(0.201934 0.0021072 0)
(0.201899 0.00207531 0)
(0.20178 0.00203519 0)
(0.201742 0.00200381 0)
(0.201611 0.001963 0)
(0.201572 0.00193249 0)
(0.201428 0.00189052 0)
(0.201387 0.00186105 0)
(0.20123 0.00181759 0)
(0.201188 0.00178916 0)
(0.201016 0.00174468 0)
(0.200973 0.00171658 0)
(0.200787 0.00167129 0)
(0.200743 0.00164366 0)
(0.200542 0.00159698 0)
(0.200499 0.00157056 0)
(0.200281 0.00152179 0)
(0.20024 0.00149742 0)
(0.200004 0.00144729 0)
(0.199965 0.00142347 0)
(0.199713 0.00137313 0)
(0.199676 0.00134989 0)
(0.199406 0.0012987 0)
(0.199374 0.00127792 0)
(0.199084 0.00122607 0)
(0.199058 0.00120784 0)
(0.198749 0.00115669 0)
(0.198727 0.0011399 0)
(0.1984 0.00109089 0)
(0.198385 0.00107846 0)
(0.198036 0.00103162 0)
(0.198029 0.00102417 0)
(0.19766 0.000983176 0)
(0.198351 0.00531326 0)
(0.198571 0.00575288 0)
(0.198873 0.00616121 0)
(0.199257 0.00651158 0)
(0.199713 0.00677853 0)
(0.200214 0.00694324 0)
(0.20073 0.00700084 0)
(0.201222 0.00696116 0)
(0.201665 0.00684574 0)
(0.20204 0.0066792 0)
(0.202346 0.00648402 0)
(0.202583 0.00627691 0)
(0.202767 0.00606972 0)
(0.202903 0.00586991 0)
(0.203006 0.00568205 0)
(0.203081 0.00550767 0)
(0.20314 0.00534664 0)
(0.203183 0.00519732 0)
(0.203219 0.00505833 0)
(0.203244 0.00492786 0)
(0.203265 0.00480535 0)
(0.203276 0.0046894 0)
(0.203286 0.00458018 0)
(0.203287 0.00447615 0)
(0.203288 0.00437795 0)
(0.203282 0.00428378 0)
(0.203277 0.00419469 0)
(0.203265 0.00410876 0)
(0.203257 0.00402728 0)
(0.203241 0.00394837 0)
(0.20323 0.00387337 0)
(0.203211 0.00380047 0)
(0.203198 0.00373102 0)
(0.203177 0.00366325 0)
(0.203163 0.0035986 0)
(0.203141 0.00353519 0)
(0.203127 0.00347476 0)
(0.203103 0.00341506 0)
(0.20309 0.00335836 0)
(0.203065 0.00330188 0)
(0.203052 0.00324848 0)
(0.203027 0.00319485 0)
(0.203015 0.00314433 0)
(0.202988 0.00309327 0)
(0.202977 0.00304528 0)
(0.20295 0.00299649 0)
(0.20294 0.0029508 0)
(0.202911 0.00290397 0)
(0.202902 0.00286043 0)
(0.202872 0.00281526 0)
(0.202865 0.00277374 0)
(0.202833 0.00272997 0)
(0.202827 0.00269021 0)
(0.202793 0.00264774 0)
(0.202789 0.00260945 0)
(0.202752 0.00256815 0)
(0.202749 0.00253115 0)
(0.20271 0.00249081 0)
(0.202707 0.00245506 0)
(0.202665 0.00241535 0)
(0.202663 0.00238091 0)
(0.202617 0.00234137 0)
(0.202617 0.00230827 0)
(0.202566 0.00226872 0)
(0.202566 0.00223668 0)
(0.20251 0.00219714 0)
(0.202512 0.00216589 0)
(0.20245 0.00212642 0)
(0.202452 0.0020956 0)
(0.202385 0.00205609 0)
(0.202386 0.00202591 0)
(0.202313 0.00198562 0)
(0.202314 0.00195656 0)
(0.202233 0.00191499 0)
(0.202235 0.00188719 0)
(0.202146 0.00184408 0)
(0.202149 0.00181717 0)
(0.20205 0.00177349 0)
(0.202052 0.00174656 0)
(0.201946 0.00170234 0)
(0.201947 0.00167589 0)
(0.201831 0.00163019 0)
(0.201832 0.00160513 0)
(0.201705 0.00155704 0)
(0.201708 0.00153399 0)
(0.201568 0.00148519 0)
(0.201571 0.00146197 0)
(0.201421 0.00141353 0)
(0.201422 0.00139067 0)
(0.201261 0.00134107 0)
(0.201262 0.00132088 0)
(0.201087 0.0012706 0)
(0.20109 0.00125276 0)
(0.200902 0.00120395 0)
(0.200903 0.00118688 0)
(0.200702 0.00113989 0)
(0.200704 0.00112786 0)
(0.200488 0.00108316 0)
(0.200489 0.00107543 0)