/*--------------------------------*- C++ -*----------------------------------*\
| =========                 |                                                 |
| \\      /  F ield         | OpenFOAM: The Open Source CFD Toolbox           |
|  \\    /   O peration     | Version:  2.3.0                                 |
|   \\  /    A nd           | Web:      www.OpenFOAM.org                      |
|    \\/     M anipulation  |                                                 |
\*---------------------------------------------------------------------------*/
FoamFile
{
    version     2.0;
    format      ascii;
    class       volVectorField;
    location    "0.55";
    object      U_0;
}
// * * * * * * * * * * * * * * * * * * * * * * * * * * * * * * * * * * * * * //

dimensions      [0 1 -1 0 0 0 0];

internalField   nonuniform List<vector> 
2945
(
(0.153793 0.00668122 0)
(0.125032 0.00576593 0)
(0.10045 0.0044354 0)
(0.0804802 0.00314339 0)
(0.0652499 0.00206592 0)
(0.0541452 0.00126814 0)
(0.0462437 0.000739065 0)
(0.04066 0.000420474 0)
(0.0366672 0.000243903 0)
(0.0337213 0.000152783 0)
(0.0314486 0.00010809 0)
(0.0296125 8.61603e-05 0)
(0.0280708 7.42954e-05 0)
(0.0267401 6.65027e-05 0)
(0.0255702 6.03251e-05 0)
(0.024529 5.49123e-05 0)
(0.0235941 5.00306e-05 0)
(0.0227489 4.56312e-05 0)
(0.0219802 4.16948e-05 0)
(0.0212773 3.81914e-05 0)
(0.0206316 3.50795e-05 0)
(0.0200359 3.23129e-05 0)
(0.019484 2.98466e-05 0)
(0.0189711 2.76403e-05 0)
(0.0184928 2.56589e-05 0)
(0.0180456 2.38727e-05 0)
(0.0176263 2.22566e-05 0)
(0.0172323 2.07894e-05 0)
(0.0168613 1.94533e-05 0)
(0.0165113 1.82329e-05 0)
(0.0161805 1.71151e-05 0)
(0.0158673 1.60888e-05 0)
(0.0155703 1.5144e-05 0)
(0.0152884 1.42723e-05 0)
(0.0150204 1.34662e-05 0)
(0.0147653 1.27193e-05 0)
(0.0145222 1.20256e-05 0)
(0.0142904 1.13801e-05 0)
(0.0140691 1.07782e-05 0)
(0.0138577 1.02159e-05 0)
(0.0136555 9.68955e-06 0)
(0.0134622 9.19592e-06 0)
(0.0132771 8.73208e-06 0)
(0.0130998 8.29542e-06 0)
(0.01293 7.88357e-06 0)
(0.0127673 7.49439e-06 0)
(0.0126113 7.12597e-06 0)
(0.0124618 6.77655e-06 0)
(0.0123185 6.44459e-06 0)
(0.0121811 6.12864e-06 0)
(0.0120495 5.82743e-06 0)
(0.0119235 5.53983e-06 0)
(0.0118027 5.2648e-06 0)
(0.0116872 5.00142e-06 0)
(0.0115767 4.74887e-06 0)
(0.0114712 4.50643e-06 0)
(0.0113705 4.2735e-06 0)
(0.0112744 4.04957e-06 0)
(0.011183 3.83416e-06 0)
(0.0110961 3.627e-06 0)
(0.0110135 3.42783e-06 0)
(0.0109354 3.23658e-06 0)
(0.0108614 3.05325e-06 0)
(0.0107917 2.87799e-06 0)
(0.010726 2.7111e-06 0)
(0.0106643 2.55299e-06 0)
(0.0106065 2.40412e-06 0)
(0.0105524 2.26513e-06 0)
(0.0105019 2.13686e-06 0)
(0.0104548 2.02088e-06 0)
(0.0104109 1.92026e-06 0)
(0.01037 1.8461e-06 0)
(0.0103296 1.8457e-06 0)
(0.0103031 1.3226e-06 0)
(0.0101968 8.92664e-06 0)
(0.184637 0.0109644 0)
(0.176262 0.0104471 0)
(0.165294 0.00906605 0)
(0.153362 0.00746901 0)
(0.141712 0.00589638 0)
(0.130947 0.00449771 0)
(0.12128 0.00335844 0)
(0.112751 0.00249477 0)
(0.105311 0.00187432 0)
(0.0988544 0.00144326 0)
(0.0932508 0.00114672 0)
(0.0883685 0.000939854 0)
(0.0840878 0.000790794 0)
(0.0803065 0.000678968 0)
(0.0769409 0.000591797 0)
(0.0739231 0.000521717 0)
(0.0711988 0.000464079 0)
(0.0687242 0.000415882 0)
(0.0664641 0.000375069 0)
(0.0643895 0.000340147 0)
(0.0624767 0.000309995 0)
(0.0607062 0.000283748 0)
(0.0590614 0.000260728 0)
(0.0575285 0.0002404 0)
(0.0560957 0.00022234 0)
(0.0547531 0.000206205 0)
(0.0534918 0.000191718 0)
(0.0523045 0.000178651 0)
(0.0511845 0.000166816 0)
(0.0501261 0.000156059 0)
(0.0491243 0.000146246 0)
(0.0481746 0.000137266 0)
(0.0472729 0.000129025 0)
(0.0464158 0.000121441 0)
(0.0456001 0.000114442 0)
(0.0448229 0.000107968 0)
(0.0440817 0.000101965 0)
(0.0433742 9.63863e-05 0)
(0.0426982 9.11898e-05 0)
(0.0420518 8.63389e-05 0)
(0.0414335 8.1801e-05 0)
(0.0408416 7.75469e-05 0)
(0.0402746 7.35507e-05 0)
(0.0397314 6.97889e-05 0)
(0.0392108 6.62406e-05 0)
(0.0387117 6.28866e-05 0)
(0.0382332 5.97101e-05 0)
(0.0377744 5.66954e-05 0)
(0.0373346 5.38285e-05 0)
(0.036913 5.10969e-05 0)
(0.036509 4.8489e-05 0)
(0.036122 4.59945e-05 0)
(0.0357516 4.3604e-05 0)
(0.0353972 4.13092e-05 0)
(0.0350585 3.91024e-05 0)
(0.0347352 3.69769e-05 0)
(0.0344268 3.4927e-05 0)
(0.0341331 3.29475e-05 0)
(0.0338539 3.10339e-05 0)
(0.0335889 2.91829e-05 0)
(0.0333379 2.73917e-05 0)
(0.0331008 2.56585e-05 0)
(0.0328772 2.39821e-05 0)
(0.0326671 2.23627e-05 0)
(0.0324703 2.08009e-05 0)
(0.0322864 1.92987e-05 0)
(0.0321154 1.78587e-05 0)
(0.0319568 1.64855e-05 0)
(0.0318104 1.51859e-05 0)
(0.0316758 1.39732e-05 0)
(0.0315522 1.28721e-05 0)
(0.031439 1.19649e-05 0)
(0.0313319 1.13101e-05 0)
(0.0312494 1.12771e-05 0)
(0.0310353 3.30044e-05 0)
(0.19131 0.0115772 0)
(0.190665 0.0118781 0)
(0.187732 0.0110945 0)
(0.183003 0.00984883 0)
(0.177231 0.00842506 0)
(0.17095 0.00702868 0)
(0.164508 0.00579735 0)
(0.158145 0.00478538 0)
(0.152014 0.00398591 0)
(0.146197 0.00336335 0)
(0.140727 0.00287655 0)
(0.135608 0.00249016 0)
(0.130829 0.00217776 0)
(0.126373 0.00192079 0)
(0.122218 0.00170642 0)
(0.118342 0.00152559 0)
(0.114726 0.00137169 0)
(0.111347 0.00123971 0)
(0.108187 0.00112574 0)
(0.105226 0.00102669 0)
(0.102449 0.000940075 0)
(0.09984 0.000863876 0)
(0.0973845 0.000796464 0)
(0.0950702 0.000736507 0)
(0.0928855 0.000682916 0)
(0.09082 0.000634794 0)
(0.0888645 0.000591396 0)
(0.0870106 0.000552103 0)
(0.0852506 0.000516398 0)
(0.0835779 0.000483841 0)
(0.0819862 0.000454062 0)
(0.0804699 0.000426741 0)
(0.0790241 0.000401608 0)
(0.0776442 0.000378425 0)
(0.0763259 0.000356989 0)
(0.0750656 0.00033712 0)
(0.0738596 0.000318662 0)
(0.072705 0.000301477 0)
(0.0715988 0.000285443 0)
(0.0705384 0.000270451 0)
(0.0695214 0.000256405 0)
(0.0685456 0.000243217 0)
(0.0676091 0.000230811 0)
(0.0667099 0.000219116 0)
(0.0658464 0.00020807 0)
(0.0650172 0.000197615 0)
(0.0642207 0.0001877 0)
(0.0634559 0.000178277 0)
(0.0627214 0.000169305 0)
(0.0620164 0.000160744 0)
(0.0613399 0.00015256 0)
(0.0606911 0.00014472 0)
(0.0600692 0.000137195 0)
(0.0594736 0.00012996 0)
(0.0589037 0.000122991 0)
(0.0583589 0.000116266 0)
(0.057839 0.000109767 0)
(0.0573434 0.000103478 0)
(0.0568718 9.7385e-05 0)
(0.0564239 9.14757e-05 0)
(0.0559995 8.57411e-05 0)
(0.0555983 8.01746e-05 0)
(0.05522 7.4772e-05 0)
(0.0548646 6.95318e-05 0)
(0.0545316 6.44553e-05 0)
(0.0542209 5.95468e-05 0)
(0.0539322 5.48142e-05 0)
(0.0536651 5.02707e-05 0)
(0.0534192 4.59384e-05 0)
(0.0531937 4.18574e-05 0)
(0.0529879 3.81028e-05 0)
(0.0528005 3.48889e-05 0)
(0.0526267 3.23409e-05 0)
(0.0524809 3.39845e-05 0)
(0.0522024 6.66221e-05 0)
(0.193219 0.0110357 0)
(0.194863 0.0118106 0)
(0.195299 0.0115252 0)
(0.194387 0.0106902 0)
(0.192401 0.00957076 0)
(0.189618 0.00837186 0)
(0.186275 0.00724725 0)
(0.182584 0.00627455 0)
(0.178711 0.0054688 0)
(0.174772 0.00481168 0)
(0.170838 0.00427414 0)
(0.166952 0.00382843 0)
(0.16314 0.0034525 0)
(0.159418 0.00313031 0)
(0.155799 0.00285063 0)
(0.152289 0.00260549 0)
(0.148893 0.00238911 0)
(0.145614 0.00219707 0)
(0.142454 0.0020259 0)
(0.13941 0.00187273 0)
(0.136483 0.00173521 0)
(0.133669 0.00161132 0)
(0.130966 0.00149937 0)
(0.128369 0.0013979 0)
(0.125876 0.00130567 0)
(0.123483 0.0012216 0)
(0.121184 0.00114476 0)
(0.118977 0.00107436 0)
(0.116856 0.0010097 0)
(0.114819 0.000950164 0)
(0.112861 0.000895232 0)
(0.110979 0.000844435 0)
(0.10917 0.000797365 0)
(0.107429 0.000753661 0)
(0.105754 0.000713002 0)
(0.104142 0.000675105 0)
(0.10259 0.000639715 0)
(0.101095 0.000606608 0)
(0.0996553 0.000575578 0)
(0.0982681 0.000546445 0)
(0.0969313 0.000519041 0)
(0.0956429 0.00049322 0)
(0.094401 0.000468844 0)
(0.093204 0.000445792 0)
(0.0920501 0.000423951 0)
(0.0909379 0.00040322 0)
(0.0898661 0.000383504 0)
(0.0888335 0.000364719 0)
(0.0878388 0.000346787 0)
(0.0868811 0.000329636 0)
(0.0859594 0.0003132 0)
(0.085073 0.00029742 0)
(0.0842211 0.000282241 0)
(0.083403 0.000267614 0)
(0.0826182 0.000253493 0)
(0.0818662 0.000239838 0)
(0.0811466 0.000226613 0)
(0.080459 0.000213786 0)
(0.0798031 0.000201329 0)
(0.0791788 0.00018922 0)
(0.0785857 0.00017744 0)
(0.0780238 0.000165975 0)
(0.0774927 0.000154816 0)
(0.0769925 0.000143961 0)
(0.0765229 0.00013341 0)
(0.0760837 0.000123172 0)
(0.0756746 0.000113264 0)
(0.0752953 0.000103713 0)
(0.0749453 9.45657e-05 0)
(0.0746239 8.59013e-05 0)
(0.07433 7.78684e-05 0)
(0.0740619 7.08299e-05 0)
(0.0738153 6.52499e-05 0)
(0.0735987 6.74698e-05 0)
(0.0732661 0.000104982 0)
(0.194062 0.0103799 0)
(0.196118 0.0113131 0)
(0.197655 0.0112972 0)
(0.198361 0.010747 0)
(0.198281 0.0098935 0)
(0.197518 0.0089125 0)
(0.196193 0.00794692 0)
(0.194444 0.0070803 0)
(0.192396 0.00634018 0)
(0.19015 0.00572045 0)
(0.18777 0.0052014 0)
(0.185301 0.00476157 0)
(0.182771 0.00438274 0)
(0.180202 0.00405126 0)
(0.177609 0.00375735 0)
(0.175006 0.00349414 0)
(0.172404 0.00325667 0)
(0.169814 0.00304124 0)
(0.167244 0.00284495 0)
(0.164702 0.00266548 0)
(0.162193 0.00250089 0)
(0.159723 0.00234955 0)
(0.157296 0.00221007 0)
(0.154915 0.00208125 0)
(0.152582 0.00196204 0)
(0.150301 0.00185153 0)
(0.148072 0.00174891 0)
(0.145896 0.00165347 0)
(0.143774 0.00156458 0)
(0.141706 0.00148166 0)
(0.139691 0.00140422 0)
(0.137731 0.00133178 0)
(0.135823 0.00126394 0)
(0.133967 0.00120033 0)
(0.132163 0.0011406 0)
(0.13041 0.00108444 0)
(0.128707 0.00103157 0)
(0.127053 0.000981737 0)
(0.125446 0.000934696 0)
(0.123886 0.000890234 0)
(0.122372 0.00084815 0)
(0.120903 0.000808259 0)
(0.119478 0.000770393 0)
(0.118096 0.000734395 0)
(0.116756 0.000700118 0)
(0.115457 0.00066743 0)
(0.114198 0.000636205 0)
(0.11298 0.000606329 0)
(0.1118 0.000577693 0)
(0.110659 0.000550201 0)
(0.109557 0.000523759 0)
(0.108491 0.000498283 0)
(0.107463 0.000473696 0)
(0.106471 0.000449925 0)
(0.105516 0.000426906 0)
(0.104598 0.000404579 0)
(0.103715 0.000382891 0)
(0.102869 0.000361794 0)
(0.102058 0.000341248 0)
(0.101284 0.000321218 0)
(0.100545 0.000301677 0)
(0.0998422 0.000282604 0)
(0.0991756 0.000263987 0)
(0.098545 0.000245821 0)
(0.0979505 0.000228111 0)
(0.097392 0.000210871 0)
(0.0968694 0.000194132 0)
(0.0963825 0.000177941 0)
(0.0959309 0.000162377 0)
(0.0955139 0.000147572 0)
(0.0951304 0.000133764 0)
(0.0947786 0.000121476 0)
(0.0944544 0.000111702 0)
(0.0941636 0.000112497 0)
(0.0937755 0.000148882 0)
(0.194643 0.00975996 0)
(0.196572 0.0107146 0)
(0.198316 0.0108422 0)
(0.199558 0.010476 0)
(0.200268 0.00981864 0)
(0.200474 0.00901828 0)
(0.200231 0.00819986 0)
(0.19962 0.00744401 0)
(0.198731 0.00678389 0)
(0.197636 0.00622115 0)
(0.196387 0.005743 0)
(0.195017 0.00533298 0)
(0.193549 0.00497618 0)
(0.191998 0.00466087 0)
(0.190377 0.00437847 0)
(0.188696 0.00412283 0)
(0.186964 0.00388949 0)
(0.185189 0.00367516 0)
(0.18338 0.00347729 0)
(0.181543 0.00329389 0)
(0.179686 0.00312331 0)
(0.177815 0.00296423 0)
(0.175935 0.00281549 0)
(0.174052 0.00267613 0)
(0.17217 0.00254534 0)
(0.170294 0.00242238 0)
(0.168427 0.00230662 0)
(0.166572 0.00219752 0)
(0.164734 0.00209458 0)
(0.162913 0.00199734 0)
(0.161114 0.0019054 0)
(0.159337 0.0018184 0)
(0.157585 0.001736 0)
(0.155858 0.0016579 0)
(0.154159 0.0015838 0)
(0.152489 0.00151343 0)
(0.150847 0.00144657 0)
(0.149236 0.00138296 0)
(0.147656 0.0013224 0)
(0.146107 0.00126468 0)
(0.144589 0.00120962 0)
(0.143104 0.00115704 0)
(0.141651 0.00110676 0)
(0.14023 0.00105864 0)
(0.138843 0.00101252 0)
(0.137488 0.000968253 0)
(0.136166 0.000925719 0)
(0.134877 0.000884789 0)
(0.133622 0.000845344 0)
(0.1324 0.000807274 0)
(0.131211 0.000770476 0)
(0.130057 0.000734852 0)
(0.128936 0.000700312 0)
(0.127849 0.000666771 0)
(0.126797 0.000634152 0)
(0.12578 0.000602384 0)
(0.124797 0.000571403 0)
(0.12385 0.000541153 0)
(0.122938 0.000511583 0)
(0.122062 0.000482653 0)
(0.121223 0.00045433 0)
(0.12042 0.00042659 0)
(0.119655 0.000399422 0)
(0.118927 0.000372822 0)
(0.118237 0.000346803 0)
(0.117585 0.000321392 0)
(0.116971 0.000296637 0)
(0.116395 0.000272612 0)
(0.115857 0.000249438 0)
(0.115357 0.000227309 0)
(0.114893 0.000206561 0)
(0.114465 0.000187886 0)
(0.114067 0.00017281 0)
(0.113706 0.000169994 0)
(0.113265 0.00019964 0)
(0.195138 0.00919773 0)
(0.196829 0.010122 0)
(0.198486 0.0103344 0)
(0.199824 0.0100936 0)
(0.200788 0.00957812 0)
(0.201383 0.00891632 0)
(0.201637 0.00821671 0)
(0.201601 0.00755436 0)
(0.201339 0.00696487 0)
(0.200907 0.00645519 0)
(0.200345 0.00601777 0)
(0.199677 0.00564023 0)
(0.198921 0.00531032 0)
(0.198087 0.00501791 0)
(0.197181 0.00475526 0)
(0.196209 0.00451666 0)
(0.195178 0.00429792 0)
(0.19409 0.00409591 0)
(0.192953 0.00390824 0)
(0.191768 0.00373304 0)
(0.190542 0.0035688 0)
(0.189279 0.0034143 0)
(0.187982 0.00326855 0)
(0.186656 0.0031307 0)
(0.185304 0.00300005 0)
(0.183931 0.002876 0)
(0.182539 0.00275803 0)
(0.181133 0.0026457 0)
(0.179716 0.00253861 0)
(0.17829 0.00243643 0)
(0.176858 0.00233883 0)
(0.175423 0.00224554 0)
(0.173988 0.00215631 0)
(0.172555 0.0020709 0)
(0.171126 0.00198909 0)
(0.169703 0.00191067 0)
(0.168288 0.00183546 0)
(0.166882 0.00176328 0)
(0.165488 0.00169396 0)
(0.164106 0.00162732 0)
(0.162739 0.00156323 0)
(0.161387 0.00150153 0)
(0.160052 0.00144207 0)
(0.158735 0.00138473 0)
(0.157436 0.00132937 0)
(0.156157 0.00127586 0)
(0.154899 0.00122409 0)
(0.153663 0.00117393 0)
(0.15245 0.00112528 0)
(0.15126 0.00107804 0)
(0.150094 0.0010321 0)
(0.148953 0.000987366 0)
(0.147838 0.000943748 0)
(0.14675 0.000901162 0)
(0.14569 0.000859531 0)
(0.144658 0.00081878 0)
(0.143655 0.000778846 0)
(0.142682 0.00073967 0)
(0.14174 0.000701203 0)
(0.14083 0.000663402 0)
(0.139952 0.000626239 0)
(0.139108 0.000589693 0)
(0.138297 0.000553757 0)
(0.137521 0.000518438 0)
(0.136781 0.000483762 0)
(0.136077 0.000449772 0)
(0.13541 0.000416541 0)
(0.134779 0.00038418 0)
(0.134185 0.000352855 0)
(0.133628 0.000322829 0)
(0.133108 0.000294541 0)
(0.132622 0.000268841 0)
(0.132168 0.000247654 0)
(0.131752 0.000239292 0)
(0.131269 0.000257367 0)
(0.195584 0.00870061 0)
(0.197043 0.00957251 0)
(0.198538 0.00983807 0)
(0.19982 0.0096891 0)
(0.200822 0.00928142 0)
(0.201539 0.008728 0)
(0.201989 0.00812366 0)
(0.202209 0.00753741 0)
(0.202249 0.00700573 0)
(0.202154 0.00653955 0)
(0.201957 0.0061356 0)
(0.20168 0.00578499 0)
(0.201336 0.00547788 0)
(0.200933 0.00520558 0)
(0.200475 0.00496113 0)
(0.199965 0.00473923 0)
(0.199407 0.00453586 0)
(0.198801 0.00434799 0)
(0.19815 0.00417326 0)
(0.197455 0.00400982 0)
(0.196719 0.00385619 0)
(0.195944 0.00371117 0)
(0.195131 0.00357379 0)
(0.194283 0.00344323 0)
(0.193403 0.00331883 0)
(0.192491 0.00320002 0)
(0.191551 0.00308633 0)
(0.190585 0.00297736 0)
(0.189594 0.00287275 0)
(0.188582 0.00277222 0)
(0.18755 0.00267549 0)
(0.1865 0.00258234 0)
(0.185435 0.00249255 0)
(0.184356 0.00240595 0)
(0.183266 0.00232235 0)
(0.182166 0.00224159 0)
(0.181058 0.00216354 0)
(0.179945 0.00208804 0)
(0.178827 0.00201497 0)
(0.177707 0.00194421 0)
(0.176587 0.00187561 0)
(0.175467 0.00180908 0)
(0.174349 0.0017445 0)
(0.173235 0.00168175 0)
(0.172127 0.00162072 0)
(0.171025 0.00156133 0)
(0.169931 0.00150345 0)
(0.168846 0.001447 0)
(0.167772 0.00139188 0)
(0.16671 0.00133799 0)
(0.165661 0.00128525 0)
(0.164627 0.00123357 0)
(0.163608 0.00118287 0)
(0.162607 0.00113307 0)
(0.161623 0.00108411 0)
(0.160659 0.00103591 0)
(0.159716 0.000988418 0)
(0.158794 0.000941581 0)
(0.157896 0.000895356 0)
(0.157022 0.000849708 0)
(0.156173 0.000804616 0)
(0.155351 0.000760068 0)
(0.154556 0.000716071 0)
(0.15379 0.000672645 0)
(0.153055 0.000629833 0)
(0.152349 0.000587705 0)
(0.151676 0.000546363 0)
(0.151034 0.000505956 0)
(0.150426 0.000466704 0)
(0.149849 0.00042894 0)
(0.149306 0.000393199 0)
(0.148793 0.000360464 0)
(0.148311 0.000332853 0)
(0.147866 0.000317594 0)
(0.147362 0.000320741 0)
(0.195989 0.00826272 0)
(0.197248 0.00907241 0)
(0.198575 0.00937059 0)
(0.199759 0.00929325 0)
(0.200722 0.00897268 0)
(0.201455 0.00850866 0)
(0.201969 0.00798425 0)
(0.202292 0.00746231 0)
(0.202465 0.00697921 0)
(0.202526 0.00654889 0)
(0.202505 0.00617172 0)
(0.202423 0.00584193 0)
(0.202292 0.00555195 0)
(0.202119 0.00529457 0)
(0.201909 0.00506368 0)
(0.201663 0.00485443 0)
(0.201383 0.00466306 0)
(0.20107 0.00448663 0)
(0.200725 0.00432283 0)
(0.200348 0.00416982 0)
(0.199939 0.00402611 0)
(0.199499 0.00389049 0)
(0.19903 0.00376197 0)
(0.19853 0.00363971 0)
(0.198001 0.00352305 0)
(0.197445 0.0034114 0)
(0.196861 0.00330429 0)
(0.196251 0.0032013 0)
(0.195615 0.00310209 0)
(0.194955 0.00300637 0)
(0.194273 0.00291389 0)
(0.193568 0.0028244 0)
(0.192843 0.00273773 0)
(0.192098 0.0026537 0)
(0.191336 0.00257215 0)
(0.190556 0.00249293 0)
(0.189762 0.00241592 0)
(0.188953 0.00234099 0)
(0.188131 0.00226804 0)
(0.187298 0.00219694 0)
(0.186455 0.0021276 0)
(0.185603 0.00205992 0)
(0.184743 0.0019938 0)
(0.183878 0.00192915 0)
(0.183008 0.00186588 0)
(0.182134 0.00180389 0)
(0.181259 0.0017431 0)
(0.180382 0.00168343 0)
(0.179507 0.00162478 0)
(0.178633 0.00156709 0)
(0.177763 0.00151027 0)
(0.176898 0.00145425 0)
(0.176038 0.00139896 0)
(0.175186 0.00134432 0)
(0.174343 0.00129028 0)
(0.17351 0.00123677 0)
(0.172689 0.00118375 0)
(0.17188 0.00113118 0)
(0.171086 0.00107901 0)
(0.170308 0.00102723 0)
(0.169546 0.000975823 0)
(0.168803 0.000924792 0)
(0.16808 0.000874156 0)
(0.167378 0.000823957 0)
(0.166698 0.000774257 0)
(0.166041 0.000725152 0)
(0.165409 0.000676777 0)
(0.164802 0.000629324 0)
(0.16422 0.000583066 0)
(0.163665 0.000538402 0)
(0.163137 0.000495951 0)
(0.162634 0.000456782 0)
(0.162156 0.000423002 0)
(0.161713 0.000400276 0)
(0.161216 0.000387164 0)
(0.196357 0.00787493 0)
(0.197447 0.00861914 0)
(0.19862 0.00893536 0)
(0.199698 0.00891531 0)
(0.200601 0.00866795 0)
(0.201313 0.00828064 0)
(0.201838 0.00782613 0)
(0.202198 0.00736121 0)
(0.202428 0.00692131 0)
(0.202559 0.0065225 0)
(0.202619 0.00616817 0)
(0.202628 0.00585532 0)
(0.202598 0.00557852 0)
(0.202537 0.00533201 0)
(0.20245 0.00511062 0)
(0.20234 0.00491005 0)
(0.202207 0.00472686 0)
(0.202053 0.00455828 0)
(0.201879 0.00440211 0)
(0.201684 0.00425653 0)
(0.201468 0.0041201 0)
(0.201232 0.00399161 0)
(0.200976 0.00387004 0)
(0.200699 0.00375456 0)
(0.200401 0.00364447 0)
(0.200083 0.00353917 0)
(0.199744 0.00343818 0)
(0.199385 0.00334105 0)
(0.199005 0.00324744 0)
(0.198606 0.00315701 0)
(0.198187 0.00306952 0)
(0.197748 0.00298471 0)
(0.197291 0.00290239 0)
(0.196815 0.00282237 0)
(0.196321 0.00274449 0)
(0.19581 0.0026686 0)
(0.195283 0.00259457 0)
(0.19474 0.00252228 0)
(0.194181 0.00245161 0)
(0.193608 0.00238244 0)
(0.193022 0.0023147 0)
(0.192423 0.00224826 0)
(0.191812 0.00218305 0)
(0.19119 0.00211896 0)
(0.190559 0.00205593 0)
(0.189919 0.00199385 0)
(0.18927 0.00193264 0)
(0.188615 0.00187224 0)
(0.187954 0.00181255 0)
(0.187289 0.0017535 0)
(0.18662 0.00169502 0)
(0.185949 0.00163704 0)
(0.185277 0.00157948 0)
(0.184605 0.0015223 0)
(0.183934 0.00146542 0)
(0.183266 0.0014088 0)
(0.182601 0.0013524 0)
(0.181942 0.00129617 0)
(0.18129 0.00124009 0)
(0.180645 0.00118414 0)
(0.180009 0.00112833 0)
(0.179384 0.00107266 0)
(0.178771 0.00101718 0)
(0.178171 0.000961926 0)
(0.177586 0.000907 0)
(0.177016 0.000852517 0)
(0.176462 0.000798645 0)
(0.175926 0.000745615 0)
(0.175408 0.000693748 0)
(0.174909 0.000643502 0)
(0.174429 0.000595562 0)
(0.173968 0.000551028 0)
(0.173527 0.00051183 0)
(0.173114 0.000481873 0)
(0.17265 0.000453314 0)
(0.196692 0.00752921 0)
(0.197639 0.00820879 0)
(0.198676 0.00853222 0)
(0.199651 0.00855785 0)
(0.20049 0.00837275 0)
(0.201167 0.00805241 0)
(0.201684 0.00766041 0)
(0.202056 0.00724759 0)
(0.20231 0.00684782 0)
(0.202475 0.00647847 0)
(0.202573 0.00614532 0)
(0.202625 0.00584774 0)
(0.202642 0.00558223 0)
(0.202634 0.00534444 0)
(0.202604 0.00513016 0)
(0.202558 0.0049357 0)
(0.202496 0.00475799 0)
(0.202421 0.0045945 0)
(0.202333 0.00444319 0)
(0.202232 0.00430234 0)
(0.202119 0.00417054 0)
(0.201994 0.00404664 0)
(0.201857 0.00392964 0)
(0.201707 0.00381871 0)
(0.201545 0.00371315 0)
(0.201369 0.00361237 0)
(0.201181 0.00351584 0)
(0.200979 0.00342314 0)
(0.200763 0.00333389 0)
(0.200534 0.00324775 0)
(0.200291 0.00316445 0)
(0.200034 0.00308373 0)
(0.199763 0.00300537 0)
(0.199477 0.00292918 0)
(0.199178 0.00285497 0)
(0.198865 0.00278259 0)
(0.198539 0.00271189 0)
(0.198199 0.00264274 0)
(0.197845 0.00257501 0)
(0.197479 0.00250858 0)
(0.197099 0.00244335 0)
(0.196708 0.00237922 0)
(0.196304 0.00231607 0)
(0.195889 0.00225381 0)
(0.195464 0.00219236 0)
(0.195027 0.00213162 0)
(0.194581 0.00207151 0)
(0.194127 0.00201194 0)
(0.193663 0.00195282 0)
(0.193192 0.00189409 0)
(0.192714 0.00183565 0)
(0.19223 0.00177745 0)
(0.191741 0.00171941 0)
(0.191248 0.00166147 0)
(0.190751 0.00160358 0)
(0.190252 0.00154566 0)
(0.189752 0.0014877 0)
(0.189252 0.00142964 0)
(0.188752 0.00137147 0)
(0.188254 0.00131318 0)
(0.18776 0.00125477 0)
(0.187269 0.00119626 0)
(0.186784 0.0011377 0)
(0.186305 0.00107916 0)
(0.185834 0.00102074 0)
(0.185371 0.000962582 0)
(0.184918 0.000904885 0)
(0.184475 0.000847912 0)
(0.184044 0.000792025 0)
(0.183624 0.000737728 0)
(0.183216 0.000685745 0)
(0.18282 0.000637163 0)
(0.182438 0.000593622 0)
(0.182078 0.000557342 0)
(0.181667 0.000515933 0)
(0.196996 0.00721896 0)
(0.197824 0.00783717 0)
(0.19874 0.00815977 0)
(0.19962 0.00822117 0)
(0.200394 0.00808897 0)
(0.201034 0.00782735 0)
(0.201535 0.00749161 0)
(0.201908 0.007127 0)
(0.202173 0.00676526 0)
(0.202355 0.00642438 0)
(0.202475 0.00611194 0)
(0.202549 0.00582926 0)
(0.20259 0.00557456 0)
(0.202607 0.00534479 0)
(0.202604 0.00513665 0)
(0.202588 0.00494709 0)
(0.202559 0.00477346 0)
(0.202521 0.00461351 0)
(0.202473 0.00446537 0)
(0.202418 0.00432745 0)
(0.202355 0.00419846 0)
(0.202285 0.00407727 0)
(0.202208 0.00396295 0)
(0.202124 0.00385469 0)
(0.202033 0.00375182 0)
(0.201935 0.00365374 0)
(0.201829 0.00355996 0)
(0.201716 0.00347003 0)
(0.201595 0.00338358 0)
(0.201466 0.00330028 0)
(0.201329 0.00321982 0)
(0.201183 0.00314196 0)
(0.201028 0.00306645 0)
(0.200865 0.0029931 0)
(0.200692 0.00292171 0)
(0.20051 0.00285211 0)
(0.200318 0.00278415 0)
(0.200117 0.00271768 0)
(0.199906 0.00265256 0)
(0.199686 0.00258867 0)
(0.199455 0.00252587 0)
(0.199216 0.00246407 0)
(0.198966 0.00240314 0)
(0.198707 0.00234298 0)
(0.198439 0.00228349 0)
(0.198162 0.00222456 0)
(0.197876 0.00216611 0)
(0.197581 0.00210804 0)
(0.197278 0.00205025 0)
(0.196967 0.00199267 0)
(0.196649 0.0019352 0)
(0.196324 0.00187777 0)
(0.195992 0.0018203 0)
(0.195655 0.00176273 0)
(0.195312 0.00170499 0)
(0.194965 0.00164702 0)
(0.194613 0.00158878 0)
(0.194259 0.00153023 0)
(0.193901 0.00147135 0)
(0.193543 0.00141212 0)
(0.193183 0.00135255 0)
(0.192823 0.00129267 0)
(0.192464 0.00123253 0)
(0.192107 0.00117221 0)
(0.191752 0.00111182 0)
(0.1914 0.00105153 0)
(0.191052 0.000991542 0)
(0.190709 0.000932157 0)
(0.190371 0.000873764 0)
(0.190038 0.000816899 0)
(0.189712 0.000762302 0)
(0.189393 0.000711006 0)
(0.189081 0.00066432 0)
(0.188785 0.000623059 0)
(0.18844 0.000572494 0)
(0.197274 0.00693879 0)
(0.198 0.00750013 0)
(0.19881 0.00781619 0)
(0.199603 0.0079049 0)
(0.200315 0.00781732 0)
(0.200916 0.00760708 0)
(0.201397 0.00732198 0)
(0.201765 0.00700199 0)
(0.202036 0.00667645 0)
(0.202229 0.00636337 0)
(0.202361 0.00607157 0)
(0.20245 0.005804 0)
(0.202505 0.00556029 0)
(0.202536 0.0053386 0)
(0.202548 0.00513649 0)
(0.202547 0.00495153 0)
(0.202534 0.0047815 0)
(0.202513 0.00462444 0)
(0.202484 0.00447869 0)
(0.20245 0.00434282 0)
(0.20241 0.00421562 0)
(0.202366 0.00409606 0)
(0.202317 0.00398326 0)
(0.202265 0.00387647 0)
(0.202209 0.00377503 0)
(0.202149 0.00367838 0)
(0.202086 0.00358604 0)
(0.202018 0.00349758 0)
(0.201947 0.00341264 0)
(0.201872 0.00333088 0)
(0.201792 0.00325202 0)
(0.201708 0.0031758 0)
(0.201619 0.00310197 0)
(0.201526 0.00303035 0)
(0.201427 0.00296072 0)
(0.201323 0.00289291 0)
(0.201214 0.00282676 0)
(0.201098 0.00276212 0)
(0.200977 0.00269884 0)
(0.20085 0.00263678 0)
(0.200717 0.00257582 0)
(0.200578 0.00251582 0)
(0.200431 0.00245668 0)
(0.200279 0.00239827 0)
(0.20012 0.00234048 0)
(0.199954 0.0022832 0)
(0.199781 0.00222632 0)
(0.199603 0.00216976 0)
(0.199417 0.00211339 0)
(0.199225 0.00205713 0)
(0.199027 0.00200089 0)
(0.198823 0.00194457 0)
(0.198613 0.0018881 0)
(0.198397 0.0018314 0)
(0.198176 0.00177439 0)
(0.19795 0.00171701 0)
(0.19772 0.00165922 0)
(0.197485 0.00160096 0)
(0.197246 0.00154221 0)
(0.197004 0.00148295 0)
(0.19676 0.0014232 0)
(0.196512 0.00136297 0)
(0.196263 0.00130233 0)
(0.196013 0.00124135 0)
(0.195762 0.00118016 0)
(0.195511 0.00111893 0)
(0.19526 0.00105788 0)
(0.195009 0.000997334 0)
(0.19476 0.000937694 0)
(0.194512 0.000879515 0)
(0.194266 0.000823533 0)
(0.194021 0.000770703 0)
(0.193781 0.000722018 0)
(0.193549 0.000677281 0)
(0.193271 0.000621537 0)
(0.197526 0.00668434 0)
(0.198167 0.00719386 0)
(0.198884 0.00749953 0)
(0.199597 0.00760844 0)
(0.20025 0.00755814 0)
(0.200812 0.00739266 0)
(0.201272 0.00715295 0)
(0.201632 0.00687408 0)
(0.201904 0.00658287 0)
(0.202103 0.00629688 0)
(0.202246 0.00602572 0)
(0.202344 0.00577355 0)
(0.20241 0.00554126 0)
(0.202451 0.00532802 0)
(0.202473 0.00513222 0)
(0.20248 0.00495202 0)
(0.202477 0.00478561 0)
(0.202465 0.00463134 0)
(0.202446 0.00448777 0)
(0.202422 0.00435363 0)
(0.202393 0.00422782 0)
(0.202361 0.00410941 0)
(0.202326 0.00399757 0)
(0.202288 0.0038916 0)
(0.202248 0.00379091 0)
(0.202206 0.00369495 0)
(0.202162 0.00360327 0)
(0.202117 0.00351546 0)
(0.202069 0.00343118 0)
(0.202021 0.00335009 0)
(0.20197 0.00327193 0)
(0.201917 0.00319644 0)
(0.201863 0.0031234 0)
(0.201806 0.00305259 0)
(0.201747 0.00298383 0)
(0.201686 0.00291693 0)
(0.201622 0.00285174 0)
(0.201556 0.00278809 0)
(0.201486 0.00272584 0)
(0.201414 0.00266486 0)
(0.201338 0.00260499 0)
(0.201258 0.00254613 0)
(0.201175 0.00248813 0)
(0.201089 0.00243088 0)
(0.200998 0.00237426 0)
(0.200903 0.00231815 0)
(0.200805 0.00226245 0)
(0.200702 0.00220703 0)
(0.200594 0.0021518 0)
(0.200483 0.00209665 0)
(0.200367 0.00204147 0)
(0.200246 0.00198618 0)
(0.200121 0.00193069 0)
(0.199992 0.0018749 0)
(0.199859 0.00181875 0)
(0.199721 0.00176215 0)
(0.19958 0.00170506 0)
(0.199434 0.00164742 0)
(0.199285 0.0015892 0)
(0.199132 0.00153038 0)
(0.198976 0.00147097 0)
(0.198817 0.00141099 0)
(0.198654 0.00135049 0)
(0.19849 0.00128957 0)
(0.198323 0.00122834 0)
(0.198153 0.00116698 0)
(0.197982 0.00110573 0)
(0.197809 0.00104492 0)
(0.197635 0.000984957 0)
(0.197459 0.000926402 0)
(0.197282 0.000869974 0)
(0.197104 0.000816538 0)
(0.196926 0.000766823 0)
(0.196753 0.000720044 0)
(0.196536 0.000662689 0)
(0.197756 0.00645208 0)
(0.198324 0.00691489 0)
(0.198959 0.00720777 0)
(0.199601 0.00733105 0)
(0.200198 0.00731157 0)
(0.200722 0.00718484 0)
(0.201158 0.00698561 0)
(0.201508 0.00674446 0)
(0.201779 0.00648561 0)
(0.201982 0.00622583 0)
(0.202131 0.00597516 0)
(0.202238 0.00573866 0)
(0.202312 0.0055182 0)
(0.202361 0.00531387 0)
(0.20239 0.00512479 0)
(0.202405 0.00494967 0)
(0.202408 0.00478712 0)
(0.202402 0.0046358 0)
(0.202389 0.00449449 0)
(0.202371 0.00436207 0)
(0.202348 0.00423759 0)
(0.202322 0.00412018 0)
(0.202293 0.0040091 0)
(0.202263 0.00390372 0)
(0.20223 0.00380347 0)
(0.202197 0.00370786 0)
(0.202162 0.00361645 0)
(0.202127 0.00352887 0)
(0.202091 0.00344477 0)
(0.202054 0.00336386 0)
(0.202017 0.00328588 0)
(0.20198 0.00321058 0)
(0.201942 0.00313774 0)
(0.201903 0.00306716 0)
(0.201864 0.00299865 0)
(0.201824 0.00293204 0)
(0.201784 0.00286718 0)
(0.201742 0.0028039 0)
(0.2017 0.00274206 0)
(0.201657 0.00268152 0)
(0.201612 0.00262214 0)
(0.201566 0.0025638 0)
(0.201518 0.00250637 0)
(0.201469 0.00244971 0)
(0.201417 0.00239372 0)
(0.201364 0.00233827 0)
(0.201309 0.00228324 0)
(0.201252 0.00222853 0)
(0.201192 0.00217401 0)
(0.20113 0.00211959 0)
(0.201065 0.00206515 0)
(0.200997 0.0020106 0)
(0.200927 0.00195584 0)
(0.200854 0.00190077 0)
(0.200778 0.00184533 0)
(0.2007 0.00178943 0)
(0.200618 0.001733 0)
(0.200533 0.00167601 0)
(0.200445 0.0016184 0)
(0.200354 0.00156016 0)
(0.200261 0.00150129 0)
(0.200164 0.0014418 0)
(0.200064 0.00138177 0)
(0.199962 0.00132126 0)
(0.199857 0.00126041 0)
(0.199748 0.0011994 0)
(0.199637 0.00113847 0)
(0.199523 0.00107795 0)
(0.199406 0.00101826 0)
(0.199287 0.000959944 0)
(0.199164 0.000903704 0)
(0.199039 0.000850315 0)
(0.198912 0.000800316 0)
(0.198786 0.000752701 0)
(0.19862 0.00069645 0)
(0.197967 0.00623919 0)
(0.198471 0.00666019 0)
(0.199036 0.00693898 0)
(0.199612 0.00707191 0)
(0.200158 0.00707761 0)
(0.200643 0.00698422 0)
(0.201056 0.0068209 0)
(0.201393 0.00661413 0)
(0.20166 0.00638558 0)
(0.201865 0.006151 0)
(0.202019 0.00592051 0)
(0.202132 0.00569977 0)
(0.202213 0.00549149 0)
(0.202269 0.00529648 0)
(0.202304 0.00511452 0)
(0.202325 0.00494486 0)
(0.202334 0.00478649 0)
(0.202333 0.00463838 0)
(0.202324 0.00449952 0)
(0.20231 0.00436896 0)
(0.202292 0.00424588 0)
(0.20227 0.00412952 0)
(0.202245 0.00401921 0)
(0.202219 0.00391437 0)
(0.20219 0.00381449 0)
(0.202161 0.0037191 0)
(0.202131 0.00362782 0)
(0.202101 0.00354028 0)
(0.20207 0.00345616 0)
(0.202039 0.0033752 0)
(0.202009 0.00329713 0)
(0.201978 0.00322173 0)
(0.201948 0.00314878 0)
(0.201918 0.0030781 0)
(0.201888 0.0030095 0)
(0.201858 0.00294282 0)
(0.201829 0.00287791 0)
(0.2018 0.0028146 0)
(0.201771 0.00275276 0)
(0.201742 0.00269225 0)
(0.201712 0.00263294 0)
(0.201683 0.00257469 0)
(0.201654 0.00251739 0)
(0.201624 0.0024609 0)
(0.201594 0.00240511 0)
(0.201563 0.0023499 0)
(0.201531 0.00229514 0)
(0.201499 0.00224073 0)
(0.201466 0.00218655 0)
(0.201432 0.00213249 0)
(0.201396 0.00207844 0)
(0.201359 0.0020243 0)
(0.201321 0.00196998 0)
(0.201282 0.00191537 0)
(0.201241 0.0018604 0)
(0.201198 0.00180499 0)
(0.201153 0.00174907 0)
(0.201106 0.00169259 0)
(0.201057 0.0016355 0)
(0.201006 0.00157779 0)
(0.200953 0.00151945 0)
(0.200897 0.00146051 0)
(0.200838 0.00140101 0)
(0.200777 0.00134105 0)
(0.200714 0.00128076 0)
(0.200647 0.00122031 0)
(0.200577 0.00115996 0)
(0.200505 0.00110003 0)
(0.200428 0.00104093 0)
(0.200349 0.000983219 0)
(0.200265 0.000927543 0)
(0.200179 0.000874613 0)
(0.200089 0.000824848 0)
(0.199998 0.000777304 0)