/*--------------------------------*- C++ -*----------------------------------*\
| =========                 |                                                 |
| \\      /  F ield         | OpenFOAM: The Open Source CFD Toolbox           |
|  \\    /   O peration     | Version:  2.3.0                                 |
|   \\  /    A nd           | Web:      www.OpenFOAM.org                      |
|    \\/     M anipulation  |                                                 |
\*---------------------------------------------------------------------------*/
FoamFile
{
    version     2.0;
    format      ascii;
    class       surfaceScalarField;
    location    "0.05";
    object      phi_0;
}
// * * * * * * * * * * * * * * * * * * * * * * * * * * * * * * * * * * * * * //

dimensions      [0 3 -1 0 0 0 0];

internalField   nonuniform List<scalar> 
5764
(
2.0198e-08
5.00896e-09
-2.5207e-08
1.50554e-08
5.14257e-09
1.11561e-08
3.89931e-09
8.51664e-09
2.63949e-09
6.8933e-09
1.62335e-09
5.99157e-09
9.01723e-10
5.50227e-09
4.89301e-10
5.19211e-09
3.10168e-10
4.97873e-09
2.13374e-10
4.86532e-09
1.13417e-10
4.83359e-09
3.1728e-11
4.84317e-09
-9.58773e-12
4.87049e-09
-2.73184e-11
4.90504e-09
-3.45506e-11
4.9381e-09
-3.30575e-11
4.96366e-09
-2.55574e-11
4.98092e-09
-1.7266e-11
4.99202e-09
-1.10932e-11
4.99909e-09
-7.07578e-12
5.00359e-09
-4.49403e-12
5.00647e-09
-2.88154e-12
5.00837e-09
-1.89726e-12
5.00967e-09
-1.30049e-12
5.01059e-09
-9.19241e-13
5.01125e-09
-6.62486e-13
5.01173e-09
-4.84332e-13
5.01209e-09
-3.57201e-13
5.01236e-09
-2.64893e-13
5.01255e-09
-1.97166e-13
5.0127e-09
-1.47399e-13
5.01281e-09
-1.10735e-13
5.01289e-09
-8.38794e-14
5.01296e-09
-6.42443e-14
5.01301e-09
-4.99737e-14
5.01305e-09
-3.96341e-14
5.01308e-09
-3.222e-14
5.01311e-09
-2.6947e-14
5.01313e-09
-2.32104e-14
5.01315e-09
-2.05062e-14
5.01317e-09
-1.86012e-14
5.01319e-09
-1.72564e-14
5.0132e-09
-1.62418e-14
5.01322e-09
-1.54738e-14
5.01323e-09
-1.48448e-14
5.01325e-09
-1.43266e-14
5.01326e-09
-1.38348e-14
5.01328e-09
-1.33747e-14
5.01329e-09
-1.28912e-14
5.0133e-09
-1.2412e-14
5.01331e-09
-1.1893e-14
5.01332e-09
-1.13728e-14
5.01333e-09
-1.08264e-14
5.01334e-09
-1.02669e-14
5.01335e-09
-9.69448e-15
5.01336e-09
-9.11196e-15
5.01337e-09
-8.5304e-15
5.01338e-09
-7.93585e-15
5.01339e-09
-7.35502e-15
5.01339e-09
-6.76009e-15
5.0134e-09
-6.17691e-15
5.01341e-09
-5.59355e-15
5.01341e-09
-5.00001e-15
5.01342e-09
-4.45899e-15
5.01342e-09
-3.8173e-15
5.01342e-09
-3.36518e-15
5.01343e-09
-2.57416e-15
5.01343e-09
-2.28715e-15
5.01343e-09
-1.23418e-15
5.01343e-09
-1.13584e-15
5.01343e-09
1.61337e-16
5.01343e-09
2.97336e-16
5.01343e-09
1.57935e-15
5.01343e-09
2.19009e-15
5.01342e-09
3.19314e-15
5.1124e-15
2.71102e-08
4.89581e-09
-2.69971e-08
2.57295e-08
6.52325e-09
2.3807e-08
5.8218e-09
2.17755e-08
4.67104e-09
1.98614e-08
3.53739e-09
1.82579e-08
2.50529e-09
1.69829e-08
1.76425e-09
1.59748e-08
1.31835e-09
1.52296e-08
9.5848e-10
1.47549e-08
5.88135e-10
1.45053e-08
2.81336e-10
1.44055e-08
9.02078e-11
1.43911e-08
-1.29328e-11
1.44197e-08
-6.31277e-11
1.44619e-08
-7.52e-11
1.45002e-08
-6.38857e-11
1.45284e-08
-4.54524e-11
1.45468e-08
-2.94856e-11
1.45578e-08
-1.80886e-11
1.45638e-08
-1.04973e-11
1.45667e-08
-5.74865e-12
1.45676e-08
-2.89288e-12
1.45676e-08
-1.23325e-12
1.45669e-08
-2.54326e-13
1.45659e-08
3.31797e-13
1.45648e-08
6.8102e-13
1.45635e-08
8.84277e-13
1.45623e-08
9.94023e-13
1.4561e-08
1.04215e-12
1.45598e-08
1.04887e-12
1.45587e-08
1.02788e-12
1.45576e-08
9.88529e-13
1.45566e-08
9.37527e-13
1.45557e-08
8.79679e-13
1.45548e-08
8.18464e-13
1.4554e-08
7.56275e-13
1.45533e-08
6.94802e-13
1.45527e-08
6.35247e-13
1.45521e-08
5.78444e-13
1.45515e-08
5.24808e-13
1.4551e-08
4.74599e-13
1.45506e-08
4.27978e-13
1.45502e-08
3.8493e-13
1.45498e-08
3.45389e-13
1.45495e-08
3.09204e-13
1.45492e-08
2.76237e-13
1.45489e-08
2.46289e-13
1.45487e-08
2.19185e-13
1.45485e-08
1.94714e-13
1.45483e-08
1.72693e-13
1.45481e-08
1.52908e-13
1.4548e-08
1.35171e-13
1.45479e-08
1.19318e-13
1.45478e-08
1.0517e-13
1.45477e-08
9.25943e-14
1.45476e-08
8.14216e-14
1.45475e-08
7.15412e-14
1.45474e-08
6.27982e-14
1.45474e-08
5.5118e-14
1.45473e-08
4.83757e-14
1.45473e-08
4.24904e-14
1.45472e-08
3.74023e-14
1.45472e-08
3.29225e-14
1.45471e-08
2.92701e-14
1.45471e-08
2.57952e-14
1.45471e-08
2.36033e-14
1.45471e-08
2.06211e-14
1.4547e-08
2.01376e-14
1.4547e-08
1.71099e-14
1.4547e-08
1.85104e-14
1.4547e-08
1.54489e-14
1.4547e-08
1.81592e-14
1.4547e-08
1.62911e-14
1.45469e-08
1.87927e-14
2.10703e-14
2.85022e-08
4.23779e-09
-2.78441e-08
2.87528e-08
6.27261e-09
2.848e-08
6.09461e-09
2.78855e-08
5.26549e-09
2.70443e-08
4.37864e-09
2.61036e-08
3.44595e-09
2.51804e-08
2.68743e-09
2.43243e-08
2.17444e-09
2.35838e-08
1.69901e-09
2.30008e-08
1.17109e-09
2.25851e-08
6.97105e-10
2.23196e-08
3.55644e-10
2.21748e-08
1.31951e-10
2.21144e-08
-2.7281e-12
2.21031e-08
-6.39521e-11
2.21134e-08
-7.41763e-11
2.21286e-08
-6.06124e-11
2.2141e-08
-4.19419e-11
2.21486e-08
-2.56948e-11
2.21517e-08
-1.35962e-11
2.21516e-08
-5.58616e-12
2.21493e-08
-6.64009e-13
2.2146e-08
2.13196e-12
2.21421e-08
3.65191e-12
2.2138e-08
4.41964e-12
2.21339e-08
4.74609e-12
2.213e-08
4.814e-12
2.21262e-08
4.72927e-12
2.21227e-08
4.55402e-12
2.21195e-08
4.3258e-12
2.21164e-08
4.06847e-12
2.21136e-08
3.79756e-12
2.2111e-08
3.52343e-12
2.21086e-08
3.25306e-12
2.21065e-08
2.99118e-12
2.21045e-08
2.74081e-12
2.21027e-08
2.50377e-12
2.2101e-08
2.28112e-12
2.20995e-08
2.07334e-12
2.20982e-08
1.88042e-12
2.2097e-08
1.70203e-12
2.20958e-08
1.53773e-12
2.20948e-08
1.38689e-12
2.20939e-08
1.24881e-12
2.20931e-08
1.12271e-12
2.20924e-08
1.00782e-12
2.20917e-08
9.03376e-13
2.20911e-08
8.08608e-13
2.20906e-08
7.22804e-13
2.20901e-08
6.45248e-13
2.20897e-08
5.7527e-13
2.20893e-08
5.12206e-13
2.2089e-08
4.55495e-13
2.20887e-08
4.0456e-13
2.20884e-08
3.58923e-13
2.20882e-08
3.18067e-13
2.2088e-08
2.8158e-13
2.20878e-08
2.4902e-13
2.20876e-08
2.20056e-13
2.20875e-08
1.94331e-13
2.20874e-08
1.71533e-13
2.20873e-08
1.51436e-13
2.20872e-08
1.33578e-13
2.20871e-08
1.18239e-13
2.2087e-08
1.04108e-13
2.20869e-08
9.32466e-14
2.20869e-08
8.13664e-14
2.20868e-08
7.53526e-14
2.20868e-08
6.40979e-14
2.20867e-08
6.32589e-14
2.20867e-08
5.22616e-14
2.20866e-08
5.50804e-14
2.20866e-08
4.68704e-14
2.20866e-08
4.98449e-14
4.91596e-14
2.93117e-08
3.7783e-09
-2.88522e-08
2.98696e-08
5.71469e-09
3.01526e-08
5.81157e-09
3.02472e-08
5.1709e-09
3.01323e-08
4.49353e-09
2.98308e-08
3.74751e-09
2.94356e-08
3.08261e-09
2.90157e-08
2.5943e-09
2.86049e-08
2.10981e-09
2.82234e-08
1.5526e-09
2.78888e-08
1.03174e-09
2.76181e-08
6.26354e-10
2.7421e-08
3.29067e-10
2.72939e-08
1.24377e-10
2.72222e-08
7.70946e-12
2.71871e-08
-3.91051e-11
2.7172e-08
-4.54969e-11
2.71654e-08
-3.53394e-11
2.7161e-08
-2.12634e-11
2.7156e-08
-8.61661e-12
2.71498e-08
6.07883e-13
2.71427e-08
6.48988e-12
2.7135e-08
9.79578e-12
2.71272e-08
1.14131e-11
2.71197e-08
1.1996e-11
2.71124e-08
1.19718e-11
2.71056e-08
1.16053e-11
2.70993e-08
1.10537e-11
2.70935e-08
1.04085e-11
2.70881e-08
9.723e-12
2.70831e-08
9.0291e-12
2.70786e-08
8.34625e-12
2.70744e-08
7.68628e-12
2.70706e-08
7.05629e-12
2.70671e-08
6.46051e-12
2.7064e-08
5.9011e-12
2.70611e-08
5.37869e-12
2.70585e-08
4.89307e-12
2.70561e-08
4.44342e-12
2.7054e-08
4.02841e-12
2.7052e-08
3.64644e-12
2.70503e-08
3.29577e-12
2.70487e-08
2.97457e-12
2.70472e-08
2.68097e-12
2.7046e-08
2.41311e-12
2.70448e-08
2.16915e-12
2.70437e-08
1.94735e-12
2.70428e-08
1.74598e-12
2.7042e-08
1.56351e-12
2.70412e-08
1.39838e-12
2.70405e-08
1.24919e-12
2.70399e-08
1.11454e-12
2.70394e-08
9.93232e-13
2.70389e-08
8.84071e-13
2.70385e-08
7.86029e-13
2.70381e-08
6.98061e-13
2.70378e-08
6.19276e-13
2.70375e-08
5.48795e-13
2.70372e-08
4.85876e-13
2.7037e-08
4.29812e-13
2.70368e-08
3.79911e-13
2.70366e-08
3.35718e-13
2.70364e-08
2.96287e-13
2.70363e-08
2.62099e-13
2.70361e-08
2.30619e-13
2.7036e-08
2.05691e-13
2.70359e-08
1.79156e-13
2.70359e-08
1.6395e-13
2.70358e-08
1.39261e-13
2.70357e-08
1.33839e-13
2.70356e-08
1.10587e-13
2.70356e-08
1.11553e-13
2.70355e-08
9.38152e-14
2.70355e-08
9.5847e-14
8.87069e-14
3.01893e-08
3.47853e-09
-2.98896e-08
3.07475e-08
5.15651e-09
3.11392e-08
5.41988e-09
3.14011e-08
4.90899e-09
3.15438e-08
4.35082e-09
3.15463e-08
3.74506e-09
3.1458e-08
3.17092e-09
3.13352e-08
2.7171e-09
3.11901e-08
2.25487e-09
3.10196e-08
1.72316e-09
3.08318e-08
1.21945e-09
3.06458e-08
8.12355e-10
3.04807e-08
4.94167e-10
3.03492e-08
2.55897e-10
3.02546e-08
1.02327e-10
3.01918e-08
2.36718e-11
3.01518e-08
-5.50164e-12
3.01257e-08
-9.23076e-12
3.0107e-08
-2.5694e-12
3.00919e-08
6.51475e-12
3.00784e-08
1.41394e-11
3.00657e-08
1.91816e-11
3.00536e-08
2.18521e-11
3.00422e-08
2.28144e-11
3.00315e-08
2.2684e-11
3.00216e-08
2.19102e-11
3.00124e-08
2.07899e-11
3.0004e-08
1.95052e-11
2.99962e-08
1.81625e-11
2.99891e-08
1.68224e-11
2.99826e-08
1.55193e-11
2.99767e-08
1.42723e-11
2.99713e-08
1.30914e-11
2.99664e-08
1.19813e-11
2.99619e-08
1.09438e-11
2.99578e-08
9.97828e-12
2.99541e-08
9.08304e-12
2.99507e-08
8.25537e-12
2.99477e-08
7.49222e-12
2.99449e-08
6.79019e-12
2.99424e-08
6.14567e-12
2.99402e-08
5.55506e-12
2.99381e-08
5.01483e-12
2.99363e-08
4.52148e-12
2.99346e-08
4.07166e-12
2.99331e-08
3.66212e-12
2.99318e-08
3.2898e-12
2.99306e-08
2.95175e-12
2.99295e-08
2.64531e-12
2.99285e-08
2.36788e-12
2.99277e-08
2.11707e-12
2.99269e-08
1.89058e-12
2.99262e-08
1.68636e-12
2.99256e-08
1.50244e-12
2.9925e-08
1.33708e-12
2.99245e-08
1.18857e-12
2.99241e-08
1.05539e-12
2.99237e-08
9.36117e-13
2.99234e-08
8.29479e-13
2.99231e-08
7.34325e-13
2.99228e-08
6.49463e-13
2.99225e-08
5.74184e-13
2.99223e-08
5.06846e-13
2.99222e-08
4.48334e-13
2.9922e-08
3.94282e-13
2.99218e-08
3.51235e-13
2.99217e-08
3.05487e-13
2.99216e-08
2.78387e-13
2.99215e-08
2.36221e-13
2.99214e-08
2.24309e-13
2.99213e-08
1.85747e-13
2.99213e-08
1.83045e-13
2.99212e-08
1.53509e-13
2.99212e-08
1.53537e-13
1.3714e-13
3.11386e-08
3.27193e-09
-3.0932e-08
3.16462e-08
4.64896e-09
3.2052e-08
5.01404e-09
3.23198e-08
4.64119e-09
3.25026e-08
4.16804e-09
3.25989e-08
3.64879e-09
3.2634e-08
3.1358e-09
3.26434e-08
2.70765e-09
3.26255e-08
2.27281e-09
3.25685e-08
1.78014e-09
3.24773e-08
1.31063e-09
3.2366e-08
9.23647e-10
3.22491e-08
6.11089e-10
3.21401e-08
3.64938e-10
3.20487e-08
1.93672e-10
3.19782e-08
9.41695e-11
3.19262e-08
4.65847e-11
3.18878e-08
2.91446e-11
3.18586e-08
2.65804e-11
3.18353e-08
2.98079e-11
3.18157e-08
3.38001e-11
3.17984e-08
3.64688e-11
3.17828e-08
3.74273e-11
3.17686e-08
3.70031e-11
3.17556e-08
3.56575e-11
3.17438e-08
3.37773e-11
3.17329e-08
3.16369e-11
3.1723e-08
2.94103e-11
3.1714e-08
2.72002e-11
3.17057e-08
2.50633e-11
3.16982e-08
2.30293e-11
3.16914e-08
2.11125e-11
3.16852e-08
1.93182e-11
3.16795e-08
1.76463e-11
3.16744e-08
1.60943e-11
3.16697e-08
1.46578e-11
3.16654e-08
1.33314e-11
3.16616e-08
1.21092e-11
3.16581e-08
1.09851e-11
3.16549e-08
9.95322e-12
3.16521e-08
9.00732e-12
3.16495e-08
8.14158e-12
3.16471e-08
7.35037e-12
3.1645e-08
6.62827e-12
3.16431e-08
5.97019e-12
3.16414e-08
5.37117e-12
3.16399e-08
4.82666e-12
3.16385e-08
4.33227e-12
3.16373e-08
3.88405e-12
3.16362e-08
3.47817e-12
3.16352e-08
3.11115e-12
3.16343e-08
2.7796e-12
3.16335e-08
2.48054e-12
3.16328e-08
2.21109e-12
3.16321e-08
1.9687e-12
3.16316e-08
1.75089e-12
3.16311e-08
1.55546e-12
3.16306e-08
1.38032e-12
3.16302e-08
1.22361e-12
3.16299e-08
1.08368e-12
3.16296e-08
9.58744e-13
3.16293e-08
8.47842e-13
3.16291e-08
7.48473e-13
3.16288e-08
6.62096e-13
3.16287e-08
5.82065e-13
3.16285e-08
5.1829e-13
3.16283e-08
4.50362e-13
3.16282e-08
4.0961e-13
3.16281e-08
3.47401e-13
3.1628e-08
3.2767e-13
3.16279e-08
2.71948e-13
3.16278e-08
2.64329e-13
3.16278e-08
2.21501e-13
3.16277e-08
2.18971e-13
1.91464e-13
3.21401e-08
3.11687e-09
-3.1985e-08
3.25783e-08
4.21076e-09
3.29749e-08
4.6174e-09
3.32316e-08
4.38447e-09
3.34049e-08
3.99476e-09
3.35188e-08
3.53485e-09
3.35938e-08
3.06087e-09
3.36495e-08
2.65195e-09
3.36756e-08
2.24671e-09
3.36602e-08
1.79554e-09
3.3611e-08
1.3598e-09
3.35405e-08
9.94163e-10
3.3457e-08
6.94535e-10
3.33698e-08
4.52215e-10
3.32885e-08
2.74892e-10
3.32195e-08
1.63198e-10
3.31638e-08
1.0225e-10
3.31198e-08
7.31505e-11
3.30849e-08
6.14934e-11
3.30566e-08
5.80821e-11
3.3033e-08
5.74138e-11
3.30127e-08
5.67897e-11
3.29948e-08
5.53243e-11
3.29788e-08
5.30033e-11
3.29644e-08
5.00863e-11
3.29513e-08
4.68494e-11
3.29394e-08
4.35071e-11
3.29287e-08
4.02012e-11
3.29188e-08
3.7015e-11
3.29099e-08
3.39922e-11
3.29018e-08
3.11523e-11
3.28944e-08
2.85013e-11
3.28877e-08
2.60374e-11
3.28816e-08
2.37544e-11
3.2876e-08
2.16441e-11
3.2871e-08
1.96975e-11
3.28664e-08
1.79049e-11
3.28623e-08
1.62567e-11
3.28585e-08
1.47433e-11
3.28551e-08
1.33558e-11
3.2852e-08
1.20853e-11
3.28492e-08
1.09234e-11
3.28467e-08
9.86205e-12
3.28445e-08
8.89387e-12
3.28424e-08
8.01177e-12
3.28406e-08
7.209e-12
3.28389e-08
6.47935e-12
3.28374e-08
5.81687e-12
3.28361e-08
5.21623e-12
3.28349e-08
4.67227e-12
3.28339e-08
4.18032e-12
3.28329e-08
3.73584e-12
3.2832e-08
3.33482e-12
3.28313e-08
2.97342e-12
3.28306e-08
2.64821e-12
3.283e-08
2.3559e-12
3.28295e-08
2.09351e-12
3.2829e-08
1.8583e-12
3.28286e-08
1.64774e-12
3.28282e-08
1.45964e-12
3.28278e-08
1.2916e-12
3.28275e-08
1.14238e-12
3.28273e-08
1.00853e-12
3.28271e-08
8.92181e-13
3.28269e-08
7.84164e-13
3.28267e-08
6.98091e-13
3.28265e-08
6.06273e-13
3.28264e-08
5.50762e-13
3.28263e-08
4.67074e-13
3.28261e-08
4.38673e-13
3.28261e-08
3.64734e-13
3.2826e-08
3.51493e-13
3.28259e-08
2.94414e-13
3.28258e-08
2.89122e-13
2.49377e-13
3.31809e-08
2.98489e-09
-3.30489e-08
3.35467e-08
3.845e-09
3.39152e-08
4.2489e-09
3.41657e-08
4.13396e-09
3.43341e-08
3.82633e-09
3.44494e-08
3.41955e-09
3.45339e-08
2.97641e-09
3.46025e-08
2.58328e-09
3.46416e-08
2.20761e-09
3.4639e-08
1.79816e-09
3.4605e-08
1.39381e-09
3.45528e-08
1.04633e-09
3.44877e-08
7.59694e-10
3.44147e-08
5.25241e-10
3.4342e-08
3.47514e-10
3.42766e-08
2.28674e-10
3.42209e-08
1.57886e-10
3.4175e-08
1.19071e-10
3.41375e-08
9.90318e-11
3.41066e-08
8.89445e-11
3.40808e-08
8.32455e-11
3.40587e-08
7.88956e-11
3.40394e-08
7.46255e-11
3.40223e-08
7.0113e-11
3.40069e-08
6.54096e-11
3.39931e-08
6.06616e-11
3.39806e-08
5.60052e-11
3.39693e-08
5.15354e-11
3.3959e-08
4.73067e-11
3.39496e-08
4.33438e-11
3.39411e-08
3.96526e-11
3.39334e-08
3.62285e-11
3.39264e-08
3.3061e-11
3.392e-08
3.01367e-11
3.39142e-08
2.74414e-11
3.39089e-08
2.49607e-11
3.39042e-08
2.26805e-11
3.38998e-08
2.05868e-11
3.38959e-08
1.86666e-11
3.38924e-08
1.69076e-11
3.38892e-08
1.5298e-11
3.38863e-08
1.38267e-11
3.38836e-08
1.24834e-11
3.38813e-08
1.12583e-11
3.38791e-08
1.01424e-11
3.38772e-08
9.12697e-12
3.38755e-08
8.20409e-12
3.38739e-08
7.36622e-12
3.38726e-08
6.60652e-12
3.38713e-08
5.91848e-12
3.38702e-08
5.29615e-12
3.38692e-08
4.73383e-12
3.38683e-08
4.22642e-12
3.38675e-08
3.76907e-12
3.38668e-08
3.35744e-12
3.38662e-08
2.98737e-12
3.38656e-08
2.65512e-12
3.38651e-08
2.35722e-12
3.38647e-08
2.09046e-12
3.38643e-08
1.8521e-12
3.38639e-08
1.63906e-12
3.38636e-08
1.44984e-12
3.38633e-08
1.28001e-12
3.38631e-08
1.13237e-12
3.38629e-08
9.95142e-13
3.38627e-08
8.85762e-13
3.38625e-08
7.69053e-13
3.38624e-08
6.98032e-13
3.38623e-08
5.92052e-13
3.38622e-08
5.54415e-13
3.38621e-08
4.61604e-13
3.3862e-08
4.42375e-13
3.38619e-08
3.70377e-13
3.38618e-08
3.62278e-13
3.09569e-13
3.42488e-08
2.86252e-09
-3.41264e-08
3.45524e-08
3.54141e-09
3.48816e-08
3.91962e-09
3.51256e-08
3.88999e-09
3.52972e-08
3.65472e-09
3.54137e-08
3.30308e-09
3.54974e-08
2.8927e-09
3.55673e-08
2.51342e-09
3.56113e-08
2.16354e-09
3.5615e-08
1.79451e-09
3.55877e-08
1.42108e-09
3.55442e-08
1.08991e-09
3.54889e-08
8.14929e-10
3.54248e-08
5.89371e-10
3.53584e-08
4.13881e-10
3.52964e-08
2.90689e-10
3.5242e-08
2.12287e-10
3.51958e-08
1.65232e-10
3.51573e-08
1.37585e-10
3.51252e-08
1.21077e-10
3.50981e-08
1.10306e-10
3.50749e-08
1.02072e-10
3.50547e-08
9.48169e-11
3.50369e-08
8.7954e-11
3.5021e-08
8.13385e-11
3.50066e-08
7.49842e-11
3.49937e-08
6.89417e-11
3.4982e-08
6.32524e-11
3.49714e-08
5.7937e-11
3.49617e-08
5.29976e-11
3.49529e-08
4.84242e-11
3.4945e-08
4.42e-11
3.49377e-08
4.03051e-11
3.49311e-08
3.67184e-11
3.49252e-08
3.34192e-11
3.49197e-08
3.03874e-11
3.49148e-08
2.76039e-11
3.49103e-08
2.50507e-11
3.49063e-08
2.27108e-11
3.49026e-08
2.05687e-11
3.48993e-08
1.86095e-11
3.48963e-08
1.68194e-11
3.48936e-08
1.51854e-11
3.48912e-08
1.36955e-11
3.4889e-08
1.23385e-11
3.4887e-08
1.11039e-11
3.48852e-08
9.98185e-12
3.48836e-08
8.96318e-12
3.48822e-08
8.03954e-12
3.48809e-08
7.203e-12
3.48798e-08
6.4463e-12
3.48787e-08
5.76252e-12
3.48778e-08
5.14544e-12
3.4877e-08
4.5892e-12
3.48763e-08
4.08849e-12
3.48756e-08
3.63829e-12
3.4875e-08
3.23402e-12
3.48745e-08
2.87151e-12
3.48741e-08
2.54682e-12
3.48737e-08
2.25665e-12
3.48733e-08
1.99723e-12
3.4873e-08
1.76678e-12
3.48727e-08
1.55985e-12
3.48725e-08
1.37995e-12
3.48722e-08
1.21264e-12
3.48721e-08
1.07919e-12
3.48719e-08
9.36894e-13
3.48717e-08
8.49771e-13
3.48716e-08
7.20943e-13
3.48715e-08
6.73644e-13
3.48714e-08
5.6146e-13
3.48713e-08
5.36037e-13
3.48712e-08
4.48575e-13
3.48711e-08
4.37679e-13
3.71468e-13
3.53371e-08
2.74678e-09
-3.52214e-08
3.55931e-08
3.28543e-09
3.58824e-08
3.63028e-09
3.61151e-08
3.65727e-09
3.62904e-08
3.47946e-09
3.64103e-08
3.18315e-09
3.64916e-08
2.81143e-09
3.65585e-08
2.44648e-09
3.66051e-08
2.11701e-09
3.66143e-08
1.78528e-09
3.65922e-08
1.4432e-09
3.6554e-08
1.12815e-09
3.65052e-08
8.63667e-10
3.64475e-08
6.47041e-10
3.63862e-08
4.75238e-10
3.63274e-08
3.49498e-10
3.62746e-08
2.65029e-10
3.6229e-08
2.10895e-10
3.61902e-08
1.76384e-10
3.61574e-08
1.53828e-10
3.61296e-08
1.38101e-10
3.61057e-08
1.25962e-10
3.60849e-08
1.15648e-10
3.60665e-08
1.06349e-10
3.60501e-08
9.77441e-11
3.60354e-08
8.97189e-11
3.60221e-08
8.22385e-11
3.601e-08
7.52881e-11
3.59991e-08
6.88516e-11
3.59892e-08
6.29068e-11
3.59802e-08
5.74261e-11
3.5972e-08
5.23799e-11
3.59646e-08
4.77381e-11
3.59578e-08
4.34714e-11
3.59517e-08
3.95523e-11
3.59461e-08
3.59548e-11
3.59411e-08
3.2655e-11
3.59365e-08
2.96303e-11
3.59324e-08
2.68599e-11
3.59286e-08
2.43248e-11
3.59252e-08
2.20069e-11
3.59221e-08
1.98895e-11
3.59194e-08
1.79573e-11
3.59169e-08
1.61957e-11
3.59146e-08
1.45915e-11
3.59126e-08
1.3132e-11
3.59108e-08
1.18056e-11
3.59091e-08
1.06015e-11
3.59077e-08
9.50966e-12
3.59063e-08
8.52078e-12
3.59052e-08
7.62622e-12
3.59041e-08
6.81783e-12
3.59032e-08
6.08826e-12
3.59023e-08
5.43057e-12
3.59016e-08
4.83847e-12
3.59009e-08
4.30606e-12
3.59003e-08
3.82792e-12
3.58998e-08
3.39911e-12
3.58993e-08
3.01501e-12
3.58989e-08
2.67168e-12
3.58985e-08
2.36468e-12
3.58982e-08
2.09193e-12
3.58979e-08
1.84696e-12
3.58977e-08
1.63394e-12
3.58974e-08
1.43579e-12
3.58972e-08
1.2776e-12
3.58971e-08
1.10913e-12
3.58969e-08
1.00538e-12
3.58968e-08
8.5323e-13
3.58967e-08
7.95911e-13
3.58966e-08
6.63896e-13
3.58965e-08
6.32138e-13
3.58964e-08
5.28712e-13
3.58963e-08
5.15034e-13
4.34862e-13
3.64463e-08
2.63788e-09
-3.63374e-08
3.66661e-08
3.06567e-09
3.69204e-08
3.376e-09
3.71376e-08
3.44002e-09
3.73127e-08
3.30438e-09
3.74375e-08
3.0584e-09
3.75178e-08
2.7311e-09
3.75803e-08
2.38398e-09
3.76273e-08
2.07002e-09
3.76419e-08
1.77062e-09
3.76252e-08
1.45994e-09
3.75915e-08
1.16187e-09
3.75479e-08
9.07272e-10
3.74956e-08
6.99264e-10
3.74388e-08
5.32072e-10
3.73831e-08
4.05174e-10
3.73323e-08
3.15881e-10
3.72875e-08
2.55663e-10
3.72489e-08
2.15009e-10
3.72159e-08
1.86837e-10
3.71876e-08
1.66354e-10
3.71632e-08
1.5037e-10
3.71419e-08
1.36984e-10
3.7123e-08
1.25207e-10
3.71062e-08
1.14562e-10
3.70911e-08
1.04819e-10
3.70775e-08
9.58604e-11
3.70652e-08
8.76145e-11
3.7054e-08
8.00277e-11
3.70438e-08
7.30521e-11
3.70346e-08
6.6642e-11
3.70262e-08
6.07539e-11
3.70186e-08
5.53474e-11
3.70117e-08
5.03846e-11
3.70054e-08
4.58309e-11
3.69997e-08
4.16545e-11
3.69946e-08
3.7826e-11
3.69899e-08
3.43186e-11
3.69856e-08
3.11076e-11
3.69818e-08
2.81701e-11
3.69783e-08
2.5485e-11
3.69752e-08
2.30327e-11
3.69723e-08
2.07951e-11
3.69698e-08
1.87554e-11
3.69675e-08
1.6898e-11
3.69654e-08
1.52083e-11
3.69635e-08
1.36727e-11
3.69618e-08
1.22787e-11
3.69603e-08
1.10147e-11
3.6959e-08
9.86989e-12
3.69578e-08
8.8342e-12
3.69567e-08
7.89825e-12
3.69557e-08
7.0535e-12
3.69549e-08
6.29194e-12
3.69541e-08
5.6063e-12
3.69534e-08
4.98972e-12
3.69528e-08
4.43595e-12
3.69523e-08
3.93928e-12
3.69518e-08
3.49433e-12
3.69514e-08
3.09659e-12
3.6951e-08
2.74088e-12
3.69507e-08
2.42482e-12
3.69504e-08
2.1409e-12
3.69501e-08
1.89396e-12
3.69499e-08
1.66427e-12
3.69497e-08
1.4807e-12
3.69495e-08
1.2855e-12
3.69493e-08
1.16464e-12
3.69492e-08
9.88711e-13
3.69491e-08
9.21047e-13
3.6949e-08
7.68754e-13
3.69489e-08
7.30545e-13
3.69488e-08
6.10677e-13
3.69487e-08
5.94226e-13
4.99674e-13
3.75793e-08
2.53583e-09
-3.74773e-08
3.77696e-08
2.87541e-09
3.7995e-08
3.15054e-09
3.81958e-08
3.23926e-09
3.8366e-08
3.13424e-09
3.84944e-08
2.92993e-09
3.85758e-08
2.64974e-09
3.8634e-08
2.32572e-09
3.86799e-08
2.02416e-09
3.86995e-08
1.75107e-09
3.86885e-08
1.47092e-09
3.8659e-08
1.19131e-09
3.86198e-08
9.46493e-10
3.85725e-08
7.4658e-10
3.852e-08
5.84554e-10
3.84675e-08
4.57675e-10
3.84187e-08
3.64665e-10
3.83751e-08
2.99267e-10
3.8337e-08
2.53173e-10
3.83039e-08
2.19858e-10
3.82754e-08
1.94875e-10
3.82506e-08
1.75157e-10
3.82289e-08
1.58729e-10
3.82096e-08
1.44461e-10
3.81925e-08
1.31747e-10
3.8177e-08
1.20253e-10
3.81631e-08
1.09783e-10
3.81505e-08
1.00213e-10
3.81391e-08
9.14501e-11
3.81287e-08
8.34211e-11
3.81193e-08
7.60612e-11
3.81107e-08
6.9313e-11
3.8103e-08
6.31251e-11
3.80959e-08
5.74511e-11
3.80895e-08
5.2249e-11
3.80836e-08
4.74809e-11
3.80784e-08
4.31122e-11
3.80736e-08
3.91115e-11
3.80692e-08
3.545e-11
3.80653e-08
3.21012e-11
3.80617e-08
2.90407e-11
3.80585e-08
2.62461e-11
3.80556e-08
2.36963e-11
3.8053e-08
2.13723e-11
3.80506e-08
1.92561e-11
3.80485e-08
1.7331e-11
3.80466e-08
1.55816e-11
3.80449e-08
1.39935e-11
3.80434e-08
1.25535e-11
3.8042e-08
1.12492e-11
3.80407e-08
1.00692e-11
3.80396e-08
9.00284e-12
3.80387e-08
8.04034e-12
3.80378e-08
7.1726e-12
3.8037e-08
6.39131e-12
3.80363e-08
5.68868e-12
3.80357e-08
5.05759e-12
3.80351e-08
4.49153e-12
3.80346e-08
3.98439e-12
3.80342e-08
3.53101e-12
3.80338e-08
3.12551e-12
3.80335e-08
2.76516e-12
3.80332e-08
2.44143e-12
3.80329e-08
2.1598e-12
3.80327e-08
1.89788e-12
3.80325e-08
1.68832e-12
3.80323e-08
1.46587e-12
3.80321e-08
1.32741e-12
3.8032e-08
1.12726e-12
3.80319e-08
1.04896e-12
3.80317e-08
8.75938e-13
3.80316e-08
8.31173e-13
3.80316e-08
6.94402e-13
3.80315e-08
6.75179e-13
5.65855e-13
3.87386e-08
2.43943e-09
-3.86422e-08
3.89037e-08
2.71028e-09
3.91055e-08
2.94874e-09
3.92909e-08
3.05385e-09
3.94522e-08
2.973e-09
3.95815e-08
2.80058e-09
3.96656e-08
2.56563e-09
3.97212e-08
2.27019e-09
3.97648e-08
1.9805e-09
3.97881e-08
1.72784e-09
3.97828e-08
1.47614e-09
3.97577e-08
1.21643e-09
3.97224e-08
9.81779e-10
3.96796e-08
7.89381e-10
3.96314e-08
6.32778e-10
3.95821e-08
5.06938e-10
3.95355e-08
4.11243e-10
3.94933e-08
3.41508e-10
3.94558e-08
2.90655e-10
3.9423e-08
2.52688e-10
3.93944e-08
2.23502e-10
3.93693e-08
2.00201e-10
3.93473e-08
1.80792e-10
3.93277e-08
1.64047e-10
3.93102e-08
1.49253e-10
3.92944e-08
1.35986e-10
3.92802e-08
1.23982e-10
3.92674e-08
1.13064e-10
3.92557e-08
1.03104e-10
3.92452e-08
9.4001e-11
3.92355e-08
8.56731e-11
3.92268e-08
7.80481e-11
3.92189e-08
7.10634e-11
3.92117e-08
6.4664e-11
3.92051e-08
5.88005e-11
3.91992e-08
5.34287e-11
3.91938e-08
4.85088e-11
3.91889e-08
4.40047e-11
3.91844e-08
3.98834e-11
3.91804e-08
3.61148e-11
3.91768e-08
3.26712e-11
3.91735e-08
2.9527e-11
3.91705e-08
2.66586e-11
3.91679e-08
2.40443e-11
3.91655e-08
2.16638e-11
3.91633e-08
1.94984e-11
3.91613e-08
1.75307e-11
3.91596e-08
1.57444e-11
3.9158e-08
1.41246e-11
3.91566e-08
1.26575e-11
3.91554e-08
1.13302e-11
3.91542e-08
1.01307e-11
3.91532e-08
9.04797e-12
3.91523e-08
8.07181e-12
3.91515e-08
7.19286e-12
3.91508e-08
6.40237e-12
3.91502e-08
5.69232e-12
3.91496e-08
5.05542e-12
3.91491e-08
4.48478e-12
3.91487e-08
3.97459e-12
3.91483e-08
3.51824e-12
3.91479e-08
3.11268e-12
3.91476e-08
2.7483e-12
3.91473e-08
2.43124e-12
3.91471e-08
2.13643e-12
3.91469e-08
1.9003e-12
3.91467e-08
1.65006e-12
3.91465e-08
1.49358e-12
3.91464e-08
1.26876e-12
3.91463e-08
1.17954e-12
3.91462e-08
9.85354e-13
3.91461e-08
9.33936e-13
3.9146e-08
7.79824e-13
3.91459e-08
7.57818e-13
6.33356e-13
3.99262e-08
2.34665e-09
-3.98335e-08
4.007e-08
2.56656e-09
4.0251e-08
2.76769e-09
4.04229e-08
2.88197e-09
4.05734e-08
2.82253e-09
4.07004e-08
2.67352e-09
4.07879e-08
2.47819e-09
4.08425e-08
2.21556e-09
4.08834e-08
1.9396e-09
4.09088e-08
1.70243e-09
4.0909e-08
1.47595e-09
4.08884e-08
1.23707e-09
4.08568e-08
1.01338e-09
4.08181e-08
8.28035e-10
4.0774e-08
6.76871e-10
4.07281e-08
5.52917e-10
4.06838e-08
4.5551e-10
4.06431e-08
3.82232e-10
4.06065e-08
3.27269e-10
4.0574e-08
2.85147e-10
4.05454e-08
2.52085e-10
4.05202e-08
2.25384e-10
4.04979e-08
2.03086e-10
4.04781e-08
1.83901e-10
4.04603e-08
1.67032e-10
4.04443e-08
1.51984e-10
4.04299e-08
1.3843e-10
4.04168e-08
1.26146e-10
4.04049e-08
1.1497e-10
4.03941e-08
1.04777e-10
4.03843e-08
9.54653e-11
4.03754e-08
8.69484e-11
4.03674e-08
7.91531e-11
4.036e-08
7.20153e-11
4.03533e-08
6.54783e-11
4.03473e-08
5.94917e-11
4.03418e-08
5.40103e-11
4.03368e-08
4.89932e-11
4.03322e-08
4.44033e-11
4.03282e-08
4.02069e-11
4.03245e-08
3.63727e-11
4.03211e-08
3.28722e-11
4.03181e-08
2.96789e-11
4.03154e-08
2.67687e-11
4.03129e-08
2.41189e-11
4.03107e-08
2.17084e-11
4.03087e-08
1.9518e-11
4.03069e-08
1.75296e-11
4.03053e-08
1.57267e-11
4.03039e-08
1.40936e-11
4.03026e-08
1.26161e-11
4.03015e-08
1.12807e-11
4.03004e-08
1.00754e-11
4.02995e-08
8.98871e-12
4.02987e-08
8.01017e-12
4.0298e-08
7.13009e-12
4.02973e-08
6.33954e-12
4.02967e-08
5.63041e-12
4.02962e-08
4.99501e-12
4.02958e-08
4.42689e-12
4.02954e-08
3.9187e-12
4.0295e-08
3.46702e-12
4.02947e-08
3.06121e-12
4.02944e-08
2.70801e-12
4.02942e-08
2.37969e-12
4.0294e-08
2.11643e-12
4.02938e-08
1.8379e-12
4.02936e-08
1.66298e-12
4.02935e-08
1.41306e-12
4.02933e-08
1.31267e-12
4.02932e-08
1.09689e-12
4.02931e-08
1.03873e-12
4.0293e-08
8.66862e-13
4.0293e-08
8.42056e-13
7.02112e-13
4.11435e-08
2.25592e-09
-4.10528e-08
4.12695e-08
2.44055e-09
4.14314e-08
2.60582e-09
4.15914e-08
2.7219e-09
4.17313e-08
2.68268e-09
4.18532e-08
2.55163e-09
4.19431e-08
2.38826e-09
4.19985e-08
2.16018e-09
4.20368e-08
1.90122e-09
4.20631e-08
1.67622e-09
4.2068e-08
1.47097e-09
4.2052e-08
1.25306e-09
4.2024e-08
1.04139e-09
4.19892e-08
8.62897e-10
4.1949e-08
7.17008e-10
4.19063e-08
5.95595e-10
4.18645e-08
4.97382e-10
4.18254e-08
4.21317e-10
4.17898e-08
3.62859e-10
4.17579e-08
3.17077e-10
4.17295e-08
2.80481e-10
4.17043e-08
2.5059e-10
4.16818e-08
2.2552e-10
4.16618e-08
2.03952e-10
4.16438e-08
1.85032e-10
4.16276e-08
1.68206e-10
4.16129e-08
1.53095e-10
4.15996e-08
1.39434e-10
4.15876e-08
1.2703e-10
4.15766e-08
1.15733e-10
4.15666e-08
1.05423e-10
4.15576e-08
9.60014e-11
4.15494e-08
8.73831e-11
4.15419e-08
7.94953e-11
4.15351e-08
7.22739e-11
4.15289e-08
6.56623e-11
4.15233e-08
5.96098e-11
4.15182e-08
5.40709e-11
4.15136e-08
4.90044e-11
4.15095e-08
4.43726e-11
4.15057e-08
4.01409e-11
4.15023e-08
3.62778e-11
4.14992e-08
3.27539e-11
4.14964e-08
2.95424e-11
4.14939e-08
2.66183e-11
4.14917e-08
2.39585e-11
4.14897e-08
2.15414e-11
4.14879e-08
1.93473e-11
4.14862e-08
1.73578e-11
4.14848e-08
1.55557e-11
4.14834e-08
1.39252e-11
4.14823e-08
1.24516e-11
4.14812e-08
1.11215e-11
4.14803e-08
9.92225e-12
4.14795e-08
8.84232e-12
4.14787e-08
7.87103e-12
4.14781e-08
6.99852e-12
4.14775e-08
6.21583e-12
4.1477e-08
5.51451e-12
4.14765e-08
4.88741e-12
4.14761e-08
4.32644e-12
4.14757e-08
3.8278e-12
4.14754e-08
3.3798e-12
4.14751e-08
2.98979e-12
4.14749e-08
2.62737e-12
4.14747e-08
2.33647e-12
4.14745e-08
2.02917e-12
4.14743e-08
1.83543e-12
4.14742e-08
1.56e-12
4.1474e-08
1.4482e-12
4.14739e-08
1.21043e-12
4.14738e-08
1.14544e-12
4.14737e-08
9.55424e-13
4.14736e-08
9.27789e-13
7.72049e-13
4.23912e-08
2.16684e-09
-4.23022e-08
4.25034e-08
2.3284e-09
4.26474e-08
2.46183e-09
4.27966e-08
2.57273e-09
4.29269e-08
2.55235e-09
4.30416e-08
2.43687e-09
4.31323e-08
2.29764e-09
4.31895e-08
2.10296e-09
4.32262e-08
1.86452e-09
4.32522e-08
1.65024e-09
4.3261e-08
1.46214e-09
4.32496e-08
1.26443e-09
4.32252e-08
1.06583e-09
4.31938e-08
8.94261e-10
4.31574e-08
7.53408e-10
4.3118e-08
6.34992e-10
4.30786e-08
5.36796e-10
4.30413e-08
4.58667e-10
4.30068e-08
3.97295e-10
4.29756e-08
3.48331e-10
4.29475e-08
3.08558e-10
4.29224e-08
2.75707e-10
4.28999e-08
2.48001e-10
4.28797e-08
2.24127e-10
4.28616e-08
2.03195e-10
4.28452e-08
1.84606e-10
4.28303e-08
1.6794e-10
4.28168e-08
1.52899e-10
4.28046e-08
1.39258e-10
4.27935e-08
1.26847e-10
4.27834e-08
1.15529e-10
4.27742e-08
1.05192e-10
4.27658e-08
9.57405e-11
4.27582e-08
8.70926e-11
4.27513e-08
7.91772e-11
4.27451e-08
7.19315e-11
4.27394e-08
6.52994e-11
4.27342e-08
5.92308e-11
4.27296e-08
5.36802e-11
4.27253e-08
4.86062e-11
4.27215e-08
4.39708e-11
4.2718e-08
3.97391e-11
4.27149e-08
3.58793e-11
4.27121e-08
3.23617e-11
4.27095e-08
2.91589e-11
4.27073e-08
2.62455e-11
4.27052e-08
2.35981e-11
4.27034e-08
2.11949e-11
4.27017e-08
1.90157e-11
4.27002e-08
1.70418e-11
4.26989e-08
1.52559e-11
4.26977e-08
1.36419e-11
4.26966e-08
1.21848e-11
4.26957e-08
1.08712e-11
4.26948e-08
9.68819e-12
4.26941e-08
8.62418e-12
4.26934e-08
7.66835e-12
4.26928e-08
6.81091e-12
4.26923e-08
6.04257e-12
4.26918e-08
5.35552e-12
4.26914e-08
4.74089e-12
4.2691e-08
4.19453e-12
4.26907e-08
3.70365e-12
4.26904e-08
3.27622e-12
4.26902e-08
2.87915e-12
4.26899e-08
2.56012e-12
4.26898e-08
2.22361e-12
4.26896e-08
2.0107e-12
4.26894e-08
1.70936e-12
4.26893e-08
1.58596e-12
4.26892e-08
1.32581e-12
4.26891e-08
1.2539e-12
4.2689e-08
1.04539e-12
4.26889e-08
1.0149e-12
8.43072e-13
4.36706e-08
2.07995e-09
-4.35837e-08
4.37725e-08
2.22651e-09
4.39002e-08
2.33414e-09
4.40385e-08
2.4344e-09
4.41607e-08
2.43023e-09
4.42675e-08
2.32998e-09
4.43568e-08
2.20838e-09
4.44162e-08
2.04358e-09
4.44523e-08
1.82844e-09
4.44774e-08
1.62509e-09
4.4489e-08
1.45053e-09
4.44821e-08
1.27138e-09
4.44613e-08
1.08662e-09
4.44332e-08
9.22348e-10
4.44003e-08
7.86316e-10
4.43641e-08
6.71166e-10
4.43272e-08
5.73704e-10
4.42917e-08
4.94201e-10
4.42585e-08
4.30467e-10
4.42281e-08
3.7878e-10
4.42004e-08