/*--------------------------------*- C++ -*----------------------------------*\
| =========                 |                                                 |
| \\      /  F ield         | OpenFOAM: The Open Source CFD Toolbox           |
|  \\    /   O peration     | Version:  2.3.0                                 |
|   \\  /    A nd           | Web:      www.OpenFOAM.org                      |
|    \\/     M anipulation  |                                                 |
\*---------------------------------------------------------------------------*/
FoamFile
{
    version     2.0;
    format      ascii;
    class       surfaceScalarField;
    location    "0.75";
    object      phi;
}
// * * * * * * * * * * * * * * * * * * * * * * * * * * * * * * * * * * * * * //

dimensions      [0 3 -1 0 0 0 0];

internalField   nonuniform List<scalar> 
5644
(
2.86514e-08
2.77208e-09
-3.14235e-08
2.58102e-08
2.8412e-09
2.31195e-08
2.69067e-09
2.06324e-08
2.48719e-09
1.83665e-08
2.26583e-09
1.63335e-08
2.03307e-09
1.45368e-08
1.79662e-09
1.29725e-08
1.56429e-09
1.16297e-08
1.34281e-09
1.04921e-08
1.13766e-09
9.53912e-09
9.52948e-10
8.74795e-09
7.91168e-10
8.09476e-09
6.53184e-10
7.55639e-09
5.38376e-10
7.11143e-09
4.44963e-10
6.74102e-09
3.70403e-10
6.42924e-09
3.11787e-10
6.16306e-09
2.66176e-10
5.93222e-09
2.30844e-10
5.7288e-09
2.03419e-10
5.54685e-09
1.81944e-10
5.38198e-09
1.64871e-10
5.23096e-09
1.51025e-10
5.09142e-09
1.39534e-10
4.96165e-09
1.29777e-10
4.84033e-09
1.21313e-10
4.72649e-09
1.1384e-10
4.61935e-09
1.07148e-10
4.51825e-09
1.01095e-10
4.42267e-09
9.5577e-11
4.33215e-09
9.05222e-11
4.24628e-09
8.58748e-11
4.16469e-09
8.15904e-11
4.08705e-09
7.76325e-11
4.01308e-09
7.39696e-11
3.94251e-09
7.05739e-11
3.87509e-09
6.74207e-11
3.8106e-09
6.44878e-11
3.74885e-09
6.17551e-11
3.68964e-09
5.92046e-11
3.63282e-09
5.68202e-11
3.57823e-09
5.45873e-11
3.52574e-09
5.24929e-11
3.47522e-09
5.05253e-11
3.42654e-09
4.86741e-11
3.37961e-09
4.693e-11
3.33433e-09
4.52845e-11
3.2906e-09
4.37301e-11
3.24834e-09
4.22601e-11
3.20747e-09
4.08682e-11
3.16792e-09
3.95489e-11
3.12962e-09
3.82971e-11
3.09252e-09
3.71083e-11
3.05654e-09
3.59781e-11
3.02163e-09
3.49029e-11
2.98776e-09
3.38789e-11
2.95485e-09
3.29031e-11
2.92288e-09
3.19723e-11
2.8918e-09
3.10838e-11
2.86156e-09
3.02351e-11
2.83214e-09
2.94237e-11
2.80349e-09
2.86476e-11
2.77559e-09
2.79045e-11
2.74839e-09
2.71927e-11
2.72188e-09
2.65104e-11
2.69603e-09
2.58559e-11
2.6708e-09
2.52277e-11
2.64617e-09
2.46244e-11
2.62213e-09
2.40447e-11
2.59864e-09
2.34873e-11
2.57569e-09
2.29511e-11
2.55326e-09
2.24351e-11
2.53132e-09
2.19383e-11
2.50986e-09
2.14598e-11
2.48886e-09
2.09988e-11
2.4683e-09
2.05544e-11
2.44818e-09
2.01262e-11
2.42847e-09
1.97134e-11
2.40915e-09
1.93155e-11
2.39022e-09
1.8932e-11
2.37165e-09
1.85626e-11
2.35345e-09
1.8207e-11
2.33558e-09
1.78649e-11
2.31805e-09
1.75361e-11
2.30083e-09
1.72206e-11
2.28391e-09
1.69185e-11
2.26728e-09
1.66299e-11
2.25092e-09
1.63551e-11
2.23483e-09
1.60946e-11
2.21898e-09
1.58491e-11
2.20336e-09
1.56199e-11
2.18795e-09
1.54087e-11
2.17273e-09
1.52184e-11
2.15768e-09
1.50545e-11
2.14275e-09
1.49278e-11
2.12789e-09
1.4863e-11
2.11296e-09
1.49288e-11
2.09769e-09
1.52658e-11
2.08141e-09
1.62854e-11
4.75628e-11
3.44035e-08
3.04358e-09
-3.4675e-08
3.38386e-08
3.40604e-09
3.30302e-08
3.49907e-09
3.2059e-08
3.45845e-09
3.09824e-08
3.34238e-09
2.9846e-08
3.16947e-09
2.86871e-08
2.95556e-09
2.75346e-08
2.71678e-09
2.64101e-08
2.46725e-09
2.53291e-08
2.21871e-09
2.43016e-08
1.98047e-09
2.33334e-08
1.75932e-09
2.24271e-08
1.55948e-09
2.15827e-08
1.38285e-09
2.07982e-08
1.22942e-09
2.00708e-08
1.09782e-09
1.93967e-08
9.85836e-10
1.8772e-08
8.90868e-10
1.81926e-08
8.10279e-10
1.76544e-08
7.41609e-10
1.71537e-08
6.82695e-10
1.66868e-08
6.31721e-10
1.62506e-08
5.87205e-10
1.58422e-08
5.47967e-10
1.54589e-08
5.13079e-10
1.50984e-08
4.81818e-10
1.47586e-08
4.53621e-10
1.44377e-08
4.28046e-10
1.41341e-08
4.0474e-10
1.38462e-08
3.83422e-10
1.35729e-08
3.63856e-10
1.33129e-08
3.45849e-10
1.30653e-08
3.29235e-10
1.2829e-08
3.1387e-10
1.26034e-08
2.99629e-10
1.23876e-08
2.86403e-10
1.21809e-08
2.74095e-10
1.19827e-08
2.62619e-10
1.17926e-08
2.519e-10
1.16099e-08
2.4187e-10
1.14343e-08
2.32467e-10
1.12652e-08
2.23639e-10
1.11024e-08
2.15338e-10
1.09454e-08
2.0752e-10
1.07939e-08
2.00147e-10
1.06477e-08
1.93184e-10
1.05064e-08
1.866e-10
1.03697e-08
1.80367e-10
1.02375e-08
1.7446e-10
1.01095e-08
1.68856e-10
9.98555e-09
1.63534e-10
9.86537e-09
1.58475e-10
9.74882e-09
1.53661e-10
9.63572e-09
1.49077e-10
9.52591e-09
1.44707e-10
9.41925e-09
1.4054e-10
9.31559e-09
1.36561e-10
9.21481e-09
1.32759e-10
9.11677e-09
1.29125e-10
9.02135e-09
1.25647e-10
8.92846e-09
1.22318e-10
8.83798e-09
1.19128e-10
8.74982e-09
1.16069e-10
8.66387e-09
1.13135e-10
8.58007e-09
1.10318e-10
8.49831e-09
1.07611e-10
8.41853e-09
1.0501e-10
8.34064e-09
1.02508e-10
8.26459e-09
1.001e-10
8.1903e-09
9.77809e-11
8.1177e-09
9.55466e-11
8.04674e-09
9.33927e-11
7.97737e-09
9.13152e-11
7.90951e-09
8.93106e-11
7.84314e-09
8.73754e-11
7.77819e-09
8.55066e-11
7.71461e-09
8.37013e-11
7.65237e-09
8.19569e-11
7.59141e-09
8.02711e-11
7.5317e-09
7.86418e-11
7.4732e-09
7.70673e-11
7.41586e-09
7.5546e-11
7.35965e-09
7.40767e-11
7.30452e-09
7.26584e-11
7.25045e-09
7.12905e-11
7.1974e-09
6.99729e-11
7.14532e-09
6.87057e-11
7.09419e-09
6.74896e-11
7.04396e-09
6.6326e-11
6.99459e-09
6.5217e-11
6.94604e-09
6.41662e-11
6.89827e-09
6.31792e-11
6.85123e-09
6.22654e-11
6.80484e-09
6.14419e-11
6.75902e-09
6.07434e-11
6.71363e-09
6.02517e-11
6.66838e-09
6.01786e-11
6.62256e-09
6.10906e-11
6.57062e-09
6.82238e-11
1.21813e-10
3.65062e-08
2.89631e-09
-3.6359e-08
3.65903e-08
3.32198e-09
3.65503e-08
3.53907e-09
3.63857e-08
3.62307e-09
3.61079e-08
3.62019e-09
3.57306e-08
3.54668e-09
3.52707e-08
3.41548e-09
3.47457e-08
3.24183e-09
3.41722e-08
3.04074e-09
3.35653e-08
2.82557e-09
3.29381e-08
2.60768e-09
3.23014e-08
2.39608e-09
3.16636e-08
2.19724e-09
3.10313e-08
2.0151e-09
3.04093e-08
1.85145e-09
2.98008e-08
1.70638e-09
2.92078e-08
1.57883e-09
2.86315e-08
1.46708e-09
2.80727e-08
1.3691e-09
2.75315e-08
1.28284e-09
2.70078e-08
1.20644e-09
2.65012e-08
1.13824e-09
2.60116e-08
1.07689e-09
2.55383e-08
1.02124e-09
2.50809e-08
9.7043e-10
2.4639e-08
9.23738e-10
2.4212e-08
8.80614e-10
2.37994e-08
8.40619e-10
2.34008e-08
8.034e-10
2.30155e-08
7.68672e-10
2.26432e-08
7.36194e-10
2.22833e-08
7.05766e-10
2.19353e-08
6.77213e-10
2.15988e-08
6.5038e-10
2.12733e-08
6.25133e-10
2.09583e-08
6.01347e-10
2.06535e-08
5.78914e-10
2.03584e-08
5.57732e-10
2.00726e-08
5.3771e-10
1.97957e-08
5.18765e-10
1.95273e-08
5.00821e-10
1.92672e-08
4.83809e-10
1.90148e-08
4.67665e-10
1.877e-08
4.52331e-10
1.85324e-08
4.37754e-10
1.83017e-08
4.23885e-10
1.80777e-08
4.10678e-10
1.78599e-08
3.98093e-10
1.76483e-08
3.8609e-10
1.74425e-08
3.74636e-10
1.72424e-08
3.63697e-10
1.70476e-08
3.53243e-10
1.6858e-08
3.43246e-10
1.66734e-08
3.33679e-10
1.64936e-08
3.2452e-10
1.63184e-08
3.15744e-10
1.61476e-08
3.07332e-10
1.59811e-08
2.99262e-10
1.58187e-08
2.91517e-10
1.56603e-08
2.8408e-10
1.55057e-08
2.76933e-10
1.53547e-08
2.70063e-10
1.52073e-08
2.63454e-10
1.50634e-08
2.57093e-10
1.49227e-08
2.50967e-10
1.47853e-08
2.45065e-10
1.46509e-08
2.39376e-10
1.45195e-08
2.33888e-10
1.4391e-08
2.28592e-10
1.42654e-08
2.23478e-10
1.41424e-08
2.18538e-10
1.4022e-08
2.13764e-10
1.39042e-08
2.09147e-10
1.37888e-08
2.0468e-10
1.36758e-08
2.00358e-10
1.35651e-08
1.96172e-10
1.34567e-08
1.92119e-10
1.33505e-08
1.88192e-10
1.32464e-08
1.84386e-10
1.31443e-08
1.80698e-10
1.30443e-08
1.77124e-10
1.29461e-08
1.73659e-10
1.28499e-08
1.70302e-10
1.27555e-08
1.6705e-10
1.26629e-08
1.63902e-10
1.2572e-08
1.60857e-10
1.24828e-08
1.57915e-10
1.23952e-08
1.55077e-10
1.23092e-08
1.52346e-10
1.22247e-08
1.49724e-10
1.21417e-08
1.4722e-10
1.206e-08
1.44843e-10
1.19796e-08
1.42611e-10
1.19005e-08
1.40556e-10
1.18225e-08
1.38746e-10
1.17454e-08
1.37335e-10
1.16689e-08
1.36738e-10
1.15917e-08
1.38326e-10
1.15086e-08
1.51286e-10
2.10505e-10
3.80858e-08
2.70731e-09
-3.78968e-08
3.82946e-08
3.11316e-09
3.84693e-08
3.36437e-09
3.85901e-08
3.50225e-09
3.86502e-08
3.56013e-09
3.86454e-08
3.55144e-09
3.85755e-08
3.4854e-09
3.84438e-08
3.37358e-09
3.82559e-08
3.22857e-09
3.80192e-08
3.06232e-09
3.77413e-08
2.88553e-09
3.74302e-08
2.70719e-09
3.70932e-08
2.53429e-09
3.67366e-08
2.37163e-09
3.63661e-08
2.22202e-09
3.59859e-08
2.08658e-09
3.55995e-08
1.96522e-09
3.52095e-08
1.85702e-09
3.4818e-08
1.76063e-09
3.44263e-08
1.6745e-09
3.40356e-08
1.59713e-09
3.36468e-08
1.52714e-09
3.32603e-08
1.46333e-09
3.28768e-08
1.40471e-09
3.24968e-08
1.35048e-09
3.21205e-08
1.29999e-09
3.17484e-08
1.25273e-09
3.13807e-08
1.20831e-09
3.10177e-08
1.16641e-09
3.06596e-08
1.12678e-09
3.03066e-08
1.0892e-09
2.99589e-08
1.0535e-09
2.96165e-08
1.01954e-09
2.92797e-08
9.87195e-10
2.89485e-08
9.56347e-10
2.86229e-08
9.269e-10
2.83031e-08
8.98764e-10
2.7989e-08
8.71858e-10
2.76806e-08
8.46109e-10
2.73779e-08
8.2145e-10
2.70809e-08
7.97818e-10
2.67895e-08
7.75157e-10
2.65038e-08
7.53415e-10
2.62236e-08
7.32542e-10
2.59488e-08
7.12494e-10
2.56795e-08
6.93229e-10
2.54155e-08
6.74708e-10
2.51567e-08
6.56895e-10
2.4903e-08
6.39754e-10
2.46544e-08
6.23256e-10
2.44107e-08
6.07369e-10
2.41719e-08
5.92065e-10
2.39378e-08
5.77318e-10
2.37084e-08
5.63102e-10
2.34835e-08
5.49393e-10
2.32631e-08
5.36169e-10
2.3047e-08
5.23408e-10
2.28352e-08
5.1109e-10
2.26275e-08
4.99195e-10
2.24239e-08
4.87705e-10
2.22242e-08
4.76601e-10
2.20284e-08
4.65868e-10
2.18364e-08
4.55488e-10
2.1648e-08
4.45446e-10
2.14633e-08
4.35729e-10
2.1282e-08
4.26321e-10
2.11042e-08
4.17209e-10
2.09297e-08
4.0838e-10
2.07584e-08
3.99823e-10
2.05904e-08
3.91526e-10
2.04255e-08
3.83477e-10
2.02636e-08
3.75667e-10
2.01046e-08
3.68084e-10
1.99486e-08
3.60721e-10
1.97954e-08
3.53568e-10
1.96449e-08
3.46616e-10
1.94972e-08
3.39858e-10
1.93521e-08
3.33288e-10
1.92096e-08
3.26898e-10
1.90696e-08
3.20682e-10
1.89321e-08
3.14636e-10
1.8797e-08
3.08754e-10
1.86643e-08
3.03034e-10
1.85338e-08
2.97472e-10
1.84057e-08
2.92066e-10
1.82797e-08
2.86815e-10
1.81559e-08
2.8172e-10
1.80342e-08
2.76782e-10
1.79145e-08
2.72005e-10
1.77969e-08
2.67396e-10
1.76811e-08
2.62964e-10
1.75672e-08
2.58726e-10
1.74551e-08
2.54709e-10
1.73447e-08
2.50963e-10
1.72359e-08
2.47588e-10
1.71284e-08
2.4482e-10
1.70219e-08
2.43289e-10
1.6915e-08
2.45147e-10
1.68059e-08
2.60455e-10
3.1329e-10
3.96248e-08
2.53877e-09
-3.94562e-08
3.98327e-08
2.9052e-09
4.00412e-08
3.15586e-09
4.02319e-08
3.31164e-09
4.0396e-08
3.39594e-09
4.05268e-08
3.42066e-09
4.06188e-08
3.39341e-09
4.06693e-08
3.32314e-09
4.06778e-08
3.22002e-09
4.06461e-08
3.09406e-09
4.05771e-08
2.95449e-09
4.04749e-08
2.80935e-09
4.03441e-08
2.66516e-09
4.0189e-08
2.52674e-09
4.00138e-08
2.3972e-09
3.98222e-08
2.2782e-09
3.96171e-08
2.17024e-09
3.94012e-08
2.07299e-09
3.91762e-08
1.9856e-09
3.89437e-08
1.90698e-09
3.87049e-08
1.83594e-09
3.84607e-08
1.77136e-09
3.82118e-08
1.71223e-09
3.79588e-08
1.65767e-09
3.77024e-08
1.60697e-09
3.74428e-08
1.55952e-09
3.71807e-08
1.51487e-09
3.69164e-08
1.47265e-09
3.66502e-08
1.43255e-09
3.63826e-08
1.39434e-09
3.6114e-08
1.35784e-09
3.58446e-08
1.32289e-09
3.55748e-08
1.28936e-09
3.53049e-08
1.25713e-09
3.50351e-08
1.22613e-09
3.47657e-08
1.19627e-09
3.4497e-08
1.16747e-09
3.42292e-08
1.13967e-09
3.39625e-08
1.11282e-09
3.36971e-08
1.08686e-09
3.34331e-08
1.06175e-09
3.31709e-08
1.03745e-09
3.29103e-08
1.01392e-09
3.26518e-08
9.91122e-10
3.23952e-08
9.69026e-10
3.21409e-08
9.47601e-10
3.18888e-08
9.26822e-10
3.1639e-08
9.06662e-10
3.13916e-08
8.87097e-10
3.11468e-08
8.68106e-10
3.09045e-08
8.49667e-10
3.06648e-08
8.3176e-10
3.04277e-08
8.14367e-10
3.01934e-08
7.97469e-10
2.99617e-08
7.8105e-10
2.97328e-08
7.65093e-10
2.95066e-08
7.49581e-10
2.92832e-08
7.345e-10
2.90626e-08
7.19836e-10
2.88447e-08
7.05573e-10
2.86296e-08
6.91698e-10
2.84173e-08
6.78197e-10
2.82077e-08
6.65058e-10
2.80009e-08
6.52268e-10
2.77968e-08
6.39815e-10
2.75954e-08
6.27686e-10
2.73968e-08
6.15872e-10
2.72008e-08
6.04359e-10
2.70075e-08
5.93138e-10
2.68168e-08
5.82199e-10
2.66288e-08
5.71531e-10
2.64433e-08
5.61124e-10
2.62604e-08
5.5097e-10
2.60801e-08
5.4106e-10
2.59023e-08
5.31385e-10
2.57269e-08
5.21938e-10
2.55541e-08
5.12711e-10
2.53837e-08
5.03697e-10
2.52157e-08
4.94891e-10
2.50501e-08
4.86286e-10
2.48868e-08
4.77878e-10
2.47259e-08
4.69662e-10
2.45673e-08
4.61636e-10
2.4411e-08
4.53796e-10
2.42569e-08
4.46143e-10
2.41051e-08
4.38676e-10
2.39554e-08
4.31396e-10
2.38079e-08
4.24309e-10
2.36624e-08
4.17419e-10
2.35191e-08
4.10736e-10
2.33778e-08
4.04275e-10
2.32385e-08
3.9806e-10
2.3101e-08
3.92126e-10
2.29655e-08
3.86542e-10
2.28316e-08
3.8144e-10
2.26993e-08
3.77123e-10
2.25682e-08
3.74384e-10
2.24377e-08
3.75704e-10
2.23085e-08
3.89614e-10
4.2817e-10
4.11998e-08
2.39397e-09
-4.1055e-08
4.13858e-08
2.71918e-09
4.15841e-08
2.95757e-09
4.17787e-08
3.11711e-09
4.19615e-08
3.2131e-09
4.21266e-08
3.25556e-09
4.22687e-08
3.2513e-09
4.23841e-08
3.20771e-09
4.2471e-08
3.13321e-09
4.25287e-08
3.03627e-09
4.25584e-08
2.92484e-09
4.25618e-08
2.80594e-09
4.25415e-08
2.68544e-09
4.25004e-08
2.56784e-09
4.24414e-08
2.45626e-09
4.2367e-08
2.35258e-09
4.22796e-08
2.25763e-09
4.21811e-08
2.17146e-09
4.20731e-08
2.09362e-09
4.19567e-08
2.02335e-09
4.18329e-08
1.95975e-09
4.17024e-08
1.90191e-09
4.15657e-08
1.84896e-09
4.14232e-08
1.80016e-09
4.12753e-08
1.75485e-09
4.11223e-08
1.71249e-09
4.09645e-08
1.67265e-09
4.08022e-08
1.63495e-09
4.06357e-08
1.59913e-09
4.04651e-08
1.56495e-09
4.02907e-08
1.53222e-09
4.01128e-08
1.50079e-09
3.99316e-08
1.47054e-09
3.97474e-08
1.44136e-09
3.95603e-08
1.41317e-09
3.93707e-08
1.38588e-09
3.91787e-08
1.35944e-09
3.89846e-08
1.33379e-09
3.87886e-08
1.30887e-09
3.85908e-08
1.28464e-09
3.83915e-08
1.26106e-09
3.81908e-08
1.2381e-09
3.7989e-08
1.21573e-09
3.77862e-08
1.19392e-09
3.75826e-08
1.17264e-09
3.73783e-08
1.15188e-09
3.71735e-08
1.1316e-09
3.69684e-08
1.11181e-09
3.6763e-08
1.09246e-09
3.65576e-08
1.07356e-09
3.63522e-08
1.05509e-09
3.61469e-08
1.03703e-09
3.59419e-08
1.01937e-09
3.57373e-08
1.0021e-09
3.55331e-08
9.85208e-10
3.53295e-08
9.68683e-10
3.51266e-08
9.52515e-10
3.49244e-08
9.36695e-10
3.4723e-08
9.21211e-10
3.45225e-08
9.06056e-10
3.4323e-08
8.9122e-10
3.41245e-08
8.76694e-10
3.39271e-08
8.62469e-10
3.37308e-08
8.48537e-10
3.35357e-08
8.34889e-10
3.33419e-08
8.21518e-10
3.31494e-08
8.08414e-10
3.29582e-08
7.95571e-10
3.27683e-08
7.8298e-10
3.25799e-08
7.70634e-10
3.23929e-08
7.58526e-10
3.22074e-08
7.46649e-10
3.20233e-08
7.34995e-10
3.18408e-08
7.23559e-10
3.16599e-08
7.12334e-10
3.14805e-08
7.01314e-10
3.13027e-08
6.90493e-10
3.11266e-08
6.79868e-10
3.0952e-08
6.69433e-10
3.07791e-08
6.59184e-10
3.06079e-08
6.49119e-10
3.04383e-08
6.39236e-10
3.02704e-08
6.29531e-10
3.01042e-08
6.20007e-10
2.99397e-08
6.10663e-10
2.97769e-08
6.01502e-10
2.96157e-08
5.92528e-10
2.94563e-08
5.83748e-10
2.92985e-08
5.75172e-10
2.91425e-08
5.66813e-10
2.8988e-08
5.58691e-10
2.88353e-08
5.50836e-10
2.86841e-08
5.43296e-10
2.85345e-08
5.36152e-10
2.83864e-08
5.29561e-10
2.82396e-08
5.23865e-10
2.80941e-08
5.19899e-10
2.79499e-08
5.19923e-10
2.78099e-08
5.29641e-10
5.50151e-10
4.28234e-08
2.26784e-09
-4.26973e-08
4.29877e-08
2.55495e-09
4.31683e-08
2.77696e-09
4.33511e-08
2.93431e-09
4.35283e-08
3.03586e-09
4.36946e-08
3.0893e-09
4.38453e-08
3.10055e-09
4.39772e-08
3.07585e-09
4.40882e-08
3.02224e-09
4.41775e-08
2.94699e-09
4.42453e-08
2.85697e-09
4.42929e-08
2.75838e-09
4.43218e-08
2.65648e-09
4.43343e-08
2.55542e-09
4.43323e-08
2.45825e-09
4.43179e-08
2.36692e-09
4.42931e-08
2.28248e-09
4.42593e-08
2.20527e-09
4.42178e-08
2.13514e-09
4.41695e-08
2.0716e-09
4.41152e-08
2.01401e-09
4.40555e-08
1.96163e-09
4.39907e-08
1.91377e-09
4.39211e-08
1.86977e-09
4.38469e-08
1.82906e-09
4.37682e-08
1.79114e-09
4.36853e-08
1.75561e-09
4.35981e-08
1.72212e-09
4.35069e-08
1.6904e-09
4.34116e-08
1.66021e-09
4.33124e-08
1.63137e-09
4.32095e-08
1.60373e-09
4.31029e-08
1.57716e-09
4.29927e-08
1.55155e-09
4.2879e-08
1.52681e-09
4.27621e-08
1.50285e-09
4.26419e-08
1.47963e-09
4.25186e-08
1.45706e-09
4.23924e-08
1.43512e-09
4.22633e-08
1.41374e-09
4.21314e-08
1.39289e-09
4.1997e-08
1.37255e-09
4.186e-08
1.35266e-09
4.17207e-08
1.33322e-09
4.15792e-08
1.31419e-09
4.14355e-08
1.29556e-09
4.12898e-08
1.2773e-09
4.11422e-08
1.2594e-09
4.09928e-08
1.24185e-09
4.08418e-08
1.22463e-09
4.06891e-08
1.20772e-09
4.05351e-08
1.19112e-09
4.03796e-08
1.17482e-09
4.02229e-08
1.1588e-09
4.0065e-08
1.14307e-09
3.99061e-08
1.1276e-09
3.97462e-08
1.11239e-09
3.95855e-08
1.09744e-09
3.9424e-08
1.08274e-09
3.92617e-08
1.06828e-09
3.90989e-08
1.05405e-09
3.89356e-08
1.04005e-09
3.87718e-08
1.02627e-09
3.86076e-08
1.0127e-09
3.84431e-08
9.99344e-10
3.82785e-08
9.8619e-10
3.81136e-08
9.73233e-10
3.79488e-08
9.60468e-10
3.77838e-08
9.47888e-10
3.7619e-08
9.35489e-10
3.74542e-08
9.23266e-10
3.72897e-08
9.11212e-10
3.71254e-08
8.99324e-10
3.69613e-08
8.87596e-10
3.67976e-08
8.76025e-10
3.66343e-08
8.64607e-10
3.64715e-08
8.53337e-10
3.63091e-08
8.42213e-10
3.61473e-08
8.31232e-10
3.59861e-08
8.20392e-10
3.58256e-08
8.09692e-10
3.56657e-08
7.99132e-10
3.55065e-08
7.88712e-10
3.53481e-08
7.78434e-10
3.51904e-08
7.68302e-10
3.50336e-08
7.5832e-10
3.48776e-08
7.48496e-10
3.47225e-08
7.38839e-10
3.45684e-08
7.29362e-10
3.44151e-08
7.20085e-10
3.42627e-08
7.11031e-10
3.41113e-08
7.02237e-10
3.39609e-08
6.93759e-10
3.38113e-08
6.85686e-10
3.36627e-08
6.78188e-10
3.3515e-08
6.71601e-10
3.33682e-08
6.66666e-10
3.32231e-08
6.6501e-10
3.30836e-08
6.69191e-10
6.71942e-10
4.44985e-08
2.15583e-09
-4.43865e-08
4.46441e-08
2.40929e-09
4.48074e-08
2.61371e-09
4.4976e-08
2.76574e-09
4.51423e-08
2.86956e-09
4.53011e-08
2.9305e-09
4.54482e-08
2.95344e-09
4.55805e-08
2.94355e-09
4.5696e-08
2.9067e-09
4.5794e-08
2.84905e-09
4.58743e-08
2.77659e-09
4.5938e-08
2.69475e-09
4.59862e-08
2.60825e-09
4.60207e-08
2.52093e-09
4.60433e-08
2.43568e-09
4.60557e-08
2.3545e-09
4.60595e-08
2.2786e-09
4.60563e-08
2.20854e-09
4.6047e-08
2.14441e-09
4.60326e-08
2.08597e-09
4.60139e-08
2.03278e-09
4.59912e-08
1.98432e-09
4.59649e-08
1.94001e-09
4.59354e-08
1.89933e-09
4.59027e-08
1.86177e-09
4.58669e-08
1.82691e-09
4.58281e-08
1.79436e-09
4.57865e-08
1.76381e-09
4.57419e-08
1.735e-09
4.56944e-08
1.70771e-09
4.5644e-08
1.68175e-09
4.55908e-08
1.65697e-09
4.55347e-08
1.63323e-09
4.54758e-08
1.61044e-09
4.54141e-08
1.58849e-09
4.53497e-08
1.5673e-09
4.52825e-08
1.54681e-09
4.52126e-08
1.52696e-09
4.514e-08
1.50768e-09
4.50648e-08
1.48894e-09
4.4987e-08
1.47069e-09
4.49067e-08
1.45289e-09
4.48238e-08
1.43551e-09
4.47385e-08
1.41853e-09
4.46508e-08
1.40191e-09
4.45607e-08
1.38564e-09
4.44684e-08
1.36969e-09
4.43737e-08
1.35404e-09
4.42769e-08
1.33869e-09
4.41779e-08
1.32361e-09
4.40768e-08
1.30879e-09
4.39737e-08
1.29422e-09
4.38687e-08
1.27988e-09
4.37617e-08
1.26577e-09
4.36529e-08
1.25189e-09
4.35423e-08
1.23821e-09
4.34299e-08
1.22473e-09
4.33159e-08
1.21144e-09
4.32003e-08
1.19834e-09
4.30832e-08
1.18542e-09
4.29646e-08
1.17267e-09
4.28445e-08
1.16009e-09
4.27232e-08
1.14766e-09
4.26005e-08
1.13539e-09
4.24765e-08
1.12327e-09
4.23514e-08
1.11129e-09
4.22252e-08
1.09945e-09
4.2098e-08
1.08773e-09
4.19697e-08
1.07615e-09
4.18405e-08
1.06468e-09
4.17104e-08
1.05333e-09
4.15796e-08
1.0421e-09
4.14479e-08
1.03097e-09
4.13156e-08
1.01994e-09
4.11826e-08
1.00902e-09
4.1049e-08
9.9819e-10
4.09149e-08
9.87455e-10
4.07803e-08
9.76811e-10
4.06452e-08
9.66257e-10
4.05098e-08
9.55792e-10
4.03741e-08
9.45415e-10
4.02381e-08
9.35128e-10
4.01019e-08
9.24931e-10
3.99655e-08
9.14829e-10
3.9829e-08
9.04827e-10
3.96924e-08
8.9493e-10
3.95557e-08
8.85149e-10
3.94191e-08
8.75495e-10
3.92824e-08
8.65986e-10
3.91459e-08
8.56641e-10
3.90094e-08
8.4749e-10
3.88731e-08
8.38574e-10
3.87369e-08
8.29953e-10
3.86009e-08
8.2172e-10
3.8465e-08
8.14035e-10
3.83294e-08
8.07192e-10
3.81944e-08
8.01725e-10
3.80609e-08
7.98455e-10
3.79329e-08
7.97214e-10
7.85777e-10
4.62268e-08
2.0547e-09
-4.61256e-08
4.6357e-08
2.27903e-09
4.65046e-08
2.46609e-09
4.66594e-08
2.61099e-09
4.68141e-08
2.71484e-09
4.69637e-08
2.78094e-09
4.71041e-08
2.81302e-09
4.72324e-08
2.81529e-09
4.73465e-08
2.79256e-09
4.74455e-08
2.75001e-09
4.75293e-08
2.69277e-09
4.75985e-08
2.62558e-09
4.76541e-08
2.55265e-09
4.76976e-08
2.47749e-09
4.77304e-08
2.40283e-09
4.77542e-08
2.33067e-09
4.77705e-08
2.2623e-09
4.77806e-08
2.19845e-09
4.77856e-08
2.13943e-09
4.77864e-08
2.08519e-09
4.77837e-08
2.0355e-09
4.7778e-08
1.99e-09
4.77697e-08
1.94825e-09
4.77592e-08
1.90985e-09
4.77466e-08
1.87438e-09
4.7732e-08
1.84147e-09
4.77156e-08
1.8108e-09
4.76973e-08
1.78207e-09
4.76773e-08
1.75505e-09
4.76555e-08
1.72954e-09
4.76319e-08
1.70535e-09
4.76065e-08
1.68235e-09
4.75793e-08
1.6604e-09
4.75504e-08
1.6394e-09
4.75196e-08
1.61925e-09
4.7487e-08
1.59988e-09
4.74526e-08
1.58121e-09
4.74164e-08
1.56319e-09
4.73783e-08
1.54576e-09
4.73384e-08
1.52887e-09
4.72966e-08
1.51247e-09
4.72529e-08
1.49654e-09
4.72074e-08
1.48103e-09
4.716e-08
1.46591e-09
4.71108e-08
1.45117e-09
4.70597e-08
1.43676e-09
4.70067e-08
1.42268e-09
4.69518e-08
1.4089e-09
4.68951e-08
1.3954e-09
4.68365e-08
1.38217e-09
4.67761e-08
1.36919e-09
4.67139e-08
1.35644e-09
4.66499e-08
1.34392e-09
4.6584e-08
1.33161e-09
4.65164e-08
1.31951e-09
4.6447e-08
1.30759e-09
4.63759e-08
1.29586e-09
4.6303e-08
1.28429e-09
4.62285e-08
1.27289e-09
4.61523e-08
1.26165e-09
4.60744e-08
1.25055e-09
4.59949e-08
1.23959e-09
4.59138e-08
1.22876e-09
4.58311e-08
1.21806e-09
4.57469e-08
1.20747e-09
4.56612e-08
1.197e-09
4.5574e-08
1.18663e-09
4.54854e-08
1.17636e-09
4.53953e-08
1.16618e-09
4.53039e-08
1.15609e-09
4.52112e-08
1.14608e-09
4.51171e-08
1.13615e-09
4.50218e-08
1.12628e-09
4.49253e-08
1.11648e-09
4.48275e-08
1.10675e-09
4.47287e-08
1.09707e-09
4.46287e-08
1.08745e-09
4.45276e-08
1.07788e-09
4.44255e-08
1.06835e-09
4.43224e-08
1.05888e-09
4.42184e-08
1.04946e-09
4.41134e-08
1.04008e-09
4.40076e-08
1.03076e-09
4.39009e-08
1.02149e-09
4.37935e-08
1.01229e-09
4.36852e-08
1.00315e-09
4.35763e-08
9.94087e-10
4.34667e-08
9.8512e-10
4.33564e-08
9.76262e-10
4.32455e-08
9.67537e-10
4.3134e-08
9.58977e-10
4.3022e-08
9.50624e-10
4.29094e-08
9.42537e-10
4.27963e-08
9.34807e-10
4.26828e-08
9.27572e-10
4.25689e-08
9.21046e-10
4.24551e-08
9.15514e-10
4.23425e-08
9.11036e-10
4.22342e-08
9.05572e-10
8.85329e-10
4.80103e-08
1.96216e-09
-4.79178e-08
4.81278e-08
2.16155e-09
4.82616e-08
2.33223e-09
4.84036e-08
2.46906e-09
4.85471e-08
2.57133e-09
4.86873e-08
2.64073e-09
4.88204e-08
2.67994e-09
4.89434e-08
2.69226e-09
4.90543e-08
2.68159e-09
4.91522e-08
2.65221e-09
4.92365e-08
2.60844e-09
4.93077e-08
2.55441e-09
4.93665e-08
2.49382e-09
4.94141e-08
2.42985e-09
4.94519e-08
2.36504e-09
4.94813e-08
2.30133e-09
4.95035e-08
2.24008e-09
4.95198e-08
2.18212e-09
4.95313e-08
2.12792e-09
4.95389e-08
2.0776e-09
4.95433e-08
2.0311e-09
4.95451e-08
1.98821e-09
4.95447e-08
1.94863e-09
4.95425e-08
1.91206e-09
4.95387e-08
1.87817e-09
4.95335e-08
1.84666e-09
4.95271e-08
1.81725e-09
4.95194e-08
1.78971e-09
4.95107e-08
1.7638e-09
4.95009e-08
1.73935e-09
4.949e-08
1.71621e-09
4.94781e-08
1.69423e-09
4.94652e-08
1.67329e-09
4.94513e-08
1.6533e-09
4.94364e-08
1.63417e-09
4.94205e-08
1.61582e-09
4.94035e-08
1.59819e-09
4.93855e-08
1.58121e-09
4.93664e-08
1.56484e-09
4.93462e-08
1.54902e-09
4.9325e-08
1.53372e-09
4.93026e-08
1.51889e-09
4.92791e-08
1.50451e-09
4.92545e-08
1.49055e-09
4.92287e-08
1.47697e-09
4.92017e-08
1.46375e-09
4.91735e-08
1.45087e-09
4.91441e-08
1.43831e-09
4.91135e-08
1.42605e-09
4.90816e-08
1.41407e-09
4.90484e-08
1.40236e-09
4.90139e-08
1.3909e-09
4.89782e-08
1.37967e-09
4.89411e-08
1.36868e-09
4.89027e-08
1.35789e-09
4.8863e-08
1.34731e-09
4.8822e-08
1.33691e-09
4.87796e-08
1.3267e-09
4.87358e-08
1.31665e-09
4.86907e-08
1.30677e-09
4.86442e-08
1.29703e-09
4.85964e-08
1.28744e-09
4.85471e-08
1.27798e-09
4.84966e-08
1.26865e-09
4.84446e-08
1.25943e-09
4.83913e-08
1.25032e-09
4.83366e-08
1.24131e-09
4.82806e-08
1.23239e-09
4.82232e-08
1.22356e-09
4.81645e-08
1.21481e-09
4.81044e-08
1.20613e-09
4.80431e-08
1.19751e-09
4.79804e-08
1.18896e-09
4.79164e-08
1.18046e-09
4.78512e-08
1.17201e-09
4.77846e-08
1.1636e-09
4.77169e-08
1.15523e-09
4.76478e-08
1.14689e-09
4.75776e-08
1.13859e-09
4.75062e-08
1.13032e-09
4.74335e-08
1.12208e-09
4.73598e-08
1.11387e-09
4.72848e-08
1.10569e-09
4.72088e-08
1.09754e-09
4.71316e-08
1.08944e-09
4.70534e-08
1.08138e-09
4.69741e-08
1.07339e-09
4.68937e-08
1.06546e-09
4.68124e-08
1.05763e-09
4.673e-08
1.04991e-09
4.66466e-08
1.04234e-09
4.65623e-08
1.03495e-09
4.6477e-08
1.02781e-09
4.63909e-08
1.021e-09
4.63038e-08
1.01461e-09
4.62161e-08
1.00878e-09
4.6128e-08
1.00356e-09
4.60406e-08
9.9843e-10
4.59558e-08
9.90451e-10
9.6694e-10
4.98514e-08
1.87662e-09
-4.97658e-08
4.99582e-08
2.05474e-09
5.008e-08
2.21041e-09
5.02102e-08
2.33886e-09
5.03431e-08
2.43843e-09
5.04742e-08
2.50964e-09
5.05998e-08
2.55428e-09
5.07173e-08
2.57484e-09
5.08244e-08
2.57442e-09
5.09201e-08
2.55649e-09
5.10039e-08
2.52469e-09
5.10758e-08
2.48254e-09
5.11363e-08
2.43326e-09
5.11865e-08
2.3797e-09
5.12273e-08
2.32419e-09
5.12601e-08
2.2686e-09
5.12859e-08
2.21426e-09
5.13059e-08
2.16211e-09
5.13211e-08
2.1127e-09
5.13324e-08
2.06631e-09
5.13405e-08
2.02302e-09
5.1346e-08
1.98273e-09
5.13493e-08
1.94529e-09
5.13509e-08
1.91048e-09
5.1351e-08
1.87805e-09
5.13499e-08
1.84778e-09
5.13477e-08
1.81943e-09
5.13446e-08
1.79281e-09
5.13407e-08
1.76773e-09
5.1336e-08
1.74404e-09
5.13306e-08
1.72158e-09
5.13246e-08
1.70024e-09
5.1318e-08
1.67991e-09
5.13108e-08
1.66051e-09
5.1303e-08
1.64194e-09
5.12947e-08
1.62414e-09
5.12858e-08
1.60706e-09
5.12764e-08
1.59062e-09
5.12665e-08
1.57479e-09
5.1256e-08
1.55952e-09
5.12449e-08
1.54477e-09
5.12333e-08
1.5305e-09
5.12211e-08
1.5167e-09
5.12084e-08
1.50332e-09
5.1195e-08
1.49034e-09
5.1181e-08
1.47774e-09
5.11664e-08
1.4655e-09
5.11511e-08
1.4536e-09
5.11351e-08
1.44201e-09
5.11184e-08
1.43073e-09
5.11011e-08
1.41973e-09
5.1083e-08
1.409e-09
5.10641e-08
1.39853e-09
5.10445e-08
1.38831e-09
5.1024e-08
1.37832e-09
5.10028e-08
1.36855e-09
5.09807e-08
1.35899e-09
5.09578e-08
1.34963e-09
5.0934e-08
1.34046e-09
5.09093e-08
1.33146e-09
5.08837e-08
1.32263e-09
5.08572e-08
1.31397e-09
5.08297e-08
1.30545e-09
5.08013e-08
1.29707e-09
5.07719e-08
1.28883e-09
5.07415e-08
1.2807e-09
5.07101e-08
1.27269e-09
5.06777e-08
1.26479e-09
5.06443e-08
1.25698e-09
5.06098e-08
1.24927e-09
5.05743e-08
1.24163e-09
5.05378e-08
1.23407e-09
5.05002e-08
1.22658e-09
5.04615e-08
1.21914e-09
5.04217e-08
1.21177e-09
5.03809e-08
1.20444e-09
5.03389e-08
1.19715e-09
5.02959e-08
1.18991e-09
5.02518e-08
1.18269e-09
5.02066e-08
1.17552e-09
5.01603e-08
1.16837e-09
5.0113e-08
1.16125e-09
5.00645e-08
1.15417e-09
5.00149e-08
1.14712e-09
4.99643e-08
1.1401e-09
4.99125e-08
1.13314e-09
4.98596e-08
1.12623e-09
4.98057e-08
1.1194e-09
4.97507e-08
1.11265e-09
4.96946e-08
1.10602e-09
4.96374e-08
1.09953e-09
4.95791e-08
1.09322e-09
4.95198e-08
1.08715e-09
4.94594e-08
1.08138e-09
4.9398e-08
1.07598e-09
4.93358e-08
1.071e-09
4.92731e-08
1.0663e-09
4.92104e-08
1.06106e-09
4.91486e-08
1.05225e-09
1.02989e-09
5.17524e-08
1.79696e-09
-5.16727e-08
5.18502e-08
1.95695e-09
5.19615e-08
2.09911e-09
5.2081e-08
2.2193e-09
5.2204e-08
2.31544e-09
5.23263e-08
2.38731e-09
5.24447e-08
2.43595e-09
5.25564e-08
2.46317e-09
5.26594e-08
2.47138e-09
5.27525e-08
2.46337e-09
5.28351e-08
2.44214e-09
5.2907e-08
2.41065e-09
5.29685e-08
2.37172e-09
5.30204e-08
2.32782e-09
5.30635e-08
2.28111e-09
5.30988e-08
2.23329e-09
5.31273e-08
2.18571e-09
5.31501e-08
2.13932e-09
5.3168e-08
2.09476e-09
5.31819e-08
2.0524e-09
5.31925e-08
2.01243e-09
5.32004e-08
1.97488e-09
5.3206e-08
1.93968e-09
5.32098e-08
1.90671e-09
5.3212e-08
1.87581e-09
5.3213e-08
1.84681e-09
5.32129e-08
1.81953e-09
5.32119e-08
1.79382e-09
5.32101e-08
1.76951e-09
5.32076e-08
1.74648e-09
5.32046e-08
1.72461e-09
5.32011e-08
1.70378e-09
5.31971e-08
1.68391e-09
5.31927e-08
1.66491e-09
5.31879e-08
1.64672e-09
5.31828e-08
1.62926e-09
5.31773e-08
1.61249e-09
5.31716e-08
1.59635e-09
5.31656e-08
1.58079e-09
5.31593e-08
1.56579e-09
5.31528e-08
1.5513e-09
5.3146e-08
1.5373e-09
5.3139e-08
1.52375e-09
5.31316e-08
1.51063e-09
5.31241e-08
1.49792e-09
5.31162e-08
1.48558e-09
5.31081e-08
1.47362e-09
5.30997e-08
1.462e-09
5.3091e-08
1.45071e-09
5.3082e-08
1.43973e-09
5.30727e-08
1.42905e-09
5.3063e-08
1.41866e-09
5.3053e-08
1.40854e-09
5.30426e-08
1.39869e-09
5.30319e-08
1.38908e-09
5.30207e-08
1.37971e-09
5.30091e-08
1.37057e-09
5.29971e-08
1.36164e-09
5.29847e-08
1.35293e-09
5.29717e-08
1.3444e-09
5.29583e-08
1.33607e-09
5.29443e-08
1.32791e-09
5.29299e-08
1.31993e-09
5.29148e-08
1.3121e-09
5.28992e-08
1.30442e-09
5.28831e-08
1.29688e-09
5.28663e-08
1.28948e-09
5.28489e-08
1.2822e-09
5.28308e-08
1.27503e-09
5.28121e-08
1.26798e-09
5.27927e-08
1.26102e-09
5.27726e-08
1.25416e-09
5.27518e-08
1.24737e-09
5.27303e-08
1.24067e-09
5.2708e-08
1.23404e-09
5.2685e-08
1.22747e-09
5.26612e-08
1.22096e-09
5.26366e-08
1.2145e-09
5.26112e-08
1.2081e-09
5.2585e-08
1.20174e-09
5.25579e-08
1.19543e-09
5.253e-08
1.18916e-09
5.25012e-08
1.18294e-09
5.24716e-08
1.17676e-09
5.2441e-08
1.17064e-09
5.24096e-08
1.16457e-09
5.23773e-08
1.15858e-09
5.2344e-08
1.15267e-09
5.23098e-08
1.14687e-09
5.22746e-08
1.14118e-09
5.22385e-08
1.13566e-09
5.22014e-08
1.13032e-09
5.21633e-08
1.12523e-09
5.21243e-08
1.12042e-09
5.20843e-08
1.11593e-09
5.20436e-08
1.11176e-09
5.20022e-08
1.10765e-09
5.19605e-08
1.10271e-09
5.19184e-08
1.09436e-09
1.07587e-09
5.3716e-08
1.72237e-09
-5.36414e-08
5.3806e-08
1.86689e-09
5.39081e-08
1.99706e-09
5.4018e-08
2.10937e-09
5.41318e-08
2.20168e-09
5.42458e-08
2.27332e-09
5.43569e-08
2.32477e-09
5.44628e-08
2.35729e-09
5.45615e-08
2.3727e-09
5.46517e-08
2.3732e-09
5.47326e-08
2.36124e-09
5.48039e-08
2.33929e-09
5.48659e-08
2.30974e-09
5.4919e-08
2.27477e-09
5.49638e-08
2.23631e-09
5.50011e-08
2.19593e-09
5.50319e-08
2.15491e-09
5.5057e-08
2.1142e-09
5.50773e-08
2.0745e-09
5.50934e-08
2.03626e-09
5.51061e-08
1.99974e-09
5.51159e-08
1.96506e-09
5.51234e-08
1.93226e-09
5.51288e-08
1.90128e-09
5.51326e-08