/*--------------------------------*- C++ -*----------------------------------*\
| =========                 |                                                 |
| \\      /  F ield         | OpenFOAM: The Open Source CFD Toolbox           |
|  \\    /   O peration     | Version:  2.3.0                                 |
|   \\  /    A nd           | Web:      www.OpenFOAM.org                      |
|    \\/     M anipulation  |                                                 |
\*---------------------------------------------------------------------------*/
FoamFile
{
    version     2.0;
    format      ascii;
    class       surfaceScalarField;
    location    "0.75";
    object      phi_0;
}
// * * * * * * * * * * * * * * * * * * * * * * * * * * * * * * * * * * * * * //

dimensions      [0 3 -1 0 0 0 0];

internalField   nonuniform List<scalar> 
5644
(
2.86514e-08
2.77208e-09
-3.14235e-08
2.58102e-08
2.8412e-09
2.31195e-08
2.69067e-09
2.06324e-08
2.48719e-09
1.83665e-08
2.26583e-09
1.63335e-08
2.03307e-09
1.45368e-08
1.79662e-09
1.29725e-08
1.56429e-09
1.16297e-08
1.34281e-09
1.04921e-08
1.13766e-09
9.53912e-09
9.52948e-10
8.74795e-09
7.91168e-10
8.09477e-09
6.53184e-10
7.55639e-09
5.38376e-10
7.11143e-09
4.44963e-10
6.74102e-09
3.70403e-10
6.42924e-09
3.11787e-10
6.16306e-09
2.66176e-10
5.93222e-09
2.30844e-10
5.7288e-09
2.03419e-10
5.54686e-09
1.81943e-10
5.38199e-09
1.64871e-10
5.23096e-09
1.51024e-10
5.09143e-09
1.39534e-10
4.96165e-09
1.29776e-10
4.84034e-09
1.21313e-10
4.7265e-09
1.13839e-10
4.61935e-09
1.07148e-10
4.51826e-09
1.01094e-10
4.42268e-09
9.55766e-11
4.33216e-09
9.05218e-11
4.24628e-09
8.58743e-11
4.16469e-09
8.15899e-11
4.08706e-09
7.7632e-11
4.01309e-09
7.3969e-11
3.94252e-09
7.05733e-11
3.8751e-09
6.74201e-11
3.81061e-09
6.44871e-11
3.74886e-09
6.17544e-11
3.68965e-09
5.92039e-11
3.63284e-09
5.68194e-11
3.57825e-09
5.45864e-11
3.52576e-09
5.24919e-11
3.47523e-09
5.05243e-11
3.42656e-09
4.8673e-11
3.37963e-09
4.69289e-11
3.33435e-09
4.52833e-11
3.29062e-09
4.37289e-11
3.24836e-09
4.22587e-11
3.20749e-09
4.08668e-11
3.16795e-09
3.95474e-11
3.12965e-09
3.82955e-11
3.09254e-09
3.71066e-11
3.05657e-09
3.59764e-11
3.02167e-09
3.4901e-11
2.98779e-09
3.38769e-11
2.95489e-09
3.2901e-11
2.92292e-09
3.19701e-11
2.89184e-09
3.10815e-11
2.8616e-09
3.02326e-11
2.83218e-09
2.94211e-11
2.80354e-09
2.86448e-11
2.77564e-09
2.79016e-11
2.74845e-09
2.71896e-11
2.72194e-09
2.65071e-11
2.69609e-09
2.58524e-11
2.67086e-09
2.52241e-11
2.64624e-09
2.46206e-11
2.6222e-09
2.40406e-11
2.59872e-09
2.34831e-11
2.57577e-09
2.29467e-11
2.55334e-09
2.24304e-11
2.53141e-09
2.19334e-11
2.50995e-09
2.14546e-11
2.48896e-09
2.09933e-11
2.46841e-09
2.05487e-11
2.44829e-09
2.01202e-11
2.42858e-09
1.97071e-11
2.40928e-09
1.93089e-11
2.39035e-09
1.89251e-11
2.3718e-09
1.85554e-11
2.3536e-09
1.81995e-11
2.33574e-09
1.7857e-11
2.31821e-09
1.75279e-11
2.301e-09
1.72121e-11
2.28409e-09
1.69096e-11
2.26747e-09
1.66207e-11
2.25112e-09
1.63455e-11
2.23504e-09
1.60847e-11
2.2192e-09
1.58389e-11
2.20359e-09
1.56094e-11
2.18819e-09
1.53979e-11
2.17298e-09
1.52074e-11
2.15794e-09
1.50432e-11
2.14303e-09
1.49162e-11
2.12817e-09
1.48512e-11
2.11326e-09
1.49168e-11
2.098e-09
1.52536e-11
2.08173e-09
1.62725e-11
4.75158e-11
3.44035e-08
3.04358e-09
-3.4675e-08
3.38386e-08
3.40604e-09
3.30302e-08
3.49907e-09
3.2059e-08
3.45845e-09
3.09824e-08
3.34238e-09
2.9846e-08
3.16947e-09
2.86871e-08
2.95556e-09
2.75346e-08
2.71678e-09
2.64102e-08
2.46725e-09
2.53291e-08
2.21871e-09
2.43016e-08
1.98047e-09
2.33334e-08
1.75931e-09
2.24271e-08
1.55948e-09
2.15827e-08
1.38285e-09
2.07982e-08
1.22942e-09
2.00708e-08
1.09782e-09
1.93967e-08
9.85835e-10
1.87721e-08
8.90868e-10
1.81926e-08
8.10279e-10
1.76544e-08
7.41608e-10
1.71537e-08
6.82694e-10
1.66868e-08
6.3172e-10
1.62506e-08
5.87204e-10
1.58422e-08
5.47966e-10
1.54589e-08
5.13077e-10
1.50984e-08
4.81817e-10
1.47586e-08
4.5362e-10
1.44377e-08
4.28044e-10
1.41341e-08
4.04739e-10
1.38462e-08
3.8342e-10
1.35729e-08
3.63855e-10
1.33129e-08
3.45848e-10
1.30653e-08
3.29233e-10
1.28291e-08
3.13868e-10
1.26034e-08
2.99627e-10
1.23876e-08
2.864e-10
1.21809e-08
2.74092e-10
1.19828e-08
2.62617e-10
1.17926e-08
2.51898e-10
1.161e-08
2.41867e-10
1.14343e-08
2.32464e-10
1.12653e-08
2.23636e-10
1.11024e-08
2.15335e-10
1.09454e-08
2.07516e-10
1.0794e-08
2.00143e-10
1.06477e-08
1.93179e-10
1.05064e-08
1.86595e-10
1.03698e-08
1.80363e-10
1.02376e-08
1.74455e-10
1.01096e-08
1.68851e-10
9.98561e-09
1.63529e-10
9.86544e-09
1.58469e-10
9.74889e-09
1.53655e-10
9.63579e-09
1.4907e-10
9.52599e-09
1.447e-10
9.41934e-09
1.40532e-10
9.31569e-09
1.36553e-10
9.21491e-09
1.32751e-10
9.11687e-09
1.29116e-10
9.02147e-09
1.25638e-10
8.92858e-09
1.22308e-10
8.83811e-09
1.19117e-10
8.74995e-09
1.16058e-10
8.66402e-09
1.13123e-10
8.58022e-09
1.10305e-10
8.49848e-09
1.07598e-10
8.4187e-09
1.04996e-10
8.34083e-09
1.02493e-10
8.26479e-09
1.00084e-10
8.19051e-09
9.77641e-11
8.11792e-09
9.55289e-11
8.04698e-09
9.3374e-11
7.97762e-09
9.12955e-11
7.90978e-09
8.92898e-11
7.84342e-09
8.73535e-11
7.77849e-09
8.54835e-11
7.71493e-09
8.3677e-11
7.65271e-09
8.19314e-11
7.59177e-09
8.02443e-11
7.53208e-09
7.86136e-11
7.4736e-09
7.70377e-11
7.41629e-09
7.55149e-11
7.3601e-09
7.40441e-11
7.305e-09
7.26243e-11
7.25096e-09
7.12549e-11
7.19793e-09
6.99357e-11
7.14589e-09
6.86669e-11
7.09478e-09
6.74492e-11
7.04458e-09
6.62839e-11
6.99525e-09
6.51733e-11
6.94674e-09
6.41209e-11
6.899e-09
6.31323e-11
6.85199e-09
6.22169e-11
6.80565e-09
6.13919e-11
6.75987e-09
6.06921e-11
6.71452e-09
6.0199e-11
6.66931e-09
6.01244e-11
6.62353e-09
6.10346e-11
6.57165e-09
6.81597e-11
1.21687e-10
3.65062e-08
2.89631e-09
-3.6359e-08
3.65903e-08
3.32198e-09
3.65503e-08
3.53907e-09
3.63857e-08
3.62307e-09
3.61079e-08
3.62019e-09
3.57306e-08
3.54668e-09
3.52707e-08
3.41548e-09
3.47457e-08
3.24183e-09
3.41722e-08
3.04074e-09
3.35653e-08
2.82557e-09
3.29381e-08
2.60768e-09
3.23014e-08
2.39608e-09
3.16636e-08
2.19724e-09
3.10313e-08
2.0151e-09
3.04093e-08
1.85145e-09
2.98008e-08
1.70638e-09
2.92078e-08
1.57883e-09
2.86316e-08
1.46708e-09
2.80727e-08
1.36909e-09
2.75315e-08
1.28284e-09
2.70078e-08
1.20644e-09
2.65012e-08
1.13824e-09
2.60116e-08
1.07688e-09
2.55383e-08
1.02124e-09
2.50809e-08
9.70428e-10
2.4639e-08
9.23735e-10
2.4212e-08
8.80611e-10
2.37995e-08
8.40616e-10
2.34008e-08
8.03397e-10
2.30155e-08
7.68669e-10
2.26432e-08
7.36191e-10
2.22833e-08
7.05763e-10
2.19353e-08
6.77209e-10
2.15988e-08
6.50377e-10
2.12733e-08
6.25129e-10
2.09584e-08
6.01343e-10
2.06535e-08
5.78909e-10
2.03584e-08
5.57727e-10
2.00726e-08
5.37704e-10
1.97957e-08
5.18759e-10
1.95274e-08
5.00815e-10
1.92672e-08
4.83802e-10
1.90149e-08
4.67658e-10
1.87701e-08
4.52324e-10
1.85325e-08
4.37746e-10
1.83018e-08
4.23876e-10
1.80777e-08
4.10669e-10
1.786e-08
3.98083e-10
1.76484e-08
3.8608e-10
1.74426e-08
3.74625e-10
1.72424e-08
3.63685e-10
1.70477e-08
3.53231e-10
1.68581e-08
3.43233e-10
1.66735e-08
3.33666e-10
1.64937e-08
3.24505e-10
1.63185e-08
3.15729e-10
1.61477e-08
3.07315e-10
1.59812e-08
2.99244e-10
1.58189e-08
2.91498e-10
1.56604e-08
2.84059e-10
1.55058e-08
2.76912e-10
1.53549e-08
2.7004e-10
1.52075e-08
2.6343e-10
1.50636e-08
2.57067e-10
1.4923e-08
2.5094e-10
1.47855e-08
2.45037e-10
1.46512e-08
2.39345e-10
1.45198e-08
2.33856e-10
1.43913e-08
2.28558e-10
1.42657e-08
2.23442e-10
1.41427e-08
2.185e-10
1.40223e-08
2.13723e-10
1.39045e-08
2.09104e-10
1.37892e-08
2.04635e-10
1.36762e-08
2.0031e-10
1.35656e-08
1.96122e-10
1.34572e-08
1.92066e-10
1.3351e-08
1.88136e-10
1.32469e-08
1.84327e-10
1.31449e-08
1.80636e-10
1.30449e-08
1.77058e-10
1.29468e-08
1.7359e-10
1.28506e-08
1.7023e-10
1.27563e-08
1.66974e-10
1.26637e-08
1.63822e-10
1.25729e-08
1.60774e-10
1.24837e-08
1.57828e-10
1.23962e-08
1.54986e-10
1.23102e-08
1.5225e-10
1.22257e-08
1.49625e-10
1.21428e-08
1.47116e-10
1.20611e-08
1.44735e-10
1.19809e-08
1.42499e-10
1.19018e-08
1.4044e-10
1.18239e-08
1.38626e-10
1.17469e-08
1.37211e-10
1.16704e-08
1.3661e-10
1.15932e-08
1.38192e-10
1.15103e-08
1.51135e-10
2.10284e-10
3.80858e-08
2.70731e-09
-3.78968e-08
3.82946e-08
3.11316e-09
3.84693e-08
3.36437e-09
3.85901e-08
3.50225e-09
3.86502e-08
3.56013e-09
3.86454e-08
3.55144e-09
3.85755e-08
3.4854e-09
3.84438e-08
3.37358e-09
3.82559e-08
3.22857e-09
3.80192e-08
3.06232e-09
3.77413e-08
2.88553e-09
3.74302e-08
2.70719e-09
3.70932e-08
2.53429e-09
3.67366e-08
2.37163e-09
3.63661e-08
2.22201e-09
3.59859e-08
2.08658e-09
3.55995e-08
1.96522e-09
3.52095e-08
1.85702e-09
3.4818e-08
1.76063e-09
3.44264e-08
1.6745e-09
3.40357e-08
1.59713e-09
3.36468e-08
1.52714e-09
3.32603e-08
1.46333e-09
3.28768e-08
1.40471e-09
3.24968e-08
1.35048e-09
3.21205e-08
1.29999e-09
3.17484e-08
1.25273e-09
3.13807e-08
1.20831e-09
3.10177e-08
1.16641e-09
3.06596e-08
1.12677e-09
3.03066e-08
1.08919e-09
2.99589e-08
1.0535e-09
2.96165e-08
1.01954e-09
2.92797e-08
9.87189e-10
2.89485e-08
9.56341e-10
2.8623e-08
9.26893e-10
2.83031e-08
8.98756e-10
2.7989e-08
8.7185e-10
2.76806e-08
8.46101e-10
2.73779e-08
8.21441e-10
2.70809e-08
7.97809e-10
2.67896e-08
7.75147e-10
2.65038e-08
7.53404e-10
2.62236e-08
7.32531e-10
2.59489e-08
7.12482e-10
2.56796e-08
6.93216e-10
2.54155e-08
6.74694e-10
2.51567e-08
6.56879e-10
2.49031e-08
6.39738e-10
2.46545e-08
6.23239e-10
2.44108e-08
6.0735e-10
2.4172e-08
5.92045e-10
2.39379e-08
5.77297e-10
2.37085e-08
5.63079e-10
2.34836e-08
5.49369e-10
2.32632e-08
5.36144e-10
2.30472e-08
5.23381e-10
2.28353e-08
5.11061e-10
2.26277e-08
4.99164e-10
2.24241e-08
4.87672e-10
2.22244e-08
4.76566e-10
2.20286e-08
4.6583e-10
2.18366e-08
4.55448e-10
2.16483e-08
4.45404e-10
2.14635e-08
4.35684e-10
2.12823e-08
4.26273e-10
2.11045e-08
4.17158e-10
2.093e-08
4.08327e-10
2.07588e-08
3.99767e-10
2.05908e-08
3.91466e-10
2.04259e-08
3.83413e-10
2.0264e-08
3.75599e-10
2.01051e-08
3.68013e-10
1.99491e-08
3.60645e-10
1.97959e-08
3.53487e-10
1.96455e-08
3.46531e-10
1.94978e-08
3.39768e-10
1.93527e-08
3.33193e-10
1.92102e-08
3.26797e-10
1.90703e-08
3.20576e-10
1.89328e-08
3.14524e-10
1.87978e-08
3.08637e-10
1.86651e-08
3.0291e-10
1.85347e-08
2.97341e-10
1.84066e-08
2.91929e-10
1.82807e-08
2.86671e-10
1.8157e-08
2.81569e-10
1.80354e-08
2.76623e-10
1.79158e-08
2.71839e-10
1.77982e-08
2.67222e-10
1.76825e-08
2.62783e-10
1.75687e-08
2.58537e-10
1.74567e-08
2.54512e-10
1.73464e-08
2.50758e-10
1.72376e-08
2.47376e-10
1.71302e-08
2.446e-10
1.70238e-08
2.43061e-10
1.69171e-08
2.44909e-10
1.6808e-08
2.60192e-10
3.12961e-10
3.96248e-08
2.53877e-09
-3.94562e-08
3.98327e-08
2.9052e-09
4.00412e-08
3.15586e-09
4.02319e-08
3.31164e-09
4.0396e-08
3.39594e-09
4.05268e-08
3.42066e-09
4.06188e-08
3.39341e-09
4.06693e-08
3.32314e-09
4.06778e-08
3.22002e-09
4.06461e-08
3.09406e-09
4.05771e-08
2.95449e-09
4.04749e-08
2.80935e-09
4.03441e-08
2.66516e-09
4.0189e-08
2.52674e-09
4.00138e-08
2.3972e-09
3.98222e-08
2.2782e-09
3.96171e-08
2.17024e-09
3.94012e-08
2.07299e-09
3.91762e-08
1.9856e-09
3.89437e-08
1.90697e-09
3.87049e-08
1.83594e-09
3.84607e-08
1.77136e-09
3.82118e-08
1.71223e-09
3.79588e-08
1.65767e-09
3.77024e-08
1.60696e-09
3.74428e-08
1.55952e-09
3.71807e-08
1.51487e-09
3.69164e-08
1.47264e-09
3.66502e-08
1.43254e-09
3.63827e-08
1.39434e-09
3.6114e-08
1.35783e-09
3.58446e-08
1.32288e-09
3.55748e-08
1.28935e-09
3.53049e-08
1.25713e-09
3.50351e-08
1.22612e-09
3.47657e-08
1.19626e-09
3.4497e-08
1.16746e-09
3.42292e-08
1.13966e-09
3.39625e-08
1.11281e-09
3.36971e-08
1.08685e-09
3.34332e-08
1.06174e-09
3.31709e-08
1.03744e-09
3.29104e-08
1.01391e-09
3.26518e-08
9.91106e-10
3.23953e-08
9.69009e-10
3.21409e-08
9.47583e-10
3.18888e-08
9.26802e-10
3.16391e-08
9.06641e-10
3.13917e-08
8.87075e-10
3.11469e-08
8.68082e-10
3.09046e-08
8.49641e-10
3.06649e-08
8.31733e-10
3.04279e-08
8.14338e-10
3.01935e-08
7.97438e-10
2.99619e-08
7.81017e-10
2.97329e-08
7.65057e-10
2.95068e-08
7.49543e-10
2.92834e-08
7.3446e-10
2.90628e-08
7.19792e-10
2.88449e-08
7.05526e-10
2.86298e-08
6.91648e-10
2.84175e-08
6.78144e-10
2.82079e-08
6.65002e-10
2.80011e-08
6.52208e-10
2.77971e-08
6.39751e-10
2.75957e-08
6.27619e-10
2.73971e-08
6.158e-10
2.72011e-08
6.04283e-10
2.70078e-08
5.93057e-10
2.68172e-08
5.82113e-10
2.66292e-08
5.71439e-10
2.64437e-08
5.61027e-10
2.62609e-08
5.50867e-10
2.60806e-08
5.40951e-10
2.59028e-08
5.31269e-10
2.57275e-08
5.21815e-10
2.55547e-08
5.12581e-10
2.53843e-08
5.03559e-10
2.52164e-08
4.94745e-10
2.50508e-08
4.86131e-10
2.48876e-08
4.77714e-10
2.47268e-08
4.69489e-10
2.45682e-08
4.61453e-10
2.4412e-08
4.53604e-10
2.4258e-08
4.45941e-10
2.41062e-08
4.38463e-10
2.39566e-08
4.31172e-10
2.38091e-08
4.24073e-10
2.36638e-08
4.17172e-10
2.35205e-08
4.10477e-10
2.33793e-08
4.04004e-10
2.32401e-08
3.97776e-10
2.31028e-08
3.9183e-10
2.29673e-08
3.86233e-10
2.28335e-08
3.81119e-10
2.27014e-08
3.7679e-10
2.25704e-08
3.74038e-10
2.24399e-08
3.75341e-10
2.23109e-08
3.89223e-10
4.27725e-10
4.11998e-08
2.39397e-09
-4.1055e-08
4.13858e-08
2.71918e-09
4.15841e-08
2.95757e-09
4.17787e-08
3.11711e-09
4.19615e-08
3.2131e-09
4.21266e-08
3.25556e-09
4.22687e-08
3.2513e-09
4.23841e-08
3.20771e-09
4.2471e-08
3.13321e-09
4.25287e-08
3.03627e-09
4.25584e-08
2.92484e-09
4.25618e-08
2.80594e-09
4.25415e-08
2.68544e-09
4.25004e-08
2.56783e-09
4.24414e-08
2.45626e-09
4.2367e-08
2.35258e-09
4.22796e-08
2.25762e-09
4.21811e-08
2.17146e-09
4.20731e-08
2.09362e-09
4.19567e-08
2.02335e-09
4.18329e-08
1.95975e-09
4.17024e-08
1.9019e-09
4.15657e-08
1.84896e-09
4.14232e-08
1.80016e-09
4.12753e-08
1.75485e-09
4.11223e-08
1.71249e-09
4.09646e-08
1.67264e-09
4.08023e-08
1.63495e-09
4.06357e-08
1.59912e-09
4.04651e-08
1.56494e-09
4.02907e-08
1.53221e-09
4.01128e-08
1.50078e-09
3.99316e-08
1.47053e-09
3.97474e-08
1.44135e-09
3.95603e-08
1.41316e-09
3.93707e-08
1.38587e-09
3.91787e-08
1.35943e-09
3.89846e-08
1.33377e-09
3.87886e-08
1.30885e-09
3.85908e-08
1.28462e-09
3.83915e-08
1.26104e-09
3.81909e-08
1.23809e-09
3.79891e-08
1.21571e-09
3.77863e-08
1.1939e-09
3.75827e-08
1.17262e-09
3.73784e-08
1.15185e-09
3.71736e-08
1.13158e-09
3.69685e-08
1.11178e-09
3.67631e-08
1.09244e-09
3.65576e-08
1.07353e-09
3.63522e-08
1.05506e-09
3.6147e-08
1.03699e-09
3.5942e-08
1.01933e-09
3.57374e-08
1.00206e-09
3.55332e-08
9.85165e-10
3.53296e-08
9.68638e-10
3.51267e-08
9.52467e-10
3.49245e-08
9.36643e-10
3.47232e-08
9.21156e-10
3.45227e-08
9.05997e-10
3.43232e-08
8.91157e-10
3.41247e-08
8.76627e-10
3.39273e-08
8.62397e-10
3.3731e-08
8.4846e-10
3.3536e-08
8.34807e-10
3.33422e-08
8.2143e-10
3.31497e-08
8.08321e-10
3.29585e-08
7.95472e-10
3.27686e-08
7.82875e-10
3.25802e-08
7.70522e-10
3.23933e-08
7.58407e-10
3.22078e-08
7.46522e-10
3.20238e-08
7.3486e-10
3.18413e-08
7.23416e-10
3.16604e-08
7.12181e-10
3.14811e-08
7.01152e-10
3.13033e-08
6.90322e-10
3.11272e-08
6.79686e-10
3.09527e-08
6.6924e-10
3.07799e-08
6.5898e-10
3.06087e-08
6.48903e-10
3.04391e-08
6.39007e-10
3.02713e-08
6.2929e-10
3.01052e-08
6.19752e-10
2.99407e-08
6.10394e-10
2.9778e-08
6.01218e-10
2.96169e-08
5.92229e-10
2.94575e-08
5.83433e-10
2.92999e-08
5.74841e-10
2.91439e-08
5.66465e-10
2.89896e-08
5.58327e-10
2.88369e-08
5.50455e-10
2.86858e-08
5.42897e-10
2.85363e-08
5.35735e-10
2.83883e-08
5.29126e-10
2.82417e-08
5.23412e-10
2.80963e-08
5.19427e-10
2.79522e-08
5.19429e-10
2.78123e-08
5.29116e-10
5.49587e-10
4.28234e-08
2.26784e-09
-4.26973e-08
4.29877e-08
2.55495e-09
4.31683e-08
2.77696e-09
4.33511e-08
2.93431e-09
4.35283e-08
3.03586e-09
4.36946e-08
3.0893e-09
4.38453e-08
3.10055e-09
4.39772e-08
3.07585e-09
4.40882e-08
3.02224e-09
4.41775e-08
2.94698e-09
4.42453e-08
2.85697e-09
4.42929e-08
2.75838e-09
4.43219e-08
2.65647e-09
4.43343e-08
2.55542e-09
4.43323e-08
2.45825e-09
4.43179e-08
2.36692e-09
4.42931e-08
2.28247e-09
4.42593e-08
2.20527e-09
4.42178e-08
2.13514e-09
4.41695e-08
2.0716e-09
4.41152e-08
2.014e-09
4.40555e-08
1.96163e-09
4.39907e-08
1.91376e-09
4.39211e-08
1.86976e-09
4.38469e-08
1.82905e-09
4.37683e-08
1.79114e-09
4.36853e-08
1.7556e-09
4.35981e-08
1.72211e-09
4.35069e-08
1.69039e-09
4.34116e-08
1.6602e-09
4.33124e-08
1.63137e-09
4.32095e-08
1.60372e-09
4.31029e-08
1.57715e-09
4.29927e-08
1.55154e-09
4.28791e-08
1.52679e-09
4.27621e-08
1.50284e-09
4.26419e-08
1.47961e-09
4.25186e-08
1.45705e-09
4.23924e-08
1.4351e-09
4.22633e-08
1.41372e-09
4.21315e-08
1.39288e-09
4.1997e-08
1.37253e-09
4.18601e-08
1.35264e-09
4.17208e-08
1.3332e-09
4.15792e-08
1.31417e-09
4.14356e-08
1.29553e-09
4.12899e-08
1.27727e-09
4.11423e-08
1.25937e-09
4.09929e-08
1.24182e-09
4.08418e-08
1.22459e-09
4.06892e-08
1.20768e-09
4.05351e-08
1.19108e-09
4.03797e-08
1.17478e-09
4.0223e-08
1.15876e-09
4.00651e-08
1.14302e-09
3.99062e-08
1.12755e-09
3.97464e-08
1.11234e-09
3.95856e-08
1.09738e-09
3.94241e-08
1.08268e-09
3.92619e-08
1.06821e-09
3.90991e-08
1.05397e-09
3.89357e-08
1.03997e-09
3.87719e-08
1.02618e-09
3.86078e-08
1.01261e-09
3.84434e-08
9.99246e-10
3.82787e-08
9.86085e-10
3.81139e-08
9.73121e-10
3.7949e-08
9.60349e-10
3.77841e-08
9.47761e-10
3.76193e-08
9.35354e-10
3.74546e-08
9.23121e-10
3.72901e-08
9.11058e-10
3.71258e-08
8.9916e-10
3.69617e-08
8.87422e-10
3.67981e-08
8.7584e-10
3.66348e-08
8.6441e-10
3.6472e-08
8.53128e-10
3.63097e-08
8.41991e-10
3.6148e-08
8.30996e-10
3.59868e-08
8.20142e-10
3.58263e-08
8.09427e-10
3.56664e-08
7.98851e-10
3.55073e-08
7.88414e-10
3.53489e-08
7.78119e-10
3.51914e-08
7.67969e-10
3.50346e-08
7.57969e-10
3.48787e-08
7.48125e-10
3.47237e-08
7.38448e-10
3.45696e-08
7.28951e-10
3.44164e-08
7.19652e-10
3.42642e-08
7.10577e-10
3.41129e-08
7.01761e-10
3.39625e-08
6.93259e-10
3.38131e-08
6.85164e-10
3.36645e-08
6.77642e-10
3.35169e-08
6.71032e-10
3.33703e-08
6.66072e-10
3.32253e-08
6.64389e-10
3.30859e-08
6.68538e-10
6.71263e-10
4.44985e-08
2.15583e-09
-4.43865e-08
4.46442e-08
2.40928e-09
4.48074e-08
2.61371e-09
4.4976e-08
2.76574e-09
4.51423e-08
2.86955e-09
4.53011e-08
2.9305e-09
4.54482e-08
2.95344e-09
4.55805e-08
2.94355e-09
4.5696e-08
2.9067e-09
4.5794e-08
2.84905e-09
4.58743e-08
2.77659e-09
4.5938e-08
2.69475e-09
4.59862e-08
2.60825e-09
4.60207e-08
2.52093e-09
4.60433e-08
2.43568e-09
4.60557e-08
2.3545e-09
4.60596e-08
2.2786e-09
4.60563e-08
2.20854e-09
4.6047e-08
2.14441e-09
4.60326e-08
2.08596e-09
4.60139e-08
2.03278e-09
4.59912e-08
1.98431e-09
4.59649e-08
1.94001e-09
4.59354e-08
1.89932e-09
4.59027e-08
1.86177e-09
4.58669e-08
1.8269e-09
4.58282e-08
1.79435e-09
4.57865e-08
1.7638e-09
4.57419e-08
1.73499e-09
4.56944e-08
1.7077e-09
4.5644e-08
1.68174e-09
4.55908e-08
1.65696e-09
4.55347e-08
1.63322e-09
4.54758e-08
1.61043e-09
4.54141e-08
1.58848e-09
4.53497e-08
1.56729e-09
4.52825e-08
1.5468e-09
4.52126e-08
1.52694e-09
4.514e-08
1.50766e-09
4.50648e-08
1.48892e-09
4.4987e-08
1.47066e-09
4.49067e-08
1.45286e-09
4.48239e-08
1.43549e-09
4.47386e-08
1.4185e-09
4.46508e-08
1.40188e-09
4.45608e-08
1.38561e-09
4.44684e-08
1.36966e-09
4.43738e-08
1.35401e-09
4.42769e-08
1.33865e-09
4.41779e-08
1.32357e-09
4.40769e-08
1.30875e-09
4.39738e-08
1.29417e-09
4.38687e-08
1.27983e-09
4.37618e-08
1.26572e-09
4.3653e-08
1.25183e-09
4.35424e-08
1.23815e-09
4.343e-08
1.22466e-09
4.3316e-08
1.21137e-09
4.32005e-08
1.19827e-09
4.30833e-08
1.18534e-09
4.29647e-08
1.17258e-09
4.28447e-08
1.16e-09
4.27233e-08
1.14756e-09
4.26006e-08
1.13529e-09
4.24767e-08
1.12316e-09
4.23516e-08
1.11117e-09
4.22254e-08
1.09932e-09
4.20982e-08
1.0876e-09
4.19699e-08
1.076e-09
4.18408e-08
1.06453e-09
4.17107e-08
1.05317e-09
4.15799e-08
1.04192e-09
4.14482e-08
1.03078e-09
4.13159e-08
1.01974e-09
4.1183e-08
1.0088e-09
4.10494e-08
9.97962e-10
4.09153e-08
9.87213e-10
4.07808e-08
9.76554e-10
4.06458e-08
9.65984e-10
4.05104e-08
9.55502e-10
4.03747e-08
9.45107e-10
4.02388e-08
9.34801e-10
4.01026e-08
9.24585e-10
3.99663e-08
9.14462e-10
3.98298e-08
9.04438e-10
3.96932e-08
8.94519e-10
3.95566e-08
8.84715e-10
3.94201e-08
8.75037e-10
3.92835e-08
8.65503e-10
3.9147e-08
8.56132e-10
3.90106e-08
8.46955e-10
3.88744e-08
8.38012e-10
3.87383e-08
8.29363e-10
3.86024e-08
8.21101e-10
3.84666e-08
8.13389e-10
3.83311e-08
8.06516e-10
3.81962e-08
8.0102e-10
3.80628e-08
7.9772e-10
3.79349e-08
7.96448e-10
7.84993e-10
4.62268e-08
2.0547e-09
-4.61256e-08
4.6357e-08
2.27903e-09
4.65046e-08
2.46609e-09
4.66594e-08
2.61099e-09
4.68141e-08
2.71484e-09
4.69637e-08
2.78093e-09
4.71041e-08
2.81302e-09
4.72324e-08
2.81529e-09
4.73465e-08
2.79256e-09
4.74455e-08
2.75001e-09
4.75293e-08
2.69277e-09
4.75985e-08
2.62558e-09
4.76541e-08
2.55265e-09
4.76976e-08
2.47749e-09
4.77304e-08
2.40283e-09
4.77542e-08
2.33066e-09
4.77705e-08
2.26229e-09
4.77806e-08
2.19845e-09
4.77856e-08
2.13943e-09
4.77864e-08
2.08519e-09
4.77837e-08
2.0355e-09
4.7778e-08
1.98999e-09
4.77697e-08
1.94825e-09
4.77592e-08
1.90985e-09
4.77466e-08
1.87437e-09
4.7732e-08
1.84146e-09
4.77156e-08
1.81079e-09
4.76974e-08
1.78206e-09
4.76773e-08
1.75504e-09
4.76555e-08
1.72953e-09
4.76319e-08
1.70534e-09
4.76065e-08
1.68234e-09
4.75793e-08
1.66039e-09
4.75504e-08
1.63938e-09
4.75196e-08
1.61924e-09
4.7487e-08
1.59987e-09
4.74526e-08
1.5812e-09
4.74164e-08
1.56317e-09
4.73783e-08
1.54574e-09
4.73384e-08
1.52885e-09
4.72966e-08
1.51245e-09
4.7253e-08
1.49651e-09
4.72074e-08
1.481e-09
4.71601e-08
1.46589e-09
4.71108e-08
1.45114e-09
4.70597e-08
1.43673e-09
4.70067e-08
1.42265e-09
4.69518e-08
1.40886e-09
4.68951e-08
1.39536e-09
4.68366e-08
1.38213e-09
4.67762e-08
1.36914e-09
4.67139e-08
1.35639e-09
4.66499e-08
1.34387e-09
4.65841e-08
1.33156e-09
4.65165e-08
1.31945e-09
4.64471e-08
1.30753e-09
4.6376e-08
1.29579e-09
4.63031e-08
1.28422e-09
4.62286e-08
1.27281e-09
4.61523e-08
1.26156e-09
4.60745e-08
1.25046e-09
4.5995e-08
1.23949e-09
4.59139e-08
1.22866e-09
4.58312e-08
1.21795e-09
4.5747e-08
1.20735e-09
4.56613e-08
1.19687e-09
4.55742e-08
1.18649e-09
4.54855e-08
1.17621e-09
4.53955e-08
1.16602e-09
4.53041e-08
1.15592e-09
4.52114e-08
1.1459e-09
4.51174e-08
1.13595e-09
4.50221e-08
1.12608e-09
4.49255e-08
1.11626e-09
4.48278e-08
1.10651e-09
4.4729e-08
1.09682e-09
4.4629e-08
1.08718e-09
4.4528e-08
1.07759e-09
4.44259e-08
1.06805e-09
4.43228e-08
1.05856e-09
4.42188e-08
1.04912e-09
4.41139e-08
1.03972e-09
4.40081e-08
1.03037e-09
4.39015e-08
1.02108e-09
4.37941e-08
1.01185e-09
4.36859e-08
1.00269e-09
4.3577e-08
9.93601e-10
4.34675e-08
9.84606e-10
4.33573e-08
9.7572e-10
4.32464e-08
9.66966e-10
4.3135e-08
9.58375e-10
4.3023e-08
9.4999e-10
4.29105e-08
9.41872e-10
4.27975e-08
9.34109e-10
4.26841e-08
9.26841e-10
4.25703e-08
9.20281e-10
4.24566e-08
9.14716e-10
4.23441e-08
9.10205e-10
4.22358e-08
9.04711e-10
8.84456e-10
4.80103e-08
1.96216e-09
-4.79178e-08
4.81278e-08
2.16155e-09
4.82616e-08
2.33223e-09
4.84036e-08
2.46906e-09
4.85471e-08
2.57133e-09
4.86873e-08
2.64073e-09
4.88204e-08
2.67994e-09
4.89434e-08
2.69226e-09
4.90543e-08
2.68159e-09
4.91522e-08
2.6522e-09
4.92365e-08
2.60844e-09
4.93077e-08
2.55441e-09
4.93665e-08
2.49382e-09
4.94141e-08
2.42985e-09
4.94519e-08
2.36504e-09
4.94813e-08
2.30133e-09
4.95035e-08
2.24007e-09
4.95198e-08
2.18212e-09
4.95313e-08
2.12791e-09
4.95389e-08
2.0776e-09
4.95433e-08
2.0311e-09
4.95451e-08
1.9882e-09
4.95447e-08
1.94863e-09
4.95425e-08
1.91206e-09
4.95387e-08
1.87817e-09
4.95335e-08
1.84666e-09
4.95271e-08
1.81725e-09
4.95194e-08
1.7897e-09
4.95107e-08
1.76379e-09
4.95009e-08
1.73934e-09
4.949e-08
1.7162e-09
4.94781e-08
1.69422e-09
4.94653e-08
1.67328e-09
4.94513e-08
1.65329e-09
4.94364e-08
1.63416e-09
4.94205e-08
1.61581e-09
4.94035e-08
1.59817e-09
4.93855e-08
1.5812e-09
4.93664e-08
1.56482e-09
4.93462e-08
1.549e-09
4.9325e-08
1.5337e-09
4.93026e-08
1.51887e-09
4.92792e-08
1.50449e-09
4.92545e-08
1.49052e-09
4.92287e-08
1.47694e-09
4.92017e-08
1.46372e-09
4.91736e-08
1.45083e-09
4.91441e-08
1.43827e-09
4.91135e-08
1.42601e-09
4.90816e-08
1.41403e-09
4.90484e-08
1.40231e-09
4.9014e-08
1.39085e-09
4.89782e-08
1.37962e-09
4.89412e-08
1.36862e-09
4.89028e-08
1.35783e-09
4.88631e-08
1.34724e-09
4.8822e-08
1.33684e-09
4.87796e-08
1.32662e-09
4.87359e-08
1.31657e-09
4.86908e-08
1.30668e-09
4.86443e-08
1.29693e-09
4.85964e-08
1.28733e-09
4.85472e-08
1.27787e-09
4.84966e-08
1.26852e-09
4.84447e-08
1.2593e-09
4.83914e-08
1.25018e-09
4.83367e-08
1.24116e-09
4.82807e-08
1.23223e-09
4.82233e-08
1.22339e-09
4.81646e-08
1.21463e-09
4.81046e-08
1.20593e-09
4.80432e-08
1.19731e-09
4.79806e-08
1.18874e-09
4.79166e-08
1.18022e-09
4.78514e-08
1.17175e-09
4.77849e-08
1.16333e-09
4.77171e-08
1.15494e-09
4.76481e-08
1.14659e-09
4.75779e-08
1.13827e-09
4.75065e-08
1.12997e-09
4.74339e-08
1.12171e-09
4.73601e-08
1.11348e-09
4.72852e-08
1.10527e-09
4.72092e-08
1.0971e-09
4.71321e-08
1.08897e-09
4.70539e-08
1.08089e-09
4.69746e-08
1.07286e-09
4.68943e-08
1.06491e-09
4.6813e-08
1.05704e-09
4.67307e-08
1.04929e-09
4.66474e-08
1.04168e-09
4.65631e-08
1.03426e-09
4.64779e-08
1.02709e-09
4.63918e-08
1.02024e-09
4.63048e-08
1.01381e-09
4.62171e-08
1.00795e-09
4.61292e-08
1.00269e-09
4.60418e-08
9.97525e-10
4.5957e-08
9.89516e-10
9.65995e-10
4.98514e-08
1.87662e-09
-4.97658e-08
4.99582e-08
2.05474e-09
5.008e-08
2.21041e-09
5.02102e-08
2.33886e-09
5.03431e-08
2.43842e-09
5.04742e-08
2.50964e-09
5.05998e-08
2.55428e-09
5.07173e-08
2.57484e-09
5.08244e-08
2.57442e-09
5.09201e-08
2.55649e-09
5.10039e-08
2.52469e-09
5.10758e-08
2.48253e-09
5.11363e-08
2.43326e-09
5.11865e-08
2.37969e-09
5.12273e-08
2.32419e-09
5.12601e-08
2.26859e-09
5.12859e-08
2.21426e-09
5.13059e-08
2.1621e-09
5.13211e-08
2.1127e-09
5.13324e-08
2.06631e-09
5.13405e-08
2.02301e-09
5.1346e-08
1.98273e-09
5.13493e-08
1.94529e-09
5.13509e-08
1.91047e-09
5.1351e-08
1.87804e-09
5.13499e-08
1.84777e-09
5.13477e-08
1.81942e-09
5.13446e-08
1.7928e-09
5.13407e-08
1.76772e-09
5.1336e-08
1.74403e-09
5.13306e-08
1.72157e-09
5.13246e-08
1.70023e-09
5.1318e-08
1.6799e-09
5.13108e-08
1.66049e-09
5.1303e-08
1.64193e-09
5.12947e-08
1.62413e-09
5.12858e-08
1.60704e-09
5.12764e-08
1.5906e-09
5.12665e-08
1.57477e-09
5.1256e-08
1.55949e-09
5.12449e-08
1.54474e-09
5.12333e-08
1.53048e-09
5.12212e-08
1.51667e-09
5.12084e-08
1.50329e-09
5.1195e-08
1.49031e-09
5.1181e-08
1.47771e-09
5.11664e-08
1.46547e-09
5.11511e-08
1.45356e-09
5.11351e-08
1.44197e-09
5.11185e-08
1.43068e-09
5.11011e-08
1.41968e-09
5.1083e-08
1.40895e-09
5.10641e-08
1.39848e-09
5.10445e-08
1.38825e-09
5.10241e-08
1.37825e-09
5.10028e-08
1.36848e-09
5.09808e-08
1.35891e-09
5.09578e-08
1.34955e-09
5.0934e-08
1.34037e-09
5.09094e-08
1.33137e-09
5.08838e-08
1.32253e-09
5.08572e-08
1.31386e-09
5.08298e-08
1.30533e-09
5.08014e-08
1.29695e-09
5.0772e-08
1.28869e-09
5.07416e-08
1.28056e-09
5.07102e-08
1.27254e-09
5.06778e-08
1.26462e-09
5.06444e-08
1.2568e-09
5.06099e-08
1.24908e-09
5.05745e-08
1.24143e-09
5.05379e-08
1.23385e-09
5.05003e-08
1.22634e-09
5.04616e-08
1.2189e-09
5.04219e-08
1.2115e-09
5.0381e-08
1.20416e-09
5.03391e-08
1.19685e-09
5.02961e-08
1.18958e-09
5.02521e-08
1.18235e-09
5.02069e-08
1.17515e-09
5.01606e-08
1.16798e-09
5.01132e-08
1.16084e-09
5.00648e-08
1.15373e-09
5.00152e-08
1.14665e-09
4.99646e-08
1.13961e-09
4.99129e-08
1.13262e-09
4.98601e-08
1.12568e-09
4.98061e-08
1.11881e-09
4.97512e-08
1.11203e-09
4.96951e-08
1.10536e-09
4.96379e-08
1.09884e-09
4.95797e-08
1.0925e-09
4.95204e-08
1.08639e-09
4.94601e-08
1.08058e-09
4.93987e-08
1.07514e-09
4.93366e-08
1.07012e-09
4.92739e-08
1.06537e-09
4.92113e-08
1.0601e-09
4.91495e-08
1.05126e-09
1.02889e-09
5.17524e-08
1.79695e-09
-5.16727e-08
5.18502e-08
1.95694e-09
5.19615e-08
2.09911e-09
5.2081e-08
2.2193e-09
5.2204e-08
2.31544e-09
5.23263e-08
2.38731e-09
5.24447e-08
2.43595e-09
5.25564e-08
2.46317e-09
5.26594e-08
2.47138e-09
5.27525e-08
2.46337e-09
5.28351e-08
2.44214e-09
5.2907e-08
2.41065e-09
5.29685e-08
2.37171e-09
5.30204e-08
2.32782e-09
5.30635e-08
2.2811e-09
5.30988e-08
2.23329e-09
5.31273e-08
2.18571e-09
5.31501e-08
2.13932e-09
5.3168e-08
2.09475e-09
5.3182e-08
2.0524e-09
5.31925e-08
2.01242e-09
5.32004e-08
1.97487e-09
5.3206e-08
1.93967e-09
5.32098e-08
1.9067e-09
5.3212e-08
1.87581e-09
5.3213e-08
1.8468e-09
5.32129e-08
1.81952e-09
5.32119e-08
1.79381e-09
5.32101e-08
1.7695e-09
5.32077e-08
1.74647e-09
5.32046e-08
1.7246e-09
5.32011e-08
1.70377e-09
5.31971e-08
1.6839e-09
5.31927e-08
1.6649e-09
5.31879e-08
1.6467e-09
5.31828e-08
1.62924e-09
5.31774e-08
1.61247e-09
5.31716e-08
1.59633e-09
5.31656e-08
1.58077e-09
5.31594e-08
1.56577e-09
5.31528e-08
1.55128e-09
5.3146e-08
1.53727e-09
5.3139e-08
1.52372e-09
5.31317e-08
1.5106e-09
5.31241e-08
1.49788e-09
5.31163e-08
1.48555e-09
5.31081e-08
1.47358e-09
5.30997e-08
1.46196e-09
5.3091e-08
1.45066e-09
5.3082e-08
1.43968e-09
5.30727e-08
1.429e-09
5.30631e-08
1.41861e-09
5.30531e-08
1.40849e-09
5.30427e-08
1.39862e-09
5.30319e-08
1.38901e-09
5.30208e-08
1.37964e-09
5.30092e-08
1.37049e-09
5.29972e-08
1.36156e-09
5.29847e-08
1.35283e-09
5.29718e-08
1.34431e-09
5.29583e-08
1.33596e-09
5.29444e-08
1.3278e-09
5.29299e-08
1.3198e-09
5.29149e-08
1.31197e-09
5.28993e-08
1.30428e-09
5.28831e-08
1.29673e-09
5.28663e-08
1.28932e-09
5.28489e-08
1.28203e-09
5.28309e-08
1.27485e-09
5.28122e-08
1.26778e-09
5.27928e-08
1.26081e-09
5.27727e-08
1.25393e-09
5.27519e-08
1.24714e-09
5.27304e-08
1.24042e-09
5.27082e-08
1.23376e-09
5.26851e-08
1.22718e-09
5.26613e-08
1.22065e-09
5.26367e-08
1.21417e-09
5.26113e-08
1.20775e-09
5.25851e-08
1.20137e-09
5.25581e-08
1.19503e-09
5.25302e-08
1.18873e-09
5.25014e-08
1.18248e-09
5.24718e-08
1.17628e-09
5.24413e-08
1.17013e-09
5.24099e-08
1.16403e-09
5.23775e-08
1.15801e-09
5.23443e-08
1.15207e-09
5.23101e-08
1.14623e-09
5.22749e-08
1.14051e-09
5.22388e-08
1.13494e-09
5.22018e-08
1.12957e-09
5.21637e-08
1.12444e-09
5.21247e-08
1.11959e-09
5.20848e-08
1.11506e-09
5.20441e-08
1.11084e-09
5.20027e-08
1.10669e-09
5.19611e-08
1.10172e-09
5.1919e-08
1.09334e-09
1.07483e-09
5.3716e-08
1.72237e-09
-5.36414e-08
5.3806e-08
1.86689e-09
5.39081e-08
1.99706e-09
5.4018e-08
2.10937e-09
5.41318e-08
2.20168e-09
5.42458e-08
2.27332e-09
5.43569e-08
2.32477e-09
5.44628e-08
2.35729e-09
5.45615e-08
2.3727e-09
5.46517e-08
2.3732e-09
5.47326e-08
2.36124e-09
5.48039e-08
2.33928e-09
5.48659e-08
2.30973e-09
5.4919e-08
2.27477e-09
5.49638e-08
2.2363e-09
5.50011e-08
2.19592e-09
5.50319e-08
2.1549e-09
5.5057e-08
2.1142e-09
5.50773e-08
2.0745e-09
5.50934e-08
2.03625e-09
5.51061e-08
1.99973e-09
5.51159e-08
1.96505e-09
5.51234e-08
1.93225e-09
5.51288e-08
1.90127e-09