/*--------------------------------*- C++ -*----------------------------------*\
| =========                 |                                                 |
| \\      /  F ield         | OpenFOAM: The Open Source CFD Toolbox           |
|  \\    /   O peration     | Version:  2.3.0                                 |
|   \\  /    A nd           | Web:      www.OpenFOAM.org                      |
|    \\/     M anipulation  |                                                 |
\*---------------------------------------------------------------------------*/
FoamFile
{
    version     2.0;
    format      ascii;
    class       volVectorField;
    location    "0.75";
    object      U;
}
// * * * * * * * * * * * * * * * * * * * * * * * * * * * * * * * * * * * * * //

dimensions      [0 1 -1 0 0 0 0];

internalField   nonuniform List<vector> 
2889
(
(0.173575 0.00566418 0)
(0.156962 0.00590268 0)
(0.141231 0.00557703 0)
(0.126263 0.00501884 0)
(0.112434 0.00438005 0)
(0.0999634 0.00372369 0)
(0.0888931 0.00308812 0)
(0.0791952 0.00250013 0)
(0.0708165 0.00197665 0)
(0.0636771 0.00152663 0)
(0.0576693 0.00115272 0)
(0.0526645 0.000852295 0)
(0.0485248 0.00061873 0)
(0.0451125 0.00044284 0)
(0.0422976 0.000314421 0)
(0.0399637 0.000223472 0)
(0.0380102 0.000160989 0)
(0.0363541 0.000119363 0)
(0.0349286 9.24732e-05 0)
(0.0336818 7.56026e-05 0)
(0.0325743 6.52613e-05 0)
(0.0315765 5.89721e-05 0)
(0.0306668 5.50541e-05 0)
(0.0298296 5.24217e-05 0)
(0.029053 5.04138e-05 0)
(0.0283287 4.86569e-05 0)
(0.0276502 4.6961e-05 0)
(0.0270123 4.52469e-05 0)
(0.0264112 4.34964e-05 0)
(0.0258433 4.1721e-05 0)
(0.0253059 3.99438e-05 0)
(0.0247965 3.81889e-05 0)
(0.0243129 3.6477e-05 0)
(0.023853 3.48238e-05 0)
(0.0234151 3.32397e-05 0)
(0.0229976 3.17304e-05 0)
(0.0225989 3.02985e-05 0)
(0.0222178 2.89439e-05 0)
(0.0218531 2.76647e-05 0)
(0.0215037 2.6458e-05 0)
(0.0211684 2.53203e-05 0)
(0.0208465 2.42475e-05 0)
(0.0205371 2.32359e-05 0)
(0.0202395 2.22815e-05 0)
(0.0199528 2.13806e-05 0)
(0.0196765 2.05296e-05 0)
(0.0194101 1.97253e-05 0)
(0.0191528 1.89645e-05 0)
(0.0189043 1.82444e-05 0)
(0.0186641 1.75623e-05 0)
(0.0184317 1.69157e-05 0)
(0.0182067 1.63024e-05 0)
(0.0179888 1.57203e-05 0)
(0.0177775 1.51674e-05 0)
(0.0175727 1.46419e-05 0)
(0.0173739 1.41421e-05 0)
(0.0171809 1.36664e-05 0)
(0.0169934 1.32134e-05 0)
(0.0168111 1.27817e-05 0)
(0.0166339 1.23702e-05 0)
(0.0164614 1.19775e-05 0)
(0.0162936 1.16027e-05 0)
(0.0161301 1.12447e-05 0)
(0.0159709 1.09025e-05 0)
(0.0158156 1.05753e-05 0)
(0.0156643 1.02623e-05 0)
(0.0155166 9.96276e-06 0)
(0.0153725 9.67586e-06 0)
(0.0152318 9.40101e-06 0)
(0.0150944 9.13765e-06 0)
(0.0149602 8.88511e-06 0)
(0.014829 8.64297e-06 0)
(0.0147007 8.4107e-06 0)
(0.0145753 8.18788e-06 0)
(0.0144525 7.9741e-06 0)
(0.0143324 7.769e-06 0)
(0.0142148 7.57225e-06 0)
(0.0140996 7.38356e-06 0)
(0.0139868 7.20267e-06 0)
(0.0138762 7.02934e-06 0)
(0.0137679 6.86339e-06 0)
(0.0136616 6.70466e-06 0)
(0.0135573 6.55305e-06 0)
(0.0134549 6.40845e-06 0)
(0.0133545 6.27082e-06 0)
(0.0132558 6.14017e-06 0)
(0.0131588 6.01657e-06 0)
(0.0130634 5.90014e-06 0)
(0.0129696 5.79107e-06 0)
(0.0128773 5.68971e-06 0)
(0.0127863 5.59659e-06 0)
(0.0126966 5.51254e-06 0)
(0.0126081 5.43902e-06 0)
(0.0125206 5.37876e-06 0)
(0.012434 5.33718e-06 0)
(0.0123479 5.32673e-06 0)
(0.012262 5.38433e-06 0)
(0.0121744 5.53213e-06 0)
(0.0120995 5.07125e-06 0)
(0.0118606 3.34024e-05 0)
(0.192743 0.00906226 0)
(0.190446 0.00979757 0)
(0.186687 0.00969146 0)
(0.181674 0.00923628 0)
(0.175863 0.00862734 0)
(0.169617 0.00792542 0)
(0.163172 0.00716823 0)
(0.156699 0.00639037 0)
(0.150329 0.00562159 0)
(0.144166 0.00488633 0)
(0.138279 0.00420382 0)
(0.132711 0.00358762 0)
(0.127485 0.00304538 0)
(0.122606 0.00257914 0)
(0.118068 0.00218629 0)
(0.113857 0.00186079 0)
(0.109955 0.00159454 0)
(0.106339 0.0013786 0)
(0.102988 0.00120411 0)
(0.0998769 0.00106293 0)
(0.0969855 0.000948044 0)
(0.0942927 0.000853633 0)
(0.0917796 0.000775064 0)
(0.089429 0.000708747 0)
(0.0872254 0.00065196 0)
(0.085155 0.000602672 0)
(0.0832057 0.000559377 0)
(0.0813664 0.00052096 0)
(0.0796276 0.000486589 0)
(0.0779807 0.000455633 0)
(0.0764181 0.000427604 0)
(0.074933 0.000402115 0)
(0.0735193 0.000378853 0)
(0.0721717 0.000357558 0)
(0.0708852 0.000338008 0)
(0.0696555 0.000320014 0)
(0.0684786 0.000303414 0)
(0.0673509 0.000288062 0)
(0.0662693 0.000273836 0)
(0.0652307 0.000260623 0)
(0.0642325 0.000248327 0)
(0.0632721 0.000236863 0)
(0.0623474 0.000226155 0)
(0.0614563 0.000216136 0)
(0.0605968 0.000206747 0)
(0.0597673 0.000197934 0)
(0.058966 0.000189651 0)
(0.0581915 0.000181855 0)
(0.0574424 0.000174509 0)
(0.0567174 0.000167579 0)
(0.0560152 0.000161033 0)
(0.0553349 0.000154845 0)
(0.0546752 0.000148988 0)
(0.0540352 0.000143439 0)
(0.053414 0.000138179 0)
(0.0528108 0.000133186 0)
(0.0522247 0.000128444 0)
(0.0516549 0.000123936 0)
(0.0511008 0.000119648 0)
(0.0505617 0.000115565 0)
(0.0500369 0.000111675 0)
(0.0495258 0.000107967 0)
(0.049028 0.000104428 0)
(0.0485427 0.000101049 0)
(0.0480696 9.7821e-05 0)
(0.0476082 9.47347e-05 0)
(0.047158 9.17822e-05 0)
(0.0467186 8.8956e-05 0)
(0.0462895 8.6249e-05 0)
(0.0458705 8.36549e-05 0)
(0.0454611 8.11674e-05 0)
(0.045061 7.87811e-05 0)
(0.0446698 7.64908e-05 0)
(0.0442873 7.42916e-05 0)
(0.0439132 7.2179e-05 0)
(0.0435472 7.01491e-05 0)
(0.0431889 6.8198e-05 0)
(0.0428383 6.63223e-05 0)
(0.0424949 6.45189e-05 0)
(0.0421585 6.27848e-05 0)
(0.041829 6.11175e-05 0)
(0.0415062 5.95149e-05 0)
(0.0411897 5.79749e-05 0)
(0.0408793 5.64959e-05 0)
(0.040575 5.50765e-05 0)
(0.0402764 5.37159e-05 0)
(0.0399834 5.24133e-05 0)
(0.0396957 5.11686e-05 0)
(0.0394132 4.99823e-05 0)
(0.0391356 4.88555e-05 0)
(0.0388627 4.77905e-05 0)
(0.0385942 4.67913e-05 0)
(0.0383299 4.58656e-05 0)
(0.0380696 4.50277e-05 0)
(0.0378127 4.43079e-05 0)
(0.0375586 4.37785e-05 0)
(0.0373064 4.36328e-05 0)
(0.0370526 4.43418e-05 0)
(0.0368141 4.95261e-05 0)
(0.0363318 0.000115911 0)
(0.195702 0.00869941 0)
(0.196503 0.00980729 0)
(0.196751 0.010244 0)
(0.196229 0.0102972 0)
(0.19501 0.0101089 0)
(0.193215 0.00972967 0)
(0.19094 0.00920189 0)
(0.188272 0.00857317 0)
(0.185299 0.00788866 0)
(0.182109 0.00718706 0)
(0.178777 0.00649966 0)
(0.175367 0.00584983 0)
(0.171932 0.00525294 0)
(0.16851 0.00471696 0)
(0.165133 0.00424379 0)
(0.161821 0.00383091 0)
(0.158589 0.00347302 0)
(0.155444 0.00316344 0)
(0.152392 0.00289519 0)
(0.149435 0.00266171 0)
(0.146572 0.00245718 0)
(0.143803 0.0022767 0)
(0.141126 0.00211626 0)
(0.138538 0.00197263 0)
(0.136037 0.00184324 0)
(0.133621 0.00172606 0)
(0.131286 0.00161947 0)
(0.12903 0.00152213 0)
(0.126851 0.00143298 0)
(0.124744 0.0013511 0)
(0.122709 0.00127575 0)
(0.120741 0.00120625 0)
(0.118839 0.00114203 0)
(0.117 0.00108258 0)
(0.115221 0.00102747 0)
(0.1135 0.000976278 0)
(0.111835 0.000928662 0)
(0.110223 0.000884298 0)
(0.108662 0.000842901 0)
(0.10715 0.000804215 0)
(0.105685 0.000768009 0)
(0.104265 0.000734076 0)
(0.102888 0.000702232 0)
(0.101552 0.000672308 0)
(0.100256 0.000644154 0)
(0.0989979 0.000617633 0)
(0.0977759 0.000592623 0)
(0.0965887 0.000569011 0)
(0.095435 0.000546696 0)
(0.0943134 0.000525586 0)
(0.0932226 0.000505596 0)
(0.0921614 0.000486651 0)
(0.0911286 0.00046868 0)
(0.0901231 0.000451618 0)
(0.0891439 0.000435405 0)
(0.0881899 0.000419989 0)
(0.0872602 0.000405318 0)
(0.0863538 0.000391345 0)
(0.08547 0.000378029 0)
(0.0846079 0.000365329 0)
(0.0837666 0.000353208 0)
(0.0829456 0.000341633 0)
(0.0821439 0.00033057 0)
(0.081361 0.000319992 0)
(0.0805961 0.00030987 0)
(0.0798488 0.000300179 0)
(0.0791183 0.000290894 0)
(0.0784041 0.000281994 0)
(0.0777058 0.000273457 0)
(0.0770227 0.000265265 0)
(0.0763543 0.000257398 0)
(0.0757003 0.000249841 0)
(0.0750602 0.000242577 0)
(0.0744335 0.000235592 0)
(0.0738198 0.000228872 0)
(0.0732187 0.000222404 0)
(0.07263 0.000216178 0)
(0.0720531 0.000210181 0)
(0.0714878 0.000204405 0)
(0.0709337 0.000198839 0)
(0.0703905 0.000193477 0)
(0.0698579 0.00018831 0)
(0.0693356 0.000183331 0)
(0.0688234 0.000178536 0)
(0.0683208 0.00017392 0)
(0.0678276 0.000169477 0)
(0.0673436 0.000165207 0)
(0.0668685 0.000161107 0)
(0.0664019 0.000157177 0)
(0.0659436 0.000153419 0)
(0.0654933 0.000149837 0)
(0.0650507 0.000146441 0)
(0.0646153 0.000143248 0)
(0.0641868 0.000140293 0)
(0.0637647 0.000137647 0)
(0.0633482 0.000135484 0)
(0.0629358 0.000134272 0)
(0.0625243 0.000135499 0)
(0.0621238 0.000150146 0)
(0.0614954 0.000232948 0)
(0.196728 0.00806341 0)
(0.197883 0.00920891 0)
(0.198984 0.00985102 0)
(0.199796 0.0101444 0)
(0.20027 0.0101937 0)
(0.200408 0.0100424 0)
(0.200211 0.00972534 0)
(0.199684 0.00928317 0)
(0.198848 0.00875711 0)
(0.197739 0.00818439 0)
(0.196395 0.00759679 0)
(0.19486 0.00701977 0)
(0.193171 0.0064719 0)
(0.191365 0.00596499 0)
(0.189474 0.00550491 0)
(0.187523 0.0050929 0)
(0.185531 0.00472691 0)
(0.183516 0.00440294 0)
(0.181487 0.00411604 0)
(0.179456 0.00386107 0)
(0.177426 0.00363318 0)
(0.175405 0.0034281 0)
(0.173395 0.00324217 0)
(0.171398 0.00307239 0)
(0.169419 0.00291634 0)
(0.167459 0.00277211 0)
(0.165519 0.00263817 0)
(0.163601 0.0025133 0)
(0.161707 0.00239653 0)
(0.159838 0.00228707 0)
(0.157995 0.00218427 0)
(0.156178 0.00208757 0)
(0.15439 0.00199648 0)
(0.15263 0.00191059 0)
(0.150898 0.00182951 0)
(0.149196 0.00175292 0)
(0.147524 0.0016805 0)
(0.145881 0.00161197 0)
(0.144267 0.00154707 0)
(0.142684 0.00148558 0)
(0.141129 0.00142727 0)
(0.139605 0.00137193 0)
(0.138109 0.00131939 0)
(0.136643 0.00126947 0)
(0.135204 0.00122201 0)
(0.133795 0.00117686 0)
(0.132412 0.00113389 0)
(0.131058 0.00109297 0)
(0.12973 0.00105397 0)
(0.128428 0.0010168 0)
(0.127152 0.00098134 0)
(0.125902 0.000947498 0)
(0.124677 0.000915184 0)
(0.123475 0.000884313 0)
(0.122298 0.000854808 0)
(0.121144 0.000826592 0)
(0.120013 0.000799597 0)
(0.118904 0.000773757 0)
(0.117817 0.000749012 0)
(0.116752 0.000725303 0)
(0.115707 0.000702576 0)
(0.114682 0.00068078 0)
(0.113677 0.000659867 0)
(0.112691 0.000639792 0)
(0.111724 0.000620512 0)
(0.110776 0.000601987 0)
(0.109845 0.000584179 0)
(0.108932 0.000567052 0)
(0.108036 0.000550574 0)
(0.107157 0.000534711 0)
(0.106294 0.000519435 0)
(0.105447 0.000504717 0)
(0.104616 0.000490531 0)
(0.1038 0.000476852 0)
(0.102998 0.000463658 0)
(0.102212 0.000450926 0)
(0.101439 0.000438635 0)
(0.10068 0.000426769 0)
(0.0999348 0.000415308 0)
(0.0992027 0.000404236 0)
(0.0984836 0.000393541 0)
(0.0977772 0.000383206 0)
(0.0970832 0.000373222 0)
(0.0964013 0.000363578 0)
(0.0957312 0.000354263 0)
(0.0950727 0.000345272 0)
(0.0944254 0.000336599 0)
(0.0937892 0.00032824 0)
(0.0931638 0.000320194 0)
(0.0925488 0.000312464 0)
(0.091944 0.000305056 0)
(0.0913489 0.000297986 0)
(0.0907634 0.000291282 0)
(0.0901869 0.000284999 0)
(0.0896189 0.000279258 0)
(0.0890586 0.000274344 0)
(0.0885046 0.000271033 0)
(0.0879543 0.000271974 0)
(0.0874148 0.000291387 0)
(0.0866828 0.00037099 0)
(0.197449 0.00755655 0)
(0.198471 0.00860717 0)
(0.199582 0.00927164 0)
(0.200617 0.00963775 0)
(0.201516 0.0097857 0)
(0.202257 0.00975499 0)
(0.202818 0.00957292 0)
(0.203177 0.00927021 0)
(0.203325 0.00887966 0)
(0.203265 0.00843239 0)
(0.203009 0.0079562 0)
(0.202576 0.00747453 0)
(0.201989 0.00700563 0)
(0.201268 0.00656227 0)
(0.200438 0.00615209 0)
(0.199516 0.00577842 0)
(0.198521 0.00544134 0)
(0.197466 0.00513879 0)
(0.196361 0.00486743 0)
(0.195216 0.00462344 0)
(0.194037 0.00440296 0)
(0.192828 0.00420245 0)
(0.191595 0.00401879 0)
(0.19034 0.0038494 0)
(0.189067 0.00369212 0)
(0.187776 0.00354526 0)
(0.186472 0.00340744 0)
(0.185156 0.0032776 0)
(0.18383 0.00315486 0)
(0.182496 0.00303853 0)
(0.181156 0.00292804 0)
(0.179811 0.00282292 0)
(0.178463 0.00272276 0)
(0.177114 0.00262721 0)
(0.175765 0.00253597 0)
(0.174417 0.00244876 0)
(0.173073 0.00236534 0)
(0.171732 0.00228549 0)
(0.170396 0.002209 0)
(0.169066 0.00213569 0)
(0.167743 0.00206539 0)
(0.166428 0.00199794 0)
(0.165121 0.0019332 0)
(0.163824 0.00187104 0)
(0.162537 0.00181133 0)
(0.16126 0.00175395 0)
(0.159994 0.0016988 0)
(0.15874 0.00164577 0)
(0.157498 0.00159478 0)
(0.156268 0.00154571 0)
(0.15505 0.0014985 0)
(0.153846 0.00145306 0)
(0.152655 0.00140931 0)
(0.151477 0.00136719 0)
(0.150312 0.00132661 0)
(0.149161 0.00128752 0)
(0.148024 0.00124986 0)
(0.146901 0.00121355 0)
(0.145791 0.00117854 0)
(0.144695 0.00114479 0)
(0.143613 0.00111223 0)
(0.142545 0.00108082 0)
(0.141491 0.0010505 0)
(0.140451 0.00102123 0)
(0.139424 0.000992967 0)
(0.138411 0.000965669 0)
(0.137411 0.000939293 0)
(0.136425 0.000913803 0)
(0.135452 0.000889159 0)
(0.134493 0.000865328 0)
(0.133547 0.000842275 0)
(0.132613 0.000819969 0)
(0.131693 0.000798379 0)
(0.130785 0.000777475 0)
(0.12989 0.000757231 0)
(0.129008 0.000737621 0)
(0.128138 0.00071862 0)
(0.12728 0.000700206 0)
(0.126435 0.000682356 0)
(0.125601 0.000665052 0)
(0.12478 0.000648275 0)
(0.12397 0.000632009 0)
(0.123171 0.000616238 0)
(0.122384 0.00060095 0)
(0.121609 0.000586133 0)
(0.120844 0.000571779 0)
(0.120091 0.000557881 0)
(0.119348 0.000544435 0)
(0.118616 0.00053144 0)
(0.117895 0.000518901 0)
(0.117184 0.00050683 0)
(0.116483 0.000495247 0)
(0.115791 0.000484192 0)
(0.115109 0.000473746 0)
(0.114436 0.000464074 0)
(0.113771 0.000455567 0)
(0.113114 0.000449271 0)
(0.112462 0.0004486 0)
(0.111825 0.000467013 0)
(0.111026 0.000529526 0)
(0.198051 0.00711092 0)
(0.198907 0.00804272 0)
(0.199879 0.00868149 0)
(0.200852 0.00907082 0)
(0.201774 0.00926661 0)
(0.202618 0.00930255 0)
(0.203363 0.00920193 0)
(0.203988 0.00898968 0)
(0.204478 0.00869289 0)
(0.204827 0.00833803 0)
(0.205037 0.00794913 0)
(0.205114 0.00754694 0)
(0.20507 0.00714816 0)
(0.204919 0.00676508 0)
(0.204674 0.0064057 0)
(0.204349 0.00607425 0)
(0.203956 0.00577205 0)
(0.203506 0.00549831 0)
(0.203006 0.0052509 0)
(0.202464 0.00502704 0)
(0.201884 0.00482372 0)
(0.20127 0.00463804 0)
(0.200625 0.00446736 0)
(0.199952 0.00430941 0)
(0.199252 0.00416228 0)
(0.198526 0.00402441 0)
(0.197777 0.00389453 0)
(0.197006 0.00377162 0)
(0.196213 0.00365488 0)
(0.1954 0.00354364 0)
(0.194569 0.00343738 0)
(0.19372 0.00333564 0)
(0.192854 0.00323807 0)
(0.191974 0.00314436 0)
(0.191079 0.00305422 0)
(0.190171 0.00296744 0)
(0.189251 0.0028838 0)
(0.188321 0.00280313 0)
(0.187381 0.00272526 0)
(0.186431 0.00265003 0)
(0.185475 0.00257733 0)
(0.184511 0.00250703 0)
(0.183541 0.00243902 0)
(0.182566 0.0023732 0)
(0.181586 0.00230947 0)
(0.180603 0.00224775 0)
(0.179618 0.00218797 0)
(0.17863 0.00213004 0)
(0.177641 0.00207389 0)
(0.176651 0.00201947 0)
(0.175661 0.00196671 0)
(0.174671 0.00191554 0)
(0.173682 0.00186593 0)
(0.172695 0.0018178 0)
(0.17171 0.00177111 0)
(0.170728 0.00172582 0)
(0.169748 0.00168187 0)
(0.168772 0.00163922 0)
(0.1678 0.00159782 0)
(0.166831 0.00155764 0)
(0.165868 0.00151864 0)
(0.164909 0.00148076 0)
(0.163955 0.00144398 0)
(0.163006 0.00140826 0)
(0.162063 0.00137356 0)
(0.161126 0.00133984 0)
(0.160195 0.00130708 0)
(0.159271 0.00127525 0)
(0.158352 0.0012443 0)
(0.157441 0.00121421 0)
(0.156536 0.00118495 0)
(0.155639 0.00115649 0)
(0.154749 0.00112881 0)
(0.153865 0.00110187 0)
(0.15299 0.00107566 0)
(0.152122 0.00105015 0)
(0.151261 0.00102532 0)
(0.150408 0.00100114 0)
(0.149563 0.000977607 0)
(0.148726 0.000954689 0)
(0.147897 0.000932373 0)
(0.147076 0.000910644 0)
(0.146263 0.000889489 0)
(0.145458 0.000868896 0)
(0.144661 0.000848856 0)
(0.143872 0.000829361 0)
(0.143092 0.000810408 0)
(0.14232 0.000791995 0)
(0.141555 0.000774126 0)
(0.140799 0.00075681 0)
(0.140051 0.000740063 0)
(0.139311 0.000723917 0)
(0.138579 0.000708426 0)
(0.137854 0.00069369 0)
(0.137137 0.000679916 0)
(0.136427 0.000667568 0)
(0.135723 0.000657834 0)
(0.135026 0.000654165 0)
(0.134347 0.000666723 0)
(0.133531 0.000704054 0)
(0.198565 0.00672155 0)
(0.199285 0.00754273 0)
(0.200117 0.00814225 0)
(0.200981 0.0085349 0)
(0.201828 0.00875579 0)
(0.202633 0.00883192 0)
(0.203374 0.00878386 0)
(0.204035 0.00863291 0)
(0.204602 0.00840215 0)
(0.205068 0.00811447 0)
(0.205433 0.00779089 0)
(0.2057 0.00744975 0)
(0.205875 0.00710613 0)
(0.205969 0.00677151 0)
(0.205991 0.00645381 0)
(0.20595 0.0061577 0)
(0.205857 0.00588527 0)
(0.205718 0.00563664 0)
(0.205542 0.00541061 0)
(0.205332 0.00520521 0)
(0.205093 0.00501814 0)
(0.204827 0.00484702 0)
(0.204537 0.00468963 0)
(0.204225 0.00454397 0)
(0.20389 0.00440832 0)
(0.203535 0.00428124 0)
(0.203159 0.00416155 0)
(0.202764 0.00404826 0)
(0.202349 0.00394059 0)
(0.201916 0.00383789 0)
(0.201464 0.00373963 0)
(0.200994 0.00364538 0)
(0.200507 0.00355479 0)
(0.200003 0.00346753 0)
(0.199483 0.00338336 0)
(0.198947 0.00330204 0)
(0.198396 0.00322338 0)
(0.197831 0.00314722 0)
(0.197251 0.00307339 0)
(0.196657 0.00300177 0)
(0.196051 0.00293224 0)
(0.195432 0.00286469 0)
(0.194802 0.00279903 0)
(0.19416 0.00273516 0)
(0.193507 0.00267301 0)
(0.192845 0.00261252 0)
(0.192172 0.00255361 0)
(0.191491 0.00249622 0)
(0.190801 0.00244031 0)
(0.190103 0.00238582 0)
(0.189397 0.0023327 0)
(0.188684 0.00228091 0)
(0.187965 0.00223041 0)
(0.18724 0.00218115 0)
(0.186509 0.00213311 0)
(0.185773 0.00208624 0)
(0.185032 0.00204051 0)
(0.184287 0.0019959 0)
(0.183539 0.00195235 0)
(0.182787 0.00190985 0)
(0.182031 0.00186837 0)
(0.181274 0.00182788 0)
(0.180513 0.00178834 0)
(0.179752 0.00174973 0)
(0.178988 0.00171203 0)
(0.178223 0.00167521 0)
(0.177458 0.00163924 0)
(0.176692 0.00160411 0)
(0.175926 0.00156978 0)
(0.17516 0.00153623 0)
(0.174394 0.00150344 0)
(0.173629 0.00147139 0)
(0.172865 0.00144006 0)
(0.172102 0.00140942 0)
(0.17134 0.00137947 0)
(0.170581 0.00135018 0)
(0.169823 0.00132153 0)
(0.169068 0.00129351 0)
(0.168315 0.0012661 0)
(0.167564 0.00123929 0)
(0.166817 0.00121306 0)
(0.166072 0.00118742 0)
(0.165331 0.00116234 0)
(0.164593 0.00113782 0)
(0.163859 0.00111385 0)
(0.163128 0.00109044 0)
(0.162402 0.00106758 0)
(0.161679 0.00104528 0)
(0.160961 0.00102355 0)
(0.160246 0.0010024 0)
(0.159536 0.000981856 0)
(0.158831 0.000961964 0)
(0.15813 0.000942789 0)
(0.157433 0.00092445 0)
(0.15674 0.000907176 0)
(0.156052 0.000891457 0)
(0.155368 0.000878433 0)
(0.15469 0.000870904 0)
(0.154031 0.000874658 0)
(0.153252 0.00088452 0)
(0.199003 0.00637923 0)
(0.199618 0.00710182 0)
(0.20033 0.00765581 0)
(0.201087 0.00803988 0)
(0.201847 0.00827367 0)
(0.202582 0.00837737 0)
(0.203272 0.00836845 0)
(0.203902 0.00826493 0)
(0.204459 0.00808636 0)
(0.204939 0.00785242 0)
(0.205338 0.0075815 0)
(0.20566 0.00728987 0)
(0.205909 0.00699116 0)
(0.206092 0.00669607 0)
(0.206218 0.00641233 0)
(0.206294 0.00614488 0)
(0.206329 0.00589638 0)
(0.206328 0.00566767 0)
(0.206299 0.00545833 0)
(0.206245 0.00526709 0)
(0.206169 0.00509227 0)
(0.206076 0.00493202 0)
(0.205966 0.00478448 0)
(0.20584 0.00464796 0)
(0.205701 0.00452093 0)
(0.205547 0.0044021 0)
(0.20538 0.00429037 0)
(0.2052 0.00418479 0)
(0.205007 0.00408462 0)
(0.2048 0.00398923 0)
(0.204581 0.00389808 0)
(0.204349 0.00381073 0)
(0.204104 0.00372683 0)
(0.203846 0.00364605 0)
(0.203576 0.00356814 0)
(0.203294 0.00349286 0)
(0.202999 0.00342001 0)
(0.202692 0.00334941 0)
(0.202373 0.00328092 0)
(0.202042 0.00321439 0)
(0.201699 0.00314971 0)
(0.201345 0.00308677 0)
(0.200979 0.00302546 0)
(0.200602 0.00296572 0)
(0.200215 0.00290746 0)
(0.199816 0.0028506 0)
(0.199408 0.0027951 0)
(0.198989 0.00274089 0)
(0.19856 0.00268792 0)
(0.198121 0.00263614 0)
(0.197673 0.00258551 0)
(0.197216 0.002536 0)
(0.196749 0.00248755 0)
(0.196274 0.00244014 0)
(0.195791 0.00239374 0)
(0.195299 0.00234832 0)
(0.1948 0.00230384 0)
(0.194293 0.00226027 0)
(0.193779 0.0022176 0)
(0.193257 0.00217579 0)
(0.192729 0.00213483 0)
(0.192195 0.00209469 0)
(0.191654 0.00205534 0)
(0.191107 0.00201676 0)
(0.190554 0.00197894 0)
(0.189997 0.00194185 0)
(0.189434 0.00190547 0)
(0.188866 0.00186978 0)
(0.188293 0.00183477 0)
(0.187717 0.00180042 0)
(0.187136 0.0017667 0)
(0.186551 0.00173361 0)
(0.185963 0.00170112 0)
(0.185372 0.00166923 0)
(0.184778 0.00163791 0)
(0.18418 0.00160715 0)
(0.183581 0.00157695 0)
(0.182979 0.00154728 0)
(0.182375 0.00151814 0)
(0.181769 0.00148952 0)
(0.181162 0.00146141 0)
(0.180553 0.00143381 0)
(0.179943 0.00140671 0)
(0.179333 0.0013801 0)
(0.178721 0.00135399 0)
(0.17811 0.00132839 0)
(0.177498 0.00130329 0)
(0.176885 0.00127871 0)
(0.176273 0.00125466 0)
(0.175661 0.00123117 0)
(0.17505 0.00120827 0)
(0.174439 0.00118601 0)
(0.173828 0.00116447 0)
(0.173219 0.00114377 0)
(0.17261 0.00112415 0)
(0.172002 0.00110606 0)
(0.171395 0.00109042 0)
(0.170793 0.00107895 0)
(0.170208 0.0010732 0)
(0.169518 0.00105859 0)
(0.199374 0.00607255 0)
(0.199906 0.00670884 0)
(0.20052 0.00721584 0)
(0.201182 0.00758451 0)
(0.201859 0.00782385 0)
(0.202523 0.00794769 0)
(0.203154 0.00797001 0)
(0.203737 0.00790575 0)
(0.204263 0.00777122 0)
(0.204725 0.00758316 0)
(0.20512 0.00735753 0)
(0.20545 0.00710874 0)
(0.205718 0.00684906 0)
(0.205931 0.00658843 0)
(0.206094 0.00633426 0)
(0.206214 0.00609167 0)
(0.206299 0.00586371 0)
(0.206355 0.0056518 0)
(0.206386 0.00545617 0)
(0.206397 0.00527618 0)
(0.206392 0.00511073 0)
(0.206373 0.00495842 0)
(0.206343 0.00481782 0)
(0.206302 0.00468751 0)
(0.206251 0.0045662 0)
(0.206193 0.00445275 0)
(0.206126 0.00434617 0)
(0.206051 0.0042456 0)
(0.205968 0.00415032 0)
(0.205877 0.00405974 0)
(0.205779 0.00397335 0)
(0.205673 0.00389071 0)
(0.20556 0.00381146 0)
(0.205439 0.00373529 0)
(0.20531 0.00366193 0)
(0.205173 0.00359115 0)
(0.205028 0.00352274 0)
(0.204876 0.00345652 0)
(0.204715 0.00339234 0)
(0.204547 0.00333005 0)
(0.20437 0.00326953 0)
(0.204186 0.00321067 0)
(0.203993 0.00315336 0)
(0.203793 0.00309753 0)
(0.203584 0.00304308 0)
(0.203367 0.00298995 0)
(0.203142 0.00293806 0)
(0.202909 0.00288737 0)
(0.202668 0.00283781 0)
(0.202419 0.00278933 0)
(0.202162 0.00274189 0)
(0.201897 0.00269545 0)
(0.201625 0.00264997 0)
(0.201344 0.00260541 0)
(0.201056 0.00256174 0)
(0.20076 0.00251892 0)
(0.200457 0.00247693 0)
(0.200146 0.00243574 0)
(0.199827 0.00239532 0)
(0.199502 0.00235564 0)
(0.199169 0.00231669 0)
(0.198829 0.00227844 0)
(0.198482 0.00224086 0)
(0.198128 0.00220394 0)
(0.197768 0.00216765 0)
(0.197401 0.00213197 0)
(0.197027 0.0020969 0)
(0.196648 0.0020624 0)
(0.196262 0.00202846 0)
(0.19587 0.00199507 0)
(0.195472 0.00196221 0)
(0.195069 0.00192986 0)
(0.19466 0.00189801 0)
(0.194245 0.00186664 0)
(0.193826 0.00183575 0)
(0.193401 0.00180532 0)
(0.192972 0.00177534 0)
(0.192537 0.0017458 0)
(0.192099 0.00171669 0)
(0.191655 0.00168801 0)
(0.191208 0.00165975 0)
(0.190757 0.00163191 0)
(0.190301 0.00160448 0)
(0.189842 0.00157747 0)
(0.18938 0.00155088 0)
(0.188914 0.00152472 0)
(0.188445 0.00149899 0)
(0.187973 0.00147372 0)
(0.187498 0.00144891 0)
(0.187021 0.00142461 0)
(0.18654 0.00140085 0)
(0.186058 0.00137769 0)
(0.185572 0.0013552 0)
(0.185085 0.00133352 0)
(0.184596 0.00131285 0)
(0.184104 0.00129357 0)
(0.183613 0.00127623 0)
(0.183123 0.00126144 0)
(0.182645 0.00124742 0)
(0.182076 0.00121503 0)
(0.199686 0.00579357 0)
(0.200151 0.00635554 0)
(0.200685 0.00681722 0)
(0.201265 0.00716676 0)
(0.201866 0.00740634 0)
(0.202462 0.00754447 0)
(0.203036 0.00759179 0)
(0.203573 0.00756039 0)
(0.204062 0.00746368 0)
(0.204498 0.00731575 0)
(0.204878 0.00713031 0)
(0.205202 0.00691997 0)
(0.205472 0.00669573 0)
(0.205692 0.00646667 0)
(0.205868 0.00623985 0)
(0.206007 0.00602037 0)
(0.206112 0.00581156 0)
(0.206191 0.00561527 0)
(0.206248 0.00543226 0)
(0.206287 0.00526243 0)
(0.206311 0.00510517 0)
(0.206323 0.00495955 0)
(0.206326 0.00482448 0)
(0.20632 0.00469887 0)
(0.206307 0.00458164 0)
(0.206288 0.00447184 0)
(0.206264 0.00436858 0)
(0.206234 0.00427113 0)
(0.2062 0.00417882 0)
(0.206161 0.00409111 0)
(0.206118 0.00400751 0)
(0.206071 0.00392762 0)
(0.206019 0.0038511 0)
(0.205963 0.00377763 0)
(0.205903 0.00370697 0)
(0.205839 0.00363887 0)
(0.20577 0.00357315 0)
(0.205698 0.00350962 0)
(0.20562 0.00344812 0)
(0.205539 0.00338853 0)
(0.205452 0.00333071 0)
(0.205362 0.00327454 0)
(0.205266 0.00321994 0)
(0.205166 0.0031668 0)
(0.205061 0.00311504 0)
(0.204951 0.0030646 0)
(0.204836 0.00301539 0)
(0.204716 0.00296736 0)
(0.204591 0.00292045 0)
(0.204461 0.0028746 0)
(0.204326 0.00282978 0)
(0.204185 0.00278592 0)
(0.204039 0.002743 0)
(0.203887 0.00270096 0)
(0.20373 0.00265978 0)
(0.203567 0.00261942 0)
(0.203399 0.00257985 0)
(0.203225 0.00254103 0)
(0.203046 0.00250294 0)
(0.202861 0.00246554 0)
(0.20267 0.00242882 0)
(0.202474 0.00239274 0)
(0.202272 0.00235729 0)
(0.202064 0.00232244 0)
(0.20185 0.00228816 0)
(0.201631 0.00225443 0)
(0.201406 0.00222125 0)
(0.201176 0.00218857 0)
(0.200939 0.0021564 0)
(0.200698 0.0021247 0)
(0.20045 0.00209347 0)
(0.200198 0.00206268 0)
(0.199939 0.00203232 0)
(0.199676 0.00200237 0)
(0.199406 0.00197283 0)
(0.199132 0.00194368 0)
(0.198852 0.00191491 0)
(0.198567 0.00188651 0)
(0.198277 0.00185848 0)
(0.197982 0.0018308 0)
(0.197682 0.00180346 0)
(0.197378 0.00177648 0)
(0.197068 0.00174985 0)
(0.196754 0.00172356 0)
(0.196434 0.00169763 0)
(0.196111 0.00167205 0)
(0.195783 0.00164686 0)
(0.19545 0.00162205 0)
(0.195114 0.00159766 0)
(0.194773 0.00157372 0)
(0.194428 0.00155026 0)
(0.194078 0.00152735 0)
(0.193725 0.00150506 0)
(0.193368 0.00148352 0)
(0.193007 0.0014629 0)
(0.192643 0.00144343 0)
(0.192277 0.00142532 0)
(0.191911 0.00140821 0)
(0.191552 0.00138832 0)
(0.191115 0.00134634 0)
(0.199946 0.00553688 0)
(0.200357 0.00603537 0)
(0.200823 0.00645496 0)
(0.201332 0.00678361 0)
(0.201865 0.00701947 0)
(0.202401 0.0071671 0)
(0.202921 0.00723415 0)
(0.203412 0.00723013 0)
(0.203865 0.00716593 0)
(0.204274 0.00705325 0)
(0.204634 0.00690372 0)
(0.204947 0.00672828 0)
(0.205212 0.00653665 0)
(0.205434 0.00633708 0)
(0.205615 0.00613616 0)
(0.205762 0.00593887 0)
(0.205878 0.00574866 0)
(0.205969 0.00556773 0)
(0.206038 0.0053972 0)
(0.206091 0.00523745 0)
(0.206129 0.00508828 0)
(0.206155 0.00494916 0)
(0.206172 0.00481935 0)
(0.206182 0.00469803 0)
(0.206185 0.00458436 0)
(0.206183 0.00447756 0)
(0.206176 0.00437689 0)
(0.206165 0.0042817 0)
(0.206151 0.00419143 0)
(0.206133 0.00410558 0)
(0.206113 0.00402371 0)
(0.20609 0.00394544 0)
(0.206065 0.00387047 0)
(0.206037 0.0037985 0)
(0.206007 0.00372929 0)
(0.205975 0.00366263 0)
(0.20594 0.00359832 0)
(0.205903 0.0035362 0)
(0.205865 0.00347611 0)
(0.205824 0.00341794 0)
(0.20578 0.00336154 0)
(0.205735 0.00330681 0)
(0.205687 0.00325367 0)
(0.205637 0.003202 0)
(0.205584 0.00315175 0)
(0.20553 0.00310282 0)
(0.205472 0.00305516 0)
(0.205412 0.00300869 0)
(0.205349 0.00296336 0)
(0.205284 0.00291913 0)
(0.205215 0.00287593 0)
(0.205144 0.00283372 0)
(0.20507 0.00279246 0)
(0.204993 0.0027521 0)
(0.204912 0.00271261 0)
(0.204829 0.00267396 0)
(0.204742 0.0026361 0)
(0.204651 0.002599 0)
(0.204558 0.00256264 0)
(0.20446 0.00252698 0)
(0.204359 0.00249199 0)
(0.204255 0.00245764 0)
(0.204146 0.00242392 0)
(0.204034 0.00239078 0)
(0.203918 0.00235822 0)
(0.203798 0.0023262 0)
(0.203674 0.00229471 0)
(0.203546 0.00226372 0)
(0.203414 0.0022332 0)
(0.203278 0.00220315 0)
(0.203137 0.00217354 0)
(0.202992 0.00214435 0)
(0.202844 0.00211556 0)
(0.20269 0.00208717 0)
(0.202533 0.00205915 0)
(0.202371 0.00203149 0)
(0.202205 0.00200419 0)
(0.202034 0.00197722 0)
(0.201859 0.00195057 0)
(0.20168 0.00192425 0)
(0.201497 0.00189825 0)
(0.201308 0.00187256 0)
(0.201116 0.00184718 0)
(0.200919 0.00182211 0)
(0.200718 0.00179735 0)
(0.200512 0.00177292 0)
(0.200302 0.00174883 0)
(0.200088 0.0017251 0)
(0.199869 0.00170174 0)
(0.199646 0.0016788 0)
(0.199419 0.00165631 0)
(0.199187 0.00163433 0)
(0.198951 0.00161293 0)
(0.19871 0.00159222 0)
(0.198466 0.00157231 0)
(0.198217 0.00155331 0)
(0.197966 0.00153514 0)
(0.197714 0.00151678 0)
(0.197465 0.00149378 0)
(0.19715 0.0014497 0)
(0.200159 0.00529866 0)
(0.200525 0.00574308 0)
(0.200935 0.0061245 0)
(0.201383 0.00643189 0)
(0.201857 0.00666136 0)
(0.202336 0.00681465 0)
(0.202806 0.00689695 0)
(0.203254 0.00691554 0)
(0.203672 0.00687912 0)
(0.204053 0.00679724 0)
(0.204394 0.0066797 0)
(0.204693 0.00653585 0)
(0.204951 0.00637422 0)
(0.20517 0.0062022 0)
(0.205353 0.00602587 0)
(0.205503 0.00585 0)
(0.205626 0.00567806 0)
(0.205724 0.00551244 0)
(0.205802 0.00535457 0)
(0.205863 0.00520517 0)
(0.205909 0.0050644 0)
(0.205945 0.00493208 0)
(0.20597 0.00480777 0)
(0.205988 0.00469091 0)
(0.205999 0.00458088 0)
(0.206005 0.00447707 0)
(0.206006 0.0043789 0)
(0.206004 0.00428581 0)
(0.205999 0.00419732 0)
(0.20599 0.004113 0)
(0.20598 0.00403246 0)
(0.205967 0.00395537 0)
(0.205952 0.00388145 0)
(0.205936 0.00381043 0)
(0.205918 0.00374208 0)
(0.205899 0.00367622 0)
(0.205878 0.00361266 0)
(0.205857 0.00355125 0)
(0.205834 0.00349185 0)
(0.20581 0.00343433 0)
(0.205785 0.00337859 0)
(0.20576 0.00332451 0)
(0.205733 0.00327201 0)
(0.205705 0.003221 0)
(0.205676 0.00317141 0)
(0.205646 0.00312316 0)
(0.205616 0.00307619 0)
(0.205584 0.00303044 0)
(0.20555 0.00298585 0)
(0.205516 0.00294237 0)
(0.205481 0.00289995 0)
(0.205444 0.00285855 0)
(0.205406 0.00281813 0)
(0.205367 0.00277864 0)
(0.205326 0.00274004 0)
(0.205283 0.0027023 0)
(0.205239 0.00266538 0)
(0.205194 0.00262925 0)
(0.205146 0.00259388 0)
(0.205097 0.00255924 0)
(0.205046 0.00252529 0)
(0.204993 0.00249201 0)
(0.204938 0.00245937 0)
(0.204881 0.00242735 0)
(0.204822 0.00239591 0)
(0.20476 0.00236503 0)
(0.204696 0.0023347 0)
(0.20463 0.00230488 0)
(0.204561 0.00227555 0)
(0.20449 0.00224669 0)
(0.204417 0.00221829 0)
(0.20434 0.00219032 0)
(0.204261 0.00216276 0)
(0.204179 0.0021356 0)
(0.204094 0.00210881 0)
(0.204007 0.00208239 0)
(0.203916 0.00205633 0)
(0.203822 0.00203059 0)
(0.203726 0.00200519 0)
(0.203626 0.00198011 0)
(0.203523 0.00195534 0)
(0.203416 0.00193087 0)
(0.203306 0.00190671 0)
(0.203193 0.00188286 0)
(0.203077 0.00185931 0)
(0.202957 0.00183609 0)
(0.202833 0.00181319 0)
(0.202706 0.00179064 0)
(0.202576 0.00176847 0)
(0.202442 0.00174669 0)
(0.202304 0.00172536 0)
(0.202162 0.00170453 0)
(0.202016 0.00168425 0)
(0.201867 0.00166461 0)
(0.201714 0.00164569 0)
(0.201558 0.00162747 0)
(0.201399 0.00160966 0)
(0.201238 0.00159098 0)
(0.201076 0.00156726 0)