/*--------------------------------*- C++ -*----------------------------------*\
| =========                 |                                                 |
| \\      /  F ield         | OpenFOAM: The Open Source CFD Toolbox           |
|  \\    /   O peration     | Version:  2.3.0                                 |
|   \\  /    A nd           | Web:      www.OpenFOAM.org                      |
|    \\/     M anipulation  |                                                 |
\*---------------------------------------------------------------------------*/
FoamFile
{
    version     2.0;
    format      ascii;
    class       volVectorField;
    location    "0.35";
    object      U_0;
}
// * * * * * * * * * * * * * * * * * * * * * * * * * * * * * * * * * * * * * //

dimensions      [0 1 -1 0 0 0 0];

internalField   nonuniform List<vector> 
5940
(
(0.172182 0.0051004 0)
(0.150981 0.00684209 0)
(0.132632 0.0071089 0)
(0.115219 0.00644237 0)
(0.0985484 0.00546125 0)
(0.0834081 0.00438847 0)
(0.0707268 0.00326808 0)
(0.0607765 0.00215479 0)
(0.0532886 0.00120908 0)
(0.047776 0.000551224 0)
(0.0437623 0.000174546 0)
(0.0408378 6.44337e-08 0)
(0.0386627 -5.30633e-05 0)
(0.036977 -4.4144e-05 0)
(0.0355955 -9.94854e-06 0)
(0.0343984 2.78905e-05 0)
(0.033316 5.8599e-05 0)
(0.0323127 7.89587e-05 0)
(0.0313725 8.98742e-05 0)
(0.0304892 9.37494e-05 0)
(0.0296602 9.30491e-05 0)
(0.0288836 8.97379e-05 0)
(0.0281572 8.51788e-05 0)
(0.0274779 8.02288e-05 0)
(0.0268423 7.53675e-05 0)
(0.0262465 7.0818e-05 0)
(0.0256868 6.66495e-05 0)
(0.0251596 6.28541e-05 0)
(0.024662 5.93961e-05 0)
(0.0241911 5.62376e-05 0)
(0.0237446 5.33445e-05 0)
(0.0233203 5.06854e-05 0)
(0.0229165 4.82288e-05 0)
(0.0225314 4.59454e-05 0)
(0.0221637 4.38122e-05 0)
(0.0218121 4.18146e-05 0)
(0.0214755 3.99443e-05 0)
(0.0211529 3.81954e-05 0)
(0.0208435 3.65602e-05 0)
(0.0205462 3.50284e-05 0)
(0.0202605 3.35878e-05 0)
(0.0199855 3.2226e-05 0)
(0.0197207 3.09329e-05 0)
(0.0194655 2.9701e-05 0)
(0.0192196 2.85252e-05 0)
(0.0189823 2.74022e-05 0)
(0.0187534 2.63296e-05 0)
(0.0185325 2.53063e-05 0)
(0.0183191 2.43322e-05 0)
(0.0181129 2.34079e-05 0)
(0.0179135 2.25337e-05 0)
(0.0177207 2.17087e-05 0)
(0.0175341 2.09299e-05 0)
(0.0173534 2.0192e-05 0)
(0.0171783 1.94884e-05 0)
(0.0170086 1.88119e-05 0)
(0.0168442 1.81565e-05 0)
(0.0166848 1.75182e-05 0)
(0.0165304 1.68955e-05 0)
(0.0163807 1.62893e-05 0)
(0.0162357 1.57023e-05 0)
(0.0160952 1.51379e-05 0)
(0.015959 1.45987e-05 0)
(0.0158271 1.40861e-05 0)
(0.0156991 1.35992e-05 0)
(0.015575 1.31352e-05 0)
(0.0154547 1.269e-05 0)
(0.0153379 1.22592e-05 0)
(0.0152248 1.18391e-05 0)
(0.015115 1.14271e-05 0)
(0.0150087 1.10223e-05 0)
(0.0149058 1.06255e-05 0)
(0.0148061 1.02377e-05 0)
(0.0147096 9.86047e-06 0)
(0.0146163 9.49464e-06 0)
(0.0145261 9.1406e-06 0)
(0.0144389 8.79791e-06 0)
(0.0143546 8.46612e-06 0)
(0.0142733 8.14445e-06 0)
(0.0141947 7.83259e-06 0)
(0.014119 7.52984e-06 0)
(0.0140459 7.23568e-06 0)
(0.0139756 6.94857e-06 0)
(0.0139079 6.66707e-06 0)
(0.0138429 6.38895e-06 0)
(0.0137805 6.11303e-06 0)
(0.0137206 5.83807e-06 0)
(0.0136634 5.56471e-06 0)
(0.0136088 5.29333e-06 0)
(0.0135567 5.02574e-06 0)
(0.0135072 4.76241e-06 0)
(0.0134602 4.50479e-06 0)
(0.0134157 4.25228e-06 0)
(0.0133737 4.00559e-06 0)
(0.0133342 3.76326e-06 0)
(0.0132971 3.52557e-06 0)
(0.0132623 3.29035e-06 0)
(0.01323 3.05781e-06 0)
(0.0132 2.82528e-06 0)
(0.0131724 2.59319e-06 0)
(0.0131472 2.35872e-06 0)
(0.0131243 2.12322e-06 0)
(0.0131038 1.8838e-06 0)
(0.0130857 1.64205e-06 0)
(0.0130699 1.3947e-06 0)
(0.0130564 1.14493e-06 0)
(0.0130453 8.90589e-07 0)
(0.0130363 6.40057e-07 0)
(0.0130296 4.03036e-07 0)
(0.0130251 1.97886e-07 0)
(0.0130226 2.78654e-08 0)
(0.0130221 -1.8799e-07 0)
(0.0130234 -3.84834e-07 0)
(0.0130263 -5.77342e-07 0)
(0.0130307 -7.38003e-07 0)
(0.0130363 -8.82498e-07 0)
(0.013043 -1.00461e-06 0)
(0.0130504 -1.08969e-06 0)
(0.0130585 -1.14889e-06 0)
(0.0130669 -1.17695e-06 0)
(0.0130754 -1.18044e-06 0)
(0.0130839 -1.15686e-06 0)
(0.0130922 -1.1159e-06 0)
(0.0131002 -1.05611e-06 0)
(0.0131077 -9.8891e-07 0)
(0.0131148 -9.11957e-07 0)
(0.0131213 -8.37629e-07 0)
(0.0131274 -7.6072e-07 0)
(0.013133 -6.93646e-07 0)
(0.0131381 -6.27367e-07 0)
(0.0131428 -5.74236e-07 0)
(0.0131472 -5.21456e-07 0)
(0.0131513 -4.82314e-07 0)
(0.0131552 -4.40844e-07 0)
(0.0131588 -4.13175e-07 0)
(0.0131623 -3.79975e-07 0)
(0.0131656 -3.61138e-07 0)
(0.0131687 -3.32214e-07 0)
(0.0131717 -3.1906e-07 0)
(0.0131746 -2.93496e-07 0)
(0.0131773 -2.84727e-07 0)
(0.01318 -2.5974e-07 0)
(0.0131823 -2.51499e-07 0)
(0.0131849 -2.24479e-07 0)
(0.0131868 -2.13199e-07 0)
(0.0131891 -1.82903e-07 0)
(0.0131905 -1.66792e-07 0)
(0.0131926 -1.37433e-07 0)
(0.0131933 -1.20081e-07 0)
(0.0131956 -1.36247e-07 0)
(0.189462 0.00904044 0)
(0.187404 0.0124011 0)
(0.184806 0.0137432 0)
(0.18109 0.0136282 0)
(0.17584 0.0128527 0)
(0.16922 0.011748 0)
(0.161818 0.0103761 0)
(0.154123 0.00877745 0)
(0.14649 0.00710803 0)
(0.139137 0.00556382 0)
(0.132214 0.00427287 0)
(0.125828 0.00327078 0)
(0.120027 0.00253327 0)
(0.114818 0.00201436 0)
(0.110161 0.00166042 0)
(0.105995 0.00142057 0)
(0.102251 0.00125368 0)
(0.0988678 0.00113083 0)
(0.0957906 0.0010338 0)
(0.0929754 0.000952134 0)
(0.0903857 0.000880294 0)
(0.0879923 0.000815631 0)
(0.0857709 0.000756983 0)
(0.0837017 0.000703841 0)
(0.0817678 0.00065587 0)
(0.0799549 0.00061269 0)
(0.0782504 0.000573835 0)
(0.0766439 0.000538797 0)
(0.075126 0.000507092 0)
(0.0736888 0.000478302 0)
(0.0723252 0.000452074 0)
(0.0710291 0.0004281 0)
(0.069795 0.000406096 0)
(0.0686181 0.000385806 0)
(0.0674941 0.000367019 0)
(0.0664193 0.000349572 0)
(0.0653902 0.000333341 0)
(0.0644037 0.000318223 0)
(0.0634572 0.00030412 0)
(0.062548 0.000290931 0)
(0.0616738 0.000278559 0)
(0.0608326 0.000266914 0)
(0.0600226 0.000255922 0)
(0.059242 0.000245522 0)
(0.0584892 0.000235667 0)
(0.0577629 0.000226317 0)
(0.0570618 0.00021744 0)
(0.0563846 0.000209006 0)
(0.0557301 0.000200995 0)
(0.0550974 0.000193386 0)
(0.0544853 0.000186162 0)
(0.0538929 0.000179303 0)
(0.0533194 0.000172784 0)
(0.0527638 0.000166573 0)
(0.0522255 0.000160639 0)
(0.0517038 0.000154946 0)
(0.0511981 0.000149466 0)
(0.0507079 0.000144178 0)
(0.0502325 0.000139067 0)
(0.0497716 0.000134131 0)
(0.0493247 0.00012937 0)
(0.0488913 0.000124787 0)
(0.048471 0.000120385 0)
(0.0480633 0.000116161 0)
(0.0476678 0.000112106 0)
(0.0472841 0.000108206 0)
(0.046912 0.000104441 0)
(0.046551 0.000100795 0)
(0.0462009 9.72496e-05 0)
(0.0458614 9.37948e-05 0)
(0.0455324 9.04243e-05 0)
(0.0452136 8.71371e-05 0)
(0.0449048 8.39341e-05 0)
(0.0446059 8.0817e-05 0)
(0.0443165 7.77854e-05 0)
(0.0440365 7.48375e-05 0)
(0.0437658 7.19688e-05 0)
(0.0435041 6.9175e-05 0)
(0.0432514 6.6451e-05 0)
(0.0430074 6.37933e-05 0)
(0.042772 6.11976e-05 0)
(0.0425451 5.86603e-05 0)
(0.0423267 5.61749e-05 0)
(0.0421165 5.37355e-05 0)
(0.0419146 5.13339e-05 0)
(0.0417209 4.89658e-05 0)
(0.0415353 4.66265e-05 0)
(0.0413577 4.43177e-05 0)
(0.0411882 4.20402e-05 0)
(0.0410266 3.97992e-05 0)
(0.0408729 3.75958e-05 0)
(0.040727 3.54339e-05 0)
(0.0405889 3.33109e-05 0)
(0.0404584 3.12287e-05 0)
(0.0403356 2.91822e-05 0)
(0.0402203 2.71725e-05 0)
(0.0401125 2.51927e-05 0)
(0.0400121 2.32445e-05 0)
(0.0399191 2.13202e-05 0)
(0.0398334 1.94232e-05 0)
(0.039755 1.75462e-05 0)
(0.0396837 1.56968e-05 0)
(0.0396197 1.3869e-05 0)
(0.0395626 1.2073e-05 0)
(0.0395125 1.03032e-05 0)
(0.0394691 8.57608e-06 0)
(0.0394324 6.88841e-06 0)
(0.0394021 5.26448e-06 0)
(0.039378 3.71368e-06 0)
(0.0393597 2.28064e-06 0)
(0.0393469 9.70722e-07 0)
(0.0393393 -2.76615e-07 0)
(0.0393364 -1.50743e-06 0)
(0.0393376 -2.58034e-06 0)
(0.0393425 -3.44054e-06 0)
(0.0393504 -4.14983e-06 0)
(0.039361 -4.7125e-06 0)
(0.0393733 -5.08552e-06 0)
(0.0393871 -5.3296e-06 0)
(0.0394016 -5.43105e-06 0)
(0.0394167 -5.41784e-06 0)
(0.0394317 -5.28811e-06 0)
(0.0394464 -5.08461e-06 0)
(0.0394605 -4.80791e-06 0)
(0.0394739 -4.50524e-06 0)
(0.0394864 -4.17113e-06 0)
(0.0394981 -3.85346e-06 0)
(0.039509 -3.53367e-06 0)
(0.0395191 -3.25804e-06 0)
(0.0395285 -2.99159e-06 0)
(0.0395373 -2.78018e-06 0)
(0.0395456 -2.57351e-06 0)
(0.0395535 -2.42226e-06 0)
(0.0395611 -2.26227e-06 0)
(0.0395683 -2.15651e-06 0)
(0.0395754 -2.02679e-06 0)
(0.0395821 -1.95247e-06 0)
(0.0395889 -1.83453e-06 0)
(0.0395952 -1.77742e-06 0)
(0.0396017 -1.66268e-06 0)
(0.0396075 -1.61658e-06 0)
(0.0396138 -1.49408e-06 0)
(0.0396188 -1.44667e-06 0)
(0.0396249 -1.30592e-06 0)
(0.039629 -1.24807e-06 0)
(0.0396348 -1.08557e-06 0)
(0.0396377 -1.01637e-06 0)
(0.0396433 -8.50319e-07 0)
(0.0396447 -7.82336e-07 0)
(0.0396504 -7.53021e-07 0)
(0.19058 0.00898958 0)
(0.191037 0.0117518 0)
(0.192139 0.0135394 0)
(0.193347 0.0141495 0)
(0.193945 0.0140049 0)
(0.193563 0.0134372 0)
(0.192199 0.0125586 0)
(0.190003 0.0114292 0)
(0.187151 0.0101588 0)
(0.183812 0.00889175 0)
(0.180136 0.00774175 0)
(0.176268 0.00676022 0)
(0.172328 0.00594704 0)
(0.168408 0.00528095 0)
(0.164564 0.0047335 0)
(0.160823 0.0042775 0)
(0.1572 0.0038908 0)
(0.153702 0.00355696 0)
(0.150333 0.00326449 0)
(0.147092 0.00300546 0)
(0.143979 0.00277436 0)
(0.140992 0.00256721 0)
(0.138128 0.00238108 0)
(0.135384 0.00221369 0)
(0.132755 0.00206309 0)
(0.130239 0.00192748 0)
(0.127829 0.00180519 0)
(0.125523 0.00169464 0)
(0.123314 0.00159441 0)
(0.121198 0.00150327 0)
(0.11917 0.00142016 0)
(0.117225 0.00134416 0)
(0.115358 0.00127442 0)
(0.113566 0.00121021 0)
(0.111843 0.00115086 0)
(0.110185 0.00109583 0)
(0.10859 0.00104471 0)
(0.107053 0.000997121 0)
(0.105572 0.000952755 0)
(0.104143 0.000911303 0)
(0.102764 0.000872474 0)
(0.101432 0.000835998 0)
(0.100145 0.000801639 0)
(0.0989005 0.000769202 0)
(0.0976971 0.000738522 0)
(0.0965325 0.000709463 0)
(0.0954051 0.000681906 0)
(0.0943132 0.000655749 0)
(0.0932553 0.000630905 0)
(0.0922298 0.000607299 0)
(0.0912355 0.000584862 0)
(0.090271 0.000563522 0)
(0.0893352 0.000543202 0)
(0.088427 0.000523817 0)
(0.0875454 0.000505279 0)
(0.0866893 0.000487503 0)
(0.0858579 0.000470416 0)
(0.0850505 0.00045396 0)
(0.0842662 0.000438096 0)
(0.0835044 0.000422799 0)
(0.0827643 0.000408056 0)
(0.0820454 0.000393861 0)
(0.081347 0.0003802 0)
(0.0806684 0.000367056 0)
(0.0800091 0.000354398 0)
(0.0793686 0.00034219 0)
(0.0787462 0.000330386 0)
(0.0781417 0.000318945 0)
(0.0775546 0.00030783 0)
(0.0769845 0.000297013 0)
(0.076431 0.000286477 0)
(0.0758939 0.000276213 0)
(0.0753729 0.000266217 0)
(0.0748676 0.000256485 0)
(0.0743777 0.00024701 0)
(0.0739029 0.000237782 0)
(0.0734431 0.000228786 0)
(0.072998 0.000220009 0)
(0.0725673 0.000211436 0)
(0.0721508 0.000203056 0)
(0.0717484 0.000194857 0)
(0.0713599 0.000186828 0)
(0.0709851 0.000178955 0)
(0.0706239 0.000171224 0)
(0.0702763 0.000163619 0)
(0.069942 0.000156129 0)
(0.0696209 0.000148744 0)
(0.0693131 0.000141468 0)
(0.0690184 0.0001343 0)
(0.0687368 0.000127249 0)
(0.0684681 0.000120314 0)
(0.0682122 0.000113502 0)
(0.067969 0.000106808 0)
(0.0677385 0.000100233 0)
(0.0675205 9.37681e-05 0)
(0.067315 8.74162e-05 0)
(0.0671218 8.11653e-05 0)
(0.0669409 7.50204e-05 0)
(0.0667721 6.89701e-05 0)
(0.0666154 6.30237e-05 0)
(0.0664706 5.71724e-05 0)
(0.0663376 5.14354e-05 0)
(0.0662162 4.58078e-05 0)
(0.0661063 4.03157e-05 0)
(0.0660076 3.49588e-05 0)
(0.0659198 2.9778e-05 0)
(0.0658427 2.47762e-05 0)
(0.0657759 2.00011e-05 0)
(0.0657189 1.54529e-05 0)
(0.0656713 1.11946e-05 0)
(0.0656326 7.2408e-06 0)
(0.0656019 3.67361e-06 0)
(0.0655789 3.91913e-07 0)
(0.0655625 -2.45098e-06 0)
(0.0655522 -5.02756e-06 0)
(0.0655468 -7.0791e-06 0)
(0.0655459 -8.6878e-06 0)
(0.0655484 -9.79626e-06 0)
(0.0655537 -1.05286e-05 0)
(0.0655607 -1.09018e-05 0)
(0.0655693 -1.09889e-05 0)
(0.0655785 -1.07971e-05 0)
(0.0655882 -1.04264e-05 0)
(0.0655976 -9.88821e-06 0)
(0.0656068 -9.28883e-06 0)
(0.0656154 -8.62246e-06 0)
(0.0656236 -7.99345e-06 0)
(0.0656311 -7.36373e-06 0)
(0.0656382 -6.83285e-06 0)
(0.0656448 -6.32395e-06 0)
(0.0656511 -5.93628e-06 0)
(0.0656572 -5.55713e-06 0)
(0.0656631 -5.29916e-06 0)
(0.0656689 -5.01621e-06 0)
(0.0656746 -4.85034e-06 0)
(0.0656806 -4.62276e-06 0)
(0.0656862 -4.51425e-06 0)
(0.0656924 -4.29666e-06 0)
(0.0656979 -4.2154e-06 0)
(0.0657043 -3.98566e-06 0)
(0.0657096 -3.91553e-06 0)
(0.0657162 -3.64817e-06 0)
(0.065721 -3.56889e-06 0)
(0.0657278 -3.24299e-06 0)
(0.0657318 -3.1409e-06 0)
(0.0657385 -2.75285e-06 0)
(0.0657413 -2.62748e-06 0)
(0.0657481 -2.22506e-06 0)
(0.0657494 -2.09577e-06 0)
(0.0657563 -1.90267e-06 0)
(0.191734 0.0084999 0)
(0.192161 0.0104228 0)
(0.193267 0.0120139 0)
(0.194937 0.0128541 0)
(0.196676 0.0130268 0)
(0.198059 0.0127718 0)
(0.198907 0.0122397 0)
(0.199201 0.0115069 0)
(0.198982 0.0106443 0)
(0.198307 0.00974207 0)
(0.197243 0.00888431 0)
(0.195868 0.0081217 0)
(0.194264 0.00746756 0)
(0.192499 0.00691058 0)
(0.190623 0.00643221 0)
(0.188665 0.00601498 0)
(0.186647 0.00564491 0)
(0.184582 0.00531156 0)
(0.182482 0.0050074 0)
(0.180356 0.0047272 0)
(0.178213 0.0044674 0)
(0.176061 0.00422556 0)
(0.173907 0.00400005 0)
(0.171758 0.00378963 0)
(0.16962 0.00359323 0)
(0.167498 0.00340985 0)
(0.165398 0.00323851 0)
(0.163323 0.00307829 0)
(0.161278 0.00292836 0)
(0.159265 0.00278802 0)
(0.157287 0.00265664 0)
(0.155346 0.00253366 0)
(0.153445 0.0024185 0)
(0.151583 0.0023106 0)
(0.149761 0.00220936 0)
(0.14798 0.00211427 0)
(0.146239 0.00202482 0)
(0.144538 0.00194059 0)
(0.142876 0.00186116 0)
(0.141253 0.00178618 0)
(0.139669 0.00171528 0)
(0.138122 0.00164816 0)
(0.136613 0.00158452 0)
(0.13514 0.00152413 0)
(0.133704 0.00146675 0)
(0.132303 0.0014122 0)
(0.130937 0.00136028 0)
(0.129605 0.00131083 0)
(0.128306 0.00126367 0)
(0.127039 0.00121868 0)
(0.125802 0.00117573 0)
(0.124596 0.00113471 0)
(0.12342 0.00109549 0)
(0.122272 0.00105796 0)
(0.121152 0.00102197 0)
(0.12006 0.000987401 0)
(0.118994 0.00095412 0)
(0.117955 0.000922031 0)
(0.116942 0.000891058 0)
(0.115953 0.000861151 0)
(0.11499 0.000832278 0)
(0.11405 0.000804415 0)
(0.113134 0.000777536 0)
(0.11224 0.000751606 0)
(0.111369 0.000726573 0)
(0.11052 0.000702372 0)
(0.109693 0.000678931 0)
(0.108886 0.000656178 0)
(0.108101 0.00063405 0)
(0.107336 0.000612501 0)
(0.106591 0.000591497 0)
(0.105866 0.000571021 0)
(0.10516 0.000551058 0)
(0.104474 0.000531599 0)
(0.103807 0.000512625 0)
(0.103158 0.000494115 0)
(0.102528 0.000476043 0)
(0.101917 0.000458383 0)
(0.101323 0.000441107 0)
(0.100747 0.000424196 0)
(0.10019 0.000407626 0)
(0.0996492 0.000391382 0)
(0.0991264 0.000375436 0)
(0.0986209 0.000359766 0)
(0.0981326 0.000344345 0)
(0.0976615 0.000329155 0)
(0.0972074 0.00031418 0)
(0.0967703 0.000299421 0)
(0.0963501 0.000284877 0)
(0.0959468 0.00027056 0)
(0.0955602 0.000256468 0)
(0.0951902 0.000242612 0)
(0.0948369 0.00022898 0)
(0.0945 0.000215579 0)
(0.0941794 0.000202393 0)
(0.0938752 0.000189429 0)
(0.0935871 0.000176671 0)
(0.0933151 0.000164129 0)
(0.0930591 0.000151789 0)
(0.0928189 0.000139671 0)
(0.0925944 0.000127764 0)
(0.0923854 0.000116105 0)
(0.0921918 0.000104692 0)
(0.0920131 9.35711e-05 0)
(0.0918493 8.27488e-05 0)
(0.0916998 7.22965e-05 0)
(0.0915645 6.22249e-05 0)
(0.0914427 5.26125e-05 0)
(0.0913341 4.34711e-05 0)
(0.0912378 3.48992e-05 0)
(0.0911535 2.69194e-05 0)
(0.0910801 1.9655e-05 0)
(0.0910172 1.3143e-05 0)
(0.0909635 7.4124e-06 0)
(0.0909186 2.27339e-06 0)
(0.090881 -1.95152e-06 0)
(0.0908503 -5.35657e-06 0)
(0.0908251 -8.07624e-06 0)
(0.0908048 -1.00869e-05 0)
(0.0907882 -1.13578e-05 0)
(0.090775 -1.20708e-05 0)
(0.0907639 -1.22587e-05 0)
(0.0907548 -1.20989e-05 0)
(0.0907468 -1.16162e-05 0)
(0.0907399 -1.09961e-05 0)
(0.0907334 -1.02306e-05 0)
(0.0907275 -9.50262e-06 0)
(0.0907219 -8.74639e-06 0)
(0.0907166 -8.13904e-06 0)
(0.0907117 -7.54667e-06 0)
(0.0907071 -7.14775e-06 0)
(0.090703 -6.74438e-06 0)
(0.0906992 -6.53903e-06 0)
(0.0906962 -6.27456e-06 0)
(0.0906934 -6.20398e-06 0)
(0.0906916 -6.00835e-06 0)
(0.0906899 -6.01776e-06 0)
(0.0906893 -5.81324e-06 0)
(0.0906885 -5.84403e-06 0)
(0.0906892 -5.59499e-06 0)
(0.0906891 -5.62656e-06 0)
(0.0906908 -5.29118e-06 0)
(0.0906912 -5.29012e-06 0)
(0.0906938 -4.84157e-06 0)
(0.0906943 -4.78461e-06 0)
(0.0906974 -4.22874e-06 0)
(0.0906978 -4.10294e-06 0)
(0.0907012 -3.52059e-06 0)
(0.0907013 -3.35663e-06 0)
(0.0907047 -2.99485e-06 0)
(0.192717 0.00806474 0)
(0.19311 0.00949541 0)
(0.193976 0.010803 0)
(0.195339 0.0116569 0)
(0.19694 0.0119715 0)
(0.198457 0.0118743 0)
(0.199696 0.0115149 0)
(0.200604 0.0109895 0)
(0.201191 0.0103593 0)
(0.201482 0.00968297 0)
(0.201506 0.00901936 0)
(0.201303 0.00841207 0)
(0.200917 0.0078803 0)
(0.200393 0.00742213 0)
(0.199762 0.00702602 0)
(0.199047 0.00667905 0)
(0.198257 0.00637014 0)
(0.197401 0.00609067 0)
(0.196483 0.00583411 0)
(0.195505 0.00559572 0)
(0.194472 0.00537218 0)
(0.193388 0.00516128 0)
(0.192255 0.00496158 0)
(0.191079 0.00477208 0)
(0.189863 0.00459198 0)
(0.188611 0.00442055 0)
(0.187327 0.0042571 0)
(0.186015 0.00410095 0)
(0.184679 0.00395152 0)
(0.183323 0.00380834 0)
(0.18195 0.00367105 0)
(0.180565 0.00353944 0)
(0.179171 0.00341334 0)
(0.177771 0.00329262 0)
(0.17637 0.00317715 0)
(0.174969 0.00306679 0)
(0.17357 0.00296132 0)
(0.172175 0.0028605 0)
(0.170786 0.002764 0)
(0.169403 0.00267147 0)
(0.168028 0.00258258 0)
(0.166662 0.00249701 0)
(0.165307 0.00241456 0)
(0.163964 0.00233509 0)
(0.162635 0.00225852 0)
(0.161321 0.00218481 0)
(0.160023 0.00211394 0)
(0.158743 0.00204584 0)
(0.157479 0.00198042 0)
(0.156233 0.00191755 0)
(0.155005 0.00185708 0)
(0.153795 0.00179886 0)
(0.152602 0.00174271 0)
(0.151427 0.00168849 0)
(0.15027 0.00163606 0)
(0.149132 0.00158529 0)
(0.148012 0.00153609 0)
(0.146912 0.00148839 0)
(0.145831 0.00144215 0)
(0.14477 0.00139733 0)
(0.143729 0.00135388 0)
(0.142707 0.00131179 0)
(0.141704 0.00127101 0)
(0.14072 0.00123149 0)
(0.139755 0.00119314 0)
(0.138809 0.0011559 0)
(0.137881 0.00111967 0)
(0.136972 0.00108437 0)
(0.136082 0.00104991 0)
(0.135211 0.00101626 0)
(0.134358 0.000983365 0)
(0.133525 0.000951218 0)
(0.13271 0.000919802 0)
(0.131913 0.000889103 0)
(0.131136 0.000859094 0)
(0.130376 0.000829745 0)
(0.129635 0.000801015 0)
(0.128912 0.000772864 0)
(0.128208 0.000745254 0)
(0.127521 0.000718158 0)
(0.126853 0.000691548 0)
(0.126203 0.000665402 0)
(0.125571 0.000639688 0)
(0.124957 0.000614378 0)
(0.124362 0.000589435 0)
(0.123784 0.000564835 0)
(0.123225 0.000540557 0)
(0.122684 0.0005166 0)
(0.122162 0.000492964 0)
(0.121658 0.000469663 0)
(0.121171 0.000446698 0)
(0.120703 0.000424079 0)
(0.120254 0.000401794 0)
(0.119822 0.00037985 0)
(0.119409 0.000358231 0)
(0.119013 0.000336947 0)
(0.118636 0.00031598 0)
(0.118276 0.00029535 0)
(0.117935 0.000275043 0)
(0.117611 0.00025509 0)
(0.117305 0.000235483 0)
(0.117017 0.000216277 0)
(0.116746 0.000197478 0)
(0.116492 0.000179157 0)
(0.116255 0.000161324 0)
(0.116035 0.000144085 0)
(0.115831 0.000127461 0)
(0.115642 0.000111569 0)
(0.115469 9.64202e-05 0)
(0.11531 8.21649e-05 0)
(0.115166 6.88351e-05 0)
(0.115035 5.65814e-05 0)
(0.114916 4.53814e-05 0)
(0.114809 3.53428e-05 0)
(0.114713 2.65463e-05 0)
(0.114626 1.9037e-05 0)
(0.114549 1.27085e-05 0)
(0.11448 7.44873e-06 0)
(0.114418 3.23828e-06 0)
(0.114362 1.42531e-07 0)
(0.114312 -2.0817e-06 0)
(0.114266 -3.47046e-06 0)
(0.114224 -4.28373e-06 0)
(0.114185 -4.54802e-06 0)
(0.11415 -4.54103e-06 0)
(0.114117 -4.24286e-06 0)
(0.114085 -3.93333e-06 0)
(0.114056 -3.51077e-06 0)
(0.114028 -3.24969e-06 0)
(0.114002 -2.95296e-06 0)
(0.113978 -2.89509e-06 0)
(0.113955 -2.79059e-06 0)
(0.113933 -2.94176e-06 0)
(0.113913 -2.9782e-06 0)
(0.113894 -3.27979e-06 0)
(0.113876 -3.36536e-06 0)
(0.11386 -3.74245e-06 0)
(0.113846 -3.82946e-06 0)
(0.113832 -4.24705e-06 0)
(0.11382 -4.22776e-06 0)
(0.113809 -4.57842e-06 0)
(0.113799 -4.41394e-06 0)
(0.11379 -4.66999e-06 0)
(0.113782 -4.33826e-06 0)
(0.113775 -4.46047e-06 0)
(0.113768 -3.98554e-06 0)
(0.113763 -3.95275e-06 0)
(0.113756 -3.42962e-06 0)
(0.113753 -3.30014e-06 0)
(0.113745 -2.96004e-06 0)
(0.193529 0.00770942 0)
(0.193909 0.00885533 0)
(0.194627 0.00993046 0)
(0.195715 0.0107223 0)
(0.197036 0.0111046 0)
(0.198369 0.0111161 0)
(0.199545 0.0108718 0)
(0.200492 0.0104711 0)
(0.201211 0.00997749 0)
(0.201723 0.00943708 0)
(0.202052 0.00889263 0)
(0.202225 0.00838018 0)
(0.202273 0.0079209 0)
(0.202226 0.0075198 0)
(0.202109 0.00717146 0)
(0.201939 0.00686662 0)
(0.201725 0.00659624 0)
(0.201471 0.00635284 0)
(0.201176 0.0061306 0)
(0.200843 0.00592515 0)
(0.200471 0.00573331 0)
(0.200059 0.00555292 0)
(0.199609 0.0053825 0)
(0.199121 0.00522099 0)
(0.198595 0.00506755 0)
(0.198033 0.0049214 0)
(0.197435 0.00478178 0)
(0.196802 0.00464791 0)
(0.196136 0.00451902 0)
(0.195436 0.00439446 0)
(0.194706 0.00427372 0)
(0.193947 0.00415645 0)
(0.193162 0.00404249 0)
(0.192352 0.00393181 0)
(0.19152 0.00382446 0)
(0.190668 0.00372055 0)
(0.189799 0.00362017 0)
(0.188912 0.00352331 0)
(0.188011 0.00342981 0)
(0.187094 0.0033394 0)
(0.186164 0.0032517 0)
(0.185221 0.0031663 0)
(0.184267 0.00308283 0)
(0.183302 0.00300106 0)
(0.182329 0.00292089 0)
(0.18135 0.00284235 0)
(0.180366 0.00276562 0)
(0.179381 0.00269088 0)
(0.178395 0.00261834 0)
(0.17741 0.00254808 0)
(0.176425 0.00248011 0)
(0.175442 0.00241429 0)
(0.174461 0.00235039 0)
(0.173481 0.00228812 0)
(0.172504 0.00222724 0)
(0.17153 0.00216752 0)
(0.17056 0.00210888 0)
(0.169596 0.00205131 0)
(0.168639 0.00199488 0)
(0.16769 0.00193971 0)
(0.16675 0.00188591 0)
(0.165819 0.00183355 0)
(0.164898 0.00178261 0)
(0.163987 0.00173304 0)
(0.163086 0.00168469 0)
(0.162194 0.00163743 0)
(0.161312 0.00159111 0)
(0.160441 0.00154563 0)
(0.15958 0.0015009 0)
(0.158732 0.0014569 0)
(0.157895 0.00141364 0)
(0.157072 0.00137115 0)
(0.156262 0.00132943 0)
(0.155465 0.00128851 0)
(0.154682 0.00124837 0)
(0.153912 0.00120898 0)
(0.153157 0.00117029 0)
(0.152415 0.00113223 0)
(0.151688 0.00109477 0)
(0.150975 0.00105786 0)
(0.150276 0.00102146 0)
(0.149593 0.000985554 0)
(0.148924 0.000950103 0)
(0.14827 0.000915082 0)
(0.147632 0.000880456 0)
(0.14701 0.00084621 0)
(0.146404 0.000812329 0)
(0.145815 0.000778825 0)
(0.145242 0.000745705 0)
(0.144686 0.000712994 0)
(0.144146 0.000680691 0)
(0.143623 0.00064881 0)
(0.143117 0.000617333 0)
(0.142628 0.000586266 0)
(0.142156 0.000555589 0)
(0.1417 0.000525319 0)
(0.141262 0.000495436 0)
(0.140841 0.000465971 0)
(0.140438 0.000436914 0)
(0.140052 0.000408315 0)
(0.139683 0.000380172 0)
(0.139332 0.000352565 0)
(0.138998 0.000325508 0)
(0.138681 0.000299105 0)
(0.138381 0.00027337 0)
(0.138097 0.000248445 0)
(0.137831 0.000224358 0)
(0.13758 0.000201264 0)
(0.137345 0.000179177 0)
(0.137124 0.000158289 0)
(0.136919 0.000138621 0)
(0.136728 0.000120374 0)
(0.13655 0.000103533 0)
(0.136384 8.82739e-05 0)
(0.136231 7.4572e-05 0)
(0.13609 6.25133e-05 0)
(0.135959 5.19632e-05 0)
(0.135837 4.31006e-05 0)
(0.135725 3.56819e-05 0)
(0.135621 2.97073e-05 0)
(0.135525 2.49065e-05 0)
(0.135435 2.1276e-05 0)
(0.135351 1.84829e-05 0)
(0.135273 1.65192e-05 0)
(0.1352 1.50177e-05 0)
(0.135131 1.40194e-05 0)
(0.135066 1.31467e-05 0)
(0.135004 1.25338e-05 0)
(0.134947 1.18107e-05 0)
(0.134892 1.12209e-05 0)
(0.13484 1.04051e-05 0)
(0.13479 9.70584e-06 0)
(0.134744 8.74744e-06 0)
(0.1347 7.96146e-06 0)
(0.134658 6.90341e-06 0)
(0.134619 6.11149e-06 0)
(0.134583 5.03232e-06 0)
(0.134547 4.2825e-06 0)
(0.134516 3.22862e-06 0)
(0.134483 2.63575e-06 0)
(0.134457 1.73998e-06 0)
(0.134428 1.33728e-06 0)
(0.134406 6.46717e-07 0)
(0.134379 4.50069e-07 0)
(0.134362 2.292e-08 0)
(0.134336 -3.26454e-09 0)
(0.134325 -1.52691e-07 0)
(0.134298 -1.07118e-07 0)
(0.134292 -6.7764e-08 0)
(0.134264 -1.50363e-07 0)
(0.194227 0.00740705 0)
(0.194591 0.00835599 0)
(0.195207 0.00924625 0)
(0.196094 0.00994425 0)
(0.197176 0.0103418 0)
(0.198307 0.0104302 0)
(0.199349 0.0102803 0)
(0.200227 0.00997683 0)
(0.200925 0.00958338 0)
(0.201457 0.00914253 0)
(0.201846 0.00868798 0)
(0.202115 0.00824836 0)
(0.202288 0.00784374 0)
(0.202389 0.00748292 0)
(0.202439 0.00716536 0)
(0.202453 0.00688548 0)
(0.20244 0.00663643 0)
(0.202406 0.00641204 0)
(0.202351 0.00620744 0)
(0.202277 0.00601892 0)
(0.202182 0.00584375 0)
(0.202068 0.00568001 0)
(0.201932 0.00552634 0)
(0.201776 0.00538175 0)
(0.201599 0.00524541 0)
(0.201401 0.00511657 0)
(0.201181 0.00499441 0)
(0.200939 0.00487808 0)
(0.200674 0.0047667 0)
(0.200385 0.00465941 0)
(0.200074 0.0045555 0)
(0.19974 0.00445437 0)
(0.199383 0.00435565 0)
(0.199004 0.00425918 0)
(0.198605 0.00416499 0)
(0.198187 0.00407326 0)
(0.19775 0.00398424 0)
(0.197294 0.00389812 0)
(0.196821 0.00381496 0)
(0.196331 0.00373462 0)
(0.195822 0.00365674 0)
(0.195296 0.00358083 0)
(0.194752 0.00350632 0)
(0.194189 0.00343268 0)
(0.19361 0.00335956 0)
(0.193015 0.00328683 0)
(0.192407 0.00321457 0)
(0.191785 0.0031431 0)
(0.191154 0.00307284 0)
(0.190513 0.0030042 0)
(0.189865 0.00293749 0)
(0.189208 0.0028728 0)
(0.188544 0.00281 0)
(0.187871 0.00274877 0)
(0.18719 0.00268863 0)
(0.1865 0.00262913 0)
(0.185803 0.0025699 0)
(0.1851 0.0025108 0)
(0.184392 0.00245189 0)
(0.18368 0.0023934 0)
(0.182967 0.00233569 0)
(0.182255 0.00227909 0)
(0.181542 0.00222383 0)
(0.180831 0.00216996 0)
(0.18012 0.00211739 0)
(0.17941 0.00206586 0)
(0.1787 0.0020151 0)
(0.177991 0.00196483 0)
(0.177283 0.00191489 0)
(0.176577 0.00186522 0)
(0.175874 0.00181586 0)
(0.175176 0.00176693 0)
(0.174483 0.00171854 0)
(0.173797 0.00167079 0)
(0.173116 0.00162373 0)
(0.172443 0.00157735 0)
(0.171776 0.00153162 0)
(0.171117 0.00148648 0)
(0.170466 0.00144187 0)
(0.169823 0.00139774 0)
(0.169188 0.00135404 0)
(0.168561 0.00131072 0)
(0.167943 0.00126772 0)
(0.167335 0.00122499 0)
(0.166736 0.00118248 0)
(0.166148 0.00114021 0)
(0.165571 0.00109817 0)
(0.165005 0.00105643 0)
(0.164452 0.00101503 0)
(0.163911 0.00097405 0)
(0.163383 0.000933492 0)
(0.162868 0.000893385 0)
(0.162366 0.000853704 0)
(0.161876 0.00081445 0)
(0.1614 0.000775586 0)
(0.160937 0.000737127 0)
(0.160488 0.000699041 0)
(0.160053 0.000661366 0)
(0.159631 0.000624088 0)
(0.159224 0.000587284 0)
(0.158831 0.000550957 0)
(0.158453 0.000515227 0)
(0.15809 0.000480118 0)
(0.157741 0.000445782 0)
(0.157407 0.000412241 0)
(0.157088 0.000379682 0)
(0.156784 0.000348131 0)
(0.156494 0.000317791 0)
(0.156218 0.000288667 0)
(0.155956 0.000260995 0)
(0.155707 0.000234778 0)
(0.155471 0.000210272 0)
(0.155248 0.00018743 0)
(0.155036 0.000166463 0)
(0.154837 0.000147301 0)
(0.154649 0.000130147 0)
(0.154471 0.000114848 0)
(0.154304 0.000101555 0)
(0.154146 8.99733e-05 0)
(0.153998 8.01789e-05 0)
(0.153858 7.18596e-05 0)
(0.153726 6.50369e-05 0)
(0.153602 5.93229e-05 0)
(0.153484 5.47227e-05 0)
(0.153373 5.08144e-05 0)
(0.153267 4.76377e-05 0)
(0.153168 4.47699e-05 0)
(0.153073 4.23272e-05 0)
(0.152983 3.9918e-05 0)
(0.152897 3.77451e-05 0)
(0.152817 3.54672e-05 0)
(0.152738 3.3351e-05 0)
(0.152665 3.10983e-05 0)
(0.152594 2.90013e-05 0)
(0.152529 2.67872e-05 0)
(0.152463 2.47512e-05 0)
(0.152405 2.26364e-05 0)
(0.152344 2.07375e-05 0)
(0.152294 1.88281e-05 0)
(0.152237 1.71121e-05 0)
(0.152195 1.54866e-05 0)
(0.152141 1.39902e-05 0)
(0.152106 1.27482e-05 0)
(0.152054 1.14905e-05 0)
(0.152027 1.06966e-05 0)
(0.151975 9.64058e-06 0)
(0.151957 9.27871e-06 0)
(0.151903 8.33424e-06 0)
(0.151894 8.25967e-06 0)
(0.151837 7.28366e-06 0)
(0.194837 0.00713537 0)
(0.19518 0.0079311 0)
(0.195716 0.00867256 0)
(0.196454 0.00927341 0)
(0.197347 0.00965437 0)
(0.1983 0.00979029 0)
(0.199209 0.00971666 0)
(0.200003 0.00949628 0)
(0.200655 0.00918634 0)
(0.201169 0.00882766 0)
(0.201563 0.0084494 0)
(0.201856 0.00807449 0)
(0.202068 0.00772019 0)
(0.202217 0.00739644 0)
(0.202321 0.00710589 0)
(0.202394 0.0068462 0)
(0.202444 0.00661281 0)
(0.202479 0.00640104 0)
(0.2025 0.00620702 0)
(0.20251 0.00602783 0)
(0.202508 0.00586132 0)
(0.202496 0.00570591 0)
(0.202473 0.00556047 0)
(0.20244 0.00542417 0)
(0.202398 0.00529629 0)
(0.202345 0.00517613 0)
(0.202281 0.00506297 0)
(0.202207 0.00495601 0)
(0.202121 0.00485437 0)
(0.202024 0.00475715 0)
(0.201914 0.0046635 0)
(0.201792 0.00457268 0)
(0.201656 0.00448414 0)
(0.201508 0.00439754 0)
(0.201348 0.00431285 0)
(0.201175 0.0042302 0)
(0.20099 0.00414993 0)
(0.200794 0.00407236 0)
(0.200586 0.00399774 0)
(0.200367 0.00392611 0)
(0.200135 0.00385725 0)
(0.19989 0.00379067 0)
(0.199631 0.00372571 0)
(0.199358 0.00366163 0)
(0.19907 0.00359775 0)
(0.198768 0.00353363 0)
(0.198451 0.00346912 0)
(0.198123 0.00340441 0)
(0.197782 0.00333996 0)
(0.197432 0.00327639 0)
(0.197072 0.00321431 0)
(0.196703 0.00315418 0)
(0.196326 0.00309613 0)
(0.195938 0.00303995 0)
(0.19554 0.00298514 0)
(0.195131 0.002931 0)
(0.19471 0.00287681 0)
(0.194278 0.00282207 0)
(0.193835 0.00276653 0)
(0.193383 0.00271034 0)
(0.192924 0.00265392 0)
(0.192459 0.00259787 0)
(0.19199 0.00254277 0)
(0.191517 0.00248901 0)
(0.191041 0.00243671 0)
(0.190559 0.00238567 0)
(0.190073 0.0023355 0)
(0.189582 0.00228572 0)
(0.189085 0.00223589 0)
(0.188583 0.00218576 0)
(0.188077 0.00213529 0)
(0.187568 0.00208461 0)
(0.187058 0.00203395 0)
(0.186547 0.00198353 0)
(0.186037 0.00193353 0)
(0.185527 0.00188402 0)
(0.185018 0.00183501 0)
(0.184511 0.00178644 0)
(0.184006 0.00173829 0)
(0.183502 0.00169051 0)
(0.183001 0.00164306 0)
(0.182502 0.00159588 0)
(0.182005 0.00154887 0)
(0.181512 0.0015019 0)
(0.181021 0.00145484 0)
(0.180535 0.00140765 0)
(0.180053 0.00136034 0)
(0.179577 0.00131302 0)
(0.179107 0.00126581 0)
(0.178645 0.00121888 0)
(0.17819 0.0011723 0)
(0.177743 0.00112615 0)
(0.177304 0.00108042 0)
(0.176873 0.00103512 0)
(0.176451 0.000990182 0)
(0.176037 0.000945621 0)
(0.175631 0.000901367 0)
(0.175234 0.000857445 0)
(0.174846 0.000813813 0)
(0.174467 0.000770551 0)
(0.174098 0.000727661 0)
(0.173739 0.000685299 0)
(0.17339 0.000643506 0)
(0.173052 0.000602488 0)
(0.172725 0.000562291 0)
(0.172409 0.000523161 0)
(0.172105 0.000485127 0)
(0.171811 0.000448453 0)
(0.171528 0.000413132 0)
(0.171256 0.00037945 0)
(0.170995 0.000347379 0)
(0.170744 0.000317208 0)
(0.170503 0.000288846 0)
(0.170272 0.00026257 0)
(0.170051 0.000238273 0)
(0.169838 0.0002162 0)
(0.169636 0.00019614 0)
(0.169443 0.000178278 0)
(0.169258 0.000162341 0)
(0.169082 0.000148434 0)