/*--------------------------------*- C++ -*----------------------------------*\
| =========                 |                                                 |
| \\      /  F ield         | OpenFOAM: The Open Source CFD Toolbox           |
|  \\    /   O peration     | Version:  2.3.0                                 |
|   \\  /    A nd           | Web:      www.OpenFOAM.org                      |
|    \\/     M anipulation  |                                                 |
\*---------------------------------------------------------------------------*/
FoamFile
{
    version     2.0;
    format      ascii;
    class       volVectorField;
    location    "0.35";
    object      U_0;
}
// * * * * * * * * * * * * * * * * * * * * * * * * * * * * * * * * * * * * * //

dimensions      [0 1 -1 0 0 0 0];

internalField   nonuniform List<vector> 
1500
(
(0.170768 0.00605131 0)
(0.154007 0.00612524 0)
(0.137881 0.00570317 0)
(0.122592 0.0050945 0)
(0.108562 0.00441761 0)
(0.0959696 0.00372748 0)
(0.0848366 0.00306294 0)
(0.075134 0.00245147 0)
(0.0668075 0.00191032 0)
(0.0597701 0.00144866 0)
(0.0539025 0.00106901 0)
(0.0490639 0.000768056 0)
(0.0451042 0.000538056 0)
(0.0418748 0.000368551 0)
(0.0392377 0.000248144 0)
(0.0370702 0.000165844 0)
(0.0352688 0.000111912 0)
(0.0337491 7.82299e-05 0)
(0.032445 5.83681e-05 0)
(0.0313062 4.74652e-05 0)
(0.0302953 4.20147e-05 0)
(0.0293852 3.96143e-05 0)
(0.0285564 3.87124e-05 0)
(0.027795 3.8376e-05 0)
(0.0270909 3.80961e-05 0)
(0.0264367 3.76355e-05 0)
(0.0258268 3.69186e-05 0)
(0.0252567 3.59564e-05 0)
(0.0247226 3.47984e-05 0)
(0.0242213 3.35056e-05 0)
(0.0237501 3.21354e-05 0)
(0.0233063 3.07355e-05 0)
(0.0228878 2.93419e-05 0)
(0.0224923 2.79798e-05 0)
(0.0221182 2.66652e-05 0)
(0.0217636 2.54074e-05 0)
(0.0214271 2.42106e-05 0)
(0.0211074 2.30751e-05 0)
(0.0208031 2.19994e-05 0)
(0.0205133 2.09801e-05 0)
(0.020237 2.00135e-05 0)
(0.0199734 1.90951e-05 0)
(0.0197217 1.82208e-05 0)
(0.0194813 1.73863e-05 0)
(0.0192515 1.65876e-05 0)
(0.019032 1.58212e-05 0)
(0.0188223 1.50838e-05 0)
(0.018622 1.43722e-05 0)
(0.0184308 1.36839e-05 0)
(0.0182484 1.30165e-05 0)
(0.0180745 1.23676e-05 0)
(0.017909 1.17355e-05 0)
(0.0177516 1.11184e-05 0)
(0.0176023 1.05147e-05 0)
(0.0174608 9.92288e-06 0)
(0.0173271 9.34171e-06 0)
(0.0172011 8.77007e-06 0)
(0.0170828 8.20711e-06 0)
(0.016972 7.65245e-06 0)
(0.0168687 7.10636e-06 0)
(0.0167729 6.56994e-06 0)
(0.0166845 6.04509e-06 0)
(0.0166034 5.53404e-06 0)
(0.0165296 5.03817e-06 0)
(0.0164631 4.55577e-06 0)
(0.0164036 4.07888e-06 0)
(0.0163514 3.58913e-06 0)
(0.0163065 3.05499e-06 0)
(0.0162693 2.43765e-06 0)
(0.0162403 1.72713e-06 0)
(0.0162203 1.00035e-06 0)
(0.0162103 4.18918e-07 0)
(0.0162108 -2.31669e-07 0)
(0.0162186 -8.02547e-07 0)
(0.0162321 -1.36684e-06 0)
(0.0162499 -1.78804e-06 0)
(0.0162706 -2.04614e-06 0)
(0.0162929 -2.18968e-06 0)
(0.016316 -2.1981e-06 0)
(0.0163388 -2.11256e-06 0)
(0.0163606 -1.97846e-06 0)
(0.016381 -1.80331e-06 0)
(0.0163997 -1.60606e-06 0)
(0.0164165 -1.40451e-06 0)
(0.0164313 -1.20802e-06 0)
(0.0164443 -1.02471e-06 0)
(0.0164556 -8.59991e-07 0)
(0.0164653 -7.16398e-07 0)
(0.0164737 -5.94704e-07 0)
(0.0164809 -4.94421e-07 0)
(0.0164872 -4.14083e-07 0)
(0.0164927 -3.51623e-07 0)
(0.0164976 -3.04677e-07 0)
(0.016502 -2.70865e-07 0)
(0.0165061 -2.48006e-07 0)
(0.0165099 -2.34234e-07 0)
(0.0165137 -2.29399e-07 0)
(0.0165174 -2.49896e-07 0)
(0.016521 -4.54338e-07 0)
(0.0165362 -2.06457e-06 0)
(0.189997 0.00961327 0)
(0.187734 0.0101609 0)
(0.183895 0.00996863 0)
(0.178815 0.0094898 0)
(0.172975 0.00886277 0)
(0.166715 0.00813516 0)
(0.160254 0.0073468 0)
(0.153757 0.00653494 0)
(0.147359 0.00573144 0)
(0.141164 0.00496294 0)
(0.135242 0.00425069 0)
(0.129636 0.00360963 0)
(0.12437 0.00304802 0)
(0.11945 0.00256778 0)
(0.114873 0.00216566 0)
(0.110627 0.00183463 0)
(0.106694 0.00156552 0)
(0.103055 0.00134834 0)
(0.0996878 0.00117342 0)
(0.096571 0.00103202 0)
(0.0936834 0.000916781 0)
(0.091005 0.000821713 0)
(0.0885171 0.000742168 0)
(0.0862024 0.000674621 0)
(0.0840452 0.000616459 0)
(0.0820313 0.000565764 0)
(0.0801478 0.000521135 0)
(0.0783831 0.000481535 0)
(0.0767268 0.000446187 0)
(0.0751695 0.000414487 0)
(0.0737027 0.000385954 0)
(0.0723189 0.000360193 0)
(0.0710113 0.000336868 0)
(0.0697737 0.00031569 0)
(0.0686006 0.000296405 0)
(0.0674872 0.00027879 0)
(0.066429 0.000262647 0)
(0.0654222 0.000247801 0)
(0.0644631 0.000234097 0)
(0.0635487 0.000221398 0)
(0.0626762 0.000209584 0)
(0.061843 0.00019855 0)
(0.0610471 0.000188203 0)
(0.0602864 0.000178461 0)
(0.0595592 0.000169255 0)
(0.058864 0.000160521 0)
(0.0581995 0.000152205 0)
(0.0575645 0.00014426 0)
(0.0569579 0.000136644 0)
(0.0563788 0.00012932 0)
(0.0558266 0.000122255 0)
(0.0553005 0.000115423 0)
(0.0548 0.000108797 0)
(0.0543247 0.000102356 0)
(0.053874 9.60807e-05 0)
(0.0534477 8.99557e-05 0)
(0.0530456 8.39669e-05 0)
(0.0526673 7.81033e-05 0)
(0.0523128 7.2357e-05 0)
(0.0519819 6.67234e-05 0)
(0.0516744 6.12009e-05 0)
(0.0513903 5.57904e-05 0)
(0.0511294 5.04926e-05 0)
(0.0508915 4.53042e-05 0)
(0.0506768 4.02118e-05 0)
(0.0504851 3.51837e-05 0)
(0.0503165 3.01629e-05 0)
(0.0501713 2.50617e-05 0)
(0.0500499 1.97687e-05 0)
(0.0499529 1.41904e-05 0)
(0.0498806 8.32747e-06 0)
(0.0498332 2.34898e-06 0)
(0.0498118 -3.30476e-06 0)
(0.0498157 -7.39265e-06 0)
(0.0498369 -9.93153e-06 0)
(0.0498702 -1.14903e-05 0)
(0.0499118 -1.23842e-05 0)
(0.0499585 -1.28294e-05 0)
(0.0500076 -1.27574e-05 0)
(0.050057 -1.2268e-05 0)
(0.0501052 -1.15077e-05 0)
(0.0501509 -1.05376e-05 0)
(0.0501935 -9.45938e-06 0)
(0.0502324 -8.36544e-06 0)
(0.0502676 -7.30949e-06 0)
(0.0502991 -6.33055e-06 0)
(0.0503272 -5.45228e-06 0)
(0.0503522 -4.68492e-06 0)
(0.0503744 -4.03023e-06 0)
(0.0503942 -3.48407e-06 0)
(0.050412 -3.03811e-06 0)
(0.0504281 -2.68165e-06 0)
(0.0504428 -2.40335e-06 0)
(0.0504564 -2.19288e-06 0)
(0.0504692 -2.04308e-06 0)
(0.0504813 -1.95403e-06 0)
(0.0504931 -1.94713e-06 0)
(0.0505049 -2.12973e-06 0)
(0.0505173 -3.01753e-06 0)
(0.0505435 -6.70263e-06 0)
(0.193007 0.00916888 0)
(0.193754 0.0101549 0)
(0.193944 0.0105411 0)
(0.193412 0.0105991 0)
(0.192242 0.010422 0)
(0.190534 0.0100449 0)
(0.188364 0.00951155 0)
(0.185807 0.00887182 0)
(0.182947 0.00817273 0)
(0.179864 0.00745491 0)
(0.176633 0.00675148 0)
(0.173316 0.0060871 0)
(0.169964 0.00547764 0)
(0.166618 0.00493093 0)
(0.163309 0.00444828 0)
(0.160059 0.00402638 0)
(0.156884 0.00365917 0)
(0.153793 0.00333942 0)
(0.150792 0.00305986 0)
(0.147885 0.00281385 0)
(0.145073 0.00259572 0)
(0.142355 0.00240086 0)
(0.139731 0.00222558 0)
(0.137199 0.00206701 0)
(0.134757 0.0019229 0)
(0.132403 0.0017915 0)
(0.130136 0.00167139 0)
(0.127951 0.0015614 0)
(0.125848 0.00146055 0)
(0.123823 0.00136799 0)
(0.121874 0.00128295 0)
(0.119997 0.00120474 0)
(0.118191 0.00113274 0)
(0.116453 0.00106636 0)
(0.114779 0.00100508 0)
(0.113168 0.000948406 0)
(0.111618 0.000895893 0)
(0.110124 0.00084713 0)
(0.108687 0.000801743 0)
(0.107302 0.000759392 0)
(0.105969 0.000719767 0)
(0.104685 0.000682588 0)
(0.103449 0.000647601 0)
(0.102259 0.000614579 0)
(0.101114 0.000583316 0)
(0.100012 0.000553625 0)
(0.0989521 0.000525339 0)
(0.0979333 0.00049831 0)
(0.0969547 0.000472401 0)
(0.0960154 0.000447492 0)
(0.0951147 0.000423476 0)
(0.094252 0.000400255 0)
(0.093427 0.000377745 0)
(0.0926391 0.000355869 0)
(0.091888 0.00033456 0)
(0.0911736 0.000313762 0)
(0.0904957 0.000293424 0)
(0.0898543 0.000273508 0)
(0.0892491 0.000253981 0)
(0.0886804 0.000234822 0)
(0.0881479 0.000216013 0)
(0.0876519 0.000197546 0)
(0.0871924 0.000179409 0)
(0.0867693 0.000161587 0)
(0.0863829 0.000144045 0)
(0.0860332 0.000126729 0)
(0.0857203 0.000109555 0)
(0.0854445 9.24282e-05 0)
(0.0852058 7.52614e-05 0)
(0.0850039 5.80255e-05 0)
(0.084838 4.07893e-05 0)
(0.0847064 2.37194e-05 0)
(0.0846045 7.31514e-06 0)
(0.0845324 -7.559e-06 0)
(0.0844986 -1.92997e-05 0)
(0.0844941 -2.68395e-05 0)
(0.0845104 -3.08522e-05 0)
(0.0845417 -3.26186e-05 0)
(0.0845831 -3.28042e-05 0)
(0.0846309 -3.19454e-05 0)
(0.0846819 -3.04223e-05 0)
(0.084734 -2.83636e-05 0)
(0.0847854 -2.59692e-05 0)
(0.0848349 -2.34406e-05 0)
(0.0848819 -2.09228e-05 0)
(0.084926 -1.85321e-05 0)
(0.0849669 -1.63447e-05 0)
(0.0850049 -1.43999e-05 0)
(0.0850399 -1.27117e-05 0)
(0.0850724 -1.12759e-05 0)
(0.0851026 -1.00767e-05 0)
(0.0851308 -9.09101e-06 0)
(0.0851572 -8.29374e-06 0)
(0.0851822 -7.66215e-06 0)
(0.085206 -7.18184e-06 0)
(0.0852289 -6.858e-06 0)
(0.085251 -6.74746e-06 0)
(0.085273 -7.06882e-06 0)
(0.0852949 -8.59362e-06 0)
(0.0853271 -1.30761e-05 0)
(0.194133 0.00849556 0)
(0.195129 0.00954856 0)
(0.196083 0.0101455 0)
(0.196788 0.0104372 0)
(0.197211 0.0104978 0)
(0.197349 0.0103574 0)
(0.197192 0.010049 0)
(0.196737 0.0096133 0)
(0.196 0.0090913 0)
(0.195008 0.00852036 0)
(0.193796 0.00793273 0)
(0.192401 0.00735432 0)
(0.190861 0.00680395 0)
(0.18921 0.00629339 0)
(0.187477 0.00582836 0)
(0.185688 0.00540983 0)
(0.183862 0.00503557 0)
(0.182015 0.00470149 0)
(0.180158 0.00440268 0)
(0.178299 0.00413417 0)
(0.176445 0.00389138 0)
(0.1746 0.00367032 0)
(0.172767 0.00346769 0)
(0.17095 0.00328082 0)
(0.169152 0.0031076 0)
(0.167373 0.00294637 0)
(0.165615 0.00279583 0)
(0.16388 0.00265493 0)
(0.16217 0.00252281 0)
(0.160485 0.00239876 0)
(0.158826 0.00228216 0)
(0.157194 0.00217245 0)
(0.155591 0.00206913 0)
(0.154015 0.00197173 0)
(0.152469 0.00187982 0)
(0.150952 0.00179299 0)
(0.149465 0.00171086 0)
(0.148008 0.00163305 0)
(0.146581 0.00155925 0)
(0.145184 0.00148912 0)
(0.143819 0.00142236 0)
(0.142484 0.0013587 0)
(0.141181 0.00129786 0)
(0.139909 0.00123962 0)
(0.138668 0.00118372 0)
(0.137459 0.00112997 0)
(0.136282 0.00107817 0)
(0.135137 0.00102812 0)
(0.134025 0.000979671 0)
(0.132946 0.000932651 0)
(0.1319 0.000886921 0)
(0.130888 0.000842349 0)
(0.12991 0.000798815 0)
(0.128967 0.000756212 0)
(0.128059 0.000714443 0)
(0.127187 0.000673424 0)
(0.126351 0.000633083 0)
(0.125551 0.000593362 0)
(0.12479 0.000554214 0)
(0.124066 0.000515604 0)
(0.123382 0.000477511 0)
(0.122737 0.000439919 0)
(0.122131 0.000402814 0)
(0.121567 0.000366178 0)
(0.121043 0.000329979 0)
(0.120561 0.000294171 0)
(0.120121 0.000258699 0)
(0.119724 0.000223523 0)
(0.119369 0.000188674 0)
(0.119055 0.000154337 0)
(0.118783 0.000120947 0)
(0.11855 8.92098e-05 0)
(0.118353 5.97267e-05 0)
(0.118189 3.25168e-05 0)
(0.118048 8.41075e-06 0)
(0.117935 -1.18623e-05 0)
(0.117857 -2.80458e-05 0)
(0.117812 -3.93496e-05 0)
(0.117791 -4.5786e-05 0)
(0.117789 -4.85389e-05 0)
(0.117801 -4.88343e-05 0)
(0.117823 -4.74584e-05 0)
(0.117853 -4.50544e-05 0)
(0.117887 -4.20789e-05 0)
(0.117924 -3.882e-05 0)
(0.117963 -3.55074e-05 0)
(0.118003 -3.23103e-05 0)
(0.118043 -2.93406e-05 0)
(0.118082 -2.66642e-05 0)
(0.118121 -2.431e-05 0)
(0.118158 -2.22797e-05 0)
(0.118195 -2.0556e-05 0)
(0.118232 -1.91124e-05 0)
(0.118267 -1.79212e-05 0)
(0.118302 -1.6964e-05 0)
(0.118336 -1.62483e-05 0)
(0.118369 -1.58464e-05 0)
(0.118402 -1.60006e-05 0)
(0.118434 -1.74081e-05 0)
(0.118474 -2.11981e-05 0)
(0.195008 0.00797612 0)
(0.195808 0.00893314 0)
(0.196703 0.00954768 0)
(0.197543 0.00990076 0)
(0.198279 0.0100532 0)
(0.198895 0.0100334 0)
(0.199367 0.00986512 0)
(0.199672 0.00957763 0)
(0.1998 0.00920215 0)
(0.199751 0.00876865 0)
(0.199535 0.00830417 0)
(0.199169 0.00783171 0)
(0.19867 0.00736921 0)
(0.198059 0.00692924 0)
(0.197357 0.00651928 0)
(0.196582 0.00614265 0)
(0.195748 0.00579953 0)
(0.194869 0.00548803 0)
(0.193953 0.00520513 0)
(0.193008 0.00494737 0)
(0.19204 0.00471131 0)
(0.191053 0.00449387 0)
(0.19005 0.00429237 0)
(0.189033 0.00410462 0)
(0.188005 0.00392886 0)
(0.186967 0.00376369 0)
(0.18592 0.003608 0)
(0.184867 0.00346089 0)
(0.183808 0.00332163 0)
(0.182745 0.00318962 0)
(0.18168 0.0030643 0)
(0.180612 0.00294519 0)
(0.179543 0.00283185 0)
(0.178475 0.00272387 0)
(0.177409 0.00262086 0)
(0.176345 0.00252244 0)
(0.175285 0.00242827 0)
(0.174229 0.00233801 0)
(0.173178 0.00225134 0)
(0.172134 0.00216796 0)
(0.171097 0.0020876 0)
(0.170068 0.00200998 0)
(0.169049 0.00193486 0)
(0.16804 0.00186199 0)
(0.167042 0.00179117 0)
(0.166056 0.00172217 0)
(0.165083 0.00165482 0)
(0.164125 0.00158892 0)
(0.163181 0.00152431 0)
(0.162254 0.00146084 0)
(0.161345 0.00139837 0)
(0.160454 0.00133676 0)
(0.159583 0.00127589 0)
(0.158732 0.00121567 0)
(0.157904 0.00115599 0)
(0.157099 0.00109678 0)
(0.156319 0.00103798 0)
(0.155564 0.000979529 0)
(0.154837 0.000921399 0)
(0.154137 0.000863568 0)
(0.153468 0.000806029 0)
(0.152828 0.000748786 0)
(0.152221 0.000691847 0)
(0.151647 0.000635221 0)
(0.151107 0.000578914 0)
(0.150602 0.000522933 0)
(0.150132 0.000467307 0)
(0.1497 0.000412117 0)
(0.149304 0.000357565 0)
(0.148944 0.000304043 0)
(0.148621 0.000252199 0)
(0.148332 0.000202935 0)
(0.148077 0.000157306 0)
(0.147853 0.000116371 0)
(0.147658 8.04696e-05 0)
(0.14749 4.88789e-05 0)
(0.147339 2.1438e-05 0)
(0.147207 -1.16301e-06 0)
(0.147097 -1.91049e-05 0)
(0.147013 -3.26995e-05 0)
(0.146952 -4.19214e-05 0)
(0.14691 -4.73007e-05 0)
(0.146883 -4.97958e-05 0)
(0.14687 -5.03084e-05 0)
(0.146867 -4.95106e-05 0)
(0.146873 -4.79102e-05 0)
(0.146885 -4.58629e-05 0)
(0.146903 -4.36205e-05 0)
(0.146926 -4.13611e-05 0)
(0.146952 -3.92036e-05 0)
(0.146981 -3.72188e-05 0)
(0.147012 -3.54413e-05 0)
(0.147045 -3.38812e-05 0)
(0.147079 -3.2536e-05 0)
(0.147115 -3.14044e-05 0)
(0.147152 -3.05047e-05 0)
(0.14719 -2.99069e-05 0)
(0.147229 -2.97966e-05 0)
(0.147267 -3.0564e-05 0)
(0.147311 -3.23587e-05 0)
(0.195791 0.00753708 0)
(0.196392 0.00836307 0)
(0.197107 0.00894524 0)
(0.197834 0.00931518 0)
(0.198527 0.00951217 0)
(0.199163 0.00955967 0)
(0.199724 0.0094764 0)
(0.20019 0.00928455 0)
(0.200549 0.00900887 0)
(0.200795 0.00867389 0)
(0.200931 0.00830224 0)
(0.200964 0.00791366 0)
(0.200902 0.0075242 0)
(0.200759 0.00714579 0)
(0.200547 0.00678638 0)
(0.200278 0.00645039 0)
(0.199964 0.00613952 0)
(0.199612 0.00585349 0)
(0.199231 0.00559077 0)
(0.198825 0.00534922 0)
(0.198399 0.00512644 0)
(0.197955 0.00492013 0)
(0.197496 0.00472819 0)
(0.197022 0.00454881 0)
(0.196535 0.00438047 0)
(0.196035 0.00422192 0)
(0.195524 0.00407213 0)
(0.195001 0.00393024 0)
(0.194467 0.00379556 0)
(0.193923 0.00366747 0)
(0.193369 0.00354544 0)
(0.192805 0.003429 0)
(0.192233 0.0033177 0)
(0.191652 0.00321115 0)
(0.191064 0.00310897 0)
(0.190468 0.00301079 0)
(0.189866 0.00291627 0)
(0.189257 0.00282509 0)
(0.188643 0.00273694 0)
(0.188025 0.00265153 0)
(0.187402 0.00256857 0)
(0.186776 0.00248781 0)
(0.186147 0.00240898 0)
(0.185516 0.00233186 0)
(0.184885 0.00225621 0)
(0.184253 0.00218184 0)
(0.183621 0.00210853 0)
(0.182992 0.0020361 0)
(0.182364 0.00196439 0)
(0.181741 0.00189322 0)
(0.181121 0.00182246 0)
(0.180508 0.00175196 0)
(0.179901 0.0016816 0)
(0.179302 0.00161128 0)
(0.178712 0.0015409 0)
(0.178132 0.00147039 0)
(0.177564 0.00139969 0)
(0.177009 0.00132875 0)
(0.176468 0.00125756 0)
(0.175942 0.0011861 0)
(0.175434 0.00111439 0)
(0.174943 0.00104245 0)
(0.174471 0.000970331 0)
(0.17402 0.000898073 0)
(0.17359 0.00082574 0)
(0.173183 0.000753419 0)
(0.1728 0.000681242 0)
(0.172441 0.000609436 0)
(0.172106 0.000538372 0)
(0.171797 0.000468633 0)
(0.171512 0.00040104 0)
(0.171251 0.000336623 0)
(0.171014 0.000276499 0)
(0.170799 0.000221656 0)
(0.170607 0.000172666 0)
(0.170435 0.000129941 0)
(0.170283 9.3626e-05 0)
(0.170149 6.3039e-05 0)
(0.170029 3.71102e-05 0)
(0.16992 1.54642e-05 0)
(0.169822 -1.95142e-06 0)
(0.169738 -1.56441e-05 0)
(0.16967 -2.60252e-05 0)
(0.169615 -3.34248e-05 0)
(0.169572 -3.84297e-05 0)
(0.16954 -4.1676e-05 0)
(0.169518 -4.36763e-05 0)
(0.169504 -4.4814e-05 0)
(0.169497 -4.53741e-05 0)
(0.169496 -4.55678e-05 0)
(0.169501 -4.55461e-05 0)
(0.169511 -4.54109e-05 0)
(0.169526 -4.52281e-05 0)
(0.169544 -4.50401e-05 0)
(0.169566 -4.4879e-05 0)
(0.169591 -4.47822e-05 0)
(0.16962 -4.48101e-05 0)
(0.16965 -4.50536e-05 0)
(0.169682 -4.5533e-05 0)
(0.16972 -4.53624e-05 0)
(0.196502 0.00717522 0)
(0.196951 0.0078786 0)
(0.197501 0.0084123 0)
(0.198086 0.00877906 0)
(0.198665 0.00899837 0)
(0.199214 0.0090871 0)
(0.199716 0.00906025 0)
(0.200157 0.00893517 0)
(0.200526 0.00873156 0)
(0.200818 0.0084695 0)
(0.201033 0.00816791 0)
(0.201175 0.00784362 0)
(0.20125 0.00751077 0)
(0.201267 0.00718044 0)
(0.201235 0.00686057 0)
(0.201163 0.00655629 0)
(0.201058 0.00627034 0)
(0.20093 0.00600369 0)
(0.200781 0.00575607 0)
(0.200619 0.00552641 0)
(0.200444 0.00531325 0)
(0.20026 0.00511499 0)
(0.200068 0.00493006 0)
(0.199869 0.004757 0)
(0.199663 0.00459453 0)
(0.199451 0.00444156 0)
(0.199233 0.00429713 0)
(0.199008 0.00416043 0)
(0.198777 0.00403077 0)
(0.19854 0.00390755 0)
(0.198297 0.00379021 0)
(0.198047 0.00367827 0)
(0.197791 0.00357128 0)
(0.197529 0.00346883 0)
(0.19726 0.00337051 0)
(0.196985 0.00327595 0)
(0.196703 0.00318479 0)
(0.196416 0.0030967 0)
(0.196123 0.00301135 0)
(0.195824 0.00292842 0)
(0.19552 0.00284762 0)
(0.195211 0.00276866 0)
(0.194896 0.00269128 0)
(0.194577 0.00261522 0)
(0.194254 0.00254022 0)
(0.193927 0.00246608 0)
(0.193597 0.00239255 0)
(0.193263 0.00231945 0)
(0.192928 0.00224656 0)
(0.19259 0.00217373 0)
(0.192252 0.00210078 0)
(0.191913 0.00202755 0)
(0.191574 0.00195392 0)
(0.191236 0.00187976 0)
(0.1909 0.00180496 0)
(0.190566 0.00172945 0)
(0.190236 0.00165315 0)
(0.18991 0.00157603 0)
(0.189589 0.00149806 0)
(0.189274 0.00141923 0)
(0.188967 0.00133958 0)
(0.188667 0.00125913 0)
(0.188377 0.00117797 0)
(0.188096 0.00109617 0)
(0.187826 0.00101386 0)
(0.187567 0.000931187 0)
(0.187321 0.000848392 0)
(0.187087 0.000765819 0)
(0.186866 0.000683974 0)
(0.186659 0.000603565 0)
(0.186464 0.00052551 0)
(0.186283 0.000450889 0)
(0.186114 0.000380818 0)
(0.185958 0.000316282 0)
(0.185816 0.000257966 0)
(0.185686 0.000206273 0)
(0.185568 0.000161229 0)
(0.185463 0.000122583 0)
(0.185369 9.01137e-05 0)
(0.185285 6.32995e-05 0)
(0.185211 4.11542e-05 0)
(0.185145 2.27555e-05 0)
(0.185084 7.58316e-06 0)
(0.185029 -4.7299e-06 0)
(0.184983 -1.45761e-05 0)
(0.184944 -2.23356e-05 0)
(0.184911 -2.84362e-05 0)
(0.184885 -3.32764e-05 0)
(0.184864 -3.7174e-05 0)
(0.184849 -4.03758e-05 0)
(0.184838 -4.30685e-05 0)
(0.184832 -4.5388e-05 0)
(0.18483 -4.74304e-05 0)
(0.184832 -4.92627e-05 0)
(0.184838 -5.09345e-05 0)
(0.184847 -5.24871e-05 0)
(0.184859 -5.39557e-05 0)
(0.184875 -5.53362e-05 0)
(0.184892 -5.63881e-05 0)
(0.184915 -5.57729e-05 0)
(0.197153 0.00687868 0)
(0.197486 0.00747676 0)
(0.1979 0.00795577 0)
(0.198353 0.00830629 0)
(0.198814 0.0085345 0)
(0.199261 0.00865054 0)
(0.199676 0.00866549 0)
(0.20005 0.00859243 0)
(0.200372 0.0084465 0)
(0.200637 0.0082437 0)
(0.200846 0.00799955 0)
(0.201 0.0077283 0)
(0.201103 0.00744234 0)
(0.201162 0.00715179 0)
(0.201184 0.00686445 0)
(0.201175 0.00658583 0)
(0.201143 0.00631948 0)
(0.201093 0.00606735 0)
(0.201029 0.00583019 0)
(0.200956 0.00560792 0)
(0.200877 0.00539991 0)
(0.200793 0.00520525 0)
(0.200707 0.00502293 0)
(0.200618 0.00485188 0)
(0.200528 0.00469111 0)
(0.200436 0.00453972 0)
(0.200344 0.00439686 0)
(0.20025 0.00426182 0)
(0.200155 0.00413393 0)
(0.200058 0.00401258 0)
(0.19996 0.00389725 0)
(0.199859 0.00378742 0)
(0.199757 0.00368264 0)
(0.199653 0.00358247 0)
(0.199546 0.00348648 0)
(0.199437 0.0033943 0)
(0.199325 0.00330553 0)
(0.19921 0.00321982 0)
(0.199093 0.00313682 0)
(0.198972 0.00305621 0)
(0.198849 0.00297765 0)
(0.198723 0.00290085 0)
(0.198594 0.00282552 0)
(0.198462 0.00275137 0)
(0.198328 0.00267814 0)
(0.19819 0.00260558 0)
(0.19805 0.00253345 0)
(0.197908 0.00246152 0)
(0.197763 0.00238957 0)
(0.197616 0.00231741 0)
(0.197467 0.00224485 0)
(0.197317 0.00217171 0)
(0.197165 0.00209785 0)
(0.197012 0.00202311 0)
(0.196859 0.00194739 0)
(0.196705 0.00187058 0)
(0.196551 0.0017926 0)
(0.196398 0.00171339 0)
(0.196246 0.00163294 0)
(0.196096 0.00155123 0)
(0.195947 0.00146829 0)
(0.195801 0.00138416 0)
(0.195658 0.00129894 0)
(0.195518 0.00121273 0)
(0.195383 0.00112569 0)
(0.195251 0.00103804 0)
(0.195124 0.0009501 0)
(0.195002 0.00086228 0)
(0.194885 0.000775167 0)
(0.194773 0.000689521 0)
(0.194666 0.000606277 0)
(0.194564 0.000526491 0)
(0.194467 0.000451231 0)
(0.194375 0.000381445 0)
(0.19429 0.000317828 0)
(0.19421 0.000260801 0)
(0.194137 0.000210496 0)
(0.194071 0.000166798 0)
(0.194011 0.000129412 0)
(0.193958 9.78085e-05 0)
(0.19391 7.13671e-05 0)
(0.193869 4.95302e-05 0)
(0.193832 3.15713e-05 0)
(0.1938 1.66774e-05 0)
(0.193771 4.27955e-06 0)
(0.193746 -5.99741e-06 0)
(0.193724 -1.45078e-05 0)
(0.193705 -2.16037e-05 0)
(0.193689 -2.76025e-05 0)
(0.193676 -3.27633e-05 0)
(0.193666 -3.72879e-05 0)
(0.193658 -4.1328e-05 0)
(0.193653 -4.49942e-05 0)
(0.19365 -4.83644e-05 0)
(0.193649 -5.14931e-05 0)
(0.19365 -5.44156e-05 0)
(0.193653 -5.71412e-05 0)
(0.193658 -5.96073e-05 0)
(0.193665 -6.15071e-05 0)
(0.193676 -6.17842e-05 0)
(0.19772 0.00664456 0)
(0.197968 0.00716056 0)
(0.198275 0.00759 0)
(0.198619 0.00792035 0)
(0.198976 0.00815035 0)
(0.199327 0.00828456 0)
(0.19966 0.00833028 0)
(0.199963 0.00829699 0)
(0.200228 0.00819617 0)
(0.200453 0.00804038 0)
(0.200634 0.00784233 0)
(0.200773 0.00761408 0)
(0.200873 0.00736646 0)
(0.200938 0.00710872 0)
(0.200973 0.00684834 0)
(0.200984 0.00659103 0)
(0.200976 0.00634084 0)
(0.200953 0.00610046 0)
(0.200919 0.00587141 0)
(0.200878 0.0056544 0)
(0.200832 0.00544952 0)
(0.200784 0.00525647 0)
(0.200734 0.0050747 0)
(0.200684 0.00490355 0)
(0.200634 0.0047423 0)
(0.200585 0.00459023 0)
(0.200536 0.00444666 0)
(0.200488 0.00431093 0)
(0.200441 0.00418244 0)
(0.200395 0.00406062 0)
(0.20035 0.00394495 0)
(0.200305 0.00383492 0)
(0.20026 0.00373008 0)
(0.200216 0.00362997 0)
(0.200171 0.00353418 0)
(0.200127 0.00344231 0)
(0.200082 0.00335395 0)
(0.200037 0.00326875 0)
(0.199991 0.00318634 0)
(0.199945 0.00310639 0)
(0.199898 0.00302856 0)
(0.19985 0.00295253 0)
(0.199802 0.002878 0)
(0.199752 0.00280468 0)
(0.199702 0.00273229 0)
(0.199651 0.00266056 0)
(0.199598 0.00258924 0)
(0.199545 0.00251808 0)
(0.199491 0.00244685 0)
(0.199435 0.00237535 0)
(0.199379 0.00230336 0)
(0.199321 0.00223071 0)
(0.199263 0.00215721 0)
(0.199204 0.00208272 0)
(0.199144 0.00200711 0)
(0.199083 0.00193027 0)
(0.199023 0.0018521 0)
(0.198962 0.00177254 0)
(0.1989 0.00169155 0)
(0.198839 0.00160912 0)
(0.198778 0.00152528 0)
(0.198717 0.00144008 0)
(0.198657 0.00135362 0)
(0.198598 0.00126601 0)
(0.198539 0.00117747 0)
(0.198481 0.00108823 0)
(0.198425 0.000998649 0)
(0.198369 0.000909197 0)
(0.198314 0.000820478 0)
(0.19826 0.000733254 0)
(0.198207 0.000648426 0)
(0.198155 0.000566983 0)
(0.198104 0.000489917 0)
(0.198054 0.000418112 0)
(0.198007 0.000352247 0)
(0.197962 0.000292758 0)
(0.19792 0.000239824 0)
(0.197881 0.000193383 0)
(0.197845 0.00015319 0)
(0.197813 0.000118831 0)
(0.197785 8.97807e-05 0)
(0.19776 6.5457e-05 0)
(0.197739 4.52191e-05 0)
(0.19772 2.84424e-05 0)
(0.197704 1.45155e-05 0)
(0.197691 2.87943e-06 0)
(0.197679 -6.89185e-06 0)
(0.197669 -1.51496e-05 0)
(0.197661 -2.22118e-05 0)
(0.197654 -2.83483e-05 0)
(0.197649 -3.37736e-05 0)
(0.197644 -3.86527e-05 0)
(0.197641 -4.3108e-05 0)
(0.197639 -4.72274e-05 0)
(0.197638 -5.107e-05 0)
(0.197638 -5.46691e-05 0)
(0.197639 -5.80227e-05 0)
(0.197641 -6.10583e-05 0)
(0.197643 -6.35391e-05 0)
(0.197649 -6.49198e-05 0)
(0.198284 0.00645689 0)
(0.198459 0.00690551 0)
(0.198675 0.00728883 0)
(0.198919 0.00759523 0)
(0.199177 0.00782012 0)
(0.199436 0.00796421 0)
(0.199683 0.00803153 0)
(0.199911 0.00802855 0)
(0.200114 0.00796368 0)
(0.200289 0.00784658 0)
(0.200432 0.00768742 0)
(0.200546 0.00749624 0)
(0.20063 0.00728235 0)
(0.200688 0.00705405 0)
(0.200724 0.00681837 0)
(0.20074 0.00658096 0)
(0.200742 0.00634619 0)
(0.200732 0.00611723 0)
(0.200713 0.00589623 0)
(0.200688 0.00568452 0)
(0.200659 0.00548281 0)
(0.200627 0.00529132 0)
(0.200595 0.00510997 0)
(0.200563 0.00493845 0)
(0.200531 0.00477633 0)
(0.2005 0.0046231 0)
(0.20047 0.00447821 0)
(0.200441 0.00434113 0)
(0.200414 0.00421131 0)
(0.200388 0.00408823 0)
(0.200363 0.00397138 0)
(0.20034 0.00386029 0)
(0.200318 0.00375449 0)
(0.200296 0.00365355 0)
(0.200276 0.00355703 0)
(0.200256 0.00346453 0)
(0.200238 0.00337566 0)
(0.20022 0.00329003 0)
(0.200202 0.0032073 0)
(0.200185 0.0031271 0)
(0.200169 0.0030491 0)
(0.200153 0.00297298 0)
(0.200137 0.00289842 0)
(0.200122 0.00282514 0)
(0.200106 0.00275283 0)
(0.200091 0.00268123 0)
(0.200076 0.00261007 0)
(0.200061 0.00253911 0)
(0.200045 0.0024681 0)
(0.20003 0.00239683 0)
(0.200015 0.00232509 0)
(0.199999 0.00225267 0)
(0.199983 0.00217941 0)
(0.199967 0.00210515 0)
(0.199951 0.00202974 0)
(0.199935 0.00195307 0)
(0.199918 0.00187504 0)
(0.199901 0.00179559 0)
(0.199884 0.00171466 0)
(0.199866 0.00163226 0)
(0.199848 0.0015484 0)
(0.199831 0.00146314 0)
(0.199812 0.00137658 0)
(0.199794 0.00128887 0)
(0.199775 0.00120021 0)
(0.199756 0.0011109 0)
(0.199736 0.00102129 0)
(0.199716 0.000931882 0)
(0.199695 0.00084327 0)
(0.199673 0.000756191 0)
(0.19965 0.00067149 0)
(0.199626 0.000590075 0)
(0.199602 0.000512848 0)
(0.199578 0.00044062 0)
(0.199553 0.000374036 0)
(0.199529 0.000313527 0)
(0.199506 0.000259304 0)
(0.199484 0.00021136 0)
(0.199464 0.000169509 0)
(0.199446 0.000133404 0)
(0.199429 0.000102583 0)
(0.199415 7.6515e-05 0)
(0.199402 5.46335e-05 0)
(0.199392 3.63596e-05 0)
(0.199383 2.11227e-05 0)
(0.199375 8.379e-06 0)
(0.199369 -2.33942e-06 0)
(0.199365 -1.14271e-05 0)
(0.199361 -1.92165e-05 0)
(0.199357 -2.59884e-05 0)
(0.199355 -3.19704e-05 0)
(0.199353 -3.73402e-05 0)
(0.199352 -4.22328e-05 0)
(0.199351 -4.67462e-05 0)
(0.199351 -5.09468e-05 0)
(0.199351 -5.4871e-05 0)
(0.199352 -5.85201e-05 0)
(0.199353 -6.1843e-05 0)
(0.199354 -6.47127e-05 0)
(0.199356 -6.69597e-05 0)
(0.198887 0.00629075 0)
(0.19899 0.00668495 0)
(0.199117 0.00702881 0)
(0.199263 0.00731256 0)
(0.19942 0.00753044 0)
(0.199578 0.00768071 0)
(0.199733 0.00776484 0)
(0.199877 0.00778678 0)
(0.200008 0.00775233 0)
(0.200122 0.00766869 0)
(0.200218 0.00754378 0)
(0.200296 0.00738577 0)
(0.200356 0.00720257 0)
(0.200399 0.00700152 0)
(0.200428 0.00678909 0)
(0.200445 0.0065708 0)
(0.200451 0.00635113 0)
(0.200449 0.00613359 0)
(0.200441 0.00592081 0)
(0.200429 0.00571465 0)
(0.200414 0.00551631 0)
(0.200397 0.00532652 0)
(0.200378 0.00514561 0)
(0.20036 0.00497363 0)
(0.200341 0.00481042 0)
(0.200323 0.00465569 0)
(0.200306 0.00450906 0)
(0.20029 0.00437012 0)
(0.200274 0.00423839 0)
(0.20026 0.00411342 0)
(0.200246 0.00399474 0)
(0.200233 0.00388189 0)
(0.200222 0.00377443 0)
(0.200211 0.00367191 0)
(0.200201 0.00357391 0)
(0.200191 0.00348003 0)
(0.200183 0.00338988 0)
(0.200175 0.00330307 0)
(0.200168 0.00321924 0)
(0.200162 0.00313803 0)
(0.200156 0.00305911 0)
(0.200151 0.00298215 0)
(0.200146 0.00290683 0)
(0.200141 0.00283285 0)
(0.200137 0.00275993 0)
(0.200134 0.00268778 0)
(0.200131 0.00261614 0)
(0.200128 0.00254475 0)
(0.200125 0.00247338 0)
(0.200123 0.0024018 0)
(0.200121 0.00232981 0)
(0.200119 0.00225719 0)
(0.200117 0.00218378 0)
(0.200115 0.00210941 0)
(0.200114 0.00203395 0)
(0.200112 0.00195726 0)
(0.20011 0.00187927 0)
(0.200109 0.00179989 0)
(0.200107 0.00171908 0)
(0.200105 0.00163684 0)
(0.200103 0.00155319 0)
(0.200101 0.00146819 0)
(0.200098 0.00138195 0)
(0.200095 0.00129464 0)
(0.200092 0.00120647 0)
(0.200088 0.00111774 0)
(0.200083 0.00102884 0)
(0.200078 0.000940244 0)
(0.200072 0.000852546 0)
(0.200065 0.000766441 0)
(0.200056 0.000682705 0)
(0.200047 0.000602164 0)
(0.200037 0.00052563 0)
(0.200027 0.00045384 0)
(0.200015 0.000387391 0)
(0.200004 0.000326705 0)
(0.199993 0.00027201 0)
(0.199982 0.000223339 0)
(0.199972 0.000180557 0)
(0.199963 0.000143377 0)
(0.199955 0.0001114 0)
(0.199947 8.41517e-05 0)
(0.199941 6.11103e-05 0)
(0.199936 4.17367e-05 0)
(0.199931 2.5498e-05 0)
(0.199928 1.18868e-05 0)
(0.199925 4.32397e-07 0)
(0.199923 -9.27903e-06 0)
(0.199922 -1.75933e-05 0)
(0.199921 -2.48007e-05 0)
(0.19992 -3.11389e-05 0)
(0.19992 -3.67969e-05 0)
(0.19992 -4.19203e-05 0)
(0.19992 -4.66166e-05 0)
(0.19992 -5.09598e-05 0)
(0.19992 -5.49934e-05 0)
(0.199921 -5.873e-05 0)
(0.199922 -6.21524e-05 0)
(0.199922 -6.52295e-05 0)
(0.199924 -6.79886e-05 0)
(0.199518 0.00620926 0)
(0.199546 0.00656896 0)
(0.199583 0.00688531 0)
(0.199627 0.00715009 0)
(0.199677 0.00735767 0)
(0.19973 0.00750551 0)
(0.199783 0.00759399 0)
(0.199834 0.00762578 0)
(0.199882 0.00760537 0)
(0.199926 0.00753854 0)
(0.199964 0.00743191 0)
(0.199997 0.0072925 0)
(0.200024 0.00712728 0)
(0.200046 0.00694287 0)
(0.200063 0.00674526 0)
(0.200076 0.00653973 0)
(0.200084 0.00633068 0)
(0.20009 0.00612173 0)
(0.200093 0.00591565 0)
(0.200094 0.00571454 0)
(0.200094 0.00551988 0)
(0.200093 0.00533264 0)
(0.200091 0.00515338 0)
(0.200088 0.00498236 0)
(0.200086 0.0048196 0)
(0.200083 0.00466495 0)
(0.20008 0.00451814 0)
(0.200077 0.00437883 0)
(0.200074 0.00424661 0)
(0.200072 0.00412108 0)
(0.20007 0.0040018 0)
(0.200068 0.00388832 0)
(0.200066 0.00378023 0)
(0.200064 0.00367708 0)
(0.200062 0.00357847 0)
(0.200061 0.003484 0)
(0.20006 0.00339326 0)
(0.200059 0.0033059 0)
(0.200058 0.00322153 0)
(0.200058 0.00313982 0)
(0.200058 0.00306041 0)
(0.200058 0.00298299 0)
(0.200058 0.00290723 0)
(0.200058 0.00283285 0)
(0.200058 0.00275954 0)
(0.200059 0.00268702 0)
(0.200059 0.00261505 0)
(0.20006 0.00254335 0)
(0.200061 0.0024717 0)
(0.200062 0.00239987 0)
(0.200063 0.00232764 0)
(0.200065 0.00225483 0)
(0.200066 0.00218125 0)
(0.200067 0.00210675 0)
(0.200069 0.00203118 0)
(0.200071 0.00195444 0)
(0.200072 0.00187642 0)
(0.200074 0.00179705 0)
(0.200075 0.00171631 0)
(0.200077 0.00163417 0)
(0.200078 0.00155068 0)
(0.20008 0.0014659 0)
(0.200081 0.00137995 0)
(0.200082 0.001293 0)
(0.200083 0.00120529 0)
(0.200084 0.00111711 0)
(0.200084 0.00102886 0)
(0.200085 0.000941019 0)
(0.200084 0.000854165 0)
(0.200084 0.000768959 0)
(0.200082 0.000686135 0)
(0.200081 0.000606459 0)
(0.200079 0.000530682 0)
(0.200076 0.000459486 0)
(0.200074 0.000393435 0)
(0.200071 0.000332933 0)
(0.200068 0.000278213 0)
(0.200065 0.00022933 0)
(0.200062 0.000186177 0)
(0.20006 0.000148505 0)
(0.200057 0.000115954 0)
(0.200055 8.80846e-05 0)
(0.200053 6.4408e-05 0)
(0.200052 4.44129e-05 0)