/*--------------------------------*- C++ -*----------------------------------*\
| =========                 |                                                 |
| \\      /  F ield         | OpenFOAM: The Open Source CFD Toolbox           |
|  \\    /   O peration     | Version:  2.3.0                                 |
|   \\  /    A nd           | Web:      www.OpenFOAM.org                      |
|    \\/     M anipulation  |                                                 |
\*---------------------------------------------------------------------------*/
FoamFile
{
    version     2.0;
    format      ascii;
    class       surfaceScalarField;
    location    "1";
    object      phi_0;
}
// * * * * * * * * * * * * * * * * * * * * * * * * * * * * * * * * * * * * * //

dimensions      [0 3 -1 0 0 0 0];

internalField   nonuniform List<scalar> 
396
(
1.32367e-07
2.68628e-09
-1.35054e-07
1.2858e-07
3.78713e-09
1.24251e-07
4.32952e-09
1.19814e-07
4.43647e-09
1.15423e-07
4.39127e-09
1.10951e-07
4.47181e-09
1.06333e-07
4.61827e-09
1.01537e-07
4.7959e-09
9.65622e-08
4.97474e-09
9.14247e-08
5.13745e-09
8.61255e-08
5.29924e-09
8.0696e-08
5.42952e-09
7.51764e-08
5.51951e-09
6.95497e-08
5.62677e-09
6.39021e-08
5.64757e-09
5.8243e-08
5.65906e-09
5.27118e-08
5.53123e-09
4.73997e-08
5.31212e-09
4.25047e-08
4.89498e-09
3.8114e-08
4.39067e-09
3.44779e-08
3.63619e-09
3.15334e-08
2.94442e-09
2.94132e-08
2.12027e-09
2.76699e-08
1.74322e-09
1.32459e-09
1.6189e-07
2.49504e-09
-1.61699e-07
1.62143e-07
3.534e-09
1.62125e-07
4.34748e-09
1.617e-07
4.86139e-09
1.61109e-07
4.98286e-09
1.60376e-07
5.20471e-09
1.59592e-07
5.40248e-09
1.58599e-07
5.78881e-09
1.57401e-07
6.17267e-09
1.55928e-07
6.61014e-09
1.54252e-07
6.97532e-09
1.52293e-07
7.3881e-09
1.50127e-07
7.68571e-09
1.47651e-07
8.10287e-09
1.45007e-07
8.29154e-09
1.42053e-07
8.61276e-09
1.38972e-07
8.61232e-09
1.356e-07
8.68473e-09
1.32201e-07
8.2932e-09
1.28589e-07
8.00337e-09
1.25097e-07
7.12797e-09
1.21555e-07
6.48625e-09
1.18271e-07
5.40462e-09
1.15022e-07
4.99196e-09
4.40997e-09
1.92747e-07
2.40045e-09
-1.92652e-07
1.92997e-07
3.28425e-09
1.93367e-07
3.97695e-09
1.93587e-07
4.64171e-09
1.93657e-07
4.91281e-09
1.93576e-07
5.28515e-09
1.9353e-07
5.4491e-09
1.93507e-07
5.81122e-09
1.93486e-07
6.19373e-09
1.93343e-07
6.75376e-09
1.93166e-07
7.15222e-09
1.92911e-07
7.64286e-09
1.92562e-07
8.03514e-09
1.92108e-07
8.55676e-09
1.91605e-07
8.79459e-09
1.90998e-07
9.21962e-09
1.90279e-07
9.33156e-09
1.89436e-07
9.52679e-09
1.88456e-07
9.2737e-09
1.87312e-07
9.14701e-09
1.85971e-07
8.46979e-09
1.84537e-07
7.9193e-09
1.82912e-07
7.03049e-09
1.81333e-07
6.57082e-09
6.14899e-09
2.2948e-07
2.32833e-09
-2.29408e-07
2.29703e-07
3.06137e-09
2.3002e-07
3.66051e-09
2.30336e-07
4.32576e-09
2.30534e-07
4.71458e-09
2.30601e-07
5.21831e-09
2.30584e-07
5.46561e-09
2.3062e-07
5.7752e-09
2.307e-07
6.11358e-09
2.30765e-07
6.68852e-09
2.3082e-07
7.09807e-09
2.30916e-07
7.54671e-09
2.30969e-07
7.98197e-09
2.31037e-07
8.48868e-09
2.31095e-07
8.73632e-09
2.31196e-07
9.11885e-09
2.31217e-07
9.31018e-09
2.31255e-07
9.48878e-09
2.31205e-07
9.32414e-09
2.31115e-07
9.23673e-09
2.3082e-07
8.76544e-09
2.30456e-07
8.28325e-09
2.2988e-07
7.60603e-09
2.29295e-07
7.15609e-09
6.85462e-09
2.73252e-07
2.27703e-09
-2.73201e-07
2.73421e-07
2.89274e-09
2.73661e-07
3.42044e-09
2.73975e-07
4.01169e-09
2.74224e-07
4.46603e-09
2.74385e-07
5.05725e-09
2.74421e-07
5.42927e-09
2.74439e-07
5.75665e-09
2.74458e-07
6.09497e-09
2.74536e-07
6.61046e-09
2.74612e-07
7.02218e-09
2.74739e-07
7.42023e-09
2.74854e-07
7.8662e-09
2.75007e-07
8.33547e-09
2.75153e-07
8.5907e-09
2.75331e-07
8.94045e-09
2.75472e-07
9.16928e-09
2.75638e-07
9.32321e-09
2.75745e-07
9.21704e-09
2.75856e-07
9.12593e-09
2.75834e-07
8.78688e-09
2.7574e-07
8.37771e-09
2.75496e-07
7.84957e-09
2.75193e-07
7.45926e-09
7.17951e-09
3.32162e-07
2.24859e-09
-3.32134e-07
3.32332e-07
2.72263e-09
3.32582e-07
3.17068e-09
3.32852e-07
3.74197e-09
3.33078e-07
4.24006e-09
3.33267e-07
4.86857e-09
3.33346e-07
5.34978e-09
3.33362e-07
5.74089e-09
3.33336e-07
6.12071e-09
3.33398e-07
6.54878e-09
3.33475e-07
6.94453e-09
3.33575e-07
7.3207e-09
3.3371e-07
7.73104e-09
3.33867e-07
8.17837e-09
3.34008e-07
8.44984e-09
3.3415e-07
8.79846e-09
3.343e-07
9.01925e-09
3.3445e-07
9.1729e-09
3.34544e-07
9.12328e-09
3.34645e-07
9.02544e-09
3.34669e-07
8.76246e-09
3.34617e-07
8.43019e-09
3.34474e-07
7.99248e-09
3.34266e-07
7.66675e-09
7.41068e-09
6.6539e-07
-6.65103e-07
6.65749e-07
6.66136e-07
6.6642e-07
6.66606e-07
6.66772e-07
6.66848e-07
6.66856e-07
6.66819e-07
6.66813e-07
6.66897e-07
6.66985e-07
6.67119e-07
6.67254e-07
6.6739e-07
6.67486e-07
6.6758e-07
6.67689e-07
6.67763e-07
6.67828e-07
6.67854e-07
6.67821e-07
6.67735e-07
6.67585e-07
1.37346e-07
-2.10058e-10
1.37379e-07
-5.40368e-10
1.37166e-07
2.6148e-10
1.36838e-07
3.97656e-10
1.36104e-07
1.23137e-09
1.91963e-09
1.63129e-07
-1.03562e-10
1.6275e-07
-1.60956e-10
1.62452e-07
5.59039e-10
1.62078e-07
7.7214e-10
1.61845e-07
1.46404e-09
2.06597e-09
1.941e-07
-8.28801e-11
1.93596e-07
3.43775e-10
1.93353e-07
8.0209e-10
1.92962e-07
1.16227e-09
1.9279e-07
1.63697e-09
2.20333e-09
2.30771e-07
-3.79822e-12
2.30395e-07
7.19662e-10
2.30083e-07
1.11422e-09
2.29749e-07
1.49607e-09
2.29516e-07
1.87024e-09
2.31119e-09
2.74375e-07
1.49703e-10
2.7409e-07
1.00464e-09
2.73772e-07
1.43207e-09
2.73487e-07
1.78112e-09
2.73277e-07
2.08098e-09
2.38684e-09
3.33144e-07
3.39453e-10
3.32869e-07
1.27926e-09
3.32553e-07
1.74824e-09
3.32313e-07
2.02061e-09
3.32183e-07
2.21172e-09
2.43553e-09
6.66382e-07
6.65827e-07
6.65312e-07
6.6501e-07
6.6491e-07
)
;

boundaryField
{
    top
    {
        type            calculated;
        value           nonuniform List<scalar> 
31
(
1.96135e-09
2.36384e-09
2.78356e-09
3.4582e-09
4.05411e-09
4.70219e-09
5.2739e-09
5.73312e-09
6.15795e-09
6.55497e-09
6.86068e-09
7.23224e-09
7.59751e-09
8.04281e-09
8.3141e-09
8.70236e-09
8.92534e-09
9.06329e-09
9.04932e-09
8.96127e-09
8.73639e-09
8.46234e-09
8.0792e-09
7.81663e-09
7.57572e-09
6.23999e-10
1.83477e-09
2.26252e-09
2.32332e-09
2.31128e-09
2.24238e-09
)
;
    }
    inlet
    {
        type            calculated;
        value           nonuniform List<scalar> 7(-3.33333e-07 -6.66667e-07 -1.37264e-07 -1.63236e-07 -1.94121e-07 -2.3085e-07 -2.74529e-07);
    }
    outlet
    {
        type            calculated;
        value           nonuniform List<scalar> 7(3.34035e-07 6.6742e-07 2.63453e-08 1.11937e-07 1.79594e-07 2.28589e-07 2.74868e-07);
    }
    plate
    {
        type            calculated;
        value           uniform 0;
    }
    symmBound
    {
        type            calculated;
        value           nonuniform List<scalar> 6(1.28547e-10 5.06747e-10 -4.8425e-11 -6.90361e-11 -4.97449e-10 -8.69326e-10);
    }
    frontAndBack
    {
        type            empty;
        value           nonuniform 0();
    }
}


// ************************************************************************* //
