/*--------------------------------*- C++ -*----------------------------------*\
| =========                 |                                                 |
| \\      /  F ield         | OpenFOAM: The Open Source CFD Toolbox           |
|  \\    /   O peration     | Version:  2.3.0                                 |
|   \\  /    A nd           | Web:      www.OpenFOAM.org                      |
|    \\/     M anipulation  |                                                 |
\*---------------------------------------------------------------------------*/
FoamFile
{
    version     2.0;
    format      ascii;
    class       volVectorField;
    location    "1";
    object      U;
}
// * * * * * * * * * * * * * * * * * * * * * * * * * * * * * * * * * * * * * //

dimensions      [0 1 -1 0 0 0 0];

internalField   nonuniform List<vector> 
217
(
(0.195341 0.0012273 0)
(0.189493 0.00182749 0)
(0.183749 0.00213456 0)
(0.177697 0.00216221 0)
(0.171474 0.00208799 0)
(0.16503 0.00203304 0)
(0.158368 0.00201993 0)
(0.151455 0.00200263 0)
(0.144344 0.00199809 0)
(0.136977 0.00197104 0)
(0.12938 0.00194225 0)
(0.121552 0.00188008 0)
(0.113562 0.00182853 0)
(0.105421 0.00175274 0)
(0.0971722 0.00168337 0)
(0.0888945 0.00157455 0)
(0.0806515 0.00144682 0)
(0.0727235 0.00126323 0)
(0.0651295 0.00105533 0)
(0.0584398 0.00076996 0)
(0.0523722 0.000476733 0)
(0.0479669 0.000184656 0)
(0.0438868 -3.43629e-05 0)
(0.0419949 -0.000111414 0)
(0.0385608 -0.000126099 0)
(0.198771 0.00213908 0)
(0.198783 0.00297514 0)
(0.198347 0.0034728 0)
(0.198249 0.00364506 0)
(0.197493 0.00357227 0)
(0.197159 0.00353441 0)
(0.195911 0.00354252 0)
(0.195272 0.00362514 0)
(0.193435 0.00370062 0)
(0.19234 0.0037766 0)
(0.18979 0.00383964 0)
(0.18826 0.00389555 0)
(0.184966 0.0038854 0)
(0.18293 0.00392512 0)
(0.178858 0.00387173 0)
(0.176401 0.00386492 0)
(0.171519 0.00375219 0)
(0.168821 0.00365712 0)
(0.16313 0.00337682 0)
(0.160532 0.00313803 0)
(0.154219 0.00267013 0)
(0.152237 0.00232113 0)
(0.145538 0.00179521 0)
(0.144587 0.0015729 0)
(0.137226 0.00123612 0)
(0.198915 0.00178387 0)
(0.199278 0.00229127 0)
(0.198756 0.00266822 0)
(0.199346 0.00299129 0)
(0.198933 0.00303509 0)
(0.199664 0.00314552 0)
(0.199059 0.00315321 0)
(0.199805 0.00328946 0)
(0.199071 0.00342323 0)
(0.199799 0.00361875 0)
(0.198704 0.00373526 0)
(0.199444 0.00389859 0)
(0.198125 0.00397852 0)
(0.19872 0.00412452 0)
(0.197124 0.00412469 0)
(0.197648 0.00422324 0)
(0.195752 0.00415185 0)
(0.196179 0.00414571 0)
(0.1939 0.00392151 0)
(0.194216 0.00375162 0)
(0.191481 0.00333804 0)
(0.19167 0.0030125 0)
(0.188528 0.00254464 0)
(0.18862 0.00229399 0)
(0.18508 0.00203665 0)
(0.199184 0.00170132 0)
(0.199476 0.00219577 0)
(0.199016 0.00255096 0)
(0.199448 0.00292369 0)
(0.199178 0.00308717 0)
(0.199774 0.00332352 0)
(0.199443 0.0033713 0)
(0.200025 0.00347398 0)
(0.199657 0.00356923 0)
(0.200292 0.00379098 0)
(0.199731 0.00390316 0)
(0.200381 0.00404208 0)
(0.199808 0.00414442 0)
(0.200447 0.0042964 0)
(0.199856 0.00429697 0)
(0.20051 0.00436765 0)
(0.199934 0.00432493 0)
(0.200563 0.00429248 0)
(0.199921 0.0040843 0)
(0.200531 0.0039316 0)
(0.199729 0.00359661 0)
(0.200152 0.00329334 0)
(0.199141 0.0029112 0)
(0.199327 0.00266039 0)
(0.198075 0.00244057 0)
(0.199541 0.00168269 0)
(0.19963 0.00211006 0)
(0.199334 0.00244307 0)
(0.199513 0.00277417 0)
(0.199364 0.00295736 0)
(0.199698 0.00323467 0)
(0.19966 0.00335657 0)
(0.19999 0.00344323 0)
(0.199862 0.00352239 0)
(0.20021 0.00372759 0)
(0.199989 0.00383814 0)
(0.200329 0.00393934 0)
(0.200078 0.00405585 0)
(0.200436 0.00418245 0)
(0.200239 0.00419335 0)
(0.200588 0.00423234 0)
(0.200445 0.00421043 0)
(0.200805 0.00416126 0)
(0.200635 0.00397658 0)
(0.201015 0.00381626 0)
(0.200776 0.0035466 0)
(0.201061 0.00327007 0)
(0.200692 0.00295915 0)
(0.200804 0.00272117 0)
(0.200267 0.00253681 0)
(0.19982 0.00162496 0)
(0.199813 0.00195984 0)
(0.199614 0.00224667 0)
(0.19966 0.002564 0)
(0.199567 0.00278211 0)
(0.199723 0.00308575 0)
(0.19977 0.00327459 0)
(0.199995 0.00340019 0)
(0.199957 0.00351562 0)
(0.20016 0.0036773 0)
(0.200079 0.00380275 0)
(0.200274 0.00388597 0)
(0.200131 0.00399024 0)
(0.200353 0.00410202 0)
(0.200276 0.00410709 0)
(0.20045 0.00415244 0)
(0.200421 0.00413084 0)
(0.200646 0.00406818 0)
(0.200569 0.00391402 0)
(0.200802 0.00375501 0)
(0.200684 0.00353102 0)
(0.200869 0.00328814 0)
(0.20067 0.0030191 0)
(0.200747 0.00280788 0)
(0.200438 0.00265025 0)
(0.200113 0.00152282 0)
(0.200058 0.00174926 0)
(0.199932 0.00196048 0)
(0.199909 0.00226446 0)
(0.199842 0.00253954 0)
(0.199888 0.00285163 0)
(0.199912 0.00311729 0)
(0.200016 0.00330925 0)
(0.200011 0.00347286 0)
(0.2001 0.00362221 0)
(0.20008 0.00372958 0)
(0.200154 0.00383257 0)
(0.200112 0.00390751 0)
(0.200181 0.00401379 0)
(0.200163 0.00402625 0)
(0.200233 0.00407341 0)
(0.200212 0.0040437 0)
(0.200291 0.00398217 0)
(0.200274 0.00385563 0)
(0.200358 0.00369887 0)
(0.200311 0.00349563 0)
(0.200386 0.00328821 0)
(0.200316 0.00304936 0)
(0.200342 0.0028707 0)
(0.200233 0.0027313 0)
(0.193934 -4.875e-05 0)
(0.205541 -0.000170946 0)
(0.194631 2.78563e-05 0)
(0.203789 5.2524e-05 0)
(0.194953 0.000329518 0)
(0.202321 0.000641529 0)
(0.199038 -4.26347e-05 0)
(0.200562 -0.00017475 0)
(0.198998 0.000153427 0)
(0.199731 0.000257177 0)
(0.198856 0.000772176 0)
(0.199169 0.00130029 0)
(0.19953 -2.94162e-05 0)
(0.200367 6.70163e-05 0)
(0.199343 0.000274504 0)
(0.199936 0.00047785 0)
(0.199109 0.000807974 0)
(0.19957 0.00129629 0)
(0.199609 -1.73364e-05 0)
(0.200279 0.000180348 0)
(0.199576 0.000363459 0)
(0.20006 0.000592646 0)
(0.199415 0.000888176 0)
(0.199802 0.00131706 0)
(0.199777 1.67506e-05 0)
(0.20011 0.000286494 0)
(0.199801 0.000492179 0)
(0.200081 0.000723767 0)
(0.199735 0.00101005 0)
(0.199963 0.00139445 0)
(0.19988 7.43366e-05 0)
(0.200047 0.00037358 0)
(0.199932 0.000611654 0)
(0.2001 0.000838595 0)
(0.199966 0.00108361 0)
(0.20012 0.0013899 0)
(0.199959 0.000156504 0)
(0.200014 0.000567203 0)
(0.200014 0.000839038 0)
(0.200119 0.00106904 0)
(0.200105 0.00124785 0)
(0.200207 0.00140815 0)
)
;

boundaryField
{
    top
    {
        type            zeroGradient;
    }
    inlet
    {
        type            fixedValue;
        value           uniform (0.2 0 0);
    }
    outlet
    {
        type            zeroGradient;
    }
    plate
    {
        type            fixedValue;
        value           uniform (0 0 0);
    }
    symmBound
    {
        type            zeroGradient;
    }
    frontAndBack
    {
        type            empty;
    }
}


// ************************************************************************* //
