/*--------------------------------*- C++ -*----------------------------------*\
| =========                 |                                                 |
| \\      /  F ield         | OpenFOAM: The Open Source CFD Toolbox           |
|  \\    /   O peration     | Version:  2.3.0                                 |
|   \\  /    A nd           | Web:      www.OpenFOAM.org                      |
|    \\/     M anipulation  |                                                 |
\*---------------------------------------------------------------------------*/
FoamFile
{
    version     2.0;
    format      ascii;
    class       volScalarField;
    location    "0.1";
    object      p;
}
// * * * * * * * * * * * * * * * * * * * * * * * * * * * * * * * * * * * * * //

dimensions      [0 2 -2 0 0 0 0];

internalField   nonuniform List<scalar> 
2700
(
0.00781104
0.00619911
0.00498847
0.00423946
0.00372034
0.003262
0.00282247
0.00242526
0.00210903
0.00189285
0.00176862
0.00171098
0.00169247
0.00169137
0.001693
0.00168967
0.00167916
0.00166189
0.00163927
0.00161328
0.00158591
0.0015584
0.00153155
0.00150616
0.00148297
0.00146232
0.00144432
0.00142916
0.00141713
0.00140833
0.00140242
0.00139851
0.00139528
0.0013914
0.00138601
0.00137888
0.00137019
0.00136026
0.00134914
0.00133654
0.00132211
0.00130567
0.00128738
0.00126777
0.00124753
0.00122731
0.00120753
0.00118841
0.00116996
0.00115204
0.00113446
0.00111701
0.00109952
0.00108185
0.00106391
0.00104564
0.00102701
0.00100803
0.000988706
0.000969058
0.000949105
0.000928868
0.000908364
0.00088761
0.000866619
0.000845404
0.000823972
0.000802334
0.000780494
0.000758459
0.000736233
0.000713821
0.000691224
0.000668447
0.00064549
0.000622355
0.000599044
0.000575556
0.000551895
0.000528056
0.000504044
0.000479857
0.000455493
0.000430956
0.00040624
0.00038135
0.000356281
0.000331032
0.000305608
0.00028
0.000254212
0.000228244
0.000202088
0.000175751
0.000149229
0.000122516
9.56186e-05
6.85319e-05
4.1253e-05
1.37829e-05
0.00681577
0.0058419
0.00489382
0.00418873
0.00367866
0.00324741
0.00284168
0.00247228
0.00216961
0.00195363
0.00182233
0.00175542
0.00172779
0.00171857
0.00171347
0.00170495
0.00169074
0.00167098
0.00164666
0.00161946
0.0015912
0.00156301
0.00153556
0.00150961
0.00148588
0.00146471
0.00144621
0.00143057
0.00141811
0.00140896
0.00140283
0.0013988
0.00139556
0.00139171
0.00138633
0.00137918
0.00137049
0.00136058
0.00134948
0.00133692
0.00132251
0.00130604
0.0012877
0.00126801
0.00124768
0.00122738
0.00120756
0.00118841
0.00116995
0.00115202
0.00113444
0.001117
0.00109952
0.00108185
0.00106392
0.00104564
0.00102702
0.00100804
0.000988712
0.000969063
0.000949109
0.000928871
0.000908367
0.000887612
0.000866621
0.000845405
0.000823973
0.000802335
0.000780495
0.00075846
0.000736233
0.000713822
0.000691225
0.000668447
0.00064549
0.000622355
0.000599044
0.000575556
0.000551895
0.000528056
0.000504044
0.000479857
0.000455493
0.000430957
0.00040624
0.00038135
0.000356281
0.000331032
0.000305608
0.00028
0.000254212
0.000228244
0.000202088
0.000175751
0.000149229
0.000122516
9.56185e-05
6.8532e-05
4.1253e-05
1.37829e-05
0.00608535
0.00550257
0.00479244
0.00415704
0.00365576
0.00324485
0.00287681
0.00254374
0.00226127
0.00204664
0.00190355
0.00181987
0.00177628
0.00175422
0.0017394
0.00172383
0.00170492
0.00168233
0.00165638
0.00162823
0.00159938
0.00157072
0.0015428
0.00151631
0.00149203
0.00147032
0.00145127
0.00143502
0.00142188
0.00141206
0.00140532
0.0014008
0.00139715
0.00139295
0.00138726
0.00137984
0.00137097
0.001361
0.00134995
0.00133751
0.0013232
0.00130676
0.00128835
0.00126854
0.00124808
0.00122765
0.00120773
0.00118852
0.00117001
0.00115207
0.00113448
0.00111704
0.00109956
0.00108189
0.00106395
0.00104568
0.00102705
0.00100807
0.000988738
0.000969085
0.000949128
0.000928886
0.00090838
0.000887623
0.00086663
0.000845413
0.00082398
0.00080234
0.000780499
0.000758463
0.000736236
0.000713824
0.000691227
0.000668449
0.000645492
0.000622356
0.000599046
0.000575556
0.000551895
0.000528056
0.000504044
0.000479857
0.000455493
0.000430957
0.00040624
0.00038135
0.000356282
0.000331032
0.000305608
0.00028
0.000254211
0.000228244
0.000202088
0.000175751
0.000149229
0.000122516
9.56185e-05
6.8532e-05
4.1253e-05
1.37828e-05
0.0055391
0.00517602
0.00465423
0.00410755
0.0036338
0.00324264
0.00290604
0.00260663
0.00234723
0.00213971
0.00199016
0.00189291
0.00183446
0.00179933
0.00177431
0.00175137
0.0017273
0.00170112
0.00167282
0.00164317
0.00161324
0.00158376
0.00155521
0.0015282
0.00150333
0.00148098
0.00146127
0.00144431
0.00143029
0.00141938
0.00141143
0.00140573
0.00140102
0.00139593
0.00138951
0.00138148
0.00137213
0.00136182
0.00135062
0.00133818
0.00132397
0.00130767
0.00128936
0.00126958
0.00124908
0.00122856
0.00120852
0.00118918
0.00117055
0.00115249
0.00113482
0.0011173
0.00109977
0.00108206
0.00106409
0.00104579
0.00102714
0.00100814
0.000988798
0.000969135
0.000949169
0.00092892
0.000908407
0.000887646
0.000866649
0.000845428
0.000823992
0.00080235
0.000780507
0.000758471
0.000736243
0.000713829
0.000691231
0.000668453
0.000645495
0.000622358
0.000599048
0.000575558
0.000551897
0.000528057
0.000504045
0.000479858
0.000455493
0.000430957
0.00040624
0.00038135
0.000356282
0.000331032
0.000305609
0.00028
0.000254212
0.000228244
0.000202088
0.000175751
0.000149229
0.000122516
9.56185e-05
6.8532e-05
4.12529e-05
1.37828e-05
0.00510667
0.00486649
0.00448186
0.00403094
0.00360264
0.0032359
0.00292473
0.00265319
0.00241619
0.00221936
0.00206859
0.00196243
0.00189228
0.00184598
0.00181197
0.0017825
0.00175371
0.00172409
0.00169343
0.00166223
0.00163119
0.00160087
0.00157179
0.00154436
0.00151901
0.00149605
0.00147565
0.00145787
0.00144281
0.00143057
0.00142104
0.00141366
0.00140736
0.0014009
0.00139335
0.00138441
0.0013743
0.00136337
0.00135169
0.00133897
0.0013247
0.0013085
0.00129039
0.00127083
0.0012505
0.00123007
0.00121002
0.00119058
0.00117179
0.00115355
0.00113568
0.00111799
0.00110031
0.00108249
0.00106442
0.00104605
0.00102735
0.0010083
0.000988929
0.00096924
0.000949254
0.000928989
0.000908464
0.000887692
0.000866687
0.000845459
0.000824018
0.000802372
0.000780525
0.000758486
0.000736255
0.000713839
0.000691239
0.000668459
0.0006455
0.000622363
0.000599051
0.000575561
0.000551899
0.000528059
0.000504047
0.00047986
0.000455494
0.000430958
0.000406241
0.000381351
0.000356283
0.000331032
0.000305609
0.00028
0.000254212
0.000228244
0.000202088
0.000175751
0.000149229
0.000122516
9.56186e-05
6.8532e-05
4.12529e-05
1.37828e-05
0.00475128
0.00458239
0.00429551
0.00393301
0.00356034
0.00322404
0.00293531
0.00268595
0.0024687
0.00228423
0.00213628
0.00202529
0.00194647
0.00189098
0.0018492
0.00181386
0.00178082
0.00174811
0.00171526
0.00168261
0.00165056
0.0016195
0.0015899
0.00156212
0.0015364
0.00151289
0.00149177
0.00147311
0.00145701
0.00144351
0.00143244
0.00142328
0.00141514
0.00140703
0.00139818
0.00138829
0.00137742
0.00136578
0.00135342
0.0013401
0.00132542
0.00130908
0.00129111
0.00127186
0.00125191
0.0012318
0.00121194
0.00119254
0.00117365
0.00115521
0.0011371
0.00111916
0.00110125
0.00108323
0.001065
0.0010465
0.0010277
0.00100858
0.00098915
0.000969416
0.000949396
0.000929104
0.000908558
0.000887769
0.00086675
0.000845511
0.000824061
0.000802407
0.000780554
0.000758509
0.000736274
0.000713856
0.000691252
0.00066847
0.000645509
0.00062237
0.000599057
0.000575566
0.000551903
0.000528063
0.000504049
0.000479862
0.000455496
0.00043096
0.000406242
0.000381351
0.000356283
0.000331033
0.000305609
0.000280001
0.000254212
0.000228244
0.000202088
0.000175751
0.000149229
0.000122517
9.56187e-05
6.85319e-05
4.12529e-05
1.37828e-05
0.00445189
0.00432763
0.00411052
0.00382228
0.00350665
0.00320542
0.00293908
0.00270837
0.00250796
0.00233586
0.00219329
0.00208086
0.00199624
0.00193353
0.00188508
0.00184449
0.00180761
0.00177211
0.00173726
0.00170322
0.00167024
0.00163848
0.00160831
0.00158009
0.00155395
0.00152993
0.00150809
0.00148855
0.00147143
0.00145675
0.00144427
0.00143343
0.00142348
0.00141367
0.00140347
0.00139262
0.00138104
0.00136875
0.00135569
0.00134165
0.00132636
0.00130965
0.00129162
0.0012726
0.00125306
0.00123339
0.00121388
0.00119466
0.00117577
0.0011572
0.00113886
0.00112066
0.00110248
0.00108422
0.00106579
0.00104713
0.00102819
0.00100897
0.000989458
0.000969662
0.000949593
0.000929264
0.000908688
0.000887875
0.000866837
0.000845583
0.00082412
0.000802455
0.000780594
0.000758543
0.000736302
0.000713878
0.000691271
0.000668486
0.000645522
0.000622381
0.000599066
0.000575573
0.000551909
0.000528067
0.000504053
0.000479865
0.000455499
0.000430962
0.000406244
0.000381353
0.000356284
0.000331034
0.00030561
0.000280001
0.000254213
0.000228245
0.000202089
0.000175751
0.000149229
0.000122517
9.56189e-05
6.85319e-05
4.12529e-05
1.37829e-05
0.00419587
0.00410174
0.00393455
0.00370556
0.00344258
0.00317835
0.00293574
0.00272232
0.00253653
0.00237601
0.00224015
0.0021289
0.00204111
0.00197309
0.00191918
0.00187402
0.00183367
0.00179566
0.00175901
0.0017237
0.00168981
0.00165736
0.00162657
0.00159779
0.00157116
0.00154663
0.00152413
0.00150372
0.00148558
0.00146975
0.00145596
0.0014436
0.00143198
0.00142058
0.00140905
0.00139722
0.00138492
0.001372
0.00135827
0.00134353
0.00132759
0.00131043
0.00129223
0.00127331
0.00125408
0.00123481
0.00121566
0.00119668
0.00117787
0.00115923
0.00114072
0.00112228
0.00110385
0.00108535
0.0010667
0.00104786
0.00102878
0.00100944
0.00098983
0.000969961
0.000949835
0.00092946
0.000908848
0.000888006
0.000866945
0.000845672
0.000824193
0.000802516
0.000780645
0.000758584
0.000736336
0.000713907
0.000691295
0.000668505
0.000645538
0.000622394
0.000599077
0.000575582
0.000551917
0.000528073
0.000504058
0.000479869
0.000455502
0.000430964
0.000406246
0.000381355
0.000356286
0.000331035
0.000305611
0.000280002
0.000254213
0.000228245
0.000202089
0.000175752
0.000149229
0.000122517
9.56191e-05
6.85318e-05
4.12529e-05
1.37829e-05
0.00397448
0.00390158
0.00377063
0.00358786
0.00337051
0.00314252
0.00292485
0.00272869
0.00255632
0.00240644
0.00227775
0.00216947
0.00208072
0.00200926
0.00195119
0.00190222
0.00185878
0.00181853
0.00178037
0.00174392
0.00170908
0.0016759
0.00164454
0.00161519
0.00158799
0.00156289
0.00153976
0.00151854
0.0014994
0.00148243
0.00146738
0.00145361
0.00144049
0.00142764
0.00141487
0.00140205
0.001389
0.00137542
0.00136105
0.00134565
0.00132913
0.00131154
0.00129312
0.00127423
0.00125519
0.00123621
0.00121734
0.00119856
0.00117984
0.00116116
0.00114252
0.00112389
0.00110524
0.00108652
0.00106767
0.00104865
0.00102941
0.00100995
0.000990248
0.0009703
0.000950111
0.000929686
0.000909033
0.000888159
0.000867071
0.000845776
0.00082428
0.000802588
0.000780704
0.000758634
0.000736377
0.000713941
0.000691323
0.000668529
0.000645557
0.00062241
0.00059909
0.000575593
0.000551926
0.000528081
0.000504065
0.000479874
0.000455506
0.000430968
0.000406249
0.000381357
0.000356287
0.000331037
0.000305612
0.000280003
0.000254214
0.000228245
0.00020209
0.000175752
0.000149229
0.000122517
9.56193e-05
6.85319e-05
4.12529e-05
1.37829e-05
0.00378117
0.00372375
0.00361974
0.00347275
0.00329352
0.003099
0.0029065
0.00272806
0.00256868
0.00242878
0.00230724
0.00220296
0.00211497
0.00204178
0.00198084
0.00192887
0.00188282
0.00184065
0.00180118
0.00176369
0.00172792
0.00169404
0.0016622
0.00163233
0.00160446
0.0015787
0.00155494
0.00153297
0.00151287
0.00149478
0.00147852
0.00146346
0.001449
0.00143484
0.00142091
0.00140713
0.00139327
0.00137899
0.00136397
0.00134797
0.00133094
0.00131297
0.00129436
0.00127545
0.00125651
0.00123769
0.00121899
0.00120034
0.00118168
0.00116297
0.00114423
0.00112545
0.00110661
0.0010877
0.00106866
0.00104947
0.00103009
0.00101051
0.000990702
0.000970672
0.000950416
0.000929937
0.00090924
0.00088833
0.000867213
0.000845894
0.000824377
0.000802669
0.000780772
0.00075869
0.000736424
0.00071398
0.000691355
0.000668556
0.00064558
0.000622429
0.000599105
0.000575606
0.000551936
0.000528089
0.000504072
0.000479879
0.000455511
0.000430972
0.000406252
0.00038136
0.000356289
0.000331039
0.000305613
0.000280004
0.000254215
0.000228246
0.00020209
0.000175753
0.000149229
0.000122517
9.56195e-05
6.85319e-05
4.12529e-05
1.3783e-05
0.00361103
0.00356519
0.00348163
0.00336246
0.00321451
0.00304965
0.00288141
0.0027209
0.00257449
0.00244424
0.00232973
0.00222996
0.00214396
0.00207051
0.00200785
0.00195373
0.00190572
0.00186194
0.00182125
0.00178285
0.0017463
0.00171177
0.00167946
0.00164911
0.00162055
0.00159404
0.00156963
0.00154701
0.00152604
0.00150688
0.00148945
0.00147318
0.0014575
0.00144215
0.00142714
0.00141242
0.00139773
0.00138272
0.00136705
0.00135049
0.001333
0.00131472
0.00129594
0.00127697
0.00125807
0.00123932
0.00122069
0.00120209
0.00118344
0.0011647
0.00114586
0.00112695
0.00110795
0.00108886
0.00106966
0.00105031
0.00103079
0.00101109
0.000991186
0.000971072
0.000950747
0.000930211
0.000909468
0.000888519
0.00086737
0.000846025
0.000824487
0.000802761
0.000780848
0.000758754
0.000736477
0.000714024
0.000691392
0.000668587
0.000645605
0.00062245
0.000599123
0.00057562
0.000551948
0.000528099
0.00050408
0.000479886
0.000455517
0.000430976
0.000406256
0.000381363
0.000356292
0.000331041
0.000305615
0.000280005
0.000254217
0.000228247
0.000202091
0.000175753
0.00014923
0.000122518
9.56198e-05
6.8532e-05
4.1253e-05
1.3783e-05
0.00346033
0.00342334
0.00335555
0.00325819
0.00313574
0.00299649
0.0028507
0.00270778
0.00257438
0.00245372
0.00234618
0.00225116
0.00216793
0.00209535
0.00203204
0.00197663
0.00192728
0.00188218
0.0018404
0.00180128
0.00176414
0.00172899
0.00169617
0.0016654
0.00163626
0.001609
0.00158391
0.00156069
0.00153895
0.00151875
0.00150015
0.00148274
0.00146595
0.00144952
0.00143351
0.00141787
0.00140237
0.00138662
0.0013703
0.00135321
0.00133531
0.00131676
0.00129782
0.00127878
0.00125985
0.0012411
0.00122247
0.00120385
0.00118517
0.00116637
0.00114744
0.0011284
0.00110926
0.00109002
0.00107066
0.00105117
0.00103152
0.0010117
0.000991697
0.000971499
0.000951104
0.000930509
0.000909716
0.000888726
0.000867544
0.00084617
0.000824608
0.000802862
0.000780933
0.000758825
0.000736536
0.000714074
0.000691434
0.000668621
0.000645634
0.000622474
0.000599143
0.000575637
0.000551962
0.00052811
0.00050409
0.000479894
0.000455523
0.000430982
0.00040626
0.000381367
0.000356294
0.000331043
0.000305617
0.000280007
0.000254218
0.000228248
0.000202092
0.000175754
0.00014923
0.000122518
9.56202e-05
6.85321e-05
4.1253e-05
1.37831e-05
0.00332618
0.00329606
0.00324059
0.00316052
0.00305885
0.00294131
0.00281563
0.00268947
0.00256896
0.00245783
0.00235729
0.00226723
0.00218724
0.00211632
0.00205331
0.00199739
0.00194724
0.00190122
0.00185857
0.00181889
0.00178134
0.00174564
0.00171231
0.0016812
0.00165162
0.00162363
0.00159778
0.00157392
0.00155147
0.00153032
0.00151063
0.00149215
0.00147436
0.00145696
0.00144
0.00142349
0.00140717
0.00139069
0.00137374
0.00135613
0.00133785
0.00131905
0.00129996
0.00128083
0.00126184
0.00124302
0.00122433
0.00120565
0.00118689
0.00116801
0.00114899
0.00112983
0.00111056
0.00109118
0.00107167
0.00105205
0.00103227
0.00101234
0.000992235
0.000971952
0.000951484
0.000930828
0.000909984
0.000888952
0.000867733
0.000846329
0.000824742
0.000802974
0.000781027
0.000758903
0.000736602
0.000714129
0.00069148
0.00066866
0.000645666
0.000622501
0.000599165
0.000575655
0.000551977
0.000528123
0.0005041
0.000479903
0.00045553
0.000430988
0.000406265
0.000381371
0.000356298
0.000331046
0.000305619
0.000280008
0.00025422
0.000228249
0.000202092
0.000175755
0.000149231
0.000122519
9.56206e-05
6.85322e-05
4.1253e-05
1.37831e-05
0.00320627
0.00318154
0.00313584
0.00306959
0.00298484
0.00288555
0.00277754
0.0026669
0.0025588
0.00245711
0.00236369
0.00227878
0.00220227
0.00213356
0.00207165
0.00201586
0.0019654
0.00191893
0.00187573
0.0018356
0.00179777
0.0017617
0.00172787
0.00169639
0.00166644
0.00163782
0.00161118
0.00158668
0.00156362
0.00154165
0.00152094
0.00150145
0.00148272
0.00146443
0.00144658
0.00142921
0.0014121
0.00139491
0.00137734
0.00135924
0.00134061
0.00132157
0.00130232
0.00128308
0.00126399
0.00124508
0.00122628
0.00120749
0.00118864
0.00116965
0.00115052
0.00113124
0.00111184
0.00109233
0.00107269
0.00105293
0.00103304
0.001013
0.000992797
0.000972429
0.000951888
0.000931169
0.000910272
0.000889194
0.000867937
0.000846501
0.000824886
0.000803096
0.000781129
0.00075899
0.000736675
0.00071419
0.00069153
0.000668702
0.000645702
0.00062253
0.00059919
0.000575676
0.000551995
0.000528137
0.000504112
0.000479912
0.000455538
0.000430994
0.00040627
0.000381375
0.000356301
0.000331049
0.000305622
0.00028001
0.000254221
0.00022825
0.000202093
0.000175756
0.000149231
0.000122519
9.56211e-05
6.85324e-05
4.12531e-05
1.37832e-05
0.00309873
0.0030783
0.00304041
0.00298528
0.00291432
0.00283035
0.00273763
0.00264095
0.0025446
0.00245221
0.00236591
0.00228624
0.00221344
0.00214738
0.00208713
0.00203199
0.00198166
0.00193524
0.00189186
0.00185137
0.0018133
0.001777
0.00174273
0.00171084
0.00168064
0.00165158
0.00162425
0.00159906
0.00157541
0.00155272
0.00153106
0.00151059
0.00149098
0.00147186
0.0014532
0.00143502
0.00141715
0.00139927
0.00138111
0.00136254
0.00134357
0.00132428
0.00130487
0.00128551
0.00126629
0.00124724
0.00122831
0.00120939
0.0011904
0.00117129
0.00115204
0.00113265
0.00111313
0.00109348
0.00107372
0.00105384
0.00103383
0.00101368
0.00099338
0.000972928
0.000952313
0.00093153
0.000910578
0.000889453
0.000868156
0.000846686
0.000825043
0.000803228
0.000781241
0.000759083
0.000736754
0.000714256
0.000691586
0.000668749
0.000645741
0.000622563
0.000599217
0.000575698
0.000552014
0.000528153
0.000504125
0.000479923
0.000455547
0.000431002
0.000406276
0.00038138
0.000356305
0.000331052
0.000305625
0.000280012
0.000254223
0.000228252
0.000202094
0.000175757
0.000149232
0.000122519
9.56216e-05
6.85326e-05
4.12531e-05
1.37832e-05
0.00300206
0.00298507
0.00295348
0.00290734
0.00284769
0.00277651
0.00269686
0.00261258
0.0025272
0.0024437
0.00236433
0.00229007
0.00222127
0.00215806
0.00209976
0.00204578
0.00199611
0.0019501
0.00190676
0.00186598
0.00182775
0.00179142
0.00175692
0.00172468
0.00169426
0.0016649
0.00163693
0.00161099
0.00158673
0.0015634
0.00154094
0.00151957
0.00149913
0.00147926
0.00145985
0.0014409
0.0014223
0.00140376
0.00138503
0.00136601
0.00134669
0.00132717
0.00130758
0.00128807
0.0012687
0.0012495
0.00123041
0.00121133
0.0011922
0.00117295
0.00115357
0.00113405
0.00111441
0.00109464
0.00107475
0.00105475
0.00103463
0.00101437
0.000993983
0.000973446
0.000952757
0.00093191
0.000910901
0.000889728
0.00086839
0.000846884
0.000825211
0.00080337
0.00078136
0.000759184
0.000736839
0.000714328
0.000691646
0.000668799
0.000645783
0.000622598
0.000599247
0.000575723
0.000552034
0.00052817
0.000504139
0.000479935
0.000455557
0.00043101
0.000406283
0.000381386
0.00035631
0.000331056
0.000305628
0.000280015
0.000254225
0.000228253
0.000202095
0.000175758
0.000149233
0.00012252
9.56221e-05
6.85329e-05
4.12531e-05
1.37833e-05
0.00291502
0.0029008
0.00287431
0.00283552
0.00278512
0.00272456
0.00265611
0.00258273
0.00250723
0.0024321
0.00235956
0.00229077
0.00222606
0.00216578
0.00210978
0.00205749
0.00200875
0.00196322
0.00192014
0.00187942
0.00184127
0.0018051
0.0017705
0.00173788
0.00170714
0.00167755
0.00164909
0.00162246
0.00159759
0.00157373
0.00155058
0.00152839
0.00150716
0.00148658
0.00146646
0.0014468
0.0014275
0.00140833
0.00138907
0.00136962
0.00134997
0.0013302
0.00131042
0.00129074
0.00127121
0.00125184
0.00123257
0.00121332
0.00119402
0.00117463
0.00115511
0.00113546
0.00111569
0.00109579
0.00107579
0.00105567
0.00103544
0.00101509
0.000994603
0.000973982
0.000953219
0.000932306
0.000911241
0.000890018
0.000868637
0.000847094
0.000825389
0.000803521
0.000781488
0.000759293
0.00073693
0.000714405
0.000691711
0.000668854
0.000645829
0.000622637
0.000599279
0.00057575
0.000552057
0.000528189
0.000504154
0.000479948
0.000455567
0.000431019
0.00040629
0.000381392
0.000356315
0.000331059
0.000305631
0.000280017
0.000254227
0.000228255
0.000202097
0.000175759
0.000149234
0.00012252
9.56227e-05
6.85332e-05
4.12532e-05
1.37833e-05
0.00283657
0.00282459
0.00280225
0.00276945
0.00272666
0.00267498
0.00261605
0.00255208
0.00248543
0.00241816
0.00235215
0.00228861
0.00222806
0.002171
0.00211751
0.00206702
0.00201934
0.00197455
0.00193221
0.00189197
0.00185395
0.00181783
0.00178317
0.00175025
0.00171924
0.00168952
0.00166078
0.00163356
0.00160805
0.00158365
0.00155992
0.00153699
0.00151501
0.00149376
0.001473
0.00145268
0.00143273
0.00141297
0.00139321
0.00137334
0.00135336
0.00133334
0.00131337
0.0012935
0.00127379
0.00125423
0.00123477
0.00121534
0.00119587
0.00117631
0.00115665
0.00113687
0.00111697
0.00109695
0.00107683
0.0010566
0.00103626
0.00101581
0.000995236
0.000974533
0.000953695
0.000932717
0.000911594
0.000890321
0.000868896
0.000847315
0.000825577
0.000803681
0.000781624
0.000759408
0.000737028
0.000714487
0.000691781
0.000668912
0.000645878
0.000622678
0.000599314
0.000575779
0.000552081
0.000528209
0.000504171
0.000479962
0.000455579
0.000431028
0.000406298
0.000381398
0.00035632
0.000331064
0.000305635
0.00028002
0.000254229
0.000228257
0.000202098
0.000175761
0.000149235
0.000122521
9.56233e-05
6.85336e-05
4.12532e-05
1.37833e-05
0.00276585
0.0027557
0.00273673
0.00270885
0.00267235
0.00262805
0.00257714
0.00252133
0.00246253
0.0024024
0.00234247
0.00228404
0.00222776
0.00217397
0.00212289
0.00207432
0.00202815
0.00198453
0.00194308
0.00190332
0.0018654
0.00182939
0.0017949
0.00176194
0.00173072
0.00170086
0.00167192
0.0016442
0.00161806
0.00159313
0.0015689
0.00154536
0.0015227
0.0015008
0.00147945
0.00145852
0.00143796
0.00141764
0.0013974
0.00137713
0.00135684
0.00133657
0.00131638
0.00129632
0.00127642
0.00125666
0.001237
0.00121738
0.00119773
0.00117801
0.0011582
0.00113828
0.00111825
0.00109811
0.00107788
0.00105754
0.00103709
0.00101654
0.000995879
0.000975095
0.000954184
0.00093314
0.000911959
0.000890635
0.000869165
0.000847546
0.000825774
0.000803849
0.000781767
0.000759529
0.00073713
0.000714574
0.000691854
0.000668974
0.00064593
0.000622721
0.00059935
0.000575809
0.000552106
0.00052823
0.000504189
0.000479977
0.000455591
0.000431039
0.000406306
0.000381405
0.000356326
0.000331068
0.000305639
0.000280023
0.000254232
0.00022826
0.000202099
0.000175762
0.000149236
0.000122521
9.5624e-05
6.8534e-05
4.12533e-05
1.37834e-05
0.00270213
0.00269347
0.00267726
0.00265343
0.00262213
0.00258397
0.00253988
0.0024911
0.00243913
0.00238537
0.00233114
0.0022776
0.00222536
0.00217476
0.00212623
0.00207986
0.00203546
0.00199301
0.00195235
0.00191321
0.00187571
0.00184002
0.00180581
0.0017729
0.00174147
0.00171143
0.00168234
0.00165428
0.00162761
0.00160217
0.0015775
0.00155345
0.00153017
0.00150767
0.00148575
0.00146427
0.00144316
0.00142232
0.00140162
0.00138098
0.00136037
0.00133984
0.00131943
0.00129917
0.00127907
0.00125911
0.00123925
0.00121943
0.0011996
0.00117971
0.00115975
0.00113969
0.00111953
0.00109927
0.00107892
0.00105847
0.00103793
0.00101728
0.00099653
0.000975665
0.000954682
0.000933573
0.000912334
0.000890958
0.000869443
0.000847784
0.000825978
0.000804023
0.000781916
0.000759655
0.000737237
0.000714664
0.000691931
0.000669039
0.000645985
0.000622767
0.000599389
0.000575841
0.000552133
0.000528253
0.000504207
0.000479992
0.000455604
0.000431049
0.000406315
0.000381412
0.000356332
0.000331073
0.000305643
0.000280026
0.000254234
0.000228262
0.000202101
0.000175763
0.000149237
0.000122522
9.56246e-05
6.85345e-05
4.12535e-05
1.37834e-05
0.00263387
0.00262667
0.00261319
0.00259335
0.00256723
0.00253523
0.00249799
0.00245636
0.00241148
0.00236452
0.00231644
0.00226817
0.00222043
0.00217371
0.0021284
0.00208459
0.00204212
0.00200107
0.0019616
0.00192355
0.00188683
0.00185155
0.00181759
0.00178478
0.00175325
0.00172307
0.00169388
0.00166556
0.00163837
0.00161236
0.00158719
0.00156261
0.00153871
0.00151555
0.00149302
0.00147094
0.00144922
0.00142781
0.00140662
0.00138555
0.00136459
0.00134375
0.00132307
0.00130256
0.00128222
0.00126202
0.00124192
0.00122187
0.00120182
0.00118173
0.00116158
0.00114135
0.00112103
0.00110063
0.00108015
0.00105958
0.00103891
0.00101816
0.000997306
0.000976348
0.00095528
0.000934095
0.000912787
0.000891351
0.000869782
0.000848076
0.000826228
0.000804237
0.000782098
0.000759811
0.00073737
0.000714777
0.000692026
0.000669119
0.000646052
0.000622824
0.000599437
0.000575881
0.000552167
0.000528281
0.000504231
0.000480012
0.00045562
0.000431063
0.000406326
0.000381421
0.00035634
0.000331079
0.000305648
0.00028003
0.000254238
0.000228265
0.000202103
0.000175765
0.000149238
0.000122523
9.56254e-05
6.85351e-05
4.12537e-05
1.37835e-05
0.00256392
0.00255808
0.00254714
0.00253101
0.00250971
0.00248345
0.00245266
0.00241793
0.00238002
0.00233975
0.00229789
0.00225525
0.00221252
0.00217009
0.00212823
0.00208721
0.00204717
0.0020082
0.00197039
0.00193361
0.00189779
0.00186308
0.00182955
0.00179708
0.00176569
0.00173543
0.00170613
0.00167761
0.00165
0.00162344
0.00159774
0.00157265
0.00154816
0.00152435
0.00150116
0.00147845
0.00145613
0.00143413
0.0014124
0.00139087
0.00136951
0.00134833
0.00132734
0.00130653
0.0012859
0.00126541
0.00124503
0.00122471
0.0012044
0.00118408
0.00116371
0.00114329
0.00112279
0.00110222
0.00108158
0.00106087
0.00104007
0.00101919
0.000998222
0.000977157
0.000955991
0.000934717
0.00091333
0.000891823
0.00087019
0.000848428
0.000826532
0.000804498
0.000782321
0.000760001
0.000737532
0.000714914
0.000692142
0.000669218
0.000646136
0.000622894
0.000599496
0.000575931
0.000552208
0.000528315
0.00050426
0.000480036
0.000455639
0.000431079
0.000406339
0.000381432
0.000356349
0.000331087
0.000305654
0.000280036
0.000254242
0.000228268
0.000202106
0.000175767
0.00014924
0.000122524
9.56264e-05
6.85357e-05
4.1254e-05
1.37836e-05
0.002501
0.00249627
0.00248738
0.00247424
0.00245683
0.00243526
0.00240979
0.0023808
0.00234879
0.00231434
0.0022781
0.00224063
0.00220247
0.00216401
0.00212564
0.00208766
0.00205024
0.0020134
0.00197722
0.00194176
0.00190706
0.00187322
0.0018403
0.00180827
0.0017771
0.00174687
0.0017175
0.00168886
0.00166101
0.00163403
0.00160786
0.00158232
0.00155734
0.00153297
0.0015092
0.00148592
0.00146304
0.0014405
0.00141827
0.00139629
0.00137455
0.00135302
0.0013317
0.00131059
0.00128966
0.00126888
0.00124821
0.00122762
0.00120706
0.00118649
0.0011659
0.00114527
0.00112459
0.00110386
0.00108306
0.0010622
0.00104126
0.00102026
0.000999171
0.000977999
0.000956734
0.00093537
0.000913901
0.000892321
0.000870623
0.000848803
0.000826855
0.000804776
0.00078256
0.000760205
0.000737706
0.000715062
0.000692268
0.000669324
0.000646226
0.00062297
0.00059956
0.000575984
0.000552253
0.000528353
0.000504291
0.000480062
0.000455661
0.000431097
0.000406354
0.000381445
0.000356359
0.000331095
0.000305661
0.000280041
0.000254246
0.000228272
0.000202109
0.000175769
0.000149242
0.000122526
9.56274e-05
6.85365e-05
4.12543e-05
1.37837e-05
0.00244629
0.00244242
0.00243513
0.00242432
0.00240995
0.00239208
0.00237083
0.00234647
0.00231931
0.00228977
0.00225826
0.00222526
0.0021912
0.0021565
0.00212147
0.00208637
0.00205136
0.00201657
0.00198214
0.00194817
0.00191469
0.00188178
0.00184953
0.00181797
0.00178714
0.00175705
0.00172771
0.00169903
0.00167102
0.00164375
0.0016172
0.00159127
0.00156588
0.00154106
0.00151678
0.001493
0.00146963
0.00144663
0.00142396
0.00140158
0.00137948
0.00135762
0.00133599
0.00131458
0.00129337
0.00127231
0.00125136
0.0012305
0.00120969
0.00118889
0.00116808
0.00114725
0.00112639
0.00110548
0.00108453
0.00106352
0.00104246
0.00102132
0.00100012
0.000978845
0.000957482
0.00093603
0.00091448
0.000892827
0.000871064
0.000849185
0.000827185
0.000805061
0.000782804
0.000760415
0.000737885
0.000715215
0.000692398
0.000669434
0.000646319
0.000623049
0.000599626
0.00057604
0.000552299
0.000528392
0.000504323
0.000480089
0.000455684
0.000431116
0.00040637
0.000381457
0.00035637
0.000331103
0.000305668
0.000280047
0.000254251
0.000228276
0.000202112
0.000175772
0.000149244
0.000122527
9.56285e-05
6.85373e-05
4.12547e-05
1.37838e-05
0.00240121
0.00239797
0.00239186
0.00238279
0.00237071
0.00235561
0.00233758
0.00231677
0.0022934
0.00226772
0.00224006
0.00221077
0.00218021
0.00214869
0.0021165
0.0020839
0.00205109
0.00201824
0.00198547
0.00195287
0.00192052
0.00188852
0.00185697
0.00182595
0.00179549
0.00176563
0.00173637
0.00170769
0.0016796
0.00165215
0.00162532
0.00159908
0.00157337
0.00154817
0.0015235
0.0014993
0.00147553
0.00145213
0.00142909
0.00140636
0.00138394
0.00136179
0.00133989
0.00131822
0.00129675
0.00127544
0.00125426
0.00123317
0.00121214
0.00119114
0.00117014
0.00114913
0.0011281
0.00110704
0.00108594
0.0010648
0.00104361
0.00102236
0.00100105
0.00097967
0.000958215
0.000936676
0.000915049
0.000893325
0.000871499
0.000849563
0.000827513
0.000805343
0.000783047
0.000760623
0.000738063
0.000715367
0.000692527
0.000669544
0.000646412
0.000623127
0.000599692
0.000576095
0.000552346
0.000528431
0.000504356
0.000480116
0.000455706
0.000431135
0.000406385
0.00038147
0.00035638
0.000331112
0.000305675
0.000280053
0.000254255
0.000228279
0.000202115
0.000175774
0.000149246
0.000122528
9.56296e-05
6.85381e-05
4.12551e-05
1.37839e-05
0.00236771
0.00236492
0.00235962
0.00235175
0.00234123
0.00232805
0.00231226
0.00229394
0.00227325
0.00225038
0.00222556
0.00219903
0.00217108
0.00214197
0.00211199
0.00208137
0.00205031
0.00201898
0.00198751
0.00195602
0.00192462
0.0018934
0.00186248
0.00183192
0.0018018
0.00177217
0.00174303
0.00171438
0.00168626
0.0016587
0.00163171
0.00160525
0.0015793
0.00155384
0.00152888
0.00150438
0.00148031
0.00145662
0.0014333
0.00141031
0.00138764
0.00136525
0.00134313
0.00132124
0.00129956
0.00127805
0.00125667
0.00123538
0.00121416
0.00119299
0.00117183
0.00115067
0.0011295
0.00110831
0.00108709
0.00106584
0.00104455
0.0010232
0.0010018
0.000980341
0.00095881
0.000937203
0.000915513
0.000893732
0.000871854
0.000849872
0.000827781
0.000805575
0.000783247
0.000760794
0.00073821
0.000715492
0.000692634
0.000669634
0.000646488
0.000623192
0.000599746
0.000576141
0.000552384
0.000528463
0.000504382
0.000480138