/*--------------------------------*- C++ -*----------------------------------*\
| =========                 |                                                 |
| \\      /  F ield         | OpenFOAM: The Open Source CFD Toolbox           |
|  \\    /   O peration     | Version:  2.3.0                                 |
|   \\  /    A nd           | Web:      www.OpenFOAM.org                      |
|    \\/     M anipulation  |                                                 |
\*---------------------------------------------------------------------------*/
FoamFile
{
    version     2.0;
    format      ascii;
    class       volVectorField;
    location    "0.1";
    object      U;
}
// * * * * * * * * * * * * * * * * * * * * * * * * * * * * * * * * * * * * * //

dimensions      [0 1 -1 0 0 0 0];

internalField   nonuniform List<vector> 
2700
(
(0.188981 0.00340164 0)
(0.175078 0.00573991 0)
(0.159259 0.00577727 0)
(0.141395 0.00534076 0)
(0.123058 0.00494132 0)
(0.105713 0.00441029 0)
(0.0905012 0.00365511 0)
(0.0779067 0.00269905 0)
(0.0679417 0.00171565 0)
(0.0603597 0.000908457 0)
(0.0547548 0.000366392 0)
(0.0506863 5.87502e-05 0)
(0.0477464 -8.63598e-05 0)
(0.0455924 -0.000129681 0)
(0.0439562 -0.000115779 0)
(0.0426439 -7.74312e-05 0)
(0.0415282 -3.52124e-05 0)
(0.0405345 3.15372e-07 0)
(0.0396226 2.53938e-05 0)
(0.0387759 3.97149e-05 0)
(0.0379923 4.50608e-05 0)
(0.0372732 4.43491e-05 0)
(0.0366202 4.05577e-05 0)
(0.0360352 3.60102e-05 0)
(0.0355206 3.15665e-05 0)
(0.0350761 2.73248e-05 0)
(0.0346997 2.31099e-05 0)
(0.0343895 1.86127e-05 0)
(0.034144 1.3766e-05 0)
(0.0339602 8.84799e-06 0)
(0.0338316 4.33114e-06 0)
(0.0337479 6.98466e-07 0)
(0.0336961 -1.72269e-06 0)
(0.0336628 -2.82189e-06 0)
(0.0336376 -2.78036e-06 0)
(0.0336141 -2.52749e-06 0)
(0.0335899 -2.37335e-06 0)
(0.0335645 -2.17706e-06 0)
(0.0335382 -1.79845e-06 0)
(0.0335102 -1.14543e-06 0)
(0.0334794 -1.96405e-07 0)
(0.0334451 8.89713e-07 0)
(0.0334082 1.81675e-06 0)
(0.0333706 2.36022e-06 0)
(0.0333348 2.45395e-06 0)
(0.0333034 2.1714e-06 0)
(0.0332779 1.66169e-06 0)
(0.0332589 1.07367e-06 0)
(0.0332462 5.27848e-07 0)
(0.0332388 7.98508e-08 0)
(0.0332356 -2.54487e-07 0)
(0.0332355 -5.92501e-07 0)
(0.0332372 -7.4892e-07 0)
(0.0332401 -7.84871e-07 0)
(0.0332435 -7.37894e-07 0)
(0.033247 -6.71607e-07 0)
(0.0332503 -5.97302e-07 0)
(0.0332533 -5.20787e-07 0)
(0.0332561 -4.48869e-07 0)
(0.0332584 -3.83179e-07 0)
(0.0332605 -3.2678e-07 0)
(0.0332623 -2.76935e-07 0)
(0.0332639 -2.36194e-07 0)
(0.0332652 -1.99677e-07 0)
(0.0332663 -1.70972e-07 0)
(0.0332673 -1.44355e-07 0)
(0.0332682 -1.23874e-07 0)
(0.0332689 -1.04824e-07 0)
(0.0332696 -8.95142e-08 0)
(0.0332701 -7.6921e-08 0)
(0.0332706 -6.34915e-08 0)
(0.033271 -5.64587e-08 0)
(0.0332714 -4.42916e-08 0)
(0.0332717 -4.15301e-08 0)
(0.033272 -3.11096e-08 0)
(0.0332722 -2.9351e-08 0)
(0.0332724 -2.33397e-08 0)
(0.0332725 -1.87627e-08 0)
(0.0332727 -1.90215e-08 0)
(0.0332728 -1.06417e-08 0)
(0.0332729 -1.47558e-08 0)
(0.033273 -7.35544e-09 0)
(0.0332731 -8.45576e-09 0)
(0.0332731 -8.21003e-09 0)
(0.0332732 -1.94016e-09 0)
(0.0332732 -8.01211e-09 0)
(0.0332732 -1.34788e-09 0)
(0.0332733 -2.85716e-09 0)
(0.0332733 -5.05468e-09 0)
(0.0332733 1.68817e-09 0)
(0.0332733 -3.94077e-09 0)
(0.0332733 -1.65543e-09 0)
(0.0332734 1.47531e-09 0)
(0.0332734 -3.17292e-09 0)
(0.0332734 -2.7478e-10 0)
(0.0332734 1.06845e-09 0)
(0.0332734 -1.89502e-09 0)
(0.0332734 -2.17385e-10 0)
(0.0332734 6.30156e-10 0)
(0.0332734 8.55766e-11 0)
(0.200079 0.00563282 0)
(0.20286 0.0102932 0)
(0.20385 0.0111958 0)
(0.202064 0.0110556 0)
(0.19782 0.010868 0)
(0.19187 0.0105173 0)
(0.185022 0.00981124 0)
(0.177738 0.00870365 0)
(0.170327 0.00732824 0)
(0.163018 0.00589885 0)
(0.155982 0.00460226 0)
(0.149355 0.00353046 0)
(0.143233 0.00269241 0)
(0.137662 0.00206593 0)
(0.132649 0.00161827 0)
(0.128164 0.00130748 0)
(0.124153 0.00109289 0)
(0.120564 0.000942682 0)
(0.117348 0.000830745 0)
(0.114458 0.000738233 0)
(0.111863 0.000655907 0)
(0.109536 0.000579479 0)
(0.107458 0.000506084 0)
(0.105614 0.000435207 0)
(0.103989 0.000368075 0)
(0.102574 0.000305944 0)
(0.101359 0.000248828 0)
(0.100333 0.000195954 0)
(0.0994844 0.00014738 0)
(0.0988004 0.000104557 0)
(0.0982623 6.95927e-05 0)
(0.0978459 4.41567e-05 0)
(0.0975234 2.86281e-05 0)
(0.0972676 2.18332e-05 0)
(0.0970547 2.11578e-05 0)
(0.0968672 2.28403e-05 0)
(0.0966934 2.43511e-05 0)
(0.0965256 2.49193e-05 0)
(0.0963579 2.48455e-05 0)
(0.096187 2.47999e-05 0)
(0.0960116 2.51667e-05 0)
(0.0958341 2.56701e-05 0)
(0.0956593 2.55703e-05 0)
(0.0954943 2.42458e-05 0)
(0.0953455 2.15522e-05 0)
(0.095218 1.78193e-05 0)
(0.0951139 1.36323e-05 0)
(0.095033 9.56012e-06 0)
(0.0949729 6.02049e-06 0)
(0.0949303 3.20553e-06 0)
(0.0949013 1.13278e-06 0)
(0.0948826 -3.68131e-07 0)
(0.0948711 -1.23911e-06 0)
(0.0948644 -1.65872e-06 0)
(0.0948609 -1.89149e-06 0)
(0.0948593 -1.89709e-06 0)
(0.0948589 -1.7723e-06 0)
(0.094859 -1.59265e-06 0)
(0.0948595 -1.40193e-06 0)
(0.0948602 -1.21636e-06 0)
(0.0948609 -1.05165e-06 0)
(0.0948617 -9.02558e-07 0)
(0.0948624 -7.78725e-07 0)
(0.0948631 -6.66077e-07 0)
(0.0948638 -5.76242e-07 0)
(0.0948643 -4.92031e-07 0)
(0.0948649 -4.26038e-07 0)
(0.0948654 -3.64395e-07 0)
(0.094866 -3.13174e-07 0)
(0.0948663 -2.71585e-07 0)
(0.0948668 -2.27158e-07 0)
(0.0948671 -2.03043e-07 0)
(0.0948675 -1.62358e-07 0)
(0.0948677 -1.51116e-07 0)
(0.094868 -1.16384e-07 0)
(0.0948682 -1.08295e-07 0)
(0.0948684 -8.77727e-08 0)
(0.0948686 -7.14665e-08 0)
(0.0948687 -7.06026e-08 0)
(0.0948688 -4.349e-08 0)
(0.094869 -5.42323e-08 0)
(0.094869 -3.08993e-08 0)
(0.0948692 -3.23386e-08 0)
(0.0948692 -3.14379e-08 0)
(0.0948693 -1.18829e-08 0)
(0.0948693 -2.8168e-08 0)
(0.0948694 -9.36885e-09 0)
(0.0948695 -1.03234e-08 0)
(0.0948694 -1.89992e-08 0)
(0.0948695 2.3843e-09 0)
(0.0948695 -1.28211e-08 0)
(0.0948695 -7.86315e-09 0)
(0.0948696 3.43461e-09 0)
(0.0948696 -1.053e-08 0)
(0.0948696 -2.45399e-09 0)
(0.0948696 2.72468e-09 0)
(0.0948696 -6.29067e-09 0)
(0.0948696 -1.6084e-09 0)
(0.0948696 8.96621e-10 0)
(0.0948696 -6.21675e-11 0)
(0.200022 0.00371084 0)
(0.202941 0.00826824 0)
(0.206304 0.0100748 0)
(0.208914 0.0106097 0)
(0.210359 0.0108784 0)
(0.210739 0.0110079 0)
(0.210285 0.0108082 0)
(0.209123 0.0101949 0)
(0.207324 0.00925079 0)
(0.204953 0.00814602 0)
(0.202109 0.00705685 0)
(0.198938 0.00609339 0)
(0.19558 0.00528541 0)
(0.192148 0.00462247 0)
(0.188732 0.00408421 0)
(0.18539 0.00364367 0)
(0.182147 0.00327367 0)
(0.179015 0.00295633 0)
(0.176007 0.00267713 0)
(0.173133 0.00242221 0)
(0.170398 0.00218398 0)
(0.167809 0.00196021 0)
(0.165375 0.00174834 0)
(0.163106 0.00154537 0)
(0.16101 0.00135089 0)
(0.159093 0.00116587 0)
(0.157358 0.000990095 0)
(0.155803 0.000823125 0)
(0.154428 0.000666687 0)
(0.15323 0.000525055 0)
(0.152204 0.000403342 0)
(0.151334 0.000305573 0)
(0.150596 0.000233236 0)
(0.149965 0.000184455 0)
(0.14942 0.000154633 0)
(0.148948 0.000138516 0)
(0.148538 0.000131512 0)
(0.148175 0.000130258 0)
(0.147841 0.000132406 0)
(0.147513 0.000135865 0)
(0.147171 0.000138296 0)
(0.146807 0.000137349 0)
(0.146425 0.000131364 0)
(0.146037 0.000119987 0)
(0.145663 0.000104255 0)
(0.145319 8.61047e-05 0)
(0.14502 6.76559e-05 0)
(0.14477 5.06353e-05 0)
(0.144569 3.61196e-05 0)
(0.144413 2.45374e-05 0)
(0.144295 1.58124e-05 0)
(0.144208 9.62224e-06 0)
(0.144144 5.45523e-06 0)
(0.144097 2.78207e-06 0)
(0.144063 1.03251e-06 0)
(0.144037 2.50693e-08 0)
(0.144018 -4.97015e-07 0)
(0.144004 -7.34484e-07 0)
(0.143992 -8.18862e-07 0)
(0.143984 -8.18281e-07 0)
(0.143977 -7.8419e-07 0)
(0.143971 -7.27073e-07 0)
(0.143967 -6.73045e-07 0)
(0.143963 -6.09211e-07 0)
(0.14396 -5.58034e-07 0)
(0.143958 -4.99163e-07 0)
(0.143956 -4.5238e-07 0)
(0.143955 -4.02731e-07 0)
(0.143953 -3.56435e-07 0)
(0.143952 -3.21454e-07 0)
(0.143952 -2.76797e-07 0)
(0.143951 -2.61171e-07 0)
(0.143951 -2.12249e-07 0)
(0.143951 -2.07364e-07 0)
(0.14395 -1.62073e-07 0)
(0.14395 -1.55825e-07 0)
(0.14395 -1.2955e-07 0)
(0.14395 -1.06805e-07 0)
(0.14395 -1.0895e-07 0)
(0.14395 -6.79141e-08 0)
(0.14395 -8.64881e-08 0)
(0.14395 -5.0092e-08 0)
(0.14395 -5.42012e-08 0)
(0.14395 -5.06241e-08 0)
(0.14395 -2.42058e-08 0)
(0.14395 -4.53707e-08 0)
(0.14395 -1.83531e-08 0)
(0.14395 -1.9685e-08 0)
(0.14395 -2.99888e-08 0)
(0.14395 -1.04406e-09 0)
(0.14395 -2.1044e-08 0)
(0.14395 -1.34096e-08 0)
(0.14395 2.11448e-09 0)
(0.14395 -1.69089e-08 0)
(0.14395 -4.69999e-09 0)
(0.14395 2.50703e-09 0)
(0.14395 -1.03342e-08 0)
(0.14395 -2.89654e-09 0)
(0.14395 3.77907e-10 0)
(0.14395 -5.51858e-10 0)
(0.200008 0.00252404 0)
(0.201848 0.00632487 0)
(0.204537 0.00841227 0)
(0.207334 0.00930766 0)
(0.209703 0.00972786 0)
(0.211554 0.00997185 0)
(0.212975 0.0099821 0)
(0.214021 0.00968029 0)
(0.214679 0.00908881 0)
(0.2149 0.00831657 0)
(0.214672 0.00750211 0)
(0.214056 0.00674738 0)
(0.213139 0.00609452 0)
(0.212007 0.00554904 0)
(0.210736 0.00509733 0)
(0.209375 0.00471307 0)
(0.207955 0.00437439 0)
(0.206491 0.00407088 0)
(0.204995 0.00379188 0)
(0.203478 0.00352514 0)
(0.201955 0.00326645 0)
(0.200435 0.00301626 0)
(0.198924 0.00277009 0)
(0.19743 0.0025218 0)
(0.195974 0.00227213 0)
(0.194578 0.00202711 0)
(0.193253 0.00179016 0)
(0.191994 0.0015597 0)
(0.190797 0.00133422 0)
(0.189671 0.00111798 0)
(0.188641 0.000921617 0)
(0.187722 0.000756741 0)
(0.186904 0.000628711 0)
(0.186159 0.000533315 0)
(0.18546 0.000460232 0)
(0.184804 0.00040046 0)
(0.184205 0.000351477 0)
(0.183683 0.000316774 0)
(0.183241 0.000300857 0)
(0.182855 0.000303861 0)
(0.182478 0.000319432 0)
(0.182064 0.000336769 0)
(0.181583 0.000345097 0)
(0.181034 0.000337712 0)
(0.180438 0.000313587 0)
(0.179832 0.000276365 0)
(0.179252 0.000231989 0)
(0.178727 0.000186408 0)
(0.178275 0.000144167 0)
(0.177902 0.000107931 0)
(0.177604 7.86929e-05 0)
(0.177371 5.62679e-05 0)
(0.177193 3.97302e-05 0)
(0.177058 2.79201e-05 0)
(0.176956 1.97347e-05 0)
(0.176879 1.41133e-05 0)
(0.176819 1.02544e-05 0)
(0.176774 7.58714e-06 0)
(0.176738 5.70649e-06 0)
(0.176709 4.35413e-06 0)
(0.176686 3.34823e-06 0)
(0.176668 2.59294e-06 0)
(0.176653 2.00215e-06 0)
(0.176641 1.54992e-06 0)
(0.176631 1.18511e-06 0)
(0.176623 9.06409e-07 0)
(0.176616 6.81244e-07 0)
(0.176611 5.07169e-07 0)
(0.176607 3.76121e-07 0)
(0.176603 2.61855e-07 0)
(0.1766 1.93179e-07 0)
(0.176597 1.08923e-07 0)
(0.176596 8.5551e-08 0)
(0.176594 2.50603e-08 0)
(0.176593 2.25179e-08 0)
(0.176592 -1.01561e-08 0)
(0.176591 -1.90441e-08 0)
(0.17659 -1.52351e-08 0)
(0.17659 -4.5192e-08 0)
(0.176589 -1.12577e-08 0)
(0.176589 -4.98908e-08 0)
(0.176589 -1.72636e-08 0)
(0.176588 -3.21868e-08 0)
(0.176588 -3.38644e-08 0)
(0.176588 -9.5173e-09 0)
(0.176588 -3.9106e-08 0)
(0.176588 -8.30168e-09 0)
(0.176588 -1.70222e-08 0)
(0.176588 -2.68367e-08 0)
(0.176588 3.46553e-09 0)
(0.176588 -2.25737e-08 0)
(0.176588 -1.1537e-08 0)
(0.176588 3.99681e-09 0)
(0.176588 -1.91857e-08 0)
(0.176588 -3.69212e-09 0)
(0.176588 3.59514e-09 0)
(0.176588 -1.19146e-08 0)
(0.176588 -2.71141e-09 0)
(0.176588 7.68162e-10 0)
(0.176588 -6.62474e-10 0)
(0.200008 0.00186253 0)
(0.201221 0.00498939 0)
(0.20319 0.00710766 0)
(0.205513 0.00822214 0)
(0.207729 0.0087424 0)
(0.209642 0.00899415 0)
(0.211266 0.00904952 0)
(0.212665 0.00887935 0)
(0.213858 0.00848107 0)
(0.214802 0.00791596 0)
(0.215453 0.00728351 0)
(0.215825 0.00666945 0)
(0.215963 0.00612285 0)
(0.215924 0.00566191 0)
(0.215762 0.00527871 0)
(0.215518 0.00494942 0)
(0.215215 0.00465595 0)
(0.214862 0.00439135 0)
(0.214458 0.00414606 0)
(0.214004 0.00390648 0)
(0.213514 0.00366818 0)
(0.212994 0.00343553 0)
(0.212439 0.00320726 0)
(0.211837 0.00297293 0)
(0.211199 0.00272554 0)
(0.210552 0.00247125 0)
(0.209915 0.00222349 0)
(0.209282 0.0019891 0)
(0.208628 0.00176267 0)
(0.207947 0.00153586 0)
(0.207267 0.00131193 0)
(0.206631 0.00110944 0)
(0.20606 0.000949586 0)
(0.205536 0.000838455 0)
(0.205014 0.000761292 0)
(0.204466 0.000693989 0)
(0.203905 0.000621125 0)
(0.203379 0.000545935 0)
(0.202936 0.000486016 0)
(0.202589 0.000459697 0)
(0.202304 0.00047313 0)
(0.202012 0.000515897 0)
(0.201643 0.000566353 0)
(0.201151 0.000601874 0)
(0.200531 0.000607584 0)
(0.199815 0.000579753 0)
(0.199054 0.000524007 0)
(0.198304 0.000450945 0)
(0.197611 0.000371815 0)
(0.197004 0.000295711 0)
(0.196494 0.000228438 0)
(0.196081 0.000172663 0)
(0.195754 0.000128672 0)
(0.1955 9.52718e-05 0)
(0.195305 7.06017e-05 0)
(0.195155 5.26644e-05 0)
(0.19504 3.97124e-05 0)
(0.194951 3.03416e-05 0)
(0.194881 2.34866e-05 0)
(0.194826 1.83979e-05 0)
(0.194782 1.45438e-05 0)
(0.194746 1.15824e-05 0)
(0.194717 9.26032e-06 0)
(0.194694 7.43012e-06 0)
(0.194675 5.96276e-06 0)
(0.194659 4.78997e-06 0)
(0.194647 3.84358e-06 0)
(0.194636 3.07681e-06 0)
(0.194627 2.46725e-06 0)
(0.19462 1.95745e-06 0)
(0.194615 1.57356e-06 0)
(0.19461 1.22985e-06 0)
(0.194606 9.93774e-07 0)
(0.194603 7.64015e-07 0)
(0.1946 6.14737e-07 0)
(0.194598 4.75023e-07 0)
(0.194596 3.6426e-07 0)
(0.194595 3.0024e-07 0)
(0.194593 2.02883e-07 0)
(0.194593 1.90348e-07 0)
(0.194592 1.1083e-07 0)
(0.194591 1.10243e-07 0)
(0.194591 7.05257e-08 0)
(0.19459 4.64163e-08 0)
(0.19459 5.6227e-08 0)
(0.19459 9.34134e-09 0)
(0.19459 3.47529e-08 0)
(0.194589 1.26683e-08 0)
(0.194589 -2.11774e-09 0)
(0.194589 2.50257e-08 0)
(0.194589 -9.76046e-09 0)
(0.194589 9.31657e-10 0)
(0.194589 1.4324e-08 0)
(0.194589 -1.34351e-08 0)
(0.194589 2.14732e-09 0)
(0.194589 8.41387e-09 0)
(0.194589 -8.84905e-09 0)
(0.194589 -1.79143e-10 0)
(0.194589 3.1765e-09 0)
(0.194589 6.2982e-10 0)
(0.200007 0.00144862 0)
(0.200859 0.00403718 0)
(0.202318 0.00601618 0)
(0.204172 0.00723389 0)
(0.206087 0.00785581 0)
(0.207832 0.0081396 0)
(0.209348 0.00822092 0)
(0.210673 0.0081248 0)
(0.211844 0.0078513 0)
(0.212847 0.00743155 0)
(0.213654 0.00693024 0)
(0.214267 0.00641558 0)
(0.214706 0.00593998 0)
(0.215008 0.00553133 0)
(0.215218 0.00518747 0)
(0.215372 0.0048887 0)
(0.215495 0.0046211 0)
(0.215592 0.00438109 0)
(0.215657 0.00416012 0)
(0.215685 0.00394148 0)
(0.215689 0.00371812 0)
(0.215677 0.00349942 0)
(0.215636 0.00329202 0)
(0.215546 0.00308375 0)
(0.215404 0.00285615 0)
(0.215234 0.00260918 0)
(0.215061 0.00236483 0)
(0.214878 0.002144 0)
(0.214652 0.00194367 0)
(0.214361 0.00174149 0)
(0.214019 0.00152366 0)
(0.213679 0.00130615 0)
(0.21338 0.00112569 0)
(0.213118 0.00100846 0)
(0.212847 0.000946573 0)
(0.212519 0.000903347 0)
(0.212127 0.00084125 0)
(0.211716 0.000748858 0)
(0.211353 0.000647487 0)
(0.211087 0.000575505 0)
(0.210916 0.00056338 0)
(0.210781 0.000615972 0)
(0.210598 0.000711058 0)
(0.210287 0.000811692 0)
(0.20981 0.000882928 0)
(0.209173 0.000903744 0)
(0.20842 0.000870384 0)
(0.207617 0.000792682 0)
(0.206824 0.000687331 0)
(0.206092 0.000571611 0)
(0.20545 0.000459363 0)
(0.20491 0.000359449 0)
(0.20447 0.000275975 0)
(0.204121 0.000209462 0)
(0.203846 0.000158276 0)
(0.203633 0.000119798 0)
(0.203467 9.12558e-05 0)
(0.203338 7.01727e-05 0)
(0.203237 5.45348e-05 0)
(0.203157 4.28264e-05 0)
(0.203094 3.39369e-05 0)
(0.203042 2.70959e-05 0)
(0.203001 2.17513e-05 0)
(0.202968 1.75324e-05 0)
(0.20294 1.41663e-05 0)
(0.202918 1.14624e-05 0)
(0.2029 9.28451e-06 0)
(0.202884 7.51146e-06 0)
(0.202872 6.0881e-06 0)
(0.202862 4.90968e-06 0)
(0.202854 3.9815e-06 0)
(0.202846 3.19463e-06 0)
(0.202841 2.58876e-06 0)
(0.202836 2.0694e-06 0)
(0.202832 1.66536e-06 0)
(0.202829 1.33834e-06 0)
(0.202827 1.05436e-06 0)
(0.202825 8.65011e-07 0)
(0.202823 6.57413e-07 0)
(0.202822 5.54391e-07 0)
(0.202821 4.09637e-07 0)
(0.20282 3.44118e-07 0)
(0.202819 2.6339e-07 0)
(0.202818 1.97551e-07 0)
(0.202818 1.79055e-07 0)
(0.202817 1.05671e-07 0)
(0.202817 1.1317e-07 0)
(0.202817 7.42924e-08 0)
(0.202817 4.58177e-08 0)
(0.202817 6.53232e-08 0)
(0.202816 2.02892e-08 0)
(0.202816 2.43489e-08 0)
(0.202816 3.43116e-08 0)
(0.202816 1.57797e-09 0)
(0.202816 1.32115e-08 0)
(0.202816 1.76969e-08 0)
(0.202816 -7.5586e-10 0)
(0.202816 5.02042e-09 0)
(0.202816 7.79009e-09 0)
(0.202816 3.70254e-09 0)
(0.200005 0.00116565 0)
(0.200632 0.00331871 0)
(0.201732 0.00508459 0)
(0.203199 0.00630296 0)
(0.204811 0.00700152 0)
(0.206359 0.00734049 0)
(0.207741 0.00745937 0)
(0.208954 0.00741957 0)
(0.210023 0.00723769 0)
(0.210953 0.0069322 0)
(0.211736 0.00654089 0)
(0.212374 0.00611338 0)
(0.212872 0.00570067 0)
(0.213252 0.00533666 0)
(0.213551 0.00502309 0)
(0.213808 0.00474372 0)
(0.214045 0.00449124 0)
(0.214266 0.00426792 0)
(0.214466 0.00406459 0)
(0.214642 0.00385913 0)
(0.214807 0.00364244 0)
(0.214967 0.00343037 0)
(0.215109 0.00323845 0)
(0.215213 0.003054 0)
(0.215273 0.00284733 0)
(0.215309 0.00260977 0)
(0.215339 0.00236929 0)
(0.21536 0.00216166 0)
(0.215341 0.00199021 0)
(0.215257 0.00182131 0)
(0.215116 0.00162219 0)
(0.214959 0.00140058 0)
(0.214826 0.00120431 0)
(0.214721 0.00108086 0)
(0.214609 0.00103554 0)
(0.214442 0.00102531 0)
(0.214203 0.000991275 0)
(0.213921 0.00090137 0)
(0.213657 0.000771706 0)
(0.213468 0.000654616 0)
(0.213371 0.000605475 0)
(0.213331 0.000651299 0)
(0.213274 0.000778562 0)
(0.213119 0.000942963 0)
(0.212811 0.0010913 0)
(0.212332 0.00118212 0)
(0.211711 0.00119652 0)
(0.210999 0.00113788 0)
(0.210258 0.00102457 0)
(0.209542 0.000880649 0)
(0.20889 0.000728461 0)
(0.208324 0.000584546 0)
(0.207849 0.000458595 0)
(0.207462 0.000354412 0)
(0.207153 0.000271716 0)
(0.206907 0.000207938 0)
(0.206714 0.000159629 0)
(0.206563 0.000123357 0)
(0.206443 9.6138e-05 0)
(0.206348 7.56014e-05 0)
(0.206272 5.9952e-05 0)
(0.206211 4.78875e-05 0)
(0.206161 3.8472e-05 0)
(0.206121 3.10412e-05 0)
(0.206089 2.51258e-05 0)
(0.206062 2.03729e-05 0)
(0.20604 1.65482e-05 0)
(0.206022 1.34343e-05 0)
(0.206007 1.09251e-05 0)
(0.205995 8.85837e-06 0)
(0.205985 7.20306e-06 0)
(0.205976 5.82756e-06 0)
(0.20597 4.72819e-06 0)
(0.205964 3.82247e-06 0)
(0.20596 3.08049e-06 0)
(0.205956 2.49998e-06 0)
(0.205953 1.98905e-06 0)
(0.20595 1.6267e-06 0)
(0.205948 1.27625e-06 0)
(0.205947 1.04759e-06 0)
(0.205945 8.17963e-07 0)
(0.205944 6.63222e-07 0)
(0.205943 5.27683e-07 0)
(0.205942 4.06003e-07 0)
(0.205942 3.47188e-07 0)
(0.205941 2.41146e-07 0)
(0.205941 2.19638e-07 0)
(0.205941 1.61878e-07 0)
(0.20594 1.12633e-07 0)
(0.20594 1.20453e-07 0)
(0.20594 6.43048e-08 0)
(0.20594 5.67285e-08 0)
(0.20594 6.21289e-08 0)
(0.20594 2.37298e-08 0)
(0.20594 2.88654e-08 0)
(0.20594 3.07012e-08 0)
(0.20594 1.09877e-08 0)
(0.20594 1.2539e-08 0)
(0.20594 1.42773e-08 0)
(0.20594 8.32222e-09 0)
(0.200004 0.000957868 0)
(0.200479 0.00275769 0)
(0.201325 0.00430272 0)
(0.202487 0.0054588 0)
(0.203824 0.00619663 0)
(0.205173 0.00659372 0)
(0.206421 0.00675885 0)
(0.20753 0.00676856 0)
(0.208506 0.0066574 0)
(0.209358 0.00644176 0)
(0.210089 0.00614259 0)
(0.210706 0.00579441 0)
(0.211207 0.00544348 0)
(0.211601 0.00512475 0)
(0.211922 0.00484031 0)
(0.212202 0.00457731 0)
(0.212461 0.00433797 0)
(0.212703 0.00413076 0)
(0.212926 0.0039428 0)
(0.213133 0.00374625 0)
(0.213334 0.00353345 0)
(0.21353 0.00332747 0)
(0.21371 0.00314911 0)
(0.213862 0.00298343 0)
(0.213983 0.00279265 0)
(0.214086 0.00256293 0)
(0.214181 0.00232705 0)
(0.214261 0.00213161 0)
(0.214308 0.00198457 0)
(0.214305 0.00184413 0)
(0.214257 0.00166312 0)
(0.214193 0.00144217 0)
(0.214137 0.00123639 0)
(0.214095 0.00110933 0)
(0.214044 0.00107779 0)
(0.213952 0.001096 0)
(0.213807 0.00108944 0)
(0.213624 0.00100856 0)
(0.213445 0.00086207 0)
(0.213314 0.000710116 0)
(0.21325 0.000626913 0)
(0.213235 0.000659457 0)
(0.213219 0.000805733 0)
(0.213141 0.00101995 0)
(0.212948 0.00123635 0)
(0.212617 0.00139611 0)
(0.212155 0.00146501 0)
(0.211599 0.00143754 0)
(0.210994 0.00133047 0)
(0.210387 0.00117183 0)
(0.209815 0.00099072 0)
(0.209303 0.00081069 0)
(0.208861 0.000647163 0)
(0.208491 0.000507792 0)
(0.208188 0.000394351 0)
(0.207943 0.000304964 0)
(0.207746 0.000236018 0)
(0.20759 0.000183464 0)
(0.207465 0.000143558 0)
(0.207365 0.00011318 0)
(0.207284 8.98953e-05 0)
(0.207219 7.18752e-05 0)
(0.207167 5.77882e-05 0)
(0.207124 4.66585e-05 0)
(0.207089 3.77998e-05 0)
(0.20706 3.06805e-05 0)
(0.207037 2.49509e-05 0)
(0.207017 2.02887e-05 0)
(0.207002 1.65228e-05 0)
(0.206988 1.34307e-05 0)
(0.206978 1.0934e-05 0)
(0.206969 8.8786e-06 0)
(0.206962 7.20924e-06 0)
(0.206956 5.8551e-06 0)
(0.206951 4.72509e-06 0)
(0.206947 3.84744e-06 0)
(0.206944 3.07791e-06 0)
(0.206941 2.51134e-06 0)
(0.206939 1.99802e-06 0)
(0.206937 1.62229e-06 0)
(0.206935 1.29423e-06 0)
(0.206934 1.03649e-06 0)
(0.206933 8.36295e-07 0)
(0.206932 6.50799e-07 0)
(0.206932 5.43249e-07 0)
(0.206931 4.01547e-07 0)
(0.206931 3.43369e-07 0)
(0.206931 2.65615e-07 0)
(0.20693 1.91644e-07 0)
(0.20693 1.84475e-07 0)
(0.20693 1.17163e-07 0)
(0.20693 9.49866e-08 0)
(0.20693 9.48207e-08 0)
(0.20693 5.01238e-08 0)
(0.20693 4.77238e-08 0)
(0.20693 4.61057e-08 0)
(0.20693 2.47202e-08 0)
(0.206929 2.16559e-08 0)
(0.206929 2.20537e-08 0)
(0.206929 1.3955e-08 0)
(0.200003 0.000797642 0)
(0.200371 0.00231404 0)
(0.201033 0.00365568 0)
(0.201958 0.00471978 0)
(0.20306 0.00546114 0)
(0.204219 0.00590332 0)
(0.205331 0.00611567 0)
(0.206342 0.00617225 0)
(0.207237 0.00611848 0)
(0.20802 0.00597264 0)
(0.208702 0.00574817 0)
(0.209289 0.0054708 0)
(0.209778 0.00518018 0)
(0.210176 0.00490651 0)
(0.210505 0.00465057 0)
(0.210794 0.00440496 0)
(0.211056 0.00418072 0)
(0.211296 0.00398964 0)
(0.211519 0.00381481 0)
(0.21173 0.00362559 0)
(0.211935 0.00341816 0)
(0.21213 0.00322111 0)
(0.212307 0.0030557 0)
(0.212462 0.00290313 0)
(0.212598 0.00272239 0)
(0.212719 0.00250012 0)
(0.212827 0.00227289 0)
(0.212914 0.00209141 0)
(0.212971 0.00196392 0)
(0.212995 0.0018435 0)
(0.212991 0.00167597 0)
(0.212973 0.00145914 0)
(0.212951 0.00125235 0)
(0.212924 0.00112738 0)
(0.212884 0.00110687 0)
(0.212819 0.00114355 0)
(0.212724 0.00115457 0)
(0.21261 0.0010804 0)
(0.212496 0.000924794 0)
(0.212406 0.000751488 0)
(0.212352 0.000645636 0)
(0.212327 0.000667418 0)
(0.212303 0.000824191 0)
(0.212244 0.00107171 0)
(0.212113 0.00133767 0)
(0.211888 0.0015518 0)
(0.211567 0.00166811 0)
(0.211167 0.00167274 0)
(0.210718 0.00157915 0)
(0.210251 0.00141664 0)
(0.209796 0.00121841 0)
(0.209375 0.00101312 0)
(0.209 0.000820891 0)
(0.208678 0.000652923 0)
(0.208406 0.000513234 0)
(0.208181 0.000401058 0)
(0.207997 0.000313071 0)
(0.207847 0.000245019 0)
(0.207726 0.000192708 0)
(0.207628 0.000152492 0)
(0.207549 0.000121433 0)
(0.207484 9.72642e-05 0)
(0.207432 7.83018e-05 0)
(0.207389 6.32834e-05 0)
(0.207354 5.13123e-05 0)
(0.207325 4.16831e-05 0)
(0.207301 3.39264e-05 0)
(0.207282 2.76158e-05 0)
(0.207266 2.25083e-05 0)
(0.207252 1.83226e-05 0)
(0.207242 1.4927e-05 0)
(0.207233 1.21448e-05 0)
(0.207225 9.86743e-06 0)
(0.207219 8.03151e-06 0)
(0.207214 6.4896e-06 0)
(0.20721 5.2903e-06 0)
(0.207207 4.24756e-06 0)
(0.207204 3.45946e-06 0)
(0.207202 2.77332e-06 0)
(0.2072 2.23975e-06 0)
(0.207199 1.80529e-06 0)
(0.207198 1.43858e-06 0)
(0.207197 1.16736e-06 0)
(0.207196 9.15032e-07 0)
(0.207195 7.53251e-07 0)
(0.207195 5.75451e-07 0)
(0.207194 4.75836e-07 0)
(0.207194 3.77623e-07 0)
(0.207194 2.77481e-07 0)
(0.207193 2.52612e-07 0)
(0.207193 1.74881e-07 0)
(0.207193 1.3635e-07 0)
(0.207193 1.29981e-07 0)
(0.207193 7.87077e-08 0)
(0.207193 6.82967e-08 0)
(0.207193 6.2882e-08 0)
(0.207193 3.93318e-08 0)
(0.207193 3.16367e-08 0)
(0.207193 3.06153e-08 0)
(0.207193 2.01418e-08 0)
(0.200002 0.000670927 0)
(0.200293 0.0019584 0)
(0.200817 0.003121 0)
(0.20156 0.00408361 0)
(0.202466 0.0048006 0)
(0.203452 0.00526791 0)
(0.204432 0.0055217 0)
(0.205345 0.0056219 0)
(0.206165 0.00561642 0)
(0.206889 0.00552589 0)
(0.207526 0.00536154 0)
(0.208081 0.00514591 0)
(0.208553 0.0049118 0)
(0.208948 0.00468082 0)
(0.209283 0.00445312 0)
(0.209577 0.00422797 0)
(0.209839 0.00402113 0)
(0.210077 0.00384484 0)
(0.210298 0.00368143 0)
(0.210509 0.00350051 0)
(0.210712 0.00330122 0)
(0.2109 0.0031152 0)
(0.211067 0.0029621 0)
(0.211218 0.00281908 0)
(0.211358 0.00264532 0)
(0.211486 0.00243192 0)
(0.211593 0.00221819 0)
(0.211674 0.00205298 0)
(0.21173 0.00194088 0)
(0.211765 0.00183256 0)
(0.211786 0.00167365 0)
(0.211793 0.0014633 0)
(0.211786 0.00126271 0)
(0.211762 0.00114506 0)
(0.211721 0.00113329 0)
(0.211666 0.00117907 0)
(0.211603 0.0011972 0)
(0.211535 0.00112551 0)
(0.211468 0.000966203 0)
(0.211408 0.000784111 0)
(0.211357 0.000668507 0)
(0.211314 0.000685606 0)
(0.211271 0.000848307 0)
(0.21121 0.00111488 0)
(0.211111 0.00141118 0)
(0.21096 0.0016614 0)
(0.210748 0.00181238 0)
(0.21048 0.00184402 0)
(0.21017 0.00176606 0)
(0.209836 0.001607 0)
(0.209498 0.00140166 0)
(0.209173 0.00118162 0)
(0.208873 0.000970216 0)
(0.208606 0.000781457 0)
(0.208375 0.00062143 0)
(0.208178 0.000490656 0)
(0.208014 0.000386436 0)
(0.207877 0.00030467 0)
(0.207765 0.000241027 0)
(0.207673 0.000191581 0)
(0.207597 0.000153069 0)
(0.207535 0.000122901 0)
(0.207485 9.91165e-05 0)
(0.207443 8.02131e-05 0)
(0.207409 6.51075e-05 0)
(0.207381 5.2938e-05 0)
(0.207358 4.31198e-05 0)
(0.207339 3.51293e-05 0)
(0.207323 2.86504e-05 0)
(0.20731 2.33462e-05 0)
(0.2073 1.90296e-05 0)
(0.207291 1.55016e-05 0)
(0.207284 1.26017e-05 0)
(0.207278 1.02688e-05 0)
(0.207273 8.30678e-06 0)
(0.207269 6.77365e-06 0)
(0.207266 5.45305e-06 0)
(0.207263 4.43502e-06 0)
(0.207261 3.57199e-06 0)
(0.207259 2.8764e-06 0)
(0.207258 2.33107e-06 0)
(0.207257 1.85405e-06 0)
(0.207256 1.50761e-06 0)
(0.207255 1.18852e-06 0)
(0.207254 9.68832e-07 0)
(0.207254 7.55795e-07 0)
(0.207253 6.1209e-07 0)
(0.207253 4.92995e-07 0)
(0.207253 3.66987e-07 0)
(0.207253 3.21971e-07 0)
(0.207252 2.35084e-07 0)
(0.207252 1.79126e-07 0)
(0.207252 1.66116e-07 0)
(0.207252 1.08403e-07 0)
(0.207252 8.95463e-08 0)
(0.207252 8.04328e-08 0)
(0.207252 5.42484e-08 0)
(0.207252 4.19748e-08 0)
(0.207252 3.96583e-08 0)
(0.207252 2.66172e-08 0)
(0.200002 0.000568975 0)
(0.200234 0.00166885 0)
(0.200655 0.00267703 0)
(0.201257 0.00353899 0)
(0.202003 0.00421446 0)
(0.202837 0.0046873 0)
(0.203691 0.00497126 0)
(0.204508 0.00510939 0)
(0.205256 0.00514568 0)
(0.205925 0.00510067 0)
(0.206519 0.00498518 0)
(0.207043 0.00482192 0)
(0.207495 0.00463834 0)
(0.207884 0.00444716 0)
(0.208221 0.00424788 0)
(0.208517 0.00404536 0)
(0.20878 0.0038572 0)
(0.209016 0.00369503 0)
(0.209236 0.00354266 0)
(0.209447 0.00337164 0)
(0.209648 0.00318268 0)
(0.20983 0.00300874 0)
(0.20999 0.00286768 0)
(0.210138 0.00273315 0)
(0.21028 0.00256575 0)
(0.21041 0.00236253 0)
(0.210514 0.00216471 0)
(0.210591 0.0020159 0)
(0.210646 0.00191489 0)
(0.210691 0.00181245 0)
(0.210727 0.00165898 0)
(0.21075 0.00145753 0)
(0.210753 0.00126896 0)
(0.210731 0.00116279 0)
(0.210692 0.0011584 0)
(0.210647 0.00120664 0)
(0.210606 0.00122426 0)
(0.210572 0.00115167 0)
(0.210537 0.000992339 0)
(0.210497 0.000810747 0)
(0.21045 0.000695518 0)
(0.210396 0.000713423 0)
(0.210339 0.000879441 0)
(0.210276 0.00115433 0)
(0.2102 0.0014652 0)
(0.210102 0.00173522 0)
(0.209972 0.00190822 0)
(0.209807 0.00196013 0)
(0.209609 0.00189726 0)
(0.209386 0.00174612 0)
(0.209149 0.00154121 0)
(0.20891 0.00131513 0)
(0.208681 0.00109299 0)
(0.208469 0.000890759 0)
(0.208278 0.000716258 0)
(0.208112 0.000571293 0)
(0.207969 0.000453986 0)
(0.207847 0.000360655 0)
(0.207746 0.000287098 0)
(0.207661 0.000229328 0)
(0.207592 0.000183926 0)
(0.207534 0.000148102 0)
(0.207486 0.000119699 0)
(0.207447 9.70296e-05 0)
(0.207414 7.88563e-05 0)
(0.207387 6.41841e-05 0)
(0.207365 5.23229e-05 0)
(0.207347 4.26625e-05 0)
(0.207332 3.4815e-05 0)
(0.20732 2.8393e-05 0)
(0.20731 2.31543e-05 0)
(0.207301 1.88776e-05 0)
(0.207294 1.53544e-05 0)
(0.207288 1.25199e-05 0)
(0.207284 1.01384e-05 0)
(0.20728 8.26664e-06 0)
(0.207277 6.66888e-06 0)
(0.207274 5.41785e-06 0)
(0.207272 4.37705e-06 0)
(0.20727 3.51909e-06 0)
(0.207269 2.86026e-06 0)
(0.207268 2.27433e-06 0)
(0.207267 1.84966e-06 0)
(0.207266 1.46556e-06 0)
(0.207265 1.1855e-06 0)
(0.207265 9.38402e-07 0)
(0.207265 7.49679e-07 0)
(0.207264 6.08806e-07 0)
(0.207264 4.585e-07 0)
(0.207264 3.90985e-07 0)
(0.207264 2.96357e-07 0)
(0.207263 2.22552e-07 0)
(0.207263 2.02238e-07 0)
(0.207263 1.38722e-07 0)
(0.207263 1.10923e-07 0)
(0.207263 9.83262e-08 0)
(0.207263 6.92401e-08 0)
(0.207263 5.23925e-08 0)
(0.207263 4.89868e-08 0)
(0.207263 3.32393e-08 0)
(0.200002 0.000485732 0)
(0.200189 0.00142993 0)
(0.20053 0.00230551 0)
(0.201021 0.00307301 0)
(0.201638 0.00369832 0)
(0.202342 0.00416048 0)
(0.203079 0.00446202 0)
(0.203804 0.00463138 0)
(0.204483 0.00470298 0)
(0.205099 0.00469567 0)
(0.205653 0.00462115 0)
(0.206146 0.004502 0)
(0.206578 0.00436199 0)
(0.206956 0.00420746 0)
(0.207291 0.00403603 0)
(0.207587 0.00385659 0)
(0.207848 0.00368857 0)
(0.208085 0.00354143 0)
(0.208306 0.00339965 0)
(0.208516 0.0032389 0)
(0.208713 0.00306217 0)
(0.208891 0.00290142 0)
(0.209049 0.00277183 0)
(0.209195 0.00264497 0)
(0.209339 0.00248365 0)
(0.209469 0.00229061 0)
(0.209572 0.00210857 0)
(0.209646 0.00197518 0)
(0.209705 0.00188305 0)
(0.209758 0.00178426 0)
(0.209806 0.00163606 0)
(0.209841 0.00144611 0)
(0.20985 0.00127308 0)
(0.209834 0.00117995 0)
(0.209801 0.00118084 0)
(0.209769 0.00122662 0)
(0.209747 0.00123879 0)
(0.209736 0.00116347 0)
(0.209724 0.00100686 0)
(0.2097 0.000832029 0)
(0.209658 0.000723893 0)
(0.209601 0.000746239 0)
(0.20954 0.000913714 0)
(0.209481 0.00118929 0)
(0.209426 0.00150317 0)
(0.209369 0.00178057 0)
(0.209302 0.00196524 0)
(0.209215 0.00203118 0)
(0.209104 0.00198182 0)
(0.208968 0.00184108 0)
(0.208813 0.00164184 0)
(0.208648 0.00141634 0)
(0.20848 0.00119027 0)
(0.208317 0.000980802 0)
(0.208165 0.000797045 0)
(0.208027 0.000641996 0)
(0.207906 0.000514677 0)
(0.207801 0.000411993 0)
(0.207711 0.000330063 0)
(0.207636 0.000265016 0)
(0.207572 0.00021342 0)
(0.207519 0.0001724 0)
(0.207475 0.000139678 0)
(0.207438 0.000113439 0)
(0.207408 9.23262e-05 0)
(0.207383 7.52369e-05 0)
(0.207362 6.13893e-05 0)
(0.207345 5.00981e-05 0)
(0.207331 4.09084e-05 0)
(0.207319 3.33873e-05 0)
(0.207309 2.72401e-05 0)
(0.207301 2.22235e-05 0)
(0.207294 1.80856e-05 0)
(0.207289 1.47527e-05 0)
(0.207284 1.19579e-05 0)
(0.207281 9.74833e-06 0)
(0.207278 7.8775e-06 0)
(0.207276 6.39428e-06 0)
(0.207273 5.1769e-06 0)
(0.207272 4.15888e-06 0)