/*--------------------------------*- C++ -*----------------------------------*\
| =========                 |                                                 |
| \\      /  F ield         | OpenFOAM: The Open Source CFD Toolbox           |
|  \\    /   O peration     | Version:  2.3.0                                 |
|   \\  /    A nd           | Web:      www.OpenFOAM.org                      |
|    \\/     M anipulation  |                                                 |
\*---------------------------------------------------------------------------*/
FoamFile
{
    version     2.0;
    format      ascii;
    class       volVectorField;
    location    "0.1";
    object      U_0;
}
// * * * * * * * * * * * * * * * * * * * * * * * * * * * * * * * * * * * * * //

dimensions      [0 1 -1 0 0 0 0];

internalField   nonuniform List<vector> 
2700
(
(0.188981 0.00340163 0)
(0.175078 0.00573993 0)
(0.159259 0.00577715 0)
(0.141396 0.00534061 0)
(0.123059 0.00494129 0)
(0.105715 0.00441 0)
(0.0905041 0.0036547 0)
(0.0779109 0.00269874 0)
(0.0679472 0.00171516 0)
(0.060367 0.000907894 0)
(0.0547642 0.000365981 0)
(0.0506973 5.82689e-05 0)
(0.0477594 -8.69431e-05 0)
(0.045608 -0.000130209 0)
(0.0439744 -0.000116345 0)
(0.0426648 -7.81689e-05 0)
(0.0415527 -3.60128e-05 0)
(0.0405632 -4.57717e-07 0)
(0.0396555 2.45379e-05 0)
(0.0388138 3.86717e-05 0)
(0.0380359 4.38595e-05 0)
(0.0373229 4.30702e-05 0)
(0.0366765 3.93413e-05 0)
(0.0360991 3.49801e-05 0)
(0.035593 3.06992e-05 0)
(0.0351578 2.65585e-05 0)
(0.0347912 2.23166e-05 0)
(0.0344917 1.76817e-05 0)
(0.0342579 1.26912e-05 0)
(0.0340859 7.73264e-06 0)
(0.0339683 3.334e-06 0)
(0.0338932 -4.38428e-08 0)
(0.033847 -2.16242e-06 0)
(0.0338165 -2.98199e-06 0)
(0.0337923 -2.84502e-06 0)
(0.0337691 -2.66846e-06 0)
(0.0337451 -2.528e-06 0)
(0.0337201 -2.25107e-06 0)
(0.0336937 -1.72892e-06 0)
(0.0336649 -9.06034e-07 0)
(0.0336327 1.72327e-07 0)
(0.033597 1.26577e-06 0)
(0.0335591 2.08128e-06 0)
(0.0335215 2.45413e-06 0)
(0.0334868 2.3837e-06 0)
(0.0334573 1.98637e-06 0)
(0.0334342 1.42363e-06 0)
(0.0334177 8.34715e-07 0)
(0.0334072 3.23922e-07 0)
(0.0334016 -7.97194e-08 0)
(0.0333998 -4.12094e-07 0)
(0.0334005 -6.85202e-07 0)
(0.0334028 -7.88938e-07 0)
(0.033406 -7.88559e-07 0)
(0.0334095 -7.24491e-07 0)
(0.0334129 -6.51749e-07 0)
(0.0334161 -5.74156e-07 0)
(0.033419 -4.97381e-07 0)
(0.0334216 -4.27001e-07 0)
(0.0334239 -3.63782e-07 0)
(0.0334259 -3.09983e-07 0)
(0.0334275 -2.62693e-07 0)
(0.033429 -2.2414e-07 0)
(0.0334303 -1.89551e-07 0)
(0.0334314 -1.62464e-07 0)
(0.0334323 -1.37133e-07 0)
(0.0334331 -1.17874e-07 0)
(0.0334338 -9.95551e-08 0)
(0.0334345 -8.52045e-08 0)
(0.033435 -7.31067e-08 0)
(0.0334354 -6.05729e-08 0)
(0.0334358 -5.36942e-08 0)
(0.0334362 -4.21288e-08 0)
(0.0334364 -3.96744e-08 0)
(0.0334367 -2.93273e-08 0)
(0.0334369 -2.83031e-08 0)
(0.0334371 -2.17988e-08 0)
(0.0334372 -1.82228e-08 0)
(0.0334374 -1.78895e-08 0)
(0.0334375 -1.00623e-08 0)
(0.0334376 -1.43232e-08 0)
(0.0334376 -6.40374e-09 0)
(0.0334377 -8.64675e-09 0)
(0.0334378 -7.34481e-09 0)
(0.0334378 -1.96449e-09 0)
(0.0334379 -7.93131e-09 0)
(0.0334379 -5.80712e-10 0)
(0.0334379 -3.3925e-09 0)
(0.033438 -4.47837e-09 0)
(0.033438 1.87261e-09 0)
(0.033438 -4.33608e-09 0)
(0.033438 -9.637e-10 0)
(0.033438 1.26876e-09 0)
(0.033438 -3.35241e-09 0)
(0.033438 2.39013e-10 0)
(0.033438 8.44847e-10 0)
(0.033438 -2.01262e-09 0)
(0.033438 4.51637e-11 0)
(0.033438 5.76216e-10 0)
(0.033438 -7.45259e-13 0)
(0.200079 0.00563267 0)
(0.20286 0.0102935 0)
(0.20385 0.0111955 0)
(0.202064 0.0110549 0)
(0.197821 0.0108681 0)
(0.191872 0.0105167 0)
(0.185024 0.00981012 0)
(0.177741 0.00870318 0)
(0.170332 0.00732704 0)
(0.163025 0.00589688 0)
(0.155991 0.00460099 0)
(0.149368 0.00352899 0)
(0.143249 0.00268999 0)
(0.137682 0.00206372 0)
(0.132675 0.00161619 0)
(0.128197 0.00130447 0)
(0.124193 0.00108926 0)
(0.120614 0.000938966 0)
(0.117408 0.000826432 0)
(0.11453 0.000733 0)
(0.111948 0.000650068 0)
(0.109637 0.000573071 0)
(0.107577 0.000498862 0)
(0.105752 0.000427234 0)
(0.104149 0.000359714 0)
(0.102758 0.00029751 0)
(0.101568 0.000240277 0)
(0.100569 0.000187148 0)
(0.0997483 0.000138524 0)
(0.0990916 9.63116e-05 0)
(0.0985785 6.28266e-05 0)
(0.0981827 3.95254e-05 0)
(0.0978755 2.62406e-05 0)
(0.0976297 2.12285e-05 0)
(0.0974229 2.14088e-05 0)
(0.0972386 2.30865e-05 0)
(0.0970662 2.43127e-05 0)
(0.0968977 2.47244e-05 0)
(0.0967278 2.47792e-05 0)
(0.0965535 2.5048e-05 0)
(0.0963748 2.56542e-05 0)
(0.0961953 2.60721e-05 0)
(0.096021 2.55462e-05 0)
(0.0958592 2.36332e-05 0)
(0.0957161 2.04107e-05 0)
(0.0955959 1.63579e-05 0)
(0.0954996 1.20953e-05 0)
(0.0954262 8.14559e-06 0)
(0.0953725 4.84899e-06 0)
(0.095335 2.31254e-06 0)
(0.09531 4.63825e-07 0)
(0.0952941 -7.89732e-07 0)
(0.0952844 -1.45693e-06 0)
(0.095279 -1.75834e-06 0)
(0.0952762 -1.91397e-06 0)
(0.0952749 -1.85876e-06 0)
(0.0952746 -1.70662e-06 0)
(0.0952748 -1.51848e-06 0)
(0.0952753 -1.32917e-06 0)
(0.0952759 -1.15008e-06 0)
(0.0952765 -9.93283e-07 0)
(0.0952772 -8.52469e-07 0)
(0.0952779 -7.35936e-07 0)
(0.0952785 -6.29823e-07 0)
(0.0952791 -5.45527e-07 0)
(0.0952796 -4.65785e-07 0)
(0.0952802 -4.04067e-07 0)
(0.0952806 -3.45097e-07 0)
(0.0952812 -2.97237e-07 0)
(0.0952815 -2.57398e-07 0)
(0.0952819 -2.15838e-07 0)
(0.0952822 -1.92527e-07 0)
(0.0952826 -1.53923e-07 0)
(0.0952828 -1.43927e-07 0)
(0.0952831 -1.0957e-07 0)
(0.0952833 -1.03966e-07 0)
(0.0952834 -8.20578e-08 0)
(0.0952836 -6.89282e-08 0)
(0.0952837 -6.6445e-08 0)
(0.0952839 -4.1032e-08 0)
(0.095284 -5.24808e-08 0)
(0.095284 -2.75725e-08 0)
(0.0952842 -3.25295e-08 0)
(0.0952842 -2.85114e-08 0)
(0.0952843 -1.14897e-08 0)
(0.0952843 -2.7819e-08 0)
(0.0952844 -6.84494e-09 0)
(0.0952844 -1.16833e-08 0)
(0.0952844 -1.72623e-08 0)
(0.0952845 3.18032e-09 0)
(0.0952845 -1.41061e-08 0)
(0.0952845 -5.72807e-09 0)
(0.0952845 2.99872e-09 0)
(0.0952845 -1.11874e-08 0)
(0.0952845 -8.35576e-10 0)
(0.0952846 2.14715e-09 0)
(0.0952846 -6.72669e-09 0)
(0.0952846 -7.71493e-10 0)
(0.0952846 7.98599e-10 0)
(0.0952846 -3.41411e-10 0)
(0.200023 0.00371063 0)
(0.202941 0.0082687 0)
(0.206304 0.0100743 0)
(0.208914 0.0106089 0)
(0.21036 0.0108785 0)
(0.21074 0.0110067 0)
(0.210286 0.0108065 0)
(0.209126 0.0101943 0)
(0.207328 0.00924928 0)
(0.204956 0.00814308 0)
(0.202113 0.00705415 0)
(0.198946 0.00609061 0)
(0.19559 0.00528143 0)
(0.192161 0.00461804 0)
(0.188749 0.00407961 0)
(0.185412 0.00363775 0)
(0.182174 0.00326629 0)
(0.17905 0.00294822 0)
(0.176051 0.00266799 0)
(0.173188 0.00241135 0)
(0.170465 0.00217153 0)
(0.167889 0.00194639 0)
(0.165471 0.00173285 0)
(0.163221 0.00152798 0)
(0.161147 0.00133184 0)
(0.159254 0.00114535 0)
(0.157544 0.000968022 0)
(0.156015 0.000799653 0)
(0.154668 0.000642736 0)
(0.1535 0.00050224 0)
(0.152504 0.000383454 0)
(0.151659 0.000289953 0)
(0.150941 0.000222298 0)
(0.150325 0.000177642 0)
(0.149794 0.000150945 0)
(0.149336 0.00013708 0)
(0.148938 0.000131772 0)
(0.148583 0.000131909 0)
(0.14825 0.00013508 0)
(0.147914 0.000138857 0)
(0.14756 0.000140608 0)
(0.147184 0.000138022 0)
(0.146792 0.000129859 0)
(0.146402 0.000116371 0)
(0.146032 9.9104e-05 0)
(0.1457 8.02297e-05 0)
(0.145415 6.18257e-05 0)
(0.145181 4.5408e-05 0)
(0.144996 3.17975e-05 0)
(0.144853 2.12036e-05 0)
(0.144746 1.34111e-05 0)
(0.144668 7.9951e-06 0)
(0.14461 4.43101e-06 0)
(0.144567 2.16334e-06 0)
(0.144536 6.91409e-07 0)
(0.144513 -1.19668e-07 0)
(0.144495 -5.2923e-07 0)
(0.144482 -7.08392e-07 0)
(0.144471 -7.66278e-07 0)
(0.144463 -7.57409e-07 0)
(0.144456 -7.23637e-07 0)
(0.144451 -6.71304e-07 0)
(0.144447 -6.22983e-07 0)
(0.144443 -5.65176e-07 0)
(0.144441 -5.19598e-07 0)
(0.144438 -4.65329e-07 0)
(0.144437 -4.23531e-07 0)
(0.144435 -3.7688e-07 0)
(0.144434 -3.35319e-07 0)
(0.144433 -3.00241e-07 0)
(0.144433 -2.59712e-07 0)
(0.144432 -2.4493e-07 0)
(0.144432 -1.98808e-07 0)
(0.144431 -1.95786e-07 0)
(0.144431 -1.50798e-07 0)
(0.144431 -1.48466e-07 0)
(0.144431 -1.19924e-07 0)
(0.144431 -1.02126e-07 0)
(0.144431 -1.0184e-07 0)
(0.144431 -6.34354e-08 0)
(0.144431 -8.3207e-08 0)
(0.14443 -4.44832e-08 0)
(0.144431 -5.39323e-08 0)
(0.14443 -4.5718e-08 0)
(0.144431 -2.32014e-08 0)
(0.144431 -4.42906e-08 0)
(0.14443 -1.44877e-08 0)
(0.144431 -2.12557e-08 0)
(0.144431 -2.71526e-08 0)
(0.144431 1.26665e-10 0)
(0.144431 -2.25873e-08 0)
(0.144431 -1.02171e-08 0)
(0.144431 1.51326e-09 0)
(0.144431 -1.76343e-08 0)
(0.144431 -2.29176e-09 0)
(0.144431 1.66597e-09 0)
(0.144431 -1.08777e-08 0)
(0.144431 -1.62428e-09 0)
(0.144431 2.68774e-10 0)
(0.144431 -9.45324e-10 0)
(0.200008 0.00252379 0)
(0.201848 0.00632531 0)
(0.204537 0.00841177 0)
(0.207334 0.00930668 0)
(0.209704 0.00972774 0)
(0.211555 0.00997066 0)
(0.212975 0.00998011 0)
(0.214023 0.00967901 0)
(0.214683 0.0090871 0)
(0.214901 0.00831381 0)
(0.214673 0.00749886 0)
(0.214059 0.00674315 0)
(0.213144 0.00608921 0)
(0.212014 0.00554363 0)
(0.210743 0.00509133 0)
(0.209386 0.004705 0)
(0.207968 0.00436454 0)
(0.206508 0.00405987 0)
(0.205015 0.00377888 0)
(0.203505 0.00350973 0)
(0.20199 0.00324952 0)
(0.200478 0.00299768 0)
(0.198973 0.00274817 0)
(0.197488 0.0024958 0)
(0.196046 0.00224346 0)
(0.194668 0.0019974 0)
(0.193359 0.00175921 0)
(0.192111 0.00152607 0)
(0.190925 0.00129764 0)
(0.189818 0.00108103 0)
(0.188814 0.000888653 0)
(0.18792 0.000731138 0)
(0.18712 0.000610645 0)
(0.186381 0.000520045 0)
(0.185686 0.00044858 0)
(0.185037 0.000389354 0)
(0.184456 0.000342576 0)
(0.183959 0.000312976 0)
(0.183538 0.000303943 0)
(0.183157 0.000312957 0)
(0.182768 0.00033115 0)
(0.182326 0.000346746 0)
(0.181813 0.000349852 0)
(0.181237 0.000335783 0)
(0.180626 0.000305571 0)
(0.180019 0.000264175 0)
(0.179451 0.000217919 0)
(0.178947 0.000172442 0)
(0.178521 0.000131646 0)
(0.178174 9.75357e-05 0)
(0.177899 7.05874e-05 0)
(0.177686 5.02651e-05 0)
(0.177524 3.54732e-05 0)
(0.177402 2.50212e-05 0)
(0.177309 1.78219e-05 0)
(0.177238 1.28721e-05 0)
(0.177184 9.45841e-06 0)
(0.177142 7.077e-06 0)
(0.177108 5.37638e-06 0)
(0.177082 4.13607e-06 0)
(0.17706 3.20107e-06 0)
(0.177043 2.49098e-06 0)
(0.177029 1.93058e-06 0)
(0.177017 1.49924e-06 0)
(0.177008 1.14918e-06 0)
(0.177 8.81874e-07 0)
(0.176994 6.63994e-07 0)
(0.176989 4.96953e-07 0)
(0.176985 3.68736e-07 0)
(0.176981 2.60948e-07 0)
(0.176978 1.92865e-07 0)
(0.176976 1.11731e-07 0)
(0.176974 8.88435e-08 0)
(0.176973 2.85169e-08 0)
(0.176971 2.82087e-08 0)
(0.17697 -7.65942e-09 0)
(0.17697 -1.23507e-08 0)
(0.176969 -1.32053e-08 0)
(0.176968 -3.97581e-08 0)
(0.176968 -7.8421e-09 0)
(0.176968 -4.77732e-08 0)
(0.176967 -1.17957e-08 0)
(0.176967 -3.26798e-08 0)
(0.176967 -2.87105e-08 0)
(0.176967 -8.91209e-09 0)
(0.176967 -3.78701e-08 0)
(0.176967 -4.18901e-09 0)
(0.176967 -1.9048e-08 0)
(0.176967 -2.32694e-08 0)
(0.176967 4.36734e-09 0)
(0.176967 -2.41953e-08 0)
(0.176967 -7.6498e-09 0)
(0.176967 2.99801e-09 0)
(0.176967 -1.98623e-08 0)
(0.176966 -7.73454e-10 0)
(0.176967 2.48533e-09 0)
(0.176966 -1.24953e-08 0)
(0.176966 -1.19916e-09 0)
(0.176966 6.29384e-10 0)
(0.176966 -1.12015e-09 0)
(0.200008 0.00186224 0)
(0.201221 0.00498984 0)
(0.203191 0.00710721 0)
(0.205513 0.00822082 0)
(0.20773 0.00874213 0)
(0.209643 0.0089934 0)
(0.211265 0.00904733 0)
(0.212665 0.00887714 0)
(0.213861 0.00847915 0)
(0.214803 0.00791387 0)
(0.215453 0.00728025 0)
(0.215827 0.00666416 0)
(0.215966 0.00611673 0)
(0.215927 0.00565625 0)
(0.215765 0.00527209 0)
(0.215522 0.00494023 0)
(0.21522 0.00464515 0)
(0.214867 0.00437957 0)
(0.214463 0.00413145 0)
(0.214012 0.00388807 0)
(0.213527 0.00364809 0)
(0.213012 0.00341525 0)
(0.212455 0.00318434 0)
(0.21185 0.0029437 0)
(0.211216 0.00269019 0)
(0.210582 0.0024342 0)
(0.209956 0.00218846 0)
(0.209324 0.00195479 0)
(0.208663 0.00172455 0)
(0.207979 0.00149222 0)
(0.207311 0.00126769 0)
(0.206699 0.00107331 0)
(0.206148 0.00092691 0)
(0.205626 0.000826677 0)
(0.205092 0.000752106 0)
(0.20453 0.000680116 0)
(0.203972 0.000601871 0)
(0.20347 0.000527541 0)
(0.203062 0.000477181 0)
(0.202744 0.000465827 0)
(0.202464 0.000493055 0)
(0.202149 0.000542633 0)
(0.201734 0.000590739 0)
(0.201187 0.000616534 0)
(0.200519 0.000609174 0)
(0.199773 0.000568988 0)
(0.199004 0.000504254 0)
(0.198267 0.000426477 0)
(0.197601 0.000346486 0)
(0.197027 0.000272281 0)
(0.196553 0.000208448 0)
(0.196172 0.000156632 0)
(0.195874 0.000116424 0)
(0.195643 8.62561e-05 0)
(0.195466 6.41382e-05 0)
(0.195329 4.81047e-05 0)
(0.195224 3.65173e-05 0)
(0.195142 2.8095e-05 0)
(0.195078 2.18889e-05 0)
(0.195027 1.7242e-05 0)
(0.194986 1.36915e-05 0)
(0.194953 1.09419e-05 0)
(0.194926 8.77142e-06 0)
(0.194904 7.05244e-06 0)
(0.194886 5.66823e-06 0)
(0.194871 4.55984e-06 0)
(0.194859 3.66213e-06 0)
(0.194849 2.93539e-06 0)
(0.194841 2.35522e-06 0)
(0.194834 1.87079e-06 0)
(0.194829 1.50488e-06 0)
(0.194824 1.1773e-06 0)
(0.194821 9.53161e-07 0)
(0.194818 7.31699e-07 0)
(0.194815 5.92237e-07 0)
(0.194813 4.54772e-07 0)
(0.194811 3.52671e-07 0)
(0.19481 2.88215e-07 0)
(0.194809 1.96421e-07 0)
(0.194808 1.85072e-07 0)
(0.194807 1.05585e-07 0)
(0.194807 1.10046e-07 0)
(0.194806 6.56461e-08 0)
(0.194806 4.81044e-08 0)
(0.194806 5.39265e-08 0)
(0.194805 8.67975e-09 0)
(0.194805 3.72367e-08 0)
(0.194805 8.99107e-09 0)
(0.194805 1.01028e-09 0)
(0.194805 2.4832e-08 0)
(0.194805 -1.21362e-08 0)
(0.194805 4.84422e-09 0)
(0.194805 1.26828e-08 0)
(0.194805 -1.44503e-08 0)
(0.194805 5.11218e-09 0)
(0.194805 7.05023e-09 0)
(0.194805 -9.61724e-09 0)
(0.194805 1.26522e-09 0)
(0.194805 2.95038e-09 0)
(0.194805 1.05627e-10 0)
(0.200007 0.00144837 0)
(0.200859 0.00403752 0)
(0.202318 0.00601567 0)
(0.204172 0.00723251 0)
(0.206087 0.00785545 0)
(0.207832 0.00813901 0)
(0.209347 0.00821868 0)
(0.210673 0.00812203 0)
(0.211845 0.00784924 0)
(0.212847 0.00742986 0)
(0.213654 0.00692689 0)
(0.214269 0.00640968 0)
(0.214708 0.00593371 0)
(0.215009 0.00552584 0)
(0.215218 0.00518041 0)
(0.215374 0.00487862 0)
(0.215499 0.00461008 0)
(0.215594 0.00437012 0)
(0.215655 0.00414586 0)
(0.215683 0.00392143 0)
(0.215692 0.00369556 0)
(0.215683 0.00347897 0)
(0.215638 0.00327181 0)
(0.215538 0.00305645 0)
(0.215393 0.00281846 0)
(0.21523 0.00256722 0)
(0.215066 0.00232796 0)
(0.21488 0.00211404 0)
(0.214638 0.00191249 0)
(0.21433 0.00170019 0)
(0.213988 0.0014737 0)
(0.213665 0.0012603 0)
(0.213386 0.00109753 0)
(0.213128 0.00100042 0)
(0.212839 0.000947598 0)
(0.212484 0.00089762 0)
(0.212076 0.00082027 0)
(0.211674 0.000717521 0)
(0.211345 0.000620637 0)
(0.211121 0.000568389 0)
(0.210973 0.000582764 0)
(0.21083 0.000657015 0)
(0.210603 0.000760582 0)
(0.210228 0.000854741 0)
(0.209682 0.000908559 0)
(0.20899 0.000907679 0)
(0.208206 0.000854471 0)
(0.207397 0.000762549 0)
(0.206621 0.000649761 0)
(0.20592 0.000532606 0)
(0.205317 0.000423174 0)
(0.204816 0.000328424 0)
(0.204413 0.000250891 0)
(0.204094 0.000190054 0)
(0.203845 0.000143731 0)
(0.203651 0.000109123 0)
(0.2035 8.3507e-05 0)
(0.203383 6.45577e-05 0)
(0.20329 5.04426e-05 0)
(0.203217 3.981e-05 0)
(0.203158 3.16816e-05 0)
(0.203111 2.53839e-05 0)
(0.203072 2.04335e-05 0)
(0.203041 1.65064e-05 0)
(0.203015 1.33596e-05 0)
(0.202994 1.08249e-05 0)
(0.202977 8.77719e-06 0)
(0.202963 7.10819e-06 0)
(0.202952 5.76531e-06 0)
(0.202942 4.65266e-06 0)
(0.202934 3.7757e-06 0)
(0.202927 3.03048e-06 0)
(0.202922 2.45884e-06 0)
(0.202918 1.96427e-06 0)
(0.202914 1.58443e-06 0)
(0.202911 1.2712e-06 0)
(0.202909 1.0042e-06 0)
(0.202907 8.23267e-07 0)
(0.202905 6.2566e-07 0)
(0.202904 5.29954e-07 0)
(0.202903 3.8861e-07 0)
(0.202902 3.31031e-07 0)
(0.202902 2.48915e-07 0)
(0.202901 1.90924e-07 0)
(0.2029 1.70458e-07 0)
(0.2029 1.00052e-07 0)
(0.2029 1.11693e-07 0)
(0.2029 6.72719e-08 0)
(0.202899 4.66864e-08 0)
(0.202899 6.31811e-08 0)
(0.202899 1.60907e-08 0)
(0.202899 2.72929e-08 0)
(0.202899 3.18034e-08 0)
(0.202899 -3.96574e-10 0)
(0.202899 1.56338e-08 0)
(0.202899 1.60543e-08 0)
(0.202899 -1.97037e-09 0)
(0.202899 6.06422e-09 0)
(0.202899 7.37513e-09 0)
(0.202899 3.06102e-09 0)
(0.200005 0.00116546 0)
(0.200632 0.00331884 0)
(0.201733 0.00508403 0)
(0.2032 0.00630177 0)
(0.204811 0.00700104 0)
(0.20636 0.00733973 0)
(0.207742 0.00745707 0)
(0.208955 0.00741672 0)
(0.210024 0.00723573 0)
(0.210953 0.0069305 0)
(0.211737 0.00653701 0)
(0.212376 0.00610717 0)
(0.212873 0.005695 0)
(0.21325 0.0053318 0)
(0.213551 0.00501541 0)
(0.21381 0.00473239 0)
(0.214048 0.00448037 0)
(0.214266 0.00425888 0)
(0.214461 0.00405178 0)
(0.214637 0.00383802 0)
(0.214806 0.00361782 0)
(0.214968 0.00341054 0)
(0.215105 0.00322259 0)
(0.215198 0.00303113 0)
(0.215253 0.00280994 0)
(0.215293 0.00256476 0)
(0.215329 0.00233162 0)
(0.215345 0.00213746 0)
(0.215309 0.00196899 0)
(0.215206 0.00178684 0)
(0.215058 0.00157068 0)
(0.214911 0.00134702 0)
(0.214794 0.00117037 0)
(0.214693 0.00107602 0)
(0.214564 0.00104857 0)
(0.214369 0.00103287 0)
(0.214106 0.000975447 0)
(0.213824 0.000862453 0)
(0.213585 0.000727916 0)
(0.213433 0.000630526 0)
(0.213366 0.000617849 0)
(0.213328 0.000700887 0)
(0.21324 0.000851175 0)
(0.213027 0.00101727 0)
(0.212648 0.00114793 0)
(0.212107 0.00120971 0)
(0.211442 0.00119311 0)
(0.210711 0.00110882 0)
(0.209974 0.000978853 0)
(0.209281 0.000827612 0)
(0.208663 0.000675636 0)
(0.208134 0.000536824 0)
(0.207696 0.000418359 0)
(0.207341 0.000322161 0)
(0.207059 0.000246794 0)
(0.206836 0.000189153 0)
(0.206661 0.000145678 0)
(0.206522 0.000113055 0)
(0.206413 8.8517e-05 0)
(0.206326 6.99223e-05 0)
(0.206256 5.56733e-05 0)
(0.206199 4.46238e-05 0)
(0.206154 3.59516e-05 0)
(0.206116 2.90741e-05 0)
(0.206086 2.3576e-05 0)
(0.206061 1.91444e-05 0)
(0.206041 1.55681e-05 0)
(0.206024 1.26511e-05 0)
(0.20601 1.02964e-05 0)
(0.205998 8.35377e-06 0)
(0.205989 6.79781e-06 0)
(0.205981 5.50108e-06 0)
(0.205975 4.46774e-06 0)
(0.20597 3.61109e-06 0)
(0.205966 2.91369e-06 0)
(0.205962 2.36399e-06 0)
(0.205959 1.88202e-06 0)
(0.205957 1.54078e-06 0)
(0.205955 1.20716e-06 0)
(0.205954 9.94328e-07 0)
(0.205952 7.73438e-07 0)
(0.205951 6.30686e-07 0)
(0.20595 4.98756e-07 0)
(0.20595 3.86677e-07 0)
(0.205949 3.29175e-07 0)
(0.205949 2.27739e-07 0)
(0.205948 2.12047e-07 0)
(0.205948 1.49957e-07 0)
(0.205948 1.09521e-07 0)
(0.205948 1.15548e-07 0)
(0.205947 5.73333e-08 0)
(0.205947 5.77896e-08 0)
(0.205947 5.84494e-08 0)
(0.205947 2.02668e-08 0)
(0.205947 3.02715e-08 0)
(0.205947 2.86335e-08 0)
(0.205947 9.0932e-09 0)
(0.205947 1.29556e-08 0)
(0.205947 1.35498e-08 0)
(0.205947 7.48202e-09 0)
(0.200004 0.000957736 0)
(0.200479 0.00275765 0)
(0.201325 0.00430203 0)
(0.202487 0.00545783 0)
(0.203823 0.00619625 0)
(0.205173 0.0065926 0)
(0.206422 0.00675625 0)
(0.207531 0.00676601 0)
(0.208506 0.00665589 0)
(0.209357 0.00643969 0)
(0.21009 0.0061378 0)
(0.210709 0.00578816 0)
(0.211207 0.00543898 0)
(0.2116 0.00512065 0)
(0.211921 0.00483166 0)
(0.212204 0.00456472 0)
(0.212463 0.00432784 0)
(0.212701 0.0041241 0)
(0.212921 0.00393128 0)
(0.213129 0.00372414 0)
(0.213332 0.00350765 0)
(0.213528 0.00330919 0)
(0.213703 0.00313759 0)
(0.213846 0.00296455 0)
(0.213964 0.00275601 0)
(0.214068 0.00251641 0)
(0.214164 0.00228993 0)
(0.214238 0.00211306 0)
(0.214271 0.00197222 0)
(0.214253 0.00181621 0)
(0.214199 0.00161179 0)
(0.214139 0.00138384 0)
(0.214091 0.00119878 0)
(0.214049 0.0011076 0)
(0.213985 0.00110127 0)
(0.213872 0.00111594 0)
(0.213707 0.00108031 0)
(0.213521 0.00096603 0)
(0.213357 0.000805802 0)
(0.213252 0.000671498 0)
(0.21321 0.000631236 0)
(0.2132 0.000713473 0)
(0.213165 0.000896152 0)
(0.213044 0.00112132 0)
(0.212795 0.00132238 0)
(0.212408 0.00144865 0)
(0.211904 0.0014776 0)
(0.211323 0.00141408 0)
(0.210714 0.0012811 0)
(0.21012 0.00110848 0)
(0.209573 0.00092388 0)
(0.20909 0.0007478 0)
(0.208679 0.000592406 0)
(0.208337 0.000462694 0)
(0.208059 0.000358664 0)
(0.207836 0.000277495 0)
(0.207657 0.000215238 0)
(0.207514 0.000167877 0)
(0.207399 0.000131878 0)
(0.207308 0.000104389 0)
(0.207234 8.32223e-05 0)
(0.207174 6.67589e-05 0)
(0.207125 5.38232e-05 0)
(0.207086 4.35565e-05 0)
(0.207053 3.53517e-05 0)
(0.207026 2.87364e-05 0)
(0.207005 2.3398e-05 0)
(0.206987 1.90447e-05 0)
(0.206972 1.55228e-05 0)
(0.20696 1.26255e-05 0)
(0.20695 1.02863e-05 0)
(0.206941 8.35491e-06 0)
(0.206935 6.78973e-06 0)
(0.206929 5.51442e-06 0)
(0.206924 4.45345e-06 0)
(0.206921 3.62737e-06 0)
(0.206918 2.90149e-06 0)
(0.206915 2.37109e-06 0)
(0.206913 1.88345e-06 0)
(0.206911 1.53341e-06 0)
(0.20691 1.22088e-06 0)
(0.206909 9.80036e-07 0)
(0.206908 7.89458e-07 0)
(0.206907 6.15782e-07 0)
(0.206907 5.13632e-07 0)
(0.206906 3.78405e-07 0)
(0.206906 3.28109e-07 0)
(0.206906 2.47787e-07 0)
(0.206905 1.83337e-07 0)
(0.206905 1.76178e-07 0)
(0.206905 1.06851e-07 0)
(0.206905 9.35199e-08 0)
(0.206905 8.96789e-08 0)
(0.206905 4.48687e-08 0)
(0.206905 4.7815e-08 0)
(0.206904 4.34256e-08 0)
(0.206904 2.20011e-08 0)
(0.206904 2.13394e-08 0)
(0.206904 2.09059e-08 0)
(0.206904 1.28395e-08 0)
(0.200003 0.000797578 0)
(0.200371 0.00231383 0)
(0.201033 0.00365486 0)
(0.201958 0.00471911 0)
(0.203059 0.00546088 0)
(0.204219 0.00590171 0)
(0.205332 0.00611276 0)
(0.206342 0.00617024 0)
(0.207237 0.00611744 0)
(0.20802 0.00596994 0)
(0.208703 0.00574249 0)
(0.209291 0.00546491 0)
(0.209778 0.00517694 0)
(0.210174 0.00490269 0)
(0.210505 0.00464085 0)
(0.210795 0.00439178 0)
(0.211056 0.00417181 0)
(0.211294 0.00398476 0)
(0.211515 0.00380376 0)
(0.211727 0.00360279 0)
(0.211932 0.0033925 0)
(0.212125 0.00320499 0)
(0.212297 0.00304731 0)
(0.212448 0.00288638 0)
(0.212582 0.00268625 0)
(0.212703 0.00245396 0)
(0.212807 0.00223814 0)
(0.212886 0.00207797 0)
(0.212934 0.00195775 0)
(0.212949 0.00181999 0)
(0.212942 0.00162568 0)
(0.212923 0.00139964 0)
(0.212901 0.00121454 0)
(0.21287 0.00112919 0)
(0.212821 0.00113767 0)
(0.212743 0.0011716 0)
(0.212638 0.00115005 0)
(0.212521 0.00103622 0)
(0.212415 0.00086122 0)
(0.212338 0.000703829 0)
(0.212295 0.000644592 0)
(0.212272 0.000724131 0)
(0.212237 0.000926807 0)
(0.21215 0.00119276 0)
(0.211982 0.00144645 0)
(0.211717 0.00162513 0)
(0.211362 0.00169567 0)
(0.210941 0.0016566 0)
(0.210483 0.0015296 0)
(0.21002 0.00134716 0)
(0.20958 0.0011416 0)
(0.209178 0.000938466 0)
(0.208826 0.000754181 0)
(0.208526 0.000596735 0)
(0.208274 0.00046787 0)
(0.208067 0.000365497 0)
(0.207898 0.000285723 0)
(0.207761 0.000224205 0)
(0.20765 0.000176917 0)
(0.20756 0.000140484 0)
(0.207487 0.000112246 0)
(0.207427 9.0178e-05 0)
(0.207379 7.27867e-05 0)
(0.207339 5.89551e-05 0)
(0.207307 4.78889e-05 0)
(0.20728 3.89595e-05 0)
(0.207258 3.17481e-05 0)
(0.20724 2.58678e-05 0)
(0.207225 2.11019e-05 0)
(0.207212 1.71882e-05 0)
(0.207203 1.40133e-05 0)
(0.207194 1.14049e-05 0)
(0.207187 9.27307e-06 0)
(0.207182 7.54887e-06 0)
(0.207177 6.10261e-06 0)
(0.207173 4.97765e-06 0)
(0.20717 3.99489e-06 0)
(0.207168 3.25912e-06 0)
(0.207165 2.60883e-06 0)
(0.207164 2.1114e-06 0)
(0.207162 1.70017e-06 0)
(0.207161 1.35573e-06 0)
(0.20716 1.10064e-06 0)
(0.207159 8.62676e-07 0)
(0.207159 7.10808e-07 0)
(0.207158 5.41526e-07 0)
(0.207158 4.51956e-07 0)
(0.207158 3.53413e-07 0)
(0.207157 2.63257e-07 0)
(0.207157 2.4053e-07 0)
(0.207157 1.60998e-07 0)
(0.207157 1.31947e-07 0)
(0.207157 1.23195e-07 0)
(0.207157 7.15248e-08 0)
(0.207157 6.69105e-08 0)
(0.207157 5.94555e-08 0)
(0.207157 3.5707e-08 0)
(0.207157 3.05547e-08 0)
(0.207157 2.89812e-08 0)
(0.207157 1.86963e-08 0)
(0.200002 0.0006709 0)
(0.200292 0.00195805 0)
(0.200818 0.00312017 0)
(0.201561 0.0040831 0)
(0.202466 0.0048003 0)
(0.203452 0.00526602 0)
(0.204433 0.0055187 0)
(0.205346 0.00562027 0)
(0.206165 0.00561562 0)
(0.206889 0.0055226 0)
(0.207527 0.00535532 0)
(0.208082 0.00514066 0)
(0.208552 0.00490944 0)
(0.208947 0.00467672 0)
(0.209283 0.00444267 0)
(0.209577 0.00421508 0)
(0.209838 0.00401339 0)
(0.210074 0.00384076 0)
(0.210294 0.00367028 0)
(0.210506 0.00347767 0)
(0.210709 0.00327678 0)
(0.210892 0.00310134 0)
(0.211056 0.00295555 0)
(0.211205 0.00280304 0)
(0.211346 0.00260989 0)
(0.21147 0.00238803 0)
(0.21157 0.00218747 0)
(0.211644 0.00204404 0)
(0.211694 0.00193826 0)
(0.211726 0.00181123 0)
(0.211745 0.00162478 0)
(0.211749 0.00140548 0)
(0.211736 0.00122754 0)
(0.211704 0.00115053 0)
(0.211657 0.0011682 0)
(0.211598 0.00121064 0)
(0.211532 0.00119449 0)
(0.211464 0.00108073 0)
(0.211399 0.000899932 0)
(0.21134 0.000733126 0)
(0.211292 0.000665802 0)
(0.211248 0.000744586 0)
(0.211197 0.000958348 0)
(0.211122 0.00124806 0)
(0.211002 0.00153477 0)
(0.210827 0.00174936 0)
(0.210592 0.00185172 0)
(0.210307 0.00183507 0)
(0.209987 0.0017186 0)
(0.209652 0.00153506 0)
(0.209319 0.00131901 0)
(0.209006 0.00109909 0)
(0.20872 0.00089482 0)
(0.208469 0.000716693 0)
(0.208253 0.000568189 0)
(0.20807 0.000448214 0)
(0.207918 0.000353287 0)
(0.207792 0.000279084 0)
(0.207688 0.000221375 0)
(0.207603 0.000176482 0)
(0.207533 0.000141419 0)
(0.207476 0.000113855 0)
(0.20743 9.20412e-05 0)
(0.207391 7.46396e-05 0)
(0.207359 6.06874e-05 0)
(0.207333 4.9414e-05 0)
(0.207312 4.02968e-05 0)
(0.207294 3.28607e-05 0)
(0.20728 2.68232e-05 0)
(0.207267 2.18705e-05 0)
(0.207258 1.78397e-05 0)
(0.207249 1.45371e-05 0)
(0.207243 1.18255e-05 0)
(0.207237 9.63855e-06 0)
(0.207233 7.79972e-06 0)
(0.207229 6.36453e-06 0)
(0.207226 5.12111e-06 0)
(0.207224 4.17183e-06 0)
(0.207221 3.35567e-06 0)
(0.20722 2.70674e-06 0)
(0.207218 2.19284e-06 0)
(0.207217 1.74368e-06 0)
(0.207216 1.42008e-06 0)
(0.207216 1.1181e-06 0)
(0.207215 9.12969e-07 0)
(0.207215 7.10656e-07 0)
(0.207214 5.79061e-07 0)
(0.207214 4.62267e-07 0)
(0.207214 3.46476e-07 0)
(0.207213 3.05876e-07 0)
(0.207213 2.17613e-07 0)
(0.207213 1.71541e-07 0)
(0.207213 1.57601e-07 0)
(0.207213 9.92499e-08 0)
(0.207213 8.66035e-08 0)
(0.207213 7.61889e-08 0)
(0.207213 4.96687e-08 0)
(0.207213 4.01347e-08 0)
(0.207213 3.751e-08 0)
(0.207213 2.4806e-08 0)
(0.200002 0.000568973 0)
(0.200234 0.00166843 0)
(0.200655 0.00267617 0)
(0.201256 0.00353856 0)
(0.202003 0.00421413 0)
(0.202837 0.00468528 0)
(0.203691 0.00496821 0)
(0.204508 0.00510798 0)
(0.205256 0.00514501 0)
(0.205925 0.00509698 0)
(0.20652 0.00497873 0)
(0.207043 0.0048173 0)
(0.207494 0.00463644 0)
(0.207883 0.00444259 0)
(0.208221 0.00423713 0)
(0.208517 0.00403323 0)
(0.208777 0.00385039 0)
(0.209013 0.00369109 0)
(0.209233 0.00353131 0)
(0.209445 0.0033494 0)
(0.209643 0.00316008 0)
(0.209821 0.00299701 0)
(0.209978 0.00286219 0)
(0.210127 0.00271729 0)
(0.210269 0.00253155 0)
(0.210395 0.00232218 0)
(0.210491 0.00213862 0)
(0.21056 0.00201029 0)
(0.210613 0.00191345 0)
(0.210658 0.00179155 0)
(0.210692 0.00161187 0)
(0.21071 0.00140348 0)
(0.210703 0.00123841 0)
(0.210673 0.00117191 0)
(0.21063 0.00119502 0)
(0.210586 0.00123836 0)
(0.210548 0.00122125 0)
(0.210514 0.00110701 0)
(0.210478 0.000926761 0)
(0.210434 0.000760779 0)
(0.210382 0.000694116 0)
(0.210325 0.000774499 0)
(0.210264 0.000993192 0)
(0.210195 0.00129339 0)
(0.210111 0.00159661 0)
(0.210001 0.00183194 0)
(0.209859 0.00195576 0)
(0.209681 0.00195744 0)
(0.209473 0.00185325 0)
(0.209245 0.00167458 0)
(0.209008 0.00145624 0)
(0.208773 0.00122827 0)
(0.208551 0.00101205 0)
(0.208349 0.00081998 0)
(0.208169 0.000657084 0)
(0.208012 0.000523366 0)
(0.207879 0.000415992 0)
(0.207766 0.000330927 0)
(0.207672 0.000263987 0)
(0.207593 0.000211384 0)
(0.207529 0.000169959 0)
(0.207475 0.000137181 0)
(0.207431 0.00011111 0)
(0.207394 9.02357e-05 0)
(0.207364 7.34514e-05 0)
(0.207339 5.98644e-05 0)
(0.207319 4.88565e-05 0)
(0.207302 3.98725e-05 0)
(0.207288 3.25653e-05 0)
(0.207276 2.65739e-05 0)
(0.207267 2.16859e-05 0)
(0.207259 1.76867e-05 0)
(0.207252 1.43943e-05 0)
(0.207247 1.17406e-05 0)
(0.207243 9.50985e-06 0)
(0.207239 7.75984e-06 0)
(0.207236 6.25685e-06 0)
(0.207234 5.0908e-06 0)
(0.207232 4.10841e-06 0)
(0.20723 3.30742e-06 0)
(0.207229 2.68852e-06 0)
(0.207228 2.13606e-06 0)
(0.207227 1.74097e-06 0)
(0.207226 1.37686e-06 0)
(0.207226 1.11595e-06 0)
(0.207225 8.8198e-07 0)
(0.207225 7.07219e-07 0)
(0.207224 5.71585e-07 0)
(0.207224 4.3156e-07 0)
(0.207224 3.70725e-07 0)
(0.207224 2.75403e-07 0)
(0.207224 2.1163e-07 0)
(0.207224 1.9196e-07 0)
(0.207224 1.27625e-07 0)
(0.207223 1.06372e-07 0)
(0.207223 9.32359e-08 0)
(0.207223 6.36845e-08 0)
(0.207223 4.98145e-08 0)
(0.207223 4.63163e-08 0)
(0.207223 3.10405e-08 0)
(0.200002 0.00048576 0)
(0.200189 0.00142942 0)
(0.200531 0.00230464 0)
(0.201021 0.00307273 0)
(0.201638 0.00369784 0)
(0.202342 0.00415826 0)
(0.203079 0.00445918 0)
(0.203804 0.0046302 0)
(0.204483 0.00470213 0)
(0.205099 0.00469165 0)
(0.205653 0.00461482 0)
(0.206146 0.00449795 0)
(0.206576 0.00436028 0)
(0.206955 0.0042024 0)
(0.207291 0.00402518 0)
(0.207586 0.00384544 0)
(0.207845 0.00368272 0)
(0.208082 0.00353737 0)
(0.208304 0.00338799 0)
(0.208513 0.0032177 0)
(0.208707 0.00304188 0)
(0.208882 0.00289169 0)
(0.209038 0.00276687 0)
(0.209185 0.002629 0)
(0.209329 0.00245083 0)
(0.209454 0.00225399 0)
(0.209548 0.00208677 0)
(0.209617 0.0019719 0)
(0.209675 0.00188163 0)
(0.209729 0.00176341 0)
(0.209776 0.00159154 0)
(0.209803 0.00139729 0)
(0.209803 0.00124807 0)
(0.209778 0.00119219 0)
(0.209744 0.00121725 0)
(0.209716 0.00125622 0)
(0.209699 0.00123422 0)
(0.209689 0.00111952 0)
(0.209672 0.000944232 0)
(0.20964 0.000785871 0)
(0.20959 0.000725627 0)
(0.209529 0.000809115 0)
(0.209467 0.00102841 0)
(0.209409 0.00132958 0)
(0.209354 0.0016371 0)
(0.209295 0.00188136 0)
(0.209221 0.00201791 0)
(0.209126 0.00203364 0)
(0.209006 0.00194193 0)
(0.208863 0.00177191 0)
(0.208704 0.00155725 0)
(0.208538 0.00132802 0)
(0.208372 0.00110648 0)
(0.208214 0.000906288 0)
(0.208068 0.000733752 0)
(0.207937 0.000589952 0)
(0.207823 0.000472824 0)
(0.207724 0.00037881 0)
(0.207641 0.000303956 0)
(0.20757 0.000244533 0)
(0.207511 0.000197337 0)
(0.207461 0.000159733 0)
(0.207421 0.000129658 0)
(0.207386 0.000105477 0)
(0.207358 8.59703e-05 0)
(0.207335 7.01434e-05 0)
(0.207316 5.72935e-05 0)
(0.207299 4.67959e-05 0)
(0.207286 3.82422e-05 0)
(0.207275 3.12292e-05 0)
(0.207266 2.54961e-05 0)
(0.207259 2.08083e-05 0)
(0.207253 1.6943e-05 0)
(0.207248 1.38254e-05 0)
(0.207243 1.12087e-05 0)
(0.20724 9.1443e-06 0)
(0.207237 7.38591e-06 0)
(0.207235 6.0035e-06 0)
(0.207233 4.8563e-06 0)