/*--------------------------------*- C++ -*----------------------------------*\
| =========                 |                                                 |
| \\      /  F ield         | OpenFOAM: The Open Source CFD Toolbox           |
|  \\    /   O peration     | Version:  2.3.0                                 |
|   \\  /    A nd           | Web:      www.OpenFOAM.org                      |
|    \\/     M anipulation  |                                                 |
\*---------------------------------------------------------------------------*/
FoamFile
{
    version     2.0;
    format      ascii;
    class       volScalarField;
    location    "0.55";
    object      p;
}
// * * * * * * * * * * * * * * * * * * * * * * * * * * * * * * * * * * * * * //

dimensions      [0 2 -2 0 0 0 0];

internalField   nonuniform List<scalar> 
2889
(
0.00269094
0.00241233
0.00182518
0.00125268
0.00076911
0.000357561
8.31228e-06
-0.000264326
-0.000441555
-0.000525302
-0.000538906
-0.000512448
-0.000470331
-0.000427668
-0.000391802
-0.000364788
-0.000345736
-0.000332627
-0.000323407
-0.000316446
-0.000310622
-0.000305248
-0.00029995
-0.000294564
-0.000289046
-0.00028341
-0.000277696
-0.000271947
-0.000266201
-0.000260485
-0.000254821
-0.000249222
-0.000243696
-0.000238249
-0.000232883
-0.000227602
-0.000222404
-0.000217295
-0.000212273
-0.000207344
-0.000202506
-0.000197764
-0.000193121
-0.000188578
-0.000184139
-0.000179805
-0.000175579
-0.000171462
-0.000167455
-0.000163561
-0.000159778
-0.00015611
-0.000152551
-0.000149109
-0.000145774
-0.000142553
-0.000139439
-0.000136433
-0.000133532
-0.000130732
-0.000128031
-0.000125428
-0.000122913
-0.000120492
-0.000118146
-0.000115888
-0.000113691
-0.000111571
-0.000109502
-0.000107493
-0.000105522
-0.000103595
-0.000101688
-9.98096e-05
-9.79246e-05
-9.60552e-05
-9.41505e-05
-9.22401e-05
-9.02686e-05
-8.82622e-05
-8.61668e-05
-8.40063e-05
-8.17187e-05
-7.93393e-05
-7.67859e-05
-7.41086e-05
-7.1211e-05
-6.81471e-05
-6.48127e-05
-6.12695e-05
-5.73888e-05
-5.32613e-05
-4.87173e-05
-4.38808e-05
-3.85344e-05
-3.28559e-05
-2.65344e-05
-1.98563e-05
-1.23458e-05
-4.53756e-06
0.00226434
0.00211921
0.00171074
0.00121922
0.000764036
0.000372528
4.4616e-05
-0.00021051
-0.000381981
-0.000470712
-0.000493942
-0.000477321
-0.0004437
-0.000407726
-0.000376825
-0.000353258
-0.000336474
-0.000324832
-0.000316586
-0.000310315
-0.00030502
-0.000300084
-0.000295169
-0.000290126
-0.000284917
-0.000279562
-0.000274102
-0.000268582
-0.000263043
-0.000257515
-0.000252022
-0.000246578
-0.000241195
-0.000235879
-0.000230634
-0.000225465
-0.000220371
-0.000215359
-0.000210428
-0.000205583
-0.000200825
-0.000196158
-0.000191585
-0.000187108
-0.000182732
-0.000178456
-0.000174287
-0.000170222
-0.000166266
-0.000162421
-0.000158682
-0.000155058
-0.00015154
-0.000148138
-0.00014484
-0.000141655
-0.000138576
-0.000135602
-0.000132733
-0.000129963
-0.000127292
-0.000124718
-0.000122229
-0.000119835
-0.000117514
-0.000115281
-0.000113107
-0.000111011
-0.000108964
-0.000106976
-0.000105027
-0.000103121
-0.000101233
-9.93747e-05
-9.7508e-05
-9.56579e-05
-9.37707e-05
-9.18784e-05
-8.99241e-05
-8.79344e-05
-8.58557e-05
-8.37113e-05
-8.14391e-05
-7.90757e-05
-7.65366e-05
-7.38745e-05
-7.09907e-05
-6.79407e-05
-6.46193e-05
-6.10897e-05
-5.72201e-05
-5.31058e-05
-4.85715e-05
-4.37471e-05
-3.84083e-05
-3.27417e-05
-2.64237e-05
-1.97582e-05
-1.22439e-05
-4.46163e-06
0.00196831
0.0018805
0.00160025
0.00119546
0.000780021
0.00041308
0.000109807
-0.000126196
-0.00029233
-0.000390041
-0.000429882
-0.000430099
-0.00041004
-0.000384243
-0.000360312
-0.000341079
-0.000326787
-0.000316538
-0.000309113
-0.000303403
-0.000298568
-0.000294059
-0.000289562
-0.00028493
-0.000280117
-0.000275135
-0.000270021
-0.000264815
-0.000259558
-0.000254282
-0.000249014
-0.000243772
-0.000238568
-0.000233414
-0.000228314
-0.000223278
-0.000218304
-0.000213403
-0.000208572
-0.000203821
-0.000199148
-0.000194562
-0.000190064
-0.000185656
-0.000181347
-0.000177131
-0.00017302
-0.00016901
-0.000165104
-0.000161308
-0.000157614
-0.000154035
-0.000150556
-0.000147194
-0.000143933
-0.000140784
-0.000137739
-0.000134796
-0.000131959
-0.000129219
-0.000126577
-0.00012403
-0.000121567
-0.0001192
-0.000116901
-0.000114693
-0.000112542
-0.000110468
-0.000108443
-0.000106476
-0.000104548
-0.000102661
-0.000100792
-9.89539e-05
-9.71043e-05
-9.52739e-05
-9.34031e-05
-9.15292e-05
-8.95917e-05
-8.76188e-05
-8.55567e-05
-8.34289e-05
-8.11719e-05
-7.88256e-05
-7.63005e-05
-7.36551e-05
-7.07855e-05
-6.77511e-05
-6.44435e-05
-6.09298e-05
-5.70722e-05
-5.29745e-05
-4.84512e-05
-4.36435e-05
-3.83139e-05
-3.26663e-05
-2.63535e-05
-1.97102e-05
-1.21989e-05
-4.45017e-06
0.00176491
0.0016924
0.00148775
0.00116161
0.00079572
0.00045846
0.00017783
-4.13614e-05
-0.000200674
-0.000303212
-0.000356203
-0.000372276
-0.000366503
-0.000351666
-0.00033556
-0.000321717
-0.000311076
-0.000303308
-0.000297616
-0.00029318
-0.000289343
-0.000285667
-0.000281898
-0.000277922
-0.000273704
-0.00026926
-0.000264628
-0.000259852
-0.000254978
-0.000250041
-0.000245075
-0.0002401
-0.000235136
-0.000230197
-0.000225292
-0.000220433
-0.00021562
-0.000210867
-0.000206172
-0.000201547
-0.000196992
-0.000192514
-0.000188117
-0.000183803
-0.000179582
-0.000175448
-0.000171414
-0.000167476
-0.000163638
-0.000159906
-0.000156271
-0.00015275
-0.000149324
-0.000146013
-0.000142799
-0.000139695
-0.000136694
-0.000133791
-0.000130994
-0.00012829
-0.000125683
-0.000123171
-0.000120739
-0.000118405
-0.000116134
-0.000113957
-0.000111832
-0.000109785
-0.000107786
-0.000105844
-0.00010394
-0.000102077
-0.000100231
-9.8416e-05
-9.65868e-05
-9.47798e-05
-9.29286e-05
-9.10763e-05
-8.91593e-05
-8.72061e-05
-8.51646e-05
-8.30566e-05
-8.08186e-05
-7.84932e-05
-7.59863e-05
-7.33613e-05
-7.05109e-05
-6.7496e-05
-6.42078e-05
-6.0715e-05
-5.68755e-05
-5.28004e-05
-4.82953e-05
-4.3512e-05
-3.81995e-05
-3.25815e-05
-2.62828e-05
-1.96759e-05
-1.21823e-05
-4.4766e-06
0.00160328
0.00153428
0.00137294
0.00111111
0.000798264
0.000495157
0.000236662
3.22318e-05
-0.000119844
-0.00022377
-0.000285382
-0.000313704
-0.000320101
-0.000315216
-0.000306545
-0.000298096
-0.000291357
-0.000286426
-0.000282828
-0.00027998
-0.000277398
-0.000274764
-0.000271898
-0.000268726
-0.000265238
-0.000261458
-0.000257429
-0.000253199
-0.000248816
-0.00024432
-0.00023975
-0.000235131
-0.000230488
-0.000225839
-0.000221196
-0.000216575
-0.000211979
-0.000207426
-0.000202914
-0.000198459
-0.00019406
-0.000189727
-0.000185466
-0.000181277
-0.000177175
-0.00017315
-0.00016922
-0.000165378
-0.000161631
-0.000157985
-0.000154429
-0.000150985
-0.000147629
-0.000144387
-0.000141237
-0.000138193
-0.00013525
-0.000132401
-0.000129657
-0.000127
-0.000124441
-0.000121973
-0.000119583
-0.000117291
-0.000115057
-0.000112918
-0.000110828
-0.000108816
-0.000106851
-0.000104939
-0.000103068
-0.000101233
-9.94162e-05
-9.76309e-05
-9.58279e-05
-9.40496e-05
-9.22239e-05
-9.03984e-05
-8.85077e-05
-8.65793e-05
-8.45645e-05
-8.24816e-05
-8.0269e-05
-7.797e-05
-7.54884e-05
-7.28898e-05
-7.00667e-05
-6.7078e-05
-6.38183e-05
-6.03542e-05
-5.6543e-05
-5.25005e-05
-4.80249e-05
-4.32789e-05
-3.79963e-05
-3.24249e-05
-2.61567e-05
-1.96064e-05
-1.21577e-05
-4.51223e-06
0.00146467
0.00139742
0.00126285
0.0010503
0.00078768
0.000521008
0.000285152
9.43076e-05
-5.07011e-05
-0.000153887
-0.000220662
-0.000257968
-0.000274291
-0.000278181
-0.000276399
-0.000273095
-0.000270154
-0.000268042
-0.000266562
-0.000265341
-0.00026405
-0.000262484
-0.000260537
-0.000258184
-0.000255438
-0.000252339
-0.000248934
-0.000245276
-0.000241415
-0.000237395
-0.000233257
-0.000229031
-0.000224747
-0.000220424
-0.00021608
-0.000211733
-0.00020739
-0.00020307
-0.000198774
-0.000194519
-0.000190306
-0.000186147
-0.000182048
-0.000178011
-0.000174051
-0.00017016
-0.000166356
-0.000162632
-0.000158996
-0.000155455
-0.000151998
-0.000148649
-0.00014538
-0.000142222
-0.000139151
-0.000136182
-0.00013331
-0.000130528
-0.000127848
-0.000125252
-0.00012275
-0.000120337
-0.000117999
-0.000115758
-0.00011357
-0.000111478
-0.00010943
-0.000107461
-0.000105535
-0.000103662
-0.000101829
-0.000100029
-9.82477e-05
-9.6497e-05
-9.47264e-05
-9.29821e-05
-9.11877e-05
-8.93941e-05
-8.75359e-05
-8.56375e-05
-8.3656e-05
-8.16036e-05
-7.94237e-05
-7.71572e-05
-7.4709e-05
-7.21439e-05
-6.9357e-05
-6.64032e-05
-6.31821e-05
-5.97578e-05
-5.59866e-05
-5.19905e-05
-4.7558e-05
-4.28671e-05
-3.76317e-05
-3.21275e-05
-2.59161e-05
-1.94447e-05
-1.20822e-05
-4.52422e-06
0.00134258
0.00127769
0.00116205
0.000986896
0.000767714
0.00053669
0.000324155
0.000146849
8.80821e-06
-9.2583e-05
-0.000162222
-0.000205882
-0.000230085
-0.000241558
-0.000246078
-0.000247624
-0.000248316
-0.000248932
-0.000249534
-0.000249941
-0.00024996
-0.000249482
-0.00024847
-0.000246943
-0.000244942
-0.000242523
-0.000239741
-0.000236652
-0.000233313
-0.000229768
-0.000226063
-0.000222232
-0.000218308
-0.000214316
-0.000210275
-0.000206207
-0.000202122
-0.000198041
-0.000193967
-0.000189919
-0.000185901
-0.000181924
-0.000177996
-0.00017412
-0.000170312
-0.000166564
-0.000162896
-0.0001593
-0.000155786
-0.00015236
-0.000149011
-0.000145765
-0.000142594
-0.00013953
-0.000136546
-0.000133661
-0.000130868
-0.000128161
-0.000125553
-0.000123025
-0.000120589
-0.000118237
-0.000115957
-0.000113773
-0.000111637
-0.000109598
-0.000107598
-0.000105675
-0.000103795
-0.000101964
-0.000100173
-9.84137e-05
-9.66716e-05
-9.4959e-05
-9.32253e-05
-9.15182e-05
-8.97597e-05
-8.80018e-05
-8.61805e-05
-8.43164e-05
-8.2373e-05
-8.0356e-05
-7.82147e-05
-7.59862e-05
-7.35785e-05
-7.10539e-05
-6.83115e-05
-6.5402e-05
-6.22291e-05
-5.88568e-05
-5.51374e-05
-5.12028e-05
-4.68292e-05
-4.22116e-05
-3.70457e-05
-3.16285e-05
-2.5509e-05
-1.91385e-05
-1.19121e-05
-4.47537e-06
0.00123404
0.00117231
0.00107159
0.000925067
0.000741665
0.000543247
0.000354036
0.000190774
6.00083e-05
-3.89037e-05
-0.000109891
-0.000157886
-0.000188138
-0.000205938
-0.000216056
-0.00022208
-0.000226193
-0.000229411
-0.000232032
-0.000234051
-0.000235392
-0.000236028
-0.000235975
-0.000235292
-0.000234046
-0.00023231
-0.000230151
-0.000227631
-0.000224809
-0.000221736
-0.000218461
-0.000215022
-0.000211455
-0.000207789
-0.000204048
-0.000200257
-0.000196427
-0.000192583
-0.000188729
-0.000184888
-0.000181062
-0.000177266
-0.000173509
-0.000169794
-0.000166137
-0.000162533
-0.000159
-0.000155533
-0.000152141
-0.000148831
-0.000145593
-0.000142452
-0.00013938
-0.00013641
-0.000133516
-0.000130717
-0.000128005
-0.000125376
-0.000122842
-0.000120383
-0.000118014
-0.000115726
-0.000113507
-0.00011138
-0.0001093
-0.000107313
-0.000105363
-0.000103489
-0.000101654
-9.98675e-05
-9.812e-05
-9.64013e-05
-9.46999e-05
-9.3026e-05
-9.1331e-05
-8.96616e-05
-8.79408e-05
-8.62198e-05
-8.44371e-05
-8.26096e-05
-8.07065e-05
-7.87279e-05
-7.66285e-05
-7.44421e-05
-7.20795e-05
-6.96014e-05
-6.6909e-05
-6.40527e-05
-6.09353e-05
-5.76263e-05
-5.39702e-05
-5.01101e-05
-4.58125e-05
-4.12832e-05
-3.62128e-05
-3.08989e-05
-2.49098e-05
-1.86626e-05
-1.16214e-05
-4.3426e-06
0.00113703
0.00107894
0.000990613
0.000866426
0.000711921
0.00054201
0.000375165
0.000226398
0.000103517
7.76208e-06
-6.34771e-05
-0.000114273
-0.000148981
-0.00017185
-0.00018675
-0.000196785
-0.000204054
-0.000209717
-0.000214268
-0.000217856
-0.000220512
-0.00022227
-0.00022319
-0.000223362
-0.000222877
-0.000221826
-0.000220288
-0.000218333
-0.000216026
-0.000213423
-0.000210575
-0.000207526
-0.000204315
-0.000200975
-0.000197533
-0.000194017
-0.000190442
-0.000186834
-0.0001832
-0.000179564
-0.000175929
-0.000172314
-0.000168725
-0.00016517
-0.000161664
-0.000158203
-0.000154805
-0.000151466
-0.000148195
-0.000144999
-0.000141871
-0.000138833
-0.00013586
-0.000132984
-0.000130179
-0.000127465
-0.000124833
-0.000122281
-0.000119819
-0.00011743
-0.000115127
-0.000112901
-0.000110741
-0.000108671
-0.000106645
-0.000104709
-0.000102808
-0.000100981
-9.9191e-05
-9.74475e-05
-9.57413e-05
-9.40624e-05
-9.24003e-05
-9.07637e-05
-8.91066e-05
-8.74732e-05
-8.57897e-05
-8.41048e-05
-8.23599e-05
-8.05694e-05
-7.87059e-05
-7.67672e-05
-7.47102e-05
-7.25678e-05
-7.02524e-05
-6.78247e-05
-6.51857e-05
-6.23886e-05
-5.93326e-05
-5.60944e-05
-5.25124e-05
-4.87348e-05
-4.45307e-05
-4.00998e-05
-3.51501e-05
-2.99525e-05
-2.41287e-05
-1.80277e-05
-1.12141e-05
-4.1325e-06
0.00104977
0.000995533
0.000917681
0.000811361
0.000680176
0.000534559
0.000388348
0.000254113
0.000139767
4.79181e-05
-2.2663e-05
-7.50761e-05
-0.000112918
-0.000139676
-0.000158499
-0.000172006
-0.00018212
-0.000190046
-0.000196414
-0.000201505
-0.000205439
-0.000208304
-0.000210193
-0.000211219
-0.000211493
-0.000211124
-0.000210201
-0.000208806
-0.00020701
-0.000204873
-0.00020245
-0.00019979
-0.000196934
-0.000193921
-0.000190779
-0.000187539
-0.00018422
-0.000180849
-0.000177436
-0.000174007
-0.000170565
-0.000167131
-0.000163713
-0.000160319
-0.000156964
-0.000153646
-0.000150384
-0.000147173
-0.000144024
-0.000140943
-0.000137924
-0.00013499
-0.000132116
-0.000129334
-0.000126617
-0.000123988
-0.000121436
-0.000118961
-0.00011657
-0.00011425
-0.000112012
-0.000109848
-0.000107747
-0.000105731
-0.000103758
-0.000101872
-0.000100019
-9.82372e-05
-9.64904e-05
-9.47888e-05
-9.31218e-05
-9.14815e-05
-8.98569e-05
-8.82555e-05
-8.66353e-05
-8.50358e-05
-8.33884e-05
-8.17382e-05
-8.00296e-05
-7.82759e-05
-7.64503e-05
-7.4552e-05
-7.25371e-05
-7.04394e-05
-6.81724e-05
-6.57967e-05
-6.32138e-05
-6.04791e-05
-5.74897e-05
-5.4326e-05
-5.08284e-05
-4.71374e-05
-4.3042e-05
-3.87162e-05
-3.39079e-05
-2.88385e-05
-2.32063e-05
-1.72743e-05
-1.07207e-05
-3.87647e-06
0.000970669
0.000920291
0.000851431
0.000759747
0.000647583
0.000522459
0.000394744
0.000274569
0.000169209
8.20058e-05
1.29099e-05
-4.01632e-05
-8.00674e-05
-0.000109676
-0.000131586
-0.000147991
-0.000160595
-0.00017057
-0.000178621
-0.000185126
-0.000190279
-0.000194213
-0.000197047
-0.000198911
-0.000199932
-0.000200233
-0.000199916
-0.000199073
-0.00019778
-0.000196104
-0.000194104
-0.00019183
-0.00018933
-0.000186643
-0.000183802
-0.000180841
-0.000177779
-0.000174648
-0.000171458
-0.000168237
-0.000164991
-0.000161741
-0.000158495
-0.000155265
-0.000152063
-0.000148891
-0.000145766
-0.000142686
-0.00013966
-0.000136697
-0.00013379
-0.000130961
-0.000128187
-0.0001255
-0.000122873
-0.000120331
-0.000117859
-0.000115462
-0.000113144
-0.000110894
-0.00010872
-0.000106618
-0.000104577
-0.000102616
-0.000100697
-9.88602e-05
-9.70554e-05
-9.53183e-05
-9.36143e-05
-9.19544e-05
-9.03261e-05
-8.87239e-05
-8.71364e-05
-8.55695e-05
-8.39859e-05
-8.24193e-05
-8.08078e-05
-7.91917e-05
-7.75188e-05
-7.58023e-05
-7.40142e-05
-7.21564e-05
-7.01843e-05
-6.81318e-05
-6.59152e-05
-6.35921e-05
-6.10686e-05
-5.8398e-05
-5.54808e-05
-5.23934e-05
-4.89893e-05
-4.5388e-05
-4.1413e-05
-3.71991e-05
-3.25462e-05
-2.76175e-05
-2.21937e-05
-1.64532e-05
-1.0181e-05
-3.61078e-06
0.000898364
0.000851769
0.000790733
0.000711285
0.000614873
0.000507031
0.0003956
0.000288606
0.000192361
0.00011041
4.35514e-05
-9.36553e-06
-5.0452e-05
-8.20304e-05
-0.000106258
-0.000124983
-0.000139689
-0.000151469
-0.000161044
-0.000168852
-0.000175141
-0.000180084
-0.000183819
-0.00018649
-0.000188235
-0.000189188
-0.000189461
-0.000189157
-0.000188358
-0.000187134
-0.00018555
-0.00018366
-0.000181513
-0.000179151
-0.000176611
-0.000173927
-0.000171125
-0.000168234
-0.00016527
-0.00016226
-0.000159212
-0.000156148
-0.000153078
-0.000150013
-0.000146967
-0.000143945
-0.000140959
-0.000138012
-0.000135114
-0.00013227
-0.000129478
-0.000126756
-0.000124086
-0.000121496
-0.000118963
-0.000116508
-0.00011412
-0.000111802
-0.000109559
-0.000107381
-0.000105275
-0.000103236
-0.000101257
-9.93522e-05
-9.74892e-05
-9.57023e-05
-9.39475e-05
-9.22564e-05
-9.05965e-05
-8.89793e-05
-8.73908e-05
-8.58277e-05
-8.42783e-05
-8.27466e-05
-8.12009e-05
-7.96677e-05
-7.80934e-05
-7.65124e-05
-7.48759e-05
-7.31979e-05
-7.14487e-05
-6.96326e-05
-6.77055e-05
-6.5699e-05
-6.35361e-05
-6.12671e-05
-5.88072e-05
-5.62025e-05
-5.33636e-05
-5.03546e-05
-4.70517e-05
-4.35443e-05
-3.9698e-05
-3.5604e-05
-3.11154e-05
-2.63411e-05
-2.11352e-05
-1.5607e-05
-9.62833e-06
-3.35987e-06
0.000831747
0.000788811
0.000734675
0.00066564
0.000582476
0.000489283
0.000392056
0.000297131
0.00020981
0.000133501
6.95146e-05
1.74652e-05
-2.40599e-05
-5.68616e-05
-8.27212e-05
-0.000103208
-0.000119612
-0.000132923
-0.000143838
-0.000152815
-0.00016014
-0.000166011
-0.000170586
-0.000174017
-0.000176451
-0.000178028
-0.00017887
-0.000179087
-0.000178765
-0.000177983
-0.000176806
-0.000175292
-0.000173492
-0.000171452
-0.00016921
-0.000166804
-0.00016426
-0.000161611
-0.000158873
-0.000156075
-0.000153227
-0.000150352
-0.000147458
-0.000144563
-0.000141676
-0.000138805
-0.000135963
-0.000133152
-0.000130383
-0.000127662
-0.000124988
-0.000122377
-0.000119814
-0.000117324
-0.000114887
-0.000112524
-0.000110221
-0.000107987
-0.000105821
-0.000103717
-0.000101682
-9.97095e-05
-9.77944e-05
-9.59481e-05
-9.41438e-05
-9.24092e-05
-9.07069e-05
-8.90639e-05
-8.74505e-05
-8.58782e-05
-8.43317e-05
-8.28097e-05
-8.13008e-05
-7.98061e-05
-7.83007e-05
-7.68028e-05
-7.5268e-05
-7.37243e-05
-7.21265e-05
-7.04892e-05
-6.87817e-05
-6.70095e-05
-6.51309e-05
-6.31725e-05
-6.10676e-05
-5.88553e-05
-5.64636e-05
-5.39278e-05
-5.11731e-05
-4.82467e-05
-4.50508e-05
-4.16441e-05
-3.79322e-05
-3.3968e-05
-2.96492e-05
-2.50432e-05
-2.00609e-05
-1.47624e-05
-9.08231e-06
-3.13218e-06
0.000769887
0.000730475
0.00068251
0.000622485
0.000550623
0.000469944
0.000385073
0.000301025
0.000222189
0.000151668
9.10312e-05
4.04576e-05
-8.60427e-07
-3.42412e-05
-6.11292e-05
-8.28595e-05
-0.000100557
-0.000115106
-0.000127153
-0.000137148
-0.000145389
-0.000152093
-0.000157429
-0.00016156
-0.000164635
-0.0001668
-0.000168181
-0.000168893
-0.000169029
-0.000168671
-0.000167888
-0.000166739
-0.000165279
-0.000163554
-0.000161607
-0.000159475
-0.000157188
-0.000154779
-0.000152267
-0.000149682
-0.000147034
-0.00014435
-0.000141636
-0.000138911
-0.000136186
-0.000133468
-0.000130773
-0.000128101
-0.000125466
-0.00012287
-0.000120317
-0.00011782
-0.000115367
-0.000112981
-0.000110643
-0.000108375
-0.000106161
-0.000104013
-0.000101928
-9.99018e-05
-9.794e-05
-9.60367e-05
-9.41893e-05
-9.24043e-05
-9.06616e-05
-8.89823e-05
-8.73355e-05
-8.57434e-05
-8.41794e-05
-8.26547e-05
-8.11531e-05
-7.9675e-05
-7.82094e-05
-7.67546e-05
-7.52924e-05
-7.38327e-05
-7.23402e-05
-7.08369e-05
-6.92812e-05
-6.76875e-05
-6.60253e-05
-6.42999e-05
-6.24742e-05
-6.05671e-05
-5.85245e-05
-5.6373e-05
-5.40546e-05
-5.15922e-05
-4.89268e-05
-4.60893e-05
-4.30052e-05
-3.97075e-05
-3.61347e-05
-3.23108e-05
-2.81662e-05
-2.37417e-05
-1.89869e-05
-1.39316e-05
-8.55067e-06
-2.92572e-06
0.000711973
0.000675967
0.000633617
0.000581523
0.000519432
0.000449535
0.000375426
0.000301087
0.000230133
0.000165328
0.00010834
5.97392e-05
1.91953e-05
-1.4195e-05
-4.15758e-05
-6.40779e-05
-8.26831e-05
-9.81723e-05
-0.000111129
-0.000121973
-0.000130998
-0.000138425
-0.000144434
-0.000149191
-0.000152847
-0.000155553
-0.000157435
-0.000158612
-0.00015918
-0.000159225
-0.000158817
-0.000158019
-0.000156887
-0.000155469
-0.000153809
-0.000151945
-0.000149911
-0.00014774
-0.000145453
-0.00014308
-0.000140633
-0.000138139
-0.000135606
-0.000133054
-0.000130492
-0.000127931
-0.000125384
-0.000122855
-0.000120355
-0.000117888
-0.00011546
-0.000113079
-0.00011074
-0.000108461
-0.000106225
-0.000104056
-0.000101935
-9.98765e-05
-9.78754e-05
-9.59302e-05
-9.40456e-05
-9.22145e-05
-9.04381e-05
-8.87177e-05
-8.70399e-05
-8.54192e-05
-8.38309e-05
-8.22931e-05
-8.07815e-05
-7.93077e-05
-7.78542e-05
-7.64233e-05
-7.5004e-05
-7.35925e-05
-7.21767e-05
-7.07586e-05
-6.9312e-05
-6.78524e-05
-6.63424e-05
-6.47962e-05
-6.31833e-05
-6.15084e-05
-5.974e-05
-5.78888e-05
-5.59128e-05
-5.38269e-05
-5.15868e-05
-4.92037e-05
-4.66323e-05
-4.38909e-05
-4.09231e-05
-3.77437e-05
-3.43143e-05
-3.06411e-05
-2.66752e-05
-2.2444e-05
-1.79205e-05
-1.31178e-05
-8.0343e-06
-2.73505e-06
0.000657264
0.000624589
0.000587494
0.000542502
0.000488957
0.000428444
0.000363742
0.000298002
0.000234222
0.00017488
0.000121681
7.54424e-05
3.61724e-05
3.28813e-06
-2.41034e-05
-4.69513e-05
-6.61054e-05
-8.22463e-05
-9.58869e-05
-0.000107402
-0.000117066
-0.000125099
-0.000131679
-0.000136979
-0.000141149
-0.000144339
-0.000146677
-0.000148281
-0.00014925
-0.00014967
-0.000149615
-0.00014915
-0.000148331
-0.000147207
-0.000145825
-0.000144223
-0.000142436
-0.000140498
-0.000138433
-0.00013627
-0.000134023
-0.00013172
-0.000129368
-0.000126989
-0.000124592
-0.00012219
-0.000119794
-0.000117408
-0.000115048
-0.000112712
-0.000110411
-0.000108151
-0.000105928
-0.00010376
-0.00010163
-9.95618e-05
-9.75374e-05
-9.5572e-05
-9.36586e-05
-9.17977e-05
-8.99938e-05
-8.82385e-05
-8.65364e-05
-8.48842e-05
-8.32745e-05
-8.17159e-05
-8.01894e-05
-7.87094e-05
-7.72536e-05
-7.58341e-05
-7.44321e-05
-7.30519e-05
-7.16823e-05
-7.03178e-05
-6.89517e-05
-6.75791e-05
-6.61821e-05
-6.47701e-05
-6.33096e-05
-6.18148e-05
-6.02557e-05
-5.86355e-05
-5.69287e-05
-5.51386e-05
-5.32338e-05
-5.1219e-05
-4.90618e-05
-4.67648e-05
-4.42926e-05
-4.16547e-05
-3.88079e-05
-3.57559e-05
-3.24753e-05
-2.89618e-05
-2.518e-05
-2.1152e-05
-1.68637e-05
-1.23195e-05
-7.53143e-06
-2.55527e-06
0.000605079
0.000575784
0.000543776
0.000505217
0.000459258
0.000407021
0.000350549
0.00029232
0.000234914
0.000180649
0.000131252
8.76777e-05
5.01275e-05
1.82254e-05
-8.73245e-06
-3.15366e-05
-5.09083e-05
-6.74254e-05
-8.15235e-05
-9.3525e-05
-0.000103678
-0.000112188
-0.000119233
-0.000124984
-0.000129592
-0.000133203
-0.000135944
-0.000137932
-0.000139264
-0.00014003
-0.000140304
-0.000140149
-0.000139626
-0.000138782
-0.000137666
-0.000136314
-0.000134767
-0.000133057
-0.000131209
-0.000129254
-0.000127205
-0.000125091
-0.000122919
-0.000120714
-0.000118484
-0.00011624
-0.000113997
-0.000111758
-0.000109539
-0.000107337
-0.000105167
-0.00010303
-0.000100927
-9.88717e-05
-9.68517e-05
-9.48882e-05
-9.29634e-05
-9.10946e-05
-8.92725e-05
-8.74994e-05
-8.57797e-05
-8.41038e-05
-8.24795e-05
-8.08991e-05
-7.93609e-05
-7.78682e-05
-7.64069e-05
-7.49883e-05
-7.35919e-05
-7.22303e-05
-7.08832e-05
-6.95576e-05
-6.82411e-05
-6.69276e-05
-6.56148e-05
-6.42917e-05
-6.2948e-05
-6.15879e-05
-6.01809e-05
-5.87419e-05
-5.72409e-05
-5.56804e-05
-5.40394e-05
-5.23158e-05
-5.04871e-05
-4.85498e-05
-4.64799e-05
-4.42757e-05
-4.19083e-05
-3.93817e-05
-3.66606e-05
-3.37447e-05
-3.06192e-05
-2.72737e-05
-2.36817e-05
-1.98653e-05
-1.58161e-05
-1.15343e-05
-7.0398e-06
-2.38301e-06
0.000554932
0.000529351
0.000502233
0.00046954
0.000430558
0.000385752
0.000336384
0.000284491
0.000232536
0.000182847
0.000137173
9.64952e-05
6.10611e-05
3.05823e-05
4.47418e-06
-1.79202e-05
-3.71954e-05
-5.38205e-05
-6.81484e-05
-8.04442e-05
-9.09226e-05
-9.97727e-05
-0.000107166
-0.000113269
-0.000118229
-0.00012219
-0.000125273
-0.000127594
-0.000129249
-0.000130325
-0.000130896
-0.000131028
-0.000130779
-0.000130197
-0.000129333
-0.000128222
-0.000126905
-0.000125416
-0.00012378
-0.000122028
-0.000120173
-0.000118247
-0.000116256
-0.000114225
-0.00011216
-0.000110077
-0.000107989
-0.000105898
-0.000103822
-0.000101757
-9.97202e-05
-9.77093e-05
-9.57294e-05
-9.37911e-05
-9.18839e-05
-9.00289e-05
-8.82073e-05
-8.64387e-05
-8.47113e-05
-8.30299e-05
-8.13978e-05
-7.98051e-05
-7.82621e-05
-7.67576e-05
-7.52944e-05
-7.38714e-05
-7.24788e-05
-7.11255e-05
-6.97921e-05
-6.84923e-05
-6.72038e-05
-6.59366e-05
-6.4677e-05
-6.34186e-05
-6.21628e-05
-6.08934e-05
-5.96071e-05
-5.8303e-05
-5.69541e-05
-5.55755e-05
-5.41369e-05
-5.26412e-05
-5.10709e-05
-4.94191e-05
-4.76712e-05
-4.58181e-05
-4.3841e-05
-4.17358e-05
-3.9479e-05
-3.70716e-05
-3.44821e-05
-3.17099e-05
-2.87461e-05
-2.55764e-05
-2.21805e-05
-1.85826e-05
-1.47764e-05
-1.07593e-05
-6.55736e-06
-2.21611e-06
0.000507298
0.000485618
0.00046249
0.000435612
0.000403634
0.000365554
0.000321992
0.000275058
0.000227485
0.000181759
0.000139628
0.000101979
6.8971e-05
4.02888e-05
1.53997e-05
-6.24865e-06
-2.51291e-05
-4.15992e-05
-5.59259e-05
-6.8315e-05
-7.89457e-05
-8.7987e-05
-9.56e-05
-0.000101944
-0.00010716
-0.000111387
-0.000114741
-0.000117335
-0.00011926
-0.000120603
-0.000121436
-0.000121822
-0.000121822
-0.00012148
-0.000120848
-0.000119962
-0.000118864
-0.000117585
-0.000116154
-0.000114599
-0.000112934
-0.000111193
-0.000109379
-0.00010752
-0.000105622
-0.0001037
-0.000101766
-9.9825e-05
-9.78944e-05
-9.59689e-05
-9.40672e-05
-9.21853e-05
-9.03313e-05
-8.85131e-05
-8.67222e-05
-8.49789e-05
-8.32641e-05
-8.15992e-05
-7.99701e-05
-7.83842e-05
-7.68434e-05
-7.53378e-05
-7.38797e-05
-7.24548e-05
-7.10702e-05
-6.9721e-05
-6.84008e-05
-6.71167e-05
-6.58501e-05
-6.46158e-05
-6.339e-05
-6.21853e-05
-6.09862e-05
-5.97874e-05
-5.85925e-05
-5.73811e-05
-5.61566e-05
-5.49129e-05
-5.36265e-05
-5.23133e-05
-5.09416e-05
-4.95159e-05
-4.80215e-05
-4.64475e-05
-4.4785e-05
-4.30224e-05
-4.11442e-05
-3.91445e-05
-3.70041e-05
-3.47232e-05
-3.22721e-05
-2.96514e-05
-2.68556e-05
-2.38688e-05
-2.0676e-05
-1.73027e-05
-1.37426e-05
-9.99234e-06
-6.08228e-06
-2.05297e-06
0.000464322
0.000442961
0.000422966
0.000404241
0.000380069
0.000347792
0.000308462
0.000265013
0.000220726
0.00017829
0.000139395
0.00010474
7.42891e-05
4.7622e-05
2.42046e-05
3.56008e-06
-1.46775e-05
-3.07607e-05
-4.48747e-05
-5.71679e-05
-6.77846e-05
-7.68721e-05
-8.45781e-05
-9.10513e-05
-9.64258e-05
-0.000100834
-0.000104385
-0.000107187
-0.000109328
-0.000110891
-0.000111945
-0.000112552
-0.000112771
-0.000112645
-0.000112225
-0.000111547
-0.000110653
-0.000109573
-0.000108336
-0.00010697
-0.00010549
-0.000103928
-0.000102288
-0.0001006
-9.88661e-05
-9.71049e-05
-9.53271e-05
-9.35363e-05
-9.17523e-05
-8.99679e-05
-8.82038e-05
-8.64536e-05
-8.47282e-05
-8.30329e-05
-8.13615e-05
-7.97333e-05
-7.81287e-05
-7.65712e-05
-7.50441e-05
-7.35574e-05
-7.21115e-05
-7.0697e-05
-6.93275e-05
-6.79863e-05
-6.6684e-05
-6.54126e-05
-6.41687e-05
-6.29576e-05
-6.1762e-05
-6.05971e-05
-5.94381e-05
-5.82999e-05
-5.71655e-05
-5.60305e-05
-5.49006e-05
-5.3752e-05
-5.25936e-05
-5.14148e-05
-5.01957e-05
-4.89528e-05
-4.76531e-05
-4.63027e-05
-4.4889e-05
-4.33991e-05
-4.18278e-05
-4.01613e-05
-3.8388e-05
-3.65012e-05
-3.44837e-05
-3.23354e-05
-3.00298e-05
-2.75686e-05
-2.49475e-05
-2.21497e-05
-1.91666e-05
-1.6024e-05
-1.27132e-05
-9.2312e-06
-5.61304e-06
-1.89234e-06
0.000374066
0.000367364
0.00037242
0.000370398
0.00035589
0.000329071
0.000293173
0.000252575
0.000211314
0.000172256
0.000136906
0.000105657
7.8212e-05
5.40066e-05
3.24842e-05
1.32319e-05
-4.01467e-06
-1.94054e-05
-3.30436e-05
-4.50187e-05
-5.5437e-05
-6.44189e-05
-7.2094e-05
-7.85957e-05
-8.40466e-05
-8.85693e-05
-9.2266e-05
-9.52387e-05
-9.75686e-05
-9.93351e-05
-0.000100603
-0.000101431
-0.000101875
-0.000101976
-0.000101784
-0.000101332
-0.000100664
-9.98067e-05
-9.87895e-05
-9.76396e-05
-9.63723e-05
-9.50195e-05
-9.35841e-05
-9.20966e-05
-9.05576e-05
-8.89874e-05
-8.73954e-05
-8.57855e-05
-8.4178e-05
-8.25641e-05
-8.09668e-05
-7.93766e-05
-7.78082e-05
-7.6263e-05
-7.47381e-05
-7.32509e-05
-7.17822e-05
-7.03568e-05
-6.89557e-05
-6.7592e-05
-6.62637e-05
-6.49626e-05
-6.37032e-05
-6.24666e-05
-6.12672e-05
-6.00932e-05
-5.89452e-05
-5.78259e-05
-5.67199e-05
-5.56424e-05
-5.45683e-05
-5.35142e-05
-5.24619e-05
-5.14084e-05
-5.03608e-05
-4.92926e-05
-4.82184e-05
-4.71225e-05
-4.59896e-05
-4.48361e-05
-4.36282e-05
-4.23743e-05
-4.10629e-05
-3.96798e-05
-3.82245e-05
-3.668e-05
-3.50382e-05
-3.32938e-05
-3.14317e-05
-2.94486e-05
-2.73237e-05
-2.50614e-05
-2.26569e-05
-2.00907e-05
-1.73641e-05
-1.45028e-05
-1.14927e-05
-8.33154e-06
-5.06074e-06
-1.70477e-06
0.000307299
0.000304703
0.000319025
0.000328412
0.00032307
0.000302396
0.000270696
0.000233697
0.000196226
0.000161282
0.000130123
0.000102818
7.88554e-05
5.75809e-05
3.84489e-05
2.11115e-05
5.38475e-06
-8.80601e-06
-2.15051e-05
-3.2755e-05
-4.2626e-05
-5.12061e-05
-5.85985e-05
-6.49137e-05
-7.02568e-05
-7.47368e-05
-7.84451e-05
-8.14762e-05
-8.39033e-05
-8.58001e-05
-8.72248e-05
-8.82305e-05
-8.88674e-05
-8.91737e-05
-8.91976e-05
-8.89689e-05
-8.85306e-05
-8.79053e-05
-8.71227e-05
-8.62073e-05
-8.51748e-05
-8.4056e-05
-8.28523e-05
-8.15949e-05
-8.02815e-05
-7.89345e-05
-7.7561e-05
-7.61657e-05
-7.47685e-05
-7.33591e-05
-7.19628e-05
-7.05666e-05
-6.91887e-05
-6.78271e-05
-6.64817e-05
-6.51678e-05
-6.38667e-05
-6.26047e-05
-6.13598e-05
-6.01493e-05
-5.89674e-05
-5.78085e-05
-5.66868e-05
-5.5582e-05
-5.45122e-05
-5.34616e-05
-5.2435e-05
-5.14325e-05
-5.0441e-05
-4.9475e-05
-4.851e-05
-4.7564e-05
-4.66172e-05
-4.567e-05
-4.47277e-05
-4.37647e-05
-4.27994e-05
-4.1811e-05
-4.07904e-05
-3.97529e-05
-3.86639e-05
-3.75356e-05
-3.63568e-05
-3.51117e-05
-3.38051e-05
-3.24193e-05
-3.09452e-05
-2.93819e-05
-2.77186e-05
-2.5946e-05
-2.40478e-05
-2.20353e-05
-1.99011e-05
-1.76229e-05
-1.52112e-05
-1.26927e-05
-1.00463e-05
-7.27102e-06
-4.41278e-06
-1.48515e-06
0.000250453
0.000250136
0.0002665
0.000278705
0.000277369
0.000261728
0.00023578
0.000204895
0.000173508
0.000144256
0.000118158
9.51986e-05
7.49067e-05
5.67417e-05
4.02764e-05
2.52496e-05
1.15238e-05
-9.53946e-07
-1.22157e-05
-2.22854e-05
-3.12073e-05
-3.90348e-05
-4.58379e-05
-5.16963e-05
-5.66925e-05
-6.09178e-05
-6.44501e-05
-6.73743e-05
-6.97541e-05
-7.16561e-05
-7.31296e-05
-7.42213e-05
-7.49739e-05
-7.54211e-05
-7.56071e-05
-7.5558e-05
-7.5314e-05
-7.48933e-05
-7.43247e-05
-7.36288e-05
-7.28219e-05
-7.19319e-05
-7.09593e-05
-6.99344e-05
-6.88525e-05
-6.77371e-05
-6.65922e-05
-6.54239e-05
-6.42504e-05
-6.30607e-05
-6.18807e-05
-6.06955e-05
-5.95251e-05
-5.83648e-05
-5.72169e-05
-5.60942e-05
-5.49795e-05
-5.38991e-05
-5.28288e-05
-5.17899e-05
-5.07723e-05
-4.97739e-05
-4.88077e-05
-4.78526e-05
-4.69294e-05
-4.60197e-05
-4.51316e-05
-4.42627e-05
-4.34029e-05
-4.25648e-05
-4.17259e-05
-4.09047e-05
-4.00799e-05
-3.92565e-05
-3.84362e-05
-3.75961e-05
-3.67573e-05
-3.58946e-05
-3.50056e-05
-3.41029e-05
-3.31527e-05
-3.21709e-05
-3.11457e-05
-3.00622e-05
-2.89268e-05
-2.7724e-05