/*--------------------------------*- C++ -*----------------------------------*\
| =========                 |                                                 |
| \\      /  F ield         | OpenFOAM: The Open Source CFD Toolbox           |
|  \\    /   O peration     | Version:  2.3.0                                 |
|   \\  /    A nd           | Web:      www.OpenFOAM.org                      |
|    \\/     M anipulation  |                                                 |
\*---------------------------------------------------------------------------*/
FoamFile
{
    version     2.0;
    format      ascii;
    class       volVectorField;
    location    "0.6";
    object      U_0;
}
// * * * * * * * * * * * * * * * * * * * * * * * * * * * * * * * * * * * * * //

dimensions      [0 1 -1 0 0 0 0];

internalField   nonuniform List<vector> 
1500
(
(0.170766 0.0060515 0)
(0.154005 0.00612538 0)
(0.137878 0.0057033 0)
(0.122589 0.00509463 0)
(0.108558 0.00441774 0)
(0.0959657 0.00372761 0)
(0.0848321 0.00306307 0)
(0.0751289 0.00245161 0)
(0.0668018 0.00191046 0)
(0.0597636 0.00144881 0)
(0.0538952 0.00106916 0)
(0.0490557 0.000768215 0)
(0.045095 0.000538223 0)
(0.0418646 0.00036873 0)
(0.0392263 0.000248335 0)
(0.0370575 0.000166052 0)
(0.0352546 0.000112138 0)
(0.0337333 7.84762e-05 0)
(0.0324274 5.86377e-05 0)
(0.0312865 4.77601e-05 0)
(0.0302734 4.23368e-05 0)
(0.0293607 3.99653e-05 0)
(0.0285291 3.9094e-05 0)
(0.0277645 3.87899e-05 0)
(0.027057 3.85444e-05 0)
(0.026399 3.81204e-05 0)
(0.025785 3.74426e-05 0)
(0.0252102 3.65221e-05 0)
(0.0246711 3.54088e-05 0)
(0.0241642 3.41637e-05 0)
(0.0236869 3.28445e-05 0)
(0.0232365 3.14991e-05 0)
(0.0228106 3.01635e-05 0)
(0.0224072 2.88631e-05 0)
(0.0220243 2.76143e-05 0)
(0.0216602 2.64262e-05 0)
(0.0213134 2.53033e-05 0)
(0.0209823 2.42461e-05 0)
(0.0206657 2.32531e-05 0)
(0.0203625 2.23212e-05 0)
(0.0200717 2.14465e-05 0)
(0.0197923 2.0625e-05 0)
(0.0195235 1.98524e-05 0)
(0.0192646 1.91247e-05 0)
(0.0190148 1.84379e-05 0)
(0.0187738 1.77885e-05 0)
(0.0185407 1.71732e-05 0)
(0.0183153 1.65891e-05 0)
(0.0180971 1.60336e-05 0)
(0.0178856 1.55042e-05 0)
(0.0176806 1.49987e-05 0)
(0.0174817 1.45153e-05 0)
(0.0172885 1.40521e-05 0)
(0.0171009 1.36076e-05 0)
(0.0169186 1.31804e-05 0)
(0.0167413 1.27692e-05 0)
(0.0165689 1.23728e-05 0)
(0.0164012 1.19901e-05 0)
(0.016238 1.16201e-05 0)
(0.0160791 1.1262e-05 0)
(0.0159245 1.09149e-05 0)
(0.0157739 1.0578e-05 0)
(0.0156273 1.02506e-05 0)
(0.0154845 9.93215e-06 0)
(0.0153456 9.62192e-06 0)
(0.0152103 9.31938e-06 0)
(0.0150786 9.02401e-06 0)
(0.0149504 8.73533e-06 0)
(0.0148257 8.45289e-06 0)
(0.0147045 8.17629e-06 0)
(0.0145866 7.90515e-06 0)
(0.014472 7.63914e-06 0)
(0.0143607 7.37795e-06 0)
(0.0142528 7.12133e-06 0)
(0.014148 6.86905e-06 0)
(0.0140465 6.62092e-06 0)
(0.0139482 6.37682e-06 0)
(0.0138531 6.13664e-06 0)
(0.0137611 5.90035e-06 0)
(0.0136723 5.66797e-06 0)
(0.0135867 5.43956e-06 0)
(0.0135042 5.2153e-06 0)
(0.0134249 4.99542e-06 0)
(0.0133487 4.78026e-06 0)
(0.0132756 4.57025e-06 0)
(0.0132055 4.36596e-06 0)
(0.0131385 4.16806e-06 0)
(0.0130746 3.97744e-06 0)
(0.0130135 3.79526e-06 0)
(0.0129553 3.62285e-06 0)
(0.0129 3.46205e-06 0)
(0.0128473 3.31519e-06 0)
(0.0127971 3.18535e-06 0)
(0.0127492 3.07695e-06 0)
(0.0127034 2.99666e-06 0)
(0.0126593 2.95668e-06 0)
(0.0126164 2.98424e-06 0)
(0.0125737 3.10215e-06 0)
(0.0125334 3.43522e-06 0)
(0.0124262 1.5333e-05 0)
(0.189995 0.00961356 0)
(0.187731 0.0101611 0)
(0.183892 0.00996893 0)
(0.178812 0.00949015 0)
(0.172971 0.00886317 0)
(0.16671 0.00813562 0)
(0.160248 0.00734731 0)
(0.15375 0.00653551 0)
(0.147351 0.00573207 0)
(0.141155 0.00496365 0)
(0.135231 0.00425146 0)
(0.129623 0.00361049 0)
(0.124355 0.00304896 0)
(0.119433 0.00256883 0)
(0.114853 0.00216682 0)
(0.110604 0.00183592 0)
(0.106668 0.00156694 0)
(0.103025 0.00134993 0)
(0.0996536 0.00117517 0)
(0.0965321 0.00103397 0)
(0.0936393 0.000918928 0)
(0.090955 0.000824082 0)
(0.0884606 0.000744775 0)
(0.0861386 0.000677486 0)
(0.0839734 0.000619602 0)
(0.0819505 0.000569207 0)
(0.0800571 0.000524902 0)
(0.0782814 0.000485652 0)
(0.0766129 0.00045068 0)
(0.0750421 0.000419386 0)
(0.0735604 0.000391291 0)
(0.0721602 0.000366 0)
(0.0708344 0.000343181 0)
(0.0695767 0.000322546 0)
(0.0683817 0.000303844 0)
(0.0672441 0.000286853 0)
(0.0661593 0.000271377 0)
(0.0651233 0.000257244 0)
(0.0641322 0.000244301 0)
(0.0631829 0.000232412 0)
(0.0622721 0.00022146 0)
(0.0613971 0.000211342 0)
(0.0605556 0.000201965 0)
(0.0597452 0.000193252 0)
(0.058964 0.000185132 0)
(0.05821 0.000177545 0)
(0.0574816 0.000170438 0)
(0.0567774 0.000163763 0)
(0.0560959 0.00015748 0)
(0.0554358 0.000151552 0)
(0.0547961 0.000145948 0)
(0.0541756 0.000140639 0)
(0.0535735 0.000135599 0)
(0.0529888 0.000130805 0)
(0.0524208 0.000126238 0)
(0.0518687 0.000121878 0)
(0.0513318 0.000117709 0)
(0.0508096 0.000113716 0)
(0.0503015 0.000109884 0)
(0.049807 0.000106202 0)
(0.0493255 0.000102657 0)
(0.0488568 9.92388e-05 0)
(0.0484004 9.59375e-05 0)
(0.047956 9.2744e-05 0)
(0.0475232 8.96501e-05 0)
(0.0471018 8.66479e-05 0)
(0.0466916 8.37304e-05 0)
(0.0462922 8.08909e-05 0)
(0.0459036 7.81233e-05 0)
(0.0455255 7.5422e-05 0)
(0.0451578 7.27819e-05 0)
(0.0448003 7.01982e-05 0)
(0.0444531 6.76668e-05 0)
(0.0441159 6.51837e-05 0)
(0.0437887 6.27455e-05 0)
(0.0434714 6.03493e-05 0)
(0.0431641 5.79924e-05 0)
(0.0428666 5.56729e-05 0)
(0.042579 5.3389e-05 0)
(0.0423012 5.11398e-05 0)
(0.0420332 4.89246e-05 0)
(0.0417751 4.67436e-05 0)
(0.0415268 4.45975e-05 0)
(0.0412883 4.24877e-05 0)
(0.0410597 4.04165e-05 0)
(0.0408407 3.8387e-05 0)
(0.0406316 3.64034e-05 0)
(0.040432 3.44711e-05 0)
(0.0402421 3.2597e-05 0)
(0.0400615 3.07896e-05 0)
(0.0398902 2.90599e-05 0)
(0.0397279 2.74218e-05 0)
(0.0395743 2.5893e-05 0)
(0.039429 2.44982e-05 0)
(0.0392914 2.32745e-05 0)
(0.0391608 2.22878e-05 0)
(0.039036 2.16793e-05 0)
(0.038915 2.17973e-05 0)
(0.0387995 2.49702e-05 0)
(0.0385874 5.38715e-05 0)
(0.193005 0.00916938 0)
(0.193751 0.0101554 0)
(0.193942 0.0105418 0)
(0.193409 0.0105999 0)
(0.192238 0.0104228 0)
(0.19053 0.0100459 0)
(0.188359 0.00951264 0)
(0.185801 0.00887305 0)
(0.18294 0.00817412 0)
(0.179856 0.00745648 0)
(0.176623 0.00675325 0)
(0.173304 0.00608909 0)
(0.16995 0.00547987 0)
(0.166601 0.00493344 0)
(0.163289 0.00445109 0)
(0.160036 0.00402953 0)
(0.156857 0.00366269 0)
(0.153762 0.00334335 0)
(0.150757 0.00306423 0)
(0.147844 0.00281871 0)
(0.145026 0.00260112 0)
(0.142301 0.00240685 0)
(0.139669 0.00223221 0)
(0.137128 0.00207434 0)
(0.134677 0.00193101 0)
(0.132312 0.00180044 0)
(0.130033 0.00168124 0)
(0.127835 0.00157225 0)
(0.125716 0.00147248 0)
(0.123674 0.00138109 0)
(0.121706 0.00129732 0)
(0.119809 0.00122049 0)
(0.117979 0.00114998 0)
(0.116215 0.00108522 0)
(0.114513 0.00102569 0)
(0.11287 0.000970895 0)
(0.111284 0.000920408 0)
(0.109752 0.000873822 0)
(0.108272 0.000830773 0)
(0.106841 0.000790928 0)
(0.105456 0.000753985 0)
(0.104116 0.000719673 0)
(0.102817 0.000687745 0)
(0.101559 0.000657981 0)
(0.100339 0.000630182 0)
(0.0991558 0.000604168 0)
(0.098007 0.000579779 0)
(0.0968911 0.000556869 0)
(0.0958068 0.000535308 0)
(0.0947526 0.000514979 0)
(0.0937272 0.000495776 0)
(0.0927293 0.000477602 0)
(0.0917578 0.000460371 0)
(0.0908116 0.000444005 0)
(0.0898898 0.000428433 0)
(0.0889913 0.00041359 0)
(0.0881155 0.000399416 0)
(0.0872614 0.000385858 0)
(0.0864283 0.000372867 0)
(0.0856157 0.000360397 0)
(0.0848228 0.000348408 0)
(0.0840492 0.00033686 0)
(0.0832942 0.00032572 0)
(0.0825575 0.000314953 0)
(0.0818386 0.000304532 0)
(0.0811372 0.000294427 0)
(0.080453 0.000284613 0)
(0.0797855 0.000275068 0)
(0.0791347 0.000265768 0)
(0.0785002 0.000256693 0)
(0.0778819 0.000247826 0)
(0.0772796 0.000239148 0)
(0.0766933 0.000230645 0)
(0.0761227 0.000222301 0)
(0.075568 0.000214105 0)
(0.0750289 0.000206045 0)
(0.0745055 0.000198111 0)
(0.0739978 0.000190294 0)
(0.0735058 0.000182588 0)
(0.0730295 0.000174988 0)
(0.072569 0.00016749 0)
(0.0721244 0.000160092 0)
(0.0716956 0.000152796 0)
(0.0712827 0.000145604 0)
(0.0708859 0.000138521 0)
(0.070505 0.000131554 0)
(0.0701402 0.000124716 0)
(0.0697913 0.00011802 0)
(0.0694584 0.000111485 0)
(0.0691413 0.000105135 0)
(0.0688399 9.89976e-05 0)
(0.0685539 9.31114e-05 0)
(0.0682829 8.75231e-05 0)
(0.0680266 8.22967e-05 0)
(0.0677842 7.75262e-05 0)
(0.0675549 7.33751e-05 0)
(0.0673372 7.01902e-05 0)
(0.0671289 6.89883e-05 0)
(0.06693 7.52951e-05 0)
(0.0666431 0.000111728 0)
(0.194132 0.00849623 0)
(0.195127 0.00954931 0)
(0.196081 0.0101464 0)
(0.196786 0.0104382 0)
(0.197208 0.010499 0)
(0.197345 0.0103588 0)
(0.197187 0.0100506 0)
(0.196732 0.00961513 0)
(0.195994 0.00909339 0)
(0.195001 0.00852275 0)
(0.193787 0.00793544 0)
(0.192391 0.0073574 0)
(0.190849 0.00680744 0)
(0.189196 0.00629735 0)
(0.187461 0.00583282 0)
(0.18567 0.00541486 0)
(0.183841 0.00504123 0)
(0.18199 0.00470785 0)
(0.180129 0.00440981 0)
(0.178265 0.00414215 0)
(0.176405 0.00390029 0)
(0.174554 0.00368026 0)
(0.172715 0.00347876 0)
(0.17089 0.00329313 0)
(0.169083 0.00312126 0)
(0.167294 0.00296152 0)
(0.165525 0.0028126 0)
(0.163777 0.00267347 0)
(0.162052 0.00254329 0)
(0.160351 0.00242136 0)
(0.158674 0.00230706 0)
(0.157022 0.00219986 0)
(0.155396 0.00209926 0)
(0.153795 0.00200482 0)
(0.15222 0.00191612 0)
(0.150672 0.00183277 0)
(0.149149 0.00175439 0)
(0.147653 0.00168066 0)
(0.146183 0.00161123 0)
(0.144739 0.00154582 0)
(0.14332 0.00148415 0)
(0.141927 0.00142594 0)
(0.140558 0.00137095 0)
(0.139215 0.00131897 0)
(0.137895 0.00126977 0)
(0.1366 0.00122315 0)
(0.135329 0.00117895 0)
(0.13408 0.00113698 0)
(0.132854 0.00109709 0)
(0.131651 0.00105913 0)
(0.130469 0.00102298 0)
(0.12931 0.000988494 0)
(0.128171 0.000955566 0)
(0.127053 0.000924083 0)
(0.125956 0.000893945 0)
(0.124878 0.000865057 0)
(0.123821 0.00083733 0)
(0.122783 0.000810683 0)
(0.121764 0.000785039 0)
(0.120764 0.000760324 0)
(0.119782 0.000736474 0)
(0.118819 0.000713423 0)
(0.117874 0.000691113 0)
(0.116948 0.000669489 0)
(0.116039 0.000648498 0)
(0.115147 0.000628093 0)
(0.114274 0.000608226 0)
(0.113418 0.000588856 0)
(0.112579 0.000569941 0)
(0.111758 0.000551444 0)
(0.110954 0.000533331 0)
(0.110167 0.000515568 0)
(0.109398 0.000498126 0)
(0.108647 0.000480976 0)
(0.107913 0.000464093 0)
(0.107197 0.000447455 0)
(0.106499 0.000431042 0)
(0.105819 0.000414835 0)
(0.105157 0.000398822 0)
(0.104514 0.000382989 0)
(0.103889 0.000367331 0)
(0.103283 0.000351841 0)
(0.102696 0.000336519 0)
(0.102128 0.00032137 0)
(0.10158 0.000306401 0)
(0.101051 0.000291626 0)
(0.100542 0.000277066 0)
(0.100052 0.000262745 0)
(0.099583 0.000248698 0)
(0.0991336 0.000234968 0)
(0.0987043 0.000221607 0)
(0.0982947 0.000208684 0)
(0.0979047 0.000196282 0)
(0.097534 0.000184515 0)
(0.0971819 0.000173548 0)
(0.0968477 0.000163656 0)
(0.09653 0.00015542 0)
(0.0962271 0.000150497 0)
(0.0959392 0.000155574 0)
(0.0955787 0.000188186 0)
(0.195007 0.00797697 0)
(0.195806 0.0089341 0)
(0.1967 0.00954878 0)
(0.19754 0.00990204 0)
(0.198276 0.0100547 0)
(0.198892 0.0100351 0)
(0.199363 0.00986712 0)
(0.199667 0.00957993 0)
(0.199795 0.0092048 0)
(0.199745 0.00877168 0)
(0.199529 0.00830765 0)
(0.199161 0.00783568 0)
(0.19866 0.00737373 0)
(0.198049 0.00693437 0)
(0.197345 0.00652511 0)
(0.196568 0.00614925 0)
(0.195732 0.00580699 0)
(0.19485 0.00549645 0)
(0.193931 0.00521461 0)
(0.192983 0.00495803 0)
(0.192011 0.00472329 0)
(0.191019 0.00450728 0)
(0.190011 0.00430738 0)
(0.188988 0.00412139 0)
(0.187953 0.00394756 0)
(0.186907 0.00378452 0)
(0.185852 0.00363116 0)
(0.184789 0.00348662 0)
(0.183719 0.00335018 0)
(0.182644 0.00322125 0)
(0.181563 0.0030993 0)
(0.180479 0.00298387 0)
(0.179393 0.00287455 0)
(0.178304 0.00277095 0)
(0.177214 0.00267271 0)
(0.176124 0.00257947 0)
(0.175035 0.00249092 0)
(0.173946 0.00240675 0)
(0.172859 0.00232668 0)
(0.171775 0.00225044 0)
(0.170693 0.00217777 0)
(0.169614 0.00210845 0)
(0.168538 0.00204225 0)
(0.167467 0.00197897 0)
(0.166401 0.00191843 0)
(0.165339 0.00186043 0)
(0.164283 0.00180483 0)
(0.163232 0.00175148 0)
(0.162187 0.00170021 0)
(0.161149 0.00165092 0)
(0.160117 0.00160347 0)
(0.159092 0.00155775 0)
(0.158075 0.00151365 0)
(0.157064 0.00147107 0)
(0.156062 0.00142991 0)
(0.155067 0.0013901 0)
(0.154081 0.00135153 0)
(0.153104 0.00131414 0)
(0.152135 0.00127784 0)
(0.151175 0.00124257 0)
(0.150225 0.00120825 0)
(0.149284 0.00117483 0)
(0.148353 0.00114223 0)
(0.147432 0.00111041 0)
(0.146522 0.0010793 0)
(0.145622 0.00104886 0)
(0.144733 0.00101902 0)
(0.143856 0.000989749 0)
(0.14299 0.000960989 0)
(0.142136 0.0009327 0)
(0.141294 0.000904839 0)
(0.140465 0.000877366 0)
(0.139648 0.000850246 0)
(0.138845 0.000823442 0)
(0.138056 0.000796924 0)
(0.137281 0.000770663 0)
(0.13652 0.000744632 0)
(0.135774 0.000718811 0)
(0.135044 0.000693181 0)
(0.134329 0.000667728 0)
(0.13363 0.000642441 0)
(0.132949 0.000617318 0)
(0.132284 0.000592359 0)
(0.131637 0.000567573 0)
(0.131008 0.000542972 0)
(0.130397 0.000518582 0)
(0.129806 0.000494431 0)
(0.129233 0.000470563 0)
(0.12868 0.000447031 0)
(0.128147 0.0004239 0)
(0.127633 0.000401254 0)
(0.12714 0.000379194 0)
(0.126667 0.00035785 0)
(0.126214 0.000337389 0)
(0.12578 0.000318052 0)
(0.125365 0.000300227 0)
(0.124969 0.000284683 0)
(0.12459 0.000273374 0)
(0.124231 0.000272074 0)
(0.123811 0.000290222 0)
(0.195789 0.00753811 0)
(0.19639 0.00836423 0)
(0.197104 0.00894657 0)
(0.197832 0.00931671 0)
(0.198524 0.00951394 0)
(0.19916 0.00956171 0)
(0.19972 0.00947875 0)
(0.200186 0.00928725 0)
(0.200544 0.00901197 0)
(0.20079 0.00867745 0)
(0.200925 0.00830632 0)
(0.200957 0.00791832 0)
(0.200894 0.00752951 0)
(0.20075 0.00715184 0)
(0.200537 0.00679325 0)
(0.200267 0.00645819 0)
(0.199951 0.00614835 0)
(0.199598 0.00586348 0)
(0.199215 0.00560205 0)
(0.198806 0.00536193 0)
(0.198378 0.00514075 0)
(0.197931 0.00493621 0)
(0.197468 0.00474623 0)
(0.19699 0.00456902 0)
(0.196498 0.00440308 0)
(0.195994 0.00424718 0)
(0.195476 0.00410031 0)
(0.194947 0.00396165 0)
(0.194405 0.00383051 0)
(0.193852 0.00370632 0)
(0.193288 0.00358857 0)
(0.192714 0.00347681 0)
(0.192129 0.00337065 0)
(0.191534 0.00326971 0)
(0.190929 0.00317366 0)
(0.190315 0.00308217 0)
(0.189692 0.00299493 0)
(0.18906 0.00291168 0)
(0.188421 0.00283213 0)
(0.187773 0.00275605 0)
(0.187117 0.00268319 0)
(0.186455 0.00261334 0)
(0.185785 0.0025463 0)
(0.185109 0.00248188 0)
(0.184427 0.0024199 0)
(0.183739 0.00236019 0)
(0.183045 0.0023026 0)
(0.182346 0.00224699 0)
(0.181642 0.00219323 0)
(0.180933 0.00214119 0)
(0.180221 0.00209076 0)
(0.179504 0.00204182 0)
(0.178784 0.00199429 0)
(0.178061 0.00194806 0)
(0.177336 0.00190305 0)
(0.176608 0.00185916 0)
(0.175878 0.00181633 0)
(0.175146 0.00177448 0)
(0.174413 0.00173354 0)
(0.173679 0.00169343 0)
(0.172945 0.0016541 0)
(0.172211 0.00161548 0)
(0.171478 0.00157752 0)
(0.170745 0.00154015 0)
(0.170014 0.00150333 0)
(0.169284 0.001467 0)
(0.168556 0.00143111 0)
(0.167832 0.00139561 0)
(0.16711 0.00136046 0)
(0.166392 0.00132562 0)
(0.165678 0.00129103 0)
(0.164969 0.00125667 0)
(0.164265 0.00122249 0)
(0.163567 0.00118846 0)
(0.162875 0.00115454 0)
(0.16219 0.00112071 0)
(0.161512 0.00108695 0)
(0.160843 0.00105323 0)
(0.160182 0.00101953 0)
(0.15953 0.000985843 0)
(0.158889 0.000952164 0)
(0.158258 0.000918492 0)
(0.157638 0.000884834 0)
(0.157029 0.000851207 0)
(0.156434 0.000817635 0)
(0.155851 0.000784154 0)
(0.155281 0.000750812 0)
(0.154726 0.00071767 0)
(0.154186 0.000684803 0)
(0.15366 0.000652307 0)
(0.15315 0.000620296 0)
(0.152656 0.000588912 0)
(0.152178 0.000558332 0)
(0.151716 0.00052878 0)
(0.15127 0.000500565 0)
(0.150841 0.00047416 0)
(0.150426 0.000450406 0)
(0.150029 0.000431049 0)
(0.149651 0.000419571 0)
(0.149221 0.000416556 0)
(0.1965 0.00717643 0)
(0.196949 0.00787997 0)
(0.197498 0.00841386 0)
(0.198084 0.00878084 0)
(0.198662 0.00900041 0)
(0.199211 0.00908944 0)
(0.199713 0.00906293 0)
(0.200153 0.00893825 0)
(0.200522 0.00873509 0)
(0.200813 0.00847353 0)
(0.201028 0.00817251 0)
(0.201169 0.00784886 0)
(0.201243 0.00751674 0)
(0.201259 0.00718722 0)
(0.201226 0.00686827 0)
(0.201153 0.00656501 0)
(0.201048 0.00628022 0)
(0.200918 0.00601486 0)
(0.200768 0.00576868 0)
(0.200604 0.00554063 0)
(0.200427 0.00532926 0)
(0.200241 0.00513299 0)
(0.200047 0.00495027 0)
(0.199845 0.00477967 0)
(0.199636 0.00461992 0)
(0.199421 0.00446996 0)
(0.199199 0.00432886 0)
(0.19897 0.00419585 0)
(0.198735 0.00407025 0)
(0.198492 0.00395149 0)
(0.198243 0.00383908 0)
(0.197986 0.00373255 0)
(0.197722 0.0036315 0)
(0.19745 0.00353556 0)
(0.197171 0.00344437 0)
(0.196885 0.00335761 0)
(0.196591 0.00327497 0)
(0.196289 0.00319617 0)
(0.19598 0.00312093 0)
(0.195663 0.003049 0)
(0.195338 0.00298013 0)
(0.195005 0.00291412 0)
(0.194665 0.00285074 0)
(0.194317 0.0027898 0)
(0.193962 0.00273113 0)
(0.193599 0.00267455 0)
(0.193229 0.0026199 0)
(0.192851 0.00256704 0)
(0.192466 0.00251583 0)
(0.192073 0.00246614 0)
(0.191674 0.00241786 0)
(0.191268 0.00237087 0)
(0.190854 0.00232507 0)
(0.190435 0.00228036 0)
(0.190009 0.00223665 0)
(0.189576 0.00219385 0)
(0.189137 0.00215188 0)
(0.188693 0.00211067 0)
(0.188243 0.00207014 0)
(0.187788 0.00203022 0)
(0.187327 0.00199084 0)
(0.186862 0.00195194 0)
(0.186392 0.00191346 0)
(0.185918 0.00187534 0)
(0.18544 0.00183753 0)
(0.184958 0.00179996 0)
(0.184473 0.00176258 0)
(0.183985 0.00172535 0)
(0.183494 0.00168821 0)
(0.183002 0.00165112 0)
(0.182508 0.00161403 0)
(0.182012 0.0015769 0)
(0.181516 0.00153969 0)
(0.181019 0.00150236 0)
(0.180523 0.00146488 0)
(0.180027 0.00142721 0)
(0.179532 0.00138933 0)
(0.179039 0.00135123 0)
(0.178549 0.00131287 0)
(0.178061 0.00127425 0)
(0.177577 0.00123537 0)
(0.177097 0.00119623 0)
(0.176621 0.00115685 0)
(0.176151 0.00111724 0)
(0.175686 0.00107744 0)
(0.175228 0.00103751 0)
(0.174777 0.000997492 0)
(0.174333 0.000957478 0)
(0.173898 0.000917565 0)
(0.173471 0.000877873 0)
(0.173054 0.000838549 0)
(0.172646 0.000799772 0)
(0.172248 0.00076176 0)
(0.17186 0.000724789 0)
(0.171482 0.000689217 0)
(0.171115 0.000655551 0)
(0.170758 0.000624554 0)
(0.170413 0.000597379 0)
(0.170085 0.000574896 0)
(0.16971 0.000551219 0)
(0.197151 0.00688007 0)
(0.197485 0.00747834 0)
(0.197898 0.00795755 0)
(0.198351 0.00830832 0)
(0.198812 0.00853683 0)
(0.199258 0.00865319 0)
(0.199674 0.00866851 0)
(0.200046 0.00859587 0)
(0.200368 0.00845043 0)
(0.200633 0.00824817 0)
(0.200841 0.00800463 0)
(0.200995 0.00773408 0)
(0.201097 0.00744889 0)
(0.201156 0.00715922 0)
(0.201177 0.00687287 0)
(0.201168 0.00659535 0)
(0.201134 0.00633024 0)
(0.201083 0.00607949 0)
(0.201018 0.00584388 0)
(0.200944 0.00562333 0)
(0.200864 0.00541724 0)
(0.200778 0.00522473 0)
(0.20069 0.00504477 0)
(0.200599 0.00487637 0)
(0.200507 0.00471853 0)
(0.200414 0.00457038 0)
(0.200318 0.00443112 0)
(0.200222 0.00430004 0)
(0.200123 0.00417653 0)
(0.200023 0.00406002 0)
(0.199921 0.00395002 0)
(0.199816 0.00384606 0)
(0.199709 0.00374772 0)
(0.199599 0.00365463 0)
(0.199486 0.0035664 0)
(0.19937 0.00348272 0)
(0.199251 0.00340324 0)
(0.199127 0.00332769 0)
(0.199 0.00325576 0)
(0.19887 0.0031872 0)
(0.198735 0.00312175 0)
(0.198595 0.00305919 0)
(0.198452 0.00299929 0)
(0.198303 0.00294184 0)
(0.19815 0.00288666 0)
(0.197993 0.00283356 0)
(0.19783 0.00278238 0)
(0.197662 0.00273296 0)
(0.197489 0.00268515 0)
(0.197311 0.00263882 0)
(0.197128 0.00259384 0)
(0.19694 0.00255008 0)
(0.196746 0.00250744 0)
(0.196547 0.00246581 0)
(0.196343 0.00242509 0)
(0.196133 0.00238519 0)
(0.195918 0.00234601 0)
(0.195697 0.00230746 0)
(0.195472 0.00226948 0)
(0.195241 0.00223198 0)
(0.195005 0.00219488 0)
(0.194764 0.00215812 0)
(0.194518 0.00212162 0)
(0.194267 0.00208532 0)
(0.194011 0.00204915 0)
(0.193751 0.00201306 0)
(0.193487 0.00197698 0)
(0.193218 0.00194085 0)
(0.192945 0.00190462 0)
(0.192668 0.00186823 0)
(0.192387 0.00183163 0)
(0.192103 0.00179478 0)
(0.191816 0.00175761 0)
(0.191526 0.0017201 0)
(0.191234 0.00168219 0)
(0.190939 0.00164386 0)
(0.190642 0.00160506 0)
(0.190344 0.00156578 0)
(0.190044 0.00152599 0)
(0.189744 0.00148568 0)
(0.189443 0.00144484 0)
(0.189142 0.00140348 0)
(0.188842 0.00136161 0)
(0.188542 0.00131926 0)
(0.188243 0.00127646 0)
(0.187947 0.00123327 0)
(0.187652 0.00118976 0)
(0.18736 0.00114602 0)
(0.187071 0.00110218 0)
(0.186785 0.00105836 0)
(0.186503 0.00101475 0)
(0.186226 0.000971538 0)
(0.185952 0.000928986 0)
(0.185684 0.000887395 0)
(0.18542 0.000847149 0)
(0.185161 0.000808727 0)
(0.184909 0.000772715 0)
(0.184663 0.000739599 0)
(0.184427 0.00070841 0)
(0.184151 0.000671252 0)
(0.197719 0.00664611 0)
(0.197966 0.00716232 0)
(0.198273 0.007592 0)
(0.198617 0.00792261 0)
(0.198974 0.00815292 0)
(0.199325 0.00828749 0)
(0.199657 0.0083336 0)
(0.19996 0.00830077 0)
(0.200225 0.00820046 0)
(0.200449 0.00804524 0)
(0.20063 0.00784785 0)
(0.200769 0.00762033 0)
(0.200868 0.00737353 0)
(0.200933 0.00711672 0)
(0.200967 0.00685738 0)
(0.200977 0.00660123 0)
(0.200968 0.00635234 0)
(0.200944 0.0061134 0)
(0.20091 0.00588598 0)
(0.200868 0.00567078 0)
(0.200821 0.00546791 0)
(0.200771 0.0052771 0)
(0.20072 0.00509782 0)
(0.200669 0.00492942 0)
(0.200617 0.00477123 0)
(0.200566 0.00462255 0)
(0.200516 0.00448273 0)
(0.200466 0.00435115 0)
(0.200417 0.00422723 0)
(0.200368 0.00411047 0)
(0.20032 0.00400036 0)
(0.200272 0.00389646 0)
(0.200224 0.00379835 0)
(0.200176 0.00370564 0)
(0.200127 0.00361796 0)
(0.200078 0.00353496 0)
(0.200029 0.00345633 0)
(0.199978 0.00338175 0)
(0.199927 0.00331093 0)
(0.199874 0.0032436 0)
(0.19982 0.00317951 0)
(0.199765 0.00311841 0)
(0.199708 0.00306007 0)
(0.199649 0.00300429 0)
(0.199588 0.00295086 0)
(0.199525 0.00289959 0)
(0.19946 0.00285031 0)
(0.199393 0.00280286 0)
(0.199323 0.00275708 0)
(0.199251 0.00271283 0)
(0.199176 0.00266997 0)
(0.199098 0.00262837 0)
(0.199018 0.00258791 0)
(0.198934 0.00254848 0)
(0.198848 0.00250998 0)
(0.198758 0.00247229 0)
(0.198666 0.00243532 0)
(0.19857 0.00239898 0)
(0.198471 0.00236319 0)
(0.198369 0.00232784 0)
(0.198263 0.00229287 0)
(0.198154 0.0022582 0)
(0.198042 0.00222374 0)
(0.197926 0.00218943 0)
(0.197807 0.00215519 0)
(0.197685 0.00212095 0)
(0.19756 0.00208665 0)
(0.197431 0.00205221 0)
(0.197299 0.00201758 0)
(0.197164 0.00198269 0)
(0.197026 0.00194748 0)
(0.196885 0.00191189 0)
(0.196741 0.00187588 0)
(0.196594 0.00183938 0)
(0.196444 0.00180235 0)
(0.196293 0.00176474 0)
(0.196138 0.00172653 0)
(0.195982 0.00168766 0)
(0.195824 0.00164813 0)
(0.195664 0.0016079 0)
(0.195502 0.00156697 0)
(0.195339 0.00152533 0)
(0.195175 0.001483 0)
(0.19501 0.00144001 0)
(0.194844 0.00139638 0)
(0.194678 0.00135219 0)
(0.194512 0.0013075 0)
(0.194346 0.00126242 0)
(0.19418 0.00121706 0)
(0.194015 0.00117158 0)
(0.193851 0.00112616 0)
(0.193688 0.00108103 0)
(0.193526 0.00103645 0)
(0.193366 0.000992739 0)
(0.193208 0.000950279 0)
(0.193051 0.000909495 0)
(0.192897 0.000870796 0)
(0.192746 0.000834238 0)
(0.192599 0.000798288 0)
(0.192421 0.000756637 0)
(0.198283 0.0064586 0)
(0.198457 0.00690745 0)
(0.198673 0.00729103 0)
(0.198918 0.00759771 0)
(0.199176 0.00782294 0)
(0.199434 0.0079674 0)
(0.199681 0.00803515 0)
(0.199909 0.00803265 0)
(0.200112 0.00796832 0)
(0.200286 0.00785183 0)
(0.200429 0.00769337 0)
(0.200542 0.00750295 0)
(0.200626 0.00728993 0)
(0.200684 0.0070626 0)
(0.200719 0.006828 0)
(0.200735 0.00659181 0)
(0.200736 0.0063584 0)
(0.200725 0.00613095 0)
(0.200705 0.00591164 0)
(0.200679 0.00570181 0)
(0.20065 0.00550219 0)
(0.200617 0.00531303 0)
(0.200584 0.00513426 0)
(0.200551 0.0049656 0)
(0.200517 0.00480665 0)
(0.200485 0.00465692 0)
(0.200454 0.00451591 0)
(0.200424 0.00438311 0)
(0.200395 0.00425802 0)
(0.200367 0.00414015 0)
(0.20034 0.00402904 0)
(0.200315 0.00392426 0)
(0.20029 0.0038254 0)
(0.200266 0.00373206 0)
(0.200243 0.00364389 0)
(0.200221 0.00356053 0)
(0.200199 0.00348164 0)
(0.200177 0.00340693 0)
(0.200156 0.0033361 0)
(0.200135 0.00326887 0)
(0.200114 0.00320498 0)
(0.200094 0.00314419 0)
(0.200073 0.00308625 0)
(0.200052 0.00303097 0)
(0.20003 0.00297812 0)
(0.200009 0.00292752 0)
(0.199987 0.00287899 0)
(0.199964 0.00283237 0)
(0.199941 0.00278748 0)
(0.199917 0.00274419 0)
(0.199892 0.00270235 0)
(0.199866 0.00266182 0)
(0.19984 0.0026225 0)
(0.199812 0.00258425 0)
(0.199783 0.00254696 0)
(0.199753 0.00251053 0)
(0.199722 0.00247486 0)
(0.19969 0.00243985 0)
(0.199657 0.0024054 0)
(0.199622 0.00237143 0)
(0.199585 0.00233785 0)
(0.199547 0.00230458 0)
(0.199508 0.00227153 0)
(0.199467 0.00223862 0)
(0.199425 0.00220578 0)
(0.199381 0.00217294 0)
(0.199335 0.00214002 0)
(0.199288 0.00210694 0)
(0.199239 0.00207364 0)
(0.199188 0.00204005 0)
(0.199136 0.00200611 0)
(0.199082 0.00197175 0)
(0.199026 0.00193691 0)
(0.198969 0.00190153 0)
(0.19891 0.00186556 0)
(0.198849 0.00182895 0)
(0.198787 0.00179165 0)
(0.198724 0.00175363 0)
(0.198659 0.00171485 0)
(0.198592 0.00167529 0)
(0.198524 0.00163493 0)
(0.198455 0.00159376 0)
(0.198385 0.00155181 0)
(0.198314 0.00150908 0)
(0.198242 0.00146562 0)
(0.198168 0.00142148 0)
(0.198094 0.00137673 0)
(0.19802 0.00133149 0)
(0.197944 0.00128587 0)
(0.197868 0.00124003 0)
(0.197792 0.00119416 0)
(0.197715 0.0011485 0)
(0.197638 0.00110331 0)
(0.197561 0.0010589 0)
(0.197484 0.00101565 0)
(0.197407 0.000973924 0)
(0.197331 0.000934024 0)
(0.197255 0.000895914 0)
(0.197179 0.000858519 0)
(0.197081 0.000818792 0)
(0.198887 0.00629261 0)
(0.198989 0.00668705 0)
(0.199116 0.00703119 0)
(0.199262 0.00731525 0)
(0.199418 0.00753348 0)
(0.199577 0.00768415 0)
(0.199731 0.00776873 0)
(0.199876 0.00779117 0)
(0.200006 0.00775729 0)
(0.20012 0.00767429 0)
(0.200216 0.0075501 0)
(0.200293 0.00739289 0)
(0.200353 0.0072106 0)
(0.200396 0.00701056 0)
(0.200425 0.00679926 0)
(0.200441 0.00658223 0)
(0.200447 0.00636396 0)
(0.200445 0.006148 0)
(0.200436 0.00593696 0)
(0.200423 0.00573274 0)
(0.200408 0.00553656 0)
(0.20039 0.00534917 0)
(0.200371 0.00517091 0)
(0.200351 0.00500187 0)
(0.200332 0.00484191 0)
(0.200313 0.00469078 0)
(0.200295 0.00454813 0)
(0.200278 0.00441358 0)
(0.200261 0.00428669 0)
(0.200245 0.00416705 0)
(0.20023 0.00405423 0)
(0.200216 0.00394782 0)
(0.200203 0.00384743 0)
(0.20019 0.00375267 0)
(0.200179 0.00366317 0)
(0.200168 0.00357859 0)
(0.200157 0.0034986 0)
(0.200147 0.00342288 0)
(0.200138 0.00335114 0)
(0.200129 0.00328309 0)
(0.20012 0.00321848 0)
(0.200112 0.00315705 0)
(0.200104 0.00309857 0)
(0.200096 0.00304282 0)
(0.200089 0.00298958 0)
(0.200082 0.00293867 0)
(0.200075 0.0028899 0)
(0.200068 0.0028431 0)
(0.200061 0.0027981 0)
(0.200054 0.00275476 0)
(0.200047 0.00271293 0)
(0.20004 0.00267247 0)
(0.200033 0.00263326 0)
(0.200026 0.00259517 0)
(0.200019 0.0025581 0)
(0.200011 0.00252193 0)
(0.200004 0.00248656 0)
(0.199996 0.00245188 0)
(0.199988 0.00241781 0)
(0.199979 0.00238425 0)
(0.19997 0.00235111 0)
(0.199961 0.00231831 0)
(0.199951 0.00228576 0)
(0.199941 0.00225338 0)
(0.199931 0.00222109 0)
(0.19992 0.00218882 0)
(0.199908 0.00215648 0)
(0.199897 0.00212401 0)
(0.199884 0.00209133 0)
(0.199871 0.00205837 0)
(0.199858 0.00202506 0)
(0.199844 0.00199134 0)
(0.199829 0.00195714 0)
(0.199814 0.00192241 0)
(0.199798 0.00188708 0)
(0.199781 0.0018511 0)
(0.199764 0.00181442 0)
(0.199747 0.00177701 0)
(0.199729 0.00173882 0)
(0.19971 0.00169984 0)
(0.19969 0.00166003 0)
(0.19967 0.0016194 0)
(0.19965 0.00157795 0)
(0.199628 0.0015357 0)
(0.199607 0.00149268 0)
(0.199584 0.00144896 0)
(0.199561 0.0014046 0)
(0.199538 0.00135971 0)
(0.199514 0.00131442 0)
(0.19949 0.00126888 0)
(0.199465 0.00122328 0)
(0.199439 0.00117787 0)
(0.199413 0.0011329 0)
(0.199387 0.00108868 0)
(0.19936 0.00104555 0)
(0.199333 0.00100386 0)
(0.199306 0.000963885 0)
(0.199278 0.000925777 0)
(0.199249 0.000889403 0)
(0.199208 0.000854951 0)
(0.199518 0.00621126 0)
(0.199545 0.00657121 0)
(0.199582 0.00688786 0)
(0.199627 0.00715297 0)
(0.199677 0.00736091 0)
(0.199729 0.00750917 0)
(0.199782 0.00759812 0)
(0.199833 0.00763045 0)
(0.199881 0.00761063 0)
(0.199925 0.00754446 0)
(0.199963 0.00743858 0)
(0.199996 0.00730001 0)
(0.200023 0.00713573 0)
(0.200045 0.00695236 0)
(0.200061 0.00675592 0)
(0.200074 0.00655169 0)
(0.200082 0.0063441 0)
(0.200088 0.00613676 0)
(0.200091 0.00593248 0)
(0.200092 0.00573337 0)
(0.200091 0.00554093 0)
(0.20009 0.00535615 0)
(0.200087 0.00517961 0)
(0.200085 0.00501161 0)
(0.200081 0.00485219 0)
(0.200078 0.00470122 0)
(0.200075 0.00455848 0)
(0.200072 0.00442365 0)
(0.200068 0.00429638 0)
(0.200065 0.00417628 0)
(0.200062 0.00406298 0)
(0.20006 0.00395607 0)
(0.200057 0.00385517 0)
(0.200055 0.00375992 0)
(0.200052 0.00366995 0)
(0.20005 0.00358492 0)
(0.200048 0.00350451 0)
(0.200046 0.00342839 0)
(0.200044 0.00335628 0)
(0.200043 0.0032879 0)
(0.200041 0.00322298 0)
(0.20004 0.00316127 0)
(0.200038 0.00310254 0)
(0.200037 0.00304656 0)
(0.200036 0.00299313 0)
(0.200035 0.00294205 0)
(0.200034 0.00289313 0)
(0.200033 0.0028462 0)
(0.200032 0.00280111 0)
(0.200031 0.00275769 0)
(0.20003 0.0027158 0)
(0.200029 0.0026753 0)
(0.200028 0.00263607 0)
(0.200027 0.00259799 0)
(0.200026 0.00256093 0)
(0.200025 0.00252479 0)
(0.200024 0.00248947 0)
(0.200023 0.00245486 0)
(0.200022 0.00242086 0)
(0.200021 0.00238739 0)
(0.20002 0.00235436 0)
(0.200019 0.00232168 0)
(0.200018 0.00228925 0)
(0.200016 0.00225702 0)
(0.200015 0.00222488 0)
(0.200013 0.00219277 0)
(0.200012 0.00216061 0)
(0.20001 0.00212832 0)
(0.200008 0.00209583 0)
(0.200007 0.00206307 0)
(0.200005 0.00202998 0)
(0.200002 0.00199647 0)
(0.2 0.0019625 0)
(0.199998 0.001928 0)
(0.199995 0.0018929 0)
(0.199993 0.00185717 0)
(0.19999 0.00182074 0)
(0.199987 0.00178358 0)
(0.199984 0.00174565 0)
(0.19998 0.00170692 0)
(0.199977 0.00166738 0)
(0.199973 0.00162701 0)
(0.19997 0.00158583 0)
(0.199966 0.00154385 0)
(0.199961 0.0015011 0)
(0.199957 0.00145765 0)
(0.199953 0.00141357 0)
(0.199948 0.00136896 0)
(0.199943 0.00132395 0)
(0.199938 0.00127869 0)
(0.199932 0.00123339 0)
(0.199927 0.00118828 0)
(0.199921 0.0011436 0)
(0.199915 0.00109968 0)
(0.199909 0.00105682 0)
(0.199902 0.00101538 0)
(0.199895 0.000975687 0)
(0.199888 0.000938113 0)
(0.199881 0.000903252 0)