/*--------------------------------*- C++ -*----------------------------------*\
| =========                 |                                                 |
| \\      /  F ield         | OpenFOAM: The Open Source CFD Toolbox           |
|  \\    /   O peration     | Version:  2.3.0                                 |
|   \\  /    A nd           | Web:      www.OpenFOAM.org                      |
|    \\/     M anipulation  |                                                 |
\*---------------------------------------------------------------------------*/
FoamFile
{
    version     2.0;
    format      ascii;
    class       volVectorField;
    location    "0.8";
    object      U_0;
}
// * * * * * * * * * * * * * * * * * * * * * * * * * * * * * * * * * * * * * //

dimensions      [0 1 -1 0 0 0 0];

internalField   nonuniform List<vector> 
3375
(
(0.170604 0.00600302 0)
(0.15407 0.00606195 0)
(0.138181 0.00563577 0)
(0.12313 0.00503029 0)
(0.109325 0.00436224 0)
(0.096937 0.0036852 0)
(0.0859774 0.00303627 0)
(0.0764124 0.00244115 0)
(0.068185 0.00191554 0)
(0.0612081 0.00146736 0)
(0.0553656 0.00109825 0)
(0.0505214 0.000804544 0)
(0.0465321 0.000578581 0)
(0.0432559 0.000410327 0)
(0.0405611 0.000288975 0)
(0.0383305 0.000204168 0)
(0.0364647 0.000146752 0)
(0.034882 0.000109113 0)
(0.0335179 8.52187e-05 0)
(0.0323226 7.04928e-05 0)
(0.0312588 6.16087e-05 0)
(0.0302989 5.62517e-05 0)
(0.0294226 5.28872e-05 0)
(0.0286155 5.05518e-05 0)
(0.0278668 4.86793e-05 0)
(0.0271685 4.69648e-05 0)
(0.0265146 4.52654e-05 0)
(0.0259004 4.35314e-05 0)
(0.025322 4.17616e-05 0)
(0.0247761 3.99762e-05 0)
(0.0242599 3.82013e-05 0)
(0.0237711 3.6461e-05 0)
(0.0233074 3.47746e-05 0)
(0.0228668 3.31554e-05 0)
(0.0224476 3.16116e-05 0)
(0.0220482 3.01471e-05 0)
(0.0216672 2.87626e-05 0)
(0.0213031 2.74569e-05 0)
(0.0209549 2.62271e-05 0)
(0.0206214 2.50696e-05 0)
(0.0203017 2.39803e-05 0)
(0.0199948 2.2955e-05 0)
(0.0197 2.19896e-05 0)
(0.0194165 2.10801e-05 0)
(0.0191436 2.02226e-05 0)
(0.0188806 1.94136e-05 0)
(0.0186271 1.86499e-05 0)
(0.0183824 1.79283e-05 0)
(0.0181461 1.72459e-05 0)
(0.0179177 1.66003e-05 0)
(0.0176968 1.59889e-05 0)
(0.0174831 1.54095e-05 0)
(0.017276 1.48601e-05 0)
(0.0170753 1.43387e-05 0)
(0.0168807 1.38436e-05 0)
(0.0166919 1.33731e-05 0)
(0.0165085 1.29257e-05 0)
(0.0163304 1.25e-05 0)
(0.0161573 1.20946e-05 0)
(0.0159889 1.17084e-05 0)
(0.0158251 1.13402e-05 0)
(0.0156656 1.0989e-05 0)
(0.0155103 1.06538e-05 0)
(0.0153589 1.03337e-05 0)
(0.0152114 1.00277e-05 0)
(0.0150674 9.73525e-06 0)
(0.014927 9.4555e-06 0)
(0.0147899 9.18777e-06 0)
(0.014656 8.93141e-06 0)
(0.0145252 8.68593e-06 0)
(0.0143973 8.45071e-06 0)
(0.0142723 8.22524e-06 0)
(0.01415 8.00915e-06 0)
(0.0140303 7.80194e-06 0)
(0.0139132 7.60327e-06 0)
(0.0137985 7.41277e-06 0)
(0.0136862 7.23013e-06 0)
(0.0135761 7.05506e-06 0)
(0.0134682 6.88734e-06 0)
(0.0133623 6.72672e-06 0)
(0.0132585 6.57302e-06 0)
(0.0131566 6.42609e-06 0)
(0.0130566 6.28583e-06 0)
(0.0129583 6.15212e-06 0)
(0.0128618 6.02491e-06 0)
(0.0127668 5.90423e-06 0)
(0.0126735 5.7901e-06 0)
(0.0125816 5.68264e-06 0)
(0.0124911 5.58201e-06 0)
(0.012402 5.48852e-06 0)
(0.0123141 5.40268e-06 0)
(0.0122273 5.32526e-06 0)
(0.0121416 5.25766e-06 0)
(0.0120568 5.20253e-06 0)
(0.0119727 5.16514e-06 0)
(0.0118892 5.15769e-06 0)
(0.0118056 5.21633e-06 0)
(0.0117203 5.36408e-06 0)
(0.0116476 4.93539e-06 0)
(0.011413 3.25742e-05 0)
(0.189507 0.00946387 0)
(0.187168 0.00996759 0)
(0.183227 0.0097447 0)
(0.178041 0.00924749 0)
(0.172109 0.00861284 0)
(0.165778 0.00788747 0)
(0.159269 0.00711001 0)
(0.152751 0.006316 0)
(0.146358 0.00553535 0)
(0.140189 0.00479262 0)
(0.134313 0.00410702 0)
(0.12877 0.00349176 0)
(0.123579 0.00295377 0)
(0.118742 0.00249418 0)
(0.114253 0.00210939 0)
(0.110096 0.00179251 0)
(0.106249 0.00153473 0)
(0.102692 0.00132659 0)
(0.0993994 0.00115895 0)
(0.0963482 0.00102357 0)
(0.0935159 0.000913435 0)
(0.0908817 0.00082285 0)
(0.0884262 0.000747318 0)
(0.0861322 0.000683405 0)
(0.0839841 0.000628534 0)
(0.0819681 0.000580796 0)
(0.0800718 0.000538784 0)
(0.0782845 0.000501457 0)
(0.0765965 0.000468039 0)
(0.0749992 0.000437936 0)
(0.073485 0.000410686 0)
(0.0720473 0.000385918 0)
(0.0706799 0.000363331 0)
(0.0693775 0.00034267 0)
(0.0681352 0.000323719 0)
(0.0669487 0.000306293 0)
(0.0658141 0.000290229 0)
(0.0647277 0.000275387 0)
(0.0636865 0.000261643 0)
(0.0626873 0.00024889 0)
(0.0617277 0.000237031 0)
(0.060805 0.000225983 0)
(0.0599172 0.000215673 0)
(0.0590621 0.000206033 0)
(0.0582378 0.000197006 0)
(0.0574426 0.000188541 0)
(0.056675 0.000180591 0)
(0.0559333 0.000173116 0)
(0.0552163 0.000166077 0)
(0.0545226 0.000159443 0)
(0.0538511 0.000153182 0)
(0.0532006 0.000147268 0)
(0.0525701 0.000141675 0)
(0.0519586 0.000136382 0)
(0.0513652 0.000131368 0)
(0.0507891 0.000126613 0)
(0.0502295 0.000122101 0)
(0.0496856 0.000117815 0)
(0.0491566 0.000113742 0)
(0.0486421 0.000109866 0)
(0.0481412 0.000106177 0)
(0.0476535 0.000102663 0)
(0.0471784 9.93126e-05 0)
(0.0467153 9.61162e-05 0)
(0.0462638 9.30648e-05 0)
(0.0458234 9.01498e-05 0)
(0.0453937 8.73634e-05 0)
(0.0449741 8.46984e-05 0)
(0.0445645 8.21478e-05 0)
(0.0441642 7.97056e-05 0)
(0.0437731 7.73658e-05 0)
(0.0433908 7.51229e-05 0)
(0.0430169 7.2972e-05 0)
(0.0426512 7.09085e-05 0)
(0.0422933 6.89281e-05 0)
(0.041943 6.70267e-05 0)
(0.0416001 6.52008e-05 0)
(0.0412641 6.34471e-05 0)
(0.040935 6.17625e-05 0)
(0.0406125 6.01442e-05 0)
(0.0402963 5.85898e-05 0)
(0.0399863 5.70971e-05 0)
(0.0396822 5.56643e-05 0)
(0.0393837 5.42896e-05 0)
(0.0390908 5.29717e-05 0)
(0.0388032 5.17097e-05 0)
(0.0385207 5.0503e-05 0)
(0.0382431 4.93512e-05 0)
(0.0379702 4.82546e-05 0)
(0.0377018 4.72143e-05 0)
(0.0374377 4.62324e-05 0)
(0.0371776 4.53127e-05 0)
(0.0369212 4.44623e-05 0)
(0.0366684 4.36954e-05 0)
(0.0364186 4.30417e-05 0)
(0.0361713 4.25725e-05 0)
(0.0359254 4.24797e-05 0)
(0.0356776 4.32311e-05 0)
(0.0354449 4.84228e-05 0)
(0.0349701 0.00011381 0)
(0.192495 0.00909481 0)
(0.193255 0.0100458 0)
(0.193375 0.0103824 0)
(0.192704 0.0103917 0)
(0.191354 0.0101714 0)
(0.189442 0.00975954 0)
(0.187056 0.00920124 0)
(0.184285 0.00854651 0)
(0.181219 0.00784116 0)
(0.177946 0.00712404 0)
(0.174543 0.00642639 0)
(0.171074 0.0057711 0)
(0.167589 0.0051727 0)
(0.164128 0.00463812 0)
(0.16072 0.00416823 0)
(0.157385 0.00375957 0)
(0.154137 0.00340615 0)
(0.150982 0.00310081 0)
(0.147926 0.00283633 0)
(0.14497 0.00260604 0)
(0.142112 0.00240415 0)
(0.139352 0.00222582 0)
(0.136688 0.00206715 0)
(0.134117 0.00192501 0)
(0.131636 0.00179691 0)
(0.129242 0.0016809 0)
(0.126933 0.0015754 0)
(0.124705 0.00147912 0)
(0.122555 0.001391 0)
(0.120481 0.00131016 0)
(0.118479 0.00123583 0)
(0.116547 0.00116735 0)
(0.114681 0.00110416 0)
(0.11288 0.00104573 0)
(0.111139 0.000991623 0)
(0.109458 0.00094143 0)
(0.107833 0.000894792 0)
(0.106261 0.000851389 0)
(0.104741 0.000810934 0)
(0.103271 0.000773169 0)
(0.101847 0.000737863 0)
(0.100468 0.000704811 0)
(0.0991325 0.000673824 0)
(0.097838 0.000644737 0)
(0.0965828 0.000617399 0)
(0.0953654 0.000591673 0)
(0.094184 0.000567438 0)
(0.0930372 0.000544582 0)
(0.0919234 0.000523003 0)
(0.0908414 0.00050261 0)
(0.0897897 0.00048332 0)
(0.0887671 0.000465055 0)
(0.0877725 0.000447747 0)
(0.0868046 0.000431331 0)
(0.0858625 0.000415749 0)
(0.0849451 0.000400945 0)
(0.0840514 0.000386872 0)
(0.0831805 0.000373481 0)
(0.0823315 0.000360732 0)
(0.0815036 0.000348584 0)
(0.080696 0.000337002 0)
(0.0799079 0.000325951 0)
(0.0791386 0.0003154 0)
(0.0783875 0.00030532 0)
(0.0776537 0.000295684 0)
(0.0769369 0.000286467 0)
(0.0762362 0.000277645 0)
(0.0755513 0.000269196 0)
(0.0748815 0.0002611 0)
(0.0742263 0.000253338 0)
(0.0735852 0.000245892 0)
(0.0729578 0.000238745 0)
(0.0723436 0.000231883 0)
(0.0717422 0.00022529 0)
(0.0711531 0.000218955 0)
(0.070576 0.000212863 0)
(0.0700105 0.000207005 0)
(0.0694563 0.000201369 0)
(0.068913 0.000195946 0)
(0.0683802 0.000190728 0)
(0.0678576 0.000185705 0)
(0.067345 0.00018087 0)
(0.066842 0.000176219 0)
(0.0663483 0.000171743 0)
(0.0658637 0.00016744 0)
(0.0653878 0.000163305 0)
(0.0649203 0.000159336 0)
(0.064461 0.000155529 0)
(0.0640096 0.000151886 0)
(0.0635659 0.000148407 0)
(0.0631294 0.000145097 0)
(0.0626998 0.000141964 0)
(0.0622769 0.000139025 0)
(0.0618602 0.000136313 0)
(0.0614492 0.0001339 0)
(0.0610431 0.000131958 0)
(0.0606406 0.000130952 0)
(0.0602382 0.000132359 0)
(0.0598465 0.000147083 0)
(0.0592274 0.000229334 0)
(0.193535 0.00845349 0)
(0.194654 0.00949763 0)
(0.195674 0.0100552 0)
(0.196383 0.0103013 0)
(0.196755 0.010316 0)
(0.196796 0.0101311 0)
(0.1965 0.0097821 0)
(0.195874 0.00931177 0)
(0.194941 0.00876198 0)
(0.193737 0.00817018 0)
(0.192304 0.00756823 0)
(0.190684 0.00698135 0)
(0.188918 0.0064275 0)
(0.187041 0.00591765 0)
(0.185085 0.00545679 0)
(0.183076 0.0050453 0)
(0.181032 0.00468046 0)
(0.17897 0.00435776 0)
(0.1769 0.00407195 0)
(0.174831 0.00381772 0)
(0.172768 0.00359018 0)
(0.170718 0.00338507 0)
(0.168682 0.00319882 0)
(0.166664 0.00302852 0)
(0.164667 0.00287183 0)
(0.162692 0.00272691 0)
(0.160741 0.00259229 0)
(0.158815 0.00246681 0)
(0.156917 0.00234952 0)
(0.155046 0.00223965 0)
(0.153204 0.00213656 0)
(0.151392 0.00203969 0)
(0.14961 0.00194855 0)
(0.14786 0.00186271 0)
(0.14614 0.0017818 0)
(0.144452 0.00170546 0)
(0.142795 0.00163337 0)
(0.141171 0.00156526 0)
(0.139577 0.00150085 0)
(0.138015 0.00143989 0)
(0.136484 0.00138217 0)
(0.134984 0.00132748 0)
(0.133514 0.00127561 0)
(0.132075 0.00122641 0)
(0.130665 0.00117969 0)
(0.129284 0.00113531 0)
(0.127931 0.00109313 0)
(0.126607 0.00105301 0)
(0.12531 0.00101483 0)
(0.12404 0.000978481 0)
(0.122797 0.000943854 0)
(0.121579 0.00091085 0)
(0.120387 0.000879377 0)
(0.119219 0.000849347 0)
(0.118075 0.000820681 0)
(0.116954 0.000793302 0)
(0.115857 0.00076714 0)
(0.114782 0.000742127 0)
(0.113728 0.000718203 0)
(0.112696 0.000695307 0)
(0.111684 0.000673386 0)
(0.110692 0.000652387 0)
(0.10972 0.000632262 0)
(0.108767 0.000612966 0)
(0.107832 0.000594455 0)
(0.106916 0.000576689 0)
(0.106017 0.00055963 0)
(0.105135 0.000543242 0)
(0.10427 0.000527492 0)
(0.103422 0.000512349 0)
(0.102589 0.000497781 0)
(0.101771 0.000483763 0)
(0.100969 0.000470266 0)
(0.100181 0.000457268 0)
(0.0994077 0.000444744 0)
(0.0986482 0.000432674 0)
(0.0979023 0.000421037 0)
(0.0971697 0.000409815 0)
(0.09645 0.000398991 0)
(0.0957429 0.000388548 0)
(0.0950482 0.000378473 0)
(0.0943654 0.000368751 0)
(0.0936943 0.000359372 0)
(0.0930347 0.000350324 0)
(0.0923862 0.000341599 0)
(0.0917485 0.00033319 0)
(0.0911214 0.000325089 0)
(0.0905045 0.000317295 0)
(0.0898976 0.000309804 0)
(0.0893004 0.000302619 0)
(0.0887126 0.000295747 0)
(0.0881338 0.000289199 0)
(0.0875636 0.000283005 0)
(0.0870017 0.000277218 0)
(0.0864475 0.000271956 0)
(0.0859001 0.000267504 0)
(0.0853583 0.000264636 0)
(0.0848193 0.000265985 0)
(0.0842904 0.000285741 0)
(0.0835687 0.000365543 0)
(0.194272 0.00794899 0)
(0.195252 0.0089272 0)
(0.196304 0.00952037 0)
(0.197264 0.00983846 0)
(0.198086 0.00995145 0)
(0.198752 0.00988886 0)
(0.199237 0.00967663 0)
(0.199517 0.00934673 0)
(0.199585 0.00893255 0)
(0.199444 0.00846546 0)
(0.199109 0.00797337 0)
(0.198598 0.00747964 0)
(0.197935 0.00700215 0)
(0.197143 0.00655305 0)
(0.196245 0.00613925 0)
(0.19526 0.00576337 0)
(0.194205 0.00542487 0)
(0.193094 0.00512122 0)
(0.191937 0.00484875 0)
(0.190742 0.00460346 0)
(0.189516 0.00438143 0)
(0.188264 0.00417909 0)
(0.186989 0.0039934 0)
(0.185695 0.00382181 0)
(0.184384 0.00366227 0)
(0.18306 0.00351314 0)
(0.181724 0.00337311 0)
(0.180379 0.00324116 0)
(0.179026 0.00311644 0)
(0.177668 0.00299828 0)
(0.176306 0.00288612 0)
(0.174942 0.00277951 0)
(0.173577 0.00267802 0)
(0.172213 0.0025813 0)
(0.170852 0.00248905 0)
(0.169495 0.00240098 0)
(0.168142 0.00231685 0)
(0.166796 0.00223642 0)
(0.165456 0.00215947 0)
(0.164125 0.00208583 0)
(0.162802 0.00201531 0)
(0.16149 0.00194774 0)
(0.160187 0.00188298 0)
(0.158896 0.00182089 0)
(0.157616 0.00176133 0)
(0.156348 0.00170419 0)
(0.155093 0.00164934 0)
(0.153851 0.00159668 0)
(0.152622 0.00154611 0)
(0.151406 0.00149753 0)
(0.150204 0.00145085 0)
(0.149016 0.00140599 0)
(0.147843 0.00136286 0)
(0.146683 0.00132139 0)
(0.145538 0.00128151 0)
(0.144408 0.00124314 0)
(0.143291 0.00120621 0)
(0.14219 0.00117067 0)
(0.141102 0.00113646 0)
(0.140029 0.00110351 0)
(0.138971 0.00107177 0)
(0.137926 0.00104119 0)
(0.136896 0.00101172 0)
(0.13588 0.000983301 0)
(0.134878 0.0009559 0)
(0.133889 0.000929469 0)
(0.132915 0.000903965 0)
(0.131954 0.00087935 0)
(0.131006 0.000855585 0)
(0.130072 0.000832633 0)
(0.12915 0.000810461 0)
(0.128242 0.000789036 0)
(0.127347 0.000768326 0)
(0.126464 0.000748303 0)
(0.125593 0.000728938 0)
(0.124735 0.000710206 0)
(0.123889 0.000692081 0)
(0.123055 0.000674541 0)
(0.122233 0.000657564 0)
(0.121423 0.000641129 0)
(0.120624 0.000625219 0)
(0.119836 0.000609817 0)
(0.119059 0.000594908 0)
(0.118294 0.000580478 0)
(0.117539 0.000566515 0)
(0.116795 0.000553011 0)
(0.116061 0.000539957 0)
(0.115337 0.00052735 0)
(0.114623 0.000515188 0)
(0.113919 0.000503475 0)
(0.113225 0.000492219 0)
(0.11254 0.00048144 0)
(0.111864 0.000471178 0)
(0.111197 0.000461509 0)
(0.110538 0.000452597 0)
(0.109886 0.00044483 0)
(0.109241 0.000439257 0)
(0.1086 0.000439285 0)
(0.107974 0.00045843 0)
(0.107185 0.000522046 0)
(0.194903 0.00751581 0)
(0.195708 0.00838963 0)
(0.196629 0.00896771 0)
(0.197541 0.00930992 0)
(0.198398 0.00946978 0)
(0.199179 0.00947416 0)
(0.199862 0.00934421 0)
(0.200424 0.00910541 0)
(0.200849 0.00878535 0)
(0.201133 0.00841063 0)
(0.201277 0.00800534 0)
(0.20129 0.00759013 0)
(0.201184 0.0071814 0)
(0.200972 0.00679096 0)
(0.200668 0.0064262 0)
(0.200288 0.00609078 0)
(0.199842 0.00578547 0)
(0.19934 0.00550905 0)
(0.198792 0.00525909 0)
(0.198203 0.00503261 0)
(0.197578 0.00482652 0)
(0.19692 0.00463787 0)
(0.196234 0.00446406 0)
(0.195519 0.00430287 0)
(0.19478 0.00415243 0)
(0.194017 0.00401125 0)
(0.193231 0.00387811 0)
(0.192424 0.00375204 0)
(0.191597 0.00363226 0)
(0.190752 0.00351813 0)
(0.18989 0.00340914 0)
(0.189011 0.00330486 0)
(0.188118 0.00320492 0)
(0.187211 0.003109 0)
(0.186292 0.00301685 0)
(0.185361 0.00292821 0)
(0.18442 0.00284289 0)
(0.183469 0.00276069 0)
(0.182511 0.00268145 0)
(0.181545 0.002605 0)
(0.180573 0.00253122 0)
(0.179596 0.00245997 0)
(0.178614 0.00239114 0)
(0.177629 0.00232463 0)
(0.17664 0.00226032 0)
(0.17565 0.00219814 0)
(0.174658 0.00213799 0)
(0.173665 0.0020798 0)
(0.172673 0.00202348 0)
(0.171681 0.00196898 0)
(0.17069 0.00191622 0)
(0.169701 0.00186513 0)
(0.168714 0.00181567 0)
(0.167729 0.00176776 0)
(0.166748 0.00172136 0)
(0.16577 0.00167641 0)
(0.164796 0.00163286 0)
(0.163827 0.00159067 0)
(0.162862 0.00154977 0)
(0.161903 0.00151014 0)
(0.160948 0.00147172 0)
(0.159999 0.00143447 0)
(0.159056 0.00139835 0)
(0.158119 0.00136332 0)
(0.157188 0.00132935 0)
(0.156264 0.00129639 0)
(0.155346 0.00126441 0)
(0.154435 0.00123337 0)
(0.153531 0.00120325 0)
(0.152634 0.00117401 0)
(0.151744 0.00114561 0)
(0.150862 0.00111804 0)
(0.149987 0.00109126 0)
(0.14912 0.00106524 0)
(0.14826 0.00103996 0)
(0.147408 0.0010154 0)
(0.146563 0.000991521 0)
(0.145727 0.000968316 0)
(0.144898 0.000945759 0)
(0.144077 0.000923832 0)
(0.143264 0.000902517 0)
(0.142458 0.000881799 0)
(0.141661 0.000861662 0)
(0.140872 0.000842095 0)
(0.14009 0.000823087 0)
(0.139316 0.000804631 0)
(0.138551 0.00078672 0)
(0.137793 0.000769354 0)
(0.137042 0.000752533 0)
(0.1363 0.000736264 0)
(0.135565 0.000720563 0)
(0.134837 0.000705458 0)
(0.134117 0.000691001 0)
(0.133404 0.000677289 0)
(0.132698 0.000664525 0)
(0.131998 0.000653175 0)
(0.131304 0.000644429 0)
(0.130615 0.000641754 0)
(0.129944 0.000655467 0)
(0.129134 0.00069475 0)
(0.195457 0.00714609 0)
(0.196122 0.00791651 0)
(0.196904 0.00846289 0)
(0.197713 0.00880995 0)
(0.198503 0.0089938 0)
(0.19925 0.00903768 0)
(0.199935 0.00896017 0)
(0.200539 0.00878261 0)
(0.20105 0.00852844 0)
(0.201461 0.00822061 0)
(0.201771 0.00788009 0)
(0.201984 0.0075251 0)
(0.202107 0.00717045 0)
(0.20215 0.0068272 0)
(0.202123 0.00650277 0)
(0.202036 0.00620134 0)
(0.201898 0.00592452 0)
(0.201717 0.00567204 0)
(0.2015 0.00544242 0)
(0.201251 0.00523349 0)
(0.200974 0.00504284 0)
(0.200671 0.00486804 0)
(0.200345 0.00470687 0)
(0.199997 0.00455735 0)
(0.199629 0.0044178 0)
(0.199239 0.00428683 0)
(0.198831 0.00416329 0)
(0.198403 0.00404624 0)
(0.197956 0.00393492 0)
(0.197492 0.00382871 0)
(0.19701 0.00372709 0)
(0.196511 0.00362965 0)
(0.195995 0.00353603 0)
(0.195464 0.00344591 0)
(0.194917 0.00335905 0)
(0.194355 0.00327521 0)
(0.193778 0.0031942 0)
(0.193189 0.00311584 0)
(0.192585 0.00303998 0)
(0.19197 0.00296648 0)
(0.191342 0.00289521 0)
(0.190703 0.00282607 0)
(0.190053 0.00275895 0)
(0.189393 0.00269376 0)
(0.188723 0.00263042 0)
(0.188044 0.00256886 0)
(0.187356 0.002509 0)
(0.186661 0.00245078 0)
(0.185957 0.00239414 0)
(0.185247 0.00233902 0)
(0.18453 0.00228538 0)
(0.183807 0.00223316 0)
(0.183078 0.00218232 0)
(0.182344 0.00213282 0)
(0.181605 0.00208461 0)
(0.180863 0.00203765 0)
(0.180116 0.00199191 0)
(0.179366 0.00194735 0)
(0.178613 0.00190392 0)
(0.177858 0.00186161 0)
(0.1771 0.00182038 0)
(0.17634 0.00178019 0)
(0.175579 0.00174101 0)
(0.174817 0.00170282 0)
(0.174054 0.00166558 0)
(0.17329 0.00162926 0)
(0.172526 0.00159385 0)
(0.171762 0.00155931 0)
(0.170999 0.00152561 0)
(0.170236 0.00149274 0)
(0.169474 0.00146066 0)
(0.168714 0.00142935 0)
(0.167954 0.0013988 0)
(0.167197 0.00136898 0)
(0.166441 0.00133987 0)
(0.165687 0.00131145 0)
(0.164936 0.0012837 0)
(0.164187 0.00125661 0)
(0.16344 0.00123016 0)
(0.162697 0.00120433 0)
(0.161956 0.00117912 0)
(0.161219 0.0011545 0)
(0.160485 0.00113048 0)
(0.159755 0.00110703 0)
(0.159028 0.00108416 0)
(0.158305 0.00106187 0)
(0.157585 0.00104014 0)
(0.15687 0.00101899 0)
(0.156158 0.000998417 0)
(0.155451 0.000978441 0)
(0.154748 0.000959083 0)
(0.154048 0.00094038 0)
(0.153353 0.000922397 0)
(0.152662 0.000905248 0)
(0.151975 0.000889162 0)
(0.151291 0.000874626 0)
(0.150612 0.00086279 0)
(0.149938 0.000856498 0)
(0.149282 0.000861755 0)
(0.148506 0.000874137 0)
(0.195948 0.00682801 0)
(0.196504 0.00750369 0)
(0.197168 0.00800956 0)
(0.197874 0.00834974 0)
(0.19858 0.00854586 0)
(0.19926 0.00861645 0)
(0.199896 0.00857753 0)
(0.200473 0.00844691 0)
(0.200978 0.00824433 0)
(0.201407 0.0079895 0)
(0.201756 0.00770073 0)
(0.20203 0.00739415 0)
(0.202232 0.00708314 0)
(0.202371 0.00677805 0)
(0.202454 0.00648618 0)
(0.20249 0.00621204 0)
(0.202486 0.00595787 0)
(0.20245 0.00572417 0)
(0.202386 0.00551023 0)
(0.202299 0.00531461 0)
(0.202192 0.00513548 0)
(0.202068 0.00497093 0)
(0.201928 0.00481908 0)
(0.201774 0.00467823 0)
(0.201606 0.0045469 0)
(0.201425 0.0044238 0)
(0.201231 0.00430785 0)
(0.201024 0.00419817 0)
(0.200804 0.00409401 0)
(0.200572 0.00399475 0)
(0.200327 0.00389989 0)
(0.20007 0.00380899 0)
(0.1998 0.00372169 0)
(0.199519 0.00363769 0)
(0.199225 0.00355671 0)
(0.198919 0.00347853 0)
(0.198601 0.00340293 0)
(0.198272 0.00332975 0)
(0.19793 0.00325882 0)
(0.197578 0.00319001 0)
(0.197214 0.00312319 0)
(0.196839 0.00305825 0)
(0.196454 0.00299509 0)
(0.196058 0.00293362 0)
(0.195651 0.00287375 0)
(0.195235 0.00281542 0)
(0.194808 0.00275857 0)
(0.194372 0.00270312 0)
(0.193926 0.00264902 0)
(0.193472 0.00259623 0)
(0.193008 0.00254468 0)
(0.192536 0.00249435 0)
(0.192055 0.00244519 0)
(0.191566 0.00239716 0)
(0.19107 0.00235023 0)
(0.190566 0.00230435 0)
(0.190054 0.00225951 0)
(0.189536 0.00221566 0)
(0.189011 0.00217277 0)
(0.188479 0.00213083 0)
(0.187941 0.0020898 0)
(0.187398 0.00204966 0)
(0.186848 0.00201037 0)
(0.186294 0.00197192 0)
(0.185734 0.00193429 0)
(0.185169 0.00189744 0)
(0.1846 0.00186137 0)
(0.184026 0.00182604 0)
(0.183448 0.00179143 0)
(0.182866 0.00175754 0)
(0.182281 0.00172433 0)
(0.181692 0.00169179 0)
(0.181101 0.00165991 0)
(0.180506 0.00162866 0)
(0.179909 0.00159803 0)
(0.179309 0.00156801 0)
(0.178707 0.00153857 0)
(0.178103 0.00150972 0)
(0.177498 0.00148144 0)
(0.176891 0.00145371 0)
(0.176282 0.00142654 0)
(0.175673 0.0013999 0)
(0.175062 0.0013738 0)
(0.174451 0.00134823 0)
(0.17384 0.0013232 0)
(0.173228 0.0012987 0)
(0.172615 0.00127473 0)
(0.172003 0.00125132 0)
(0.171391 0.00122846 0)
(0.170778 0.00120618 0)
(0.170167 0.00118451 0)
(0.169555 0.0011635 0)
(0.168944 0.00114322 0)
(0.168334 0.0011238 0)
(0.167724 0.00110546 0)
(0.167115 0.00108866 0)
(0.166508 0.00107432 0)
(0.165904 0.00106425 0)
(0.165317 0.0010602 0)
(0.164624 0.00104826 0)
(0.196383 0.00654878 0)
(0.196856 0.00714034 0)
(0.197422 0.0076024 0)
(0.198035 0.00792872 0)
(0.19866 0.00813017 0)
(0.199271 0.00822017 0)
(0.19985 0.00821182 0)
(0.200383 0.00811976 0)
(0.200859 0.00796037 0)
(0.201272 0.00775043 0)
(0.20162 0.00750582 0)
(0.201904 0.00724079 0)
(0.202128 0.00696739 0)
(0.202299 0.00669525 0)
(0.202422 0.00643143 0)
(0.202506 0.00618066 0)
(0.202556 0.00594563 0)
(0.202578 0.00572746 0)
(0.202579 0.0055261 0)
(0.202561 0.00534075 0)
(0.202528 0.00517015 0)
(0.202482 0.00501283 0)
(0.202426 0.0048673 0)
(0.202361 0.00473215 0)
(0.202287 0.00460608 0)
(0.202205 0.00448797 0)
(0.202116 0.00437682 0)
(0.202019 0.00427182 0)
(0.201914 0.00417226 0)
(0.201803 0.00407754 0)
(0.201684 0.00398717 0)
(0.201558 0.00390072 0)
(0.201424 0.00381784 0)
(0.201283 0.0037382 0)
(0.201135 0.00366154 0)
(0.200979 0.00358762 0)
(0.200816 0.00351624 0)
(0.200645 0.0034472 0)
(0.200466 0.00338036 0)
(0.200279 0.00331556 0)
(0.200085 0.00325267 0)
(0.199883 0.00319158 0)
(0.199674 0.00313219 0)
(0.199456 0.0030744 0)
(0.199231 0.00301812 0)
(0.198997 0.00296328 0)
(0.198756 0.00290981 0)
(0.198508 0.00285764 0)
(0.198251 0.00280672 0)
(0.197987 0.00275699 0)
(0.197715 0.00270841 0)
(0.197435 0.00266092 0)
(0.197148 0.00261449 0)
(0.196853 0.00256907 0)
(0.196551 0.00252463 0)
(0.196242 0.00248113 0)
(0.195925 0.00243854 0)
(0.195601 0.00239683 0)
(0.19527 0.00235597 0)
(0.194932 0.00231594 0)
(0.194587 0.00227669 0)
(0.194235 0.00223822 0)
(0.193877 0.00220049 0)
(0.193512 0.00216349 0)
(0.193141 0.00212718 0)
(0.192763 0.00209155 0)
(0.19238 0.00205658 0)
(0.19199 0.00202224 0)
(0.191595 0.00198853 0)
(0.191194 0.00195541 0)
(0.190787 0.00192288 0)
(0.190375 0.00189092 0)
(0.189957 0.00185951 0)
(0.189535 0.00182863 0)
(0.189107 0.00179828 0)
(0.188675 0.00176844 0)
(0.188238 0.0017391 0)
(0.187797 0.00171025 0)
(0.187351 0.00168188 0)
(0.186901 0.00165399 0)
(0.186447 0.00162656 0)
(0.18599 0.0015996 0)
(0.185528 0.0015731 0)
(0.185063 0.00154705 0)
(0.184595 0.00152147 0)
(0.184123 0.00149636 0)
(0.183648 0.00147173 0)
(0.183171 0.00144758 0)
(0.18269 0.00142395 0)
(0.182207 0.00140084 0)
(0.181721 0.00137831 0)
(0.181233 0.0013564 0)
(0.180742 0.00133519 0)
(0.180249 0.00131481 0)
(0.179754 0.00129546 0)
(0.179257 0.0012775 0)
(0.178759 0.00126153 0)
(0.178263 0.00124819 0)
(0.17778 0.0012359 0)
(0.177203 0.00120595 0)
(0.196771 0.00629959 0)
(0.197178 0.0068181 0)
(0.197663 0.00723679 0)
(0.198196 0.00754515 0)
(0.198747 0.00774683 0)
(0.199293 0.00785055 0)
(0.199816 0.00786652 0)
(0.200303 0.00780656 0)
(0.200744 0.0076841 0)
(0.201133 0.00751322 0)
(0.201467 0.00730758 0)
(0.201747 0.00707965 0)
(0.201974 0.00684021 0)
(0.202154 0.0065981 0)
(0.202293 0.00636005 0)
(0.202395 0.00613084 0)
(0.202468 0.00591349 0)
(0.202515 0.00570957 0)
(0.202542 0.0055196 0)
(0.202553 0.00534329 0)
(0.202551 0.00517991 0)
(0.202539 0.00502842 0)
(0.202518 0.00488769 0)
(0.20249 0.00475659 0)
(0.202455 0.00463403 0)
(0.202416 0.00451906 0)
(0.202372 0.0044108 0)
(0.202323 0.00430851 0)
(0.20227 0.00421156 0)
(0.202213 0.00411938 0)
(0.202153 0.0040315 0)
(0.202088 0.00394753 0)
(0.20202 0.00386711 0)
(0.201948 0.00378993 0)
(0.201872 0.00371574 0)
(0.201792 0.0036443 0)
(0.201708 0.0035754 0)
(0.201621 0.00350887 0)
(0.201529 0.00344454 0)
(0.201432 0.00338227 0)
(0.201332 0.00332192 0)
(0.201227 0.00326337 0)
(0.201118 0.00320653 0)
(0.201004 0.00315129 0)
(0.200885 0.00309757 0)
(0.200762 0.00304528 0)
(0.200634 0.00299435 0)
(0.200501 0.00294471 0)
(0.200363 0.00289631 0)
(0.20022 0.00284909 0)
(0.200072 0.00280298 0)
(0.199919 0.00275795 0)
(0.19976 0.00271395 0)
(0.199596 0.00267093 0)
(0.199427 0.00262885 0)
(0.199252 0.00258769 0)
(0.199072 0.00254739 0)
(0.198887 0.00250793 0)
(0.198696 0.00246927 0)
(0.198499 0.00243139 0)
(0.198297 0.00239425 0)
(0.198089 0.00235783 0)
(0.197876 0.0023221 0)
(0.197657 0.00228704 0)
(0.197433 0.00225262 0)
(0.197203 0.00221882 0)
(0.196968 0.00218561 0)
(0.196727 0.00215299 0)
(0.19648 0.00212091 0)
(0.196228 0.00208938 0)
(0.195971 0.00205836 0)
(0.195708 0.00202785 0)
(0.19544 0.00199782 0)
(0.195167 0.00196826 0)
(0.194888 0.00193916 0)
(0.194604 0.0019105 0)
(0.194315 0.00188228 0)
(0.194021 0.00185448 0)
(0.193722 0.00182709 0)
(0.193418 0.00180011 0)
(0.193109 0.00177354 0)
(0.192795 0.00174736 0)
(0.192477 0.00172158 0)
(0.192154 0.00169619 0)
(0.191826 0.00167121 0)
(0.191494 0.00164664 0)
(0.191158 0.00162249 0)
(0.190817 0.00159877 0)
(0.190472 0.00157552 0)
(0.190122 0.00155274 0)
(0.189769 0.00153049 0)
(0.189411 0.00150882 0)
(0.189049 0.00148781 0)
(0.188684 0.00146756 0)
(0.188315 0.00144825 0)
(0.187942 0.00143012 0)
(0.187567 0.00141339 0)
(0.187192 0.00139772 0)
(0.186825 0.00137947 0)
(0.186378 0.00133943 0)
(0.197118 0.00607451 0)
(0.197471 0.00653024 0)
(0.19789 0.00690797 0)
(0.198353 0.00719621 0)
(0.198838 0.00739422 0)
(0.199324 0.00750698 0)
(0.199795 0.00754202 0)
(0.200239 0.00750867 0)
(0.200645 0.00741781 0)
(0.201008 0.00728112 0)
(0.201324 0.00711019 0)
(0.201594 0.0069158 0)
(0.201818 0.00670752 0)
(0.202 0.00649336 0)
(0.202145 0.00627965 0)
(0.202256 0.00607108 0)
(0.202339 0.00587085 0)
(0.202399 0.00568088 0)
(0.20244 0.0055021 0)
(0.202465 0.0053347 0)
(0.202477 0.00517835 0)
(0.20248 0.00503241 0)
(0.202474 0.0048961 0)
(0.202462 0.00476853 0)
(0.202445 0.00464886 0)
(0.202423 0.00453629 0)
(0.202397 0.00443007 0)
(0.202369 0.00432956 0)
(0.202337 0.00423419 0)
(0.202303 0.00414346 0)
(0.202267 0.00405693 0)
(0.202229 0.00397424 0)
(0.202188 0.00389504 0)
(0.202146 0.00381907 0)
(0.202102 0.00374606 0)
(0.202056 0.0036758 0)
(0.202009 0.00360809 0)
(0.201959 0.00354275 0)
(0.201908 0.00347963 0)
(0.201855 0.00341859 0)
(0.2018 0.00335949 0)
(0.201743 0.00330223 0)
(0.201683 0.0032467 0)
(0.201622 0.0031928 0)
(0.201559 0.00314044 0)
(0.201493 0.00308956 0)
(0.201425 0.00304006 0)
(0.201354 0.00299188 0)
(0.201281 0.00294497 0)
(0.201205 0.00289926 0)
(0.201127 0.0028547 0)
(0.201046 0.00281123 0)
(0.200962 0.00276881 0)
(0.200875 0.00272739 0)
(0.200784 0.00268694 0)
(0.200691 0.0026474 0)
(0.200594 0.00260875 0)
(0.200494 0.00257094 0)
(0.200391 0.00253395 0)
(0.200284 0.00249774 0)
(0.200174 0.00246227 0)
(0.20006 0.00242752 0)
(0.199942 0.00239346 0)
(0.199821 0.00236006 0)
(0.199695 0.0023273 0)
(0.199566 0.00229514 0)
(0.199433 0.00226357 0)
(0.199296 0.00223256 0)
(0.199154 0.0022021 0)
(0.199009 0.00217215 0)
(0.198859 0.0021427 0)
(0.198706 0.00211373 0)
(0.198548 0.00208522 0)
(0.198386 0.00205716 0)
(0.198219 0.00202953 0)
(0.198048 0.00200231 0)
(0.197873 0.0019755 0)
(0.197694 0.00194908 0)
(0.19751 0.00192305 0)
(0.197322 0.00189738 0)
(0.197129 0.00187209 0)
(0.196932 0.00184716 0)
(0.196731 0.0018226 0)
(0.196525 0.00179839 0)
(0.196315 0.00177456 0)
(0.1961 0.0017511 0)
(0.195881 0.00172802 0)
(0.195658 0.00170535 0)
(0.19543 0.00168311 0)
(0.195198 0.00166132 0)
(0.194962 0.00164002 0)
(0.194721 0.00161926 0)
(0.194476 0.00159913 0)
(0.194226 0.0015797 0)
(0.193973 0.0015611 0)
(0.193715 0.00154344 0)
(0.193455 0.00152663 0)
(0.193193 0.00150968 0)
(0.192935 0.00148815 0)
(0.19261 0.00144547 0)
(0.197429 0.00586936 0)
(0.197738 0.00627134 0)
(0.198101 0.00661146 0)
(0.198505 0.00687887 0)
(0.198932 0.00707046 0)
(0.199364 0.00718847 0)
(0.199786 0.00723813 0)
(0.200188 0.00722663 0)
(0.20056 0.00716264 0)
(0.200897 0.00705571 0)
(0.201195 0.00691557 0)
(0.201452 0.00675146 0)
(0.20167 0.00657177 0)
(0.201851 0.00638368 0)
(0.201997 0.00619305 0)
(0.202114 0.0060044 0)
(0.202204 0.00582098 0)
(0.202272 0.00564493 0)
(0.202321 0.0054775 0)
(0.202355 0.00531925 0)
(0.202376 0.0051702 0)
(0.202387 0.00503007 0)
(0.20239 0.00489835 0)
(0.202386 0.00477444 0)
(0.202377 0.00465767 0)
(0.202364 0.00454743 0)
(0.202347 0.00444309 0)
(0.202327 0.00434412 0)
(0.202305 0.00425001 0)
(0.202281 0.00416033 0)
(0.202254 0.0040747 0)
(0.202227 0.00399277 0)
(0.202198 0.00391425 0)
(0.202168 0.00383886 0)
(0.202137 0.00376639 0)
(0.202106 0.00369663 0)
(0.202073 0.00362938 0)
(0.20204 0.00356449 0)
(0.202006 0.00350181 0)
(0.201971 0.0034412 0)
(0.201935 0.00338255 0)
(0.201899 0.00332574 0)
(0.201863 0.00327067 0)
(0.201825 0.00321726 0)
(0.201787 0.00316542 0)
(0.201748 0.00311507 0)
(0.201708 0.00306613 0)
(0.201667 0.00301856 0)
(0.201625 0.00297227 0)
(0.201582 0.00292722 0)
(0.201539 0.00288334 0)
(0.201494 0.0028406 0)
(0.201447 0.00279894 0)
(0.2014 0.00275831 0)
(0.201351 0.00271868 0)
(0.201301 0.00268 0)
(0.201249 0.00264223 0)
(0.201196 0.00260534 0)
(0.201141 0.0025693 0)
(0.201084 0.00253406 0)
(0.201025 0.00249959 0)
(0.200965 0.00246587 0)
(0.200902 0.00243285 0)
(0.200838 0.00240053 0)
(0.200771 0.00236886 0)
(0.200702 0.00233781 0)
(0.200631 0.00230738 0)
(0.200557 0.00227752 0)
(0.200481 0.00224821 0)
(0.200403 0.00221944 0)
(0.200322 0.00219117 0)
(0.200238 0.0021634 0)
(0.200151 0.0021361 0)
(0.200062 0.00210925 0)
(0.19997 0.00208283 0)
(0.199874 0.00205684 0)
(0.199776 0.00203125 0)
(0.199675 0.00200605 0)
(0.199571 0.00198124 0)
(0.199463 0.00195679 0)
(0.199352 0.00193272 0)
(0.199238 0.001909 0)
(0.199121 0.00188565 0)
(0.199 0.00186265 0)
(0.198875 0.00184001 0)
(0.198748 0.00181775 0)
(0.198616 0.00179586 0)
(0.198481 0.00177437 0)
(0.198343 0.00175329 0)
(0.1982 0.00173267 0)
(0.198054 0.00171252 0)
(0.197904 0.00169291 0)
(0.197751 0.00167389 0)
(0.197593 0.00165554 0)
(0.197432 0.00163792 0)
(0.197267 0.00162103 0)
(0.1971 0.00160456 0)
(0.19693 0.00158723 0)
(0.196761 0.00156482 0)
(0.196538 0.001525 0)