/*--------------------------------*- C++ -*----------------------------------*\
| =========                 |                                                 |
| \\      /  F ield         | OpenFOAM: The Open Source CFD Toolbox           |
|  \\    /   O peration     | Version:  2.3.0                                 |
|   \\  /    A nd           | Web:      www.OpenFOAM.org                      |
|    \\/     M anipulation  |                                                 |
\*---------------------------------------------------------------------------*/
FoamFile
{
    version     2.0;
    format      ascii;
    class       volScalarField;
    location    "0.35";
    object      p;
}
// * * * * * * * * * * * * * * * * * * * * * * * * * * * * * * * * * * * * * //

dimensions      [0 2 -2 0 0 0 0];

internalField   nonuniform List<scalar> 
3375
(
0.00250969
0.00217745
0.00156979
0.00100651
0.000542687
0.000150705
-0.000180476
-0.000434662
-0.000593043
-0.000659873
-0.000660416
-0.000624925
-0.000576947
-0.00053056
-0.000492046
-0.000462571
-0.000440793
-0.000424673
-0.000412311
-0.000402159
-0.000393068
-0.000384365
-0.000375834
-0.00036751
-0.000359421
-0.00035151
-0.000343715
-0.000336049
-0.000328573
-0.000321319
-0.000314255
-0.000307336
-0.000300563
-0.000293992
-0.000287701
-0.000281728
-0.000276059
-0.000270638
-0.000265396
-0.000260275
-0.000255247
-0.000250318
-0.000245527
-0.000240922
-0.000236541
-0.000232394
-0.000228454
-0.000224667
-0.000220977
-0.000217343
-0.000213751
-0.000210204
-0.000206705
-0.00020325
-0.000199834
-0.00019645
-0.000193089
-0.000189736
-0.000186361
-0.000182924
-0.000179383
-0.000175701
-0.000171842
-0.000167785
-0.000163509
-0.000159
-0.000154239
-0.000149216
-0.000143915
-0.000138324
-0.000132429
-0.000126236
-0.000119756
-0.000113019
-0.000106057
-9.89592e-05
-9.18278e-05
-8.47548e-05
-7.78596e-05
-7.12288e-05
-6.49449e-05
-5.90658e-05
-5.36189e-05
-4.86197e-05
-4.40406e-05
-3.98511e-05
-3.6008e-05
-3.24677e-05
-2.91781e-05
-2.60986e-05
-2.31842e-05
-2.04077e-05
-1.77368e-05
-1.51621e-05
-1.26619e-05
-1.02405e-05
-7.87939e-06
-5.58087e-06
-3.32429e-06
-1.0949e-06
0.00207578
0.00189558
0.00146208
0.000973825
0.000537015
0.000166282
-0.000142561
-0.000379648
-0.000533677
-0.000606582
-0.00061707
-0.000591302
-0.000551563
-0.00051161
-0.000477832
-0.000451601
-0.000431926
-0.000417157
-0.000405705
-0.000396219
-0.000387651
-0.000379376
-0.000371214
-0.000363225
-0.000355451
-0.000347828
-0.000340289
-0.000332848
-0.000325578
-0.000318516
-0.000311629
-0.000304868
-0.000298232
-0.000291784
-0.000285608
-0.000279749
-0.000274191
-0.000268877
-0.000263736
-0.000258708
-0.000253763
-0.000248909
-0.000244187
-0.000239646
-0.00023533
-0.000231249
-0.000227374
-0.000223652
-0.000220022
-0.000216444
-0.000212905
-0.000209407
-0.000205956
-0.000202548
-0.000199176
-0.000195836
-0.000192518
-0.000189208
-0.000185875
-0.00018248
-0.00017898
-0.000175337
-0.000171516
-0.000167495
-0.000163254
-0.000158779
-0.000154051
-0.00014906
-0.00014379
-0.000138227
-0.000132358
-0.000126188
-0.00011973
-0.00011301
-0.000106073
-9.8989e-05
-9.18677e-05
-8.4796e-05
-7.7901e-05
-7.12672e-05
-6.49799e-05
-5.90971e-05
-5.36457e-05
-4.86441e-05
-4.40627e-05
-3.98715e-05
-3.60274e-05
-3.24865e-05
-2.91968e-05
-2.61172e-05
-2.32028e-05
-2.0426e-05
-1.77544e-05
-1.51786e-05
-1.26772e-05
-1.02541e-05
-7.89166e-06
-5.59136e-06
-3.3337e-06
-1.10318e-06
0.00177363
0.00166336
0.00135931
0.000952876
0.000553092
0.000207243
-7.60808e-05
-0.000294535
-0.000444884
-0.000528317
-0.000555963
-0.00054673
-0.000520022
-0.000489628
-0.00046221
-0.000439849
-0.000422394
-0.000408894
-0.000398223
-0.000389296
-0.000381199
-0.000373363
-0.000365625
-0.000358052
-0.000350685
-0.000343451
-0.000336269
-0.000329151
-0.000322167
-0.000315359
-0.000308696
-0.000302131
-0.000295666
-0.000289372
-0.000283337
-0.000277612
-0.000272182
-0.00026699
-0.000261961
-0.000257036
-0.000252181
-0.000247407
-0.000242754
-0.00023828
-0.00023403
-0.000230017
-0.000226213
-0.000222559
-0.000218993
-0.000215472
-0.000211983
-0.000208535
-0.000205131
-0.00020177
-0.000198444
-0.000195147
-0.000191872
-0.000188605
-0.000185316
-0.000181965
-0.000178507
-0.000174905
-0.000171122
-0.000167138
-0.000162932
-0.000158491
-0.000153797
-0.000148838
-0.000143601
-0.00013807
-0.00013223
-0.000126086
-0.000119651
-0.000112948
-0.000106022
-9.89534e-05
-9.18347e-05
-8.47678e-05
-7.78815e-05
-7.12509e-05
-6.49657e-05
-5.90848e-05
-5.36334e-05
-4.86352e-05
-4.40556e-05
-3.98665e-05
-3.60249e-05
-3.24868e-05
-2.91999e-05
-2.61228e-05
-2.32106e-05
-2.04355e-05
-1.7765e-05
-1.51899e-05
-1.26883e-05
-1.02653e-05
-7.90196e-06
-5.6024e-06
-3.34172e-06
-1.1117e-06
0.00156513
0.00147838
0.00125454
0.000924418
0.000571042
0.000253666
-7.03745e-06
-0.000208995
-0.000353608
-0.0004432
-0.000484844
-0.000491553
-0.000478642
-0.000458547
-0.000438365
-0.000420965
-0.000406908
-0.000395761
-0.000386745
-0.000379027
-0.000371894
-0.000364898
-0.000357914
-0.000351004
-0.000344212
-0.00033749
-0.000330782
-0.000324102
-0.000317515
-0.000311056
-0.000304694
-0.000298388
-0.000292148
-0.000286053
-0.000280201
-0.00027465
-0.000269389
-0.00026436
-0.000259484
-0.000254694
-0.000249958
-0.000245285
-0.000240724
-0.000236336
-0.000232172
-0.000228249
-0.000224535
-0.000220968
-0.000217481
-0.00021403
-0.000210605
-0.000207216
-0.000203872
-0.000200569
-0.000197299
-0.000194056
-0.000190835
-0.000187622
-0.000184387
-0.00018109
-0.000177684
-0.000174131
-0.000170397
-0.000166459
-0.000162299
-0.000157903
-0.000153253
-0.00014834
-0.000143147
-0.000137661
-0.000131864
-0.000125763
-0.000119368
-0.000112705
-0.000105813
-9.87771e-05
-9.16826e-05
-8.46538e-05
-7.77777e-05
-7.11637e-05
-6.48937e-05
-5.90258e-05
-5.35807e-05
-4.85955e-05
-4.40242e-05
-3.98414e-05
-3.60055e-05
-3.24725e-05
-2.91906e-05
-2.61181e-05
-2.32102e-05
-2.04389e-05
-1.77713e-05
-1.51991e-05
-1.26985e-05
-1.02785e-05
-7.91449e-06
-5.61892e-06
-3.35362e-06
-1.12593e-06
0.00140069
0.00132228
0.00114662
0.000880604
0.00057743
0.000292108
5.27134e-05
-0.000134831
-0.000272829
-0.000364744
-0.000415783
-0.000434983
-0.000433965
-0.000423326
-0.000410096
-0.000397715
-0.000387313
-0.00037886
-0.000371839
-0.000365637
-0.000359734
-0.000353802
-0.00034775
-0.000341644
-0.000335548
-0.000329455
-0.000323335
-0.000317208
-0.000311123
-0.000305105
-0.000299131
-0.000293171
-0.000287246
-0.000281433
-0.000275829
-0.000270497
-0.000265439
-0.000260604
-0.000255919
-0.000251312
-0.000246741
-0.000242209
-0.000237767
-0.000233485
-0.000229424
-0.000225605
-0.000222
-0.000218541
-0.000215154
-0.00021179
-0.000208444
-0.00020513
-0.000201858
-0.000198626
-0.000195423
-0.000192247
-0.000189091
-0.000185944
-0.000182776
-0.000179546
-0.000176206
-0.000172717
-0.000169044
-0.000165167
-0.000161068
-0.000156734
-0.000152147
-0.000147299
-0.000142173
-0.000136757
-0.000131032
-0.000125005
-0.000118685
-0.000112097
-0.000105281
-9.83168e-05
-9.12907e-05
-8.43249e-05
-7.7514e-05
-7.09538e-05
-6.47291e-05
-5.88953e-05
-5.35031e-05
-4.8522e-05
-4.39648e-05
-3.97932e-05
-3.59662e-05
-3.24403e-05
-2.91651e-05
-2.60985e-05
-2.31967e-05
-2.04314e-05
-1.77688e-05
-1.52026e-05
-1.27048e-05
-1.02914e-05
-7.92756e-06
-5.63986e-06
-3.36941e-06
-1.14711e-06
0.00126116
0.00118733
0.00104227
0.000826447
0.000571546
0.000320334
0.000102227
-7.22656e-05
-0.00020357
-0.000295322
-0.000352133
-0.00038063
-0.000389464
-0.000387273
-0.000380531
-0.000372946
-0.0003661
-0.000360312
-0.000355306
-0.000350657
-0.000346015
-0.000341165
-0.000336059
-0.00033078
-0.000325413
-0.000319974
-0.000314454
-0.000308882
-0.000303307
-0.000297755
-0.000292208
-0.000286645
-0.000281087
-0.0002756
-0.000270277
-0.000265186
-0.000260345
-0.000255718
-0.000251239
-0.000246836
-0.000242457
-0.000238098
-0.000233805
-0.000229652
-0.000225705
-0.000221995
-0.000218502
-0.000215157
-0.000211879
-0.000208617
-0.000205362
-0.000202133
-0.000198944
-0.000195791
-0.000192664
-0.000189559
-0.000186474
-0.000183398
-0.000180304
-0.000177149
-0.000173884
-0.00017047
-0.000166872
-0.00016307
-0.000159046
-0.000154789
-0.000150284
-0.000145522
-0.000140488
-0.000135171
-0.000129551
-0.000123635
-0.000117432
-0.000110965
-0.000104274
-9.74331e-05
-9.05339e-05
-8.36863e-05
-7.69858e-05
-7.05226e-05
-6.43833e-05
-5.862e-05
-5.32798e-05
-4.8346e-05
-4.38225e-05
-3.96745e-05
-3.5866e-05
-3.23542e-05
-2.90919e-05
-2.60369e-05
-2.31464e-05
-2.03927e-05
-1.77395e-05
-1.51851e-05
-1.26936e-05
-1.02926e-05
-7.93117e-06
-5.65623e-06
-3.38332e-06
-1.17012e-06
0.00113946
0.00106985
0.000946484
0.000769179
0.000556596
0.000339009
0.000142645
-1.91041e-05
-0.000143791
-0.000234089
-0.000294196
-0.00032938
-0.000346158
-0.000351353
-0.000350596
-0.000347561
-0.000344125
-0.000340919
-0.000337894
-0.000334798
-0.000331426
-0.00032767
-0.000323528
-0.000319093
-0.000314466
-0.000309685
-0.00030476
-0.000299729
-0.000294652
-0.000289554
-0.000284426
-0.000279258
-0.000274071
-0.000268927
-0.000263903
-0.000259063
-0.000254435
-0.000249998
-0.000245701
-0.000241485
-0.000237299
-0.000233127
-0.000229004
-0.000224996
-0.000221167
-0.000217558
-0.000214161
-0.000210915
-0.000207739
-0.000204577
-0.000201418
-0.000198279
-0.000195174
-0.000192102
-0.000189051
-0.000186017
-0.000182999
-0.00017999
-0.000176964
-0.000173881
-0.000170693
-0.000167359
-0.000163843
-0.000160125
-0.000156188
-0.000152023
-0.000147614
-0.000142956
-0.000138035
-0.00013284
-0.000127356
-0.000121586
-0.000115539
-0.000109239
-0.000102723
-9.60609e-05
-8.93415e-05
-8.26632e-05
-7.61233e-05
-6.98059e-05
-6.37967e-05
-5.81441e-05
-5.28922e-05
-4.80296e-05
-4.35587e-05
-3.94497e-05
-3.56714e-05
-3.21837e-05
-2.89418e-05
-2.59063e-05
-2.30331e-05
-2.0299e-05
-1.76608e-05
-1.51262e-05
-1.2646e-05
-1.02646e-05
-7.91051e-06
-5.65293e-06
-3.38592e-06
-1.18623e-06
0.00103233
0.000967237
0.00086074
0.000713072
0.000535651
0.000349069
0.000174457
2.57649e-05
-9.20778e-05
-0.00018014
-0.000241903
-0.000281722
-0.000304669
-0.000316105
-0.000320738
-0.000321946
-0.000321732
-0.000320988
-0.000319887
-0.000318335
-0.000316252
-0.000313618
-0.000310462
-0.000306882
-0.000303002
-0.00029889
-0.000294569
-0.000290085
-0.000285498
-0.000280843
-0.000276122
-0.000271336
-0.000266516
-0.000261716
-0.000256998
-0.000252416
-0.000248
-0.000243743
-0.000239611
-0.00023556
-0.000231548
-0.000227554
-0.000223604
-0.000219752
-0.000216051
-0.00021254
-0.000209222
-0.000206053
-0.000202959
-0.000199885
-0.000196815
-0.000193762
-0.000190738
-0.000187743
-0.000184766
-0.000181799
-0.000178842
-0.00017589
-0.000172922
-0.000169901
-0.000166781
-0.000163521
-0.000160087
-0.000156457
-0.000152613
-0.000148547
-0.000144245
-0.000139703
-0.000134908
-0.000129853
-0.000124523
-0.000118924
-0.000113062
-0.000106963
-0.000100661
-9.42186e-05
-8.77202e-05
-8.12559e-05
-7.49209e-05
-6.8792e-05
-6.29514e-05
-5.74425e-05
-5.23073e-05
-4.754e-05
-4.31427e-05
-3.9091e-05
-3.53563e-05
-3.19051e-05
-2.86926e-05
-2.56866e-05
-2.28382e-05
-2.01331e-05
-1.75175e-05
-1.50118e-05
-1.25505e-05
-1.01954e-05
-7.85684e-06
-5.62013e-06
-3.36922e-06
-1.18663e-06
0.000937567
0.000877219
0.000784519
0.000659927
0.000510983
0.000351665
0.000198019
6.27814e-05
-4.77203e-05
-0.000132888
-0.000195144
-0.000238001
-0.000265538
-0.000282044
-0.000291352
-0.000296398
-0.000299164
-0.000300738
-0.000301488
-0.000301457
-0.000300668
-0.000299161
-0.000296992
-0.000294274
-0.000291153
-0.000287719
-0.000284011
-0.000280073
-0.000275974
-0.000271759
-0.000267444
-0.000263041
-0.000258583
-0.00025412
-0.000249706
-0.000245387
-0.000241189
-0.000237117
-0.000233148
-0.000229253
-0.0002254
-0.000221573
-0.000217792
-0.000214099
-0.000210531
-0.000207123
-0.000203884
-0.000200779
-0.00019775
-0.00019475
-0.000191762
-0.000188789
-0.000185842
-0.00018292
-0.000180012
-0.000177111
-0.000174213
-0.000171314
-0.000168395
-0.000165426
-0.000162363
-0.00015917
-0.000155812
-0.000152268
-0.00014852
-0.000144558
-0.000140369
-0.00013595
-0.00013129
-0.000126383
-0.000121219
-0.000115804
-0.000110145
-0.000104265
-9.81975e-05
-9.19997e-05
-8.575e-05
-7.95297e-05
-7.34279e-05
-6.75142e-05
-6.18657e-05
-5.65239e-05
-5.15279e-05
-4.68773e-05
-4.25717e-05
-3.85943e-05
-3.49162e-05
-3.1514e-05
-2.83401e-05
-2.53734e-05
-2.25577e-05
-1.98903e-05
-1.73059e-05
-1.48371e-05
-1.24044e-05
-1.00814e-05
-7.76862e-06
-5.55584e-06
-3.33098e-06
-1.16811e-06
0.000853342
0.000797741
0.000716547
0.000610282
0.00048428
0.000348263
0.000214075
9.23591e-05
-1.02591e-05
-9.185e-05
-0.000153647
-0.000198299
-0.000229101
-0.00024954
-0.000262731
-0.000271142
-0.000276625
-0.000280361
-0.000282868
-0.000284306
-0.000284777
-0.000284378
-0.000283188
-0.000281334
-0.000278978
-0.000276226
-0.000273123
-0.000269728
-0.000266121
-0.000262354
-0.000258449
-0.000254428
-0.000250326
-0.000246195
-0.000242084
-0.000238031
-0.000234061
-0.000230181
-0.000226382
-0.000222646
-0.00021895
-0.000215284
-0.000211667
-0.000208131
-0.000204699
-0.0002014
-0.000198244
-0.000195206
-0.000192239
-0.000189307
-0.000186395
-0.0001835
-0.000180627
-0.000177775
-0.000174936
-0.000172099
-0.000169261
-0.000166415
-0.000163545
-0.000160623
-0.000157613
-0.000154482
-0.000151197
-0.000147738
-0.000144085
-0.00014023
-0.000136159
-0.000131869
-0.000127349
-0.000122598
-0.000117606
-0.000112381
-0.000106931
-0.000101279
-9.54562e-05
-8.95156e-05
-8.35278e-05
-7.75655e-05
-7.17096e-05
-6.60255e-05
-6.05834e-05
-5.54247e-05
-5.05827e-05
-4.60638e-05
-4.18633e-05
-3.79741e-05
-3.43644e-05
-3.10222e-05
-2.78958e-05
-2.49764e-05
-2.22007e-05
-1.95772e-05
-1.7032e-05
-1.46059e-05
-1.2212e-05
-9.92628e-06
-7.65025e-06
-5.46532e-06
-3.27616e-06
-1.13716e-06
0.000778021
0.000727016
0.000655543
0.000564151
0.000456766
0.000340374
0.000223671
0.000115076
2.07547e-05
-5.65539e-05
-0.000117041
-0.000162504
-0.000195492
-0.000218837
-0.000235121
-0.000246403
-0.000254311
-0.000260022
-0.000264159
-0.00026698
-0.00026866
-0.000269338
-0.000269108
-0.000268104
-0.000266502
-0.000264425
-0.000261924
-0.00025907
-0.000255956
-0.000252642
-0.000249149
-0.000245506
-0.00024176
-0.00023796
-0.000234152
-0.000230367
-0.00022663
-0.000222952
-0.000219332
-0.000215764
-0.000212229
-0.000208724
-0.000205268
-0.000201886
-0.000198591
-0.000195406
-0.000192341
-0.000189376
-0.000186476
-0.000183615
-0.000180779
-0.000177961
-0.000175163
-0.000172382
-0.000169611
-0.000166841
-0.000164065
-0.000161277
-0.000158459
-0.000155588
-0.000152632
-0.000149563
-0.000146352
-0.000142978
-0.000139423
-0.000135676
-0.000131727
-0.00012757
-0.000123197
-0.000118606
-0.000113792
-0.000108762
-0.000103524
-9.8103e-05
-9.2529e-05
-8.68491e-05
-8.11258e-05
-7.54258e-05
-6.98215e-05
-6.4375e-05
-5.91473e-05
-5.41806e-05
-4.95013e-05
-4.51238e-05
-4.10388e-05
-3.72487e-05
-3.37179e-05
-3.0445e-05
-2.73749e-05
-2.45094e-05
-2.17808e-05
-1.92058e-05
-1.67071e-05
-1.43279e-05
-1.19818e-05
-9.73777e-06
-7.50797e-06
-5.35632e-06
-3.21092e-06
-1.10225e-06
0.000710229
0.000663588
0.000600432
0.000521332
0.000429237
0.000329296
0.000227953
0.000131701
4.58526e-05
-2.65712e-05
-8.50019e-05
-0.000130453
-0.000164743
-0.000190119
-0.000208761
-0.000222399
-0.000232399
-0.000239865
-0.000245488
-0.000249597
-0.000252414
-0.000254117
-0.00025481
-0.000254622
-0.00025375
-0.000252338
-0.000250439
-0.00024812
-0.00024549
-0.000242625
-0.000239547
-0.000236284
-0.000232889
-0.000229421
-0.000225915
-0.000222398
-0.000218896
-0.000215429
-0.000212001
-0.000208607
-0.000205239
-0.000201897
-0.000198604
-0.000195374
-0.000192215
-0.000189149
-0.000186183
-0.000183301
-0.000180476
-0.000177691
-0.000174933
-0.000172195
-0.000169474
-0.000166767
-0.000164068
-0.000161367
-0.000158657
-0.000155931
-0.000153171
-0.000150358
-0.000147463
-0.000144461
-0.000141327
-0.000138042
-0.000134588
-0.000130954
-0.00012713
-0.000123112
-0.00011889
-0.000114464
-0.000109832
-0.000104999
-9.99781e-05
-9.47905e-05
-8.9465e-05
-8.40448e-05
-7.85855e-05
-7.31495e-05
-6.77992e-05
-6.25934e-05
-5.75835e-05
-5.28133e-05
-4.83032e-05
-4.40744e-05
-4.01136e-05
-3.64311e-05
-3.29888e-05
-2.97934e-05
-2.67885e-05
-2.39829e-05
-2.13087e-05
-1.87865e-05
-1.63409e-05
-1.40119e-05
-1.17204e-05
-9.52259e-06
-7.34607e-06
-5.23439e-06
-3.13885e-06
-1.06845e-06
0.000648847
0.000606304
0.000550339
0.000481539
0.000402153
0.000316032
0.000228027
0.000143105
6.56067e-05
-1.54438e-06
-5.72869e-05
-0.000101987
-0.000136822
-0.000163505
-0.000183854
-0.000199326
-0.000211057
-0.000220045
-0.000227001
-0.000232286
-0.000236141
-0.000238784
-0.000240342
-0.000240936
-0.000240767
-0.00024
-0.000238689
-0.000236895
-0.000234737
-0.000232313
-0.000229652
-0.000226769
-0.000223719
-0.000220574
-0.000217372
-0.000214126
-0.000210862
-0.00020761
-0.000204382
-0.000201172
-0.000197973
-0.000194798
-0.000191669
-0.000188592
-0.000185571
-0.000182627
-0.000179768
-0.000176977
-0.000174236
-0.000171534
-0.000168859
-0.000166204
-0.000163564
-0.000160935
-0.000158312
-0.000155685
-0.000153047
-0.000150388
-0.000147693
-0.000144945
-0.000142118
-0.00013919
-0.00013614
-0.000132948
-0.0001296
-0.000126084
-0.000122391
-0.000118515
-0.000114449
-0.000110194
-0.000105748
-0.000101118
-9.63148e-05
-9.13615e-05
-8.62836e-05
-8.11226e-05
-7.59271e-05
-7.07545e-05
-6.56578e-05
-6.06931e-05
-5.59032e-05
-5.13332e-05
-4.69982e-05
-4.29241e-05
-3.90953e-05
-3.55279e-05
-3.21831e-05
-2.90728e-05
-2.61417e-05
-2.34022e-05
-2.07898e-05
-1.83249e-05
-1.59381e-05
-1.36634e-05
-1.14318e-05
-9.28514e-06
-7.16693e-06
-5.10238e-06
-3.06104e-06
-1.0366e-06
0.00059296
0.000554245
0.000504551
0.000444469
0.000375758
0.00030132
0.00022484
0.000150117
8.05899e-05
1.8888e-05
-3.36534e-05
-7.6941e-05
-0.000111671
-0.000139059
-0.000160549
-0.000177366
-0.000190465
-0.00020072
-0.000208824
-0.000215147
-0.000219929
-0.000223415
-0.000225769
-0.000227104
-0.000227605
-0.000227446
-0.000226695
-0.00022541
-0.000223717
-0.000221724
-0.000219468
-0.000216961
-0.000214253
-0.000211425
-0.000208521
-0.000205549
-0.000202526
-0.000199492
-0.00019647
-0.000193451
-0.000190426
-0.00018742
-0.000184458
-0.000181534
-0.000178652
-0.000175835
-0.00017309
-0.000170399
-0.00016775
-0.000165137
-0.000162552
-0.000159984
-0.000157429
-0.000154883
-0.000152341
-0.000149793
-0.000147231
-0.000144646
-0.000142024
-0.000139348
-0.000136597
-0.000133751
-0.000130791
-0.0001277
-0.000124463
-0.000121071
-0.000117513
-0.000113785
-0.00010988
-0.000105801
-0.000101545
-9.71209e-05
-9.25384e-05
-8.78206e-05
-8.29912e-05
-7.80891e-05
-7.3156e-05
-6.82449e-05
-6.34008e-05
-5.86774e-05
-5.41101e-05
-4.97438e-05
-4.55892e-05
-4.16753e-05
-3.79861e-05
-3.45407e-05
-3.1302e-05
-2.82841e-05
-2.54351e-05
-2.27684e-05
-2.02249e-05
-1.78229e-05
-1.55006e-05
-1.3285e-05
-1.11175e-05
-9.02754e-06
-6.97141e-06
-4.96076e-06
-2.97708e-06
-1.00551e-06
0.000541795
0.000506653
0.000462477
0.000409846
0.000350171
0.000285663
0.000219122
0.000153471
9.13999e-05
3.51619e-05
-1.38275e-05
-5.51825e-05
-8.92453e-05
-0.000116805
-0.000138937
-0.000156661
-0.000170776
-0.000182022
-0.000191057
-0.000198269
-0.000203876
-0.00020811
-0.000211165
-0.000213173
-0.0002143
-0.000214712
-0.000214488
-0.000213691
-0.000212448
-0.000210875
-0.000209009
-0.000206863
-0.000204494
-0.00020198
-0.000199367
-0.000196664
-0.000193885
-0.000191073
-0.000188259
-0.000185435
-0.00018259
-0.000179757
-0.000176961
-0.000174193
-0.000171454
-0.000168768
-0.000166142
-0.000163558
-0.000161008
-0.000158493
-0.000156002
-0.000153527
-0.000151062
-0.000148605
-0.000146148
-0.000143684
-0.000141205
-0.000138701
-0.000136159
-0.000133563
-0.000130896
-0.00012814
-0.000125278
-0.000122294
-0.000119174
-0.000115911
-0.000112495
-0.00010892
-0.000105182
-0.000101283
-9.72216e-05
-9.30065e-05
-8.86474e-05
-8.41672e-05
-7.95869e-05
-7.49427e-05
-7.02702e-05
-6.56192e-05
-6.10278e-05
-5.65465e-05
-5.22041e-05
-4.80444e-05
-4.40753e-05
-4.03273e-05
-3.67848e-05
-3.34683e-05
-3.03438e-05
-2.74257e-05
-2.4667e-05
-2.20803e-05
-1.96128e-05
-1.72802e-05
-1.50278e-05
-1.28769e-05
-1.07776e-05
-8.74994e-06
-6.75937e-06
-4.80885e-06
-2.88652e-06
-9.73846e-07
0.000494702
0.000462888
0.000423609
0.000377405
0.000325429
0.00026939
0.00021143
0.000153812
9.86322e-05
4.77329e-05
2.46635e-06
-3.65842e-05
-6.94876e-05
-9.67194e-05
-0.000119051
-0.000137298
-0.000152105
-0.00016407
-0.000173815
-0.000181753
-0.000188069
-0.000192947
-0.000196597
-0.000199191
-0.000200893
-0.000201844
-0.000202113
-0.000201766
-0.000200943
-0.000199774
-0.000198289
-0.000196489
-0.000194442
-0.000192239
-0.000189915
-0.000187473
-0.000184935
-0.00018235
-0.000179748
-0.000177117
-0.000174456
-0.0001718
-0.000169173
-0.000166562
-0.000163967
-0.000161417
-0.000158916
-0.000156447
-0.000154005
-0.000151593
-0.000149202
-0.000146824
-0.000144456
-0.000142093
-0.000139728
-0.000137354
-0.000134963
-0.000132546
-0.000130091
-0.000127584
-0.000125009
-0.000122351
-0.000119594
-0.000116724
-0.000113729
-0.000110601
-0.000107331
-0.000103916
-0.000100351
-9.66362e-05
-9.27729e-05
-8.87709e-05
-8.46386e-05
-8.03975e-05
-7.6066e-05
-7.16788e-05
-6.72665e-05
-6.28752e-05
-5.85368e-05
-5.42979e-05
-5.01825e-05
-4.62324e-05
-4.2454e-05
-3.88774e-05
-3.54887e-05
-3.23083e-05
-2.9306e-05
-2.64954e-05
-2.38349e-05
-2.1336e-05
-1.89515e-05
-1.66949e-05
-1.45181e-05
-1.24378e-05
-1.04113e-05
-8.45156e-06
-6.53043e-06
-4.64587e-06
-2.78899e-06
-9.40608e-07
0.000451141
0.000422406
0.000387491
0.00034688
0.000301516
0.000252739
0.000202206
0.000151683
0.0001028
5.70101e-05
1.55235e-05
-2.09542e-05
-5.22949e-05
-7.87712e-05
-0.000100915
-0.000119336
-0.000134528
-0.000146967
-0.00015721
-0.000165682
-0.00017256
-0.000177978
-0.000182137
-0.000185233
-0.000187436
-0.000188872
-0.000189596
-0.000189665
-0.000189229
-0.000188436
-0.000187319
-0.000185855
-0.000184111
-0.000182202
-0.000180165
-0.000177981
-0.000175676
-0.000173317
-0.000170931
-0.000168497
-0.000166018
-0.000163541
-0.000161087
-0.000158634
-0.000156187
-0.000153777
-0.000151406
-0.000149057
-0.000146729
-0.000144428
-0.000142144
-0.000139869
-0.000137602
-0.000135339
-0.000133072
-0.000130794
-0.000128498
-0.000126175
-0.000123815
-0.000121404
-0.000118929
-0.000116378
-0.000113733
-0.000110984
-0.000108121
-0.000105135
-0.000102018
-9.87677e-05
-9.53794e-05
-9.18551e-05
-8.81949e-05
-8.44096e-05
-8.05066e-05
-7.65056e-05
-7.24238e-05
-6.82938e-05
-6.4142e-05
-6.00097e-05
-5.59241e-05
-5.19282e-05
-4.80421e-05
-4.43048e-05
-4.07222e-05
-3.73229e-05
-3.40949e-05
-3.10578e-05
-2.81854e-05
-2.54905e-05
-2.29361e-05
-2.05325e-05
-1.82382e-05
-1.60648e-05
-1.39696e-05
-1.19663e-05
-1.00172e-05
-8.13124e-06
-6.284e-06
-4.47086e-06
-2.68406e-06
-9.05218e-07
0.00041067
0.00038476
0.000353731
0.00031802
0.000278386
0.000235883
0.000191797
0.000147517
0.000104328
6.33708e-05
2.56671e-05
-8.05997e-06
-3.75599e-05
-6.29486e-05
-8.45535e-05
-0.000102803
-0.000118088
-0.000130778
-0.000141326
-0.000150139
-0.000157416
-0.000163262
-0.000167845
-0.00017136
-0.000173977
-0.000175824
-0.000176956
-0.000177415
-0.000177336
-0.000176883
-0.000176104
-0.000174966
-0.000173514
-0.000171877
-0.000170113
-0.000168191
-0.000166116
-0.000163972
-0.000161802
-0.00015957
-0.000157273
-0.000154974
-0.000152695
-0.000150403
-0.000148106
-0.00014584
-0.000143605
-0.000141381
-0.000139174
-0.000136989
-0.000134818
-0.000132653
-0.000130493
-0.000128335
-0.000126172
-0.000123996
-0.000121802
-0.000119582
-0.000117324
-0.000115018
-0.000112651
-0.000110213
-0.000107689
-0.000105069
-0.000102343
-9.95064e-05
-9.65487e-05
-9.34687e-05
-9.02632e-05
-8.69345e-05
-8.34821e-05
-7.99164e-05
-7.62449e-05
-7.24865e-05
-6.86562e-05
-6.47839e-05
-6.08921e-05
-5.70184e-05
-5.31863e-05
-4.94345e-05
-4.57802e-05
-4.22593e-05
-3.88774e-05
-3.56611e-05
-3.26004e-05
-2.9714e-05
-2.69792e-05
-2.44079e-05
-2.19673e-05
-1.96672e-05
-1.74704e-05
-1.53875e-05
-1.33804e-05
-1.14604e-05
-9.59417e-06
-7.78766e-06
-6.01925e-06
-4.28296e-06
-2.5714e-06
-8.6735e-07
0.000372913
0.000349598
0.000322034
0.000290627
0.000255986
0.000218934
0.000180469
0.000141684
0.000103616
6.7176e-05
3.31852e-05
2.29484e-06
-2.51754e-05
-4.92062e-05
-6.99626e-05
-8.77348e-05
-0.000102834
-0.000115549
-0.000126226
-0.000135217
-0.000142726
-0.000148857
-0.000153753
-0.000157602
-0.000160564
-0.000162752
-0.000164224
-0.000165029
-0.000165281
-0.000165135
-0.000164656
-0.00016382
-0.000162655
-0.000161276
-0.000159761
-0.000158092
-0.000156254
-0.000154319
-0.000152352
-0.000150325
-0.000148218
-0.000146094
-0.000143986
-0.000141862
-0.000139719
-0.000137598
-0.000135503
-0.000133413
-0.000131331
-0.000129268
-0.000127216
-0.000125167
-0.000123121
-0.000121075
-0.000119022
-0.000116955
-0.00011487
-0.000112758
-0.000110611
-0.000108417
-0.000106167
-0.00010385
-0.000101454
-9.89705e-05
-9.63905e-05
-9.37085e-05
-9.09165e-05
-8.80135e-05
-8.49965e-05
-8.18679e-05
-7.86275e-05
-7.52853e-05
-7.18485e-05
-6.83349e-05
-6.47576e-05
-6.11433e-05
-5.75115e-05
-5.3897e-05
-5.03197e-05
-4.68138e-05
-4.33939e-05
-4.0093e-05
-3.69168e-05
-3.38892e-05
-3.10025e-05
-2.8274e-05
-2.56845e-05
-2.32449e-05
-2.09262e-05
-1.87375e-05
-1.66458e-05
-1.46607e-05
-1.27484e-05
-1.09181e-05
-9.1407e-06
-7.41958e-06
-5.73545e-06
-4.08147e-06
-2.45075e-06
-8.26875e-07
0.000337524
0.000316626
0.000292183
0.00026457
0.000234292
0.000201999
0.000168466
0.000134546
0.000101072
6.87826e-05
3.83386e-05
1.03021e-05
-1.49863e-05
-3.74379e-05
-5.71178e-05
-7.41849e-05
-8.88493e-05
-0.000101344
-0.000111957
-0.000120981
-0.000128582
-0.000134846
-0.00013992
-0.000144005
-0.000147249
-0.000149716
-0.000151449
-0.000152526
-0.000153072
-0.000153212
-0.000153001
-0.00015243
-0.000151529
-0.000150403
-0.000149121
-0.000147682
-0.000146077
-0.000144357
-0.000142583
-0.000140752
-0.000138841
-0.000136895
-0.000134955
-0.000132999
-0.000131016
-0.000129044
-0.000127091
-0.00012514
-0.000123191
-0.000121256
-0.000119329
-0.000117403
-0.000115476
-0.000113549
-0.000111613
-0.000109662
-0.000107692
-0.000105698
-0.000103668
-0.000101594
-9.94694e-05
-9.7283e-05
-9.50229e-05
-9.26831e-05
-9.02558e-05
-8.77355e-05
-8.51155e-05
-8.23959e-05
-7.95727e-05
-7.66484e-05
-7.36247e-05
-7.05109e-05
-6.7312e-05
-6.40446e-05
-6.07214e-05
-5.73662e-05
-5.39958e-05
-5.0641e-05
-4.73198e-05
-4.40617e-05
-4.08791e-05
-3.78021e-05
-3.48365e-05
-3.20039e-05
-2.92979e-05
-2.6735e-05
-2.42987e-05
-2.19989e-05
-1.98101e-05
-1.77408e-05
-1.5762e-05
-1.38821e-05
-1.20717e-05
-1.03378e-05
-8.65545e-06
-7.02563e-06
-5.43176e-06
-3.8656e-06
-2.32178e-06
-7.8385e-07
0.00029781
0.000279651
0.000258621
0.000235049
0.000209349
0.000182032
0.000153693
0.000124946
9.63941e-05
6.86002e-05
4.21018e-05
1.73917e-05
-5.20857e-06
-2.56084e-05
-4.38198e-05
-5.98529e-05
-7.37653e-05
-8.57312e-05
-9.60282e-05
-0.000104913
-0.000112487
-0.000118772
-0.000123899
-0.00012811
-0.000131577
-0.000134313
-0.00013629
-0.000137596
-0.000138407
-0.000138853
-0.000138941
-0.000138642
-0.000138006
-0.000137152
-0.000136142
-0.00013496
-0.000133606
-0.000132136
-0.000130597
-0.000128987
-0.000127299
-0.00012557
-0.000123834
-0.000122072
-0.000120282
-0.000118493
-0.000116716
-0.000114933
-0.000113149
-0.000111374
-0.000109603
-0.000107829
-0.000106053
-0.000104273
-0.000102485
-0.000100681
-9.88574e-05
-9.70109e-05
-9.51315e-05
-9.32111e-05
-9.12433e-05
-8.92211e-05
-8.71326e-05
-8.49728e-05
-8.27364e-05
-8.04179e-05
-7.80107e-05
-7.55158e-05
-7.29302e-05
-7.02558e-05
-6.74951e-05
-6.46571e-05
-6.1745e-05
-5.8773e-05
-5.57539e-05
-5.27088e-05
-4.96506e-05
-4.66059e-05
-4.35905e-05
-4.06291e-05
-3.77322e-05
-3.49261e-05
-3.22169e-05
-2.96231e-05
-2.71402e-05
-2.47829e-05
-2.25382e-05
-2.04143e-05
-1.839e-05
-1.64723e-05
-1.46376e-05
-1.28918e-05
-1.12114e-05
-9.6002e-06
-8.03887e-06
-6.52493e-06
-5.0458e-06
-3.59093e-06
-2.15771e-06
-7.28578e-07
0.000253882
0.000238744
0.000221389
0.000202044
0.000181006
0.000158692
0.000135591
0.000112152
8.87355e-05
6.5688e-05
4.343e-05
2.24246e-05
2.99326e-06
-1.47957e-05
-3.09791e-05
-4.55038e-05
-5.82642e-05
-6.92984e-05
-7.88651e-05
-8.7263e-05
-9.45803e-05
-0.000100721
-0.000105704
-0.000109805
-0.000113308
-0.000116236
-0.000118438
-0.000119902
-0.000120861
-0.000121547
-0.000121953
-0.000121946
-0.000121546
-0.000120934
-0.000120222
-0.000119344
-0.000118249
-0.000117028
-0.000115769
-0.00011443
-0.000112979
-0.000111493
-0.000110013
-0.000108488
-0.000106915
-0.000105348
-0.000103792
-0.000102219
-0.000100634
-9.90592e-05
-9.7486e-05
-9.59046e-05
-9.43186e-05
-9.27289e-05
-9.11282e-05
-8.95119e-05
-8.78773e-05
-8.62204e-05
-8.45347e-05
-8.28137e-05
-8.10499e-05
-7.92373e-05
-7.73677e-05
-7.54373e-05
-7.34412e-05
-7.13752e-05
-6.92335e-05
-6.7018e-05
-6.47268e-05
-6.23603e-05
-5.992e-05
-5.74156e-05
-5.48504e-05
-5.2236e-05
-4.95822e-05
-4.69071e-05
-4.42217e-05
-4.15484e-05
-3.88992e-05
-3.6294e-05
-3.37416e-05
-3.12649e-05
-2.88692e-05
-2.65698e-05
-2.43635e-05
-2.22642e-05
-2.02614e-05
-1.83619e-05
-1.65482e-05
-1.48267e-05
-1.31781e-05
-1.1607e-05
-1.00949e-05
-8.64403e-06
-7.2391e-06
-5.8762e-06
-4.54531e-06
-3.23527e-06
-1.945e-06
-6.5755e-07
0.000210092
0.000197843
0.000183974
0.000168591
0.000151847
0.000134058
0.000115673
9.70763e-05
7.84573e-05
5.99343e-05
4.1771e-05
2.44159e-05
8.26019e-06
-6.61757e-06
-2.0361e-05
-3.29967e-05
-4.43063e-05
-5.41042e-05
-6.25561e-05
-7.00585e-05
-7.67972e-05
-8.25935e-05
-8.72685e-05
-9.10274e-05
-9.42952e-05
-9.72171e-05
-9.95528e-05
-0.000101106
-0.000102076
-0.000102843
-0.000103489
-0.00010377
-0.000103575
-0.000103129
-0.000102654
-0.000102087
-0.000101264
-0.000100255
-9.92484e-05
-9.82132e-05
-9.70209e-05
-9.57551e-05
-9.45376e-05
-9.32918e-05
-9.19513e-05
-9.06054e-05
-8.92974e-05
-8.79656e-05
-8.65994e-05
-8.52441e-05
-8.38983e-05
-8.25364e-05
-8.11632e-05
-7.97896e-05
-7.84067e-05
-7.70067e-05
-7.55896e-05
-7.41529e-05
-7.26901e-05
-7.11977e-05
-6.967e-05
-6.80999e-05
-6.6482e-05
-6.48145e-05
-6.30918e-05
-6.13099e-05
-5.94668e-05
-5.75644e-05
-5.55988e-05
-5.35713e-05
-5.14846e-05
-4.93461e-05
-4.71583e-05
-4.49319e-05
-4.26738e-05
-4.03969e-05
-3.8112e-05
-3.58396e-05