/*--------------------------------*- C++ -*----------------------------------*\
| =========                 |                                                 |
| \\      /  F ield         | OpenFOAM: The Open Source CFD Toolbox           |
|  \\    /   O peration     | Version:  2.3.0                                 |
|   \\  /    A nd           | Web:      www.OpenFOAM.org                      |
|    \\/     M anipulation  |                                                 |
\*---------------------------------------------------------------------------*/
FoamFile
{
    version     2.0;
    format      ascii;
    class       volVectorField;
    location    "0.35";
    object      U_0;
}
// * * * * * * * * * * * * * * * * * * * * * * * * * * * * * * * * * * * * * //

dimensions      [0 1 -1 0 0 0 0];

internalField   nonuniform List<vector> 
3375
(
(0.175685 0.00438533 0)
(0.155203 0.00597392 0)
(0.136629 0.00611746 0)
(0.118507 0.005518 0)
(0.100989 0.00472036 0)
(0.0849382 0.00383539 0)
(0.0714228 0.00286871 0)
(0.0608448 0.00184899 0)
(0.0530039 0.000962918 0)
(0.0473555 0.000363835 0)
(0.0433308 4.55582e-05 0)
(0.0404585 -8.31744e-05 0)
(0.0383598 -0.000106248 0)
(0.0367512 -8.00672e-05 0)
(0.0354319 -3.65856e-05 0)
(0.0342766 5.73666e-06 0)
(0.0332169 3.82104e-05 0)
(0.0322207 5.90524e-05 0)
(0.0312764 6.99443e-05 0)
(0.0303828 7.36182e-05 0)
(0.0295418 7.2776e-05 0)
(0.0287543 6.96542e-05 0)
(0.0280187 6.57232e-05 0)
(0.0273313 6.16433e-05 0)
(0.0266882 5.75969e-05 0)
(0.0260863 5.36875e-05 0)
(0.0255226 5.00783e-05 0)
(0.0249935 4.68825e-05 0)
(0.0244953 4.40623e-05 0)
(0.0240251 4.14827e-05 0)
(0.0235805 3.90406e-05 0)
(0.0231597 3.67389e-05 0)
(0.0227611 3.46405e-05 0)
(0.0223827 3.27782e-05 0)
(0.0220225 3.11161e-05 0)
(0.0216791 2.95764e-05 0)
(0.0213516 2.80889e-05 0)
(0.0210392 2.66244e-05 0)
(0.0207414 2.51839e-05 0)
(0.0204577 2.37895e-05 0)
(0.0201875 2.24731e-05 0)
(0.0199301 2.12604e-05 0)
(0.0196845 2.01563e-05 0)
(0.0194501 1.91537e-05 0)
(0.0192262 1.8226e-05 0)
(0.0190122 1.73384e-05 0)
(0.0188078 1.64613e-05 0)
(0.018613 1.55865e-05 0)
(0.0184275 1.47185e-05 0)
(0.0182512 1.3877e-05 0)
(0.0180838 1.30739e-05 0)
(0.0179251 1.23138e-05 0)
(0.0177747 1.15883e-05 0)
(0.0176324 1.08982e-05 0)
(0.0174979 1.02404e-05 0)
(0.017371 9.61889e-06 0)
(0.0172515 9.02309e-06 0)
(0.0171393 8.44723e-06 0)
(0.0170342 7.87402e-06 0)
(0.0169362 7.30428e-06 0)
(0.0168453 6.73087e-06 0)
(0.0167614 6.16375e-06 0)
(0.0166847 5.59742e-06 0)
(0.0166149 5.04612e-06 0)
(0.0165521 4.49673e-06 0)
(0.016496 3.9571e-06 0)
(0.0164467 3.40988e-06 0)
(0.016404 2.86619e-06 0)
(0.016368 2.29801e-06 0)
(0.0163383 1.72884e-06 0)
(0.0163153 1.17469e-06 0)
(0.0162983 6.94308e-07 0)
(0.0162876 2.58912e-07 0)
(0.0162826 -9.83905e-08 0)
(0.0162833 -6.72477e-07 0)
(0.0162885 -1.04351e-06 0)
(0.016298 -1.42092e-06 0)
(0.0163104 -1.67273e-06 0)
(0.0163252 -1.85987e-06 0)
(0.0163412 -1.93519e-06 0)
(0.0163579 -1.92873e-06 0)
(0.0163742 -1.84564e-06 0)
(0.0163899 -1.71593e-06 0)
(0.0164044 -1.55552e-06 0)
(0.0164178 -1.39113e-06 0)
(0.0164299 -1.22447e-06 0)
(0.0164408 -1.07974e-06 0)
(0.0164506 -9.43551e-07 0)
(0.0164595 -8.43362e-07 0)
(0.0164678 -7.46085e-07 0)
(0.0164752 -6.85846e-07 0)
(0.0164824 -6.14996e-07 0)
(0.0164887 -5.7726e-07 0)
(0.0164952 -5.11861e-07 0)
(0.0165004 -4.77804e-07 0)
(0.0165063 -4.01976e-07 0)
(0.01651 -3.61678e-07 0)
(0.0165152 -2.79416e-07 0)
(0.0165171 -2.4611e-07 0)
(0.0165222 -2.22441e-07 0)
(0.190907 0.00776073 0)
(0.189163 0.0108445 0)
(0.186701 0.0118886 0)
(0.182872 0.0117133 0)
(0.177406 0.0110787 0)
(0.170525 0.0101867 0)
(0.162871 0.0090286 0)
(0.154944 0.00760513 0)
(0.147128 0.00607796 0)
(0.139646 0.00466797 0)
(0.132625 0.00351286 0)
(0.126161 0.00263943 0)
(0.120298 0.00201306 0)
(0.115047 0.00158573 0)
(0.11036 0.00130411 0)
(0.106167 0.00111936 0)
(0.102395 0.000994084 0)
(0.09898 0.000902898 0)
(0.0958669 0.000829763 0)
(0.0930122 0.000765607 0)
(0.0903819 0.000706699 0)
(0.0879489 0.000652651 0)
(0.08569 0.000603905 0)
(0.0835853 0.00056009 0)
(0.0816184 0.000520222 0)
(0.0797758 0.000483693 0)
(0.078046 0.000450532 0)
(0.0764186 0.000420808 0)
(0.0748837 0.000394157 0)
(0.073433 0.000369912 0)
(0.0720595 0.00034754 0)
(0.0707576 0.000326885 0)
(0.0695219 0.000308003 0)
(0.0683474 0.000290846 0)
(0.0672295 0.000275152 0)
(0.0661641 0.000260549 0)
(0.0651481 0.00024673 0)
(0.0641789 0.000233552 0)
(0.0632543 0.000220984 0)
(0.062372 0.000209057 0)
(0.06153 0.000197822 0)
(0.0607261 0.000187309 0)
(0.0599582 0.000177485 0)
(0.0592245 0.000168288 0)
(0.0585234 0.000159608 0)
(0.0578535 0.000151313 0)
(0.0572139 0.000143289 0)
(0.0566036 0.000135491 0)
(0.056022 0.000127917 0)
(0.0554683 0.000120617 0)
(0.0549417 0.000113616 0)
(0.0544413 0.000106916 0)
(0.0539665 0.000100474 0)
(0.0535165 9.42792e-05 0)
(0.0530909 8.83105e-05 0)
(0.0526889 8.25705e-05 0)
(0.0523102 7.70171e-05 0)
(0.0519543 7.16253e-05 0)
(0.051621 6.63337e-05 0)
(0.05131 6.11427e-05 0)
(0.0510213 5.60274e-05 0)
(0.0507545 5.10207e-05 0)
(0.0505096 4.61051e-05 0)
(0.0502861 4.13312e-05 0)
(0.0500841 3.66613e-05 0)
(0.0499029 3.21317e-05 0)
(0.0497425 2.76976e-05 0)
(0.0496022 2.34144e-05 0)
(0.049482 1.92029e-05 0)
(0.0493809 1.51351e-05 0)
(0.0492989 1.1208e-05 0)
(0.0492345 7.5879e-06 0)
(0.0491875 4.22413e-06 0)
(0.0491558 1.25956e-06 0)
(0.0491388 -1.60122e-06 0)
(0.0491336 -4.18871e-06 0)
(0.0491392 -6.20973e-06 0)
(0.0491523 -7.48811e-06 0)
(0.0491717 -8.32074e-06 0)
(0.0491943 -8.65189e-06 0)
(0.0492194 -8.62166e-06 0)
(0.0492444 -8.25823e-06 0)
(0.0492692 -7.71431e-06 0)
(0.0492924 -7.05294e-06 0)
(0.0493143 -6.39942e-06 0)
(0.0493343 -5.73664e-06 0)
(0.0493527 -5.17985e-06 0)
(0.04937 -4.64753e-06 0)
(0.0493857 -4.26618e-06 0)
(0.0494012 -3.87486e-06 0)
(0.049415 -3.63817e-06 0)
(0.0494295 -3.32549e-06 0)
(0.0494417 -3.16145e-06 0)
(0.0494556 -2.84362e-06 0)
(0.0494657 -2.69362e-06 0)
(0.0494791 -2.31079e-06 0)
(0.0494864 -2.15408e-06 0)
(0.0494993 -1.72267e-06 0)
(0.0495028 -1.59582e-06 0)
(0.0495158 -1.36173e-06 0)
(0.192003 0.00747444 0)
(0.192428 0.0100979 0)
(0.193501 0.0116556 0)
(0.194572 0.012142 0)
(0.194995 0.0120326 0)
(0.194466 0.011592 0)
(0.193006 0.0108511 0)
(0.190747 0.00983172 0)
(0.187851 0.00864541 0)
(0.184478 0.00746049 0)
(0.180774 0.00640908 0)
(0.176883 0.00554262 0)
(0.172926 0.00484871 0)
(0.169001 0.00429646 0)
(0.165156 0.00385135 0)
(0.161413 0.00348397 0)
(0.157782 0.00317316 0)
(0.15427 0.00290483 0)
(0.15088 0.00266883 0)
(0.147613 0.00245746 0)
(0.144466 0.002266 0)
(0.141438 0.0020926 0)
(0.138526 0.00193647 0)
(0.135731 0.00179601 0)
(0.13305 0.00166878 0)
(0.130481 0.00155298 0)
(0.128022 0.00144793 0)
(0.125669 0.0013533 0)
(0.123419 0.00126802 0)
(0.121266 0.00119039 0)
(0.119205 0.00111886 0)
(0.117231 0.00105273 0)
(0.11534 0.000991899 0)
(0.113528 0.000936208 0)
(0.111791 0.000885107 0)
(0.110125 0.000837758 0)
(0.108527 0.00079336 0)
(0.106995 0.000751402 0)
(0.105525 0.000711637 0)
(0.104115 0.000674008 0)
(0.102762 0.000638543 0)
(0.101464 0.000605239 0)
(0.100218 0.000573976 0)
(0.0990225 0.000544554 0)
(0.0978754 0.000516682 0)
(0.096775 0.00049005 0)
(0.0957201 0.000464403 0)
(0.0947096 0.000439621 0)
(0.0937426 0.000415669 0)
(0.0928177 0.000392606 0)
(0.0919343 0.000370448 0)
(0.0910909 0.000349171 0)
(0.0902871 0.000328672 0)
(0.0895217 0.000308907 0)
(0.0887944 0.000289812 0)
(0.0881041 0.000271367 0)
(0.0874507 0.000253476 0)
(0.0868332 0.00023608 0)
(0.0862517 0.000219055 0)
(0.0857055 0.000202396 0)
(0.0851947 0.000186052 0)
(0.0847185 0.000170082 0)
(0.0842773 0.000154454 0)
(0.08387 0.000139263 0)
(0.0834971 0.000124446 0)
(0.0831572 0.000110084 0)
(0.0828507 9.61134e-05 0)
(0.0825762 8.26683e-05 0)
(0.082334 6.96404e-05 0)
(0.082122 5.71902e-05 0)
(0.0819406 4.52703e-05 0)
(0.0817871 3.41518e-05 0)
(0.0816613 2.37601e-05 0)
(0.0815599 1.44483e-05 0)
(0.0814821 6.27329e-06 0)
(0.0814238 -7.67481e-07 0)
(0.081384 -6.33322e-06 0)
(0.0813576 -1.07062e-05 0)
(0.0813435 -1.36639e-05 0)
(0.0813371 -1.51946e-05 0)
(0.0813375 -1.57767e-05 0)
(0.0813412 -1.55119e-05 0)
(0.0813476 -1.47702e-05 0)
(0.0813548 -1.36672e-05 0)
(0.0813625 -1.25759e-05 0)
(0.0813705 -1.14163e-05 0)
(0.0813779 -1.04979e-05 0)
(0.0813861 -9.57898e-06 0)
(0.0813932 -9.00039e-06 0)
(0.0814022 -8.33026e-06 0)
(0.0814095 -8.01604e-06 0)
(0.0814198 -7.44972e-06 0)
(0.0814271 -7.25015e-06 0)
(0.0814389 -6.60473e-06 0)
(0.0814454 -6.41241e-06 0)
(0.0814584 -5.5796e-06 0)
(0.0814632 -5.35005e-06 0)
(0.0814769 -4.39967e-06 0)
(0.0814791 -4.15811e-06 0)
(0.0814932 -3.51787e-06 0)
(0.193038 0.007048 0)
(0.193417 0.00894814 0)
(0.194494 0.0104333 0)
(0.196068 0.0111616 0)
(0.197655 0.0112992 0)
(0.198892 0.0110794 0)
(0.199635 0.0106019 0)
(0.199864 0.00990811 0)
(0.199599 0.00906517 0)
(0.198882 0.00818137 0)
(0.197774 0.00736066 0)
(0.196362 0.00666055 0)
(0.194734 0.00608811 0)
(0.192965 0.00562034 0)
(0.191099 0.00522974 0)
(0.189161 0.00489389 0)
(0.187164 0.00459726 0)
(0.185119 0.0043298 0)
(0.183037 0.00408443 0)
(0.180927 0.00385611 0)
(0.178797 0.00364244 0)
(0.176654 0.00344312 0)
(0.174502 0.00325775 0)
(0.172348 0.00308456 0)
(0.170197 0.00292106 0)
(0.168054 0.00276565 0)
(0.165925 0.00261828 0)
(0.163819 0.00247972 0)
(0.161743 0.00235034 0)
(0.159704 0.00222958 0)
(0.157704 0.00211643 0)
(0.155743 0.00201011 0)
(0.153822 0.00191018 0)
(0.15194 0.00181624 0)
(0.150096 0.00172766 0)
(0.148294 0.00164376 0)
(0.146536 0.00156403 0)
(0.144823 0.00148819 0)
(0.143158 0.00141608 0)
(0.141541 0.00134753 0)
(0.139971 0.0012824 0)
(0.138446 0.00122054 0)
(0.136965 0.00116177 0)
(0.135528 0.0011059 0)
(0.134134 0.00105257 0)
(0.132784 0.00100141 0)
(0.131478 0.000952042 0)
(0.130217 0.000904266 0)
(0.129 0.000858008 0)
(0.127826 0.000813333 0)
(0.126696 0.00077024 0)
(0.125609 0.000728652 0)
(0.124563 0.00068839 0)
(0.123559 0.00064938 0)
(0.122598 0.000611539 0)
(0.121677 0.000574849 0)
(0.120799 0.000539174 0)
(0.119961 0.000504415 0)
(0.119166 0.000470381 0)
(0.118412 0.000437052 0)
(0.117699 0.000404345 0)
(0.117028 0.000372344 0)
(0.116398 0.000340998 0)
(0.115809 0.000310454 0)
(0.11526 0.00028063 0)
(0.114752 0.000251655 0)
(0.114284 0.000223453 0)
(0.113855 0.000196254 0)
(0.113466 0.000169919 0)
(0.113115 0.000144722 0)
(0.112801 0.000120626 0)
(0.112522 9.81041e-05 0)
(0.112279 7.706e-05 0)
(0.112067 5.79538e-05 0)
(0.111886 4.08374e-05 0)
(0.111731 2.65006e-05 0)
(0.111601 1.45678e-05 0)
(0.111492 4.88449e-06 0)
(0.111403 -2.43593e-06 0)
(0.111328 -7.20984e-06 0)
(0.111266 -1.01776e-05 0)
(0.111213 -1.14873e-05 0)
(0.111168 -1.20607e-05 0)
(0.11113 -1.17871e-05 0)
(0.111096 -1.13186e-05 0)
(0.111067 -1.04973e-05 0)
(0.11104 -9.99173e-06 0)
(0.111017 -9.31382e-06 0)
(0.110996 -9.16775e-06 0)
(0.11098 -8.73892e-06 0)
(0.110963 -8.89126e-06 0)
(0.110953 -8.51826e-06 0)
(0.110941 -8.75586e-06 0)
(0.110935 -8.18247e-06 0)
(0.110926 -8.31975e-06 0)
(0.110924 -7.42026e-06 0)
(0.110919 -7.35778e-06 0)
(0.110919 -6.27051e-06 0)
(0.110916 -6.03542e-06 0)
(0.110917 -5.21828e-06 0)
(0.193901 0.00674979 0)
(0.19425 0.00819745 0)
(0.195097 0.00948084 0)
(0.196415 0.0102641 0)
(0.197925 0.0105189 0)
(0.199328 0.0104 0)
(0.200465 0.0100398 0)
(0.201292 0.00950968 0)
(0.201812 0.00886314 0)
(0.202035 0.00816986 0)
(0.201987 0.00750523 0)
(0.20171 0.00692203 0)
(0.201262 0.00643782 0)
(0.200696 0.00604154 0)
(0.200045 0.0057121 0)
(0.199325 0.00543009 0)
(0.198541 0.00518128 0)
(0.197697 0.00495602 0)
(0.196794 0.00474749 0)
(0.195836 0.00455117 0)
(0.194826 0.00436529 0)
(0.193767 0.00419007 0)
(0.192662 0.00402568 0)
(0.191514 0.00387093 0)
(0.190322 0.00372362 0)
(0.189087 0.00358161 0)
(0.187811 0.00344354 0)
(0.186498 0.0033089 0)
(0.185158 0.0031778 0)
(0.183798 0.00305078 0)
(0.182427 0.00292872 0)
(0.181051 0.00281273 0)
(0.17967 0.0027034 0)
(0.178284 0.00260019 0)
(0.176891 0.00250149 0)
(0.17549 0.00240537 0)
(0.174086 0.00231061 0)
(0.172682 0.00221715 0)
(0.171287 0.00212577 0)
(0.169907 0.00203757 0)
(0.168546 0.00195333 0)
(0.167205 0.00187317 0)
(0.165881 0.00179653 0)
(0.164574 0.00172262 0)
(0.163281 0.00165062 0)
(0.162006 0.00158003 0)
(0.160753 0.00151068 0)
(0.159524 0.00144272 0)
(0.158324 0.00137639 0)
(0.157153 0.00131197 0)
(0.156012 0.00124951 0)
(0.154901 0.00118888 0)
(0.15382 0.00112975 0)
(0.152769 0.00107197 0)
(0.151749 0.00101539 0)
(0.15076 0.000960004 0)
(0.149805 0.000905684 0)
(0.148883 0.000852383 0)
(0.147997 0.000799921 0)
(0.147146 0.000748339 0)
(0.146334 0.000697583 0)
(0.145558 0.000647784 0)
(0.144822 0.000598871 0)
(0.144122 0.000551034 0)
(0.143462 0.000504157 0)
(0.142838 0.000458418 0)
(0.142254 0.000413707 0)
(0.141707 0.00037037 0)
(0.141199 0.000328254 0)
(0.140728 0.000287784 0)
(0.140295 0.000248922 0)
(0.139898 0.000212339 0)
(0.139537 0.000177925 0)
(0.13921 0.000146414 0)
(0.138916 0.000117755 0)
(0.138651 9.28081e-05 0)
(0.138415 7.11711e-05 0)
(0.138204 5.36516e-05 0)
(0.138017 3.94108e-05 0)
(0.137849 2.87402e-05 0)
(0.1377 2.07332e-05 0)
(0.137567 1.53761e-05 0)
(0.137447 1.13403e-05 0)
(0.137339 8.84105e-06 0)
(0.137241 6.87913e-06 0)
(0.137153 5.75611e-06 0)
(0.137072 4.44238e-06 0)
(0.136999 3.60662e-06 0)
(0.136931 2.24426e-06 0)
(0.136871 1.37976e-06 0)
(0.136816 -7.23501e-08 0)
(0.136766 -8.40177e-07 0)
(0.136723 -2.14116e-06 0)
(0.136681 -2.57524e-06 0)
(0.136648 -3.48953e-06 0)
(0.136612 -3.4745e-06 0)
(0.13659 -3.87858e-06 0)
(0.136556 -3.62832e-06 0)
(0.136544 -3.60001e-06 0)
(0.136511 -3.56862e-06 0)
(0.194621 0.00651391 0)
(0.194958 0.00768353 0)
(0.195656 0.00876548 0)
(0.196723 0.009522 0)
(0.197998 0.00984736 0)
(0.199262 0.00981109 0)
(0.200359 0.0095345 0)
(0.201233 0.00910621 0)
(0.201881 0.00858147 0)
(0.202318 0.00801007 0)
(0.202563 0.00744661 0)
(0.202646 0.00693668 0)
(0.202608 0.00650289 0)
(0.202489 0.00614409 0)
(0.202319 0.00584627 0)
(0.202113 0.00559341 0)
(0.201875 0.00537237 0)
(0.201607 0.00517349 0)
(0.201306 0.0049899 0)
(0.200971 0.00481707 0)
(0.200602 0.00465316 0)
(0.2002 0.00449865 0)
(0.199766 0.00435444 0)
(0.199299 0.00422037 0)
(0.198799 0.00409492 0)
(0.198261 0.00397576 0)
(0.197682 0.0038603 0)
(0.197061 0.00374626 0)
(0.196401 0.00363223 0)
(0.195707 0.00351807 0)
(0.194986 0.00340503 0)
(0.194244 0.0032955 0)
(0.193486 0.00319194 0)
(0.192711 0.00309551 0)
(0.191916 0.0030052 0)
(0.191095 0.00291828 0)
(0.190245 0.00283157 0)
(0.189367 0.00274284 0)
(0.188467 0.00265165 0)
(0.187554 0.00255953 0)
(0.186638 0.00246919 0)
(0.185722 0.00238298 0)
(0.184809 0.00230182 0)
(0.183892 0.00222489 0)
(0.182968 0.00215007 0)
(0.182034 0.00207517 0)
(0.181092 0.00199901 0)
(0.180149 0.00192181 0)
(0.179211 0.0018447 0)
(0.178283 0.00176892 0)
(0.177367 0.00169505 0)
(0.176463 0.00162304 0)
(0.175571 0.00155246 0)
(0.174691 0.00148308 0)
(0.173825 0.00141469 0)
(0.172973 0.00134715 0)
(0.172135 0.00128012 0)
(0.171314 0.00121342 0)
(0.170511 0.00114684 0)
(0.169728 0.00108058 0)
(0.16897 0.0010148 0)
(0.168236 0.000949892 0)
(0.16753 0.000885898 0)
(0.16685 0.000823128 0)
(0.166199 0.000761427 0)
(0.165575 0.000701005 0)
(0.164979 0.000641637 0)
(0.16441 0.000583725 0)
(0.163871 0.000527052 0)
(0.16336 0.000472202 0)
(0.162879 0.000419101 0)
(0.162426 0.000368683 0)
(0.162004 0.000320823 0)
(0.161609 0.000276529 0)
(0.161245 0.000235635 0)
(0.160906 0.00019939 0)
(0.160594 0.000167291 0)
(0.160305 0.000140192 0)
(0.160041 0.000117055 0)
(0.159796 9.84701e-05 0)
(0.159571 8.32092e-05 0)
(0.159364 7.14759e-05 0)
(0.159174 6.19615e-05 0)
(0.158998 5.47497e-05 0)
(0.158836 4.85569e-05 0)
(0.158686 4.36275e-05 0)
(0.158549 3.89592e-05 0)
(0.158419 3.49391e-05 0)
(0.158304 3.08616e-05 0)
(0.158191 2.71877e-05 0)
(0.158095 2.35531e-05 0)
(0.157996 2.02271e-05 0)
(0.15792 1.72875e-05 0)
(0.15783 1.44866e-05 0)
(0.157772 1.2497e-05 0)
(0.157688 1.02598e-05 0)
(0.157648 9.28409e-06 0)
(0.157564 7.32554e-06 0)
(0.157544 7.11149e-06 0)
(0.157458 5.10406e-06 0)
(0.19524 0.00630413 0)
(0.195563 0.00727677 0)
(0.196158 0.00818292 0)
(0.197032 0.00886706 0)
(0.198093 0.00922208 0)
(0.199188 0.00925808 0)
(0.200181 0.00906107 0)
(0.201002 0.00871748 0)
(0.201637 0.00828575 0)
(0.202099 0.00780831 0)
(0.202407 0.00732621 0)
(0.202586 0.00687642 0)
(0.202667 0.00648196 0)
(0.202684 0.00614831 0)
(0.202664 0.0058685 0)
(0.202622 0.00563061 0)
(0.202567 0.005423 0)
(0.202501 0.00523643 0)
(0.202421 0.00506426 0)
(0.202326 0.00490211 0)
(0.202215 0.00474821 0)
(0.20209 0.0046032 0)
(0.201949 0.0044685 0)
(0.201795 0.00434469 0)
(0.201625 0.00423104 0)
(0.201437 0.00412568 0)
(0.201227 0.00402585 0)
(0.200991 0.00392827 0)
(0.200728 0.00382999 0)
(0.20044 0.00372942 0)
(0.20013 0.00362694 0)
(0.199803 0.00352508 0)
(0.199465 0.00342761 0)
(0.199115 0.0033378 0)
(0.198754 0.00325657 0)
(0.198374 0.00318184 0)
(0.197969 0.00310942 0)
(0.197535 0.00303473 0)
(0.197071 0.00295461 0)
(0.196583 0.00286886 0)
(0.196081 0.0027804 0)
(0.195574 0.0026937 0)
(0.195065 0.00261249 0)
(0.194552 0.00253815 0)
(0.194029 0.00246892 0)
(0.193487 0.00240093 0)
(0.192925 0.00233031 0)
(0.192343 0.00225536 0)
(0.19175 0.00217717 0)
(0.191154 0.00209837 0)
(0.190557 0.00202094 0)
(0.18996 0.00194534 0)
(0.189363 0.00187098 0)
(0.188766 0.00179753 0)
(0.188171 0.00172498 0)
(0.187576 0.00165337 0)
(0.186983 0.00158218 0)
(0.186389 0.00151072 0)
(0.185797 0.00143825 0)
(0.185208 0.00136479 0)
(0.184627 0.00129056 0)
(0.184055 0.00121635 0)
(0.183497 0.00114256 0)
(0.182952 0.00106986 0)
(0.182424 0.000998257 0)
(0.18191 0.0009281 0)
(0.181413 0.000859056 0)
(0.180929 0.000791502 0)
(0.180462 0.000725002 0)
(0.180009 0.000660197 0)
(0.179574 0.000596858 0)
(0.179155 0.000536129 0)
(0.178755 0.000477801 0)
(0.178373 0.000423282 0)
(0.178012 0.000372368 0)
(0.177669 0.000326619 0)
(0.177346 0.000285305 0)
(0.177039 0.000249548 0)
(0.176752 0.000218179 0)
(0.17648 0.000191957 0)
(0.176226 0.000169566 0)
(0.175985 0.00015121 0)
(0.175762 0.000135615 0)
(0.175549 0.000122573 0)
(0.175355 0.000111342 0)
(0.175166 0.000101388 0)
(0.174997 9.26538e-05 0)
(0.174828 8.41451e-05 0)
(0.174683 7.67467e-05 0)
(0.174529 6.88664e-05 0)
(0.174408 6.25803e-05 0)
(0.174267 5.52535e-05 0)
(0.174171 5.04181e-05 0)
(0.174038 4.38671e-05 0)
(0.173967 4.08413e-05 0)
(0.173836 3.51213e-05 0)
(0.173789 3.37878e-05 0)
(0.173654 2.8572e-05 0)
(0.173631 2.82644e-05 0)
(0.17349 2.33025e-05 0)
(0.19578 0.00610642 0)
(0.196085 0.00692509 0)
(0.1966 0.00768486 0)
(0.197328 0.00828406 0)
(0.198211 0.008638 0)
(0.199149 0.0087287 0)
(0.200031 0.00860503 0)
(0.200786 0.00833789 0)
(0.201387 0.00798455 0)
(0.201839 0.00758549 0)
(0.20216 0.00717458 0)
(0.202369 0.00678102 0)
(0.202492 0.00642525 0)
(0.202557 0.00611623 0)
(0.202586 0.0058525 0)
(0.202595 0.00562603 0)
(0.202595 0.0054271 0)
(0.202589 0.00524746 0)
(0.202576 0.00508113 0)
(0.202556 0.0049242 0)
(0.202529 0.00477503 0)
(0.202493 0.00463418 0)
(0.202451 0.0045031 0)
(0.202404 0.00438284 0)
(0.202351 0.00427337 0)
(0.202292 0.00417353 0)
(0.202225 0.0040809 0)
(0.202147 0.00399193 0)
(0.202057 0.00390278 0)
(0.201953 0.00381072 0)
(0.201837 0.00371519 0)
(0.20171 0.00361814 0)
(0.201577 0.00352359 0)
(0.20144 0.0034361 0)
(0.2013 0.00335853 0)
(0.201154 0.00329033 0)
(0.200996 0.00322769 0)
(0.200821 0.00316497 0)
(0.200624 0.00309664 0)
(0.200406 0.00301983 0)
(0.200174 0.00293597 0)
(0.199935 0.0028501 0)
(0.199695 0.00276829 0)
(0.199456 0.0026948 0)
(0.199214 0.00263004 0)
(0.198961 0.00257029 0)
(0.198689 0.00250941 0)
(0.198396 0.00244251 0)
(0.198086 0.00236879 0)
(0.197766 0.00229147 0)
(0.197443 0.00221437 0)
(0.197116 0.00213918 0)
(0.196785 0.00206528 0)
(0.196449 0.00199192 0)
(0.19611 0.00191918 0)
(0.195769 0.00184772 0)
(0.195424 0.00177735 0)
(0.195072 0.00170714 0)
(0.194714 0.00163555 0)
(0.194348 0.00156185 0)
(0.193978 0.00148589 0)
(0.193606 0.00140854 0)
(0.193237 0.00133052 0)
(0.192871 0.00125299 0)
(0.192512 0.00117629 0)
(0.192158 0.00110113 0)
(0.191811 0.00102727 0)
(0.191469 0.00095515 0)
(0.191133 0.000884104 0)
(0.190801 0.000814711 0)
(0.190476 0.000746418 0)
(0.190154 0.0006804 0)
(0.189842 0.000616271 0)
(0.189535 0.000555732 0)
(0.189241 0.000498509 0)
(0.188954 0.000446452 0)
(0.18868 0.000398874 0)
(0.188414 0.000357078 0)
(0.188163 0.000319967 0)
(0.187917 0.000288084 0)
(0.187687 0.000260371 0)
(0.187461 0.00023641 0)
(0.187253 0.000215848 0)
(0.187046 0.000197411 0)
(0.186862 0.000181992 0)
(0.186672 0.000167127 0)
(0.18651 0.00015508 0)
(0.186332 0.000141973 0)
(0.186191 0.000131884 0)
(0.186022 0.000119385 0)
(0.185904 0.00011088 0)
(0.185743 9.88272e-05 0)
(0.185651 9.24006e-05 0)
(0.185493 8.13158e-05 0)
(0.185428 7.75999e-05 0)
(0.18527 6.79398e-05 0)
(0.185229 6.66631e-05 0)
(0.185064 5.81532e-05 0)
(0.185045 5.80489e-05 0)
(0.18487 5.01885e-05 0)
(0.196253 0.00591596 0)
(0.196539 0.00660968 0)
(0.196988 0.00725064 0)
(0.197602 0.00777021 0)
(0.198343 0.00810635 0)
(0.199142 0.00823305 0)
(0.199917 0.00817166 0)
(0.200603 0.00797308 0)
(0.201165 0.00768865 0)
(0.201602 0.00735742 0)
(0.201923 0.00700927 0)
(0.202146 0.00666804 0)
(0.202292 0.00635105 0)
(0.202382 0.00606815 0)
(0.202437 0.00582128 0)
(0.202469 0.00560591 0)
(0.202491 0.00541472 0)
(0.202506 0.00524095 0)
(0.202516 0.00507942 0)
(0.20252 0.00492672 0)
(0.202518 0.00478131 0)
(0.202509 0.00464347 0)
(0.202495 0.0045145 0)
(0.202478 0.00439571 0)
(0.202458 0.00428758 0)
(0.202436 0.00418938 0)
(0.202413 0.00409903 0)
(0.202386 0.00401318 0)
(0.202355 0.00392792 0)
(0.202319 0.00384012 0)
(0.202276 0.00374855 0)
(0.202227 0.0036544 0)
(0.202174 0.00356113 0)
(0.202119 0.00347364 0)
(0.202065 0.00339599 0)
(0.202012 0.00332907 0)
(0.201956 0.00327011 0)
(0.201895 0.0032136 0)
(0.201823 0.00315296 0)
(0.201739 0.00308323 0)
(0.201645 0.00300384 0)
(0.201543 0.00291916 0)
(0.201441 0.00283617 0)
(0.201341 0.00276116 0)
(0.201244 0.00269694 0)
(0.201145 0.00264147 0)
(0.201038 0.00258808 0)
(0.200915 0.00252916 0)
(0.200778 0.00246114 0)
(0.200632 0.00238653 0)
(0.200482 0.00231057 0)
(0.200329 0.00223653 0)
(0.200173 0.00216413 0)
(0.200012 0.00209202 0)
(0.199849 0.00201999 0)
(0.199683 0.00194929 0)
(0.199516 0.00188057 0)
(0.199342 0.00181315 0)
(0.199162 0.00174499 0)
(0.198972 0.00167449 0)
(0.198775 0.00160076 0)
(0.19857 0.00152439 0)
(0.198361 0.00144614 0)
(0.19815 0.00136745 0)
(0.19794 0.001289 0)
(0.19773 0.00121193 0)
(0.197523 0.00113627 0)
(0.197314 0.00106272 0)
(0.197109 0.000990524 0)
(0.196901 0.000920206 0)
(0.196694 0.000850907 0)
(0.196484 0.000783671 0)
(0.196276 0.00071784 0)
(0.196066 0.000655075 0)
(0.195862 0.000595125 0)
(0.195657 0.000539973 0)
(0.195461 0.000489284 0)
(0.195264 0.00044418 0)
(0.195078 0.000404078 0)
(0.194889 0.000368734 0)
(0.194715 0.000338061 0)
(0.194534 0.000310231 0)
(0.194373 0.00028668 0)
(0.194201 0.000264031 0)
(0.194058 0.000245973 0)
(0.193895 0.000227072 0)
(0.193769 0.000213183 0)
(0.193611 0.000196309 0)
(0.1935 0.000184945 0)
(0.193343 0.000168464 0)
(0.193251 0.000158856 0)
(0.193095 0.000142335 0)
(0.193025 0.000134954 0)
(0.192868 0.000119349 0)
(0.192824 0.00011522 0)
(0.192664 0.000101944 0)
(0.192642 0.000100958 0)
(0.192474 9.01617e-05 0)
(0.192466 9.04949e-05 0)
(0.192288 8.11999e-05 0)
(0.196671 0.00573225 0)
(0.196936 0.00632376 0)
(0.19733 0.00686933 0)
(0.197854 0.00732002 0)
(0.198481 0.00763102 0)
(0.199161 0.00777755 0)
(0.199837 0.00776504 0)
(0.200454 0.00762631 0)
(0.200975 0.0074034 0)
(0.201391 0.0071319 0)
(0.201709 0.00683875 0)
(0.201939 0.00654489 0)
(0.2021 0.00626537 0)
(0.202209 0.00600926 0)
(0.202282 0.00578013 0)
(0.202331 0.00557653 0)
(0.202366 0.00539374 0)
(0.202394 0.00522639 0)
(0.202415 0.00507009 0)
(0.20243 0.00492192 0)
(0.202438 0.00478054 0)
(0.20244 0.00464608 0)
(0.202436 0.00451966 0)
(0.202427 0.00440255 0)
(0.202416 0.00429535 0)
(0.202404 0.00419751 0)
(0.202391 0.00410733 0)
(0.202379 0.00402197 0)
(0.202366 0.00393786 0)
(0.202352 0.00385197 0)
(0.202334 0.00376281 0)
(0.202312 0.00367088 0)
(0.202286 0.00357889 0)
(0.202257 0.00349142 0)
(0.202229 0.00341284 0)
(0.202203 0.00334485 0)
(0.202179 0.00328561 0)
(0.202156 0.00323045 0)
(0.202132 0.00317297 0)
(0.202102 0.00310734 0)
(0.202066 0.00303145 0)
(0.202025 0.00294849 0)
(0.201981 0.00286514 0)
(0.201937 0.0027883 0)
(0.201897 0.00272232 0)
(0.20186 0.00266707 0)
(0.201823 0.00261683 0)
(0.201779 0.00256291 0)
(0.201728 0.00249936 0)
(0.201669 0.00242727 0)
(0.201607 0.00235228 0)
(0.201543 0.00227901 0)
(0.201478 0.00220772 0)
(0.201409 0.00213664 0)
(0.20134 0.00206505 0)
(0.201269 0.00199449 0)
(0.201198 0.00192641 0)
(0.201125 0.00186078 0)
(0.201049 0.00179552 0)
(0.200965 0.00172846 0)
(0.200875 0.00165799 0)
(0.200777 0.0015842 0)
(0.200675 0.00150766 0)
(0.200566 0.00142985 0)
(0.200457 0.00135158 0)
(0.200344 0.00127425 0)
(0.200232 0.00119823 0)
(0.200118 0.0011245 0)
(0.200005 0.00105247 0)
(0.199888 0.000982659 0)
(0.199771 0.00091412 0)
(0.199648 0.000847637 0)
(0.199526 0.000782374 0)
(0.199398 0.000719645 0)
(0.199273 0.000659389 0)
(0.199141 0.000603309 0)
(0.199017 0.000551747 0)
(0.198886 0.000505197 0)
(0.198766 0.000464164 0)
(0.198634 0.000427093 0)
(0.198519 0.000395514 0)
(0.198388 0.000365407 0)
(0.198279 0.000340614 0)
(0.198151 0.00031491 0)
(0.198055 0.000295528 0)
(0.197929 0.000273511 0)
(0.197847 0.000259024 0)
(0.197721 0.000239432 0)
(0.19765 0.000228137 0)
(0.19752 0.000208777 0)
(0.197462 0.000199212 0)
(0.197326 0.000179112 0)
(0.197286 0.000171379 0)
(0.197147 0.000151934 0)
(0.197128 0.000147407 0)
(0.196986 0.000131401 0)
(0.196984 0.000130526 0)
(0.196836 0.000118975 0)
(0.19684 0.000119704 0)
(0.196683 0.000111076 0)
(0.197042 0.00555586 0)
(0.197286 0.00606389 0)
(0.197634 0.0065323 0)
(0.198084 0.0069249 0)
(0.198618 0.00720875 0)
(0.1992 0.00736331 0)
(0.199787 0.00738679 0)
(0.200335 0.0072983 0)
(0.200814 0.00712932 0)
(0.201207 0.00691022 0)
(0.201516 0.00666533 0)
(0.20175 0.00641391 0)
(0.20192 0.00616954 0)
(0.202042 0.00594007 0)
(0.20213 0.0057296 0)
(0.202193 0.00553894 0)
(0.20224 0.00536556 0)
(0.202277 0.00520535 0)
(0.202307 0.00505482 0)
(0.202329 0.00491175 0)
(0.202344 0.00477506 0)
(0.202352 0.0046448 0)
(0.202354 0.0045218 0)
(0.20235 0.00440707 0)
(0.202343 0.00430106 0)
(0.202334 0.00420342 0)
(0.202326 0.00411289 0)
(0.202318 0.00402716 0)
(0.202311 0.00394307 0)
(0.202304 0.00385792 0)
(0.202294 0.00377041 0)
(0.202282 0.00368064 0)
(0.202265 0.00359055 0)
(0.202244 0.003504 0)
(0.202223 0.00342505 0)
(0.202203 0.00335554 0)
(0.202186 0.0032943 0)
(0.202173 0.00323768 0)
(0.202163 0.00318023 0)
(0.202152 0.00311624 0)
(0.202139 0.00304283 0)
(0.202121 0.00296211 0)
(0.202098 0.00287983 0)
(0.202074 0.00280237 0)
(0.202051 0.00273442 0)
(0.202032 0.00267719 0)
(0.202017 0.00262658 0)
(0.202003 0.0025743 0)
(0.201986 0.00251333 0)
(0.201964 0.00244325 0)
(0.20194 0.00236924 0)
(0.201914 0.00229645 0)
(0.201887 0.00222576 0)
(0.201858 0.00215525 0)
(0.201829 0.00208385 0)
(0.2018 0.002013 0)
(0.201771 0.00194468 0)
(0.201742 0.00187943 0)
(0.201714 0.00181554 0)
(0.201681 0.00175067 0)
(0.201646 0.00168282 0)
(0.201603 0.00161162 0)
(0.201557 0.00153736 0)
(0.201505 0.00146128 0)
(0.20145 0.00138419 0)
(0.201391 0.00130748 0)
(0.201332 0.00123175 0)
(0.201269 0.00115818 0)
(0.201208 0.00108652 0)
(0.201143 0.0010173 0)
(0.20108 0.000949748 0)
(0.20101 0.000884326 0)
(0.200942 0.000820309 0)
(0.200866 0.000758415 0)
(0.200794 0.000698937 0)
(0.200712 0.000642875 0)
(0.200639 0.000591559 0)
(0.200554 0.000544518 0)
(0.200482 0.000503777 0)
(0.200393 0.000466045 0)
(0.200322 0.000434808 0)
(0.200229 0.000403445 0)
(0.200163 0.00037847 0)
(0.200069 0.00035054 0)
(0.200011 0.000330581 0)
(0.199918 0.000306097 0)
(0.199871 0.000291655 0)
(0.199775 0.000270133 0)
(0.199738 0.000259704 0)
(0.199635 0.000238479 0)
(0.199606 0.00022972 0)
(0.199494 0.000207075 0)
(0.199479 0.000199332 0)
(0.199363 0.000176953 0)
(0.199364 0.00017179 0)
(0.199247 0.000154001 0)
(0.199261 0.000152728 0)
(0.199141 0.000141806 0)
(0.199154 0.000142609 0)
(0.199028 0.000136548 0)
(0.197372 0.00538747 0)
(0.197597 0.00582701 0)
(0.197905 0.00623224 0)
(0.198294 0.0065761 0)
(0.198752 0.00683372 0)
(0.199251 0.00698882 0)
(0.19976 0.00703719 0)
(0.200245 0.00698882 0)
(0.200679 0.0068656 0)
(0.201047 0.00669234 0)
(0.201345 0.00649044 0)
(0.201577 0.00627722 0)
(0.201754 0.00606514 0)
(0.201885 0.00586143 0)
(0.201984 0.00567021 0)
(0.202058 0.00549342 0)
(0.202115 0.00533021 0)
(0.20216 0.00517783 0)
(0.202197 0.00503384 0)
(0.202225 0.00489671 0)
(0.202246 0.0047655 0)
(0.20226 0.00464004 0)
(0.202266 0.00452097 0)
(0.202266 0.0044091 0)
(0.202263 0.00430476 0)
(0.202258 0.00420769 0)
(0.202252 0.00411696 0)
(0.202246 0.00403073 0)
(0.202242 0.00394633 0)
(0.202237 0.00386149 0)
(0.202232 0.00377528 0)
(0.202223 0.00368772 0)
(0.20221 0.00359999 0)
(0.202193 0.00351503 0)
(0.202174 0.00343635 0)
(0.202156 0.00336566 0)
(0.20214 0.00330208 0)
(0.202129 0.00324286 0)
(0.202122 0.00318375 0)
(0.202117 0.00311983 0)
(0.202112 0.0030481 0)
(0.202102 0.00296983 0)
(0.202088 0.00288969 0)
(0.20207 0.00281297 0)
(0.202051 0.00274384 0)
(0.202035 0.0026841 0)
(0.202025 0.00263115 0)
(0.202019 0.00257806 0)
(0.202014 0.00251799 0)
(0.202006 0.00244948 0)
(0.201996 0.00237668 0)
(0.201983 0.00230446 0)
(0.20197 0.00223406 0)
(0.201956 0.00216383 0)
(0.201943 0.00209258 0)
(0.201927 0.0020215 0)
(0.201914 0.00195266 0)
(0.2019 0.00188694 0)
(0.201889 0.00182314 0)
(0.201876 0.0017591 0)
(0.201863 0.00169283 0)
(0.201845 0.00162362 0)
(0.201825 0.00155154 0)
(0.201798 0.00147746 0)
(0.201769 0.00140205 0)
(0.201734 0.00132646 0)
(0.2017 0.00125146 0)
(0.20166 0.00117819 0)
(0.201624 0.00110684 0)
(0.201583 0.00103789 0)
(0.201545 0.00097099 0)
(0.201501 0.000906261 0)
(0.201461 0.000843363 0)
(0.201411 0.000782235 0)
(0.201368 0.000723718 0)
(0.201314 0.000667856 0)
(0.20127 0.000617195 0)
(0.201211 0.000570054 0)
(0.201167 0.000530129 0)
(0.201104 0.000492214 0)
(0.20106 0.000461838 0)
(0.200991 0.000429754 0)
(0.20095 0.000405069 0)
(0.200879 0.000375411 0)
(0.200845 0.000355159 0)
(0.200773 0.000328578 0)
(0.200749 0.00031435 0)