/*--------------------------------*- C++ -*----------------------------------*\
| =========                 |                                                 |
| \\      /  F ield         | OpenFOAM: The Open Source CFD Toolbox           |
|  \\    /   O peration     | Version:  2.3.0                                 |
|   \\  /    A nd           | Web:      www.OpenFOAM.org                      |
|    \\/     M anipulation  |                                                 |
\*---------------------------------------------------------------------------*/
FoamFile
{
    version     2.0;
    format      ascii;
    class       surfaceScalarField;
    location    "0.5";
    object      phi_0;
}
// * * * * * * * * * * * * * * * * * * * * * * * * * * * * * * * * * * * * * //

dimensions      [0 3 -1 0 0 0 0];

internalField   nonuniform List<scalar> 
3203
(
3.95901e-08
3.6071e-09
-4.31972e-08
3.50055e-08
4.58462e-09
3.04364e-08
4.5691e-09
2.61306e-08
4.30585e-09
2.21168e-08
4.01379e-09
1.85188e-08
3.59794e-09
1.55101e-08
3.00872e-09
1.31697e-08
2.34047e-09
1.14809e-08
1.68876e-09
1.03215e-08
1.15942e-09
9.53417e-09
7.87314e-10
8.98738e-09
5.46792e-10
8.58729e-09
4.00083e-10
8.27075e-09
3.16539e-10
7.99726e-09
2.73495e-10
7.74491e-09
2.52352e-10
7.50475e-09
2.40156e-10
7.27444e-09
2.30314e-10
7.05475e-09
2.19684e-10
6.84712e-09
2.0763e-10
6.65224e-09
1.94889e-10
6.47085e-09
1.81387e-10
6.30251e-09
1.68336e-10
6.14617e-09
1.56338e-10
6.00079e-09
1.45383e-10
5.86563e-09
1.35167e-10
5.74026e-09
1.25368e-10
5.62298e-09
1.17275e-10
5.51225e-09
1.10735e-10
5.40876e-09
1.03486e-10
5.31215e-09
9.66136e-11
5.22105e-09
9.10956e-11
5.135e-09
8.60528e-11
5.05357e-09
8.14266e-11
4.97726e-09
7.63177e-11
4.90627e-09
7.09821e-11
4.83878e-09
6.74967e-11
4.77453e-09
6.42499e-11
4.71504e-09
5.94846e-11
4.66008e-09
5.49605e-11
4.60812e-09
5.19599e-11
4.55948e-09
4.86383e-11
4.51449e-09
4.49964e-11
4.4726e-09
4.18918e-11
4.43386e-09
3.87394e-11
4.39877e-09
3.50843e-11
4.36741e-09
3.13598e-11
4.33887e-09
2.85411e-11
4.31329e-09
2.55767e-11
4.29045e-09
2.28441e-11
4.27053e-09
1.99249e-11
4.25339e-09
1.71375e-11
4.23938e-09
1.40112e-11
4.22757e-09
1.18105e-11
4.21848e-09
9.08213e-12
4.2109e-09
7.58473e-12
4.20556e-09
5.34091e-12
4.2008e-09
4.76057e-12
4.19763e-09
3.16853e-12
3.9976e-12
4.67221e-08
3.26217e-09
-4.63772e-08
4.64315e-08
4.87516e-09
4.54758e-08
5.52484e-09
4.41673e-08
5.61436e-09
4.26224e-08
5.55865e-09
4.08587e-08
5.36168e-09
3.89179e-08
4.94955e-09
3.69123e-08
4.34598e-09
3.49586e-08
3.64251e-09
3.3141e-08
2.97703e-09
3.14873e-08
2.441e-09
2.99884e-08
2.04564e-09
2.86338e-08
1.75471e-09
2.7416e-08
1.53432e-09
2.63196e-08
1.36996e-09
2.53287e-08
1.24324e-09
2.4429e-08
1.13979e-09
2.36081e-08
1.05127e-09
2.28555e-08
9.72249e-10
2.2163e-08
9.00166e-10
2.15236e-08
8.34286e-10
2.09321e-08
7.72923e-10
2.03833e-08
7.17105e-10
1.98729e-08
6.66722e-10
1.93971e-08
6.21164e-10
1.8953e-08
5.79304e-10
1.85379e-08
5.40428e-10
1.81485e-08
5.06716e-10
1.7782e-08
4.77253e-10
1.74379e-08
4.47583e-10
1.71145e-08
4.19998e-10
1.68095e-08
3.96093e-10
1.65215e-08
3.74026e-10
1.62498e-08
3.53135e-10
1.59943e-08
3.31854e-10
1.5754e-08
3.11215e-10
1.55267e-08
2.94802e-10
1.53125e-08
2.78516e-10
1.51122e-08
2.59779e-10
1.49249e-08
2.42253e-10
1.47488e-08
2.28031e-10
1.45845e-08
2.12948e-10
1.44317e-08
1.97778e-10
1.429e-08
1.83646e-10
1.41591e-08
1.69586e-10
1.40398e-08
1.54383e-10
1.39315e-08
1.39667e-10
1.38334e-08
1.26598e-10
1.37453e-08
1.13701e-10
1.36671e-08
1.01044e-10
1.35985e-08
8.85782e-11
1.35395e-08
7.61157e-11
1.34896e-08
6.38657e-11
1.34481e-08
5.33148e-11
1.34145e-08
4.27511e-11
1.33873e-08
3.47862e-11
1.33661e-08
2.6492e-11
1.33488e-08
2.20993e-11
1.3335e-08
1.69228e-11
1.7229e-11
4.92837e-08
3.07201e-09
-4.90936e-08
4.97572e-08
4.40169e-09
4.9962e-08
5.32007e-09
4.99603e-08
5.61602e-09
4.98362e-08
5.68278e-09
4.95676e-08
5.63028e-09
4.90958e-08
5.42132e-09
4.84204e-08
5.02139e-09
4.75854e-08
4.47753e-09
4.66573e-08
3.90511e-09
4.56902e-08
3.40811e-09
4.47112e-08
3.0246e-09
4.37295e-08
2.73649e-09
4.27515e-08
2.51233e-09
4.17865e-08
2.33494e-09
4.08402e-08
2.18952e-09
3.99163e-08
2.06369e-09
3.90173e-08
1.95024e-09
3.81452e-08
1.84441e-09
3.73007e-08
1.74468e-09
3.64847e-08
1.65029e-09
3.56981e-08
1.55951e-09
3.49412e-08
1.47398e-09
3.42147e-08
1.39323e-09
3.35184e-08
1.31746e-09
3.28523e-08
1.24535e-09
3.22165e-08
1.17632e-09
3.16092e-08
1.11393e-09
3.10295e-08
1.05704e-09
3.04771e-08
9.99939e-10
2.99511e-08
9.4597e-10
2.94503e-08
8.96935e-10
2.89729e-08
8.51426e-10
2.85184e-08
8.07657e-10
2.80871e-08
7.63131e-10
2.76779e-08
7.20395e-10
2.72882e-08
6.84547e-10
2.69187e-08
6.47957e-10
2.65699e-08
6.08576e-10
2.62406e-08
5.71624e-10
2.5929e-08
5.39591e-10
2.56365e-08
5.0548e-10
2.53618e-08
4.72399e-10
2.5105e-08
4.40507e-10
2.48655e-08
4.09115e-10
2.46445e-08
3.75293e-10
2.44408e-08
3.43386e-10
2.42545e-08
3.12887e-10
2.40844e-08
2.83884e-10
2.39312e-08
2.54183e-10
2.37935e-08
2.26294e-10
2.36726e-08
1.97025e-10
2.35662e-08
1.70253e-10
2.34751e-08
1.44431e-10
2.33966e-08
1.21235e-10
2.3331e-08
1.00359e-10
2.32753e-08
8.22663e-11
2.32292e-08
6.81915e-11
2.31887e-08
5.73702e-11
5.17492e-11
5.19742e-08
3.00832e-09
-5.19105e-08
5.23589e-08
4.01694e-09
5.27578e-08
4.92124e-09
5.30346e-08
5.3392e-09
5.32626e-08
5.45472e-09
5.34574e-08
5.43554e-09
5.35688e-08
5.30989e-09
5.35505e-08
5.03968e-09
5.33913e-08
4.63677e-09
5.31172e-08
4.17916e-09
5.27685e-08
3.75684e-09
5.23737e-08
3.41935e-09
5.19424e-08
3.16786e-09
5.14778e-08
2.97687e-09
5.09861e-08
2.82667e-09
5.04723e-08
2.70327e-09
4.99402e-08
2.59586e-09
4.93924e-08
2.49799e-09
4.88325e-08
2.40435e-09
4.82626e-08
2.31453e-09
4.7685e-08
2.22791e-09
4.71016e-08
2.14294e-09
4.65135e-08
2.06203e-09
4.59238e-08
1.98297e-09
4.53344e-08
1.90686e-09
4.47476e-08
1.83215e-09
4.4166e-08
1.75792e-09
4.3591e-08
1.68898e-09
4.30239e-08
1.62406e-09
4.24671e-08
1.55681e-09
4.19207e-08
1.49235e-09
4.13868e-08
1.43085e-09
4.08654e-08
1.37276e-09
4.0357e-08
1.31609e-09
3.98633e-08
1.25686e-09
3.93854e-08
1.19829e-09
3.89215e-08
1.14844e-09
3.84742e-08
1.09525e-09
3.80442e-08
1.03858e-09
3.76311e-08
9.84756e-10
3.72335e-08
9.37197e-10
3.68546e-08
8.84376e-10
3.64931e-08
8.33887e-10
3.61502e-08
7.83404e-10
3.58251e-08
7.34222e-10
3.55206e-08
6.79789e-10
3.52339e-08
6.30029e-10
3.49673e-08
5.79564e-10
3.47182e-08
5.32933e-10
3.44899e-08
4.8248e-10
3.42791e-08
4.37071e-10
3.40897e-08
3.86495e-10
3.39166e-08
3.43272e-10
3.37637e-08
2.97322e-10
3.36253e-08
2.59704e-10
3.35055e-08
2.20104e-10
3.33971e-08
1.90716e-10
3.33054e-08
1.59916e-10
3.32199e-08
1.42803e-10
1.23412e-10
5.48262e-08
2.96737e-09
-5.47852e-08
5.5096e-08
3.74711e-09
5.54833e-08
4.53393e-09
5.58106e-08
5.01188e-09
5.6083e-08
5.1823e-09
5.63409e-08
5.17764e-09
5.6572e-08
5.07884e-09
5.67374e-08
4.87425e-09
5.68103e-08
4.5639e-09
5.6794e-08
4.19546e-09
5.67166e-08
3.83427e-09
5.6603e-08
3.53292e-09
5.6464e-08
3.30681e-09
5.63024e-08
3.13854e-09
5.61197e-08
3.00934e-09
5.59179e-08
2.90507e-09
5.56982e-08
2.81551e-09
5.54611e-08
2.73511e-09
5.52076e-08
2.65789e-09
5.49386e-08
2.5835e-09
5.46551e-08
2.51142e-09
5.43575e-08
2.44058e-09
5.40446e-08
2.37493e-09
5.37178e-08
2.30973e-09
5.3378e-08
2.24664e-09
5.30261e-08
2.18409e-09
5.26637e-08
2.12031e-09
5.22928e-08
2.05991e-09
5.19143e-08
2.00253e-09
5.15304e-08
1.94071e-09
5.11405e-08
1.88223e-09
5.07477e-08
1.82359e-09
5.03536e-08
1.76695e-09
4.99587e-08
1.71094e-09
4.95634e-08
1.65216e-09
4.91697e-08
1.59197e-09
4.87767e-08
1.54142e-09
4.83891e-08
1.48294e-09
4.80078e-08
1.41979e-09
4.76341e-08
1.35853e-09
4.72654e-08
1.3059e-09
4.69055e-08
1.24426e-09
4.65524e-08
1.18699e-09
4.62102e-08
1.12559e-09
4.5879e-08
1.06538e-09
4.55646e-08
9.9423e-10
4.52618e-08
9.32777e-10
4.49735e-08
8.67935e-10
4.46955e-08
8.10911e-10
4.44345e-08
7.4344e-10
4.41871e-08
6.84491e-10
4.39606e-08
6.13013e-10
4.37473e-08
5.566e-10
4.35537e-08
4.90851e-10
4.33705e-08
4.42944e-10
4.32069e-08
3.83678e-10
4.30517e-08
3.45912e-10
4.29168e-08
2.94833e-10
4.27869e-08
2.72737e-10
2.34794e-10
5.78059e-08
2.916e-09
-5.77545e-08
5.80039e-08
3.54907e-09
5.83381e-08
4.19972e-09
5.86668e-08
4.6832e-09
5.89443e-08
4.90478e-09
5.91921e-08
4.92991e-09
5.94224e-08
4.84854e-09
5.96133e-08
4.6833e-09
5.97408e-08
4.43638e-09
5.97997e-08
4.13662e-09
5.98062e-08
3.82774e-09
5.97837e-08
3.55538e-09
5.97458e-08
3.34477e-09
5.96971e-08
3.18721e-09
5.96389e-08
3.06751e-09
5.95719e-08
2.97214e-09
5.94963e-08
2.89112e-09
5.94123e-08
2.81906e-09
5.93197e-08
2.75055e-09
5.92183e-08
2.68483e-09
5.91088e-08
2.62096e-09
5.89914e-08
2.55797e-09
5.88634e-08
2.50288e-09
5.87252e-08
2.44797e-09
5.85766e-08
2.39526e-09
5.84174e-08
2.3433e-09
5.82468e-08
2.29087e-09
5.80668e-08
2.2399e-09
5.78774e-08
2.19196e-09
5.76802e-08
2.13794e-09
5.74728e-08
2.08963e-09
5.7257e-08
2.03937e-09
5.7034e-08
1.98995e-09
5.68062e-08
1.93872e-09
5.65721e-08
1.88625e-09
5.6332e-08
1.83207e-09
5.60839e-08
1.78954e-09
5.58326e-08
1.73423e-09
5.55787e-08
1.67365e-09
5.53253e-08
1.61193e-09
5.50708e-08
1.56048e-09
5.48187e-08
1.49635e-09
5.45621e-08
1.44352e-09
5.43036e-08
1.38409e-09
5.4044e-08
1.32498e-09
5.37956e-08
1.2427e-09
5.35551e-08
1.17319e-09
5.33234e-08
1.09967e-09
5.30908e-08
1.04355e-09
5.28631e-08
9.71145e-10
5.26386e-08
9.08954e-10
5.24299e-08
8.21697e-10
5.22298e-08
7.56715e-10
5.20459e-08
6.74743e-10
5.18654e-08
6.23436e-10
5.16984e-08
5.50739e-10
5.15331e-08
5.11153e-10
5.13838e-08
4.44173e-10
5.12368e-08
4.19679e-10
3.64537e-10
6.09136e-08
2.85365e-09
-6.08512e-08
6.10742e-08
3.38846e-09
6.13499e-08
3.92397e-09
6.16579e-08
4.37522e-09
6.19345e-08
4.62819e-09
6.21722e-08
4.69219e-09
6.23863e-08
4.6344e-09
6.25697e-08
4.49994e-09
6.27058e-08
4.30029e-09
6.27869e-08
4.05554e-09
6.282e-08
3.79464e-09
6.28236e-08
3.55174e-09
6.28134e-08
3.35493e-09
6.27965e-08
3.20413e-09
6.27754e-08
3.08862e-09
6.27509e-08
2.99667e-09
6.27227e-08
2.91936e-09
6.26919e-08
2.84979e-09
6.26584e-08
2.78412e-09
6.26214e-08
2.72176e-09
6.25813e-08
2.66105e-09
6.25396e-08
2.59967e-09
6.24934e-08
2.54909e-09
6.24427e-08
2.49868e-09
6.23874e-08
2.45055e-09
6.23278e-08
2.40288e-09
6.22613e-08
2.35738e-09
6.21898e-08
2.31148e-09
6.21126e-08
2.26909e-09
6.20316e-08
2.21899e-09
6.1944e-08
2.17723e-09
6.185e-08
2.13335e-09
6.1749e-08
2.09094e-09
6.16448e-08
2.04291e-09
6.15367e-08
1.99442e-09
6.14231e-08
1.9456e-09
6.13008e-08
1.91192e-09
6.11737e-08
1.86133e-09
6.10412e-08
1.80615e-09
6.09059e-08
1.74721e-09
6.07673e-08
1.6991e-09
6.0632e-08
1.6316e-09
6.04919e-08
1.58362e-09
6.03435e-08
1.53248e-09
6.01824e-08
1.4861e-09
6.00231e-08
1.40204e-09
5.98711e-08
1.32511e-09
5.97293e-08
1.24154e-09
5.95841e-08
1.18871e-09
5.94331e-08
1.1222e-09
5.9273e-08
1.06903e-09
5.91188e-08
9.75929e-10
5.8969e-08
9.06497e-10
5.88322e-08
8.11508e-10
5.86965e-08
7.59142e-10
5.85666e-08
6.80644e-10
5.84329e-08
6.44885e-10
5.83054e-08
5.71618e-10
5.81762e-08
5.48949e-10
4.8242e-10
6.416e-08
2.78654e-09
-6.40929e-08
6.43013e-08
3.24707e-09
6.45278e-08
3.69755e-09
6.48046e-08
4.09835e-09
6.50714e-08
4.3614e-09
6.53036e-08
4.46002e-09
6.5505e-08
4.43294e-09
6.56767e-08
4.32824e-09
6.58107e-08
4.16636e-09
6.59004e-08
3.96577e-09
6.59471e-08
3.74795e-09
6.59628e-08
3.53612e-09
6.59625e-08
3.35521e-09
6.59549e-08
3.21168e-09
6.59441e-08
3.09943e-09
6.59318e-08
3.00902e-09
6.59167e-08
2.93438e-09
6.59009e-08
2.86561e-09
6.58845e-08
2.80053e-09
6.5867e-08
2.73931e-09
6.58476e-08
2.68037e-09
6.58292e-08
2.61813e-09
6.58093e-08
2.56899e-09
6.57881e-08
2.51987e-09
6.57655e-08
2.47316e-09
6.57429e-08
2.42547e-09
6.57171e-08
2.38316e-09
6.56898e-08
2.33882e-09
6.56604e-08
2.2985e-09
6.56301e-08
2.24922e-09
6.55977e-08
2.20968e-09
6.55627e-08
2.16834e-09
6.5523e-08
2.13069e-09
6.54815e-08
2.0844e-09
6.54396e-08
2.03624e-09
6.53958e-08
1.98942e-09
6.53463e-08
1.96146e-09
6.5294e-08
1.91364e-09
6.52379e-08
1.86217e-09
6.51792e-08
1.80593e-09
6.51161e-08
1.76228e-09
6.50571e-08
1.69059e-09
6.49984e-08
1.64226e-09
6.49346e-08
1.59629e-09
6.48554e-08
1.56531e-09
6.47686e-08
1.48885e-09
6.46863e-08
1.40736e-09
6.46157e-08
1.31214e-09
6.45477e-08
1.25673e-09
6.44721e-08
1.19785e-09
6.43815e-08
1.15959e-09
6.42868e-08
1.07063e-09
6.41919e-08
1.00145e-09
6.41062e-08
8.97184e-10
6.40231e-08
8.42202e-10
6.39425e-08
7.61303e-10
6.38567e-08
7.30643e-10
6.37701e-08
6.58245e-10
6.36777e-08
6.41344e-10
5.70667e-10
6.75573e-08
2.71877e-09
-6.74895e-08
6.76853e-08
3.11904e-09
6.78768e-08
3.50607e-09
6.81196e-08
3.85554e-09
6.83686e-08
4.11242e-09
6.85941e-08
4.23457e-09
6.87873e-08
4.23973e-09
6.89491e-08
4.16646e-09
6.90778e-08
4.03762e-09
6.91709e-08
3.87271e-09
6.92269e-08
3.69189e-09
6.92523e-08
3.51069e-09
6.92592e-08
3.34834e-09
6.9257e-08
3.21388e-09
6.92506e-08
3.10581e-09
6.92431e-08
3.01651e-09
6.92329e-08
2.94464e-09
6.92217e-08
2.87681e-09
6.92101e-08
2.81206e-09
6.91982e-08
2.75122e-09
6.91845e-08
2.69415e-09
6.91715e-08
2.63108e-09
6.91581e-08
2.5824e-09
6.91447e-08
2.53325e-09
6.91308e-08
2.4871e-09
6.91183e-08
2.4379e-09
6.91047e-08
2.39678e-09
6.90912e-08
2.35229e-09
6.90776e-08
2.31211e-09
6.9064e-08
2.26287e-09
6.90504e-08
2.22324e-09
6.90369e-08
2.18188e-09
6.9021e-08
2.14653e-09
6.90036e-08
2.10186e-09
6.89873e-08
2.05249e-09
6.89712e-08
2.00555e-09
6.8953e-08
1.9797e-09
6.89342e-08
1.93243e-09
6.8914e-08
1.88237e-09
6.88927e-08
1.82716e-09
6.8867e-08
1.788e-09
6.88435e-08
1.7141e-09
6.8823e-08
1.66277e-09
6.8803e-08
1.61627e-09
6.87735e-08
1.59486e-09
6.87326e-08
1.52973e-09
6.86919e-08
1.44804e-09
6.86594e-08
1.34462e-09
6.86344e-08
1.28176e-09
6.86061e-08
1.22618e-09
6.85652e-08
1.20047e-09
6.85157e-08
1.12012e-09
6.84616e-08
1.05557e-09
6.8412e-08
9.4679e-10
6.83655e-08
8.88691e-10
6.83215e-08
8.05352e-10
6.82743e-08
7.77846e-10
6.82246e-08
7.07911e-10
6.81682e-08
6.97733e-10
6.28821e-10
7.1116e-08
2.65233e-09
-7.10496e-08
7.12328e-08
3.00225e-09
7.13999e-08
3.33897e-09
7.16111e-08
3.64433e-09
7.1838e-08
3.88557e-09
7.20524e-08
4.02012e-09
7.22388e-08
4.05332e-09
7.23934e-08
4.01182e-09
7.25168e-08
3.91424e-09
7.26101e-08
3.7794e-09
7.26723e-08
3.62969e-09
7.27063e-08
3.47678e-09
7.27201e-08
3.33446e-09
7.27231e-08
3.21093e-09
7.27204e-08
3.10853e-09
7.27162e-08
3.02073e-09
7.27091e-08
2.9517e-09
7.27006e-08
2.88531e-09
7.26911e-08
2.82156e-09
7.26815e-08
2.76087e-09
7.26698e-08
2.70577e-09
7.26582e-08
2.64274e-09
7.26461e-08
2.59444e-09
7.26348e-08
2.54462e-09
7.26229e-08
2.49897e-09
7.26125e-08
2.44835e-09
7.26017e-08
2.40754e-09
7.25917e-08
2.36224e-09
7.25827e-08
2.32114e-09
7.25733e-08
2.27229e-09
7.25646e-08
2.23193e-09
7.25568e-08
2.1897e-09
7.25487e-08
2.15457e-09
7.25389e-08
2.11164e-09
7.25301e-08
2.06136e-09
7.25215e-08
2.0141e-09
7.25137e-08
1.9875e-09
7.2507e-08
1.93915e-09
7.24998e-08
1.88962e-09
7.24929e-08
1.83404e-09
7.24828e-08
1.79808e-09
7.24723e-08
1.72456e-09
7.24635e-08
1.67164e-09
7.24579e-08
1.62179e-09
7.24511e-08
1.60173e-09
7.24351e-08
1.54567e-09
7.24165e-08
1.4667e-09
7.23993e-08
1.36178e-09
7.23892e-08
1.29186e-09
7.23803e-08
1.23504e-09
7.23652e-08
1.21557e-09
7.23429e-08
1.14249e-09
7.23133e-08
1.08514e-09
7.22837e-08
9.76413e-10
7.2255e-08
9.17361e-10
7.22293e-08
8.31087e-10
7.22029e-08
8.04215e-10
7.21758e-08
7.34966e-10
7.21441e-08
7.29506e-10
6.65661e-10
7.48461e-08
2.58795e-09
-7.47817e-08
7.49528e-08
2.89554e-09
7.51011e-08
3.19062e-09
7.52856e-08
3.45983e-09
7.54894e-08
3.68183e-09
7.56889e-08
3.82056e-09
7.58671e-08
3.87513e-09
7.60163e-08
3.86264e-09
7.61355e-08
3.79505e-09
7.62275e-08
3.68737e-09
7.6293e-08
3.56416e-09
7.63335e-08
3.4363e-09
7.63541e-08
3.31388e-09
7.63624e-08
3.2026e-09
7.63636e-08
3.10738e-09
7.63622e-08
3.02213e-09
7.63579e-08
2.95595e-09
7.6352e-08
2.89129e-09
7.6344e-08
2.82947e-09
7.63359e-08
2.76904e-09
7.63259e-08
2.71578e-09
7.63149e-08
2.65367e-09
7.63035e-08
2.60589e-09
7.6293e-08
2.55512e-09
7.62819e-08
2.51005e-09
7.62718e-08
2.45848e-09
7.62617e-08
2.41762e-09
7.62525e-08
2.37142e-09
7.62449e-08
2.32876e-09
7.62365e-08
2.2807e-09
7.62288e-08
2.23962e-09
7.62218e-08
2.19673e-09
7.6216e-08
2.16039e-09
7.62087e-08
2.11892e-09
7.62015e-08
2.06852e-09
7.61938e-08
2.02177e-09
7.61889e-08
1.99248e-09
7.61861e-08
1.94188e-09
7.61825e-08
1.89325e-09
7.61796e-08
1.8369e-09
7.61754e-08
1.80226e-09
7.61696e-08
1.73043e-09
7.61624e-08
1.67881e-09
7.61583e-08
1.6259e-09
7.61587e-08
1.60133e-09
7.61547e-08
1.54969e-09
7.61473e-08
1.47405e-09
7.61356e-08
1.37351e-09
7.61273e-08
1.3002e-09
7.61223e-08
1.23999e-09
7.61168e-08
1.22112e-09
7.61078e-08
1.15142e-09
7.60911e-08
1.10191e-09
7.60711e-08
9.96372e-10
7.6049e-08
9.39484e-10
7.60294e-08
8.50695e-10
7.60108e-08
8.22789e-10
7.59937e-08
7.52088e-10
7.59748e-08
7.48374e-10
6.9053e-10
7.87574e-08
2.52587e-09
-7.86953e-08
7.88548e-08
2.79817e-09
7.89872e-08
3.05813e-09
7.91497e-08
3.29737e-09
7.93314e-08
3.50011e-09
7.95139e-08
3.63804e-09
7.96815e-08
3.70753e-09
7.98252e-08
3.719e-09
7.99412e-08
3.67898e-09
8.00316e-08
3.59699e-09
8.00984e-08
3.49737e-09
8.01434e-08
3.39134e-09
8.01697e-08
3.28753e-09
8.01833e-08
3.189e-09
8.01885e-08
3.1022e-09
8.01898e-08
3.02083e-09
8.01881e-08
2.95769e-09
8.01846e-08
2.8948e-09
8.01783e-08
2.83576e-09
8.01715e-08
2.77587e-09
8.0163e-08
2.72428e-09
8.01529e-08
2.66375e-09
8.01421e-08
2.61665e-09
8.01323e-08
2.5649e-09
8.01219e-08
2.52051e-09
8.01121e-08
2.46828e-09
8.01024e-08
2.42723e-09
8.00935e-08
2.3804e-09
8.00863e-08
2.3359e-09
8.00784e-08
2.28865e-09
8.00711e-08
2.24689e-09
8.00639e-08
2.20399e-09
8.00585e-08
2.16576e-09
8.00522e-08
2.12517e-09
8.00456e-08
2.07513e-09
8.00376e-08
2.02978e-09
8.00333e-08
1.99676e-09
8.0032e-08
1.94324e-09
8.00291e-08
1.89616e-09
8.00267e-08
1.83924e-09
8.00246e-08
1.80443e-09
8.00207e-08
1.73433e-09
8.00134e-08
1.68608e-09
8.00078e-08
1.63149e-09
8.00091e-08
1.60003e-09
8.00098e-08
1.54903e-09
8.00078e-08
1.476e-09
7.99985e-08
1.3828e-09
7.9989e-08
1.30974e-09
7.9983e-08
1.24599e-09
7.99794e-08
1.2247e-09
7.99758e-08
1.15505e-09
7.99649e-08
1.11278e-09
7.99494e-08
1.0119e-09
7.99295e-08
9.59336e-10
7.99111e-08
8.69147e-10
7.98944e-08
8.39493e-10
7.98802e-08
7.66243e-10
7.98666e-08
7.62024e-10
7.09629e-10
8.28598e-08
2.46631e-09
-8.28002e-08
8.29485e-08
2.70947e-09
8.30668e-08
2.93977e-09
8.32107e-08
3.15354e-09
8.33722e-08
3.33854e-09
8.35372e-08
3.47305e-09
8.36923e-08
3.55241e-09
8.38291e-08
3.58223e-09
8.39421e-08
3.566e-09
8.4031e-08
3.50811e-09
8.40979e-08
3.43048e-09
8.41455e-08
3.34372e-09
8.41763e-08
3.25673e-09
8.41945e-08
3.17072e-09
8.42036e-08
3.09311e-09
8.42077e-08
3.01678e-09
8.42082e-08
2.95715e-09
8.4207e-08
2.89603e-09
8.42025e-08
2.8403e-09
8.4197e-08
2.78133e-09
8.419e-08
2.73133e-09
8.41809e-08
2.67279e-09
8.4171e-08
2.62654e-09
8.4162e-08
2.57392e-09
8.41522e-08
2.53035e-09
8.41428e-08
2.47763e-09
8.41338e-08
2.43621e-09
8.41252e-08
2.38906e-09
8.41182e-08
2.34288e-09
8.41105e-08
2.29632e-09
8.41038e-08
2.25365e-09
8.40964e-08
2.21142e-09
8.40909e-08
2.17119e-09
8.40852e-08
2.13087e-09
8.40791e-08
2.08128e-09
8.4071e-08
2.03788e-09
8.4067e-08
2.00071e-09
8.40661e-08
1.94412e-09
8.40632e-08
1.89907e-09
8.40607e-08
1.84181e-09
8.4059e-08
1.80607e-09
8.40561e-08
1.73728e-09
8.4049e-08
1.69313e-09
8.40427e-08
1.63782e-09
8.40432e-08
1.59955e-09
8.40449e-08
1.54735e-09
8.40449e-08
1.47599e-09
8.40372e-08
1.39041e-09
8.40273e-08
1.31969e-09
8.40202e-08
1.25308e-09
8.40162e-08
1.22873e-09
8.40138e-08
1.15747e-09
8.40052e-08
1.12134e-09
8.39917e-08
1.02541e-09
8.39732e-08
9.77804e-10
8.39549e-08
8.8746e-10
8.39385e-08
8.55913e-10
8.39247e-08
7.80051e-10
8.39124e-08
7.74267e-10
7.26098e-10
8.71633e-08
2.40966e-09
-8.71066e-08
8.7244e-08
2.62874e-09
8.73495e-08
2.83424e-09
8.7477e-08
3.02603e-09
8.76203e-08
3.19527e-09
8.77682e-08
3.32516e-09
8.791e-08
3.41064e-09
8.80383e-08
3.45385e-09
8.81472e-08
3.45717e-09
8.82343e-08
3.42097e-09
8.83007e-08
3.36407e-09
8.83496e-08
3.29479e-09
8.83835e-08
3.2229e-09
8.84055e-08
3.1487e-09
8.84181e-08
3.08051e-09
8.84248e-08
3.01007e-09
8.84275e-08
2.95442e-09
8.84283e-08
2.89526e-09
8.84256e-08
2.84306e-09
8.84215e-08
2.78534e-09
8.84158e-08
2.73706e-09
8.8408e-08
2.68059e-09
8.83992e-08
2.6353e-09
8.8391e-08
2.58214e-09
8.83819e-08
2.53947e-09
8.8373e-08
2.48649e-09
8.83647e-08
2.44457e-09
8.83567e-08
2.39706e-09
8.83499e-08
2.34963e-09
8.83424e-08
2.30388e-09
8.83361e-08
2.2599e-09
8.83289e-08
2.21862e-09
8.83234e-08
2.17666e-09
8.8318e-08
2.13632e-09
8.83123e-08
2.08701e-09
8.83045e-08
2.04562e-09
8.8301e-08
2.00428e-09
8.83001e-08
1.94498e-09
8.82971e-08
1.90209e-09
8.82944e-08
1.84451e-09
8.82928e-08
1.80765e-09
8.82902e-08
1.73985e-09
8.82838e-08
1.69959e-09
8.82777e-08
1.64385e-09
8.82773e-08
1.59996e-09
8.82785e-08
1.5462e-09
8.82786e-08
1.47584e-09
8.82723e-08
1.39669e-09
8.8263e-08
1.32899e-09
8.82558e-08
1.26031e-09
8.8251e-08
1.23351e-09
8.82482e-08
1.16033e-09
8.82403e-08
1.12924e-09
8.82277e-08
1.03798e-09
8.82106e-08
9.94872e-10
8.81927e-08
9.0544e-10
8.81765e-08
8.7209e-10
8.81625e-08
7.94079e-10
8.81501e-08
7.86573e-10
7.41232e-10
9.16783e-08
2.35663e-09
-9.16253e-08
9.17516e-08
2.55546e-09
9.18455e-08
2.74038e-09
9.19582e-08
2.91336e-09
9.20848e-08
3.06861e-09
9.22165e-08
3.19348e-09
9.23447e-08
3.28248e-09
9.24634e-08
3.33507e-09
9.25666e-08
3.35405e-09
9.26511e-08
3.33645e-09
9.27166e-08
3.29855e-09
9.27659e-08
3.24545e-09
9.28015e-08
3.18729e-09
9.28262e-08
3.124e-09
9.28417e-08
3.06507e-09
9.28507e-08
3.00101e-09
9.28555e-08
2.94963e-09
9.28581e-08
2.89273e-09
9.28569e-08
2.84416e-09
9.28545e-08
2.7878e-09
9.285e-08
2.74157e-09
9.28435e-08
2.68712e-09
9.2836e-08
2.64275e-09
9.28287e-08
2.58949e-09
9.28204e-08
2.5477e-09
9.28122e-08
2.49472e-09
9.28043e-08
2.45246e-09
9.27971e-08
2.40429e-09
9.27909e-08
2.35587e-09
9.27834e-08
2.31131e-09
9.27776e-08
2.26577e-09
9.27708e-08
2.22534e-09
9.27656e-08
2.1819e-09
9.27602e-08
2.14172e-09
9.27547e-08
2.09248e-09
9.27477e-08
2.0526e-09
9.27447e-08
2.0073e-09
9.27436e-08
1.94611e-09
9.27404e-08
1.90525e-09
9.27379e-08
1.84704e-09
9.27363e-08
1.80927e-09
9.27338e-08
1.74235e-09
9.2728e-08
1.70537e-09
9.27228e-08
1.64904e-09
9.27218e-08
1.60099e-09
9.2722e-08
1.54598e-09
9.27216e-08
1.47623e-09
9.27164e-08
1.40193e-09
9.27083e-08
1.33709e-09
9.27016e-08
1.26701e-09
9.26963e-08
1.23875e-09
9.26926e-08
1.16405e-09
9.26849e-08
1.13699e-09
9.26728e-08
1.05004e-09
9.26572e-08
1.01051e-09
9.26398e-08
9.22791e-10
9.26241e-08
8.8782e-10
9.26099e-08
8.0824e-10
9.25972e-08
7.99316e-10
7.55488e-10
9.7943e-08
2.30681e-09
-9.78932e-08
9.80103e-08
2.48816e-09
9.80951e-08
2.65558e-09
9.81956e-08
2.81284e-09
9.83087e-08
2.95558e-09
9.84269e-08
3.07522e-09
9.85431e-08
3.16628e-09
9.86529e-08
3.22528e-09
9.87502e-08
3.25672e-09
9.88319e-08
3.25479e-09
9.88967e-08
3.23376e-09
9.89464e-08
3.19575e-09
9.89832e-08
3.15051e-09
9.90099e-08
3.09729e-09
9.90276e-08
3.0473e-09
9.90388e-08
2.98985e-09
9.90456e-08
2.94287e-09
9.90497e-08
2.88863e-09
9.90501e-08
2.84376e-09
9.90492e-08
2.78869e-09
9.90459e-08
2.74482e-09
9.90406e-08
2.69243e-09
9.90344e-08
2.64901e-09
9.90278e-08
2.59603e-09
9.90205e-08
2.55501e-09
9.90131e-08
2.50217e-09
9.90057e-08
2.45986e-09
9.8999e-08
2.41095e-09
9.89933e-08
2.3616e-09
9.89863e-08
2.31832e-09
9.89806e-08
2.2714e-09
9.89743e-08
2.2317e-09
9.89696e-08
2.18661e-09
9.89642e-08
2.14704e-09
9.89588e-08
2.09797e-09
9.89526e-08
2.05877e-09
9.89502e-08
2.00966e-09
9.89487e-08
1.94768e-09
9.89454e-08
1.90854e-09
9.89433e-08
1.84913e-09
9.89417e-08
1.81088e-09
9.8939e-08
1.74497e-09
9.89338e-08
1.71056e-09
9.89295e-08
1.65334e-09
9.89281e-08
1.60247e-09
9.89274e-08
1.54661e-09
9.89264e-08
1.47724e-09
9.8922e-08
1.4064e-09
9.8915e-08
1.34401e-09
9.8909e-08
1.27299e-09
9.89036e-08
1.24419e-09
9.88991e-08
1.16857e-09
9.88914e-08
1.14472e-09
9.88796e-08
1.06181e-09
9.88651e-08
1.02496e-09
9.88484e-08
9.39554e-10
9.8833e-08
9.03173e-10
9.88187e-08
8.22531e-10
9.88054e-08
8.12644e-10
7.69198e-10
1.10024e-07
2.25686e-09
-1.09974e-07
1.10089e-07
2.42328e-09
1.10169e-07
2.57548e-09
1.10263e-07
2.71947e-09
1.10367e-07
2.8513e-09
1.10477e-07
2.96522e-09
1.10586e-07
3.05768e-09
1.10689e-07
3.12135e-09
1.10784e-07
3.1626e-09
1.10864e-07
3.17432e-09
1.10929e-07
3.16836e-09
1.10981e-07
3.14433e-09
1.11019e-07
3.11198e-09
1.11048e-07
3.06832e-09
1.11069e-07
3.02695e-09
1.11082e-07
2.97644e-09
1.11091e-07
2.93388e-09
1.11097e-07
2.88266e-09
1.11099e-07
2.84174e-09
1.111e-07
2.78811e-09
1.11098e-07
2.74686e-09
1.11094e-07
2.69637e-09
1.11089e-07
2.65422e-09
1.11083e-07
2.60197e-09
1.11076e-07
2.56162e-09
1.11069e-07
2.5091e-09
1.11062e-07
2.46676e-09
1.11056e-07
2.41717e-09
1.1105e-07
2.36714e-09
1.11044e-07
2.32485e-09
1.11038e-07
2.27675e-09
1.11032e-07
2.23811e-09
1.11028e-07
2.19087e-09
1.11023e-07
2.15221e-09
1.11017e-07
2.10368e-09
1.11011e-07
2.06426e-09
1.1101e-07
2.01136e-09
1.11008e-07
1.94988e-09
1.11004e-07
1.91202e-09
1.11003e-07
1.85059e-09
1.11001e-07
1.81248e-09
1.10998e-07
1.74795e-09
1.10993e-07
1.71537e-09
1.1099e-07
1.65689e-09
1.10988e-07
1.60438e-09
1.10986e-07
1.54798e-09
1.10985e-07
1.47875e-09
1.10981e-07
1.41036e-09
1.10975e-07
1.35005e-09
1.10969e-07
1.27839e-09
1.10964e-07
1.24973e-09
1.10959e-07
1.17382e-09
1.10951e-07
1.15253e-09
1.10939e-07
1.07368e-09
1.10925e-07
1.0388e-09
1.10908e-07
9.56272e-10
1.10893e-07
9.18681e-10
1.10878e-07
8.37376e-10
1.10864e-07
8.27021e-10
7.82929e-10
1.23589e-07
2.20892e-09
-1.23541e-07
1.2365e-07
2.36258e-09
1.23723e-07
2.50204e-09
1.23808e-07
2.63474e-09
1.23901e-07
2.75785e-09
1.24001e-07
2.86597e-09
1.24099e-07
2.95888e-09
1.24194e-07
3.02641e-09
1.24282e-07
3.07462e-09
1.24359e-07
3.09764e-09
1.24422e-07
3.10494e-09
1.24474e-07
3.09272e-09
1.24513e-07
3.07294e-09
1.24543e-07
3.0385e-09
1.24565e-07
3.00496e-09
1.2458e-07
2.9615e-09
1.2459e-07
2.92329e-09
1.24598e-07
2.87497e-09
1.24602e-07
2.83794e-09
1.24604e-07
2.78615e-09
1.24603e-07
2.74775e-09
1.24601e-07
2.69854e-09
1.24597e-07
2.65798e-09
1.24592e-07
2.60701e-09
1.24586e-07
2.56724e-09
1.2458e-07
2.51538e-09
1.24574e-07
2.47281e-09
1.24569e-07
2.42247e-09
1.24563e-07
2.37248e-09
1.24558e-07
2.3306e-09
1.24553e-07
2.28117e-09
1.24547e-07
2.24425e-09
1.24543e-07
2.19481e-09
1.24538e-07
2.15717e-09
1.24533e-07
2.10906e-09
1.24529e-07
2.06861e-09
1.24527e-07
2.01247e-09
1.24525e-07
1.95277e-09
1.24521e-07
1.91533e-09
1.24521e-07
1.85117e-09
1.24519e-07
1.81402e-09
1.24516e-07
1.75119e-09
1.24512e-07
1.71964e-09
1.24509e-07
1.65968e-09
1.24507e-07
1.60662e-09
1.24505e-07
1.5499e-09
1.24503e-07
1.48056e-09
1.24499e-07
1.41383e-09
1.24494e-07
1.35511e-09
1.2449e-07
1.28305e-09
1.24484e-07
1.25495e-09
1.24479e-07
1.17932e-09
1.24471e-07
1.16e-09
1.2446e-07
1.08516e-09
1.24447e-07
1.05163e-09
1.24431e-07
9.7241e-10
1.24416e-07
9.33914e-10
1.24401e-07
8.52273e-10
1.24386e-07
8.42061e-10
7.96351e-10
1.38819e-07
2.16558e-09
-1.38776e-07
1.38873e-07
2.30843e-09
1.38937e-07
2.43795e-09
1.39011e-07
2.56117e-09
1.39091e-07
2.67738e-09
1.39176e-07
2.78066e-09
1.39263e-07
2.87272e-09
1.39346e-07
2.94337e-09
1.39424e-07
2.99656e-09
1.39493e-07
3.02794e-09
1.39552e-07
3.04649e-09
1.39601e-07
3.04377e-09
1.39639e-07
3.03499e-09
1.39668e-07
3.00947e-09
1.3969e-07
2.98284e-09
1.39706e-07
2.94583e-09
1.39717e-07
2.91214e-09
1.39725e-07
2.86635e-09
1.39731e-07
2.83249e-09
1.39734e-07
2.78291e-09
1.39735e-07
2.74726e-09
1.39734e-07
2.69887e-09
1.39732e-07
2.66043e-09
1.39728e-07
2.61083e-09
1.39724e-07
2.57136e-09
1.39719e-07
2.5204e-09
1.39714e-07
2.47753e-09
1.3971e-07
2.42679e-09
1.39705e-07
2.37747e-09
1.397e-07
2.33535e-09
1.39697e-07
2.28419e-09
1.39692e-07
2.24911e-09
1.39689e-07
2.19823e-09
1.39684e-07
2.16222e-09
1.39679e-07
2.11351e-09
1.39677e-07
2.07111e-09
1.39676e-07
2.01335e-09
1.39672e-07
1.95633e-09
1.3967e-07
1.9177e-09
1.39671e-07
1.85053e-09
1.39669e-07
1.81556e-09
1.39666e-07
1.75448e-09
1.39662e-07
1.72311e-09
1.3966e-07
1.66172e-09
1.39658e-07
1.60901e-09
1.39656e-07
1.55199e-09
1.39654e-07
1.4824e-09
1.39651e-07
1.41674e-09
1.39647e-07
1.35917e-09
1.39643e-07
1.28687e-09
1.39639e-07
1.25951e-09
1.39633e-07
1.18444e-09
1.39627e-07
1.16658e-09
1.39616e-07
1.09557e-09
1.39605e-07
1.06293e-09
1.3959e-07
9.87102e-10
1.39576e-07
9.48192e-10
1.39562e-07
8.6635e-10
1.39547e-07
8.56906e-10
8.09083e-10
1.55917e-07
2.12958e-09
-1.55881e-07
1.55962e-07
2.26384e-09
1.56013e-07
2.3862e-09
1.56072e-07
2.50216e-09
1.56137e-07
2.61284e-09
1.56205e-07
2.71262e-09
1.56274e-07
2.80336e-09
1.56342e-07
2.87566e-09
1.56406e-07
2.93275e-09
1.56464e-07
2.96977e-09
1.56514e-07
2.99645e-09
1.56556e-07
3.00154e-09
1.5659e-07
3.00099e-09
1.56617e-07
2.9831e-09
1.56636e-07
2.96298e-09
1.56652e-07
2.93055e-09
1.56663e-07
2.9013e-09
1.56671e-07
2.85782e-09
1.56678e-07
2.82584e-09
1.56682e-07
2.77914e-09
1.56683e-07
2.74551e-09
1.56685e-07
2.69696e-09
1.56684e-07
2.66133e-09
1.56682e-07
2.61296e-09
1.56679e-07
2.57405e-09
1.56676e-07
2.52405e-09
1.56673e-07
2.48003e-09
1.56671e-07
2.42951e-09
1.56667e-07
2.38149e-09
1.56663e-07
2.33871e-09
1.56661e-07
2.28605e-09
1.56658e-07
2.25197e-09
1.56656e-07
2.20025e-09
1.56651e-07
2.16736e-09
1.56648e-07
2.11669e-09
1.56648e-07
2.07085e-09
1.56648e-07
2.01386e-09
1.56644e-07
1.96049e-09
1.56643e-07
1.91866e-09
1.56645e-07
1.84845e-09
1.56643e-07
1.81699e-09
1.5664e-07
1.75737e-09
1.56638e-07
1.72531e-09
1.56637e-07
1.66293e-09
1.56635e-07
1.61125e-09
1.56633e-07
1.55385e-09
1.56631e-07
1.48402e-09
1.56629e-07
1.41899e-09
1.56626e-07
1.36205e-09
1.56623e-07
1.2896e-09
1.5662e-07
1.26302e-09
1.56616e-07
1.18849e-09
1.56611e-07
1.17171e-09
1.56602e-07
1.10411e-09
1.56593e-07
1.07204e-09
1.56581e-07
9.99303e-10
1.56569e-07
9.6052e-10
1.56556e-07
8.78652e-10
1.56543e-07
8.6988e-10
8.20385e-10
1.75113e-07
2.10424e-09
-1.75088e-07
1.75144e-07
2.23286e-09
1.75179e-07
2.35085e-09
1.7522e-07
2.46207e-09
1.75263e-07
2.56893e-09
1.7531e-07
2.66624e-09
1.75357e-07
2.75595e-09
1.75404e-07
2.82849e-09
1.75449e-07
2.88824e-09
1.7549e-07
2.92891e-09
1.75526e-07
2.95974e-09
1.75557e-07
2.97067e-09
1.75583e-07
2.97525e-09
1.75604e-07
2.96215e-09
1.75619e-07
2.94783e-09
1.75632e-07
2.91766e-09
1.75642e-07
2.89177e-09
1.75649e-07
2.85056e-09
1.75656e-07
2.81876e-09
1.7566e-07
2.77495e-09
1.75663e-07
2.74297e-09
1.75666e-07
2.69344e-09
1.75667e-07
2.66044e-09