/*--------------------------------*- C++ -*----------------------------------*\
| =========                 |                                                 |
| \\      /  F ield         | OpenFOAM: The Open Source CFD Toolbox           |
|  \\    /   O peration     | Version:  2.3.0                                 |
|   \\  /    A nd           | Web:      www.OpenFOAM.org                      |
|    \\/     M anipulation  |                                                 |
\*---------------------------------------------------------------------------*/
FoamFile
{
    version     2.0;
    format      ascii;
    class       volScalarField;
    location    "0.3";
    object      p;
}
// * * * * * * * * * * * * * * * * * * * * * * * * * * * * * * * * * * * * * //

dimensions      [0 2 -2 0 0 0 0];

internalField   nonuniform List<scalar> 
3105
(
0.00251524
0.00221566
0.00162311
0.00105883
0.000588196
0.000189613
-0.000147053
-0.000406527
-0.000570252
-0.000641797
-0.00064591
-0.000612877
-0.000566457
-0.000520961
-0.000483029
-0.000454193
-0.000433253
-0.000418089
-0.000406691
-0.000397535
-0.000389582
-0.000382171
-0.000374931
-0.000367728
-0.00036059
-0.000353594
-0.000346766
-0.000340075
-0.000333499
-0.000327082
-0.000320898
-0.000314979
-0.000309278
-0.000303717
-0.000298269
-0.00029298
-0.000287917
-0.00028311
-0.000278529
-0.000274112
-0.00026981
-0.000265598
-0.000261467
-0.00025741
-0.000253408
-0.000249447
-0.000245537
-0.000241702
-0.000237957
-0.000234282
-0.000230616
-0.000226862
-0.000222919
-0.000218711
-0.000214209
-0.000209439
-0.000204464
-0.000199332
-0.000194032
-0.000188492
-0.000182611
-0.000176295
-0.00016949
-0.000162187
-0.000154425
-0.000146267
-0.000137778
-0.000129087
-0.000120263
-0.000111482
-0.000102863
-9.45482e-05
-8.66293e-05
-7.91867e-05
-7.22696e-05
-6.59001e-05
-6.00678e-05
-5.47502e-05
-4.99122e-05
-4.55108e-05
-4.1495e-05
-3.78198e-05
-3.44314e-05
-3.12895e-05
-2.83489e-05
-2.55861e-05
-2.2975e-05
-2.05159e-05
-1.82022e-05
-1.60481e-05
-1.40488e-05
-1.22102e-05
-1.0512e-05
-8.94159e-06
-7.46572e-06
-6.06187e-06
-4.69796e-06
-3.3577e-06
-2.02557e-06
-6.7341e-07
0.00208904
0.00192995
0.00151251
0.00102597
0.000583139
0.000205272
-0.000109579
-0.000351899
-0.000510798
-0.000588041
-0.000602008
-0.000578764
-0.000540688
-0.000501708
-0.000468578
-0.000443048
-0.000424271
-0.000410504
-0.00040004
-0.000391552
-0.000384125
-0.000377157
-0.000370304
-0.000363443
-0.000356613
-0.0003499
-0.000343335
-0.000336882
-0.000330517
-0.000324285
-0.000318272
-0.000312518
-0.000306973
-0.000301553
-0.000296229
-0.00029105
-0.000286092
-0.00028139
-0.000276912
-0.000272594
-0.000268384
-0.000264258
-0.000260208
-0.000256228
-0.000252299
-0.000248407
-0.00024456
-0.000240786
-0.000237104
-0.000233494
-0.000229894
-0.000226207
-0.000222327
-0.000218176
-0.000213723
-0.000208997
-0.000204064
-0.000198977
-0.000193727
-0.00018824
-0.000182409
-0.000176139
-0.000169372
-0.000162103
-0.000154372
-0.000146242
-0.000137795
-0.000129102
-0.000120304
-0.000111534
-0.000102914
-9.4598e-05
-8.6675e-05
-7.92277e-05
-7.23059e-05
-6.59324e-05
-6.00965e-05
-5.47756e-05
-4.99355e-05
-4.55328e-05
-4.15162e-05
-3.7841e-05
-3.44528e-05
-3.13113e-05
-2.83708e-05
-2.56076e-05
-2.29952e-05
-2.05345e-05
-1.82184e-05
-1.6062e-05
-1.40606e-05
-1.22202e-05
-1.05211e-05
-8.94987e-06
-7.47383e-06
-6.06952e-06
-4.70527e-06
-3.36412e-06
-2.03231e-06
-6.78818e-07
0.00179222
0.00169547
0.00140614
0.00100369
0.000599396
0.000246396
-4.34046e-05
-0.000267061
-0.000421755
-0.000509009
-0.000539949
-0.000533322
-0.000508429
-0.000479212
-0.000452647
-0.00043113
-0.000414644
-0.000402171
-0.000392492
-0.000384563
-0.000377606
-0.000371084
-0.000364667
-0.000358229
-0.000351802
-0.000345468
-0.000339255
-0.000333125
-0.000327048
-0.000321072
-0.000315287
-0.000309737
-0.000304379
-0.000299129
-0.000293953
-0.000288906
-0.00028407
-0.000279484
-0.000275119
-0.000270909
-0.000266799
-0.000262765
-0.000258802
-0.000254903
-0.00025105
-0.000247228
-0.000243444
-0.000239732
-0.000236113
-0.00023257
-0.000229042
-0.000225427
-0.000221616
-0.000217524
-0.00021312
-0.000208435
-0.000203542
-0.0001985
-0.000193304
-0.000187876
-0.000182103
-0.000175885
-0.000169163
-0.000161932
-0.000154232
-0.00014613
-0.000137698
-0.000129023
-0.000120239
-0.000111478
-0.000102868
-9.4565e-05
-8.66489e-05
-7.92053e-05
-7.22861e-05
-6.5915e-05
-6.00813e-05
-5.47617e-05
-4.99239e-05
-4.55236e-05
-4.15098e-05
-3.78379e-05
-3.4453e-05
-3.13148e-05
-2.83766e-05
-2.5615e-05
-2.30028e-05
-2.05416e-05
-1.8224e-05
-1.60664e-05
-1.40641e-05
-1.22236e-05
-1.05251e-05
-8.95497e-06
-7.4804e-06
-6.07751e-06
-4.71339e-06
-3.37244e-06
-2.03995e-06
-6.85399e-07
0.00158785
0.00150993
0.00129805
0.000972901
0.000616605
0.000292733
2.55026e-05
-0.00018169
-0.000330367
-0.00042335
-0.000467979
-0.000477231
-0.000466276
-0.000447568
-0.000428431
-0.000412004
-0.000398966
-0.000388856
-0.000380853
-0.00037417
-0.000368191
-0.000362486
-0.000356797
-0.000351027
-0.000345204
-0.000339404
-0.000333657
-0.000327945
-0.00032225
-0.00031662
-0.00031114
-0.000305857
-0.000300736
-0.0002957
-0.000290718
-0.000285846
-0.000281167
-0.000276726
-0.000272501
-0.000268427
-0.000264448
-0.000260538
-0.000256687
-0.000252887
-0.000249125
-0.000245385
-0.00024168
-0.000238046
-0.000234508
-0.00023105
-0.000227608
-0.00022408
-0.000220351
-0.000216332
-0.000211991
-0.00020736
-0.00020252
-0.000197539
-0.000192415
-0.000187064
-0.000181369
-0.000175223
-0.000168566
-0.000161393
-0.00015375
-0.000145705
-0.000137329
-0.000128708
-0.000119976
-0.000111252
-0.000102695
-9.44179e-05
-8.65298e-05
-7.91089e-05
-7.22071e-05
-6.58496e-05
-6.0025e-05
-5.47112e-05
-4.98811e-05
-4.54869e-05
-4.14788e-05
-3.78132e-05
-3.44343e-05
-3.13021e-05
-2.83685e-05
-2.5611e-05
-2.30007e-05
-2.05406e-05
-1.82229e-05
-1.60655e-05
-1.40637e-05
-1.22249e-05
-1.05286e-05
-8.96151e-06
-7.49011e-06
-6.09054e-06
-4.72689e-06
-3.38738e-06
-2.05286e-06
-6.97298e-07
0.00142632
0.00135401
0.0011875
0.00092632
0.000621558
0.000330765
8.51871e-05
-0.000107573
-0.000249523
-0.000344549
-0.000398305
-0.000419942
-0.00042094
-0.000411823
-0.000399782
-0.000388485
-0.000379159
-0.000371763
-0.000365782
-0.000360642
-0.000355882
-0.000351195
-0.000346404
-0.000341448
-0.000336359
-0.000331207
-0.000326035
-0.000320843
-0.000315631
-0.000310446
-0.00030536
-0.000300417
-0.000295593
-0.000290831
-0.000286108
-0.000281472
-0.000277
-0.000272739
-0.000268674
-0.000264755
-0.000260932
-0.000257177
-0.000253472
-0.000249801
-0.000246149
-0.000242505
-0.000238888
-0.000235338
-0.000231886
-0.000228523
-0.000225185
-0.000221763
-0.000218136
-0.000214209
-0.000209945
-0.000205382
-0.000200608
-0.000195706
-0.000190675
-0.00018543
-0.000179842
-0.0001738
-0.000167244
-0.000160172
-0.000152631
-0.000144693
-0.00013643
-0.000127927
-0.000119306
-0.000110689
-0.000102233
-9.40539e-05
-8.62462e-05
-7.88896e-05
-7.2037e-05
-6.57136e-05
-5.99147e-05
-5.46273e-05
-4.98047e-05
-4.54191e-05
-4.14183e-05
-3.77607e-05
-3.43896e-05
-3.12659e-05
-2.83396e-05
-2.55888e-05
-2.29832e-05
-2.05268e-05
-1.82113e-05
-1.60564e-05
-1.40571e-05
-1.22219e-05
-1.05301e-05
-8.96787e-06
-7.50148e-06
-6.10733e-06
-4.74467e-06
-3.40829e-06
-2.0716e-06
-7.17392e-07
0.00128883
0.00121944
0.00108123
0.00086952
0.000613866
0.000358278
0.000134586
-4.4971e-05
-0.000180182
-0.000274903
-0.000334242
-0.000365052
-0.000375885
-0.000375288
-0.000369849
-0.000363452
-0.00035774
-0.000353037
-0.000349093
-0.000345526
-0.000342016
-0.000338368
-0.000334485
-0.000330345
-0.000325993
-0.000321505
-0.00031693
-0.000312281
-0.000307571
-0.000302847
-0.000298177
-0.000293596
-0.000289095
-0.000284638
-0.000280206
-0.000275835
-0.000271591
-0.000267523
-0.000263629
-0.000259871
-0.00025621
-0.000252621
-0.000249074
-0.000245545
-0.000242015
-0.000238482
-0.000234963
-0.000231501
-0.000228133
-0.000224855
-0.000221611
-0.000218294
-0.000214782
-0.000210968
-0.000206805
-0.000202326
-0.00019763
-0.00019281
-0.00018788
-0.000182756
-0.000177303
-0.000171403
-0.000164989
-0.000158065
-0.000150681
-0.00014291
-0.000134822
-0.000126503
-0.000118067
-0.00010964
-0.000101361
-9.3341e-05
-8.56722e-05
-7.84329e-05
-7.1674e-05
-6.5422e-05
-5.9674e-05
-5.44215e-05
-4.9627e-05
-4.52619e-05
-4.12782e-05
-3.76368e-05
-3.42815e-05
-3.11737e-05
-2.8262e-05
-2.55247e-05
-2.293e-05
-2.04825e-05
-1.81739e-05
-1.60249e-05
-1.40316e-05
-1.22027e-05
-1.05181e-05
-8.96344e-06
-7.50451e-06
-6.11934e-06
-4.77639e-06
-3.45648e-06
-2.09533e-06
-7.44017e-07
0.00116863
0.0011023
0.000984037
0.00080998
0.000597017
0.000375955
0.000174718
8.21819e-06
-0.000120304
-0.000213518
-0.000276036
-0.000313406
-0.000332127
-0.000338951
-0.000339583
-0.000337816
-0.000335566
-0.000333469
-0.000331528
-0.000329535
-0.000327292
-0.000324699
-0.000321732
-0.000318412
-0.000314796
-0.000310968
-0.000306988
-0.000302878
-0.00029866
-0.000294388
-0.000290122
-0.000285897
-0.000281713
-0.000277552
-0.000273404
-0.000269295
-0.000265282
-0.000261409
-0.000257681
-0.000254071
-0.000250552
-0.000247104
-0.0002437
-0.000240307
-0.000236903
-0.000233489
-0.000230075
-0.000226697
-0.000223395
-0.00022018
-0.000217002
-0.000213768
-0.000210359
-0.000206664
-0.000202619
-0.000198246
-0.00019364
-0.000188905
-0.00018407
-0.000179063
-0.000173753
-0.000168015
-0.000161781
-0.00015505
-0.000147874
-0.000140324
-0.000132472
-0.000124403
-0.000116223
-0.000108051
-0.000100011
-9.22113e-05
-8.47413e-05
-7.76739e-05
-7.10569e-05
-6.49177e-05
-5.92562e-05
-5.40659e-05
-4.93169e-05
-4.49858e-05
-4.10298e-05
-3.74131e-05
-3.40817e-05
-3.09977e-05
-2.81092e-05
-2.5394e-05
-2.28189e-05
-2.03882e-05
-1.80931e-05
-1.59555e-05
-1.39721e-05
-1.21524e-05
-1.04773e-05
-8.93306e-06
-7.48363e-06
-6.11135e-06
-4.77222e-06
-3.46578e-06
-2.10646e-06
-7.68576e-07
0.00106259
0.000999909
0.000897197
0.000751947
0.00057422
0.000384822
0.000206045
5.30265e-05
-6.85242e-05
-0.000159472
-0.000223571
-0.000265475
-0.000290307
-0.000303376
-0.000309435
-0.000311963
-0.000312981
-0.000313377
-0.000313381
-0.00031295
-0.000311989
-0.000310474
-0.000308448
-0.000305966
-0.000303095
-0.000299926
-0.000296536
-0.000292964
-0.000289238
-0.000285411
-0.000281541
-0.000277663
-0.000273787
-0.000269912
-0.000266037
-0.000262181
-0.000258395
-0.000254717
-0.000251151
-0.000247678
-0.000244283
-0.000240955
-0.000237671
-0.000234395
-0.000231107
-0.000227805
-0.000224498
-0.000221208
-0.000217972
-0.000214805
-0.000211665
-0.000208476
-0.000205138
-0.000201544
-0.000197622
-0.000193377
-0.000188885
-0.000184244
-0.000179497
-0.000174591
-0.000169411
-0.000163838
-0.0001578
-0.000151292
-0.000144359
-0.000137073
-0.000129502
-0.000121729
-0.000113849
-0.000105974
-9.82188e-05
-9.06865e-05
-8.34593e-05
-7.66056e-05
-7.01696e-05
-6.4178e-05
-5.86327e-05
-5.35305e-05
-4.88485e-05
-4.45687e-05
-4.06537e-05
-3.70722e-05
-3.37733e-05
-3.07214e-05
-2.78648e-05
-2.51813e-05
-2.2636e-05
-2.02323e-05
-1.79601e-05
-1.58415e-05
-1.38732e-05
-1.20668e-05
-1.04025e-05
-8.87085e-06
-7.43079e-06
-6.07427e-06
-4.74035e-06
-3.45232e-06
-2.09921e-06
-7.82049e-07
0.000968604
0.000909967
0.000820016
0.000697133
0.000547835
0.000386154
0.000228945
8.98275e-05
-2.41892e-05
-0.000112177
-0.000176703
-0.000221582
-0.000250958
-0.000269066
-0.000279802
-0.000286203
-0.000290246
-0.000292988
-0.000294858
-0.000295953
-0.000296271
-0.000295848
-0.000294776
-0.00029314
-0.000291019
-0.00028851
-0.000285711
-0.000282678
-0.000279445
-0.000276059
-0.00027258
-0.000269046
-0.000265477
-0.000261889
-0.000258283
-0.000254674
-0.000251108
-0.000247623
-0.000244219
-0.000240885
-0.000237612
-0.000234397
-0.000231219
-0.000228045
-0.000224859
-0.000221665
-0.000218463
-0.000215265
-0.000212101
-0.000208981
-0.000205869
-0.000202705
-0.00019941
-0.000195893
-0.000192083
-0.000187972
-0.000183615
-0.000179089
-0.000174437
-0.000169626
-0.000164562
-0.000159144
-0.000153302
-0.000147027
-0.000140358
-0.000133358
-0.000126093
-0.000118638
-0.000111082
-0.000103532
-9.60884e-05
-8.8848e-05
-8.1887e-05
-7.52694e-05
-6.90364e-05
-6.32152e-05
-5.78096e-05
-5.28193e-05
-4.82255e-05
-4.40149e-05
-4.01548e-05
-3.66191e-05
-3.33607e-05
-3.03475e-05
-2.75297e-05
-2.48855e-05
-2.23789e-05
-2.00127e-05
-1.77735e-05
-1.56836e-05
-1.37372e-05
-1.19496e-05
-1.02977e-05
-8.7806e-06
-7.34844e-06
-6.00825e-06
-4.6801e-06
-3.41153e-06
-2.07012e-06
-7.78612e-07
0.000884877
0.000830409
0.000751139
0.000646011
0.000519569
0.000381485
0.000244193
0.000119022
1.31506e-05
-7.11459e-05
-0.000135156
-0.000181786
-0.000214387
-0.000236392
-0.000250999
-0.000260783
-0.000267566
-0.000272485
-0.00027612
-0.000278685
-0.000280253
-0.000280911
-0.000280786
-0.000279991
-0.000278619
-0.000276776
-0.000274568
-0.000272067
-0.000269319
-0.000266374
-0.00026329
-0.000260102
-0.000256842
-0.000253543
-0.000250208
-0.000246842
-0.00024349
-0.000240198
-0.000236966
-0.000233777
-0.000230629
-0.000227525
-0.000224451
-0.000221377
-0.000218292
-0.000215202
-0.000212102
-0.000208995
-0.000205907
-0.000202841
-0.000199764
-0.000196627
-0.000193368
-0.000189912
-0.000186201
-0.00018222
-0.000178005
-0.000173611
-0.000169071
-0.000164362
-0.000159412
-0.000154142
-0.000148492
-0.000142452
-0.000136052
-0.000129347
-0.000122395
-0.000115269
-0.00010805
-0.000100835
-9.37141e-05
-8.67752e-05
-8.00901e-05
-7.37193e-05
-6.77021e-05
-6.20664e-05
-5.68172e-05
-5.19562e-05
-4.74675e-05
-4.33416e-05
-3.95495e-05
-3.60699e-05
-3.28594e-05
-2.98908e-05
-2.71162e-05
-2.45165e-05
-2.20549e-05
-1.97342e-05
-1.75367e-05
-1.54852e-05
-1.35682e-05
-1.18066e-05
-1.01702e-05
-8.67002e-06
-7.24541e-06
-5.92085e-06
-4.59942e-06
-3.34892e-06
-2.02478e-06
-7.60251e-07
0.000809813
0.000759468
0.000689257
0.000598527
0.000490604
0.000372353
0.000252897
0.000141235
4.3949e-05
-3.59363e-05
-9.85775e-05
-0.000145961
-0.000180712
-0.000205605
-0.000223282
-0.00023592
-0.000245131
-0.000252036
-0.000257308
-0.000261259
-0.000264024
-0.000265729
-0.000266529
-0.00026656
-0.000265929
-0.000264747
-0.000263125
-0.000261148
-0.000258875
-0.00025637
-0.000253686
-0.00025085
-0.000247899
-0.000244884
-0.000241822
-0.000238708
-0.000235573
-0.00023247
-0.000229413
-0.000226379
-0.000223361
-0.000220372
-0.000217408
-0.000214439
-0.000211457
-0.000208469
-0.000205468
-0.000202455
-0.000199448
-0.000196444
-0.000193411
-0.000190312
-0.000187096
-0.000183702
-0.000180083
-0.000176228
-0.000172154
-0.000167899
-0.000163484
-0.000158891
-0.000154065
-0.000148947
-0.00014349
-0.000137683
-0.000131551
-0.000125141
-0.000118505
-0.00011171
-0.00010483
-9.79505e-05
-9.11534e-05
-8.45195e-05
-7.81154e-05
-7.19986e-05
-6.62056e-05
-6.07647e-05
-5.56821e-05
-5.09623e-05
-4.65916e-05
-4.25634e-05
-3.88513e-05
-3.54378e-05
-3.22829e-05
-2.93645e-05
-2.66374e-05
-2.40862e-05
-2.16737e-05
-1.94043e-05
-1.72552e-05
-1.525e-05
-1.33698e-05
-1.1641e-05
-1.00248e-05
-8.54451e-06
-7.12956e-06
-5.81981e-06
-4.50758e-06
-3.27325e-06
-1.97136e-06
-7.34154e-07
0.000742063
0.000695704
0.000633282
0.000554439
0.0004617
0.000360064
0.000256257
0.000157263
6.87191e-05
-6.14281e-06
-6.66499e-05
-0.000113943
-0.000149958
-0.000176875
-0.000196875
-0.000211832
-0.000223135
-0.000231804
-0.000238557
-0.000243787
-0.000247675
-0.000250374
-0.000252065
-0.000252897
-0.000252982
-0.000252437
-0.000251394
-0.000249941
-0.000248138
-0.00024606
-0.000243771
-0.000241292
-0.000238654
-0.000235923
-0.000233131
-0.000230272
-0.000227361
-0.000224447
-0.000221562
-0.000218691
-0.000215815
-0.000212948
-0.000210096
-0.00020724
-0.000204367
-0.000201481
-0.000198579
-0.000195663
-0.000192743
-0.000189807
-0.000186829
-0.000183781
-0.000180621
-0.000177297
-0.000173773
-0.00017004
-0.000166106
-0.000161993
-0.000157712
-0.000153249
-0.000148561
-0.000143605
-0.000138344
-0.000132771
-0.000126906
-0.000120789
-0.000114467
-0.000108
-0.000101455
-9.49093e-05
-8.84355e-05
-8.21085e-05
-7.59889e-05
-7.01302e-05
-6.45665e-05
-5.93268e-05
-5.44188e-05
-4.98495e-05
-4.56072e-05
-4.16876e-05
-3.80658e-05
-3.47281e-05
-3.16371e-05
-2.87756e-05
-2.61011e-05
-2.36027e-05
-2.12432e-05
-1.90292e-05
-1.69331e-05
-1.49797e-05
-1.31424e-05
-1.14519e-05
-9.86156e-06
-8.40469e-06
-7.00369e-06
-5.70918e-06
-4.41019e-06
-3.19143e-06
-1.91595e-06
-7.0664e-07
0.000680519
0.000637962
0.000582322
0.000513448
0.000433309
0.000345622
0.000255384
0.000167973
8.80293e-05
1.86137e-05
-3.91121e-05
-8.55836e-05
-0.000122104
-0.000150311
-0.000171977
-0.000188726
-0.000201758
-0.00021195
-0.000220009
-0.000226393
-0.000231309
-0.000234926
-0.000237454
-0.000239052
-0.000239819
-0.000239881
-0.000239395
-0.000238463
-0.000237128
-0.000235464
-0.000233553
-0.000231425
-0.000229109
-0.000226668
-0.000224142
-0.00022153
-0.000218843
-0.000216127
-0.000213417
-0.000210712
-0.000207988
-0.000205248
-0.00020251
-0.000199773
-0.00019702
-0.000194239
-0.000191436
-0.000188621
-0.000185794
-0.000182933
-0.00018002
-0.000177037
-0.000173946
-0.000170702
-0.000167279
-0.000163669
-0.000159874
-0.000155905
-0.000151767
-0.000147445
-0.000142909
-0.000138125
-0.000133067
-0.00012773
-0.000122133
-0.000116308
-0.000110297
-0.000104153
-9.79395e-05
-9.17245e-05
-8.55731e-05
-7.95528e-05
-7.37186e-05
-6.81205e-05
-6.27907e-05
-5.77583e-05
-5.30325e-05
-4.86222e-05
-4.45174e-05
-4.07156e-05
-3.71937e-05
-3.39409e-05
-3.09224e-05
-2.81251e-05
-2.55095e-05
-2.3069e-05
-2.07667e-05
-1.86115e-05
-1.65723e-05
-1.46745e-05
-1.28848e-05
-1.1237e-05
-9.6784e-06
-8.24861e-06
-6.86694e-06
-5.58966e-06
-4.30861e-06
-3.10685e-06
-1.86094e-06
-6.80625e-07
0.000624281
0.000585313
0.000535635
0.000475234
0.000405669
0.000329751
0.000251219
0.00017421
0.000102474
3.87101e-05
-1.57228e-05
-6.07389e-05
-9.71008e-05
-0.000125974
-0.000148741
-0.000166785
-0.000181163
-0.000192624
-0.000201809
-0.000209197
-0.000215024
-0.000219463
-0.000222751
-0.00022507
-0.000226493
-0.000227129
-0.000227163
-0.000226724
-0.000225852
-0.0002246
-0.000223053
-0.00022126
-0.000219261
-0.000217115
-0.00021486
-0.000212487
-0.000210015
-0.000207502
-0.000204981
-0.000202441
-0.000199869
-0.000197266
-0.000194649
-0.000192034
-0.000189407
-0.000186738
-0.000184035
-0.000181325
-0.000178597
-0.000175819
-0.000172981
-0.000170077
-0.000167067
-0.000163912
-0.000160597
-0.000157114
-0.000153459
-0.000149637
-0.000145648
-0.000141479
-0.000137107
-0.000132506
-0.000127659
-0.000122562
-0.000117232
-0.000111698
-0.000105994
-0.000100171
-9.42862e-05
-8.83993e-05
-8.25677e-05
-7.68525e-05
-7.13042e-05
-6.59696e-05
-6.08786e-05
-5.606e-05
-5.15234e-05
-4.72798e-05
-4.33206e-05
-3.96454e-05
-3.62324e-05
-3.30735e-05
-3.01362e-05
-2.7411e-05
-2.48613e-05
-2.24843e-05
-2.0244e-05
-1.81512e-05
-1.61726e-05
-1.43334e-05
-1.25957e-05
-1.09941e-05
-9.47268e-06
-8.07365e-06
-6.71697e-06
-5.46024e-06
-4.20196e-06
-3.02036e-06
-1.80636e-06
-6.56494e-07
0.000572614
0.000537011
0.000492601
0.000439476
0.000378877
0.000312949
0.000244506
0.000176737
0.000112652
5.45487e-05
3.77887e-06
-3.92528e-05
-7.4887e-05
-0.000103889
-0.000127269
-0.000146152
-0.000161495
-0.000173959
-0.000184075
-0.000192302
-0.000198913
-0.000204075
-0.000208031
-0.000211001
-0.000213048
-0.000214229
-0.000214734
-0.000214743
-0.000214317
-0.000213483
-0.000212296
-0.000210813
-0.000209107
-0.000207256
-0.000205285
-0.000203155
-0.000200882
-0.000198562
-0.000196242
-0.00019388
-0.000191454
-0.000188988
-0.000186508
-0.000184024
-0.00018152
-0.000178965
-0.00017637
-0.00017377
-0.000171147
-0.000168459
-0.000165706
-0.000162893
-0.000159976
-0.00015692
-0.00015372
-0.00015037
-0.000146858
-0.000143186
-0.000139355
-0.000135349
-0.00013115
-0.000126744
-0.000122114
-0.000117261
-0.000112199
-0.000106953
-0.000101556
-9.6053e-05
-9.0493e-05
-8.49302e-05
-7.94155e-05
-7.4005e-05
-6.87442e-05
-6.36762e-05
-5.88285e-05
-5.42291e-05
-4.98886e-05
-4.58192e-05
-4.20138e-05
-3.84736e-05
-3.51783e-05
-3.2122e-05
-2.92745e-05
-2.66295e-05
-2.41533e-05
-2.18459e-05
-1.9673e-05
-1.76468e-05
-1.57326e-05
-1.3955e-05
-1.22732e-05
-1.07213e-05
-9.242e-06
-7.87773e-06
-6.55163e-06
-5.31963e-06
-4.08883e-06
-2.93142e-06
-1.75126e-06
-6.33524e-07
0.000524899
0.000492444
0.000452704
0.000405867
0.000352934
0.000295542
0.000235819
0.000176216
0.000119152
6.65609e-05
1.96718e-05
-2.09691e-05
-5.53979e-05
-8.40465e-05
-0.000107598
-0.000126926
-0.000142884
-0.000156069
-0.000166904
-0.0001758
-0.000183068
-0.000188857
-0.000193378
-0.0001969
-0.000199511
-0.00020121
-0.000202153
-0.000202567
-0.00020255
-0.000202117
-0.000201288
-0.000200104
-0.000198664
-0.000197091
-0.000195409
-0.000193535
-0.000191453
-0.000189305
-0.000187186
-0.000185027
-0.000182753
-0.000180407
-0.000178067
-0.000175737
-0.000173361
-0.000170912
-0.000168431
-0.000165953
-0.00016344
-0.000160846
-0.000158191
-0.000155479
-0.000152665
-0.000149718
-0.000146642
-0.00014343
-0.000140066
-0.00013655
-0.000132882
-0.000129049
-0.000125036
-0.000120831
-0.000116425
-0.00011182
-0.000107027
-0.000102071
-9.6979e-05
-9.17922e-05
-8.6554e-05
-8.13125e-05
-7.61135e-05
-7.10079e-05
-6.6036e-05
-6.12369e-05
-5.66364e-05
-5.22619e-05
-4.81242e-05
-4.42365e-05
-4.05929e-05
-3.71961e-05
-3.40272e-05
-3.10823e-05
-2.83336e-05
-2.57771e-05
-2.33819e-05
-2.11506e-05
-1.90509e-05
-1.70955e-05
-1.525e-05
-1.35373e-05
-1.19155e-05
-1.04168e-05
-8.98452e-06
-7.6594e-06
-6.36916e-06
-5.16659e-06
-3.96779e-06
-2.83882e-06
-1.69451e-06
-6.10901e-07
0.000480598
0.000451088
0.000415511
0.000374136
0.000327796
0.000277743
0.000225581
0.000173194
0.000122519
7.51767e-05
3.22402e-05
-5.7214e-06
-3.85452e-05
-6.64033e-05
-8.97287e-05
-0.000109167
-0.000125433
-0.000139059
-0.00015039
-0.000159783
-0.000167561
-0.00017387
-0.000178867
-0.000182835
-0.000185923
-0.000188099
-0.00018946
-0.000190244
-0.000190586
-0.000190508
-0.000190022
-0.000189145
-0.000187964
-0.000186638
-0.000185226
-0.000183611
-0.000181732
-0.000179748
-0.000177813
-0.000175864
-0.000173763
-0.000171533
-0.000169317
-0.000167151
-0.000164925
-0.000162582
-0.000160211
-0.000157865
-0.000155471
-0.000152977
-0.000150426
-0.000147829
-0.000145129
-0.0001423
-0.000139354
-0.000136287
-0.000133077
-0.000129723
-0.000126225
-0.000122574
-0.000118755
-0.00011476
-0.000110584
-0.000106231
-0.000101712
-9.70453e-05
-9.22558e-05
-8.73828e-05
-8.24648e-05
-7.75433e-05
-7.26588e-05
-6.78575e-05
-6.31753e-05
-5.86476e-05
-5.42984e-05
-5.01544e-05
-4.62261e-05
-4.25276e-05
-3.9054e-05
-3.58089e-05
-3.27752e-05
-2.99505e-05
-2.73092e-05
-2.48495e-05
-2.2543e-05
-2.03947e-05
-1.83742e-05
-1.64947e-05
-1.47222e-05
-1.30782e-05
-1.15207e-05
-1.00791e-05
-8.69868e-06
-7.41732e-06
-6.16802e-06
-4.99988e-06
-3.8375e-06
-2.74126e-06
-1.63522e-06
-5.87955e-07
0.000439244
0.000412492
0.00038065
0.00034405
0.000303412
0.000259697
0.000214112
0.000168104
0.000123216
8.07981e-05
4.17788e-05
6.68572e-06
-2.42184e-05
-5.09208e-05
-7.36697e-05
-9.29127e-05
-0.000109199
-0.000123004
-0.000134625
-0.000144336
-0.000152452
-0.000159155
-0.000164557
-0.000168891
-0.000172347
-0.000174922
-0.000176664
-0.000177791
-0.000178462
-0.000178695
-0.000178505
-0.000177925
-0.000177017
-0.000175927
-0.000174747
-0.00017337
-0.000171707
-0.000169903
-0.000168139
-0.000166375
-0.000164458
-0.000162372
-0.000160277
-0.000158258
-0.000156191
-0.000153972
-0.00015171
-0.000149495
-0.000147233
-0.00014485
-0.000142408
-0.000139934
-0.000137359
-0.000134656
-0.00013185
-0.000128934
-0.000125884
-0.000122699
-0.000119379
-0.000115917
-0.000112301
-0.000108525
-0.000104586
-0.000100489
-9.62446e-05
-9.18676e-05
-8.73808e-05
-8.28209e-05
-7.82217e-05
-7.36189e-05
-6.90474e-05
-6.45499e-05
-6.01585e-05
-5.59052e-05
-5.18116e-05
-4.79033e-05
-4.4191e-05
-4.06888e-05
-3.7393e-05
-3.4308e-05
-3.14183e-05
-2.87225e-05
-2.61974e-05
-2.38427e-05
-2.16331e-05
-1.95746e-05
-1.76397e-05
-1.58412e-05
-1.41467e-05
-1.25757e-05
-1.10869e-05
-9.70662e-06
-8.38291e-06
-7.15017e-06
-5.94688e-06
-4.81826e-06
-3.69671e-06
-2.63749e-06
-1.57263e-06
-5.64133e-07
0.000400442
0.000376271
0.000347813
0.000315425
0.000279742
0.000241523
0.00020167
0.000161297
0.000121633
8.37987e-05
4.85894e-05
1.64616e-05
-1.23068e-05
-3.75769e-05
-5.94363e-05
-7.81781e-05
-9.42177e-05
-0.00010797
-0.000119687
-0.000129543
-0.000137819
-0.000144768
-0.000150493
-0.000155125
-0.000158844
-0.000161711
-0.000163772
-0.000165218
-0.000166207
-0.000166727
-0.00016677
-0.000166426
-0.000165793
-0.000164967
-0.000164004
-0.000162821
-0.000161353
-0.00015975
-0.000158178
-0.000156583
-0.00015482
-0.000152893
-0.000150949
-0.00014907
-0.000147145
-0.000145065
-0.000142928
-0.000140839
-0.000138712
-0.000136456
-0.000134135
-0.000131788
-0.000129347
-0.000126781
-0.000124121
-0.000121364
-0.000118482
-0.000115471
-0.000112338
-0.000109073
-0.000105667
-0.000102118
-9.84221e-05
-9.45843e-05
-9.06154e-05
-8.65305e-05
-8.23483e-05
-7.81007e-05
-7.38182e-05
-6.95327e-05
-6.52745e-05
-6.10814e-05
-5.69825e-05
-5.30065e-05
-4.91728e-05
-4.55055e-05
-4.20154e-05
-3.87167e-05
-3.56066e-05
-3.269e-05
-2.99528e-05
-2.73946e-05
-2.49944e-05
-2.27532e-05
-2.06483e-05
-1.86869e-05
-1.6844e-05
-1.51323e-05
-1.3521e-05
-1.20275e-05
-1.06122e-05
-9.29787e-06
-8.03577e-06
-6.85662e-06
-5.70447e-06
-4.62041e-06
-3.54432e-06
-2.52634e-06
-1.50615e-06
-5.39191e-07
0.00036384
0.000342112
0.000316754
0.000288116
0.00025677
0.000223343
0.00018851
0.000153115
0.00011815
8.45484e-05
5.29815e-05
2.38253e-05
-2.67629e-06
-2.63111e-05
-4.70191e-05
-6.49821e-05
-8.05383e-05
-9.40298e-05
-0.000105648
-0.000115483
-0.000123762
-0.000130793
-0.000136714
-0.000141571
-0.000145482
-0.000148545
-0.000150837
-0.000152544
-0.000153822
-0.000154617
-0.000154857
-0.000154678
-0.000154278
-0.000153742
-0.000153018
-0.000151995
-0.000150673
-0.000149258
-0.00014791
-0.000146505
-0.00014487
-0.000143072
-0.000141302
-0.00013959
-0.000137795
-0.000135847
-0.000133853
-0.0001319
-0.000129902
-0.00012778
-0.000125595
-0.000123385
-0.000121086
-0.000118666
-0.000116161
-0.00011357
-0.000110862
-0.000108033
-0.000105095
-0.000102036
-9.88476e-05
-9.55303e-05
-9.20839e-05
-8.85107e-05
-8.48201e-05
-8.10278e-05
-7.71505e-05
-7.32148e-05
-6.92478e-05
-6.52789e-05
-6.13343e-05
-5.74469e-05
-5.36424e-05
-4.99468e-05
-4.63772e-05
-4.29563e-05
-3.9695e-05
-3.66072e-05
-3.36908e-05
-3.09509e-05
-2.83751e-05
-2.59633e-05
-2.36968e-05
-2.15773e-05
-1.95851e-05
-1.77281e-05
-1.59839e-05
-1.43649e-05
-1.28423e-05
-1.14313e-05
-1.00945e-05
-8.85093e-06
-7.65562e-06
-6.5351e-06
-5.43943e-06
-4.40488e-06
-3.37921e-06
-2.40655e-06
-1.43507e-06
-5.12883e-07
0.000322508
0.00030359
0.000281654
0.000257031
0.000230258
0.00020186
0.000172313
0.000142194
0.000112257
8.32693e-05
5.57809e-05
3.00806e-05
6.34819e-06
-1.51824e-05
-3.43188e-05
-5.11192e-05
-6.58543e-05
-7.87924e-05
-9.0064e-05
-9.97002e-05
-0.000107838
-0.00011478
-0.000120745
-0.00012576
-0.000129838
-0.000133048
-0.000135497
-0.000137404
-0.000138954
-0.000140055
-0.000140534
-0.000140503
-0.000140289
-0.00014005
-0.000139638
-0.000138825
-0.000137637
-0.000136389
-0.000135294
-0.000134158
-0.0001327
-0.000131018
-0.000129422
-0.000127941
-0.00012633
-0.000124517
-0.000122687
-0.000120924
-0.000119095
-0.000117127
-0.000115109
-0.000113077
-0.000110957
-0.000108721
-0.000106411
-0.000104028
-0.000101536
-9.89339e-05
-9.62351e-05
-9.34313e-05
-9.051e-05
-8.74754e-05
-8.43319e-05
-8.10807e-05
-7.77259e-05
-7.42821e-05
-7.07667e-05
-6.7203e-05
-6.36125e-05
-6.00197e-05
-5.64473e-05
-5.29241e-05
-4.94719e-05
-4.61128e-05
-4.28619e-05
-3.97402e-05
-3.67586e-05
-3.39302e-05
-3.12536e-05
-2.87338e-05
-2.63602e-05
-2.41331e-05
-2.2036e-05
-2.00716e-05
-1.82234e-05
-1.64994e-05
-1.48812e-05
-1.33797e-05
-1.19697e-05
-1.06629e-05
-9.42554e-06
-8.27194e-06
-7.16227e-06
-6.11746e-06
-5.09539e-06
-4.12566e-06
-3.16611e-06
-2.25243e-06
-1.34407e-06
-4.78458e-07
0.000276526
0.000260701
0.000242417
0.000221972
0.00019987
0.000176578
0.000152419
0.000127724
0.000103003
7.88689e-05
5.57988e-05
3.40084e-05
1.35838e-05
-5.29612e-06
-2.23677e-05
-3.75268e-05
-5.09311e-05
-6.2829e-05
-7.33605e-05
-8.25152e-05
-9.02884e-05
-9.6883e-05
-0.000102606
-0.000107574
-0.000111712
-0.000114978
-0.00011747
-0.00011945
-0.000121167
-0.000122548
-0.000123304
-0.000123431
-0.00012331
-0.00012327
-0.000123203
-0.000122718
-0.000121704
-0.000120564
-0.000119676
-0.000118864
-0.000117699
-0.000116167
-0.000114689
-0.000113458
-0.00011215
-0.000110521
-0.000108824
-0.00010729
-0.000105725
-0.000103955
-0.000102122
-0.000100323
-9.84438e-05
-9.64345e-05
-9.4366e-05
-9.22485e-05
-9.00318e-05
-8.77137e-05
-8.53142e-05
-8.2826e-05
-8.02377e-05
-7.7554e-05
-7.47793e-05
-7.19158e-05
-6.89671e-05
-6.59424e-05
-6.28572e-05
-5.97353e-05
-5.65939e-05
-5.34485e-05
-5.03172e-05
-4.72271e-05
-4.41974e-05
-4.1244e-05
-3.83786e-05
-3.56212e-05
-3.29831e-05
-3.04758e-05
-2.80979e-05
-2.58548e-05
-2.37376e-05
-2.17464e-05
-1.98673e-05
-1.81034e-05
-1.64416e-05
-1.48906e-05
-1.34355e-05
-1.20865e-05
-1.08215e-05
-9.64963e-06
-8.54056e-06
-7.50445e-06
-6.50626e-06
-5.56226e-06
-4.63729e-06
-3.75553e-06
-2.88346e-06
-2.05005e-06
-1.2242e-06
-4.34744e-07
0.000230227
0.000217401
0.000202606
0.000186078
0.000168273
0.00014963
0.000130395
0.000110714
9.08714e-05
7.1332e-05
5.25289e-05
3.46531e-05
1.77095e-05
1.77625e-06
-1.2887e-05
-2.60444e-05
-3.77253e-05
-4.8181e-05
-5.75992e-05
-6.59332e-05
-7.30602e-05
-7.90683e-05
-8.42758e-05
-8.89044e-05
-9.2887e-05
-9.60853e-05
-9.85282e-05
-0.000100445
-0.000102131
-0.000103622
-0.000104613
-0.000104931
-0.000104872
-0.00010489
-0.000105056
-0.000104935
-0.000104179
-0.000103118
-0.000102332
-0.000101807
-0.000101011
-9.97109e-05
-9.83153e-05
-9.72575e-05
-9.63055e-05
-9.49752e-05
-9.34052e-05
-9.20453e-05
-9.07938e-05
-8.92988e-05
-8.76576e-05
-8.61003e-05
-8.45203e-05
-8.27817e-05
-8.09725e-05
-7.91517e-05
-7.72519e-05
-7.52523e-05
-7.31872e-05
-7.10546e-05
-6.88381e-05
-6.65428e-05
-6.41722e-05
-6.17286e-05
-5.92206e-05
-5.66529e-05
-5.40311e-05
-5.13789e-05
-4.87174e-05
-4.60539e-05
-4.33965e-05
-4.0771e-05
-3.81973e-05
-3.56854e-05
-3.32409e-05
-3.08831e-05
-2.86246e-05
-2.64751e-05
-2.44325e-05
-2.25016e-05