/*--------------------------------*- C++ -*----------------------------------*\
| =========                 |                                                 |
| \\      /  F ield         | OpenFOAM: The Open Source CFD Toolbox           |
|  \\    /   O peration     | Version:  2.3.0                                 |
|   \\  /    A nd           | Web:      www.OpenFOAM.org                      |
|    \\/     M anipulation  |                                                 |
\*---------------------------------------------------------------------------*/
FoamFile
{
    version     2.0;
    format      ascii;
    class       volVectorField;
    location    "0.3";
    object      U;
}
// * * * * * * * * * * * * * * * * * * * * * * * * * * * * * * * * * * * * * //

dimensions      [0 1 -1 0 0 0 0];

internalField   nonuniform List<vector> 
3105
(
(0.176836 0.00434289 0)
(0.156129 0.00594967 0)
(0.137432 0.00612213 0)
(0.119298 0.00553011 0)
(0.101814 0.00472945 0)
(0.0857774 0.00384625 0)
(0.0722233 0.00288826 0)
(0.0615693 0.00187663 0)
(0.0536441 0.000988967 0)
(0.047924 0.000380917 0)
(0.0438439 5.34629e-05 0)
(0.0409308 -8.16806e-05 0)
(0.0388034 -0.000108375 0)
(0.0371769 -8.37811e-05 0)
(0.0358476 -4.03596e-05 0)
(0.0346864 2.73719e-06 0)
(0.0336222 3.61099e-05 0)
(0.0326223 5.7646e-05 0)
(0.0316752 6.90775e-05 0)
(0.0307791 7.32901e-05 0)
(0.0299347 7.29433e-05 0)
(0.0291427 7.00445e-05 0)
(0.0284026 6.59819e-05 0)
(0.027712 6.16489e-05 0)
(0.0270674 5.7521e-05 0)
(0.0264645 5.37231e-05 0)
(0.0258996 5.01934e-05 0)
(0.0253696 4.68867e-05 0)
(0.0248716 4.38606e-05 0)
(0.0244028 4.11895e-05 0)
(0.0239601 3.88399e-05 0)
(0.023541 3.66725e-05 0)
(0.023144 3.45604e-05 0)
(0.022768 3.24973e-05 0)
(0.022412 3.05775e-05 0)
(0.0220744 2.88708e-05 0)
(0.0217537 2.73494e-05 0)
(0.0214486 2.59274e-05 0)
(0.0211583 2.45307e-05 0)
(0.0208825 2.31429e-05 0)
(0.0206209 2.17963e-05 0)
(0.0203727 2.05239e-05 0)
(0.0201375 1.93301e-05 0)
(0.0199146 1.81981e-05 0)
(0.0197035 1.71058e-05 0)
(0.0195041 1.60587e-05 0)
(0.0193157 1.50859e-05 0)
(0.019138 1.41998e-05 0)
(0.0189703 1.33755e-05 0)
(0.0188123 1.25758e-05 0)
(0.018664 1.17602e-05 0)
(0.0185254 1.09025e-05 0)
(0.0183968 1.00044e-05 0)
(0.0182783 9.09898e-06 0)
(0.0181697 8.22716e-06 0)
(0.0180708 7.43179e-06 0)
(0.017981 6.72616e-06 0)
(0.0178998 6.07914e-06 0)
(0.0178268 5.42633e-06 0)
(0.0177622 4.71996e-06 0)
(0.0177061 3.93739e-06 0)
(0.0176588 3.09483e-06 0)
(0.0176206 2.24329e-06 0)
(0.0175912 1.4637e-06 0)
(0.0175705 7.77675e-07 0)
(0.017558 1.91141e-07 0)
(0.0175532 -3.12739e-07 0)
(0.0175554 -1.11472e-06 0)
(0.0175636 -1.60503e-06 0)
(0.0175765 -2.05807e-06 0)
(0.0175932 -2.34839e-06 0)
(0.017612 -2.52559e-06 0)
(0.0176322 -2.58199e-06 0)
(0.0176526 -2.52474e-06 0)
(0.0176726 -2.3956e-06 0)
(0.0176915 -2.21246e-06 0)
(0.0177092 -2.01723e-06 0)
(0.0177253 -1.80498e-06 0)
(0.01774 -1.61377e-06 0)
(0.0177533 -1.42949e-06 0)
(0.0177655 -1.27971e-06 0)
(0.0177765 -1.14085e-06 0)
(0.0177868 -1.04296e-06 0)
(0.0177963 -9.50902e-07 0)
(0.0178054 -8.9771e-07 0)
(0.0178138 -8.3609e-07 0)
(0.0178221 -8.04397e-07 0)
(0.0178297 -7.45218e-07 0)
(0.0178372 -7.0676e-07 0)
(0.0178439 -6.29234e-07 0)
(0.0178503 -5.73267e-07 0)
(0.0178558 -4.81837e-07 0)
(0.0178608 -4.2085e-07 0)
(0.017865 -3.34597e-07 0)
(0.0178686 -2.84387e-07 0)
(0.0178718 -2.16311e-07 0)
(0.0178742 -1.80023e-07 0)
(0.0178766 -1.36145e-07 0)
(0.0178778 -1.12731e-07 0)
(0.0178803 -1.20534e-07 0)
(0.192311 0.00770906 0)
(0.190438 0.010796 0)
(0.187864 0.0118823 0)
(0.184007 0.011725 0)
(0.178574 0.0110893 0)
(0.171745 0.0101982 0)
(0.164131 0.00905141 0)
(0.156225 0.00764454 0)
(0.148413 0.00612734 0)
(0.140923 0.0047169 0)
(0.13389 0.00355521 0)
(0.127411 0.00267364 0)
(0.121532 0.00203847 0)
(0.116259 0.00160314 0)
(0.111551 0.00131612 0)
(0.107336 0.00112843 0)
(0.103544 0.00100104 0)
(0.100109 0.000907728 0)
(0.0969793 0.000833039 0)
(0.0941099 0.000768649 0)
(0.0914666 0.000710422 0)
(0.0890216 0.000656638 0)
(0.0867524 0.000606971 0)
(0.08464 0.000561691 0)
(0.0826679 0.000520934 0)
(0.0808215 0.000484303 0)
(0.0790887 0.000451055 0)
(0.0774594 0.000420647 0)
(0.0759248 0.000392994 0)
(0.0744767 0.000368129 0)
(0.0731075 0.000345741 0)
(0.0718108 0.000325172 0)
(0.0705816 0.000305832 0)
(0.0694157 0.000287575 0)
(0.0683093 0.000270628 0)
(0.0672587 0.00025513 0)
(0.0662598 0.000240875 0)
(0.0653096 0.000227476 0)
(0.0644057 0.000214631 0)
(0.0635462 0.000202258 0)
(0.0627294 0.000190439 0)
(0.0619536 0.000179248 0)
(0.0612168 0.000168658 0)
(0.0605176 0.000158576 0)
(0.0598545 0.000148894 0)
(0.0592266 0.000139591 0)
(0.0586327 0.000130733 0)
(0.0580717 0.000122346 0)
(0.0575427 0.000114338 0)
(0.0570447 0.000106582 0)
(0.0565775 9.89418e-05 0)
(0.0561407 9.13295e-05 0)
(0.0557344 8.37446e-05 0)
(0.0553583 7.62858e-05 0)
(0.0550119 6.9079e-05 0)
(0.0546945 6.22569e-05 0)
(0.0544051 5.58616e-05 0)
(0.0541429 4.97981e-05 0)
(0.0539075 4.38686e-05 0)
(0.0536985 3.79364e-05 0)
(0.0535162 3.19498e-05 0)
(0.0533602 2.59623e-05 0)
(0.0532302 2.00938e-05 0)
(0.0531253 1.45459e-05 0)
(0.0530445 9.44463e-06 0)
(0.0529859 4.89289e-06 0)
(0.0529476 9.00679e-07 0)
(0.0529274 -2.87226e-06 0)
(0.0529227 -6.28493e-06 0)
(0.0529302 -8.71808e-06 0)
(0.0529473 -1.01834e-05 0)
(0.0529707 -1.09703e-05 0)
(0.0529983 -1.12215e-05 0)
(0.0530274 -1.09987e-05 0)
(0.053057 -1.04681e-05 0)
(0.0530854 -9.71859e-06 0)
(0.0531126 -8.91688e-06 0)
(0.0531375 -8.07198e-06 0)
(0.0531609 -7.31918e-06 0)
(0.0531822 -6.61005e-06 0)
(0.0532025 -6.03367e-06 0)
(0.053221 -5.50539e-06 0)
(0.0532392 -5.11991e-06 0)
(0.0532559 -4.75241e-06 0)
(0.0532727 -4.51188e-06 0)
(0.0532883 -4.23377e-06 0)
(0.0533041 -4.05062e-06 0)
(0.0533185 -3.76417e-06 0)
(0.053333 -3.54989e-06 0)
(0.0533459 -3.19518e-06 0)
(0.0533585 -2.92441e-06 0)
(0.0533694 -2.5225e-06 0)
(0.0533797 -2.24699e-06 0)
(0.0533887 -1.86554e-06 0)
(0.0533966 -1.64151e-06 0)
(0.0534039 -1.31659e-06 0)
(0.0534094 -1.16193e-06 0)
(0.0534158 -8.97824e-07 0)
(0.0534186 -8.266e-07 0)
(0.0534254 -7.21157e-07 0)
(0.193279 0.00742381 0)
(0.19364 0.0100242 0)
(0.194634 0.0116145 0)
(0.195681 0.012127 0)
(0.196126 0.012025 0)
(0.195643 0.0115862 0)
(0.194233 0.010853 0)
(0.192019 0.00984704 0)
(0.189159 0.00867243 0)
(0.185816 0.00749274 0)
(0.182136 0.00644009 0)
(0.178265 0.00556889 0)
(0.174325 0.00486903 0)
(0.170414 0.00431196 0)
(0.166583 0.00386462 0)
(0.162853 0.00349737 0)
(0.159235 0.00318716 0)
(0.155733 0.00291815 0)
(0.152348 0.00268047 0)
(0.149082 0.00246788 0)
(0.145935 0.00227609 0)
(0.142908 0.00210213 0)
(0.14 0.00194417 0)
(0.137209 0.00180124 0)
(0.134533 0.00167241 0)
(0.13197 0.00155618 0)
(0.129517 0.00145067 0)
(0.127171 0.00135433 0)
(0.124926 0.00126644 0)
(0.122779 0.00118668 0)
(0.120727 0.00111432 0)
(0.118764 0.00104793 0)
(0.116886 0.000986079 0)
(0.11509 0.000928056 0)
(0.113371 0.000873975 0)
(0.111726 0.000824032 0)
(0.110153 0.000777869 0)
(0.108648 0.000734672 0)
(0.107207 0.000693663 0)
(0.10583 0.000654486 0)
(0.104513 0.000617166 0)
(0.103255 0.00058177 0)
(0.102055 0.000548172 0)
(0.100909 0.00051612 0)
(0.0998165 0.000485369 0)
(0.098776 0.000455849 0)
(0.0977864 0.000427626 0)
(0.0968466 0.000400684 0)
(0.0959555 0.00037481 0)
(0.0951122 0.000349724 0)
(0.0943162 0.00032515 0)
(0.093567 0.000300929 0)
(0.0928644 0.000277073 0)
(0.092208 0.000253762 0)
(0.0915974 0.000231212 0)
(0.0910317 0.00020964 0)
(0.09051 0.0001891 0)
(0.0900314 0.000169412 0)
(0.0895952 0.000150232 0)
(0.089201 0.000131344 0)
(0.0888486 0.000112715 0)
(0.0885372 9.44901e-05 0)
(0.0882664 7.68754e-05 0)
(0.0880344 6.01789e-05 0)
(0.0878397 4.46386e-05 0)
(0.0876797 3.04829e-05 0)
(0.0875521 1.79419e-05 0)
(0.0874531 7.25519e-06 0)
(0.08738 -1.96597e-06 0)
(0.0873283 -8.84629e-06 0)
(0.0872946 -1.41755e-05 0)
(0.0872742 -1.74803e-05 0)
(0.0872644 -1.91352e-05 0)
(0.0872612 -1.95098e-05 0)
(0.0872632 -1.90448e-05 0)
(0.0872674 -1.80091e-05 0)
(0.0872736 -1.6764e-05 0)
(0.0872798 -1.53616e-05 0)
(0.087287 -1.41004e-05 0)
(0.0872936 -1.29205e-05 0)
(0.0873012 -1.19886e-05 0)
(0.0873082 -1.11441e-05 0)
(0.0873166 -1.0556e-05 0)
(0.0873245 -9.9825e-06 0)
(0.0873341 -9.6245e-06 0)
(0.087343 -9.16563e-06 0)
(0.0873536 -8.86383e-06 0)
(0.0873632 -8.3347e-06 0)
(0.0873743 -7.93416e-06 0)
(0.0873838 -7.23747e-06 0)
(0.0873944 -6.71587e-06 0)
(0.0874033 -5.90206e-06 0)
(0.0874126 -5.36749e-06 0)
(0.0874208 -4.56304e-06 0)
(0.0874284 -4.13454e-06 0)
(0.0874361 -3.39101e-06 0)
(0.0874415 -3.1138e-06 0)
(0.0874493 -2.42599e-06 0)
(0.0874519 -2.31627e-06 0)
(0.0874605 -1.91284e-06 0)
(0.194277 0.00700296 0)
(0.19461 0.00887182 0)
(0.195619 0.0103733 0)
(0.197161 0.0111279 0)
(0.198755 0.0112795 0)
(0.200022 0.0110639 0)
(0.200801 0.0105902 0)
(0.201064 0.009904 0)
(0.20083 0.00907037 0)
(0.200141 0.00819301 0)
(0.19906 0.00737389 0)
(0.197672 0.00667127 0)
(0.196065 0.00609456 0)
(0.194314 0.00562264 0)
(0.192467 0.00522934 0)
(0.190552 0.00489293 0)
(0.188581 0.00459724 0)
(0.186563 0.00433105 0)
(0.184506 0.00408709 0)
(0.182417 0.00386061 0)
(0.180303 0.00364841 0)
(0.178172 0.00344845 0)
(0.176033 0.00325992 0)
(0.173893 0.00308275 0)
(0.171759 0.00291674 0)
(0.169638 0.00276103 0)
(0.167535 0.00261437 0)
(0.165455 0.00247576 0)
(0.163403 0.00234493 0)
(0.161382 0.00222199 0)
(0.159397 0.00210681 0)
(0.157453 0.00199859 0)
(0.155551 0.00189619 0)
(0.153694 0.00179891 0)
(0.15188 0.00170672 0)
(0.150111 0.00161969 0)
(0.148388 0.00153751 0)
(0.146712 0.00145944 0)
(0.145083 0.00138466 0)
(0.143503 0.00131275 0)
(0.141972 0.0012438 0)
(0.140492 0.001178 0)
(0.139062 0.00111524 0)
(0.137683 0.00105505 0)
(0.136354 0.000996908 0)
(0.135073 0.000940598 0)
(0.133841 0.00088622 0)
(0.132658 0.000833846 0)
(0.131523 0.000783311 0)
(0.130439 0.000734294 0)
(0.129405 0.00068637 0)
(0.128422 0.000639201 0)
(0.127491 0.00059271 0)
(0.12661 0.000547108 0)
(0.12578 0.000502723 0)
(0.125 0.000459925 0)
(0.124269 0.000418865 0)
(0.123587 0.000379316 0)
(0.122955 0.00034078 0)
(0.122371 0.000302929 0)
(0.121838 0.000265735 0)
(0.121353 0.000229462 0)
(0.120916 0.00019447 0)
(0.120526 0.00016126 0)
(0.12018 0.000130261 0)
(0.119876 0.000101805 0)
(0.119613 7.60478e-05 0)
(0.119386 5.34687e-05 0)
(0.119193 3.46111e-05 0)
(0.11903 1.94329e-05 0)
(0.118893 7.14743e-06 0)
(0.118779 -1.76922e-06 0)
(0.118684 -7.69711e-06 0)
(0.118604 -1.11483e-05 0)
(0.118537 -1.28219e-05 0)
(0.118478 -1.32058e-05 0)
(0.118429 -1.296e-05 0)
(0.118384 -1.24181e-05 0)
(0.118345 -1.18383e-05 0)
(0.11831 -1.11846e-05 0)
(0.118279 -1.07762e-05 0)
(0.118251 -1.03991e-05 0)
(0.118228 -1.03237e-05 0)
(0.118206 -1.0189e-05 0)
(0.118189 -1.03121e-05 0)
(0.118173 -1.02096e-05 0)
(0.118162 -1.02954e-05 0)
(0.11815 -9.972e-06 0)
(0.118143 -9.8229e-06 0)
(0.118135 -9.15379e-06 0)
(0.118131 -8.76202e-06 0)
(0.118126 -7.84203e-06 0)
(0.118123 -7.38631e-06 0)
(0.118121 -6.39069e-06 0)
(0.118119 -6.0512e-06 0)
(0.118119 -5.0451e-06 0)
(0.118119 -4.86876e-06 0)
(0.118121 -3.85397e-06 0)
(0.11812 -3.79174e-06 0)
(0.118124 -3.12161e-06 0)
(0.195105 0.00670382 0)
(0.195423 0.00812561 0)
(0.196219 0.00941422 0)
(0.197507 0.0102194 0)
(0.199016 0.010491 0)
(0.20044 0.0103792 0)
(0.201604 0.0100216 0)
(0.202457 0.0094953 0)
(0.202998 0.00885512 0)
(0.203241 0.00816776 0)
(0.203211 0.00750626 0)
(0.202952 0.00692287 0)
(0.20252 0.00643583 0)
(0.201967 0.00603527 0)
(0.201328 0.00570161 0)
(0.200624 0.00541675 0)
(0.19986 0.0051669 0)
(0.19904 0.0049422 0)
(0.198162 0.00473588 0)
(0.197228 0.00454326 0)
(0.196239 0.00436107 0)
(0.195196 0.00418719 0)
(0.194104 0.00402066 0)
(0.192967 0.00386131 0)
(0.191788 0.00370896 0)
(0.190571 0.00356311 0)
(0.189322 0.00342303 0)
(0.188044 0.00328804 0)
(0.186739 0.0031578 0)
(0.185412 0.00303222 0)
(0.184067 0.00291107 0)
(0.182709 0.00279386 0)
(0.181344 0.0026801 0)
(0.179976 0.00256989 0)
(0.178609 0.0024639 0)
(0.177245 0.00236251 0)
(0.175885 0.00226526 0)
(0.174531 0.00217113 0)
(0.173183 0.00207895 0)
(0.171846 0.00198809 0)
(0.170521 0.00189869 0)
(0.169215 0.00181142 0)
(0.167933 0.00172689 0)
(0.166677 0.0016453 0)
(0.165449 0.00156633 0)
(0.164249 0.0014896 0)
(0.163075 0.00141478 0)
(0.161927 0.00134147 0)
(0.160806 0.00126918 0)
(0.159715 0.00119766 0)
(0.158657 0.00112683 0)
(0.157638 0.00105679 0)
(0.15666 0.000987817 0)
(0.155726 0.000920269 0)
(0.154834 0.000854389 0)
(0.153982 0.000790371 0)
(0.153169 0.000728197 0)
(0.152394 0.000667533 0)
(0.151659 0.000607845 0)
(0.150967 0.000548874 0)
(0.15032 0.000490771 0)
(0.149719 0.000434061 0)
(0.149164 0.000379352 0)
(0.148654 0.000327303 0)
(0.148188 0.000278387 0)
(0.147761 0.000233004 0)
(0.147374 0.000191449 0)
(0.147023 0.000154197 0)
(0.146707 0.000121598 0)
(0.146422 9.38549e-05 0)
(0.146168 7.12637e-05 0)
(0.145941 5.34129e-05 0)
(0.14574 3.96991e-05 0)
(0.145559 2.9667e-05 0)
(0.145399 2.2548e-05 0)
(0.145255 1.77463e-05 0)
(0.145127 1.43594e-05 0)
(0.145009 1.18801e-05 0)
(0.144903 9.86536e-06 0)
(0.144804 8.27799e-06 0)
(0.144716 6.64727e-06 0)
(0.144633 5.18512e-06 0)
(0.144559 3.50621e-06 0)
(0.14449 2.06113e-06 0)
(0.14443 4.22049e-07 0)
(0.144372 -7.78736e-07 0)
(0.144324 -2.11053e-06 0)
(0.144276 -2.77348e-06 0)
(0.144236 -3.60328e-06 0)
(0.144196 -3.64837e-06 0)
(0.144163 -4.04992e-06 0)
(0.144129 -3.67265e-06 0)
(0.144102 -3.94877e-06 0)
(0.144073 -3.41119e-06 0)
(0.144052 -3.77325e-06 0)
(0.144029 -3.17304e-06 0)
(0.144014 -3.62895e-06 0)
(0.143997 -2.97824e-06 0)
(0.143989 -3.31551e-06 0)
(0.143974 -2.99539e-06 0)
(0.195785 0.00646315 0)
(0.196101 0.00761388 0)
(0.196764 0.00869609 0)
(0.197806 0.00946841 0)
(0.199079 0.00981021 0)
(0.200359 0.00978345 0)
(0.201479 0.00951068 0)
(0.202375 0.00908502 0)
(0.203041 0.00856458 0)
(0.203494 0.0079984 0)
(0.203753 0.00743903 0)
(0.203849 0.00693065 0)
(0.203823 0.00649535 0)
(0.203713 0.00613278 0)
(0.203551 0.0058303 0)
(0.203355 0.0055731 0)
(0.203129 0.00534896 0)
(0.202876 0.00514893 0)
(0.202593 0.00496669 0)
(0.202277 0.00479783 0)
(0.201926 0.0046392 0)
(0.201539 0.00448855 0)
(0.201116 0.00434459 0)
(0.200656 0.00420678 0)
(0.200161 0.00407475 0)
(0.199632 0.00394803 0)
(0.199069 0.00382604 0)
(0.198473 0.00370818 0)
(0.197845 0.00359401 0)
(0.197185 0.00348303 0)
(0.196494 0.00337463 0)
(0.195775 0.003268 0)
(0.19503 0.00316249 0)
(0.194263 0.00305826 0)
(0.193478 0.00295642 0)
(0.192676 0.00285803 0)
(0.19186 0.00276329 0)
(0.19103 0.00267152 0)
(0.190184 0.00258139 0)
(0.189322 0.00249144 0)
(0.188444 0.00240072 0)
(0.187556 0.00230905 0)
(0.186664 0.00221715 0)
(0.185773 0.00212614 0)
(0.184889 0.00203708 0)
(0.184015 0.00195085 0)
(0.183149 0.00186776 0)
(0.182288 0.00178702 0)
(0.18143 0.00170697 0)
(0.180572 0.00162588 0)
(0.179719 0.0015426 0)
(0.178875 0.00145712 0)
(0.178051 0.00137075 0)
(0.177255 0.0012855 0)
(0.17649 0.00120314 0)
(0.175755 0.00112446 0)
(0.175044 0.00104884 0)
(0.17435 0.000974614 0)
(0.173674 0.00090006 0)
(0.173017 0.000824489 0)
(0.172387 0.000748459 0)
(0.171788 0.000673372 0)
(0.171226 0.000600675 0)
(0.170698 0.000531479 0)
(0.170205 0.000466384 0)
(0.169743 0.000405759 0)
(0.169312 0.00034976 0)
(0.168908 0.00029874 0)
(0.168532 0.000253131 0)
(0.168181 0.00021326 0)
(0.167855 0.000179109 0)
(0.167553 0.000150354 0)
(0.167275 0.000126594 0)
(0.167019 0.000107476 0)
(0.166785 9.22433e-05 0)
(0.166569 8.02861e-05 0)
(0.166373 7.07382e-05 0)
(0.16619 6.31755e-05 0)
(0.166024 5.67594e-05 0)
(0.165866 5.12555e-05 0)
(0.165721 4.606e-05 0)
(0.165583 4.12873e-05 0)
(0.165458 3.64684e-05 0)
(0.165338 3.207e-05 0)
(0.165232 2.76457e-05 0)
(0.165129 2.39387e-05 0)
(0.16504 2.03388e-05 0)
(0.164951 1.77753e-05 0)
(0.164875 1.52544e-05 0)
(0.164796 1.38313e-05 0)
(0.16473 1.20883e-05 0)
(0.164658 1.12776e-05 0)
(0.164599 9.70853e-06 0)
(0.164532 8.95244e-06 0)
(0.164482 7.26771e-06 0)
(0.164422 6.36673e-06 0)
(0.164385 4.76404e-06 0)
(0.164331 3.69464e-06 0)
(0.16431 2.70526e-06 0)
(0.164259 1.23703e-06 0)
(0.196368 0.00624607 0)
(0.196677 0.0072051 0)
(0.197246 0.00811021 0)
(0.198102 0.00880549 0)
(0.199161 0.00917495 0)
(0.200268 0.00922184 0)
(0.201281 0.00903053 0)
(0.202122 0.00868962 0)
(0.202774 0.00826108 0)
(0.203249 0.00778827 0)
(0.20357 0.00731064 0)
(0.203761 0.00686338 0)
(0.203853 0.00646878 0)
(0.203879 0.00613261 0)
(0.203866 0.00584863 0)
(0.203832 0.00560585 0)
(0.203785 0.00539385 0)
(0.203728 0.00520471 0)
(0.203659 0.00503282 0)
(0.203578 0.00487428 0)
(0.203481 0.00472633 0)
(0.203368 0.00458691 0)
(0.203238 0.00445467 0)
(0.20309 0.00432885 0)
(0.202923 0.00420896 0)
(0.202737 0.00409437 0)
(0.202533 0.00398447 0)
(0.20231 0.0038788 0)
(0.202068 0.00377705 0)
(0.201806 0.00367864 0)
(0.201523 0.00358266 0)
(0.201219 0.003488 0)
(0.200894 0.00339354 0)
(0.20055 0.00329894 0)
(0.200188 0.00320511 0)
(0.19981 0.00311359 0)
(0.19942 0.00302548 0)
(0.199015 0.00294092 0)
(0.198595 0.00285896 0)
(0.198156 0.00277791 0)
(0.197696 0.00269569 0)
(0.197216 0.00261059 0)
(0.196718 0.00252222 0)
(0.19621 0.00243157 0)
(0.195696 0.00234045 0)
(0.195182 0.00225115 0)
(0.19467 0.00216568 0)
(0.194157 0.00208459 0)
(0.193639 0.00200648 0)
(0.193108 0.0019285 0)
(0.192563 0.00184724 0)
(0.192003 0.00176017 0)
(0.191437 0.00166707 0)
(0.190876 0.00157055 0)
(0.190334 0.00147514 0)
(0.189816 0.00138521 0)
(0.189317 0.00130233 0)
(0.188827 0.00122425 0)
(0.188335 0.00114654 0)
(0.187839 0.00106565 0)
(0.187344 0.000980853 0)
(0.186858 0.00089413 0)
(0.186391 0.000808504 0)
(0.185946 0.000726475 0)
(0.185524 0.000649342 0)
(0.185122 0.000577566 0)
(0.18474 0.000511274 0)
(0.184375 0.000450741 0)
(0.184027 0.00039618 0)
(0.183693 0.000347576 0)
(0.183377 0.000304739 0)
(0.183073 0.000267356 0)
(0.182787 0.000235047 0)
(0.182515 0.000207495 0)
(0.182262 0.000184199 0)
(0.182023 0.000164733 0)
(0.181804 0.000148454 0)
(0.181596 0.000134902 0)
(0.181405 0.000123329 0)
(0.18122 0.000113286 0)
(0.18105 0.000104051 0)
(0.180882 9.54218e-05 0)
(0.180728 8.68863e-05 0)
(0.180575 7.87317e-05 0)
(0.18044 7.06658e-05 0)
(0.180304 6.34261e-05 0)
(0.180188 5.6684e-05 0)
(0.180069 5.13733e-05 0)
(0.179969 4.67215e-05 0)
(0.179861 4.35511e-05 0)
(0.179772 4.05533e-05 0)
(0.179667 3.84097e-05 0)
(0.179583 3.58208e-05 0)
(0.179478 3.3322e-05 0)
(0.179404 3.04806e-05 0)
(0.179299 2.70246e-05 0)
(0.179241 2.43479e-05 0)
(0.179137 1.99233e-05 0)
(0.179105 1.83172e-05 0)
(0.178999 1.3111e-05 0)
(0.196878 0.00604043 0)
(0.197173 0.0068494 0)
(0.197669 0.0076083 0)
(0.198383 0.00821601 0)
(0.199266 0.0085821 0)
(0.200213 0.00868358 0)
(0.201112 0.00856681 0)
(0.201885 0.00830315 0)
(0.202502 0.00795292 0)
(0.202967 0.00755818 0)
(0.203299 0.00715153 0)
(0.203519 0.0067609 0)
(0.203653 0.00640612 0)
(0.203727 0.00609573 0)
(0.203764 0.00582841 0)
(0.20378 0.00559714 0)
(0.203787 0.0053935 0)
(0.203787 0.0052107 0)
(0.203783 0.00504403 0)
(0.203772 0.00489011 0)
(0.203755 0.0047466 0)
(0.203731 0.00461191 0)
(0.203699 0.00448478 0)
(0.203659 0.00436432 0)
(0.203611 0.00424991 0)
(0.203554 0.00414088 0)
(0.20349 0.00403649 0)
(0.203418 0.00393644 0)
(0.203338 0.00384064 0)
(0.203249 0.0037486 0)
(0.203152 0.00365934 0)
(0.203044 0.00357166 0)
(0.202925 0.00348427 0)
(0.202796 0.00339631 0)
(0.202656 0.00330817 0)
(0.202507 0.00322138 0)
(0.20235 0.00313763 0)
(0.202186 0.00305777 0)
(0.202015 0.00298156 0)
(0.201832 0.00290771 0)
(0.201636 0.00283388 0)
(0.201424 0.00275716 0)
(0.201197 0.00267563 0)
(0.200957 0.00258928 0)
(0.200708 0.00249979 0)
(0.200456 0.00241002 0)
(0.200204 0.00232336 0)
(0.199953 0.00224235 0)
(0.199699 0.00216724 0)
(0.199436 0.00209556 0)
(0.199158 0.00202271 0)
(0.198857 0.00194353 0)
(0.198537 0.00185447 0)
(0.198205 0.00175571 0)
(0.197876 0.00165225 0)
(0.197562 0.00155217 0)
(0.197269 0.00146207 0)
(0.196985 0.00138259 0)
(0.196699 0.00130837 0)
(0.196398 0.001232 0)
(0.196082 0.00114898 0)
(0.195756 0.00105979 0)
(0.195432 0.000968347 0)
(0.195115 0.000878965 0)
(0.19481 0.000794402 0)
(0.194515 0.000715731 0)
(0.194232 0.000643265 0)
(0.193957 0.000577128 0)
(0.193693 0.000517472 0)
(0.193434 0.00046413 0)
(0.193184 0.000416774 0)
(0.192939 0.000374731 0)
(0.192703 0.000337488 0)
(0.192472 0.000304515 0)
(0.192255 0.000275476 0)
(0.192044 0.000249984 0)
(0.191849 0.000227931 0)
(0.191661 0.000209052 0)
(0.191488 0.000193079 0)
(0.191317 0.000179322 0)
(0.191159 0.000167119 0)
(0.190997 0.000155647 0)
(0.190848 0.000144413 0)
(0.190693 0.000133109 0)
(0.190555 0.000121795 0)
(0.190412 0.000110859 0)
(0.190292 0.000100754 0)
(0.190163 9.21472e-05 0)
(0.190061 8.52907e-05 0)
(0.189943 8.02264e-05 0)
(0.189852 7.67422e-05 0)
(0.189731 7.37086e-05 0)
(0.189644 7.15536e-05 0)
(0.189512 6.77054e-05 0)
(0.189429 6.5211e-05 0)
(0.189286 5.88712e-05 0)
(0.189218 5.6195e-05 0)
(0.189065 4.72934e-05 0)
(0.189027 4.5546e-05 0)
(0.188865 3.50025e-05 0)
(0.197326 0.00584212 0)
(0.197604 0.00652914 0)
(0.19804 0.00717 0)
(0.198644 0.00769669 0)
(0.199385 0.008043 0)
(0.200193 0.00817946 0)
(0.200982 0.00812563 0)
(0.201683 0.00793182 0)
(0.202261 0.00765097 0)
(0.202709 0.00732369 0)
(0.203041 0.00697933 0)
(0.203275 0.00664101 0)
(0.203431 0.00632558 0)
(0.203531 0.00604207 0)
(0.203593 0.00579238 0)
(0.203634 0.00557293 0)
(0.203662 0.00537748 0)
(0.203682 0.00520052 0)
(0.203698 0.00503825 0)
(0.203709 0.00488781 0)
(0.203715 0.00474724 0)
(0.203716 0.00461536 0)
(0.203712 0.00449106 0)
(0.203704 0.00437329 0)
(0.203691 0.00426142 0)
(0.203674 0.00415488 0)
(0.203653 0.00405289 0)
(0.20363 0.00395499 0)
(0.203603 0.00386126 0)
(0.203574 0.00377142 0)
(0.203542 0.00368456 0)
(0.203507 0.00359961 0)
(0.203468 0.00351542 0)
(0.203424 0.00343086 0)
(0.203375 0.00334575 0)
(0.203321 0.00326132 0)
(0.203264 0.00317939 0)
(0.203204 0.00310119 0)
(0.203141 0.00302709 0)
(0.203076 0.00295644 0)
(0.203005 0.00288719 0)
(0.202927 0.00281597 0)
(0.20284 0.00273975 0)
(0.202744 0.00265751 0)
(0.202641 0.00257041 0)
(0.202535 0.00248119 0)
(0.202427 0.00239365 0)
(0.202321 0.00231161 0)
(0.202216 0.00223716 0)
(0.202109 0.00216914 0)
(0.201993 0.00210326 0)
(0.201863 0.00203326 0)
(0.201713 0.00195287 0)
(0.201546 0.00185862 0)
(0.20137 0.0017532 0)
(0.201199 0.00164588 0)
(0.201043 0.00154784 0)
(0.200901 0.0014648 0)
(0.200762 0.00139346 0)
(0.200612 0.00132429 0)
(0.200445 0.00124866 0)
(0.20026 0.00116373 0)
(0.200066 0.00107277 0)
(0.199869 0.000981217 0)
(0.199675 0.000893482 0)
(0.199484 0.00081148 0)
(0.199297 0.000735833 0)
(0.199114 0.000666632 0)
(0.198936 0.000604298 0)
(0.19876 0.000548662 0)
(0.19859 0.00049943 0)
(0.19842 0.000455547 0)
(0.198255 0.000416379 0)
(0.198089 0.000380899 0)
(0.197932 0.000348841 0)
(0.197774 0.0003196 0)
(0.197629 0.000293671 0)
(0.197485 0.00027089 0)
(0.197355 0.000251844 0)
(0.197221 0.000235652 0)
(0.1971 0.000222093 0)
(0.196968 0.000209454 0)
(0.196848 0.000197411 0)
(0.196714 0.000184513 0)
(0.196598 0.000171376 0)
(0.196466 0.000157435 0)
(0.196363 0.000144491 0)
(0.196242 0.00013239 0)
(0.196157 0.000123488 0)
(0.196044 0.00011631 0)
(0.195971 0.000113225 0)
(0.195853 0.000109821 0)
(0.195781 0.000110077 0)
(0.195641 0.000105882 0)
(0.195568 0.000106122 0)
(0.195402 9.76094e-05 0)
(0.195339 9.69018e-05 0)
(0.195151 8.36024e-05 0)
(0.195113 8.28017e-05 0)
(0.194908 6.65444e-05 0)
(0.19772 0.00565069 0)
(0.19798 0.00623789 0)
(0.198365 0.00678411 0)
(0.198882 0.00724109 0)
(0.199509 0.00756103 0)
(0.200198 0.00771635 0)
(0.200886 0.00771162 0)
(0.201517 0.00757863 0)
(0.202052 0.00735962 0)
(0.20248 0.00709172 0)
(0.202807 0.00680219 0)
(0.203048 0.0065112 0)
(0.203219 0.00623334 0)
(0.203337 0.00597723 0)
(0.203418 0.00574629 0)
(0.203475 0.00553956 0)
(0.203517 0.00535309 0)
(0.20355 0.00518272 0)
(0.203576 0.00502549 0)
(0.203596 0.00487904 0)
(0.203611 0.00474167 0)
(0.203621 0.00461251 0)
(0.203626 0.00449065 0)
(0.203628 0.004375 0)
(0.203625 0.00426492 0)
(0.20362 0.00416002 0)
(0.203612 0.00405947 0)
(0.203602 0.0039626 0)
(0.203591 0.00386947 0)
(0.203579 0.00378006 0)
(0.203566 0.00369365 0)
(0.203553 0.00360936 0)
(0.20354 0.00352628 0)
(0.203524 0.00344324 0)
(0.203506 0.00335966 0)
(0.203485 0.00327648 0)
(0.203462 0.00319541 0)
(0.203437 0.00311762 0)
(0.203413 0.00304364 0)
(0.203388 0.00297338 0)
(0.203364 0.00290531 0)
(0.203338 0.00283615 0)
(0.203309 0.00276251 0)
(0.203276 0.00268285 0)
(0.203239 0.00259785 0)
(0.203199 0.00250976 0)
(0.203156 0.00242205 0)
(0.203113 0.00233891 0)
(0.203073 0.00226356 0)
(0.203033 0.0021961 0)
(0.202992 0.00213322 0)
(0.202945 0.00206897 0)
(0.202888 0.0019961 0)
(0.202816 0.00190848 0)
(0.202732 0.00180571 0)
(0.202643 0.00169569 0)
(0.202561 0.00159165 0)
(0.202489 0.00150359 0)
(0.202425 0.00143182 0)
(0.202358 0.00136723 0)
(0.202282 0.00129871 0)
(0.202191 0.00122016 0)
(0.202088 0.00113315 0)
(0.201976 0.00104312 0)
(0.201862 0.000955518 0)
(0.201743 0.000872864 0)
(0.201626 0.000796193 0)
(0.201507 0.000725579 0)
(0.201393 0.00066178 0)
(0.201278 0.000604691 0)
(0.201169 0.000554379 0)
(0.201058 0.000509568 0)
(0.200953 0.000469733 0)
(0.200843 0.000433307 0)
(0.200741 0.000400107 0)
(0.200634 0.00036896 0)
(0.200538 0.000340851 0)
(0.200438 0.000315464 0)
(0.200352 0.000294495 0)
(0.200258 0.000276865 0)
(0.200177 0.000263234 0)
(0.20008 0.000250806 0)
(0.199996 0.000239705 0)
(0.19989 0.00022679 0)
(0.199802 0.00021347 0)
(0.199692 0.000197503 0)
(0.199612 0.000182592 0)
(0.199508 0.000167014 0)
(0.199446 0.000156335 0)
(0.199348 0.000146705 0)
(0.1993 0.000144657 0)
(0.199193 0.00014117 0)
(0.199147 0.000145546 0)
(0.199012 0.000142134 0)
(0.19896 0.000147486 0)
(0.198787 0.000138194 0)
(0.198738 0.000141538 0)
(0.198532 0.000124954 0)
(0.198501 0.000126262 0)
(0.198272 0.000105056 0)
(0.198067 0.00546678 0)
(0.198309 0.00597237 0)
(0.198651 0.00644207 0)
(0.199097 0.0068404 0)
(0.199632 0.00713255 0)
(0.200221 0.00729529 0)
(0.200819 0.00732619 0)
(0.201381 0.00724377 0)
(0.201872 0.00707901 0)
(0.202276 0.00686357 0)
(0.202595 0.00662246 0)
(0.202839 0.00637388 0)
(0.203019 0.00613103 0)
(0.20315 0.00590202 0)
(0.203246 0.00569062 0)
(0.203317 0.00549759 0)
(0.20337 0.00532116 0)
(0.203412 0.00515848 0)
(0.203446 0.0050072 0)
(0.203474 0.0048655 0)
(0.203495 0.004732 0)
(0.20351 0.00460602 0)
(0.203521 0.0044869 0)
(0.203527 0.00437361 0)
(0.20353 0.00426551 0)
(0.203529 0.00416218 0)
(0.203525 0.00406285 0)
(0.20352 0.00396683 0)
(0.203514 0.00387413 0)
(0.203507 0.00378479 0)
(0.2035 0.00369827 0)
(0.203494 0.00361389 0)
(0.203487 0.00353106 0)
(0.20348 0.00344875 0)
(0.203472 0.00336617 0)
(0.203461 0.00328399 0)
(0.203448 0.00320376 0)
(0.203434 0.00312632 0)
(0.20342 0.00305195 0)
(0.203406 0.00298082 0)
(0.203395 0.00291202 0)
(0.203386 0.00284269 0)
(0.203377 0.00276959 0)
(0.203367 0.0026911 0)
(0.203355 0.0026077 0)
(0.20334 0.00252109 0)
(0.203322 0.00243416 0)
(0.203302 0.00235084 0)
(0.203283 0.0022746 0)
(0.203265 0.00220618 0)
(0.203249 0.00214322 0)
(0.203234 0.00208071 0)
(0.203216 0.00201189 0)
(0.20319 0.00192975 0)
(0.203153 0.00183168 0)
(0.203107 0.00172321 0)
(0.203059 0.001617 0)
(0.203014 0.00152493 0)
(0.202977 0.00145046 0)
(0.202943 0.00138646 0)
(0.202909 0.0013217 0)
(0.202866 0.00124826 0)
(0.202815 0.00116599 0)
(0.202753 0.00107942 0)
(0.202684 0.000994094 0)
(0.202609 0.000912724 0)
(0.202532 0.000836634 0)
(0.20245 0.000765746 0)
(0.202372 0.000701126 0)
(0.202291 0.000642736 0)
(0.202218 0.000591235 0)
(0.202142 0.000545311 0)
(0.202073 0.000504865 0)
(0.202 0.000467836 0)
(0.201934 0.000434206 0)
(0.201863 0.000402011 0)
(0.201801 0.000372693 0)
(0.201733 0.0003455 0)
(0.201678 0.000323341 0)
(0.201614 0.000304817 0)
(0.201562 0.000291826 0)
(0.201493 0.000280355 0)
(0.201436 0.000271311 0)
(0.201354 0.000259423 0)
(0.201291 0.000247162 0)
(0.2012 0.000229957 0)
(0.201142 0.000213888 0)
(0.201054 0.000194937 0)
(0.201013 0.000182751 0)
(0.20093 0.000170332 0)
(0.200905 0.000169627 0)
(0.200811 0.00016607 0)
(0.200788 0.00017557 0)
(0.200663 0.000173802 0)
(0.200632 0.000185944 0)
(0.200463 0.000177329 0)
(0.200428 0.000186362 0)
(0.200219 0.000167989 0)
(0.200196 0.000172368 0)
(0.199959 0.000147487 0)
(0.198373 0.005291 0)
(0.198596 0.00572968 0)
(0.198901 0.00613681 0)
(0.199289 0.00648594 0)
(0.199749 0.0067513 0)
(0.200255 0.00691415 0)
(0.200774 0.00696941 0)
(0.201271 0.00692721 0)
(0.201717 0.00680884 0)
(0.202096 0.00663944 0)
(0.202403 0.00644121 0)
(0.202645 0.00623081 0)
(0.202831 0.00602027 0)
(0.202972 0.00581732 0)
(0.203078 0.00562583 0)
(0.203159 0.00544737 0)
(0.203223 0.00528191 0)
(0.203274 0.00512784 0)
(0.203315 0.00498335 0)
(0.203348 0.00484716 0)
(0.203375 0.00471829 0)
(0.203395 0.00459614 0)
(0.203409 0.00448024 0)
(0.20342 0.00436971 0)
(0.203425 0.00426389 0)
(0.203428 0.00416228 0)
(0.203428 0.0040642 0)
(0.203426 0.00396913 0)
(0.203422 0.00387709 0)
(0.203418 0.00378799 0)
(0.203414 0.00370135 0)
(0.203409 0.00361671 0)
(0.203405 0.00353386 0)
(0.203401 0.00345205 0)
(0.203395 0.00337044 0)
(0.203388 0.00328931 0)
(0.203378 0.00320997 0)
(0.203367 0.00313301 0)
(0.203356 0.00305839 0)
(0.203346 0.00298618 0)
(0.203338 0.00291594 0)
(0.203332 0.00284541 0)
(0.203329 0.00277171 0)
(0.203326 0.00269347 0)
(0.203323 0.00261123 0)
(0.203316 0.0025263 0)
(0.203307 0.0024409 0)
(0.203294 0.00235837 0)
(0.20328 0.00228191 0)
(0.203267 0.0022123 0)
(0.203257 0.00214781 0)
(0.20325 0.00208448 0)
(0.203245 0.00201668 0)
(0.203237 0.00193785 0)
(0.203222 0.00184459 0)
(0.203196 0.00174027 0)
(0.203163 0.00163554 0)
(0.203127 0.00154182 0)
(0.203095 0.00146423 0)
(0.20307 0.00139798 0)
(0.20305 0.0013335 0)
(0.203027 0.00126276 0)
(0.202999 0.00118454 0)
(0.202962 0.00110197 0)
(0.202917 0.00102011 0)
(0.202864 0.000941242 0)
(0.202807 0.000866784 0)
(0.202745 0.000796403 0)
(0.202684 0.00073146 0)
(0.202621 0.000671914 0)
(0.202564 0.000619094 0)
(0.202506 0.000571737 0)
(0.202455 0.000530362 0)
(0.2024 0.000492481 0)
(0.202353 0.000458403 0)
(0.2023 0.000425324 0)
(0.202256 0.000395168 0)
(0.202206 0.000366525 0)
(0.202169 0.000343536 0)
(0.202121 0.000324312 0)
(0.202087 0.000312215 0)
(0.202034 0.000301919 0)
(0.201995 0.000295407 0)
(0.201928 0.000284994 0)
(0.201882 0.000274472 0)
(0.201805 0.000256459 0)