/*--------------------------------*- C++ -*----------------------------------*\
| =========                 |                                                 |
| \\      /  F ield         | OpenFOAM: The Open Source CFD Toolbox           |
|  \\    /   O peration     | Version:  2.3.0                                 |
|   \\  /    A nd           | Web:      www.OpenFOAM.org                      |
|    \\/     M anipulation  |                                                 |
\*---------------------------------------------------------------------------*/
FoamFile
{
    version     2.0;
    format      ascii;
    class       volVectorField;
    location    "0.65";
    object      U_0;
}
// * * * * * * * * * * * * * * * * * * * * * * * * * * * * * * * * * * * * * //

dimensions      [0 1 -1 0 0 0 0];

internalField   nonuniform List<vector> 
2700
(
(0.188981 0.00340193 0)
(0.175075 0.00574082 0)
(0.159252 0.00577886 0)
(0.141379 0.0053441 0)
(0.123026 0.00494623 0)
(0.105658 0.00441718 0)
(0.0904141 0.00366478 0)
(0.0777804 0.00271074 0)
(0.067771 0.00172817 0)
(0.060143 0.000921454 0)
(0.0544888 0.000379265 0)
(0.0503668 7.15495e-05 0)
(0.0473704 -7.26346e-05 0)
(0.0451513 -0.000113875 0)
(0.0434413 -9.84631e-05 0)
(0.0420469 -5.86855e-05 0)
(0.040838 -1.47238e-05 0)
(0.0397365 2.24379e-05 0)
(0.0387021 4.88824e-05 0)
(0.0377182 6.5008e-05 0)
(0.0367802 7.30442e-05 0)
(0.0358887 7.55073e-05 0)
(0.035045 7.45266e-05 0)
(0.0342495 7.16563e-05 0)
(0.0335015 6.79202e-05 0)
(0.0327989 6.39363e-05 0)
(0.032139 6.00364e-05 0)
(0.0315185 5.63749e-05 0)
(0.0309343 5.30114e-05 0)
(0.0303829 4.99445e-05 0)
(0.0298615 4.71595e-05 0)
(0.0293672 4.4621e-05 0)
(0.0288978 4.23039e-05 0)
(0.0284509 4.01787e-05 0)
(0.0280248 3.82223e-05 0)
(0.0276175 3.64139e-05 0)
(0.0272279 3.47387e-05 0)
(0.0268544 3.31764e-05 0)
(0.0264962 3.17248e-05 0)
(0.0261518 3.03612e-05 0)
(0.0258207 2.90895e-05 0)
(0.0255016 2.78915e-05 0)
(0.0251943 2.67682e-05 0)
(0.0248975 2.57094e-05 0)
(0.0246112 2.47125e-05 0)
(0.024334 2.37709e-05 0)
(0.0240663 2.28842e-05 0)
(0.0238066 2.20415e-05 0)
(0.0235555 2.12502e-05 0)
(0.0233114 2.04945e-05 0)
(0.0230753 1.97818e-05 0)
(0.0228452 1.91061e-05 0)
(0.0226225 1.8459e-05 0)
(0.0224051 1.78516e-05 0)
(0.0221946 1.72658e-05 0)
(0.0219885 1.6713e-05 0)
(0.0217891 1.61822e-05 0)
(0.0215934 1.56809e-05 0)
(0.0214042 1.51911e-05 0)
(0.0212179 1.47413e-05 0)
(0.0210381 1.42852e-05 0)
(0.0208604 1.38786e-05 0)
(0.0206893 1.3456e-05 0)
(0.0205194 1.30861e-05 0)
(0.0203564 1.26912e-05 0)
(0.0201937 1.23583e-05 0)
(0.0200383 1.19825e-05 0)
(0.019882 1.16886e-05 0)
(0.0197338 1.13251e-05 0)
(0.0195835 1.10678e-05 0)
(0.0194421 1.07177e-05 0)
(0.0192972 1.04904e-05 0)
(0.0191624 1.01499e-05 0)
(0.0190224 9.96113e-06 0)
(0.0188939 9.61377e-06 0)
(0.0187582 9.46972e-06 0)
(0.0186359 9.11894e-06 0)
(0.018504 9.00749e-06 0)
(0.018388 8.65309e-06 0)
(0.0182593 8.58897e-06 0)
(0.0181494 8.20745e-06 0)
(0.0180234 8.20127e-06 0)
(0.0179199 7.79772e-06 0)
(0.0177957 7.84018e-06 0)
(0.0176989 7.40832e-06 0)
(0.0175758 7.5222e-06 0)
(0.0174859 7.03982e-06 0)
(0.017363 7.23409e-06 0)
(0.0172806 6.70347e-06 0)
(0.0171567 6.9872e-06 0)
(0.0170825 6.38596e-06 0)
(0.0169561 6.79516e-06 0)
(0.016891 6.09813e-06 0)
(0.0167602 6.66415e-06 0)
(0.0167055 5.84487e-06 0)
(0.0165675 6.62375e-06 0)
(0.0165253 5.63149e-06 0)
(0.0163755 6.69812e-06 0)
(0.0163503 5.57742e-06 0)
(0.0161751 8.50153e-06 0)
(0.200079 0.00563383 0)
(0.202857 0.0102961 0)
(0.203844 0.0111993 0)
(0.202051 0.0110639 0)
(0.197797 0.0108805 0)
(0.19183 0.0105331 0)
(0.184954 0.00983457 0)
(0.177637 0.00873303 0)
(0.170178 0.00736162 0)
(0.162811 0.00593906 0)
(0.155705 0.00464788 0)
(0.148988 0.00357826 0)
(0.14276 0.00274603 0)
(0.137063 0.00212693 0)
(0.1319 0.00168604 0)
(0.127238 0.00138492 0)
(0.123024 0.00118385 0)
(0.119197 0.00104772 0)
(0.115703 0.000950212 0)
(0.112495 0.000874253 0)
(0.109535 0.000810086 0)
(0.106793 0.000752717 0)
(0.104244 0.000699937 0)
(0.101867 0.000650955 0)
(0.0996444 0.000605593 0)
(0.0975616 0.000563857 0)
(0.0956055 0.000525725 0)
(0.0937638 0.000491073 0)
(0.0920267 0.000459705 0)
(0.0903841 0.000431323 0)
(0.0888284 0.000405653 0)
(0.0873514 0.000382362 0)
(0.0859473 0.000361186 0)
(0.0846092 0.000341854 0)
(0.0833331 0.000324149 0)
(0.0821129 0.000307864 0)
(0.0809459 0.000292854 0)
(0.0798268 0.000278942 0)
(0.0787538 0.000266056 0)
(0.0777222 0.000254037 0)
(0.076731 0.000242856 0)
(0.0757757 0.000232385 0)
(0.0748562 0.000222601 0)
(0.073968 0.00021341 0)
(0.0731117 0.000204796 0)
(0.0722828 0.000196676 0)
(0.0714828 0.000189055 0)
(0.0707066 0.000181839 0)
(0.0699567 0.000175065 0)
(0.0692275 0.000168624 0)
(0.0685227 0.000162564 0)
(0.0678357 0.000156803 0)
(0.0671715 0.000151349 0)
(0.0665225 0.00014617 0)
(0.0658951 0.000141255 0)
(0.0652804 0.000136563 0)
(0.0646865 0.000132122 0)
(0.064103 0.000127866 0)
(0.0635398 0.000123814 0)
(0.0629845 0.000119958 0)
(0.0624496 0.000116242 0)
(0.06192 0.000112729 0)
(0.0614114 0.000109321 0)
(0.0609052 0.000106103 0)
(0.060421 0.000102962 0)
(0.0599362 0.000100019 0)
(0.059475 9.70982e-05 0)
(0.0590096 9.44155e-05 0)
(0.05857 9.16781e-05 0)
(0.0581223 8.92302e-05 0)
(0.0577034 8.66662e-05 0)
(0.0572716 8.44164e-05 0)
(0.0568726 8.20016e-05 0)
(0.0564552 7.99639e-05 0)
(0.0560756 7.76372e-05 0)
(0.0556708 7.58161e-05 0)
(0.0553102 7.35825e-05 0)
(0.0549165 7.19277e-05 0)
(0.0545748 6.97799e-05 0)
(0.0541904 6.83269e-05 0)
(0.053868 6.61885e-05 0)
(0.053491 6.49574e-05 0)
(0.0531882 6.28448e-05 0)
(0.0528165 6.17955e-05 0)
(0.0525345 5.96897e-05 0)
(0.0521657 5.88827e-05 0)
(0.0519055 5.6721e-05 0)
(0.0515368 5.61708e-05 0)
(0.0513003 5.39718e-05 0)
(0.0509284 5.36943e-05 0)
(0.0507179 5.14068e-05 0)
(0.0503384 5.14967e-05 0)
(0.0501572 4.90783e-05 0)
(0.0497645 4.96046e-05 0)
(0.0496169 4.70428e-05 0)
(0.0492032 4.81173e-05 0)
(0.0490957 4.54089e-05 0)
(0.0486492 4.72352e-05 0)
(0.0485928 4.43974e-05 0)
(0.0480923 5.0847e-05 0)
(0.200023 0.00371265 0)
(0.202939 0.0082724 0)
(0.206299 0.0100806 0)
(0.208905 0.0106228 0)
(0.210345 0.0108967 0)
(0.210713 0.0110315 0)
(0.210246 0.0108436 0)
(0.209068 0.0102394 0)
(0.207241 0.0093028 0)
(0.204832 0.00821025 0)
(0.201949 0.00713468 0)
(0.19872 0.00618211 0)
(0.195285 0.00538838 0)
(0.191761 0.00474331 0)
(0.188234 0.00422352 0)
(0.184753 0.00380454 0)
(0.181342 0.00346248 0)
(0.178011 0.00317638 0)
(0.174763 0.00293 0)
(0.171601 0.00271211 0)
(0.168528 0.00251569 0)
(0.165546 0.00233657 0)
(0.162655 0.00217236 0)
(0.159858 0.00202161 0)
(0.157155 0.00188336 0)
(0.154545 0.0017568 0)
(0.15203 0.0016412 0)
(0.149606 0.00153577 0)
(0.147273 0.00143974 0)
(0.145026 0.00135222 0)
(0.142865 0.00127247 0)
(0.140784 0.00119964 0)
(0.138781 0.00113306 0)
(0.136852 0.00107201 0)
(0.134995 0.00101596 0)
(0.133204 0.000964314 0)
(0.131478 0.000916677 0)
(0.129812 0.000872538 0)
(0.128205 0.000831668 0)
(0.126651 0.0007936 0)
(0.12515 0.000758219 0)
(0.123697 0.000725127 0)
(0.122293 0.000694257 0)
(0.120931 0.000665282 0)
(0.119614 0.000638171 0)
(0.118333 0.000612629 0)
(0.117094 0.000588692 0)
(0.115888 0.000566035 0)
(0.114721 0.00054479 0)
(0.113581 0.000524594 0)
(0.112478 0.000505625 0)
(0.1114 0.000487559 0)
(0.110356 0.000470531 0)
(0.109333 0.000454285 0)
(0.108344 0.000438961 0)
(0.107371 0.000424259 0)
(0.106431 0.000410423 0)
(0.105505 0.00039708 0)
(0.104611 0.000384503 0)
(0.103727 0.000372377 0)
(0.102876 0.000360895 0)
(0.10203 0.000349817 0)
(0.10122 0.000339324 0)
(0.100409 0.000329155 0)
(0.0996362 0.000319529 0)
(0.098857 0.000310179 0)
(0.0981203 0.000301299 0)
(0.0973703 0.0002927 0)
(0.0966675 0.000284466 0)
(0.095944 0.000276531 0)
(0.0952738 0.000268898 0)
(0.0945743 0.000261526 0)
(0.0939357 0.00025443 0)
(0.0932575 0.000247612 0)
(0.0926499 0.000240926 0)
(0.0919904 0.000234638 0)
(0.0914136 0.000228359 0)
(0.0907701 0.000222481 0)
(0.0902243 0.000216588 0)
(0.089594 0.000211151 0)
(0.0890798 0.000205507 0)
(0.0884596 0.000200515 0)
(0.0879782 0.000195153 0)
(0.0873646 0.000190504 0)
(0.0869178 0.000185397 0)
(0.0863068 0.000181164 0)
(0.0858969 0.000176222 0)
(0.0852842 0.000172392 0)
(0.0849144 0.000167675 0)
(0.0842944 0.000164236 0)
(0.0839689 0.0001597 0)
(0.083335 0.000156763 0)
(0.083059 0.000152411 0)
(0.0824028 0.00015003 0)
(0.0821834 0.000145945 0)
(0.0814938 0.00014426 0)
(0.0813399 0.000140524 0)
(0.0806025 0.000140068 0)
(0.0805252 0.000136639 0)
(0.0797224 0.000142327 0)
(0.200008 0.00252623 0)
(0.201847 0.00633046 0)
(0.204533 0.00842029 0)
(0.207326 0.00932359 0)
(0.209692 0.00975033 0)
(0.211534 0.0100008 0)
(0.212949 0.0100237 0)
(0.213989 0.00973376 0)
(0.214631 0.00915296 0)
(0.214832 0.00839536 0)
(0.214587 0.00759726 0)
(0.213944 0.00685998 0)
(0.212989 0.00622961 0)
(0.21181 0.00571058 0)
(0.21048 0.00528554 0)
(0.209047 0.00493289 0)
(0.207537 0.00463421 0)
(0.205962 0.00437495 0)
(0.204333 0.00414397 0)
(0.202652 0.00393311 0)
(0.200929 0.00373697 0)
(0.199167 0.00355216 0)
(0.197374 0.0033769 0)
(0.195556 0.00321026 0)
(0.19372 0.00305193 0)
(0.191872 0.0029017 0)
(0.19002 0.00275952 0)
(0.188167 0.00262517 0)
(0.186321 0.00249856 0)
(0.184483 0.00237925 0)
(0.18266 0.00226706 0)
(0.180853 0.00216146 0)
(0.179068 0.00206223 0)
(0.177303 0.00196884 0)
(0.175566 0.00188105 0)
(0.173851 0.00179836 0)
(0.172166 0.00172061 0)
(0.170507 0.00164726 0)
(0.16888 0.00157828 0)
(0.167278 0.00151308 0)
(0.165711 0.00145174 0)
(0.164168 0.00139366 0)
(0.162661 0.00133896 0)
(0.161177 0.0012871 0)
(0.159729 0.00123822 0)
(0.158304 0.00119175 0)
(0.156914 0.00114798 0)
(0.155544 0.00110622 0)
(0.154211 0.0010669 0)
(0.152895 0.00102926 0)
(0.151617 0.000993829 0)
(0.150352 0.00095983 0)
(0.149126 0.000927778 0)
(0.14791 0.000896951 0)
(0.146733 0.000867918 0)
(0.145564 0.000839826 0)
(0.144435 0.00081347 0)
(0.143308 0.00078781 0)
(0.142225 0.000763762 0)
(0.141139 0.000740289 0)
(0.140099 0.00071828 0)
(0.139051 0.000696709 0)
(0.138053 0.000676554 0)
(0.13704 0.000656638 0)
(0.136083 0.000638137 0)
(0.135102 0.000619708 0)
(0.134184 0.000602655 0)
(0.133233 0.00058558 0)
(0.132353 0.000569806 0)
(0.131429 0.000553922 0)
(0.130587 0.000539352 0)
(0.129688 0.00052447 0)
(0.128882 0.000510995 0)
(0.128005 0.000497071 0)
(0.127237 0.000484494 0)
(0.126378 0.000471456 0)
(0.125647 0.000459773 0)
(0.124804 0.000447407 0)
(0.124112 0.000436585 0)
(0.12328 0.000424902 0)
(0.122629 0.000414746 0)
(0.121805 0.00040371 0)
(0.121196 0.000394278 0)
(0.120376 0.000383698 0)
(0.119812 0.000374968 0)
(0.118991 0.000364908 0)
(0.118476 0.00035677 0)
(0.117648 0.000347164 0)
(0.117186 0.000339734 0)
(0.116345 0.00033052 0)
(0.115941 0.000323765 0)
(0.115079 0.000315069 0)
(0.11474 0.000309018 0)
(0.113847 0.000300913 0)
(0.113581 0.000295666 0)
(0.112646 0.000288461 0)
(0.112463 0.000284012 0)
(0.111472 0.000278692 0)
(0.111379 0.000275046 0)
(0.110319 0.000276112 0)
(0.200008 0.001865 0)
(0.201221 0.00499631 0)
(0.203187 0.00711728 0)
(0.205506 0.00824027 0)
(0.20772 0.00876879 0)
(0.209625 0.00902692 0)
(0.211244 0.009094 0)
(0.21264 0.00893789 0)
(0.213824 0.00855318 0)
(0.214754 0.00800294 0)
(0.215398 0.00738673 0)
(0.215759 0.0067935 0)
(0.21588 0.00627443 0)
(0.215819 0.00584344 0)
(0.215634 0.0054908 0)
(0.215359 0.00519899 0)
(0.215019 0.00495228 0)
(0.214618 0.00473859 0)
(0.214162 0.00454896 0)
(0.213648 0.00437641 0)
(0.21308 0.00421602 0)
(0.212454 0.00406425 0)
(0.211775 0.00391917 0)
(0.211042 0.00377952 0)
(0.210261 0.00364493 0)
(0.20943 0.00351507 0)
(0.208558 0.00339003 0)
(0.207644 0.0032696 0)
(0.206695 0.00315396 0)
(0.20571 0.00304274 0)
(0.204699 0.00293614 0)
(0.203657 0.00283365 0)
(0.202595 0.00273548 0)
(0.201508 0.00264112 0)
(0.200407 0.00255074 0)
(0.199286 0.00246382 0)
(0.198157 0.00238063 0)
(0.197011 0.00230052 0)
(0.195864 0.00222395 0)
(0.194702 0.0021501 0)
(0.193544 0.00207958 0)
(0.192374 0.00201152 0)
(0.191212 0.00194656 0)
(0.19004 0.00188383 0)
(0.188881 0.001824 0)
(0.187712 0.00176614 0)
(0.18656 0.00171107 0)
(0.185399 0.00165764 0)
(0.184258 0.00160696 0)
(0.183108 0.00155761 0)
(0.181983 0.00151091 0)
(0.180846 0.00146534 0)
(0.179739 0.00142224 0)
(0.178618 0.00138009 0)
(0.177532 0.00134037 0)
(0.176428 0.00130126 0)
(0.175363 0.00126465 0)
(0.174278 0.00122832 0)
(0.173237 0.00119447 0)
(0.17217 0.00116074 0)
(0.171155 0.00112941 0)
(0.170106 0.00109797 0)
(0.169117 0.001069 0)
(0.168086 0.0010396 0)
(0.167125 0.0010128 0)
(0.166112 0.000985241 0)
(0.165179 0.000960392 0)
(0.164182 0.000934547 0)
(0.163279 0.000911461 0)
(0.162296 0.000887127 0)
(0.161424 0.000865748 0)
(0.160455 0.000842672 0)
(0.159616 0.000822893 0)
(0.158658 0.000801021 0)
(0.157852 0.000782595 0)
(0.156903 0.000761833 0)
(0.156133 0.000744782 0)
(0.15519 0.00072482 0)
(0.154458 0.000709132 0)
(0.153519 0.000689974 0)
(0.152827 0.000675398 0)
(0.151887 0.00065698 0)
(0.15124 0.000643619 0)
(0.150295 0.000625662 0)
(0.149695 0.000613502 0)
(0.148742 0.000596077 0)
(0.148194 0.00058498 0)
(0.147226 0.000567983 0)
(0.146736 0.000558108 0)
(0.145746 0.000541459 0)
(0.145319 0.000532746 0)
(0.1443 0.000516629 0)
(0.143945 0.000509084 0)
(0.142888 0.000493649 0)
(0.142611 0.000487329 0)
(0.141507 0.000473081 0)
(0.141316 0.000467939 0)
(0.140153 0.000456095 0)
(0.140056 0.00045243 0)
(0.138823 0.000446494 0)
(0.200006 0.00145133 0)
(0.200859 0.00404495 0)
(0.202315 0.00602763 0)
(0.204165 0.00725412 0)
(0.206079 0.00788504 0)
(0.207817 0.00817559 0)
(0.209329 0.00826794 0)
(0.21065 0.00818675 0)
(0.211814 0.00792868 0)
(0.212808 0.00752368 0)
(0.213612 0.00703838 0)
(0.214216 0.00654649 0)
(0.214645 0.00610051 0)
(0.214936 0.00572224 0)
(0.215139 0.00541015 0)
(0.215283 0.00515186 0)
(0.215392 0.00493422 0)
(0.215469 0.00474648 0)
(0.215522 0.00458107 0)
(0.215543 0.00443188 0)
(0.215536 0.00429476 0)
(0.215494 0.00416622 0)
(0.215421 0.00404439 0)
(0.215309 0.00392766 0)
(0.215166 0.00381559 0)
(0.214983 0.00370746 0)
(0.21477 0.00360343 0)
(0.214517 0.00350292 0)
(0.214237 0.0034063 0)
(0.213917 0.00331283 0)
(0.213573 0.00322303 0)
(0.213189 0.00313602 0)
(0.212784 0.00305233 0)
(0.212342 0.00297113 0)
(0.211881 0.00289294 0)
(0.211383 0.00281689 0)
(0.210871 0.00274369 0)
(0.210323 0.00267223 0)
(0.209763 0.00260356 0)
(0.209169 0.0025363 0)
(0.208568 0.00247173 0)
(0.207933 0.00240836 0)
(0.207294 0.00234757 0)
(0.206622 0.00228781 0)
(0.205951 0.00223056 0)
(0.205246 0.00217412 0)
(0.204548 0.00212025 0)
(0.203814 0.00206686 0)
(0.203093 0.0020162 0)
(0.202335 0.00196571 0)
(0.201595 0.00191799 0)
(0.200815 0.0018703 0)
(0.20006 0.00182533 0)
(0.199263 0.00178023 0)
(0.198497 0.00173797 0)
(0.197685 0.00169516 0)
(0.196912 0.00165551 0)
(0.196087 0.0016149 0)
(0.195311 0.00157759 0)
(0.194475 0.00153912 0)
(0.193698 0.00150402 0)
(0.192853 0.00146746 0)
(0.19208 0.00143455 0)
(0.191228 0.00139969 0)
(0.19046 0.00136887 0)
(0.189601 0.00133559 0)
(0.188842 0.0013067 0)
(0.187977 0.00127494 0)
(0.18723 0.00124782 0)
(0.186359 0.00121741 0)
(0.185626 0.00119212 0)
(0.18475 0.00116277 0)
(0.184035 0.00113926 0)
(0.183151 0.00111099 0)
(0.182457 0.00108898 0)
(0.181566 0.00106173 0)
(0.180896 0.00104132 0)
(0.179995 0.00101469 0)
(0.179353 0.000995944 0)
(0.178441 0.000969997 0)
(0.177831 0.000952592 0)
(0.176904 0.000927294 0)
(0.17633 0.00091141 0)
(0.175386 0.000886403 0)
(0.174852 0.000872045 0)
(0.173887 0.000847475 0)
(0.173399 0.000834447 0)
(0.172409 0.000810216 0)
(0.171971 0.000798729 0)
(0.170951 0.000774765 0)
(0.170571 0.000764718 0)
(0.169515 0.000741296 0)
(0.169198 0.000732678 0)
(0.1681 0.000710021 0)
(0.167853 0.000702879 0)
(0.166705 0.000681623 0)
(0.166535 0.000676001 0)
(0.165328 0.000657381 0)
(0.165242 0.000653895 0)
(0.163969 0.000640454 0)
(0.200005 0.00116852 0)
(0.200632 0.00332719 0)
(0.20173 0.00509802 0)
(0.203193 0.006325 0)
(0.204804 0.00703266 0)
(0.206348 0.00737932 0)
(0.207726 0.00750923 0)
(0.208933 0.00748453 0)
(0.209997 0.0073187 0)
(0.210921 0.0070277 0)
(0.211703 0.00665291 0)
(0.21233 0.00624998 0)
(0.212819 0.00586738 0)
(0.213193 0.00553179 0)
(0.213494 0.0052493 0)
(0.213746 0.00501304 0)
(0.213976 0.00481302 0)
(0.214187 0.00463968 0)
(0.214391 0.00448666 0)
(0.214579 0.00434862 0)
(0.214759 0.00422242 0)
(0.214919 0.00410489 0)
(0.215069 0.0039946 0)
(0.215197 0.00388972 0)
(0.215314 0.00378998 0)
(0.215406 0.00369427 0)
(0.215488 0.00360298 0)
(0.215544 0.00351504 0)
(0.215589 0.00343122 0)
(0.215606 0.00335024 0)
(0.215615 0.00327305 0)
(0.215593 0.00319824 0)
(0.215564 0.00312683 0)
(0.215503 0.0030574 0)
(0.215437 0.002991 0)
(0.215337 0.00292614 0)
(0.215233 0.00286417 0)
(0.215093 0.0028032 0)
(0.214952 0.00274509 0)
(0.214773 0.00268754 0)
(0.214596 0.00263278 0)
(0.214379 0.0025783 0)
(0.214167 0.00252648 0)
(0.213912 0.00247474 0)
(0.213665 0.00242562 0)
(0.213373 0.00237626 0)
(0.213095 0.00232971 0)
(0.212767 0.00228244 0)
(0.212458 0.00223827 0)
(0.212096 0.00219296 0)
(0.211759 0.0021509 0)
(0.211364 0.00210753 0)
(0.211001 0.00206739 0)
(0.210574 0.00202572 0)
(0.210187 0.00198759 0)
(0.20973 0.00194733 0)
(0.209322 0.00191116 0)
(0.208837 0.0018723 0)
(0.20841 0.00183783 0)
(0.207897 0.00180039 0)
(0.207454 0.00176755 0)
(0.206915 0.00173132 0)
(0.20646 0.00170019 0)
(0.205895 0.00166496 0)
(0.20543 0.00163553 0)
(0.204841 0.00160125 0)
(0.204368 0.00157337 0)
(0.203755 0.00154008 0)
(0.203279 0.00151363 0)
(0.202643 0.00148118 0)
(0.202165 0.00145635 0)
(0.201506 0.0014244 0)
(0.201031 0.00140119 0)
(0.200349 0.00136991 0)
(0.19988 0.00134796 0)
(0.199174 0.00131735 0)
(0.198715 0.00129693 0)
(0.197984 0.00126647 0)
(0.197539 0.00124769 0)
(0.196782 0.00121761 0)
(0.196354 0.00120003 0)
(0.195571 0.00117033 0)
(0.195164 0.0011543 0)
(0.194352 0.00112455 0)
(0.193972 0.00111002 0)
(0.193129 0.00108055 0)
(0.192779 0.00106728 0)
(0.191903 0.00103797 0)
(0.191588 0.00102626 0)
(0.190676 0.000997075 0)
(0.190401 0.000986776 0)
(0.18945 0.000958095 0)
(0.189221 0.000949222 0)
(0.188225 0.000921306 0)
(0.188047 0.000913932 0)
(0.187003 0.000887507 0)
(0.18688 0.000881843 0)
(0.185784 0.000858056 0)
(0.185721 0.000854933 0)
(0.184567 0.000835606 0)
(0.200004 0.000960923 0)
(0.200479 0.00276664 0)
(0.201323 0.00431779 0)
(0.202481 0.00548279 0)
(0.203818 0.00622924 0)
(0.205163 0.00663437 0)
(0.206408 0.00681174 0)
(0.207511 0.00683685 0)
(0.208483 0.00674085 0)
(0.20933 0.00653916 0)
(0.210062 0.00625803 0)
(0.210668 0.0059364 0)
(0.211161 0.00561486 0)
(0.211553 0.00532098 0)
(0.211878 0.00506656 0)
(0.212153 0.00484985 0)
(0.212409 0.00466447 0)
(0.212646 0.00450223 0)
(0.21288 0.00435795 0)
(0.213102 0.00422678 0)
(0.213323 0.00410666 0)
(0.21353 0.00399471 0)
(0.213736 0.00389017 0)
(0.213927 0.00379104 0)
(0.214118 0.00369745 0)
(0.214291 0.00360784 0)
(0.214467 0.00352303 0)
(0.214623 0.00344138 0)
(0.214782 0.00336424 0)
(0.21492 0.0032897 0)
(0.215063 0.00321933 0)
(0.215182 0.00315111 0)
(0.215308 0.00308665 0)
(0.215408 0.00302391 0)
(0.215516 0.00296464 0)
(0.215595 0.00290653 0)
(0.215685 0.00285181 0)
(0.215743 0.00279761 0)
(0.215813 0.00274684 0)
(0.215849 0.00269605 0)
(0.215899 0.00264864 0)
(0.215911 0.00260087 0)
(0.215941 0.00255636 0)
(0.215929 0.0025112 0)
(0.215938 0.00246931 0)
(0.2159 0.00242632 0)
(0.215889 0.00238689 0)
(0.215825 0.00234568 0)
(0.215792 0.00230847 0)
(0.215701 0.00226894 0)
(0.215647 0.00223355 0)
(0.215529 0.00219564 0)
(0.215455 0.00216189 0)
(0.215309 0.00212525 0)
(0.215215 0.00209329 0)
(0.215042 0.00205757 0)
(0.214928 0.00202726 0)
(0.214727 0.00199251 0)
(0.214595 0.00196355 0)
(0.214365 0.00192976 0)
(0.214217 0.00190209 0)
(0.213958 0.00186902 0)
(0.213794 0.00184276 0)
(0.213507 0.00181016 0)
(0.213329 0.00178531 0)
(0.213013 0.00175314 0)
(0.212823 0.00172949 0)
(0.212479 0.00169791 0)
(0.212278 0.00167531 0)
(0.211904 0.00164407 0)
(0.211696 0.00162289 0)
(0.211292 0.0015916 0)
(0.211078 0.00157175 0)
(0.210645 0.0015408 0)
(0.210427 0.00152181 0)
(0.209964 0.00149111 0)
(0.209745 0.0014735 0)
(0.209252 0.00144245 0)
(0.209035 0.0014262 0)
(0.20851 0.00139533 0)
(0.208297 0.0013799 0)
(0.207741 0.00134907 0)
(0.207536 0.00133503 0)
(0.206946 0.00130383 0)
(0.206752 0.00129095 0)
(0.206128 0.00125993 0)
(0.205948 0.001248 0)
(0.205289 0.0012169 0)
(0.205126 0.00120632 0)
(0.204431 0.00117524 0)
(0.204288 0.00116573 0)
(0.203556 0.00113511 0)
(0.203436 0.00112681 0)
(0.202664 0.00109692 0)
(0.202572 0.00108989 0)
(0.201759 0.00106152 0)
(0.201695 0.00105618 0)
(0.20084 0.00103035 0)
(0.200808 0.00102759 0)
(0.199909 0.00100568 0)
(0.200003 0.000800848 0)
(0.200371 0.00232336 0)
(0.201032 0.00367224 0)
(0.201953 0.00474557 0)
(0.203055 0.00549479 0)
(0.20421 0.00594532 0)
(0.205321 0.00617168 0)
(0.206325 0.00624376 0)
(0.207217 0.00620338 0)
(0.207998 0.00607116 0)
(0.208679 0.00586705 0)
(0.209256 0.00561755 0)
(0.209742 0.00535423 0)
(0.210137 0.00510219 0)
(0.210472 0.00487645 0)
(0.210755 0.00467939 0)
(0.211018 0.00450843 0)
(0.211257 0.00435696 0)
(0.211495 0.00422112 0)
(0.211718 0.00409636 0)
(0.211943 0.00398153 0)
(0.212153 0.00387393 0)
(0.212367 0.00377353 0)
(0.212565 0.0036782 0)
(0.212768 0.00358855 0)
(0.212955 0.00350255 0)
(0.213149 0.00342159 0)
(0.213325 0.00334338 0)
(0.213511 0.00326995 0)
(0.213678 0.00319871 0)
(0.213856 0.00313195 0)
(0.214013 0.00306698 0)
(0.214184 0.00300613 0)
(0.214332 0.00294663 0)
(0.214496 0.00289106 0)
(0.214635 0.00283622 0)
(0.214791 0.00278536 0)
(0.214919 0.0027345 0)
(0.215069 0.00268776 0)
(0.215186 0.00264044 0)
(0.215327 0.0025972 0)
(0.215433 0.00255304 0)
(0.215565 0.00251286 0)
(0.215659 0.00247141 0)
(0.215782 0.00243404 0)
(0.215862 0.00239479 0)
(0.215976 0.00236008 0)
(0.21604 0.00232264 0)
(0.216145 0.00229026 0)
(0.216194 0.00225456 0)
(0.216288 0.00222403 0)
(0.21632 0.00218998 0)
(0.216403 0.00216119 0)
(0.216418 0.00212829 0)
(0.216491 0.00210138 0)
(0.216487 0.00206931 0)
(0.216548 0.00204405 0)
(0.216525 0.00201288 0)
(0.216575 0.0019889 0)
(0.216532 0.0019586 0)
(0.216571 0.00193587 0)
(0.216506 0.0019061 0)
(0.216535 0.00188475 0)
(0.216448 0.00185523 0)
(0.216467 0.00183521 0)
(0.216357 0.00180598 0)
(0.216366 0.00178694 0)
(0.216233 0.00175817 0)
(0.216233 0.00174003 0)
(0.216075 0.00171129 0)
(0.216067 0.00169453 0)
(0.215884 0.00166551 0)
(0.215869 0.00164974 0)
(0.21566 0.00162104 0)
(0.215638 0.00160585 0)
(0.215403 0.00157709 0)
(0.215376 0.00156321 0)
(0.215114 0.00153388 0)
(0.215083 0.00152093 0)
(0.214795 0.00149182 0)
(0.21476 0.00147935 0)
(0.214443 0.00145 0)
(0.214407 0.00143873 0)
(0.214063 0.00140896 0)
(0.214026 0.00139833 0)
(0.213653 0.00136876 0)
(0.213618 0.00135879 0)
(0.213215 0.00132895 0)
(0.213183 0.00131998 0)
(0.212751 0.00129026 0)
(0.212722 0.00128191 0)
(0.212261 0.0012526 0)
(0.212237 0.00124518 0)
(0.211746 0.00121664 0)
(0.211727 0.00121013 0)
(0.211208 0.00118314 0)
(0.211195 0.00117817 0)
(0.210646 0.00115362 0)
(0.210641 0.00115105 0)
(0.210063 0.00113011 0)
(0.200003 0.000674232 0)
(0.200292 0.00196819 0)
(0.200817 0.00313874 0)
(0.201556 0.00411059 0)
(0.202463 0.00483547 0)
(0.203445 0.00531142 0)
(0.204424 0.0055801 0)
(0.205331 0.00569593 0)
(0.20615 0.00570254 0)
(0.206871 0.00562546 0)
(0.207507 0.00548365 0)
(0.208054 0.00529613 0)
(0.208526 0.00508661 0)
(0.20892 0.00487577 0)
(0.209259 0.00467949 0)
(0.209549 0.00450287 0)
(0.209815 0.00434688 0)
(0.210056 0.00420669 0)
(0.210293 0.00407992 0)
(0.210514 0.00396225 0)
(0.210736 0.00385327 0)
(0.210943 0.00375038 0)
(0.211154 0.00365422 0)
(0.211349 0.00356249 0)
(0.211549 0.00347643 0)
(0.211734 0.00339349 0)
(0.211927 0.00331571 0)
(0.212103 0.00324015 0)
(0.21229 0.00316951 0)
(0.212459 0.00310058 0)
(0.21264 0.00303629 0)
(0.212803 0.00297338 0)
(0.212979 0.0029148 0)
(0.213136 0.00285716 0)
(0.21331 0.0028038 0)
(0.213461 0.00275067 0)
(0.213632 0.00270203 0)
(0.213778 0.00265285 0)
(0.213945 0.00260833 0)
(0.214086 0.00256272 0)
(0.214251 0.00252174 0)
(0.214386 0.00247935 0)
(0.214548 0.00244151 0)
(0.214676 0.00240188 0)
(0.214835 0.00236702 0)
(0.214957 0.00232959 0)
(0.215114 0.00229756 0)
(0.215228 0.00226202 0)
(0.215381 0.00223238 0)
(0.215488 0.00219875 0)
(0.215637 0.00217103 0)
(0.215735 0.00213911 0)
(0.21588 0.00211332 0)
(0.215969 0.00208253 0)
(0.21611 0.00205877 0)
(0.216189 0.00202889 0)
(0.216326 0.00200682 0)
(0.216394 0.00197797 0)
(0.216526 0.00195722 0)
(0.216583 0.00192929 0)
(0.21671 0.00190988 0)
(0.216755 0.00188249 0)
(0.216876 0.00186454 0)
(0.216908 0.00183741 0)
(0.217024 0.00182078 0)
(0.217042 0.00179407 0)
(0.217153 0.00177829 0)
(0.217156 0.00175212 0)
(0.217261 0.00173728 0)
(0.217249 0.00171101 0)
(0.217349 0.00169756 0)
(0.217321 0.00167114 0)
(0.217415 0.00165835 0)
(0.217371 0.00163244 0)
(0.217458 0.00162018 0)
(0.217397 0.00159401 0)
(0.21748 0.00158304 0)
(0.2174 0.00155648 0)
(0.217477 0.00154594 0)
(0.217381 0.0015198 0)
(0.217451 0.00150967 0)
(0.217336 0.00148311 0)
(0.217401 0.00147398 0)
(0.217268 0.00144728 0)
(0.217327 0.00143828 0)
(0.217176 0.00141186 0)
(0.217228 0.00140342 0)
(0.217059 0.0013767 0)
(0.217106 0.00136886 0)
(0.216918 0.00134252 0)
(0.216958 0.00133498 0)
(0.216753 0.00130902 0)
(0.216786 0.00130219 0)
(0.216563 0.00127715 0)
(0.21659 0.00127091 0)
(0.21635 0.00124745 0)
(0.216368 0.00124264 0)
(0.216112 0.00122156 0)
(0.216123 0.00121892 0)
(0.215852 0.00120131 0)
(0.200002 0.000572418 0)
(0.200233 0.00167898 0)
(0.200655 0.0026957 0)
(0.201253 0.00356695 0)
(0.202 0.00425047 0)
(0.202831 0.00473215 0)
(0.203684 0.00503141 0)
(0.204497 0.00518545 0)
(0.205245 0.00523296 0)
(0.205911 0.00520114 0)
(0.206504 0.00510983 0)
(0.207022 0.00497439 0)
(0.207477 0.00481294 0)
(0.207865 0.00464138 0)
(0.208206 0.00447475 0)
(0.2085 0.00431937 0)
(0.208769 0.00417905 0)
(0.209012 0.00405079 0)
(0.209249 0.00393371 0)
(0.209469 0.00382393 0)
(0.209688 0.00372156 0)
(0.209894 0.00362407 0)
(0.2101 0.00353263 0)
(0.210293 0.00344486 0)
(0.210489 0.00336255 0)
(0.210671 0.00328279 0)
(0.210859 0.00320817 0)
(0.211033 0.00313526 0)
(0.211215 0.00306727 0)
(0.211382 0.00300056 0)
(0.211558 0.00293847 0)
(0.21172 0.00287743 0)
(0.211893 0.00282078 0)
(0.212049 0.0027647 0)
(0.212219 0.00271312 0)
(0.212372 0.00266132 0)
(0.21254 0.00261432 0)
(0.212688 0.00256635 0)
(0.212854 0.00252335 0)
(0.212999 0.00247892 0)
(0.213164 0.00243937 0)
(0.213306 0.00239813 0)
(0.213469 0.00236172 0)
(0.213608 0.00232317 0)
(0.21377 0.00228982 0)
(0.213905 0.00225341 0)
(0.214066 0.00222293 0)
(0.214197 0.00218848 0)
(0.214358 0.00216032 0)
(0.214486 0.00212792 0)
(0.214644 0.00210169 0)
(0.214768 0.00207097 0)
(0.214926 0.00204683 0)
(0.215045 0.00201722 0)
(0.215202 0.00199517 0)
(0.215317 0.00196661 0)
(0.215471 0.00194617 0)
(0.215582 0.00191881 0)
(0.215734 0.00189972 0)
(0.21584 0.00187332 0)
(0.21599 0.00185567 0)
(0.21609 0.00182986 0)
(0.216239 0.00181371 0)
(0.216332 0.0017883 0)
(0.216478 0.00177339 0)
(0.216566 0.00174865 0)
(0.216708 0.00173448 0)
(0.216789 0.00171036 0)
(0.216928 0.00169729 0)
(0.217002 0.00167303 0)
(0.217138 0.00166128 0)
(0.217205 0.00163726 0)
(0.217336 0.00162583 0)
(0.217396 0.00160251 0)
(0.217522 0.00159178 0)
(0.217573 0.00156805 0)
(0.217696 0.00155851 0)
(0.217738 0.00153488 0)
(0.217854 0.00152533 0)
(0.21789 0.00150227 0)
(0.217999 0.0014933 0)
(0.218026 0.00146974 0)
(0.218129 0.00146151 0)
(0.218148 0.00143832 0)
(0.218243 0.00142987 0)
(0.218254 0.00140694 0)
(0.218341 0.00139917 0)
(0.218343 0.00137607 0)
(0.218421 0.00136849 0)
(0.218417 0.00134608 0)
(0.218484 0.00133874 0)
(0.218472 0.00131665 0)
(0.218528 0.00130989 0)
(0.218509 0.00128897 0)
(0.218552 0.00128264 0)
(0.218528 0.00126326 0)
(0.218558 0.00125836 0)
(0.218527 0.00124134 0)
(0.218543 0.00123847 0)
(0.218509 0.00122482 0)
(0.200002 0.000489298 0)
(0.200188 0.00144029 0)
(0.20053 0.00232514 0)
(0.201019 0.0031016 0)
(0.201636 0.00373489 0)
(0.202337 0.00420688 0)
(0.203074 0.00452378 0)
(0.203796 0.00470831 0)
(0.204474 0.00479103 0)
(0.205089 0.00479739 0)
(0.205642 0.00474757 0)
(0.206131 0.00465545 0)
(0.206567 0.00453576 0)
(0.206947 0.00440041 0)
(0.207285 0.00426269 0)
(0.207581 0.00412895 0)
(0.207852 0.00400487 0)
(0.208098 0.0038891 0)
(0.208334 0.00378219 0)
(0.208554 0.00368089 0)
(0.208771 0.00358569 0)
(0.208976 0.00349423 0)
(0.209179 0.00340798 0)
(0.209371 0.0033246 0)
(0.209564 0.0032463 0)
(0.209745 0.00316998 0)
(0.209928 0.00309864 0)
(0.210101 0.00302857 0)
(0.210278 0.00296326 0)
(0.210444 0.00289895 0)
(0.210615 0.00283906 0)
(0.210776 0.00278002 0)
(0.210943 0.00272526 0)
(0.211099 0.00267082 0)
(0.211263 0.00262092 0)
(0.211416 0.0025705 0)
(0.211577 0.002525 0)
(0.211726 0.00247827 0)
(0.211886 0.00243656 0)
(0.212033 0.00239331 0)
(0.21219 0.00235489 0)
(0.212335 0.00231476 0)
(0.212491 0.00227943 0)
(0.212633 0.00224185 0)
(0.212788 0.00220961 0)
(0.212928 0.00217407 0)
(0.213083 0.00214463 0)
(0.213221 0.00211115 0)
(0.213374 0.00208385 0)
(0.213511 0.00205251 0)
(0.213662 0.00202711 0)
(0.213798 0.00199736 0)
(0.213948 0.00197417 0)
(0.214082 0.00194547 0)
(0.214232 0.0019243 0)
(0.214363 0.00189682 0)
(0.214512 0.00187709 0)
(0.214642 0.00185095 0)
(0.214789 0.00183256 0)
(0.214919 0.00180737 0)
(0.215064 0.00179049 0)
(0.215191 0.0017659 0)
(0.215335 0.0017505 0)
(0.215461 0.00172649 0)
(0.215603 0.00171214 0)
(0.215727 0.00168907 0)
(0.215866 0.00167536 0)
(0.215989 0.0016529 0)
(0.216126 0.00164048 0)
(0.216246 0.00161788 0)
(0.216381 0.00160658 0)
(0.2165 0.00158471 0)
(0.216629 0.00157341 0)
(0.216748 0.00155229 0)
(0.216873 0.001542 0)
(0.21699 0.00152033 0)
(0.217112 0.00151104 0)
(0.217226 0.00149008 0)
(0.217342 0.00148039 0)
(0.217456 0.00145999 0)
(0.217566 0.00145126 0)
(0.217678 0.0014303 0)
(0.217782 0.00142196 0)
(0.217894 0.00140195 0)
(0.217989 0.00139325 0)
(0.2181 0.00137331 0)
(0.218188 0.00136553 0)
(0.218298 0.00134566 0)
(0.218376 0.00133768 0)
(0.218486 0.00131874 0)
(0.218553 0.00131117 0)
(0.218663 0.00129245 0)
(0.21872 0.0012854 0)
(0.21883 0.00126808 0)
(0.218873 0.00126147 0)
(0.218985 0.00124557 0)
(0.219015 0.00124049 0)
(0.219128 0.00122693 0)
(0.219143 0.00122386 0)
(0.219258 0.00121355 0)
(0.200001 0.000420531 0)