/*--------------------------------*- C++ -*----------------------------------*\
| =========                 |                                                 |
| \\      /  F ield         | OpenFOAM: The Open Source CFD Toolbox           |
|  \\    /   O peration     | Version:  2.3.0                                 |
|   \\  /    A nd           | Web:      www.OpenFOAM.org                      |
|    \\/     M anipulation  |                                                 |
\*---------------------------------------------------------------------------*/
FoamFile
{
    version     2.0;
    format      ascii;
    class       surfaceScalarField;
    location    "0.3";
    object      phi_0;
}
// * * * * * * * * * * * * * * * * * * * * * * * * * * * * * * * * * * * * * //

dimensions      [0 3 -1 0 0 0 0];

internalField   nonuniform List<scalar> 
5764
(
1.78591e-08
5.91561e-09
-2.37747e-08
1.25501e-08
5.30907e-09
8.96278e-09
3.58727e-09
6.91733e-09
2.04545e-09
5.85299e-09
1.06435e-09
5.2841e-09
5.68887e-10
4.9214e-09
3.62704e-10
4.63475e-09
2.86642e-10
4.38323e-09
2.51524e-10
4.15928e-09
2.23946e-10
3.96143e-09
1.97856e-10
3.78694e-09
1.7449e-10
3.63215e-09
1.54784e-10
3.49365e-09
1.38506e-10
3.36867e-09
1.24975e-10
3.25512e-09
1.13551e-10
3.15138e-09
1.03745e-10
3.05616e-09
9.52142e-11
2.96845e-09
8.77107e-11
2.8874e-09
8.1054e-11
2.81229e-09
7.51049e-11
2.74254e-09
6.97529e-11
2.67763e-09
6.49084e-11
2.61713e-09
6.04978e-11
2.56067e-09
5.64599e-11
2.50793e-09
5.27436e-11
2.45862e-09
4.93058e-11
2.41251e-09
4.61098e-11
2.36939e-09
4.31245e-11
2.32907e-09
4.03228e-11
2.29139e-09
3.76816e-11
2.25621e-09
3.51804e-11
2.2234e-09
3.28016e-11
2.19287e-09
3.05295e-11
2.16452e-09
2.83502e-11
2.13827e-09
2.62515e-11
2.11405e-09
2.42226e-11
2.0918e-09
2.22534e-11
2.07146e-09
2.03352e-11
2.053e-09
1.84599e-11
2.03638e-09
1.66202e-11
2.02157e-09
1.48089e-11
2.00855e-09
1.30193e-11
1.99731e-09
1.1246e-11
1.98782e-09
9.48824e-12
1.98006e-09
7.75472e-12
1.974e-09
6.06903e-12
1.96952e-09
4.47234e-12
1.9665e-09
3.02051e-12
1.96473e-09
1.77469e-12
1.96394e-09
7.83025e-13
1.96388e-09
6.19925e-14
1.96426e-09
-3.81583e-13
1.96487e-09
-6.05728e-13
1.96554e-09
-6.69583e-13
1.96619e-09
-6.45868e-13
1.96678e-09
-5.97996e-13
1.96735e-09
-5.65978e-13
1.96792e-09
-5.69549e-13
1.96852e-09
-6.05265e-13
1.96918e-09
-6.58478e-13
1.96989e-09
-7.09456e-13
1.97064e-09
-7.44064e-13
1.97139e-09
-7.55626e-13
1.97214e-09
-7.44964e-13
1.97285e-09
-7.1689e-13
1.97353e-09
-6.79319e-13
1.97417e-09
-6.38902e-13
1.97477e-09
-5.96041e-13
1.97533e-09
-5.61826e-13
1.97583e-09
-5.03995e-13
1.97637e-09
-5.33066e-13
1.97674e-09
-3.70983e-13
1.97755e-09
-8.07049e-13
-2.63688e-13
2.74569e-08
5.93781e-09
-2.74791e-08
2.58847e-08
6.88128e-09
2.34201e-08
6.05187e-09
2.09114e-08
4.5541e-09
1.8762e-08
3.21374e-09
1.70478e-08
2.28305e-09
1.5706e-08
1.70458e-09
1.4642e-08
1.35061e-09
1.3774e-08
1.11953e-09
1.30443e-08
9.5359e-10
1.24162e-08
8.25965e-10
1.18663e-08
7.24463e-10
1.13787e-08
6.42333e-10
1.09423e-08
5.74894e-10
1.05486e-08
5.1866e-10
1.01911e-08
4.7106e-10
9.86466e-09
4.30217e-10
9.56513e-09
3.9475e-10
9.28921e-09
3.63633e-10
9.03417e-09
3.36089e-10
8.79776e-09
3.11517e-10
8.57807e-09
2.89441e-10
8.3735e-09
2.69476e-10
8.18269e-09
2.51309e-10
8.00447e-09
2.34683e-10
7.83783e-09
2.1938e-10
7.68192e-09
2.05221e-10
7.53597e-09
1.92051e-10
7.39936e-09
1.7974e-10
7.27151e-09
1.68175e-10
7.15193e-09
1.57259e-10
7.0402e-09
1.46907e-10
6.93596e-09
1.37045e-10
6.83888e-09
1.27608e-10
6.74869e-09
1.18538e-10
6.66516e-09
1.09787e-10
6.58807e-09
1.01309e-10
6.51726e-09
9.30666e-11
6.45257e-09
8.50261e-11
6.39387e-09
7.71599e-11
6.34104e-09
6.94453e-11
6.29399e-09
6.18656e-11
6.25259e-09
5.44111e-11
6.21675e-09
4.70855e-11
6.18633e-09
3.99157e-11
6.16112e-09
3.29648e-11
6.14084e-09
2.63433e-11
6.12511e-09
2.02081e-11
6.11338e-09
1.47436e-11
6.10503e-09
1.01254e-11
6.09934e-09
6.47345e-12
6.0956e-09
3.80717e-12
6.09316e-09
2.05616e-12
6.09152e-09
1.03525e-12
6.09033e-09
5.18052e-13
6.08941e-09
2.70864e-13
6.08871e-09
1.02251e-13
6.08825e-09
-1.02112e-13
6.08807e-09
-3.89911e-13
6.08821e-09
-7.43439e-13
6.08867e-09
-1.11598e-12
6.08941e-09
-1.45202e-12
6.09038e-09
-1.7152e-12
6.09151e-09
-1.89069e-12
6.09275e-09
-1.98449e-12
6.09405e-09
-2.01266e-12
6.09537e-09
-1.99756e-12
6.09669e-09
-1.95627e-12
6.09798e-09
-1.89341e-12
6.09925e-09
-1.82909e-12
6.10046e-09
-1.71035e-12
6.10168e-09
-1.75361e-12
6.10272e-09
-1.411e-12
6.10441e-09
-2.50392e-12
-9.93172e-13
2.89235e-08
5.18397e-09
-2.81697e-08
2.94931e-08
6.31168e-09
2.93265e-08
6.21843e-09
2.85039e-08
5.37676e-09
2.73242e-08
4.39345e-09
2.60349e-08
3.5723e-09
2.47752e-08
2.96433e-09
2.36037e-08
2.5221e-09
2.25353e-08
2.18785e-09
2.15667e-08
1.92221e-09
2.06887e-08
1.70399e-09
1.98912e-08
1.52192e-09
1.91649e-08
1.36871e-09
1.8501e-08
1.23875e-09
1.78921e-08
1.12753e-09
1.73317e-08
1.03145e-09
1.68143e-08
9.47709e-10
1.63349e-08
8.74093e-10
1.58897e-08
8.08869e-10
1.54751e-08
7.50659e-10
1.50883e-08
6.98359e-10
1.47266e-08
6.51075e-10
1.4388e-08
6.08072e-10
1.40706e-08
5.68743e-10
1.37727e-08
5.3258e-10
1.34929e-08
4.99154e-10
1.323e-08
4.68102e-10
1.2983e-08
4.39114e-10
1.27508e-08
4.11922e-10
1.25327e-08
3.86294e-10
1.23279e-08
3.62027e-10
1.21359e-08
3.38945e-10
1.1956e-08
3.16891e-10
1.17879e-08
2.95728e-10
1.16311e-08
2.75335e-10
1.14853e-08
2.55606e-10
1.13502e-08
2.36449e-10
1.12254e-08
2.17782e-10
1.11109e-08
1.9954e-10
1.10064e-08
1.81669e-10
1.09117e-08
1.64131e-10
1.08267e-08
1.46903e-10
1.07511e-08
1.29987e-10
1.06848e-08
1.13416e-10
1.06274e-08
9.72768e-11
1.05787e-08
8.17267e-11
1.0538e-08
6.70086e-11
1.05048e-08
5.34413e-11
1.04781e-08
4.13787e-11
1.04571e-08
3.11394e-11
1.04407e-08
2.29232e-11
1.04277e-08
1.67413e-11
1.04174e-08
1.24133e-11
1.04088e-08
9.57326e-12
1.04016e-08
7.76875e-12
1.03953e-08
6.54715e-12
1.03899e-08
5.54205e-12
1.03852e-08
4.52831e-12
1.03814e-08
3.41742e-12
1.03785e-08
2.23528e-12
1.03763e-08
1.06357e-12
1.03748e-08
-5.16236e-16
1.0374e-08
-8.93531e-13
1.03737e-08
-1.59118e-12
1.03738e-08
-2.10554e-12
1.03743e-08
-2.46623e-12
1.0375e-08
-2.71322e-12
1.03759e-08
-2.87635e-12
1.0377e-08
-2.96786e-12
1.03782e-08
-3.0156e-12
1.03794e-08
-2.95827e-12
1.03808e-08
-3.09802e-12
1.0382e-08
-2.66726e-12
1.03841e-08
-4.59111e-12
-1.90258e-12
2.94816e-08
4.70574e-09
-2.90033e-08
3.01571e-08
5.63613e-09
3.06834e-08
5.6921e-09
3.08737e-08
5.18651e-09
3.07288e-08
4.53833e-09
3.03351e-08
3.96605e-09
2.97841e-08
3.51531e-09
2.91435e-08
3.16272e-09
2.84563e-08
2.87504e-09
2.77496e-08
2.62895e-09
2.70412e-08
2.41238e-09
2.63432e-08
2.21985e-09
2.56637e-08
2.0482e-09
2.50076e-08
1.89485e-09
2.43777e-08
1.75744e-09
2.37753e-08
1.63386e-09
2.32007e-08
1.52231e-09
2.26536e-08
1.42122e-09
2.21332e-08
1.32924e-09
2.16386e-08
1.24525e-09
2.11688e-08
1.16824e-09
2.07225e-08
1.09736e-09
2.02987e-08
1.03188e-09
1.98963e-08
9.7114e-10
1.95143e-08
9.14587e-10
1.91517e-08
8.61719e-10
1.88077e-08
8.12102e-10
1.84815e-08
7.65348e-10
1.81723e-08
7.21115e-10
1.78795e-08
6.79099e-10
1.76025e-08
6.39029e-10
1.73408e-08
6.00659e-10
1.70939e-08
5.63773e-10
1.68614e-08
5.28176e-10
1.66431e-08
4.93693e-10
1.64385e-08
4.6017e-10
1.62475e-08
4.27471e-10
1.60698e-08
3.95482e-10
1.59052e-08
3.64108e-10
1.57536e-08
3.33277e-10
1.56148e-08
3.02943e-10
1.54886e-08
2.73093e-10
1.53748e-08
2.43754e-10
1.52732e-08
2.15014e-10
1.51835e-08
1.87039e-10
1.51051e-08
1.60107e-10
1.50375e-08
1.34613e-10
1.49799e-08
1.11056e-10
1.49313e-08
8.99735e-11
1.48906e-08
7.18412e-11
1.48566e-08
5.69544e-11
1.4828e-08
4.53335e-11
1.48037e-08
3.67045e-11
1.47827e-08
3.05263e-11
1.47644e-08
2.6116e-11
1.47481e-08
2.27824e-11
1.47337e-08
1.99537e-11
1.4721e-08
1.72595e-11
1.47099e-08
1.45369e-11
1.47003e-08
1.17953e-11
1.46922e-08
9.13788e-12
1.46855e-08
6.69211e-12
1.46801e-08
4.54918e-12
1.46758e-08
2.74553e-12
1.46724e-08
1.26519e-12
1.46699e-08
6.77541e-14
1.4668e-08
-9.03151e-13
1.46669e-08
-1.69013e-12
1.46662e-08
-2.31358e-12
1.4666e-08
-2.80862e-12
1.46662e-08
-3.1103e-12
1.46667e-08
-3.59618e-12
1.46673e-08
-3.30667e-12
1.4669e-08
-6.29863e-12
-2.49177e-12
3.0324e-08
4.37076e-09
-2.99891e-08
3.07905e-08
5.16964e-09
3.12312e-08
5.25145e-09
3.15539e-08
4.86384e-09
3.17345e-08
4.35768e-09
3.17841e-08
3.91641e-09
3.17243e-08
3.57514e-09
3.15747e-08
3.31233e-09
3.13502e-08
3.09955e-09
3.10629e-08
2.91622e-09
3.07242e-08
2.75107e-09
3.0345e-08
2.59903e-09
2.99354e-08
2.45786e-09
2.9504e-08
2.32622e-09
2.90583e-08
2.20312e-09
2.86044e-08
2.08774e-09
2.81474e-08
1.9794e-09
2.7691e-08
1.87754e-09
2.72387e-08
1.78163e-09
2.67927e-08
1.69121e-09
2.63551e-08
1.60585e-09
2.59273e-08
1.52515e-09
2.55104e-08
1.44873e-09
2.51053e-08
1.37623e-09
2.47126e-08
1.30729e-09
2.43327e-08
1.24161e-09
2.3966e-08
1.17887e-09
2.36125e-08
1.11879e-09
2.32725e-08
1.0611e-09
2.29461e-08
1.00554e-09
2.26332e-08
9.51883e-10
2.2334e-08
8.99899e-10
2.20484e-08
8.49383e-10
2.17764e-08
8.00145e-10
2.15181e-08
7.5201e-10
2.12735e-08
7.0482e-10
2.10425e-08
6.58435e-10
2.08252e-08
6.12736e-10
2.06217e-08
5.67631e-10
2.04319e-08
5.23055e-10
2.02559e-08
4.78979e-10
2.00936e-08
4.35421e-10
1.99449e-08
3.92458e-10
1.98096e-08
3.50248e-10
1.96876e-08
3.09061e-10
1.95784e-08
2.69303e-10
1.94815e-08
2.31527e-10
1.93962e-08
1.96408e-10
1.93215e-08
1.64661e-10
1.92564e-08
1.36916e-10
1.91998e-08
1.13577e-10
1.91504e-08
9.47051e-11
1.91071e-08
7.99825e-11
1.90689e-08
6.87495e-11
1.90349e-08
6.01445e-11
1.90044e-08
5.32724e-11
1.8977e-08
4.73662e-11
1.89523e-08
4.18972e-11
1.89303e-08
3.6599e-11
1.89106e-08
3.1429e-11
1.88933e-08
2.64788e-11
1.88781e-08
2.18832e-11
1.88649e-08
1.77464e-11
1.88535e-08
1.41107e-11
1.88438e-08
1.09579e-11
1.88357e-08
8.23561e-12
1.88289e-08
5.87914e-12
1.88234e-08
3.84011e-12
1.8819e-08
2.09574e-12
1.88155e-08
6.08827e-13
1.8813e-08
-5.4966e-13
1.88112e-08
-1.81942e-12
1.881e-08
-2.08222e-12
1.88101e-08
-6.40794e-12
-1.95661e-12
3.12828e-08
4.08727e-09
-3.09993e-08
3.1656e-08
4.79637e-09
3.19902e-08
4.91729e-09
3.22346e-08
4.61948e-09
3.23983e-08
4.19398e-09
3.25041e-08
3.81052e-09
3.25687e-08
3.51062e-09
3.25991e-08
3.28192e-09
3.2596e-08
3.10266e-09
3.25573e-08
2.95486e-09
3.24817e-08
2.82667e-09
3.23694e-08
2.71135e-09
3.22221e-08
2.60516e-09
3.20425e-08
2.50579e-09
3.1834e-08
2.41164e-09
3.16001e-08
2.32163e-09
3.13445e-08
2.23503e-09
3.10707e-08
2.15137e-09
3.0782e-08
2.07031e-09
3.04816e-08
1.99164e-09
3.01722e-08
1.91519e-09
2.98565e-08
1.84084e-09
2.95368e-08
1.76847e-09
2.9215e-08
1.69798e-09
2.88931e-08
1.62925e-09
2.85725e-08
1.56219e-09
2.82547e-08
1.49667e-09
2.79409e-08
1.43257e-09
2.76323e-08
1.36978e-09
2.73296e-08
1.30816e-09
2.7034e-08
1.24758e-09
2.67459e-08
1.18792e-09
2.64663e-08
1.12904e-09
2.61956e-08
1.07082e-09
2.59345e-08
1.01314e-09
2.56834e-08
9.55897e-10
2.54428e-08
8.98984e-10
2.52133e-08
8.42326e-10
2.4995e-08
7.85868e-10
2.47885e-08
7.29589e-10
2.45939e-08
6.73509e-10
2.44117e-08
6.17702e-10
2.42418e-08
5.6232e-10
2.40844e-08
5.07612e-10
2.39395e-08
4.53961e-10
2.38069e-08
4.01904e-10
2.36863e-08
3.52149e-10
2.35772e-08
3.05527e-10
2.34789e-08
2.62913e-10
2.33908e-08
2.25079e-10
2.33118e-08
1.92541e-10
2.32411e-08
1.65426e-10
2.31777e-08
1.43427e-10
2.31206e-08
1.2584e-10
2.3069e-08
1.11708e-10
2.30223e-08
1.00006e-10
2.29798e-08
8.98275e-11
2.29412e-08
8.05139e-11
2.29061e-08
7.16975e-11
2.28743e-08
6.32679e-11
2.28455e-08
5.52775e-11
2.28195e-08
4.78386e-11
2.27962e-08
4.1039e-11
2.27754e-08
3.49032e-11
2.2757e-08
2.93942e-11
2.27408e-08
2.44433e-11
2.27267e-08
1.99811e-11
2.27145e-08
1.59637e-11
2.27043e-08
1.23826e-11
2.26956e-08
9.21451e-12
2.26886e-08
6.54102e-12
2.26828e-08
3.89827e-12
2.26783e-08
2.49708e-12
2.26752e-08
-3.36859e-12
7.52443e-13
3.22675e-08
3.84129e-09
-3.20215e-08
3.2596e-08
4.4679e-09
3.289e-08
4.62328e-09
3.3097e-08
4.41242e-09
3.32263e-08
4.06471e-09
3.3306e-08
3.73086e-09
3.33593e-08
3.45725e-09
3.33998e-08
3.24148e-09
3.34321e-08
3.07033e-09
3.34559e-08
2.9311e-09
3.34685e-08
2.81405e-09
3.34672e-08
2.71265e-09
3.34497e-08
2.62269e-09
3.34142e-08
2.54123e-09
3.33598e-08
2.46601e-09
3.32861e-08
2.39534e-09
3.31932e-08
2.32797e-09
3.30816e-08
2.26296e-09
3.29523e-08
2.19965e-09
3.28064e-08
2.13755e-09
3.26452e-08
2.07631e-09
3.24704e-08
2.0157e-09
3.22833e-08
1.95552e-09
3.20856e-08
1.89566e-09
3.18789e-08
1.83601e-09
3.16646e-08
1.7765e-09
3.14442e-08
1.71706e-09
3.12191e-08
1.65763e-09
3.09907e-08
1.59816e-09
3.07603e-08
1.53857e-09
3.05291e-08
1.47882e-09
3.02982e-08
1.41883e-09
3.00686e-08
1.35855e-09
2.98416e-08
1.29791e-09
2.96178e-08
1.23686e-09
2.93984e-08
1.17533e-09
2.91841e-08
1.11329e-09
2.89757e-08
1.05071e-09
2.8774e-08
9.87588e-10
2.85796e-08
9.23965e-10
2.83932e-08
8.5992e-10
2.82153e-08
7.95601e-10
2.80464e-08
7.3124e-10
2.78868e-08
6.67184e-10
2.77369e-08
6.03924e-10
2.75966e-08
5.42123e-10
2.74662e-08
4.82619e-10
2.73453e-08
4.2638e-10
2.72338e-08
3.74409e-10
2.71313e-08
3.27601e-10
2.70373e-08
2.86573e-10
2.69512e-08
2.51538e-10
2.68723e-08
2.22242e-10
2.68002e-08
1.98002e-10
2.6734e-08
1.77846e-10
2.66733e-08
1.60703e-10
2.66176e-08
1.45596e-10
2.65663e-08
1.31792e-10
2.65191e-08
1.18858e-10
2.64758e-08
1.06636e-10
2.64359e-08
9.51443e-11
2.63993e-08
8.44619e-11
2.63657e-08
7.46371e-11
2.63349e-08
6.56432e-11
2.6307e-08
5.7388e-11
2.62816e-08
4.97576e-11
2.6259e-08
4.26622e-11
2.62389e-08
3.60665e-11
2.62212e-08
2.99935e-11
2.6206e-08
2.44619e-11
2.61929e-08
1.95874e-11
2.61819e-08
1.49379e-11
2.61727e-08
1.17165e-11
2.61651e-08
4.24275e-12
6.65691e-12
3.32748e-08
3.628e-09
-3.30615e-08
3.35648e-08
4.17795e-09
3.38341e-08
4.354e-09
3.40303e-08
4.21614e-09
3.41542e-08
3.94087e-09
3.42273e-08
3.65777e-09
3.42707e-08
3.4138e-09
3.42992e-08
3.21296e-09
3.43212e-08
3.04836e-09
3.43402e-08
2.91208e-09
3.43572e-08
2.79709e-09
3.43717e-08
2.69815e-09
3.43827e-08
2.61163e-09
3.43891e-08
2.53488e-09
3.43894e-08
2.46574e-09
3.43822e-08
2.40249e-09
3.43665e-08
2.34372e-09
3.43411e-08
2.2883e-09
3.43055e-08
2.23532e-09
3.42589e-08
2.18407e-09
3.42013e-08
2.13395e-09
3.41325e-08
2.0845e-09
3.40527e-08
2.03535e-09
3.39621e-08
1.98619e-09
3.38614e-08
1.93678e-09
3.37509e-08
1.88693e-09
3.36316e-08
1.83645e-09
3.3504e-08
1.78522e-09
3.3369e-08
1.73312e-09
3.32275e-08
1.68005e-09
3.30804e-08
1.62591e-09
3.29286e-08
1.57062e-09
3.27731e-08
1.51412e-09
3.26147e-08
1.45633e-09
3.24543e-08
1.3972e-09
3.2293e-08
1.33669e-09
3.21315e-08
1.27478e-09
3.19707e-08
1.21146e-09
3.18115e-08
1.14676e-09
3.16547e-08
1.08076e-09
3.15011e-08
1.01358e-09
3.13513e-08
9.45423e-10
3.12059e-08
8.7658e-10
3.10656e-08
8.07474e-10
3.09309e-08
7.38682e-10
3.0802e-08
6.70958e-10
3.06794e-08
6.05236e-10
3.05632e-08
5.42577e-10
3.04536e-08
4.84078e-10
3.03504e-08
4.30719e-10
3.02538e-08
3.83206e-10
3.01635e-08
3.41836e-10
3.00793e-08
3.06437e-10
3.00009e-08
2.76398e-10
2.9928e-08
2.50793e-10
2.98601e-08
2.28567e-10
2.9797e-08
2.08733e-10
2.97382e-08
1.90531e-10
2.96836e-08
1.73507e-10
2.96327e-08
1.57495e-10
2.95853e-08
1.42514e-10
2.95412e-08
1.28641e-10
2.94999e-08
1.15891e-10
2.94614e-08
1.04165e-10
2.94255e-08
9.3275e-11
2.93923e-08
8.30063e-11
2.93617e-08
7.32028e-11
2.9334e-08
6.38143e-11
2.93091e-08
5.48999e-11
2.9287e-08
4.65502e-11
2.92676e-08
3.89475e-11
2.92508e-08
3.17731e-11
2.92364e-08
2.61025e-11
2.92235e-08
1.71149e-11
1.63088e-11
3.43083e-08
3.44163e-09
-3.4122e-08
3.45631e-08
3.92317e-09
3.48081e-08
4.10905e-09
3.49953e-08
4.02887e-09
3.51202e-08
3.81599e-09
3.51979e-08
3.58004e-09
3.52451e-08
3.36667e-09
3.5274e-08
3.18403e-09
3.52928e-08
3.02953e-09
3.53062e-08
2.89866e-09
3.53167e-08
2.78663e-09
3.53255e-08
2.68933e-09
3.53334e-08
2.60379e-09
3.53404e-08
2.5278e-09
3.53466e-08
2.45959e-09
3.53514e-08
2.39766e-09
3.53544e-08
2.34078e-09
3.53547e-08
2.28792e-09
3.53518e-08
2.23822e-09
3.5345e-08
2.19094e-09
3.53335e-08
2.14546e-09
3.53167e-08
2.10125e-09
3.52942e-08
2.05785e-09
3.52656e-08
2.01484e-09
3.52305e-08
1.97188e-09
3.51887e-08
1.92867e-09
3.51402e-08
1.88492e-09
3.50851e-08
1.84041e-09
3.50233e-08
1.79491e-09
3.49551e-08
1.74823e-09
3.48808e-08
1.7002e-09
3.48008e-08
1.65067e-09
3.47154e-08
1.5995e-09
3.46251e-08
1.54657e-09
3.45306e-08
1.49178e-09
3.44322e-08
1.43505e-09
3.43307e-08
1.37631e-09
3.42266e-08
1.31556e-09
3.41205e-08
1.25281e-09
3.40132e-08
1.18811e-09
3.39051e-08
1.1216e-09
3.37971e-08
1.0535e-09
3.36895e-08
9.84118e-10
3.35831e-08
9.1391e-10
3.34783e-08
8.43491e-10
3.33756e-08
7.73658e-10
3.32754e-08
7.05387e-10
3.31782e-08
6.39781e-10
3.30843e-08
5.77976e-10
3.29941e-08
5.20996e-10
3.29077e-08
4.69602e-10
3.28253e-08
4.24162e-10
3.27472e-08
3.84597e-10
3.26732e-08
3.50391e-10
3.26033e-08
3.20708e-10
3.25373e-08
2.94553e-10
3.24751e-08
2.70961e-10
3.24164e-08
2.49173e-10
3.23612e-08
2.28735e-10
3.23092e-08
2.09502e-10
3.22601e-08
1.91545e-10
3.22138e-08
1.74988e-10
3.21698e-08
1.5986e-10
3.2128e-08
1.46008e-10
3.20881e-08
1.33114e-10
3.20503e-08
1.20807e-10
3.20148e-08
1.08786e-10
3.19817e-08
9.69291e-11
3.19512e-08
8.53037e-11
3.19237e-08
7.40867e-11
3.18991e-08
6.35582e-11
3.18773e-08
5.36046e-11
3.18583e-08
4.50725e-11
3.18406e-08
3.47738e-11
2.95042e-11
3.53688e-08
3.27719e-09
-3.52044e-08
3.55929e-08
3.69905e-09
3.58147e-08
3.88728e-09
3.59915e-08
3.85203e-09
3.61156e-08
3.69189e-09
3.61977e-08
3.49802e-09
3.62506e-08
3.31369e-09
3.62847e-08
3.14992e-09
3.6307e-08
3.00726e-09
3.63219e-08
2.88379e-09
3.6332e-08
2.77653e-09
3.63389e-08
2.68237e-09
3.63439e-08
2.59885e-09
3.63476e-08
2.52409e-09
3.63506e-08
2.4566e-09
3.63531e-08
2.39509e-09
3.63554e-08
2.33851e-09
3.63574e-08
2.28597e-09
3.63588e-08
2.23673e-09
3.63596e-08
2.19013e-09
3.63595e-08
2.14564e-09
3.6358e-08
2.10276e-09
3.63548e-08
2.06105e-09
3.63495e-08
2.02013e-09
3.63417e-08
1.97964e-09
3.63311e-08
1.93925e-09
3.63174e-08
1.89866e-09
3.63002e-08
1.85758e-09
3.62794e-08
1.81576e-09
3.62546e-08
1.77296e-09
3.62259e-08
1.72894e-09
3.61931e-08
1.68349e-09
3.61562e-08
1.63642e-09
3.61152e-08
1.58756e-09
3.60702e-08
1.53674e-09
3.60214e-08
1.48384e-09
3.5969e-08
1.42874e-09
3.59131e-08
1.3714e-09
3.58542e-08
1.31177e-09
3.57924e-08
1.24989e-09
3.57281e-08
1.18587e-09
3.56617e-08
1.1199e-09
3.55936e-08
1.05229e-09
3.5524e-08
9.83463e-10
3.54535e-08
9.14042e-10
3.53823e-08
8.44812e-10
3.5311e-08
7.76737e-10
3.52398e-08
7.10908e-10
3.51694e-08
6.48444e-10
3.51e-08
5.90368e-10
3.50321e-08
5.37452e-10
3.49662e-08
4.90111e-10
3.49024e-08
4.48343e-10
3.48411e-08
4.1174e-10
3.47822e-08
3.79574e-10
3.47259e-08
3.50933e-10
3.46719e-08
3.24895e-10
3.46204e-08
3.00701e-10
3.45712e-08
2.77893e-10
3.45244e-08
2.56358e-10
3.44797e-08
2.36244e-10
3.44369e-08
2.17786e-10
3.43957e-08
2.01089e-10
3.43557e-08
1.85993e-10
3.43167e-08
1.7206e-10
3.42788e-08
1.58709e-10
3.42422e-08
1.45417e-10
3.42072e-08
1.31897e-10
3.41744e-08
1.18167e-10
3.4144e-08
1.04474e-10
3.41163e-08
9.12112e-11
3.40914e-08
7.85486e-11
3.40694e-08
6.70602e-11
3.40485e-08
5.56621e-11
4.52873e-11
3.64569e-08
3.13078e-09
-3.63105e-08
3.66547e-08
3.50124e-09
3.68552e-08
3.68676e-09
3.70213e-08
3.68597e-09
3.7143e-08
3.57013e-09
3.72275e-08
3.4136e-09
3.72849e-08
3.25628e-09
3.73237e-08
3.11107e-09
3.73502e-08
2.9808e-09
3.73684e-08
2.86559e-09
3.73809e-08
2.76399e-09
3.73895e-08
2.67385e-09
3.73951e-08
2.59321e-09
3.73987e-08
2.52049e-09
3.74009e-08
2.45442e-09
3.74021e-08
2.39388e-09
3.74027e-08
2.33792e-09
3.74029e-08
2.28575e-09
3.74029e-08
2.23671e-09
3.74028e-08
2.19022e-09
3.74027e-08
2.1458e-09
3.74024e-08
2.10302e-09
3.7402e-08
2.06149e-09
3.74012e-08
2.02086e-09
3.74001e-08
1.98081e-09
3.73983e-08
1.94105e-09
3.73956e-08
1.90129e-09
3.7392e-08
1.86127e-09
3.7387e-08
1.82072e-09
3.73806e-08
1.77941e-09
3.73724e-08
1.73711e-09
3.73623e-08
1.69358e-09
3.73501e-08
1.64861e-09
3.73357e-08
1.60201e-09
3.73188e-08
1.55358e-09
3.72995e-08
1.50318e-09
3.72775e-08
1.45067e-09
3.7253e-08
1.39594e-09
3.72258e-08
1.33895e-09
3.7196e-08
1.27969e-09
3.71637e-08
1.21824e-09
3.71288e-08
1.15476e-09
3.70916e-08
1.08952e-09
3.70521e-08
1.02294e-09
3.70106e-08
9.55581e-10
3.69672e-08
8.882e-10
3.69222e-08
8.21709e-10
3.6876e-08
7.57144e-10
3.68288e-08
6.95574e-10
3.67812e-08
6.37972e-10
3.67336e-08
5.85091e-10
3.66864e-08
5.37356e-10
3.66399e-08
4.94825e-10
3.65944e-08
4.57188e-10
3.65502e-08
4.23829e-10
3.65072e-08
3.93932e-10
3.64654e-08
3.66618e-10
3.6425e-08
3.41123e-10
3.63859e-08
3.16969e-10
3.63482e-08
2.94055e-10
3.63119e-08
2.72619e-10
3.62766e-08
2.53044e-10
3.62421e-08
2.35582e-10
3.6208e-08
2.20128e-10
3.61739e-08
2.06155e-10
3.61398e-08
1.92853e-10
3.61058e-08
1.79407e-10
3.60724e-08
1.65273e-10
3.60402e-08
1.50335e-10
3.60098e-08
1.34862e-10
3.59817e-08
1.19361e-10
3.59559e-08
1.04324e-10
3.59329e-08
9.00846e-11
3.59108e-08
7.77183e-11
6.22958e-11
3.75735e-08
2.99936e-09
-3.74421e-08
3.77488e-08
3.32595e-09
3.79301e-08
3.50551e-09
3.80854e-08
3.53063e-09
3.82039e-08
3.45165e-09
3.82894e-08
3.32803e-09
3.83501e-08
3.19568e-09
3.83927e-08
3.06843e-09
3.84227e-08
2.95077e-09
3.8444e-08
2.84429e-09
3.84592e-08
2.74884e-09
3.84698e-08
2.66318e-09
3.84772e-08
2.58584e-09
3.84821e-08
2.51558e-09
3.84852e-08
2.45135e-09
3.84869e-08
2.39218e-09
3.84876e-08
2.33723e-09
3.84875e-08
2.28579e-09
3.8487e-08
2.23725e-09
3.84861e-08
2.19108e-09
3.84851e-08
2.14685e-09
3.8484e-08
2.10414e-09
3.84828e-08
2.06262e-09
3.84817e-08
2.02195e-09
3.84807e-08
1.98186e-09
3.84797e-08
1.94206e-09
3.84787e-08
1.90231e-09
3.84776e-08
1.86237e-09
3.84763e-08
1.822e-09
3.84747e-08
1.78097e-09
3.84728e-08
1.73908e-09
3.84702e-08
1.69609e-09
3.8467e-08
1.65183e-09
3.84629e-08
1.60608e-09
3.84579e-08
1.55867e-09
3.84516e-08
1.50945e-09
3.8444e-08
1.45826e-09
3.84349e-08
1.40501e-09
3.84242e-08
1.34963e-09
3.84118e-08
1.29211e-09
3.83975e-08
1.23251e-09
3.83813e-08
1.17097e-09
3.83631e-08
1.10774e-09
3.83428e-08
1.0432e-09
3.83205e-08
9.77885e-10
3.82963e-08
9.12488e-10
3.82701e-08
8.47863e-10
3.82423e-08
7.84978e-10
3.8213e-08
7.24825e-10
3.81827e-08
6.68311e-10
3.81516e-08
6.16142e-10
3.81202e-08
5.68734e-10
3.80889e-08
5.2618e-10
3.80578e-08
4.88255e-10
3.80272e-08
4.54453e-10
3.79971e-08
4.2405e-10
3.79675e-08
3.96214e-10
3.79384e-08
3.70167e-10
3.791e-08
3.45387e-10
3.78823e-08
3.21767e-10
3.78553e-08
2.99625e-10
3.78288e-08
2.79514e-10
3.78025e-08
2.61881e-10
3.77759e-08
2.46737e-10
3.77486e-08
2.33513e-10
3.77202e-08
2.21176e-10
3.76911e-08
2.08572e-10
3.76615e-08
1.94826e-10
3.76323e-08
1.79601e-10
3.7604e-08
1.63128e-10
3.75774e-08
1.46006e-10
3.75526e-08
1.2905e-10
3.75303e-08
1.12448e-10
3.75089e-08
9.91256e-11
7.92476e-11
3.87197e-08
2.88058e-09
-3.86009e-08
3.88757e-08
3.16991e-09
3.90396e-08
3.34165e-09
3.91844e-08
3.3858e-09
3.9299e-08
3.33711e-09
3.93847e-08
3.24226e-09
3.94476e-08
3.13278e-09
3.94933e-08
3.02273e-09
3.95264e-08
2.91768e-09
3.95504e-08
2.82026e-09
3.95679e-08
2.73135e-09
3.95806e-08
2.6505e-09
3.95897e-08
2.57677e-09
3.9596e-08
2.50925e-09
3.96003e-08
2.44709e-09
3.9603e-08
2.3895e-09
3.96044e-08
2.33577e-09
3.96049e-08
2.28526e-09
3.96048e-08
2.23742e-09
3.96041e-08
2.19178e-09
3.9603e-08
2.14791e-09
3.96017e-08
2.10545e-09
3.96003e-08
2.06407e-09
3.95987e-08
2.02346e-09
3.95972e-08
1.98336e-09
3.95958e-08
1.94351e-09
3.95944e-08
1.90368e-09
3.95931e-08
1.86365e-09
3.9592e-08
1.82319e-09
3.95908e-08
1.7821e-09
3.95897e-08
1.74018e-09
3.95886e-08
1.69723e-09
3.95873e-08
1.65308e-09
3.95859e-08
1.60753e-09
3.95841e-08
1.56043e-09
3.95819e-08
1.51163e-09
3.95792e-08
1.461e-09
3.95758e-08
1.40844e-09
3.95715e-08
1.3539e-09
3.95662e-08
1.29737e-09
3.95598e-08
1.23891e-09
3.95522e-08
1.17864e-09
3.95431e-08
1.11683e-09
3.95325e-08
1.05381e-09
3.95202e-08
9.90095e-10
3.95064e-08
9.26333e-10
3.9491e-08
8.63317e-10
3.9474e-08
8.01944e-10
3.94557e-08
7.4313e-10
3.94363e-08
6.87712e-10
3.94161e-08
6.36339e-10
3.93954e-08
5.89406e-10
3.93746e-08
5.47029e-10
3.93538e-08
5.09056e-10
3.93331e-08
4.75081e-10
3.93127e-08
4.44474e-10
3.92925e-08
4.16444e-10
3.92725e-08
3.90194e-10
3.92527e-08
3.65146e-10
3.92333e-08
3.41168e-10
3.92143e-08
3.18647e-10
3.91955e-08
2.9831e-10
3.91765e-08
2.80829e-10
3.91569e-08
2.66378e-10
3.9136e-08
2.54385e-10
3.91136e-08
2.43611e-10
3.90896e-08
2.3255e-10
3.90645e-08
2.19942e-10
3.90389e-08
2.05166e-10
3.90137e-08
1.88358e-10
3.89895e-08
1.70178e-10
3.89668e-08
1.51733e-10
3.89461e-08
1.3319e-10
3.89264e-08
1.18824e-10
9.53069e-11
3.98965e-08
2.77263e-09
-3.97885e-08
4.0036e-08
3.03035e-09
4.01843e-08
3.19336e-09
4.0319e-08
3.25111e-09
4.04291e-08
3.22704e-09
4.05142e-08
3.15711e-09
4.05786e-08
3.06839e-09
4.06268e-08
2.9746e-09
4.06625e-08
2.88194e-09
4.0689e-08
2.79376e-09
4.07087e-08
2.71168e-09
4.07232e-08
2.63595e-09
4.07339e-08
2.56611e-09
4.07416e-08
2.50156e-09
4.0747e-08
2.44168e-09
4.07506e-08
2.38585e-09
4.07529e-08
2.33349e-09
4.07541e-08
2.28404e-09
4.07545e-08
2.23702e-09
4.07543e-08
2.19201e-09
4.07536e-08
2.14861e-09
4.07525e-08
2.1065e-09
4.07513e-08
2.06536e-09
4.07498e-08
2.02491e-09
4.07483e-08
1.98489e-09
4.07467e-08
1.94507e-09
4.07452e-08
1.90523e-09
4.07437e-08
1.86515e-09
4.07422e-08
1.82462e-09
4.07409e-08
1.78346e-09
4.07396e-08
1.74147e-09
4.07383e-08
1.69848e-09
4.07371e-08
1.6543e-09
4.07359e-08
1.60879e-09
4.07345e-08
1.56178e-09
4.0733e-08
1.51314e-09
4.07313e-08
1.46276e-09
4.07291e-08
1.41056e-09
4.07266e-08
1.35648e-09
4.07234e-08
1.30055e-09
4.07195e-08
1.24281e-09
4.07147e-08
1.18341e-09
4.0709e-08
1.12258e-09
4.07021e-08
1.06067e-09
4.0694e-08
9.98165e-10
4.06847e-08
9.35664e-10
4.06741e-08
8.73916e-10
4.06623e-08
8.13753e-10
4.06494e-08
7.56022e-10
4.06356e-08
7.01493e-10
4.06212e-08
6.50762e-10
4.06064e-08
6.04198e-10
4.05915e-08
5.61938e-10
4.05767e-08
5.23894e-10
4.0562e-08
4.89753e-10
4.05475e-08
4.58973e-10
4.05331e-08
4.30806e-10
4.05189e-08
4.04429e-10
4.05048e-08
3.79206e-10
4.0491e-08
3.54972e-10
4.04775e-08
3.32173e-10
4.04641e-08
3.11711e-10
4.04504e-08
2.94494e-10
4.04359e-08
2.80885e-10
4.042e-08
2.70336e-10
4.04022e-08
2.61425e-10
4.03824e-08
2.5229e-10
4.03611e-08
2.41267e-10
4.03389e-08
2.27411e-10
4.03165e-08
2.10719e-10
4.02948e-08
1.91887e-10
4.02742e-08
1.72271e-10
4.02553e-08
1.52126e-10
4.02375e-08
1.36589e-10
1.10183e-10
4.1105e-08
2.67407e-09
-4.10064e-08
4.12304e-08
2.90495e-09
4.13648e-08
3.05898e-09
4.14898e-08
3.12612e-09
4.1595e-08
3.1218e-09
4.16789e-08
3.07325e-09
4.1744e-08
3.00321e-09
4.1794e-08
2.92462e-09
4.1832e-08
2.84397e-09
4.18607e-08
2.76505e-09
4.18824e-08
2.68999e-09
4.18987e-08
2.61962e-09
4.19109e-08
2.55392e-09
4.19199e-08
2.49256e-09
4.19264e-08
2.43516e-09
4.1931e-08
2.38126e-09
4.19341e-08
2.33041e-09
4.1936e-08
2.28214e-09
4.1937e-08
2.23605e-09
4.19372e-08
2.19175e-09
4.19369e-08
2.1489e-09
4.19362e-08
2.1072e-09
4.19352e-08
2.06636e-09
4.1934e-08
2.02613e-09
4.19326e-08
1.98625e-09
4.19312e-08
1.94652e-09
4.19297e-08
1.90671e-09
4.19282e-08
1.86663e-09
4.19268e-08
1.82609e-09
4.19253e-08
1.7849e-09
4.19239e-08
1.74288e-09
4.19225e-08
1.69986e-09
4.19212e-08
1.65568e-09
4.19198e-08
1.61019e-09
4.19183e-08
1.56324e-09
4.19167e-08
1.51473e-09
4.19149e-08
1.46454e-09
4.19129e-08
1.4126e-09
4.19105e-08
1.35889e-09
4.19076e-08
1.30341e-09
4.19042e-08
1.24624e-09
4.19001e-08
1.18753e-09
4.18951e-08
1.1275e-09
4.18893e-08
1.06649e-09
4.18825e-08
1.00496e-09
4.18747e-08
9.4349e-10
4.18658e-08
8.82778e-10
4.1856e-08
8.236e-10
4.18453e-08
7.66743e-10
4.18339e-08
7.12914e-10
4.1822e-08
6.62661e-10
4.18098e-08
6.16333e-10
4.17977e-08
5.74084e-10
4.17857e-08
5.35883e-10
4.17739e-08
5.01509e-10
4.17624e-08
4.705e-10
4.17511e-08
4.42146e-10
4.17399e-08
4.15603e-10
4.17289e-08
3.90175e-10
4.17182e-08
3.65665e-10
4.17078e-08
3.42578e-10
4.16975e-08
3.21989e-10
4.1687e-08
3.05043e-10
4.16756e-08
2.92297e-10
4.16627e-08
2.83245e-10
4.16478e-08
2.76293e-10
4.16309e-08
2.69235e-10
4.16121e-08
2.59996e-10
4.15922e-08
2.47296e-10
4.1572e-08
2.30964e-10
4.15522e-08
2.11717e-10
4.15333e-08
1.91118e-10
4.15159e-08
1.69592e-10
4.14997e-08
1.52769e-10
1.23999e-10
4.23464e-08
2.58375e-09
-4.22561e-08
4.24596e-08
2.79178e-09
4.25816e-08
2.93697e-09
4.26974e-08
3.01031e-09
4.27976e-08
3.02163e-09
4.28796e-08
2.99125e-09
4.29449e-08
2.93789e-09
4.29962e-08
2.87336e-09
4.30359e-08
2.80421e-09
4.30666e-08
2.73441e-09
4.30901e-08
2.66647e-09
4.31081e-08
2.60163e-09
4.31218e-08
2.54024e-09
4.3132e-08
2.48228e-09
4.31397e-08
2.42754e-09
4.31452e-08
2.37574e-09
4.31491e-08
2.32654e-09
4.31516e-08
2.27957e-09
4.31532e-08
2.2345e-09
4.31539e-08
2.191e-09
4.3154e-08
2.14878e-09
4.31537e-08
2.10756e-09
4.3153e-08
2.06708e-09
4.3152e-08
2.0271e-09
4.31508e-08
1.98741e-09
4.31496e-08
1.9478e-09
4.31482e-08
1.90807e-09
4.31468e-08
1.86802e-09
4.31454e-08
1.82749e-09
4.3144e-08
1.7863e-09
4.31426e-08
1.74427e-09
4.31412e-08
1.70126e-09
4.31398e-08
1.6571e-09
4.31383e-08
1.61166e-09
4.31368e-08
1.5648e-09
4.31351e-08
1.51642e-09
4.31332e-08
1.46643e-09
4.3131e-08
1.41476e-09
4.31285e-08
1.36139e-09
4.31256e-08
1.30635e-09
4.31221e-08
1.24971e-09
4.3118e-08
1.19162e-09
4.31132e-08
1.13232e-09
4.31075e-08
1.07213e-09
4.3101e-08
1.01149e-09
4.30936e-08
9.5094e-10
4.30852e-08
8.91147e-10
4.3076e-08
8.32833e-10
4.3066e-08
7.76731e-10
4.30554e-08
7.23493e-10
4.30444e-08
6.73623e-10
4.30333e-08
6.27451e-10
4.30223e-08
5.85147e-10
4.30114e-08
5.46739e-10
4.30008e-08
5.12085e-10
4.29905e-08
4.808e-10
4.29805e-08
4.5221e-10
4.29706e-08
4.25448e-10
4.2961e-08
3.99765e-10
4.29518e-08
3.74935e-10
4.29428e-08
3.51525e-10
4.2934e-08
3.30782e-10
4.2925e-08
3.14087e-10
4.29151e-08
3.02189e-10
4.29037e-08
2.94623e-10
4.28904e-08
2.89632e-10
4.28749e-08
2.84673e-10
4.28576e-08
2.77272e-10
4.28391e-08
2.65808e-10
4.28202e-08
2.49936e-10
4.28015e-08
2.30386e-10
4.27837e-08
2.08894e-10
4.27672e-08
1.861e-10
4.27521e-08
1.67924e-10
1.37062e-10
4.36219e-08
2.50073e-09
-4.35389e-08
4.37245e-08
2.68922e-09
4.38355e-08
2.82596e-09
4.39427e-08
2.9031e-09
4.40376e-08
2.92667e-09
4.41173e-08
2.91158e-09
4.41822e-08
2.87295e-09
4.42343e-08
2.82134e-09
4.42754e-08
2.76305e-09
4.43077e-08
2.70214e-09
4.43329e-08
2.64131e-09
4.43524e-08
2.5821e-09
4.43674e-08
2.52518e-09
4.4379e-08
2.47077e-09
4.43876e-08
2.41885e-09
4.43941e-08
2.36929e-09
4.43988e-08
2.32187e-09
4.4402e-08
2.27633e-09
4.44041e-08
2.23238e-09
4.44054e-08
2.18977e-09
4.44059e-08
2.14825e-09