/*--------------------------------*- C++ -*----------------------------------*\
| =========                 |                                                 |
| \\      /  F ield         | OpenFOAM: The Open Source CFD Toolbox           |
|  \\    /   O peration     | Version:  2.3.0                                 |
|   \\  /    A nd           | Web:      www.OpenFOAM.org                      |
|    \\/     M anipulation  |                                                 |
\*---------------------------------------------------------------------------*/
FoamFile
{
    version     2.0;
    format      ascii;
    class       volVectorField;
    location    "0.3";
    object      U_0;
}
// * * * * * * * * * * * * * * * * * * * * * * * * * * * * * * * * * * * * * //

dimensions      [0 1 -1 0 0 0 0];

internalField   nonuniform List<vector> 
2945
(
(0.149728 0.00850127 0)
(0.105611 0.00731871 0)
(0.0743713 0.0040481 0)
(0.0556583 0.00135818 0)
(0.0453587 0.000142506 0)
(0.0398421 -0.000131959 0)
(0.0366538 -7.50636e-05 0)
(0.0344011 2.03166e-05 0)
(0.0325 7.18645e-05 0)
(0.0308001 8.45171e-05 0)
(0.0292866 7.97672e-05 0)
(0.0279501 7.10883e-05 0)
(0.026768 6.31831e-05 0)
(0.0257143 5.67164e-05 0)
(0.0247669 5.13601e-05 0)
(0.0239087 4.67827e-05 0)
(0.0231264 4.27792e-05 0)
(0.0224099 3.9229e-05 0)
(0.0217509 3.60563e-05 0)
(0.0211427 3.32071e-05 0)
(0.0205798 3.06381e-05 0)
(0.0200576 2.83123e-05 0)
(0.019572 2.61986e-05 0)
(0.0191198 2.42702e-05 0)
(0.0186979 2.25042e-05 0)
(0.018304 2.08811e-05 0)
(0.0179359 1.93841e-05 0)
(0.0175916 1.79988e-05 0)
(0.0172696 1.67125e-05 0)
(0.0169685 1.55142e-05 0)
(0.016687 1.43945e-05 0)
(0.016424 1.3345e-05 0)
(0.0161787 1.23582e-05 0)
(0.0159501 1.14276e-05 0)
(0.0157376 1.05471e-05 0)
(0.0155405 9.71149e-06 0)
(0.0153583 8.91575e-06 0)
(0.0151905 8.15511e-06 0)
(0.0150367 7.42499e-06 0)
(0.0148967 6.72073e-06 0)
(0.01477 6.03734e-06 0)
(0.0146566 5.36903e-06 0)
(0.0145561 4.7088e-06 0)
(0.0144686 4.04878e-06 0)
(0.0143938 3.38203e-06 0)
(0.0143318 2.706e-06 0)
(0.0142821 2.02658e-06 0)
(0.0142444 1.3607e-06 0)
(0.0142177 7.35722e-07 0)
(0.0142008 1.91948e-07 0)
(0.014192 -2.07798e-07 0)
(0.0141894 -4.41464e-07 0)
(0.0141908 -6.47717e-07 0)
(0.0141946 -7.10117e-07 0)
(0.0141993 -6.88084e-07 0)
(0.0142041 -6.21787e-07 0)
(0.0142085 -5.42756e-07 0)
(0.0142127 -4.73666e-07 0)
(0.0142168 -4.29207e-07 0)
(0.0142211 -4.07795e-07 0)
(0.0142256 -4.01148e-07 0)
(0.0142306 -3.96923e-07 0)
(0.0142359 -3.89297e-07 0)
(0.0142414 -3.73345e-07 0)
(0.0142468 -3.4933e-07 0)
(0.0142521 -3.19701e-07 0)
(0.0142572 -2.88463e-07 0)
(0.0142619 -2.58958e-07 0)
(0.0142664 -2.30876e-07 0)
(0.0142706 -2.11165e-07 0)
(0.0142744 -1.78463e-07 0)
(0.0142783 -2.00641e-07 0)
(0.0142813 -1.06572e-07 0)
(0.0142855 -3.4124e-07 0)
(0.0142905 -5.5402e-08 0)
(0.195335 0.0141336 0)
(0.1889 0.0150623 0)
(0.173467 0.012086 0)
(0.155394 0.00804373 0)
(0.138721 0.00479502 0)
(0.125034 0.00278908 0)
(0.114369 0.00175629 0)
(0.106071 0.0012777 0)
(0.0994254 0.00104206 0)
(0.0939084 0.000893303 0)
(0.089198 0.000776729 0)
(0.085098 0.000679333 0)
(0.0814804 0.000598216 0)
(0.0782551 0.000530993 0)
(0.0753552 0.000474931 0)
(0.0727293 0.000427578 0)
(0.0703371 0.000387031 0)
(0.0681468 0.000351889 0)
(0.0661327 0.000321125 0)
(0.0642738 0.000293973 0)
(0.0625528 0.000269842 0)
(0.0609553 0.000248262 0)
(0.0594691 0.000228849 0)
(0.0580838 0.000211292 0)
(0.0567906 0.000195331 0)
(0.055582 0.000180749 0)
(0.0544515 0.000167365 0)
(0.0533934 0.000155026 0)
(0.0524028 0.0001436 0)
(0.0514756 0.000132977 0)
(0.0506081 0.000123061 0)
(0.0497971 0.000113768 0)
(0.0490398 0.000105026 0)
(0.0483338 9.67731e-05 0)
(0.047677 8.89534e-05 0)
(0.0470678 8.15193e-05 0)
(0.0465044 7.44286e-05 0)
(0.0459857 6.7644e-05 0)
(0.0455105 6.11329e-05 0)
(0.0450777 5.48668e-05 0)
(0.0446865 4.88207e-05 0)
(0.0443363 4.29723e-05 0)
(0.0440261 3.73034e-05 0)
(0.0437554 3.18028e-05 0)
(0.0435233 2.64755e-05 0)
(0.0433287 2.13537e-05 0)
(0.0431698 1.65074e-05 0)
(0.0430444 1.20449e-05 0)
(0.0429493 8.0982e-06 0)
(0.0428801 4.80189e-06 0)
(0.042832 2.27925e-06 0)
(0.0428 5.57638e-07 0)
(0.0427792 -5.70423e-07 0)
(0.0427654 -1.12028e-06 0)
(0.0427558 -1.28837e-06 0)
(0.0427486 -1.2595e-06 0)
(0.0427429 -1.17941e-06 0)
(0.0427388 -1.15974e-06 0)
(0.0427365 -1.20998e-06 0)
(0.0427364 -1.32108e-06 0)
(0.0427385 -1.45923e-06 0)
(0.0427429 -1.58145e-06 0)
(0.042749 -1.65618e-06 0)
(0.0427565 -1.67788e-06 0)
(0.0427649 -1.64991e-06 0)
(0.0427739 -1.58292e-06 0)
(0.0427831 -1.49667e-06 0)
(0.0427924 -1.40385e-06 0)
(0.0428016 -1.30604e-06 0)
(0.0428107 -1.2216e-06 0)
(0.0428193 -1.09896e-06 0)
(0.0428281 -1.12735e-06 0)
(0.0428355 -8.33764e-07 0)
(0.0428448 -1.6487e-06 0)
(0.0428564 -5.17299e-07 0)
(0.193882 0.0123013 0)
(0.199741 0.0145984 0)
(0.20177 0.0138457 0)
(0.198239 0.0114125 0)
(0.190897 0.00879233 0)
(0.182036 0.00669137 0)
(0.17312 0.00520069 0)
(0.164766 0.00417316 0)
(0.157131 0.00344406 0)
(0.150204 0.00290184 0)
(0.143928 0.00248353 0)
(0.138233 0.00215349 0)
(0.133054 0.00188876 0)
(0.128328 0.00167296 0)
(0.124001 0.00149413 0)
(0.120025 0.00134365 0)
(0.116359 0.0012153 0)
(0.112968 0.00110452 0)
(0.109822 0.00100791 0)
(0.106896 0.000922908 0)
(0.104168 0.000847534 0)
(0.10162 0.000780226 0)
(0.0992364 0.000719738 0)
(0.0970026 0.00066506 0)
(0.0949073 0.000615361 0)
(0.09294 0.000569955 0)
(0.0910918 0.000528268 0)
(0.0893549 0.000489816 0)
(0.0877224 0.00045419 0)
(0.0861884 0.000421037 0)
(0.0847477 0.000390059 0)
(0.0833958 0.000360993 0)
(0.0821287 0.000333615 0)
(0.0809431 0.00030773 0)
(0.079836 0.000283166 0)
(0.0788048 0.000259777 0)
(0.0778473 0.000237433 0)
(0.0769618 0.000216024 0)
(0.0761466 0.000195457 0)
(0.0754002 0.000175654 0)
(0.0747214 0.000156555 0)
(0.074109 0.000138117 0)
(0.0735619 0.000120315 0)
(0.0730786 0.000103161 0)
(0.0726575 8.67155e-05 0)
(0.0722966 7.11125e-05 0)
(0.0719929 5.65715e-05 0)
(0.0717425 4.3386e-05 0)
(0.0715401 3.18791e-05 0)
(0.0713795 2.23275e-05 0)
(0.0712536 1.48758e-05 0)
(0.071155 9.48258e-06 0)
(0.071077 5.92654e-06 0)
(0.0710135 3.79789e-06 0)
(0.0709603 2.62492e-06 0)
(0.0709145 1.9601e-06 0)
(0.0708746 1.45361e-06 0)
(0.0708403 8.78678e-07 0)
(0.0708116 1.9459e-07 0)
(0.0707885 -5.64063e-07 0)
(0.070771 -1.31171e-06 0)
(0.0707588 -1.98962e-06 0)
(0.0707513 -2.523e-06 0)
(0.0707476 -2.87778e-06 0)
(0.0707472 -3.08223e-06 0)
(0.0707493 -3.16542e-06 0)
(0.0707534 -3.16446e-06 0)
(0.0707591 -3.11419e-06 0)
(0.0707659 -3.02297e-06 0)
(0.0707738 -2.91773e-06 0)
(0.070782 -2.73401e-06 0)
(0.0707912 -2.76632e-06 0)
(0.0707994 -2.28183e-06 0)
(0.0708105 -3.89022e-06 0)
(0.0708249 -1.48901e-06 0)
(0.192855 0.0105081 0)
(0.197076 0.0125644 0)
(0.201901 0.012583 0)
(0.204682 0.0112892 0)
(0.204731 0.00965697 0)
(0.202685 0.00820401 0)
(0.19936 0.00704661 0)
(0.19531 0.0061371 0)
(0.190857 0.00540193 0)
(0.186205 0.00478762 0)
(0.181494 0.00426396 0)
(0.176819 0.0038143 0)
(0.172246 0.00342721 0)
(0.167816 0.00309305 0)
(0.163553 0.00280333 0)
(0.159469 0.00255081 0)
(0.155571 0.00232943 0)
(0.151856 0.0021342 0)
(0.148321 0.001961 0)
(0.144961 0.00180646 0)
(0.141768 0.00166782 0)
(0.138735 0.00154279 0)
(0.135855 0.00142946 0)
(0.13312 0.00132624 0)
(0.130523 0.0012318 0)
(0.128058 0.00114499 0)
(0.125719 0.00106486 0)
(0.1235 0.000990579 0)
(0.121397 0.00092144 0)
(0.119403 0.000856829 0)
(0.117517 0.000796212 0)
(0.115733 0.000739126 0)
(0.114049 0.000685164 0)
(0.112462 0.000633973 0)
(0.110969 0.000585241 0)
(0.109569 0.000538699 0)
(0.108259 0.000494113 0)
(0.107038 0.000451283 0)
(0.105905 0.000410043 0)
(0.104858 0.000370261 0)
(0.103896 0.000331839 0)
(0.103019 0.000294719 0)
(0.102224 0.000258892 0)
(0.101512 0.000224413 0)
(0.100878 0.000191433 0)
(0.100323 0.000160223 0)
(0.0998403 0.000131193 0)
(0.0994272 0.000104857 0)
(0.0990773 8.17615e-05 0)
(0.0987836 6.2358e-05 0)
(0.0985382 4.68712e-05 0)
(0.0983327 3.52026e-05 0)
(0.0981592 2.6928e-05 0)
(0.0980106 2.13367e-05 0)
(0.0978814 1.76037e-05 0)
(0.0977674 1.49369e-05 0)
(0.0976662 1.27145e-05 0)
(0.0975765 1.05617e-05 0)
(0.0974976 8.33432e-06 0)
(0.0974293 6.07094e-06 0)
(0.0973711 3.90433e-06 0)
(0.0973224 1.94546e-06 0)
(0.0972824 2.93926e-07 0)
(0.0972503 -9.96808e-07 0)
(0.097225 -1.96022e-06 0)
(0.0972056 -2.68629e-06 0)
(0.0971914 -3.21575e-06 0)
(0.0971817 -3.58068e-06 0)
(0.0971757 -3.81517e-06 0)
(0.0971731 -3.96021e-06 0)
(0.0971729 -3.94427e-06 0)
(0.0971755 -4.15575e-06 0)
(0.0971785 -3.63639e-06 0)
(0.0971864 -6.2433e-06 0)
(0.0971974 -2.49652e-06 0)
(0.193581 0.00974796 0)
(0.196241 0.0114719 0)
(0.199617 0.0115103 0)
(0.202404 0.0105047 0)
(0.204056 0.00927094 0)
(0.204693 0.00820866 0)
(0.204574 0.00737991 0)
(0.203859 0.0067274 0)
(0.202634 0.00618562 0)
(0.200968 0.00571073 0)
(0.198934 0.00528086 0)
(0.196606 0.00488738 0)
(0.194051 0.00452677 0)
(0.191331 0.00419657 0)
(0.188497 0.00389433 0)
(0.185593 0.0036176 0)
(0.182654 0.00336407 0)
(0.179708 0.00313155 0)
(0.176779 0.002918 0)
(0.173884 0.00272157 0)
(0.171038 0.00254054 0)
(0.16825 0.00237337 0)
(0.165531 0.00221864 0)
(0.162884 0.00207509 0)
(0.160316 0.00194155 0)
(0.157829 0.00181699 0)
(0.155425 0.00170048 0)
(0.153107 0.00159119 0)
(0.150875 0.00148836 0)
(0.148731 0.00139133 0)
(0.146673 0.00129948 0)
(0.144703 0.00121227 0)
(0.142821 0.00112922 0)
(0.141027 0.00104988 0)
(0.13932 0.000973886 0)
(0.137701 0.000900882 0)
(0.136171 0.000830572 0)
(0.134728 0.000762703 0)
(0.133374 0.000697067 0)
(0.132108 0.000633503 0)
(0.130931 0.000571904 0)
(0.129843 0.000512224 0)
(0.128842 0.000454496 0)
(0.127929 0.00039885 0)
(0.127101 0.000345553 0)
(0.126358 0.000295038 0)
(0.125696 0.000247911 0)
(0.125111 0.000204913 0)
(0.124598 0.000166812 0)
(0.12415 0.000134242 0)
(0.12376 0.000107529 0)
(0.123421 8.6558e-05 0)
(0.123125 7.07592e-05 0)
(0.122864 5.91736e-05 0)
(0.122632 5.06504e-05 0)
(0.122426 4.40575e-05 0)
(0.12224 3.84723e-05 0)
(0.122073 3.32946e-05 0)
(0.121923 2.82501e-05 0)
(0.121789 2.33272e-05 0)
(0.12167 1.86562e-05 0)
(0.121566 1.44062e-05 0)
(0.121475 1.0696e-05 0)
(0.121396 7.56054e-06 0)
(0.121328 4.97246e-06 0)
(0.121271 2.82741e-06 0)
(0.121223 1.05851e-06 0)
(0.121184 -3.8013e-07 0)
(0.121152 -1.52759e-06 0)
(0.121127 -2.44418e-06 0)
(0.121108 -3.0991e-06 0)
(0.121095 -3.90146e-06 0)
(0.121084 -3.71133e-06 0)
(0.121082 -7.60297e-06 0)
(0.121081 -2.83998e-06 0)
(0.194366 0.00915002 0)
(0.19649 0.0106681 0)
(0.199007 0.0107704 0)
(0.201031 0.00994104 0)
(0.202317 0.00887953 0)
(0.203075 0.00795788 0)
(0.203547 0.00724748 0)
(0.203827 0.00670443 0)
(0.203915 0.00627106 0)
(0.203788 0.00590408 0)
(0.20343 0.0055775 0)
(0.20284 0.00527797 0)
(0.202024 0.00499886 0)
(0.200997 0.00473645 0)
(0.199777 0.00448833 0)
(0.198388 0.00425294 0)
(0.196851 0.00402923 0)
(0.19519 0.00381648 0)
(0.193426 0.0036141 0)
(0.191579 0.0034216 0)
(0.189668 0.00323851 0)
(0.187709 0.00306436 0)
(0.185719 0.00289868 0)
(0.18371 0.002741 0)
(0.181694 0.00259082 0)
(0.179683 0.00244766 0)
(0.177685 0.00231105 0)
(0.175708 0.0021805 0)
(0.17376 0.00205557 0)
(0.171847 0.00193582 0)
(0.169975 0.00182081 0)
(0.168149 0.00171016 0)
(0.166373 0.00160348 0)
(0.164652 0.00150042 0)
(0.162988 0.00140066 0)
(0.161386 0.00130391 0)
(0.159848 0.00120991 0)
(0.158377 0.00111845 0)
(0.156976 0.00102934 0)
(0.155648 0.000942479 0)
(0.154394 0.000857799 0)
(0.153215 0.000775321 0)
(0.152114 0.000695167 0)
(0.151091 0.000617581 0)
(0.150146 0.000542977 0)
(0.149279 0.000471963 0)
(0.148488 0.000405349 0)
(0.147771 0.000344089 0)
(0.147124 0.000289158 0)
(0.146542 0.000241364 0)
(0.146021 0.000201149 0)
(0.145555 0.000168435 0)
(0.145137 0.000142592 0)
(0.144761 0.000122512 0)
(0.144423 0.000106822 0)
(0.144116 9.41311e-05 0)
(0.143838 8.32588e-05 0)
(0.143585 7.33843e-05 0)
(0.143355 6.40739e-05 0)
(0.143147 5.52173e-05 0)
(0.142957 4.68982e-05 0)
(0.142786 3.9265e-05 0)
(0.142633 3.24257e-05 0)
(0.142495 2.64099e-05 0)
(0.142373 2.11719e-05 0)
(0.142265 1.66296e-05 0)
(0.14217 1.26908e-05 0)
(0.142088 9.27494e-06 0)
(0.142019 6.35357e-06 0)
(0.14196 3.86827e-06 0)
(0.141911 1.84934e-06 0)
(0.141872 -1.70653e-07 0)
(0.141838 -9.04857e-07 0)
(0.141818 -6.38499e-06 0)
(0.141793 -1.40079e-06 0)
(0.195002 0.00857706 0)
(0.196802 0.0099101 0)
(0.198932 0.0101088 0)
(0.200633 0.00948685 0)
(0.201666 0.0085984 0)
(0.202224 0.00777937 0)
(0.202563 0.00712026 0)
(0.202824 0.0066044 0)
(0.203043 0.00619441 0)
(0.203217 0.00585738 0)
(0.203331 0.00556954 0)
(0.203368 0.00531564 0)
(0.203314 0.00508618 0)
(0.203155 0.00487474 0)
(0.202883 0.00467676 0)
(0.202493 0.004489 0)
(0.201986 0.00430925 0)
(0.201363 0.00413601 0)
(0.20063 0.00396828 0)
(0.199791 0.00380542 0)
(0.198856 0.003647 0)
(0.197833 0.00349274 0)
(0.196731 0.00334243 0)
(0.19556 0.00319594 0)
(0.194328 0.00305314 0)
(0.193047 0.0029139 0)
(0.191724 0.00277809 0)
(0.190368 0.00264558 0)
(0.188989 0.00251622 0)
(0.187593 0.00238986 0)
(0.186189 0.00226633 0)
(0.184783 0.00214545 0)
(0.183383 0.00202707 0)
(0.181994 0.001911 0)
(0.180623 0.00179708 0)
(0.179276 0.00168517 0)
(0.177957 0.00157514 0)
(0.176672 0.00146689 0)
(0.175425 0.00136036 0)
(0.174221 0.00125553 0)
(0.173063 0.00115246 0)
(0.171956 0.0010513 0)
(0.170902 0.000952299 0)
(0.169904 0.000855853 0)
(0.168963 0.000762548 0)
(0.168082 0.000673182 0)
(0.16726 0.000588761 0)
(0.166497 0.000510441 0)
(0.165791 0.000439382 0)
(0.165142 0.000376555 0)
(0.164546 0.000322528 0)
(0.164 0.000277299 0)
(0.1635 0.000240257 0)
(0.163042 0.000210253 0)
(0.162623 0.000185816 0)
(0.162238 0.000165415 0)
(0.161885 0.000147709 0)
(0.161561 0.000131722 0)
(0.161262 0.000116889 0)
(0.160988 0.000102999 0)
(0.160735 9.00643e-05 0)
(0.160503 7.8175e-05 0)
(0.16029 6.73915e-05 0)
(0.160095 5.76954e-05 0)
(0.159917 4.89968e-05 0)
(0.159755 4.11774e-05 0)
(0.159609 3.41279e-05 0)
(0.15948 2.77852e-05 0)
(0.159365 2.21363e-05 0)
(0.159266 1.71523e-05 0)
(0.15918 1.2923e-05 0)
(0.159108 8.90972e-06 0)
(0.159044 6.46634e-06 0)
(0.159 -8.20391e-07 0)
(0.158942 2.97721e-06 0)
(0.195551 0.00807737 0)
(0.197069 0.00924464 0)
(0.198901 0.00951055 0)
(0.200429 0.00906672 0)
(0.2014 0.00834316 0)
(0.201925 0.0076327 0)
(0.202212 0.00703198 0)
(0.202397 0.00654204 0)
(0.202537 0.00614158 0)
(0.202655 0.00580891 0)
(0.20276 0.00552622 0)
(0.202853 0.00528068 0)
(0.20293 0.00506353 0)
(0.202984 0.00486843 0)
(0.203005 0.00469037 0)
(0.202986 0.00452542 0)
(0.20292 0.00437052 0)
(0.2028 0.00422334 0)
(0.202621 0.00408206 0)
(0.202379 0.00394534 0)
(0.202071 0.00381215 0)
(0.201698 0.00368174 0)
(0.201259 0.00355354 0)
(0.200755 0.00342715 0)
(0.20019 0.00330227 0)
(0.199565 0.00317867 0)
(0.198886 0.00305618 0)
(0.198156 0.00293468 0)
(0.197379 0.00281405 0)
(0.196562 0.00269422 0)
(0.195709 0.0025751 0)
(0.194825 0.00245662 0)
(0.193917 0.00233872 0)
(0.192989 0.00222135 0)
(0.192046 0.00210445 0)
(0.191096 0.00198799 0)
(0.190141 0.00187196 0)
(0.189189 0.00175637 0)
(0.188244 0.00164128 0)
(0.18731 0.0015268 0)
(0.186393 0.0014131 0)
(0.185496 0.00130047 0)
(0.184624 0.00118929 0)
(0.18378 0.00108013 0)
(0.182968 0.00097374 0)
(0.18219 0.000871082 0)
(0.181447 0.000773345 0)
(0.180742 0.000681852 0)
(0.180076 0.000597921 0)
(0.179448 0.000522665 0)
(0.178859 0.000456777 0)
(0.178307 0.000400363 0)
(0.177793 0.000352891 0)
(0.177313 0.000313265 0)
(0.176867 0.000280022 0)
(0.176452 0.000251599 0)
(0.176066 0.000226594 0)
(0.175707 0.000203955 0)
(0.175373 0.00018305 0)
(0.175062 0.000163619 0)
(0.174772 0.000145632 0)
(0.174503 0.000129134 0)
(0.174251 0.000114118 0)
(0.174016 0.000100471 0)
(0.173796 8.80034e-05 0)
(0.173592 7.65104e-05 0)
(0.173404 6.58438e-05 0)
(0.173232 5.59476e-05 0)
(0.173076 4.68528e-05 0)
(0.172938 3.85947e-05 0)
(0.172815 3.13103e-05 0)
(0.17271 2.45337e-05 0)
(0.172615 1.95411e-05 0)
(0.172546 1.0402e-05 0)
(0.17245 1.12902e-05 0)
(0.196032 0.00764661 0)
(0.197319 0.00866637 0)
(0.198886 0.008969 0)
(0.200251 0.00866461 0)
(0.201179 0.00808377 0)
(0.201723 0.00747747 0)
(0.202036 0.00694178 0)
(0.20223 0.00648829 0)
(0.202357 0.00610623 0)
(0.202445 0.00578206 0)
(0.202509 0.0055031 0)
(0.202563 0.00525923 0)
(0.20261 0.00504326 0)
(0.202652 0.00484987 0)
(0.202691 0.0046748 0)
(0.202723 0.00451455 0)
(0.202746 0.00436622 0)
(0.202756 0.00422748 0)
(0.20275 0.00409639 0)
(0.202723 0.00397136 0)
(0.202671 0.00385107 0)
(0.202591 0.00373446 0)
(0.202479 0.00362062 0)
(0.202332 0.00350883 0)
(0.20215 0.00339849 0)
(0.20193 0.0032891 0)
(0.201671 0.00318027 0)
(0.201374 0.00307166 0)
(0.201038 0.002963 0)
(0.200665 0.00285407 0)
(0.200256 0.00274469 0)
(0.199812 0.00263472 0)
(0.199337 0.00252402 0)
(0.198833 0.00241253 0)
(0.198302 0.00230016 0)
(0.197748 0.00218691 0)
(0.197174 0.00207276 0)
(0.196583 0.00195777 0)
(0.19598 0.00184204 0)
(0.195367 0.00172573 0)
(0.194749 0.0016091 0)
(0.194128 0.00149251 0)
(0.193509 0.00137643 0)
(0.192895 0.00126155 0)
(0.192288 0.00114872 0)
(0.191693 0.00103904 0)
(0.191111 0.000933807 0)
(0.190544 0.00083446 0)
(0.189996 0.000742422 0)
(0.189467 0.000658907 0)
(0.188961 0.000584711 0)
(0.188477 0.000520056 0)
(0.188016 0.000464533 0)
(0.18758 0.00041716 0)
(0.187168 0.000376563 0)
(0.186778 0.000341229 0)
(0.186411 0.000309761 0)
(0.186064 0.00028109 0)
(0.185738 0.000254568 0)
(0.185431 0.000229942 0)
(0.185142 0.000207209 0)
(0.184869 0.000186425 0)
(0.18461 0.000167548 0)
(0.184365 0.000150368 0)
(0.184131 0.000134544 0)
(0.183908 0.000119713 0)
(0.183697 0.000105609 0)
(0.1835 9.2138e-05 0)
(0.183317 7.93725e-05 0)
(0.183151 6.74487e-05 0)
(0.183001 5.66003e-05 0)
(0.182869 4.65395e-05 0)
(0.182749 3.83228e-05 0)
(0.182659 2.74325e-05 0)
(0.182531 2.38971e-05 0)
(0.196454 0.00726848 0)
(0.197553 0.00815713 0)
(0.198893 0.008476 0)
(0.200104 0.0082815 0)
(0.200978 0.00782275 0)
(0.20153 0.00731084 0)
(0.201871 0.00683827 0)
(0.202092 0.00642427 0)
(0.20224 0.00606587 0)
(0.202339 0.00575577 0)
(0.202405 0.00548532 0)
(0.20245 0.00524658 0)
(0.202481 0.0050335 0)
(0.202504 0.00484156 0)
(0.202522 0.00466714 0)
(0.202537 0.00450726 0)
(0.202551 0.00435943 0)
(0.202562 0.00422162 0)
(0.202572 0.00409213 0)
(0.202579 0.00396952 0)
(0.202581 0.00385256 0)
(0.202577 0.00374019 0)
(0.202564 0.0036315 0)
(0.202541 0.00352567 0)
(0.202505 0.00342202 0)
(0.202455 0.00331992 0)
(0.202387 0.00321883 0)
(0.202301 0.00311827 0)
(0.202196 0.00301784 0)
(0.202069 0.00291715 0)
(0.20192 0.0028159 0)
(0.201749 0.0027138 0)
(0.201554 0.00261063 0)
(0.201337 0.00250619 0)
(0.201097 0.00240032 0)
(0.200836 0.00229292 0)
(0.200554 0.00218394 0)
(0.200252 0.00207337 0)
(0.199931 0.00196129 0)
(0.199594 0.00184783 0)
(0.199243 0.00173324 0)
(0.198878 0.00161788 0)
(0.198503 0.00150228 0)
(0.198119 0.00138712 0)
(0.197728 0.00127331 0)
(0.197333 0.00116198 0)
(0.196935 0.00105448 0)
(0.196538 0.00095226 0)
(0.196143 0.000856787 0)
(0.195752 0.000769313 0)
(0.19537 0.000690696 0)
(0.194996 0.000621252 0)
(0.194635 0.000560698 0)
(0.194286 0.000508203 0)
(0.193951 0.000462531 0)
(0.19363 0.000422269 0)
(0.193323 0.000386063 0)
(0.193029 0.000352848 0)
(0.192749 0.000321977 0)
(0.192481 0.000293234 0)
(0.192227 0.000266698 0)
(0.191983 0.00024252 0)
(0.19175 0.000220699 0)
(0.191524 0.000200969 0)
(0.191304 0.00018282 0)
(0.19109 0.000165659 0)
(0.190882 0.000149004 0)
(0.190682 0.000132636 0)
(0.190492 0.000116622 0)
(0.190316 0.000101206 0)
(0.190154 8.67566e-05 0)
(0.190008 7.32672e-05 0)
(0.189874 6.1494e-05 0)
(0.189771 4.90306e-05 0)
(0.189622 4.00393e-05 0)
(0.196826 0.00693274 0)
(0.197771 0.0077075 0)
(0.198921 0.00802958 0)
(0.199992 0.00792119 0)
(0.200805 0.00756599 0)
(0.201351 0.00713811 0)
(0.201708 0.0067244 0)
(0.201951 0.00634949 0)
(0.20212 0.0060164 0)
(0.202236 0.00572268 0)
(0.202315 0.0054632 0)
(0.20237 0.00523205 0)
(0.202406 0.00502419 0)
(0.20243 0.00483575 0)
(0.202445 0.00466358 0)
(0.202454 0.00450503 0)
(0.202458 0.0043579 0)
(0.20246 0.00422039 0)
(0.20246 0.00409098 0)
(0.20246 0.00396842 0)
(0.202459 0.00385161 0)
(0.202458 0.00373962 0)
(0.202456 0.00363163 0)
(0.202453 0.00352691 0)
(0.202449 0.0034248 0)
(0.202441 0.00332473 0)
(0.202429 0.00322614 0)
(0.202412 0.00312856 0)
(0.202389 0.00303153 0)
(0.202359 0.00293463 0)
(0.202319 0.00283751 0)
(0.20227 0.0027398 0)
(0.20221 0.00264121 0)
(0.202138 0.00254148 0)
(0.202053 0.00244037 0)
(0.201956 0.00233771 0)
(0.201844 0.00223337 0)
(0.201718 0.00212728 0)
(0.201578 0.00201945 0)
(0.201424 0.00190997 0)
(0.201256 0.00179904 0)
(0.201073 0.00168699 0)
(0.200878 0.0015743 0)
(0.20067 0.00146164 0)
(0.200451 0.00134987 0)
(0.200221 0.00124009 0)
(0.199981 0.00113362 0)
(0.199734 0.00103188 0)
(0.199481 0.000936278 0)
(0.199224 0.00084805 0)
(0.198965 0.000768059 0)
(0.198708 0.000696673 0)
(0.198454 0.000633718 0)
(0.198205 0.00057851 0)
(0.197962 0.000529976 0)
(0.197725 0.000486824 0)
(0.197496 0.000447761 0)
(0.197274 0.000411721 0)
(0.197059 0.000378044 0)
(0.196851 0.000346548 0)
(0.196651 0.000317421 0)
(0.196457 0.000290973 0)
(0.196269 0.000267338 0)
(0.196084 0.000246263 0)
(0.195899 0.000227096 0)
(0.195715 0.00020897 0)
(0.19553 0.000191092 0)
(0.195347 0.000173004 0)
(0.195168 0.000154682 0)
(0.194998 0.000136449 0)
(0.194839 0.000118819 0)
(0.194694 0.000102145 0)
(0.194558 8.68841e-05 0)
(0.194454 7.30311e-05 0)
(0.194299 5.82829e-05 0)
(0.197154 0.00663238 0)
(0.197972 0.00730973 0)
(0.198962 0.00762628 0)
(0.199909 0.00758398 0)
(0.20066 0.00731551 0)
(0.201192 0.00696203 0)
(0.201557 0.00660299 0)
(0.201814 0.00626627 0)
(0.201997 0.0059592 0)
(0.202128 0.00568304 0)
(0.20222 0.00543568 0)
(0.202285 0.00521318 0)
(0.202331 0.0050116 0)
(0.202362 0.00482773 0)
(0.202382 0.00465888 0)
(0.202394 0.00450271 0)
(0.2024 0.00435726 0)
(0.202401 0.00422085 0)
(0.202399 0.00409213 0)
(0.202396 0.00396991 0)
(0.20239 0.0038532 0)
(0.202385 0.00374116 0)
(0.202378 0.00363304 0)
(0.202373 0.00352819 0)
(0.202367 0.00342601 0)
(0.202362 0.00332597 0)
(0.202356 0.0032276 0)
(0.202351 0.00313044 0)
(0.202345 0.00303407 0)
(0.202337 0.00293811 0)
(0.202328 0.00284219 0)
(0.202317 0.00274599 0)
(0.202302 0.00264918 0)
(0.202283 0.00255149 0)
(0.202259 0.00245268 0)
(0.202229 0.00235254 0)
(0.202193 0.0022509 0)
(0.202149 0.00214769 0)
(0.202098 0.00204285 0)
(0.202037 0.00193645 0)
(0.201967 0.00182865 0)
(0.201887 0.00171972 0)
(0.201796 0.00161011 0)
(0.201695 0.00150043 0)
(0.201583 0.0013915 0)
(0.20146 0.00128434 0)
(0.201328 0.00118019 0)
(0.201185 0.00108037 0)
(0.201035 0.000986224 0)
(0.200878 0.000898903 0)
(0.200716 0.000819233 0)
(0.200551 0.000747595 0)
(0.200386 0.00068389 0)
(0.200221 0.000627568 0)
(0.200059 0.00057771 0)
(0.199899 0.000533158 0)
(0.199742 0.000492678 0)
(0.199588 0.000455192 0)
(0.199437 0.000420002 0)
(0.199289 0.00038693 0)
(0.199145 0.000356275 0)
(0.199005 0.000328546 0)
(0.198867 0.000304083 0)
(0.198728 0.000282732 0)
(0.198587 0.000263745 0)
(0.198441 0.000245969 0)
(0.198289 0.000228233 0)
(0.198134 0.000209733 0)
(0.197978 0.000190255 0)
(0.197826 0.000170134 0)
(0.197681 0.000150023 0)
(0.197546 0.000130661 0)
(0.197419 0.000112289 0)
(0.19732 9.71472e-05 0)
(0.197172 7.70246e-05 0)
(0.197445 0.00636182 0)
(0.198157 0.00695634 0)
(0.199014 0.00726172 0)
(0.19985 0.00726906 0)
(0.20054 0.00707255 0)
(0.201052 0.00678459 0)
(0.201418 0.00647603 0)
(0.201684 0.00617621 0)
(0.201878 0.00589543 0)
(0.20202 0.0056377 0)
(0.202123 0.00540335 0)
(0.202197 0.00519025 0)
(0.202251 0.0049956 0)
(0.202289 0.00481687 0)
(0.202315 0.00465187 0)
(0.202332 0.00449859 0)
(0.202343 0.00435531 0)
(0.202347 0.00422052 0)
(0.202348 0.00409296 0)
(0.202345 0.00397156 0)
(0.202341 0.00385539 0)
(0.202334 0.00374365 0)
(0.202327 0.00363564 0)
(0.20232 0.00353076 0)
(0.202312 0.00342845 0)
(0.202304 0.00332822 0)
(0.202297 0.00322963 0)
(0.20229 0.00313227 0)
(0.202284 0.00303575 0)
(0.202278 0.00293972 0)
(0.202272 0.00284385 0)
(0.202267 0.00274783 0)
(0.202261 0.00265138 0)
(0.202254 0.00255423 0)
(0.202246 0.00245616 0)
(0.202236 0.00235698 0)
(0.202223 0.00225652 0)
(0.202208 0.00215469 0)
(0.202188 0.00205146 0)
(0.202164 0.00194687 0)
(0.202135 0.00184107 0)
(0.202099 0.00173432 0)
(0.202056 0.00162703 0)
(0.202006 0.00151976 0)
(0.201948 0.00141328 0)
(0.201881 0.00130854 0)
(0.201806 0.00120669 0)
(0.201723 0.00110895 0)
(0.201633 0.00101656 0)
(0.201536 0.000930588 0)
(0.201435 0.000851786 0)
(0.20133 0.000780525 0)
(0.201223 0.000716757 0)
(0.201117 0.000660043 0)
(0.201011 0.000609613 0)
(0.200906 0.000564431 0)
(0.200802 0.000523326 0)
(0.200699 0.000485194 0)
(0.200597 0.000449275 0)
(0.200497 0.00041537 0)
(0.200399 0.000383871 0)
(0.200303 0.000355503 0)
(0.200207 0.00033086 0)
(0.200109 0.000309951 0)
(0.200006 0.000291985 0)
(0.199896 0.000275541 0)
(0.199777 0.000259027 0)
(0.199651 0.00024122 0)
(0.19952 0.000221624 0)
(0.19939 0.000200516 0)
(0.199262 0.000178659 0)
(0.199143 0.000157162 0)
(0.199029 0.000136185 0)
(0.19894 0.000119742 0)
(0.198806 9.50442e-05 0)
(0.197704 0.00611659 0)
(0.198327 0.00664086 0)
(0.199071 0.00693186 0)
(0.19981 0.00697582 0)
(0.200441 0.00683842 0)
(0.200929 0.00660767 0)
(0.201292 0.00634531 0)
(0.201561 0.00608065 0)
(0.201764 0.00582597 0)
(0.201914 0.00558719 0)
(0.202026 0.00536657 0)
(0.202108 0.00516356 0)
(0.202169 0.00497645 0)
(0.202214 0.00480338 0)
(0.202245 0.00464264 0)
(0.202267 0.0044926 0)
(0.202281 0.00435179 0)
(0.202289 0.00421888 0)
(0.202293 0.00409275 0)
(0.202293 0.00397241 0)
(0.202291 0.00385702 0)
(0.202286 0.00374581 0)
(0.20228 0.00363816 0)
(0.202273 0.00353346 0)
(0.202266 0.00343122 0)
(0.202258 0.00333096 0)
(0.20225 0.00323226 0)
(0.202243 0.00313474 0)
(0.202235 0.00303804 0)
(0.202229 0.00294183 0)
(0.202222 0.00284581 0)
(0.202216 0.00274968 0)
(0.20221 0.00265318 0)
(0.202203 0.00255609 0)
(0.202197 0.00245818 0)
(0.20219 0.0023593 0)
(0.202182 0.0022593 0)
(0.202173 0.00215811 0)
(0.202161 0.00205569 0)
(0.202147 0.00195211 0)
(0.20213 0.00184752 0)
(0.202108 0.00174217 0)
(0.202082 0.00163645 0)
(0.202051 0.00153091 0)
(0.202014 0.00142627 0)
(0.201971 0.00132342 0)
(0.201922 0.00122341 0)
(0.201866 0.0011274 0)
(0.201804 0.00103652 0)
(0.201738 0.000951725 0)
(0.201668 0.000873726 0)
(0.201595 0.000802863 0)
(0.201521 0.000739123 0)
(0.201447 0.000682169 0)
(0.201373 0.000631361 0)
(0.201301 0.000585786 0)
(0.201229 0.000544327 0)
(0.201158 0.00050585 0)
(0.201088 0.000469521 0)
(0.201019 0.000435103 0)
(0.200951 0.000403068 0)
(0.200885 0.000374357 0)
(0.200818 0.000349841 0)
(0.200749 0.000329731 0)
(0.200674 0.000313238 0)
(0.20059 0.000298692 0)
(0.200497 0.000284073 0)
(0.200394 0.000267695 0)
(0.200285 0.000248719 0)
(0.200174 0.000227304 0)
(0.200063 0.000204292 0)
(0.199959 0.000181117 0)
(0.199857 0.000157997 0)
(0.199779 0.000140158 0)
(0.199661 0.000111763 0)
(0.197936 0.0058932 0)
(0.198484 0.00635793 0)
(0.199133 0.00663307 0)
(0.199786 0.00670345 0)
(0.200361 0.0066141 0)
(0.200822 0.00643284 0)
(0.201177 0.00621234 0)
(0.201447 0.0059808 0)
(0.201654 0.00575162 0)
(0.201811 0.00553202 0)
(0.20193 0.00532565 0)
(0.20202 0.00513331 0)
(0.202087 0.00495427 0)
(0.202137 0.00478734 0)
(0.202173 0.00463128 0)
(0.202199 0.00448484 0)
(0.202217 0.00434678 0)
(0.202229 0.00421599 0)
(0.202235 0.00409148 0)
(0.202238 0.00397237 0)
(0.202238 0.00385789 0)
(0.202235 0.00374737 0)
(0.202231 0.00364018 0)
(0.202225 0.0035358 0)
(0.202219 0.00343375 0)
(0.202212 0.00333357 0)
(0.202205 0.00323489 0)
(0.202198 0.00313732 0)
(0.202191 0.00304053 0)
(0.202184 0.00294422 0)
(0.202177 0.00284808 0)
(0.20217 0.00275187 0)
(0.202163 0.00265532 0)
(0.202157 0.00255822 0)
(0.20215 0.00246039 0)
(0.202143 0.00236167 0)
(0.202135 0.00226195 0)
(0.202125 0.00216115 0)
(0.202115 0.00205927 0)
(0.202102 0.00195639 0)
(0.202087 0.00185265 0)
(0.202069 0.00174832 0)
(0.202047 0.00164378 0)
(0.202022 0.00153956 0)
(0.201991 0.00143634 0)
(0.201956 0.00133496 0)
(0.201916 0.00123642 0)
(0.201871 0.00114177 0)
(0.201821 0.00105206 0)
(0.201767 0.000968183 0)
(0.201711 0.000890767 0)
(0.201653 0.000820135 0)
(0.201594 0.000756309 0)
(0.201535 0.00069904 0)
(0.201478 0.000647814 0)
(0.201422 0.00060183 0)
(0.201367 0.000560022 0)
(0.201312 0.000521228 0)
(0.201259 0.000484534 0)
(0.201207 0.000449663 0)
(0.201156 0.00041716 0)
(0.201106 0.00038818 0)
(0.201057 0.000363877 0)
(0.201005 0.000344682 0)
(0.200947 0.000329828 0)
(0.20088 0.00031742 0)
(0.200803 0.000305014 0)
(0.200717 0.000290446 0)
(0.200623 0.000272504 0)
(0.200525 0.000251191 0)
(0.200427 0.000227402 0)
(0.200334 0.000202848 0)
(0.200243 0.000177917 0)
(0.200174 0.000158561 0)
(0.200068 0.000127173 0)
(0.198144 0.00568888 0)
(0.198628 0.00610305 0)
(0.199196 0.00636196 0)
(0.199775 0.00645089 0)
(0.200297 0.00640018 0)
(0.20073 0.00626135 0)
(0.201072 0.00607847 0)
(0.20134 0.00587782 0)
(0.201549 0.00567324 0)
(0.201711 0.00547273 0)
(0.201836 0.00528092 0)
(0.201931 0.00509968 0)
(0.202003 0.00492917 0)
(0.202058 0.00476881 0)
(0.202099 0.00461783 0)
(0.202129 0.0044753 0)
(0.202151 0.00434029 0)
(0.202165 0.00421186 0)
(0.202175 0.00408917 0)
(0.20218 0.00397146 0)
(0.202182 0.00385804 0)
(0.202181 0.0037483 0)
(0.202178 0.00364169 0)
(0.202174 0.00353771 0)
(0.202169 0.00343592 0)
(0.202163 0.00333591 0)
(0.202157 0.0032373 0)
(0.202151 0.00313975 0)
(0.202144 0.00304294 0)
(0.202137 0.00294658 0)
(0.202131 0.0028504 0)
(0.202124 0.00275415 0)
(0.202118 0.0026576 0)
(0.202111 0.00256054 0)
(0.202104 0.00246281 0)
(0.202096 0.00236427 0)
(0.202088 0.0022648 0)
(0.202079 0.00216438 0)
(0.202068 0.00206299 0)
(0.202055 0.00196073 0)
(0.20204 0.00185775 0)
(0.202023 0.00175431 0)
(0.202002 0.0016508 0)
(0.201977 0.00154773 0)
(0.201949 0.00144574 0)
(0.201916 0.00134563 0)
(0.201879 0.00124833 0)
(0.201838 0.00115483 0)
(0.201793 0.00106609 0)
(0.201744 0.000982937 0)
(0.201694 0.000905942 0)
(0.201642 0.000835409 0)
(0.201589 0.000771391 0)
(0.201538 0.000713724 0)
(0.201488 0.000662011 0)
(0.201439 0.000615557 0)
(0.201391 0.00057334 0)
(0.201344 0.00053417 0)
(0.201299 0.000497062 0)
(0.201255 0.0004617 0)
(0.201212 0.000428706 0)
(0.201171 0.000399444 0)
(0.20113 0.000375351 0)
(0.201086 0.000357077 0)