/*--------------------------------*- C++ -*----------------------------------*\
| =========                 |                                                 |
| \\      /  F ield         | OpenFOAM: The Open Source CFD Toolbox           |
|  \\    /   O peration     | Version:  2.3.0                                 |
|   \\  /    A nd           | Web:      www.OpenFOAM.org                      |
|    \\/     M anipulation  |                                                 |
\*---------------------------------------------------------------------------*/
FoamFile
{
    version     2.0;
    format      ascii;
    class       volScalarField;
    location    "0.5";
    object      p;
}
// * * * * * * * * * * * * * * * * * * * * * * * * * * * * * * * * * * * * * //

dimensions      [0 2 -2 0 0 0 0];

internalField   nonuniform List<scalar> 
1500
(
0.00194268
0.00137725
0.000922258
0.000601084
0.000340771
0.000111055
-8.79334e-05
-0.000251585
-0.000378468
-0.000469866
-0.000528864
-0.00055993
-0.000568436
-0.000560008
-0.000539904
-0.000512596
-0.00048158
-0.000449375
-0.00041765
-0.000387399
-0.000359124
-0.000333005
-0.000309022
-0.000287047
-0.000266907
-0.000248422
-0.00023142
-0.000215751
-0.000201284
-0.00018791
-0.000175536
-0.000164084
-0.000153485
-0.000143679
-0.000134611
-0.000126231
-0.000118493
-0.000111354
-0.000104772
-9.871e-05
-9.31305e-05
-8.79995e-05
-8.32849e-05
-7.89564e-05
-7.4986e-05
-7.13473e-05
-6.8016e-05
-6.49694e-05
-6.21867e-05
-5.96487e-05
-5.73375e-05
-5.52369e-05
-5.33316e-05
-5.16079e-05
-5.00529e-05
-4.86547e-05
-4.74023e-05
-4.62855e-05
-4.52945e-05
-4.44203e-05
-4.36543e-05
-4.29881e-05
-4.24139e-05
-4.19237e-05
-4.15099e-05
-4.11649e-05
-4.08809e-05
-4.06502e-05
-4.04649e-05
-4.03169e-05
-4.01977e-05
-4.00987e-05
-4.00109e-05
-3.99249e-05
-3.9831e-05
-3.97191e-05
-3.95787e-05
-3.93992e-05
-3.91694e-05
-3.88782e-05
-3.85145e-05
-3.80669e-05
-3.7524e-05
-3.68743e-05
-3.61059e-05
-3.52058e-05
-3.41599e-05
-3.2952e-05
-3.15645e-05
-2.99785e-05
-2.8176e-05
-2.61428e-05
-2.38727e-05
-2.13697e-05
-1.8651e-05
-1.57398e-05
-1.268e-05
-9.49012e-06
-6.15232e-06
-2.67699e-06
0.00165078
0.00126052
0.000895539
0.000608681
0.000364048
0.0001426
-5.2553e-05
-0.000215109
-0.000342537
-0.000435518
-0.000496773
-0.000530504
-0.000541865
-0.000536311
-0.000518975
-0.000494243
-0.00046556
-0.000435423
-0.000405497
-0.000376789
-0.000349826
-0.000324814
-0.000301763
-0.000280575
-0.000261101
-0.000243182
-0.000226665
-0.000211413
-0.000197308
-0.000184251
-0.000172155
-0.000160949
-0.000150568
-0.000140956
-0.000132062
-0.000123839
-0.000116242
-0.000109231
-0.000102766
-9.68106e-05
-9.13288e-05
-8.62877e-05
-8.16561e-05
-7.74046e-05
-7.35056e-05
-6.99336e-05
-6.66646e-05
-6.36765e-05
-6.09488e-05
-5.84626e-05
-5.62005e-05
-5.41463e-05
-5.22852e-05
-5.06036e-05
-4.90888e-05
-4.77291e-05
-4.65136e-05
-4.54322e-05
-4.44754e-05
-4.36343e-05
-4.29002e-05
-4.2265e-05
-4.17209e-05
-4.126e-05
-4.08749e-05
-4.05578e-05
-4.03011e-05
-4.00973e-05
-3.99383e-05
-3.98162e-05
-3.97225e-05
-3.96486e-05
-3.95855e-05
-3.95239e-05
-3.94541e-05
-3.93659e-05
-3.9249e-05
-3.90925e-05
-3.88854e-05
-3.86166e-05
-3.82748e-05
-3.78487e-05
-3.73269e-05
-3.66977e-05
-3.59494e-05
-3.50689e-05
-3.40421e-05
-3.28531e-05
-3.14841e-05
-2.99162e-05
-2.81311e-05
-2.6114e-05
-2.38575e-05
-2.13655e-05
-1.86545e-05
-1.57542e-05
-1.26947e-05
-9.50173e-06
-6.15477e-06
-2.7207e-06
0.00142535
0.00115048
0.000851598
0.000592908
0.000366718
0.000161579
-2.06618e-05
-0.000174653
-0.000297692
-0.000389895
-0.000453228
-0.000491002
-0.000507482
-0.000507352
-0.000495172
-0.00047497
-0.000450031
-0.00042284
-0.000395144
-0.000368079
-0.000342309
-0.000318165
-0.000295759
-0.000275066
-0.000255994
-0.000238416
-0.000222202
-0.000207229
-0.000193384
-0.000180571
-0.000168707
-0.000157718
-0.000147542
-0.000138122
-0.000129407
-0.00012135
-0.000113907
-0.000107038
-0.000100705
-9.48697e-05
-8.94991e-05
-8.45603e-05
-8.00229e-05
-7.58582e-05
-7.20393e-05
-6.85413e-05
-6.53407e-05
-6.2416e-05
-5.97472e-05
-5.73159e-05
-5.5105e-05
-5.30987e-05
-5.12826e-05
-4.96433e-05
-4.81684e-05
-4.68464e-05
-4.56668e-05
-4.46196e-05
-4.36954e-05
-4.28854e-05
-4.21814e-05
-4.15751e-05
-4.10589e-05
-4.06251e-05
-4.02663e-05
-3.99748e-05
-3.97432e-05
-3.95639e-05
-3.9429e-05
-3.93304e-05
-3.926e-05
-3.92091e-05
-3.91687e-05
-3.91296e-05
-3.9082e-05
-3.90158e-05
-3.89206e-05
-3.87857e-05
-3.86e-05
-3.83523e-05
-3.80314e-05
-3.76258e-05
-3.71242e-05
-3.65151e-05
-3.57865e-05
-3.49255e-05
-3.3918e-05
-3.2748e-05
-3.13976e-05
-2.98477e-05
-2.80798e-05
-2.60787e-05
-2.38364e-05
-2.13561e-05
-1.86542e-05
-1.57613e-05
-1.27113e-05
-9.53009e-06
-6.21571e-06
-2.95188e-06
0.00122177
0.00102242
0.000782571
0.000558792
0.000358155
0.000175414
1.15126e-05
-0.000129269
-0.000244116
-0.000332539
-0.00039574
-0.000436144
-0.000457078
-0.000462361
-0.000455855
-0.000441101
-0.000421091
-0.000398178
-0.000374091
-0.000350014
-0.000326693
-0.000304551
-0.000283785
-0.000264448
-0.000246507
-0.000229886
-0.00021449
-0.000200225
-0.000186998
-0.00017473
-0.000163348
-0.000152788
-0.000142994
-0.000133917
-0.000125509
-0.000117728
-0.000110534
-0.00010389
-9.77592e-05
-9.21084e-05
-8.69051e-05
-8.21189e-05
-7.77207e-05
-7.36835e-05
-6.99816e-05
-6.65911e-05
-6.34897e-05
-6.06567e-05
-5.80728e-05
-5.57202e-05
-5.35825e-05
-5.16444e-05
-4.98919e-05
-4.8312e-05
-4.68929e-05
-4.56232e-05
-4.44929e-05
-4.3492e-05
-4.26117e-05
-4.18434e-05
-4.11788e-05
-4.06101e-05
-4.01299e-05
-3.97305e-05
-3.94048e-05
-3.91452e-05
-3.89446e-05
-3.87952e-05
-3.86895e-05
-3.86195e-05
-3.85771e-05
-3.85537e-05
-3.85405e-05
-3.85282e-05
-3.85072e-05
-3.84674e-05
-3.83986e-05
-3.82899e-05
-3.81304e-05
-3.79089e-05
-3.76141e-05
-3.72348e-05
-3.67595e-05
-3.61768e-05
-3.54746e-05
-3.46402e-05
-3.36592e-05
-3.25157e-05
-3.11916e-05
-2.96678e-05
-2.79253e-05
-2.5949e-05
-2.3731e-05
-2.12753e-05
-1.85995e-05
-1.57346e-05
-1.27156e-05
-9.57655e-06
-6.36187e-06
-3.4597e-06
0.00103353
0.000888209
0.000702562
0.000516994
0.00034421
0.00018464
3.98837e-05
-8.6399e-05
-0.000191396
-0.000274188
-0.000335403
-0.000376778
-0.000400851
-0.00041065
-0.000409338
-0.000399903
-0.000384954
-0.000366618
-0.000346523
-0.000325842
-0.000305367
-0.000285593
-0.0002668
-0.000249119
-0.000232585
-0.000217177
-0.000202844
-0.000189521
-0.000177141
-0.000165639
-0.000154954
-0.000145032
-0.000135822
-0.000127279
-0.00011936
-0.000112026
-0.00010524
-9.89681e-05
-9.31769e-05
-8.78352e-05
-8.29134e-05
-7.83831e-05
-7.42179e-05
-7.03926e-05
-6.68835e-05
-6.36686e-05
-6.07272e-05
-5.80401e-05
-5.55893e-05
-5.33583e-05
-5.13319e-05
-4.94957e-05
-4.78367e-05
-4.63427e-05
-4.50026e-05
-4.38058e-05
-4.27427e-05
-4.18042e-05
-4.09817e-05
-4.02671e-05
-3.96526e-05
-3.91309e-05
-3.86947e-05
-3.83369e-05
-3.80504e-05
-3.78282e-05
-3.76632e-05
-3.75481e-05
-3.74755e-05
-3.74376e-05
-3.74266e-05
-3.7434e-05
-3.74512e-05
-3.74692e-05
-3.74785e-05
-3.74693e-05
-3.74312e-05
-3.73538e-05
-3.72262e-05
-3.70374e-05
-3.67762e-05
-3.64314e-05
-3.59917e-05
-3.54457e-05
-3.47814e-05
-3.3986e-05
-3.30452e-05
-3.19429e-05
-3.06613e-05
-2.91812e-05
-2.74842e-05
-2.55556e-05
-2.33884e-05
-2.09874e-05
-1.83715e-05
-1.55731e-05
-1.26327e-05
-9.60081e-06
-6.59264e-06
-4.24166e-06
0.000865839
0.000758792
0.000617579
0.000467773
0.000322418
0.000185726
6.0354e-05
-5.04978e-05
-0.000144255
-0.000219782
-0.000277272
-0.000317897
-0.000343531
-0.000356499
-0.00035931
-0.000354412
-0.000344009
-0.000329962
-0.000313751
-0.000296493
-0.000278985
-0.000261762
-0.00024516
-0.00022937
-0.000214482
-0.000200523
-0.000187477
-0.000175312
-0.00016398
-0.000153433
-0.000143624
-0.000134505
-0.000126034
-0.00011817
-0.000110876
-0.000104117
-9.786e-05
-9.20734e-05
-8.67277e-05
-8.17946e-05
-7.72473e-05
-7.30605e-05
-6.92098e-05
-6.56727e-05
-6.24276e-05
-5.94545e-05
-5.67344e-05
-5.42499e-05
-5.19847e-05
-4.99236e-05
-4.80525e-05
-4.63585e-05
-4.48295e-05
-4.34544e-05
-4.2223e-05
-4.11255e-05
-4.01531e-05
-3.92975e-05
-3.85507e-05
-3.79052e-05
-3.7354e-05
-3.68902e-05
-3.65069e-05
-3.61978e-05
-3.59561e-05
-3.57753e-05
-3.56488e-05
-3.55696e-05
-3.55309e-05
-3.55252e-05
-3.55451e-05
-3.55826e-05
-3.56295e-05
-3.5677e-05
-3.57161e-05
-3.57374e-05
-3.57309e-05
-3.56865e-05
-3.55937e-05
-3.54417e-05
-3.52199e-05
-3.49172e-05
-3.45226e-05
-3.40249e-05
-3.34122e-05
-3.26718e-05
-3.17897e-05
-3.07501e-05
-2.95356e-05
-2.81279e-05
-2.65097e-05
-2.46676e-05
-2.25962e-05
-2.03012e-05
-1.78025e-05
-1.51337e-05
-1.23414e-05
-9.49738e-06
-6.78996e-06
-5.00149e-06
0.000715789
0.000635631
0.000529033
0.00041103
0.000292262
0.000178312
7.2518e-05
-2.22606e-05
-0.000103755
-0.000170745
-0.000223078
-0.000261448
-0.000287166
-0.000301951
-0.000307733
-0.000306456
-0.000299929
-0.000289727
-0.000277151
-0.000263219
-0.00024869
-0.000234105
-0.000219826
-0.000206081
-0.000193002
-0.000180653
-0.000169052
-0.000158192
-0.000148048
-0.000138588
-0.000129777
-0.000121579
-0.000113957
-0.000106878
-0.00010031
-9.42216e-05
-8.85835e-05
-8.33681e-05
-7.8549e-05
-7.41011e-05
-7.00005e-05
-6.62243e-05
-6.27512e-05
-5.95607e-05
-5.66338e-05
-5.39524e-05
-5.14998e-05
-4.92602e-05
-4.7219e-05
-4.53627e-05
-4.36787e-05
-4.21553e-05
-4.07818e-05
-3.95482e-05
-3.84453e-05
-3.74644e-05
-3.65975e-05
-3.58371e-05
-3.51761e-05
-3.46079e-05
-3.4126e-05
-3.37241e-05
-3.33963e-05
-3.31366e-05
-3.2939e-05
-3.27976e-05
-3.27063e-05
-3.26588e-05
-3.26488e-05
-3.26695e-05
-3.2714e-05
-3.2775e-05
-3.28448e-05
-3.29154e-05
-3.29783e-05
-3.30248e-05
-3.30455e-05
-3.30311e-05
-3.29715e-05
-3.28569e-05
-3.2677e-05
-3.24215e-05
-3.20797e-05
-3.1641e-05
-3.1094e-05
-3.04264e-05
-2.96248e-05
-2.86743e-05
-2.75586e-05
-2.6261e-05
-2.47661e-05
-2.30626e-05
-2.11467e-05
-1.9025e-05
-1.67176e-05
-1.42586e-05
-1.16988e-05
-9.12551e-06
-6.7579e-06
-5.29439e-06
0.000579576
0.000519245
0.000439636
0.000349138
0.000255273
0.000163323
7.67559e-05
-1.8342e-06
-7.04703e-05
-0.000127951
-0.000173899
-0.000208639
-0.000233026
-0.000248282
-0.000255835
-0.000257178
-0.000253742
-0.000246816
-0.000237495
-0.000226667
-0.000215022
-0.00020307
-0.000191175
-0.000179579
-0.000168437
-0.000157839
-0.000147828
-0.000138417
-0.000129602
-0.000121364
-0.00011368
-0.000106522
-9.98638e-05
-9.36766e-05
-8.79335e-05
-8.26083e-05
-7.7676e-05
-7.31126e-05
-6.88952e-05
-6.5002e-05
-6.14124e-05
-5.81065e-05
-5.50658e-05
-5.22724e-05
-4.97099e-05
-4.73626e-05
-4.52158e-05
-4.32558e-05
-4.14701e-05
-3.98467e-05
-3.83746e-05
-3.70438e-05
-3.58448e-05
-3.47689e-05
-3.3808e-05
-3.29547e-05
-3.22018e-05
-3.15429e-05
-3.09717e-05
-3.04825e-05
-3.00695e-05
-2.97274e-05
-2.94509e-05
-2.92348e-05
-2.90738e-05
-2.89627e-05
-2.88963e-05
-2.88689e-05
-2.8875e-05
-2.89086e-05
-2.89636e-05
-2.90335e-05
-2.91115e-05
-2.91905e-05
-2.92629e-05
-2.93209e-05
-2.93562e-05
-2.93603e-05
-2.93244e-05
-2.92393e-05
-2.9096e-05
-2.8885e-05
-2.85967e-05
-2.82211e-05
-2.77478e-05
-2.71656e-05
-2.64621e-05
-2.5624e-05
-2.46369e-05
-2.34864e-05
-2.21596e-05
-2.06475e-05
-1.89478e-05
-1.70677e-05
-1.50264e-05
-1.28563e-05
-1.06077e-05
-8.36604e-06
-6.3151e-06
-4.87097e-06
0.000460271
0.000414634
0.000355308
0.000286973
0.000214582
0.000142383
7.34949e-05
1.02004e-05
-4.5814e-05
-9.34586e-05
-0.000132265
-0.000162321
-0.000184151
-0.000198595
-0.000206683
-0.000209529
-0.000208232
-0.00020381
-0.000197151
-0.000189
-0.000179949
-0.000170453
-0.000160847
-0.00015137
-0.000142178
-0.000133371
-0.000125008
-0.000117114
-0.000109697
-0.000102751
-9.62614e-05
-9.02101e-05
-8.45763e-05
-7.93381e-05
-7.44739e-05
-6.99622e-05
-6.57824e-05
-6.19144e-05
-5.83392e-05
-5.50384e-05
-5.19946e-05
-4.91912e-05
-4.66125e-05
-4.42436e-05
-4.20704e-05
-4.00798e-05
-3.82594e-05
-3.65977e-05
-3.5084e-05
-3.37082e-05
-3.2461e-05
-3.13339e-05
-3.03188e-05
-2.94085e-05
-2.8596e-05
-2.7875e-05
-2.72396e-05
-2.66841e-05
-2.62035e-05
-2.57926e-05
-2.54468e-05
-2.51615e-05
-2.49321e-05
-2.47543e-05
-2.46237e-05
-2.45358e-05
-2.44861e-05
-2.44699e-05
-2.44825e-05
-2.45189e-05
-2.45737e-05
-2.46416e-05
-2.47166e-05
-2.47928e-05
-2.48636e-05
-2.49224e-05
-2.49621e-05
-2.49754e-05
-2.49547e-05
-2.48923e-05
-2.47801e-05
-2.46101e-05
-2.43739e-05
-2.40627e-05
-2.36674e-05
-2.31783e-05
-2.25846e-05
-2.18749e-05
-2.10372e-05
-2.00597e-05
-1.8932e-05
-1.76472e-05
-1.62045e-05
-1.46107e-05
-1.28827e-05
-1.10491e-05
-9.15332e-06
-7.26206e-06
-5.48579e-06
-3.95906e-06
0.000344199
0.000311358
0.000269371
0.000220694
0.00016831
0.000115234
6.39247e-05
1.62226e-05
-2.65256e-05
-6.34155e-05
-9.39823e-05
-0.000118168
-0.00013625
-0.000148752
-0.000156364
-0.000159856
-0.000160015
-0.000157589
-0.00015325
-0.000147574
-0.000141033
-0.000134002
-0.000126766
-0.000119531
-0.000112445
-0.000105604
-9.90686e-05
-9.28731e-05
-8.70325e-05
-8.15491e-05
-7.64172e-05
-7.16257e-05
-6.71607e-05
-6.30066e-05
-5.91474e-05
-5.55667e-05
-5.22486e-05
-4.91775e-05
-4.63385e-05
-4.37171e-05
-4.12996e-05
-3.90728e-05
-3.70245e-05
-3.51427e-05
-3.34163e-05
-3.1835e-05
-3.0389e-05
-2.9069e-05
-2.78667e-05
-2.67739e-05
-2.57833e-05
-2.48882e-05
-2.40822e-05
-2.33594e-05
-2.27143e-05
-2.21419e-05
-2.16375e-05
-2.11966e-05
-2.08151e-05
-2.04891e-05
-2.02147e-05
-1.99883e-05
-1.98063e-05
-1.96653e-05
-1.95617e-05
-1.9492e-05
-1.94527e-05
-1.944e-05
-1.94501e-05
-1.94792e-05
-1.95229e-05
-1.9577e-05
-1.96369e-05
-1.96977e-05
-1.97543e-05
-1.98014e-05
-1.98334e-05
-1.98446e-05
-1.98288e-05
-1.97799e-05
-1.96915e-05
-1.95572e-05
-1.93701e-05
-1.91232e-05
-1.88092e-05
-1.84202e-05
-1.79476e-05
-1.73826e-05
-1.67156e-05
-1.59379e-05
-1.50418e-05
-1.40227e-05
-1.28802e-05
-1.16205e-05
-1.02574e-05
-8.81312e-06
-7.31958e-06
-5.81688e-06
-4.34247e-06
-2.84094e-06
0.000217092
0.00019691
0.000171514
0.000142034
0.00011
7.71634e-05
4.50755e-05
1.4941e-05
-1.2352e-05
-3.61919e-05
-5.62306e-05
-7.23671e-05
-8.47114e-05
-9.35358e-05
-9.92241e-05
-0.000102224
-0.000103007
-0.000102029
-9.97132e-05
-9.64294e-05
-9.24889e-05
-8.81439e-05
-8.35915e-05
-7.898e-05
-7.44171e-05
-6.99775e-05
-6.57106e-05
-6.16462e-05
-5.78007e-05
-5.41803e-05
-5.07848e-05
-4.76094e-05
-4.46467e-05
-4.18878e-05
-3.93228e-05
-3.69416e-05
-3.4734e-05
-3.269e-05
-3.07998e-05
-2.9054e-05
-2.74435e-05
-2.59598e-05
-2.45947e-05
-2.33403e-05
-2.21895e-05
-2.11351e-05
-2.01709e-05
-1.92906e-05
-1.84886e-05
-1.77598e-05
-1.70991e-05
-1.6502e-05
-1.59643e-05
-1.54821e-05
-1.50517e-05
-1.46698e-05
-1.43333e-05
-1.40391e-05
-1.37846e-05
-1.3567e-05
-1.33838e-05
-1.32326e-05
-1.31111e-05
-1.30168e-05
-1.29475e-05
-1.29009e-05
-1.28745e-05
-1.28658e-05
-1.28724e-05
-1.28917e-05
-1.29208e-05
-1.29568e-05
-1.29968e-05
-1.30375e-05
-1.30755e-05
-1.31073e-05
-1.31291e-05
-1.31372e-05
-1.31276e-05
-1.3096e-05
-1.30383e-05
-1.295e-05
-1.28268e-05
-1.26638e-05
-1.24561e-05
-1.21983e-05
-1.1885e-05
-1.15101e-05
-1.10678e-05
-1.05522e-05
-9.95882e-06
-9.28489e-06
-8.53069e-06
-7.70045e-06
-6.80317e-06
-5.85272e-06
-4.86643e-06
-3.85867e-06
-2.82019e-06
-1.64275e-06
7.55811e-05
6.85798e-05
5.98437e-05
4.9734e-05
3.87309e-05
2.74048e-05
1.62856e-05
5.79623e-06
-3.74895e-06
-1.21321e-05
-1.92252e-05
-2.49838e-05
-2.9436e-05
-3.26668e-05
-3.48008e-05
-3.59865e-05
-3.63817e-05
-3.61426e-05
-3.54146e-05
-3.43267e-05
-3.29892e-05
-3.14925e-05
-2.99082e-05
-2.82912e-05
-2.66818e-05
-2.5109e-05
-2.35919e-05
-2.21429e-05
-2.07691e-05
-1.94737e-05
-1.82573e-05
-1.71188e-05
-1.60559e-05
-1.50657e-05
-1.41449e-05
-1.32898e-05
-1.2497e-05
-1.17629e-05
-1.1084e-05
-1.0457e-05
-9.87855e-06
-9.34566e-06
-8.85537e-06
-8.40488e-06
-7.99156e-06
-7.61293e-06
-7.26666e-06
-6.95056e-06
-6.66259e-06
-6.40086e-06
-6.16361e-06
-5.9492e-06
-5.75609e-06
-5.5829e-06
-5.4283e-06
-5.29108e-06
-5.17009e-06
-5.06429e-06
-4.97265e-06
-4.89424e-06
-4.82813e-06
-4.77346e-06
-4.72937e-06
-4.69501e-06
-4.66955e-06
-4.65214e-06
-4.64192e-06
-4.63802e-06
-4.63952e-06
-4.64549e-06
-4.65492e-06
-4.66678e-06
-4.67999e-06
-4.69338e-06
-4.70576e-06
-4.71586e-06
-4.72235e-06
-4.72386e-06
-4.71896e-06
-4.70618e-06
-4.68398e-06
-4.6508e-06
-4.60502e-06
-4.54494e-06
-4.46875e-06
-4.37458e-06
-4.26041e-06
-4.12417e-06
-3.96375e-06
-3.77723e-06
-3.56307e-06
-3.32041e-06
-3.04947e-06
-2.75185e-06
-2.43068e-06
-2.09045e-06
-1.73592e-06
-1.36868e-06
-9.78766e-07
-5.24999e-07
1.36006e-05
1.47275e-05
1.73192e-05
2.13274e-05
2.68093e-05
3.39894e-05
4.31906e-05
5.48012e-05
6.92768e-05
8.71518e-05
0.000109048
0.000135685
0.000167896
0.000206647
0.000253077
0.000308554
0.000374776
0.000453942
0.000549055
0.000664491
0.000807144
0.000988932
0.00123315
0.00159814
0.00225882
1.3484e-05
1.4569e-05
1.71064e-05
2.10461e-05
2.64411e-05
3.35107e-05
4.25724e-05
5.40072e-05
6.8263e-05
8.5864e-05
0.00010742
0.000133637
0.000165326
0.00020343
0.000249052
0.000303507
0.000368411
0.000445826
0.000538512
0.000650373
0.00078727
0.000958532
0.00117938
0.00147142
0.00183675
1.3277e-05
1.4325e-05
1.68001e-05
2.06558e-05
2.59409e-05
3.2869e-05
4.17507e-05
5.2959e-05
6.69319e-05
8.41818e-05
0.000105304
0.000130984
0.000162012
0.000199295
0.000243887
0.000297031
0.000360225
0.000435331
0.000524744
0.000631662
0.000760448
0.000916903
0.00110711
0.00132816
0.00153025
1.29589e-05
1.39674e-05
1.63616e-05
2.01025e-05
2.52356e-05
3.19666e-05
4.05966e-05
5.14875e-05
6.50636e-05
8.18203e-05
0.000102332
0.000127259
0.000157355
0.00019348
0.000236621
0.000287916
0.0003487
0.000420556
0.000505393
0.000605499
0.00072345
0.000861381
0.00101803
0.00117903
0.00129387
1.25017e-05
1.34634e-05
1.57531e-05
1.93409e-05
2.42694e-05
3.07343e-05
3.90241e-05
4.94856e-05
6.25247e-05
7.86147e-05
9.83023e-05
0.000122212
0.000151053
0.000185622
0.000226817
0.000275643
0.000333225
0.000400804
0.00047971
0.000571217
0.000676106
0.000793425
0.000917328
0.0010302
0.00109237
1.18737e-05
1.27788e-05
1.49363e-05
1.83253e-05
2.29858e-05
2.9101e-05
3.6943e-05
4.6839e-05
5.91711e-05
7.43836e-05
9.29876e-05
0.000115563
0.00014276
0.000175299
0.000213968
0.000259611
0.000313108
0.000375318
0.000446959
0.000528323
0.000618672
0.000714953
0.000809358
0.00088559
0.000916037
1.10393e-05
1.18749e-05
1.3867e-05
1.70021e-05
2.13177e-05
2.69821e-05
3.42462e-05
4.34123e-05
5.48323e-05
6.89139e-05
8.61236e-05
0.000106986
0.00013208
0.000162035
0.00019751
0.000239172
0.00028764
0.000343386
0.000406554
0.000476625
0.000551801
0.000627997
0.000697359
0.000746839
0.000758645
9.95947e-06
1.07095e-05
1.24965e-05
1.53122e-05
1.91916e-05
2.4285e-05
3.0817e-05
3.90584e-05
4.93235e-05
6.19749e-05
7.74246e-05
9.6131e-05
0.000118592
0.000145329
0.000176868
0.000213689
0.000256159
0.000304407
0.000358119
0.000416221
0.000476386
0.000534392
0.000583456
0.000614084
0.000615442
8.66637e-06
9.31798e-06
1.08668e-05
1.33084e-05
1.66745e-05
2.10952e-05
2.67645e-05
3.39165e-05
4.28221e-05
5.37924e-05
6.71783e-05
8.33655e-05
0.000102764
0.000125792
0.000152842
0.000184232
0.000220127
0.00026041
0.000304496
0.000351074
0.00039777
0.000440811
0.00047485
0.000493299
0.000489646
7.05124e-06
7.58275e-06
8.83984e-06
1.0821e-05
1.35538e-05
1.71435e-05
2.17472e-05
2.75541e-05
3.47825e-05
4.3682e-05
5.45315e-05
6.76335e-05
8.33025e-05
0.000101845
0.000123529
0.000148529
0.000176856
0.000208241
0.000241991
0.000276808
0.000310608
0.000340402
0.00036238
0.000372361
0.000366736
4.81012e-06
5.17541e-06
6.03268e-06
7.38192e-06
9.24338e-06
1.1689e-05
1.48253e-05
1.87806e-05
2.37027e-05
2.97592e-05
3.71357e-05
4.60304e-05
5.66438e-05
6.91618e-05
8.37288e-05
0.000100408
0.000119124
0.000139586
0.0001612
0.000182974
0.00020345
0.000220719
0.000232559
0.00023677
0.000231687
1.76088e-06
1.89696e-06
2.21303e-06
2.70917e-06
3.39342e-06
4.29245e-06
5.44552e-06
6.89982e-06
8.70961e-06
1.09362e-05
1.3647e-05
1.69133e-05
2.08052e-05
2.53852e-05
3.06962e-05
3.6746e-05
4.34847e-05
5.07781e-05
5.83779e-05
6.58967e-05
7.27984e-05
7.8419e-05
8.20338e-05
8.29762e-05
8.07934e-05
)
;

boundaryField
{
    top
    {
        type            fixedValue;
        value           uniform 0;
    }
    inlet
    {
        type            zeroGradient;
    }
    outlet
    {
        type            fixedValue;
        value           uniform 0;
    }
    plate
    {
        type            zeroGradient;
    }
    symmBound
    {
        type            zeroGradient;
    }
    frontAndBack
    {
        type            empty;
    }
}


// ************************************************************************* //
