/*--------------------------------*- C++ -*----------------------------------*\
| =========                 |                                                 |
| \\      /  F ield         | OpenFOAM: The Open Source CFD Toolbox           |
|  \\    /   O peration     | Version:  2.3.0                                 |
|   \\  /    A nd           | Web:      www.OpenFOAM.org                      |
|    \\/     M anipulation  |                                                 |
\*---------------------------------------------------------------------------*/
FoamFile
{
    version     2.0;
    format      ascii;
    class       surfaceScalarField;
    location    "0.5";
    object      phi;
}
// * * * * * * * * * * * * * * * * * * * * * * * * * * * * * * * * * * * * * //

dimensions      [0 3 -1 0 0 0 0];

internalField   nonuniform List<scalar> 
2863
(
2.80641e-08
2.92466e-09
-3.09888e-08
2.51571e-08
2.90702e-09
2.24275e-08
2.72959e-09
1.99106e-08
2.51688e-09
1.76245e-08
2.28617e-09
1.55813e-08
2.04315e-09
1.37847e-08
1.79658e-09
1.22299e-08
1.55479e-09
1.0905e-08
1.32494e-09
9.79204e-09
1.11297e-09
8.86871e-09
9.23335e-10
8.11006e-09
7.58647e-10
7.4904e-09
6.19656e-10
6.98496e-09
5.0544e-10
6.57116e-09
4.13804e-10
6.2294e-09
3.41761e-10
5.9434e-09
2.85994e-10
5.70017e-09
2.43239e-10
5.48962e-09
2.1054e-10
5.30423e-09
1.85395e-10
5.13844e-09
1.65793e-10
4.98824e-09
1.50192e-10
4.85079e-09
1.37457e-10
4.72401e-09
1.26778e-10
4.60641e-09
1.17599e-10
4.49686e-09
1.09545e-10
4.3945e-09
1.02368e-10
4.29859e-09
9.59019e-11
4.20856e-09
9.00381e-11
4.12386e-09
8.46992e-11
4.04403e-09
7.9828e-11
3.96865e-09
7.53788e-11
3.89734e-09
7.13122e-11
3.82975e-09
6.7593e-11
3.76556e-09
6.41887e-11
3.70449e-09
6.10692e-11
3.64628e-09
5.82063e-11
3.59071e-09
5.5574e-11
3.53756e-09
5.31486e-11
3.48665e-09
5.09081e-11
3.43782e-09
4.88331e-11
3.39091e-09
4.69059e-11
3.3458e-09
4.51106e-11
3.30237e-09
4.34333e-11
3.26051e-09
4.18613e-11
3.22012e-09
4.03837e-11
3.18113e-09
3.89906e-11
3.14346e-09
3.76732e-11
3.10704e-09
3.64237e-11
3.0718e-09
3.52354e-11
3.0377e-09
3.41018e-11
3.00468e-09
3.30176e-11
2.9727e-09
3.19777e-11
2.94173e-09
3.09777e-11
2.91171e-09
3.00133e-11
2.88263e-09
2.90809e-11
2.85445e-09
2.81771e-11
2.82716e-09
2.72987e-11
2.80071e-09
2.6443e-11
2.7751e-09
2.56072e-11
2.75032e-09
2.47889e-11
2.72633e-09
2.3986e-11
2.70313e-09
2.31962e-11
2.68072e-09
2.24177e-11
2.65907e-09
2.16487e-11
2.63818e-09
2.08876e-11
2.61805e-09
2.01329e-11
2.59866e-09
1.93833e-11
2.58003e-09
1.86375e-11
2.56213e-09
1.78945e-11
2.54498e-09
1.71533e-11
2.52857e-09
1.64131e-11
2.51289e-09
1.56732e-11
2.49796e-09
1.49331e-11
2.48377e-09
1.41925e-11
2.47032e-09
1.3451e-11
2.45761e-09
1.27088e-11
2.44564e-09
1.1966e-11
2.43442e-09
1.12233e-11
2.42394e-09
1.04814e-11
2.41419e-09
9.7416e-12
2.40519e-09
9.00562e-12
2.39691e-09
8.27536e-12
2.38936e-09
7.55279e-12
2.38252e-09
6.83957e-12
2.37638e-09
6.13662e-12
2.37094e-09
5.44366e-12
2.36618e-09
4.75895e-12
2.3621e-09
4.07963e-12
2.3587e-09
3.40262e-12
2.35597e-09
2.72695e-12
2.35391e-09
2.05732e-12
2.35251e-09
1.40739e-12
2.3517e-09
8.04069e-13
2.35141e-09
2.98208e-13
2.35143e-09
-2.62181e-14
2.35157e-09
-1.35202e-13
2.35158e-09
-1.7183e-14
2.35115e-09
4.37927e-13
3.34926e-12
3.5982e-08
3.21768e-09
-3.6275e-08
3.53617e-08
3.52734e-09
3.44949e-08
3.59634e-09
3.346e-08
3.55186e-09
3.23139e-08
3.43219e-09
3.11045e-08
3.25257e-09
2.98708e-08
3.03027e-09
2.86433e-08
2.78235e-09
2.74446e-08
2.5236e-09
2.62912e-08
2.26639e-09
2.51939e-08
2.02061e-09
2.41592e-08
1.79339e-09
2.31898e-08
1.58899e-09
2.22862e-08
1.40911e-09
2.14466e-08
1.2534e-09
2.06682e-08
1.12011e-09
1.99475e-08
1.00668e-09
1.92805e-08
9.10241e-10
1.86631e-08
8.27979e-10
1.80911e-08
7.57349e-10
1.75607e-08
6.9618e-10
1.70682e-08
6.42701e-10
1.66102e-08
5.95506e-10
1.61835e-08
5.53506e-10
1.57852e-08
5.15862e-10
1.54128e-08
4.81934e-10
1.5064e-08
4.51222e-10
1.47365e-08
4.23334e-10
1.44286e-08
3.97952e-10
1.41385e-08
3.74811e-10
1.38646e-08
3.53683e-10
1.36057e-08
3.3437e-10
1.33603e-08
3.16694e-10
1.31274e-08
3.00496e-10
1.29059e-08
2.85631e-10
1.2695e-08
2.71968e-10
1.24938e-08
2.59386e-10
1.23016e-08
2.47778e-10
1.21177e-08
2.37046e-10
1.19415e-08
2.27102e-10
1.17725e-08
2.17866e-10
1.16102e-08
2.09266e-10
1.1454e-08
2.0124e-10
1.13037e-08
1.93729e-10
1.11589e-08
1.86682e-10
1.10192e-08
1.80055e-10
1.08844e-08
1.73804e-10
1.07542e-08
1.67894e-10
1.06283e-08
1.62292e-10
1.05066e-08
1.56967e-10
1.03888e-08
1.51892e-10
1.02748e-08
1.47043e-10
1.01644e-08
1.42399e-10
1.00574e-08
1.37938e-10
9.95378e-09
1.33641e-10
9.85337e-09
1.29493e-10
9.75607e-09
1.25478e-10
9.66179e-09
1.2158e-10
9.57044e-09
1.17788e-10
9.48196e-09
1.14088e-10
9.39628e-09
1.10469e-10
9.31335e-09
1.06921e-10
9.23311e-09
1.03433e-10
9.15553e-09
9.99975e-11
9.08057e-09
9.66052e-11
9.00821e-09
9.32485e-11
8.93842e-09
8.99205e-11
8.87119e-09
8.66146e-11
8.80651e-09
8.3325e-11
8.74435e-09
8.00465e-11
8.68473e-09
7.67746e-11
8.62764e-09
7.35054e-11
8.57308e-09
7.02357e-11
8.52105e-09
6.69629e-11
8.47155e-09
6.36854e-11
8.4246e-09
6.04022e-11
8.3802e-09
5.71135e-11
8.33834e-09
5.38202e-11
8.29904e-09
5.05248e-11
8.26229e-09
4.72309e-11
8.22809e-09
4.39435e-11
8.19643e-09
4.06687e-11
8.16729e-09
3.74135e-11
8.14066e-09
3.41852e-11
8.11651e-09
3.09901e-11
8.09481e-09
2.78331e-11
8.07554e-09
2.47168e-11
8.05865e-09
2.16421e-11
8.04412e-09
1.86102e-11
8.0319e-09
1.56266e-11
8.02192e-09
1.27073e-11
8.01409e-09
9.88675e-12
8.00827e-09
7.22375e-12
8.00427e-09
4.80367e-12
8.00183e-09
2.74337e-12
8.00059e-09
1.2159e-12
8.00004e-09
4.11117e-13
7.99957e-09
4.50385e-13
7.9982e-09
1.80935e-12
8.12981e-12
4.0654e-08
3.05632e-09
-4.04926e-08
4.07311e-08
3.45018e-09
4.06791e-08
3.6484e-09
4.04996e-08
3.73137e-09
4.02004e-08
3.73132e-09
3.9794e-08
3.659e-09
3.9297e-08
3.52733e-09
3.87273e-08
3.35201e-09
3.81026e-08
3.14833e-09
3.74389e-08
2.93003e-09
3.67506e-08
2.7089e-09
3.60497e-08
2.49431e-09
3.53459e-08
2.29285e-09
3.46465e-08
2.10842e-09
3.39573e-08
1.94263e-09
3.32821e-08
1.79536e-09
3.26234e-08
1.66535e-09
3.19829e-08
1.55069e-09
3.13617e-08
1.44927e-09
3.076e-08
1.35905e-09
3.0178e-08
1.27817e-09
2.96156e-08
1.20511e-09
2.90725e-08
1.13859e-09
2.85483e-08
1.07763e-09
2.80427e-08
1.02146e-09
2.75552e-08
9.69486e-10
2.70852e-08
9.21248e-10
2.66321e-08
8.76381e-10
2.61955e-08
8.34588e-10
2.57747e-08
7.9562e-10
2.53691e-08
7.5926e-10
2.49782e-08
7.25314e-10
2.46012e-08
6.93606e-10
2.42378e-08
6.6397e-10
2.38871e-08
6.36256e-10
2.35488e-08
6.10318e-10
2.32222e-08
5.86022e-10
2.29067e-08
5.63242e-10
2.26019e-08
5.4186e-10
2.23072e-08
5.21766e-10
2.20222e-08
5.02859e-10
2.17464e-08
4.85042e-10
2.14795e-08
4.68227e-10
2.12209e-08
4.52334e-10
2.09703e-08
4.37287e-10
2.07273e-08
4.23015e-10
2.04916e-08
4.09454e-10
2.0263e-08
3.96545e-10
2.0041e-08
3.84232e-10
1.98256e-08
3.72464e-10
1.96163e-08
3.61193e-10
1.94129e-08
3.50375e-10
1.92154e-08
3.39968e-10
1.90234e-08
3.29936e-10
1.88368e-08
3.20241e-10
1.86554e-08
3.10851e-10
1.84791e-08
3.01733e-10
1.83079e-08
2.9286e-10
1.81414e-08
2.84203e-10
1.79798e-08
2.75736e-10
1.78228e-08
2.67436e-10
1.76705e-08
2.59279e-10
1.75227e-08
2.51245e-10
1.73793e-08
2.43313e-10
1.72405e-08
2.35465e-10
1.7106e-08
2.27684e-10
1.6976e-08
2.19953e-10
1.68504e-08
2.12257e-10
1.67291e-08
2.04584e-10
1.66122e-08
1.96921e-10
1.64998e-08
1.89258e-10
1.63917e-08
1.81585e-10
1.6288e-08
1.73896e-10
1.61888e-08
1.66183e-10
1.6094e-08
1.58443e-10
1.60038e-08
1.50674e-10
1.5918e-08
1.42877e-10
1.58368e-08
1.35053e-10
1.57601e-08
1.27207e-10
1.5688e-08
1.19349e-10
1.56204e-08
1.11488e-10
1.55575e-08
1.03639e-10
1.54991e-08
9.58152e-11
1.54452e-08
8.80346e-11
1.53959e-08
8.03132e-11
1.5351e-08
7.26665e-11
1.53107e-08
6.51092e-11
1.52746e-08
5.76573e-11
1.52429e-08
5.03322e-11
1.52154e-08
4.31685e-11
1.51919e-08
3.62243e-11
1.51722e-08
2.95919e-11
1.5156e-08
2.34035e-11
1.5143e-08
1.78245e-11
1.51327e-08
1.30297e-11
1.51247e-08
9.18947e-12
1.51186e-08
6.49043e-12
1.51138e-08
5.27244e-12
1.51089e-08
6.67774e-12
1.54694e-11
4.51604e-08
2.85588e-09
-4.49599e-08
4.53764e-08
3.23418e-09
4.55561e-08
3.4686e-09
4.56839e-08
3.60365e-09
4.57504e-08
3.66477e-09
4.5749e-08
3.66038e-09
4.56777e-08
3.59861e-09
4.55389e-08
3.49084e-09
4.53378e-08
3.3494e-09
4.50818e-08
3.1861e-09
4.47791e-08
3.01161e-09
4.44384e-08
2.835e-09
4.4068e-08
2.66325e-09
4.36753e-08
2.50111e-09
4.32666e-08
2.35132e-09
4.2847e-08
2.21492e-09
4.24206e-08
2.09175e-09
4.19904e-08
1.98088e-09
4.15587e-08
1.88097e-09
4.11272e-08
1.79056e-09
4.06971e-08
1.70827e-09
4.02694e-08
1.63284e-09
3.98447e-08
1.56324e-09
3.94238e-08
1.49862e-09
3.90069e-08
1.43831e-09
3.85946e-08
1.38181e-09
3.81871e-08
1.32871e-09
3.77848e-08
1.2787e-09
3.73879e-08
1.23151e-09
3.69965e-08
1.18695e-09
3.6611e-08
1.14482e-09
3.62313e-08
1.10497e-09
3.58577e-08
1.06726e-09
3.54901e-08
1.03154e-09
3.51287e-08
9.97699e-10
3.47734e-08
9.65603e-10
3.44243e-08
9.35142e-10
3.40813e-08
9.06205e-10
3.37445e-08
8.78691e-10
3.34137e-08
8.525e-10
3.3089e-08
8.2754e-10
3.27704e-08
8.03726e-10
3.24576e-08
7.80973e-10
3.21507e-08
7.59207e-10
3.18497e-08
7.38353e-10
3.15543e-08
7.18345e-10
3.12647e-08
6.99119e-10
3.09806e-08
6.80613e-10
3.07021e-08
6.62773e-10
3.0429e-08
6.45543e-10
3.01613e-08
6.28873e-10
2.9899e-08
6.12716e-10
2.96419e-08
5.97026e-10
2.93901e-08
5.8176e-10
2.91435e-08
5.66876e-10
2.8902e-08
5.52334e-10
2.86656e-08
5.38099e-10
2.84343e-08
5.24133e-10
2.82081e-08
5.10401e-10
2.7987e-08
4.96872e-10
2.77709e-08
4.83512e-10
2.75599e-08
4.70293e-10
2.7354e-08
4.57185e-10
2.71531e-08
4.4416e-10
2.69574e-08
4.31192e-10
2.67668e-08
4.18257e-10
2.65814e-08
4.0533e-10
2.64013e-08
3.92392e-10
2.62265e-08
3.79421e-10
2.6057e-08
3.66399e-10
2.58929e-08
3.53312e-10
2.57344e-08
3.40144e-10
2.55814e-08
3.26884e-10
2.54341e-08
3.13524e-10
2.52924e-08
3.00058e-10
2.51566e-08
2.86484e-10
2.50267e-08
2.72803e-10
2.49027e-08
2.5902e-10
2.47848e-08
2.45145e-10
2.4673e-08
2.31191e-10
2.45673e-08
2.17179e-10
2.44678e-08
2.03132e-10
2.43745e-08
1.89076e-10
2.42875e-08
1.75041e-10
2.42068e-08
1.61061e-10
2.41323e-08
1.47169e-10
2.4064e-08
1.33403e-10
2.40018e-08
1.19809e-10
2.39457e-08
1.06444e-10
2.38955e-08
9.33895e-11
2.38509e-08
8.07624e-11
2.38118e-08
6.87223e-11
2.37777e-08
5.7474e-11
2.37483e-08
4.72536e-11
2.3723e-08
3.83017e-11
2.37014e-08
3.08455e-11
2.36828e-08
2.51206e-11
2.36665e-08
2.15396e-11
2.36517e-08
2.14742e-11
2.9583e-11
5.00484e-08
2.68529e-09
-4.98779e-08
5.02617e-08
3.02097e-09
5.04756e-08
3.25461e-09
5.06739e-08
3.40534e-09
5.08474e-08
3.49135e-09
5.09871e-08
3.52068e-09
5.10862e-08
3.49946e-09
5.11411e-08
3.43598e-09
5.11507e-08
3.33978e-09
5.11165e-08
3.22036e-09
5.10415e-08
3.08657e-09
5.09303e-08
2.94619e-09
5.0788e-08
2.80556e-09
5.06197e-08
2.66938e-09
5.04303e-08
2.54072e-09
5.0224e-08
2.42123e-09
5.00043e-08
2.31147e-09
4.9774e-08
2.21121e-09
4.95352e-08
2.11975e-09
4.92896e-08
2.03616e-09
4.90384e-08
1.95946e-09
4.87825e-08
1.88871e-09
4.85227e-08
1.82308e-09
4.82595e-08
1.76187e-09
4.79933e-08
1.70451e-09
4.77245e-08
1.65056e-09
4.74536e-08
1.59966e-09
4.71808e-08
1.55151e-09
4.69064e-08
1.50589e-09
4.66307e-08
1.4626e-09
4.63541e-08
1.42149e-09
4.60766e-08
1.38241e-09
4.57987e-08
1.34523e-09
4.55204e-08
1.30982e-09
4.5242e-08
1.27608e-09
4.49637e-08
1.2439e-09
4.46857e-08
1.21317e-09
4.44081e-08
1.18379e-09
4.41311e-08
1.15567e-09
4.38549e-08
1.12873e-09
4.35795e-08
1.10287e-09
4.33052e-08
1.07803e-09
4.30321e-08
1.05411e-09
4.27603e-08
1.03105e-09
4.24898e-08
1.00878e-09
4.2221e-08
9.87232e-10
4.19537e-08
9.66353e-10
4.16883e-08
9.46082e-10
4.14247e-08
9.26363e-10
4.11631e-08
9.07144e-10
4.09036e-08
8.88375e-10
4.06463e-08
8.70008e-10
4.03913e-08
8.51999e-10
4.01388e-08
8.34302e-10
3.98888e-08
8.16875e-10
3.96414e-08
7.99678e-10
3.93968e-08
7.8267e-10
3.91552e-08
7.65814e-10
3.89165e-08
7.49072e-10
3.86809e-08
7.32408e-10
3.84487e-08
7.15787e-10
3.82198e-08
6.99174e-10
3.79944e-08
6.82538e-10
3.77728e-08
6.65845e-10
3.75549e-08
6.49065e-10
3.7341e-08
6.32169e-10
3.71312e-08
6.1513e-10
3.69256e-08
5.97922e-10
3.67245e-08
5.8052e-10
3.6528e-08
5.62902e-10
3.63363e-08
5.4505e-10
3.61495e-08
5.26947e-10
3.59678e-08
5.08578e-10
3.57914e-08
4.89936e-10
3.56204e-08
4.71013e-10
3.54551e-08
4.51809e-10
3.52956e-08
4.32328e-10
3.5142e-08
4.12579e-10
3.49946e-08
3.92579e-10
3.48534e-08
3.72349e-10
3.47187e-08
3.51919e-10
3.45905e-08
3.31324e-10
3.4469e-08
3.10605e-10
3.43542e-08
2.89812e-10
3.42463e-08
2.68996e-10
3.41452e-08
2.48219e-10
3.40511e-08
2.27548e-10
3.39638e-08
2.07067e-10
3.38834e-08
1.86881e-10
3.38096e-08
1.67128e-10
3.37424e-08
1.47986e-10
3.36815e-08
1.29683e-10
3.36264e-08
1.12489e-10
3.3577e-08
9.67006e-11
3.35327e-08
8.26121e-11
3.3493e-08
7.05004e-11
3.34575e-08
6.06445e-11
3.34256e-08
5.34862e-11
3.33968e-08
5.02122e-11
5.35779e-11
5.54435e-08
2.54664e-09
-5.53048e-08
5.56285e-08
2.83593e-09
5.58283e-08
3.0549e-09
5.60261e-08
3.20747e-09
5.62134e-08
3.30407e-09
5.63826e-08
3.35143e-09
5.65275e-08
3.35462e-09
5.66435e-08
3.3199e-09
5.67286e-08
3.2547e-09
5.67823e-08
3.16669e-09
5.68057e-08
3.06315e-09
5.68012e-08
2.95066e-09
5.67721e-08
2.83476e-09
5.67216e-08
2.71979e-09
5.66535e-08
2.60884e-09
5.65709e-08
2.50387e-09
5.64765e-08
2.40587e-09
5.63726e-08
2.31512e-09
5.62609e-08
2.23142e-09
5.61428e-08
2.15428e-09
5.60191e-08
2.08309e-09
5.58907e-08
2.01716e-09
5.57579e-08
1.9559e-09
5.5621e-08
1.89873e-09
5.54803e-08
1.84518e-09
5.5336e-08
1.79487e-09
5.51882e-08
1.74746e-09
5.50371e-08
1.70268e-09
5.48826e-08
1.66032e-09
5.4725e-08
1.62019e-09
5.45644e-08
1.58213e-09
5.44008e-08
1.54598e-09
5.42344e-08
1.51163e-09
5.40653e-08
1.47895e-09
5.38935e-08
1.44783e-09
5.37193e-08
1.41816e-09
5.35426e-08
1.38983e-09
5.33637e-08
1.36275e-09
5.31825e-08
1.33683e-09
5.29993e-08
1.31197e-09
5.2814e-08
1.28809e-09
5.2627e-08
1.26511e-09
5.24381e-08
1.24296e-09
5.22476e-08
1.22155e-09
5.20556e-08
1.20081e-09
5.18621e-08
1.18069e-09
5.16673e-08
1.16112e-09
5.14714e-08
1.14203e-09
5.12744e-08
1.12337e-09
5.10765e-08
1.10508e-09
5.08777e-08
1.08711e-09
5.06783e-08
1.06941e-09
5.04784e-08
1.05193e-09
5.02781e-08
1.03461e-09
5.00775e-08
1.01742e-09
4.98769e-08
1.00031e-09
4.96763e-08
9.83237e-10
4.9476e-08
9.66151e-10
4.92761e-08
9.49013e-10
4.90767e-08
9.31781e-10
4.88781e-08
9.14415e-10
4.86804e-08
8.96876e-10
4.84838e-08
8.79123e-10
4.82885e-08
8.61121e-10
4.80947e-08
8.42832e-10
4.79027e-08
8.2422e-10
4.77126e-08
8.05254e-10
4.75246e-08
7.85901e-10
4.7339e-08
7.66131e-10
4.71559e-08
7.45918e-10
4.69758e-08
7.25238e-10
4.67986e-08
7.04071e-10
4.66248e-08
6.824e-10
4.64545e-08
6.60213e-10
4.6288e-08
6.37503e-10
4.61256e-08
6.1427e-10
4.59674e-08
5.90519e-10
4.58137e-08
5.66263e-10
4.56648e-08
5.41524e-10
4.55208e-08
5.16329e-10
4.5382e-08
4.90719e-10
4.52486e-08
4.6474e-10
4.51207e-08
4.38447e-10
4.49986e-08
4.11908e-10
4.48824e-08
3.85197e-10
4.47722e-08
3.58401e-10
4.46682e-08
3.31622e-10
4.45703e-08
3.04985e-10
4.44785e-08
2.78641e-10
4.43928e-08
2.52783e-10
4.43132e-08
2.27645e-10
4.42394e-08
2.03514e-10
4.41711e-08
1.80712e-10
4.41082e-08
1.59582e-10
4.40504e-08
1.40456e-10
4.39973e-08
1.2364e-10
4.39485e-08
1.09424e-10
4.39038e-08
9.8172e-11
4.38635e-08
9.0477e-11
8.62741e-11
6.14085e-08
2.43318e-09
-6.1295e-08
6.15641e-08
2.68031e-09
6.17395e-08
2.87952e-09
6.19193e-08
3.0277e-09
6.20944e-08
3.12893e-09
6.22582e-08
3.18764e-09
6.24051e-08
3.20776e-09
6.2531e-08
3.19399e-09
6.26336e-08
3.15202e-09
6.27124e-08
3.08797e-09
6.27677e-08
3.00781e-09
6.28013e-08
2.91708e-09
6.28154e-08
2.82061e-09
6.28129e-08
2.72235e-09
6.27964e-08
2.62529e-09
6.27687e-08
2.53155e-09
6.27322e-08
2.44243e-09
6.26887e-08
2.35861e-09
6.26398e-08
2.28029e-09
6.25867e-08
2.20736e-09
6.25303e-08
2.13954e-09
6.2471e-08
2.07643e-09
6.24093e-08
2.0176e-09
6.23454e-08
1.96267e-09
6.22793e-08
1.91124e-09
6.22112e-08
1.863e-09
6.2141e-08
1.81767e-09
6.20687e-08
1.77499e-09
6.19942e-08
1.73476e-09
6.19176e-08
1.69679e-09
6.18388e-08
1.66092e-09
6.17578e-08
1.62701e-09
6.16745e-08
1.59492e-09
6.1589e-08
1.56452e-09
6.15011e-08
1.5357e-09
6.14109e-08
1.50834e-09
6.13184e-08
1.48234e-09
6.12236e-08
1.45759e-09
6.11264e-08
1.43399e-09
6.10269e-08
1.41146e-09
6.09251e-08
1.3899e-09
6.0821e-08
1.36922e-09
6.07146e-08
1.34935e-09
6.06059e-08
1.3302e-09
6.04951e-08
1.31169e-09
6.0382e-08
1.29376e-09
6.02668e-08
1.27634e-09
6.01494e-08
1.25936e-09
6.003e-08
1.24276e-09
5.99086e-08
1.22647e-09
5.97853e-08
1.21043e-09
5.96601e-08
1.19459e-09
5.95332e-08
1.17889e-09
5.94045e-08
1.16328e-09
5.92742e-08
1.14769e-09
5.91425e-08
1.13209e-09
5.90093e-08
1.11642e-09
5.88748e-08
1.10062e-09
5.87392e-08
1.08465e-09
5.86025e-08
1.06846e-09
5.84649e-08
1.052e-09
5.83266e-08
1.03523e-09
5.81876e-08
1.01808e-09
5.80482e-08
1.00053e-09
5.79085e-08
9.8252e-10
5.77687e-08
9.64013e-10
5.7629e-08
9.44966e-10
5.74896e-08
9.25339e-10
5.73506e-08
9.05095e-10
5.72123e-08
8.84201e-10
5.70749e-08
8.62625e-10
5.69386e-08
8.4034e-10
5.68037e-08
8.17324e-10
5.66704e-08
7.9356e-10
5.65388e-08
7.69038e-10
5.64094e-08
7.43754e-10
5.62822e-08
7.17712e-10
5.61575e-08
6.90925e-10
5.60356e-08
6.63416e-10
5.59167e-08
6.35217e-10
5.58011e-08
6.06372e-10
5.56889e-08
5.76937e-10
5.55803e-08
5.46979e-10
5.54757e-08
5.16578e-10
5.5375e-08
4.85828e-10
5.52786e-08
4.54839e-10
5.51865e-08
4.23742e-10
5.50988e-08
3.92697e-10
5.50155e-08
3.61896e-10
5.49367e-08
3.31572e-10
5.48624e-08
3.02005e-10
5.47924e-08
2.73522e-10
5.47266e-08
2.46479e-10
5.46649e-08
2.21246e-10
5.46072e-08
1.98177e-10
5.45533e-08
1.77585e-10
5.4503e-08
1.59736e-10
5.44563e-08
1.44832e-10
5.4414e-08
1.32786e-10
1.21575e-10
6.80024e-08
2.34003e-09
-6.79093e-08
6.81308e-08
2.5519e-09
6.82797e-08
2.73068e-09
6.84362e-08
2.87114e-09
6.85918e-08
2.97339e-09
6.87399e-08
3.03949e-09
6.88756e-08
3.0721e-09
6.8995e-08
3.07459e-09
6.90958e-08
3.05118e-09
6.91772e-08
3.00661e-09
6.92393e-08
2.94571e-09
6.92833e-08
2.87307e-09
6.9311e-08
2.79285e-09
6.93248e-08
2.70861e-09
6.93269e-08
2.6232e-09
6.93196e-08
2.53878e-09
6.93052e-08
2.45687e-09
6.92854e-08
2.37845e-09
6.92616e-08
2.30406e-09
6.9235e-08
2.23391e-09
6.92066e-08
2.16801e-09
6.91768e-08
2.10622e-09
6.91461e-08
2.04832e-09
6.91147e-08
1.99406e-09
6.90827e-08
1.94319e-09
6.90503e-08
1.89544e-09
6.90173e-08
1.85061e-09
6.89839e-08
1.80847e-09
6.89498e-08
1.76884e-09
6.8915e-08
1.73154e-09
6.88795e-08
1.69642e-09
6.88432e-08
1.66333e-09
6.8806e-08
1.63213e-09
6.87678e-08
1.6027e-09
6.87286e-08
1.57492e-09
6.86883e-08
1.54867e-09
6.86468e-08
1.52383e-09
6.86041e-08
1.50032e-09
6.85601e-08
1.47801e-09
6.85147e-08
1.45682e-09
6.84679e-08
1.43665e-09
6.84197e-08
1.41741e-09
6.83701e-08
1.39902e-09
6.83189e-08
1.38139e-09
6.82661e-08
1.36443e-09
6.82118e-08
1.34808e-09
6.81559e-08
1.33226e-09
6.80984e-08
1.3169e-09
6.80392e-08
1.30192e-09
6.79784e-08
1.28727e-09
6.7916e-08
1.27287e-09
6.78519e-08
1.25866e-09
6.77862e-08
1.24459e-09
6.77189e-08
1.23058e-09
6.765e-08
1.21659e-09
6.75795e-08
1.20254e-09
6.75076e-08
1.18839e-09
6.74341e-08
1.17407e-09
6.73592e-08
1.15953e-09
6.7283e-08
1.14472e-09
6.72054e-08
1.12956e-09
6.71266e-08
1.11402e-09
6.70467e-08
1.09803e-09
6.69657e-08
1.08155e-09
6.68837e-08
1.06451e-09
6.68008e-08
1.04687e-09
6.67172e-08
1.02858e-09
6.66329e-08
1.00959e-09
6.65482e-08
9.89856e-10
6.6463e-08
9.69333e-10
6.63777e-08
9.47984e-10
6.62923e-08
9.25774e-10
6.62069e-08
9.02676e-10
6.61218e-08
8.78665e-10
6.60371e-08
8.53725e-10
6.5953e-08
8.27847e-10
6.58697e-08
8.01032e-10
6.57873e-08
7.7329e-10
6.57061e-08
7.44641e-10
6.56262e-08
7.15119e-10
6.55478e-08
6.84768e-10
6.54711e-08
6.53648e-10
6.53962e-08
6.21832e-10
6.53234e-08
5.8941e-10
6.52528e-08
5.56488e-10
6.51844e-08
5.23193e-10
6.51185e-08
4.89678e-10
6.5055e-08
4.56127e-10
6.49942e-08
4.22757e-10
6.49359e-08
3.89832e-10
6.48803e-08
3.57656e-10
6.48272e-08
3.26576e-10
6.47767e-08
2.96964e-10
6.47288e-08
2.69199e-10
6.46833e-08
2.43636e-10
6.46403e-08
2.20581e-10
6.45998e-08
2.00256e-10
6.45619e-08
1.82721e-10
6.45272e-08
1.67512e-10
1.52397e-10
6.76716e-08
2.27118e-09
-6.76028e-08
6.77661e-08
2.45744e-09
6.78774e-08
2.61937e-09
6.79968e-08
2.75172e-09
6.81175e-08
2.85275e-09
6.8234e-08
2.92291e-09
6.83424e-08
2.96376e-09
6.84393e-08
2.97764e-09
6.85228e-08
2.96769e-09
6.85918e-08
2.93758e-09
6.86463e-08
2.89121e-09
6.8687e-08
2.83243e-09
6.8715e-08
2.76484e-09
6.8732e-08
2.69162e-09
6.87397e-08
2.61546e-09
6.874e-08
2.53852e-09
6.87344e-08
2.46243e-09
6.87245e-08
2.38834e-09
6.87115e-08
2.31705e-09
6.86964e-08
2.24899e-09
6.868e-08
2.18441e-09
6.86629e-08
2.12336e-09
6.86454e-08
2.06581e-09
6.86279e-08
2.01162e-09
6.86104e-08
1.96064e-09
6.85931e-08
1.91272e-09
6.85761e-08
1.86766e-09
6.85593e-08
1.8253e-09
6.85426e-08
1.78546e-09
6.85262e-08
1.74801e-09
6.85098e-08
1.71278e-09
6.84935e-08
1.67963e-09
6.84772e-08
1.64844e-09
6.84608e-08
1.61907e-09
6.84443e-08
1.59141e-09
6.84277e-08
1.56534e-09
6.84107e-08
1.54074e-09
6.83935e-08
1.51752e-09
6.8376e-08
1.49556e-09
6.8358e-08
1.47477e-09
6.83397e-08
1.45505e-09
6.83208e-08
1.43631e-09
6.83013e-08
1.41846e-09
6.82813e-08
1.40141e-09
6.82606e-08
1.38509e-09
6.82393e-08
1.36941e-09
6.82173e-08
1.3543e-09
6.81945e-08
1.33968e-09
6.81709e-08
1.32547e-09
6.81466e-08
1.31162e-09
6.81214e-08
1.29806e-09
6.80954e-08
1.2847e-09
6.80685e-08
1.2715e-09
6.80407e-08
1.25838e-09
6.8012e-08
1.24528e-09
6.79824e-08
1.23215e-09
6.79518e-08
1.21891e-09
6.79204e-08
1.2055e-09
6.78881e-08
1.19187e-09
6.78549e-08
1.17795e-09
6.78207e-08
1.16368e-09
6.77858e-08
1.149e-09
6.77499e-08
1.13386e-09
6.77133e-08
1.11819e-09
6.76759e-08
1.10194e-09
6.76377e-08
1.08504e-09
6.75988e-08
1.06745e-09
6.75593e-08
1.04911e-09
6.75192e-08
1.02997e-09
6.74785e-08
1.00998e-09
6.74374e-08
9.89101e-10
6.73959e-08
9.67286e-10
6.73541e-08
9.44504e-10
6.7312e-08
9.20727e-10
6.72698e-08
8.95934e-10
6.72275e-08
8.70111e-10
6.71853e-08
8.43256e-10
6.71432e-08
8.15374e-10
6.71014e-08
7.86484e-10
6.70599e-08
7.56617e-10
6.70188e-08
7.25818e-10
6.69783e-08
6.94147e-10
6.69385e-08
6.61679e-10
6.68994e-08
6.28509e-10
6.68611e-08
5.9475e-10
6.68238e-08
5.60539e-10
6.67874e-08
5.26041e-10
6.67521e-08
4.91451e-10
6.67178e-08
4.57003e-10
6.66847e-08
4.22971e-10
6.66527e-08
3.89671e-10
6.66218e-08
3.57452e-10
6.65921e-08
3.26687e-10
6.65635e-08
2.97749e-10
6.65362e-08
2.70986e-10
6.65101e-08
2.46688e-10
6.64853e-08
2.25047e-10
6.64619e-08
2.06069e-10
6.64402e-08
1.89299e-10
1.73249e-10
8.54872e-08
2.2096e-09
-8.54257e-08
8.55708e-08
2.37385e-09
8.56702e-08
2.51999e-09
8.57784e-08
2.64349e-09
8.58893e-08
2.74185e-09
8.59979e-08
2.81437e-09
8.61e-08
2.8616e-09
8.61927e-08
2.88498e-09
8.62737e-08
2.88667e-09
8.63419e-08
2.86938e-09
8.6397e-08
2.83615e-09
8.64393e-08
2.79012e-09
8.64698e-08
2.73433e-09
8.64898e-08
2.6716e-09
8.65009e-08
2.60439e-09
8.65046e-08
2.53481e-09
8.65025e-08
2.46453e-09
8.6496e-08
2.39485e-09
8.64863e-08
2.32675e-09
8.64744e-08
2.26088e-09
8.64612e-08
2.19767e-09
8.64472e-08
2.13738e-09
8.64329e-08
2.08011e-09
8.64186e-08
2.02589e-09
8.64046e-08
1.97466e-09
8.63909e-08
1.92634e-09
8.63778e-08
1.88081e-09
8.63651e-08
1.83794e-09
8.6353e-08
1.7976e-09
8.63414e-08
1.75964e-09
8.63302e-08
1.72394e-09
8.63195e-08
1.69035e-09
8.63092e-08
1.65876e-09
8.62992e-08
1.62904e-09
8.62895e-08
1.60107e-09
8.62802e-08
1.57473e-09
8.6271e-08
1.54991e-09
8.6262e-08
1.52651e-09
8.62531e-08
1.50442e-09
8.62444e-08
1.48353e-09
8.62357e-08
1.46376e-09
8.6227e-08
1.44501e-09
8.62182e-08
1.42719e-09
8.62094e-08
1.41021e-09
8.62005e-08
1.39399e-09
8.61915e-08
1.37845e-09
8.61823e-08
1.36352e-09
8.61728e-08
1.3491e-09
8.61632e-08
1.33514e-09
8.61532e-08
1.32156e-09
8.6143e-08
1.30829e-09
8.61324e-08
1.29527e-09
8.61215e-08
1.28241e-09
8.61102e-08
1.26967e-09
8.60985e-08
1.25697e-09
8.60864e-08
1.24425e-09
8.60739e-08
1.23144e-09
8.60609e-08
1.21848e-09
8.60475e-08
1.20531e-09
8.60336e-08
1.19186e-09
8.60192e-08
1.17808e-09
8.60043e-08
1.16389e-09
8.59889e-08
1.14924e-09
8.5973e-08
1.13406e-09
8.59567e-08
1.1183e-09
8.59398e-08
1.10189e-09
8.59225e-08
1.08477e-09
8.59047e-08
1.06689e-09
8.58865e-08
1.0482e-09
8.58679e-08
1.02864e-09
8.58488e-08
1.00817e-09
8.58293e-08
9.86738e-10
8.58095e-08
9.64311e-10
8.57894e-08
9.40857e-10
8.5769e-08
9.16351e-10
8.57483e-08
8.90777e-10
8.57274e-08
8.64128e-10
8.57064e-08
8.36409e-10
8.56853e-08
8.07635e-10
8.5664e-08
7.77835e-10
8.56428e-08
7.47054e-10
8.56216e-08
7.15349e-10
8.56005e-08
6.82799e-10
8.55795e-08
6.49499e-10
8.55587e-08
6.15566e-10
8.55381e-08
5.81143e-10
8.55177e-08
5.46401e-10
8.54976e-08
5.11542e-10
8.54778e-08
4.76805e-10
8.54583e-08
4.42468e-10
8.54392e-08
4.08844e-10
8.54203e-08
3.76277e-10
8.54019e-08
3.45128e-10
8.53839e-08
3.15754e-10
8.53664e-08
2.88488e-10
8.53495e-08
2.63604e-10
8.53332e-08
2.41284e-10
8.53177e-08
2.21563e-10
8.53028e-08
2.04222e-10
1.88846e-10
1.08014e-07
2.16385e-09
-1.07969e-07
1.08076e-07
2.3119e-09
1.08151e-07
2.44566e-09
1.08233e-07
2.56138e-09
1.08318e-07
2.65646e-09
1.08403e-07
2.72962e-09
1.08484e-07
2.78072e-09
1.08558e-07
2.81052e-09
1.08624e-07
2.82047e-09
1.08681e-07
2.81259e-09
1.08728e-07
2.78925e-09
1.08765e-07
2.75302e-09
1.08793e-07
2.70648e-09
1.08813e-07
2.65212e-09
1.08825e-07
2.59221e-09
1.08831e-07
2.52876e-09
1.08832e-07
2.46344e-09
1.08829e-07
2.39763e-09
1.08823e-07
2.33242e-09
1.08816e-07
2.2686e-09
1.08807e-07
2.20676e-09
1.08797e-07
2.14729e-09
1.08786e-07
2.09042e-09
1.08776e-07
2.03629e-09
1.08766e-07
1.98494e-09
1.08756e-07
1.93634e-09
1.08746e-07
1.89043e-09
1.08737e-07
1.84713e-09
1.08728e-07
1.80632e-09
1.0872e-07
1.76789e-09
1.08712e-07
1.73172e-09
1.08705e-07
1.69769e-09
1.08698e-07
1.66566e-09
1.08691e-07
1.63553e-09
1.08685e-07
1.60717e-09
1.0868e-07
1.58048e-09
1.08674e-07
1.55533e-09
1.08669e-07
1.53162e-09
1.08664e-07
1.50924e-09
1.0866e-07
1.4881e-09
1.08655e-07
1.4681e-09
1.08651e-07
1.44915e-09
1.08647e-07
1.43115e-09
1.08643e-07
1.41402e-09
1.0864e-07
1.39767e-09
1.08636e-07
1.38202e-09
1.08633e-07
1.36699e-09
1.08629e-07
1.35251e-09
1.08626e-07
1.3385e-09
1.08623e-07
1.32489e-09
1.08619e-07
1.31161e-09
1.08616e-07
1.29858e-09
1.08613e-07
1.28575e-09
1.08609e-07
1.27304e-09
1.08606e-07
1.26039e-09
1.08602e-07
1.24774e-09
1.08599e-07
1.23501e-09
1.08595e-07
1.22214e-09
1.08591e-07
1.20908e-09
1.08587e-07
1.19575e-09
1.08583e-07
1.18209e-09
1.08579e-07
1.16803e-09
1.08575e-07
1.15353e-09
1.08571e-07
1.1385e-09
1.08566e-07
1.1229e-09
1.08561e-07
1.10665e-09
1.08556e-07
1.08971e-09
1.08551e-07
1.07201e-09
1.08546e-07
1.05349e-09
1.0854e-07
1.03412e-09
1.08535e-07
1.01382e-09
1.08529e-07
9.92575e-10
1.08523e-07
9.70329e-10
1.08517e-07
9.47053e-10
1.0851e-07
9.22722e-10
1.08504e-07
8.97317e-10
1.08497e-07
8.70833e-10
1.0849e-07
8.4327e-10
1.08483e-07
8.14645e-10
1.08476e-07
7.84984e-10
1.08469e-07
7.54333e-10
1.08461e-07
7.22748e-10
1.08454e-07
6.90309e-10
1.08446e-07
6.57111e-10
1.08439e-07
6.23275e-10
1.08431e-07
5.88945e-10
1.08423e-07
5.54295e-10
1.08415e-07
5.1953e-10
1.08407e-07
4.8489e-10
1.08399e-07
4.50649e-10
1.0839e-07
4.17114e-10
1.08382e-07
3.84619e-10
1.08374e-07
3.53509e-10
1.08365e-07
3.24127e-10
1.08357e-07
2.96788e-10
1.08349e-07
2.71758e-10
1.08341e-07
2.49232e-10
1.08333e-07
2.29325e-10
1.08325e-07
2.12109e-10
1.9791e-10
1.36495e-07
-1.3648e-07
1.36517e-07
1.36545e-07
1.36577e-07
1.36612e-07
1.36648e-07
1.36683e-07
1.36717e-07
1.36748e-07
1.36776e-07
1.36801e-07
1.36821e-07
1.36838e-07
1.36851e-07
1.36861e-07
1.36868e-07
1.36873e-07
1.36876e-07
1.36877e-07
1.36877e-07
1.36877e-07
1.36876e-07
1.36874e-07
1.36872e-07
1.3687e-07
1.36867e-07
1.36865e-07
1.36863e-07
1.36861e-07
1.36859e-07
1.36857e-07
1.36855e-07
1.36854e-07
1.36852e-07
1.36851e-07
1.36849e-07
1.36848e-07
1.36847e-07
1.36846e-07
1.36845e-07
1.36844e-07
1.36843e-07
1.36842e-07
1.36841e-07
1.36841e-07
1.3684e-07
1.3684e-07
1.36839e-07
1.36839e-07
1.36838e-07
1.36838e-07
1.36838e-07
1.36837e-07
1.36837e-07
1.36837e-07
1.36836e-07
1.36836e-07
1.36836e-07
1.36835e-07
1.36835e-07
1.36835e-07
1.36834e-07
1.36834e-07
1.36834e-07
1.36833e-07
1.36833e-07
1.36832e-07
1.36832e-07
1.36831e-07
1.36831e-07
1.3683e-07
1.36829e-07
1.36829e-07
1.36828e-07
1.36827e-07
1.36826e-07
1.36825e-07
1.36824e-07
1.36823e-07
1.36822e-07
1.36821e-07
1.3682e-07
1.36818e-07
1.36817e-07
1.36815e-07
1.36814e-07
1.36812e-07
1.3681e-07
1.36808e-07
1.36806e-07
1.36804e-07
1.36802e-07
1.36799e-07
1.36797e-07
1.36794e-07
1.36792e-07
1.36789e-07
1.36787e-07
1.36784e-07
3.44604e-08
2.20082e-12
3.44581e-08
4.82983e-12
3.44546e-08
8.02092e-12
3.44499e-08
1.18957e-11
3.44436e-08
1.65921e-11
3.44356e-08
2.22686e-11
3.44255e-08
2.91059e-11
3.4413e-08
3.73071e-11
3.43974e-08
4.70994e-11
3.43784e-08
5.87378e-11
3.43553e-08
7.25108e-11
3.43273e-08
8.87492e-11
3.42936e-08
1.07842e-10
3.42532e-08
1.30261e-10
3.42049e-08
1.56608e-10
3.41471e-08
1.87687e-10
3.40779e-08
2.24648e-10
3.39945e-08
2.69231e-10
3.38928e-08
3.24268e-10
3.37664e-08
3.94736e-10
3.3604e-08
4.90284e-10
3.33833e-08
6.3221e-10
3.30513e-08
8.77201e-10
3.24431e-08
1.43169e-09
3.06224e-09
3.80474e-08
3.52101e-12
3.80449e-08
7.33639e-12
3.80411e-08
1.17875e-11
3.80359e-08
1.7073e-11
3.80291e-08
2.34008e-11
3.80204e-08
3.09986e-11
3.80094e-08
4.01162e-11
3.79957e-08
5.10275e-11
3.79787e-08
6.4036e-11
3.7958e-08
7.94798e-11
3.79328e-08
9.77406e-11
3.79023e-08
1.19257e-10
3.78656e-08
1.44548e-10
3.78216e-08
1.7425e-10
3.7769e-08
2.09183e-10
3.77062e-08
2.50465e-10
3.76311e-08
2.99709e-10
3.7541e-08
3.59392e-10
3.74317e-08
4.3356e-10
3.72971e-08
5.29297e-10
3.71274e-08
6.60043e-10
3.69057e-08
8.53879e-10
3.66072e-08
1.17572e-09
3.62518e-08
1.78708e-09
3.03901e-09
4.20078e-08
4.92664e-12
4.20051e-08
1.00435e-11
4.2001e-08
1.58578e-11
4.19954e-08
2.26722e-11
4.1988e-08
3.07686e-11
4.19786e-08
4.04482e-11
4.19667e-08
5.20349e-11
4.19518e-08
6.58799e-11
4.19335e-08
8.23682e-11
4.1911e-08
1.01927e-10
4.18837e-08
1.25036e-10
4.18507e-08
1.52247e-10
4.18111e-08
1.84213e-10
4.17636e-08
2.21734e-10
4.17069e-08
2.65846e-10
4.16394e-08
3.17961e-10
4.1559e-08
3.80112e-10
4.1463e-08
4.55405e-10
4.13478e-08
5.4883e-10
4.12082e-08
6.68869e-10
4.10375e-08
8.30741e-10
4.08283e-08
1.06311e-09
4.05831e-08
1.42083e-09
4.037e-08
2.00026e-09
2.91637e-09
4.63804e-08
6.41709e-12