/*--------------------------------*- C++ -*----------------------------------*\
| =========                 |                                                 |
| \\      /  F ield         | OpenFOAM: The Open Source CFD Toolbox           |
|  \\    /   O peration     | Version:  2.3.0                                 |
|   \\  /    A nd           | Web:      www.OpenFOAM.org                      |
|    \\/     M anipulation  |                                                 |
\*---------------------------------------------------------------------------*/
FoamFile
{
    version     2.0;
    format      ascii;
    class       surfaceScalarField;
    location    "0.4";
    object      phi;
}
// * * * * * * * * * * * * * * * * * * * * * * * * * * * * * * * * * * * * * //

dimensions      [0 3 -1 0 0 0 0];

internalField   nonuniform List<scalar> 
5273
(
3.22995e-08
2.28548e-09
2.89637e-08
3.33586e-09
2.57745e-08
3.18916e-09
2.27032e-08
3.07129e-09
1.97343e-08
2.96897e-09
1.69805e-08
2.75375e-09
1.45841e-08
2.39639e-09
1.26048e-08
1.97932e-09
1.10517e-08
1.55305e-09
9.88726e-09
1.16449e-09
9.0395e-09
8.47762e-10
8.42939e-09
6.10108e-10
7.98611e-09
4.43284e-10
7.65314e-09
3.32965e-10
7.38956e-09
2.63579e-10
7.16735e-09
2.2221e-10
6.96886e-09
1.98494e-10
6.78442e-09
1.84442e-10
6.60963e-09
1.74783e-10
6.44304e-09
1.66594e-10
6.28447e-09
1.5857e-10
6.13414e-09
1.50326e-10
5.99222e-09
1.41919e-10
5.85867e-09
1.33555e-10
5.73321e-09
1.25458e-10
5.61542e-09
1.17788e-10
5.50477e-09
1.10655e-10
5.40068e-09
1.04089e-10
5.30258e-09
9.81019e-11
5.20993e-09
9.2648e-11
5.12222e-09
8.77047e-11
5.03903e-09
8.31929e-11
4.95993e-09
7.90979e-11
4.88461e-09
7.53283e-11
4.81271e-09
7.1896e-11
4.74401e-09
6.86983e-11
4.67823e-09
6.57816e-11
4.6152e-09
6.30271e-11
4.55469e-09
6.05159e-11
4.49657e-09
5.81114e-11
4.44065e-09
5.59239e-11
4.38685e-09
5.38048e-11
4.33497e-09
5.18753e-11
4.28497e-09
4.99994e-11
4.2367e-09
4.82724e-11
4.19009e-09
4.66131e-11
4.14505e-09
4.50371e-11
4.10147e-09
4.3581e-11
4.05936e-09
4.21097e-11
4.01851e-09
4.0844e-11
3.97907e-09
3.94442e-11
3.94072e-09
3.83498e-11
3.90371e-09
3.70088e-11
3.86767e-09
3.60428e-11
3.83289e-09
3.47827e-11
3.79901e-09
3.38772e-11
3.76627e-09
3.27431e-11
3.73445e-09
3.18157e-11
3.70359e-09
3.08613e-11
3.67374e-09
2.98519e-11
3.64466e-09
2.90781e-11
3.61666e-09
2.80028e-11
3.58932e-09
2.73326e-11
3.56303e-09
2.62922e-11
3.53746e-09
2.55679e-11
3.51275e-09
2.47111e-11
3.48895e-09
2.38042e-11
3.46577e-09
2.31797e-11
3.44366e-09
2.21063e-11
3.42207e-09
2.15911e-11
3.40151e-09
2.05597e-11
3.38162e-09
1.98892e-11
3.36251e-09
1.91124e-11
3.34433e-09
1.81757e-11
3.32671e-09
1.76245e-11
3.31011e-09
1.66004e-11
3.29416e-09
1.59532e-11
3.27896e-09
1.51917e-11
3.26473e-09
1.42368e-11
3.25099e-09
1.37383e-11
3.23831e-09
1.26777e-11
3.22621e-09
1.20994e-11
3.21488e-09
1.13321e-11
3.20441e-09
1.04728e-11
3.19452e-09
9.88228e-12
3.18539e-09
9.13175e-12
3.17702e-09
8.36941e-12
3.16901e-09
8.01745e-12
3.16187e-09
7.14058e-12
3.15498e-09
6.88772e-12
3.14859e-09
6.39214e-12
3.14243e-09
6.15119e-12
3.13664e-09
5.79888e-12
3.13074e-09
5.89552e-12
3.12532e-09
5.42099e-12
3.11948e-09
5.83687e-12
3.11397e-09
5.50995e-12
3.10808e-09
5.89098e-12
3.1026e-09
5.48222e-12
6.6489e-12
3.6636e-08
1.51951e-09
3.6764e-08
3.2079e-09
3.632e-08
3.63316e-09
3.56875e-08
3.70372e-09
3.48598e-08
3.79671e-09
3.38056e-08
3.80798e-09
3.25629e-08
3.63905e-09
3.12199e-08
3.32233e-09
2.98569e-08
2.91608e-09
2.85335e-08
2.48792e-09
2.72863e-08
2.09494e-09
2.61317e-08
1.76472e-09
2.50738e-08
1.50113e-09
2.41098e-08
1.29694e-09
2.32357e-08
1.13769e-09
2.24439e-08
1.01403e-09
2.17246e-08
9.17763e-10
2.10685e-08
8.40571e-10
2.04672e-08
7.76122e-10
1.99135e-08
7.20231e-10
1.94017e-08
6.70402e-10
1.89268e-08
6.25226e-10
1.84848e-08
5.83946e-10
1.80722e-08
5.46133e-10
1.76861e-08
5.1153e-10
1.7324e-08
4.79916e-10
1.69836e-08
4.51103e-10
1.66628e-08
4.24856e-10
1.63599e-08
4.00983e-10
1.60733e-08
3.79224e-10
1.58016e-08
3.59407e-10
1.55436e-08
3.41261e-10
1.5298e-08
3.24677e-10
1.50639e-08
3.09383e-10
1.48405e-08
2.95351e-10
1.46269e-08
2.82299e-10
1.44224e-08
2.70289e-10
1.42264e-08
2.59014e-10
1.40383e-08
2.48623e-10
1.38576e-08
2.38776e-10
1.36838e-08
2.29699e-10
1.35166e-08
2.21023e-10
1.33555e-08
2.13013e-10
1.32002e-08
2.05324e-10
1.30502e-08
1.98177e-10
1.29055e-08
1.91343e-10
1.27657e-08
1.84877e-10
1.26305e-08
1.78807e-10
1.24997e-08
1.72865e-10
1.23731e-08
1.67481e-10
1.22506e-08
1.6194e-10
1.21318e-08
1.57159e-10
1.20168e-08
1.51948e-10
1.19052e-08
1.47641e-10
1.17972e-08
1.4277e-10
1.16923e-08
1.38758e-10
1.15908e-08
1.34297e-10
1.14922e-08
1.30369e-10
1.13967e-08
1.26411e-10
1.13041e-08
1.22404e-10
1.12143e-08
1.18937e-10
1.11274e-08
1.14854e-10
1.10431e-08
1.11698e-10
1.09616e-08
1.07731e-10
1.08827e-08
1.04529e-10
1.08064e-08
1.00987e-10
1.07328e-08
9.74344e-11
1.06615e-08
9.44234e-11
1.05931e-08
9.05242e-11
1.05269e-08
8.77851e-11
1.04635e-08
8.3967e-11
1.04025e-08
8.09229e-11
1.03439e-08
7.76513e-11
1.02881e-08
7.40363e-11
1.02344e-08
7.12761e-11
1.01836e-08
6.74488e-11
1.0135e-08
6.45329e-11
1.00889e-08
6.12552e-11
1.00454e-08
5.7718e-11
1.00041e-08
5.5041e-11
9.96551e-09
5.13034e-11
9.92907e-09
4.8541e-11
9.89491e-09
4.54915e-11
9.86317e-09
4.2217e-11
9.83335e-09
3.97022e-11
9.80571e-09
3.67666e-11
9.77997e-09
3.41064e-11
9.75579e-09
3.22002e-11
9.73341e-09
2.95247e-11
9.71221e-09
2.80842e-11
9.69214e-09
2.64688e-11
9.67304e-09
2.52476e-11
9.65463e-09
2.42059e-11
9.63671e-09
2.38156e-11
9.6194e-09
2.27329e-11
9.60215e-09
2.3083e-11
9.58519e-09
2.24756e-11
9.56836e-09
2.27208e-11
9.5516e-09
2.22431e-11
2.37345e-11
3.77193e-08
1.00296e-09
3.83634e-08
2.56389e-09
3.87096e-08
3.28696e-09
3.89172e-08
3.49611e-09
3.90805e-08
3.63335e-09
3.91376e-08
3.7509e-09
3.9025e-08
3.75162e-09
3.87461e-08
3.60126e-09
3.83298e-08
3.33235e-09
3.78132e-08
3.00452e-09
3.72324e-08
2.67577e-09
3.6614e-08
2.38311e-09
3.59758e-08
2.13935e-09
3.53307e-08
1.94205e-09
3.46866e-08
1.78172e-09
3.40499e-08
1.65077e-09
3.34248e-08
1.54291e-09
3.28135e-08
1.45182e-09
3.22174e-08
1.37222e-09
3.16373e-08
1.30037e-09
3.10737e-08
1.23399e-09
3.05271e-08
1.1718e-09
2.99979e-08
1.11317e-09
2.94862e-08
1.05781e-09
2.89921e-08
1.0056e-09
2.85156e-08
9.56453e-10
2.80564e-08
9.10336e-10
2.76141e-08
8.67113e-10
2.71884e-08
8.26715e-10
2.67787e-08
7.88935e-10
2.63844e-08
7.53689e-10
2.60049e-08
7.20708e-10
2.56397e-08
6.89948e-10
2.5288e-08
6.61089e-10
2.49491e-08
6.34167e-10
2.46226e-08
6.08803e-10
2.43078e-08
5.85144e-10
2.40041e-08
5.62733e-10
2.37109e-08
5.41841e-10
2.34277e-08
5.21931e-10
2.3154e-08
5.03385e-10
2.28894e-08
4.85606e-10
2.26334e-08
4.69037e-10
2.23856e-08
4.53102e-10
2.21456e-08
4.3818e-10
2.19131e-08
4.23862e-10
2.16877e-08
4.10283e-10
2.14691e-08
3.97418e-10
2.1257e-08
3.84906e-10
2.10512e-08
3.73346e-10
2.08514e-08
3.6168e-10
2.06573e-08
3.51267e-10
2.0469e-08
3.40309e-10
2.02858e-08
3.30814e-10
2.0108e-08
3.20555e-10
1.99351e-08
3.11667e-10
1.97672e-08
3.02193e-10
1.9604e-08
2.93554e-10
1.94454e-08
2.84989e-10
1.92915e-08
2.7632e-10
1.91418e-08
2.68619e-10
1.89968e-08
2.59903e-10
1.88557e-08
2.52758e-10
1.87192e-08
2.44283e-10
1.85866e-08
2.37105e-10
1.84583e-08
2.29338e-10
1.83341e-08
2.21634e-10
1.82138e-08
2.14718e-10
1.80978e-08
2.06488e-10
1.79856e-08
1.99987e-10
1.78777e-08
1.91905e-10
1.77737e-08
1.84894e-10
1.76737e-08
1.77681e-10
1.75779e-08
1.6975e-10
1.74859e-08
1.63334e-10
1.73983e-08
1.55064e-10
1.73144e-08
1.48391e-10
1.72347e-08
1.4099e-10
1.7159e-08
1.33365e-10
1.70872e-08
1.26904e-10
1.70194e-08
1.19044e-10
1.69555e-08
1.12463e-10
1.68952e-08
1.05811e-10
1.68389e-08
9.85079e-11
1.67857e-08
9.285e-11
1.67363e-08
8.6236e-11
1.66898e-08
8.0583e-11
1.66462e-08
7.57652e-11
1.66053e-08
7.04118e-11
1.65669e-08
6.65055e-11
1.65302e-08
6.31774e-11
1.64957e-08
5.98073e-11
1.64622e-08
5.77105e-11
1.64302e-08
5.5776e-11
1.6399e-08
5.39379e-11
1.63689e-08
5.32018e-11
1.63389e-08
5.24e-11
1.63101e-08
5.15295e-11
1.62812e-08
5.11323e-11
5.18792e-11
3.88712e-08
7.16822e-10
3.94287e-08
2.00643e-09
3.98964e-08
2.81925e-09
4.02411e-08
3.15143e-09
4.05779e-08
3.29651e-09
4.09128e-08
3.41598e-09
4.11876e-08
3.47679e-09
4.1365e-08
3.42395e-09
4.14359e-08
3.26139e-09
4.14114e-08
3.02905e-09
4.13111e-08
2.77603e-09
4.11538e-08
2.54042e-09
4.09538e-08
2.33933e-09
4.07213e-08
2.17455e-09
4.04627e-08
2.04034e-09
4.01834e-08
1.93005e-09
3.98881e-08
1.8382e-09
3.958e-08
1.75998e-09
3.9261e-08
1.69125e-09
3.89326e-08
1.62877e-09
3.85961e-08
1.57042e-09
3.8253e-08
1.51494e-09
3.79045e-08
1.46168e-09
3.75519e-08
1.41036e-09
3.71966e-08
1.36091e-09
3.68397e-08
1.31331e-09
3.64825e-08
1.26762e-09
3.61258e-08
1.22379e-09
3.57706e-08
1.18188e-09
3.54178e-08
1.14177e-09
3.5068e-08
1.10351e-09
3.47218e-08
1.06689e-09
3.43797e-08
1.03201e-09
3.40422e-08
9.98571e-10
3.37096e-08
9.66763e-10
3.33823e-08
9.36171e-10
3.30603e-08
9.07131e-10
3.27439e-08
8.79083e-10
3.24333e-08
8.52527e-10
3.21284e-08
8.26751e-10
3.18294e-08
8.02422e-10
3.15363e-08
7.78689e-10
3.1249e-08
7.56327e-10
3.09677e-08
7.3446e-10
3.0692e-08
7.13806e-10
3.04222e-08
6.93663e-10
3.01581e-08
6.74446e-10
2.98996e-08
6.55934e-10
2.96466e-08
6.37881e-10
2.9399e-08
6.20896e-10
2.91569e-08
6.03782e-10
2.892e-08
5.88191e-10
2.86884e-08
5.71874e-10
2.84618e-08
5.57418e-10
2.82405e-08
5.4193e-10
2.80239e-08
5.2822e-10
2.78124e-08
5.13705e-10
2.76057e-08
5.00267e-10
2.74037e-08
4.86928e-10
2.72067e-08
4.73375e-10
2.70141e-08
4.61173e-10
2.68266e-08
4.47481e-10
2.66433e-08
4.36007e-10
2.6465e-08
4.22565e-10
2.62911e-08
4.11004e-10
2.6122e-08
3.98463e-10
2.59575e-08
3.86125e-10
2.57975e-08
3.74682e-10
2.56425e-08
3.61554e-10
2.54919e-08
3.50609e-10
2.53461e-08
3.37624e-10
2.52051e-08
3.25886e-10
2.50688e-08
3.14035e-10
2.49376e-08
3.00946e-10
2.48108e-08
2.90128e-10
2.46894e-08
2.76495e-10
2.45725e-08
2.65256e-10
2.44607e-08
2.52753e-10
2.43539e-08
2.40186e-10
2.42519e-08
2.28883e-10
2.4155e-08
2.16035e-10
2.40629e-08
2.04492e-10
2.39753e-08
1.93397e-10
2.3893e-08
1.80859e-10
2.38146e-08
1.71217e-10
2.37412e-08
1.59705e-10
2.36715e-08
1.50242e-10
2.3606e-08
1.41263e-10
2.35439e-08
1.32494e-10
2.34856e-08
1.24793e-10
2.34296e-08
1.19153e-10
2.33772e-08
1.12306e-10
2.33262e-08
1.08652e-10
2.32781e-08
1.03908e-10
2.32311e-08
1.00954e-10
2.31863e-08
9.79372e-11
2.3142e-08
9.6772e-11
2.30998e-08
9.36762e-11
2.30577e-08
9.32594e-11
9.21513e-11
4.01879e-08
5.47639e-10
4.06127e-08
1.58156e-09
4.10566e-08
2.37536e-09
4.14165e-08
2.7916e-09
4.17381e-08
2.97487e-09
4.2072e-08
3.0821e-09
4.23964e-08
3.15234e-09
4.26752e-08
3.14519e-09
4.28873e-08
3.04925e-09
4.3031e-08
2.88537e-09
4.31167e-08
2.69034e-09
4.31583e-08
2.49877e-09
4.3167e-08
2.33069e-09
4.31499e-08
2.19166e-09
4.31115e-08
2.07876e-09
4.30551e-08
1.98642e-09
4.29836e-08
1.90967e-09
4.2899e-08
1.84458e-09
4.28023e-08
1.78794e-09
4.2694e-08
1.73708e-09
4.25744e-08
1.69008e-09
4.24436e-08
1.64566e-09
4.23022e-08
1.60309e-09
4.21506e-08
1.56197e-09
4.19894e-08
1.52216e-09
4.18191e-08
1.48357e-09
4.16405e-08
1.44622e-09
4.14542e-08
1.41006e-09
4.1261e-08
1.37514e-09
4.10614e-08
1.34134e-09
4.08562e-08
1.30875e-09
4.06459e-08
1.27716e-09
4.04312e-08
1.24674e-09
4.02126e-08
1.21715e-09
3.99906e-08
1.1887e-09
3.97659e-08
1.16088e-09
3.95388e-08
1.13423e-09
3.93099e-08
1.10799e-09
3.90795e-08
1.08297e-09
3.88481e-08
1.05815e-09
3.86159e-08
1.03462e-09
3.83835e-08
1.01109e-09
3.81509e-08
9.88887e-10
3.79188e-08
9.66581e-10
3.76871e-08
9.45536e-10
3.74563e-08
9.24413e-10
3.72265e-08
9.04305e-10
3.6998e-08
8.84396e-10
3.67709e-08
8.64989e-10
3.65455e-08
8.46294e-10
3.63219e-08
8.27381e-10
3.61002e-08
8.09873e-10
3.58808e-08
7.91332e-10
3.56634e-08
7.74796e-10
3.54486e-08
7.56732e-10
3.5236e-08
7.40765e-10
3.50263e-08
7.23424e-10
3.48191e-08
7.07461e-10
3.46148e-08
6.9122e-10
3.44134e-08
6.74751e-10
3.42149e-08
6.59671e-10
3.40198e-08
6.42638e-10
3.38275e-08
6.28312e-10
3.36389e-08
6.11191e-10
3.34533e-08
5.96608e-10
3.32714e-08
5.80303e-10
3.3093e-08
5.64541e-10
3.29183e-08
5.49403e-10
3.27475e-08
5.32353e-10
3.25803e-08
5.17741e-10
3.24174e-08
5.00559e-10
3.22585e-08
4.84807e-10
3.21037e-08
4.6883e-10
3.19535e-08
4.51155e-10
3.18072e-08
4.36385e-10
3.1666e-08
4.17702e-10
3.15289e-08
4.02346e-10
3.13969e-08
3.84837e-10
3.12693e-08
3.67704e-10
3.11467e-08
3.51525e-10
3.10288e-08
3.33894e-10
3.0916e-08
3.173e-10
3.08076e-08
3.01828e-10
3.07047e-08
2.83797e-10
3.06057e-08
2.7018e-10
3.05121e-08
2.53303e-10
3.04223e-08
2.40005e-10
3.03374e-08
2.26187e-10
3.02561e-08
2.13846e-10
3.01793e-08
2.01521e-10
3.01052e-08
1.93327e-10
3.00355e-08
1.82015e-10
2.99676e-08
1.76482e-10
2.99037e-08
1.67834e-10
2.98412e-08
1.63475e-10
2.9782e-08
1.57089e-10
2.97235e-08
1.5533e-10
2.96682e-08
1.48891e-10
2.96131e-08
1.48372e-10
1.44332e-10
4.16167e-08
4.36485e-10
4.19301e-08
1.26819e-09
4.23166e-08
1.98883e-09
4.26666e-08
2.44164e-09
4.29692e-08
2.67231e-09
4.32642e-08
2.78709e-09
4.3561e-08
2.8555e-09
4.38355e-08
2.87064e-09
4.40667e-08
2.81811e-09
4.42467e-08
2.7054e-09
4.43805e-08
2.55648e-09
4.44795e-08
2.39984e-09
4.45537e-08
2.25645e-09
4.46101e-08
2.13526e-09
4.46527e-08
2.03611e-09
4.46843e-08
1.95488e-09
4.47068e-08
1.88719e-09
4.47216e-08
1.8297e-09
4.47297e-08
1.77986e-09
4.47312e-08
1.7356e-09
4.4726e-08
1.69532e-09
4.47138e-08
1.65783e-09
4.46945e-08
1.62238e-09
4.4668e-08
1.58849e-09
4.46342e-08
1.55597e-09
4.45931e-08
1.52462e-09
4.45449e-08
1.49445e-09
4.44897e-08
1.46532e-09
4.44275e-08
1.4373e-09
4.43586e-08
1.41019e-09
4.42833e-08
1.38413e-09
4.42016e-08
1.35882e-09
4.41138e-08
1.33451e-09
4.40203e-08
1.31072e-09
4.3921e-08
1.28796e-09
4.38165e-08
1.26544e-09
4.37067e-08
1.24401e-09
4.35921e-08
1.22255e-09
4.34728e-08
1.20231e-09
4.33492e-08
1.18171e-09
4.32213e-08
1.16252e-09
4.30898e-08
1.14265e-09
4.29543e-08
1.12434e-09
4.28157e-08
1.10514e-09
4.26737e-08
1.08755e-09
4.25291e-08
1.06901e-09
4.23816e-08
1.05187e-09
4.22318e-08
1.03411e-09
4.20797e-08
1.01715e-09
4.19257e-08
1.00024e-09
4.177e-08
9.83166e-10
4.16126e-08
9.67231e-10
4.14541e-08
9.49855e-10
4.12942e-08
9.34702e-10
4.11337e-08
9.17174e-10
4.09721e-08
9.02389e-10
4.08105e-08
8.85054e-10
4.0648e-08
8.69884e-10
4.04859e-08
8.53418e-10
4.03235e-08
8.37112e-10
4.01614e-08
8.21765e-10
3.99999e-08
8.04113e-10
3.98386e-08
7.89622e-10
3.96787e-08
7.71141e-10
3.95191e-08
7.56207e-10
3.93611e-08
7.38222e-10
3.92041e-08
7.21555e-10
3.90488e-08
7.04751e-10
3.88952e-08
6.85903e-10
3.87432e-08
6.69799e-10
3.85935e-08
6.50184e-10
3.84458e-08
6.3255e-10
3.83006e-08
6.14056e-10
3.81581e-08
5.93683e-10
3.80177e-08
5.76721e-10
3.7881e-08
5.54379e-10
3.77466e-08
5.36752e-10
3.7616e-08
5.15457e-10
3.74883e-08
4.9541e-10
3.73643e-08
4.75573e-10
3.72438e-08
4.54394e-10
3.7127e-08
4.34028e-10
3.70135e-08
4.15324e-10
3.69047e-08
3.92653e-10
3.67986e-08
3.76213e-10
3.66974e-08
3.54499e-10
3.6599e-08
3.38437e-10
3.6505e-08
3.20158e-10
3.64141e-08
3.04785e-10
3.63275e-08
2.88081e-10
3.62431e-08
2.77823e-10
3.61632e-08
2.61899e-10
3.60849e-08
2.54754e-10
3.6011e-08
2.41756e-10
3.59384e-08
2.3607e-10
3.58694e-08
2.26032e-10
3.58011e-08
2.23625e-10
3.5737e-08
2.13072e-10
3.56728e-08
2.12526e-10
2.05047e-10
4.31278e-08
3.56427e-10
4.33579e-08
1.03809e-09
4.36816e-08
1.66509e-09
4.40056e-08
2.11764e-09
4.42946e-08
2.38336e-09
4.45619e-08
2.51978e-09
4.48259e-08
2.59146e-09
4.50776e-08
2.61892e-09
4.53e-08
2.59574e-09
4.54828e-08
2.5226e-09
4.56263e-08
2.41294e-09
4.57385e-08
2.28772e-09
4.58286e-08
2.16634e-09
4.59038e-08
2.06e-09
4.59686e-08
1.9713e-09
4.60256e-08
1.89789e-09
4.60766e-08
1.83619e-09
4.6123e-08
1.78329e-09
4.61658e-08
1.73709e-09
4.62054e-08
1.69602e-09
4.62419e-08
1.65884e-09
4.62751e-08
1.62457e-09
4.6305e-08
1.59252e-09
4.63313e-08
1.5622e-09
4.63539e-08
1.5334e-09
4.63726e-08
1.50587e-09
4.63875e-08
1.47961e-09
4.63983e-08
1.45444e-09
4.64052e-08
1.43047e-09
4.6408e-08
1.40738e-09
4.64067e-08
1.38545e-09
4.64013e-08
1.36419e-09
4.63917e-08
1.34407e-09
4.63781e-08
1.32431e-09
4.63603e-08
1.30579e-09
4.63385e-08
1.28726e-09
4.63124e-08
1.2701e-09
4.62824e-08
1.25252e-09
4.62481e-08
1.23659e-09
4.62101e-08
1.2197e-09
4.61678e-08
1.20482e-09
4.6122e-08
1.18849e-09
4.60719e-08
1.17446e-09
4.60185e-08
1.15856e-09
4.59608e-08
1.14518e-09
4.59001e-08
1.12978e-09
4.58353e-08
1.11662e-09
4.57675e-08
1.10189e-09
4.56961e-08
1.08859e-09
4.56216e-08
1.07472e-09
4.5544e-08
1.06076e-09
4.54632e-08
1.04803e-09
4.53799e-08
1.03313e-09
4.52933e-08
1.02131e-09
4.52049e-08
1.00564e-09
4.5113e-08
9.94258e-10
4.50197e-08
9.78336e-10
4.49234e-08
9.66203e-10
4.48256e-08
9.51182e-10
4.47256e-08
9.37186e-10
4.46238e-08
9.23565e-10
4.45207e-08
9.07159e-10
4.44155e-08
8.94891e-10
4.43098e-08
8.76787e-10
4.42021e-08
8.63921e-10
4.40942e-08
8.46108e-10
4.39849e-08
8.30815e-10
4.38751e-08
8.14568e-10
4.37653e-08
7.95727e-10
4.36544e-08
7.80694e-10
4.35442e-08
7.60426e-10
4.34334e-08
7.4333e-10
4.33232e-08
7.24287e-10
4.32136e-08
7.03212e-10
4.31037e-08
6.86601e-10
4.29959e-08
6.62209e-10
4.2888e-08
6.44668e-10
4.27819e-08
6.21508e-10
4.26768e-08
6.00572e-10
4.25731e-08
5.79303e-10
4.24714e-08
5.56096e-10
4.23714e-08
5.34024e-10
4.22725e-08
5.14185e-10
4.21769e-08
4.88287e-10
4.20821e-08
4.70978e-10
4.19908e-08
4.45752e-10
4.19007e-08
4.2858e-10
4.18133e-08
4.07595e-10
4.1728e-08
3.90023e-10
4.16461e-08
3.70032e-10
4.15648e-08
3.59083e-10
4.14874e-08
3.39344e-10
4.14107e-08
3.31465e-10
4.13377e-08
3.14669e-10
4.12661e-08
3.07729e-10
4.1197e-08
2.95089e-10
4.1128e-08
2.92654e-10
4.10633e-08
2.77782e-10
4.09986e-08
2.77173e-10
2.66875e-10
4.47078e-08
2.95754e-10
4.48815e-08
8.64387e-10
4.5146e-08
1.40063e-09
4.54347e-08
1.82899e-09
4.57074e-08
2.11062e-09
4.59568e-08
2.27038e-09
4.6195e-08
2.35326e-09
4.64236e-08
2.39032e-09
4.6632e-08
2.38731e-09
4.68105e-08
2.34413e-09
4.69559e-08
2.26751e-09
4.70723e-08
2.17131e-09
4.71673e-08
2.0714e-09
4.72478e-08
1.97952e-09
4.73185e-08
1.90056e-09
4.73823e-08
1.83412e-09
4.74408e-08
1.77766e-09
4.74954e-08
1.72866e-09
4.75472e-08
1.68535e-09
4.75967e-08
1.64646e-09
4.76444e-08
1.61112e-09
4.76905e-08
1.57855e-09
4.77348e-08
1.54823e-09
4.77773e-08
1.51964e-09
4.78181e-08
1.49265e-09
4.7857e-08
1.46693e-09
4.7894e-08
1.44257e-09
4.79292e-08
1.41924e-09
4.79625e-08
1.39723e-09
4.79938e-08
1.37601e-09
4.80231e-08
1.35614e-09
4.80505e-08
1.33678e-09
4.80758e-08
1.31884e-09
4.80991e-08
1.30101e-09
4.812e-08
1.28484e-09
4.8139e-08
1.26825e-09
4.81555e-08
1.25362e-09
4.817e-08
1.23799e-09
4.81818e-08
1.22481e-09
4.81917e-08
1.20983e-09
4.81986e-08
1.19789e-09
4.82036e-08
1.18348e-09
4.82055e-08
1.17256e-09
4.82055e-08
1.15856e-09
4.82024e-08
1.14837e-09
4.81971e-08
1.13499e-09
4.81889e-08
1.12491e-09
4.81783e-08
1.11244e-09
4.81649e-08
1.10196e-09
4.81489e-08
1.09076e-09
4.81306e-08
1.07907e-09
4.8109e-08
1.0696e-09
4.80857e-08
1.05642e-09
4.80588e-08
1.04828e-09
4.80306e-08
1.03384e-09
4.79984e-08
1.02642e-09
4.79651e-08
1.01168e-09
4.79283e-08
1.00299e-09
4.78897e-08
9.89721e-10
4.78486e-08
9.78328e-10
4.78049e-08
9.67284e-10
4.77598e-08
9.52212e-10
4.77113e-08
9.43376e-10
4.7662e-08
9.26077e-10
4.76097e-08
9.1629e-10
4.75562e-08
8.99601e-10
4.75006e-08
8.86418e-10
4.74427e-08
8.72427e-10
4.73844e-08
8.54014e-10
4.73233e-08
8.41813e-10
4.72618e-08
8.2197e-10
4.71983e-08
8.06778e-10
4.71337e-08
7.88884e-10
4.7069e-08
7.67909e-10
4.70017e-08
7.53969e-10
4.69351e-08
7.28753e-10
4.6867e-08
7.12749e-10
4.67988e-08
6.89766e-10
4.67302e-08
6.6912e-10
4.66606e-08
6.48902e-10
4.65918e-08
6.24888e-10
4.65233e-08
6.02549e-10
4.64534e-08
5.84101e-10
4.63854e-08
5.5632e-10
4.63164e-08
5.39904e-10
4.62493e-08
5.12923e-10
4.61822e-08
4.95637e-10
4.6115e-08
4.74751e-10
4.60491e-08
4.55986e-10
4.59856e-08
4.33554e-10
4.5921e-08
4.2365e-10
4.58587e-08
4.01628e-10
4.57962e-08
3.93953e-10
4.57358e-08
3.75109e-10
4.56772e-08
3.66351e-10
4.56197e-08
3.52587e-10
4.55605e-08
3.51863e-10
4.55048e-08
3.33458e-10
4.545e-08
3.31992e-10
3.20342e-10
4.63535e-08
2.48321e-10
4.64896e-08
7.28279e-10
4.67031e-08
1.18715e-09
4.69543e-08
1.57777e-09
4.72056e-08
1.85935e-09
4.74399e-08
2.036e-09
4.76593e-08
2.13391e-09
4.78679e-08
2.18169e-09
4.80618e-08
2.19348e-09
4.82333e-08
2.17255e-09
4.83782e-08
2.12263e-09
4.84972e-08
2.05228e-09
4.85955e-08
1.97318e-09
4.8679e-08
1.89596e-09
4.87527e-08
1.82689e-09
4.88194e-08
1.76739e-09
4.88809e-08
1.71616e-09
4.89384e-08
1.67116e-09
4.89929e-08
1.63091e-09
4.9045e-08
1.59429e-09
4.90954e-08
1.56072e-09
4.91444e-08
1.52959e-09
4.9192e-08
1.5006e-09
4.92385e-08
1.47322e-09
4.92836e-08
1.44746e-09
4.93277e-08
1.42284e-09
4.93707e-08
1.39963e-09
4.94127e-08
1.37728e-09
4.94535e-08
1.35638e-09
4.94935e-08
1.33603e-09
4.95324e-08
1.31726e-09
4.95704e-08
1.2987e-09
4.96074e-08
1.28192e-09
4.96436e-08
1.26479e-09
4.96785e-08
1.24989e-09
4.97128e-08
1.23394e-09
4.97457e-08
1.22073e-09
4.97781e-08
1.20567e-09
4.98087e-08
1.19413e-09
4.98389e-08
1.17964e-09
4.98673e-08
1.16951e-09
4.98952e-08
1.15561e-09
4.99211e-08
1.14664e-09
4.99465e-08
1.1332e-09
4.99698e-08
1.12498e-09
4.99924e-08
1.11248e-09
5.00132e-08
1.1041e-09
5.00326e-08
1.09297e-09
5.00508e-08
1.08384e-09
5.00668e-08
1.07469e-09
5.00823e-08
1.06362e-09
5.00949e-08
1.05702e-09
5.01073e-08
1.04398e-09
5.01164e-08
1.0392e-09
5.01256e-08
1.0246e-09
5.01314e-08
1.02068e-09
5.01367e-08
1.00629e-09
5.01395e-08
1.0002e-09
5.01408e-08
9.88415e-10
5.01406e-08
9.78549e-10
5.01376e-08
9.70265e-10
5.01344e-08
9.55422e-10
5.01277e-08
9.50129e-10
5.01205e-08
9.33286e-10
5.01106e-08
9.26137e-10
5.00993e-08
9.10956e-10
5.00867e-08
8.99033e-10
5.00707e-08
8.88347e-10
5.00551e-08
8.69663e-10
5.00361e-08
8.60757e-10
5.00163e-08
8.41831e-10
4.99947e-08
8.28393e-10
4.99707e-08
8.12897e-10
4.99471e-08
7.9151e-10
4.99196e-08
7.81466e-10
4.98919e-08
7.56362e-10
4.98629e-08
7.4176e-10
4.9832e-08
7.20701e-10
4.98008e-08
7.00274e-10
4.97668e-08
6.82901e-10
4.97327e-08
6.59075e-10
4.96987e-08
6.36481e-10
4.96613e-08
6.21485e-10
4.96247e-08
5.92924e-10
4.95865e-08
5.78097e-10
4.95482e-08
5.51284e-10
4.95103e-08
5.33567e-10
4.94696e-08
5.15358e-10
4.94288e-08
4.96818e-10
4.93904e-08
4.71968e-10
4.93498e-08
4.64228e-10
4.93097e-08
4.4177e-10
4.9269e-08
4.34616e-10
4.92279e-08
4.16265e-10
4.91893e-08
4.0488e-10
4.91515e-08
3.90392e-10
4.91099e-08
3.93479e-10
4.90697e-08
3.73638e-10
4.90318e-08
3.69902e-10
3.58191e-10
4.80645e-08
2.10368e-10
4.81739e-08
6.1888e-10
4.83473e-08
1.01375e-09
4.85628e-08
1.36224e-09
4.87893e-08
1.63291e-09
4.90076e-08
1.81762e-09
4.92121e-08
1.92944e-09
4.94046e-08
1.98923e-09
4.95847e-08
2.01339e-09
4.9748e-08
2.00917e-09
4.98905e-08
1.98019e-09
5.0011e-08
1.9318e-09
5.01121e-08
1.87204e-09
5.01986e-08
1.80947e-09
5.02749e-08
1.7506e-09
5.0344e-08
1.69823e-09
5.04079e-08
1.65232e-09
5.04675e-08
1.61151e-09
5.05238e-08
1.57459e-09
5.05776e-08
1.54055e-09
5.06293e-08
1.50903e-09
5.06794e-08
1.4795e-09
5.0728e-08
1.45192e-09
5.07755e-08
1.42571e-09
5.08219e-08
1.40112e-09
5.08673e-08
1.37746e-09
5.09116e-08
1.35527e-09
5.09552e-08
1.33368e-09
5.09979e-08
1.31371e-09
5.104e-08
1.29391e-09
5.10813e-08
1.27599e-09
5.11222e-08
1.25781e-09
5.11622e-08
1.24189e-09
5.1202e-08
1.22496e-09
5.12409e-08
1.211e-09
5.12798e-08
1.1951e-09
5.13176e-08
1.18291e-09
5.13555e-08
1.16774e-09
5.13922e-08
1.15739e-09
5.14292e-08
1.14267e-09
5.14649e-08
1.1338e-09
5.15008e-08
1.1197e-09
5.15355e-08
1.11199e-09
5.15702e-08
1.09845e-09
5.16039e-08
1.09134e-09
5.16372e-08
1.07919e-09
5.16698e-08
1.07143e-09
5.17015e-08
1.06128e-09
5.17332e-08
1.05217e-09
5.1763e-08
1.04487e-09
5.17937e-08
1.03297e-09
5.18216e-08
1.02906e-09
5.18508e-08
1.01479e-09
5.1877e-08
1.01299e-09
5.19045e-08
9.97162e-10
5.19292e-08
9.95977e-10
5.19541e-08
9.81405e-10
5.19776e-08
9.76627e-10
5.19998e-08
9.66238e-10
5.20219e-08
9.56433e-10
5.20413e-08
9.50918e-10
5.20616e-08
9.35071e-10
5.20789e-08
9.32844e-10
5.20961e-08
9.16101e-10
5.21119e-08
9.10378e-10
5.21258e-08
8.97021e-10
5.214e-08
8.84829e-10
5.21504e-08
8.77936e-10
5.2162e-08
8.58056e-10
5.21708e-08
8.51932e-10
5.21784e-08
8.34244e-10
5.21854e-08
8.21425e-10
5.21892e-08
8.09108e-10
5.21943e-08
7.86355e-10
5.21956e-08
7.80192e-10
5.21959e-08
7.56037e-10
5.21961e-08
7.41599e-10
5.21931e-08
7.23693e-10
5.21906e-08
7.02758e-10
5.21847e-08
6.88839e-10
5.21777e-08
6.6609e-10
5.21718e-08
6.42321e-10
5.21615e-08
6.31791e-10
5.21511e-08
6.03343e-10
5.21395e-08
5.8967e-10
5.21261e-08
5.64744e-10
5.21141e-08
5.4558e-10
5.20981e-08
5.3134e-10
5.20803e-08
5.14568e-10
5.20654e-08
4.86898e-10
5.20482e-08
4.81444e-10
5.20298e-08
4.60193e-10
5.20112e-08
4.53168e-10
5.19899e-08
4.37552e-10
5.19715e-08
4.23256e-10
5.19547e-08
4.07276e-10
5.19327e-08
4.15424e-10
5.19096e-08
3.96758e-10
5.18899e-08
3.89573e-10
3.78334e-10
4.98418e-08
1.79492e-10
4.99313e-08
5.29427e-10
5.00741e-08
8.70926e-10
5.02577e-08
1.17871e-09
5.04586e-08
1.43199e-09
5.06593e-08
1.61693e-09
5.08501e-08
1.73857e-09
5.10294e-08
1.80996e-09
5.11973e-08
1.84545e-09
5.13521e-08
1.85441e-09
5.14906e-08
1.84169e-09
5.16111e-08
1.81129e-09
5.17145e-08
1.76867e-09
5.18038e-08
1.72019e-09
5.18827e-08
1.6717e-09
5.19542e-08
1.62666e-09
5.20203e-08
1.58621e-09
5.20822e-08
1.54968e-09
5.21405e-08
1.51631e-09
5.21959e-08
1.4851e-09
5.2249e-08
1.4559e-09
5.23003e-08
1.4282e-09
5.235e-08
1.40221e-09
5.23984e-08
1.37729e-09
5.24456e-08
1.35396e-09
5.24918e-08
1.33129e-09
5.25369e-08
1.31017e-09
5.25812e-08
1.28932e-09
5.26247e-08
1.27029e-09
5.26676e-08
1.25099e-09
5.27096e-08
1.23393e-09
5.27514e-08
1.21604e-09
5.27923e-08
1.20096e-09
5.28332e-08
1.18408e-09
5.28732e-08
1.17102e-09
5.29133e-08
1.15498e-09
5.29525e-08
1.14373e-09
5.2992e-08
1.12825e-09
5.30304e-08
1.11893e-09
5.30693e-08
1.10378e-09
5.31072e-08
1.09594e-09
5.31454e-08
1.08146e-09
5.31828e-08
1.07465e-09
5.32203e-08
1.06091e-09
5.32573e-08
1.05436e-09
5.32939e-08
1.04255e-09
5.33307e-08
1.03469e-09
5.33663e-08
1.02561e-09
5.34028e-08
1.01568e-09
5.34374e-08
1.01033e-09
5.34736e-08
9.96724e-10
5.35072e-08
9.95496e-10
5.35427e-08
9.79256e-10
5.35756e-08
9.80128e-10
5.36101e-08
9.6267e-10
5.36426e-08
9.63486e-10
5.36753e-08
9.48681e-10
5.37078e-08
9.44138e-10
5.37387e-08
9.35314e-10
5.37707e-08
9.2443e-10
5.38e-08
9.21634e-10
5.3831e-08
9.04081e-10
5.38595e-08
9.04283e-10
5.3888e-08
8.87586e-10
5.39164e-08
8.82054e-10
5.39425e-08
8.70885e-10
5.39702e-08
8.5716e-10
5.3994e-08
8.54074e-10
5.40196e-08
8.32472e-10
5.40433e-08
8.28296e-10
5.40653e-08
8.12147e-10
5.40881e-08
7.98706e-10
5.41073e-08
7.89854e-10
5.41285e-08
7.65168e-10
5.41466e-08
7.62145e-10
5.4163e-08
7.39586e-10
5.41807e-08
7.23951e-10
5.41945e-08
7.09849e-10
5.42095e-08
6.87779e-10
5.42213e-08
6.76988e-10
5.42315e-08
6.55925e-10
5.42437e-08
6.30141e-10
5.42513e-08
6.2414e-10
5.42583e-08
5.9641e-10
5.4265e-08
5.82959e-10
5.42687e-08
5.61031e-10
5.42746e-08
5.3967e-10
5.42765e-08
5.2945e-10
5.42756e-08
5.15433e-10
5.42778e-08
4.84702e-10
5.42781e-08
4.81114e-10
5.42762e-08
4.62113e-10
5.42748e-08
4.54581e-10
5.42696e-08
4.42801e-10
5.42669e-08
4.25913e-10
5.42666e-08
4.07589e-10
5.42611e-08
4.20907e-10
5.42527e-08
4.05204e-10
5.42481e-08
3.94143e-10
3.83361e-10
5.16871e-08
1.54041e-10
5.17613e-08
4.55276e-10
5.18806e-08
7.51626e-10
5.20365e-08
1.02285e-09
5.22132e-08
1.25525e-09
5.23953e-08
1.43484e-09
5.25724e-08
1.56143e-09
5.27401e-08
1.64227e-09
5.28975e-08
1.68803e-09
5.3044e-08
1.70799e-09
5.31776e-08
1.70807e-09
5.32968e-08
1.69211e-09
5.34014e-08
1.66408e-09
5.3493e-08
1.62855e-09
5.35744e-08
1.59027e-09
5.36483e-08
1.55275e-09
5.37167e-08
1.51786e-09
5.37807e-08
1.48568e-09
5.38411e-08
1.45593e-09
5.38984e-08
1.42772e-09
5.39533e-08
1.40107e-09
5.40061e-08
1.3754e-09
5.40571e-08
1.35119e-09
5.41067e-08
1.32767e-09
5.4155e-08
1.30571e-09
5.42022e-08
1.28409e-09
5.42482e-08
1.26412e-09
5.42935e-08
1.24406e-09
5.43377e-08
1.22604e-09
5.43815e-08
1.20726e-09
5.44243e-08
1.19112e-09
5.44668e-08
1.17353e-09
5.45084e-08
1.15931e-09
5.455e-08
1.14251e-09
5.45907e-08
1.13034e-09
5.46315e-08
1.11416e-09
5.46714e-08
1.10384e-09
5.47115e-08
1.08808e-09
5.47508e-08
1.07971e-09
5.47904e-08
1.06417e-09
5.48291e-08
1.05722e-09
5.48681e-08
1.04244e-09
5.49065e-08
1.03628e-09
5.49449e-08
1.0225e-09
5.4983e-08
1.01621e-09
5.50207e-08
1.0049e-09
5.50588e-08
9.96562e-10
5.50957e-08
9.88762e-10
5.51338e-08
9.77587e-10
5.51698e-08
9.74263e-10
5.52079e-08
9.58682e-10
5.52433e-08
9.60062e-10
5.52809e-08
9.41683e-10
5.53161e-08
9.44893e-10
5.53528e-08
9.25944e-10
5.53882e-08
9.28152e-10
5.54235e-08
9.13314e-10
5.54593e-08
9.0837e-10
5.54933e-08
9.01301e-10
5.5529e-08
8.88787e-10
5.55621e-08
8.88509e-10
5.5597e-08
8.69186e-10
5.563e-08
8.71235e-10
5.56629e-08
8.54701e-10
5.56964e-08
8.48569e-10
5.57275e-08
8.39813e-10
5.57606e-08
8.2401e-10
5.57904e-08
8.24329e-10
5.58218e-08
8.01001e-10
5.5852e-08
7.98129e-10
5.58805e-08
7.83664e-10
5.59103e-08
7.68858e-10
5.59369e-08
7.63281e-10
5.59653e-08
7.36763e-10
5.59914e-08
7.36016e-10
5.60157e-08
7.15281e-10
5.6042e-08
6.97718e-10
5.60643e-08
6.87537e-10
5.60879e-08
6.64155e-10
5.61091e-08
6.55785e-10
5.61285e-08
6.36531e-10
5.615e-08
6.0864e-10
5.61674e-08
6.06706e-10
5.6184e-08
5.79869e-10
5.6201e-08
5.65928e-10
5.62147e-08
5.47353e-10
5.62306e-08
5.23803e-10
5.6243e-08
5.17054e-10
5.62526e-08
5.05773e-10
5.62651e-08
4.72229e-10
5.6276e-08
4.70196e-10
5.62844e-08
4.53739e-10
5.62937e-08
4.45295e-10
5.62992e-08
4.37221e-10
5.63069e-08
4.1828e-10
5.63168e-08
3.97645e-10
5.63222e-08
4.15509e-10
5.63244e-08
4.03004e-10
5.63302e-08
3.88351e-10
3.77975e-10
5.36024e-08
1.32813e-10
5.36646e-08
3.93123e-10
5.37652e-08
6.50991e-10
5.3898e-08
8.90084e-10
5.40527e-08
1.10054e-09
5.42163e-08
1.27118e-09
5.43794e-08
1.39833e-09
5.45362e-08
1.48555e-09
5.46842e-08
1.53996e-09
5.48229e-08
1.56931e-09
5.49512e-08
1.57974e-09
5.5068e-08
1.57531e-09
5.51727e-08
1.55938e-09
5.52661e-08
1.53524e-09
5.53497e-08
1.50664e-09
5.54258e-08
1.47659e-09
5.54963e-08
1.44736e-09
5.55625e-08
1.41957e-09
5.56249e-08
1.39346e-09
5.56843e-08
1.36831e-09
5.57411e-08
1.34434e-09
5.57956e-08
1.32086e-09
5.58482e-08
1.29857e-09
5.58993e-08
1.27659e-09
5.59489e-08
1.2561e-09
5.59974e-08
1.23561e-09
5.60447e-08
1.21685e-09
5.60911e-08
1.19764e-09
5.61365e-08
1.18066e-09
5.61813e-08
1.16248e-09
5.62251e-08
1.14729e-09