/*--------------------------------*- C++ -*----------------------------------*\
| =========                 |                                                 |
| \\      /  F ield         | OpenFOAM: The Open Source CFD Toolbox           |
|  \\    /   O peration     | Version:  2.3.0                                 |
|   \\  /    A nd           | Web:      www.OpenFOAM.org                      |
|    \\/     M anipulation  |                                                 |
\*---------------------------------------------------------------------------*/
FoamFile
{
    version     2.0;
    format      ascii;
    class       surfaceScalarField;
    location    "0.95";
    object      phi;
}
// * * * * * * * * * * * * * * * * * * * * * * * * * * * * * * * * * * * * * //

dimensions      [0 3 -1 0 0 0 0];

internalField   nonuniform List<scalar> 
396
(
1.3229e-07
2.68684e-09
-1.34977e-07
1.28541e-07
3.7491e-09
1.2426e-07
4.28069e-09
1.19861e-07
4.39962e-09
1.15455e-07
4.4057e-09
1.10972e-07
4.48282e-09
1.06341e-07
4.63117e-09
1.01509e-07
4.83187e-09
9.65367e-08
4.9724e-09
9.139e-08
5.14667e-09
8.61265e-08
5.26359e-09
8.07209e-08
5.40559e-09
7.51934e-08
5.52745e-09
6.95813e-08
5.61211e-09
6.39152e-08
5.66614e-09
5.82622e-08
5.65292e-09
5.27615e-08
5.50073e-09
4.74673e-08
5.29422e-09
4.25948e-08
4.8725e-09
3.82365e-08
4.35831e-09
3.46414e-08
3.59506e-09
3.17431e-08
2.89834e-09
2.96592e-08
2.08388e-09
2.79552e-08
1.70399e-09
1.28113e-09
1.61767e-07
2.51546e-09
-1.61596e-07
1.62045e-07
3.47122e-09
1.62062e-07
4.26404e-09
1.61722e-07
4.73972e-09
1.61146e-07
4.9815e-09
1.60438e-07
5.1904e-09
1.59618e-07
5.45114e-09
1.58596e-07
5.85437e-09
1.57408e-07
6.16012e-09
1.55891e-07
6.66348e-09
1.54226e-07
6.92912e-09
1.52271e-07
7.3598e-09
1.50138e-07
7.66111e-09
1.47691e-07
8.05904e-09
1.45049e-07
8.30817e-09
1.42098e-07
8.60368e-09
1.39013e-07
8.58573e-09
1.35649e-07
8.65794e-09
1.32252e-07
8.26993e-09
1.28659e-07
7.95081e-09
1.25217e-07
7.03754e-09
1.21712e-07
6.40284e-09
1.18481e-07
5.31551e-09
1.15286e-07
4.89853e-09
4.30501e-09
1.92674e-07
2.46547e-09
-1.92624e-07
1.92913e-07
3.23297e-09
1.93262e-07
3.91418e-09
1.93537e-07
4.46523e-09
1.93655e-07
4.86303e-09
1.93616e-07
5.22961e-09
1.93571e-07
5.49654e-09
1.93521e-07
5.90446e-09
1.93509e-07
6.17152e-09
1.93351e-07
6.82155e-09
1.93144e-07
7.13674e-09
1.9286e-07
7.64341e-09
1.92567e-07
7.95377e-09
1.92136e-07
8.4909e-09
1.91638e-07
8.80606e-09
1.91056e-07
9.18577e-09
1.90337e-07
9.3039e-09
1.89475e-07
9.52023e-09
1.88469e-07
9.27589e-09
1.87325e-07
9.09527e-09
1.85997e-07
8.36521e-09
1.84573e-07
7.82724e-09
1.82991e-07
6.89736e-09
1.81453e-07
6.43668e-09
6.00882e-09
2.29506e-07
2.43165e-09
-2.29472e-07
2.29701e-07
3.03789e-09
2.29972e-07
3.64256e-09
2.3026e-07
4.17792e-09
2.30496e-07
4.62659e-09
2.30593e-07
5.13297e-09
2.30606e-07
5.48369e-09
2.30631e-07
5.87876e-09
2.30706e-07
6.0968e-09
2.30797e-07
6.73034e-09
2.30837e-07
7.09734e-09
2.30901e-07
7.57934e-09
2.30978e-07
7.87698e-09
2.31055e-07
8.41342e-09
2.31105e-07
8.75658e-09
2.31217e-07
9.07369e-09
2.31267e-07
9.25364e-09
2.31297e-07
9.49009e-09
2.31205e-07
9.36776e-09
2.31102e-07
9.19846e-09
2.30812e-07
8.65474e-09
2.30447e-07
8.19308e-09
2.29884e-07
7.45997e-09
2.29322e-07
6.999e-09
6.6983e-09
2.73297e-07
2.37813e-09
-2.73244e-07
2.7347e-07
2.86494e-09
2.73696e-07
3.41689e-09
2.73964e-07
3.90987e-09
2.742e-07
4.3911e-09
2.74348e-07
4.98418e-09
2.74422e-07
5.40975e-09
2.74455e-07
5.84617e-09
2.74469e-07
6.08289e-09
2.74564e-07
6.63503e-09
2.74641e-07
7.02027e-09
2.74761e-07
7.45943e-09
2.74856e-07
7.78196e-09
2.75006e-07
8.26377e-09
2.75136e-07
8.62638e-09
2.75318e-07
8.89121e-09
2.75484e-07
9.08807e-09
2.75655e-07
9.31872e-09
2.75764e-07
9.259e-09
2.7586e-07
9.10231e-09
2.75828e-07
8.68733e-09
2.75735e-07
8.28602e-09
2.75492e-07
7.70259e-09
2.75197e-07
7.29431e-09
7.01798e-09
3.32219e-07
2.33347e-09
-3.32175e-07
3.32378e-07
2.70666e-09
3.32624e-07
3.17055e-09
3.3286e-07
3.6741e-09
3.33065e-07
4.18561e-09
3.33236e-07
4.81315e-09
3.33336e-07
5.30964e-09
3.3337e-07
5.81219e-09
3.33351e-07
6.10245e-09
3.33412e-07
6.57417e-09
3.33491e-07
6.94081e-09
3.33611e-07
7.33958e-09
3.33695e-07
7.69777e-09
3.33849e-07
8.10989e-09
3.34004e-07
8.47163e-09
3.3414e-07
8.75469e-09
3.34279e-07
8.94957e-09
3.34428e-07
9.16991e-09
3.34565e-07
9.12138e-09
3.3466e-07
9.00781e-09
3.34674e-07
8.67317e-09
3.34637e-07
8.32261e-09
3.34483e-07
7.85641e-09
3.34267e-07
7.51113e-09
7.24952e-09
6.65414e-07
-6.6512e-07
6.65785e-07
6.6616e-07
6.66429e-07
6.666e-07
6.66727e-07
6.66831e-07
6.66863e-07
6.66835e-07
6.66837e-07
6.66896e-07
6.67003e-07
6.67094e-07
6.67218e-07
6.67347e-07
6.67441e-07
6.6757e-07
6.67673e-07
6.67771e-07
6.67843e-07
6.6785e-07
6.67823e-07
6.67729e-07
6.67574e-07
1.37305e-07
-1.29907e-10
1.37398e-07
-6.25376e-10
1.37242e-07
-2.08936e-10
1.36871e-07
3.93774e-10
1.36053e-07
1.45441e-09
1.99175e-09
1.63082e-07
2.36799e-11
1.62818e-07
-3.60757e-10
1.62577e-07
3.20123e-11
1.62113e-07
8.57165e-10
1.61811e-07
1.75646e-09
2.20712e-09
1.94076e-07
6.91881e-11
1.93629e-07
8.59549e-11
1.93414e-07
2.46454e-10
1.92975e-07
1.29614e-09
1.9281e-07
1.92212e-09
2.39253e-09
2.30804e-07
1.15721e-10
2.3039e-07
4.99811e-10
2.3002e-07
6.1656e-10
2.29702e-07
1.61409e-09
2.29547e-07
2.07651e-09
2.46797e-09
2.74448e-07
1.96706e-10
2.74102e-07
8.45956e-10
2.73655e-07
1.06279e-09
2.73391e-07
1.87877e-09
2.7326e-07
2.20673e-09
2.48443e-09
3.332e-07
3.29661e-10
3.32899e-07
1.14684e-09
3.32451e-07
1.51142e-09
3.32223e-07
2.10641e-09
3.32157e-07
2.27256e-09
2.46714e-09
6.66429e-07
6.65932e-07
6.65295e-07
6.65008e-07
6.64966e-07
)
;

boundaryField
{
    top
    {
        type            calculated;
        value           nonuniform List<scalar> 
31
(
2.03969e-09
2.33541e-09
2.79629e-09
3.40518e-09
4.01392e-09
4.68677e-09
5.20523e-09
5.78024e-09
6.1307e-09
6.5718e-09
6.88172e-09
7.23286e-09
7.60643e-09
7.986e-09
8.34303e-09
8.66028e-09
8.82068e-09
9.06666e-09
9.02385e-09
8.93616e-09
8.66552e-09
8.35012e-09
7.94981e-09
7.6666e-09
7.41479e-09
5.67169e-10
1.64377e-09
2.14885e-09
2.39351e-09
2.31436e-09
2.31257e-09
)
;
    }
    inlet
    {
        type            calculated;
        value           nonuniform List<scalar> 7(-3.33333e-07 -6.66667e-07 -1.37264e-07 -1.63236e-07 -1.94121e-07 -2.3085e-07 -2.74529e-07);
    }
    outlet
    {
        type            calculated;
        value           nonuniform List<scalar> 7(3.34035e-07 6.67409e-07 2.66741e-08 1.12262e-07 1.79749e-07 2.28632e-07 2.74877e-07);
    }
    plate
    {
        type            calculated;
        value           uniform 0;
    }
    symmBound
    {
        type            calculated;
        value           nonuniform List<scalar> 6(8.95685e-11 5.31652e-10 3.65565e-10 -2.32078e-11 -6.36422e-10 -9.15449e-10);
    }
    frontAndBack
    {
        type            empty;
        value           nonuniform 0();
    }
}


// ************************************************************************* //
