/*--------------------------------*- C++ -*----------------------------------*\
| =========                 |                                                 |
| \\      /  F ield         | OpenFOAM: The Open Source CFD Toolbox           |
|  \\    /   O peration     | Version:  2.3.0                                 |
|   \\  /    A nd           | Web:      www.OpenFOAM.org                      |
|    \\/     M anipulation  |                                                 |
\*---------------------------------------------------------------------------*/
FoamFile
{
    version     2.0;
    format      ascii;
    class       volVectorField;
    location    "0.95";
    object      U;
}
// * * * * * * * * * * * * * * * * * * * * * * * * * * * * * * * * * * * * * //

dimensions      [0 1 -1 0 0 0 0];

internalField   nonuniform List<vector> 
8750
(
(0.171611 0.00593575 0)
(0.155187 0.00601769 0)
(0.139393 0.00560539 0)
(0.124413 0.00501122 0)
(0.110663 0.00435346 0)
(0.0983131 0.00368563 0)
(0.0873757 0.00304454 0)
(0.0778165 0.00245566 0)
(0.0695801 0.00193452 0)
(0.0625822 0.00148896 0)
(0.0567102 0.00112073 0)
(0.0518318 0.000826419 0)
(0.047807 0.000598738 0)
(0.0444973 0.000428056 0)
(0.0417734 0.000303924 0)
(0.0395195 0.000216272 0)
(0.037637 0.000156148 0)
(0.0360442 0.000116071 0)
(0.0346761 9.0084e-05 0)
(0.0334823 7.36397e-05 0)
(0.0324244 6.34044e-05 0)
(0.0314738 5.70308e-05 0)
(0.0306095 5.29371e-05 0)
(0.029816 5.01068e-05 0)
(0.0290819 4.7922e-05 0)
(0.0283988 4.60317e-05 0)
(0.0277601 4.42546e-05 0)
(0.0271609 4.25107e-05 0)
(0.026597 4.07758e-05 0)
(0.026065 3.90533e-05 0)
(0.025562 3.73577e-05 0)
(0.0250856 3.57052e-05 0)
(0.0246334 3.41096e-05 0)
(0.0242036 3.2581e-05 0)
(0.0237944 3.11254e-05 0)
(0.0234041 2.97457e-05 0)
(0.0230314 2.84418e-05 0)
(0.022675 2.72121e-05 0)
(0.0223336 2.60537e-05 0)
(0.0220063 2.49629e-05 0)
(0.021692 2.39359e-05 0)
(0.02139 2.29685e-05 0)
(0.0210993 2.20567e-05 0)
(0.0208193 2.11967e-05 0)
(0.0205494 2.03849e-05 0)
(0.0202888 1.96178e-05 0)
(0.0200372 1.88925e-05 0)
(0.0197939 1.82059e-05 0)
(0.0195585 1.75554e-05 0)
(0.0193306 1.69385e-05 0)
(0.0191097 1.63531e-05 0)
(0.0188955 1.5797e-05 0)
(0.0186877 1.52683e-05 0)
(0.0184858 1.47653e-05 0)
(0.0182898 1.42864e-05 0)
(0.0180991 1.38301e-05 0)
(0.0179137 1.3395e-05 0)
(0.0177332 1.29799e-05 0)
(0.0175574 1.25836e-05 0)
(0.0173861 1.22049e-05 0)
(0.0172192 1.1843e-05 0)
(0.0170563 1.14968e-05 0)
(0.0168974 1.11655e-05 0)
(0.0167423 1.08483e-05 0)
(0.0165908 1.05445e-05 0)
(0.0164428 1.02533e-05 0)
(0.016298 9.97409e-06 0)
(0.0161565 9.70631e-06 0)
(0.016018 9.4494e-06 0)
(0.0158825 9.20282e-06 0)
(0.0157498 8.96607e-06 0)
(0.0156198 8.73869e-06 0)
(0.0154924 8.52035e-06 0)
(0.0153675 8.31052e-06 0)
(0.0152451 8.10893e-06 0)
(0.0151249 7.91529e-06 0)
(0.015007 7.72915e-06 0)
(0.0148912 7.55029e-06 0)
(0.0147776 7.37853e-06 0)
(0.0146659 7.2135e-06 0)
(0.0145561 7.05503e-06 0)
(0.0144481 6.90293e-06 0)
(0.0143419 6.757e-06 0)
(0.0142375 6.61715e-06 0)
(0.0141346 6.48315e-06 0)
(0.0140333 6.3549e-06 0)
(0.0139335 6.23241e-06 0)
(0.0138351 6.11558e-06 0)
(0.0137381 6.00439e-06 0)
(0.0136424 5.89892e-06 0)
(0.0135478 5.7994e-06 0)
(0.0134545 5.70633e-06 0)
(0.0133622 5.62054e-06 0)
(0.0132709 5.54404e-06 0)
(0.0131804 5.48129e-06 0)
(0.0130906 5.443e-06 0)
(0.0130011 5.46302e-06 0)
(0.0129099 5.59023e-06 0)
(0.0128341 4.65753e-06 0)
(0.0125858 3.51917e-05 0)
(0.19047 0.00937943 0)
(0.188169 0.00989404 0)
(0.184258 0.0096711 0)
(0.179094 0.00917444 0)
(0.173182 0.00854335 0)
(0.166873 0.00782397 0)
(0.16039 0.00705412 0)
(0.153902 0.00626858 0)
(0.147542 0.00549644 0)
(0.141412 0.00476154 0)
(0.135579 0.00408252 0)
(0.130085 0.00347227 0)
(0.124947 0.00293761 0)
(0.120168 0.0024798 0)
(0.115741 0.00209551 0)
(0.11165 0.00177819 0)
(0.107872 0.00151941 0)
(0.104386 0.00131003 0)
(0.101166 0.00114116 0)
(0.0981887 0.00100475 0)
(0.0954306 0.000893898 0)
(0.0928703 0.000802926 0)
(0.0904882 0.000727338 0)
(0.0882666 0.000663662 0)
(0.0861895 0.00060927 0)
(0.0842427 0.000562196 0)
(0.0824138 0.000520981 0)
(0.0806918 0.00048454 0)
(0.0790667 0.000452056 0)
(0.0775301 0.000422907 0)
(0.0760741 0.00039661 0)
(0.0746922 0.000372781 0)
(0.0733781 0.000351105 0)
(0.0721265 0.000331324 0)
(0.0709326 0.000313218 0)
(0.069792 0.000296599 0)
(0.0687008 0.000281307 0)
(0.0676556 0.000267199 0)
(0.0666532 0.000254154 0)
(0.0656906 0.000242065 0)
(0.0647653 0.000230837 0)
(0.0638748 0.000220387 0)
(0.0630171 0.000210643 0)
(0.06219 0.000201539 0)
(0.0613918 0.00019302 0)
(0.0606209 0.000185033 0)
(0.0598756 0.000177535 0)
(0.0591545 0.000170484 0)
(0.0584563 0.000163846 0)
(0.0577799 0.000157586 0)
(0.057124 0.000151677 0)
(0.0564876 0.000146092 0)
(0.0558698 0.000140808 0)
(0.0552696 0.000135803 0)
(0.0546862 0.000131056 0)
(0.0541188 0.000126552 0)
(0.0535666 0.000122273 0)
(0.053029 0.000118204 0)
(0.0525053 0.000114332 0)
(0.0519949 0.000110644 0)
(0.0514972 0.000107129 0)
(0.0510117 0.000103777 0)
(0.0505378 0.000100577 0)
(0.0500751 9.75209e-05 0)
(0.0496231 9.46e-05 0)
(0.0491814 9.18068e-05 0)
(0.0487495 8.91341e-05 0)
(0.0483271 8.65753e-05 0)
(0.0479139 8.41244e-05 0)
(0.0475093 8.17757e-05 0)
(0.0471133 7.95239e-05 0)
(0.0467253 7.7364e-05 0)
(0.0463451 7.52918e-05 0)
(0.0459725 7.33027e-05 0)
(0.045607 7.13928e-05 0)
(0.0452486 6.95588e-05 0)
(0.0448968 6.77969e-05 0)
(0.0445516 6.6104e-05 0)
(0.0442126 6.44775e-05 0)
(0.0438795 6.29144e-05 0)
(0.0435523 6.14122e-05 0)
(0.0432307 5.99688e-05 0)
(0.0429144 5.8582e-05 0)
(0.0426033 5.72499e-05 0)
(0.0422972 5.59707e-05 0)
(0.0419958 5.4743e-05 0)
(0.0416991 5.35654e-05 0)
(0.0414068 5.2437e-05 0)
(0.0411187 5.13569e-05 0)
(0.0408346 5.03249e-05 0)
(0.0405544 4.93414e-05 0)
(0.0402779 4.84081e-05 0)
(0.0400049 4.75295e-05 0)
(0.039735 4.67155e-05 0)
(0.0394681 4.59904e-05 0)
(0.0392037 4.54171e-05 0)
(0.0389409 4.51753e-05 0)
(0.0386762 4.57295e-05 0)
(0.03843 5.01468e-05 0)
(0.0379276 0.000119997 0)
(0.193456 0.00899876 0)
(0.194262 0.00995786 0)
(0.194405 0.010289 0)
(0.193738 0.0102915 0)
(0.19238 0.0100664 0)
(0.190454 0.00965203 0)
(0.188053 0.00909309 0)
(0.185268 0.00843915 0)
(0.182193 0.00773533 0)
(0.178918 0.00701982 0)
(0.17552 0.00632329 0)
(0.172064 0.00566838 0)
(0.168601 0.00506955 0)
(0.165171 0.00453389 0)
(0.161802 0.00406255 0)
(0.158515 0.00365244 0)
(0.155322 0.00329783 0)
(0.15223 0.00299184 0)
(0.149243 0.00272737 0)
(0.146362 0.00249781 0)
(0.143585 0.00229736 0)
(0.140911 0.00212111 0)
(0.138335 0.00196506 0)
(0.135856 0.00182599 0)
(0.133469 0.0017013 0)
(0.131172 0.00158893 0)
(0.128959 0.00148722 0)
(0.126829 0.00139481 0)
(0.124776 0.00131059 0)
(0.122799 0.00123362 0)
(0.120893 0.00116311 0)
(0.119055 0.00109836 0)
(0.117283 0.00103879 0)
(0.115573 0.00098388 0)
(0.113922 0.000933163 0)
(0.112327 0.000886237 0)
(0.110786 0.000842739 0)
(0.109296 0.000802348 0)
(0.107855 0.000764778 0)
(0.106461 0.000729774 0)
(0.105111 0.000697107 0)
(0.103802 0.000666572 0)
(0.102535 0.000637988 0)
(0.101305 0.000611189 0)
(0.100112 0.00058603 0)
(0.0989537 0.000562377 0)
(0.0978288 0.000540112 0)
(0.0967357 0.000519126 0)
(0.095673 0.000499322 0)
(0.0946393 0.000480612 0)
(0.0936335 0.000462917 0)
(0.0926543 0.000446163 0)
(0.0917005 0.000430285 0)
(0.0907712 0.000415222 0)
(0.0898653 0.000400918 0)
(0.0889818 0.000387325 0)
(0.0881198 0.000374394 0)
(0.0872786 0.000362085 0)
(0.0864572 0.000350357 0)
(0.085655 0.000339175 0)
(0.0848711 0.000328506 0)
(0.0841048 0.00031832 0)
(0.0833556 0.000308587 0)
(0.0826227 0.000299282 0)
(0.0819056 0.000290381 0)
(0.0812037 0.000281862 0)
(0.0805164 0.000273702 0)
(0.0798433 0.000265884 0)
(0.0791838 0.000258389 0)
(0.0785374 0.0002512 0)
(0.0779037 0.000244302 0)
(0.0772823 0.000237681 0)
(0.0766727 0.000231322 0)
(0.0760745 0.000225213 0)
(0.0754873 0.000219342 0)
(0.0749109 0.0002137 0)
(0.0743447 0.000208274 0)
(0.0737885 0.000203056 0)
(0.0732419 0.000198037 0)
(0.0727047 0.000193209 0)
(0.0721764 0.000188563 0)
(0.0716568 0.000184094 0)
(0.0711456 0.000179795 0)
(0.0706426 0.000175659 0)
(0.0701473 0.000171682 0)
(0.0696596 0.000167858 0)
(0.0691792 0.000164183 0)
(0.0687058 0.000160654 0)
(0.0682392 0.000157267 0)
(0.0677791 0.000154022 0)
(0.0673251 0.000150918 0)
(0.0668772 0.000147959 0)
(0.0664348 0.000145153 0)
(0.0659979 0.000142525 0)
(0.0655658 0.00014013 0)
(0.0651381 0.000138119 0)
(0.0647135 0.00013692 0)
(0.0642887 0.000137919 0)
(0.0638769 0.000151864 0)
(0.0632255 0.000237658 0)
(0.194483 0.00835144 0)
(0.195669 0.00940846 0)
(0.19674 0.00996334 0)
(0.19748 0.0102023 0)
(0.197867 0.0102094 0)
(0.19791 0.0100169 0)
(0.197607 0.00966068 0)
(0.196967 0.00918358 0)
(0.196017 0.00862743 0)
(0.194795 0.00802951 0)
(0.193345 0.00742148 0)
(0.191711 0.00682846 0)
(0.189934 0.00626845 0)
(0.188053 0.00575256 0)
(0.186099 0.00528598 0)
(0.184097 0.0048693 0)
(0.182067 0.00450002 0)
(0.180025 0.00417378 0)
(0.177982 0.00388541 0)
(0.175946 0.00362966 0)
(0.173924 0.00340162 0)
(0.171919 0.00319697 0)
(0.169935 0.00301206 0)
(0.167974 0.00284388 0)
(0.166039 0.00269 0)
(0.16413 0.00254847 0)
(0.16225 0.00241772 0)
(0.160399 0.0022965 0)
(0.158578 0.00218379 0)
(0.156787 0.00207874 0)
(0.155028 0.00198064 0)
(0.1533 0.00188888 0)
(0.151605 0.00180294 0)
(0.149941 0.00172235 0)
(0.148309 0.00164668 0)
(0.146709 0.00157557 0)
(0.145141 0.00150868 0)
(0.143604 0.00144569 0)
(0.142098 0.00138632 0)
(0.140623 0.00133031 0)
(0.139178 0.00127743 0)
(0.137763 0.00122746 0)
(0.136377 0.0011802 0)
(0.135019 0.00113546 0)
(0.133689 0.00109308 0)
(0.132387 0.0010529 0)
(0.131111 0.00101476 0)
(0.129862 0.000978556 0)
(0.128638 0.000944147 0)
(0.127439 0.000911423 0)
(0.126264 0.00088028 0)
(0.125112 0.000850622 0)
(0.123984 0.000822357 0)
(0.122878 0.000795404 0)
(0.121794 0.000769684 0)
(0.120731 0.000745125 0)
(0.119689 0.000721662 0)
(0.118666 0.000699231 0)
(0.117664 0.000677776 0)
(0.11668 0.000657242 0)
(0.115714 0.000637579 0)
(0.114767 0.00061874 0)
(0.113837 0.000600682 0)
(0.112924 0.000583364 0)
(0.112027 0.000566748 0)
(0.111147 0.000550798 0)
(0.110282 0.00053548 0)
(0.109432 0.000520764 0)
(0.108597 0.000506621 0)
(0.107776 0.000493022 0)
(0.106969 0.000479942 0)
(0.106176 0.000467358 0)
(0.105396 0.000455246 0)
(0.104628 0.000443585 0)
(0.103873 0.000432356 0)
(0.10313 0.00042154 0)
(0.102399 0.00041112 0)
(0.101679 0.000401078 0)
(0.100971 0.000391401 0)
(0.100273 0.000382074 0)
(0.0995855 0.000373084 0)
(0.0989082 0.000364417 0)
(0.0982408 0.000356064 0)
(0.097583 0.000348014 0)
(0.0969345 0.000340256 0)
(0.096295 0.000332782 0)
(0.0956642 0.000325585 0)
(0.0950419 0.000318658 0)
(0.0944277 0.000311996 0)
(0.0938215 0.000305595 0)
(0.0932228 0.000299456 0)
(0.0926315 0.000293582 0)
(0.0920471 0.000287989 0)
(0.0914694 0.000282713 0)
(0.0908979 0.000277847 0)
(0.0903319 0.000273635 0)
(0.0897704 0.000270785 0)
(0.0892105 0.00027178 0)
(0.0886618 0.000290883 0)
(0.0879109 0.000373099 0)
(0.195195 0.00784037 0)
(0.196255 0.00883842 0)
(0.197381 0.00943393 0)
(0.1984 0.0097476 0)
(0.199268 0.00985372 0)
(0.199971 0.00978239 0)
(0.200481 0.00955995 0)
(0.200778 0.00921891 0)
(0.200853 0.00879307 0)
(0.200714 0.00831403 0)
(0.200375 0.00780988 0)
(0.199857 0.00730418 0)
(0.199186 0.00681502 0)
(0.198385 0.00635477 0)
(0.197478 0.00593056 0)
(0.196485 0.00554519 0)
(0.195425 0.00519831 0)
(0.194311 0.00488747 0)
(0.193154 0.00460909 0)
(0.191963 0.00435917 0)
(0.190745 0.00413375 0)
(0.189504 0.00392923 0)
(0.188245 0.00374246 0)
(0.186971 0.00357081 0)
(0.185684 0.00341212 0)
(0.184388 0.00326464 0)
(0.183084 0.00312698 0)
(0.181774 0.00299799 0)
(0.18046 0.00287677 0)
(0.179144 0.00276256 0)
(0.177828 0.00265475 0)
(0.176512 0.00255279 0)
(0.175199 0.00245624 0)
(0.173889 0.00236469 0)
(0.172584 0.00227778 0)
(0.171285 0.00219521 0)
(0.169993 0.00211668 0)
(0.168708 0.00204192 0)
(0.167432 0.00197072 0)
(0.166165 0.00190284 0)
(0.164908 0.00183809 0)
(0.163661 0.00177628 0)
(0.162426 0.00171724 0)
(0.161201 0.00166082 0)
(0.159989 0.00160687 0)
(0.158789 0.00155525 0)
(0.157601 0.00150584 0)
(0.156426 0.00145852 0)
(0.155263 0.00141318 0)
(0.154114 0.00136971 0)
(0.152978 0.00132803 0)
(0.151855 0.00128804 0)
(0.150745 0.00124966 0)
(0.149649 0.00121281 0)
(0.148566 0.00117741 0)
(0.147497 0.00114339 0)
(0.14644 0.00111069 0)
(0.145397 0.00107924 0)
(0.144367 0.00104899 0)
(0.14335 0.00101988 0)
(0.142346 0.00099186 0)
(0.141355 0.000964876 0)
(0.140377 0.000938884 0)
(0.139411 0.000913839 0)
(0.138457 0.000889701 0)
(0.137516 0.000866429 0)
(0.136586 0.000843985 0)
(0.135669 0.000822336 0)
(0.134764 0.000801447 0)
(0.13387 0.000781287 0)
(0.132987 0.000761825 0)
(0.132116 0.000743034 0)
(0.131255 0.000724887 0)
(0.130406 0.000707358 0)
(0.129567 0.000690424 0)
(0.128739 0.000674061 0)
(0.127921 0.00065825 0)
(0.127113 0.000642969 0)
(0.126314 0.0006282 0)
(0.125526 0.000613924 0)
(0.124747 0.000600127 0)
(0.123977 0.000586791 0)
(0.123217 0.000573903 0)
(0.122465 0.000561449 0)
(0.121722 0.000549417 0)
(0.120988 0.000537796 0)
(0.120262 0.000526576 0)
(0.119544 0.000515749 0)
(0.118834 0.000505309 0)
(0.118131 0.000495251 0)
(0.117436 0.000485576 0)
(0.116748 0.000476289 0)
(0.116067 0.000467414 0)
(0.115392 0.000459 0)
(0.114724 0.000451174 0)
(0.114062 0.000444268 0)
(0.113404 0.000439234 0)
(0.112749 0.000439318 0)
(0.112108 0.000458305 0)
(0.111298 0.00052384 0)
(0.195797 0.00740038 0)
(0.196689 0.00830102 0)
(0.197695 0.00888645 0)
(0.198684 0.00922667 0)
(0.199609 0.00938041 0)
(0.200453 0.00937558 0)
(0.20119 0.00923387 0)
(0.201798 0.00898147 0)
(0.202263 0.00864664 0)
(0.202578 0.00825644 0)
(0.202747 0.00783538 0)
(0.202778 0.00740451 0)
(0.202685 0.00698056 0)
(0.202482 0.00657565 0)
(0.202185 0.0061974 0)
(0.201808 0.00584966 0)
(0.201364 0.00553331 0)
(0.200864 0.00524721 0)
(0.200316 0.00498894 0)
(0.199727 0.00475552 0)
(0.199103 0.00454378 0)
(0.198448 0.00435073 0)
(0.197764 0.00417367 0)
(0.197054 0.00401028 0)
(0.196321 0.00385863 0)
(0.195565 0.00371712 0)
(0.194789 0.00358444 0)
(0.193993 0.00345955 0)
(0.19318 0.00334158 0)
(0.19235 0.00322984 0)
(0.191505 0.00312374 0)
(0.190646 0.0030228 0)
(0.189774 0.0029266 0)
(0.18889 0.00283478 0)
(0.187995 0.00274704 0)
(0.187091 0.00266308 0)
(0.186178 0.00258268 0)
(0.185258 0.00250559 0)
(0.184331 0.00243163 0)
(0.183399 0.00236061 0)
(0.182461 0.00229237 0)
(0.181519 0.00222675 0)
(0.180574 0.00216361 0)
(0.179627 0.00210283 0)
(0.178678 0.00204429 0)
(0.177727 0.00198787 0)
(0.176776 0.00193348 0)
(0.175825 0.00188102 0)
(0.174875 0.0018304 0)
(0.173925 0.00178154 0)
(0.172977 0.00173436 0)
(0.172032 0.0016888 0)
(0.171088 0.00164477 0)
(0.170148 0.00160222 0)
(0.169211 0.00156109 0)
(0.168278 0.00152132 0)
(0.167348 0.00148285 0)
(0.166423 0.00144563 0)
(0.165502 0.00140962 0)
(0.164586 0.00137476 0)
(0.163674 0.00134102 0)
(0.162768 0.00130835 0)
(0.161868 0.00127672 0)
(0.160972 0.00124607 0)
(0.160083 0.00121639 0)
(0.159199 0.00118763 0)
(0.158322 0.00115975 0)
(0.15745 0.00113274 0)
(0.156584 0.00110655 0)
(0.155725 0.00108117 0)
(0.154872 0.00105655 0)
(0.154025 0.00103269 0)
(0.153185 0.00100954 0)
(0.152351 0.000987097 0)
(0.151523 0.000965326 0)
(0.150702 0.00094421 0)
(0.149887 0.000923728 0)
(0.149079 0.000903861 0)
(0.148277 0.000884592 0)
(0.147481 0.000865901 0)
(0.146692 0.000847775 0)
(0.145909 0.000830197 0)
(0.145132 0.000813154 0)
(0.144361 0.000796632 0)
(0.143597 0.000780621 0)
(0.142839 0.000765108 0)
(0.142086 0.000750086 0)
(0.14134 0.000735547 0)
(0.140599 0.000721484 0)
(0.139864 0.000707896 0)
(0.139134 0.000694784 0)
(0.13841 0.00068216 0)
(0.137691 0.000670052 0)
(0.136978 0.000658525 0)
(0.136268 0.000647734 0)
(0.135564 0.00063807 0)
(0.134863 0.000630621 0)
(0.134166 0.000628739 0)
(0.133486 0.000643231 0)
(0.132662 0.000684837 0)
(0.196322 0.00702249 0)
(0.197077 0.00782583 0)
(0.197952 0.00838465 0)
(0.198848 0.00873227 0)
(0.199719 0.00891062 0)
(0.200542 0.00894471 0)
(0.201299 0.00885391 0)
(0.20197 0.00866054 0)
(0.202541 0.00838895 0)
(0.203006 0.00806282 0)
(0.203364 0.00770373 0)
(0.20362 0.00733042 0)
(0.20378 0.00695815 0)
(0.203855 0.00659832 0)
(0.203857 0.00625859 0)
(0.203794 0.00594327 0)
(0.203678 0.00565405 0)
(0.203516 0.00539067 0)
(0.203315 0.00515161 0)
(0.20308 0.00493464 0)
(0.202816 0.00473725 0)
(0.202526 0.00455694 0)
(0.202211 0.00439138 0)
(0.201873 0.00423852 0)
(0.201513 0.00409658 0)
(0.201133 0.00396407 0)
(0.200733 0.00383979 0)
(0.200314 0.0037227 0)
(0.199876 0.003612 0)
(0.19942 0.00350699 0)
(0.198947 0.00340712 0)
(0.198457 0.0033119 0)
(0.19795 0.00322094 0)
(0.197428 0.00313388 0)
(0.196891 0.00305043 0)
(0.196339 0.00297033 0)
(0.195774 0.00289334 0)
(0.195195 0.00281926 0)
(0.194604 0.0027479 0)
(0.194 0.0026791 0)
(0.193386 0.00261271 0)
(0.19276 0.00254858 0)
(0.192124 0.0024866 0)
(0.191478 0.00242665 0)
(0.190824 0.00236864 0)
(0.19016 0.00231246 0)
(0.189489 0.00225803 0)
(0.188809 0.00220527 0)
(0.188123 0.00215411 0)
(0.187431 0.00210447 0)
(0.186732 0.0020563 0)
(0.186027 0.00200953 0)
(0.185318 0.00196412 0)
(0.184604 0.00192 0)
(0.183885 0.00187713 0)
(0.183163 0.00183547 0)
(0.182437 0.00179496 0)
(0.181708 0.00175558 0)
(0.180977 0.00171728 0)
(0.180243 0.00168003 0)
(0.179507 0.00164379 0)
(0.178769 0.00160853 0)
(0.17803 0.00157421 0)
(0.17729 0.00154082 0)
(0.176549 0.00150831 0)
(0.175808 0.00147667 0)
(0.175066 0.00144587 0)
(0.174324 0.00141587 0)
(0.173583 0.00138667 0)
(0.172842 0.00135824 0)
(0.172102 0.00133055 0)
(0.171362 0.00130359 0)
(0.170624 0.00127733 0)
(0.169887 0.00125176 0)
(0.169151 0.00122686 0)
(0.168417 0.00120262 0)
(0.167684 0.001179 0)
(0.166954 0.00115602 0)
(0.166225 0.00113363 0)
(0.165498 0.00111184 0)
(0.164774 0.00109064 0)
(0.164051 0.00107 0)
(0.163331 0.00104992 0)
(0.162613 0.00103038 0)
(0.161898 0.00101139 0)
(0.161185 0.000992928 0)
(0.160475 0.000974992 0)
(0.159767 0.000957578 0)
(0.159062 0.000940682 0)
(0.158359 0.000924307 0)
(0.157659 0.000908458 0)
(0.156962 0.000893151 0)
(0.156267 0.000878421 0)
(0.155574 0.000864345 0)
(0.154883 0.000851093 0)
(0.154195 0.000839078 0)
(0.153509 0.000829358 0)
(0.152827 0.000824766 0)
(0.152162 0.000832023 0)
(0.151374 0.000847619 0)
(0.196785 0.00669525 0)
(0.197433 0.00740886 0)
(0.198194 0.00793234 0)
(0.198994 0.00827614 0)
(0.199789 0.00846766 0)
(0.200555 0.00852792 0)
(0.201273 0.00847409 0)
(0.201927 0.00832526 0)
(0.202505 0.0081024 0)
(0.203001 0.00782626 0)
(0.203413 0.00751598 0)
(0.203743 0.00718837 0)
(0.203999 0.00685738 0)
(0.204186 0.00653373 0)
(0.204315 0.00622497 0)
(0.204393 0.00593572 0)
(0.204428 0.00566824 0)
(0.204428 0.00542298 0)
(0.204399 0.00519913 0)
(0.204344 0.00499511 0)
(0.204268 0.00480899 0)
(0.204172 0.0046387 0)
(0.20406 0.00448226 0)
(0.203931 0.00433786 0)
(0.203787 0.00420389 0)
(0.203628 0.00407899 0)
(0.203455 0.003962 0)
(0.203267 0.00385196 0)
(0.203066 0.00374806 0)
(0.202851 0.00364963 0)
(0.202622 0.0035561 0)
(0.20238 0.00346701 0)
(0.202124 0.00338193 0)
(0.201855 0.00330053 0)
(0.201573 0.0032225 0)
(0.201278 0.00314758 0)
(0.20097 0.00307554 0)
(0.20065 0.00300616 0)
(0.200317 0.00293926 0)
(0.199973 0.00287467 0)
(0.199616 0.00281225 0)
(0.199248 0.00275187 0)
(0.198869 0.0026934 0)
(0.198478 0.00263673 0)
(0.198077 0.00258176 0)
(0.197665 0.00252841 0)
(0.197243 0.00247659 0)
(0.196811 0.00242622 0)
(0.196369 0.00237724 0)
(0.195918 0.00232958 0)
(0.195458 0.00228318 0)
(0.194989 0.002238 0)
(0.194511 0.00219398 0)
(0.194025 0.00215107 0)
(0.193532 0.00210924 0)
(0.193031 0.00206844 0)
(0.192522 0.00202864 0)
(0.192006 0.0019898 0)
(0.191484 0.00195189 0)
(0.190955 0.00191488 0)
(0.19042 0.00187875 0)
(0.18988 0.00184346 0)
(0.189333 0.00180899 0)
(0.188781 0.00177531 0)
(0.188224 0.00174242 0)
(0.187663 0.00171027 0)
(0.187096 0.00167886 0)
(0.186526 0.00164816 0)
(0.185951 0.00161816 0)
(0.185372 0.00158884 0)
(0.18479 0.00156018 0)
(0.184205 0.00153217 0)
(0.183616 0.00150479 0)
(0.183024 0.00147804 0)
(0.182429 0.00145189 0)
(0.181832 0.00142633 0)
(0.181232 0.00140136 0)
(0.180631 0.00137696 0)
(0.180027 0.00135312 0)
(0.179421 0.00132984 0)
(0.178813 0.0013071 0)
(0.178204 0.0012849 0)
(0.177593 0.00126323 0)
(0.176982 0.00124208 0)
(0.176368 0.00122145 0)
(0.175754 0.00120134 0)
(0.175139 0.00118174 0)
(0.174523 0.00116265 0)
(0.173906 0.00114408 0)
(0.173288 0.00112603 0)
(0.17267 0.00110852 0)
(0.172051 0.00109155 0)
(0.171431 0.00107518 0)
(0.170811 0.00105948 0)
(0.170191 0.00104463 0)
(0.169569 0.001031 0)
(0.168948 0.00101948 0)
(0.16833 0.00101198 0)
(0.167728 0.0010111 0)
(0.167018 0.00100294 0)
(0.197195 0.00640609 0)
(0.19776 0.00703935 0)
(0.198426 0.00752379 0)
(0.199139 0.00785709 0)
(0.199859 0.00805532 0)
(0.200563 0.00813482 0)
(0.20123 0.00811027 0)
(0.201847 0.00799783 0)
(0.202402 0.00781541 0)
(0.20289 0.00758111 0)
(0.203307 0.0073119 0)
(0.203656 0.0070229 0)
(0.203942 0.00672686 0)
(0.20417 0.00643385 0)
(0.204349 0.00615124 0)
(0.204484 0.00588385 0)
(0.204585 0.00563439 0)
(0.204656 0.00540385 0)
(0.204703 0.00519206 0)
(0.20473 0.00499802 0)
(0.204741 0.00482029 0)
(0.204738 0.00465725 0)
(0.204724 0.00450724 0)
(0.204698 0.0043687 0)
(0.204663 0.00424022 0)
(0.204618 0.00412055 0)
(0.204564 0.00400861 0)
(0.204502 0.00390351 0)
(0.20443 0.00380446 0)
(0.20435 0.0037108 0)
(0.204261 0.003622 0)
(0.204162 0.00353756 0)
(0.204055 0.00345708 0)
(0.203939 0.00338022 0)
(0.203814 0.00330666 0)
(0.20368 0.00323614 0)
(0.203537 0.00316841 0)
(0.203385 0.00310326 0)
(0.203223 0.00304051 0)
(0.203052 0.00297997 0)
(0.202872 0.00292151 0)
(0.202683 0.00286498 0)
(0.202484 0.00281026 0)
(0.202277 0.00275724 0)
(0.20206 0.0027058 0)
(0.201834 0.00265587 0)
(0.2016 0.00260734 0)
(0.201356 0.00256016 0)
(0.201103 0.00251424 0)
(0.200842 0.00246953 0)
(0.200572 0.00242596 0)
(0.200293 0.00238347 0)
(0.200006 0.00234203 0)
(0.19971 0.00230158 0)
(0.199406 0.00226208 0)
(0.199094 0.00222349 0)
(0.198774 0.00218579 0)
(0.198446 0.00214892 0)
(0.19811 0.00211287 0)
(0.197767 0.0020776 0)
(0.197416 0.00204309 0)
(0.197058 0.00200931 0)
(0.196693 0.00197624 0)
(0.196321 0.00194386 0)
(0.195942 0.00191215 0)
(0.195556 0.00188108 0)
(0.195164 0.00185065 0)
(0.194765 0.00182084 0)
(0.19436 0.00179163 0)
(0.193949 0.001763 0)
(0.193533 0.00173494 0)
(0.19311 0.00170745 0)
(0.192682 0.0016805 0)
(0.192249 0.0016541 0)
(0.19181 0.00162822 0)
(0.191366 0.00160286 0)
(0.190917 0.00157801 0)
(0.190464 0.00155367 0)
(0.190006 0.00152982 0)
(0.189543 0.00150646 0)
(0.189076 0.00148359 0)
(0.188604 0.00146119 0)
(0.188129 0.00143928 0)
(0.187649 0.00141784 0)
(0.187166 0.00139687 0)
(0.186679 0.00137638 0)
(0.186188 0.00135636 0)
(0.185694 0.00133682 0)
(0.185196 0.00131776 0)
(0.184695 0.00129919 0)
(0.18419 0.00128113 0)
(0.183683 0.0012636 0)
(0.183172 0.00124665 0)
(0.182658 0.00123035 0)
(0.182141 0.00121486 0)
(0.181622 0.00120049 0)
(0.1811 0.00118782 0)
(0.18058 0.00117773 0)
(0.180073 0.00116936 0)
(0.179471 0.00114273 0)
(0.197559 0.00614619 0)
(0.198058 0.00670894 0)
(0.198645 0.00715401 0)
(0.199281 0.00747278 0)
(0.199934 0.00767308 0)
(0.200578 0.00776669 0)
(0.201195 0.00776574 0)
(0.201772 0.00768376 0)
(0.202297 0.00753595 0)
(0.202765 0.00733796 0)
(0.203173 0.00710476 0)
(0.203521 0.0068499 0)
(0.203815 0.00658499 0)
(0.204057 0.00631944 0)
(0.204255 0.00606034 0)
(0.204414 0.00581262 0)
(0.204542 0.00557927 0)
(0.204644 0.00536179 0)
(0.204724 0.00516048 0)
(0.204788 0.00497487 0)
(0.204837 0.00480399 0)
(0.204876 0.00464659 0)
(0.204905 0.00450135 0)
(0.204927 0.00436696 0)
(0.204941 0.0042422 0)
(0.204949 0.00412596 0)
(0.204952 0.00401727 0)
(0.204949 0.00391529 0)
(0.204941 0.00381929 0)
(0.204928 0.00372865 0)
(0.204909 0.00364284 0)
(0.204886 0.00356139 0)
(0.204857 0.0034839 0)
(0.204822 0.00341002 0)
(0.204783 0.00333945 0)
(0.204738 0.00327192 0)
(0.204687 0.00320719 0)
(0.20463 0.00314504 0)
(0.204568 0.00308528 0)
(0.2045 0.00302774 0)
(0.204426 0.00297226 0)
(0.204346 0.0029187 0)
(0.20426 0.00286693 0)
(0.204167 0.00281684 0)
(0.204068 0.00276832 0)
(0.203963 0.00272126 0)
(0.203851 0.0026756 0)
(0.203733 0.00263123 0)
(0.203608 0.0025881 0)
(0.203477 0.00254612 0)
(0.203338 0.00250525 0)
(0.203194 0.00246541 0)
(0.203042 0.00242657 0)
(0.202884 0.00238867 0)
(0.202719 0.00235166 0)
(0.202547 0.00231551 0)
(0.202368 0.00228018 0)
(0.202183 0.00224563 0)
(0.201991 0.00221184 0)
(0.201792 0.00217876 0)
(0.201586 0.00214637 0)
(0.201374 0.00211466 0)
(0.201155 0.00208358 0)
(0.200929 0.00205313 0)
(0.200697 0.00202328 0)
(0.200458 0.00199401 0)
(0.200213 0.0019653 0)
(0.199961 0.00193714 0)
(0.199703 0.00190952 0)
(0.199439 0.00188241 0)
(0.199168 0.00185581 0)
(0.198892 0.0018297 0)
(0.198609 0.00180408 0)
(0.19832 0.00177893 0)
(0.198025 0.00175424 0)
(0.197724 0.00173001 0)
(0.197417 0.00170623 0)
(0.197105 0.00168289 0)
(0.196787 0.00165999 0)
(0.196463 0.00163752 0)
(0.196134 0.00161548 0)
(0.195799 0.00159387 0)
(0.195459 0.00157268 0)
(0.195114 0.00155192 0)
(0.194763 0.00153158 0)
(0.194408 0.00151166 0)
(0.194047 0.00149218 0)
(0.193681 0.00147313 0)
(0.193311 0.00145453 0)
(0.192935 0.00143638 0)
(0.192555 0.0014187 0)
(0.192169 0.00140152 0)
(0.19178 0.00138488 0)
(0.191385 0.00136886 0)
(0.190986 0.00135356 0)
(0.190583 0.00133921 0)
(0.190177 0.00132607 0)
(0.18977 0.00131402 0)
(0.189372 0.00129985 0)
(0.188893 0.0012615 0)
(0.197884 0.0059095 0)
(0.198329 0.00641094 0)
(0.198851 0.00681819 0)
(0.199421 0.00712003 0)
(0.200012 0.00731881 0)
(0.200602 0.00742237 0)
(0.201171 0.00744036 0)
(0.201709 0.00738399 0)
(0.202203 0.00726606 0)
(0.202649 0.00709999 0)
(0.203043 0.0068989 0)
(0.203385 0.00667484 0)
(0.203677 0.00643834 0)
(0.203924 0.00619811 0)
(0.20413 0.00596093 0)
(0.204301 0.00573169 0)
(0.204442 0.00551361 0)
(0.204559 0.00530851 0)
(0.204655 0.00511714 0)
(0.204736 0.00493945 0)
(0.204804 0.00477487 0)
(0.204861 0.00462253 0)
(0.20491 0.00448139 0)
(0.204952 0.0043504 0)
(0.204989 0.00422852 0)
(0.205021 0.0041148 0)
(0.205049 0.00400837 0)
(0.205073 0.00390847 0)
(0.205093 0.00381443 0)
(0.20511 0.00372567 0)
(0.205125 0.00364169 0)
(0.205136 0.00356204 0)
(0.205144 0.00348634 0)
(0.205149 0.00341426 0)
(0.205151 0.00334548 0)
(0.20515 0.00327976 0)
(0.205146 0.00321685 0)
(0.205139 0.00315654 0)
(0.205128 0.00309865 0)
(0.205114 0.00304299 0)
(0.205097 0.00298941 0)
(0.205076 0.00293778 0)
(0.205052 0.00288795 0)
(0.205024 0.00283983 0)
(0.204992 0.00279328 0)
(0.204956 0.00274823 0)
(0.204917 0.00270457 0)
(0.204873 0.00266223 0)
(0.204825 0.00262112 0)
(0.204773 0.00258118 0)
(0.204716 0.00254235 0)
(0.204655 0.00250456 0)
(0.20459 0.00246776 0)
(0.20452 0.0024319 0)
(0.204445 0.00239693 0)
(0.204365 0.0023628 0)
(0.204281 0.00232949 0)
(0.204192 0.00229694 0)
(0.204098 0.00226513 0)
(0.203998 0.00223403 0)
(0.203894 0.00220359 0)
(0.203785 0.00217381 0)
(0.20367 0.00214464 0)
(0.20355 0.00211607 0)
(0.203426 0.00208808 0)
(0.203295 0.00206063 0)
(0.20316 0.00203373 0)
(0.203019 0.00200734 0)
(0.202873 0.00198145 0)
(0.202721 0.00195605 0)
(0.202564 0.00193112 0)
(0.202402 0.00190664 0)
(0.202234 0.00188262 0)
(0.202061 0.00185904 0)
(0.201882 0.00183588 0)
(0.201698 0.00181314 0)
(0.201509 0.00179081 0)
(0.201314 0.00176889 0)
(0.201114 0.00174737 0)
(0.200908 0.00172624 0)
(0.200697 0.00170551 0)
(0.20048 0.00168516 0)
(0.200259 0.0016652 0)
(0.200032 0.00164563 0)
(0.199799 0.00162646 0)
(0.199561 0.00160767 0)
(0.199318 0.00158928 0)
(0.19907 0.00157129 0)
(0.198816 0.00155371 0)
(0.198557 0.00153656 0)
(0.198293 0.00151986 0)
(0.198024 0.00150362 0)
(0.197749 0.00148788 0)
(0.197469 0.00147271 0)
(0.197184 0.00145818 0)
(0.196895 0.00144439 0)
(0.196602 0.00143131 0)
(0.196307 0.00141808 0)
(0.196017 0.00140023 0)
(0.195658 0.0013568 0)
(0.198176 0.00569167 0)
(0.198577 0.00613998 0)
(0.199044 0.00651187 0)
(0.199556 0.00679566 0)
(0.200092 0.00699025 0)
(0.200632 0.00710036 0)
(0.201157 0.00713338 0)
(0.201658 0.00709846 0)
(0.202122 0.00700629 0)
(0.202546 0.00686831 0)
(0.202924 0.00669591 0)
(0.203257 0.00649977 0)
(0.203546 0.00628937 0)
(0.203793 0.00607271 0)
(0.204003 0.0058562 0)
(0.20418 0.00564463 0)
(0.204329 0.00544134 0)
(0.204455 0.00524839 0)
(0.204561 0.00506686 0)
(0.204652 0.00489707 0)
(0.20473 0.00473879 0)
(0.204797 0.00459147 0)
(0.204857 0.00445436 0)
(0.204909 0.00432662 0)
(0.204957 0.00420741 0)
(0.205 0.00409592 0)
(0.205039 0.00399139 0)
(0.205075 0.00389315 0)
(0.205108 0.0038006 0)
(0.205139 0.00371319 0)
(0.205168 0.00363046 0)
(0.205194 0.00355199 0)
(0.205219 0.00347743 0)
(0.205241 0.00340644 0)
(0.205262 0.00333875 0)
(0.205282 0.0032741 0)
(0.205299 0.00321226 0)
(0.205315 0.00315302 0)
(0.205329 0.00309621 0)
(0.205341 0.00304164 0)
(0.205351 0.00298917 0)
(0.20536 0.00293866 0)
(0.205367 0.00288998 0)
(0.205371 0.00284302 0)
(0.205374 0.00279767 0)
(0.205374 0.00275383 0)
(0.205373 0.00271141 0)
(0.205369 0.00267032 0)
(0.205363 0.0026305 0)
(0.205354 0.00259186 0)
(0.205343 0.00255436 0)
(0.205329 0.00251791 0)
(0.205313 0.00248248 0)
(0.205294 0.002448 0)
(0.205272 0.00241443 0)
(0.205247 0.00238173 0)
(0.205219 0.00234984 0)
(0.205188 0.00231874 0)
(0.205154 0.00228839 0)
(0.205117 0.00225875 0)
(0.205076 0.00222979 0)
(0.205033 0.00220149 0)
(0.204985 0.00217381 0)
(0.204934 0.00214673 0)
(0.20488 0.00212023 0)
(0.204821 0.00209428 0)
(0.204759 0.00206887 0)
(0.204694 0.00204398 0)
(0.204624 0.00201958 0)
(0.20455 0.00199566 0)
(0.204473 0.00197221 0)
(0.204391 0.00194921 0)
(0.204306 0.00192665 0)
(0.204216 0.00190452 0)
(0.204122 0.00188281 0)
(0.204023 0.0018615 0)
(0.203921 0.0018406 0)
(0.203814 0.00182008 0)
(0.203702 0.00179996 0)
(0.203586 0.00178021 0)
(0.203466 0.00176084 0)
(0.203341 0.00174185 0)
(0.203212 0.00172323 0)
(0.203078 0.00170498 0)
(0.202939 0.00168711 0)
(0.202796 0.00166961 0)
(0.202648 0.00165249 0)
(0.202495 0.00163576 0)
(0.202338 0.00161943 0)
(0.202176 0.0016035 0)
(0.202009 0.001588 0)
(0.201837 0.00157295 0)
(0.20166 0.00155838 0)
(0.201478 0.00154433 0)
(0.201292 0.00153084 0)
(0.201101 0.00151789 0)
(0.200906 0.00150522 0)
(0.20071 0.00149153 0)
(0.200515 0.00147203 0)