/*--------------------------------*- C++ -*----------------------------------*\
| =========                 |                                                 |
| \\      /  F ield         | OpenFOAM: The Open Source CFD Toolbox           |
|  \\    /   O peration     | Version:  2.3.0                                 |
|   \\  /    A nd           | Web:      www.OpenFOAM.org                      |
|    \\/     M anipulation  |                                                 |
\*---------------------------------------------------------------------------*/
FoamFile
{
    version     2.0;
    format      ascii;
    class       surfaceScalarField;
    location    "0.9";
    object      phi;
}
// * * * * * * * * * * * * * * * * * * * * * * * * * * * * * * * * * * * * * //

dimensions      [0 3 -1 0 0 0 0];

internalField   nonuniform List<scalar> 
3859
(
2.88216e-08
2.77032e-09
-3.15919e-08
2.53567e-08
3.46489e-09
2.1915e-08
3.44166e-09
1.87276e-08
3.18741e-09
1.58267e-08
2.90088e-09
1.32905e-08
2.53627e-09
1.12128e-08
2.0777e-09
9.60776e-09
1.605e-09
8.43762e-09
1.17014e-09
7.61647e-09
8.21142e-10
7.04624e-09
5.70237e-10
6.64263e-09
4.03608e-10
6.3434e-09
2.99227e-10
6.10599e-09
2.37413e-10
5.90216e-09
2.03834e-10
5.71564e-09
1.86519e-10
5.53895e-09
1.76688e-10
5.36977e-09
1.69175e-10
5.20817e-09
1.61602e-10
5.05491e-09
1.53264e-10
4.91066e-09
1.44251e-10
4.77572e-09
1.3494e-10
4.64999e-09
1.25724e-10
4.53307e-09
1.16917e-10
4.42436e-09
1.08717e-10
4.32313e-09
1.01226e-10
4.22867e-09
9.44644e-11
4.14025e-09
8.84135e-11
4.05724e-09
8.30116e-11
3.97905e-09
7.81931e-11
3.90517e-09
7.3877e-11
3.83517e-09
6.99994e-11
3.76868e-09
6.64893e-11
3.70538e-09
6.33004e-11
3.64501e-09
6.03779e-11
3.58731e-09
5.76937e-11
3.53211e-09
5.52068e-11
3.4792e-09
5.29034e-11
3.42845e-09
5.07516e-11
3.3797e-09
4.87483e-11
3.33284e-09
4.68661e-11
3.28773e-09
4.51095e-11
3.24427e-09
4.34526e-11
3.20237e-09
4.19057e-11
3.16193e-09
4.04415e-11
3.12285e-09
3.90757e-11
3.08507e-09
3.77783e-11
3.0485e-09
3.65697e-11
3.01309e-09
3.54164e-11
2.97874e-09
3.43441e-11
2.94543e-09
3.33149e-11
2.91307e-09
3.23604e-11
2.88163e-09
3.1437e-11
2.85105e-09
3.05841e-11
2.8213e-09
2.97508e-11
2.79231e-09
2.89854e-11
2.76408e-09
2.82284e-11
2.73654e-09
2.75386e-11
2.7097e-09
2.68463e-11
2.68347e-09
2.62222e-11
2.65789e-09
2.55845e-11
2.63287e-09
2.50184e-11
2.60844e-09
2.44267e-11
2.58453e-09
2.39122e-11
2.56117e-09
2.33594e-11
2.53828e-09
2.28914e-11
2.51591e-09
2.23713e-11
2.49396e-09
2.19461e-11
2.47251e-09
2.14527e-11
2.45144e-09
2.10679e-11
2.43085e-09
2.05959e-11
2.4106e-09
2.02501e-11
2.3908e-09
1.97946e-11
2.37132e-09
1.9487e-11
2.35227e-09
1.90434e-11
2.3335e-09
1.87747e-11
2.31516e-09
1.83377e-11
2.29705e-09
1.81098e-11
2.27938e-09
1.76747e-11
2.26189e-09
1.74901e-11
2.24483e-09
1.7052e-11
2.22792e-09
1.69161e-11
2.21145e-09
1.6468e-11
2.19506e-09
1.63884e-11
2.17914e-09
1.59231e-11
2.16323e-09
1.59086e-11
2.14781e-09
1.5419e-11
2.13233e-09
1.54828e-11
2.11737e-09
1.49573e-11
2.10225e-09
1.51191e-11
2.08771e-09
1.45423e-11
2.07288e-09
1.48286e-11
2.0587e-09
1.41814e-11
2.04407e-09
1.46295e-11
2.03019e-09
1.3882e-11
2.01563e-09
1.45536e-11
2.00198e-09
1.36544e-11
1.9873e-09
1.46801e-11
1.97373e-09
1.35727e-11
1.70886e-11
3.62376e-08
2.47166e-09
-3.5939e-08
3.60723e-08
3.63024e-09
3.53686e-08
4.14538e-09
3.43818e-08
4.17412e-09
3.32252e-08
4.05752e-09
3.19187e-08
3.84277e-09
3.0486e-08
3.51045e-09
2.90038e-08
3.08721e-09
2.75475e-08
2.62643e-09
2.61716e-08
2.197e-09
2.49e-08
1.84181e-09
2.37347e-08
1.56897e-09
2.26726e-08
1.36128e-09
2.17124e-08
1.19765e-09
2.08444e-08
1.07177e-09
2.00583e-08
9.72648e-10
1.93439e-08
8.91107e-10
1.86921e-08
8.2096e-10
1.80951e-08
7.58575e-10
1.75464e-08
7.02033e-10
1.70403e-08
6.50366e-10
1.65721e-08
6.03106e-10
1.61378e-08
5.59982e-10
1.57339e-08
5.20804e-10
1.53573e-08
4.85354e-10
1.50051e-08
4.53381e-10
1.4675e-08
4.24598e-10
1.43647e-08
3.98717e-10
1.40723e-08
3.75416e-10
1.37961e-08
3.54403e-10
1.35346e-08
3.35382e-10
1.32865e-08
3.18107e-10
1.30506e-08
3.02338e-10
1.2826e-08
2.87894e-10
1.26118e-08
2.74593e-10
1.24072e-08
2.62313e-10
1.22115e-08
2.5092e-10
1.20241e-08
2.40337e-10
1.18444e-08
2.30461e-10
1.16719e-08
2.21248e-10
1.15061e-08
2.12616e-10
1.13467e-08
2.04543e-10
1.11932e-08
1.96956e-10
1.10452e-08
1.89849e-10
1.09025e-08
1.83154e-10
1.07647e-08
1.76877e-10
1.06315e-08
1.70948e-10
1.05027e-08
1.65386e-10
1.0378e-08
1.60117e-10
1.02572e-08
1.55172e-10
1.014e-08
1.50471e-10
1.00263e-08
1.46057e-10
9.91593e-09
1.41843e-10
9.80863e-09
1.37886e-10
9.70429e-09
1.34089e-10
9.60276e-09
1.30525e-10
9.5039e-09
1.27086e-10
9.40757e-09
1.23861e-10
9.31369e-09
1.20729e-10
9.22212e-09
1.17799e-10
9.13277e-09
1.14931e-10
9.04553e-09
1.12257e-10
8.96034e-09
1.09617e-10
8.87708e-09
1.07169e-10
8.79572e-09
1.04725e-10
8.71613e-09
1.02477e-10
8.6383e-09
1.00204e-10
8.56211e-09
9.81341e-11
8.48755e-09
9.60092e-11
8.41452e-09
9.41007e-11
8.34301e-09
9.21032e-11
8.27292e-09
9.0343e-11
8.20426e-09
8.84556e-11
8.13691e-09
8.68331e-11
8.07092e-09
8.50403e-11
8.00614e-09
8.35486e-11
7.94264e-09
8.18357e-11
7.88028e-09
8.04712e-11
7.81913e-09
7.88259e-11
7.75904e-09
7.75872e-11
7.70009e-09
7.59992e-11
7.64211e-09
7.48906e-11
7.58523e-09
7.33471e-11
7.52924e-09
7.23788e-11
7.4743e-09
7.08693e-11
7.42015e-09
7.00533e-11
7.367e-09
6.85708e-11
7.31456e-09
6.79274e-11
7.26305e-09
6.64603e-11
7.21215e-09
6.60228e-11
7.16213e-09
6.45583e-11
7.11259e-09
6.43706e-11
7.06387e-09
6.28987e-11
7.01548e-09
6.30214e-11
6.96784e-09
6.15273e-11
6.92033e-09
6.20601e-11
6.87347e-09
6.05187e-11
6.82642e-09
6.17279e-11
6.7797e-09
6.02885e-11
6.58499e-11
4.02781e-08
2.34686e-09
-4.01533e-08
4.07051e-08
3.20328e-09
4.09713e-08
3.87921e-09
4.10463e-08
4.09904e-09
4.10064e-08
4.09745e-09
4.08474e-08
4.00178e-09
4.05337e-08
3.82413e-09
4.00653e-08
3.55565e-09
3.94717e-08
3.22003e-09
3.87963e-08
2.87236e-09
3.80761e-08
2.56202e-09
3.73347e-08
2.31037e-09
3.6585e-08
2.11098e-09
3.58332e-08
1.9494e-09
3.50875e-08
1.81749e-09
3.43528e-08
1.70736e-09
3.3632e-08
1.61193e-09
3.29269e-08
1.52604e-09
3.2239e-08
1.44654e-09
3.15692e-08
1.37175e-09
3.09187e-08
1.30087e-09
3.02883e-08
1.23358e-09
2.96784e-08
1.16981e-09
2.90897e-08
1.10956e-09
2.85222e-08
1.05284e-09
2.7976e-08
9.99605e-10
2.74508e-08
9.49779e-10
2.69463e-08
9.03247e-10
2.64618e-08
8.59834e-10
2.59969e-08
8.19358e-10
2.55507e-08
7.81601e-10
2.51224e-08
7.46371e-10
2.47113e-08
7.1346e-10
2.43165e-08
6.82695e-10
2.39372e-08
6.53894e-10
2.35726e-08
6.26919e-10
2.32219e-08
6.01615e-10
2.28844e-08
5.77871e-10
2.25593e-08
5.55558e-10
2.22459e-08
5.34588e-10
2.19437e-08
5.14852e-10
2.16519e-08
4.96279e-10
2.13701e-08
4.78773e-10
2.10977e-08
4.62278e-10
2.08341e-08
4.46709e-10
2.0579e-08
4.32021e-10
2.03318e-08
4.18134e-10
2.00922e-08
4.05016e-10
1.98597e-08
3.92591e-10
1.9634e-08
3.80835e-10
1.94148e-08
3.69679e-10
1.92018e-08
3.59105e-10
1.89946e-08
3.4905e-10
1.8793e-08
3.39503e-10
1.85967e-08
3.30403e-10
1.84054e-08
3.21747e-10
1.8219e-08
3.13478e-10
1.80373e-08
3.05598e-10
1.786e-08
2.98053e-10
1.76869e-08
2.90849e-10
1.75179e-08
2.83937e-10
1.73529e-08
2.77327e-10
1.71915e-08
2.70969e-10
1.70338e-08
2.64879e-10
1.68795e-08
2.59009e-10
1.67286e-08
2.53377e-10
1.65809e-08
2.4794e-10
1.64363e-08
2.42712e-10
1.62946e-08
2.37657e-10
1.6156e-08
2.3279e-10
1.602e-08
2.28075e-10
1.58868e-08
2.23529e-10
1.57561e-08
2.19119e-10
1.56281e-08
2.14862e-10
1.55024e-08
2.10726e-10
1.53792e-08
2.0673e-10
1.52582e-08
2.02844e-10
1.51396e-08
1.99087e-10
1.5023e-08
1.95432e-10
1.49087e-08
1.91894e-10
1.47962e-08
1.88458e-10
1.4686e-08
1.8513e-10
1.45774e-08
1.81902e-10
1.4471e-08
1.78781e-10
1.43662e-08
1.75758e-10
1.42634e-08
1.72841e-10
1.41619e-08
1.70034e-10
1.40625e-08
1.67329e-10
1.39642e-08
1.64748e-10
1.3868e-08
1.62279e-10
1.37726e-08
1.59943e-10
1.36792e-08
1.57746e-10
1.35864e-08
1.55693e-10
1.34956e-08
1.53826e-10
1.3405e-08
1.52093e-10
1.33164e-08
1.50694e-10
1.32276e-08
1.49283e-10
1.31404e-08
1.48921e-10
1.30527e-08
1.48001e-10
1.52705e-10
4.47471e-08
2.29285e-09
-4.46931e-08
4.50641e-08
2.88635e-09
4.54661e-08
3.47719e-09
4.57786e-08
3.78647e-09
4.60193e-08
3.85677e-09
4.62149e-08
3.80623e-09
4.63436e-08
3.69543e-09
4.63786e-08
3.52064e-09
4.63098e-08
3.2888e-09
4.61512e-08
3.03099e-09
4.59283e-08
2.78487e-09
4.5662e-08
2.57667e-09
4.53636e-08
2.40946e-09
4.50374e-08
2.27561e-09
4.46889e-08
2.16594e-09
4.43228e-08
2.07347e-09
4.39419e-08
1.99279e-09
4.35481e-08
1.91986e-09
4.31427e-08
1.85196e-09
4.27269e-08
1.78748e-09
4.23023e-08
1.72554e-09
4.18701e-08
1.66575e-09
4.14319e-08
1.60797e-09
4.09893e-08
1.55219e-09
4.05437e-08
1.49846e-09
4.00965e-08
1.44681e-09
3.9649e-08
1.39727e-09
3.92024e-08
1.34983e-09
3.87578e-08
1.30446e-09
3.83161e-08
1.26107e-09
3.78781e-08
1.21957e-09
3.74446e-08
1.17987e-09
3.70162e-08
1.14187e-09
3.65934e-08
1.10546e-09
3.61767e-08
1.07059e-09
3.57665e-08
1.03715e-09
3.5363e-08
1.0051e-09
3.49666e-08
9.74341e-10
3.45773e-08
9.44863e-10
3.41953e-08
9.16573e-10
3.38207e-08
8.89467e-10
3.34535e-08
8.63451e-10
3.30937e-08
8.38541e-10
3.27414e-08
8.14632e-10
3.23963e-08
7.91755e-10
3.20585e-08
7.69792e-10
3.17279e-08
7.48793e-10
3.14043e-08
7.28621e-10
3.10875e-08
7.09348e-10
3.07775e-08
6.90815e-10
3.04741e-08
6.73121e-10
3.01771e-08
6.5608e-10
2.98864e-08
6.39821e-10
2.96017e-08
6.2413e-10
2.9323e-08
6.09173e-10
2.905e-08
5.94699e-10
2.87826e-08
5.80919e-10
2.85206e-08
5.67537e-10
2.82639e-08
5.5482e-10
2.80123e-08
5.42416e-10
2.77656e-08
5.30656e-10
2.75238e-08
5.19126e-10
2.72865e-08
5.08232e-10
2.70539e-08
4.9748e-10
2.68255e-08
4.87368e-10
2.66016e-08
4.77307e-10
2.63817e-08
4.67905e-10
2.61659e-08
4.58456e-10
2.59539e-08
4.49701e-10
2.57459e-08
4.40795e-10
2.55413e-08
4.3263e-10
2.53406e-08
4.24202e-10
2.51432e-08
4.16583e-10
2.49495e-08
4.08575e-10
2.47587e-08
4.01465e-10
2.45716e-08
3.93826e-10
2.43873e-08
3.87195e-10
2.42065e-08
3.79878e-10
2.40282e-08
3.73712e-10
2.38534e-08
3.66672e-10
2.36809e-08
3.60965e-10
2.35119e-08
3.54167e-10
2.33449e-08
3.4892e-10
2.31813e-08
3.42339e-10
2.30195e-08
3.37568e-10
2.28612e-08
3.31178e-10
2.27043e-08
3.2692e-10
2.25509e-08
3.20707e-10
2.23986e-08
3.17004e-10
2.22499e-08
3.1098e-10
2.2102e-08
3.07887e-10
2.19576e-08
3.02091e-10
2.18137e-08
2.99676e-10
2.16733e-08
2.94203e-10
2.15329e-08
2.92508e-10
2.13959e-08
2.87626e-10
2.12586e-08
2.86616e-10
2.11243e-08
2.83251e-10
2.09891e-08
2.83133e-10
2.8435e-10
4.96967e-08
2.23094e-09
-4.96347e-08
4.99134e-08
2.66966e-09
5.0269e-08
3.12154e-09
5.06109e-08
3.44459e-09
5.08933e-08
3.5744e-09
5.11326e-08
3.56687e-09
5.13411e-08
3.48692e-09
5.15029e-08
3.35884e-09
5.16011e-08
3.19063e-09
5.16342e-08
2.99789e-09
5.16154e-08
2.80368e-09
5.15628e-08
2.62929e-09
5.1487e-08
2.48522e-09
5.13923e-08
2.37032e-09
5.12816e-08
2.27665e-09
5.11574e-08
2.1977e-09
5.10212e-08
2.12898e-09
5.08737e-08
2.06733e-09
5.07151e-08
2.01061e-09
5.05452e-08
1.95734e-09
5.03641e-08
1.90664e-09
5.01719e-08
1.85796e-09
4.99688e-08
1.81103e-09
4.97553e-08
1.7657e-09
4.95318e-08
1.72193e-09
4.9299e-08
1.67967e-09
4.90573e-08
1.63894e-09
4.88075e-08
1.59967e-09
4.855e-08
1.56188e-09
4.82857e-08
1.52543e-09
4.80149e-08
1.49031e-09
4.77384e-08
1.45637e-09
4.74567e-08
1.42361e-09
4.71703e-08
1.39186e-09
4.68797e-08
1.36116e-09
4.65855e-08
1.33133e-09
4.62882e-08
1.30246e-09
4.59882e-08
1.27435e-09
4.56859e-08
1.24714e-09
4.53819e-08
1.2206e-09
4.50764e-08
1.19492e-09
4.477e-08
1.16984e-09
4.4463e-08
1.14561e-09
4.41557e-08
1.12192e-09
4.38484e-08
1.09906e-09
4.35415e-08
1.07667e-09
4.32352e-08
1.05511e-09
4.29298e-08
1.03396e-09
4.26256e-08
1.01364e-09
4.23227e-08
9.9365e-10
4.20213e-08
9.74503e-10
4.17218e-08
9.55603e-10
4.14241e-08
9.37561e-10
4.11285e-08
9.19678e-10
4.0835e-08
9.02674e-10
4.0544e-08
8.85734e-10
4.02552e-08
8.69709e-10
3.99691e-08
8.53635e-10
3.96854e-08
8.38531e-10
3.94046e-08
8.23254e-10
3.91262e-08
8.09013e-10
3.88509e-08
7.94465e-10
3.85781e-08
7.81037e-10
3.83084e-08
7.67151e-10
3.80413e-08
7.54492e-10
3.77774e-08
7.41201e-10
3.7516e-08
7.29272e-10
3.72579e-08
7.16512e-10
3.70024e-08
7.05277e-10
3.67502e-08
6.92989e-10
3.65004e-08
6.82418e-10
3.6254e-08
6.70543e-10
3.601e-08
6.60614e-10
3.57695e-08
6.49092e-10
3.55312e-08
6.39793e-10
3.52964e-08
6.28568e-10
3.50637e-08
6.19892e-10
3.48347e-08
6.08909e-10
3.46075e-08
6.00863e-10
3.43841e-08
5.90068e-10
3.41624e-08
5.82673e-10
3.39446e-08
5.72019e-10
3.37282e-08
5.65297e-10
3.35158e-08
5.54753e-10
3.33046e-08
5.48746e-10
3.30975e-08
5.38276e-10
3.28914e-08
5.33049e-10
3.26895e-08
5.22642e-10
3.24882e-08
5.1826e-10
3.22912e-08
5.07943e-10
3.20946e-08
5.04478e-10
3.19024e-08
4.94328e-10
3.17102e-08
4.91856e-10
3.15224e-08
4.82043e-10
3.13343e-08
4.80608e-10
3.11504e-08
4.71522e-10
3.09659e-08
4.71153e-10
3.07853e-08
4.63822e-10
3.06035e-08
4.64888e-10
4.60941e-10
5.51391e-08
2.15619e-09
-5.50644e-08
5.53085e-08
2.50027e-09
5.55938e-08
2.8363e-09
5.591e-08
3.12833e-09
5.61942e-08
3.2902e-09
5.6433e-08
3.32811e-09
5.66382e-08
3.28167e-09
5.68106e-08
3.18649e-09
5.69407e-08
3.06051e-09
5.70237e-08
2.91493e-09
5.70647e-08
2.76266e-09
5.70761e-08
2.61782e-09
5.70696e-08
2.49173e-09
5.70515e-08
2.38843e-09
5.70246e-08
2.30352e-09
5.69908e-08
2.23154e-09
5.69512e-08
2.16855e-09
5.69067e-08
2.11191e-09
5.68572e-08
2.06004e-09
5.68029e-08
2.01171e-09
5.67432e-08
1.96627e-09
5.66781e-08
1.92309e-09
5.66072e-08
1.88196e-09
5.65303e-08
1.84253e-09
5.64475e-08
1.80482e-09
5.63585e-08
1.76859e-09
5.62635e-08
1.73396e-09
5.61625e-08
1.70068e-09
5.60555e-08
1.66891e-09
5.59426e-08
1.63832e-09
5.58238e-08
1.6091e-09
5.56993e-08
1.58089e-09
5.5569e-08
1.55388e-09
5.54332e-08
1.52768e-09
5.52918e-08
1.50257e-09
5.5145e-08
1.47808e-09
5.49929e-08
1.45458e-09
5.48357e-08
1.43157e-09
5.46733e-08
1.40948e-09
5.45062e-08
1.38776e-09
5.43342e-08
1.36693e-09
5.41577e-08
1.34635e-09
5.39766e-08
1.32666e-09
5.37914e-08
1.30711e-09
5.3602e-08
1.28847e-09
5.34088e-08
1.26985e-09
5.32118e-08
1.25217e-09
5.30113e-08
1.23441e-09
5.28073e-08
1.21763e-09
5.26003e-08
1.20064e-09
5.23901e-08
1.18469e-09
5.21773e-08
1.1684e-09
5.19617e-08
1.15322e-09
5.17438e-08
1.13755e-09
5.15234e-08
1.12309e-09
5.13011e-08
1.10798e-09
5.10766e-08
1.09419e-09
5.08507e-08
1.07957e-09
5.06228e-08
1.06641e-09
5.03939e-08
1.05221e-09
5.01632e-08
1.03965e-09
4.99319e-08
1.02582e-09
4.96991e-08
1.01383e-09
4.94659e-08
1.00031e-09
4.92316e-08
9.88862e-10
4.89972e-08
9.75603e-10
4.87617e-08
9.64686e-10
4.85266e-08
9.51627e-10
4.82907e-08
9.41232e-10
4.80553e-08
9.28327e-10
4.78193e-08
9.18449e-10
4.75842e-08
9.05648e-10
4.73485e-08
8.96295e-10
4.71141e-08
8.83542e-10
4.68791e-08
8.74731e-10
4.66457e-08
8.61979e-10
4.64119e-08
8.53725e-10
4.61799e-08
8.40933e-10
4.59475e-08
8.3327e-10
4.57171e-08
8.20389e-10
4.54864e-08
8.13366e-10
4.52581e-08
8.00362e-10
4.50294e-08
7.94018e-10
4.48032e-08
7.80882e-10
4.45767e-08
7.75278e-10
4.4353e-08
7.61995e-10
4.41288e-08
7.57221e-10
4.39077e-08
7.43805e-10
4.3686e-08
7.39939e-10
4.34675e-08
7.26466e-10
4.32483e-08
7.23591e-10
4.30325e-08
7.10191e-10
4.28159e-08
7.08407e-10
4.26027e-08
6.95307e-10
4.23886e-08
6.94724e-10
4.21777e-08
6.82364e-10
4.19657e-08
6.83188e-10
4.1757e-08
6.72453e-10
4.15468e-08
6.75092e-10
6.66739e-10
6.11288e-08
2.07683e-09
-6.10495e-08
6.12754e-08
2.35367e-09
6.14981e-08
2.61361e-09
6.17729e-08
2.85356e-09
6.20406e-08
3.02248e-09
6.22756e-08
3.09314e-09
6.24734e-08
3.08383e-09
6.26381e-08
3.02175e-09
6.27695e-08
2.9292e-09
6.28649e-08
2.8195e-09
6.29257e-08
2.70187e-09
6.29584e-08
2.58506e-09
6.29725e-08
2.47766e-09
6.29759e-08
2.38506e-09
6.29723e-08
2.30711e-09
6.29637e-08
2.24012e-09
6.29513e-08
2.18095e-09
6.29361e-08
2.12715e-09
6.29185e-08
2.07756e-09
6.28991e-08
2.03114e-09
6.28778e-08
1.98758e-09
6.28547e-08
1.94624e-09
6.28295e-08
1.90712e-09
6.28023e-08
1.86971e-09
6.27729e-08
1.8342e-09
6.27414e-08
1.80013e-09
6.27075e-08
1.76782e-09
6.26715e-08
1.73677e-09
6.2633e-08
1.7074e-09
6.25922e-08
1.67913e-09
6.25488e-08
1.65244e-09
6.25031e-08
1.62665e-09
6.24546e-08
1.60233e-09
6.24036e-08
1.57872e-09
6.23497e-08
1.55647e-09
6.2293e-08
1.53473e-09
6.22333e-08
1.51428e-09
6.21707e-08
1.49416e-09
6.21049e-08
1.47529e-09
6.20361e-08
1.45658e-09
6.19639e-08
1.43912e-09
6.18886e-08
1.42165e-09
6.18098e-08
1.40545e-09
6.17279e-08
1.38908e-09
6.16423e-08
1.37403e-09
6.15535e-08
1.35863e-09
6.14611e-08
1.34461e-09
6.13654e-08
1.33007e-09
6.12661e-08
1.31699e-09
6.11635e-08
1.3032e-09
6.10572e-08
1.29098e-09
6.09478e-08
1.27783e-09
6.08346e-08
1.26638e-09
6.07184e-08
1.25378e-09
6.05985e-08
1.24303e-09
6.04756e-08
1.23089e-09
6.0349e-08
1.22077e-09
6.02196e-08
1.20899e-09
6.00865e-08
1.19945e-09
5.99508e-08
1.18796e-09
5.98115e-08
1.17895e-09
5.96696e-08
1.16766e-09
5.95243e-08
1.15913e-09
5.93767e-08
1.14798e-09
5.92256e-08
1.13991e-09
5.90724e-08
1.12881e-09
5.89159e-08
1.12119e-09
5.87575e-08
1.11007e-09
5.85958e-08
1.10286e-09
5.84325e-08
1.09168e-09
5.82661e-08
1.08488e-09
5.80981e-08
1.07357e-09
5.79273e-08
1.06718e-09
5.77551e-08
1.05568e-09
5.75801e-08
1.04971e-09
5.74041e-08
1.03798e-09
5.72254e-08
1.03244e-09
5.70459e-08
1.02043e-09
5.68639e-08
1.01535e-09
5.66812e-08
1.00303e-09
5.64961e-08
9.98457e-10
5.63107e-08
9.858e-10
5.61229e-08
9.81752e-10
5.5935e-08
9.68783e-10
5.5745e-08
9.65316e-10
5.5555e-08
9.52031e-10
5.53629e-08
9.49243e-10
5.51711e-08
9.35691e-10
5.49774e-08
9.33646e-10
5.47839e-08
9.19944e-10
5.45887e-08
9.18733e-10
5.43939e-08
9.05049e-10
5.41975e-08
9.04806e-10
5.40014e-08
8.91394e-10
5.38038e-08
8.92313e-10
5.36066e-08
8.79612e-10
5.34077e-08
8.82048e-10
5.32094e-08
8.70731e-10
5.30096e-08
8.74945e-10
8.65713e-10
6.77288e-08
1.99857e-09
-6.76505e-08
6.78576e-08
2.2249e-09
6.80379e-08
2.43326e-09
6.82659e-08
2.62562e-09
6.85059e-08
2.78239e-09
6.87293e-08
2.86983e-09
6.8921e-08
2.89213e-09
6.90792e-08
2.8635e-09
6.92066e-08
2.80179e-09
6.93049e-08
2.72124e-09
6.93749e-08
2.63181e-09
6.94199e-08
2.54011e-09
6.94455e-08
2.45206e-09
6.94587e-08
2.37186e-09
6.94642e-08
2.30159e-09
6.94644e-08
2.23989e-09
6.94606e-08
2.18478e-09
6.94537e-08
2.13403e-09
6.94445e-08
2.08678e-09
6.94337e-08
2.04198e-09
6.94215e-08
1.99971e-09
6.94085e-08
1.9593e-09
6.93945e-08
1.92108e-09
6.93798e-08
1.88438e-09
6.93644e-08
1.84965e-09
6.93483e-08
1.81618e-09
6.93316e-08
1.78455e-09
6.93144e-08
1.75399e-09
6.92965e-08
1.72522e-09
6.92783e-08
1.69737e-09
6.92595e-08
1.67126e-09
6.92403e-08
1.64589e-09
6.92204e-08
1.6222e-09
6.92001e-08
1.59906e-09
6.9179e-08
1.57755e-09
6.91573e-08
1.55638e-09
6.91348e-08
1.53681e-09
6.91116e-08
1.51739e-09
6.90873e-08
1.49957e-09
6.90622e-08
1.4817e-09
6.90358e-08
1.46546e-09
6.90085e-08
1.44897e-09
6.89798e-08
1.43417e-09
6.89499e-08
1.41893e-09
6.89185e-08
1.40544e-09
6.88858e-08
1.39131e-09
6.88514e-08
1.37902e-09
6.88156e-08
1.36588e-09
6.87779e-08
1.3547e-09
6.87387e-08
1.34242e-09
6.86974e-08
1.33225e-09
6.86545e-08
1.32073e-09
6.86094e-08
1.31148e-09
6.85626e-08
1.30061e-09
6.85134e-08
1.29219e-09
6.84625e-08
1.28186e-09
6.8409e-08
1.27421e-09
6.83537e-08
1.26432e-09
6.82958e-08
1.25736e-09
6.82359e-08
1.24782e-09
6.81734e-08
1.24148e-09
6.81088e-08
1.23221e-09
6.80416e-08
1.22643e-09
6.79722e-08
1.21733e-09
6.79e-08
1.21208e-09
6.78258e-08
1.20307e-09
6.77486e-08
1.19831e-09
6.76694e-08
1.18931e-09
6.75873e-08
1.18499e-09
6.7503e-08
1.17595e-09
6.74158e-08
1.17204e-09
6.73265e-08
1.16288e-09
6.72343e-08
1.15937e-09
6.714e-08
1.15002e-09
6.70428e-08
1.1469e-09
6.69435e-08
1.13733e-09
6.68413e-08
1.13456e-09
6.6737e-08
1.12475e-09
6.663e-08
1.12235e-09
6.65208e-08
1.11222e-09
6.64091e-08
1.11022e-09
6.62951e-08
1.0998e-09
6.61787e-08
1.09815e-09
6.606e-08
1.08748e-09
6.5939e-08
1.08625e-09
6.58158e-08
1.0753e-09
6.56904e-08
1.07457e-09
6.55627e-08
1.06344e-09
6.54331e-08
1.06325e-09
6.5301e-08
1.05206e-09
6.51672e-08
1.05249e-09
6.50308e-08
1.04142e-09
6.4893e-08
1.04264e-09
6.47524e-08
1.03196e-09
6.46105e-08
1.03422e-09
6.44658e-08
1.02432e-09
6.43199e-08
1.028e-09
6.41712e-08
1.01942e-09
6.40215e-08
1.02467e-09
1.01837e-09
6.79273e-08
1.93342e-09
-6.78622e-08
6.80286e-08
2.12368e-09
6.81656e-08
2.29624e-09
6.83356e-08
2.45557e-09
6.85248e-08
2.5932e-09
6.87102e-08
2.6845e-09
6.88765e-08
2.72576e-09
6.9017e-08
2.72297e-09
6.91313e-08
2.68753e-09
6.92214e-08
2.63119e-09
6.92892e-08
2.56399e-09
6.9337e-08
2.49232e-09
6.9368e-08
2.42106e-09
6.93866e-08
2.35321e-09
6.9397e-08
2.29123e-09
6.94018e-08
2.23506e-09
6.94025e-08
2.18411e-09
6.94e-08
2.13654e-09
6.93949e-08
2.09184e-09
6.9388e-08
2.0489e-09
6.93796e-08
2.00808e-09
6.93703e-08
1.96866e-09
6.93601e-08
1.93126e-09
6.93493e-08
1.89512e-09
6.93381e-08
1.8609e-09
6.93265e-08
1.82773e-09
6.93147e-08
1.79641e-09
6.93027e-08
1.76595e-09
6.92906e-08
1.73731e-09
6.92786e-08
1.70939e-09
6.92666e-08
1.68328e-09
6.92547e-08
1.65774e-09
6.92429e-08
1.634e-09
6.92313e-08
1.61065e-09
6.92198e-08
1.58909e-09
6.92084e-08
1.56773e-09
6.91971e-08
1.54815e-09
6.91859e-08
1.52856e-09
6.91747e-08
1.5108e-09
6.91636e-08
1.49282e-09
6.91523e-08
1.4767e-09
6.91411e-08
1.46019e-09
6.91297e-08
1.44559e-09
6.91182e-08
1.4304e-09
6.91065e-08
1.41721e-09
6.90946e-08
1.40321e-09
6.90823e-08
1.39132e-09
6.90698e-08
1.37839e-09
6.90567e-08
1.36771e-09
6.90434e-08
1.35574e-09
6.90295e-08
1.34616e-09
6.90152e-08
1.33505e-09
6.90002e-08
1.32648e-09
6.89847e-08
1.31612e-09
6.89684e-08
1.30848e-09
6.89515e-08
1.29876e-09
6.89337e-08
1.29199e-09
6.89152e-08
1.28281e-09
6.88958e-08
1.27681e-09
6.88755e-08
1.26811e-09
6.88541e-08
1.2628e-09
6.88319e-08
1.25447e-09
6.88085e-08
1.24981e-09
6.87841e-08
1.24176e-09
6.87585e-08
1.2377e-09
6.87317e-08
1.22984e-09
6.87037e-08
1.22633e-09
6.86744e-08
1.21861e-09
6.86438e-08
1.21557e-09
6.86118e-08
1.20794e-09
6.85785e-08
1.20534e-09
6.85437e-08
1.1977e-09
6.85075e-08
1.19554e-09
6.84697e-08
1.18784e-09
6.84305e-08
1.18605e-09
6.83896e-08
1.1783e-09
6.83473e-08
1.17682e-09
6.83031e-08
1.16896e-09
6.82576e-08
1.16784e-09
6.821e-08
1.1598e-09
6.81612e-08
1.15902e-09
6.81101e-08
1.15088e-09
6.80579e-08
1.15037e-09
6.80033e-08
1.14212e-09
6.79476e-08
1.14197e-09
6.78893e-08
1.13361e-09
6.783e-08
1.13384e-09
6.77679e-08
1.12551e-09
6.7705e-08
1.12617e-09
6.76391e-08
1.11795e-09
6.75725e-08
1.11915e-09
6.75026e-08
1.11122e-09
6.74322e-08
1.11312e-09
6.73584e-08
1.10577e-09
6.72839e-08
1.10865e-09
6.7206e-08
1.10222e-09
6.71276e-08
1.1064e-09
6.70457e-08
1.10133e-09
6.69631e-08
1.10727e-09
1.10429e-09
7.51812e-08
1.87121e-09
-7.51189e-08
7.52715e-08
2.03333e-09
7.53896e-08
2.17816e-09
7.5533e-08
2.31217e-09
7.56956e-08
2.43063e-09
7.58601e-08
2.51991e-09
7.6014e-08
2.57195e-09
7.61484e-08
2.58852e-09
7.62602e-08
2.57577e-09
7.63498e-08
2.54157e-09
7.64194e-08
2.4944e-09
7.64713e-08
2.44042e-09
7.6508e-08
2.3844e-09
7.65324e-08
2.32877e-09
7.65478e-08
2.27584e-09
7.65568e-08
2.22604e-09
7.65611e-08
2.17978e-09
7.65618e-08
2.13586e-09
7.65595e-08
2.09412e-09
7.65549e-08
2.05351e-09
7.65485e-08
2.01452e-09
7.65407e-08
1.97644e-09
7.65319e-08
1.94008e-09
7.65223e-08
1.90466e-09
7.65122e-08
1.87103e-09
7.65017e-08
1.83824e-09
7.64909e-08
1.80722e-09
7.648e-08
1.77689e-09
7.64689e-08
1.74832e-09
7.6458e-08
1.72033e-09
7.64472e-08
1.69412e-09
7.64365e-08
1.66837e-09
7.64261e-08
1.64442e-09
7.6416e-08
1.62079e-09
7.64061e-08
1.59896e-09
7.63966e-08
1.57728e-09
7.63873e-08
1.55742e-09
7.63783e-08
1.53752e-09
7.63697e-08
1.51948e-09
7.63613e-08
1.50121e-09
7.63532e-08
1.48483e-09
7.63453e-08
1.46806e-09
7.63376e-08
1.45323e-09
7.63302e-08
1.43783e-09
7.6323e-08
1.42444e-09
7.63159e-08
1.41028e-09
7.6309e-08
1.39823e-09
7.63022e-08
1.38519e-09
7.62955e-08
1.37439e-09
7.62889e-08
1.36238e-09
7.62823e-08
1.3527e-09
7.62758e-08
1.34163e-09
7.62692e-08
1.33299e-09
7.62626e-08
1.32274e-09
7.6256e-08
1.31509e-09
7.62492e-08
1.30554e-09
7.62424e-08
1.29879e-09
7.62354e-08
1.28987e-09
7.62283e-08
1.28391e-09
7.62208e-08
1.27557e-09
7.62133e-08
1.27033e-09
7.62053e-08
1.26246e-09
7.61972e-08
1.25789e-09
7.61886e-08
1.25039e-09
7.61798e-08
1.24646e-09
7.61704e-08
1.23926e-09
7.61608e-08
1.23588e-09
7.61505e-08
1.22896e-09
7.614e-08
1.22604e-09
7.61286e-08
1.21934e-09
7.61171e-08
1.21688e-09
7.61045e-08
1.21028e-09
7.60918e-08
1.20826e-09
7.60779e-08
1.20175e-09
7.60639e-08
1.20007e-09
7.60485e-08
1.19368e-09
7.6033e-08
1.1923e-09
7.6016e-08
1.18593e-09
7.5999e-08
1.18491e-09
7.59802e-08
1.17852e-09
7.59615e-08
1.17778e-09
7.59409e-08
1.17149e-09
7.59202e-08
1.171e-09
7.58976e-08
1.16473e-09
7.5875e-08
1.16461e-09
7.58502e-08
1.15841e-09
7.58254e-08
1.1586e-09
7.57983e-08
1.15262e-09
7.57712e-08
1.15324e-09
7.57417e-08
1.14752e-09
7.57121e-08
1.14868e-09
7.56799e-08
1.14344e-09
7.56477e-08
1.14529e-09
7.56127e-08
1.14078e-09
7.55777e-08
1.14364e-09
7.55398e-08
1.14017e-09
7.55019e-08
1.1443e-09
7.54609e-08
1.1423e-09
7.54198e-08
1.14835e-09
1.14819e-09
8.31886e-08
1.8133e-09
-8.31307e-08
8.32686e-08
1.95333e-09
8.33701e-08
2.07667e-09
8.34911e-08
2.19124e-09
8.36281e-08
2.29357e-09
8.37701e-08
2.37796e-09
8.3907e-08
2.43505e-09
8.40309e-08
2.46459e-09
8.41371e-08
2.46954e-09
8.42243e-08
2.45435e-09
8.42936e-08
2.42514e-09
8.43471e-08
2.38697e-09
8.43869e-08
2.34452e-09
8.44155e-08
2.30022e-09
8.4435e-08
2.25629e-09
8.44478e-08
2.2133e-09
8.44554e-08
2.17216e-09
8.4459e-08
2.13222e-09
8.44594e-08
2.09372e-09
8.44572e-08
2.05577e-09
8.44528e-08
2.01891e-09
8.44467e-08
1.98251e-09
8.44394e-08
1.94741e-09
8.44311e-08
1.91295e-09
8.44221e-08
1.88001e-09
8.44126e-08
1.84774e-09
8.44028e-08
1.81706e-09
8.43927e-08
1.78697e-09
8.43825e-08
1.75849e-09
8.43723e-08
1.73053e-09
8.43622e-08
1.70422e-09
8.43523e-08
1.67835e-09
8.43425e-08
1.65416e-09
8.4333e-08
1.63031e-09
8.43238e-08
1.60817e-09
8.43148e-08
1.58622e-09
8.43063e-08
1.56601e-09
8.42979e-08
1.54583e-09
8.429e-08
1.52741e-09
8.42823e-08
1.50888e-09
8.4275e-08
1.49212e-09
8.4268e-08
1.47511e-09
8.42613e-08
1.4599e-09
8.42549e-08
1.44429e-09
8.42488e-08
1.43053e-09
8.42429e-08
1.41619e-09
8.42373e-08
1.40379e-09
8.42319e-08
1.39061e-09
8.42268e-08
1.37945e-09
8.42218e-08
1.36736e-09
8.42172e-08
1.35733e-09
8.42126e-08
1.34623e-09
8.42083e-08
1.33726e-09
8.42041e-08
1.32701e-09
8.42001e-08
1.31903e-09
8.41961e-08
1.30955e-09
8.41924e-08
1.30247e-09
8.41886e-08
1.29369e-09
8.41851e-08
1.28739e-09
8.41815e-08
1.27925e-09
8.41781e-08
1.27367e-09
8.41745e-08
1.26606e-09
8.41712e-08
1.26117e-09
8.41676e-08
1.25399e-09
8.41644e-08
1.24972e-09
8.41607e-08
1.24293e-09
8.41574e-08
1.23919e-09
8.41536e-08
1.23277e-09
8.41501e-08
1.22948e-09
8.41461e-08
1.22334e-09
8.41425e-08
1.22053e-09
8.41382e-08
1.21456e-09
8.41343e-08
1.21217e-09
8.41296e-08
1.20642e-09
8.41254e-08
1.20431e-09
8.41203e-08
1.19878e-09
8.41156e-08
1.197e-09
8.411e-08
1.19153e-09
8.41048e-08
1.19013e-09
8.40985e-08
1.18477e-09
8.40927e-08
1.18358e-09
8.40857e-08
1.17844e-09
8.40792e-08
1.17755e-09
8.40715e-08
1.17248e-09
8.40641e-08
1.17197e-09
8.40554e-08
1.16711e-09
8.40471e-08
1.1669e-09
8.40374e-08
1.16234e-09
8.4028e-08
1.16263e-09
8.40171e-08
1.15842e-09
8.40065e-08
1.1593e-09
8.39942e-08
1.15567e-09
8.39822e-08
1.15729e-09
8.39686e-08
1.15445e-09
8.3955e-08
1.15715e-09
8.39398e-08
1.15542e-09
8.39246e-08
1.15946e-09
8.39077e-08
1.15924e-09
8.38908e-08
1.16523e-09
1.16671e-09
9.20309e-08
1.76165e-09
-9.19793e-08
9.20998e-08
1.88448e-09
9.21853e-08
1.99119e-09
9.22857e-08
2.09081e-09
9.23984e-08
2.18087e-09
9.25174e-08
2.25893e-09
9.26348e-08
2.31763e-09
9.27444e-08
2.35504e-09
9.28414e-08
2.37257e-09
9.29233e-08
2.3724e-09
9.299e-08
2.35845e-09
9.30427e-08
2.33431e-09
9.30832e-08
2.30398e-09
9.31136e-08
2.26986e-09
9.31356e-08
2.23428e-09
9.3151e-08
2.19795e-09
9.31611e-08
2.16199e-09
9.31672e-08
2.12615e-09
9.317e-08
2.09096e-09
9.31699e-08
2.05579e-09
9.31676e-08
2.02122e-09
9.31634e-08
1.9867e-09
9.31578e-08
1.95305e-09
9.3151e-08
1.91971e-09
9.31435e-08
1.88758e-09
9.31353e-08
1.85594e-09
9.31267e-08
1.82566e-09
9.31177e-08
1.79589e-09
9.31087e-08
1.76756e-09
9.30995e-08
1.73971e-09
9.30904e-08
1.71334e-09
9.30813e-08
1.68742e-09
9.30724e-08
1.66304e-09
9.30637e-08
1.63904e-09
9.30552e-08
1.61662e-09
9.3047e-08
1.59446e-09
9.30391e-08
1.57392e-09
9.30314e-08
1.55351e-09
9.30241e-08
1.53472e-09
9.3017e-08
1.51597e-09
9.30103e-08
1.49883e-09
9.30038e-08
1.48161e-09
9.29977e-08
1.46602e-09
9.29918e-08
1.45021e-09
9.29862e-08
1.43608e-09
9.29808e-08
1.42157e-09
9.29758e-08
1.40879e-09
9.29709e-08
1.39549e-09
9.29664e-08
1.38395e-09
9.2962e-08
1.37177e-09
9.2958e-08
1.36137e-09
9.2954e-08
1.35021e-09
9.29504e-08
1.34087e-09
9.29468e-08
1.3306e-09
9.29436e-08
1.32227e-09
9.29403e-08
1.31279e-09
9.29375e-08
1.30535e-09
9.29345e-08
1.29663e-09
9.29319e-08
1.28996e-09
9.29293e-08
1.28193e-09
9.2927e-08
1.27598e-09
9.29245e-08
1.2685e-09
9.29225e-08
1.26325e-09
9.29202e-08
1.25623e-09
9.29183e-08
1.25161e-09
9.29162e-08
1.24503e-09
9.29145e-08
1.24091e-09
9.29125e-08
1.23475e-09
9.29109e-08
1.23109e-09
9.2909e-08
1.22524e-09
9.29075e-08
1.22206e-09
9.29056e-08
1.21642e-09
9.29042e-08
1.21365e-09
9.29023e-08
1.20829e-09
9.29008e-08
1.20579e-09
9.28989e-08
1.20068e-09
9.28974e-08
1.19854e-09
9.28954e-08
1.19351e-09
9.28938e-08
1.19174e-09
9.28916e-08
1.18691e-09
9.28899e-08
1.18534e-09
9.28876e-08
1.18075e-09
9.28856e-08
1.17954e-09
9.2883e-08
1.17503e-09
9.28808e-08
1.17422e-09
9.28779e-08
1.16999e-09
9.28753e-08
1.1695e-09
9.28721e-08
1.1656e-09
9.2869e-08
1.16567e-09
9.28653e-08
1.16216e-09
9.28617e-08
1.16287e-09
9.28574e-08
1.15999e-09
9.28532e-08
1.16151e-09
9.28482e-08
1.15942e-09
9.28433e-08
1.16208e-09
9.28375e-08
1.16115e-09
9.28318e-08
1.16521e-09
9.28253e-08
1.16576e-09
9.28188e-08
1.17173e-09
1.17392e-09
1.01797e-07
1.71788e-09
-1.01753e-07
1.01854e-07
1.82773e-09
1.01923e-07
1.92192e-09
1.02003e-07
2.01031e-09
1.02093e-07
2.09119e-09
1.02189e-07
2.16304e-09
1.02285e-07
2.22143e-09
1.02377e-07
2.26316e-09
1.02461e-07
2.28893e-09
1.02533e-07
2.29965e-09
1.02594e-07
2.29767e-09
1.02643e-07
2.28524e-09
1.02682e-07
2.26538e-09
1.02711e-07
2.24019e-09
1.02734e-07
2.21196e-09
1.0275e-07
2.18163e-09
1.02762e-07
2.15046e-09
1.02769e-07
2.1185e-09
1.02774e-07
2.08645e-09
1.02776e-07
2.05396e-09
1.02775e-07
2.02162e-09
1.02773e-07
1.989e-09
1.02769e-07
1.95686e-09
1.02764e-07