/*--------------------------------*- C++ -*----------------------------------*\
| =========                 |                                                 |
| \\      /  F ield         | OpenFOAM: The Open Source CFD Toolbox           |
|  \\    /   O peration     | Version:  2.3.0                                 |
|   \\  /    A nd           | Web:      www.OpenFOAM.org                      |
|    \\/     M anipulation  |                                                 |
\*---------------------------------------------------------------------------*/
FoamFile
{
    version     2.0;
    format      ascii;
    class       volVectorField;
    location    "0.9";
    object      U;
}
// * * * * * * * * * * * * * * * * * * * * * * * * * * * * * * * * * * * * * //

dimensions      [0 1 -1 0 0 0 0];

internalField   nonuniform List<vector> 
2000
(
(0.175523 0.00442171 0)
(0.154832 0.00604567 0)
(0.136033 0.00619892 0)
(0.117683 0.00557969 0)
(0.0999736 0.00475259 0)
(0.0837886 0.00383731 0)
(0.0702266 0.00284647 0)
(0.0596735 0.00180371 0)
(0.0519016 0.000897391 0)
(0.046344 0.000287299 0)
(0.0424178 -3.12987e-05 0)
(0.039639 -0.000151647 0)
(0.0376199 -0.00016171 0)
(0.0360756 -0.00012211 0)
(0.0348039 -6.56254e-05 0)
(0.0336778 -1.16736e-05 0)
(0.0326292 2.98694e-05 0)
(0.0316297 5.68365e-05 0)
(0.0306729 7.13728e-05 0)
(0.0297615 7.69909e-05 0)
(0.0289001 7.69679e-05 0)
(0.0280916 7.38083e-05 0)
(0.0273367 6.91963e-05 0)
(0.0266339 6.41685e-05 0)
(0.0259805 5.92819e-05 0)
(0.0253724 5.47939e-05 0)
(0.0248056 5.078e-05 0)
(0.0242758 4.72393e-05 0)
(0.0237793 4.4117e-05 0)
(0.0233122 4.13597e-05 0)
(0.0228716 3.8902e-05 0)
(0.0224546 3.67027e-05 0)
(0.0220591 3.47114e-05 0)
(0.0216828 3.29045e-05 0)
(0.0213244 3.12439e-05 0)
(0.020982 2.97196e-05 0)
(0.0206548 2.83015e-05 0)
(0.0203413 2.69895e-05 0)
(0.0200409 2.5758e-05 0)
(0.0197522 2.4614e-05 0)
(0.0194751 2.35335e-05 0)
(0.0192083 2.25292e-05 0)
(0.0189516 2.15764e-05 0)
(0.0187039 2.06925e-05 0)
(0.0184653 1.98503e-05 0)
(0.0182345 1.90718e-05 0)
(0.0180119 1.83261e-05 0)
(0.017796 1.76402e-05 0)
(0.0175875 1.69785e-05 0)
(0.0173848 1.63734e-05 0)
(0.017189 1.57839e-05 0)
(0.0169981 1.52488e-05 0)
(0.0168135 1.47207e-05 0)
(0.0166331 1.42461e-05 0)
(0.0164587 1.37696e-05 0)
(0.0162876 1.33473e-05 0)
(0.0161224 1.29141e-05 0)
(0.0159599 1.25368e-05 0)
(0.015803 1.21398e-05 0)
(0.0156481 1.18019e-05 0)
(0.0154988 1.14349e-05 0)
(0.0153509 1.11322e-05 0)
(0.0152087 1.07899e-05 0)
(0.0150671 1.05189e-05 0)
(0.0149315 1.01969e-05 0)
(0.0147956 9.95523e-06 0)
(0.0146662 9.64966e-06 0)
(0.0145355 9.43557e-06 0)
(0.0144119 9.14265e-06 0)
(0.014286 8.95545e-06 0)
(0.014168 8.67162e-06 0)
(0.0140464 8.51117e-06 0)
(0.0139336 8.2331e-06 0)
(0.0138159 8.09982e-06 0)
(0.0137082 7.82408e-06 0)
(0.0135939 7.71931e-06 0)
(0.0134913 7.44195e-06 0)
(0.01338 7.36781e-06 0)
(0.0132824 7.08505e-06 0)
(0.0131735 7.04421e-06 0)
(0.0130809 6.75192e-06 0)
(0.0129739 6.74899e-06 0)
(0.0128863 6.44104e-06 0)
(0.0127807 6.48242e-06 0)
(0.0126984 6.15216e-06 0)
(0.0125934 6.24507e-06 0)
(0.0125166 5.8854e-06 0)
(0.0124113 6.04032e-06 0)
(0.0123404 5.63988e-06 0)
(0.0122337 5.87251e-06 0)
(0.0121693 5.41585e-06 0)
(0.0120599 5.74761e-06 0)
(0.0120028 5.21405e-06 0)
(0.0118889 5.67643e-06 0)
(0.0118404 5.03162e-06 0)
(0.0117192 5.68004e-06 0)
(0.0116815 4.86196e-06 0)
(0.0115486 5.7977e-06 0)
(0.0115264 4.81873e-06 0)
(0.0113673 7.76716e-06 0)
(0.190918 0.00783043 0)
(0.189228 0.0109759 0)
(0.186858 0.0120926 0)
(0.183187 0.011954 0)
(0.177956 0.0113244 0)
(0.171346 0.0104234 0)
(0.163978 0.00925683 0)
(0.156303 0.00782301 0)
(0.148675 0.00627541 0)
(0.141305 0.00483493 0)
(0.134326 0.00364647 0)
(0.127844 0.002743 0)
(0.121909 0.00209176 0)
(0.116545 0.00164652 0)
(0.111719 0.00135457 0)
(0.107372 0.00116511 0)
(0.103441 0.00103723 0)
(0.0998658 0.00094322 0)
(0.0965992 0.000866866 0)
(0.0936011 0.000799847 0)
(0.0908394 0.000738434 0)
(0.0882872 0.000681331 0)
(0.0859223 0.000628302 0)
(0.0837247 0.000579505 0)
(0.0816778 0.000535081 0)
(0.079766 0.000495051 0)
(0.077976 0.000459235 0)
(0.0762953 0.000427347 0)
(0.0747138 0.000398972 0)
(0.0732213 0.000373698 0)
(0.0718101 0.000351074 0)
(0.0704721 0.000330737 0)
(0.0692018 0.000312321 0)
(0.0679927 0.000295571 0)
(0.0668409 0.000280218 0)
(0.0657408 0.000266106 0)
(0.06469 0.000253041 0)
(0.0636834 0.000240941 0)
(0.0627197 0.000229659 0)
(0.0617943 0.000219161 0)
(0.0609065 0.000209329 0)
(0.0600519 0.000200157 0)
(0.0592306 0.000191539 0)
(0.0584382 0.000183493 0)
(0.0576755 0.000175911 0)
(0.0569379 0.000168832 0)
(0.0562271 0.000162141 0)
(0.0555378 0.000155893 0)
(0.0548731 0.000149967 0)
(0.0542268 0.000144435 0)
(0.0536031 0.000139165 0)
(0.0529951 0.000134247 0)
(0.052408 0.000129536 0)
(0.0518342 0.000125146 0)
(0.0512803 0.000120911 0)
(0.0507372 0.000116975 0)
(0.0502132 0.000113147 0)
(0.0496976 0.000109601 0)
(0.0492009 0.000106121 0)
(0.0487103 0.000102914 0)
(0.0482387 9.97318e-05 0)
(0.0477707 9.68219e-05 0)
(0.0473221 9.38958e-05 0)
(0.0468746 9.12483e-05 0)
(0.0464474 8.85433e-05 0)
(0.0460186 8.61297e-05 0)
(0.0456115 8.36159e-05 0)
(0.0451996 8.14136e-05 0)
(0.0448114 7.90642e-05 0)
(0.0444149 7.70559e-05 0)
(0.0440447 7.48474e-05 0)
(0.0436621 7.30195e-05 0)
(0.0433091 7.09314e-05 0)
(0.0429389 6.92737e-05 0)
(0.0426027 6.72869e-05 0)
(0.0422434 6.57936e-05 0)
(0.0419236 6.38895e-05 0)
(0.0415738 6.25583e-05 0)
(0.0412703 6.07207e-05 0)
(0.0409285 5.95519e-05 0)
(0.0406413 5.77653e-05 0)
(0.0403057 5.67662e-05 0)
(0.0400352 5.50112e-05 0)
(0.039704 5.41952e-05 0)
(0.0394508 5.24532e-05 0)
(0.0391217 5.18363e-05 0)
(0.0388868 5.00904e-05 0)
(0.0385572 4.96983e-05 0)
(0.0383419 4.7923e-05 0)
(0.0380084 4.77964e-05 0)
(0.037815 4.59601e-05 0)
(0.0374734 4.61531e-05 0)
(0.0373046 4.42212e-05 0)
(0.0369493 4.48066e-05 0)
(0.0368095 4.27328e-05 0)
(0.0364326 4.38217e-05 0)
(0.0363287 4.15549e-05 0)
(0.0359175 4.34029e-05 0)
(0.0358622 4.0935e-05 0)
(0.0353921 4.82115e-05 0)
(0.192154 0.00753142 0)
(0.192528 0.0100956 0)
(0.193528 0.0116829 0)
(0.194621 0.0122203 0)
(0.195207 0.0121372 0)
(0.194966 0.011704 0)
(0.193877 0.0109749 0)
(0.192026 0.00998381 0)
(0.189544 0.00883686 0)
(0.186573 0.00769282 0)
(0.183248 0.00667735 0)
(0.179708 0.00584077 0)
(0.176065 0.00517066 0)
(0.172416 0.0046378 0)
(0.168809 0.00420759 0)
(0.165264 0.00384927 0)
(0.161792 0.00353987 0)
(0.158397 0.00326454 0)
(0.155084 0.00301463 0)
(0.151855 0.00278545 0)
(0.148715 0.00257445 0)
(0.145667 0.0023802 0)
(0.142716 0.00220172 0)
(0.139864 0.0020383 0)
(0.137112 0.00188918 0)
(0.134461 0.00175362 0)
(0.131911 0.00163075 0)
(0.12946 0.00151963 0)
(0.127107 0.0014192 0)
(0.124848 0.00132843 0)
(0.12268 0.00124627 0)
(0.120599 0.00117175 0)
(0.118602 0.00110396 0)
(0.116684 0.00104213 0)
(0.114844 0.000985531 0)
(0.113073 0.00093359 0)
(0.111372 0.00088574 0)
(0.109734 0.000841582 0)
(0.108159 0.00080068 0)
(0.106639 0.000762761 0)
(0.105175 0.00072748 0)
(0.103761 0.000694656 0)
(0.102398 0.000664006 0)
(0.101078 0.000635415 0)
(0.0998042 0.000608633 0)
(0.0985681 0.000583596 0)
(0.0973751 0.000560075 0)
(0.0962144 0.000538043 0)
(0.0950937 0.000517283 0)
(0.0940008 0.000497801 0)
(0.0929454 0.000479385 0)
(0.0919134 0.000462074 0)
(0.0909172 0.000445653 0)
(0.0899403 0.000430193 0)
(0.0889979 0.000415473 0)
(0.0880708 0.000401599 0)
(0.0871776 0.000388335 0)
(0.0862956 0.000375824 0)
(0.0854477 0.000363812 0)
(0.0846068 0.000352479 0)
(0.0838006 0.000341548 0)
(0.082997 0.00033124 0)
(0.0822296 0.000321247 0)
(0.08146 0.000311835 0)
(0.0807288 0.000302661 0)
(0.0799901 0.000294038 0)
(0.079293 0.000285581 0)
(0.0785824 0.000277658 0)
(0.0779176 0.000269832 0)
(0.0772324 0.000262534 0)
(0.0765985 0.000255263 0)
(0.0759362 0.00024853 0)
(0.0753322 0.000241751 0)
(0.0746902 0.00023553 0)
(0.0741152 0.000229189 0)
(0.0734912 0.000223439 0)
(0.0729449 0.000217488 0)
(0.0723362 0.000212178 0)
(0.0718186 0.000206576 0)
(0.0712226 0.00020168 0)
(0.070734 0.000196397 0)
(0.0701477 0.000191902 0)
(0.0696889 0.000186907 0)
(0.069109 0.000182811 0)
(0.0686815 0.00017808 0)
(0.068104 0.000174385 0)
(0.0677097 0.000169907 0)
(0.0671302 0.000166628 0)
(0.0667719 0.000162392 0)
(0.0661846 0.000159561 0)
(0.0658663 0.000155565 0)
(0.0652641 0.000153224 0)
(0.0649911 0.00014949 0)
(0.0643648 0.000147695 0)
(0.0641444 0.000144261 0)
(0.0634818 0.000143135 0)
(0.0633245 0.000140003 0)
(0.0626085 0.000140192 0)
(0.0625287 0.000137158 0)
(0.0617372 0.0001449 0)
(0.193328 0.00709896 0)
(0.19365 0.00886063 0)
(0.194567 0.0102902 0)
(0.195981 0.01104 0)
(0.197498 0.0112055 0)
(0.198775 0.0109941 0)
(0.199645 0.0105239 0)
(0.20006 0.00985859 0)
(0.200025 0.00906899 0)
(0.199576 0.00825041 0)
(0.19877 0.00749348 0)
(0.197684 0.00684959 0)
(0.1964 0.00632566 0)
(0.194987 0.00589993 0)
(0.193487 0.00554568 0)
(0.191921 0.00524079 0)
(0.190299 0.00496935 0)
(0.188626 0.00472095 0)
(0.186904 0.0044891 0)
(0.185135 0.00426998 0)
(0.183326 0.00406145 0)
(0.181479 0.00386239 0)
(0.179603 0.00367227 0)
(0.177702 0.0034909 0)
(0.175787 0.00331823 0)
(0.173859 0.00315427 0)
(0.17193 0.00299894 0)
(0.17 0.00285211 0)
(0.168078 0.00271349 0)
(0.166165 0.00258274 0)
(0.164269 0.00245946 0)
(0.162388 0.00234324 0)
(0.16053 0.00223366 0)
(0.158693 0.00213033 0)
(0.156884 0.00203287 0)
(0.155099 0.00194094 0)
(0.153346 0.00185421 0)
(0.15162 0.0017724 0)
(0.149927 0.0016952 0)
(0.148262 0.00162237 0)
(0.146633 0.00155365 0)
(0.145031 0.00148881 0)
(0.143467 0.00142763 0)
(0.141929 0.00136988 0)
(0.140429 0.00131537 0)
(0.138953 0.0012639 0)
(0.137516 0.00121529 0)
(0.136101 0.00116935 0)
(0.134726 0.00112592 0)
(0.133369 0.00108481 0)
(0.132053 0.00104592 0)
(0.130752 0.00100905 0)
(0.129492 0.000974125 0)
(0.128244 0.00094095 0)
(0.127038 0.000909474 0)
(0.12584 0.000879515 0)
(0.124685 0.000851054 0)
(0.123533 0.000823897 0)
(0.122427 0.00079807 0)
(0.121318 0.00077336 0)
(0.120258 0.000749839 0)
(0.119189 0.00072727 0)
(0.118174 0.000705775 0)
(0.117142 0.000685083 0)
(0.116169 0.000665376 0)
(0.115171 0.000646334 0)
(0.11424 0.000628211 0)
(0.113273 0.000610624 0)
(0.112381 0.00059391 0)
(0.111443 0.000577612 0)
(0.110589 0.000562157 0)
(0.109676 0.000547005 0)
(0.108861 0.000532685 0)
(0.107971 0.000518551 0)
(0.107193 0.000505261 0)
(0.106323 0.000492039 0)
(0.105583 0.000479692 0)
(0.104729 0.000467291 0)
(0.104028 0.000455819 0)
(0.103187 0.000444157 0)
(0.102526 0.000433515 0)
(0.101694 0.000422527 0)
(0.101074 0.000412676 0)
(0.100247 0.000402316 0)
(0.0996711 0.000393241 0)
(0.0988433 0.00038346 0)
(0.0983148 0.000375179 0)
(0.0974802 0.000365946 0)
(0.0970034 0.000358481 0)
(0.0961545 0.000349794 0)
(0.0957351 0.00034319 0)
(0.0948628 0.00033507 0)
(0.0945081 0.000329394 0)
(0.0936011 0.000321936 0)
(0.09332 0.000317202 0)
(0.0923646 0.000310745 0)
(0.0921681 0.00030677 0)
(0.0911479 0.000302527 0)
(0.091048 0.000299077 0)
(0.0899451 0.000302557 0)
(0.194314 0.00677697 0)
(0.194605 0.00806643 0)
(0.195288 0.00923178 0)
(0.196385 0.00999615 0)
(0.197708 0.0102826 0)
(0.199004 0.0101943 0)
(0.200102 0.00985647 0)
(0.200932 0.00935831 0)
(0.201484 0.00876562 0)
(0.201768 0.00814083 0)
(0.201815 0.00754527 0)
(0.201665 0.00702175 0)
(0.201373 0.00658524 0)
(0.200987 0.00622669 0)
(0.200542 0.00592805 0)
(0.200054 0.00567218 0)
(0.199532 0.00544612 0)
(0.198974 0.00524092 0)
(0.198378 0.00505069 0)
(0.197738 0.0048716 0)
(0.197057 0.00470124 0)
(0.196329 0.00453806 0)
(0.19556 0.00438118 0)
(0.194745 0.00423004 0)
(0.193893 0.00408441 0)
(0.193 0.00394412 0)
(0.192074 0.0038091 0)
(0.191111 0.0036792 0)
(0.190122 0.00355431 0)
(0.1891 0.00343421 0)
(0.188057 0.00331875 0)
(0.186985 0.00320762 0)
(0.185897 0.0031007 0)
(0.184784 0.00299768 0)
(0.18366 0.0028985 0)
(0.182514 0.00280286 0)
(0.181362 0.00271076 0)
(0.180191 0.00262192 0)
(0.179019 0.00253638 0)
(0.17783 0.00245386 0)
(0.176644 0.00237447 0)
(0.175443 0.00229789 0)
(0.174251 0.00222428 0)
(0.173045 0.00215328 0)
(0.171851 0.00208511 0)
(0.170644 0.00201935 0)
(0.169455 0.00195628 0)
(0.168251 0.00189543 0)
(0.16707 0.00183714 0)
(0.165874 0.00178085 0)
(0.164705 0.00172701 0)
(0.163519 0.00167494 0)
(0.162366 0.00162521 0)
(0.161193 0.00157704 0)
(0.160058 0.00153111 0)
(0.1589 0.00148651 0)
(0.157786 0.00144407 0)
(0.156643 0.00140273 0)
(0.155552 0.00136349 0)
(0.154426 0.00132511 0)
(0.15336 0.00128881 0)
(0.152251 0.00125313 0)
(0.151211 0.00121951 0)
(0.150118 0.00118627 0)
(0.149106 0.00115512 0)
(0.14803 0.00112407 0)
(0.147046 0.00109518 0)
(0.145987 0.00106611 0)
(0.145033 0.00103929 0)
(0.143988 0.00101199 0)
(0.143066 0.000987089 0)
(0.142034 0.000961381 0)
(0.141145 0.000938252 0)
(0.140124 0.000913958 0)
(0.13927 0.00089249 0)
(0.138259 0.000869454 0)
(0.137441 0.000849549 0)
(0.136436 0.000827629 0)
(0.135658 0.000809219 0)
(0.134656 0.000788278 0)
(0.133919 0.000771321 0)
(0.132917 0.000751246 0)
(0.132225 0.00073571 0)
(0.131218 0.00071641 0)
(0.130576 0.000702295 0)
(0.129558 0.000683679 0)
(0.12897 0.000671023 0)
(0.127935 0.000653038 0)
(0.127407 0.000641873 0)
(0.126348 0.000624527 0)
(0.125885 0.000614889 0)
(0.124793 0.000598259 0)
(0.124405 0.000590176 0)
(0.123269 0.000574487 0)
(0.122964 0.000567898 0)
(0.121771 0.000553694 0)
(0.121559 0.000548412 0)
(0.120296 0.000537012 0)
(0.120187 0.000533258 0)
(0.118839 0.00052842 0)
(0.195155 0.00650512 0)
(0.195425 0.00750655 0)
(0.19596 0.00843712 0)
(0.196787 0.00913031 0)
(0.197824 0.0094786 0)
(0.198906 0.00949797 0)
(0.199892 0.00927647 0)
(0.200697 0.00890271 0)
(0.201301 0.00844315 0)
(0.201707 0.00794837 0)
(0.20194 0.00746141 0)
(0.202029 0.00701617 0)
(0.202014 0.00663072 0)
(0.20193 0.00630558 0)
(0.201812 0.00603116 0)
(0.201673 0.00579514 0)
(0.201527 0.005587 0)
(0.20137 0.00539887 0)
(0.201205 0.00522563 0)
(0.201022 0.00506373 0)
(0.200826 0.0049111 0)
(0.200606 0.00476611 0)
(0.200369 0.00462792 0)
(0.200106 0.00449567 0)
(0.199826 0.00436907 0)
(0.199519 0.00424758 0)
(0.199197 0.00413114 0)
(0.198846 0.00401926 0)
(0.198482 0.003912 0)
(0.198089 0.00380878 0)
(0.197683 0.0037097 0)
(0.197248 0.00361412 0)
(0.196802 0.00352219 0)
(0.196326 0.00343324 0)
(0.195841 0.00334752 0)
(0.195325 0.00326432 0)
(0.194803 0.00318404 0)
(0.194248 0.00310591 0)
(0.193691 0.00303047 0)
(0.193099 0.00295688 0)
(0.192509 0.00288583 0)
(0.191882 0.00281638 0)
(0.19126 0.00274937 0)
(0.190601 0.00268374 0)
(0.18995 0.00262049 0)
(0.18926 0.00255841 0)
(0.188584 0.00249868 0)
(0.187865 0.00243991 0)
(0.187167 0.00238349 0)
(0.186421 0.0023278 0)
(0.185703 0.00227449 0)
(0.184934 0.00222168 0)
(0.184198 0.0021713 0)
(0.183407 0.00212118 0)
(0.182658 0.00207355 0)
(0.181847 0.00202593 0)
(0.181087 0.00198091 0)
(0.180257 0.00193561 0)
(0.17949 0.00189305 0)
(0.178644 0.0018499 0)
(0.177872 0.00180967 0)
(0.17701 0.00176851 0)
(0.176237 0.0017305 0)
(0.175361 0.00169118 0)
(0.174589 0.00165526 0)
(0.173701 0.00161763 0)
(0.172933 0.00158374 0)
(0.172033 0.00154765 0)
(0.171273 0.00151568 0)
(0.17036 0.00148101 0)
(0.169612 0.0014509 0)
(0.168687 0.00141751 0)
(0.167952 0.0013892 0)
(0.167015 0.00135695 0)
(0.166299 0.00133041 0)
(0.165347 0.00129919 0)
(0.164653 0.00127436 0)
(0.163687 0.00124406 0)
(0.163018 0.00122095 0)
(0.162035 0.00119144 0)
(0.161397 0.00117006 0)
(0.160395 0.00114125 0)
(0.159791 0.0011216 0)
(0.158766 0.00109344 0)
(0.158203 0.00107555 0)
(0.157151 0.00104797 0)
(0.156633 0.00103191 0)
(0.155551 0.0010049 0)
(0.155085 0.000990699 0)
(0.153965 0.000964346 0)
(0.153557 0.000952044 0)
(0.152394 0.0009265 0)
(0.152053 0.000916137 0)
(0.150838 0.000891704 0)
(0.15057 0.000883299 0)
(0.149295 0.000860539 0)
(0.149109 0.000854168 0)
(0.147764 0.000834208 0)
(0.147669 0.000830519 0)
(0.146242 0.000815497 0)
(0.195892 0.00625456 0)
(0.196136 0.00704877 0)
(0.196566 0.00778825 0)
(0.197195 0.00837709 0)
(0.19799 0.00873216 0)
(0.198855 0.0088318 0)
(0.199685 0.0087175 0)
(0.200399 0.00845537 0)
(0.200964 0.00810585 0)
(0.201371 0.00771521 0)
(0.201638 0.00731868 0)
(0.201785 0.00694257 0)
(0.201847 0.00660395 0)
(0.201846 0.00630841 0)
(0.201815 0.00605297 0)
(0.201764 0.0058298 0)
(0.201714 0.00563122 0)
(0.201657 0.00545049 0)
(0.201605 0.00528348 0)
(0.201544 0.00512701 0)
(0.201484 0.00497972 0)
(0.201412 0.00484003 0)
(0.20134 0.00470762 0)
(0.201252 0.00458137 0)
(0.201166 0.00446135 0)
(0.201063 0.00434657 0)
(0.200964 0.00423734 0)
(0.200846 0.00413268 0)
(0.200732 0.00403308 0)
(0.200598 0.00393745 0)
(0.200471 0.00384641 0)
(0.20032 0.00375874 0)
(0.200177 0.0036752 0)
(0.200009 0.00359443 0)
(0.19985 0.00351738 0)
(0.199663 0.00344255 0)
(0.199488 0.00337113 0)
(0.19928 0.00330144 0)
(0.199087 0.00323494 0)
(0.198858 0.00316975 0)
(0.198647 0.00310759 0)
(0.198395 0.00304637 0)
(0.198165 0.00298811 0)
(0.197889 0.00293043 0)
(0.19764 0.00287567 0)
(0.19734 0.00282115 0)
(0.197072 0.00276958 0)
(0.196747 0.0027179 0)
(0.19646 0.00266923 0)
(0.196109 0.00262009 0)
(0.195804 0.00257406 0)
(0.195427 0.00252719 0)
(0.195104 0.00248359 0)
(0.194701 0.00243875 0)
(0.19436 0.00239736 0)
(0.193931 0.00235433 0)
(0.193574 0.00231498 0)
(0.193118 0.00227355 0)
(0.192747 0.00223611 0)
(0.192264 0.00219608 0)
(0.191879 0.00216041 0)
(0.191369 0.00212164 0)
(0.190973 0.00208762 0)
(0.190435 0.00204994 0)
(0.190029 0.00201751 0)
(0.189464 0.00198078 0)
(0.189051 0.00194986 0)
(0.188458 0.00191396 0)
(0.188039 0.00188449 0)
(0.187418 0.0018493 0)
(0.186997 0.00182125 0)
(0.186347 0.00178667 0)
(0.185926 0.00176002 0)
(0.185247 0.00172594 0)
(0.184828 0.00170069 0)
(0.18412 0.00166702 0)
(0.183707 0.00164317 0)
(0.182967 0.00160985 0)
(0.182565 0.00158742 0)
(0.181792 0.00155436 0)
(0.181403 0.00153341 0)
(0.180597 0.00150058 0)
(0.180225 0.00148111 0)
(0.179383 0.00144853 0)
(0.179033 0.00143061 0)
(0.178152 0.00139827 0)
(0.177829 0.00138199 0)
(0.176907 0.00134994 0)
(0.176615 0.00133537 0)
(0.175649 0.00130378 0)
(0.175393 0.00129099 0)
(0.17438 0.00126007 0)
(0.174165 0.00124919 0)
(0.173099 0.00121926 0)
(0.172932 0.00121047 0)
(0.171809 0.00118207 0)
(0.171694 0.00117572 0)
(0.17051 0.00114982 0)
(0.170451 0.00114669 0)
(0.169201 0.00112432 0)
(0.196541 0.00601155 0)
(0.196757 0.00664547 0)
(0.197104 0.00723349 0)
(0.197587 0.00772097 0)
(0.198194 0.0080521 0)
(0.198868 0.00819843 0)
(0.199545 0.00817097 0)
(0.200154 0.00800809 0)
(0.200662 0.0077563 0)
(0.201046 0.00745603 0)
(0.201318 0.00713898 0)
(0.201486 0.00682735 0)
(0.201582 0.00653648 0)
(0.201616 0.00627349 0)
(0.201622 0.00603972 0)
(0.201602 0.00583098 0)
(0.201581 0.00564261 0)
(0.20155 0.00546908 0)
(0.201526 0.00530751 0)
(0.201492 0.00515486 0)
(0.201465 0.00501063 0)
(0.201425 0.00487316 0)
(0.201393 0.0047429 0)
(0.201346 0.00461838 0)
(0.201308 0.00450032 0)
(0.201255 0.00438718 0)
(0.201215 0.00427992 0)
(0.201157 0.00417686 0)
(0.201115 0.00407924 0)
(0.201053 0.00398521 0)
(0.201009 0.00389625 0)
(0.200943 0.0038103 0)
(0.200897 0.00372906 0)
(0.200827 0.00365024 0)
(0.20078 0.00357582 0)
(0.200704 0.00350325 0)
(0.200654 0.00343484 0)
(0.200572 0.00336774 0)
(0.20052 0.00330466 0)
(0.200431 0.0032424 0)
(0.200375 0.00318407 0)
(0.200277 0.00312608 0)
(0.200217 0.00307202 0)
(0.20011 0.00301785 0)
(0.200045 0.00296763 0)
(0.199926 0.00291687 0)
(0.199856 0.00287014 0)
(0.199725 0.0028224 0)
(0.19965 0.00277883 0)
(0.199505 0.00273376 0)
(0.199423 0.00269305 0)
(0.199264 0.00265034 0)
(0.199176 0.00261221 0)
(0.199001 0.00257157 0)
(0.198906 0.00253576 0)
(0.198714 0.00249692 0)
(0.198612 0.00246324 0)
(0.198402 0.00242592 0)
(0.198293 0.00239418 0)
(0.198063 0.00235816 0)
(0.197948 0.00232816 0)
(0.197698 0.00229326 0)
(0.197576 0.00226485 0)
(0.197304 0.00223086 0)
(0.197177 0.00220394 0)
(0.196882 0.00217068 0)
(0.19675 0.00214515 0)
(0.196431 0.00211245 0)
(0.196294 0.00208821 0)
(0.19595 0.00205596 0)
(0.195809 0.00203292 0)
(0.195439 0.002001 0)
(0.195296 0.00197913 0)
(0.194898 0.00194741 0)
(0.194754 0.00192668 0)
(0.194328 0.00189508 0)
(0.194184 0.00187542 0)
(0.193728 0.00184392 0)
(0.193586 0.00182534 0)
(0.1931 0.00179382 0)
(0.192961 0.00177638 0)
(0.192442 0.00174484 0)
(0.192309 0.00172848 0)
(0.191756 0.001697 0)
(0.19163 0.00168176 0)
(0.191043 0.00165032 0)
(0.190927 0.00163634 0)
(0.190304 0.00160505 0)
(0.190198 0.00159235 0)
(0.189538 0.00156139 0)
(0.189446 0.00155009 0)
(0.188746 0.00151971 0)
(0.18867 0.00151 0)
(0.18793 0.00148052 0)
(0.187871 0.00147268 0)
(0.18709 0.00144463 0)
(0.18705 0.00143916 0)
(0.186225 0.0014134 0)
(0.186206 0.00141101 0)
(0.185337 0.00138796 0)
(0.197087 0.00578623 0)
(0.197275 0.00629968 0)
(0.197558 0.00677594 0)
(0.197937 0.00718072 0)
(0.198407 0.0074787 0)
(0.198933 0.00764524 0)
(0.199477 0.00767784 0)
(0.199984 0.00759408 0)
(0.200427 0.00742494 0)
(0.200777 0.00720202 0)
(0.201041 0.00695345 0)
(0.201217 0.00669902 0)
(0.201331 0.00645317 0)
(0.201387 0.00622306 0)
(0.201415 0.00601251 0)
(0.201415 0.00581977 0)
(0.201411 0.00564293 0)
(0.201392 0.00547767 0)
(0.20138 0.00532245 0)
(0.201356 0.00517431 0)
(0.201339 0.00503358 0)
(0.201309 0.00489842 0)
(0.201288 0.00477002 0)
(0.201251 0.00464661 0)
(0.201226 0.00452959 0)
(0.201185 0.00441692 0)
(0.201159 0.00431023 0)
(0.201115 0.0042072 0)
(0.201089 0.00410979 0)
(0.201044 0.00401547 0)
(0.201019 0.00392648 0)
(0.200974 0.00384003 0)
(0.200951 0.00375868 0)
(0.200904 0.00367931 0)
(0.200884 0.00360484 0)
(0.200837 0.00353179 0)
(0.200819 0.00346348 0)
(0.20077 0.00339606 0)
(0.200754 0.00333328 0)
(0.200704 0.00327087 0)
(0.200691 0.00321308 0)
(0.200638 0.00315517 0)
(0.200626 0.00310191 0)
(0.200571 0.00304804 0)
(0.200561 0.00299888 0)
(0.200501 0.00294864 0)
(0.200493 0.00290323 0)
(0.200429 0.00285622 0)
(0.200421 0.00281424 0)
(0.200352 0.00277012 0)
(0.200345 0.00273124 0)
(0.20027 0.0026897 0)
(0.200264 0.00265361 0)
(0.200181 0.00261436 0)
(0.200176 0.00258082 0)
(0.200085 0.00254354 0)
(0.200079 0.00251234 0)
(0.19998 0.00247676 0)
(0.199974 0.00244766 0)
(0.199865 0.00241358 0)
(0.199859 0.00238635 0)
(0.199738 0.00235356 0)
(0.199732 0.00232805 0)
(0.1996 0.00229631 0)
(0.199593 0.00227239 0)
(0.199448 0.00224151 0)
(0.199441 0.00221905 0)
(0.199282 0.00218887 0)
(0.199275 0.00216771 0)
(0.199101 0.00213813 0)
(0.199093 0.00211815 0)
(0.198904 0.00208901 0)
(0.198895 0.00207018 0)
(0.198689 0.00204134 0)
(0.198681 0.00202356 0)
(0.198457 0.001995 0)
(0.198448 0.00197813 0)
(0.198206 0.00194978 0)
(0.198197 0.00193386 0)
(0.197936 0.00190559 0)
(0.197928 0.0018906 0)
(0.197646 0.0018625 0)
(0.197638 0.0018483 0)
(0.197335 0.0018204 0)
(0.197329 0.0018071 0)
(0.197004 0.00177935 0)
(0.196999 0.00176702 0)
(0.196652 0.0017396 0)
(0.196647 0.00172825 0)
(0.196277 0.00170132 0)
(0.196274 0.00169107 0)
(0.195881 0.00166487 0)
(0.195879 0.00165594 0)
(0.195461 0.00163082 0)
(0.195461 0.00162354 0)
(0.195019 0.00159998 0)
(0.19502 0.00159485 0)
(0.194554 0.00157361 0)
(0.194555 0.00157124 0)
(0.194065 0.0015526 0)
(0.19756 0.00558637 0)
(0.19772 0.00601113 0)
(0.197951 0.00640528 0)
(0.198251 0.00674554 0)
(0.198618 0.00700945 0)
(0.199028 0.00717829 0)
(0.19946 0.00724588 0)
(0.199874 0.00721837 0)
(0.20025 0.00711438 0)
(0.200559 0.00695595 0)
(0.200805 0.00676612 0)
(0.200979 0.00656201 0)
(0.201101 0.0063574 0)
(0.201171 0.00615922 0)
(0.201215 0.00597256 0)
(0.201229 0.00579714 0)
(0.201237 0.00563318 0)
(0.201229 0.00547751 0)
(0.201225 0.00532983 0)
(0.201208 0.0051874 0)
(0.201198 0.00505119 0)
(0.201174 0.00491927 0)
(0.201159 0.00479339 0)
(0.201129 0.00467159 0)
(0.20111 0.00455583 0)
(0.201075 0.00444379 0)
(0.201054 0.00433758 0)
(0.201017 0.00423455 0)
(0.200996 0.00413711 0)
(0.200958 0.00404232 0)
(0.200938 0.00395292 0)
(0.200901 0.0038657 0)
(0.200883 0.00378371 0)
(0.200845 0.00370343 0)
(0.20083 0.00362823 0)
(0.200792 0.00355422 0)
(0.20078 0.0034852 0)
(0.200743 0.00341684 0)
(0.200734 0.00335343 0)
(0.200697 0.00329018 0)
(0.20069 0.00323184 0)
(0.200653 0.00317322 0)
(0.20065 0.00311951 0)
(0.200612 0.00306506 0)
(0.200611 0.00301559 0)
(0.200573 0.0029649 0)
(0.200575 0.00291931 0)
(0.200536 0.00287201 0)
(0.200541 0.00282996 0)
(0.2005 0.00278571 0)
(0.200507 0.00274687 0)
(0.200464 0.00270538 0)
(0.200474 0.00266944 0)
(0.200428 0.00263039 0)
(0.20044 0.00259713 0)
(0.200392 0.00256021 0)
(0.200406 0.0025294 0)
(0.200355 0.00249437 0)
(0.200371 0.00246573 0)
(0.200315 0.0024324 0)
(0.200334 0.00240571 0)
(0.200274 0.00237386 0)
(0.200294 0.00234896 0)
(0.200229 0.00231834 0)
(0.200251 0.00229511 0)
(0.200181 0.00226555 0)
(0.200204 0.0022438 0)
(0.200128 0.00221518 0)
(0.200152 0.00219473 0)
(0.20007 0.00216693 0)
(0.200095 0.00214768 0)
(0.200006 0.0021205 0)
(0.200033 0.00210242 0)
(0.199936 0.00207577 0)
(0.199963 0.00205866 0)
(0.199858 0.00203258 0)
(0.199886 0.00201632 0)
(0.199773 0.00199066 0)
(0.199801 0.00197532 0)
(0.199679 0.00194996 0)
(0.199707 0.00193542 0)
(0.199576 0.00191054 0)
(0.199603 0.00189669 0)
(0.199463 0.00187219 0)
(0.199489 0.0018592 0)
(0.199339 0.00183509 0)
(0.199364 0.00182289 0)
(0.199203 0.0017994 0)
(0.199227 0.00178808 0)
(0.199055 0.00176529 0)
(0.199077 0.001755 0)
(0.198895 0.00173317 0)
(0.198913 0.00172407 0)
(0.19872 0.00170355 0)
(0.198735 0.00169607 0)
(0.19853 0.0016773 0)
(0.198541 0.00167184 0)
(0.198325 0.00165547 0)
(0.198332 0.00165262 0)
(0.198105 0.00163904 0)
(0.197991 0.00540327 0)
(0.198125 0.00575867 0)
(0.198311 0.00608856 0)
(0.198545 0.00637685 0)
(0.198829 0.00660899 0)
(0.199144 0.00677135 0)
(0.19948 0.006858 0)
(0.199809 0.00686967 0)
(0.200117 0.00681661 0)
(0.20038 0.0067125 0)
(0.200599 0.00657447 0)
(0.200763 0.00641615 0)
(0.200884 0.00625009 0)
(0.200962 0.00608292 0)
(0.201014 0.00592043 0)
(0.20104 0.00576335 0)
(0.201056 0.0056134 0)
(0.201057 0.00546852 0)
(0.201059 0.00532941 0)
(0.201049 0.0051938 0)
(0.201043 0.00506307 0)
(0.201027 0.00493538 0)
(0.201015 0.00481275 0)
(0.200993 0.0046933 0)
(0.200977 0.00457923 0)
(0.20095 0.00446828 0)
(0.200932 0.00436276 0)
(0.200902 0.00426003 0)
(0.200883 0.00416261 0)
(0.200853 0.0040676 0)
(0.200834 0.00397777 0)
(0.200804 0.00388999 0)
(0.200787 0.00380727 0)
(0.200757 0.00372622 0)
(0.200742 0.00365014 0)
(0.200712 0.00357527 0)
(0.200699 0.00350532 0)
(0.200671 0.00343611 0)
(0.20066 0.00337174 0)
(0.200632 0.00330771 0)
(0.200624 0.00324844 0)
(0.200597 0.00318912 0)
(0.200591 0.00313452 0)
(0.200565 0.00307947 0)
(0.200561 0.00302917 0)
(0.200535 0.00297797 0)
(0.200534 0.00293161 0)
(0.200508 0.0028839 0)
(0.200509 0.00284113 0)
(0.200483 0.0027966 0)
(0.200486 0.00275706 0)
(0.20046 0.00271543 0)
(0.200465 0.00267883 0)
(0.200438 0.00263975 0)
(0.200446 0.00260589 0)
(0.200419 0.00256905 0)
(0.200428 0.00253766 0)
(0.2004 0.00250286 0)
(0.200411 0.00247364 0)
(0.200382 0.00244071 0)
(0.200395 0.00241344 0)
(0.200365 0.00238212 0)
(0.200379 0.00235669 0)
(0.200348 0.00232672 0)
(0.200364 0.00230297 0)
(0.20033 0.00227422 0)
(0.200348 0.00225192 0)
(0.200313 0.0022243 0)
(0.200331 0.00220327 0)
(0.200295 0.00217663 0)
(0.200314 0.00215683 0)
(0.200275 0.00213094 0)
(0.200296 0.00211229 0)
(0.200255 0.00208714 0)
(0.200276 0.00206938 0)
(0.200232 0.00204501 0)
(0.200254 0.0020281 0)
(0.200208 0.00200425 0)
(0.200229 0.0019883 0)
(0.20018 0.00196496 0)
(0.200202 0.00194971 0)
(0.20015 0.00192706 0)
(0.200172 0.00191254 0)
(0.200117 0.00189037 0)
(0.200137 0.00187674 0)
(0.200079 0.00185517 0)
(0.200098 0.00184227 0)
(0.200037 0.00182149 0)
(0.200055 0.00180955 0)
(0.199989 0.00178959 0)
(0.200006 0.00177873 0)
(0.199936 0.00175989 0)
(0.19995 0.00175029 0)
(0.199876 0.00173286 0)
(0.199888 0.001725 0)
(0.19981 0.00170943 0)
(0.199817 0.00170364 0)
(0.199735 0.00169044 0)
(0.199739 0.00168732 0)
(0.199653 0.001677 0)
(0.198388 0.00523863 0)
(0.198496 0.00553964 0)
(0.198641 0.00581919 0)
(0.198821 0.00606607 0)
(0.199035 0.00627062 0)
(0.199274 0.00642315 0)
(0.199528 0.00651893 0)
(0.199781 0.00655652 0)
(0.200024 0.0065412 0)
(0.200239 0.00648059 0)
(0.200424 0.00638637 0)
(0.20057 0.00626843 0)
(0.200683 0.00613731 0)
(0.200761 0.00599911 0)
(0.200816 0.00585983 0)
(0.200848 0.00572104 0)
(0.20087 0.00558536 0)
(0.200878 0.0054518 0)
(0.200883 0.00532176 0)
(0.20088 0.00519361 0)
(0.200877 0.0050689 0)
(0.200867 0.00494613 0)
(0.200859 0.0048273 0)
(0.200843 0.00471082 0)
(0.200831 0.00459885 0)
(0.200811 0.00448946 0)
(0.200795 0.00438487 0)
(0.200773 0.0042828 0)
(0.200756 0.00418555 0)
(0.200733 0.00409063 0)
(0.200716 0.00400047 0)
(0.200693 0.0039124 0)
(0.200677 0.00382904 0)
(0.200654 0.00374744 0)
(0.200639 0.00367052 0)
(0.200617 0.00359499 0)
(0.200604 0.00352409 0)
(0.200583 0.0034542 0)
(0.200571 0.00338884 0)
(0.200551 0.00332415 0)
(0.200541 0.00326389 0)
(0.200521 0.00320397 0)
(0.200513 0.00314841 0)
(0.200495 0.00309282 0)
(0.200488 0.00304159 0)
(0.20047 0.00298994 0)
(0.200465 0.00294268 0)
(0.200448 0.00289461 0)
(0.200445 0.00285095 0)
(0.200428 0.00280618 0)
(0.200426 0.00276576 0)
(0.20041 0.00272398 0)
(0.20041 0.00268654 0)
(0.200394 0.00264738 0)
(0.200395 0.00261272 0)
(0.20038 0.00257588 0)
(0.200382 0.00254369 0)
(0.200367 0.00250903 0)
(0.20037 0.00247898 0)
(0.200355 0.00244629 0)
(0.200359 0.00241822 0)
(0.200344 0.00238719 0)
(0.200349 0.002361 0)
(0.200334 0.0023314 0)
(0.20034 0.00230687 0)
(0.200325 0.00227861 0)
(0.200332 0.0022555 0)
(0.200317 0.00222849 0)
(0.200325 0.00220665 0)
(0.200309 0.00218067 0)
(0.200317 0.0021601 0)
(0.200301 0.00213494 0)
(0.20031 0.00211549 0)
(0.200294 0.00209122 0)
(0.200303 0.0020726 0)
(0.200287 0.0020492 0)
(0.200296 0.00203151 0)
(0.200279 0.00200863 0)
(0.200289 0.00199191 0)
(0.200271 0.0019697 0)
(0.200281 0.00195363 0)
(0.200262 0.00193217 0)
(0.200272 0.00191694 0)
(0.200252 0.00189598 0)
(0.200262 0.00188167 0)
(0.200242 0.00186145 0)
(0.200251 0.00184788 0)
(0.200229 0.0018285 0)
(0.200238 0.00181601 0)
(0.200215 0.0017975 0)
(0.200223 0.00178616 0)
(0.200199 0.00176887 0)
(0.200205 0.00175891 0)
(0.20018 0.00174305 0)
(0.200185 0.00173493 0)
(0.200157 0.00172099 0)
(0.200161 0.00171502 0)
(0.200132 0.00170338 0)
(0.200134 0.00170016 0)
(0.200103 0.0016914 0)
(0.198756 0.0050955 0)
(0.198839 0.0053546 0)
(0.198948 0.00559545 0)