/*--------------------------------*- C++ -*----------------------------------*\
| =========                 |                                                 |
| \\      /  F ield         | OpenFOAM: The Open Source CFD Toolbox           |
|  \\    /   O peration     | Version:  2.3.0                                 |
|   \\  /    A nd           | Web:      www.OpenFOAM.org                      |
|    \\/     M anipulation  |                                                 |
\*---------------------------------------------------------------------------*/
FoamFile
{
    version     2.0;
    format      ascii;
    class       volScalarField;
    location    "0.5";
    object      p;
}
// * * * * * * * * * * * * * * * * * * * * * * * * * * * * * * * * * * * * * //

dimensions      [0 2 -2 0 0 0 0];

internalField   nonuniform List<scalar> 
217
(
0.000482867
0.000462531
0.000392605
0.000323299
0.000256242
0.000206078
0.000177664
0.000156503
0.000137719
0.000114497
9.13513e-05
8.10574e-05
6.36453e-05
1.95991e-05
-1.91702e-05
-4.60615e-05
-0.000105251
-0.000178766
-0.000220055
-0.000241091
-0.000269341
-0.000267984
-0.000220999
-0.000158158
-5.9846e-05
0.000356321
0.000359749
0.000347082
0.000311251
0.000251322
0.000199448
0.000168245
0.000145014
0.000127469
0.000105901
8.38495e-05
7.53707e-05
5.94656e-05
1.56155e-05
-2.07413e-05
-4.45866e-05
-0.000102097
-0.000173073
-0.00021117
-0.000229727
-0.000258714
-0.000259803
-0.000214264
-0.000153169
-5.76158e-05
0.000299955
0.000311947
0.00031751
0.000299609
0.000250547
0.000199719
0.000162085
0.000132951
0.000112914
9.52779e-05
7.68349e-05
6.49266e-05
5.07286e-05
1.6039e-05
-1.94983e-05
-4.50737e-05
-9.33324e-05
-0.000152992
-0.000186541
-0.000202616
-0.000226797
-0.00022844
-0.000189253
-0.000134199
-5.05966e-05
0.000240638
0.000252582
0.000266187
0.00026101
0.000224282
0.000180542
0.000145361
0.000115514
9.41376e-05
7.93954e-05
6.19724e-05
4.94947e-05
4.35248e-05
1.62843e-05
-2.32654e-05
-4.61349e-05
-7.78931e-05
-0.000126259
-0.000159549
-0.00017355
-0.000188298
-0.000189734
-0.000160354
-0.00011435
-4.29215e-05
0.000182062
0.000190257
0.000208835
0.000213303
0.00018733
0.000155561
0.00012602
9.73666e-05
7.76143e-05
6.39719e-05
4.79302e-05
3.82631e-05
3.65297e-05
1.35657e-05
-2.16623e-05
-3.77979e-05
-5.95137e-05
-9.92562e-05
-0.000128215
-0.000138244
-0.00014559
-0.00014642
-0.000127603
-9.05823e-05
-3.18462e-05
0.0001242
0.000130437
0.000145991
0.000157884
0.000141209
0.000117646
9.70278e-05
7.46815e-05
5.73193e-05
4.59896e-05
3.66898e-05
2.77531e-05
2.21626e-05
9.41044e-06
-1.31525e-05
-2.79027e-05
-4.31701e-05
-6.98287e-05
-9.18323e-05
-9.9679e-05
-0.000101699
-0.000101775
-9.08592e-05
-6.38643e-05
-2.20077e-05
4.41325e-05
4.43591e-05
5.31737e-05
6.4022e-05
5.75098e-05
4.99069e-05
4.19449e-05
3.01688e-05
2.42994e-05
1.91871e-05
1.38907e-05
8.8994e-06
7.10328e-06
8.41972e-06
-3.56947e-06
-1.88064e-05
-1.87696e-05
-2.15036e-05
-3.58046e-05
-4.04748e-05
-3.76906e-05
-3.87962e-05
-3.41105e-05
-2.30952e-05
-8.11729e-06
9.7593e-05
0.000133496
0.000187552
0.000250475
0.000326947
0.000407179
0.000106078
0.000132041
0.000176653
0.000226377
0.000281207
0.000329573
0.000105231
0.00012672
0.000161124
0.000198659
0.000239654
0.000277377
0.000101624
0.000119074
0.000142683
0.000167493
0.000194476
0.00022346
9.18909e-05
0.000104339
0.000118829
0.000132109
0.000146437
0.00016893
7.38804e-05
8.11442e-05
8.84255e-05
9.48569e-05
9.76484e-05
0.000110049
3.3987e-05
3.60976e-05
3.69721e-05
3.62965e-05
3.24899e-05
3.70021e-05
)
;

boundaryField
{
    top
    {
        type            fixedValue;
        value           uniform 0;
    }
    inlet
    {
        type            zeroGradient;
    }
    outlet
    {
        type            fixedValue;
        value           uniform 0;
    }
    plate
    {
        type            zeroGradient;
    }
    symmBound
    {
        type            zeroGradient;
    }
    frontAndBack
    {
        type            empty;
    }
}


// ************************************************************************* //
