/*--------------------------------*- C++ -*----------------------------------*\
| =========                 |                                                 |
| \\      /  F ield         | OpenFOAM: The Open Source CFD Toolbox           |
|  \\    /   O peration     | Version:  2.3.0                                 |
|   \\  /    A nd           | Web:      www.OpenFOAM.org                      |
|    \\/     M anipulation  |                                                 |
\*---------------------------------------------------------------------------*/
FoamFile
{
    version     2.0;
    format      ascii;
    class       volVectorField;
    location    "0.5";
    object      U;
}
// * * * * * * * * * * * * * * * * * * * * * * * * * * * * * * * * * * * * * //

dimensions      [0 1 -1 0 0 0 0];

internalField   nonuniform List<vector> 
217
(
(0.195255 0.0012237 0)
(0.189375 0.00181889 0)
(0.183678 0.00207513 0)
(0.177933 0.00223196 0)
(0.17152 0.00217504 0)
(0.16487 0.00199464 0)
(0.158308 0.00194998 0)
(0.151655 0.00199038 0)
(0.144519 0.00204732 0)
(0.137019 0.00196416 0)
(0.129549 0.0018643 0)
(0.121868 0.00192986 0)
(0.113801 0.00183583 0)
(0.105823 0.00163064 0)
(0.0980147 0.00159052 0)
(0.0901646 0.00153229 0)
(0.0824829 0.00128929 0)
(0.0753132 0.00101999 0)
(0.068993 0.000770159 0)
(0.0637427 0.000447924 0)
(0.059557 0.000177375 0)
(0.0567009 -9.533e-05 0)
(0.0549499 -0.000230983 0)
(0.0541368 -0.000406887 0)
(0.0545843 -0.000344277 0)
(0.198706 0.00207448 0)
(0.198635 0.00297116 0)
(0.198236 0.0033206 0)
(0.197965 0.0035014 0)
(0.197854 0.00371947 0)
(0.197167 0.00362664 0)
(0.19606 0.00347439 0)
(0.194956 0.00353414 0)
(0.193826 0.00369225 0)
(0.192168 0.00382235 0)
(0.190355 0.00380876 0)
(0.18792 0.00375255 0)
(0.185584 0.00386919 0)
(0.182784 0.00389108 0)
(0.180064 0.0036748 0)
(0.176576 0.00356859 0)
(0.173221 0.00355557 0)
(0.169803 0.00325748 0)
(0.166214 0.00280331 0)
(0.163064 0.00243305 0)
(0.159441 0.00199726 0)
(0.157152 0.00139491 0)
(0.154003 0.000952879 0)
(0.152733 0.000624356 0)
(0.150073 0.000185562 0)
(0.198948 0.00173918 0)
(0.199008 0.00229853 0)
(0.198855 0.00259124 0)
(0.198765 0.00279915 0)
(0.199212 0.00308025 0)
(0.19952 0.0031992 0)
(0.199494 0.00324607 0)
(0.199409 0.00315833 0)
(0.199523 0.00333882 0)
(0.199409 0.00363263 0)
(0.199375 0.00371408 0)
(0.198983 0.00375715 0)
(0.198714 0.00395506 0)
(0.198383 0.00398154 0)
(0.198117 0.00378647 0)
(0.197397 0.00393452 0)
(0.196816 0.00393192 0)
(0.196429 0.00358767 0)
(0.195406 0.00307569 0)
(0.194785 0.0027988 0)
(0.193726 0.00242242 0)
(0.19338 0.0017392 0)
(0.191817 0.00120949 0)
(0.191608 0.000842431 0)
(0.189963 0.000368503 0)
(0.1992 0.00167044 0)
(0.199255 0.00215304 0)
(0.199136 0.00255534 0)
(0.199014 0.00274465 0)
(0.19927 0.00302316 0)
(0.199624 0.0032897 0)
(0.199789 0.00345836 0)
(0.199903 0.00342767 0)
(0.199899 0.00352678 0)
(0.200004 0.00370895 0)
(0.200106 0.00385828 0)
(0.200229 0.00395988 0)
(0.200085 0.00404014 0)
(0.200288 0.0040616 0)
(0.200453 0.00396675 0)
(0.200436 0.00408468 0)
(0.200398 0.0039813 0)
(0.200767 0.00370235 0)
(0.200617 0.00322087 0)
(0.20071 0.00296822 0)
(0.200476 0.00255884 0)
(0.200804 0.00196553 0)
(0.200051 0.00143749 0)
(0.200269 0.0011698 0)
(0.199286 0.000687106 0)
(0.199434 0.00171766 0)
(0.199524 0.00203802 0)
(0.19938 0.00241016 0)
(0.199316 0.00265691 0)
(0.19947 0.00291868 0)
(0.199606 0.0031682 0)
(0.199766 0.00336288 0)
(0.200015 0.00338581 0)
(0.199975 0.00346576 0)
(0.200092 0.00364009 0)
(0.200142 0.00376098 0)
(0.200329 0.00379129 0)
(0.200144 0.00385396 0)
(0.200408 0.0040181 0)
(0.200565 0.00390354 0)
(0.200632 0.00388196 0)
(0.200617 0.00375972 0)
(0.201033 0.00356812 0)
(0.201045 0.0031514 0)
(0.201172 0.00283865 0)
(0.20109 0.0024478 0)
(0.201434 0.00196884 0)
(0.20099 0.00145992 0)
(0.201233 0.00121646 0)
(0.200554 0.000756074 0)
(0.199654 0.00171061 0)
(0.199716 0.00194018 0)
(0.199615 0.00224332 0)
(0.199488 0.00253172 0)
(0.199608 0.00276207 0)
(0.199761 0.00302557 0)
(0.199823 0.00323387 0)
(0.200024 0.00335018 0)
(0.199997 0.00344308 0)
(0.200136 0.00355834 0)
(0.200075 0.00367249 0)
(0.200269 0.00369487 0)
(0.2002 0.00375537 0)
(0.200361 0.00393583 0)
(0.200403 0.00376532 0)
(0.200508 0.00374745 0)
(0.200487 0.00371776 0)
(0.200803 0.00350341 0)
(0.200804 0.00305187 0)
(0.200964 0.0027992 0)
(0.200861 0.00239336 0)
(0.201105 0.00201141 0)
(0.200835 0.00155378 0)
(0.200995 0.00129159 0)
(0.200527 0.000904494 0)
(0.199872 0.00164065 0)
(0.199964 0.00188874 0)
(0.199904 0.00205731 0)
(0.199783 0.0023871 0)
(0.199898 0.00268984 0)
(0.199883 0.00289968 0)
(0.199903 0.0031441 0)
(0.200041 0.00328172 0)
(0.199994 0.00339226 0)
(0.200058 0.00351957 0)
(0.200074 0.00357044 0)
(0.20013 0.0036909 0)
(0.20011 0.00367116 0)
(0.200077 0.00379487 0)
(0.20015 0.00375982 0)
(0.200347 0.00371068 0)
(0.200247 0.00356903 0)
(0.200246 0.0034218 0)
(0.20037 0.00304501 0)
(0.200416 0.00272742 0)
(0.200327 0.00233001 0)
(0.200477 0.0020519 0)
(0.20034 0.00157123 0)
(0.200398 0.00135293 0)
(0.200241 0.00101412 0)
(0.193932 -4.96511e-05 0)
(0.205496 -0.000146782 0)
(0.194685 7.90592e-05 0)
(0.203823 8.96489e-05 0)
(0.194809 0.000279943 0)
(0.202089 0.000535977 0)
(0.199221 -2.06003e-05 0)
(0.20028 -0.000172631 0)
(0.199281 0.000184747 0)
(0.199615 0.000362794 0)
(0.198902 0.00079805 0)
(0.198738 0.0011569 0)
(0.199962 1.73651e-05 0)
(0.199863 2.63654e-05 0)
(0.199697 0.000286576 0)
(0.199581 0.000599483 0)
(0.199383 0.000883161 0)
(0.199108 0.00117326 0)
(0.200003 4.11597e-05 0)
(0.199889 0.000138235 0)
(0.199764 0.000365231 0)
(0.199691 0.000666021 0)
(0.199646 0.000982907 0)
(0.199435 0.0012825 0)
(0.199999 7.77084e-05 0)
(0.199925 0.000246884 0)
(0.19985 0.000508623 0)
(0.19981 0.000804206 0)
(0.199805 0.00105983 0)
(0.199633 0.00133443 0)
(0.199997 0.000115123 0)
(0.199958 0.000354139 0)
(0.199925 0.000626932 0)
(0.199882 0.000896605 0)
(0.199916 0.00113732 0)
(0.199877 0.0013788 0)
(0.199998 0.000152609 0)
(0.199989 0.000461254 0)
(0.199985 0.000748779 0)
(0.199982 0.000997123 0)
(0.200026 0.0012647 0)
(0.200001 0.00139937 0)
)
;

boundaryField
{
    top
    {
        type            zeroGradient;
    }
    inlet
    {
        type            fixedValue;
        value           uniform (0.2 0 0);
    }
    outlet
    {
        type            zeroGradient;
    }
    plate
    {
        type            fixedValue;
        value           uniform (0 0 0);
    }
    symmBound
    {
        type            zeroGradient;
    }
    frontAndBack
    {
        type            empty;
    }
}


// ************************************************************************* //
