/*--------------------------------*- C++ -*----------------------------------*\
| =========                 |                                                 |
| \\      /  F ield         | OpenFOAM: The Open Source CFD Toolbox           |
|  \\    /   O peration     | Version:  2.3.0                                 |
|   \\  /    A nd           | Web:      www.OpenFOAM.org                      |
|    \\/     M anipulation  |                                                 |
\*---------------------------------------------------------------------------*/
FoamFile
{
    version     2.0;
    format      ascii;
    class       volVectorField;
    location    "0.5";
    object      U_0;
}
// * * * * * * * * * * * * * * * * * * * * * * * * * * * * * * * * * * * * * //

dimensions      [0 1 -1 0 0 0 0];

internalField   nonuniform List<vector> 
217
(
(0.195262 0.00122835 0)
(0.189374 0.00181567 0)
(0.183691 0.00208014 0)
(0.177927 0.00223946 0)
(0.171491 0.00216779 0)
(0.164863 0.00198694 0)
(0.158325 0.00195172 0)
(0.151667 0.00199535 0)
(0.144513 0.00204815 0)
(0.137015 0.00195978 0)
(0.129555 0.00186574 0)
(0.121869 0.00193343 0)
(0.113797 0.00183207 0)
(0.105827 0.00162798 0)
(0.0980249 0.00159349 0)
(0.0901723 0.00153299 0)
(0.0824888 0.00128635 0)
(0.0753265 0.00101814 0)
(0.0690192 0.000769239 0)
(0.0637727 0.000447347 0)
(0.0595931 0.000176299 0)
(0.056745 -9.72415e-05 0)
(0.0550063 -0.000232796 0)
(0.0542058 -0.000408465 0)
(0.0546687 -0.000344675 0)
(0.198718 0.00208305 0)
(0.198631 0.00296703 0)
(0.198226 0.00331478 0)
(0.19798 0.00351779 0)
(0.197862 0.00372855 0)
(0.197144 0.00361233 0)
(0.196045 0.00346449 0)
(0.19497 0.00353775 0)
(0.193838 0.0036989 0)
(0.192171 0.00382331 0)
(0.190348 0.003803 0)
(0.187917 0.0037523 0)
(0.185589 0.00387539 0)
(0.182791 0.00388775 0)
(0.180066 0.00366742 0)
(0.176571 0.00357136 0)
(0.173231 0.00355803 0)
(0.169812 0.0032512 0)
(0.166234 0.00279919 0)
(0.163077 0.00243345 0)
(0.159467 0.00199276 0)
(0.157178 0.00138838 0)
(0.154044 0.000950494 0)
(0.152778 0.000618098 0)
(0.150138 0.000179344 0)
(0.198954 0.00175482 0)
(0.199008 0.00230112 0)
(0.198837 0.00258273 0)
(0.198769 0.00280524 0)
(0.199233 0.00309124 0)
(0.199516 0.00319878 0)
(0.199478 0.00323157 0)
(0.19941 0.00314819 0)
(0.199531 0.00334835 0)
(0.199414 0.00363942 0)
(0.199374 0.0037095 0)
(0.198978 0.00375685 0)
(0.198716 0.00395865 0)
(0.198389 0.00397406 0)
(0.198116 0.00378358 0)
(0.19739 0.00394198 0)
(0.196827 0.00392981 0)
(0.196431 0.00357551 0)
(0.195409 0.00306989 0)
(0.194793 0.00280223 0)
(0.193745 0.00241784 0)
(0.193387 0.00172939 0)
(0.191831 0.00120437 0)
(0.191624 0.000832692 0)
(0.189984 0.000359424 0)
(0.1992 0.0016786 0)
(0.19926 0.00216154 0)
(0.199123 0.00254842 0)
(0.19901 0.00273875 0)
(0.199284 0.00303146 0)
(0.199632 0.00329777 0)
(0.199787 0.00345135 0)
(0.199896 0.00341703 0)
(0.199896 0.00352831 0)
(0.200008 0.00371401 0)
(0.200111 0.00385946 0)
(0.200227 0.00395813 0)
(0.200083 0.00403932 0)
(0.200295 0.0040573 0)
(0.200451 0.00396709 0)
(0.200429 0.00408855 0)
(0.200405 0.00397827 0)
(0.20077 0.00369217 0)
(0.200616 0.00321459 0)
(0.200712 0.00296863 0)
(0.20049 0.00255335 0)
(0.200806 0.00195697 0)
(0.200056 0.00143369 0)
(0.200274 0.00116115 0)
(0.199287 0.000677673 0)
(0.199436 0.001723 0)
(0.19953 0.00204159 0)
(0.199374 0.00240857 0)
(0.199316 0.0026534 0)
(0.199471 0.00292178 0)
(0.199606 0.00317313 0)
(0.199773 0.00335845 0)
(0.200014 0.00337725 0)
(0.199969 0.00346725 0)
(0.200094 0.00364433 0)
(0.200148 0.00375957 0)
(0.200326 0.00378792 0)
(0.200142 0.00385759 0)
(0.200415 0.00401812 0)
(0.200563 0.00390006 0)
(0.200627 0.00388132 0)
(0.200622 0.00375749 0)
(0.201038 0.00356125 0)
(0.201043 0.00314407 0)
(0.201171 0.00283567 0)
(0.2011 0.0024435 0)
(0.201435 0.00196156 0)
(0.200994 0.00145585 0)
(0.201236 0.0012085 0)
(0.200552 0.000746704 0)
(0.199651 0.00171324 0)
(0.199721 0.00194029 0)
(0.19961 0.00224404 0)
(0.199486 0.00252894 0)
(0.199612 0.00276185 0)
(0.199761 0.00302883 0)
(0.199825 0.00323271 0)
(0.200022 0.00334612 0)
(0.199995 0.00344181 0)
(0.200135 0.00355973 0)
(0.200077 0.00367144 0)
(0.200272 0.0036919 0)
(0.2002 0.00375969 0)
(0.200362 0.00393474 0)
(0.200401 0.00376063 0)
(0.200504 0.0037501 0)
(0.20049 0.00371668 0)
(0.200806 0.00349317 0)
(0.200804 0.00304449 0)
(0.200964 0.00279622 0)
(0.200865 0.00238839 0)
(0.201106 0.00200559 0)
(0.200838 0.0015495 0)
(0.200997 0.0012844 0)
(0.200525 0.000896299 0)
(0.199873 0.0016446 0)
(0.19997 0.00188744 0)
(0.199898 0.00205657 0)
(0.199784 0.00239097 0)
(0.1999 0.00268885 0)
(0.199878 0.00289945 0)
(0.199907 0.00314369 0)
(0.200041 0.00327842 0)
(0.199992 0.00339202 0)
(0.20006 0.00351846 0)
(0.200075 0.00357086 0)
(0.20013 0.00368991 0)
(0.200107 0.00367117 0)
(0.200076 0.00379657 0)
(0.200156 0.00375871 0)
(0.200348 0.0037092 0)
(0.200241 0.00356614 0)
(0.200247 0.00341477 0)
(0.200373 0.00303707 0)
(0.200414 0.00272161 0)
(0.20033 0.00232658 0)
(0.200478 0.00204634 0)
(0.20034 0.00156585 0)
(0.200399 0.00134734 0)
(0.200241 0.00100687 0)
(0.193932 -4.99414e-05 0)
(0.205497 -0.000142688 0)
(0.194684 7.99091e-05 0)
(0.203816 8.22512e-05 0)
(0.194806 0.000271699 0)
(0.202101 0.000541045 0)
(0.19922 -2.13067e-05 0)
(0.200282 -0.000168896 0)
(0.199285 0.00018873 0)
(0.19961 0.000358692 0)
(0.198894 0.000785114 0)
(0.198742 0.00115569 0)
(0.19996 1.65504e-05 0)
(0.199863 2.9497e-05 0)
(0.1997 0.000291176 0)
(0.199584 0.000595266 0)
(0.199379 0.000867778 0)
(0.199101 0.0011713 0)
(0.200002 4.10209e-05 0)
(0.199888 0.000139957 0)
(0.199766 0.000367419 0)
(0.199697 0.000664285 0)
(0.199647 0.000973729 0)
(0.199422 0.00127723 0)
(0.199999 7.77203e-05 0)
(0.199925 0.000248056 0)
(0.199851 0.000510612 0)
(0.199814 0.000801941 0)
(0.199804 0.0010517 0)
(0.199622 0.00133334 0)
(0.199997 0.000115358 0)
(0.199958 0.00035469 0)
(0.199924 0.000627433 0)
(0.199884 0.000894959 0)
(0.19992 0.00113271 0)
(0.199868 0.00137941 0)
(0.199998 0.000152919 0)
(0.199989 0.000461279 0)
(0.199985 0.000747881 0)
(0.199983 0.000997303 0)
(0.200027 0.00126182 0)
(0.199995 0.00139661 0)
)
;

boundaryField
{
    top
    {
        type            zeroGradient;
    }
    inlet
    {
        type            fixedValue;
        value           uniform (0.2 0 0);
    }
    outlet
    {
        type            zeroGradient;
    }
    plate
    {
        type            fixedValue;
        value           uniform (0 0 0);
    }
    symmBound
    {
        type            zeroGradient;
    }
    frontAndBack
    {
        type            empty;
    }
}


// ************************************************************************* //
