/*--------------------------------*- C++ -*----------------------------------*\
| =========                 |                                                 |
| \\      /  F ield         | OpenFOAM: The Open Source CFD Toolbox           |
|  \\    /   O peration     | Version:  2.3.0                                 |
|   \\  /    A nd           | Web:      www.OpenFOAM.org                      |
|    \\/     M anipulation  |                                                 |
\*---------------------------------------------------------------------------*/
FoamFile
{
    version     2.0;
    format      ascii;
    class       surfaceScalarField;
    location    "0.75";
    object      phi_0;
}
// * * * * * * * * * * * * * * * * * * * * * * * * * * * * * * * * * * * * * //

dimensions      [0 3 -1 0 0 0 0];

internalField   nonuniform List<scalar> 
2863
(
2.8889e-08
2.77934e-09
-3.16684e-08
2.54109e-08
3.47818e-09
2.19511e-08
3.45979e-09
1.87415e-08
3.20958e-09
1.58153e-08
2.92617e-09
1.32526e-08
2.5627e-09
1.11508e-08
2.10182e-09
9.52636e-09
1.62444e-09
8.34249e-09
1.18388e-09
7.51275e-09
8.29735e-10
6.93772e-09
5.75032e-10
6.53196e-09
4.0576e-10
6.23249e-09
2.99476e-10
5.99604e-09
2.36444e-10
5.79395e-09
2.0209e-10
5.60978e-09
1.84171e-10
5.43602e-09
1.73759e-10
5.27037e-09
1.65655e-10
5.11286e-09
1.57508e-10
4.96421e-09
1.48651e-10
4.825e-09
1.39207e-10
4.69543e-09
1.2957e-10
4.57529e-09
1.20138e-10
4.46407e-09
1.11219e-10
4.36107e-09
1.03003e-10
4.26549e-09
9.55759e-11
4.17655e-09
8.89471e-11
4.09347e-09
8.30796e-11
4.01556e-09
7.79051e-11
3.94222e-09
7.33403e-11
3.87292e-09
6.93006e-11
3.80721e-09
6.57061e-11
3.74473e-09
6.24867e-11
3.68515e-09
5.95824e-11
3.6282e-09
5.69433e-11
3.57367e-09
5.45294e-11
3.52136e-09
5.23076e-11
3.47111e-09
5.02525e-11
3.42277e-09
4.83429e-11
3.37621e-09
4.65627e-11
3.33131e-09
4.48982e-11
3.28797e-09
4.33381e-11
3.2461e-09
4.18738e-11
3.2056e-09
4.04962e-11
3.1664e-09
3.91995e-11
3.12842e-09
3.79763e-11
3.0916e-09
3.68217e-11
3.05587e-09
3.57298e-11
3.02118e-09
3.46957e-11
2.98746e-09
3.37154e-11
2.95468e-09
3.27832e-11
2.92278e-09
3.18976e-11
2.89173e-09
3.10513e-11
2.86148e-09
3.02453e-11
2.83201e-09
2.94717e-11
2.80328e-09
2.87324e-11
2.77526e-09
2.80197e-11
2.74792e-09
2.73371e-11
2.72125e-09
2.66751e-11
2.69521e-09
2.60412e-11
2.66979e-09
2.54212e-11
2.64496e-09
2.48296e-11
2.62071e-09
2.42447e-11
2.59702e-09
2.36898e-11
2.57389e-09
2.31348e-11
2.55128e-09
2.26114e-11
2.52919e-09
2.20814e-11
2.50761e-09
2.15865e-11
2.48653e-09
2.10759e-11
2.46592e-09
2.06083e-11
2.44581e-09
2.01125e-11
2.42614e-09
1.96701e-11
2.40696e-09
1.91858e-11
2.38819e-09
1.87672e-11
2.3699e-09
1.82906e-11
2.352e-09
1.78966e-11
2.33458e-09
1.74228e-11
2.31752e-09
1.70559e-11
2.30094e-09
1.65812e-11
2.2847e-09
1.62439e-11
2.26893e-09
1.57646e-11
2.25347e-09
1.54612e-11
2.2385e-09
1.49736e-11
2.22379e-09
1.47119e-11
2.20957e-09
1.42112e-11
2.19557e-09
1.40026e-11
2.18209e-09
1.34839e-11
2.16875e-09
1.33425e-11
2.15594e-09
1.28022e-11
2.1432e-09
1.27472e-11
2.13102e-09
1.21791e-11
2.11878e-09
1.22414e-11
2.10714e-09
1.16358e-11
2.09529e-09
1.18539e-11
2.08408e-09
1.12019e-11
2.07245e-09
1.16322e-11
2.06155e-09
1.09045e-11
2.0499e-09
1.16466e-11
2.03911e-09
1.07952e-11
1.32631e-11
3.63144e-08
2.4895e-09
-3.60245e-08
3.61382e-08
3.65434e-09
3.54207e-08
4.17734e-09
3.44173e-08
4.21301e-09
3.32407e-08
4.10278e-09
3.19107e-08
3.89264e-09
3.04509e-08
3.56162e-09
2.89391e-08
3.13624e-09
2.74524e-08
2.67059e-09
2.60471e-08
2.23504e-09
2.47482e-08
1.87393e-09
2.35581e-08
1.5959e-09
2.2475e-08
1.38254e-09
2.14977e-08
1.21372e-09
2.06168e-08
1.083e-09
1.98217e-08
9.79255e-10
1.91022e-08
8.93324e-10
1.84487e-08
8.19102e-10
1.78531e-08
7.53064e-10
1.73084e-08
6.93357e-10
1.68086e-08
6.39054e-10
1.63485e-08
5.89677e-10
1.59237e-08
5.44936e-10
1.55303e-08
5.04584e-10
1.5165e-08
4.68361e-10
1.48246e-08
4.35951e-10
1.45065e-08
4.07022e-10
1.42084e-08
3.81226e-10
1.39281e-08
3.58214e-10
1.36638e-08
3.37639e-10
1.34139e-08
3.19185e-10
1.3177e-08
3.0256e-10
1.2952e-08
2.87516e-10
1.27377e-08
2.73831e-10
1.25334e-08
2.61327e-10
1.2338e-08
2.49847e-10
1.21511e-08
2.39267e-10
1.19719e-08
2.29477e-10
1.17998e-08
2.20394e-10
1.16344e-08
2.1194e-10
1.14753e-08
2.04058e-10
1.13219e-08
1.96688e-10
1.1174e-08
1.89793e-10
1.10312e-08
1.8332e-10
1.08931e-08
1.77247e-10
1.07596e-08
1.71528e-10
1.06303e-08
1.66145e-10
1.05049e-08
1.6106e-10
1.03834e-08
1.5626e-10
1.02654e-08
1.5171e-10
1.01507e-08
1.47401e-10
1.00393e-08
1.43301e-10
9.93099e-09
1.39405e-10
9.82555e-09
1.35685e-10
9.72289e-09
1.32138e-10
9.62288e-09
1.28736e-10
9.52542e-09
1.25483e-10
9.43041e-09
1.22351e-10
9.33773e-09
1.19346e-10
9.24733e-09
1.16443e-10
9.15911e-09
1.13646e-10
9.073e-09
1.1094e-10
8.98892e-09
1.0832e-10
8.90683e-09
1.05781e-10
8.82666e-09
1.03312e-10
8.74835e-09
1.00916e-10
8.67186e-09
9.85757e-11
8.59714e-09
9.63034e-11
8.52415e-09
9.40699e-11
8.45285e-09
9.19079e-11
8.3832e-09
8.97625e-11
8.31517e-09
8.76974e-11
8.24873e-09
8.5626e-11
8.18385e-09
8.36455e-11
8.12051e-09
8.16348e-11
8.05867e-09
7.97331e-11
7.99832e-09
7.77692e-11
7.93943e-09
7.59451e-11
7.882e-09
7.40175e-11
7.82597e-09
7.22704e-11
7.77136e-09
7.03719e-11
7.71812e-09
6.87056e-11
7.66626e-09
6.68315e-11
7.61571e-09
6.52589e-11
7.56652e-09
6.34054e-11
7.51858e-09
6.19476e-11
7.47194e-09
6.01161e-11
7.42649e-09
5.88008e-11
7.38229e-09
5.70014e-11
7.33917e-09
5.5868e-11
7.29723e-09
5.41155e-11
7.25624e-09
5.32276e-11
7.21634e-09
5.15419e-11
7.17721e-09
5.09763e-11
7.13901e-09
4.94027e-11
7.10138e-09
4.9262e-11
7.06445e-09
4.78434e-11
7.02776e-09
4.83272e-11
6.99133e-09
4.7227e-11
5.06541e-11
4.03647e-08
2.37496e-09
-4.02502e-08
4.07802e-08
3.23887e-09
4.10342e-08
3.92337e-09
4.10958e-08
4.1514e-09
4.10412e-08
4.15734e-09
4.08658e-08
4.06806e-09
4.05328e-08
3.89461e-09
4.00419e-08
3.62711e-09
3.94233e-08
3.28924e-09
3.87213e-08
2.93701e-09
3.7974e-08
2.62122e-09
3.72061e-08
2.36378e-09
3.64307e-08
2.15795e-09
3.56548e-08
1.98962e-09
3.4887e-08
1.85079e-09
3.41327e-08
1.73358e-09
3.3395e-08
1.63103e-09
3.2676e-08
1.53815e-09
3.1977e-08
1.45201e-09
3.12993e-08
1.37108e-09
3.06437e-08
1.29466e-09
3.00109e-08
1.22249e-09
2.94013e-08
1.15451e-09
2.88152e-08
1.0907e-09
2.82525e-08
1.03107e-09
2.77129e-08
9.75517e-10
2.7196e-08
9.23916e-10
2.67011e-08
8.76103e-10
2.62275e-08
8.3187e-10
2.57742e-08
7.90965e-10
2.53402e-08
7.53142e-10
2.49246e-08
7.18136e-10
2.45264e-08
6.85714e-10
2.41446e-08
6.55636e-10
2.37782e-08
6.27706e-10
2.34264e-08
6.01721e-10
2.30881e-08
5.77526e-10
2.27626e-08
5.54948e-10
2.24492e-08
5.3387e-10
2.2147e-08
5.14145e-10
2.18553e-08
4.95686e-10
2.15737e-08
4.78361e-10
2.13013e-08
4.62111e-10
2.10379e-08
4.46812e-10
2.07827e-08
4.32431e-10
2.05353e-08
4.18847e-10
2.02954e-08
4.06048e-10
2.00626e-08
3.93916e-10
1.98364e-08
3.82458e-10
1.96165e-08
3.71557e-10
1.94027e-08
3.61235e-10
1.91946e-08
3.51378e-10
1.8992e-08
3.4202e-10
1.87947e-08
3.33046e-10
1.86023e-08
3.2451e-10
1.84147e-08
3.16285e-10
1.82318e-08
3.08449e-10
1.80533e-08
3.0086e-10
1.7879e-08
2.93621e-10
1.77089e-08
2.86576e-10
1.75427e-08
2.79846e-10
1.73803e-08
2.73266e-10
1.72217e-08
2.66972e-10
1.70667e-08
2.60788e-10
1.69151e-08
2.54871e-10
1.6767e-08
2.49022e-10
1.66221e-08
2.43429e-10
1.64806e-08
2.37866e-10
1.63421e-08
2.32549e-10
1.62068e-08
2.27233e-10
1.60744e-08
2.2215e-10
1.5945e-08
2.17041e-10
1.58185e-08
2.12162e-10
1.56949e-08
2.07225e-10
1.5574e-08
2.02522e-10
1.5456e-08
1.97731e-10
1.53406e-08
1.93179e-10
1.52281e-08
1.88517e-10
1.5118e-08
1.84098e-10
1.50107e-08
1.79548e-10
1.49058e-08
1.75256e-10
1.48037e-08
1.70808e-10
1.47039e-08
1.66645e-10
1.46069e-08
1.62304e-10
1.4512e-08
1.58277e-10
1.44199e-08
1.54059e-10
1.43298e-08
1.50196e-10
1.42425e-08
1.46126e-10
1.4157e-08
1.42478e-10
1.40743e-08
1.38598e-10
1.39931e-08
1.35235e-10
1.39147e-08
1.31626e-10
1.38376e-08
1.28644e-10
1.37632e-08
1.25404e-10
1.36897e-08
1.22955e-10
1.36187e-08
1.20245e-10
1.35481e-08
1.18466e-10
1.34796e-08
1.16754e-10
1.3411e-08
1.15881e-10
1.17738e-10
4.48458e-08
2.3322e-09
-4.4803e-08
4.51503e-08
2.93435e-09
4.55395e-08
3.53415e-09
4.58386e-08
3.85232e-09
4.60654e-08
3.93052e-09
4.62466e-08
3.88686e-09
4.63599e-08
3.78134e-09
4.63779e-08
3.60916e-09
4.62903e-08
3.37685e-09
4.61113e-08
3.11597e-09
4.58674e-08
2.86508e-09
4.55801e-08
2.65111e-09
4.52607e-08
2.47735e-09
4.49141e-08
2.33624e-09
4.45461e-08
2.21876e-09
4.41616e-08
2.11808e-09
4.37637e-08
2.02894e-09
4.33543e-08
1.94752e-09
4.2935e-08
1.87134e-09
4.25071e-08
1.79897e-09
4.20721e-08
1.72968e-09
4.16314e-08
1.66316e-09
4.11866e-08
1.59931e-09
4.07392e-08
1.53813e-09
4.02906e-08
1.47968e-09
3.98421e-08
1.42397e-09
3.93951e-08
1.371e-09
3.89504e-08
1.32074e-09
3.85092e-08
1.27313e-09
3.80721e-08
1.22801e-09
3.764e-08
1.1853e-09
3.72133e-08
1.14481e-09
3.67926e-08
1.10643e-09
3.63782e-08
1.06998e-09
3.59705e-08
1.03539e-09
3.55698e-08
1.00247e-09
3.51761e-08
9.71172e-10
3.47897e-08
9.41344e-10
3.44107e-08
9.12962e-10
3.40389e-08
8.8587e-10
3.36745e-08
8.60075e-10
3.33175e-08
8.35414e-10
3.29677e-08
8.11928e-10
3.26251e-08
7.89435e-10
3.22895e-08
7.68009e-10
3.19609e-08
7.4745e-10
3.16391e-08
7.27862e-10
3.13239e-08
7.09024e-10
3.10153e-08
6.9107e-10
3.07131e-08
6.73758e-10
3.04171e-08
6.57253e-10
3.01272e-08
6.41289e-10
2.98432e-08
6.26067e-10
2.95649e-08
6.11286e-10
2.92922e-08
5.97199e-10
2.90251e-08
5.83452e-10
2.87631e-08
5.70364e-10
2.85065e-08
5.5752e-10
2.82548e-08
5.45309e-10
2.80081e-08
5.33252e-10
2.77662e-08
5.21808e-10
2.7529e-08
5.10433e-10
2.72963e-08
4.99662e-10
2.70682e-08
4.88873e-10
2.68444e-08
4.78695e-10
2.6625e-08
4.68399e-10
2.64097e-08
4.58743e-10
2.61987e-08
4.48862e-10
2.59916e-08
4.3966e-10
2.57887e-08
4.3013e-10
2.55895e-08
4.21323e-10
2.53945e-08
4.12075e-10
2.5203e-08
4.03621e-10
2.50157e-08
3.9459e-10
2.48317e-08
3.86454e-10
2.46519e-08
3.77587e-10
2.44753e-08
3.69737e-10
2.43029e-08
3.60993e-10
2.41335e-08
3.53411e-10
2.39683e-08
3.44748e-10
2.38062e-08
3.37436e-10
2.36482e-08
3.28815e-10
2.3493e-08
3.21794e-10
2.33421e-08
3.132e-10
2.31939e-08
3.06499e-10
2.305e-08
2.97933e-10
2.29086e-08
2.91618e-10
2.27716e-08
2.83092e-10
2.26368e-08
2.77268e-10
2.25066e-08
2.68824e-10
2.23782e-08
2.63626e-10
2.22545e-08
2.5537e-10
2.21322e-08
2.50966e-10
2.20145e-08
2.4306e-10
2.18978e-08
2.39673e-10
2.17856e-08
2.32428e-10
2.16738e-08
2.30223e-10
2.15661e-08
2.24489e-10
2.14582e-08
2.23798e-10
2.21623e-10
4.98102e-08
2.28243e-09
-4.97604e-08
5.00134e-08
2.73117e-09
5.03548e-08
3.1927e-09
5.06816e-08
3.52549e-09
5.09484e-08
3.66376e-09
5.11719e-08
3.66333e-09
5.13643e-08
3.58891e-09
5.15095e-08
3.46398e-09
5.15903e-08
3.29603e-09
5.16055e-08
3.10082e-09
5.15686e-08
2.90196e-09
5.14983e-08
2.72146e-09
5.14054e-08
2.57026e-09
5.12942e-08
2.44735e-09
5.11681e-08
2.34496e-09
5.10293e-08
2.25681e-09
5.08796e-08
2.17861e-09
5.07197e-08
2.10745e-09
5.05497e-08
2.0414e-09
5.03695e-08
1.97917e-09
5.01791e-08
1.92004e-09
4.99787e-08
1.86352e-09
4.97686e-08
1.80941e-09
4.95492e-08
1.75756e-09
4.93209e-08
1.70795e-09
4.90844e-08
1.66051e-09
4.88401e-08
1.61528e-09
4.85887e-08
1.57213e-09
4.83308e-08
1.53109e-09
4.80668e-08
1.49196e-09
4.77974e-08
1.45473e-09
4.7523e-08
1.41917e-09
4.72442e-08
1.38527e-09
4.69614e-08
1.35278e-09
4.66751e-08
1.32172e-09
4.63857e-08
1.29186e-09
4.60936e-08
1.26325e-09
4.57993e-08
1.23565e-09
4.55031e-08
1.20916e-09
4.52054e-08
1.18353e-09
4.49066e-08
1.15891e-09
4.4607e-08
1.13501e-09
4.43069e-08
1.11205e-09
4.40066e-08
1.08969e-09
4.37064e-08
1.06822e-09
4.34066e-08
1.04724e-09
4.31074e-08
1.0271e-09
4.28091e-08
1.00735e-09
4.25117e-08
9.88404e-10
4.22157e-08
9.69749e-10
4.19211e-08
9.51882e-10
4.16282e-08
9.34204e-10
4.1337e-08
9.17307e-10
4.10478e-08
9.00493e-10
4.07605e-08
8.84472e-10
4.04755e-08
8.68415e-10
4.01927e-08
8.53183e-10
3.99124e-08
8.3779e-10
3.96345e-08
8.23266e-10
3.93593e-08
8.08453e-10
3.90865e-08
7.94562e-10
3.88167e-08
7.80251e-10
3.85494e-08
7.66932e-10
3.82853e-08
7.53041e-10
3.80237e-08
7.40242e-10
3.77654e-08
7.26688e-10
3.75098e-08
7.14364e-10
3.72576e-08
7.01075e-10
3.70081e-08
6.89176e-10
3.67621e-08
6.76091e-10
3.65189e-08
6.64575e-10
3.62793e-08
6.5162e-10
3.60425e-08
6.40465e-10
3.58095e-08
6.2756e-10
3.55792e-08
6.1675e-10
3.5353e-08
6.03831e-10
3.51293e-08
5.93349e-10
3.491e-08
5.80363e-10
3.46932e-08
5.70208e-10
3.44808e-08
5.57094e-10
3.4271e-08
5.47296e-10
3.40658e-08
5.33993e-10
3.3863e-08
5.24599e-10
3.36651e-08
5.11083e-10
3.34695e-08
5.02152e-10
3.3279e-08
4.88418e-10
3.30905e-08
4.80057e-10
3.29075e-08
4.66116e-10
3.27263e-08
4.58476e-10
3.25507e-08
4.44396e-10
3.23767e-08
4.37659e-10
3.22085e-08
4.2361e-10
3.20414e-08
4.17988e-10
3.18803e-08
4.04231e-10
3.17199e-08
4.0001e-10
3.15653e-08
3.87024e-10
3.14111e-08
3.84456e-10
3.12623e-08
3.733e-10
3.11131e-08
3.72969e-10
3.65031e-10
5.52712e-08
2.22099e-09
-5.52098e-08
5.54257e-08
2.57671e-09
5.56946e-08
2.92378e-09
5.59936e-08
3.22645e-09
5.62596e-08
3.39779e-09
5.64796e-08
3.44333e-09
5.66659e-08
3.40257e-09
5.68192e-08
3.31067e-09
5.69302e-08
3.18512e-09
5.69939e-08
3.03705e-09
5.70162e-08
2.87972e-09
5.70097e-08
2.72791e-09
5.69865e-08
2.59351e-09
5.6953e-08
2.48086e-09
5.69121e-08
2.38586e-09
5.68656e-08
2.30331e-09
5.68146e-08
2.22955e-09
5.67599e-08
2.16219e-09
5.67014e-08
2.09987e-09
5.6639e-08
2.04156e-09
5.65724e-08
1.98671e-09
5.65011e-08
1.93478e-09
5.64249e-08
1.88558e-09
5.63437e-08
1.8388e-09
5.62572e-08
1.79444e-09
5.61654e-08
1.75229e-09
5.60683e-08
1.7124e-09
5.59659e-08
1.67457e-09
5.58581e-08
1.63888e-09
5.5745e-08
1.60502e-09
5.56266e-08
1.5731e-09
5.5503e-08
1.54275e-09
5.53742e-08
1.5141e-09
5.52403e-08
1.48673e-09
5.51012e-08
1.46082e-09
5.49571e-08
1.43595e-09
5.4808e-08
1.41236e-09
5.4654e-08
1.38957e-09
5.44953e-08
1.36793e-09
5.43319e-08
1.34689e-09
5.41639e-08
1.3269e-09
5.39916e-08
1.30734e-09
5.38149e-08
1.28875e-09
5.36341e-08
1.27044e-09
5.34493e-08
1.25306e-09
5.32607e-08
1.2358e-09
5.30684e-08
1.21946e-09
5.28726e-08
1.20308e-09
5.26734e-08
1.18762e-09
5.24712e-08
1.17198e-09
5.22658e-08
1.15728e-09
5.20578e-08
1.14224e-09
5.18469e-08
1.12819e-09
5.16337e-08
1.11364e-09
5.14181e-08
1.10014e-09
5.12005e-08
1.08596e-09
5.09808e-08
1.07295e-09
5.07595e-08
1.05905e-09
5.05363e-08
1.04643e-09
5.03121e-08
1.03272e-09
5.00862e-08
1.02045e-09
4.98596e-08
1.00686e-09
4.96316e-08
9.94886e-10
4.94033e-08
9.81323e-10
4.9174e-08
9.69615e-10
4.89446e-08
9.55994e-10
4.87145e-08
9.4452e-10
4.84848e-08
9.30769e-10
4.82545e-08
9.19497e-10
4.8025e-08
9.05561e-10
4.77951e-08
8.94468e-10
4.75665e-08
8.80266e-10
4.73376e-08
8.6935e-10
4.71104e-08
8.54791e-10
4.6883e-08
8.44058e-10
4.66578e-08
8.29076e-10
4.64326e-08
8.1853e-10
4.62099e-08
8.03074e-10
4.59874e-08
7.9273e-10
4.57677e-08
7.7673e-10
4.55484e-08
7.66644e-10
4.53324e-08
7.50035e-10
4.51167e-08
7.40281e-10
4.49047e-08
7.23051e-10
4.46932e-08
7.13703e-10
4.44857e-08
6.95868e-10
4.42787e-08
6.87059e-10
4.40762e-08
6.68654e-10
4.38741e-08
6.60568e-10
4.36768e-08
6.41712e-10
4.34799e-08
6.34562e-10
4.3288e-08
6.15507e-10
4.30964e-08
6.09549e-10
4.291e-08
5.90648e-10
4.27237e-08
5.86274e-10
4.25426e-08
5.68109e-10
4.23613e-08
5.6575e-10
4.21852e-08
5.49393e-10
4.20084e-08
5.49802e-10
5.36652e-10
6.12844e-08
2.15648e-09
-6.12199e-08
6.14141e-08
2.44702e-09
6.1618e-08
2.71986e-09
6.18725e-08
2.97191e-09
6.21187e-08
3.15159e-09
6.23312e-08
3.23081e-09
6.25062e-08
3.22757e-09
6.26481e-08
3.16882e-09
6.27567e-08
3.07649e-09
6.28299e-08
2.96383e-09
6.28694e-08
2.84027e-09
6.28821e-08
2.71521e-09
6.28778e-08
2.59782e-09
6.28646e-08
2.49401e-09
6.28464e-08
2.40407e-09
6.2825e-08
2.3247e-09
6.28015e-08
2.25306e-09
6.27767e-08
2.18703e-09
6.27509e-08
2.1256e-09
6.27245e-08
2.06797e-09
6.26974e-08
2.01386e-09
6.26694e-08
1.96276e-09
6.26403e-08
1.91462e-09
6.26101e-08
1.86903e-09
6.25785e-08
1.82607e-09
6.25454e-08
1.78538e-09
6.25107e-08
1.74715e-09
6.24742e-08
1.71098e-09
6.2436e-08
1.67715e-09
6.23958e-08
1.64516e-09
6.23536e-08
1.61533e-09
6.23093e-08
1.58707e-09
6.22626e-08
1.56075e-09
6.22137e-08
1.5357e-09
6.21621e-08
1.51239e-09
6.2108e-08
1.49007e-09
6.2051e-08
1.46931e-09
6.19913e-08
1.44928e-09
6.19285e-08
1.43069e-09
6.18628e-08
1.41259e-09
6.17939e-08
1.39584e-09
6.17219e-08
1.37935e-09
6.16465e-08
1.36417e-09
6.15679e-08
1.34902e-09
6.14858e-08
1.33517e-09
6.14005e-08
1.32113e-09
6.13115e-08
1.30841e-09
6.12193e-08
1.29527e-09
6.11234e-08
1.2835e-09
6.10243e-08
1.27109e-09
6.09215e-08
1.2601e-09
6.08155e-08
1.24825e-09
6.07058e-08
1.23792e-09
6.05929e-08
1.22647e-09
6.04764e-08
1.21668e-09
6.03569e-08
1.20549e-09
6.02337e-08
1.19616e-09
6.01076e-08
1.1851e-09
5.99779e-08
1.17612e-09
5.98456e-08
1.16508e-09
5.97097e-08
1.15635e-09
5.95713e-08
1.14523e-09
5.94295e-08
1.13672e-09
5.92854e-08
1.1254e-09
5.91379e-08
1.11706e-09
5.89885e-08
1.10543e-09
5.88358e-08
1.0972e-09
5.86814e-08
1.08516e-09
5.85239e-08
1.077e-09
5.8365e-08
1.06448e-09
5.82031e-08
1.05636e-09
5.80401e-08
1.04327e-09
5.78743e-08
1.03518e-09
5.77077e-08
1.02138e-09
5.75384e-08
1.01331e-09
5.73688e-08
9.9873e-10
5.71966e-08
9.9067e-10
5.70244e-08
9.75273e-10
5.68499e-08
9.67227e-10
5.66757e-08
9.50926e-10
5.64995e-08
9.42936e-10
5.63238e-08
9.25645e-10
5.61463e-08
9.17785e-10
5.59699e-08
8.99524e-10
5.57917e-08
8.91839e-10
5.56149e-08
8.72656e-10
5.54367e-08
8.65275e-10
5.52602e-08
8.45213e-10
5.50824e-08
8.38329e-10
5.49066e-08
8.17549e-10
5.47297e-08
8.11389e-10
5.4555e-08
7.90228e-10
5.43795e-08
7.85065e-10
5.42062e-08
7.63925e-10
5.40322e-08
7.60294e-10
5.38605e-08
7.39784e-10
5.3688e-08
7.38255e-10
5.3518e-08
7.19435e-10
5.3347e-08
7.20789e-10
7.0558e-10
6.79146e-08
2.09503e-09
-6.78531e-08
6.80238e-08
2.3378e-09
6.81823e-08
2.56131e-09
6.83864e-08
2.76786e-09
6.86007e-08
2.93726e-09
6.87968e-08
3.03473e-09
6.89605e-08
3.06391e-09
6.90906e-08
3.03867e-09
6.91905e-08
2.97657e-09
6.92624e-08
2.89199e-09
6.93075e-08
2.79517e-09
6.93293e-08
2.69337e-09
6.9334e-08
2.59311e-09
6.93287e-08
2.49931e-09
6.93182e-08
2.41459e-09
6.93047e-08
2.33822e-09
6.92892e-08
2.26854e-09
6.92725e-08
2.20371e-09
6.92551e-08
2.14297e-09
6.92376e-08
2.08552e-09
6.92201e-08
2.03138e-09
6.92028e-08
1.98005e-09
6.91857e-08
1.93174e-09
6.91688e-08
1.88592e-09
6.9152e-08
1.84287e-09
6.91353e-08
1.80203e-09
6.91187e-08
1.76379e-09
6.91021e-08
1.72755e-09
6.90855e-08
1.69379e-09
6.90688e-08
1.6618e-09
6.9052e-08
1.63216e-09
6.90351e-08
1.60401e-09
6.90178e-08
1.57804e-09
6.90002e-08
1.55326e-09
6.89821e-08
1.5305e-09
6.89636e-08
1.50862e-09
6.89443e-08
1.48862e-09
6.89243e-08
1.46923e-09
6.89034e-08
1.45161e-09
6.88817e-08
1.43433e-09
6.88587e-08
1.41877e-09
6.88348e-08
1.40327e-09
6.88095e-08
1.3895e-09
6.8783e-08
1.37549e-09
6.87549e-08
1.36325e-09
6.87256e-08
1.3505e-09
6.86944e-08
1.33957e-09
6.86618e-08
1.32787e-09
6.86272e-08
1.31807e-09
6.85911e-08
1.30721e-09
6.85528e-08
1.29837e-09
6.85129e-08
1.28817e-09
6.84707e-08
1.28014e-09
6.84267e-08
1.27042e-09
6.83803e-08
1.26308e-09
6.83321e-08
1.25369e-09
6.82814e-08
1.24695e-09
6.82287e-08
1.23774e-09
6.81734e-08
1.23146e-09
6.81161e-08
1.22231e-09
6.80561e-08
1.21639e-09
6.79942e-08
1.20717e-09
6.79293e-08
1.20154e-09
6.78626e-08
1.19212e-09
6.77929e-08
1.18674e-09
6.77214e-08
1.177e-09
6.76468e-08
1.17179e-09
6.75704e-08
1.16159e-09
6.74909e-08
1.15644e-09
6.74097e-08
1.14573e-09
6.73254e-08
1.14061e-09
6.72394e-08
1.12926e-09
6.71504e-08
1.12419e-09
6.70598e-08
1.11204e-09
6.69661e-08
1.10693e-09
6.6871e-08
1.09391e-09
6.67729e-08
1.08869e-09
6.66734e-08
1.07478e-09
6.65712e-08
1.06945e-09
6.64676e-08
1.05457e-09
6.63613e-08
1.04916e-09
6.62538e-08
1.03314e-09
6.61439e-08
1.02768e-09
6.60328e-08
1.01063e-09
6.59196e-08
1.00507e-09
6.58052e-08
9.87063e-10
6.56889e-08
9.81573e-10
6.55715e-08
9.62596e-10
6.54525e-08
9.57353e-10
6.53324e-08
9.37592e-10
6.52111e-08
9.32773e-10
6.50886e-08
9.12699e-10
6.49651e-08
9.08571e-10
6.48405e-08
8.88503e-10
6.4715e-08
8.8583e-10
6.45884e-08
8.66386e-10
6.4461e-08
8.65584e-10
6.43325e-08
8.47936e-10
6.42033e-08
8.50032e-10
8.36218e-10
6.76202e-08
2.0485e-09
-6.75736e-08
6.76995e-08
2.25851e-09
6.78122e-08
2.44855e-09
6.79559e-08
2.62423e-09
6.81158e-08
2.77732e-09
6.82696e-08
2.88091e-09
6.84038e-08
2.92979e-09
6.85124e-08
2.93002e-09
6.85959e-08
2.89304e-09
6.86569e-08
2.83102e-09
6.86977e-08
2.75437e-09
6.87209e-08
2.67018e-09
6.87301e-08
2.58395e-09
6.87297e-08
2.49962e-09
6.8724e-08
2.42034e-09
6.87153e-08
2.34688e-09
6.87049e-08
2.279e-09
6.86932e-08
2.21534e-09
6.86808e-08
2.15537e-09
6.86681e-08
2.09825e-09
6.86553e-08
2.0442e-09
6.86427e-08
1.99269e-09
6.86303e-08
1.94413e-09
6.86183e-08
1.89793e-09
6.86066e-08
1.85455e-09
6.85953e-08
1.81329e-09
6.85844e-08
1.77472e-09
6.85739e-08
1.73804e-09
6.85637e-08
1.70395e-09
6.8554e-08
1.67151e-09
6.85446e-08
1.64156e-09
6.85357e-08
1.61298e-09
6.85269e-08
1.58675e-09
6.85186e-08
1.5616e-09
6.85104e-08
1.53867e-09
6.85025e-08
1.5165e-09
6.84947e-08
1.49644e-09
6.84871e-08
1.47684e-09
6.84794e-08
1.45928e-09
6.84719e-08
1.44189e-09
6.84641e-08
1.42651e-09
6.84564e-08
1.41099e-09
6.84484e-08
1.39751e-09
6.84403e-08
1.38358e-09
6.84318e-08
1.37175e-09
6.84231e-08
1.35916e-09
6.84139e-08
1.34876e-09
6.84045e-08
1.33732e-09
6.83944e-08
1.32814e-09
6.8384e-08
1.31764e-09
6.83728e-08
1.30953e-09
6.83612e-08
1.29976e-09
6.83488e-08
1.29259e-09
6.83358e-08
1.28337e-09
6.83219e-08
1.277e-09
6.83074e-08
1.26819e-09
6.82919e-08
1.26252e-09
6.82756e-08
1.25398e-09
6.82582e-08
1.24885e-09
6.82401e-08
1.24047e-09
6.82207e-08
1.23579e-09
6.82005e-08
1.22739e-09
6.81789e-08
1.2231e-09
6.81565e-08
1.21457e-09
6.81326e-08
1.21062e-09
6.81077e-08
1.20183e-09
6.80814e-08
1.19811e-09
6.8054e-08
1.18898e-09
6.80251e-08
1.18534e-09
6.79951e-08
1.17577e-09
6.79635e-08
1.17219e-09
6.79307e-08
1.16203e-09
6.78964e-08
1.15856e-09
6.78607e-08
1.14768e-09
6.78235e-08
1.14415e-09
6.77849e-08
1.13249e-09
6.77448e-08
1.12878e-09
6.77033e-08
1.11635e-09
6.76602e-08
1.11247e-09
6.76157e-08
1.09913e-09
6.75697e-08
1.09518e-09
6.75221e-08
1.08072e-09
6.74732e-08
1.07658e-09
6.74225e-08
1.06128e-09
6.73708e-08
1.05684e-09
6.73172e-08
1.04066e-09
6.72625e-08
1.03623e-09
6.7206e-08
1.01913e-09
6.71485e-08
1.01482e-09
6.70891e-08
9.97042e-10
6.70289e-08
9.92891e-10
6.69666e-08
9.7504e-10
6.69037e-08
9.71452e-10
6.68387e-08
9.53539e-10
6.67731e-08
9.51456e-10
6.6705e-08
9.34424e-10
6.66368e-08
9.33817e-10
6.65661e-08
9.18649e-10
6.64946e-08
9.21479e-10
9.09544e-10
8.54424e-08
2.00072e-09
-8.53946e-08
8.55162e-08
2.1847e-09
8.56169e-08
2.34787e-09
8.57421e-08
2.49906e-09
8.58856e-08
2.63385e-09
8.60259e-08
2.74052e-09
8.61527e-08
2.80302e-09
8.62582e-08
2.82453e-09
8.63401e-08
2.81109e-09
8.64003e-08
2.77087e-09
8.64418e-08
2.71282e-09
8.64679e-08
2.6441e-09
8.64814e-08
2.57043e-09
8.64856e-08
2.49544e-09
8.64837e-08
2.42226e-09
8.64782e-08
2.35235e-09
8.64706e-08
2.28668e-09
8.64613e-08
2.22456e-09
8.64509e-08
2.16579e-09
8.64397e-08
2.10945e-09
8.64281e-08
2.05583e-09
8.64164e-08
2.00437e-09
8.64049e-08
1.95567e-09
8.63937e-08
1.90911e-09
8.63829e-08
1.86538e-09
8.63725e-08
1.82366e-09
8.63625e-08
1.78472e-09
8.6353e-08
1.74757e-09
8.63438e-08
1.71309e-09
8.63352e-08
1.68016e-09
8.63269e-08
1.64979e-09
8.63192e-08
1.6207e-09
8.63119e-08
1.59407e-09
8.63051e-08
1.56843e-09
8.62986e-08
1.54512e-09
8.62926e-08
1.52252e-09
8.62869e-08
1.50214e-09
8.62816e-08
1.48216e-09
8.62765e-08
1.46437e-09
8.62717e-08
1.44664e-09
8.62672e-08
1.4311e-09
8.62628e-08
1.4153e-09
8.62586e-08
1.40173e-09
8.62546e-08
1.38758e-09
8.62507e-08
1.37571e-09
8.62469e-08
1.36297e-09
8.62431e-08
1.35257e-09
8.62393e-08
1.34104e-09
8.62356e-08
1.33192e-09
8.62318e-08
1.32139e-09
8.62279e-08
1.3134e-09
8.6224e-08
1.30365e-09
8.622e-08
1.29665e-09
8.62159e-08
1.2875e-09
8.62115e-08
1.28136e-09
8.6207e-08
1.27268e-09
8.62023e-08
1.26725e-09
8.61973e-08
1.25895e-09
8.6192e-08
1.25409e-09
8.61865e-08
1.24603e-09
8.61806e-08
1.24165e-09
8.61744e-08
1.23363e-09
8.61678e-08
1.22971e-09
8.61607e-08
1.22161e-09
8.61533e-08
1.21804e-09
8.61453e-08
1.2098e-09
8.6137e-08
1.20646e-09
8.6128e-08
1.19802e-09
8.61186e-08
1.19472e-09
8.61084e-08
1.18596e-09
8.60978e-08
1.18277e-09
8.60864e-08
1.17345e-09
8.60745e-08
1.17039e-09
8.60617e-08
1.1605e-09
8.60485e-08
1.15734e-09
8.60342e-08
1.14686e-09
8.60195e-08
1.14342e-09
8.60036e-08
1.13231e-09
8.59873e-08
1.12869e-09
8.59697e-08
1.11673e-09
8.59518e-08
1.11313e-09
8.59323e-08
1.10019e-09
8.59127e-08
1.09619e-09
8.58913e-08
1.08271e-09
8.58698e-08
1.0783e-09
8.58465e-08
1.064e-09
8.5823e-08
1.05967e-09
8.57976e-08
1.04453e-09
8.57722e-08
1.04027e-09
8.57445e-08
1.02471e-09
8.57171e-08
1.02033e-09
8.56872e-08
1.00495e-09
8.56573e-08
1.00132e-09
8.56251e-08
9.85683e-10
8.55931e-08
9.8355e-10
8.55581e-08
9.69392e-10
8.55234e-08
9.68505e-10
8.54859e-08
9.56109e-10
8.54485e-08
9.58889e-10
9.4928e-10
1.07982e-07
1.96079e-09
-1.07942e-07
1.0804e-07
2.12619e-09
1.08117e-07
2.27097e-09
1.0821e-07
2.40562e-09
1.08318e-07
2.52651e-09
1.08426e-07
2.63259e-09
1.08525e-07
2.70382e-09
1.0861e-07
2.73936e-09
1.08678e-07
2.74326e-09
1.08728e-07
2.72039e-09
1.08764e-07
2.67739e-09
1.08787e-07
2.6206e-09
1.08802e-07
2.55612e-09
1.08809e-07
2.48811e-09
1.08811e-07
2.42006e-09
1.0881e-07
2.35362e-09
1.08806e-07
2.29025e-09
1.08801e-07
2.22976e-09
1.08795e-07
2.17234e-09
1.08787e-07
2.11706e-09
1.08779e-07
2.06419e-09
1.0877e-07
2.01307e-09
1.08761e-07
1.96441e-09
1.08753e-07
1.91764e-09
1.08744e-07
1.87363e-09
1.08736e-07
1.83157e-09
1.08729e-07
1.79234e-09
1.08722e-07
1.75487e-09
1.08715e-07
1.7201e-09
1.08708e-07
1.68683e-09
1.08702e-07
1.65612e-09
1.08696e-07
1.62667e-09
1.0869e-07
1.59966e-09
1.08685e-07
1.57367e-09
1.0868e-07
1.55e-09
1.08675e-07
1.52706e-09
1.08671e-07
1.50637e-09
1.08667e-07
1.48609e-09
1.08664e-07
1.46802e-09
1.0866e-07
1.45003e-09
1.08657e-07
1.43425e-09
1.08654e-07
1.41823e-09
1.08651e-07
1.40444e-09
1.08649e-07
1.39012e-09
1.08646e-07
1.37805e-09
1.08644e-07
1.3652e-09
1.08642e-07
1.3546e-09
1.0864e-07
1.34301e-09
1.08638e-07
1.33371e-09
1.08637e-07
1.32314e-09
1.08635e-07
1.315e-09
1.08634e-07
1.30523e-09
1.08632e-07
1.2981e-09
1.08631e-07
1.28898e-09
1.08629e-07
1.28271e-09
1.08628e-07
1.27411e-09
1.08627e-07
1.26853e-09
1.08625e-07
1.26038e-09
1.08624e-07
1.25535e-09
1.08622e-07
1.24748e-09
1.08621e-07
1.24295e-09
1.0862e-07
1.23515e-09
1.08618e-07
1.23108e-09
1.08617e-07
1.22325e-09
1.08615e-07
1.21952e-09
1.08613e-07
1.21162e-09
1.08612e-07
1.20806e-09
1.0861e-07
1.20008e-09
1.08608e-07
1.19653e-09
1.08606e-07
1.18826e-09
1.08603e-07
1.18486e-09
1.08601e-07
1.17605e-09
1.08598e-07
1.17276e-09
1.08595e-07
1.1635e-09
1.08593e-07
1.16003e-09
1.08589e-07
1.15032e-09
1.08586e-07
1.14652e-09
1.08582e-07
1.13624e-09
1.08579e-07
1.13231e-09
1.08574e-07
1.12116e-09
1.0857e-07
1.11728e-09
1.08565e-07
1.10532e-09
1.0856e-07
1.10088e-09
1.08554e-07
1.08855e-09
1.08549e-07
1.08376e-09
1.08542e-07
1.07054e-09
1.08536e-07
1.0659e-09
1.08529e-07
1.05194e-09
1.08522e-07
1.04734e-09
1.08513e-07
1.03317e-09
1.08505e-07
1.02835e-09
1.08496e-07
1.01436e-09
1.08487e-07
1.01061e-09
1.08476e-07
9.96307e-10
1.08466e-07
9.93893e-10
1.08453e-07
9.81516e-10
1.08441e-07
9.80587e-10
1.08428e-07
9.69694e-10
1.08414e-07
9.72386e-10
9.63684e-10
1.36516e-07
-1.36501e-07
1.36538e-07
1.36567e-07
1.36604e-07
1.36646e-07
1.36691e-07
1.36734e-07
1.36771e-07
1.36803e-07
1.36827e-07
1.36845e-07
1.36857e-07
1.36866e-07
1.36871e-07
1.36874e-07
1.36876e-07
1.36876e-07
1.36876e-07
1.36875e-07
1.36873e-07
1.36871e-07
1.36868e-07
1.36865e-07
1.36863e-07
1.3686e-07
1.36858e-07
1.36855e-07
1.36853e-07
1.36851e-07
1.36849e-07
1.36847e-07
1.36845e-07
1.36843e-07
1.36841e-07
1.3684e-07
1.36838e-07
1.36837e-07
1.36836e-07
1.36835e-07
1.36834e-07
1.36833e-07
1.36832e-07
1.36832e-07
1.36831e-07
1.3683e-07
1.3683e-07
1.36829e-07
1.36829e-07
1.36829e-07
1.36828e-07
1.36828e-07
1.36828e-07
1.36828e-07
1.36827e-07
1.36827e-07
1.36827e-07
1.36827e-07
1.36827e-07
1.36827e-07
1.36827e-07
1.36827e-07
1.36827e-07
1.36827e-07
1.36827e-07
1.36827e-07
1.36827e-07
1.36827e-07
1.36827e-07
1.36827e-07
1.36827e-07
1.36827e-07
1.36827e-07
1.36827e-07
1.36827e-07
1.36827e-07
1.36827e-07
1.36827e-07
1.36826e-07
1.36826e-07
1.36826e-07
1.36826e-07
1.36825e-07
1.36825e-07
1.36824e-07
1.36823e-07
1.36822e-07
1.36822e-07
1.36821e-07
1.3682e-07
1.36818e-07
1.36817e-07
1.36815e-07
1.36814e-07
1.36812e-07
1.3681e-07
1.36807e-07
1.36805e-07
1.36801e-07
1.36798e-07
3.44473e-08
8.8101e-11
3.44492e-08
-6.21376e-11
3.44458e-08
7.40967e-11
3.44491e-08
-5.8216e-11
3.4442e-08
6.83013e-11
3.44404e-08
-4.67027e-11
3.44288e-08
6.81777e-11
3.44228e-08
-3.21682e-11
3.4406e-08
7.12827e-11
3.43946e-08
-1.34121e-11
3.43704e-08
8.05427e-11
3.43532e-08
1.34239e-11
3.43194e-08
9.75543e-11
3.42906e-08
4.82307e-11
3.42446e-08
1.20232e-10
3.42006e-08
9.31511e-11
3.41376e-08
1.52602e-10
3.40727e-08
1.53726e-10
3.39859e-08
1.99523e-10
3.38892e-08
2.38471e-10
3.37607e-08
2.76026e-10
3.35859e-08
3.90429e-10
3.33145e-08
4.85046e-10
3.27395e-08
9.52949e-10
1.57503e-09
3.80435e-08
9.328e-11
3.80445e-08
-6.31198e-11
3.80403e-08
7.83529e-11
3.80398e-08
-5.77714e-11
3.80338e-08
7.43522e-11
3.80274e-08
-4.03647e-11
3.80199e-08
7.57028e-11
3.80063e-08
-1.85919e-11
3.79969e-08
8.07304e-11
3.79732e-08
1.02326e-11
3.79604e-08
9.33839e-11
3.79246e-08
4.92298e-11
3.79061e-08
1.16052e-10
3.78534e-08
1.00963e-10
3.78263e-08
1.47296e-10
3.77508e-08
1.68598e-10
3.77115e-08
1.91992e-10
3.76044e-08
2.60755e-10
3.75457e-08
2.58271e-10
3.73901e-08
3.94087e-10
3.7286e-08
3.80061e-10
3.70271e-08
6.49388e-10
3.67646e-08
7.47504e-10
3.63232e-08
1.39435e-09
1.87369e-09
4.20233e-08
7.91542e-11
4.20021e-08
-4.19083e-11
4.20192e-08
6.1204e-11
4.19957e-08
-3.41811e-11
4.20122e-08
5.77674e-11
4.19819e-08
-1.00622e-11
4.19963e-08
6.13735e-11
4.1959e-08
1.8705e-11
4.19694e-08
7.02647e-11
4.19239e-08
5.58143e-11
4.19277e-08
8.95309e-11
4.18722e-08
1.0473e-10
4.18652e-08
1.23092e-10
4.1798e-08
1.68124e-10
4.1773e-08
1.72325e-10
4.16925e-08
2.49065e-10
4.16398e-08
2.44664e-10
4.15434e-08
3.57162e-10
4.14462e-08
3.5552e-10
4.13223e-08
5.17992e-10
4.11376e-08
5.64708e-10
4.0949e-08
8.3801e-10
4.06304e-08
1.06613e-09
4.04437e-08
1.58102e-09
2.06721e-09
4.64055e-08