/*--------------------------------*- C++ -*----------------------------------*\
| =========                 |                                                 |
| \\      /  F ield         | OpenFOAM: The Open Source CFD Toolbox           |
|  \\    /   O peration     | Version:  2.3.0                                 |
|   \\  /    A nd           | Web:      www.OpenFOAM.org                      |
|    \\/     M anipulation  |                                                 |
\*---------------------------------------------------------------------------*/
FoamFile
{
    version     2.0;
    format      ascii;
    class       volVectorField;
    location    "0.75";
    object      U_0;
}
// * * * * * * * * * * * * * * * * * * * * * * * * * * * * * * * * * * * * * //

dimensions      [0 1 -1 0 0 0 0];

internalField   nonuniform List<vector> 
1500
(
(0.17595 0.00442375 0)
(0.15519 0.00605632 0)
(0.136302 0.00621987 0)
(0.117837 0.00560896 0)
(0.0999867 0.00478771 0)
(0.0836422 0.00387351 0)
(0.0699254 0.0028776 0)
(0.0592449 0.00182273 0)
(0.0513819 0.000902629 0)
(0.0457644 0.000283189 0)
(0.0418013 -3.93965e-05 0)
(0.0390024 -0.00016035 0)
(0.036976 -0.000169999 0)
(0.0354335 -0.000129544 0)
(0.0341695 -7.2091e-05 0)
(0.0330552 -1.7428e-05 0)
(0.032022 2.44441e-05 0)
(0.0310413 5.14499e-05 0)
(0.0301068 6.58921e-05 0)
(0.0292208 7.14042e-05 0)
(0.0283876 7.13352e-05 0)
(0.0276095 6.82115e-05 0)
(0.0268865 6.37203e-05 0)
(0.0262167 5.88822e-05 0)
(0.0255964 5.4243e-05 0)
(0.0250214 5.00386e-05 0)
(0.0244871 4.63321e-05 0)
(0.0239889 4.3105e-05 0)
(0.0235227 4.03e-05 0)
(0.0230845 3.78507e-05 0)
(0.0226713 3.5695e-05 0)
(0.0222801 3.37807e-05 0)
(0.0219087 3.20647e-05 0)
(0.0215549 3.05128e-05 0)
(0.0212172 2.90968e-05 0)
(0.020894 2.77958e-05 0)
(0.0205843 2.65913e-05 0)
(0.020287 2.54714e-05 0)
(0.0200011 2.4424e-05 0)
(0.0197259 2.34426e-05 0)
(0.0194608 2.25193e-05 0)
(0.0192048 2.165e-05 0)
(0.0189578 2.08297e-05 0)
(0.0187189 2.00553e-05 0)
(0.0184878 1.93232e-05 0)
(0.0182639 1.86311e-05 0)
(0.0180471 1.79754e-05 0)
(0.0178366 1.73551e-05 0)
(0.0176324 1.67653e-05 0)
(0.0174339 1.62073e-05 0)
(0.0172411 1.56741e-05 0)
(0.0170533 1.51698e-05 0)
(0.016871 1.46849e-05 0)
(0.0166929 1.42263e-05 0)
(0.0165199 1.37827e-05 0)
(0.0163508 1.33628e-05 0)
(0.0161865 1.29543e-05 0)
(0.0160256 1.2568e-05 0)
(0.0158693 1.21888e-05 0)
(0.0157159 1.18321e-05 0)
(0.0155671 1.14772e-05 0)
(0.0154208 1.11473e-05 0)
(0.015279 1.08129e-05 0)
(0.0151393 1.0507e-05 0)
(0.0150042 1.01906e-05 0)
(0.0148707 9.90602e-06 0)
(0.0147419 9.60478e-06 0)
(0.0146142 9.34061e-06 0)
(0.0144915 9.05119e-06 0)
(0.0143694 8.80774e-06 0)
(0.0142526 8.52718e-06 0)
(0.0141356 8.30406e-06 0)
(0.0140246 8.0304e-06 0)
(0.0139126 7.82722e-06 0)
(0.0138072 7.55792e-06 0)
(0.0136998 7.37627e-06 0)
(0.0136 7.10781e-06 0)
(0.013497 6.95044e-06 0)
(0.0134028 6.67966e-06 0)
(0.0133037 6.54908e-06 0)
(0.0132151 6.27283e-06 0)
(0.0131198 6.17267e-06 0)
(0.0130368 5.88731e-06 0)
(0.0129447 5.82379e-06 0)
(0.0128675 5.52415e-06 0)
(0.0127781 5.50587e-06 0)
(0.0127068 5.18609e-06 0)
(0.0126194 5.2233e-06 0)
(0.0125544 4.87718e-06 0)
(0.0124681 4.98363e-06 0)
(0.0124096 4.60168e-06 0)
(0.0123231 4.79984e-06 0)
(0.0122716 4.36645e-06 0)
(0.0121833 4.68555e-06 0)
(0.0121395 4.18023e-06 0)
(0.0120468 4.667e-06 0)
(0.0120121 4.03977e-06 0)
(0.0119109 4.77266e-06 0)
(0.0118888 3.99356e-06 0)
(0.0117673 6.13714e-06 0)
(0.19135 0.00786944 0)
(0.189609 0.0110281 0)
(0.187175 0.0121608 0)
(0.183425 0.0120374 0)
(0.178096 0.0114217 0)
(0.171367 0.0105297 0)
(0.163862 0.00936489 0)
(0.156038 0.00792257 0)
(0.148255 0.00635781 0)
(0.140731 0.00489649 0)
(0.133602 0.00368851 0)
(0.126981 0.00276839 0)
(0.120923 0.00210431 0)
(0.115456 0.00164973 0)
(0.11055 0.00135088 0)
(0.106146 0.00115595 0)
(0.102178 0.00102337 0)
(0.0985857 0.000925225 0)
(0.0953191 0.000845336 0)
(0.0923362 0.000775446 0)
(0.0896023 0.000711883 0)
(0.0870883 0.000653326 0)
(0.0847698 0.000599499 0)
(0.0826253 0.00055047 0)
(0.080636 0.000506306 0)
(0.0787851 0.00046693 0)
(0.077058 0.000432093 0)
(0.0754413 0.000401411 0)
(0.0739236 0.000374418 0)
(0.0724944 0.000350614 0)
(0.0711451 0.000329523 0)
(0.0698675 0.000310712 0)
(0.0686552 0.000293814 0)
(0.0675019 0.000278521 0)
(0.066403 0.000264585 0)
(0.0653535 0.000251805 0)
(0.0643499 0.000240022 0)
(0.0633882 0.000229111 0)
(0.062466 0.000218969 0)
(0.0615797 0.000209515 0)
(0.0607276 0.000200683 0)
(0.0599066 0.000192412 0)
(0.0591156 0.00018466 0)
(0.0583517 0.000177377 0)
(0.0576143 0.000170534 0)
(0.0569005 0.000164087 0)
(0.0562104 0.000158013 0)
(0.0555411 0.000152276 0)
(0.054893 0.000146855 0)
(0.0542631 0.000141722 0)
(0.0536526 0.000136854 0)
(0.0530582 0.000132234 0)
(0.0524816 0.000127836 0)
(0.0519191 0.00012365 0)
(0.0513733 0.000119651 0)
(0.0508398 0.000115833 0)
(0.0503221 0.000112175 0)
(0.0498152 0.000108673 0)
(0.0493234 0.000105304 0)
(0.0488409 0.000102076 0)
(0.0483732 9.89531e-05 0)
(0.0479133 9.59648e-05 0)
(0.0474681 9.30546e-05 0)
(0.0470292 9.02761e-05 0)
(0.0466054 8.75517e-05 0)
(0.0461861 8.49569e-05 0)
(0.0457825 8.23942e-05 0)
(0.0453817 7.99648e-05 0)
(0.0449974 7.75399e-05 0)
(0.0446139 7.52641e-05 0)
(0.0442484 7.29567e-05 0)
(0.0438812 7.08218e-05 0)
(0.0435339 6.86169e-05 0)
(0.0431821 6.66119e-05 0)
(0.0428526 6.44942e-05 0)
(0.0425153 6.26156e-05 0)
(0.0422035 6.05689e-05 0)
(0.0418798 5.88183e-05 0)
(0.0415858 5.68291e-05 0)
(0.0412745 5.52087e-05 0)
(0.0409984 5.3266e-05 0)
(0.0406986 5.17825e-05 0)
(0.0404407 4.98766e-05 0)
(0.0401511 4.85462e-05 0)
(0.039912 4.66654e-05 0)
(0.039631 4.55136e-05 0)
(0.0394114 4.36487e-05 0)
(0.0391368 4.27066e-05 0)
(0.038938 4.08529e-05 0)
(0.0386672 4.0164e-05 0)
(0.0384904 3.83148e-05 0)
(0.0382197 3.79485e-05 0)
(0.038067 3.60922e-05 0)
(0.0377915 3.61318e-05 0)
(0.0376658 3.42712e-05 0)
(0.0373781 3.48249e-05 0)
(0.0372842 3.29537e-05 0)
(0.0369727 3.42049e-05 0)
(0.0369203 3.23414e-05 0)
(0.0365632 3.7242e-05 0)
(0.192595 0.00760061 0)
(0.192917 0.0101823 0)
(0.193861 0.0117895 0)
(0.194892 0.0123478 0)
(0.195411 0.0122848 0)
(0.195094 0.0118677 0)
(0.193918 0.0111476 0)
(0.191969 0.0101558 0)
(0.189376 0.00899957 0)
(0.186284 0.00784031 0)
(0.182833 0.00680762 0)
(0.179162 0.00595319 0)
(0.175392 0.0052656 0)
(0.171623 0.00471564 0)
(0.167904 0.0042684 0)
(0.164259 0.00389303 0)
(0.1607 0.00356687 0)
(0.157231 0.00327554 0)
(0.153858 0.0030109 0)
(0.150585 0.0027686 0)
(0.147414 0.00254632 0)
(0.144349 0.00234265 0)
(0.141393 0.00215661 0)
(0.138547 0.00198733 0)
(0.135814 0.00183395 0)
(0.13319 0.00169555 0)
(0.130676 0.00157109 0)
(0.128269 0.00145946 0)
(0.125964 0.00135946 0)
(0.123759 0.00126985 0)
(0.121648 0.00118945 0)
(0.119627 0.00111713 0)
(0.117691 0.00105189 0)
(0.115835 0.000992802 0)
(0.114056 0.000939106 0)
(0.112347 0.000890109 0)
(0.110706 0.000845248 0)
(0.109126 0.000804016 0)
(0.107607 0.000766014 0)
(0.106142 0.000730865 0)
(0.10473 0.000698292 0)
(0.103365 0.000668003 0)
(0.102048 0.000639808 0)
(0.100773 0.000613467 0)
(0.0995393 0.000588853 0)
(0.0983429 0.000565763 0)
(0.0971846 0.00054411 0)
(0.0960588 0.000523718 0)
(0.0949676 0.00050453 0)
(0.0939051 0.00048639 0)
(0.0928744 0.000469263 0)
(0.091869 0.000453012 0)
(0.0908934 0.000437619 0)
(0.0899398 0.000422957 0)
(0.0890144 0.000409029 0)
(0.0881081 0.000395709 0)
(0.0872288 0.000383026 0)
(0.0863659 0.000370849 0)
(0.0855293 0.000359227 0)
(0.0847064 0.000348031 0)
(0.0839096 0.000337317 0)
(0.0831237 0.00032697 0)
(0.0823643 0.00031704 0)
(0.0816129 0.000307428 0)
(0.0808888 0.000298181 0)
(0.0801695 0.000289207 0)
(0.079479 0.000280557 0)
(0.0787898 0.000272143 0)
(0.0781317 0.000264011 0)
(0.0774707 0.000256099 0)
(0.0768439 0.000248418 0)
(0.0762095 0.000240952 0)
(0.0756132 0.000233671 0)
(0.0750037 0.000226601 0)
(0.0744376 0.000219675 0)
(0.0738515 0.000212967 0)
(0.0733155 0.000206353 0)
(0.0727511 0.000199988 0)
(0.0722454 0.000193654 0)
(0.071701 0.000187614 0)
(0.0712262 0.000181538 0)
(0.0706999 0.000175815 0)
(0.0702568 0.000169987 0)
(0.0697463 0.000164593 0)
(0.0693364 0.000159005 0)
(0.068839 0.000153967 0)
(0.068464 0.000148631 0)
(0.0679761 0.000143987 0)
(0.0676384 0.000138937 0)
(0.0671555 0.000134743 0)
(0.0668583 0.000130032 0)
(0.0663744 0.000126383 0)
(0.0661218 0.000122091 0)
(0.0656287 0.000119085 0)
(0.0654264 0.000115368 0)
(0.0649129 0.000113136 0)
(0.0647688 0.000110157 0)
(0.0642188 0.000109154 0)
(0.0641441 0.000106968 0)
(0.0635367 0.000111255 0)
(0.193782 0.00719952 0)
(0.194054 0.00898236 0)
(0.194916 0.0104344 0)
(0.196271 0.0112073 0)
(0.197728 0.0113946 0)
(0.198943 0.0112013 0)
(0.199748 0.010743 0)
(0.200094 0.0100816 0)
(0.199984 0.00928792 0)
(0.199452 0.00845911 0)
(0.198557 0.00768808 0)
(0.19738 0.00702809 0)
(0.196004 0.00648651 0)
(0.194499 0.00604173 0)
(0.192912 0.00566723 0)
(0.191263 0.00534126 0)
(0.189565 0.00504845 0)
(0.187821 0.00477895 0)
(0.186035 0.00452685 0)
(0.184211 0.00428878 0)
(0.182352 0.00406291 0)
(0.180465 0.00384827 0)
(0.178556 0.00364442 0)
(0.176632 0.00345116 0)
(0.174699 0.00326843 0)
(0.172763 0.00309611 0)
(0.170831 0.0029341 0)
(0.168907 0.00278209 0)
(0.166996 0.00263972 0)
(0.165102 0.00250649 0)
(0.163227 0.00238189 0)
(0.161374 0.00226532 0)
(0.159547 0.00215628 0)
(0.157746 0.0020542 0)
(0.155974 0.00195863 0)
(0.15423 0.00186905 0)
(0.152518 0.00178511 0)
(0.150836 0.00170634 0)
(0.149186 0.00163247 0)
(0.147567 0.00156306 0)
(0.145981 0.00149791 0)
(0.144424 0.0014366 0)
(0.142902 0.001379 0)
(0.141407 0.00132471 0)
(0.139947 0.00127363 0)
(0.138514 0.00122538 0)
(0.137113 0.00117994 0)
(0.135738 0.0011369 0)
(0.134396 0.00109629 0)
(0.133077 0.00105772 0)
(0.13179 0.00102126 0)
(0.130524 0.000986524 0)
(0.12929 0.000953629 0)
(0.128074 0.000922176 0)
(0.126891 0.000892344 0)
(0.125723 0.000863701 0)
(0.124587 0.000836507 0)
(0.123464 0.000810279 0)
(0.122374 0.000785357 0)
(0.121293 0.000761214 0)
(0.120247 0.000738255 0)
(0.119206 0.000715917 0)
(0.118202 0.000694664 0)
(0.117199 0.000673888 0)
(0.116236 0.000654129 0)
(0.115268 0.000634702 0)
(0.114344 0.000616255 0)
(0.113411 0.000598002 0)
(0.112525 0.000580704 0)
(0.111624 0.000563485 0)
(0.110777 0.000547197 0)
(0.109905 0.000530877 0)
(0.109096 0.000515497 0)
(0.108253 0.000499956 0)
(0.107481 0.000485391 0)
(0.106665 0.000470538 0)
(0.105932 0.00045671 0)
(0.10514 0.000442474 0)
(0.104447 0.000429329 0)
(0.103678 0.000415643 0)
(0.103026 0.000403152 0)
(0.102276 0.000389965 0)
(0.101667 0.000378125 0)
(0.100933 0.000365413 0)
(0.10037 0.00035424 0)
(0.0996498 0.000342004 0)
(0.0991356 0.000331554 0)
(0.0984233 0.000319806 0)
(0.0979622 0.000310187 0)
(0.0972521 0.000298969 0)
(0.0968492 0.000290331 0)
(0.0961335 0.000279753 0)
(0.095795 0.000272286 0)
(0.0950637 0.000262505 0)
(0.0947973 0.000256463 0)
(0.0940377 0.00024782 0)
(0.0938522 0.000243313 0)
(0.0930484 0.000236844 0)
(0.0929537 0.000233925 0)
(0.0920876 0.000233646 0)
(0.194785 0.00691098 0)
(0.195027 0.00822512 0)
(0.195655 0.00941538 0)
(0.196693 0.010204 0)
(0.197955 0.0105126 0)
(0.19919 0.0104424 0)
(0.200225 0.0101168 0)
(0.200991 0.00962387 0)
(0.201477 0.0090291 0)
(0.201694 0.00839586 0)
(0.201671 0.00778704 0)
(0.201451 0.007247 0)
(0.201089 0.00679156 0)
(0.200636 0.00641212 0)
(0.200127 0.00609109 0)
(0.19958 0.00581185 0)
(0.199003 0.00556202 0)
(0.198394 0.00533323 0)
(0.197751 0.00512013 0)
(0.19707 0.00491932 0)
(0.19635 0.0047287 0)
(0.195589 0.00454692 0)
(0.194789 0.0043732 0)
(0.19395 0.004207 0)
(0.193076 0.00404812 0)
(0.192167 0.00389629 0)
(0.191228 0.00375145 0)
(0.190259 0.00361332 0)
(0.189264 0.00348176 0)
(0.188244 0.00335638 0)
(0.187202 0.00323699 0)
(0.186139 0.0031231 0)
(0.185059 0.00301453 0)
(0.183961 0.00291078 0)
(0.18285 0.00281174 0)
(0.181724 0.00271694 0)
(0.18059 0.00262632 0)
(0.179443 0.00253945 0)
(0.178291 0.00245635 0)
(0.177129 0.00237659 0)
(0.175966 0.00230027 0)
(0.174795 0.00222691 0)
(0.173626 0.00215673 0)
(0.17245 0.00208918 0)
(0.171281 0.00202456 0)
(0.170106 0.00196227 0)
(0.16894 0.0019027 0)
(0.167768 0.00184518 0)
(0.166609 0.00179018 0)
(0.165446 0.00173698 0)
(0.164298 0.00168613 0)
(0.163144 0.00163683 0)
(0.16201 0.00158972 0)
(0.160869 0.00154392 0)
(0.159751 0.00150021 0)
(0.158625 0.00145754 0)
(0.157526 0.00141689 0)
(0.156416 0.00137705 0)
(0.155337 0.00133915 0)
(0.154244 0.00130183 0)
(0.153188 0.00126642 0)
(0.152113 0.00123134 0)
(0.151081 0.00119817 0)
(0.150025 0.00116509 0)
(0.149018 0.00113394 0)
(0.147982 0.00110263 0)
(0.147001 0.00107331 0)
(0.145984 0.00104355 0)
(0.145032 0.00101589 0)
(0.144034 0.000987496 0)
(0.143112 0.000961335 0)
(0.142133 0.000934133 0)
(0.141243 0.000909351 0)
(0.140281 0.000883164 0)
(0.139425 0.000859661 0)
(0.13848 0.000834344 0)
(0.13766 0.000812034 0)
(0.136731 0.000787469 0)
(0.13595 0.000766296 0)
(0.135034 0.000742364 0)
(0.134295 0.000722314 0)
(0.13339 0.000698907 0)
(0.132698 0.000680005 0)
(0.1318 0.000657063 0)
(0.131158 0.000639352 0)
(0.130265 0.00061685 0)
(0.129678 0.000600436 0)
(0.128785 0.000578369 0)
(0.128259 0.000563423 0)
(0.127358 0.00054186 0)
(0.1269 0.000528582 0)
(0.125985 0.000507725 0)
(0.125602 0.000496338 0)
(0.124662 0.00047652 0)
(0.124363 0.000467288 0)
(0.123387 0.000449138 0)
(0.12318 0.00044219 0)
(0.122155 0.000427061 0)
(0.12205 0.000422831 0)
(0.120959 0.000413889 0)
(0.195651 0.0066757 0)
(0.19587 0.00770586 0)
(0.19635 0.00866446 0)
(0.197117 0.00938395 0)
(0.198089 0.00975538 0)
(0.199107 0.00979324 0)
(0.200026 0.00958422 0)
(0.200764 0.00921592 0)
(0.2013 0.00875451 0)
(0.201639 0.008251 0)
(0.201805 0.00774956 0)
(0.201829 0.00728546 0)
(0.201751 0.00687798 0)
(0.201609 0.00652855 0)
(0.201437 0.00622833 0)
(0.20125 0.00596568 0)
(0.201061 0.0057307 0)
(0.200866 0.00551614 0)
(0.200666 0.00531737 0)
(0.200455 0.00513127 0)
(0.200231 0.00495604 0)
(0.199989 0.00479024 0)
(0.199731 0.0046331 0)
(0.199453 0.00448378 0)
(0.199157 0.00434199 0)
(0.19884 0.00420712 0)
(0.198508 0.00407906 0)
(0.198153 0.00395728 0)
(0.197783 0.0038417 0)
(0.19739 0.0037317 0)
(0.196982 0.00362724 0)
(0.196552 0.00352757 0)
(0.196108 0.00343273 0)
(0.19564 0.00334191 0)
(0.19516 0.00325525 0)
(0.194656 0.00317195 0)
(0.194141 0.00309224 0)
(0.193601 0.00301534 0)
(0.193052 0.0029416 0)
(0.192478 0.0028702 0)
(0.191896 0.00280165 0)
(0.191289 0.00273502 0)
(0.190677 0.00267101 0)
(0.190039 0.00260856 0)
(0.189399 0.00254858 0)
(0.188731 0.00248983 0)
(0.188065 0.00243342 0)
(0.18737 0.00237797 0)
(0.18668 0.00232476 0)
(0.185961 0.00227224 0)
(0.18525 0.0022219 0)
(0.184507 0.00217201 0)
(0.183778 0.00212429 0)
(0.183015 0.00207673 0)
(0.182271 0.0020314 0)
(0.181489 0.00198594 0)
(0.180732 0.00194279 0)
(0.179934 0.0018992 0)
(0.179167 0.00185804 0)
(0.178355 0.00181614 0)
(0.177581 0.00177682 0)
(0.176756 0.00173643 0)
(0.175979 0.00169882 0)
(0.175142 0.00165977 0)
(0.174365 0.00162375 0)
(0.173519 0.00158586 0)
(0.172743 0.00155135 0)
(0.171889 0.00151448 0)
(0.17112 0.00148138 0)
(0.170258 0.0014454 0)
(0.169498 0.00141362 0)
(0.16863 0.00137838 0)
(0.167883 0.00134788 0)
(0.167008 0.00131323 0)
(0.166278 0.00128398 0)
(0.165397 0.00124979 0)
(0.164687 0.00122176 0)
(0.163801 0.00118793 0)
(0.163116 0.00116111 0)
(0.162222 0.00112753 0)
(0.161567 0.00110198 0)
(0.160665 0.00106853 0)
(0.160045 0.00104432 0)
(0.159132 0.00101097 0)
(0.158553 0.000988176 0)
(0.157627 0.000954945 0)
(0.157095 0.000933724 0)
(0.156152 0.000900651 0)
(0.155673 0.000881214 0)
(0.154709 0.000848455 0)
(0.154292 0.000831044 0)
(0.1533 0.000798938 0)
(0.152951 0.000783819 0)
(0.151926 0.000752848 0)
(0.151654 0.000740421 0)
(0.150586 0.000711346 0)
(0.150397 0.000701994 0)
(0.149277 0.000676197 0)
(0.149181 0.000670851 0)
(0.147996 0.000650515 0)
(0.196418 0.00646587 0)
(0.196612 0.00729363 0)
(0.196984 0.00806512 0)
(0.197551 0.0086834 0)
(0.198278 0.00906392 0)
(0.199073 0.00918362 0)
(0.199831 0.00908269 0)
(0.200473 0.00882635 0)
(0.200964 0.00847453 0)
(0.201299 0.00807384 0)
(0.201495 0.00766039 0)
(0.201576 0.00726192 0)
(0.201574 0.00689693 0)
(0.201516 0.00657239 0)
(0.201432 0.00628634 0)
(0.201338 0.00603198 0)
(0.201247 0.00580227 0)
(0.201158 0.00559125 0)
(0.201076 0.00539519 0)
(0.200993 0.00521139 0)
(0.200912 0.00503864 0)
(0.200825 0.00487562 0)
(0.200737 0.00472193 0)
(0.200641 0.00457659 0)
(0.200544 0.00443949 0)
(0.200438 0.00430972 0)
(0.200332 0.00418737 0)
(0.200214 0.00407152 0)
(0.200098 0.00396241 0)
(0.199969 0.00385901 0)
(0.199841 0.00376164 0)
(0.199698 0.00366913 0)
(0.199557 0.00358192 0)
(0.199399 0.00349873 0)
(0.199243 0.00342015 0)
(0.199068 0.00334481 0)
(0.198896 0.00327351 0)
(0.198703 0.00320476 0)
(0.198514 0.00313961 0)
(0.198301 0.00307642 0)
(0.198093 0.00301649 0)
(0.197859 0.00295798 0)
(0.197632 0.00290251 0)
(0.197375 0.00284797 0)
(0.197128 0.00279632 0)
(0.196849 0.00274515 0)
(0.196582 0.00269678 0)
(0.196279 0.00264847 0)
(0.195992 0.00260293 0)
(0.195664 0.00255703 0)
(0.195357 0.00251392 0)
(0.195005 0.00247004 0)
(0.194678 0.00242905 0)
(0.194301 0.00238686 0)
(0.193955 0.00234772 0)
(0.193554 0.00230693 0)
(0.19319 0.00226942 0)
(0.192764 0.00222975 0)
(0.192383 0.00219365 0)
(0.191932 0.00215489 0)
(0.191536 0.00212005 0)
(0.19106 0.002082 0)
(0.19065 0.00204829 0)
(0.19015 0.00201079 0)
(0.189728 0.00197812 0)
(0.189204 0.00194094 0)
(0.188772 0.00190923 0)
(0.188224 0.00187224 0)
(0.187785 0.00184141 0)
(0.187213 0.0018045 0)
(0.186769 0.00177451 0)
(0.186173 0.00173754 0)
(0.185727 0.00170836 0)
(0.185108 0.00167115 0)
(0.184663 0.00164279 0)
(0.184019 0.00160525 0)
(0.18358 0.00157772 0)
(0.182912 0.00153979 0)
(0.182481 0.00151308 0)
(0.181789 0.00147465 0)
(0.181371 0.00144886 0)
(0.180653 0.00140987 0)
(0.180252 0.00138509 0)
(0.179508 0.00134556 0)
(0.17913 0.0013219 0)
(0.178357 0.00128191 0)
(0.178007 0.00125954 0)
(0.177204 0.0012192 0)
(0.176888 0.00119839 0)
(0.176052 0.00115794 0)
(0.175775 0.00113898 0)
(0.174904 0.0010989 0)
(0.174672 0.00108215 0)
(0.173761 0.00104297 0)
(0.17358 0.00102906 0)
(0.172626 0.000991637 0)
(0.172502 0.000981218 0)
(0.171499 0.000946905 0)
(0.171436 0.000941243 0)
(0.170379 0.00091156 0)
(0.197109 0.00626927 0)
(0.197273 0.00694244 0)
(0.197559 0.00756734 0)
(0.197976 0.00808815 0)
(0.19851 0.00844775 0)
(0.199109 0.00861653 0)
(0.199706 0.00860397 0)
(0.200235 0.0084474 0)
(0.200661 0.0081926 0)
(0.200967 0.00788034 0)
(0.201162 0.00754314 0)
(0.20126 0.00720484 0)
(0.201289 0.00688239 0)
(0.201265 0.00658477 0)
(0.201218 0.00631461 0)
(0.201155 0.00606913 0)
(0.201095 0.00584441 0)
(0.201035 0.00563589 0)
(0.200983 0.00544097 0)
(0.20093 0.0052572 0)
(0.200884 0.00508405 0)
(0.200833 0.00492022 0)
(0.200788 0.00476587 0)
(0.200736 0.00461984 0)
(0.200691 0.00448247 0)
(0.200638 0.00435246 0)
(0.200594 0.00423034 0)
(0.200541 0.0041147 0)
(0.200497 0.00400628 0)
(0.200444 0.00390349 0)
(0.2004 0.00380727 0)
(0.200346 0.00371581 0)
(0.200302 0.00363026 0)
(0.200245 0.00354859 0)
(0.2002 0.00347222 0)
(0.20014 0.0033989 0)
(0.200093 0.00333035 0)
(0.200028 0.00326411 0)
(0.199977 0.00320224 0)
(0.199906 0.00314199 0)
(0.199852 0.00308584 0)
(0.199773 0.00303066 0)
(0.199713 0.00297941 0)
(0.199625 0.0029285 0)
(0.19956 0.00288147 0)
(0.199462 0.00283418 0)
(0.19939 0.00279077 0)
(0.199281 0.00274654 0)
(0.199201 0.00270622 0)
(0.19908 0.00266455 0)
(0.198992 0.00262688 0)
(0.198857 0.00258729 0)
(0.198761 0.0025519 0)
(0.198611 0.002514 0)
(0.198507 0.0024806 0)
(0.198341 0.00244402 0)
(0.198228 0.00241234 0)
(0.198046 0.00237677 0)
(0.197923 0.00234653 0)
(0.197723 0.00231169 0)
(0.197592 0.00228266 0)
(0.197374 0.00224833 0)
(0.197234 0.00222037 0)
(0.196996 0.00218629 0)
(0.196849 0.00215929 0)
(0.19659 0.00212523 0)
(0.196435 0.00209905 0)
(0.196155 0.0020648 0)
(0.195994 0.00203929 0)
(0.195691 0.00200475 0)
(0.195525 0.00197983 0)
(0.1952 0.00194483 0)
(0.195029 0.00192049 0)
(0.19468 0.0018848 0)
(0.194506 0.00186097 0)
(0.194132 0.00182447 0)
(0.193958 0.00180109 0)
(0.193559 0.00176379 0)
(0.193386 0.00174086 0)
(0.19296 0.00170263 0)
(0.19279 0.00168018 0)
(0.192337 0.00164089 0)
(0.192173 0.00161903 0)
(0.191692 0.0015788 0)
(0.191536 0.00155753 0)
(0.191027 0.00151651 0)
(0.190881 0.00149602 0)
(0.190342 0.00145429 0)
(0.19021 0.00143486 0)
(0.189641 0.0013927 0)
(0.189524 0.00137467 0)
(0.188924 0.00133267 0)
(0.188827 0.0013164 0)
(0.188193 0.00127515 0)
(0.188118 0.00126149 0)
(0.18745 0.00122178 0)
(0.187399 0.00121154 0)
(0.186695 0.00117492 0)
(0.18667 0.00116944 0)
(0.185929 0.00113699 0)
(0.197704 0.00609741 0)
(0.197837 0.00665733 0)
(0.198056 0.00717633 0)
(0.198365 0.00761891 0)
(0.198757 0.00794818 0)
(0.199201 0.00813876 0)
(0.199657 0.00818665 0)
(0.200075 0.00810841 0)
(0.200428 0.00793421 0)
(0.200691 0.00769612 0)
(0.20087 0.00742313 0)
(0.20097 0.00713692 0)
(0.201013 0.00685368 0)
(0.20101 0.00658286 0)
(0.200984 0.00632979 0)
(0.200941 0.00609453 0)
(0.200899 0.00587598 0)
(0.200853 0.00567095 0)
(0.200815 0.00547803 0)
(0.200775 0.00529497 0)
(0.200742 0.00512182 0)
(0.200703 0.0049572 0)
(0.200672 0.00480186 0)
(0.200633 0.00465442 0)
(0.200602 0.00451576 0)
(0.200564 0.00438422 0)
(0.200536 0.00426085 0)
(0.2005 0.00414374 0)
(0.200474 0.00403419 0)
(0.20044 0.00393001 0)
(0.200417 0.00383281 0)
(0.200384 0.0037401 0)
(0.200365 0.00365379 0)
(0.200333 0.0035711 0)
(0.200316 0.00349426 0)
(0.200285 0.00342019 0)
(0.20027 0.00335153 0)
(0.200239 0.00328484 0)
(0.200226 0.00322322 0)
(0.200194 0.00316282 0)
(0.200182 0.00310728 0)
(0.200148 0.00305222 0)
(0.200138 0.00300193 0)
(0.200101 0.00295142 0)
(0.200091 0.00290567 0)
(0.200051 0.00285902 0)
(0.200041 0.0028172 0)
(0.199997 0.00277384 0)
(0.199986 0.00273539 0)
(0.199937 0.00269479 0)
(0.199926 0.00265927 0)
(0.199872 0.00262094 0)
(0.199859 0.00258795 0)
(0.199798 0.00255145 0)
(0.199784 0.00252069 0)
(0.199716 0.00248564 0)
(0.1997 0.00245681 0)
(0.199624 0.00242292 0)
(0.199606 0.0023957 0)
(0.199521 0.00236268 0)
(0.199501 0.00233681 0)
(0.199406 0.00230436 0)
(0.199384 0.0022797 0)
(0.199278 0.00224756 0)
(0.199255 0.00222399 0)
(0.199137 0.00219193 0)
(0.199111 0.00216925 0)
(0.198981 0.00213706 0)
(0.198953 0.00211501 0)
(0.19881 0.00208258 0)
(0.19878 0.00206109 0)
(0.198623 0.00202821 0)
(0.198591 0.00200732 0)
(0.198419 0.00197374 0)
(0.198386 0.00195325 0)
(0.198197 0.00191887 0)
(0.198164 0.0018986 0)
(0.197959 0.00186348 0)
(0.197925 0.00184344 0)
(0.197703 0.00180743 0)
(0.197669 0.0017877 0)
(0.197429 0.00175052 0)
(0.197396 0.00173107 0)
(0.197138 0.00169305 0)
(0.197106 0.00167374 0)
(0.196829 0.00163501 0)
(0.196799 0.00161618 0)
(0.196502 0.0015767 0)
(0.196476 0.00155861 0)
(0.196158 0.0015187 0)
(0.196136 0.00150152 0)
(0.195799 0.00146204 0)
(0.19578 0.00144615 0)
(0.195422 0.00140739 0)
(0.195408 0.0013941 0)
(0.195029 0.00135699 0)
(0.19502 0.00134653 0)
(0.194621 0.00131284 0)
(0.194617 0.00130714 0)
(0.194195 0.00127768 0)
(0.198275 0.0059565 0)
(0.198376 0.00643216 0)
(0.198533 0.00687218 0)
(0.19875 0.00725213 0)
(0.199023 0.00754809 0)
(0.199334 0.00774064 0)
(0.199659 0.00782251 0)
(0.199967 0.00779909 0)
(0.200236 0.00768803 0)
(0.200446 0.00751164 0)
(0.200597 0.00729362 0)
(0.200688 0.00705312 0)
(0.200736 0.00680583 0)
(0.200745 0.00656135 0)
(0.200735 0.00632658 0)
(0.200708 0.00610338 0)
(0.200681 0.00589294 0)
(0.200649 0.00569332 0)
(0.200622 0.0055043 0)
(0.200593 0.00532377 0)
(0.200569 0.00515232 0)
(0.200541 0.0049884 0)
(0.200518 0.00483326 0)
(0.20049 0.0046853 0)
(0.200468 0.00454598 0)
(0.200439 0.00441332 0)
(0.200419 0.00428894 0)
(0.200392 0.00417046 0)
(0.200374 0.00405974 0)
(0.200349 0.00395408 0)
(0.200334 0.00385567 0)
(0.20031 0.00376144 0)
(0.200298 0.00367395 0)
(0.200276 0.0035898 0)
(0.200267 0.00351188 0)
(0.200246 0.00343649 0)
(0.200239 0.00336694 0)
(0.200219 0.0032991 0)
(0.200215 0.0032368 0)
(0.200195 0.00317542 0)
(0.200193 0.00311944 0)
(0.200174 0.00306358 0)
(0.200174 0.00301306 0)
(0.200154 0.00296192 0)
(0.200155 0.00291614 0)
(0.200135 0.00286903 0)
(0.200138 0.00282734 0)
(0.200117 0.00278371 0)
(0.200122 0.00274554 0)
(0.200099 0.00270484 0)
(0.200105 0.00266977 0)
(0.20008 0.00263146 0)
(0.200087 0.00259909 0)
(0.200061 0.00256273 0)
(0.200069 0.00253274 0)
(0.20004 0.00249798 0)
(0.200049 0.00247003 0)
(0.200017 0.00243661 0)
(0.200027 0.00241034 0)
(0.199991 0.00237797 0)
(0.200002 0.00235315 0)
(0.199963 0.00232147 0)
(0.199975 0.00229797 0)
(0.199931 0.00226672 0)
(0.199943 0.00224439 0)
(0.199895 0.00221338 0)
(0.199908 0.00219197 0)
(0.199855 0.00216108 0)
(0.199868 0.00214024 0)
(0.199809 0.0021093 0)
(0.199823 0.00208905 0)
(0.199758 0.00205772 0)
(0.199772 0.00203815 0)
(0.199701 0.00200632 0)
(0.199715 0.00198707 0)
(0.199637 0.00195468 0)
(0.199651 0.00193546 0)
(0.199566 0.00190257 0)
(0.19958 0.00188348 0)
(0.199488 0.00184981 0)
(0.199501 0.00183112 0)
(0.199401 0.00179638 0)
(0.199415 0.00177768 0)
(0.199306 0.00174252 0)
(0.199319 0.00172364 0)
(0.199202 0.00168788 0)
(0.199215 0.00166952 0)
(0.199089 0.00163307 0)
(0.199101 0.00161532 0)
(0.198967 0.00157869 0)
(0.198977 0.00156138 0)
(0.198834 0.00152561 0)
(0.198843 0.0015096 0)
(0.198691 0.00147424 0)
(0.198699 0.00146095 0)
(0.198537 0.0014279 0)
(0.198542 0.00141682 0)
(0.198371 0.00138712 0)
(0.198374 0.00138124 0)
(0.198193 0.00135613 0)
(0.198891 0.00584116 0)
(0.198952 0.00624965 0)
(0.199046 0.00662697 0)
(0.199173 0.00695593 0)
(0.199333 0.00722056 0)
(0.199516 0.00740626 0)
(0.199712 0.00750593 0)
(0.199901 0.00751964 0)
(0.200072 0.00745667 0)
(0.200211 0.00733079 0)
(0.200317 0.00715966 0)
(0.200386 0.00695903 0)
(0.200426 0.00674372 0)
(0.200441 0.00652349 0)
(0.200441 0.0063064 0)
(0.20043 0.00609564 0)
(0.200416 0.00589406 0)
(0.200399 0.00570089 0)
(0.200384 0.00551687 0)
(0.200367 0.00534018 0)
(0.200354 0.00517173 0)
(0.200337 0.00500987 0)
(0.200324 0.00485613 0)
(0.200307 0.00470883 0)
(0.200294 0.00456981 0)
(0.200277 0.00443697 0)
(0.200265 0.0043123 0)
(0.200248 0.00419321 0)
(0.200237 0.00408191 0)
(0.200221 0.00397541 0)
(0.200212 0.0038762 0)
(0.200198 0.003781 0)
(0.200191 0.00369258 0)
(0.200177 0.00360741 0)
(0.200171 0.00352854 0)
(0.200159 0.00345216 0)
(0.200155 0.0033817 0)
(0.200143 0.00331292 0)
(0.200141 0.00324983 0)
(0.20013 0.00318758 0)
(0.200128 0.00313091 0)
(0.200118 0.00307429 0)
(0.200118 0.00302318 0)
(0.200108 0.00297139 0)
(0.200109 0.00292507 0)
(0.200099 0.00287747 0)
(0.200101 0.00283527 0)
(0.200091 0.00279128 0)
(0.200094 0.00275266 0)
(0.200084 0.00271168 0)
(0.200088 0.00267625 0)
(0.200078 0.00263773 0)
(0.200083 0.00260508 0)
(0.200072 0.0025686 0)
(0.200078 0.00253835 0)
(0.200066 0.0025036 0)
(0.200073 0.00247536 0)
(0.200061 0.00244212 0)
(0.200069 0.00241553 0)
(0.200055 0.00238348 0)
(0.200064 0.00235839 0)
(0.20005 0.00232706 0)
(0.200059 0.00230337 0)
(0.200044 0.00227254 0)
(0.200054 0.00224999 0)
(0.200038 0.00221959 0)
(0.200049 0.00219786 0)
(0.200031 0.00216784 0)
(0.200042 0.00214659 0)
(0.200023 0.00211662 0)
(0.200035 0.00209606 0)
(0.200014 0.00206566 0)
(0.200026 0.00204582 0)
(0.200004 0.00201515 0)
(0.200017 0.00199546 0)
(0.199993 0.00196456 0)
(0.200005 0.00194474 0)
(0.19998 0.00191345 0)
(0.199992 0.00189385 0)
(0.199965 0.0018617 0)
(0.199978 0.00184269 0)
(0.199948 0.00180972 0)
(0.199961 0.00179029 0)
(0.199929 0.00175734 0)
(0.199941 0.00173775 0)
(0.199907 0.00170402 0)
(0.199919 0.00168519 0)
(0.199882 0.00165085 0)
(0.199893 0.00163257 0)
(0.199854 0.00159846 0)
(0.199864 0.00158026 0)
(0.199823 0.00154713 0)
(0.199831 0.00153087 0)
(0.199787 0.00149769 0)
(0.199794 0.001484 0)
(0.199747 0.00145416 0)
(0.199751 0.00144264 0)
(0.199701 0.00141545 0)
(0.199703 0.00140973 0)
(0.19965 0.00138768 0)
(0.199568 0.00577546 0)
(0.199585 0.00614275 0)
(0.199613 0.00648136 0)
(0.199652 0.00677825 0)
(0.199702 0.00702115 0)
(0.199761 0.00719853 0)
(0.199825 0.0073039 0)
(0.199889 0.00733533 0)
(0.199948 0.00729808 0)
(0.199999 0.00720114 0)
(0.200039 0.00705806 0)
(0.200067 0.00688197 0)
(0.200085 0.00668657 0)
(0.200094 0.00648172 0)
(0.200098 0.00627606 0)
(0.200097 0.00607368 0)
(0.200096 0.00587827 0)
(0.200092 0.00568981 0)
(0.200089 0.00550957 0)
(0.200085 0.00533599 0)
(0.200083 0.0051701 0)
(0.200079 0.00501025 0)
(0.200076 0.00485805 0)
(0.200072 0.00471181 0)
(0.200069 0.00457353 0)
(0.200065 0.00444114 0)
(0.200062 0.00431675 0)
(0.200057 0.00419782 0)
(0.200055 0.00408653 0)
(0.20005 0.00398004 0)
(0.200048 0.00388067 0)
(0.200044 0.00378536 0)
(0.200043 0.00369666 0)
(0.200039 0.00361129 0)
(0.200038 0.00353209 0)
(0.200035 0.00345546 0)
(0.200034 0.00338467 0)
(0.200031 0.00331563 0)
(0.200031 0.00325223 0)
(0.200028 0.00318976 0)
(0.200028 0.00313278 0)
(0.200025 0.003076 0)
(0.200026 0.00302457 0)
(0.200023 0.00297269 0)
(0.200024 0.00292604 0)
(0.200021 0.00287843 0)
(0.200023 0.00283589 0)
(0.20002 0.00279192 0)
(0.200022 0.002753 0)
(0.200019 0.00271206 0)
(0.200021 0.00267633 0)
(0.200018 0.0026379 0)
(0.20002 0.00260495 0)
(0.200017 0.00256862 0)
(0.20002 0.00253804 0)
(0.200017 0.00250351 0)
(0.20002 0.0024749 0)
(0.200017 0.00244194 0)
(0.20002 0.00241496 0)
(0.200016 0.0023832 0)
(0.20002 0.00235776 0)
(0.200016 0.00232676 0)
(0.20002 0.00230268 0)
(0.200016 0.00227226 0)
(0.20002 0.00224925 0)
(0.200016 0.00221935 0)
(0.20002 0.00219707 0)
(0.200016 0.00216762 0)
(0.20002 0.00214585 0)
(0.200016 0.00211643 0)
(0.20002 0.00209541 0)
(0.200016 0.0020656 0)
(0.20002 0.00204515 0)
(0.200016 0.00201522 0)
(0.20002 0.00199484 0)
(0.200015 0.00196476 0)
(0.20002 0.00194431 0)
(0.200015 0.00191381 0)
(0.200019 0.00189362 0)
(0.200014 0.00186224 0)
(0.200018 0.00184254 0)
(0.200013 0.0018106 0)
(0.200017 0.00179038 0)
(0.200011 0.00175843 0)
(0.200016 0.00173825 0)
(0.200009 0.00170546 0)
(0.200013 0.00168598 0)
(0.200007 0.00165273 0)
(0.200011 0.00163374 0)
(0.200004 0.00160088 0)
(0.200007 0.00158205 0)
(0.199999 0.00154997 0)
(0.200002 0.00153337 0)
(0.199994 0.0015015 0)
(0.199997 0.00148704 0)
(0.199988 0.00145866 0)
(0.19999 0.00144704 0)
(0.19998 0.00142117 0)
(0.199981 0.00141512 0)
(0.199971 0.00139474 0)
(0.204161 9.56497e-05 0)