/*--------------------------------*- C++ -*----------------------------------*\
| =========                 |                                                 |
| \\      /  F ield         | OpenFOAM: The Open Source CFD Toolbox           |
|  \\    /   O peration     | Version:  2.3.0                                 |
|   \\  /    A nd           | Web:      www.OpenFOAM.org                      |
|    \\/     M anipulation  |                                                 |
\*---------------------------------------------------------------------------*/
FoamFile
{
    version     2.0;
    format      ascii;
    class       volVectorField;
    location    "0.2";
    object      U_0;
}
// * * * * * * * * * * * * * * * * * * * * * * * * * * * * * * * * * * * * * //

dimensions      [0 1 -1 0 0 0 0];

internalField   nonuniform List<vector> 
8750
(
(0.171441 0.00594385 0)
(0.155008 0.00602184 0)
(0.139208 0.00560734 0)
(0.124226 0.0050116 0)
(0.110476 0.00435261 0)
(0.0981278 0.00368382 0)
(0.087194 0.00304203 0)
(0.0776402 0.0024527 0)
(0.0694107 0.0019313 0)
(0.0624209 0.00148569 0)
(0.0565578 0.00111756 0)
(0.0516888 0.000823462 0)
(0.0476738 0.000596056 0)
(0.044374 0.000425665 0)
(0.0416599 0.000301807 0)
(0.0394161 0.000214383 0)
(0.0375437 0.000154431 0)
(0.0359614 0.000114461 0)
(0.0346044 8.85193e-05 0)
(0.0334225 7.20644e-05 0)
(0.0323775 6.17708e-05 0)
(0.0314411 5.53006e-05 0)
(0.0305925 5.10807e-05 0)
(0.0298164 4.81023e-05 0)
(0.0291016 4.57534e-05 0)
(0.0284398 4.36875e-05 0)
(0.0278248 4.17263e-05 0)
(0.0272516 3.97919e-05 0)
(0.0267165 3.78611e-05 0)
(0.0262161 3.59381e-05 0)
(0.025748 3.40375e-05 0)
(0.0253097 3.21752e-05 0)
(0.0248994 3.0365e-05 0)
(0.0245153 2.86169e-05 0)
(0.0241559 2.69377e-05 0)
(0.0238201 2.53322e-05 0)
(0.0235066 2.3804e-05 0)
(0.0232146 2.23557e-05 0)
(0.0229431 2.09883e-05 0)
(0.0226915 1.9698e-05 0)
(0.0224591 1.84707e-05 0)
(0.0222457 1.72749e-05 0)
(0.022051 1.60532e-05 0)
(0.0218753 1.47155e-05 0)
(0.0217194 1.31397e-05 0)
(0.0215845 1.11936e-05 0)
(0.0214724 8.80609e-06 0)
(0.0213856 6.0822e-06 0)
(0.021327 3.24904e-06 0)
(0.0212996 9.19887e-07 0)
(0.0213025 -1.53758e-06 0)
(0.0213251 -3.31634e-06 0)
(0.0213621 -4.78398e-06 0)
(0.0214093 -5.80414e-06 0)
(0.0214626 -6.31335e-06 0)
(0.0215188 -6.41058e-06 0)
(0.0215751 -6.22789e-06 0)
(0.0216298 -5.87022e-06 0)
(0.0216814 -5.41381e-06 0)
(0.0217293 -4.91369e-06 0)
(0.0217731 -4.40818e-06 0)
(0.0218127 -3.92215e-06 0)
(0.0218482 -3.46997e-06 0)
(0.0218799 -3.05857e-06 0)
(0.021908 -2.68972e-06 0)
(0.0219328 -2.36205e-06 0)
(0.0219547 -2.07255e-06 0)
(0.0219739 -1.81741e-06 0)
(0.0219908 -1.59259e-06 0)
(0.0220055 -1.39424e-06 0)
(0.0220183 -1.21892e-06 0)
(0.0220294 -1.0636e-06 0)
(0.022039 -9.25704e-07 0)
(0.0220472 -8.03081e-07 0)
(0.0220542 -6.93901e-07 0)
(0.0220601 -5.96651e-07 0)
(0.0220651 -5.10091e-07 0)
(0.0220692 -4.3314e-07 0)
(0.0220726 -3.6497e-07 0)
(0.0220754 -3.04964e-07 0)
(0.0220776 -2.52528e-07 0)
(0.0220793 -2.06879e-07 0)
(0.0220806 -1.67725e-07 0)
(0.0220815 -1.37971e-07 0)
(0.0220821 -1.15035e-07 0)
(0.0220825 -9.55243e-08 0)
(0.0220826 -7.17719e-08 0)
(0.0220824 -4.36856e-08 0)
(0.0220821 -1.97993e-08 0)
(0.0220815 -4.59023e-10 0)
(0.0220808 1.56807e-08 0)
(0.0220799 3.00329e-08 0)
(0.0220789 4.39343e-08 0)
(0.0220778 5.87064e-08 0)
(0.0220765 7.58725e-08 0)
(0.022075 9.7616e-08 0)
(0.0220734 1.27877e-07 0)
(0.0220713 1.72936e-07 0)
(0.0220691 2.02306e-07 0)
(0.0220619 1.20584e-06 0)
(0.190291 0.00938723 0)
(0.187979 0.00989838 0)
(0.184056 0.00967409 0)
(0.178881 0.00917641 0)
(0.172959 0.0085442 0)
(0.166642 0.00782363 0)
(0.160152 0.00705258 0)
(0.153658 0.00626587 0)
(0.147295 0.00549265 0)
(0.141163 0.0047568 0)
(0.135331 0.004077 0)
(0.129839 0.0034661 0)
(0.124705 0.00293093 0)
(0.119933 0.00247267 0)
(0.115515 0.00208797 0)
(0.111435 0.00177022 0)
(0.107672 0.00151092 0)
(0.104202 0.00130093 0)
(0.101003 0.00113131 0)
(0.0980487 0.000994019 0)
(0.0953179 0.000882128 0)
(0.0927891 0.000789971 0)
(0.0904428 0.000713051 0)
(0.0882619 0.0006479 0)
(0.0862309 0.000591889 0)
(0.0843362 0.000543053 0)
(0.0825658 0.000499932 0)
(0.0809092 0.000461433 0)
(0.0793575 0.000426736 0)
(0.0779027 0.00039521 0)
(0.0765379 0.000366362 0)
(0.0752572 0.000339798 0)
(0.0740555 0.000315193 0)
(0.0729285 0.000292277 0)
(0.0718724 0.000270823 0)
(0.0708841 0.000250633 0)
(0.0699608 0.000231543 0)
(0.0691005 0.000213406 0)
(0.0683014 0.00019609 0)
(0.0675622 0.000179464 0)
(0.0668819 0.000163385 0)
(0.0662603 0.000147677 0)
(0.0656975 0.000132121 0)
(0.0651941 0.000116442 0)
(0.0647516 0.000100313 0)
(0.0643717 8.33995e-05 0)
(0.0640564 6.54507e-05 0)
(0.0638074 4.64707e-05 0)
(0.0636253 2.67234e-05 0)
(0.0635084 7.10208e-06 0)
(0.0634592 -1.05876e-05 0)
(0.0634722 -2.27082e-05 0)
(0.0635258 -2.96225e-05 0)
(0.063607 -3.35404e-05 0)
(0.0637058 -3.54271e-05 0)
(0.0638145 -3.56693e-05 0)
(0.0639269 -3.46358e-05 0)
(0.0640387 -3.27213e-05 0)
(0.0641466 -3.02794e-05 0)
(0.0642487 -2.75868e-05 0)
(0.0643435 -2.48398e-05 0)
(0.0644307 -2.21679e-05 0)
(0.0645099 -1.96492e-05 0)
(0.0645814 -1.73252e-05 0)
(0.0646455 -1.52114e-05 0)
(0.0647027 -1.33073e-05 0)
(0.0647533 -1.1603e-05 0)
(0.0647979 -1.00839e-05 0)
(0.064837 -8.73344e-06 0)
(0.0648711 -7.53503e-06 0)
(0.0649007 -6.47311e-06 0)
(0.064926 -5.53352e-06 0)
(0.0649476 -4.70359e-06 0)
(0.0649659 -3.97212e-06 0)
(0.0649811 -3.3291e-06 0)
(0.0649936 -2.7656e-06 0)
(0.0650038 -2.27361e-06 0)
(0.0650119 -1.84582e-06 0)
(0.0650181 -1.47569e-06 0)
(0.0650228 -1.15728e-06 0)
(0.0650262 -8.85162e-07 0)
(0.0650284 -6.53766e-07 0)
(0.0650296 -4.58515e-07 0)
(0.0650301 -3.08398e-07 0)
(0.0650299 -1.73309e-07 0)
(0.065029 -3.56818e-08 0)
(0.0650275 9.83697e-08 0)
(0.0650253 2.20415e-07 0)
(0.0650227 3.19924e-07 0)
(0.0650197 3.98981e-07 0)
(0.0650164 4.63637e-07 0)
(0.0650128 5.20148e-07 0)
(0.0650091 5.74408e-07 0)
(0.0650051 6.32276e-07 0)
(0.065001 7.00523e-07 0)
(0.0649965 7.88862e-07 0)
(0.0649916 9.14359e-07 0)
(0.0649862 1.11023e-06 0)
(0.0649802 1.48525e-06 0)
(0.064967 3.60797e-06 0)
(0.193277 0.00901284 0)
(0.194073 0.00996923 0)
(0.194207 0.010299 0)
(0.19353 0.0103 0)
(0.192162 0.0100733 0)
(0.190226 0.00965709 0)
(0.187816 0.00909624 0)
(0.185022 0.00844035 0)
(0.18194 0.00773462 0)
(0.178659 0.00701726 0)
(0.175256 0.00631897 0)
(0.171798 0.00566237 0)
(0.168334 0.00506188 0)
(0.164906 0.00452454 0)
(0.161542 0.00405143 0)
(0.158262 0.0036394 0)
(0.15508 0.00328268 0)
(0.152003 0.00297434 0)
(0.149035 0.00270725 0)
(0.146176 0.00247478 0)
(0.143428 0.0022711 0)
(0.140787 0.00209131 0)
(0.138251 0.00193138 0)
(0.135818 0.00178806 0)
(0.133485 0.00165874 0)
(0.131249 0.00154134 0)
(0.129107 0.00143416 0)
(0.127057 0.00133581 0)
(0.125096 0.00124514 0)
(0.123222 0.00116118 0)
(0.121433 0.00108309 0)
(0.119727 0.00101015 0)
(0.118102 0.00094171 0)
(0.116557 0.00087721 0)
(0.11509 0.000816146 0)
(0.113701 0.000758069 0)
(0.112389 0.000702572 0)
(0.111153 0.000649288 0)
(0.109994 0.000597866 0)
(0.108912 0.000547964 0)
(0.107907 0.000499222 0)
(0.106981 0.000451251 0)
(0.106134 0.000403629 0)
(0.105369 0.000355912 0)
(0.104688 0.000307692 0)
(0.104093 0.000258677 0)
(0.103583 0.000208834 0)
(0.103161 0.000158521 0)
(0.102823 0.000108603 0)
(0.102563 6.01773e-05 0)
(0.102368 1.53087e-05 0)
(0.102242 -2.27703e-05 0)
(0.102194 -5.03657e-05 0)
(0.102204 -6.72405e-05 0)
(0.102254 -7.63745e-05 0)
(0.102333 -8.0255e-05 0)
(0.10243 -8.04519e-05 0)
(0.102539 -7.80312e-05 0)
(0.102653 -7.38515e-05 0)
(0.102768 -6.86151e-05 0)
(0.102881 -6.28567e-05 0)
(0.10299 -5.69566e-05 0)
(0.103092 -5.1167e-05 0)
(0.103188 -4.56442e-05 0)
(0.103277 -4.04747e-05 0)
(0.103358 -3.56978e-05 0)
(0.103432 -3.13228e-05 0)
(0.103499 -2.73413e-05 0)
(0.103559 -2.37347e-05 0)
(0.103612 -2.04801e-05 0)
(0.103659 -1.75537e-05 0)
(0.1037 -1.49319e-05 0)
(0.103735 -1.25924e-05 0)
(0.103765 -1.05145e-05 0)
(0.10379 -8.67845e-06 0)
(0.103811 -7.06575e-06 0)
(0.103828 -5.65866e-06 0)
(0.103841 -4.44011e-06 0)
(0.103851 -3.3937e-06 0)
(0.103859 -2.50343e-06 0)
(0.103864 -1.75382e-06 0)
(0.103866 -1.12978e-06 0)
(0.103868 -6.14211e-07 0)
(0.103868 -1.76093e-07 0)
(0.103866 2.30169e-07 0)
(0.103863 6.26352e-07 0)
(0.103859 9.8396e-07 0)
(0.103854 1.27906e-06 0)
(0.103849 1.5098e-06 0)
(0.103842 1.68714e-06 0)
(0.103836 1.82609e-06 0)
(0.103829 1.94164e-06 0)
(0.103822 2.04779e-06 0)
(0.103814 2.15825e-06 0)
(0.103806 2.2884e-06 0)
(0.103798 2.45957e-06 0)
(0.10379 2.70835e-06 0)
(0.103781 3.11318e-06 0)
(0.103771 3.99349e-06 0)
(0.103755 6.6666e-06 0)
(0.194303 0.00836955 0)
(0.195481 0.00942425 0)
(0.196545 0.00997763 0)
(0.197276 0.0102153 0)
(0.197655 0.0102208 0)
(0.197689 0.0100265 0)
(0.197379 0.00966821 0)
(0.196731 0.00918891 0)
(0.195772 0.00863044 0)
(0.194543 0.00803012 0)
(0.193087 0.00741961 0)
(0.191448 0.00682405 0)
(0.189669 0.00626138 0)
(0.187787 0.00574268 0)
(0.185833 0.00527305 0)
(0.183834 0.00485303 0)
(0.181811 0.00448006 0)
(0.179779 0.00414973 0)
(0.17775 0.00385682 0)
(0.175732 0.00359603 0)
(0.173732 0.00336242 0)
(0.171755 0.00315164 0)
(0.169804 0.00295999 0)
(0.167884 0.00278443 0)
(0.165997 0.00262246 0)
(0.164145 0.0024721 0)
(0.16233 0.00233172 0)
(0.160555 0.00219999 0)
(0.158821 0.00207582 0)
(0.157131 0.00195829 0)
(0.155486 0.0018466 0)
(0.153889 0.00174005 0)
(0.152341 0.00163803 0)
(0.150844 0.00153997 0)
(0.1494 0.00144535 0)
(0.148012 0.0013537 0)
(0.146681 0.00126457 0)
(0.14541 0.00117755 0)
(0.1442 0.00109221 0)
(0.143056 0.00100812 0)
(0.141979 0.000924844 0)
(0.140973 0.000841906 0)
(0.14004 0.000758824 0)
(0.139184 0.000675155 0)
(0.138408 0.000590587 0)
(0.137714 0.000505079 0)
(0.137103 0.000419053 0)
(0.136575 0.000333616 0)
(0.136127 0.000250774 0)
(0.135756 0.000173268 0)
(0.135454 0.000103157 0)
(0.135207 4.08464e-05 0)
(0.135007 -1.22898e-05 0)
(0.134874 -5.33893e-05 0)
(0.134799 -8.16415e-05 0)
(0.134772 -9.89928e-05 0)
(0.13478 -0.000108236 0)
(0.134816 -0.000111617 0)
(0.134873 -0.000110801 0)
(0.134945 -0.000107078 0)
(0.135026 -0.000101455 0)
(0.135113 -9.46955e-05 0)
(0.135203 -8.73542e-05 0)
(0.135293 -7.98192e-05 0)
(0.135381 -7.23489e-05 0)
(0.135467 -6.51083e-05 0)
(0.135548 -5.81972e-05 0)
(0.135625 -5.1672e-05 0)
(0.135697 -4.55605e-05 0)
(0.135763 -3.98734e-05 0)
(0.135824 -3.46115e-05 0)
(0.135879 -2.97699e-05 0)
(0.135927 -2.53408e-05 0)
(0.13597 -2.13142e-05 0)
(0.136007 -1.76785e-05 0)
(0.136039 -1.44208e-05 0)
(0.136065 -1.15265e-05 0)
(0.136086 -8.9793e-06 0)
(0.136103 -6.76151e-06 0)
(0.136115 -4.85364e-06 0)
(0.136124 -3.23493e-06 0)
(0.13613 -1.88417e-06 0)
(0.136132 -7.69738e-07 0)
(0.136132 2.07091e-07 0)
(0.13613 1.10623e-06 0)
(0.136126 1.92886e-06 0)
(0.13612 2.63745e-06 0)
(0.136112 3.20994e-06 0)
(0.136103 3.65171e-06 0)
(0.136094 3.98371e-06 0)
(0.136083 4.23271e-06 0)
(0.136073 4.42579e-06 0)
(0.136062 4.58862e-06 0)
(0.13605 4.74602e-06 0)
(0.136038 4.9248e-06 0)
(0.136027 5.16003e-06 0)
(0.136014 5.50954e-06 0)
(0.136002 6.0978e-06 0)
(0.135988 7.3282e-06 0)
(0.135969 1.01846e-05 0)
(0.195014 0.007862 0)
(0.196067 0.00885797 0)
(0.197186 0.00945195 0)
(0.198197 0.00976428 0)
(0.199059 0.0098689 0)
(0.199754 0.00979581 0)
(0.200258 0.00957134 0)
(0.200547 0.00922804 0)
(0.200616 0.00879969 0)
(0.20047 0.00831793 0)
(0.200125 0.00781087 0)
(0.199602 0.00730204 0)
(0.198926 0.00680951 0)
(0.198122 0.00634558 0)
(0.197214 0.00591732 0)
(0.196222 0.00552747 0)
(0.195164 0.0051756 0)
(0.194055 0.00485919 0)
(0.192906 0.00457461 0)
(0.191727 0.00431779 0)
(0.190524 0.00408471 0)
(0.189302 0.00387171 0)
(0.188068 0.00367558 0)
(0.186824 0.00349363 0)
(0.185573 0.0033236 0)
(0.184321 0.00316368 0)
(0.183068 0.00301236 0)
(0.181819 0.00286843 0)
(0.180576 0.00273084 0)
(0.179342 0.00259873 0)
(0.178121 0.00247134 0)
(0.176914 0.00234801 0)
(0.175726 0.00222812 0)
(0.174558 0.00211114 0)
(0.173415 0.00199655 0)
(0.172299 0.00188387 0)
(0.171214 0.00177265 0)
(0.170163 0.00166244 0)
(0.169149 0.00155279 0)
(0.168176 0.00144326 0)
(0.167249 0.00133337 0)
(0.16637 0.00122266 0)
(0.165543 0.00111071 0)
(0.164772 0.000997183 0)
(0.16406 0.000882009 0)
(0.16341 0.00076551 0)
(0.162822 0.000648623 0)
(0.162298 0.000533076 0)
(0.161835 0.000421468 0)
(0.161431 0.000317029 0)
(0.161083 0.000222923 0)
(0.160787 0.000140933 0)
(0.160536 7.04913e-05 0)
(0.160314 1.10642e-05 0)
(0.160133 -3.64472e-05 0)
(0.159997 -7.16365e-05 0)
(0.159901 -9.5603e-05 0)
(0.159839 -0.000110589 0)
(0.159806 -0.000118742 0)
(0.159797 -0.000121807 0)
(0.159807 -0.000121154 0)
(0.159833 -0.000117858 0)
(0.159871 -0.00011275 0)
(0.159918 -0.000106455 0)
(0.159972 -9.94318e-05 0)
(0.16003 -9.2009e-05 0)
(0.16009 -8.44206e-05 0)
(0.160152 -7.68313e-05 0)
(0.160214 -6.93572e-05 0)
(0.160274 -6.20816e-05 0)
(0.160332 -5.50666e-05 0)
(0.160387 -4.83596e-05 0)
(0.160438 -4.19987e-05 0)
(0.160485 -3.60147e-05 0)
(0.160528 -3.04324e-05 0)
(0.160565 -2.52716e-05 0)
(0.160598 -2.05462e-05 0)
(0.160625 -1.62646e-05 0)
(0.160648 -1.24297e-05 0)
(0.160665 -9.03787e-06 0)
(0.160678 -6.08024e-06 0)
(0.160687 -3.54264e-06 0)
(0.160691 -1.39399e-06 0)
(0.160692 4.72985e-07 0)
(0.16069 2.15114e-06 0)
(0.160684 3.64281e-06 0)
(0.160677 4.90674e-06 0)
(0.160667 5.92564e-06 0)
(0.160656 6.71356e-06 0)
(0.160643 7.30349e-06 0)
(0.160629 7.73665e-06 0)
(0.160615 8.05554e-06 0)
(0.160599 8.30114e-06 0)
(0.160584 8.51301e-06 0)
(0.160568 8.73253e-06 0)
(0.160552 9.01064e-06 0)
(0.160536 9.42593e-06 0)
(0.16052 1.01349e-05 0)
(0.160503 1.15333e-05 0)
(0.160481 1.42992e-05 0)
(0.195614 0.00742549 0)
(0.1965 0.00832424 0)
(0.197499 0.00890808 0)
(0.198481 0.00924687 0)
(0.1994 0.00939905 0)
(0.200237 0.00939244 0)
(0.200968 0.00924867 0)
(0.20157 0.00899395 0)
(0.202028 0.00865651 0)
(0.202337 0.00826342 0)
(0.202501 0.00783919 0)
(0.202527 0.00740483 0)
(0.202429 0.00697704 0)
(0.202223 0.00656787 0)
(0.201923 0.0061849 0)
(0.201544 0.00583186 0)
(0.2011 0.00550959 0)
(0.200602 0.00521683 0)
(0.200057 0.00495112 0)
(0.199475 0.00470938 0)
(0.198859 0.00448838 0)
(0.198216 0.00428503 0)
(0.197547 0.00409655 0)
(0.196857 0.00392053 0)
(0.196148 0.00375492 0)
(0.195421 0.00359802 0)
(0.194681 0.0034484 0)
(0.193927 0.00330487 0)
(0.193164 0.00316643 0)
(0.192393 0.0030322 0)
(0.191617 0.00290145 0)
(0.190837 0.0027735 0)
(0.190058 0.00264773 0)
(0.18928 0.0025236 0)
(0.188507 0.00240058 0)
(0.187741 0.00227818 0)
(0.186986 0.00215591 0)
(0.186245 0.00203332 0)
(0.18552 0.00190994 0)
(0.184815 0.00178531 0)
(0.184133 0.00165898 0)
(0.183478 0.00153052 0)
(0.182853 0.0013996 0)
(0.18226 0.00126605 0)
(0.181703 0.00113005 0)
(0.181182 0.000992253 0)
(0.1807 0.000854008 0)
(0.180257 0.000717461 0)
(0.179852 0.000585538 0)
(0.179485 0.000461644 0)
(0.179154 0.000349042 0)
(0.178859 0.000249962 0)
(0.178598 0.000165276 0)
(0.178368 9.41839e-05 0)
(0.178161 3.51442e-05 0)
(0.177974 -1.26289e-05 0)
(0.177816 -4.94936e-05 0)
(0.177686 -7.63746e-05 0)
(0.177583 -9.48896e-05 0)
(0.177502 -0.000106794 0)
(0.177443 -0.000113593 0)
(0.177402 -0.000116499 0)
(0.177376 -0.000116467 0)
(0.177365 -0.000114245 0)
(0.177365 -0.000110407 0)
(0.177375 -0.00010539 0)
(0.177392 -9.95258e-05 0)
(0.177416 -9.30647e-05 0)
(0.177445 -8.61984e-05 0)
(0.177477 -7.90774e-05 0)
(0.177512 -7.18241e-05 0)
(0.177547 -6.45417e-05 0)
(0.177583 -5.73202e-05 0)
(0.177618 -5.02404e-05 0)
(0.177651 -4.33756e-05 0)
(0.177681 -3.67919e-05 0)
(0.177709 -3.05485e-05 0)
(0.177733 -2.46966e-05 0)
(0.177753 -1.92792e-05 0)
(0.17777 -1.43287e-05 0)
(0.177782 -9.86786e-06 0)
(0.17779 -5.90873e-06 0)
(0.177793 -2.44323e-06 0)
(0.177793 6.03958e-07 0)
(0.177789 3.32573e-06 0)
(0.177782 5.71653e-06 0)
(0.177772 7.7357e-06 0)
(0.17776 9.37209e-06 0)
(0.177746 1.06488e-05 0)
(0.17773 1.16115e-05 0)
(0.177712 1.23167e-05 0)
(0.177694 1.28239e-05 0)
(0.177675 1.31914e-05 0)
(0.177656 1.34759e-05 0)
(0.177636 1.37353e-05 0)
(0.177617 1.40371e-05 0)
(0.177597 1.44772e-05 0)
(0.177577 1.52248e-05 0)
(0.177557 1.66216e-05 0)
(0.177532 1.91017e-05 0)
(0.196138 0.00705108 0)
(0.196886 0.00785266 0)
(0.197755 0.00840985 0)
(0.198644 0.00875592 0)
(0.199509 0.00893262 0)
(0.200326 0.00896484 0)
(0.201077 0.00887192 0)
(0.201742 0.00867614 0)
(0.202307 0.00840185 0)
(0.202766 0.0080727 0)
(0.203119 0.00771025 0)
(0.203369 0.00733322 0)
(0.203525 0.0069568 0)
(0.203596 0.00659234 0)
(0.203594 0.00624741 0)
(0.203529 0.00592627 0)
(0.203411 0.00563049 0)
(0.203248 0.00535973 0)
(0.203048 0.00511239 0)
(0.202816 0.00488615 0)
(0.202556 0.0046784 0)
(0.202271 0.00448653 0)
(0.201965 0.00430812 0)
(0.201638 0.00414099 0)
(0.201293 0.00398324 0)
(0.20093 0.00383325 0)
(0.200552 0.00368965 0)
(0.200159 0.00355126 0)
(0.199753 0.00341708 0)
(0.199334 0.00328623 0)
(0.198905 0.00315794 0)
(0.198467 0.00303152 0)
(0.198021 0.00290633 0)
(0.197568 0.00278179 0)
(0.197112 0.00265735 0)
(0.196653 0.00253248 0)
(0.196193 0.00240668 0)
(0.195735 0.00227945 0)
(0.19528 0.00215033 0)
(0.194831 0.00201885 0)
(0.194391 0.00188457 0)
(0.19396 0.00174711 0)
(0.193542 0.00160625 0)
(0.193138 0.00146196 0)
(0.19275 0.00131463 0)
(0.192378 0.00116514 0)
(0.192024 0.00101509 0)
(0.191688 0.000866833 0)
(0.19137 0.000723385 0)
(0.191069 0.000588122 0)
(0.190788 0.000464197 0)
(0.190525 0.000353894 0)
(0.190284 0.000258348 0)
(0.190062 0.00017752 0)
(0.189861 0.000110467 0)
(0.189676 5.54471e-05 0)
(0.189504 1.08807e-05 0)
(0.189348 -2.42642e-05 0)
(0.18921 -5.10538e-05 0)
(0.189089 -7.06959e-05 0)
(0.188986 -8.45214e-05 0)
(0.188898 -9.37286e-05 0)
(0.188825 -9.92987e-05 0)
(0.188764 -0.000102013 0)
(0.188716 -0.000102479 0)
(0.188679 -0.000101167 0)
(0.188651 -9.84434e-05 0)
(0.188632 -9.45951e-05 0)
(0.18862 -8.98468e-05 0)
(0.188614 -8.43813e-05 0)
(0.188613 -7.83517e-05 0)
(0.188617 -7.18921e-05 0)
(0.188624 -6.5124e-05 0)
(0.188633 -5.81611e-05 0)
(0.188643 -5.11115e-05 0)
(0.188654 -4.40785e-05 0)
(0.188664 -3.71604e-05 0)
(0.188673 -3.04496e-05 0)
(0.188681 -2.40303e-05 0)
(0.188687 -1.79766e-05 0)
(0.18869 -1.23515e-05 0)
(0.18869 -7.20487e-06 0)
(0.188687 -2.5513e-06 0)
(0.188681 1.64894e-06 0)
(0.188672 5.43302e-06 0)
(0.18866 8.75378e-06 0)
(0.188646 1.15654e-05 0)
(0.188629 1.38593e-05 0)
(0.188611 1.56647e-05 0)
(0.188591 1.70363e-05 0)
(0.18857 1.80431e-05 0)
(0.188548 1.87592e-05 0)
(0.188525 1.92588e-05 0)
(0.188502 1.96144e-05 0)
(0.188479 1.98997e-05 0)
(0.188456 2.01965e-05 0)
(0.188432 2.06119e-05 0)
(0.188409 2.13117e-05 0)
(0.188386 2.25676e-05 0)
(0.188358 2.46267e-05 0)
(0.1966 0.00672737 0)
(0.197241 0.00743932 0)
(0.197996 0.00796115 0)
(0.198789 0.00830329 0)
(0.199578 0.00849306 0)
(0.200338 0.00855135 0)
(0.20105 0.00849531 0)
(0.201698 0.00834398 0)
(0.20227 0.00811831 0)
(0.20276 0.00783902 0)
(0.203166 0.00752523 0)
(0.203492 0.0071937 0)
(0.203742 0.00685832 0)
(0.203926 0.00652976 0)
(0.20405 0.00621548 0)
(0.204125 0.00592003 0)
(0.204158 0.00564557 0)
(0.204156 0.00539246 0)
(0.204126 0.00515978 0)
(0.204071 0.00494587 0)
(0.203996 0.00474868 0)
(0.203903 0.00456603 0)
(0.203794 0.00439582 0)
(0.20367 0.00423611 0)
(0.203533 0.00408515 0)
(0.203384 0.00394142 0)
(0.203222 0.0038036 0)
(0.20305 0.00367054 0)
(0.202866 0.00354123 0)
(0.202672 0.00341478 0)
(0.202469 0.00329041 0)
(0.202257 0.00316739 0)
(0.202036 0.00304507 0)
(0.201808 0.00292282 0)
(0.201573 0.00280006 0)
(0.201332 0.00267625 0)
(0.201086 0.00255085 0)
(0.200837 0.00242336 0)
(0.200585 0.00229327 0)
(0.200331 0.00216015 0)
(0.200077 0.00202356 0)
(0.199823 0.0018832 0)
(0.19957 0.0017389 0)
(0.19932 0.00159077 0)
(0.199072 0.00143932 0)
(0.198827 0.00128557 0)
(0.198585 0.0011312 0)
(0.198346 0.000978604 0)
(0.19811 0.000830709 0)
(0.197877 0.000690721 0)
(0.19765 0.000561608 0)
(0.19743 0.000445583 0)
(0.197219 0.000343842 0)
(0.197018 0.000256588 0)
(0.196829 0.000183218 0)
(0.196651 0.000122578 0)
(0.196486 7.30751e-05 0)
(0.19633 3.29913e-05 0)
(0.196184 9.61211e-07 0)
(0.196048 -2.41363e-05 0)
(0.195925 -4.33642e-05 0)
(0.195813 -5.77014e-05 0)
(0.195712 -6.80547e-05 0)
(0.195621 -7.51912e-05 0)
(0.195541 -7.97179e-05 0)
(0.195469 -8.21106e-05 0)
(0.195407 -8.27412e-05 0)
(0.195353 -8.18996e-05 0)
(0.195306 -7.98146e-05 0)
(0.195266 -7.66733e-05 0)
(0.195231 -7.26339e-05 0)
(0.195203 -6.78368e-05 0)
(0.195178 -6.24116e-05 0)
(0.195158 -5.64826e-05 0)
(0.195141 -5.01721e-05 0)
(0.195126 -4.3601e-05 0)
(0.195113 -3.68893e-05 0)
(0.195102 -3.01551e-05 0)
(0.19509 -2.35123e-05 0)
(0.195079 -1.70663e-05 0)
(0.195067 -1.09157e-05 0)
(0.195054 -5.13703e-06 0)
(0.19504 2.55275e-07 0)
(0.195023 5.25252e-06 0)
(0.195005 9.79331e-06 0)
(0.194986 1.37893e-05 0)
(0.194964 1.71865e-05 0)
(0.194942 1.99732e-05 0)
(0.194918 2.21778e-05 0)
(0.194893 2.38576e-05 0)
(0.194868 2.50872e-05 0)
(0.194842 2.5949e-05 0)
(0.194816 2.65274e-05 0)
(0.194789 2.69064e-05 0)
(0.194763 2.71704e-05 0)
(0.194736 2.74112e-05 0)
(0.19471 2.77398e-05 0)
(0.194684 2.83075e-05 0)
(0.194659 2.93155e-05 0)
(0.194628 3.08664e-05 0)
(0.197008 0.00644183 0)
(0.197566 0.00707349 0)
(0.198226 0.00755626 0)
(0.198932 0.00788784 0)
(0.199647 0.00808423 0)
(0.200344 0.00816166 0)
(0.201005 0.0081348 0)
(0.201616 0.00801975 0)
(0.202165 0.00783441 0)
(0.202647 0.00759683 0)
(0.203058 0.00732395 0)
(0.203403 0.00703085 0)
(0.203683 0.00673022 0)
(0.203907 0.00643207 0)
(0.204081 0.00614369 0)
(0.204213 0.00586982 0)
(0.20431 0.00561306 0)
(0.204379 0.00537434 0)
(0.204424 0.00515335 0)
(0.20445 0.004949 0)
(0.20446 0.00475976 0)
(0.204457 0.00458385 0)
(0.204444 0.00441951 0)
(0.20442 0.00426504 0)
(0.204388 0.00411886 0)
(0.204347 0.00397957 0)
(0.204299 0.00384592 0)
(0.204243 0.00371681 0)
(0.204181 0.00359124 0)
(0.204111 0.00346835 0)
(0.204035 0.00334733 0)
(0.203952 0.00322746 0)
(0.203862 0.00310806 0)
(0.203767 0.0029885 0)
(0.203665 0.00286818 0)
(0.203558 0.00274654 0)
(0.203446 0.00262302 0)
(0.203328 0.00249713 0)
(0.203206 0.00236836 0)
(0.203078 0.00223628 0)
(0.202947 0.00210049 0)
(0.202811 0.00196075 0)
(0.202671 0.00181694 0)
(0.202526 0.00166927 0)
(0.202376 0.00151829 0)
(0.202221 0.0013651 0)
(0.20206 0.00121136 0)
(0.201894 0.00105935 0)
(0.201721 0.000911818 0)
(0.201544 0.000771723 0)
(0.201363 0.000641789 0)
(0.20118 0.000524098 0)
(0.200999 0.000419855 0)
(0.200821 0.00032938 0)
(0.200647 0.000252272 0)
(0.20048 0.000187607 0)
(0.200321 0.000134099 0)
(0.200169 9.03163e-05 0)
(0.200026 5.47803e-05 0)
(0.199889 2.61049e-05 0)
(0.199759 3.1949e-06 0)
(0.199637 -1.48768e-05 0)
(0.199523 -2.89179e-05 0)
(0.199417 -3.96e-05 0)
(0.199318 -4.7489e-05 0)
(0.199227 -5.30479e-05 0)
(0.199143 -5.66453e-05 0)
(0.199066 -5.85697e-05 0)
(0.198995 -5.90468e-05 0)
(0.19893 -5.82592e-05 0)
(0.198871 -5.636e-05 0)
(0.198817 -5.34845e-05 0)
(0.198767 -4.97584e-05 0)
(0.198723 -4.53039e-05 0)
(0.198681 -4.02434e-05 0)
(0.198644 -3.47015e-05 0)
(0.198609 -2.88046e-05 0)
(0.198577 -2.26816e-05 0)
(0.198546 -1.64633e-05 0)
(0.198517 -1.02764e-05 0)
(0.198489 -4.22489e-06 0)
(0.198461 1.6223e-06 0)
(0.198433 7.22209e-06 0)
(0.198406 1.24903e-05 0)
(0.198377 1.72956e-05 0)
(0.198349 2.15371e-05 0)
(0.19832 2.51539e-05 0)
(0.198291 2.81274e-05 0)
(0.198262 3.0479e-05 0)
(0.198232 3.22616e-05 0)
(0.198203 3.3548e-05 0)
(0.198173 3.44216e-05 0)
(0.198143 3.49702e-05 0)
(0.198114 3.52824e-05 0)
(0.198084 3.54478e-05 0)
(0.198055 3.55615e-05 0)
(0.198027 3.57319e-05 0)
(0.197999 3.60894e-05 0)
(0.197972 3.67719e-05 0)
(0.197939 3.77683e-05 0)
(0.197371 0.00618564 0)
(0.197863 0.00674683 0)
(0.198443 0.00719024 0)
(0.199073 0.00750722 0)
(0.19972 0.0077056 0)
(0.200357 0.00779706 0)
(0.200968 0.0077937 0)
(0.201539 0.00770902 0)
(0.202058 0.00755816 0)
(0.20252 0.00735676 0)
(0.202922 0.00711975 0)
(0.203265 0.00686063 0)
(0.203553 0.00659095 0)
(0.203791 0.00632005 0)
(0.203984 0.00605496 0)
(0.204139 0.00580052 0)
(0.204264 0.00555963 0)
(0.204362 0.00533369 0)
(0.20444 0.00512291 0)
(0.204501 0.0049267 0)
(0.204549 0.00474398 0)
(0.204586 0.00457339 0)
(0.204614 0.00441347 0)
(0.204636 0.00426276 0)
(0.204651 0.0041199 0)
(0.20466 0.0039836 0)
(0.204665 0.00385273 0)
(0.204665 0.00372623 0)
(0.20466 0.00360317 0)
(0.204651 0.0034827 0)
(0.204638 0.00336405 0)
(0.20462 0.00324648 0)
(0.204598 0.00312935 0)
(0.204572 0.00301202 0)
(0.204541 0.00289388 0)
(0.204505 0.00277439 0)
(0.204465 0.00265301 0)
(0.204421 0.00252922 0)
(0.204371 0.00240255 0)
(0.204315 0.0022726 0)
(0.204254 0.00213902 0)
(0.204187 0.00200158 0)
(0.204113 0.00186026 0)
(0.204032 0.00171529 0)
(0.203942 0.00156729 0)
(0.203843 0.00141731 0)
(0.203734 0.00126695 0)
(0.203615 0.00111833 0)
(0.203485 0.000973969 0)
(0.203346 0.000836516 0)
(0.203198 0.000708443 0)
(0.203045 0.000591669 0)
(0.202887 0.000487363 0)
(0.202728 0.000395925 0)
(0.20257 0.000317097 0)
(0.202414 0.000250129 0)
(0.202262 0.000193937 0)
(0.202115 0.000147262 0)
(0.201974 0.000108808 0)
(0.201838 7.73401e-05 0)
(0.201708 5.17173e-05 0)
(0.201584 3.09233e-05 0)
(0.201465 1.41488e-05 0)
(0.201352 7.53672e-07 0)
(0.201245 -9.80289e-06 0)
(0.201143 -1.7958e-05 0)
(0.201047 -2.40523e-05 0)
(0.200957 -2.83579e-05 0)
(0.200872 -3.10952e-05 0)
(0.200792 -3.24427e-05 0)
(0.200716 -3.25494e-05 0)
(0.200646 -3.15454e-05 0)
(0.20058 -2.95508e-05 0)
(0.200518 -2.66826e-05 0)
(0.20046 -2.30592e-05 0)
(0.200405 -1.88033e-05 0)
(0.200354 -1.40433e-05 0)
(0.200306 -8.90824e-06 0)
(0.20026 -3.52435e-06 0)
(0.200217 1.98548e-06 0)
(0.200176 7.51786e-06 0)
(0.200135 1.29904e-05 0)
(0.200097 1.83039e-05 0)
(0.200059 2.33259e-05 0)
(0.200022 2.79207e-05 0)
(0.199986 3.19851e-05 0)
(0.199951 3.54512e-05 0)
(0.199916 3.82914e-05 0)
(0.199882 4.05182e-05 0)
(0.199848 4.21758e-05 0)
(0.199815 4.33304e-05 0)
(0.199782 4.4061e-05 0)
(0.19975 4.44529e-05 0)
(0.199718 4.45939e-05 0)
(0.199687 4.45733e-05 0)
(0.199656 4.4484e-05 0)
(0.199626 4.44265e-05 0)
(0.199596 4.4508e-05 0)
(0.199568 4.4813e-05 0)
(0.199533 4.52453e-05 0)
(0.197694 0.00595276 0)
(0.198133 0.00645269 0)
(0.198648 0.00685827 0)
(0.199211 0.00715829 0)
(0.199796 0.00735507 0)
(0.200379 0.00745641 0)
(0.200942 0.0074719 0)
(0.201473 0.00741273 0)
(0.201962 0.00729164 0)
(0.202401 0.00712204 0)
(0.202789 0.006917 0)
(0.203126 0.00668852 0)
(0.203413 0.00644708 0)
(0.203654 0.00620133 0)
(0.203855 0.00595795 0)
(0.204022 0.00572178 0)
(0.204159 0.00549594 0)
(0.204272 0.00528217 0)
(0.204365 0.0050811 0)
(0.204443 0.00489257 0)
(0.204508 0.00471592 0)
(0.204563 0.00455015 0)
(0.20461 0.00439409 0)
(0.204651 0.00424653 0)
(0.204686 0.00410631 0)
(0.204718 0.00397229 0)
(0.204745 0.00384343 0)
(0.204769 0.00371878 0)
(0.20479 0.00359746 0)
(0.204808 0.00347867 0)
(0.204822 0.00336166 0)
(0.204834 0.00324574 0)
(0.204843 0.00313028 0)
(0.204849 0.00301465 0)
(0.204851 0.00289829 0)
(0.20485 0.00278065 0)
(0.204845 0.00266122 0)
(0.204835 0.00253952 0)
(0.204821 0.0024151 0)
(0.204802 0.00228759 0)
(0.204777 0.00215669 0)
(0.204745 0.00202223 0)
(0.204706 0.00188422 0)
(0.204658 0.00174295 0)
(0.204601 0.00159902 0)
(0.204533 0.00145346 0)
(0.204453 0.00130777 0)
(0.204362 0.00116387 0)
(0.204258 0.00102401 0)
(0.204143 0.000890588 0)
(0.204017 0.000765788 0)
(0.203883 0.000651361 0)
(0.203743 0.000548416 0)
(0.203599 0.000457396 0)
(0.203453 0.000378153 0)
(0.203307 0.000310087 0)
(0.203163 0.000252274 0)
(0.203021 0.000203616 0)
(0.202883 0.000162956 0)
(0.202749 0.000129161 0)
(0.20262 0.000101178 0)
(0.202495 7.80819e-05 0)
(0.202376 5.90793e-05 0)
(0.20226 4.34921e-05 0)
(0.20215 3.07698e-05 0)
(0.202044 2.04809e-05 0)
(0.201942 1.22952e-05 0)
(0.201845 5.95227e-06 0)
(0.201752 1.24028e-06 0)
(0.201664 -2.01257e-06 0)
(0.20158 -3.94891e-06 0)
(0.2015 -4.69289e-06 0)
(0.201424 -4.3589e-06 0)
(0.201352 -3.05827e-06 0)
(0.201284 -9.04143e-07 0)
(0.201219 1.98546e-06 0)
(0.201157 5.4863e-06 0)
(0.201099 9.4725e-06 0)
(0.201043 1.38236e-05 0)
(0.20099 1.84239e-05 0)
(0.20094 2.31574e-05 0)
(0.200891 2.79083e-05 0)
(0.200845 3.25561e-05 0)
(0.2008 3.69698e-05 0)
(0.200758 4.10194e-05 0)
(0.200716 4.45985e-05 0)
(0.200676 4.76343e-05 0)
(0.200638 5.00922e-05 0)
(0.2006 5.1976e-05 0)
(0.200564 5.33209e-05 0)
(0.200528 5.41845e-05 0)
(0.200493 5.46386e-05 0)
(0.200459 5.4763e-05 0)
(0.200425 5.46407e-05 0)
(0.200392 5.43569e-05 0)
(0.20036 5.39987e-05 0)
(0.200329 5.36555e-05 0)
(0.200298 5.34116e-05 0)
(0.200269 5.33096e-05 0)
(0.200234 5.3197e-05 0)
(0.197985 0.00573888 0)
(0.198379 0.00618569 0)
(0.198839 0.00655591 0)
(0.199345 0.00683785 0)
(0.199874 0.00703039 0)
(0.200407 0.00713821 0)
(0.200926 0.00716864 0)
(0.20142 0.00713083 0)
(0.201878 0.00703541 0)
(0.202295 0.00689378 0)
(0.202668 0.0067173 0)
(0.202995 0.0065166 0)
(0.203277 0.0063011 0)
(0.203519 0.00607874 0)
(0.203724 0.00585586 0)
(0.203897 0.00563718 0)
(0.204041 0.00542593 0)
(0.204163 0.00522411 0)
(0.204265 0.00503268 0)
(0.204352 0.00485186 0)
(0.204426 0.00468132 0)
(0.204491 0.00452038 0)
(0.204547 0.00436817 0)
(0.204598 0.0042237 0)
(0.204643 0.004086 0)
(0.204684 0.00395407 0)
(0.204721 0.00382701 0)
(0.204755 0.00370394 0)
(0.204787 0.00358406 0)
(0.204816 0.00346662 0)
(0.204842 0.00335092 0)
(0.204867 0.00323632 0)
(0.204888 0.0031222 0)
(0.204907 0.00300798 0)
(0.204924 0.00289313 0)
(0.204937 0.00277712 0)
(0.204947 0.00265947 0)
(0.204953 0.00253974 0)
(0.204954 0.00241753 0)
(0.204951 0.0022925 0)
(0.204942 0.0021644 0)
(0.204926 0.0020331 0)
(0.204903 0.00189868 0)
(0.204871 0.00176143 0)
(0.204829 0.00162195 0)
(0.204777 0.00148122 0)
(0.204712 0.00134062 0)
(0.204636 0.00120189 0)
(0.204547 0.00106705 0)
(0.204446 0.000938188 0)
(0.204335 0.000817271 0)
(0.204214 0.000705869 0)
(0.204086 0.000605018 0)
(0.203952 0.000515179 0)
(0.203816 0.000436289 0)
(0.203678 0.000367868 0)
(0.20354 0.000309136 0)
(0.203404 0.000259133 0)
(0.203269 0.000216827 0)
(0.203138 0.00018119 0)
(0.203011 0.000151256 0)
(0.202887 0.000126159 0)
(0.202767 0.000105139 0)
(0.202651 8.75549e-05 0)
(0.202539 7.28841e-05 0)
(0.202432 6.07045e-05 0)
(0.202328 5.0675e-05 0)
(0.202228 4.25255e-05 0)
(0.202132 3.60452e-05 0)
(0.20204 3.10659e-05 0)
(0.201952 2.74495e-05 0)
(0.201867 2.50762e-05 0)
(0.201786 2.38361e-05 0)
(0.201709 2.36229e-05 0)
(0.201635 2.43283e-05 0)
(0.201565 2.58402e-05 0)