/*--------------------------------*- C++ -*----------------------------------*\
| =========                 |                                                 |
| \\      /  F ield         | OpenFOAM: The Open Source CFD Toolbox           |
|  \\    /   O peration     | Version:  2.3.0                                 |
|   \\  /    A nd           | Web:      www.OpenFOAM.org                      |
|    \\/     M anipulation  |                                                 |
\*---------------------------------------------------------------------------*/
FoamFile
{
    version     2.0;
    format      ascii;
    class       volVectorField;
    location    "0.8";
    object      U;
}
// * * * * * * * * * * * * * * * * * * * * * * * * * * * * * * * * * * * * * //

dimensions      [0 1 -1 0 0 0 0];

internalField   nonuniform List<vector> 
1500
(
(0.170766 0.00605151 0)
(0.154005 0.00612539 0)
(0.137878 0.0057033 0)
(0.122589 0.00509463 0)
(0.108558 0.00441774 0)
(0.0959656 0.00372762 0)
(0.0848319 0.00306308 0)
(0.0751287 0.00245161 0)
(0.0668015 0.00191046 0)
(0.0597633 0.00144881 0)
(0.0538949 0.00106916 0)
(0.0490554 0.000768222 0)
(0.0450946 0.000538231 0)
(0.0418642 0.000368738 0)
(0.0392258 0.000248344 0)
(0.037057 0.000166061 0)
(0.035254 0.000112148 0)
(0.0337327 7.84875e-05 0)
(0.0324267 5.865e-05 0)
(0.0312857 4.77737e-05 0)
(0.0302724 4.23517e-05 0)
(0.0293596 3.99817e-05 0)
(0.0285279 3.91119e-05 0)
(0.0277632 3.88096e-05 0)
(0.0270555 3.85658e-05 0)
(0.0263974 3.81438e-05 0)
(0.0257831 3.74681e-05 0)
(0.0252082 3.65499e-05 0)
(0.0246688 3.54391e-05 0)
(0.0241617 3.41967e-05 0)
(0.0236841 3.28805e-05 0)
(0.0232333 3.15382e-05 0)
(0.0228071 3.02061e-05 0)
(0.0224034 2.89095e-05 0)
(0.0220201 2.76648e-05 0)
(0.0216555 2.64812e-05 0)
(0.0213081 2.5363e-05 0)
(0.0209765 2.4311e-05 0)
(0.0206593 2.33236e-05 0)
(0.0203554 2.23977e-05 0)
(0.0200639 2.15296e-05 0)
(0.0197836 2.07151e-05 0)
(0.0195139 1.995e-05 0)
(0.019254 1.92304e-05 0)
(0.0190032 1.85524e-05 0)
(0.0187609 1.79124e-05 0)
(0.0185266 1.73072e-05 0)
(0.0182998 1.6734e-05 0)
(0.01808 1.61901e-05 0)
(0.0178668 1.56731e-05 0)
(0.0176599 1.5181e-05 0)
(0.017459 1.47118e-05 0)
(0.0172636 1.42639e-05 0)
(0.0170736 1.38356e-05 0)
(0.0168886 1.34258e-05 0)
(0.0167085 1.3033e-05 0)
(0.0165329 1.26562e-05 0)
(0.0163618 1.22944e-05 0)
(0.0161949 1.19466e-05 0)
(0.016032 1.16119e-05 0)
(0.015873 1.12897e-05 0)
(0.0157177 1.09792e-05 0)
(0.015566 1.06797e-05 0)
(0.0154177 1.03905e-05 0)
(0.0152728 1.01113e-05 0)
(0.015131 9.8413e-06 0)
(0.0149923 9.58018e-06 0)
(0.0148567 9.32744e-06 0)
(0.0147239 9.08267e-06 0)
(0.0145939 8.84547e-06 0)
(0.0144666 8.6155e-06 0)
(0.014342 8.39241e-06 0)
(0.01422 8.17591e-06 0)
(0.0141005 7.9657e-06 0)
(0.0139834 7.76155e-06 0)
(0.0138686 7.56321e-06 0)
(0.0137562 7.37047e-06 0)
(0.013646 7.18315e-06 0)
(0.0135381 7.00109e-06 0)
(0.0134323 6.82418e-06 0)
(0.0133286 6.65234e-06 0)
(0.013227 6.48551e-06 0)
(0.0131274 6.32367e-06 0)
(0.0130298 6.16682e-06 0)
(0.012934 6.01505e-06 0)
(0.0128402 5.86847e-06 0)
(0.0127482 5.7273e-06 0)
(0.012658 5.59179e-06 0)
(0.0125695 5.46228e-06 0)
(0.0124827 5.33933e-06 0)
(0.0123975 5.22362e-06 0)
(0.0123138 5.11624e-06 0)
(0.0122316 5.01905e-06 0)
(0.0121506 4.93501e-06 0)
(0.0120709 4.87015e-06 0)
(0.011992 4.8383e-06 0)
(0.0119134 4.87528e-06 0)
(0.011834 4.95391e-06 0)
(0.0117627 5.29956e-06 0)
(0.0115471 2.93971e-05 0)
(0.189995 0.00961357 0)
(0.187731 0.0101611 0)
(0.183892 0.00996895 0)
(0.178811 0.00949016 0)
(0.172971 0.00886319 0)
(0.16671 0.00813563 0)
(0.160248 0.00734733 0)
(0.153749 0.00653553 0)
(0.147351 0.0057321 0)
(0.141154 0.00496368 0)
(0.13523 0.0042515 0)
(0.129623 0.00361052 0)
(0.124354 0.003049 0)
(0.119432 0.00256887 0)
(0.114852 0.00216687 0)
(0.110603 0.00183597 0)
(0.106667 0.00156701 0)
(0.103024 0.00134999 0)
(0.0996522 0.00117525 0)
(0.0965305 0.00103405 0)
(0.0936374 0.000919021 0)
(0.0909529 0.000824184 0)
(0.0884582 0.000744889 0)
(0.0861359 0.000677611 0)
(0.0839703 0.00061974 0)
(0.0819471 0.00056936 0)
(0.0800533 0.00052507 0)
(0.0782771 0.000485836 0)
(0.0766081 0.000450883 0)
(0.0750367 0.000419609 0)
(0.0735544 0.000391535 0)
(0.0721534 0.000366268 0)
(0.0708267 0.000343475 0)
(0.0695682 0.000322869 0)
(0.0683722 0.000304197 0)
(0.0672334 0.00028724 0)
(0.0661475 0.0002718 0)
(0.0651101 0.000257707 0)
(0.0641176 0.000244806 0)
(0.0631665 0.000232964 0)
(0.0622539 0.000222063 0)
(0.0613769 0.000212 0)
(0.0605332 0.000202683 0)
(0.0597203 0.000194034 0)
(0.0589364 0.000185984 0)
(0.0581794 0.000178473 0)
(0.0574477 0.000171447 0)
(0.0567399 0.00016486 0)
(0.0560543 0.000158673 0)
(0.0553899 0.000152848 0)
(0.0547453 0.000147354 0)
(0.0541196 0.000142164 0)
(0.0535117 0.000137252 0)
(0.0529206 0.000132596 0)
(0.0523456 0.000128176 0)
(0.0517859 0.000123974 0)
(0.0512407 0.000119974 0)
(0.0507094 0.000116162 0)
(0.0501914 0.000112524 0)
(0.049686 0.000109048 0)
(0.0491928 0.000105723 0)
(0.0487112 0.000102539 0)
(0.0482408 9.94873e-05 0)
(0.0477811 9.65585e-05 0)
(0.0473319 9.37453e-05 0)
(0.0468925 9.10403e-05 0)
(0.0464628 8.8437e-05 0)
(0.0460425 8.59292e-05 0)
(0.0456311 8.35113e-05 0)
(0.0452284 8.1178e-05 0)
(0.0448341 7.89245e-05 0)
(0.0444481 7.67462e-05 0)
(0.04407 7.4639e-05 0)
(0.0436996 7.2599e-05 0)
(0.0433368 7.06227e-05 0)
(0.0429813 6.87067e-05 0)
(0.042633 6.68481e-05 0)
(0.0422916 6.50442e-05 0)
(0.0419571 6.32924e-05 0)
(0.0416293 6.15906e-05 0)
(0.0413081 5.9937e-05 0)
(0.0409932 5.83298e-05 0)
(0.0406847 5.67679e-05 0)
(0.0403823 5.52502e-05 0)
(0.0400859 5.37762e-05 0)
(0.0397954 5.23456e-05 0)
(0.0395108 5.09589e-05 0)
(0.0392318 4.96168e-05 0)
(0.0389583 4.83208e-05 0)
(0.0386903 4.70735e-05 0)
(0.0384275 4.58786e-05 0)
(0.0381698 4.4742e-05 0)
(0.0379169 4.36735e-05 0)
(0.0376686 4.26906e-05 0)
(0.0374246 4.18277e-05 0)
(0.0371842 4.11644e-05 0)
(0.0369464 4.08974e-05 0)
(0.0367085 4.15187e-05 0)
(0.0364801 4.77902e-05 0)
(0.0360384 0.000106413 0)
(0.193005 0.0091694 0)
(0.193751 0.0101555 0)
(0.193942 0.0105418 0)
(0.193409 0.0105999 0)
(0.192238 0.0104228 0)
(0.190529 0.0100459 0)
(0.188358 0.00951268 0)
(0.185801 0.0088731 0)
(0.182939 0.00817418 0)
(0.179855 0.00745655 0)
(0.176623 0.00675332 0)
(0.173303 0.00608917 0)
(0.169949 0.00547997 0)
(0.1666 0.00493354 0)
(0.163288 0.00445121 0)
(0.160035 0.00402966 0)
(0.156856 0.00366283 0)
(0.153761 0.00334351 0)
(0.150755 0.00306441 0)
(0.147843 0.00281891 0)
(0.145024 0.00260135 0)
(0.142299 0.0024071 0)
(0.139667 0.00223249 0)
(0.137126 0.00207466 0)
(0.134674 0.00193136 0)
(0.132309 0.00180083 0)
(0.130028 0.00168167 0)
(0.12783 0.00157272 0)
(0.125711 0.001473 0)
(0.123668 0.00138167 0)
(0.121699 0.00129796 0)
(0.119801 0.0012212 0)
(0.11797 0.00115076 0)
(0.116205 0.00108608 0)
(0.114501 0.00102663 0)
(0.112857 0.00097193 0)
(0.11127 0.000921546 0)
(0.109736 0.000875074 0)
(0.108254 0.000832148 0)
(0.106821 0.000792437 0)
(0.105433 0.000755641 0)
(0.10409 0.000721489 0)
(0.102789 0.000689735 0)
(0.101528 0.00066016 0)
(0.100304 0.000632567 0)
(0.0991168 0.000606776 0)
(0.0979635 0.000582629 0)
(0.0968428 0.000559982 0)
(0.0957531 0.000538706 0)
(0.0946929 0.000518685 0)
(0.0936609 0.000499815 0)
(0.0926558 0.000482001 0)
(0.0916764 0.00046516 0)
(0.0907214 0.000449213 0)
(0.0897899 0.000434093 0)
(0.0888809 0.000419736 0)
(0.0879934 0.000406085 0)
(0.0871266 0.000393089 0)
(0.0862795 0.000380701 0)
(0.0854516 0.000368877 0)
(0.0846419 0.000357579 0)
(0.0838499 0.00034677 0)
(0.0830749 0.000336418 0)
(0.0823164 0.000326493 0)
(0.0815737 0.000316967 0)
(0.0808463 0.000307814 0)
(0.0801338 0.000299012 0)
(0.0794356 0.000290537 0)
(0.0787514 0.000282371 0)
(0.0780807 0.000274495 0)
(0.0774232 0.00026689 0)
(0.0767785 0.000259543 0)
(0.0761462 0.000252436 0)
(0.0755261 0.000245558 0)
(0.0749178 0.000238895 0)
(0.0743212 0.000232435 0)
(0.0737358 0.000226167 0)
(0.0731615 0.000220082 0)
(0.0725981 0.000214171 0)
(0.0720454 0.000208424 0)
(0.071503 0.000202836 0)
(0.070971 0.000197399 0)
(0.070449 0.000192107 0)
(0.069937 0.000186958 0)
(0.0694347 0.000181946 0)
(0.068942 0.00017707 0)
(0.0684587 0.00017233 0)
(0.0679848 0.000167725 0)
(0.0675199 0.00016326 0)
(0.0670641 0.000158938 0)
(0.0666169 0.000154769 0)
(0.0661783 0.000150767 0)
(0.065748 0.000146956 0)
(0.0653257 0.000143381 0)
(0.0649109 0.000140126 0)
(0.0645029 0.000137389 0)
(0.0641004 0.000135669 0)
(0.0637008 0.000136677 0)
(0.0633085 0.000151634 0)
(0.0627203 0.000225258 0)
(0.194132 0.00849626 0)
(0.195127 0.00954934 0)
(0.19608 0.0101464 0)
(0.196786 0.0104382 0)
(0.197207 0.010499 0)
(0.197345 0.0103588 0)
(0.197187 0.0100507 0)
(0.196732 0.0096152 0)
(0.195994 0.00909348 0)
(0.195 0.00852285 0)
(0.193787 0.00793556 0)
(0.192391 0.00735753 0)
(0.190849 0.00680758 0)
(0.189196 0.00629751 0)
(0.187461 0.00583301 0)
(0.185669 0.00541507 0)
(0.18384 0.00504147 0)
(0.181989 0.00470811 0)
(0.180127 0.00441011 0)
(0.178264 0.00414248 0)
(0.176404 0.00390067 0)
(0.174552 0.00368068 0)
(0.172713 0.00347922 0)
(0.170888 0.00329365 0)
(0.16908 0.00312184 0)
(0.16729 0.00296217 0)
(0.165521 0.00281332 0)
(0.163773 0.00267427 0)
(0.162047 0.00254418 0)
(0.160345 0.00242234 0)
(0.158668 0.00230815 0)
(0.157015 0.00220106 0)
(0.155387 0.00210059 0)
(0.153785 0.00200629 0)
(0.152209 0.00191775 0)
(0.15066 0.00183456 0)
(0.149136 0.00175638 0)
(0.147638 0.00168284 0)
(0.146166 0.00161364 0)
(0.144719 0.00154848 0)
(0.143298 0.00148707 0)
(0.141902 0.00142915 0)
(0.140531 0.00137449 0)
(0.139184 0.00132285 0)
(0.137861 0.00127403 0)
(0.136561 0.00122783 0)
(0.135285 0.00118408 0)
(0.134031 0.0011426 0)
(0.1328 0.00110324 0)
(0.13159 0.00106587 0)
(0.130402 0.00103034 0)
(0.129234 0.000996539 0)
(0.128087 0.000964349 0)
(0.12696 0.000933666 0)
(0.125852 0.000904392 0)
(0.124763 0.000876437 0)
(0.123693 0.000849718 0)
(0.122641 0.000824157 0)
(0.121606 0.00079968 0)
(0.120589 0.000776223 0)
(0.119589 0.000753722 0)
(0.118606 0.000732119 0)
(0.117639 0.00071136 0)
(0.116687 0.000691395 0)
(0.115752 0.000672178 0)
(0.114831 0.000653664 0)
(0.113925 0.000635813 0)
(0.113034 0.000618587 0)
(0.112157 0.000601949 0)
(0.111295 0.000585867 0)
(0.110446 0.00057031 0)
(0.10961 0.000555247 0)
(0.108788 0.000540652 0)
(0.107979 0.000526498 0)
(0.107183 0.000512763 0)
(0.106399 0.000499423 0)
(0.105628 0.000486458 0)
(0.104869 0.000473848 0)
(0.104123 0.000461575 0)
(0.103388 0.000449624 0)
(0.102665 0.000437979 0)
(0.101954 0.000426627 0)
(0.101255 0.000415557 0)
(0.100567 0.000404759 0)
(0.0998911 0.000394225 0)
(0.099226 0.000383951 0)
(0.0985722 0.000373932 0)
(0.0979295 0.000364169 0)
(0.0972977 0.000354666 0)
(0.0966768 0.000345429 0)
(0.0960666 0.000336474 0)
(0.095467 0.000327824 0)
(0.0948777 0.000319519 0)
(0.0942985 0.000311633 0)
(0.0937289 0.000304311 0)
(0.0931683 0.000297879 0)
(0.0926156 0.000293182 0)
(0.0920688 0.000293105 0)
(0.0915317 0.000310779 0)
(0.0908326 0.000377728 0)
(0.195007 0.00797701 0)
(0.195806 0.00893414 0)
(0.1967 0.00954882 0)
(0.19754 0.00990209 0)
(0.198276 0.0100547 0)
(0.198891 0.0100352 0)
(0.199362 0.0098672 0)
(0.199667 0.00958002 0)
(0.199794 0.00920491 0)
(0.199745 0.00877181 0)
(0.199528 0.00830779 0)
(0.19916 0.00783584 0)
(0.19866 0.00737392 0)
(0.198048 0.00693458 0)
(0.197344 0.00652535 0)
(0.196567 0.00614953 0)
(0.195731 0.0058073 0)
(0.194849 0.0054968 0)
(0.19393 0.00521501 0)
(0.192982 0.00495848 0)
(0.19201 0.00472379 0)
(0.191018 0.00450785 0)
(0.190009 0.00430801 0)
(0.188986 0.0041221 0)
(0.187951 0.00394836 0)
(0.186905 0.00378541 0)
(0.185849 0.00363215 0)
(0.184786 0.00348772 0)
(0.183715 0.00335141 0)
(0.182639 0.00322261 0)
(0.181558 0.00310082 0)
(0.180474 0.00298556 0)
(0.179386 0.00287643 0)
(0.178297 0.00277304 0)
(0.177206 0.00267502 0)
(0.176115 0.00258203 0)
(0.175024 0.00249375 0)
(0.173934 0.00240989 0)
(0.172845 0.00233015 0)
(0.171759 0.00225427 0)
(0.170675 0.002182 0)
(0.169593 0.00211311 0)
(0.168516 0.00204739 0)
(0.167442 0.00198464 0)
(0.166372 0.00192466 0)
(0.165307 0.00186729 0)
(0.164246 0.00181237 0)
(0.163191 0.00175976 0)
(0.162141 0.0017093 0)
(0.161097 0.00166089 0)
(0.160059 0.0016144 0)
(0.159027 0.00156972 0)
(0.158001 0.00152675 0)
(0.156982 0.0014854 0)
(0.15597 0.00144558 0)
(0.154965 0.0014072 0)
(0.153967 0.0013702 0)
(0.152977 0.00133449 0)
(0.151994 0.00130001 0)
(0.151018 0.0012667 0)
(0.15005 0.0012345 0)
(0.14909 0.00120335 0)
(0.148138 0.0011732 0)
(0.147194 0.001144 0)
(0.146258 0.0011157 0)
(0.14533 0.00108826 0)
(0.14441 0.00106164 0)
(0.143498 0.00103579 0)
(0.142595 0.00101068 0)
(0.141701 0.000986273 0)
(0.140815 0.000962533 0)
(0.139937 0.000939429 0)
(0.139068 0.00091693 0)
(0.138208 0.000895005 0)
(0.137356 0.000873628 0)
(0.136514 0.000852772 0)
(0.13568 0.000832412 0)
(0.134855 0.000812524 0)
(0.134039 0.000793088 0)
(0.133232 0.000774084 0)
(0.132434 0.000755492 0)
(0.131645 0.000737296 0)
(0.130866 0.000719483 0)
(0.130095 0.00070204 0)
(0.129334 0.000684958 0)
(0.128583 0.00066823 0)
(0.127841 0.000651854 0)
(0.127109 0.000635829 0)
(0.126386 0.000620162 0)
(0.125672 0.000604866 0)
(0.124968 0.000589962 0)
(0.124274 0.000575485 0)
(0.123589 0.000561493 0)
(0.122914 0.000548091 0)
(0.122248 0.00053548 0)
(0.12159 0.000524101 0)
(0.120941 0.000515065 0)
(0.120299 0.000511732 0)
(0.119671 0.000524852 0)
(0.118911 0.000568539 0)
(0.195789 0.00753815 0)
(0.19639 0.00836428 0)
(0.197104 0.00894662 0)
(0.197832 0.00931677 0)
(0.198524 0.00951401 0)
(0.19916 0.0095618 0)
(0.19972 0.00947885 0)
(0.200186 0.00928736 0)
(0.200544 0.0090121 0)
(0.20079 0.0086776 0)
(0.200925 0.00830649 0)
(0.200957 0.00791852 0)
(0.200894 0.00752973 0)
(0.20075 0.00715209 0)
(0.200537 0.00679353 0)
(0.200267 0.00645851 0)
(0.19995 0.00614872 0)
(0.199597 0.00586389 0)
(0.199214 0.00560252 0)
(0.198806 0.00536246 0)
(0.198377 0.00514135 0)
(0.19793 0.00493689 0)
(0.197467 0.00474699 0)
(0.196989 0.00456988 0)
(0.196497 0.00440404 0)
(0.195992 0.00424826 0)
(0.195474 0.00410152 0)
(0.194944 0.003963 0)
(0.194403 0.00383202 0)
(0.193849 0.003708 0)
(0.193285 0.00359045 0)
(0.19271 0.00347891 0)
(0.192124 0.00337298 0)
(0.191528 0.00327231 0)
(0.190923 0.00317655 0)
(0.190308 0.00308537 0)
(0.189684 0.00299849 0)
(0.189052 0.00291562 0)
(0.188411 0.00283651 0)
(0.187761 0.00276089 0)
(0.187105 0.00268856 0)
(0.18644 0.00261928 0)
(0.185769 0.00255286 0)
(0.185091 0.00248912 0)
(0.184406 0.00242789 0)
(0.183715 0.002369 0)
(0.183018 0.00231232 0)
(0.182315 0.00225769 0)
(0.181607 0.00220501 0)
(0.180895 0.00215414 0)
(0.180177 0.00210499 0)
(0.179455 0.00205745 0)
(0.178729 0.00201144 0)
(0.177999 0.00196686 0)
(0.177266 0.00192364 0)
(0.176529 0.00188171 0)
(0.17579 0.00184099 0)
(0.175048 0.00180143 0)
(0.174303 0.00176296 0)
(0.173556 0.00172553 0)
(0.172808 0.00168909 0)
(0.172058 0.00165358 0)
(0.171307 0.00161898 0)
(0.170555 0.00158522 0)
(0.169802 0.00155227 0)
(0.169049 0.0015201 0)
(0.168295 0.00148867 0)
(0.167542 0.00145794 0)
(0.166789 0.00142788 0)
(0.166036 0.00139846 0)
(0.165284 0.00136965 0)
(0.164534 0.00134142 0)
(0.163784 0.00131375 0)
(0.163037 0.00128661 0)
(0.162291 0.00125997 0)
(0.161547 0.00123382 0)
(0.160805 0.00120813 0)
(0.160066 0.00118288 0)
(0.15933 0.00115805 0)
(0.158596 0.00113363 0)
(0.157866 0.00110959 0)
(0.15714 0.00108593 0)
(0.156417 0.00106264 0)
(0.155698 0.00103969 0)
(0.154983 0.0010171 0)
(0.154272 0.000994852 0)
(0.153567 0.00097295 0)
(0.152866 0.000951401 0)
(0.15217 0.000930218 0)
(0.151479 0.000909421 0)
(0.150793 0.000889042 0)
(0.150113 0.00086913 0)
(0.149439 0.000849764 0)
(0.14877 0.000831075 0)
(0.148107 0.000813308 0)
(0.14745 0.000796964 0)
(0.146798 0.000783188 0)
(0.146154 0.000774816 0)
(0.145525 0.000777785 0)
(0.144786 0.000789941 0)
(0.1965 0.00717648 0)
(0.196949 0.00788003 0)
(0.197498 0.00841393 0)
(0.198083 0.00878092 0)
(0.198662 0.0090005 0)
(0.199211 0.00908954 0)
(0.199713 0.00906305 0)
(0.200153 0.00893838 0)
(0.200521 0.00873523 0)
(0.200813 0.0084737 0)
(0.201027 0.0081727 0)
(0.201168 0.00784908 0)
(0.201243 0.00751699 0)
(0.201259 0.0071875 0)
(0.201226 0.00686859 0)
(0.201153 0.00656538 0)
(0.201048 0.00628063 0)
(0.200917 0.00601533 0)
(0.200768 0.00576921 0)
(0.200603 0.00554123 0)
(0.200427 0.00532994 0)
(0.20024 0.00513375 0)
(0.200046 0.00495113 0)
(0.199844 0.00478063 0)
(0.199635 0.00462101 0)
(0.19942 0.00447118 0)
(0.199197 0.00433023 0)
(0.198969 0.00419737 0)
(0.198733 0.00407196 0)
(0.19849 0.0039534 0)
(0.19824 0.00384121 0)
(0.197983 0.00373494 0)
(0.197719 0.00363416 0)
(0.197447 0.00353853 0)
(0.197167 0.00344768 0)
(0.19688 0.00336129 0)
(0.196586 0.00327907 0)
(0.196283 0.00320072 0)
(0.195973 0.00312598 0)
(0.195655 0.00305461 0)
(0.195329 0.00298636 0)
(0.194996 0.00292102 0)
(0.194654 0.00285838 0)
(0.194305 0.00279826 0)
(0.193948 0.00274048 0)
(0.193583 0.00268489 0)
(0.193211 0.00263132 0)
(0.192831 0.00257964 0)
(0.192443 0.00252973 0)
(0.192047 0.00248146 0)
(0.191645 0.00243472 0)
(0.191235 0.00238942 0)
(0.190817 0.00234547 0)
(0.190393 0.00230277 0)
(0.189961 0.00226125 0)
(0.189523 0.00222084 0)
(0.189078 0.00218146 0)
(0.188626 0.00214306 0)
(0.188168 0.00210558 0)
(0.187703 0.00206897 0)
(0.187233 0.00203317 0)
(0.186756 0.00199814 0)
(0.186273 0.00196383 0)
(0.185785 0.00193021 0)
(0.185291 0.00189723 0)
(0.184792 0.00186487 0)
(0.184288 0.00183308 0)
(0.183779 0.00180184 0)
(0.183266 0.00177111 0)
(0.182748 0.00174087 0)
(0.182225 0.0017111 0)
(0.181699 0.00168175 0)
(0.181168 0.00165282 0)
(0.180634 0.00162427 0)
(0.180097 0.00159609 0)
(0.179556 0.00156825 0)
(0.179012 0.00154074 0)
(0.178466 0.00151354 0)
(0.177917 0.00148663 0)
(0.177366 0.00145999 0)
(0.176812 0.00143362 0)
(0.176257 0.0014075 0)
(0.175701 0.00138162 0)
(0.175143 0.00135598 0)
(0.174584 0.00133057 0)
(0.174025 0.00130541 0)
(0.173465 0.00128048 0)
(0.172905 0.00125582 0)
(0.172344 0.00123143 0)
(0.171784 0.00120735 0)
(0.171225 0.00118362 0)
(0.170665 0.00116029 0)
(0.170107 0.00113747 0)
(0.16955 0.00111531 0)
(0.168994 0.00109405 0)
(0.168439 0.00107416 0)
(0.167887 0.00105655 0)
(0.167339 0.00104279 0)
(0.166805 0.00103375 0)
(0.166178 0.00101669 0)
(0.197151 0.00688012 0)
(0.197485 0.0074784 0)
(0.197898 0.00795763 0)
(0.198351 0.00830841 0)
(0.198812 0.00853692 0)
(0.199258 0.0086533 0)
(0.199673 0.00866864 0)
(0.200046 0.00859602 0)
(0.200368 0.00845059 0)
(0.200633 0.00824835 0)
(0.200841 0.00800484 0)
(0.200994 0.00773432 0)
(0.201097 0.00744917 0)
(0.201156 0.00715954 0)
(0.201177 0.00687322 0)
(0.201167 0.00659575 0)
(0.201134 0.00633069 0)
(0.201083 0.00608001 0)
(0.201018 0.00584446 0)
(0.200944 0.00562398 0)
(0.200863 0.00541798 0)
(0.200778 0.00522555 0)
(0.200689 0.00504571 0)
(0.200599 0.00487741 0)
(0.200506 0.00471971 0)
(0.200413 0.0045717 0)
(0.200317 0.0044326 0)
(0.20022 0.0043017 0)
(0.200122 0.00417839 0)
(0.200022 0.0040621 0)
(0.199919 0.00395234 0)
(0.199814 0.00384865 0)
(0.199707 0.00375062 0)
(0.199597 0.00365786 0)
(0.199483 0.00357 0)
(0.199367 0.00348673 0)
(0.199247 0.00340771 0)
(0.199123 0.00333265 0)
(0.198996 0.00326128 0)
(0.198865 0.00319334 0)
(0.198729 0.00312857 0)
(0.198589 0.00306675 0)
(0.198445 0.00300767 0)
(0.198295 0.00295113 0)
(0.198141 0.00289695 0)
(0.197982 0.00284494 0)
(0.197819 0.00279497 0)
(0.197649 0.00274687 0)
(0.197475 0.00270051 0)
(0.197295 0.00265577 0)
(0.19711 0.00261253 0)
(0.196919 0.00257068 0)
(0.196723 0.00253012 0)
(0.196521 0.00249077 0)
(0.196313 0.00245253 0)
(0.1961 0.00241533 0)
(0.195881 0.00237909 0)
(0.195656 0.00234375 0)
(0.195425 0.00230925 0)
(0.195189 0.00227552 0)
(0.194947 0.00224252 0)
(0.194698 0.00221019 0)
(0.194445 0.00217849 0)
(0.194185 0.00214737 0)
(0.19392 0.00211679 0)
(0.193648 0.00208671 0)
(0.193372 0.00205711 0)
(0.193089 0.00202793 0)
(0.192801 0.00199916 0)
(0.192508 0.00197076 0)
(0.192209 0.0019427 0)
(0.191905 0.00191495 0)
(0.191596 0.00188749 0)
(0.191281 0.00186029 0)
(0.190962 0.00183334 0)
(0.190637 0.0018066 0)
(0.190308 0.00178006 0)
(0.189974 0.0017537 0)
(0.189635 0.0017275 0)
(0.189292 0.00170144 0)
(0.188945 0.00167552 0)
(0.188593 0.00164972 0)
(0.188238 0.00162403 0)
(0.187878 0.00159845 0)
(0.187515 0.00157298 0)
(0.187148 0.00154762 0)
(0.186778 0.00152237 0)
(0.186405 0.00149726 0)
(0.186029 0.00147232 0)
(0.185649 0.00144756 0)
(0.185267 0.00142305 0)
(0.184883 0.00139884 0)
(0.184496 0.00137505 0)
(0.184107 0.0013518 0)
(0.183716 0.00132933 0)
(0.183323 0.00130798 0)
(0.18293 0.0012882 0)
(0.182539 0.00127021 0)
(0.182156 0.0012514 0)
(0.181697 0.00121619 0)
(0.197719 0.00664618 0)
(0.197966 0.00716239 0)
(0.198273 0.00759208 0)
(0.198617 0.00792271 0)
(0.198973 0.00815303 0)
(0.199325 0.00828761 0)
(0.199657 0.00833374 0)
(0.19996 0.00830093 0)
(0.200225 0.00820064 0)
(0.200449 0.00804545 0)
(0.20063 0.00784808 0)
(0.200768 0.00762059 0)
(0.200868 0.00737383 0)
(0.200932 0.00711706 0)
(0.200967 0.00685776 0)
(0.200977 0.00660166 0)
(0.200968 0.00635283 0)
(0.200944 0.00611395 0)
(0.200909 0.0058866 0)
(0.200867 0.00567147 0)
(0.200821 0.00546869 0)
(0.200771 0.00527798 0)
(0.20072 0.00509881 0)
(0.200668 0.00493054 0)
(0.200616 0.00477248 0)
(0.200565 0.00462395 0)
(0.200515 0.0044843 0)
(0.200465 0.0043529 0)
(0.200416 0.0042292 0)
(0.200367 0.00411266 0)
(0.200319 0.00400281 0)
(0.20027 0.0038992 0)
(0.200222 0.0038014 0)
(0.200174 0.00370905 0)
(0.200125 0.00362176 0)
(0.200076 0.0035392 0)
(0.200026 0.00346104 0)
(0.199975 0.00338699 0)
(0.199924 0.00331676 0)
(0.199871 0.00325008 0)
(0.199816 0.0031867 0)
(0.19976 0.00312639 0)
(0.199703 0.00306892 0)
(0.199643 0.0030141 0)
(0.199582 0.00296172 0)
(0.199518 0.00291162 0)
(0.199453 0.00286362 0)
(0.199384 0.00281758 0)
(0.199314 0.00277334 0)
(0.19924 0.00273078 0)
(0.199164 0.00268978 0)
(0.199085 0.00265021 0)
(0.199003 0.00261198 0)
(0.198918 0.00257498 0)
(0.19883 0.00253913 0)
(0.198738 0.00250434 0)
(0.198643 0.00247054 0)
(0.198545 0.00243764 0)
(0.198443 0.00240559 0)
(0.198337 0.00237432 0)
(0.198228 0.00234377 0)
(0.198115 0.00231388 0)
(0.197998 0.00228461 0)
(0.197877 0.00225591 0)
(0.197753 0.00222773 0)
(0.197624 0.00220003 0)
(0.197492 0.00217277 0)
(0.197355 0.00214591 0)
(0.197214 0.00211941 0)
(0.19707 0.00209324 0)
(0.196921 0.00206738 0)
(0.196768 0.00204177 0)
(0.196611 0.00201641 0)
(0.196449 0.00199125 0)
(0.196284 0.00196628 0)
(0.196115 0.00194147 0)
(0.195941 0.00191679 0)
(0.195763 0.00189222 0)
(0.195581 0.00186774 0)
(0.195396 0.00184333 0)
(0.195206 0.00181899 0)
(0.195012 0.00179468 0)
(0.194814 0.00177041 0)
(0.194613 0.00174617 0)
(0.194408 0.00172195 0)
(0.194198 0.00169775 0)
(0.193986 0.0016736 0)
(0.193769 0.00164949 0)
(0.193549 0.00162546 0)
(0.193326 0.00160155 0)
(0.193099 0.00157779 0)
(0.192869 0.00155426 0)
(0.192636 0.00153105 0)
(0.1924 0.00150828 0)
(0.19216 0.00148612 0)
(0.191919 0.00146473 0)
(0.191675 0.00144417 0)
(0.191432 0.00142375 0)
(0.191192 0.0013997 0)
(0.190894 0.00135923 0)
(0.198283 0.00645868 0)
(0.198457 0.00690753 0)
(0.198673 0.00729112 0)
(0.198918 0.00759782 0)
(0.199176 0.00782306 0)
(0.199434 0.00796754 0)
(0.199681 0.0080353 0)
(0.199909 0.00803283 0)
(0.200112 0.00796852 0)
(0.200286 0.00785205 0)
(0.200429 0.00769361 0)
(0.200542 0.00750323 0)
(0.200626 0.00729025 0)
(0.200683 0.00706296 0)
(0.200719 0.00682841 0)
(0.200735 0.00659227 0)
(0.200735 0.00635892 0)
(0.200725 0.00613154 0)
(0.200705 0.0059123 0)
(0.200679 0.00570255 0)
(0.200649 0.00550302 0)
(0.200617 0.00531396 0)
(0.200584 0.0051353 0)
(0.20055 0.00496677 0)
(0.200517 0.00480796 0)
(0.200485 0.00465839 0)
(0.200453 0.00451756 0)
(0.200423 0.00438495 0)
(0.200394 0.00426008 0)
(0.200366 0.00414245 0)
(0.200339 0.00403161 0)
(0.200314 0.00392712 0)
(0.200289 0.00382859 0)
(0.200265 0.00373562 0)
(0.200242 0.00364785 0)
(0.200219 0.00356494 0)
(0.200197 0.00348655 0)
(0.200175 0.00341239 0)
(0.200154 0.00334217 0)
(0.200133 0.00327561 0)
(0.200112 0.00321246 0)
(0.200091 0.00315249 0)
(0.200069 0.00309546 0)
(0.200048 0.00304116 0)
(0.200026 0.00298941 0)
(0.200004 0.00294002 0)
(0.199981 0.00289282 0)
(0.199958 0.00284765 0)
(0.199934 0.00280437 0)
(0.19991 0.00276283 0)
(0.199884 0.00272292 0)
(0.199858 0.00268451 0)
(0.19983 0.0026475 0)
(0.199802 0.00261178 0)
(0.199772 0.00257726 0)
(0.199741 0.00254385 0)
(0.199709 0.00251147 0)
(0.199675 0.00248004 0)
(0.19964 0.0024495 0)
(0.199603 0.00241978 0)
(0.199565 0.00239081 0)
(0.199525 0.00236254 0)
(0.199483 0.00233491 0)
(0.19944 0.00230788 0)
(0.199394 0.00228139 0)
(0.199347 0.0022554 0)
(0.199298 0.00222986 0)
(0.199247 0.00220474 0)
(0.199193 0.00218 0)
(0.199138 0.00215559 0)
(0.19908 0.00213148 0)
(0.19902 0.00210765 0)
(0.198958 0.00208405 0)
(0.198894 0.00206066 0)
(0.198827 0.00203744 0)
(0.198758 0.00201437 0)
(0.198686 0.00199142 0)
(0.198612 0.00196856 0)
(0.198536 0.00194579 0)
(0.198456 0.00192306 0)
(0.198375 0.00190036 0)
(0.198291 0.00187769 0)
(0.198204 0.00185502 0)
(0.198115 0.00183234 0)
(0.198023 0.00180966 0)
(0.197928 0.00178697 0)
(0.197831 0.00176428 0)
(0.197731 0.0017416 0)
(0.197629 0.00171896 0)
(0.197524 0.00169639 0)
(0.197416 0.00167394 0)
(0.197306 0.00165167 0)
(0.197193 0.00162965 0)
(0.197077 0.00160797 0)
(0.196959 0.00158673 0)
(0.19684 0.00156594 0)
(0.196718 0.0015454 0)
(0.196596 0.00152415 0)
(0.196473 0.00149913 0)
(0.19631 0.00146316 0)
(0.198886 0.00629269 0)
(0.198989 0.00668714 0)
(0.199116 0.00703128 0)
(0.199262 0.00731536 0)
(0.199418 0.00753361 0)
(0.199577 0.00768429 0)
(0.199731 0.00776889 0)
(0.199876 0.00779135 0)
(0.200006 0.0077575 0)
(0.20012 0.00767452 0)
(0.200216 0.00755036 0)
(0.200293 0.00739319 0)
(0.200353 0.00721094 0)
(0.200396 0.00701094 0)
(0.200424 0.00679969 0)
(0.200441 0.00658271 0)
(0.200447 0.00636451 0)
(0.200444 0.00614861 0)
(0.200436 0.00593765 0)
(0.200423 0.00573351 0)
(0.200407 0.00553743 0)
(0.200389 0.00535014 0)
(0.20037 0.005172 0)
(0.200351 0.00500309 0)
(0.200332 0.00484328 0)
(0.200313 0.00469231 0)
(0.200295 0.00454985 0)
(0.200277 0.00441549 0)
(0.20026 0.00428883 0)
(0.200245 0.00416943 0)
(0.20023 0.00405689 0)
(0.200215 0.00395079 0)
(0.200202 0.00385074 0)
(0.200189 0.00375635 0)
(0.200178 0.00366727 0)
(0.200166 0.00358315 0)
(0.200156 0.00350367 0)
(0.200146 0.00342851 0)
(0.200136 0.00335739 0)
(0.200127 0.00329004 0)
(0.200118 0.00322618 0)
(0.20011 0.00316559 0)
(0.200102 0.00310804 0)
(0.200094 0.0030533 0)
(0.200086 0.00300119 0)
(0.200079 0.00295151 0)
(0.200072 0.0029041 0)
(0.200064 0.00285879 0)
(0.200057 0.00281543 0)
(0.20005 0.00277388 0)
(0.200043 0.00273402 0)
(0.200035 0.00269572 0)
(0.200028 0.00265887 0)
(0.20002 0.00262336 0)
(0.200012 0.00258911 0)
(0.200004 0.00255602 0)
(0.199996 0.00252401 0)
(0.199987 0.002493 0)
(0.199978 0.00246292 0)
(0.199969 0.00243369 0)
(0.199959 0.00240526 0)
(0.199948 0.00237757 0)
(0.199938 0.00235056 0)
(0.199926 0.00232418 0)
(0.199915 0.00229838 0)
(0.199902 0.00227311 0)
(0.199889 0.00224833 0)
(0.199875 0.00222399 0)
(0.199861 0.00220006 0)
(0.199846 0.00217649 0)
(0.19983 0.00215325 0)
(0.199814 0.00213031 0)
(0.199796 0.00210763 0)
(0.199778 0.00208518 0)
(0.199759 0.00206292 0)
(0.199739 0.00204083 0)
(0.199718 0.00201889 0)
(0.199696 0.00199705 0)
(0.199674 0.00197531 0)
(0.19965 0.00195363 0)
(0.199625 0.001932 0)
(0.199599 0.0019104 0)
(0.199572 0.00188881 0)
(0.199544 0.00186723 0)
(0.199514 0.00184565 0)
(0.199484 0.00182406 0)
(0.199452 0.00180249 0)
(0.199419 0.00178093 0)
(0.199385 0.00175941 0)
(0.199349 0.00173797 0)
(0.199312 0.00171664 0)
(0.199274 0.00169547 0)
(0.199235 0.00167452 0)
(0.199194 0.00165385 0)
(0.199152 0.00163347 0)
(0.199109 0.00161333 0)
(0.199065 0.00159313 0)
(0.199021 0.00157218 0)
(0.198974 0.0015491 0)
(0.198906 0.00152256 0)
(0.199518 0.00621134 0)
(0.199545 0.00657131 0)
(0.199582 0.00688797 0)
(0.199627 0.00715309 0)
(0.199677 0.00736105 0)
(0.199729 0.00750933 0)
(0.199782 0.0075983 0)
(0.199833 0.00763064 0)
(0.199881 0.00761085 0)
(0.199925 0.00754471 0)
(0.199963 0.00743887 0)
(0.199996 0.00730033 0)
(0.200023 0.00713609 0)
(0.200045 0.00695276 0)
(0.200061 0.00675637 0)
(0.200074 0.0065522 0)
(0.200082 0.00634467 0)
(0.200088 0.0061374 0)
(0.200091 0.0059332 0)
(0.200092 0.00573418 0)
(0.200091 0.00554183 0)
(0.20009 0.00535716 0)
(0.200087 0.00518075 0)
(0.200084 0.00501288 0)
(0.200081 0.00485361 0)
(0.200078 0.00470281 0)
(0.200075 0.00456025 0)
(0.200071 0.00442563 0)
(0.200068 0.00429859 0)
(0.200065 0.00417875 0)
(0.200062 0.00406572 0)
(0.200059 0.00395913 0)
(0.200057 0.00385858 0)
(0.200054 0.00376371 0)
(0.200052 0.00367417 0)
(0.20005 0.00358961 0)
(0.200047 0.00350971 0)
(0.200045 0.00343418 0)
(0.200044 0.0033627 0)
(0.200042 0.00329502 0)
(0.20004 0.00323088 0)
(0.200039 0.00317002 0)
(0.200037 0.00311223 0)
(0.200036 0.00305729 0)
(0.200035 0.003005 0)
(0.200033 0.00295517 0)
(0.200032 0.00290763 0)
(0.200031 0.00286222 0)
(0.20003 0.00281879 0)
(0.200029 0.0027772 0)
(0.200028 0.00273731 0)
(0.200027 0.002699 0)
(0.200026 0.00266217 0)
(0.200024 0.0026267 0)
(0.200023 0.00259251 0)
(0.200022 0.0025595 0)
(0.200021 0.00252758 0)
(0.200019 0.00249668 0)
(0.200018 0.00246673 0)
(0.200017 0.00243766 0)
(0.200015 0.00240939 0)
(0.200014 0.00238189 0)
(0.200012 0.00235507 0)
(0.20001 0.00232891 0)
(0.200008 0.00230334 0)
(0.200006 0.00227832 0)
(0.200004 0.0022538 0)
(0.200002 0.00222974 0)
(0.199999 0.00220611 0)
(0.199996 0.00218286 0)
(0.199994 0.00215995 0)
(0.199991 0.00213735 0)
(0.199987 0.00211503 0)
(0.199984 0.00209296 0)
(0.19998 0.0020711 0)
(0.199976 0.00204942 0)
(0.199972 0.0020279 0)
(0.199968 0.00200651 0)
(0.199963 0.00198522 0)
(0.199958 0.00196402 0)
(0.199953 0.00194288 0)
(0.199947 0.00192178 0)
(0.199942 0.00190072 0)
(0.199935 0.00187968 0)
(0.199929 0.00185866 0)
(0.199922 0.00183766 0)
(0.199914 0.00181668 0)
(0.199907 0.00179573 0)
(0.199899 0.00177484 0)
(0.19989 0.00175404 0)
(0.199881 0.00173337 0)
(0.199872 0.00171286 0)
(0.199862 0.00169257 0)
(0.199851 0.00167251 0)
(0.199841 0.00165268 0)
(0.199829 0.00163299 0)
(0.199818 0.00161321 0)
(0.199806 0.00159302 0)
(0.199793 0.00157236 0)
(0.199773 0.00155277 0)
(0.199997 1.57639e-06 0)
(0.199988 3.82808e-06 0)