/*--------------------------------*- C++ -*----------------------------------*\
| =========                 |                                                 |
| \\      /  F ield         | OpenFOAM: The Open Source CFD Toolbox           |
|  \\    /   O peration     | Version:  2.3.0                                 |
|   \\  /    A nd           | Web:      www.OpenFOAM.org                      |
|    \\/     M anipulation  |                                                 |
\*---------------------------------------------------------------------------*/
FoamFile
{
    version     2.0;
    format      ascii;
    class       volScalarField;
    location    "0.85";
    object      p;
}
// * * * * * * * * * * * * * * * * * * * * * * * * * * * * * * * * * * * * * //

dimensions      [0 2 -2 0 0 0 0];

internalField   nonuniform List<scalar> 
5940
(
0.00296747
0.00264708
0.00194951
0.0012673
0.000708862
0.000256352
-0.000109207
-0.000381956
-0.000553068
-0.000632576
-0.000646651
-0.000623951
-0.000586492
-0.00054774
-0.00051424
-0.000487931
-0.000468243
-0.000453626
-0.000442458
-0.000433423
-0.000425595
-0.000418389
-0.000411473
-0.000404685
-0.000397961
-0.000391291
-0.000384683
-0.000378156
-0.000371722
-0.000365391
-0.000359166
-0.000353046
-0.00034703
-0.000341111
-0.000335284
-0.000329544
-0.000323884
-0.0003183
-0.000312789
-0.000307348
-0.000301973
-0.000296663
-0.000291416
-0.000286232
-0.00028111
-0.000276049
-0.000271049
-0.000266111
-0.000261233
-0.000256417
-0.000251661
-0.000246968
-0.000242335
-0.000237765
-0.000233256
-0.00022881
-0.000224426
-0.000220104
-0.000215845
-0.000211649
-0.000207515
-0.000203444
-0.000199436
-0.000195491
-0.000191609
-0.000187789
-0.000184032
-0.000180337
-0.000176704
-0.000173134
-0.000169625
-0.000166178
-0.000162791
-0.000159466
-0.0001562
-0.000152994
-0.000149848
-0.00014676
-0.000143731
-0.000140759
-0.000137844
-0.000134985
-0.000132182
-0.000129434
-0.000126739
-0.000124099
-0.00012151
-0.000118974
-0.000116487
-0.000114052
-0.000111664
-0.000109325
-0.000107033
-0.000104787
-0.000102585
-0.000100429
-9.83137e-05
-9.62419e-05
-9.42089e-05
-9.22173e-05
-9.02617e-05
-8.83455e-05
-8.64623e-05
-8.46165e-05
-8.28007e-05
-8.10201e-05
-7.92659e-05
-7.7545e-05
-7.58469e-05
-7.41799e-05
-7.25315e-05
-7.09123e-05
-6.93073e-05
-6.77294e-05
-6.61607e-05
-6.46173e-05
-6.30775e-05
-6.15613e-05
-6.00425e-05
-5.85458e-05
-5.70394e-05
-5.55539e-05
-5.40507e-05
-5.25674e-05
-5.10572e-05
-4.95667e-05
-4.80386e-05
-4.65306e-05
-4.49724e-05
-4.34358e-05
-4.18343e-05
-4.02571e-05
-3.85973e-05
-3.69664e-05
-3.52319e-05
-3.35333e-05
-3.17051e-05
-2.99237e-05
-2.79804e-05
-2.60995e-05
-2.40164e-05
-2.20184e-05
-1.97656e-05
-1.76319e-05
-1.51724e-05
-1.2885e-05
-1.0168e-05
-7.71401e-06
-4.64605e-06
-2.04844e-06
0.00244234
0.00225922
0.00178278
0.00121781
0.000706587
0.000283712
-5.46277e-05
-0.000307609
-0.000473278
-0.00055935
-0.000585399
-0.000575321
-0.000549035
-0.00051924
-0.000492454
-0.000470881
-0.00045439
-0.000441911
-0.000432209
-0.000424234
-0.000417225
-0.000410691
-0.000404355
-0.000398078
-0.000391812
-0.000385553
-0.000379316
-0.000373124
-0.000366992
-0.000360934
-0.000354957
-0.000349064
-0.000343255
-0.000337525
-0.000331873
-0.000326294
-0.000320784
-0.000315339
-0.000309958
-0.000304637
-0.000299375
-0.000294171
-0.000289025
-0.000283934
-0.0002789
-0.000273923
-0.000269002
-0.000264137
-0.00025933
-0.000254581
-0.000249889
-0.000245255
-0.00024068
-0.000236164
-0.000231708
-0.000227311
-0.000222974
-0.000218698
-0.000214482
-0.000210326
-0.000206232
-0.000202199
-0.000198228
-0.000194317
-0.000190468
-0.000186681
-0.000182954
-0.000179289
-0.000175685
-0.000172142
-0.000168659
-0.000165237
-0.000161875
-0.000158573
-0.00015533
-0.000152147
-0.000149021
-0.000145954
-0.000142944
-0.000139991
-0.000137094
-0.000134254
-0.000131468
-0.000128736
-0.000126058
-0.000123433
-0.000120859
-0.000118337
-0.000115865
-0.000113443
-0.000111069
-0.000108743
-0.000106463
-0.00010423
-0.000102039
-9.98944e-05
-9.77903e-05
-9.57294e-05
-9.37068e-05
-9.17254e-05
-8.97797e-05
-8.78731e-05
-8.59993e-05
-8.41627e-05
-8.23556e-05
-8.05837e-05
-7.88379e-05
-7.71253e-05
-7.5435e-05
-7.37758e-05
-7.21349e-05
-7.05232e-05
-6.89251e-05
-6.73544e-05
-6.57923e-05
-6.42558e-05
-6.27222e-05
-6.12126e-05
-5.96997e-05
-5.82092e-05
-5.67084e-05
-5.52289e-05
-5.37308e-05
-5.22534e-05
-5.0748e-05
-4.92631e-05
-4.77394e-05
-4.62368e-05
-4.46827e-05
-4.31514e-05
-4.15534e-05
-3.99815e-05
-3.83248e-05
-3.66992e-05
-3.49672e-05
-3.32739e-05
-3.14476e-05
-2.96715e-05
-2.77294e-05
-2.58542e-05
-2.37711e-05
-2.17792e-05
-1.95252e-05
-1.73985e-05
-1.49356e-05
-1.26569e-05
-9.93265e-06
-7.49113e-06
-4.41071e-06
-1.85371e-06
0.0020667
0.00194811
0.00162907
0.00118236
0.00073215
0.000344931
3.54322e-05
-0.000198654
-0.000361452
-0.000459348
-0.000504576
-0.000513897
-0.000503765
-0.000486275
-0.000468088
-0.000452102
-0.000439083
-0.000428761
-0.000420481
-0.000413549
-0.000407394
-0.000401619
-0.000395982
-0.000390358
-0.000384699
-0.000378997
-0.000373268
-0.000367531
-0.000361808
-0.000356116
-0.000350465
-0.000344863
-0.000339313
-0.000333818
-0.000328378
-0.00032299
-0.000317654
-0.000312369
-0.000307134
-0.000301948
-0.000296811
-0.000291722
-0.000286683
-0.000281692
-0.000276752
-0.000271861
-0.000267022
-0.000262235
-0.0002575
-0.000252819
-0.000248191
-0.000243618
-0.000239101
-0.00023464
-0.000230235
-0.000225887
-0.000221597
-0.000217365
-0.000213191
-0.000209077
-0.000205021
-0.000201025
-0.000197089
-0.000193212
-0.000189395
-0.000185639
-0.000181942
-0.000178305
-0.000174729
-0.000171212
-0.000167755
-0.000164357
-0.000161018
-0.000157739
-0.000154518
-0.000151355
-0.00014825
-0.000145202
-0.000142211
-0.000139276
-0.000136397
-0.000133573
-0.000130804
-0.000128088
-0.000125425
-0.000122815
-0.000120256
-0.000117748
-0.000115289
-0.00011288
-0.000110518
-0.000108205
-0.000105937
-0.000103715
-0.000101536
-9.94019e-05
-9.73082e-05
-9.52576e-05
-9.32449e-05
-9.12734e-05
-8.93368e-05
-8.74397e-05
-8.55745e-05
-8.37469e-05
-8.19479e-05
-8.01846e-05
-7.84464e-05
-7.6742e-05
-7.50588e-05
-7.34076e-05
-7.17734e-05
-7.01692e-05
-6.85775e-05
-6.70141e-05
-6.54578e-05
-6.39284e-05
-6.24003e-05
-6.08976e-05
-5.93897e-05
-5.79061e-05
-5.64098e-05
-5.4937e-05
-5.34431e-05
-5.19723e-05
-5.04706e-05
-4.89925e-05
-4.74718e-05
-4.59762e-05
-4.44245e-05
-4.29003e-05
-4.13041e-05
-3.97396e-05
-3.80839e-05
-3.64662e-05
-3.47342e-05
-3.30494e-05
-3.12221e-05
-2.94554e-05
-2.75109e-05
-2.56461e-05
-2.3559e-05
-2.15792e-05
-1.93187e-05
-1.72065e-05
-1.47342e-05
-1.24735e-05
-9.73664e-06
-7.31895e-06
-4.24293e-06
-1.74919e-06
0.0018155
0.00171908
0.00148992
0.00114195
0.000758319
0.000410272
0.000126504
-9.1352e-05
-0.000249392
-0.000354225
-0.000414246
-0.000440841
-0.00044648
-0.00044157
-0.000432791
-0.000423627
-0.000415501
-0.000408716
-0.000403055
-0.000398137
-0.000393599
-0.000389175
-0.000384702
-0.000380098
-0.000375341
-0.00037044
-0.000365419
-0.000360311
-0.000355145
-0.000349946
-0.000344734
-0.000339523
-0.000334325
-0.000329146
-0.00032399
-0.000318861
-0.000313761
-0.000308691
-0.000303654
-0.00029865
-0.00029368
-0.000288746
-0.00028385
-0.000278993
-0.000274176
-0.000269402
-0.00026467
-0.000259983
-0.000255343
-0.00025075
-0.000246205
-0.00024171
-0.000237266
-0.000232874
-0.000228535
-0.000224249
-0.000220017
-0.00021584
-0.000211719
-0.000207655
-0.000203647
-0.000199696
-0.000195802
-0.000191967
-0.000188189
-0.00018447
-0.000180809
-0.000177207
-0.000173663
-0.000170178
-0.00016675
-0.000163382
-0.000160071
-0.000156818
-0.000153622
-0.000150484
-0.000147403
-0.000144378
-0.000141409
-0.000138495
-0.000135636
-0.000132832
-0.000130082
-0.000127384
-0.000124739
-0.000122146
-0.000119603
-0.000117111
-0.000114668
-0.000112274
-0.000109927
-0.000107627
-0.000105373
-0.000103164
-0.000100998
-9.88762e-05
-9.67943e-05
-9.47556e-05
-9.27539e-05
-9.07936e-05
-8.88674e-05
-8.69809e-05
-8.51255e-05
-8.3308e-05
-8.15181e-05
-7.97644e-05
-7.80348e-05
-7.63397e-05
-7.46646e-05
-7.30222e-05
-7.13955e-05
-6.97999e-05
-6.82151e-05
-6.66601e-05
-6.51103e-05
-6.3589e-05
-6.20669e-05
-6.05722e-05
-5.90698e-05
-5.75941e-05
-5.61028e-05
-5.46379e-05
-5.31484e-05
-5.16856e-05
-5.01878e-05
-4.87176e-05
-4.72004e-05
-4.57129e-05
-4.41639e-05
-4.26483e-05
-4.10541e-05
-3.94985e-05
-3.7844e-05
-3.62358e-05
-3.4504e-05
-3.28295e-05
-3.10013e-05
-2.9246e-05
-2.72991e-05
-2.54472e-05
-2.33561e-05
-2.13909e-05
-1.91245e-05
-1.70295e-05
-1.45491e-05
-1.23088e-05
-9.56478e-06
-7.17384e-06
-4.12606e-06
-1.70317e-06
0.00162459
0.00153695
0.00135792
0.00108451
0.000765183
0.000459204
0.000200889
-1.87832e-06
-0.000153429
-0.000260288
-0.000329157
-0.00036808
-0.000386228
-0.000392077
-0.000391864
-0.000389327
-0.000386292
-0.000383429
-0.00038082
-0.000378325
-0.000375766
-0.000373005
-0.000369968
-0.000366628
-0.000362995
-0.000359101
-0.000354984
-0.000350686
-0.000346247
-0.000341701
-0.000337075
-0.000332392
-0.000327668
-0.000322917
-0.00031815
-0.000313374
-0.000308595
-0.000303819
-0.00029905
-0.000294293
-0.000289552
-0.000284829
-0.000280127
-0.000275451
-0.000270802
-0.000266184
-0.000261598
-0.000257048
-0.000252535
-0.000248062
-0.00024363
-0.000239241
-0.000234896
-0.000230598
-0.000226347
-0.000222145
-0.000217992
-0.000213891
-0.000209841
-0.000205843
-0.000201899
-0.00019801
-0.000194174
-0.000190394
-0.000186669
-0.000183
-0.000179387
-0.000175831
-0.00017233
-0.000168887
-0.0001655
-0.00016217
-0.000158896
-0.000155678
-0.000152517
-0.000149411
-0.000146361
-0.000143366
-0.000140426
-0.00013754
-0.000134708
-0.00013193
-0.000129203
-0.00012653
-0.000123908
-0.000121337
-0.000118815
-0.000116344
-0.000113921
-0.000111546
-0.000109217
-0.000106936
-0.000104699
-0.000102507
-0.000100357
-9.82515e-05
-9.61846e-05
-9.41609e-05
-9.21733e-05
-9.02271e-05
-8.83141e-05
-8.64411e-05
-8.45979e-05
-8.27931e-05
-8.10148e-05
-7.92732e-05
-7.75545e-05
-7.58708e-05
-7.42058e-05
-7.25745e-05
-7.09572e-05
-6.93723e-05
-6.77964e-05
-6.62516e-05
-6.47101e-05
-6.31988e-05
-6.16844e-05
-6.01994e-05
-5.87042e-05
-5.7238e-05
-5.57533e-05
-5.42979e-05
-5.28145e-05
-5.13611e-05
-4.98688e-05
-4.84082e-05
-4.68958e-05
-4.54181e-05
-4.38733e-05
-4.23678e-05
-4.07771e-05
-3.92321e-05
-3.75803e-05
-3.59832e-05
-3.42534e-05
-3.25909e-05
-3.07636e-05
-2.90213e-05
-2.70743e-05
-2.52369e-05
-2.31444e-05
-2.11954e-05
-1.89265e-05
-1.68498e-05
-1.43669e-05
-1.21472e-05
-9.40703e-06
-7.04381e-06
-4.04442e-06
-1.69113e-06
0.00146604
0.00138369
0.0012352
0.00101593
0.000753232
0.000489712
0.000257733
7.00316e-05
-7.40418e-05
-0.000179828
-0.000253214
-0.000300368
-0.000328014
-0.000342776
-0.000350079
-0.000353581
-0.000355318
-0.000356215
-0.000356589
-0.000356495
-0.000355912
-0.000354822
-0.000353233
-0.000351176
-0.000348696
-0.000345844
-0.000342675
-0.000339239
-0.000335583
-0.00033175
-0.000327772
-0.000323679
-0.000319493
-0.000315233
-0.000310915
-0.000306551
-0.000302151
-0.000297723
-0.000293276
-0.000288817
-0.000284351
-0.000279884
-0.000275421
-0.000270967
-0.000266525
-0.000262101
-0.000257697
-0.000253317
-0.000248964
-0.00024464
-0.00024035
-0.000236094
-0.000231875
-0.000227696
-0.000223557
-0.000219461
-0.00021541
-0.000211404
-0.000207445
-0.000203534
-0.000199673
-0.000195861
-0.000192101
-0.000188392
-0.000184735
-0.000181131
-0.00017758
-0.000174083
-0.00017064
-0.000167251
-0.000163916
-0.000160636
-0.00015741
-0.000154238
-0.000151121
-0.000148058
-0.000145048
-0.000142093
-0.00013919
-0.000136341
-0.000133544
-0.000130799
-0.000128105
-0.000125463
-0.000122871
-0.000120329
-0.000117836
-0.000115392
-0.000112994
-0.000110645
-0.00010834
-0.000106083
-0.000103867
-0.000101698
-9.95688e-05
-9.7484e-05
-9.54367e-05
-9.34325e-05
-9.14631e-05
-8.95352e-05
-8.76393e-05
-8.57834e-05
-8.39563e-05
-8.21678e-05
-8.04045e-05
-7.86783e-05
-7.69736e-05
-7.53046e-05
-7.36527e-05
-7.20354e-05
-7.04305e-05
-6.88589e-05
-6.72946e-05
-6.57627e-05
-6.4232e-05
-6.27332e-05
-6.12289e-05
-5.9756e-05
-5.82703e-05
-5.6816e-05
-5.53402e-05
-5.38964e-05
-5.24213e-05
-5.09795e-05
-4.94949e-05
-4.80459e-05
-4.65406e-05
-4.50747e-05
-4.35364e-05
-4.2043e-05
-4.04581e-05
-3.89256e-05
-3.7279e-05
-3.56951e-05
-3.39698e-05
-3.23212e-05
-3.04978e-05
-2.87704e-05
-2.68268e-05
-2.50054e-05
-2.29159e-05
-2.09845e-05
-1.8719e-05
-1.66611e-05
-1.41841e-05
-1.19847e-05
-9.26218e-06
-6.92716e-06
-3.99083e-06
-1.69975e-06
0.00132963
0.0012521
0.00112506
0.000945614
0.000729639
0.000505731
0.000300451
0.000128371
-7.60918e-06
-0.000110759
-0.000186029
-0.000238465
-0.000273166
-0.000295192
-0.000309003
-0.000317923
-0.00032403
-0.000328431
-0.000331631
-0.000333848
-0.000335192
-0.000335744
-0.000335584
-0.000334795
-0.000333453
-0.000331632
-0.000329402
-0.000326821
-0.000323946
-0.000320825
-0.000317498
-0.000314
-0.000310359
-0.0003066
-0.000302742
-0.000298802
-0.000294794
-0.00029073
-0.00028662
-0.000282475
-0.000278302
-0.000274109
-0.000269902
-0.000265688
-0.000261472
-0.00025726
-0.000253055
-0.000248864
-0.000244689
-0.000240534
-0.000236402
-0.000232297
-0.000228221
-0.000224178
-0.000220168
-0.000216195
-0.000212261
-0.000208366
-0.000204514
-0.000200704
-0.000196939
-0.000193221
-0.000189548
-0.000185924
-0.000182349
-0.000178823
-0.000175346
-0.000171921
-0.000168547
-0.000165224
-0.000161952
-0.000158733
-0.000155566
-0.000152451
-0.000149388
-0.000146377
-0.000143418
-0.000140511
-0.000137655
-0.000134851
-0.000132097
-0.000129394
-0.000126741
-0.000124138
-0.000121583
-0.000119078
-0.000116619
-0.00011421
-0.000111844
-0.000109527
-0.000107253
-0.000105025
-0.000102838
-0.000100697
-9.8594e-05
-9.65353e-05
-9.45128e-05
-9.25332e-05
-9.0587e-05
-8.86822e-05
-8.6808e-05
-8.49739e-05
-8.31672e-05
-8.13992e-05
-7.9655e-05
-7.79483e-05
-7.62615e-05
-7.46109e-05
-7.29759e-05
-7.13761e-05
-6.97871e-05
-6.82323e-05
-6.66829e-05
-6.5167e-05
-6.36504e-05
-6.21671e-05
-6.06761e-05
-5.92182e-05
-5.7745e-05
-5.63053e-05
-5.48413e-05
-5.34118e-05
-5.19479e-05
-5.05203e-05
-4.90462e-05
-4.76114e-05
-4.6116e-05
-4.46644e-05
-4.31354e-05
-4.16565e-05
-4.00805e-05
-3.85628e-05
-3.69248e-05
-3.53561e-05
-3.36392e-05
-3.20065e-05
-3.01912e-05
-2.84806e-05
-2.65453e-05
-2.47415e-05
-2.26613e-05
-2.07482e-05
-1.84943e-05
-1.64551e-05
-1.39956e-05
-1.18155e-05
-9.12626e-06
-6.81895e-06
-3.9561e-06
-1.71333e-06
0.00121087
0.00113845
0.00102822
0.000878823
0.000700115
0.000510923
0.000331379
0.00017535
4.80541e-05
-5.15189e-05
-0.000127034
-0.000182636
-0.000222356
-0.000250075
-0.00026933
-0.000282978
-0.000293004
-0.000300609
-0.000306448
-0.000310868
-0.000314082
-0.000316248
-0.000317503
-0.000317969
-0.000317755
-0.000316955
-0.000315651
-0.000313914
-0.000311809
-0.000309391
-0.000306706
-0.000303795
-0.000300693
-0.000297429
-0.000294027
-0.000290508
-0.000286889
-0.000283187
-0.000279414
-0.000275582
-0.000271702
-0.000267784
-0.000263835
-0.000259863
-0.000255875
-0.000251879
-0.000247878
-0.000243879
-0.000239886
-0.000235904
-0.000231937
-0.000227989
-0.000224062
-0.000220161
-0.000216287
-0.000212443
-0.000208633
-0.000204857
-0.000201117
-0.000197417
-0.000193757
-0.000190138
-0.000186562
-0.000183031
-0.000179544
-0.000176104
-0.00017271
-0.000169364
-0.000166066
-0.000162817
-0.000159617
-0.000156467
-0.000153366
-0.000150315
-0.000147313
-0.000144363
-0.000141461
-0.00013861
-0.000135808
-0.000133056
-0.000130352
-0.000127699
-0.000125092
-0.000122535
-0.000120025
-0.000117562
-0.000115145
-0.000112775
-0.000110449
-0.00010817
-0.000105931
-0.000103739
-0.000101586
-9.94782e-05
-9.74074e-05
-9.53801e-05
-9.33875e-05
-9.14374e-05
-8.95194e-05
-8.76425e-05
-8.57947e-05
-8.39869e-05
-8.2205e-05
-8.04619e-05
-7.87411e-05
-7.7058e-05
-7.53932e-05
-7.3765e-05
-7.21508e-05
-7.05724e-05
-6.90029e-05
-6.74685e-05
-6.59376e-05
-6.44413e-05
-6.29423e-05
-6.14777e-05
-6.00034e-05
-5.85637e-05
-5.71063e-05
-5.56843e-05
-5.42354e-05
-5.28232e-05
-5.13737e-05
-4.99631e-05
-4.85029e-05
-4.70849e-05
-4.56029e-05
-4.41682e-05
-4.26522e-05
-4.11902e-05
-3.9627e-05
-3.81265e-05
-3.65013e-05
-3.495e-05
-3.32461e-05
-3.16312e-05
-2.98296e-05
-2.81372e-05
-2.62169e-05
-2.44316e-05
-2.2369e-05
-2.04742e-05
-1.82424e-05
-1.62213e-05
-1.37926e-05
-1.16312e-05
-8.99116e-06
-6.70999e-06
-3.92808e-06
-1.71566e-06
0.00110691
0.00103986
0.000943499
0.000817309
0.000667952
0.000507983
0.000352059
0.000212006
9.39593e-05
-1.24395e-06
-7.58249e-05
-0.000133011
-0.000176048
-0.000207974
-0.000231566
-0.000249187
-0.000262631
-0.00027311
-0.000281369
-0.000287855
-0.000292856
-0.000296587
-0.000299226
-0.000300926
-0.000301822
-0.000302025
-0.000301632
-0.000300727
-0.00029938
-0.000297654
-0.000295603
-0.000293274
-0.000290705
-0.000287932
-0.000284982
-0.000281881
-0.000278649
-0.000275306
-0.000271867
-0.000268347
-0.000264759
-0.000261113
-0.00025742
-0.000253689
-0.000249929
-0.000246146
-0.000242348
-0.000238541
-0.00023473
-0.000230921
-0.000227118
-0.000223326
-0.000219549
-0.00021579
-0.000212052
-0.000208339
-0.000204654
-0.000200998
-0.000197374
-0.000193784
-0.00019023
-0.000186714
-0.000183237
-0.0001798
-0.000176405
-0.000173054
-0.000169746
-0.000166483
-0.000163264
-0.000160093
-0.000156968
-0.00015389
-0.000150859
-0.000147876
-0.00014494
-0.000142054
-0.000139214
-0.000136423
-0.000133679
-0.000130984
-0.000128335
-0.000125734
-0.000123179
-0.000120673
-0.00011821
-0.000115795
-0.000113424
-0.000111099
-0.000108815
-0.000106578
-0.00010438
-0.000102228
-0.000100113
-9.80428e-05
-9.6008e-05
-9.40162e-05
-9.20577e-05
-9.01412e-05
-8.82553e-05
-8.64102e-05
-8.45927e-05
-8.28151e-05
-8.10619e-05
-7.93474e-05
-7.76537e-05
-7.59977e-05
-7.43586e-05
-7.27563e-05
-7.11664e-05
-6.96127e-05
-6.80663e-05
-6.65556e-05
-6.50466e-05
-6.3573e-05
-6.20948e-05
-6.06522e-05
-5.91978e-05
-5.77793e-05
-5.6341e-05
-5.49395e-05
-5.3509e-05
-5.21169e-05
-5.06853e-05
-4.92943e-05
-4.78515e-05
-4.6453e-05
-4.49881e-05
-4.35726e-05
-4.20736e-05
-4.06308e-05
-3.90847e-05
-3.76034e-05
-3.59958e-05
-3.44637e-05
-3.27784e-05
-3.11828e-05
-2.94013e-05
-2.77282e-05
-2.58307e-05
-2.40642e-05
-2.20286e-05
-2.01521e-05
-1.7954e-05
-1.59504e-05
-1.35664e-05
-1.14236e-05
-8.84728e-06
-6.59029e-06
-3.89457e-06
-1.69478e-06
0.00101543
0.000953759
0.000869015
0.000761156
0.000634965
0.000499095
0.000364076
0.00023936
0.00013095
4.08568e-05
-3.18245e-05
-8.93686e-05
-0.000134339
-0.000169159
-0.000196025
-0.000216852
-0.000233193
-0.000246195
-0.000256636
-0.000265024
-0.0002717
-0.00027692
-0.000280889
-0.000283785
-0.000285759
-0.000286941
-0.00028744
-0.000287348
-0.000286746
-0.000285703
-0.000284278
-0.000282524
-0.000280485
-0.000278198
-0.000275699
-0.000273014
-0.000270168
-0.000267183
-0.000264078
-0.00026087
-0.000257572
-0.000254199
-0.000250762
-0.000247272
-0.000243738
-0.00024017
-0.000236574
-0.000232958
-0.000229329
-0.000225692
-0.000222054
-0.000218418
-0.00021479
-0.000211173
-0.000207571
-0.000203989
-0.000200428
-0.000196892
-0.000193383
-0.000189904
-0.000186456
-0.000183043
-0.000179665
-0.000176324
-0.000173021
-0.000169759
-0.000166537
-0.000163358
-0.00016022
-0.000157127
-0.000154078
-0.000151074
-0.000148114
-0.000145201
-0.000142333
-0.000139511
-0.000136735
-0.000134006
-0.000131322
-0.000128685
-0.000126093
-0.000123548
-0.000121047
-0.000118592
-0.000116181
-0.000113815
-0.000111492
-0.000109214
-0.000106976
-0.000104783
-0.000102628
-0.000100518
-9.84446e-05
-9.64142e-05
-9.44181e-05
-9.24644e-05
-9.05426e-05
-8.86623e-05
-8.68111e-05
-8.50005e-05
-8.32161e-05
-8.14712e-05
-7.97493e-05
-7.80661e-05
-7.64022e-05
-7.4776e-05
-7.31652e-05
-7.15914e-05
-7.00285e-05
-6.8502e-05
-6.69814e-05
-6.54969e-05
-6.40125e-05
-6.25641e-05
-6.11096e-05
-5.96912e-05
-5.82595e-05
-5.68645e-05
-5.54483e-05
-5.40696e-05
-5.26606e-05
-5.12907e-05
-4.98801e-05
-4.85109e-05
-4.70889e-05
-4.57117e-05
-4.42675e-05
-4.28732e-05
-4.13951e-05
-3.99733e-05
-3.84488e-05
-3.69881e-05
-3.54033e-05
-3.38916e-05
-3.22308e-05
-3.06552e-05
-2.89009e-05
-2.72473e-05
-2.53809e-05
-2.36333e-05
-2.16343e-05
-1.97759e-05
-1.76226e-05
-1.56367e-05
-1.331e-05
-1.11868e-05
-8.68626e-06
-6.45222e-06
-3.84597e-06
-1.64567e-06
0.000934393
0.000877891
0.000802972
0.000709877
0.000602188
0.000486081
0.00036915
0.000258686
0.000159997
7.56234e-05
5.66031e-06
-5.12688e-05
-9.70819e-05
-0.000133705
-0.000162893
-0.000186193
-0.000204909
-0.000220072
-0.00023244
-0.000242545
-0.000250761
-0.000257369
-0.000262595
-0.000266631
-0.000269641
-0.000271768
-0.00027313
-0.000273831
-0.000273956
-0.000273582
-0.000272773
-0.000271587
-0.000270071
-0.000268269
-0.000266216
-0.000263946
-0.000261486
-0.00025886
-0.000256089
-0.000253192
-0.000250187
-0.000247087
-0.000243907
-0.000240658
-0.000237352
-0.000233998
-0.000230606
-0.000227182
-0.000223736
-0.000220272
-0.000216799
-0.00021332
-0.000209841
-0.000206367
-0.000202903
-0.000199451
-0.000196015
-0.0001926
-0.000189206
-0.000185838
-0.000182498
-0.000179188
-0.000175909
-0.000172664
-0.000169454
-0.000166282
-0.000163147
-0.000160051
-0.000156995
-0.000153981
-0.000151008
-0.000148078
-0.000145191
-0.000142348
-0.000139547
-0.000136792
-0.00013408
-0.000131414
-0.00012879
-0.000126213
-0.000123678
-0.000121189
-0.000118743
-0.000116342
-0.000113982
-0.000111667
-0.000109393
-0.000107163
-0.000104972
-0.000102825
-0.000100715
-9.8648e-05
-9.66165e-05
-9.46275e-05
-9.26716e-05
-9.07574e-05
-8.88738e-05
-8.70311e-05
-8.52163e-05
-8.34415e-05
-8.16917e-05
-7.99812e-05
-7.82923e-05
-7.66418e-05
-7.50094e-05
-7.34146e-05
-7.18339e-05
-7.02901e-05
-6.8756e-05
-6.72584e-05
-6.57654e-05
-6.43086e-05
-6.28509e-05
-6.14292e-05
-6.00004e-05
-5.86078e-05
-5.72011e-05
-5.58311e-05
-5.44392e-05
-5.30848e-05
-5.16998e-05
-5.03535e-05
-4.89666e-05
-4.76205e-05
-4.62222e-05
-4.48677e-05
-4.34476e-05
-4.20754e-05
-4.06222e-05
-3.92221e-05
-3.77235e-05
-3.62842e-05
-3.47271e-05
-3.32363e-05
-3.16057e-05
-3.00505e-05
-2.83299e-05
-2.6696e-05
-2.48681e-05
-2.31395e-05
-2.11856e-05
-1.9346e-05
-1.72467e-05
-1.52803e-05
-1.30205e-05
-1.09196e-05
-8.50282e-06
-6.29245e-06
-3.77695e-06
-1.57074e-06
0.000862078
0.000810422
0.000743893
0.000662903
0.000570218
0.000470372
0.000368907
0.000271354
0.00018214
0.000103871
3.72839e-05
-1.8252e-05
-6.40518e-05
-0.0001016
-0.000132301
-0.000157403
-0.000177985
-0.000194938
-0.000208963
-0.000220581
-0.000230181
-0.000238057
-0.000244446
-0.00024955
-0.00025354
-0.000256567
-0.000258758
-0.000260222
-0.000261052
-0.000261329
-0.000261123
-0.000260493
-0.000259493
-0.000258168
-0.000256559
-0.000254701
-0.000252624
-0.000250355
-0.000247917
-0.000245332
-0.000242619
-0.000239794
-0.000236871
-0.000233866
-0.000230789
-0.000227651
-0.000224463
-0.000221233
-0.000217971
-0.000214682
-0.000211375
-0.000208054
-0.000204727
-0.000201398
-0.000198071
-0.000194752
-0.000191443
-0.000188149
-0.000184872
-0.000181617
-0.000178385
-0.000175179
-0.000172001
-0.000168854
-0.000165737
-0.000162656
-0.000159608
-0.000156598
-0.000153624
-0.00015069
-0.000147794
-0.00014494
-0.000142125
-0.000139353
-0.000136621
-0.000133933
-0.000131286
-0.000128683
-0.000126122
-0.000123604
-0.000121128
-0.000118696
-0.000116305
-0.000113958
-0.000111651
-0.000109388
-0.000107163
-0.000104982
-0.000102839
-0.000100738
-9.86734e-05
-9.66512e-05
-9.46627e-05
-9.27161e-05
-9.08011e-05
-8.89273e-05
-8.70828e-05
-8.52786e-05
-8.35011e-05
-8.17631e-05
-8.0049e-05
-7.83736e-05
-7.67188e-05
-7.51019e-05
-7.35021e-05
-7.19395e-05
-7.03901e-05
-6.88772e-05
-6.73733e-05
-6.59053e-05
-6.44413e-05
-6.3013e-05
-6.15834e-05
-6.01892e-05
-5.87878e-05
-5.74217e-05
-5.60418e-05
-5.46975e-05
-5.33319e-05
-5.20024e-05
-5.06434e-05
-4.93214e-05
-4.79606e-05
-4.66382e-05
-4.52663e-05
-4.39349e-05
-4.25418e-05
-4.11922e-05
-3.97671e-05
-3.83891e-05
-3.69202e-05
-3.55025e-05
-3.39773e-05
-3.25076e-05
-3.09121e-05
-2.93775e-05
-2.76959e-05
-2.60823e-05
-2.42986e-05
-2.25903e-05
-2.06876e-05
-1.88685e-05
-1.68298e-05
-1.48858e-05
-1.26992e-05
-1.06247e-05
-8.29565e-06
-6.11225e-06
-3.68704e-06
-1.47838e-06
0.000797091
0.00074992
0.000690624
0.000619719
0.000539383
0.000453013
0.000364705
0.00027864
0.000198386
0.000126357
6.3618e-05
1.00902e-05
-3.50188e-05
-7.27912e-05
-0.000104328
-0.000130637
-0.0001526
-0.000170971
-0.000186368
-0.000199283
-0.000210095
-0.000219102
-0.000226546
-0.00023263
-0.000237533
-0.000241406
-0.000244381
-0.000246573
-0.00024808
-0.000248984
-0.000249361
-0.000249273
-0.000248776
-0.000247919
-0.000246746
-0.000245294
-0.000243596
-0.000241682
-0.000239576
-0.000237302
-0.00023488
-0.000232329
-0.000229664
-0.000226902
-0.000224055
-0.000221135
-0.000218152
-0.000215118
-0.000212041
-0.000208929
-0.000205789
-0.000202629
-0.000199455
-0.000196272
-0.000193085
-0.0001899
-0.00018672
-0.000183549
-0.000180392
-0.000177251
-0.000174129
-0.000171029
-0.000167953
-0.000164905
-0.000161884
-0.000158895
-0.000155937
-0.000153013
-0.000150123
-0.00014727
-0.000144453
-0.000141676
-0.000138935
-0.000136235
-0.000133574
-0.000130954
-0.000128374
-0.000125835
-0.000123336
-0.00012088
-0.000118464
-0.00011609
-0.000113755
-0.000111464
-0.00010921
-0.000106999
-0.000104826
-0.000102695
-0.0001006
-9.85471e-05
-9.65285e-05
-9.45515e-05
-9.26071e-05
-9.07035e-05
-8.88306e-05
-8.69978e-05
-8.51934e-05
-8.34284e-05
-8.16893e-05
-7.99887e-05
-7.83112e-05
-7.66716e-05
-7.50519e-05
-7.34692e-05
-7.19031e-05
-7.03733e-05
-6.88563e-05
-6.73748e-05
-6.59021e-05
-6.44643e-05
-6.30306e-05
-6.16313e-05
-6.02311e-05
-5.88648e-05
-5.74921e-05
-5.61529e-05
-5.48012e-05
-5.3483e-05
-5.21453e-05
-5.08411e-05
-4.951e-05
-4.82125e-05
-4.68797e-05
-4.55811e-05
-4.42379e-05
-4.29297e-05
-4.15662e-05
-4.02393e-05
-3.8845e-05
-3.74893e-05
-3.60532e-05
-3.46573e-05
-3.31674e-05
-3.17192e-05
-3.01622e-05
-2.8649e-05
-2.70101e-05
-2.54181e-05
-2.36824e-05
-2.19963e-05
-2.01485e-05
-1.83533e-05
-1.63785e-05
-1.44616e-05
-1.23506e-05
-1.0308e-05
-8.06689e-06
-5.91631e-06
-3.57964e-06
-1.37956e-06
0.000738312
0.000695271
0.000642268
0.000579876
0.000509834
0.00043472
0.000357598
0.000281634
0.00020966
0.000143784
8.51799e-05
3.41262e-05
-9.75304e-06
-4.71841e-05
-7.89981e-05
-0.000105995
-0.000128892
-0.000148316
-0.000164799
-0.000178782
-0.000190624
-0.000200614
-0.000208993
-0.000215962
-0.000221697
-0.000226352
-0.00023006
-0.000232937
-0.000235084
-0.000236587
-0.000237523
-0.000237957
-0.000237947
-0.000237547
-0.000236799
-0.000235745
-0.000234419
-0.000232854
-0.000231075
-0.000229109
-0.000226977
-0.000224699
-0.000222292
-0.000219773
-0.000217155
-0.000214453
-0.000211677
-0.000208839
-0.000205949
-0.000203014
-0.000200044
-0.000197046
-0.000194026
-0.000190991
-0.000187947
-0.000184897
-0.000181848
-0.000178803
-0.000175766
-0.000172741
-0.000169731
-0.00016674
-0.000163768
-0.000160821
-0.000157898
-0.000155002
-0.000152136
-0.000149301
-0.000146497
-0.000143727
-0.000140991
-0.000138292
-0.000135627
-0.000133001
-0.000130412
-0.000127862
-0.00012535
-0.000122878
-0.000120444
-0.00011805
-0.000115695
-0.000113381
-0.000111104
-0.000108869
-0.000106671
-0.000104514
-0.000102393
-0.000100313
-9.82679e-05
-9.62636e-05
-9.42926e-05
-9.23618e-05
-9.04628e-05
-8.86033e-05
-8.67737e-05
-8.4983e-05
-8.32199e-05
-8.1495e-05
-7.97953e-05
-7.8133e-05
-7.64934e-05
-7.48902e-05
-7.33068e-05
-7.1759e-05
-7.02278e-05
-6.87314e-05
-6.7248e-05
-6.57985e-05
-6.43583e-05
-6.29511e-05
-6.15489e-05
-6.01791e-05
-5.88096e-05
-5.74716e-05
-5.6129e-05
-5.48171e-05
-5.34951e-05
-5.22032e-05
-5.0895e-05
-4.96163e-05
-4.83147e-05
-4.7042e-05
-4.5739e-05
-4.44646e-05
-4.31517e-05
-4.18672e-05
-4.0535e-05
-3.92314e-05
-3.78699e-05
-3.65371e-05
-3.51358e-05
-3.37625e-05
-3.23101e-05
-3.08845e-05
-2.93681e-05
-2.7878e-05
-2.62838e-05
-2.47157e-05
-2.30298e-05
-2.13692e-05
-1.95776e-05
-1.78107e-05
-1.59007e-05
-1.40164e-05
-1.19807e-05
-9.97656e-06
-7.82084e-06
-5.71061e-06
-3.46017e-06
-1.28414e-06
0.000684843
0.000645601
0.000598119
0.00054299
0.000481615
0.00041597
0.00034837
0.000281232
0.000216786
0.000156814
0.000102462
5.42102e-05
1.19832e-05
-2.4649e-05
-5.62776e-05
-8.35195e-05
-0.000106951
-0.000127084
-0.00014437
-0.000159192
-0.000171876
-0.000182696
-0.000191881
-0.000199628
-0.000206109
-0.000211474
-0.000215855
-0.000219368
-0.000222113
-0.00022418
-0.000225646
-0.000226578
-0.000227036
-0.000227074
-0.000226739
-0.000226071
-0.000225109
-0.000223886
-0.000222429
-0.000220766
-0.00021892
-0.000216911
-0.00021476
-0.000212482
-0.000210094
-0.000207609
-0.00020504
-0.000202399
-0.000199696
-0.00019694
-0.00019414
-0.000191305
-0.000188442
-0.000185556
-0.000182655
-0.000179743
-0.000176826
-0.000173909
-0.000170994
-0.000168088
-0.000165192
-0.00016231
-0.000159445
-0.000156601
-0.000153777
-0.000150978
-0.000148205
-0.000145461
-0.000142745
-0.00014006
-0.000137407
-0.000134788
-0.000132202
-0.000129652
-0.000127137
-0.000124659
-0.000122216
-0.000119813
-0.000117445
-0.000115116
-0.000112824
-0.000110571
-0.000108354
-0.000106177
-0.000104036
-0.000101934
-9.98675e-05
-9.78403e-05
-9.58468e-05
-9.38925e-05
-9.19707e-05
-9.00877e-05
-8.82355e-05
-8.64214e-05
-8.46365e-05
-8.28891e-05
-8.11688e-05
-7.94851e-05
-7.78264e-05
-7.62034e-05
-7.46029e-05
-7.30373e-05
-7.14916e-05
-6.99796e-05
-6.84846e-05
-6.70224e-05
-6.5574e-05
-6.41573e-05
-6.27509e-05
-6.13751e-05
-6.00058e-05
-5.86661e-05
-5.73286e-05
-5.60196e-05
-5.47084e-05
-5.34245e-05
-5.21335e-05
-5.08686e-05
-4.95912e-05
-4.83387e-05
-4.7068e-05
-4.58207e-05
-4.4549e-05
-4.32994e-05
-4.20184e-05
-4.07584e-05
-3.9459e-05
-3.81795e-05
-3.68523e-05
-3.55435e-05
-3.41784e-05
-3.28292e-05
-3.14154e-05
-3.00144e-05
-2.85396e-05
-2.70751e-05
-2.55263e-05
-2.39853e-05
-2.23495e-05
-2.07186e-05
-1.89832e-05
-1.72496e-05
-1.54036e-05
-1.35579e-05
-1.15954e-05
-9.6363e-06
-7.56233e-06
-5.50059e-06
-3.33407e-06
-1.19829e-06
0.000635945
0.00060021
0.000557609
0.000508731
0.000454711
0.000397077
0.000337604
0.000278151
0.000220478
0.00016606
0.000115943
7.06937e-05
3.04361e-05
-5.03082e-06
-3.60934e-05
-6.32064e-05
-8.68206e-05
-0.000107351
-0.00012517
-0.000140606
-0.000153945
-0.000165437
-0.000175296
-0.000183709