/*--------------------------------*- C++ -*----------------------------------*\
| =========                 |                                                 |
| \\      /  F ield         | OpenFOAM: The Open Source CFD Toolbox           |
|  \\    /   O peration     | Version:  2.3.0                                 |
|   \\  /    A nd           | Web:      www.OpenFOAM.org                      |
|    \\/     M anipulation  |                                                 |
\*---------------------------------------------------------------------------*/
FoamFile
{
    version     2.0;
    format      ascii;
    class       surfaceScalarField;
    location    "0.85";
    object      phi;
}
// * * * * * * * * * * * * * * * * * * * * * * * * * * * * * * * * * * * * * //

dimensions      [0 3 -1 0 0 0 0];

internalField   nonuniform List<scalar> 
11667
(
2.25813e-08
2.21213e-09
-2.47934e-08
1.98972e-08
2.68412e-09
1.72284e-08
2.6688e-09
1.47755e-08
2.45288e-09
1.25729e-08
2.20262e-09
1.06657e-08
1.90718e-09
9.10122e-09
1.56449e-09
7.88003e-09
1.22119e-09
6.96868e-09
9.11348e-10
6.30797e-09
6.60719e-10
5.83283e-09
4.75136e-10
5.48621e-09
3.46621e-10
5.22406e-09
2.62148e-10
5.01509e-09
2.08976e-10
4.8383e-09
1.76783e-10
4.681e-09
1.57299e-10
4.5364e-09
1.44602e-10
4.40133e-09
1.35073e-10
4.27449e-09
1.26838e-10
4.15539e-09
1.19105e-10
4.04373e-09
1.11652e-10
3.93924e-09
1.04497e-10
3.84151e-09
9.77309e-11
3.75007e-09
9.14356e-11
3.66441e-09
8.56575e-11
3.58401e-09
8.04037e-11
3.50836e-09
7.56514e-11
3.437e-09
7.13602e-11
3.36952e-09
6.74818e-11
3.30555e-09
6.39668e-11
3.24478e-09
6.07692e-11
3.18693e-09
5.78476e-11
3.13177e-09
5.51664e-11
3.07907e-09
5.26955e-11
3.02866e-09
5.04096e-11
2.98037e-09
4.82875e-11
2.93406e-09
4.63115e-11
2.88959e-09
4.44667e-11
2.84685e-09
4.27403e-11
2.80573e-09
4.11215e-11
2.76613e-09
3.96007e-11
2.72796e-09
3.81698e-11
2.69114e-09
3.68213e-11
2.65559e-09
3.55488e-11
2.62125e-09
3.43463e-11
2.58804e-09
3.32087e-11
2.55591e-09
3.2131e-11
2.5248e-09
3.1109e-11
2.49466e-09
3.01386e-11
2.46544e-09
2.92163e-11
2.4371e-09
2.83387e-11
2.4096e-09
2.75031e-11
2.38289e-09
2.67063e-11
2.35695e-09
2.59461e-11
2.33173e-09
2.522e-11
2.3072e-09
2.45262e-11
2.28334e-09
2.38622e-11
2.26011e-09
2.32269e-11
2.23749e-09
2.2618e-11
2.21546e-09
2.20346e-11
2.19399e-09
2.14746e-11
2.17305e-09
2.09375e-11
2.15263e-09
2.04211e-11
2.1327e-09
1.99254e-11
2.11325e-09
1.94481e-11
2.09426e-09
1.89896e-11
2.07572e-09
1.85475e-11
2.05759e-09
1.81226e-11
2.03988e-09
1.77123e-11
2.02256e-09
1.73177e-11
2.00563e-09
1.69361e-11
1.98906e-09
1.65691e-11
1.97285e-09
1.62137e-11
1.95697e-09
1.58717e-11
1.94143e-09
1.554e-11
1.92621e-09
1.52209e-11
1.9113e-09
1.49108e-11
1.89669e-09
1.46128e-11
1.88237e-09
1.43224e-11
1.86832e-09
1.40436e-11
1.85455e-09
1.37713e-11
1.84104e-09
1.35102e-11
1.82779e-09
1.32543e-11
1.81478e-09
1.30095e-11
1.80201e-09
1.27688e-11
1.78947e-09
1.25392e-11
1.77716e-09
1.23123e-11
1.76506e-09
1.20967e-11
1.75318e-09
1.18825e-11
1.7415e-09
1.168e-11
1.73002e-09
1.14773e-11
1.71873e-09
1.1287e-11
1.70764e-09
1.10949e-11
1.69672e-09
1.09162e-11
1.68599e-09
1.07337e-11
1.67542e-09
1.05658e-11
1.66503e-09
1.0392e-11
1.6548e-09
1.02345e-11
1.64473e-09
1.00685e-11
1.63481e-09
9.9209e-12
1.62505e-09
9.76196e-12
1.61542e-09
9.62389e-12
1.60595e-09
9.47113e-12
1.59661e-09
9.34242e-12
1.58741e-09
9.19499e-12
1.57834e-09
9.07553e-12
1.5694e-09
8.93257e-12
1.56058e-09
8.82239e-12
1.5519e-09
8.68302e-12
1.54332e-09
8.58228e-12
1.53487e-09
8.44551e-12
1.52652e-09
8.35452e-12
1.5183e-09
8.21933e-12
1.51016e-09
8.13864e-12
1.50216e-09
8.00386e-12
1.49422e-09
7.93417e-12
1.48642e-09
7.7985e-12
1.47868e-09
7.74081e-12
1.47108e-09
7.60276e-12
1.46352e-09
7.55836e-12
1.4561e-09
7.41616e-12
1.44872e-09
7.38672e-12
1.44148e-09
7.23836e-12
1.43425e-09
7.22595e-12
1.42718e-09
7.06894e-12
1.42011e-09
7.07633e-12
1.4132e-09
6.90764e-12
1.40626e-09
6.93832e-12
1.39951e-09
6.7541e-12
1.3927e-09
6.81261e-12
1.38609e-09
6.60811e-12
1.37939e-09
6.70017e-12
1.37292e-09
6.46947e-12
1.36632e-09
6.60234e-12
1.35998e-09
6.33798e-12
1.35346e-09
6.52104e-12
1.34724e-09
6.21339e-12
1.34078e-09
6.45899e-12
1.33469e-09
6.09539e-12
1.32827e-09
6.41991e-12
1.32229e-09
5.98367e-12
1.31588e-09
6.40928e-12
1.31e-09
5.87772e-12
1.30356e-09
6.4361e-12
1.29779e-09
5.77708e-12
1.29127e-09
6.5177e-12
1.28558e-09
5.6845e-12
1.27887e-09
6.70914e-12
1.2732e-09
5.66998e-12
8.16726e-12
2.6833e-08
1.97271e-09
-2.65936e-08
2.67183e-08
2.79883e-09
2.62054e-08
3.18171e-09
2.54549e-08
3.20336e-09
2.4567e-08
3.0905e-09
2.35728e-08
2.90146e-09
2.24978e-08
2.63941e-09
2.13945e-08
2.32448e-09
2.03136e-08
1.99229e-09
1.92917e-08
1.68259e-09
1.83476e-08
1.41927e-09
1.74868e-08
1.20736e-09
1.67089e-08
1.04014e-09
1.60103e-08
9.07545e-10
1.53837e-08
8.03335e-10
1.48206e-08
7.20464e-10
1.43122e-08
6.52941e-10
1.38509e-08
5.96363e-10
1.343e-08
5.47783e-10
1.30438e-08
5.05316e-10
1.26877e-08
4.6776e-10
1.23579e-08
4.34319e-10
1.20512e-08
4.04427e-10
1.17649e-08
3.77656e-10
1.1497e-08
3.53645e-10
1.12453e-08
3.32074e-10
1.10083e-08
3.12655e-10
1.07845e-08
2.95122e-10
1.05728e-08
2.79242e-10
1.03719e-08
2.64804e-10
1.01811e-08
2.51629e-10
9.99935e-09
2.3956e-10
9.82605e-09
2.28462e-10
9.66053e-09
2.18222e-10
9.50219e-09
2.08744e-10
9.35054e-09
1.99945e-10
9.20509e-09
1.91753e-10
9.06545e-09
1.8411e-10
8.93123e-09
1.76961e-10
8.80209e-09
1.70263e-10
8.67771e-09
1.63975e-10
8.55782e-09
1.58062e-10
8.44215e-09
1.52493e-10
8.33046e-09
1.47239e-10
8.22253e-09
1.42277e-10
8.11816e-09
1.37583e-10
8.01715e-09
1.33138e-10
7.91933e-09
1.28923e-10
7.82455e-09
1.24921e-10
7.73265e-09
1.21118e-10
7.64349e-09
1.175e-10
7.55694e-09
1.14054e-10
7.47288e-09
1.10768e-10
7.39119e-09
1.07633e-10
7.31177e-09
1.04639e-10
7.23452e-09
1.01777e-10
7.15934e-09
9.90384e-11
7.08615e-09
9.6417e-11
7.01487e-09
9.39048e-11
6.9454e-09
9.14967e-11
6.87769e-09
8.91854e-11
6.81166e-09
8.69673e-11
6.74725e-09
8.48354e-11
6.68439e-09
8.27872e-11
6.62302e-09
8.0816e-11
6.56309e-09
7.89203e-11
6.50454e-09
7.70936e-11
6.44733e-09
7.53355e-11
6.3914e-09
7.36392e-11
6.33671e-09
7.20055e-11
6.28322e-09
7.04272e-11
6.23089e-09
6.89063e-11
6.17966e-09
6.74352e-11
6.12952e-09
6.60171e-11
6.08042e-09
6.46434e-11
6.03232e-09
6.33189e-11
5.98519e-09
6.20342e-11
5.93901e-09
6.07954e-11
5.89374e-09
5.95919e-11
5.84935e-09
5.84317e-11
5.80582e-09
5.73027e-11
5.76312e-09
5.62147e-11
5.72122e-09
5.51538e-11
5.6801e-09
5.41324e-11
5.63973e-09
5.3134e-11
5.6001e-09
5.21741e-11
5.56117e-09
5.12332e-11
5.52294e-09
5.03302e-11
5.48538e-09
4.94422e-11
5.44847e-09
4.8592e-11
5.41219e-09
4.77524e-11
5.37653e-09
4.69514e-11
5.34147e-09
4.61565e-11
5.30698e-09
4.54014e-11
5.27307e-09
4.46475e-11
5.2397e-09
4.39354e-11
5.20687e-09
4.32191e-11
5.17456e-09
4.25476e-11
5.14276e-09
4.18656e-11
5.11145e-09
4.12324e-11
5.08063e-09
4.05818e-11
5.05027e-09
3.9985e-11
5.02038e-09
3.93629e-11
4.99092e-09
3.8801e-11
4.96191e-09
3.82045e-11
4.93331e-09
3.76764e-11
4.90514e-09
3.71028e-11
4.87735e-09
3.66076e-11
4.84998e-09
3.60541e-11
4.82297e-09
3.55913e-11
4.79636e-09
3.50552e-11
4.77009e-09
3.46249e-11
4.74421e-09
3.41031e-11
4.71864e-09
3.37057e-11
4.69345e-09
3.31953e-11
4.66855e-09
3.28318e-11
4.64402e-09
3.23295e-11
4.61976e-09
3.20015e-11
4.59586e-09
3.15037e-11
4.57221e-09
3.12133e-11
4.54891e-09
3.0716e-11
4.52583e-09
3.04665e-11
4.5031e-09
2.99651e-11
4.48056e-09
2.97606e-11
4.45838e-09
2.92499e-11
4.43636e-09
2.90957e-11
4.4147e-09
2.85693e-11
4.39317e-09
2.84727e-11
4.372e-09
2.79228e-11
4.35092e-09
2.78928e-11
4.33022e-09
2.73101e-11
4.30956e-09
2.73584e-11
4.2893e-09
2.67314e-11
4.26903e-09
2.68726e-11
4.24918e-09
2.61874e-11
4.22926e-09
2.64401e-11
4.20979e-09
2.56794e-11
4.19018e-09
2.60675e-11
4.17107e-09
2.52094e-11
4.15173e-09
2.57635e-11
4.13293e-09
2.47811e-11
4.1138e-09
2.55407e-11
4.09527e-09
2.4401e-11
4.07629e-09
2.54181e-11
4.05799e-09
2.40822e-11
4.03908e-09
2.54297e-11
4.02089e-09
2.38649e-11
4.00191e-09
2.56949e-11
3.98352e-09
2.4057e-11
2.81519e-11
2.78632e-08
1.85997e-09
-2.77504e-08
2.81733e-08
2.48866e-09
2.83964e-08
2.95864e-09
2.84644e-08
3.13535e-09
2.84204e-08
3.13448e-09
2.8272e-08
3.04987e-09
2.80084e-08
2.90308e-09
2.76349e-08
2.69796e-09
2.71734e-08
2.45378e-09
2.66531e-08
2.20288e-09
2.60997e-08
1.97264e-09
2.55317e-08
1.77541e-09
2.49611e-08
1.61075e-09
2.43955e-08
1.4731e-09
2.38411e-08
1.35777e-09
2.33015e-08
1.26001e-09
2.27789e-08
1.17552e-09
2.22744e-08
1.10092e-09
2.17883e-08
1.03384e-09
2.13209e-08
9.72755e-10
2.0872e-08
9.16686e-10
2.04413e-08
8.65008e-10
2.00284e-08
8.17281e-10
1.96329e-08
7.73186e-10
1.92541e-08
7.3245e-10
1.88913e-08
6.94819e-10
1.85439e-08
6.60046e-10
1.82112e-08
6.27897e-10
1.78923e-08
5.98143e-10
1.75865e-08
5.70572e-10
1.72931e-08
5.44987e-10
1.70115e-08
5.21206e-10
1.67409e-08
4.99064e-10
1.64807e-08
4.78413e-10
1.62303e-08
4.5912e-10
1.59892e-08
4.41064e-10
1.57568e-08
4.2414e-10
1.55327e-08
4.0825e-10
1.53163e-08
3.93309e-10
1.51074e-08
3.7924e-10
1.49054e-08
3.65973e-10
1.471e-08
3.53446e-10
1.45209e-08
3.41601e-10
1.43377e-08
3.30389e-10
1.41602e-08
3.19762e-10
1.39881e-08
3.09678e-10
1.38212e-08
3.00099e-10
1.36591e-08
2.9099e-10
1.35017e-08
2.82318e-10
1.33488e-08
2.74056e-10
1.32001e-08
2.66176e-10
1.30555e-08
2.58654e-10
1.29148e-08
2.51466e-10
1.27778e-08
2.44594e-10
1.26445e-08
2.38016e-10
1.25145e-08
2.31718e-10
1.23879e-08
2.2568e-10
1.22644e-08
2.1989e-10
1.2144e-08
2.14333e-10
1.20265e-08
2.08997e-10
1.19118e-08
2.03868e-10
1.17998e-08
1.98937e-10
1.16905e-08
1.94193e-10
1.15836e-08
1.89627e-10
1.14792e-08
1.85228e-10
1.13771e-08
1.80991e-10
1.12773e-08
1.76904e-10
1.11797e-08
1.72965e-10
1.10842e-08
1.6916e-10
1.09907e-08
1.65491e-10
1.08992e-08
1.61943e-10
1.08096e-08
1.5852e-10
1.07218e-08
1.55206e-10
1.06358e-08
1.52006e-10
1.05515e-08
1.48906e-10
1.0469e-08
1.45911e-10
1.0388e-08
1.43006e-10
1.03086e-08
1.40199e-10
1.02307e-08
1.37473e-10
1.01543e-08
1.34839e-10
1.00793e-08
1.32278e-10
1.00057e-08
1.29803e-10
9.93349e-09
1.27392e-10
9.86256e-09
1.25064e-10
9.7929e-09
1.22792e-10
9.72448e-09
1.206e-10
9.65725e-09
1.18456e-10
9.59119e-09
1.1639e-10
9.52627e-09
1.14365e-10
9.46245e-09
1.12415e-10
9.3997e-09
1.10499e-10
9.338e-09
1.08657e-10
9.27731e-09
1.06842e-10
9.21761e-09
1.05102e-10
9.15888e-09
1.0338e-10
9.10108e-09
1.01734e-10
9.0442e-09
1.00098e-10
8.98821e-09
9.85413e-11
8.93309e-09
9.69842e-11
8.87881e-09
9.55113e-11
8.82536e-09
9.4027e-11
8.77272e-09
9.2633e-11
8.72086e-09
9.12157e-11
8.66977e-09
8.98968e-11
8.61943e-09
8.85409e-11
8.56981e-09
8.72937e-11
8.52092e-09
8.59936e-11
8.47272e-09
8.48155e-11
8.4252e-09
8.35661e-11
8.37834e-09
8.24548e-11
8.33214e-09
8.1251e-11
8.28656e-09
8.02052e-11
8.24163e-09
7.90417e-11
8.19727e-09
7.80609e-11
8.15353e-09
7.69327e-11
8.11035e-09
7.60168e-11
8.06776e-09
7.49185e-11
8.02569e-09
7.40688e-11
7.9842e-09
7.29949e-11
7.9432e-09
7.22132e-11
7.90276e-09
7.1158e-11
7.86278e-09
7.04476e-11
7.82334e-09
6.94046e-11
7.78433e-09
6.87699e-11
7.74585e-09
6.77323e-11
7.70776e-09
6.71797e-11
7.67019e-09
6.61394e-11
7.63299e-09
6.56773e-11
7.59628e-09
6.46249e-11
7.55991e-09
6.42643e-11
7.52403e-09
6.31888e-11
7.48845e-09
6.29435e-11
7.45335e-09
6.18326e-11
7.4185e-09
6.17197e-11
7.38413e-09
6.05592e-11
7.34997e-09
6.05997e-11
7.31628e-09
5.93733e-11
7.28275e-09
5.95932e-11
7.24968e-09
5.82825e-11
7.21673e-09
5.87133e-11
7.18421e-09
5.72995e-11
7.15177e-09
5.79777e-11
7.11973e-09
5.6445e-11
7.08773e-09
5.7413e-11
7.05606e-09
5.57567e-11
7.02442e-09
5.70682e-11
6.99296e-09
5.53234e-11
6.9615e-09
5.71541e-11
6.92995e-09
5.56103e-11
5.98583e-11
2.88739e-08
1.81447e-09
-2.88284e-08
2.91001e-08
2.26245e-09
2.9392e-08
2.66674e-09
2.96335e-08
2.89383e-09
2.98168e-08
2.95121e-09
2.99511e-08
2.91559e-09
3.00272e-08
2.82692e-09
3.00318e-08
2.69336e-09
2.99616e-08
2.52404e-09
2.9826e-08
2.33848e-09
2.96399e-08
2.15866e-09
2.94171e-08
1.99826e-09
2.91668e-08
1.86099e-09
2.88954e-08
1.74456e-09
2.8608e-08
1.64517e-09
2.83087e-08
1.55926e-09
2.80006e-08
1.48367e-09
2.76857e-08
1.41582e-09
2.73657e-08
1.35378e-09
2.70422e-08
1.29626e-09
2.67165e-08
1.24241e-09
2.63898e-08
1.19172e-09
2.60632e-08
1.14386e-09
2.57378e-08
1.0986e-09
2.54145e-08
1.05579e-09
2.5094e-08
1.01529e-09
2.47771e-08
9.76956e-10
2.44643e-08
9.40666e-10
2.41562e-08
9.06294e-10
2.3853e-08
8.73718e-10
2.35552e-08
8.42823e-10
2.32629e-08
8.13501e-10
2.29763e-08
7.8565e-10
2.26955e-08
7.59177e-10
2.24207e-08
7.33997e-10
2.21517e-08
7.10029e-10
2.18886e-08
6.87201e-10
2.16314e-08
6.65445e-10
2.138e-08
6.44697e-10
2.11344e-08
6.24901e-10
2.08944e-08
6.06001e-10
2.06599e-08
5.87947e-10
2.04308e-08
5.70692e-10
2.0207e-08
5.5419e-10
1.99883e-08
5.38401e-10
1.97747e-08
5.23285e-10
1.9566e-08
5.08806e-10
1.93621e-08
4.94929e-10
1.91628e-08
4.81621e-10
1.8968e-08
4.68854e-10
1.87776e-08
4.56597e-10
1.85914e-08
4.44825e-10
1.84093e-08
4.33512e-10
1.82313e-08
4.22635e-10
1.80571e-08
4.12172e-10
1.78868e-08
4.02102e-10
1.772e-08
3.92405e-10
1.75569e-08
3.83065e-10
1.73971e-08
3.74061e-10
1.72407e-08
3.65381e-10
1.70876e-08
3.57006e-10
1.69376e-08
3.48926e-10
1.67907e-08
3.41122e-10
1.66467e-08
3.33588e-10
1.65056e-08
3.26305e-10
1.63674e-08
3.19269e-10
1.62318e-08
3.12462e-10
1.60989e-08
3.05881e-10
1.59685e-08
2.9951e-10
1.58407e-08
2.93347e-10
1.57153e-08
2.87374e-10
1.55922e-08
2.81594e-10
1.54714e-08
2.75989e-10
1.53528e-08
2.70562e-10
1.52365e-08
2.65294e-10
1.51222e-08
2.60192e-10
1.50099e-08
2.55235e-10
1.48997e-08
2.50433e-10
1.47914e-08
2.45764e-10
1.4685e-08
2.4124e-10
1.45805e-08
2.36836e-10
1.44777e-08
2.32569e-10
1.43767e-08
2.28411e-10
1.42774e-08
2.24383e-10
1.41797e-08
2.20453e-10
1.40836e-08
2.16646e-10
1.39892e-08
2.12927e-10
1.38962e-08
2.09327e-10
1.38048e-08
2.05803e-10
1.37148e-08
2.02396e-10
1.36263e-08
1.99054e-10
1.35391e-08
1.95826e-10
1.34533e-08
1.92653e-10
1.33688e-08
1.89593e-10
1.32856e-08
1.86576e-10
1.32037e-08
1.83673e-10
1.3123e-08
1.80802e-10
1.30435e-08
1.78047e-10
1.29651e-08
1.75311e-10
1.28879e-08
1.72695e-10
1.28119e-08
1.70085e-10
1.27369e-08
1.67599e-10
1.2663e-08
1.65105e-10
1.25902e-08
1.62744e-10
1.25184e-08
1.60358e-10
1.24475e-08
1.58115e-10
1.23777e-08
1.55828e-10
1.23088e-08
1.53697e-10
1.22409e-08
1.51502e-10
1.21739e-08
1.4948e-10
1.21077e-08
1.47368e-10
1.20425e-08
1.45451e-10
1.19781e-08
1.43417e-10
1.19146e-08
1.41602e-10
1.18519e-08
1.39637e-10
1.179e-08
1.37923e-10
1.17289e-08
1.36021e-10
1.16685e-08
1.34407e-10
1.1609e-08
1.32561e-10
1.15501e-08
1.31047e-10
1.1492e-08
1.29251e-10
1.14347e-08
1.27839e-10
1.1378e-08
1.26085e-10
1.1322e-08
1.24778e-10
1.12666e-08
1.23059e-10
1.1212e-08
1.21863e-10
1.11579e-08
1.20172e-10
1.11045e-08
1.19093e-10
1.10517e-08
1.17421e-10
1.09995e-08
1.16469e-10
1.09479e-08
1.14808e-10
1.08968e-08
1.13995e-10
1.08463e-08
1.12335e-10
1.07964e-08
1.11674e-10
1.07469e-08
1.1001e-10
1.0698e-08
1.09517e-10
1.06495e-08
1.0784e-10
1.06016e-08
1.07536e-10
1.0554e-08
1.05842e-10
1.0507e-08
1.05746e-10
1.04603e-08
1.0404e-10
1.04141e-08
1.04172e-10
1.0368e-08
1.02468e-10
1.03226e-08
1.02852e-10
1.02772e-08
1.01186e-10
1.02324e-08
1.01866e-10
1.01874e-08
1.00313e-10
1.0143e-08
1.01532e-10
1.00982e-08
1.00378e-10
1.03856e-10
2.99025e-08
1.7661e-09
-2.98542e-08
3.00589e-08
2.10606e-09
3.02994e-08
2.42624e-09
3.05421e-08
2.65114e-09
3.0751e-08
2.74235e-09
3.09295e-08
2.73709e-09
3.10796e-08
2.67685e-09
3.11925e-08
2.58045e-09
3.126e-08
2.45646e-09
3.12823e-08
2.31623e-09
3.12664e-08
2.17456e-09
3.1221e-08
2.0436e-09
3.11528e-08
1.92921e-09
3.10659e-08
1.83143e-09
3.09635e-08
1.74766e-09
3.08477e-08
1.67504e-09
3.07202e-08
1.61111e-09
3.05822e-08
1.55382e-09
3.04344e-08
1.50159e-09
3.02774e-08
1.45324e-09
3.01119e-08
1.40797e-09
2.99384e-08
1.36524e-09
2.97575e-08
1.32469e-09
2.95701e-08
1.28609e-09
2.93766e-08
1.24925e-09
2.91778e-08
1.21404e-09
2.89744e-08
1.18035e-09
2.8767e-08
1.14808e-09
2.85562e-08
1.11711e-09
2.83426e-08
1.08737e-09
2.81266e-08
1.05876e-09
2.79089e-08
1.03123e-09
2.76899e-08
1.0047e-09
2.74699e-08
9.79115e-10
2.72495e-08
9.54418e-10
2.7029e-08
9.30566e-10
2.68086e-08
9.07514e-10
2.65889e-08
8.85227e-10
2.63699e-08
8.63669e-10
2.6152e-08
8.4281e-10
2.59354e-08
8.22621e-10
2.57202e-08
8.03077e-10
2.55068e-08
7.84151e-10
2.52951e-08
7.65822e-10
2.50855e-08
7.48066e-10
2.48779e-08
7.30865e-10
2.46725e-08
7.14196e-10
2.44694e-08
6.98042e-10
2.42686e-08
6.82384e-10
2.40703e-08
6.67205e-10
2.38744e-08
6.52488e-10
2.3681e-08
6.38218e-10
2.34901e-08
6.24377e-10
2.33018e-08
6.10952e-10
2.31161e-08
5.97927e-10
2.29329e-08
5.85291e-10
2.27522e-08
5.73026e-10
2.25742e-08
5.61124e-10
2.23987e-08
5.49569e-10
2.22257e-08
5.38352e-10
2.20553e-08
5.27458e-10
2.18873e-08
5.1688e-10
2.17218e-08
5.06602e-10
2.15588e-08
4.96621e-10
2.13982e-08
4.86919e-10
2.12399e-08
4.77493e-10
2.10841e-08
4.68328e-10
2.09305e-08
4.59423e-10
2.07793e-08
4.50759e-10
2.06303e-08
4.42339e-10
2.04835e-08
4.34145e-10
2.03389e-08
4.26179e-10
2.01965e-08
4.18422e-10
2.00562e-08
4.10881e-10
1.9918e-08
4.03534e-10
1.97818e-08
3.9639e-10
1.96476e-08
3.89427e-10
1.95153e-08
3.82655e-10
1.93851e-08
3.76051e-10
1.92567e-08
3.69627e-10
1.91301e-08
3.63359e-10
1.90054e-08
3.57262e-10
1.88826e-08
3.51308e-10
1.87614e-08
3.45519e-10
1.8642e-08
3.39859e-10
1.85243e-08
3.34357e-10
1.84083e-08
3.28974e-10
1.82938e-08
3.23742e-10
1.8181e-08
3.18617e-10
1.80698e-08
3.1364e-10
1.79601e-08
3.08758e-10
1.78519e-08
3.04019e-10
1.77452e-08
2.99364e-10
1.76399e-08
2.94851e-10
1.75361e-08
2.90408e-10
1.74336e-08
2.86107e-10
1.73326e-08
2.81864e-10
1.72329e-08
2.77763e-10
1.71345e-08
2.73707e-10
1.70374e-08
2.69794e-10
1.69415e-08
2.65914e-10
1.6847e-08
2.6218e-10
1.67536e-08
2.58463e-10
1.66615e-08
2.54899e-10
1.65705e-08
2.51336e-10
1.64807e-08
2.47932e-10
1.6392e-08
2.44513e-10
1.63044e-08
2.41263e-10
1.62179e-08
2.37978e-10
1.61325e-08
2.34874e-10
1.60482e-08
2.31714e-10
1.59649e-08
2.28752e-10
1.58826e-08
2.25709e-10
1.58013e-08
2.22884e-10
1.5721e-08
2.1995e-10
1.56417e-08
2.17256e-10
1.55633e-08
2.14425e-10
1.54858e-08
2.1186e-10
1.54092e-08
2.09124e-10
1.53336e-08
2.06686e-10
1.52588e-08
2.04039e-10
1.51849e-08
2.01727e-10
1.51119e-08
1.99163e-10
1.50397e-08
1.96977e-10
1.49682e-08
1.94491e-10
1.48977e-08
1.92434e-10
1.48278e-08
1.90021e-10
1.47588e-08
1.88094e-10
1.46905e-08
1.85751e-10
1.4623e-08
1.8396e-10
1.45561e-08
1.81684e-10
1.44901e-08
1.80034e-10
1.44246e-08
1.77825e-10
1.43599e-08
1.76322e-10
1.42958e-08
1.74184e-10
1.42324e-08
1.72834e-10
1.41695e-08
1.70776e-10
1.41075e-08
1.69585e-10
1.40457e-08
1.67624e-10
1.39848e-08
1.66599e-10
1.39241e-08
1.64762e-10
1.38644e-08
1.63909e-10
1.38046e-08
1.62235e-10
1.37459e-08
1.61571e-10
1.36869e-08
1.60117e-10
1.36291e-08
1.59705e-10
1.35709e-08
1.58548e-10
1.35137e-08
1.58707e-10
1.3456e-08
1.58083e-10
1.60166e-10
3.09302e-08
1.71029e-09
-3.08744e-08
3.10526e-08
1.98362e-09
3.12423e-08
2.23661e-09
3.14551e-08
2.43835e-09
3.1652e-08
2.54542e-09
3.18242e-08
2.56491e-09
3.19743e-08
2.5267e-09
3.21006e-08
2.45419e-09
3.21979e-08
2.35913e-09
3.22644e-08
2.24973e-09
3.23034e-08
2.13558e-09
3.23208e-08
2.02619e-09
3.23221e-08
1.92787e-09
3.23112e-08
1.84242e-09
3.22902e-08
1.76865e-09
3.22607e-08
1.7045e-09
3.22238e-08
1.64802e-09
3.218e-08
1.59761e-09
3.21296e-08
1.55198e-09
3.20727e-08
1.51012e-09
3.20094e-08
1.4713e-09
3.19397e-08
1.43497e-09
3.18636e-08
1.40075e-09
3.17813e-08
1.36836e-09
3.1693e-08
1.33758e-09
3.15988e-08
1.30826e-09
3.14989e-08
1.28025e-09
3.13936e-08
1.25342e-09
3.1283e-08
1.22767e-09
3.11675e-08
1.2029e-09
3.10472e-08
1.17902e-09
3.09225e-08
1.15595e-09
3.07936e-08
1.13362e-09
3.06607e-08
1.11197e-09
3.05242e-08
1.09094e-09
3.03842e-08
1.0705e-09
3.02412e-08
1.0506e-09
3.00952e-08
1.03121e-09
2.99466e-08
1.01229e-09
2.97955e-08
9.9383e-10
2.96424e-08
9.75798e-10
2.94873e-08
9.58177e-10
2.93305e-08
9.40951e-10
2.91722e-08
9.24104e-10
2.90126e-08
9.07623e-10
2.8852e-08
8.91498e-10
2.86905e-08
8.75716e-10
2.85282e-08
8.60269e-10
2.83655e-08
8.45147e-10
2.82023e-08
8.30343e-10
2.8039e-08
8.15848e-10
2.78755e-08
8.01658e-10
2.77121e-08
7.87763e-10
2.75489e-08
7.74159e-10
2.7386e-08
7.60838e-10
2.72235e-08
7.47797e-10
2.70615e-08
7.35027e-10
2.69001e-08
7.22528e-10
2.67394e-08
7.10288e-10
2.65794e-08
6.98308e-10
2.64203e-08
6.86579e-10
2.62621e-08
6.751e-10
2.61048e-08
6.63861e-10
2.59486e-08
6.52863e-10
2.57934e-08
6.42095e-10
2.56394e-08
6.3156e-10
2.54864e-08
6.21246e-10
2.53347e-08
6.11155e-10
2.51842e-08
6.01276e-10
2.50349e-08
5.91613e-10
2.48869e-08
5.82151e-10
2.47402e-08
5.72897e-10
2.45948e-08
5.63835e-10
2.44507e-08
5.54974e-10
2.43079e-08
5.46295e-10
2.41665e-08
5.37809e-10
2.40264e-08
5.29498e-10
2.38877e-08
5.21371e-10
2.37504e-08
5.1341e-10
2.36144e-08
5.05628e-10
2.34797e-08
4.98001e-10
2.33464e-08
4.90547e-10
2.32145e-08
4.8324e-10
2.30839e-08
4.76099e-10
2.29547e-08
4.69097e-10
2.28268e-08
4.62255e-10
2.27002e-08
4.55542e-10
2.2575e-08
4.48986e-10
2.2451e-08
4.42549e-10
2.23284e-08
4.36264e-10
2.22071e-08
4.30091e-10
2.2087e-08
4.24065e-10
2.19683e-08
4.18141e-10
2.18508e-08
4.12361e-10
2.17345e-08
4.06675e-10
2.16195e-08
4.0113e-10
2.15057e-08
3.95669e-10
2.13931e-08
3.90348e-10
2.12817e-08
3.85101e-10
2.11715e-08
3.79993e-10
2.10624e-08
3.74949e-10
2.09546e-08
3.70044e-10
2.08479e-08
3.65193e-10
2.07423e-08
3.6048e-10
2.06378e-08
3.55813e-10
2.05344e-08
3.51284e-10
2.04322e-08
3.4679e-10
2.0331e-08
3.42438e-10
2.02309e-08
3.38109e-10
2.01318e-08
3.33925e-10
2.00338e-08
3.29754e-10
1.99368e-08
3.2573e-10
1.98408e-08
3.21709e-10
1.97458e-08
3.17839e-10
1.96518e-08
3.13962e-10
1.95588e-08
3.1024e-10
1.94668e-08
3.06501e-10
1.93757e-08
3.02922e-10
1.92855e-08
2.99316e-10
1.91963e-08
2.95875e-10
1.9108e-08
2.92399e-10
1.90206e-08
2.89091e-10
1.8934e-08
2.85743e-10
1.88484e-08
2.82565e-10
1.87636e-08
2.79345e-10
1.86797e-08
2.76292e-10
1.85965e-08
2.732e-10
1.85144e-08
2.70271e-10
1.84328e-08
2.67311e-10
1.83523e-08
2.64504e-10
1.82723e-08
2.61683e-10
1.81933e-08
2.58994e-10
1.81148e-08
2.56323e-10
1.80374e-08
2.53749e-10
1.79603e-08
2.51248e-10
1.78844e-08
2.48782e-10
1.78087e-08
2.46476e-10
1.77341e-08
2.44115e-10
1.76597e-08
2.42037e-10
1.75865e-08
2.39779e-10
1.75133e-08
2.37971e-10
1.74414e-08
2.35819e-10
1.73693e-08
2.34336e-10
1.72986e-08
2.32317e-10
1.72275e-08
2.31213e-10
1.71577e-08
2.2943e-10
1.70875e-08
2.2877e-10
1.70187e-08
2.27577e-10
1.69492e-08
2.2755e-10
2.27892e-10
3.19645e-08
1.65166e-09
-3.19059e-08
3.20685e-08
1.87961e-09
3.22207e-08
2.08449e-09
3.2401e-08
2.25797e-09
3.25791e-08
2.36732e-09
3.27391e-08
2.40491e-09
3.28789e-08
2.38696e-09
3.29988e-08
2.33428e-09
3.30972e-08
2.26075e-09
3.31726e-08
2.17434e-09
3.32263e-08
2.0818e-09
3.32625e-08
1.99007e-09
3.32856e-08
1.90476e-09
3.32993e-08
1.82867e-09
3.33061e-08
1.76189e-09
3.33073e-08
1.70324e-09
3.33041e-08
1.65129e-09
3.32969e-08
1.60478e-09
3.32861e-08
1.56273e-09
3.3272e-08
1.52432e-09
3.32543e-08
1.48893e-09
3.32332e-08
1.45608e-09
3.32086e-08
1.42539e-09
3.31803e-08
1.39659e-09
3.31485e-08
1.36945e-09
3.31129e-08
1.3438e-09
3.30737e-08
1.31948e-09
3.30308e-08
1.29636e-09
3.29841e-08
1.27432e-09
3.29338e-08
1.25325e-09
3.28797e-08
1.23306e-09
3.2822e-08
1.21364e-09
3.27607e-08
1.19494e-09
3.26958e-08
1.17687e-09
3.26274e-08
1.15937e-09
3.25555e-08
1.1424e-09
3.24802e-08
1.12589e-09
3.24016e-08
1.10982e-09
3.23197e-08
1.09414e-09
3.22347e-08
1.07882e-09
3.21467e-08
1.06383e-09
3.20557e-08
1.04915e-09
3.19619e-08
1.03476e-09
3.18654e-08
1.02063e-09
3.17663e-08
1.00676e-09
3.16646e-08
9.93129e-10
3.15606e-08
9.79721e-10
3.14544e-08
9.66529e-10
3.1346e-08
9.53542e-10
3.12356e-08
9.40753e-10
3.11233e-08
9.28155e-10
3.10092e-08
9.15741e-10
3.08934e-08
9.03506e-10
3.07761e-08
8.91446e-10
3.06574e-08
8.79556e-10
3.05374e-08
8.67834e-10
3.04161e-08
8.56275e-10
3.02938e-08
8.44879e-10
3.01704e-08
8.3364e-10
3.00462e-08
8.22561e-10
2.99211e-08
8.11635e-10
2.97954e-08
8.00865e-10
2.9669e-08
7.90245e-10
2.95421e-08
7.79779e-10
2.94147e-08
7.6946e-10
2.9287e-08
7.59292e-10
2.91589e-08
7.49269e-10
2.90307e-08
7.39396e-10
2.89023e-08
7.29665e-10
2.87738e-08
7.20081e-10
2.86454e-08
7.10638e-10
2.85169e-08
7.0134e-10
2.83886e-08
6.9218e-10
2.82604e-08
6.83162e-10
2.81324e-08
6.74281e-10
2.80047e-08
6.6554e-10
2.78772e-08
6.56931e-10
2.77501e-08
6.48461e-10
2.76234e-08
6.40121e-10
2.74971e-08
6.31916e-10
2.73713e-08
6.23839e-10
2.7246e-08
6.15894e-10
2.71211e-08
6.08073e-10
2.69968e-08
6.00381e-10
2.68731e-08
5.92811e-10
2.675e-08
5.85366e-10
2.66275e-08
5.78039e-10
2.65057e-08
5.70834e-10
2.63845e-08
5.63745e-10
2.6264e-08
5.56773e-10
2.61441e-08
5.49914e-10
2.6025e-08
5.43168e-10
2.59066e-08
5.36532e-10
2.5789e-08
5.30005e-10
2.56721e-08
5.23586e-10
2.5556e-08
5.1727e-10
2.54406e-08
5.1106e-10
2.5326e-08
5.04948e-10
2.52121e-08
4.9894e-10
2.50991e-08
4.93024e-10
2.49868e-08
4.87213e-10
2.48754e-08
4.81486e-10
2.47647e-08
4.75864e-10
2.46549e-08
4.70318e-10
2.45458e-08
4.64879e-10
2.44376e-08
4.59507e-10
2.43301e-08
4.54246e-10
2.42235e-08
4.4904e-10
2.41177e-08
4.43953e-10
2.40127e-08
4.38906e-10
2.39085e-08
4.33987e-10
2.38051e-08
4.29091e-10
2.37025e-08
4.24337e-10
2.36007e-08
4.19587e-10
2.34997e-08
4.14994e-10
2.33996e-08
4.10381e-10
2.33001e-08
4.0595e-10
2.32016e-08
4.01467e-10
2.31037e-08
3.97197e-10
2.30067e-08
3.92836e-10
2.29104e-08
3.88729e-10
2.2815e-08
3.84484e-10
2.27202e-08
3.80544e-10
2.26264e-08
3.76405e-10
2.25331e-08
3.72639e-10
2.24408e-08
3.68599e-10
2.23489e-08
3.65015e-10
2.22582e-08
3.61066e-10
2.21678e-08
3.57676e-10
2.20785e-08
3.53811e-10
2.19895e-08
3.50632e-10
2.19017e-08
3.46839e-10
2.18141e-08
3.43897e-10
2.17277e-08
3.40163e-10
2.16415e-08
3.37489e-10
2.15564e-08
3.33802e-10
2.14715e-08
3.31433e-10
2.13878e-08
3.27787e-10
2.13041e-08
3.25764e-10
2.12217e-08
3.22156e-10
2.11391e-08
3.20531e-10
2.1058e-08
3.16973e-10
2.09765e-08
3.15799e-10
2.08965e-08
3.12341e-10
2.0816e-08
3.11666e-10
2.0737e-08
3.08442e-10
2.06575e-08
3.0833e-10
2.05794e-08
3.05686e-10
2.05006e-08
3.06278e-10
3.04818e-10
3.30121e-08
1.59399e-09
-3.29544e-08
3.31034e-08
1.78826e-09
3.32294e-08
1.9585e-09
3.33814e-08
2.10602e-09
3.3539e-08
2.20973e-09
3.36858e-08
2.25805e-09
3.38155e-08
2.25728e-09
3.39275e-08
2.22233e-09
3.40217e-08
2.16656e-09
3.40975e-08
2.09846e-09
3.41556e-08
2.02371e-09
3.41983e-08
1.94737e-09
3.42291e-08
1.87396e-09
3.42513e-08
1.80646e-09
3.42673e-08
1.74589e-09
3.42787e-08
1.69188e-09
3.42865e-08
1.64352e-09
3.42913e-08
1.59989e-09
3.42938e-08
1.56023e-09
3.42943e-08
1.52391e-09
3.42927e-08
1.49045e-09
3.42894e-08
1.45944e-09
3.42842e-08
1.43058e-09
3.42772e-08
1.40359e-09
3.42684e-08
1.37829e-09
3.42577e-08
1.35449e-09
3.42451e-08
1.33205e-09
3.42306e-08
1.31084e-09
3.42142e-08
1.29075e-09
3.41958e-08
1.27166e-09
3.41754e-08
1.2535e-09
3.41528e-08
1.23615e-09
3.41282e-08
1.21956e-09
3.41014e-08
1.20364e-09
3.40725e-08
1.18833e-09
3.40413e-08
1.17358e-09
3.40079e-08
1.15932e-09
3.39722e-08
1.14552e-09
3.39342e-08
1.13213e-09
3.38939e-08
1.11912e-09
3.38513e-08
1.10645e-09
3.38063e-08
1.09409e-09
3.37591e-08
1.08201e-09
3.37095e-08
1.0702e-09
3.36576e-08
1.05862e-09
3.36035e-08
1.04727e-09
3.35471e-08
1.03612e-09
3.34885e-08
1.02516e-09
3.34276e-08
1.01437e-09
3.33647e-08
1.00375e-09
3.32995e-08
9.93275e-10
3.32323e-08
9.82945e-10
3.31631e-08
9.7275e-10
3.30919e-08
9.62681e-10
3.30187e-08
9.52732e-10
3.29436e-08
9.42897e-10
3.28667e-08
9.33172e-10
3.2788e-08
9.23551e-10
3.27077e-08
9.14032e-10
3.26256e-08
9.0461e-10
3.2542e-08
8.95284e-10
3.24568e-08
8.86051e-10
3.23701e-08
8.76908e-10
3.2282e-08
8.67854e-10
3.21926e-08
8.58889e-10
3.21019e-08
8.5001e-10
3.20099e-08
8.41217e-10
3.19168e-08
8.32508e-10
3.18226e-08
8.23886e-10
3.17273e-08
8.15345e-10
3.16311e-08
8.0689e-10
3.15339e-08
7.98516e-10
3.14359e-08
7.90229e-10
3.1337e-08
7.82021e-10
3.12374e-08
7.73901e-10
3.11371e-08
7.65858e-10
3.10361e-08
7.57904e-10
3.09345e-08
7.50027e-10
3.08324e-08
7.4224e-10
3.07298e-08
7.34527e-10
3.06267e-08
7.26907e-10
3.05233e-08
7.19359e-10
3.04194e-08
7.11906e-10
3.03153e-08
7.04521e-10
3.02109e-08
6.97234e-10
3.01062e-08
6.90011e-10
3.00014e-08
6.8289e-10
2.98964e-08
6.75829e-10
2.97912e-08
6.68873e-10
2.9686e-08
6.61971e-10
2.95808e-08
6.55179e-10
2.94755e-08
6.48434e-10
2.93702e-08
6.41805e-10
2.9265e-08
6.35215e-10
2.91599e-08
6.28747e-10
2.90548e-08
6.22308e-10
2.89499e-08
6.16001e-10
2.88451e-08
6.09709e-10
2.87405e-08
6.03561e-10
2.86361e-08
5.97413e-10
2.85319e-08
5.91423e-10
2.8428e-08
5.85414e-10
2.83243e-08
5.7958e-10
2.82209e-08
5.73706e-10
2.81177e-08
5.68028e-10
2.8015e-08
5.62284e-10
2.79124e-08
5.5676e-10
2.78103e-08
5.5114e-10
2.77085e-08
5.45771e-10
2.76072e-08
5.40268e-10
2.75061e-08
5.35056e-10
2.74055e-08
5.29665e-10
2.73052e-08
5.24609e-10
2.72055e-08
5.19323e-10
2.71061e-08
5.14428e-10
2.70072e-08
5.09239e-10
2.69087e-08
5.04509e-10
2.68107e-08
4.99408e-10
2.67131e-08
4.9485e-10
2.66161e-08
4.89828e-10
2.65194e-08
4.8545e-10
2.64233e-08
4.80498e-10
2.63276e-08
4.76311e-10
2.62326e-08
4.71419e-10
2.61378e-08
4.67437e-10
2.60438e-08
4.62592e-10
2.59499e-08
4.58832e-10
2.5857e-08
4.54024e-10
2.57642e-08
4.50507e-10
2.56722e-08
4.45723e-10
2.55804e-08
4.42476e-10
2.54895e-08
4.37701e-10
2.53987e-08
4.34757e-10
2.53089e-08
4.29976e-10
2.5219e-08
4.27376e-10
2.51302e-08
4.22576e-10
2.50413e-08
4.20362e-10
2.49535e-08
4.15541e-10
2.48655e-08
4.13758e-10
2.47788e-08
4.08923e-10
2.46917e-08
4.07621e-10
2.46058e-08
4.02798e-10
2.45196e-08
4.02028e-10
2.44347e-08
3.97287e-10
2.43492e-08
3.97095e-10
2.42651e-08
3.92594e-10
2.41804e-08
3.93045e-10
2.4097e-08
3.89093e-10
2.4013e-08
3.90287e-10
3.87245e-10
3.40769e-08
1.53915e-09
-3.40221e-08
3.41583e-08
1.70696e-09
3.42657e-08
1.85102e-09
3.43947e-08
1.97709e-09
3.45326e-08
2.07183e-09
3.46657e-08
2.1249e-09
3.47859e-08
2.13708e-09
3.48908e-08
2.11748e-09
3.49803e-08
2.07705e-09
3.50546e-08
2.02414e-09
3.51141e-08
1.96421e-09
3.51601e-08
1.90133e-09
3.51951e-08
1.839e-09
3.52216e-08
1.77992e-09
3.5242e-08
1.72555e-09
3.52577e-08
1.67617e-09
3.52699e-08
1.63137e-09
3.52792e-08
1.59052e-09
3.52864e-08
1.55308e-09
3.52917e-08
1.51859e-09
3.52955e-08
1.48667e-09
3.52979e-08
1.45702e-09
3.52991e-08
1.42939e-09
3.52991e-08
1.40354e-09
3.52981e-08