/*--------------------------------*- C++ -*----------------------------------*\
| =========                 |                                                 |
| \\      /  F ield         | OpenFOAM: The Open Source CFD Toolbox           |
|  \\    /   O peration     | Version:  2.3.0                                 |
|   \\  /    A nd           | Web:      www.OpenFOAM.org                      |
|    \\/     M anipulation  |                                                 |
\*---------------------------------------------------------------------------*/
FoamFile
{
    version     2.0;
    format      ascii;
    class       surfaceScalarField;
    location    "0.85";
    object      phi_0;
}
// * * * * * * * * * * * * * * * * * * * * * * * * * * * * * * * * * * * * * //

dimensions      [0 3 -1 0 0 0 0];

internalField   nonuniform List<scalar> 
11667
(
2.25813e-08
2.21213e-09
-2.47934e-08
1.98972e-08
2.68412e-09
1.72284e-08
2.6688e-09
1.47755e-08
2.45288e-09
1.25729e-08
2.20262e-09
1.06657e-08
1.90718e-09
9.10122e-09
1.56449e-09
7.88004e-09
1.22119e-09
6.96869e-09
9.11348e-10
6.30797e-09
6.60719e-10
5.83283e-09
4.75136e-10
5.48621e-09
3.46621e-10
5.22406e-09
2.62148e-10
5.01509e-09
2.08976e-10
4.8383e-09
1.76783e-10
4.68101e-09
1.57299e-10
4.5364e-09
1.44602e-10
4.40133e-09
1.35073e-10
4.27449e-09
1.26838e-10
4.15539e-09
1.19105e-10
4.04374e-09
1.11652e-10
3.93924e-09
1.04497e-10
3.84151e-09
9.77309e-11
3.75007e-09
9.14356e-11
3.66441e-09
8.56575e-11
3.58401e-09
8.04036e-11
3.50836e-09
7.56513e-11
3.437e-09
7.13601e-11
3.36952e-09
6.74817e-11
3.30555e-09
6.39668e-11
3.24478e-09
6.07691e-11
3.18693e-09
5.78475e-11
3.13177e-09
5.51663e-11
3.07907e-09
5.26954e-11
3.02866e-09
5.04095e-11
2.98038e-09
4.82874e-11
2.93406e-09
4.63114e-11
2.8896e-09
4.44665e-11
2.84686e-09
4.27401e-11
2.80574e-09
4.11213e-11
2.76614e-09
3.96006e-11
2.72797e-09
3.81697e-11
2.69115e-09
3.68212e-11
2.6556e-09
3.55487e-11
2.62125e-09
3.43462e-11
2.58804e-09
3.32086e-11
2.55591e-09
3.21308e-11
2.5248e-09
3.11088e-11
2.49466e-09
3.01384e-11
2.46545e-09
2.92161e-11
2.43711e-09
2.83385e-11
2.40961e-09
2.75029e-11
2.3829e-09
2.6706e-11
2.35695e-09
2.59459e-11
2.33173e-09
2.52197e-11
2.30721e-09
2.45259e-11
2.28335e-09
2.3862e-11
2.26012e-09
2.32266e-11
2.2375e-09
2.26177e-11
2.21547e-09
2.20343e-11
2.19399e-09
2.14743e-11
2.17306e-09
2.09371e-11
2.15264e-09
2.04207e-11
2.13271e-09
1.9925e-11
2.11326e-09
1.94477e-11
2.09427e-09
1.89892e-11
2.07573e-09
1.85471e-11
2.0576e-09
1.81221e-11
2.03989e-09
1.77118e-11
2.02258e-09
1.73172e-11
2.00564e-09
1.69357e-11
1.98907e-09
1.65686e-11
1.97286e-09
1.62132e-11
1.95699e-09
1.58712e-11
1.94145e-09
1.55395e-11
1.92623e-09
1.52204e-11
1.91132e-09
1.49103e-11
1.8967e-09
1.46121e-11
1.88238e-09
1.43218e-11
1.86834e-09
1.40429e-11
1.85457e-09
1.37706e-11
1.84106e-09
1.35094e-11
1.82781e-09
1.32536e-11
1.8148e-09
1.30088e-11
1.80203e-09
1.2768e-11
1.78949e-09
1.25384e-11
1.77718e-09
1.23115e-11
1.76508e-09
1.20958e-11
1.7532e-09
1.18816e-11
1.74152e-09
1.1679e-11
1.73005e-09
1.14763e-11
1.71876e-09
1.1286e-11
1.70767e-09
1.10939e-11
1.69675e-09
1.09151e-11
1.68602e-09
1.07326e-11
1.67545e-09
1.05646e-11
1.66506e-09
1.03908e-11
1.65483e-09
1.02332e-11
1.64476e-09
1.00673e-11
1.63484e-09
9.91959e-12
1.62508e-09
9.76063e-12
1.61546e-09
9.6225e-12
1.60599e-09
9.46971e-12
1.59665e-09
9.34093e-12
1.58746e-09
9.19348e-12
1.57838e-09
9.07394e-12
1.56945e-09
8.93097e-12
1.56063e-09
8.8207e-12
1.55195e-09
8.68132e-12
1.54337e-09
8.58048e-12
1.53493e-09
8.4437e-12
1.52657e-09
8.35261e-12
1.51836e-09
8.21741e-12
1.51022e-09
8.13661e-12
1.50222e-09
8.00182e-12
1.49429e-09
7.93201e-12
1.48649e-09
7.79634e-12
1.47875e-09
7.73853e-12
1.47115e-09
7.60047e-12
1.46359e-09
7.55595e-12
1.45618e-09
7.41376e-12
1.4488e-09
7.38417e-12
1.44156e-09
7.23582e-12
1.43434e-09
7.22326e-12
1.42727e-09
7.06628e-12
1.4202e-09
7.07349e-12
1.41329e-09
6.90485e-12
1.40636e-09
6.93532e-12
1.39961e-09
6.75121e-12
1.3928e-09
6.80945e-12
1.38619e-09
6.6051e-12
1.37949e-09
6.69686e-12
1.37303e-09
6.46633e-12
1.36643e-09
6.59888e-12
1.36009e-09
6.33474e-12
1.35358e-09
6.51743e-12
1.34737e-09
6.21006e-12
1.34091e-09
6.45523e-12
1.33482e-09
6.09197e-12
1.3284e-09
6.41602e-12
1.32242e-09
5.98018e-12
1.31602e-09
6.40528e-12
1.31014e-09
5.87421e-12
1.30371e-09
6.43198e-12
1.29794e-09
5.77359e-12
1.29143e-09
6.51348e-12
1.28574e-09
5.68108e-12
1.27904e-09
6.70473e-12
1.27337e-09
5.66653e-12
8.16132e-12
2.6833e-08
1.97271e-09
-2.65936e-08
2.67183e-08
2.79883e-09
2.62054e-08
3.18171e-09
2.54549e-08
3.20336e-09
2.4567e-08
3.0905e-09
2.35728e-08
2.90146e-09
2.24978e-08
2.63941e-09
2.13945e-08
2.32448e-09
2.03136e-08
1.99229e-09
1.92917e-08
1.68259e-09
1.83476e-08
1.41927e-09
1.74869e-08
1.20736e-09
1.67089e-08
1.04014e-09
1.60103e-08
9.07545e-10
1.53837e-08
8.03335e-10
1.48206e-08
7.20464e-10
1.43122e-08
6.52941e-10
1.38509e-08
5.96363e-10
1.343e-08
5.47783e-10
1.30438e-08
5.05316e-10
1.26877e-08
4.6776e-10
1.23579e-08
4.34319e-10
1.20512e-08
4.04427e-10
1.17649e-08
3.77656e-10
1.1497e-08
3.53644e-10
1.12453e-08
3.32074e-10
1.10083e-08
3.12654e-10
1.07845e-08
2.95122e-10
1.05728e-08
2.79241e-10
1.03719e-08
2.64804e-10
1.01811e-08
2.51629e-10
9.99936e-09
2.39559e-10
9.82606e-09
2.28462e-10
9.66053e-09
2.18222e-10
9.5022e-09
2.08744e-10
9.35054e-09
1.99944e-10
9.2051e-09
1.91753e-10
9.06546e-09
1.84109e-10
8.93124e-09
1.76961e-10
8.8021e-09
1.70263e-10
8.67772e-09
1.63974e-10
8.55783e-09
1.58061e-10
8.44216e-09
1.52492e-10
8.33047e-09
1.47239e-10
8.22254e-09
1.42276e-10
8.11817e-09
1.37583e-10
8.01716e-09
1.33137e-10
7.91935e-09
1.28922e-10
7.82456e-09
1.24921e-10
7.73266e-09
1.21118e-10
7.6435e-09
1.17499e-10
7.55695e-09
1.14053e-10
7.47289e-09
1.10767e-10
7.3912e-09
1.07632e-10
7.31179e-09
1.04638e-10
7.23454e-09
1.01776e-10
7.15936e-09
9.90373e-11
7.08617e-09
9.64159e-11
7.01489e-09
9.39036e-11
6.94542e-09
9.14955e-11
6.87771e-09
8.91842e-11
6.81169e-09
8.6966e-11
6.74727e-09
8.48341e-11
6.68441e-09
8.27858e-11
6.62304e-09
8.08145e-11
6.56311e-09
7.89188e-11
6.50457e-09
7.70921e-11
6.44736e-09
7.53339e-11
6.39143e-09
7.36375e-11
6.33675e-09
7.20037e-11
6.28326e-09
7.04254e-11
6.23092e-09
6.89044e-11
6.1797e-09
6.74333e-11
6.12956e-09
6.6015e-11
6.08045e-09
6.46413e-11
6.03236e-09
6.33167e-11
5.98524e-09
6.20319e-11
5.93906e-09
6.0793e-11
5.89379e-09
5.95895e-11
5.8494e-09
5.84292e-11
5.80587e-09
5.73e-11
5.76317e-09
5.6212e-11
5.72127e-09
5.5151e-11
5.68015e-09
5.41294e-11
5.63979e-09
5.3131e-11
5.60016e-09
5.21709e-11
5.56124e-09
5.123e-11
5.52301e-09
5.03268e-11
5.48545e-09
4.94387e-11
5.44854e-09
4.85883e-11
5.41227e-09
4.77486e-11
5.37661e-09
4.69475e-11
5.34155e-09
4.61525e-11
5.30707e-09
4.53972e-11
5.27316e-09
4.46432e-11
5.23979e-09
4.39309e-11
5.20697e-09
4.32145e-11
5.17466e-09
4.25427e-11
5.14286e-09
4.18607e-11
5.11155e-09
4.12272e-11
5.08074e-09
4.05765e-11
5.05038e-09
3.99794e-11
5.02049e-09
3.93572e-11
4.99104e-09
3.8795e-11
4.96204e-09
3.81984e-11
4.93344e-09
3.767e-11
4.90527e-09
3.70963e-11
4.87749e-09
3.66008e-11
4.85013e-09
3.60472e-11
4.82312e-09
3.55841e-11
4.79652e-09
3.50478e-11
4.77026e-09
3.46171e-11
4.74438e-09
3.40953e-11
4.71882e-09
3.36975e-11
4.69363e-09
3.3187e-11
4.66874e-09
3.2823e-11
4.64422e-09
3.23206e-11
4.61996e-09
3.19922e-11
4.59607e-09
3.14942e-11
4.57242e-09
3.12035e-11
4.54913e-09
3.0706e-11
4.52606e-09
3.04561e-11
4.50334e-09
2.99546e-11
4.48081e-09
2.97495e-11
4.45864e-09
2.92387e-11
4.43663e-09
2.9084e-11
4.41498e-09
2.85576e-11
4.39345e-09
2.84603e-11
4.37229e-09
2.79105e-11
4.35122e-09
2.78798e-11
4.33053e-09
2.72972e-11
4.30988e-09
2.73447e-11
4.28963e-09
2.67179e-11
4.26937e-09
2.68582e-11
4.24953e-09
2.61733e-11
4.22963e-09
2.64251e-11
4.21017e-09
2.56648e-11
4.19057e-09
2.60518e-11
4.17147e-09
2.51943e-11
4.15214e-09
2.57472e-11
4.13336e-09
2.47655e-11
4.11424e-09
2.55239e-11
4.09573e-09
2.4385e-11
4.07676e-09
2.54008e-11
4.05846e-09
2.40661e-11
4.03957e-09
2.54119e-11
4.0214e-09
2.38486e-11
4.00243e-09
2.56765e-11
3.98405e-09
2.40403e-11
2.81304e-11
2.78632e-08
1.85997e-09
-2.77504e-08
2.81733e-08
2.48866e-09
2.83964e-08
2.95864e-09
2.84644e-08
3.13535e-09
2.84204e-08
3.13448e-09
2.8272e-08
3.04987e-09
2.80084e-08
2.90308e-09
2.76349e-08
2.69796e-09
2.71734e-08
2.45378e-09
2.66531e-08
2.20288e-09
2.60997e-08
1.97264e-09
2.55317e-08
1.77541e-09
2.49611e-08
1.61075e-09
2.43955e-08
1.4731e-09
2.38411e-08
1.35777e-09
2.33015e-08
1.26001e-09
2.27789e-08
1.17552e-09
2.22744e-08
1.10092e-09
2.17883e-08
1.03384e-09
2.13209e-08
9.72755e-10
2.0872e-08
9.16685e-10
2.04413e-08
8.65008e-10
2.00284e-08
8.17281e-10
1.96329e-08
7.73186e-10
1.92541e-08
7.3245e-10
1.88913e-08
6.94818e-10
1.8544e-08
6.60046e-10
1.82112e-08
6.27896e-10
1.78923e-08
5.98142e-10
1.75865e-08
5.70572e-10
1.72932e-08
5.44987e-10
1.70115e-08
5.21205e-10
1.67409e-08
4.99063e-10
1.64807e-08
4.78412e-10
1.62303e-08
4.59119e-10
1.59892e-08
4.41064e-10
1.57568e-08
4.24139e-10
1.55327e-08
4.08249e-10
1.53163e-08
3.93308e-10
1.51074e-08
3.79239e-10
1.49054e-08
3.65972e-10
1.471e-08
3.53445e-10
1.45209e-08
3.416e-10
1.43377e-08
3.30388e-10
1.41602e-08
3.1976e-10
1.39882e-08
3.09677e-10
1.38212e-08
3.00097e-10
1.36591e-08
2.90988e-10
1.35017e-08
2.82317e-10
1.33488e-08
2.74055e-10
1.32001e-08
2.66174e-10
1.30555e-08
2.58652e-10
1.29148e-08
2.51464e-10
1.27779e-08
2.44592e-10
1.26445e-08
2.38014e-10
1.25145e-08
2.31716e-10
1.23879e-08
2.25678e-10
1.22644e-08
2.19888e-10
1.2144e-08
2.1433e-10
1.20265e-08
2.08994e-10
1.19118e-08
2.03865e-10
1.17999e-08
1.98935e-10
1.16905e-08
1.9419e-10
1.15837e-08
1.89624e-10
1.14793e-08
1.85225e-10
1.13772e-08
1.80988e-10
1.12774e-08
1.76901e-10
1.11798e-08
1.72961e-10
1.10842e-08
1.69157e-10
1.09907e-08
1.65487e-10
1.08992e-08
1.6194e-10
1.08096e-08
1.58515e-10
1.07219e-08
1.55202e-10
1.06359e-08
1.52002e-10
1.05516e-08
1.48901e-10
1.0469e-08
1.45906e-10
1.0388e-08
1.43001e-10
1.03086e-08
1.40194e-10
1.02308e-08
1.37468e-10
1.01544e-08
1.34834e-10
1.00794e-08
1.32272e-10
1.00058e-08
1.29797e-10
9.93357e-09
1.27386e-10
9.86264e-09
1.25057e-10
9.79299e-09
1.22786e-10
9.72457e-09
1.20593e-10
9.65735e-09
1.18449e-10
9.59129e-09
1.16382e-10
9.52637e-09
1.14357e-10
9.46256e-09
1.12407e-10
9.39981e-09
1.1049e-10
9.33811e-09
1.08649e-10
9.27743e-09
1.06833e-10
9.21774e-09
1.05093e-10
9.15901e-09
1.0337e-10
9.10122e-09
1.01724e-10
9.04434e-09
1.00088e-10
8.98836e-09
9.85307e-11
8.93324e-09
9.69733e-11
8.87897e-09
9.54999e-11
8.82553e-09
9.40153e-11
8.77289e-09
9.26208e-11
8.72104e-09
9.12031e-11
8.66996e-09
8.98837e-11
8.61963e-09
8.85274e-11
8.57002e-09
8.72796e-11
8.52113e-09
8.59792e-11
8.47293e-09
8.48004e-11
8.42543e-09
8.35507e-11
8.37858e-09
8.24387e-11
8.33239e-09
8.12345e-11
8.28682e-09
8.0188e-11
8.24189e-09
7.90241e-11
8.19754e-09
7.80425e-11
8.15382e-09
7.69139e-11
8.11064e-09
7.59972e-11
8.06807e-09
7.48985e-11
8.02601e-09
7.40479e-11
7.98453e-09
7.29736e-11
7.94354e-09
7.21911e-11
7.90311e-09
7.11354e-11
7.86315e-09
7.0424e-11
7.82372e-09
6.93806e-11
7.78472e-09
6.8745e-11
7.74626e-09
6.77069e-11
7.70819e-09
6.71533e-11
7.67063e-09
6.61126e-11
7.63344e-09
6.56492e-11
7.59676e-09
6.45966e-11
7.5604e-09
6.42346e-11
7.52454e-09
6.31591e-11
7.48897e-09
6.29123e-11
7.45389e-09
6.18014e-11
7.41906e-09
6.16869e-11
7.38471e-09
6.05264e-11
7.35057e-09
6.05653e-11
7.31689e-09
5.93391e-11
7.28339e-09
5.95572e-11
7.25033e-09
5.82469e-11
7.21741e-09
5.86758e-11
7.18491e-09
5.72625e-11
7.15249e-09
5.79387e-11
7.12047e-09
5.64069e-11
7.0885e-09
5.73727e-11
7.05685e-09
5.57176e-11
7.02523e-09
5.70268e-11
6.9938e-09
5.52836e-11
6.96236e-09
5.71113e-11
6.93084e-09
5.55693e-11
5.98113e-11
2.88739e-08
1.81447e-09
-2.88284e-08
2.91001e-08
2.26245e-09
2.9392e-08
2.66674e-09
2.96335e-08
2.89383e-09
2.98168e-08
2.95121e-09
2.99511e-08
2.91559e-09
3.00272e-08
2.82692e-09
3.00318e-08
2.69336e-09
2.99616e-08
2.52404e-09
2.9826e-08
2.33848e-09
2.96399e-08
2.15866e-09
2.94171e-08
1.99826e-09
2.91669e-08
1.86099e-09
2.88954e-08
1.74456e-09
2.8608e-08
1.64517e-09
2.83087e-08
1.55926e-09
2.80006e-08
1.48367e-09
2.76857e-08
1.41582e-09
2.73658e-08
1.35378e-09
2.70422e-08
1.29626e-09
2.67165e-08
1.24241e-09
2.63898e-08
1.19172e-09
2.60632e-08
1.14386e-09
2.57378e-08
1.0986e-09
2.54145e-08
1.05579e-09
2.5094e-08
1.01529e-09
2.47771e-08
9.76955e-10
2.44643e-08
9.40666e-10
2.41562e-08
9.06293e-10
2.3853e-08
8.73717e-10
2.35552e-08
8.42822e-10
2.32629e-08
8.135e-10
2.29763e-08
7.85649e-10
2.26955e-08
7.59176e-10
2.24207e-08
7.33995e-10
2.21517e-08
7.10028e-10
2.18886e-08
6.87199e-10
2.16314e-08
6.65443e-10
2.13801e-08
6.44696e-10
2.11344e-08
6.24899e-10
2.08944e-08
6.05999e-10
2.06599e-08
5.87946e-10
2.04308e-08
5.7069e-10
2.0207e-08
5.54188e-10
1.99883e-08
5.38399e-10
1.97747e-08
5.23283e-10
1.9566e-08
5.08803e-10
1.93621e-08
4.94926e-10
1.91628e-08
4.81619e-10
1.8968e-08
4.68851e-10
1.87776e-08
4.56594e-10
1.85914e-08
4.44822e-10
1.84094e-08
4.33509e-10
1.82313e-08
4.22632e-10
1.80572e-08
4.12168e-10
1.78868e-08
4.02099e-10
1.77201e-08
3.92401e-10
1.75569e-08
3.83061e-10
1.73972e-08
3.74057e-10
1.72408e-08
3.65377e-10
1.70876e-08
3.57002e-10
1.69377e-08
3.48921e-10
1.67907e-08
3.41118e-10
1.66468e-08
3.33583e-10
1.65057e-08
3.263e-10
1.63674e-08
3.19264e-10
1.62319e-08
3.12457e-10
1.60989e-08
3.05876e-10
1.59686e-08
2.99504e-10
1.58407e-08
2.9334e-10
1.57153e-08
2.87368e-10
1.55922e-08
2.81588e-10
1.54715e-08
2.75982e-10
1.53529e-08
2.70554e-10
1.52365e-08
2.65286e-10
1.51222e-08
2.60184e-10
1.501e-08
2.55227e-10
1.48998e-08
2.50425e-10
1.47915e-08
2.45755e-10
1.46851e-08
2.41231e-10
1.45806e-08
2.36826e-10
1.44778e-08
2.32559e-10
1.43768e-08
2.28401e-10
1.42775e-08
2.24372e-10
1.41798e-08
2.20441e-10
1.40838e-08
2.16635e-10
1.39893e-08
2.12915e-10
1.38964e-08
2.09314e-10
1.38049e-08
2.0579e-10
1.3715e-08
2.02382e-10
1.36264e-08
1.9904e-10
1.35392e-08
1.95811e-10
1.34534e-08
1.92638e-10
1.3369e-08
1.89577e-10
1.32858e-08
1.8656e-10
1.32038e-08
1.83656e-10
1.31231e-08
1.80785e-10
1.30436e-08
1.78029e-10
1.29653e-08
1.75293e-10
1.28881e-08
1.72676e-10
1.28121e-08
1.70065e-10
1.27371e-08
1.67578e-10
1.26633e-08
1.65084e-10
1.25904e-08
1.62722e-10
1.25186e-08
1.60335e-10
1.24478e-08
1.5809e-10
1.2378e-08
1.55803e-10
1.23091e-08
1.53671e-10
1.22412e-08
1.51475e-10
1.21742e-08
1.49452e-10
1.21081e-08
1.4734e-10
1.20428e-08
1.45422e-10
1.19785e-08
1.43386e-10
1.19149e-08
1.4157e-10
1.18522e-08
1.39605e-10
1.17904e-08
1.37889e-10
1.17293e-08
1.35986e-10
1.16689e-08
1.3437e-10
1.16094e-08
1.32524e-10
1.15506e-08
1.31008e-10
1.14925e-08
1.29211e-10
1.14351e-08
1.27798e-10
1.13785e-08
1.26043e-10
1.13225e-08
1.24734e-10
1.12672e-08
1.23015e-10
1.12125e-08
1.21817e-10
1.11585e-08
1.20125e-10
1.11051e-08
1.19044e-10
1.10523e-08
1.17371e-10
1.10001e-08
1.16417e-10
1.09485e-08
1.14755e-10
1.08975e-08
1.13939e-10
1.0847e-08
1.1228e-10
1.07971e-08
1.11616e-10
1.07477e-08
1.09951e-10
1.06988e-08
1.09456e-10
1.06504e-08
1.07779e-10
1.06024e-08
1.07471e-10
1.05549e-08
1.05778e-10
1.05079e-08
1.05679e-10
1.04612e-08
1.03973e-10
1.0415e-08
1.04102e-10
1.0369e-08
1.02398e-10
1.03236e-08
1.0278e-10
1.02782e-08
1.01114e-10
1.02335e-08
1.01791e-10
1.01885e-08
1.00239e-10
1.01442e-08
1.01454e-10
1.00994e-08
1.00302e-10
1.03773e-10
2.99025e-08
1.7661e-09
-2.98542e-08
3.00589e-08
2.10605e-09
3.02994e-08
2.42624e-09
3.05421e-08
2.65114e-09
3.0751e-08
2.74235e-09
3.09295e-08
2.73709e-09
3.10796e-08
2.67684e-09
3.11925e-08
2.58045e-09
3.126e-08
2.45646e-09
3.12823e-08
2.31623e-09
3.12664e-08
2.17456e-09
3.1221e-08
2.0436e-09
3.11528e-08
1.92921e-09
3.10659e-08
1.83143e-09
3.09635e-08
1.74766e-09
3.08477e-08
1.67504e-09
3.07202e-08
1.61111e-09
3.05822e-08
1.55382e-09
3.04344e-08
1.50159e-09
3.02775e-08
1.45324e-09
3.01119e-08
1.40797e-09
2.99384e-08
1.36524e-09
2.97575e-08
1.32469e-09
2.95701e-08
1.28609e-09
2.93766e-08
1.24925e-09
2.91778e-08
1.21404e-09
2.89744e-08
1.18035e-09
2.8767e-08
1.14807e-09
2.85562e-08
1.11711e-09
2.83426e-08
1.08736e-09
2.81266e-08
1.05876e-09
2.79089e-08
1.03123e-09
2.76899e-08
1.0047e-09
2.74699e-08
9.79113e-10
2.72495e-08
9.54417e-10
2.7029e-08
9.30564e-10
2.68087e-08
9.07512e-10
2.65889e-08
8.85225e-10
2.63699e-08
8.63667e-10
2.6152e-08
8.42808e-10
2.59354e-08
8.22619e-10
2.57202e-08
8.03074e-10
2.55068e-08
7.84149e-10
2.52952e-08
7.65819e-10
2.50855e-08
7.48063e-10
2.48779e-08
7.30862e-10
2.46725e-08
7.14192e-10
2.44694e-08
6.98039e-10
2.42686e-08
6.8238e-10
2.40703e-08
6.67202e-10
2.38744e-08
6.52484e-10
2.3681e-08
6.38214e-10
2.34902e-08
6.24372e-10
2.33018e-08
6.10947e-10
2.31161e-08
5.97922e-10
2.29329e-08
5.85286e-10
2.27523e-08
5.73021e-10
2.25742e-08
5.61119e-10
2.23987e-08
5.49563e-10
2.22257e-08
5.38346e-10
2.20553e-08
5.27452e-10
2.18873e-08
5.16874e-10
2.17219e-08
5.06596e-10
2.15588e-08
4.96614e-10
2.13982e-08
4.86911e-10
2.124e-08
4.77486e-10
2.10841e-08
4.6832e-10
2.09306e-08
4.59414e-10
2.07793e-08
4.50751e-10
2.06304e-08
4.4233e-10
2.04836e-08
4.34136e-10
2.0339e-08
4.26169e-10
2.01966e-08
4.18412e-10
2.00563e-08
4.10871e-10
1.9918e-08
4.03523e-10
1.97818e-08
3.96379e-10
1.96476e-08
3.89415e-10
1.95154e-08
3.82643e-10
1.93851e-08
3.76038e-10
1.92568e-08
3.69614e-10
1.91302e-08
3.63345e-10
1.90055e-08
3.57248e-10
1.88827e-08
3.51293e-10
1.87615e-08
3.45503e-10
1.86421e-08
3.39843e-10
1.85244e-08
3.3434e-10
1.84084e-08
3.28956e-10
1.8294e-08
3.23724e-10
1.81812e-08
3.18599e-10
1.80699e-08
3.1362e-10
1.79602e-08
3.08737e-10
1.7852e-08
3.03998e-10
1.77453e-08
2.99342e-10
1.76401e-08
2.94828e-10
1.75363e-08
2.90385e-10
1.74338e-08
2.86082e-10
1.73328e-08
2.81839e-10
1.72331e-08
2.77736e-10
1.71347e-08
2.73679e-10
1.70376e-08
2.69766e-10
1.69418e-08
2.65884e-10
1.68472e-08
2.62149e-10
1.67539e-08
2.58431e-10
1.66617e-08
2.54865e-10
1.65707e-08
2.51301e-10
1.64809e-08
2.47896e-10
1.63923e-08
2.44476e-10
1.63047e-08
2.41224e-10
1.62183e-08
2.37938e-10
1.61329e-08
2.34833e-10
1.60485e-08
2.31672e-10
1.59653e-08
2.28708e-10
1.5883e-08
2.25664e-10
1.58017e-08
2.22836e-10
1.57214e-08
2.19901e-10
1.56421e-08
2.17205e-10
1.55637e-08
2.14372e-10
1.54863e-08
2.11806e-10
1.54097e-08
2.09068e-10
1.53341e-08
2.06628e-10
1.52593e-08
2.03979e-10
1.51855e-08
2.01665e-10
1.51124e-08
1.99099e-10
1.50402e-08
1.96911e-10
1.49688e-08
1.94424e-10
1.48983e-08
1.92363e-10
1.48285e-08
1.89949e-10
1.47595e-08
1.88019e-10
1.46912e-08
1.85675e-10
1.46237e-08
1.83881e-10
1.45569e-08
1.81603e-10
1.44909e-08
1.7995e-10
1.44254e-08
1.77739e-10
1.43608e-08
1.76233e-10
1.42966e-08
1.74094e-10
1.42334e-08
1.7274e-10
1.41705e-08
1.70681e-10
1.41084e-08
1.69487e-10
1.40467e-08
1.67525e-10
1.39859e-08
1.66496e-10
1.39252e-08
1.64657e-10
1.38655e-08
1.63801e-10
1.38058e-08
1.62127e-10
1.37471e-08
1.61458e-10
1.36882e-08
1.60005e-10
1.36304e-08
1.59588e-10
1.35722e-08
1.58432e-10
1.35151e-08
1.58587e-10
1.34574e-08
1.57963e-10
1.60039e-10
3.09302e-08
1.71029e-09
-3.08744e-08
3.10526e-08
1.98362e-09
3.12423e-08
2.23661e-09
3.14551e-08
2.43835e-09
3.1652e-08
2.54542e-09
3.18242e-08
2.56491e-09
3.19743e-08
2.5267e-09
3.21006e-08
2.45419e-09
3.21979e-08
2.35913e-09
3.22644e-08
2.24973e-09
3.23034e-08
2.13558e-09
3.23208e-08
2.02619e-09
3.23221e-08
1.92786e-09
3.23112e-08
1.84242e-09
3.22902e-08
1.76865e-09
3.22607e-08
1.7045e-09
3.22238e-08
1.64802e-09
3.218e-08
1.59761e-09
3.21296e-08
1.55198e-09
3.20727e-08
1.51012e-09
3.20094e-08
1.4713e-09
3.19397e-08
1.43497e-09
3.18636e-08
1.40075e-09
3.17813e-08
1.36835e-09
3.1693e-08
1.33758e-09
3.15988e-08
1.30826e-09
3.14989e-08
1.28024e-09
3.13936e-08
1.25342e-09
3.1283e-08
1.22767e-09
3.11675e-08
1.2029e-09
3.10472e-08
1.17902e-09
3.09225e-08
1.15595e-09
3.07936e-08
1.13362e-09
3.06607e-08
1.11197e-09
3.05242e-08
1.09094e-09
3.03843e-08
1.0705e-09
3.02412e-08
1.0506e-09
3.00952e-08
1.03121e-09
2.99466e-08
1.01229e-09
2.97955e-08
9.93828e-10
2.96424e-08
9.75795e-10
2.94873e-08
9.58174e-10
2.93305e-08
9.40947e-10
2.91722e-08
9.24101e-10
2.90126e-08
9.0762e-10
2.8852e-08
8.91494e-10
2.86905e-08
8.75712e-10
2.85283e-08
8.60265e-10
2.83655e-08
8.45142e-10
2.82024e-08
8.30338e-10
2.8039e-08
8.15843e-10
2.78756e-08
8.01653e-10
2.77122e-08
7.87757e-10
2.7549e-08
7.74153e-10
2.73861e-08
7.60832e-10
2.72235e-08
7.47791e-10
2.70615e-08
7.35021e-10
2.69001e-08
7.22521e-10
2.67394e-08
7.10281e-10
2.65795e-08
6.98301e-10
2.64204e-08
6.86571e-10
2.62621e-08
6.75092e-10
2.61049e-08
6.63852e-10
2.59486e-08
6.52854e-10
2.57935e-08
6.42086e-10
2.56394e-08
6.3155e-10
2.54865e-08
6.21236e-10
2.53348e-08
6.11145e-10
2.51842e-08
6.01265e-10
2.5035e-08
5.91601e-10
2.4887e-08
5.82139e-10
2.47403e-08
5.72884e-10
2.45948e-08
5.63822e-10
2.44508e-08
5.5496e-10
2.4308e-08
5.46281e-10
2.41666e-08
5.37795e-10
2.40265e-08
5.29482e-10
2.38878e-08
5.21355e-10
2.37504e-08
5.13394e-10
2.36144e-08
5.0561e-10
2.34798e-08
4.97983e-10
2.33465e-08
4.90528e-10
2.32146e-08
4.8322e-10
2.3084e-08
4.76078e-10
2.29548e-08
4.69075e-10
2.28269e-08
4.62232e-10
2.27003e-08
4.55519e-10
2.25751e-08
4.48961e-10
2.24512e-08
4.42524e-10
2.23286e-08
4.36238e-10
2.22072e-08
4.30064e-10
2.20872e-08
4.24036e-10
2.19684e-08
4.18112e-10
2.18509e-08
4.12331e-10
2.17347e-08
4.06643e-10
2.16196e-08
4.01097e-10
2.15059e-08
3.95635e-10
2.13933e-08
3.90312e-10
2.12819e-08
3.85064e-10
2.11717e-08
3.79954e-10
2.10627e-08
3.74909e-10
2.09548e-08
3.70002e-10
2.08481e-08
3.6515e-10
2.07425e-08
3.60435e-10
2.06381e-08
3.55766e-10
2.05347e-08
3.51236e-10
2.04325e-08
3.4674e-10
2.03313e-08
3.42386e-10
2.02312e-08
3.38056e-10
2.01321e-08
3.33869e-10
2.00341e-08
3.29696e-10
1.99372e-08
3.2567e-10
1.98412e-08
3.21647e-10
1.97462e-08
3.17775e-10
1.96522e-08
3.13895e-10
1.95593e-08
3.10171e-10
1.94672e-08
3.06429e-10
1.93762e-08
3.02848e-10
1.9286e-08
2.9924e-10
1.91968e-08
2.95796e-10
1.91085e-08
2.92317e-10
1.90212e-08
2.89006e-10
1.89346e-08
2.85656e-10
1.8849e-08
2.82474e-10
1.87642e-08
2.79251e-10
1.86804e-08
2.76195e-10
1.85972e-08
2.73101e-10
1.85151e-08
2.70168e-10
1.84336e-08
2.67206e-10
1.8353e-08
2.64394e-10
1.82731e-08
2.61571e-10
1.81941e-08
2.58878e-10
1.81157e-08
2.56204e-10
1.80383e-08
2.53626e-10
1.79613e-08
2.51122e-10
1.78853e-08
2.48652e-10
1.78097e-08
2.46344e-10
1.77352e-08
2.43978e-10
1.76608e-08
2.41898e-10
1.75877e-08
2.39635e-10
1.75145e-08
2.37825e-10
1.74426e-08
2.35668e-10
1.73706e-08
2.34183e-10
1.72999e-08
2.32159e-10
1.72288e-08
2.31053e-10
1.71592e-08
2.29266e-10
1.7089e-08
2.28605e-10
1.70202e-08
2.27407e-10
1.69508e-08
2.27379e-10
2.27714e-10
3.19645e-08
1.65166e-09
-3.19059e-08
3.20685e-08
1.8796e-09
3.22207e-08
2.08449e-09
3.2401e-08
2.25797e-09
3.25791e-08
2.36732e-09
3.27391e-08
2.40491e-09
3.28789e-08
2.38696e-09
3.29988e-08
2.33428e-09
3.30972e-08
2.26075e-09
3.31726e-08
2.17434e-09
3.32263e-08
2.0818e-09
3.32625e-08
1.99007e-09
3.32856e-08
1.90476e-09
3.32993e-08
1.82867e-09
3.33061e-08
1.76189e-09
3.33073e-08
1.70324e-09
3.33041e-08
1.65128e-09
3.32969e-08
1.60478e-09
3.32862e-08
1.56273e-09
3.3272e-08
1.52432e-09
3.32543e-08
1.48893e-09
3.32332e-08
1.45608e-09
3.32086e-08
1.42539e-09
3.31803e-08
1.39659e-09
3.31485e-08
1.36945e-09
3.31129e-08
1.3438e-09
3.30737e-08
1.31948e-09
3.30308e-08
1.29636e-09
3.29841e-08
1.27432e-09
3.29338e-08
1.25325e-09
3.28797e-08
1.23305e-09
3.2822e-08
1.21364e-09
3.27607e-08
1.19494e-09
3.26958e-08
1.17687e-09
3.26274e-08
1.15937e-09
3.25555e-08
1.1424e-09
3.24802e-08
1.12589e-09
3.24016e-08
1.10982e-09
3.23197e-08
1.09414e-09
3.22348e-08
1.07881e-09
3.21467e-08
1.06383e-09
3.20557e-08
1.04915e-09
3.19619e-08
1.03475e-09
3.18654e-08
1.02063e-09
3.17663e-08
1.00676e-09
3.16646e-08
9.93125e-10
3.15606e-08
9.79716e-10
3.14544e-08
9.66524e-10
3.1346e-08
9.53537e-10
3.12356e-08
9.40748e-10
3.11233e-08
9.28149e-10
3.10092e-08
9.15735e-10
3.08934e-08
9.035e-10
3.07762e-08
8.9144e-10
3.06574e-08
8.79549e-10
3.05374e-08
8.67827e-10
3.04162e-08
8.56267e-10
3.02938e-08
8.44871e-10
3.01705e-08
8.33632e-10
3.00462e-08
8.22552e-10
2.99212e-08
8.11626e-10
2.97954e-08
8.00855e-10
2.9669e-08
7.90235e-10
2.95421e-08
7.79768e-10
2.94147e-08
7.69449e-10
2.9287e-08
7.5928e-10
2.9159e-08
7.49257e-10
2.90307e-08
7.39383e-10
2.89024e-08
7.29652e-10
2.87739e-08
7.20067e-10
2.86454e-08
7.10624e-10
2.8517e-08
7.01325e-10
2.83886e-08
6.92164e-10
2.82604e-08
6.83146e-10
2.81325e-08
6.74264e-10
2.80047e-08
6.65522e-10
2.78773e-08
6.56913e-10
2.77502e-08
6.48442e-10
2.76235e-08
6.40101e-10
2.74972e-08
6.31895e-10
2.73714e-08
6.23817e-10
2.7246e-08
6.15871e-10
2.71212e-08
6.08049e-10
2.69969e-08
6.00356e-10
2.68732e-08
5.92784e-10
2.67501e-08
5.85338e-10
2.66276e-08
5.78011e-10
2.65058e-08
5.70805e-10
2.63846e-08
5.63714e-10
2.62641e-08
5.56741e-10
2.61443e-08
5.4988e-10
2.60252e-08
5.43133e-10
2.59068e-08
5.36496e-10
2.57892e-08
5.29967e-10
2.56723e-08
5.23546e-10
2.55561e-08
5.17229e-10
2.54407e-08
5.11017e-10
2.53261e-08
5.04903e-10
2.52123e-08
4.98894e-10
2.50993e-08
4.92976e-10
2.4987e-08
4.87163e-10
2.48756e-08
4.81434e-10
2.4765e-08
4.7581e-10
2.46551e-08
4.70261e-10
2.45461e-08
4.64821e-10
2.44379e-08
4.59446e-10
2.43304e-08
4.54183e-10
2.42238e-08
4.48975e-10
2.4118e-08
4.43885e-10
2.4013e-08
4.38835e-10
2.39088e-08
4.33914e-10
2.38055e-08
4.29015e-10
2.37029e-08
4.24258e-10
2.36011e-08
4.19505e-10
2.35001e-08
4.1491e-10
2.34e-08
4.10293e-10
2.33006e-08
4.05859e-10
2.3202e-08
4.01373e-10
2.31042e-08
3.971e-10
2.30072e-08
3.92735e-10
2.29109e-08
3.88625e-10
2.28156e-08
3.84375e-10
2.27208e-08
3.80432e-10
2.2627e-08
3.76289e-10
2.25337e-08
3.72519e-10
2.24414e-08
3.68475e-10
2.23496e-08
3.64888e-10
2.22589e-08
3.60934e-10
2.21685e-08
3.57541e-10
2.20793e-08
3.5367e-10
2.19903e-08
3.50488e-10
2.19025e-08
3.4669e-10
2.1815e-08
3.43743e-10
2.17286e-08
3.40005e-10
2.16424e-08
3.37326e-10
2.15574e-08
3.33635e-10
2.14725e-08
3.31261e-10
2.13889e-08
3.27609e-10
2.13052e-08
3.25583e-10
2.12229e-08
3.21969e-10
2.11403e-08
3.2034e-10
2.10592e-08
3.16777e-10
2.09778e-08
3.15599e-10
2.08978e-08
3.12135e-10
2.08174e-08
3.11458e-10
2.07385e-08
3.08228e-10
2.0659e-08
3.08113e-10
2.05809e-08
3.05463e-10
2.05022e-08
3.06053e-10
3.04585e-10
3.30121e-08
1.59399e-09
-3.29544e-08
3.31034e-08
1.78826e-09
3.32294e-08
1.9585e-09
3.33814e-08
2.10602e-09
3.3539e-08
2.20973e-09
3.36858e-08
2.25804e-09
3.38155e-08
2.25727e-09
3.39275e-08
2.22233e-09
3.40217e-08
2.16656e-09
3.40975e-08
2.09846e-09
3.41556e-08
2.02371e-09
3.41983e-08
1.94737e-09
3.42291e-08
1.87396e-09
3.42513e-08
1.80646e-09
3.42673e-08
1.74589e-09
3.42787e-08
1.69188e-09
3.42865e-08
1.64352e-09
3.42913e-08
1.59989e-09
3.42939e-08
1.56022e-09
3.42943e-08
1.52391e-09
3.42928e-08
1.49044e-09
3.42894e-08
1.45944e-09
3.42842e-08
1.43058e-09
3.42772e-08
1.40359e-09
3.42684e-08
1.37829e-09
3.42577e-08
1.35449e-09
3.42451e-08
1.33204e-09
3.42306e-08
1.31084e-09
3.42142e-08
1.29074e-09
3.41958e-08
1.27166e-09
3.41754e-08
1.25349e-09
3.41528e-08
1.23615e-09
3.41282e-08
1.21956e-09
3.41015e-08
1.20364e-09
3.40725e-08
1.18833e-09
3.40413e-08
1.17358e-09
3.40079e-08
1.15932e-09
3.39722e-08
1.14552e-09
3.39342e-08
1.13213e-09
3.38939e-08
1.11912e-09
3.38513e-08
1.10644e-09
3.38063e-08
1.09408e-09
3.37591e-08
1.08201e-09
3.37095e-08
1.07019e-09
3.36577e-08
1.05862e-09
3.36035e-08
1.04726e-09
3.35471e-08
1.03611e-09
3.34885e-08
1.02515e-09
3.34277e-08
1.01436e-09
3.33647e-08
1.00374e-09
3.32995e-08
9.93268e-10
3.32323e-08
9.82939e-10
3.31631e-08
9.72743e-10
3.30919e-08
9.62673e-10
3.30187e-08
9.52724e-10
3.29436e-08
9.42889e-10
3.28667e-08
9.33163e-10
3.27881e-08
9.23542e-10
3.27077e-08
9.14023e-10
3.26256e-08
9.046e-10
3.2542e-08
8.95274e-10
3.24568e-08
8.8604e-10
3.23701e-08
8.76897e-10
3.22821e-08
8.67842e-10
3.21926e-08
8.58877e-10
3.21019e-08
8.49997e-10
3.201e-08
8.41204e-10
3.19169e-08
8.32494e-10
3.18226e-08
8.23871e-10
3.17274e-08
8.15329e-10
3.16311e-08
8.06874e-10
3.15339e-08
7.98499e-10
3.14359e-08
7.90211e-10
3.1337e-08
7.82002e-10
3.12374e-08
7.73881e-10
3.11371e-08
7.65837e-10
3.10361e-08
7.57883e-10
3.09346e-08
7.50004e-10
3.08325e-08
7.42216e-10
3.07299e-08
7.34503e-10
3.06268e-08
7.26882e-10
3.05233e-08
7.19332e-10
3.04195e-08
7.11878e-10
3.03154e-08
7.04491e-10
3.02109e-08
6.97203e-10
3.01063e-08
6.8998e-10
3.00015e-08
6.82857e-10
2.98965e-08
6.75794e-10
2.97913e-08
6.68837e-10
2.96862e-08
6.61933e-10
2.95809e-08
6.5514e-10
2.94756e-08
6.48393e-10
2.93704e-08
6.41763e-10
2.92652e-08
6.3517e-10
2.916e-08
6.28701e-10
2.9055e-08
6.22259e-10
2.895e-08
6.15951e-10
2.88453e-08
6.09657e-10
2.87407e-08
6.03507e-10
2.86363e-08
5.97356e-10
2.85321e-08
5.91364e-10
2.84282e-08
5.85353e-10
2.83245e-08
5.79516e-10
2.82211e-08
5.7364e-10
2.8118e-08
5.67959e-10
2.80152e-08
5.62211e-10
2.79127e-08
5.56685e-10
2.78106e-08
5.51062e-10
2.77088e-08
5.4569e-10
2.76074e-08
5.40184e-10
2.75064e-08
5.34968e-10
2.74058e-08
5.29574e-10
2.73056e-08
5.24515e-10
2.72059e-08
5.19225e-10
2.71064e-08
5.14327e-10
2.70076e-08
5.09133e-10
2.69091e-08
5.044e-10
2.68111e-08
4.99295e-10
2.67135e-08
4.94733e-10
2.66165e-08
4.89707e-10
2.65198e-08
4.85324e-10
2.64238e-08
4.80368e-10
2.63281e-08
4.76177e-10
2.62331e-08
4.71279e-10
2.61383e-08
4.67293e-10
2.60444e-08
4.62442e-10
2.59506e-08
4.58678e-10
2.58576e-08
4.53864e-10
2.57648e-08
4.50343e-10
2.5673e-08
4.45552e-10
2.55812e-08
4.423e-10
2.54903e-08
4.37519e-10
2.53995e-08
4.3457e-10
2.53097e-08
4.29783e-10
2.52199e-08
4.27178e-10
2.51311e-08
4.22371e-10
2.50422e-08
4.20152e-10
2.49545e-08
4.15324e-10
2.48666e-08
4.13536e-10
2.47798e-08
4.08693e-10
2.46928e-08
4.07386e-10
2.4607e-08
4.02556e-10
2.45208e-08
4.01781e-10
2.44359e-08
3.97034e-10
2.43506e-08
3.96837e-10
2.42665e-08
3.92329e-10
2.41818e-08
3.92776e-10
2.40984e-08
3.88816e-10
2.40145e-08
3.90008e-10
3.86957e-10
3.40769e-08
1.53915e-09
-3.40221e-08
3.41583e-08
1.70695e-09
3.42657e-08
1.85101e-09
3.43947e-08
1.97709e-09
3.45326e-08
2.07183e-09
3.46657e-08
2.12489e-09
3.47859e-08
2.13707e-09
3.48908e-08
2.11748e-09
3.49803e-08
2.07704e-09
3.50546e-08
2.02414e-09
3.51141e-08
1.96421e-09
3.51601e-08
1.90133e-09
3.51951e-08
1.839e-09
3.52216e-08
1.77992e-09
3.5242e-08
1.72555e-09
3.52577e-08
1.67617e-09
3.52699e-08
1.63136e-09
3.52792e-08
1.59052e-09
3.52864e-08
1.55308e-09
3.52917e-08
1.51859e-09
3.52955e-08
1.48667e-09
3.52979e-08
1.45702e-09
3.52991e-08
1.42938e-09