/*--------------------------------*- C++ -*----------------------------------*\
| =========                 |                                                 |
| \\      /  F ield         | OpenFOAM: The Open Source CFD Toolbox           |
|  \\    /   O peration     | Version:  2.3.0                                 |
|   \\  /    A nd           | Web:      www.OpenFOAM.org                      |
|    \\/     M anipulation  |                                                 |
\*---------------------------------------------------------------------------*/
FoamFile
{
    version     2.0;
    format      ascii;
    class       volVectorField;
    location    "0.85";
    object      U;
}
// * * * * * * * * * * * * * * * * * * * * * * * * * * * * * * * * * * * * * //

dimensions      [0 1 -1 0 0 0 0];

internalField   nonuniform List<vector> 
5940
(
(0.172149 0.00510072 0)
(0.150949 0.00684237 0)
(0.132599 0.00710941 0)
(0.115183 0.00644349 0)
(0.0985088 0.00546237 0)
(0.0833656 0.00438875 0)
(0.0706829 0.00326743 0)
(0.0607327 0.00215359 0)
(0.0532459 0.00120794 0)
(0.0477346 0.000550608 0)
(0.0437219 0.00017447 0)
(0.0407976 2.94915e-07 0)
(0.0386221 -5.27266e-05 0)
(0.0369357 -4.37559e-05 0)
(0.0355531 -9.48095e-06 0)
(0.0343544 2.84497e-05 0)
(0.0332701 5.92114e-05 0)
(0.0322645 7.95687e-05 0)
(0.0313218 9.04496e-05 0)
(0.030436 9.42905e-05 0)
(0.0296045 9.35742e-05 0)
(0.0288254 9.02661e-05 0)
(0.0280964 8.57189e-05 0)
(0.0274143 8.07764e-05 0)
(0.0267757 7.59108e-05 0)
(0.0261768 7.13472e-05 0)
(0.0256139 6.7165e-05 0)
(0.0250836 6.33672e-05 0)
(0.0245827 5.99227e-05 0)
(0.0241085 5.67896e-05 0)
(0.0236584 5.39258e-05 0)
(0.0232303 5.12943e-05 0)
(0.0228225 4.88638e-05 0)
(0.0224332 4.66088e-05 0)
(0.022061 4.45086e-05 0)
(0.0217048 4.25466e-05 0)
(0.0213633 4.0709e-05 0)
(0.0210356 3.89845e-05 0)
(0.0207207 3.73633e-05 0)
(0.020418 3.58374e-05 0)
(0.0201265 3.43992e-05 0)
(0.0198457 3.30427e-05 0)
(0.019575 3.17616e-05 0)
(0.0193137 3.05509e-05 0)
(0.0190613 2.94055e-05 0)
(0.0188173 2.83213e-05 0)
(0.0185814 2.72937e-05 0)
(0.018353 2.63193e-05 0)
(0.0181319 2.53941e-05 0)
(0.0179175 2.45154e-05 0)
(0.0177097 2.36795e-05 0)
(0.017508 2.28844e-05 0)
(0.0173123 2.21268e-05 0)
(0.0171221 2.14049e-05 0)
(0.0169373 2.07161e-05 0)
(0.0167577 2.00589e-05 0)
(0.0165829 1.94307e-05 0)
(0.0164128 1.88308e-05 0)
(0.0162473 1.82564e-05 0)
(0.016086 1.77073e-05 0)
(0.0159289 1.71809e-05 0)
(0.0157757 1.66772e-05 0)
(0.0156263 1.61936e-05 0)
(0.0154806 1.57306e-05 0)
(0.0153384 1.52854e-05 0)
(0.0151996 1.48588e-05 0)
(0.015064 1.44481e-05 0)
(0.0149315 1.40546e-05 0)
(0.0148021 1.3675e-05 0)
(0.0146756 1.33112e-05 0)
(0.0145519 1.29598e-05 0)
(0.0144308 1.26231e-05 0)
(0.0143124 1.22971e-05 0)
(0.0141965 1.19849e-05 0)
(0.0140831 1.1682e-05 0)
(0.013972 1.13922e-05 0)
(0.0138631 1.11102e-05 0)
(0.0137565 1.08409e-05 0)
(0.013652 1.05781e-05 0)
(0.0135495 1.03276e-05 0)
(0.0134491 1.0082e-05 0)
(0.0133505 9.84874e-06 0)
(0.0132539 9.61901e-06 0)
(0.013159 9.40157e-06 0)
(0.0130659 9.18624e-06 0)
(0.0129744 8.98351e-06 0)
(0.0128847 8.7813e-06 0)
(0.0127965 8.59219e-06 0)
(0.0127099 8.40187e-06 0)
(0.0126248 8.22543e-06 0)
(0.0125412 8.0459e-06 0)
(0.0124589 7.88138e-06 0)
(0.0123781 7.71164e-06 0)
(0.0122985 7.55832e-06 0)
(0.0122204 7.39735e-06 0)
(0.0121434 7.25461e-06 0)
(0.0120677 7.10149e-06 0)
(0.0119931 6.96891e-06 0)
(0.0119199 6.82277e-06 0)
(0.0118476 6.69998e-06 0)
(0.0117766 6.55987e-06 0)
(0.0117064 6.44659e-06 0)
(0.0116376 6.31164e-06 0)
(0.0115695 6.20778e-06 0)
(0.0115027 6.07709e-06 0)
(0.0114365 5.98261e-06 0)
(0.0113717 5.85523e-06 0)
(0.0113073 5.7703e-06 0)
(0.0112444 5.64525e-06 0)
(0.0111816 5.57014e-06 0)
(0.0111205 5.44629e-06 0)
(0.0110594 5.38148e-06 0)
(0.011 5.25767e-06 0)
(0.0109404 5.20387e-06 0)
(0.0108826 5.07873e-06 0)
(0.0108245 5.03683e-06 0)
(0.0107683 4.90887e-06 0)
(0.0107114 4.88009e-06 0)
(0.0106568 4.74754e-06 0)
(0.0106011 4.73342e-06 0)
(0.0105481 4.5942e-06 0)
(0.0104935 4.5967e-06 0)
(0.0104419 4.44841e-06 0)
(0.0103882 4.46994e-06 0)
(0.0103381 4.30963e-06 0)
(0.0102853 4.35338e-06 0)
(0.0102367 4.17744e-06 0)
(0.0101846 4.24738e-06 0)
(0.0101375 4.05125e-06 0)
(0.0100859 4.15255e-06 0)
(0.0100403 3.93056e-06 0)
(0.00998899 4.06972e-06 0)
(0.00994498 3.8148e-06 0)
(0.00989379 4.00005e-06 0)
(0.00985148 3.7033e-06 0)
(0.00980007 3.94528e-06 0)
(0.00975962 3.5951e-06 0)
(0.00970762 3.90794e-06 0)
(0.00966927 3.48895e-06 0)
(0.00961619 3.89156e-06 0)
(0.00958027 3.38312e-06 0)
(0.00952545 3.90165e-06 0)
(0.0094925 3.27477e-06 0)
(0.00943498 3.94784e-06 0)
(0.00940583 3.15906e-06 0)
(0.00934413 4.05049e-06 0)
(0.00932028 3.02926e-06 0)
(0.00925157 4.2739e-06 0)
(0.00923628 2.98233e-06 0)
(0.00914978 6.13938e-06 0)
(0.18943 0.00904181 0)
(0.18737 0.0124024 0)
(0.184771 0.0137446 0)
(0.181052 0.0136303 0)
(0.175797 0.0128557 0)
(0.169172 0.0117511 0)
(0.161764 0.0103785 0)
(0.154063 0.00877865 0)
(0.146423 0.00710802 0)
(0.139064 0.00556321 0)
(0.132137 0.00427242 0)
(0.125746 0.00327087 0)
(0.119942 0.00253385 0)
(0.114729 0.00201537 0)
(0.110069 0.0016619 0)
(0.105898 0.00142256 0)
(0.102149 0.0012561 0)
(0.0987596 0.00113348 0)
(0.0956764 0.00103649 0)
(0.092855 0.000954798 0)
(0.090259 0.000883004 0)
(0.0878591 0.000818501 0)
(0.0856311 0.000760079 0)
(0.083555 0.000707148 0)
(0.0816138 0.000659312 0)
(0.0797931 0.000616188 0)
(0.0780808 0.000577355 0)
(0.0764659 0.000542366 0)
(0.0749394 0.000510771 0)
(0.073493 0.000482147 0)
(0.0721198 0.00045611 0)
(0.0708136 0.000432327 0)
(0.0695688 0.000410509 0)
(0.0683807 0.000390416 0)
(0.067245 0.000371843 0)
(0.0661579 0.00035462 0)
(0.065116 0.000338604 0)
(0.0641161 0.000323674 0)
(0.0631556 0.000309724 0)
(0.0622318 0.000296665 0)
(0.0613426 0.000284419 0)
(0.0604857 0.000272918 0)
(0.0596594 0.000262098 0)
(0.0588618 0.000251907 0)
(0.0580914 0.000242295 0)
(0.0573466 0.000233217 0)
(0.0566261 0.000224634 0)
(0.0559286 0.000216511 0)
(0.0552529 0.000208812 0)
(0.0545979 0.000201509 0)
(0.0539627 0.000194573 0)
(0.0533462 0.000187982 0)
(0.0527476 0.00018171 0)
(0.0521661 0.000175738 0)
(0.0516008 0.000170046 0)
(0.0510511 0.000164617 0)
(0.0505163 0.000159434 0)
(0.0499957 0.000154484 0)
(0.0494888 0.00014975 0)
(0.0489949 0.000145224 0)
(0.0485136 0.000140889 0)
(0.0480443 0.000136739 0)
(0.0475866 0.000132759 0)
(0.04714 0.000128945 0)
(0.0467041 0.000125282 0)
(0.0462784 0.000121769 0)
(0.0458627 0.000118392 0)
(0.0454565 0.00011515 0)
(0.0450595 0.000112029 0)
(0.0446713 0.000109031 0)
(0.0442917 0.000106141 0)
(0.0439204 0.000103364 0)
(0.043557 0.000100684 0)
(0.0432012 9.81074e-05 0)
(0.042853 9.5617e-05 0)
(0.0425119 9.32228e-05 0)
(0.0421778 9.09049e-05 0)
(0.0418503 8.86769e-05 0)
(0.0415294 8.65163e-05 0)
(0.0412147 8.44403e-05 0)
(0.0409063 8.2423e-05 0)
(0.0406036 8.04861e-05 0)
(0.0403067 7.85996e-05 0)
(0.0400153 7.67903e-05 0)
(0.0397294 7.50236e-05 0)
(0.0394486 7.33319e-05 0)
(0.039173 7.16747e-05 0)
(0.0389021 7.00915e-05 0)
(0.0386363 6.85346e-05 0)
(0.0383748 6.70516e-05 0)
(0.0381181 6.55864e-05 0)
(0.0378655 6.41966e-05 0)
(0.0376175 6.28156e-05 0)
(0.0373732 6.15124e-05 0)
(0.0371334 6.02082e-05 0)
(0.036897 5.89858e-05 0)
(0.036665 5.77519e-05 0)
(0.036436 5.66055e-05 0)
(0.0362114 5.54358e-05 0)
(0.0359895 5.43609e-05 0)
(0.035772 5.32494e-05 0)
(0.0355567 5.22423e-05 0)
(0.0353458 5.11833e-05 0)
(0.0351369 5.02411e-05 0)
(0.0349324 4.92294e-05 0)
(0.0347295 4.83495e-05 0)
(0.0345311 4.73799e-05 0)
(0.0343338 4.65607e-05 0)
(0.0341412 4.56278e-05 0)
(0.0339492 4.48681e-05 0)
(0.0337623 4.39666e-05 0)
(0.0335754 4.32662e-05 0)
(0.0333938 4.23908e-05 0)
(0.0332116 4.17502e-05 0)
(0.0330353 4.08951e-05 0)
(0.0328575 4.03156e-05 0)
(0.0326863 3.94749e-05 0)
(0.0325125 3.8959e-05 0)
(0.0323463 3.81259e-05 0)
(0.0321763 3.76772e-05 0)
(0.0320149 3.68443e-05 0)
(0.0318484 3.64678e-05 0)
(0.0316918 3.5627e-05 0)
(0.0315284 3.53293e-05 0)
(0.0313765 3.44708e-05 0)
(0.0312158 3.42607e-05 0)
(0.0310687 3.33731e-05 0)
(0.0309102 3.32623e-05 0)
(0.0307679 3.23315e-05 0)
(0.0306112 3.23351e-05 0)
(0.030474 3.1344e-05 0)
(0.0303184 3.14812e-05 0)
(0.0301864 3.0409e-05 0)
(0.0300312 3.0704e-05 0)
(0.0299049 2.95254e-05 0)
(0.0297491 3.00094e-05 0)
(0.029629 2.8692e-05 0)
(0.0294716 2.94058e-05 0)
(0.0293584 2.7908e-05 0)
(0.0291979 2.89053e-05 0)
(0.0290929 2.71736e-05 0)
(0.0289271 2.85256e-05 0)
(0.0288321 2.64901e-05 0)
(0.0286582 2.82964e-05 0)
(0.0285758 2.58639e-05 0)
(0.0283894 2.82737e-05 0)
(0.0283242 2.53337e-05 0)
(0.0281173 2.86514e-05 0)
(0.0280788 2.52607e-05 0)
(0.0278322 3.30452e-05 0)
(0.190548 0.00899138 0)
(0.191004 0.011754 0)
(0.192105 0.0135421 0)
(0.193312 0.0141534 0)
(0.193907 0.0140103 0)
(0.193521 0.0134437 0)
(0.192153 0.0125651 0)
(0.189951 0.0114352 0)
(0.187092 0.0101639 0)
(0.183746 0.0088961 0)
(0.180063 0.00774557 0)
(0.176189 0.00676377 0)
(0.172243 0.00595054 0)
(0.168318 0.00528472 0)
(0.164468 0.00473793 0)
(0.160722 0.00428285 0)
(0.157093 0.00389704 0)
(0.153588 0.00356386 0)
(0.15021 0.00327173 0)
(0.146961 0.00301278 0)
(0.143838 0.00278168 0)
(0.14084 0.00257462 0)
(0.137965 0.00238873 0)
(0.13521 0.00222168 0)
(0.132571 0.00207144 0)
(0.130044 0.00193619 0)
(0.127624 0.00181425 0)
(0.125306 0.00170408 0)
(0.123085 0.0016043 0)
(0.120956 0.00151367 0)
(0.118915 0.00143108 0)
(0.116955 0.00135557 0)
(0.115073 0.00128632 0)
(0.113264 0.0012226 0)
(0.111525 0.00116379 0)
(0.10985 0.00110935 0)
(0.108236 0.00105883 0)
(0.10668 0.00101183 0)
(0.105179 0.000968006 0)
(0.103729 0.000927053 0)
(0.102328 0.000888709 0)
(0.100974 0.000852744 0)
(0.0996636 0.000818952 0)
(0.0983948 0.000787153 0)
(0.0971656 0.000757183 0)
(0.095974 0.000728899 0)
(0.0948183 0.000702169 0)
(0.0936968 0.000676877 0)
(0.0926078 0.000652915 0)
(0.09155 0.00063019 0)
(0.0905219 0.000608612 0)
(0.0895221 0.000588104 0)
(0.0885496 0.000568592 0)
(0.0876031 0.000550013 0)
(0.0866816 0.000532302 0)
(0.0857839 0.00051541 0)
(0.0849093 0.000499281 0)
(0.0840566 0.000483873 0)
(0.0832252 0.000469138 0)
(0.082414 0.000455043 0)
(0.0816225 0.000441544 0)
(0.0808498 0.000428615 0)
(0.0800953 0.000416216 0)
(0.0793583 0.000404327 0)
(0.0786381 0.000392911 0)
(0.0779341 0.000381954 0)
(0.0772459 0.000371421 0)
(0.0765728 0.000361301 0)
(0.0759143 0.000351561 0)
(0.0752699 0.000342197 0)
(0.0746393 0.000333174 0)
(0.0740217 0.000324493 0)
(0.073417 0.000316119 0)
(0.0728245 0.000308058 0)
(0.0722442 0.000300273 0)
(0.0716752 0.000292775 0)
(0.0711177 0.000285525 0)
(0.0705708 0.000278542 0)
(0.0700347 0.00027178 0)
(0.0695085 0.000265266 0)
(0.0689925 0.00025895 0)
(0.0684859 0.000252866 0)
(0.0679889 0.000246957 0)
(0.0675005 0.000241267 0)
(0.0670214 0.000235732 0)
(0.0665504 0.000230406 0)
(0.0660882 0.000225213 0)
(0.0656335 0.000220221 0)
(0.0651872 0.000215342 0)
(0.0647479 0.000210659 0)
(0.0643167 0.000206069 0)
(0.063892 0.000201671 0)
(0.0634752 0.000197347 0)
(0.0630642 0.000193214 0)
(0.062661 0.000189135 0)
(0.0622631 0.000185248 0)
(0.0618727 0.000181393 0)
(0.0614872 0.000177737 0)
(0.0611091 0.000174089 0)
(0.0607352 0.000170648 0)
(0.0603689 0.000167189 0)
(0.0600061 0.00016395 0)
(0.059651 0.000160665 0)
(0.0592987 0.000157617 0)
(0.0589542 0.000154491 0)
(0.0586119 0.000151624 0)
(0.0582777 0.000148643 0)
(0.0579448 0.000145949 0)
(0.0576205 0.000143099 0)
(0.0572965 0.000140572 0)
(0.0569816 0.000137841 0)
(0.056666 0.000135475 0)
(0.0563603 0.000132849 0)
(0.0560526 0.000130642 0)
(0.0557558 0.000128108 0)
(0.0554555 0.000126057 0)
(0.0551674 0.000123603 0)
(0.0548739 0.00012171 0)
(0.0545944 0.000119322 0)
(0.0543072 0.000117589 0)
(0.054036 0.000115253 0)
(0.0537546 0.000113685 0)
(0.0534918 0.000111385 0)
(0.0532155 0.00010999 0)
(0.052961 0.000107711 0)
(0.0526892 0.000106501 0)
(0.0524431 0.000104223 0)
(0.052175 0.000103213 0)
(0.0519376 0.000100915 0)
(0.0516723 0.000100127 0)
(0.0514438 9.77827e-05 0)
(0.0511803 9.72432e-05 0)
(0.0509614 9.48233e-05 0)
(0.0506983 9.45672e-05 0)
(0.0504896 9.20369e-05 0)
(0.0502255 9.21076e-05 0)
(0.0500282 8.94253e-05 0)
(0.0497609 8.98782e-05 0)
(0.0495765 8.69945e-05 0)
(0.0493035 8.78988e-05 0)
(0.0491341 8.47574e-05 0)
(0.048852 8.61977e-05 0)
(0.0487008 8.27386e-05 0)
(0.0484046 8.48183e-05 0)
(0.0482763 8.09915e-05 0)
(0.0479587 8.38397e-05 0)
(0.047861 7.9666e-05 0)
(0.0475103 8.36164e-05 0)
(0.0474559 7.94996e-05 0)
(0.0470525 8.87489e-05 0)
(0.191703 0.00850262 0)
(0.192128 0.0104261 0)
(0.193233 0.012018 0)
(0.194901 0.0128595 0)
(0.196638 0.0130338 0)
(0.19802 0.0127802 0)
(0.198865 0.0122489 0)
(0.199156 0.0115163 0)
(0.198932 0.0106535 0)
(0.198251 0.00975086 0)
(0.197181 0.00889252 0)
(0.1958 0.00812937 0)
(0.194191 0.00747488 0)
(0.192421 0.00691789 0)
(0.190539 0.00643995 0)
(0.188578 0.0060236 0)
(0.186555 0.00565471 0)
(0.184485 0.00532261 0)
(0.182379 0.00501959 0)
(0.180246 0.00474032 0)
(0.178094 0.00448123 0)
(0.175931 0.00423992 0)
(0.173766 0.00401476 0)
(0.171605 0.00380454 0)
(0.169454 0.00360827 0)
(0.16732 0.00342506 0)
(0.165208 0.00325404 0)
(0.163121 0.0030944 0)
(0.161063 0.00294533 0)
(0.159037 0.00280605 0)
(0.157046 0.00267585 0)
(0.155091 0.00255403 0)
(0.153173 0.00243995 0)
(0.151293 0.00233303 0)
(0.149452 0.00223272 0)
(0.14765 0.00213851 0)
(0.145888 0.00204995 0)
(0.144165 0.00196662 0)
(0.14248 0.00188813 0)
(0.140833 0.00181412 0)
(0.139225 0.00174426 0)
(0.137653 0.00167826 0)
(0.136117 0.00161585 0)
(0.134617 0.00155676 0)
(0.133152 0.00150078 0)
(0.13172 0.00144768 0)
(0.130321 0.00139727 0)
(0.128954 0.00134937 0)
(0.127619 0.00130382 0)
(0.126313 0.00126046 0)
(0.125037 0.00121915 0)
(0.12379 0.00117977 0)
(0.12257 0.00114219 0)
(0.121378 0.00110631 0)
(0.120211 0.00107201 0)
(0.11907 0.00103922 0)
(0.117953 0.00100784 0)
(0.116861 0.000977793 0)
(0.115791 0.000948999 0)
(0.114744 0.000921398 0)
(0.113719 0.000894914 0)
(0.112715 0.0008695 0)
(0.111731 0.000845086 0)
(0.110768 0.000821634 0)
(0.109824 0.000799081 0)
(0.108898 0.000777396 0)
(0.107991 0.00075652 0)
(0.107102 0.000736432 0)
(0.10623 0.000717073 0)
(0.105375 0.00069843 0)
(0.104536 0.000680447 0)
(0.103713 0.000663118 0)
(0.102905 0.000646386 0)
(0.102112 0.000630253 0)
(0.101334 0.00061466 0)
(0.10057 0.000599618 0)
(0.0998196 0.000585065 0)
(0.0990825 0.000571022 0)
(0.0983589 0.00055742 0)
(0.0976475 0.000544292 0)
(0.096949 0.000531562 0)
(0.096262 0.000519274 0)
(0.0955873 0.000507345 0)
(0.0949233 0.000495829 0)
(0.0942712 0.000484635 0)
(0.0936291 0.000473832 0)
(0.0929985 0.000463315 0)
(0.0923772 0.00045317 0)
(0.091767 0.000443276 0)
(0.0911655 0.000433739 0)
(0.0905747 0.00042442 0)
(0.089992 0.000415446 0)
(0.0894197 0.000406657 0)
(0.0888548 0.000398207 0)
(0.0883002 0.000389908 0)
(0.0877522 0.000381944 0)
(0.0872146 0.000374097 0)
(0.0866826 0.000366587 0)
(0.0861612 0.000359158 0)
(0.0856446 0.000352072 0)
(0.0851385 0.000345029 0)
(0.0846365 0.00033834 0)
(0.0841454 0.000331654 0)
(0.0836571 0.000325338 0)
(0.0831803 0.000318981 0)
(0.0827052 0.000313017 0)
(0.0822421 0.000306963 0)
(0.0817795 0.000301333 0)
(0.0813297 0.000295558 0)
(0.0808789 0.000290247 0)
(0.080442 0.000284726 0)
(0.0800023 0.00027972 0)
(0.0795779 0.000274433 0)
(0.0791487 0.000269721 0)
(0.0787365 0.000264646 0)
(0.0783171 0.000260221 0)
(0.0779169 0.000255337 0)
(0.0775066 0.000251192 0)
(0.0771182 0.000246479 0)
(0.0767163 0.000242614 0)
(0.0763397 0.000238051 0)
(0.0759453 0.000234464 0)
(0.0755805 0.000230031 0)
(0.0751928 0.000226729 0)
(0.0748398 0.000222403 0)
(0.0744579 0.000219394 0)
(0.0741171 0.000215154 0)
(0.0737398 0.000212451 0)
(0.0734116 0.00020827 0)
(0.0730376 0.000205894 0)
(0.0727226 0.000201745 0)
(0.0723505 0.000199722 0)
(0.0720496 0.000195577 0)
(0.0716774 0.000193937 0)
(0.0713919 0.000189766 0)
(0.0710174 0.000188549 0)
(0.070749 0.000184321 0)
(0.0703692 0.000183574 0)
(0.0701203 0.000179259 0)
(0.0697316 0.000179035 0)
(0.0695054 0.000174612 0)
(0.0691028 0.000174967 0)
(0.0689039 0.000170439 0)
(0.0684808 0.000171427 0)
(0.0683156 0.00016684 0)
(0.0678628 0.000168537 0)
(0.0677406 0.000164033 0)
(0.0672451 0.000166873 0)
(0.0671789 0.000162949 0)
(0.0666232 0.00017097 0)
(0.192685 0.00806866 0)
(0.193077 0.00949976 0)
(0.193941 0.0108082 0)
(0.195303 0.0116633 0)
(0.196902 0.0119793 0)
(0.198417 0.0118837 0)
(0.199655 0.0115256 0)
(0.20056 0.011001 0)
(0.201144 0.0103712 0)
(0.201431 0.00969487 0)
(0.201451 0.0090309 0)
(0.201243 0.00842307 0)
(0.200852 0.0078908 0)
(0.200324 0.00743233 0)
(0.19969 0.00703629 0)
(0.198971 0.00668992 0)
(0.198179 0.00638217 0)
(0.19732 0.00610427 0)
(0.196398 0.00584951 0)
(0.195416 0.00561294 0)
(0.194378 0.00539111 0)
(0.193286 0.00518168 0)
(0.192145 0.00498309 0)
(0.190958 0.00479427 0)
(0.189731 0.0046145 0)
(0.188468 0.00444318 0)
(0.187172 0.00427982 0)
(0.185849 0.00412398 0)
(0.184502 0.00397524 0)
(0.183135 0.00383322 0)
(0.181751 0.00369753 0)
(0.180355 0.00356785 0)
(0.178948 0.00344384 0)
(0.177534 0.00332522 0)
(0.176116 0.00321171 0)
(0.174697 0.00310305 0)
(0.173277 0.00299901 0)
(0.17186 0.00289936 0)
(0.170448 0.0028039 0)
(0.169041 0.00271242 0)
(0.167642 0.00262475 0)
(0.166252 0.0025407 0)
(0.164873 0.0024601 0)
(0.163504 0.00238281 0)
(0.162148 0.00230866 0)
(0.160805 0.00223751 0)
(0.159476 0.00216922 0)
(0.158161 0.00210365 0)
(0.156861 0.00204068 0)
(0.155576 0.0019802 0)
(0.154307 0.00192207 0)
(0.153054 0.0018662 0)
(0.151817 0.00181248 0)
(0.150597 0.00176081 0)
(0.149393 0.0017111 0)
(0.148206 0.00166325 0)
(0.147035 0.00161718 0)
(0.14588 0.00157281 0)
(0.144742 0.00153006 0)
(0.143621 0.00148887 0)
(0.142516 0.00144916 0)
(0.141426 0.00141086 0)
(0.140353 0.00137391 0)
(0.139296 0.00133827 0)
(0.138254 0.00130385 0)
(0.137228 0.00127063 0)
(0.136217 0.00123853 0)
(0.135222 0.00120753 0)
(0.134241 0.00117756 0)
(0.133274 0.0011486 0)
(0.132323 0.00112058 0)
(0.131385 0.0010935 0)
(0.130461 0.00106728 0)
(0.129551 0.00104192 0)
(0.128655 0.00101735 0)
(0.127771 0.000993585 0)
(0.126901 0.000970541 0)
(0.126044 0.000948243 0)
(0.125199 0.000926606 0)
(0.124366 0.000905665 0)
(0.123546 0.000885329 0)
(0.122738 0.000865644 0)
(0.121941 0.00084651 0)
(0.121155 0.000827988 0)
(0.120382 0.000809967 0)
(0.119618 0.000792524 0)
(0.118866 0.000775535 0)
(0.118124 0.000759094 0)
(0.117393 0.000743061 0)
(0.116671 0.000727552 0)
(0.115961 0.000712406 0)
(0.115259 0.000697764 0)
(0.114569 0.000683443 0)
(0.113885 0.000669609 0)
(0.113214 0.000656053 0)
(0.112548 0.000642974 0)
(0.111895 0.000630128 0)
(0.111247 0.000617755 0)
(0.110612 0.00060557 0)
(0.10998 0.000593857 0)
(0.109362 0.000582288 0)
(0.108746 0.000571194 0)
(0.108144 0.000560196 0)
(0.107544 0.000549685 0)
(0.106958 0.000539219 0)
(0.106372 0.000529257 0)
(0.105802 0.000519284 0)
(0.10523 0.000509842 0)
(0.104675 0.000500328 0)
(0.104116 0.000491378 0)
(0.103577 0.00048229 0)
(0.10303 0.000473808 0)
(0.102505 0.000465116 0)
(0.10197 0.000457083 0)
(0.101459 0.000448757 0)
(0.100935 0.000441156 0)
(0.100439 0.000433168 0)
(0.0999247 0.000425985 0)
(0.0994426 0.000418309 0)
(0.0989379 0.000411533 0)
(0.0984701 0.000404145 0)
(0.0979736 0.000397768 0)
(0.0975204 0.000390645 0)
(0.0970311 0.000384662 0)
(0.0965927 0.000377782 0)
(0.0961094 0.000372194 0)
(0.0956865 0.000365534 0)
(0.0952077 0.000360347 0)
(0.0948009 0.000353884 0)
(0.094325 0.000349107 0)
(0.0939354 0.000342822 0)
(0.0934603 0.000338469 0)
(0.0930892 0.000332345 0)
(0.0926127 0.00032843 0)
(0.092262 0.000322457 0)
(0.0917809 0.000318999 0)
(0.091453 0.000313173 0)
(0.0909638 0.000310192 0)
(0.0906619 0.000304524 0)
(0.0901598 0.000302036 0)
(0.0898881 0.000296561 0)
(0.0893672 0.000294578 0)
(0.0891313 0.000289365 0)
(0.0885838 0.000287905 0)
(0.0883912 0.00028306 0)
(0.0878071 0.000282223 0)
(0.0876673 0.000277892 0)
(0.0870339 0.000278283 0)
(0.0869592 0.000274914 0)
(0.0862614 0.00027992 0)
(0.193497 0.00771456 0)
(0.193875 0.00886075 0)
(0.194592 0.00993665 0)
(0.195678 0.0107296 0)
(0.196997 0.0111134 0)
(0.198329 0.0111266 0)
(0.199502 0.0108839 0)
(0.200448 0.0104843 0)
(0.201165 0.00999138 0)
(0.201673 0.00945125 0)
(0.201999 0.00890665 0)
(0.202169 0.00839371 0)
(0.202213 0.00793382 0)
(0.202163 0.0075322 0)
(0.202043 0.00718362 0)
(0.20187 0.0068791 0)
(0.201654 0.0066097 0)
(0.201397 0.00636788 0)
(0.201101 0.0061477 0)
(0.200766 0.00594462 0)
(0.20039 0.00575529 0)
(0.199974 0.00557728 0)
(0.199518 0.00540889 0)
(0.199023 0.00524888 0)
(0.198489 0.00509636 0)
(0.197918 0.00495062 0)
(0.197311 0.00481107 0)
(0.196668 0.00467723 0)
(0.195993 0.00454863 0)
(0.195285 0.00442489 0)
(0.194547 0.00430564 0)
(0.193781 0.00419058 0)
(0.192987 0.00407942 0)
(0.192168 0.00397192 0)
(0.191326 0.00386787 0)
(0.190461 0.00376708 0)
(0.189575 0.00366938 0)
(0.188671 0.00357463 0)
(0.187749 0.00348271 0)
(0.186812 0.0033935 0)
(0.18586 0.00330689 0)
(0.184896 0.00322281 0)
(0.18392 0.00314116 0)
(0.182935 0.00306186 0)
(0.181941 0.00298484 0)
(0.180939 0.00291004 0)
(0.179931 0.00283738 0)
(0.178919 0.00276681 0)
(0.177902 0.00269826 0)
(0.176883 0.00263168 0)
(0.175862 0.002567 0)
(0.17484 0.00250419 0)
(0.173818 0.00244317 0)
(0.172796 0.00238391 0)
(0.171776 0.00232635 0)
(0.170758 0.00227044 0)
(0.169744 0.00221613 0)
(0.168732 0.00216338 0)
(0.167725 0.00211214 0)
(0.166722 0.00206238 0)
(0.165724 0.00201403 0)
(0.164732 0.00196706 0)
(0.163745 0.00192143 0)
(0.162765 0.00187711 0)
(0.161791 0.00183404 0)
(0.160824 0.0017922 0)
(0.159864 0.00175154 0)
(0.158911 0.00171203 0)
(0.157966 0.00167362 0)
(0.157029 0.00163631 0)
(0.156099 0.00160003 0)
(0.155177 0.00156477 0)
(0.154264 0.00153048 0)
(0.153359 0.00149716 0)
(0.152462 0.00146474 0)
(0.151573 0.00143323 0)
(0.150693 0.00140257 0)
(0.149821 0.00137277 0)
(0.148958 0.00134375 0)
(0.148103 0.00131554 0)
(0.147257 0.00128807 0)
(0.146419 0.00126136 0)
(0.14559 0.00123533 0)
(0.144768 0.00121004 0)
(0.143957 0.00118537 0)
(0.143152 0.0011614 0)
(0.142357 0.001138 0)
(0.141569 0.00111527 0)
(0.140791 0.00109308 0)
(0.140019 0.00107151 0)
(0.139257 0.00105043 0)
(0.138501 0.00102997 0)
(0.137756 0.00100994 0)
(0.137015 0.000990504 0)
(0.136286 0.000971465 0)
(0.135561 0.000952997 0)
(0.134848 0.000934884 0)
(0.134137 0.000917329 0)
(0.13344 0.000900084 0)
(0.132744 0.000883388 0)
(0.132062 0.000866958 0)
(0.13138 0.000851072 0)
(0.130713 0.000835407 0)
(0.130044 0.000820286 0)
(0.129393 0.00080534 0)
(0.128737 0.000790941 0)
(0.128101 0.000776669 0)
(0.127457 0.000762954 0)
(0.126836 0.000749316 0)
(0.126204 0.000736249 0)
(0.125598 0.000723207 0)
(0.124977 0.000710756 0)
(0.124385 0.000698275 0)
(0.123776 0.000686411 0)
(0.123199 0.000674457 0)
(0.122599 0.000663154 0)
(0.122037 0.000651699 0)
(0.121446 0.000640932 0)
(0.120899 0.000629948 0)
(0.120317 0.000619698 0)
(0.119785 0.00060916 0)
(0.11921 0.000599407 0)
(0.118694 0.000589296 0)
(0.118125 0.000580025 0)
(0.117626 0.000570322 0)
(0.117061 0.00056152 0)
(0.11658 0.000552211 0)
(0.116018 0.000543869 0)
(0.115555 0.000534942 0)
(0.114994 0.000527054 0)
(0.114551 0.000518503 0)
(0.113989 0.000511061 0)
(0.113569 0.000502892 0)
(0.113002 0.000495888 0)
(0.112606 0.00048812 0)
(0.112032 0.000481542 0)
(0.111663 0.000474207 0)
(0.111077 0.000468042 0)
(0.11074 0.000461193 0)
(0.110137 0.000455429 0)
(0.109835 0.00044914 0)
(0.109209 0.000443771 0)
(0.10895 0.000438142 0)
(0.108292 0.0004332 0)
(0.108082 0.000428336 0)
(0.107383 0.000424002 0)
(0.107233 0.000420009 0)
(0.10648 0.000417003 0)
(0.1064 0.000414271 0)
(0.10558 0.000415147 0)
(0.194196 0.00741349 0)
(0.194558 0.00836269 0)
(0.195171 0.00925371 0)
(0.196057 0.00995287 0)
(0.197137 0.0103519 0)
(0.198266 0.010442 0)
(0.199307 0.0102937 0)
(0.200183 0.00999146 0)
(0.200879 0.00959884 0)
(0.201408 0.00915846 0)
(0.201795 0.00870398 0)
(0.202061 0.00826397 0)
(0.202231 0.00785871 0)
(0.202329 0.00749727 0)
(0.202376 0.00717933 0)
(0.202387 0.00689953 0)
(0.202373 0.0066512 0)
(0.202336 0.00642823 0)
(0.20228 0.00622571 0)
(0.202204 0.00603979 0)
(0.202107 0.00586756 0)
(0.201989 0.00570684 0)
(0.20185 0.00555594 0)
(0.20169 0.00541361 0)
(0.201507 0.00527885 0)
(0.201302 0.00515086 0)
(0.201075 0.00502896 0)
(0.200825 0.00491256 0)
(0.200553 0.00480113 0)
(0.200258 0.00469421 0)
(0.199941 0.00459136 0)
(0.199602 0.00449223 0)
(0.19924 0.00439646 0)
(0.198856 0.00430378 0)
(0.198451 0.00421393 0)
(0.198025 0.00412668 0)
(0.197577 0.00404185 0)
(0.19711 0.00395926 0)
(0.196622 0.00387877 0)
(0.196115 0.00380025 0)
(0.195589 0.0037236 0)
(0.195045 0.00364873 0)
(0.194484 0.00357554 0)
(0.193905 0.00350397 0)
(0.193311 0.00343395 0)
(0.192701 0.00336543 0)
(0.192076 0.00329835 0)
(0.191437 0.00323269 0)
(0.190784 0.00316838 0)
(0.190119 0.0031054 0)
(0.189443 0.00304372 0)
(0.188755 0.00298331 0)
(0.188056 0.00292413 0)
(0.187348 0.00286617 0)
(0.186631 0.0028094 0)
(0.185906 0.00275381 0)
(0.185173 0.00269935 0)
(0.184432 0.00264603 0)
(0.183686 0.00259381 0)
(0.182933 0.00254269 0)
(0.182176 0.00249264 0)
(0.181414 0.00244364 0)
(0.180648 0.00239567 0)
(0.179878 0.00234873 0)
(0.179105 0.00230278 0)
(0.17833 0.00225783 0)
(0.177553 0.00221383 0)
(0.176774 0.00217079 0)
(0.175995 0.00212868 0)
(0.175214 0.00208749 0)
(0.174434 0.00204718 0)
(0.173653 0.00200778 0)
(0.172873 0.00196922 0)
(0.172093 0.00193152 0)
(0.171315 0.00189465 0)
(0.170538 0.0018586 0)
(0.169763 0.00182333 0)
(0.168989 0.00178886 0)
(0.168219 0.00175514 0)
(0.167449 0.00172219 0)
(0.166685 0.00168995 0)
(0.16592 0.00165844 0)
(0.165161 0.00162762 0)
(0.164403 0.0015975 0)
(0.163651 0.00156803 0)
(0.1629 0.00153924 0)
(0.162155 0.00151105 0)
(0.161411 0.00148353 0)
(0.160675 0.00145658 0)
(0.159938 0.00143026 0)
(0.159211 0.00140448 0)
(0.158482 0.00137931 0)
(0.157763 0.00135465 0)
(0.157043 0.00133058 0)
(0.156334 0.00130698 0)
(0.155622 0.00128395 0)
(0.154923 0.00126137 0)
(0.15422 0.00123932 0)
(0.153531 0.00121771 0)
(0.152836 0.00119661 0)
(0.152158 0.0011759 0)
(0.151472 0.0011557 0)
(0.150804 0.00113587 0)
(0.150127 0.00111652 0)
(0.14947 0.00109752 0)
(0.148801 0.00107898 0)
(0.148155 0.00106076 0)
(0.147495 0.00104299 0)
(0.14686 0.00102553 0)
(0.146208 0.00100849 0)
(0.145585 0.000991749 0)
(0.14494 0.000975409 0)
(0.14433 0.00095935 0)
(0.143692 0.000943673 0)
(0.143095 0.000928272 0)
(0.142463 0.000913226 0)
(0.141879 0.000898458 0)
(0.141254 0.000884012 0)
(0.140683 0.000869856 0)
(0.140062 0.00085598 0)
(0.139507 0.00084242 0)
(0.13889 0.000829085 0)
(0.13835 0.000816111 0)
(0.137736 0.00080329 0)
(0.137212 0.000790894 0)
(0.136599 0.000778561 0)
(0.136093 0.000766742 0)
(0.13548 0.000754874 0)
(0.134994 0.000743636 0)
(0.134378 0.00073221 0)
(0.133913 0.000721569 0)
(0.133292 0.000710555 0)
(0.132851 0.000700543 0)
(0.132222 0.000689909 0)
(0.131807 0.000680574 0)
(0.131167 0.000670284 0)
(0.130782 0.000661689 0)
(0.130126 0.000651715 0)
(0.129775 0.000643932 0)
(0.129097 0.000634258 0)
(0.128786 0.000627379 0)
(0.128081 0.00061801 0)
(0.127815 0.000612133 0)
(0.127074 0.000603149 0)
(0.126862 0.000598354 0)
(0.126076 0.000590017 0)
(0.125925 0.000586392 0)
(0.125084 0.000579433 0)
(0.125004 0.000577316 0)
(0.124097 0.000573499 0)
(0.194806 0.0071433 0)
(0.195147 0.00793933 0)
(0.195681 0.00868153 0)
(0.196417 0.00928351 0)
(0.197307 0.00966585 0)
(0.198258 0.0098033 0)
(0.199166 0.00973121 0)
(0.199958 0.00951215 0)
(0.200609 0.0092032 0)
(0.201121 0.00884515 0)
(0.201512 0.0084671 0)
(0.201803 0.00809193 0)
(0.202012 0.00773704 0)
(0.202159 0.00741266 0)
(0.20226 0.00712167 0)
(0.20233 0.00686192 0)
(0.202379 0.00662905 0)
(0.202411 0.00641852 0)
(0.20243 0.0062265 0)
(0.202438 0.00604998 0)
(0.202434 0.0058866 0)
(0.202419 0.00573454 0)
(0.202394 0.00559233 0)
(0.202358 0.00545882 0)
(0.202311 0.00533302 0)
(0.202253 0.00521417 0)
(0.202185 0.00510156 0)
(0.202105 0.0049946 0)
(0.202013 0.00489275 0)
(0.201911 0.00479553 0)
(0.201796 0.0047025 0)
(0.201669 0.00461326 0)
(0.20153 0.00452747 0)
(0.201378 0.0044448 0)
(0.201214 0.00436498 0)
(0.201036 0.00428774 0)
(0.200846 0.00421288 0)
(0.200642 0.00414018 0)
(0.200424 0.00406949 0)
(0.200193 0.00400064 0)
(0.199948 0.00393349 0)
(0.19969 0.00386793 0)
(0.199418 0.00380384 0)
(0.199132 0.00374114 0)
(0.198833 0.00367974 0)
(0.19852 0.00361956 0)
(0.198193 0.00356054 0)
(0.197854 0.00350262 0)
(0.197501 0.00344574 0)
(0.197136 0.00338986 0)
(0.196757 0.00333495 0)
(0.196367 0.00328096 0)
(0.195964 0.00322786 0)
(0.195549 0.00317563 0)
(0.195123 0.00312423 0)
(0.194685 0.00307366 0)
(0.194237 0.00302387 0)
(0.193777 0.00297488 0)
(0.193308 0.00292664 0)
(0.192828 0.00287916 0)
(0.192339 0.00283241 0)
(0.191841 0.0027864 0)
(0.191334 0.0027411 0)
(0.190818 0.0026965 0)
(0.190294 0.00265261 0)
(0.189762 0.00260941 0)
(0.189223 0.00256689 0)
(0.188676 0.00252505 0)
(0.188124 0.00248387 0)
(0.187564 0.00244336 0)
(0.186999 0.0024035 0)
(0.186427 0.0023643 0)
(0.185852 0.00232573 0)
(0.18527 0.0022878 0)
(0.184685 0.0022505 0)
(0.184094 0.00221383 0)
(0.1835 0.00217777 0)
(0.182902 0.00214231 0)
(0.182301 0.00210747 0)
(0.181696 0.00207321 0)
(0.18109 0.00203955 0)
(0.180479 0.00200646 0)
(0.179869 0.00197395 0)
(0.179253 0.00194201 0)
(0.178639 0.00191063 0)
(0.17802 0.00187978 0)
(0.177404 0.0018495 0)
(0.176782 0.00181973 0)
(0.176165 0.00179052 0)
(0.175541 0.00176179 0)
(0.174923 0.00173361 0)
(0.174298 0.0017059 0)
(0.17368 0.00167872 0)
(0.173055 0.00165198 0)
(0.172439 0.00162577 0)
(0.171813 0.00159998 0)
(0.171199 0.00157471 0)
(0.170574 0.00154983 0)
(0.169962 0.00152547 0)
(0.169338 0.00150146 0)
(0.16873 0.00147799 0)
(0.168108 0.00145482 0)
(0.167504 0.0014322 0)
(0.166883 0.00140983 0)
(0.166284 0.00138804 0)
(0.165664 0.00136645 0)
(0.165071 0.00134545 0)
(0.164454 0.0013246 0)
(0.163867 0.00130437 0)
(0.163251 0.00128423 0)
(0.162671 0.00126476 0)
(0.162057 0.00124529 0)
(0.161484 0.00122655 0)
(0.160872 0.00120772 0)
(0.160308 0.00118971 0)
(0.159696 0.00117148 0)
(0.159143 0.00115418 0)
(0.158531 0.00113653 0)
(0.157988 0.00111992 0)
(0.157377 0.00110281 0)
(0.156845 0.00108691 0)
(0.156233 0.0010703 0)
(0.155714 0.0010551 0)
(0.155099 0.00103897 0)
(0.154595 0.00102448 0)
(0.153977 0.00100878 0)
(0.153489 0.000995024 0)
(0.152866 0.00097973 0)