/*--------------------------------*- C++ -*----------------------------------*\
| =========                 |                                                 |
| \\      /  F ield         | OpenFOAM: The Open Source CFD Toolbox           |
|  \\    /   O peration     | Version:  2.3.0                                 |
|   \\  /    A nd           | Web:      www.OpenFOAM.org                      |
|    \\/     M anipulation  |                                                 |
\*---------------------------------------------------------------------------*/
FoamFile
{
    version     2.0;
    format      ascii;
    class       surfaceScalarField;
    location    "0.7";
    object      phi;
}
// * * * * * * * * * * * * * * * * * * * * * * * * * * * * * * * * * * * * * //

dimensions      [0 3 -1 0 0 0 0];

internalField   nonuniform List<scalar> 
5764
(
1.93878e-08
4.30173e-09
-2.36896e-08
1.56083e-08
3.77949e-09
1.25107e-08
3.09768e-09
1.00823e-08
2.42838e-09
8.25982e-09
1.82247e-09
6.94085e-09
1.31897e-09
6.00657e-09
9.34281e-10
5.34548e-09
6.61093e-10
4.86756e-09
4.7792e-10
4.50808e-09
3.59476e-10
4.22461e-09
2.83473e-10
3.99115e-09
2.33463e-10
3.79235e-09
1.98792e-10
3.61916e-09
1.7319e-10
3.46597e-09
1.53193e-10
3.32904e-09
1.36932e-10
3.20568e-09
1.23364e-10
3.09381e-09
1.11864e-10
2.9918e-09
1.02014e-10
2.89829e-09
9.35077e-11
2.81218e-09
8.61073e-11
2.73256e-09
7.96239e-11
2.65865e-09
7.3906e-11
2.58982e-09
6.88317e-11
2.52552e-09
6.43023e-11
2.46528e-09
6.02379e-11
2.40871e-09
5.65731e-11
2.35545e-09
5.32544e-11
2.30522e-09
5.02372e-11
2.25773e-09
4.74842e-11
2.21277e-09
4.49643e-11
2.17012e-09
4.26506e-11
2.1296e-09
4.05205e-11
2.09104e-09
3.85544e-11
2.05431e-09
3.67354e-11
2.01926e-09
3.50486e-11
1.98578e-09
3.34811e-11
1.95376e-09
3.20216e-11
1.9231e-09
3.06601e-11
1.89371e-09
2.93877e-11
1.86551e-09
2.81964e-11
1.83843e-09
2.70791e-11
1.8124e-09
2.60295e-11
1.78736e-09
2.50419e-11
1.76325e-09
2.41112e-11
1.74002e-09
2.32325e-11
1.71762e-09
2.24019e-11
1.696e-09
2.16153e-11
1.67513e-09
2.08695e-11
1.65497e-09
2.01611e-11
1.63548e-09
1.94873e-11
1.61664e-09
1.88455e-11
1.5984e-09
1.82335e-11
1.58075e-09
1.76489e-11
1.56366e-09
1.70901e-11
1.54711e-09
1.65551e-11
1.53107e-09
1.60427e-11
1.51552e-09
1.55514e-11
1.50043e-09
1.50802e-11
1.48581e-09
1.46281e-11
1.47161e-09
1.41946e-11
1.45783e-09
1.37791e-11
1.44445e-09
1.33815e-11
1.43145e-09
1.30018e-11
1.41881e-09
1.26403e-11
1.40651e-09
1.2298e-11
1.39454e-09
1.19762e-11
1.38286e-09
1.16769e-11
1.37145e-09
1.14037e-11
1.36029e-09
1.1163e-11
1.34933e-09
1.0965e-11
1.33846e-09
1.08672e-11
1.3276e-09
1.0857e-11
1.31718e-09
1.04191e-11
3.78576e-11
2.57752e-08
5.22574e-09
-2.66992e-08
2.43378e-08
5.21692e-09
2.26918e-08
4.74363e-09
2.10165e-08
4.1037e-09
1.94201e-08
3.41889e-09
1.79621e-08
2.77692e-09
1.66651e-08
2.23128e-09
1.55286e-08
1.79764e-09
1.45401e-08
1.46645e-09
1.36819e-08
1.2176e-09
1.29354e-08
1.03001e-09
1.22827e-08
8.86184e-10
1.17082e-08
7.73315e-10
1.11987e-08
6.82634e-10
1.07436e-08
6.08294e-10
1.03342e-08
5.46362e-10
9.96344e-09
4.94108e-10
9.62575e-09
4.49561e-10
9.31652e-09
4.11244e-10
9.03201e-09
3.78018e-10
8.76912e-09
3.48992e-10
8.52529e-09
3.2346e-10
8.29834e-09
3.00854e-10
8.08645e-09
2.80721e-10
7.88806e-09
2.62692e-10
7.70183e-09
2.46466e-10
7.52661e-09
2.31798e-10
7.36138e-09
2.18483e-10
7.20527e-09
2.0635e-10
7.05749e-09
1.95257e-10
6.91738e-09
1.85083e-10
6.7843e-09
1.75724e-10
6.65773e-09
1.67092e-10
6.53717e-09
1.59111e-10
6.42219e-09
1.51714e-10
6.3124e-09
1.44844e-10
6.20743e-09
1.3845e-10
6.10696e-09
1.32487e-10
6.01071e-09
1.26916e-10
5.91839e-09
1.21702e-10
5.82978e-09
1.16813e-10
5.74463e-09
1.12222e-10
5.66276e-09
1.07902e-10
5.58397e-09
1.03833e-10
5.50809e-09
9.99923e-11
5.43496e-09
9.63622e-11
5.36444e-09
9.29256e-11
5.29638e-09
8.96674e-11
5.23068e-09
8.65734e-11
5.16721e-09
8.36308e-11
5.10587e-09
8.08281e-11
5.04656e-09
7.81547e-11
4.98919e-09
7.56009e-11
4.93368e-09
7.3158e-11
4.87996e-09
7.08179e-11
4.82794e-09
6.85737e-11
4.77756e-09
6.64189e-11
4.72876e-09
6.43479e-11
4.68149e-09
6.2356e-11
4.63568e-09
6.04389e-11
4.59128e-09
5.85936e-11
4.54824e-09
5.68174e-11
4.50651e-09
5.5109e-11
4.46605e-09
5.34679e-11
4.42679e-09
5.18949e-11
4.3887e-09
5.03921e-11
4.35171e-09
4.89637e-11
4.31577e-09
4.7617e-11
4.28081e-09
4.63638e-11
4.24675e-09
4.52263e-11
4.21347e-09
4.42423e-11
4.18071e-09
4.36222e-11
4.1486e-09
4.29725e-11
4.11217e-09
4.68521e-11
1.02721e-10
2.80589e-08
5.20943e-09
-2.80426e-08
2.77534e-08
5.52239e-09
2.71763e-08
5.32073e-09
2.64087e-08
4.8713e-09
2.55256e-08
4.302e-09
2.45911e-08
3.71143e-09
2.36516e-08
3.1708e-09
2.27362e-08
2.71302e-09
2.18612e-08
2.34144e-09
2.10343e-08
2.04443e-09
2.02582e-08
1.80612e-09
1.95324e-08
1.61197e-09
1.8855e-08
1.45075e-09
1.82232e-08
1.31446e-09
1.76339e-08
1.19755e-09
1.70841e-08
1.09618e-09
1.65706e-08
1.00757e-09
1.60906e-08
9.29611e-10
1.56412e-08
8.60655e-10
1.52198e-08
7.99369e-10
1.48242e-08
7.44656e-10
1.4452e-08
6.95601e-10
1.41014e-08
6.51442e-10
1.37706e-08
6.11535e-10
1.3458e-08
5.75339e-10
1.31621e-08
5.42394e-10
1.28815e-08
5.12313e-10
1.26153e-08
4.84762e-10
1.23622e-08
4.59456e-10
1.21213e-08
4.3615e-10
1.18917e-08
4.14634e-10
1.16727e-08
3.94722e-10
1.14635e-08
3.76255e-10
1.12636e-08
3.59092e-10
1.10722e-08
3.4311e-10
1.08888e-08
3.282e-10
1.0713e-08
3.14266e-10
1.05443e-08
3.01222e-10
1.03822e-08
2.88991e-10
1.02264e-08
2.77503e-10
1.00765e-08
2.66699e-10
9.93221e-09
2.5652e-10
9.79319e-09
2.46918e-10
9.65918e-09
2.37846e-10
9.52991e-09
2.29262e-10
9.40514e-09
2.21129e-10
9.28466e-09
2.13411e-10
9.16825e-09
2.06077e-10
9.05572e-09
1.99097e-10
8.94691e-09
1.92444e-10
8.84164e-09
1.86095e-10
8.73977e-09
1.80026e-10
8.64116e-09
1.74216e-10
8.54567e-09
1.68648e-10
8.45318e-09
1.63303e-10
8.36359e-09
1.58166e-10
8.27678e-09
1.53223e-10
8.19267e-09
1.48461e-10
8.11116e-09
1.43869e-10
8.03216e-09
1.39439e-10
7.95559e-09
1.35161e-10
7.88138e-09
1.31031e-10
7.80944e-09
1.27043e-10
7.73971e-09
1.23197e-10
7.67212e-09
1.19493e-10
7.60657e-09
1.15934e-10
7.54301e-09
1.12528e-10
7.48134e-09
1.09289e-10
7.42146e-09
1.06241e-10
7.36326e-09
1.03428e-10
7.30656e-09
1.00935e-10
7.25106e-09
9.91269e-11
7.19639e-09
9.76434e-11
7.1355e-09
1.0774e-10
1.79452e-10
2.93301e-08
4.94927e-09
-2.90699e-08
2.94553e-08
5.39713e-09
2.94039e-08
5.37218e-09
2.91856e-08
5.08959e-09
2.88265e-08
4.66112e-09
2.83631e-08
4.17485e-09
2.78316e-08
3.70222e-09
2.72613e-08
3.28339e-09
2.66725e-08
2.93019e-09
2.60789e-08
2.63803e-09
2.5489e-08
2.39606e-09
2.4908e-08
2.19299e-09
2.43392e-08
2.01953e-09
2.37848e-08
1.86882e-09
2.32463e-08
1.73605e-09
2.27246e-08
1.61788e-09
2.22203e-08
1.51188e-09
2.17337e-08
1.41626e-09
2.12647e-08
1.3296e-09
2.08133e-08
1.25076e-09
2.03792e-08
1.17879e-09
1.99619e-08
1.1129e-09
1.95609e-08
1.05241e-09
1.91757e-08
9.96732e-10
1.88057e-08
9.45357e-10
1.84502e-08
8.97851e-10
1.81087e-08
8.53831e-10
1.77805e-08
8.12961e-10
1.7465e-08
7.74947e-10
1.71617e-08
7.39528e-10
1.68698e-08
7.06474e-10
1.6589e-08
6.75577e-10
1.63186e-08
6.46654e-10
1.60581e-08
6.19542e-10
1.58071e-08
5.94091e-10
1.55652e-08
5.70168e-10
1.53318e-08
5.47654e-10
1.51066e-08
5.26438e-10
1.48891e-08
5.06421e-10
1.46791e-08
4.87513e-10
1.44762e-08
4.69631e-10
1.428e-08
4.52699e-10
1.40903e-08
4.36647e-10
1.39067e-08
4.21411e-10
1.3729e-08
4.06932e-10
1.3557e-08
3.93156e-10
1.33904e-08
3.80032e-10
1.3229e-08
3.67514e-10
1.30725e-08
3.55558e-10
1.29208e-08
3.44123e-10
1.27737e-08
3.33173e-10
1.26311e-08
3.22674e-10
1.24927e-08
3.12592e-10
1.23585e-08
3.029e-10
1.22282e-08
2.93568e-10
1.21018e-08
2.84574e-10
1.19791e-08
2.75894e-10
1.18601e-08
2.67507e-10
1.17446e-08
2.59397e-10
1.16324e-08
2.51546e-10
1.15237e-08
2.43943e-10
1.14181e-08
2.36577e-10
1.13157e-08
2.29441e-10
1.12164e-08
2.2253e-10
1.112e-08
2.15846e-10
1.10266e-08
2.09392e-10
1.09359e-08
2.03183e-10
1.0848e-08
1.97237e-10
1.07626e-08
1.91595e-10
1.06797e-08
1.86326e-10
1.05991e-08
1.81578e-10
1.05204e-08
1.77845e-10
1.04425e-08
1.75481e-10
1.03601e-08
1.90139e-10
2.65788e-10
3.0342e-08
4.65323e-09
-3.00459e-08
3.0599e-08
5.14008e-09
3.07587e-08
5.2125e-09
3.08061e-08
5.04217e-09
3.07413e-08
4.726e-09
3.05782e-08
4.33785e-09
3.03388e-08
3.94165e-09
3.00442e-08
3.57804e-09
2.97113e-08
3.26305e-09
2.93525e-08
2.99683e-09
2.89761e-08
2.77244e-09
2.85878e-08
2.5813e-09
2.81915e-08
2.41583e-09
2.77902e-08
2.27017e-09
2.73861e-08
2.14011e-09
2.69813e-08
2.02267e-09
2.65775e-08
1.91572e-09
2.6176e-08
1.8177e-09
2.57782e-08
1.72742e-09
2.53851e-08
1.64391e-09
2.49974e-08
1.56641e-09
2.46161e-08
1.49428e-09
2.42415e-08
1.42697e-09
2.38742e-08
1.36401e-09
2.35146e-08
1.30501e-09
2.31628e-08
1.24963e-09
2.28191e-08
1.19756e-09
2.24835e-08
1.14854e-09
2.21561e-08
1.10233e-09
2.18369e-08
1.05872e-09
2.15259e-08
1.01752e-09
2.12229e-08
9.78557e-10
2.09279e-08
9.4168e-10
2.06407e-08
9.06743e-10
2.03611e-08
8.73618e-10
2.00891e-08
8.42185e-10
1.98244e-08
8.12333e-10
1.95669e-08
7.83961e-10
1.93164e-08
7.56972e-10
1.90726e-08
7.3128e-10
1.88354e-08
7.06802e-10
1.86047e-08
6.83461e-10
1.83801e-08
6.61184e-10
1.81616e-08
6.39905e-10
1.7949e-08
6.1956e-10
1.77421e-08
6.0009e-10
1.75407e-08
5.81438e-10
1.73446e-08
5.63551e-10
1.71538e-08
5.4638e-10
1.69681e-08
5.29879e-10
1.67872e-08
5.14002e-10
1.66112e-08
4.98709e-10
1.64398e-08
4.83961e-10
1.6273e-08
4.69721e-10
1.61106e-08
4.55955e-10
1.59526e-08
4.42634e-10
1.57987e-08
4.29727e-10
1.5649e-08
4.17208e-10
1.55034e-08
4.05055e-10
1.53617e-08
3.93247e-10
1.52238e-08
3.81767e-10
1.50898e-08
3.70602e-10
1.49595e-08
3.59741e-10
1.48329e-08
3.4918e-10
1.47098e-08
3.3892e-10
1.45902e-08
3.28969e-10
1.4474e-08
3.19343e-10
1.43612e-08
3.10073e-10
1.42516e-08
3.01213e-10
1.41451e-08
2.92863e-10
1.40414e-08
2.85241e-10
1.39403e-08
2.78977e-10
1.38404e-08
2.75394e-10
1.37388e-08
2.91713e-10
3.61019e-10
3.13048e-08
4.37738e-09
-3.1029e-08
3.1584e-08
4.86087e-09
3.18101e-08
4.98647e-09
3.19638e-08
4.88846e-09
3.20372e-08
4.65258e-09
3.20336e-08
4.3415e-09
3.19647e-08
4.0105e-09
3.18449e-08
3.6978e-09
3.16868e-08
3.42117e-09
3.14999e-08
3.18379e-09
3.12907e-08
2.98159e-09
3.10639e-08
2.80817e-09
3.08224e-08
2.65733e-09
3.05685e-08
2.52403e-09
3.03041e-08
2.4045e-09
3.00308e-08
2.29601e-09
2.97499e-08
2.1966e-09
2.94628e-08
2.10481e-09
2.91707e-08
2.01954e-09
2.88746e-08
1.93992e-09
2.85758e-08
1.86529e-09
2.8275e-08
1.79508e-09
2.79731e-08
1.72882e-09
2.7671e-08
1.66615e-09
2.73693e-08
1.60673e-09
2.70686e-08
1.5503e-09
2.67695e-08
1.49661e-09
2.64726e-08
1.44548e-09
2.61782e-08
1.39672e-09
2.58868e-08
1.35018e-09
2.55986e-08
1.30571e-09
2.53139e-08
1.2632e-09
2.50331e-08
1.22253e-09
2.47562e-08
1.1836e-09
2.44835e-08
1.14632e-09
2.42151e-08
1.11058e-09
2.39511e-08
1.07633e-09
2.36916e-08
1.04347e-09
2.34366e-08
1.01193e-09
2.31863e-08
9.81653e-10
2.29405e-08
9.52563e-10
2.26994e-08
9.24602e-10
2.24628e-08
8.97708e-10
2.22309e-08
8.71826e-10
2.20036e-08
8.46901e-10
2.17808e-08
8.2288e-10
2.15625e-08
7.99713e-10
2.13487e-08
7.77352e-10
2.11393e-08
7.5575e-10
2.09344e-08
7.34863e-10
2.07337e-08
7.14648e-10
2.05374e-08
6.95064e-10
2.03453e-08
6.76072e-10
2.01573e-08
6.57637e-10
1.99736e-08
6.39722e-10
1.97939e-08
6.22295e-10
1.96183e-08
6.05327e-10
1.94467e-08
5.88789e-10
1.92791e-08
5.72656e-10
1.91155e-08
5.56908e-10
1.89557e-08
5.41525e-10
1.87998e-08
5.26494e-10
1.86478e-08
5.11806e-10
1.84995e-08
4.97457e-10
1.83549e-08
4.8345e-10
1.82141e-08
4.69797e-10
1.80769e-08
4.56522e-10
1.79433e-08
4.43667e-10
1.78133e-08
4.31303e-10
1.76866e-08
4.19564e-10
1.75631e-08
4.08732e-10
1.74425e-08
3.9958e-10
1.73236e-08
3.94251e-10
1.72061e-08
4.09194e-10
4.64068e-10
3.22767e-08
4.1323e-09
-3.20316e-08
3.25433e-08
4.59421e-09
3.27793e-08
4.75052e-09
3.29656e-08
4.70208e-09
3.30937e-08
4.52448e-09
3.3163e-08
4.27227e-09
3.31803e-08
3.99316e-09
3.31559e-08
3.72224e-09
3.30992e-08
3.47783e-09
3.30178e-08
3.26522e-09
3.29168e-08
3.08256e-09
3.27997e-08
2.92526e-09
3.26687e-08
2.78834e-09
3.25253e-08
2.66747e-09
3.23705e-08
2.55927e-09
3.22053e-08
2.46119e-09
3.20305e-08
2.37137e-09
3.1847e-08
2.28839e-09
3.16553e-08
2.21117e-09
3.14564e-08
2.13888e-09
3.12508e-08
2.07086e-09
3.10393e-08
2.00656e-09
3.08226e-08
1.94556e-09
3.06012e-08
1.88749e-09
3.03759e-08
1.83206e-09
3.01472e-08
1.77903e-09
2.99156e-08
1.72818e-09
2.96817e-08
1.67936e-09
2.9446e-08
1.63242e-09
2.9209e-08
1.58722e-09
2.8971e-08
1.54367e-09
2.87326e-08
1.50166e-09
2.8494e-08
1.46112e-09
2.82556e-08
1.42197e-09
2.80178e-08
1.38415e-09
2.77808e-08
1.34759e-09
2.75449e-08
1.31223e-09
2.73103e-08
1.27803e-09
2.70773e-08
1.24493e-09
2.68461e-08
1.21288e-09
2.66168e-08
1.18184e-09
2.63896e-08
1.15177e-09
2.61647e-08
1.12263e-09
2.59422e-08
1.09436e-09
2.57222e-08
1.06693e-09
2.55047e-08
1.0403e-09
2.529e-08
1.01444e-09
2.50781e-08
9.89295e-10
2.4869e-08
9.64837e-10
2.46628e-08
9.41028e-10
2.44596e-08
9.17832e-10
2.42595e-08
8.95213e-10
2.40624e-08
8.7314e-10
2.38685e-08
8.51578e-10
2.36777e-08
8.30498e-10
2.34901e-08
8.0987e-10
2.33058e-08
7.89666e-10
2.31247e-08
7.69861e-10
2.29469e-08
7.50433e-10
2.27725e-08
7.31362e-10
2.26014e-08
7.12633e-10
2.24336e-08
6.94233e-10
2.22693e-08
6.76158e-10
2.21083e-08
6.58407e-10
2.19508e-08
6.40988e-10
2.17967e-08
6.2392e-10
2.1646e-08
6.07236e-10
2.14986e-08
5.90991e-10
2.13547e-08
5.75275e-10
2.1214e-08
5.60252e-10
2.10764e-08
5.46266e-10
2.09418e-08
5.34203e-10
2.08094e-08
5.26656e-10
2.06809e-08
5.37658e-10
5.72683e-10
3.32726e-08
3.9165e-09
-3.30568e-08
3.35177e-08
4.34903e-09
3.37447e-08
4.52353e-09
3.39348e-08
4.512e-09
3.40798e-08
4.37948e-09
3.41781e-08
4.17399e-09
3.42343e-08
3.93697e-09
3.42562e-08
3.70028e-09
3.42518e-08
3.48222e-09
3.42275e-08
3.28962e-09
3.41875e-08
3.12248e-09
3.4135e-08
2.97779e-09
3.40717e-08
2.85168e-09
3.39986e-08
2.74056e-09
3.39164e-08
2.64142e-09
3.38257e-08
2.55195e-09
3.37267e-08
2.47035e-09
3.36198e-08
2.39526e-09
3.35054e-08
2.32561e-09
3.33837e-08
2.26056e-09
3.32551e-08
2.19944e-09
3.312e-08
2.14171e-09
3.29786e-08
2.08692e-09
3.28314e-08
2.03471e-09
3.26787e-08
1.98478e-09
3.25208e-08
1.93689e-09
3.23582e-08
1.89082e-09
3.21911e-08
1.84641e-09
3.202e-08
1.80351e-09
3.18452e-08
1.76201e-09
3.16671e-08
1.72181e-09
3.14859e-08
1.68281e-09
3.13021e-08
1.64496e-09
3.11159e-08
1.60817e-09
3.09277e-08
1.5724e-09
3.07376e-08
1.5376e-09
3.05462e-08
1.50372e-09
3.03535e-08
1.47072e-09
3.01598e-08
1.43857e-09
2.99655e-08
1.40723e-09
2.97706e-08
1.37666e-09
2.95756e-08
1.34684e-09
2.93805e-08
1.31773e-09
2.91855e-08
1.28931e-09
2.89909e-08
1.26153e-09
2.87968e-08
1.23438e-09
2.86035e-08
1.20782e-09
2.84109e-08
1.18183e-09
2.82194e-08
1.15637e-09
2.8029e-08
1.13141e-09
2.78399e-08
1.10694e-09
2.76522e-08
1.08291e-09
2.7466e-08
1.05931e-09
2.72815e-08
1.0361e-09
2.70987e-08
1.01327e-09
2.69178e-08
9.90774e-10
2.67389e-08
9.68605e-10
2.6562e-08
9.46737e-10
2.63873e-08
9.25152e-10
2.62148e-08
9.03835e-10
2.60447e-08
8.82774e-10
2.5877e-08
8.61961e-10
2.57117e-08
8.41396e-10
2.55491e-08
8.21085e-10
2.5389e-08
8.01041e-10
2.52316e-08
7.81292e-10
2.5077e-08
7.6188e-10
2.49251e-08
7.42875e-10
2.4776e-08
7.24385e-10
2.46296e-08
7.06604e-10
2.4486e-08
6.89918e-10
2.43449e-08
6.75273e-10
2.42063e-08
6.65288e-10
2.40733e-08
6.70611e-10
6.83405e-10
3.42963e-08
3.726e-09
-3.41058e-08
3.45191e-08
4.12627e-09
3.47318e-08
4.31079e-09
3.49157e-08
4.32812e-09
3.50627e-08
4.23242e-09
3.51709e-08
4.06588e-09
3.52433e-08
3.86458e-09
3.52863e-08
3.65721e-09
3.53069e-08
3.46165e-09
3.53107e-08
3.28581e-09
3.53019e-08
3.13124e-09
3.52834e-08
2.99631e-09
3.52569e-08
2.87823e-09
3.52233e-08
2.7741e-09
3.51834e-08
2.68139e-09
3.51373e-08
2.59799e-09
3.50854e-08
2.52228e-09
3.50277e-08
2.45294e-09
3.49644e-08
2.38895e-09
3.48954e-08
2.32948e-09
3.4821e-08
2.27385e-09
3.47412e-08
2.22152e-09
3.46561e-08
2.17203e-09
3.45658e-08
2.12501e-09
3.44704e-08
2.08014e-09
3.43702e-08
2.03717e-09
3.42651e-08
1.99587e-09
3.41554e-08
1.95607e-09
3.40413e-08
1.91762e-09
3.3923e-08
1.88037e-09
3.38005e-08
1.84424e-09
3.36742e-08
1.80912e-09
3.35442e-08
1.77494e-09
3.34108e-08
1.74164e-09
3.3274e-08
1.70914e-09
3.31342e-08
1.67741e-09
3.29916e-08
1.6464e-09
3.28462e-08
1.61606e-09
3.26984e-08
1.58637e-09
3.25484e-08
1.55729e-09
3.23962e-08
1.52878e-09
3.22423e-08
1.50082e-09
3.20866e-08
1.47339e-09
3.19295e-08
1.44645e-09
3.1771e-08
1.41998e-09
3.16114e-08
1.39396e-09
3.14509e-08
1.36835e-09
3.12896e-08
1.34313e-09
3.11277e-08
1.31829e-09
3.09653e-08
1.29378e-09
3.08026e-08
1.2696e-09
3.06398e-08
1.24571e-09
3.04771e-08
1.22209e-09
3.03145e-08
1.19871e-09
3.01522e-08
1.17556e-09
2.99903e-08
1.15262e-09
2.98291e-08
1.12986e-09
2.96685e-08
1.10726e-09
2.95089e-08
1.08482e-09
2.93502e-08
1.06251e-09
2.91926e-08
1.04033e-09
2.90363e-08
1.01829e-09
2.88813e-08
9.96367e-10
2.87278e-08
9.7459e-10
2.85759e-08
9.52975e-10
2.84256e-08
9.31557e-10
2.82771e-08
9.1039e-10
2.81304e-08
8.89552e-10
2.79857e-08
8.69172e-10
2.78428e-08
8.49462e-10
2.77019e-08
8.30834e-10
2.75629e-08
8.14217e-10
2.74263e-08
8.01897e-10
2.72961e-08
8.00796e-10
7.92036e-10
3.53489e-08
3.55685e-09
-3.51798e-08
3.55506e-08
3.92458e-09
3.57482e-08
4.11323e-09
3.59229e-08
4.15335e-09
3.60668e-08
4.08857e-09
3.61772e-08
3.95553e-09
3.62561e-08
3.78563e-09
3.63088e-08
3.6045e-09
3.63413e-08
3.42921e-09
3.63587e-08
3.26841e-09
3.6365e-08
3.12486e-09
3.63632e-08
2.99813e-09
3.6355e-08
2.8864e-09
3.63417e-08
2.78748e-09
3.63238e-08
2.69929e-09
3.63017e-08
2.62002e-09
3.62758e-08
2.54821e-09
3.62461e-08
2.48266e-09
3.62126e-08
2.4224e-09
3.61755e-08
2.36664e-09
3.61346e-08
2.31473e-09
3.609e-08
2.26613e-09
3.60416e-08
2.22038e-09
3.59895e-08
2.17712e-09
3.59337e-08
2.13602e-09
3.5874e-08
2.09681e-09
3.58106e-08
2.05928e-09
3.57435e-08
2.02322e-09
3.56726e-08
1.98848e-09
3.55981e-08
1.95491e-09
3.55199e-08
1.92241e-09
3.54382e-08
1.89086e-09
3.53529e-08
1.86018e-09
3.52643e-08
1.8303e-09
3.51723e-08
1.80114e-09
3.5077e-08
1.77266e-09
3.49786e-08
1.7448e-09
3.48772e-08
1.71751e-09
3.47728e-08
1.69075e-09
3.46656e-08
1.66449e-09
3.45557e-08
1.63869e-09
3.44432e-08
1.61332e-09
3.43282e-08
1.58834e-09
3.42109e-08
1.56374e-09
3.40915e-08
1.53947e-09
3.39699e-08
1.51551e-09
3.38464e-08
1.49184e-09
3.37211e-08
1.46842e-09
3.35942e-08
1.44524e-09
3.34657e-08
1.42227e-09
3.33358e-08
1.39948e-09
3.32047e-08
1.37684e-09
3.30724e-08
1.35434e-09
3.29392e-08
1.33194e-09
3.28051e-08
1.30964e-09
3.26703e-08
1.28739e-09
3.2535e-08
1.2652e-09
3.23992e-08
1.24303e-09
3.22632e-08
1.22087e-09
3.2127e-08
1.19872e-09
3.19907e-08
1.17657e-09
3.18546e-08
1.15441e-09
3.17187e-08
1.13225e-09
3.15832e-08
1.1101e-09
3.14482e-08
1.088e-09
3.13138e-08
1.06597e-09
3.11801e-08
1.04409e-09
3.10472e-08
1.02244e-09
3.09152e-08
1.00116e-09
3.07842e-08
9.80476e-10
3.06542e-08
9.608e-10
3.05255e-08
9.4297e-10
3.03987e-08
9.28703e-10
3.02781e-08
9.21377e-10
8.94347e-10
3.64311e-08
3.40564e-09
-3.62799e-08
3.66136e-08
3.74207e-09
3.67963e-08
3.93047e-09
3.69613e-08
3.98837e-09
3.71002e-08
3.94972e-09
3.72098e-08
3.84586e-09
3.72915e-08
3.70402e-09
3.7349e-08
3.54691e-09
3.73877e-08
3.39058e-09
3.74121e-08
3.24398e-09
3.74261e-08
3.11083e-09
3.74326e-08
2.9917e-09
3.74333e-08
2.88563e-09
3.74297e-08
2.79109e-09
3.74226e-08
2.70643e-09
3.74124e-08
2.63018e-09
3.73996e-08
2.56105e-09
3.73843e-08
2.49798e-09
3.73666e-08
2.44009e-09
3.73466e-08
2.38665e-09
3.73243e-08
2.33703e-09
3.72997e-08
2.29073e-09
3.72727e-08
2.24732e-09
3.72434e-08
2.20643e-09
3.72117e-08
2.16774e-09
3.71775e-08
2.131e-09
3.71408e-08
2.09597e-09
3.71016e-08
2.06247e-09
3.70597e-08
2.03033e-09
3.70152e-08
1.9994e-09
3.69681e-08
1.96955e-09
3.69182e-08
1.9407e-09
3.68657e-08
1.91273e-09
3.68104e-08
1.88556e-09
3.67524e-08
1.85913e-09
3.66917e-08
1.83337e-09
3.66283e-08
1.80821e-09
3.65622e-08
1.78361e-09
3.64935e-08
1.75952e-09
3.64221e-08
1.73589e-09
3.63481e-08
1.71268e-09
3.62715e-08
1.68986e-09
3.61925e-08
1.66738e-09
3.6111e-08
1.64522e-09
3.60271e-08
1.62333e-09
3.5941e-08
1.60169e-09
3.58525e-08
1.58027e-09
3.57619e-08
1.55902e-09
3.56692e-08
1.53793e-09
3.55745e-08
1.51696e-09
3.54779e-08
1.49609e-09
3.53795e-08
1.47527e-09
3.52793e-08
1.4545e-09
3.51775e-08
1.43374e-09
3.50742e-08
1.41296e-09
3.49695e-08
1.39214e-09
3.48634e-08
1.37126e-09
3.47562e-08
1.35029e-09
3.46478e-08
1.32923e-09
3.45385e-08
1.30806e-09
3.44282e-08
1.28677e-09
3.43173e-08
1.26536e-09
3.42057e-08
1.24384e-09
3.40936e-08
1.22221e-09
3.39811e-08
1.20051e-09
3.38683e-08
1.17879e-09
3.37553e-08
1.1571e-09
3.36421e-08
1.13555e-09
3.3529e-08
1.11427e-09
3.3416e-08
1.0935e-09
3.33032e-08
1.07363e-09
3.31908e-08
1.05534e-09
3.30798e-08
1.03969e-09
3.29741e-08
1.02707e-09
9.86789e-10
3.75434e-08
3.26955e-09
-3.74073e-08
3.77087e-08
3.57674e-09
3.78774e-08
3.76177e-09
3.80326e-08
3.83316e-09
3.81658e-08
3.81652e-09
3.82735e-08
3.73811e-09
3.83561e-08
3.62143e-09
3.84166e-08
3.48649e-09
3.8459e-08
3.3481e-09
3.84877e-08
3.21526e-09
3.85062e-08
3.09233e-09
3.85172e-08
2.98071e-09
3.85227e-08
2.88018e-09
3.8524e-08
2.78979e-09
3.85221e-08
2.70834e-09
3.85176e-08
2.63464e-09
3.8511e-08
2.56763e-09
3.85026e-08
2.50639e-09
3.84926e-08
2.45012e-09
3.84811e-08
2.39816e-09
3.84682e-08
2.34996e-09
3.84539e-08
2.30504e-09
3.84382e-08
2.26299e-09
3.84212e-08
2.22346e-09
3.84027e-08
2.18616e-09
3.83829e-08
2.15085e-09
3.83616e-08
2.11729e-09
3.83387e-08
2.0853e-09
3.83143e-08
2.05473e-09
3.82883e-08
2.02542e-09
3.82606e-08
1.99725e-09
3.82312e-08
1.97012e-09
3.82e-08
1.94393e-09
3.81669e-08
1.91859e-09
3.8132e-08
1.89403e-09
3.80952e-08
1.87018e-09
3.80565e-08
1.84698e-09
3.80157e-08
1.82436e-09
3.79729e-08
1.80228e-09
3.79281e-08
1.78069e-09
3.78813e-08
1.75953e-09
3.78324e-08
1.73877e-09
3.77814e-08
1.71837e-09
3.77283e-08
1.69828e-09
3.76732e-08
1.67846e-09
3.7616e-08
1.65888e-09
3.75568e-08
1.6395e-09
3.74955e-08
1.62028e-09
3.74322e-08
1.60119e-09
3.7367e-08
1.5822e-09
3.72998e-08
1.56326e-09
3.72308e-08
1.54434e-09
3.71599e-08
1.52542e-09
3.70871e-08
1.50645e-09
3.70127e-08
1.48742e-09
3.69365e-08
1.46828e-09
3.68588e-08
1.44903e-09
3.67794e-08
1.42962e-09
3.66986e-08
1.41004e-09
3.66164e-08
1.39028e-09
3.65329e-08
1.37032e-09
3.64481e-08
1.35016e-09
3.63621e-08
1.3298e-09
3.62751e-08
1.30926e-09
3.6187e-08
1.28856e-09
3.60981e-08
1.26776e-09
3.60083e-08
1.2469e-09
3.59177e-08
1.22611e-09
3.58265e-08
1.20551e-09
3.57346e-08
1.18534e-09
3.56423e-08
1.16593e-09
3.55498e-08
1.14781e-09
3.54581e-08
1.13138e-09
3.53704e-08
1.11485e-09
1.067e-09
3.86865e-08
3.14633e-09
-3.85633e-08
3.88365e-08
3.42672e-09
3.89921e-08
3.60624e-09
3.91377e-08
3.68752e-09
3.9265e-08
3.68922e-09
3.93702e-08
3.63293e-09
3.94528e-08
3.53878e-09
3.95151e-08
3.42426e-09
3.95603e-08
3.30287e-09
3.95922e-08
3.18341e-09
3.96138e-08
3.07066e-09
3.96279e-08
2.96665e-09
3.96363e-08
2.87178e-09
3.96405e-08
2.78563e-09
3.96414e-08
2.70739e-09
3.96399e-08
2.63618e-09
3.96364e-08
2.57114e-09
3.96313e-08
2.51148e-09
3.96249e-08
2.45653e-09
3.96173e-08
2.40569e-09
3.96088e-08
2.35847e-09
3.95994e-08
2.31443e-09
3.95892e-08
2.27319e-09
3.95782e-08
2.23445e-09
3.95665e-08
2.19792e-09
3.9554e-08
2.16336e-09
3.95407e-08
2.13058e-09
3.95266e-08
2.09939e-09
3.95117e-08
2.06964e-09
3.94959e-08
2.04119e-09
3.94792e-08
2.01393e-09
3.94616e-08
1.98775e-09
3.9443e-08
1.96256e-09
3.94233e-08
1.93827e-09
3.94025e-08
1.91481e-09
3.93806e-08
1.89211e-09
3.93575e-08
1.8701e-09
3.93331e-08
1.84873e-09
3.93075e-08
1.82794e-09
3.92805e-08
1.80769e-09
3.92521e-08
1.78792e-09
3.92223e-08
1.76858e-09
3.9191e-08
1.74964e-09
3.91582e-08
1.73104e-09
3.91239e-08
1.71275e-09
3.90881e-08
1.69472e-09
3.90507e-08
1.67692e-09
3.90117e-08
1.65929e-09
3.89711e-08
1.64181e-09
3.89288e-08
1.62443e-09
3.8885e-08
1.60712e-09
3.88395e-08
1.58983e-09
3.87924e-08
1.57252e-09
3.87437e-08
1.55517e-09
3.86933e-08
1.53774e-09
3.86414e-08
1.52019e-09
3.85879e-08
1.5025e-09
3.85329e-08
1.48463e-09
3.84764e-08
1.46657e-09
3.84184e-08
1.44828e-09
3.8359e-08
1.42976e-09
3.82981e-08
1.411e-09
3.82359e-08
1.392e-09
3.81724e-08
1.37278e-09
3.81076e-08
1.35335e-09
3.80416e-08
1.33376e-09
3.79744e-08
1.31409e-09
3.79061e-08
1.29441e-09
3.78367e-08
1.27489e-09
3.77663e-08
1.25573e-09
3.76951e-08
1.23721e-09
3.76232e-08
1.21968e-09
3.75516e-08
1.20301e-09
3.74824e-08
1.18405e-09
1.13398e-09
3.98613e-08
3.03415e-09
-3.97492e-08
3.99978e-08
3.29029e-09
4.01411e-08
3.46295e-09
4.02775e-08
3.55112e-09
4.03988e-08
3.56793e-09
4.05009e-08
3.53076e-09
4.0583e-08
3.45668e-09
4.06464e-08
3.36088e-09
4.06937e-08
3.25552e-09
4.07281e-08
3.14903e-09
4.07524e-08
3.0464e-09
4.07689e-08
2.95012e-09
4.07796e-08
2.86111e-09
4.07858e-08
2.77938e-09
4.07887e-08
2.70452e-09
4.0789e-08
2.63591e-09
4.07872e-08
2.57288e-09
4.07839e-08
2.5148e-09
4.07793e-08
2.46111e-09
4.07737e-08
2.41129e-09
4.07673e-08
2.36489e-09
4.07602e-08
2.32153e-09
4.07525e-08
2.28088e-09
4.07443e-08
2.24263e-09
4.07357e-08
2.20655e-09
4.07267e-08
2.1724e-09
4.07172e-08
2.14001e-09
4.07074e-08
2.1092e-09
4.06972e-08
2.07983e-09
4.06866e-08
2.05178e-09
4.06756e-08
2.02493e-09
4.06642e-08
1.99918e-09
4.06523e-08
1.97445e-09
4.06399e-08
1.95066e-09
4.0627e-08
1.92773e-09
4.06135e-08
1.90559e-09
4.05994e-08
1.8842e-09
4.05847e-08
1.86349e-09
4.05692e-08
1.8434e-09
4.0553e-08
1.82389e-09
4.0536e-08
1.80491e-09
4.05182e-08
1.78641e-09
4.04995e-08
1.76834e-09
4.04799e-08
1.75066e-09
4.04593e-08
1.73333e-09
4.04377e-08
1.71631e-09
4.04151e-08
1.69954e-09
4.03914e-08
1.683e-09
4.03666e-08
1.66663e-09
4.03406e-08
1.65039e-09
4.03135e-08
1.63425e-09
4.02852e-08
1.61815e-09
4.02556e-08
1.60207e-09
4.02248e-08
1.58597e-09
4.01928e-08
1.5698e-09
4.01594e-08
1.55352e-09
4.01248e-08
1.53711e-09
4.00889e-08
1.52054e-09
4.00517e-08
1.50377e-09
4.00132e-08
1.48678e-09
3.99734e-08
1.46956e-09
3.99323e-08
1.45209e-09
3.989e-08
1.43438e-09
3.98463e-08
1.41643e-09
3.98014e-08
1.39826e-09
3.97552e-08
1.37993e-09
3.97078e-08
1.36149e-09
3.96592e-08
1.34305e-09
3.96094e-08
1.32473e-09
3.95584e-08
1.30672e-09
3.95063e-08
1.28928e-09
3.94534e-08
1.27256e-09
3.94004e-08
1.25606e-09
3.93484e-08
1.23605e-09
1.18806e-09
4.10688e-08
2.93154e-09
-4.09662e-08
4.11932e-08
3.1659e-09
4.13252e-08
3.33096e-09
4.14527e-08
3.42361e-09
4.15679e-08
3.45269e-09
4.16667e-08
3.43194e-09
4.17478e-08
3.37563e-09
4.18118e-08
3.29689e-09
4.18607e-08
3.20656e-09
4.18972e-08
3.11255e-09
4.19237e-08
3.0199e-09
4.19424e-08
2.93142e-09
4.19551e-08
2.84844e-09
4.19631e-08
2.77136e-09
4.19675e-08
2.70008e-09
4.19692e-08
2.63423e-09
4.19687e-08
2.57335e-09
4.19666e-08
2.51696e-09
4.19631e-08
2.46458e-09
4.19586e-08
2.4158e-09
4.19533e-08
2.37022e-09
4.19473e-08
2.3275e-09
4.19408e-08
2.28736e-09
4.19339e-08
2.24952e-09
4.19267e-08
2.21375e-09
4.19193e-08
2.17987e-09
4.19116e-08
2.14768e-09
4.19037e-08
2.11705e-09
4.18957e-08
2.08784e-09
4.18876e-08
2.05993e-09
4.18793e-08
2.03322e-09
4.18709e-08
2.00761e-09
4.18623e-08
1.98303e-09
4.18535e-08
1.9594e-09
4.18446e-08
1.93665e-09
4.18355e-08
1.91472e-09
4.18261e-08
1.89356e-09
4.18165e-08
1.8731e-09
4.18066e-08
1.8533e-09
4.17964e-08
1.83411e-09
4.17858e-08
1.81548e-09
4.17749e-08
1.79737e-09
4.17635e-08
1.77973e-09
4.17516e-08
1.76252e-09
4.17393e-08
1.74569e-09
4.17264e-08
1.72921e-09
4.17129e-08
1.71302e-09
4.16988e-08
1.69709e-09
4.1684e-08
1.68138e-09
4.16686e-08
1.66584e-09
4.16524e-08
1.65042e-09
4.16355e-08
1.6351e-09
4.16177e-08
1.61982e-09
4.15991e-08
1.60454e-09
4.15797e-08
1.58923e-09
4.15594e-08
1.57385e-09
4.15381e-08
1.55837e-09
4.15159e-08
1.54274e-09
4.14927e-08
1.52694e-09
4.14686e-08
1.51095e-09
4.14434e-08
1.49475e-09
4.14172e-08
1.47832e-09
4.13899e-08
1.46166e-09
4.13615e-08
1.44479e-09
4.13321e-08
1.42771e-09
4.13015e-08
1.41049e-09
4.12698e-08
1.39317e-09
4.1237e-08
1.37586e-09
4.12031e-08
1.35868e-09
4.1168e-08
1.3418e-09
4.11319e-08
1.32541e-09
4.10949e-08
1.30956e-09
4.10574e-08
1.2935e-09
4.10199e-08
1.27353e-09
1.2305e-09
4.23098e-08
2.83732e-09
-4.22156e-08
4.24235e-08
3.05223e-09
4.25451e-08
3.20937e-09
4.26641e-08
3.30457e-09
4.27733e-08
3.34348e-09
4.28686e-08
3.3367e-09
4.29481e-08
3.29606e-09
4.30122e-08
3.23278e-09
4.30624e-08
3.15643e-09
4.31006e-08
3.07434e-09
4.3129e-08
2.99145e-09
4.31497e-08
2.91079e-09
4.31641e-08
2.83396e-09
4.31738e-08
2.7617e-09
4.31797e-08
2.69418e-09
4.31826e-08
2.63128e-09
4.31833e-08
2.57272e-09
4.31821e-08
2.51814e-09
4.31795e-08
2.46719e-09
4.31758e-08
2.41952e-09
4.31712e-08
2.37482e-09
4.31659e-08
2.33278e-09
4.31601e-08
2.29316e-09
4.31539e-08
2.25572e-09
4.31474e-08
2.22025e-09
4.31407e-08
2.18658e-09
4.31338e-08
2.15455e-09
4.31268e-08
2.12402e-09
4.31198e-08
2.09487e-09
4.31127e-08
2.067e-09
4.31057e-08
2.0403e-09
4.30986e-08
2.01469e-09
4.30915e-08
1.9901e-09
4.30844e-08
1.96646e-09
4.30774e-08
1.9437e-09
4.30703e-08
1.92177e-09
4.30633e-08
1.90061e-09
4.30562e-08
1.88018e-09
4.30491e-08
1.86042e-09
4.30419e-08
1.84129e-09
4.30346e-08
1.82274e-09
4.30273e-08
1.80473e-09
4.30198e-08
1.78722e-09
4.30121e-08
1.77017e-09
4.30043e-08
1.75353e-09
4.29962e-08
1.73726e-09
4.29879e-08
1.72132e-09
4.29794e-08
1.70567e-09
4.29705e-08
1.69027e-09
4.29613e-08
1.67507e-09
4.29516e-08
1.66003e-09
4.29416e-08
1.64511e-09
4.29312e-08
1.63028e-09
4.29202e-08
1.61548e-09
4.29088e-08
1.60069e-09
4.28968e-08
1.58585e-09
4.28842e-08
1.57095e-09
4.2871e-08
1.55593e-09
4.28572e-08
1.54078e-09
4.28426e-08
1.52547e-09
4.28274e-08
1.50998e-09
4.28114e-08
1.4943e-09
4.27947e-08
1.47842e-09
4.27771e-08
1.46236e-09
4.27587e-08
1.44613e-09
4.27394e-08
1.42979e-09
4.27192e-08
1.41338e-09
4.2698e-08
1.39701e-09
4.26759e-08
1.38079e-09
4.26528e-08
1.36489e-09
4.26288e-08
1.34943e-09
4.2604e-08
1.33439e-09
4.25785e-08
1.31893e-09
4.25523e-08
1.29978e-09
1.26319e-09
4.35854e-08
2.75052e-09
-4.34986e-08
4.36895e-08
2.9481e-09
4.38016e-08
3.0973e-09
4.39126e-08
3.19357e-09
4.40159e-08
3.24021e-09
4.41073e-08
3.24525e-09
4.41851e-08
3.21833e-09
4.42489e-08
3.16896e-09
4.42998e-08
3.10555e-09
4.43393e-08
3.03475e-09
4.43695e-08
2.96134e-09
4.43918e-08
2.88841e-09
4.4408e-08
2.81781e-09
4.44192e-08
2.7505e-09
4.44265e-08
2.68692e-09
4.44306e-08
2.62713e-09
4.44323e-08
2.57103e-09
4.4432e-08
2.5184e-09
4.44302e-08
2.469e-09
4.44272e-08
2.42256e-09
4.44232e-08
2.37881e-09
4.44184e-08
2.33752e-09
4.44131e-08
2.29847e-09
4.44074e-08