/*--------------------------------*- C++ -*----------------------------------*\
| =========                 |                                                 |
| \\      /  F ield         | OpenFOAM: The Open Source CFD Toolbox           |
|  \\    /   O peration     | Version:  2.3.0                                 |
|   \\  /    A nd           | Web:      www.OpenFOAM.org                      |
|    \\/     M anipulation  |                                                 |
\*---------------------------------------------------------------------------*/
FoamFile
{
    version     2.0;
    format      ascii;
    class       volVectorField;
    location    "0.7";
    object      U;
}
// * * * * * * * * * * * * * * * * * * * * * * * * * * * * * * * * * * * * * //

dimensions      [0 1 -1 0 0 0 0];

internalField   nonuniform List<vector> 
2945
(
(0.153789 0.00668144 0)
(0.125028 0.00576602 0)
(0.100445 0.00443543 0)
(0.0804755 0.00314339 0)
(0.065245 0.00206591 0)
(0.0541402 0.00126813 0)
(0.0462385 0.000739062 0)
(0.0406546 0.000420486 0)
(0.0366615 0.000243927 0)
(0.0337152 0.000152819 0)
(0.0314421 0.000108135 0)
(0.0296054 8.62118e-05 0)
(0.0280631 7.43519e-05 0)
(0.0267317 6.65634e-05 0)
(0.025561 6.03896e-05 0)
(0.024519 5.49808e-05 0)
(0.0235832 5.01034e-05 0)
(0.022737 4.57085e-05 0)
(0.0219672 4.17771e-05 0)
(0.0212632 3.82791e-05 0)
(0.0206163 3.5173e-05 0)
(0.0200192 3.24125e-05 0)
(0.0194659 2.99528e-05 0)
(0.0189514 2.77535e-05 0)
(0.0184714 2.57796e-05 0)
(0.0180223 2.40014e-05 0)
(0.017601 2.23937e-05 0)
(0.0172049 2.09355e-05 0)
(0.0168316 1.96089e-05 0)
(0.016479 1.83986e-05 0)
(0.0161455 1.72915e-05 0)
(0.0158293 1.62765e-05 0)
(0.0155292 1.53437e-05 0)
(0.0152438 1.44846e-05 0)
(0.0149721 1.3692e-05 0)
(0.014713 1.29591e-05 0)
(0.0144657 1.22803e-05 0)
(0.0142293 1.16505e-05 0)
(0.014003 1.10652e-05 0)
(0.0137862 1.05203e-05 0)
(0.0135784 1.00123e-05 0)
(0.0133788 9.53786e-06 0)
(0.0131871 9.09421e-06 0)
(0.0130027 8.67869e-06 0)
(0.0128252 8.28899e-06 0)
(0.0126543 7.92298e-06 0)
(0.0124895 7.57878e-06 0)
(0.0123306 7.25464e-06 0)
(0.0121772 6.94901e-06 0)
(0.0120291 6.66049e-06 0)
(0.0118859 6.38781e-06 0)
(0.0117475 6.12981e-06 0)
(0.0116136 5.88547e-06 0)
(0.011484 5.65387e-06 0)
(0.0113586 5.43417e-06 0)
(0.0112371 5.22565e-06 0)
(0.0111193 5.02767e-06 0)
(0.0110052 4.83965e-06 0)
(0.0108946 4.66113e-06 0)
(0.0107873 4.49172e-06 0)
(0.0106832 4.33109e-06 0)
(0.0105822 4.17902e-06 0)
(0.0104841 4.03537e-06 0)
(0.0103888 3.9001e-06 0)
(0.0102962 3.77325e-06 0)
(0.0102062 3.65504e-06 0)
(0.0101185 3.54585e-06 0)
(0.0100331 3.44632e-06 0)
(0.00994979 3.35755e-06 0)
(0.00986832 3.28174e-06 0)
(0.00978843 3.22169e-06 0)
(0.00971015 3.19836e-06 0)
(0.00962802 3.24766e-06 0)
(0.00957956 2.12465e-06 0)
(0.00933855 1.86361e-05 0)
(0.184633 0.0109647 0)
(0.176257 0.0104472 0)
(0.165289 0.0090662 0)
(0.153355 0.00746915 0)
(0.141705 0.00589652 0)
(0.130938 0.00449785 0)
(0.12127 0.0033586 0)
(0.112741 0.00249496 0)
(0.1053 0.00187454 0)
(0.0988415 0.00144351 0)
(0.0932365 0.00114701 0)
(0.0883527 0.000940179 0)
(0.0840704 0.000791152 0)
(0.0802873 0.000679357 0)
(0.0769197 0.000592218 0)
(0.0738998 0.00052217 0)
(0.0711732 0.000464567 0)
(0.0686961 0.000416406 0)
(0.0664332 0.000375631 0)
(0.0643557 0.000340751 0)
(0.0624397 0.000310643 0)
(0.0606656 0.000284442 0)
(0.0590169 0.000261472 0)
(0.0574799 0.000241198 0)
(0.0560426 0.000223195 0)
(0.054695 0.000207121 0)
(0.0534284 0.000192698 0)
(0.0522353 0.0001797 0)
(0.051109 0.00016794 0)
(0.0500439 0.000157261 0)
(0.0490347 0.000147532 0)
(0.0480769 0.000138641 0)
(0.0471666 0.000130495 0)
(0.0463001 0.000123012 0)
(0.0454742 0.00011612 0)
(0.0446861 0.00010976 0)
(0.0439329 0.000103879 0)
(0.0432125 9.84279e-05 0)
(0.0425226 9.33673e-05 0)
(0.0418612 8.86604e-05 0)
(0.0412267 8.42749e-05 0)
(0.0406172 8.0182e-05 0)
(0.0400314 7.6356e-05 0)
(0.0394679 7.27738e-05 0)
(0.0389253 6.94147e-05 0)
(0.0384027 6.62601e-05 0)
(0.0378987 6.32933e-05 0)
(0.0374126 6.0499e-05 0)
(0.0369434 5.78636e-05 0)
(0.0364902 5.53745e-05 0)
(0.0360524 5.30206e-05 0)
(0.0356291 5.07916e-05 0)
(0.0352198 4.86783e-05 0)
(0.0348238 4.66725e-05 0)
(0.0344405 4.47665e-05 0)
(0.0340695 4.29537e-05 0)
(0.0337103 4.12281e-05 0)
(0.0333623 3.95843e-05 0)
(0.0330252 3.80175e-05 0)
(0.0326986 3.65239e-05 0)
(0.0323821 3.50999e-05 0)
(0.0320753 3.37428e-05 0)
(0.0317779 3.24505e-05 0)
(0.0314895 3.12216e-05 0)
(0.0312098 3.00554e-05 0)
(0.0309385 2.89524e-05 0)
(0.030675 2.79139e-05 0)
(0.0304192 2.69433e-05 0)
(0.0301705 2.60468e-05 0)
(0.0299284 2.5237e-05 0)
(0.0296922 2.45346e-05 0)
(0.0294616 2.4075e-05 0)
(0.0292277 2.36376e-05 0)
(0.0290455 2.4576e-05 0)
(0.0285354 7.19146e-05 0)
(0.191306 0.0115777 0)
(0.19066 0.0118786 0)
(0.187726 0.0110949 0)
(0.182997 0.00984928 0)
(0.177224 0.00842553 0)
(0.170941 0.00702918 0)
(0.164498 0.00579789 0)
(0.158133 0.00478598 0)
(0.152001 0.00398658 0)
(0.146182 0.00336409 0)
(0.14071 0.00287735 0)
(0.135589 0.00249104 0)
(0.130808 0.00217872 0)
(0.126349 0.00192183 0)
(0.122191 0.00170754 0)
(0.118313 0.0015268 0)
(0.114693 0.001373 0)
(0.111311 0.00124112 0)
(0.108146 0.00112726 0)
(0.105182 0.00102833 0)
(0.1024 0.00094184 0)
(0.0997859 0.000865777 0)
(0.0973249 0.00079851 0)
(0.0950046 0.000738709 0)
(0.0928133 0.000685285 0)
(0.0907407 0.00063734 0)
(0.0887774 0.000594133 0)
(0.086915 0.000555045 0)
(0.0851459 0.000519558 0)
(0.0834631 0.000487234 0)
(0.0818605 0.000457703 0)
(0.0803325 0.000430649 0)
(0.0788738 0.000405799 0)
(0.0774798 0.000382918 0)
(0.0761464 0.000361804 0)
(0.0748695 0.000342279 0)
(0.0736457 0.000324187 0)
(0.0724717 0.000307391 0)
(0.0713444 0.00029177 0)
(0.0702612 0.000277217 0)
(0.0692195 0.000263637 0)
(0.068217 0.000250944 0)
(0.0672515 0.000239062 0)
(0.066321 0.000227922 0)
(0.0654237 0.000217462 0)
(0.0645579 0.000207627 0)
(0.0637221 0.000198365 0)
(0.0629147 0.000189632 0)
(0.0621344 0.000181386 0)
(0.06138 0.000173589 0)
(0.0606503 0.000166206 0)
(0.0599443 0.000159207 0)
(0.0592609 0.000152563 0)
(0.0585993 0.000146249 0)
(0.0579586 0.000140241 0)
(0.0573379 0.000134518 0)
(0.0567366 0.000129062 0)
(0.056154 0.000123856 0)
(0.0555894 0.000118884 0)
(0.0550423 0.000114133 0)
(0.054512 0.000109592 0)
(0.053998 0.000105252 0)
(0.0534998 0.000101106 0)
(0.0530169 9.71468e-05 0)
(0.0525487 9.33725e-05 0)
(0.0520949 8.97822e-05 0)
(0.0516548 8.63787e-05 0)
(0.0512279 8.31696e-05 0)
(0.0508137 8.01703e-05 0)
(0.0504113 7.74131e-05 0)
(0.0500198 7.49594e-05 0)
(0.0496383 7.31231e-05 0)
(0.0492588 7.14289e-05 0)
(0.0489252 7.88049e-05 0)
(0.0482576 0.000149506 0)
(0.193215 0.0110364 0)
(0.194858 0.0118113 0)
(0.195293 0.0115259 0)
(0.19438 0.0106909 0)
(0.192394 0.00957157 0)
(0.18961 0.00837274 0)
(0.186266 0.00724822 0)
(0.182573 0.00627562 0)
(0.178699 0.00546999 0)
(0.174758 0.00481299 0)
(0.170821 0.00427558 0)
(0.166933 0.00383 0)
(0.163119 0.0034542 0)
(0.159395 0.00313216 0)
(0.155772 0.00285263 0)
(0.152259 0.00260766 0)
(0.14886 0.00239146 0)
(0.145577 0.00219961 0)
(0.142411 0.00202864 0)
(0.139363 0.00187569 0)
(0.13643 0.0017384 0)
(0.133611 0.00161477 0)
(0.130901 0.0015031 0)
(0.128298 0.00140192 0)
(0.125797 0.00131 0)
(0.123395 0.00122627 0)
(0.121087 0.0011498 0)
(0.11887 0.00107979 0)
(0.116738 0.00101554 0)
(0.114689 0.000956456 0)
(0.112719 0.000902003 0)
(0.110822 0.00085172 0)
(0.108997 0.000805199 0)
(0.10724 0.000762082 0)
(0.105546 0.00072205 0)
(0.103914 0.000684822 0)
(0.10234 0.000650148 0)
(0.100822 0.000617803 0)
(0.0993558 0.000587586 0)
(0.0979405 0.000559317 0)
(0.0965731 0.000532835 0)
(0.0952515 0.000507992 0)
(0.0939737 0.000484657 0)
(0.0927375 0.000462708 0)
(0.0915413 0.000442037 0)
(0.0903833 0.000422545 0)
(0.0892619 0.00040414 0)
(0.0881755 0.000386741 0)
(0.0871228 0.000370271 0)
(0.0861023 0.000354662 0)
(0.0851129 0.00033985 0)
(0.0841534 0.000325777 0)
(0.0832228 0.00031239 0)
(0.0823199 0.000299642 0)
(0.0814439 0.000287487 0)
(0.0805938 0.000275886 0)
(0.0797689 0.000264803 0)
(0.0789683 0.000254204 0)
(0.0781915 0.000244061 0)
(0.0774375 0.000234347 0)
(0.076706 0.000225041 0)
(0.0759961 0.000216123 0)
(0.0753074 0.000207578 0)
(0.0746393 0.000199394 0)
(0.0739912 0.000191564 0)
(0.0733626 0.000184084 0)
(0.0727528 0.00017696 0)
(0.0721613 0.000170202 0)
(0.0715874 0.000163838 0)
(0.0710303 0.000157924 0)
(0.070489 0.00015258 0)
(0.069962 0.000148274 0)
(0.0694428 0.000144973 0)
(0.068961 0.000157821 0)
(0.0681856 0.000237955 0)
(0.194058 0.0103807 0)
(0.196113 0.011314 0)
(0.19765 0.0112981 0)
(0.198355 0.0107481 0)
(0.198274 0.00989461 0)
(0.197511 0.00891373 0)
(0.196185 0.00794828 0)
(0.194434 0.00708182 0)
(0.192385 0.00634186 0)
(0.190137 0.00572231 0)
(0.187756 0.00520345 0)
(0.185285 0.00476382 0)
(0.182753 0.00438521 0)
(0.180181 0.00405394 0)
(0.177585 0.00376027 0)
(0.174978 0.00349732 0)
(0.172373 0.00326013 0)
(0.169779 0.00304499 0)
(0.167205 0.00284902 0)
(0.164658 0.00266989 0)
(0.162144 0.00250567 0)
(0.159668 0.00235472 0)
(0.157234 0.00221567 0)
(0.154846 0.0020873 0)
(0.152506 0.00196858 0)
(0.150216 0.0018586 0)
(0.147977 0.00175655 0)
(0.145791 0.00166172 0)
(0.143657 0.00157348 0)
(0.141576 0.00149127 0)
(0.139548 0.00141458 0)
(0.137572 0.00134295 0)
(0.135647 0.00127598 0)
(0.133774 0.0012133 0)
(0.13195 0.00115456 0)
(0.130175 0.00109947 0)
(0.128448 0.00104774 0)
(0.126768 0.000999128 0)
(0.125133 0.000953389 0)
(0.123543 0.000910316 0)
(0.121995 0.000869713 0)
(0.120489 0.000831402 0)
(0.119024 0.000795216 0)
(0.117599 0.000761005 0)
(0.116212 0.000728628 0)
(0.114862 0.000697955 0)
(0.113548 0.000668868 0)
(0.112269 0.000641255 0)
(0.111024 0.000615015 0)
(0.109812 0.000590052 0)
(0.108633 0.00056628 0)
(0.107484 0.000543618 0)
(0.106367 0.000521991 0)
(0.105278 0.00050133 0)
(0.104219 0.000481571 0)
(0.103188 0.000462658 0)
(0.102184 0.000444535 0)
(0.101208 0.000427156 0)
(0.100257 0.000410478 0)
(0.0993324 0.00039446 0)
(0.0984329 0.00037907 0)
(0.0975581 0.000364279 0)
(0.0967075 0.000350062 0)
(0.0958807 0.000336402 0)
(0.0950771 0.000323287 0)
(0.0942963 0.000310712 0)
(0.0935378 0.000298682 0)
(0.0928009 0.000287214 0)
(0.0920852 0.000276349 0)
(0.0913898 0.000266169 0)
(0.0907137 0.000256866 0)
(0.0900554 0.000249047 0)
(0.0894097 0.00024364 0)
(0.0887973 0.000258856 0)
(0.0879387 0.000335916 0)
(0.194639 0.00976095 0)
(0.196567 0.0107157 0)
(0.198311 0.0108433 0)
(0.199553 0.0104773 0)
(0.200261 0.00982001 0)
(0.200467 0.0090198 0)
(0.200223 0.00820155 0)
(0.199611 0.0074459 0)
(0.198721 0.00678599 0)
(0.197624 0.00622349 0)
(0.196374 0.00574559 0)
(0.195002 0.00533583 0)
(0.193532 0.00497932 0)
(0.19198 0.00466431 0)
(0.190356 0.00438224 0)
(0.188672 0.00412695 0)
(0.186937 0.00389399 0)
(0.185159 0.00368006 0)
(0.183345 0.00348263 0)
(0.181505 0.0032997 0)
(0.179643 0.00312963 0)
(0.177766 0.00297109 0)
(0.175881 0.00282294 0)
(0.173991 0.00268422 0)
(0.172101 0.0025541 0)
(0.170217 0.00243188 0)
(0.168341 0.00231692 0)
(0.166477 0.00220867 0)
(0.164627 0.00210663 0)
(0.162794 0.00201038 0)
(0.160981 0.0019195 0)
(0.15919 0.00183364 0)
(0.157421 0.00175246 0)
(0.155677 0.00167567 0)
(0.153959 0.00160297 0)
(0.152266 0.00153412 0)
(0.150602 0.00146886 0)
(0.148965 0.00140698 0)
(0.147356 0.00134827 0)
(0.145776 0.00129254 0)
(0.144224 0.00123959 0)
(0.142702 0.00118926 0)
(0.141208 0.00114139 0)
(0.139744 0.00109583 0)
(0.138308 0.00105244 0)
(0.1369 0.00101108 0)
(0.135521 0.000971625 0)
(0.13417 0.000933967 0)
(0.132847 0.00089799 0)
(0.131552 0.000863591 0)
(0.130284 0.000830674 0)
(0.129042 0.000799147 0)
(0.127828 0.000768925 0)
(0.12664 0.000739929 0)
(0.125477 0.000712086 0)
(0.124341 0.000685326 0)
(0.12323 0.000659586 0)
(0.122145 0.000634809 0)
(0.121084 0.000610942 0)
(0.120049 0.000587939 0)
(0.119038 0.000565757 0)
(0.118051 0.000544362 0)
(0.117088 0.000523725 0)
(0.116149 0.000503823 0)
(0.115233 0.000484643 0)
(0.114341 0.00046618 0)
(0.113472 0.000448443 0)
(0.112625 0.000431456 0)
(0.111801 0.000415275 0)
(0.110998 0.000400015 0)
(0.110216 0.000385936 0)
(0.109454 0.000373796 0)
(0.108707 0.000365515 0)
(0.107993 0.000379528 0)
(0.107075 0.000443563 0)
(0.195134 0.00919886 0)
(0.196825 0.0101232 0)
(0.198481 0.0103357 0)
(0.199818 0.010095 0)
(0.200782 0.00957971 0)
(0.201376 0.00891809 0)
(0.201629 0.00821868 0)
(0.201592 0.00755657 0)
(0.20133 0.00696733 0)
(0.200897 0.00645792 0)
(0.200333 0.00602081 0)
(0.199664 0.00564359 0)
(0.198907 0.00531403 0)
(0.19807 0.005022 0)
(0.197162 0.00475975 0)
(0.196189 0.00452159 0)
(0.195155 0.00430332 0)
(0.194065 0.00410182 0)
(0.192924 0.0039147 0)
(0.191736 0.00374009 0)
(0.190506 0.00357649 0)
(0.189238 0.00342269 0)
(0.187936 0.00327769 0)
(0.186604 0.00314065 0)
(0.185246 0.00301087 0)
(0.183865 0.00288776 0)
(0.182466 0.0027708 0)
(0.181051 0.00265957 0)
(0.179624 0.00255366 0)
(0.178187 0.00245275 0)
(0.176744 0.00235652 0)
(0.175296 0.0022647 0)
(0.173846 0.00217705 0)
(0.172396 0.00209334 0)
(0.170949 0.00201336 0)
(0.169506 0.00193691 0)
(0.168069 0.00186381 0)
(0.16664 0.00179389 0)
(0.165219 0.00172698 0)
(0.163809 0.00166295 0)
(0.162409 0.00160163 0)
(0.161022 0.00154289 0)
(0.159649 0.00148661 0)
(0.158289 0.00143265 0)
(0.156945 0.0013809 0)
(0.155616 0.00133123 0)
(0.154303 0.00128355 0)
(0.153007 0.00123775 0)
(0.151727 0.00119372 0)
(0.150466 0.00115137 0)
(0.149222 0.00111061 0)
(0.147997 0.00107136 0)
(0.14679 0.00103353 0)
(0.145602 0.00099705 0)
(0.144434 0.000961839 0)
(0.143284 0.000927833 0)
(0.142154 0.000894969 0)
(0.141044 0.000863188 0)
(0.139954 0.000832436 0)
(0.138884 0.000802667 0)
(0.137834 0.000773838 0)
(0.136805 0.000745913 0)
(0.135796 0.000718864 0)
(0.134808 0.000692671 0)
(0.13384 0.000667321 0)
(0.132894 0.000642816 0)
(0.131968 0.00061917 0)
(0.131062 0.000596421 0)
(0.130177 0.000574642 0)
(0.129313 0.00055398 0)
(0.128468 0.000534764 0)
(0.127642 0.000517889 0)
(0.126832 0.000505959 0)
(0.126056 0.000515523 0)
(0.12511 0.000559267 0)
(0.195579 0.00870189 0)
(0.197039 0.00957387 0)
(0.198533 0.00983955 0)
(0.199815 0.00969073 0)
(0.200816 0.00928322 0)
(0.201532 0.00872999 0)
(0.201981 0.00812588 0)
(0.202201 0.00753989 0)
(0.20224 0.00700849 0)
(0.202144 0.00654262 0)
(0.201946 0.00613901 0)
(0.201668 0.00578877 0)
(0.201323 0.00548206 0)
(0.200918 0.00521019 0)
(0.200459 0.00496621 0)
(0.199948 0.00474482 0)
(0.199387 0.004542 0)
(0.198779 0.00435473 0)
(0.198125 0.00418065 0)
(0.197427 0.00401791 0)
(0.196688 0.00386504 0)
(0.195909 0.00372085 0)
(0.195092 0.00358436 0)
(0.19424 0.00345477 0)
(0.193354 0.00333142 0)
(0.192437 0.00321374 0)
(0.19149 0.00310127 0)
(0.190517 0.00299362 0)
(0.189518 0.00289044 0)
(0.188497 0.00279145 0)
(0.187454 0.00269638 0)
(0.186393 0.00260502 0)
(0.185316 0.00251716 0)
(0.184223 0.00243263 0)
(0.183117 0.00235127 0)
(0.182001 0.00227292 0)
(0.180874 0.00219746 0)
(0.17974 0.00212474 0)
(0.178599 0.00205466 0)
(0.177454 0.00198709 0)
(0.176305 0.00192193 0)
(0.175154 0.00185907 0)
(0.174002 0.00179841 0)
(0.17285 0.00173986 0)
(0.1717 0.00168333 0)
(0.170553 0.00162872 0)
(0.169409 0.00157595 0)
(0.16827 0.00152493 0)
(0.167136 0.00147558 0)
(0.166009 0.00142783 0)
(0.164889 0.0013816 0)
(0.163776 0.00133681 0)
(0.162673 0.0012934 0)
(0.161579 0.00125129 0)
(0.160494 0.00121043 0)
(0.159421 0.00117076 0)
(0.158359 0.00113222 0)
(0.157308 0.00109476 0)
(0.156271 0.00105832 0)
(0.155246 0.00102288 0)
(0.154234 0.000988396 0)
(0.153237 0.000954833 0)
(0.152254 0.000922171 0)
(0.151287 0.000890397 0)
(0.150334 0.000859507 0)
(0.149397 0.00082951 0)
(0.148476 0.000800434 0)
(0.147571 0.00077233 0)
(0.146683 0.000745293 0)
(0.145811 0.000719504 0)
(0.144955 0.000695346 0)
(0.144116 0.000673809 0)
(0.143291 0.000657736 0)
(0.142499 0.000660431 0)
(0.141563 0.000679731 0)
(0.195984 0.00826414 0)
(0.197243 0.00907393 0)
(0.198571 0.00937224 0)
(0.199753 0.00929506 0)
(0.200716 0.00897468 0)
(0.201449 0.00851087 0)
(0.201962 0.0079867 0)
(0.202284 0.00746504 0)
(0.202456 0.00698225 0)
(0.202516 0.00655226 0)
(0.202495 0.00617545 0)
(0.202412 0.00584607 0)
(0.20228 0.00555653 0)
(0.202106 0.00529962 0)
(0.201894 0.00506925 0)
(0.201647 0.00486057 0)
(0.201365 0.00466981 0)
(0.201051 0.00449405 0)
(0.200703 0.00433098 0)
(0.200324 0.00417876 0)
(0.199912 0.00403591 0)
(0.19947 0.00390122 0)
(0.198997 0.00377371 0)
(0.198494 0.00365256 0)
(0.197961 0.00353709 0)
(0.1974 0.00342673 0)
(0.196811 0.00332102 0)
(0.196195 0.00321955 0)
(0.195553 0.00312198 0)
(0.194886 0.00302804 0)
(0.194195 0.00293747 0)
(0.193482 0.00285006 0)
(0.192746 0.00276563 0)
(0.19199 0.00268402 0)
(0.191215 0.00260507 0)
(0.190422 0.00252866 0)
(0.189612 0.00245467 0)
(0.188785 0.002383 0)
(0.187945 0.00231354 0)
(0.18709 0.00224621 0)
(0.186224 0.00218091 0)
(0.185345 0.00211756 0)
(0.184457 0.00205608 0)
(0.18356 0.0019964 0)
(0.182655 0.00193844 0)
(0.181743 0.00188213 0)
(0.180825 0.00182741 0)
(0.179901 0.0017742 0)
(0.178974 0.00172244 0)
(0.178044 0.00167207 0)
(0.177112 0.00162303 0)
(0.176179 0.00157525 0)
(0.175245 0.00152869 0)
(0.174312 0.00148328 0)
(0.17338 0.00143897 0)
(0.17245 0.00139573 0)
(0.171523 0.00135349 0)
(0.170601 0.00131222 0)
(0.169682 0.00127188 0)
(0.168769 0.00123244 0)
(0.167862 0.00119386 0)
(0.166962 0.00115614 0)
(0.166069 0.00111925 0)
(0.165185 0.0010832 0)
(0.164309 0.00104798 0)
(0.163442 0.00101363 0)
(0.162585 0.000980171 0)
(0.161739 0.000947686 0)
(0.160903 0.000916288 0)
(0.160078 0.000886186 0)
(0.159265 0.000857804 0)
(0.158462 0.00083215 0)
(0.157672 0.000811882 0)
(0.156913 0.000806391 0)
(0.156028 0.000800447 0)
(0.196353 0.0078765 0)
(0.197442 0.00862083 0)
(0.198615 0.00893719 0)
(0.199692 0.00891731 0)
(0.200595 0.00867015 0)
(0.201306 0.00828306 0)
(0.201831 0.00782881 0)
(0.202191 0.00736418 0)
(0.202419 0.0069246 0)
(0.20255 0.00652614 0)
(0.202609 0.00617221 0)
(0.202617 0.00585979 0)
(0.202587 0.00558345 0)
(0.202525 0.00533745 0)
(0.202436 0.00511661 0)
(0.202324 0.00491665 0)
(0.20219 0.00473412 0)
(0.202035 0.00456627 0)
(0.201859 0.00441088 0)
(0.201662 0.00426616 0)
(0.201445 0.00413067 0)
(0.201206 0.00400319 0)
(0.200947 0.00388272 0)
(0.200668 0.00376845 0)
(0.200367 0.00365967 0)
(0.200045 0.0035558 0)
(0.199702 0.00345635 0)
(0.199338 0.0033609 0)
(0.198954 0.0032691 0)
(0.198548 0.00318064 0)
(0.198123 0.00309528 0)
(0.197677 0.00301278 0)
(0.197212 0.00293296 0)
(0.196727 0.00285564 0)
(0.196224 0.00278068 0)
(0.195702 0.00270794 0)
(0.195163 0.00263731 0)
(0.194606 0.00256868 0)
(0.194032 0.00250195 0)
(0.193442 0.00243704 0)
(0.192837 0.00237385 0)
(0.192218 0.00231233 0)
(0.191584 0.00225238 0)
(0.190937 0.00219394 0)
(0.190277 0.00213696 0)
(0.189605 0.00208135 0)
(0.188922 0.00202707 0)
(0.188229 0.00197406 0)
(0.187526 0.00192225 0)
(0.186814 0.0018716 0)
(0.186094 0.00182204 0)
(0.185367 0.00177354 0)
(0.184633 0.00172604 0)
(0.183893 0.00167949 0)
(0.183148 0.00163386 0)
(0.182399 0.0015891 0)
(0.181647 0.00154516 0)
(0.180891 0.00150203 0)
(0.180134 0.00145966 0)
(0.179375 0.00141804 0)
(0.178616 0.00137714 0)
(0.177857 0.00133695 0)
(0.177099 0.00129747 0)
(0.176343 0.0012587 0)
(0.175589 0.00122066 0)
(0.174838 0.00118339 0)
(0.174091 0.00114693 0)
(0.173349 0.00111138 0)
(0.172611 0.00107687 0)
(0.171878 0.00104362 0)
(0.171151 0.00101209 0)
(0.17043 0.000983209 0)
(0.169717 0.000959138 0)
(0.169031 0.000945295 0)
(0.168233 0.000916419 0)
(0.196688 0.00753093 0)
(0.197635 0.00821064 0)
(0.198671 0.00853422 0)
(0.199646 0.00856003 0)
(0.200484 0.00837515 0)
(0.201161 0.00805505 0)
(0.201677 0.00766331 0)
(0.202049 0.0072508 0)
(0.202302 0.00685137 0)
(0.202466 0.00648238 0)
(0.202564 0.00614964 0)
(0.202615 0.00585251 0)
(0.202631 0.00558749 0)
(0.202621 0.00535024 0)
(0.202591 0.00513654 0)
(0.202543 0.00494272 0)
(0.20248 0.00476571 0)
(0.202404 0.00460299 0)
(0.202314 0.0044525 0)
(0.202212 0.00431256 0)
(0.202098 0.00418176 0)
(0.201971 0.00405893 0)
(0.201831 0.00394311 0)
(0.201679 0.00383346 0)
(0.201514 0.0037293 0)
(0.201335 0.00363004 0)
(0.201144 0.00353517 0)
(0.200938 0.00344426 0)
(0.200719 0.00335696 0)
(0.200485 0.00327295 0)
(0.200237 0.00319194 0)
(0.199974 0.00311372 0)
(0.199697 0.00303806 0)
(0.199405 0.00296479 0)
(0.199099 0.00289375 0)
(0.198778 0.00282479 0)
(0.198442 0.00275779 0)
(0.198091 0.00269263 0)
(0.197726 0.0026292 0)
(0.197347 0.00256742 0)
(0.196953 0.00250719 0)
(0.196545 0.00244844 0)
(0.196124 0.00239107 0)
(0.19569 0.00233503 0)
(0.195242 0.00228025 0)
(0.194782 0.00222665 0)
(0.194309 0.00217419 0)
(0.193824 0.00212279 0)
(0.193328 0.0020724 0)
(0.192821 0.00202298 0)
(0.192303 0.00197446 0)
(0.191775 0.0019268 0)
(0.191237 0.00187996 0)
(0.190691 0.00183388 0)
(0.190135 0.00178853 0)
(0.189572 0.00174386 0)
(0.189001 0.00169985 0)
(0.188424 0.00165646 0)
(0.18784 0.00161366 0)
(0.187251 0.00157144 0)
(0.186656 0.00152978 0)
(0.186058 0.00148868 0)
(0.185455 0.00144813 0)
(0.184849 0.00140814 0)
(0.184241 0.00136875 0)
(0.183631 0.00133 0)
(0.18302 0.00129194 0)
(0.182408 0.00125469 0)
(0.181795 0.00121839 0)
(0.181183 0.00118328 0)
(0.180572 0.00114979 0)
(0.179962 0.00111873 0)
(0.179357 0.00109157 0)
(0.178772 0.0010702 0)
(0.178086 0.00102309 0)
(0.196992 0.00722083 0)
(0.19782 0.00783918 0)
(0.198735 0.00816195 0)
(0.199615 0.00822354 0)
(0.200389 0.00809156 0)
(0.201028 0.00783019 0)
(0.201528 0.00749475 0)
(0.2019 0.00713045 0)
(0.202165 0.00676906 0)
(0.202346 0.00642857 0)
(0.202465 0.00611655 0)
(0.202539 0.00583434 0)
(0.202579 0.00558015 0)
(0.202594 0.00535093 0)
(0.202591 0.0051434 0)
(0.202574 0.00495451 0)
(0.202544 0.00478161 0)
(0.202504 0.00462245 0)
(0.202455 0.00447517 0)
(0.202399 0.00433821 0)
(0.202334 0.00421025 0)
(0.202262 0.00409019 0)
(0.202184 0.0039771 0)
(0.202098 0.00387019 0)
(0.202004 0.00376878 0)
(0.201904 0.00367229 0)
(0.201796 0.00358025 0)
(0.201679 0.00349221 0)
(0.201555 0.00340781 0)
(0.201423 0.00332673 0)
(0.201282 0.0032487 0)
(0.201131 0.00317347 0)
(0.200972 0.00310081 0)
(0.200803 0.00303056 0)
(0.200625 0.00296252 0)
(0.200436 0.00289655 0)
(0.200237 0.00283252 0)
(0.200028 0.00277029 0)
(0.199809 0.00270975 0)
(0.199578 0.00265081 0)
(0.199337 0.00259335 0)
(0.199086 0.00253729 0)
(0.198823 0.00248255 0)
(0.198549 0.00242905 0)
(0.198265 0.0023767 0)
(0.197969 0.00232545 0)
(0.197663 0.00227522 0)
(0.197346 0.00222595 0)
(0.197019 0.00217757 0)
(0.196681 0.00213003 0)
(0.196333 0.00208328 0)
(0.195974 0.00203725 0)
(0.195606 0.0019919 0)
(0.195228 0.00194719 0)
(0.194841 0.00190306 0)
(0.194445 0.00185948 0)
(0.19404 0.00181642 0)
(0.193627 0.00177383 0)
(0.193206 0.00173169 0)
(0.192777 0.00168999 0)
(0.192341 0.00164871 0)
(0.191899 0.00160784 0)
(0.191449 0.00156739 0)
(0.190994 0.00152737 0)
(0.190534 0.00148781 0)
(0.190068 0.00144877 0)
(0.189598 0.00141031 0)
(0.189124 0.00137253 0)
(0.188646 0.00133561 0)
(0.188164 0.00129978 0)
(0.18768 0.00126543 0)
(0.187194 0.0012332 0)
(0.186708 0.00120383 0)
(0.186238 0.00117641 0)
(0.185675 0.0011171 0)
(0.19727 0.00694081 0)
(0.197996 0.00750231 0)
(0.198805 0.00781855 0)
(0.199598 0.00790746 0)
(0.200309 0.00782012 0)
(0.20091 0.00761014 0)
(0.20139 0.00732534 0)
(0.201758 0.00700568 0)
(0.202028 0.0066805 0)
(0.20222 0.00636782 0)
(0.202352 0.00607647 0)
(0.20244 0.00580938 0)
(0.202494 0.0055662 0)
(0.202524 0.00534508 0)
(0.202536 0.0051436 0)
(0.202533 0.00495934 0)
(0.202519 0.00479006 0)
(0.202497 0.00463383 0)
(0.202467 0.00448897 0)
(0.202431 0.00435408 0)
(0.20239 0.00422796 0)
(0.202344 0.00410956 0)
(0.202294 0.00399804 0)
(0.20224 0.00389263 0)
(0.202182 0.00379271 0)
(0.20212 0.00369771 0)
(0.202054 0.00360717 0)
(0.201984 0.00352067 0)
(0.20191 0.00343785 0)
(0.201832 0.00335841 0)
(0.201749 0.00328206 0)
(0.201661 0.00320857 0)
(0.201569 0.00313771 0)
(0.201471 0.0030693 0)
(0.201367 0.00300316 0)
(0.201258 0.00293913 0)
(0.201143 0.00287707 0)
(0.201022 0.00281686 0)
(0.200894 0.00275836 0)
(0.20076 0.00270148 0)
(0.200618 0.0026461 0)
(0.20047 0.00259212 0)
(0.200314 0.00253946 0)
(0.20015 0.00248803 0)
(0.199979 0.00243775 0)
(0.1998 0.00238853 0)
(0.199613 0.00234031 0)
(0.199417 0.00229301 0)
(0.199214 0.00224656 0)
(0.199002 0.0022009 0)
(0.198782 0.00215597 0)
(0.198554 0.00211171 0)
(0.198318 0.00206807 0)
(0.198073 0.00202498 0)
(0.19782 0.0019824 0)
(0.197558 0.0019403 0)
(0.197289 0.00189861 0)
(0.197012 0.00185732 0)
(0.196727 0.00181639 0)
(0.196434 0.0017758 0)
(0.196134 0.00173552 0)
(0.195827 0.00169557 0)
(0.195512 0.00165592 0)
(0.195191 0.00161662 0)
(0.194863 0.00157767 0)
(0.194529 0.00153914 0)
(0.194189 0.00150111 0)
(0.193843 0.00146367 0)
(0.193491 0.00142699 0)
(0.193134 0.0013913 0)
(0.192772 0.00135694 0)
(0.192406 0.00132435 0)
(0.192038 0.00129363 0)
(0.19168 0.00126197 0)
(0.191238 0.00119667 0)
(0.197522 0.00668651 0)
(0.198163 0.0071962 0)
(0.198879 0.00750206 0)
(0.199592 0.00761119 0)
(0.200245 0.00756115 0)
(0.200806 0.00739594 0)
(0.201265 0.00715654 0)
(0.201625 0.00687801 0)
(0.201896 0.00658718 0)
(0.202095 0.0063016 0)
(0.202236 0.0060309 0)
(0.202334 0.00577924 0)
(0.202399 0.0055475 0)
(0.202439 0.00533485 0)
(0.20246 0.0051397 0)
(0.202467 0.00496021 0)
(0.202462 0.00479458 0)
(0.202449 0.00464116 0)
(0.202429 0.00449852 0)
(0.202404 0.00436539 0)
(0.202373 0.00424068 0)
(0.20234 0.00412347 0)
(0.202303 0.00401294 0)
(0.202263 0.00390841 0)
(0.202221 0.00380927 0)
(0.202178 0.003715 0)
(0.202132 0.00362517 0)
(0.202084 0.00353937 0)
(0.202034 0.00345727 0)
(0.201983 0.00337857 0)
(0.201929 0.00330299 0)
(0.201874 0.00323031 0)
(0.201816 0.00316032 0)
(0.201755 0.00309281 0)
(0.201693 0.00302764 0)
(0.201627 0.00296463 0)
(0.201559 0.00290365 0)
(0.201487 0.00284456 0)
(0.201412 0.00278724 0)
(0.201334 0.00273159 0)
(0.201251 0.00267748 0)
(0.201165 0.00262482 0)
(0.201074 0.00257352 0)
(0.200979 0.00252348 0)
(0.20088 0.00247462 0)
(0.200775 0.00242685 0)
(0.200665 0.00238009 0)
(0.20055 0.00233427 0)
(0.20043 0.00228932 0)
(0.200304 0.00224516 0)
(0.200172 0.00220172 0)
(0.200035 0.00215895 0)
(0.199891 0.00211678 0)
(0.199741 0.00207515 0)
(0.199585 0.00203401 0)
(0.199423 0.00199331 0)
(0.199254 0.00195301 0)
(0.199079 0.00191305 0)
(0.198898 0.00187342 0)
(0.19871 0.00183408 0)
(0.198516 0.00179501 0)
(0.198315 0.00175621 0)
(0.198108 0.00171766 0)
(0.197894 0.0016794 0)
(0.197674 0.00164144 0)
(0.197448 0.00160385 0)
(0.197216 0.00156668 0)
(0.196978 0.00153006 0)
(0.196733 0.00149414 0)
(0.196483 0.00145912 0)
(0.196227 0.0014253 0)
(0.195966 0.00139292 0)
(0.195703 0.00136159 0)
(0.195444 0.00132745 0)
(0.195111 0.00126159 0)
(0.197752 0.00645441 0)
(0.19832 0.0069174 0)
(0.198955 0.00721049 0)
(0.199596 0.007334 0)
(0.200193 0.00731478 0)
(0.200716 0.00718834 0)
(0.201152 0.00698943 0)
(0.201501 0.00674864 0)
(0.201771 0.00649018 0)
(0.201974 0.00623084 0)
(0.202122 0.00598064 0)
(0.202228 0.00574465 0)
(0.202301 0.00552476 0)
(0.202349 0.00532105 0)
(0.202378 0.00513263 0)
(0.202391 0.00495825 0)
(0.202394 0.0047965 0)
(0.202387 0.00464606 0)
(0.202372 0.0045057 0)
(0.202353 0.00437432 0)
(0.202329 0.00425096 0)
(0.202301 0.00413479 0)
(0.202271 0.00402506 0)
(0.202239 0.00392115 0)
(0.202205 0.00382249 0)
(0.202169 0.00372861 0)
(0.202133 0.00363909 0)
(0.202095 0.00355356 0)
(0.202057 0.0034717 0)
(0.202018 0.00339323 0)
(0.201978 0.00331789 0)
(0.201938 0.00324545 0)
(0.201897 0.00317572 0)
(0.201855 0.00310852 0)
(0.201813 0.00304368 0)
(0.201769 0.00298104 0)
(0.201725 0.00292048 0)
(0.201679 0.00286185 0)
(0.201632 0.00280505 0)
(0.201583 0.00274995 0)
(0.201533 0.00269645 0)
(0.201481 0.00264445 0)
(0.201427 0.00259385 0)
(0.201371 0.00254457 0)
(0.201313 0.0024965 0)
(0.201252 0.00244957 0)
(0.201189 0.0024037 0)
(0.201122 0.0023588 0)
(0.201053 0.0023148 0)
(0.20098 0.00227163 0)
(0.200904 0.00222921 0)
(0.200824 0.00218747 0)
(0.20074 0.00214636 0)
(0.200653 0.00210581 0)
(0.200561 0.00206577 0)
(0.200465 0.00202617 0)
(0.200365 0.00198697 0)
(0.20026 0.00194813 0)
(0.200151 0.00190961 0)
(0.200037 0.00187138 0)
(0.199918 0.00183341 0)
(0.199794 0.00179569 0)
(0.199665 0.00175823 0)
(0.199531 0.00172103 0)
(0.199391 0.00168412 0)
(0.199247 0.00164755 0)
(0.199096 0.00161139 0)
(0.198941 0.00157576 0)
(0.19878 0.00154079 0)
(0.198614 0.00150668 0)
(0.198442 0.00147365 0)
(0.198265 0.00144181 0)
(0.198085 0.0014104 0)
(0.197906 0.00137531 0)
(0.197664 0.00131294 0)
(0.197963 0.00624167 0)
(0.198467 0.00666286 0)
(0.199031 0.00694187 0)
(0.199607 0.00707505 0)
(0.200152 0.00708102 0)
(0.200638 0.00698793 0)
(0.20105 0.00682495 0)
(0.201386 0.00661856 0)
(0.201652 0.00639041 0)
(0.201857 0.00615628 0)
(0.20201 0.00592627 0)
(0.202123 0.00570608 0)
(0.202203 0.00549837 0)
(0.202257 0.005304 0)
(0.202292 0.00512274 0)
(0.202312 0.00495383 0)
(0.20232 0.00479629 0)
(0.202318 0.00464907 0)
(0.202308 0.00451119 0)
(0.202293 0.0043817 0)
(0.202273 0.00425978 0)
(0.20225 0.00414468 0)
(0.202224 0.00403575 0)
(0.202195 0.00393241 0)
(0.202166 0.00383416 0)
(0.202134 0.00374054 0)
(0.202103 0.00365119 0)
(0.20207 0.00356574 0)
(0.202037 0.00348391 0)
(0.202004 0.00340543 0)
(0.201971 0.00333005 0)
(0.201938 0.00325757 0)
(0.201905 0.00318779 0)
(0.201872 0.00312054 0)
(0.201838 0.00305567 0)
(0.201805 0.00299302 0)
(0.201772 0.00293247 0)
(0.201739 0.00287389 0)
(0.201706 0.00281717 0)
(0.201673 0.00276218 0)
(0.201639 0.00270883 0)
(0.201605 0.00265703 0)
(0.20157 0.00260666 0)
(0.201534 0.00255765 0)
(0.201498 0.0025099 0)
(0.201461 0.00246333 0)
(0.201423 0.00241786 0)
(0.201383 0.0023734 0)
(0.201342 0.00232989 0)
(0.2013 0.00228724 0)
(0.201256 0.00224538 0)
(0.20121 0.00220425 0)
(0.201162 0.00216377 0)
(0.201112 0.00212389 0)
(0.201059 0.00208454 0)
(0.201004 0.00204567 0)
(0.200947 0.00200724 0)
(0.200887 0.00196918 0)
(0.200823 0.00193146 0)
(0.200757 0.00189406 0)
(0.200687 0.00185694 0)
(0.200614 0.00182009 0)
(0.200537 0.00178351 0)
(0.200457 0.0017472 0)
(0.200373 0.0017112 0)
(0.200284 0.00167556 0)
(0.200192 0.00164034 0)
(0.200095 0.00160565 0)
(0.199994 0.00157163 0)
(0.199888 0.00153844 0)
(0.199777 0.00150625 0)
(0.199663 0.00147505 0)
(0.199545 0.00144394 0)
(0.199425 0.00140905 0)
(0.199252 0.00135266 0)