/*--------------------------------*- C++ -*----------------------------------*\
| =========                 |                                                 |
| \\      /  F ield         | OpenFOAM: The Open Source CFD Toolbox           |
|  \\    /   O peration     | Version:  2.3.0                                 |
|   \\  /    A nd           | Web:      www.OpenFOAM.org                      |
|    \\/     M anipulation  |                                                 |
\*---------------------------------------------------------------------------*/
FoamFile
{
    version     2.0;
    format      ascii;
    class       volVectorField;
    location    "0.7";
    object      U_0;
}
// * * * * * * * * * * * * * * * * * * * * * * * * * * * * * * * * * * * * * //

dimensions      [0 1 -1 0 0 0 0];

internalField   nonuniform List<vector> 
2945
(
(0.153789 0.00668144 0)
(0.125028 0.00576602 0)
(0.100445 0.00443543 0)
(0.0804755 0.00314339 0)
(0.065245 0.00206591 0)
(0.0541402 0.00126813 0)
(0.0462386 0.000739062 0)
(0.0406546 0.000420486 0)
(0.0366616 0.000243927 0)
(0.0337152 0.000152819 0)
(0.0314421 0.000108135 0)
(0.0296054 8.62116e-05 0)
(0.0280631 7.43517e-05 0)
(0.0267317 6.65631e-05 0)
(0.025561 6.03894e-05 0)
(0.024519 5.49806e-05 0)
(0.0235832 5.01031e-05 0)
(0.022737 4.57083e-05 0)
(0.0219673 4.17768e-05 0)
(0.0212633 3.82788e-05 0)
(0.0206163 3.51726e-05 0)
(0.0200192 3.24122e-05 0)
(0.0194659 2.99525e-05 0)
(0.0189514 2.77531e-05 0)
(0.0184715 2.57792e-05 0)
(0.0180224 2.40009e-05 0)
(0.0176011 2.23932e-05 0)
(0.017205 2.0935e-05 0)
(0.0168317 1.96083e-05 0)
(0.0164791 1.8398e-05 0)
(0.0161456 1.72909e-05 0)
(0.0158295 1.62758e-05 0)
(0.0155294 1.5343e-05 0)
(0.015244 1.44839e-05 0)
(0.0149723 1.36911e-05 0)
(0.0147132 1.29582e-05 0)
(0.0144659 1.22794e-05 0)
(0.0142295 1.16495e-05 0)
(0.0140032 1.10641e-05 0)
(0.0137865 1.05192e-05 0)
(0.0135786 1.00111e-05 0)
(0.0133791 9.53661e-06 0)
(0.0131874 9.09288e-06 0)
(0.0130031 8.67729e-06 0)
(0.0128256 8.2875e-06 0)
(0.0126547 7.92141e-06 0)
(0.01249 7.57711e-06 0)
(0.0123311 7.25288e-06 0)
(0.0121777 6.94716e-06 0)
(0.0120296 6.65854e-06 0)
(0.0118865 6.38574e-06 0)
(0.0117481 6.12764e-06 0)
(0.0116143 5.88319e-06 0)
(0.0114847 5.65147e-06 0)
(0.0113593 5.43165e-06 0)
(0.0112379 5.22301e-06 0)
(0.0111202 5.0249e-06 0)
(0.0110062 4.83676e-06 0)
(0.0108957 4.65811e-06 0)
(0.0107885 4.48856e-06 0)
(0.0106844 4.3278e-06 0)
(0.0105835 4.1756e-06 0)
(0.0104855 4.03182e-06 0)
(0.0103903 3.89643e-06 0)
(0.0102978 3.76946e-06 0)
(0.0102079 3.65114e-06 0)
(0.0101203 3.54185e-06 0)
(0.010035 3.44223e-06 0)
(0.00995179 3.35339e-06 0)
(0.00987045 3.27754e-06 0)
(0.00979068 3.21747e-06 0)
(0.00971253 3.19412e-06 0)
(0.00963054 3.24347e-06 0)
(0.00958213 2.12327e-06 0)
(0.00934163 1.86e-05 0)
(0.184633 0.0109647 0)
(0.176257 0.0104472 0)
(0.165289 0.0090662 0)
(0.153355 0.00746915 0)
(0.141705 0.00589652 0)
(0.130938 0.00449785 0)
(0.12127 0.0033586 0)
(0.112741 0.00249496 0)
(0.1053 0.00187454 0)
(0.0988416 0.00144351 0)
(0.0932366 0.00114701 0)
(0.0883528 0.000940178 0)
(0.0840704 0.00079115 0)
(0.0802874 0.000679355 0)
(0.0769198 0.000592216 0)
(0.0738999 0.000522169 0)
(0.0711733 0.000464565 0)
(0.0686962 0.000416404 0)
(0.0664334 0.000375629 0)
(0.0643558 0.000340748 0)
(0.0624398 0.00031064 0)
(0.0606657 0.000284439 0)
(0.0590171 0.000261469 0)
(0.0574801 0.000241195 0)
(0.0560428 0.000223192 0)
(0.0546952 0.000207118 0)
(0.0534287 0.000192695 0)
(0.0522356 0.000179697 0)
(0.0511093 0.000167936 0)
(0.0500442 0.000157256 0)
(0.049035 0.000147527 0)
(0.0480773 0.000138636 0)
(0.047167 0.00013049 0)
(0.0463005 0.000123006 0)
(0.0454747 0.000116114 0)
(0.0446865 0.000109754 0)
(0.0439335 0.000103872 0)
(0.0432131 9.84205e-05 0)
(0.0425232 9.33594e-05 0)
(0.0418619 8.8652e-05 0)
(0.0412274 8.4266e-05 0)
(0.040618 8.01725e-05 0)
(0.0400323 7.63458e-05 0)
(0.0394688 7.2763e-05 0)
(0.0389264 6.94032e-05 0)
(0.0384038 6.62479e-05 0)
(0.0378999 6.32803e-05 0)
(0.0374139 6.04852e-05 0)
(0.0369448 5.78489e-05 0)
(0.0364918 5.5359e-05 0)
(0.036054 5.30041e-05 0)
(0.0356309 5.07741e-05 0)
(0.0352217 4.86599e-05 0)
(0.0348258 4.6653e-05 0)
(0.0344428 4.47459e-05 0)
(0.0340719 4.29319e-05 0)
(0.0337129 4.12051e-05 0)
(0.0333651 3.956e-05 0)
(0.0330282 3.7992e-05 0)
(0.0327019 3.64971e-05 0)
(0.0323856 3.50718e-05 0)
(0.032079 3.37133e-05 0)
(0.0317819 3.24197e-05 0)
(0.0314938 3.11894e-05 0)
(0.0312144 3.00219e-05 0)
(0.0309433 2.89174e-05 0)
(0.0306803 2.78776e-05 0)
(0.0304248 2.69058e-05 0)
(0.0301764 2.60081e-05 0)
(0.0299347 2.51972e-05 0)
(0.029699 2.4494e-05 0)
(0.0294687 2.40333e-05 0)
(0.0292354 2.35962e-05 0)
(0.0290534 2.4532e-05 0)
(0.0285445 7.17669e-05 0)
(0.191306 0.0115777 0)
(0.19066 0.0118786 0)
(0.187726 0.0110949 0)
(0.182997 0.00984928 0)
(0.177224 0.00842552 0)
(0.170941 0.00702918 0)
(0.164498 0.00579789 0)
(0.158133 0.00478598 0)
(0.152001 0.00398658 0)
(0.146182 0.00336408 0)
(0.14071 0.00287735 0)
(0.135589 0.00249104 0)
(0.130808 0.00217871 0)
(0.126349 0.00192182 0)
(0.122191 0.00170754 0)
(0.118313 0.0015268 0)
(0.114693 0.00137299 0)
(0.111311 0.00124111 0)
(0.108147 0.00112726 0)
(0.105182 0.00102833 0)
(0.1024 0.000941834 0)
(0.0997861 0.00086577 0)
(0.0973252 0.000798503 0)
(0.0950048 0.000738701 0)
(0.0928136 0.000685277 0)
(0.090741 0.000637331 0)
(0.0887778 0.000594123 0)
(0.0869154 0.000555034 0)
(0.0851463 0.000519546 0)
(0.0834635 0.000487222 0)
(0.081861 0.00045769 0)
(0.080333 0.000430635 0)
(0.0788743 0.000405783 0)
(0.0774804 0.000382902 0)
(0.076147 0.000361787 0)
(0.0748702 0.000342261 0)
(0.0736465 0.000324167 0)
(0.0724725 0.00030737 0)
(0.0713453 0.000291747 0)
(0.0702622 0.000277193 0)
(0.0692206 0.000263611 0)
(0.0682182 0.000250917 0)
(0.0672527 0.000239032 0)
(0.0663224 0.00022789 0)
(0.0654252 0.000217428 0)
(0.0645596 0.000207591 0)
(0.0637238 0.000198327 0)
(0.0629166 0.000189591 0)
(0.0621365 0.000181342 0)
(0.0613823 0.000173542 0)
(0.0606528 0.000166156 0)
(0.059947 0.000159154 0)
(0.0592638 0.000152507 0)
(0.0586024 0.00014619 0)
(0.057962 0.000140178 0)
(0.0573416 0.000134452 0)
(0.0567406 0.000128992 0)
(0.0561583 0.000123782 0)
(0.055594 0.000118805 0)
(0.0550472 0.00011405 0)
(0.0545173 0.000109505 0)
(0.0540037 0.000105161 0)
(0.053506 0.00010101 0)
(0.0530235 9.7046e-05 0)
(0.0525559 9.3267e-05 0)
(0.0521026 8.9672e-05 0)
(0.0516631 8.62638e-05 0)
(0.0512368 8.30501e-05 0)
(0.0508231 8.00465e-05 0)
(0.0504214 7.7285e-05 0)
(0.0500306 7.48275e-05 0)
(0.0496498 7.29873e-05 0)
(0.049271 7.1292e-05 0)
(0.0489381 7.86465e-05 0)
(0.048272 0.000149188 0)
(0.193215 0.0110364 0)
(0.194858 0.0118113 0)
(0.195293 0.0115259 0)
(0.19438 0.0106909 0)
(0.192394 0.00957156 0)
(0.18961 0.00837274 0)
(0.186266 0.00724821 0)
(0.182573 0.00627562 0)
(0.178699 0.00546998 0)
(0.174758 0.00481298 0)
(0.170821 0.00427557 0)
(0.166933 0.00382999 0)
(0.163119 0.00345419 0)
(0.159395 0.00313216 0)
(0.155772 0.00285263 0)
(0.152259 0.00260766 0)
(0.14886 0.00239145 0)
(0.145577 0.0021996 0)
(0.142412 0.00202863 0)
(0.139363 0.00187568 0)
(0.136431 0.00173839 0)
(0.133611 0.00161476 0)
(0.130901 0.00150308 0)
(0.128298 0.00140191 0)
(0.125797 0.00130999 0)
(0.123395 0.00122625 0)
(0.121088 0.00114978 0)
(0.11887 0.00107977 0)
(0.116739 0.00101552 0)
(0.11469 0.000956434 0)
(0.112719 0.000901979 0)
(0.110823 0.000851694 0)
(0.108998 0.000805171 0)
(0.10724 0.000762051 0)
(0.105547 0.000722018 0)
(0.103915 0.000684788 0)
(0.102341 0.000650111 0)
(0.100822 0.000617763 0)
(0.0993569 0.000587543 0)
(0.0979416 0.000559271 0)
(0.0965744 0.000532786 0)
(0.0952529 0.000507939 0)
(0.0939752 0.0004846 0)
(0.0927392 0.000462647 0)
(0.0915432 0.000441972 0)
(0.0903853 0.000422475 0)
(0.0892641 0.000404066 0)
(0.0881779 0.000386662 0)
(0.0871253 0.000370187 0)
(0.0861051 0.000354572 0)
(0.085116 0.000339754 0)
(0.0841567 0.000325674 0)
(0.0832263 0.000312281 0)
(0.0823238 0.000299526 0)
(0.0814481 0.000287364 0)
(0.0805984 0.000275755 0)
(0.0797738 0.000264664 0)
(0.0789737 0.000254057 0)
(0.0781973 0.000243905 0)
(0.0774438 0.000234183 0)
(0.0767127 0.000224868 0)
(0.0760034 0.00021594 0)
(0.0753153 0.000207385 0)
(0.0746478 0.000199191 0)
(0.0740004 0.000191351 0)
(0.0733724 0.000183861 0)
(0.0727634 0.000176727 0)
(0.0721727 0.000169959 0)
(0.0715997 0.000163585 0)
(0.0710434 0.000157661 0)
(0.070503 0.000152308 0)
(0.0699769 0.000147994 0)
(0.0694588 0.000144686 0)
(0.068978 0.000157491 0)
(0.0682043 0.00023744 0)
(0.194058 0.0103807 0)
(0.196113 0.0113139 0)
(0.19765 0.0112981 0)
(0.198355 0.0107481 0)
(0.198274 0.00989461 0)
(0.197511 0.00891372 0)
(0.196185 0.00794827 0)
(0.194434 0.00708181 0)
(0.192385 0.00634186 0)
(0.190137 0.0057223 0)
(0.187756 0.00520345 0)
(0.185285 0.00476381 0)
(0.182753 0.0043852 0)
(0.180181 0.00405393 0)
(0.177585 0.00376026 0)
(0.174978 0.00349731 0)
(0.172373 0.00326011 0)
(0.169779 0.00304497 0)
(0.167205 0.00284901 0)
(0.164658 0.00266987 0)
(0.162144 0.00250565 0)
(0.159668 0.0023547 0)
(0.157234 0.00221565 0)
(0.154846 0.00208728 0)
(0.152506 0.00196856 0)
(0.150216 0.00185857 0)
(0.147977 0.00175652 0)
(0.145791 0.00166169 0)
(0.143657 0.00157345 0)
(0.141577 0.00149123 0)
(0.139548 0.00141454 0)
(0.137572 0.00134291 0)
(0.135648 0.00127594 0)
(0.133775 0.00121325 0)
(0.131951 0.00115451 0)
(0.130176 0.00109942 0)
(0.128449 0.00104769 0)
(0.126769 0.000999066 0)
(0.125134 0.000953322 0)
(0.123544 0.000910244 0)
(0.121996 0.000869636 0)
(0.120491 0.000831319 0)
(0.119026 0.000795127 0)
(0.117601 0.00076091 0)
(0.116214 0.000728525 0)
(0.114864 0.000697846 0)
(0.11355 0.00066875 0)
(0.112271 0.000641129 0)
(0.111027 0.000614881 0)
(0.109815 0.000589909 0)
(0.108636 0.000566127 0)
(0.107488 0.000543455 0)
(0.10637 0.000521817 0)
(0.105283 0.000501144 0)
(0.104224 0.000481374 0)
(0.103193 0.000462447 0)
(0.10219 0.000444312 0)
(0.101213 0.000426919 0)
(0.100264 0.000410226 0)
(0.0993394 0.000394193 0)
(0.0984405 0.000378788 0)
(0.0975663 0.00036398 0)
(0.0967164 0.000349747 0)
(0.0958903 0.00033607 0)
(0.0950875 0.000322938 0)
(0.0943075 0.000310345 0)
(0.0935499 0.000298297 0)
(0.0928139 0.000286812 0)
(0.0920992 0.000275929 0)
(0.0914048 0.000265733 0)
(0.0907298 0.000256412 0)
(0.0900727 0.000248578 0)
(0.0894283 0.000243155 0)
(0.0888171 0.00025831 0)
(0.0879604 0.000335187 0)
(0.194639 0.00976095 0)
(0.196567 0.0107157 0)
(0.198311 0.0108433 0)
(0.199553 0.0104773 0)
(0.200261 0.00982 0)
(0.200467 0.0090198 0)
(0.200223 0.00820155 0)
(0.199611 0.00744589 0)
(0.198721 0.00678598 0)
(0.197625 0.00622348 0)
(0.196374 0.00574558 0)
(0.195002 0.00533582 0)
(0.193532 0.0049793 0)
(0.19198 0.0046643 0)
(0.190356 0.00438223 0)
(0.188672 0.00412694 0)
(0.186937 0.00389397 0)
(0.185159 0.00368004 0)
(0.183346 0.00348261 0)
(0.181505 0.00329967 0)
(0.179643 0.00312961 0)
(0.177766 0.00297106 0)
(0.175881 0.00282291 0)
(0.173991 0.00268419 0)
(0.172102 0.00255407 0)
(0.170217 0.00243184 0)
(0.168341 0.00231688 0)
(0.166477 0.00220863 0)
(0.164627 0.00210659 0)
(0.162795 0.00201033 0)
(0.160982 0.00191945 0)
(0.15919 0.00183359 0)
(0.157422 0.0017524 0)
(0.155678 0.0016756 0)
(0.153959 0.0016029 0)
(0.152267 0.00153404 0)
(0.150603 0.00146878 0)
(0.148966 0.0014069 0)
(0.147357 0.00134818 0)
(0.145777 0.00129244 0)
(0.144226 0.00123948 0)
(0.142703 0.00118915 0)
(0.14121 0.00114127 0)
(0.139746 0.0010957 0)
(0.13831 0.00105229 0)
(0.136902 0.00101092 0)
(0.135524 0.000971461 0)
(0.134173 0.00093379 0)
(0.13285 0.000897801 0)
(0.131555 0.000863389 0)
(0.130287 0.000830458 0)
(0.129046 0.000798916 0)
(0.127832 0.000768678 0)
(0.126644 0.000739665 0)
(0.125482 0.000711804 0)
(0.124346 0.000685025 0)
(0.123236 0.000659266 0)
(0.122151 0.000634469 0)
(0.121091 0.000610581 0)
(0.120056 0.000587555 0)
(0.119045 0.00056535 0)
(0.118059 0.000543932 0)
(0.117097 0.000523269 0)
(0.116159 0.000503342 0)
(0.115244 0.000484136 0)
(0.114353 0.000465646 0)
(0.113485 0.000447882 0)
(0.112639 0.000430868 0)
(0.111816 0.00041466 0)
(0.111014 0.000399373 0)
(0.110234 0.000385268 0)
(0.109472 0.000373103 0)
(0.108727 0.000364795 0)
(0.108014 0.000378733 0)
(0.107098 0.000442606 0)
(0.195134 0.00919886 0)
(0.196825 0.0101232 0)
(0.198481 0.0103357 0)
(0.199818 0.010095 0)
(0.200782 0.00957971 0)
(0.201376 0.00891809 0)
(0.201629 0.00821867 0)
(0.201593 0.00755656 0)
(0.20133 0.00696732 0)
(0.200897 0.00645791 0)
(0.200333 0.0060208 0)
(0.199665 0.00564358 0)
(0.198907 0.00531402 0)
(0.19807 0.00502198 0)
(0.197162 0.00475973 0)
(0.196189 0.00452157 0)
(0.195155 0.0043033 0)
(0.194065 0.0041018 0)
(0.192924 0.00391468 0)
(0.191736 0.00374006 0)
(0.190506 0.00357646 0)
(0.189238 0.00342266 0)
(0.187936 0.00327766 0)
(0.186604 0.00314061 0)
(0.185246 0.00301083 0)
(0.183866 0.00288771 0)
(0.182466 0.00277076 0)
(0.181052 0.00265952 0)
(0.179624 0.00255361 0)
(0.178188 0.00245269 0)
(0.176744 0.00235645 0)
(0.175296 0.00226463 0)
(0.173846 0.00217698 0)
(0.172397 0.00209326 0)
(0.17095 0.00201327 0)
(0.169507 0.00193681 0)
(0.16807 0.00186371 0)
(0.166641 0.00179378 0)
(0.16522 0.00172687 0)
(0.16381 0.00166282 0)
(0.162411 0.00160149 0)
(0.161024 0.00154275 0)
(0.15965 0.00148645 0)
(0.158291 0.00143248 0)
(0.156947 0.00138071 0)
(0.155618 0.00133104 0)
(0.154305 0.00128334 0)
(0.153009 0.00123752 0)
(0.15173 0.00119347 0)
(0.150469 0.00115111 0)
(0.149225 0.00111033 0)
(0.148 0.00107106 0)
(0.146794 0.00103321 0)
(0.145606 0.000996704 0)
(0.144438 0.000961469 0)
(0.143289 0.000927438 0)
(0.14216 0.000894548 0)
(0.14105 0.000862739 0)
(0.139961 0.000831959 0)
(0.138891 0.000802159 0)
(0.137842 0.000773299 0)
(0.136813 0.000745341 0)
(0.135805 0.000718258 0)
(0.134818 0.00069203 0)
(0.133851 0.000666644 0)
(0.132905 0.000642102 0)
(0.13198 0.000618419 0)
(0.131076 0.000595631 0)
(0.130192 0.000573814 0)
(0.129329 0.000553115 0)
(0.128485 0.000533862 0)
(0.12766 0.00051695 0)
(0.126852 0.00050498 0)
(0.126078 0.000514462 0)
(0.125133 0.000558075 0)
(0.195579 0.00870188 0)
(0.197039 0.00957386 0)
(0.198533 0.00983954 0)
(0.199815 0.00969072 0)
(0.200816 0.00928321 0)
(0.201532 0.00872999 0)
(0.201981 0.00812587 0)
(0.202201 0.00753988 0)
(0.20224 0.00700848 0)
(0.202144 0.00654261 0)
(0.201946 0.006139 0)
(0.201668 0.00578876 0)
(0.201323 0.00548204 0)
(0.200918 0.00521017 0)
(0.200459 0.00496619 0)
(0.199948 0.0047448 0)
(0.199387 0.00454198 0)
(0.198779 0.00435471 0)
(0.198125 0.00418062 0)
(0.197427 0.00401788 0)
(0.196688 0.00386501 0)
(0.195909 0.00372081 0)
(0.195093 0.00358432 0)
(0.19424 0.00345473 0)
(0.193354 0.00333137 0)
(0.192437 0.00321369 0)
(0.191491 0.00310122 0)
(0.190517 0.00299356 0)
(0.189518 0.00289038 0)
(0.188497 0.00279138 0)
(0.187455 0.00269631 0)
(0.186394 0.00260494 0)
(0.185316 0.00251707 0)
(0.184224 0.00243254 0)
(0.183118 0.00235117 0)
(0.182001 0.00227281 0)
(0.180875 0.00219734 0)
(0.179741 0.00212461 0)
(0.1786 0.00205452 0)
(0.177455 0.00198693 0)
(0.176306 0.00192176 0)
(0.175155 0.00185889 0)
(0.174003 0.00179822 0)
(0.172852 0.00173966 0)
(0.171702 0.00168311 0)
(0.170555 0.00162848 0)
(0.169411 0.00157569 0)
(0.168272 0.00152465 0)
(0.167139 0.00147528 0)
(0.166011 0.00142751 0)
(0.164891 0.00138125 0)
(0.163779 0.00133644 0)
(0.162676 0.001293 0)
(0.161582 0.00125086 0)
(0.160498 0.00120998 0)
(0.159425 0.00117027 0)
(0.158364 0.0011317 0)
(0.157314 0.0010942 0)
(0.156276 0.00105773 0)
(0.155252 0.00102225 0)
(0.154242 0.000987724 0)
(0.153245 0.000954118 0)
(0.152263 0.000921413 0)
(0.151296 0.000889593 0)
(0.150344 0.000858657 0)
(0.149408 0.000828613 0)
(0.148488 0.000799488 0)
(0.147584 0.000771334 0)
(0.146697 0.000744248 0)
(0.145826 0.000718409 0)
(0.144972 0.000694203 0)
(0.144133 0.000672617 0)
(0.143309 0.000656492 0)
(0.14252 0.0006591 0)
(0.141585 0.000678306 0)
(0.195985 0.00826414 0)
(0.197243 0.00907392 0)
(0.198571 0.00937224 0)
(0.199753 0.00929505 0)
(0.200716 0.00897467 0)
(0.201449 0.00851086 0)
(0.201962 0.00798669 0)
(0.202284 0.00746503 0)
(0.202456 0.00698223 0)
(0.202517 0.00655224 0)
(0.202495 0.00617544 0)
(0.202412 0.00584605 0)
(0.20228 0.00555651 0)
(0.202106 0.0052996 0)
(0.201894 0.00506923 0)
(0.201647 0.00486055 0)
(0.201365 0.00466979 0)
(0.201051 0.00449403 0)
(0.200703 0.00433095 0)
(0.200324 0.00417872 0)
(0.199913 0.00403587 0)
(0.19947 0.00390118 0)
(0.198997 0.00377367 0)
(0.198494 0.00365251 0)
(0.197961 0.00353704 0)
(0.1974 0.00342668 0)
(0.196811 0.00332096 0)
(0.196195 0.00321948 0)
(0.195553 0.00312191 0)
(0.194886 0.00302796 0)
(0.194195 0.00293739 0)
(0.193482 0.00284997 0)
(0.192747 0.00276553 0)
(0.191991 0.00268391 0)
(0.191216 0.00260495 0)
(0.190423 0.00252853 0)
(0.189612 0.00245454 0)
(0.188786 0.00238285 0)
(0.187945 0.00231338 0)
(0.187091 0.00224603 0)
(0.186224 0.00218072 0)
(0.185346 0.00211735 0)
(0.184458 0.00205586 0)
(0.183561 0.00199616 0)
(0.182656 0.00193818 0)
(0.181744 0.00188185 0)
(0.180826 0.0018271 0)
(0.179903 0.00177387 0)
(0.178976 0.00172209 0)
(0.178046 0.00167169 0)
(0.177114 0.00162262 0)
(0.176181 0.00157481 0)
(0.175248 0.00152822 0)
(0.174315 0.00148278 0)
(0.173383 0.00143844 0)
(0.172454 0.00139515 0)
(0.171528 0.00135287 0)
(0.170605 0.00131156 0)
(0.169687 0.00127118 0)
(0.168775 0.00123169 0)
(0.167869 0.00119306 0)
(0.166969 0.00115529 0)
(0.166077 0.00111835 0)
(0.165193 0.00108224 0)
(0.164318 0.00104697 0)
(0.163452 0.00101255 0)
(0.162596 0.000979036 0)
(0.16175 0.00094649 0)
(0.160915 0.000915031 0)
(0.160092 0.000884868 0)
(0.159279 0.000856425 0)
(0.158478 0.000830711 0)
(0.157689 0.000810378 0)
(0.156931 0.0008048 0)
(0.156048 0.000798797 0)
(0.196353 0.00787649 0)
(0.197442 0.00862082 0)
(0.198615 0.00893718 0)
(0.199692 0.0089173 0)
(0.200595 0.00867014 0)
(0.201306 0.00828305 0)
(0.201831 0.0078288 0)
(0.202191 0.00736417 0)
(0.202419 0.00692459 0)
(0.20255 0.00652613 0)
(0.202609 0.00617219 0)
(0.202617 0.00585977 0)
(0.202587 0.00558344 0)
(0.202525 0.00533743 0)
(0.202436 0.00511659 0)
(0.202324 0.00491663 0)
(0.20219 0.0047341 0)
(0.202035 0.00456624 0)
(0.201859 0.00441085 0)
(0.201662 0.00426613 0)
(0.201445 0.00413063 0)
(0.201207 0.00400315 0)
(0.200948 0.00388268 0)
(0.200668 0.0037684 0)
(0.200367 0.00365962 0)
(0.200045 0.00355574 0)
(0.199702 0.00345628 0)
(0.199338 0.00336083 0)
(0.198954 0.00326902 0)
(0.198549 0.00318056 0)
(0.198123 0.00309519 0)
(0.197678 0.00301268 0)
(0.197212 0.00293285 0)
(0.196728 0.00285552 0)
(0.196224 0.00278055 0)
(0.195703 0.0027078 0)
(0.195163 0.00263716 0)
(0.194606 0.00256851 0)
(0.194033 0.00250177 0)
(0.193443 0.00243684 0)
(0.192838 0.00237364 0)
(0.192218 0.0023121 0)
(0.191585 0.00225213 0)
(0.190938 0.00219368 0)
(0.190278 0.00213667 0)
(0.189606 0.00208104 0)
(0.188924 0.00202673 0)
(0.18823 0.00197369 0)
(0.187528 0.00192186 0)
(0.186816 0.00187117 0)
(0.186096 0.00182159 0)
(0.185369 0.00177305 0)
(0.184635 0.00172551 0)
(0.183896 0.00167893 0)
(0.183151 0.00163325 0)
(0.182402 0.00158844 0)
(0.18165 0.00154446 0)
(0.180895 0.00150128 0)
(0.180138 0.00145886 0)
(0.17938 0.00141718 0)
(0.178621 0.00137623 0)
(0.177863 0.00133598 0)
(0.177105 0.00129643 0)
(0.17635 0.0012576 0)
(0.175597 0.00121949 0)
(0.174846 0.00118215 0)
(0.1741 0.00114562 0)
(0.173358 0.00111 0)
(0.172621 0.00107541 0)
(0.171889 0.0010421 0)
(0.171163 0.00101049 0)
(0.170444 0.000981539 0)
(0.169732 0.000957394 0)
(0.169047 0.000943465 0)
(0.168251 0.000914561 0)
(0.196688 0.00753092 0)
(0.197635 0.00821064 0)
(0.198671 0.00853421 0)
(0.199646 0.00856003 0)
(0.200484 0.00837514 0)
(0.201161 0.00805504 0)
(0.201677 0.0076633 0)
(0.202049 0.00725079 0)
(0.202302 0.00685135 0)
(0.202466 0.00648237 0)
(0.202564 0.00614963 0)
(0.202615 0.00585249 0)
(0.202631 0.00558747 0)
(0.202621 0.00535022 0)
(0.202591 0.00513652 0)
(0.202543 0.00494269 0)
(0.20248 0.00476568 0)
(0.202404 0.00460295 0)
(0.202314 0.00445247 0)
(0.202212 0.00431252 0)
(0.202098 0.00418172 0)
(0.201971 0.00405889 0)
(0.201831 0.00394306 0)
(0.201679 0.00383341 0)
(0.201514 0.00372925 0)
(0.201335 0.00362997 0)
(0.201144 0.0035351 0)
(0.200938 0.00344419 0)
(0.200719 0.00335688 0)
(0.200485 0.00327286 0)
(0.200237 0.00319184 0)
(0.199975 0.00311361 0)
(0.199697 0.00303794 0)
(0.199406 0.00296466 0)
(0.199099 0.00289361 0)
(0.198778 0.00282464 0)
(0.198442 0.00275762 0)
(0.198091 0.00269245 0)
(0.197726 0.00262901 0)
(0.197347 0.00256721 0)
(0.196953 0.00250696 0)
(0.196546 0.00244819 0)
(0.196125 0.0023908 0)
(0.19569 0.00233474 0)
(0.195243 0.00227993 0)
(0.194783 0.00222631 0)
(0.19431 0.00217382 0)
(0.193825 0.00212239 0)
(0.193329 0.00207197 0)
(0.192822 0.00202251 0)
(0.192304 0.00197396 0)
(0.191777 0.00192626 0)
(0.191239 0.00187938 0)
(0.190693 0.00183325 0)
(0.190137 0.00178785 0)
(0.189574 0.00174314 0)
(0.189004 0.00169907 0)
(0.188427 0.00165563 0)
(0.187843 0.00161277 0)
(0.187254 0.00157049 0)
(0.18666 0.00152877 0)
(0.186062 0.00148759 0)
(0.18546 0.00144697 0)
(0.184855 0.00140692 0)
(0.184247 0.00136745 0)
(0.183638 0.00132862 0)
(0.183027 0.00129048 0)
(0.182416 0.00125315 0)
(0.181804 0.00121676 0)
(0.181193 0.00118157 0)
(0.180582 0.00114799 0)
(0.179973 0.00111685 0)
(0.179369 0.00108962 0)
(0.178785 0.00106816 0)
(0.1781 0.00102105 0)
(0.196992 0.00722083 0)
(0.19782 0.00783917 0)
(0.198735 0.00816194 0)
(0.199615 0.00822353 0)
(0.200389 0.00809156 0)
(0.201028 0.00783018 0)
(0.201528 0.00749473 0)
(0.2019 0.00713044 0)
(0.202165 0.00676905 0)
(0.202346 0.00642856 0)
(0.202465 0.00611653 0)
(0.202539 0.00583432 0)
(0.202579 0.00558013 0)
(0.202595 0.00535091 0)
(0.202591 0.00514338 0)
(0.202574 0.00495448 0)
(0.202544 0.00478158 0)
(0.202504 0.00462242 0)
(0.202455 0.00447514 0)
(0.202399 0.00433817 0)
(0.202334 0.00421021 0)
(0.202263 0.00409014 0)
(0.202184 0.00397705 0)
(0.202098 0.00387013 0)
(0.202004 0.00376871 0)
(0.201904 0.00367223 0)
(0.201796 0.00358017 0)
(0.20168 0.00349213 0)
(0.201555 0.00340772 0)
(0.201423 0.00332664 0)
(0.201282 0.0032486 0)
(0.201132 0.00317335 0)
(0.200972 0.00310069 0)
(0.200803 0.00303042 0)
(0.200625 0.00296237 0)
(0.200436 0.00289639 0)
(0.200238 0.00283234 0)
(0.200028 0.0027701 0)
(0.199809 0.00270955 0)
(0.199579 0.00265058 0)
(0.199338 0.00259311 0)
(0.199086 0.00253703 0)
(0.198823 0.00248227 0)
(0.19855 0.00242874 0)
(0.198265 0.00237637 0)
(0.19797 0.00232509 0)
(0.197664 0.00227483 0)
(0.197347 0.00222552 0)
(0.19702 0.00217711 0)
(0.196682 0.00212954 0)
(0.196334 0.00208274 0)
(0.195976 0.00203667 0)
(0.195608 0.00199128 0)
(0.19523 0.00194652 0)
(0.194843 0.00190234 0)
(0.194447 0.00185871 0)
(0.194042 0.00181558 0)
(0.19363 0.00177294 0)
(0.193209 0.00173074 0)
(0.19278 0.00168897 0)
(0.192344 0.00164761 0)
(0.191902 0.00160667 0)
(0.191453 0.00156614 0)
(0.190999 0.00152604 0)
(0.190538 0.0014864 0)
(0.190073 0.00144727 0)
(0.189604 0.00140872 0)
(0.18913 0.00137086 0)
(0.188652 0.00133384 0)
(0.188171 0.00129792 0)
(0.187688 0.00126347 0)
(0.187202 0.00123115 0)
(0.186718 0.0012017 0)
(0.186248 0.0011742 0)
(0.185686 0.00111489 0)
(0.19727 0.0069408 0)
(0.197996 0.0075023 0)
(0.198805 0.00781854 0)
(0.199598 0.00790745 0)
(0.200309 0.00782011 0)
(0.20091 0.00761013 0)
(0.20139 0.00732533 0)
(0.201758 0.00700566 0)
(0.202028 0.00668049 0)
(0.20222 0.00636781 0)
(0.202352 0.00607645 0)
(0.20244 0.00580936 0)
(0.202494 0.00556618 0)
(0.202524 0.00534506 0)
(0.202536 0.00514358 0)
(0.202533 0.00495931 0)
(0.202519 0.00479003 0)
(0.202497 0.00463379 0)
(0.202467 0.00448894 0)
(0.202431 0.00435404 0)
(0.20239 0.00422791 0)
(0.202344 0.00410952 0)
(0.202294 0.00399799 0)
(0.20224 0.00389257 0)
(0.202182 0.00379264 0)
(0.20212 0.00369764 0)
(0.202054 0.00360709 0)
(0.201984 0.00352058 0)
(0.20191 0.00343776 0)
(0.201832 0.00335831 0)
(0.201749 0.00328195 0)
(0.201661 0.00320845 0)
(0.201569 0.00313758 0)
(0.201471 0.00306916 0)
(0.201368 0.003003 0)
(0.201259 0.00293896 0)
(0.201144 0.00287689 0)
(0.201022 0.00281666 0)
(0.200895 0.00275815 0)
(0.20076 0.00270125 0)
(0.200619 0.00264584 0)
(0.20047 0.00259185 0)
(0.200314 0.00253916 0)
(0.200151 0.00248771 0)
(0.199979 0.0024374 0)
(0.1998 0.00238815 0)
(0.199613 0.0023399 0)
(0.199418 0.00229256 0)
(0.199215 0.00224608 0)
(0.199003 0.00220038 0)
(0.198783 0.00215541 0)
(0.198555 0.00211111 0)
(0.198319 0.00206741 0)
(0.198074 0.00202428 0)
(0.197821 0.00198165 0)
(0.19756 0.00193948 0)
(0.197291 0.00189774 0)
(0.197014 0.00185638 0)
(0.196729 0.00181538 0)
(0.196437 0.00177471 0)
(0.196137 0.00173437 0)
(0.19583 0.00169433 0)
(0.195515 0.0016546 0)
(0.195194 0.00161521 0)
(0.194867 0.00157617 0)
(0.194533 0.00153755 0)
(0.194193 0.00149942 0)
(0.193847 0.00146188 0)
(0.193496 0.0014251 0)
(0.193139 0.00138931 0)
(0.192778 0.00135485 0)
(0.192412 0.00132217 0)
(0.192045 0.00129136 0)
(0.191688 0.00125962 0)
(0.191246 0.00119433 0)
(0.197522 0.0066865 0)
(0.198163 0.00719619 0)
(0.198879 0.00750205 0)
(0.199592 0.00761118 0)
(0.200245 0.00756114 0)
(0.200806 0.00739593 0)
(0.201265 0.00715652 0)
(0.201625 0.006878 0)
(0.201896 0.00658717 0)
(0.202095 0.00630159 0)
(0.202236 0.00603089 0)
(0.202334 0.00577922 0)
(0.202399 0.00554747 0)
(0.202439 0.00533483 0)
(0.20246 0.00513968 0)
(0.202467 0.00496018 0)
(0.202462 0.00479455 0)
(0.202449 0.00464113 0)
(0.202429 0.00449848 0)
(0.202404 0.00436535 0)
(0.202373 0.00424064 0)
(0.20234 0.00412342 0)
(0.202303 0.00401288 0)
(0.202263 0.00390835 0)
(0.202222 0.0038092 0)
(0.202178 0.00371493 0)
(0.202132 0.00362509 0)
(0.202084 0.00353929 0)
(0.202034 0.00345718 0)
(0.201983 0.00337846 0)
(0.201929 0.00330288 0)
(0.201874 0.00323019 0)
(0.201816 0.00316018 0)
(0.201756 0.00309267 0)
(0.201693 0.00302748 0)
(0.201627 0.00296446 0)
(0.201559 0.00290346 0)
(0.201487 0.00284436 0)
(0.201413 0.00278702 0)
(0.201334 0.00273135 0)
(0.201252 0.00267722 0)
(0.201165 0.00262454 0)
(0.201075 0.00257321 0)
(0.20098 0.00252315 0)
(0.20088 0.00247426 0)
(0.200776 0.00242646 0)
(0.200666 0.00237967 0)
(0.200551 0.00233381 0)
(0.200431 0.00228882 0)
(0.200305 0.00224462 0)
(0.200173 0.00220114 0)
(0.200036 0.00215832 0)
(0.199892 0.0021161 0)
(0.199742 0.00207442 0)
(0.199586 0.00203323 0)
(0.199424 0.00199247 0)
(0.199256 0.0019521 0)
(0.199081 0.00191208 0)
(0.198899 0.00187237 0)
(0.198712 0.00183295 0)
(0.198518 0.00179381 0)
(0.198317 0.00175492 0)
(0.19811 0.00171629 0)
(0.197897 0.00167793 0)
(0.197677 0.00163988 0)
(0.197451 0.00160219 0)
(0.197219 0.00156492 0)
(0.196981 0.0015282 0)
(0.196737 0.00149217 0)
(0.196487 0.00145705 0)
(0.196231 0.00142312 0)
(0.195971 0.00139064 0)
(0.195708 0.0013592 0)
(0.195449 0.00132499 0)
(0.195117 0.00125914 0)
(0.197752 0.0064544 0)
(0.19832 0.00691739 0)
(0.198955 0.00721048 0)
(0.199596 0.00733399 0)
(0.200193 0.00731477 0)
(0.200716 0.00718833 0)
(0.201152 0.00698942 0)
(0.201501 0.00674862 0)
(0.201771 0.00649016 0)
(0.201974 0.00623082 0)
(0.202122 0.00598062 0)
(0.202228 0.00574463 0)
(0.202301 0.00552474 0)
(0.202349 0.00532102 0)
(0.202378 0.00513261 0)
(0.202391 0.00495822 0)
(0.202394 0.00479647 0)
(0.202387 0.00464602 0)
(0.202373 0.00450566 0)
(0.202353 0.00437428 0)
(0.202329 0.00425092 0)
(0.202301 0.00413474 0)
(0.202271 0.004025 0)
(0.202239 0.00392108 0)
(0.202205 0.00382242 0)
(0.202169 0.00372854 0)
(0.202133 0.00363901 0)
(0.202095 0.00355348 0)
(0.202057 0.00347161 0)
(0.202018 0.00339312 0)
(0.201978 0.00331777 0)
(0.201938 0.00324533 0)
(0.201897 0.00317559 0)
(0.201855 0.00310837 0)
(0.201813 0.00304352 0)
(0.201769 0.00298087 0)
(0.201725 0.00292029 0)
(0.201679 0.00286164 0)
(0.201632 0.00280482 0)
(0.201584 0.0027497 0)
(0.201534 0.00269618 0)
(0.201482 0.00264416 0)
(0.201428 0.00259354 0)
(0.201372 0.00254423 0)
(0.201314 0.00249613 0)
(0.201253 0.00244917 0)
(0.201189 0.00240326 0)
(0.201123 0.00235833 0)
(0.201053 0.00231429 0)
(0.200981 0.00227107 0)
(0.200904 0.00222861 0)
(0.200825 0.00218683 0)
(0.200741 0.00214567 0)
(0.200654 0.00210506 0)
(0.200562 0.00206496 0)
(0.200466 0.0020253 0)
(0.200366 0.00198604 0)
(0.200261 0.00194713 0)
(0.200152 0.00190853 0)
(0.200038 0.00187022 0)
(0.199919 0.00183217 0)
(0.199795 0.00179437 0)
(0.199666 0.00175681 0)
(0.199532 0.00171952 0)
(0.199393 0.00168251 0)
(0.199249 0.00164584 0)
(0.199099 0.00160958 0)
(0.198943 0.00157384 0)
(0.198783 0.00153876 0)
(0.198616 0.00150454 0)
(0.198445 0.00147141 0)
(0.198269 0.00143945 0)
(0.198089 0.00140795 0)
(0.19791 0.00137278 0)
(0.197668 0.00131042 0)
(0.197963 0.00624166 0)
(0.198467 0.00666285 0)
(0.199031 0.00694186 0)
(0.199607 0.00707504 0)
(0.200152 0.00708101 0)
(0.200638 0.00698792 0)
(0.20105 0.00682494 0)
(0.201387 0.00661854 0)
(0.201652 0.00639039 0)
(0.201857 0.00615626 0)
(0.20201 0.00592625 0)
(0.202123 0.00570605 0)
(0.202203 0.00549835 0)
(0.202257 0.00530397 0)
(0.202293 0.00512271 0)
(0.202312 0.0049538 0)
(0.20232 0.00479625 0)
(0.202318 0.00464904 0)
(0.202308 0.00451114 0)
(0.202293 0.00438165 0)
(0.202273 0.00425973 0)
(0.20225 0.00414463 0)
(0.202224 0.00403569 0)
(0.202195 0.00393234 0)
(0.202166 0.00383408 0)
(0.202135 0.00374047 0)
(0.202103 0.0036511 0)
(0.20207 0.00356565 0)
(0.202037 0.00348381 0)
(0.202004 0.00340532 0)
(0.201971 0.00332993 0)
(0.201938 0.00325744 0)
(0.201905 0.00318765 0)
(0.201872 0.00312039 0)
(0.201839 0.0030555 0)
(0.201806 0.00299284 0)
(0.201773 0.00293228 0)
(0.20174 0.00287368 0)
(0.201706 0.00281693 0)
(0.201673 0.00276193 0)
(0.201639 0.00270856 0)
(0.201605 0.00265673 0)
(0.20157 0.00260634 0)
(0.201535 0.0025573 0)
(0.201498 0.00250952 0)
(0.201461 0.00246292 0)
(0.201423 0.00241742 0)
(0.201384 0.00237292 0)
(0.201343 0.00232937 0)
(0.2013 0.00228667 0)
(0.201256 0.00224477 0)
(0.20121 0.00220359 0)
(0.201162 0.00216306 0)
(0.201112 0.00212313 0)
(0.20106 0.00208372 0)
(0.201005 0.00204479 0)
(0.200948 0.00200628 0)
(0.200887 0.00196815 0)
(0.200824 0.00193036 0)
(0.200758 0.00189288 0)
(0.200688 0.00185568 0)
(0.200615 0.00181874 0)
(0.200539 0.00178206 0)
(0.200458 0.00174566 0)
(0.200374 0.00170957 0)
(0.200286 0.00167382 0)
(0.200194 0.00163849 0)
(0.200097 0.00160369 0)
(0.199996 0.00156956 0)
(0.19989 0.00153626 0)
(0.19978 0.00150396 0)
(0.199665 0.00147265 0)
(0.199547 0.00144144 0)
(0.199428 0.00140648 0)
(0.199255 0.00135008 0)
(0.198156 0.00604598 0)