/*--------------------------------*- C++ -*----------------------------------*\
| =========                 |                                                 |
| \\      /  F ield         | OpenFOAM: The Open Source CFD Toolbox           |
|  \\    /   O peration     | Version:  2.3.0                                 |
|   \\  /    A nd           | Web:      www.OpenFOAM.org                      |
|    \\/     M anipulation  |                                                 |
\*---------------------------------------------------------------------------*/
FoamFile
{
    version     2.0;
    format      ascii;
    class       surfaceScalarField;
    location    "0.9";
    object      phi_0;
}
// * * * * * * * * * * * * * * * * * * * * * * * * * * * * * * * * * * * * * //

dimensions      [0 3 -1 0 0 0 0];

internalField   nonuniform List<scalar> 
3859
(
2.80018e-08
2.91597e-09
-3.09177e-08
2.51066e-08
2.89515e-09
2.2391e-08
2.71558e-09
1.98899e-08
2.50117e-09
1.76206e-08
2.26929e-09
1.55948e-08
2.02579e-09
1.38153e-08
1.77945e-09
1.22767e-08
1.5386e-09
1.09664e-08
1.31032e-09
9.86602e-09
1.1004e-09
8.95295e-09
9.13078e-10
8.20214e-09
7.50802e-10
7.588e-09
6.1414e-10
7.08596e-09
5.02044e-10
6.67371e-09
4.12249e-10
6.33197e-09
3.41741e-10
6.04475e-09
2.87218e-10
5.7993e-09
2.45449e-10
5.58578e-09
2.13522e-10
5.39681e-09
1.88977e-10
5.22697e-09
1.69836e-10
5.07238e-09
1.54587e-10
4.93027e-09
1.42112e-10
4.79865e-09
1.31618e-10
4.6761e-09
1.22556e-10
4.56154e-09
1.14559e-10
4.45415e-09
1.07384e-10
4.35328e-09
1.00873e-10
4.25836e-09
9.49233e-11
4.16889e-09
8.94632e-11
4.08445e-09
8.44418e-11
4.00463e-09
7.98196e-11
3.92907e-09
7.55632e-11
3.85743e-09
7.16426e-11
3.7894e-09
6.80305e-11
3.7247e-09
6.47008e-11
3.66307e-09
6.16292e-11
3.60427e-09
5.8793e-11
3.5481e-09
5.6171e-11
3.49436e-09
5.37436e-11
3.44287e-09
5.1493e-11
3.39346e-09
4.94028e-11
3.346e-09
4.74584e-11
3.30036e-09
4.56466e-11
3.2564e-09
4.39553e-11
3.21403e-09
4.2374e-11
3.17314e-09
4.08931e-11
3.13363e-09
3.9504e-11
3.09543e-09
3.8199e-11
3.05846e-09
3.69712e-11
3.02265e-09
3.58144e-11
2.98792e-09
3.4723e-11
2.95423e-09
3.36919e-11
2.92152e-09
3.27165e-11
2.88972e-09
3.17927e-11
2.85881e-09
3.09167e-11
2.82872e-09
3.0085e-11
2.79943e-09
2.92944e-11
2.77088e-09
2.85421e-11
2.74306e-09
2.78255e-11
2.71592e-09
2.7142e-11
2.68943e-09
2.64895e-11
2.66356e-09
2.58659e-11
2.63829e-09
2.52692e-11
2.61359e-09
2.46978e-11
2.58944e-09
2.41501e-11
2.56582e-09
2.36245e-11
2.5427e-09
2.31198e-11
2.52007e-09
2.26346e-11
2.4979e-09
2.21678e-11
2.47618e-09
2.17183e-11
2.45489e-09
2.12853e-11
2.43403e-09
2.08678e-11
2.41356e-09
2.04649e-11
2.39349e-09
2.00761e-11
2.37378e-09
1.97006e-11
2.35445e-09
1.93377e-11
2.33546e-09
1.89871e-11
2.31681e-09
1.86483e-11
2.29849e-09
1.83208e-11
2.28049e-09
1.80044e-11
2.26279e-09
1.76987e-11
2.24538e-09
1.74036e-11
2.22827e-09
1.71191e-11
2.21142e-09
1.6845e-11
2.19484e-09
1.65814e-11
2.17851e-09
1.63286e-11
2.16242e-09
1.60868e-11
2.14657e-09
1.58565e-11
2.13093e-09
1.56385e-11
2.11549e-09
1.54338e-11
2.10025e-09
1.52443e-11
2.08518e-09
1.50728e-11
2.07025e-09
1.49246e-11
2.05544e-09
1.48106e-11
2.04069e-09
1.47567e-11
2.02585e-09
1.48311e-11
2.01072e-09
1.51367e-11
1.99377e-09
1.69469e-11
4.64386e-11
3.59109e-08
3.19939e-09
-3.61943e-08
3.53025e-08
3.5035e-09
3.44502e-08
3.56787e-09
3.3432e-08
3.51936e-09
3.23049e-08
3.39639e-09
3.11162e-08
3.21453e-09
2.99044e-08
2.99121e-09
2.86995e-08
2.74355e-09
2.75235e-08
2.48627e-09
2.63923e-08
2.23159e-09
2.53163e-08
1.98917e-09
2.43012e-08
1.76585e-09
2.33497e-08
1.56566e-09
2.24617e-08
1.39006e-09
2.16354e-08
1.23855e-09
2.08678e-08
1.10927e-09
2.01555e-08
9.99598e-10
1.94943e-08
9.06623e-10
1.88803e-08
8.27517e-10
1.83095e-08
7.59731e-10
1.77783e-08
7.01094e-10
1.7283e-08
6.49838e-10
1.68206e-08
6.04561e-10
1.6388e-08
5.64181e-10
1.59827e-08
5.27872e-10
1.56023e-08
4.95006e-10
1.52445e-08
4.65103e-10
1.49076e-08
4.3779e-10
1.45898e-08
4.12771e-10
1.42894e-08
3.89805e-10
1.40052e-08
3.68689e-10
1.37358e-08
3.4925e-10
1.348e-08
3.31332e-10
1.32368e-08
3.14799e-10
1.30053e-08
2.99526e-10
1.27846e-08
2.85401e-10
1.25739e-08
2.72322e-10
1.23725e-08
2.60194e-10
1.21798e-08
2.48933e-10
1.19951e-08
2.38463e-10
1.18178e-08
2.28714e-10
1.16476e-08
2.19623e-10
1.14839e-08
2.11133e-10
1.13264e-08
2.03193e-10
1.11746e-08
1.95757e-10
1.10282e-08
1.88784e-10
1.08868e-08
1.82235e-10
1.07503e-08
1.76077e-10
1.06182e-08
1.70279e-10
1.04903e-08
1.64813e-10
1.03665e-08
1.59654e-10
1.02464e-08
1.54779e-10
1.013e-08
1.50168e-10
1.00169e-08
1.45801e-10
9.90702e-09
1.4166e-10
9.80021e-09
1.3773e-10
9.69629e-09
1.33997e-10
9.59514e-09
1.30446e-10
9.49662e-09
1.27065e-10
9.4006e-09
1.23843e-10
9.30698e-09
1.20769e-10
9.21563e-09
1.17834e-10
9.12647e-09
1.15028e-10
9.03939e-09
1.12344e-10
8.95432e-09
1.09773e-10
8.87116e-09
1.07309e-10
8.78984e-09
1.04944e-10
8.71029e-09
1.02673e-10
8.63243e-09
1.00491e-10
8.55621e-09
9.83913e-11
8.48156e-09
9.63701e-11
8.40842e-09
9.44226e-11
8.33674e-09
9.25449e-11
8.26647e-09
9.07333e-11
8.19756e-09
8.89842e-11
8.12997e-09
8.72947e-11
8.06365e-09
8.56618e-11
7.99855e-09
8.4083e-11
7.93464e-09
8.25561e-11
7.87188e-09
8.10791e-11
7.81024e-09
7.96501e-11
7.74967e-09
7.82678e-11
7.69014e-09
7.6931e-11
7.63162e-09
7.56387e-11
7.57408e-09
7.43906e-11
7.51747e-09
7.31863e-11
7.46177e-09
7.20261e-11
7.40695e-09
7.09107e-11
7.35297e-09
6.98414e-11
7.29978e-09
6.88206e-11
7.24737e-09
6.78517e-11
7.19567e-09
6.69403e-11
7.14465e-09
6.60962e-11
7.09423e-09
6.53367e-11
7.04435e-09
6.46985e-11
6.99483e-09
6.42683e-11
6.9454e-09
6.42646e-11
6.89518e-09
6.53538e-11
6.83829e-09
7.38448e-11
1.26387e-10
4.05732e-08
3.02728e-09
-4.04011e-08
4.06627e-08
3.41401e-09
4.06248e-08
3.60575e-09
4.04613e-08
3.68282e-09
4.01801e-08
3.67764e-09
3.97933e-08
3.60134e-09
3.93173e-08
3.46713e-09
3.877e-08
3.29087e-09
3.81684e-08
3.08786e-09
3.75283e-08
2.87173e-09
3.68634e-08
2.65407e-09
3.61853e-08
2.44397e-09
3.55032e-08
2.24774e-09
3.48243e-08
2.069e-09
3.41537e-08
1.90915e-09
3.34951e-08
1.76787e-09
3.28509e-08
1.64377e-09
3.22227e-08
1.53484e-09
3.16113e-08
1.4389e-09
3.10172e-08
1.35383e-09
3.04405e-08
1.27776e-09
2.98813e-08
1.2091e-09
2.93393e-08
1.14657e-09
2.88143e-08
1.08916e-09
2.83061e-08
1.0361e-09
2.78143e-08
9.86801e-10
2.73386e-08
9.40814e-10
2.68786e-08
8.97793e-10
2.64339e-08
8.57466e-10
2.60041e-08
8.19612e-10
2.55887e-08
7.84046e-10
2.51873e-08
7.50609e-10
2.47995e-08
7.19158e-10
2.44247e-08
6.89564e-10
2.40626e-08
6.61706e-10
2.37125e-08
6.35472e-10
2.33741e-08
6.1076e-10
2.30468e-08
5.87469e-10
2.27302e-08
5.65508e-10
2.24239e-08
5.4479e-10
2.21274e-08
5.25235e-10
2.18402e-08
5.06766e-10
2.1562e-08
4.89314e-10
2.12924e-08
4.72812e-10
2.1031e-08
4.57198e-10
2.07773e-08
4.42416e-10
2.05312e-08
4.28411e-10
2.02921e-08
4.15135e-10
2.00598e-08
4.0254e-10
1.98341e-08
3.90583e-10
1.96145e-08
3.79225e-10
1.94009e-08
3.68427e-10
1.91929e-08
3.58154e-10
1.89903e-08
3.48375e-10
1.87929e-08
3.39058e-10
1.86005e-08
3.30174e-10
1.84128e-08
3.21698e-10
1.82296e-08
3.13604e-10
1.80508e-08
3.05869e-10
1.78762e-08
2.98471e-10
1.77055e-08
2.91391e-10
1.75388e-08
2.84609e-10
1.73757e-08
2.78107e-10
1.72162e-08
2.7187e-10
1.70601e-08
2.65881e-10
1.69072e-08
2.60126e-10
1.67576e-08
2.54592e-10
1.6611e-08
2.49266e-10
1.64674e-08
2.44137e-10
1.63266e-08
2.39194e-10
1.61885e-08
2.34425e-10
1.60531e-08
2.29823e-10
1.59203e-08
2.25379e-10
1.57899e-08
2.21083e-10
1.5662e-08
2.1693e-10
1.55363e-08
2.12911e-10
1.5413e-08
2.09021e-10
1.52918e-08
2.05253e-10
1.51728e-08
2.01604e-10
1.50558e-08
1.98067e-10
1.49408e-08
1.94639e-10
1.48277e-08
1.91316e-10
1.47166e-08
1.88096e-10
1.46072e-08
1.84976e-10
1.44997e-08
1.81954e-10
1.43938e-08
1.7903e-10
1.42897e-08
1.76204e-10
1.41871e-08
1.73476e-10
1.40861e-08
1.70849e-10
1.39866e-08
1.68327e-10
1.38885e-08
1.65916e-10
1.37918e-08
1.63628e-10
1.36964e-08
1.61481e-10
1.36023e-08
1.59509e-10
1.35092e-08
1.57785e-10
1.3417e-08
1.56476e-10
1.33252e-08
1.56034e-10
1.32325e-08
1.58103e-10
1.31337e-08
1.72577e-10
2.30192e-10
4.50676e-08
2.81496e-09
-4.48552e-08
4.52967e-08
3.18487e-09
4.5491e-08
3.41146e-09
4.56345e-08
3.53929e-09
4.57181e-08
3.59405e-09
4.5735e-08
3.58449e-09
4.5683e-08
3.51905e-09
4.55646e-08
3.40934e-09
4.53847e-08
3.26777e-09
4.51503e-08
3.10609e-09
4.48695e-08
2.93485e-09
4.45506e-08
2.76285e-09
4.42016e-08
2.59681e-09
4.38294e-08
2.4412e-09
4.344e-08
2.29848e-09
4.30384e-08
2.16949e-09
4.26283e-08
2.05385e-09
4.22127e-08
1.95049e-09
4.17936e-08
1.85794e-09
4.13728e-08
1.77463e-09
4.09515e-08
1.69908e-09
4.05306e-08
1.62999e-09
4.01109e-08
1.56626e-09
3.96931e-08
1.507e-09
3.92777e-08
1.45152e-09
3.88652e-08
1.39931e-09
3.8456e-08
1.34996e-09
3.80507e-08
1.30317e-09
3.76494e-08
1.2587e-09
3.72527e-08
1.21637e-09
3.68607e-08
1.17605e-09
3.64737e-08
1.13759e-09
3.60919e-08
1.10091e-09
3.57156e-08
1.0659e-09
3.53448e-08
1.03248e-09
3.49797e-08
1.00057e-09
3.46204e-08
9.70087e-10
3.42669e-08
9.40964e-10
3.39193e-08
9.13131e-10
3.35775e-08
8.86524e-10
3.32417e-08
8.61081e-10
3.29117e-08
8.36743e-10
3.25876e-08
8.13455e-10
3.22692e-08
7.91164e-10
3.19566e-08
7.69822e-10
3.16496e-08
7.49379e-10
3.13482e-08
7.29792e-10
3.10524e-08
7.11019e-10
3.07619e-08
6.93018e-10
3.04767e-08
6.75753e-10
3.01968e-08
6.59186e-10
2.99219e-08
6.43284e-10
2.9652e-08
6.28013e-10
2.93871e-08
6.13344e-10
2.91269e-08
5.99245e-10
2.88714e-08
5.85689e-10
2.86204e-08
5.7265e-10
2.83739e-08
5.60102e-10
2.81318e-08
5.48021e-10
2.78938e-08
5.36383e-10
2.76601e-08
5.25168e-10
2.74303e-08
5.14353e-10
2.72045e-08
5.0392e-10
2.69825e-08
4.9385e-10
2.67643e-08
4.84125e-10
2.65497e-08
4.74727e-10
2.63386e-08
4.65642e-10
2.61311e-08
4.56853e-10
2.59268e-08
4.48347e-10
2.57259e-08
4.4011e-10
2.55282e-08
4.32128e-10
2.53337e-08
4.24392e-10
2.51421e-08
4.16888e-10
2.49536e-08
4.09606e-10
2.4768e-08
4.02537e-10
2.45853e-08
3.95671e-10
2.44053e-08
3.89e-10
2.4228e-08
3.82516e-10
2.40534e-08
3.76211e-10
2.38814e-08
3.7008e-10
2.37119e-08
3.64117e-10
2.35449e-08
3.58317e-10
2.33803e-08
3.52676e-10
2.32181e-08
3.47191e-10
2.30582e-08
3.41859e-10
2.29006e-08
3.36681e-10
2.27451e-08
3.31655e-10
2.25918e-08
3.26784e-10
2.24406e-08
3.22072e-10
2.22914e-08
3.17526e-10
2.21441e-08
3.13155e-10
2.19988e-08
3.08978e-10
2.18553e-08
3.05023e-10
2.17134e-08
3.01345e-10
2.15731e-08
2.98054e-10
2.14342e-08
2.95406e-10
2.12961e-08
2.94101e-10
2.11577e-08
2.96562e-10
2.10178e-08
3.12494e-10
3.60164e-10
4.9941e-08
2.63111e-09
-4.97572e-08
5.01688e-08
2.95713e-09
5.03985e-08
3.18172e-09
5.06136e-08
3.32421e-09
5.08046e-08
3.40301e-09
5.09627e-08
3.42647e-09
5.10807e-08
3.40099e-09
5.1155e-08
3.33508e-09
5.11844e-08
3.23838e-09
5.11701e-08
3.12037e-09
5.11152e-08
2.98977e-09
5.10238e-08
2.85417e-09
5.0901e-08
2.71966e-09
5.07515e-08
2.59066e-09
5.058e-08
2.46996e-09
5.03906e-08
2.35897e-09
5.01864e-08
2.258e-09
4.99703e-08
2.16664e-09
4.97442e-08
2.08402e-09
4.95097e-08
2.00908e-09
4.92681e-08
1.9407e-09
4.90203e-08
1.87785e-09
4.87669e-08
1.81963e-09
4.85086e-08
1.76529e-09
4.82459e-08
1.71421e-09
4.79793e-08
1.66593e-09
4.77092e-08
1.62008e-09
4.7436e-08
1.57637e-09
4.716e-08
1.53461e-09
4.68818e-08
1.49461e-09
4.66016e-08
1.45626e-09
4.63197e-08
1.41945e-09
4.60366e-08
1.38408e-09
4.57524e-08
1.3501e-09
4.54674e-08
1.31741e-09
4.5182e-08
1.28597e-09
4.48964e-08
1.25572e-09
4.46108e-08
1.22659e-09
4.43254e-08
1.19855e-09
4.40404e-08
1.17153e-09
4.37559e-08
1.1455e-09
4.34723e-08
1.1204e-09
4.31895e-08
1.09621e-09
4.29078e-08
1.07286e-09
4.26273e-08
1.05034e-09
4.23481e-08
1.0286e-09
4.20703e-08
1.0076e-09
4.1794e-08
9.87318e-10
4.15193e-08
9.67719e-10
4.12463e-08
9.48772e-10
4.0975e-08
9.30451e-10
4.07056e-08
9.12726e-10
4.0438e-08
8.95574e-10
4.01724e-08
8.78968e-10
3.99087e-08
8.62886e-10
3.96471e-08
8.47305e-10
3.93876e-08
8.32203e-10
3.91301e-08
8.17559e-10
3.88748e-08
8.03355e-10
3.86216e-08
7.8957e-10
3.83706e-08
7.76187e-10
3.81217e-08
7.63189e-10
3.78751e-08
7.50558e-10
3.76307e-08
7.3828e-10
3.73885e-08
7.26339e-10
3.71485e-08
7.14721e-10
3.69107e-08
7.03412e-10
3.66751e-08
6.92399e-10
3.64418e-08
6.81669e-10
3.62107e-08
6.7121e-10
3.59818e-08
6.61013e-10
3.57552e-08
6.51065e-10
3.55307e-08
6.41356e-10
3.53084e-08
6.31878e-10
3.50883e-08
6.22622e-10
3.48704e-08
6.13579e-10
3.46547e-08
6.04742e-10
3.44411e-08
5.96105e-10
3.42296e-08
5.8766e-10
3.40203e-08
5.79403e-10
3.38131e-08
5.71328e-10
3.3608e-08
5.63433e-10
3.3405e-08
5.55714e-10
3.3204e-08
5.4817e-10
3.3005e-08
5.408e-10
3.28081e-08
5.33605e-10
3.26132e-08
5.26587e-10
3.24202e-08
5.19751e-10
3.22292e-08
5.13104e-10
3.20401e-08
5.06657e-10
3.18528e-08
5.00426e-10
3.16673e-08
4.94437e-10
3.14836e-08
4.88729e-10
3.13016e-08
4.83377e-10
3.11211e-08
4.78524e-10
3.0942e-08
4.74493e-10
3.0764e-08
4.72117e-10
3.05867e-08
4.73836e-10
3.04129e-08
4.86309e-10
5.13898e-10
5.5318e-08
2.47751e-09
-5.51644e-08
5.55195e-08
2.75562e-09
5.5737e-08
2.96421e-09
5.59537e-08
3.1075e-09
5.61606e-08
3.19613e-09
5.63499e-08
3.23713e-09
5.65151e-08
3.23581e-09
5.66516e-08
3.19859e-09
5.6757e-08
3.13298e-09
5.68307e-08
3.04663e-09
5.68738e-08
2.94669e-09
5.68884e-08
2.83954e-09
5.68776e-08
2.73048e-09
5.68447e-08
2.62356e-09
5.67931e-08
2.5216e-09
5.67258e-08
2.42626e-09
5.66455e-08
2.33828e-09
5.65544e-08
2.25774e-09
5.64542e-08
2.18422e-09
5.63462e-08
2.11708e-09
5.62314e-08
2.05555e-09
5.61104e-08
1.99885e-09
5.59837e-08
1.94628e-09
5.58518e-08
1.89721e-09
5.57149e-08
1.85112e-09
5.55732e-08
1.80759e-09
5.5427e-08
1.76629e-09
5.52765e-08
1.72695e-09
5.51217e-08
1.68937e-09
5.49629e-08
1.65338e-09
5.48003e-08
1.61887e-09
5.4634e-08
1.58573e-09
5.44643e-08
1.55386e-09
5.42911e-08
1.52321e-09
5.41149e-08
1.49369e-09
5.39356e-08
1.46527e-09
5.37534e-08
1.43787e-09
5.35686e-08
1.41146e-09
5.33811e-08
1.38598e-09
5.31913e-08
1.36139e-09
5.29991e-08
1.33765e-09
5.28048e-08
1.31472e-09
5.26085e-08
1.29256e-09
5.24102e-08
1.27114e-09
5.22101e-08
1.25041e-09
5.20084e-08
1.23036e-09
5.1805e-08
1.21094e-09
5.16002e-08
1.19213e-09
5.1394e-08
1.1739e-09
5.11866e-08
1.15622e-09
5.0978e-08
1.13907e-09
5.07683e-08
1.12242e-09
5.05576e-08
1.10626e-09
5.0346e-08
1.09055e-09
5.01336e-08
1.07528e-09
4.99205e-08
1.06042e-09
4.97067e-08
1.04597e-09
4.94924e-08
1.03189e-09
4.92776e-08
1.01818e-09
4.90623e-08
1.00481e-09
4.88468e-08
9.91768e-10
4.86309e-08
9.79043e-10
4.84149e-08
9.66618e-10
4.81987e-08
9.54479e-10
4.79824e-08
9.42613e-10
4.77661e-08
9.31008e-10
4.75499e-08
9.19651e-10
4.73337e-08
9.08531e-10
4.71177e-08
8.97638e-10
4.6902e-08
8.86962e-10
4.66865e-08
8.76493e-10
4.64714e-08
8.66221e-10
4.62566e-08
8.5614e-10
4.60422e-08
8.46241e-10
4.58283e-08
8.36517e-10
4.56149e-08
8.26962e-10
4.54021e-08
8.17569e-10
4.51899e-08
8.08334e-10
4.49783e-08
7.99253e-10
4.47674e-08
7.90321e-10
4.45572e-08
7.81536e-10
4.43477e-08
7.72897e-10
4.4139e-08
7.64402e-10
4.39311e-08
7.56053e-10
4.37241e-08
7.47851e-10
4.35179e-08
7.398e-10
4.33126e-08
7.31906e-10
4.31081e-08
7.24176e-10
4.29046e-08
7.16623e-10
4.2702e-08
7.09263e-10
4.25003e-08
7.02117e-10
4.22995e-08
6.95219e-10
4.20996e-08
6.88619e-10
4.19006e-08
6.82405e-10
4.17024e-08
6.76735e-10
4.1505e-08
6.71942e-10
4.13083e-08
6.68768e-10
4.11133e-08
6.68889e-10
4.09248e-08
6.74774e-10
6.79652e-10
6.12601e-08
2.347e-09
-6.11296e-08
6.14347e-08
2.58106e-09
6.16306e-08
2.76828e-09
6.18322e-08
2.9059e-09
6.20301e-08
2.99827e-09
6.22171e-08
3.05011e-09
6.23873e-08
3.06557e-09
6.25365e-08
3.04947e-09
6.26619e-08
3.00752e-09
6.27628e-08
2.94579e-09
6.28394e-08
2.8701e-09
6.28931e-08
2.78576e-09
6.29263e-08
2.69732e-09
6.29414e-08
2.60843e-09
6.29413e-08
2.52176e-09
6.29284e-08
2.43911e-09
6.29052e-08
2.36152e-09
6.28735e-08
2.28939e-09
6.2835e-08
2.22272e-09
6.27909e-08
2.16122e-09
6.2742e-08
2.10442e-09
6.2689e-08
2.05181e-09
6.26324e-08
2.00289e-09
6.25725e-08
1.95717e-09
6.25093e-08
1.91424e-09
6.24432e-08
1.87375e-09
6.23741e-08
1.8354e-09
6.23021e-08
1.79897e-09
6.22272e-08
1.76426e-09
6.21494e-08
1.73111e-09
6.20689e-08
1.69941e-09
6.19856e-08
1.66905e-09
6.18995e-08
1.63995e-09
6.18107e-08
1.61203e-09
6.17191e-08
1.58523e-09
6.16249e-08
1.55949e-09
6.1528e-08
1.53476e-09
6.14285e-08
1.51098e-09
6.13263e-08
1.4881e-09
6.12216e-08
1.46609e-09
6.11144e-08
1.4449e-09
6.10046e-08
1.42449e-09
6.08923e-08
1.40483e-09
6.07776e-08
1.38586e-09
6.06605e-08
1.36757e-09
6.05409e-08
1.34991e-09
6.0419e-08
1.33286e-09
6.02947e-08
1.31638e-09
6.01682e-08
1.30045e-09
6.00393e-08
1.28503e-09
5.99083e-08
1.27011e-09
5.97751e-08
1.25565e-09
5.96397e-08
1.24163e-09
5.95022e-08
1.22803e-09
5.93627e-08
1.21483e-09
5.92211e-08
1.202e-09
5.90775e-08
1.18953e-09
5.8932e-08
1.17739e-09
5.87846e-08
1.16557e-09
5.86354e-08
1.15405e-09
5.84844e-08
1.14282e-09
5.83315e-08
1.13185e-09
5.8177e-08
1.12113e-09
5.80209e-08
1.11066e-09
5.78631e-08
1.10041e-09
5.77037e-08
1.09036e-09
5.75428e-08
1.08052e-09
5.73805e-08
1.07087e-09
5.72167e-08
1.06139e-09
5.70516e-08
1.05208e-09
5.68852e-08
1.04293e-09
5.67175e-08
1.03392e-09
5.65486e-08
1.02505e-09
5.63785e-08
1.01632e-09
5.62073e-08
1.0077e-09
5.60351e-08
9.99208e-10
5.58618e-08
9.90825e-10
5.56876e-08
9.8255e-10
5.55125e-08
9.74379e-10
5.53365e-08
9.66308e-10
5.51597e-08
9.58336e-10
5.49821e-08
9.50462e-10
5.48038e-08
9.42685e-10
5.46249e-08
9.3501e-10
5.44453e-08
9.27437e-10
5.42651e-08
9.19974e-10
5.40844e-08
9.12629e-10
5.39032e-08
9.05411e-10
5.37214e-08
8.98337e-10
5.35393e-08
8.91425e-10
5.33567e-08
8.84702e-10
5.31737e-08
8.78208e-10
5.29903e-08
8.71996e-10
5.28066e-08
8.66155e-10
5.26225e-08
8.60834e-10
5.24381e-08
8.56292e-10
5.22539e-08
8.52978e-10
5.20714e-08
8.51432e-10
5.18956e-08
8.50552e-10
8.38287e-10
6.78247e-08
2.23409e-09
-6.77118e-08
6.79753e-08
2.4305e-09
6.81483e-08
2.59526e-09
6.83306e-08
2.72354e-09
6.85131e-08
2.8158e-09
6.86888e-08
2.8744e-09
6.88522e-08
2.9022e-09
6.8999e-08
2.90265e-09
6.91266e-08
2.87996e-09
6.92336e-08
2.83875e-09
6.93201e-08
2.78363e-09
6.93869e-08
2.71892e-09
6.94358e-08
2.64845e-09
6.94688e-08
2.5754e-09
6.94883e-08
2.50227e-09
6.94965e-08
2.43088e-09
6.94957e-08
2.3624e-09
6.94875e-08
2.29753e-09
6.94737e-08
2.23656e-09
6.94554e-08
2.17949e-09
6.94337e-08
2.12617e-09
6.94092e-08
2.0763e-09
6.93825e-08
2.02959e-09
6.93539e-08
1.98572e-09
6.93238e-08
1.94438e-09
6.92922e-08
1.90532e-09
6.92593e-08
1.8683e-09
6.92251e-08
1.83313e-09
6.91898e-08
1.79965e-09
6.91531e-08
1.76774e-09
6.91153e-08
1.73727e-09
6.90762e-08
1.70816e-09
6.90358e-08
1.68033e-09
6.89941e-08
1.65371e-09
6.89511e-08
1.62823e-09
6.89068e-08
1.60384e-09
6.8861e-08
1.58049e-09
6.88139e-08
1.55812e-09
6.87653e-08
1.53669e-09
6.87152e-08
1.51616e-09
6.86636e-08
1.49649e-09
6.86105e-08
1.47763e-09
6.85558e-08
1.45954e-09
6.84995e-08
1.44219e-09
6.84415e-08
1.42554e-09
6.83819e-08
1.40956e-09
6.83205e-08
1.39421e-09
6.82574e-08
1.37946e-09
6.81926e-08
1.36528e-09
6.8126e-08
1.35164e-09
6.80576e-08
1.33852e-09
6.79874e-08
1.32588e-09
6.79153e-08
1.31369e-09
6.78414e-08
1.30195e-09
6.77656e-08
1.29061e-09
6.76879e-08
1.27966e-09
6.76084e-08
1.26908e-09
6.75269e-08
1.25884e-09
6.74436e-08
1.24893e-09
6.73583e-08
1.23932e-09
6.72711e-08
1.23e-09
6.7182e-08
1.22094e-09
6.7091e-08
1.21214e-09
6.69981e-08
1.20357e-09
6.69033e-08
1.19523e-09
6.68065e-08
1.18709e-09
6.67079e-08
1.17914e-09
6.66074e-08
1.17137e-09
6.65051e-08
1.16376e-09
6.64008e-08
1.15631e-09
6.62948e-08
1.149e-09
6.61869e-08
1.14182e-09
6.60772e-08
1.13476e-09
6.59657e-08
1.12782e-09
6.58524e-08
1.12098e-09
6.57373e-08
1.11424e-09
6.56206e-08
1.10759e-09
6.55021e-08
1.10103e-09
6.53819e-08
1.09454e-09
6.52601e-08
1.08813e-09
6.51366e-08
1.0818e-09
6.50116e-08
1.07554e-09
6.48849e-08
1.06935e-09
6.47567e-08
1.06323e-09
6.46269e-08
1.0572e-09
6.44957e-08
1.05124e-09
6.43629e-08
1.04539e-09
6.42287e-08
1.03963e-09
6.4093e-08
1.034e-09
6.39559e-08
1.02851e-09
6.38174e-08
1.02319e-09
6.36776e-08
1.01809e-09
6.35363e-08
1.01324e-09
6.33937e-08
1.00873e-09
6.32499e-08
1.00467e-09
6.3105e-08
1.0012e-09
6.29596e-08
9.98386e-10
6.28152e-08
9.9582e-10
6.26752e-08
9.90578e-10
9.71249e-10
6.79877e-08
2.14378e-09
-6.78974e-08
6.81066e-08
2.31164e-09
6.82448e-08
2.45704e-09
6.83931e-08
2.57526e-09
6.85439e-08
2.66498e-09
6.86914e-08
2.72697e-09
6.88306e-08
2.76293e-09
6.8958e-08
2.77527e-09
6.90709e-08
2.76703e-09
6.9168e-08
2.74168e-09
6.92488e-08
2.70284e-09
6.93137e-08
2.65399e-09
6.93639e-08
2.59831e-09
6.94007e-08
2.53856e-09
6.9426e-08
2.477e-09
6.94415e-08
2.41536e-09
6.9449e-08
2.3549e-09
6.94501e-08
2.29647e-09
6.94461e-08
2.24056e-09
6.94382e-08
2.18739e-09
6.94273e-08
2.13703e-09
6.94142e-08
2.08939e-09
6.93995e-08
2.04433e-09
6.93835e-08
2.00168e-09
6.93666e-08
1.96126e-09
6.93491e-08
1.92288e-09
6.9331e-08
1.88638e-09
6.93125e-08
1.85163e-09
6.92936e-08
1.8185e-09
6.92745e-08
1.78689e-09
6.92551e-08
1.7567e-09
6.92354e-08
1.72785e-09
6.92154e-08
1.70029e-09
6.91952e-08
1.67394e-09
6.91747e-08
1.64875e-09
6.91538e-08
1.62467e-09
6.91327e-08
1.60165e-09
6.91111e-08
1.57965e-09
6.90892e-08
1.55863e-09
6.90668e-08
1.53853e-09
6.9044e-08
1.51933e-09
6.90206e-08
1.50097e-09
6.89968e-08
1.48343e-09
6.89723e-08
1.46667e-09
6.89472e-08
1.45065e-09
6.89214e-08
1.43533e-09
6.88949e-08
1.42069e-09
6.88677e-08
1.40669e-09
6.88397e-08
1.39329e-09
6.88108e-08
1.38048e-09
6.87811e-08
1.36822e-09
6.87505e-08
1.35648e-09
6.8719e-08
1.34523e-09
6.86865e-08
1.33446e-09
6.8653e-08
1.32413e-09
6.86184e-08
1.31422e-09
6.85828e-08
1.30471e-09
6.8546e-08
1.29558e-09
6.85082e-08
1.2868e-09
6.84691e-08
1.27835e-09
6.84289e-08
1.27021e-09
6.83875e-08
1.26237e-09
6.83448e-08
1.25481e-09
6.83009e-08
1.24751e-09
6.82557e-08
1.24044e-09
6.82092e-08
1.23361e-09
6.81613e-08
1.22698e-09
6.81121e-08
1.22056e-09
6.80616e-08
1.21431e-09
6.80096e-08
1.20824e-09
6.79563e-08
1.20232e-09
6.79016e-08
1.19654e-09
6.78455e-08
1.1909e-09
6.77879e-08
1.18539e-09
6.77289e-08
1.17999e-09
6.76684e-08
1.17469e-09
6.76065e-08
1.16949e-09
6.75432e-08
1.16439e-09
6.74783e-08
1.15937e-09
6.7412e-08
1.15443e-09
6.73443e-08
1.14957e-09
6.7275e-08
1.14478e-09
6.72043e-08
1.14008e-09
6.71321e-08
1.13544e-09
6.70584e-08
1.13089e-09
6.69832e-08
1.12642e-09
6.69065e-08
1.12205e-09
6.68284e-08
1.11779e-09
6.67487e-08
1.11365e-09
6.66676e-08
1.10965e-09
6.6585e-08
1.10583e-09
6.65008e-08
1.10221e-09
6.64152e-08
1.09885e-09
6.63282e-08
1.09581e-09
6.62397e-08
1.09313e-09
6.61501e-08
1.09085e-09
6.60597e-08
1.08879e-09
6.59694e-08
1.08609e-09
6.58802e-08
1.07973e-09
1.06144e-09
7.52266e-08
2.06326e-09
-7.51461e-08
7.53308e-08
2.20751e-09
7.54523e-08
2.33552e-09
7.55842e-08
2.44333e-09
7.57202e-08
2.52903e-09
7.58548e-08
2.59232e-09
7.59837e-08
2.634e-09
7.61034e-08
2.65559e-09
7.62113e-08
2.65917e-09
7.63057e-08
2.64724e-09
7.6386e-08
2.62252e-09
7.64523e-08
2.58774e-09
7.65051e-08
2.54548e-09
7.65457e-08
2.49805e-09
7.65752e-08
2.44743e-09
7.65953e-08
2.39523e-09
7.66075e-08
2.34271e-09
7.66132e-08
2.29078e-09
7.66137e-08
2.24008e-09
7.66101e-08
2.19101e-09
7.66033e-08
2.14379e-09
7.65942e-08
2.09852e-09
7.65833e-08
2.05521e-09
7.65711e-08
2.01382e-09
7.65581e-08
1.97427e-09
7.65445e-08
1.93648e-09
7.65306e-08
1.90036e-09
7.65164e-08
1.86581e-09
7.65021e-08
1.83277e-09
7.64878e-08
1.80115e-09
7.64736e-08
1.7709e-09
7.64595e-08
1.74195e-09
7.64456e-08
1.71425e-09
7.64318e-08
1.68776e-09
7.64181e-08
1.66241e-09
7.64046e-08
1.63818e-09
7.63912e-08
1.61502e-09
7.6378e-08
1.59289e-09
7.63649e-08
1.57175e-09
7.63518e-08
1.55156e-09
7.63389e-08
1.53229e-09
7.63259e-08
1.51389e-09
7.63131e-08
1.49633e-09
7.63001e-08
1.47958e-09
7.62872e-08
1.4636e-09
7.62742e-08
1.44836e-09
7.6261e-08
1.43383e-09
7.62477e-08
1.41997e-09
7.62343e-08
1.40675e-09
7.62206e-08
1.39415e-09
7.62067e-08
1.38213e-09
7.61925e-08
1.37066e-09
7.6178e-08
1.35973e-09
7.61632e-08
1.3493e-09
7.6148e-08
1.33935e-09
7.61324e-08
1.32985e-09
7.61163e-08
1.32078e-09
7.60997e-08
1.31212e-09
7.60827e-08
1.30384e-09
7.60651e-08
1.29593e-09
7.6047e-08
1.28836e-09
7.60282e-08
1.28112e-09
7.60088e-08
1.27419e-09
7.59888e-08
1.26754e-09
7.59681e-08
1.26116e-09
7.59467e-08
1.25504e-09
7.59245e-08
1.24916e-09
7.59015e-08
1.2435e-09
7.58778e-08
1.23804e-09
7.58533e-08
1.23279e-09
7.58279e-08
1.22771e-09
7.58016e-08
1.22281e-09
7.57744e-08
1.21806e-09
7.57464e-08
1.21346e-09
7.57173e-08
1.209e-09
7.56874e-08
1.20467e-09
7.56564e-08
1.20045e-09
7.56244e-08
1.19635e-09
7.55915e-08
1.19236e-09
7.55574e-08
1.18846e-09
7.55223e-08
1.18467e-09
7.54862e-08
1.18096e-09
7.54489e-08
1.17736e-09
7.54105e-08
1.17385e-09
7.53709e-08
1.17044e-09
7.53302e-08
1.16713e-09
7.52883e-08
1.16394e-09
7.52452e-08
1.16087e-09
7.52009e-08
1.15795e-09
7.51554e-08
1.15518e-09
7.51086e-08
1.15261e-09
7.50606e-08
1.15026e-09
7.50113e-08
1.14817e-09
7.49607e-08
1.14637e-09
7.4909e-08
1.14488e-09
7.48561e-08
1.14366e-09
7.48025e-08
1.1424e-09
7.47484e-08
1.14025e-09
7.46931e-08
1.13499e-09
1.12237e-09
8.32221e-08
1.99221e-09
-8.3151e-08
8.33124e-08
2.11723e-09
8.34176e-08
2.23023e-09
8.35328e-08
2.32815e-09
8.36528e-08
2.40902e-09
8.37731e-08
2.47206e-09
8.38897e-08
2.5174e-09
8.39994e-08
2.54586e-09
8.40998e-08
2.55877e-09
8.41892e-08
2.55784e-09
8.42667e-08
2.54504e-09
8.4332e-08
2.52243e-09
8.43854e-08
2.49204e-09
8.44277e-08
2.45575e-09
8.44599e-08
2.41526e-09
8.44831e-08
2.372e-09
8.44987e-08
2.32718e-09
8.45077e-08
2.28171e-09
8.45115e-08
2.23632e-09
8.4511e-08
2.19152e-09
8.45071e-08
2.14767e-09
8.45006e-08
2.105e-09
8.44922e-08
2.06365e-09
8.44823e-08
2.02371e-09
8.44714e-08
1.98519e-09
8.44598e-08
1.9481e-09
8.44477e-08
1.91241e-09
8.44354e-08
1.87811e-09
8.4423e-08
1.84516e-09
8.44107e-08
1.81351e-09
8.43984e-08
1.78314e-09
8.43864e-08
1.75401e-09
8.43746e-08
1.72608e-09
8.4363e-08
1.69932e-09
8.43517e-08
1.67369e-09
8.43408e-08
1.64915e-09
8.43301e-08
1.62568e-09
8.43198e-08
1.60323e-09
8.43097e-08
1.58178e-09
8.43e-08
1.56129e-09
8.42906e-08
1.54172e-09
8.42814e-08
1.52305e-09
8.42725e-08
1.50523e-09
8.42639e-08
1.48823e-09
8.42554e-08
1.47203e-09
8.42472e-08
1.45658e-09
8.42392e-08
1.44186e-09
8.42313e-08
1.42784e-09
8.42236e-08
1.41448e-09
8.4216e-08
1.40176e-09
8.42085e-08
1.38964e-09
8.4201e-08
1.37811e-09
8.41936e-08
1.36713e-09
8.41862e-08
1.35668e-09
8.41788e-08
1.34672e-09
8.41714e-08
1.33725e-09
8.4164e-08
1.32823e-09
8.41565e-08
1.31964e-09
8.41489e-08
1.31146e-09
8.41411e-08
1.30366e-09
8.41333e-08
1.29624e-09
8.41252e-08
1.28916e-09
8.4117e-08
1.28241e-09
8.41086e-08
1.27597e-09
8.40999e-08
1.26982e-09
8.4091e-08
1.26395e-09
8.40818e-08
1.25834e-09
8.40724e-08
1.25298e-09
8.40626e-08
1.24784e-09
8.40524e-08
1.24293e-09
8.40419e-08
1.23821e-09
8.4031e-08
1.23369e-09
8.40197e-08
1.22935e-09
8.4008e-08
1.22518e-09
8.39959e-08
1.22116e-09
8.39832e-08
1.2173e-09
8.39701e-08
1.21357e-09
8.39565e-08
1.20998e-09
8.39423e-08
1.20652e-09
8.39276e-08
1.20318e-09
8.39123e-08
1.19996e-09
8.38964e-08
1.19686e-09
8.38799e-08
1.19387e-09
8.38627e-08
1.19101e-09
8.38449e-08
1.18826e-09
8.38264e-08
1.18564e-09
8.38072e-08
1.18316e-09
8.37872e-08
1.18083e-09
8.37665e-08
1.17867e-09
8.3745e-08
1.17668e-09
8.37227e-08
1.17491e-09
8.36996e-08
1.17338e-09
8.36756e-08
1.17211e-09
8.36509e-08
1.17114e-09
8.36253e-08
1.17045e-09
8.3599e-08
1.16996e-09
8.3572e-08
1.16941e-09
8.3544e-08
1.16819e-09
8.35139e-08
1.16516e-09
1.15912e-09
9.20542e-08
1.93091e-09
-9.19929e-08
9.21309e-08
2.04058e-09
9.222e-08
2.14111e-09
9.23179e-08
2.2302e-09
9.24209e-08
2.30611e-09
9.2525e-08
2.36787e-09
9.26272e-08
2.41524e-09
9.27246e-08
2.44851e-09
9.28149e-08
2.46845e-09
9.28965e-08
2.47617e-09
9.29685e-08
2.47305e-09
9.30304e-08
2.46057e-09
9.30821e-08
2.44029e-09
9.31242e-08
2.41371e-09
9.31572e-08
2.38224e-09
9.31821e-08
2.34712e-09
9.31998e-08
2.30945e-09
9.32114e-08
2.27014e-09
9.32178e-08
2.22993e-09
9.32199e-08
2.18939e-09
9.32186e-08
2.14899e-09
9.32145e-08
2.10905e-09
9.32084e-08
2.06983e-09
9.32006e-08
2.03149e-09
9.31916e-08
1.99416e-09
9.31818e-08
1.95792e-09
9.31714e-08
1.9228e-09
9.31606e-08
1.88885e-09
9.31497e-08
1.85608e-09
9.31388e-08
1.82448e-09
9.31279e-08
1.79404e-09
9.31171e-08
1.76477e-09
9.31066e-08
1.73663e-09
9.30963e-08
1.70962e-09
9.30862e-08
1.6837e-09
9.30765e-08
1.65886e-09
9.30672e-08
1.63506e-09
9.30581e-08
1.61228e-09
9.30494e-08
1.59048e-09
9.30411e-08
1.56965e-09
9.3033e-08
1.54975e-09
9.30253e-08
1.53074e-09
9.3018e-08
1.5126e-09
9.30109e-08
1.49529e-09
9.30042e-08
1.47878e-09
9.29977e-08
1.46305e-09
9.29915e-08
1.44805e-09
9.29856e-08
1.43377e-09
9.29799e-08
1.42017e-09
9.29744e-08
1.40722e-09
9.29692e-08
1.39489e-09
9.29641e-08
1.38316e-09
9.29593e-08
1.37199e-09
9.29546e-08
1.36137e-09
9.295e-08
1.35127e-09
9.29456e-08
1.34166e-09
9.29413e-08
1.33252e-09
9.29371e-08
1.32382e-09
9.2933e-08
1.31555e-09
9.2929e-08
1.30768e-09
9.2925e-08
1.3002e-09
9.29211e-08
1.29307e-09
9.29172e-08
1.28629e-09
9.29134e-08
1.27984e-09
9.29095e-08
1.27369e-09
9.29056e-08
1.26783e-09
9.29017e-08
1.26225e-09
9.28977e-08
1.25693e-09
9.28937e-08
1.25185e-09
9.28897e-08
1.247e-09
9.28855e-08
1.24237e-09
9.28812e-08
1.23795e-09
9.28769e-08
1.23372e-09
9.28724e-08
1.22967e-09
9.28677e-08
1.2258e-09
9.2863e-08
1.22209e-09
9.2858e-08
1.21853e-09
9.28529e-08
1.21513e-09
9.28475e-08
1.21186e-09
9.2842e-08
1.20874e-09
9.28362e-08
1.20575e-09
9.28301e-08
1.2029e-09
9.28238e-08
1.20018e-09
9.28172e-08
1.19759e-09
9.28103e-08
1.19515e-09
9.28031e-08
1.19285e-09
9.27956e-08
1.1907e-09
9.27877e-08
1.18873e-09
9.27794e-08
1.18694e-09
9.27708e-08
1.18535e-09
9.27617e-08
1.18399e-09
9.27522e-08
1.18288e-09
9.27423e-08
1.18205e-09
9.27319e-08
1.18151e-09
9.27211e-08
1.18125e-09
9.27098e-08
1.18123e-09
9.2698e-08
1.18127e-09
9.26851e-08
1.1811e-09
9.26698e-08
1.1804e-09
1.17956e-09
1.01812e-07
1.88013e-09
-1.01761e-07
1.01875e-07
1.97791e-09
1.01947e-07
2.06852e-09
1.02027e-07
2.15021e-09
1.02112e-07
2.22154e-09
1.02198e-07
2.28152e-09
1.02284e-07
2.32972e-09
1.02366e-07
2.36611e-09
1.02443e-07
2.39107e-09
1.02514e-07
2.40526e-09
1.02578e-07
2.40959e-09
1.02633e-07
2.40513e-09
1.0268e-07
2.39303e-09
1.0272e-07
2.37447e-09
1.02751e-07
2.3506e-09
1.02776e-07
2.32249e-09
1.02794e-07
2.2911e-09
1.02807e-07
2.2573e-09
1.02815e-07
2.22182e-09
1.02819e-07
2.18526e-09
1.0282e-07
2.14815e-09
1.02818e-07
2.11087e-09
1.02814e-07
2.07377e-09
1.02809e-07
2.03708e-09