/*--------------------------------*- C++ -*----------------------------------*\
| =========                 |                                                 |
| \\      /  F ield         | OpenFOAM: The Open Source CFD Toolbox           |
|  \\    /   O peration     | Version:  2.3.0                                 |
|   \\  /    A nd           | Web:      www.OpenFOAM.org                      |
|    \\/     M anipulation  |                                                 |
\*---------------------------------------------------------------------------*/
FoamFile
{
    version     2.0;
    format      ascii;
    class       volVectorField;
    location    "0.9";
    object      U_0;
}
// * * * * * * * * * * * * * * * * * * * * * * * * * * * * * * * * * * * * * //

dimensions      [0 1 -1 0 0 0 0];

internalField   nonuniform List<vector> 
2000
(
(0.170376 0.00604952 0)
(0.153676 0.00611303 0)
(0.137623 0.005684 0)
(0.12242 0.00507066 0)
(0.108486 0.00439118 0)
(0.0959938 0.00370055 0)
(0.0849615 0.00303743 0)
(0.075356 0.002429 0)
(0.0671191 0.00189201 0)
(0.0601603 0.00143512 0)
(0.0543584 0.00106028 0)
(0.0495714 0.000763743 0)
(0.0456492 0.000537453 0)
(0.0424444 0.000370823 0)
(0.0398202 0.000252462 0)
(0.0376558 0.000171481 0)
(0.0358492 0.000118283 0)
(0.0343179 8.49081e-05 0)
(0.0329969 6.50652e-05 0)
(0.0318371 5.40061e-05 0)
(0.0308019 4.83068e-05 0)
(0.0298649 4.56191e-05 0)
(0.0290072 4.44227e-05 0)
(0.0282153 4.38003e-05 0)
(0.0274796 4.32484e-05 0)
(0.026793 4.25303e-05 0)
(0.0261502 4.15688e-05 0)
(0.0255469 4.03728e-05 0)
(0.0249796 3.8991e-05 0)
(0.0244453 3.74839e-05 0)
(0.0239414 3.59096e-05 0)
(0.0234654 3.43165e-05 0)
(0.023015 3.27421e-05 0)
(0.0225884 3.12126e-05 0)
(0.0221836 2.97455e-05 0)
(0.0217988 2.8351e-05 0)
(0.0214327 2.7034e-05 0)
(0.0210836 2.57955e-05 0)
(0.0207503 2.46343e-05 0)
(0.0204316 2.35473e-05 0)
(0.0201265 2.25306e-05 0)
(0.019834 2.15796e-05 0)
(0.0195532 2.069e-05 0)
(0.0192832 1.98571e-05 0)
(0.0190234 1.90766e-05 0)
(0.018773 1.83443e-05 0)
(0.0185316 1.76566e-05 0)
(0.0182984 1.70097e-05 0)
(0.0180731 1.64005e-05 0)
(0.0178551 1.58261e-05 0)
(0.017644 1.52836e-05 0)
(0.0174394 1.47708e-05 0)
(0.017241 1.42852e-05 0)
(0.0170484 1.3825e-05 0)
(0.0168612 1.33881e-05 0)
(0.0166794 1.2973e-05 0)
(0.0165024 1.25781e-05 0)
(0.0163302 1.22019e-05 0)
(0.0161624 1.18433e-05 0)
(0.0159989 1.15009e-05 0)
(0.0158395 1.11737e-05 0)
(0.0156839 1.08607e-05 0)
(0.015532 1.0561e-05 0)
(0.0153837 1.02738e-05 0)
(0.0152387 9.99827e-06 0)
(0.015097 9.73375e-06 0)
(0.0149584 9.47957e-06 0)
(0.0148228 9.23514e-06 0)
(0.0146901 8.99993e-06 0)
(0.0145601 8.77344e-06 0)
(0.0144328 8.55522e-06 0)
(0.014308 8.34488e-06 0)
(0.0141857 8.14203e-06 0)
(0.0140658 7.94632e-06 0)
(0.0139482 7.75746e-06 0)
(0.0138328 7.57515e-06 0)
(0.0137196 7.39918e-06 0)
(0.0136084 7.22932e-06 0)
(0.0134992 7.06539e-06 0)
(0.0133919 6.90722e-06 0)
(0.0132865 6.7547e-06 0)
(0.0131829 6.60772e-06 0)
(0.0130811 6.46621e-06 0)
(0.0129809 6.33016e-06 0)
(0.0128824 6.19954e-06 0)
(0.0127854 6.07437e-06 0)
(0.0126899 5.95479e-06 0)
(0.0125959 5.84095e-06 0)
(0.0125032 5.73299e-06 0)
(0.0124119 5.63139e-06 0)
(0.0123217 5.5366e-06 0)
(0.0122327 5.44949e-06 0)
(0.0121448 5.37156e-06 0)
(0.0120577 5.30547e-06 0)
(0.0119715 5.25669e-06 0)
(0.0118858 5.23855e-06 0)
(0.0118001 5.2868e-06 0)
(0.0117132 5.35954e-06 0)
(0.0116356 5.71159e-06 0)
(0.0113977 3.21556e-05 0)
(0.189593 0.00957239 0)
(0.187387 0.010108 0)
(0.183616 0.0099072 0)
(0.178618 0.00942145 0)
(0.172872 0.0087893 0)
(0.166716 0.00805888 0)
(0.160366 0.00727037 0)
(0.153986 0.00646113 0)
(0.147708 0.00566282 0)
(0.14163 0.00490166 0)
(0.135821 0.0041983 0)
(0.130322 0.003567 0)
(0.125152 0.00301535 0)
(0.120319 0.00254474 0)
(0.115816 0.00215149 0)
(0.11163 0.00182837 0)
(0.107745 0.00156611 0)
(0.10414 0.00135473 0)
(0.100793 0.00118464 0)
(0.0976838 0.00104723 0)
(0.0947922 0.000935223 0)
(0.0920987 0.000842742 0)
(0.0895859 0.000765223 0)
(0.0872375 0.000699214 0)
(0.0850389 0.000642164 0)
(0.0829769 0.000592213 0)
(0.0810398 0.00054801 0)
(0.0792168 0.00050857 0)
(0.0774983 0.000473162 0)
(0.0758757 0.000441228 0)
(0.0743412 0.000412332 0)
(0.0728878 0.000386117 0)
(0.071509 0.000362285 0)
(0.0701992 0.000340577 0)
(0.068953 0.000320769 0)
(0.0677657 0.000302662 0)
(0.066633 0.000286079 0)
(0.0655509 0.000270861 0)
(0.0645158 0.000256868 0)
(0.0635246 0.000243975 0)
(0.0625741 0.00023207 0)
(0.0616616 0.000221054 0)
(0.0607847 0.00021084 0)
(0.059941 0.000201351 0)
(0.0591285 0.000192517 0)
(0.0583453 0.000184279 0)
(0.0575894 0.000176582 0)
(0.0568595 0.000169379 0)
(0.0561538 0.000162627 0)
(0.055471 0.000156287 0)
(0.0548099 0.000150327 0)
(0.0541692 0.000144715 0)
(0.0535478 0.000139424 0)
(0.0529447 0.000134429 0)
(0.052359 0.000129707 0)
(0.0517898 0.000125239 0)
(0.0512362 0.000121006 0)
(0.0506974 0.000116991 0)
(0.0501728 0.000113178 0)
(0.0496617 0.000109554 0)
(0.0491635 0.000106104 0)
(0.0486775 0.000102819 0)
(0.0482032 9.96861e-05 0)
(0.0477402 9.6696e-05 0)
(0.0472879 9.38393e-05 0)
(0.0468458 9.11076e-05 0)
(0.0464137 8.84931e-05 0)
(0.045991 8.59885e-05 0)
(0.0455774 8.35874e-05 0)
(0.0451725 8.12836e-05 0)
(0.0447761 7.90714e-05 0)
(0.0443877 7.69459e-05 0)
(0.0440072 7.49022e-05 0)
(0.0436342 7.29361e-05 0)
(0.0432685 7.10434e-05 0)
(0.0429098 6.92206e-05 0)
(0.042558 6.74644e-05 0)
(0.0422126 6.57718e-05 0)
(0.0418736 6.414e-05 0)
(0.0415408 6.25666e-05 0)
(0.0412139 6.10494e-05 0)
(0.0408927 5.95867e-05 0)
(0.0405772 5.81766e-05 0)
(0.040267 5.68181e-05 0)
(0.039962 5.55099e-05 0)
(0.039662 5.42513e-05 0)
(0.0393669 5.3042e-05 0)
(0.0390765 5.18822e-05 0)
(0.0387906 5.07721e-05 0)
(0.038509 4.97135e-05 0)
(0.0382315 4.87086e-05 0)
(0.0379579 4.77617e-05 0)
(0.037688 4.68806e-05 0)
(0.0374215 4.60802e-05 0)
(0.037158 4.53923e-05 0)
(0.036897 4.4894e-05 0)
(0.0366373 4.47837e-05 0)
(0.0363764 4.55627e-05 0)
(0.0361255 5.24785e-05 0)
(0.0356372 0.000116955 0)
(0.192592 0.00910134 0)
(0.193395 0.0100699 0)
(0.193648 0.0104407 0)
(0.193186 0.010485 0)
(0.192096 0.0102964 0)
(0.190478 0.00991124 0)
(0.188404 0.00937358 0)
(0.185951 0.00873374 0)
(0.183198 0.00803859 0)
(0.180226 0.00732831 0)
(0.177106 0.00663535 0)
(0.173897 0.00598354 0)
(0.17065 0.00538798 0)
(0.167402 0.00485578 0)
(0.164184 0.00438771 0)
(0.161016 0.00398007 0)
(0.157911 0.00362652 0)
(0.15488 0.00331967 0)
(0.151928 0.00305212 0)
(0.149058 0.00281718 0)
(0.146271 0.00260913 0)
(0.143567 0.00242332 0)
(0.140945 0.00225607 0)
(0.138406 0.0021045 0)
(0.135947 0.00196641 0)
(0.133567 0.00184007 0)
(0.131265 0.00172414 0)
(0.129038 0.00161753 0)
(0.126885 0.00151934 0)
(0.124804 0.00142881 0)
(0.122793 0.00134527 0)
(0.120849 0.00126813 0)
(0.118971 0.00119685 0)
(0.117157 0.00113094 0)
(0.115403 0.00106995 0)
(0.113708 0.00101347 0)
(0.11207 0.000961121 0)
(0.110486 0.000912557 0)
(0.108954 0.000867458 0)
(0.107472 0.000825531 0)
(0.106037 0.000786511 0)
(0.104648 0.000750153 0)
(0.103303 0.000716237 0)
(0.102 0.000684562 0)
(0.100736 0.000654943 0)
(0.0995106 0.000627215 0)
(0.0983213 0.000601225 0)
(0.0971667 0.000576837 0)
(0.0960452 0.000553924 0)
(0.0949553 0.000532372 0)
(0.0938956 0.000512078 0)
(0.0928647 0.000492947 0)
(0.0918614 0.000474891 0)
(0.0908844 0.000457832 0)
(0.0899326 0.000441696 0)
(0.089005 0.000426419 0)
(0.0881003 0.000411938 0)
(0.0872178 0.000398198 0)
(0.0863564 0.000385148 0)
(0.0855153 0.00037274 0)
(0.0846937 0.000360931 0)
(0.0838908 0.000349681 0)
(0.0831058 0.000338954 0)
(0.0823381 0.000328716 0)
(0.0815869 0.000318935 0)
(0.0808517 0.000309582 0)
(0.0801319 0.000300631 0)
(0.0794269 0.000292058 0)
(0.0787361 0.00028384 0)
(0.0780591 0.000275955 0)
(0.0773955 0.000268385 0)
(0.0767447 0.000261112 0)
(0.0761063 0.000254119 0)
(0.0754799 0.000247391 0)
(0.0748652 0.000240914 0)
(0.0742617 0.000234676 0)
(0.0736691 0.000228664 0)
(0.0730871 0.000222868 0)
(0.0725154 0.000217278 0)
(0.0719536 0.000211885 0)
(0.0714015 0.000206681 0)
(0.0708588 0.000201659 0)
(0.0703251 0.000196812 0)
(0.0698003 0.000192135 0)
(0.0692841 0.000187624 0)
(0.0687761 0.000183275 0)
(0.0682763 0.000179086 0)
(0.0677842 0.000175055 0)
(0.0672997 0.000171182 0)
(0.0668225 0.000167469 0)
(0.0663523 0.000163923 0)
(0.0658888 0.000160552 0)
(0.0654316 0.000157375 0)
(0.0649805 0.000154428 0)
(0.064535 0.000151791 0)
(0.0640942 0.000149654 0)
(0.0636569 0.000148525 0)
(0.0632203 0.000150211 0)
(0.0627901 0.000167047 0)
(0.0621414 0.000248176 0)
(0.193703 0.00839517 0)
(0.194754 0.00942669 0)
(0.195767 0.0100039 0)
(0.196538 0.0102777 0)
(0.19703 0.010323 0)
(0.197244 0.0101708 0)
(0.197168 0.00985482 0)
(0.196799 0.00941633 0)
(0.19615 0.00889637 0)
(0.19525 0.00833202 0)
(0.194131 0.00775495 0)
(0.19283 0.00719033 0)
(0.191381 0.00665614 0)
(0.189819 0.00616339 0)
(0.18817 0.00571708 0)
(0.18646 0.00531764 0)
(0.184705 0.00496239 0)
(0.182922 0.00464688 0)
(0.181119 0.00436595 0)
(0.179307 0.00411442 0)
(0.17749 0.00388755 0)
(0.175673 0.00368125 0)
(0.17386 0.00349215 0)
(0.172053 0.00331754 0)
(0.170256 0.00315532 0)
(0.16847 0.00300385 0)
(0.166699 0.00286188 0)
(0.164942 0.00272843 0)
(0.163203 0.00260274 0)
(0.161482 0.00248421 0)
(0.159781 0.00237231 0)
(0.158101 0.00226662 0)
(0.156444 0.00216674 0)
(0.154809 0.00207233 0)
(0.153198 0.00198306 0)
(0.151612 0.00189865 0)
(0.15005 0.00181881 0)
(0.148513 0.00174327 0)
(0.147001 0.00167178 0)
(0.145515 0.00160412 0)
(0.144054 0.00154005 0)
(0.142619 0.00147937 0)
(0.141209 0.00142188 0)
(0.139823 0.0013674 0)
(0.138463 0.00131573 0)
(0.137127 0.00126673 0)
(0.135816 0.00122023 0)
(0.134528 0.00117608 0)
(0.133264 0.00113415 0)
(0.132023 0.00109431 0)
(0.130805 0.00105643 0)
(0.129609 0.00102041 0)
(0.128435 0.000986117 0)
(0.127282 0.000953466 0)
(0.12615 0.000922357 0)
(0.125038 0.0008927 0)
(0.123946 0.00086441 0)
(0.122874 0.000837407 0)
(0.121821 0.000811618 0)
(0.120786 0.000786971 0)
(0.119769 0.000763401 0)
(0.11877 0.000740847 0)
(0.117788 0.00071925 0)
(0.116822 0.000698556 0)
(0.115873 0.000678715 0)
(0.11494 0.000659678 0)
(0.114023 0.000641402 0)
(0.11312 0.000623844 0)
(0.112232 0.000606966 0)
(0.111359 0.000590731 0)
(0.1105 0.000575106 0)
(0.109654 0.000560057 0)
(0.108822 0.000545556 0)
(0.108003 0.000531575 0)
(0.107196 0.000518089 0)
(0.106402 0.000505072 0)
(0.10562 0.000492504 0)
(0.10485 0.000480364 0)
(0.104091 0.000468633 0)
(0.103344 0.000457293 0)
(0.102608 0.00044633 0)
(0.101882 0.000435728 0)
(0.101168 0.000425476 0)
(0.100463 0.000415563 0)
(0.0997687 0.000405978 0)
(0.0990841 0.000396714 0)
(0.0984092 0.000387766 0)
(0.0977436 0.00037913 0)
(0.0970871 0.000370804 0)
(0.0964394 0.000362793 0)
(0.0958004 0.000355103 0)
(0.0951697 0.000347749 0)
(0.0945469 0.000340764 0)
(0.0939318 0.000334207 0)
(0.0933237 0.000328211 0)
(0.0927221 0.00032309 0)
(0.0921256 0.000319707 0)
(0.0915325 0.000321133 0)
(0.090947 0.000341739 0)
(0.0901805 0.000415868 0)
(0.194559 0.00783963 0)
(0.195414 0.0087719 0)
(0.196368 0.0093636 0)
(0.197271 0.00969618 0)
(0.198074 0.00983102 0)
(0.19876 0.00979734 0)
(0.199304 0.00961972 0)
(0.199684 0.00932787 0)
(0.199888 0.00895323 0)
(0.199916 0.0085256 0)
(0.199778 0.00807159 0)
(0.199488 0.00761355 0)
(0.199065 0.00716865 0)
(0.198528 0.00674864 0)
(0.197897 0.0063603 0)
(0.197188 0.00600626 0)
(0.196416 0.00568614 0)
(0.195592 0.00539758 0)
(0.194726 0.00513718 0)
(0.193825 0.00490117 0)
(0.192894 0.00468588 0)
(0.191937 0.00448803 0)
(0.190958 0.00430482 0)
(0.189958 0.00413397 0)
(0.18894 0.00397369 0)
(0.187906 0.00382256 0)
(0.186857 0.00367953 0)
(0.185796 0.00354376 0)
(0.184723 0.00341461 0)
(0.183641 0.00329158 0)
(0.18255 0.00317425 0)
(0.181452 0.00306228 0)
(0.180348 0.00295535 0)
(0.17924 0.0028532 0)
(0.178128 0.00275557 0)
(0.177014 0.00266224 0)
(0.175899 0.00257299 0)
(0.174783 0.00248761 0)
(0.173668 0.00240591 0)
(0.172554 0.0023277 0)
(0.171442 0.00225281 0)
(0.170332 0.00218108 0)
(0.169226 0.00211234 0)
(0.168124 0.00204645 0)
(0.167026 0.00198328 0)
(0.165933 0.00192268 0)
(0.164845 0.00186454 0)
(0.163763 0.00180874 0)
(0.162687 0.00175516 0)
(0.161617 0.00170371 0)
(0.160554 0.00165427 0)
(0.159498 0.00160676 0)
(0.15845 0.00156108 0)
(0.157408 0.00151716 0)
(0.156375 0.0014749 0)
(0.155349 0.00143423 0)
(0.154331 0.00139508 0)
(0.153322 0.00135738 0)
(0.15232 0.00132105 0)
(0.151327 0.00128605 0)
(0.150343 0.00125229 0)
(0.149367 0.00121974 0)
(0.148399 0.00118833 0)
(0.14744 0.00115801 0)
(0.14649 0.00112874 0)
(0.145548 0.00110045 0)
(0.144615 0.00107312 0)
(0.143691 0.0010467 0)
(0.142776 0.00102114 0)
(0.141869 0.000996413 0)
(0.14097 0.000972477 0)
(0.140081 0.0009493 0)
(0.1392 0.000926848 0)
(0.138328 0.000905092 0)
(0.137464 0.000884003 0)
(0.136609 0.000863553 0)
(0.135762 0.000843717 0)
(0.134923 0.000824472 0)
(0.134093 0.000805796 0)
(0.133272 0.000787668 0)
(0.132458 0.00077007 0)
(0.131653 0.000752985 0)
(0.130856 0.000736399 0)
(0.130067 0.000720298 0)
(0.129286 0.00070467 0)
(0.128513 0.000689509 0)
(0.127748 0.000674806 0)
(0.126991 0.00066056 0)
(0.126241 0.00064677 0)
(0.125499 0.000633441 0)
(0.124764 0.000620586 0)
(0.124036 0.00060823 0)
(0.123315 0.000596415 0)
(0.122601 0.00058523 0)
(0.121893 0.000574856 0)
(0.121192 0.000565716 0)
(0.120495 0.00055894 0)
(0.119803 0.000558095 0)
(0.119123 0.000574858 0)
(0.118295 0.000624273 0)
(0.195316 0.00736022 0)
(0.195974 0.00815778 0)
(0.19675 0.00871397 0)
(0.197542 0.00906096 0)
(0.198302 0.00923866 0)
(0.199009 0.00927122 0)
(0.199641 0.00917799 0)
(0.200179 0.00898159 0)
(0.200609 0.00870691 0)
(0.200927 0.00837833 0)
(0.201133 0.00801807 0)
(0.201233 0.00764527 0)
(0.201237 0.00727523 0)
(0.201156 0.0069191 0)
(0.201004 0.00658404 0)
(0.20079 0.00627379 0)
(0.200527 0.00598937 0)
(0.200221 0.00572996 0)
(0.199881 0.00549358 0)
(0.199512 0.0052777 0)
(0.199116 0.00507963 0)
(0.198698 0.00489683 0)
(0.19826 0.00472703 0)
(0.197802 0.0045683 0)
(0.197326 0.00441907 0)
(0.196834 0.00427807 0)
(0.196324 0.00414431 0)
(0.195799 0.004017 0)
(0.195259 0.00389553 0)
(0.194704 0.0037794 0)
(0.194136 0.00366822 0)
(0.193554 0.00356166 0)
(0.192959 0.00345944 0)
(0.192352 0.00336131 0)
(0.191734 0.00326706 0)
(0.191105 0.00317649 0)
(0.190466 0.00308941 0)
(0.189817 0.00300565 0)
(0.189158 0.00292506 0)
(0.188491 0.00284747 0)
(0.187815 0.00277274 0)
(0.187131 0.00270074 0)
(0.18644 0.00263135 0)
(0.185742 0.00256443 0)
(0.185037 0.00249988 0)
(0.184327 0.00243758 0)
(0.18361 0.00237744 0)
(0.182888 0.00231935 0)
(0.182161 0.00226322 0)
(0.181429 0.00220897 0)
(0.180693 0.0021565 0)
(0.179953 0.00210575 0)
(0.17921 0.00205663 0)
(0.178463 0.00200908 0)
(0.177713 0.00196303 0)
(0.17696 0.00191841 0)
(0.176205 0.00187515 0)
(0.175448 0.00183321 0)
(0.174689 0.00179253 0)
(0.173928 0.00175305 0)
(0.173166 0.00171472 0)
(0.172403 0.0016775 0)
(0.171639 0.00164134 0)
(0.170875 0.00160619 0)
(0.17011 0.00157202 0)
(0.169345 0.00153879 0)
(0.16858 0.00150645 0)
(0.167815 0.00147498 0)
(0.16705 0.00144434 0)
(0.166287 0.00141449 0)
(0.165524 0.00138542 0)
(0.164762 0.00135708 0)
(0.164002 0.00132946 0)
(0.163243 0.00130252 0)
(0.162485 0.00127625 0)
(0.16173 0.00125062 0)
(0.160976 0.00122561 0)
(0.160224 0.0012012 0)
(0.159474 0.00117738 0)
(0.158727 0.00115412 0)
(0.157982 0.00113142 0)
(0.15724 0.00110926 0)
(0.1565 0.00108762 0)
(0.155764 0.00106651 0)
(0.15503 0.00104591 0)
(0.154299 0.00102582 0)
(0.153571 0.00100624 0)
(0.152846 0.00098717 0)
(0.152125 0.000968617 0)
(0.151406 0.000950594 0)
(0.150691 0.000933121 0)
(0.14998 0.000916236 0)
(0.149271 0.000899997 0)
(0.148565 0.000884514 0)
(0.147863 0.000870005 0)
(0.147163 0.000856945 0)
(0.146467 0.000846479 0)
(0.145774 0.000841569 0)
(0.145096 0.000848542 0)
(0.144295 0.000864634 0)
(0.195995 0.0069525 0)
(0.196503 0.00762304 0)
(0.197116 0.00812709 0)
(0.197769 0.00846815 0)
(0.198419 0.00866642 0)
(0.199042 0.00873941 0)
(0.199619 0.00870263 0)
(0.200134 0.00857372 0)
(0.200576 0.00837241 0)
(0.20094 0.00811854 0)
(0.201224 0.00783056 0)
(0.201432 0.00752465 0)
(0.20157 0.00721417 0)
(0.201645 0.00690937 0)
(0.201666 0.00661734 0)
(0.201643 0.00634244 0)
(0.201583 0.0060867 0)
(0.201494 0.00585048 0)
(0.20138 0.00563296 0)
(0.201246 0.00543266 0)
(0.201096 0.00524777 0)
(0.200933 0.00507644 0)
(0.200757 0.00491689 0)
(0.20057 0.00476758 0)
(0.200372 0.00462716 0)
(0.200165 0.00449451 0)
(0.199948 0.00436873 0)
(0.199722 0.00424909 0)
(0.199487 0.004135 0)
(0.199242 0.00402598 0)
(0.198989 0.00392164 0)
(0.198726 0.00382166 0)
(0.198455 0.00372575 0)
(0.198174 0.00363367 0)
(0.197885 0.00354522 0)
(0.197588 0.00346018 0)
(0.197282 0.00337839 0)
(0.196967 0.00329967 0)
(0.196644 0.00322387 0)
(0.196313 0.00315083 0)
(0.195973 0.00308043 0)
(0.195625 0.00301252 0)
(0.195269 0.00294699 0)
(0.194906 0.00288371 0)
(0.194534 0.00282258 0)
(0.194155 0.00276349 0)
(0.193768 0.00270633 0)
(0.193374 0.00265103 0)
(0.192972 0.00259748 0)
(0.192563 0.0025456 0)
(0.192147 0.00249531 0)
(0.191723 0.00244654 0)
(0.191293 0.00239922 0)
(0.190856 0.00235327 0)
(0.190412 0.00230864 0)
(0.189962 0.00226525 0)
(0.189505 0.00222307 0)
(0.189042 0.00218202 0)
(0.188572 0.00214206 0)
(0.188097 0.00210315 0)
(0.187616 0.00206522 0)
(0.187129 0.00202824 0)
(0.186637 0.00199217 0)
(0.186139 0.00195697 0)
(0.185636 0.0019226 0)
(0.185128 0.00188902 0)
(0.184615 0.0018562 0)
(0.184097 0.00182412 0)
(0.183575 0.00179273 0)
(0.183048 0.00176202 0)
(0.182517 0.00173195 0)
(0.181982 0.00170251 0)
(0.181442 0.00167366 0)
(0.180899 0.00164539 0)
(0.180352 0.00161768 0)
(0.179802 0.00159051 0)
(0.179249 0.00156386 0)
(0.178692 0.00153772 0)
(0.178132 0.00151207 0)
(0.17757 0.00148691 0)
(0.177005 0.00146221 0)
(0.176437 0.00143798 0)
(0.175867 0.00141421 0)
(0.175295 0.0013909 0)
(0.17472 0.00136804 0)
(0.174144 0.00134563 0)
(0.173566 0.00132368 0)
(0.172986 0.0013022 0)
(0.172404 0.00128121 0)
(0.171822 0.00126071 0)
(0.171237 0.00124075 0)
(0.170652 0.00122138 0)
(0.170065 0.00120265 0)
(0.169477 0.0011847 0)
(0.168887 0.00116775 0)
(0.168297 0.00115222 0)
(0.167707 0.00113897 0)
(0.167119 0.00112954 0)
(0.166543 0.00112465 0)
(0.165864 0.00111004 0)
(0.196604 0.00660293 0)
(0.197 0.00716235 0)
(0.197481 0.00760686 0)
(0.198006 0.00792802 0)
(0.198544 0.00813283 0)
(0.199069 0.00823209 0)
(0.199566 0.00823728 0)
(0.200019 0.00816163 0)
(0.200419 0.00802017 0)
(0.200761 0.00782847 0)
(0.201042 0.00760148 0)
(0.201264 0.00735265 0)
(0.201431 0.00709345 0)
(0.201548 0.00683307 0)
(0.201622 0.00657836 0)
(0.201661 0.00633395 0)
(0.20167 0.00610258 0)
(0.201655 0.0058855 0)
(0.201622 0.00568287 0)
(0.201574 0.00549413 0)
(0.201515 0.00531829 0)
(0.201448 0.00515417 0)
(0.201373 0.00500054 0)
(0.201292 0.00485626 0)
(0.201207 0.00472027 0)
(0.201117 0.0045917 0)
(0.201024 0.00446976 0)
(0.200926 0.00435383 0)
(0.200825 0.00424337 0)
(0.200721 0.00413796 0)
(0.200613 0.0040372 0)
(0.200501 0.0039408 0)
(0.200386 0.00384848 0)
(0.200267 0.00376 0)
(0.200144 0.00367514 0)
(0.200017 0.0035937 0)
(0.199887 0.00351551 0)
(0.199752 0.00344039 0)
(0.199613 0.00336818 0)
(0.19947 0.00329873 0)
(0.199322 0.0032319 0)
(0.19917 0.00316756 0)
(0.199014 0.00310558 0)
(0.198853 0.00304583 0)
(0.198687 0.0029882 0)
(0.198516 0.00293258 0)
(0.198341 0.00287887 0)
(0.19816 0.00282697 0)
(0.197975 0.00277679 0)
(0.197784 0.00272823 0)
(0.197588 0.00268122 0)
(0.197387 0.00263567 0)
(0.197181 0.00259151 0)
(0.196969 0.00254867 0)
(0.196752 0.00250708 0)
(0.196529 0.00246668 0)
(0.196301 0.0024274 0)
(0.196067 0.00238918 0)
(0.195828 0.00235198 0)
(0.195584 0.00231574 0)
(0.195333 0.00228041 0)
(0.195078 0.00224595 0)
(0.194816 0.00221231 0)
(0.194549 0.00217945 0)
(0.194277 0.00214733 0)
(0.193999 0.00211591 0)
(0.193716 0.00208517 0)
(0.193427 0.00205506 0)
(0.193132 0.00202555 0)
(0.192833 0.00199663 0)
(0.192527 0.00196825 0)
(0.192217 0.0019404 0)
(0.191901 0.00191306 0)
(0.19158 0.00188619 0)
(0.191254 0.00185979 0)
(0.190923 0.00183383 0)
(0.190586 0.00180829 0)
(0.190245 0.00178317 0)
(0.189899 0.00175845 0)
(0.189548 0.00173412 0)
(0.189192 0.00171017 0)
(0.188831 0.0016866 0)
(0.188466 0.00166339 0)
(0.188096 0.00164055 0)
(0.187722 0.00161809 0)
(0.187343 0.001596 0)
(0.18696 0.00157429 0)
(0.186573 0.00155298 0)
(0.186181 0.00153208 0)
(0.185785 0.00151163 0)
(0.185385 0.00149165 0)
(0.184981 0.0014722 0)
(0.184574 0.00145336 0)
(0.184162 0.00143524 0)
(0.183746 0.00141802 0)
(0.183327 0.00140199 0)
(0.182906 0.00138749 0)
(0.182485 0.00137455 0)
(0.18207 0.00136001 0)
(0.181572 0.00132646 0)
(0.197121 0.00631087 0)
(0.197436 0.00678133 0)
(0.197815 0.00717048 0)
(0.198237 0.00746698 0)
(0.198677 0.00767058 0)
(0.199115 0.00778658 0)
(0.199535 0.00782262 0)
(0.199925 0.00778822 0)
(0.200276 0.00769452 0)
(0.200582 0.00755353 0)
(0.20084 0.00737712 0)
(0.201051 0.00717636 0)
(0.201218 0.00696099 0)
(0.201343 0.00673914 0)
(0.201431 0.00651719 0)
(0.201489 0.00629981 0)
(0.201521 0.00609016 0)
(0.201532 0.0058901 0)
(0.201527 0.00570053 0)
(0.201509 0.00552162 0)
(0.201481 0.00535306 0)
(0.201445 0.00519428 0)
(0.201405 0.00504456 0)
(0.20136 0.00490313 0)
(0.201312 0.00476927 0)
(0.201262 0.0046423 0)
(0.20121 0.00452165 0)
(0.201157 0.00440678 0)
(0.201102 0.00429725 0)
(0.201047 0.00419269 0)
(0.200991 0.00409277 0)
(0.200934 0.0039972 0)
(0.200877 0.00390574 0)
(0.200819 0.00381814 0)
(0.200759 0.00373422 0)
(0.200699 0.00365378 0)
(0.200639 0.00357665 0)
(0.200577 0.00350266 0)
(0.200514 0.00343165 0)
(0.200449 0.00336348 0)
(0.200384 0.00329801 0)
(0.200317 0.00323509 0)
(0.200248 0.00317461 0)
(0.200178 0.00311644 0)
(0.200106 0.00306045 0)
(0.200032 0.00300655 0)
(0.199957 0.00295462 0)
(0.199879 0.00290456 0)
(0.199799 0.00285627 0)
(0.199716 0.00280967 0)
(0.199631 0.00276466 0)
(0.199544 0.00272115 0)
(0.199454 0.00267908 0)
(0.199361 0.00263837 0)
(0.199265 0.00259894 0)
(0.199166 0.00256072 0)
(0.199064 0.00252365 0)
(0.198959 0.00248766 0)
(0.198851 0.00245271 0)
(0.19874 0.00241873 0)
(0.198625 0.00238567 0)
(0.198506 0.00235348 0)
(0.198384 0.00232211 0)
(0.198259 0.00229152 0)
(0.198129 0.00226166 0)
(0.197996 0.0022325 0)
(0.197859 0.00220399 0)
(0.197718 0.00217611 0)
(0.197574 0.00214881 0)
(0.197425 0.00212207 0)
(0.197272 0.00209585 0)
(0.197116 0.00207014 0)
(0.196955 0.00204489 0)
(0.19679 0.0020201 0)
(0.196621 0.00199573 0)
(0.196447 0.00197176 0)
(0.19627 0.00194819 0)
(0.196088 0.00192499 0)
(0.195902 0.00190215 0)
(0.195712 0.00187965 0)
(0.195517 0.0018575 0)
(0.195318 0.00183567 0)
(0.195115 0.00181417 0)
(0.194908 0.00179299 0)
(0.194696 0.00177214 0)
(0.19448 0.00175162 0)
(0.19426 0.00173143 0)
(0.194035 0.00171161 0)
(0.193806 0.00169215 0)
(0.193573 0.0016731 0)
(0.193335 0.00165449 0)
(0.193093 0.00163637 0)
(0.192847 0.00161881 0)
(0.192597 0.0016019 0)
(0.192342 0.00158575 0)
(0.192083 0.00157046 0)
(0.191822 0.00155595 0)
(0.191559 0.00154119 0)
(0.191298 0.0015217 0)
(0.190973 0.00148303 0)
(0.197581 0.00606478 0)
(0.197832 0.00646346 0)
(0.198133 0.00680267 0)
(0.19847 0.00707195 0)
(0.198826 0.00726795 0)
(0.199186 0.00739229 0)
(0.199535 0.00744948 0)
(0.199864 0.00744607 0)
(0.200165 0.0073901 0)
(0.200433 0.00729057 0)
(0.200663 0.00715673 0)
(0.200856 0.00699746 0)
(0.201012 0.00682084 0)
(0.201134 0.00663388 0)
(0.201225 0.00644233 0)
(0.201289 0.00625067 0)
(0.20133 0.00606218 0)
(0.201353 0.00587912 0)
(0.20136 0.00570287 0)
(0.201355 0.00553418 0)
(0.201341 0.00537328 0)
(0.201319 0.00522012 0)
(0.201293 0.00507441 0)
(0.201262 0.00493577 0)
(0.201229 0.00480377 0)
(0.201193 0.00467799 0)
(0.201157 0.00455801 0)
(0.20112 0.00444347 0)
(0.201082 0.00433402 0)
(0.201045 0.00422936 0)
(0.201007 0.00412922 0)
(0.20097 0.00403337 0)
(0.200933 0.00394159 0)
(0.200897 0.00385367 0)
(0.200861 0.00376944 0)
(0.200825 0.00368871 0)
(0.20079 0.00361133 0)
(0.200755 0.00353715 0)
(0.20072 0.003466 0)
(0.200686 0.00339775 0)
(0.200651 0.00333226 0)
(0.200617 0.00326941 0)
(0.200584 0.00320906 0)
(0.20055 0.00315109 0)
(0.200516 0.00309539 0)
(0.200482 0.00304184 0)
(0.200447 0.00299034 0)
(0.200413 0.00294078 0)
(0.200377 0.00289307 0)
(0.200342 0.00284712 0)
(0.200306 0.00280282 0)
(0.200269 0.0027601 0)
(0.200231 0.00271887 0)
(0.200193 0.00267907 0)
(0.200153 0.0026406 0)
(0.200113 0.0026034 0)
(0.200071 0.00256741 0)
(0.200028 0.00253256 0)
(0.199984 0.00249878 0)
(0.199938 0.00246602 0)
(0.199892 0.00243423 0)
(0.199843 0.00240334 0)
(0.199793 0.00237332 0)
(0.199741 0.00234411 0)
(0.199688 0.00231567 0)
(0.199632 0.00228795 0)
(0.199575 0.00226092 0)
(0.199516 0.00223453 0)
(0.199454 0.00220875 0)
(0.199391 0.00218355 0)
(0.199325 0.0021589 0)
(0.199257 0.00213475 0)
(0.199187 0.0021111 0)
(0.199115 0.0020879 0)
(0.19904 0.00206514 0)
(0.198962 0.0020428 0)
(0.198882 0.00202085 0)
(0.198799 0.00199928 0)
(0.198714 0.00197807 0)
(0.198626 0.0019572 0)
(0.198535 0.00193667 0)
(0.198442 0.00191647 0)
(0.198345 0.0018966 0)
(0.198246 0.00187704 0)
(0.198143 0.0018578 0)
(0.198038 0.00183889 0)
(0.197929 0.00182032 0)
(0.197818 0.00180209 0)
(0.197703 0.00178423 0)
(0.197585 0.00176677 0)
(0.197463 0.00174973 0)
(0.197339 0.00173318 0)
(0.197211 0.00171715 0)
(0.19708 0.00170172 0)
(0.196945 0.00168692 0)
(0.196808 0.00167272 0)
(0.196668 0.00165874 0)
(0.196526 0.00164365 0)
(0.196382 0.00162356 0)
(0.196192 0.00158941 0)
(0.198002 0.00584559 0)
(0.1982 0.00618558 0)
(0.198436 0.00648129 0)
(0.1987 0.00672418 0)
(0.198983 0.00690989 0)
(0.199272 0.00703783 0)
(0.199557 0.00711015 0)
(0.199828 0.00713096 0)
(0.20008 0.00710578 0)
(0.200307 0.00704111 0)
(0.200506 0.0069439 0)
(0.200677 0.00682109 0)
(0.200818 0.00667923 0)
(0.200931 0.00652418 0)
(0.201019 0.00636102 0)
(0.201085 0.00619388 0)
(0.20113 0.00602603 0)
(0.201158 0.00585991 0)
(0.201173 0.00569725 0)
(0.201176 0.00553921 0)
(0.20117 0.00538648 0)
(0.201157 0.00523942 0)
(0.201139 0.00509814 0)
(0.201117 0.00496262 0)
(0.201092 0.0048327 0)
(0.201065 0.0047082 0)
(0.201037 0.00458891 0)
(0.201008 0.00447459 0)
(0.200978 0.00436502 0)
(0.200949 0.00426 0)
(0.200919 0.00415932 0)
(0.20089 0.00406281 0)
(0.200862 0.00397027 0)
(0.200834 0.00388155 0)
(0.200807 0.00379647 0)
(0.20078 0.0037149 0)
(0.200754 0.00363668 0)
(0.20073 0.00356167 0)
(0.200705 0.00348972 0)
(0.200682 0.00342071 0)
(0.200659 0.00335451 0)
(0.200637 0.00329098 0)
(0.200615 0.00323001 0)
(0.200594 0.00317147 0)
(0.200574 0.00311526 0)
(0.200554 0.00306126 0)
(0.200535 0.00300936 0)
(0.200516 0.00295947 0)
(0.200498 0.00291149 0)
(0.200479 0.00286531 0)
(0.200461 0.00282086 0)
(0.200444 0.00277804 0)
(0.200426 0.00273678 0)
(0.200408 0.00269698 0)
(0.200391 0.00265859 0)
(0.200373 0.00262152 0)
(0.200356 0.0025857 0)
(0.200338 0.00255107 0)
(0.20032 0.00251758 0)
(0.200301 0.00248514 0)
(0.200283 0.00245372 0)
(0.200264 0.00242326 0)
(0.200245 0.0023937 0)
(0.200225 0.002365 0)
(0.200205 0.0023371 0)
(0.200184 0.00230998 0)
(0.200162 0.00228357 0)
(0.20014 0.00225785 0)
(0.200117 0.00223278 0)
(0.200093 0.00220832 0)
(0.200069 0.00218444 0)
(0.200043 0.0021611 0)
(0.200017 0.00213828 0)
(0.19999 0.00211596 0)
(0.199961 0.0020941 0)
(0.199932 0.00207268 0)
(0.199901 0.00205168 0)
(0.199869 0.00203109 0)
(0.199836 0.00201089 0)
(0.199802 0.00199105 0)
(0.199766 0.00197158 0)
(0.199729 0.00195246 0)
(0.19969 0.00193369 0)
(0.19965 0.00191525 0)
(0.199609 0.00189716 0)
(0.199565 0.00187942 0)
(0.199521 0.00186203 0)
(0.199474 0.00184501 0)
(0.199425 0.00182838 0)
(0.199375 0.00181216 0)
(0.199323 0.00179639 0)
(0.199269 0.0017811 0)
(0.199213 0.00176634 0)
(0.199155 0.00175213 0)
(0.199095 0.00173848 0)
(0.199033 0.00172527 0)
(0.19897 0.00171205 0)
(0.198905 0.00169771 0)
(0.198836 0.0016798 0)
(0.198737 0.0016545 0)
(0.198391 0.0056545 0)
(0.198545 0.00594716 0)
(0.198725 0.00620599 0)
(0.198928 0.00642442 0)
(0.199146 0.00659821 0)
(0.199372 0.00672574 0)
(0.199596 0.0068076 0)
(0.199813 0.00684608 0)
(0.200017 0.00684477 0)
(0.200203 0.00680817 0)
(0.200369 0.00674134 0)
(0.200514 0.00664954 0)
(0.200636 0.00653793 0)
(0.200737 0.00641132 0)
(0.200818 0.00627403 0)
(0.20088 0.00612979 0)
(0.200925 0.00598168 0)
(0.200956 0.00583218 0)
(0.200975 0.00568321 0)
(0.200984 0.0055362 0)
(0.200984 0.00539217 0)
(0.200978 0.00525183 0)
(0.200966 0.00511561 0)
(0.200951 0.00498378 0)
(0.200933 0.00485647 0)
(0.200912 0.00473371 0)
(0.20089 0.00461547 0)
(0.200867 0.00450168 0)
(0.200844 0.00439223 0)
(0.20082 0.00428702 0)
(0.200797 0.00418592 0)
(0.200773 0.00408881 0)
(0.20075 0.00399556 0)
(0.200728 0.00390603 0)
(0.200706 0.00382009 0)
(0.200685 0.00373762 0)
(0.200664 0.00365848 0)
(0.200644 0.00358255 0)
(0.200625 0.0035097 0)
(0.200607 0.0034398 0)
(0.200589 0.00337273 0)
(0.200572 0.00330836 0)
(0.200556 0.00324659 0)
(0.20054 0.00318729 0)
(0.200525 0.00313036 0)
(0.200511 0.00307568 0)
(0.200497 0.00302315 0)
(0.200484 0.00297267 0)
(0.200472 0.00292414 0)
(0.20046 0.00287746 0)
(0.200448 0.00283255 0)
(0.200437 0.00278932 0)
(0.200427 0.00274768 0)
(0.200416 0.00270755 0)
(0.200406 0.00266886 0)
(0.200397 0.00263154 0)
(0.200387 0.0025955 0)
(0.200378 0.0025607 0)
(0.200369 0.00252706 0)
(0.20036 0.00249453 0)
(0.200352 0.00246303 0)
(0.200343 0.00243253 0)
(0.200335 0.00240297 0)
(0.200327 0.00237429 0)
(0.200318 0.00234646 0)
(0.20031 0.00231942 0)
(0.200302 0.00229313 0)
(0.200293 0.00226756 0)
(0.200284 0.00224266 0)
(0.200276 0.0022184 0)
(0.200267 0.00219475 0)
(0.200258 0.00217167 0)
(0.200249 0.00214913 0)
(0.200239 0.00212711 0)
(0.200229 0.00210558 0)
(0.200219 0.00208452 0)
(0.200209 0.00206391 0)
(0.200198 0.00204373 0)
(0.200186 0.00202395 0)
(0.200175 0.00200458 0)
(0.200162 0.00198558 0)
(0.20015 0.00196697 0)
(0.200136 0.00194872 0)
(0.200122 0.00193084 0)
(0.200108 0.00191333 0)
(0.200093 0.00189619 0)
(0.200077 0.00187943 0)
(0.20006 0.00186307 0)
(0.200043 0.00184712 0)
(0.200025 0.0018316 0)
(0.200005 0.00181655 0)
(0.199985 0.001802 0)
(0.199964 0.00178797 0)
(0.199943 0.00177449 0)
(0.19992 0.00176154 0)
(0.199896 0.00174899 0)
(0.199871 0.00173651 0)
(0.199845 0.00172343 0)
(0.199815 0.00170874 0)
(0.199767 0.00169202 0)
(0.198755 0.00549143 0)
(0.198869 0.00574677 0)