/*--------------------------------*- C++ -*----------------------------------*\
| =========                 |                                                 |
| \\      /  F ield         | OpenFOAM: The Open Source CFD Toolbox           |
|  \\    /   O peration     | Version:  2.3.0                                 |
|   \\  /    A nd           | Web:      www.OpenFOAM.org                      |
|    \\/     M anipulation  |                                                 |
\*---------------------------------------------------------------------------*/
FoamFile
{
    version     2.0;
    format      ascii;
    class       volScalarField;
    location    "0.05";
    object      p;
}
// * * * * * * * * * * * * * * * * * * * * * * * * * * * * * * * * * * * * * //

dimensions      [0 2 -2 0 0 0 0];

internalField   nonuniform List<scalar> 
2000
(
0.00201624
0.00141603
0.000924766
0.000572173
0.000282381
2.31944e-05
-0.000205361
-0.000398302
-0.000553854
-0.000672891
-0.000757796
-0.000811866
-0.000838698
-0.00084158
-0.000823234
-0.00078596
-0.000731989
-0.000664306
-0.000586001
-0.000503925
-0.00042631
-0.000358253
-0.000301004
-0.00025389
-0.000215525
-0.000184371
-0.000158999
-0.00013818
-0.000120903
-0.000106374
-9.39887e-05
-8.32951e-05
-7.39595e-05
-6.57366e-05
-5.84451e-05
-5.19499e-05
-4.61483e-05
-4.09591e-05
-3.63163e-05
-3.21641e-05
-2.84538e-05
-2.51424e-05
-2.21908e-05
-1.95636e-05
-1.72284e-05
-1.51555e-05
-1.33178e-05
-1.16906e-05
-1.02515e-05
-8.98032e-06
-7.85861e-06
-6.86992e-06
-5.99941e-06
-5.23377e-06
-4.56108e-06
-3.97068e-06
-3.45306e-06
-2.99975e-06
-2.60317e-06
-2.2566e-06
-1.95406e-06
-1.69024e-06
-1.46044e-06
-1.2605e-06
-1.08672e-06
-9.35849e-07
-8.05016e-07
-6.91687e-07
-5.93634e-07
-5.08898e-07
-4.35754e-07
-3.72688e-07
-3.18374e-07
-2.71651e-07
-2.31503e-07
-1.97054e-07
-1.67526e-07
-1.42254e-07
-1.20652e-07
-1.02204e-07
-8.64814e-08
-7.30695e-08
-6.16776e-08
-5.19633e-08
-4.37437e-08
-3.6731e-08
-3.08217e-08
-2.57676e-08
-2.15245e-08
-1.78877e-08
-1.48397e-08
-1.2226e-08
-1.00081e-08
-8.11008e-09
-6.4747e-09
-5.05787e-09
-3.80963e-09
-2.68105e-09
-1.65478e-09
-7.90902e-10
0.00171446
0.0012949
0.000897268
0.000579876
0.000305832
5.47753e-05
-0.000170243
-0.00036254
-0.000519221
-0.000640554
-0.000728587
-0.000786366
-0.000817251
-0.00082427
-0.000809914
-0.000776421
-0.00072566
-0.000658859
-0.000581426
-0.000502136
-0.000426354
-0.000359063
-0.000302004
-0.000254797
-0.000216231
-0.000184872
-0.000159324
-0.000138367
-0.000120997
-0.000106412
-9.39969e-05
-8.329e-05
-7.39498e-05
-6.57262e-05
-5.84364e-05
-5.19438e-05
-4.61447e-05
-4.09575e-05
-3.63161e-05
-3.21648e-05
-2.84551e-05
-2.51439e-05
-2.21925e-05
-1.95654e-05
-1.72301e-05
-1.51572e-05
-1.33194e-05
-1.16921e-05
-1.0253e-05
-8.98168e-06
-7.85989e-06
-6.87111e-06
-6.00052e-06
-5.23479e-06
-4.56201e-06
-3.97154e-06
-3.45385e-06
-3.00046e-06
-2.60381e-06
-2.25718e-06
-1.95458e-06
-1.69071e-06
-1.46085e-06
-1.26086e-06
-1.08704e-06
-9.36127e-07
-8.05257e-07
-6.91894e-07
-5.93812e-07
-5.09048e-07
-4.3588e-07
-3.72793e-07
-3.18458e-07
-2.71718e-07
-2.31554e-07
-1.97091e-07
-1.67551e-07
-1.42268e-07
-1.20659e-07
-1.02201e-07
-8.64737e-08
-7.3055e-08
-6.16597e-08
-5.19403e-08
-4.37194e-08
-3.67031e-08
-3.07939e-08
-2.57377e-08
-2.14948e-08
-1.78561e-08
-1.48044e-08
-1.21878e-08
-9.96628e-09
-8.06971e-09
-6.43454e-09
-5.0184e-09
-3.77179e-09
-2.64375e-09
-1.61476e-09
-8.0035e-10
0.00148703
0.00118687
0.00085873
0.000570647
0.000315327
8.07225e-05
-0.00013132
-0.000315081
-0.000467465
-0.000588144
-0.000678384
-0.000740329
-0.000776455
-0.000789085
-0.00078021
-0.000751636
-0.000705151
-0.000642959
-0.000569645
-0.000492904
-0.000420577
-0.000356129
-0.000300951
-0.000254843
-0.000216833
-0.00018568
-0.000160135
-0.000139077
-0.000121561
-0.000106825
-9.42741e-05
-8.34558e-05
-7.40307e-05
-6.5747e-05
-5.8417e-05
-5.18996e-05
-4.60868e-05
-4.08937e-05
-3.62515e-05
-3.21025e-05
-2.83969e-05
-2.50908e-05
-2.21446e-05
-1.95227e-05
-1.71924e-05
-1.51239e-05
-1.32902e-05
-1.16667e-05
-1.02308e-05
-8.9624e-06
-7.84316e-06
-6.85662e-06
-5.98798e-06
-5.22397e-06
-4.55268e-06
-3.96351e-06
-3.44694e-06
-2.99453e-06
-2.59874e-06
-2.25283e-06
-1.95087e-06
-1.68753e-06
-1.45815e-06
-1.25856e-06
-1.08508e-06
-9.3446e-07
-8.03842e-07
-6.90695e-07
-5.92796e-07
-5.08189e-07
-4.35154e-07
-3.72179e-07
-3.1794e-07
-2.7128e-07
-2.31185e-07
-1.96779e-07
-1.67288e-07
-1.42046e-07
-1.20471e-07
-1.02042e-07
-8.63383e-08
-7.29396e-08
-6.15604e-08
-5.18552e-08
-4.3645e-08
-3.66389e-08
-3.07326e-08
-2.56752e-08
-2.14311e-08
-1.78014e-08
-1.47548e-08
-1.21487e-08
-9.93354e-09
-8.04435e-09
-6.41348e-09
-5.00037e-09
-3.75707e-09
-2.6315e-09
-1.61331e-09
-8.05052e-10
0.00128424
0.00106186
0.000795661
0.000544299
0.000315663
0.000104459
-8.8265e-05
-0.00025787
-0.000401094
-0.000516917
-0.000605777
-0.000668942
-0.000708081
-0.000724929
-0.000721135
-0.000698374
-0.000658586
-0.000604409
-0.000539987
-0.000471993
-0.000407108
-0.000348309
-0.000297054
-0.000253394
-0.000216756
-0.000186261
-0.000160937
-0.000139855
-0.000122198
-0.000107283
-9.45595e-05
-8.35947e-05
-7.40561e-05
-6.56908e-05
-5.83069e-05
-5.17575e-05
-4.59289e-05
-4.07316e-05
-3.6093e-05
-3.19525e-05
-2.82581e-05
-2.49643e-05
-2.20308e-05
-1.94212e-05
-1.71024e-05
-1.50445e-05
-1.32205e-05
-1.16055e-05
-1.01773e-05
-8.91575e-06
-7.80253e-06
-6.82129e-06
-5.95731e-06
-5.19737e-06
-4.52966e-06
-3.9436e-06
-3.42976e-06
-2.97972e-06
-2.58598e-06
-2.24186e-06
-1.94144e-06
-1.67945e-06
-1.45122e-06
-1.25263e-06
-1.08001e-06
-9.30137e-07
-8.00157e-07
-6.87557e-07
-5.90129e-07
-5.05924e-07
-4.33233e-07
-3.70552e-07
-3.16563e-07
-2.70117e-07
-2.30204e-07
-1.95952e-07
-1.66593e-07
-1.41461e-07
-1.1998e-07
-1.0163e-07
-8.59918e-08
-7.26499e-08
-6.1316e-08
-5.16515e-08
-4.34678e-08
-3.64845e-08
-3.0597e-08
-2.55679e-08
-2.13431e-08
-1.77344e-08
-1.46982e-08
-1.21065e-08
-9.90036e-09
-8.01972e-09
-6.39568e-09
-4.98722e-09
-3.74903e-09
-2.6285e-09
-1.6186e-09
-7.46253e-10
0.0010992
0.000932271
0.000722597
0.000511412
0.000312073
0.000125308
-4.70013e-05
-0.000200796
-0.000332757
-0.000441354
-0.00052642
-0.000588602
-0.000629014
-0.000648984
-0.000649949
-0.000633519
-0.000601672
-0.000557056
-0.000503414
-0.000445695
-0.000389192
-0.000336666
-0.000290017
-0.000249452
-0.000214766
-0.000185416
-0.000160694
-0.000139873
-0.000122277
-0.000107319
-9.45106e-05
-8.34545e-05
-7.38366e-05
-6.54123e-05
-5.7991e-05
-5.14236e-05
-4.55924e-05
-4.04042e-05
-3.57828e-05
-3.16644e-05
-2.79945e-05
-2.47259e-05
-2.1817e-05
-1.92307e-05
-1.69335e-05
-1.48955e-05
-1.30893e-05
-1.14903e-05
-1.00764e-05
-8.82749e-06
-7.72547e-06
-6.75412e-06
-5.89883e-06
-5.14653e-06
-4.48552e-06
-3.90533e-06
-3.39661e-06
-2.95105e-06
-2.56121e-06
-2.22048e-06
-1.92301e-06
-1.66358e-06
-1.43758e-06
-1.24091e-06
-1.06996e-06
-9.2152e-07
-7.92781e-07
-6.81251e-07
-5.84743e-07
-5.0133e-07
-4.29319e-07
-3.67221e-07
-3.13731e-07
-2.67713e-07
-2.28165e-07
-1.94225e-07
-1.65132e-07
-1.40226e-07
-1.18937e-07
-1.00749e-07
-8.52478e-08
-7.20238e-08
-6.07846e-08
-5.1204e-08
-4.30882e-08
-3.61701e-08
-3.03317e-08
-2.53508e-08
-2.11591e-08
-1.75848e-08
-1.45715e-08
-1.20046e-08
-9.81761e-09
-7.95316e-09
-6.34355e-09
-4.94575e-09
-3.71762e-09
-2.60604e-09
-1.59888e-09
-6.63576e-10
0.000937146
0.000809506
0.000645988
0.000472256
0.000301712
0.000139031
-1.26768e-05
-0.000149743
-0.000269046
-0.000368802
-0.000448414
-0.000508069
-0.000548451
-0.000570559
-0.000575623
-0.000565137
-0.000540976
-0.000505571
-0.000462084
-0.000414324
-0.000366124
-0.000320814
-0.00027936
-0.000242479
-0.000210315
-0.000182601
-0.000158884
-0.000138642
-0.000121354
-0.000106543
-9.37936e-05
-8.27567e-05
-7.31445e-05
-6.47281e-05
-5.73224e-05
-5.07802e-05
-4.49839e-05
-3.98368e-05
-3.526e-05
-3.11874e-05
-2.7563e-05
-2.43383e-05
-2.14708e-05
-1.89229e-05
-1.66609e-05
-1.46548e-05
-1.28773e-05
-1.13041e-05
-9.91314e-06
-8.68454e-06
-7.60051e-06
-6.64503e-06
-5.80373e-06
-5.06373e-06
-4.41352e-06
-3.84279e-06
-3.34236e-06
-2.90404e-06
-2.52052e-06
-2.18531e-06
-1.89264e-06
-1.63739e-06
-1.41501e-06
-1.22149e-06
-1.05326e-06
-9.0718e-07
-7.80481e-07
-6.70714e-07
-5.75726e-07
-4.93622e-07
-4.22737e-07
-3.61608e-07
-3.0895e-07
-2.63644e-07
-2.24709e-07
-1.91291e-07
-1.62645e-07
-1.3812e-07
-1.17154e-07
-9.92434e-08
-8.39742e-08
-7.09503e-08
-5.98774e-08
-5.04425e-08
-4.24449e-08
-3.56331e-08
-2.98779e-08
-2.49754e-08
-2.0843e-08
-1.73255e-08
-1.43545e-08
-1.18276e-08
-9.67345e-09
-7.83614e-09
-6.25085e-09
-4.87229e-09
-3.66107e-09
-2.56428e-09
-1.56279e-09
-6.01776e-10
0.00079531
0.000695322
0.000567612
0.000426972
0.000284156
0.000145241
1.41327e-05
-0.000105773
-0.000211633
-0.000301573
-0.000374681
-0.000430779
-0.000470199
-0.000493648
-0.000502136
-0.000496976
-0.000479843
-0.00045285
-0.000418591
-0.000380038
-0.000340188
-0.000301526
-0.000265335
-0.000232458
-0.000203174
-0.000177468
-0.000155112
-0.000135771
-0.00011907
-0.000104639
-9.21395e-05
-8.12748e-05
-7.17941e-05
-6.34854e-05
-5.61762e-05
-4.9725e-05
-4.40161e-05
-3.8954e-05
-3.44592e-05
-3.04651e-05
-2.69148e-05
-2.37592e-05
-2.09554e-05
-1.84657e-05
-1.62566e-05
-1.42981e-05
-1.25633e-05
-1.10282e-05
-9.67102e-06
-8.47245e-06
-7.41499e-06
-6.48296e-06
-5.66233e-06
-4.94051e-06
-4.30627e-06
-3.74955e-06
-3.2614e-06
-2.83381e-06
-2.45968e-06
-2.13266e-06
-1.84712e-06
-1.59808e-06
-1.38111e-06
-1.19228e-06
-1.02813e-06
-8.85577e-07
-7.61932e-07
-6.54805e-07
-5.62097e-07
-4.81961e-07
-4.1277e-07
-3.53098e-07
-3.01694e-07
-2.57465e-07
-2.19452e-07
-1.86825e-07
-1.58856e-07
-1.34908e-07
-1.14434e-07
-9.69423e-08
-8.20278e-08
-6.93084e-08
-5.84904e-08
-4.92765e-08
-4.14614e-08
-3.48104e-08
-2.91853e-08
-2.44001e-08
-2.03606e-08
-1.69273e-08
-1.40231e-08
-1.15556e-08
-9.45166e-09
-7.65596e-09
-6.10757e-09
-4.75952e-09
-3.57445e-09
-2.50098e-09
-1.51463e-09
-5.60642e-10
0.000670276
0.000590641
0.000490654
0.000378342
0.000261197
0.000144972
3.377e-05
-6.92236e-05
-0.000161436
-0.000241015
-0.000306873
-0.000358569
-0.000396161
-0.000420101
-0.000431172
-0.000430467
-0.000419404
-0.000399742
-0.000373567
-0.000343188
-0.000310909
-0.000278678
-0.000247806
-0.000219124
-0.000193053
-0.000169736
-0.00014912
-0.000131027
-0.000115215
-0.000101419
-8.93807e-05
-7.88612e-05
-6.96489e-05
-6.15602e-05
-5.44393e-05
-4.81551e-05
-4.25979e-05
-3.76753e-05
-3.33095e-05
-2.94347e-05
-2.59941e-05
-2.29392e-05
-2.02271e-05
-1.78206e-05
-1.56864e-05
-1.37952e-05
-1.21205e-05
-1.0639e-05
-9.32954e-06
-8.17322e-06
-7.15312e-06
-6.25409e-06
-5.46254e-06
-4.76632e-06
-4.15457e-06
-3.61759e-06
-3.14674e-06
-2.7343e-06
-2.37341e-06
-2.05795e-06
-1.7825e-06
-1.54225e-06
-1.33292e-06
-1.15074e-06
-9.92348e-07
-8.54801e-07
-7.35489e-07
-6.3211e-07
-5.42642e-07
-4.65302e-07
-3.98522e-07
-3.40926e-07
-2.91308e-07
-2.48614e-07
-2.11919e-07
-1.80421e-07
-1.53418e-07
-1.30296e-07
-1.10525e-07
-9.36353e-08
-7.92305e-08
-6.69475e-08
-5.64972e-08
-4.75997e-08
-4.00489e-08
-3.36272e-08
-2.81914e-08
-2.35723e-08
-1.96682e-08
-1.6354e-08
-1.35474e-08
-1.11643e-08
-9.13246e-09
-7.39697e-09
-5.90126e-09
-4.59795e-09
-3.45113e-09
-2.41241e-09
-1.45428e-09
-5.29772e-10
0.000564648
0.000500036
0.000420682
0.000330882
0.000235503
0.000139259
4.59431e-05
-4.15235e-05
-0.000120836
-0.000190265
-0.000248672
-0.000295469
-0.000330526
-0.000354091
-0.000366736
-0.000369333
-0.000363036
-0.000349272
-0.000329699
-0.000306119
-0.000280318
-0.000253854
-0.000227903
-0.000203266
-0.000180431
-0.000159647
-0.00014098
-0.000124372
-0.000109687
-9.67527e-05
-8.53808e-05
-7.5387e-05
-6.65994e-05
-5.8863e-05
-5.20416e-05
-4.60177e-05
-4.06902e-05
-3.59727e-05
-3.17913e-05
-2.80827e-05
-2.47923e-05
-2.18727e-05
-1.92825e-05
-1.69854e-05
-1.49493e-05
-1.31456e-05
-1.1549e-05
-1.01368e-05
-8.88886e-06
-7.78703e-06
-6.81512e-06
-5.9586e-06
-5.20452e-06
-4.54128e-06
-3.95852e-06
-3.44699e-06
-2.99844e-06
-2.60553e-06
-2.26172e-06
-1.96119e-06
-1.69876e-06
-1.46986e-06
-1.27041e-06
-1.09682e-06
-9.45896e-07
-8.14824e-07
-7.01123e-07
-6.02602e-07
-5.17334e-07
-4.4362e-07
-3.79969e-07
-3.25069e-07
-2.77772e-07
-2.37072e-07
-2.0209e-07
-1.72061e-07
-1.46316e-07
-1.24269e-07
-1.05417e-07
-8.93111e-08
-7.55726e-08
-6.38587e-08
-5.38902e-08
-4.5405e-08
-3.82014e-08
-3.2078e-08
-2.68914e-08
-2.24876e-08
-1.87622e-08
-1.56022e-08
-1.29243e-08
-1.06512e-08
-8.71332e-09
-7.05707e-09
-5.63014e-09
-4.3861e-09
-3.29034e-09
-2.29843e-09
-1.38188e-09
-5.01721e-10
0.000472886
0.000420216
0.000356955
0.000285333
0.000208375
0.000129656
5.23979e-05
-2.08409e-05
-8.80433e-05
-0.000147654
-0.000198574
-0.000240153
-0.000272135
-0.000294611
-0.000307972
-0.00031288
-0.000310241
-0.00030118
-0.000286996
-0.000269086
-0.000248838
-0.000227499
-0.000206072
-0.000185299
-0.00016568
-0.000147516
-0.000130951
-0.000116012
-0.000102649
-9.07637e-05
-8.02304e-05
-7.09153e-05
-6.26855e-05
-5.54159e-05
-4.89921e-05
-4.33119e-05
-3.82856e-05
-3.38347e-05
-2.98908e-05
-2.63946e-05
-2.32945e-05
-2.05456e-05
-1.81083e-05
-1.5948e-05
-1.40341e-05
-1.23393e-05
-1.08397e-05
-9.51363e-06
-8.34205e-06
-7.30781e-06
-6.39562e-06
-5.59183e-06
-4.8842e-06
-4.26184e-06
-3.71502e-06
-3.23504e-06
-2.81416e-06
-2.44548e-06
-2.12286e-06
-1.84085e-06
-1.59459e-06
-1.37978e-06
-1.19261e-06
-1.02969e-06
-8.88039e-07
-7.65017e-07
-6.58294e-07
-5.65815e-07
-4.85773e-07
-4.16574e-07
-3.56819e-07
-3.05277e-07
-2.60871e-07
-2.22657e-07
-1.89811e-07
-1.61613e-07
-1.37437e-07
-1.16734e-07
-9.9028e-08
-8.39009e-08
-7.09956e-08
-5.99929e-08
-5.06278e-08
-4.26577e-08
-3.58893e-08
-3.01382e-08
-2.52644e-08
-2.11288e-08
-1.76279e-08
-1.46598e-08
-1.21436e-08
-1.00078e-08
-8.1875e-09
-6.63082e-09
-5.28986e-09
-4.12059e-09
-3.08963e-09
-2.15727e-09
-1.29526e-09
-4.70994e-10
0.000388867
0.00034642
0.000296489
0.000240169
0.000179257
0.000116311
5.38759e-05
-5.93481e-06
-6.14263e-05
-0.00011126
-0.000154442
-0.000190327
-0.000218597
-0.000239228
-0.000252459
-0.000258762
-0.000258817
-0.000253478
-0.00024373
-0.000230636
-0.000215255
-0.000198566
-0.000181394
-0.000164387
-0.000148019
-0.000132605
-0.000118334
-0.000105292
-9.34896e-05
-8.28885e-05
-7.34167e-05
-6.4985e-05
-5.74974e-05
-5.08577e-05
-4.49743e-05
-3.97623e-05
-3.51451e-05
-3.1054e-05
-2.74283e-05
-2.42145e-05
-2.13656e-05
-1.88403e-05
-1.66022e-05
-1.46192e-05
-1.2863e-05
-1.13085e-05
-9.93326e-06
-8.71756e-06
-7.64367e-06
-6.69582e-06
-5.85993e-06
-5.12343e-06
-4.4751e-06
-3.90491e-06
-3.40394e-06
-2.96421e-06
-2.57863e-06
-2.24087e-06
-1.94531e-06
-1.68694e-06
-1.46133e-06
-1.26452e-06
-1.09302e-06
-9.43744e-07
-8.13949e-07
-7.01218e-07
-6.03419e-07
-5.18671e-07
-4.45316e-07
-3.81896e-07
-3.27128e-07
-2.79886e-07
-2.39183e-07
-2.04155e-07
-1.74046e-07
-1.48197e-07
-1.26033e-07
-1.07052e-07
-9.08174e-08
-7.69471e-08
-6.51126e-08
-5.50231e-08
-4.64339e-08
-3.91253e-08
-3.29171e-08
-2.76436e-08
-2.31729e-08
-1.9381e-08
-1.61695e-08
-1.34477e-08
-1.11397e-08
-9.18049e-09
-7.51103e-09
-6.08275e-09
-4.85239e-09
-3.77961e-09
-2.8329e-09
-1.97759e-09
-1.18693e-09
-4.33226e-10
0.000311333
0.000277879
0.000239253
0.000195941
0.000148965
0.000100074
5.11581e-05
3.85958e-06
-4.04684e-05
-8.07303e-05
-0.000116082
-0.000145936
-0.000169963
-0.000188068
-0.000200374
-0.000207194
-0.000209008
-0.000206436
-0.0002002
-0.000191081
-0.000179871
-0.000167312
-0.00015406
-0.00014065
-0.0001275
-0.00011491
-0.000103079
-9.21238e-05
-8.20964e-05
-7.29997e-05
-6.48036e-05
-5.7457e-05
-5.08965e-05
-4.50536e-05
-3.98594e-05
-3.52473e-05
-3.11552e-05
-2.75259e-05
-2.4308e-05
-2.14554e-05
-1.89269e-05
-1.66863e-05
-1.47011e-05
-1.29429e-05
-1.13864e-05
-1.0009e-05
-8.79098e-06
-7.71449e-06
-6.76378e-06
-5.92481e-06
-5.18505e-06
-4.53331e-06
-3.95965e-06
-3.45516e-06
-3.01193e-06
-2.6229e-06
-2.28177e-06
-1.98296e-06
-1.72147e-06
-1.49288e-06
-1.29327e-06
-1.11913e-06
-9.67391e-07
-8.35304e-07
-7.20452e-07
-6.20696e-07
-5.34149e-07
-4.59148e-07
-3.94227e-07
-3.38097e-07
-2.89622e-07
-2.47807e-07
-2.11778e-07
-1.80771e-07
-1.54117e-07
-1.31234e-07
-1.11612e-07
-9.48063e-08
-8.04317e-08
-6.81498e-08
-5.76694e-08
-4.87346e-08
-4.11274e-08
-3.46551e-08
-2.91563e-08
-2.44864e-08
-2.05263e-08
-1.71683e-08
-1.43235e-08
-1.19129e-08
-9.86863e-09
-8.13293e-09
-6.65419e-09
-5.3887e-09
-4.29846e-09
-3.34799e-09
-2.50867e-09
-1.75108e-09
-1.05106e-09
-3.85121e-10
0.000238878
0.000213522
0.000184707
0.000152608
0.00011778
8.13681e-05
4.46976e-05
8.96482e-06
-2.48164e-05
-5.58041e-05
-8.33287e-05
-0.000106903
-0.000126227
-0.000141178
-0.000151798
-0.000158279
-0.000160939
-0.000160203
-0.000156574
-0.000150605
-0.00014286
-0.000133881
-0.000124159
-0.000114114
-0.000104083
-9.43276e-05
-8.50317e-05
-7.63174e-05
-6.82543e-05
-6.08706e-05
-5.41644e-05
-4.81126e-05
-4.26784e-05
-3.78171e-05
-3.34804e-05
-2.96196e-05
-2.61875e-05
-2.31395e-05
-2.04347e-05
-1.80358e-05
-1.59089e-05
-1.4024e-05
-1.23542e-05
-1.08755e-05
-9.56658e-06
-8.40864e-06
-7.3848e-06
-6.48011e-06
-5.68126e-06
-4.97639e-06
-4.35493e-06
-3.80748e-06
-3.32564e-06
-2.90193e-06
-2.52969e-06
-2.20297e-06
-1.91648e-06
-1.66554e-06
-1.44594e-06
-1.25397e-06
-1.08632e-06
-9.40081e-07
-8.1264e-07
-7.01703e-07
-6.05239e-07
-5.21452e-07
-4.48757e-07
-3.85759e-07
-3.31226e-07
-2.84075e-07
-2.43353e-07
-2.08225e-07
-1.77957e-07
-1.51907e-07
-1.29514e-07
-1.10288e-07
-9.38006e-08
-7.96798e-08
-6.76006e-08
-5.72796e-08
-4.84717e-08
-4.09627e-08
-3.4569e-08
-2.91295e-08
-2.45075e-08
-2.05828e-08
-1.72542e-08
-1.4432e-08
-1.20409e-08
-1.00147e-08
-8.29637e-09
-6.8372e-09
-5.5942e-09
-4.53029e-09
-3.61358e-09
-2.81456e-09
-2.10873e-09
-1.47216e-09
-8.84276e-10
-3.2558e-10
0.000169996
0.000152113
0.000132048
0.000109835
8.57574e-05
6.05213e-05
3.49896e-05
9.96373e-06
-1.38604e-05
-3.58917e-05
-5.56481e-05
-7.27664e-05
-8.7008e-05
-9.82572e-05
-0.000106513
-0.00011188
-0.000114552
-0.000114798
-0.000112946
-0.000109356
-0.000104404
-9.84586e-05
-9.18599e-05
-8.49073e-05
-7.78511e-05
-7.08906e-05
-6.41759e-05
-5.78124e-05
-5.18678e-05
-4.63787e-05
-4.13573e-05
-3.67984e-05
-3.2684e-05
-2.89882e-05
-2.56805e-05
-2.27284e-05
-2.00993e-05
-1.77616e-05
-1.56852e-05
-1.38428e-05
-1.2209e-05
-1.0761e-05
-9.47838e-06
-8.34279e-06
-7.33785e-06
-6.44901e-06
-5.66329e-06
-4.96916e-06
-4.35636e-06
-3.81573e-06
-3.33915e-06
-2.91937e-06
-2.54992e-06
-2.22506e-06
-1.93968e-06
-1.68919e-06
-1.46957e-06
-1.27718e-06
-1.10882e-06
-9.61641e-07
-8.3311e-07
-7.20983e-07
-6.23268e-07
-5.38204e-07
-4.64234e-07
-3.99983e-07
-3.44236e-07
-2.95923e-07
-2.54099e-07
-2.17936e-07
-1.86703e-07
-1.59758e-07
-1.36541e-07
-1.16558e-07
-9.93796e-08
-8.46301e-08
-7.19814e-08
-6.11475e-08
-5.18793e-08
-4.39599e-08
-3.7201e-08
-3.14388e-08
-2.6532e-08
-2.23576e-08
-1.88104e-08
-1.57985e-08
-1.32437e-08
-1.10779e-08
-9.24258e-09
-7.6874e-09
-6.3685e-09
-5.24836e-09
-4.29417e-09
-3.47737e-09
-2.77346e-09
-2.16003e-09
-1.61801e-09
-1.12945e-09
-6.78493e-10
-2.50319e-10
0.000102682
9.19559e-05
8.00357e-05
6.69081e-05
5.26995e-05
3.77921e-05
2.26693e-05
7.78815e-06
-6.44812e-06
-1.96912e-05
-3.16517e-05
-4.21064e-05
-5.09029e-05
-5.79597e-05
-6.32627e-05
-6.68591e-05
-6.88501e-05
-6.93817e-05
-6.86341e-05
-6.68101e-05
-6.4123e-05
-6.07845e-05
-5.69941e-05
-5.29311e-05
-4.87491e-05
-4.4574e-05
-4.05037e-05
-3.66104e-05
-3.29434e-05
-2.95326e-05
-2.63927e-05
-2.35262e-05
-2.09269e-05
-1.85828e-05
-1.6478e-05
-1.45943e-05
-1.29131e-05
-1.14156e-05
-1.00839e-05
-8.90103e-06
-7.85136e-06
-6.92062e-06
-6.09589e-06
-5.36555e-06
-4.71916e-06
-4.14741e-06
-3.64199e-06
-3.19549e-06
-2.80132e-06
-2.45359e-06
-2.14707e-06
-1.8771e-06
-1.63951e-06
-1.43061e-06
-1.24709e-06
-1.08603e-06
-9.4481e-07
-8.21111e-07
-7.12867e-07
-6.18242e-07
-5.35607e-07
-4.6352e-07
-4.00699e-07
-3.46013e-07
-2.98459e-07
-2.57153e-07
-2.21314e-07
-1.90255e-07
-1.63367e-07
-1.40119e-07
-1.20039e-07
-1.02717e-07
-8.77902e-08
-7.49432e-08
-6.38991e-08
-5.44164e-08
-4.62841e-08
-3.93185e-08
-3.33593e-08
-2.82673e-08
-2.39213e-08
-2.02161e-08
-1.70609e-08
-1.43767e-08
-1.20957e-08
-1.0159e-08
-8.51625e-09
-7.12361e-09
-5.9435e-09
-4.94349e-09
-4.09544e-09
-3.37514e-09
-2.76163e-09
-2.23647e-09
-1.78392e-09
-1.38966e-09
-1.04138e-09
-7.27693e-10
-4.38409e-10
-1.63625e-10
3.44515e-05
3.07813e-05
2.6734e-05
2.23022e-05
1.75233e-05
1.25199e-05
7.45072e-06
2.46611e-06
-2.30097e-06
-6.73531e-06
-1.07411e-05
-1.42443e-05
-1.71946e-05
-1.95653e-05
-2.13517e-05
-2.25698e-05
-2.32531e-05
-2.34497e-05
-2.32187e-05
-2.26267e-05
-2.17434e-05
-2.06382e-05
-1.9377e-05
-1.80191e-05
-1.66159e-05
-1.52099e-05
-1.38349e-05
-1.25157e-05
-1.127e-05
-1.01087e-05
-9.03749e-06
-8.05805e-06
-7.16881e-06
-6.3661e-06
-5.64483e-06
-4.99911e-06
-4.42266e-06
-3.90921e-06
-3.45264e-06
-3.04719e-06
-2.6875e-06
-2.36867e-06
-2.08624e-06
-1.8362e-06
-1.61497e-06
-1.41933e-06
-1.24642e-06
-1.09369e-06
-9.58864e-07
-8.3993e-07
-7.35089e-07
-6.42743e-07
-5.61468e-07
-4.89998e-07
-4.27205e-07
-3.72088e-07
-3.23753e-07
-2.81407e-07
-2.44345e-07
-2.11941e-07
-1.83638e-07
-1.58943e-07
-1.37418e-07
-1.18678e-07
-1.02379e-07
-8.822e-08
-7.5933e-08
-6.52829e-08
-5.60623e-08
-4.80884e-08
-4.12006e-08
-3.52579e-08
-3.01366e-08
-2.57283e-08
-2.19383e-08
-1.86838e-08
-1.58926e-08
-1.35015e-08
-1.14557e-08
-9.70752e-09
-8.21531e-09
-6.94303e-09
-5.85951e-09
-4.93768e-09
-4.15427e-09
-3.48909e-09
-2.92481e-09
-2.44644e-09
-2.04101e-09
-1.69743e-09
-1.40604e-09
-1.15848e-09
-9.47597e-10
-7.67027e-10
-6.11359e-10
-4.75698e-10
-3.55806e-10
-2.47883e-10
-1.48819e-10
-5.69234e-11
6.30893e-05
6.55271e-05
7.10442e-05
7.93159e-05
9.01332e-05
0.000103558
0.000119776
0.000139015
0.000161538
0.000187654
0.000217734
0.00025222
0.000291642
0.000336653
0.000388071
0.000446961
0.000514742
0.000593383
0.000685728
0.00079609
0.000931417
0.00110385
0.00133718
0.00169065
0.00234074
6.2838e-05
6.5195e-05
7.06206e-05
7.87905e-05
8.94913e-05
0.000102781
0.000118843
0.000137899
0.000160206
0.00018607
0.000215852
0.000249982
0.000288975
0.00033346
0.000384222
0.000442272
0.000508945
0.00058607
0.00067624
0.000783277
0.000913076
0.00107513
0.001285
0.00156478
0.00191646
6.23911e-05
6.46848e-05
7.00183e-05
7.80785e-05
8.86492e-05
0.000101784
0.000117662
0.000136501
0.000158553
0.000184114
0.000213536
0.000247232
0.000285697
0.000329527
0.00037946
0.000436429
0.000501647
0.000576734
0.000663906
0.000766265
0.000888178
0.00103556
0.00121473
0.00142309
0.00161044
6.17022e-05
6.39359e-05
6.9158e-05
7.70766e-05
8.74748e-05
0.000100401
0.000116029
0.000134572
0.000156272
0.000181415
0.000210335
0.000243427
0.000281153
0.000324063
0.000372825
0.000428265
0.000491424
0.000563632
0.000646601
0.000742498
0.000853867
0.000982911
0.0011285
0.00127638
0.00137562
6.07072e-05
6.28761e-05
6.79626e-05
7.57e-05
8.58743e-05
9.85279e-05
0.000113828
0.000131978
0.000153211
0.000177798
0.000206053
0.00023834
0.000275081
0.000316764
0.000363967
0.000417374
0.000477806
0.000546234
0.000623766
0.000711525
0.000810222
0.000918914
0.00103182
0.00113131
0.00117742
5.93315e-05
6.14275e-05
6.63511e-05
7.38613e-05
8.375e-05
9.60528e-05
0.000110928
0.00012857
0.000149197
0.000173061
0.00020045
0.000231691
0.000267154
0.00030725
0.000352444
0.000403252
0.000460232
0.00052395
0.000594869
0.000673096
0.000757777
0.000845814
0.000929405
0.000992229
0.00100649
5.74866e-05
5.94979e-05
6.42255e-05
7.14525e-05
8.09797e-05
9.28361e-05
0.000107169
0.000124161
0.000144013
0.000166953
0.000193238
0.000223149
0.000256992
0.00029509
0.000337776
0.000385374
0.000438162
0.000496286
0.000559601
0.00062735
0.00069757
0.00076608
0.000824992
0.000861238
0.000856971
5.50688e-05
5.69792e-05
6.14701e-05
6.83467e-05
7.74208e-05
8.87158e-05
0.000102366
0.000118539
0.000137414
0.000159193
0.000184094
0.000212347
0.000244185
0.00027983
0.000319475
0.000363245
0.000411137
0.000462915
0.000517926
0.0005748
0.000630981
0.000682095
0.000721286
0.000739054
0.000724602
5.21127e-05
5.3908e-05
5.81271e-05
6.45943e-05
7.31344e-05
8.37653e-05
9.66082e-05
0.000111812
0.000129535
0.000149948
0.000173229
0.000199554
0.000229083
0.00026194
0.000298182
0.000337755
0.000380424
0.000425659
0.000472474
0.000519185
0.000563115
0.000600269
0.000625186
0.000631285
0.000612163
4.85886e-05
5.02534e-05
5.41624e-05
6.01577e-05
6.80786e-05
7.79382e-05
8.98431e-05
0.000103923
0.000120314
0.000139153
0.00016058
0.000184717
0.000211653
0.000241421
0.000273961
0.000309071
0.000346337
0.000385037
0.000424006
0.000461486
0.000494965
0.000521085
0.000535744
0.000534576
0.000513923
4.42302e-05
4.57388e-05
4.92766e-05
5.47044e-05
6.18776e-05
7.08048e-05
8.15768e-05
9.4303e-05
0.000109093
0.000126054
0.000145283
0.000166851
0.000190784
0.000217032
0.00024544
0.000275696
0.000307271
0.000339346
0.000370724
0.000399749
0.000424264
0.000441645
0.000448999
0.000443587
0.00042347
3.89019e-05
4.02241e-05
4.33201e-05
4.80699e-05
5.43475e-05
6.21578e-05
7.15749e-05
8.26865e-05
9.55768e-05
0.000110322
0.00012698
0.000145578
0.000166087
0.0001884
0.000212296
0.000237403
0.000263149
0.000288716
0.000312996
0.000334566
0.000351711
0.000362513
0.000365055
0.000357722
0.000339587
3.24679e-05
3.35689e-05
3.6142e-05
4.00886e-05
4.53039e-05
5.17899e-05
5.96036e-05
6.88111e-05
7.94721e-05
9.16348e-05
0.000105327
0.00012054
0.000137211
0.0001552
0.000174264
0.000194024
0.00021394
0.000233283
0.000251123
0.000266339
0.000277669
0.000283808
0.000283561
0.000276047
0.000260893
2.48048e-05
2.56456e-05
2.76056e-05
3.06098e-05
3.45787e-05
3.95124e-05
4.54512e-05
5.24404e-05
6.05182e-05
6.97106e-05
8.00233e-05
9.14299e-05
0.000103856
0.000117162
0.000131126
0.000145421
0.000159602
0.000173097
0.000185211
0.000195149
0.000202067
0.000205149
0.000203708
0.000197307
0.000185846
1.58235e-05
1.63612e-05
1.76102e-05
1.95221e-05
2.20467e-05
2.51835e-05
2.89564e-05
3.33917e-05
3.85097e-05
4.43215e-05
5.08228e-05
5.79864e-05
6.57519e-05
7.40148e-05
8.26159e-05
9.13311e-05
9.98653e-05
0.000107852
0.00011486
0.00012042
0.000124052
0.000125319
0.000123881
0.000119551
0.000112335
5.50115e-06
5.69028e-06
6.12702e-06
6.79426e-06
7.67478e-06
8.76838e-06
1.00832e-05
1.1628e-05
1.34092e-05
1.54293e-05
1.76855e-05
2.01659e-05
2.28468e-05
2.56883e-05
2.86312e-05
3.15938e-05
3.44702e-05
3.71315e-05
3.94296e-05
4.12059e-05
4.2304e-05
4.25858e-05
4.19498e-05
4.03476e-05
3.77942e-05
)
;

boundaryField
{
    top
    {
        type            fixedValue;
        value           uniform 0;
    }
    inlet
    {
        type            zeroGradient;
    }
    outlet
    {
        type            fixedValue;
        value           uniform 0;
    }
    plate
    {
        type            zeroGradient;
    }
    symmBound
    {
        type            zeroGradient;
    }
    frontAndBack
    {
        type            empty;
    }
}


// ************************************************************************* //
