/*--------------------------------*- C++ -*----------------------------------*\
| =========                 |                                                 |
| \\      /  F ield         | OpenFOAM: The Open Source CFD Toolbox           |
|  \\    /   O peration     | Version:  2.3.0                                 |
|   \\  /    A nd           | Web:      www.OpenFOAM.org                      |
|    \\/     M anipulation  |                                                 |
\*---------------------------------------------------------------------------*/
FoamFile
{
    version     2.0;
    format      ascii;
    class       surfaceScalarField;
    location    "0.05";
    object      phi;
}
// * * * * * * * * * * * * * * * * * * * * * * * * * * * * * * * * * * * * * //

dimensions      [0 3 -1 0 0 0 0];

internalField   nonuniform List<scalar> 
3859
(
2.81732e-08
2.87786e-09
-3.1051e-08
2.53088e-08
2.86441e-09
2.26257e-08
2.6831e-09
2.016e-08
2.46564e-09
1.79296e-08
2.23039e-09
1.59466e-08
1.98306e-09
1.42141e-08
1.73244e-09
1.27273e-08
1.48685e-09
1.1474e-08
1.25328e-09
1.04367e-08
1.03727e-09
9.59416e-09
8.42576e-10
8.92336e-09
6.70793e-10
8.40198e-09
5.21386e-10
8.00963e-09
3.92352e-10
7.72837e-09
2.81255e-10
7.54313e-09
1.85245e-10
7.44418e-09
9.89426e-11
7.42264e-09
2.15434e-11
7.4502e-09
-2.75552e-11
7.49713e-09
-4.69394e-11
7.54812e-09
-5.09851e-11
7.59541e-09
-4.72849e-11
7.63577e-09
-4.03617e-11
7.6686e-09
-3.28285e-11
7.69451e-09
-2.59166e-11
7.71459e-09
-2.00792e-11
7.72998e-09
-1.53867e-11
7.74173e-09
-1.1754e-11
7.75075e-09
-9.01915e-12
7.75775e-09
-6.99949e-12
7.76328e-09
-5.52551e-12
7.76773e-09
-4.45399e-12
7.7714e-09
-3.67135e-12
7.77449e-09
-3.09202e-12
7.77715e-09
-2.65409e-12
7.77946e-09
-2.31303e-12
7.7815e-09
-2.03856e-12
7.78331e-09
-1.81054e-12
7.78493e-09
-1.61582e-12
7.78637e-09
-1.44579e-12
7.78767e-09
-1.29498e-12
7.78883e-09
-1.1599e-12
7.78986e-09
-1.03823e-12
7.79079e-09
-9.28394e-13
7.79162e-09
-8.29215e-13
7.79236e-09
-7.397e-13
7.79302e-09
-6.59006e-13
7.79361e-09
-5.86391e-13
7.79413e-09
-5.21161e-13
7.79459e-09
-4.62657e-13
7.795e-09
-4.10259e-13
7.79536e-09
-3.63388e-13
7.79569e-09
-3.21508e-13
7.79597e-09
-2.84139e-13
7.79622e-09
-2.50835e-13
7.79644e-09
-2.2118e-13
7.79664e-09
-1.94799e-13
7.79681e-09
-1.71354e-13
7.79696e-09
-1.50544e-13
7.79709e-09
-1.32093e-13
7.79721e-09
-1.15754e-13
7.79731e-09
-1.01302e-13
7.7974e-09
-8.85342e-14
7.79747e-09
-7.72671e-14
7.79754e-09
-6.73365e-14
7.7976e-09
-5.85917e-14
7.79765e-09
-5.08978e-14
7.79769e-09
-4.41356e-14
7.79773e-09
-3.81995e-14
7.79777e-09
-3.29962e-14
7.79779e-09
-2.84415e-14
7.79782e-09
-2.44605e-14
7.79784e-09
-2.09841e-14
7.79786e-09
-1.79525e-14
7.79787e-09
-1.53101e-14
7.79789e-09
-1.30117e-14
7.7979e-09
-1.10132e-14
7.79791e-09
-9.28124e-15
7.79791e-09
-7.7801e-15
7.79792e-09
-6.48501e-15
7.79793e-09
-5.36712e-15
7.79793e-09
-4.40622e-15
7.79793e-09
-3.57877e-15
7.79794e-09
-2.87127e-15
7.79794e-09
-2.26099e-15
7.79794e-09
-1.74454e-15
7.79794e-09
-1.29967e-15
7.79794e-09
-9.21201e-16
7.79794e-09
-6.02591e-16
7.79794e-09
-3.27989e-16
7.79794e-09
-1.26122e-16
7.79794e-09
4.54363e-17
7.79794e-09
2.00971e-16
7.79794e-09
3.63328e-16
7.79794e-09
5.02566e-16
7.79794e-09
6.19384e-16
7.79794e-09
7.15291e-16
7.79794e-09
7.91849e-16
7.79794e-09
8.3087e-16
1.55388e-15
3.61128e-08
3.1235e-09
-3.63584e-08
3.55472e-08
3.42994e-09
3.47442e-08
3.48617e-09
3.37839e-08
3.42591e-09
3.2725e-08
3.28931e-09
3.16165e-08
3.09156e-09
3.04992e-08
2.84967e-09
2.94057e-08
2.58035e-09
2.83614e-08
2.29759e-09
2.73863e-08
2.01243e-09
2.6496e-08
1.73289e-09
2.5703e-08
1.46374e-09
2.50173e-08
1.20712e-09
2.44458e-08
9.63783e-10
2.39925e-08
7.34604e-10
2.36564e-08
5.21332e-10
2.34267e-08
3.28626e-10
2.32842e-08
1.64111e-10
2.32221e-08
3.45471e-11
2.32286e-08
-5.34512e-11
2.32761e-08
-9.85246e-11
2.33426e-08
-1.13829e-10
2.34136e-08
-1.11301e-10
2.34802e-08
-9.94137e-11
2.3538e-08
-8.37737e-11
2.35857e-08
-6.77566e-11
2.36235e-08
-5.31808e-11
2.36526e-08
-4.08539e-11
2.36745e-08
-3.09535e-11
2.36908e-08
-2.3304e-11
2.37029e-08
-1.75672e-11
2.37118e-08
-1.33602e-11
2.37184e-08
-1.03217e-11
2.37235e-08
-8.14384e-12
2.37274e-08
-6.58191e-12
2.37306e-08
-5.45052e-12
2.37331e-08
-4.61501e-12
2.37353e-08
-3.98062e-12
2.37372e-08
-3.48265e-12
2.37388e-08
-3.07774e-12
2.37402e-08
-2.73776e-12
2.37415e-08
-2.4447e-12
2.37427e-08
-2.18719e-12
2.37437e-08
-1.95807e-12
2.37446e-08
-1.7527e-12
2.37455e-08
-1.56787e-12
2.37462e-08
-1.40125e-12
2.37469e-08
-1.25106e-12
2.37475e-08
-1.11576e-12
2.3748e-08
-9.94002e-13
2.37485e-08
-8.84535e-13
2.37489e-08
-7.86228e-13
2.37493e-08
-6.98029e-13
2.37496e-08
-6.18994e-13
2.37499e-08
-5.48246e-13
2.37502e-08
-4.84968e-13
2.37504e-08
-4.28422e-13
2.37506e-08
-3.77942e-13
2.37508e-08
-3.32932e-13
2.37509e-08
-2.92848e-13
2.37511e-08
-2.57199e-13
2.37512e-08
-2.25533e-13
2.37513e-08
-1.97437e-13
2.37514e-08
-1.72539e-13
2.37515e-08
-1.505e-13
2.37516e-08
-1.31013e-13
2.37516e-08
-1.138e-13
2.37517e-08
-9.86132e-14
2.37517e-08
-8.52317e-14
2.37518e-08
-7.34575e-14
2.37518e-08
-6.31128e-14
2.37518e-08
-5.40374e-14
2.37519e-08
-4.60868e-14
2.37519e-08
-3.91311e-14
2.37519e-08
-3.30547e-14
2.37519e-08
-2.77546e-14
2.37519e-08
-2.31398e-14
2.37519e-08
-1.91289e-14
2.37519e-08
-1.56512e-14
2.3752e-08
-1.26416e-14
2.3752e-08
-1.00459e-14
2.3752e-08
-7.80942e-15
2.3752e-08
-5.89172e-15
2.3752e-08
-4.25067e-15
2.3752e-08
-2.8572e-15
2.3752e-08
-1.68809e-15
2.3752e-08
-7.3569e-16
2.3752e-08
7.45685e-17
2.3752e-08
8.09401e-16
2.3752e-08
1.47851e-15
2.3752e-08
2.04862e-15
2.3752e-08
2.54752e-15
2.3752e-08
2.97866e-15
2.3752e-08
3.33988e-15
2.37519e-08
3.63207e-15
2.37519e-08
3.85721e-15
2.37519e-08
4.02926e-15
2.37519e-08
4.15484e-15
2.37519e-08
4.34103e-15
4.42348e-15
4.07885e-08
2.92009e-09
-4.05851e-08
4.0917e-08
3.30145e-09
4.09246e-08
3.47855e-09
4.08154e-08
3.5351e-09
4.05995e-08
3.50528e-09
4.02913e-08
3.39979e-09
3.991e-08
3.23095e-09
3.94767e-08
3.0136e-09
3.90128e-08
2.76155e-09
3.85388e-08
2.48641e-09
3.80745e-08
2.1972e-09
3.76378e-08
1.90038e-09
3.72445e-08
1.60048e-09
3.69067e-08
1.30159e-09
3.66323e-08
1.00894e-09
3.64237e-08
7.2996e-10
3.62771e-08
4.75179e-10
3.61836e-08
2.57675e-10
3.61302e-08
8.79514e-11
3.61115e-08
-3.47699e-11
3.61222e-08
-1.09261e-10
3.61547e-08
-1.46351e-10
3.62005e-08
-1.57096e-10
3.62522e-08
-1.51069e-10
3.6304e-08
-1.35573e-10
3.6352e-08
-1.15793e-10
3.6394e-08
-9.51812e-11
3.6429e-08
-7.58485e-11
3.6457e-08
-5.89167e-11
3.64785e-08
-4.48192e-11
3.64945e-08
-3.35459e-11
3.65059e-08
-2.48301e-11
3.65139e-08
-1.82829e-11
3.65193e-08
-1.34842e-11
3.65227e-08
-1.00379e-11
3.65249e-08
-7.60123e-12
3.65261e-08
-5.89468e-12
3.65269e-08
-4.70135e-12
3.65272e-08
-3.86023e-12
3.65274e-08
-3.25539e-12
3.65275e-08
-2.80692e-12
3.65275e-08
-2.46111e-12
3.65275e-08
-2.18305e-12
3.65275e-08
-1.95077e-12
3.65275e-08
-1.75067e-12
3.65275e-08
-1.5745e-12
3.65275e-08
-1.41718e-12
3.65275e-08
-1.27554e-12
3.65276e-08
-1.14744e-12
3.65276e-08
-1.03133e-12
3.65276e-08
-9.25995e-13
3.65277e-08
-8.30433e-13
3.65277e-08
-7.43785e-13
3.65278e-08
-6.65285e-13
3.65278e-08
-5.94241e-13
3.65279e-08
-5.29994e-13
3.65279e-08
-4.7194e-13
3.6528e-08
-4.19543e-13
3.6528e-08
-3.72317e-13
3.6528e-08
-3.29814e-13
3.65281e-08
-2.91626e-13
3.65281e-08
-2.57363e-13
3.65281e-08
-2.26665e-13
3.65282e-08
-1.99197e-13
3.65282e-08
-1.74652e-13
3.65282e-08
-1.52746e-13
3.65282e-08
-1.33222e-13
3.65282e-08
-1.15846e-13
3.65283e-08
-1.00406e-13
3.65283e-08
-8.67084e-14
3.65283e-08
-7.45781e-14
3.65283e-08
-6.38534e-14
3.65283e-08
-5.43881e-14
3.65283e-08
-4.6048e-14
3.65283e-08
-3.87136e-14
3.65283e-08
-3.2275e-14
3.65283e-08
-2.66358e-14
3.65283e-08
-2.17055e-14
3.65283e-08
-1.74081e-14
3.65283e-08
-1.36694e-14
3.65283e-08
-1.04305e-14
3.65283e-08
-7.62794e-15
3.65283e-08
-5.21797e-15
3.65283e-08
-3.1511e-15
3.65283e-08
-1.39543e-15
3.65283e-08
1.22233e-16
3.65283e-08
1.45115e-15
3.65283e-08
2.61993e-15
3.65283e-08
3.61427e-15
3.65283e-08
4.45614e-15
3.65283e-08
5.15961e-15
3.65283e-08
5.75472e-15
3.65283e-08
6.2631e-15
3.65283e-08
6.67328e-15
3.65283e-08
7.00157e-15
3.65283e-08
7.24509e-15
3.65283e-08
7.42027e-15
3.65283e-08
7.53889e-15
3.65283e-08
7.63922e-15
6.96938e-15
4.52992e-08
2.67911e-09
-4.50582e-08
4.55634e-08
3.03726e-09
4.57975e-08
3.24446e-09
4.59866e-08
3.34592e-09
4.61237e-08
3.36826e-09
4.62037e-08
3.31979e-09
4.62268e-08
3.20781e-09
4.61979e-08
3.04246e-09
4.61252e-08
2.83433e-09
4.60187e-08
2.59285e-09
4.589e-08
2.32593e-09
4.57503e-08
2.04007e-09
4.56098e-08
1.741e-09
4.54764e-08
1.43497e-09
4.53554e-08
1.12994e-09
4.52491e-08
8.36273e-10
4.51575e-08
5.66762e-10
4.50799e-08
3.35257e-10
4.50153e-08
1.52559e-10
4.49619e-08
1.86851e-11
4.49226e-08
-6.99432e-11
4.48977e-08
-1.21488e-10
4.48854e-08
-1.44848e-10
4.4883e-08
-1.48622e-10
4.48873e-08
-1.39842e-10
4.48954e-08
-1.23954e-10
4.49052e-08
-1.04936e-10
4.49149e-08
-8.55167e-11
4.49233e-08
-6.74108e-11
4.49301e-08
-5.15606e-11
4.49349e-08
-3.83487e-11
4.49378e-08
-2.77809e-11
4.49392e-08
-1.9632e-11
4.49393e-08
-1.35578e-11
4.49384e-08
-9.17411e-12
4.49369e-08
-6.10861e-12
4.4935e-08
-4.03091e-12
4.4933e-08
-2.6651e-12
4.49309e-08
-1.79479e-12
4.49289e-08
-1.25657e-12
4.49271e-08
-9.32914e-13
4.49253e-08
-7.42629e-13
4.49238e-08
-6.31942e-13
4.49224e-08
-5.66623e-13
4.49212e-08
-5.25803e-13
4.49201e-08
-4.97313e-13
4.49192e-08
-4.74418e-13
4.49183e-08
-4.53575e-13
4.49176e-08
-4.33009e-13
4.4917e-08
-4.11998e-13
4.49165e-08
-3.90379e-13
4.4916e-08
-3.68248e-13
4.49156e-08
-3.45818e-13
4.49153e-08
-3.233e-13
4.4915e-08
-3.00901e-13
4.49147e-08
-2.7882e-13
4.49145e-08
-2.57254e-13
4.49143e-08
-2.36378e-13
4.49142e-08
-2.16343e-13
4.4914e-08
-1.97242e-13
4.49139e-08
-1.79145e-13
4.49138e-08
-1.62087e-13
4.49138e-08
-1.46091e-13
4.49137e-08
-1.31161e-13
4.49136e-08
-1.17289e-13
4.49136e-08
-1.04453e-13
4.49135e-08
-9.26195e-14
4.49135e-08
-8.17499e-14
4.49135e-08
-7.17997e-14
4.49135e-08
-6.27221e-14
4.49134e-08
-5.44689e-14
4.49134e-08
-4.69894e-14
4.49134e-08
-4.02336e-14
4.49134e-08
-3.41497e-14
4.49134e-08
-2.86897e-14
4.49134e-08
-2.3804e-14
4.49134e-08
-1.94481e-14
4.49134e-08
-1.55742e-14
4.49134e-08
-1.21447e-14
4.49134e-08
-9.115e-15
4.49133e-08
-6.45249e-15
4.49133e-08
-4.11501e-15
4.49133e-08
-2.07348e-15
4.49133e-08
-2.85698e-16
4.49133e-08
1.273e-15
4.49133e-08
2.63745e-15
4.49133e-08
3.81737e-15
4.49133e-08
4.84713e-15
4.49133e-08
5.72217e-15
4.49133e-08
6.46302e-15
4.49133e-08
7.08686e-15
4.49133e-08
7.60965e-15
4.49133e-08
8.05791e-15
4.49133e-08
8.41423e-15
4.49133e-08
8.69826e-15
4.49133e-08
8.90337e-15
4.49133e-08
9.03969e-15
4.49133e-08
9.11073e-15
4.49133e-08
9.07262e-15
8.34468e-15
5.01906e-08
2.4669e-09
-4.99784e-08
5.04517e-08
2.77612e-09
5.07185e-08
2.97767e-09
5.09743e-08
3.09016e-09
5.12105e-08
3.13206e-09
5.14192e-08
3.11114e-09
5.15944e-08
3.0326e-09
5.17334e-08
2.9034e-09
5.18364e-08
2.73138e-09
5.19053e-08
2.52393e-09
5.19435e-08
2.28768e-09
5.19549e-08
2.02867e-09
5.1943e-08
1.75297e-09
5.19104e-08
1.46751e-09
5.18595e-08
1.18092e-09
5.1792e-08
9.03764e-10
5.17107e-08
6.48012e-10
5.16204e-08
4.25569e-10
5.15276e-08
2.45404e-10
5.14368e-08
1.0942e-10
5.13529e-08
1.40117e-11
5.12795e-08
-4.81016e-11
5.12177e-08
-8.30599e-11
5.11673e-08
-9.82412e-11
5.11272e-08
-9.97023e-11
5.10957e-08
-9.24768e-11
5.10712e-08
-8.04441e-11
5.10521e-08
-6.64315e-11
5.10371e-08
-5.2367e-11
5.1025e-08
-3.94517e-11
5.10149e-08
-2.83282e-11
5.10064e-08
-1.9236e-11
5.09989e-08
-1.21437e-11
5.09922e-08
-6.85556e-12
5.09861e-08
-3.09407e-12
5.09806e-08
-5.56792e-13
5.09755e-08
1.04445e-12
5.09709e-08
1.9624e-12
5.09667e-08
2.40524e-12
5.09629e-08
2.53552e-12
5.09595e-08
2.47281e-12
5.09564e-08
2.301e-12
5.09537e-08
2.07597e-12
5.09513e-08
1.83302e-12
5.09492e-08
1.59317e-12
5.09473e-08
1.36802e-12
5.09457e-08
1.16321e-12
5.09443e-08
9.80725e-13
5.0943e-08
8.20493e-13
5.09419e-08
6.81317e-13
5.0941e-08
5.61482e-13
5.09401e-08
4.59056e-13
5.09394e-08
3.72095e-13
5.09388e-08
2.98739e-13
5.09383e-08
2.37245e-13
5.09378e-08
1.86036e-13
5.09374e-08
1.43687e-13
5.09371e-08
1.08922e-13
5.09368e-08
8.06069e-14
5.09365e-08
5.77562e-14
5.09363e-08
3.95041e-14
5.09361e-08
2.51115e-14
5.09359e-08
1.39399e-14
5.09358e-08
5.43928e-15
5.09357e-08
-8.62828e-16
5.09356e-08
-5.36968e-15
5.09355e-08
-8.42365e-15
5.09354e-08
-1.03139e-14
5.09354e-08
-1.12834e-14
5.09353e-08
-1.15344e-14
5.09353e-08
-1.12366e-14
5.09352e-08
-1.05289e-14
5.09352e-08
-9.5276e-15
5.09352e-08
-8.32557e-15
5.09352e-08
-7.00015e-15
5.09351e-08
-5.60965e-15
5.09351e-08
-4.20352e-15
5.09351e-08
-2.81504e-15
5.09351e-08
-1.47454e-15
5.09351e-08
-1.96661e-16
5.09351e-08
1.00149e-15
5.09351e-08
2.11827e-15
5.09351e-08
3.14509e-15
5.09351e-08
4.088e-15
5.09351e-08
4.94154e-15
5.09351e-08
5.71878e-15
5.09351e-08
6.41114e-15
5.09351e-08
7.03477e-15
5.09351e-08
7.57712e-15
5.09351e-08
8.04505e-15
5.09351e-08
8.44841e-15
5.09351e-08
8.78775e-15
5.09351e-08
9.08481e-15
5.09351e-08
9.31844e-15
5.09351e-08
9.50304e-15
5.0935e-08
9.62954e-15
5.0935e-08
9.69793e-15
5.0935e-08
9.70392e-15
5.0935e-08
9.58126e-15
9.05161e-15
5.55846e-08
2.2846e-09
-5.54023e-08
5.5819e-08
2.54175e-09
5.60726e-08
2.72403e-09
5.63282e-08
2.83459e-09
5.65767e-08
2.88359e-09
5.68104e-08
2.87735e-09
5.7023e-08
2.82007e-09
5.72096e-08
2.7168e-09
5.73674e-08
2.57351e-09
5.74951e-08
2.39623e-09
5.75921e-08
2.19071e-09
5.76582e-08
1.96257e-09
5.76934e-08
1.71775e-09
5.76979e-08
1.46302e-09
5.76724e-08
1.20642e-09
5.76189e-08
9.57296e-10
5.75412e-08
7.25691e-10
5.74457e-08
5.2109e-10
5.73406e-08
3.5051e-10
5.72336e-08
2.1639e-10
5.71309e-08
1.16753e-10
5.70359e-08
4.6815e-11
5.69514e-08
1.43827e-12
5.68783e-08
-2.51168e-11
5.68164e-08
-3.77706e-11
5.67648e-08
-4.09156e-11
5.67224e-08
-3.80616e-11
5.66879e-08
-3.18854e-11
5.66599e-08
-2.43196e-11
5.66371e-08
-1.6667e-11
5.66185e-08
-9.72557e-12
5.66031e-08
-3.91128e-12
5.65904e-08
6.31723e-13
5.65796e-08
3.93892e-12
5.65703e-08
6.14887e-12
5.65623e-08
7.45205e-12
5.65553e-08
8.05125e-12
5.65491e-08
8.13655e-12
5.65437e-08
7.87098e-12
5.65388e-08
7.38534e-12
5.65345e-08
6.77831e-12
5.65307e-08
6.12025e-12
5.65273e-08
5.45842e-12
5.65243e-08
4.82248e-12
5.65217e-08
4.22945e-12
5.65194e-08
3.68767e-12
5.65173e-08
3.19988e-12
5.65155e-08
2.76535e-12
5.6514e-08
2.38133e-12
5.65126e-08
2.04404e-12
5.65114e-08
1.74927e-12
5.65104e-08
1.49274e-12
5.65095e-08
1.27031e-12
5.65087e-08
1.07809e-12
5.65081e-08
9.12486e-13
5.65075e-08
7.70243e-13
5.6507e-08
6.48415e-13
5.65065e-08
5.44366e-13
5.65062e-08
4.55747e-13
5.65058e-08
3.80485e-13
5.65056e-08
3.1675e-13
5.65053e-08
2.62944e-13
5.65051e-08
2.17668e-13
5.65049e-08
1.79698e-13
5.65048e-08
1.47969e-13
5.65047e-08
1.21555e-13
5.65046e-08
9.96534e-14
5.65045e-08
8.15719e-14
5.65044e-08
6.67146e-14
5.65043e-08
5.45701e-14
5.65043e-08
4.46986e-14
5.65042e-08
3.6725e-14
5.65042e-08
3.0327e-14
5.65041e-08
2.52325e-14
5.65041e-08
2.12083e-14
5.65041e-08
1.80607e-14
5.65041e-08
1.56239e-14
5.65041e-08
1.37633e-14
5.6504e-08
1.23624e-14
5.6504e-08
1.13312e-14
5.6504e-08
1.0589e-14
5.6504e-08
1.00777e-14
5.6504e-08
9.74208e-15
5.6504e-08
9.54636e-15
5.6504e-08
9.45085e-15
5.6504e-08
9.43736e-15
5.6504e-08
9.47362e-15
5.6504e-08
9.55132e-15
5.6504e-08
9.64502e-15
5.6504e-08
9.74396e-15
5.6504e-08
9.84608e-15
5.6504e-08
9.93783e-15
5.6504e-08
1.00304e-14
5.6504e-08
1.00998e-14
5.6504e-08
1.01511e-14
5.6504e-08
1.01731e-14
5.6504e-08
1.01562e-14
5.6504e-08
1.00921e-14
5.6504e-08
9.92198e-15
9.54512e-15
6.15415e-08
2.12512e-09
-6.13821e-08
6.17486e-08
2.3347e-09
6.198e-08
2.49262e-09
6.22194e-08
2.59514e-09
6.24571e-08
2.6459e-09
6.26856e-08
2.64887e-09
6.28984e-08
2.60727e-09
6.30904e-08
2.5248e-09
6.32579e-08
2.40603e-09
6.33982e-08
2.25591e-09
6.35095e-08
2.07948e-09
6.35901e-08
1.8819e-09
6.36392e-08
1.6687e-09
6.36562e-08
1.44607e-09
6.36415e-08
1.22108e-09
6.35972e-08
1.00155e-09
6.35274e-08
7.95549e-10
6.3438e-08
6.10508e-10
6.33365e-08
4.51953e-10
6.32305e-08
3.22375e-10
6.31262e-08
2.21103e-10
6.30277e-08
1.45266e-10
6.29381e-08
9.10773e-11
6.28586e-08
5.43332e-11
6.27898e-08
3.10568e-11
6.27313e-08
1.76474e-11
6.26821e-08
1.10732e-11
6.26413e-08
8.91544e-12
6.26077e-08
9.3369e-12
6.258e-08
1.10159e-11
6.25572e-08
1.30618e-11
6.25384e-08
1.49248e-11
6.25227e-08
1.63118e-11
6.25095e-08
1.71104e-11
6.24983e-08
1.73263e-11
6.24887e-08
1.70342e-11
6.24805e-08
1.63418e-11
6.24732e-08
1.5364e-11
6.24669e-08
1.42072e-11
6.24613e-08
1.29607e-11
6.24564e-08
1.16941e-11
6.24521e-08
1.04572e-11
6.24482e-08
9.28354e-12
6.24449e-08
8.19291e-12
6.24419e-08
7.19523e-12
6.24393e-08
6.29335e-12
6.2437e-08
5.48547e-12
6.2435e-08
4.7669e-12
6.24333e-08
4.13133e-12
6.24317e-08
3.57172e-12
6.24304e-08
3.08087e-12
6.24292e-08
2.65173e-12
6.24282e-08
2.27762e-12
6.24274e-08
1.95233e-12
6.24266e-08
1.67019e-12
6.24259e-08
1.42603e-12
6.24254e-08
1.21521e-12
6.24249e-08
1.03356e-12
6.24245e-08
8.77386e-13
6.24241e-08
7.43389e-13
6.24238e-08
6.28665e-13
6.24235e-08
5.30656e-13
6.24233e-08
4.47114e-13
6.24231e-08
3.76064e-13
6.24229e-08
3.15779e-13
6.24228e-08
2.64748e-13
6.24227e-08
2.21656e-13
6.24226e-08
1.85362e-13
6.24225e-08
1.54874e-13
6.24224e-08
1.29334e-13
6.24223e-08
1.08002e-13
6.24223e-08
9.02368e-14
6.24222e-08
7.54875e-14
6.24222e-08
6.32806e-14
6.24222e-08
5.32091e-14
6.24221e-08
4.49277e-14
6.24221e-08
3.81401e-14
6.24221e-08
3.25983e-14
6.24221e-08
2.80889e-14
6.24221e-08
2.44367e-14
6.24221e-08
2.149e-14
6.2422e-08
1.91268e-14
6.2422e-08
1.72398e-14
6.2422e-08
1.57458e-14
6.2422e-08
1.45672e-14
6.2422e-08
1.36501e-14
6.2422e-08
1.2936e-14
6.2422e-08
1.23895e-14
6.2422e-08
1.19688e-14
6.2422e-08
1.16442e-14
6.2422e-08
1.13988e-14
6.2422e-08
1.12063e-14
6.2422e-08
1.1064e-14
6.2422e-08
1.09453e-14
6.2422e-08
1.08441e-14
6.2422e-08
1.07468e-14
6.2422e-08
1.06365e-14
6.2422e-08
1.0503e-14
6.2422e-08
1.03015e-14
1.00013e-14
6.81174e-08
1.98332e-09
-6.79756e-08
6.82998e-08
2.15227e-09
6.85073e-08
2.28512e-09
6.87262e-08
2.37623e-09
6.89468e-08
2.42534e-09
6.91615e-08
2.43412e-09
6.93641e-08
2.40467e-09
6.95493e-08
2.33961e-09
6.9713e-08
2.24238e-09
6.9852e-08
2.11692e-09
6.99639e-08
1.96754e-09
7.0047e-08
1.7988e-09
7.01001e-08
1.61565e-09
7.01226e-08
1.42355e-09
7.01152e-08
1.22849e-09
7.00798e-08
1.0369e-09
7.00202e-08
8.5519e-10
6.99415e-08
6.89181e-10
6.98502e-08
5.43294e-10
6.97526e-08
4.19906e-10
6.96545e-08
3.19201e-10
6.95601e-08
2.39655e-10
6.94724e-08
1.7877e-10
6.93932e-08
1.33582e-10
6.93232e-08
1.01061e-10
6.92625e-08
7.83551e-11
6.92106e-08
6.29489e-11
6.91668e-08
5.27433e-11
6.91301e-08
4.60665e-11
6.90994e-08
4.16461e-11
6.90739e-08
3.85598e-11
6.90527e-08
3.61755e-11
6.90349e-08
3.40899e-11
6.90199e-08
3.20711e-11
6.90073e-08
3.00077e-11
6.89964e-08
2.78683e-11
6.89871e-08
2.56685e-11
6.8979e-08
2.34475e-11
6.8972e-08
2.12517e-11
6.89658e-08
1.91249e-11
6.89604e-08
1.71022e-11
6.89556e-08
1.52091e-11
6.89515e-08
1.34608e-11
6.89478e-08
1.18642e-11
6.89446e-08
1.04195e-11
6.89417e-08
9.12218e-12
6.89393e-08
7.96427e-12
6.89371e-08
6.93608e-12
6.89352e-08
6.02697e-12
6.89335e-08
5.22602e-12
6.89321e-08
4.52256e-12
6.89308e-08
3.9064e-12
6.89298e-08
3.36804e-12
6.89288e-08
2.89873e-12
6.8928e-08
2.49047e-12
6.89273e-08
2.13604e-12
6.89267e-08
1.82894e-12
6.89261e-08
1.56335e-12
6.89257e-08
1.33408e-12
6.89253e-08
1.13654e-12
6.89249e-08
9.66646e-13
6.89247e-08
8.20804e-13
6.89244e-08
6.95846e-13
6.89242e-08
5.88989e-13
6.8924e-08
4.97786e-13
6.89239e-08
4.20099e-13
6.89237e-08
3.54057e-13
6.89236e-08
2.98032e-13
6.89235e-08
2.50606e-13
6.89234e-08
2.10548e-13
6.89234e-08
1.7679e-13
6.89233e-08
1.48406e-13
6.89233e-08
1.24596e-13
6.89232e-08
1.04671e-13
6.89232e-08
8.80341e-14
6.89232e-08
7.41776e-14
6.89231e-08
6.26637e-14
6.89231e-08
5.31217e-14
6.89231e-08
4.5233e-14
6.89231e-08
3.87307e-14
6.89231e-08
3.33853e-14
6.89231e-08
2.90064e-14
6.8923e-08
2.54296e-14
6.8923e-08
2.25208e-14
6.8923e-08
2.01611e-14
6.8923e-08
1.82582e-14
6.8923e-08
1.67252e-14
6.8923e-08
1.54976e-14
6.8923e-08
1.45145e-14
6.8923e-08
1.37267e-14
6.8923e-08
1.31002e-14
6.8923e-08
1.25965e-14
6.8923e-08
1.2198e-14
6.8923e-08
1.18736e-14
6.8923e-08
1.16069e-14
6.8923e-08
1.13804e-14
6.8923e-08
1.11724e-14
6.8923e-08
1.09712e-14
6.8923e-08
1.07435e-14
1.04794e-14
6.826e-08
1.86714e-09
-6.81438e-08
6.8407e-08
2.00526e-09
6.85754e-08
2.11675e-09
6.87554e-08
2.19624e-09
6.89389e-08
2.24179e-09
6.91195e-08
2.25354e-09
6.92915e-08
2.23261e-09
6.94503e-08
2.18082e-09
6.9592e-08
2.10072e-09
6.97135e-08
1.99543e-09
6.98125e-08
1.86854e-09
6.98873e-08
1.72401e-09
6.99368e-08
1.56616e-09
6.99606e-08
1.39969e-09
6.99594e-08
1.2297e-09
6.99349e-08
1.06146e-09
6.98899e-08
9.00198e-10
6.98285e-08
7.50577e-10
6.97555e-08
6.16253e-10
6.9676e-08
4.99443e-10
6.95944e-08
4.00803e-10
6.95143e-08
3.19675e-10
6.94386e-08
2.54512e-10
6.93689e-08
2.03269e-10
6.93063e-08
1.63706e-10
6.9251e-08
1.3361e-10
6.9203e-08
1.10942e-10
6.91618e-08
9.39271e-11
6.91268e-08
8.10867e-11
6.90972e-08
7.12405e-11
6.90723e-08
6.34826e-11
6.90513e-08
5.71458e-11
6.90337e-08
5.17599e-11
6.90187e-08
4.701e-11
6.9006e-08
4.26976e-11
6.89952e-08
3.87076e-11
6.89859e-08
3.49803e-11
6.89778e-08
3.14907e-11
6.89709e-08
2.82322e-11
6.89648e-08
2.52059e-11
6.89595e-08
2.24146e-11
6.89548e-08
1.98585e-11
6.89507e-08
1.75341e-11
6.89472e-08
1.54341e-11
6.8944e-08
1.35476e-11
6.89413e-08
1.18616e-11
6.89389e-08
1.03614e-11
6.89368e-08
9.0316e-12
6.8935e-08
7.8568e-12
6.89334e-08
6.82198e-12
6.8932e-08
5.91283e-12
6.89308e-08
5.11599e-12
6.89297e-08
4.4191e-12
6.89288e-08
3.81085e-12
6.8928e-08
3.281e-12
6.89273e-08
2.82029e-12
6.89268e-08
2.42042e-12
6.89262e-08
2.07396e-12
6.89258e-08
1.77429e-12
6.89254e-08
1.51553e-12
6.89251e-08
1.29249e-12
6.89248e-08
1.10057e-12
6.89246e-08
9.35717e-13
6.89244e-08
7.94361e-13
6.89242e-08
6.73369e-13
6.8924e-08
5.69995e-13
6.89239e-08
4.81835e-13
6.89238e-08
4.06792e-13
6.89237e-08
3.43037e-13
6.89236e-08
2.88981e-13
6.89236e-08
2.43239e-13
6.89235e-08
2.04613e-13
6.89235e-08
1.72062e-13
6.89234e-08
1.44688e-13
6.89234e-08
1.21714e-13
6.89234e-08
1.02475e-13
6.89233e-08
8.63967e-14
6.89233e-08
7.29904e-14
6.89233e-08
6.18364e-14
6.89233e-08
5.25793e-14
6.89233e-08
4.49147e-14
6.89233e-08
3.85865e-14
6.89233e-08
3.33746e-14
6.89233e-08
2.90967e-14
6.89233e-08
2.55932e-14
6.89232e-08
2.27358e-14
6.89232e-08
2.0409e-14
6.89232e-08
1.85216e-14
6.89232e-08
1.69931e-14
6.89232e-08
1.57554e-14
6.89232e-08
1.47589e-14
6.89232e-08
1.39528e-14
6.89232e-08
1.33062e-14
6.89232e-08
1.27824e-14
6.89232e-08
1.2356e-14
6.89232e-08
1.20056e-14
6.89232e-08
1.17061e-14
6.89232e-08
1.14443e-14
6.89232e-08
1.11945e-14
1.09502e-14
7.55012e-08
1.76148e-09
-7.53955e-08
7.56324e-08
1.87409e-09
7.57825e-08
1.96655e-09
7.59443e-08
2.03443e-09
7.61109e-08
2.07527e-09
7.62761e-08
2.0883e-09
7.64348e-08
2.07388e-09
7.65825e-08
2.03312e-09
7.67154e-08
1.96784e-09
7.68304e-08
1.88044e-09
7.69251e-08
1.77382e-09
7.69979e-08
1.65127e-09
7.70476e-08
1.51645e-09
7.7074e-08
1.37332e-09
7.70775e-08
1.22612e-09
7.70598e-08
1.07916e-09
7.70234e-08
9.36667e-10
7.69715e-08
8.02416e-10
7.69083e-08
6.79447e-10
7.6838e-08
5.69793e-10
7.67644e-08
4.74386e-10
7.66909e-08
3.93162e-10
7.66201e-08
3.2531e-10
7.65539e-08
2.69534e-10
7.64933e-08
2.24279e-10
7.6439e-08
1.87912e-10
7.63911e-08
1.58852e-10
7.63493e-08
1.35654e-10
7.63134e-08
1.17062e-10
7.62826e-08
1.02025e-10
7.62564e-08
8.96925e-11
7.62341e-08
7.93995e-11
7.62152e-08
7.06424e-11
7.61992e-08
6.30506e-11
7.61855e-08
5.63595e-11
7.61739e-08
5.03855e-11
7.61638e-08
4.50039e-11
7.61552e-08
4.01308e-11
7.61477e-08
3.57093e-11
7.61412e-08
3.16989e-11
7.61356e-08
2.80686e-11
7.61306e-08
2.47919e-11
7.61263e-08
2.18445e-11
7.61226e-08
1.92029e-11
7.61193e-08
1.68436e-11
7.61164e-08
1.47436e-11
7.61139e-08
1.28801e-11
7.61117e-08
1.12313e-11
7.61097e-08
9.77621e-12
7.61081e-08
8.49513e-12
7.61066e-08
7.36975e-12
7.61053e-08
6.38318e-12
7.61042e-08
5.51997e-12
7.61033e-08
4.76608e-12
7.61025e-08
4.10882e-12
7.61017e-08
3.53679e-12
7.61011e-08
3.03977e-12
7.61006e-08
2.60864e-12
7.61001e-08
2.23527e-12
7.60997e-08
1.91244e-12
7.60994e-08
1.63378e-12
7.60991e-08
1.39363e-12
7.60988e-08
1.18701e-12
7.60986e-08
1.00955e-12
7.60984e-08
8.57369e-13
7.60983e-08
7.27102e-13
7.60981e-08
6.15784e-13
7.6098e-08
5.20826e-13
7.60979e-08
4.39972e-13
7.60979e-08
3.71253e-13
7.60978e-08
3.12957e-13
7.60977e-08
2.63598e-13
7.60977e-08
2.21886e-13
7.60976e-08
1.86704e-13
7.60976e-08
1.57086e-13
7.60976e-08
1.32202e-13
7.60975e-08
1.11336e-13
7.60975e-08
9.38765e-14
7.60975e-08
7.92964e-14
7.60975e-08
6.71483e-14
7.60975e-08
5.70489e-14
7.60975e-08
4.86735e-14
7.60975e-08
4.1744e-14
7.60975e-08
3.6027e-14
7.60974e-08
3.1321e-14
7.60974e-08
2.74595e-14
7.60974e-08
2.42976e-14
7.60974e-08
2.17158e-14
7.60974e-08
1.96127e-14
7.60974e-08
1.79012e-14
7.60974e-08
1.65142e-14
7.60974e-08
1.53894e-14
7.60974e-08
1.44817e-14
7.60974e-08
1.37481e-14
7.60974e-08
1.31546e-14
7.60974e-08
1.26751e-14
7.60974e-08
1.22821e-14
7.60974e-08
1.19603e-14
7.60974e-08
1.16891e-14
1.14634e-14
8.34925e-08
1.66657e-09
-8.33976e-08
8.36081e-08
1.75843e-09
8.37401e-08
1.83463e-09
8.38828e-08
1.89175e-09
8.40306e-08
1.92744e-09
8.41784e-08
1.94053e-09
8.43214e-08
1.93086e-09
8.44555e-08
1.89901e-09
8.45771e-08
1.8462e-09
8.46833e-08
1.77422e-09
8.47718e-08
1.68533e-09
8.48409e-08
1.58218e-09
8.48896e-08
1.46778e-09
8.49175e-08
1.34539e-09
8.49252e-08
1.21846e-09
8.49138e-08
1.09051e-09
8.48855e-08
9.6493e-10
8.48432e-08
8.44805e-10
8.47899e-08
7.32681e-10
8.47293e-08
6.30401e-10
8.46647e-08
5.39032e-10
8.45989e-08
4.58906e-10
8.45345e-08
3.89751e-10
8.44732e-08
3.3086e-10
8.44162e-08
2.81244e-10
8.43643e-08
2.39775e-10
8.43179e-08
2.0529e-10
8.42769e-08
1.76669e-10
8.4241e-08
1.5289e-10
8.421e-08
1.33053e-10
8.41833e-08
1.16393e-10
8.41604e-08
1.02278e-10
8.41409e-08
9.02012e-11
8.41242e-08
7.97602e-11
8.41099e-08
7.0646e-11
8.40976e-08
6.2623e-11
8.40871e-08
5.55132e-11
8.40781e-08
4.91828e-11
8.40703e-08
4.35295e-11
8.40635e-08
3.8474e-11
8.40576e-08
3.39525e-11
8.40525e-08
2.9912e-11
8.4048e-08
2.63063e-11
8.40441e-08
2.30948e-11
8.40407e-08
2.02402e-11
8.40378e-08
1.77083e-11
8.40352e-08
1.54673e-11
8.40329e-08
1.34881e-11
8.4031e-08
1.17435e-11
8.40292e-08
1.02087e-11
8.40278e-08
8.86101e-12
8.40265e-08
7.67966e-12
8.40253e-08
6.6459e-12
8.40244e-08
5.7428e-12
8.40235e-08
4.95512e-12
8.40228e-08
4.2692e-12
8.40221e-08
3.67283e-12
8.40216e-08
3.15514e-12
8.40211e-08
2.70644e-12
8.40207e-08
2.31814e-12
8.40204e-08
1.98264e-12
8.40201e-08
1.69322e-12
8.40198e-08
1.44393e-12
8.40196e-08
1.22957e-12
8.40194e-08
1.04553e-12
8.40192e-08
8.87786e-13
8.40191e-08
7.52803e-13
8.4019e-08
6.37495e-13
8.40189e-08
5.39163e-13
8.40188e-08
4.55456e-13
8.40187e-08
3.84327e-13
8.40187e-08
3.23994e-13
8.40186e-08
2.72913e-13
8.40186e-08
2.29744e-13
8.40185e-08
1.9333e-13
8.40185e-08
1.6267e-13
8.40185e-08
1.36905e-13
8.40185e-08
1.15296e-13
8.40185e-08
9.72083e-14
8.40184e-08
8.20998e-14
8.40184e-08
6.95066e-14
8.40184e-08
5.90337e-14
8.40184e-08
5.03438e-14
8.40184e-08
4.31514e-14
8.40184e-08
3.72119e-14
8.40184e-08
3.23204e-14
8.40184e-08
2.83011e-14
8.40184e-08
2.50066e-14
8.40184e-08
2.2313e-14
8.40184e-08
2.01145e-14
8.40184e-08
1.83262e-14
8.40184e-08
1.68733e-14
8.40184e-08
1.56978e-14
8.40184e-08
1.47489e-14
8.40184e-08
1.39848e-14
8.40184e-08
1.3374e-14
8.40184e-08
1.28872e-14
8.40184e-08
1.25067e-14
8.40184e-08
1.22158e-14
1.20111e-14
9.23121e-08
1.5833e-09
-9.22288e-08
9.24118e-08
1.65864e-09
9.2525e-08
1.72148e-09
9.26475e-08
1.76924e-09
9.2775e-08
1.79994e-09
9.29032e-08
1.81232e-09
9.30281e-08
1.80595e-09
9.31461e-08
1.78104e-09
9.32539e-08
1.73837e-09
9.33489e-08
1.67921e-09
9.3429e-08
1.60527e-09
9.34925e-08
1.51865e-09
9.35386e-08
1.42174e-09
9.35668e-08
1.31718e-09
9.35775e-08
1.20775e-09
9.35717e-08
1.09629e-09
9.35511e-08
9.8555e-10
9.35179e-08
8.78047e-10
9.34746e-08
7.75928e-10
9.34242e-08
6.80854e-10
9.33693e-08
5.9394e-10
9.33124e-08
5.15763e-10
9.32557e-08
4.46428e-10
9.32009e-08
3.85668e-10
9.31492e-08
3.32944e-10
9.31014e-08
2.87544e-10
9.30581e-08
2.4867e-10
9.30192e-08
2.15499e-10
9.29849e-08
1.87234e-10
9.29548e-08
1.63137e-10
9.29286e-08
1.42547e-10
9.2906e-08
1.24888e-10
9.28866e-08
1.09671e-10
9.28698e-08
9.64892e-11
9.28555e-08
8.50075e-11
9.28431e-08
7.49556e-11
9.28325e-08
6.61162e-11
9.28234e-08
5.83148e-11
9.28155e-08
5.1411e-11
9.28087e-08
4.52911e-11
9.28028e-08
3.98609e-11
9.27977e-08
3.5042e-11
9.27932e-08
3.07671e-11
9.27893e-08
2.69777e-11
9.27859e-08
2.36225e-11
9.2783e-08
2.06556e-11
9.27804e-08
1.80357e-11
9.27782e-08
1.57258e-11
9.27762e-08
1.36923e-11
9.27746e-08
1.19049e-11
9.27731e-08
1.03361e-11
9.27718e-08
8.96144e-12
9.27707e-08
7.75862e-12
9.27697e-08
6.70776e-12
9.27689e-08
5.79103e-12
9.27682e-08
4.99249e-12
9.27675e-08
4.29794e-12
9.2767e-08
3.69474e-12
9.27665e-08
3.17164e-12
9.27661e-08
2.7187e-12
9.27658e-08
2.32709e-12
9.27655e-08
1.98902e-12
9.27652e-08
1.69762e-12
9.2765e-08
1.44684e-12
9.27648e-08
1.23136e-12
9.27647e-08
1.04649e-12
9.27645e-08
8.88153e-13
9.27644e-08
7.52757e-13
9.27643e-08
6.37174e-13
9.27642e-08
5.38672e-13
9.27642e-08
4.54871e-13
9.27641e-08
3.83704e-13
9.27641e-08
3.2337e-13
9.2764e-08
2.72313e-13
9.2764e-08
2.29184e-13
9.27639e-08
1.92819e-13
9.27639e-08
1.62213e-13
9.27639e-08
1.36503e-13
9.27639e-08
1.14948e-13
9.27639e-08
9.69124e-14
9.27639e-08
8.18528e-14
9.27638e-08
6.93052e-14
9.27638e-08
5.88733e-14
9.27638e-08
5.02205e-14
9.27638e-08
4.30597e-14
9.27638e-08
3.71481e-14
9.27638e-08
3.22791e-14
9.27638e-08
2.82783e-14
9.27638e-08
2.49993e-14
9.27638e-08
2.23176e-14
9.27638e-08
2.0131e-14
9.27638e-08
1.83525e-14
9.27638e-08
1.69116e-14
9.27638e-08
1.57493e-14
9.27638e-08
1.48168e-14
9.27638e-08
1.40772e-14
9.27638e-08
1.34991e-14
9.27638e-08
1.30629e-14
9.27638e-08
1.27543e-14
1.25725e-14
1.02046e-07
1.51317e-09
-1.01976e-07
1.02129e-07
1.57577e-09
1.02223e-07
1.62808e-09
1.02324e-07
1.6682e-09
1.02429e-07
1.69448e-09
1.02536e-07
1.7058e-09
1.0264e-07
1.7016e-09
1.02739e-07
1.68186e-09
1.02831e-07
1.64705e-09
1.02912e-07
1.59804e-09
1.02981e-07
1.53613e-09
1.03037e-07
1.46292e-09