/*--------------------------------*- C++ -*----------------------------------*\
| =========                 |                                                 |
| \\      /  F ield         | OpenFOAM: The Open Source CFD Toolbox           |
|  \\    /   O peration     | Version:  2.3.0                                 |
|   \\  /    A nd           | Web:      www.OpenFOAM.org                      |
|    \\/     M anipulation  |                                                 |
\*---------------------------------------------------------------------------*/
FoamFile
{
    version     2.0;
    format      ascii;
    class       volScalarField;
    location    "0.2";
    object      p;
}
// * * * * * * * * * * * * * * * * * * * * * * * * * * * * * * * * * * * * * //

dimensions      [0 2 -2 0 0 0 0];

internalField   nonuniform List<scalar> 
2250
(
0.00162689
0.00158445
0.00138561
0.00114978
0.000950923
0.000801696
0.000683887
0.00057546
0.000462856
0.000341856
0.000213696
8.0918e-05
-5.34591e-05
-0.000185227
-0.000309582
-0.000421946
-0.000517963
-0.000593954
-0.000647679
-0.000678926
-0.00068951
-0.000682732
-0.000662703
-0.000633774
-0.000599951
-0.000564443
-0.000529612
-0.000497108
-0.000467893
-0.000442305
-0.000420317
-0.000401694
-0.000385986
-0.00037264
-0.00036117
-0.000351155
-0.000342182
-0.000333851
-0.000325815
-0.000317791
-0.000309569
-0.000300988
-0.000291918
-0.000282272
-0.000272019
-0.000261139
-0.000249619
-0.000237494
-0.000224838
-0.000211727
-0.00019825
-0.000184546
-0.000170769
-0.000157051
-0.000143501
-0.00013023
-0.000117343
-0.000104949
-9.31579e-05
-8.21173e-05
-7.19706e-05
-6.28526e-05
-5.48142e-05
-4.78433e-05
-4.18271e-05
-3.6631e-05
-3.20862e-05
-2.80743e-05
-2.44876e-05
-2.1287e-05
-1.84261e-05
-1.59133e-05
-1.37129e-05
-1.18423e-05
-1.02539e-05
-8.96319e-06
-7.91393e-06
-7.13018e-06
-6.55516e-06
-6.24679e-06
-6.17244e-06
-6.4587e-06
-7.12709e-06
-8.356e-06
-1.00989e-05
-1.23218e-05
-1.45055e-05
-1.60534e-05
-1.59337e-05
-1.35829e-05
-8.9038e-06
-2.98816e-06
3.26039e-06
8.7876e-06
1.33132e-05
1.60616e-05
1.68791e-05
1.49726e-05
1.05771e-05
4.01013e-06
0.00132199
0.00129864
0.00119979
0.00105151
0.000897092
0.000761591
0.000645824
0.000539428
0.000432473
0.000319939
0.000201128
7.72517e-05
-4.90775e-05
-0.000173436
-0.000290745
-0.000396644
-0.00048756
-0.00056039
-0.000613014
-0.000644917
-0.000657455
-0.000653492
-0.000636726
-0.000611194
-0.000580723
-0.000548373
-0.000516384
-0.00048631
-0.000459096
-0.000435104
-0.00041437
-0.000396727
-0.000381772
-0.000369
-0.000357968
-0.0003483
-0.000339631
-0.000331584
-0.000323816
-0.00031605
-0.000308082
-0.000299752
-0.000290916
-0.000281489
-0.000271442
-0.000260757
-0.00024941
-0.000237436
-0.000224912
-0.000211909
-0.000198512
-0.000184866
-0.000171128
-0.000157436
-0.0001439
-0.000130632
-0.000117735
-0.000105316
-9.34807e-05
-8.23804e-05
-7.21656e-05
-6.29849e-05
-5.48949e-05
-4.78899e-05
-4.18523e-05
-3.66459e-05
-3.20939e-05
-2.80779e-05
-2.44852e-05
-2.12802e-05
-1.84123e-05
-1.58956e-05
-1.36886e-05
-1.18151e-05
-1.02212e-05
-8.92841e-06
-7.87438e-06
-7.08897e-06
-6.50782e-06
-6.19563e-06
-6.11072e-06
-6.3896e-06
-7.05177e-06
-8.29727e-06
-1.00904e-05
-1.2421e-05
-1.4756e-05
-1.64709e-05
-1.64465e-05
-1.40298e-05
-9.11135e-06
-2.92048e-06
3.54505e-06
9.2069e-06
1.38227e-05
1.66364e-05
1.74656e-05
1.5519e-05
1.09359e-05
4.0154e-06
0.00112477
0.00111278
0.00106127
0.000968858
0.000852791
0.00073278
0.00061843
0.000510751
0.000406809
0.000301965
0.000193013
8.01671e-05
-3.38651e-05
-0.000145495
-0.000251095
-0.000347182
-0.000430469
-0.000498384
-0.000549465
-0.000583287
-0.000600556
-0.000603169
-0.00059388
-0.000575865
-0.000552289
-0.000525864
-0.000498753
-0.000472665
-0.000448616
-0.000426998
-0.000407932
-0.000391381
-0.000377089
-0.000364704
-0.000353916
-0.000344371
-0.000335687
-0.000327561
-0.000319725
-0.000311927
-0.000303979
-0.000295735
-0.000287047
-0.000277807
-0.000267977
-0.000257537
-0.000246455
-0.000234757
-0.00022251
-0.000209785
-0.000196666
-0.000183292
-0.000169812
-0.000156362
-0.000143044
-0.000129974
-0.00011725
-0.000104985
-9.32814e-05
-8.22934e-05
-7.21625e-05
-6.30387e-05
-5.49748e-05
-4.79753e-05
-4.19246e-05
-3.66983e-05
-3.21204e-05
-2.80796e-05
-2.44603e-05
-2.12317e-05
-1.83381e-05
-1.57994e-05
-1.35683e-05
-1.16757e-05
-1.00618e-05
-8.75451e-06
-7.68466e-06
-6.88786e-06
-6.28959e-06
-5.96005e-06
-5.84548e-06
-6.09216e-06
-6.72428e-06
-7.98334e-06
-9.87913e-06
-1.24601e-05
-1.51852e-05
-1.73497e-05
-1.76351e-05
-1.51269e-05
-9.66506e-06
-2.7687e-06
4.2832e-06
1.0352e-05
1.52434e-05
1.82491e-05
1.91277e-05
1.70277e-05
1.19591e-05
4.31518e-06
0.000982519
0.000973955
0.00094025
0.000877291
0.000789668
0.000687687
0.000581639
0.000478135
0.000378973
0.000281675
0.000183019
8.25791e-05
-1.77607e-05
-0.000115773
-0.000209042
-0.00029458
-0.000369481
-0.000431765
-0.000480418
-0.000515014
-0.000535723
-0.000543682
-0.00054098
-0.000530096
-0.000513447
-0.000493291
-0.000471658
-0.000450136
-0.0004297
-0.000410865
-0.000393892
-0.000378842
-0.000365573
-0.000353859
-0.000343485
-0.000334194
-0.000325681
-0.000317689
-0.000310002
-0.000302402
-0.000294692
-0.000286739
-0.000278409
-0.000269574
-0.000260165
-0.00025018
-0.000239611
-0.000228462
-0.000216766
-0.000204602
-0.000192068
-0.000179282
-0.00016636
-0.000153422
-0.000140582
-0.000127964
-0.000115663
-0.00010379
-9.24376e-05
-8.17545e-05
-7.1865e-05
-6.29147e-05
-5.49541e-05
-4.8e-05
-4.19491e-05
-3.6697e-05
-3.20821e-05
-2.80065e-05
-2.43598e-05
-2.11117e-05
-1.82028e-05
-1.56497e-05
-1.33994e-05
-1.14834e-05
-9.83957e-06
-8.4991e-06
-7.39295e-06
-6.55753e-06
-5.91589e-06
-5.53319e-06
-5.34861e-06
-5.50408e-06
-6.04163e-06
-7.2586e-06
-9.28097e-06
-1.22846e-05
-1.57865e-05
-1.89426e-05
-2.00782e-05
-1.76452e-05
-1.12285e-05
-2.83852e-06
5.53907e-06
1.25682e-05
1.80883e-05
2.15363e-05
2.25817e-05
2.02176e-05
1.41909e-05
5.1423e-06
0.000861841
0.000852637
0.000825852
0.000778214
0.000710644
0.000627629
0.000535642
0.00044139
0.000349507
0.00026071
0.000172701
8.4177e-05
-3.52316e-06
-8.86404e-05
-0.000169949
-0.00024542
-0.00031242
-0.000369181
-0.000414951
-0.000449318
-0.000472157
-0.000484101
-0.000486683
-0.000481786
-0.000471184
-0.000456697
-0.000440183
-0.000423049
-0.000406142
-0.000390083
-0.000375297
-0.000361894
-0.000349799
-0.000338908
-0.000329083
-0.000320156
-0.000311918
-0.000304144
-0.000296645
-0.000289251
-0.000281769
-0.000274056
-0.000266024
-0.000257569
-0.000248584
-0.000239075
-0.000229074
-0.000218569
-0.000207545
-0.000196086
-0.000184307
-0.000172306
-0.000160151
-0.000147961
-0.000135852
-0.000123948
-0.000112321
-0.000101079
-9.03147e-05
-8.01667e-05
-7.07393e-05
-6.21558e-05
-5.44579e-05
-4.7667e-05
-4.17011e-05
-3.64799e-05
-3.18709e-05
-2.77904e-05
-2.41414e-05
-2.0891e-05
-1.79793e-05
-1.54175e-05
-1.31499e-05
-1.12065e-05
-9.52669e-06
-8.14019e-06
-6.98348e-06
-6.08609e-06
-5.37444e-06
-4.89566e-06
-4.5822e-06
-4.54833e-06
-4.8512e-06
-5.85071e-06
-7.88157e-06
-1.14083e-05
-1.62096e-05
-2.13538e-05
-2.46349e-05
-2.31719e-05
-1.55258e-05
-4.28507e-06
7.02231e-06
1.6296e-05
2.32807e-05
2.77157e-05
2.92931e-05
2.67626e-05
1.91767e-05
7.13156e-06
0.000753076
0.000742196
0.000718642
0.000680266
0.000627316
0.000560978
0.000484105
0.000402153
0.000320656
0.000241507
0.000163369
8.54658e-05
9.19398e-06
-6.42224e-05
-0.000134724
-0.000201161
-0.000260908
-0.000312227
-0.000354809
-0.000388343
-0.000412291
-0.00042691
-0.00043347
-0.000433418
-0.000427935
-0.000418411
-0.000406495
-0.000393418
-0.000379892
-0.000366584
-0.000354022
-0.000342332
-0.000331502
-0.000321554
-0.000312404
-0.000303929
-0.000296014
-0.000288493
-0.00028119
-0.000273981
-0.000266703
-0.000259219
-0.000251469
-0.000243384
-0.000234844
-0.000225852
-0.000216461
-0.000206643
-0.000196341
-0.000185646
-0.000174697
-0.000163568
-0.000152281
-0.00014094
-0.000129672
-0.000118589
-0.000107753
-9.72596e-05
-8.72011e-05
-7.76978e-05
-6.88334e-05
-6.07072e-05
-5.33586e-05
-4.68104e-05
-4.10037e-05
-3.58748e-05
-3.13214e-05
-2.72715e-05
-2.36455e-05
-2.0411e-05
-1.75119e-05
-1.49546e-05
-1.26829e-05
-1.07205e-05
-9.01037e-06
-7.57414e-06
-6.35664e-06
-5.37472e-06
-4.56056e-06
-3.93294e-06
-3.40868e-06
-3.03957e-06
-2.85475e-06
-3.23477e-06
-4.78761e-06
-8.53569e-06
-1.50016e-05
-2.35717e-05
-3.14265e-05
-3.3365e-05
-2.51406e-05
-9.31301e-06
7.76104e-06
2.17962e-05
3.193e-05
3.83526e-05
4.11896e-05
3.91097e-05
2.992e-05
1.18432e-05
0.000653579
0.000641345
0.000619733
0.000587626
0.000545471
0.000493069
0.000430796
0.000362171
0.000292178
0.000223207
0.000154796
8.67028e-05
2.0283e-05
-4.32966e-05
-0.000104292
-0.000162452
-0.000215573
-0.000261669
-0.000300698
-0.000332763
-0.000356929
-0.000372984
-0.000382252
-0.000385944
-0.000384563
-0.000379129
-0.000371223
-0.000361838
-0.000351455
-0.000340773
-0.000330408
-0.00032048
-0.000311011
-0.000302118
-0.000293776
-0.000285882
-0.000278383
-0.000271185
-0.00026415
-0.000257196
-0.000250194
-0.000243014
-0.000235599
-0.00022791
-0.000219851
-0.000211421
-0.000202664
-0.00019353
-0.000183953
-0.000174041
-0.000163942
-0.000153695
-0.000143286
-0.000132813
-0.000122416
-0.000112191
-0.000102185
-9.24768e-05
-8.31612e-05
-7.43409e-05
-6.60848e-05
-5.84693e-05
-5.15301e-05
-4.52865e-05
-3.96989e-05
-3.47182e-05
-3.02693e-05
-2.6293e-05
-2.27233e-05
-1.95294e-05
-1.66578e-05
-1.41094e-05
-1.18311e-05
-9.83768e-06
-8.0794e-06
-6.5675e-06
-5.25564e-06
-4.14684e-06
-3.17811e-06
-2.33538e-06
-1.50735e-06
-6.45718e-07
3.34637e-07
1.17393e-06
1.09344e-06
-1.66698e-06
-9.01385e-06
-2.14376e-05
-3.59175e-05
-4.41515e-05
-3.69623e-05
-1.57066e-05
9.08215e-06
2.92058e-05
4.28185e-05
5.10561e-05
5.52548e-05
5.45528e-05
4.56719e-05
1.94648e-05
0.000562
0.000549323
0.000529499
0.000502271
0.000468525
0.000427542
0.000378018
0.000321638
0.000262921
0.000204528
0.000145805
8.64818e-05
2.84955e-05
-2.64895e-05
-7.89567e-05
-0.000129586
-0.000176664
-0.000217734
-0.000252787
-0.000282726
-0.000306472
-0.000323011
-0.000333735
-0.000340046
-0.000341801
-0.000339531
-0.000334885
-0.000328684
-0.000321068
-0.000312763
-0.000304492
-0.000296309
-0.000288234
-0.000280485
-0.000273079
-0.000265924
-0.000259011
-0.000252289
-0.000245668
-0.000239113
-0.000232527
-0.000225779
-0.000218813
-0.000211603
-0.000204082
-0.000196269
-0.000188193
-0.000179778
-0.000170959
-0.000161862
-0.00015263
-0.000143269
-0.000133744
-0.000124154
-0.00011464
-0.000105282
-9.61114e-05
-8.71966e-05
-7.86298e-05
-7.04968e-05
-6.28524e-05
-5.57555e-05
-4.92383e-05
-4.33196e-05
-3.79737e-05
-3.31649e-05
-2.88373e-05
-2.49427e-05
-2.14249e-05
-1.82547e-05
-1.53824e-05
-1.28029e-05
-1.04693e-05
-8.3854e-06
-6.51025e-06
-4.84328e-06
-3.34716e-06
-2.01446e-06
-7.90351e-07
3.59298e-07
1.56185e-06
2.95833e-06
4.79808e-06
7.14347e-06
9.50297e-06
1.00018e-05
5.72621e-06
-5.23976e-06
-2.12627e-05
-3.34248e-05
-2.92068e-05
-9.82024e-06
1.14028e-05
2.64374e-05
3.54241e-05
4.10054e-05
4.52639e-05
4.77865e-05
4.54958e-05
2.10169e-05
0.000477322
0.000465191
0.000447637
0.000424624
0.000397446
0.000365447
0.000326606
0.000281169
0.000232717
0.000184064
0.000134644
8.39093e-05
3.38759e-05
-1.34728e-05
-5.84506e-05
-0.000102031
-0.000143193
-0.000179546
-0.00021068
-0.000237928
-0.000260658
-0.000277202
-0.00028856
-0.000296503
-0.000300602
-0.000300709
-0.000298503
-0.000294872
-0.000289585
-0.000283245
-0.000276729
-0.000270077
-0.000263276
-0.000256613
-0.000250109
-0.000243678
-0.000237383
-0.0002312
-0.000225056
-0.000218971
-0.000212864
-0.000206581
-0.00020009
-0.0001934
-0.000186454
-0.000179279
-0.000171908
-0.000164243
-0.000156205
-0.000147935
-0.000139588
-0.000131138
-0.000122533
-0.000113862
-0.000105271
-9.68198e-05
-8.85281e-05
-8.04554e-05
-7.26864e-05
-6.52933e-05
-5.83172e-05
-5.18045e-05
-4.57817e-05
-4.02643e-05
-3.52344e-05
-3.06647e-05
-2.65123e-05
-2.27389e-05
-1.92963e-05
-1.61565e-05
-1.32747e-05
-1.0637e-05
-8.20373e-06
-5.96519e-06
-3.88881e-06
-1.96364e-06
-1.62674e-07
1.52356e-06
3.12627e-06
4.66496e-06
6.22112e-06
7.91775e-06
1.00621e-05
1.31234e-05
1.76933e-05
2.39135e-05
3.08538e-05
3.64137e-05
3.83868e-05
3.56818e-05
2.78004e-05
1.47872e-05
-8.64826e-07
-1.49826e-05
-2.51248e-05
-3.03573e-05
-3.01717e-05
-2.41648e-05
-1.2328e-05
-3.24241e-06
0.000398735
0.000387797
0.000372998
0.000353787
0.000331729
0.000306732
0.000276716
0.00024079
0.00020137
0.000161516
0.000121159
7.90788e-05
3.6711e-05
-3.56684e-06
-4.15398e-05
-7.82685e-05
-0.000113536
-0.000145362
-0.000172675
-0.000196761
-0.000217922
-0.000234297
-0.000245936
-0.000254798
-0.000260757
-0.000262994
-0.000262821
-0.000261371
-0.000258265
-0.000253814
-0.000248958
-0.000243787
-0.000238252
-0.00023271
-0.000227195
-0.000221581
-0.000215987
-0.000210442
-0.00020487
-0.000199342
-0.000193802
-0.000188067
-0.000182134
-0.000176065
-0.00016977
-0.000163244
-0.000156582
-0.000149707
-0.000142488
-0.000135029
-0.000127522
-0.000119952
-0.000112233
-0.000104427
-9.66866e-05
-8.90725e-05
-8.15881e-05
-7.42794e-05
-6.72238e-05
-6.04866e-05
-5.41001e-05
-4.81004e-05
-4.25107e-05
-3.7346e-05
-3.2592e-05
-2.82297e-05
-2.42236e-05
-2.05419e-05
-1.71434e-05
-1.39978e-05
-1.10652e-05
-8.32289e-06
-5.73423e-06
-3.28e-06
-9.32598e-07
1.32758e-06
3.51532e-06
5.63639e-06
7.69105e-06
9.6526e-06
1.1507e-05
1.32422e-05
1.50495e-05
1.76846e-05
2.32175e-05
3.55105e-05
5.87924e-05
9.3282e-05
0.000131354
0.000152478
0.000131468
7.00598e-05
-2.95094e-06
-6.53963e-05
-0.000110927
-0.000140395
-0.000154422
-0.000150629
-0.000123386
-5.23002e-05
0.000341969
0.00033218
0.000319449
0.000302773
0.000283649
0.000262647
0.000238131
0.000208704
0.000175733
0.000142095
0.000108346
7.31313e-05
3.71156e-05
2.55708e-06
-2.98773e-05
-6.10328e-05
-9.11452e-05
-0.00011883
-0.000142731
-0.000163705
-0.000182689
-0.000198177
-0.000209417
-0.000218131
-0.000224722
-0.00022811
-0.000229046
-0.000228812
-0.000227127
-0.000224005
-0.000220346
-0.000216325
-0.000211787
-0.000207094
-0.000202392
-0.000197531
-0.000192613
-0.000187696
-0.000182681
-0.000177664
-0.000172674
-0.000167522
-0.000162185
-0.000156769
-0.000151163
-0.000145305
-0.000139349
-0.000133303
-0.000126972
-0.000120369
-0.000113717
-0.000107072
-0.000100323
-9.34681e-05
-8.6651e-05
-7.99552e-05
-7.33776e-05
-6.69386e-05
-6.07018e-05
-5.47316e-05
-4.90525e-05
-4.3693e-05
-3.86711e-05
-3.40029e-05
-2.96812e-05
-2.56913e-05
-2.20072e-05
-1.86031e-05
-1.54445e-05
-1.25048e-05
-9.74948e-06
-7.15368e-06
-4.68741e-06
-2.32651e-06
-4.84942e-08
2.16701e-06
4.33375e-06
6.45614e-06
8.53207e-06
1.05355e-05
1.2441e-05
1.42265e-05
1.60691e-05
1.87555e-05
2.45358e-05
3.78175e-05
6.36755e-05
0.000102715
0.00014617
0.000171874
0.000150508
8.01414e-05
-7.09554e-06
-8.2699e-05
-0.000137395
-0.000171982
-0.000187707
-0.000182543
-0.000150057
-6.31703e-05
0.00029979
0.000290822
0.000279681
0.000264853
0.000247624
0.000229171
0.000208396
0.000183652
0.000155439
0.0001263
9.74338e-05
6.76198e-05
3.6716e-05
6.68965e-06
-2.13529e-05
-4.80046e-05
-7.37977e-05
-9.79475e-05
-0.000119049
-0.000137401
-0.000154264
-0.000168715
-0.000179449
-0.000187743
-0.0001945
-0.000198609
-0.000200245
-0.000200798
-0.000200179
-0.000198086
-0.000195337
-0.00019227
-0.000188619
-0.000184661
-0.000180653
-0.000176454
-0.00017215
-0.000167851
-0.000163405
-0.000158869
-0.000154382
-0.000149786
-0.000145001
-0.000140163
-0.000135186
-0.000129931
-0.000124568
-0.000119218
-0.000113665
-0.0001078
-0.00010185
-9.5965e-05
-9.00332e-05
-8.39792e-05
-7.79252e-05
-7.19898e-05
-6.6178e-05
-6.04835e-05
-5.4952e-05
-4.96507e-05
-4.46036e-05
-3.98326e-05
-3.53507e-05
-3.11759e-05
-2.73078e-05
-2.37347e-05
-2.04405e-05
-1.74032e-05
-1.45975e-05
-1.20009e-05
-9.5854e-06
-7.33046e-06
-5.2108e-06
-3.20446e-06
-1.29125e-06
5.48883e-07
2.33462e-06
4.08022e-06
5.80974e-06
7.54822e-06
9.35211e-06
1.13362e-05
1.37862e-05
1.73092e-05
2.30008e-05
3.2269e-05
4.58004e-05
6.17154e-05
7.42491e-05
7.28039e-05
4.70441e-05
2.09889e-06
-4.38482e-05
-7.90346e-05
-0.000101682
-0.000113278
-0.000114283
-0.000102932
-7.6006e-05
-2.88954e-05
0.00025689
0.000248659
0.000239232
0.000226553
0.000211375
0.000195336
0.000178043
0.00015783
0.000134393
0.000109727
8.55666e-05
6.10574e-05
3.53386e-05
9.90887e-06
-1.37827e-05
-3.60476e-05
-5.76131e-05
-7.82541e-05
-9.67033e-05
-0.000112632
-0.000127331
-0.000140617
-0.000150855
-0.000158627
-0.000165292
-0.000169984
-0.000172252
-0.000173426
-0.000173755
-0.000172662
-0.000170742
-0.000168545
-0.000165801
-0.000162649
-0.00015939
-0.000155875
-0.000152176
-0.00014852
-0.000144729
-0.000140746
-0.0001368
-0.000132815
-0.000128621
-0.000124352
-0.000120014
-0.000115411
-0.000110651
-0.000105965
-0.000101193
-9.60993e-05
-9.08466e-05
-8.56823e-05
-8.05476e-05
-7.52978e-05
-7.00008e-05
-6.48062e-05
-5.97418e-05
-5.47792e-05
-4.99391e-05
-4.52892e-05
-4.08621e-05
-3.66714e-05
-3.2728e-05
-2.90459e-05
-2.5633e-05
-2.24792e-05
-1.95763e-05
-1.69067e-05
-1.44548e-05
-1.22025e-05
-1.0129e-05
-8.22009e-06
-6.45518e-06
-4.8189e-06
-3.29014e-06
-1.8486e-06
-4.73569e-07
8.64491e-07
2.20951e-06
3.63312e-06
5.25223e-06
7.24985e-06
9.86344e-06
1.32222e-05
1.68591e-05
1.89901e-05
1.65214e-05
6.76479e-06
-1.09074e-05
-3.28138e-05
-4.63374e-05
-4.45363e-05
-3.50644e-05
-2.56488e-05
-1.76853e-05
-9.96686e-06
-1.419e-06
8.28063e-06
1.69041e-05
1.05027e-05
0.000213322
0.000205772
0.000198008
0.000187792
0.000175032
0.0001614
0.000147288
0.000131321
0.000112637
9.24843e-05
7.27126e-05
5.3126e-05
3.25864e-05
1.18117e-05
-7.69235e-06
-2.58189e-05
-4.33436e-05
-6.04627e-05
-7.61986e-05
-8.97844e-05
-0.000102155
-0.000113766
-0.000123179
-0.000130192
-0.000136189
-0.000140912
-0.000143541
-0.000144974
-0.000145805
-0.000145484
-0.000144241
-0.000142665
-0.000140602
-0.000138116
-0.000135561
-0.000132781
-0.000129695
-0.000126593
-0.000123417
-0.00012002
-0.000116626
-0.000113272
-0.000109723
-0.000106048
-0.000102377
-9.85167e-05
-9.44341e-05
-9.04024e-05
-8.64163e-05
-8.21851e-05
-7.77268e-05
-7.33283e-05
-6.90353e-05
-6.4673e-05
-6.02195e-05
-5.5828e-05
-5.1571e-05
-4.74156e-05
-4.33521e-05
-3.94354e-05
-3.57087e-05
-3.21793e-05
-2.88532e-05
-2.57381e-05
-2.28485e-05
-2.01777e-05
-1.77221e-05
-1.54702e-05
-1.34116e-05
-1.15359e-05
-9.82441e-06
-8.26762e-06
-6.84995e-06
-5.56087e-06
-4.38361e-06
-3.29634e-06
-2.28292e-06
-1.31145e-06
-3.41621e-07
6.8854e-07
1.85822e-06
3.23971e-06
4.80352e-06
6.14185e-06
5.99083e-06
1.89947e-06
-9.04152e-06
-2.79163e-05
-5.18164e-05
-7.12935e-05
-7.1602e-05
-4.87978e-05
-1.61474e-05
1.30012e-05
3.44972e-05
4.93052e-05
5.84574e-05
6.08855e-05
5.24457e-05
2.26532e-05
0.000169013
0.000162301
0.000156068
0.000148407
0.000138436
0.000127369
0.000116168
0.000104071
9.00129e-05
7.43911e-05
5.879e-05
4.37299e-05
2.81891e-05
1.20835e-05
-3.30212e-06
-1.75215e-05
-3.1208e-05
-4.46689e-05
-5.73575e-05
-6.85229e-05
-7.84426e-05
-8.77607e-05
-9.57614e-05
-0.000101783
-0.000106729
-0.00011093
-0.000113596
-0.000115015
-0.000115957
-0.00011616
-0.000115521
-0.000114525
-0.000113126
-0.000111225
-0.000109225
-0.00010719
-0.000104897
-0.000102476
-9.99806e-05
-9.72659e-05
-9.4496e-05
-9.182e-05
-8.90156e-05
-8.60374e-05
-8.30864e-05
-8.00604e-05
-7.67861e-05
-7.34754e-05
-7.02925e-05
-6.69936e-05
-6.34309e-05
-5.98413e-05
-5.63926e-05
-5.29493e-05
-4.9402e-05
-4.58633e-05
-4.24455e-05
-3.91311e-05
-3.58809e-05
-3.27275e-05
-2.97218e-05
-2.68753e-05
-2.41887e-05
-2.16665e-05
-1.93229e-05
-1.71576e-05
-1.51661e-05
-1.33431e-05
-1.16792e-05
-1.01706e-05
-8.80522e-06
-7.57171e-06
-6.45832e-06
-5.45642e-06
-4.55715e-06
-3.74511e-06
-3.01121e-06
-2.33587e-06
-1.69914e-06
-1.08844e-06
-5.13512e-07
-6.04119e-08
1.59004e-08
-8.73112e-07
-3.77509e-06
-1.00132e-05
-2.04315e-05
-3.42189e-05
-4.7814e-05
-5.44497e-05
-4.73602e-05
-2.7119e-05
-1.75103e-06
2.11977e-05
3.85448e-05
4.97759e-05
5.46215e-05
5.16839e-05
3.87778e-05
1.48536e-05
0.000123566
0.000118105
0.000113375
0.000108126
0.000101106
9.28492e-05
8.45174e-05
7.59852e-05
6.62469e-05
5.51225e-05
4.37233e-05
3.28854e-05
2.20203e-05
1.06013e-05
-6.53661e-07
-1.10809e-05
-2.09211e-05
-3.06109e-05
-4.00325e-05
-4.84539e-05
-5.56768e-05
-6.24312e-05
-6.86066e-05
-7.33062e-05
-7.69102e-05
-8.01543e-05
-8.25195e-05
-8.38085e-05
-8.47001e-05
-8.51321e-05
-8.48002e-05
-8.41922e-05
-8.35044e-05
-8.2381e-05
-8.09325e-05
-7.94371e-05
-7.78207e-05
-7.61137e-05
-7.43907e-05
-7.24906e-05
-7.0448e-05
-6.84687e-05
-6.64358e-05
-6.42189e-05
-6.20043e-05
-5.98151e-05
-5.74341e-05
-5.49386e-05
-5.25668e-05
-5.0197e-05
-4.76007e-05
-4.49033e-05
-4.23305e-05
-3.98241e-05
-3.72328e-05
-3.4603e-05
-3.20588e-05
-2.96129e-05
-2.72157e-05
-2.48776e-05
-2.2644e-05
-2.05332e-05
-1.85393e-05
-1.66635e-05
-1.4915e-05
-1.32986e-05
-1.18097e-05
-1.04462e-05
-9.2028e-06
-8.07547e-06
-7.06101e-06
-6.15234e-06
-5.33838e-06
-4.60565e-06
-3.94834e-06
-3.36735e-06
-2.86166e-06
-2.42586e-06
-2.05892e-06
-1.78638e-06
-1.67415e-06
-1.86593e-06
-2.62608e-06
-4.35339e-06
-7.50264e-06
-1.23053e-05
-1.83576e-05
-2.42948e-05
-2.78036e-05
-2.615e-05
-1.80131e-05
-5.47431e-06
7.53554e-06
1.83638e-05
2.60502e-05
3.0241e-05
3.0456e-05
2.60638e-05
1.71398e-05
5.77932e-06
7.62279e-05
7.26017e-05
6.95616e-05
6.64802e-05
6.23246e-05
5.71871e-05
5.19592e-05
4.68019e-05
4.10375e-05
3.43391e-05
2.73111e-05
2.06853e-05
1.42338e-05
7.35875e-06
3.81037e-07
-6.03669e-06
-1.20092e-05
-1.79659e-05
-2.3816e-05
-2.90484e-05
-3.35108e-05
-3.7659e-05
-4.15238e-05
-4.45228e-05
-4.67957e-05
-4.8892e-05
-5.04821e-05
-5.12995e-05
-5.19237e-05
-5.24705e-05
-5.24761e-05
-5.20633e-05
-5.15813e-05
-5.09799e-05
-5.02663e-05
-4.95009e-05
-4.85351e-05
-4.74106e-05
-4.63226e-05
-4.51856e-05
-4.39255e-05
-4.27064e-05
-4.15116e-05
-4.01783e-05
-3.87858e-05
-3.74237e-05
-3.59568e-05
-3.43787e-05
-3.28823e-05
-3.14489e-05
-2.98823e-05
-2.82037e-05
-2.65925e-05
-2.50544e-05
-2.3468e-05
-2.1834e-05
-2.02471e-05
-1.87351e-05
-1.72589e-05
-1.58121e-05
-1.44239e-05
-1.31121e-05
-1.18708e-05
-1.06999e-05
-9.60437e-06
-8.58924e-06
-7.65481e-06
-6.79486e-06
-6.01188e-06
-5.30226e-06
-4.65956e-06
-4.08619e-06
-3.58207e-06
-3.13059e-06
-2.71839e-06
-2.35644e-06
-2.05366e-06
-1.81083e-06
-1.63421e-06
-1.55225e-06
-1.628e-06
-1.96301e-06
-2.70259e-06
-4.00354e-06
-5.94152e-06
-8.36667e-06
-1.07747e-05
-1.23018e-05
-1.19883e-05
-9.20106e-06
-4.22603e-06
1.55573e-06
6.68942e-06
1.04803e-05
1.27826e-05
1.3505e-05
1.24812e-05
9.72384e-06
5.77093e-06
1.76243e-06
2.59706e-05
2.47164e-05
2.36642e-05
2.26277e-05
2.12303e-05
1.94673e-05
1.76691e-05
1.59398e-05
1.40305e-05
1.17724e-05
9.37175e-06
7.12822e-06
4.96846e-06
2.65696e-06
2.98903e-07
-1.89366e-06
-3.95104e-06
-5.95218e-06
-7.90827e-06
-9.74342e-06
-1.12967e-05
-1.26389e-05
-1.39623e-05
-1.50862e-05
-1.5823e-05
-1.64374e-05
-1.70877e-05
-1.75363e-05
-1.76832e-05
-1.77076e-05
-1.77541e-05
-1.78101e-05
-1.77313e-05
-1.74413e-05
-1.71017e-05
-1.68406e-05
-1.65625e-05
-1.62233e-05
-1.58925e-05
-1.55261e-05
-1.50656e-05
-1.4595e-05
-1.4162e-05
-1.37105e-05
-1.32483e-05
-1.28092e-05
-1.23393e-05
-1.18106e-05
-1.12898e-05
-1.07906e-05
-1.02468e-05
-9.65896e-06
-9.09765e-06
-8.57695e-06
-8.04806e-06
-7.49956e-06
-6.9627e-06
-6.45036e-06
-5.94905e-06
-5.45439e-06
-4.97775e-06
-4.52877e-06
-4.1043e-06
-3.70542e-06
-3.33324e-06
-2.98663e-06
-2.66998e-06
-2.37677e-06
-2.10771e-06
-1.86669e-06
-1.64717e-06
-1.4463e-06
-1.27118e-06
-1.1187e-06
-9.7843e-07
-8.53047e-07
-7.50188e-07
-6.71029e-07
-6.19662e-07
-6.06237e-07
-6.55115e-07
-7.99702e-07
-1.07796e-06
-1.5237e-06
-2.12871e-06
-2.80459e-06
-3.35817e-06
-3.53527e-06
-3.12744e-06
-2.08223e-06
-5.88317e-07
9.71895e-07
2.26569e-06
3.1571e-06
3.62374e-06
3.64814e-06
3.21989e-06
2.4106e-06
1.40356e-06
4.32293e-07
0.000121429
0.000117239
0.000122298
0.000130126
0.000141515
0.000156638
0.00017591
0.000193192
0.000215265
0.00024363
0.000271143
0.000297702
0.000333725
0.000376897
0.000422991
0.000467809
0.000522347
0.000587622
0.00066409
0.000747668
0.000850783
0.000974393
0.0011246
0.00129483
0.0014809
0.000119763
0.00011699
0.000121986
0.000129909
0.000140828
0.000155997
0.00017485
0.0001919
0.000212896
0.000241451
0.000269233
0.000295884
0.000330807
0.000374022
0.0004183
0.000462871
0.000516292
0.000581642
0.000654971
0.00073613
0.000830514
0.000941235
0.00106148
0.0011824
0.00127989
0.00011749
0.000116449
0.000121382
0.000129343
0.00013941
0.000154508
0.00017301
0.000189844
0.000210421
0.000238593
0.000266087
0.000292337
0.000326247
0.000369133
0.000412391
0.00045573
0.00050739
0.000570562
0.000639759
0.000714136
0.000796715
0.000887508
0.000977246
0.00105528
0.00110735
0.000114832
0.000115185
0.000120275
0.000128085
0.00013741
0.000152231
0.000170492
0.000186835
0.000206691
0.000234331
0.000261757
0.00028741
0.000320244
0.000362058
0.000403915
0.000445057
0.000494112
0.000553678
0.000617334
0.000682339
0.000751115
0.000822393
0.000887907
0.000939315
0.000972171
0.000111737
0.000113045
0.000118302
0.000126018
0.00013488
0.000149041
0.000166778
0.000182775
0.000201969
0.000228756
0.000255696
0.000280532
0.000312016
0.000352208
0.000392255
0.000430718
0.00047609
0.000530637
0.000587311
0.000642241
0.000697608
0.000752696
0.000800837
0.000836495
0.000857553
0.000108119
0.000109994
0.00011533
0.000122891
0.000131488
0.00014492
0.000161846
0.000177393
0.000195958
0.000221571
0.000247455
0.00027126
0.00030133
0.000339504
0.000377024
0.000412086
0.000452834
0.000501413
0.000550602
0.00059601
0.000639794
0.000682059
0.000717534
0.000742041
0.00075413
0.000103781
0.000105933
0.000111296
0.000118567
0.00012681
0.00013972
0.000155737
0.000170299
0.000188042
0.000212711
0.000237247
0.000259281
0.000287429
0.000323417
0.000357977
0.000388913
0.000424395
0.00046674
0.000508643
0.000545477
0.000579584
0.000611711
0.000637387
0.000653131
0.00065847
9.854e-05
0.000100717
0.000106047
0.000113009
0.000120624
0.000132951
0.000148294
0.000161584
0.000177896
0.000201578
0.000224831
0.000244468
0.000269863
0.00030345
0.000335049
0.000361459
0.000391213
0.000427355
0.00046256
0.000491837
0.000517789
0.000541895
0.000559985
0.000568915
0.000569249
9.22169e-05
9.42236e-05
9.93059e-05
0.000106098
0.000112973
0.00012424
0.000138988
0.000151249
0.000165483
0.000187463
0.000209657
0.000227016
0.000248742
0.00027909
0.000307901
0.000330129
0.000353983
0.000383875
0.000413088
0.00043601
0.000455059
0.00047264
0.000485097
0.000489137
0.000485874
8.45746e-05
8.63453e-05
9.0952e-05
9.75447e-05
0.000103713
0.000113437
0.000127361
0.000138978
0.0001508
0.000170066
0.000191149
0.000206791
0.000224255
0.000250172
0.000276233
0.000295205
0.000313494
0.000337059
0.000360846
0.00037866
0.000392004
0.000404134
0.000412497
0.00041347
0.000407931
7.7401e-05
7.89704e-05
8.3035e-05
8.9361e-05
9.5074e-05
0.000103318
0.000116208
0.000127489
0.000137437
0.000153881
0.000173747
0.000188456
0.000202557
0.000224273
0.000248019
0.000265161
0.000279651
0.000298377
0.000318307
0.00033306
0.000342959
0.000351616
0.000357674
0.000357333
0.000350985
7.12476e-05
7.26575e-05
7.62362e-05
8.22983e-05
8.7711e-05
9.46938e-05
0.000106558
0.000117646
0.000126233
0.000140184
0.000158865
0.000173065
0.000184689
0.000202868
0.000224683
0.00024072
0.000252565
0.000267606
0.000284724
0.000297568
0.000305263
0.000311518
0.000316132
0.000315301
0.000308687
6.40442e-05
6.53189e-05
6.83491e-05
7.39525e-05
7.91109e-05
8.48234e-05
9.52516e-05
0.000106009
0.000113467
0.000124659
0.000141566
0.00015529
0.000164746
0.000179074
0.000198456
0.000213509
0.000223064
0.000234386
0.000248587
0.0002598
0.000265721
0.000269742
0.000273003
0.00027208
0.000265633
5.56444e-05
5.68178e-05
5.92513e-05
6.41238e-05
6.90635e-05
7.36402e-05
8.21174e-05
9.21708e-05
9.89364e-05
0.000107347
0.000121577
0.000134571
0.000142521
0.000153012
0.000169153
0.000183034
0.000190902
0.000198764
0.000209804
0.00021945
0.000224143
0.000226267
0.000228119
0.000227288
0.000221564
4.59073e-05
4.69658e-05
4.8821e-05
5.27394e-05
5.7282e-05
6.08751e-05
6.71448e-05
7.59521e-05
8.21771e-05
8.80329e-05
9.88892e-05
0.000110574
0.000117537
0.000124565
0.000136764
0.000148943
0.000155653
0.000160624
0.000168358
0.000176261
0.000180163
0.000180941
0.00018145
0.000180723
0.000176201
3.47071e-05
3.55841e-05
3.69246e-05
3.97492e-05
4.34838e-05
4.62121e-05
5.04031e-05
5.72658e-05
6.25613e-05
6.63751e-05
7.37577e-05
8.31772e-05
8.9026e-05
9.33296e-05
0.000101493
0.000111119
0.000116642
0.000119503
0.000124251
0.000130135
0.000133294
0.000133333
0.000132904
0.000132263
0.000129135
2.19512e-05
2.25494e-05
2.33942e-05
2.50771e-05
2.75554e-05
2.93731e-05
3.17642e-05
3.60923e-05
3.97595e-05
4.19852e-05
4.61904e-05
5.23402e-05
5.64298e-05
5.87569e-05
6.32778e-05
6.94631e-05
7.33043e-05
7.48151e-05
7.72261e-05
8.07954e-05
8.29206e-05
8.27732e-05
8.2103e-05
8.15884e-05
7.97587e-05
7.58804e-06
7.80703e-06
8.10355e-06
8.65344e-06
9.52812e-06
1.01963e-05
1.09757e-05
1.24474e-05
1.37799e-05
1.45306e-05
1.58853e-05
1.80393e-05
1.9547e-05
2.02763e-05
2.16813e-05
2.38353e-05
2.52773e-05
2.57629e-05
2.64426e-05
2.76117e-05
2.83952e-05
2.83569e-05
2.80416e-05
2.77936e-05
2.71678e-05
)
;

boundaryField
{
    top
    {
        type            fixedValue;
        value           uniform 0;
    }
    inlet
    {
        type            zeroGradient;
    }
    outlet
    {
        type            fixedValue;
        value           uniform 0;
    }
    plate
    {
        type            zeroGradient;
    }
    symmBound
    {
        type            zeroGradient;
    }
    frontAndBack
    {
        type            empty;
    }
}


// ************************************************************************* //
