/*--------------------------------*- C++ -*----------------------------------*\
| =========                 |                                                 |
| \\      /  F ield         | OpenFOAM: The Open Source CFD Toolbox           |
|  \\    /   O peration     | Version:  2.3.0                                 |
|   \\  /    A nd           | Web:      www.OpenFOAM.org                      |
|    \\/     M anipulation  |                                                 |
\*---------------------------------------------------------------------------*/
FoamFile
{
    version     2.0;
    format      ascii;
    class       volScalarField;
    location    "1";
    object      p;
}
// * * * * * * * * * * * * * * * * * * * * * * * * * * * * * * * * * * * * * //

dimensions      [0 2 -2 0 0 0 0];

internalField   nonuniform List<scalar> 
2000
(
0.00207609
0.00150294
0.00103904
0.000707509
0.000436053
0.000194881
-1.56693e-05
-0.000190906
-0.000329361
-0.000432297
-0.000502757
-0.00054514
-0.000564709
-0.000566953
-0.000556992
-0.000539172
-0.000516889
-0.000492599
-0.000467937
-0.000443892
-0.000420986
-0.000399429
-0.000379242
-0.000360347
-0.00034262
-0.000325932
-0.000310164
-0.000295213
-0.000281001
-0.000267464
-0.000254555
-0.000242239
-0.000230487
-0.000219278
-0.000208592
-0.000198412
-0.000188722
-0.000179505
-0.000170746
-0.000162427
-0.000154532
-0.000147045
-0.000139948
-0.000133223
-0.000126856
-0.000120828
-0.000115123
-0.000109727
-0.000104622
-9.97951e-05
-9.52309e-05
-9.09159e-05
-8.68366e-05
-8.29804e-05
-7.93351e-05
-7.5889e-05
-7.2631e-05
-6.95504e-05
-6.66373e-05
-6.38818e-05
-6.12749e-05
-5.88079e-05
-5.64724e-05
-5.42604e-05
-5.21646e-05
-5.01777e-05
-4.82929e-05
-4.65037e-05
-4.48039e-05
-4.31876e-05
-4.16492e-05
-4.01831e-05
-3.87842e-05
-3.74474e-05
-3.6168e-05
-3.49411e-05
-3.37622e-05
-3.26268e-05
-3.15304e-05
-3.04686e-05
-2.94369e-05
-2.84311e-05
-2.74463e-05
-2.64782e-05
-2.55218e-05
-2.45723e-05
-2.36242e-05
-2.26721e-05
-2.171e-05
-2.07314e-05
-1.97292e-05
-1.86956e-05
-1.76217e-05
-1.6497e-05
-1.53089e-05
-1.40409e-05
-1.26703e-05
-1.11515e-05
-9.35329e-06
-9.09217e-06
0.00178703
0.00138782
0.00101322
0.000715671
0.000459657
0.000226552
1.96691e-05
-0.000154609
-0.000293716
-0.00039831
-0.000471075
-0.000516139
-0.000538553
-0.000543642
-0.000536403
-0.000521104
-0.000501095
-0.000478813
-0.000455894
-0.000433342
-0.000411702
-0.000391214
-0.000371928
-0.000353793
-0.000336712
-0.000320574
-0.000305279
-0.000290738
-0.000276884
-0.000263661
-0.00025103
-0.000238961
-0.000227431
-0.00021642
-0.000205913
-0.000195895
-0.000186352
-0.000177269
-0.000168632
-0.000160425
-0.000152634
-0.000145241
-0.000138232
-0.000131589
-0.000125296
-0.000119339
-0.0001137
-0.000108364
-0.000103317
-9.8543e-05
-9.4029e-05
-8.9761e-05
-8.57261e-05
-8.19117e-05
-7.83058e-05
-7.48968e-05
-7.1674e-05
-6.86267e-05
-6.57451e-05
-6.30196e-05
-6.04411e-05
-5.8001e-05
-5.56912e-05
-5.35037e-05
-5.14311e-05
-4.94664e-05
-4.76028e-05
-4.58339e-05
-4.41535e-05
-4.25558e-05
-4.10351e-05
-3.95861e-05
-3.82035e-05
-3.68825e-05
-3.56181e-05
-3.44057e-05
-3.32407e-05
-3.21187e-05
-3.10352e-05
-2.99858e-05
-2.89661e-05
-2.79717e-05
-2.69981e-05
-2.60406e-05
-2.50945e-05
-2.41548e-05
-2.32163e-05
-2.22733e-05
-2.132e-05
-2.03498e-05
-1.93557e-05
-1.83297e-05
-1.7263e-05
-1.61451e-05
-1.49631e-05
-1.37002e-05
-1.23329e-05
-1.08071e-05
-8.92071e-06
-9.07253e-06
0.00156431
0.00127996
0.000971172
0.000701689
0.000463967
0.00024691
5.2604e-05
-0.000113471
-0.000248538
-0.000352659
-0.00042774
-0.000477015
-0.00050465
-0.000515212
-0.000513142
-0.000502364
-0.000486077
-0.000466713
-0.000445992
-0.000425048
-0.000404566
-0.000384907
-0.000366226
-0.000348546
-0.000331825
-0.000315988
-0.000300958
-0.00028666
-0.000273033
-0.000260026
-0.000247601
-0.000235728
-0.000224384
-0.000213549
-0.000203209
-0.000193347
-0.000183951
-0.000175005
-0.000166495
-0.000158407
-0.000150726
-0.000143435
-0.000136521
-0.000129966
-0.000123756
-0.000117874
-0.000112306
-0.000107036
-0.00010205
-9.73333e-05
-9.28726e-05
-8.86544e-05
-8.4666e-05
-8.08951e-05
-7.733e-05
-7.39595e-05
-7.07727e-05
-6.77593e-05
-6.49096e-05
-6.22143e-05
-5.96643e-05
-5.72511e-05
-5.49668e-05
-5.28034e-05
-5.07538e-05
-4.8811e-05
-4.69681e-05
-4.52189e-05
-4.35573e-05
-4.19775e-05
-4.0474e-05
-3.90413e-05
-3.76745e-05
-3.63684e-05
-3.51185e-05
-3.39199e-05
-3.27682e-05
-3.16589e-05
-3.05876e-05
-2.955e-05
-2.85417e-05
-2.75583e-05
-2.65952e-05
-2.5648e-05
-2.47118e-05
-2.37817e-05
-2.28524e-05
-2.19184e-05
-2.09738e-05
-2.00121e-05
-1.90262e-05
-1.80083e-05
-1.69496e-05
-1.58396e-05
-1.46659e-05
-1.34127e-05
-1.20582e-05
-1.05526e-05
-8.82269e-06
-1.0134e-05
0.00136404
0.00115494
0.000904941
0.000670187
0.000457777
0.00026276
8.63419e-05
-6.70265e-05
-0.000194411
-0.000295226
-0.000370583
-0.000422815
-0.000455143
-0.000471278
-0.000474979
-0.000469691
-0.000458337
-0.000443225
-0.000426063
-0.000408042
-0.000389929
-0.000372185
-0.000355052
-0.000338633
-0.000322949
-0.000307978
-0.000293679
-0.000280009
-0.000266927
-0.0002544
-0.000242399
-0.000230905
-0.000219901
-0.000209373
-0.00019931
-0.0001897
-0.000180532
-0.000171796
-0.000163478
-0.000155566
-0.000148047
-0.000140907
-0.000134131
-0.000127705
-0.000121613
-0.000115843
-0.000110378
-0.000105204
-0.000100308
-9.56757e-05
-9.12938e-05
-8.71495e-05
-8.32304e-05
-7.95246e-05
-7.60206e-05
-7.27074e-05
-6.95746e-05
-6.6612e-05
-6.381e-05
-6.11597e-05
-5.8652e-05
-5.62789e-05
-5.40322e-05
-5.19046e-05
-4.98886e-05
-4.79776e-05
-4.61648e-05
-4.44442e-05
-4.28097e-05
-4.12556e-05
-3.97765e-05
-3.83671e-05
-3.70223e-05
-3.57374e-05
-3.45075e-05
-3.33281e-05
-3.21948e-05
-3.11031e-05
-3.00488e-05
-2.90274e-05
-2.80347e-05
-2.70663e-05
-2.61177e-05
-2.51845e-05
-2.42619e-05
-2.33449e-05
-2.24285e-05
-2.1507e-05
-2.05746e-05
-1.96249e-05
-1.8651e-05
-1.76451e-05
-1.65987e-05
-1.5502e-05
-1.43439e-05
-1.3112e-05
-1.17946e-05
-1.03845e-05
-9.13753e-06
-1.22073e-05
0.00117979
0.00102447
0.000828342
0.000631489
0.000446578
0.000274282
0.000116467
-2.30014e-05
-0.000141154
-0.000236934
-0.000310843
-0.0003645
-0.000400329
-0.000421248
-0.000430322
-0.000430459
-0.00042421
-0.000413668
-0.000400452
-0.000385747
-0.000370376
-0.000354876
-0.000339579
-0.00032467
-0.000310244
-0.000296338
-0.000282956
-0.00027009
-0.000257725
-0.000245844
-0.000234432
-0.000223479
-0.000212973
-0.000202905
-0.000193268
-0.000184052
-0.000175249
-0.000166851
-0.000158845
-0.000151222
-0.000143971
-0.000137077
-0.00013053
-0.000124315
-0.00011842
-0.000112831
-0.000107534
-0.000102517
-9.77653e-05
-9.32675e-05
-8.90108e-05
-8.49829e-05
-8.11722e-05
-7.75675e-05
-7.41579e-05
-7.09329e-05
-6.78824e-05
-6.4997e-05
-6.22674e-05
-5.96849e-05
-5.7241e-05
-5.49276e-05
-5.27373e-05
-5.06627e-05
-4.86967e-05
-4.68328e-05
-4.50647e-05
-4.33862e-05
-4.17915e-05
-4.02753e-05
-3.8832e-05
-3.74566e-05
-3.61443e-05
-3.48901e-05
-3.36897e-05
-3.25384e-05
-3.14319e-05
-3.03659e-05
-2.93362e-05
-2.83384e-05
-2.73685e-05
-2.64221e-05
-2.54948e-05
-2.45821e-05
-2.36795e-05
-2.2782e-05
-2.18846e-05
-2.09818e-05
-2.0068e-05
-1.91367e-05
-1.81814e-05
-1.71947e-05
-1.61685e-05
-1.50947e-05
-1.39653e-05
-1.27762e-05
-1.1541e-05
-1.03513e-05
-9.88642e-06
-1.48143e-05
0.00101699
0.000899621
0.00074751
0.000585966
0.000427975
0.000277959
0.00013885
1.40794e-05
-9.35794e-05
-0.000182816
-0.000253661
-0.000307141
-0.000345
-0.00036945
-0.000382906
-0.000387745
-0.000386124
-0.000379883
-0.000370506
-0.000359132
-0.000346596
-0.000333486
-0.000320198
-0.000306984
-0.000294
-0.000281335
-0.000269039
-0.000257134
-0.000245631
-0.000234531
-0.000223836
-0.000213542
-0.000203646
-0.000194144
-0.000185034
-0.00017631
-0.000167965
-0.000159994
-0.000152388
-0.000145138
-0.000138234
-0.000131667
-0.000125424
-0.000119494
-0.000113866
-0.000108526
-0.000103462
-9.86637e-05
-9.41172e-05
-8.98114e-05
-8.57344e-05
-8.18751e-05
-7.82225e-05
-7.4766e-05
-7.14953e-05
-6.84007e-05
-6.54727e-05
-6.27021e-05
-6.00803e-05
-5.7599e-05
-5.52503e-05
-5.30264e-05
-5.09202e-05
-4.89247e-05
-4.70332e-05
-4.52395e-05
-4.35376e-05
-4.19215e-05
-4.03859e-05
-3.89253e-05
-3.75348e-05
-3.62095e-05
-3.49445e-05
-3.37354e-05
-3.25778e-05
-3.14673e-05
-3.03997e-05
-2.9371e-05
-2.83769e-05
-2.74134e-05
-2.64764e-05
-2.55618e-05
-2.46652e-05
-2.37824e-05
-2.29088e-05
-2.20398e-05
-2.11704e-05
-2.02953e-05
-1.9409e-05
-1.85055e-05
-1.75785e-05
-1.66214e-05
-1.56274e-05
-1.45908e-05
-1.35092e-05
-1.23933e-05
-1.12973e-05
-1.04417e-05
-1.08363e-05
-1.6932e-05
0.000873041
0.000782139
0.000664094
0.000533718
0.000401594
0.000273513
0.0001531
4.34818e-05
-5.28343e-05
-0.000134412
-0.000200903
-0.000252829
-0.000291351
-0.000318072
-0.000334827
-0.0003435
-0.000345862
-0.000343485
-0.000337684
-0.000329513
-0.000319786
-0.000309105
-0.000297903
-0.00028648
-0.000275041
-0.00026372
-0.000252605
-0.000241751
-0.000231193
-0.000220954
-0.000211048
-0.000201483
-0.000192265
-0.000183396
-0.000174878
-0.000166709
-0.000158885
-0.000151404
-0.000144258
-0.000137441
-0.000130945
-0.00012476
-0.000118877
-0.000113287
-0.000107977
-0.000102937
-9.81566e-05
-9.36239e-05
-8.93281e-05
-8.52583e-05
-8.14037e-05
-7.77539e-05
-7.42988e-05
-7.10284e-05
-6.79332e-05
-6.50041e-05
-6.22322e-05
-5.96089e-05
-5.71261e-05
-5.4776e-05
-5.25512e-05
-5.04444e-05
-4.84488e-05
-4.65578e-05
-4.47653e-05
-4.30653e-05
-4.14519e-05
-3.99199e-05
-3.84639e-05
-3.7079e-05
-3.57603e-05
-3.45031e-05
-3.33031e-05
-3.21559e-05
-3.10573e-05
-3.00032e-05
-2.89896e-05
-2.80126e-05
-2.70682e-05
-2.61526e-05
-2.52617e-05
-2.43917e-05
-2.35385e-05
-2.26979e-05
-2.18656e-05
-2.10372e-05
-2.02078e-05
-1.93725e-05
-1.85262e-05
-1.76632e-05
-1.67778e-05
-1.58646e-05
-1.49185e-05
-1.39375e-05
-1.2927e-05
-1.19154e-05
-1.09999e-05
-1.04958e-05
-1.14827e-05
-1.73887e-05
0.000744575
0.000672903
0.000581086
0.000477323
0.000369096
0.000261916
0.00015957
6.49624e-05
-1.96481e-05
-9.28014e-05
-0.000153888
-0.00020303
-0.00024092
-0.000268651
-0.000287564
-0.000299097
-0.000304663
-0.000305559
-0.000302915
-0.000297674
-0.000290595
-0.000282267
-0.000273135
-0.000263528
-0.000253685
-0.000243773
-0.000233913
-0.000224186
-0.000214651
-0.000205348
-0.000196305
-0.000187541
-0.00017907
-0.000170901
-0.000163039
-0.000155487
-0.000148244
-0.000141309
-0.000134679
-0.000128349
-0.000122311
-0.000116559
-0.000111084
-0.000105879
-0.000100932
-9.62354e-05
-9.17784e-05
-8.75512e-05
-8.35438e-05
-7.97463e-05
-7.61489e-05
-7.27421e-05
-6.95165e-05
-6.6463e-05
-6.35728e-05
-6.08374e-05
-5.82486e-05
-5.57984e-05
-5.34794e-05
-5.12843e-05
-4.9206e-05
-4.7238e-05
-4.53738e-05
-4.36074e-05
-4.19328e-05
-4.03446e-05
-3.88375e-05
-3.74062e-05
-3.6046e-05
-3.47521e-05
-3.352e-05
-3.23455e-05
-3.12242e-05
-3.01522e-05
-2.91255e-05
-2.81403e-05
-2.71928e-05
-2.62793e-05
-2.53962e-05
-2.45397e-05
-2.37061e-05
-2.28918e-05
-2.20929e-05
-2.13054e-05
-2.05253e-05
-1.97484e-05
-1.89704e-05
-1.81865e-05
-1.73919e-05
-1.65819e-05
-1.57514e-05
-1.48963e-05
-1.40138e-05
-1.31057e-05
-1.21851e-05
-1.12945e-05
-1.05539e-05
-1.02852e-05
-1.13429e-05
-1.56829e-05
0.000634446
0.000576765
0.000504319
0.000421619
0.000333605
0.000244802
0.000158705
7.7961e-05
4.59019e-06
-6.00127e-05
-0.000115107
-0.000160551
-0.000196687
-0.000224222
-0.0002441
-0.000257394
-0.000265202
-0.00026857
-0.000268445
-0.000265646
-0.000260857
-0.00025463
-0.000247401
-0.000239505
-0.000231197
-0.000222667
-0.000214055
-0.000205463
-0.000196967
-0.00018862
-0.000180464
-0.000172527
-0.000164829
-0.000157385
-0.000150206
-0.000143297
-0.000136662
-0.000130301
-0.000124212
-0.000118393
-0.00011284
-0.000107545
-0.000102503
-9.77058e-05
-9.31457e-05
-8.88143e-05
-8.47027e-05
-8.08021e-05
-7.71035e-05
-7.35981e-05
-7.02769e-05
-6.71313e-05
-6.41528e-05
-6.1333e-05
-5.8664e-05
-5.61379e-05
-5.37473e-05
-5.14847e-05
-4.93433e-05
-4.73164e-05
-4.53976e-05
-4.35807e-05
-4.18598e-05
-4.02292e-05
-3.86837e-05
-3.72181e-05
-3.58274e-05
-3.45068e-05
-3.3252e-05
-3.20585e-05
-3.09222e-05
-2.9839e-05
-2.8805e-05
-2.78166e-05
-2.68701e-05
-2.59618e-05
-2.50883e-05
-2.42462e-05
-2.3432e-05
-2.26423e-05
-2.18737e-05
-2.11227e-05
-2.03857e-05
-1.96592e-05
-1.89393e-05
-1.82222e-05
-1.75037e-05
-1.67799e-05
-1.60463e-05
-1.52987e-05
-1.45331e-05
-1.37466e-05
-1.29383e-05
-1.21129e-05
-1.12874e-05
-1.05074e-05
-9.88289e-06
-9.65673e-06
-1.03147e-05
-1.25494e-05
0.000537275
0.000490564
0.0004331
0.000367324
0.000296367
0.000223667
0.00015218
8.42181e-05
2.15486e-05
-3.45519e-05
-8.33041e-05
-0.0001244
-0.000157937
-0.000184324
-0.000204197
-0.000218326
-0.000227541
-0.000232664
-0.000234467
-0.000233642
-0.000230786
-0.000226398
-0.000220887
-0.000214579
-0.000207731
-0.00020054
-0.000193159
-0.000185703
-0.000178257
-0.000170889
-0.000163646
-0.000156564
-0.000149671
-0.000142987
-0.000136524
-0.000130292
-0.000124298
-0.000118544
-0.00011303
-0.000107755
-0.000102716
-9.7909e-05
-9.33283e-05
-8.8968e-05
-8.48212e-05
-8.08807e-05
-7.71389e-05
-7.35882e-05
-7.02205e-05
-6.70281e-05
-6.40029e-05
-6.11374e-05
-5.84237e-05
-5.58545e-05
-5.34225e-05
-5.11207e-05
-4.89422e-05
-4.68804e-05
-4.4929e-05
-4.30821e-05
-4.13336e-05
-3.9678e-05
-3.81101e-05
-3.66245e-05
-3.52165e-05
-3.38813e-05
-3.26144e-05
-3.14116e-05
-3.02687e-05
-2.91817e-05
-2.81468e-05
-2.71603e-05
-2.62188e-05
-2.53188e-05
-2.44568e-05
-2.36298e-05
-2.28344e-05
-2.20676e-05
-2.13261e-05
-2.06069e-05
-1.99069e-05
-1.92228e-05
-1.85514e-05
-1.78894e-05
-1.72334e-05
-1.65798e-05
-1.59251e-05
-1.52655e-05
-1.45973e-05
-1.39169e-05
-1.32212e-05
-1.25082e-05
-1.17783e-05
-1.10373e-05
-1.03017e-05
-9.60962e-06
-9.03797e-06
-8.71684e-06
-8.79447e-06
-9.12762e-06
0.00044671
0.000409259
0.000364084
0.000312467
0.000256319
0.000198098
0.000140128
8.43114e-05
3.21373e-05
-1.52798e-05
-5.71929e-05
-9.32131e-05
-0.000123272
-0.000147565
-0.000166483
-0.00018055
-0.000190367
-0.000196553
-0.000199713
-0.00020041
-0.000199143
-0.000196346
-0.000192385
-0.000187561
-0.000182117
-0.00017625
-0.000170111
-0.000163821
-0.000157472
-0.000151136
-0.000144868
-0.000138707
-0.000132686
-0.000126828
-0.000121149
-0.000115662
-0.000110374
-0.00010529
-0.000100413
-9.57418e-05
-9.12759e-05
-8.70122e-05
-8.29467e-05
-7.90746e-05
-7.53903e-05
-7.18878e-05
-6.85609e-05
-6.54029e-05
-6.24069e-05
-5.95663e-05
-5.68741e-05
-5.43235e-05
-5.1908e-05
-4.96208e-05
-4.74557e-05
-4.54064e-05
-4.34668e-05
-4.16312e-05
-3.9894e-05
-3.82497e-05
-3.66932e-05
-3.52195e-05
-3.38239e-05
-3.25017e-05
-3.12486e-05
-3.00605e-05
-2.89332e-05
-2.78631e-05
-2.68463e-05
-2.58794e-05
-2.49589e-05
-2.40817e-05
-2.32444e-05
-2.24441e-05
-2.16777e-05
-2.09424e-05
-2.02354e-05
-1.95537e-05
-1.88946e-05
-1.82553e-05
-1.7633e-05
-1.70248e-05
-1.6428e-05
-1.58394e-05
-1.52562e-05
-1.46752e-05
-1.40933e-05
-1.35072e-05
-1.29138e-05
-1.23101e-05
-1.16938e-05
-1.10636e-05
-1.04202e-05
-9.76862e-06
-9.12097e-06
-8.50034e-06
-7.94161e-06
-7.4699e-06
-7.00716e-06
-6.05621e-06
0.000361461
0.000332062
0.000297217
0.000257572
0.000214254
0.000168941
0.000123346
7.8945e-05
3.69267e-05
-1.78385e-06
-3.65243e-05
-6.68932e-05
-9.27317e-05
-0.000114089
-0.000131178
-0.000144332
-0.00015396
-0.000160507
-0.000164427
-0.000166154
-0.000166089
-0.000164589
-0.000161965
-0.00015848
-0.000154354
-0.000149766
-0.00014486
-0.000139754
-0.000134538
-0.000129284
-0.000124048
-0.000118874
-0.000113794
-0.000108834
-0.000104012
-9.93413e-05
-9.48316e-05
-9.04891e-05
-8.63172e-05
-8.23175e-05
-7.84897e-05
-7.48321e-05
-7.13422e-05
-6.80162e-05
-6.48499e-05
-6.18387e-05
-5.89772e-05
-5.62601e-05
-5.36818e-05
-5.12366e-05
-4.89187e-05
-4.67225e-05
-4.46422e-05
-4.26723e-05
-4.08073e-05
-3.9042e-05
-3.73712e-05
-3.57899e-05
-3.42933e-05
-3.28768e-05
-3.1536e-05
-3.02665e-05
-2.90643e-05
-2.79254e-05
-2.68462e-05
-2.58228e-05
-2.4852e-05
-2.39304e-05
-2.30548e-05
-2.22222e-05
-2.14297e-05
-2.06744e-05
-1.99536e-05
-1.92646e-05
-1.86049e-05
-1.79719e-05
-1.73632e-05
-1.67764e-05
-1.62091e-05
-1.56588e-05
-1.51231e-05
-1.45996e-05
-1.40858e-05
-1.35791e-05
-1.30771e-05
-1.2577e-05
-1.20763e-05
-1.15721e-05
-1.10621e-05
-1.05437e-05
-1.00151e-05
-9.47535e-06
-8.92486e-06
-8.36641e-06
-7.80552e-06
-7.24896e-06
-6.69549e-06
-6.10279e-06
-5.30115e-06
-3.79654e-06
0.000280068
0.000257841
0.000231888
0.000202513
0.000170358
0.000136519
0.00010219
6.84395e-05
3.61624e-05
6.07695e-06
-2.1275e-05
-4.55322e-05
-6.65069e-05
-8.41662e-05
-9.86046e-05
-0.000110015
-0.000118658
-0.000124837
-0.000128871
-0.000131079
-0.000131761
-0.000131197
-0.000129633
-0.000127285
-0.000124336
-0.000120939
-0.000117221
-0.000113285
-0.000109215
-0.000105077
-0.000100923
-9.6794e-05
-9.2722e-05
-8.87313e-05
-8.48404e-05
-8.10627e-05
-7.74081e-05
-7.38834e-05
-7.04926e-05
-6.72382e-05
-6.41207e-05
-6.11394e-05
-5.82929e-05
-5.55784e-05
-5.29931e-05
-5.05332e-05
-4.81949e-05
-4.59738e-05
-4.38656e-05
-4.18658e-05
-3.99697e-05
-3.81729e-05
-3.64707e-05
-3.48587e-05
-3.33324e-05
-3.18876e-05
-3.05201e-05
-2.92258e-05
-2.80008e-05
-2.68414e-05
-2.5744e-05
-2.47049e-05
-2.3721e-05
-2.27889e-05
-2.19056e-05
-2.10681e-05
-2.02737e-05
-1.95196e-05
-1.88031e-05
-1.81219e-05
-1.74735e-05
-1.68556e-05
-1.62659e-05
-1.57023e-05
-1.51627e-05
-1.4645e-05
-1.41472e-05
-1.36672e-05
-1.32032e-05
-1.27531e-05
-1.23149e-05
-1.18868e-05
-1.14665e-05
-1.10522e-05
-1.06416e-05
-1.02327e-05
-9.82334e-06
-9.41139e-06
-8.99482e-06
-8.57179e-06
-8.14082e-06
-7.70092e-06
-7.25174e-06
-6.79349e-06
-6.32558e-06
-5.84239e-06
-5.32158e-06
-4.69633e-06
-3.80327e-06
-2.3059e-06
0.000201109
0.000185464
0.000167406
0.000147067
0.000124797
0.000101273
7.72651e-05
5.34863e-05
3.05515e-05
8.97043e-06
-1.08575e-05
-2.86483e-05
-4.42329e-05
-5.75472e-05
-6.86176e-05
-7.7543e-05
-8.44759e-05
-8.96048e-05
-9.31375e-05
-9.52879e-05
-9.62653e-05
-9.62664e-05
-9.54707e-05
-9.40378e-05
-9.21064e-05
-8.97948e-05
-8.72027e-05
-8.44122e-05
-8.14907e-05
-7.84926e-05
-7.54615e-05
-7.24318e-05
-6.94307e-05
-6.64791e-05
-6.3593e-05
-6.07845e-05
-5.80624e-05
-5.54329e-05
-5.29001e-05
-5.04665e-05
-4.81332e-05
-4.59002e-05
-4.37667e-05
-4.17312e-05
-3.97915e-05
-3.79453e-05
-3.61897e-05
-3.45216e-05
-3.2938e-05
-3.14354e-05
-3.00106e-05
-2.86601e-05
-2.73807e-05
-2.61689e-05
-2.50215e-05
-2.39353e-05
-2.29071e-05
-2.1934e-05
-2.1013e-05
-2.01413e-05
-1.93162e-05
-1.8535e-05
-1.77952e-05
-1.70945e-05
-1.64304e-05
-1.58009e-05
-1.52037e-05
-1.46368e-05
-1.40983e-05
-1.35863e-05
-1.3099e-05
-1.26346e-05
-1.21914e-05
-1.17679e-05
-1.13624e-05
-1.09733e-05
-1.05992e-05
-1.02385e-05
-9.88984e-06
-9.55161e-06
-9.22236e-06
-8.9006e-06
-8.5848e-06
-8.27344e-06
-7.96496e-06
-7.65776e-06
-7.35029e-06
-7.041e-06
-6.72839e-06
-6.4111e-06
-6.08795e-06
-5.75794e-06
-5.42005e-06
-5.07259e-06
-4.71137e-06
-4.32513e-06
-3.88641e-06
-3.33482e-06
-2.55579e-06
-1.36977e-06
0.000122226
0.000112843
0.000102103
9.00567e-05
7.68791e-05
6.29347e-05
4.86518e-05
3.44364e-05
2.06455e-05
7.58214e-06
-4.50966e-06
-1.54496e-05
-2.51218e-05
-3.34712e-05
-4.04961e-05
-4.6239e-05
-5.07767e-05
-5.42099e-05
-5.66539e-05
-5.82309e-05
-5.9063e-05
-5.92674e-05
-5.8953e-05
-5.82178e-05
-5.71488e-05
-5.5821e-05
-5.42982e-05
-5.26341e-05
-5.0873e-05
-4.90511e-05
-4.71975e-05
-4.53358e-05
-4.34845e-05
-4.16579e-05
-3.98674e-05
-3.81213e-05
-3.6426e-05
-3.4786e-05
-3.32044e-05
-3.16832e-05
-3.02234e-05
-2.88253e-05
-2.74887e-05
-2.62126e-05
-2.49961e-05
-2.38377e-05
-2.27357e-05
-2.16884e-05
-2.06937e-05
-1.97498e-05
-1.88545e-05
-1.80057e-05
-1.72015e-05
-1.64396e-05
-1.57182e-05
-1.50351e-05
-1.43885e-05
-1.37765e-05
-1.31972e-05
-1.26489e-05
-1.21299e-05
-1.16384e-05
-1.11731e-05
-1.07323e-05
-1.03145e-05
-9.91848e-06
-9.5428e-06
-9.1862e-06
-8.84744e-06
-8.52536e-06
-8.2188e-06
-7.92667e-06
-7.64791e-06
-7.38149e-06
-7.12641e-06
-6.88168e-06
-6.64637e-06
-6.41951e-06
-6.20016e-06
-5.98741e-06
-5.7803e-06
-5.5779e-06
-5.37926e-06
-5.18341e-06
-4.98939e-06
-4.79619e-06
-4.60285e-06
-4.40843e-06
-4.21197e-06
-4.01261e-06
-3.80954e-06
-3.60194e-06
-3.38867e-06
-3.16763e-06
-2.93428e-06
-2.67854e-06
-2.37953e-06
-1.99825e-06
-1.47266e-06
-7.26681e-07
4.15172e-05
3.83187e-05
3.46592e-05
3.05689e-05
2.61075e-05
2.13923e-05
1.65621e-05
1.17502e-05
7.07522e-06
2.63848e-06
-1.47758e-06
-5.21124e-06
-8.52197e-06
-1.13893e-05
-1.38108e-05
-1.57988e-05
-1.73774e-05
-1.85791e-05
-1.94418e-05
-2.0006e-05
-2.03126e-05
-2.04011e-05
-2.03085e-05
-2.00684e-05
-1.97108e-05
-1.92616e-05
-1.8743e-05
-1.81739e-05
-1.75698e-05
-1.69435e-05
-1.63053e-05
-1.56635e-05
-1.50247e-05
-1.43941e-05
-1.37756e-05
-1.31723e-05
-1.25864e-05
-1.20195e-05
-1.14728e-05
-1.0947e-05
-1.04424e-05
-9.95909e-06
-9.49708e-06
-9.05606e-06
-8.63563e-06
-8.23531e-06
-7.85452e-06
-7.49264e-06
-7.149e-06
-6.8229e-06
-6.51363e-06
-6.22046e-06
-5.94268e-06
-5.67958e-06
-5.43043e-06
-5.19457e-06
-4.97131e-06
-4.76e-06
-4.56e-06
-4.37071e-06
-4.19152e-06
-4.02189e-06
-3.86125e-06
-3.70908e-06
-3.56489e-06
-3.42819e-06
-3.29852e-06
-3.17543e-06
-3.05851e-06
-2.94733e-06
-2.84151e-06
-2.74067e-06
-2.64444e-06
-2.55246e-06
-2.46439e-06
-2.37989e-06
-2.29863e-06
-2.22028e-06
-2.14452e-06
-2.07103e-06
-1.99947e-06
-1.92954e-06
-1.86089e-06
-1.7932e-06
-1.72614e-06
-1.65934e-06
-1.59251e-06
-1.5253e-06
-1.4574e-06
-1.38848e-06
-1.31823e-06
-1.24635e-06
-1.17232e-06
-1.09516e-06
-1.01288e-06
-9.21432e-07
-8.13043e-07
-6.74346e-07
-4.85871e-07
-2.26172e-07
6.79433e-05
7.05677e-05
7.65116e-05
8.54237e-05
9.70748e-05
0.000111528
0.000128979
0.00014967
0.000173874
0.000201917
0.000234181
0.00027112
0.000313273
0.0003613
0.000416021
0.000478494
0.000550123
0.000632853
0.000729481
0.000844244
0.000983966
0.00116057
0.00139742
0.00175294
0.0024021
6.76719e-05
7.02085e-05
7.60523e-05
8.48526e-05
9.63758e-05
0.00011068
0.000127959
0.000148447
0.000172414
0.000200178
0.000232112
0.000268658
0.00031034
0.000357794
0.000411805
0.000473379
0.000543839
0.000624991
0.000719387
0.000830788
0.000964989
0.00113133
0.00134513
0.00162817
0.00198296
6.71896e-05
6.96574e-05
7.54007e-05
8.40813e-05
9.54621e-05
0.000109597
0.000126675
0.000146926
0.000170613
0.000198046
0.000229587
0.000265662
0.000306774
0.000353525
0.000406654
0.00046709
0.000536037
0.000615093
0.000706441
0.000813132
0.000939457
0.00109123
0.00127466
0.0014871
0.00167922
6.64465e-05
6.88492e-05
7.44714e-05
8.29977e-05
9.41907e-05
0.000108099
0.000124905
0.000144833
0.000168138
0.000195116
0.000226116
0.00026154
0.00030186
0.000347631
0.000399526
0.000458366
0.000525183
0.000601292
0.00068838
0.000788578
0.000904384
0.00103795
0.00118816
0.0013409
0.00144615
6.53737e-05
6.7706e-05
7.31809e-05
8.15105e-05
9.24605e-05
0.000106072
0.000122522
0.000142025
0.000164825
0.000191203
0.000221486
0.000256048
0.000295318
0.000339792
0.00039005
0.000446775
0.000510783
0.000583032
0.000664615
0.000756636
0.000859786
0.000973126
0.00109094
0.00119589
0.00124869
6.38907e-05
6.61442e-05
7.14426e-05
7.9526e-05
9.01665e-05
0.000103399
0.000119389
0.000138343
0.00016049
0.00018609
0.000215445
0.000248891
0.000286804
0.000329605
0.000377761
0.000431789
0.000492244
0.000559687
0.000634573
0.000717004
0.00080613
0.000898892
0.000987596
0.00105618
0.00107738
6.19023e-05
6.40643e-05
6.91507e-05
7.69278e-05
8.71775e-05
9.99276e-05
0.000115334
0.000133587
0.0001549
0.00017951
0.000207683
0.000239713
0.000275912
0.00031661
0.000362145
0.000412844
0.000468984
0.000530713
0.000597885
0.000669748
0.000744362
0.000817598
0.000881684
0.000923767
0.000926338
5.9297e-05
6.13502e-05
6.6181e-05
7.35796e-05
8.33404e-05
9.5485e-05
0.000110156
0.000127528
0.000147793
0.000171159
0.000197856
0.000228122
0.0002622
0.000300319
0.000342677
0.000389402
0.000440497
0.000495728
0.000554448
0.000615302
0.000675761
0.000731508
0.000775785
0.000799242
0.000791285
5.61123e-05
5.80414e-05
6.25791e-05
6.95361e-05
7.87213e-05
9.01508e-05
0.000103953
0.000120284
0.000139313
0.000161218
0.000186187
0.000214405
0.000246041
0.000281225
0.000320021
0.000362381
0.000408074
0.000456578
0.000506914
0.000557418
0.000605439
0.000647031
0.000676805
0.000688275
0.00067515
5.23162e-05
5.41048e-05
5.83083e-05
6.47569e-05
7.32753e-05
8.38749e-05
9.66685e-05
0.000111794
0.000129394
0.000149617
0.000172609
0.0001985
0.00022739
0.000259318
0.000294229
0.00033193
0.000372012
0.00041376
0.000456021
0.000497052
0.000534364
0.000564636
0.000583813
0.000587579
0.000572329
4.7622e-05
4.92426e-05
5.30466e-05
5.88842e-05
6.65978e-05
7.61948e-05
8.77713e-05
0.000101444
0.00011733
0.000135544
0.00015619
0.000179349
0.000205052
0.000233259
0.00026382
0.00029643
0.000330568
0.000365419
0.000399798
0.000432062
0.000460069
0.000481216
0.000492635
0.000491608
0.000476204
4.18839e-05
4.33042e-05
4.66327e-05
5.17408e-05
5.84912e-05
6.68875e-05
7.70088e-05
8.89489e-05
0.000102799
0.000118641
0.000136541
0.000156533
0.000178595
0.000202627
0.000228414
0.00025559
0.000283589
0.0003116
0.000338521
0.000362938
0.000383142
0.000397227
0.00040328
0.000399686
0.000385506
3.49558e-05
3.61384e-05
3.89047e-05
4.31487e-05
4.87568e-05
5.57298e-05
6.41289e-05
7.40254e-05
8.54846e-05
9.85603e-05
0.000113286
0.00012966
0.000147626
0.000167048
0.00018769
0.000209177
0.000230975
0.000252358
0.0002724
0.000289984
0.000303849
0.00031269
0.000315308
0.000310806
0.000298793
2.6705e-05
2.7608e-05
2.97151e-05
3.29457e-05
3.72137e-05
4.25185e-05
4.89034e-05
5.6418e-05
6.51046e-05
7.49938e-05
8.60964e-05
9.83906e-05
0.000111807
0.000126211
0.000141384
0.000157003
0.000172627
0.000187686
0.000201486
0.000213232
0.000222077
0.0002272
0.000227905
0.000223736
0.000214574
1.70353e-05
1.7613e-05
1.89557e-05
2.10117e-05
2.37268e-05
2.70999e-05
3.1157e-05
3.59271e-05
4.14334e-05
4.76897e-05
5.46951e-05
6.24254e-05
7.08235e-05
7.97878e-05
8.91615e-05
9.87229e-05
0.000108178
0.000117161
0.000125241
0.000131945
0.000136791
0.000139336
0.000139228
0.000136269
0.000130445
5.92245e-06
6.12566e-06
6.59529e-06
7.31305e-06
8.26033e-06
9.43688e-06
1.08517e-05
1.25145e-05
1.4433e-05
1.6611e-05
1.90471e-05
2.17308e-05
2.46398e-05
2.77357e-05
3.09604e-05
3.42329e-05
3.7448e-05
4.04767e-05
4.31704e-05
4.53689e-05
4.69133e-05
4.76619e-05
4.75081e-05
4.6397e-05
4.43363e-05
)
;

boundaryField
{
    top
    {
        type            fixedValue;
        value           uniform 0;
    }
    inlet
    {
        type            zeroGradient;
    }
    outlet
    {
        type            fixedValue;
        value           uniform 0;
    }
    plate
    {
        type            zeroGradient;
    }
    symmBound
    {
        type            zeroGradient;
    }
    frontAndBack
    {
        type            empty;
    }
}


// ************************************************************************* //
