/*--------------------------------*- C++ -*----------------------------------*\
| =========                 |                                                 |
| \\      /  F ield         | OpenFOAM: The Open Source CFD Toolbox           |
|  \\    /   O peration     | Version:  2.3.0                                 |
|   \\  /    A nd           | Web:      www.OpenFOAM.org                      |
|    \\/     M anipulation  |                                                 |
\*---------------------------------------------------------------------------*/
FoamFile
{
    version     2.0;
    format      ascii;
    class       surfaceScalarField;
    location    "1";
    object      phi;
}
// * * * * * * * * * * * * * * * * * * * * * * * * * * * * * * * * * * * * * //

dimensions      [0 3 -1 0 0 0 0];

internalField   nonuniform List<scalar> 
3859
(
2.80018e-08
2.91597e-09
-3.09177e-08
2.51066e-08
2.89515e-09
2.2391e-08
2.71558e-09
1.98899e-08
2.50117e-09
1.76206e-08
2.26929e-09
1.55948e-08
2.02579e-09
1.38153e-08
1.77946e-09
1.22767e-08
1.5386e-09
1.09664e-08
1.31032e-09
9.86601e-09
1.1004e-09
8.95293e-09
9.13079e-10
8.20213e-09
7.50803e-10
7.58799e-09
6.14141e-10
7.08595e-09
5.02045e-10
6.6737e-09
4.1225e-10
6.33195e-09
3.41742e-10
6.04473e-09
2.87219e-10
5.79928e-09
2.4545e-10
5.58576e-09
2.13524e-10
5.39678e-09
1.88979e-10
5.22694e-09
1.69839e-10
5.07235e-09
1.54589e-10
4.93024e-09
1.42115e-10
4.79862e-09
1.31621e-10
4.67606e-09
1.22559e-10
4.5615e-09
1.14562e-10
4.45411e-09
1.07387e-10
4.35323e-09
1.00877e-10
4.2583e-09
9.49276e-11
4.16884e-09
8.94678e-11
4.08439e-09
8.44468e-11
4.00456e-09
7.9825e-11
3.929e-09
7.5569e-11
3.85735e-09
7.1649e-11
3.78931e-09
6.80373e-11
3.7246e-09
6.47082e-11
3.66296e-09
6.16372e-11
3.60416e-09
5.88017e-11
3.54798e-09
5.61804e-11
3.49423e-09
5.37537e-11
3.44272e-09
5.15039e-11
3.39331e-09
4.94146e-11
3.34584e-09
4.74712e-11
3.30018e-09
4.56603e-11
3.25621e-09
4.39702e-11
3.21382e-09
4.23901e-11
3.17291e-09
4.09104e-11
3.13338e-09
3.95227e-11
3.09517e-09
3.82192e-11
3.05817e-09
3.69929e-11
3.02233e-09
3.58378e-11
2.98759e-09
3.47482e-11
2.95387e-09
3.3719e-11
2.92112e-09
3.27457e-11
2.8893e-09
3.18241e-11
2.85835e-09
3.09505e-11
2.82823e-09
3.01213e-11
2.79889e-09
2.93335e-11
2.77031e-09
2.85841e-11
2.74244e-09
2.78705e-11
2.71525e-09
2.71904e-11
2.68871e-09
2.65413e-11
2.66278e-09
2.59214e-11
2.63746e-09
2.53288e-11
2.61269e-09
2.47616e-11
2.58848e-09
2.42184e-11
2.56478e-09
2.36975e-11
2.54158e-09
2.31978e-11
2.51886e-09
2.2718e-11
2.49661e-09
2.22568e-11
2.47479e-09
2.18134e-11
2.45341e-09
2.13866e-11
2.43243e-09
2.09757e-11
2.41185e-09
2.05798e-11
2.39165e-09
2.01982e-11
2.37182e-09
1.98302e-11
2.35235e-09
1.94754e-11
2.33321e-09
1.9133e-11
2.31441e-09
1.88027e-11
2.29593e-09
1.84841e-11
2.27775e-09
1.81768e-11
2.25987e-09
1.78805e-11
2.24227e-09
1.75951e-11
2.22495e-09
1.73203e-11
2.2079e-09
1.70561e-11
2.1911e-09
1.68025e-11
2.17454e-09
1.65596e-11
2.15821e-09
1.63276e-11
2.1421e-09
1.6107e-11
2.1262e-09
1.58983e-11
2.1105e-09
1.57024e-11
2.09498e-09
1.5521e-11
2.07962e-09
1.53569e-11
2.06441e-09
1.52152e-11
2.0493e-09
1.51066e-11
2.03424e-09
1.50571e-11
2.01911e-09
1.51361e-11
2.00366e-09
1.54462e-11
1.98636e-09
1.73016e-11
4.75939e-11
3.59109e-08
3.19939e-09
-3.61943e-08
3.53025e-08
3.50351e-09
3.44502e-08
3.56787e-09
3.3432e-08
3.51936e-09
3.23049e-08
3.39639e-09
3.11162e-08
3.21454e-09
2.99044e-08
2.99121e-09
2.86995e-08
2.74355e-09
2.75235e-08
2.48628e-09
2.63923e-08
2.2316e-09
2.53162e-08
1.98917e-09
2.43012e-08
1.76586e-09
2.33497e-08
1.56566e-09
2.24616e-08
1.39006e-09
2.16353e-08
1.23856e-09
2.08678e-08
1.10928e-09
2.01554e-08
9.99604e-10
1.94942e-08
9.06629e-10
1.88802e-08
8.27524e-10
1.83095e-08
7.59738e-10
1.77782e-08
7.01102e-10
1.7283e-08
6.49846e-10
1.68205e-08
6.0457e-10
1.63879e-08
5.64191e-10
1.59826e-08
5.27883e-10
1.56022e-08
4.95018e-10
1.52444e-08
4.65116e-10
1.49075e-08
4.37804e-10
1.45896e-08
4.12786e-10
1.42893e-08
3.89822e-10
1.4005e-08
3.68708e-10
1.37356e-08
3.4927e-10
1.34798e-08
3.31354e-10
1.32366e-08
3.14822e-10
1.30051e-08
2.99552e-10
1.27844e-08
2.85429e-10
1.25737e-08
2.72351e-10
1.23723e-08
2.60226e-10
1.21795e-08
2.48968e-10
1.19947e-08
2.38501e-10
1.18175e-08
2.28755e-10
1.16472e-08
2.19667e-10
1.14835e-08
2.11181e-10
1.13259e-08
2.03246e-10
1.11741e-08
1.95814e-10
1.10276e-08
1.88845e-10
1.08862e-08
1.82301e-10
1.07496e-08
1.76148e-10
1.06175e-08
1.70356e-10
1.04896e-08
1.64897e-10
1.03657e-08
1.59745e-10
1.02455e-08
1.54877e-10
1.0129e-08
1.50274e-10
1.00158e-08
1.45915e-10
9.90584e-09
1.41783e-10
9.79893e-09
1.37863e-10
9.69491e-09
1.3414e-10
9.59365e-09
1.306e-10
9.495e-09
1.27231e-10
9.39885e-09
1.24022e-10
9.30508e-09
1.20962e-10
9.21358e-09
1.18041e-10
9.12425e-09
1.15251e-10
9.03699e-09
1.12584e-10
8.95172e-09
1.10031e-10
8.86835e-09
1.07585e-10
8.78681e-09
1.05241e-10
8.70702e-09
1.02992e-10
8.6289e-09
1.00832e-10
8.5524e-09
9.87569e-11
8.47746e-09
9.67615e-11
8.404e-09
9.48414e-11
8.33198e-09
9.29926e-11
8.26135e-09
9.12115e-11
8.19206e-09
8.94947e-11
8.12405e-09
8.7839e-11
8.05728e-09
8.62417e-11
7.99171e-09
8.47003e-11
7.9273e-09
8.32124e-11
7.86401e-09
8.17761e-11
7.8018e-09
8.03895e-11
7.74063e-09
7.90512e-11
7.68046e-09
7.77598e-11
7.62127e-09
7.65144e-11
7.56301e-09
7.53144e-11
7.50565e-09
7.41591e-11
7.44916e-09
7.30488e-11
7.39351e-09
7.19838e-11
7.33865e-09
7.0965e-11
7.28455e-09
6.99943e-11
7.23118e-09
6.90747e-11
7.17849e-09
6.82112e-11
7.12644e-09
6.74129e-11
7.07495e-09
6.66968e-11
7.02396e-09
6.6099e-11
6.97331e-09
6.57068e-11
6.92271e-09
6.57419e-11
6.87127e-09
6.68823e-11
6.81295e-09
7.56229e-11
1.29681e-10
4.05732e-08
3.02728e-09
-4.04011e-08
4.06627e-08
3.41401e-09
4.06248e-08
3.60576e-09
4.04613e-08
3.68282e-09
4.01801e-08
3.67764e-09
3.97933e-08
3.60134e-09
3.93173e-08
3.46713e-09
3.877e-08
3.29087e-09
3.81684e-08
3.08786e-09
3.75283e-08
2.87173e-09
3.68634e-08
2.65408e-09
3.61853e-08
2.44398e-09
3.55032e-08
2.24774e-09
3.48242e-08
2.06901e-09
3.41536e-08
1.90916e-09
3.3495e-08
1.76788e-09
3.28509e-08
1.64378e-09
3.22226e-08
1.53485e-09
3.16112e-08
1.43891e-09
3.10171e-08
1.35385e-09
3.04405e-08
1.27778e-09
2.98812e-08
1.20912e-09
2.93392e-08
1.14659e-09
2.88142e-08
1.08918e-09
2.8306e-08
1.03612e-09
2.78141e-08
9.86825e-10
2.73384e-08
9.4084e-10
2.68784e-08
8.97822e-10
2.64337e-08
8.57497e-10
2.60039e-08
8.19646e-10
2.55885e-08
7.84083e-10
2.51871e-08
7.50649e-10
2.47993e-08
7.19202e-10
2.44245e-08
6.89611e-10
2.40623e-08
6.61757e-10
2.37122e-08
6.35529e-10
2.33737e-08
6.10821e-10
2.30464e-08
5.87535e-10
2.27298e-08
5.6558e-10
2.24234e-08
5.44869e-10
2.21268e-08
5.2532e-10
2.18397e-08
5.06859e-10
2.15614e-08
4.89415e-10
2.12917e-08
4.72921e-10
2.10302e-08
4.57317e-10
2.07765e-08
4.42545e-10
2.05303e-08
4.28551e-10
2.02912e-08
4.15286e-10
2.00588e-08
4.02704e-10
1.98329e-08
3.90761e-10
1.96133e-08
3.79418e-10
1.93995e-08
3.68636e-10
1.91914e-08
3.58381e-10
1.89887e-08
3.4862e-10
1.87912e-08
3.39323e-10
1.85986e-08
3.30461e-10
1.84107e-08
3.22008e-10
1.82274e-08
3.13938e-10
1.80484e-08
3.0623e-10
1.78735e-08
2.98862e-10
1.77027e-08
2.91812e-10
1.75356e-08
2.85063e-10
1.73723e-08
2.78597e-10
1.72125e-08
2.72398e-10
1.70561e-08
2.66449e-10
1.69029e-08
2.60738e-10
1.67529e-08
2.5525e-10
1.66059e-08
2.49974e-10
1.64619e-08
2.44898e-10
1.63206e-08
2.40011e-10
1.61821e-08
2.35303e-10
1.60461e-08
2.30765e-10
1.59127e-08
2.26388e-10
1.57818e-08
2.22164e-10
1.56532e-08
2.18087e-10
1.55269e-08
2.14148e-10
1.54028e-08
2.10343e-10
1.52808e-08
2.06665e-10
1.51609e-08
2.03109e-10
1.5043e-08
1.99671e-10
1.49271e-08
1.96346e-10
1.4813e-08
1.93131e-10
1.47007e-08
1.90023e-10
1.45902e-08
1.8702e-10
1.44814e-08
1.84119e-10
1.43743e-08
1.81319e-10
1.42687e-08
1.7862e-10
1.41646e-08
1.76022e-10
1.40621e-08
1.73527e-10
1.39609e-08
1.71139e-10
1.38612e-08
1.68862e-10
1.37627e-08
1.66706e-10
1.36654e-08
1.6469e-10
1.35692e-08
1.62845e-10
1.34741e-08
1.61244e-10
1.33797e-08
1.60055e-10
1.32857e-08
1.59737e-10
1.31907e-08
1.61973e-10
1.30893e-08
1.76947e-10
2.36291e-10
4.50675e-08
2.81496e-09
-4.48552e-08
4.52967e-08
3.18488e-09
4.5491e-08
3.41146e-09
4.56345e-08
3.5393e-09
4.57181e-08
3.59405e-09
4.5735e-08
3.58449e-09
4.5683e-08
3.51906e-09
4.55646e-08
3.40935e-09
4.53846e-08
3.26777e-09
4.51503e-08
3.1061e-09
4.48695e-08
2.93486e-09
4.45506e-08
2.76286e-09
4.42015e-08
2.59682e-09
4.38293e-08
2.44121e-09
4.344e-08
2.2985e-09
4.30384e-08
2.1695e-09
4.26283e-08
2.05387e-09
4.22126e-08
1.95051e-09
4.17936e-08
1.85796e-09
4.13728e-08
1.77465e-09
4.09515e-08
1.69911e-09
4.05306e-08
1.63002e-09
4.01109e-08
1.56628e-09
3.9693e-08
1.50703e-09
3.92776e-08
1.45156e-09
3.8865e-08
1.39935e-09
3.84559e-08
1.35e-09
3.80505e-08
1.30321e-09
3.76493e-08
1.25875e-09
3.72525e-08
1.21643e-09
3.68605e-08
1.1761e-09
3.64734e-08
1.13766e-09
3.60917e-08
1.10098e-09
3.57153e-08
1.06598e-09
3.53445e-08
1.03256e-09
3.49794e-08
1.00066e-09
3.462e-08
9.70185e-10
3.42665e-08
9.4107e-10
3.39188e-08
9.13247e-10
3.3577e-08
8.8665e-10
3.32411e-08
8.61218e-10
3.29111e-08
8.36892e-10
3.25869e-08
8.13618e-10
3.22685e-08
7.91342e-10
3.19558e-08
7.70014e-10
3.16487e-08
7.49588e-10
3.13473e-08
7.3002e-10
3.10513e-08
7.11266e-10
3.07607e-08
6.93287e-10
3.04754e-08
6.76044e-10
3.01953e-08
6.59503e-10
2.99203e-08
6.43627e-10
2.96503e-08
6.28386e-10
2.93852e-08
6.13748e-10
2.91248e-08
5.99683e-10
2.88691e-08
5.86164e-10
2.8618e-08
5.73165e-10
2.83713e-08
5.60659e-10
2.81289e-08
5.48624e-10
2.78907e-08
5.37036e-10
2.76566e-08
5.25873e-10
2.74266e-08
5.15116e-10
2.72004e-08
5.04744e-10
2.69781e-08
4.9474e-10
2.67595e-08
4.85085e-10
2.65444e-08
4.75763e-10
2.63329e-08
4.66759e-10
2.61248e-08
4.58057e-10
2.59201e-08
4.49644e-10
2.57186e-08
4.41506e-10
2.55203e-08
4.33631e-10
2.5325e-08
4.26008e-10
2.51328e-08
4.18624e-10
2.49435e-08
4.11471e-10
2.4757e-08
4.04537e-10
2.45734e-08
3.97816e-10
2.43924e-08
3.91298e-10
2.42141e-08
3.84975e-10
2.40384e-08
3.78841e-10
2.38651e-08
3.7289e-10
2.36944e-08
3.67116e-10
2.3526e-08
3.61514e-10
2.33599e-08
3.56081e-10
2.31961e-08
3.50812e-10
2.30346e-08
3.45706e-10
2.28751e-08
3.40761e-10
2.27178e-08
3.35977e-10
2.25624e-08
3.31356e-10
2.24091e-08
3.26899e-10
2.22576e-08
3.22612e-10
2.21079e-08
3.18505e-10
2.196e-08
3.14593e-10
2.18138e-08
3.10903e-10
2.16692e-08
3.07488e-10
2.1526e-08
3.04457e-10
2.1384e-08
3.02068e-10
2.12427e-08
3.01032e-10
2.11008e-08
3.03834e-10
2.09573e-08
3.20463e-10
3.69684e-10
4.9941e-08
2.63111e-09
-4.97572e-08
5.01688e-08
2.95713e-09
5.03985e-08
3.18172e-09
5.06136e-08
3.32422e-09
5.08046e-08
3.40302e-09
5.09626e-08
3.42647e-09
5.10807e-08
3.401e-09
5.1155e-08
3.33509e-09
5.11843e-08
3.23839e-09
5.11701e-08
3.12038e-09
5.11151e-08
2.98978e-09
5.10238e-08
2.85418e-09
5.0901e-08
2.71968e-09
5.07515e-08
2.59068e-09
5.058e-08
2.46998e-09
5.03905e-08
2.35898e-09
5.01864e-08
2.25802e-09
4.99702e-08
2.16666e-09
4.97441e-08
2.08405e-09
4.95097e-08
2.00911e-09
4.92681e-08
1.94073e-09
4.90202e-08
1.87788e-09
4.87668e-08
1.81967e-09
4.85085e-08
1.76533e-09
4.82458e-08
1.71425e-09
4.79792e-08
1.66598e-09
4.7709e-08
1.62013e-09
4.74358e-08
1.57643e-09
4.71599e-08
1.53467e-09
4.68816e-08
1.49468e-09
4.66014e-08
1.45634e-09
4.63195e-08
1.41953e-09
4.60363e-08
1.38418e-09
4.57521e-08
1.3502e-09
4.54672e-08
1.31752e-09
4.51817e-08
1.28609e-09
4.48961e-08
1.25585e-09
4.46104e-08
1.22674e-09
4.43249e-08
1.19871e-09
4.40399e-08
1.1717e-09
4.37554e-08
1.14569e-09
4.34717e-08
1.12061e-09
4.31889e-08
1.09643e-09
4.29071e-08
1.07311e-09
4.26265e-08
1.05061e-09
4.23472e-08
1.02889e-09
4.20693e-08
1.00792e-09
4.17929e-08
9.87662e-10
4.15181e-08
9.68093e-10
4.1245e-08
9.4918e-10
4.09736e-08
9.30894e-10
4.0704e-08
9.13209e-10
4.04363e-08
8.96098e-10
4.01705e-08
8.79538e-10
3.99067e-08
8.63505e-10
3.96449e-08
8.47977e-10
3.93851e-08
8.32932e-10
3.91274e-08
8.18351e-10
3.88718e-08
8.04213e-10
3.86184e-08
7.905e-10
3.83671e-08
7.77195e-10
3.81179e-08
7.64281e-10
3.78709e-08
7.51741e-10
3.76261e-08
7.3956e-10
3.73834e-08
7.27724e-10
3.7143e-08
7.16218e-10
3.69047e-08
7.05029e-10
3.66686e-08
6.94145e-10
3.64347e-08
6.83554e-10
3.6203e-08
6.73244e-10
3.59734e-08
6.63205e-10
3.5746e-08
6.53427e-10
3.55207e-08
6.439e-10
3.52976e-08
6.34615e-10
3.50765e-08
6.25565e-10
3.48576e-08
6.16741e-10
3.46408e-08
6.08137e-10
3.4426e-08
5.99746e-10
3.42133e-08
5.91563e-10
3.40026e-08
5.83582e-10
3.37939e-08
5.75799e-10
3.35872e-08
5.68211e-10
3.33825e-08
5.60814e-10
3.31797e-08
5.53608e-10
3.29788e-08
5.46591e-10
3.27798e-08
5.39764e-10
3.25826e-08
5.33129e-10
3.23873e-08
5.26689e-10
3.21937e-08
5.20451e-10
3.20019e-08
5.14424e-10
3.18118e-08
5.08621e-10
3.16233e-08
5.03067e-10
3.14365e-08
4.97799e-10
3.12511e-08
4.92888e-10
3.1067e-08
4.88476e-10
3.08842e-08
4.84889e-10
3.07023e-08
4.82974e-10
3.05209e-08
4.85233e-10
3.03428e-08
4.98515e-10
5.27274e-10
5.5318e-08
2.47752e-09
-5.51644e-08
5.55195e-08
2.75562e-09
5.5737e-08
2.96422e-09
5.59537e-08
3.1075e-09
5.61606e-08
3.19614e-09
5.63499e-08
3.23714e-09
5.65151e-08
3.23582e-09
5.66516e-08
3.1986e-09
5.6757e-08
3.13299e-09
5.68307e-08
3.04664e-09
5.68738e-08
2.9467e-09
5.68884e-08
2.83955e-09
5.68776e-08
2.73049e-09
5.68447e-08
2.62358e-09
5.67931e-08
2.52162e-09
5.67258e-08
2.42628e-09
5.66455e-08
2.33831e-09
5.65544e-08
2.25776e-09
5.64542e-08
2.18425e-09
5.63462e-08
2.11711e-09
5.62313e-08
2.05558e-09
5.61103e-08
1.99889e-09
5.59837e-08
1.94632e-09
5.58517e-08
1.89725e-09
5.57148e-08
1.85117e-09
5.55732e-08
1.80765e-09
5.54269e-08
1.76635e-09
5.52763e-08
1.72702e-09
5.51216e-08
1.68944e-09
5.49628e-08
1.65347e-09
5.48002e-08
1.61896e-09
5.46339e-08
1.58583e-09
5.44641e-08
1.55397e-09
5.42909e-08
1.52333e-09
5.41146e-08
1.49383e-09
5.39353e-08
1.46541e-09
5.37531e-08
1.43803e-09
5.35682e-08
1.41163e-09
5.33808e-08
1.38617e-09
5.31909e-08
1.3616e-09
5.29987e-08
1.33788e-09
5.28043e-08
1.31497e-09
5.26079e-08
1.29284e-09
5.24096e-08
1.27144e-09
5.22095e-08
1.25074e-09
5.20076e-08
1.23072e-09
5.18042e-08
1.21133e-09
5.15993e-08
1.19256e-09
5.1393e-08
1.17436e-09
5.11855e-08
1.15673e-09
5.09768e-08
1.13963e-09
5.07669e-08
1.12303e-09
5.05561e-08
1.10692e-09
5.03444e-08
1.09127e-09
5.01318e-08
1.07606e-09
4.99185e-08
1.06127e-09
4.97046e-08
1.04689e-09
4.949e-08
1.0329e-09
4.9275e-08
1.01927e-09
4.90595e-08
1.006e-09
4.88436e-08
9.93059e-10
4.86275e-08
9.80444e-10
4.84111e-08
9.68138e-10
4.81945e-08
9.56127e-10
4.79778e-08
9.44399e-10
4.77611e-08
9.32942e-10
4.75444e-08
9.21745e-10
4.73277e-08
9.10797e-10
4.71112e-08
9.00088e-10
4.68948e-08
8.8961e-10
4.66787e-08
8.79353e-10
4.64628e-08
8.69309e-10
4.62472e-08
8.59471e-10
4.6032e-08
8.49832e-10
4.58172e-08
8.40386e-10
4.56028e-08
8.31127e-10
4.53889e-08
8.22049e-10
4.51755e-08
8.1315e-10
4.49626e-08
8.04424e-10
4.47503e-08
7.95869e-10
4.45387e-08
7.87483e-10
4.43276e-08
7.79265e-10
4.41172e-08
7.71215e-10
4.39075e-08
7.63332e-10
4.36985e-08
7.5562e-10
4.34901e-08
7.48081e-10
4.32825e-08
7.40721e-10
4.30757e-08
7.33547e-10
4.28696e-08
7.2657e-10
4.26642e-08
7.19803e-10
4.24595e-08
7.13267e-10
4.22556e-08
7.06992e-10
4.20524e-08
7.01026e-10
4.18498e-08
6.95452e-10
4.16479e-08
6.90427e-10
4.14465e-08
6.86285e-10
4.12457e-08
6.8378e-10
4.10463e-08
6.84626e-10
4.08534e-08
6.91362e-10
6.9701e-10
6.12601e-08
2.34701e-09
-6.11296e-08
6.14347e-08
2.58107e-09
6.16306e-08
2.76829e-09
6.18322e-08
2.9059e-09
6.20301e-08
2.99828e-09
6.22171e-08
3.05012e-09
6.23873e-08
3.06558e-09
6.25364e-08
3.04948e-09
6.26619e-08
3.00753e-09
6.27627e-08
2.9458e-09
6.28393e-08
2.87011e-09
6.28931e-08
2.78578e-09
6.29263e-08
2.69734e-09
6.29414e-08
2.60844e-09
6.29412e-08
2.52178e-09
6.29284e-08
2.43914e-09
6.29051e-08
2.36154e-09
6.28735e-08
2.28942e-09
6.2835e-08
2.22276e-09
6.27908e-08
2.16125e-09
6.2742e-08
2.10446e-09
6.2689e-08
2.05186e-09
6.26324e-08
2.00294e-09
6.25724e-08
1.95722e-09
6.25093e-08
1.9143e-09
6.24431e-08
1.87381e-09
6.2374e-08
1.83547e-09
6.2302e-08
1.79905e-09
6.22271e-08
1.76434e-09
6.21493e-08
1.7312e-09
6.20688e-08
1.69951e-09
6.19854e-08
1.66917e-09
6.18993e-08
1.64008e-09
6.18105e-08
1.61217e-09
6.17189e-08
1.58539e-09
6.16247e-08
1.55966e-09
6.15278e-08
1.53494e-09
6.14282e-08
1.51118e-09
6.13261e-08
1.48832e-09
6.12213e-08
1.46633e-09
6.1114e-08
1.44517e-09
6.10042e-08
1.42478e-09
6.08919e-08
1.40514e-09
6.07771e-08
1.38621e-09
6.06599e-08
1.36795e-09
6.05403e-08
1.35033e-09
6.04183e-08
1.33331e-09
6.0294e-08
1.31688e-09
6.01674e-08
1.30099e-09
6.00385e-08
1.28562e-09
5.99074e-08
1.27075e-09
5.9774e-08
1.25635e-09
5.96386e-08
1.2424e-09
5.9501e-08
1.22887e-09
5.93613e-08
1.21574e-09
5.92196e-08
1.20299e-09
5.90758e-08
1.19061e-09
5.89302e-08
1.17857e-09
5.87826e-08
1.16686e-09
5.86331e-08
1.15545e-09
5.84818e-08
1.14434e-09
5.83288e-08
1.1335e-09
5.8174e-08
1.12293e-09
5.80175e-08
1.11261e-09
5.78594e-08
1.10252e-09
5.76997e-08
1.09266e-09
5.75384e-08
1.08302e-09
5.73756e-08
1.07357e-09
5.72114e-08
1.06432e-09
5.70457e-08
1.05525e-09
5.68787e-08
1.04636e-09
5.67104e-08
1.03763e-09
5.65408e-08
1.02906e-09
5.637e-08
1.02064e-09
5.6198e-08
1.01237e-09
5.60249e-08
1.00424e-09
5.58507e-08
9.96251e-10
5.56755e-08
9.88392e-10
5.54992e-08
9.80663e-10
5.5322e-08
9.73063e-10
5.51439e-08
9.65589e-10
5.4965e-08
9.58242e-10
5.47852e-08
9.51023e-10
5.46045e-08
9.43935e-10
5.44232e-08
9.36981e-10
5.42411e-08
9.30166e-10
5.40583e-08
9.23499e-10
5.38749e-08
9.16989e-10
5.36908e-08
9.10649e-10
5.35061e-08
9.04498e-10
5.33208e-08
8.98561e-10
5.31349e-08
8.92871e-10
5.29485e-08
8.87482e-10
5.27615e-08
8.82476e-10
5.25739e-08
8.77999e-10
5.23859e-08
8.74309e-10
5.21978e-08
8.71856e-10
5.20112e-08
8.71184e-10
5.18314e-08
8.71158e-10
8.59383e-10
6.78247e-08
2.2341e-09
-6.77118e-08
6.79753e-08
2.43051e-09
6.81483e-08
2.59527e-09
6.83306e-08
2.72355e-09
6.85131e-08
2.81581e-09
6.86888e-08
2.87441e-09
6.88522e-08
2.90221e-09
6.8999e-08
2.90266e-09
6.91265e-08
2.87997e-09
6.92336e-08
2.83876e-09
6.93201e-08
2.78364e-09
6.93869e-08
2.71894e-09
6.94358e-08
2.64847e-09
6.94688e-08
2.57542e-09
6.94883e-08
2.5023e-09
6.94965e-08
2.4309e-09
6.94956e-08
2.36243e-09
6.94875e-08
2.29756e-09
6.94736e-08
2.2366e-09
6.94554e-08
2.17953e-09
6.94336e-08
2.12621e-09
6.94091e-08
2.07635e-09
6.93824e-08
2.02965e-09
6.93538e-08
1.98578e-09
6.93237e-08
1.94444e-09
6.92921e-08
1.90539e-09
6.92592e-08
1.86837e-09
6.92251e-08
1.83321e-09
6.91897e-08
1.79975e-09
6.9153e-08
1.76784e-09
6.91151e-08
1.73738e-09
6.9076e-08
1.70829e-09
6.90356e-08
1.68047e-09
6.8994e-08
1.65386e-09
6.89509e-08
1.62839e-09
6.89066e-08
1.60402e-09
6.88608e-08
1.58068e-09
6.88137e-08
1.55834e-09
6.87651e-08
1.53693e-09
6.8715e-08
1.51643e-09
6.86634e-08
1.49678e-09
6.86102e-08
1.47794e-09
6.85555e-08
1.45989e-09
6.84991e-08
1.44257e-09
6.84411e-08
1.42596e-09
6.83814e-08
1.41001e-09
6.832e-08
1.39471e-09
6.82569e-08
1.38e-09
6.8192e-08
1.36587e-09
6.81253e-08
1.35229e-09
6.80569e-08
1.33923e-09
6.79866e-08
1.32665e-09
6.79144e-08
1.31454e-09
6.78404e-08
1.30287e-09
6.77645e-08
1.29162e-09
6.76868e-08
1.28076e-09
6.76071e-08
1.27028e-09
6.75255e-08
1.26015e-09
6.7442e-08
1.25036e-09
6.73566e-08
1.24087e-09
6.72692e-08
1.23169e-09
6.718e-08
1.22278e-09
6.70888e-08
1.21414e-09
6.69956e-08
1.20575e-09
6.69005e-08
1.19759e-09
6.68036e-08
1.18966e-09
6.67046e-08
1.18193e-09
6.66038e-08
1.17439e-09
6.65011e-08
1.16704e-09
6.63965e-08
1.15987e-09
6.629e-08
1.15285e-09
6.61816e-08
1.14599e-09
6.60714e-08
1.13928e-09
6.59593e-08
1.13271e-09
6.58454e-08
1.12626e-09
6.57298e-08
1.11994e-09
6.56123e-08
1.11374e-09
6.5493e-08
1.10766e-09
6.5372e-08
1.10168e-09
6.52492e-08
1.09582e-09
6.51247e-08
1.09006e-09
6.49986e-08
1.08442e-09
6.48707e-08
1.07888e-09
6.47412e-08
1.07345e-09
6.46101e-08
1.06813e-09
6.44773e-08
1.06294e-09
6.43429e-08
1.05788e-09
6.42069e-08
1.05296e-09
6.40694e-08
1.0482e-09
6.39303e-08
1.04361e-09
6.37896e-08
1.03922e-09
6.36474e-08
1.03507e-09
6.35037e-08
1.03121e-09
6.33584e-08
1.02771e-09
6.32118e-08
1.02466e-09
6.30639e-08
1.0222e-09
6.29153e-08
1.0204e-09
6.27677e-08
1.01882e-09
6.26244e-08
1.01443e-09
9.955e-10
6.79877e-08
2.14379e-09
-6.78974e-08
6.81066e-08
2.31165e-09
6.82448e-08
2.45705e-09
6.83931e-08
2.57526e-09
6.85439e-08
2.66499e-09
6.86913e-08
2.72698e-09
6.88306e-08
2.76294e-09
6.8958e-08
2.77528e-09
6.90709e-08
2.76704e-09
6.9168e-08
2.7417e-09
6.92488e-08
2.70286e-09
6.93137e-08
2.65401e-09
6.93638e-08
2.59834e-09
6.94007e-08
2.53859e-09
6.94259e-08
2.47702e-09
6.94415e-08
2.41539e-09
6.9449e-08
2.35493e-09
6.945e-08
2.2965e-09
6.9446e-08
2.24059e-09
6.94381e-08
2.18743e-09
6.94273e-08
2.13707e-09
6.94142e-08
2.08944e-09
6.93994e-08
2.04439e-09
6.93835e-08
2.00174e-09
6.93666e-08
1.96132e-09
6.9349e-08
1.92295e-09
6.93309e-08
1.88647e-09
6.93124e-08
1.85173e-09
6.92936e-08
1.8186e-09
6.92744e-08
1.787e-09
6.9255e-08
1.75682e-09
6.92353e-08
1.72799e-09
6.92153e-08
1.70043e-09
6.91951e-08
1.6741e-09
6.91745e-08
1.64892e-09
6.91537e-08
1.62486e-09
6.91325e-08
1.60186e-09
6.9111e-08
1.57989e-09
6.9089e-08
1.55888e-09
6.90666e-08
1.53881e-09
6.90438e-08
1.51963e-09
6.90204e-08
1.50131e-09
6.89965e-08
1.4838e-09
6.8972e-08
1.46707e-09
6.89469e-08
1.45109e-09
6.89211e-08
1.43581e-09
6.88945e-08
1.42122e-09
6.88673e-08
1.40726e-09
6.88392e-08
1.39392e-09
6.88104e-08
1.38117e-09
6.87806e-08
1.36897e-09
6.875e-08
1.3573e-09
6.87184e-08
1.34613e-09
6.86858e-08
1.33544e-09
6.86522e-08
1.3252e-09
6.86176e-08
1.31539e-09
6.85819e-08
1.30599e-09
6.85451e-08
1.29697e-09
6.85071e-08
1.28831e-09
6.8468e-08
1.28e-09
6.84277e-08
1.27201e-09
6.83861e-08
1.26433e-09
6.83433e-08
1.25694e-09
6.82992e-08
1.24983e-09
6.82539e-08
1.24297e-09
6.82072e-08
1.23635e-09
6.81591e-08
1.22996e-09
6.81097e-08
1.22379e-09
6.8059e-08
1.21782e-09
6.80068e-08
1.21204e-09
6.79532e-08
1.20644e-09
6.78982e-08
1.20101e-09
6.78417e-08
1.19574e-09
6.77838e-08
1.19062e-09
6.77244e-08
1.18565e-09
6.76635e-08
1.18081e-09
6.76012e-08
1.1761e-09
6.75373e-08
1.17152e-09
6.74719e-08
1.16706e-09
6.74051e-08
1.16271e-09
6.73366e-08
1.15848e-09
6.72667e-08
1.15437e-09
6.71952e-08
1.15037e-09
6.71222e-08
1.14648e-09
6.70476e-08
1.14272e-09
6.69714e-08
1.13909e-09
6.68937e-08
1.1356e-09
6.68144e-08
1.13225e-09
6.67336e-08
1.12906e-09
6.66511e-08
1.12606e-09
6.65671e-08
1.12327e-09
6.64814e-08
1.12071e-09
6.63942e-08
1.11844e-09
6.63054e-08
1.1165e-09
6.62151e-08
1.11495e-09
6.61235e-08
1.11379e-09
6.60311e-08
1.11284e-09
6.59387e-08
1.11119e-09
6.58474e-08
1.10571e-09
1.08786e-09
7.52266e-08
2.06327e-09
-7.51461e-08
7.53308e-08
2.20752e-09
7.54523e-08
2.33553e-09
7.55842e-08
2.44334e-09
7.57202e-08
2.52904e-09
7.58548e-08
2.59233e-09
7.59837e-08
2.63402e-09
7.61034e-08
2.6556e-09
7.62113e-08
2.65918e-09
7.63057e-08
2.64725e-09
7.6386e-08
2.62254e-09
7.64523e-08
2.58776e-09
7.65051e-08
2.5455e-09
7.65456e-08
2.49807e-09
7.65752e-08
2.44745e-09
7.65953e-08
2.39526e-09
7.66075e-08
2.34274e-09
7.66132e-08
2.29082e-09
7.66137e-08
2.24013e-09
7.661e-08
2.19106e-09
7.66033e-08
2.14384e-09
7.65941e-08
2.09858e-09
7.65832e-08
2.05527e-09
7.65711e-08
2.01389e-09
7.65581e-08
1.97435e-09
7.65445e-08
1.93656e-09
7.65305e-08
1.90045e-09
7.65163e-08
1.86591e-09
7.6502e-08
1.83288e-09
7.64878e-08
1.80127e-09
7.64735e-08
1.77103e-09
7.64594e-08
1.74209e-09
7.64455e-08
1.71441e-09
7.64316e-08
1.68792e-09
7.6418e-08
1.6626e-09
7.64044e-08
1.63839e-09
7.63911e-08
1.61525e-09
7.63778e-08
1.59314e-09
7.63647e-08
1.57202e-09
7.63516e-08
1.55185e-09
7.63387e-08
1.53261e-09
7.63257e-08
1.51424e-09
7.63128e-08
1.49672e-09
7.62999e-08
1.48e-09
7.62869e-08
1.46406e-09
7.62738e-08
1.44887e-09
7.62607e-08
1.43438e-09
7.62474e-08
1.42057e-09
7.62339e-08
1.40741e-09
7.62202e-08
1.39487e-09
7.62063e-08
1.38291e-09
7.6192e-08
1.37152e-09
7.61775e-08
1.36067e-09
7.61626e-08
1.35032e-09
7.61474e-08
1.34046e-09
7.61317e-08
1.33107e-09
7.61156e-08
1.32211e-09
7.6099e-08
1.31357e-09
7.60818e-08
1.30542e-09
7.60642e-08
1.29765e-09
7.6046e-08
1.29024e-09
7.60271e-08
1.28317e-09
7.60077e-08
1.27641e-09
7.59875e-08
1.26996e-09
7.59667e-08
1.26379e-09
7.59452e-08
1.2579e-09
7.59228e-08
1.25226e-09
7.58998e-08
1.24687e-09
7.58759e-08
1.24171e-09
7.58512e-08
1.23676e-09
7.58256e-08
1.23202e-09
7.57991e-08
1.22747e-09
7.57718e-08
1.22311e-09
7.57435e-08
1.21893e-09
7.57142e-08
1.21491e-09
7.56839e-08
1.21106e-09
7.56527e-08
1.20736e-09
7.56204e-08
1.2038e-09
7.55871e-08
1.20039e-09
7.55527e-08
1.19712e-09
7.55172e-08
1.19398e-09
7.54805e-08
1.19099e-09
7.54428e-08
1.18813e-09
7.54039e-08
1.18541e-09
7.53638e-08
1.18283e-09
7.53224e-08
1.1804e-09
7.52799e-08
1.17813e-09
7.52361e-08
1.17603e-09
7.51911e-08
1.17412e-09
7.51447e-08
1.1724e-09
7.50971e-08
1.17092e-09
7.50481e-08
1.16969e-09
7.49978e-08
1.16875e-09
7.49462e-08
1.16812e-09
7.48933e-08
1.16782e-09
7.48393e-08
1.16778e-09
7.47845e-08
1.16768e-09
7.47291e-08
1.16662e-09
7.46725e-08
1.16228e-09
1.15025e-09
8.32221e-08
1.99222e-09
-8.3151e-08
8.33123e-08
2.11724e-09
8.34176e-08
2.23024e-09
8.35328e-08
2.32816e-09
8.36528e-08
2.40903e-09
8.37731e-08
2.47207e-09
8.38897e-08
2.51742e-09
8.39994e-08
2.54588e-09
8.40998e-08
2.55878e-09
8.41892e-08
2.55786e-09
8.42667e-08
2.54506e-09
8.4332e-08
2.52245e-09
8.43854e-08
2.49206e-09
8.44277e-08
2.45578e-09
8.44599e-08
2.41529e-09
8.44831e-08
2.37204e-09
8.44986e-08
2.32721e-09
8.45077e-08
2.28175e-09
8.45115e-08
2.23637e-09
8.4511e-08
2.19157e-09
8.45071e-08
2.14772e-09
8.45006e-08
2.10506e-09
8.44922e-08
2.06372e-09
8.44823e-08
2.02378e-09
8.44713e-08
1.98527e-09
8.44597e-08
1.94818e-09
8.44477e-08
1.91251e-09
8.44354e-08
1.87822e-09
8.4423e-08
1.84527e-09
8.44106e-08
1.81364e-09
8.43983e-08
1.78328e-09
8.43863e-08
1.75416e-09
8.43744e-08
1.72624e-09
8.43629e-08
1.6995e-09
8.43516e-08
1.67388e-09
8.43406e-08
1.64936e-09
8.43299e-08
1.62591e-09
8.43196e-08
1.60349e-09
8.43095e-08
1.58206e-09
8.42998e-08
1.5616e-09
8.42904e-08
1.54206e-09
8.42812e-08
1.52341e-09
8.42723e-08
1.50563e-09
8.42636e-08
1.48867e-09
8.42552e-08
1.47251e-09
8.42469e-08
1.4571e-09
8.42389e-08
1.44243e-09
8.4231e-08
1.42846e-09
8.42232e-08
1.41516e-09
8.42156e-08
1.40251e-09
8.4208e-08
1.39046e-09
8.42006e-08
1.379e-09
8.41931e-08
1.3681e-09
8.41857e-08
1.35774e-09
8.41783e-08
1.34788e-09
8.41708e-08
1.33851e-09
8.41633e-08
1.3296e-09
8.41558e-08
1.32114e-09
8.41481e-08
1.31309e-09
8.41403e-08
1.30544e-09
8.41324e-08
1.29817e-09
8.41243e-08
1.29126e-09
8.4116e-08
1.2847e-09
8.41075e-08
1.27846e-09
8.40988e-08
1.27253e-09
8.40898e-08
1.26689e-09
8.40805e-08
1.26154e-09
8.40709e-08
1.25645e-09
8.4061e-08
1.25161e-09
8.40508e-08
1.24701e-09
8.40401e-08
1.24264e-09
8.40291e-08
1.23849e-09
8.40177e-08
1.23454e-09
8.40058e-08
1.23079e-09
8.39935e-08
1.22724e-09
8.39807e-08
1.22386e-09
8.39674e-08
1.22066e-09
8.39536e-08
1.21763e-09
8.39392e-08
1.21477e-09
8.39242e-08
1.21207e-09
8.39087e-08
1.20953e-09
8.38925e-08
1.20714e-09
8.38757e-08
1.20492e-09
8.38583e-08
1.20286e-09
8.38401e-08
1.20097e-09
8.38213e-08
1.19925e-09
8.38017e-08
1.19772e-09
8.37814e-08
1.19638e-09
8.37602e-08
1.19524e-09
8.37383e-08
1.19434e-09
8.37155e-08
1.19368e-09
8.36919e-08
1.19329e-09
8.36675e-08
1.1932e-09
8.36422e-08
1.19342e-09
8.36161e-08
1.19394e-09
8.35892e-08
1.19465e-09
8.35616e-08
1.19528e-09
8.3533e-08
1.19517e-09
8.35022e-08
1.19312e-09
1.18783e-09
9.20542e-08
1.93092e-09
-9.19929e-08
9.21309e-08
2.04059e-09
9.222e-08
2.14112e-09
9.23179e-08
2.23021e-09
9.24208e-08
2.30612e-09
9.2525e-08
2.36789e-09
9.26272e-08
2.41525e-09
9.27245e-08
2.44852e-09
9.28149e-08
2.46847e-09
9.28965e-08
2.47619e-09
9.29685e-08
2.47307e-09
9.30304e-08
2.46059e-09
9.30821e-08
2.44032e-09
9.31242e-08
2.41374e-09
9.31572e-08
2.38227e-09
9.31821e-08
2.34716e-09
9.31998e-08
2.30949e-09
9.32113e-08
2.27019e-09
9.32177e-08
2.22997e-09
9.32199e-08
2.18944e-09
9.32185e-08
2.14905e-09
9.32145e-08
2.10911e-09
9.32083e-08
2.0699e-09
9.32005e-08
2.03157e-09
9.31915e-08
1.99424e-09
9.31817e-08
1.958e-09
9.31713e-08
1.9229e-09
9.31606e-08
1.88896e-09
9.31496e-08
1.85619e-09
9.31387e-08
1.8246e-09
9.31278e-08
1.79419e-09
9.3117e-08
1.76492e-09
9.31065e-08
1.7368e-09
9.30961e-08
1.7098e-09
9.30861e-08
1.6839e-09
9.30764e-08
1.65908e-09
9.3067e-08
1.6353e-09
9.3058e-08
1.61254e-09
9.30492e-08
1.59078e-09
9.30409e-08
1.56997e-09
9.30328e-08
1.5501e-09
9.30251e-08
1.53112e-09
9.30177e-08
1.51301e-09
9.30107e-08
1.49574e-09
9.30039e-08
1.47928e-09
9.29974e-08
1.46359e-09
9.29912e-08
1.44865e-09
9.29852e-08
1.43442e-09
9.29795e-08
1.42088e-09
9.2974e-08
1.40799e-09
9.29688e-08
1.39573e-09
9.29637e-08
1.38408e-09
9.29588e-08
1.373e-09
9.29541e-08
1.36247e-09
9.29495e-08
1.35246e-09
9.2945e-08
1.34296e-09
9.29407e-08
1.33393e-09
9.29365e-08
1.32537e-09
9.29323e-08
1.31723e-09
9.29283e-08
1.30951e-09
9.29243e-08
1.30219e-09
9.29203e-08
1.29524e-09
9.29163e-08
1.28864e-09
9.29124e-08
1.28239e-09
9.29085e-08
1.27647e-09
9.29045e-08
1.27085e-09
9.29005e-08
1.26552e-09
9.28965e-08
1.26048e-09
9.28924e-08
1.2557e-09
9.28883e-08
1.25117e-09
9.2884e-08
1.24689e-09
9.28797e-08
1.24284e-09
9.28752e-08
1.23901e-09
9.28706e-08
1.2354e-09
9.28658e-08
1.23199e-09
9.28609e-08
1.22877e-09
9.28558e-08
1.22575e-09
9.28506e-08
1.22291e-09
9.28451e-08
1.22025e-09
9.28394e-08
1.21777e-09
9.28334e-08
1.21547e-09
9.28272e-08
1.21335e-09
9.28207e-08
1.2114e-09
9.2814e-08
1.20963e-09
9.28069e-08
1.20804e-09
9.27995e-08
1.20665e-09
9.27918e-08
1.20545e-09
9.27837e-08
1.20447e-09
9.27752e-08
1.20372e-09
9.27663e-08
1.20321e-09
9.27571e-08
1.20296e-09
9.27474e-08
1.203e-09
9.27372e-08
1.20335e-09
9.27266e-08
1.204e-09
9.27156e-08
1.20495e-09
9.27041e-08
1.20612e-09
9.26921e-08
1.20733e-09
9.2679e-08
1.20827e-09
9.26635e-08
1.2086e-09
1.20865e-09
1.01812e-07
1.88014e-09
-1.01761e-07
1.01875e-07
1.97792e-09
1.01947e-07
2.06853e-09
1.02027e-07
2.15022e-09
1.02112e-07
2.22155e-09
1.02198e-07
2.28154e-09
1.02284e-07
2.32974e-09
1.02366e-07
2.36613e-09
1.02443e-07
2.39109e-09
1.02514e-07
2.40528e-09
1.02578e-07
2.40961e-09
1.02633e-07
2.40515e-09
1.0268e-07
2.39306e-09
1.0272e-07
2.37451e-09
1.02751e-07
2.35064e-09
1.02776e-07
2.32253e-09
1.02794e-07
2.29114e-09
1.02807e-07
2.25735e-09
1.02815e-07
2.22187e-09
1.02819e-07
2.18532e-09
1.0282e-07
2.14821e-09
1.02818e-07
2.11094e-09
1.02814e-07
2.07384e-09
1.02809e-07
2.03716e-09
1.02802e-07
2.00109e-09