/*--------------------------------*- C++ -*----------------------------------*\
| =========                 |                                                 |
| \\      /  F ield         | OpenFOAM: The Open Source CFD Toolbox           |
|  \\    /   O peration     | Version:  2.3.0                                 |
|   \\  /    A nd           | Web:      www.OpenFOAM.org                      |
|    \\/     M anipulation  |                                                 |
\*---------------------------------------------------------------------------*/
FoamFile
{
    version     2.0;
    format      ascii;
    class       surfaceScalarField;
    location    "1";
    object      phi_0;
}
// * * * * * * * * * * * * * * * * * * * * * * * * * * * * * * * * * * * * * //

dimensions      [0 3 -1 0 0 0 0];

internalField   nonuniform List<scalar> 
3859
(
2.80018e-08
2.91597e-09
-3.09177e-08
2.51066e-08
2.89515e-09
2.2391e-08
2.71558e-09
1.98899e-08
2.50117e-09
1.76206e-08
2.26929e-09
1.55948e-08
2.02579e-09
1.38153e-08
1.77946e-09
1.22767e-08
1.5386e-09
1.09664e-08
1.31032e-09
9.86601e-09
1.1004e-09
8.95293e-09
9.13079e-10
8.20213e-09
7.50803e-10
7.58799e-09
6.14141e-10
7.08595e-09
5.02045e-10
6.6737e-09
4.1225e-10
6.33195e-09
3.41742e-10
6.04473e-09
2.87219e-10
5.79928e-09
2.4545e-10
5.58576e-09
2.13524e-10
5.39678e-09
1.88979e-10
5.22694e-09
1.69839e-10
5.07235e-09
1.54589e-10
4.93024e-09
1.42115e-10
4.79862e-09
1.31621e-10
4.67606e-09
1.22559e-10
4.5615e-09
1.14562e-10
4.45411e-09
1.07387e-10
4.35323e-09
1.00877e-10
4.2583e-09
9.49276e-11
4.16884e-09
8.94678e-11
4.08439e-09
8.44468e-11
4.00456e-09
7.9825e-11
3.929e-09
7.5569e-11
3.85735e-09
7.16489e-11
3.78931e-09
6.80373e-11
3.7246e-09
6.47081e-11
3.66296e-09
6.16372e-11
3.60416e-09
5.88017e-11
3.54798e-09
5.61803e-11
3.49423e-09
5.37537e-11
3.44272e-09
5.15038e-11
3.39331e-09
4.94145e-11
3.34584e-09
4.74711e-11
3.30018e-09
4.56603e-11
3.25621e-09
4.39701e-11
3.21382e-09
4.239e-11
3.17291e-09
4.09103e-11
3.13339e-09
3.95226e-11
3.09517e-09
3.8219e-11
3.05817e-09
3.69928e-11
3.02234e-09
3.58377e-11
2.98759e-09
3.4748e-11
2.95387e-09
3.37188e-11
2.92112e-09
3.27455e-11
2.8893e-09
3.18239e-11
2.85835e-09
3.09503e-11
2.82823e-09
3.01211e-11
2.7989e-09
2.93332e-11
2.77031e-09
2.85838e-11
2.74244e-09
2.78702e-11
2.71525e-09
2.719e-11
2.68871e-09
2.6541e-11
2.66279e-09
2.59211e-11
2.63746e-09
2.53284e-11
2.6127e-09
2.47612e-11
2.58848e-09
2.42179e-11
2.56478e-09
2.36971e-11
2.54159e-09
2.31973e-11
2.51887e-09
2.27174e-11
2.49661e-09
2.22563e-11
2.4748e-09
2.18128e-11
2.45342e-09
2.1386e-11
2.43244e-09
2.0975e-11
2.41186e-09
2.05791e-11
2.39166e-09
2.01974e-11
2.37183e-09
1.98294e-11
2.35236e-09
1.94745e-11
2.33323e-09
1.91321e-11
2.31443e-09
1.88017e-11
2.29594e-09
1.84831e-11
2.27777e-09
1.81757e-11
2.25989e-09
1.78794e-11
2.24229e-09
1.75939e-11
2.22497e-09
1.7319e-11
2.20792e-09
1.70548e-11
2.19112e-09
1.68011e-11
2.17456e-09
1.65581e-11
2.15823e-09
1.63261e-11
2.14213e-09
1.61054e-11
2.12623e-09
1.58966e-11
2.11053e-09
1.57007e-11
2.09501e-09
1.55193e-11
2.07966e-09
1.53551e-11
2.06444e-09
1.52133e-11
2.04934e-09
1.51047e-11
2.03428e-09
1.50552e-11
2.01915e-09
1.51341e-11
2.00371e-09
1.54442e-11
1.98641e-09
1.72993e-11
4.75865e-11
3.59109e-08
3.19939e-09
-3.61943e-08
3.53025e-08
3.50351e-09
3.44502e-08
3.56787e-09
3.3432e-08
3.51936e-09
3.23049e-08
3.39639e-09
3.11162e-08
3.21454e-09
2.99044e-08
2.99121e-09
2.86995e-08
2.74355e-09
2.75235e-08
2.48628e-09
2.63923e-08
2.2316e-09
2.53162e-08
1.98917e-09
2.43012e-08
1.76586e-09
2.33497e-08
1.56566e-09
2.24616e-08
1.39006e-09
2.16353e-08
1.23856e-09
2.08678e-08
1.10928e-09
2.01554e-08
9.99604e-10
1.94942e-08
9.06629e-10
1.88802e-08
8.27524e-10
1.83095e-08
7.59738e-10
1.77782e-08
7.01102e-10
1.7283e-08
6.49846e-10
1.68205e-08
6.0457e-10
1.63879e-08
5.64191e-10
1.59826e-08
5.27883e-10
1.56022e-08
4.95018e-10
1.52444e-08
4.65116e-10
1.49075e-08
4.37804e-10
1.45896e-08
4.12786e-10
1.42893e-08
3.89822e-10
1.4005e-08
3.68708e-10
1.37356e-08
3.49269e-10
1.34798e-08
3.31354e-10
1.32366e-08
3.14822e-10
1.30051e-08
2.99552e-10
1.27844e-08
2.85429e-10
1.25737e-08
2.72351e-10
1.23723e-08
2.60226e-10
1.21795e-08
2.48968e-10
1.19947e-08
2.38501e-10
1.18175e-08
2.28755e-10
1.16472e-08
2.19667e-10
1.14835e-08
2.11181e-10
1.13259e-08
2.03245e-10
1.11741e-08
1.95814e-10
1.10276e-08
1.88845e-10
1.08862e-08
1.82301e-10
1.07496e-08
1.76148e-10
1.06175e-08
1.70356e-10
1.04896e-08
1.64896e-10
1.03657e-08
1.59744e-10
1.02455e-08
1.54877e-10
1.0129e-08
1.50273e-10
1.00158e-08
1.45914e-10
9.90585e-09
1.41782e-10
9.79894e-09
1.37862e-10
9.69492e-09
1.34139e-10
9.59365e-09
1.30599e-10
9.49501e-09
1.2723e-10
9.39886e-09
1.24021e-10
9.30509e-09
1.20961e-10
9.21359e-09
1.1804e-10
9.12426e-09
1.1525e-10
9.03701e-09
1.12582e-10
8.95174e-09
1.10029e-10
8.86837e-09
1.07583e-10
8.78683e-09
1.05239e-10
8.70704e-09
1.0299e-10
8.62893e-09
1.0083e-10
8.55243e-09
9.87546e-11
8.47748e-09
9.6759e-11
8.40403e-09
9.48387e-11
8.33201e-09
9.29898e-11
8.26138e-09
9.12085e-11
8.19209e-09
8.94914e-11
8.12408e-09
8.78356e-11
8.05732e-09
8.6238e-11
7.99176e-09
8.46964e-11
7.92735e-09
8.32082e-11
7.86406e-09
8.17716e-11
7.80185e-09
8.03848e-11
7.74069e-09
7.90462e-11
7.68052e-09
7.77545e-11
7.62134e-09
7.65088e-11
7.56308e-09
7.53085e-11
7.50573e-09
7.41529e-11
7.44925e-09
7.30423e-11
7.39359e-09
7.19769e-11
7.33874e-09
7.09578e-11
7.28465e-09
6.99868e-11
7.23129e-09
6.90668e-11
7.1786e-09
6.82031e-11
7.12655e-09
6.74045e-11
7.07508e-09
6.66881e-11
7.02409e-09
6.60901e-11
6.97345e-09
6.56976e-11
6.92285e-09
6.57325e-11
6.87142e-09
6.68725e-11
6.81311e-09
7.56115e-11
1.2966e-10
4.05732e-08
3.02728e-09
-4.04011e-08
4.06627e-08
3.41401e-09
4.06248e-08
3.60576e-09
4.04613e-08
3.68282e-09
4.01801e-08
3.67764e-09
3.97933e-08
3.60134e-09
3.93173e-08
3.46713e-09
3.877e-08
3.29087e-09
3.81684e-08
3.08786e-09
3.75283e-08
2.87173e-09
3.68634e-08
2.65408e-09
3.61853e-08
2.44398e-09
3.55032e-08
2.24774e-09
3.48242e-08
2.06901e-09
3.41536e-08
1.90916e-09
3.3495e-08
1.76788e-09
3.28509e-08
1.64378e-09
3.22226e-08
1.53485e-09
3.16112e-08
1.43891e-09
3.10171e-08
1.35385e-09
3.04405e-08
1.27778e-09
2.98812e-08
1.20912e-09
2.93392e-08
1.14659e-09
2.88142e-08
1.08918e-09
2.8306e-08
1.03612e-09
2.78141e-08
9.86825e-10
2.73384e-08
9.4084e-10
2.68784e-08
8.97821e-10
2.64337e-08
8.57497e-10
2.60039e-08
8.19645e-10
2.55885e-08
7.84083e-10
2.51871e-08
7.50649e-10
2.47993e-08
7.19202e-10
2.44245e-08
6.89611e-10
2.40623e-08
6.61757e-10
2.37122e-08
6.35529e-10
2.33737e-08
6.10821e-10
2.30464e-08
5.87535e-10
2.27298e-08
5.6558e-10
2.24234e-08
5.44868e-10
2.21268e-08
5.2532e-10
2.18397e-08
5.06859e-10
2.15614e-08
4.89414e-10
2.12917e-08
4.72921e-10
2.10302e-08
4.57316e-10
2.07765e-08
4.42544e-10
2.05303e-08
4.2855e-10
2.02912e-08
4.15285e-10
2.00588e-08
4.02703e-10
1.98329e-08
3.9076e-10
1.96133e-08
3.79416e-10
1.93995e-08
3.68635e-10
1.91914e-08
3.58379e-10
1.89887e-08
3.48618e-10
1.87912e-08
3.39321e-10
1.85986e-08
3.30459e-10
1.84107e-08
3.22006e-10
1.82274e-08
3.13936e-10
1.80484e-08
3.06228e-10
1.78735e-08
2.98859e-10
1.77027e-08
2.9181e-10
1.75357e-08
2.8506e-10
1.73723e-08
2.78594e-10
1.72125e-08
2.72394e-10
1.70561e-08
2.66446e-10
1.69029e-08
2.60734e-10
1.67529e-08
2.55246e-10
1.6606e-08
2.4997e-10
1.64619e-08
2.44893e-10
1.63206e-08
2.40006e-10
1.61821e-08
2.35297e-10
1.60462e-08
2.30759e-10
1.59128e-08
2.26381e-10
1.57818e-08
2.22157e-10
1.56533e-08
2.18079e-10
1.55269e-08
2.14141e-10
1.54028e-08
2.10335e-10
1.52809e-08
2.06656e-10
1.5161e-08
2.031e-10
1.50431e-08
1.99661e-10
1.49272e-08
1.96335e-10
1.48131e-08
1.9312e-10
1.47008e-08
1.90011e-10
1.45903e-08
1.87007e-10
1.44815e-08
1.84105e-10
1.43744e-08
1.81304e-10
1.42688e-08
1.78605e-10
1.41648e-08
1.76006e-10
1.40622e-08
1.7351e-10
1.39611e-08
1.71121e-10
1.38613e-08
1.68843e-10
1.37628e-08
1.66687e-10
1.36656e-08
1.64669e-10
1.35694e-08
1.62824e-10
1.34743e-08
1.61221e-10
1.338e-08
1.60032e-10
1.3286e-08
1.59714e-10
1.31909e-08
1.61948e-10
1.30896e-08
1.76919e-10
2.36252e-10
4.50675e-08
2.81496e-09
-4.48552e-08
4.52967e-08
3.18488e-09
4.5491e-08
3.41146e-09
4.56345e-08
3.5393e-09
4.57181e-08
3.59405e-09
4.5735e-08
3.58449e-09
4.5683e-08
3.51906e-09
4.55646e-08
3.40935e-09
4.53846e-08
3.26777e-09
4.51503e-08
3.1061e-09
4.48695e-08
2.93486e-09
4.45506e-08
2.76286e-09
4.42015e-08
2.59682e-09
4.38293e-08
2.44121e-09
4.344e-08
2.2985e-09
4.30384e-08
2.1695e-09
4.26283e-08
2.05387e-09
4.22126e-08
1.95051e-09
4.17936e-08
1.85796e-09
4.13728e-08
1.77465e-09
4.09515e-08
1.69911e-09
4.05306e-08
1.63002e-09
4.01109e-08
1.56628e-09
3.9693e-08
1.50703e-09
3.92776e-08
1.45156e-09
3.8865e-08
1.39935e-09
3.84559e-08
1.35e-09
3.80505e-08
1.30321e-09
3.76493e-08
1.25874e-09
3.72525e-08
1.21642e-09
3.68605e-08
1.1761e-09
3.64734e-08
1.13766e-09
3.60917e-08
1.10098e-09
3.57153e-08
1.06598e-09
3.53445e-08
1.03256e-09
3.49794e-08
1.00066e-09
3.462e-08
9.70184e-10
3.42665e-08
9.4107e-10
3.39188e-08
9.13246e-10
3.3577e-08
8.86649e-10
3.32411e-08
8.61217e-10
3.29111e-08
8.36891e-10
3.25869e-08
8.13617e-10
3.22685e-08
7.9134e-10
3.19558e-08
7.70013e-10
3.16487e-08
7.49587e-10
3.13473e-08
7.30018e-10
3.10513e-08
7.11264e-10
3.07607e-08
6.93285e-10
3.04754e-08
6.76043e-10
3.01953e-08
6.59501e-10
2.99203e-08
6.43625e-10
2.96503e-08
6.28384e-10
2.93852e-08
6.13745e-10
2.91249e-08
5.9968e-10
2.88691e-08
5.86161e-10
2.8618e-08
5.73161e-10
2.83713e-08
5.60656e-10
2.81289e-08
5.4862e-10
2.78907e-08
5.37031e-10
2.76567e-08
5.25869e-10
2.74266e-08
5.15111e-10
2.72005e-08
5.04739e-10
2.69781e-08
4.94734e-10
2.67595e-08
4.85079e-10
2.65445e-08
4.75757e-10
2.6333e-08
4.66752e-10
2.61249e-08
4.5805e-10
2.59201e-08
4.49636e-10
2.57186e-08
4.41497e-10
2.55203e-08
4.33622e-10
2.53251e-08
4.25997e-10
2.51328e-08
4.18613e-10
2.49435e-08
4.11459e-10
2.47571e-08
4.04525e-10
2.45734e-08
3.97802e-10
2.43925e-08
3.91283e-10
2.42142e-08
3.84959e-10
2.40385e-08
3.78824e-10
2.38652e-08
3.72872e-10
2.36945e-08
3.67097e-10
2.35261e-08
3.61494e-10
2.33601e-08
3.56059e-10
2.31963e-08
3.50789e-10
2.30347e-08
3.45682e-10
2.28753e-08
3.40735e-10
2.27179e-08
3.3595e-10
2.25626e-08
3.31326e-10
2.24093e-08
3.26868e-10
2.22578e-08
3.22579e-10
2.21082e-08
3.18471e-10
2.19603e-08
3.14557e-10
2.18141e-08
3.10866e-10
2.16695e-08
3.07449e-10
2.15263e-08
3.04416e-10
2.13843e-08
3.02025e-10
2.1243e-08
3.00988e-10
2.11012e-08
3.03788e-10
2.09577e-08
3.20412e-10
3.69623e-10
4.9941e-08
2.63111e-09
-4.97572e-08
5.01688e-08
2.95713e-09
5.03985e-08
3.18172e-09
5.06136e-08
3.32422e-09
5.08046e-08
3.40302e-09
5.09626e-08
3.42647e-09
5.10807e-08
3.401e-09
5.1155e-08
3.33509e-09
5.11843e-08
3.23839e-09
5.11701e-08
3.12038e-09
5.11151e-08
2.98978e-09
5.10238e-08
2.85418e-09
5.0901e-08
2.71968e-09
5.07515e-08
2.59068e-09
5.058e-08
2.46998e-09
5.03905e-08
2.35898e-09
5.01864e-08
2.25802e-09
4.99702e-08
2.16666e-09
4.97441e-08
2.08405e-09
4.95097e-08
2.00911e-09
4.92681e-08
1.94073e-09
4.90202e-08
1.87788e-09
4.87668e-08
1.81967e-09
4.85085e-08
1.76533e-09
4.82458e-08
1.71425e-09
4.79792e-08
1.66598e-09
4.7709e-08
1.62013e-09
4.74358e-08
1.57643e-09
4.71599e-08
1.53467e-09
4.68816e-08
1.49468e-09
4.66014e-08
1.45634e-09
4.63195e-08
1.41953e-09
4.60363e-08
1.38418e-09
4.57521e-08
1.3502e-09
4.54672e-08
1.31752e-09
4.51817e-08
1.28609e-09
4.48961e-08
1.25585e-09
4.46104e-08
1.22674e-09
4.43249e-08
1.1987e-09
4.40399e-08
1.1717e-09
4.37554e-08
1.14569e-09
4.34717e-08
1.12061e-09
4.31889e-08
1.09643e-09
4.29071e-08
1.07311e-09
4.26265e-08
1.0506e-09
4.23472e-08
1.02888e-09
4.20693e-08
1.00791e-09
4.17929e-08
9.8766e-10
4.15181e-08
9.68091e-10
4.1245e-08
9.49177e-10
4.09736e-08
9.30891e-10
4.0704e-08
9.13205e-10
4.04363e-08
8.96095e-10
4.01705e-08
8.79534e-10
3.99067e-08
8.63501e-10
3.96449e-08
8.47973e-10
3.93851e-08
8.32928e-10
3.91274e-08
8.18346e-10
3.88719e-08
8.04208e-10
3.86184e-08
7.90495e-10
3.83671e-08
7.77189e-10
3.81179e-08
7.64274e-10
3.78709e-08
7.51734e-10
3.76261e-08
7.39552e-10
3.73835e-08
7.27715e-10
3.7143e-08
7.16208e-10
3.69047e-08
7.05019e-10
3.66687e-08
6.94134e-10
3.64348e-08
6.83542e-10
3.6203e-08
6.73231e-10
3.59735e-08
6.63191e-10
3.5746e-08
6.53412e-10
3.55208e-08
6.43884e-10
3.52976e-08
6.34598e-10
3.50766e-08
6.25546e-10
3.48577e-08
6.16721e-10
3.46409e-08
6.08115e-10
3.44261e-08
5.99723e-10
3.42134e-08
5.91538e-10
3.40027e-08
5.83555e-10
3.3794e-08
5.7577e-10
3.35873e-08
5.6818e-10
3.33826e-08
5.60782e-10
3.31798e-08
5.53574e-10
3.2979e-08
5.46554e-10
3.278e-08
5.39725e-10
3.25828e-08
5.33087e-10
3.23875e-08
5.26645e-10
3.2194e-08
5.20404e-10
3.20022e-08
5.14374e-10
3.18121e-08
5.08569e-10
3.16236e-08
5.03012e-10
3.14368e-08
4.97741e-10
3.12514e-08
4.92827e-10
3.10674e-08
4.88412e-10
3.08846e-08
4.84823e-10
3.07027e-08
4.82905e-10
3.05213e-08
4.8516e-10
3.03433e-08
4.98437e-10
5.27189e-10
5.5318e-08
2.47752e-09
-5.51644e-08
5.55195e-08
2.75562e-09
5.5737e-08
2.96422e-09
5.59537e-08
3.1075e-09
5.61606e-08
3.19614e-09
5.63499e-08
3.23714e-09
5.65151e-08
3.23582e-09
5.66516e-08
3.1986e-09
5.6757e-08
3.13299e-09
5.68307e-08
3.04664e-09
5.68738e-08
2.9467e-09
5.68884e-08
2.83955e-09
5.68776e-08
2.73049e-09
5.68447e-08
2.62358e-09
5.67931e-08
2.52162e-09
5.67258e-08
2.42628e-09
5.66455e-08
2.33831e-09
5.65544e-08
2.25776e-09
5.64542e-08
2.18425e-09
5.63462e-08
2.11711e-09
5.62313e-08
2.05558e-09
5.61103e-08
1.99889e-09
5.59837e-08
1.94632e-09
5.58517e-08
1.89725e-09
5.57148e-08
1.85117e-09
5.55732e-08
1.80765e-09
5.54269e-08
1.76635e-09
5.52763e-08
1.72702e-09
5.51216e-08
1.68944e-09
5.49628e-08
1.65347e-09
5.48002e-08
1.61896e-09
5.46339e-08
1.58583e-09
5.44641e-08
1.55397e-09
5.42909e-08
1.52333e-09
5.41146e-08
1.49383e-09
5.39353e-08
1.46541e-09
5.37531e-08
1.43803e-09
5.35682e-08
1.41163e-09
5.33808e-08
1.38617e-09
5.31909e-08
1.3616e-09
5.29987e-08
1.33788e-09
5.28043e-08
1.31497e-09
5.26079e-08
1.29283e-09
5.24096e-08
1.27143e-09
5.22095e-08
1.25074e-09
5.20076e-08
1.23071e-09
5.18042e-08
1.21133e-09
5.15993e-08
1.19255e-09
5.13931e-08
1.17436e-09
5.11855e-08
1.15673e-09
5.09768e-08
1.13962e-09
5.0767e-08
1.12302e-09
5.05561e-08
1.10691e-09
5.03444e-08
1.09126e-09
5.01319e-08
1.07605e-09
4.99186e-08
1.06127e-09
4.97046e-08
1.04689e-09
4.94901e-08
1.03289e-09
4.9275e-08
1.01926e-09
4.90595e-08
1.00599e-09
4.88436e-08
9.9305e-10
4.86275e-08
9.80435e-10
4.84111e-08
9.68128e-10
4.81945e-08
9.56116e-10
4.79779e-08
9.44388e-10
4.77611e-08
9.3293e-10
4.75444e-08
9.21731e-10
4.73278e-08
9.10783e-10
4.71112e-08
9.00073e-10
4.68949e-08
8.89593e-10
4.66787e-08
8.79335e-10
4.64629e-08
8.6929e-10
4.62473e-08
8.5945e-10
4.60321e-08
8.49809e-10
4.58173e-08
8.40361e-10
4.56029e-08
8.311e-10
4.5389e-08
8.22021e-10
4.51756e-08
8.13119e-10
4.49627e-08
8.04391e-10
4.47505e-08
7.95834e-10
4.45388e-08
7.87445e-10
4.43277e-08
7.79225e-10
4.41173e-08
7.71171e-10
4.39076e-08
7.63286e-10
4.36986e-08
7.5557e-10
4.34903e-08
7.48028e-10
4.32827e-08
7.40665e-10
4.30759e-08
7.33487e-10
4.28698e-08
7.26506e-10
4.26644e-08
7.19735e-10
4.24598e-08
7.13196e-10
4.22559e-08
7.06916e-10
4.20527e-08
7.00946e-10
4.18502e-08
6.95368e-10
4.16482e-08
6.9034e-10
4.14469e-08
6.86193e-10
4.12461e-08
6.83684e-10
4.10467e-08
6.84525e-10
4.08539e-08
6.91255e-10
6.96898e-10
6.12601e-08
2.34701e-09
-6.11296e-08
6.14347e-08
2.58107e-09
6.16306e-08
2.76829e-09
6.18322e-08
2.9059e-09
6.20301e-08
2.99828e-09
6.22171e-08
3.05012e-09
6.23873e-08
3.06558e-09
6.25364e-08
3.04948e-09
6.26619e-08
3.00753e-09
6.27627e-08
2.9458e-09
6.28393e-08
2.87011e-09
6.28931e-08
2.78578e-09
6.29263e-08
2.69734e-09
6.29414e-08
2.60844e-09
6.29412e-08
2.52178e-09
6.29284e-08
2.43914e-09
6.29051e-08
2.36154e-09
6.28735e-08
2.28942e-09
6.2835e-08
2.22276e-09
6.27908e-08
2.16125e-09
6.2742e-08
2.10446e-09
6.2689e-08
2.05185e-09
6.26324e-08
2.00294e-09
6.25724e-08
1.95722e-09
6.25093e-08
1.9143e-09
6.24431e-08
1.87381e-09
6.2374e-08
1.83547e-09
6.2302e-08
1.79905e-09
6.22271e-08
1.76434e-09
6.21493e-08
1.7312e-09
6.20688e-08
1.69951e-09
6.19854e-08
1.66917e-09
6.18993e-08
1.64008e-09
6.18105e-08
1.61217e-09
6.17189e-08
1.58538e-09
6.16247e-08
1.55966e-09
6.15278e-08
1.53494e-09
6.14282e-08
1.51118e-09
6.13261e-08
1.48832e-09
6.12213e-08
1.46633e-09
6.1114e-08
1.44517e-09
6.10042e-08
1.42478e-09
6.08919e-08
1.40514e-09
6.07771e-08
1.38621e-09
6.06599e-08
1.36795e-09
6.05403e-08
1.35033e-09
6.04183e-08
1.33331e-09
6.0294e-08
1.31688e-09
6.01674e-08
1.30099e-09
6.00385e-08
1.28562e-09
5.99074e-08
1.27075e-09
5.97741e-08
1.25635e-09
5.96386e-08
1.24239e-09
5.9501e-08
1.22886e-09
5.93613e-08
1.21573e-09
5.92196e-08
1.20299e-09
5.90759e-08
1.1906e-09
5.89302e-08
1.17856e-09
5.87826e-08
1.16685e-09
5.86331e-08
1.15544e-09
5.84819e-08
1.14433e-09
5.83288e-08
1.13349e-09
5.8174e-08
1.12292e-09
5.80175e-08
1.1126e-09
5.78594e-08
1.10251e-09
5.76997e-08
1.09265e-09
5.75384e-08
1.083e-09
5.73756e-08
1.07356e-09
5.72114e-08
1.0643e-09
5.70458e-08
1.05523e-09
5.68788e-08
1.04633e-09
5.67105e-08
1.0376e-09
5.65409e-08
1.02903e-09
5.63701e-08
1.02061e-09
5.61981e-08
1.01234e-09
5.6025e-08
1.00421e-09
5.58508e-08
9.96217e-10
5.56756e-08
9.88355e-10
5.54993e-08
9.80623e-10
5.53221e-08
9.73019e-10
5.5144e-08
9.65543e-10
5.49651e-08
9.58192e-10
5.47853e-08
9.5097e-10
5.46047e-08
9.43878e-10
5.44233e-08
9.3692e-10
5.42413e-08
9.30101e-10
5.40585e-08
9.23429e-10
5.38751e-08
9.16914e-10
5.3691e-08
9.1057e-10
5.35063e-08
9.04415e-10
5.3321e-08
8.98472e-10
5.31352e-08
8.92777e-10
5.29487e-08
8.87382e-10
5.27617e-08
8.82372e-10
5.25742e-08
8.77889e-10
5.23862e-08
8.74193e-10
5.21981e-08
8.71735e-10
5.20116e-08
8.71058e-10
5.18318e-08
8.71026e-10
8.59248e-10
6.78247e-08
2.2341e-09
-6.77118e-08
6.79753e-08
2.43051e-09
6.81483e-08
2.59527e-09
6.83306e-08
2.72355e-09
6.85131e-08
2.81581e-09
6.86888e-08
2.87441e-09
6.88522e-08
2.90221e-09
6.8999e-08
2.90266e-09
6.91265e-08
2.87997e-09
6.92336e-08
2.83876e-09
6.93201e-08
2.78364e-09
6.93869e-08
2.71894e-09
6.94358e-08
2.64847e-09
6.94688e-08
2.57542e-09
6.94883e-08
2.5023e-09
6.94965e-08
2.4309e-09
6.94956e-08
2.36243e-09
6.94875e-08
2.29756e-09
6.94736e-08
2.23659e-09
6.94554e-08
2.17953e-09
6.94336e-08
2.12621e-09
6.94091e-08
2.07635e-09
6.93824e-08
2.02965e-09
6.93538e-08
1.98578e-09
6.93237e-08
1.94444e-09
6.92921e-08
1.90539e-09
6.92592e-08
1.86837e-09
6.92251e-08
1.83321e-09
6.91897e-08
1.79974e-09
6.9153e-08
1.76784e-09
6.91151e-08
1.73738e-09
6.9076e-08
1.70829e-09
6.90356e-08
1.68047e-09
6.8994e-08
1.65386e-09
6.89509e-08
1.62839e-09
6.89066e-08
1.60402e-09
6.88608e-08
1.58068e-09
6.88137e-08
1.55834e-09
6.87651e-08
1.53693e-09
6.8715e-08
1.51643e-09
6.86634e-08
1.49678e-09
6.86102e-08
1.47794e-09
6.85555e-08
1.45989e-09
6.84991e-08
1.44257e-09
6.84411e-08
1.42595e-09
6.83814e-08
1.41001e-09
6.832e-08
1.3947e-09
6.82569e-08
1.38e-09
6.8192e-08
1.36587e-09
6.81253e-08
1.35229e-09
6.80569e-08
1.33922e-09
6.79866e-08
1.32665e-09
6.79144e-08
1.31454e-09
6.78404e-08
1.30287e-09
6.77646e-08
1.29161e-09
6.76868e-08
1.28076e-09
6.76071e-08
1.27027e-09
6.75255e-08
1.26014e-09
6.7442e-08
1.25035e-09
6.73566e-08
1.24086e-09
6.72693e-08
1.23168e-09
6.718e-08
1.22277e-09
6.70888e-08
1.21413e-09
6.69956e-08
1.20574e-09
6.69006e-08
1.19758e-09
6.68036e-08
1.18964e-09
6.67047e-08
1.18191e-09
6.66038e-08
1.17437e-09
6.65011e-08
1.16702e-09
6.63965e-08
1.15984e-09
6.629e-08
1.15283e-09
6.61817e-08
1.14597e-09
6.60714e-08
1.13925e-09
6.59594e-08
1.13267e-09
6.58455e-08
1.12623e-09
6.57298e-08
1.1199e-09
6.56123e-08
1.1137e-09
6.54931e-08
1.10761e-09
6.5372e-08
1.10164e-09
6.52493e-08
1.09577e-09
6.51248e-08
1.09001e-09
6.49987e-08
1.08436e-09
6.48708e-08
1.07881e-09
6.47413e-08
1.07338e-09
6.46102e-08
1.06806e-09
6.44774e-08
1.06287e-09
6.4343e-08
1.0578e-09
6.42071e-08
1.05288e-09
6.40695e-08
1.04811e-09
6.39304e-08
1.04351e-09
6.37898e-08
1.03912e-09
6.36476e-08
1.03497e-09
6.35039e-08
1.0311e-09
6.33587e-08
1.02758e-09
6.3212e-08
1.02453e-09
6.30642e-08
1.02206e-09
6.29156e-08
1.02026e-09
6.2768e-08
1.01867e-09
6.26248e-08
1.01428e-09
9.95344e-10
6.79877e-08
2.14379e-09
-6.78974e-08
6.81066e-08
2.31165e-09
6.82448e-08
2.45705e-09
6.83931e-08
2.57526e-09
6.85439e-08
2.66499e-09
6.86913e-08
2.72698e-09
6.88306e-08
2.76294e-09
6.8958e-08
2.77528e-09
6.90709e-08
2.76704e-09
6.9168e-08
2.7417e-09
6.92488e-08
2.70286e-09
6.93137e-08
2.65401e-09
6.93638e-08
2.59834e-09
6.94007e-08
2.53859e-09
6.94259e-08
2.47702e-09
6.94415e-08
2.41538e-09
6.9449e-08
2.35493e-09
6.945e-08
2.2965e-09
6.9446e-08
2.24059e-09
6.94381e-08
2.18743e-09
6.94273e-08
2.13707e-09
6.94142e-08
2.08944e-09
6.93994e-08
2.04439e-09
6.93835e-08
2.00174e-09
6.93666e-08
1.96132e-09
6.9349e-08
1.92295e-09
6.93309e-08
1.88647e-09
6.93124e-08
1.85172e-09
6.92936e-08
1.8186e-09
6.92744e-08
1.787e-09
6.9255e-08
1.75682e-09
6.92353e-08
1.72799e-09
6.92153e-08
1.70043e-09
6.91951e-08
1.6741e-09
6.91745e-08
1.64892e-09
6.91537e-08
1.62486e-09
6.91325e-08
1.60186e-09
6.9111e-08
1.57988e-09
6.9089e-08
1.55888e-09
6.90666e-08
1.53881e-09
6.90438e-08
1.51963e-09
6.90204e-08
1.50131e-09
6.89965e-08
1.4838e-09
6.8972e-08
1.46707e-09
6.89469e-08
1.45109e-09
6.89211e-08
1.43581e-09
6.88945e-08
1.42121e-09
6.88673e-08
1.40726e-09
6.88392e-08
1.39392e-09
6.88104e-08
1.38117e-09
6.87806e-08
1.36897e-09
6.875e-08
1.3573e-09
6.87184e-08
1.34613e-09
6.86858e-08
1.33544e-09
6.86522e-08
1.3252e-09
6.86176e-08
1.31538e-09
6.85819e-08
1.30598e-09
6.85451e-08
1.29696e-09
6.85071e-08
1.2883e-09
6.8468e-08
1.27999e-09
6.84277e-08
1.272e-09
6.83861e-08
1.26432e-09
6.83433e-08
1.25693e-09
6.82993e-08
1.24981e-09
6.82539e-08
1.24295e-09
6.82072e-08
1.23633e-09
6.81592e-08
1.22994e-09
6.81098e-08
1.22377e-09
6.8059e-08
1.2178e-09
6.80068e-08
1.21202e-09
6.79532e-08
1.20642e-09
6.78982e-08
1.20098e-09
6.78417e-08
1.19571e-09
6.77838e-08
1.19059e-09
6.77244e-08
1.18561e-09
6.76636e-08
1.18077e-09
6.76012e-08
1.17606e-09
6.75374e-08
1.17147e-09
6.7472e-08
1.16701e-09
6.74051e-08
1.16266e-09
6.73367e-08
1.15842e-09
6.72667e-08
1.1543e-09
6.71953e-08
1.1503e-09
6.71222e-08
1.14641e-09
6.70476e-08
1.14265e-09
6.69715e-08
1.13901e-09
6.68938e-08
1.13551e-09
6.68145e-08
1.13215e-09
6.67337e-08
1.12896e-09
6.66512e-08
1.12595e-09
6.65672e-08
1.12315e-09
6.64816e-08
1.12059e-09
6.63943e-08
1.11831e-09
6.63056e-08
1.11637e-09
6.62153e-08
1.11481e-09
6.61237e-08
1.11364e-09
6.60313e-08
1.11268e-09
6.59389e-08
1.11103e-09
6.58476e-08
1.10555e-09
1.08769e-09
7.52266e-08
2.06327e-09
-7.51461e-08
7.53308e-08
2.20752e-09
7.54523e-08
2.33553e-09
7.55842e-08
2.44334e-09
7.57202e-08
2.52904e-09
7.58548e-08
2.59233e-09
7.59837e-08
2.63402e-09
7.61034e-08
2.6556e-09
7.62113e-08
2.65918e-09
7.63057e-08
2.64725e-09
7.6386e-08
2.62254e-09
7.64523e-08
2.58776e-09
7.65051e-08
2.5455e-09
7.65456e-08
2.49807e-09
7.65752e-08
2.44745e-09
7.65953e-08
2.39526e-09
7.66075e-08
2.34274e-09
7.66132e-08
2.29082e-09
7.66137e-08
2.24013e-09
7.661e-08
2.19106e-09
7.66033e-08
2.14384e-09
7.65941e-08
2.09858e-09
7.65832e-08
2.05527e-09
7.65711e-08
2.01389e-09
7.65581e-08
1.97435e-09
7.65445e-08
1.93656e-09
7.65305e-08
1.90044e-09
7.65163e-08
1.86591e-09
7.6502e-08
1.83287e-09
7.64878e-08
1.80127e-09
7.64735e-08
1.77103e-09
7.64594e-08
1.74209e-09
7.64455e-08
1.71441e-09
7.64316e-08
1.68792e-09
7.6418e-08
1.6626e-09
7.64044e-08
1.63838e-09
7.63911e-08
1.61524e-09
7.63778e-08
1.59313e-09
7.63647e-08
1.57202e-09
7.63516e-08
1.55185e-09
7.63387e-08
1.5326e-09
7.63257e-08
1.51424e-09
7.63128e-08
1.49671e-09
7.62999e-08
1.48e-09
7.62869e-08
1.46406e-09
7.62738e-08
1.44886e-09
7.62607e-08
1.43438e-09
7.62474e-08
1.42057e-09
7.62339e-08
1.4074e-09
7.62202e-08
1.39486e-09
7.62063e-08
1.38291e-09
7.6192e-08
1.37152e-09
7.61775e-08
1.36066e-09
7.61626e-08
1.35032e-09
7.61474e-08
1.34046e-09
7.61317e-08
1.33106e-09
7.61156e-08
1.3221e-09
7.6099e-08
1.31356e-09
7.60819e-08
1.30541e-09
7.60642e-08
1.29764e-09
7.6046e-08
1.29023e-09
7.60271e-08
1.28315e-09
7.60077e-08
1.2764e-09
7.59875e-08
1.26994e-09
7.59667e-08
1.26378e-09
7.59452e-08
1.25788e-09
7.59229e-08
1.25224e-09
7.58998e-08
1.24685e-09
7.58759e-08
1.24168e-09
7.58512e-08
1.23673e-09
7.58256e-08
1.23199e-09
7.57991e-08
1.22744e-09
7.57718e-08
1.22308e-09
7.57435e-08
1.2189e-09
7.57142e-08
1.21488e-09
7.5684e-08
1.21102e-09
7.56527e-08
1.20731e-09
7.56204e-08
1.20375e-09
7.55871e-08
1.20034e-09
7.55527e-08
1.19706e-09
7.55172e-08
1.19392e-09
7.54806e-08
1.19092e-09
7.54428e-08
1.18806e-09
7.54039e-08
1.18533e-09
7.53638e-08
1.18275e-09
7.53225e-08
1.18032e-09
7.528e-08
1.17804e-09
7.52362e-08
1.17593e-09
7.51911e-08
1.17401e-09
7.51448e-08
1.17229e-09
7.50971e-08
1.1708e-09
7.50482e-08
1.16956e-09
7.49979e-08
1.16861e-09
7.49463e-08
1.16798e-09
7.48934e-08
1.16767e-09
7.48394e-08
1.16762e-09
7.47846e-08
1.16752e-09
7.47292e-08
1.16645e-09
7.46726e-08
1.16211e-09
1.15007e-09
8.32221e-08
1.99222e-09
-8.3151e-08
8.33123e-08
2.11724e-09
8.34176e-08
2.23024e-09
8.35328e-08
2.32816e-09
8.36528e-08
2.40903e-09
8.37731e-08
2.47207e-09
8.38897e-08
2.51742e-09
8.39994e-08
2.54588e-09
8.40998e-08
2.55878e-09
8.41892e-08
2.55786e-09
8.42667e-08
2.54506e-09
8.4332e-08
2.52245e-09
8.43854e-08
2.49206e-09
8.44277e-08
2.45578e-09
8.44599e-08
2.41529e-09
8.44831e-08
2.37204e-09
8.44986e-08
2.32721e-09
8.45077e-08
2.28175e-09
8.45115e-08
2.23636e-09
8.4511e-08
2.19157e-09
8.45071e-08
2.14772e-09
8.45006e-08
2.10506e-09
8.44922e-08
2.06372e-09
8.44823e-08
2.02378e-09
8.44713e-08
1.98527e-09
8.44597e-08
1.94818e-09
8.44477e-08
1.91251e-09
8.44354e-08
1.87821e-09
8.4423e-08
1.84527e-09
8.44106e-08
1.81364e-09
8.43983e-08
1.78328e-09
8.43863e-08
1.75416e-09
8.43744e-08
1.72624e-09
8.43629e-08
1.69949e-09
8.43516e-08
1.67388e-09
8.43406e-08
1.64936e-09
8.43299e-08
1.62591e-09
8.43196e-08
1.60349e-09
8.43095e-08
1.58206e-09
8.42998e-08
1.56159e-09
8.42904e-08
1.54206e-09
8.42812e-08
1.52341e-09
8.42723e-08
1.50563e-09
8.42636e-08
1.48867e-09
8.42552e-08
1.4725e-09
8.42469e-08
1.4571e-09
8.42389e-08
1.44243e-09
8.4231e-08
1.42846e-09
8.42232e-08
1.41516e-09
8.42156e-08
1.4025e-09
8.4208e-08
1.39046e-09
8.42006e-08
1.379e-09
8.41931e-08
1.3681e-09
8.41857e-08
1.35773e-09
8.41783e-08
1.34787e-09
8.41708e-08
1.3385e-09
8.41633e-08
1.3296e-09
8.41558e-08
1.32113e-09
8.41481e-08
1.31308e-09
8.41403e-08
1.30543e-09
8.41324e-08
1.29816e-09
8.41243e-08
1.29125e-09
8.4116e-08
1.28468e-09
8.41075e-08
1.27844e-09
8.40988e-08
1.27251e-09
8.40898e-08
1.26688e-09
8.40805e-08
1.26152e-09
8.40709e-08
1.25643e-09
8.4061e-08
1.25159e-09
8.40508e-08
1.24698e-09
8.40402e-08
1.24261e-09
8.40291e-08
1.23846e-09
8.40177e-08
1.23451e-09
8.40059e-08
1.23076e-09
8.39935e-08
1.2272e-09
8.39807e-08
1.22382e-09
8.39674e-08
1.22062e-09
8.39536e-08
1.21758e-09
8.39392e-08
1.21472e-09
8.39243e-08
1.21201e-09
8.39087e-08
1.20947e-09
8.38926e-08
1.20708e-09
8.38758e-08
1.20485e-09
8.38583e-08
1.20279e-09
8.38402e-08
1.20089e-09
8.38213e-08
1.19917e-09
8.38017e-08
1.19763e-09
8.37814e-08
1.19628e-09
8.37603e-08
1.19514e-09
8.37383e-08
1.19422e-09
8.37156e-08
1.19356e-09
8.3692e-08
1.19316e-09
8.36675e-08
1.19307e-09
8.36422e-08
1.19328e-09
8.36161e-08
1.19379e-09
8.35892e-08
1.19449e-09
8.35616e-08
1.19511e-09
8.35331e-08
1.195e-09
8.35023e-08
1.19294e-09
1.18764e-09
9.20542e-08
1.93092e-09
-9.19929e-08
9.21309e-08
2.04059e-09
9.222e-08
2.14112e-09
9.23179e-08
2.23021e-09
9.24208e-08
2.30612e-09
9.2525e-08
2.36789e-09
9.26272e-08
2.41525e-09
9.27245e-08
2.44852e-09
9.28149e-08
2.46847e-09
9.28965e-08
2.47619e-09
9.29685e-08
2.47307e-09
9.30304e-08
2.46059e-09
9.30821e-08
2.44032e-09
9.31242e-08
2.41374e-09
9.31572e-08
2.38227e-09
9.31821e-08
2.34716e-09
9.31998e-08
2.30949e-09
9.32113e-08
2.27018e-09
9.32177e-08
2.22997e-09
9.32199e-08
2.18944e-09
9.32185e-08
2.14905e-09
9.32145e-08
2.10911e-09
9.32083e-08
2.0699e-09
9.32005e-08
2.03157e-09
9.31915e-08
1.99424e-09
9.31817e-08
1.958e-09
9.31713e-08
1.9229e-09
9.31606e-08
1.88896e-09
9.31496e-08
1.85619e-09
9.31387e-08
1.8246e-09
9.31278e-08
1.79418e-09
9.3117e-08
1.76492e-09
9.31065e-08
1.7368e-09
9.30961e-08
1.7098e-09
9.30861e-08
1.6839e-09
9.30764e-08
1.65908e-09
9.3067e-08
1.6353e-09
9.3058e-08
1.61254e-09
9.30492e-08
1.59077e-09
9.30409e-08
1.56997e-09
9.30328e-08
1.55009e-09
9.30251e-08
1.53112e-09
9.30177e-08
1.51301e-09
9.30107e-08
1.49574e-09
9.30039e-08
1.47928e-09
9.29974e-08
1.46359e-09
9.29912e-08
1.44864e-09
9.29852e-08
1.43441e-09
9.29795e-08
1.42087e-09
9.2974e-08
1.40798e-09
9.29688e-08
1.39573e-09
9.29637e-08
1.38407e-09
9.29588e-08
1.37299e-09
9.29541e-08
1.36246e-09
9.29495e-08
1.35246e-09
9.2945e-08
1.34295e-09
9.29407e-08
1.33393e-09
9.29365e-08
1.32536e-09
9.29323e-08
1.31722e-09
9.29283e-08
1.3095e-09
9.29243e-08
1.30217e-09
9.29203e-08
1.29522e-09
9.29163e-08
1.28863e-09
9.29124e-08
1.28238e-09
9.29085e-08
1.27645e-09
9.29045e-08
1.27083e-09
9.29005e-08
1.2655e-09
9.28965e-08
1.26045e-09
9.28924e-08
1.25567e-09
9.28883e-08
1.25115e-09
9.2884e-08
1.24686e-09
9.28797e-08
1.24281e-09
9.28752e-08
1.23898e-09
9.28706e-08
1.23536e-09
9.28658e-08
1.23195e-09
9.28609e-08
1.22873e-09
9.28558e-08
1.2257e-09
9.28506e-08
1.22286e-09
9.28451e-08
1.2202e-09
9.28394e-08
1.21772e-09
9.28334e-08
1.21541e-09
9.28272e-08
1.21328e-09
9.28208e-08
1.21132e-09
9.2814e-08
1.20955e-09
9.28069e-08
1.20796e-09
9.27995e-08
1.20656e-09
9.27918e-08
1.20536e-09
9.27837e-08
1.20437e-09
9.27752e-08
1.20361e-09
9.27664e-08
1.20309e-09
9.27571e-08
1.20284e-09
9.27474e-08
1.20287e-09
9.27372e-08
1.20321e-09
9.27267e-08
1.20386e-09
9.27157e-08
1.2048e-09
9.27042e-08
1.20596e-09
9.26921e-08
1.20716e-09
9.2679e-08
1.2081e-09
9.26636e-08
1.20842e-09
1.20846e-09
1.01812e-07
1.88014e-09
-1.01761e-07
1.01875e-07
1.97792e-09
1.01947e-07
2.06853e-09
1.02027e-07
2.15022e-09
1.02112e-07
2.22155e-09
1.02198e-07
2.28154e-09
1.02284e-07
2.32974e-09
1.02366e-07
2.36613e-09
1.02443e-07
2.39109e-09
1.02514e-07
2.40528e-09
1.02578e-07
2.40961e-09
1.02633e-07
2.40515e-09
1.0268e-07
2.39306e-09
1.0272e-07
2.37451e-09
1.02751e-07
2.35064e-09
1.02776e-07
2.32253e-09
1.02794e-07
2.29114e-09
1.02807e-07
2.25735e-09
1.02815e-07
2.22186e-09
1.02819e-07
2.18532e-09
1.0282e-07
2.14821e-09
1.02818e-07
2.11094e-09
1.02814e-07
2.07384e-09
1.02809e-07
2.03716e-09
1.02802e-07
2.00109e-09