/*--------------------------------*- C++ -*----------------------------------*\
| =========                 |                                                 |
| \\      /  F ield         | OpenFOAM: The Open Source CFD Toolbox           |
|  \\    /   O peration     | Version:  2.3.0                                 |
|   \\  /    A nd           | Web:      www.OpenFOAM.org                      |
|    \\/     M anipulation  |                                                 |
\*---------------------------------------------------------------------------*/
FoamFile
{
    version     2.0;
    format      ascii;
    class       volVectorField;
    location    "1";
    object      U_0;
}
// * * * * * * * * * * * * * * * * * * * * * * * * * * * * * * * * * * * * * //

dimensions      [0 1 -1 0 0 0 0];

internalField   nonuniform List<vector> 
3375
(
(0.17565 0.00438975 0)
(0.15516 0.00597601 0)
(0.136582 0.00611696 0)
(0.118462 0.00551688 0)
(0.100942 0.00472094 0)
(0.0848886 0.00383691 0)
(0.0713688 0.00286954 0)
(0.0607867 0.00184848 0)
(0.0529432 0.000961763 0)
(0.0472936 0.00036328 0)
(0.0432678 4.60374e-05 0)
(0.0403932 -8.21541e-05 0)
(0.0382911 -0.000105373 0)
(0.036679 -7.94084e-05 0)
(0.0353562 -3.57755e-05 0)
(0.0341963 6.87224e-06 0)
(0.0331304 3.94928e-05 0)
(0.0321271 6.02539e-05 0)
(0.0311762 7.10135e-05 0)
(0.030276 7.47255e-05 0)
(0.0294278 7.40738e-05 0)
(0.0286315 7.10882e-05 0)
(0.0278863 6.70683e-05 0)
(0.0271893 6.27996e-05 0)
(0.0265373 5.86648e-05 0)
(0.0259262 5.48533e-05 0)
(0.0253525 5.13883e-05 0)
(0.0248122 4.82766e-05 0)
(0.0243023 4.54575e-05 0)
(0.0238196 4.29148e-05 0)
(0.023362 4.05834e-05 0)
(0.0229267 3.84598e-05 0)
(0.0225125 3.64866e-05 0)
(0.022117 3.46755e-05 0)
(0.0217397 3.2974e-05 0)
(0.0213782 3.14064e-05 0)
(0.0210326 2.99208e-05 0)
(0.0207006 2.85516e-05 0)
(0.0203826 2.72444e-05 0)
(0.0200764 2.60425e-05 0)
(0.0197827 2.48868e-05 0)
(0.0194992 2.3829e-05 0)
(0.019227 2.28033e-05 0)
(0.0189636 2.18707e-05 0)
(0.0187104 2.09572e-05 0)
(0.0184649 2.0134e-05 0)
(0.0182288 1.93173e-05 0)
(0.0179992 1.85897e-05 0)
(0.0177783 1.78563e-05 0)
(0.017563 1.72126e-05 0)
(0.0173558 1.65508e-05 0)
(0.0171533 1.59811e-05 0)
(0.0169585 1.53806e-05 0)
(0.0167675 1.48766e-05 0)
(0.016584 1.43285e-05 0)
(0.0164033 1.38833e-05 0)
(0.01623 1.33799e-05 0)
(0.0160587 1.29877e-05 0)
(0.0158948 1.25221e-05 0)
(0.015732 1.21783e-05 0)
(0.0155767 1.17442e-05 0)
(0.0154215 1.14454e-05 0)
(0.0152742 1.10372e-05 0)
(0.0151258 1.07805e-05 0)
(0.0149859 1.03931e-05 0)
(0.0148438 1.01765e-05 0)
(0.0147106 9.80469e-06 0)
(0.0145741 9.62706e-06 0)
(0.0144474 9.26608e-06 0)
(0.0143158 9.12694e-06 0)
(0.0141952 8.77209e-06 0)
(0.014068 8.67183e-06 0)
(0.0139531 8.3179e-06 0)
(0.0138298 8.25794e-06 0)
(0.0137205 7.89958e-06 0)
(0.0136005 7.88223e-06 0)
(0.0134964 7.51382e-06 0)
(0.0133792 7.54218e-06 0)
(0.0132804 7.1574e-06 0)
(0.0131652 7.2362e-06 0)
(0.0130717 6.82773e-06 0)
(0.012958 6.96319e-06 0)
(0.0128697 6.52236e-06 0)
(0.0127568 6.72277e-06 0)
(0.012674 6.23926e-06 0)
(0.0125611 6.51544e-06 0)
(0.0124839 5.97657e-06 0)
(0.01237 6.34261e-06 0)
(0.012299 5.73251e-06 0)
(0.012183 6.20754e-06 0)
(0.0121187 5.50512e-06 0)
(0.0119992 6.11558e-06 0)
(0.0119425 5.29225e-06 0)
(0.0118177 6.07647e-06 0)
(0.0117699 5.08992e-06 0)
(0.0116372 6.10996e-06 0)
(0.0116005 4.89015e-06 0)
(0.0114555 6.26194e-06 0)
(0.0114346 4.81265e-06 0)
(0.0112629 8.41404e-06 0)
(0.190872 0.007766 0)
(0.189122 0.0108484 0)
(0.186654 0.0118907 0)
(0.182822 0.0117134 0)
(0.177354 0.0110793 0)
(0.170468 0.0101893 0)
(0.16281 0.00903325 0)
(0.154876 0.00761045 0)
(0.147048 0.00608176 0)
(0.13955 0.00466981 0)
(0.132514 0.0035144 0)
(0.126038 0.00264184 0)
(0.120167 0.00201588 0)
(0.114905 0.00158864 0)
(0.110207 0.00130786 0)
(0.106001 0.00112466 0)
(0.102215 0.00100033 0)
(0.0987839 0.000908952 0)
(0.0956538 0.000835298 0)
(0.0927813 0.000771481 0)
(0.0901327 0.000713821 0)
(0.0876791 0.000660968 0)
(0.0853987 0.00061247 0)
(0.0832713 0.000568284 0)
(0.0812817 0.000528258 0)
(0.0794144 0.00049224 0)
(0.0776586 0.000459845 0)
(0.0760018 0.000430757 0)
(0.0744365 0.000404506 0)
(0.0729526 0.000380796 0)
(0.0715449 0.000359206 0)
(0.070205 0.000339535 0)
(0.0689297 0.000321444 0)
(0.0677117 0.000304832 0)
(0.0665492 0.000289421 0)
(0.0654355 0.000275188 0)
(0.0643703 0.000261893 0)
(0.0633471 0.000249571 0)
(0.0623667 0.000237996 0)
(0.0614225 0.000227249 0)
(0.0605166 0.000217103 0)
(0.0596419 0.000207677 0)
(0.0588018 0.000198735 0)
(0.0579887 0.000190431 0)
(0.0572071 0.000182512 0)
(0.0564487 0.000175168 0)
(0.0557193 0.000168124 0)
(0.0550099 0.000161606 0)
(0.0543274 0.000155312 0)
(0.0536617 0.000149511 0)
(0.0530215 0.000143863 0)
(0.0523952 0.000138684 0)
(0.0517933 0.000133595 0)
(0.0512024 0.000128962 0)
(0.0506353 0.000124357 0)
(0.0500765 0.000120204 0)
(0.0495412 0.00011602 0)
(0.0490112 0.000112293 0)
(0.0485051 0.000108474 0)
(0.0480014 0.000105128 0)
(0.047522 0.000101627 0)
(0.047042 9.86236e-05 0)
(0.0465874 9.5399e-05 0)
(0.0461289 9.27059e-05 0)
(0.0456973 8.97207e-05 0)
(0.0452582 8.73115e-05 0)
(0.044848 8.45319e-05 0)
(0.0444263 8.2385e-05 0)
(0.0440364 7.9781e-05 0)
(0.0436303 7.78794e-05 0)
(0.0432595 7.54235e-05 0)
(0.0428672 7.37543e-05 0)
(0.0425146 7.14195e-05 0)
(0.0421345 6.99748e-05 0)
(0.0417994 6.77353e-05 0)
(0.0414297 6.65109e-05 0)
(0.0411116 6.43422e-05 0)
(0.0407505 6.33376e-05 0)
(0.0404493 6.12146e-05 0)
(0.0400951 6.04348e-05 0)
(0.0398106 5.83311e-05 0)
(0.0394612 5.77864e-05 0)
(0.0391938 5.56734e-05 0)
(0.0388471 5.53807e-05 0)
(0.0385972 5.32269e-05 0)
(0.0382508 5.32106e-05 0)
(0.0380193 5.09804e-05 0)
(0.0376703 5.12743e-05 0)
(0.0374587 4.89259e-05 0)
(0.0371038 4.95771e-05 0)
(0.036914 4.70592e-05 0)
(0.0365489 4.81332e-05 0)
(0.0363838 4.5383e-05 0)
(0.036003 4.69699e-05 0)
(0.0358669 4.39095e-05 0)
(0.0354628 4.61389e-05 0)
(0.0353624 4.26836e-05 0)
(0.0349231 4.58269e-05 0)
(0.0348706 4.201e-05 0)
(0.0343725 5.07589e-05 0)
(0.191969 0.00748326 0)
(0.19239 0.010105 0)
(0.193458 0.0116603 0)
(0.194526 0.0121436 0)
(0.194946 0.0120338 0)
(0.194414 0.0115955 0)
(0.192954 0.0108578 0)
(0.190692 0.00984091 0)
(0.187789 0.00865599 0)
(0.184404 0.00747168 0)
(0.180684 0.0064204 0)
(0.176776 0.00555317 0)
(0.172803 0.00485771 0)
(0.168863 0.00430458 0)
(0.165006 0.00386043 0)
(0.161251 0.00349575 0)
(0.157608 0.00318776 0)
(0.154081 0.00292083 0)
(0.150671 0.00268488 0)
(0.147377 0.00247374 0)
(0.144203 0.00228347 0)
(0.141145 0.0021116 0)
(0.138205 0.00195624 0)
(0.13538 0.00181602 0)
(0.13267 0.00168952 0)
(0.130069 0.00157552 0)
(0.127577 0.00147263 0)
(0.125186 0.00137973 0)
(0.122894 0.00129556 0)
(0.120695 0.00121918 0)
(0.118586 0.00114953 0)
(0.11656 0.00108594 0)
(0.114616 0.00102754 0)
(0.112745 0.00097389 0)
(0.110948 0.00092429 0)
(0.109215 0.000878476 0)
(0.10755 0.000835871 0)
(0.105941 0.000796351 0)
(0.104394 0.000759412 0)
(0.102896 0.000725038 0)
(0.101454 0.000692765 0)
(0.100056 0.000662664 0)
(0.0987086 0.000634285 0)
(0.0973998 0.000607776 0)
(0.0961388 0.000582682 0)
(0.0949106 0.00055922 0)
(0.0937275 0.00053692 0)
(0.0925724 0.000516065 0)
(0.09146 0.000496158 0)
(0.0903711 0.000477548 0)
(0.0893234 0.000459703 0)
(0.0882945 0.000443041 0)
(0.0873059 0.000426981 0)
(0.0863317 0.000412019 0)
(0.0853973 0.000397512 0)
(0.0844729 0.000384039 0)
(0.0835885 0.00037089 0)
(0.0827094 0.000358732 0)
(0.0818712 0.000346772 0)
(0.0810334 0.00033578 0)
(0.0802381 0.000324866 0)
(0.0794378 0.000314913 0)
(0.0786824 0.00030492 0)
(0.0779163 0.000295899 0)
(0.0771983 0.000286718 0)
(0.0764631 0.000278537 0)
(0.0757803 0.000270071 0)
(0.0750729 0.000262653 0)
(0.0744234 0.000254818 0)
(0.073741 0.000248095 0)
(0.0731233 0.000240817 0)
(0.0724631 0.000234736 0)
(0.0718758 0.000227945 0)
(0.0712351 0.000222461 0)
(0.0706773 0.000216096 0)
(0.0700532 0.000211174 0)
(0.0695245 0.000205178 0)
(0.0689141 0.000200791 0)
(0.0684141 0.000195111 0)
(0.0678145 0.000191242 0)
(0.0673433 0.000185829 0)
(0.0667512 0.00018247 0)
(0.0663095 0.000177275 0)
(0.0657214 0.00017443 0)
(0.0653103 0.000169405 0)
(0.0647219 0.000167086 0)
(0.0643432 0.000162186 0)
(0.0637499 0.000160419 0)
(0.0634061 0.000155596 0)
(0.0628022 0.000154422 0)
(0.0624969 0.00014963 0)
(0.0618756 0.000149108 0)
(0.0616137 0.000144309 0)
(0.0609661 0.000144513 0)
(0.0607546 0.000139688 0)
(0.060069 0.00014073 0)
(0.059918 0.000135884 0)
(0.0591783 0.00013824 0)
(0.0591018 0.000133453 0)
(0.0582864 0.00014313 0)
(0.193005 0.00705875 0)
(0.19338 0.00895685 0)
(0.194453 0.0104398 0)
(0.196025 0.0111653 0)
(0.197609 0.0113019 0)
(0.198843 0.011084 0)
(0.199586 0.0106094 0)
(0.199815 0.00991875 0)
(0.199548 0.00907927 0)
(0.198824 0.00819849 0)
(0.197707 0.00737953 0)
(0.196281 0.00667962 0)
(0.194639 0.00610601 0)
(0.192853 0.00563666 0)
(0.190974 0.00524531 0)
(0.189025 0.00491053 0)
(0.187021 0.00461644 0)
(0.184969 0.00435207 0)
(0.182877 0.00410989 0)
(0.180749 0.00388521 0)
(0.178597 0.00367503 0)
(0.176423 0.00347774 0)
(0.17424 0.00329226 0)
(0.172052 0.0031181 0)
(0.16987 0.00295464 0)
(0.167696 0.00280154 0)
(0.16554 0.00265814 0)
(0.163402 0.00252399 0)
(0.161292 0.00239837 0)
(0.159208 0.00228084 0)
(0.157158 0.00217068 0)
(0.155138 0.00206752 0)
(0.153158 0.00197067 0)
(0.151211 0.00187987 0)
(0.149307 0.00179448 0)
(0.147437 0.00171433 0)
(0.145611 0.00163882 0)
(0.143819 0.00156785 0)
(0.142073 0.00150088 0)
(0.140359 0.00143787 0)
(0.138692 0.00137829 0)
(0.137054 0.00132219 0)
(0.135464 0.00126903 0)
(0.133901 0.00121893 0)
(0.132384 0.00117137 0)
(0.130892 0.00112651 0)
(0.129447 0.00108383 0)
(0.128022 0.00104355 0)
(0.126644 0.00100513 0)
(0.125283 0.00096886 0)
(0.12397 0.000934184 0)
(0.122669 0.000901447 0)
(0.121417 0.000870061 0)
(0.120171 0.00084044 0)
(0.118977 0.000811957 0)
(0.117784 0.000785094 0)
(0.116645 0.000759181 0)
(0.115501 0.000734768 0)
(0.114413 0.000711135 0)
(0.113314 0.000688906 0)
(0.112276 0.0006673 0)
(0.111219 0.000647024 0)
(0.110227 0.000627228 0)
(0.109209 0.000608704 0)
(0.108261 0.000590524 0)
(0.107279 0.000573577 0)
(0.106374 0.000556844 0)
(0.105423 0.000541322 0)
(0.10456 0.000525888 0)
(0.103638 0.000511657 0)
(0.102814 0.000497393 0)
(0.101918 0.000484338 0)
(0.101134 0.000471126 0)
(0.10026 0.00045915 0)
(0.099514 0.000446887 0)
(0.0986592 0.000435903 0)
(0.0979513 0.000424501 0)
(0.097112 0.000414435 0)
(0.0964425 0.000403816 0)
(0.0956148 0.000394609 0)
(0.0949845 0.000384702 0)
(0.094164 0.000376305 0)
(0.0935741 0.000367052 0)
(0.0927563 0.000359429 0)
(0.0922089 0.000350778 0)
(0.0913882 0.000343903 0)
(0.090886 0.000335816 0)
(0.0900563 0.000329675 0)
(0.0896031 0.000322125 0)
(0.0887569 0.000316716 0)
(0.0883577 0.000309695 0)
(0.0874861 0.000305033 0)
(0.0871477 0.000298551 0)
(0.0862397 0.000294683 0)
(0.0859705 0.000288762 0)
(0.0850126 0.000285859 0)
(0.0848236 0.000280449 0)
(0.0837993 0.000279363 0)
(0.0837032 0.00027449 0)
(0.0825941 0.000280894 0)
(0.193869 0.00676224 0)
(0.194215 0.00820788 0)
(0.195059 0.00948949 0)
(0.196374 0.0102702 0)
(0.197881 0.0105233 0)
(0.199281 0.0104052 0)
(0.200417 0.0100472 0)
(0.201243 0.0095205 0)
(0.201762 0.00887848 0)
(0.201982 0.00818977 0)
(0.201928 0.00752866 0)
(0.201642 0.00694752 0)
(0.201185 0.00646334 0)
(0.200605 0.00606537 0)
(0.199943 0.00573381 0)
(0.199212 0.00545087 0)
(0.198423 0.00520303 0)
(0.197575 0.00498073 0)
(0.19667 0.00477703 0)
(0.195705 0.00458732 0)
(0.194684 0.00440837 0)
(0.193605 0.00423837 0)
(0.192477 0.00407608 0)
(0.191296 0.00392095 0)
(0.190075 0.00377247 0)
(0.188809 0.00363046 0)
(0.187512 0.00349452 0)
(0.186177 0.00336449 0)
(0.184819 0.00323995 0)
(0.183432 0.00312077 0)
(0.182029 0.00300651 0)
(0.180604 0.00289709 0)
(0.179171 0.0027921 0)
(0.17772 0.0026915 0)
(0.176269 0.00259493 0)
(0.174805 0.00250237 0)
(0.173347 0.0024135 0)
(0.17188 0.00232832 0)
(0.170425 0.00224653 0)
(0.168963 0.00216816 0)
(0.16752 0.0020929 0)
(0.166071 0.00202082 0)
(0.164645 0.0019516 0)
(0.163214 0.00188532 0)
(0.161812 0.00182168 0)
(0.160404 0.00176075 0)
(0.159029 0.00170224 0)
(0.157648 0.00164622 0)
(0.156304 0.00159243 0)
(0.154952 0.00154093 0)
(0.153642 0.00149146 0)
(0.15232 0.0014441 0)
(0.151046 0.00139859 0)
(0.149755 0.001355 0)
(0.148517 0.00131311 0)
(0.147258 0.00127298 0)
(0.146058 0.0012344 0)
(0.14483 0.00119742 0)
(0.143668 0.00116186 0)
(0.14247 0.00112775 0)
(0.141346 0.00109495 0)
(0.140179 0.00106345 0)
(0.139093 0.00103318 0)
(0.137953 0.00100406 0)
(0.136906 0.000976096 0)
(0.135793 0.000949149 0)
(0.134783 0.000923298 0)
(0.133695 0.000898329 0)
(0.132724 0.000874418 0)
(0.131657 0.00085125 0)
(0.130725 0.000829126 0)
(0.129679 0.0008076 0)
(0.128786 0.000787124 0)
(0.127756 0.000767098 0)
(0.126902 0.000748148 0)
(0.125887 0.000729493 0)
(0.125074 0.000711966 0)
(0.124068 0.000694562 0)
(0.123298 0.000678373 0)
(0.122299 0.000662113 0)
(0.121572 0.00064719 0)
(0.120575 0.000631981 0)
(0.119895 0.000618268 0)
(0.118894 0.000604026 0)
(0.118263 0.000591486 0)
(0.117254 0.000578137 0)
(0.116676 0.000566752 0)
(0.115651 0.000554235 0)
(0.115132 0.000544006 0)
(0.114082 0.00053228 0)
(0.113627 0.000523224 0)
(0.112544 0.000512286 0)
(0.112161 0.000504427 0)
(0.111033 0.000494358 0)
(0.110731 0.000487677 0)
(0.109544 0.000478793 0)
(0.109333 0.000473149 0)
(0.108073 0.000466559 0)
(0.107965 0.000462101 0)
(0.106615 0.000462282 0)
(0.19459 0.00652791 0)
(0.194925 0.0076956 0)
(0.195621 0.00877583 0)
(0.196683 0.00952998 0)
(0.197956 0.00985311 0)
(0.199216 0.00981704 0)
(0.200311 0.00954277 0)
(0.201183 0.00911805 0)
(0.20183 0.00859797 0)
(0.202264 0.00803185 0)
(0.202506 0.00747313 0)
(0.202582 0.00696651 0)
(0.202538 0.00653365 0)
(0.202409 0.00617353 0)
(0.202231 0.00587324 0)
(0.202014 0.00561825 0)
(0.201773 0.00539654 0)
(0.2015 0.0051994 0)
(0.201199 0.00502051 0)
(0.20086 0.00485548 0)
(0.200489 0.00470115 0)
(0.200075 0.00455547 0)
(0.199628 0.004417 0)
(0.199138 0.00428487 0)
(0.198615 0.00415841 0)
(0.198048 0.00403722 0)
(0.197452 0.00392084 0)
(0.196813 0.00380896 0)
(0.196146 0.00370121 0)
(0.195438 0.0035973 0)
(0.194708 0.00349692 0)
(0.193936 0.00339982 0)
(0.193146 0.00330578 0)
(0.192317 0.00321461 0)
(0.191474 0.00312614 0)
(0.190593 0.00304023 0)
(0.189703 0.00295679 0)
(0.188776 0.00287568 0)
(0.187846 0.00279688 0)
(0.18688 0.00272024 0)
(0.185916 0.00264579 0)
(0.184916 0.00257337 0)
(0.183925 0.00250306 0)
(0.182899 0.00243465 0)
(0.181886 0.00236831 0)
(0.180838 0.00230374 0)
(0.17981 0.00224119 0)
(0.178745 0.0021803 0)
(0.177707 0.00212139 0)
(0.176629 0.00206403 0)
(0.175587 0.00200861 0)
(0.174501 0.0019546 0)
(0.173459 0.00190253 0)
(0.172368 0.00185172 0)
(0.171329 0.00180284 0)
(0.170237 0.00175506 0)
(0.169206 0.00170922 0)
(0.168114 0.00166431 0)
(0.167094 0.00162136 0)
(0.166004 0.00157915 0)
(0.164998 0.00153894 0)
(0.163913 0.00149928 0)
(0.162924 0.00146167 0)
(0.161843 0.00142438 0)
(0.160873 0.00138923 0)
(0.159797 0.00135416 0)
(0.15885 0.00132134 0)
(0.157779 0.00128833 0)
(0.156856 0.00125772 0)
(0.155789 0.00122662 0)
(0.154893 0.00119811 0)
(0.15383 0.00116876 0)
(0.152962 0.00114226 0)
(0.151901 0.00111453 0)
(0.151065 0.00108993 0)
(0.150003 0.00106368 0)
(0.149201 0.00104092 0)
(0.148137 0.00101603 0)
(0.147372 0.000995045 0)
(0.146303 0.00097138 0)
(0.145577 0.000952131 0)
(0.144498 0.000929578 0)
(0.143817 0.000912036 0)
(0.142724 0.00089049 0)
(0.142091 0.000874644 0)
(0.140979 0.000854008 0)
(0.140399 0.000839868 0)
(0.139261 0.000820066 0)
(0.13874 0.000807651 0)
(0.137568 0.000788645 0)
(0.137113 0.000777977 0)
(0.135899 0.000759794 0)
(0.135517 0.000750876 0)
(0.134252 0.000733675 0)
(0.133951 0.00072645 0)
(0.132622 0.000710665 0)
(0.132413 0.000705006 0)
(0.131007 0.000691786 0)
(0.130899 0.000688032 0)
(0.129403 0.000680532 0)
(0.19521 0.00631936 0)
(0.195531 0.00729016 0)
(0.196125 0.00819457 0)
(0.196994 0.00887682 0)
(0.198053 0.00922986 0)
(0.199143 0.00926606 0)
(0.200133 0.00907144 0)
(0.20095 0.00873104 0)
(0.201584 0.00830353 0)
(0.202042 0.00783156 0)
(0.202349 0.00735483 0)
(0.202523 0.00690889 0)
(0.202601 0.0065161 0)
(0.20261 0.00618201 0)
(0.202585 0.00590011 0)
(0.202534 0.00565954 0)
(0.202475 0.00545011 0)
(0.202401 0.00526403 0)
(0.20232 0.0050958 0)
(0.20222 0.00494153 0)
(0.202111 0.00479849 0)
(0.201977 0.00466465 0)
(0.201832 0.00453865 0)
(0.20166 0.00441936 0)
(0.201477 0.00430612 0)
(0.201264 0.00419824 0)
(0.201041 0.00409534 0)
(0.200786 0.00399683 0)
(0.200522 0.00390245 0)
(0.200223 0.00381163 0)
(0.199916 0.00372424 0)
(0.199573 0.00363971 0)
(0.199223 0.00355804 0)
(0.198834 0.00347868 0)
(0.198442 0.00340176 0)
(0.198009 0.00332673 0)
(0.197575 0.00325387 0)
(0.197097 0.00318256 0)
(0.196623 0.00311323 0)
(0.196102 0.00304521 0)
(0.195589 0.00297907 0)
(0.195027 0.00291403 0)
(0.194477 0.00285081 0)
(0.193876 0.00278853 0)
(0.193292 0.00272806 0)
(0.192653 0.00266837 0)
(0.192038 0.00261052 0)
(0.191364 0.00255329 0)
(0.190722 0.00249795 0)
(0.190015 0.00244309 0)
(0.189348 0.0023902 0)
(0.188611 0.0023376 0)
(0.187923 0.00228709 0)
(0.187158 0.0022367 0)
(0.186453 0.00218851 0)
(0.185662 0.00214024 0)
(0.184943 0.00209434 0)
(0.184129 0.00204811 0)
(0.183398 0.00200444 0)
(0.182563 0.00196019 0)
(0.181826 0.00191871 0)
(0.18097 0.00187634 0)
(0.180229 0.00183701 0)
(0.179356 0.00179646 0)
(0.178615 0.00175923 0)
(0.177724 0.0017204 0)
(0.176985 0.00168523 0)
(0.176078 0.00164803 0)
(0.175346 0.00161489 0)
(0.174423 0.00157921 0)
(0.173701 0.00154807 0)
(0.172761 0.00151383 0)
(0.172053 0.00148465 0)
(0.171096 0.00145174 0)
(0.170405 0.0014245 0)
(0.16943 0.00139282 0)
(0.168761 0.00136751 0)
(0.167766 0.00133695 0)
(0.167122 0.00131356 0)
(0.166106 0.00128404 0)
(0.16549 0.00126258 0)
(0.164451 0.00123397 0)
(0.163869 0.00121446 0)
(0.162802 0.0011867 0)
(0.162258 0.00116916 0)
(0.16116 0.00114217 0)
(0.160661 0.00112664 0)
(0.159525 0.00110037 0)
(0.159076 0.00108688 0)
(0.157899 0.00106134 0)
(0.157506 0.00104992 0)
(0.15628 0.0010252 0)
(0.155951 0.00101584 0)
(0.154667 0.00099218 0)
(0.154409 0.000984838 0)
(0.15306 0.000962734 0)
(0.152881 0.000957389 0)
(0.151457 0.000937914 0)
(0.151365 0.000935023 0)
(0.149856 0.000920195 0)
(0.19575 0.00612254 0)
(0.196054 0.00693975 0)
(0.196568 0.00769796 0)
(0.197291 0.00829595 0)
(0.198173 0.00864848 0)
(0.199105 0.00873915 0)
(0.199984 0.00861754 0)
(0.200733 0.00835327 0)
(0.201333 0.0080039 0)
(0.201781 0.00761029 0)
(0.202101 0.00720489 0)
(0.202305 0.00681534 0)
(0.202428 0.00646189 0)
(0.202486 0.0061532 0)
(0.202512 0.00588786 0)
(0.202513 0.00565862 0)
(0.20251 0.00545756 0)
(0.202493 0.00527786 0)
(0.202479 0.005115 0)
(0.20245 0.00496548 0)
(0.202424 0.00482725 0)
(0.20238 0.00469831 0)
(0.202338 0.00457765 0)
(0.202277 0.0044639 0)
(0.20222 0.00435663 0)
(0.202141 0.00425481 0)
(0.202067 0.00415835 0)
(0.201969 0.0040663 0)
(0.201878 0.00397875 0)
(0.201759 0.00389473 0)
(0.201648 0.00381452 0)
(0.201508 0.00373707 0)
(0.201377 0.00366286 0)
(0.201212 0.00359079 0)
(0.20106 0.00352153 0)
(0.20087 0.00345391 0)
(0.200695 0.0033888 0)
(0.200478 0.0033249 0)
(0.200279 0.00326332 0)
(0.200034 0.0032026 0)
(0.199811 0.00314408 0)
(0.199536 0.00308612 0)
(0.199288 0.00303033 0)
(0.198983 0.00297481 0)
(0.198711 0.00292146 0)
(0.198375 0.00286812 0)
(0.198078 0.00281701 0)
(0.19771 0.00276565 0)
(0.197389 0.00271664 0)
(0.19699 0.00266709 0)
(0.196646 0.00262004 0)
(0.196216 0.00257219 0)
(0.19585 0.00252702 0)
(0.195389 0.00248075 0)
(0.195002 0.00243738 0)
(0.194509 0.00239259 0)
(0.194104 0.00235099 0)
(0.19358 0.0023076 0)
(0.193158 0.00226772 0)
(0.192604 0.00222567 0)
(0.192167 0.00218748 0)
(0.191583 0.00214669 0)
(0.191133 0.00211019 0)
(0.19052 0.00207059 0)
(0.19006 0.00203577 0)
(0.189417 0.0019973 0)
(0.188949 0.00196415 0)
(0.188277 0.00192674 0)
(0.187805 0.00189527 0)
(0.187103 0.00185886 0)
(0.186629 0.00182908 0)
(0.185898 0.00179358 0)
(0.185426 0.00176552 0)
(0.184664 0.00173088 0)
(0.184197 0.00170454 0)
(0.183405 0.00167068 0)
(0.182945 0.00164611 0)
(0.182121 0.00161296 0)
(0.181674 0.00159019 0)
(0.180817 0.00155769 0)
(0.180386 0.00153676 0)
(0.179493 0.00150485 0)
(0.179083 0.00148581 0)
(0.178153 0.00145445 0)
(0.177767 0.00143735 0)
(0.176797 0.00140652 0)
(0.176441 0.0013914 0)
(0.175427 0.00136112 0)
(0.175106 0.00134804 0)
(0.174044 0.00131837 0)
(0.173763 0.00130735 0)
(0.17265 0.00127847 0)
(0.172414 0.00126951 0)
(0.171244 0.00124171 0)
(0.171059 0.00123483 0)
(0.169827 0.00120864 0)
(0.169699 0.00120395 0)
(0.168399 0.00118033 0)
(0.168334 0.00117829 0)
(0.16696 0.00115843 0)
(0.196225 0.00593277 0)
(0.196508 0.00662563 0)
(0.196957 0.0072654 0)
(0.197566 0.00778428 0)
(0.198305 0.00811953 0)
(0.199099 0.00824591 0)
(0.199871 0.00818635 0)
(0.20055 0.00799083 0)
(0.201112 0.00771032 0)
(0.201543 0.007384 0)
(0.201864 0.00704101 0)
(0.202083 0.0067037 0)
(0.20223 0.00638935 0)
(0.202314 0.00610727 0)
(0.202368 0.00585949 0)
(0.202391 0.00564192 0)
(0.202411 0.00544913 0)
(0.202414 0.00527537 0)
(0.202422 0.00511709 0)
(0.202414 0.00497107 0)
(0.202412 0.00483595 0)
(0.202393 0.0047097 0)
(0.202383 0.0045918 0)
(0.202353 0.00448061 0)
(0.202335 0.00437611 0)
(0.202296 0.00427683 0)
(0.202271 0.00418316 0)
(0.202223 0.00409366 0)
(0.202192 0.00400898 0)
(0.202135 0.00392761 0)
(0.202097 0.00385044 0)
(0.202031 0.00377583 0)
(0.201986 0.00370491 0)
(0.201909 0.00363591 0)
(0.201856 0.00357023 0)
(0.201767 0.00350593 0)
(0.201707 0.0034447 0)
(0.201605 0.00338437 0)
(0.201536 0.00332697 0)
(0.201419 0.00327004 0)
(0.20134 0.00321596 0)
(0.201208 0.00316197 0)
(0.201118 0.00311083 0)
(0.200969 0.00305942 0)
(0.200868 0.0030109 0)
(0.2007 0.00296175 0)
(0.200586 0.00291561 0)
(0.200398 0.00286846 0)
(0.200273 0.00282448 0)
(0.200063 0.00277912 0)
(0.199925 0.00273714 0)
(0.199693 0.00269338 0)
(0.199542 0.00265326 0)
(0.199286 0.00261095 0)
(0.199122 0.00257257 0)
(0.198842 0.00253156 0)
(0.198665 0.00249485 0)
(0.198359 0.00245501 0)
(0.19817 0.00241989 0)
(0.197837 0.00238112 0)
(0.197636 0.00234754 0)
(0.197276 0.00230973 0)
(0.197065 0.00227766 0)
(0.196676 0.00224072 0)
(0.196455 0.00221013 0)
(0.196038 0.00217398 0)
(0.195808 0.00214484 0)
(0.19536 0.0021094 0)
(0.195124 0.00208173 0)
(0.194645 0.00204692 0)
(0.194404 0.00202073 0)
(0.193894 0.00198647 0)
(0.193649 0.00196176 0)
(0.193106 0.001928 0)
(0.19286 0.0019048 0)
(0.192283 0.00187148 0)
(0.192039 0.00184982 0)
(0.191426 0.00181688 0)
(0.191185 0.00179679 0)
(0.190536 0.00176422 0)
(0.190303 0.00174574 0)
(0.189616 0.00171349 0)
(0.189391 0.00169668 0)
(0.188665 0.00166475 0)
(0.188452 0.00164964 0)
(0.187685 0.00161806 0)
(0.187488 0.0016047 0)
(0.186677 0.00157355 0)
(0.186499 0.00156197 0)
(0.185643 0.00153138 0)
(0.185487 0.00152161 0)
(0.184582 0.00149179 0)
(0.184452 0.00148386 0)
(0.183497 0.00145515 0)
(0.183395 0.00144912 0)
(0.182387 0.00142207 0)
(0.182318 0.00141814 0)
(0.181254 0.00139361 0)
(0.181219 0.0013922 0)
(0.180097 0.0013708 0)
(0.196643 0.00574971 0)
(0.196905 0.00634094 0)
(0.1973 0.00688572 0)
(0.197818 0.00733604 0)
(0.198444 0.00764681 0)
(0.199118 0.00779315 0)
(0.199793 0.00778242 0)
(0.200402 0.00764682 0)
(0.200923 0.00742753 0)
(0.201333 0.00716002 0)
(0.201651 0.00687164 0)
(0.201876 0.00658162 0)
(0.20204 0.00630485 0)
(0.202142 0.00604993 0)
(0.202216 0.00582094 0)
(0.202255 0.0056161 0)
(0.20229 0.00543249 0)
(0.202305 0.00526538 0)
(0.202324 0.00511232 0)
(0.202324 0.00497019 0)
(0.202333 0.00483833 0)
(0.202323 0.00471459 0)
(0.202323 0.00459903 0)
(0.202303 0.00448969 0)
(0.202298 0.00438707 0)
(0.20227 0.00428925 0)
(0.20226 0.00419713 0)
(0.202227 0.00410878 0)
(0.202214 0.00402544 0)
(0.202175 0.00394504 0)
(0.20216 0.00386911 0)
(0.202116 0.00379539 0)
(0.202099 0.00372574 0)
(0.20205 0.00365766 0)
(0.202032 0.00359336 0)
(0.201977 0.00353006 0)
(0.201958 0.00347035 0)
(0.201897 0.00341115 0)
(0.201877 0.00335545 0)
(0.201809 0.00329981 0)
(0.201787 0.00324765 0)
(0.201712 0.00319512 0)
(0.201688 0.00314612 0)
(0.201604 0.00309633 0)
(0.201578 0.00305018 0)
(0.201485 0.00300281 0)
(0.201455 0.00295926 0)
(0.201351 0.00291405 0)
(0.201318 0.00287287 0)
(0.201203 0.00282959 0)
(0.201166 0.00279059 0)
(0.201038 0.00274904 0)
(0.200997 0.00271208 0)
(0.200854 0.00267206 0)
(0.200809 0.00263701 0)
(0.200651 0.00259836 0)
(0.200602 0.0025651 0)
(0.200426 0.00252768 0)
(0.200372 0.00249611 0)
(0.200178 0.00245977 0)
(0.20012 0.00242981 0)
(0.199906 0.00239444 0)
(0.199843 0.00236603 0)
(0.199609 0.0023315 0)
(0.199541 0.00230459 0)
(0.199285 0.0022708 0)
(0.199213 0.00224533 0)
(0.198934 0.00221218 0)
(0.198858 0.00218814 0)
(0.198554 0.00215554 0)
(0.198475 0.00213291 0)
(0.198145 0.00210077 0)
(0.198064 0.00207952 0)
(0.197707 0.0020478 0)
(0.197624 0.00202793 0)
(0.197238 0.00199655 0)
(0.197155 0.00197806 0)
(0.19674 0.00194699 0)
(0.196657 0.00192989 0)
(0.196211 0.0018991 0)
(0.196129 0.0018834 0)
(0.195651 0.00185288 0)
(0.195573 0.0018386 0)
(0.195061 0.00180839 0)
(0.194987 0.00179554 0)
(0.194441 0.00176569 0)
(0.194372 0.00175428 0)
(0.19379 0.0017249 0)
(0.193728 0.00171495 0)
(0.19311 0.0016862 0)
(0.193056 0.00167774 0)
(0.192399 0.00164986 0)
(0.192354 0.00164293 0)
(0.191659 0.00161626 0)
(0.191625 0.00161097 0)
(0.190889 0.00158604 0)
(0.190866 0.00158266 0)
(0.190089 0.00156021 0)
(0.190079 0.00155907 0)
(0.189261 0.00153941 0)
(0.197015 0.00557408 0)
(0.197256 0.00608221 0)
(0.197604 0.00655028 0)
(0.198049 0.00694278 0)
(0.198582 0.00722717 0)
(0.199157 0.00738199 0)
(0.199743 0.00740706 0)
(0.200285 0.00732129 0)
(0.200763 0.00715559 0)
(0.20115 0.00693991 0)
(0.20146 0.00669957 0)
(0.201688 0.00645188 0)
(0.201861 0.00621024 0)
(0.201977 0.00598219 0)
(0.202066 0.00577283 0)
(0.202119 0.00558186 0)
(0.202167 0.00540848 0)
(0.20219 0.005249 0)
(0.202218 0.00510206 0)
(0.202226 0.00496463 0)
(0.202242 0.00483667 0)
(0.202237 0.0047159 0)
(0.202243 0.00460296 0)
(0.202228 0.00449561 0)
(0.202228 0.00439488 0)
(0.202206 0.00429842 0)
(0.202201 0.00420769 0)
(0.202173 0.00412024 0)
(0.202166 0.00403789 0)
(0.202133 0.00395805 0)
(0.202125 0.00388286 0)
(0.202088 0.00380949 0)
(0.20208 0.00374043 0)
(0.202039 0.00367257 0)
(0.202031 0.0036088 0)
(0.201988 0.00354565 0)
(0.20198 0.00348647 0)
(0.201933 0.00342742 0)
(0.201927 0.00337229 0)
(0.201877 0.00331681 0)
(0.201872 0.0032653 0)
(0.201818 0.00321299 0)
(0.201815 0.00316473 0)
(0.201756 0.00311524 0)
(0.201754 0.00306995 0)
(0.201691 0.00302299 0)
(0.201691 0.00298042 0)
(0.201622 0.00293572 0)
(0.201623 0.00289567 0)
(0.201548 0.00285302 0)
(0.20155 0.0028153 0)
(0.201469 0.00277451 0)
(0.201472 0.00273897 0)
(0.201382 0.00269985 0)
(0.201386 0.00266637 0)
(0.201288 0.00262874 0)
(0.201293 0.00259719 0)
(0.201186 0.00256092 0)
(0.201191 0.00253118 0)
(0.201073 0.00249614 0)
(0.201078 0.00246813 0)
(0.200949 0.00243416 0)
(0.200954 0.00240782 0)
(0.200812 0.00237481 0)
(0.200818 0.00235004 0)
(0.200661 0.00231791 0)
(0.200667 0.00229463 0)
(0.200496 0.00226325 0)
(0.200502 0.00224145 0)
(0.200315 0.00221072 0)
(0.20032 0.00219033 0)
(0.200116 0.0021602 0)
(0.200121 0.00214116 0)
(0.199899 0.00211156 0)
(0.199904 0.00209385 0)
(0.199663 0.00206471 0)
(0.199668 0.0020483 0)
(0.199406 0.0020196 0)
(0.199411 0.00200445 0)
(0.199128 0.00197618 0)
(0.199133 0.00196229 0)
(0.198828 0.00193443 0)
(0.198833 0.00192177 0)
(0.198505 0.00189439 0)
(0.198511 0.00188294 0)
(0.198159 0.00185609 0)
(0.198164 0.00184586 0)
(0.197788 0.00181966 0)
(0.197794 0.00181064 0)
(0.197392 0.00178526 0)
(0.197398 0.00177748 0)
(0.196971 0.00175315 0)
(0.196976 0.00174667 0)
(0.196523 0.00172372 0)
(0.196528 0.00171869 0)
(0.196048 0.00169759 0)
(0.196053 0.0016943 0)
(0.195547 0.00167567 0)
(0.19555 0.00167442 0)
(0.195018 0.00165843 0)
(0.197346 0.00540662 0)
(0.197566 0.00584657 0)
(0.197875 0.00625193 0)
(0.19826 0.0065959 0)
(0.198716 0.00685457 0)
(0.199209 0.00701038 0)
(0.199718 0.00706016 0)
(0.200196 0.00701408 0)
(0.20063 0.00689415 0)
(0.200991 0.00672402 0)
(0.20129 0.00652622 0)
(0.201517 0.00631641 0)
(0.201696 0.00610712 0)
(0.201821 0.00590502 0)
(0.201922 0.00571561 0)
(0.201986 0.00553942 0)
(0.202043 0.00537727 0)
(0.202076 0.00522635 0)
(0.202111 0.00508636 0)
(0.202125 0.00495441 0)
(0.202146 0.00483104 0)
(0.202147 0.00471384 0)
(0.202158 0.00460396 0)
(0.202148 0.00449897 0)
(0.202151 0.00440036 0)
(0.202133 0.00430551 0)
(0.202131 0.00421627 0)
(0.202107 0.00412987 0)
(0.202102 0.00404855 0)
(0.202073 0.00396935 0)
(0.202067 0.00389484 0)
(0.202035 0.00382181 0)
(0.202028 0.00375321 0)
(0.201993 0.00368549 0)
(0.201986 0.00362201 0)
(0.201948 0.00355887 0)
(0.201943 0.00349989 0)
(0.201903 0.00344076 0)
(0.201899 0.00338577 0)
(0.201856 0.00333018 0)
(0.201854 0.00327877 0)
(0.201809 0.00322633 0)
(0.201809 0.00317818 0)
(0.201762 0.00312858 0)
(0.201765 0.00308341 0)
(0.201715 0.00303636 0)
(0.20172 0.00299396 0)
(0.201667 0.00294923 0)
(0.201675 0.00290938 0)
(0.201619 0.00286677 0)
(0.201629 0.00282931 0)
(0.20157 0.00278864 0)
(0.201583 0.00275342 0)
(0.20152 0.00271452 0)
(0.201535 0.00268143 0)
(0.201468 0.00264413 0)
(0.201486 0.00261303 0)
(0.201414 0.00257722 0)
(0.201434 0.002548 0)
(0.201357 0.00251354 0)
(0.20138 0.00248612 0)
(0.201296 0.00245287 0)
(0.201321 0.00242717 0)
(0.201231 0.00239505 0)
(0.201258 0.00237095 0)
(0.20116 0.00233987 0)
(0.201189 0.0023173 0)
(0.201084 0.00228715 0)
(0.201114 0.00226608 0)
(0.201 0.00223676 0)
(0.201032 0.0022171 0)
(0.200909 0.00218857 0)
(0.200942 0.00217025 0)
(0.200809 0.00214244 0)
(0.200843 0.00212543 0)
(0.200698 0.0020983 0)
(0.200733 0.00208252 0)
(0.200578 0.00205606 0)
(0.200613 0.00204147 0)
(0.200445 0.00201565 0)
(0.20048 0.00200223 0)
(0.2003 0.00197706 0)
(0.200334 0.00196477 0)
(0.20014 0.00194031 0)
(0.200174 0.0019291 0)
(0.199967 0.00190542 0)
(0.199999 0.0018953 0)
(0.199777 0.00187249 0)
(0.199807 0.00186346 0)
(0.199571 0.00184169 0)
(0.199598 0.00183379 0)
(0.199347 0.00181326 0)
(0.19937 0.00180657 0)
(0.199104 0.00178758 0)
(0.199123 0.00178228 0)
(0.198842 0.00176524 0)
(0.198856 0.00176166 0)
(0.198559 0.00174705 0)
(0.198567 0.00174545 0)
(0.198255 0.00173344 0)