/*--------------------------------*- C++ -*----------------------------------*\
| =========                 |                                                 |
| \\      /  F ield         | OpenFOAM: The Open Source CFD Toolbox           |
|  \\    /   O peration     | Version:  2.3.0                                 |
|   \\  /    A nd           | Web:      www.OpenFOAM.org                      |
|    \\/     M anipulation  |                                                 |
\*---------------------------------------------------------------------------*/
FoamFile
{
    version     2.0;
    format      ascii;
    class       volScalarField;
    location    "0.2";
    object      p;
}
// * * * * * * * * * * * * * * * * * * * * * * * * * * * * * * * * * * * * * //

dimensions      [0 2 -2 0 0 0 0];

internalField   nonuniform List<scalar> 
5940
(
0.00296399
0.00264017
0.00193905
0.00125384
0.000692052
0.000235887
-0.000132935
-0.000408314
-0.000581642
-0.000663125
-0.000678975
-0.000657923
-0.000622084
-0.000584909
-0.000552869
-0.000527881
-0.000509439
-0.000496084
-0.000486251
-0.000478644
-0.000472351
-0.0004668
-0.000461668
-0.000456783
-0.000452063
-0.000447472
-0.000442997
-0.000438633
-0.00043438
-0.000430239
-0.000426211
-0.000422302
-0.000418513
-0.00041484
-0.000411273
-0.000407799
-0.000404403
-0.000401072
-0.000397799
-0.000394579
-0.00039141
-0.00038829
-0.000385214
-0.000382174
-0.000379158
-0.000376153
-0.000373147
-0.000370128
-0.000367085
-0.000364005
-0.000360876
-0.000357681
-0.000354401
-0.000351015
-0.000347504
-0.000343848
-0.000340025
-0.000336014
-0.000331792
-0.000327334
-0.000322616
-0.000317612
-0.0003123
-0.000306653
-0.00030065
-0.000294269
-0.000287493
-0.000280305
-0.000272696
-0.000264665
-0.000256226
-0.000247401
-0.000238223
-0.000228726
-0.000219001
-0.000209141
-0.000199217
-0.000189334
-0.000179574
-0.000170024
-0.000160763
-0.000151848
-0.000143328
-0.00013523
-0.000127569
-0.000120344
-0.000113542
-0.000107139
-0.00010111
-9.54261e-05
-9.00581e-05
-8.49782e-05
-8.01609e-05
-7.55838e-05
-7.12273e-05
-6.70758e-05
-6.31174e-05
-5.93427e-05
-5.57439e-05
-5.23144e-05
-4.9048e-05
-4.59389e-05
-4.29821e-05
-4.0173e-05
-3.75075e-05
-3.49821e-05
-3.2593e-05
-3.03364e-05
-2.82074e-05
-2.62013e-05
-2.43126e-05
-2.25361e-05
-2.08669e-05
-1.93008e-05
-1.78339e-05
-1.6463e-05
-1.51849e-05
-1.39963e-05
-1.28936e-05
-1.18728e-05
-1.09294e-05
-1.00585e-05
-9.25486e-06
-8.51343e-06
-7.82882e-06
-7.19631e-06
-6.61102e-06
-6.06895e-06
-5.56599e-06
-5.09891e-06
-4.66438e-06
-4.2599e-06
-3.88268e-06
-3.53085e-06
-3.20195e-06
-2.89468e-06
-2.60663e-06
-2.33715e-06
-2.08362e-06
-1.84601e-06
-1.62174e-06
-1.41059e-06
-1.21131e-06
-1.0219e-06
-8.43437e-07
-6.72765e-07
-5.11136e-07
-3.56329e-07
-2.09921e-07
-6.61952e-08
0.00243585
0.00225067
0.00177149
0.00120386
0.000689593
0.000263275
-7.82732e-05
-0.000333901
-0.000501792
-0.000589839
-0.000617677
-0.000609277
-0.000584644
-0.000556457
-0.00053115
-0.000510905
-0.000495663
-0.000484446
-0.000476077
-0.000469529
-0.000464054
-0.000459179
-0.000454632
-0.000450268
-0.000446018
-0.000441851
-0.00043776
-0.000433745
-0.000429806
-0.000425948
-0.000422177
-0.000418503
-0.00041493
-0.000411457
-0.000408077
-0.000404776
-0.000401542
-0.000398362
-0.00039523
-0.000392142
-0.000389097
-0.000386096
-0.000383133
-0.000380202
-0.000377289
-0.000374384
-0.000371473
-0.000368544
-0.000365588
-0.000362594
-0.000359547
-0.000356431
-0.000353228
-0.000349918
-0.00034648
-0.000342895
-0.000339141
-0.000335198
-0.000331043
-0.000326651
-0.000321996
-0.000317055
-0.000311804
-0.000306218
-0.000300273
-0.000293949
-0.000287227
-0.000280091
-0.000272529
-0.000264542
-0.000256145
-0.000247359
-0.000238213
-0.000228763
-0.000219067
-0.000209232
-0.000199318
-0.00018944
-0.000179681
-0.000170128
-0.000160862
-0.000151942
-0.000143416
-0.000135312
-0.000127645
-0.000120416
-0.00011361
-0.000107204
-0.000101173
-9.54867e-05
-9.0117e-05
-8.50356e-05
-8.02168e-05
-7.56384e-05
-7.12804e-05
-6.71272e-05
-6.3167e-05
-5.93903e-05
-5.57895e-05
-5.2358e-05
-4.90896e-05
-4.59785e-05
-4.30196e-05
-4.02083e-05
-3.75407e-05
-3.50132e-05
-3.26221e-05
-3.03635e-05
-2.82328e-05
-2.6225e-05
-2.43347e-05
-2.25566e-05
-2.0886e-05
-1.93184e-05
-1.78501e-05
-1.64778e-05
-1.51983e-05
-1.40086e-05
-1.29047e-05
-1.1883e-05
-1.09387e-05
-1.00671e-05
-9.2628e-06
-8.5208e-06
-7.83567e-06
-7.20272e-06
-6.617e-06
-6.07454e-06
-5.57121e-06
-5.10379e-06
-4.66892e-06
-4.26413e-06
-3.8866e-06
-3.53448e-06
-3.20531e-06
-2.89779e-06
-2.60948e-06
-2.33979e-06
-2.08602e-06
-1.84823e-06
-1.62378e-06
-1.41238e-06
-1.21304e-06
-1.02334e-06
-8.44828e-07
-6.73972e-07
-5.12235e-07
-3.57308e-07
-2.11081e-07
-6.70466e-08
0.00205882
0.00193861
0.00161709
0.00116781
0.000714857
0.000324593
1.20932e-05
-0.000224602
-0.000389602
-0.000489441
-0.000536469
-0.000547516
-0.000539063
-0.000523184
-0.000506496
-0.00049189
-0.000480183
-0.000471179
-0.000464265
-0.00045877
-0.000454143
-0.000450014
-0.000446156
-0.000442441
-0.000438801
-0.000435201
-0.000431629
-0.000428082
-0.000424563
-0.00042108
-0.000417644
-0.00041427
-0.000410967
-0.00040774
-0.000404583
-0.000401488
-0.00039844
-0.000395432
-0.000392457
-0.000389514
-0.000386605
-0.00038373
-0.000380888
-0.00037807
-0.000375267
-0.000372464
-0.000369651
-0.000366816
-0.000363949
-0.00036104
-0.000358076
-0.000355042
-0.000351917
-0.000348683
-0.00034532
-0.000341806
-0.000338123
-0.00033425
-0.000330162
-0.000325837
-0.000321248
-0.00031637
-0.000311182
-0.000305657
-0.000299772
-0.000293506
-0.000286842
-0.000279761
-0.000272252
-0.000264313
-0.00025596
-0.000247212
-0.000238095
-0.000228664
-0.000219
-0.000209171
-0.000199271
-0.000189412
-0.000179667
-0.00017012
-0.000160858
-0.00015194
-0.000143415
-0.000135313
-0.000127646
-0.000120419
-0.000113614
-0.000107211
-0.000101181
-9.54976e-05
-9.01301e-05
-8.50507e-05
-8.02335e-05
-7.56566e-05
-7.12995e-05
-6.71468e-05
-6.31867e-05
-5.94098e-05
-5.58087e-05
-5.23767e-05
-4.91077e-05
-4.5996e-05
-4.30362e-05
-4.0224e-05
-3.75553e-05
-3.50266e-05
-3.26344e-05
-3.03748e-05
-2.82432e-05
-2.62346e-05
-2.43436e-05
-2.25648e-05
-2.08933e-05
-1.93249e-05
-1.78558e-05
-1.64827e-05
-1.52024e-05
-1.4012e-05
-1.29076e-05
-1.18855e-05
-1.09409e-05
-1.00691e-05
-9.26474e-06
-8.52272e-06
-7.83759e-06
-7.20466e-06
-6.61895e-06
-6.0765e-06
-5.57315e-06
-5.1057e-06
-4.67077e-06
-4.26593e-06
-3.88831e-06
-3.53614e-06
-3.20687e-06
-2.8993e-06
-2.61086e-06
-2.34114e-06
-2.08724e-06
-1.8494e-06
-1.62488e-06
-1.41334e-06
-1.21404e-06
-1.02411e-06
-8.45605e-07
-6.74619e-07
-5.12708e-07
-3.57685e-07
-2.1137e-07
-6.71103e-08
0.00180637
0.00170841
0.00147708
0.00112681
0.000740789
0.000390092
0.000103582
-0.000116782
-0.000276993
-0.000383753
-0.000445571
-0.000473896
-0.00048122
-0.000477931
-0.000470682
-0.000462954
-0.00045621
-0.000450798
-0.000446535
-0.000443066
-0.000440055
-0.000437265
-0.000434553
-0.000431839
-0.000429085
-0.000426276
-0.00042341
-0.000420492
-0.000417532
-0.000414545
-0.000411549
-0.000408566
-0.000405616
-0.000402709
-0.000399846
-0.000397018
-0.000394216
-0.000391431
-0.00038866
-0.000385904
-0.000383169
-0.000380456
-0.000377766
-0.000375092
-0.000372423
-0.000369748
-0.000367054
-0.000364332
-0.000361572
-0.000358765
-0.0003559
-0.000352961
-0.000349929
-0.000346784
-0.000343507
-0.000340078
-0.000336477
-0.000332684
-0.000328676
-0.000324429
-0.000319917
-0.000315116
-0.000310002
-0.000304552
-0.00029874
-0.000292546
-0.000285954
-0.000278943
-0.000271503
-0.000263632
-0.000255344
-0.00024666
-0.000237606
-0.000228234
-0.000218623
-0.000208839
-0.000198994
-0.000189167
-0.000179456
-0.00016994
-0.000160711
-0.000151818
-0.000143313
-0.00013523
-0.000127578
-0.000120363
-0.000113568
-0.000107172
-0.00010115
-9.54726e-05
-9.01106e-05
-8.5036e-05
-8.02226e-05
-7.56495e-05
-7.12955e-05
-6.71453e-05
-6.31873e-05
-5.94122e-05
-5.58126e-05
-5.23819e-05
-4.9114e-05
-4.60032e-05
-4.3044e-05
-4.02319e-05
-3.75632e-05
-3.50343e-05
-3.26418e-05
-3.03818e-05
-2.825e-05
-2.62411e-05
-2.43497e-05
-2.25704e-05
-2.08984e-05
-1.93293e-05
-1.78593e-05
-1.64854e-05
-1.52045e-05
-1.40134e-05
-1.29086e-05
-1.18861e-05
-1.09414e-05
-1.00696e-05
-9.26527e-06
-8.52339e-06
-7.83842e-06
-7.20567e-06
-6.62011e-06
-6.07779e-06
-5.57453e-06
-5.10716e-06
-4.67227e-06
-4.26746e-06
-3.88983e-06
-3.53767e-06
-3.20834e-06
-2.90078e-06
-2.61227e-06
-2.34256e-06
-2.08856e-06
-1.85072e-06
-1.62615e-06
-1.4145e-06
-1.21524e-06
-1.02511e-06
-8.4654e-07
-6.75469e-07
-5.13178e-07
-3.5807e-07
-2.11188e-07
-6.66444e-08
0.0016143
0.00152523
0.00134437
0.00106897
0.000747523
0.000439169
0.000178349
-2.67899e-05
-0.00018047
-0.000289244
-0.000359884
-0.00040051
-0.000420338
-0.000427822
-0.000429157
-0.000428081
-0.000426461
-0.000425006
-0.000423825
-0.000422801
-0.000421776
-0.000420639
-0.000419334
-0.000417845
-0.000416176
-0.000414338
-0.000412345
-0.000410213
-0.00040796
-0.000405606
-0.00040318
-0.000400708
-0.000398219
-0.000395728
-0.000393242
-0.00039076
-0.000388274
-0.000385778
-0.000383271
-0.000380756
-0.00037824
-0.000375731
-0.000373229
-0.000370732
-0.000368229
-0.000365709
-0.00036316
-0.000360572
-0.00035794
-0.000355254
-0.000352504
-0.000349676
-0.000346751
-0.00034371
-0.000340532
-0.0003372
-0.000333695
-0.000329997
-0.000326083
-0.000321929
-0.000317511
-0.000312803
-0.000307782
-0.000302425
-0.000296708
-0.000290611
-0.000284116
-0.000277206
-0.000269868
-0.000262103
-0.000253924
-0.000245352
-0.000236414
-0.000227161
-0.000217662
-0.000207989
-0.000198256
-0.00018854
-0.000178913
-0.000169488
-0.000160334
-0.000151509
-0.000143058
-0.000135019
-0.0001274
-0.00012022
-0.00011345
-0.000107074
-0.000101067
-9.54012e-05
-9.0049e-05
-8.49834e-05
-8.01773e-05
-7.56118e-05
-7.12636e-05
-6.7119e-05
-6.31662e-05
-5.9396e-05
-5.5801e-05
-5.23746e-05
-4.91106e-05
-4.60032e-05
-4.3047e-05
-4.02373e-05
-3.75703e-05
-3.50428e-05
-3.26514e-05
-3.03923e-05
-2.8261e-05
-2.62526e-05
-2.43614e-05
-2.25821e-05
-2.09097e-05
-1.93399e-05
-1.7869e-05
-1.64941e-05
-1.52121e-05
-1.402e-05
-1.29143e-05
-1.18912e-05
-1.09459e-05
-1.00737e-05
-9.26917e-06
-8.52716e-06
-7.84211e-06
-7.20932e-06
-6.62373e-06
-6.08139e-06
-5.57809e-06
-5.11068e-06
-4.67572e-06
-4.27084e-06
-3.89312e-06
-3.54089e-06
-3.21145e-06
-2.90382e-06
-2.61519e-06
-2.34542e-06
-2.09129e-06
-1.85338e-06
-1.6287e-06
-1.41691e-06
-1.21757e-06
-1.02727e-06
-8.48441e-07
-6.77296e-07
-5.14363e-07
-3.59093e-07
-2.11159e-07
-6.60427e-08
0.00145483
0.0013712
0.00122113
0.00100008
0.000735415
0.00046973
0.000235471
4.55492e-05
-0.000100583
-0.000208244
-0.00028336
-0.000332181
-0.000361492
-0.000377885
-0.000386735
-0.000391703
-0.000394869
-0.000397195
-0.000399019
-0.000400413
-0.000401371
-0.000401895
-0.000402012
-0.000401764
-0.000401196
-0.000400344
-0.000399242
-0.00039792
-0.000396406
-0.000394726
-0.000392912
-0.000390995
-0.000389007
-0.00038697
-0.0003849
-0.000382798
-0.000380661
-0.000378487
-0.000376276
-0.000374033
-0.000371765
-0.000369484
-0.000367193
-0.00036489
-0.000362569
-0.000360218
-0.000357827
-0.000355387
-0.000352891
-0.000350334
-0.000347706
-0.000344994
-0.000342181
-0.000339248
-0.000336175
-0.000332945
-0.000329541
-0.000325942
-0.000322129
-0.000318077
-0.000313762
-0.000309159
-0.000304246
-0.000299
-0.000293398
-0.00028742
-0.000281051
-0.000274273
-0.000267076
-0.00025946
-0.000251441
-0.000243036
-0.000234274
-0.000225202
-0.00021589
-0.000206415
-0.000196869
-0.000187325
-0.000177862
-0.000168591
-0.000159585
-0.000150889
-0.000142547
-0.000134591
-0.000127053
-0.000119923
-0.0001132
-0.000106861
-0.000100882
-9.52393e-05
-8.99054e-05
-8.48551e-05
-8.00613e-05
-7.55108e-05
-7.1175e-05
-6.70417e-05
-6.30996e-05
-5.93398e-05
-5.57546e-05
-5.23377e-05
-4.90825e-05
-4.59832e-05
-4.30341e-05
-4.02307e-05
-3.7569e-05
-3.5046e-05
-3.26583e-05
-3.04025e-05
-2.8274e-05
-2.62679e-05
-2.43784e-05
-2.26004e-05
-2.09286e-05
-1.93589e-05
-1.78876e-05
-1.65118e-05
-1.52287e-05
-1.40354e-05
-1.29284e-05
-1.1904e-05
-1.09577e-05
-1.00846e-05
-9.2792e-06
-8.53652e-06
-7.8509e-06
-7.21762e-06
-6.63162e-06
-6.08891e-06
-5.58527e-06
-5.11756e-06
-4.68231e-06
-4.27717e-06
-3.89919e-06
-3.54672e-06
-3.21705e-06
-2.9092e-06
-2.62035e-06
-2.3504e-06
-2.09606e-06
-1.85798e-06
-1.63309e-06
-1.42111e-06
-1.22153e-06
-1.03105e-06
-8.5176e-07
-6.8049e-07
-5.16728e-07
-3.61102e-07
-2.11831e-07
-6.58062e-08
0.0013177
0.00123897
0.00111049
0.000929408
0.00071163
0.000485748
0.000278388
0.000104247
-3.36836e-05
-0.000138644
-0.000215606
-0.000269679
-0.000306013
-0.000329645
-0.000344993
-0.000355382
-0.000362929
-0.000368769
-0.000373427
-0.000377138
-0.000380024
-0.000382181
-0.000383703
-0.000384683
-0.0003852
-0.000385317
-0.000385088
-0.000384556
-0.000383761
-0.000382739
-0.000381525
-0.000380154
-0.00037866
-0.000377071
-0.000375406
-0.000373674
-0.000371878
-0.000370018
-0.000368098
-0.000366123
-0.000364102
-0.000362045
-0.00035996
-0.000357847
-0.000355701
-0.000353512
-0.000351273
-0.000348973
-0.000346608
-0.000344173
-0.000341658
-0.000339054
-0.000336344
-0.00033351
-0.000330534
-0.000327399
-0.000324088
-0.000320583
-0.000316866
-0.000312913
-0.0003087
-0.000304203
-0.000299402
-0.000294275
-0.0002888
-0.000282958
-0.000276735
-0.000270116
-0.000263091
-0.000255664
-0.000247845
-0.000239657
-0.000231126
-0.000222302
-0.000213247
-0.000204031
-0.000194734
-0.000185435
-0.00017622
-0.000167178
-0.000158372
-0.000149855
-0.000141668
-0.000133844
-0.000126414
-0.000119382
-0.000112736
-0.000106458
-0.000100529
-9.49266e-05
-8.96263e-05
-8.46034e-05
-7.98395e-05
-7.53051e-05
-7.09902e-05
-6.68769e-05
-6.29535e-05
-5.92115e-05
-5.56435e-05
-5.22431e-05
-4.90036e-05
-4.59189e-05
-4.29833e-05
-4.01918e-05
-3.75408e-05
-3.50271e-05
-3.26477e-05
-3.0399e-05
-2.82769e-05
-2.62763e-05
-2.43917e-05
-2.26175e-05
-2.09487e-05
-1.93811e-05
-1.79111e-05
-1.65358e-05
-1.52525e-05
-1.40585e-05
-1.29504e-05
-1.19248e-05
-1.0977e-05
-1.01025e-05
-9.29587e-06
-8.55196e-06
-7.86524e-06
-7.23096e-06
-6.64408e-06
-6.10058e-06
-5.59625e-06
-5.12792e-06
-4.69211e-06
-4.28647e-06
-3.90805e-06
-3.55516e-06
-3.22512e-06
-2.91692e-06
-2.62775e-06
-2.35749e-06
-2.10287e-06
-1.8645e-06
-1.63933e-06
-1.42709e-06
-1.22713e-06
-1.03647e-06
-8.56562e-07
-6.85049e-07
-5.20405e-07
-3.64163e-07
-2.13504e-07
-6.6386e-08
0.00119833
0.00112476
0.00101319
0.000862289
0.000681933
0.000490936
0.000309486
0.000151558
2.24356e-05
-7.88804e-05
-0.000156059
-0.000213271
-0.000254581
-0.00028387
-0.000304649
-0.000319769
-0.000331237
-0.000340281
-0.000347575
-0.000353487
-0.000358239
-0.000361996
-0.000364905
-0.0003671
-0.000368693
-0.000369771
-0.000370401
-0.000370644
-0.000370552
-0.00037017
-0.000369539
-0.000368698
-0.000367684
-0.000366528
-0.000365255
-0.000363877
-0.000362404
-0.000360842
-0.000359197
-0.000357476
-0.000355688
-0.000353843
-0.00035195
-0.000350011
-0.000348024
-0.000345982
-0.000343878
-0.000341705
-0.000339456
-0.000337128
-0.000334712
-0.0003322
-0.000329578
-0.000326828
-0.000323934
-0.000320879
-0.000317648
-0.000314225
-0.000310591
-0.000306726
-0.000302606
-0.00029821
-0.000293517
-0.000288508
-0.000283162
-0.000277463
-0.000271396
-0.000264951
-0.000258118
-0.000250901
-0.000243314
-0.000235376
-0.000227117
-0.000218581
-0.000209823
-0.000200911
-0.000191921
-0.000182928
-0.000174007
-0.000165236
-0.000156677
-0.000148382
-0.000140395
-0.000132749
-0.000125471
-0.000118563
-0.000112019
-0.000105825
-9.99659e-05
-9.44209e-05
-8.91687e-05
-8.41872e-05
-7.94586e-05
-7.49605e-05
-7.06779e-05
-6.65947e-05
-6.27e-05
-5.89847e-05
-5.54423e-05
-5.20662e-05
-4.88501e-05
-4.57874e-05
-4.28723e-05
-4.00997e-05
-3.74657e-05
-3.49674e-05
-3.26015e-05
-3.03651e-05
-2.82538e-05
-2.6263e-05
-2.4387e-05
-2.26204e-05
-2.09582e-05
-1.93959e-05
-1.79301e-05
-1.65579e-05
-1.52765e-05
-1.40835e-05
-1.29756e-05
-1.19495e-05
-1.10008e-05
-1.01251e-05
-9.31705e-06
-8.57169e-06
-7.88355e-06
-7.24793e-06
-6.65981e-06
-6.1152e-06
-5.60988e-06
-5.14067e-06
-4.70409e-06
-4.29777e-06
-3.91876e-06
-3.56533e-06
-3.23483e-06
-2.9262e-06
-2.63666e-06
-2.36602e-06
-2.11109e-06
-1.87237e-06
-1.6469e-06
-1.43436e-06
-1.23396e-06
-1.04307e-06
-8.62506e-07
-6.90618e-07
-5.25159e-07
-3.68077e-07
-2.16139e-07
-6.78941e-08
0.00109385
0.00102569
0.000928065
0.000800502
0.000649634
0.000488007
0.000330333
0.000188526
6.87612e-05
-2.81214e-05
-0.00010433
-0.000163088
-0.000207666
-0.000241122
-0.000266216
-0.000285301
-0.000300182
-0.000312093
-0.000321799
-0.000329767
-0.000336294
-0.000341597
-0.00034586
-0.000349249
-0.000351903
-0.000353926
-0.000355403
-0.000356408
-0.000357006
-0.000357252
-0.000357193
-0.00035687
-0.000356326
-0.000355596
-0.000354706
-0.000353674
-0.000352515
-0.000351241
-0.000349861
-0.000348383
-0.000346818
-0.000345176
-0.000343466
-0.000341691
-0.000339852
-0.000337945
-0.000335965
-0.000333905
-0.000331762
-0.000329529
-0.000327201
-0.000324769
-0.000322221
-0.000319543
-0.000316719
-0.000313734
-0.000310572
-0.000307219
-0.000303658
-0.00029987
-0.000295834
-0.000291531
-0.00028694
-0.000282045
-0.000276826
-0.00027127
-0.000265363
-0.000259096
-0.000252465
-0.000245471
-0.000238129
-0.00023046
-0.000222491
-0.000214261
-0.000205824
-0.000197245
-0.00018859
-0.000179925
-0.000171321
-0.000162849
-0.000154568
-0.000146531
-0.000138775
-0.000131334
-0.000124228
-0.000117466
-0.000111045
-0.000104956
-9.91844e-05
-9.37136e-05
-8.85249e-05
-8.36001e-05
-7.89216e-05
-7.44697e-05
-7.0229e-05
-6.61855e-05
-6.23282e-05
-5.86485e-05
-5.51397e-05
-5.17959e-05
-4.86103e-05
-4.55765e-05
-4.26886e-05
-3.99414e-05
-3.73309e-05
-3.48539e-05
-3.25074e-05
-3.02882e-05
-2.81925e-05
-2.62156e-05
-2.43523e-05
-2.25972e-05
-2.09452e-05
-1.9392e-05
-1.79338e-05
-1.65679e-05
-1.52915e-05
-1.4102e-05
-1.29965e-05
-1.19716e-05
-1.10233e-05
-1.01473e-05
-9.33844e-06
-8.59197e-06
-7.90257e-06
-7.26563e-06
-6.67624e-06
-6.13042e-06
-5.62402e-06
-5.15385e-06
-4.71644e-06
-4.30939e-06
-3.92975e-06
-3.57578e-06
-3.24481e-06
-2.93576e-06
-2.64588e-06
-2.37487e-06
-2.11969e-06
-1.88062e-06
-1.6549e-06
-1.44207e-06
-1.24126e-06
-1.05016e-06
-8.68979e-07
-6.96638e-07
-5.30491e-07
-3.72472e-07
-2.19393e-07
-7.00495e-08
0.00100193
0.000939186
0.000853258
0.00074413
0.000616546
0.000479148
0.000342505
0.000216146
0.000106114
1.4421e-05
-5.98289e-05
-0.000118897
-0.000165362
-0.000201665
-0.00023
-0.000252274
-0.000270044
-0.000284467
-0.000296339
-0.000306193
-0.000314378
-0.000321148
-0.000326709
-0.000331253
-0.000334937
-0.000337882
-0.000340189
-0.000341942
-0.000343218
-0.00034408
-0.000344582
-0.000344771
-0.00034469
-0.000344379
-0.000343869
-0.000343181
-0.000342334
-0.000341344
-0.000340224
-0.000338985
-0.000337639
-0.000336195
-0.000334664
-0.000333051
-0.000331356
-0.000329579
-0.000327718
-0.000325767
-0.000323723
-0.000321581
-0.000319335
-0.000316979
-0.000314501
-0.000311889
-0.000309129
-0.000306208
-0.00030311
-0.000299823
-0.00029633
-0.000292615
-0.000288659
-0.000284444
-0.000279953
-0.000275169
-0.000270076
-0.000264662
-0.000258916
-0.00025283
-0.000246402
-0.000239637
-0.000232546
-0.000225149
-0.000217473
-0.000209559
-0.000201454
-0.000193214
-0.000184898
-0.000176569
-0.000168294
-0.000160135
-0.000152149
-0.000144382
-0.00013687
-0.000129643
-0.000122725
-0.000116126
-0.000109845
-0.000103876
-9.82068e-05
-9.28244e-05
-8.77129e-05
-8.2856e-05
-7.82374e-05
-7.38404e-05
-6.96508e-05
-6.56555e-05
-6.18438e-05
-5.82074e-05
-5.47397e-05
-5.14345e-05
-4.82854e-05
-4.52863e-05
-4.2431e-05
-3.97148e-05
-3.71332e-05
-3.46828e-05
-3.23605e-05
-3.01635e-05
-2.80875e-05
-2.61286e-05
-2.42815e-05
-2.25413e-05
-2.09028e-05
-1.93618e-05
-1.79146e-05
-1.65582e-05
-1.52897e-05
-1.41067e-05
-1.3006e-05
-1.19846e-05
-1.10385e-05
-1.01636e-05
-9.35507e-06
-8.60836e-06
-7.91834e-06
-7.28053e-06
-6.69021e-06
-6.14344e-06
-5.63615e-06
-5.16517e-06
-4.72705e-06
-4.3194e-06
-3.93926e-06
-3.58487e-06
-3.25357e-06
-2.94421e-06
-2.65412e-06
-2.38286e-06
-2.12755e-06
-1.88823e-06
-1.66239e-06
-1.44936e-06
-1.24823e-06
-1.057e-06
-8.75308e-07
-7.02536e-07
-5.35837e-07
-3.76923e-07
-2.22797e-07
-7.23863e-08
0.000920545
0.000863003
0.000786962
0.00069268
0.000583696
0.00046616
0.000347706
0.000235698
0.000135492
4.9616e-05
-2.18448e-05
-8.0251e-05
-0.000127512
-0.00016557
-0.000196189
-0.000220915
-0.000241046
-0.000257613
-0.000271391
-0.000282939
-0.000292642
-0.000300774
-0.000307558
-0.000313198
-0.000317868
-0.000321704
-0.000324814
-0.000327295
-0.000329233
-0.000330699
-0.000331752
-0.000332443
-0.000332819
-0.000332923
-0.00033279
-0.000332444
-0.000331907
-0.000331201
-0.00033034
-0.000329339
-0.00032821
-0.000326964
-0.000325612
-0.000324159
-0.00032261
-0.000320964
-0.000319221
-0.000317379
-0.000315434
-0.000313382
-0.00031122
-0.00030894
-0.000306532
-0.000303986
-0.000301291
-0.000298434
-0.000295401
-0.00029218
-0.000288757
-0.000285116
-0.00028124
-0.000277114
-0.000272723
-0.000268051
-0.000263086
-0.000257815
-0.000252232
-0.000246329
-0.000240107
-0.000233569
-0.000226728
-0.000219604
-0.000212224
-0.000204624
-0.000196846
-0.00018894
-0.000180963
-0.000172972
-0.000165027
-0.000157184
-0.000149493
-0.000141998
-0.000134735
-0.000127732
-0.000121013
-0.000114587
-0.000108456
-0.000102618
-9.70621e-05
-9.17786e-05
-8.67537e-05
-8.19735e-05
-7.74237e-05
-7.30901e-05
-6.89593e-05
-6.50193e-05
-6.126e-05
-5.76731e-05
-5.42522e-05
-5.09909e-05
-4.78834e-05
-4.49235e-05
-4.21055e-05
-3.94245e-05
-3.68761e-05
-3.44565e-05
-3.21626e-05
-2.99914e-05
-2.79389e-05
-2.60013e-05
-2.41736e-05
-2.24511e-05
-2.0829e-05
-1.93029e-05
-1.78692e-05
-1.65249e-05
-1.5267e-05
-1.40928e-05
-1.29993e-05
-1.19835e-05
-1.10415e-05
-1.01694e-05
-9.3627e-06
-8.61693e-06
-7.92727e-06
-7.28941e-06
-6.6988e-06
-6.15163e-06
-5.6439e-06
-5.1725e-06
-4.73403e-06
-4.32608e-06
-3.94572e-06
-3.59118e-06
-3.25978e-06
-2.95036e-06
-2.66027e-06
-2.38896e-06
-2.13374e-06
-1.89435e-06
-1.66856e-06
-1.4555e-06
-1.2542e-06
-1.06297e-06
-8.80928e-07
-7.07832e-07
-5.40722e-07
-3.81046e-07
-2.25941e-07
-7.4504e-08
0.000847959
0.000795291
0.000727685
0.000645573
0.000551666
0.000450472
0.000347577
0.000248586
0.000157963
7.82875e-05
1.02709e-05
-4.66928e-05
-9.38935e-05
-0.000132827
-0.000164917
-0.000191416
-0.000213389
-0.000231724
-0.000247133
-0.000260168
-0.000271228
-0.000280597
-0.000288507
-0.00029517
-0.000300771
-0.000305454
-0.000309334
-0.000312515
-0.000315093
-0.000317146
-0.000318736
-0.000319917
-0.00032074
-0.000321253
-0.000321493
-0.000321486
-0.000321258
-0.000320833
-0.000320232
-0.000319468
-0.000318555
-0.000317506
-0.000316333
-0.000315044
-0.000313641
-0.000312128
-0.000310506
-0.000308775
-0.000306931
-0.000304973
-0.000302896
-0.000300695
-0.000298361
-0.000295886
-0.000293259
-0.00029047
-0.000287506
-0.000284355
-0.000281004
-0.000277441
-0.000273651
-0.000269618
-0.000265331
-0.000260775
-0.000255941
-0.000250817
-0.000245399
-0.000239681
-0.000233664
-0.000227354
-0.000220764
-0.000213912
-0.000206824
-0.000199531
-0.000192073
-0.000184498
-0.000176856
-0.000169198
-0.000161577
-0.000154045
-0.000146647
-0.000139425
-0.000132413
-0.00012564
-0.000119124
-0.000112878
-0.000106905
-0.000101205
-9.57712e-05
-9.05948e-05
-8.56649e-05
-8.09698e-05
-7.6497e-05
-7.22338e-05
-6.81683e-05
-6.42895e-05
-6.05879e-05
-5.70558e-05
-5.36864e-05
-5.04738e-05
-4.74121e-05
-4.44955e-05
-4.17185e-05
-3.90762e-05
-3.65643e-05
-3.41788e-05
-3.19166e-05
-2.97745e-05
-2.77486e-05
-2.58352e-05
-2.40296e-05
-2.23272e-05
-2.07237e-05
-1.92148e-05
-1.77968e-05
-1.64668e-05
-1.52214e-05
-1.40581e-05
-1.29738e-05
-1.19655e-05
-1.10294e-05
-1.01618e-05
-9.35836e-06
-8.61486e-06
-7.9267e-06
-7.2898e-06
-6.69977e-06
-6.15295e-06
-5.64543e-06
-5.17419e-06
-4.73586e-06
-4.32808e-06
-3.94791e-06
-3.59359e-06
-3.26244e-06
-2.95327e-06
-2.66349e-06
-2.39242e-06
-2.13753e-06
-1.89834e-06
-1.67281e-06
-1.45996e-06
-1.25868e-06
-1.06763e-06
-8.8544e-07
-7.12186e-07
-5.44818e-07
-3.84555e-07
-2.2856e-07
-7.6188e-08
0.00078277
0.000734606
0.000674265
0.000602284
0.000520789
0.000433147
0.000343501
0.000256099
0.000174533
0.000101183
3.70865e-05
-1.78123e-05
-6.4272e-05
-0.000103379
-0.00013626
-0.000163928
-0.000187254
-0.000206979
-0.000223732
-0.000238031
-0.00025027
-0.000260735
-0.00026966
-0.000277259
-0.000283722
-0.000289197
-0.000293805
-0.000297652
-0.000300842
-0.000303459
-0.000305567
-0.000307222
-0.00030848
-0.000309392
-0.000309997
-0.000310324
-0.000310401
-0.000310256
-0.000309911
-0.000309383
-0.000308685
-0.000307833
-0.00030684
-0.000305714
-0.00030446
-0.000303082
-0.000301584
-0.000299967
-0.000298228
-0.000296366
-0.000294378
-0.000292261
-0.000290006
-0.000287606
-0.000285052
-0.000282336
-0.000279445
-0.00027637
-0.000273098
-0.000269619
-0.000265919
-0.000261985
-0.000257807
-0.000253374
-0.000248674
-0.000243702
-0.000238453
-0.000232922
-0.000227113
-0.000221031
-0.000214691
-0.000208107
-0.000201305
-0.000194315
-0.000187173
-0.000179922
-0.000172607
-0.000165273
-0.000157969
-0.000150743
-0.000143636
-0.000136687
-0.000129928
-0.000123384
-0.000117075
-0.000111013
-0.000105205
-9.96505e-05
-9.43458e-05
-8.92843e-05
-8.44572e-05
-7.98546e-05
-7.54656e-05
-7.12793e-05
-6.72849e-05
-6.34728e-05
-5.98341e-05
-5.63614e-05
-5.3048e-05
-4.98882e-05
-4.68761e-05
-4.40064e-05
-4.12738e-05
-3.86733e-05
-3.62008e-05
-3.38525e-05
-3.16249e-05
-2.95146e-05
-2.7518e-05
-2.56313e-05
-2.38502e-05
-2.21703e-05
-2.05875e-05
-1.90978e-05
-1.76975e-05
-1.63833e-05
-1.51524e-05
-1.40017e-05
-1.29284e-05
-1.19292e-05
-1.10006e-05
-1.0139e-05
-9.34021e-06
-8.60029e-06
-7.91486e-06
-7.28001e-06
-6.69154e-06
-6.14594e-06
-5.63941e-06
-5.16902e-06
-4.73147e-06
-4.32441e-06
-3.94494e-06
-3.5913e-06
-3.26083e-06
-2.95231e-06
-2.66319e-06
-2.3927e-06
-2.13845e-06
-1.89975e-06
-1.67473e-06
-1.46236e-06
-1.26135e-06
-1.07069e-06
-8.88586e-07
-7.1537e-07
-5.47922e-07
-3.87267e-07
-2.30535e-07
-7.73907e-08
0.000723851
0.000679827
0.000625799
0.000562369
0.000491225
0.000414912
0.000336534
0.00025932
0.000186123
0.000119014
5.91288e-05
6.76461e-06
-3.8414e-05
-7.71277e-05
-0.000110235
-0.000138551
-0.000162778
-0.000183524
-0.000201327
-0.000216658
-0.00022989
-0.000241302
-0.00025112
-0.000259555
-0.000266799
-0.000273004
-0.000278287
-0.000282758
-0.000286525
-0.000289675
-0.000292278
-0.000294388
-0.000296065
-0.000297363
-0.000298322
-0.000298975
-0.000299351
-0.00029948
-0.000299388
-0.000299093
-0.000298609
-0.000297952
-0.000297139
-0.000296177
-0.000295073
-0.000293832
-0.000292461
-0.00029096
-0.000289329
-0.000287566
-0.000285672
-0.000283642
-0.000281471
-0.00027915
-0.000276675
-0.000274038
-0.000271226
-0.000268232
-0.000265046
-0.000261657
-0.000258053
-0.000254225
-0.000250162
-0.000245856
-0.000241297
-0.000236481
-0.000231403
-0.000226063
-0.000220463
-0.000214611
-0.000208517
-0.000202199
-0.00019568
-0.000188988
-0.000182156
-0.000175221
-0.000168223
-0.000161207
-0.000154215
-0.00014729
-0.000140472
-0.000133793
-0.000127285
-0.000120972
-0.000114873
-0.000109
-0.000103362
-9.79594e-05
-9.27907e-05
-8.78512e-05
-8.31338e-05
-7.86304e-05
-7.43318e-05
-7.02286e-05
-6.63114e-05
-6.25713e-05
-5.90004e-05
-5.55916e-05
-5.23384e-05
-4.92353e-05
-4.62767e-05
-4.34574e-05
-4.07723e-05
-3.82168e-05
-3.57867e-05
-3.34782e-05
-3.12878e-05
-2.92119e-05
-2.72471e-05
-2.53896e-05
-2.36353e-05
-2.19802e-05
-2.04202e-05
-1.89515e-05
-1.75706e-05
-1.62742e-05
-1.50592e-05
-1.39228e-05
-1.28619e-05
-1.18734e-05
-1.09538e-05
-1.00997e-05
-9.30697e-06
-8.57196e-06
-7.89049e-06
-7.25883e-06
-6.67297e-06
-6.12954e-06
-5.62487e-06
-5.15612e-06
-4.72003e-06
-4.31433e-06
-3.93614e-06
-3.5837e-06
-3.2544e-06
-2.94696e-06
-2.65892e-06
-2.38939e-06
-2.1361e-06
-1.89827e-06
-1.67403e-06
-1.46244e-06
-1.26197e-06
-1.07193e-06
-8.9019e-07
-7.17227e-07
-5.49912e-07
-3.89085e-07
-2.31844e-07
-7.8159e-08
0.000670295
0.000630072
0.000581575
0.000525437
0.000463012
0.000396234
0.000327455
0.000259152
0.000193575
0.000132456
7.68974e-05
2.73945e-05
-1.60777e-05
-5.39379e-05
-8.68082e-05
-0.000115325
-0.000140048
-0.000161465
-0.000180032
-0.000196162
-0.000210198
-0.000222398
-0.000232978
-0.000242143
-0.00025008
-0.00025694
-0.000262839
-0.000267885
-0.000272187
-0.000275837
-0.000278905
-0.000281447
-0.000283522
-0.000285188
-0.00028649
-0.000287458
-0.000288124
-0.00028852
-0.000288676
-0.000288609
-0.000288335
-0.000287872
-0.000287236
-0.000286439
-0.000285485
-0.000284383
-0.000283139
-0.000281757
-0.000280236
-0.000278576
-0.000276779
-0.000274841
-0.000272757
-0.000270522
-0.000268131
-0.000265577
-0.000262851
-0.000259944
-0.000256848
-0.000253556
-0.000250055
-0.000246338
-0.000242396
-0.000238223
-0.00023381
-0.000229153
-0.000224252
-0.000219105
-0.000213715
-0.000208091
-0.000202244
-0.00019619
-0.00018995
-0.00018355
-0.00017702
-0.000170394
-0.000163709
-0.000157004
-0.000150319
-0.00014369
-0.000137154
-0.000130744
-0.000124486
-0.000118405
-0.000112519
-0.00010684
-0.000101377
-9.6132e-05
-9.11057e-05
-8.62947e-05
-8.16938e-05
-7.72963e-05
-7.30947e-05
-6.90808e-05
-6.52464e-05
-6.15838e-05
-5.80855e-05
-5.47451e-05
-5.15564e-05
-4.85141e-05
-4.56127e-05
-4.28474e-05
-4.02132e-05
-3.77057e-05
-3.53209e-05
-3.3055e-05
-3.09043e-05
-2.88655e-05
-2.6935e-05
-2.51092e-05
-2.3384e-05
-2.17559e-05
-2.02207e-05
-1.87751e-05
-1.74153e-05
-1.61383e-05
-1.4941e-05
-1.38204e-05
-1.27735e-05
-1.17972e-05
-1.08881e-05
-1.00428e-05
-9.25758e-06
-8.52883e-06
-7.85258e-06
-7.22531e-06
-6.64315e-06
-6.1029e-06
-5.60101e-06
-5.13473e-06
-4.70088e-06
-4.29723e-06
-3.92094e-06
-3.57029e-06
-3.24268e-06
-2.93681e-06
-2.65029e-06
-2.38215e-06
-2.1302e-06
-1.8936e-06
-1.67047e-06
-1.45998e-06
-1.26036e-06
-1.0712e-06
-8.90113e-07
-7.17644e-07
-5.50702e-07
-3.89959e-07
-2.32504e-07
-7.85637e-08
0.000621362
0.000584626
0.000541003
0.000491134
0.000436111
0.000377417
0.000316851
0.000256328
0.000197614
0.000142131
9.08764e-05
4.44363e-05
2.98916e-06
-3.3651e-05
-6.5903e-05
-9.42443e-05
-0.000119108
-0.00014088
-0.000159937
-0.000176637
-0.000191285
-0.000204114
-0.000215322
-0.000225102
-0.000233637
-0.000241074
-0.000247523