/*--------------------------------*- C++ -*----------------------------------*\
| =========                 |                                                 |
| \\      /  F ield         | OpenFOAM: The Open Source CFD Toolbox           |
|  \\    /   O peration     | Version:  2.3.0                                 |
|   \\  /    A nd           | Web:      www.OpenFOAM.org                      |
|    \\/     M anipulation  |                                                 |
\*---------------------------------------------------------------------------*/
FoamFile
{
    version     2.0;
    format      ascii;
    class       surfaceScalarField;
    location    "0.75";
    object      phi_0;
}
// * * * * * * * * * * * * * * * * * * * * * * * * * * * * * * * * * * * * * //

dimensions      [0 3 -1 0 0 0 0];

internalField   nonuniform List<scalar> 
5273
(
3.15604e-08
3.0246e-09
2.8664e-08
2.89645e-09
2.60225e-08
2.64145e-09
2.35248e-08
2.49778e-09
2.11884e-08
2.33635e-09
1.90462e-08
2.14223e-09
1.71141e-08
1.93207e-09
1.53961e-08
1.71797e-09
1.38891e-08
1.50702e-09
1.25843e-08
1.30481e-09
1.14681e-08
1.1162e-09
1.05232e-08
9.44897e-10
9.72995e-09
7.93253e-10
9.06772e-09
6.62234e-10
8.51614e-09
5.51578e-10
8.05611e-09
4.60031e-10
7.67047e-09
3.85638e-10
7.34441e-09
3.26062e-10
7.06555e-09
2.7886e-10
6.82387e-09
2.41685e-10
6.61143e-09
2.12434e-10
6.42212e-09
1.89309e-10
6.25128e-09
1.70841e-10
6.09541e-09
1.55871e-10
5.9519e-09
1.43512e-10
5.8188e-09
1.33102e-10
5.69464e-09
1.2416e-10
5.5783e-09
1.1634e-10
5.4689e-09
1.09396e-10
5.36574e-09
1.03157e-10
5.26825e-09
9.74989e-11
5.17591e-09
9.23347e-11
5.08831e-09
8.75989e-11
5.00507e-09
8.32416e-11
4.92585e-09
7.9223e-11
4.85034e-09
7.55098e-11
4.77826e-09
7.20735e-11
4.70937e-09
6.88889e-11
4.64344e-09
6.59334e-11
4.58025e-09
6.31868e-11
4.51962e-09
6.06305e-11
4.46138e-09
5.82477e-11
4.40535e-09
5.60233e-11
4.35141e-09
5.39434e-11
4.29941e-09
5.19955e-11
4.24925e-09
5.01685e-11
4.20079e-09
4.84521e-11
4.15396e-09
4.68372e-11
4.10864e-09
4.53155e-11
4.06476e-09
4.38795e-11
4.02224e-09
4.25226e-11
3.981e-09
4.12386e-11
3.94098e-09
4.0022e-11
3.90211e-09
3.88678e-11
3.86434e-09
3.77716e-11
3.82761e-09
3.67292e-11
3.79187e-09
3.57368e-11
3.75708e-09
3.4791e-11
3.72319e-09
3.38887e-11
3.69017e-09
3.30272e-11
3.65796e-09
3.22036e-11
3.62655e-09
3.14156e-11
3.59589e-09
3.0661e-11
3.56595e-09
2.99379e-11
3.5367e-09
2.92441e-11
3.50813e-09
2.85782e-11
3.48019e-09
2.79384e-11
3.45286e-09
2.73233e-11
3.42613e-09
2.67315e-11
3.39997e-09
2.61616e-11
3.37436e-09
2.56126e-11
3.34928e-09
2.50834e-11
3.3247e-09
2.45728e-11
3.30062e-09
2.408e-11
3.27702e-09
2.36042e-11
3.25387e-09
2.31443e-11
3.23117e-09
2.26997e-11
3.2089e-09
2.22697e-11
3.18705e-09
2.18535e-11
3.1656e-09
2.14506e-11
3.14454e-09
2.10604e-11
3.12386e-09
2.06824e-11
3.10354e-09
2.03159e-11
3.08358e-09
1.99607e-11
3.06396e-09
1.96162e-11
3.04468e-09
1.9282e-11
3.02573e-09
1.89577e-11
3.00708e-09
1.8643e-11
2.98874e-09
1.83374e-11
2.9707e-09
1.80408e-11
2.95295e-09
1.77526e-11
2.93548e-09
1.74727e-11
2.91828e-09
1.72012e-11
2.90134e-09
1.69391e-11
2.88465e-09
1.66902e-11
2.86818e-09
1.64678e-11
2.85186e-09
1.63193e-11
2.83552e-09
1.63394e-11
2.81882e-09
1.67005e-11
4.8152e-11
3.64392e-08
2.45548e-09
3.61717e-08
3.16392e-09
3.55862e-08
3.22695e-09
3.48047e-08
3.27922e-09
3.38657e-08
3.27542e-09
3.28247e-08
3.18316e-09
3.17294e-08
3.02745e-09
3.06138e-08
2.83349e-09
2.95039e-08
2.61695e-09
2.84192e-08
2.38948e-09
2.73742e-08
2.16129e-09
2.63782e-08
1.94082e-09
2.54372e-08
1.73433e-09
2.45535e-08
1.54586e-09
2.37277e-08
1.37746e-09
2.29581e-08
1.22954e-09
2.22425e-08
1.10127e-09
2.15776e-08
9.90987e-10
2.09598e-08
8.96621e-10
2.03856e-08
8.15952e-10
1.98512e-08
7.46832e-10
1.93532e-08
6.87315e-10
1.88883e-08
6.35715e-10
1.84535e-08
5.90619e-10
1.80462e-08
5.50875e-10
1.76637e-08
5.1556e-10
1.73039e-08
4.83943e-10
1.69648e-08
4.55447e-10
1.66446e-08
4.29618e-10
1.63417e-08
4.06094e-10
1.60546e-08
3.84586e-10
1.57821e-08
3.64856e-10
1.55229e-08
3.46708e-10
1.52762e-08
3.29978e-10
1.50409e-08
3.14523e-10
1.48162e-08
3.00219e-10
1.46013e-08
2.86958e-10
1.43956e-08
2.74643e-10
1.41983e-08
2.63189e-10
1.4009e-08
2.52519e-10
1.3827e-08
2.42563e-10
1.3652e-08
2.3326e-10
1.34835e-08
2.24554e-10
1.3321e-08
2.16393e-10
1.31643e-08
2.08733e-10
1.30129e-08
2.01532e-10
1.28666e-08
1.94753e-10
1.27251e-08
1.88364e-10
1.25881e-08
1.82332e-10
1.24553e-08
1.76632e-10
1.23266e-08
1.71237e-10
1.22017e-08
1.66126e-10
1.20805e-08
1.61278e-10
1.19627e-08
1.56673e-10
1.18482e-08
1.52296e-10
1.17368e-08
1.4813e-10
1.16283e-08
1.44161e-10
1.15228e-08
1.40376e-10
1.14199e-08
1.36763e-10
1.13196e-08
1.3331e-10
1.12218e-08
1.30009e-10
1.11264e-08
1.26849e-10
1.10332e-08
1.23821e-10
1.09422e-08
1.20919e-10
1.08533e-08
1.18134e-10
1.07664e-08
1.15459e-10
1.06815e-08
1.12889e-10
1.05984e-08
1.10417e-10
1.05171e-08
1.08038e-10
1.04375e-08
1.05748e-10
1.03596e-08
1.0354e-10
1.02833e-08
1.01412e-10
1.02085e-08
9.93579e-11
1.01352e-08
9.73751e-11
1.00633e-08
9.54597e-11
9.99285e-09
9.36085e-11
9.92373e-09
9.18183e-11
9.85592e-09
9.00862e-11
9.78936e-09
8.84095e-11
9.72402e-09
8.67858e-11
9.65987e-09
8.52125e-11
9.59687e-09
8.36877e-11
9.53497e-09
8.2209e-11
9.47416e-09
8.07746e-11
9.41439e-09
7.93828e-11
9.35564e-09
7.80317e-11
9.29788e-09
7.67199e-11
9.24108e-09
7.54457e-11
9.18521e-09
7.42077e-11
9.13024e-09
7.30045e-11
9.07616e-09
7.18348e-11
9.02294e-09
7.06974e-11
8.97055e-09
6.95926e-11
8.91896e-09
6.85233e-11
8.86815e-09
6.75018e-11
8.81805e-09
6.65714e-11
8.7685e-09
6.5871e-11
8.71901e-09
6.58262e-11
8.66431e-09
7.14036e-11
1.21182e-10
3.78827e-08
1.77558e-09
3.83056e-08
2.74105e-09
3.84799e-08
3.05258e-09
3.85167e-08
3.24247e-09
3.84221e-08
3.37e-09
3.82036e-08
3.40164e-09
3.78814e-08
3.34971e-09
3.74757e-08
3.23911e-09
3.70049e-08
3.0878e-09
3.64852e-08
2.90916e-09
3.59314e-08
2.71513e-09
3.53559e-08
2.51624e-09
3.47693e-08
2.32097e-09
3.41797e-08
2.13548e-09
3.35934e-08
1.96374e-09
3.30151e-08
1.80784e-09
3.24481e-08
1.6683e-09
3.18945e-08
1.54459e-09
3.13556e-08
1.43545e-09
3.08323e-08
1.33927e-09
3.03248e-08
1.25433e-09
2.98332e-08
1.17897e-09
2.93572e-08
1.11168e-09
2.88966e-08
1.05119e-09
2.84511e-08
9.96404e-10
2.80202e-08
9.46446e-10
2.76035e-08
9.00611e-10
2.72006e-08
8.58336e-10
2.68111e-08
8.19174e-10
2.64344e-08
7.82768e-10
2.60702e-08
7.48826e-10
2.57179e-08
7.17113e-10
2.53772e-08
6.87429e-10
2.50476e-08
6.59603e-10
2.47286e-08
6.33486e-10
2.44199e-08
6.08949e-10
2.4121e-08
5.85872e-10
2.38315e-08
5.6415e-10
2.3551e-08
5.43683e-10
2.32791e-08
5.24384e-10
2.30155e-08
5.06169e-10
2.27598e-08
4.88964e-10
2.25116e-08
4.72697e-10
2.22707e-08
4.57304e-10
2.20367e-08
4.42725e-10
2.18094e-08
4.28906e-10
2.15883e-08
4.15795e-10
2.13733e-08
4.03345e-10
2.11642e-08
3.91513e-10
2.09605e-08
3.80258e-10
2.07622e-08
3.69543e-10
2.0569e-08
3.59334e-10
2.03807e-08
3.49599e-10
2.01971e-08
3.40307e-10
2.00179e-08
3.31433e-10
1.98431e-08
3.22949e-10
1.96724e-08
3.14834e-10
1.95057e-08
3.07065e-10
1.93429e-08
2.99621e-10
1.91837e-08
2.92484e-10
1.90281e-08
2.85636e-10
1.88759e-08
2.79062e-10
1.8727e-08
2.72744e-10
1.85812e-08
2.66671e-10
1.84385e-08
2.60828e-10
1.82988e-08
2.55202e-10
1.81619e-08
2.49783e-10
1.80277e-08
2.4456e-10
1.78962e-08
2.39522e-10
1.77673e-08
2.3466e-10
1.76409e-08
2.29965e-10
1.75169e-08
2.2543e-10
1.73952e-08
2.21045e-10
1.72758e-08
2.16805e-10
1.71585e-08
2.12702e-10
1.70434e-08
2.08729e-10
1.69303e-08
2.04882e-10
1.68193e-08
2.01153e-10
1.67101e-08
1.97538e-10
1.66029e-08
1.94032e-10
1.64975e-08
1.9063e-10
1.63938e-08
1.87328e-10
1.62919e-08
1.84121e-10
1.61917e-08
1.81005e-10
1.60931e-08
1.77978e-10
1.59961e-08
1.75036e-10
1.59007e-08
1.72174e-10
1.58067e-08
1.69391e-10
1.57142e-08
1.66683e-10
1.56232e-08
1.64047e-10
1.55335e-08
1.61481e-10
1.54453e-08
1.58982e-10
1.53583e-08
1.5655e-10
1.52726e-08
1.54192e-10
1.51882e-08
1.51929e-10
1.51049e-08
1.49844e-10
1.50226e-08
1.48208e-10
1.49403e-08
1.48143e-10
1.48537e-08
1.57952e-10
2.08098e-10
3.90452e-08
1.31546e-09
3.95339e-08
2.25232e-09
3.98916e-08
2.69487e-09
4.0177e-08
2.9571e-09
4.03998e-08
3.14718e-09
4.05487e-08
3.25277e-09
4.06223e-08
3.27606e-09
4.06254e-08
3.23598e-09
4.0564e-08
3.14926e-09
4.04447e-08
3.02844e-09
4.02752e-08
2.8846e-09
4.00636e-08
2.7279e-09
3.98175e-08
2.56703e-09
3.95442e-08
2.40877e-09
3.925e-08
2.25793e-09
3.89403e-08
2.11757e-09
3.86194e-08
1.98918e-09
3.82909e-08
1.87313e-09
3.79574e-08
1.76894e-09
3.7621e-08
1.67565e-09
3.72833e-08
1.59204e-09
3.69455e-08
1.51683e-09
3.66083e-08
1.44881e-09
3.62726e-08
1.38688e-09
3.59389e-08
1.3301e-09
3.56077e-08
1.2777e-09
3.52793e-08
1.22904e-09
3.4954e-08
1.18361e-09
3.46321e-08
1.14102e-09
3.4314e-08
1.10093e-09
3.39997e-08
1.06309e-09
3.36895e-08
1.0273e-09
3.33836e-08
9.93382e-10
3.3082e-08
9.61194e-10
3.27849e-08
9.30612e-10
3.24923e-08
9.01528e-10
3.22043e-08
8.73846e-10
3.1921e-08
8.47479e-10
3.16423e-08
8.22347e-10
3.13683e-08
7.98376e-10
3.1099e-08
7.75499e-10
3.08343e-08
7.53653e-10
3.05742e-08
7.32779e-10
3.03187e-08
7.12821e-10
3.00677e-08
6.93728e-10
2.98212e-08
6.75452e-10
2.9579e-08
6.57948e-10
2.93412e-08
6.41175e-10
2.91076e-08
6.25091e-10
2.88782e-08
6.09661e-10
2.86529e-08
5.9485e-10
2.84316e-08
5.80625e-10
2.82142e-08
5.66956e-10
2.80007e-08
5.53813e-10
2.7791e-08
5.41171e-10
2.75849e-08
5.29002e-10
2.73825e-08
5.17285e-10
2.71836e-08
5.05995e-10
2.69881e-08
4.95112e-10
2.67959e-08
4.84617e-10
2.66071e-08
4.74489e-10
2.64214e-08
4.64713e-10
2.62389e-08
4.5527e-10
2.60594e-08
4.46145e-10
2.58829e-08
4.37323e-10
2.57093e-08
4.28791e-10
2.55386e-08
4.20534e-10
2.53706e-08
4.12541e-10
2.52053e-08
4.048e-10
2.50427e-08
3.97299e-10
2.48826e-08
3.90028e-10
2.47251e-08
3.82977e-10
2.457e-08
3.76136e-10
2.44173e-08
3.69497e-10
2.4267e-08
3.63051e-10
2.41189e-08
3.56789e-10
2.39731e-08
3.50705e-10
2.38294e-08
3.44791e-10
2.36879e-08
3.3904e-10
2.35485e-08
3.33446e-10
2.34111e-08
3.28002e-10
2.32758e-08
3.22704e-10
2.31423e-08
3.17545e-10
2.30108e-08
3.1252e-10
2.28812e-08
3.07624e-10
2.27534e-08
3.02853e-10
2.26273e-08
2.98202e-10
2.25031e-08
2.93667e-10
2.23805e-08
2.89244e-10
2.22596e-08
2.84928e-10
2.21404e-08
2.80716e-10
2.20228e-08
2.76606e-10
2.19067e-08
2.72596e-10
2.17922e-08
2.68696e-10
2.16792e-08
2.6494e-10
2.15676e-08
2.61446e-10
2.14572e-08
2.58625e-10
2.13471e-08
2.58177e-10
2.12366e-08
2.6847e-10
3.07125e-10
4.03208e-08
1.01333e-09
4.07301e-08
1.8431e-09
4.10905e-08
2.33443e-09
4.14117e-08
2.63587e-09
4.17071e-08
2.85182e-09
4.19672e-08
2.99264e-09
4.21844e-08
3.05886e-09
4.23566e-08
3.06383e-09
4.24836e-08
3.02224e-09
4.25664e-08
2.94558e-09
4.26075e-08
2.84358e-09
4.26101e-08
2.72527e-09
4.25785e-08
2.5986e-09
4.25172e-08
2.47004e-09
4.24307e-08
2.34449e-09
4.2323e-08
2.22528e-09
4.21977e-08
2.11442e-09
4.20581e-08
2.0128e-09
4.19065e-08
1.9205e-09
4.17451e-08
1.83705e-09
4.15755e-08
1.76167e-09
4.13989e-08
1.69342e-09
4.12163e-08
1.63136e-09
4.10286e-08
1.57459e-09
4.08364e-08
1.52232e-09
4.06402e-08
1.47386e-09
4.04406e-08
1.42867e-09
4.02379e-08
1.38629e-09
4.00326e-08
1.34634e-09
3.9825e-08
1.30854e-09
3.96154e-08
1.27265e-09
3.94043e-08
1.23849e-09
3.91917e-08
1.20591e-09
3.89781e-08
1.17478e-09
3.87638e-08
1.145e-09
3.85488e-08
1.11646e-09
3.83336e-08
1.08911e-09
3.81182e-08
1.06286e-09
3.79029e-08
1.03765e-09
3.76878e-08
1.01341e-09
3.74732e-08
9.90112e-10
3.72592e-08
9.67688e-10
3.70459e-08
9.46095e-10
3.68334e-08
9.25291e-10
3.66219e-08
9.05236e-10
3.64115e-08
8.85892e-10
3.62022e-08
8.67224e-10
3.59942e-08
8.49199e-10
3.57875e-08
8.31785e-10
3.55822e-08
8.14955e-10
3.53783e-08
7.98681e-10
3.5176e-08
7.82936e-10
3.49753e-08
7.67698e-10
3.47762e-08
7.52943e-10
3.45787e-08
7.3865e-10
3.43829e-08
7.24798e-10
3.41888e-08
7.11369e-10
3.39964e-08
6.98344e-10
3.38059e-08
6.85706e-10
3.3617e-08
6.73439e-10
3.343e-08
6.61528e-10
3.32447e-08
6.49958e-10
3.30613e-08
6.38716e-10
3.28797e-08
6.27787e-10
3.26998e-08
6.17161e-10
3.25218e-08
6.06824e-10
3.23456e-08
5.96767e-10
3.21711e-08
5.86977e-10
3.19985e-08
5.77445e-10
3.18276e-08
5.68161e-10
3.16585e-08
5.59116e-10
3.14912e-08
5.503e-10
3.13256e-08
5.41707e-10
3.11618e-08
5.33327e-10
3.09997e-08
5.25153e-10
3.08393e-08
5.17177e-10
3.06806e-08
5.09393e-10
3.05236e-08
5.01795e-10
3.03683e-08
4.94374e-10
3.02146e-08
4.87127e-10
3.00626e-08
4.80046e-10
2.99121e-08
4.73126e-10
2.97633e-08
4.66363e-10
2.96161e-08
4.5975e-10
2.94704e-08
4.53284e-10
2.93263e-08
4.46959e-10
2.91838e-08
4.40772e-10
2.90427e-08
4.34718e-10
2.89032e-08
4.28793e-10
2.87651e-08
4.22992e-10
2.86285e-08
4.17313e-10
2.84933e-08
4.11751e-10
2.83596e-08
4.06307e-10
2.82273e-08
4.00993e-10
2.80964e-08
3.95851e-10
2.79668e-08
3.91025e-10
2.78385e-08
3.86999e-10
2.77111e-08
3.85552e-10
2.75867e-08
3.92864e-10
4.13588e-10
4.1712e-08
8.06939e-10
4.20332e-08
1.52185e-09
4.2355e-08
2.01269e-09
4.2657e-08
2.33381e-09
4.29466e-08
2.56223e-09
4.3219e-08
2.7203e-09
4.34665e-08
2.81129e-09
4.36856e-08
2.84474e-09
4.38747e-08
2.83314e-09
4.40332e-08
2.78712e-09
4.41613e-08
2.7155e-09
4.42603e-08
2.62628e-09
4.43323e-08
2.52659e-09
4.43799e-08
2.42241e-09
4.4406e-08
2.31838e-09
4.44134e-08
2.21786e-09
4.44048e-08
2.12303e-09
4.43825e-08
2.0351e-09
4.43485e-08
1.9545e-09
4.43045e-08
1.88112e-09
4.42516e-08
1.8145e-09
4.41911e-08
1.75399e-09
4.41236e-08
1.69886e-09
4.40497e-08
1.64841e-09
4.39701e-08
1.60196e-09
4.3885e-08
1.55893e-09
4.37949e-08
1.51883e-09
4.36999e-08
1.48125e-09
4.36004e-08
1.44584e-09
4.34966e-08
1.41233e-09
4.33887e-08
1.38051e-09
4.32771e-08
1.35019e-09
4.31617e-08
1.32124e-09
4.3043e-08
1.29353e-09
4.2921e-08
1.26696e-09
4.2796e-08
1.24146e-09
4.26682e-08
1.21694e-09
4.25377e-08
1.19334e-09
4.24047e-08
1.17061e-09
4.22694e-08
1.14869e-09
4.2132e-08
1.12754e-09
4.19926e-08
1.1071e-09
4.18513e-08
1.08735e-09
4.17084e-08
1.06825e-09
4.15639e-08
1.04975e-09
4.14179e-08
1.03183e-09
4.12707e-08
1.01446e-09
4.11223e-08
9.97614e-10
4.09728e-08
9.81261e-10
4.08224e-08
9.6538e-10
4.06711e-08
9.49949e-10
4.05191e-08
9.34945e-10
4.03665e-08
9.2035e-10
4.02133e-08
9.06146e-10
4.00596e-08
8.92314e-10
3.99055e-08
8.7884e-10
3.97512e-08
8.65707e-10
3.95966e-08
8.52903e-10
3.94419e-08
8.40412e-10
3.92872e-08
8.28224e-10
3.91324e-08
8.16325e-10
3.89776e-08
8.04705e-10
3.8823e-08
7.93353e-10
3.86685e-08
7.82259e-10
3.85143e-08
7.71414e-10
3.83603e-08
7.60809e-10
3.82066e-08
7.50435e-10
3.80533e-08
7.40284e-10
3.79004e-08
7.30349e-10
3.77479e-08
7.20621e-10
3.75959e-08
7.11096e-10
3.74445e-08
7.01765e-10
3.72936e-08
6.92622e-10
3.71432e-08
6.83662e-10
3.69935e-08
6.74879e-10
3.68444e-08
6.66268e-10
3.6696e-08
6.57822e-10
3.65482e-08
6.49537e-10
3.64012e-08
6.41409e-10
3.62549e-08
6.33433e-10
3.61093e-08
6.25605e-10
3.59646e-08
6.1792e-10
3.58205e-08
6.10374e-10
3.56773e-08
6.02965e-10
3.55349e-08
5.95687e-10
3.53933e-08
5.88539e-10
3.52526e-08
5.81516e-10
3.51127e-08
5.74615e-10
3.49737e-08
5.67833e-10
3.48355e-08
5.61166e-10
3.46982e-08
5.54612e-10
3.45618e-08
5.48168e-10
3.44262e-08
5.41835e-10
3.42916e-08
5.35625e-10
3.41579e-08
5.29583e-10
3.40251e-08
5.2385e-10
3.38932e-08
5.18871e-10
3.37627e-08
5.16001e-10
3.36373e-08
5.18292e-10
5.19819e-10
4.31956e-08
6.59088e-10
4.34465e-08
1.27089e-09
4.37241e-08
1.73514e-09
4.39971e-08
2.06083e-09
4.42638e-08
2.29555e-09
4.45209e-08
2.46319e-09
4.47621e-08
2.57005e-09
4.49834e-08
2.62347e-09
4.51828e-08
2.63369e-09
4.53596e-08
2.61034e-09
4.55136e-08
2.56155e-09
4.56453e-08
2.49453e-09
4.57562e-08
2.41572e-09
4.5848e-08
2.33063e-09
4.59227e-08
2.24362e-09
4.59826e-08
2.158e-09
4.60296e-08
2.07602e-09
4.60656e-08
1.99907e-09
4.60923e-08
1.92784e-09
4.61109e-08
1.86251e-09
4.61225e-08
1.80287e-09
4.6128e-08
1.74851e-09
4.6128e-08
1.69891e-09
4.61228e-08
1.65351e-09
4.6113e-08
1.61177e-09
4.60988e-08
1.57319e-09
4.60803e-08
1.53734e-09
4.60577e-08
1.50385e-09
4.60311e-08
1.47242e-09
4.60007e-08
1.44277e-09
4.59664e-08
1.41471e-09
4.59286e-08
1.38807e-09
4.58871e-08
1.3627e-09
4.58422e-08
1.33848e-09
4.57938e-08
1.31531e-09
4.57422e-08
1.29311e-09
4.56873e-08
1.27181e-09
4.56293e-08
1.25135e-09
4.55682e-08
1.23165e-09
4.55043e-08
1.21269e-09
4.54374e-08
1.19439e-09
4.53678e-08
1.17673e-09
4.52955e-08
1.15967e-09
4.52205e-08
1.14316e-09
4.51431e-08
1.12718e-09
4.50633e-08
1.11169e-09
4.4981e-08
1.09667e-09
4.48966e-08
1.08208e-09
4.48099e-08
1.06791e-09
4.47212e-08
1.05413e-09
4.46304e-08
1.04072e-09
4.45377e-08
1.02765e-09
4.44431e-08
1.01492e-09
4.43468e-08
1.00251e-09
4.42487e-08
9.90387e-10
4.4149e-08
9.78552e-10
4.40477e-08
9.66986e-10
4.39449e-08
9.55676e-10
4.38407e-08
9.44611e-10
4.37352e-08
9.3378e-10
4.36283e-08
9.23171e-10
4.35203e-08
9.12775e-10
4.3411e-08
9.02583e-10
4.33007e-08
8.92586e-10
4.31894e-08
8.82776e-10
4.3077e-08
8.73146e-10
4.29638e-08
8.63689e-10
4.28497e-08
8.54398e-10
4.27347e-08
8.45267e-10
4.26191e-08
8.3629e-10
4.25027e-08
8.27462e-10
4.23857e-08
8.18777e-10
4.22681e-08
8.10231e-10
4.21499e-08
8.01819e-10
4.20313e-08
7.93536e-10
4.19122e-08
7.8538e-10
4.17926e-08
7.77345e-10
4.16727e-08
7.69429e-10
4.15525e-08
7.61627e-10
4.1432e-08
7.53937e-10
4.13113e-08
7.46356e-10
4.11903e-08
7.3888e-10
4.10692e-08
7.31508e-10
4.09479e-08
7.24236e-10
4.08265e-08
7.17062e-10
4.07051e-08
7.09984e-10
4.05836e-08
7.03e-10
4.04621e-08
6.96108e-10
4.03406e-08
6.89305e-10
4.02192e-08
6.82589e-10
4.00979e-08
6.75957e-10
3.99766e-08
6.69408e-10
3.98555e-08
6.62942e-10
3.97346e-08
6.5657e-10
3.96138e-08
6.50328e-10
3.94934e-08
6.44324e-10
3.93734e-08
6.38854e-10
3.92548e-08
6.34561e-10
3.91416e-08
6.31497e-10
6.16961e-10
4.47577e-08
5.48534e-10
4.49559e-08
1.07267e-09
4.51922e-08
1.49884e-09
4.54357e-08
1.81732e-09
4.56781e-08
2.05316e-09
4.59153e-08
2.226e-09
4.61418e-08
2.34356e-09
4.63533e-08
2.412e-09
4.65475e-08
2.43951e-09
4.67233e-08
2.4345e-09
4.68805e-08
2.40434e-09
4.70195e-08
2.35557e-09
4.71412e-08
2.29403e-09
4.7247e-08
2.22475e-09
4.73388e-08
2.15187e-09
4.74182e-08
2.07857e-09
4.74871e-08
2.00714e-09
4.7547e-08
1.93912e-09
4.75995e-08
1.87539e-09
4.76457e-08
1.81635e-09
4.76865e-08
1.76202e-09
4.77228e-08
1.71221e-09
4.77551e-08
1.66658e-09
4.77839e-08
1.62472e-09
4.78095e-08
1.5862e-09
4.7832e-08
1.55063e-09
4.78517e-08
1.51764e-09
4.78687e-08
1.48691e-09
4.78829e-08
1.45816e-09
4.78946e-08
1.43115e-09
4.79036e-08
1.4057e-09
4.791e-08
1.38164e-09
4.79139e-08
1.35883e-09
4.79152e-08
1.33715e-09
4.7914e-08
1.31651e-09
4.79103e-08
1.29683e-09
4.79041e-08
1.27802e-09
4.78954e-08
1.26003e-09
4.78842e-08
1.2428e-09
4.78707e-08
1.22627e-09
4.78547e-08
1.21039e-09
4.78363e-08
1.19513e-09
4.78155e-08
1.18043e-09
4.77924e-08
1.16627e-09
4.77669e-08
1.15261e-09
4.77392e-08
1.13942e-09
4.77092e-08
1.12666e-09
4.7677e-08
1.11432e-09
4.76425e-08
1.10235e-09
4.76059e-08
1.09075e-09
4.75671e-08
1.07948e-09
4.75263e-08
1.06853e-09
4.74833e-08
1.05788e-09
4.74383e-08
1.04751e-09
4.73913e-08
1.0374e-09
4.73423e-08
1.02753e-09
4.72914e-08
1.0179e-09
4.72386e-08
1.00849e-09
4.71839e-08
9.99283e-10
4.71274e-08
9.90271e-10
4.70692e-08
9.81443e-10
4.70091e-08
9.72788e-10
4.69474e-08
9.64297e-10
4.6884e-08
9.55961e-10
4.68191e-08
9.47772e-10
4.67525e-08
9.39722e-10
4.66844e-08
9.31804e-10
4.66147e-08
9.24012e-10
4.65437e-08
9.16338e-10
4.64712e-08
9.08778e-10
4.63973e-08
9.01327e-10
4.63221e-08
8.93978e-10
4.62456e-08
8.86728e-10
4.61679e-08
8.79572e-10
4.60889e-08
8.72505e-10
4.60088e-08
8.65525e-10
4.59275e-08
8.58628e-10
4.58451e-08
8.5181e-10
4.57617e-08
8.45068e-10
4.56772e-08
8.384e-10
4.55917e-08
8.31803e-10
4.55054e-08
8.25274e-10
4.5418e-08
8.18812e-10
4.53299e-08
8.12414e-10
4.52409e-08
8.06079e-10
4.5151e-08
7.99805e-10
4.50604e-08
7.9359e-10
4.49691e-08
7.87433e-10
4.48771e-08
7.81331e-10
4.47844e-08
7.75283e-10
4.46911e-08
7.69287e-10
4.45971e-08
7.6334e-10
4.45026e-08
7.57442e-10
4.44076e-08
7.51598e-10
4.43121e-08
7.45826e-10
4.42163e-08
7.40175e-10
4.41204e-08
7.34733e-10
4.40255e-08
7.29404e-10
4.3935e-08
7.2205e-10
6.97322e-10
4.63916e-08
4.62962e-10
4.65505e-08
9.13788e-10
4.67508e-08
1.29857e-09
4.69664e-08
1.60173e-09
4.71857e-08
1.83377e-09
4.74035e-08
2.0083e-09
4.76143e-08
2.13276e-09
4.78137e-08
2.2125e-09
4.79992e-08
2.25404e-09
4.81693e-08
2.26443e-09
4.83234e-08
2.25021e-09
4.84617e-08
2.21725e-09
4.8585e-08
2.1708e-09
4.86943e-08
2.11546e-09
4.87911e-08
2.05507e-09
4.88769e-08
1.9927e-09
4.89534e-08
1.93064e-09
4.90221e-08
1.8705e-09
4.90841e-08
1.81332e-09
4.91408e-08
1.75968e-09
4.9193e-08
1.7098e-09
4.92416e-08
1.66367e-09
4.9287e-08
1.62111e-09
4.93299e-08
1.58187e-09
4.93705e-08
1.54564e-09
4.9409e-08
1.5121e-09
4.94457e-08
1.48098e-09
4.94806e-08
1.45199e-09
4.95138e-08
1.4249e-09
4.95455e-08
1.39951e-09
4.95755e-08
1.37564e-09
4.9604e-08
1.35313e-09
4.9631e-08
1.33188e-09
4.96564e-08
1.31175e-09
4.96802e-08
1.29267e-09
4.97025e-08
1.27454e-09
4.97233e-08
1.2573e-09
4.97424e-08
1.24089e-09
4.976e-08
1.22524e-09
4.97759e-08
1.2103e-09
4.97903e-08
1.19603e-09
4.9803e-08
1.18238e-09
4.98142e-08
1.16931e-09
4.98237e-08
1.15678e-09
4.98315e-08
1.14476e-09
4.98377e-08
1.13322e-09
4.98423e-08
1.12212e-09
4.98451e-08
1.11144e-09
4.98463e-08
1.10114e-09
4.98459e-08
1.09121e-09
4.98437e-08
1.08162e-09
4.98399e-08
1.07235e-09
4.98344e-08
1.06337e-09
4.98273e-08
1.05468e-09
4.98184e-08
1.04625e-09
4.98079e-08
1.03806e-09
4.97957e-08
1.0301e-09
4.97818e-08
1.02235e-09
4.97663e-08
1.0148e-09
4.97491e-08
1.00744e-09
4.97303e-08
1.00025e-09
4.97099e-08
9.93233e-10
4.96878e-08
9.86365e-10
4.96641e-08
9.79641e-10
4.96389e-08
9.73051e-10
4.9612e-08
9.66586e-10
4.95836e-08
9.6024e-10
4.95536e-08
9.54004e-10
4.9522e-08
9.47871e-10
4.9489e-08
9.41835e-10
4.94544e-08
9.35889e-10
4.94184e-08
9.30029e-10
4.93808e-08
9.24248e-10
4.93419e-08
9.18542e-10
4.93015e-08
9.12905e-10
4.92597e-08
9.07335e-10
4.92165e-08
9.01826e-10
4.91719e-08
8.96375e-10
4.9126e-08
8.90979e-10
4.90788e-08
8.85634e-10
4.90302e-08
8.80337e-10
4.89804e-08
8.75086e-10
4.89293e-08
8.69879e-10
4.8877e-08
8.64712e-10
4.88235e-08
8.59585e-10
4.87689e-08
8.54495e-10
4.8713e-08
8.4944e-10
4.8656e-08
8.4442e-10
4.85979e-08
8.39431e-10
4.85387e-08
8.34472e-10
4.84785e-08
8.29539e-10
4.84172e-08
8.24631e-10
4.83549e-08
8.19743e-10
4.82916e-08
8.14871e-10
4.82274e-08
8.10012e-10
4.81625e-08
8.05145e-10
4.8097e-08
8.00152e-10
4.80321e-08
7.94371e-10
4.79696e-08
7.84542e-10
7.56146e-10
4.80946e-08
3.94902e-10
4.82239e-08
7.84475e-10
4.83937e-08
1.12876e-09
4.85836e-08
1.41184e-09
4.87815e-08
1.63588e-09
4.89808e-08
1.80898e-09
4.91764e-08
1.93719e-09
4.93638e-08
2.02506e-09
4.95401e-08
2.07774e-09
4.97035e-08
2.10102e-09
4.98532e-08
2.10052e-09
4.99891e-08
2.08143e-09
5.01114e-08
2.04843e-09
5.02212e-08
2.00568e-09
5.03196e-08
1.95672e-09
5.04078e-08
1.90446e-09
5.04873e-08
1.85113e-09
5.05594e-08
1.7984e-09
5.06253e-08
1.7474e-09
5.06861e-08
1.69885e-09
5.07428e-08
1.65313e-09
5.07961e-08
1.6104e-09
5.08466e-08
1.57063e-09
5.08947e-08
1.53368e-09
5.0941e-08
1.49936e-09
5.09857e-08
1.46746e-09
5.10289e-08
1.43774e-09
5.10709e-08
1.41001e-09
5.11117e-08
1.38406e-09
5.11515e-08
1.35972e-09
5.11903e-08
1.33685e-09
5.12281e-08
1.3153e-09
5.1265e-08
1.29497e-09
5.1301e-08
1.27576e-09
5.13361e-08
1.25758e-09
5.13703e-08
1.24035e-09
5.14036e-08
1.22401e-09
5.1436e-08
1.20849e-09
5.14675e-08
1.19374e-09
5.14981e-08
1.17972e-09
5.15277e-08
1.16637e-09
5.15565e-08
1.15365e-09
5.15842e-08
1.14153e-09
5.1611e-08
1.12997e-09
5.16369e-08
1.11893e-09
5.16617e-08
1.10837e-09
5.16856e-08
1.09828e-09
5.17084e-08
1.08862e-09
5.17302e-08
1.07937e-09
5.17509e-08
1.07049e-09
5.17705e-08
1.06197e-09
5.17891e-08
1.05379e-09
5.18066e-08
1.04591e-09
5.18229e-08
1.03833e-09
5.18381e-08
1.03103e-09
5.18522e-08
1.02398e-09
5.18651e-08
1.01718e-09
5.18768e-08
1.0106e-09
5.18874e-08
1.00423e-09
5.18968e-08
9.98063e-10
5.1905e-08
9.92078e-10
5.19119e-08
9.86267e-10
5.19177e-08
9.80618e-10
5.19222e-08
9.75119e-10
5.19255e-08
9.69762e-10
5.19275e-08
9.64537e-10
5.19283e-08
9.59435e-10
5.19279e-08
9.54448e-10
5.19262e-08
9.49568e-10
5.19232e-08
9.44787e-10
5.1919e-08
9.40099e-10
5.19136e-08
9.35498e-10
5.19068e-08
9.30976e-10
5.18989e-08
9.26529e-10
5.18896e-08
9.22151e-10
5.18791e-08
9.17838e-10
5.18673e-08
9.13583e-10
5.18543e-08
9.09383e-10
5.18401e-08
9.05235e-10
5.18246e-08
9.01133e-10
5.18078e-08
8.97075e-10
5.17899e-08
8.93056e-10
5.17707e-08
8.89075e-10
5.17503e-08
8.85129e-10
5.17286e-08
8.81214e-10
5.17058e-08
8.77329e-10
5.16818e-08
8.73472e-10
5.16565e-08
8.6964e-10
5.16301e-08
8.65831e-10
5.16026e-08
8.62042e-10
5.15738e-08
8.5827e-10
5.1544e-08
8.5451e-10
5.1513e-08
8.50755e-10
5.14808e-08
8.46992e-10
5.14477e-08
8.43192e-10
5.14135e-08
8.39275e-10
5.13787e-08
8.3497e-10
5.13438e-08
8.29308e-10
5.13094e-08
8.18882e-10
7.92228e-10
4.98663e-08
3.39593e-10
4.9973e-08
6.77725e-10
5.01175e-08
9.8429e-10
5.02842e-08
1.24508e-09
5.04621e-08
1.458e-09
5.06441e-08
1.62697e-09
5.08251e-08
1.75622e-09
5.10007e-08
1.84942e-09
5.11679e-08
1.9106e-09
5.13245e-08
1.94439e-09
5.14695e-08
1.95554e-09
5.16024e-08
1.94853e-09
5.17233e-08
1.92748e-09
5.18329e-08
1.89612e-09
5.19319e-08
1.85768e-09
5.20216e-08
1.81484e-09
5.21029e-08
1.76979e-09
5.21771e-08
1.72416e-09
5.22454e-08
1.67917e-09
5.23086e-08
1.63563e-09
5.23677e-08
1.59405e-09
5.24233e-08
1.55472e-09
5.24763e-08
1.51772e-09
5.25269e-08
1.48304e-09
5.25757e-08
1.4506e-09
5.26229e-08
1.42025e-09
5.26688e-08
1.39185e-09
5.27135e-08
1.36524e-09
5.27573e-08
1.34027e-09
5.28002e-08
1.3168e-09
5.28424e-08
1.2947e-09
5.28838e-08
1.27387e-09
5.29246e-08
1.2542e-09
5.29647e-08
1.23561e-09
5.30043e-08
1.21802e-09
5.30433e-08
1.20136e-09
5.30817e-08
1.18557e-09
5.31196e-08
1.17059e-09
5.3157e-08
1.15638e-09
5.31938e-08
1.14288e-09
5.32301e-08
1.13005e-09
5.32659e-08
1.11786e-09
5.33012e-08
1.10627e-09
5.33359e-08
1.09524e-09
5.33701e-08
1.08473e-09
5.34038e-08
1.07473e-09
5.34369e-08
1.06519e-09
5.34694e-08
1.0561e-09
5.35013e-08
1.04742e-09
5.35327e-08
1.03913e-09
5.35635e-08
1.03121e-09
5.35936e-08
1.02364e-09
5.36231e-08
1.01639e-09
5.3652e-08
1.00945e-09
5.36802e-08
1.0028e-09
5.37078e-08
9.96422e-10
5.37347e-08
9.90298e-10
5.37609e-08
9.84415e-10
5.37864e-08
9.78758e-10
5.38111e-08
9.73312e-10
5.38351e-08
9.68066e-10
5.38584e-08
9.63006e-10
5.38809e-08
9.58123e-10
5.39026e-08
9.53404e-10
5.39235e-08
9.48839e-10
5.39436e-08
9.4442e-10
5.39629e-08
9.40136e-10
5.39814e-08
9.35979e-10
5.3999e-08
9.31942e-10
5.40158e-08
9.28016e-10
5.40317e-08
9.24193e-10
5.40467e-08
9.20468e-10
5.40609e-08
9.16834e-10
5.40741e-08
9.13284e-10
5.40865e-08
9.09813e-10
5.40979e-08
9.06415e-10
5.41084e-08
9.03085e-10
5.41179e-08
8.99818e-10
5.41266e-08
8.9661e-10
5.41342e-08
8.93456e-10
5.4141e-08
8.90353e-10
5.41467e-08
8.87297e-10
5.41515e-08
8.84284e-10
5.41553e-08
8.81311e-10
5.41582e-08
8.78375e-10
5.416e-08
8.75474e-10
5.41609e-08
8.72605e-10
5.41608e-08
8.69765e-10
5.41596e-08
8.66952e-10
5.41575e-08
8.64163e-10
5.41544e-08
8.61394e-10
5.41503e-08
8.58639e-10
5.41451e-08
8.55886e-10
5.4139e-08
8.53115e-10
5.41319e-08
8.50278e-10
5.4124e-08
8.47253e-10
5.41152e-08
8.43689e-10
5.4106e-08
8.38566e-10
5.40959e-08
8.28998e-10
8.07433e-10
5.17074e-08
2.93866e-10
5.17967e-08
5.88483e-10
5.19202e-08
8.60789e-10
5.20664e-08
1.0988e-09
5.22259e-08
1.29857e-09
5.23917e-08
1.46118e-09
5.25587e-08
1.58919e-09
5.27228e-08
1.68527e-09
5.28809e-08
1.75254e-09
5.30307e-08
1.79464e-09
5.31707e-08
1.81545e-09
5.33005e-08
1.81878e-09
5.34197e-08
1.80823e-09
5.35288e-08
1.78706e-09
5.36283e-08
1.7582e-09
5.3719e-08
1.72412e-09
5.38019e-08
1.68686e-09
5.3878e-08
1.64805e-09
5.39483e-08
1.60891e-09
5.40136e-08
1.57033e-09
5.40747e-08
1.53291e-09
5.41324e-08
1.49702e-09
5.41873e-08
1.46288e-09
5.42398e-08
1.43057e-09
5.42903e-08
1.40008e-09
5.43392e-08
1.37136e-09
5.43867e-08
1.34433e-09
5.4433e-08
1.31888e-09
5.44784e-08
1.2949e-09
5.45229e-08
1.27229e-09
5.45667e-08
1.25094e-09
5.46098e-08
1.23078e-09
5.46523e-08
1.21171e-09
5.46942e-08
1.19366e-09
5.47357e-08
1.17657e-09
5.47767e-08
1.16037e-09
5.48172e-08
1.14501e-09
5.48574e-08
1.13044e-09
5.48971e-08
1.11661e-09
5.49365e-08
1.10348e-09
5.49756e-08
1.09101e-09
5.50143e-08
1.07916e-09
5.50526e-08
1.0679e-09
5.50907e-08
1.0572e-09
5.51284e-08
1.04702e-09
5.51658e-08
1.03734e-09
5.52029e-08
1.02812e-09
5.52396e-08
1.01935e-09
5.5276e-08
1.01099e-09
5.53121e-08
1.00303e-09
5.53479e-08
9.95437e-10
5.53834e-08
9.88198e-10
5.54185e-08
9.81291e-10
5.54532e-08
9.74697e-10
5.54876e-08
9.68399e-10
5.55217e-08
9.6238e-10
5.55553e-08
9.56624e-10
5.55886e-08
9.51116e-10
5.56215e-08
9.45843e-10
5.56541e-08
9.40791e-10
5.56862e-08
9.35948e-10
5.57179e-08
9.31302e-10
5.57492e-08
9.26841e-10
5.578e-08
9.22555e-10
5.58104e-08
9.18435e-10
5.58404e-08
9.1447e-10
5.58699e-08
9.10651e-10
5.58989e-08
9.06971e-10
5.59274e-08
9.03421e-10
5.59554e-08
8.99993e-10
5.59829e-08
8.96681e-10
5.60099e-08
8.93477e-10
5.60364e-08
8.90375e-10
5.60623e-08
8.87369e-10
5.60876e-08
8.84452e-10
5.61124e-08
8.81621e-10
5.61367e-08
8.78868e-10
5.61603e-08
8.7619e-10
5.61833e-08
8.73581e-10
5.62057e-08
8.71038e-10
5.62275e-08
8.68556e-10
5.62487e-08
8.66132e-10
5.62692e-08
8.63761e-10
5.62891e-08
8.61442e-10
5.63083e-08
8.5917e-10
5.63268e-08
8.56943e-10
5.63447e-08
8.54759e-10
5.63618e-08
8.52615e-10
5.63783e-08
8.50509e-10
5.6394e-08
8.48436e-10
5.6409e-08
8.46394e-10
5.64232e-08
8.44374e-10
5.64368e-08
8.42364e-10
5.64495e-08
8.40339e-10
5.64616e-08
8.38238e-10
5.64729e-08
8.35921e-10
5.64836e-08
8.33031e-10
5.64935e-08
8.28679e-10
5.65016e-08
8.20816e-10
8.05549e-10
5.36195e-08
2.55524e-10
5.3695e-08
5.1305e-10
5.38011e-08
7.54628e-10
5.39295e-08
9.70428e-10
5.40721e-08
1.15593e-09
5.42228e-08
1.31053e-09
5.43766e-08
1.43538e-09
5.45296e-08
1.53227e-09
5.46787e-08
1.60349e-09
5.48215e-08
1.65184e-09
5.49565e-08
1.68043e-09
5.50828e-08
1.69244e-09
5.52001e-08
1.69094e-09
5.53084e-08
1.67877e-09
5.54081e-08
1.65853e-09
5.54997e-08
1.63247e-09
5.55841e-08
1.60249e-09
5.5662e-08
1.57015e-09
5.57342e-08
1.53666e-09
5.58016e-08
1.50294e-09
5.58649e-08
1.46966e-09
5.59246e-08
1.43727e-09
5.59814e-08
1.40607e-09
5.60358e-08
1.37621e-09
5.60881e-08
1.34779e-09
5.61386e-08
1.3208e-09
5.61878e-08
1.29523e-09
5.62356e-08
1.27102e-09
5.62824e-08
1.2481e-09
5.63283e-08
1.22641e-09
5.63734e-08