/*--------------------------------*- C++ -*----------------------------------*\
| =========                 |                                                 |
| \\      /  F ield         | OpenFOAM: The Open Source CFD Toolbox           |
|  \\    /   O peration     | Version:  2.3.0                                 |
|   \\  /    A nd           | Web:      www.OpenFOAM.org                      |
|    \\/     M anipulation  |                                                 |
\*---------------------------------------------------------------------------*/
FoamFile
{
    version     2.0;
    format      ascii;
    class       volVectorField;
    location    "0.1";
    object      U_0;
}
// * * * * * * * * * * * * * * * * * * * * * * * * * * * * * * * * * * * * * //

dimensions      [0 1 -1 0 0 0 0];

internalField   nonuniform List<vector> 
3375
(
(0.170967 0.00597166 0)
(0.154481 0.00604098 0)
(0.138639 0.00561947 0)
(0.123631 0.00501671 0)
(0.10987 0.00435054 0)
(0.0975275 0.00367476 0)
(0.0866168 0.0030266 0)
(0.0771036 0.00243191 0)
(0.0689312 0.00190646 0)
(0.0620131 0.00145822 0)
(0.0562338 0.00108886 0)
(0.0514585 0.00079474 0)
(0.0475446 0.000568252 0)
(0.0443521 0.000399396 0)
(0.0417503 0.00027739 0)
(0.0396238 0.000191892 0)
(0.0378743 0.000133767 0)
(0.0364218 9.54381e-05 0)
(0.0352027 7.09274e-05 0)
(0.0341685 5.5709e-05 0)
(0.0332828 4.64363e-05 0)
(0.0325196 4.06001e-05 0)
(0.0318607 3.6192e-05 0)
(0.0312957 3.15036e-05 0)
(0.0308202 2.52058e-05 0)
(0.0304349 1.67765e-05 0)
(0.0301445 6.77797e-06 0)
(0.0299562 -3.93712e-06 0)
(0.0298794 -1.18275e-05 0)
(0.029902 -1.61588e-05 0)
(0.0299845 -1.73941e-05 0)
(0.0301083 -1.91216e-05 0)
(0.0302565 -2.00064e-05 0)
(0.0304134 -1.94608e-05 0)
(0.0305667 -1.79264e-05 0)
(0.030709 -1.59432e-05 0)
(0.0308366 -1.38685e-05 0)
(0.0309483 -1.18972e-05 0)
(0.0310444 -1.01216e-05 0)
(0.0311261 -8.57247e-06 0)
(0.031195 -7.24598e-06 0)
(0.0312529 -6.12263e-06 0)
(0.0313012 -5.1783e-06 0)
(0.0313416 -4.38907e-06 0)
(0.0313753 -3.73079e-06 0)
(0.0314034 -3.18201e-06 0)
(0.0314271 -2.72589e-06 0)
(0.0314471 -2.34842e-06 0)
(0.0314642 -2.03733e-06 0)
(0.0314788 -1.7817e-06 0)
(0.0314915 -1.57181e-06 0)
(0.0315026 -1.3991e-06 0)
(0.0315125 -1.25616e-06 0)
(0.0315214 -1.13672e-06 0)
(0.0315294 -1.03561e-06 0)
(0.0315368 -9.4866e-07 0)
(0.0315435 -8.72603e-07 0)
(0.0315498 -8.04931e-07 0)
(0.0315556 -7.43778e-07 0)
(0.0315609 -6.87799e-07 0)
(0.0315659 -6.36049e-07 0)
(0.0315706 -5.87886e-07 0)
(0.0315749 -5.42879e-07 0)
(0.0315789 -5.00751e-07 0)
(0.0315826 -4.61311e-07 0)
(0.0315861 -4.24421e-07 0)
(0.0315893 -3.89974e-07 0)
(0.0315923 -3.5787e-07 0)
(0.031595 -3.28011e-07 0)
(0.0315975 -3.00303e-07 0)
(0.0315999 -2.74626e-07 0)
(0.031602 -2.50885e-07 0)
(0.031604 -2.2895e-07 0)
(0.0316058 -2.08718e-07 0)
(0.0316075 -1.90077e-07 0)
(0.031609 -1.72905e-07 0)
(0.0316104 -1.57123e-07 0)
(0.0316117 -1.42599e-07 0)
(0.0316128 -1.29268e-07 0)
(0.0316139 -1.17014e-07 0)
(0.0316149 -1.05766e-07 0)
(0.0316158 -9.54398e-08 0)
(0.0316166 -8.5954e-08 0)
(0.0316173 -7.72466e-08 0)
(0.031618 -6.92445e-08 0)
(0.0316185 -6.18882e-08 0)
(0.0316191 -5.51212e-08 0)
(0.0316196 -4.88818e-08 0)
(0.03162 -4.31221e-08 0)
(0.0316204 -3.7786e-08 0)
(0.0316207 -3.2828e-08 0)
(0.031621 -2.81996e-08 0)
(0.0316212 -2.3853e-08 0)
(0.0316214 -1.97367e-08 0)
(0.0316216 -1.57838e-08 0)
(0.0316218 -1.19059e-08 0)
(0.0316219 -7.97387e-09 0)
(0.0316219 -3.99058e-09 0)
(0.031622 -1.71473e-09 0)
(0.0316219 1.45081e-08 0)
(0.189893 0.00942614 0)
(0.18761 0.0099365 0)
(0.183732 0.00971249 0)
(0.178616 0.00921227 0)
(0.172761 0.00857435 0)
(0.166517 0.00784548 0)
(0.160107 0.00706423 0)
(0.153699 0.00626613 0)
(0.147431 0.00548101 0)
(0.141403 0.0047333 0)
(0.135685 0.00404209 0)
(0.13032 0.00342043 0)
(0.125329 0.00287514 0)
(0.120718 0.00240726 0)
(0.116482 0.00201313 0)
(0.112608 0.0016858 0)
(0.10908 0.00141646 0)
(0.105879 0.00119566 0)
(0.102986 0.00101424 0)
(0.100382 0.000863942 0)
(0.0980495 0.000737598 0)
(0.0959762 0.000629073 0)
(0.0941514 0.000533017 0)
(0.0925687 0.000444658 0)
(0.0912251 0.000359933 0)
(0.0901192 0.000276224 0)
(0.0892474 0.000193122 0)
(0.0885995 0.00011132 0)
(0.0881536 3.26748e-05 0)
(0.0879175 -3.80498e-05 0)
(0.0879055 -8.71282e-05 0)
(0.0880323 -0.000112344 0)
(0.0882445 -0.000120766 0)
(0.0885033 -0.000118329 0)
(0.0887795 -0.000109393 0)
(0.0890526 -9.72531e-05 0)
(0.08931 -8.41739e-05 0)
(0.0895444 -7.15219e-05 0)
(0.0897526 -6.00132e-05 0)
(0.0899342 -4.99428e-05 0)
(0.0900902 -4.13545e-05 0)
(0.0902226 -3.41566e-05 0)
(0.090334 -2.81967e-05 0)
(0.0904269 -2.33055e-05 0)
(0.0905039 -1.9318e-05 0)
(0.0905675 -1.60835e-05 0)
(0.0906199 -1.34706e-05 0)
(0.0906631 -1.13671e-05 0)
(0.0906988 -9.67811e-06 0)
(0.0907284 -8.3238e-06 0)
(0.0907532 -7.23727e-06 0)
(0.0907742 -6.36283e-06 0)
(0.0907922 -5.65446e-06 0)
(0.0908079 -5.07465e-06 0)
(0.0908216 -4.59332e-06 0)
(0.0908339 -4.18678e-06 0)
(0.090845 -3.83676e-06 0)
(0.090855 -3.52952e-06 0)
(0.0908643 -3.25495e-06 0)
(0.0908728 -3.00581e-06 0)
(0.0908807 -2.77707e-06 0)
(0.090888 -2.56531e-06 0)
(0.0908948 -2.36819e-06 0)
(0.0909011 -2.18421e-06 0)
(0.0909069 -2.01232e-06 0)
(0.0909123 -1.85179e-06 0)
(0.0909174 -1.70204e-06 0)
(0.090922 -1.56255e-06 0)
(0.0909263 -1.43285e-06 0)
(0.0909303 -1.31247e-06 0)
(0.090934 -1.20092e-06 0)
(0.0909373 -1.09771e-06 0)
(0.0909405 -1.00233e-06 0)
(0.0909433 -9.14299e-07 0)
(0.090946 -8.33134e-07 0)
(0.0909484 -7.5834e-07 0)
(0.0909506 -6.8951e-07 0)
(0.0909526 -6.26159e-07 0)
(0.0909545 -5.67924e-07 0)
(0.0909562 -5.14383e-07 0)
(0.0909577 -4.6518e-07 0)
(0.0909591 -4.19975e-07 0)
(0.0909604 -3.78425e-07 0)
(0.0909616 -3.40246e-07 0)
(0.0909626 -3.05137e-07 0)
(0.0909636 -2.72834e-07 0)
(0.0909644 -2.43088e-07 0)
(0.0909652 -2.15648e-07 0)
(0.0909659 -1.90298e-07 0)
(0.0909665 -1.66814e-07 0)
(0.090967 -1.44993e-07 0)
(0.0909674 -1.24635e-07 0)
(0.0909678 -1.05543e-07 0)
(0.0909682 -8.75158e-08 0)
(0.0909684 -7.03211e-08 0)
(0.0909687 -5.36832e-08 0)
(0.0909688 -3.72581e-08 0)
(0.0909689 -2.07565e-08 0)
(0.090969 -4.61225e-09 0)
(0.0909689 3.41419e-08 0)
(0.192879 0.00902897 0)
(0.193685 0.00998069 0)
(0.193858 0.0103122 0)
(0.193249 0.0103144 0)
(0.191968 0.0100862 0)
(0.190137 0.00966556 0)
(0.187846 0.00909739 0)
(0.185184 0.00843154 0)
(0.182245 0.00771366 0)
(0.179118 0.00698237 0)
(0.175882 0.00626866 0)
(0.172604 0.00559518 0)
(0.169339 0.00497621 0)
(0.166129 0.00441849 0)
(0.163008 0.00392268 0)
(0.16 0.00348513 0)
(0.157123 0.00309964 0)
(0.154392 0.00275883 0)
(0.151816 0.00245511 0)
(0.149405 0.00218134 0)
(0.147167 0.00193098 0)
(0.14511 0.00169807 0)
(0.143244 0.00147726 0)
(0.141578 0.00126389 0)
(0.140122 0.00105458 0)
(0.138881 0.0008481 0)
(0.137857 0.000645966 0)
(0.137047 0.000452231 0)
(0.13644 0.000270008 0)
(0.135998 0.000102386 0)
(0.135698 -3.93589e-05 0)
(0.135576 -0.000140688 0)
(0.13559 -0.000201048 0)
(0.135705 -0.000229486 0)
(0.135891 -0.000235387 0)
(0.136119 -0.000226536 0)
(0.13637 -0.000208961 0)
(0.136625 -0.000187014 0)
(0.136874 -0.000163634 0)
(0.137108 -0.00014069 0)
(0.137323 -0.000119284 0)
(0.137516 -9.99949e-05 0)
(0.137686 -8.3059e-05 0)
(0.137833 -6.84936e-05 0)
(0.137958 -5.61835e-05 0)
(0.138064 -4.59376e-05 0)
(0.138151 -3.75268e-05 0)
(0.138223 -3.07084e-05 0)
(0.138281 -2.52429e-05 0)
(0.138328 -2.09039e-05 0)
(0.138366 -1.74856e-05 0)
(0.138396 -1.48059e-05 0)
(0.13842 -1.27082e-05 0)
(0.13844 -1.10614e-05 0)
(0.138456 -9.75836e-06 0)
(0.138469 -8.71346e-06 0)
(0.13848 -7.86012e-06 0)
(0.13849 -7.14773e-06 0)
(0.138498 -6.53875e-06 0)
(0.138505 -6.00606e-06 0)
(0.138512 -5.5306e-06 0)
(0.138518 -5.09928e-06 0)
(0.138523 -4.70333e-06 0)
(0.138528 -4.33701e-06 0)
(0.138533 -3.99656e-06 0)
(0.138537 -3.67953e-06 0)
(0.138541 -3.38416e-06 0)
(0.138544 -3.10915e-06 0)
(0.138548 -2.85339e-06 0)
(0.138551 -2.61587e-06 0)
(0.138554 -2.39561e-06 0)
(0.138557 -2.19164e-06 0)
(0.138559 -2.00297e-06 0)
(0.138561 -1.82865e-06 0)
(0.138563 -1.66776e-06 0)
(0.138565 -1.51935e-06 0)
(0.138567 -1.38258e-06 0)
(0.138569 -1.25657e-06 0)
(0.13857 -1.14056e-06 0)
(0.138572 -1.03379e-06 0)
(0.138573 -9.35524e-07 0)
(0.138574 -8.45117e-07 0)
(0.138575 -7.61917e-07 0)
(0.138576 -6.85343e-07 0)
(0.138577 -6.14831e-07 0)
(0.138578 -5.49849e-07 0)
(0.138578 -4.89912e-07 0)
(0.138579 -4.34538e-07 0)
(0.138579 -3.83291e-07 0)
(0.13858 -3.35745e-07 0)
(0.13858 -2.91494e-07 0)
(0.138581 -2.50151e-07 0)
(0.138581 -2.1133e-07 0)
(0.138581 -1.7465e-07 0)
(0.138581 -1.3969e-07 0)
(0.138582 -1.0598e-07 0)
(0.138582 -7.29969e-08 0)
(0.138582 -4.0237e-08 0)
(0.138582 -4.35409e-09 0)
(0.138582 5.64786e-08 0)
(0.193918 0.00836724 0)
(0.195075 0.00940832 0)
(0.196139 0.00995797 0)
(0.196897 0.010193 0)
(0.197325 0.0101948 0)
(0.19743 0.00999507 0)
(0.19721 0.00962929 0)
(0.196672 0.00913995 0)
(0.19584 0.00856873 0)
(0.194755 0.00795277 0)
(0.193459 0.00732354 0)
(0.191998 0.00670585 0)
(0.190415 0.00611727 0)
(0.188751 0.00556836 0)
(0.18704 0.00506366 0)
(0.185311 0.00460311 0)
(0.183591 0.00418352 0)
(0.181899 0.00379979 0)
(0.180254 0.00344596 0)
(0.178672 0.00311581 0)
(0.177167 0.00280324 0)
(0.175753 0.00250247 0)
(0.174443 0.00220828 0)
(0.173249 0.0019165 0)
(0.172183 0.00162482 0)
(0.17125 0.00133373 0)
(0.170455 0.00104695 0)
(0.169797 0.000771251 0)
(0.169269 0.000515613 0)
(0.168862 0.000288619 0)
(0.168544 9.38044e-05 0)
(0.168304 -6.2466e-05 0)
(0.16816 -0.000174541 0)
(0.168101 -0.00024602 0)
(0.168116 -0.00028501 0)
(0.16819 -0.000299688 0)
(0.16831 -0.000297124 0)
(0.168462 -0.000283032 0)
(0.168633 -0.000261796 0)
(0.168814 -0.000236654 0)
(0.168997 -0.000209927 0)
(0.169175 -0.000183233 0)
(0.169343 -0.000157669 0)
(0.169498 -0.000133943 0)
(0.169637 -0.000112475 0)
(0.169759 -9.34734e-05 0)
(0.169865 -7.69849e-05 0)
(0.169955 -6.29389e-05 0)
(0.170029 -5.11805e-05 0)
(0.17009 -4.14983e-05 0)
(0.170139 -3.36483e-05 0)
(0.170177 -2.73737e-05 0)
(0.170207 -2.24206e-05 0)
(0.17023 -1.855e-05 0)
(0.170247 -1.55464e-05 0)
(0.170259 -1.32224e-05 0)
(0.170269 -1.14201e-05 0)
(0.170276 -1.0011e-05 0)
(0.170281 -8.89334e-06 0)
(0.170284 -7.98878e-06 0)
(0.170287 -7.23885e-06 0)
(0.17029 -6.60104e-06 0)
(0.170291 -6.04524e-06 0)
(0.170293 -5.55075e-06 0)
(0.170294 -5.10367e-06 0)
(0.170295 -4.69479e-06 0)
(0.170296 -4.3181e-06 0)
(0.170297 -3.96959e-06 0)
(0.170298 -3.64649e-06 0)
(0.170299 -3.34677e-06 0)
(0.1703 -3.0688e-06 0)
(0.1703 -2.81117e-06 0)
(0.170301 -2.57258e-06 0)
(0.170302 -2.3518e-06 0)
(0.170302 -2.14767e-06 0)
(0.170303 -1.95905e-06 0)
(0.170303 -1.78486e-06 0)
(0.170304 -1.62408e-06 0)
(0.170304 -1.47572e-06 0)
(0.170305 -1.33886e-06 0)
(0.170305 -1.21261e-06 0)
(0.170306 -1.09616e-06 0)
(0.170306 -9.88715e-07 0)
(0.170306 -8.89547e-07 0)
(0.170307 -7.97964e-07 0)
(0.170307 -7.13294e-07 0)
(0.170307 -6.34933e-07 0)
(0.170307 -5.62277e-07 0)
(0.170307 -4.94775e-07 0)
(0.170307 -4.31889e-07 0)
(0.170308 -3.73101e-07 0)
(0.170308 -3.17916e-07 0)
(0.170308 -2.65839e-07 0)
(0.170308 -2.1639e-07 0)
(0.170308 -1.69047e-07 0)
(0.170308 -1.23241e-07 0)
(0.170308 -7.85018e-08 0)
(0.170308 -3.4004e-08 0)
(0.170307 1.71179e-08 0)
(0.170307 9.4006e-08 0)
(0.194654 0.00784425 0)
(0.195668 0.00881669 0)
(0.196759 0.0093999 0)
(0.197761 0.00970441 0)
(0.198629 0.00980107 0)
(0.199346 0.0097195 0)
(0.199889 0.00948545 0)
(0.200237 0.00913066 0)
(0.200381 0.00868822 0)
(0.200328 0.00818911 0)
(0.200095 0.00766075 0)
(0.199701 0.007126 0)
(0.199173 0.00660217 0)
(0.198537 0.0061008 0)
(0.197819 0.00562817 0)
(0.19704 0.00518623 0)
(0.196223 0.00477368 0)
(0.195384 0.00438713 0)
(0.194541 0.0040219 0)
(0.193705 0.00367276 0)
(0.19289 0.00333434 0)
(0.192107 0.00300148 0)
(0.191366 0.00266972 0)
(0.190675 0.00233588 0)
(0.19004 0.00199898 0)
(0.189466 0.00166101 0)
(0.188954 0.00132728 0)
(0.188504 0.00100605 0)
(0.188115 0.000707696 0)
(0.187783 0.000442978 0)
(0.187505 0.000218345 0)
(0.187264 3.52587e-05 0)
(0.187065 -0.000105455 0)
(0.186915 -0.000205426 0)
(0.186814 -0.000270474 0)
(0.186758 -0.000307665 0)
(0.186743 -0.000323543 0)
(0.186763 -0.000323681 0)
(0.186811 -0.000312621 0)
(0.186879 -0.000293948 0)
(0.186963 -0.000270436 0)
(0.187055 -0.000244215 0)
(0.187151 -0.000216903 0)
(0.187248 -0.000189723 0)
(0.18734 -0.000163584 0)
(0.187426 -0.000139137 0)
(0.187505 -0.000116822 0)
(0.187573 -9.68979e-05 0)
(0.187633 -7.94755e-05 0)
(0.187682 -6.454e-05 0)
(0.187722 -5.19792e-05 0)
(0.187754 -4.1609e-05 0)
(0.187778 -3.31976e-05 0)
(0.187795 -2.64881e-05 0)
(0.187808 -2.12177e-05 0)
(0.187816 -1.71329e-05 0)
(0.18782 -1.40008e-05 0)
(0.187823 -1.16164e-05 0)
(0.187823 -9.8052e-06 0)
(0.187822 -8.42444e-06 0)
(0.18782 -7.36059e-06 0)
(0.187818 -6.52626e-06 0)
(0.187815 -5.8561e-06 0)
(0.187812 -5.30276e-06 0)
(0.18781 -4.83283e-06 0)
(0.187807 -4.42337e-06 0)
(0.187805 -4.05902e-06 0)
(0.187803 -3.72966e-06 0)
(0.187801 -3.42866e-06 0)
(0.187799 -3.15166e-06 0)
(0.187797 -2.89571e-06 0)
(0.187795 -2.65868e-06 0)
(0.187794 -2.43895e-06 0)
(0.187793 -2.23518e-06 0)
(0.187791 -2.04623e-06 0)
(0.18779 -1.87103e-06 0)
(0.187789 -1.70861e-06 0)
(0.187789 -1.55806e-06 0)
(0.187788 -1.41852e-06 0)
(0.187787 -1.28918e-06 0)
(0.187786 -1.16927e-06 0)
(0.187786 -1.05808e-06 0)
(0.187785 -9.54904e-07 0)
(0.187785 -8.59101e-07 0)
(0.187785 -7.70059e-07 0)
(0.187784 -6.87171e-07 0)
(0.187784 -6.09889e-07 0)
(0.187783 -5.37664e-07 0)
(0.187783 -4.69982e-07 0)
(0.187783 -4.06344e-07 0)
(0.187783 -3.46256e-07 0)
(0.187782 -2.89244e-07 0)
(0.187782 -2.3483e-07 0)
(0.187782 -1.82563e-07 0)
(0.187782 -1.31992e-07 0)
(0.187781 -8.26272e-08 0)
(0.187781 -3.358e-08 0)
(0.187781 1.73565e-08 0)
(0.187781 7.76146e-08 0)
(0.18778 1.59421e-07 0)
(0.195282 0.00739289 0)
(0.19612 0.00825862 0)
(0.197076 0.0088251 0)
(0.198026 0.00915213 0)
(0.198924 0.00929366 0)
(0.19975 0.00927658 0)
(0.200482 0.00912179 0)
(0.201097 0.00885444 0)
(0.201583 0.00850174 0)
(0.201933 0.00808984 0)
(0.202153 0.00764229 0)
(0.202251 0.00717914 0)
(0.20224 0.00671613 0)
(0.202137 0.00626436 0)
(0.201957 0.00583045 0)
(0.201717 0.00541721 0)
(0.20143 0.0050245 0)
(0.201109 0.00465007 0)
(0.200767 0.00429032 0)
(0.20041 0.00394095 0)
(0.200049 0.00359741 0)
(0.199689 0.00325538 0)
(0.199334 0.00291126 0)
(0.198989 0.00256285 0)
(0.198656 0.00221012 0)
(0.198335 0.00185591 0)
(0.198025 0.00150609 0)
(0.197727 0.00116919 0)
(0.197441 0.000855401 0)
(0.197168 0.000575123 0)
(0.196913 0.000336183 0)
(0.196678 0.000140347 0)
(0.196458 -1.43353e-05 0)
(0.196262 -0.000130502 0)
(0.196095 -0.00021258 0)
(0.195958 -0.000266327 0)
(0.195851 -0.000297444 0)
(0.195771 -0.000310981 0)
(0.195715 -0.0003112 0)
(0.195681 -0.000301594 0)
(0.195665 -0.000284983 0)
(0.195663 -0.000263628 0)
(0.195672 -0.000239346 0)
(0.195688 -0.000213595 0)
(0.195709 -0.000187542 0)
(0.195733 -0.00016211 0)
(0.195757 -0.000138007 0)
(0.195779 -0.000115747 0)
(0.1958 -9.56725e-05 0)
(0.195817 -7.797e-05 0)
(0.195831 -6.26922e-05 0)
(0.195841 -4.97807e-05 0)
(0.195848 -3.90908e-05 0)
(0.195852 -3.04166e-05 0)
(0.195852 -2.35149e-05 0)
(0.195851 -1.81269e-05 0)
(0.195848 -1.39958e-05 0)
(0.195843 -1.08804e-05 0)
(0.195837 -8.56452e-06 0)
(0.195831 -6.86205e-06 0)
(0.195825 -5.61877e-06 0)
(0.195818 -4.71103e-06 0)
(0.195811 -4.04307e-06 0)
(0.195805 -3.54313e-06 0)
(0.195799 -3.15907e-06 0)
(0.195794 -2.85406e-06 0)
(0.195789 -2.60288e-06 0)
(0.195784 -2.38873e-06 0)
(0.195779 -2.20066e-06 0)
(0.195775 -2.03168e-06 0)
(0.195771 -1.87737e-06 0)
(0.195768 -1.73494e-06 0)
(0.195765 -1.60258e-06 0)
(0.195762 -1.47904e-06 0)
(0.195759 -1.36348e-06 0)
(0.195757 -1.25517e-06 0)
(0.195755 -1.15356e-06 0)
(0.195753 -1.05815e-06 0)
(0.195751 -9.685e-07 0)
(0.195749 -8.84221e-07 0)
(0.195748 -8.04905e-07 0)
(0.195747 -7.30213e-07 0)
(0.195745 -6.59784e-07 0)
(0.195744 -5.93272e-07 0)
(0.195743 -5.30355e-07 0)
(0.195742 -4.70688e-07 0)
(0.195741 -4.13962e-07 0)
(0.195741 -3.5985e-07 0)
(0.19574 -3.08035e-07 0)
(0.195739 -2.58197e-07 0)
(0.195739 -2.10003e-07 0)
(0.195738 -1.63126e-07 0)
(0.195738 -1.17202e-07 0)
(0.195737 -7.18288e-08 0)
(0.195737 -2.65808e-08 0)
(0.195737 1.90472e-08 0)
(0.195736 6.62772e-08 0)
(0.195736 1.17809e-07 0)
(0.195735 1.78745e-07 0)
(0.195735 2.5353e-07 0)
(0.195832 0.00700519 0)
(0.196528 0.00776554 0)
(0.197344 0.00829882 0)
(0.198189 0.00862941 0)
(0.199017 0.00879352 0)
(0.199805 0.00881429 0)
(0.200533 0.00871002 0)
(0.201185 0.00850165 0)
(0.201747 0.0082122 0)
(0.202213 0.00786411 0)
(0.202582 0.00747779 0)
(0.202861 0.0070708 0)
(0.203056 0.00665725 0)
(0.203178 0.00624744 0)
(0.203238 0.00584793 0)
(0.203246 0.00546202 0)
(0.203214 0.00509032 0)
(0.20315 0.00473151 0)
(0.203061 0.0043829 0)
(0.202953 0.00404109 0)
(0.20283 0.00370238 0)
(0.202696 0.00336328 0)
(0.202551 0.00302101 0)
(0.202396 0.00267415 0)
(0.20223 0.00232328 0)
(0.202051 0.0019715 0)
(0.201856 0.00162454 0)
(0.201647 0.00129036 0)
(0.201423 0.000978217 0)
(0.201188 0.000697284 0)
(0.20095 0.000454693 0)
(0.200714 0.000253361 0)
(0.200487 9.16555e-05 0)
(0.20027 -3.38038e-05 0)
(0.200069 -0.000126941 0)
(0.199889 -0.000192492 0)
(0.199729 -0.000235348 0)
(0.19959 -0.000260004 0)
(0.199471 -0.00027037 0)
(0.199371 -0.00026974 0)
(0.199288 -0.000260851 0)
(0.199219 -0.000245957 0)
(0.199163 -0.00022692 0)
(0.199118 -0.000205282 0)
(0.199082 -0.000182319 0)
(0.199053 -0.000159076 0)
(0.19903 -0.000136395 0)
(0.199011 -0.000114931 0)
(0.198995 -9.51602e-05 0)
(0.198981 -7.74006e-05 0)
(0.198969 -6.18223e-05 0)
(0.198957 -4.84693e-05 0)
(0.198946 -3.72813e-05 0)
(0.198935 -2.81175e-05 0)
(0.198924 -2.07812e-05 0)
(0.198913 -1.50425e-05 0)
(0.198902 -1.06584e-05 0)
(0.198891 -7.38934e-06 0)
(0.19888 -5.01221e-06 0)
(0.19887 -3.32825e-06 0)
(0.19886 -2.16806e-06 0)
(0.19885 -1.39265e-06 0)
(0.198841 -8.91797e-07 0)
(0.198832 -5.80861e-07 0)
(0.198824 -3.97085e-07 0)
(0.198817 -2.95478e-07 0)
(0.19881 -2.44881e-07 0)
(0.198803 -2.24447e-07 0)
(0.198797 -2.2065e-07 0)
(0.198792 -2.2501e-07 0)
(0.198787 -2.3241e-07 0)
(0.198782 -2.39875e-07 0)
(0.198778 -2.45801e-07 0)
(0.198774 -2.49353e-07 0)
(0.198771 -2.50216e-07 0)
(0.198767 -2.48315e-07 0)
(0.198764 -2.43729e-07 0)
(0.198762 -2.36639e-07 0)
(0.198759 -2.27222e-07 0)
(0.198757 -2.1572e-07 0)
(0.198755 -2.02311e-07 0)
(0.198753 -1.87197e-07 0)
(0.198752 -1.70533e-07 0)
(0.19875 -1.52448e-07 0)
(0.198749 -1.33059e-07 0)
(0.198748 -1.12428e-07 0)
(0.198747 -9.06164e-08 0)
(0.198746 -6.76388e-08 0)
(0.198745 -4.34865e-08 0)
(0.198744 -1.81187e-08 0)
(0.198743 8.54687e-09 0)
(0.198742 3.66193e-08 0)
(0.198742 6.62745e-08 0)
(0.198741 9.77721e-08 0)
(0.198741 1.31476e-07 0)
(0.19874 1.67918e-07 0)
(0.19874 2.07989e-07 0)
(0.198739 2.53411e-07 0)
(0.198739 3.07126e-07 0)
(0.198738 3.68697e-07 0)
(0.196318 0.00666923 0)
(0.196905 0.00733307 0)
(0.1976 0.00782439 0)
(0.19834 0.00814685 0)
(0.199082 0.008322 0)
(0.1998 0.00836817 0)
(0.200477 0.00830106 0)
(0.201097 0.00813807 0)
(0.201649 0.00789848 0)
(0.202126 0.0076015 0)
(0.202528 0.00726485 0)
(0.202856 0.00690399 0)
(0.203117 0.0065316 0)
(0.203319 0.00615725 0)
(0.203469 0.00578739 0)
(0.203575 0.00542565 0)
(0.203646 0.00507331 0)
(0.203689 0.00472983 0)
(0.203708 0.00439342 0)
(0.203707 0.00406153 0)
(0.203689 0.00373134 0)
(0.203656 0.00340018 0)
(0.203606 0.00306603 0)
(0.203537 0.00272809 0)
(0.203449 0.00238729 0)
(0.203337 0.0020467 0)
(0.2032 0.00171153 0)
(0.203038 0.00138883 0)
(0.20285 0.00108659 0)
(0.202643 0.000812642 0)
(0.202421 0.000573089 0)
(0.202192 0.000370932 0)
(0.201965 0.000205675 0)
(0.201744 7.4467e-05 0)
(0.201533 -2.63797e-05 0)
(0.201335 -0.000100818 0)
(0.201153 -0.000153049 0)
(0.200988 -0.000187057 0)
(0.200839 -0.000206399 0)
(0.200707 -0.000214148 0)
(0.200589 -0.000212915 0)
(0.200486 -0.0002049 0)
(0.200396 -0.000191953 0)
(0.200317 -0.000175634 0)
(0.200249 -0.000157253 0)
(0.20019 -0.000137903 0)
(0.200139 -0.000118483 0)
(0.200095 -9.97076e-05 0)
(0.200057 -8.2122e-05 0)
(0.200024 -6.61117e-05 0)
(0.199995 -5.19162e-05 0)
(0.19997 -3.96468e-05 0)
(0.199947 -2.93058e-05 0)
(0.199926 -2.08091e-05 0)
(0.199908 -1.40089e-05 0)
(0.19989 -8.71527e-06 0)
(0.199875 -4.71653e-06 0)
(0.19986 -1.79651e-06 0)
(0.199846 2.51786e-07 0)
(0.199833 1.61734e-06 0)
(0.199821 2.46499e-06 0)
(0.199809 2.93266e-06 0)
(0.199799 3.13151e-06 0)
(0.199789 3.14814e-06 0)
(0.19978 3.04748e-06 0)
(0.199771 2.87646e-06 0)
(0.199763 2.66779e-06 0)
(0.199756 2.44346e-06 0)
(0.199749 2.21765e-06 0)
(0.199743 1.99908e-06 0)
(0.199738 1.79281e-06 0)
(0.199733 1.60146e-06 0)
(0.199728 1.42611e-06 0)
(0.199724 1.26692e-06 0)
(0.19972 1.12344e-06 0)
(0.199716 9.94937e-07 0)
(0.199713 8.80521e-07 0)
(0.19971 7.79193e-07 0)
(0.199707 6.89997e-07 0)
(0.199705 6.11946e-07 0)
(0.199702 5.44154e-07 0)
(0.1997 4.85758e-07 0)
(0.199698 4.35976e-07 0)
(0.199697 3.94104e-07 0)
(0.199695 3.59488e-07 0)
(0.199694 3.31572e-07 0)
(0.199693 3.09843e-07 0)
(0.199691 2.93871e-07 0)
(0.19969 2.83288e-07 0)
(0.19969 2.77794e-07 0)
(0.199689 2.77163e-07 0)
(0.199688 2.81234e-07 0)
(0.199687 2.89928e-07 0)
(0.199686 3.03236e-07 0)
(0.199686 3.21282e-07 0)
(0.199685 3.44382e-07 0)
(0.199685 3.73134e-07 0)
(0.199684 4.08632e-07 0)
(0.199684 4.52152e-07 0)
(0.199683 4.99965e-07 0)
(0.196747 0.00637219 0)
(0.197249 0.00695034 0)
(0.197845 0.00739645 0)
(0.198491 0.00770383 0)
(0.19915 0.00788314 0)
(0.199797 0.00794753 0)
(0.200414 0.00790976 0)
(0.200988 0.00778408 0)
(0.201506 0.00758639 0)
(0.201964 0.00733296 0)
(0.202359 0.00703909 0)
(0.202693 0.00671838 0)
(0.202969 0.00638222 0)
(0.203193 0.00603948 0)
(0.203372 0.00569642 0)
(0.203513 0.00535693 0)
(0.203621 0.00502281 0)
(0.203703 0.00469426 0)
(0.203762 0.00437029 0)
(0.203802 0.0040492 0)
(0.203824 0.00372898 0)
(0.203828 0.00340774 0)
(0.203814 0.00308417 0)
(0.203779 0.00275796 0)
(0.203722 0.00243026 0)
(0.20364 0.00210396 0)
(0.20353 0.00178369 0)
(0.203392 0.00147548 0)
(0.203228 0.00118612 0)
(0.20304 0.000922144 0)
(0.202836 0.000688732 0)
(0.202621 0.000488659 0)
(0.202403 0.000322021 0)
(0.202188 0.000186894 0)
(0.20198 8.02626e-05 0)
(0.201782 -1.37484e-06 0)
(0.201596 -6.15641e-05 0)
(0.201424 -0.000103799 0)
(0.201266 -0.000131306 0)
(0.201123 -0.000146932 0)
(0.200993 -0.000153145 0)
(0.200877 -0.000152062 0)
(0.200773 -0.000145492 0)
(0.200681 -0.000134978 0)
(0.200599 -0.000121829 0)
(0.200527 -0.000107149 0)
(0.200464 -9.18538e-05 0)
(0.200409 -7.6684e-05 0)
(0.200361 -6.22149e-05 0)
(0.200319 -4.88688e-05 0)
(0.200283 -3.69275e-05 0)
(0.20025 -2.65475e-05 0)
(0.200222 -1.77791e-05 0)
(0.200197 -1.05857e-05 0)
(0.200174 -4.86558e-06 0)
(0.200154 -4.71726e-07 0)
(0.200136 2.76952e-06 0)
(0.200119 5.04214e-06 0)
(0.200104 6.52713e-06 0)
(0.20009 7.39289e-06 0)
(0.200077 7.78911e-06 0)
(0.200065 7.84323e-06 0)
(0.200053 7.65927e-06 0)
(0.200043 7.3189e-06 0)
(0.200033 6.88389e-06 0)
(0.200024 6.39931e-06 0)
(0.200016 5.89679e-06 0)
(0.200009 5.39772e-06 0)
(0.200002 4.9158e-06 0)
(0.199995 4.45929e-06 0)
(0.199989 4.03268e-06 0)
(0.199984 3.63793e-06 0)
(0.199979 3.27535e-06 0)
(0.199975 2.94422e-06 0)
(0.19997 2.64322e-06 0)
(0.199967 2.37069e-06 0)
(0.199963 2.12481e-06 0)
(0.19996 1.9037e-06 0)
(0.199957 1.70552e-06 0)
(0.199955 1.52847e-06 0)
(0.199952 1.37088e-06 0)
(0.19995 1.23115e-06 0)
(0.199948 1.10781e-06 0)
(0.199947 9.99524e-07 0)
(0.199945 9.05046e-07 0)
(0.199944 8.23274e-07 0)
(0.199942 7.53195e-07 0)
(0.199941 6.93919e-07 0)
(0.19994 6.44659e-07 0)
(0.199939 6.04731e-07 0)
(0.199938 5.73562e-07 0)
(0.199937 5.50676e-07 0)
(0.199937 5.35709e-07 0)
(0.199936 5.28394e-07 0)
(0.199935 5.28615e-07 0)
(0.199935 5.36431e-07 0)
(0.199934 5.52111e-07 0)
(0.199934 5.76126e-07 0)
(0.199933 6.08459e-07 0)
(0.199933 6.43714e-07 0)
(0.197128 0.00610529 0)
(0.197562 0.00660898 0)
(0.198076 0.0070104 0)
(0.19864 0.00729862 0)
(0.199223 0.00747704 0)
(0.199803 0.00755404 0)
(0.200363 0.00753949 0)
(0.200888 0.00744479 0)
(0.201369 0.00728293 0)
(0.2018 0.00706749 0)
(0.202177 0.00681156 0)
(0.202502 0.00652701 0)
(0.202776 0.00622397 0)
(0.203004 0.00591059 0)
(0.203191 0.00559287 0)
(0.203343 0.00527482 0)
(0.203465 0.00495866 0)
(0.20356 0.00464519 0)
(0.203633 0.00433414 0)
(0.203687 0.00402455 0)
(0.203722 0.00371518 0)
(0.203739 0.00340484 0)
(0.203737 0.00309281 0)
(0.203715 0.00277922 0)
(0.203669 0.00246536 0)
(0.2036 0.00215389 0)
(0.203503 0.00184888 0)
(0.203381 0.00155548 0)
(0.203232 0.00127937 0)
(0.203062 0.001026 0)
(0.202875 0.000799749 0)
(0.202676 0.000603121 0)
(0.202472 0.000436549 0)
(0.202269 0.000298765 0)
(0.20207 0.00018747 0)
(0.201879 9.98055e-05 0)
(0.201699 3.26593e-05 0)
(0.20153 -1.70287e-05 0)
(0.201373 -5.21064e-05 0)
(0.201229 -7.51835e-05 0)
(0.201098 -8.85761e-05 0)
(0.20098 -9.4304e-05 0)
(0.200873 -9.41166e-05 0)
(0.200777 -8.95197e-05 0)
(0.200691 -8.18037e-05 0)
(0.200616 -7.20637e-05 0)
(0.200549 -6.12153e-05 0)
(0.20049 -5.00065e-05 0)
(0.200438 -3.90283e-05 0)
(0.200393 -2.87254e-05 0)
(0.200353 -1.94088e-05 0)
(0.200319 -1.12707e-05 0)
(0.200288 -4.40112e-06 0)
(0.200261 1.19375e-06 0)
(0.200237 5.5732e-06 0)
(0.200215 8.84303e-06 0)
(0.200196 1.11381e-05 0)
(0.200178 1.26079e-05 0)
(0.200162 1.34039e-05 0)
(0.200148 1.36704e-05 0)
(0.200134 1.35372e-05 0)
(0.200122 1.31165e-05 0)
(0.20011 1.2501e-05 0)
(0.2001 1.17643e-05 0)
(0.20009 1.09627e-05 0)
(0.200081 1.01378e-05 0)
(0.200073 9.31893e-06 0)
(0.200065 8.52575e-06 0)
(0.200058 7.77083e-06 0)
(0.200051 7.06146e-06 0)
(0.200045 6.40119e-06 0)
(0.20004 5.79103e-06 0)
(0.200035 5.23032e-06 0)
(0.20003 4.71738e-06 0)
(0.200026 4.24987e-06 0)
(0.200023 3.82511e-06 0)
(0.200019 3.44031e-06 0)
(0.200016 3.09261e-06 0)
(0.200013 2.77926e-06 0)
(0.200011 2.49758e-06 0)
(0.200008 2.24506e-06 0)
(0.200006 2.01935e-06 0)
(0.200004 1.81823e-06 0)
(0.200002 1.63971e-06 0)
(0.200001 1.48191e-06 0)
(0.199999 1.34315e-06 0)
(0.199998 1.22189e-06 0)
(0.199997 1.11676e-06 0)
(0.199996 1.02653e-06 0)
(0.199995 9.50101e-07 0)
(0.199994 8.86539e-07 0)
(0.199993 8.35035e-07 0)
(0.199992 7.9492e-07 0)
(0.199991 7.65653e-07 0)
(0.199991 7.46855e-07 0)
(0.19999 7.38309e-07 0)
(0.19999 7.39941e-07 0)
(0.199989 7.51675e-07 0)
(0.199989 7.72637e-07 0)
(0.199988 7.97046e-07 0)
(0.197467 0.00586264 0)
(0.197846 0.00630227 0)
(0.198292 0.0066615 0)
(0.198784 0.00692847 0)
(0.1993 0.00710215 0)
(0.199819 0.00718715 0)
(0.200324 0.00719065 0)
(0.200802 0.00712157 0)
(0.201246 0.00699036 0)
(0.201647 0.00680821 0)
(0.202004 0.00658616 0)
(0.202315 0.00633446 0)
(0.202582 0.00606205 0)
(0.202807 0.00577632 0)
(0.202996 0.00548294 0)
(0.20315 0.00518592 0)
(0.203276 0.00488777 0)
(0.203377 0.00458977 0)
(0.203456 0.00429223 0)
(0.203514 0.00399486 0)
(0.203554 0.00369706 0)
(0.203575 0.00339826 0)
(0.203577 0.00309825 0)
(0.203559 0.00279749 0)
(0.20352 0.00249738 0)
(0.203457 0.0022004 0)
(0.203369 0.0019101 0)
(0.203257 0.00163086 0)
(0.203123 0.00136745 0)
(0.202967 0.00112443 0)
(0.202796 0.000905491 0)
(0.202613 0.000712886 0)
(0.202425 0.000547248 0)
(0.202235 0.000407799 0)
(0.202049 0.000292799 0)
(0.201869 0.000199939 0)
(0.201697 0.000126633 0)
(0.201535 7.02274e-05 0)
(0.201384 2.81502e-05 0)
(0.201244 -1.96459e-06 0)
(0.201116 -2.22497e-05 0)
(0.200999 -3.46011e-05 0)
(0.200893 -4.06871e-05 0)
(0.200798 -4.19654e-05 0)
(0.200713 -3.96946e-05 0)
(0.200637 -3.49503e-05 0)
(0.200569 -2.86387e-05 0)
(0.20051 -2.15069e-05 0)
(0.200457 -1.4154e-05 0)
(0.200411 -7.04106e-06 0)
(0.20037 -5.02665e-07 0)
(0.200334 5.23925e-06 0)
(0.200303 1.00601e-05 0)
(0.200275 1.39158e-05 0)
(0.20025 1.68253e-05 0)
(0.200228 1.88545e-05 0)
(0.200208 2.0101e-05 0)
(0.20019 2.06796e-05 0)
(0.200173 2.07117e-05 0)
(0.200159 2.03156e-05 0)
(0.200145 1.96e-05 0)
(0.200132 1.86604e-05 0)
(0.200121 1.75769e-05 0)
(0.20011 1.64138e-05 0)
(0.2001 1.52209e-05 0)
(0.200091 1.4035e-05 0)
(0.200083 1.28823e-05 0)
(0.200075 1.17802e-05 0)
(0.200068 1.07394e-05 0)
(0.200062 9.76597e-06 0)
(0.200056 8.86208e-06 0)
(0.20005 8.02764e-06 0)
(0.200045 7.26086e-06 0)
(0.200041 6.55891e-06 0)
(0.200037 5.91837e-06 0)
(0.200033 5.33548e-06 0)
(0.20003 4.80639e-06 0)
(0.200026 4.32723e-06 0)
(0.200024 3.89428e-06 0)
(0.200021 3.50395e-06 0)
(0.200019 3.15287e-06 0)
(0.200016 2.83787e-06 0)
(0.200015 2.55599e-06 0)
(0.200013 2.30452e-06 0)
(0.200011 2.08095e-06 0)
(0.20001 1.883e-06 0)
(0.200008 1.70858e-06 0)
(0.200007 1.5558e-06 0)
(0.200006 1.42299e-06 0)
(0.200005 1.30862e-06 0)
(0.200004 1.21138e-06 0)
(0.200003 1.1301e-06 0)
(0.200003 1.06382e-06 0)
(0.200002 1.01169e-06 0)
(0.200001 9.73062e-07 0)
(0.200001 9.47437e-07 0)
(0.2 9.3441e-07 0)
(0.2 9.33464e-07 0)
(0.199999 9.43221e-07 0)
(0.199999 9.58272e-07 0)
(0.19777 0.0056401 0)
(0.198103 0.00602481 0)
(0.198492 0.00634532 0)
(0.198923 0.00659038 0)
(0.199378 0.00675665 0)
(0.199841 0.00684594 0)
(0.200295 0.00686314 0)
(0.20073 0.00681503 0)
(0.201137 0.00670986 0)
(0.201509 0.00655672 0)
(0.201844 0.00636482 0)
(0.202139 0.0061429 0)
(0.202396 0.00589878 0)
(0.202616 0.00563907 0)
(0.202802 0.00536904 0)
(0.202956 0.00509264 0)
(0.203084 0.00481254 0)
(0.203186 0.00453035 0)
(0.203267 0.00424687 0)
(0.203328 0.00396235 0)
(0.20337 0.00367673 0)
(0.203393 0.00338995 0)
(0.203397 0.00310224 0)
(0.203382 0.00281434 0)
(0.203346 0.00252769 0)
(0.203288 0.00224463 0)
(0.203208 0.00196825 0)
(0.203106 0.00170232 0)
(0.202982 0.00145084 0)
(0.202841 0.00121765 0)
(0.202684 0.00100587 0)
(0.202517 0.000817537 0)
(0.202344 0.000653385 0)
(0.202169 0.000512999 0)
(0.201995 0.000395099 0)
(0.201826 0.000297848 0)
(0.201664 0.000219094 0)
(0.20151 0.000156567 0)
(0.201366 0.000108019 0)
(0.201232 7.13217e-05 0)
(0.201109 4.45104e-05 0)
(0.200996 2.58106e-05 0)
(0.200893 1.36438e-05 0)
(0.200799 6.61996e-06 0)
(0.200716 3.52569e-06 0)
(0.200641 3.31454e-06 0)
(0.200574 5.09731e-06 0)
(0.200514 8.13312e-06 0)
(0.200462 1.18204e-05 0)
(0.200415 1.56874e-05 0)
(0.200374 1.93804e-05 0)
(0.200338 2.26511e-05 0)
(0.200306 2.5343e-05 0)
(0.200278 2.73766e-05 0)
(0.200252 2.87339e-05 0)
(0.20023 2.94438e-05 0)
(0.20021 2.9568e-05 0)
(0.200191 2.91884e-05 0)
(0.200175 2.83964e-05 0)
(0.20016 2.72849e-05 0)
(0.200146 2.59415e-05 0)