/*--------------------------------*- C++ -*----------------------------------*\
| =========                 |                                                 |
| \\      /  F ield         | OpenFOAM: The Open Source CFD Toolbox           |
|  \\    /   O peration     | Version:  2.3.0                                 |
|   \\  /    A nd           | Web:      www.OpenFOAM.org                      |
|    \\/     M anipulation  |                                                 |
\*---------------------------------------------------------------------------*/
FoamFile
{
    version     2.0;
    format      ascii;
    class       volScalarField;
    location    "0.6";
    object      p;
}
// * * * * * * * * * * * * * * * * * * * * * * * * * * * * * * * * * * * * * //

dimensions      [0 2 -2 0 0 0 0];

internalField   nonuniform List<scalar> 
3375
(
0.00527264
0.00464943
0.00413581
0.00376303
0.00345333
0.00317317
0.00292201
0.00270445
0.00252199
0.00237354
0.0022565
0.00216705
0.00210055
0.00205202
0.00201672
0.00199049
0.00196999
0.00195269
0.00193682
0.00192121
0.00190519
0.00188838
0.00187066
0.00185202
0.00183251
0.00181224
0.00179131
0.00176981
0.00174784
0.00172546
0.00170274
0.00167972
0.00165645
0.00163295
0.00160926
0.0015854
0.00156138
0.00153722
0.00151294
0.00148856
0.00146407
0.0014395
0.00141486
0.00139014
0.00136537
0.00134055
0.00131569
0.00129079
0.00126586
0.00124091
0.00121593
0.00119094
0.00116593
0.00114092
0.00111589
0.00109087
0.00106584
0.00104081
0.00101579
0.000990763
0.000965744
0.00094073
0.000915722
0.000890721
0.000865726
0.000840739
0.00081576
0.000790789
0.000765826
0.000740871
0.000715925
0.000690988
0.00066606
0.000641142
0.000616234
0.000591337
0.000566452
0.000541579
0.00051672
0.000491877
0.000467051
0.000442245
0.000417462
0.000392705
0.000367977
0.000343283
0.000318629
0.00029402
0.000269463
0.000244966
0.000220537
0.000196187
0.000171927
0.00014777
0.00012373
9.98255e-05
7.60765e-05
5.25174e-05
2.92759e-05
4.7733e-06
0.00497771
0.00453188
0.00410953
0.00377059
0.00347578
0.00320327
0.00295547
0.00273866
0.00255541
0.00240526
0.00228594
0.0021939
0.00212468
0.00207347
0.00203561
0.00200703
0.00198442
0.00196526
0.00194778
0.0019308
0.00191361
0.00189582
0.00187727
0.00185793
0.00183784
0.00181707
0.00179571
0.00177385
0.00175155
0.00172889
0.00170593
0.00168269
0.00165922
0.00163555
0.0016117
0.0015877
0.00156355
0.00153927
0.00151489
0.0014904
0.00146582
0.00144117
0.00141645
0.00139166
0.00136682
0.00134194
0.00131702
0.00129207
0.00126708
0.00124208
0.00121706
0.00119202
0.00116698
0.00114192
0.00111687
0.00109181
0.00106675
0.00104169
0.00101663
0.000991581
0.000966535
0.000941496
0.000916464
0.00089144
0.000866423
0.000841415
0.000816416
0.000791425
0.000766443
0.000741471
0.000716508
0.000691554
0.00066661
0.000641676
0.000616753
0.000591842
0.000566942
0.000542056
0.000517183
0.000492327
0.000467489
0.000442671
0.000417876
0.000393107
0.000368368
0.000343664
0.000318999
0.000294379
0.000269812
0.000245304
0.000220866
0.000196506
0.000172237
0.00014807
0.000124022
0.000100108
7.63517e-05
5.2789e-05
2.96244e-05
4.64962e-06
0.00476362
0.00443022
0.00407214
0.00375912
0.00348035
0.00322188
0.00298512
0.00277557
0.00259601
0.00244651
0.00232544
0.00222998
0.0021564
0.0021005
0.00205811
0.00202546
0.00199939
0.00197742
0.00195773
0.00193905
0.00192057
0.00190182
0.00188255
0.00186264
0.00184211
0.00182098
0.00179931
0.00177719
0.00175466
0.0017318
0.00170864
0.00168523
0.0016616
0.00163779
0.0016138
0.00158967
0.00156541
0.00154103
0.00151654
0.00149197
0.00146731
0.00144258
0.00141778
0.00139293
0.00136804
0.0013431
0.00131812
0.00129312
0.00126809
0.00124305
0.00121798
0.00119291
0.00116783
0.00114274
0.00111766
0.00109257
0.00106748
0.00104239
0.00101731
0.00099224
0.000967173
0.000942113
0.000917061
0.000892017
0.000866982
0.000841957
0.000816941
0.000791934
0.000766937
0.00074195
0.000716973
0.000692006
0.000667049
0.000642103
0.000617167
0.000592244
0.000567333
0.000542435
0.000517553
0.000492686
0.000467838
0.00044301
0.000418205
0.000393426
0.000368678
0.000343964
0.00031929
0.000294661
0.000270085
0.000245569
0.000221121
0.000196753
0.000172475
0.0001483
0.000124242
0.000100319
7.65503e-05
5.29706e-05
2.96947e-05
3.72951e-06
0.00458091
0.00431978
0.00401676
0.00373435
0.00347705
0.00323722
0.00301556
0.00281668
0.00264357
0.00249687
0.00237561
0.00227771
0.00220018
0.00213954
0.00209219
0.00205474
0.0020243
0.0019985
0.00197556
0.00195417
0.00193348
0.00191291
0.00189216
0.00187105
0.00184953
0.00182758
0.00180523
0.00178252
0.0017595
0.00173621
0.00171268
0.00168894
0.00166503
0.00164095
0.00161674
0.0015924
0.00156795
0.0015434
0.00151876
0.00149405
0.00146926
0.00144442
0.00141952
0.00139457
0.00136958
0.00134456
0.00131951
0.00129444
0.00126935
0.00124424
0.00121913
0.001194
0.00116887
0.00114374
0.00111861
0.00109348
0.00106835
0.00104323
0.00101812
0.000993015
0.000967919
0.000942831
0.000917752
0.000892684
0.000867626
0.000842578
0.000817541
0.000792514
0.000767498
0.000742493
0.000717498
0.000692514
0.000667541
0.00064258
0.00061763
0.000592692
0.000567767
0.000542857
0.000517961
0.000493082
0.000468222
0.000443382
0.000418566
0.000393776
0.000369017
0.000344292
0.000319608
0.000294968
0.000270382
0.000245855
0.000221397
0.000197019
0.00017273
0.000148543
0.000124474
0.000100535
7.67426e-05
5.31054e-05
2.9514e-05
2.25606e-06
0.00441853
0.00420896
0.00395525
0.00370535
0.00347074
0.00324962
0.00304325
0.0028557
0.00269007
0.00254741
0.00242727
0.00232812
0.00224763
0.00218295
0.00213102
0.00208892
0.00205405
0.00202423
0.00199775
0.00197335
0.00195012
0.00192744
0.00190494
0.00188238
0.00185964
0.00183667
0.00181345
0.00179
0.00176632
0.00174246
0.00171842
0.00169423
0.0016699
0.00164546
0.00162092
0.00159628
0.00157155
0.00154676
0.00152189
0.00149697
0.001472
0.00144698
0.00142192
0.00139683
0.00137171
0.00134657
0.00132141
0.00129623
0.00127104
0.00124585
0.00122065
0.00119545
0.00117025
0.00114505
0.00111986
0.00109467
0.0010695
0.00104433
0.00101917
0.000994017
0.000968879
0.000943753
0.000918639
0.000893536
0.000868446
0.000843368
0.000818302
0.000793248
0.000768206
0.000743176
0.000718158
0.000693152
0.000668158
0.000643177
0.000618208
0.000593252
0.00056831
0.000543382
0.000518471
0.000493576
0.000468701
0.000443847
0.000419016
0.000394213
0.00036944
0.000344703
0.000320005
0.000295353
0.000270754
0.000246215
0.000221744
0.000197352
0.00017305
0.000148849
0.000124762
0.000100801
7.69667e-05
5.32152e-05
2.9161e-05
6.79088e-07
0.00427849
0.00410592
0.00389276
0.00367296
0.00346013
0.00325686
0.0030654
0.00288943
0.00273194
0.00259424
0.00247628
0.00237701
0.00229462
0.00222682
0.00217108
0.00212489
0.00208598
0.00205237
0.00202248
0.00199508
0.00196927
0.0019444
0.00192004
0.00189591
0.00187183
0.00184772
0.00182351
0.0017992
0.00177477
0.00175023
0.0017256
0.00170087
0.00167606
0.00165118
0.00162624
0.00160123
0.00157618
0.00155108
0.00152593
0.00150076
0.00147555
0.00145031
0.00142505
0.00139978
0.00137449
0.00134919
0.00132388
0.00129857
0.00127326
0.00124795
0.00122264
0.00119734
0.00117204
0.00114676
0.00112149
0.00109622
0.00107098
0.00104574
0.00102052
0.000995311
0.000970119
0.000944941
0.000919778
0.000894631
0.000869498
0.000844379
0.000819275
0.000794186
0.00076911
0.000744048
0.000719
0.000693965
0.000668944
0.000643937
0.000618944
0.000593964
0.000569
0.000544051
0.00051912
0.000494206
0.000469312
0.00044444
0.000419593
0.000394773
0.000369984
0.000345231
0.000320518
0.000295851
0.000271237
0.000246682
0.000222197
0.000197789
0.000173471
0.000149252
0.000125143
0.000101151
7.72561e-05
5.33474e-05
2.8809e-05
-4.42465e-07
0.00415746
0.00401125
0.00383022
0.00363725
0.00344518
0.00325909
0.00308215
0.00291775
0.00276871
0.00263653
0.00252148
0.00242291
0.0023395
0.00226942
0.00221061
0.00216096
0.00211849
0.00208144
0.00204838
0.00201813
0.00198981
0.00196276
0.00193652
0.00191078
0.00188532
0.00186001
0.00183477
0.00180954
0.00178431
0.00175906
0.00173379
0.00170848
0.00168315
0.00165779
0.00163241
0.00160701
0.00158159
0.00155615
0.0015307
0.00150523
0.00147976
0.00145428
0.0014288
0.00140331
0.00137783
0.00135235
0.00132687
0.00130141
0.00127595
0.0012505
0.00122507
0.00119965
0.00117425
0.00114886
0.00112349
0.00109814
0.0010728
0.00104749
0.00102219
0.000996916
0.000971658
0.000946418
0.000921197
0.000895994
0.000870809
0.000845642
0.000820492
0.000795358
0.000770241
0.00074514
0.000720055
0.000694986
0.000669932
0.000644893
0.00061987
0.000594862
0.000569871
0.000544897
0.000519941
0.000495005
0.000470089
0.000445196
0.000420328
0.000395489
0.000370682
0.000345911
0.00032118
0.000296496
0.000271864
0.000247292
0.000222789
0.000198364
0.000174026
0.000149786
0.000125651
0.00010162
7.7655e-05
5.35847e-05
2.86815e-05
-6.24761e-07
0.00405181
0.00392488
0.00376922
0.0035997
0.00342704
0.00325727
0.00309418
0.00294103
0.00280046
0.00267409
0.00256245
0.00246524
0.00238153
0.00230991
0.00224872
0.0021962
0.00215066
0.00211057
0.00207462
0.00204171
0.00201101
0.00198186
0.00195379
0.00192645
0.00189961
0.00187308
0.00184678
0.00182062
0.00179456
0.00176857
0.00174263
0.00171672
0.00169085
0.00166499
0.00163915
0.00161333
0.00158753
0.00156174
0.00153596
0.00151019
0.00148444
0.0014587
0.00143298
0.00140727
0.00138158
0.0013559
0.00133025
0.00130461
0.001279
0.00125341
0.00122784
0.00120229
0.00117677
0.00115127
0.0011258
0.00110035
0.00107492
0.00104952
0.00102414
0.000998785
0.000973453
0.000948145
0.000922859
0.000897595
0.000872352
0.00084713
0.000821928
0.000796746
0.000771583
0.000746438
0.000721312
0.000696203
0.000671112
0.000646038
0.000620981
0.000595942
0.000570921
0.000545919
0.000520936
0.000495974
0.000471034
0.000446118
0.000421228
0.000396368
0.00037154
0.000346749
0.000321999
0.000297296
0.000272646
0.000248056
0.000223534
0.000199088
0.00017473
0.000150466
0.000126302
0.00010223
7.81971e-05
5.40038e-05
2.89516e-05
3.40501e-07
0.0039588
0.00384651
0.00371096
0.00356156
0.00340658
0.00325203
0.00310199
0.00295962
0.00282743
0.00270704
0.00259921
0.0025039
0.0024205
0.00234799
0.00228504
0.00223022
0.0021821
0.00213935
0.0021008
0.00206546
0.00203253
0.00200138
0.00197153
0.00194262
0.0019144
0.00188667
0.00185929
0.00183219
0.00180528
0.00177853
0.00175191
0.00172539
0.00169895
0.00167258
0.00164627
0.00162002
0.00159382
0.00156766
0.00154154
0.00151546
0.00148942
0.00146342
0.00143744
0.0014115
0.0013856
0.00135972
0.00133388
0.00130808
0.0012823
0.00125656
0.00123084
0.00120516
0.00117952
0.0011539
0.00112832
0.00110276
0.00107724
0.00105175
0.00102628
0.00100085
0.000975438
0.000950058
0.000924704
0.000899375
0.000874072
0.000848792
0.000823536
0.000798302
0.00077309
0.000747899
0.000722729
0.000697579
0.000672449
0.000647338
0.000622246
0.000597174
0.000572121
0.000547089
0.000522078
0.000497089
0.000472124
0.000447184
0.000422271
0.000397389
0.00037254
0.000347729
0.00032296
0.000298237
0.000273568
0.000248959
0.000224417
0.000199951
0.00017557
0.000151282
0.000127089
0.000102979
7.88939e-05
5.46446e-05
2.96783e-05
2.3179e-06
0.00387633
0.00377552
0.00365605
0.00352369
0.00338453
0.00324398
0.00310614
0.00297403
0.00285
0.00273568
0.00263192
0.00253894
0.0024564
0.00238357
0.00231942
0.00226282
0.00221256
0.00216752
0.00212667
0.00208912
0.00205413
0.0020211
0.00198955
0.00195912
0.00192954
0.0019006
0.00187216
0.0018441
0.00181634
0.00178882
0.0017615
0.00173435
0.00170733
0.00168044
0.00165365
0.00162696
0.00160035
0.00157382
0.00154735
0.00152095
0.00149461
0.00146833
0.0014421
0.00141593
0.0013898
0.00136372
0.00133769
0.0013117
0.00128576
0.00125986
0.001234
0.00120818
0.00118241
0.00115667
0.00113097
0.00110531
0.00107969
0.00105411
0.00102855
0.00100303
0.000977548
0.000952094
0.00092667
0.000901276
0.00087591
0.000850572
0.00082526
0.000799974
0.000774712
0.000749474
0.00072426
0.000699067
0.000673897
0.000648749
0.000623621
0.000598516
0.000573431
0.000548369
0.00052333
0.000498314
0.000473323
0.000448359
0.000423424
0.00039852
0.00037365
0.000348819
0.00032403
0.000299288
0.0002746
0.000249972
0.00022541
0.000200924
0.000176521
0.000152208
0.000127988
0.000103846
7.97322e-05
5.54982e-05
3.07988e-05
4.91747e-06
0.00380272
0.00371119
0.00360472
0.00348674
0.00336153
0.00323374
0.00310719
0.00298475
0.00286859
0.0027603
0.00266081
0.0025705
0.00248926
0.00241659
0.00235176
0.00229384
0.00224188
0.00219493
0.00215208
0.00211255
0.00207568
0.00204088
0.00200772
0.00197583
0.00194493
0.00191481
0.0018853
0.00185628
0.00182766
0.00179937
0.00177134
0.00174354
0.00171594
0.00168852
0.00166124
0.00163409
0.00160706
0.00158015
0.00155333
0.0015266
0.00149996
0.00147339
0.0014469
0.00142048
0.00139413
0.00136783
0.00134161
0.00131543
0.00128932
0.00126326
0.00123725
0.0012113
0.00118539
0.00115953
0.00113372
0.00110795
0.00108223
0.00105655
0.00103091
0.0010053
0.000979737
0.000954208
0.000928714
0.000903253
0.000877824
0.000852426
0.000827058
0.000801719
0.000776407
0.000751122
0.000725862
0.000700628
0.000675418
0.000650231
0.000625069
0.000599929
0.000574813
0.000549721
0.000524654
0.000499611
0.000474595
0.000449608
0.00042465
0.000399724
0.000374834
0.000349983
0.000325175
0.000300415
0.000275708
0.00025106
0.000226479
0.000201973
0.000177548
0.000153212
0.000128966
0.000104801
8.06809e-05
5.65163e-05
3.21728e-05
7.67551e-06
0.00373667
0.00365281
0.003557
0.00345114
0.00333815
0.00322185
0.00310567
0.00299224
0.0028836
0.00278123
0.00268611
0.00259873
0.00251914
0.00244707
0.00238199
0.00232321
0.00226994
0.00222142
0.00217687
0.00213561
0.00209703
0.00206061
0.00202594
0.00199266
0.00196049
0.00192921
0.00189865
0.00186869
0.0018392
0.00181013
0.00178139
0.00175294
0.00172475
0.00169677
0.00166899
0.00164138
0.00161393
0.00158662
0.00155944
0.00153237
0.00150542
0.00147856
0.0014518
0.00142513
0.00139855
0.00137204
0.00134561
0.00131925
0.00129296
0.00126674
0.00124058
0.00121448
0.00118844
0.00116246
0.00113653
0.00111065
0.00108482
0.00105904
0.00103331
0.00100762
0.000981975
0.00095637
0.000930804
0.000905276
0.000879783
0.000854326
0.000828901
0.000803508
0.000778146
0.000752813
0.000727508
0.000702231
0.000676981
0.000651757
0.000626559
0.000601386
0.000576239
0.000551117
0.000526021
0.000500952
0.000475912
0.0004509
0.00042592
0.000400974
0.000376064
0.000351193
0.000326366
0.000301587
0.000276861
0.000252195
0.000227594
0.000203067
0.000178621
0.000154262
0.000129993
0.000105812
8.17015e-05
5.76329e-05
3.36426e-05
1.02155e-05
0.00367715
0.00359975
0.0035128
0.00341718
0.00331482
0.00320877
0.00310203
0.00299697
0.00289543
0.00279881
0.00270807
0.00262379
0.00254615
0.00247503
0.0024101
0.00235083
0.00229664
0.00224688
0.00220091
0.00215815
0.00211806
0.00208018
0.00204411
0.00200952
0.00197613
0.00194374
0.00191216
0.00188126
0.00185092
0.00182106
0.00179161
0.00176251
0.00173371
0.00170518
0.00167689
0.00164882
0.00162093
0.00159322
0.00156566
0.00153825
0.00151098
0.00148383
0.00145679
0.00142987
0.00140304
0.00137632
0.00134968
0.00132313
0.00129666
0.00127027
0.00124396
0.00121771
0.00119153
0.00116542
0.00113937
0.00111339
0.00108745
0.00106157
0.00103575
0.00100997
0.000984245
0.000958563
0.000932924
0.000907327
0.000881771
0.000856252
0.00083077
0.000805323
0.00077991
0.000754529
0.000729179
0.00070386
0.000678569
0.000653307
0.000628073
0.000602867
0.000577688
0.000552536
0.000527413
0.000502318
0.000477252
0.000452217
0.000427215
0.000402248
0.000377317
0.000352427
0.000327581
0.000302783
0.000278039
0.000253353
0.000228732
0.000204184
0.000179716
0.000155334
0.000131045
0.000106852
8.27569e-05
5.87834e-05
3.50785e-05
1.23252e-05
0.00362331
0.00355145
0.00347194
0.00338501
0.00329187
0.00319493
0.00309672
0.00299935
0.00290447
0.00281336
0.00272696
0.00264588
0.0025704
0.00250053
0.00243608
0.00237668
0.00232189
0.0022712
0.0022241
0.00218007
0.00213867
0.00209948
0.00206213
0.00202631
0.00199178
0.00195832
0.00192575
0.00189394
0.00186276
0.00183213
0.00180196
0.0017722
0.0017428
0.00171372
0.00168492
0.00165636
0.00162804
0.00159992
0.00157198
0.00154423
0.00151663
0.00148917
0.00146186
0.00143467
0.00140761
0.00138065
0.00135381
0.00132706
0.00130041
0.00127385
0.00124737
0.00122098
0.00119466
0.00116842
0.00114225
0.00111615
0.00109011
0.00106413
0.00103821
0.00101235
0.000986535
0.000960775
0.000935063
0.000909396
0.000883774
0.000858194
0.000832655
0.000807153
0.000781689
0.000756259
0.000730864
0.000705501
0.00068017
0.00065487
0.0006296
0.00060436
0.000579149
0.000553968
0.000528816
0.000503695
0.000478604
0.000453546
0.000428521
0.000403532
0.000378581
0.000353671
0.000328806
0.000303989
0.000279225
0.000254519
0.000229878
0.000205308
0.000180817
0.000156412
0.000132102
0.000107897
8.38161e-05
5.99163e-05
3.63976e-05
1.39504e-05
0.00357449
0.00350742
0.00343422
0.00335472
0.00326956
0.00318065
0.00309012
0.00299977
0.00291108
0.00282521
0.00274305
0.00266521
0.00259204
0.00252365
0.00245995
0.00240073
0.00234564
0.00229431
0.00224633
0.00220127
0.00215874
0.00211839
0.00207989
0.00204296
0.00200736
0.00197288
0.00193937
0.00190667
0.00187467
0.00184328
0.00181241
0.001782
0.001752
0.00172235
0.00169303
0.001664
0.00163523
0.0016067
0.00157838
0.00155027
0.00152234
0.00149458
0.00146698
0.00143953
0.00141222
0.00138503
0.00135797
0.00133103
0.00130419
0.00127746
0.00125082
0.00122428
0.00119782
0.00117144
0.00114515
0.00111893
0.00109278
0.0010667
0.00104069
0.00101473
0.000988837
0.000962998
0.000937211
0.000911475
0.000885787
0.000860145
0.000834547
0.00080899
0.000783474
0.000757996
0.000732554
0.000707148
0.000681776
0.000656438
0.000631132
0.000605858
0.000580615
0.000555403
0.000530223
0.000505075
0.000479959
0.000454877
0.00042983
0.000404819
0.000379847
0.000354917
0.000330032
0.000305195
0.000280411
0.000255684
0.000231022
0.000206429
0.000181914
0.000157485
0.000133153
0.000108933
8.48557e-05
6.09966e-05
3.75615e-05
1.51414e-05
0.00353012
0.00346725
0.00339945
0.0033263
0.00324807
0.00316623
0.00308255
0.00299859
0.00291562
0.00283468
0.0027566
0.00268199
0.00261122
0.00254447
0.00248176
0.00242296
0.00236785
0.00231614
0.00226751
0.00222163
0.00217817
0.00213682
0.0020973
0.00205936
0.00202277
0.00198735
0.00195294
0.00191939
0.0018866
0.00185446
0.0018229
0.00179185
0.00176125
0.00173105
0.00170121
0.0016717
0.00164249
0.00161354
0.00158484
0.00155637
0.0015281
0.00150004
0.00147215
0.00144443
0.00141686
0.00138945
0.00136217
0.00133502
0.001308
0.00128109
0.00125429
0.00122759
0.00120099
0.00117448
0.00114806
0.00112172
0.00109547
0.00106928
0.00104317
0.00101712
0.000991144
0.000965224
0.000939363
0.000913556
0.000887801
0.000862097
0.000836439
0.000810827
0.000785259
0.000759731
0.000734244
0.000708794
0.000683381
0.000658004
0.000632662
0.000607353
0.000582078
0.000556836
0.000531628
0.000506452
0.000481311
0.000456205
0.000431135
0.000406102
0.000381109
0.000356158
0.000331252
0.000306395
0.000281589
0.000256841
0.000232156
0.000207539
0.000182999
0.000158543
0.000134186
0.000109945
8.58584e-05
6.20033e-05
3.85636e-05
1.5993e-05
0.00348975
0.00343055
0.00336743
0.00329975
0.00322753
0.00315189
0.00307432
0.00299612
0.0029184
0.00284206
0.00276788
0.00269643
0.0026281
0.00256312
0.00250157
0.0024434
0.00238848
0.00233662
0.00228757
0.00224107
0.00219686
0.00215467
0.00211426
0.00207541
0.00203793
0.00200164
0.00196638
0.00193203
0.00189848
0.00186563
0.00183339
0.00180171
0.00177052
0.00173977
0.00170942
0.00167943
0.00164977
0.00162041
0.00159132
0.00156249
0.00153389
0.00150551
0.00147733
0.00144934
0.00142153
0.00139388
0.00136638
0.00133903
0.00131181
0.00128473
0.00125776
0.00123091
0.00120416
0.00117752
0.00115097
0.00112452
0.00109815
0.00107186
0.00104565
0.00101951
0.000993447
0.000967447
0.00094151
0.000915632
0.00088981
0.000864043
0.000838326
0.000812659
0.000787037
0.000761461
0.000735926
0.000710433
0.000684979
0.000659563
0.000634184
0.000608842
0.000583534
0.000558262
0.000533025
0.000507822
0.000482655
0.000457525
0.000432431
0.000407376
0.000382361
0.000357389
0.000332462
0.000307583
0.000282756
0.000257985
0.000233276
0.000208633
0.000184066
0.000159582
0.000135195
0.000110926
8.68133e-05
6.29276e-05
3.94166e-05
1.66024e-05
0.00345299
0.00339705
0.00333797
0.00327502
0.00320801
0.00313783
0.00306567
0.00299265
0.00291971
0.00284765
0.00277715
0.00270875
0.00264286
0.00257971
0.00251945
0.00246209
0.00240756
0.00235575
0.00230647
0.00225954
0.00221474
0.00217186
0.00213069
0.00209105
0.00205276
0.00201567
0.00197963
0.00194453
0.00191025
0.00187671
0.00184383
0.00181154
0.00177977
0.00174848
0.00171763
0.00168716
0.00165706
0.00162728
0.00159781
0.00156862
0.00153969
0.00151099
0.00148252
0.00145426
0.00142619
0.00139831
0.00137059
0.00134303
0.00131562
0.00128836
0.00126122
0.00123422
0.00120732
0.00118055
0.00115387
0.0011273
0.00110082
0.00107442
0.00104812
0.00102189
0.000995737
0.000969656
0.000943642
0.000917693
0.000891805
0.000865974
0.000840198
0.000814475
0.000788801
0.000763175
0.000737595
0.000712058
0.000686563
0.000661108
0.000635692
0.000610315
0.000584976
0.000559673
0.000534407
0.000509177
0.000483984
0.000458829
0.000433712
0.000408634
0.000383597
0.000358604
0.000333655
0.000308754
0.000283904
0.00025911
0.000234375
0.000209706
0.000185108
0.000160593
0.000136172
0.000111866
8.77115e-05
6.37661e-05
4.01389e-05
1.70454e-05
0.00341952
0.00336647
0.00331092
0.00325207
0.0031896
0.00312418
0.00305682
0.00298843
0.00291983
0.00285169
0.00278464
0.00271916
0.00265565
0.00259437
0.00253547
0.00247904
0.00242506
0.00237346
0.00232413
0.00227693
0.0022317
0.00218827
0.00214647
0.00210615
0.00206715
0.00202934
0.00199258
0.00195678
0.00192183
0.00188764
0.00185414
0.00182125
0.00178893
0.00175712
0.00172576
0.00169484
0.0016643
0.00163412
0.00160426
0.00157472
0.00154545
0.00151645
0.00148769
0.00145915
0.00143083
0.00140271
0.00137477
0.00134701
0.00131941
0.00129197
0.00126467
0.0012375
0.00121047
0.00118355
0.00115675
0.00113006
0.00110346
0.00107697
0.00105056
0.00102424
0.000998006
0.000971844
0.000945755
0.000919735
0.000893779
0.000867886
0.000842051
0.000816273
0.000790547
0.000764872
0.000739245
0.000713664
0.000688128
0.000662635
0.000637183
0.000611772
0.0005864
0.000561067
0.000535772
0.000510515
0.000485296
0.000460116
0.000434976
0.000409875
0.000384816
0.0003598
0.000334829
0.000309905
0.000285032
0.000260213
0.000235452
0.000210753
0.000186124
0.000161574
0.000137114
0.000112763
8.85515e-05
6.4524e-05
4.07543e-05
1.73773e-05
0.00338908
0.00333859
0.00328613
0.00323084
0.00317232
0.00311108
0.00304795
0.0029837
0.00291901
0.00285447
0.00279062
0.00272792
0.00266672
0.00260729
0.00254982
0.0024944
0.00244108
0.00238984
0.0023406
0.00229327
0.00224775
0.0022039
0.00216159
0.00212068
0.00208106
0.00204261
0.00200521
0.00196876
0.00193317
0.00189837
0.00186428
0.00183083
0.00179797
0.00176564
0.00173381
0.00170243
0.00167146
0.00164088
0.00161065
0.00158075
0.00155116
0.00152184
0.0014928
0.00146399
0.00143542
0.00140706
0.00137891
0.00135094
0.00132315
0.00129553
0.00126806
0.00124074
0.00121356
0.00118651
0.00115958
0.00113277
0.00110607
0.00107947
0.00105297
0.00102656
0.00100023
0.000973993
0.000947828
0.000921738
0.000895716
0.000869761
0.000843868
0.000818034
0.000792256
0.000766532
0.00074086
0.000715236
0.000689659
0.000664128
0.000638641
0.000613195
0.000587792
0.000562428
0.000537105
0.000511821
0.000486577
0.000461372
0.000436208
0.000411084
0.000386003
0.000360964
0.000335971
0.000311024
0.000286127
0.000261282
0.000236493
0.000211765
0.000187102
0.000162513
0.000138008
0.000113604
8.93246e-05
6.51996e-05
4.1276e-05
1.76236e-05
0.00335626
0.00330847
0.0032592
0.00320759
0.00315314
0.00309622
0.0030375
0.0029776
0.00291707
0.0028564
0.00279605
0.00273641
0.00267783
0.00262055
0.00256479
0.00251066
0.00245823
0.00240754
0.00235856
0.00231125
0.00226554
0.00222133
0.00217855
0.00213709
0.00209684
0.00205772
0.00201964
0.0019825
0.00194623
0.00191075
0.001876
0.00184192
0.00180846
0.00177555
0.00174317
0.00171127
0.00167982
0.00164877
0.00161811
0.0015878
0.00155783
0.00152816
0.00149877
0.00146966
0.00144079
0.00141216
0.00138375
0.00135554
0.00132753
0.0012997
0.00127204
0.00124454
0.00121719
0.00118998
0.0011629
0.00113595
0.00110912
0.0010824
0.00105578
0.00102927
0.00100284
0.000976507
0.000950255
0.000924082
0.000897983
0.000871954
0.000845993
0.000820095
0.000794257
0.000768476
0.00074275
0.000717076
0.000691451
0.000665875
0.000640346
0.000614861
0.000589419
0.000564021
0.000538664
0.000513348
0.000488073
0.00046284
0.000437647
0.000412496
0.000387388
0.000362323
0.000337302
0.000312327
0.000287401
0.000262524
0.000237701
0.000212934
0.000188228
0.000163589
0.000139026
0.00011455
9.01776e-05
6.59249e-05
4.18164e-05
1.78485e-05
0.00332242
0.00327732
0.0032312
0.00318318
0.00313269
0.00307999
0.00302561
0.00297003
0.00291369
0.00285698
0.00280026
0.00274389
0.00268815
0.00263328
0.00257949
0.00252691
0.00247565
0.00242576
0.00237727
0.00233017
0.00228444
0.00224003
0.00219689
0.00215494
0.00211413
0.00207438
0.00203562
0.00199778
0.0019608
0.00192461
0.00188917
0.00185441
0.00182028
0.00178675
0.00175376
0.00172128
0.00168928
0.00165771
0.00162656
0.00159579
0.00156538
0.0015353
0.00150553
0.00147606
0.00144686
0.00141792
0.00138921
0.00136073
0.00133246
0.00130439
0.00127651
0.0012488
0.00122126
0.00119386
0.00116662
0.00113951
0.00111253
0.00108567
0.00105892
0.00103228
0.00100575
0.000979303
0.000952951
0.000926684
0.000900497
0.000874386
0.000848346
0.000822375
0.000796469
0.000770623
0.000744837
0.000719106
0.000693428
0.000667802
0.000642225
0.000616695
0.000591212
0.000565773
0.000540378
0.000515027
0.000489718
0.000464451
0.000439227
0.000414045
0.000388906
0.00036381
0.000338758
0.000313751
0.000288789
0.000263875
0.00023901
0.000214196
0.000189435
0.000164733
0.000140093
0.000115522
9.10286e-05
6.66167e-05
4.22962e-05
1.80328e-05
0.00329178
0.0032491
0.00320574
0.00316084
0.0031138
0.00306478
0.00301419
0.00296244
0.00290983
0.00285669
0.0028033
0.00274996
0.00269691
0.00264438
0.00259256
0.00254158
0.00249157
0.0024426
0.00239474
0.00234801
0.00230242
0.00225795
0.00221459
0.0021723
0.00213104
0.00209076
0.00205142
0.00201296
0.00197534
0.0019385
0.00190241
0.001867
0.00183225
0.0017981
0.00176452
0.00173148
0.00169893
0.00166686
0.00163521
0.00160398
0.00157314
0.00154265
0.0015125
0.00148266
0.00145312
0.00142386
0.00139486
0.0013661
0.00133757
0.00130926
0.00128115
0.00125322
0.00122548
0.0011979
0.00117048
0.00114321
0.00111608
0.00108907
0.0010622
0.00103543
0.00100878
0.000982224
0.000955769
0.000929404
0.000903127
0.00087693
0.00085081
0.000824764
0.000798786
0.000772874
0.000747025
0.000721235
0.000695501
0.000669822
0.000644195
0.000618619
0.000593091
0.00056761
0.000542176
0.000516786
0.00049144
0.000466139
0.00044088
0.000415665
0.000390492
0.000365362
0.000340276
0.000315232
0.000290232
0.000265275
0.000240363
0.000215495
0.000190672
0.000165896
0.000141166
0.000116486
9.18556e-05
6.72733e-05
4.27435e-05
1.82191e-05
0.00326482
0.0032242
0.00318317
0.00314088
0.00309671
0.00305076
0.00300336
0.00295482
0.0029054
0.00285532
0.00280483
0.00275417
0.00270354
0.00265316
0.00260317
0.00255374
0.00250498
0.00245699
0.00240984
0.00236358
0.00231825
0.00227387
0.00223043
0.00218793
0.00214636
0.00210568
0.00206588
0.00202691
0.00198874
0.00195134
0.00191467
0.00187869
0.00184337
0.00180867
0.00177455
0.00174098
0.00170794
0.00167538
0.00164328
0.00161162
0.00158036
0.00154948
0.00151897
0.00148879
0.00145893
0.00142936
0.00140008
0.00137105
0.00134228
0.00131373
0.0012854
0.00125728
0.00122934
0.00120159
0.00117401
0.00114658
0.0011193
0.00109216
0.00106516
0.00103828
0.00101151
0.000984857
0.000958305
0.00093185
0.000905487
0.000879211
0.000853017
0.000826901
0.000800857
0.000774884
0.000748976
0.000723132
0.000697347
0.00067162
0.000645948
0.000620329
0.00059476
0.000569241
0.00054377
0.000518346
0.000492968
0.000467634
0.000442344
0.000417098
0.000391894
0.000366733
0.000341614
0.000316536
0.000291498
0.0002665
0.000241541
0.000216618
0.000191731
0.000166875
0.00014205
0.000117252
9.24764e-05
6.77213e-05
4.29973e-05
1.82766e-05
0.00324277
0.00320384
0.00316471
0.00312452
0.00308266
0.00303917
0.00299434
0.0029484
0.00290156
0.00285401
0.00280593
0.00275752
0.00270896
0.00266043
0.00261207
0.00256404
0.00251644
0.00246938
0.00242294
0.0023772
0.0023322
0.00228799
0.00224458
0.00220199
0.00216021
0.00211926
0.0020791
0.00203973
0.00200113
0.00196327
0.00192611
0.00188965
0.00185383
0.00181864
0.00178404
0.00175001
0.00171651
0.00168352
0.00165101
0.00161895
0.00158732
0.00155609
0.00152523
0.00149474
0.00146457
0.00143473
0.00140518
0.00137591
0.0013469
0.00131813
0.0012896
0.00126128
0.00123317
0.00120525
0.00117751
0.00114993
0.00112252
0.00109525
0.00106812
0.00104113
0.00101426
0.000987502
0.000960856
0.000934314
0.000907868
0.000881515
0.000855248
0.000829062
0.000802954
0.00077692
0.000750955
0.000725056
0.00069922
0.000673445
0.000647727
0.000622064
0.000596455
0.000570897
0.000545389
0.000519929
0.000494516
0.000469149
0.000443826
0.000418548
0.000393312
0.000368118
0.000342964
0.00031785
0.000292773
0.000267731
0.000242722
0.000217741
0.000192784
0.000167845
0.000142916
0.000117989
9.3056e-05
6.81124e-05
4.31793e-05
1.82568e-05
0.00322608
0.00318839
0.00315062
0.00311194
0.00307172
0.00303
0.00298701
0.00294295
0.00289798
0.00285227
0.00280596
0.00275922
0.0027122
0.00266508
0.00261797
0.00257102
0.00252434
0.00247804
0.00243221
0.00238692
0.00234224
0.00229821
0.00225488
0.00221227
0.0021704
0.00212927
0.00208889
0.00204925
0.00201034
0.00197214
0.00193464
0.00189781
0.00186163
0.00182608
0.00179112
0.00175674
0.0017229
0.00168958
0.00165675
0.00162438
0.00159246
0.00156096
0.00152984
0.0014991
0.00146871
0.00143865
0.00140889
0.00137943
0.00135024
0.00132131
0.00129262
0.00126416
0.00123591
0.00120786
0.00118
0.00115231
0.00112479
0.00109743
0.00107021
0.00104313
0.00101618
0.000989353
0.000962638
0.00093603
0.000909524
0.000883113
0.000856793
0.000830557
0.000804402
0.000778324
0.000752317
0.00072638
0.000700508
0.000674698
0.000648948
0.000623254
0.000597616
0.000572031
0.000546497
0.000521012
0.000495575