/*--------------------------------*- C++ -*----------------------------------*\
| =========                 |                                                 |
| \\      /  F ield         | OpenFOAM: The Open Source CFD Toolbox           |
|  \\    /   O peration     | Version:  2.3.0                                 |
|   \\  /    A nd           | Web:      www.OpenFOAM.org                      |
|    \\/     M anipulation  |                                                 |
\*---------------------------------------------------------------------------*/
FoamFile
{
    version     2.0;
    format      ascii;
    class       volVectorField;
    location    "0.4";
    object      U_0;
}
// * * * * * * * * * * * * * * * * * * * * * * * * * * * * * * * * * * * * * //

dimensions      [0 1 -1 0 0 0 0];

internalField   nonuniform List<vector> 
3375
(
(0.17062 0.0060017 0)
(0.154088 0.0060611 0)
(0.138201 0.00563515 0)
(0.123151 0.00502982 0)
(0.109348 0.00436188 0)
(0.0969614 0.00368493 0)
(0.0860032 0.00303607 0)
(0.0764395 0.002441 0)
(0.0682134 0.00191542 0)
(0.0612379 0.00146726 0)
(0.0553966 0.00109815 0)
(0.0505539 0.000804441 0)
(0.0465659 0.000578456 0)
(0.0432913 0.000410171 0)
(0.0405983 0.000288783 0)
(0.0383696 0.000203937 0)
(0.0365059 0.000146481 0)
(0.0349257 0.000108802 0)
(0.0335642 8.48688e-05 0)
(0.0323718 7.01071e-05 0)
(0.0313112 6.119e-05 0)
(0.0303547 5.58027e-05 0)
(0.0294822 5.24101e-05 0)
(0.028679 5.00482e-05 0)
(0.0279345 4.81502e-05 0)
(0.0272408 4.64104e-05 0)
(0.0265917 4.46855e-05 0)
(0.0259826 4.29252e-05 0)
(0.0254096 4.11281e-05 0)
(0.0248695 3.9314e-05 0)
(0.0243595 3.75089e-05 0)
(0.0238771 3.5737e-05 0)
(0.0234203 3.40172e-05 0)
(0.022987 3.2363e-05 0)
(0.0225756 3.07825e-05 0)
(0.0221844 2.92795e-05 0)
(0.0218121 2.78548e-05 0)
(0.0214573 2.6507e-05 0)
(0.0211189 2.52333e-05 0)
(0.0207958 2.403e-05 0)
(0.0204871 2.2893e-05 0)
(0.0201919 2.1818e-05 0)
(0.0199094 2.0801e-05 0)
(0.0196389 1.98378e-05 0)
(0.0193799 1.89245e-05 0)
(0.0191316 1.80577e-05 0)
(0.0188935 1.72339e-05 0)
(0.0186652 1.645e-05 0)
(0.0184463 1.57032e-05 0)
(0.0182362 1.49907e-05 0)
(0.0180347 1.43102e-05 0)
(0.0178413 1.36592e-05 0)
(0.0176558 1.30359e-05 0)
(0.017478 1.24381e-05 0)
(0.0173074 1.18641e-05 0)
(0.017144 1.13122e-05 0)
(0.0169874 1.07809e-05 0)
(0.0168375 1.02687e-05 0)
(0.0166942 9.77425e-06 0)
(0.0165572 9.29634e-06 0)
(0.0164264 8.83379e-06 0)
(0.0163017 8.38547e-06 0)
(0.016183 7.95035e-06 0)
(0.0160701 7.52741e-06 0)
(0.0159631 7.11578e-06 0)
(0.0158618 6.71474e-06 0)
(0.0157661 6.32385e-06 0)
(0.015676 5.94305e-06 0)
(0.0155915 5.57279e-06 0)
(0.0155125 5.21397e-06 0)
(0.015439 4.86769e-06 0)
(0.0153708 4.53454e-06 0)
(0.0153081 4.21334e-06 0)
(0.0152508 3.89923e-06 0)
(0.0151989 3.58107e-06 0)
(0.0151527 3.23857e-06 0)
(0.0151124 2.84006e-06 0)
(0.0150786 2.34518e-06 0)
(0.015052 1.73065e-06 0)
(0.0150335 1.05918e-06 0)
(0.0150244 5.03007e-07 0)
(0.0150251 -1.37443e-07 0)
(0.0150328 -7.32713e-07 0)
(0.0150464 -1.26018e-06 0)
(0.0150646 -1.67966e-06 0)
(0.0150863 -1.9733e-06 0)
(0.0151105 -2.15359e-06 0)
(0.0151361 -2.24066e-06 0)
(0.0151623 -2.25136e-06 0)
(0.0151884 -2.20409e-06 0)
(0.0152138 -2.10953e-06 0)
(0.0152382 -1.98281e-06 0)
(0.0152612 -1.83437e-06 0)
(0.0152826 -1.6726e-06 0)
(0.0153023 -1.5049e-06 0)
(0.0153202 -1.33464e-06 0)
(0.0153364 -1.16368e-06 0)
(0.0153507 -1.01021e-06 0)
(0.0153627 -1.03696e-06 0)
(0.0153859 -2.67418e-06 0)
(0.189525 0.00946232 0)
(0.187188 0.00996637 0)
(0.183248 0.00974351 0)
(0.178066 0.00924624 0)
(0.172136 0.00861155 0)
(0.165808 0.00788615 0)
(0.159303 0.00710867 0)
(0.152788 0.00631464 0)
(0.146399 0.00553397 0)
(0.140234 0.0047912 0)
(0.134362 0.00410556 0)
(0.128824 0.00349024 0)
(0.123637 0.00295217 0)
(0.118806 0.00249247 0)
(0.114322 0.00210756 0)
(0.11017 0.00179053 0)
(0.106331 0.00153258 0)
(0.10278 0.00132427 0)
(0.0994943 0.00115644 0)
(0.0964506 0.00102087 0)
(0.0936264 0.000910551 0)
(0.0910008 0.00081977 0)
(0.0885545 0.00074404 0)
(0.0862704 0.000679925 0)
(0.0841327 0.000624846 0)
(0.0821279 0.000576894 0)
(0.0802436 0.000534661 0)
(0.078469 0.000497104 0)
(0.0767946 0.000463446 0)
(0.0752118 0.000433091 0)
(0.0737131 0.000405577 0)
(0.0722918 0.000380533 0)
(0.070942 0.000357655 0)
(0.0696583 0.000336689 0)
(0.0684359 0.000317418 0)
(0.0672707 0.000299656 0)
(0.0661587 0.000283239 0)
(0.0650964 0.000268027 0)
(0.0640808 0.000253896 0)
(0.063109 0.000240735 0)
(0.0621784 0.00022845 0)
(0.0612866 0.000216955 0)
(0.0604316 0.000206176 0)
(0.0596115 0.000196047 0)
(0.0588243 0.000186507 0)
(0.0580687 0.000177506 0)
(0.057343 0.000168995 0)
(0.0566459 0.000160933 0)
(0.0559762 0.000153281 0)
(0.0553327 0.000146007 0)
(0.0547145 0.000139078 0)
(0.0541206 0.000132466 0)
(0.0535501 0.000126147 0)
(0.0530023 0.000120095 0)
(0.0524764 0.000114291 0)
(0.0519718 0.000108714 0)
(0.0514879 0.000103346 0)
(0.0510242 9.81698e-05 0)
(0.0505802 9.31706e-05 0)
(0.0501555 8.83339e-05 0)
(0.0497497 8.36463e-05 0)
(0.0493625 7.90954e-05 0)
(0.0489936 7.46699e-05 0)
(0.0486428 7.0359e-05 0)
(0.0483099 6.61531e-05 0)
(0.0479947 6.20436e-05 0)
(0.0476971 5.80233e-05 0)
(0.0474169 5.40861e-05 0)
(0.0471541 5.02272e-05 0)
(0.0469087 4.64425e-05 0)
(0.0466806 4.27271e-05 0)
(0.0464698 3.90724e-05 0)
(0.0462764 3.54626e-05 0)
(0.0461007 3.18694e-05 0)
(0.0459427 2.82475e-05 0)
(0.0458032 2.45299e-05 0)
(0.0456826 2.06271e-05 0)
(0.0455819 1.64327e-05 0)
(0.045502 1.1853e-05 0)
(0.0454439 6.8889e-06 0)
(0.0454085 1.75716e-06 0)
(0.0453974 -3.0271e-06 0)
(0.0454078 -6.59793e-06 0)
(0.0454338 -9.10976e-06 0)
(0.0454716 -1.09789e-05 0)
(0.0455182 -1.23074e-05 0)
(0.0455708 -1.31222e-05 0)
(0.0456272 -1.34724e-05 0)
(0.0456854 -1.34269e-05 0)
(0.0457438 -1.30815e-05 0)
(0.0458012 -1.25065e-05 0)
(0.0458567 -1.17779e-05 0)
(0.0459095 -1.09498e-05 0)
(0.0459592 -1.00639e-05 0)
(0.0460056 -9.15501e-06 0)
(0.0460484 -8.24417e-06 0)
(0.0460876 -7.3521e-06 0)
(0.0461232 -6.56129e-06 0)
(0.0461548 -6.35162e-06 0)
(0.0461969 -8.91709e-06 0)
(0.192512 0.00909211 0)
(0.193274 0.0100432 0)
(0.193396 0.0103797 0)
(0.192728 0.0103888 0)
(0.19138 0.0101684 0)
(0.189471 0.00975641 0)
(0.187088 0.00919796 0)
(0.18432 0.00854308 0)
(0.181258 0.00783757 0)
(0.17799 0.00712027 0)
(0.174592 0.00642241 0)
(0.171128 0.00576689 0)
(0.167648 0.00516822 0)
(0.164194 0.00463334 0)
(0.160792 0.00416311 0)
(0.157465 0.0037541 0)
(0.154224 0.00340029 0)
(0.151078 0.00309455 0)
(0.148031 0.00282965 0)
(0.145084 0.00259892 0)
(0.142237 0.00239656 0)
(0.139488 0.00221776 0)
(0.136836 0.00205858 0)
(0.134278 0.00191591 0)
(0.131811 0.00178726 0)
(0.129432 0.00167067 0)
(0.127138 0.00156455 0)
(0.124927 0.00146762 0)
(0.122796 0.00137883 0)
(0.120741 0.00129727 0)
(0.11876 0.00122218 0)
(0.11685 0.00115291 0)
(0.115008 0.00108887 0)
(0.113232 0.00102956 0)
(0.11152 0.000974512 0)
(0.109867 0.000923333 0)
(0.108273 0.000875658 0)
(0.106735 0.000831163 0)
(0.105251 0.000789558 0)
(0.103818 0.000750583 0)
(0.102435 0.000714006 0)
(0.1011 0.000679615 0)
(0.0998108 0.000647223 0)
(0.0985657 0.00061666 0)
(0.0973633 0.000587771 0)
(0.0962021 0.000560417 0)
(0.0950807 0.000534473 0)
(0.0939978 0.000509824 0)
(0.0929521 0.000486365 0)
(0.0919426 0.000464003 0)
(0.0909682 0.000442648 0)
(0.0900279 0.000422223 0)
(0.0891208 0.000402652 0)
(0.0882461 0.00038387 0)
(0.087403 0.000365812 0)
(0.0865909 0.000348423 0)
(0.0858092 0.000331648 0)
(0.0850572 0.000315437 0)
(0.0843346 0.000299746 0)
(0.0836408 0.00028453 0)
(0.0829755 0.00026975 0)
(0.0823385 0.00025537 0)
(0.0817293 0.000241354 0)
(0.0811479 0.00022767 0)
(0.0805941 0.000214289 0)
(0.0800677 0.000201185 0)
(0.0795687 0.000188332 0)
(0.079097 0.00017571 0)
(0.0786528 0.000163299 0)
(0.0782359 0.000151079 0)
(0.0778467 0.000139028 0)
(0.0774852 0.000127114 0)
(0.0771517 0.000115294 0)
(0.0768465 0.000103504 0)
(0.0765701 9.1654e-05 0)
(0.076323 7.96365e-05 0)
(0.0761058 6.73341e-05 0)
(0.0759192 5.46483e-05 0)
(0.0757636 4.15391e-05 0)
(0.0756389 2.8052e-05 0)
(0.0755437 1.43106e-05 0)
(0.0754752 8.76082e-07 0)
(0.0754386 -1.08103e-05 0)
(0.0754329 -1.94948e-05 0)
(0.0754498 -2.53729e-05 0)
(0.0754839 -2.92789e-05 0)
(0.0755308 -3.17581e-05 0)
(0.0755867 -3.30785e-05 0)
(0.0756486 -3.34049e-05 0)
(0.075714 -3.2935e-05 0)
(0.0757809 -3.18353e-05 0)
(0.0758477 -3.02935e-05 0)
(0.0759131 -2.84551e-05 0)
(0.0759762 -2.64341e-05 0)
(0.0760365 -2.43225e-05 0)
(0.0760934 -2.21814e-05 0)
(0.0761467 -2.00669e-05 0)
(0.0761961 -1.81182e-05 0)
(0.0762408 -1.69196e-05 0)
(0.0762902 -1.75802e-05 0)
(0.193552 0.00844995 0)
(0.194672 0.00949408 0)
(0.195695 0.0100515 0)
(0.196405 0.0102973 0)
(0.196779 0.0103117 0)
(0.196822 0.0101265 0)
(0.19653 0.00977716 0)
(0.195907 0.00930648 0)
(0.194977 0.00875633 0)
(0.193777 0.00816415 0)
(0.192348 0.00756178 0)
(0.190732 0.00697443 0)
(0.188971 0.00642008 0)
(0.1871 0.00590969 0)
(0.18515 0.00544825 0)
(0.183147 0.00503612 0)
(0.181111 0.00467061 0)
(0.179057 0.00434721 0)
(0.176995 0.00406064 0)
(0.174935 0.00380563 0)
(0.172883 0.00357726 0)
(0.170844 0.00337129 0)
(0.16882 0.00318414 0)
(0.166815 0.00301288 0)
(0.164832 0.00285519 0)
(0.162872 0.00270922 0)
(0.160937 0.00257348 0)
(0.159029 0.00244683 0)
(0.15715 0.0023283 0)
(0.155299 0.00221713 0)
(0.15348 0.00211266 0)
(0.151692 0.00201432 0)
(0.149935 0.00192163 0)
(0.148212 0.00183417 0)
(0.146522 0.00175153 0)
(0.144866 0.00167336 0)
(0.143243 0.00159936 0)
(0.141655 0.00152921 0)
(0.140101 0.00146266 0)
(0.138581 0.00139945 0)
(0.137095 0.00133934 0)
(0.135644 0.00128213 0)
(0.134226 0.00122762 0)
(0.132842 0.00117562 0)
(0.131491 0.00112596 0)
(0.130174 0.00107849 0)
(0.128889 0.00103305 0)
(0.127638 0.000989503 0)
(0.126419 0.000947724 0)
(0.125232 0.000907589 0)
(0.124077 0.000868986 0)
(0.122955 0.000831806 0)
(0.121864 0.000795949 0)
(0.120804 0.000761322 0)
(0.119775 0.000727835 0)
(0.118778 0.000695405 0)
(0.117811 0.000663952 0)
(0.116876 0.000633402 0)
(0.115971 0.000603684 0)
(0.115097 0.000574732 0)
(0.114254 0.000546483 0)
(0.113442 0.000518878 0)
(0.112661 0.00049186 0)
(0.111911 0.000465378 0)
(0.111192 0.000439381 0)
(0.110504 0.000413826 0)
(0.109849 0.000388669 0)
(0.109225 0.000363873 0)
(0.108633 0.0003394 0)
(0.108074 0.000315213 0)
(0.107548 0.000291269 0)
(0.107055 0.000267518 0)
(0.106596 0.000243889 0)
(0.106172 0.000220296 0)
(0.105782 0.000196631 0)
(0.105429 0.000172778 0)
(0.105111 0.000148644 0)
(0.104831 0.000124202 0)
(0.104586 9.95715e-05 0)
(0.104378 7.50929e-05 0)
(0.104204 5.13087e-05 0)
(0.104061 2.86158e-05 0)
(0.103944 7.45473e-06 0)
(0.103854 -1.13163e-05 0)
(0.1038 -2.63903e-05 0)
(0.103775 -3.71431e-05 0)
(0.103773 -4.42783e-05 0)
(0.103788 -4.86733e-05 0)
(0.103817 -5.10048e-05 0)
(0.103856 -5.17686e-05 0)
(0.103902 -5.12755e-05 0)
(0.103953 -4.98372e-05 0)
(0.104007 -4.77017e-05 0)
(0.104062 -4.50796e-05 0)
(0.104117 -4.21514e-05 0)
(0.104172 -3.9044e-05 0)
(0.104225 -3.58585e-05 0)
(0.104276 -3.27312e-05 0)
(0.104323 -2.99811e-05 0)
(0.104372 -2.70806e-05 0)
(0.194289 0.00794469 0)
(0.19527 0.00892279 0)
(0.196324 0.00951571 0)
(0.197286 0.00983345 0)
(0.198109 0.00994604 0)
(0.198777 0.00988302 0)
(0.199264 0.00967032 0)
(0.199547 0.00933991 0)
(0.199618 0.0089252 0)
(0.19948 0.00845753 0)
(0.199148 0.00796483 0)
(0.198641 0.00747044 0)
(0.197982 0.00699223 0)
(0.197195 0.00654235 0)
(0.196301 0.00612771 0)
(0.195322 0.00575093 0)
(0.194273 0.00541148 0)
(0.193168 0.00510681 0)
(0.192018 0.00483327 0)
(0.190831 0.00458685 0)
(0.189614 0.00436361 0)
(0.188371 0.00416 0)
(0.187106 0.00397298 0)
(0.185823 0.00379998 0)
(0.184525 0.00363895 0)
(0.183214 0.00348825 0)
(0.181892 0.00334656 0)
(0.180563 0.00321284 0)
(0.179227 0.00308626 0)
(0.177887 0.00296613 0)
(0.176545 0.00285189 0)
(0.175203 0.00274307 0)
(0.173861 0.00263924 0)
(0.172523 0.00254006 0)
(0.171189 0.0024452 0)
(0.169861 0.00235437 0)
(0.168541 0.00226731 0)
(0.167229 0.00218378 0)
(0.165927 0.00210358 0)
(0.164636 0.00202648 0)
(0.163356 0.00195231 0)
(0.16209 0.0018809 0)
(0.160838 0.00181208 0)
(0.1596 0.0017457 0)
(0.158378 0.00168161 0)
(0.157173 0.00161969 0)
(0.155985 0.00155981 0)
(0.154814 0.00150185 0)
(0.153662 0.00144569 0)
(0.152529 0.00139123 0)
(0.151416 0.00133836 0)
(0.150324 0.00128698 0)
(0.149252 0.001237 0)
(0.148201 0.00118833 0)
(0.147173 0.00114088 0)
(0.146167 0.00109457 0)
(0.145185 0.00104931 0)
(0.144226 0.00100503 0)
(0.143291 0.000961655 0)
(0.142381 0.000919108 0)
(0.141496 0.000877323 0)
(0.140637 0.000836232 0)
(0.139804 0.000795774 0)
(0.138999 0.000755887 0)
(0.138221 0.000716513 0)
(0.137472 0.000677601 0)
(0.136752 0.000639097 0)
(0.136061 0.000600956 0)
(0.1354 0.00056313 0)
(0.134771 0.000525571 0)
(0.134174 0.000488225 0)
(0.133609 0.000451028 0)
(0.133078 0.000413903 0)
(0.132581 0.000376757 0)
(0.132119 0.000339494 0)
(0.131692 0.00030203 0)
(0.131303 0.000264337 0)
(0.130949 0.000226502 0)
(0.130633 0.000188805 0)
(0.130352 0.000151791 0)
(0.130105 0.00011628 0)
(0.129891 8.32243e-05 0)
(0.129708 5.30881e-05 0)
(0.12955 2.571e-05 0)
(0.12941 1.51019e-06 0)
(0.129297 -1.88763e-05 0)
(0.129214 -3.49146e-05 0)
(0.129157 -4.63626e-05 0)
(0.129121 -5.39481e-05 0)
(0.129102 -5.85368e-05 0)
(0.129098 -6.08119e-05 0)
(0.129104 -6.13611e-05 0)
(0.12912 -6.0591e-05 0)
(0.129142 -5.88228e-05 0)
(0.12917 -5.6332e-05 0)
(0.129201 -5.33203e-05 0)
(0.129235 -4.99392e-05 0)
(0.12927 -4.62908e-05 0)
(0.129304 -4.22827e-05 0)
(0.129338 -3.57362e-05 0)
(0.19492 0.00751076 0)
(0.195726 0.00838439 0)
(0.196648 0.00896216 0)
(0.197562 0.00930397 0)
(0.198421 0.00946337 0)
(0.199204 0.00946723 0)
(0.199889 0.00933673 0)
(0.200452 0.00909731 0)
(0.20088 0.0087766 0)
(0.201166 0.00840117 0)
(0.201313 0.00799511 0)
(0.201329 0.00757907 0)
(0.201226 0.00716944 0)
(0.201017 0.00677803 0)
(0.200718 0.00641223 0)
(0.200341 0.0060757 0)
(0.1999 0.00576919 0)
(0.199404 0.00549149 0)
(0.198861 0.00524017 0)
(0.198278 0.00501225 0)
(0.19766 0.00480462 0)
(0.19701 0.00461435 0)
(0.196331 0.00443882 0)
(0.195625 0.00427579 0)
(0.194896 0.00412342 0)
(0.194143 0.00398019 0)
(0.193368 0.00384487 0)
(0.192574 0.00371649 0)
(0.191761 0.00359426 0)
(0.190931 0.00347753 0)
(0.190085 0.00336578 0)
(0.189224 0.00325857 0)
(0.18835 0.00315553 0)
(0.187464 0.00305632 0)
(0.186567 0.00296068 0)
(0.185661 0.00286836 0)
(0.184747 0.00277912 0)
(0.183826 0.00269277 0)
(0.182899 0.00260914 0)
(0.181968 0.00252805 0)
(0.181033 0.00244935 0)
(0.180095 0.0023729 0)
(0.179157 0.00229857 0)
(0.178218 0.00222624 0)
(0.17728 0.00215578 0)
(0.176345 0.00208711 0)
(0.175412 0.0020201 0)
(0.174482 0.00195467 0)
(0.173558 0.00189073 0)
(0.17264 0.00182817 0)
(0.171728 0.00176692 0)
(0.170824 0.00170689 0)
(0.169929 0.001648 0)
(0.169043 0.00159018 0)
(0.168168 0.00153334 0)
(0.167304 0.00147742 0)
(0.166452 0.00142233 0)
(0.165614 0.00136802 0)
(0.164789 0.00131441 0)
(0.16398 0.00126144 0)
(0.163186 0.00120904 0)
(0.162409 0.00115714 0)
(0.16165 0.00110569 0)
(0.16091 0.00105463 0)
(0.160189 0.0010039 0)
(0.159489 0.000953453 0)
(0.15881 0.000903235 0)
(0.158154 0.000853198 0)
(0.157521 0.000803297 0)
(0.156913 0.00075348 0)
(0.156331 0.000703695 0)
(0.155775 0.000653878 0)
(0.155247 0.000603958 0)
(0.154747 0.000553861 0)
(0.154277 0.000503521 0)
(0.153838 0.000452913 0)
(0.153429 0.000402098 0)
(0.153052 0.000351286 0)
(0.152706 0.000300905 0)
(0.15239 0.000251648 0)
(0.152105 0.000204456 0)
(0.151848 0.000160368 0)
(0.15162 0.000120197 0)
(0.151417 8.44757e-05 0)
(0.151237 5.30834e-05 0)
(0.151076 2.55213e-05 0)
(0.150929 1.97474e-06 0)
(0.150801 -1.74179e-05 0)
(0.150697 -3.27135e-05 0)
(0.150613 -4.39194e-05 0)
(0.150547 -5.1569e-05 0)
(0.150497 -5.64e-05 0)
(0.150459 -5.90288e-05 0)
(0.150434 -5.99607e-05 0)
(0.150417 -5.96048e-05 0)
(0.150409 -5.82432e-05 0)
(0.150407 -5.60711e-05 0)
(0.15041 -5.31529e-05 0)
(0.150416 -4.90592e-05 0)
(0.150424 -4.05499e-05 0)
(0.195474 0.00714028 0)
(0.19614 0.00791044 0)
(0.196924 0.00845646 0)
(0.197735 0.00880308 0)
(0.198525 0.00898642 0)
(0.199274 0.00902973 0)
(0.199961 0.0089516 0)
(0.200567 0.00877336 0)
(0.20108 0.00851845 0)
(0.201493 0.00820981 0)
(0.201805 0.00786842 0)
(0.202021 0.00751248 0)
(0.202146 0.00715681 0)
(0.202192 0.00681245 0)
(0.202168 0.00648683 0)
(0.202085 0.00618411 0)
(0.201951 0.00590591 0)
(0.201774 0.00565196 0)
(0.201561 0.00542076 0)
(0.201317 0.00521016 0)
(0.201045 0.00501771 0)
(0.200748 0.00484101 0)
(0.200428 0.00467781 0)
(0.200087 0.00452613 0)
(0.199725 0.00438428 0)
(0.199344 0.00425087 0)
(0.198944 0.00412473 0)
(0.198526 0.00400491 0)
(0.19809 0.00389065 0)
(0.197637 0.00378131 0)
(0.197167 0.00367636 0)
(0.196682 0.00357538 0)
(0.196181 0.00347799 0)
(0.195665 0.00338388 0)
(0.195136 0.00329277 0)
(0.194593 0.00320443 0)
(0.194038 0.00311863 0)
(0.19347 0.00303519 0)
(0.192892 0.00295394 0)
(0.192303 0.00287472 0)
(0.191704 0.00279739 0)
(0.191097 0.00272183 0)
(0.190481 0.0026479 0)
(0.189858 0.00257551 0)
(0.189229 0.00250454 0)
(0.188593 0.0024349 0)
(0.187953 0.0023665 0)
(0.187308 0.00229926 0)
(0.18666 0.00223307 0)
(0.18601 0.00216788 0)
(0.185357 0.0021036 0)
(0.184704 0.00204015 0)
(0.18405 0.00197747 0)
(0.183398 0.00191548 0)
(0.182747 0.00185411 0)
(0.182099 0.00179331 0)
(0.181454 0.00173299 0)
(0.180813 0.00167309 0)
(0.180177 0.00161356 0)
(0.179548 0.00155432 0)
(0.178926 0.00149533 0)
(0.178312 0.00143651 0)
(0.177707 0.00137781 0)
(0.177112 0.00131919 0)
(0.176528 0.00126057 0)
(0.175956 0.00120193 0)
(0.175397 0.0011432 0)
(0.174852 0.00108435 0)
(0.174322 0.00102532 0)
(0.173809 0.000966087 0)
(0.173312 0.000906586 0)
(0.172835 0.00084677 0)
(0.172376 0.000786585 0)
(0.171938 0.000725985 0)
(0.171521 0.000664952 0)
(0.171126 0.000603526 0)
(0.170754 0.000541859 0)
(0.170405 0.000480271 0)
(0.170079 0.000419308 0)
(0.169776 0.000359767 0)
(0.169496 0.000302649 0)
(0.169237 0.000249014 0)
(0.169 0.000199752 0)
(0.168783 0.000155462 0)
(0.168587 0.000116372 0)
(0.168409 8.25401e-05 0)
(0.168248 5.3606e-05 0)
(0.1681 2.88261e-05 0)
(0.167963 7.98598e-06 0)
(0.167838 -9.01488e-06 0)
(0.167729 -2.25453e-05 0)
(0.167634 -3.28451e-05 0)
(0.167553 -4.02394e-05 0)
(0.167485 -4.52265e-05 0)
(0.167427 -4.82986e-05 0)
(0.16738 -4.98308e-05 0)
(0.16734 -5.00816e-05 0)
(0.167309 -4.9117e-05 0)
(0.167283 -4.63894e-05 0)
(0.167259 -3.86951e-05 0)
(0.195965 0.00682144 0)
(0.196523 0.00749678 0)
(0.197188 0.00800224 0)
(0.197895 0.00834194 0)
(0.198602 0.00853751 0)
(0.199284 0.00860749 0)
(0.199922 0.00856789 0)
(0.2005 0.00843653 0)
(0.201008 0.00823314 0)
(0.201438 0.00797744 0)
(0.20179 0.00768772 0)
(0.202065 0.00738011 0)
(0.20227 0.00706799 0)
(0.202411 0.0067617 0)
(0.202497 0.00646852 0)
(0.202536 0.00619298 0)
(0.202536 0.00593731 0)
(0.202503 0.00570199 0)
(0.202442 0.00548632 0)
(0.202359 0.00528885 0)
(0.202257 0.00510775 0)
(0.202137 0.00494108 0)
(0.202002 0.00478698 0)
(0.201853 0.00464373 0)
(0.201691 0.00450984 0)
(0.201516 0.004384 0)
(0.201329 0.00426514 0)
(0.201129 0.00415235 0)
(0.200917 0.00404487 0)
(0.200693 0.00394208 0)
(0.200458 0.00384345 0)
(0.200211 0.00374854 0)
(0.199953 0.00365698 0)
(0.199683 0.00356842 0)
(0.199402 0.0034826 0)
(0.19911 0.00339927 0)
(0.198808 0.0033182 0)
(0.198495 0.00323919 0)
(0.198172 0.00316207 0)
(0.19784 0.00308668 0)
(0.197497 0.00301287 0)
(0.197146 0.00294051 0)
(0.196786 0.00286948 0)
(0.196418 0.00279966 0)
(0.196041 0.00273094 0)
(0.195657 0.00266323 0)
(0.195266 0.00259643 0)
(0.194868 0.00253046 0)
(0.194464 0.00246522 0)
(0.194054 0.00240064 0)
(0.19364 0.00233664 0)
(0.19322 0.00227314 0)
(0.192797 0.00221007 0)
(0.19237 0.00214735 0)
(0.19194 0.00208492 0)
(0.191508 0.00202272 0)
(0.191075 0.00196066 0)
(0.19064 0.00189869 0)
(0.190206 0.00183674 0)
(0.189772 0.00177475 0)
(0.189339 0.00171265 0)
(0.188908 0.0016504 0)
(0.18848 0.00158792 0)
(0.188056 0.00152517 0)
(0.187636 0.00146209 0)
(0.187222 0.00139864 0)
(0.186814 0.00133477 0)
(0.186412 0.00127044 0)
(0.186019 0.0012056 0)
(0.185634 0.00114022 0)
(0.18526 0.00107425 0)
(0.184895 0.00100767 0)
(0.184543 0.000940431 0)
(0.184202 0.000872526 0)
(0.183875 0.000803982 0)
(0.183561 0.000734904 0)
(0.183261 0.00066552 0)
(0.182976 0.000596234 0)
(0.182705 0.000527671 0)
(0.182449 0.000460682 0)
(0.182207 0.000396288 0)
(0.181979 0.000335543 0)
(0.181766 0.000279341 0)
(0.181566 0.000228312 0)
(0.181382 0.00018279 0)
(0.181211 0.00014286 0)
(0.181053 0.000108325 0)
(0.180908 7.89127e-05 0)
(0.180774 5.41879e-05 0)
(0.180651 3.34065e-05 0)
(0.180535 1.60316e-05 0)
(0.180427 1.81712e-06 0)
(0.180328 -9.58691e-06 0)
(0.180239 -1.85401e-05 0)
(0.180159 -2.52891e-05 0)
(0.180088 -3.01036e-05 0)
(0.180025 -3.3241e-05 0)
(0.17997 -3.48042e-05 0)
(0.179921 -3.43854e-05 0)
(0.179872 -2.98872e-05 0)
(0.1964 0.00654143 0)
(0.196874 0.0071326 0)
(0.197441 0.00759419 0)
(0.198056 0.00791998 0)
(0.198682 0.00812084 0)
(0.199295 0.00821018 0)
(0.199875 0.0082011 0)
(0.20041 0.00810826 0)
(0.200888 0.00794801 0)
(0.201303 0.00773713 0)
(0.201652 0.00749151 0)
(0.201939 0.00722538 0)
(0.202165 0.0069508 0)
(0.202338 0.00667737 0)
(0.202464 0.00641217 0)
(0.202551 0.00615991 0)
(0.202603 0.00592328 0)
(0.202629 0.00570339 0)
(0.202633 0.00550019 0)
(0.202618 0.00531287 0)
(0.202589 0.00514015 0)
(0.202547 0.00498058 0)
(0.202495 0.00483264 0)
(0.202434 0.00469491 0)
(0.202365 0.00456609 0)
(0.202288 0.00444503 0)
(0.202204 0.00433075 0)
(0.202113 0.00422239 0)
(0.202015 0.00411925 0)
(0.20191 0.00402071 0)
(0.201799 0.00392627 0)
(0.20168 0.00383547 0)
(0.201555 0.00374795 0)
(0.201424 0.00366336 0)
(0.201285 0.00358143 0)
(0.20114 0.0035019 0)
(0.200988 0.00342453 0)
(0.200829 0.00334913 0)
(0.200664 0.00327551 0)
(0.200492 0.00320349 0)
(0.200314 0.00313294 0)
(0.200129 0.00306369 0)
(0.199937 0.00299564 0)
(0.19974 0.00292864 0)
(0.199536 0.00286259 0)
(0.199326 0.00279738 0)
(0.199111 0.00273291 0)
(0.19889 0.00266907 0)
(0.198663 0.00260579 0)
(0.198431 0.00254297 0)
(0.198194 0.00248052 0)
(0.197952 0.00241837 0)
(0.197706 0.00235643 0)
(0.197455 0.00229462 0)
(0.197201 0.00223287 0)
(0.196943 0.0021711 0)
(0.196682 0.00210923 0)
(0.196418 0.00204721 0)
(0.196152 0.00198495 0)
(0.195884 0.00192239 0)
(0.195615 0.00185947 0)
(0.195345 0.00179611 0)
(0.195074 0.00173227 0)
(0.194804 0.00166787 0)
(0.194534 0.00160286 0)
(0.194265 0.00153721 0)
(0.193998 0.00147085 0)
(0.193733 0.00140374 0)
(0.193472 0.00133585 0)
(0.193214 0.00126714 0)
(0.19296 0.00119757 0)
(0.192711 0.00112713 0)
(0.192468 0.0010558 0)
(0.192231 0.000983599 0)
(0.192 0.000910596 0)
(0.191775 0.000836947 0)
(0.191558 0.000762935 0)
(0.191348 0.000689018 0)
(0.191146 0.000615859 0)
(0.19095 0.00054432 0)
(0.190763 0.000475405 0)
(0.190582 0.000410134 0)
(0.19041 0.000349387 0)
(0.190246 0.000293803 0)
(0.190091 0.000243748 0)
(0.189944 0.000199344 0)
(0.189807 0.000160493 0)
(0.189678 0.000126954 0)
(0.189558 9.83113e-05 0)
(0.189447 7.40984e-05 0)
(0.189343 5.38757e-05 0)
(0.189246 3.7076e-05 0)
(0.189156 2.31098e-05 0)
(0.18907 1.15886e-05 0)
(0.18899 2.27407e-06 0)
(0.188915 -5.1026e-06 0)
(0.188846 -1.07534e-05 0)
(0.188783 -1.47265e-05 0)
(0.188727 -1.6823e-05 0)
(0.188667 -1.64426e-05 0)
(0.196787 0.00629146 0)
(0.197195 0.00680951 0)
(0.197682 0.00722769 0)
(0.198216 0.00753547 0)
(0.198769 0.00773651 0)
(0.199316 0.00783952 0)
(0.199841 0.00785472 0)
(0.20033 0.00779392 0)
(0.200773 0.00767054 0)
(0.201163 0.00749868 0)
(0.201499 0.00729197 0)
(0.201781 0.00706287 0)
(0.202011 0.00682219 0)
(0.202193 0.00657872 0)
(0.202334 0.00633922 0)
(0.202439 0.00610844 0)
(0.202514 0.00588941 0)
(0.202564 0.00568369 0)
(0.202595 0.00549178 0)
(0.202609 0.00531341 0)
(0.20261 0.00514781 0)
(0.202601 0.00499395 0)
(0.202584 0.00485069 0)
(0.20256 0.00471687 0)
(0.20253 0.00459143 0)
(0.202495 0.00447336 0)
(0.202455 0.0043618 0)
(0.202412 0.00425598 0)
(0.202364 0.00415526 0)
(0.202313 0.00405905 0)
(0.202259 0.00396688 0)
(0.202201 0.00387832 0)
(0.202139 0.003793 0)
(0.202075 0.00371061 0)
(0.202007 0.00363084 0)
(0.201935 0.00355346 0)
(0.20186 0.00347824 0)
(0.201782 0.00340496 0)
(0.2017 0.00333345 0)
(0.201615 0.00326352 0)
(0.201527 0.00319503 0)
(0.201435 0.00312783 0)
(0.201339 0.00306177 0)
(0.20124 0.00299673 0)
(0.201137 0.0029326 0)
(0.201031 0.00286925 0)
(0.200921 0.00280658 0)
(0.200808 0.00274449 0)
(0.200691 0.00268288 0)
(0.200571 0.00262165 0)
(0.200447 0.0025607 0)
(0.20032 0.00249995 0)
(0.20019 0.00243931 0)
(0.200057 0.0023787 0)
(0.199921 0.00231803 0)
(0.199782 0.00225721 0)
(0.19964 0.00219618 0)
(0.199496 0.00213484 0)
(0.199349 0.00207312 0)
(0.199201 0.00201095 0)
(0.19905 0.00194826 0)
(0.198897 0.00188497 0)
(0.198744 0.00182103 0)
(0.198588 0.00175635 0)
(0.198432 0.0016909 0)
(0.198276 0.0016246 0)
(0.198119 0.00155742 0)
(0.197962 0.00148931 0)
(0.197805 0.00142023 0)
(0.19765 0.00135014 0)
(0.197495 0.00127902 0)
(0.197341 0.00120686 0)
(0.197189 0.00113367 0)
(0.197039 0.00105948 0)
(0.196891 0.000984408 0)
(0.196745 0.000908633 0)
(0.196601 0.000832478 0)
(0.19646 0.000756425 0)
(0.19632 0.00068114 0)
(0.196183 0.000607464 0)
(0.196048 0.000536355 0)
(0.195916 0.000468777 0)
(0.195788 0.000405573 0)
(0.195662 0.000347375 0)
(0.195542 0.000294568 0)
(0.195426 0.00024731 0)
(0.195315 0.00020555 0)
(0.19521 0.000169082 0)
(0.19511 0.000137566 0)
(0.195017 0.000110599 0)
(0.194929 8.77302e-05 0)
(0.194846 6.84598e-05 0)
(0.194769 5.23587e-05 0)
(0.194696 3.90216e-05 0)
(0.194628 2.80231e-05 0)
(0.194563 1.89976e-05 0)
(0.194502 1.17068e-05 0)
(0.194445 6.03856e-06 0)
(0.194391 1.90748e-06 0)
(0.194332 -1.32153e-06 0)
(0.197134 0.00606559 0)
(0.197488 0.00652081 0)
(0.197908 0.00689797 0)
(0.198373 0.00718558 0)
(0.19886 0.00738291 0)
(0.199347 0.00749491 0)
(0.19982 0.00752912 0)
(0.200265 0.00749488 0)
(0.200673 0.00740306 0)
(0.201037 0.00726532 0)
(0.201356 0.00709325 0)
(0.201627 0.00689765 0)
(0.201854 0.00668805 0)
(0.202038 0.00647247 0)
(0.202185 0.00625724 0)
(0.202299 0.00604704 0)
(0.202385 0.00584505 0)
(0.202447 0.0056532 0)
(0.202491 0.00547241 0)
(0.202519 0.00530285 0)
(0.202535 0.00514419 0)
(0.202541 0.00499579 0)
(0.202538 0.00485684 0)
(0.20253 0.00472646 0)
(0.202517 0.00460378 0)
(0.202499 0.00448799 0)
(0.202478 0.00437834 0)
(0.202454 0.00427416 0)
(0.202427 0.00417488 0)
(0.202398 0.00407996 0)
(0.202367 0.00398897 0)
(0.202335 0.00390151 0)
(0.202301 0.00381723 0)
(0.202265 0.00373584 0)
(0.202228 0.00365704 0)
(0.202189 0.00358062 0)
(0.202149 0.00350633 0)
(0.202108 0.00343399 0)
(0.202065 0.0033634 0)
(0.202021 0.00329441 0)
(0.201975 0.00322685 0)
(0.201928 0.00316058 0)
(0.20188 0.00309547 0)
(0.20183 0.00303138 0)
(0.201779 0.0029682 0)
(0.201726 0.0029058 0)
(0.201672 0.00284408 0)
(0.201616 0.00278293 0)
(0.201559 0.00272225 0)
(0.2015 0.00266194 0)
(0.201439 0.0026019 0)
(0.201377 0.00254203 0)
(0.201313 0.00248226 0)
(0.201248 0.00242247 0)
(0.201181 0.00236259 0)
(0.201112 0.00230253 0)
(0.201041 0.0022422 0)
(0.200969 0.00218151 0)
(0.200896 0.0021204 0)
(0.200821 0.00205877 0)
(0.200745 0.00199655 0)
(0.200667 0.00193367 0)
(0.200588 0.00187005 0)
(0.200508 0.00180563 0)
(0.200427 0.00174035 0)
(0.200344 0.00167414 0)
(0.200261 0.00160695 0)
(0.200177 0.00153875 0)
(0.200092 0.00146949 0)
(0.200007 0.00139914 0)
(0.199921 0.00132768 0)
(0.199834 0.00125512 0)
(0.199747 0.00118147 0)
(0.19966 0.0011068 0)
(0.199572 0.00103123 0)
(0.199484 0.000954972 0)
(0.199395 0.000878368 0)
(0.199306 0.000801899 0)
(0.199215 0.000726214 0)
(0.199124 0.000652107 0)
(0.199032 0.000580472 0)
(0.198939 0.000512203 0)
(0.198847 0.000448093 0)
(0.198755 0.00038875 0)
(0.198665 0.000334566 0)
(0.198577 0.000285723 0)
(0.198491 0.000242212 0)
(0.198409 0.000203871 0)
(0.19833 0.000170416 0)
(0.198254 0.000141482 0)
(0.198183 0.000116662 0)
(0.198115 9.55204e-05 0)
(0.198051 7.76453e-05 0)
(0.197991 6.26304e-05 0)
(0.197934 5.00933e-05 0)
(0.19788 3.97249e-05 0)
(0.19783 3.12568e-05 0)
(0.197782 2.44256e-05 0)
(0.197737 1.88756e-05 0)
(0.197685 1.33701e-05 0)
(0.197445 0.00585964 0)
(0.197755 0.00626106 0)
(0.19812 0.00660056 0)
(0.198525 0.00686728 0)
(0.198953 0.00705814 0)
(0.199386 0.00717535 0)
(0.19981 0.00722413 0)
(0.200213 0.00721168 0)
(0.200587 0.00714667 0)
(0.200926 0.00703864 0)
(0.201225 0.0068973 0)
(0.201485 0.00673192 0)
(0.201705 0.00655085 0)
(0.201888 0.00636127 0)
(0.202037 0.00616906 0)
(0.202156 0.0059787 0)
(0.202248 0.00579345 0)
(0.202319 0.00561545 0)
(0.202371 0.00544593 0)
(0.202407 0.00528543 0)
(0.202432 0.00513399 0)
(0.202446 0.00499131 0)
(0.202452 0.00485686 0)
(0.202452 0.00473002 0)
(0.202447 0.00461015 0)
(0.202438 0.00449657 0)
(0.202425 0.00438869 0)
(0.202409 0.00428593 0)
(0.202392 0.00418778 0)
(0.202372 0.00409379 0)
(0.202351 0.00400355 0)
(0.202329 0.00391671 0)
(0.202306 0.00383295 0)
(0.202282 0.00375199 0)
(0.202257 0.00367357 0)
(0.202232 0.00359746 0)
(0.202206 0.00352345 0)
(0.20218 0.00345136 0)
(0.202154 0.00338101 0)
(0.202127 0.00331223 0)
(0.2021 0.00324489 0)
(0.202073 0.00317884 0)
(0.202045 0.00311394 0)
(0.202017 0.00305007 0)
(0.201989 0.00298711 0)
(0.201961 0.00292496 0)
(0.201932 0.00286349 0)
(0.201903 0.0028026 0)
(0.201874 0.0027422 0)
(0.201845 0.00268217 0)
(0.201815 0.00262243 0)
(0.201784 0.00256287 0)
(0.201753 0.00250341 0)
(0.201722 0.00244395 0)
(0.20169 0.0023844 0)
(0.201658 0.00232468 0)
(0.201625 0.00226469 0)
(0.201592 0.00220435 0)
(0.201557 0.00214357 0)
(0.201523 0.00208228 0)
(0.201487 0.00202039 0)
(0.201451 0.00195783 0)
(0.201414 0.00189453 0)
(0.201376 0.00183041 0)
(0.201338 0.00176542 0)
(0.201298 0.00169949 0)
(0.201258 0.00163258 0)
(0.201217 0.00156463 0)
(0.201175 0.00149562 0)
(0.201132 0.00142551 0)
(0.201088 0.0013543 0)
(0.201043 0.001282 0)
(0.200996 0.00120864 0)
(0.200948 0.00113429 0)
(0.200899 0.00105911 0)
(0.200848 0.000983313 0)
(0.200795 0.000907244 0)
(0.200739 0.000831373 0)
(0.200682 0.000756313 0)
(0.200621 0.000682806 0)
(0.200559 0.000611668 0)
(0.200494 0.00054372 0)
(0.200428 0.000479693 0)
(0.200361 0.000420165 0)
(0.200293 0.000365523 0)
(0.200226 0.000315965 0)
(0.20016 0.000271515 0)
(0.200095 0.000232053 0)
(0.200033 0.000197343 0)