/*--------------------------------*- C++ -*----------------------------------*\
| =========                 |                                                 |
| \\      /  F ield         | OpenFOAM: The Open Source CFD Toolbox           |
|  \\    /   O peration     | Version:  2.3.0                                 |
|   \\  /    A nd           | Web:      www.OpenFOAM.org                      |
|    \\/     M anipulation  |                                                 |
\*---------------------------------------------------------------------------*/
FoamFile
{
    version     2.0;
    format      ascii;
    class       volScalarField;
    location    "0.5";
    object      p;
}
// * * * * * * * * * * * * * * * * * * * * * * * * * * * * * * * * * * * * * //

dimensions      [0 2 -2 0 0 0 0];

internalField   nonuniform List<scalar> 
3105
(
0.00228626
0.00174664
0.00126634
0.000913889
0.000628623
0.000376236
0.000153634
-3.51459e-05
-0.000188424
-0.000307164
-0.000394038
-0.000452983
-0.000488787
-0.000506536
-0.000511062
-0.000506557
-0.000496376
-0.000483019
-0.000468219
-0.000453086
-0.000438268
-0.000424088
-0.000410668
-0.000398006
-0.000386043
-0.000374693
-0.000363872
-0.000353502
-0.000343519
-0.000333876
-0.000324535
-0.00031547
-0.000306662
-0.000298099
-0.000289772
-0.000281675
-0.000273805
-0.000266159
-0.000258734
-0.000251529
-0.000244542
-0.000237771
-0.000231215
-0.000224872
-0.00021874
-0.000212818
-0.000207102
-0.00020159
-0.000196281
-0.000191172
-0.000186258
-0.000181539
-0.000177009
-0.000172667
-0.000168507
-0.000164526
-0.00016072
-0.000157084
-0.000153614
-0.000150303
-0.000147148
-0.000144141
-0.000141277
-0.000138549
-0.000135949
-0.000133471
-0.000131107
-0.000128847
-0.000126682
-0.000124603
-0.0001226
-0.00012066
-0.000118772
-0.000116923
-0.000115099
-0.000113285
-0.000111466
-0.000109624
-0.000107742
-0.0001058
-0.000103778
-0.000101654
-9.94039e-05
-9.70035e-05
-9.44257e-05
-9.16411e-05
-8.86167e-05
-8.53153e-05
-8.16943e-05
-7.7705e-05
-7.32925e-05
-6.83977e-05
-6.29603e-05
-5.69242e-05
-5.02445e-05
-4.28926e-05
-3.48585e-05
-2.6144e-05
-1.67287e-05
-6.79703e-06
0.0020125
0.00162543
0.00123699
0.000920879
0.000651041
0.000406277
0.000187066
-9.0604e-07
-0.000154907
-0.000275301
-0.000364407
-0.000425909
-0.0004644
-0.000484815
-0.00049188
-0.000489714
-0.000481636
-0.00047013
-0.000456932
-0.00044317
-0.000429512
-0.000416313
-0.000403717
-0.000391752
-0.00038038
-0.000369535
-0.000359147
-0.000349153
-0.0003395
-0.000330147
-0.000321064
-0.000312229
-0.000303628
-0.000295252
-0.000287095
-0.000279153
-0.000271425
-0.000263909
-0.000256604
-0.00024951
-0.000242626
-0.00023595
-0.000229483
-0.000223223
-0.000217169
-0.000211319
-0.000205672
-0.000200225
-0.000194977
-0.000189924
-0.000185065
-0.000180397
-0.000175916
-0.00017162
-0.000167504
-0.000163566
-0.0001598
-0.000156202
-0.000152768
-0.000149493
-0.000146371
-0.000143397
-0.000140564
-0.000137866
-0.000135296
-0.000132846
-0.000130508
-0.000128275
-0.000126136
-0.000124082
-0.000122102
-0.000120186
-0.000118321
-0.000116494
-0.000114692
-0.0001129
-0.000111102
-0.000109281
-0.00010742
-0.000105498
-0.000103495
-0.00010139
-9.91593e-05
-9.67776e-05
-9.42182e-05
-9.14518e-05
-8.84455e-05
-8.51622e-05
-8.15595e-05
-7.75887e-05
-7.31953e-05
-6.83198e-05
-6.29017e-05
-5.68843e-05
-5.02214e-05
-4.28834e-05
-3.48593e-05
-2.615e-05
-1.6722e-05
-6.87471e-06
0.0018081
0.00151657
0.00119299
0.000906308
0.000653614
0.000423022
0.000214969
3.44035e-05
-0.000115805
-0.000235494
-0.000326316
-0.000391202
-0.000434004
-0.000459019
-0.000470498
-0.000472261
-0.000467482
-0.000458624
-0.000447479
-0.000435267
-0.000422766
-0.000410424
-0.000398473
-0.000387003
-0.000376023
-0.0003655
-0.000355387
-0.000345635
-0.000336198
-0.000327043
-0.000318142
-0.000309475
-0.000301031
-0.0002928
-0.000284779
-0.000276963
-0.000269352
-0.000261944
-0.000254741
-0.000247741
-0.000240944
-0.000234351
-0.000227961
-0.000221772
-0.000215785
-0.000209998
-0.00020441
-0.000199019
-0.000193824
-0.000188821
-0.000184009
-0.000179385
-0.000174947
-0.000170691
-0.000166613
-0.000162711
-0.00015898
-0.000155416
-0.000152014
-0.000148769
-0.000145677
-0.000142731
-0.000139925
-0.000137253
-0.000134708
-0.000132283
-0.00012997
-0.000127759
-0.000125643
-0.000123611
-0.000121653
-0.000119758
-0.000117913
-0.000116107
-0.000114325
-0.000112552
-0.000110774
-0.000108972
-0.000107129
-0.000105226
-0.000103242
-0.000101155
-9.89423e-05
-9.65787e-05
-9.40374e-05
-9.12891e-05
-8.83012e-05
-8.50365e-05
-8.14527e-05
-7.75013e-05
-7.31274e-05
-6.82714e-05
-6.28724e-05
-5.6873e-05
-5.02267e-05
-4.29034e-05
-3.4893e-05
-2.61993e-05
-1.6807e-05
-7.20746e-06
0.00163183
0.00140344
0.00113341
0.000879
0.000648343
0.000436219
0.000243135
7.3246e-05
-7.04908e-05
-0.000187377
-0.000278388
-0.000345708
-0.000392412
-0.000422091
-0.000438428
-0.000444841
-0.000444263
-0.000439046
-0.000430962
-0.000421271
-0.000410816
-0.000400126
-0.000389507
-0.000379114
-0.000369012
-0.000359212
-0.000349702
-0.000340459
-0.000331458
-0.000322679
-0.000314106
-0.00030573
-0.000297543
-0.000289542
-0.000281726
-0.000274097
-0.000266655
-0.000259402
-0.00025234
-0.000245469
-0.000238792
-0.000232309
-0.000226021
-0.000219928
-0.00021403
-0.000208326
-0.000202815
-0.000197497
-0.000192369
-0.000187431
-0.00018268
-0.000178113
-0.000173729
-0.000169524
-0.000165495
-0.000161639
-0.000157952
-0.000154429
-0.000151067
-0.00014786
-0.000144804
-0.000141893
-0.00013912
-0.000136481
-0.000133967
-0.000131571
-0.000129287
-0.000127104
-0.000125015
-0.000123009
-0.000121076
-0.000119206
-0.000117386
-0.000115604
-0.000113845
-0.000112095
-0.000110339
-0.00010856
-0.00010674
-0.000104859
-0.000102896
-0.000100832
-9.86408e-05
-9.62992e-05
-9.378e-05
-9.10541e-05
-8.80888e-05
-8.48472e-05
-8.12868e-05
-7.73591e-05
-7.30091e-05
-6.81772e-05
-6.28021e-05
-5.68265e-05
-5.02041e-05
-4.29062e-05
-3.49261e-05
-2.62772e-05
-1.69948e-05
-7.83618e-06
0.00147338
0.00129172
0.00106867
0.000847148
0.000639597
0.000446111
0.000268208
0.000109651
-2.65854e-05
-0.000139417
-0.000229314
-0.000297868
-0.000347505
-0.000381171
-0.000401984
-0.000412923
-0.000416619
-0.000415243
-0.000410492
-0.00040362
-0.000395508
-0.000386746
-0.000377708
-0.000368614
-0.000359587
-0.000350688
-0.00034194
-0.000333351
-0.000324918
-0.000316639
-0.000308509
-0.000300528
-0.000292696
-0.000285016
-0.000277492
-0.000270127
-0.000262926
-0.000255893
-0.000249032
-0.000242347
-0.00023584
-0.000229514
-0.000223371
-0.000217412
-0.000211637
-0.000206049
-0.000200645
-0.000195427
-0.000190393
-0.000185542
-0.000180873
-0.000176384
-0.000172072
-0.000167935
-0.000163971
-0.000160175
-0.000156546
-0.000153078
-0.000149767
-0.000146609
-0.0001436
-0.000140733
-0.000138003
-0.000135404
-0.000132929
-0.000130571
-0.000128321
-0.000126173
-0.000124117
-0.000122143
-0.000120242
-0.000118402
-0.000116611
-0.000114857
-0.000113127
-0.000111405
-0.000109676
-0.000107924
-0.00010613
-0.000104276
-0.00010234
-0.000100302
-9.81384e-05
-9.58239e-05
-9.33323e-05
-9.06342e-05
-8.76973e-05
-8.44845e-05
-8.09534e-05
-7.70557e-05
-7.27364e-05
-6.79361e-05
-6.25941e-05
-5.66541e-05
-5.00714e-05
-4.28204e-05
-3.4901e-05
-2.63457e-05
-1.72691e-05
-8.72927e-06
0.00133534
0.00118812
0.00100357
0.000811939
0.000626429
0.000450789
0.000287702
0.000140682
1.25822e-05
-9.52869e-05
-0.000183006
-0.000251687
-0.000303208
-0.000339944
-0.000364493
-0.000379405
-0.000386996
-0.000389235
-0.000387709
-0.000383635
-0.000377906
-0.000371149
-0.000363788
-0.0003561
-0.000348256
-0.00034036
-0.000332472
-0.000324627
-0.000316846
-0.000309142
-0.000301525
-0.000294005
-0.000286589
-0.000279287
-0.000272106
-0.000265056
-0.000258143
-0.000251375
-0.000244758
-0.000238298
-0.000231999
-0.000225866
-0.000219902
-0.00021411
-0.000208491
-0.000203047
-0.000197779
-0.000192687
-0.000187772
-0.000183032
-0.000178467
-0.000174075
-0.000169856
-0.000165805
-0.000161923
-0.000158204
-0.000154647
-0.000151247
-0.000148001
-0.000144905
-0.000141953
-0.000139141
-0.000136463
-0.000133914
-0.000131485
-0.000129172
-0.000126966
-0.000124858
-0.000122842
-0.000120906
-0.00011904
-0.000117235
-0.000115479
-0.000113758
-0.00011206
-0.00011037
-0.000108672
-0.000106951
-0.000105188
-0.000103364
-0.000101459
-9.94522e-05
-9.73196e-05
-9.50371e-05
-9.2578e-05
-8.99132e-05
-8.70103e-05
-8.38324e-05
-8.03373e-05
-7.64769e-05
-7.21969e-05
-6.74389e-05
-6.21438e-05
-5.62575e-05
-4.97382e-05
-4.25652e-05
-3.47481e-05
-2.63458e-05
-1.75654e-05
-9.71922e-06
0.00121496
0.0010928
0.000938866
0.000773584
0.000608893
0.000450431
0.000301763
0.000166247
4.65784e-05
-5.57851e-05
-0.0001406
-0.000208566
-0.000261088
-0.000300051
-0.000327585
-0.000345848
-0.000356852
-0.000362358
-0.000363826
-0.000362411
-0.000358995
-0.000354221
-0.000348549
-0.000342294
-0.00033567
-0.000328817
-0.000321829
-0.000314766
-0.000307673
-0.000300578
-0.000293505
-0.000286474
-0.000279502
-0.000272603
-0.000265791
-0.000259079
-0.000252478
-0.000245997
-0.000239646
-0.000233433
-0.000227363
-0.000221443
-0.000215678
-0.000210071
-0.000204626
-0.000199345
-0.000194229
-0.000189281
-0.0001845
-0.000179886
-0.00017544
-0.000171161
-0.000167047
-0.000163096
-0.000159307
-0.000155677
-0.000152203
-0.000148883
-0.000145711
-0.000142685
-0.0001398
-0.000137051
-0.000134433
-0.00013194
-0.000129565
-0.000127303
-0.000125145
-0.000123083
-0.00012111
-0.000119216
-0.000117391
-0.000115625
-0.000113906
-0.000112221
-0.000110558
-0.000108902
-0.000107238
-0.00010555
-0.00010382
-0.00010203
-0.000100159
-9.81858e-05
-9.60881e-05
-9.38413e-05
-9.1419e-05
-8.87922e-05
-8.59286e-05
-8.27916e-05
-7.93395e-05
-7.55249e-05
-7.12949e-05
-6.6593e-05
-6.13626e-05
-5.5553e-05
-4.91267e-05
-4.20691e-05
-3.44012e-05
-2.62101e-05
-1.77828e-05
-1.05502e-05
0.00110896
0.00100544
0.000875848
0.000733483
0.000588102
0.000445918
0.000311022
0.000186687
7.54684e-05
-2.10911e-05
-0.000102488
-0.000169077
-0.000221862
-0.000262304
-0.00029213
-0.000313138
-0.000327059
-0.000335445
-0.000339621
-0.000340667
-0.000339432
-0.000336563
-0.000332535
-0.000327695
-0.000322287
-0.000316483
-0.000310405
-0.000304139
-0.000297746
-0.000291274
-0.000284759
-0.00027823
-0.000271713
-0.000265229
-0.000258798
-0.000252435
-0.000246155
-0.000239972
-0.000233896
-0.000227938
-0.000222107
-0.00021641
-0.000210852
-0.000205439
-0.000200176
-0.000195066
-0.000190111
-0.000185313
-0.000180675
-0.000176195
-0.000171876
-0.000167715
-0.000163713
-0.000159869
-0.00015618
-0.000152644
-0.00014926
-0.000146023
-0.000142931
-0.00013998
-0.000137166
-0.000134484
-0.000131929
-0.000129495
-0.000127177
-0.000124968
-0.00012286
-0.000120846
-0.000118918
-0.000117067
-0.000115283
-0.000113556
-0.000111875
-0.000110226
-0.000108599
-0.000106977
-0.000105347
-0.000103693
-0.000101997
-0.00010024
-9.84031e-05
-9.64653e-05
-9.44039e-05
-9.21948e-05
-8.98118e-05
-8.72262e-05
-8.4406e-05
-8.13151e-05
-7.79127e-05
-7.41526e-05
-6.99839e-05
-6.5353e-05
-6.02068e-05
-5.44988e-05
-4.81967e-05
-4.12923e-05
-3.38176e-05
-2.58824e-05
-1.7817e-05
-1.09888e-05
0.00101483
0.000925653
0.000815514
0.000692776
0.000564905
0.00043788
0.000315968
0.000202364
9.94886e-05
8.91421e-06
-6.86674e-05
-0.000133329
-0.000185739
-0.000227001
-0.000258484
-0.000281671
-0.000298026
-0.000308902
-0.000315486
-0.00031877
-0.000319562
-0.000318491
-0.000316042
-0.000312578
-0.000308366
-0.000303605
-0.000298437
-0.000292971
-0.000287285
-0.000281443
-0.000275492
-0.000269473
-0.000263418
-0.000257355
-0.000251309
-0.0002453
-0.000239347
-0.000233466
-0.000227671
-0.000221974
-0.000216385
-0.000210914
-0.000205568
-0.000200354
-0.000195277
-0.000190341
-0.000185551
-0.000180908
-0.000176415
-0.000172073
-0.000167882
-0.000163844
-0.000159957
-0.000156221
-0.000152635
-0.000149196
-0.000145902
-0.000142752
-0.000139741
-0.000136866
-0.000134124
-0.000131509
-0.000129018
-0.000126644
-0.000124382
-0.000122225
-0.000120168
-0.000118201
-0.000116317
-0.000114508
-0.000112764
-0.000111074
-0.000109429
-0.000107815
-0.000106221
-0.000104632
-0.000103034
-0.000101411
-9.97469e-05
-9.80225e-05
-9.6219e-05
-9.43156e-05
-9.22902e-05
-9.0119e-05
-8.77762e-05
-8.52334e-05
-8.24593e-05
-7.94186e-05
-7.60717e-05
-7.23741e-05
-6.82777e-05
-6.37322e-05
-5.86888e-05
-5.31057e-05
-4.69561e-05
-4.02378e-05
-3.29911e-05
-2.53366e-05
-1.7601e-05
-1.09266e-05
0.000930567
0.000852789
0.000758316
0.000652231
0.000539984
0.000426899
0.000317128
0.000213737
0.000119009
3.45e-05
-3.89724e-05
-0.000101259
-0.000152754
-0.000194254
-0.000226823
-0.000251659
-0.000269988
-0.000282972
-0.000291658
-0.000296949
-0.000299595
-0.000300202
-0.00029925
-0.000297108
-0.000294061
-0.000290323
-0.000286056
-0.000281387
-0.00027641
-0.0002712
-0.000265818
-0.000260312
-0.000254724
-0.000249087
-0.000243431
-0.000237781
-0.000232159
-0.000226584
-0.000221073
-0.00021564
-0.000210298
-0.000205057
-0.000199927
-0.000194914
-0.000190026
-0.000185268
-0.000180645
-0.000176159
-0.000171814
-0.000167611
-0.000163553
-0.000159638
-0.000155868
-0.000152243
-0.00014876
-0.000145419
-0.000142218
-0.000139154
-0.000136224
-0.000133426
-0.000130756
-0.000128209
-0.00012578
-0.000123466
-0.000121259
-0.000119155
-0.000117145
-0.000115224
-0.000113383
-0.000111614
-0.000109907
-0.000108253
-0.000106641
-0.000105059
-0.000103496
-0.000101937
-0.000100369
-9.87755e-05
-9.71407e-05
-9.54466e-05
-9.36745e-05
-9.18041e-05
-8.98136e-05
-8.76798e-05
-8.53773e-05
-8.28784e-05
-8.01525e-05
-7.71654e-05
-7.3879e-05
-7.02513e-05
-6.6237e-05
-6.17897e-05
-5.68652e-05
-5.14268e-05
-4.54526e-05
-3.89454e-05
-3.19493e-05
-2.45821e-05
-1.71264e-05
-1.04108e-05
0.000854582
0.00078611
0.000704401
0.000612404
0.000513948
0.000413546
0.000315031
0.000221277
0.000134418
5.59603e-05
-1.32045e-05
-7.27623e-05
-0.000122883
-0.000164111
-0.000197247
-0.000223244
-0.000243108
-0.000257826
-0.000268308
-0.000275363
-0.000279679
-0.000281829
-0.000282276
-0.00028139
-0.000279462
-0.000276718
-0.000273337
-0.000269455
-0.000265181
-0.000260604
-0.000255791
-0.000250802
-0.000245684
-0.000240476
-0.000235214
-0.000229928
-0.000224641
-0.000219377
-0.000214155
-0.000208991
-0.0002039
-0.000198893
-0.000193982
-0.000189175
-0.00018448
-0.000179903
-0.00017545
-0.000171125
-0.000166931
-0.000162871
-0.000158947
-0.000155159
-0.000151508
-0.000147995
-0.000144618
-0.000141377
-0.000138269
-0.000135293
-0.000132446
-0.000129726
-0.000127128
-0.000124649
-0.000122284
-0.000120028
-0.000117877
-0.000115824
-0.000113862
-0.000111986
-0.000110186
-0.000108456
-0.000106785
-0.000105165
-0.000103585
-0.000102034
-0.0001005
-9.89694e-05
-9.74289e-05
-9.58632e-05
-9.42564e-05
-9.25912e-05
-9.08493e-05
-8.90109e-05
-8.70548e-05
-8.49583e-05
-8.26967e-05
-8.02431e-05
-7.75678e-05
-7.46378e-05
-7.14171e-05
-6.7866e-05
-6.39427e-05
-5.96048e-05
-5.48125e-05
-4.95343e-05
-4.37525e-05
-3.74731e-05
-3.07396e-05
-2.36558e-05
-1.64366e-05
-9.59501e-06
0.000785592
0.0007249
0.000653732
0.000573662
0.000487294
0.000398324
0.000310158
0.000225425
0.000146094
7.35976e-05
8.85604e-06
-4.76997e-05
-9.60662e-05
-0.000136579
-0.00016982
-0.000196527
-0.000217513
-0.000233602
-0.000245576
-0.000254148
-0.000259939
-0.000263482
-0.000265217
-0.000265507
-0.000264641
-0.000262853
-0.000260329
-0.000257218
-0.000253639
-0.000249687
-0.000245443
-0.00024097
-0.000236323
-0.000231547
-0.000226683
-0.000221763
-0.000216816
-0.000211868
-0.000206939
-0.000202048
-0.000197212
-0.000192444
-0.000187757
-0.00018316
-0.000178663
-0.000174272
-0.000169994
-0.000165833
-0.000161795
-0.000157881
-0.000154095
-0.000150437
-0.000146909
-0.000143511
-0.000140243
-0.000137104
-0.000134093
-0.000131208
-0.000128446
-0.000125805
-0.000123281
-0.000120871
-0.000118571
-0.000116376
-0.000114281
-0.000112281
-0.000110368
-0.000108536
-0.000106779
-0.000105087
-0.000103453
-0.000101867
-0.000100319
-9.87983e-05
-9.7293e-05
-9.57905e-05
-9.42775e-05
-9.27393e-05
-9.11604e-05
-8.95241e-05
-8.78125e-05
-8.60065e-05
-8.40856e-05
-8.20277e-05
-7.98088e-05
-7.74028e-05
-7.47812e-05
-7.19128e-05
-6.87633e-05
-6.52959e-05
-6.14719e-05
-5.7253e-05
-5.26042e-05
-4.7498e-05
-4.19205e-05
-3.58793e-05
-2.94135e-05
-2.26065e-05
-1.5602e-05
-8.6577e-06
0.000722561
0.000668501
0.000606154
0.000536221
0.000460403
0.000381665
0.000302948
0.0002266
0.000154412
8.77212e-05
2.74452e-05
-2.59119e-05
-7.22158e-05
-0.000111636
-0.000144573
-0.000171581
-0.000193305
-0.000210419
-0.000223586
-0.000233424
-0.000240488
-0.000245264
-0.000248165
-0.000249536
-0.000249664
-0.000248782
-0.00024708
-0.000244715
-0.000241812
-0.000238476
-0.000234792
-0.000230831
-0.000226654
-0.000222311
-0.000217846
-0.000213295
-0.000208691
-0.000204062
-0.00019943
-0.000194817
-0.000190241
-0.000185717
-0.000181259
-0.000176877
-0.000172582
-0.000168382
-0.000164284
-0.000160293
-0.000156415
-0.000152652
-0.000149008
-0.000145485
-0.000142084
-0.000138806
-0.000135651
-0.000132618
-0.000129707
-0.000126915
-0.000124241
-0.000121683
-0.000119237
-0.000116899
-0.000114667
-0.000112535
-0.000110498
-0.000108552
-0.00010669
-0.000104905
-0.000103192
-0.000101541
-9.99444e-05
-9.83938e-05
-9.68791e-05
-9.53898e-05
-9.39147e-05
-9.24416e-05
-9.09573e-05
-8.9448e-05
-8.78984e-05
-8.62926e-05
-8.46131e-05
-8.28416e-05
-8.09582e-05
-7.89414e-05
-7.67683e-05
-7.44137e-05
-7.18505e-05
-6.90489e-05
-6.59769e-05
-6.26003e-05
-5.88839e-05
-5.47932e-05
-5.02972e-05
-4.53725e-05
-4.0008e-05
-3.42113e-05
-2.80152e-05
-2.14814e-05
-1.4693e-05
-7.7399e-06
0.000664638
0.000616323
0.000561453
0.000500179
0.000433557
0.000363931
0.00029379
0.000225188
0.000159727
9.86377e-05
4.28062e-05
-7.224e-06
-5.12254e-05
-8.92392e-05
-0.000121517
-0.000148459
-0.000170565
-0.000188377
-0.000202447
-0.000213303
-0.000221434
-0.000227275
-0.000231206
-0.000233555
-0.000234596
-0.000234559
-0.000233634
-0.000231982
-0.000229732
-0.000226993
-0.000223858
-0.000220401
-0.000216689
-0.000212776
-0.000208709
-0.000204528
-0.000200268
-0.00019596
-0.000191629
-0.000187297
-0.000182986
-0.00017871
-0.000174485
-0.000170324
-0.000166236
-0.000162232
-0.000158319
-0.000154503
-0.00015079
-0.000147183
-0.000143687
-0.000140303
-0.000137034
-0.00013388
-0.000130843
-0.00012792
-0.000125113
-0.00012242
-0.000119838
-0.000117366
-0.000115001
-0.00011274
-0.000110578
-0.000108513
-0.000106538
-0.000104649
-0.000102841
-0.000101106
-9.94388e-05
-9.78312e-05
-9.62755e-05
-9.47629e-05
-9.32841e-05
-9.18289e-05
-9.03865e-05
-8.89452e-05
-8.74924e-05
-8.60146e-05
-8.44972e-05
-8.29247e-05
-8.12805e-05
-7.95468e-05
-7.77044e-05
-7.57327e-05
-7.36098e-05
-7.13116e-05
-6.88122e-05
-6.60837e-05
-6.30961e-05
-5.98181e-05
-5.62176e-05
-5.22637e-05
-4.79293e-05
-4.31941e-05
-3.80493e-05
-3.25016e-05
-2.65769e-05
-2.03178e-05
-1.37647e-05
-6.92114e-06
0.000611117
0.000567841
0.000519384
0.000465553
0.000406952
0.000345418
0.000283024
0.00022154
0.000162375
0.000106645
5.51845e-05
8.54944e-06
-3.29712e-05
-6.9322e-05
-0.000100636
-0.00012719
-0.000149355
-0.00016756
-0.000182255
-0.000193886
-0.000202874
-0.000209607
-0.000214428
-0.000217641
-0.000219504
-0.000220242
-0.00022004
-0.000219058
-0.000217429
-0.000215264
-0.00021266
-0.000209695
-0.000206439
-0.00020295
-0.000199277
-0.000195464
-0.000191549
-0.000187563
-0.000183534
-0.000179487
-0.000175442
-0.000171419
-0.000167432
-0.000163495
-0.00015962
-0.000155817
-0.000152094
-0.000148458
-0.000144915
-0.00014147
-0.000138126
-0.000134887
-0.000131755
-0.000128731
-0.000125815
-0.000123008
-0.00012031
-0.00011772
-0.000115235
-0.000112854
-0.000110574
-0.000108393
-0.000106306
-0.000104311
-0.000102402
-0.000100574
-9.88231e-05
-9.7142e-05
-9.55247e-05
-9.39639e-05
-9.24521e-05
-9.09809e-05
-8.95413e-05
-8.81236e-05
-8.67175e-05
-8.53115e-05
-8.38936e-05
-8.24509e-05
-8.09694e-05
-7.94342e-05
-7.78293e-05
-7.61376e-05
-7.43409e-05
-7.24194e-05
-7.0352e-05
-6.81159e-05
-6.56868e-05
-6.30384e-05
-6.01429e-05
-5.69716e-05
-5.34954e-05
-4.96869e-05
-4.55221e-05
-4.09839e-05
-3.60647e-05
-3.07702e-05
-2.512e-05
-1.91418e-05
-1.28517e-05
-6.22601e-06
0.000561403
0.000522595
0.000479696
0.000432307
0.000380718
0.000326359
0.000270943
0.000215971
0.000162668
0.000112028
6.48231e-05
2.16003e-05
-1.73161e-05
-5.18016e-05
-8.18985e-05
-0.00010778
-0.000129715
-0.000148031
-0.00016309
-0.000175259
-0.0001849
-0.000192347
-0.000197911
-0.000201865
-0.000204453
-0.000205885
-0.000206343
-0.000205982
-0.000204935
-0.000203315
-0.000201218
-0.000198728
-0.000195915
-0.00019284
-0.000189555
-0.000186106
-0.000182532
-0.000178868
-0.000175142
-0.00017138
-0.000167606
-0.000163837
-0.000160092
-0.000156384
-0.000152726
-0.000149128
-0.0001456
-0.000142149
-0.000138782
-0.000135504
-0.000132318
-0.000129229
-0.000126239
-0.000123349
-0.000120561
-0.000117875
-0.000115291
-0.000112808
-0.000110425
-0.000108139
-0.00010595
-0.000103853
-0.000101846
-9.99253e-05
-9.80862e-05
-9.63243e-05
-9.46344e-05
-9.30109e-05
-9.14475e-05
-8.99375e-05
-8.84735e-05
-8.70476e-05
-8.56512e-05
-8.4275e-05
-8.2909e-05
-8.15424e-05
-8.01636e-05
-7.87603e-05
-7.7319e-05
-7.58257e-05
-7.42649e-05
-7.26203e-05
-7.08745e-05
-6.90087e-05
-6.70029e-05
-6.48356e-05
-6.24838e-05
-5.9923e-05
-5.71276e-05
-5.40713e-05
-5.07281e-05
-4.70734e-05
-4.30864e-05
-3.87523e-05
-3.40647e-05
-2.9028e-05
-2.36567e-05
-1.79689e-05
-1.19705e-05
-5.64411e-06
0.000514987
0.000480176
0.000442141
0.000400366
0.000354926
0.000306932
0.00025779
0.000208759
0.00016089
0.000115056
7.19601e-05
3.21239e-05
-4.11291e-06
-3.65797e-05
-6.52511e-05
-9.02196e-05
-0.000111668
-0.000129839
-0.000145017
-0.000157502
-0.000167592
-0.00017558
-0.000181734
-0.000186304
-0.000189511
-0.000191551
-0.000192598
-0.000192801
-0.00019229
-0.000191177
-0.00018956
-0.000187521
-0.000185134
-0.000182459
-0.000179553
-0.00017646
-0.000173223
-0.000169877
-0.000166453
-0.000162978
-0.000159474
-0.000155963
-0.000152462
-0.000148986
-0.000145549
-0.000142161
-0.000138832
-0.000135571
-0.000132385
-0.000129278
-0.000126256
-0.000123322
-0.00012048
-0.00011773
-0.000115075
-0.000112515
-0.00011005
-0.000107679
-0.000105402
-0.000103218
-0.000101123
-9.91157e-05
-9.71929e-05
-9.53511e-05
-9.35865e-05
-9.18945e-05
-9.02704e-05
-8.87087e-05
-8.72036e-05
-8.57486e-05
-8.43368e-05
-8.29605e-05
-8.16116e-05
-8.02811e-05
-7.89597e-05
-7.76369e-05
-7.63018e-05
-7.49425e-05
-7.35464e-05
-7.20999e-05
-7.05884e-05
-6.89965e-05
-6.73074e-05
-6.55036e-05
-6.35659e-05
-6.14742e-05
-5.92071e-05
-5.67418e-05
-5.40548e-05
-5.11223e-05
-4.79207e-05
-4.44284e-05
-4.06273e-05
-3.65045e-05
-3.20546e-05
-2.72809e-05
-2.21945e-05
-1.6808e-05
-1.11262e-05
-5.15084e-06
0.000471431
0.000440224
0.000406482
0.000369633
0.000329608
0.000287268
0.000243763
0.000200141
0.000157293
0.000115977
7.68216e-05
4.03141e-05
6.7929e-06
-2.35437e-05
-5.0622e-05
-7.44727e-05
-9.52092e-05
-0.000113006
-0.000128078
-0.000140664
-0.000151011
-0.000159365
-0.000165959
-0.000171013
-0.000174728
-0.000177284
-0.000178843
-0.000179547
-0.00017952
-0.000178873
-0.000177701
-0.000176087
-0.000174104
-0.000171814
-0.000169272
-0.000166527
-0.000163621
-0.000160589
-0.000157463
-0.000154272
-0.00015104
-0.000147787
-0.000144533
-0.000141292
-0.000138079
-0.000134905
-0.00013178
-0.000128714
-0.000125713
-0.000122783
-0.00011993
-0.000117156
-0.000114466
-0.000111862
-0.000109345
-0.000106916
-0.000104576
-0.000102323
-0.000100158
-9.80794e-05
-9.60846e-05
-9.41718e-05
-9.23381e-05
-9.05803e-05
-8.88949e-05
-8.72776e-05
-8.57239e-05
-8.42287e-05
-8.27865e-05
-8.13911e-05
-8.00359e-05
-7.87138e-05
-7.74169e-05
-7.61369e-05
-7.48647e-05
-7.35905e-05
-7.2304e-05
-7.09939e-05
-6.96481e-05
-6.82538e-05
-6.67973e-05
-6.52638e-05
-6.36377e-05
-6.19023e-05
-6.00396e-05
-5.8031e-05
-5.58563e-05
-5.34947e-05
-5.09246e-05
-4.81246e-05
-4.50735e-05
-4.17523e-05
-3.81451e-05
-3.42409e-05
-3.00352e-05
-2.55306e-05
-2.07358e-05
-1.56613e-05
-1.03156e-05
-4.71928e-06
0.000430352
0.000402417
0.000372499
0.000340004
0.000304771
0.000267467
0.00022903
0.000190326
0.000152105
0.000115018
7.96189e-05
4.63529e-05
1.55468e-05
-1.25883e-05
-3.79465e-05
-6.05127e-05
-8.03463e-05
-9.75645e-05
-0.000112326
-0.000124816
-0.000135235
-0.000143786
-0.000150669
-0.000156075
-0.000160183
-0.000163156
-0.000165143
-0.000166277
-0.000166677
-0.000166447
-0.00016568
-0.000164458
-0.000162852
-0.000160925
-0.000158732
-0.000156322
-0.000153735
-0.00015101
-0.000148178
-0.000145269
-0.000142306
-0.000139312
-0.000136304
-0.0001333
-0.000130314
-0.000127357
-0.000124441
-0.000121573
-0.000118762
-0.000116014
-0.000113334
-0.000110727
-0.000108195
-0.000105742
-0.000103368
-0.000101076
-9.88654e-05
-9.67364e-05
-9.46885e-05
-9.27205e-05
-9.08308e-05
-8.90175e-05
-8.72779e-05
-8.56092e-05
-8.40079e-05
-8.24702e-05
-8.09918e-05
-7.95679e-05
-7.81933e-05
-7.68622e-05
-7.55685e-05
-7.43053e-05
-7.30652e-05
-7.18405e-05
-7.06225e-05
-6.9402e-05
-6.81692e-05
-6.69134e-05
-6.56234e-05
-6.42871e-05
-6.28914e-05
-6.14225e-05
-5.98658e-05
-5.82055e-05
-5.64251e-05
-5.4507e-05
-5.24328e-05
-5.01832e-05
-4.77388e-05
-4.508e-05
-4.21883e-05
-3.90468e-05
-3.56417e-05
-3.19637e-05
-2.80089e-05
-2.37797e-05
-1.92836e-05
-1.4531e-05
-9.53496e-06
-4.32933e-06
0.000391392
0.000366448
0.000339959
0.000311341
0.000280374
0.000247576
0.00021371
0.000179489
0.000145537
0.000112407
8.05815e-05
5.04602e-05
2.23492e-05
-3.53869e-06
-2.70785e-05
-4.82229e-05
-6.69902e-05
-8.3452e-05
-9.77203e-05
-0.000109935
-0.000120254
-0.000128843
-0.00013587
-0.0001415
-0.000145887
-0.000149179
-0.00015151
-0.000153002
-0.000153767
-0.000153903
-0.0001535
-0.000152635
-0.000151378
-0.000149791
-0.000147927
-0.000145836
-0.000143558
-0.000141131
-0.000138587
-0.000135955
-0.00013326
-0.000130523
-0.000127763
-0.000124997
-0.00012224
-0.000119503
-0.000116798
-0.000114134
-0.000111517
-0.000108956
-0.000106455
-0.000104018
-0.00010165
-9.93526e-05
-9.71283e-05
-9.49782e-05
-9.2903e-05
-9.0903e-05
-8.89777e-05
-8.71262e-05
-8.53471e-05
-8.36386e-05
-8.19985e-05
-8.04241e-05
-7.89121e-05
-7.74592e-05
-7.60611e-05
-7.47136e-05
-7.34116e-05
-7.21499e-05
-7.09227e-05
-6.97234e-05
-6.85454e-05
-6.7381e-05
-6.62224e-05
-6.50609e-05
-6.38873e-05
-6.26916e-05
-6.14632e-05
-6.01907e-05
-5.88621e-05
-5.74643e-05
-5.59838e-05
-5.44059e-05
-5.27153e-05
-5.08956e-05
-4.89301e-05
-4.68011e-05
-4.44912e-05
-4.19828e-05
-3.92594e-05
-3.63064e-05
-3.31118e-05
-2.96676e-05
-2.59709e-05
-2.20239e-05
-1.78339e-05
-1.34118e-05
-8.77479e-06
-3.96133e-06
0.000347301
0.000325622
0.000302806
0.000278303
0.000251859
0.000223852
0.000194876
0.000165493
0.0001362
0.000107446
7.96338e-05
5.31086e-05
2.81458e-05
4.94952e-06
-1.63451e-05
-3.56661e-05
-5.2997e-05
-6.83681e-05
-8.18467e-05
-9.35283e-05
-0.000103528
-0.000111973
-0.000118995
-0.00012473
-0.000129306
-0.00013285
-0.000135479
-0.000137302
-0.000138419
-0.000138921
-0.00013889
-0.0001384
-0.000137517
-0.000136301
-0.000134802
-0.000133068
-0.00013114
-0.000129054
-0.000126842
-0.000124532
-0.00012215
-0.000119716
-0.000117249
-0.000114767
-0.000112284
-0.000109812
-0.000107362
-0.000104943
-0.000102563
-0.000100229
-9.79456e-05
-9.57185e-05
-9.35509e-05
-9.14458e-05
-8.94052e-05
-8.74307e-05
-8.55232e-05
-8.36831e-05
-8.19101e-05
-8.02036e-05
-7.85625e-05
-7.69852e-05
-7.54697e-05
-7.40136e-05
-7.26141e-05
-7.12679e-05
-6.99716e-05
-6.87209e-05
-6.75114e-05
-6.63382e-05
-6.5196e-05
-6.40789e-05
-6.29806e-05
-6.18943e-05
-6.08126e-05
-5.97276e-05
-5.86309e-05
-5.75132e-05
-5.6365e-05
-5.51756e-05
-5.39342e-05
-5.26289e-05
-5.12471e-05
-4.97757e-05
-4.82007e-05
-4.65074e-05
-4.46809e-05
-4.27056e-05
-4.05661e-05
-3.82471e-05
-3.57345e-05
-3.30158e-05
-3.00812e-05
-2.69243e-05
-2.35428e-05
-1.99394e-05
-1.61213e-05
-1.21005e-05
-7.89792e-06
-3.54593e-06
0.000298001
0.000279789
0.000260791
0.000240516
0.000218704
0.000195616
0.000171695
0.000147366
0.000123005
9.89578e-05
7.55451e-05
5.30481e-05
3.17013e-05
1.16878e-05
-6.86027e-06
-2.3859e-05
-3.92686e-05
-5.30875e-05
-6.53463e-05
-7.61013e-05
-8.54283e-05
-9.34165e-05
-0.000100164
-0.000105772
-0.000110345
-0.000113982
-0.000116782
-0.000118837
-0.000120231
-0.000121046
-0.000121354
-0.000121221
-0.000120708
-0.000119868
-0.00011875
-0.000117399
-0.000115852
-0.000114143
-0.000112304
-0.000110361
-0.000108339
-0.000106257
-0.000104135
-0.000101989
-9.9832e-05
-9.76771e-05
-9.55345e-05
-9.34133e-05
-9.13214e-05
-8.92654e-05
-8.72507e-05
-8.5282e-05
-8.3363e-05
-8.14967e-05
-7.96853e-05
-7.79306e-05
-7.62335e-05
-7.45945e-05
-7.30138e-05
-7.14909e-05
-7.00249e-05
-6.86146e-05
-6.72582e-05
-6.59538e-05
-6.46988e-05
-6.34906e-05
-6.23258e-05
-6.12009e-05
-6.0112e-05
-5.90547e-05
-5.80242e-05
-5.70155e-05
-5.60228e-05
-5.50402e-05
-5.4061e-05
-5.30783e-05
-5.20844e-05
-5.10714e-05
-5.00305e-05
-4.89526e-05
-4.78278e-05
-4.66457e-05
-4.53954e-05
-4.40651e-05
-4.26428e-05
-4.11158e-05
-3.9471e-05
-3.76953e-05
-3.57755e-05
-3.36991e-05
-3.14542e-05
-2.9031e-05
-2.64214e-05
-2.36208e-05
-2.06279e-05
-1.74457e-05
-1.40817e-05
-1.05486e-05
-6.8688e-06
-3.07191e-06
0.000248069
0.000233219
0.000217855
0.000201553
0.00018407
0.000165579
0.000146405
0.000126857
0.000107209
8.77201e-05
6.86331e-05
5.01686e-05
3.25166e-05
1.58321e-05
2.34166e-07
-1.41931e-05
-2.73988e-05
-3.93619e-05
-5.00875e-05
-5.96025e-05
-6.79517e-05
-7.51928e-05
-8.13935e-05
-8.66272e-05
-9.09708e-05
-9.45019e-05
-9.72972e-05
-9.94307e-05
-0.000100973
-0.000101991
-0.000102546
-0.000102696
-0.000102493
-0.000101984
-0.000101214
-0.00010022
-9.90377e-05
-9.76989e-05
-9.62312e-05
-9.46594e-05
-9.30056e-05
-9.12893e-05
-8.95274e-05
-8.77351e-05
-8.59256e-05
-8.41102e-05
-8.22991e-05
-8.05007e-05
-7.87224e-05
-7.69707e-05
-7.52506e-05
-7.35668e-05
-7.19228e-05
-7.03216e-05
-6.87654e-05
-6.72559e-05
-6.57943e-05
-6.43812e-05
-6.30169e-05
-6.17011e-05
-6.04332e-05
-5.92123e-05
-5.80369e-05
-5.69054e-05
-5.58158e-05
-5.47657e-05
-5.37523e-05
-5.27727e-05
-5.18235e-05
-5.09009e-05
-5.00008e-05
-4.91189e-05
-4.82503e-05
-4.73898e-05
-4.65318e-05
-4.56702e-05
-4.47985e-05
-4.39098e-05
-4.29966e-05
-4.20512e-05
-4.10651e-05
-4.00293e-05