/*--------------------------------*- C++ -*----------------------------------*\
| =========                 |                                                 |
| \\      /  F ield         | OpenFOAM: The Open Source CFD Toolbox           |
|  \\    /   O peration     | Version:  2.3.0                                 |
|   \\  /    A nd           | Web:      www.OpenFOAM.org                      |
|    \\/     M anipulation  |                                                 |
\*---------------------------------------------------------------------------*/
FoamFile
{
    version     2.0;
    format      ascii;
    class       volVectorField;
    location    "0.5";
    object      U_0;
}
// * * * * * * * * * * * * * * * * * * * * * * * * * * * * * * * * * * * * * //

dimensions      [0 1 -1 0 0 0 0];

internalField   nonuniform List<vector> 
3105
(
(0.171534 0.00584515 0)
(0.154909 0.00598832 0)
(0.139088 0.00560976 0)
(0.124084 0.00502378 0)
(0.110275 0.00436642 0)
(0.097858 0.00369674 0)
(0.0868609 0.00305242 0)
(0.0772524 0.00245961 0)
(0.0689762 0.00193459 0)
(0.0619474 0.00148571 0)
(0.0560523 0.00111497 0)
(0.0511577 0.000819063 0)
(0.0471215 0.000590652 0)
(0.0438034 0.000419976 0)
(0.041072 0.00029641 0)
(0.0388103 0.000209699 0)
(0.0369184 0.00015073 0)
(0.0353142 0.00011188 0)
(0.0339325 8.70838e-05 0)
(0.0327227 7.17185e-05 0)
(0.031647 6.24035e-05 0)
(0.030677 5.67726e-05 0)
(0.0297922 5.32456e-05 0)
(0.0289776 5.08217e-05 0)
(0.0282223 4.89063e-05 0)
(0.0275181 4.71741e-05 0)
(0.0268589 4.54686e-05 0)
(0.0262398 4.37317e-05 0)
(0.0256569 4.19576e-05 0)
(0.0251069 4.0164e-05 0)
(0.0245871 3.83765e-05 0)
(0.024095 3.66193e-05 0)
(0.0236283 3.49122e-05 0)
(0.0231852 3.32692e-05 0)
(0.0227638 3.16991e-05 0)
(0.0223626 3.02064e-05 0)
(0.0219801 2.87923e-05 0)
(0.021615 2.74558e-05 0)
(0.021266 2.61944e-05 0)
(0.0209323 2.50046e-05 0)
(0.0206126 2.38823e-05 0)
(0.0203063 2.28236e-05 0)
(0.0200123 2.18241e-05 0)
(0.0197301 2.088e-05 0)
(0.019459 1.99875e-05 0)
(0.0191982 1.91428e-05 0)
(0.0189473 1.83427e-05 0)
(0.0187057 1.75841e-05 0)
(0.018473 1.68641e-05 0)
(0.0182487 1.618e-05 0)
(0.0180324 1.55294e-05 0)
(0.0178237 1.49099e-05 0)
(0.0176223 1.43195e-05 0)
(0.0174279 1.37562e-05 0)
(0.0172402 1.32182e-05 0)
(0.0170588 1.27037e-05 0)
(0.0168836 1.22113e-05 0)
(0.0167143 1.17396e-05 0)
(0.0165506 1.1287e-05 0)
(0.0163925 1.08525e-05 0)
(0.0162396 1.04347e-05 0)
(0.0160919 1.00327e-05 0)
(0.0159492 9.64543e-06 0)
(0.0158113 9.27194e-06 0)
(0.015678 8.91137e-06 0)
(0.0155494 8.56292e-06 0)
(0.0154252 8.22584e-06 0)
(0.0153054 7.89943e-06 0)
(0.0151898 7.58305e-06 0)
(0.0150784 7.27611e-06 0)
(0.0149711 6.97807e-06 0)
(0.0148678 6.68845e-06 0)
(0.0147685 6.40676e-06 0)
(0.014673 6.13259e-06 0)
(0.0145815 5.86555e-06 0)
(0.0144937 5.60528e-06 0)
(0.0144097 5.35146e-06 0)
(0.0143294 5.10379e-06 0)
(0.0142529 4.86209e-06 0)
(0.01418 4.62631e-06 0)
(0.0141107 4.39655e-06 0)
(0.014045 4.17321e-06 0)
(0.0139829 3.95696e-06 0)
(0.0139243 3.74866e-06 0)
(0.0138693 3.54927e-06 0)
(0.0138176 3.35937e-06 0)
(0.0137694 3.17867e-06 0)
(0.0137245 3.00521e-06 0)
(0.0136831 2.83471e-06 0)
(0.013645 2.66018e-06 0)
(0.0136105 2.47235e-06 0)
(0.0135796 2.2614e-06 0)
(0.0135525 2.0206e-06 0)
(0.0135295 1.75203e-06 0)
(0.0135105 1.47279e-06 0)
(0.0134954 1.21805e-06 0)
(0.0134836 1.03688e-06 0)
(0.013474 9.93087e-07 0)
(0.0134655 1.06737e-06 0)
(0.0134371 5.01361e-06 0)
(0.19056 0.00926472 0)
(0.188188 0.00988375 0)
(0.1843 0.00972167 0)
(0.179173 0.0092433 0)
(0.173276 0.00861785 0)
(0.166966 0.00790062 0)
(0.160471 0.00712996 0)
(0.153961 0.00634105 0)
(0.14757 0.00556392 0)
(0.141399 0.00482322 0)
(0.135515 0.00413823 0)
(0.129961 0.0035223 0)
(0.124755 0.00298262 0)
(0.119903 0.00252063 0)
(0.115397 0.00213304 0)
(0.111221 0.00181324 0)
(0.107356 0.00155262 0)
(0.103781 0.00134189 0)
(0.10047 0.00117197 0)
(0.0974009 0.00103466 0)
(0.0945515 0.000922941 0)
(0.0919009 0.000831056 0)
(0.0894298 0.000754472 0)
(0.0871211 0.000689703 0)
(0.0849591 0.000634126 0)
(0.08293 0.000585794 0)
(0.0810216 0.00054327 0)
(0.079223 0.00050549 0)
(0.0775245 0.00047166 0)
(0.0759176 0.000441174 0)
(0.0743946 0.000413563 0)
(0.072949 0.00038845 0)
(0.0715745 0.00036553 0)
(0.0702659 0.000344545 0)
(0.0690184 0.000325278 0)
(0.0678274 0.000307541 0)
(0.0666892 0.000291172 0)
(0.0656002 0.000276027 0)
(0.0645573 0.000261984 0)
(0.0635574 0.000248931 0)
(0.062598 0.000236773 0)
(0.0616766 0.000225426 0)
(0.060791 0.000214813 0)
(0.0599392 0.000204868 0)
(0.0591195 0.000195533 0)
(0.0583299 0.000186754 0)
(0.0575691 0.000178486 0)
(0.0568356 0.000170685 0)
(0.0561279 0.000163315 0)
(0.055445 0.000156341 0)
(0.0547857 0.000149733 0)
(0.0541489 0.000143462 0)
(0.0535336 0.000137503 0)
(0.0529389 0.000131833 0)
(0.0523641 0.000126431 0)
(0.0518083 0.000121277 0)
(0.0512709 0.000116353 0)
(0.0507511 0.000111643 0)
(0.0502483 0.000107132 0)
(0.0497621 0.000102806 0)
(0.0492918 9.86515e-05 0)
(0.0488369 9.46566e-05 0)
(0.0483971 9.08102e-05 0)
(0.047972 8.71019e-05 0)
(0.047561 8.35221e-05 0)
(0.047164 8.00619e-05 0)
(0.0467806 7.67131e-05 0)
(0.0464104 7.34678e-05 0)
(0.0460534 7.0319e-05 0)
(0.0457091 6.72599e-05 0)
(0.0453775 6.42846e-05 0)
(0.0450583 6.13873e-05 0)
(0.0447514 5.85627e-05 0)
(0.0444566 5.58061e-05 0)
(0.0441737 5.3113e-05 0)
(0.0439028 5.04794e-05 0)
(0.0436437 4.79017e-05 0)
(0.0433964 4.53767e-05 0)
(0.0431606 4.2902e-05 0)
(0.0429365 4.04757e-05 0)
(0.042724 3.80967e-05 0)
(0.042523 3.5765e-05 0)
(0.0423334 3.3481e-05 0)
(0.0421553 3.12456e-05 0)
(0.0419885 2.9059e-05 0)
(0.0418331 2.69195e-05 0)
(0.0416891 2.48217e-05 0)
(0.0415564 2.27551e-05 0)
(0.0414352 2.07029e-05 0)
(0.0413255 1.86433e-05 0)
(0.0412276 1.65532e-05 0)
(0.0411417 1.44162e-05 0)
(0.0410678 1.22346e-05 0)
(0.041006 1.00458e-05 0)
(0.040956 7.93973e-06 0)
(0.0409168 6.07479e-06 0)
(0.040887 4.68768e-06 0)
(0.0408638 4.11821e-06 0)
(0.0408448 5.06983e-06 0)
(0.0407963 1.59259e-05 0)
(0.193535 0.00893154 0)
(0.194279 0.00995526 0)
(0.194429 0.0103406 0)
(0.193805 0.0103671 0)
(0.192494 0.0101567 0)
(0.190614 0.00975513 0)
(0.188258 0.00920653 0)
(0.185513 0.00855977 0)
(0.182472 0.00786052 0)
(0.179221 0.00714771 0)
(0.175835 0.00645266 0)
(0.17238 0.00579845 0)
(0.168907 0.00519991 0)
(0.165455 0.0046643 0)
(0.162054 0.00419282 0)
(0.158724 0.00378233 0)
(0.155478 0.00342702 0)
(0.152325 0.0031199 0)
(0.14927 0.00285381 0)
(0.146313 0.0026221 0)
(0.143454 0.00241897 0)
(0.140692 0.00223956 0)
(0.138025 0.00207993 0)
(0.135451 0.00193692 0)
(0.132967 0.00180803 0)
(0.13057 0.00169126 0)
(0.128256 0.00158502 0)
(0.126024 0.00148802 0)
(0.123871 0.00139919 0)
(0.121793 0.00131764 0)
(0.119787 0.0012426 0)
(0.117852 0.00117341 0)
(0.115984 0.00110949 0)
(0.11418 0.00105034 0)
(0.112438 0.000995503 0)
(0.110755 0.000944573 0)
(0.10913 0.000897191 0)
(0.107559 0.000853035 0)
(0.10604 0.000811817 0)
(0.104571 0.000773277 0)
(0.103151 0.000737184 0)
(0.101776 0.00070333 0)
(0.100446 0.000671525 0)
(0.0991584 0.000641602 0)
(0.0979114 0.000613408 0)
(0.0967036 0.000586806 0)
(0.0955335 0.000561669 0)
(0.0943995 0.000537887 0)
(0.0933003 0.000515355 0)
(0.0922347 0.000493981 0)
(0.0912015 0.000473678 0)
(0.0901994 0.000454368 0)
(0.0892275 0.00043598 0)
(0.0882846 0.000418447 0)
(0.08737 0.000401709 0)
(0.0864827 0.000385711 0)
(0.0856218 0.000370399 0)
(0.0847866 0.000355727 0)
(0.0839763 0.000341649 0)
(0.0831904 0.000328125 0)
(0.0824281 0.000315117 0)
(0.0816888 0.000302588 0)
(0.0809722 0.000290505 0)
(0.0802776 0.000278838 0)
(0.0796046 0.000267558 0)
(0.0789528 0.000256637 0)
(0.0783218 0.00024605 0)
(0.0777113 0.000235774 0)
(0.0771209 0.000225788 0)
(0.0765505 0.00021607 0)
(0.0759998 0.000206601 0)
(0.0754685 0.000197365 0)
(0.0749565 0.000188344 0)
(0.0744637 0.000179523 0)
(0.0739899 0.000170889 0)
(0.0735351 0.000162429 0)
(0.0730991 0.000154132 0)
(0.0726819 0.000145986 0)
(0.0722835 0.000137985 0)
(0.0719039 0.000130121 0)
(0.0715429 0.00012239 0)
(0.0712008 0.000114787 0)
(0.0708774 0.000107312 0)
(0.0705728 9.99608e-05 0)
(0.070287 9.27312e-05 0)
(0.0700201 8.56148e-05 0)
(0.0697721 7.85974e-05 0)
(0.0695431 7.16571e-05 0)
(0.0693332 6.47645e-05 0)
(0.0691427 5.78887e-05 0)
(0.0689714 5.10074e-05 0)
(0.0688197 4.41248e-05 0)
(0.0686872 3.72934e-05 0)
(0.0685737 3.06376e-05 0)
(0.0684782 2.43726e-05 0)
(0.0683993 1.88221e-05 0)
(0.0683349 1.44546e-05 0)
(0.0682819 1.20144e-05 0)
(0.0682374 1.35583e-05 0)
(0.0681644 2.97105e-05 0)
(0.194572 0.00831244 0)
(0.195681 0.009397 0)
(0.196715 0.00999266 0)
(0.197452 0.0102575 0)
(0.197854 0.0102836 0)
(0.197921 0.0101097 0)
(0.197652 0.00977111 0)
(0.197053 0.00930963 0)
(0.196146 0.00876695 0)
(0.194968 0.00818061 0)
(0.193559 0.00758251 0)
(0.191962 0.006998 0)
(0.190216 0.00644527 0)
(0.188358 0.00593559 0)
(0.18642 0.00547423 0)
(0.184426 0.00506185 0)
(0.182396 0.00469593 0)
(0.180347 0.00437214 0)
(0.178288 0.00408529 0)
(0.17623 0.00383014 0)
(0.174178 0.00360181 0)
(0.172136 0.00339602 0)
(0.170109 0.00320918 0)
(0.1681 0.00303835 0)
(0.16611 0.00288116 0)
(0.164142 0.00273575 0)
(0.162198 0.00260064 0)
(0.160278 0.00247464 0)
(0.158386 0.00235679 0)
(0.156521 0.00224633 0)
(0.154685 0.00214259 0)
(0.152879 0.00204501 0)
(0.151103 0.00195312 0)
(0.149358 0.00186648 0)
(0.147645 0.00178472 0)
(0.145964 0.00170747 0)
(0.144314 0.00163443 0)
(0.142696 0.00156531 0)
(0.141111 0.00149984 0)
(0.139558 0.00143777 0)
(0.138036 0.00137888 0)
(0.136547 0.00132296 0)
(0.135088 0.00126982 0)
(0.133661 0.00121928 0)
(0.132265 0.00117116 0)
(0.130899 0.00112532 0)
(0.129564 0.00108162 0)
(0.128258 0.00103991 0)
(0.126981 0.00100008 0)
(0.125734 0.000962007 0)
(0.124514 0.000925581 0)
(0.123323 0.0008907 0)
(0.12216 0.00085727 0)
(0.121023 0.000825202 0)
(0.119913 0.000794409 0)
(0.11883 0.000764815 0)
(0.117773 0.000736344 0)
(0.116741 0.000708926 0)
(0.115735 0.000682495 0)
(0.114753 0.000656988 0)
(0.113796 0.000632348 0)
(0.112864 0.000608518 0)
(0.111955 0.000585447 0)
(0.11107 0.000563084 0)
(0.110209 0.000541383 0)
(0.109371 0.0005203 0)
(0.108557 0.000499794 0)
(0.107765 0.000479824 0)
(0.106997 0.000460355 0)
(0.106251 0.000441351 0)
(0.105528 0.000422779 0)
(0.104828 0.00040461 0)
(0.104151 0.000386813 0)
(0.103496 0.000369364 0)
(0.102864 0.000352237 0)
(0.102254 0.000335409 0)
(0.101668 0.00031886 0)
(0.101104 0.000302572 0)
(0.100564 0.00028653 0)
(0.100046 0.000270721 0)
(0.0995523 0.000255134 0)
(0.0990816 0.000239761 0)
(0.0986345 0.000224598 0)
(0.0982111 0.000209637 0)
(0.0978116 0.000194872 0)
(0.0974362 0.000180288 0)
(0.097085 0.000165868 0)
(0.0967583 0.000151586 0)
(0.0964563 0.000137413 0)
(0.0961789 0.000123328 0)
(0.0959264 0.000109332 0)
(0.0956987 9.54769e-05 0)
(0.0954953 8.18924e-05 0)
(0.0953156 6.88129e-05 0)
(0.0951584 5.65953e-05 0)
(0.095022 4.57283e-05 0)
(0.0949041 3.6872e-05 0)
(0.0948016 3.10958e-05 0)
(0.0947121 3.13954e-05 0)
(0.0945961 4.91169e-05 0)
(0.195308 0.00782184 0)
(0.196286 0.00882418 0)
(0.197345 0.00944665 0)
(0.198322 0.00978344 0)
(0.199164 0.00990822 0)
(0.199849 0.00985589 0)
(0.200354 0.00965327 0)
(0.200655 0.00933178 0)
(0.200744 0.00892459 0)
(0.200625 0.0084631 0)
(0.200311 0.00797525 0)
(0.199822 0.00748449 0)
(0.199179 0.00700882 0)
(0.198407 0.00656063 0)
(0.197527 0.00614707 0)
(0.19656 0.00577098 0)
(0.195521 0.00543203 0)
(0.194425 0.00512781 0)
(0.193283 0.00485479 0)
(0.192103 0.004609 0)
(0.190891 0.00438653 0)
(0.189652 0.00418383 0)
(0.18839 0.00399783 0)
(0.187109 0.00382597 0)
(0.185811 0.00366616 0)
(0.184499 0.00351674 0)
(0.183176 0.0033764 0)
(0.181842 0.00324407 0)
(0.180502 0.00311892 0)
(0.179155 0.00300027 0)
(0.177805 0.00288754 0)
(0.176452 0.00278027 0)
(0.175099 0.00267804 0)
(0.173748 0.00258051 0)
(0.172399 0.00248735 0)
(0.171054 0.00239829 0)
(0.169714 0.00231308 0)
(0.168381 0.00223147 0)
(0.167055 0.00215327 0)
(0.165738 0.00207827 0)
(0.164431 0.00200629 0)
(0.163134 0.00193718 0)
(0.161848 0.00187077 0)
(0.160574 0.00180692 0)
(0.159313 0.0017455 0)
(0.158066 0.00168638 0)
(0.156832 0.00162945 0)
(0.155613 0.00157459 0)
(0.154409 0.00152169 0)
(0.15322 0.00147066 0)
(0.152047 0.00142141 0)
(0.15089 0.00137383 0)
(0.149749 0.00132785 0)
(0.148625 0.00128339 0)
(0.147518 0.00124035 0)
(0.146429 0.00119868 0)
(0.145357 0.00115829 0)
(0.144303 0.00111912 0)
(0.143267 0.00108111 0)
(0.14225 0.00104417 0)
(0.14125 0.00100827 0)
(0.14027 0.000973327 0)
(0.139308 0.000939296 0)
(0.138365 0.00090612 0)
(0.137442 0.000873747 0)
(0.136538 0.000842126 0)
(0.135654 0.00081121 0)
(0.134789 0.000780952 0)
(0.133945 0.000751309 0)
(0.133121 0.000722238 0)
(0.132318 0.0006937 0)
(0.131536 0.000665657 0)
(0.130774 0.000638074 0)
(0.130035 0.000610917 0)
(0.129316 0.000584155 0)
(0.12862 0.00055776 0)
(0.127947 0.000531705 0)
(0.127296 0.000505969 0)
(0.126668 0.00048053 0)
(0.126063 0.000455373 0)
(0.125482 0.000430485 0)
(0.124925 0.000405855 0)
(0.124393 0.000381476 0)
(0.123886 0.00035734 0)
(0.123403 0.000333437 0)
(0.122946 0.000309755 0)
(0.122515 0.000286278 0)
(0.122111 0.000262986 0)
(0.121733 0.000239867 0)
(0.121381 0.000216925 0)
(0.121057 0.000194207 0)
(0.120759 0.000171832 0)
(0.120487 0.000150017 0)
(0.120241 0.000129109 0)
(0.120019 0.000109597 0)
(0.11982 9.21153e-05 0)
(0.119641 7.74956e-05 0)
(0.119481 6.70633e-05 0)
(0.119337 6.41832e-05 0)
(0.119169 7.89422e-05 0)
(0.195936 0.00739568 0)
(0.196746 0.00828617 0)
(0.197671 0.00888661 0)
(0.198595 0.00924611 0)
(0.199467 0.00941783 0)
(0.200264 0.00943201 0)
(0.200962 0.00931108 0)
(0.20154 0.00908026 0)
(0.201981 0.00876695 0)
(0.202282 0.00839772 0)
(0.202444 0.00799673 0)
(0.202474 0.00758469 0)
(0.202384 0.00717811 0)
(0.202188 0.00678898 0)
(0.201901 0.00642489 0)
(0.201535 0.00608968 0)
(0.201104 0.0057843 0)
(0.200616 0.00550766 0)
(0.200082 0.00525743 0)
(0.199506 0.00503069 0)
(0.198894 0.00482435 0)
(0.19825 0.0046355 0)
(0.197576 0.00446152 0)
(0.196875 0.00430016 0)
(0.196148 0.00414955 0)
(0.195397 0.00400816 0)
(0.194624 0.00387477 0)
(0.193831 0.00374839 0)
(0.193017 0.00362822 0)
(0.192185 0.00351362 0)
(0.191336 0.00340407 0)
(0.190471 0.00329912 0)
(0.189591 0.00319842 0)
(0.188698 0.00310163 0)
(0.187793 0.00300849 0)
(0.186877 0.00291877 0)
(0.18595 0.00283223 0)
(0.185015 0.0027487 0)
(0.184073 0.00266799 0)
(0.183124 0.00258996 0)
(0.182169 0.00251446 0)
(0.181209 0.00244135 0)
(0.180246 0.00237052 0)
(0.179281 0.00230186 0)
(0.178313 0.00223526 0)
(0.177345 0.00217063 0)
(0.176376 0.00210787 0)
(0.175408 0.00204689 0)
(0.174442 0.00198762 0)
(0.173477 0.00192998 0)
(0.172516 0.0018739 0)
(0.171558 0.0018193 0)
(0.170605 0.00176611 0)
(0.169657 0.00171428 0)
(0.168715 0.00166373 0)
(0.167778 0.0016144 0)
(0.166849 0.00156625 0)
(0.165927 0.0015192 0)
(0.165013 0.0014732 0)
(0.164108 0.00142819 0)
(0.163212 0.00138413 0)
(0.162326 0.00134096 0)
(0.16145 0.00129863 0)
(0.160585 0.0012571 0)
(0.159731 0.0012163 0)
(0.15889 0.0011762 0)
(0.15806 0.00113675 0)
(0.157244 0.0010979 0)
(0.156441 0.00105962 0)
(0.155652 0.00102186 0)
(0.154878 0.00098459 0)
(0.154119 0.000947763 0)
(0.153375 0.000911346 0)
(0.152648 0.000875307 0)
(0.151937 0.000839614 0)
(0.151244 0.00080424 0)
(0.150569 0.000769157 0)
(0.149913 0.000734344 0)
(0.149275 0.000699781 0)
(0.148657 0.000665454 0)
(0.148059 0.000631351 0)
(0.147482 0.000597464 0)
(0.146927 0.000563787 0)
(0.146393 0.000530315 0)
(0.145882 0.000497043 0)
(0.145394 0.000463966 0)
(0.14493 0.000431077 0)
(0.14449 0.000398374 0)
(0.144074 0.000365871 0)
(0.143683 0.000333613 0)
(0.143317 0.000301702 0)
(0.142976 0.00027033 0)
(0.14266 0.000239805 0)
(0.142367 0.000210576 0)
(0.142098 0.000183238 0)
(0.14185 0.000158536 0)
(0.141622 0.000137417 0)
(0.141413 0.000121323 0)
(0.141223 0.000113407 0)
(0.141009 0.000120705 0)
(0.196486 0.0070283 0)
(0.19716 0.00781198 0)
(0.197947 0.00837584 0)
(0.198765 0.00873842 0)
(0.199567 0.00893406 0)
(0.200327 0.00898767 0)
(0.201025 0.00891889 0)
(0.201643 0.00874908 0)
(0.202168 0.00850152 0)
(0.202592 0.00819912 0)
(0.202916 0.00786294 0)
(0.203143 0.00751125 0)
(0.20328 0.00715897 0)
(0.203336 0.00681731 0)
(0.203321 0.00649385 0)
(0.203247 0.00619292 0)
(0.203121 0.0059163 0)
(0.202952 0.00566384 0)
(0.202745 0.00543413 0)
(0.202507 0.00522508 0)
(0.202241 0.00503428 0)
(0.201949 0.00485935 0)
(0.201634 0.00469803 0)
(0.201297 0.00454836 0)
(0.200939 0.00440864 0)
(0.200561 0.00427745 0)
(0.200163 0.00415364 0)
(0.199747 0.00403624 0)
(0.199312 0.00392449 0)
(0.198859 0.00381776 0)
(0.198389 0.00371551 0)
(0.197902 0.00361733 0)
(0.197398 0.00352285 0)
(0.19688 0.00343176 0)
(0.196346 0.00334379 0)
(0.195797 0.00325871 0)
(0.195235 0.00317632 0)
(0.194659 0.00309643 0)
(0.194071 0.0030189 0)
(0.193471 0.00294356 0)
(0.192859 0.0028703 0)
(0.192237 0.002799 0)
(0.191605 0.00272954 0)
(0.190963 0.00266184 0)
(0.190313 0.00259579 0)
(0.189654 0.00253132 0)
(0.188988 0.00246835 0)
(0.188315 0.00240681 0)
(0.187636 0.00234663 0)
(0.186951 0.00228774 0)
(0.186261 0.00223008 0)
(0.185567 0.00217359 0)
(0.184869 0.00211823 0)
(0.184169 0.00206392 0)
(0.183465 0.00201063 0)
(0.18276 0.00195829 0)
(0.182054 0.00190686 0)
(0.181347 0.00185629 0)
(0.18064 0.00180654 0)
(0.179934 0.00175755 0)
(0.179229 0.00170927 0)
(0.178526 0.00166168 0)
(0.177825 0.00161471 0)
(0.177127 0.00156833 0)
(0.176434 0.00152249 0)
(0.175744 0.00147715 0)
(0.17506 0.00143227 0)
(0.174381 0.00138782 0)
(0.173708 0.00134374 0)
(0.173043 0.00130001 0)
(0.172385 0.00125659 0)
(0.171735 0.00121345 0)
(0.171095 0.00117054 0)
(0.170463 0.00112785 0)
(0.169843 0.00108534 0)
(0.169233 0.00104299 0)
(0.168635 0.00100078 0)
(0.168049 0.000958676 0)
(0.167476 0.000916678 0)
(0.166917 0.00087477 0)
(0.166373 0.000832945 0)
(0.165844 0.000791201 0)
(0.16533 0.000749537 0)
(0.164833 0.000707955 0)
(0.164354 0.000666461 0)
(0.163892 0.000625059 0)
(0.163449 0.000583761 0)
(0.163025 0.000542589 0)
(0.162621 0.000501588 0)
(0.162236 0.000460851 0)
(0.161872 0.000420539 0)
(0.161528 0.000380913 0)
(0.161204 0.000342361 0)
(0.1609 0.000305417 0)
(0.160614 0.000270754 0)
(0.160347 0.000239188 0)
(0.160097 0.000211713 0)
(0.159864 0.00018971 0)
(0.159649 0.000175604 0)
(0.15941 0.000172441 0)
(0.19697 0.00670981 0)
(0.197538 0.00739709 0)
(0.198208 0.00791726 0)
(0.198921 0.00827125 0)
(0.199638 0.00847886 0)
(0.20033 0.00855912 0)
(0.200978 0.00852878 0)
(0.201567 0.00840577 0)
(0.202085 0.00820975 0)
(0.202526 0.0079604 0)
(0.202887 0.00767608 0)
(0.203173 0.00737299 0)
(0.203387 0.00706461 0)
(0.203537 0.0067614 0)
(0.203631 0.0064708 0)
(0.203677 0.00619747 0)
(0.203683 0.00594377 0)
(0.203656 0.00571031 0)
(0.203602 0.00549647 0)
(0.203523 0.00530086 0)
(0.203425 0.00512168 0)
(0.20331 0.00495705 0)
(0.203179 0.00480509 0)
(0.203033 0.00466409 0)
(0.202874 0.00453256 0)
(0.202701 0.00440921 0)
(0.202516 0.00429294 0)
(0.202318 0.00418285 0)
(0.202107 0.00407818 0)
(0.201884 0.00397831 0)
(0.201649 0.00388273 0)
(0.201402 0.00379099 0)
(0.201142 0.00370272 0)
(0.200871 0.0036176 0)
(0.200587 0.00353537 0)
(0.200293 0.00345579 0)
(0.199986 0.00337863 0)
(0.199668 0.00330373 0)
(0.19934 0.00323091 0)
(0.199 0.00316003 0)
(0.19865 0.00309096 0)
(0.198289 0.00302357 0)
(0.197918 0.00295776 0)
(0.197537 0.00289342 0)
(0.197147 0.00283048 0)
(0.196747 0.00276884 0)
(0.196339 0.00270843 0)
(0.195922 0.00264918 0)
(0.195496 0.00259102 0)
(0.195063 0.00253388 0)
(0.194622 0.00247771 0)
(0.194174 0.00242245 0)
(0.193719 0.00236805 0)
(0.193257 0.00231446 0)
(0.19279 0.00226161 0)
(0.192317 0.00220947 0)
(0.191839 0.00215799 0)
(0.191356 0.00210712 0)
(0.190869 0.00205681 0)
(0.190378 0.00200703 0)
(0.189884 0.00195772 0)
(0.189387 0.00190884 0)
(0.188888 0.00186035 0)
(0.188387 0.00181222 0)
(0.187884 0.00176439 0)
(0.187381 0.00171682 0)
(0.186877 0.00166949 0)
(0.186374 0.00162235 0)
(0.185872 0.00157536 0)
(0.185371 0.00152849 0)
(0.184872 0.0014817 0)
(0.184376 0.00143496 0)
(0.183883 0.00138823 0)
(0.183394 0.0013415 0)
(0.18291 0.00129474 0)
(0.18243 0.00124791 0)
(0.181957 0.00120101 0)
(0.18149 0.00115401 0)
(0.18103 0.0011069 0)
(0.180578 0.00105969 0)
(0.180135 0.00101236 0)
(0.179701 0.000964914 0)
(0.179277 0.000917365 0)
(0.178863 0.000869722 0)
(0.178461 0.000822 0)
(0.17807 0.000774219 0)
(0.177692 0.000726409 0)
(0.177327 0.000678618 0)
(0.176976 0.00063093 0)
(0.176638 0.000583478 0)
(0.176315 0.000536478 0)
(0.176005 0.000490251 0)
(0.17571 0.000445248 0)
(0.175429 0.000402061 0)
(0.175162 0.000361413 0)
(0.174908 0.000324148 0)
(0.174666 0.00029124 0)
(0.174438 0.000263867 0)
(0.174225 0.00024346 0)
(0.173987 0.000229292 0)
(0.197397 0.00642842 0)
(0.197882 0.00703069 0)
(0.198454 0.00750503 0)
(0.199075 0.00784371 0)
(0.19971 0.00805616 0)
(0.200332 0.00815569 0)
(0.200922 0.00815579 0)
(0.201467 0.00807127 0)
(0.201954 0.00791846 0)
(0.202378 0.00771409 0)
(0.202737 0.00747411 0)
(0.203033 0.0072128 0)
(0.203268 0.00694232 0)
(0.203449 0.00667238 0)
(0.203582 0.00641018 0)
(0.203675 0.00616054 0)
(0.203734 0.00592628 0)
(0.203765 0.00570862 0)
(0.203773 0.00550759 0)
(0.203763 0.00532243 0)
(0.203737 0.00515191 0)
(0.203699 0.00499461 0)
(0.20365 0.00484904 0)
(0.203592 0.00471377 0)
(0.203525 0.00458753 0)
(0.20345 0.00446915 0)
(0.203367 0.00435766 0)
(0.203278 0.00425221 0)
(0.203181 0.00415209 0)
(0.203076 0.0040567 0)
(0.202965 0.00396553 0)
(0.202846 0.00387815 0)
(0.202721 0.00379419 0)
(0.202588 0.00371333 0)
(0.202448 0.00363529 0)
(0.2023 0.00355983 0)
(0.202146 0.00348674 0)
(0.201984 0.00341581 0)
(0.201815 0.00334689 0)
(0.201638 0.00327982 0)
(0.201454 0.00321446 0)
(0.201263 0.00315068 0)
(0.201065 0.00308837 0)
(0.200859 0.00302743 0)
(0.200646 0.00296776 0)
(0.200426 0.00290928 0)
(0.200199 0.00285189 0)
(0.199965 0.00279552 0)
(0.199724 0.0027401 0)
(0.199476 0.00268557 0)
(0.199222 0.00263186 0)
(0.198961 0.0025789 0)
(0.198693 0.00252664 0)
(0.19842 0.00247503 0)
(0.19814 0.00242401 0)
(0.197854 0.00237352 0)
(0.197563 0.00232352 0)
(0.197267 0.00227395 0)
(0.196965 0.00222477 0)
(0.196658 0.00217593 0)
(0.196347 0.00212739 0)
(0.196031 0.00207909 0)
(0.195711 0.00203099 0)
(0.195387 0.00198305 0)
(0.19506 0.00193522 0)
(0.19473 0.00188746 0)
(0.194397 0.00183973 0)
(0.194062 0.001792 0)
(0.193724 0.00174421 0)
(0.193385 0.00169633 0)
(0.193045 0.00164833 0)
(0.192705 0.00160017 0)
(0.192364 0.00155182 0)
(0.192023 0.00150325 0)
(0.191683 0.00145443 0)
(0.191344 0.00140535 0)
(0.191006 0.00135597 0)
(0.190671 0.00130629 0)
(0.190339 0.0012563 0)
(0.19001 0.00120599 0)
(0.189685 0.00115537 0)
(0.189364 0.00110443 0)
(0.189048 0.0010532 0)
(0.188738 0.00100169 0)
(0.188433 0.00094992 0)
(0.188136 0.000897933 0)
(0.187845 0.000845776 0)
(0.187561 0.000793523 0)
(0.187286 0.000741286 0)
(0.187018 0.000689238 0)
(0.186759 0.000637637 0)
(0.186508 0.000586849 0)
(0.186266 0.000537366 0)
(0.186032 0.00048981 0)
(0.185806 0.000444926 0)
(0.185588 0.000403548 0)
(0.185379 0.000366576 0)
(0.185178 0.000334908 0)
(0.184989 0.000309018 0)
(0.184774 0.000285569 0)
(0.197774 0.00617594 0)
(0.198193 0.00670459 0)
(0.198685 0.00713426 0)
(0.199225 0.00745386 0)
(0.199786 0.00766598 0)
(0.200342 0.00777902 0)
(0.200876 0.00780334 0)
(0.201374 0.00775085 0)
(0.201826 0.00763498 0)
(0.202226 0.00746979 0)
(0.202571 0.00726896 0)
(0.202861 0.007045 0)
(0.203098 0.00680877 0)
(0.203288 0.00656919 0)
(0.203436 0.0063331 0)
(0.203547 0.00610537 0)
(0.203628 0.00588911 0)
(0.203683 0.005686 0)
(0.203718 0.0054966 0)
(0.203736 0.00532071 0)
(0.203741 0.0051576 0)
(0.203735 0.00500627 0)
(0.203721 0.00486561 0)
(0.203699 0.00473447 0)
(0.20367 0.0046118 0)
(0.203637 0.0044966 0)
(0.203599 0.00438802 0)
(0.203556 0.00428529 0)
(0.203509 0.00418777 0)
(0.203459 0.00409489 0)
(0.203404 0.00400619 0)
(0.203346 0.00392123 0)
(0.203284 0.00383968 0)
(0.203218 0.00376121 0)
(0.203149 0.00368556 0)
(0.203076 0.00361248 0)
(0.202999 0.00354177 0)
(0.202918 0.00347323 0)
(0.202834 0.00340669 0)
(0.202745 0.00334199 0)
(0.202653 0.003279 0)
(0.202556 0.00321759 0)
(0.202456 0.00315764 0)
(0.202351 0.00309903 0)
(0.202242 0.00304168 0)
(0.202128 0.00298549 0)
(0.202011 0.00293037 0)
(0.201889 0.00287623 0)
(0.201763 0.00282301 0)
(0.201632 0.00277063 0)
(0.201497 0.00271902 0)
(0.201357 0.00266811 0)
(0.201213 0.00261785 0)
(0.201065 0.00256816 0)
(0.200912 0.00251899 0)
(0.200755 0.00247028 0)
(0.200594 0.00242198 0)
(0.200428 0.00237403 0)
(0.200259 0.00232637 0)
(0.200085 0.00227896 0)
(0.199907 0.00223174 0)
(0.199726 0.00218466 0)
(0.19954 0.00213767 0)
(0.199351 0.00209072 0)
(0.199159 0.00204376 0)
(0.198963 0.00199675 0)
(0.198764 0.00194964 0)
(0.198562 0.00190238 0)
(0.198358 0.00185493 0)
(0.19815 0.00180725 0)
(0.197941 0.0017593 0)
(0.19773 0.00171105 0)
(0.197517 0.00166244 0)
(0.197302 0.00161346 0)
(0.197086 0.00156408 0)
(0.19687 0.00151426 0)
(0.196653 0.00146399 0)
(0.196435 0.00141326 0)
(0.196218 0.00136204 0)
(0.196001 0.00131035 0)
(0.195785 0.00125817 0)
(0.19557 0.00120552 0)
(0.195357 0.00115242 0)
(0.195146 0.00109888 0)
(0.194937 0.00104495 0)
(0.194731 0.000990665 0)
(0.194527 0.000936094 0)
(0.194327 0.000881332 0)
(0.19413 0.000826517 0)
(0.193937 0.00077185 0)
(0.193747 0.000717618 0)
(0.193561 0.000664213 0)
(0.193379 0.000612149 0)
(0.193201 0.000562055 0)
(0.193026 0.000514666 0)
(0.192856 0.000470778 0)
(0.192689 0.000431188 0)
(0.192528 0.000396519 0)
(0.192373 0.000366543 0)
(0.192193 0.000336847 0)
(0.198107 0.00594674 0)
(0.198472 0.00641221 0)
(0.198899 0.00680009 0)
(0.199369 0.00709872 0)
(0.199863 0.00730666 0)
(0.200359 0.00742849 0)
(0.20084 0.00747174 0)
(0.201294 0.00744581 0)
(0.201711 0.00736157 0)
(0.202084 0.00723067 0)
(0.202411 0.00706471 0)
(0.20269 0.00687453 0)
(0.202924 0.00666974 0)
(0.203116 0.00645843 0)
(0.203269 0.00624701 0)
(0.203389 0.00604025 0)
(0.203481 0.00584144 0)
(0.203549 0.00565258 0)
(0.203596 0.00547465 0)
(0.203628 0.00530789 0)
(0.203648 0.00515202 0)
(0.203656 0.00500642 0)
(0.203657 0.00487032 0)
(0.203651 0.00474285 0)
(0.203639 0.00462315 0)
(0.203623 0.00451043 0)
(0.203603 0.00440395 0)
(0.20358 0.00430304 0)
(0.203554 0.00420713 0)
(0.203525 0.00411572 0)
(0.203494 0.00402837 0)
(0.203461 0.00394468 0)
(0.203427 0.00386434 0)
(0.20339 0.00378705 0)
(0.203352 0.00371254 0)
(0.203312 0.00364059 0)
(0.20327 0.003571 0)
(0.203226 0.00350358 0)
(0.203181 0.00343817 0)
(0.203134 0.00337461 0)
(0.203085 0.00331277 0)
(0.203035 0.00325252 0)
(0.202983 0.00319375 0)
(0.202928 0.00313634 0)
(0.202872 0.0030802 0)
(0.202814 0.00302523 0)
(0.202754 0.00297135 0)
(0.202692 0.00291847 0)
(0.202628 0.00286651 0)
(0.202562 0.0028154 0)
(0.202493 0.00276507 0)
(0.202422 0.00271544 0)
(0.202349 0.00266645 0)
(0.202273 0.00261803 0)
(0.202195 0.00257013 0)
(0.202115 0.00252267 0)
(0.202032 0.0024756 0)
(0.201946 0.00242886 0)
(0.201858 0.0023824 0)
(0.201768 0.00233614 0)
(0.201675 0.00229005 0)
(0.201579 0.00224405 0)
(0.201481 0.0021981 0)
(0.20138 0.00215215 0)
(0.201277 0.00210614 0)
(0.201172 0.00206001 0)
(0.201064 0.00201372 0)
(0.200954 0.00196722 0)
(0.200841 0.00192046 0)
(0.200726 0.0018734 0)
(0.20061 0.00182598 0)
(0.200491 0.00177817 0)
(0.200371 0.00172994 0)
(0.200248 0.00168123 0)
(0.200124 0.00163202 0)
(0.199999 0.00158229 0)
(0.199873 0.001532 0)
(0.199745 0.00148115 0)
(0.199616 0.00142971 0)
(0.199486 0.00137769 0)
(0.199356 0.00132508 0)
(0.199225 0.0012719 0)
(0.199094 0.00121816 0)
(0.198963 0.00116389 0)
(0.198832 0.00110914 0)
(0.198701 0.00105395 0)
(0.198571 0.000998407 0)
(0.198441 0.000942619 0)
(0.198312 0.000886743 0)
(0.198183 0.000831 0)
(0.198054 0.000775694 0)
(0.197927 0.000721227 0)
(0.197799 0.000668114 0)
(0.197673 0.000616974 0)
(0.197547 0.000568509 0)
(0.197421 0.000523461 0)
(0.197297 0.000482514 0)
(0.197175 0.000446078 0)
(0.197057 0.000413575 0)
(0.196914 0.000380832 0)
(0.198401 0.00573685 0)
(0.198723 0.00614828 0)
(0.199094 0.00649799 0)
(0.199505 0.00677516 0)
(0.19994 0.00697623 0)
(0.200381 0.00710307 0)
(0.200814 0.00716082 0)
(0.201225 0.00715668 0)
(0.201607 0.00709932 0)
(0.201954 0.00699827 0)
(0.202262 0.00686327 0)
(0.202529 0.00670358 0)
(0.202756 0.00652764 0)
(0.202946 0.0063427 0)
(0.203102 0.00615467 0)
(0.203226 0.00596815 0)
(0.203324 0.00578646 0)
(0.2034 0.00561181 0)
(0.203456 0.00544551 0)
(0.203497 0.00528814 0)
(0.203524 0.00513979 0)
(0.203542 0.00500019 0)
(0.203551 0.00486885 0)
(0.203553 0.00474516 0)
(0.203549 0.00462849 0)
(0.203542 0.00451819 0)
(0.20353 0.00441367 0)
(0.203515 0.00431436 0)
(0.203498 0.00421978 0)
(0.203479 0.00412946 0)
(0.203458 0.00404303 0)
(0.203436 0.00396014 0)
(0.203412 0.00388048 0)
(0.203387 0.00380378 0)
(0.203362 0.0037298 0)
(0.203335 0.00365833 0)
(0.203308 0.00358918 0)
(0.20328 0.00352217 0)
(0.203251 0.00345715 0)
(0.203222 0.00339398 0)
(0.203192 0.00333252 0)
(0.203162 0.00327265 0)
(0.203131 0.00321426 0)
(0.203099 0.00315725 0)
(0.203067 0.00310152 0)
(0.203035 0.00304698 0)
(0.203001 0.00299354 0)
(0.202968 0.00294112 0)
(0.202933 0.00288964 0)
(0.202898 0.00283903 0)
(0.202862 0.00278921 0)
(0.202825 0.00274012 0)
(0.202787 0.00269168 0)
(0.202749 0.00264384 0)
(0.202709 0.00259652 0)
(0.202669 0.00254967 0)
(0.202627 0.00250322 0)
(0.202585 0.00245711 0)
(0.202541 0.00241128 0)
(0.202496 0.00236567 0)
(0.20245 0.00232022 0)
(0.202403 0.00227488 0)
(0.202355 0.00222958 0)
(0.202305 0.00218427 0)
(0.202254 0.00213889 0)
(0.202201 0.00209339 0)
(0.202148 0.00204772 0)
(0.202093 0.00200181 0)
(0.202036 0.00195563 0)
(0.201978 0.00190912 0)
(0.201919 0.00186223 0)
(0.201859 0.00181493 0)
(0.201797 0.00176716 0)
(0.201734 0.00171889 0)
(0.201669 0.00167008 0)
(0.201603 0.00162071 0)
(0.201536 0.00157074 0)
(0.201468 0.00152016 0)
(0.201399 0.00146896 0)
(0.201328 0.00141713 0)
(0.201256 0.00136466 0)
(0.201184 0.00131158 0)
(0.20111 0.00125789 0)
(0.201035 0.00120364 0)
(0.20096 0.00114887 0)
(0.200883 0.00109363 0)
(0.200805 0.00103803 0)
(0.200727 0.000982172 0)
(0.200647 0.000926234 0)
(0.200566 0.000870446 0)
(0.200485 0.000815118 0)
(0.200401 0.000760654 0)
(0.200317 0.000707554 0)
(0.200231 0.000656411 0)
(0.200143 0.000607885 0)
(0.200055 0.000562651 0)