/*--------------------------------*- C++ -*----------------------------------*\
| =========                 |                                                 |
| \\      /  F ield         | OpenFOAM: The Open Source CFD Toolbox           |
|  \\    /   O peration     | Version:  2.3.0                                 |
|   \\  /    A nd           | Web:      www.OpenFOAM.org                      |
|    \\/     M anipulation  |                                                 |
\*---------------------------------------------------------------------------*/
FoamFile
{
    version     2.0;
    format      ascii;
    class       surfaceScalarField;
    location    "0.1";
    object      phi;
}
// * * * * * * * * * * * * * * * * * * * * * * * * * * * * * * * * * * * * * //

dimensions      [0 3 -1 0 0 0 0];

internalField   nonuniform List<scalar> 
13570
(
2.83463e-08
2.87938e-09
-3.12256e-08
2.54837e-08
2.86259e-09
2.27982e-08
2.68546e-09
2.03237e-08
2.47446e-09
1.80765e-08
2.24729e-09
1.6067e-08
2.00946e-09
1.42979e-08
1.76914e-09
1.27637e-08
1.53413e-09
1.14527e-08
1.31101e-09
1.03476e-08
1.10513e-09
9.42718e-09
9.20414e-10
8.66805e-09
7.5913e-10
8.04617e-09
6.21878e-10
7.53838e-09
5.07787e-10
7.12352e-09
4.14862e-10
6.78312e-09
3.40402e-10
6.50171e-09
2.81405e-10
6.26682e-09
2.34898e-10
6.06865e-09
1.98168e-10
5.89976e-09
1.68887e-10
5.75463e-09
1.45135e-10
5.62928e-09
1.25351e-10
5.52105e-09
1.08225e-10
5.42845e-09
9.26006e-11
5.351e-09
7.74546e-11
5.28903e-09
6.19672e-11
5.24352e-09
4.55054e-11
5.21577e-09
2.7754e-11
5.20644e-09
9.32882e-12
5.21177e-09
-5.32665e-12
5.22681e-09
-1.50463e-11
5.24812e-09
-2.13085e-11
5.27274e-09
-2.46149e-11
5.29808e-09
-2.53409e-11
5.32233e-09
-2.42575e-11
5.34446e-09
-2.21261e-11
5.36398e-09
-1.9517e-11
5.38078e-09
-1.68031e-11
5.39499e-09
-1.4205e-11
5.40682e-09
-1.18382e-11
5.41658e-09
-9.75131e-12
5.42453e-09
-7.95311e-12
5.43096e-09
-6.43019e-12
5.43612e-09
-5.15782e-12
5.44022e-09
-4.10705e-12
5.44347e-09
-3.24843e-12
5.44603e-09
-2.55388e-12
5.44802e-09
-1.99761e-12
5.44958e-09
-1.55646e-12
5.45079e-09
-1.20973e-12
5.45173e-09
-9.39578e-13
5.45246e-09
-7.30475e-13
5.45303e-09
-5.69117e-13
5.45347e-09
-4.43946e-13
5.45382e-09
-3.4959e-13
5.4541e-09
-2.75952e-13
5.45431e-09
-2.15889e-13
5.45448e-09
-1.65802e-13
5.45461e-09
-1.2711e-13
5.45471e-09
-9.84798e-14
5.45478e-09
-7.73273e-14
5.45484e-09
-6.10861e-14
5.45489e-09
-4.78706e-14
5.45493e-09
-3.6529e-14
5.45495e-09
-2.63668e-14
5.45497e-09
-1.7092e-14
5.45498e-09
-8.53585e-15
5.45498e-09
-7.38164e-16
5.45497e-09
6.72876e-15
5.45496e-09
1.34184e-14
5.45494e-09
1.93511e-14
5.45492e-09
2.45893e-14
5.45489e-09
2.91962e-14
5.45485e-09
3.32401e-14
5.45482e-09
3.67792e-14
5.45478e-09
3.98827e-14
5.45474e-09
4.26124e-14
5.45469e-09
4.50334e-14
5.45464e-09
4.71885e-14
5.45459e-09
4.91455e-14
5.45454e-09
5.09456e-14
5.45449e-09
5.26334e-14
5.45444e-09
5.42648e-14
5.45438e-09
5.5866e-14
5.45432e-09
5.74983e-14
5.45426e-09
5.91893e-14
5.4542e-09
6.09916e-14
5.45414e-09
6.29559e-14
5.45407e-09
6.51343e-14
5.45401e-09
6.76082e-14
5.45394e-09
7.04629e-14
5.45386e-09
7.38369e-14
5.45378e-09
7.79195e-14
5.4537e-09
8.30118e-14
5.45361e-09
8.96283e-14
5.45351e-09
9.86813e-14
5.4534e-09
1.12069e-13
5.45327e-09
1.33796e-13
5.4531e-09
1.668e-13
4.98847e-13
3.33831e-08
3.15088e-09
-3.36546e-08
3.27986e-08
3.44709e-09
3.1983e-08
3.50103e-09
3.10133e-08
3.44413e-09
2.99452e-08
3.3154e-09
2.88244e-08
3.1302e-09
2.76882e-08
2.90535e-09
2.65651e-08
2.65723e-09
2.54764e-08
2.39978e-09
2.44369e-08
2.14454e-09
2.34568e-08
1.90057e-09
2.25415e-08
1.67439e-09
2.16936e-08
1.46986e-09
2.09128e-08
1.28852e-09
2.01976e-08
1.13003e-09
1.95453e-08
9.92757e-10
1.89524e-08
8.74262e-10
1.84155e-08
7.71796e-10
1.79311e-08
6.82598e-10
1.74959e-08
6.04083e-10
1.71071e-08
5.33917e-10
1.67625e-08
4.69991e-10
1.64603e-08
4.1036e-10
1.61997e-08
3.53226e-10
1.59801e-08
2.97061e-10
1.58012e-08
2.40915e-10
1.56619e-08
1.84769e-10
1.556e-08
1.29638e-10
1.54931e-08
7.62395e-11
1.54628e-08
2.50236e-11
1.54652e-08
-1.74868e-11
1.54893e-08
-4.54219e-11
1.55262e-08
-6.14704e-11
1.55694e-08
-6.85888e-11
1.56145e-08
-6.93398e-11
1.56583e-08
-6.59626e-11
1.5699e-08
-6.0211e-11
1.57356e-08
-5.33367e-11
1.57675e-08
-4.61717e-11
1.57949e-08
-3.92322e-11
1.5818e-08
-3.28123e-11
1.58371e-08
-2.7058e-11
1.58527e-08
-2.20205e-11
1.58652e-08
-1.76931e-11
1.58751e-08
-1.40351e-11
1.58829e-08
-1.09881e-11
1.58888e-08
-8.4851e-12
1.58933e-08
-6.45675e-12
1.58966e-08
-4.83496e-12
1.58989e-08
-3.5551e-12
1.59005e-08
-2.55784e-12
1.59016e-08
-1.78958e-12
1.59022e-08
-1.20274e-12
1.59025e-08
-7.5451e-13
1.59026e-08
-4.19686e-13
1.59025e-08
-1.63989e-13
1.59022e-08
4.71198e-14
1.59018e-08
2.26826e-13
1.59013e-08
3.62337e-13
1.59008e-08
4.56087e-13
1.59002e-08
5.17973e-13
1.58996e-08
5.58153e-13
1.58989e-08
5.8442e-13
1.58983e-08
6.01915e-13
1.58977e-08
6.13738e-13
1.5897e-08
6.21562e-13
1.58964e-08
6.26279e-13
1.58958e-08
6.28222e-13
1.58951e-08
6.27967e-13
1.58945e-08
6.25666e-13
1.58939e-08
6.21523e-13
1.58933e-08
6.15761e-13
1.58927e-08
6.08591e-13
1.58922e-08
6.00236e-13
1.58916e-08
5.90892e-13
1.58911e-08
5.8076e-13
1.58906e-08
5.70024e-13
1.589e-08
5.58862e-13
1.58895e-08
5.47424e-13
1.58891e-08
5.35864e-13
1.58886e-08
5.2432e-13
1.58881e-08
5.12907e-13
1.58877e-08
5.01758e-13
1.58872e-08
4.90972e-13
1.58868e-08
4.8067e-13
1.58864e-08
4.70955e-13
1.5886e-08
4.61942e-13
1.58856e-08
4.53763e-13
1.58852e-08
4.46557e-13
1.58849e-08
4.40515e-13
1.58845e-08
4.35873e-13
1.58841e-08
4.32973e-13
1.58838e-08
4.32318e-13
1.58834e-08
4.34699e-13
1.58831e-08
4.41474e-13
1.58827e-08
4.55117e-13
1.58823e-08
4.80672e-13
1.5882e-08
5.29204e-13
1.58815e-08
6.53602e-13
1.14033e-12
3.47778e-08
2.99738e-09
-3.46243e-08
3.48433e-08
3.3816e-09
3.47833e-08
3.56102e-09
3.46036e-08
3.62381e-09
3.43151e-08
3.60389e-09
3.39324e-08
3.51293e-09
3.34731e-08
3.36461e-09
3.29555e-08
3.17485e-09
3.23967e-08
2.95865e-09
3.18119e-08
2.72929e-09
3.12145e-08
2.49795e-09
3.06155e-08
2.27338e-09
3.00237e-08
2.06167e-09
2.94459e-08
1.86633e-09
2.88872e-08
1.68874e-09
2.83514e-08
1.5286e-09
2.78411e-08
1.38449e-09
2.73586e-08
1.25438e-09
2.69052e-08
1.13593e-09
2.64825e-08
1.02678e-09
2.60918e-08
9.24623e-10
2.57345e-08
8.27276e-10
2.54122e-08
7.32679e-10
2.51264e-08
6.3902e-10
2.48785e-08
5.45005e-10
2.46691e-08
4.50248e-10
2.44983e-08
3.55583e-10
2.43649e-08
2.63079e-10
2.42654e-08
1.75737e-10
2.4194e-08
9.63902e-11
2.41503e-08
2.62328e-11
2.41347e-08
-2.98059e-11
2.41412e-08
-6.79976e-11
2.41636e-08
-9.09831e-11
2.41965e-08
-1.02237e-10
2.42355e-08
-1.04955e-10
2.42771e-08
-1.01847e-10
2.43188e-08
-9.50494e-11
2.43588e-08
-8.61498e-11
2.43959e-08
-7.62772e-11
2.44293e-08
-6.62059e-11
2.44587e-08
-5.6447e-11
2.4484e-08
-4.73227e-11
2.45053e-08
-3.90207e-11
2.45229e-08
-3.16348e-11
2.45371e-08
-2.51924e-11
2.45483e-08
-1.9675e-11
2.45569e-08
-1.50322e-11
2.45632e-08
-1.11926e-11
2.45677e-08
-8.07191e-12
2.45708e-08
-5.58001e-12
2.45726e-08
-3.62555e-12
2.45735e-08
-2.12037e-12
2.45737e-08
-9.75338e-13
2.45734e-08
-9.41715e-14
2.45726e-08
6.23177e-13
2.45715e-08
1.1996e-12
2.45701e-08
1.62916e-12
2.45685e-08
1.92411e-12
2.45668e-08
2.11154e-12
2.45651e-08
2.22065e-12
2.45634e-08
2.27636e-12
2.45617e-08
2.29727e-12
2.456e-08
2.29598e-12
2.45583e-08
2.28052e-12
2.45567e-08
2.25572e-12
2.45551e-08
2.22443e-12
2.45536e-08
2.18825e-12
2.4552e-08
2.1484e-12
2.45506e-08
2.1056e-12
2.45491e-08
2.0604e-12
2.45477e-08
2.01328e-12
2.45464e-08
1.96467e-12
2.4545e-08
1.91497e-12
2.45438e-08
1.86454e-12
2.45425e-08
1.81373e-12
2.45413e-08
1.76285e-12
2.45402e-08
1.71219e-12
2.45391e-08
1.66199e-12
2.4538e-08
1.6125e-12
2.4537e-08
1.56394e-12
2.4536e-08
1.51649e-12
2.4535e-08
1.47035e-12
2.45341e-08
1.42568e-12
2.45332e-08
1.38265e-12
2.45323e-08
1.34143e-12
2.45314e-08
1.30217e-12
2.45306e-08
1.26509e-12
2.45298e-08
1.2304e-12
2.45291e-08
1.19839e-12
2.45284e-08
1.16944e-12
2.45276e-08
1.14409e-12
2.4527e-08
1.12316e-12
2.45263e-08
1.10796e-12
2.45256e-08
1.1007e-12
2.4525e-08
1.10552e-12
2.45243e-08
1.13084e-12
2.45237e-08
1.19725e-12
2.45229e-08
1.38093e-12
1.88035e-12
3.56119e-08
2.80533e-09
-3.54198e-08
3.58079e-08
3.18557e-09
3.59633e-08
3.40561e-09
3.60658e-08
3.52127e-09
3.61091e-08
3.5606e-09
3.60895e-08
3.53256e-09
3.60078e-08
3.44634e-09
3.58683e-08
3.31426e-09
3.56779e-08
3.14912e-09
3.54443e-08
2.96287e-09
3.51761e-08
2.76614e-09
3.48817e-08
2.56777e-09
3.4569e-08
2.37441e-09
3.42448e-08
2.19046e-09
3.39153e-08
2.01825e-09
3.35855e-08
1.85844e-09
3.32595e-08
1.71045e-09
3.2941e-08
1.57291e-09
3.2633e-08
1.44397e-09
3.23382e-08
1.32157e-09
3.20592e-08
1.2036e-09
3.17985e-08
1.08796e-09
3.15585e-08
9.72735e-10
3.13411e-08
8.56342e-10
3.11482e-08
7.37915e-10
3.09808e-08
6.17681e-10
3.08392e-08
4.97219e-10
3.07228e-08
3.79431e-10
3.06303e-08
2.68249e-10
3.05587e-08
1.68026e-10
3.05033e-08
8.15384e-11
3.04638e-08
9.71747e-12
3.04413e-08
-4.54682e-11
3.04338e-08
-8.34558e-11
3.04387e-08
-1.07153e-10
3.04534e-08
-1.19627e-10
3.04752e-08
-1.23675e-10
3.05018e-08
-1.21666e-10
3.05312e-08
-1.15505e-10
3.05615e-08
-1.06666e-10
3.05916e-08
-9.6262e-11
3.06203e-08
-8.51188e-11
3.06468e-08
-7.38439e-11
3.06706e-08
-6.2876e-11
3.06915e-08
-5.25246e-11
3.07093e-08
-4.29984e-11
3.07241e-08
-3.4426e-11
3.07359e-08
-2.6871e-11
3.07451e-08
-2.03451e-11
3.07518e-08
-1.48186e-11
3.07565e-08
-1.02314e-11
3.07594e-08
-6.50074e-12
3.07608e-08
-3.53307e-12
3.0761e-08
-1.20103e-12
3.07603e-08
6.42975e-13
3.07588e-08
2.11181e-12
3.07567e-08
3.23169e-12
3.07543e-08
4.03408e-12
3.07517e-08
4.56957e-12
3.07489e-08
4.8977e-12
3.0746e-08
5.07469e-12
3.07432e-08
5.14688e-12
3.07403e-08
5.14914e-12
3.07375e-08
5.10595e-12
3.07348e-08
5.03366e-12
3.07321e-08
4.94277e-12
3.07295e-08
4.83991e-12
3.07269e-08
4.72916e-12
3.07245e-08
4.61325e-12
3.07221e-08
4.49392e-12
3.07198e-08
4.37239e-12
3.07175e-08
4.24958e-12
3.07154e-08
4.12623e-12
3.07133e-08
4.00295e-12
3.07113e-08
3.88029e-12
3.07093e-08
3.75871e-12
3.07074e-08
3.63862e-12
3.07056e-08
3.52041e-12
3.07039e-08
3.40439e-12
3.07022e-08
3.29087e-12
3.07006e-08
3.1801e-12
3.0699e-08
3.07232e-12
3.06975e-08
2.96775e-12
3.06961e-08
2.86658e-12
3.06947e-08
2.76901e-12
3.06934e-08
2.67523e-12
3.06921e-08
2.58543e-12
3.06909e-08
2.49985e-12
3.06897e-08
2.41877e-12
3.06885e-08
2.34253e-12
3.06874e-08
2.27162e-12
3.06864e-08
2.20674e-12
3.06853e-08
2.14897e-12
3.06843e-08
2.10002e-12
3.06834e-08
2.06284e-12
3.06824e-08
2.04287e-12
3.06815e-08
2.05112e-12
3.06806e-08
2.1136e-12
3.06797e-08
2.30273e-12
2.73545e-12
3.63624e-08
2.63713e-09
-3.61942e-08
3.65608e-08
2.98717e-09
3.67535e-08
3.21295e-09
3.69278e-08
3.347e-09
3.70762e-08
3.41215e-09
3.71918e-08
3.41693e-09
3.72699e-08
3.36833e-09
3.73083e-08
3.27582e-09
3.73076e-08
3.14981e-09
3.72701e-08
3.00036e-09
3.71996e-08
2.83669e-09
3.71006e-08
2.6667e-09
3.69784e-08
2.49667e-09
3.68378e-08
2.33103e-09
3.66836e-08
2.17243e-09
3.65201e-08
2.022e-09
3.63508e-08
1.87967e-09
3.61792e-08
1.74455e-09
3.6008e-08
1.61519e-09
3.58397e-08
1.48984e-09
3.56767e-08
1.36661e-09
3.5521e-08
1.24364e-09
3.53745e-08
1.11922e-09
3.52388e-08
9.92099e-10
3.51149e-08
8.6181e-10
3.50036e-08
7.29019e-10
3.4905e-08
5.95743e-10
3.48192e-08
4.65272e-10
3.47456e-08
3.41842e-10
3.46836e-08
2.30034e-10
3.46315e-08
1.33585e-10
3.45876e-08
5.36196e-11
3.45523e-08
-1.01359e-11
3.45265e-08
-5.76907e-11
3.451e-08
-9.0576e-11
3.45017e-08
-1.11384e-10
3.45007e-08
-1.2263e-10
3.45055e-08
-1.26537e-10
3.4515e-08
-1.24977e-10
3.45278e-08
-1.19471e-10
3.45428e-08
-1.11231e-10
3.45589e-08
-1.01213e-10
3.45752e-08
-9.01729e-11
3.4591e-08
-7.87033e-11
3.46058e-08
-6.72709e-11
3.4619e-08
-5.62363e-11
3.46305e-08
-4.58705e-11
3.464e-08
-3.63661e-11
3.46475e-08
-2.78464e-11
3.4653e-08
-2.03735e-11
3.46568e-08
-1.39586e-11
3.46588e-08
-8.56845e-12
3.46594e-08
-4.14281e-12
3.46588e-08
-5.45317e-13
3.46571e-08
2.34299e-12
3.46546e-08
4.60675e-12
3.46515e-08
6.29835e-12
3.46481e-08
7.49264e-12
3.46443e-08
8.27926e-12
3.46405e-08
8.75036e-12
3.46366e-08
8.98929e-12
3.46327e-08
9.06444e-12
3.46288e-08
9.02801e-12
3.4625e-08
8.91768e-12
3.46212e-08
8.75953e-12
3.46176e-08
8.57103e-12
3.46141e-08
8.36362e-12
3.46107e-08
8.14471e-12
3.46074e-08
7.91916e-12
3.46042e-08
7.6902e-12
3.46011e-08
7.45996e-12
3.45981e-08
7.22999e-12
3.45952e-08
7.00142e-12
3.45925e-08
6.77515e-12
3.45898e-08
6.55188e-12
3.45872e-08
6.33222e-12
3.45847e-08
6.11664e-12
3.45823e-08
5.90559e-12
3.45801e-08
5.69942e-12
3.45778e-08
5.49845e-12
3.45757e-08
5.30296e-12
3.45737e-08
5.11317e-12
3.45717e-08
4.9293e-12
3.45698e-08
4.75156e-12
3.4568e-08
4.58011e-12
3.45663e-08
4.41516e-12
3.45646e-08
4.25688e-12
3.4563e-08
4.10553e-12
3.45615e-08
3.96138e-12
3.456e-08
3.82481e-12
3.45586e-08
3.69637e-12
3.45572e-08
3.57685e-12
3.45559e-08
3.4675e-12
3.45546e-08
3.37029e-12
3.45534e-08
3.28863e-12
3.45522e-08
3.22868e-12
3.4551e-08
3.20255e-12
3.45499e-08
3.23625e-12
3.45488e-08
3.38681e-12
3.71135e-12
3.71063e-08
2.49519e-09
-3.69644e-08
3.72838e-08
2.80965e-09
3.74686e-08
3.02822e-09
3.76484e-08
3.16713e-09
3.78171e-08
3.24343e-09
3.79687e-08
3.26534e-09
3.80982e-08
3.23889e-09
3.82022e-08
3.17175e-09
3.82794e-08
3.07262e-09
3.83298e-08
2.95003e-09
3.83546e-08
2.8119e-09
3.83561e-08
2.66516e-09
3.83373e-08
2.51544e-09
3.83015e-08
2.36688e-09
3.82518e-08
2.22213e-09
3.81913e-08
2.08253e-09
3.81226e-08
1.9483e-09
3.80483e-08
1.81887e-09
3.79704e-08
1.69312e-09
3.78906e-08
1.56958e-09
3.78106e-08
1.44661e-09
3.77317e-08
1.32261e-09
3.76547e-08
1.19615e-09
3.75805e-08
1.06629e-09
3.75095e-08
9.32839e-10
3.74418e-08
7.96719e-10
3.73775e-08
6.60083e-10
3.73165e-08
5.2623e-10
3.72591e-08
3.99265e-10
3.72056e-08
2.83516e-10
3.71565e-08
1.82642e-10
3.71117e-08
9.84882e-11
3.7071e-08
3.05735e-11
3.70354e-08
-2.21589e-11
3.70057e-08
-6.08653e-11
3.69819e-08
-8.75529e-11
3.69637e-08
-1.044e-10
3.69505e-08
-1.13402e-10
3.69418e-08
-1.16291e-10
3.69369e-08
-1.14517e-10
3.69349e-08
-1.09274e-10
3.69352e-08
-1.0154e-10
3.69372e-08
-9.21116e-11
3.69401e-08
-8.16476e-11
3.69435e-08
-7.06891e-11
3.6947e-08
-5.96804e-11
3.69501e-08
-4.89802e-11
3.69526e-08
-3.88687e-11
3.69543e-08
-2.95528e-11
3.69551e-08
-2.11717e-11
3.6955e-08
-1.3803e-11
3.69539e-08
-7.46925e-12
3.69518e-08
-2.13614e-12
3.6949e-08
2.28775e-12
3.69455e-08
5.85922e-12
3.69415e-08
8.63168e-12
3.69371e-08
1.06846e-11
3.69325e-08
1.21195e-11
3.69277e-08
1.30491e-11
3.69229e-08
1.35852e-11
3.6918e-08
1.38282e-11
3.69132e-08
1.3861e-11
3.69085e-08
1.3748e-11
3.69039e-08
1.3537e-11
3.68994e-08
1.32618e-11
3.6895e-08
1.29458e-11
3.68908e-08
1.26048e-11
3.68867e-08
1.22494e-11
3.68827e-08
1.18866e-11
3.68789e-08
1.15211e-11
3.68752e-08
1.11561e-11
3.68716e-08
1.07938e-11
3.68682e-08
1.04357e-11
3.68649e-08
1.00829e-11
3.68617e-08
9.73653e-12
3.68586e-08
9.3971e-12
3.68557e-08
9.06521e-12
3.68528e-08
8.74132e-12
3.68501e-08
8.42579e-12
3.68475e-08
8.11892e-12
3.6845e-08
7.82098e-12
3.68425e-08
7.53216e-12
3.68402e-08
7.25266e-12
3.6838e-08
6.98262e-12
3.68358e-08
6.72219e-12
3.68338e-08
6.47153e-12
3.68318e-08
6.2308e-12
3.68299e-08
6.0002e-12
3.68281e-08
5.78e-12
3.68264e-08
5.57058e-12
3.68247e-08
5.37249e-12
3.68231e-08
5.18657e-12
3.68215e-08
5.01412e-12
3.682e-08
4.85726e-12
3.68186e-08
4.71955e-12
3.68172e-08
4.60734e-12
3.68159e-08
4.53239e-12
3.68146e-08
4.51737e-12
3.68134e-08
4.60197e-12
4.80142e-12
3.78554e-08
2.37366e-09
-3.77339e-08
3.80114e-08
2.65367e-09
3.81797e-08
2.85987e-09
3.83488e-08
2.99802e-09
3.85127e-08
3.07956e-09
3.86663e-08
3.1117e-09
3.88054e-08
3.0998e-09
3.89269e-08
3.05027e-09
3.90291e-08
2.97046e-09
3.91114e-08
2.86775e-09
3.91742e-08
2.74905e-09
3.92189e-08
2.62044e-09
3.92474e-08
2.487e-09
3.92617e-08
2.35254e-09
3.92642e-08
2.21964e-09
3.9257e-08
2.08971e-09
3.92421e-08
1.9632e-09
3.92212e-08
1.83979e-09
3.91957e-08
1.71863e-09
3.91667e-08
1.59854e-09
3.91352e-08
1.47815e-09
3.91017e-08
1.35614e-09
3.90665e-08
1.23134e-09
3.90297e-08
1.10308e-09
3.89912e-08
9.71379e-10
3.89506e-08
8.37247e-10
3.89079e-08
7.02778e-10
3.88631e-08
5.71049e-10
3.88166e-08
4.45803e-10
3.87692e-08
3.3092e-10
3.87221e-08
2.29695e-10
3.86766e-08
1.44038e-10
3.86331e-08
7.40619e-11
3.85923e-08
1.86241e-11
3.85551e-08
-2.36781e-11
3.8522e-08
-5.44051e-11
3.8493e-08
-7.53993e-11
3.8468e-08
-8.84358e-11
3.84468e-08
-9.50927e-11
3.8429e-08
-9.67264e-11
3.84142e-08
-9.44799e-11
3.8402e-08
-8.931e-11
3.83919e-08
-8.20177e-11
3.83835e-08
-7.32775e-11
3.83765e-08
-6.36596e-11
3.83705e-08
-5.36443e-11
3.83651e-08
-4.3632e-11
3.83602e-08
-3.39482e-11
3.83555e-08
-2.48467e-11
3.83508e-08
-1.65132e-11
3.83461e-08
-9.06795e-12
3.83412e-08
-2.56694e-12
3.83361e-08
2.99339e-12
3.83307e-08
7.63321e-12
3.83252e-08
1.13686e-11
3.83196e-08
1.42526e-11
3.83139e-08
1.637e-11
3.83082e-08
1.78276e-11
3.83025e-08
1.87423e-11
3.82968e-08
1.92298e-11
3.82913e-08
1.93948e-11
3.82858e-08
1.9325e-11
3.82805e-08
1.90899e-11
3.82753e-08
1.87421e-11
3.82702e-08
1.83198e-11
3.82653e-08
1.78502e-11
3.82606e-08
1.73521e-11
3.8256e-08
1.68384e-11
3.82515e-08
1.63178e-11
3.82473e-08
1.57961e-11
3.82431e-08
1.52775e-11
3.82392e-08
1.47648e-11
3.82353e-08
1.42598e-11
3.82317e-08
1.3764e-11
3.82281e-08
1.32785e-11
3.82247e-08
1.28041e-11
3.82214e-08
1.23412e-11
3.82183e-08
1.18904e-11
3.82153e-08
1.14521e-11
3.82124e-08
1.10264e-11
3.82096e-08
1.06136e-11
3.82069e-08
1.02139e-11
3.82043e-08
9.82736e-12
3.82018e-08
9.45408e-12
3.81995e-08
9.09416e-12
3.81972e-08
8.7477e-12
3.8195e-08
8.41481e-12
3.81929e-08
8.09564e-12
3.81909e-08
7.79041e-12
3.8189e-08
7.49947e-12
3.81871e-08
7.22335e-12
3.81853e-08
6.96287e-12
3.81836e-08
6.71935e-12
3.8182e-08
6.49491e-12
3.81804e-08
6.29307e-12
3.81789e-08
6.11991e-12
3.81775e-08
5.98598e-12
3.81761e-08
5.90935e-12
3.81748e-08
5.91453e-12
5.98844e-12
3.86113e-08
2.26744e-09
-3.85051e-08
3.87488e-08
2.51621e-09
3.89007e-08
2.70795e-09
3.90564e-08
2.84238e-09
3.92097e-08
2.92625e-09
3.93561e-08
2.96527e-09
3.94918e-08
2.96411e-09
3.96139e-08
2.92812e-09
3.97209e-08
2.86351e-09
3.98119e-08
2.77668e-09
3.98873e-08
2.67366e-09
3.99479e-08
2.55989e-09
3.9995e-08
2.4399e-09
4.00303e-08
2.31725e-09
4.00555e-08
2.19441e-09
4.00723e-08
2.07286e-09
4.00823e-08
1.95322e-09
4.00867e-08
1.8354e-09
4.00865e-08
1.71881e-09
4.00825e-08
1.60256e-09
4.00751e-08
1.48555e-09
4.00645e-08
1.36673e-09
4.00507e-08
1.2452e-09
4.00332e-08
1.12051e-09
4.00118e-08
9.92815e-10
3.99859e-08
8.63147e-10
3.99552e-08
7.33436e-10
3.99198e-08
6.06446e-10
3.98802e-08
4.85474e-10
3.98372e-08
3.73905e-10
3.97923e-08
2.74623e-10
3.97469e-08
1.8941e-10
3.97023e-08
1.18655e-10
3.96593e-08
6.16407e-11
3.96185e-08
1.70698e-11
3.95807e-08
-1.65305e-11
3.95459e-08
-4.06913e-11
3.95145e-08
-5.69717e-11
3.94862e-08
-6.68045e-11
3.94609e-08
-7.14491e-11
3.94384e-08
-7.19903e-11
3.94185e-08
-6.93527e-11
3.94008e-08
-6.43244e-11
3.93851e-08
-5.75785e-11
3.93711e-08
-4.96915e-11
3.93586e-08
-4.1156e-11
3.93474e-08
-3.23884e-11
3.93372e-08
-2.37334e-11
3.93278e-08
-1.54664e-11
3.93191e-08
-7.79607e-12
3.93109e-08
-8.61961e-13
3.9303e-08
5.25439e-12
3.92955e-08
1.05097e-11
3.92883e-08
1.48887e-11
3.92812e-08
1.84016e-11
3.92744e-08
2.10935e-11
3.92677e-08
2.3042e-11
3.92612e-08
2.43456e-11
3.92548e-08
2.51137e-11
3.92486e-08
2.54555e-11
3.92425e-08
2.54712e-11
3.92366e-08
2.52462e-11
3.92309e-08
2.48496e-11
3.92253e-08
2.43347e-11
3.92198e-08
2.37413e-11
3.92146e-08
2.30981e-11
3.92095e-08
2.24257e-11
3.92046e-08
2.17382e-11
3.91999e-08
2.10456e-11
3.91953e-08
2.03547e-11
3.91909e-08
1.96701e-11
3.91867e-08
1.89952e-11
3.91826e-08
1.83322e-11
3.91787e-08
1.76827e-11
3.91749e-08
1.70479e-11
3.91713e-08
1.64286e-11
3.91678e-08
1.58254e-11
3.91645e-08
1.52388e-11
3.91613e-08
1.4669e-11
3.91582e-08
1.41163e-11
3.91552e-08
1.35808e-11
3.91524e-08
1.30626e-11
3.91496e-08
1.25618e-11
3.9147e-08
1.20783e-11
3.91445e-08
1.16123e-11
3.91421e-08
1.11636e-11
3.91398e-08
1.07324e-11
3.91375e-08
1.03187e-11
3.91354e-08
9.9228e-12
3.91334e-08
9.54486e-12
3.91314e-08
9.1854e-12
3.91295e-08
8.84521e-12
3.91277e-08
8.52556e-12
3.9126e-08
8.22849e-12
3.91243e-08
7.95734e-12
3.91227e-08
7.71764e-12
3.91212e-08
7.51836e-12
3.91197e-08
7.37287e-12
3.91183e-08
7.29391e-12
7.25141e-12
3.93746e-08
2.17291e-09
-3.92801e-08
3.94967e-08
2.39414e-09
3.96338e-08
2.57089e-09
3.97764e-08
2.69979e-09
3.99185e-08
2.78409e-09
4.00559e-08
2.82791e-09
4.01849e-08
2.83513e-09
4.03028e-08
2.81018e-09
4.0408e-08
2.75828e-09
4.04998e-08
2.6849e-09
4.05781e-08
2.59534e-09
4.06436e-08
2.49439e-09
4.06974e-08
2.38616e-09
4.07407e-08
2.27393e-09
4.0775e-08
2.16007e-09
4.08018e-08
2.0461e-09
4.08222e-08
1.93277e-09
4.08374e-08
1.82022e-09
4.08481e-08
1.7081e-09
4.08549e-08
1.59577e-09
4.08581e-08
1.48241e-09
4.08576e-08
1.36723e-09
4.08532e-08
1.24958e-09
4.08445e-08
1.12918e-09
4.0831e-08
1.00632e-09
4.08122e-08
8.81983e-10
4.07877e-08
7.57923e-10
4.07576e-08
6.36571e-10
4.07223e-08
5.20791e-10
4.06827e-08
4.13499e-10
4.06401e-08
3.17189e-10
4.0596e-08
2.33484e-10
4.05518e-08
1.62897e-10
4.05084e-08
1.05005e-10
4.04667e-08
5.88207e-11
4.04271e-08
2.30684e-11
4.039e-08
-3.62595e-12
4.03557e-08
-2.26257e-11
4.03241e-08
-3.52175e-11
4.02952e-08
-4.25646e-11
4.02689e-08
-4.56899e-11
4.0245e-08
-4.54807e-11
4.02234e-08
-4.2704e-11
4.02038e-08
-3.80225e-11
4.01861e-08
-3.20088e-11
4.01701e-08
-2.51559e-11
4.01556e-08
-1.78836e-11
4.01425e-08
-1.05427e-11
4.01304e-08
-3.41633e-12
4.01193e-08
3.27863e-12
4.01091e-08
9.38445e-12
4.00995e-08
1.47942e-11
4.00906e-08
1.94451e-11
4.00822e-08
2.33089e-11
4.00742e-08
2.63873e-11
4.00666e-08
2.87148e-11
4.00593e-08
3.03562e-11
4.00522e-08
3.1397e-11
4.00454e-08
3.19341e-11
4.00388e-08
3.20655e-11
4.00324e-08
3.18827e-11
4.00262e-08
3.14654e-11
4.00201e-08
3.0879e-11
4.00143e-08
3.01753e-11
4.00086e-08
2.93936e-11
4.00032e-08
2.85629e-11
3.99979e-08
2.77043e-11
3.99928e-08
2.68328e-11
3.99879e-08
2.5959e-11
3.99831e-08
2.50904e-11
3.99786e-08
2.4232e-11
3.99742e-08
2.33875e-11
3.997e-08
2.25594e-11
3.99659e-08
2.17495e-11
3.9962e-08
2.0959e-11
3.99582e-08
2.01888e-11
3.99546e-08
1.94395e-11
3.99511e-08
1.87115e-11
3.99478e-08
1.8005e-11
3.99446e-08
1.73201e-11
3.99415e-08
1.6657e-11
3.99386e-08
1.60157e-11
3.99357e-08
1.53961e-11
3.9933e-08
1.47981e-11
3.99304e-08
1.42217e-11
3.99279e-08
1.36669e-11
3.99255e-08
1.31336e-11
3.99232e-08
1.26218e-11
3.9921e-08
1.21316e-11
3.99189e-08
1.16633e-11
3.99168e-08
1.12172e-11
3.99149e-08
1.07941e-11
3.9913e-08
1.03951e-11
3.99112e-08
1.00222e-11
3.99095e-08
9.67847e-12
3.99079e-08
9.36869e-12
3.99063e-08
9.10015e-12
3.99048e-08
8.88205e-12
3.99033e-08
8.71866e-12
8.57223e-12
4.01458e-08
2.08754e-09
-4.00604e-08
4.02551e-08
2.2848e-09
4.03791e-08
2.4469e-09
4.05097e-08
2.56919e-09
4.06412e-08
2.65253e-09
4.07696e-08
2.69959e-09
4.08913e-08
2.71342e-09
4.10038e-08
2.69766e-09
4.11055e-08
2.65662e-09
4.11954e-08
2.59496e-09
4.12735e-08
2.51728e-09
4.13401e-08
2.4278e-09
4.1396e-08
2.33022e-09
4.14424e-08
2.22754e-09
4.14804e-08
2.12203e-09
4.15113e-08
2.01522e-09
4.15361e-08
1.90796e-09
4.15558e-08
1.80057e-09
4.15709e-08
1.69292e-09
4.15821e-08
1.58461e-09
4.15894e-08
1.47507e-09
4.15929e-08
1.36373e-09
4.15923e-08
1.25018e-09
4.15872e-08
1.1343e-09
4.15771e-08
1.01645e-09
4.15615e-08
8.97587e-10
4.15401e-08
7.79276e-10
4.1513e-08
6.63649e-10
4.14807e-08
5.53177e-10
4.14438e-08
4.50364e-10
4.14036e-08
3.57368e-10
4.13615e-08
2.75647e-10
4.13186e-08
2.05776e-10
4.1276e-08
1.47542e-10
4.12347e-08
1.00202e-10
4.1195e-08
6.27169e-11
4.11575e-08
3.39057e-11
4.11223e-08
1.25571e-11
4.10896e-08
-2.49137e-12
4.10593e-08
-1.23055e-11
4.10315e-08
-1.78425e-11
4.10059e-08
-1.99472e-11
4.09826e-08
-1.93601e-11
4.09613e-08
-1.67273e-11
4.09419e-08
-1.26118e-11
4.09242e-08
-7.50043e-12
4.09082e-08
-1.81018e-12
4.08935e-08
4.10941e-12
4.08801e-08
9.97211e-12
4.08678e-08
1.55523e-11
4.08565e-08
2.06815e-11
4.08461e-08
2.5242e-11
4.08364e-08
2.91591e-11
4.08273e-08
3.23942e-11
4.08187e-08
3.49392e-11
4.08106e-08
3.68172e-11
4.08029e-08
3.80796e-11
4.07955e-08
3.87978e-11
4.07884e-08
3.90547e-11
4.07815e-08
3.8936e-11
4.07749e-08
3.85234e-11
4.07685e-08
3.7889e-11
4.07623e-08
3.70935e-11
4.07562e-08
3.61858e-11
4.07504e-08
3.52035e-11
4.07448e-08
3.41753e-11
4.07394e-08
3.31222e-11
4.07342e-08
3.20595e-11
4.07291e-08
3.09982e-11
4.07243e-08
2.99461e-11
4.07196e-08
2.89086e-11
4.07151e-08
2.78895e-11
4.07108e-08
2.68917e-11
4.07066e-08
2.59169e-11
4.07026e-08
2.49665e-11
4.06987e-08
2.40414e-11
4.0695e-08
2.3142e-11
4.06915e-08
2.22689e-11
4.06881e-08
2.1422e-11
4.06848e-08
2.06016e-11
4.06816e-08
1.98076e-11
4.06786e-08
1.904e-11
4.06757e-08
1.82986e-11
4.06729e-08
1.75832e-11
4.06702e-08
1.68938e-11
4.06677e-08
1.62301e-11
4.06652e-08
1.55921e-11
4.06629e-08
1.49797e-11
4.06606e-08
1.43928e-11
4.06584e-08
1.38318e-11
4.06564e-08
1.32968e-11
4.06544e-08
1.27886e-11
4.06525e-08
1.23081e-11
4.06506e-08
1.18573e-11
4.06489e-08
1.14386e-11
4.06472e-08
1.10563e-11
4.06456e-08
1.0716e-11
4.0644e-08
1.04234e-11
4.06426e-08
1.01771e-11
9.93837e-12
4.09253e-08
2.00956e-09
-4.08474e-08
4.10241e-08
2.18604e-09
4.11367e-08
2.33433e-09
4.12564e-08
2.44947e-09
4.13781e-08
2.53083e-09
4.14978e-08
2.57987e-09
4.16124e-08
2.59886e-09
4.17193e-08
2.59072e-09
4.18169e-08
2.55901e-09
4.19042e-08
2.50763e-09
4.1981e-08
2.44054e-09
4.20473e-08
2.36145e-09
4.21039e-08
2.27365e-09
4.21515e-08
2.17989e-09
4.21913e-08
2.0823e-09
4.22241e-08
1.98239e-09
4.2251e-08
1.8811e-09
4.22726e-08
1.77888e-09
4.22898e-08
1.67579e-09
4.23028e-08
1.57162e-09
4.23118e-08
1.46604e-09
4.23168e-08
1.3587e-09
4.23177e-08
1.24935e-09
4.23139e-08
1.13802e-09
4.23052e-08
1.02514e-09
4.22912e-08
9.11613e-10
4.22716e-08
7.98853e-10
4.22466e-08
6.88725e-10
4.22164e-08
5.83363e-10
4.21818e-08
4.84921e-10
4.21439e-08
3.95268e-10
4.21039e-08
3.15712e-10
4.20628e-08
2.46855e-10
4.20217e-08
1.88632e-10
4.19814e-08
1.40503e-10
4.19425e-08
1.01627e-10
4.19054e-08
7.1007e-11
4.18703e-08
4.75859e-11
4.18375e-08
3.03228e-11
4.1807e-08
1.82412e-11
4.17787e-08
1.04498e-11
4.17526e-08
6.14941e-12
4.17286e-08
4.63109e-12
4.17066e-08
5.2696e-12
4.16865e-08
7.51666e-12
4.16681e-08
1.0895e-11
4.16513e-08
1.49938e-11
4.16359e-08
1.94659e-11
4.16219e-08
2.40248e-11
4.1609e-08
2.84421e-11
4.15971e-08
3.25432e-11
4.15862e-08
3.62023e-11
4.1576e-08
3.93354e-11
4.15665e-08
4.18941e-11
4.15576e-08
4.38608e-11
4.15491e-08
4.52476e-11
4.15411e-08
4.60927e-11
4.15335e-08
4.64538e-11
4.15261e-08
4.64003e-11
4.1519e-08
4.60058e-11
4.15122e-08
4.53417e-11
4.15056e-08
4.44726e-11
4.14993e-08
4.34537e-11
4.14931e-08
4.23303e-11
4.14872e-08
4.1138e-11
4.14815e-08
3.99045e-11
4.14759e-08
3.86503e-11
4.14706e-08
3.73907e-11
4.14655e-08
3.61369e-11
4.14605e-08
3.48967e-11
4.14558e-08
3.36758e-11
4.14512e-08
3.24784e-11
4.14468e-08
3.13072e-11
4.14425e-08
3.01641e-11
4.14384e-08
2.90505e-11
4.14345e-08
2.79672e-11
4.14307e-08
2.69148e-11
4.14271e-08
2.58936e-11
4.14236e-08
2.49037e-11
4.14203e-08
2.3945e-11
4.14171e-08
2.30176e-11
4.1414e-08
2.21212e-11
4.1411e-08
2.12556e-11
4.14082e-08
2.04205e-11
4.14055e-08
1.96158e-11
4.14029e-08
1.88412e-11
4.14004e-08
1.80965e-11
4.1398e-08
1.73814e-11
4.13957e-08
1.66961e-11
4.13934e-08
1.60405e-11
4.13913e-08
1.54148e-11
4.13893e-08
1.48197e-11
4.13873e-08
1.42561e-11
4.13855e-08
1.37254e-11
4.13837e-08
1.32301e-11
4.1382e-08
1.27734e-11
4.13803e-08
1.23595e-11
4.13788e-08
1.19913e-11
4.13773e-08
1.16643e-11
1.13421e-11
4.1714e-08
1.93771e-09
-4.16422e-08
4.18039e-08
2.09618e-09
4.19065e-08
2.23171e-09
4.20164e-08
2.33955e-09
4.2129e-08
2.41821e-09
4.22407e-08
2.46821e-09
4.23484e-08
2.49115e-09
4.24498e-08
2.48931e-09
4.25433e-08
2.46558e-09
4.26277e-08
2.42321e-09
4.27026e-08
2.36557e-09
4.27682e-08
2.2959e-09
4.28247e-08
2.21712e-09
4.28729e-08
2.13171e-09
4.29135e-08
2.04166e-09
4.29475e-08
1.94845e-09
4.29755e-08
1.85305e-09
4.29984e-08
1.75603e-09
4.30166e-08
1.65758e-09
4.30305e-08
1.5577e-09
4.30403e-08
1.45622e-09
4.30461e-08
1.35297e-09
4.30475e-08
1.24788e-09
4.30445e-08
1.14108e-09
4.30366e-08
1.03306e-09
4.30235e-08
9.24662e-10
4.30052e-08
8.17178e-10
4.29817e-08
7.12242e-10
4.29533e-08
6.11705e-10
4.29208e-08
5.17426e-10
4.28851e-08
4.31031e-10
4.28471e-08
3.53695e-10
4.28079e-08
2.86021e-10
4.27685e-08
2.28057e-10
4.27296e-08
1.7942e-10
4.26917e-08
1.39442e-10
4.26555e-08
1.07287e-10
4.2621e-08
8.20394e-11
4.25886e-08
6.27755e-11
4.25582e-08
4.86079e-11
4.25299e-08
3.87123e-11
4.25037e-08
3.23377e-11
4.24796e-08
2.88095e-11
4.24573e-08
2.75269e-11
4.24369e-08
2.7959e-11
4.24181e-08
2.96411e-11
4.24009e-08
3.21709e-11
4.23852e-08
3.52062e-11
4.23708e-08
3.84626e-11
4.23575e-08
4.17104e-11
4.23453e-08
4.4771e-11
4.2334e-08
4.75121e-11
4.23235e-08
4.98417e-11
4.23136e-08
5.17026e-11
4.23044e-08
5.30683e-11
4.22957e-08
5.39401e-11
4.22875e-08
5.4344e-11
4.22796e-08
5.43248e-11
4.22721e-08
5.39393e-11
4.22648e-08
5.32495e-11
4.22579e-08
5.2317e-11
4.22511e-08
5.11988e-11
4.22446e-08
4.99444e-11
4.22384e-08
4.85952e-11
4.22323e-08
4.71846e-11
4.22265e-08
4.57388e-11
4.22209e-08
4.42776e-11
4.22154e-08
4.2816e-11
4.22102e-08
4.1365e-11
4.22052e-08
3.99327e-11
4.22003e-08
3.85248e-11
4.21957e-08
3.71455e-11
4.21912e-08
3.57976e-11
4.21869e-08
3.44831e-11
4.21827e-08
3.32033e-11
4.21787e-08
3.19591e-11
4.21749e-08
3.07509e-11
4.21712e-08
2.95791e-11
4.21677e-08
2.84436e-11
4.21643e-08
2.73444e-11
4.2161e-08
2.62812e-11
4.21579e-08
2.52538e-11
4.21548e-08
2.42619e-11
4.2152e-08
2.33052e-11
4.21492e-08
2.23832e-11
4.21465e-08
2.14957e-11
4.2144e-08
2.06424e-11
4.21416e-08
1.9823e-11
4.21392e-08
1.90374e-11
4.2137e-08
1.82856e-11
4.21348e-08
1.75677e-11
4.21328e-08
1.68841e-11
4.21308e-08
1.62357e-11
4.21289e-08
1.56236e-11
4.21271e-08
1.505e-11
4.21253e-08
1.45173e-11
4.21236e-08
1.40283e-11
4.2122e-08
1.35841e-11
4.21205e-08
1.31781e-11
1.27787e-11
4.25124e-08
1.87103e-09
-4.24457e-08
4.25947e-08
2.01387e-09
4.26887e-08
2.13778e-09
4.27898e-08
2.23844e-09
4.28941e-08
2.31391e-09
4.29982e-08
2.36408e-09
4.30994e-08
2.38996e-09
4.31954e-08
2.39327e-09
4.32847e-08
2.37633e-09
4.33661e-08
2.34183e-09
4.3439e-08
2.29262e-09
4.35034e-08
2.23148e-09
4.35596e-08
2.16099e-09
4.36079e-08
2.08339e-09
4.3649e-08