/*--------------------------------*- C++ -*----------------------------------*\
| =========                 |                                                 |
| \\      /  F ield         | OpenFOAM: The Open Source CFD Toolbox           |
|  \\    /   O peration     | Version:  2.3.0                                 |
|   \\  /    A nd           | Web:      www.OpenFOAM.org                      |
|    \\/     M anipulation  |                                                 |
\*---------------------------------------------------------------------------*/
FoamFile
{
    version     2.0;
    format      ascii;
    class       volScalarField;
    location    "0.7";
    object      p;
}
// * * * * * * * * * * * * * * * * * * * * * * * * * * * * * * * * * * * * * //

dimensions      [0 2 -2 0 0 0 0];

internalField   nonuniform List<scalar> 
3375
(
0.00251409
0.00218246
0.00157545
0.0010128
0.000549744
0.000158516
-0.000172157
-0.00042599
-0.000583912
-0.000650087
-0.000649963
-0.000613944
-0.000565465
-0.000518423
-0.000479126
-0.000448904
-0.00042648
-0.000409717
-0.000396601
-0.000385604
-0.000375712
-0.000366326
-0.000357139
-0.000348024
-0.000338957
-0.000329959
-0.000321064
-0.000312306
-0.000303711
-0.000295297
-0.000287073
-0.000279043
-0.000271205
-0.000263557
-0.000256095
-0.000248815
-0.000241712
-0.000234784
-0.000228026
-0.000221437
-0.000215014
-0.000208755
-0.00020266
-0.000196726
-0.000190954
-0.00018534
-0.000179885
-0.000174585
-0.000169441
-0.00016445
-0.000159609
-0.000154917
-0.000150371
-0.000145969
-0.000141708
-0.000137586
-0.000133599
-0.000129744
-0.000126017
-0.000122415
-0.000118934
-0.000115572
-0.000112321
-0.000109182
-0.000106145
-0.000103212
-0.000100369
-9.76216e-05
-9.49525e-05
-9.23698e-05
-8.98521e-05
-8.74118e-05
-8.50203e-05
-8.26968e-05
-8.04032e-05
-7.81676e-05
-7.59408e-05
-7.37613e-05
-7.15665e-05
-6.94081e-05
-6.72054e-05
-6.50282e-05
-6.27718e-05
-6.05306e-05
-5.81685e-05
-5.58104e-05
-5.32846e-05
-5.07513e-05
-4.79893e-05
-4.52132e-05
-4.21343e-05
-3.90342e-05
-3.55416e-05
-3.20267e-05
-2.80033e-05
-2.39664e-05
-1.92614e-05
-1.45791e-05
-8.99309e-06
-3.58296e-06
0.00208047
0.00190074
0.00146777
0.000980088
0.000544028
0.00017406
-0.000134267
-0.000370991
-0.000524539
-0.00059678
-0.000606618
-0.00058035
-0.000540117
-0.000499491
-0.000464901
-0.000437903
-0.000417579
-0.000402175
-0.000389969
-0.000379628
-0.000370248
-0.000361292
-0.000352482
-0.000343707
-0.000334946
-0.000326223
-0.000317577
-0.000309044
-0.000300652
-0.000292421
-0.000284364
-0.000276484
-0.000268785
-0.000261265
-0.000253921
-0.000246749
-0.000239748
-0.000232913
-0.000226243
-0.000219736
-0.00021339
-0.000207203
-0.000201175
-0.000195305
-0.000189592
-0.000184035
-0.000178632
-0.000173383
-0.000168287
-0.00016334
-0.000158542
-0.000153891
-0.000149383
-0.000145018
-0.000140792
-0.000136703
-0.000132747
-0.000128922
-0.000125224
-0.00012165
-0.000118195
-0.000114858
-0.000111631
-0.000108516
-0.000105501
-0.000102589
-9.97666e-05
-9.70395e-05
-9.4389e-05
-9.18252e-05
-8.93247e-05
-8.6902e-05
-8.45264e-05
-8.22195e-05
-7.99406e-05
-7.77208e-05
-7.55075e-05
-7.33429e-05
-7.11607e-05
-6.90165e-05
-6.68253e-05
-6.46618e-05
-6.24157e-05
-6.0188e-05
-5.7835e-05
-5.54898e-05
-5.29721e-05
-5.04515e-05
-4.7696e-05
-4.49327e-05
-4.18588e-05
-3.87713e-05
-3.52819e-05
-3.17799e-05
-2.77568e-05
-2.37339e-05
-1.90247e-05
-1.43584e-05
-8.76416e-06
-3.38919e-06
0.00177842
0.00166856
0.00136503
0.000959136
0.000560026
0.000214895
-6.78951e-05
-0.000285942
-0.000435798
-0.000518608
-0.000545638
-0.000535886
-0.000508656
-0.00047759
-0.000449378
-0.000426254
-0.000408131
-0.000393969
-0.000382525
-0.000372735
-0.000363828
-0.000355319
-0.000346946
-0.000338596
-0.00033024
-0.000321895
-0.000313595
-0.000305373
-0.000297259
-0.000289277
-0.00028144
-0.000273758
-0.000266235
-0.000258872
-0.00025167
-0.000244628
-0.000237744
-0.000231018
-0.000224446
-0.00021803
-0.000211768
-0.00020566
-0.000199705
-0.000193903
-0.000188253
-0.000182755
-0.000177409
-0.000172212
-0.000167165
-0.000162265
-0.00015751
-0.0001529
-0.000148432
-0.000144104
-0.000139912
-0.000135857
-0.000131932
-0.000128138
-0.000124468
-0.000120922
-0.000117493
-0.000114182
-0.000110978
-0.000107886
-0.000104892
-0.000102002
-9.91994e-05
-9.64924e-05
-9.38601e-05
-9.13149e-05
-8.8831e-05
-8.64261e-05
-8.40656e-05
-8.17757e-05
-7.95106e-05
-7.73071e-05
-7.51065e-05
-7.29575e-05
-7.07869e-05
-6.86581e-05
-6.64773e-05
-6.43291e-05
-6.20922e-05
-5.98798e-05
-5.75349e-05
-5.5205e-05
-5.26943e-05
-5.01896e-05
-4.74392e-05
-4.4693e-05
-4.16224e-05
-3.85529e-05
-3.50649e-05
-3.15826e-05
-2.75584e-05
-2.35579e-05
-1.88446e-05
-1.42023e-05
-8.6223e-06
-3.29808e-06
0.00157001
0.00148363
0.0012603
0.000930671
0.000577867
0.000261156
1.01833e-06
-0.000200501
-0.00034463
-0.000433624
-0.000474658
-0.000480835
-0.0004674
-0.000446656
-0.000425712
-0.000407564
-0.000392816
-0.000380968
-0.000371169
-0.000362612
-0.000354688
-0.000347011
-0.000339372
-0.000331683
-0.000323925
-0.000316118
-0.000308298
-0.000300503
-0.000292768
-0.000285121
-0.000277582
-0.000270165
-0.000262879
-0.00025573
-0.000248722
-0.000241857
-0.000235134
-0.000228555
-0.00022212
-0.00021583
-0.000209685
-0.000203685
-0.000197831
-0.000192122
-0.00018656
-0.000181144
-0.000175874
-0.000170748
-0.000165768
-0.00016093
-0.000156235
-0.00015168
-0.000147264
-0.000142985
-0.00013884
-0.000134829
-0.000130945
-0.000127191
-0.000123558
-0.000120047
-0.000116652
-0.000113372
-0.000110199
-0.000107136
-0.000104169
-0.000101307
-9.85285e-05
-9.58463e-05
-9.32366e-05
-9.07143e-05
-8.82511e-05
-8.58678e-05
-8.35262e-05
-8.12569e-05
-7.90089e-05
-7.6825e-05
-7.46403e-05
-7.25101e-05
-7.03542e-05
-6.82437e-05
-6.60763e-05
-6.39466e-05
-6.17216e-05
-5.95279e-05
-5.71939e-05
-5.48827e-05
-5.23821e-05
-4.98971e-05
-4.71552e-05
-4.44301e-05
-4.1367e-05
-3.83198e-05
-3.48385e-05
-3.13806e-05
-2.73624e-05
-2.3389e-05
-1.86842e-05
-1.40698e-05
-8.53386e-06
-3.26777e-06
0.00140565
0.00132757
0.00115238
0.000886822
0.000584151
0.00029946
6.06525e-05
-0.000126452
-0.000263986
-0.000355311
-0.000405742
-0.000424418
-0.000422881
-0.000411601
-0.000397632
-0.000384529
-0.000373442
-0.000364279
-0.000356485
-0.000349469
-0.000342784
-0.000336146
-0.000329416
-0.00032254
-0.000315519
-0.000308383
-0.00030117
-0.000293923
-0.000286681
-0.000279475
-0.000272333
-0.000265273
-0.000258309
-0.000251451
-0.000244707
-0.000238082
-0.000231579
-0.000225203
-0.000218954
-0.000212835
-0.000206849
-0.000200997
-0.00019528
-0.0001897
-0.000184257
-0.000178953
-0.000173787
-0.00016876
-0.000163872
-0.000159121
-0.000154507
-0.00015003
-0.000145685
-0.000141475
-0.000137394
-0.000133444
-0.000129618
-0.000125918
-0.000122337
-0.000118875
-0.000115526
-0.00011229
-0.000109159
-0.000106136
-0.000103207
-0.000100381
-9.76363e-05
-9.49875e-05
-9.24087e-05
-8.99171e-05
-8.7482e-05
-8.51273e-05
-8.28113e-05
-8.05689e-05
-7.83444e-05
-7.6186e-05
-7.40229e-05
-7.1917e-05
-6.97813e-05
-6.76943e-05
-6.55456e-05
-6.34393e-05
-6.12317e-05
-5.90616e-05
-5.6744e-05
-5.44564e-05
-5.1972e-05
-4.95115e-05
-4.67849e-05
-4.4086e-05
-4.10383e-05
-3.80187e-05
-3.45541e-05
-3.11257e-05
-2.71273e-05
-2.31855e-05
-1.85103e-05
-1.39296e-05
-8.46889e-06
-3.26732e-06
0.00126616
0.00119263
0.001048
0.000832635
0.000578203
0.000327573
0.000110035
-6.40244e-05
-0.000194876
-0.000286043
-0.000342257
-0.00037024
-0.000378549
-0.000375718
-0.000368264
-0.000359992
-0.000352479
-0.000345987
-0.000340223
-0.000334788
-0.000329375
-0.000323804
-0.000318
-0.000311955
-0.000305692
-0.00029925
-0.000292674
-0.000286009
-0.000279298
-0.000272576
-0.000265874
-0.000259214
-0.000252615
-0.000246091
-0.000239653
-0.000233309
-0.000227066
-0.00022093
-0.000214904
-0.000208993
-0.000203199
-0.000197528
-0.000191979
-0.000186557
-0.000181263
-0.000176098
-0.000171064
-0.00016616
-0.000161388
-0.000156747
-0.000152237
-0.000147857
-0.000143605
-0.000139482
-0.000135484
-0.000131612
-0.000127861
-0.000124231
-0.000120716
-0.000117318
-0.000114029
-0.000110851
-0.000107774
-0.000104803
-0.000101923
-9.91442e-05
-9.6444e-05
-9.38386e-05
-9.13001e-05
-8.88482e-05
-8.64499e-05
-8.4132e-05
-8.18496e-05
-7.96418e-05
-7.7448e-05
-7.53221e-05
-7.31876e-05
-7.11125e-05
-6.90037e-05
-6.69465e-05
-6.4823e-05
-6.27462e-05
-6.05625e-05
-5.84218e-05
-5.61278e-05
-5.38694e-05
-5.14089e-05
-4.89787e-05
-4.62763e-05
-4.36094e-05
-4.05881e-05
-3.76015e-05
-3.41681e-05
-3.07741e-05
-2.6815e-05
-2.29099e-05
-1.82916e-05
-1.37534e-05
-8.39891e-06
-3.26907e-06
0.0011445
0.00107516
0.00095218
0.000775339
0.000563195
0.000346114
0.000150293
-1.10036e-05
-0.00013524
-0.000224977
-0.0002845
-0.000319167
-0.000335417
-0.000339988
-0.000338552
-0.000334858
-0.000330769
-0.000326866
-0.000323102
-0.000319253
-0.000315133
-0.00031065
-0.000305791
-0.000300586
-0.000295083
-0.000289338
-0.000283401
-0.000277321
-0.000271144
-0.00026491
-0.000258653
-0.000252399
-0.000246173
-0.000239991
-0.000233867
-0.000227814
-0.000221841
-0.000215955
-0.000210163
-0.000204471
-0.000198884
-0.000193406
-0.000188039
-0.000182789
-0.000177657
-0.000172646
-0.000167757
-0.000162991
-0.00015835
-0.000153833
-0.00014944
-0.000145172
-0.000141026
-0.000137004
-0.000133102
-0.000129321
-0.000125657
-0.00012211
-0.000118674
-0.000115351
-0.000112133
-0.000109024
-0.000106011
-0.000103103
-0.000100281
-9.75594e-05
-9.49126e-05
-9.23595e-05
-8.98696e-05
-8.74657e-05
-8.51119e-05
-8.28385e-05
-8.05969e-05
-7.84309e-05
-7.62747e-05
-7.4188e-05
-7.20887e-05
-7.00507e-05
-6.79752e-05
-6.59538e-05
-6.38622e-05
-6.18206e-05
-5.96677e-05
-5.75618e-05
-5.52992e-05
-5.30754e-05
-5.06476e-05
-4.82527e-05
-4.55857e-05
-4.29553e-05
-3.9974e-05
-3.70252e-05
-3.36405e-05
-3.02856e-05
-2.63886e-05
-2.25266e-05
-1.7995e-05
-1.35106e-05
-8.29134e-06
-3.23889e-06
0.00103737
0.000972545
0.000866399
0.000719177
0.000542169
0.000356031
0.000181949
3.37407e-05
-8.36681e-05
-0.000171212
-0.000232398
-0.00027169
-0.000294123
-0.000304962
-0.000308934
-0.000309498
-0.000308647
-0.000307222
-0.000305406
-0.000303135
-0.000300328
-0.000296962
-0.000293072
-0.000288727
-0.000283998
-0.000278955
-0.000273659
-0.000268166
-0.000262524
-0.000256778
-0.000250965
-0.000245118
-0.000239263
-0.000233423
-0.000227614
-0.000221853
-0.00021615
-0.000210516
-0.00020496
-0.000199489
-0.000194109
-0.000188827
-0.000183645
-0.00017857
-0.000173604
-0.00016875
-0.00016401
-0.000159386
-0.00015488
-0.000150492
-0.000146222
-0.000142071
-0.000138037
-0.000134122
-0.000130321
-0.000126639
-0.000123066
-0.000119609
-0.000116258
-0.000113017
-0.000109876
-0.000106841
-0.000103899
-0.000101059
-9.83018e-05
-9.56438e-05
-9.30558e-05
-9.0561e-05
-8.8125e-05
-8.5775e-05
-8.34707e-05
-8.12474e-05
-7.90516e-05
-7.69324e-05
-7.48188e-05
-7.27763e-05
-7.07171e-05
-6.87209e-05
-6.66839e-05
-6.47025e-05
-6.26484e-05
-6.06461e-05
-5.85306e-05
-5.64631e-05
-5.42397e-05
-5.20539e-05
-4.96679e-05
-4.73118e-05
-4.46916e-05
-4.21009e-05
-3.91738e-05
-3.62663e-05
-3.29482e-05
-2.96371e-05
-2.58248e-05
-2.20142e-05
-1.75971e-05
-1.318e-05
-8.12033e-06
-3.15108e-06
0.000942597
0.000882517
0.000790123
0.000665951
0.00051742
0.000358511
0.000205365
7.0615e-05
-3.94727e-05
-0.000124157
-0.000185834
-0.000228161
-0.000255209
-0.000271137
-0.000279791
-0.00028421
-0.000286368
-0.000287285
-0.000287339
-0.000286614
-0.000285117
-0.000282881
-0.00027998
-0.000276509
-0.000272562
-0.000268226
-0.000263573
-0.000258667
-0.00025356
-0.000248303
-0.000242937
-0.000237498
-0.000232017
-0.000226521
-0.000221029
-0.000215561
-0.000210131
-0.000204751
-0.000199432
-0.000194184
-0.000189013
-0.000183928
-0.000178933
-0.000174034
-0.000169235
-0.00016454
-0.000159951
-0.000155471
-0.000151101
-0.000146844
-0.000142698
-0.000138667
-0.000134746
-0.00013094
-0.000127243
-0.00012366
-0.000120183
-0.000116817
-0.000113553
-0.000110396
-0.000107334
-0.000104378
-0.000101508
-9.87402e-05
-9.60491e-05
-9.34571e-05
-9.09303e-05
-8.84966e-05
-8.6117e-05
-8.38236e-05
-8.15713e-05
-7.94005e-05
-7.72532e-05
-7.51832e-05
-7.3115e-05
-7.11189e-05
-6.91032e-05
-6.71507e-05
-6.5156e-05
-6.32165e-05
-6.12043e-05
-5.92428e-05
-5.71701e-05
-5.51423e-05
-5.29649e-05
-5.08185e-05
-4.84821e-05
-4.61664e-05
-4.36031e-05
-4.10539e-05
-3.81935e-05
-3.53306e-05
-3.20942e-05
-2.88322e-05
-2.51231e-05
-2.13744e-05
-1.70937e-05
-1.27594e-05
-7.87752e-06
-3.0032e-06
0.00085833
0.000803003
0.000722085
0.000616215
0.000490639
0.000355006
0.000221258
0.000100013
-2.18336e-06
-8.33045e-05
-0.000144537
-0.000188666
-0.000218998
-0.000238883
-0.000251432
-0.000259236
-0.000264138
-0.000267238
-0.000269064
-0.000269826
-0.000269611
-0.000268497
-0.000266584
-0.00026399
-0.000260827
-0.000257199
-0.000253188
-0.000248868
-0.000244297
-0.00023953
-0.000234612
-0.000229584
-0.000224481
-0.000219333
-0.000214162
-0.000208992
-0.000203838
-0.000198717
-0.000193639
-0.000188617
-0.000183659
-0.000178775
-0.000173969
-0.000169251
-0.000164621
-0.000160088
-0.000155652
-0.000151319
-0.000147087
-0.000142964
-0.000138944
-0.000135035
-0.000131229
-0.000127535
-0.000123942
-0.000120462
-0.00011708
-0.000113809
-0.000110632
-0.000107562
-0.000104581
-0.000101704
-9.89074e-05
-9.62128e-05
-9.35897e-05
-9.10649e-05
-8.86007e-05
-8.62291e-05
-8.39073e-05
-8.16717e-05
-7.94728e-05
-7.73553e-05
-7.52584e-05
-7.3238e-05
-7.12173e-05
-6.92678e-05
-6.72981e-05
-6.53895e-05
-6.34399e-05
-6.15422e-05
-5.95755e-05
-5.76547e-05
-5.56291e-05
-5.36407e-05
-5.15147e-05
-4.94079e-05
-4.71271e-05
-4.48527e-05
-4.23541e-05
-3.98477e-05
-3.70631e-05
-3.42487e-05
-3.11047e-05
-2.78987e-05
-2.43051e-05
-2.06302e-05
-1.65003e-05
-1.22654e-05
-7.57367e-06
-2.81558e-06
0.000782953
0.000732225
0.00066101
0.000569979
0.000463024
0.000347006
0.000230685
0.000122544
2.86653e-05
-4.81943e-05
-0.000108155
-0.000153096
-0.000185621
-0.000208449
-0.000224117
-0.000234794
-0.000242135
-0.000247237
-0.000250718
-0.000252887
-0.0002539
-0.000253876
-0.000252934
-0.000251207
-0.000248822
-0.000245896
-0.000242522
-0.000238785
-0.000234748
-0.000230471
-0.000226003
-0.00022139
-0.000216667
-0.000211871
-0.000207026
-0.000202159
-0.000197287
-0.000192429
-0.000187597
-0.000182808
-0.000178067
-0.000173389
-0.000168777
-0.000164243
-0.000159787
-0.00015542
-0.000151142
-0.000146959
-0.000142871
-0.000138884
-0.000134994
-0.00013121
-0.000127522
-0.000123942
-0.000120458
-0.000117083
-0.0001138
-0.000110625
-0.000107538
-0.000104557
-0.000101659
-9.88627e-05
-9.61429e-05
-9.35228e-05
-9.097e-05
-8.85135e-05
-8.6114e-05
-8.38055e-05
-8.15435e-05
-7.93663e-05
-7.72232e-05
-7.51594e-05
-7.31149e-05
-7.11443e-05
-6.91736e-05
-6.72705e-05
-6.53493e-05
-6.34845e-05
-6.15828e-05
-5.97266e-05
-5.78085e-05
-5.59282e-05
-5.39532e-05
-5.20042e-05
-4.99337e-05
-4.78671e-05
-4.56463e-05
-4.34146e-05
-4.09859e-05
-3.8525e-05
-3.5822e-05
-3.30613e-05
-3.00158e-05
-2.68744e-05
-2.3403e-05
-1.98146e-05
-1.58431e-05
-1.17252e-05
-7.23095e-06
-2.61709e-06
0.000715098
0.000668731
0.00060582
0.000527039
0.00043536
0.000335802
0.000234817
0.00013899
5.3582e-05
-1.84226e-05
-7.63646e-05
-0.000121286
-0.00015511
-0.000180012
-0.000198071
-0.000211101
-0.000220546
-0.00022744
-0.000232436
-0.000235911
-0.000238079
-0.000239091
-0.000239084
-0.000238201
-0.000236578
-0.000234341
-0.000231596
-0.000228434
-0.000224926
-0.000221137
-0.000217118
-0.00021292
-0.000208582
-0.000204141
-0.000199626
-0.000195065
-0.000190479
-0.00018589
-0.00018131
-0.000176757
-0.000172239
-0.000167772
-0.000163359
-0.000159014
-0.000154738
-0.000150543
-0.000146426
-0.000142399
-0.000138458
-0.000134613
-0.000130857
-0.000127202
-0.000123637
-0.000120176
-0.000116804
-0.000113537
-0.000110357
-0.000107281
-0.000104289
-0.000101399
-9.85875e-05
-9.58753e-05
-9.32353e-05
-9.0692e-05
-8.82127e-05
-8.58264e-05
-8.34949e-05
-8.1251e-05
-7.9052e-05
-7.69344e-05
-7.48502e-05
-7.2841e-05
-7.08522e-05
-6.89319e-05
-6.70144e-05
-6.51583e-05
-6.32886e-05
-6.14682e-05
-5.96175e-05
-5.78035e-05
-5.59373e-05
-5.40981e-05
-5.2177e-05
-5.02686e-05
-4.82567e-05
-4.62326e-05
-4.40748e-05
-4.18891e-05
-3.95335e-05
-3.71226e-05
-3.45043e-05
-3.18044e-05
-2.88605e-05
-2.57938e-05
-2.24477e-05
-1.89584e-05
-1.51479e-05
-1.11642e-05
-6.87169e-06
-2.42986e-06
0.000653636
0.000611366
0.00055564
0.000487121
0.000408123
0.000322399
0.000234741
0.0001502
7.31239e-05
6.38375e-06
-4.88961e-05
-9.30758e-05
-0.000127447
-0.000153688
-0.000173489
-0.000188364
-0.000199556
-0.000208003
-0.000214353
-0.000219015
-0.000222244
-0.000224221
-0.000225096
-0.000225019
-0.000224131
-0.000222566
-0.000220434
-0.000217836
-0.000214848
-0.00021154
-0.000207968
-0.000204183
-0.000200228
-0.000196144
-0.000191961
-0.00018771
-0.000183415
-0.000179097
-0.000174773
-0.000170461
-0.000166172
-0.000161921
-0.000157713
-0.000153562
-0.000149471
-0.000145451
-0.000141502
-0.000137635
-0.000133847
-0.000130148
-0.000126532
-0.000123011
-0.000119574
-0.000116235
-0.000112981
-0.000109826
-0.000106754
-0.000103781
-0.000100888
-9.80921e-05
-9.53721e-05
-9.27467e-05
-9.01908e-05
-8.7727e-05
-8.53255e-05
-8.30119e-05
-8.07523e-05
-7.85752e-05
-7.64431e-05
-7.43871e-05
-7.23654e-05
-7.04128e-05
-6.84834e-05
-6.66151e-05
-6.47541e-05
-6.2947e-05
-6.11321e-05
-5.93578e-05
-5.75613e-05
-5.57916e-05
-5.39802e-05
-5.21846e-05
-5.03202e-05
-4.84556e-05
-4.65049e-05
-4.4527e-05
-4.24346e-05
-4.02998e-05
-3.80197e-05
-3.56649e-05
-3.31332e-05
-3.05026e-05
-2.76617e-05
-2.46804e-05
-2.14612e-05
-1.80834e-05
-1.44342e-05
-1.06002e-05
-6.51123e-06
-2.263e-06
0.000597643
0.0005592
0.000509751
0.000449932
0.000381573
0.000307523
0.000231378
0.000156997
8.78832e-05
2.66064e-05
-2.5504e-05
-6.83201e-05
-0.000102593
-0.000129545
-0.000150516
-0.00016676
-0.000179336
-0.000189079
-0.000196597
-0.000202308
-0.000206491
-0.000209347
-0.000211038
-0.000211717
-0.000211527
-0.000210603
-0.000209064
-0.000207013
-0.000204532
-0.000201695
-0.000198561
-0.000195185
-0.000191611
-0.000187883
-0.000184032
-0.000180093
-0.00017609
-0.000172048
-0.000167983
-0.000163917
-0.00015986
-0.000155829
-0.000151831
-0.00014788
-0.000143978
-0.00014014
-0.000136364
-0.000132663
-0.000129032
-0.000125485
-0.000122014
-0.000118631
-0.000115327
-0.000112116
-0.000108984
-0.000105946
-0.000102987
-0.000100121
-9.73319e-05
-9.46343e-05
-9.20102e-05
-8.94753e-05
-8.70079e-05
-8.46271e-05
-8.23077e-05
-8.00701e-05
-7.78866e-05
-7.57795e-05
-7.37182e-05
-7.17268e-05
-6.97713e-05
-6.78782e-05
-6.60117e-05
-6.41984e-05
-6.23972e-05
-6.0642e-05
-5.88851e-05
-5.71604e-05
-5.54207e-05
-5.36988e-05
-5.19452e-05
-5.01969e-05
-4.83916e-05
-4.65754e-05
-4.46881e-05
-4.27617e-05
-4.07368e-05
-3.86591e-05
-3.64561e-05
-3.41651e-05
-3.17216e-05
-2.91693e-05
-2.64327e-05
-2.35473e-05
-2.04564e-05
-1.72015e-05
-1.37135e-05
-1.00419e-05
-6.15679e-06
-2.11554e-06
0.000546357
0.000511476
0.000467552
0.000415181
0.000355827
0.000291681
0.000225465
0.000160131
9.84593e-05
4.26539e-05
-5.93443e-06
-4.6873e-05
-8.04917e-05
-0.00010761
-0.000129248
-0.000146425
-0.000160033
-0.000170802
-0.000179289
-0.000185897
-0.000190913
-0.00019455
-0.000196978
-0.00019835
-0.00019881
-0.000198492
-0.000197517
-0.000195989
-0.000193997
-0.000191617
-0.000188911
-0.000185935
-0.000182737
-0.00017936
-0.000175841
-0.000172213
-0.000168504
-0.000164739
-0.000160937
-0.000157119
-0.000153298
-0.000149492
-0.000145708
-0.000141961
-0.000138254
-0.000134602
-0.000131005
-0.000127473
-0.000124007
-0.000120615
-0.000117295
-0.000114055
-0.00011089
-0.000107811
-0.000104807
-0.00010189
-9.9049e-05
-9.62948e-05
-9.3615e-05
-9.10203e-05
-8.84967e-05
-8.60566e-05
-8.36823e-05
-8.13886e-05
-7.91554e-05
-7.69979e-05
-7.48945e-05
-7.28611e-05
-7.08744e-05
-6.89514e-05
-6.70659e-05
-6.5236e-05
-6.34356e-05
-6.16814e-05
-5.99432e-05
-5.82438e-05
-5.65477e-05
-5.48767e-05
-5.31968e-05
-5.1527e-05
-4.98337e-05
-4.81377e-05
-4.63939e-05
-4.46315e-05
-4.28098e-05
-4.09408e-05
-3.89858e-05
-3.6972e-05
-3.48481e-05
-3.26287e-05
-3.02756e-05
-2.78102e-05
-2.51799e-05
-2.23999e-05
-1.94396e-05
-1.63177e-05
-1.29918e-05
-9.49187e-06
-5.81014e-06
-1.98242e-06
0.000499139
0.000467564
0.000428527
0.000382583
0.000330913
0.000275218
0.000217574
0.000160247
0.000105428
5.49534e-05
1.00897e-05
-2.85732e-05
-6.10653e-05
-8.78755e-05
-0.000109738
-0.000127453
-0.000141761
-0.000153289
-0.000162535
-0.000169877
-0.000175596
-0.000179907
-0.000182983
-0.000184977
-0.000186029
-0.000186272
-0.000185824
-0.000184792
-0.000183266
-0.000181323
-0.00017903
-0.000176443
-0.000173612
-0.000170582
-0.00016739
-0.000164072
-0.000160655
-0.000157168
-0.00015363
-0.000150063
-0.000146482
-0.000142904
-0.000139337
-0.000135798
-0.000132292
-0.00012883
-0.000125416
-0.00012206
-0.000118763
-0.000115532
-0.000112368
-0.000109277
-0.000106256
-0.000103314
-0.000100443
-9.76528e-05
-9.49346e-05
-9.22971e-05
-8.97311e-05
-8.72441e-05
-8.48258e-05
-8.2485e-05
-8.02083e-05
-7.80062e-05
-7.58635e-05
-7.37905e-05
-7.17713e-05
-6.98161e-05
-6.79078e-05
-6.60573e-05
-6.42452e-05
-6.24831e-05
-6.07521e-05
-5.9061e-05
-5.73893e-05
-5.57501e-05
-5.41177e-05
-5.2505e-05
-5.0888e-05
-4.92751e-05
-4.76448e-05
-4.60063e-05
-4.43268e-05
-4.2624e-05
-4.08703e-05
-3.90647e-05
-3.71826e-05
-3.52396e-05
-3.31973e-05
-3.10569e-05
-2.87975e-05
-2.6427e-05
-2.3906e-05
-2.124e-05
-1.84134e-05
-1.5433e-05
-1.22713e-05
-8.9494e-06
-5.47045e-06
-1.85856e-06
0.000455447
0.00042693
0.000392236
0.000351875
0.000306807
0.000258363
0.000208141
0.000157883
0.00010931
6.39282e-05
2.28634e-05
-1.32399e-05
-4.42199e-05
-7.03123e-05
-9.20074e-05
-0.000109906
-0.000124605
-0.000136635
-0.00014643
-0.000154336
-0.000160619
-0.00016549
-0.000169118
-0.000171654
-0.000173233
-0.000173984
-0.000174021
-0.00017345
-0.000172361
-0.000170834
-0.000168934
-0.000166722
-0.000164246
-0.000161554
-0.000158683
-0.00015567
-0.000152544
-0.000149334
-0.00014606
-0.000142746
-0.000139406
-0.000136059
-0.000132714
-0.000129387
-0.000126085
-0.000122818
-0.000119592
-0.000116417
-0.000113293
-0.000110229
-0.000107226
-0.000104289
-0.000101417
-9.86175e-05
-9.58847e-05
-9.32266e-05
-9.06364e-05
-8.81209e-05
-8.56736e-05
-8.32993e-05
-8.09912e-05
-7.87546e-05
-7.658e-05
-7.44744e-05
-7.24266e-05
-7.04427e-05
-6.85117e-05
-6.66393e-05
-6.48134e-05
-6.304e-05
-6.1305e-05
-5.96152e-05
-5.79572e-05
-5.63339e-05
-5.47318e-05
-5.31578e-05
-5.15924e-05
-5.00426e-05
-4.84914e-05
-4.69409e-05
-4.53767e-05
-4.38006e-05
-4.21885e-05
-4.05515e-05
-3.88688e-05
-3.71322e-05
-3.53268e-05
-3.34612e-05
-3.15037e-05
-2.94493e-05
-2.72878e-05
-2.50195e-05
-2.26119e-05
-2.00672e-05
-1.73787e-05
-1.45467e-05
-1.15519e-05
-8.41252e-06
-5.13605e-06
-1.74032e-06
0.000414825
0.000389128
0.000358303
0.000322818
0.000283459
0.000241272
0.000197495
0.000153475
0.000110561
6.99742e-05
3.2683e-05
-6.80995e-07
-2.98487e-05
-5.48769e-05
-7.60591e-05
-9.38221e-05
-0.000108628
-0.000120913
-0.00013105
-0.000139349
-0.000146053
-0.000151362
-0.00015544
-0.000158432
-0.000160467
-0.000161665
-0.000162139
-0.00016199
-0.000161305
-0.000160166
-0.000158638
-0.000156782
-0.000154648
-0.000152282
-0.000149724
-0.000147011
-0.000144172
-0.000141236
-0.000138226
-0.000135164
-0.000132067
-0.000128953
-0.000125833
-0.000122721
-0.000119626
-0.00011656
-0.000113526
-0.000110536
-0.000107591
-0.000104699
-0.000101861
-9.90841e-05
-9.63666e-05
-9.37149e-05
-9.11255e-05
-8.86047e-05
-8.61477e-05
-8.37596e-05
-8.14359e-05
-7.91797e-05
-7.69865e-05
-7.48594e-05
-7.27915e-05
-7.07874e-05
-6.88389e-05
-6.69492e-05
-6.51106e-05
-6.33259e-05
-6.15864e-05
-5.98949e-05
-5.82408e-05
-5.66281e-05
-5.50468e-05
-5.34962e-05
-5.19672e-05
-5.0463e-05
-4.89684e-05
-4.74864e-05
-4.60042e-05
-4.45211e-05
-4.3027e-05
-4.15182e-05
-3.99771e-05
-3.84115e-05
-3.68038e-05
-3.51417e-05
-3.34173e-05
-3.16353e-05
-2.97669e-05
-2.78051e-05
-2.57463e-05
-2.35867e-05
-2.12974e-05
-1.88809e-05
-1.63351e-05
-1.36574e-05
-1.0833e-05
-7.87917e-06
-4.80528e-06
-1.62524e-06
0.00037689
0.000353789
0.000326423
0.00029522
0.000260825
0.000224063
0.000185899
0.000147383
0.000109574
7.34533e-05
3.98347e-05
9.29873e-06
-1.78398e-05
-4.15214e-05
-6.18919e-05
-7.92319e-05
-9.38831e-05
-0.000106191
-0.000116469
-0.000124987
-0.000131964
-0.000137586
-0.000142006
-0.000145361
-0.000147771
-0.000149352
-0.000150208
-0.000150434
-0.000150117
-0.000149335
-0.000148153
-0.000146633
-0.000144823
-0.000142771
-0.000140516
-0.000138095
-0.000135537
-0.000132873
-0.000130124
-0.000127315
-0.000124461
-0.000121581
-0.000118687
-0.000115794
-0.00011291
-0.000110047
-0.000107211
-0.00010441
-0.000101648
-9.89337e-05
-9.62673e-05
-9.36549e-05
-9.10971e-05
-8.85988e-05
-8.61582e-05
-8.37802e-05
-8.14616e-05
-7.92064e-05
-7.70116e-05
-7.48788e-05
-7.28056e-05
-7.07932e-05
-6.88368e-05
-6.69395e-05
-6.50948e-05
-6.33045e-05
-6.15628e-05
-5.98707e-05
-5.82219e-05
-5.66171e-05
-5.50482e-05
-5.35174e-05
-5.20167e-05
-5.05436e-05
-4.90918e-05
-4.76619e-05
-4.6242e-05
-4.4833e-05
-4.34239e-05
-4.20128e-05
-4.05928e-05
-3.91568e-05
-3.76908e-05
-3.62017e-05
-3.46734e-05
-3.30915e-05
-3.14529e-05
-2.97601e-05
-2.79858e-05
-2.61228e-05
-2.41724e-05
-2.21275e-05
-1.99619e-05
-1.76798e-05
-1.5282e-05
-1.27637e-05
-1.01131e-05
-7.34774e-06
-4.47686e-06
-1.51151e-06
0.000341301
0.000320609
0.000296361
0.000268945
0.000238893
0.000206861
0.000173605
0.000139948
0.000106727
7.47256e-05
4.46183e-05
1.69162e-05
-8.05999e-06
-3.01837e-05
-4.9496e-05
-6.61631e-05
-8.04225e-05
-9.25378e-05
-0.000102764
-0.000111329
-0.00011843
-0.000124233
-0.000128881
-0.000132499
-0.0001352
-0.00013709
-0.000138265
-0.000138815
-0.000138822
-0.000138361
-0.000137496
-0.000136286
-0.000134781
-0.000133026
-0.00013106
-0.000128921
-0.000126638
-0.00012424
-0.00012175
-0.000119191
-0.00011658
-0.000113935
-0.00011127
-0.000108598
-0.000105929
-0.000103273
-0.000100637
-9.80308e-05
-9.54579e-05
-9.29252e-05
-9.04352e-05
-8.7993e-05
-8.56003e-05
-8.32611e-05
-8.09747e-05
-7.87452e-05
-7.65705e-05
-7.44539e-05
-7.23933e-05
-7.03895e-05
-6.84415e-05
-6.65493e-05
-6.47096e-05
-6.29243e-05
-6.11883e-05
-5.95025e-05
-5.78625e-05
-5.62681e-05
-5.47147e-05
-5.32015e-05
-5.17223e-05
-5.02783e-05
-4.88624e-05
-4.74715e-05
-4.61016e-05
-4.4751e-05
-4.34098e-05
-4.20783e-05
-4.0747e-05
-3.9413e-05
-3.80711e-05
-3.67129e-05
-3.53272e-05
-3.39199e-05
-3.24752e-05
-3.09793e-05
-2.94322e-05
-2.78342e-05
-2.61588e-05
-2.44012e-05
-2.25652e-05
-2.06407e-05
-1.86043e-05
-1.64629e-05
-1.42184e-05
-1.18641e-05
-9.39096e-06
-6.81685e-06
-4.15006e-06
-1.3982e-06
0.000301338
0.000283363
0.00026251
0.000239129
0.000213651
0.000186578
0.000158474
0.000129951
0.000101635
7.41249e-05
4.79487e-05
2.35346e-05
1.18544e-06
-1.89306e-05
-3.67718e-05
-5.24019e-05
-6.59579e-05
-7.76183e-05
-8.75734e-05
-9.60068e-05
-0.000103084
-0.000108949
-0.000113731
-0.00011754
-0.000120479
-0.000122642
-0.000124115
-0.000124981
-0.000125315
-0.000125186
-0.000124655
-0.000123779
-0.000122606
-0.00012118
-0.00011954
-0.00011772
-0.000115751
-0.000113661
-0.000111471
-0.000109206
-0.000106882
-0.000104517
-0.000102124
-9.97166e-05
-9.73053e-05
-9.48998e-05
-9.25079e-05
-9.01374e-05
-8.77939e-05
-8.54835e-05
-8.32093e-05
-8.09759e-05
-7.87859e-05
-7.66425e-05
-7.45461e-05
-7.24999e-05
-7.0503e-05
-6.85578e-05
-6.66633e-05
-6.48198e-05
-6.3027e-05
-6.12843e-05
-5.95895e-05
-5.7944e-05
-5.63434e-05
-5.4788e-05
-5.32749e-05
-5.18028e-05
-5.03685e-05
-4.89701e-05
-4.76032e-05
-4.62683e-05
-4.4959e-05
-4.36715e-05
-4.24042e-05
-4.11538e-05
-3.99119e-05
-3.86781e-05
-3.74448e-05
-3.6209e-05
-3.49655e-05
-3.37051e-05
-3.24213e-05
-3.11181e-05
-2.97785e-05
-2.83908e-05
-2.69598e-05
-2.54815e-05
-2.39299e-05
-2.23049e-05
-2.06124e-05
-1.88381e-05
-1.69621e-05
-1.49948e-05
-1.29391e-05
-1.07853e-05
-8.52779e-06
-6.18457e-06
-3.76269e-06
-1.26523e-06
0.000257113
0.000242126
0.00022489
0.000205697
0.000184888
0.000162838
0.000139954
0.000116666
9.34149e-05
7.06314e-05
4.87112e-05
2.79946e-05
8.7476e-06
-8.84971e-06
-2.4705e-05
-3.88075e-05
-5.12118e-05
-6.2019e-05
-7.13553e-05
-7.93553e-05
-8.61487e-05
-9.1855e-05
-9.65814e-05
-0.000100424
-0.000103471
-0.000105803
-0.000107494
-0.000108615
-0.000109233
-0.000109409
-0.0001092
-0.000108656
-0.000107823
-0.000106743
-0.000105451
-0.000103981
-0.000102361
-0.000100616
-9.87696e-05
-9.68429e-05
-9.48528e-05
-9.28154e-05
-9.07441e-05
-8.86521e-05
-8.65497e-05
-8.44459e-05
-8.23486e-05
-8.02654e-05
-7.82021e-05
-7.61644e-05
-7.41553e-05
-7.21796e-05
-7.02401e-05
-6.83396e-05
-6.6479e-05
-6.46611e-05
-6.28859e-05
-6.11552e-05
-5.94685e-05
-5.78259e-05
-5.6228e-05
-5.46733e-05
-5.3161e-05
-5.16918e-05
-5.0262e-05
-4.88718e-05
-4.75188e-05
-4.6202e-05
-4.49187e-05
-4.36663e-05
-4.24421e-05
-4.12463e-05
-4.00726e-05
-3.89178e-05
-3.7781e-05
-3.66589e-05
-3.55447e-05
-3.44362e-05
-3.33278e-05
-3.22186e-05
-3.11021e-05
-2.99672e-05
-2.8814e-05
-2.76453e-05
-2.64405e-05
-2.51919e-05
-2.39096e-05
-2.25847e-05
-2.11913e-05
-1.97353e-05
-1.82245e-05
-1.66398e-05
-1.49656e-05
-1.32163e-05
-1.13941e-05
-9.48692e-06
-7.49272e-06
-5.42957e-06
-3.30227e-06
-1.10997e-06
0.000212968
0.000200864
0.000187045
0.000171736
0.0001552
0.000137714
0.000119569
0.00010106
8.24893e-05
6.41591e-05
4.63572e-05
2.93448e-05
1.33416e-05
-1.4854e-06
-1.50276e-05
-2.72351e-05
-3.81104e-05
-4.76986e-05
-5.60737e-05
-6.33259e-05
-6.95497e-05
-7.48377e-05
-7.92757e-05
-8.29431e-05
-8.59118e-05
-8.82485e-05
-9.0015e-05
-9.12704e-05
-9.20703e-05
-9.24674e-05
-9.25101e-05
-9.22432e-05
-9.17072e-05
-9.09393e-05
-8.99722e-05
-8.88356e-05
-8.75552e-05
-8.61545e-05
-8.46545e-05
-8.30743e-05
-8.14297e-05
-7.97355e-05
-7.80043e-05
-7.62482e-05
-7.4477e-05
-7.26989e-05
-7.09216e-05
-6.9152e-05
-6.73957e-05
-6.5658e-05
-6.39419e-05
-6.22519e-05
-6.05908e-05
-5.8961e-05
-5.73642e-05
-5.58021e-05
-5.42755e-05
-5.27861e-05
-5.13333e-05
-4.99178e-05
-4.85399e-05
-4.71982e-05
-4.58926e-05
-4.46236e-05
-4.33879e-05
-4.21858e-05
-4.10153e-05
-3.98756e-05
-3.87648e-05
-3.76796e-05
-3.66188e-05
-3.55824e-05
-3.45641e-05
-3.35622e-05
-3.25758e-05
-3.16011e-05
-3.06336e-05
-2.96707e-05
-2.87068e-05
-2.77431e-05