/*--------------------------------*- C++ -*----------------------------------*\
| =========                 |                                                 |
| \\      /  F ield         | OpenFOAM: The Open Source CFD Toolbox           |
|  \\    /   O peration     | Version:  2.3.0                                 |
|   \\  /    A nd           | Web:      www.OpenFOAM.org                      |
|    \\/     M anipulation  |                                                 |
\*---------------------------------------------------------------------------*/
FoamFile
{
    version     2.0;
    format      ascii;
    class       surfaceScalarField;
    location    "0.55";
    object      phi;
}
// * * * * * * * * * * * * * * * * * * * * * * * * * * * * * * * * * * * * * //

dimensions      [0 3 -1 0 0 0 0];

internalField   nonuniform List<scalar> 
5644
(
2.86517e-08
2.77204e-09
-3.14237e-08
2.58105e-08
2.84115e-09
2.31199e-08
2.69063e-09
2.06327e-08
2.48714e-09
1.8367e-08
2.26578e-09
1.63339e-08
2.03301e-09
1.45374e-08
1.79657e-09
1.29731e-08
1.56424e-09
1.16304e-08
1.34275e-09
1.04928e-08
1.1376e-09
9.5399e-09
9.52886e-10
8.7488e-09
7.91104e-10
8.09568e-09
6.53118e-10
7.55737e-09
5.38306e-10
7.11249e-09
4.44889e-10
6.74216e-09
3.70323e-10
6.43046e-09
3.11701e-10
6.16438e-09
2.66083e-10
5.93363e-09
2.30744e-10
5.73032e-09
2.03311e-10
5.5485e-09
1.81827e-10
5.38375e-09
1.64746e-10
5.23286e-09
1.50891e-10
5.09347e-09
1.39391e-10
4.96384e-09
1.29624e-10
4.84269e-09
1.21151e-10
4.72903e-09
1.13667e-10
4.62206e-09
1.06965e-10
4.52116e-09
1.00899e-10
4.42579e-09
9.53694e-11
4.33549e-09
9.03017e-11
4.24985e-09
8.56405e-11
4.16851e-09
8.13415e-11
4.09114e-09
7.73681e-11
4.01745e-09
7.36888e-11
3.94718e-09
7.02757e-11
3.88007e-09
6.71041e-11
3.81592e-09
6.41516e-11
3.75452e-09
6.13982e-11
3.6957e-09
5.88258e-11
3.63928e-09
5.64181e-11
3.58512e-09
5.41606e-11
3.53308e-09
5.20401e-11
3.48303e-09
5.0045e-11
3.43487e-09
4.81646e-11
3.38848e-09
4.63897e-11
3.34377e-09
4.47117e-11
3.30064e-09
4.31229e-11
3.25903e-09
4.16165e-11
3.21884e-09
4.01862e-11
3.18002e-09
3.88264e-11
3.14248e-09
3.75319e-11
3.10619e-09
3.6298e-11
3.07106e-09
3.51203e-11
3.03707e-09
3.39949e-11
3.00415e-09
3.29182e-11
2.97226e-09
3.18868e-11
2.94137e-09
3.08976e-11
2.91142e-09
2.99476e-11
2.88239e-09
2.90343e-11
2.85423e-09
2.8155e-11
2.82692e-09
2.73075e-11
2.80043e-09
2.64897e-11
2.77473e-09
2.56993e-11
2.7498e-09
2.49347e-11
2.72561e-09
2.4194e-11
2.70213e-09
2.34756e-11
2.67935e-09
2.27779e-11
2.65725e-09
2.20995e-11
2.63581e-09
2.14391e-11
2.61502e-09
2.07954e-11
2.59485e-09
2.01672e-11
2.5753e-09
1.95536e-11
2.55634e-09
1.89535e-11
2.53798e-09
1.83661e-11
2.52019e-09
1.77905e-11
2.50296e-09
1.72261e-11
2.48629e-09
1.66723e-11
2.47016e-09
1.61284e-11
2.45457e-09
1.55942e-11
2.4395e-09
1.50694e-11
2.42494e-09
1.45536e-11
2.4109e-09
1.4047e-11
2.39735e-09
1.35496e-11
2.38428e-09
1.30616e-11
2.3717e-09
1.25836e-11
2.35958e-09
1.21163e-11
2.34792e-09
1.1661e-11
2.3367e-09
1.12192e-11
2.32591e-09
1.07931e-11
2.31553e-09
1.03855e-11
2.30553e-09
9.99996e-12
2.29588e-09
9.64132e-12
2.28657e-09
9.316e-12
2.27753e-09
9.03403e-12
2.26872e-09
8.81447e-12
2.26002e-09
8.70399e-12
2.2512e-09
8.81307e-12
2.24183e-09
9.36929e-12
2.42365e-11
3.44037e-08
3.04348e-09
-3.46752e-08
3.3839e-08
3.40594e-09
3.30306e-08
3.49896e-09
3.20594e-08
3.45833e-09
3.0983e-08
3.34225e-09
2.98466e-08
3.16932e-09
2.86878e-08
2.9554e-09
2.75354e-08
2.71661e-09
2.64111e-08
2.46707e-09
2.53302e-08
2.21852e-09
2.43028e-08
1.98026e-09
2.33348e-08
1.7591e-09
2.24287e-08
1.55924e-09
2.15844e-08
1.3826e-09
2.08002e-08
1.22915e-09
2.00729e-08
1.09753e-09
1.93991e-08
9.85528e-10
1.87747e-08
8.90538e-10
1.81955e-08
8.09925e-10
1.76576e-08
7.41229e-10
1.71571e-08
6.82288e-10
1.66906e-08
6.31286e-10
1.62547e-08
5.8674e-10
1.58466e-08
5.4747e-10
1.54637e-08
5.12548e-10
1.51036e-08
4.81251e-10
1.47643e-08
4.53017e-10
1.44438e-08
4.27401e-10
1.41407e-08
4.04053e-10
1.38533e-08
3.82689e-10
1.35806e-08
3.63075e-10
1.33212e-08
3.45017e-10
1.30742e-08
3.28348e-10
1.28386e-08
3.12924e-10
1.26137e-08
2.98621e-10
1.23986e-08
2.8533e-10
1.21928e-08
2.72952e-10
1.19956e-08
2.61402e-10
1.18063e-08
2.50604e-10
1.16247e-08
2.4049e-10
1.14501e-08
2.30999e-10
1.12822e-08
2.22076e-10
1.11205e-08
2.13674e-10
1.09648e-08
2.0575e-10
1.08147e-08
1.98264e-10
1.067e-08
1.91181e-10
1.05302e-08
1.84471e-10
1.03952e-08
1.78104e-10
1.02648e-08
1.72055e-10
1.01387e-08
1.663e-10
1.00167e-08
1.60818e-10
9.89861e-09
1.5559e-10
9.78431e-09
1.50598e-10
9.67361e-09
1.45825e-10
9.56635e-09
1.41256e-10
9.46239e-09
1.36877e-10
9.3616e-09
1.32675e-10
9.26386e-09
1.28638e-10
9.16905e-09
1.24756e-10
9.07707e-09
1.21017e-10
8.98781e-09
1.17411e-10
8.90119e-09
1.13931e-10
8.81711e-09
1.10566e-10
8.7355e-09
1.0731e-10
8.65628e-09
1.04154e-10
8.57939e-09
1.01092e-10
8.50475e-09
9.81163e-11
8.4323e-09
9.52217e-11
8.362e-09
9.24019e-11
8.29379e-09
8.96514e-11
8.22762e-09
8.69651e-11
8.16345e-09
8.43382e-11
8.10123e-09
8.17661e-11
8.04094e-09
7.92448e-11
7.98254e-09
7.67704e-11
7.92599e-09
7.43392e-11
7.87127e-09
7.19483e-11
7.81834e-09
6.95946e-11
7.7672e-09
6.72757e-11
7.7178e-09
6.49894e-11
7.67014e-09
6.27341e-11
7.62418e-09
6.05083e-11
7.57992e-09
5.83114e-11
7.53733e-09
5.61429e-11
7.49638e-09
5.40033e-11
7.45707e-09
5.18938e-11
7.41937e-09
4.98165e-11
7.38326e-09
4.77748e-11
7.34871e-09
4.57733e-11
7.31568e-09
4.38184e-11
7.28415e-09
4.19186e-11
7.25406e-09
4.00844e-11
7.22537e-09
3.833e-11
7.19801e-09
3.66752e-11
7.1719e-09
3.51517e-11
7.14689e-09
3.38212e-11
7.12277e-09
3.28286e-11
7.09902e-09
3.25582e-11
7.07291e-09
3.54786e-11
6.03975e-11
3.65065e-08
2.89617e-09
-3.63592e-08
3.65906e-08
3.32183e-09
3.65507e-08
3.53891e-09
3.63861e-08
3.62288e-09
3.61084e-08
3.61998e-09
3.57313e-08
3.54645e-09
3.52714e-08
3.41522e-09
3.47465e-08
3.24155e-09
3.41731e-08
3.04043e-09
3.35664e-08
2.82523e-09
3.29394e-08
2.60731e-09
3.23028e-08
2.39569e-09
3.16652e-08
2.19681e-09
3.10332e-08
2.01464e-09
3.04114e-08
1.85095e-09
2.98031e-08
1.70584e-09
2.92103e-08
1.57825e-09
2.86344e-08
1.46645e-09
2.80759e-08
1.36842e-09
2.7535e-08
1.28212e-09
2.70117e-08
1.20566e-09
2.65055e-08
1.13741e-09
2.60163e-08
1.07599e-09
2.55435e-08
1.02028e-09
2.50866e-08
9.69397e-10
2.46453e-08
9.22632e-10
2.42188e-08
8.7943e-10
2.38069e-08
8.39352e-10
2.34089e-08
8.02045e-10
2.30244e-08
7.67222e-10
2.26528e-08
7.34645e-10
2.22937e-08
7.0411e-10
2.19466e-08
6.75443e-10
2.1611e-08
6.4849e-10
2.12865e-08
6.23113e-10
2.09727e-08
5.99191e-10
2.0669e-08
5.76611e-10
2.03752e-08
5.55273e-10
2.00907e-08
5.35085e-10
1.98152e-08
5.15964e-10
1.95484e-08
4.97833e-10
1.92898e-08
4.80621e-10
1.90392e-08
4.64265e-10
1.87963e-08
4.48706e-10
1.85607e-08
4.33889e-10
1.83321e-08
4.19765e-10
1.81103e-08
4.06287e-10
1.78949e-08
3.93415e-10
1.76859e-08
3.81107e-10
1.74829e-08
3.69329e-10
1.72856e-08
3.58047e-10
1.7094e-08
3.47228e-10
1.69077e-08
3.36845e-10
1.67267e-08
3.26869e-10
1.65507e-08
3.17276e-10
1.63795e-08
3.08041e-10
1.62131e-08
2.99142e-10
1.60511e-08
2.90558e-10
1.58936e-08
2.82269e-10
1.57404e-08
2.74257e-10
1.55913e-08
2.66503e-10
1.54462e-08
2.58991e-10
1.53051e-08
2.51705e-10
1.51678e-08
2.4463e-10
1.50342e-08
2.37752e-10
1.49042e-08
2.31057e-10
1.47778e-08
2.24532e-10
1.46548e-08
2.18165e-10
1.45353e-08
2.11945e-10
1.44191e-08
2.0586e-10
1.43062e-08
1.99901e-10
1.41964e-08
1.94056e-10
1.40899e-08
1.88318e-10
1.39865e-08
1.82677e-10
1.38861e-08
1.77125e-10
1.37888e-08
1.71655e-10
1.36945e-08
1.66259e-10
1.36031e-08
1.60932e-10
1.35147e-08
1.55668e-10
1.34293e-08
1.50462e-10
1.33467e-08
1.45309e-10
1.3267e-08
1.40207e-10
1.31902e-08
1.35153e-10
1.31162e-08
1.30146e-10
1.3045e-08
1.25186e-10
1.29766e-08
1.20275e-10
1.2911e-08
1.15416e-10
1.28482e-08
1.10615e-10
1.2788e-08
1.0588e-10
1.27306e-08
1.01224e-10
1.26759e-08
9.66596e-11
1.26238e-08
9.22083e-11
1.25742e-08
8.78958e-11
1.25271e-08
8.376e-11
1.24824e-08
7.98623e-11
1.24399e-08
7.63224e-11
1.23993e-08
7.34192e-11
1.23599e-08
7.1973e-11
1.23191e-08
7.63266e-11
1.03714e-10
3.80861e-08
2.70714e-09
-3.7897e-08
3.82949e-08
3.11296e-09
3.84697e-08
3.36415e-09
3.85906e-08
3.50201e-09
3.86507e-08
3.55985e-09
3.8646e-08
3.55113e-09
3.85762e-08
3.48505e-09
3.84445e-08
3.3732e-09
3.82568e-08
3.22815e-09
3.80202e-08
3.06186e-09
3.77425e-08
2.88502e-09
3.74315e-08
2.70664e-09
3.70946e-08
2.53369e-09
3.67383e-08
2.37098e-09
3.63679e-08
2.22131e-09
3.5988e-08
2.08581e-09
3.56018e-08
1.96438e-09
3.52122e-08
1.85611e-09
3.48209e-08
1.75965e-09
3.44296e-08
1.67344e-09
3.40393e-08
1.59599e-09
3.36508e-08
1.5259e-09
3.32648e-08
1.462e-09
3.28818e-08
1.40327e-09
3.25023e-08
1.34893e-09
3.21266e-08
1.29832e-09
3.17551e-08
1.25094e-09
3.1388e-08
1.20639e-09
3.10257e-08
1.16435e-09
3.06684e-08
1.12456e-09
3.03162e-08
1.08682e-09
2.99694e-08
1.05095e-09
2.9628e-08
1.01681e-09
2.92922e-08
9.84265e-10
2.89621e-08
9.53209e-10
2.86378e-08
9.23539e-10
2.83192e-08
8.95165e-10
2.80065e-08
8.68007e-10
2.76996e-08
8.41988e-10
2.73985e-08
8.17041e-10
2.71032e-08
7.93103e-10
2.68138e-08
7.70116e-10
2.653e-08
7.48026e-10
2.62519e-08
7.26783e-10
2.59795e-08
7.06341e-10
2.57126e-08
6.86657e-10
2.54512e-08
6.67689e-10
2.51952e-08
6.49401e-10
2.49445e-08
6.31756e-10
2.46991e-08
6.1472e-10
2.44589e-08
5.98262e-10
2.42238e-08
5.82352e-10
2.39937e-08
5.66961e-10
2.37685e-08
5.52061e-10
2.35481e-08
5.37627e-10
2.33326e-08
5.23633e-10
2.31216e-08
5.10056e-10
2.29153e-08
4.96872e-10
2.27135e-08
4.8406e-10
2.25162e-08
4.71599e-10
2.23232e-08
4.59467e-10
2.21346e-08
4.47646e-10
2.19502e-08
4.36116e-10
2.17699e-08
4.24859e-10
2.15938e-08
4.13857e-10
2.14218e-08
4.03093e-10
2.12538e-08
3.92551e-10
2.10897e-08
3.82215e-10
2.09296e-08
3.72069e-10
2.07734e-08
3.62098e-10
2.0621e-08
3.52289e-10
2.04724e-08
3.42628e-10
2.03276e-08
3.33101e-10
2.01866e-08
3.23697e-10
2.00493e-08
3.14403e-10
1.99158e-08
3.05209e-10
1.97859e-08
2.96105e-10
1.96598e-08
2.8708e-10
1.95373e-08
2.78128e-10
1.94185e-08
2.69239e-10
1.93034e-08
2.60408e-10
1.9192e-08
2.5163e-10
1.90843e-08
2.42901e-10
1.89802e-08
2.34219e-10
1.88798e-08
2.25584e-10
1.87831e-08
2.16999e-10
1.869e-08
2.08468e-10
1.86006e-08
2.00001e-10
1.85149e-08
1.91609e-10
1.84328e-08
1.8331e-10
1.83543e-08
1.75127e-10
1.82795e-08
1.67089e-10
1.82081e-08
1.59237e-10
1.81403e-08
1.5163e-10
1.80758e-08
1.44365e-10
1.80144e-08
1.37627e-10
1.7956e-08
1.31837e-10
1.78998e-08
1.28224e-10
1.78444e-08
1.3172e-10
1.55537e-10
3.96251e-08
2.53856e-09
-3.94565e-08
3.98331e-08
2.90496e-09
4.00416e-08
3.1556e-09
4.02323e-08
3.31134e-09
4.03965e-08
3.39561e-09
4.05274e-08
3.42029e-09
4.06194e-08
3.39299e-09
4.067e-08
3.32268e-09
4.06786e-08
3.21951e-09
4.0647e-08
3.0935e-09
4.05781e-08
2.95388e-09
4.04761e-08
2.80867e-09
4.03453e-08
2.66442e-09
4.01904e-08
2.52593e-09
4.00154e-08
2.39631e-09
3.9824e-08
2.27724e-09
3.96192e-08
2.16919e-09
3.94034e-08
2.07184e-09
3.91787e-08
1.98435e-09
3.89465e-08
1.90562e-09
3.8708e-08
1.83447e-09
3.84642e-08
1.76977e-09
3.82157e-08
1.71051e-09
3.79631e-08
1.65581e-09
3.77071e-08
1.60495e-09
3.74481e-08
1.55735e-09
3.71865e-08
1.51253e-09
3.69228e-08
1.47012e-09
3.66573e-08
1.42983e-09
3.63904e-08
1.39142e-09
3.61225e-08
1.35469e-09
3.5854e-08
1.3195e-09
3.55851e-08
1.28571e-09
3.53161e-08
1.25322e-09
3.50474e-08
1.22193e-09
3.47792e-08
1.19175e-09
3.45118e-08
1.16262e-09
3.42453e-08
1.13447e-09
3.39801e-08
1.10724e-09
3.37162e-08
1.08088e-09
3.3454e-08
1.05534e-09
3.31935e-08
1.03057e-09
3.2935e-08
1.00655e-09
3.26786e-08
9.8323e-10
3.24243e-08
9.60575e-10
3.21724e-08
9.38555e-10
3.1923e-08
9.1714e-10
3.16761e-08
8.96304e-10
3.14318e-08
8.76019e-10
3.11903e-08
8.56261e-10
3.09515e-08
8.37005e-10
3.07156e-08
8.1823e-10
3.04827e-08
7.99912e-10
3.02527e-08
7.82031e-10
3.00258e-08
7.64567e-10
2.98019e-08
7.47499e-10
2.95812e-08
7.30808e-10
2.93636e-08
7.14475e-10
2.91491e-08
6.98481e-10
2.89379e-08
6.82808e-10
2.873e-08
6.67438e-10
2.85253e-08
6.52353e-10
2.83238e-08
6.37535e-10
2.81257e-08
6.22969e-10
2.79309e-08
6.08635e-10
2.77395e-08
5.94519e-10
2.75515e-08
5.80603e-10
2.73668e-08
5.66871e-10
2.71856e-08
5.53308e-10
2.70078e-08
5.39898e-10
2.68334e-08
5.26625e-10
2.66626e-08
5.13476e-10
2.64953e-08
5.00436e-10
2.63315e-08
4.87491e-10
2.61712e-08
4.74628e-10
2.60146e-08
4.61834e-10
2.58616e-08
4.49099e-10
2.57123e-08
4.3641e-10
2.55667e-08
4.23758e-10
2.54248e-08
4.11135e-10
2.52866e-08
3.98532e-10
2.51523e-08
3.85946e-10
2.50219e-08
3.7337e-10
2.48953e-08
3.60805e-10
2.47726e-08
3.4825e-10
2.46539e-08
3.3571e-10
2.45392e-08
3.23192e-10
2.44285e-08
3.1071e-10
2.43218e-08
2.98279e-10
2.42192e-08
2.85924e-10
2.41206e-08
2.73676e-10
2.40261e-08
2.61576e-10
2.39357e-08
2.49682e-10
2.38492e-08
2.38075e-10
2.37667e-08
2.26889e-10
2.3688e-08
2.16368e-10
2.36128e-08
2.07051e-10
2.35406e-08
2.00364e-10
2.34716e-08
2.00738e-10
2.16202e-10
4.12001e-08
2.39372e-09
-4.10553e-08
4.13862e-08
2.7189e-09
4.15845e-08
2.95726e-09
4.17791e-08
3.11677e-09
4.1962e-08
3.21271e-09
4.21271e-08
3.25513e-09
4.22693e-08
3.25082e-09
4.23848e-08
3.20718e-09
4.24717e-08
3.13262e-09
4.25296e-08
3.03563e-09
4.25593e-08
2.92413e-09
4.25628e-08
2.80516e-09
4.25427e-08
2.68458e-09
4.25017e-08
2.5669e-09
4.24428e-08
2.45523e-09
4.23686e-08
2.35146e-09
4.22814e-08
2.2564e-09
4.21831e-08
2.17012e-09
4.20753e-08
2.09216e-09
4.19591e-08
2.02176e-09
4.18356e-08
1.95802e-09
4.17053e-08
1.90003e-09
4.15689e-08
1.84693e-09
4.14268e-08
1.79796e-09
4.12793e-08
1.75246e-09
4.11267e-08
1.70991e-09
4.09694e-08
1.66985e-09
4.08076e-08
1.63193e-09
4.06415e-08
1.59587e-09
4.04715e-08
1.56143e-09
4.02978e-08
1.52842e-09
4.01206e-08
1.49669e-09
3.99402e-08
1.46613e-09
3.97568e-08
1.43661e-09
3.95707e-08
1.40805e-09
3.93821e-08
1.38037e-09
3.91912e-08
1.35351e-09
3.89982e-08
1.3274e-09
3.88035e-08
1.302e-09
3.86071e-08
1.27726e-09
3.84093e-08
1.25314e-09
3.82103e-08
1.22959e-09
3.80102e-08
1.20659e-09
3.78093e-08
1.18411e-09
3.76078e-08
1.16212e-09
3.74058e-08
1.14059e-09
3.72034e-08
1.1195e-09
3.70009e-08
1.09883e-09
3.67983e-08
1.07856e-09
3.65959e-08
1.05866e-09
3.63938e-08
1.03913e-09
3.61921e-08
1.01995e-09
3.59909e-08
1.00109e-09
3.57904e-08
9.82538e-10
3.55907e-08
9.64285e-10
3.53919e-08
9.46311e-10
3.51941e-08
9.28602e-10
3.49974e-08
9.11143e-10
3.4802e-08
8.93918e-10
3.46079e-08
8.76912e-10
3.44152e-08
8.6011e-10
3.42241e-08
8.43498e-10
3.40345e-08
8.2706e-10
3.38467e-08
8.10781e-10
3.36607e-08
7.94647e-10
3.34766e-08
7.78642e-10
3.32944e-08
7.62752e-10
3.31144e-08
7.4696e-10
3.29364e-08
7.31253e-10
3.27607e-08
7.15615e-10
3.25873e-08
7.00031e-10
3.24163e-08
6.84488e-10
3.22477e-08
6.68971e-10
3.20818e-08
6.53467e-10
3.19184e-08
6.37961e-10
3.17578e-08
6.22441e-10
3.16e-08
6.06896e-10
3.14451e-08
5.91314e-10
3.12932e-08
5.75685e-10
3.11443e-08
5.6e-10
3.09986e-08
5.44253e-10
3.08561e-08
5.28438e-10
3.07169e-08
5.12551e-10
3.05811e-08
4.96592e-10
3.04488e-08
4.80565e-10
3.03201e-08
4.64475e-10
3.01949e-08
4.48334e-10
3.00735e-08
4.32158e-10
2.99558e-08
4.15971e-10
2.98419e-08
3.99802e-10
2.97319e-08
3.83694e-10
2.96258e-08
3.67699e-10
2.95236e-08
3.51891e-10
2.94253e-08
3.36376e-10
2.93308e-08
3.21318e-10
2.92402e-08
3.07009e-10
2.91532e-08
2.9404e-10
2.90698e-08
2.83778e-10
2.89911e-08
2.79456e-10
2.83662e-10
4.28237e-08
2.26755e-09
-4.26976e-08
4.2988e-08
2.55463e-09
4.31687e-08
2.7766e-09
4.33515e-08
2.93392e-09
4.35288e-08
3.03542e-09
4.36951e-08
3.08881e-09
4.38459e-08
3.10001e-09
4.39779e-08
3.07525e-09
4.40889e-08
3.02158e-09
4.41783e-08
2.94626e-09
4.42462e-08
2.85617e-09
4.42939e-08
2.75751e-09
4.4323e-08
2.65552e-09
4.43355e-08
2.55437e-09
4.43336e-08
2.4571e-09
4.43194e-08
2.36566e-09
4.42947e-08
2.2811e-09
4.4261e-08
2.20377e-09
4.42197e-08
2.13351e-09
4.41716e-08
2.06983e-09
4.41176e-08
2.01207e-09
4.40581e-08
1.95953e-09
4.39935e-08
1.91149e-09
4.39242e-08
1.86729e-09
4.38503e-08
1.82637e-09
4.3772e-08
1.78823e-09
4.36893e-08
1.75246e-09
4.36026e-08
1.71871e-09
4.35117e-08
1.68671e-09
4.34169e-08
1.65622e-09
4.33183e-08
1.62706e-09
4.32159e-08
1.59908e-09
4.31099e-08
1.57213e-09
4.30004e-08
1.54612e-09
4.28875e-08
1.52095e-09
4.27713e-08
1.49654e-09
4.2652e-08
1.47282e-09
4.25297e-08
1.44973e-09
4.24045e-08
1.42722e-09
4.22765e-08
1.40523e-09
4.21459e-08
1.38374e-09
4.20128e-08
1.36269e-09
4.18773e-08
1.34207e-09
4.17396e-08
1.32183e-09
4.15998e-08
1.30195e-09
4.1458e-08
1.2824e-09
4.13143e-08
1.26317e-09
4.11689e-08
1.24423e-09
4.10219e-08
1.22556e-09
4.08734e-08
1.20714e-09
4.07236e-08
1.18897e-09
4.05725e-08
1.17101e-09
4.04203e-08
1.15326e-09
4.02672e-08
1.1357e-09
4.01132e-08
1.11832e-09
3.99584e-08
1.10109e-09
3.9803e-08
1.08402e-09
3.9647e-08
1.06707e-09
3.94907e-08
1.05025e-09
3.93341e-08
1.03353e-09
3.91773e-08
1.0169e-09
3.90204e-08
1.00035e-09
3.88636e-08
9.83857e-10
3.8707e-08
9.67414e-10
3.85507e-08
9.51004e-10
3.83947e-08
9.34612e-10
3.82392e-08
9.18223e-10
3.80843e-08
9.01822e-10
3.79302e-08
8.85394e-10
3.77769e-08
8.68925e-10
3.76245e-08
8.52398e-10
3.74732e-08
8.358e-10
3.73231e-08
8.19116e-10
3.71742e-08
8.02331e-10
3.70267e-08
7.85431e-10
3.68808e-08
7.68404e-10
3.67364e-08
7.51237e-10
3.65938e-08
7.33919e-10
3.64531e-08
7.16438e-10
3.63143e-08
6.98787e-10
3.61776e-08
6.80958e-10
3.60431e-08
6.62946e-10
3.59109e-08
6.44749e-10
3.57811e-08
6.26367e-10
3.56539e-08
6.07806e-10
3.55293e-08
5.89073e-10
3.54074e-08
5.70184e-10
3.52884e-08
5.5116e-10
3.51724e-08
5.32029e-10
3.50593e-08
5.12828e-10
3.49494e-08
4.93609e-10
3.48427e-08
4.74436e-10
3.47392e-08
4.55398e-10
3.46389e-08
4.36621e-10
3.45419e-08
4.18295e-10
3.44482e-08
4.00734e-10
3.43578e-08
3.8451e-10
3.42708e-08
3.70723e-10
3.41891e-08
3.61135e-10
3.53654e-10
4.44988e-08
2.1555e-09
-4.43867e-08
4.46445e-08
2.40892e-09
4.48078e-08
2.61331e-09
4.49764e-08
2.7653e-09
4.51428e-08
2.86906e-09
4.53016e-08
2.92996e-09
4.54488e-08
2.95284e-09
4.55812e-08
2.94289e-09
4.56968e-08
2.90597e-09
4.57948e-08
2.84825e-09
4.58752e-08
2.77571e-09
4.5939e-08
2.69379e-09
4.59873e-08
2.6072e-09
4.60219e-08
2.51978e-09
4.60446e-08
2.43442e-09
4.60571e-08
2.35313e-09
4.60611e-08
2.2771e-09
4.6058e-08
2.20691e-09
4.60488e-08
2.14263e-09
4.60346e-08
2.08403e-09
4.6016e-08
2.03068e-09
4.59935e-08
1.98203e-09
4.59675e-08
1.93753e-09
4.59382e-08
1.89663e-09
4.59057e-08
1.85884e-09
4.58702e-08
1.82373e-09
4.58317e-08
1.79092e-09
4.57903e-08
1.76009e-09
4.57461e-08
1.73097e-09
4.5699e-08
1.70335e-09
4.5649e-08
1.67703e-09
4.55962e-08
1.65187e-09
4.55406e-08
1.62772e-09
4.54822e-08
1.60449e-09
4.54211e-08
1.58206e-09
4.53573e-08
1.56037e-09
4.52908e-08
1.53933e-09
4.52216e-08
1.51888e-09
4.51499e-08
1.49898e-09
4.50756e-08
1.47955e-09
4.49987e-08
1.46057e-09
4.49194e-08
1.44199e-09
4.48377e-08
1.42378e-09
4.47536e-08
1.4059e-09
4.46673e-08
1.38832e-09
4.45786e-08
1.37102e-09
4.44879e-08
1.35396e-09
4.43949e-08
1.33714e-09
4.43e-08
1.32052e-09
4.4203e-08
1.30408e-09
4.41042e-08
1.28782e-09
4.40035e-08
1.2717e-09
4.39011e-08
1.25571e-09
4.37969e-08
1.23984e-09
4.36912e-08
1.22407e-09
4.35839e-08
1.20837e-09
4.34751e-08
1.19275e-09
4.3365e-08
1.17717e-09
4.32537e-08
1.16163e-09
4.31411e-08
1.14611e-09
4.30274e-08
1.13059e-09
4.29127e-08
1.11506e-09
4.2797e-08
1.0995e-09
4.26805e-08
1.0839e-09
4.25633e-08
1.06824e-09
4.24454e-08
1.0525e-09
4.2327e-08
1.03666e-09
4.22081e-08
1.02072e-09
4.20889e-08
1.00464e-09
4.19694e-08
9.88427e-10
4.18497e-08
9.7205e-10
4.173e-08
9.55496e-10
4.16104e-08
9.38748e-10
4.14909e-08
9.21791e-10
4.13717e-08
9.04608e-10
4.1253e-08
8.87186e-10
4.11347e-08
8.69509e-10
4.1017e-08
8.51566e-10
4.09001e-08
8.33344e-10
4.07841e-08
8.14833e-10
4.0669e-08
7.96025e-10
4.0555e-08
7.76916e-10
4.04423e-08
7.57502e-10
4.03309e-08
7.37785e-10
4.02209e-08
7.1777e-10
4.01125e-08
6.97468e-10
4.00058e-08
6.76896e-10
3.99009e-08
6.56078e-10
3.97979e-08
6.35046e-10
3.96968e-08
6.13846e-10
3.95979e-08
5.92534e-10
3.95012e-08
5.71187e-10
3.94067e-08
5.49905e-10
3.93145e-08
5.28829e-10
3.92246e-08
5.08163e-10
3.91371e-08
4.8822e-10
3.90521e-08
4.69496e-10
3.89701e-08
4.52718e-10
3.8893e-08
4.38292e-10
4.21044e-10
4.62271e-08
2.05433e-09
-4.61259e-08
4.63574e-08
2.27863e-09
4.6505e-08
2.46564e-09
4.66598e-08
2.6105e-09
4.68146e-08
2.71429e-09
4.69642e-08
2.78033e-09
4.71047e-08
2.81236e-09
4.7233e-08
2.81456e-09
4.73472e-08
2.79176e-09
4.74464e-08
2.74914e-09
4.75303e-08
2.69181e-09
4.75995e-08
2.62453e-09
4.76552e-08
2.55151e-09
4.76987e-08
2.47624e-09
4.77317e-08
2.40147e-09
4.77556e-08
2.32918e-09
4.77721e-08
2.26068e-09
4.77823e-08
2.19669e-09
4.77874e-08
2.13751e-09
4.77883e-08
2.08311e-09
4.77858e-08
2.03324e-09
4.77803e-08
1.98754e-09
4.77722e-08
1.94559e-09
4.77619e-08
1.90696e-09
4.77495e-08
1.87124e-09
4.77351e-08
1.83807e-09
4.77189e-08
1.80711e-09
4.77009e-08
1.77808e-09
4.76812e-08
1.75074e-09
4.76596e-08
1.72487e-09
4.76364e-08
1.7003e-09
4.76113e-08
1.67689e-09
4.75846e-08
1.6545e-09
4.7556e-08
1.63303e-09
4.75257e-08
1.61237e-09
4.74936e-08
1.59245e-09
4.74598e-08
1.5732e-09
4.74241e-08
1.55454e-09
4.73866e-08
1.53643e-09
4.73474e-08
1.5188e-09
4.73063e-08
1.50162e-09
4.72635e-08
1.48484e-09
4.72189e-08
1.46843e-09
4.71724e-08
1.45234e-09
4.71242e-08
1.43655e-09
4.70742e-08
1.42103e-09
4.70224e-08
1.40575e-09
4.69688e-08
1.39068e-09
4.69135e-08
1.37581e-09
4.68565e-08
1.3611e-09
4.67978e-08
1.34654e-09
4.67374e-08
1.3321e-09
4.66753e-08
1.31778e-09
4.66116e-08
1.30353e-09
4.65463e-08
1.28936e-09
4.64795e-08
1.27523e-09
4.64111e-08
1.26114e-09
4.63412e-08
1.24705e-09
4.62699e-08
1.23297e-09
4.61971e-08
1.21885e-09
4.6123e-08
1.2047e-09
4.60476e-08
1.19048e-09
4.59709e-08
1.17618e-09
4.5893e-08
1.16179e-09
4.5814e-08
1.14728e-09
4.57339e-08
1.13263e-09
4.56527e-08
1.11782e-09
4.55706e-08
1.10284e-09
4.54876e-08
1.08766e-09
4.54037e-08
1.07227e-09
4.53191e-08
1.05664e-09
4.52339e-08
1.04077e-09
4.5148e-08
1.02461e-09
4.50616e-08
1.00817e-09
4.49748e-08
9.91418e-10
4.48877e-08
9.74338e-10
4.48003e-08
9.56914e-10
4.47127e-08
9.39132e-10
4.46251e-08
9.20976e-10
4.45375e-08
9.02436e-10
4.445e-08
8.83501e-10
4.43627e-08
8.64165e-10
4.42758e-08
8.44424e-10
4.41893e-08
8.24279e-10
4.41033e-08
8.03735e-10
4.4018e-08
7.82803e-10
4.39334e-08
7.61501e-10
4.38496e-08
7.39855e-10
4.37668e-08
7.17902e-10
4.36849e-08
6.9569e-10
4.36042e-08
6.73283e-10
4.35246e-08
6.50762e-10
4.34463e-08
6.28239e-10
4.33692e-08
6.05863e-10
4.32936e-08
5.8384e-10
4.32193e-08
5.62462e-10
4.31467e-08
5.42117e-10
4.30762e-08
5.23171e-10
4.30095e-08
5.05057e-10
4.81398e-10
4.80106e-08
1.96175e-09
-4.7918e-08
4.81281e-08
2.1611e-09
4.8262e-08
2.33173e-09
4.8404e-08
2.46852e-09
4.85476e-08
2.57073e-09
4.86878e-08
2.64007e-09
4.8821e-08
2.67922e-09
4.89441e-08
2.69147e-09
4.90551e-08
2.68072e-09
4.9153e-08
2.65125e-09
4.92374e-08
2.6074e-09
4.93087e-08
2.55327e-09
4.93676e-08
2.49259e-09
4.94153e-08
2.4285e-09
4.94532e-08
2.36357e-09
4.94827e-08
2.29974e-09
4.9505e-08
2.23834e-09
4.95215e-08
2.18023e-09
4.95331e-08
2.12587e-09
4.95408e-08
2.07537e-09
4.95454e-08
2.02868e-09
4.95473e-08
1.98559e-09
4.95471e-08
1.94579e-09
4.95451e-08
1.90898e-09
4.95415e-08
1.87484e-09
4.95365e-08
1.84305e-09
4.95303e-08
1.81335e-09
4.95229e-08
1.78548e-09
4.95144e-08
1.75923e-09
4.95049e-08
1.73442e-09
4.94943e-08
1.71087e-09
4.94827e-08
1.68846e-09
4.94702e-08
1.66706e-09
4.94566e-08
1.64658e-09
4.94421e-08
1.62691e-09
4.94265e-08
1.60799e-09
4.941e-08
1.58973e-09
4.93924e-08
1.57209e-09
4.93739e-08
1.555e-09
4.93543e-08
1.53841e-09
4.93336e-08
1.52228e-09
4.93119e-08
1.50657e-09
4.92891e-08
1.49123e-09
4.92652e-08
1.47624e-09
4.92402e-08
1.46156e-09
4.9214e-08
1.44716e-09
4.91868e-08
1.43301e-09
4.91584e-08
1.41909e-09
4.91288e-08
1.40537e-09
4.90981e-08
1.39183e-09
4.90662e-08
1.37845e-09
4.90331e-08
1.36519e-09
4.89988e-08
1.35205e-09
4.89633e-08
1.339e-09
4.89267e-08
1.32602e-09
4.88888e-08
1.31308e-09
4.88498e-08
1.30017e-09
4.88096e-08
1.28727e-09
4.87682e-08
1.27436e-09
4.87256e-08
1.26141e-09
4.86819e-08
1.24841e-09
4.86371e-08
1.23534e-09
4.85911e-08
1.22216e-09
4.8544e-08
1.20887e-09
4.84958e-08
1.19544e-09
4.84466e-08
1.18185e-09
4.83963e-08
1.16808e-09
4.83451e-08
1.1541e-09
4.82928e-08
1.13989e-09
4.82397e-08
1.12543e-09
4.81856e-08
1.1107e-09
4.81307e-08
1.09568e-09
4.8075e-08
1.08034e-09
4.80185e-08
1.06466e-09
4.79613e-08
1.04862e-09
4.79034e-08
1.0322e-09
4.7845e-08
1.01538e-09
4.77859e-08
9.98149e-10
4.77264e-08
9.80482e-10
4.76665e-08
9.62368e-10
4.76062e-08
9.43794e-10
4.75456e-08
9.24753e-10
4.74848e-08
9.05239e-10
4.74238e-08
8.85251e-10
4.73628e-08
8.64794e-10
4.73017e-08
8.43879e-10
4.72407e-08
8.22524e-10
4.71798e-08
8.00757e-10
4.71191e-08
7.78614e-10
4.70586e-08
7.56149e-10
4.69985e-08
7.33426e-10
4.69387e-08
7.10535e-10
4.68793e-08
6.8759e-10
4.68205e-08
6.64743e-10
4.67621e-08
6.42196e-10
4.67044e-08
6.20207e-10
4.66474e-08
5.99057e-10
4.65918e-08
5.78837e-10
4.65383e-08
5.58488e-10
5.32034e-10
4.98517e-08
1.87617e-09
-4.97661e-08
4.99585e-08
2.05425e-09
5.00804e-08
2.20986e-09
5.02107e-08
2.33826e-09
5.03436e-08
2.43777e-09
5.04748e-08
2.50893e-09
5.06005e-08
2.55349e-09
5.0718e-08
2.57398e-09
5.08252e-08
2.57348e-09
5.0921e-08
2.55547e-09
5.10048e-08
2.52357e-09
5.10768e-08
2.48131e-09
5.11374e-08
2.43193e-09
5.11877e-08
2.37825e-09
5.12286e-08
2.32262e-09
5.12615e-08
2.26689e-09
5.12874e-08
2.2124e-09
5.13076e-08
2.16009e-09
5.13229e-08
2.11052e-09
5.13343e-08
2.06395e-09
5.13426e-08
2.02045e-09
5.13482e-08
1.97996e-09
5.13517e-08
1.94228e-09
5.13535e-08
1.90722e-09
5.13538e-08
1.87453e-09
5.13529e-08
1.84397e-09
5.13509e-08
1.81531e-09
5.1348e-08
1.78836e-09
5.13443e-08
1.76293e-09
5.13399e-08
1.73884e-09
5.13348e-08
1.71597e-09
5.13291e-08
1.69419e-09
5.13228e-08
1.67338e-09
5.13159e-08
1.65346e-09
5.13085e-08
1.63433e-09
5.13005e-08
1.61594e-09
5.1292e-08
1.59821e-09
5.12831e-08
1.58108e-09
5.12735e-08
1.5645e-09
5.12635e-08
1.54843e-09
5.1253e-08
1.53283e-09
5.12419e-08
1.51764e-09
5.12303e-08
1.50284e-09
5.12181e-08
1.4884e-09
5.12054e-08
1.47428e-09
5.11921e-08
1.46046e-09
5.11782e-08
1.4469e-09
5.11637e-08
1.43358e-09
5.11486e-08
1.42048e-09
5.11329e-08
1.40757e-09
5.11165e-08
1.39483e-09
5.10995e-08
1.38224e-09
5.10817e-08
1.36978e-09
5.10633e-08
1.35742e-09
5.10442e-08
1.34514e-09
5.10244e-08
1.33292e-09
5.10038e-08
1.32074e-09
5.09825e-08
1.30858e-09
5.09604e-08
1.29642e-09
5.09376e-08
1.28423e-09
5.0914e-08
1.272e-09
5.08897e-08
1.25969e-09
5.08645e-08
1.2473e-09
5.08386e-08
1.23479e-09
5.08119e-08
1.22214e-09
5.07844e-08
1.20933e-09
5.07562e-08
1.19633e-09
5.07272e-08
1.18312e-09
5.06974e-08
1.16968e-09
5.06668e-08
1.15599e-09
5.06355e-08
1.142e-09
5.06035e-08
1.12772e-09
5.05707e-08
1.1131e-09
5.05373e-08
1.09812e-09
5.05031e-08
1.08277e-09
5.04683e-08
1.06701e-09
5.04328e-08
1.05084e-09
5.03968e-08
1.03422e-09
5.03601e-08
1.01714e-09
5.03229e-08
9.99586e-10
5.02852e-08
9.81541e-10
5.02469e-08
9.62996e-10
5.02082e-08
9.43944e-10
5.01691e-08
9.24384e-10
5.01295e-08
9.04318e-10
5.00897e-08
8.83759e-10
5.00495e-08
8.62723e-10
5.0009e-08
8.41239e-10
4.99683e-08
8.19346e-10
4.99273e-08
7.97096e-10
4.98862e-08
7.74558e-10
4.98449e-08
7.51824e-10
4.98035e-08
7.29009e-10
4.97619e-08
7.06265e-10
4.97204e-08
6.83783e-10
4.96788e-08
6.61784e-10
4.96374e-08
6.40467e-10
4.95964e-08
6.19765e-10
4.95564e-08
5.98556e-10
5.72251e-10
5.17527e-08
1.79647e-09
-5.1673e-08
5.18505e-08
1.95641e-09
5.19619e-08
2.09852e-09
5.20815e-08
2.21866e-09
5.22045e-08
2.31473e-09
5.23269e-08
2.38654e-09
5.24453e-08
2.4351e-09
5.25571e-08
2.46224e-09
5.26602e-08
2.47037e-09
5.27534e-08
2.46227e-09
5.2836e-08
2.44094e-09
5.2908e-08
2.40935e-09
5.29696e-08
2.37029e-09
5.30216e-08
2.32628e-09
5.30648e-08
2.27943e-09
5.31002e-08
2.23147e-09
5.31289e-08
2.18374e-09
5.31518e-08
2.13718e-09
5.31698e-08
2.09244e-09
5.31839e-08
2.04989e-09
5.31946e-08
2.00971e-09
5.32027e-08
1.97194e-09
5.32084e-08
1.9365e-09
5.32124e-08
1.90328e-09
5.32148e-08
1.8721e-09
5.3216e-08
1.8428e-09
5.32161e-08
1.81521e-09
5.32153e-08
1.78915e-09
5.32138e-08
1.76447e-09
5.32116e-08
1.74104e-09
5.32088e-08
1.71874e-09
5.32055e-08
1.69745e-09
5.32018e-08
1.67708e-09
5.31977e-08
1.65755e-09
5.31933e-08
1.63878e-09
5.31885e-08
1.62071e-09
5.31835e-08
1.60327e-09
5.31781e-08
1.58642e-09
5.31725e-08
1.5701e-09
5.31667e-08
1.55427e-09
5.31606e-08
1.5389e-09
5.31543e-08
1.52395e-09
5.31478e-08
1.50938e-09
5.3141e-08
1.49516e-09
5.3134e-08
1.48127e-09
5.31268e-08
1.46768e-09
5.31193e-08
1.45436e-09
5.31116e-08
1.44129e-09
5.31036e-08
1.42844e-09
5.30954e-08
1.4158e-09
5.30869e-08
1.40333e-09
5.30781e-08
1.39103e-09
5.30691e-08
1.37886e-09
5.30597e-08
1.36681e-09
5.30499e-08
1.35485e-09
5.30399e-08
1.34297e-09
5.30295e-08
1.33114e-09
5.30188e-08
1.31934e-09
5.30076e-08
1.30755e-09
5.29961e-08
1.29575e-09
5.29842e-08
1.28391e-09
5.29719e-08
1.27202e-09
5.29591e-08
1.26005e-09
5.29459e-08
1.24797e-09
5.29323e-08
1.23577e-09
5.29182e-08
1.22341e-09
5.29037e-08
1.21088e-09
5.28887e-08
1.19815e-09
5.28732e-08
1.18519e-09
5.28572e-08
1.17198e-09
5.28407e-08
1.15849e-09
5.28237e-08
1.1447e-09
5.28062e-08
1.13058e-09
5.27882e-08
1.11611e-09
5.27698e-08
1.10126e-09
5.27508e-08
1.08601e-09
5.27313e-08
1.07034e-09
5.27112e-08
1.05422e-09
5.26907e-08
1.03765e-09
5.26697e-08
1.02059e-09
5.26482e-08
1.00303e-09
5.26263e-08
9.84975e-10
5.26038e-08
9.66403e-10
5.25809e-08
9.47315e-10
5.25575e-08
9.27716e-10
5.25336e-08
9.07616e-10
5.25093e-08
8.87033e-10
5.24846e-08
8.65996e-10
5.24594e-08
8.44544e-10
5.24337e-08
8.22732e-10
5.24076e-08
8.00629e-10
5.23811e-08
7.78329e-10
5.23542e-08
7.55946e-10
5.23268e-08
7.3363e-10
5.22991e-08
7.11556e-10
5.22709e-08
6.8992e-10
5.22425e-08
6.68865e-10
5.2214e-08
6.48281e-10
5.21853e-08
6.27265e-10
6.02948e-10
5.37163e-08
1.72184e-09
-5.36417e-08
5.38064e-08
1.86631e-09
5.39085e-08
1.99643e-09
5.40185e-08
2.10867e-09
5.41323e-08
2.20092e-09
5.42463e-08
2.27249e-09
5.43576e-08
2.32386e-09
5.44635e-08
2.35629e-09
5.45623e-08
2.37161e-09
5.46525e-08
2.37202e-09
5.47335e-08
2.35995e-09
5.4805e-08
2.33789e-09
5.4867e-08
2.30822e-09
5.49202e-08
2.27313e-09
5.49651e-08
2.23452e-09
5.50026e-08
2.194e-09
5.50335e-08
2.15281e-09
5.50587e-08
2.11194e-09
5.50791e-08
2.07205e-09
5.50954e-08
2.03361e-09
5.51082e-08
1.99687e-09
5.51182e-08
1.96197e-09
5.51258e-08
1.92891e-09
5.51314e-08