/*--------------------------------*- C++ -*----------------------------------*\
| =========                 |                                                 |
| \\      /  F ield         | OpenFOAM: The Open Source CFD Toolbox           |
|  \\    /   O peration     | Version:  2.3.0                                 |
|   \\  /    A nd           | Web:      www.OpenFOAM.org                      |
|    \\/     M anipulation  |                                                 |
\*---------------------------------------------------------------------------*/
FoamFile
{
    version     2.0;
    format      ascii;
    class       volScalarField;
    location    "0.15";
    object      p;
}
// * * * * * * * * * * * * * * * * * * * * * * * * * * * * * * * * * * * * * //

dimensions      [0 2 -2 0 0 0 0];

internalField   nonuniform List<scalar> 
2945
(
0.00271863
0.00176727
0.000622305
-0.000201404
-0.000616987
-0.000722368
-0.000682665
-0.00061467
-0.000564573
-0.000537164
-0.000522756
-0.000512666
-0.000503537
-0.000494904
-0.00048716
-0.000480573
-0.00047447
-0.000467968
-0.000461084
-0.000454225
-0.000447183
-0.000439195
-0.000429688
-0.000418634
-0.000406104
-0.000391656
-0.000374406
-0.000353655
-0.000329443
-0.00030253
-0.000274598
-0.000246921
-0.000220723
-0.000196716
-0.000175099
-0.000155805
-0.000138623
-0.000123297
-0.000109589
-9.72925e-05
-8.62316e-05
-7.62692e-05
-6.73042e-05
-5.92643e-05
-5.20927e-05
-4.57353e-05
-4.01313e-05
-3.52118e-05
-3.09021e-05
-2.71269e-05
-2.38153e-05
-2.09044e-05
-1.83401e-05
-1.6077e-05
-1.40778e-05
-1.23104e-05
-1.07484e-05
-9.36797e-06
-8.14929e-06
-7.07332e-06
-6.12507e-06
-5.28829e-06
-4.5519e-06
-3.90173e-06
-3.32947e-06
-2.82332e-06
-2.37638e-06
-1.97921e-06
-1.62636e-06
-1.30933e-06
-1.02466e-06
-7.64978e-07
-5.26761e-07
-3.0597e-07
-9.67512e-08
0.00230302
0.00164069
0.000639806
-0.000142713
-0.000554758
-0.000673038
-0.000648682
-0.000592308
-0.000549742
-0.000526789
-0.000514865
-0.000506166
-0.000497946
-0.000490032
-0.000482907
-0.000476888
-0.000471293
-0.000465203
-0.000458656
-0.000452114
-0.000445387
-0.000437691
-0.000428436
-0.000417605
-0.000405297
-0.000391078
-0.000374039
-0.000353475
-0.000329403
-0.000302601
-0.00027474
-0.00024707
-0.000220858
-0.000196838
-0.000175208
-0.000155903
-0.000138711
-0.000123376
-0.000109661
-9.73568e-05
-8.6289e-05
-7.63199e-05
-6.73482e-05
-5.93018e-05
-5.21242e-05
-4.57616e-05
-4.01534e-05
-3.52307e-05
-3.09184e-05
-2.71412e-05
-2.3828e-05
-2.09156e-05
-1.83501e-05
-1.6086e-05
-1.40858e-05
-1.23175e-05
-1.07547e-05
-9.37347e-06
-8.15414e-06
-7.07757e-06
-6.1288e-06
-5.29155e-06
-4.55475e-06
-3.90421e-06
-3.33162e-06
-2.82518e-06
-2.37797e-06
-1.98056e-06
-1.62751e-06
-1.3103e-06
-1.02543e-06
-7.65632e-07
-5.27227e-07
-3.06405e-07
-9.69782e-08
0.00197735
0.00151845
0.000680224
-4.5926e-05
-0.00046261
-0.000607357
-0.000606925
-0.000565781
-0.000531665
-0.000513576
-0.000504692
-0.000497908
-0.000490945
-0.000483986
-0.000477682
-0.000472398
-0.00046743
-0.00046183
-0.000455677
-0.000449498
-0.000443125
-0.000435753
-0.000426775
-0.000416191
-0.000404132
-0.000390173
-0.000373386
-0.000353036
-0.000329118
-0.000302554
-0.000274592
-0.000246984
-0.00022081
-0.000196818
-0.000175205
-0.000155909
-0.000138723
-0.000123392
-0.000109679
-9.73751e-05
-8.63066e-05
-7.63355e-05
-6.73605e-05
-5.93105e-05
-5.21296e-05
-4.57643e-05
-4.01544e-05
-3.52309e-05
-3.09185e-05
-2.71414e-05
-2.38285e-05
-2.09164e-05
-1.83512e-05
-1.60871e-05
-1.40869e-05
-1.23186e-05
-1.07558e-05
-9.3745e-06
-8.15512e-06
-7.07846e-06
-6.12964e-06
-5.2923e-06
-4.55546e-06
-3.90485e-06
-3.33222e-06
-2.82573e-06
-2.37847e-06
-1.98103e-06
-1.62794e-06
-1.31069e-06
-1.02578e-06
-7.65959e-07
-5.27466e-07
-3.0661e-07
-9.70477e-08
0.00173497
0.00140129
0.000716298
5.62823e-05
-0.000359888
-0.000530177
-0.000554847
-0.000530134
-0.000505809
-0.000494073
-0.000489675
-0.000486006
-0.000481095
-0.000475532
-0.000470318
-0.000465961
-0.000461759
-0.000456767
-0.000451113
-0.000445378
-0.000439413
-0.000432416
-0.000423777
-0.000413507
-0.000401746
-0.000388083
-0.000371599
-0.00035156
-0.000327957
-0.00030165
-0.000273957
-0.000246515
-0.000220486
-0.000196612
-0.000175075
-0.000155828
-0.000138673
-0.000123362
-0.000109661
-9.73669e-05
-8.63046e-05
-7.63364e-05
-6.73618e-05
-5.93102e-05
-5.2127e-05
-4.57597e-05
-4.01485e-05
-3.52246e-05
-3.09124e-05
-2.7136e-05
-2.3824e-05
-2.09128e-05
-1.83482e-05
-1.60848e-05
-1.40851e-05
-1.23172e-05
-1.07546e-05
-9.37357e-06
-8.15442e-06
-7.07792e-06
-6.12927e-06
-5.29205e-06
-4.55534e-06
-3.90482e-06
-3.33227e-06
-2.82587e-06
-2.37868e-06
-1.98131e-06
-1.62826e-06
-1.31106e-06
-1.02617e-06
-7.66375e-07
-5.27837e-07
-3.06862e-07
-9.71676e-08
0.00154251
0.00128387
0.000730437
0.000142872
-0.000263221
-0.000452945
-0.000499769
-0.000490231
-0.000475133
-0.0004696
-0.000469968
-0.000469998
-0.000467734
-0.000463996
-0.000460137
-0.000456872
-0.000453573
-0.000449327
-0.000444294
-0.000439077
-0.000433558
-0.000426966
-0.00041872
-0.000408825
-0.000397408
-0.000384078
-0.000367966
-0.000348376
-0.000325299
-0.000299536
-0.000272374
-0.000245382
-0.000219753
-0.000196095
-0.000174731
-0.0001556
-0.000138521
-0.000123258
-0.000109592
-9.73231e-05
-8.62799e-05
-7.63251e-05
-6.73586e-05
-5.93108e-05
-5.21282e-05
-4.57599e-05
-4.01472e-05
-3.5222e-05
-3.09091e-05
-2.71324e-05
-2.38205e-05
-2.09095e-05
-1.83454e-05
-1.60823e-05
-1.4083e-05
-1.23155e-05
-1.07533e-05
-9.37251e-06
-8.15363e-06
-7.07735e-06
-6.12893e-06
-5.29187e-06
-4.55533e-06
-3.90496e-06
-3.33253e-06
-2.82627e-06
-2.37915e-06
-1.9819e-06
-1.62892e-06
-1.31182e-06
-1.02695e-06
-7.67207e-07
-5.28624e-07
-3.0742e-07
-9.75371e-08
0.00138423
0.00116968
0.000722194
0.000209658
-0.000176957
-0.000379684
-0.000445894
-0.000450402
-0.00044365
-0.000443454
-0.000447967
-0.000451483
-0.000451973
-0.000450228
-0.000447781
-0.000445577
-0.000443166
-0.000439708
-0.000435338
-0.000430649
-0.000425554
-0.000419351
-0.000411503
-0.000402002
-0.000390945
-0.000377964
-0.00036228
-0.000343264
-0.00032091
-0.000295956
-0.000269624
-0.000243355
-0.000218295
-0.000195088
-0.000174032
-0.000155115
-0.000138176
-0.000123009
-0.000109411
-9.71956e-05
-8.61944e-05
-7.62726e-05
-6.73305e-05
-5.9299e-05
-5.21259e-05
-4.57618e-05
-4.01501e-05
-3.52241e-05
-3.09098e-05
-2.71318e-05
-2.38189e-05
-2.09073e-05
-1.8343e-05
-1.608e-05
-1.40809e-05
-1.23136e-05
-1.07517e-05
-9.37124e-06
-8.15268e-06
-7.07669e-06
-6.12854e-06
-5.29173e-06
-4.5554e-06
-3.90525e-06
-3.33296e-06
-2.82692e-06
-2.37989e-06
-1.98283e-06
-1.62993e-06
-1.31299e-06
-1.02816e-06
-7.68496e-07
-5.29871e-07
-3.08366e-07
-9.82323e-08
0.00125129
0.00106406
0.000698909
0.000258835
-0.000101037
-0.000310754
-0.000393931
-0.000411752
-0.000412747
-0.00041714
-0.000425135
-0.000431764
-0.000434942
-0.000435263
-0.000434231
-0.00043299
-0.00043137
-0.000428654
-0.000424921
-0.000420712
-0.000415979
-0.000410102
-0.000402606
-0.00039347
-0.000382747
-0.000370103
-0.000354867
-0.000336495
-0.000314995
-0.000291036
-0.000265737
-0.000240404
-0.000216116
-0.00019351
-0.000172885
-0.000154277
-0.000137557
-0.000122543
-0.000109058
-9.69296e-05
-8.59996e-05
-7.61365e-05
-6.72416e-05
-5.9246e-05
-5.20977e-05
-4.57491e-05
-4.01455e-05
-3.52227e-05
-3.09089e-05
-2.713e-05
-2.38159e-05
-2.09034e-05
-1.83385e-05
-1.60753e-05
-1.40764e-05
-1.23095e-05
-1.07481e-05
-9.3682e-06
-8.15018e-06
-7.07471e-06
-6.12704e-06
-5.29069e-06
-4.55472e-06
-3.90499e-06
-3.33296e-06
-2.82727e-06
-2.38046e-06
-1.9837e-06
-1.63097e-06
-1.31428e-06
-1.02956e-06
-7.70038e-07
-5.31411e-07
-3.09614e-07
-9.92008e-08
0.00113762
0.000969898
0.000667666
0.000293115
-3.55745e-05
-0.0002465
-0.000343904
-0.000374343
-0.000382718
-0.000391151
-0.000402079
-0.000411471
-0.000417225
-0.000419643
-0.000420052
-0.00041973
-0.000418829
-0.000416801
-0.00041367
-0.000409904
-0.000405483
-0.000399876
-0.000392683
-0.000383872
-0.000373453
-0.000361128
-0.00034634
-0.00032864
-0.000308041
-0.00028515
-0.000260985
-0.000236708
-0.000213302
-0.000191393
-0.0001713
-0.000153083
-0.000136644
-0.000121835
-0.000108504
-9.64977e-05
-8.56672e-05
-7.58878e-05
-6.70632e-05
-5.91244e-05
-5.20193e-05
-4.5701e-05
-4.01166e-05
-3.52046e-05
-3.08958e-05
-2.71187e-05
-2.3805e-05
-2.08924e-05
-1.83275e-05
-1.60647e-05
-1.40664e-05
-1.23003e-05
-1.074e-05
-9.36111e-06
-8.14413e-06
-7.06966e-06
-6.12287e-06
-5.2874e-06
-4.55212e-06
-3.90313e-06
-3.33162e-06
-2.82655e-06
-2.38017e-06
-1.9839e-06
-1.63152e-06
-1.31524e-06
-1.03077e-06
-7.71497e-07
-5.32968e-07
-3.10963e-07
-1.00296e-07
0.00103897
0.000887342
0.000632895
0.000314742
1.91077e-05
-0.000187674
-0.000296015
-0.000338134
-0.000353651
-0.00036575
-0.000379142
-0.000390933
-0.000399099
-0.000403599
-0.00040548
-0.000406083
-0.000405875
-0.000404501
-0.000401946
-0.000398609
-0.000394485
-0.000389126
-0.000382209
-0.000373703
-0.000363574
-0.000351564
-0.00033723
-0.000320202
-0.000300502
-0.000278687
-0.000255674
-0.000232484
-0.000210006
-0.000188853
-0.000169348
-0.000151571
-0.000135459
-0.000120899
-0.000107759
-9.59026e-05
-8.51954e-05
-7.55205e-05
-6.67854e-05
-5.89214e-05
-5.1876e-05
-4.56023e-05
-4.0049e-05
-3.51568e-05
-3.08598e-05
-2.70891e-05
-2.37788e-05
-2.08682e-05
-1.8305e-05
-1.60437e-05
-1.40472e-05
-1.22831e-05
-1.07246e-05
-9.3477e-06
-8.13255e-06
-7.05979e-06
-6.11453e-06
-5.28051e-06
-4.54643e-06
-3.89864e-06
-3.32807e-06
-2.82397e-06
-2.37835e-06
-1.98285e-06
-1.63107e-06
-1.31542e-06
-1.0314e-06
-7.7254e-07
-5.34267e-07
-3.12193e-07
-1.01351e-07
0.000952207
0.000814868
0.000597204
0.000326172
6.32405e-05
-0.000135001
-0.000250633
-0.000303094
-0.000325523
-0.000341089
-0.000356558
-0.000370364
-0.000380712
-0.000387235
-0.000390606
-0.000392157
-0.000392647
-0.000391911
-0.000389912
-0.000387002
-0.000383187
-0.000378079
-0.000371436
-0.000363232
-0.000353401
-0.000341718
-0.000327846
-0.000311486
-0.000292666
-0.000271902
-0.000250016
-0.000227903
-0.000206365
-0.000185989
-0.000167099
-0.000149795
-0.000134045
-0.000119764
-0.000106842
-9.51601e-05
-8.45957e-05
-7.50419e-05
-6.6411e-05
-5.86355e-05
-5.16629e-05
-4.5446e-05
-3.99343e-05
-3.50709e-05
-3.07927e-05
-2.70339e-05
-2.37312e-05
-2.08259e-05
-1.82667e-05
-1.6009e-05
-1.4016e-05
-1.22552e-05
-1.07e-05
-9.32613e-06
-8.11383e-06
-7.04372e-06
-6.1008e-06
-5.26898e-06
-4.53674e-06
-3.89074e-06
-3.32161e-06
-2.81892e-06
-2.37446e-06
-1.98007e-06
-1.62923e-06
-1.31447e-06
-1.03115e-06
-7.72907e-07
-5.35093e-07
-3.13123e-07
-1.02238e-07
0.000875074
0.000750697
0.000562135
0.00032988
9.76403e-05
-8.89008e-05
-0.000208143
-0.000269208
-0.000298229
-0.000317206
-0.00033449
-0.000349931
-0.00036218
-0.000370611
-0.000375469
-0.000377998
-0.000379202
-0.000379093
-0.000377634
-0.000375152
-0.000371664
-0.000366827
-0.000360467
-0.000352577
-0.000343058
-0.000331723
-0.000318328
-0.000302633
-0.000284672
-0.000264922
-0.000244126
-0.000223066
-0.000202459
-0.000182863
-0.000164604
-0.000147795
-0.000132431
-0.000118453
-0.000105772
-9.4284e-05
-8.38792e-05
-7.44605e-05
-6.59457e-05
-5.82699e-05
-5.13803e-05
-4.52297e-05
-3.97687e-05
-3.4942e-05
-3.06894e-05
-2.69482e-05
-2.36578e-05
-2.07614e-05
-1.82094e-05
-1.59579e-05
-1.39704e-05
-1.22148e-05
-1.06644e-05
-9.29505e-06
-8.08681e-06
-7.02044e-06
-6.08082e-06
-5.25204e-06
-4.5224e-06
-3.87883e-06
-3.31174e-06
-2.81096e-06
-2.36814e-06
-1.97524e-06
-1.6257e-06
-1.31214e-06
-1.02982e-06
-7.72424e-07
-5.353e-07
-3.1364e-07
-1.02891e-07
0.000805971
0.000693329
0.000528442
0.000328005
0.000123553
-4.9396e-05
-0.00016892
-0.000236586
-0.000271689
-0.000294084
-0.000313043
-0.000329784
-0.000343613
-0.000353787
-0.0003601
-0.00036363
-0.000365567
-0.000366077
-0.000365139
-0.000363088
-0.000359948
-0.000355402
-0.00034934
-0.000341777
-0.000332589
-0.000321625
-0.000308725
-0.000293695
-0.00027657
-0.000257799
-0.000238055
-0.000218017
-0.000198324
-0.000179507
-0.000161888
-0.000145592
-0.000130633
-0.000116978
-0.000104558
-9.32805e-05
-8.30506e-05
-7.378e-05
-6.53927e-05
-5.7826e-05
-5.10283e-05
-4.49524e-05
-3.95498e-05
-3.47671e-05
-3.05467e-05
-2.68288e-05
-2.35555e-05
-2.06723e-05
-1.81308e-05
-1.58884e-05
-1.39089e-05
-1.21605e-05
-1.06167e-05
-9.25341e-06
-8.05061e-06
-6.98918e-06
-6.05392e-06
-5.22911e-06
-4.50289e-06
-3.86248e-06
-3.29809e-06
-2.79977e-06
-2.3591e-06
-1.96812e-06
-1.62028e-06
-1.30825e-06
-1.02724e-06
-7.70971e-07
-5.34792e-07
-3.1368e-07
-1.03284e-07
0.000743687
0.000641589
0.00049641
0.000322251
0.00014239
-1.62165e-05
-0.000133315
-0.000205462
-0.00024589
-0.000271676
-0.000292276
-0.000310051
-0.000325134
-0.00033684
-0.000344537
-0.000349075
-0.000351764
-0.000352886
-0.000352451
-0.000350829
-0.000348052
-0.000343814
-0.000338066
-0.000330846
-0.00032201
-0.000311438
-0.000299049
-0.000284683
-0.000268375
-0.000250551
-0.000231821
-0.000212773
-0.000193976
-0.000175933
-0.000158962
-0.000143191
-0.000128655
-0.000115342
-0.000103199
-9.215e-05
-8.21098e-05
-7.30001e-05
-6.4751e-05
-5.7303e-05
-5.06055e-05
-4.46122e-05
-3.92754e-05
-3.45436e-05
-3.03618e-05
-2.6673e-05
-2.34219e-05
-2.05561e-05
-1.8029e-05
-1.57987e-05
-1.38299e-05
-1.20911e-05
-1.05559e-05
-9.20031e-06
-8.00445e-06
-6.94927e-06
-6.01952e-06
-5.1997e-06
-4.4778e-06
-3.84131e-06
-3.28033e-06
-2.78506e-06
-2.3471e-06
-1.95851e-06
-1.6128e-06
-1.30266e-06
-1.02331e-06
-7.6846e-07
-5.335e-07
-3.13206e-07
-1.03417e-07
0.000687243
0.000594607
0.000466114
0.00031386
0.000155467
1.1109e-05
-0.000101554
-0.000176128
-0.000220903
-0.000249942
-0.000272204
-0.000290827
-0.000306859
-0.00031986
-0.000328828
-0.000334355
-0.000337811
-0.000339542
-0.00033959
-0.000338391
-0.000335988
-0.000332073
-0.000326653
-0.000319792
-0.000311324
-0.000301165
-0.000289299
-0.000275596
-0.000260086
-0.00024318
-0.000225429
-0.00020734
-0.000189421
-0.000172148
-0.000155828
-0.000140595
-0.000126497
-0.000113542
-0.000101695
-9.08895e-05
-8.10535e-05
-7.21175e-05
-6.40177e-05
-5.66979e-05
-5.01093e-05
-4.42063e-05
-3.89427e-05
-3.42689e-05
-3.01322e-05
-2.64784e-05
-2.32548e-05
-2.0411e-05
-1.79021e-05
-1.56874e-05
-1.37321e-05
-1.20053e-05
-1.04809e-05
-9.13487e-06
-7.94755e-06
-6.90004e-06
-5.97704e-06
-5.16329e-06
-4.44669e-06
-3.81496e-06
-3.25813e-06
-2.76657e-06
-2.3319e-06
-1.9462e-06
-1.60308e-06
-1.29525e-06
-1.01792e-06
-7.6481e-07
-5.31366e-07
-3.12191e-07
-1.03298e-07
0.000635836
0.000551713
0.000437508
0.000303685
0.000163922
3.31897e-05
-7.36961e-05
-0.000148872
-0.000196867
-0.000228862
-0.000252804
-0.000272173
-0.000288894
-0.000302941
-0.000313032
-0.000319499
-0.000323726
-0.000326065
-0.000326578
-0.000325792
-0.000323768
-0.000320186
-0.000315105
-0.000308615
-0.000300534
-0.000290805
-0.000279473
-0.00026643
-0.000251702
-0.000235684
-0.00021888
-0.000201722
-0.000184663
-0.000168152
-0.000152486
-0.000137801
-0.000124157
-0.000111576
-0.00010004
-8.94943e-05
-7.98771e-05
-7.11277e-05
-6.31885e-05
-5.60068e-05
-4.95359e-05
-4.37314e-05
-3.85488e-05
-3.394e-05
-2.98552e-05
-2.62425e-05
-2.30518e-05
-2.02348e-05
-1.77483e-05
-1.55528e-05
-1.36142e-05
-1.1902e-05
-1.03905e-05
-9.05615e-06
-7.87911e-06
-6.84079e-06
-5.92589e-06
-5.11937e-06
-4.40911e-06
-3.78304e-06
-3.23118e-06
-2.74401e-06
-2.31326e-06
-1.93101e-06
-1.59096e-06
-1.28587e-06
-1.01095e-06
-7.59937e-07
-5.28332e-07
-3.10609e-07
-1.02935e-07
0.000588797
0.000512353
0.000410486
0.000292322
0.000168705
5.06797e-05
-4.96475e-05
-0.000123915
-0.000173958
-0.000208451
-0.000234044
-0.000254116
-0.000271324
-0.000286173
-0.000297216
-0.000304546
-0.000309527
-0.00031247
-0.000313436
-0.000313048
-0.000311403
-0.000308164
-0.000303431
-0.00029732
-0.00028964
-0.000280358
-0.000269568
-0.000257178
-0.000243215
-0.000228061
-0.000212172
-0.000195917
-0.0001797
-0.000163945
-0.000148936
-0.000134807
-0.000121629
-0.000109439
-9.82301e-05
-8.79595e-05
-7.85756e-05
-7.00258e-05
-6.22587e-05
-5.52254e-05
-4.88814e-05
-4.3184e-05
-3.80901e-05
-3.3554e-05
-2.95279e-05
-2.59627e-05
-2.28106e-05
-2.00255e-05
-1.75658e-05
-1.53932e-05
-1.34745e-05
-1.17799e-05
-1.02839e-05
-8.9632e-06
-7.79831e-06
-6.77081e-06
-5.86544e-06
-5.06741e-06
-4.36459e-06
-3.74515e-06
-3.19912e-06
-2.7171e-06
-2.29094e-06
-1.91272e-06
-1.57627e-06
-1.27438e-06
-1.00229e-06
-7.53759e-07
-5.24343e-07
-3.08435e-07
-1.02333e-07
0.000545563
0.000476064
0.000384926
0.00028018
0.000170583
6.4217e-05
-2.9195e-05
-0.00010138
-0.000152361
-0.000188777
-0.000215897
-0.000236654
-0.000254211
-0.000269638
-0.000281452
-0.000289544
-0.000295235
-0.000298772
-0.000300184
-0.00030018
-0.000298905
-0.000296017
-0.000291639
-0.000285911
-0.000278641
-0.000269822
-0.000259579
-0.000247837
-0.000234624
-0.000220308
-0.000205304
-0.000189926
-0.000174535
-0.000159527
-0.000145175
-0.000131611
-0.000118912
-0.000107127
-9.62602e-05
-8.62798e-05
-7.71435e-05
-6.88067e-05
-6.12236e-05
-5.43492e-05
-4.81416e-05
-4.25601e-05
-3.75633e-05
-3.31075e-05
-2.91474e-05
-2.56363e-05
-2.25287e-05
-1.97809e-05
-1.73526e-05
-1.52069e-05
-1.33117e-05
-1.16376e-05
-1.01597e-05
-8.85502e-06
-7.70428e-06
-6.68934e-06
-5.79504e-06
-5.00684e-06
-4.31266e-06
-3.70087e-06
-3.1616e-06
-2.68553e-06
-2.26467e-06
-1.89112e-06
-1.55883e-06
-1.26064e-06
-9.91817e-07
-7.46189e-07
-5.19343e-07
-3.0564e-07
-1.01494e-07
0.000505655
0.000442467
0.00036071
0.000267535
0.000170158
7.44002e-05
-1.20504e-05
-8.1304e-05
-0.000132233
-0.000169936
-0.000198359
-0.000219769
-0.000237593
-0.00025341
-0.000265807
-0.000274545
-0.000280881
-0.000284984
-0.000286838
-0.000287207
-0.000286288
-0.000283752
-0.000279737
-0.000274392
-0.000267538
-0.000259193
-0.000249503
-0.000238402
-0.000225923
-0.000212422
-0.000198274
-0.000183748
-0.000169167
-0.000154899
-0.000141203
-0.000128209
-0.000116001
-0.000104636
-9.41254e-05
-8.445e-05
-7.55758e-05
-6.74652e-05
-6.00781e-05
-5.33736e-05
-4.73124e-05
-4.1856e-05
-3.69649e-05
-3.25974e-05
-2.87107e-05
-2.52606e-05
-2.22039e-05
-1.94987e-05
-1.71067e-05
-1.49923e-05
-1.31241e-05
-1.14738e-05
-1.00168e-05
-8.73057e-06
-7.59612e-06
-6.5956e-06
-5.71401e-06
-4.93707e-06
-4.2528e-06
-3.64977e-06
-3.11824e-06
-2.64899e-06
-2.23418e-06
-1.86598e-06
-1.53843e-06
-1.24449e-06
-9.79422e-07
-7.37137e-07
-5.13273e-07
-3.02194e-07
-1.00415e-07
0.000468651
0.000411235
0.000337738
0.000254581
0.000167895
8.17632e-05
2.11429e-06
-6.36524e-05
-0.000113693
-0.000152024
-0.000181454
-0.000203455
-0.000221489
-0.000237542
-0.000250347
-0.000259604
-0.000266501
-0.000271128
-0.000273416
-0.000274147
-0.000273567
-0.00027138
-0.000267731
-0.000262769
-0.000256336
-0.000248471
-0.000239334
-0.000228869
-0.000217112
-0.0002044
-0.000191079
-0.000177384
-0.000163599
-0.000150061
-0.000137018
-0.000124601
-0.000112894
-0.00010196
-9.18211e-05
-8.24652e-05
-7.38673e-05
-6.59963e-05
-5.88174e-05
-5.22939e-05
-4.63895e-05
-4.10677e-05
-3.62911e-05
-3.20204e-05
-2.82149e-05
-2.48328e-05
-2.18334e-05
-1.91767e-05
-1.68261e-05
-1.47474e-05
-1.29103e-05
-1.12871e-05
-9.85394e-06
-8.5888e-06
-7.4729e-06
-6.48879e-06
-5.62166e-06
-4.8575e-06
-4.1845e-06
-3.59141e-06
-3.06866e-06
-2.60714e-06
-2.1992e-06
-1.83707e-06
-1.51491e-06
-1.22578e-06
-9.64978e-07
-7.26511e-07
-5.06073e-07
-2.98062e-07
-9.9092e-08
0.00043419
0.000382073
0.000315911
0.000241468
0.000164151
8.67511e-05
1.3645e-05
-4.83213e-05
-9.6818e-05
-0.000135135
-0.000165216
-0.000187717
-0.000205903
-0.000222065
-0.000235135
-0.000244781
-0.00025213
-0.000257226
-0.000259936
-0.000261014
-0.000260757
-0.000258917
-0.00025563
-0.000251046
-0.000245037
-0.000237654
-0.000229065
-0.000219232
-0.000208188
-0.000196241
-0.000183717
-0.000170831
-0.000157829
-0.000145014
-0.00013262
-0.000120783
-0.000109588
-9.90983e-05
-8.9343e-05
-8.03206e-05
-7.20131e-05
-6.43951e-05
-5.74368e-05
-5.11057e-05
-4.53686e-05
-4.01912e-05
-3.55385e-05
-3.13731e-05
-2.76568e-05
-2.43503e-05
-2.14148e-05
-1.88126e-05
-1.65087e-05
-1.44705e-05
-1.26685e-05
-1.10761e-05
-9.66995e-06
-8.42862e-06
-7.33369e-06
-6.3681e-06
-5.51728e-06
-4.76753e-06
-4.10722e-06
-3.52533e-06
-3.01247e-06
-2.55966e-06
-2.15945e-06
-1.80416e-06
-1.48805e-06
-1.20435e-06
-9.4836e-07
-7.14219e-07
-4.97681e-07
-2.93212e-07
-9.75186e-08
0.000401972
0.000354729
0.000295118
0.000228297
0.000159211
8.97299e-05
2.28644e-05
-3.51543e-05
-8.16383e-05
-0.000119353
-0.000149682
-0.000172561
-0.000190844
-0.000206993
-0.000220209
-0.000230132
-0.000237806
-0.000243299
-0.000246418
-0.000247824
-0.00024787
-0.000246375
-0.000243443
-0.000239228
-0.000233644
-0.000226743
-0.000218693
-0.000209488
-0.000199148
-0.000187941
-0.000176184
-0.000164088
-0.000151859
-0.000139756
-0.000128007
-0.000116753
-0.000106079
-9.60455e-05
-8.6687e-05
-7.80117e-05
-7.00085e-05
-6.26568e-05
-5.59316e-05
-4.98046e-05
-4.42456e-05
-3.92229e-05
-3.47034e-05
-3.06523e-05
-2.70335e-05
-2.38101e-05
-2.09455e-05
-1.84041e-05
-1.61526e-05
-1.41596e-05
-1.23972e-05
-1.08394e-05
-9.46353e-06
-8.24892e-06
-7.17751e-06
-6.23268e-06
-5.40014e-06
-4.66653e-06
-4.02042e-06
-3.45106e-06
-2.94927e-06
-2.50621e-06
-2.11463e-06
-1.76699e-06
-1.45765e-06
-1.18003e-06
-9.2944e-07
-7.00165e-07
-4.88034e-07
-2.87607e-07
-9.56871e-08
0.000371742
0.000329015
0.000275269
0.000215105
0.000153286
9.10245e-05
3.00553e-05
-2.40043e-05
-6.81241e-05
-0.000104721
-0.000134912
-0.000158006
-0.000176303
-0.000192339
-0.0002056
-0.000215694
-0.000223572
-0.000229376
-0.000232871
-0.000234592
-0.000234926
-0.000233762
-0.000231176
-0.000227325
-0.000222162
-0.000215733
-0.000208216
-0.000199638
-0.000189994
-0.000179498
-0.000168479
-0.000157156
-0.000145688
-0.000134287
-0.000123178
-0.000112511
-0.000102366
-9.27983e-05
-8.38487e-05
-7.55338e-05
-6.78486e-05
-6.07765e-05
-5.42971e-05
-4.83861e-05
-4.30164e-05
-3.81587e-05
-3.37823e-05
-2.98546e-05
-2.63419e-05
-2.32094e-05
-2.0423e-05
-1.79489e-05
-1.57555e-05
-1.38131e-05
-1.20946e-05
-1.05754e-05
-9.23342e-06
-8.0486e-06
-7.00341e-06
-6.08169e-06
-5.26951e-06
-4.55385e-06
-3.92357e-06
-3.36815e-06
-2.87865e-06
-2.44644e-06
-2.06445e-06
-1.72533e-06
-1.42353e-06
-1.15266e-06
-9.0809e-07
-6.84253e-07
-4.77066e-07
-2.8121e-07
-9.35879e-08
0.000343263
0.000304773
0.00025633
0.000201938
0.000146481
9.08977e-05
3.5517e-05
-1.4758e-05
-5.62649e-05
-9.12239e-05
-0.000120965
-0.000144121
-0.000162257
-0.000178095
-0.000191355
-0.000201483
-0.000209445
-0.000215499
-0.000219305
-0.000221308
-0.000221943
-0.000221091
-0.000218817
-0.00021534
-0.000210605
-0.000204615
-0.000197614
-0.000189682
-0.000180728
-0.000170908
-0.000160596
-0.000150036
-0.000139322
-0.000128611
-0.000118133
-0.000108055
-9.84469e-05
-8.9355e-05
-8.08252e-05
-7.28834e-05
-6.55294e-05
-5.87502e-05
-5.2529e-05
-4.6846e-05
-4.16769e-05
-3.6995e-05
-3.27717e-05
-2.89768e-05
-2.55789e-05
-2.25456e-05
-1.98448e-05
-1.74447e-05
-1.53155e-05
-1.34289e-05
-1.17593e-05
-1.02828e-05
-8.97833e-06
-7.82653e-06
-6.8104e-06
-5.9143e-06
-5.12466e-06
-4.42888e-06
-3.8161e-06
-3.27611e-06
-2.80021e-06
-2.38002e-06
-2.00863e-06
-1.67893e-06
-1.38547e-06
-1.12207e-06
-8.84182e-07
-6.66389e-07
-4.64713e-07
-2.73989e-07
-9.12117e-08
0.000316308
0.000281843
0.000238296
0.000188941
0.0001389
8.94746e-05
3.95649e-05
-7.21666e-06
-4.61275e-05
-7.88741e-05
-0.000107818
-0.000131016
-0.000148761
-0.000164218
-0.000177516
-0.000187562
-0.000195422
-0.000201702
-0.000205763
-0.000207953
-0.000208916
-0.000208393
-0.000206364
-0.000203254
-0.000198985
-0.0001934
-0.000186866
-0.000179596
-0.000171352
-0.000162171
-0.000152525
-0.000142718
-0.000132757
-0.000122725
-0.00011287
-0.000103383
-9.43205e-05
-8.57137e-05
-7.7614e-05
-7.00575e-05
-6.30479e-05
-5.65743e-05
-5.0624e-05
-4.51809e-05
-4.02238e-05
-3.57284e-05
-3.16685e-05
-2.80161e-05
-2.4742e-05
-2.18162e-05
-1.92085e-05
-1.68893e-05
-1.48305e-05
-1.30054e-05
-1.13895e-05
-9.96015e-06
-8.69707e-06
-7.58167e-06
-6.59757e-06
-5.72968e-06
-4.96489e-06
-4.291e-06
-3.69749e-06
-3.17449e-06
-2.71357e-06
-2.3066e-06
-1.94689e-06
-1.62756e-06
-1.34328e-06
-1.08812e-06
-8.57596e-07
-6.46488e-07
-4.50909e-07
-2.65914e-07
-8.85646e-08
0.000290694
0.000260043
0.000221111
0.000176318
0.000130846
8.68546e-05
4.23821e-05
-1.00097e-06
-3.76432e-05
-6.78341e-05
-9.54311e-05
-0.000118691
-0.000135975
-0.000150729
-0.000164053
-0.000174034
-0.000181567
-0.000187982
-0.000192313
-0.000194577
-0.000195818
-0.000195686
-0.000193859
-0.000191049
-0.000187287
-0.000182119
-0.000175982
-0.000169351
-0.000161851
-0.0001533
-0.000144267
-0.000135188
-0.000125984
-0.000116628
-0.000107386
-9.84877e-05
-8.9979e-05
-8.1868e-05
-7.42091e-05
-6.70498e-05
-6.03979e-05
-5.42435e-05
-4.85769e-05
-4.3386e-05
-3.86528e-05
-3.43551e-05
-3.0469e-05
-2.6969e-05
-2.38281e-05
-2.10183e-05
-1.85117e-05
-1.62806e-05
-1.42987e-05
-1.25408e-05
-1.09837e-05
-9.60602e-06
-8.38833e-06
-7.31286e-06
-6.36391e-06
-5.52698e-06
-4.78943e-06
-4.13955e-06
-3.56718e-06
-3.06281e-06
-2.6183e-06
-2.22584e-06
-1.87892e-06
-1.57097e-06
-1.29675e-06
-1.05064e-06
-8.28194e-07
-6.24452e-07
-4.35584e-07
-2.56941e-07
-8.5656e-08
0.000253849
0.000228449
0.000196139
0.000157908
0.000118649
8.16743e-05
4.49018e-05
6.95668e-06
-2.6565e-05
-5.32028e-05
-7.80284e-05
-0.000100918
-0.000117729
-0.000131158
-0.000144143
-0.000154137
-0.000161091
-0.000167396
-0.000172121
-0.000174479
-0.00017595
-0.0001764
-0.000174946
-0.000172484
-0.000169428
-0.000164967
-0.000159407
-0.00015363
-0.000147245
-0.000139689
-0.000131547
-0.000123497
-0.000115415
-0.00010709
-9.87667e-05
-9.07479e-05
-8.30807e-05
-7.57348e-05
-6.87586e-05
-6.22163e-05
-5.61242e-05
-5.04726e-05
-4.52549e-05
-4.04646e-05
-3.60884e-05
-3.21073e-05
-2.85009e-05
-2.52469e-05
-2.23219e-05
-1.97012e-05
-1.73599e-05
-1.52735e-05
-1.34182e-05
-1.17712e-05
-1.03115e-05
-9.01929e-06
-7.87676e-06
-6.86744e-06
-5.97669e-06
-5.19102e-06
-4.4986e-06
-3.88847e-06
-3.35108e-06
-2.87756e-06
-2.46021e-06
-2.09174e-06
-1.76599e-06
-1.47686e-06
-1.21932e-06
-9.88177e-07
-7.79137e-07
-5.87631e-07
-4.09927e-07
-2.41858e-07
-8.06889e-08
0.000208524
0.000188329
0.000163696
0.000133889
0.00010244
7.27877e-05
4.41026e-05
1.39609e-05
-1.46377e-05
-3.77754e-05
-5.84955e-05
-7.88098e-05
-9.49101e-05
-0.000106906
-0.000118294
-0.000127935
-0.000134478
-0.000140036
-0.000144789
-0.000147441
-0.000148925
-0.000149772
-0.000149015
-0.000147017
-0.000144581
-0.00014113
-0.000136528
-0.000131672
-0.000126548
-0.000120433
-0.000113578
-0.000106772
-0.000100075
-9.31588e-05
-8.61166e-05
-7.92772e-05
-7.27478e-05
-6.64771e-05
-6.04792e-05
-5.48236e-05
-4.95424e-05
-4.46299e-05
-4.00793e-05
-3.58886e-05
-3.20505e-05
-2.85509e-05
-2.53733e-05
-2.24998e-05
-1.99113e-05
-1.75876e-05
-1.5508e-05
-1.36517e-05
-1.19987e-05
-1.05297e-05
-9.22643e-06
-8.07189e-06
-7.0505e-06
-6.14785e-06
-5.35099e-06
-4.64802e-06
-4.02839e-06
-3.48237e-06
-3.00141e-06
-2.57761e-06
-2.20406e-06
-1.87427e-06
-1.58269e-06
-1.32388e-06
-1.09329e-06
-8.863e-07
-6.99006e-07
-5.27329e-07
-3.67896e-07
-2.17066e-07
-7.24021e-08
0.000164444
0.000148285
0.000130112
0.0001084
8.46379e-05
6.14267e-05
3.93636e-05
1.68803e-05
-5.6838e-06
-2.52889e-05
-4.20158e-05
-5.82313e-05
-7.25043e-05
-8.31878e-05
-9.24027e-05
-0.000100831
-0.000106973
-0.00011159
-0.000115751
-0.000118568
-0.000120014
-0.000120895
-0.000120766
-0.000119355
-0.00011738
-0.000114853
-0.000111379
-0.000107431
-0.000103369
-9.8715e-05
-9.33276e-05
-8.78043e-05
-8.24466e-05
-7.70032e-05
-7.13836e-05
-6.58356e-05
-6.05325e-05
-5.54491e-05
-5.05609e-05
-4.59185e-05
-4.15674e-05
-3.75111e-05
-3.3742e-05
-3.02591e-05
-2.70603e-05
-2.41366e-05
-2.14756e-05
-1.90636e-05
-1.68861e-05
-1.49275e-05
-1.31714e-05
-1.16014e-05
-1.02014e-05
-8.95576e-06
-7.84963e-06
-6.869e-06
-6.00096e-06
-5.23349e-06
-4.55575e-06
-3.95772e-06
-3.4305e-06
-2.96585e-06
-2.55654e-06
-2.19585e-06
-1.8779e-06
-1.5972e-06
-1.34898e-06
-1.12865e-06
-9.32299e-07
-7.55996e-07
-5.96408e-07
-4.50047e-07
-3.14047e-07
-1.85332e-07
-6.1908e-08
0.000120319
0.00010813
9.53578e-05
8.07584e-05
6.42457e-05
4.73482e-05
3.13274e-05
1.56693e-05
-4.31727e-07
-1.55008e-05
-2.82054e-05
-3.99077e-05
-5.096e-05
-5.9755e-05
-6.67328e-05
-7.31672e-05
-7.83383e-05
-8.2009e-05
-8.51856e-05
-8.76906e-05
-8.90364e-05
-8.97644e-05
-8.9941e-05
-8.91195e-05
-8.76491e-05
-8.58875e-05
-8.35174e-05
-8.0583e-05
-7.75289e-05
-7.42425e-05
-7.04132e-05
-6.63076e-05
-6.23149e-05
-5.8365e-05
-5.42794e-05
-5.01642e-05
-4.62025e-05
-4.24187e-05
-3.87725e-05
-3.52831e-05
-3.19953e-05
-2.89231e-05
-2.60607e-05
-2.34061e-05
-2.09601e-05
-1.8719e-05
-1.66744e-05
-1.48168e-05
-1.31362e-05
-1.16216e-05
-1.02613e-05
-9.04315e-06
-7.95544e-06
-6.98652e-06
-6.12529e-06
-5.36119e-06
-4.68442e-06
-4.08579e-06
-3.55698e-06
-3.09027e-06
-2.67877e-06
-2.31608e-06
-1.99657e-06
-1.71501e-06
-1.46683e-06
-1.24772e-06
-1.05395e-06
-8.8196e-07
-7.2866e-07
-5.90984e-07
-4.66331e-07
-3.51966e-07
-2.45672e-07
-1.44986e-07
-4.82174e-08
7.45393e-05
6.69086e-05
5.9103e-05
5.05487e-05
4.07637e-05
3.04438e-05
2.05583e-05
1.10756e-05
1.35417e-06
-8.12684e-06
-1.62813e-05
-2.35044e-05
-3.04516e-05
-3.6336e-05
-4.08737e-05
-4.49054e-05
-4.83883e-05
-5.0906e-05
-5.29232e-05
-5.46173e-05
-5.56241e-05
-5.61149e-05
-5.62959e-05
-5.59044e-05
-5.50125e-05
-5.39392e-05
-5.2558e-05
-5.07595e-05
-4.8833e-05
-4.68538e-05
-4.45758e-05
-4.20335e-05
-3.95178e-05
-3.70814e-05
-3.45814e-05
-3.20204e-05
-2.95266e-05
-2.71502e-05
-2.48627e-05
-2.26613e-05
-2.05763e-05
-1.86245e-05
-1.68035e-05
-1.51108e-05
-1.35474e-05
-1.21122e-05
-1.08008e-05
-9.60735e-06
-8.52574e-06
-7.54936e-06
-6.67109e-06
-5.88352e-06
-5.17931e-06
-4.55124e-06
-3.99236e-06
-3.49602e-06
-3.05602e-06
-2.66652e-06
-2.32222e-06
-2.01818e-06
-1.74996e-06
-1.51346e-06
-1.30503e-06
-1.1213e-06
-9.59287e-07
-8.16224e-07
-6.89673e-07
-5.77319e-07
-4.7714e-07
-3.87159e-07
-3.05645e-07
-2.30855e-07
-1.61309e-07
-9.55755e-08
-3.26143e-08
2.55019e-05
2.29144e-05
2.02368e-05
1.73593e-05
1.41032e-05
1.06457e-05
7.27807e-06
4.03022e-06
7.42912e-07
-2.48934e-06
-5.33625e-06
-7.83034e-06
-1.02073e-05
-1.22867e-05
-1.38988e-05
-1.52891e-05
-1.65273e-05
-1.74494e-05
-1.81536e-05
-1.87515e-05
-1.91325e-05
-1.93066e-05
-1.93656e-05
-1.92464e-05
-1.89452e-05
-1.85748e-05
-1.81174e-05