/*--------------------------------*- C++ -*----------------------------------*\
| =========                 |                                                 |
| \\      /  F ield         | OpenFOAM: The Open Source CFD Toolbox           |
|  \\    /   O peration     | Version:  2.3.0                                 |
|   \\  /    A nd           | Web:      www.OpenFOAM.org                      |
|    \\/     M anipulation  |                                                 |
\*---------------------------------------------------------------------------*/
FoamFile
{
    version     2.0;
    format      ascii;
    class       volScalarField;
    location    "0.8";
    object      p;
}
// * * * * * * * * * * * * * * * * * * * * * * * * * * * * * * * * * * * * * //

dimensions      [0 2 -2 0 0 0 0];

internalField   nonuniform List<scalar> 
2250
(
0.00158094
0.00129958
0.00106956
0.000917472
0.00080212
0.000698306
0.000600137
0.000507241
0.000418979
0.000334416
0.000253004
0.000174652
9.95454e-05
2.80075e-05
-3.95615e-05
-0.000102722
-0.00016103
-0.000214075
-0.000261507
-0.000303064
-0.000338594
-0.000368063
-0.000391561
-0.000409298
-0.000421596
-0.000428872
-0.000431614
-0.000430364
-0.000425689
-0.00041816
-0.000408334
-0.000396733
-0.000383834
-0.000370062
-0.000355781
-0.000341298
-0.000326859
-0.00031266
-0.000298846
-0.000285521
-0.000272755
-0.000260585
-0.00024903
-0.000238087
-0.000227742
-0.000217974
-0.000208752
-0.000200045
-0.00019182
-0.000184045
-0.000176689
-0.000169721
-0.000163115
-0.000156846
-0.000150892
-0.000145233
-0.000139851
-0.000134729
-0.000129854
-0.000125211
-0.000120789
-0.000116576
-0.000112563
-0.000108738
-0.000105092
-0.000101616
-9.83013e-05
-9.51387e-05
-9.21197e-05
-8.92354e-05
-8.64771e-05
-8.38363e-05
-8.13042e-05
-7.88719e-05
-7.65306e-05
-7.42712e-05
-7.20845e-05
-6.99611e-05
-6.78913e-05
-6.58652e-05
-6.38725e-05
-6.19025e-05
-5.99442e-05
-5.79859e-05
-5.60151e-05
-5.4019e-05
-5.19836e-05
-4.98938e-05
-4.77336e-05
-4.54852e-05
-4.3129e-05
-4.06431e-05
-3.80023e-05
-3.51773e-05
-3.2132e-05
-2.88204e-05
-2.51782e-05
-2.10962e-05
-1.64078e-05
-1.22952e-05
0.00129022
0.00113818
0.00099276
0.000879457
0.000783399
0.000691714
0.000601727
0.00051419
0.000429429
0.000347233
0.000267476
0.000190302
0.000116033
4.50775e-05
-2.2112e-05
-8.50635e-05
-0.000143312
-0.000196431
-0.000244059
-0.000285921
-0.000321854
-0.000351811
-0.00037587
-0.000394227
-0.000407192
-0.000415167
-0.00041863
-0.000418111
-0.000414167
-0.00040736
-0.000398239
-0.000387322
-0.00037508
-0.000361933
-0.000348245
-0.000334317
-0.000320399
-0.000306683
-0.000293315
-0.000280401
-0.000268011
-0.000256185
-0.000244943
-0.000234284
-0.000224198
-0.000214665
-0.000205657
-0.000197145
-0.000189099
-0.000181486
-0.000174278
-0.000167446
-0.000160966
-0.000154812
-0.000148964
-0.000143403
-0.000138112
-0.000133075
-0.000128277
-0.000123707
-0.000119353
-0.000115204
-0.000111249
-0.000107479
-0.000103885
-0.000100459
-9.71898e-05
-9.40706e-05
-9.10925e-05
-8.8247e-05
-8.55255e-05
-8.29196e-05
-8.04207e-05
-7.80201e-05
-7.5709e-05
-7.34785e-05
-7.13195e-05
-6.92226e-05
-6.71783e-05
-6.51768e-05
-6.32077e-05
-6.12606e-05
-5.93244e-05
-5.73874e-05
-5.54374e-05
-5.34614e-05
-5.14454e-05
-4.93747e-05
-4.7233e-05
-4.50026e-05
-4.26641e-05
-4.01954e-05
-3.75715e-05
-3.47629e-05
-3.17335e-05
-2.84367e-05
-2.48079e-05
-2.07241e-05
-1.5899e-05
-1.29639e-05
0.00114038
0.00105271
0.000945482
0.000844641
0.000752492
0.000664546
0.000578929
0.000495856
0.000415562
0.000337902
0.00026272
0.000190045
0.000120079
5.31295e-05
-1.04369e-05
-7.02159e-05
-0.000125794
-0.000176777
-0.000222818
-0.00026364
-0.000299055
-0.000328981
-0.000353443
-0.000372578
-0.000386625
-0.000395914
-0.000400851
-0.000401898
-0.00039955
-0.000394318
-0.000386705
-0.000377197
-0.000366243
-0.000354249
-0.000341573
-0.000328521
-0.000315346
-0.000302252
-0.000289401
-0.000276909
-0.000264862
-0.000253314
-0.000242297
-0.00023182
-0.000221883
-0.000212471
-0.000203565
-0.00019514
-0.00018717
-0.000179628
-0.000172485
-0.000165715
-0.000159295
-0.0001532
-0.00014741
-0.000141906
-0.000136671
-0.000131689
-0.000126946
-0.00012243
-0.000118128
-0.00011403
-0.000110124
-0.000106403
-0.000102856
-9.94735e-05
-9.62478e-05
-9.317e-05
-9.02315e-05
-8.74238e-05
-8.47386e-05
-8.21673e-05
-7.97013e-05
-7.73321e-05
-7.5051e-05
-7.2849e-05
-7.07171e-05
-6.86461e-05
-6.66264e-05
-6.46483e-05
-6.27016e-05
-6.07758e-05
-5.88599e-05
-5.69423e-05
-5.50108e-05
-5.30525e-05
-5.10536e-05
-4.89991e-05
-4.68731e-05
-4.46578e-05
-4.23339e-05
-3.98797e-05
-3.72703e-05
-3.44769e-05
-3.14647e-05
-2.81901e-05
-2.4596e-05
-2.05897e-05
-1.61972e-05
-1.5745e-05
0.0009934
0.000934537
0.000855238
0.000773327
0.000694666
0.000618417
0.000543405
0.000469626
0.000397402
0.000326884
0.000258146
0.000191341
0.000126728
6.46386e-05
5.44438e-06
-5.04631e-05
-0.000102691
-0.000150869
-0.000194664
-0.000233809
-0.00026811
-0.000297463
-0.000321861
-0.000341391
-0.000356234
-0.000366656
-0.000372992
-0.000375632
-0.000375006
-0.000371562
-0.000365751
-0.000358011
-0.000348757
-0.00033837
-0.000327189
-0.00031551
-0.000303581
-0.000291611
-0.000279762
-0.00026816
-0.000256899
-0.000246044
-0.000235635
-0.000225694
-0.000216228
-0.000207232
-0.000198695
-0.000190599
-0.000182923
-0.000175644
-0.00016874
-0.000162188
-0.000155965
-0.000150052
-0.000144429
-0.00013908
-0.000133988
-0.000129138
-0.000124519
-0.000120118
-0.000115923
-0.000111925
-0.000108113
-0.000104479
-0.000101014
-9.77093e-05
-9.45562e-05
-9.15466e-05
-8.86725e-05
-8.59255e-05
-8.32977e-05
-8.07807e-05
-7.83663e-05
-7.60461e-05
-7.38116e-05
-7.1654e-05
-6.95646e-05
-6.75342e-05
-6.55534e-05
-6.36126e-05
-6.17018e-05
-5.98105e-05
-5.79279e-05
-5.60425e-05
-5.41422e-05
-5.22142e-05
-5.02448e-05
-4.82192e-05
-4.61215e-05
-4.39344e-05
-4.16388e-05
-3.92136e-05
-3.66351e-05
-3.38765e-05
-3.09075e-05
-2.76959e-05
-2.42155e-05
-2.04936e-05
-1.71246e-05
-1.98103e-05
0.000867699
0.000827359
0.000771094
0.000708043
0.000643127
0.000577585
0.000511596
0.000445592
0.00038015
0.000315715
0.000252596
0.000191072
0.000131449
7.40612e-05
1.92577e-05
-3.26095e-05
-8.11958e-05
-0.000126178
-0.000167268
-0.00020423
-0.000236888
-0.000265144
-0.000288973
-0.000308435
-0.000323667
-0.000334878
-0.00034234
-0.000346376
-0.000347345
-0.000345628
-0.000341616
-0.000335691
-0.000328222
-0.000319554
-0.000309997
-0.000299828
-0.000289285
-0.000278571
-0.000267849
-0.000257252
-0.00024688
-0.000236807
-0.000227086
-0.00021775
-0.000208815
-0.00020029
-0.000192169
-0.000184446
-0.000177105
-0.00017013
-0.000163504
-0.000157207
-0.000151221
-0.000145529
-0.000140114
-0.00013496
-0.000130052
-0.000125378
-0.000120925
-0.000116681
-0.000112636
-0.00010878
-0.000105104
-0.000101598
-9.8254e-05
-9.50642e-05
-9.202e-05
-8.91137e-05
-8.63372e-05
-8.36828e-05
-8.11425e-05
-7.87084e-05
-7.63725e-05
-7.41267e-05
-7.19626e-05
-6.98719e-05
-6.7846e-05
-6.5876e-05
-6.39527e-05
-6.20668e-05
-6.02083e-05
-5.83672e-05
-5.65327e-05
-5.46935e-05
-5.28377e-05
-5.09528e-05
-4.90252e-05
-4.70406e-05
-4.49833e-05
-4.28365e-05
-4.05819e-05
-3.81998e-05
-3.56687e-05
-3.29664e-05
-3.00726e-05
-2.69784e-05
-2.37211e-05
-2.05226e-05
-1.85322e-05
-2.38329e-05
0.000758293
0.00072884
0.000687531
0.000638473
0.000585052
0.000529233
0.000472008
0.000414082
0.000356089
0.000298552
0.000241873
0.000186393
0.000132441
8.03488e-05
3.04474e-05
-1.69361e-05
-6.14876e-05
-0.000102915
-0.000140959
-0.000175404
-0.000206087
-0.000232906
-0.000255824
-0.000274874
-0.000290154
-0.000301824
-0.0003101
-0.000315243
-0.000317548
-0.000317335
-0.000314935
-0.000310677
-0.000304886
-0.000297864
-0.000289895
-0.000281231
-0.000272097
-0.000262685
-0.000253155
-0.000243641
-0.000234247
-0.000225054
-0.000216122
-0.000207493
-0.000199192
-0.000191236
-0.000183629
-0.00017637
-0.000169452
-0.000162864
-0.000156592
-0.000150623
-0.000144943
-0.000139535
-0.000134387
-0.000129483
-0.000124812
-0.000120361
-0.000116118
-0.000112074
-0.000108218
-0.000104542
-0.000101035
-9.76907e-05
-9.44998e-05
-9.14549e-05
-8.85482e-05
-8.57722e-05
-8.31194e-05
-8.05822e-05
-7.81532e-05
-7.58248e-05
-7.35893e-05
-7.14389e-05
-6.93658e-05
-6.73617e-05
-6.54183e-05
-6.35271e-05
-6.16793e-05
-5.98656e-05
-5.80765e-05
-5.6302e-05
-5.45318e-05
-5.27547e-05
-5.09592e-05
-4.91328e-05
-4.72627e-05
-4.53345e-05
-4.33336e-05
-4.12437e-05
-3.90481e-05
-3.6729e-05
-3.42691e-05
-3.16538e-05
-2.88785e-05
-2.59691e-05
-2.30449e-05
-2.05162e-05
-1.98044e-05
-2.62096e-05
0.000660939
0.000638173
0.000606864
0.000568632
0.000525443
0.000479019
0.000430515
0.00038072
0.000330273
0.000279722
0.00022953
0.000180096
0.000131784
8.49388e-05
3.98913e-05
-3.04419e-06
-4.35729e-05
-8.14252e-05
-0.000116364
-0.00014819
-0.000176753
-0.00020195
-0.000223739
-0.000242129
-0.000257189
-0.000269039
-0.000277848
-0.000283824
-0.000287209
-0.000288264
-0.000287268
-0.000284502
-0.000280242
-0.000274756
-0.000268292
-0.000261079
-0.000253324
-0.000245204
-0.000236874
-0.000228463
-0.000220078
-0.000211802
-0.0002037
-0.00019582
-0.000188197
-0.000180853
-0.000173801
-0.000167045
-0.000160585
-0.000154417
-0.000148533
-0.000142922
-0.000137574
-0.000132478
-0.000127621
-0.000122993
-0.000118581
-0.000114376
-0.000110366
-0.000106544
-0.000102898
-9.94217e-05
-9.61057e-05
-9.29423e-05
-8.99239e-05
-8.70431e-05
-8.42927e-05
-8.16653e-05
-7.91539e-05
-7.67514e-05
-7.44506e-05
-7.22442e-05
-7.0125e-05
-6.80855e-05
-6.61181e-05
-6.4215e-05
-6.23683e-05
-6.05696e-05
-5.88105e-05
-5.7082e-05
-5.53749e-05
-5.36796e-05
-5.19859e-05
-5.02831e-05
-4.85599e-05
-4.68044e-05
-4.50039e-05
-4.31451e-05
-4.12137e-05
-3.91951e-05
-3.70741e-05
-3.48363e-05
-3.24698e-05
-2.997e-05
-2.73515e-05
-2.46782e-05
-2.21399e-05
-2.02427e-05
-2.03018e-05
-2.60606e-05
0.000572538
0.000554351
0.000530084
0.000500139
0.000465483
0.000427357
0.000386797
0.000344576
0.000301315
0.000257554
0.00021377
0.000170381
0.000127758
8.62453e-05
4.61618e-05
7.8041e-06
-2.85545e-05
-6.26671e-05
-9.43171e-05
-0.000123323
-0.000149542
-0.000172876
-0.000193272
-0.000210726
-0.000225278
-0.000237016
-0.000246066
-0.000252591
-0.000256782
-0.000258853
-0.000259031
-0.00025755
-0.000254645
-0.000250544
-0.000245466
-0.000239612
-0.000233167
-0.000226296
-0.000219143
-0.00021183
-0.000204462
-0.000197122
-0.00018988
-0.000182787
-0.000175883
-0.000169195
-0.000162744
-0.000156539
-0.000150585
-0.000144884
-0.000139432
-0.000134223
-0.00012925
-0.000124505
-0.000119978
-0.00011566
-0.000111541
-0.000107613
-0.000103867
-0.000100293
-9.68847e-05
-9.36331e-05
-9.05309e-05
-8.75708e-05
-8.47457e-05
-8.20486e-05
-7.94727e-05
-7.70113e-05
-7.46577e-05
-7.24053e-05
-7.02472e-05
-6.81766e-05
-6.61866e-05
-6.42703e-05
-6.24203e-05
-6.06292e-05
-5.88895e-05
-5.71933e-05
-5.55323e-05
-5.3898e-05
-5.22816e-05
-5.06737e-05
-4.90646e-05
-4.74438e-05
-4.58007e-05
-4.41236e-05
-4.24006e-05
-4.06191e-05
-3.87659e-05
-3.68279e-05
-3.47925e-05
-3.26491e-05
-3.03922e-05
-2.80279e-05
-2.55887e-05
-2.31657e-05
-2.09774e-05
-1.94952e-05
-1.96465e-05
-2.34756e-05
0.000491145
0.000476359
0.000457269
0.000433698
0.000406031
0.000375091
0.000341703
0.000306529
0.00027012
0.000232963
0.000195499
0.000158125
0.000121199
8.50475e-05
4.99716e-05
1.62483e-05
-1.58695e-05
-4.61546e-05
-7.44076e-05
-0.00010046
-0.000124179
-0.000145466
-0.000164262
-0.000180549
-0.000194346
-0.000205711
-0.000214735
-0.000221542
-0.00022628
-0.000229118
-0.000230239
-0.000229835
-0.0002281
-0.000225228
-0.000221404
-0.000216804
-0.000211591
-0.000205913
-0.0001999
-0.000193669
-0.000187316
-0.000180926
-0.000174565
-0.000168288
-0.000162138
-0.000156147
-0.000150338
-0.000144726
-0.000139322
-0.00013413
-0.000129151
-0.000124383
-0.000119823
-0.000115464
-0.000111301
-0.000107325
-0.00010353
-9.99086e-05
-9.64524e-05
-9.31544e-05
-9.00073e-05
-8.70041e-05
-8.41381e-05
-8.14026e-05
-7.87911e-05
-7.62972e-05
-7.39147e-05
-7.16372e-05
-6.94587e-05
-6.73728e-05
-6.53734e-05
-6.34539e-05
-6.1608e-05
-5.9829e-05
-5.81101e-05
-5.64443e-05
-5.48245e-05
-5.32432e-05
-5.16925e-05
-5.01643e-05
-4.86502e-05
-4.71413e-05
-4.5628e-05
-4.41008e-05
-4.2549e-05
-4.09619e-05
-3.93282e-05
-3.76361e-05
-3.58739e-05
-3.40303e-05
-3.20955e-05
-3.00631e-05
-2.79338e-05
-2.57226e-05
-2.34718e-05
-2.12757e-05
-1.93197e-05
-1.79191e-05
-1.7506e-05
-1.88599e-05
0.000415274
0.00040319
0.000388082
0.00036952
0.000347577
0.000322777
0.000295722
0.000266935
0.000236865
0.000205924
0.000174497
0.000142937
0.000111571
8.0697e-05
5.05893e-05
2.15001e-05
-6.34122e-06
-3.27287e-05
-5.74817e-05
-8.04465e-05
-0.000101498
-0.000120543
-0.000137519
-0.000152396
-0.000165177
-0.000175896
-0.000184616
-0.000191427
-0.000196438
-0.000199782
-0.000201601
-0.000202049
-0.000201284
-0.000199465
-0.000196747
-0.000193279
-0.000189201
-0.000184643
-0.000179722
-0.000174542
-0.000169193
-0.000163753
-0.000158289
-0.000152853
-0.00014749
-0.000142233
-0.000137109
-0.000132137
-0.000127329
-0.000122694
-0.000118237
-0.000113958
-0.000109857
-0.00010593
-0.000102174
-9.85842e-05
-9.51539e-05
-9.18776e-05
-8.87493e-05
-8.57626e-05
-8.29116e-05
-8.019e-05
-7.7592e-05
-7.51116e-05
-7.2743e-05
-7.04805e-05
-6.83184e-05
-6.6251e-05
-6.42726e-05
-6.23775e-05
-6.05598e-05
-5.88137e-05
-5.71332e-05
-5.55119e-05
-5.39436e-05
-5.24216e-05
-5.09391e-05
-4.94888e-05
-4.80633e-05
-4.66548e-05
-4.52549e-05
-4.3855e-05
-4.2446e-05
-4.1018e-05
-3.9561e-05
-3.80643e-05
-3.65168e-05
-3.49073e-05
-3.3225e-05
-3.14596e-05
-2.96035e-05
-2.76533e-05
-2.56136e-05
-2.35028e-05
-2.1361e-05
-1.92588e-05
-1.72986e-05
-1.55823e-05
-1.41152e-05
-1.31511e-05
0.000359228
0.000348961
0.000336379
0.000321016
0.000302828
0.000282181
0.00025953
0.000235287
0.000209819
0.000183473
0.000156578
0.000129448
0.000102371
7.56149e-05
4.9427e-05
2.40343e-05
-3.562e-07
-2.35589e-05
-4.54103e-05
-6.57706e-05
-8.45251e-05
-0.000101585
-0.00011689
-0.000130406
-0.000142127
-0.000152072
-0.000160288
-0.00016684
-0.000171818
-0.000175323
-0.000177474
-0.000178395
-0.000178219
-0.000177077
-0.000175102
-0.000172421
-0.000169157
-0.000165423
-0.000161321
-0.000156947
-0.000152381
-0.000147697
-0.000142956
-0.000138209
-0.000133499
-0.000128859
-0.000124317
-0.000119892
-0.0001156
-0.000111451
-0.00010745
-0.000103602
-9.99075e-05
-9.6365e-05
-9.29722e-05
-8.97257e-05
-8.66213e-05
-8.36544e-05
-8.08198e-05
-7.81125e-05
-7.55271e-05
-7.30585e-05
-7.07012e-05
-6.84502e-05
-6.63001e-05
-6.4246e-05
-6.22825e-05
-6.04046e-05
-5.86071e-05
-5.68847e-05
-5.52323e-05
-5.36443e-05
-5.21152e-05
-5.06394e-05
-4.92109e-05
-4.78238e-05
-4.64716e-05
-4.51477e-05
-4.38452e-05
-4.25568e-05
-4.12748e-05
-3.99912e-05
-3.86974e-05
-3.73844e-05
-3.60427e-05
-3.46625e-05
-3.32336e-05
-3.17456e-05
-3.01886e-05
-2.85536e-05
-2.68335e-05
-2.50253e-05
-2.31326e-05
-2.11692e-05
-1.91627e-05
-1.71553e-05
-1.51912e-05
-1.32758e-05
-1.13091e-05
-9.51609e-06
0.000316838
0.000307871
0.000297035
0.000283877
0.00026831
0.000250605
0.000231123
0.000210197
0.000188134
0.000165232
0.000141777
0.000118044
9.42921e-05
7.0761e-05
4.76734e-05
2.52343e-05
3.63034e-06
-1.69708e-05
-3.64217e-05
-5.45959e-05
-7.13892e-05
-8.67204e-05
-0.000100532
-0.00011279
-0.000123485
-0.00013263
-0.000140258
-0.000146423
-0.000151197
-0.000154665
-0.000156923
-0.000158079
-0.000158242
-0.000157527
-0.000156046
-0.000153911
-0.000151228
-0.000148096
-0.000144608
-0.000140847
-0.000136887
-0.000132795
-0.000128628
-0.000124433
-0.000120251
-0.000116114
-0.00011205
-0.000108078
-0.000104214
-0.00010047
-9.68515e-05
-9.33644e-05
-9.00106e-05
-8.67903e-05
-8.37023e-05
-8.07442e-05
-7.79129e-05
-7.52046e-05
-7.26152e-05
-7.01404e-05
-6.77755e-05
-6.5516e-05
-6.33571e-05
-6.12943e-05
-5.93227e-05
-5.74379e-05
-5.5635e-05
-5.39096e-05
-5.22569e-05
-5.06722e-05
-4.91507e-05
-4.76876e-05
-4.6278e-05
-4.49168e-05
-4.35989e-05
-4.23187e-05
-4.1071e-05
-3.98497e-05
-3.86491e-05
-3.74629e-05
-3.62845e-05
-3.51071e-05
-3.39238e-05
-3.2727e-05
-3.15091e-05
-3.02622e-05
-2.89783e-05
-2.76494e-05
-2.62678e-05
-2.48266e-05
-2.332e-05
-2.17443e-05
-2.00988e-05
-1.83855e-05
-1.66086e-05
-1.47689e-05
-1.28512e-05
-1.0803e-05
-8.52095e-06
-6.0492e-06
0.00027333
0.00026561
0.000256393
0.000245278
0.000232161
0.000217241
0.000200798
0.000183096
0.000164382
0.000144904
0.000124901
0.000104609
8.42493e-05
6.40306e-05
4.41471e-05
2.47777e-05
6.08592e-06
-1.17814e-05
-2.86948e-05
-4.4543e-05
-5.92336e-05
-7.2694e-05
-8.48716e-05
-9.57337e-05
-0.000105268
-0.00011348
-0.000120396
-0.000126056
-0.000130517
-0.000133846
-0.000136122
-0.000137433
-0.000137869
-0.000137525
-0.000136496
-0.000134875
-0.000132754
-0.000130216
-0.000127343
-0.000124206
-0.000120873
-0.000117401
-0.000113841
-0.000110238
-0.000106628
-0.000103043
-9.95066e-05
-9.60399e-05
-9.26578e-05
-8.9372e-05
-8.61904e-05
-8.31185e-05
-8.01594e-05
-7.73144e-05
-7.45832e-05
-7.19646e-05
-6.94563e-05
-6.70556e-05
-6.47592e-05
-6.25635e-05
-6.04647e-05
-5.84589e-05
-5.6542e-05
-5.47101e-05
-5.29591e-05
-5.12849e-05
-4.96834e-05
-4.81505e-05
-4.66822e-05
-4.52742e-05
-4.39224e-05
-4.26225e-05
-4.13702e-05
-4.0161e-05
-3.89904e-05
-3.78536e-05
-3.67459e-05
-3.56621e-05
-3.45971e-05
-3.35455e-05
-3.25015e-05
-3.14593e-05
-3.04128e-05
-2.93555e-05
-2.82809e-05
-2.71823e-05
-2.60527e-05
-2.48851e-05
-2.36729e-05
-2.24094e-05
-2.10884e-05
-1.97042e-05
-1.82509e-05
-1.67217e-05
-1.5106e-05
-1.33847e-05
-1.15222e-05
-9.45588e-06
-7.08152e-06
-4.25853e-06
0.000228506
0.000222063
0.000214451
0.000205335
0.000194612
0.000182421
0.000168972
0.000154466
0.000139098
0.000123061
0.000106551
8.97604e-05
7.28722e-05
5.60609e-05
3.94897e-05
2.33098e-05
7.65961e-06
-7.33614e-06
-2.15672e-05
-3.49384e-05
-4.73705e-05
-5.88002e-05
-6.91809e-05
-7.84824e-05
-8.66909e-05
-9.38081e-05
-9.98508e-05
-0.000104849
-0.000108846
-0.000111894
-0.000114056
-0.000115399
-0.000115997
-0.000115927
-0.000115264
-0.000114087
-0.000112468
-0.00011048
-0.000108188
-0.000105655
-0.000102936
-0.000100082
-9.71361e-05
-9.4138e-05
-9.11201e-05
-8.81101e-05
-8.51307e-05
-8.22003e-05
-7.93336e-05
-7.65415e-05
-7.38323e-05
-7.12118e-05
-6.86834e-05
-6.62493e-05
-6.39099e-05
-6.16648e-05
-5.95126e-05
-5.74514e-05
-5.54787e-05
-5.35917e-05
-5.17873e-05
-5.00624e-05
-4.84136e-05
-4.68377e-05
-4.5331e-05
-4.38903e-05
-4.25121e-05
-4.11928e-05
-3.9929e-05
-3.87171e-05
-3.75535e-05
-3.64346e-05
-3.53568e-05
-3.43162e-05
-3.33089e-05
-3.2331e-05
-3.13784e-05
-3.04468e-05
-2.95317e-05
-2.86288e-05
-2.77331e-05
-2.68397e-05
-2.59435e-05
-2.50393e-05
-2.41214e-05
-2.31843e-05
-2.2222e-05
-2.12288e-05
-2.01987e-05
-1.91255e-05
-1.80031e-05
-1.68247e-05
-1.55824e-05
-1.4266e-05
-1.28605e-05
-1.13427e-05
-9.67556e-06
-7.79795e-06
-5.6079e-06
-2.94929e-06
0.00018211
0.000176973
0.000170958
0.0001638
0.000155408
0.000145878
0.000135359
0.000124002
0.000111948
9.93468e-05
8.6347e-05
7.30981e-05
5.97447e-05
4.64247e-05
3.32681e-05
2.0396e-05
7.91937e-06
-4.06123e-06
-1.54568e-05
-2.61902e-05
-3.61967e-05
-4.54244e-05
-5.38342e-05
-6.14001e-05
-6.81087e-05
-7.39588e-05
-7.89611e-05
-8.31366e-05
-8.65165e-05
-8.91398e-05
-9.10529e-05
-9.23075e-05
-9.29597e-05
-9.30677e-05
-9.26912e-05
-9.18899e-05
-9.07218e-05
-8.92431e-05
-8.75068e-05
-8.5562e-05
-8.34541e-05
-8.12239e-05
-7.89075e-05
-7.6537e-05
-7.41396e-05
-7.17388e-05
-6.93541e-05
-6.70013e-05
-6.46933e-05
-6.24401e-05
-6.02492e-05
-5.81261e-05
-5.60744e-05
-5.40965e-05
-5.21934e-05
-5.03652e-05
-4.86111e-05
-4.693e-05
-4.532e-05
-4.37792e-05
-4.23052e-05
-4.08955e-05
-3.95477e-05
-3.82589e-05
-3.70265e-05
-3.58477e-05
-3.47198e-05
-3.36398e-05
-3.2605e-05
-3.16125e-05
-3.06594e-05
-2.97428e-05
-2.88596e-05
-2.80068e-05
-2.71813e-05
-2.63799e-05
-2.55993e-05
-2.48359e-05
-2.40864e-05
-2.33471e-05
-2.26141e-05
-2.18835e-05
-2.11512e-05
-2.04131e-05
-1.96647e-05
-1.89015e-05
-1.81189e-05
-1.73121e-05
-1.64763e-05
-1.56061e-05
-1.4696e-05
-1.37395e-05
-1.27289e-05
-1.16537e-05
-1.0499e-05
-9.24237e-06
-7.84942e-06
-6.26578e-06
-4.40805e-06
-2.15641e-06
0.000133788
0.000130012
0.000125619
0.000120419
0.000114343
0.000107451
9.98462e-05
9.16286e-05
8.28979e-05
7.37568e-05
6.43117e-05
5.46692e-05
4.49337e-05
3.52056e-05
2.55798e-05
1.61453e-05
6.98397e-06
-1.82977e-06
-1.02299e-05
-1.81588e-05
-2.55682e-05
-3.24188e-05
-3.86807e-05
-4.43334e-05
-4.93655e-05
-5.37746e-05
-5.75666e-05
-6.07552e-05
-6.33611e-05
-6.54114e-05
-6.69379e-05
-6.79772e-05
-6.85684e-05
-6.87532e-05
-6.85742e-05
-6.8074e-05
-6.7295e-05
-6.62777e-05
-6.50609e-05
-6.36811e-05
-6.21715e-05
-6.05628e-05
-5.88822e-05
-5.71537e-05
-5.53984e-05
-5.36342e-05
-5.18762e-05
-5.01371e-05
-4.84269e-05
-4.67537e-05
-4.51238e-05
-4.35418e-05
-4.20109e-05
-4.05332e-05
-3.911e-05
-3.77416e-05
-3.64277e-05
-3.51677e-05
-3.39604e-05
-3.28045e-05
-3.16983e-05
-3.06402e-05
-2.96281e-05
-2.86603e-05
-2.77347e-05
-2.68492e-05
-2.60018e-05
-2.51903e-05
-2.44128e-05
-2.3667e-05
-2.29508e-05
-2.2262e-05
-2.15984e-05
-2.09577e-05
-2.03375e-05
-1.97355e-05
-1.91493e-05
-1.85762e-05
-1.80137e-05
-1.74592e-05
-1.69097e-05
-1.63624e-05
-1.58143e-05
-1.52623e-05
-1.47031e-05
-1.41336e-05
-1.35501e-05
-1.29493e-05
-1.23272e-05
-1.16799e-05
-1.10028e-05
-1.02906e-05
-9.53652e-06
-8.73158e-06
-7.86298e-06
-6.91196e-06
-5.85071e-06
-4.63823e-06
-3.21704e-06
-1.50913e-06
8.27402e-05
8.03997e-05
7.76875e-05
7.44926e-05
7.07717e-05
6.65585e-05
6.19116e-05
5.68899e-05
5.15516e-05
4.59578e-05
4.01721e-05
3.42589e-05
2.82817e-05
2.23016e-05
1.6377e-05
1.05627e-05
4.90922e-06
-5.37389e-07
-5.73611e-06
-1.06512e-05
-1.52524e-05
-1.9515e-05
-2.34201e-05
-2.69545e-05
-3.01105e-05
-3.28858e-05
-3.52832e-05
-3.73105e-05
-3.89795e-05
-4.03058e-05
-4.13084e-05
-4.20087e-05
-4.24304e-05
-4.25983e-05
-4.25381e-05
-4.22756e-05
-4.18365e-05
-4.12458e-05
-4.05271e-05
-3.97029e-05
-3.87939e-05
-3.78191e-05
-3.67957e-05
-3.57387e-05
-3.46614e-05
-3.35754e-05
-3.24903e-05
-3.14143e-05
-3.0354e-05
-2.93148e-05
-2.83009e-05
-2.73153e-05
-2.63604e-05
-2.54377e-05
-2.45481e-05
-2.36921e-05
-2.28696e-05
-2.20803e-05
-2.13236e-05
-2.05988e-05
-1.99049e-05
-1.92409e-05
-1.86056e-05
-1.79979e-05
-1.74166e-05
-1.68603e-05
-1.63278e-05
-1.58178e-05
-1.53291e-05
-1.48602e-05
-1.44098e-05
-1.39766e-05
-1.35592e-05
-1.31561e-05
-1.27659e-05
-1.23872e-05
-1.20184e-05
-1.16578e-05
-1.13041e-05
-1.09553e-05
-1.06098e-05
-1.02659e-05
-9.92162e-06
-9.57508e-06
-9.2243e-06
-8.86723e-06
-8.5017e-06
-8.12548e-06
-7.7362e-06
-7.33121e-06
-6.90751e-06
-6.4615e-06
-5.98858e-06
-5.4825e-06
-4.93458e-06
-4.33236e-06
-3.65796e-06
-2.88616e-06
-1.98326e-06
-9.04967e-07
2.83838e-05
2.75749e-05
2.66282e-05
2.55166e-05
2.42284e-05
2.27741e-05
2.11727e-05
1.94441e-05
1.76078e-05
1.56845e-05
1.36961e-05
1.16643e-05
9.61103e-06
7.55718e-06
5.52281e-06
3.52671e-06
1.58624e-06
-2.82825e-07
-2.06645e-06
-3.75243e-06
-5.33044e-06
-6.79212e-06
-8.13104e-06
-9.34277e-06
-1.04247e-05
-1.13763e-05
-1.21983e-05
-1.28936e-05
-1.34662e-05
-1.39214e-05
-1.42658e-05
-1.45066e-05
-1.46519e-05
-1.47102e-05
-1.46901e-05
-1.46005e-05
-1.44502e-05
-1.42477e-05
-1.4001e-05
-1.37178e-05
-1.34053e-05
-1.30699e-05
-1.27175e-05
-1.23533e-05
-1.19819e-05
-1.16073e-05
-1.12329e-05
-1.08613e-05
-1.04951e-05
-1.0136e-05
-9.78549e-06
-9.4447e-06
-9.11443e-06
-8.79524e-06
-8.48745e-06
-8.19123e-06
-7.90659e-06
-7.63343e-06
-7.37154e-06
-7.12068e-06
-6.88052e-06
-6.6507e-06
-6.43084e-06
-6.22052e-06
-6.01934e-06
-5.82684e-06
-5.64259e-06
-5.46614e-06
-5.29704e-06
-5.13483e-06
-4.97903e-06
-4.82919e-06
-4.68481e-06
-4.54541e-06
-4.41049e-06
-4.27954e-06
-4.15203e-06
-4.02742e-06
-3.90516e-06
-3.78467e-06
-3.66535e-06
-3.5466e-06
-3.42777e-06
-3.3082e-06
-3.18722e-06
-3.06413e-06
-2.93818e-06
-2.80858e-06
-2.67451e-06
-2.53504e-06
-2.3891e-06
-2.23537e-06
-2.07219e-06
-1.89728e-06
-1.70749e-06
-1.49835e-06
-1.26349e-06
-9.93927e-07
-6.77207e-07
-2.95767e-07
0.000126326
0.000129175
0.000135499
0.000144863
0.000156907
0.000171548
0.000188835
0.000208852
0.000231701
0.000257522
0.000286497
0.000318865
0.00035493
0.00039508
0.000439819
0.000489811
0.00054595
0.000609474
0.000682152
0.000766626
0.000867055
0.000990471
0.00114987
0.00137375
0.00172251
0.000125611
0.000128291
0.000134422
0.000143582
0.000155404
0.000169796
0.000186802
0.000206497
0.000228977
0.000254369
0.000282844
0.000314622
0.000349982
0.000389276
0.000432957
0.00048161
0.000536007
0.000597182
0.000666544
0.000746052
0.000838425
0.00094729
0.00107647
0.00122473
0.001362
0.000124399
0.000126988
0.000132978
0.000141972
0.0001536
0.000167763
0.000184501
0.000203881
0.000225991
0.000250947
0.000278904
0.000310061
0.000344663
0.00038302
0.000425516
0.000472634
0.000524987
0.000583342
0.000648658
0.00072207
0.000804745
0.000897283
0.000997816
0.00109681
0.00116645
0.000122577
0.000125077
0.000130891
0.000139656
0.000151005
0.000164838
0.000181183
0.000200103
0.000221671
0.000245989
0.000273188
0.000303434
0.000336932
0.000373925
0.000414708
0.000459629
0.000509093
0.000563545
0.000623424
0.000689023
0.000760151
0.000835363
0.000910379
0.000975373
0.00101211
0.000120028
0.000122435
0.000128048
0.000136536
0.000147547
0.000160972
0.000176834
0.000195181
0.000216075
0.000239595
0.000265846
0.000294954
0.00032707
0.000362363
0.000401022
0.000443239
0.000489194
0.000539003
0.000592623
0.00064966
0.000709018
0.000768297
0.000822893
0.000865063
0.000883927
0.000116622
0.000118928
0.000124311
0.000132468
0.000143062
0.000155983
0.00017124
0.00018887
0.000208916
0.000231435
0.000256497
0.000284185
0.000314588
0.000347792
0.00038387
0.000422857
0.000464717
0.000509273
0.000556104
0.000604366
0.000652531
0.00069804
0.000736958
0.000763897
0.000772736
0.000112216
0.000114407
0.000119522
0.000127285
0.000137376
0.000149681
0.000164199
0.000180954
0.000199968
0.000221272
0.000244899
0.000270885
0.000299255
0.000330009
0.000363109
0.000398446
0.000435801
0.000474779
0.000514716
0.00055456
0.000592714
0.000626905
0.000654143
0.00067094
0.000673969
0.00010665
0.000108708
0.000113512
0.00012081
0.000130298
0.000141865
0.000155497
0.000171202
0.000188984
0.000208842
0.000230777
0.000254774
0.000280796
0.000308767
0.00033855
0.000369921
0.00040253
0.000435848
0.000469109
0.000501237
0.000530793
0.00055596
0.000574632
0.000584658
0.000584287
9.9755e-05
0.000101657
0.000106101
0.000112852
0.000121631
0.000132324
0.00014491
0.000159379
0.000175716
0.000193895
0.000213879
0.000235612
0.000259004
0.000283912
0.000310129
0.000337353
0.000365159
0.000392971
0.000420025
0.000445349
0.000467759
0.000485908
0.000498389
0.000503928
0.000501643
9.13557e-05
9.30748e-05
9.70978e-05
0.000103213
0.000111162
0.000120835
0.000132202
0.00014524
0.000159914
0.000176177
0.000193963
0.000213181
0.000233699
0.000255333
0.00027783
0.000300852
0.000323958
0.000346587
0.000368055
0.000387553
0.000404176
0.000416978
0.000425064
0.00042771
0.000424498
8.34885e-05
8.5046e-05
8.86944e-05
9.4238e-05
0.000101439
0.000110195
0.00012047
0.000132232
0.000145438
0.000160025
0.000175914
0.000192996
0.00021112
0.000230088
0.000249636
0.000269427
0.000289039
0.000307961
0.000325596
0.000341275
0.000354286
0.000363928
0.000369583
0.000370796
0.000367373
7.6767e-05
7.81933e-05
8.153e-05
8.65964e-05
9.31738e-05
0.000101165
0.000110531
0.000121237
0.000133231
0.000146446
0.000160793
0.000176155
0.000192374
0.000209247
0.000226513
0.000243845
0.00026085
0.000277064
0.000291964
0.000304986
0.000315554
0.000323129
0.000327258
0.000327638
0.000324164
6.89448e-05
7.02212e-05
7.32014e-05
7.77235e-05
8.35909e-05
9.07131e-05
9.90513e-05
0.000108566
0.000119204
0.000130892
0.000143538
0.000157023
0.000171189
0.000185837
0.000200718
0.00021553
0.000229918
0.000243476
0.000255762
0.000266316
0.000274688
0.000280472
0.000283352
0.000283133
0.000279772
5.98713e-05
6.0976e-05
6.35502e-05
6.74537e-05
7.2515e-05
7.86531e-05
8.58301e-05
9.4006e-05
0.000103126
0.00011312
0.000123896
0.000135337
0.000147297
0.00015959
0.00017199
0.00018423
0.000196004
0.000206974
0.000216779
0.000225061
0.00023148
0.000235746
0.000237642
0.000237054
0.00023398
4.93923e-05
5.03013e-05
5.2415e-05
5.56173e-05
5.97666e-05
6.47939e-05
7.06645e-05
7.73411e-05
8.4773e-05
9.28947e-05
0.000101623
0.000110855
0.000120457
0.000130271
0.000140105
0.000149736
0.000158917
0.00016738
0.000174849
0.000181057
0.00018576
0.000188759
0.000189918
0.000189171
0.000186537
3.73604e-05
3.80473e-05
3.96402e-05
4.2051e-05
4.51723e-05
4.89509e-05
5.33583e-05
5.83633e-05
6.39238e-05
6.99858e-05
7.64817e-05
8.33271e-05
9.04179e-05
9.76284e-05
0.000104811
0.000111798
0.000118405
0.00012444
0.000129707
0.000134022
0.000137224
0.000139186
0.000139826
0.000139114
0.000137074
2.36503e-05
2.40861e-05
2.50927e-05
2.66138e-05
2.85815e-05
3.09615e-05
3.37348e-05
3.688e-05
4.03688e-05
4.41647e-05
4.82224e-05
5.2486e-05
5.68872e-05
6.13444e-05
6.57633e-05
7.00381e-05
7.40548e-05
7.76954e-05
8.08438e-05
8.33924e-05
8.52493e-05
8.63449e-05
8.66371e-05
8.61145e-05
8.47964e-05
8.184e-06
8.33658e-06
8.6869e-06
9.21513e-06
9.89789e-06
1.07233e-05
1.16846e-05
1.27741e-05
1.39818e-05
1.52945e-05
1.66962e-05
1.81669e-05
1.96824e-05
2.1214e-05
2.27285e-05
2.41893e-05
2.55569e-05
2.67911e-05
2.78524e-05
2.87049e-05
2.93184e-05
2.96707e-05
2.97488e-05
2.95509e-05
2.90861e-05
)
;

boundaryField
{
    top
    {
        type            fixedValue;
        value           uniform 0;
    }
    inlet
    {
        type            zeroGradient;
    }
    outlet
    {
        type            fixedValue;
        value           uniform 0;
    }
    plate
    {
        type            zeroGradient;
    }
    symmBound
    {
        type            zeroGradient;
    }
    frontAndBack
    {
        type            empty;
    }
}


// ************************************************************************* //
