/*--------------------------------*- C++ -*----------------------------------*\
| =========                 |                                                 |
| \\      /  F ield         | OpenFOAM: The Open Source CFD Toolbox           |
|  \\    /   O peration     | Version:  2.3.0                                 |
|   \\  /    A nd           | Web:      www.OpenFOAM.org                      |
|    \\/     M anipulation  |                                                 |
\*---------------------------------------------------------------------------*/
FoamFile
{
    version     2.0;
    format      ascii;
    class       volVectorField;
    location    "0.8";
    object      U_0;
}
// * * * * * * * * * * * * * * * * * * * * * * * * * * * * * * * * * * * * * //

dimensions      [0 1 -1 0 0 0 0];

internalField   nonuniform List<vector> 
2250
(
(0.184647 0.00407597 1.19026e-06)
(0.177451 0.00444638 3.07446e-06)
(0.170047 0.00453787 4.4053e-06)
(0.162473 0.00449586 5.46492e-06)
(0.154921 0.0043851 6.30649e-06)
(0.14749 0.00422994 6.874e-06)
(0.14021 0.0040444 7.14443e-06)
(0.133095 0.0038393 7.12465e-06)
(0.126166 0.00362228 6.81874e-06)
(0.119442 0.0033984 6.22319e-06)
(0.112942 0.00317109 5.33572e-06)
(0.106681 0.00294289 4.1606e-06)
(0.100674 0.00271582 2.70947e-06)
(0.0949337 0.00249158 1.00098e-06)
(0.0894712 0.0022717 -9.39173e-07)
(0.0842958 0.00205758 -3.07828e-06)
(0.0794144 0.00185058 -5.37709e-06)
(0.0748318 0.001652 -7.79096e-06)
(0.0705501 0.00146306 -1.02713e-05)
(0.0665685 0.00128488 -1.27677e-05)
(0.0628837 0.00111843 -1.52296e-05)
(0.0594895 0.00096451 -1.7609e-05)
(0.0563771 0.000823669 -1.9862e-05)
(0.0535353 0.00069622 -2.19511e-05)
(0.0509508 0.00058221 -2.3846e-05)
(0.0486084 0.000481423 -2.55249e-05)
(0.0464917 0.000393406 -2.69747e-05)
(0.0445832 0.000317499 -2.81907e-05)
(0.042865 0.000252876 -2.91758e-05)
(0.0413192 0.000198597 -2.99398e-05)
(0.039928 0.000153652 -3.04976e-05)
(0.0386743 0.000117002 -3.08682e-05)
(0.0375421 8.76139e-05 -3.10731e-05)
(0.0365161 6.44906e-05 -3.1135e-05)
(0.0355828 4.66884e-05 -3.10765e-05)
(0.0347296 3.33329e-05 -3.09193e-05)
(0.0339455 2.36282e-05 -3.06839e-05)
(0.0332209 1.68627e-05 -3.03882e-05)
(0.0325473 1.24116e-05 -3.00482e-05)
(0.0319176 9.73595e-06 -2.96773e-05)
(0.0313258 8.3799e-06 -2.92865e-05)
(0.0307666 7.96593e-06 -2.88848e-05)
(0.0302361 8.1881e-06 -2.84789e-05)
(0.0297306 8.80493e-06 -2.80739e-05)
(0.0292475 9.63654e-06 -2.76736e-05)
(0.0287843 1.0551e-05 -2.72803e-05)
(0.0283393 1.14539e-05 -2.68955e-05)
(0.027911 1.22814e-05 -2.652e-05)
(0.0274981 1.29933e-05 -2.6154e-05)
(0.0270996 1.35679e-05 -2.57974e-05)
(0.0267147 1.39969e-05 -2.545e-05)
(0.0263427 1.42819e-05 -2.51113e-05)
(0.0259829 1.44308e-05 -2.47809e-05)
(0.0256348 1.44557e-05 -2.44585e-05)
(0.0252979 1.43705e-05 -2.41436e-05)
(0.0249718 1.41903e-05 -2.38362e-05)
(0.024656 1.39294e-05 -2.3536e-05)
(0.0243501 1.36019e-05 -2.3243e-05)
(0.0240538 1.32203e-05 -2.29573e-05)
(0.0237666 1.27957e-05 -2.26788e-05)
(0.0234883 1.2338e-05 -2.24078e-05)
(0.0232184 1.18554e-05 -2.21443e-05)
(0.0229566 1.1355e-05 -2.18886e-05)
(0.0227028 1.08426e-05 -2.16407e-05)
(0.0224564 1.0323e-05 -2.14007e-05)
(0.0222174 9.79994e-06 -2.11686e-05)
(0.0219853 9.27656e-06 -2.09444e-05)
(0.02176 8.75522e-06 -2.07279e-05)
(0.0215412 8.23778e-06 -2.05189e-05)
(0.0213288 7.72568e-06 -2.0317e-05)
(0.0211224 7.21998e-06 -2.01217e-05)
(0.020922 6.72145e-06 -1.99325e-05)
(0.0207272 6.23064e-06 -1.97485e-05)
(0.0205381 5.74792e-06 -1.95688e-05)
(0.0203543 5.27352e-06 -1.93924e-05)
(0.0201758 4.8076e-06 -1.92178e-05)
(0.0200024 4.35021e-06 -1.90436e-05)
(0.019834 3.90139e-06 -1.8868e-05)
(0.0196705 3.46113e-06 -1.8689e-05)
(0.0195118 3.02945e-06 -1.85044e-05)
(0.0193577 2.60637e-06 -1.83115e-05)
(0.0192082 2.19192e-06 -1.81074e-05)
(0.0190632 1.78621e-06 -1.78888e-05)
(0.0189225 1.38946e-06 -1.76519e-05)
(0.0187861 1.00193e-06 -1.73925e-05)
(0.0186538 6.24056e-07 -1.71057e-05)
(0.0185257 2.56471e-07 -1.67863e-05)
(0.0184015 -9.99492e-08 -1.64278e-05)
(0.0182813 -4.43898e-07 -1.60235e-05)
(0.0181648 -7.73524e-07 -1.55652e-05)
(0.0180519 -1.08611e-06 -1.50439e-05)
(0.0179425 -1.3774e-06 -1.44489e-05)
(0.0178364 -1.64059e-06 -1.37677e-05)
(0.0177333 -1.8641e-06 -1.29855e-05)
(0.0176328 -2.02656e-06 -1.2084e-05)
(0.0175343 -2.08355e-06 -1.10396e-05)
(0.0174365 -1.92701e-06 -9.82024e-06)
(0.0173373 -1.52751e-06 -8.37118e-06)
(0.0172428 -5.7125e-07 -6.5897e-06)
(0.0169308 5.52424e-05 -5.2455e-06)
(0.193866 0.00625477 8.27927e-07)
(0.193709 0.0068481 2.42211e-06)
(0.193065 0.007067 3.78005e-06)
(0.191937 0.00712845 4.8506e-06)
(0.190426 0.00711765 5.66189e-06)
(0.188604 0.00705715 6.21481e-06)
(0.186508 0.00695724 6.50163e-06)
(0.184167 0.00682637 6.52642e-06)
(0.181609 0.00667035 6.29723e-06)
(0.178865 0.00649253 5.81871e-06)
(0.175963 0.00629504 5.09413e-06)
(0.172929 0.00607964 4.12942e-06)
(0.169788 0.0058481 2.93484e-06)
(0.166565 0.00560225 1.52527e-06)
(0.163282 0.00534413 -7.95382e-08)
(0.15996 0.00507595 -1.85486e-06)
(0.15662 0.00480013 -3.7711e-06)
(0.153279 0.00451922 -5.79436e-06)
(0.149955 0.0042359 -7.88746e-06)
(0.146662 0.00395291 -1.00111e-05)
(0.143413 0.00367293 -1.21255e-05)
(0.140221 0.00339857 -1.41917e-05)
(0.137095 0.00313225 -1.61736e-05)
(0.134042 0.00287615 -1.80387e-05)
(0.131069 0.00263213 -1.97601e-05)
(0.12818 0.00240173 -2.13166e-05)
(0.125379 0.00218608 -2.26938e-05)
(0.122668 0.00198595 -2.38837e-05)
(0.120047 0.00180172 -2.48848e-05)
(0.117516 0.0016334 -2.57009e-05)
(0.115074 0.00148071 -2.63411e-05)
(0.11272 0.00134308 -2.68177e-05)
(0.110452 0.00121974 -2.71462e-05)
(0.108267 0.00110974 -2.73436e-05)
(0.106163 0.00101202 -2.74276e-05)
(0.104136 0.000925474 -2.74158e-05)
(0.102184 0.000848964 -2.7325e-05)
(0.100303 0.000781379 -2.71709e-05)
(0.0984912 0.000721656 -2.69673e-05)
(0.0967447 0.000668798 -2.67266e-05)
(0.0950609 0.000621898 -2.64591e-05)
(0.0934368 0.000580135 -2.61733e-05)
(0.0918697 0.000542787 -2.58763e-05)
(0.0903571 0.000509218 -2.55732e-05)
(0.0888964 0.000478876 -2.52682e-05)
(0.0874853 0.00045129 -2.49642e-05)
(0.0861213 0.000426066 -2.46631e-05)
(0.0848024 0.000402878 -2.43664e-05)
(0.0835265 0.000381455 -2.40749e-05)
(0.0822916 0.000361576 -2.37888e-05)
(0.0810959 0.000343059 -2.35084e-05)
(0.0799376 0.000325755 -2.32336e-05)
(0.0788151 0.000309542 -2.29643e-05)
(0.0777267 0.000294317 -2.27004e-05)
(0.0766709 0.000279995 -2.24417e-05)
(0.0756464 0.000266503 -2.21883e-05)
(0.0746517 0.000253777 -2.194e-05)
(0.0736856 0.000241763 -2.16971e-05)
(0.0727469 0.00023041 -2.14596e-05)
(0.0718344 0.000219675 -2.12276e-05)
(0.0709469 0.000209514 -2.10013e-05)
(0.0700836 0.000199891 -2.0781e-05)
(0.0692433 0.00019077 -2.05668e-05)
(0.0684251 0.000182116 -2.0359e-05)
(0.0676283 0.000173899 -2.01575e-05)
(0.0668519 0.000166089 -1.99625e-05)
(0.0660951 0.000158659 -1.9774e-05)
(0.0653573 0.000151581 -1.95919e-05)
(0.0646377 0.000144832 -1.9416e-05)
(0.0639357 0.000138389 -1.92461e-05)
(0.0632507 0.00013223 -1.90816e-05)
(0.062582 0.000126337 -1.8922e-05)
(0.0619292 0.00012069 -1.87667e-05)
(0.0612916 0.000115274 -1.86148e-05)
(0.060669 0.000110072 -1.84652e-05)
(0.0600606 0.000105071 -1.83166e-05)
(0.0594663 0.000100257 -1.81677e-05)
(0.0588854 9.56186e-05 -1.80168e-05)
(0.0583177 9.11451e-05 -1.78619e-05)
(0.0577628 8.68265e-05 -1.77009e-05)
(0.0572203 8.2654e-05 -1.75311e-05)
(0.0566899 7.86197e-05 -1.73498e-05)
(0.0561712 7.47164e-05 -1.71537e-05)
(0.055664 7.09381e-05 -1.69392e-05)
(0.0551679 6.72792e-05 -1.6702e-05)
(0.0546827 6.37354e-05 -1.64375e-05)
(0.0542079 6.03032e-05 -1.61404e-05)
(0.0537434 5.69805e-05 -1.58045e-05)
(0.0532888 5.37666e-05 -1.5423e-05)
(0.0528437 5.06632e-05 -1.4988e-05)
(0.0524079 4.76754e-05 -1.44905e-05)
(0.0519808 4.48141e-05 -1.39201e-05)
(0.0515621 4.21005e-05 -1.32645e-05)
(0.0511511 3.95759e-05 -1.25092e-05)
(0.050747 3.73254e-05 -1.16365e-05)
(0.0503486 3.55395e-05 -1.06241e-05)
(0.0499535 3.46871e-05 -9.44278e-06)
(0.0495573 3.61409e-05 -8.04434e-06)
(0.0491663 4.8698e-05 -6.39591e-06)
(0.0484826 0.000155693 -6.49488e-06)
(0.194971 0.0054421 6.59051e-07)
(0.195387 0.00604253 2.01131e-06)
(0.195769 0.00645348 3.22933e-06)
(0.196026 0.00676658 4.17715e-06)
(0.196148 0.00701857 4.87508e-06)
(0.196138 0.00721398 5.36121e-06)
(0.195994 0.00735404 5.63759e-06)
(0.195709 0.00744264 5.69977e-06)
(0.195282 0.007484 5.55128e-06)
(0.194712 0.00748142 5.19814e-06)
(0.194005 0.00743766 4.64499e-06)
(0.193163 0.00735546 3.89669e-06)
(0.192192 0.00723772 2.96047e-06)
(0.191099 0.00708753 1.84681e-06)
(0.189891 0.00690815 5.69586e-07)
(0.188577 0.00670308 -8.53824e-07)
(0.187167 0.00647599 -2.40254e-06)
(0.185669 0.00623074 -4.05241e-06)
(0.184093 0.00597127 -5.77652e-06)
(0.18245 0.00570157 -7.54591e-06)
(0.180749 0.00542555 -9.33046e-06)
(0.178999 0.00514699 -1.11e-05)
(0.17721 0.00486942 -1.28252e-05)
(0.17539 0.00459606 -1.44789e-05)
(0.173548 0.00432972 -1.6037e-05)
(0.171689 0.00407277 -1.74789e-05)
(0.169822 0.0038271 -1.87888e-05)
(0.167952 0.00359409 -1.99556e-05)
(0.166083 0.0033747 -2.0973e-05)
(0.164219 0.00316938 -2.18391e-05)
(0.162365 0.00297825 -2.25565e-05)
(0.160524 0.00280107 -2.31315e-05)
(0.158697 0.00263731 -2.35733e-05)
(0.156886 0.00248627 -2.3893e-05)
(0.155093 0.00234711 -2.41037e-05)
(0.153319 0.00221889 -2.42189e-05)
(0.151565 0.00210065 -2.42522e-05)
(0.149831 0.00199144 -2.4217e-05)
(0.148119 0.00189035 -2.41256e-05)
(0.146427 0.00179653 -2.39896e-05)
(0.144757 0.00170919 -2.3819e-05)
(0.143108 0.00162763 -2.36223e-05)
(0.141481 0.00155124 -2.3407e-05)
(0.139876 0.00147948 -2.31789e-05)
(0.138292 0.00141187 -2.29427e-05)
(0.13673 0.00134802 -2.27021e-05)
(0.13519 0.00128757 -2.246e-05)
(0.133672 0.00123025 -2.22184e-05)
(0.132176 0.0011758 -2.19787e-05)
(0.130702 0.00112402 -2.17419e-05)
(0.12925 0.00107473 -2.15087e-05)
(0.12782 0.00102778 -2.12793e-05)
(0.126411 0.00098304 -2.1054e-05)
(0.125024 0.000940384 -2.08328e-05)
(0.12366 0.000899708 -2.06159e-05)
(0.122316 0.000860914 -2.04033e-05)
(0.120995 0.00082391 -2.01951e-05)
(0.119694 0.000788612 -1.99913e-05)
(0.118415 0.000754936 -1.9792e-05)
(0.117157 0.000722806 -1.95975e-05)
(0.11592 0.000692147 -1.94079e-05)
(0.114703 0.000662885 -1.92234e-05)
(0.113507 0.000634951 -1.90441e-05)
(0.112332 0.000608278 -1.88702e-05)
(0.111176 0.000582799 -1.87017e-05)
(0.11004 0.000558454 -1.85389e-05)
(0.108923 0.00053518 -1.83816e-05)
(0.107826 0.00051292 -1.82298e-05)
(0.106747 0.000491619 -1.80833e-05)
(0.105687 0.000471225 -1.79419e-05)
(0.104646 0.000451686 -1.78051e-05)
(0.103622 0.000432956 -1.76725e-05)
(0.102617 0.000414989 -1.75434e-05)
(0.101629 0.000397743 -1.74169e-05)
(0.100658 0.000381178 -1.72921e-05)
(0.0997045 0.000365255 -1.71679e-05)
(0.0987676 0.000349939 -1.70428e-05)
(0.0978471 0.000335197 -1.69152e-05)
(0.0969427 0.000320999 -1.67834e-05)
(0.0960543 0.000307314 -1.66451e-05)
(0.0951816 0.000294117 -1.64981e-05)
(0.0943242 0.000281382 -1.63394e-05)
(0.093482 0.000269086 -1.61661e-05)
(0.0926546 0.000257209 -1.59744e-05)
(0.0918418 0.000245731 -1.57606e-05)
(0.0910434 0.000234635 -1.55199e-05)
(0.0902589 0.000223907 -1.52472e-05)
(0.0894882 0.000213536 -1.49366e-05)
(0.088731 0.000203513 -1.45816e-05)
(0.0879868 0.000193835 -1.41745e-05)
(0.0872552 0.000184507 -1.37068e-05)
(0.086536 0.000175546 -1.31685e-05)
(0.0858285 0.000166993 -1.25483e-05)
(0.085132 0.000158933 -1.18333e-05)
(0.0844458 0.000151551 -1.10091e-05)
(0.0837683 0.000145274 -1.00608e-05)
(0.0830971 0.000141201 -8.97907e-06)
(0.0824279 0.00014302 -7.79421e-06)
(0.0817637 0.000168646 -6.92167e-06)
(0.0808426 0.000283648 -9.4719e-06)
(0.195667 0.0051848 4.75831e-07)
(0.195999 0.00577114 1.46228e-06)
(0.196385 0.00622754 2.44185e-06)
(0.196759 0.00658675 3.29883e-06)
(0.197103 0.0068754 3.98921e-06)
(0.197416 0.00710519 4.51571e-06)
(0.197697 0.0072825 4.87177e-06)
(0.197936 0.00741317 5.04383e-06)
(0.198129 0.00750219 5.02727e-06)
(0.198269 0.00755306 4.82615e-06)
(0.198351 0.00756809 4.44708e-06)
(0.19837 0.00754905 3.89715e-06)
(0.198323 0.00749756 3.18478e-06)
(0.198206 0.00741528 2.3204e-06)
(0.198017 0.00730406 1.31648e-06)
(0.197755 0.00716603 1.87425e-07)
(0.197419 0.00700365 -1.05046e-06)
(0.197009 0.0068197 -2.37901e-06)
(0.196526 0.00661725 -3.77842e-06)
(0.195974 0.0063996 -5.22751e-06)
(0.195354 0.00617017 -6.7042e-06)
(0.19467 0.00593244 -8.18602e-06)
(0.193927 0.00568981 -9.65074e-06)
(0.193129 0.00544553 -1.1077e-05)
(0.19228 0.00520258 -1.24451e-05)
(0.191385 0.00496363 -1.37374e-05)
(0.19045 0.00473096 -1.4939e-05)
(0.189477 0.00450641 -1.60382e-05)
(0.188473 0.00429143 -1.70263e-05)
(0.187441 0.00408701 -1.78985e-05)
(0.186384 0.00389379 -1.8653e-05)
(0.185307 0.00371202 -1.92911e-05)
(0.184211 0.00354166 -1.98167e-05)
(0.183101 0.00338244 -2.02362e-05)
(0.181977 0.00323387 -2.05576e-05)
(0.180842 0.00309534 -2.07898e-05)
(0.179697 0.00296615 -2.09428e-05)
(0.178544 0.00284553 -2.10267e-05)
(0.177385 0.00273271 -2.10512e-05)
(0.176218 0.00262696 -2.1026e-05)
(0.175047 0.00252754 -2.09596e-05)
(0.173871 0.00243379 -2.08601e-05)
(0.172691 0.00234511 -2.07344e-05)
(0.171508 0.00226094 -2.05884e-05)
(0.170322 0.00218083 -2.04274e-05)
(0.169133 0.00210435 -2.02556e-05)
(0.167943 0.00203115 -2.00765e-05)
(0.166751 0.00196094 -1.98927e-05)
(0.165558 0.00189345 -1.97063e-05)
(0.164365 0.00182849 -1.9519e-05)
(0.163171 0.00176586 -1.9332e-05)
(0.161978 0.00170542 -1.91462e-05)
(0.160786 0.00164704 -1.89621e-05)
(0.159595 0.00159062 -1.87804e-05)
(0.158406 0.00153607 -1.86014e-05)
(0.157219 0.00148331 -1.84253e-05)
(0.156035 0.00143226 -1.82525e-05)
(0.154854 0.00138287 -1.8083e-05)
(0.153676 0.00133507 -1.79173e-05)
(0.152503 0.00128881 -1.77553e-05)
(0.151334 0.00124403 -1.75975e-05)
(0.150169 0.00120069 -1.74438e-05)
(0.14901 0.00115875 -1.72946e-05)
(0.147856 0.00111814 -1.71499e-05)
(0.146708 0.00107883 -1.70099e-05)
(0.145566 0.00104077 -1.68746e-05)
(0.14443 0.00100392 -1.6744e-05)
(0.143301 0.000968235 -1.66181e-05)
(0.14218 0.000933674 -1.64967e-05)
(0.141066 0.000900197 -1.63796e-05)
(0.139959 0.000867764 -1.62663e-05)
(0.13886 0.000836339 -1.61565e-05)
(0.13777 0.000805883 -1.60495e-05)
(0.136688 0.000776361 -1.59446e-05)
(0.135615 0.00074774 -1.58408e-05)
(0.13455 0.000719987 -1.57371e-05)
(0.133495 0.000693069 -1.56321e-05)
(0.132449 0.000666956 -1.55244e-05)
(0.131412 0.000641621 -1.54121e-05)
(0.130385 0.000617034 -1.52933e-05)
(0.129368 0.000593169 -1.51657e-05)
(0.12836 0.000570003 -1.50267e-05)
(0.127363 0.00054751 -1.48732e-05)
(0.126376 0.00052567 -1.47018e-05)
(0.125399 0.000504463 -1.45087e-05)
(0.124432 0.000483871 -1.42895e-05)
(0.123476 0.000463879 -1.40393e-05)
(0.12253 0.000444474 -1.37525e-05)
(0.121595 0.000425651 -1.34229e-05)
(0.120669 0.00040741 -1.30434e-05)
(0.119754 0.000389763 -1.26061e-05)
(0.118849 0.000372744 -1.21022e-05)
(0.117953 0.00035642 -1.15225e-05)
(0.117067 0.000340936 -1.08577e-05)
(0.116189 0.000326594 -1.01011e-05)
(0.115319 0.000314082 -9.25667e-06)
(0.114455 0.000305155 -8.36579e-06)
(0.113595 0.000305114 -7.6219e-06)
(0.112745 0.000331982 -7.91365e-06)
(0.111683 0.000423474 -1.24994e-05)
(0.196259 0.00495244 3.48403e-07)
(0.196492 0.00545069 1.08495e-06)
(0.196783 0.00586368 1.8787e-06)
(0.197097 0.00620195 2.63728e-06)
(0.197417 0.00648239 3.28058e-06)
(0.197737 0.00671532 3.78483e-06)
(0.198054 0.00690598 4.1451e-06)
(0.198364 0.00705808 4.35359e-06)
(0.198664 0.00717467 4.40541e-06)
(0.198947 0.00725805 4.30292e-06)
(0.199212 0.00730974 4.05256e-06)
(0.199454 0.00733091 3.66161e-06)
(0.19967 0.00732259 3.1377e-06)
(0.199856 0.00728591 2.48932e-06)
(0.200009 0.00722218 1.72604e-06)
(0.200124 0.00713295 8.58476e-07)
(0.2002 0.00702007 -1.01789e-07)
(0.200234 0.0068857 -1.14214e-06)
(0.200223 0.00673228 -2.24895e-06)
(0.200168 0.00656249 -3.40769e-06)
(0.200066 0.00637921 -4.60304e-06)
(0.199918 0.00618539 -5.81911e-06)
(0.199724 0.00598402 -7.03974e-06)
(0.199486 0.00577801 -8.24887e-06)
(0.199205 0.00557012 -9.43085e-06)
(0.198883 0.00536287 -1.0571e-05)
(0.198523 0.00515849 -1.16557e-05)
(0.198127 0.00495889 -1.26733e-05)
(0.197697 0.0047656 -1.3614e-05)
(0.197236 0.00457982 -1.44702e-05)
(0.196746 0.00440239 -1.52367e-05)
(0.196231 0.0042338 -1.59108e-05)
(0.195692 0.00407428 -1.64921e-05)
(0.195132 0.0039238 -1.6982e-05)
(0.194551 0.00378214 -1.73842e-05)
(0.193952 0.00364891 -1.77038e-05)
(0.193336 0.00352362 -1.79468e-05)
(0.192705 0.0034057 -1.81204e-05)
(0.192058 0.00329455 -1.82321e-05)
(0.191398 0.00318958 -1.82896e-05)
(0.190724 0.00309017 -1.83005e-05)
(0.190037 0.00299578 -1.8272e-05)
(0.189337 0.00290588 -1.82108e-05)
(0.188626 0.00282 -1.81232e-05)
(0.187903 0.00273773 -1.80145e-05)
(0.187168 0.0026587 -1.78896e-05)
(0.186422 0.00258259 -1.77525e-05)
(0.185666 0.00250914 -1.76066e-05)
(0.184898 0.00243812 -1.74547e-05)
(0.18412 0.00236933 -1.7299e-05)
(0.183332 0.00230261 -1.71415e-05)
(0.182534 0.00223782 -1.69835e-05)
(0.181726 0.00217486 -1.68261e-05)
(0.180908 0.00211363 -1.66701e-05)
(0.180082 0.00205405 -1.65164e-05)
(0.179246 0.00199604 -1.63652e-05)
(0.178402 0.00193954 -1.6217e-05)
(0.17755 0.00188451 -1.60722e-05)
(0.17669 0.00183088 -1.59309e-05)
(0.175822 0.0017786 -1.57933e-05)
(0.174947 0.00172765 -1.56597e-05)
(0.174065 0.00167796 -1.55301e-05)
(0.173176 0.0016295 -1.54047e-05)
(0.172282 0.00158223 -1.52835e-05)
(0.171381 0.00153611 -1.51666e-05)
(0.170474 0.00149111 -1.5054e-05)
(0.169563 0.00144718 -1.49456e-05)
(0.168647 0.00140429 -1.48413e-05)
(0.167726 0.00136241 -1.47409e-05)
(0.166801 0.0013215 -1.46442e-05)
(0.165872 0.00128153 -1.45508e-05)
(0.16494 0.00124248 -1.44603e-05)
(0.164005 0.00120431 -1.43719e-05)
(0.163067 0.00116699 -1.42851e-05)
(0.162126 0.00113051 -1.41989e-05)
(0.161184 0.00109483 -1.41122e-05)
(0.160241 0.00105993 -1.40239e-05)
(0.159296 0.00102579 -1.39325e-05)
(0.15835 0.000992396 -1.38363e-05)
(0.157404 0.00095972 -1.37335e-05)
(0.156457 0.000927749 -1.36218e-05)
(0.155511 0.000896465 -1.34987e-05)
(0.154565 0.000865855 -1.33614e-05)
(0.15362 0.000835906 -1.32066e-05)
(0.152677 0.000806606 -1.30307e-05)
(0.151734 0.000777949 -1.28296e-05)
(0.150794 0.000749927 -1.25986e-05)
(0.149855 0.000722541 -1.23325e-05)
(0.148918 0.000695795 -1.20256e-05)
(0.147984 0.000669705 -1.16716e-05)
(0.147053 0.000644301 -1.12637e-05)
(0.146124 0.000619641 -1.07953e-05)
(0.145198 0.000595834 -1.02603e-05)
(0.144274 0.000573089 -9.65599e-06)
(0.143353 0.000551823 -8.98915e-06)
(0.142434 0.000532942 -8.29335e-06)
(0.141516 0.000518577 -7.68096e-06)
(0.1406 0.000514129 -7.50357e-06)
(0.1397 0.000532316 -8.78098e-06)
(0.138616 0.000583543 -1.35583e-05)
(0.196778 0.0047774 2.44466e-07)
(0.196947 0.00519946 7.59706e-07)
(0.197167 0.00557115 1.33091e-06)
(0.197418 0.00589133 1.90992e-06)
(0.197687 0.00616575 2.43349e-06)
(0.197966 0.00639932 2.87171e-06)
(0.19825 0.00659492 3.21558e-06)
(0.198536 0.00675473 3.45641e-06)
(0.198821 0.00688091 3.58496e-06)
(0.199101 0.00697541 3.59677e-06)
(0.199374 0.00703989 3.49245e-06)
(0.199639 0.00707573 3.27511e-06)
(0.199892 0.00708422 2.94893e-06)
(0.200131 0.00706666 2.51907e-06)
(0.200354 0.00702439 1.99171e-06)
(0.200559 0.00695893 1.37398e-06)
(0.200742 0.00687195 6.73729e-07)
(0.200902 0.00676531 -1.00444e-07)
(0.201037 0.00664109 -9.39261e-07)
(0.201145 0.00650153 -1.83274e-06)
(0.201225 0.00634901 -2.77021e-06)
(0.201276 0.00618601 -3.74038e-06)
(0.201298 0.00601502 -4.73141e-06)
(0.20129 0.00583851 -5.73109e-06)
(0.201254 0.00565884 -6.72704e-06)
(0.201189 0.00547822 -7.70698e-06)
(0.201097 0.00529864 -8.65902e-06)
(0.200978 0.00512183 -9.57206e-06)
(0.200835 0.00494926 -1.0436e-05)
(0.200669 0.0047821 -1.12423e-05)
(0.200482 0.00462124 -1.19839e-05)
(0.200275 0.00446729 -1.26555e-05)
(0.200049 0.00432061 -1.32538e-05)
(0.199806 0.00418135 -1.37773e-05)
(0.199547 0.00404945 -1.42264e-05)
(0.199274 0.00392473 -1.46028e-05)
(0.198987 0.00380686 -1.49099e-05)
(0.198687 0.00369546 -1.5152e-05)
(0.198375 0.00359007 -1.53344e-05)
(0.198051 0.00349023 -1.54626e-05)
(0.197715 0.00339545 -1.55428e-05)
(0.197369 0.00330526 -1.55809e-05)
(0.197011 0.00321923 -1.5583e-05)
(0.196643 0.00313693 -1.55545e-05)
(0.196263 0.00305799 -1.55006e-05)
(0.195873 0.00298208 -1.54262e-05)
(0.195473 0.00290889 -1.53353e-05)
(0.195061 0.00283817 -1.52317e-05)
(0.194638 0.00276968 -1.51184e-05)
(0.194205 0.00270324 -1.49981e-05)
(0.19376 0.00263868 -1.48731e-05)
(0.193305 0.00257587 -1.47451e-05)
(0.192838 0.00251467 -1.46156e-05)
(0.19236 0.00245499 -1.44859e-05)
(0.191871 0.00239675 -1.43567e-05)
(0.191371 0.00233986 -1.42289e-05)
(0.19086 0.00228426 -1.41031e-05)
(0.190338 0.0022299 -1.39797e-05)
(0.189804 0.00217671 -1.3859e-05)
(0.18926 0.00212466 -1.37414e-05)
(0.188705 0.00207369 -1.36271e-05)
(0.188139 0.00202376 -1.35162e-05)
(0.187562 0.00197484 -1.34089e-05)
(0.186974 0.00192688 -1.33053e-05)
(0.186376 0.00187985 -1.32054e-05)
(0.185767 0.00183372 -1.31092e-05)
(0.185148 0.00178845 -1.30168e-05)
(0.184518 0.00174401 -1.29278e-05)
(0.183879 0.00170037 -1.28422e-05)
(0.18323 0.00165751 -1.27598e-05)
(0.182571 0.00161538 -1.26801e-05)
(0.181902 0.00157398 -1.26027e-05)
(0.181224 0.00153326 -1.2527e-05)
(0.180537 0.00149322 -1.24525e-05)
(0.17984 0.00145383 -1.23781e-05)
(0.179135 0.00141507 -1.2303e-05)
(0.178422 0.00137692 -1.22259e-05)
(0.1777 0.00133936 -1.21456e-05)
(0.17697 0.00130238 -1.20604e-05)
(0.176232 0.00126598 -1.19685e-05)
(0.175487 0.00123012 -1.18679e-05)
(0.174734 0.00119481 -1.17562e-05)
(0.173974 0.00116004 -1.16306e-05)
(0.173207 0.00112581 -1.14882e-05)
(0.172434 0.0010921 -1.13255e-05)
(0.171654 0.00105891 -1.11386e-05)
(0.170868 0.00102626 -1.09234e-05)
(0.170077 0.000994155 -1.0675e-05)
(0.169279 0.000962602 -1.03886e-05)
(0.168476 0.000931636 -1.00587e-05)
(0.167668 0.000901306 -9.68047e-06)
(0.166855 0.000871695 -9.2497e-06)
(0.166037 0.000842947 -8.76518e-06)
(0.165214 0.000815324 -8.23271e-06)
(0.164386 0.00078932 -7.67527e-06)
(0.163554 0.000765923 -7.1573e-06)
(0.162717 0.000747171 -6.84322e-06)
(0.16188 0.000737129 -7.11549e-06)
(0.161057 0.000741373 -8.64305e-06)
(0.160069 0.000750707 -1.14929e-05)
(0.197238 0.0046337 1.54668e-07)
(0.197367 0.00499279 4.80384e-07)
(0.197535 0.00532141 8.54471e-07)
(0.197734 0.00561436 1.26351e-06)
(0.197954 0.00587151 1.66883e-06)
(0.198188 0.00609433 2.03977e-06)
(0.198431 0.00628424 2.35917e-06)
(0.19868 0.00644258 2.61418e-06)
(0.198931 0.00657078 2.79307e-06)
(0.199181 0.00667028 2.88786e-06)
(0.19943 0.00674241 2.8954e-06)
(0.199673 0.00678836 2.81588e-06)
(0.19991 0.00680927 2.65116e-06)
(0.200139 0.0068063 2.40406e-06)
(0.200357 0.00678065 2.07818e-06)
(0.200563 0.00673367 1.67774e-06)
(0.200756 0.00666681 1.20736e-06)
(0.200933 0.0065817 6.72089e-07)
(0.201093 0.00648012 7.73314e-08)
(0.201236 0.00636401 -5.71002e-07)
(0.20136 0.00623539 -1.26643e-06)
(0.201464 0.0060964 -2.00182e-06)
(0.201548 0.00594919 -2.76932e-06)
(0.201612 0.00579588 -3.56042e-06)
(0.201656 0.00563856 -4.36596e-06)
(0.201681 0.00547916 -5.17632e-06)
(0.201687 0.00531948 -5.98162e-06)
(0.201675 0.00516111 -6.77199e-06)
(0.201646 0.00500542 -7.5379e-06)
(0.201601 0.00485356 -8.27043e-06)
(0.201541 0.00470643 -8.96161e-06)
(0.201469 0.00456469 -9.60465e-06)
(0.201383 0.00442882 -1.01942e-05)
(0.201287 0.00429906 -1.07262e-05)
(0.20118 0.00417552 -1.11985e-05)
(0.201065 0.00405812 -1.16102e-05)
(0.20094 0.00394671 -1.19618e-05)
(0.200808 0.00384102 -1.22551e-05)
(0.200668 0.00374074 -1.2493e-05)
(0.200521 0.00364551 -1.26792e-05)
(0.200368 0.00355495 -1.28179e-05)
(0.200208 0.00346868 -1.29138e-05)
(0.200041 0.00338633 -1.29717e-05)
(0.199868 0.00330753 -1.29965e-05)
(0.199688 0.00323197 -1.2993e-05)
(0.199502 0.00315932 -1.29655e-05)
(0.199309 0.00308933 -1.29182e-05)
(0.199109 0.00302174 -1.28548e-05)
(0.198903 0.00295635 -1.27787e-05)
(0.198688 0.00289296 -1.26928e-05)
(0.198467 0.00283141 -1.25995e-05)
(0.198237 0.00277156 -1.25011e-05)
(0.198 0.00271328 -1.23992e-05)
(0.197754 0.00265647 -1.22954e-05)
(0.1975 0.00260103 -1.21908e-05)
(0.197238 0.00254689 -1.20863e-05)
(0.196966 0.00249397 -1.19829e-05)
(0.196686 0.00244219 -1.18809e-05)
(0.196397 0.00239152 -1.1781e-05)
(0.196098 0.00234188 -1.16835e-05)
(0.19579 0.00229323 -1.15886e-05)
(0.195473 0.00224553 -1.14966e-05)
(0.195146 0.00219872 -1.14075e-05)
(0.194809 0.00215276 -1.13216e-05)
(0.194462 0.00210761 -1.12387e-05)
(0.194105 0.00206324 -1.11589e-05)
(0.193738 0.00201961 -1.10821e-05)
(0.19336 0.00197667 -1.10082e-05)
(0.192973 0.0019344 -1.0937e-05)
(0.192575 0.00189277 -1.08682e-05)
(0.192166 0.00185174 -1.08014e-05)
(0.191747 0.00181128 -1.07363e-05)
(0.191318 0.00177137 -1.06723e-05)
(0.190878 0.00173199 -1.06087e-05)
(0.190427 0.0016931 -1.05447e-05)
(0.189966 0.00165469 -1.04794e-05)
(0.189494 0.00161673 -1.04118e-05)
(0.189012 0.00157922 -1.03404e-05)
(0.188518 0.00154213 -1.02639e-05)
(0.188015 0.00150545 -1.01805e-05)
(0.187501 0.00146917 -1.00882e-05)
(0.186976 0.00143327 -9.98491e-06)
(0.186441 0.00139776 -9.86802e-06)
(0.185895 0.00136263 -9.73468e-06)
(0.185339 0.00132787 -9.58173e-06)
(0.184773 0.00129349 -9.40566e-06)
(0.184196 0.00125949 -9.20261e-06)
(0.18361 0.0012259 -8.96854e-06)
(0.183013 0.00119272 -8.69925e-06)
(0.182406 0.00116001 -8.39082e-06)
(0.18179 0.00112781 -8.04015e-06)
(0.181163 0.00109624 -7.64639e-06)
(0.180526 0.00106545 -7.21343e-06)
(0.17988 0.00103573 -6.75539e-06)
(0.179224 0.00100758 -6.30785e-06)
(0.178559 0.000981876 -5.9498e-06)
(0.177887 0.000960104 -5.8388e-06)
(0.177211 0.000944223 -6.21786e-06)
(0.176543 0.000933616 -7.12115e-06)
(0.175726 0.000909701 -6.90019e-06)
(0.197651 0.00451329 7.45787e-08)
(0.197752 0.0048206 2.35647e-07)
(0.197883 0.00510865 4.3775e-07)
(0.19804 0.00537218 6.84113e-07)
(0.198218 0.00560888 9.5564e-07)
(0.198412 0.00581817 1.22947e-06)
(0.198616 0.00600014 1.48846e-06)
(0.198828 0.00615514 1.71982e-06)
(0.199044 0.00628376 1.91254e-06)
(0.199262 0.0063867 2.05781e-06)
(0.199479 0.0064648 2.14998e-06)
(0.199694 0.0065189 2.1861e-06)
(0.199905 0.00654988 2.16484e-06)
(0.20011 0.00655872 2.08584e-06)
(0.200307 0.00654648 1.94934e-06)
(0.200495 0.00651433 1.75606e-06)
(0.200673 0.00646358 1.50708e-06)
(0.200839 0.00639566 1.20376e-06)
(0.200992 0.00631213 8.47808e-07)
(0.201131 0.0062147 4.41364e-07)
(0.201256 0.00610513 -1.28465e-08)
(0.201366 0.00598528 -5.11376e-07)
(0.201461 0.00585702 -1.04993e-06)
(0.20154 0.00572223 -1.6233e-06)
(0.201604 0.00558273 -2.22532e-06)
(0.201653 0.00544025 -2.84896e-06)
(0.201688 0.00529641 -3.48644e-06)
(0.20171 0.00515265 -4.12944e-06)
(0.201719 0.00501028 -4.76939e-06)
(0.201716 0.00487038 -5.39775e-06)
(0.201702 0.00473386 -6.00632e-06)
(0.201679 0.00460142 -6.58756e-06)
(0.201647 0.0044736 -7.13484e-06)
(0.201608 0.00435075 -7.64265e-06)
(0.201562 0.00423306 -8.10674e-06)
(0.20151 0.00412061 -8.52419e-06)
(0.201453 0.00401335 -8.8934e-06)
(0.201392 0.00391115 -9.21401e-06)
(0.201326 0.00381382 -9.48682e-06)
(0.201257 0.00372111 -9.71359e-06)
(0.201184 0.00363274 -9.89688e-06)
(0.201109 0.00354842 -1.00399e-05)
(0.201031 0.00346786 -1.01462e-05)
(0.200949 0.00339077 -1.02196e-05)
(0.200865 0.00331686 -1.0264e-05)
(0.200779 0.00324587 -1.02834e-05)
(0.200689 0.00317757 -1.02814e-05)
(0.200596 0.00311172 -1.02616e-05)
(0.200499 0.00304814 -1.0227e-05)
(0.2004 0.00298663 -1.01806e-05)
(0.200296 0.00292705 -1.01249e-05)
(0.200189 0.00286925 -1.00621e-05)
(0.200077 0.00281309 -9.99408e-06)
(0.199962 0.00275848 -9.92244e-06)
(0.199841 0.00270532 -9.8485e-06)
(0.199716 0.0026535 -9.77333e-06)
(0.199586 0.00260296 -9.6978e-06)
(0.19945 0.00255361 -9.6226e-06)
(0.199309 0.00250539 -9.54829e-06)
(0.199162 0.00245824 -9.47527e-06)
(0.199009 0.0024121 -9.40389e-06)
(0.19885 0.00236691 -9.33435e-06)
(0.198685 0.00232263 -9.26683e-06)
(0.198513 0.00227919 -9.20143e-06)
(0.198334 0.00223656 -9.13817e-06)
(0.198148 0.00219469 -9.07705e-06)
(0.197954 0.00215353 -9.018e-06)
(0.197753 0.00211305 -8.96088e-06)
(0.197544 0.00207319 -8.90552e-06)
(0.197328 0.00203394 -8.85165e-06)
(0.197103 0.00199524 -8.79895e-06)
(0.19687 0.00195706 -8.74701e-06)
(0.196628 0.00191938 -8.6953e-06)
(0.196378 0.00188216 -8.64322e-06)
(0.196119 0.00184538 -8.59002e-06)
(0.19585 0.001809 -8.53483e-06)
(0.195573 0.001773 -8.47662e-06)
(0.195286 0.00173737 -8.41419e-06)
(0.194989 0.00170207 -8.34616e-06)
(0.194683 0.0016671 -8.27093e-06)
(0.194367 0.00163243 -8.18668e-06)
(0.194041 0.00159806 -8.09133e-06)
(0.193705 0.00156397 -7.98255e-06)
(0.193358 0.00153016 -7.85772e-06)
(0.193001 0.00149662 -7.71394e-06)
(0.192634 0.00146334 -7.54809e-06)
(0.192256 0.00143035 -7.35678e-06)
(0.191867 0.00139764 -7.13666e-06)
(0.191467 0.00136525 -6.8845e-06)
(0.191056 0.0013332 -6.59781e-06)
(0.190634 0.00130157 -6.27567e-06)
(0.190201 0.00127046 -5.92032e-06)
(0.189757 0.00124003 -5.53997e-06)
(0.189301 0.00121055 -5.15351e-06)
(0.188834 0.00118242 -4.79767e-06)
(0.188357 0.00115623 -4.5337e-06)
(0.187871 0.0011326 -4.43559e-06)
(0.18738 0.00111128 -4.48302e-06)
(0.18689 0.00108772 -4.11293e-06)
(0.186271 0.00104276 -9.9392e-07)
(0.198024 0.00440774 1.88176e-09)
(0.198104 0.00467286 1.59002e-08)
(0.198207 0.00492528 6.51912e-08)
(0.198331 0.00516068 1.60387e-07)
(0.198474 0.00537622 2.9669e-07)
(0.198632 0.0055703 4.6229e-07)
(0.198801 0.00574208 6.45023e-07)
(0.198978 0.00589118 8.34066e-07)
(0.199161 0.00601754 1.01942e-06)
(0.199347 0.00612135 1.19204e-06)
(0.199533 0.00620299 1.34453e-06)
(0.199719 0.00626299 1.4713e-06)
(0.199902 0.00630199 1.56819e-06)
(0.200082 0.00632074 1.63192e-06)
(0.200255 0.0063201 1.65982e-06)
(0.200421 0.00630105 1.64964e-06)
(0.200579 0.0062647 1.5994e-06)
(0.200728 0.00621228 1.50741e-06)
(0.200867 0.00614512 1.37224e-06)
(0.200994 0.00606466 1.19286e-06)
(0.201109 0.00597244 9.68773e-07)
(0.201213 0.00587003 7.00195e-07)
(0.201304 0.00575907 3.88223e-07)
(0.201382 0.00564118 3.49714e-08)
(0.201447 0.00551795 -3.56342e-07)
(0.201501 0.00539091 -7.81382e-07)
(0.201543 0.00526152 -1.23476e-06)
(0.201574 0.0051311 -1.71016e-06)
(0.201594 0.00500084 -2.20058e-06)
(0.201605 0.0048718 -2.69855e-06)
(0.201608 0.00474487 -3.19646e-06)
(0.201602 0.00462077 -3.68685e-06)