/*--------------------------------*- C++ -*----------------------------------*\
| =========                 |                                                 |
| \\      /  F ield         | OpenFOAM: The Open Source CFD Toolbox           |
|  \\    /   O peration     | Version:  2.3.0                                 |
|   \\  /    A nd           | Web:      www.OpenFOAM.org                      |
|    \\/     M anipulation  |                                                 |
\*---------------------------------------------------------------------------*/
FoamFile
{
    version     2.0;
    format      ascii;
    class       volVectorField;
    location    "0.6";
    object      U;
}
// * * * * * * * * * * * * * * * * * * * * * * * * * * * * * * * * * * * * * //

dimensions      [0 1 -1 0 0 0 0];

internalField   nonuniform List<vector> 
2250
(
(0.187412 0.00257269 1.69984e-06)
(0.178608 0.00352316 4.92356e-06)
(0.170599 0.00415125 7.41044e-06)
(0.162708 0.00439045 8.92021e-06)
(0.15455 0.00439025 9.73106e-06)
(0.14606 0.00429839 1.0161e-05)
(0.137343 0.00419213 1.03282e-05)
(0.128551 0.00408407 1.01489e-05)
(0.119811 0.00395774 9.45778e-06)
(0.111209 0.00379464 8.11527e-06)
(0.102815 0.00358498 6.0484e-06)
(0.094693 0.00332756 3.24876e-06)
(0.0869198 0.00302633 -2.37685e-07)
(0.07958 0.00268675 -4.3121e-06)
(0.0727731 0.00231582 -8.81615e-06)
(0.0665696 0.00191744 -1.35322e-05)
(0.0610278 0.00150292 -1.81989e-05)
(0.0561817 0.00109304 -2.25419e-05)
(0.0520355 0.000713193 -2.63116e-05)
(0.0485609 0.000386152 -2.93204e-05)
(0.0457018 0.000125979 -3.14691e-05)
(0.0433834 -6.4072e-05 -3.27558e-05)
(0.0415218 -0.000189545 -3.32636e-05)
(0.0400317 -0.000260624 -3.3134e-05)
(0.038833 -0.000288761 -3.25343e-05)
(0.0378533 -0.000284679 -3.16301e-05)
(0.0370317 -0.000258867 -3.05655e-05)
(0.0363208 -0.000221603 -2.94559e-05)
(0.0356839 -0.000179934 -2.83903e-05)
(0.0350921 -0.00013835 -2.74291e-05)
(0.0345258 -9.9852e-05 -2.6606e-05)
(0.0339717 -6.62068e-05 -2.59337e-05)
(0.033423 -3.82004e-05 -2.5409e-05)
(0.0328762 -1.58114e-05 -2.50189e-05)
(0.0323315 1.36577e-06 -2.47441e-05)
(0.0317898 1.3973e-05 -2.45634e-05)
(0.0312538 2.26285e-05 -2.4455e-05)
(0.0307256 2.80044e-05 -2.43991e-05)
(0.0302081 3.109e-05 -2.43787e-05)
(0.0297019 3.2661e-05 -2.43783e-05)
(0.0292098 3.31667e-05 -2.43845e-05)
(0.0287321 3.30221e-05 -2.43869e-05)
(0.028271 3.24324e-05 -2.43777e-05)
(0.0278256 3.16037e-05 -2.43519e-05)
(0.0273977 3.05608e-05 -2.43064e-05)
(0.0269854 2.94188e-05 -2.42403e-05)
(0.0265903 2.81488e-05 -2.41535e-05)
(0.0262099 2.68597e-05 -2.40476e-05)
(0.0258456 2.55003e-05 -2.39243e-05)
(0.0254945 2.41761e-05 -2.37865e-05)
(0.0251585 2.28165e-05 -2.36364e-05)
(0.0248339 2.1531e-05 -2.34774e-05)
(0.0245231 2.02267e-05 -2.33119e-05)
(0.0242221 1.90209e-05 -2.31434e-05)
(0.0239339 1.77952e-05 -2.29735e-05)
(0.0236538 1.66849e-05 -2.28053e-05)
(0.0233857 1.55519e-05 -2.26398e-05)
(0.0231242 1.45436e-05 -2.24798e-05)
(0.0228742 1.34979e-05 -2.2325e-05)
(0.0226294 1.25872e-05 -2.21781e-05)
(0.0223958 1.16223e-05 -2.20376e-05)
(0.0221663 1.0804e-05 -2.1906e-05)
(0.0219479 9.91015e-06 -2.17815e-05)
(0.0217325 9.16782e-06 -2.16658e-05)
(0.0215284 8.33437e-06 -2.15561e-05)
(0.021326 7.66815e-06 -2.14552e-05)
(0.0211355 6.88029e-06 -2.13592e-05)
(0.0209456 6.27587e-06 -2.1271e-05)
(0.0207682 5.52331e-06 -2.11858e-05)
(0.0205901 4.9804e-06 -2.11079e-05)
(0.0204255 4.26329e-06 -2.10326e-05)
(0.0202586 3.76936e-06 -2.09656e-05)
(0.0201067 3.06432e-06 -2.09e-05)
(0.0199506 2.63291e-06 -2.08455e-05)
(0.0198111 1.94756e-06 -2.07964e-05)
(0.0196655 1.5543e-06 -2.07655e-05)
(0.0195384 8.66737e-07 -2.07477e-05)
(0.0194028 5.36382e-07 -2.07671e-05)
(0.0192884 -1.68414e-07 -2.08242e-05)
(0.0191626 -4.83283e-07 -2.09547e-05)
(0.0190612 -1.24775e-06 -2.11678e-05)
(0.0189454 -1.56164e-06 -2.15134e-05)
(0.0188582 -2.41846e-06 -2.19896e-05)
(0.0187528 -2.69411e-06 -2.26189e-05)
(0.0186807 -3.51387e-06 -2.33179e-05)
(0.0185846 -3.50099e-06 -2.3988e-05)
(0.0185256 -4.07035e-06 -2.4344e-05)
(0.0184342 -3.62786e-06 -2.40799e-05)
(0.0183844 -4.08031e-06 -2.2794e-05)
(0.0182932 -3.58861e-06 -2.04152e-05)
(0.0182527 -4.51399e-06 -1.70566e-05)
(0.0181628 -4.39154e-06 -1.31785e-05)
(0.0181365 -5.93953e-06 -9.07144e-06)
(0.0180502 -5.97996e-06 -5.16486e-06)
(0.0180422 -7.86979e-06 -1.59664e-06)
(0.0179588 -7.60601e-06 1.21235e-06)
(0.0179709 -9.42919e-06 3.14772e-06)
(0.0178847 -7.99485e-06 3.71439e-06)
(0.0179123 -8.84008e-06 3.01804e-06)
(0.017814 -1.7772e-06 1.06384e-06)
(0.193836 0.00472022 1.15877e-06)
(0.193541 0.00625046 3.421e-06)
(0.193249 0.00736886 5.70088e-06)
(0.19284 0.00795411 7.60297e-06)
(0.192121 0.00817963 8.83032e-06)
(0.190964 0.0082476 9.39771e-06)
(0.189344 0.00827955 9.46935e-06)
(0.187304 0.00830811 9.1623e-06)
(0.184904 0.00831665 8.46919e-06)
(0.182192 0.00827777 7.29928e-06)
(0.179203 0.00817268 5.55766e-06)
(0.175964 0.00799237 3.19796e-06)
(0.172503 0.00773475 2.40858e-07)
(0.16885 0.00739957 -3.22716e-06)
(0.165048 0.00698871 -7.06163e-06)
(0.161132 0.00650502 -1.10815e-05)
(0.157146 0.00595769 -1.50975e-05)
(0.153135 0.00536405 -1.89163e-05)
(0.149143 0.0047477 -2.2352e-05)
(0.145207 0.00413497 -2.5246e-05)
(0.141357 0.00355053 -2.74903e-05)
(0.137618 0.00301409 -2.9043e-05)
(0.134011 0.00253826 -2.99315e-05)
(0.130547 0.00212883 -3.02409e-05)
(0.127237 0.0017857 -3.00917e-05)
(0.12408 0.00150498 -2.96169e-05)
(0.121072 0.00128027 -2.89451e-05)
(0.118209 0.00110517 -2.81845e-05)
(0.115487 0.000972079 -2.74124e-05)
(0.112894 0.000872793 -2.66815e-05)
(0.110423 0.000799037 -2.60257e-05)
(0.108062 0.000743616 -2.54657e-05)
(0.105805 0.000700571 -2.50104e-05)
(0.103643 0.000665688 -2.46592e-05)
(0.101572 0.000635842 -2.44038e-05)
(0.0995849 0.000609213 -2.42308e-05)
(0.0976785 0.000584381 -2.41237e-05)
(0.0958473 0.000560755 -2.40647e-05)
(0.0940906 0.000537408 -2.40358e-05)
(0.0924009 0.000513908 -2.40242e-05)
(0.0907794 0.000489959 -2.40199e-05)
(0.0892185 0.000465888 -2.40154e-05)
(0.0877205 0.000441889 -2.40039e-05)
(0.0862775 0.000418494 -2.39806e-05)
(0.0848925 0.000395809 -2.39413e-05)
(0.0835567 0.000374234 -2.38844e-05)
(0.0822744 0.000353675 -2.38087e-05)
(0.0810357 0.000334426 -2.37157e-05)
(0.0798462 0.000316256 -2.36061e-05)
(0.078695 0.000299408 -2.34827e-05)
(0.0775892 0.000283568 -2.33471e-05)
(0.0765163 0.000268971 -2.3203e-05)
(0.0754856 0.000255229 -2.30517e-05)
(0.074483 0.000242605 -2.28974e-05)
(0.0735199 0.00023064 -2.27409e-05)
(0.0725803 0.000219654 -2.25859e-05)
(0.0716783 0.000209144 -2.24327e-05)
(0.0707955 0.000199487 -2.22847e-05)
(0.0699491 0.000190129 -2.2141e-05)
(0.069118 0.000181527 -2.2005e-05)
(0.0683226 0.00017306 -2.18745e-05)
(0.0675387 0.000165293 -2.17528e-05)
(0.0667908 0.000157527 -2.16372e-05)
(0.0660504 0.000150399 -2.15305e-05)
(0.0653469 0.000143168 -2.14289e-05)
(0.0646471 0.000136576 -2.13364e-05)
(0.0639857 0.000129763 -2.12478e-05)
(0.0633237 0.000123594 -2.11677e-05)
(0.0627025 0.000117097 -2.10895e-05)
(0.0620762 0.000111306 -2.10193e-05)
(0.0614938 0.000105109 -2.09509e-05)
(0.060901 9.96274e-05 -2.0892e-05)
(0.0603561 9.36237e-05 -2.08333e-05)
(0.059795 8.84766e-05 -2.07871e-05)
(0.0592869 8.26892e-05 -2.07456e-05)
(0.0587557 7.77865e-05 -2.07237e-05)
(0.0582839 7.21315e-05 -2.07133e-05)
(0.0577808 6.75426e-05 -2.07423e-05)
(0.0573449 6.19762e-05 -2.0808e-05)
(0.0568684 5.75489e-05 -2.09508e-05)
(0.0564687 5.19478e-05 -2.1179e-05)
(0.0560175 4.76538e-05 -2.15537e-05)
(0.0556551 4.19595e-05 -2.20756e-05)
(0.055228 3.79896e-05 -2.27812e-05)
(0.0549037 3.27714e-05 -2.35829e-05)
(0.0544978 3.01378e-05 -2.43862e-05)
(0.0542103 2.62967e-05 -2.48749e-05)
(0.0538188 2.54347e-05 -2.46983e-05)
(0.0535648 2.22295e-05 -2.33565e-05)
(0.0531808 2.13426e-05 -2.07671e-05)
(0.0529615 1.64492e-05 -1.7104e-05)
(0.0525831 1.41381e-05 -1.29425e-05)
(0.0524042 7.41139e-06 -8.60121e-06)
(0.0520289 4.7022e-06 -4.51766e-06)
(0.0518959 -2.73865e-06 -7.88322e-07)
(0.0515166 -4.40035e-06 2.15705e-06)
(0.0514336 -1.14578e-05 4.19146e-06)
(0.0510373 -9.63364e-06 4.72953e-06)
(0.051004 -1.34531e-05 3.7845e-06)
(0.0505645 -1.64359e-06 1.29615e-06)
(0.194758 0.00471298 8.83078e-07)
(0.194787 0.00569889 2.62563e-06)
(0.194994 0.00658107 4.50275e-06)
(0.195375 0.00722512 6.33948e-06)
(0.195835 0.00763309 7.76078e-06)
(0.196253 0.00789438 8.51124e-06)
(0.196554 0.0080978 8.60803e-06)
(0.196712 0.00828656 8.22398e-06)
(0.196734 0.00846015 7.50357e-06)
(0.196631 0.0085975 6.47852e-06)
(0.196408 0.00867622 5.10321e-06)
(0.196058 0.00868044 3.32801e-06)
(0.195571 0.00860096 1.14722e-06)
(0.194931 0.00843364 -1.39036e-06)
(0.194129 0.00817823 -4.20152e-06)
(0.193157 0.00784026 -7.18943e-06)
(0.192015 0.00743051 -1.02488e-05)
(0.190709 0.00696528 -1.32741e-05)
(0.189253 0.0064652 -1.61606e-05)
(0.18766 0.0059534 -1.88056e-05)
(0.185952 0.00545216 -2.11143e-05)
(0.184148 0.00498035 -2.30107e-05)
(0.182271 0.00455078 -2.44494e-05)
(0.180339 0.00417018 -2.54259e-05)
(0.178372 0.00383928 -2.59773e-05)
(0.176383 0.00355532 -2.61767e-05)
(0.174385 0.00331304 -2.61226e-05)
(0.172383 0.00310756 -2.59082e-05)
(0.170385 0.00293309 -2.55932e-05)
(0.16839 0.00278369 -2.52202e-05)
(0.166403 0.00265329 -2.48247e-05)
(0.164419 0.00253691 -2.44385e-05)
(0.162444 0.00243022 -2.40877e-05)
(0.160475 0.00233042 -2.37903e-05)
(0.158516 0.00223529 -2.35543e-05)
(0.156564 0.0021438 -2.33797e-05)
(0.154627 0.00205497 -2.32584e-05)
(0.152698 0.00196863 -2.3177e-05)
(0.150787 0.00188415 -2.31181e-05)
(0.148887 0.00180142 -2.30733e-05)
(0.14701 0.00172014 -2.30381e-05)
(0.145148 0.00164073 -2.30096e-05)
(0.143312 0.00156323 -2.29833e-05)
(0.141494 0.00148825 -2.29547e-05)
(0.139707 0.00141579 -2.29185e-05)
(0.137939 0.00134639 -2.28718e-05)
(0.136207 0.00127984 -2.28114e-05)
(0.134495 0.00121658 -2.27377e-05)
(0.132822 0.00115623 -2.26499e-05)
(0.131169 0.00109916 -2.25504e-05)
(0.129558 0.00104488 -2.24394e-05)
(0.127968 0.00099375 -2.23204e-05)
(0.126421 0.000945182 -2.21935e-05)
(0.124893 0.000899548 -2.20631e-05)
(0.123412 0.000856141 -2.19291e-05)
(0.121947 0.000815403 -2.17956e-05)
(0.120531 0.000776562 -2.1662e-05)
(0.119128 0.000740106 -2.15323e-05)
(0.117776 0.000705194 -2.14048e-05)
(0.116435 0.00067243 -2.12841e-05)
(0.115147 0.00064088 -2.11669e-05)
(0.113865 0.000611272 -2.10573e-05)
(0.112639 0.000582584 -2.09522e-05)
(0.111414 0.00055563 -2.08554e-05)
(0.110249 0.00052937 -2.07618e-05)
(0.109079 0.000504712 -2.06772e-05)
(0.107974 0.000480478 -2.05945e-05)
(0.106857 0.000457762 -2.05206e-05)
(0.10581 0.000435263 -2.04471e-05)
(0.104743 0.000414224 -2.03817e-05)
(0.103753 0.000393233 -2.03167e-05)
(0.102734 0.000373629 -2.02623e-05)
(0.101801 0.000353866 -2.02066e-05)
(0.100827 0.000335568 -2.01645e-05)
(0.0999503 0.000316917 -2.01256e-05)
(0.0990198 0.000299669 -2.01079e-05)
(0.0981984 0.000281906 -2.00994e-05)
(0.0973087 0.000265691 -2.01321e-05)
(0.0965432 0.000248629 -2.01988e-05)
(0.0956918 0.000233093 -2.03475e-05)
(0.0949832 0.000216457 -2.05889e-05)
(0.0941678 0.000201431 -2.10061e-05)
(0.0935179 0.000185039 -2.16215e-05)
(0.0927364 0.000170844 -2.25112e-05)
(0.0921473 0.00015596 -2.36002e-05)
(0.0913953 0.000144912 -2.47903e-05)
(0.0908668 0.000133876 -2.56882e-05)
(0.0901351 0.000127127 -2.57858e-05)
(0.0896648 0.000118351 -2.43223e-05)
(0.0889436 0.000111439 -2.11377e-05)
(0.0885348 9.93188e-05 -1.66168e-05)
(0.0878194 8.86993e-05 -1.16702e-05)
(0.0874816 7.31352e-05 -6.74392e-06)
(0.0867659 6.13074e-05 -2.28063e-06)
(0.0865078 4.53341e-05 1.74496e-06)
(0.0857797 3.52531e-05 4.92771e-06)
(0.0856097 2.1357e-05 7.12146e-06)
(0.0848496 1.62647e-05 7.50176e-06)
(0.0847725 1.07698e-05 5.8263e-06)
(0.0839446 1.67248e-05 1.9717e-06)
(0.195486 0.00455993 6.90603e-07)
(0.195509 0.00525894 2.0277e-06)
(0.195652 0.0059406 3.42366e-06)
(0.195944 0.00653195 4.85941e-06)
(0.196367 0.00699177 6.13338e-06)
(0.196862 0.00733313 6.96972e-06)
(0.197365 0.00759752 7.23501e-06)
(0.197838 0.00782051 6.98993e-06)
(0.198274 0.00801629 6.3853e-06)
(0.198678 0.0081794 5.54589e-06)
(0.199061 0.00829493 4.51468e-06)
(0.199419 0.00834838 3.2776e-06)
(0.199744 0.00832939 1.81216e-06)
(0.200019 0.00823324 1.13743e-07)
(0.200227 0.00806032 -1.80084e-06)
(0.200349 0.00781621 -3.89653e-06)
(0.200374 0.00751053 -6.12314e-06)
(0.200289 0.00715648 -8.42313e-06)
(0.200093 0.0067698 -1.07345e-05)
(0.199782 0.00636784 -1.29901e-05)
(0.199364 0.00596753 -1.51167e-05)
(0.198845 0.00558393 -1.70408e-05)
(0.198239 0.00522832 -1.86979e-05)
(0.197555 0.0049079 -2.00462e-05)
(0.196813 0.00462547 -2.10745e-05)
(0.196019 0.0043807 -2.18023e-05)
(0.195189 0.0041706 -2.22641e-05)
(0.194325 0.00399053 -2.25044e-05)
(0.193437 0.00383523 -2.25782e-05)
(0.192521 0.00370003 -2.25353e-05)
(0.191585 0.0035804 -2.24162e-05)
(0.190623 0.00347268 -2.22546e-05)
(0.189643 0.00337345 -2.20772e-05)
(0.188634 0.00328026 -2.1905e-05)
(0.187608 0.0031909 -2.1751e-05)
(0.186552 0.00310407 -2.16219e-05)
(0.185479 0.00301854 -2.15172e-05)
(0.184375 0.0029338 -2.14353e-05)
(0.183255 0.00284936 -2.13745e-05)
(0.182103 0.00276544 -2.13311e-05)
(0.180939 0.00268184 -2.12998e-05)
(0.179744 0.00259898 -2.12777e-05)
(0.17854 0.00251675 -2.12598e-05)
(0.177307 0.00243568 -2.12427e-05)
(0.176068 0.00235562 -2.12209e-05)
(0.174801 0.00227711 -2.1192e-05)
(0.173535 0.00219993 -2.11519e-05)
(0.17224 0.00212459 -2.11008e-05)
(0.170952 0.00205077 -2.10367e-05)
(0.169636 0.00197894 -2.09619e-05)
(0.168332 0.00190873 -2.08759e-05)
(0.167 0.00184058 -2.0782e-05)
(0.165687 0.00177406 -2.06793e-05)
(0.164346 0.00170962 -2.05721e-05)
(0.163029 0.00164671 -2.04597e-05)
(0.161683 0.00158585 -2.03467e-05)
(0.160369 0.00152646 -2.02311e-05)
(0.159024 0.00146902 -2.01177e-05)
(0.157718 0.00141292 -2.00041e-05)
(0.156378 0.00135872 -1.98956e-05)
(0.155085 0.00130574 -1.97882e-05)
(0.153756 0.00125457 -1.96864e-05)
(0.152481 0.0012045 -1.95863e-05)
(0.151165 0.00115612 -1.94932e-05)
(0.149914 0.00110881 -1.94014e-05)
(0.148615 0.0010631 -1.93164e-05)
(0.147391 0.00101831 -1.92307e-05)
(0.146112 0.000975012 -1.91529e-05)
(0.144921 0.000932583 -1.9074e-05)
(0.143665 0.0008916 -1.90015e-05)
(0.142511 0.00085141 -1.89269e-05)
(0.141279 0.00081248 -1.8863e-05)
(0.140165 0.000774301 -1.87973e-05)
(0.138959 0.000737381 -1.8744e-05)
(0.13789 0.000701092 -1.86915e-05)
(0.136711 0.000665833 -1.86608e-05)
(0.135691 0.000631249 -1.86378e-05)
(0.134539 0.000597661 -1.8653e-05)
(0.133572 0.000564508 -1.86975e-05)
(0.132447 0.000532028 -1.88237e-05)
(0.131536 0.000499904 -1.9051e-05)
(0.130438 0.000468072 -1.94922e-05)
(0.12959 0.000436442 -2.02347e-05)
(0.128516 0.000405378 -2.14581e-05)
(0.127738 0.000376211 -2.3182e-05)
(0.126686 0.000350228 -2.53271e-05)
(0.125979 0.000329124 -2.73577e-05)
(0.124938 0.00031218 -2.83627e-05)
(0.124303 0.00029787 -2.69128e-05)
(0.123261 0.000281426 -2.24466e-05)
(0.122704 0.000261574 -1.58052e-05)
(0.121657 0.000236225 -8.74597e-06)
(0.121193 0.000209398 -2.2448e-06)
(0.120134 0.00018002 3.21183e-06)
(0.119775 0.000153255 7.87501e-06)
(0.11869 0.000126267 1.15665e-05)
(0.11845 0.000104135 1.41392e-05)
(0.117316 8.33933e-05 1.43676e-05)
(0.117204 7.45673e-05 1.11684e-05)
(0.115984 6.96992e-05 3.95264e-06)
(0.196094 0.00446443 5.10943e-07)
(0.196124 0.00502603 1.46672e-06)
(0.196235 0.00558975 2.42417e-06)
(0.196452 0.006118 3.41379e-06)
(0.196778 0.00657487 4.38615e-06)
(0.197186 0.00694388 5.18518e-06)
(0.197636 0.00723268 5.6321e-06)
(0.198091 0.0074618 5.6504e-06)
(0.198535 0.00764778 5.30477e-06)
(0.198965 0.00779555 4.72554e-06)
(0.199387 0.00789986 4.0162e-06)
(0.199804 0.00795164 3.21364e-06)
(0.200217 0.00794296 2.30266e-06)
(0.200613 0.00787004 1.2483e-06)
(0.200984 0.00773357 2.295e-08)
(0.201314 0.00753849 -1.38091e-06)
(0.201596 0.00729279 -2.95009e-06)
(0.201813 0.00700698 -4.65704e-06)
(0.201966 0.0066931 -6.46473e-06)
(0.202044 0.00636421 -8.32834e-06)
(0.202054 0.0060331 -1.01943e-05)
(0.201992 0.00571157 -1.20022e-05)
(0.201872 0.00540904 -1.36897e-05)
(0.201694 0.00513229 -1.52013e-05)
(0.201476 0.00488482 -1.64953e-05)
(0.201219 0.00466756 -1.75488e-05)
(0.200941 0.00447884 -1.83566e-05)
(0.200636 0.00431564 -1.89355e-05)
(0.200322 0.00417402 -1.93221e-05)
(0.199988 0.00405041 -1.95603e-05)
(0.199648 0.00394125 -1.96884e-05)
(0.199288 0.00384364 -1.97368e-05)
(0.198925 0.00375471 -1.9728e-05)
(0.198539 0.00367224 -1.9681e-05)
(0.198149 0.00359411 -1.96106e-05)
(0.197732 0.00351892 -1.95297e-05)
(0.19731 0.00344536 -1.94475e-05)
(0.196858 0.00337283 -1.93727e-05)
(0.1964 0.00330073 -1.93099e-05)
(0.195907 0.00322908 -1.926e-05)
(0.195409 0.00315762 -1.92186e-05)
(0.194873 0.0030865 -1.91832e-05)
(0.194334 0.00301558 -1.91496e-05)
(0.193754 0.0029451 -1.91171e-05)
(0.193172 0.00287499 -1.90822e-05)
(0.192547 0.00280554 -1.90446e-05)
(0.191924 0.00273668 -1.90012e-05)
(0.191254 0.00266867 -1.89523e-05)
(0.190591 0.00260142 -1.88953e-05)
(0.189877 0.00253514 -1.88322e-05)
(0.189174 0.00246978 -1.87614e-05)
(0.188418 0.00240544 -1.8686e-05)
(0.187678 0.00234213 -1.86036e-05)
(0.18688 0.00227985 -1.85176e-05)
(0.186106 0.00221855 -1.84266e-05)
(0.185269 0.0021582 -1.83351e-05)
(0.184463 0.00209884 -1.82393e-05)
(0.183589 0.0020403 -1.81438e-05)
(0.182754 0.00198272 -1.80453e-05)
(0.181844 0.00192582 -1.79494e-05)
(0.180984 0.00186988 -1.78513e-05)
(0.180042 0.00181451 -1.77546e-05)
(0.17916 0.00176007 -1.76545e-05)
(0.178188 0.00170594 -1.75584e-05)
(0.177289 0.00165291 -1.74592e-05)
(0.176289 0.00159999 -1.7361e-05)
(0.175377 0.00154819 -1.72567e-05)
(0.174352 0.0014963 -1.71562e-05)
(0.173433 0.00144568 -1.70503e-05)
(0.172386 0.00139478 -1.69455e-05)
(0.171463 0.00134536 -1.68316e-05)
(0.170397 0.00129523 -1.67248e-05)
(0.169478 0.00124687 -1.66139e-05)
(0.168395 0.00119766 -1.65091e-05)
(0.167485 0.00115042 -1.63972e-05)
(0.166387 0.00110175 -1.63044e-05)
(0.165493 0.00105561 -1.62135e-05)
(0.164382 0.00100765 -1.61465e-05)
(0.16351 0.000962389 -1.60899e-05)
(0.162388 0.000914485 -1.60948e-05)
(0.161547 0.00086976 -1.61779e-05)
(0.160414 0.000821106 -1.64769e-05)
(0.159613 0.000775654 -1.71823e-05)
(0.158472 0.0007253 -1.87026e-05)
(0.15772 0.000680922 -2.13868e-05)
(0.156571 0.000635299 -2.54038e-05)
(0.155877 0.000603431 -3.01298e-05)
(0.154708 0.000574462 -3.39211e-05)
(0.154072 0.00055944 -3.38203e-05)
(0.152871 0.000535893 -2.77741e-05)
(0.152301 0.000513793 -1.69686e-05)
(0.151067 0.00047199 -4.96361e-06)
(0.150586 0.000433689 5.63815e-06)
(0.149317 0.00037999 1.38542e-05)
(0.148944 0.000339556 2.0192e-05)
(0.147628 0.000288787 2.50793e-05)
(0.147375 0.000256236 2.87095e-05)
(0.145994 0.000213362 2.95255e-05)
(0.145875 0.000196683 2.46235e-05)
(0.144394 0.000172068 9.6109e-06)
(0.196634 0.00440527 3.47566e-07)
(0.196676 0.00487582 9.68723e-07)
(0.196773 0.00535232 1.56554e-06)
(0.196945 0.00581282 2.19082e-06)
(0.197199 0.00623086 2.8726e-06)
(0.197523 0.00658676 3.54884e-06)
(0.197897 0.00687436 4.08233e-06)
(0.19829 0.00710028 4.3494e-06)
(0.198688 0.0072752 4.32007e-06)
(0.199077 0.00740693 4.05421e-06)
(0.19946 0.00749706 3.64914e-06)
(0.199835 0.00754251 3.17594e-06)
(0.200208 0.00753881 2.65097e-06)
(0.200568 0.00748323 2.04749e-06)
(0.200917 0.00737601 1.3243e-06)
(0.201238 0.00722061 4.48496e-07)
(0.20153 0.00702301 -5.94349e-07)
(0.201776 0.00679118 -1.80085e-06)
(0.201981 0.00653427 -3.15373e-06)
(0.202131 0.00626216 -4.62577e-06)
(0.202236 0.0059847 -6.18056e-06)
(0.202286 0.00571113 -7.77342e-06)
(0.202298 0.0054493 -9.35204e-06)
(0.202264 0.00520527 -1.0861e-05)
(0.202206 0.00498286 -1.22466e-05)
(0.202117 0.00478372 -1.34651e-05)
(0.202018 0.00460756 -1.44891e-05)
(0.201898 0.00445276 -1.53131e-05)
(0.201781 0.00431685 -1.59504e-05)
(0.201649 0.00419714 -1.64273e-05)
(0.201526 0.00409097 -1.67714e-05)
(0.201388 0.00399584 -1.70074e-05)
(0.201262 0.00390949 -1.71546e-05)
(0.20112 0.00382985 -1.72309e-05)
(0.20099 0.00375523 -1.7252e-05)
(0.20084 0.00368413 -1.72346e-05)
(0.200703 0.00361553 -1.71932e-05)
(0.200541 0.00354856 -1.71412e-05)
(0.200392 0.00348283 -1.70863e-05)
(0.200214 0.00341786 -1.70336e-05)
(0.20005 0.00335364 -1.69822e-05)
(0.199852 0.00328984 -1.69327e-05)
(0.199669 0.00322667 -1.68825e-05)
(0.199448 0.00316382 -1.68332e-05)
(0.199244 0.0031017 -1.67832e-05)
(0.198997 0.00303999 -1.67339e-05)
(0.198771 0.00297918 -1.66831e-05)
(0.198495 0.00291885 -1.66313e-05)
(0.198245 0.00285959 -1.65748e-05)
(0.197939 0.00280075 -1.65155e-05)
(0.197665 0.00274314 -1.64503e-05)
(0.197327 0.00268588 -1.63818e-05)
(0.197027 0.00263 -1.63066e-05)
(0.196656 0.00257435 -1.62269e-05)
(0.19633 0.0025201 -1.6141e-05)
(0.195925 0.00246586 -1.60535e-05)
(0.195572 0.00241308 -1.59584e-05)
(0.195131 0.00235998 -1.58604e-05)
(0.194752 0.00230839 -1.57557e-05)
(0.194275 0.00225619 -1.56498e-05)
(0.193869 0.00220559 -1.55371e-05)
(0.193354 0.00215406 -1.54201e-05)
(0.192923 0.00210428 -1.52932e-05)
(0.192369 0.0020531 -1.51656e-05)
(0.191915 0.00200402 -1.50277e-05)
(0.191321 0.00195304 -1.48823e-05)
(0.190843 0.00190436 -1.4722e-05)
(0.19021 0.00185329 -1.45575e-05)
(0.189711 0.00180493 -1.43784e-05)
(0.189038 0.00175369 -1.41899e-05)
(0.188521 0.00170573 -1.39771e-05)
(0.187807 0.001654 -1.37602e-05)
(0.187275 0.00160621 -1.35283e-05)
(0.18652 0.00155401 -1.32847e-05)
(0.185976 0.00150639 -1.30116e-05)
(0.18518 0.00145324 -1.27419e-05)
(0.184631 0.00140586 -1.2449e-05)
(0.183794 0.00135199 -1.21381e-05)
(0.183242 0.00130457 -1.17801e-05)
(0.182363 0.001249 -1.14066e-05)
(0.181816 0.00120103 -1.0987e-05)
(0.180896 0.00114247 -1.06222e-05)
(0.180362 0.00109167 -1.05479e-05)
(0.179402 0.00102708 -1.14612e-05)
(0.178893 0.000972654 -1.43643e-05)
(0.177896 0.000907467 -2.02407e-05)
(0.177421 0.000865318 -2.89036e-05)
(0.176377 0.000822945 -3.81134e-05)
(0.175928 0.0008111 -4.2562e-05)
(0.174816 0.000785426 -3.65387e-05)
(0.174397 0.00077008 -2.05902e-05)
(0.173222 0.00071785 -1.12276e-06)
(0.172864 0.000675192 1.59188e-05)
(0.171635 0.000600601 2.8247e-05)
(0.171358 0.000552719 3.6656e-05)
(0.170069 0.000482652 4.26052e-05)
(0.169881 0.000451147 4.75146e-05)
(0.168517 0.000394964 5.03739e-05)
(0.168435 0.00038284 4.68832e-05)
(0.166977 0.000331724 2.02369e-05)
(0.197125 0.00435547 2.04139e-07)
(0.197175 0.00475388 5.44847e-07)
(0.197265 0.00515701 8.59156e-07)
(0.197405 0.00555018 1.2081e-06)
(0.197606 0.00591567 1.64372e-06)
(0.197861 0.00623749 2.15974e-06)
(0.198162 0.00650644 2.67912e-06)
(0.198489 0.00672115 3.09293e-06)
(0.19883 0.00688622 3.31834e-06)
(0.199169 0.00700772 3.34249e-06)
(0.199507 0.00708969 3.21446e-06)
(0.199835 0.00713295 3.00187e-06)
(0.20016 0.00713622 2.74801e-06)
(0.200473 0.00709803 2.45507e-06)
(0.200778 0.00701831 2.09362e-06)
(0.20106 0.00689904 1.62307e-06)
(0.201323 0.00674436 1.00999e-06)
(0.201549 0.00655996 2.36608e-07)
(0.201746 0.00635277 -6.98207e-07)
(0.201898 0.00613015 -1.78258e-06)
(0.202017 0.00589978 -2.99401e-06)
(0.202089 0.00566875 -4.30106e-06)
(0.202135 0.00544359 -5.66295e-06)
(0.20214 0.00522932 -7.03175e-06)
(0.202129 0.00502982 -8.3556e-06)
(0.202088 0.004847 -9.58675e-06)
(0.202043 0.00468176 -1.06875e-05)
(0.201977 0.00453335 -1.16358e-05)
(0.201918 0.00440074 -1.24251e-05)
(0.201843 0.00428187 -1.30626e-05)
(0.201783 0.00417515 -1.35624e-05)
(0.201708 0.00407833 -1.39424e-05)
(0.201652 0.00399001 -1.42188e-05)
(0.201579 0.00390812 -1.44087e-05)
(0.201527 0.00383177 -1.45273e-05)
(0.201456 0.0037592 -1.45913e-05)
(0.201408 0.00369007 -1.4615e-05)
(0.201336 0.00362298 -1.46124e-05)
(0.20129 0.00355813 -1.45928e-05)
(0.201215 0.00349432 -1.45639e-05)
(0.201168 0.00343216 -1.45284e-05)
(0.201088 0.0033705 -1.449e-05)
(0.201038 0.0033103 -1.44483e-05)
(0.200949 0.00325037 -1.4406e-05)
(0.200895 0.00319198 -1.43623e-05)
(0.200795 0.00313379 -1.43194e-05)
(0.200735 0.00307731 -1.42756e-05)
(0.200624 0.00302094 -1.42314e-05)
(0.200557 0.00296645 -1.41831e-05)
(0.200432 0.00291182 -1.41322e-05)
(0.200357 0.00285927 -1.40753e-05)
(0.200215 0.00280633 -1.40142e-05)
(0.200132 0.00275568 -1.39454e-05)
(0.199973 0.00270441 -1.387e-05)
(0.19988 0.00265559 -1.37864e-05)
(0.199702 0.00260577 -1.36981e-05)
(0.199598 0.00255856 -1.35983e-05)
(0.199399 0.00250983 -1.34911e-05)
(0.199284 0.00246392 -1.33722e-05)
(0.199061 0.002416 -1.32454e-05)
(0.198934 0.00237115 -1.31048e-05)
(0.198686 0.00232373 -1.29508e-05)
(0.198547 0.00227974 -1.27765e-05)
(0.198271 0.00223244 -1.25908e-05)
(0.198119 0.00218917 -1.23808e-05)
(0.197813 0.0021418 -1.21466e-05)
(0.197648 0.00209889 -1.18798e-05)
(0.19731 0.00205099 -1.15875e-05)
(0.197132 0.00200822 -1.12562e-05)
(0.19676 0.00195957 -1.08877e-05)
(0.196569 0.00191698 -1.04599e-05)
(0.196159 0.00186721 -9.99091e-06)
(0.195957 0.0018246 -9.46569e-06)
(0.195508 0.00177358 -8.87575e-06)
(0.195294 0.00173067 -8.19394e-06)
(0.194805 0.00167763 -7.45002e-06)
(0.194582 0.00163442 -6.60005e-06)
(0.194049 0.00157963 -5.61872e-06)
(0.193818 0.0015359 -4.44478e-06)
(0.19324 0.00147845 -3.05155e-06)
(0.193005 0.00143368 -1.29361e-06)
(0.192377 0.00137185 9.19061e-07)
(0.192141 0.00132281 3.58105e-06)
(0.191466 0.00125126 6.11931e-06)
(0.19124 0.00119243 7.19987e-06)
(0.190526 0.00110938 4.83786e-06)
(0.190321 0.00104869 -2.18951e-06)
(0.189557 0.000972802 -1.225e-05)
(0.189355 0.000931003 -1.88142e-05)
(0.188506 0.000867846 -1.4934e-05)
(0.188291 0.000827736 -2.25246e-06)
(0.187366 0.000750765 1.08431e-05)
(0.18718 0.000701874 1.8508e-05)
(0.186205 0.000622067 2.09854e-05)
(0.186069 0.000585579 2.14038e-05)
(0.185043 0.000523725 2.23284e-05)
(0.184954 0.00051595 2.63922e-05)
(0.18386 0.000478864 3.3752e-05)
(0.183829 0.000505859 4.21863e-05)
(0.182665 0.000485092 2.10406e-05)
(0.19757 0.00430276 8.01957e-08)
(0.197625 0.00464109 1.88885e-07)
(0.197707 0.00498144 2.8272e-07)
(0.197822 0.00531358 4.21866e-07)
(0.197982 0.005626 6.56129e-07)
(0.198182 0.00590757 1.00261e-06)
(0.198422 0.00615 1.43047e-06)
(0.198686 0.00634918 1.86572e-06)
(0.198971 0.00650558 2.22505e-06)
(0.199259 0.00662211 2.45841e-06)
(0.199552 0.0067022 2.56648e-06)
(0.199835 0.0067478 2.58674e-06)
(0.200118 0.00675966 2.56239e-06)
(0.200387 0.00673744 2.51496e-06)
(0.200652 0.00668143 2.43437e-06)
(0.200896 0.00659269 2.2864e-06)
(0.201127 0.00647416 2.02987e-06)
(0.201328 0.0063297 1.63148e-06)
(0.201508 0.0061647 1.07344e-06)
(0.201649 0.00598451 3.52561e-07)
(0.201767 0.00579535 -5.21516e-07)
(0.201844 0.00560252 -1.52764e-06)
(0.201901 0.00541156 -2.63323e-06)
(0.201921 0.00522634 -3.79656e-06)
(0.201931 0.00505062 -4.97004e-06)
(0.201909 0.00488602 -6.10679e-06)
(0.201888 0.00473417 -7.16534e-06)
(0.201843 0.00459462 -8.11491e-06)
(0.201807 0.00446746 -8.93699e-06)
(0.201752 0.00435097 -9.62644e-06)
(0.201713 0.00424464 -1.01877e-05)
(0.201656 0.00414631 -1.06323e-05)
(0.201621 0.00405561 -1.0974e-05)
(0.201567 0.00397037 -1.12285e-05)
(0.201537 0.00389063 -1.14099e-05)
(0.201485 0.00381433 -1.15326e-05)
(0.201461 0.00374201 -1.16085e-05)
(0.201412 0.00367166 -1.16498e-05)
(0.201393 0.00360432 -1.16659e-05)
(0.201345 0.00353799 -1.1665e-05)
(0.201329 0.00347413 -1.16522e-05)
(0.20128 0.00341068 -1.16325e-05)
(0.201268 0.00334956 -1.16074e-05)
(0.201217 0.0032885 -1.15795e-05)
(0.201207 0.00322986 -1.15486e-05)
(0.201152 0.00317109 -1.15163e-05)
(0.201143 0.00311493 -1.14818e-05)
(0.201084 0.00305839 -1.14453e-05)
(0.201076 0.00300469 -1.1404e-05)
(0.201011 0.00295023 -1.1359e-05)
(0.201004 0.00289884 -1.13073e-05)
(0.200932 0.0028463 -1.12495e-05)
(0.200926 0.00279717 -1.11828e-05)
(0.200846 0.0027465 -1.11066e-05)
(0.20084 0.00269956 -1.10196e-05)
(0.200751 0.00265061 -1.09229e-05)
(0.200745 0.00260565 -1.08099e-05)
(0.200646 0.00255803 -1.06824e-05)
(0.200639 0.00251476 -1.05359e-05)
(0.200528 0.00246818 -1.03701e-05)
(0.20052 0.00242634 -1.01789e-05)
(0.200395 0.00238046 -9.95866e-06)
(0.200386 0.00233986 -9.70176e-06)
(0.200246 0.00229427 -9.41073e-06)
(0.200235 0.00225473 -9.07043e-06)
(0.200078 0.00220925 -8.67399e-06)
(0.200065 0.00217044 -8.21115e-06)
(0.199888 0.00212451 -7.67668e-06)
(0.199872 0.00208608 -7.05252e-06)
(0.199674 0.00203932 -6.32809e-06)
(0.199654 0.00200126 -5.47374e-06)
(0.199432 0.0019533 -4.48789e-06)
(0.19941 0.00191543 -3.34505e-06)
(0.199161 0.00186614 -2.01129e-06)
(0.199135 0.00182799 -4.46953e-07)
(0.198857 0.00177644 1.35221e-06)
(0.198827 0.00173775 3.45304e-06)
(0.198519 0.00168426 5.93454e-06)
(0.198484 0.001645 8.89631e-06)
(0.198142 0.00158897 1.2472e-05)
(0.198104 0.00154917 1.69597e-05)
(0.197724 0.0014897 2.28135e-05)
(0.197681 0.00144663 3.07007e-05)
(0.197262 0.00137762 4.13739e-05)
(0.197223 0.00132068 5.52218e-05)
(0.196775 0.00122278 7.14283e-05)
(0.196752 0.00112379 8.7579e-05)
(0.196271 0.000973009 0.000100589)
(0.196238 0.00083136 0.000103432)
(0.195683 0.000664721 8.85421e-05)
(0.195622 0.000551553 5.41815e-05)
(0.195009 0.000446818 7.98965e-06)
(0.194963 0.000409678 -3.85282e-05)
(0.194319 0.000370353 -7.70103e-05)
(0.194297 0.000383861 -0.000104304)
(0.19362 0.000377737 -0.000119952)
(0.193612 0.000413834 -0.000123066)
(0.192889 0.000416884 -0.000110715)
(0.192904 0.000471665 -7.7547e-05)
(0.192123 0.000546429 -2.68314e-05)
(0.197973 0.00424368 -2.72398e-08)
(0.198029 0.00453179 -1.13301e-07)
(0.198102 0.00481954 -2.00114e-07)
(0.198196 0.00510017 -2.35767e-07)
(0.198323 0.0053663 -1.76729e-07)
(0.198478 0.00561025 1.92463e-09)
(0.198668 0.00582573 2.95645e-07)
(0.198879 0.00600819 6.66981e-07)
(0.199112 0.00615607 1.0582e-06)
(0.199352 0.00626956 1.41612e-06)
(0.199599 0.00635047 1.71368e-06)
(0.199841 0.00640024 1.95491e-06)
(0.200084 0.00642032 2.16227e-06)
(0.200315 0.00641104 2.35568e-06)
(0.200542 0.0063733 2.5358e-06)
(0.200752 0.00630779 2.67933e-06)
(0.200953 0.0062169 2.74729e-06)
(0.201129 0.00610312 2.6991e-06)
(0.201291 0.00597081 2.50252e-06)
(0.20142 0.00582382 2.13527e-06)
(0.201532 0.00566749 1.58906e-06)
(0.201609 0.00550584 8.7256e-07)
(0.201672 0.0053439 1.13916e-08)
(0.201701 0.0051846 -9.55619e-07)
(0.201722 0.00503161 -1.98147e-06)
(0.201714 0.00488609 -3.01704e-06)
(0.201707 0.00475012 -4.01632e-06)
(0.201676 0.00462313 -4.94172e-06)
(0.201653 0.004506 -5.76691e-06)
(0.20161 0.00439699 -6.47816e-06)
(0.201583 0.00429647 -7.07277e-06)
(0.201537 0.00420218 -7.5564e-06)