/*--------------------------------*- C++ -*----------------------------------*\
| =========                 |                                                 |
| \\      /  F ield         | OpenFOAM: The Open Source CFD Toolbox           |
|  \\    /   O peration     | Version:  2.3.0                                 |
|   \\  /    A nd           | Web:      www.OpenFOAM.org                      |
|    \\/     M anipulation  |                                                 |
\*---------------------------------------------------------------------------*/
FoamFile
{
    version     2.0;
    format      ascii;
    class       volVectorField;
    location    "0.85";
    object      U_0;
}
// * * * * * * * * * * * * * * * * * * * * * * * * * * * * * * * * * * * * * //

dimensions      [0 1 -1 0 0 0 0];

internalField   nonuniform List<vector> 
2889
(
(0.17899 0.00424623 0)
(0.158127 0.00589663 0)
(0.13935 0.0061109 0)
(0.121216 0.00553825 0)
(0.103752 0.00474775 0)
(0.087683 0.00387837 0)
(0.0740097 0.0029395 0)
(0.063178 0.00194239 0)
(0.0550629 0.00105025 0)
(0.0491771 0.000422927 0)
(0.0449651 7.52957e-05 0)
(0.0419524 -7.41293e-05 0)
(0.0397526 -0.000108848 0)
(0.0380757 -8.79956e-05 0)
(0.0367122 -4.55167e-05 0)
(0.0355266 -1.47946e-06 0)
(0.0344421 3.37231e-05 0)
(0.0334222 5.7182e-05 0)
(0.0324535 7.01944e-05 0)
(0.0315337 7.55374e-05 0)
(0.0306637 7.59436e-05 0)
(0.0298443 7.35611e-05 0)
(0.0290751 6.9837e-05 0)
(0.0283539 6.56603e-05 0)
(0.0276779 6.15051e-05 0)
(0.0270434 5.76083e-05 0)
(0.0264469 5.40369e-05 0)
(0.0258846 5.08062e-05 0)
(0.0253536 4.78757e-05 0)
(0.0248505 4.52222e-05 0)
(0.0243731 4.27941e-05 0)
(0.0239188 4.05752e-05 0)
(0.0234861 3.85205e-05 0)
(0.0230729 3.66267e-05 0)
(0.0226781 3.4855e-05 0)
(0.0223 3.32129e-05 0)
(0.0219379 3.16644e-05 0)
(0.0215902 3.02258e-05 0)
(0.0212567 2.88607e-05 0)
(0.0209356 2.7593e-05 0)
(0.0206272 2.63833e-05 0)
(0.0203297 2.52625e-05 0)
(0.0200436 2.41867e-05 0)
(0.019767 2.3194e-05 0)
(0.0195007 2.22341e-05 0)
(0.0192429 2.13534e-05 0)
(0.0189943 2.04941e-05 0)
(0.0187531 1.97117e-05 0)
(0.0185205 1.89397e-05 0)
(0.0182944 1.82439e-05 0)
(0.0180762 1.75471e-05 0)
(0.0178635 1.69277e-05 0)
(0.0176583 1.6296e-05 0)
(0.0174578 1.57444e-05 0)
(0.0172646 1.51686e-05 0)
(0.0170751 1.46779e-05 0)
(0.0168927 1.41499e-05 0)
(0.0167132 1.37141e-05 0)
(0.0165407 1.32269e-05 0)
(0.0163703 1.28411e-05 0)
(0.0162069 1.23883e-05 0)
(0.0160447 1.20487e-05 0)
(0.0158897 1.16248e-05 0)
(0.0157351 1.13282e-05 0)
(0.0155879 1.09276e-05 0)
(0.0154401 1.06719e-05 0)
(0.0153002 1.02894e-05 0)
(0.0151585 1.00736e-05 0)
(0.0150256 9.70417e-06 0)
(0.0148894 9.52761e-06 0)
(0.0147629 9.16636e-06 0)
(0.0146316 9.02928e-06 0)
(0.0145113 8.67127e-06 0)
(0.0143845 8.57476e-06 0)
(0.0142701 8.2147e-06 0)
(0.014147 8.16083e-06 0)
(0.0140384 7.79292e-06 0)
(0.0139186 7.78507e-06 0)
(0.0138156 7.40289e-06 0)
(0.0136984 7.44568e-06 0)
(0.0136011 7.04198e-06 0)
(0.0134859 7.14148e-06 0)
(0.0133941 6.70809e-06 0)
(0.0132802 6.87237e-06 0)
(0.0131942 6.39923e-06 0)
(0.0130808 6.63899e-06 0)
(0.0130009 6.11395e-06 0)
(0.0128869 6.44318e-06 0)
(0.0128134 5.85103e-06 0)
(0.0126978 6.28822e-06 0)
(0.0126313 5.60972e-06 0)
(0.0125126 6.1801e-06 0)
(0.0124539 5.38875e-06 0)
(0.0123302 6.13008e-06 0)
(0.0122807 5.1847e-06 0)
(0.0121493 6.16074e-06 0)
(0.0121111 4.98997e-06 0)
(0.0119676 6.31327e-06 0)
(0.0119452 4.91611e-06 0)
(0.0117754 8.36659e-06 0)
(0.194768 0.00761769 0)
(0.192818 0.0107304 0)
(0.190189 0.0118642 0)
(0.186365 0.0117305 0)
(0.181023 0.0111053 0)
(0.174296 0.0102306 0)
(0.166761 0.00911139 0)
(0.158903 0.0077357 0)
(0.151107 0.00623753 0)
(0.143615 0.00482734 0)
(0.136564 0.00365248 0)
(0.130054 0.00275351 0)
(0.124132 0.00210098 0)
(0.118806 0.00165032 0)
(0.11404 0.00135161 0)
(0.109764 0.00115661 0)
(0.10591 0.00102563 0)
(0.102412 0.000931092 0)
(0.0992172 0.000856275 0)
(0.0962818 0.000792207 0)
(0.0935714 0.00073458 0)
(0.0910578 0.000681681 0)
(0.0887185 0.000632953 0)
(0.0865337 0.000588314 0)
(0.0844879 0.000547682 0)
(0.0825661 0.000510941 0)
(0.0807567 0.000477794 0)
(0.0790482 0.000447937 0)
(0.0774321 0.000420963 0)
(0.0758991 0.000396553 0)
(0.074443 0.000374333 0)
(0.0730565 0.00035406 0)
(0.071735 0.000335433 0)
(0.0704725 0.000318301 0)
(0.0692659 0.000302425 0)
(0.0681097 0.000287727 0)
(0.0670023 0.000274015 0)
(0.0659385 0.000261263 0)
(0.0649177 0.000249303 0)
(0.0639349 0.00023815 0)
(0.0629903 0.000227643 0)
(0.0620788 0.000217832 0)
(0.0612018 0.000208551 0)
(0.0603537 0.00019988 0)
(0.0595368 0.000191643 0)
(0.0587453 0.000183949 0)
(0.0579824 0.000176607 0)
(0.0572415 0.000169757 0)
(0.0565271 0.000163185 0)
(0.0558317 0.000157066 0)
(0.0551612 0.00015116 0)
(0.0545069 0.000145679 0)
(0.0538761 0.00014035 0)
(0.053259 0.000135427 0)
(0.0526645 0.0001306 0)
(0.0520811 0.000126171 0)
(0.0515198 0.000121781 0)
(0.050967 0.000117789 0)
(0.0504362 0.000113779 0)
(0.0499112 0.000110178 0)
(0.0494085 0.000106501 0)
(0.0489088 0.00010325 0)
(0.0484322 9.98633e-05 0)
(0.0479555 9.69308e-05 0)
(0.0475032 9.37956e-05 0)
(0.0470475 9.11533e-05 0)
(0.0466178 8.82359e-05 0)
(0.0461811 8.58618e-05 0)
(0.0457729 8.31311e-05 0)
(0.0453532 8.10075e-05 0)
(0.0449653 7.84349e-05 0)
(0.044561 7.65482e-05 0)
(0.0441925 7.41072e-05 0)
(0.0438019 7.24478e-05 0)
(0.043452 7.0113e-05 0)
(0.0430733 6.86757e-05 0)
(0.0427417 6.64216e-05 0)
(0.0423732 6.52064e-05 0)
(0.0420595 6.30077e-05 0)
(0.0416993 6.20192e-05 0)
(0.0414036 5.98499e-05 0)
(0.0410497 5.90976e-05 0)
(0.0407721 5.69309e-05 0)
(0.0404225 5.6431e-05 0)
(0.0401636 5.42367e-05 0)
(0.0398158 5.40135e-05 0)
(0.0395765 5.1758e-05 0)
(0.0392275 5.18451e-05 0)
(0.0390092 4.94901e-05 0)
(0.0386557 4.99335e-05 0)
(0.0384603 4.74345e-05 0)
(0.0380979 4.82966e-05 0)
(0.0379283 4.56e-05 0)
(0.0375515 4.69703e-05 0)
(0.0374118 4.4006e-05 0)
(0.0370128 4.60192e-05 0)
(0.0369095 4.27068e-05 0)
(0.0364763 4.56197e-05 0)
(0.0364215 4.1988e-05 0)
(0.0359303 5.02015e-05 0)
(0.195784 0.00731778 0)
(0.19609 0.00990513 0)
(0.197021 0.0115316 0)
(0.198065 0.0120764 0)
(0.198564 0.0119937 0)
(0.198164 0.0115731 0)
(0.196841 0.0108652 0)
(0.194711 0.0098875 0)
(0.191926 0.0087346 0)
(0.188649 0.00756374 0)
(0.185025 0.00650832 0)
(0.181202 0.00562966 0)
(0.177298 0.00492212 0)
(0.173411 0.00435932 0)
(0.169597 0.00390915 0)
(0.165877 0.00354187 0)
(0.162261 0.0032337 0)
(0.158753 0.00296783 0)
(0.155355 0.00273332 0)
(0.152066 0.00252342 0)
(0.148889 0.00233397 0)
(0.145822 0.00216238 0)
(0.142867 0.00200681 0)
(0.140021 0.00186593 0)
(0.137284 0.00173845 0)
(0.134653 0.00162323 0)
(0.132126 0.00151901 0)
(0.129697 0.00142469 0)
(0.127365 0.00133911 0)
(0.125124 0.00126131 0)
(0.122971 0.00119032 0)
(0.1209 0.00112541 0)
(0.118909 0.00106578 0)
(0.116991 0.00101091 0)
(0.115146 0.000960188 0)
(0.113366 0.00091325 0)
(0.111652 0.000869603 0)
(0.109996 0.000829026 0)
(0.108399 0.000791107 0)
(0.106855 0.000755725 0)
(0.105364 0.000722522 0)
(0.10392 0.000691456 0)
(0.102525 0.000662193 0)
(0.101172 0.000634757 0)
(0.0998639 0.000608823 0)
(0.098592 0.00058447 0)
(0.0973635 0.000561373 0)
(0.0961661 0.000539664 0)
(0.0950096 0.000519002 0)
(0.0938799 0.000499573 0)
(0.0927894 0.000481012 0)
(0.0917216 0.000463563 0)
(0.0906917 0.000446827 0)
(0.0896803 0.000431107 0)
(0.0887061 0.000415962 0)
(0.0877464 0.000401761 0)
(0.0868237 0.000388008 0)
(0.0859112 0.000375148 0)
(0.0850363 0.000362618 0)
(0.0841671 0.000350947 0)
(0.0833367 0.000339494 0)
(0.082507 0.000328884 0)
(0.0817181 0.000318382 0)
(0.0809246 0.000308722 0)
(0.0801747 0.00029906 0)
(0.0794142 0.000290256 0)
(0.0787011 0.000281337 0)
(0.0779707 0.000273308 0)
(0.0772925 0.000265045 0)
(0.0765892 0.000257726 0)
(0.0759444 0.000250042 0)
(0.0752655 0.000243374 0)
(0.0746528 0.000236202 0)
(0.0739955 0.000230138 0)
(0.0734141 0.000223414 0)
(0.0727757 0.000217917 0)
(0.072225 0.000211584 0)
(0.0716026 0.000206627 0)
(0.0710824 0.000200633 0)
(0.070473 0.000196197 0)
(0.0699835 0.000190492 0)
(0.0693839 0.000186568 0)
(0.0689257 0.000181107 0)
(0.0683324 0.000177696 0)
(0.0679067 0.000172435 0)
(0.0673156 0.000169551 0)
(0.0669242 0.000164448 0)
(0.0663304 0.000162116 0)
(0.0659759 0.000157132 0)
(0.0653739 0.000155392 0)
(0.0650598 0.000150495 0)
(0.0644426 0.000149403 0)
(0.0641739 0.000144574 0)
(0.0635326 0.000144205 0)
(0.0633161 0.000139445 0)
(0.0626389 0.000139921 0)
(0.0624844 0.000135253 0)
(0.061755 0.000137032 0)
(0.0616763 0.000132538 0)
(0.060873 0.000141254 0)
(0.196737 0.00688132 0)
(0.197039 0.00873096 0)
(0.198001 0.0102552 0)
(0.199531 0.0110439 0)
(0.201158 0.011221 0)
(0.202482 0.0110247 0)
(0.203325 0.0105704 0)
(0.203653 0.00990508 0)
(0.203481 0.00908958 0)
(0.202851 0.00822256 0)
(0.201827 0.00740509 0)
(0.200491 0.00669875 0)
(0.19893 0.00611774 0)
(0.19722 0.00564383 0)
(0.195411 0.00525146 0)
(0.19353 0.00491858 0)
(0.191591 0.00462841 0)
(0.189601 0.00436904 0)
(0.187569 0.0041323 0)
(0.185498 0.00391295 0)
(0.183397 0.00370775 0)
(0.181272 0.00351487 0)
(0.179131 0.00333323 0)
(0.176981 0.00316226 0)
(0.17483 0.00300147 0)
(0.172682 0.00285049 0)
(0.170547 0.00270879 0)
(0.168425 0.00257591 0)
(0.166325 0.00245126 0)
(0.164247 0.00233437 0)
(0.162197 0.00222463 0)
(0.160175 0.00212162 0)
(0.158188 0.00202478 0)
(0.15623 0.00193377 0)
(0.154311 0.00184808 0)
(0.152424 0.00176743 0)
(0.150577 0.00169137 0)
(0.148763 0.00161969 0)
(0.146991 0.00155198 0)
(0.14525 0.00148808 0)
(0.143553 0.00142763 0)
(0.141886 0.00137052 0)
(0.140261 0.00131641 0)
(0.138666 0.00126522 0)
(0.137114 0.00121664 0)
(0.135588 0.00117064 0)
(0.134104 0.0011269 0)
(0.132645 0.00108546 0)
(0.131228 0.00104598 0)
(0.129831 0.00100853 0)
(0.128478 0.000972793 0)
(0.127141 0.000938876 0)
(0.125849 0.000906446 0)
(0.124569 0.000875651 0)
(0.123334 0.000846145 0)
(0.122107 0.000818121 0)
(0.120927 0.00079121 0)
(0.11975 0.000765652 0)
(0.118623 0.000741049 0)
(0.117492 0.000717691 0)
(0.116414 0.000695147 0)
(0.115327 0.000673758 0)
(0.114297 0.000653055 0)
(0.113249 0.000633432 0)
(0.112266 0.000614377 0)
(0.111255 0.000596345 0)
(0.110315 0.00057877 0)
(0.109339 0.000562175 0)
(0.108441 0.000545929 0)
(0.107496 0.000530636 0)
(0.106639 0.000515589 0)
(0.105722 0.00050148 0)
(0.104906 0.000487516 0)
(0.104013 0.000474488 0)
(0.103238 0.000461506 0)
(0.102366 0.000449471 0)
(0.101631 0.00043738 0)
(0.100777 0.000426264 0)
(0.100082 0.000414985 0)
(0.0992424 0.000404725 0)
(0.0985887 0.000394192 0)
(0.097759 0.000384738 0)
(0.097148 0.000374896 0)
(0.0963235 0.000366209 0)
(0.0957572 0.000357014 0)
(0.0949327 0.000349068 0)
(0.0944141 0.000340487 0)
(0.0935834 0.000333269 0)
(0.0931163 0.00032529 0)
(0.0922719 0.000318798 0)
(0.0918615 0.000311431 0)
(0.0909947 0.000305678 0)
(0.0906475 0.000298965 0)
(0.0897473 0.000294006 0)
(0.0894717 0.000287994 0)
(0.0885246 0.000284027 0)
(0.0883315 0.000278689 0)
(0.0873208 0.000276562 0)
(0.0872225 0.000271935 0)
(0.0861299 0.000276991 0)
(0.197465 0.00655855 0)
(0.197768 0.0079708 0)
(0.198534 0.0092753 0)
(0.199815 0.0101123 0)
(0.201353 0.0104127 0)
(0.202827 0.0103223 0)
(0.204048 0.00998199 0)
(0.204955 0.00947202 0)
(0.205546 0.00884672 0)
(0.205835 0.00816977 0)
(0.20585 0.00751233 0)
(0.205631 0.00692805 0)
(0.205237 0.00643865 0)
(0.204717 0.00603709 0)
(0.20411 0.00570484 0)
(0.203434 0.00542383 0)
(0.202701 0.00517991 0)
(0.201909 0.00496273 0)
(0.20106 0.00476486 0)
(0.200152 0.00458119 0)
(0.199187 0.0044083 0)
(0.198165 0.00424411 0)
(0.197092 0.00408737 0)
(0.195966 0.00393738 0)
(0.194795 0.0037937 0)
(0.19358 0.00365606 0)
(0.192328 0.00352417 0)
(0.191038 0.00339777 0)
(0.189721 0.00327659 0)
(0.188373 0.00316037 0)
(0.187005 0.00304885 0)
(0.185612 0.00294179 0)
(0.184207 0.00283898 0)
(0.182783 0.00274021 0)
(0.181354 0.00264529 0)
(0.17991 0.00255407 0)
(0.178467 0.00246637 0)
(0.177014 0.00238207 0)
(0.175569 0.00230103 0)
(0.174115 0.00222312 0)
(0.172675 0.00214824 0)
(0.171229 0.00207625 0)
(0.1698 0.00200709 0)
(0.168368 0.0019406 0)
(0.166958 0.00187673 0)
(0.165544 0.00181534 0)
(0.164158 0.00175638 0)
(0.162767 0.00169969 0)
(0.161407 0.00164528 0)
(0.160042 0.00159293 0)
(0.158713 0.00154269 0)
(0.157375 0.00149434 0)
(0.156078 0.00144796 0)
(0.154771 0.00140328 0)
(0.153508 0.00136043 0)
(0.15223 0.00131912 0)
(0.151003 0.00127953 0)
(0.149755 0.00124129 0)
(0.148565 0.00120468 0)
(0.147347 0.00116926 0)
(0.146194 0.00113539 0)
(0.145005 0.00110254 0)
(0.143889 0.00107117 0)
(0.142729 0.00104068 0)
(0.141651 0.00101161 0)
(0.140517 0.000983256 0)
(0.139478 0.000956309 0)
(0.13837 0.000929906 0)
(0.137368 0.000904905 0)
(0.136283 0.000880283 0)
(0.135322 0.00085708 0)
(0.134258 0.000834079 0)
(0.133335 0.000812539 0)
(0.13229 0.000791014 0)
(0.131409 0.000771022 0)
(0.130379 0.000750842 0)
(0.129539 0.000732296 0)
(0.128521 0.000713343 0)
(0.127726 0.000696158 0)
(0.126716 0.000678325 0)
(0.125966 0.000662437 0)
(0.124961 0.000645627 0)
(0.124259 0.000630986 0)
(0.123254 0.000615116 0)
(0.122603 0.000601694 0)
(0.121591 0.00058669 0)
(0.120996 0.00057448 0)
(0.119971 0.000560284 0)
(0.119437 0.000549303 0)
(0.118391 0.000535879 0)
(0.117924 0.00052617 0)
(0.116847 0.000513519 0)
(0.116454 0.000505137 0)
(0.115336 0.000493362 0)
(0.115026 0.000486319 0)
(0.113853 0.000475782 0)
(0.113638 0.000469971 0)
(0.112394 0.000461788 0)
(0.112284 0.000457391 0)
(0.110954 0.000455804 0)
(0.198061 0.00629003 0)
(0.198366 0.00744091 0)
(0.199008 0.00853753 0)
(0.200046 0.00933757 0)
(0.201344 0.00970839 0)
(0.202669 0.00970489 0)
(0.203842 0.00945001 0)
(0.204789 0.00903937 0)
(0.205501 0.00853249 0)
(0.205994 0.00797731 0)
(0.206291 0.00742447 0)
(0.206422 0.00691826 0)
(0.206427 0.00648301 0)
(0.206344 0.00612069 0)
(0.206207 0.0058201 0)
(0.206032 0.00556694 0)
(0.20583 0.00534884 0)
(0.205597 0.00515644 0)
(0.205337 0.00498301 0)
(0.20504 0.00482368 0)
(0.204711 0.00467517 0)
(0.204342 0.00453519 0)
(0.203938 0.0044023 0)
(0.203493 0.0042755 0)
(0.203013 0.00415419 0)
(0.202491 0.00403783 0)
(0.201937 0.0039261 0)
(0.201341 0.00381856 0)
(0.200716 0.00371497 0)
(0.200051 0.00361491 0)
(0.199359 0.00351824 0)
(0.198629 0.00342456 0)
(0.197876 0.00333381 0)
(0.197085 0.00324563 0)
(0.196276 0.00316005 0)
(0.195431 0.0030767 0)
(0.194572 0.00299573 0)
(0.193678 0.00291676 0)
(0.192775 0.00284001 0)
(0.191839 0.00276509 0)
(0.190899 0.00269229 0)
(0.189926 0.00262119 0)
(0.188954 0.00255216 0)
(0.18795 0.00248469 0)
(0.186954 0.00241927 0)
(0.185924 0.00235531 0)
(0.184909 0.00229337 0)
(0.183859 0.00223276 0)
(0.182829 0.00217418 0)
(0.181764 0.00211681 0)
(0.180726 0.00206147 0)
(0.179649 0.0020072 0)
(0.178607 0.00195498 0)
(0.177523 0.00190368 0)
(0.176481 0.00185445 0)
(0.175392 0.00180598 0)
(0.174356 0.00175963 0)
(0.173265 0.00171386 0)
(0.172237 0.00167026 0)
(0.171147 0.00162703 0)
(0.17013 0.00158605 0)
(0.169042 0.00154522 0)
(0.16804 0.00150675 0)
(0.166956 0.00146817 0)
(0.165971 0.00143207 0)
(0.164891 0.0013956 0)
(0.163927 0.00136177 0)
(0.162851 0.00132725 0)
(0.16191 0.00129559 0)
(0.160838 0.00126289 0)
(0.159923 0.00123327 0)
(0.158855 0.00120225 0)
(0.157968 0.00117461 0)
(0.156902 0.00114511 0)
(0.156047 0.00111936 0)
(0.154981 0.00109127 0)
(0.15416 0.00106734 0)
(0.153093 0.00104053 0)
(0.152309 0.00101837 0)
(0.151237 0.000992716 0)
(0.150494 0.000972293 0)
(0.149414 0.000947677 0)
(0.148716 0.000928975 0)
(0.147624 0.000905295 0)
(0.146976 0.000888315 0)
(0.145866 0.000865483 0)
(0.145273 0.000850246 0)
(0.144139 0.000828194 0)
(0.143607 0.000814739 0)
(0.142443 0.000793438 0)
(0.141977 0.000781815 0)
(0.140774 0.00076131 0)
(0.140384 0.000751558 0)
(0.139133 0.000732038 0)
(0.138826 0.000724142 0)
(0.137514 0.000706092 0)
(0.137301 0.000699983 0)
(0.135916 0.000684577 0)
(0.135807 0.000680649 0)
(0.134335 0.000670923 0)
(0.198583 0.00604313 0)
(0.198882 0.0070099 0)
(0.199434 0.00793108 0)
(0.200287 0.00865142 0)
(0.201368 0.00904846 0)
(0.202515 0.00911927 0)
(0.203576 0.00894689 0)
(0.204464 0.00862118 0)
(0.20516 0.00820586 0)
(0.205673 0.00774458 0)
(0.206029 0.00727564 0)
(0.20625 0.00683348 0)
(0.206372 0.00644162 0)
(0.206422 0.00610761 0)
(0.206432 0.00582677 0)
(0.206416 0.00558877 0)
(0.206388 0.0053834 0)
(0.206346 0.00520231 0)
(0.206296 0.00503967 0)
(0.206228 0.00489111 0)
(0.206149 0.00475386 0)
(0.206047 0.00462563 0)
(0.205934 0.00450514 0)
(0.205795 0.00439111 0)
(0.205643 0.00428301 0)
(0.205463 0.00417995 0)
(0.205271 0.00408174 0)
(0.205049 0.00398761 0)
(0.204815 0.00389749 0)
(0.20455 0.00381065 0)
(0.204273 0.00372715 0)
(0.203963 0.00364623 0)
(0.203643 0.00356812 0)
(0.203288 0.00349204 0)
(0.202925 0.00341837 0)
(0.202525 0.00334629 0)
(0.20212 0.00327633 0)
(0.201675 0.00320763 0)
(0.201228 0.00314089 0)
(0.200739 0.00307513 0)
(0.200252 0.00301124 0)
(0.199721 0.00294812 0)
(0.199196 0.00288684 0)
(0.198624 0.00282615 0)
(0.198064 0.00276731 0)
(0.197453 0.00270889 0)
(0.196859 0.00265238 0)
(0.196212 0.00259612 0)
(0.195589 0.00254185 0)
(0.194907 0.00248766 0)
(0.194257 0.00243558 0)
(0.193543 0.00238339 0)
(0.19287 0.00233344 0)
(0.192127 0.00228318 0)
(0.191433 0.00223534 0)
(0.190663 0.00218696 0)
(0.189953 0.00214119 0)
(0.189157 0.00209463 0)
(0.188434 0.00205091 0)
(0.187615 0.0020061 0)
(0.186883 0.0019644 0)
(0.186043 0.00192127 0)
(0.185304 0.00188156 0)
(0.184444 0.00184005 0)
(0.183704 0.00180231 0)
(0.182825 0.00176234 0)
(0.182086 0.00172654 0)
(0.181189 0.00168802 0)
(0.180455 0.00165413 0)
(0.179542 0.00161698 0)
(0.178816 0.00158499 0)
(0.177885 0.00154912 0)
(0.177172 0.00151901 0)
(0.176224 0.00148432 0)
(0.175527 0.00145608 0)
(0.174561 0.00142247 0)
(0.173884 0.00139609 0)
(0.172899 0.00136346 0)
(0.172247 0.00133895 0)
(0.17124 0.00130721 0)
(0.170617 0.00128458 0)
(0.169587 0.00125365 0)
(0.168998 0.00123293 0)
(0.167941 0.00120271 0)
(0.167391 0.00118395 0)
(0.166304 0.00115438 0)
(0.165798 0.00113762 0)
(0.164677 0.00110869 0)
(0.164222 0.00109398 0)
(0.16306 0.0010657 0)
(0.162662 0.00105311 0)
(0.161454 0.00102559 0)
(0.16112 0.00101515 0)
(0.159858 0.000988671 0)
(0.159597 0.000980404 0)
(0.158272 0.000955501 0)
(0.158091 0.000949464 0)
(0.156695 0.000927277 0)
(0.156602 0.000923996 0)
(0.155124 0.000906533 0)
(0.199037 0.00580748 0)
(0.199324 0.00663022 0)
(0.199807 0.00740801 0)
(0.200519 0.00804009 0)
(0.201423 0.0084324 0)
(0.202405 0.00855757 0)
(0.203348 0.00846048 0)
(0.204164 0.0082127 0)
(0.204823 0.00787585 0)
(0.205324 0.00749302 0)
(0.20569 0.00709662 0)
(0.205939 0.00671342 0)
(0.206103 0.00636389 0)
(0.206199 0.00605785 0)
(0.206259 0.0057954 0)
(0.206292 0.00556995 0)
(0.206317 0.00537383 0)
(0.20633 0.00519978 0)
(0.206342 0.00504302 0)
(0.20634 0.00489963 0)
(0.206339 0.00476752 0)
(0.206322 0.00464445 0)
(0.206304 0.00452955 0)
(0.20627 0.00442126 0)
(0.206236 0.00431933 0)
(0.206182 0.00422249 0)
(0.206131 0.00413088 0)
(0.206058 0.00404332 0)
(0.205988 0.00396015 0)
(0.205894 0.00388018 0)
(0.205805 0.00380394 0)
(0.205689 0.00373015 0)
(0.205579 0.00365957 0)
(0.205439 0.00359081 0)
(0.205308 0.00352487 0)
(0.205143 0.00346023 0)
(0.204988 0.00339812 0)
(0.204796 0.00333688 0)
(0.204618 0.003278 0)
(0.204398 0.00321962 0)
(0.204195 0.00316352 0)
(0.203946 0.0031076 0)
(0.203718 0.00305394 0)
(0.203438 0.00300016 0)
(0.203185 0.00294868 0)
(0.202875 0.0028968 0)
(0.202597 0.00284732 0)
(0.202255 0.00279715 0)
(0.201952 0.00274953 0)
(0.201579 0.00270092 0)
(0.201253 0.00265504 0)
(0.200847 0.00260787 0)
(0.200498 0.00256365 0)
(0.200061 0.0025178 0)
(0.19969 0.00247519 0)
(0.199222 0.0024306 0)
(0.198831 0.00238955 0)
(0.198332 0.00234614 0)
(0.197923 0.00230663 0)
(0.197392 0.00226433 0)
(0.196967 0.00222636 0)
(0.196406 0.00218509 0)
(0.195967 0.00214865 0)
(0.195376 0.00210836 0)
(0.194925 0.00207344 0)
(0.194304 0.00203407 0)
(0.193844 0.00200068 0)
(0.193193 0.00196216 0)
(0.192728 0.00193031 0)
(0.192047 0.00189259 0)
(0.191579 0.00186231 0)
(0.190868 0.00182532 0)
(0.1904 0.00179663 0)
(0.189659 0.0017603 0)
(0.189195 0.00173323 0)
(0.188422 0.00169749 0)
(0.187966 0.00167208 0)
(0.187161 0.00163687 0)
(0.186717 0.00161316 0)
(0.185879 0.00157841 0)
(0.18545 0.00155645 0)
(0.184577 0.00152211 0)
(0.184167 0.00150197 0)
(0.183258 0.00146801 0)
(0.182873 0.00144973 0)
(0.181924 0.00141615 0)
(0.181569 0.00139981 0)
(0.180578 0.00136663 0)
(0.180257 0.00135229 0)
(0.17922 0.00131962 0)
(0.178939 0.00130732 0)
(0.177853 0.00127535 0)
(0.177617 0.00126517 0)
(0.176476 0.00123422 0)
(0.176292 0.00122626 0)
(0.175092 0.00119689 0)
(0.174964 0.00119134 0)
(0.173699 0.00116465 0)
(0.173634 0.00116206 0)
(0.172298 0.00113929 0)
(0.199424 0.00557908 0)
(0.199696 0.00628481 0)
(0.200122 0.00694777 0)
(0.200725 0.00749933 0)
(0.201486 0.0078712 0)
(0.202326 0.00803095 0)
(0.203157 0.00799717 0)
(0.203898 0.00781997 0)
(0.204517 0.00755305 0)
(0.205 0.00723798 0)
(0.205366 0.00690486 0)
(0.205627 0.00657572 0)
(0.205813 0.00626781 0)
(0.205935 0.00599087 0)
(0.206022 0.005748 0)
(0.206078 0.00553568 0)
(0.206125 0.00534889 0)
(0.206156 0.00518157 0)
(0.206188 0.00503008 0)
(0.206206 0.00489077 0)
(0.206227 0.00476231 0)
(0.206233 0.00464242 0)
(0.206244 0.00453077 0)
(0.206238 0.00442547 0)
(0.20624 0.00432673 0)
(0.206224 0.00423282 0)
(0.206217 0.00414436 0)
(0.206191 0.00405966 0)
(0.206176 0.00397966 0)
(0.20614 0.00390257 0)
(0.206118 0.00382961 0)
(0.206071 0.00375883 0)
(0.206041 0.00369171 0)
(0.205983 0.00362614 0)
(0.205946 0.00356391 0)
(0.205876 0.00350266 0)
(0.20583 0.00344453 0)
(0.205746 0.00338689 0)
(0.205691 0.00333226 0)
(0.205593 0.00327768 0)
(0.205528 0.00322606 0)
(0.205415 0.00317411 0)
(0.205338 0.00312515 0)
(0.205208 0.00307546 0)
(0.20512 0.00302888 0)
(0.204972 0.00298117 0)
(0.204871 0.00293672 0)
(0.204703 0.00289075 0)
(0.20459 0.00284825 0)
(0.204401 0.00280383 0)
(0.204276 0.00276311 0)
(0.204065 0.00272005 0)
(0.203926 0.002681 0)
(0.203691 0.00263915 0)
(0.203539 0.00260167 0)
(0.20328 0.00256088 0)
(0.203115 0.0025249 0)
(0.202831 0.00248507 0)
(0.202654 0.00245052 0)
(0.202343 0.00241154 0)
(0.202154 0.00237838 0)
(0.201816 0.00234017 0)
(0.201616 0.00230836 0)
(0.20125 0.00227081 0)
(0.201039 0.00224034 0)
(0.200644 0.00220336 0)
(0.200425 0.00217422 0)
(0.2 0.00213774 0)
(0.199773 0.00210993 0)
(0.199317 0.00207387 0)
(0.199085 0.0020474 0)
(0.198597 0.0020117 0)
(0.198361 0.00198659 0)
(0.197841 0.00195119 0)
(0.197604 0.00192747 0)
(0.19705 0.00189229 0)
(0.196813 0.00186999 0)
(0.196225 0.001835 0)
(0.195991 0.00181415 0)
(0.195367 0.0017793 0)
(0.195139 0.00175995 0)
(0.194478 0.00172524 0)
(0.194258 0.00170743 0)
(0.193559 0.00167285 0)
(0.193351 0.00165665 0)
(0.192611 0.00162224 0)
(0.192418 0.0016077 0)
(0.191637 0.00157356 0)
(0.191462 0.00156071 0)
(0.190637 0.001527 0)
(0.190484 0.0015159 0)
(0.189612 0.00148285 0)
(0.189484 0.00147362 0)
(0.188564 0.00144157 0)
(0.188464 0.00143438 0)
(0.187494 0.00140393 0)
(0.187425 0.00139902 0)
(0.186402 0.00137122 0)
(0.186368 0.00136913 0)
(0.185289 0.00134471 0)
(0.199749 0.00535732 0)
(0.200005 0.00596745 0)
(0.200382 0.00653894 0)
(0.200899 0.00702194 0)
(0.201546 0.00736743 0)
(0.202264 0.00754579 0)
(0.202992 0.00756125 0)
(0.20366 0.00744533 0)
(0.204236 0.00724087 0)
(0.204697 0.00698541 0)
(0.205059 0.00670777 0)
(0.205326 0.0064274 0)
(0.205528 0.00615921 0)
(0.205667 0.00591177 0)
(0.205774 0.00568979 0)
(0.205846 0.00549182 0)
(0.205909 0.00531539 0)
(0.205951 0.00515561 0)
(0.205994 0.00501009 0)
(0.206021 0.00487533 0)
(0.206052 0.00475079 0)
(0.206065 0.00463402 0)
(0.206087 0.00452532 0)
(0.206089 0.00442244 0)
(0.206103 0.00432615 0)
(0.206096 0.0042342 0)
(0.206103 0.00414781 0)
(0.206089 0.0040647 0)
(0.206092 0.00398648 0)
(0.206071 0.00391072 0)
(0.20607 0.00383938 0)
(0.206044 0.00376979 0)
(0.20604 0.00370426 0)
(0.206007 0.00363984 0)
(0.206001 0.00357924 0)
(0.205962 0.00351917 0)
(0.205954 0.00346277 0)
(0.205909 0.00340639 0)
(0.205898 0.00335364 0)
(0.205846 0.00330042 0)
(0.205833 0.00325087 0)
(0.205773 0.00320041 0)
(0.205758 0.0031537 0)
(0.20569 0.00310565 0)
(0.205671 0.00306151 0)
(0.205593 0.00301558 0)
(0.205572 0.00297378 0)
(0.205484 0.00292972 0)
(0.205459 0.00289007 0)
(0.205359 0.00284768 0)
(0.20533 0.00281 0)
(0.205217 0.00276908 0)
(0.205184 0.00273325 0)
(0.205058 0.00269362 0)
(0.20502 0.00265951 0)
(0.204878 0.00262102 0)
(0.204837 0.00258853 0)
(0.204678 0.00255104 0)
(0.204632 0.00252009 0)
(0.204455 0.00248347 0)
(0.204404 0.00245399 0)
(0.204209 0.00241814 0)
(0.204153 0.00239006 0)
(0.203938 0.00235485 0)
(0.203877 0.00232814 0)
(0.20364 0.00229345 0)
(0.203575 0.00226806 0)
(0.203316 0.00223381 0)
(0.203247 0.0022097 0)
(0.202963 0.0021758 0)
(0.202891 0.00215296 0)
(0.202583 0.00211934 0)
(0.202508 0.00209777 0)
(0.202173 0.00206434 0)
(0.202096 0.00204404 0)
(0.201734 0.00201075 0)
(0.201656 0.0019917 0)
(0.201265 0.00195852 0)
(0.201188 0.00194073 0)
(0.200767 0.00190763 0)
(0.20069 0.00189111 0)
(0.200238 0.00185808 0)
(0.200164 0.00184284 0)
(0.19968 0.00180992 0)
(0.19961 0.001796 0)
(0.199092 0.00176325 0)
(0.199027 0.00175067 0)
(0.198476 0.00171822 0)
(0.198416 0.00170699 0)
(0.19783 0.00167503 0)
(0.197778 0.00166521 0)
(0.197155 0.00163399 0)
(0.197113 0.00162572 0)
(0.196453 0.00159556 0)
(0.19642 0.00158906 0)
(0.195722 0.00156059 0)
(0.1957 0.00155613 0)
(0.194963 0.00153029 0)
(0.194953 0.00152839 0)
(0.194178 0.00150564 0)
(0.200019 0.00514304 0)
(0.200258 0.00567528 0)
(0.200593 0.00617316 0)
(0.201039 0.00659901 0)
(0.201593 0.00691715 0)
(0.202209 0.00710289 0)
(0.202846 0.00715399 0)
(0.203443 0.00708863 0)
(0.203974 0.00693882 0)
(0.20441 0.00673612 0)
(0.204765 0.00650752 0)
(0.205034 0.00627085 0)
(0.205245 0.00603972 0)
(0.205398 0.00582137 0)
(0.20552 0.00562112 0)
(0.205606 0.00543873 0)
(0.205681 0.00527384 0)
(0.205733 0.00512265 0)
(0.205785 0.00498405 0)
(0.205818 0.00485469 0)
(0.205856 0.00473478 0)
(0.205875 0.00462166 0)
(0.205903 0.00451628 0)
(0.20591 0.00441603 0)
(0.205929 0.00432226 0)
(0.205927 0.00423225 0)
(0.205939 0.00414781 0)
(0.20593 0.0040661 0)
(0.205938 0.00398939 0)
(0.205922 0.00391462 0)
(0.205928 0.00384447 0)
(0.205908 0.0037756 0)
(0.205911 0.00371107 0)
(0.205886 0.00364718 0)
(0.20589 0.00358746 0)
(0.20586 0.00352781 0)
(0.205863 0.00347224 0)
(0.20583 0.00341622 0)
(0.205833 0.00336429 0)
(0.205796 0.00331143 0)
(0.205799 0.00326273 0)
(0.205758 0.00321263 0)
(0.205762 0.00316685 0)
(0.205716 0.0031192 0)
(0.205721 0.00307607 0)
(0.20567 0.0030306 0)
(0.205676 0.00298992 0)
(0.205619 0.00294641 0)
(0.205626 0.00290799 0)
(0.205564 0.00286624 0)
(0.205571 0.00282993 0)
(0.205502 0.00278975 0)
(0.205509 0.00275542 0)
(0.205433 0.00271664 0)
(0.205441 0.00268416 0)
(0.205356 0.00264664 0)
(0.205365 0.0026159 0)
(0.205271 0.0025795 0)
(0.20528 0.00255042 0)
(0.205175 0.00251501 0)
(0.205185 0.00248751 0)
(0.205069 0.00245298 0)
(0.205078 0.00242698 0)
(0.204951 0.00239321 0)
(0.20496 0.00236866 0)
(0.204819 0.00233553 0)
(0.204828 0.00231235 0)
(0.204673 0.00227976 0)
(0.204682 0.00225789 0)
(0.204512 0.00222577 0)
(0.20452 0.00220517 0)
(0.204334 0.00217344 0)
(0.204342 0.00215409 0)
(0.204138 0.00212268 0)
(0.204146 0.00210453 0)
(0.203924 0.00207339 0)
(0.203931 0.00205642 0)
(0.20369 0.00202551 0)
(0.203697 0.00200968 0)
(0.203436 0.00197898 0)
(0.203443 0.00196426 0)
(0.203161 0.00193379 0)
(0.203168 0.00192017 0)
(0.202864 0.00188996 0)
(0.20287 0.00187744 0)
(0.202544 0.00184758 0)
(0.20255 0.00183615 0)
(0.2022 0.00180677 0)
(0.202207 0.00179645 0)
(0.201833 0.00176774 0)
(0.20184 0.00175858 0)
(0.201442 0.00173077 0)
(0.201448 0.00172293 0)
(0.201025 0.00169633 0)
(0.201031 0.00169005 0)
(0.200583 0.00166526 0)
(0.200588 0.00166086 0)
(0.200116 0.00163869 0)
(0.200119 0.00163665 0)
(0.199622 0.00161746 0)
(0.200241 0.00493731 0)
(0.200463 0.0054059 0)
(0.200761 0.0058438 0)
(0.201147 0.00622204 0)
(0.201624 0.00651414 0)
(0.202156 0.00670012 0)
(0.202712 0.00677548 0)
(0.203242 0.00674992 0)
(0.203727 0.00664647 0)
(0.204137 0.00649017 0)
(0.20448 0.00630521 0)
(0.204748 0.00610786 0)
(0.204965 0.00591096 0)
(0.205127 0.00572066 0)
(0.20526 0.00554246 0)
(0.205357 0.0053766 0)
(0.205442 0.00522431 0)
(0.205503 0.00508272 0)
(0.205563 0.00495194 0)
(0.205603 0.00482883 0)
(0.205646 0.00471427 0)
(0.205671 0.00460545 0)
(0.205703 0.00450388 0)
(0.205715 0.00440668 0)
(0.205737 0.0043157 0)
(0.205739 0.00422789 0)
(0.205754 0.00414554 0)
(0.205749 0.00406542 0)
(0.205759 0.00399026 0)
(0.205748 0.00391661 0)
(0.205755 0.00384762 0)
(0.205739 0.0037795 0)
(0.205745 0.00371585 0)
(0.205724 0.00365247 0)
(0.205729 0.00359342 0)
(0.205705 0.00353409 0)
(0.205709 0.00347906 0)
(0.205682 0.00342323 0)
(0.205687 0.00337175 0)
(0.205657 0.00331899 0)
(0.205663 0.00327068 0)
(0.20563 0.00322064 0)
(0.205637 0.0031752 0)
(0.205602 0.00312758 0)
(0.20561 0.0030848 0)
(0.205572 0.00303936 0)
(0.205582 0.00299903 0)
(0.205541 0.00295558 0)
(0.205553 0.00291753 0)
(0.205508 0.00287588 0)
(0.205523 0.00283997 0)
(0.205474 0.00279996 0)
(0.205491 0.00276608 0)
(0.205438 0.00272755 0)
(0.205457 0.00269556 0)
(0.2054 0.00265837 0)
(0.205421 0.00262817 0)
(0.20536 0.00259221 0)
(0.205383 0.00256371 0)
(0.205316 0.00252885 0)
(0.205341 0.00250199 0)
(0.205269 0.00246814 0)
(0.205295 0.00244282 0)
(0.205217 0.00240988 0)
(0.205246 0.00238604 0)
(0.20516 0.00235389 0)
(0.20519 0.00233145 0)
(0.205097 0.0023 0)
(0.205129 0.00227889 0)
(0.205028 0.00224808 0)
(0.205061 0.00222823 0)
(0.204951 0.00219799 0)
(0.204985 0.00217936 0)
(0.204865 0.00214964 0)
(0.2049 0.00213219 0)
(0.204771 0.00210295 0)
(0.204806 0.00208661 0)
(0.204666 0.00205782 0)
(0.204702 0.00204254 0)
(0.20455 0.00201419 0)
(0.204585 0.00199993 0)
(0.204422 0.00197202 0)
(0.204457 0.00195876 0)
(0.204281 0.00193135 0)
(0.204315 0.00191906 0)
(0.204126 0.00189222 0)
(0.204158 0.00188091 0)
(0.203957 0.00185478 0)
(0.203986 0.00184446 0)
(0.203771 0.0018192 0)
(0.203798 0.00180993 0)
(0.203568 0.00178575 0)
(0.203592 0.00177772 0)
(0.203348 0.00175491 0)
(0.203367 0.00174837 0)
(0.203109 0.00172746 0)
(0.203122 0.00172276 0)
(0.20285 0.00170446 0)
(0.202858 0.00170208 0)