/*--------------------------------*- C++ -*----------------------------------*\
| =========                 |                                                 |
| \\      /  F ield         | OpenFOAM: The Open Source CFD Toolbox           |
|  \\    /   O peration     | Version:  2.3.0                                 |
|   \\  /    A nd           | Web:      www.OpenFOAM.org                      |
|    \\/     M anipulation  |                                                 |
\*---------------------------------------------------------------------------*/
FoamFile
{
    version     2.0;
    format      ascii;
    class       volScalarField;
    location    "0.15";
    object      p;
}
// * * * * * * * * * * * * * * * * * * * * * * * * * * * * * * * * * * * * * //

dimensions      [0 2 -2 0 0 0 0];

internalField   nonuniform List<scalar> 
5940
(
0.00292621
0.00260436
0.00190464
0.00121966
0.000658658
0.000204068
-0.000163619
-0.000438956
-0.000612956
-0.000695367
-0.000712261
-0.000692244
-0.000657251
-0.000620739
-0.00058936
-0.000565174
-0.000547674
-0.000535348
-0.000526603
-0.000520132
-0.000514987
-0.000510545
-0.000506447
-0.000502515
-0.000498684
-0.000494945
-0.000491309
-0.000487792
-0.000484398
-0.00048112
-0.000477938
-0.000474827
-0.000471766
-0.000468735
-0.000465715
-0.000462685
-0.000459616
-0.00045648
-0.00045324
-0.00044986
-0.000446305
-0.000442542
-0.000438539
-0.00043426
-0.000429665
-0.00042471
-0.000419348
-0.000413533
-0.00040722
-0.000400361
-0.00039291
-0.000384826
-0.000376069
-0.0003666
-0.000356388
-0.000345433
-0.000333769
-0.000321445
-0.000308476
-0.000295115
-0.000281483
-0.000267675
-0.000253909
-0.000240318
-0.000227049
-0.000214237
-0.000201966
-0.0001903
-0.000179272
-0.00016889
-0.00015914
-0.000149992
-0.000141406
-0.000133341
-0.000125752
-0.000118595
-0.000111832
-0.000105429
-9.93568e-05
-9.35935e-05
-8.81216e-05
-8.29267e-05
-7.79967e-05
-7.332e-05
-6.88858e-05
-6.46839e-05
-6.07045e-05
-5.69392e-05
-5.33806e-05
-5.00225e-05
-4.68592e-05
-4.38849e-05
-4.10937e-05
-3.84786e-05
-3.60319e-05
-3.37446e-05
-3.16074e-05
-2.96103e-05
-2.77434e-05
-2.5997e-05
-2.43619e-05
-2.28295e-05
-2.13921e-05
-2.00428e-05
-1.87752e-05
-1.75837e-05
-1.64634e-05
-1.54098e-05
-1.44187e-05
-1.34865e-05
-1.26097e-05
-1.17852e-05
-1.10098e-05
-1.0281e-05
-9.59596e-06
-8.95226e-06
-8.3475e-06
-7.77949e-06
-7.24605e-06
-6.74522e-06
-6.27503e-06
-5.83373e-06
-5.4195e-06
-5.0308e-06
-4.66597e-06
-4.32365e-06
-4.0023e-06
-3.70074e-06
-3.41753e-06
-3.15166e-06
-2.9018e-06
-2.66706e-06
-2.4462e-06
-2.23847e-06
-2.04269e-06
-1.85824e-06
-1.68401e-06
-1.51947e-06
-1.36357e-06
-1.21589e-06
-1.07542e-06
-9.41829e-07
-8.14199e-07
-6.92198e-07
-5.75076e-07
-4.62451e-07
-3.53843e-07
-2.48677e-07
-1.47027e-07
-4.76341e-08
0.00240099
0.00221615
0.00173775
0.0011703
0.000656597
0.000231558
-0.000109019
-0.000364605
-0.00053308
-0.00062198
-0.000650849
-0.000643503
-0.000619738
-0.000592224
-0.000567594
-0.000548179
-0.000533913
-0.000523755
-0.000516502
-0.000511117
-0.000506816
-0.000503071
-0.000499572
-0.00049617
-0.000492814
-0.000489505
-0.000486259
-0.000483097
-0.00048003
-0.000477051
-0.000474143
-0.000471285
-0.000468458
-0.000465643
-0.000462827
-0.000459988
-0.000457101
-0.000454137
-0.000451061
-0.000447838
-0.000444432
-0.000440813
-0.000436947
-0.000432801
-0.000428336
-0.000423507
-0.000418266
-0.00041257
-0.000406372
-0.000399626
-0.000392282
-0.000384301
-0.000375642
-0.000366265
-0.000356141
-0.00034527
-0.000333681
-0.000321422
-0.000308599
-0.000295221
-0.000281642
-0.000267842
-0.000254085
-0.00024049
-0.00022721
-0.000214387
-0.000202105
-0.000190427
-0.000179388
-0.000168997
-0.000159239
-0.000150084
-0.000141493
-0.000133424
-0.00012583
-0.000118671
-0.000111905
-0.000105498
-9.94226e-05
-9.36558e-05
-8.81803e-05
-8.29818e-05
-7.80483e-05
-7.33683e-05
-6.89311e-05
-6.47261e-05
-6.07437e-05
-5.69755e-05
-5.3414e-05
-5.00531e-05
-4.6887e-05
-4.39102e-05
-4.11166e-05
-3.84995e-05
-3.6051e-05
-3.37623e-05
-3.16238e-05
-2.96257e-05
-2.77579e-05
-2.60106e-05
-2.43748e-05
-2.28417e-05
-2.14037e-05
-2.00538e-05
-1.87856e-05
-1.75936e-05
-1.64727e-05
-1.54186e-05
-1.4427e-05
-1.34943e-05
-1.2617e-05
-1.1792e-05
-1.10163e-05
-1.02871e-05
-9.60166e-06
-8.95761e-06
-8.35251e-06
-7.78419e-06
-7.25045e-06
-6.74935e-06
-6.27889e-06
-5.83734e-06
-5.42287e-06
-5.03396e-06
-4.66891e-06
-4.3264e-06
-4.00486e-06
-3.70312e-06
-3.41976e-06
-3.15373e-06
-2.90372e-06
-2.66885e-06
-2.44785e-06
-2.24e-06
-2.0441e-06
-1.85954e-06
-1.6852e-06
-1.52056e-06
-1.36457e-06
-1.2168e-06
-1.07625e-06
-9.42571e-07
-8.14869e-07
-6.92785e-07
-5.75607e-07
-4.62897e-07
-3.54252e-07
-2.48989e-07
-1.47342e-07
-4.7814e-08
0.00202517
0.00190474
0.00158393
0.00113516
0.000682643
0.000293165
-1.86319e-05
-0.000255215
-0.000420662
-0.000521291
-0.00056931
-0.000581375
-0.000573793
-0.000558651
-0.000542714
-0.000528974
-0.000518242
-0.000510283
-0.000504481
-0.000500163
-0.000496741
-0.000493777
-0.000490997
-0.000488263
-0.000485527
-0.000482787
-0.000480064
-0.000477377
-0.000474741
-0.000472152
-0.000469597
-0.000467056
-0.000464514
-0.000461959
-0.000459382
-0.000456764
-0.000454084
-0.000451315
-0.000448423
-0.000445372
-0.00044213
-0.000438666
-0.00043495
-0.000430949
-0.000426624
-0.000421931
-0.000416822
-0.000411253
-0.00040518
-0.000398556
-0.000391332
-0.000383466
-0.000374921
-0.000365654
-0.000355631
-0.00034485
-0.000333344
-0.000321156
-0.000308376
-0.00029514
-0.000281509
-0.000267722
-0.000254014
-0.000240446
-0.00022718
-0.00021437
-0.000202093
-0.000190421
-0.000179387
-0.000168998
-0.000159243
-0.00015009
-0.000141502
-0.000133435
-0.000125844
-0.000118686
-0.000111922
-0.000105516
-9.94408e-05
-9.36735e-05
-8.81971e-05
-8.29975e-05
-7.80628e-05
-7.33817e-05
-6.89432e-05
-6.4737e-05
-6.07533e-05
-5.69836e-05
-5.34205e-05
-5.00579e-05
-4.68902e-05
-4.3912e-05
-4.11173e-05
-3.84994e-05
-3.60503e-05
-3.37614e-05
-3.16229e-05
-2.96249e-05
-2.77574e-05
-2.60105e-05
-2.43749e-05
-2.28422e-05
-2.14044e-05
-2.00547e-05
-1.87866e-05
-1.75947e-05
-1.64739e-05
-1.54198e-05
-1.44282e-05
-1.34955e-05
-1.26182e-05
-1.17932e-05
-1.10174e-05
-1.02881e-05
-9.60269e-06
-8.9586e-06
-8.35347e-06
-7.78511e-06
-7.25134e-06
-6.7502e-06
-6.27971e-06
-5.83813e-06
-5.42363e-06
-5.03469e-06
-4.66961e-06
-4.32707e-06
-4.0055e-06
-3.70375e-06
-3.42035e-06
-3.15431e-06
-2.90427e-06
-2.66938e-06
-2.44835e-06
-2.24049e-06
-2.04457e-06
-1.86e-06
-1.68563e-06
-1.52098e-06
-1.36496e-06
-1.21718e-06
-1.07661e-06
-9.42915e-07
-8.15194e-07
-6.93085e-07
-5.75888e-07
-4.63136e-07
-3.54474e-07
-2.49142e-07
-1.47458e-07
-4.78338e-08
0.00177398
0.00167579
0.00144501
0.00109519
0.000709368
0.000359039
7.29826e-05
-0.000147286
-0.000307871
-0.000415322
-0.000478013
-0.000507272
-0.000515464
-0.000512965
-0.000506509
-0.000499642
-0.000493835
-0.000489435
-0.000486269
-0.000483971
-0.000482164
-0.000480547
-0.00047893
-0.000477218
-0.000475384
-0.000473441
-0.000471422
-0.000469362
-0.000467284
-0.000465194
-0.000463086
-0.000460945
-0.000458762
-0.000456531
-0.000454247
-0.0004519
-0.000449471
-0.000446938
-0.000444267
-0.000441425
-0.000438378
-0.0004351
-0.000431562
-0.000427732
-0.000423575
-0.000419045
-0.000414095
-0.00040868
-0.000402758
-0.000396284
-0.000389207
-0.000381487
-0.000373088
-0.000363966
-0.000354088
-0.000343453
-0.000332091
-0.00032005
-0.000307407
-0.000294293
-0.000280801
-0.00026719
-0.000253521
-0.000240035
-0.000226838
-0.000214105
-0.000201884
-0.000190256
-0.000179261
-0.000168901
-0.000159167
-0.00015003
-0.000141455
-0.000133398
-0.000125815
-0.000118664
-0.000111906
-0.000105504
-9.94321e-05
-9.36673e-05
-8.81928e-05
-8.29947e-05
-7.80612e-05
-7.33811e-05
-6.89435e-05
-6.47376e-05
-6.07539e-05
-5.69836e-05
-5.34195e-05
-5.00555e-05
-4.68864e-05
-4.39069e-05
-4.11111e-05
-3.84923e-05
-3.60428e-05
-3.37538e-05
-3.16155e-05
-2.9618e-05
-2.7751e-05
-2.60047e-05
-2.43698e-05
-2.28377e-05
-2.14004e-05
-2.00512e-05
-1.87835e-05
-1.7592e-05
-1.64715e-05
-1.54176e-05
-1.44263e-05
-1.34938e-05
-1.26167e-05
-1.17918e-05
-1.10162e-05
-1.0287e-05
-9.60169e-06
-8.95772e-06
-8.35269e-06
-7.78443e-06
-7.25074e-06
-6.7497e-06
-6.27928e-06
-5.83777e-06
-5.42334e-06
-5.03447e-06
-4.66944e-06
-4.32697e-06
-4.00544e-06
-3.70374e-06
-3.42038e-06
-3.15439e-06
-2.90438e-06
-2.66953e-06
-2.44854e-06
-2.24071e-06
-2.04481e-06
-1.86028e-06
-1.68593e-06
-1.52132e-06
-1.36532e-06
-1.21755e-06
-1.077e-06
-9.4332e-07
-8.15607e-07
-6.93496e-07
-5.76296e-07
-4.63516e-07
-3.54823e-07
-2.49423e-07
-1.47624e-07
-4.78983e-08
0.00158331
0.00149399
0.00131337
0.00103817
0.000716739
0.000408544
0.000147992
-5.71248e-05
-0.000211141
-0.000320509
-0.000391923
-0.000433409
-0.000454066
-0.000462331
-0.000464462
-0.000464238
-0.000463531
-0.000463051
-0.000462921
-0.000463013
-0.00046314
-0.000463147
-0.000462934
-0.000462456
-0.000461713
-0.000460739
-0.000459584
-0.000458296
-0.000456907
-0.000455433
-0.000453876
-0.000452231
-0.000450493
-0.00044866
-0.000446734
-0.000444712
-0.000442582
-0.000440323
-0.000437907
-0.000435303
-0.00043248
-0.000429411
-0.000426072
-0.000422434
-0.000418463
-0.000414117
-0.000409347
-0.00040411
-0.000398365
-0.000392068
-0.000385173
-0.000377639
-0.000369433
-0.000360512
-0.000350848
-0.000340437
-0.000329313
-0.000317524
-0.000305142
-0.000292278
-0.000279052
-0.000265673
-0.000252267
-0.000238992
-0.000226013
-0.00021342
-0.00020134
-0.000189825
-0.00017892
-0.000168629
-0.000158955
-0.000149862
-0.000141318
-0.000133286
-0.000125723
-0.000118587
-0.000111842
-0.000105451
-9.93884e-05
-9.36315e-05
-8.8164e-05
-8.29722e-05
-7.80446e-05
-7.33698e-05
-6.89369e-05
-6.4735e-05
-6.07542e-05
-5.69857e-05
-5.34224e-05
-5.00584e-05
-4.68884e-05
-4.39077e-05
-4.11105e-05
-3.84904e-05
-3.60398e-05
-3.37499e-05
-3.16111e-05
-2.96133e-05
-2.77462e-05
-2.6e-05
-2.43653e-05
-2.28335e-05
-2.13966e-05
-2.00476e-05
-1.87803e-05
-1.7589e-05
-1.64688e-05
-1.54151e-05
-1.4424e-05
-1.34917e-05
-1.26148e-05
-1.17902e-05
-1.10147e-05
-1.02857e-05
-9.60054e-06
-8.95672e-06
-8.35182e-06
-7.78369e-06
-7.25012e-06
-6.74919e-06
-6.27887e-06
-5.83747e-06
-5.42312e-06
-5.03434e-06
-4.6694e-06
-4.327e-06
-4.00555e-06
-3.70392e-06
-3.42062e-06
-3.15469e-06
-2.90474e-06
-2.66995e-06
-2.449e-06
-2.24123e-06
-2.04537e-06
-1.86089e-06
-1.68658e-06
-1.52201e-06
-1.36604e-06
-1.21832e-06
-1.07779e-06
-9.44134e-07
-8.16439e-07
-6.94331e-07
-5.77122e-07
-4.64312e-07
-3.55553e-07
-2.50065e-07
-1.48059e-07
-4.81759e-08
0.00142509
0.00134109
0.00119101
0.000970003
0.000705301
0.000439644
0.00020548
1.5502e-05
-0.000130948
-0.000239153
-0.000314982
-0.00036459
-0.000394668
-0.000411815
-0.000421458
-0.000427269
-0.000431319
-0.000434581
-0.000437402
-0.000439845
-0.000441884
-0.000443491
-0.00044466
-0.000445401
-0.000445747
-0.00044575
-0.000445472
-0.000444969
-0.000444282
-0.000443437
-0.000442446
-0.000441313
-0.000440038
-0.000438621
-0.000437067
-0.00043538
-0.000433554
-0.000431573
-0.000429414
-0.000427047
-0.000424446
-0.000421586
-0.000418442
-0.000414992
-0.000411204
-0.000407039
-0.00040245
-0.000397395
-0.000391836
-0.000385731
-0.000379038
-0.00037172
-0.000363744
-0.000355075
-0.000345684
-0.000335576
-0.000324781
-0.000313343
-0.000301328
-0.000288845
-0.000276028
-0.00026304
-0.000250004
-0.000237068
-0.000224394
-0.000212093
-0.000200264
-0.00018896
-0.000178213
-0.00016806
-0.000158486
-0.000149476
-0.000140997
-0.000133014
-0.00012549
-0.000118386
-0.000111669
-0.000105303
-9.92611e-05
-9.35232e-05
-8.80727e-05
-8.28966e-05
-7.79833e-05
-7.33219e-05
-6.89011e-05
-6.47101e-05
-6.07385e-05
-5.69776e-05
-5.342e-05
-5.00599e-05
-4.68923e-05
-4.39125e-05
-4.11153e-05
-3.84945e-05
-3.60429e-05
-3.37517e-05
-3.16117e-05
-2.96128e-05
-2.77449e-05
-2.5998e-05
-2.43628e-05
-2.28306e-05
-2.13935e-05
-2.00444e-05
-1.87771e-05
-1.75859e-05
-1.64658e-05
-1.54124e-05
-1.44214e-05
-1.34893e-05
-1.26126e-05
-1.17881e-05
-1.10129e-05
-1.02841e-05
-9.5991e-06
-8.95547e-06
-8.35074e-06
-7.78278e-06
-7.24937e-06
-6.74859e-06
-6.27841e-06
-5.83714e-06
-5.42292e-06
-5.03426e-06
-4.66943e-06
-4.32714e-06
-4.00578e-06
-3.70424e-06
-3.42103e-06
-3.15519e-06
-2.90532e-06
-2.67061e-06
-2.44974e-06
-2.24203e-06
-2.04625e-06
-1.86183e-06
-1.68759e-06
-1.52307e-06
-1.36717e-06
-1.21949e-06
-1.07902e-06
-9.45391e-07
-8.17725e-07
-6.9563e-07
-5.78409e-07
-4.65571e-07
-3.56708e-07
-2.51114e-07
-1.48813e-07
-4.86841e-08
0.00128904
0.00120988
0.00108128
0.000900151
0.000682238
0.000456245
0.000248852
7.4597e-05
-6.36659e-05
-0.000169162
-0.000246787
-0.00030157
-0.000338616
-0.000362983
-0.000379114
-0.000390318
-0.000398709
-0.000405443
-0.000411053
-0.000415753
-0.000419643
-0.000422809
-0.000425324
-0.000427253
-0.000428655
-0.000429604
-0.000430175
-0.000430432
-0.000430421
-0.000430175
-0.000429721
-0.000429071
-0.000428231
-0.000427205
-0.000426002
-0.000424627
-0.000423082
-0.000421351
-0.000419419
-0.000417263
-0.000414858
-0.00041218
-0.000409208
-0.00040592
-0.000402291
-0.000398283
-0.000393854
-0.000388966
-0.000383581
-0.000377661
-0.00037117
-0.000364075
-0.000356346
-0.000347952
-0.000338874
-0.000329116
-0.000318705
-0.000307684
-0.000296124
-0.000284125
-0.000271804
-0.000259295
-0.000246727
-0.000234249
-0.000221999
-0.000210077
-0.000198574
-0.000187547
-0.000177033
-0.000167069
-0.000157658
-0.000148777
-0.0001404
-0.000132498
-0.000125041
-0.000117994
-0.000111323
-0.000104998
-9.89944e-05
-9.32906e-05
-8.78711e-05
-8.27234e-05
-7.78362e-05
-7.31987e-05
-6.88001e-05
-6.46293e-05
-6.06761e-05
-5.69312e-05
-5.33873e-05
-5.00383e-05
-4.68794e-05
-4.39058e-05
-4.11128e-05
-3.84944e-05
-3.60437e-05
-3.37526e-05
-3.1612e-05
-2.96121e-05
-2.7743e-05
-2.59951e-05
-2.4359e-05
-2.2826e-05
-2.13884e-05
-2.00389e-05
-1.87714e-05
-1.75802e-05
-1.64602e-05
-1.54069e-05
-1.44162e-05
-1.34843e-05
-1.26079e-05
-1.17838e-05
-1.10089e-05
-1.02804e-05
-9.59574e-06
-8.95242e-06
-8.348e-06
-7.78034e-06
-7.24721e-06
-6.74669e-06
-6.27677e-06
-5.83575e-06
-5.42175e-06
-5.03331e-06
-4.66868e-06
-4.32658e-06
-4.00541e-06
-3.70404e-06
-3.421e-06
-3.1553e-06
-2.90558e-06
-2.67101e-06
-2.45027e-06
-2.2427e-06
-2.04704e-06
-1.86273e-06
-1.6886e-06
-1.52419e-06
-1.36839e-06
-1.2208e-06
-1.08041e-06
-9.46861e-07
-8.19251e-07
-6.97203e-07
-5.79978e-07
-4.67139e-07
-3.58154e-07
-2.52452e-07
-1.49789e-07
-4.9326e-08
0.00117067
0.00109665
0.000984909
0.000833855
0.000653249
0.000462036
0.000280471
0.000122369
-7.12539e-06
-0.000108976
-0.000186764
-0.000244618
-0.000286597
-0.000316599
-0.000338137
-0.000354035
-0.000366305
-0.000376205
-0.00038441
-0.000391252
-0.000396936
-0.000401629
-0.000405471
-0.000408568
-0.000411006
-0.000412879
-0.000414278
-0.000415275
-0.00041592
-0.000416254
-0.000416313
-0.000416123
-0.000415695
-0.000415038
-0.000414162
-0.00041308
-0.000411792
-0.00041029
-0.000408561
-0.00040659
-0.000404357
-0.000401838
-0.000399014
-0.000395866
-0.000392372
-0.000388498
-0.000384208
-0.000379467
-0.00037424
-0.000368495
-0.000362197
-0.00035532
-0.000347838
-0.000339727
-0.000330974
-0.000321583
-0.000311581
-0.000301015
-0.000289949
-0.000278468
-0.000266676
-0.000254703
-0.000242672
-0.000230708
-0.000218929
-0.000207434
-0.000196308
-0.000185613
-0.000175391
-0.000165673
-0.000156462
-0.000147744
-0.000139501
-0.000131709
-0.000124343
-0.000117374
-0.000110771
-0.000104507
-9.85584e-05
-9.29046e-05
-8.75308e-05
-8.24248e-05
-7.75759e-05
-7.29736e-05
-6.86074e-05
-6.44663e-05
-6.05405e-05
-5.68207e-05
-5.32991e-05
-4.99696e-05
-4.68271e-05
-4.38669e-05
-4.10841e-05
-3.84733e-05
-3.60278e-05
-3.37399e-05
-3.1601e-05
-2.96017e-05
-2.77326e-05
-2.59843e-05
-2.43476e-05
-2.28141e-05
-2.1376e-05
-2.00264e-05
-1.87588e-05
-1.75677e-05
-1.6448e-05
-1.53951e-05
-1.44048e-05
-1.34736e-05
-1.25978e-05
-1.17743e-05
-1.1e-05
-1.02721e-05
-9.58809e-06
-8.94537e-06
-8.34153e-06
-7.77442e-06
-7.24182e-06
-6.74181e-06
-6.27236e-06
-5.83179e-06
-5.41822e-06
-5.03018e-06
-4.66593e-06
-4.32419e-06
-4.00336e-06
-3.70231e-06
-3.41957e-06
-3.15416e-06
-2.90471e-06
-2.67039e-06
-2.4499e-06
-2.24255e-06
-2.04712e-06
-1.86301e-06
-1.6891e-06
-1.52486e-06
-1.36924e-06
-1.22182e-06
-1.08159e-06
-9.48175e-07
-8.20674e-07
-6.98733e-07
-5.81541e-07
-4.68747e-07
-3.59655e-07
-2.53865e-07
-1.50818e-07
-4.99702e-08
0.00106716
0.000998529
0.000900673
0.000772865
0.000621663
0.000459741
0.00030187
0.00015983
3.96713e-05
-5.77316e-05
-0.000134509
-0.000193859
-0.000239067
-0.000273209
-0.000299039
-0.000318871
-0.000334513
-0.000347237
-0.00035781
-0.000366656
-0.000374049
-0.00038022
-0.000385357
-0.000389598
-0.000393051
-0.000395827
-0.000398035
-0.000399754
-0.000401041
-0.000401942
-0.000402505
-0.000402764
-0.000402738
-0.000402437
-0.000401879
-0.000401079
-0.000400042
-0.00039876
-0.000397224
-0.000395429
-0.000393356
-0.000390985
-0.000388299
-0.000385283
-0.000381915
-0.000378165
-0.000374003
-0.0003694
-0.000364325
-0.000358746
-0.000352637
-0.000345976
-0.000338741
-0.000330912
-0.000322483
-0.000313463
-0.000303878
-0.00029377
-0.000283197
-0.000272236
-0.00026099
-0.000249573
-0.000238088
-0.000226646
-0.000215355
-0.000204313
-0.000193598
-0.000183268
-0.000173366
-0.000163917
-0.000154931
-0.000146404
-0.00013832
-0.000130662
-0.000123411
-0.000116539
-0.000110022
-0.000103835
-9.79546e-05
-9.23643e-05
-8.70489e-05
-8.19965e-05
-7.71966e-05
-7.26392e-05
-6.83142e-05
-6.42115e-05
-6.03209e-05
-5.66335e-05
-5.31416e-05
-4.9839e-05
-4.672e-05
-4.378e-05
-4.10139e-05
-3.84164e-05
-3.59811e-05
-3.37006e-05
-3.15669e-05
-2.95711e-05
-2.77041e-05
-2.59571e-05
-2.43211e-05
-2.27882e-05
-2.13506e-05
-2.00014e-05
-1.87344e-05
-1.7544e-05
-1.64251e-05
-1.53732e-05
-1.4384e-05
-1.34538e-05
-1.25791e-05
-1.17567e-05
-1.09835e-05
-1.02568e-05
-9.57382e-06
-8.93213e-06
-8.32928e-06
-7.76312e-06
-7.23141e-06
-6.73225e-06
-6.26362e-06
-5.8238e-06
-5.41096e-06
-5.02359e-06
-4.65999e-06
-4.31885e-06
-3.99859e-06
-3.69807e-06
-3.41584e-06
-3.1509e-06
-2.90191e-06
-2.66801e-06
-2.44793e-06
-2.24096e-06
-2.04589e-06
-1.86212e-06
-1.68853e-06
-1.5246e-06
-1.36927e-06
-1.22212e-06
-1.08214e-06
-9.48963e-07
-8.2165e-07
-6.999e-07
-5.8281e-07
-4.70126e-07
-3.6098e-07
-2.5514e-07
-1.51744e-07
-5.05197e-08
0.000976155
0.000912923
0.000826716
0.000717284
0.000589298
0.000451522
0.000314616
0.000188
7.75774e-05
-1.46336e-05
-8.94393e-05
-0.000149065
-0.000196119
-0.000233086
-0.000262138
-0.000285129
-0.000303612
-0.000318799
-0.000331498
-0.000342184
-0.000351174
-0.000358744
-0.000365123
-0.000370469
-0.000374905
-0.000378558
-0.000381551
-0.000383976
-0.000385892
-0.000387351
-0.000388409
-0.000389112
-0.000389484
-0.000389537
-0.000389293
-0.000388774
-0.000387987
-0.000386924
-0.000385584
-0.000383964
-0.000382053
-0.000379831
-0.000377283
-0.000374399
-0.000371159
-0.000367535
-0.000363503
-0.000359039
-0.000354117
-0.000348708
-0.000342791
-0.000336347
-0.000329359
-0.000321813
-0.000313709
-0.000305057
-0.000295881
-0.000286221
-0.000276132
-0.00026569
-0.000254983
-0.000244105
-0.000233154
-0.00022223
-0.000211434
-0.000200853
-0.000190556
-0.0001806
-0.000171027
-0.000161863
-0.000153121
-0.000144803
-0.000136898
-0.000129394
-0.000122273
-0.000115515
-0.000109097
-0.000102998
-9.7199e-05
-9.16831e-05
-8.64364e-05
-8.14471e-05
-7.67052e-05
-7.22009e-05
-6.79246e-05
-6.38666e-05
-6.00174e-05
-5.63685e-05
-5.29122e-05
-4.96419e-05
-4.65521e-05
-4.36378e-05
-4.08938e-05
-3.83147e-05
-3.58943e-05
-3.36255e-05
-3.15007e-05
-2.95116e-05
-2.76496e-05
-2.59062e-05
-2.42731e-05
-2.27423e-05
-2.13066e-05
-1.99592e-05
-1.86939e-05
-1.75053e-05
-1.63881e-05
-1.5338e-05
-1.43506e-05
-1.34223e-05
-1.25494e-05
-1.17288e-05
-1.09574e-05
-1.02324e-05
-9.55109e-06
-8.91098e-06
-8.30965e-06
-7.74492e-06
-7.21459e-06
-6.71672e-06
-6.24931e-06
-5.81065e-06
-5.39889e-06
-5.01255e-06
-4.64991e-06
-4.30968e-06
-3.99028e-06
-3.69056e-06
-3.4091e-06
-3.14487e-06
-2.89656e-06
-2.66329e-06
-2.44382e-06
-2.23741e-06
-2.04288e-06
-1.85962e-06
-1.6865e-06
-1.52303e-06
-1.36812e-06
-1.22137e-06
-1.08175e-06
-9.48933e-07
-8.21914e-07
-7.00455e-07
-5.83559e-07
-4.71067e-07
-3.61954e-07
-2.56121e-07
-1.52466e-07
-5.09325e-08
0.000895632
0.000837588
0.000761242
0.000666614
0.000557168
0.000439194
0.000320444
0.000208173
0.000107567
2.11539e-05
-5.0861e-05
-0.00010979
-0.000157604
-0.0001963
-0.000227616
-0.000253025
-0.000273823
-0.000291106
-0.000305669
-0.000318006
-0.000328458
-0.000337327
-0.000344872
-0.000351268
-0.000356645
-0.000361139
-0.000364889
-0.000367997
-0.000370526
-0.000372532
-0.000374078
-0.00037522
-0.000375986
-0.000376391
-0.000376461
-0.000376223
-0.000375688
-0.00037485
-0.000373708
-0.00037227
-0.000370526
-0.000368458
-0.000366054
-0.000363308
-0.000360203
-0.000356714
-0.00035282
-0.000348503
-0.000343741
-0.000338509
-0.000332789
-0.000326567
-0.000319831
-0.000312573
-0.000304792
-0.000296502
-0.000287728
-0.000278508
-0.000268895
-0.000258955
-0.000248763
-0.000238408
-0.000227978
-0.000217565
-0.000207256
-0.000197128
-0.000187247
-0.000177666
-0.000168428
-0.000159559
-0.000151074
-0.000142978
-0.000135267
-0.000127929
-0.000120952
-0.000114319
-0.000108013
-0.000102014
-9.63061e-05
-9.08738e-05
-8.57041e-05
-8.07859e-05
-7.61093e-05
-7.16649e-05
-6.74436e-05
-6.34361e-05
-5.96338e-05
-5.60282e-05
-5.2612e-05
-4.93786e-05
-4.63224e-05
-4.34382e-05
-4.07205e-05
-3.8164e-05
-3.57625e-05
-3.35092e-05
-3.1397e-05
-2.94178e-05
-2.75637e-05
-2.58267e-05
-2.41987e-05
-2.26722e-05
-2.12403e-05
-1.98963e-05
-1.86342e-05
-1.74485e-05
-1.63343e-05
-1.52871e-05
-1.43026e-05
-1.3377e-05
-1.25069e-05
-1.16889e-05
-1.09201e-05
-1.01975e-05
-9.51853e-06
-8.88066e-06
-8.28145e-06
-7.71874e-06
-7.19032e-06
-6.69425e-06
-6.22854e-06
-5.79149e-06
-5.38125e-06
-4.99632e-06
-4.63503e-06
-4.29605e-06
-3.97784e-06
-3.67924e-06
-3.39882e-06
-3.13559e-06
-2.8882e-06
-2.65581e-06
-2.43716e-06
-2.23153e-06
-2.03774e-06
-1.85517e-06
-1.68272e-06
-1.51986e-06
-1.36553e-06
-1.21934e-06
-1.08022e-06
-9.47884e-07
-8.21284e-07
-7.00227e-07
-5.83641e-07
-4.71432e-07
-3.62461e-07
-2.56717e-07
-1.52937e-07
-5.12044e-08
0.000823871
0.00077069
0.000702763
0.000620278
0.000525875
0.000424208
0.000320986
0.000221711
0.000130672
5.04491e-05
-1.8114e-05
-7.55721e-05
-0.00012329
-0.000162834
-0.000195597
-0.000222751
-0.000245351
-0.000264354
-0.000280503
-0.000294286
-0.000306043
-0.000316091
-0.000324706
-0.000332081
-0.000338343
-0.000343634
-0.000348104
-0.000351867
-0.000354988
-0.000357525
-0.000359548
-0.00036112
-0.000362276
-0.000363031
-0.000363412
-0.000363455
-0.000363175
-0.000362565
-0.000361627
-0.000360375
-0.000358805
-0.000356899
-0.000354645
-0.000352045
-0.000349085
-0.00034574
-0.000341993
-0.000337833
-0.000333241
-0.000328194
-0.000322678
-0.000316686
-0.00031021
-0.000303239
-0.000295781
-0.000287851
-0.000279475
-0.000270686
-0.000261533
-0.000252076
-0.000242384
-0.000232537
-0.000222614
-0.000212695
-0.000202858
-0.000193173
-0.000183704
-0.000174499
-0.0001656
-0.000157032
-0.000148813
-0.000140949
-0.00013344
-0.00012628
-0.000119459
-0.000112964
-0.000106779
-0.000100891
-9.52829e-05
-8.99423e-05
-8.48572e-05
-8.0017e-05
-7.54123e-05
-7.1034e-05
-6.68734e-05
-6.2922e-05
-5.91713e-05
-5.56136e-05
-5.22418e-05
-4.90493e-05
-4.60305e-05
-4.31799e-05
-4.04922e-05
-3.79619e-05
-3.55828e-05
-3.33486e-05
-3.12522e-05
-2.92862e-05
-2.7443e-05
-2.5715e-05
-2.40946e-05
-2.25748e-05
-2.11486e-05
-1.98099e-05
-1.85526e-05
-1.73716e-05
-1.62618e-05
-1.52187e-05
-1.42382e-05
-1.33165e-05
-1.24501e-05
-1.16357e-05
-1.08703e-05
-1.0151e-05
-9.47512e-06
-8.8402e-06
-8.2438e-06
-7.68374e-06
-7.15783e-06
-6.66413e-06
-6.20065e-06
-5.76569e-06
-5.35743e-06
-4.97437e-06
-4.61482e-06
-4.27749e-06
-3.96083e-06
-3.66368e-06
-3.38464e-06
-3.12268e-06
-2.87651e-06
-2.64526e-06
-2.42769e-06
-2.22307e-06
-2.03023e-06
-1.84857e-06
-1.67696e-06
-1.51491e-06
-1.36133e-06
-1.21585e-06
-1.07738e-06
-9.45675e-07
-8.19635e-07
-6.99102e-07
-5.82955e-07
-4.71139e-07
-3.62438e-07
-2.5689e-07
-1.53138e-07
-5.13429e-08
0.000759477
0.000710791
0.000650123
0.000577766
0.000495756
0.000407605
0.000317593
0.000229887
0.000147908
7.40156e-05
9.37568e-06
-4.6e-05
-9.2944e-05
-0.000132631
-0.000166163
-0.000194462
-0.000218376
-0.00023872
-0.000256167
-0.000271174
-0.000284067
-0.000295156
-0.000304731
-0.000312996
-0.000320078
-0.000326111
-0.000331257
-0.00033564
-0.000339326
-0.000342373
-0.000344856
-0.000346846
-0.000348381
-0.00034948
-0.00035017
-0.000350492
-0.000350466
-0.000350087
-0.000349357
-0.000348295
-0.000346904
-0.000345166
-0.000343072
-0.000340625
-0.000337818
-0.000334627
-0.000331037
-0.000327043
-0.000322629
-0.000317777
-0.000312475
-0.00030672
-0.000300505
-0.000293826
-0.000286692
-0.000279121
-0.000271135
-0.000262766
-0.000254059
-0.000245071
-0.000235865
-0.000226509
-0.000217075
-0.000207633
-0.000198256
-0.000189008
-0.000179945
-0.000171115
-0.000162554
-0.000154291
-0.000146343
-0.00013872
-0.000131424
-0.000124452
-0.000117797
-0.00011145
-0.000105398
-9.96288e-05
-9.41296e-05
-8.88888e-05
-8.38955e-05
-7.91401e-05
-7.46135e-05
-7.03073e-05
-6.62131e-05
-6.23228e-05
-5.86288e-05
-5.51235e-05
-5.18002e-05
-4.86525e-05
-4.56747e-05
-4.28614e-05
-4.02071e-05
-3.77063e-05
-3.5353e-05
-3.31411e-05
-3.10638e-05
-2.9114e-05
-2.72846e-05
-2.55685e-05
-2.39584e-05
-2.24475e-05
-2.10294e-05
-1.96979e-05
-1.84474e-05
-1.72726e-05
-1.61686e-05
-1.51312e-05
-1.4156e-05
-1.32394e-05
-1.23778e-05
-1.1568e-05
-1.0807e-05
-1.00919e-05
-9.41993e-06
-8.78877e-06
-8.1959e-06
-7.63919e-06
-7.11643e-06
-6.62571e-06
-6.16504e-06
-5.73272e-06
-5.32694e-06
-4.94621e-06
-4.58886e-06
-4.25359e-06
-3.93886e-06
-3.64353e-06
-3.3662e-06
-3.10586e-06
-2.86121e-06
-2.63138e-06
-2.41515e-06
-2.2118e-06
-2.02015e-06
-1.83961e-06
-1.66905e-06
-1.508e-06
-1.35536e-06
-1.21077e-06
-1.07313e-06
-9.42198e-07
-8.1687e-07
-6.96997e-07
-5.81432e-07
-4.70131e-07
-3.61842e-07
-2.56617e-07
-1.53057e-07
-5.13586e-08
0.000701333
0.000656781
0.000602429
0.000538628
0.000466954
0.000390097
0.000311323
0.000233804
0.000160206
9.25565e-05
3.21253e-05
-2.07008e-05
-6.63315e-05
-0.000105595
-0.000139333
-0.000168255
-0.000193032
-0.000214351
-0.000232804
-0.000248804
-0.000262649
-0.000274633
-0.000285047
-0.000294103
-0.000301925
-0.000308639
-0.000314409
-0.000319369
-0.000323587
-0.000327116
-0.000330038
-0.00033243
-0.000334333
-0.000335764
-0.000336756
-0.000337353
-0.000337579
-0.00033743
-0.000336911
-0.000336043
-0.000334836
-0.000333272
-0.000331342
-0.000329057
-0.00032641
-0.000323381
-0.000319957
-0.000316138
-0.000311912
-0.000307262
-0.000302181
-0.000296668
-0.00029072
-0.000284338
-0.000277528
-0.00027031
-0.000262707
-0.000254748
-0.000246478
-0.000237947
-0.00022921
-0.000220327
-0.000211365
-0.000202388
-0.000193459
-0.000184638
-0.000175976
-0.000167516
-0.000159295
-0.000151339
-0.000143668
-0.000136293
-0.000129218
-0.000122444
-0.000115965
-0.000109776
-0.000103866
-9.8225e-05
-9.28431e-05
-8.77099e-05
-8.28158e-05
-7.81519e-05
-7.37097e-05
-6.94814e-05
-6.54592e-05
-6.16355e-05
-5.8003e-05
-5.45548e-05
-5.12843e-05
-4.81853e-05
-4.52523e-05
-4.24798e-05
-3.98624e-05
-3.73945e-05
-3.50704e-05
-3.28841e-05
-3.0829e-05
-2.88987e-05
-2.70862e-05
-2.53847e-05
-2.37876e-05
-2.22882e-05
-2.08805e-05
-1.95584e-05
-1.83165e-05
-1.71498e-05
-1.60534e-05
-1.5023e-05
-1.40546e-05
-1.31443e-05
-1.22888e-05
-1.14847e-05
-1.07291e-05
-1.00191e-05
-9.35208e-06
-8.7255e-06
-8.13698e-06
-7.58436e-06
-7.06546e-06
-6.57837e-06
-6.12111e-06
-5.69201e-06
-5.28925e-06
-4.91136e-06
-4.55669e-06
-4.22392e-06
-3.91156e-06
-3.61845e-06
-3.3432e-06
-3.08481e-06
-2.842e-06
-2.61391e-06
-2.39931e-06
-2.19749e-06
-2.00728e-06
-1.8281e-06
-1.65883e-06
-1.49899e-06
-1.34749e-06
-1.20397e-06
-1.06734e-06
-9.37352e-07
-8.129e-07
-6.93838e-07
-5.79008e-07
-4.68362e-07
-3.60637e-07
-2.55879e-07
-1.52686e-07
-5.12612e-08
0.000648539
0.000607783
0.000558964
0.000502463
0.000439503
0.000372162
0.000302971
0.000234361
0.000168391
0.000106736
5.06352e-05
6.84683e-07
-4.3213e-05
-8.15951e-05
-0.000115072
-0.000144169
-0.000169407
-0.000191355
-0.000210528
-0.000227289
-0.000241897
-0.000254622
-0.000265747
-0.000275487
-0.000283962
-0.000291287
-0.000297621
-0.000303107
-0.000307818
-0.0003118
-0.000315132
-0.000317903
-0.000320159
-0.000321912
-0.000323194
-0.000324059
-0.000324534
-0.000324614
-0.000324304
-0.000323633
-0.000322611
-0.000321225
-0.000319466
-0.000317347
-0.000314868
-0.000312008
-0.000308758
-0.000305122
-0.000301091
-0.000296651
-0.000291796
-0.000286531
-0.000280856
-0.000274769
-0.000268282
-0.000261413
-0.000254188
-0.000246633
-0.000238788
-0.000230697
-0.000222413
-0.00021399
-0.000205487
-0.000196961
-0.00018847
-0.000180066
-0.000171798
-0.000163705
-0.000155823
-0.000148178
-0.000140788
-0.000133667
-0.000126822
-0.000120253
-0.00011396
-0.000107937
-0.000102178
-9.66748e-05
-9.14187e-05
-8.64009e-05
-8.16132e-05
-7.70476e-05
-7.26963e-05
-6.8552e-05
-6.46076e-05
-6.08558e-05
-5.729e-05
-5.39035e-05
-5.06902e-05
-4.76442e-05
-4.47599e-05
-4.2032e-05
-3.9455e-05
-3.70236e-05
-3.47321e-05
-3.25748e-05
-3.05454e-05
-2.86376e-05
-2.68451e-05
-2.51613e-05
-2.35799e-05
-2.20947e-05
-2.06997e-05
-1.93893e-05
-1.81582e-05
-1.70014e-05
-1.59144e-05
-1.48927e-05
-1.39325e-05
-1.303e-05
-1.21818e-05
-1.13847e-05
-1.06356e-05
-9.93183e-06
-9.27061e-06
-8.64954e-06
-8.06622e-06
-7.51849e-06
-7.0042e-06
-6.52144e-06
-6.06827e-06
-5.643e-06
-5.24385e-06
-4.86935e-06
-4.51786e-06
-4.18808e-06
-3.87853e-06
-3.58805e-06
-3.31529e-06
-3.05923e-06
-2.81861e-06
-2.59257e-06
-2.37991e-06
-2.17991e-06
-1.99143e-06
-1.81387e-06
-1.64612e-06
-1.48772e-06
-1.33757e-06
-1.19533e-06
-1.0599e-06
-9.31035e-07
-8.07637e-07
-6.8955e-07
-5.75619e-07
-4.65785e-07
-3.58789e-07
-2.54661e-07
-1.52017e-07
-5.10546e-08
0.000600359
0.000563085
0.00051914
0.000468922
0.000413376
0.00035411
0.000293115
0.00023228
0.000173186
0.00011718
6.5388e-05
1.85096e-05
-2.33388e-05
-6.04697e-05
-9.33023e-05
-0.000122201
-0.000147548
-0.000169807
-0.000189428
-0.000206723
-0.000221906
-0.000235214
-0.000246918
-0.000257229
-0.000266264
-0.000274122
-0.000280954