/*--------------------------------*- C++ -*----------------------------------*\
| =========                 |                                                 |
| \\      /  F ield         | OpenFOAM: The Open Source CFD Toolbox           |
|  \\    /   O peration     | Version:  2.3.0                                 |
|   \\  /    A nd           | Web:      www.OpenFOAM.org                      |
|    \\/     M anipulation  |                                                 |
\*---------------------------------------------------------------------------*/
FoamFile
{
    version     2.0;
    format      ascii;
    class       volVectorField;
    location    "0.15";
    object      U_0;
}
// * * * * * * * * * * * * * * * * * * * * * * * * * * * * * * * * * * * * * //

dimensions      [0 1 -1 0 0 0 0];

internalField   nonuniform List<vector> 
5940
(
(0.172435 0.00511288 0)
(0.151218 0.006853 0)
(0.132853 0.00711536 0)
(0.115442 0.00644395 0)
(0.0987839 0.00546185 0)
(0.0836535 0.00439027 0)
(0.0709751 0.00327125 0)
(0.0610225 0.00215863 0)
(0.0535312 0.0012124 0)
(0.0480173 0.000553269 0)
(0.0440049 0.000174965 0)
(0.0410844 -1.43328e-06 0)
(0.0389163 -5.63105e-05 0)
(0.0372414 -4.85634e-05 0)
(0.0358739 -1.49162e-05 0)
(0.034693 2.27961e-05 0)
(0.0336286 5.35809e-05 0)
(0.0326446 7.40953e-05 0)
(0.0317248 8.51713e-05 0)
(0.0308628 8.9159e-05 0)
(0.030056 8.85037e-05 0)
(0.0293029 8.51848e-05 0)
(0.0286011 8.059e-05 0)
(0.0279477 7.55806e-05 0)
(0.0273392 7.06314e-05 0)
(0.026772 6.59679e-05 0)
(0.0262424 6.16722e-05 0)
(0.0257471 5.77476e-05 0)
(0.0252831 5.41581e-05 0)
(0.0248476 5.08556e-05 0)
(0.0244385 4.77993e-05 0)
(0.0240538 4.49603e-05 0)
(0.0236917 4.23165e-05 0)
(0.0233507 3.98446e-05 0)
(0.0230294 3.75198e-05 0)
(0.0227268 3.53222e-05 0)
(0.0224419 3.32353e-05 0)
(0.0221738 3.1244e-05 0)
(0.0219217 2.93359e-05 0)
(0.0216851 2.75057e-05 0)
(0.0214633 2.57508e-05 0)
(0.0212558 2.40637e-05 0)
(0.0210621 2.24346e-05 0)
(0.0208817 2.08531e-05 0)
(0.0207145 1.93064e-05 0)
(0.0205599 1.77826e-05 0)
(0.0204178 1.62723e-05 0)
(0.020288 1.47654e-05 0)
(0.0201703 1.32451e-05 0)
(0.0200646 1.1695e-05 0)
(0.0199707 1.01146e-05 0)
(0.0198887 8.52085e-06 0)
(0.0198184 6.9377e-06 0)
(0.01976 5.40075e-06 0)
(0.0197134 3.93823e-06 0)
(0.0196784 2.57084e-06 0)
(0.0196549 1.32588e-06 0)
(0.0196423 2.12142e-07 0)
(0.0196401 -1.37205e-06 0)
(0.0196469 -2.5797e-06 0)
(0.0196615 -3.71888e-06 0)
(0.0196826 -4.57008e-06 0)
(0.0197088 -5.24389e-06 0)
(0.0197386 -5.68329e-06 0)
(0.0197706 -5.87162e-06 0)
(0.0198037 -5.88202e-06 0)
(0.0198369 -5.74505e-06 0)
(0.0198694 -5.50026e-06 0)
(0.0199007 -5.18428e-06 0)
(0.0199303 -4.8276e-06 0)
(0.0199582 -4.46866e-06 0)
(0.0199842 -4.12263e-06 0)
(0.0200085 -3.79923e-06 0)
(0.0200312 -3.50502e-06 0)
(0.0200523 -3.24382e-06 0)
(0.0200721 -3.01496e-06 0)
(0.0200908 -2.81493e-06 0)
(0.0201083 -2.63909e-06 0)
(0.0201249 -2.48208e-06 0)
(0.0201407 -2.33916e-06 0)
(0.0201556 -2.20685e-06 0)
(0.0201697 -2.08301e-06 0)
(0.0201831 -1.96655e-06 0)
(0.0201958 -1.85695e-06 0)
(0.0202078 -1.75376e-06 0)
(0.0202191 -1.65631e-06 0)
(0.0202299 -1.56365e-06 0)
(0.02024 -1.47471e-06 0)
(0.0202496 -1.38842e-06 0)
(0.0202586 -1.30406e-06 0)
(0.0202671 -1.22129e-06 0)
(0.020275 -1.14028e-06 0)
(0.0202824 -1.06148e-06 0)
(0.0202894 -9.85632e-07 0)
(0.0202958 -9.13455e-07 0)
(0.0203018 -8.45616e-07 0)
(0.0203074 -7.82543e-07 0)
(0.0203126 -7.24468e-07 0)
(0.0203175 -6.71355e-07 0)
(0.020322 -6.23017e-07 0)
(0.0203262 -5.79091e-07 0)
(0.0203302 -5.3917e-07 0)
(0.0203339 -5.02797e-07 0)
(0.0203374 -4.69531e-07 0)
(0.0203406 -4.38988e-07 0)
(0.0203437 -4.1078e-07 0)
(0.0203466 -3.84668e-07 0)
(0.0203493 -3.60322e-07 0)
(0.0203519 -3.37649e-07 0)
(0.0203543 -3.16356e-07 0)
(0.0203566 -2.96461e-07 0)
(0.0203588 -2.77687e-07 0)
(0.0203608 -2.60133e-07 0)
(0.0203627 -2.43508e-07 0)
(0.0203645 -2.27989e-07 0)
(0.0203661 -2.13235e-07 0)
(0.0203677 -1.99517e-07 0)
(0.0203692 -1.86411e-07 0)
(0.0203706 -1.74297e-07 0)
(0.0203719 -1.62651e-07 0)
(0.0203731 -1.51965e-07 0)
(0.0203743 -1.41614e-07 0)
(0.0203754 -1.32201e-07 0)
(0.0203764 -1.2299e-07 0)
(0.0203774 -1.14721e-07 0)
(0.0203782 -1.06506e-07 0)
(0.0203791 -9.92629e-08 0)
(0.0203798 -9.19219e-08 0)
(0.0203806 -8.55898e-08 0)
(0.0203812 -7.90154e-08 0)
(0.0203819 -7.34932e-08 0)
(0.0203825 -6.7582e-08 0)
(0.020383 -6.27865e-08 0)
(0.0203835 -5.74432e-08 0)
(0.020384 -5.32967e-08 0)
(0.0203844 -4.84482e-08 0)
(0.0203848 -4.48707e-08 0)
(0.0203852 -4.04612e-08 0)
(0.0203855 -3.73831e-08 0)
(0.0203858 -3.33671e-08 0)
(0.0203861 -3.07268e-08 0)
(0.0203863 -2.70917e-08 0)
(0.0203866 -2.48184e-08 0)
(0.0203868 -2.16058e-08 0)
(0.020387 -1.96244e-08 0)
(0.0203871 -1.69506e-08 0)
(0.0203873 -1.51637e-08 0)
(0.0203874 -1.32568e-08 0)
(0.0203875 -1.14575e-08 0)
(0.0203876 -1.05953e-08 0)
(0.189703 0.00903873 0)
(0.187647 0.0124008 0)
(0.185048 0.013742 0)
(0.181338 0.0136212 0)
(0.176105 0.0128403 0)
(0.169511 0.0117352 0)
(0.16214 0.0103672 0)
(0.154479 0.00877258 0)
(0.146876 0.00710431 0)
(0.139552 0.00555928 0)
(0.132661 0.00426699 0)
(0.12631 0.003263 0)
(0.120548 0.00252268 0)
(0.11538 0.00200077 0)
(0.110766 0.00164429 0)
(0.106644 0.00140226 0)
(0.102946 0.00123337 0)
(0.0996091 0.0011087 0)
(0.0965813 0.00101011 0)
(0.0938183 0.000927017 0)
(0.0912843 0.000853798 0)
(0.0889503 0.000787762 0)
(0.0867923 0.000727745 0)
(0.0847904 0.000673191 0)
(0.082928 0.000623706 0)
(0.0811908 0.000578888 0)
(0.0795669 0.000538297 0)
(0.0780459 0.000501458 0)
(0.0766188 0.000467886 0)
(0.075278 0.000437131 0)
(0.0740169 0.000408812 0)
(0.0728297 0.000382622 0)
(0.0717115 0.000358309 0)
(0.0706577 0.000335643 0)
(0.0696646 0.000314403 0)
(0.0687287 0.000294403 0)
(0.0678473 0.000275492 0)
(0.0670176 0.000257539 0)
(0.0662374 0.000240432 0)
(0.0655048 0.00022409 0)
(0.064818 0.000208457 0)
(0.0641753 0.000193466 0)
(0.0635754 0.000179044 0)
(0.0630169 0.000165129 0)
(0.062499 0.000151658 0)
(0.0620205 0.000138573 0)
(0.0615806 0.00012584 0)
(0.0611786 0.000113425 0)
(0.0608138 0.000101271 0)
(0.0604856 8.93317e-05 0)
(0.0601933 7.75986e-05 0)
(0.0599365 6.60791e-05 0)
(0.0597145 5.47859e-05 0)
(0.0595266 4.37665e-05 0)
(0.059372 3.31672e-05 0)
(0.0592494 2.31865e-05 0)
(0.0591573 1.39846e-05 0)
(0.0590935 5.64365e-06 0)
(0.0590558 -2.4724e-06 0)
(0.0590413 -1.02478e-05 0)
(0.0590466 -1.66186e-05 0)
(0.0590683 -2.10421e-05 0)
(0.059103 -2.42247e-05 0)
(0.0591475 -2.62495e-05 0)
(0.0591987 -2.71461e-05 0)
(0.0592539 -2.72512e-05 0)
(0.059311 -2.67037e-05 0)
(0.0593683 -2.56766e-05 0)
(0.0594245 -2.43407e-05 0)
(0.0594788 -2.28357e-05 0)
(0.0595307 -2.13098e-05 0)
(0.05958 -1.98246e-05 0)
(0.0596268 -1.84254e-05 0)
(0.0596711 -1.71415e-05 0)
(0.059713 -1.59857e-05 0)
(0.0597528 -1.49531e-05 0)
(0.0597907 -1.40298e-05 0)
(0.0598268 -1.3198e-05 0)
(0.0598612 -1.24375e-05 0)
(0.0598941 -1.17309e-05 0)
(0.0599254 -1.10653e-05 0)
(0.0599552 -1.04335e-05 0)
(0.0599836 -9.83175e-06 0)
(0.0600105 -9.25878e-06 0)
(0.060036 -8.71374e-06 0)
(0.06006 -8.19523e-06 0)
(0.0600828 -7.70074e-06 0)
(0.0601042 -7.22749e-06 0)
(0.0601243 -6.77262e-06 0)
(0.0601431 -6.33427e-06 0)
(0.0601608 -5.91172e-06 0)
(0.0601773 -5.5057e-06 0)
(0.0601926 -5.11771e-06 0)
(0.0602069 -4.74994e-06 0)
(0.0602202 -4.40432e-06 0)
(0.0602326 -4.08245e-06 0)
(0.0602441 -3.78499e-06 0)
(0.0602548 -3.51192e-06 0)
(0.0602648 -3.26229e-06 0)
(0.0602742 -3.03469e-06 0)
(0.0602829 -2.82718e-06 0)
(0.0602911 -2.63774e-06 0)
(0.0602988 -2.46427e-06 0)
(0.060306 -2.30485e-06 0)
(0.0603128 -2.15776e-06 0)
(0.0603193 -2.0214e-06 0)
(0.0603253 -1.89466e-06 0)
(0.060331 -1.77626e-06 0)
(0.0603363 -1.66563e-06 0)
(0.0603414 -1.5617e-06 0)
(0.0603462 -1.46431e-06 0)
(0.0603506 -1.3725e-06 0)
(0.0603549 -1.28639e-06 0)
(0.0603588 -1.20501e-06 0)
(0.0603626 -1.12875e-06 0)
(0.0603661 -1.05651e-06 0)
(0.0603694 -9.88979e-07 0)
(0.0603726 -9.24812e-07 0)
(0.0603755 -8.65048e-07 0)
(0.0603783 -8.0805e-07 0)
(0.0603809 -7.552e-07 0)
(0.0603833 -7.04562e-07 0)
(0.0603856 -6.57878e-07 0)
(0.0603877 -6.12858e-07 0)
(0.0603897 -5.71691e-07 0)
(0.0603916 -5.31609e-07 0)
(0.0603934 -4.95374e-07 0)
(0.060395 -4.59633e-07 0)
(0.0603965 -4.27779e-07 0)
(0.060398 -3.95852e-07 0)
(0.0603993 -3.67892e-07 0)
(0.0604005 -3.39278e-07 0)
(0.0604017 -3.14801e-07 0)
(0.0604028 -2.89038e-07 0)
(0.0604038 -2.67668e-07 0)
(0.0604047 -2.44377e-07 0)
(0.0604056 -2.25755e-07 0)
(0.0604063 -2.04614e-07 0)
(0.0604071 -1.88441e-07 0)
(0.0604077 -1.69166e-07 0)
(0.0604083 -1.55198e-07 0)
(0.0604089 -1.37601e-07 0)
(0.0604094 -1.25621e-07 0)
(0.0604098 -1.09659e-07 0)
(0.0604102 -9.95481e-08 0)
(0.0604106 -8.53227e-08 0)
(0.0604109 -7.72094e-08 0)
(0.0604112 -6.49416e-08 0)
(0.0604114 -5.94093e-08 0)
(0.0604117 -4.90656e-08 0)
(0.190806 0.00899186 0)
(0.19127 0.0117553 0)
(0.192373 0.0135388 0)
(0.193584 0.0141388 0)
(0.19419 0.0139832 0)
(0.193824 0.0134095 0)
(0.192486 0.0125298 0)
(0.190321 0.0114016 0)
(0.187502 0.0101324 0)
(0.184195 0.00886527 0)
(0.180552 0.00771273 0)
(0.17672 0.0067262 0)
(0.17282 0.00590683 0)
(0.168947 0.0052354 0)
(0.165156 0.00468454 0)
(0.161475 0.00422656 0)
(0.157915 0.00383818 0)
(0.154483 0.00350226 0)
(0.151181 0.00320709 0)
(0.14801 0.00294468 0)
(0.144971 0.00270964 0)
(0.142062 0.00249828 0)
(0.139283 0.00230788 0)
(0.136629 0.00213616 0)
(0.134098 0.00198103 0)
(0.131686 0.0018406 0)
(0.129387 0.00171317 0)
(0.127198 0.00159723 0)
(0.125113 0.00149132 0)
(0.12313 0.00139415 0)
(0.121243 0.00130458 0)
(0.119448 0.00122169 0)
(0.117741 0.00114468 0)
(0.116119 0.00107285 0)
(0.114578 0.00100557 0)
(0.113114 0.00094227 0)
(0.111725 0.000882473 0)
(0.110408 0.000825761 0)
(0.109161 0.000771785 0)
(0.107981 0.000720267 0)
(0.106868 0.000670986 0)
(0.105818 0.000623732 0)
(0.104831 0.000578294 0)
(0.103906 0.00053448 0)
(0.10304 0.000492118 0)
(0.102233 0.000451055 0)
(0.101483 0.000411197 0)
(0.100791 0.000372482 0)
(0.100155 0.0003348 0)
(0.0995735 0.000298061 0)
(0.0990464 0.000262291 0)
(0.0985726 0.000227504 0)
(0.098151 0.000193666 0)
(0.0977804 0.000160801 0)
(0.0974592 0.000129156 0)
(0.0971857 9.91161e-05 0)
(0.0969577 7.10861e-05 0)
(0.0967724 4.5499e-05 0)
(0.0966263 2.27832e-05 0)
(0.0965164 2.30302e-06 0)
(0.0964392 -1.48335e-05 0)
(0.0963899 -2.93411e-05 0)
(0.0963637 -4.01977e-05 0)
(0.0963569 -4.76971e-05 0)
(0.0963654 -5.20819e-05 0)
(0.0963856 -5.4231e-05 0)
(0.0964144 -5.4631e-05 0)
(0.0964491 -5.37016e-05 0)
(0.0964876 -5.18191e-05 0)
(0.0965283 -4.93489e-05 0)
(0.0965699 -4.66951e-05 0)
(0.0966118 -4.40078e-05 0)
(0.0966535 -4.13959e-05 0)
(0.0966946 -3.89448e-05 0)
(0.0967351 -3.67001e-05 0)
(0.0967749 -3.46615e-05 0)
(0.0968139 -3.28046e-05 0)
(0.0968521 -3.10967e-05 0)
(0.0968896 -2.94999e-05 0)
(0.0969262 -2.79815e-05 0)
(0.0969619 -2.65183e-05 0)
(0.0969965 -2.50974e-05 0)
(0.0970301 -2.37145e-05 0)
(0.0970624 -2.237e-05 0)
(0.0970934 -2.1066e-05 0)
(0.097123 -1.98044e-05 0)
(0.0971512 -1.85852e-05 0)
(0.097178 -1.74079e-05 0)
(0.0972032 -1.62718e-05 0)
(0.0972269 -1.51775e-05 0)
(0.097249 -1.41271e-05 0)
(0.0972697 -1.31246e-05 0)
(0.0972889 -1.21742e-05 0)
(0.0973068 -1.12808e-05 0)
(0.0973233 -1.04477e-05 0)
(0.0973386 -9.67731e-06 0)
(0.0973529 -8.96935e-06 0)
(0.097366 -8.32225e-06 0)
(0.0973783 -7.7325e-06 0)
(0.0973897 -7.19579e-06 0)
(0.0974004 -6.70685e-06 0)
(0.0974104 -6.26058e-06 0)
(0.0974197 -5.85175e-06 0)
(0.0974285 -5.47579e-06 0)
(0.0974367 -5.12857e-06 0)
(0.0974445 -4.80651e-06 0)
(0.0974518 -4.50684e-06 0)
(0.0974586 -4.22686e-06 0)
(0.0974651 -3.96497e-06 0)
(0.0974712 -3.71905e-06 0)
(0.097477 -3.48832e-06 0)
(0.0974824 -3.27101e-06 0)
(0.0974875 -3.06687e-06 0)
(0.0974923 -2.87424e-06 0)
(0.0974969 -2.69333e-06 0)
(0.0975012 -2.52234e-06 0)
(0.0975052 -2.36199e-06 0)
(0.097509 -2.21013e-06 0)
(0.0975125 -2.06806e-06 0)
(0.0975159 -1.93317e-06 0)
(0.097519 -1.80736e-06 0)
(0.097522 -1.68755e-06 0)
(0.0975248 -1.57623e-06 0)
(0.0975274 -1.46974e-06 0)
(0.0975298 -1.37138e-06 0)
(0.0975321 -1.27663e-06 0)
(0.0975343 -1.18982e-06 0)
(0.0975363 -1.1054e-06 0)
(0.0975382 -1.02886e-06 0)
(0.0975399 -9.53525e-07 0)
(0.0975416 -8.86123e-07 0)
(0.097543 -8.18681e-07 0)
(0.0975445 -7.59452e-07 0)
(0.0975458 -6.98806e-07 0)
(0.0975471 -6.46888e-07 0)
(0.0975481 -5.92095e-07 0)
(0.0975492 -5.46699e-07 0)
(0.0975502 -4.96915e-07 0)
(0.0975511 -4.57416e-07 0)
(0.0975519 -4.11843e-07 0)
(0.0975527 -3.77787e-07 0)
(0.0975533 -3.35757e-07 0)
(0.097554 -3.06861e-07 0)
(0.0975545 -2.67861e-07 0)
(0.097555 -2.4423e-07 0)
(0.0975554 -2.07831e-07 0)
(0.0975558 -1.90344e-07 0)
(0.0975562 -1.56374e-07 0)
(0.0975564 -1.46777e-07 0)
(0.0975568 -1.15903e-07 0)
(0.191945 0.00849949 0)
(0.192381 0.0104233 0)
(0.193493 0.012009 0)
(0.195168 0.0128387 0)
(0.196914 0.012999 0)
(0.198307 0.012734 0)
(0.199171 0.012196 0)
(0.199487 0.0114608 0)
(0.199292 0.0105982 0)
(0.198642 0.00969582 0)
(0.197602 0.0088353 0)
(0.196252 0.00806626 0)
(0.194675 0.00740308 0)
(0.192942 0.00683657 0)
(0.191104 0.00634999 0)
(0.189194 0.00592663 0)
(0.18723 0.00555232 0)
(0.185225 0.00521584 0)
(0.183187 0.00490858 0)
(0.181125 0.00462419 0)
(0.179049 0.00435856 0)
(0.176968 0.00410952 0)
(0.17489 0.00387602 0)
(0.172825 0.00365735 0)
(0.17078 0.00345263 0)
(0.168759 0.00326073 0)
(0.166767 0.00308053 0)
(0.164809 0.00291096 0)
(0.162889 0.0027511 0)
(0.16101 0.00260015 0)
(0.159177 0.00245747 0)
(0.157391 0.00232248 0)
(0.155656 0.00219458 0)
(0.153971 0.00207315 0)
(0.152339 0.00195753 0)
(0.150759 0.00184714 0)
(0.149234 0.00174149 0)
(0.147763 0.00164013 0)
(0.146349 0.00154266 0)
(0.14499 0.00144878 0)
(0.143688 0.0013582 0)
(0.142444 0.00127064 0)
(0.141256 0.00118585 0)
(0.140126 0.00110357 0)
(0.139054 0.00102358 0)
(0.13804 0.000945678 0)
(0.137084 0.000869732 0)
(0.136186 0.000795694 0)
(0.135346 0.000723458 0)
(0.134565 0.000652897 0)
(0.133841 0.000584052 0)
(0.133175 0.000517039 0)
(0.132565 0.000451888 0)
(0.132012 0.000388688 0)
(0.131512 0.000327857 0)
(0.131066 0.000270022 0)
(0.130671 0.000215677 0)
(0.130325 0.000165196 0)
(0.130025 0.000119341 0)
(0.129769 7.91624e-05 0)
(0.129552 4.45825e-05 0)
(0.129372 1.4666e-05 0)
(0.129224 -9.49068e-06 0)
(0.129106 -2.81082e-05 0)
(0.129013 -4.23014e-05 0)
(0.128941 -5.20772e-05 0)
(0.128887 -5.8181e-05 0)
(0.128848 -6.15212e-05 0)
(0.128821 -6.27603e-05 0)
(0.128804 -6.23358e-05 0)
(0.128796 -6.10138e-05 0)
(0.128794 -5.92007e-05 0)
(0.128797 -5.71481e-05 0)
(0.128805 -5.50309e-05 0)
(0.128816 -5.29721e-05 0)
(0.128831 -5.10231e-05 0)
(0.128848 -4.91864e-05 0)
(0.128868 -4.74362e-05 0)
(0.12889 -4.57287e-05 0)
(0.128913 -4.40257e-05 0)
(0.128938 -4.22993e-05 0)
(0.128963 -4.05358e-05 0)
(0.12899 -3.87327e-05 0)
(0.129017 -3.68959e-05 0)
(0.129044 -3.50341e-05 0)
(0.129071 -3.3157e-05 0)
(0.129097 -3.12738e-05 0)
(0.129123 -2.93948e-05 0)
(0.129148 -2.7531e-05 0)
(0.129172 -2.56963e-05 0)
(0.129195 -2.39066e-05 0)
(0.129217 -2.21795e-05 0)
(0.129237 -2.05316e-05 0)
(0.129255 -1.89778e-05 0)
(0.129272 -1.75289e-05 0)
(0.129288 -1.61915e-05 0)
(0.129303 -1.49669e-05 0)
(0.129316 -1.38527e-05 0)
(0.129328 -1.28426e-05 0)
(0.12934 -1.19283e-05 0)
(0.12935 -1.11e-05 0)
(0.12936 -1.03479e-05 0)
(0.129369 -9.6622e-06 0)
(0.129378 -9.0344e-06 0)
(0.129386 -8.45663e-06 0)
(0.129393 -7.92251e-06 0)
(0.1294 -7.42664e-06 0)
(0.129407 -6.96448e-06 0)
(0.129413 -6.53267e-06 0)
(0.129419 -6.12797e-06 0)
(0.129424 -5.74835e-06 0)
(0.129429 -5.39139e-06 0)
(0.129434 -5.05591e-06 0)
(0.129439 -4.73984e-06 0)
(0.129443 -4.44268e-06 0)
(0.129447 -4.16228e-06 0)
(0.129451 -3.89889e-06 0)
(0.129455 -3.64993e-06 0)
(0.129458 -3.41647e-06 0)
(0.129462 -3.19537e-06 0)
(0.129465 -2.98849e-06 0)
(0.129467 -2.79209e-06 0)
(0.12947 -2.60887e-06 0)
(0.129473 -2.43428e-06 0)
(0.129475 -2.27219e-06 0)
(0.129477 -2.11682e-06 0)
(0.129479 -1.97358e-06 0)
(0.129481 -1.83513e-06 0)
(0.129483 -1.70865e-06 0)
(0.129485 -1.58504e-06 0)
(0.129486 -1.4735e-06 0)
(0.129488 -1.36277e-06 0)
(0.129489 -1.26462e-06 0)
(0.12949 -1.16495e-06 0)
(0.129492 -1.07883e-06 0)
(0.129493 -9.88616e-07 0)
(0.129494 -9.13312e-07 0)
(0.129495 -8.31061e-07 0)
(0.129496 -7.65671e-07 0)
(0.129496 -6.89924e-07 0)
(0.129497 -6.33848e-07 0)
(0.129498 -5.633e-07 0)
(0.129498 -5.16256e-07 0)
(0.129499 -4.49768e-07 0)
(0.129499 -4.1209e-07 0)
(0.1295 -3.48725e-07 0)
(0.1295 -3.21686e-07 0)
(0.1295 -2.61509e-07 0)
(0.129501 -2.47128e-07 0)
(0.129501 -1.91751e-07 0)
(0.19291 0.0080561 0)
(0.193317 0.0094882 0)
(0.194193 0.0107915 0)
(0.195566 0.011636 0)
(0.197177 0.011938 0)
(0.198703 0.011829 0)
(0.199954 0.0114612 0)
(0.200877 0.0109312 0)
(0.201482 0.0102995 0)
(0.201791 0.00962272 0)
(0.201834 0.00895689 0)
(0.201649 0.00834355 0)
(0.201281 0.00780171 0)
(0.200776 0.00733103 0)
(0.200169 0.00692222 0)
(0.199484 0.00656417 0)
(0.198731 0.00624678 0)
(0.197918 0.00596127 0)
(0.197046 0.00570001 0)
(0.196117 0.00545658 0)
(0.195133 0.00522622 0)
(0.1941 0.00500616 0)
(0.193022 0.00479522 0)
(0.191906 0.0045932 0)
(0.190757 0.00440005 0)
(0.18958 0.0042155 0)
(0.188379 0.00403883 0)
(0.187157 0.00386907 0)
(0.185919 0.00370515 0)
(0.184669 0.00354631 0)
(0.183412 0.00339225 0)
(0.182153 0.00324296 0)
(0.180896 0.00309848 0)
(0.179645 0.00295864 0)
(0.178403 0.00282301 0)
(0.177172 0.00269107 0)
(0.175954 0.00256234 0)
(0.174754 0.00243647 0)
(0.173574 0.00231326 0)
(0.172417 0.00219262 0)
(0.171285 0.00207449 0)
(0.170181 0.00195871 0)
(0.169107 0.00184503 0)
(0.168065 0.00173324 0)
(0.167057 0.00162317 0)
(0.166084 0.00151473 0)
(0.16515 0.00140791 0)
(0.164255 0.00130277 0)
(0.163401 0.00119934 0)
(0.16259 0.00109756 0)
(0.161821 0.000997564 0)
(0.161097 0.000899596 0)
(0.160418 0.000803834 0)
(0.159783 0.000710572 0)
(0.159193 0.000620376 0)
(0.158648 0.000534003 0)
(0.158146 0.000452077 0)
(0.157688 0.000375306 0)
(0.15727 0.000304519 0)
(0.156893 0.000240374 0)
(0.156553 0.000183092 0)
(0.15625 0.000133794 0)
(0.155982 9.2059e-05 0)
(0.155744 5.7524e-05 0)
(0.155536 2.91046e-05 0)
(0.155354 6.79217e-06 0)
(0.155196 -1.01444e-05 0)
(0.15506 -2.25346e-05 0)
(0.154943 -3.14338e-05 0)
(0.154843 -3.79993e-05 0)
(0.154758 -4.24609e-05 0)
(0.154687 -4.54248e-05 0)
(0.154626 -4.74023e-05 0)
(0.154577 -4.87342e-05 0)
(0.154536 -4.96481e-05 0)
(0.154503 -5.02675e-05 0)
(0.154478 -5.06558e-05 0)
(0.154459 -5.08386e-05 0)
(0.154447 -5.07992e-05 0)
(0.154439 -5.05193e-05 0)
(0.154437 -4.99894e-05 0)
(0.154438 -4.92128e-05 0)
(0.154444 -4.82011e-05 0)
(0.154452 -4.69694e-05 0)
(0.154463 -4.55316e-05 0)
(0.154476 -4.38996e-05 0)
(0.154492 -4.2085e-05 0)
(0.154508 -4.01048e-05 0)
(0.154526 -3.79824e-05 0)
(0.154544 -3.57522e-05 0)
(0.154562 -3.34563e-05 0)
(0.15458 -3.11435e-05 0)
(0.154597 -2.8862e-05 0)
(0.154614 -2.66573e-05 0)
(0.154629 -2.45658e-05 0)
(0.154643 -2.26144e-05 0)
(0.154656 -2.08179e-05 0)
(0.154667 -1.91822e-05 0)
(0.154678 -1.77033e-05 0)
(0.154688 -1.63726e-05 0)
(0.154697 -1.5176e-05 0)
(0.154705 -1.40994e-05 0)
(0.154712 -1.31269e-05 0)
(0.154719 -1.22448e-05 0)
(0.154725 -1.14398e-05 0)
(0.154731 -1.07016e-05 0)
(0.154736 -1.00205e-05 0)
(0.154741 -9.38946e-06 0)
(0.154746 -8.8022e-06 0)
(0.154751 -8.25412e-06 0)
(0.154755 -7.74107e-06 0)
(0.154759 -7.26007e-06 0)
(0.154762 -6.80837e-06 0)
(0.154766 -6.38372e-06 0)
(0.154769 -5.98445e-06 0)
(0.154772 -5.60834e-06 0)
(0.154775 -5.25479e-06 0)
(0.154778 -4.92115e-06 0)
(0.154781 -4.60784e-06 0)
(0.154783 -4.31165e-06 0)
(0.154785 -4.03395e-06 0)
(0.154787 -3.77082e-06 0)
(0.15479 -3.52476e-06 0)
(0.154791 -3.29076e-06 0)
(0.154793 -3.07291e-06 0)
(0.154795 -2.86453e-06 0)
(0.154797 -2.67181e-06 0)
(0.154798 -2.48595e-06 0)
(0.154799 -2.3156e-06 0)
(0.154801 -2.14944e-06 0)
(0.154802 -1.99906e-06 0)
(0.154803 -1.84994e-06 0)
(0.154804 -1.71753e-06 0)
(0.154805 -1.58296e-06 0)
(0.154806 -1.46674e-06 0)
(0.154807 -1.34452e-06 0)
(0.154808 -1.24298e-06 0)
(0.154808 -1.13102e-06 0)
(0.154809 -1.04304e-06 0)
(0.15481 -9.39278e-07 0)
(0.15481 -8.64133e-07 0)
(0.154811 -7.66743e-07 0)
(0.154811 -7.04106e-07 0)
(0.154812 -6.115e-07 0)
(0.154812 -5.61709e-07 0)
(0.154812 -4.7278e-07 0)
(0.154813 -4.37102e-07 0)
(0.154813 -3.52381e-07 0)
(0.154813 -3.33008e-07 0)
(0.154813 -2.54767e-07 0)
(0.193707 0.00769095 0)
(0.194102 0.00883869 0)
(0.194834 0.00991024 0)
(0.195936 0.0106933 0)
(0.197269 0.0110636 0)
(0.198614 0.0110634 0)
(0.1998 0.0108102 0)
(0.20076 0.0104038 0)
(0.201494 0.00990737 0)
(0.202021 0.00936588 0)
(0.202367 0.0088195 0)
(0.202556 0.00830154 0)
(0.202619 0.00783222 0)
(0.202588 0.00741752 0)
(0.202488 0.00705411 0)
(0.202338 0.00673491 0)
(0.202148 0.0064525 0)
(0.201922 0.00620008 0)
(0.20166 0.00597125 0)
(0.201361 0.00575993 0)
(0.201023 0.00556095 0)
(0.200646 0.00537071 0)
(0.200232 0.00518737 0)
(0.199782 0.00501048 0)
(0.199299 0.00484024 0)
(0.198785 0.0046768 0)
(0.198241 0.00451982 0)
(0.197668 0.00436834 0)
(0.197066 0.00422096 0)
(0.196438 0.00407639 0)
(0.195786 0.00393391 0)
(0.195112 0.00379348 0)
(0.194421 0.00365543 0)
(0.193715 0.00352006 0)
(0.192995 0.00338729 0)
(0.192264 0.00325672 0)
(0.191523 0.00312773 0)
(0.190774 0.00299973 0)
(0.19002 0.00287237 0)
(0.189262 0.00274565 0)
(0.188505 0.0026198 0)
(0.18775 0.00249493 0)
(0.186999 0.00237089 0)
(0.186254 0.00224743 0)
(0.185517 0.00212425 0)
(0.184791 0.00200122 0)
(0.184077 0.00187847 0)
(0.183379 0.00175628 0)
(0.182698 0.00163487 0)
(0.182037 0.00151432 0)
(0.181396 0.00139481 0)
(0.180777 0.00127667 0)
(0.180183 0.00116024 0)
(0.179613 0.00104602 0)
(0.17907 0.000934763 0)
(0.178553 0.000827387 0)
(0.178063 0.000724689 0)
(0.177602 0.000627358 0)
(0.177167 0.000536292 0)
(0.17676 0.000452559 0)
(0.176381 0.000376802 0)
(0.176029 0.000309374 0)
(0.175704 0.000249995 0)
(0.175405 0.000198615 0)
(0.17513 0.00015536 0)
(0.17488 0.000119296 0)
(0.174653 8.95279e-05 0)
(0.174447 6.53579e-05 0)
(0.174261 4.5758e-05 0)
(0.174093 2.95233e-05 0)
(0.173944 1.63416e-05 0)
(0.17381 5.58066e-06 0)
(0.17369 -3.34395e-06 0)
(0.173584 -1.0902e-05 0)
(0.173491 -1.74287e-05 0)
(0.173408 -2.31553e-05 0)
(0.173336 -2.81969e-05 0)
(0.173274 -3.25755e-05 0)
(0.17322 -3.63017e-05 0)
(0.173175 -3.93826e-05 0)
(0.173137 -4.18405e-05 0)
(0.173107 -4.37201e-05 0)
(0.173082 -4.50748e-05 0)
(0.173063 -4.59541e-05 0)
(0.173049 -4.63902e-05 0)
(0.17304 -4.63946e-05 0)
(0.173035 -4.59656e-05 0)
(0.173034 -4.51025e-05 0)
(0.173037 -4.38142e-05 0)
(0.173042 -4.21328e-05 0)
(0.173049 -4.01142e-05 0)
(0.173058 -3.78367e-05 0)
(0.173068 -3.53901e-05 0)
(0.173078 -3.2869e-05 0)
(0.173088 -3.03586e-05 0)
(0.173097 -2.79321e-05 0)
(0.173106 -2.5642e-05 0)
(0.173114 -2.35235e-05 0)
(0.173121 -2.1592e-05 0)
(0.173128 -1.98509e-05 0)
(0.173133 -1.82904e-05 0)
(0.173138 -1.6897e-05 0)
(0.173143 -1.5651e-05 0)
(0.173147 -1.45346e-05 0)
(0.17315 -1.35283e-05 0)
(0.173154 -1.2617e-05 0)
(0.173156 -1.17854e-05 0)
(0.173159 -1.10231e-05 0)
(0.173162 -1.03192e-05 0)
(0.173164 -9.66729e-06 0)
(0.173166 -9.06005e-06 0)
(0.173168 -8.4937e-06 0)
(0.17317 -7.96324e-06 0)
(0.173171 -7.4663e-06 0)
(0.173173 -6.99955e-06 0)
(0.173174 -6.56097e-06 0)
(0.173176 -6.14866e-06 0)
(0.173177 -5.76034e-06 0)
(0.173179 -5.39536e-06 0)
(0.17318 -5.05088e-06 0)
(0.173181 -4.72746e-06 0)
(0.173182 -4.42142e-06 0)
(0.173183 -4.13477e-06 0)
(0.173184 -3.86242e-06 0)
(0.173185 -3.60845e-06 0)
(0.173186 -3.36563e-06 0)
(0.173187 -3.14071e-06 0)
(0.173187 -2.92377e-06 0)
(0.173188 -2.7247e-06 0)
(0.173189 -2.53031e-06 0)
(0.173189 -2.35438e-06 0)
(0.17319 -2.17939e-06 0)
(0.173191 -2.0243e-06 0)
(0.173191 -1.86581e-06 0)
(0.173192 -1.72955e-06 0)
(0.173192 -1.58495e-06 0)
(0.173192 -1.46584e-06 0)
(0.173193 -1.33264e-06 0)
(0.173193 -1.22945e-06 0)
(0.173193 -1.10524e-06 0)
(0.173194 -1.01715e-06 0)
(0.173194 -8.99808e-07 0)
(0.173194 -8.26399e-07 0)
(0.173194 -7.14183e-07 0)
(0.173194 -6.55701e-07 0)
(0.173194 -5.47536e-07 0)
(0.173195 -5.05167e-07 0)
(0.173195 -4.01913e-07 0)
(0.173195 -3.78184e-07 0)
(0.173195 -2.82969e-07 0)
(0.194392 0.0073775 0)
(0.194773 0.00832785 0)
(0.195405 0.00921481 0)
(0.196308 0.00990509 0)
(0.197404 0.0102921 0)
(0.198548 0.0103699 0)
(0.199602 0.010211 0)
(0.200491 0.00990105 0)
(0.201202 0.00950368 0)
(0.201749 0.00906085 0)
(0.202154 0.00860399 0)
(0.202439 0.00815905 0)
(0.202629 0.0077448 0)
(0.202745 0.00737051 0)
(0.202811 0.00703726 0)
(0.202841 0.00674151 0)
(0.202846 0.00647833 0)
(0.202833 0.00624278 0)
(0.202801 0.00602993 0)
(0.202752 0.00583465 0)
(0.202684 0.00565211 0)
(0.202595 0.00547852 0)
(0.202486 0.00531163 0)
(0.202357 0.0051506 0)
(0.202208 0.00499553 0)
(0.20204 0.00484679 0)
(0.201853 0.00470439 0)
(0.201648 0.00456761 0)
(0.201424 0.00443498 0)
(0.20118 0.00430478 0)
(0.200916 0.00417574 0)
(0.200635 0.00404744 0)
(0.200336 0.00392018 0)
(0.200023 0.00379449 0)
(0.199694 0.00367068 0)
(0.199352 0.00354856 0)
(0.198995 0.00342748 0)
(0.198626 0.00330662 0)
(0.198243 0.00318526 0)
(0.197849 0.00306319 0)
(0.197444 0.00294067 0)
(0.197031 0.00281806 0)
(0.196611 0.00269546 0)
(0.196184 0.00257263 0)
(0.195751 0.00244912 0)
(0.195314 0.00232452 0)
(0.194874 0.00219884 0)
(0.194432 0.00207245 0)
(0.193991 0.00194578 0)
(0.193553 0.00181911 0)
(0.193118 0.00169265 0)
(0.192687 0.00156667 0)
(0.192263 0.00144155 0)
(0.191846 0.00131791 0)
(0.191437 0.00119664 0)
(0.191039 0.00107873 0)
(0.190651 0.00096505 0)
(0.190275 0.000856444 0)
(0.189912 0.000754029 0)
(0.189563 0.000658768 0)
(0.189228 0.000571028 0)
(0.188908 0.000491211 0)
(0.188604 0.000419729 0)
(0.188316 0.000356706 0)
(0.188046 0.000301861 0)
(0.187792 0.000254393 0)
(0.187554 0.000213611 0)
(0.187333 0.000178641 0)
(0.187128 0.000148658 0)
(0.186938 0.000123166 0)
(0.186764 0.000101261 0)
(0.186603 8.23304e-05 0)
(0.186456 6.58455e-05 0)
(0.186321 5.1306e-05 0)
(0.186198 3.83059e-05 0)
(0.186085 2.65355e-05 0)
(0.185983 1.58255e-05 0)
(0.185891 6.14158e-06 0)
(0.185809 -2.51304e-06 0)
(0.185735 -1.01223e-05 0)
(0.18567 -1.67036e-05 0)
(0.185613 -2.23259e-05 0)
(0.185562 -2.70919e-05 0)
(0.185518 -3.11103e-05 0)
(0.185481 -3.44656e-05 0)
(0.185449 -3.71952e-05 0)
(0.185422 -3.92914e-05 0)
(0.185401 -4.07236e-05 0)
(0.185385 -4.14559e-05 0)
(0.185374 -4.14784e-05 0)
(0.185366 -4.08182e-05 0)
(0.185362 -3.95481e-05 0)
(0.18536 -3.77752e-05 0)
(0.18536 -3.5633e-05 0)
(0.185361 -3.32583e-05 0)
(0.185363 -3.07832e-05 0)
(0.185366 -2.83166e-05 0)
(0.185368 -2.59455e-05 0)
(0.18537 -2.37257e-05 0)
(0.185372 -2.16924e-05 0)
(0.185374 -1.98556e-05 0)
(0.185375 -1.82149e-05 0)
(0.185375 -1.6755e-05 0)
(0.185376 -1.54601e-05 0)
(0.185376 -1.43072e-05 0)
(0.185376 -1.32785e-05 0)
(0.185376 -1.23529e-05 0)
(0.185375 -1.15168e-05 0)
(0.185375 -1.07541e-05 0)
(0.185375 -1.00562e-05 0)
(0.185374 -9.4116e-06 0)
(0.185374 -8.81557e-06 0)
(0.185373 -8.26016e-06 0)
(0.185373 -7.74285e-06 0)
(0.185373 -7.25819e-06 0)
(0.185372 -6.80454e-06 0)
(0.185372 -6.37837e-06 0)
(0.185372 -5.97807e-06 0)
(0.185371 -5.60164e-06 0)
(0.185371 -5.24702e-06 0)
(0.185371 -4.91368e-06 0)
(0.185371 -4.59861e-06 0)
(0.185371 -4.30307e-06 0)
(0.18537 -4.02238e-06 0)
(0.18537 -3.76022e-06 0)
(0.18537 -3.50948e-06 0)
(0.18537 -3.2769e-06 0)
(0.18537 -3.05226e-06 0)
(0.18537 -2.84599e-06 0)
(0.18537 -2.64396e-06 0)
(0.18537 -2.46125e-06 0)
(0.185369 -2.27856e-06 0)
(0.185369 -2.11707e-06 0)
(0.185369 -1.95072e-06 0)
(0.185369 -1.80845e-06 0)
(0.185369 -1.65573e-06 0)
(0.185369 -1.531e-06 0)
(0.185369 -1.38934e-06 0)
(0.185369 -1.28095e-06 0)
(0.185369 -1.14788e-06 0)
(0.185369 -1.05501e-06 0)
(0.185369 -9.28399e-07 0)
(0.185369 -8.50603e-07 0)
(0.185369 -7.28763e-07 0)
(0.185369 -6.66276e-07 0)
(0.185368 -5.48306e-07 0)
(0.185368 -5.02312e-07 0)
(0.185368 -3.89162e-07 0)
(0.185368 -3.62709e-07 0)
(0.185368 -2.58661e-07 0)
(0.194992 0.00709385 0)
(0.195353 0.00789021 0)
(0.195905 0.00862868 0)
(0.19666 0.00922304 0)
(0.197569 0.00959497 0)
(0.198535 0.00972113 0)
(0.199456 0.00963881 0)
(0.200262 0.00941172 0)
(0.200927 0.00909722 0)
(0.201455 0.00873553 0)
(0.201865 0.00835405 0)
(0.202175 0.00797355 0)
(0.202404 0.0076099 0)
(0.20257 0.00727311 0)
(0.20269 0.0069671 0)
(0.202778 0.00669131 0)
(0.202845 0.006443 0)
(0.202896 0.00621881 0)
(0.202936 0.00601519 0)
(0.202966 0.00582821 0)
(0.202987 0.00565384 0)
(0.202997 0.00548861 0)
(0.202997 0.00533017 0)
(0.202986 0.00517746 0)
(0.202965 0.0050304 0)
(0.202935 0.00488934 0)
(0.202895 0.00475451 0)
(0.202846 0.00462548 0)
(0.202787 0.00450095 0)
(0.202719 0.00437915 0)
(0.20264 0.0042585 0)
(0.202551 0.00413824 0)
(0.202452 0.0040185 0)
(0.202344 0.00389986 0)
(0.202226 0.00378281 0)
(0.2021 0.00366745 0)
(0.201964 0.00355329 0)
(0.201818 0.00343942 0)
(0.201662 0.00332491 0)
(0.201496 0.00320922 0)
(0.201321 0.00309246 0)
(0.201136 0.00297507 0)
(0.200943 0.00285741 0)
(0.200741 0.00273939 0)
(0.20053 0.00262046 0)
(0.20031 0.00249998 0)
(0.200082 0.00237767 0)
(0.199846 0.00225382 0)
(0.199604 0.00212897 0)
(0.199357 0.00200354 0)
(0.199104 0.0018778 0)
(0.198847 0.00175198 0)
(0.198586 0.00162639 0)
(0.198323 0.00150162 0)
(0.198058 0.00137853 0)
(0.197792 0.00125813 0)
(0.197527 0.00114142 0)
(0.197263 0.00102938 0)
(0.197001 0.000922941 0)
(0.196743 0.000822843 0)
(0.196489 0.00072966 0)
(0.19624 0.000644024 0)
(0.195999 0.000566293 0)
(0.195766 0.000496448 0)
(0.195542 0.000434303 0)
(0.195328 0.000379406 0)
(0.195123 0.000331154 0)
(0.194929 0.000288818 0)
(0.194745 0.00025169 0)
(0.194572 0.000219044 0)
(0.19441 0.00019014 0)
(0.194258 0.000164506 0)
(0.194116 0.000141686 0)
(0.193983 0.000121208 0)
(0.193859 0.000102622 0)
(0.193743 8.55701e-05 0)
(0.193636 6.98145e-05 0)
(0.193537 5.52554e-05 0)
(0.193445 4.19209e-05 0)
(0.193361 2.98824e-05 0)
(0.193285 1.91725e-05 0)
(0.193215 9.74572e-06 0)
(0.193152 1.47689e-06 0)
(0.193094 -5.79843e-06 0)
(0.193042 -1.22277e-05 0)
(0.192995 -1.79117e-05 0)
(0.192954 -2.28693e-05 0)
(0.192918 -2.70579e-05 0)
(0.192887 -3.03975e-05 0)
(0.19286 -3.28165e-05 0)
(0.192839 -3.42789e-05 0)
(0.192821 -3.48106e-05 0)
(0.192808 -3.44941e-05 0)
(0.192797 -3.34661e-05 0)
(0.192789 -3.18896e-05 0)
(0.192782 -2.99406e-05 0)
(0.192777 -2.77807e-05 0)
(0.192772 -2.55522e-05 0)
(0.192768 -2.33613e-05 0)
(0.192765 -2.12873e-05 0)