/*--------------------------------*- C++ -*----------------------------------*\
| =========                 |                                                 |
| \\      /  F ield         | OpenFOAM: The Open Source CFD Toolbox           |
|  \\    /   O peration     | Version:  2.3.0                                 |
|   \\  /    A nd           | Web:      www.OpenFOAM.org                      |
|    \\/     M anipulation  |                                                 |
\*---------------------------------------------------------------------------*/
FoamFile
{
    version     2.0;
    format      ascii;
    class       surfaceScalarField;
    location    "0.4";
    object      phi_0;
}
// * * * * * * * * * * * * * * * * * * * * * * * * * * * * * * * * * * * * * //

dimensions      [0 3 -1 0 0 0 0];

internalField   nonuniform List<scalar> 
5764
(
1.78552e-08
5.9163e-09
-2.37715e-08
1.25459e-08
5.30929e-09
8.95862e-09
3.58727e-09
6.91318e-09
2.04544e-09
5.8487e-09
1.06448e-09
5.2795e-09
5.69206e-10
4.91633e-09
3.63168e-10
4.62913e-09
2.87197e-10
4.377e-09
2.52133e-10
4.1524e-09
2.24594e-10
3.95386e-09
1.98548e-10
3.77862e-09
1.75237e-10
3.62302e-09
1.55596e-10
3.48363e-09
1.39391e-10
3.35769e-09
1.2594e-10
3.24309e-09
1.14601e-10
3.1382e-09
1.04889e-10
3.04174e-09
9.64583e-11
2.95268e-09
8.90632e-11
2.87016e-09
8.25236e-11
2.79346e-09
7.67009e-11
2.72197e-09
7.14853e-11
2.65518e-09
6.67878e-11
2.59265e-09
6.25355e-11
2.53398e-09
5.86677e-11
2.47885e-09
5.51342e-11
2.42695e-09
5.18924e-11
2.37805e-09
4.89064e-11
2.3319e-09
4.61457e-11
2.28832e-09
4.35841e-11
2.24712e-09
4.11988e-11
2.20815e-09
3.89702e-11
2.17127e-09
3.68811e-11
2.13635e-09
3.49164e-11
2.10329e-09
3.30627e-11
2.07198e-09
3.13083e-11
2.04234e-09
2.96425e-11
2.01428e-09
2.80559e-11
1.98774e-09
2.654e-11
1.96266e-09
2.50871e-11
1.93896e-09
2.36904e-11
1.91662e-09
2.23435e-11
1.89558e-09
2.10409e-11
1.8758e-09
1.97776e-11
1.85725e-09
1.85488e-11
1.8399e-09
1.73505e-11
1.82372e-09
1.61791e-11
1.80869e-09
1.50314e-11
1.79479e-09
1.39047e-11
1.78199e-09
1.27967e-11
1.77029e-09
1.17057e-11
1.75966e-09
1.06302e-11
1.75009e-09
9.56886e-12
1.74157e-09
8.52068e-12
1.73408e-09
7.48501e-12
1.72762e-09
6.46258e-12
1.72216e-09
5.45716e-12
1.71768e-09
4.47781e-12
1.71414e-09
3.54077e-12
1.71147e-09
2.66996e-12
1.70958e-09
1.89481e-12
1.70833e-09
1.24545e-12
1.70759e-09
7.45848e-13
1.70718e-09
4.07032e-13
1.70696e-09
2.23152e-13
1.70678e-09
1.71425e-13
1.70657e-09
2.18e-13
1.70625e-09
3.18436e-13
1.7058e-09
4.50792e-13
1.70526e-09
5.38229e-13
1.70453e-09
7.25959e-13
1.70406e-09
4.75548e-13
1.70274e-09
1.31905e-12
1.70425e-09
-1.5107e-12
2.59048e-12
2.74526e-08
5.93939e-09
-2.74757e-08
2.58792e-08
6.88268e-09
2.34134e-08
6.05313e-09
2.09035e-08
4.55531e-09
1.87529e-08
3.21507e-09
1.70375e-08
2.28457e-09
1.56944e-08
1.70632e-09
1.4629e-08
1.35254e-09
1.37595e-08
1.12164e-09
1.30282e-08
9.55893e-10
1.23983e-08
8.28476e-10
1.18463e-08
7.27206e-10
1.13566e-08
6.45334e-10
1.09178e-08
5.78179e-10
1.05215e-08
5.22256e-10
1.01611e-08
4.74995e-10
9.83145e-09
4.34519e-10
9.52846e-09
3.99451e-10
9.24875e-09
3.68768e-10
8.98958e-09
3.41697e-10
8.74864e-09
3.17637e-10
8.52401e-09
2.96116e-10
8.31405e-09
2.76753e-10
8.11734e-09
2.59238e-10
7.93269e-09
2.43316e-10
7.75905e-09
2.28775e-10
7.59551e-09
2.15437e-10
7.44126e-09
2.03152e-10
7.29562e-09
1.91792e-10
7.15795e-09
1.81249e-10
7.02772e-09
1.71429e-10
6.90444e-09
1.62249e-10
6.78769e-09
1.53639e-10
6.67707e-09
1.45535e-10
6.57225e-09
1.37884e-10
6.47292e-09
1.30636e-10
6.37881e-09
1.23746e-10
6.28969e-09
1.17177e-10
6.20534e-09
1.10893e-10
6.12557e-09
1.04862e-10
6.0502e-09
9.90563e-11
5.97909e-09
9.34498e-11
5.91211e-09
8.80193e-11
5.84915e-09
8.27443e-11
5.79009e-09
7.76061e-11
5.73485e-09
7.25884e-11
5.68335e-09
6.76769e-11
5.63553e-09
6.28596e-11
5.5913e-09
5.81267e-11
5.55063e-09
5.34706e-11
5.51345e-09
4.88862e-11
5.47971e-09
4.43706e-11
5.44935e-09
3.99233e-11
5.42233e-09
3.5547e-11
5.39856e-09
3.12487e-11
5.37798e-09
2.70441e-11
5.36048e-09
2.2962e-11
5.34591e-09
1.90498e-11
5.33407e-09
1.53771e-11
5.32471e-09
1.2032e-11
5.31749e-09
9.11117e-12
5.31204e-09
6.70154e-12
5.30792e-09
4.85944e-12
5.30474e-09
3.59291e-12
5.30211e-09
2.85432e-12
5.29973e-09
2.54651e-12
5.29741e-09
2.54255e-12
5.29502e-09
2.70469e-12
5.29253e-09
2.93558e-12
5.28998e-09
3.09459e-12
5.28734e-09
3.36537e-12
5.28493e-09
2.88196e-12
5.28197e-09
4.28399e-12
5.28245e-09
-1.99826e-12
6.95681e-12
2.89196e-08
5.18598e-09
-2.81662e-08
2.94885e-08
6.31381e-09
2.93208e-08
6.22079e-09
2.84968e-08
5.37936e-09
2.73155e-08
4.39636e-09
2.60245e-08
3.57557e-09
2.47629e-08
2.96797e-09
2.35893e-08
2.5261e-09
2.25187e-08
2.1922e-09
2.15477e-08
1.92695e-09
2.0667e-08
1.70916e-09
1.98666e-08
1.52756e-09
1.91371e-08
1.37488e-09
1.84698e-08
1.24552e-09
1.78571e-08
1.13495e-09
1.72925e-08
1.03959e-09
1.67704e-08
9.56629e-10
1.62859e-08
8.8387e-10
1.58351e-08
8.19583e-10
1.54144e-08
7.62396e-10
1.50208e-08
7.11212e-10
1.46518e-08
6.65143e-10
1.43051e-08
6.23462e-10
1.39788e-08
5.8557e-10
1.36711e-08
5.50967e-10
1.33807e-08
5.19233e-10
1.31061e-08
4.90013e-10
1.28462e-08
4.63007e-10
1.26001e-08
4.37954e-10
1.23667e-08
4.14631e-10
1.21453e-08
3.92846e-10
1.19351e-08
3.72428e-10
1.17355e-08
3.53228e-10
1.15459e-08
3.35116e-10
1.13658e-08
3.17974e-10
1.11948e-08
3.01699e-10
1.10323e-08
2.86198e-10
1.08781e-08
2.71386e-10
1.07318e-08
2.57189e-10
1.05931e-08
2.43538e-10
1.04618e-08
2.30372e-10
1.03376e-08
2.17634e-10
1.02204e-08
2.05274e-10
1.01099e-08
1.93247e-10
1.0006e-08
1.81513e-10
9.90853e-09
1.70037e-10
9.81742e-09
1.58787e-10
9.73254e-09
1.4774e-10
9.65379e-09
1.36873e-10
9.58109e-09
1.26174e-10
9.51434e-09
1.15634e-10
9.45346e-09
1.05251e-10
9.39836e-09
9.50295e-11
9.34892e-09
8.49849e-11
9.30502e-09
7.51444e-11
9.26651e-09
6.55551e-11
9.23318e-09
5.62928e-11
9.20476e-09
4.74696e-11
9.1809e-09
3.92362e-11
9.16116e-09
3.1773e-11
9.14501e-09
2.52662e-11
9.13183e-09
1.98731e-11
9.12101e-09
1.56831e-11
9.11192e-09
1.2688e-11
9.104e-09
1.07716e-11
9.09682e-09
9.72665e-12
9.09007e-09
9.29269e-12
9.08357e-09
9.20443e-12
9.07725e-09
9.25194e-12
9.07111e-09
9.23876e-12
9.06517e-09
9.29874e-12
9.05959e-09
8.46503e-12
9.054e-09
9.87115e-12
9.05142e-09
5.8965e-13
1.32848e-11
2.94776e-08
4.70811e-09
-2.89997e-08
3.01528e-08
5.63865e-09
3.06786e-08
5.69499e-09
3.0868e-08
5.18989e-09
3.07221e-08
4.54228e-09
3.0327e-08
3.97064e-09
2.97745e-08
3.52055e-09
2.9132e-08
3.1686e-09
2.84426e-08
2.88159e-09
2.77333e-08
2.63618e-09
2.70222e-08
2.42036e-09
2.63211e-08
2.22864e-09
2.56381e-08
2.05788e-09
2.49781e-08
1.90551e-09
2.43439e-08
1.76918e-09
2.37367e-08
1.64678e-09
2.31568e-08
1.53652e-09
2.26038e-08
1.43685e-09
2.20769e-08
1.34643e-09
2.15752e-08
1.26413e-09
2.10974e-08
1.18898e-09
2.06424e-08
1.12014e-09
2.0209e-08
1.05688e-09
1.9796e-08
9.98561e-10
1.94024e-08
9.44643e-10
1.90269e-08
8.94642e-10
1.86688e-08
8.48139e-10
1.83271e-08
8.04763e-10
1.80008e-08
7.6419e-10
1.76893e-08
7.2613e-10
1.73918e-08
6.90327e-10
1.71077e-08
6.56554e-10
1.68363e-08
6.24606e-10
1.65772e-08
5.94299e-10
1.63297e-08
5.65466e-10
1.60934e-08
5.37959e-10
1.5868e-08
5.11639e-10
1.5653e-08
4.86383e-10
1.54481e-08
4.62078e-10
1.5253e-08
4.38619e-10
1.50675e-08
4.15912e-10
1.48912e-08
3.9387e-10
1.47241e-08
3.72415e-10
1.45659e-08
3.51477e-10
1.44164e-08
3.30991e-10
1.42755e-08
3.10902e-10
1.41431e-08
2.91163e-10
1.40191e-08
2.71735e-10
1.39034e-08
2.52587e-10
1.37959e-08
2.33699e-10
1.36965e-08
2.15063e-10
1.3605e-08
1.96681e-10
1.35215e-08
1.78572e-10
1.34457e-08
1.60769e-10
1.33775e-08
1.43333e-10
1.33167e-08
1.26357e-10
1.3263e-08
1.09978e-10
1.32161e-08
9.43908e-11
1.31755e-08
7.98431e-11
1.31407e-08
6.66216e-11
1.31109e-08
5.50144e-11
1.30855e-08
4.52587e-11
1.30637e-08
3.74834e-11
1.30448e-08
3.1666e-11
1.30279e-08
2.76191e-11
1.30126e-08
2.50161e-11
1.29985e-08
2.34483e-11
1.29852e-08
2.2503e-11
1.29726e-08
2.18369e-11
1.29606e-08
2.1179e-11
1.29493e-08
2.05863e-11
1.29388e-08
1.90578e-11
1.29287e-08
1.99192e-11
1.29211e-08
8.16561e-12
2.3029e-11
3.03199e-08
4.37354e-09
-2.99853e-08
3.0786e-08
5.17258e-09
3.12262e-08
5.25476e-09
3.15484e-08
4.86768e-09
3.17285e-08
4.36219e-09
3.17775e-08
3.92169e-09
3.17167e-08
3.58128e-09
3.1566e-08
3.31937e-09
3.134e-08
3.10754e-09
3.1051e-08
2.92523e-09
3.07101e-08
2.76118e-09
3.03284e-08
2.61033e-09
2.99159e-08
2.47046e-09
2.94811e-08
2.34024e-09
2.90316e-08
2.2187e-09
2.85734e-08
2.10502e-09
2.81114e-08
1.99854e-09
2.76495e-08
1.89871e-09
2.71909e-08
1.80504e-09
2.6738e-08
1.71706e-09
2.62926e-08
1.63438e-09
2.58561e-08
1.55661e-09
2.54296e-08
1.48338e-09
2.50138e-08
1.41437e-09
2.46092e-08
1.34925e-09
2.42161e-08
1.28772e-09
2.38347e-08
1.22951e-09
2.34651e-08
1.17435e-09
2.31073e-08
1.122e-09
2.27612e-08
1.07223e-09
2.24267e-08
1.02483e-09
2.21037e-08
9.79599e-10
2.17919e-08
9.36355e-10
2.14913e-08
8.94924e-10
2.12016e-08
8.55143e-10
2.09227e-08
8.16862e-10
2.06544e-08
7.79939e-10
2.03966e-08
7.44241e-10
2.0149e-08
7.09643e-10
1.99116e-08
6.76029e-10
1.96842e-08
6.43292e-10
1.94668e-08
6.11329e-10
1.92591e-08
5.8005e-10
1.90612e-08
5.49368e-10
1.8873e-08
5.19207e-10
1.86944e-08
4.89501e-10
1.85254e-08
4.60193e-10
1.83659e-08
4.31236e-10
1.82159e-08
4.02597e-10
1.80753e-08
3.74257e-10
1.79442e-08
3.46212e-10
1.78224e-08
3.18479e-10
1.77099e-08
2.91093e-10
1.76065e-08
2.64121e-10
1.75122e-08
2.37662e-10
1.74267e-08
2.11866e-10
1.73497e-08
1.86944e-10
1.72809e-08
1.63176e-10
1.72198e-08
1.40914e-10
1.71659e-08
1.20553e-10
1.71184e-08
1.02486e-10
1.70767e-08
8.70333e-11
1.70398e-08
7.43745e-11
1.7007e-08
6.44879e-11
1.69774e-08
5.71345e-11
1.69506e-08
5.18878e-11
1.69258e-08
4.82058e-11
1.69028e-08
4.55329e-11
1.68812e-08
4.33898e-11
1.6861e-08
4.14143e-11
1.6842e-08
3.95682e-11
1.68242e-08
3.6858e-11
1.68076e-08
3.6532e-11
1.67928e-08
2.29663e-11
3.7911e-11
3.12785e-08
4.09046e-09
-3.09954e-08
3.16513e-08
4.79978e-09
3.1985e-08
4.92108e-09
3.22289e-08
4.6238e-09
3.23921e-08
4.19896e-09
3.24975e-08
3.81631e-09
3.25614e-08
3.51731e-09
3.25912e-08
3.28962e-09
3.25873e-08
3.11147e-09
3.25476e-08
2.96488e-09
3.24708e-08
2.83802e-09
3.23569e-08
2.72419e-09
3.22077e-08
2.61963e-09
3.20259e-08
2.52206e-09
3.18147e-08
2.42989e-09
3.15777e-08
2.34205e-09
3.13184e-08
2.25784e-09
3.10403e-08
2.1768e-09
3.07467e-08
2.09862e-09
3.04407e-08
2.0231e-09
3.0125e-08
1.95012e-09
2.9802e-08
1.87956e-09
2.9474e-08
1.81134e-09
2.9143e-08
1.74539e-09
2.88106e-08
1.68163e-09
2.84784e-08
1.61999e-09
2.81475e-08
1.56039e-09
2.78191e-08
1.50274e-09
2.74941e-08
1.44696e-09
2.71734e-08
1.39295e-09
2.68576e-08
1.34062e-09
2.65474e-08
1.28987e-09
2.62431e-08
1.2406e-09
2.59453e-08
1.19273e-09
2.56543e-08
1.14613e-09
2.53705e-08
1.10072e-09
2.5094e-08
1.05639e-09
2.48252e-08
1.01305e-09
2.45642e-08
9.70602e-10
2.43113e-08
9.28947e-10
2.40666e-08
8.87997e-10
2.38303e-08
8.47664e-10
2.36025e-08
8.07866e-10
2.33833e-08
7.68527e-10
2.31729e-08
7.29577e-10
2.29715e-08
6.90956e-10
2.27791e-08
6.52612e-10
2.25958e-08
6.14507e-10
2.24218e-08
5.76618e-10
2.22571e-08
5.38937e-10
2.21018e-08
5.01478e-10
2.1956e-08
4.64277e-10
2.18197e-08
4.27403e-10
2.16929e-08
3.90957e-10
2.15755e-08
3.55092e-10
2.14673e-08
3.20017e-10
2.13682e-08
2.8602e-10
2.12779e-08
2.53471e-10
2.1196e-08
2.2282e-10
2.1122e-08
1.94565e-10
2.10553e-08
1.69197e-10
2.09952e-08
1.4712e-10
2.0941e-08
1.2857e-10
2.0892e-08
1.13543e-10
2.08473e-08
1.01781e-10
2.08064e-08
9.2793e-11
2.07687e-08
8.59433e-11
2.07337e-08
8.05642e-11
2.0701e-08
7.60608e-11
2.06704e-08
7.19832e-11
2.06418e-08
6.81847e-11
2.06149e-08
6.37424e-11
2.05899e-08
6.15141e-11
2.05659e-08
4.69807e-11
5.94762e-11
3.22632e-08
3.8449e-09
-3.20176e-08
3.25911e-08
4.4718e-09
3.28846e-08
4.62758e-09
3.30912e-08
4.41727e-09
3.32199e-08
4.07025e-09
3.3299e-08
3.7372e-09
3.33518e-08
3.46451e-09
3.33916e-08
3.24976e-09
3.34234e-08
3.07976e-09
3.34464e-08
2.94182e-09
3.34582e-08
2.82621e-09
3.3456e-08
2.72642e-09
3.34374e-08
2.63828e-09
3.34006e-08
2.55883e-09
3.33446e-08
2.48585e-09
3.3269e-08
2.41767e-09
3.31738e-08
2.35305e-09
3.30595e-08
2.29109e-09
3.2927e-08
2.23114e-09
3.27773e-08
2.17276e-09
3.26118e-08
2.11561e-09
3.24319e-08
2.0595e-09
3.22389e-08
2.00427e-09
3.20345e-08
1.94984e-09
3.182e-08
1.89615e-09
3.15968e-08
1.84316e-09
3.13664e-08
1.79085e-09
3.11299e-08
1.73921e-09
3.08886e-08
1.68822e-09
3.06437e-08
1.63786e-09
3.03962e-08
1.58814e-09
3.0147e-08
1.53901e-09
2.98972e-08
1.49046e-09
2.96474e-08
1.44247e-09
2.93986e-08
1.39498e-09
2.91514e-08
1.34797e-09
2.89064e-08
1.30138e-09
2.86642e-08
1.25518e-09
2.84255e-08
1.2093e-09
2.81908e-08
1.16369e-09
2.79605e-08
1.1183e-09
2.77351e-08
1.07307e-09
2.7515e-08
1.02795e-09
2.73007e-08
9.82879e-10
2.70924e-08
9.37822e-10
2.68906e-08
8.92735e-10
2.66957e-08
8.47589e-10
2.65078e-08
8.02366e-10
2.63274e-08
7.57065e-10
2.61546e-08
7.11702e-10
2.59897e-08
6.66318e-10
2.5833e-08
6.20983e-10
2.56846e-08
5.75801e-10
2.55447e-08
5.30921e-10
2.54132e-08
4.86548e-10
2.52903e-08
4.42959e-10
2.51758e-08
4.00515e-10
2.50696e-08
3.59672e-10
2.49714e-08
3.20968e-10
2.4881e-08
2.84994e-10
2.47979e-08
2.52327e-10
2.47215e-08
2.23448e-10
2.46515e-08
1.98648e-10
2.45871e-08
1.77962e-10
2.45277e-08
1.61133e-10
2.44728e-08
1.47653e-10
2.44219e-08
1.36836e-10
2.43746e-08
1.2795e-10
2.43303e-08
1.20321e-10
2.42888e-08
1.13438e-10
2.425e-08
1.07046e-10
2.42133e-08
1.00383e-10
2.41793e-08
9.55799e-11
2.41452e-08
8.10775e-11
8.84793e-11
3.32704e-08
3.63203e-09
-3.30575e-08
3.35599e-08
4.18231e-09
3.38286e-08
4.35882e-09
3.40244e-08
4.22154e-09
3.41476e-08
3.94698e-09
3.42201e-08
3.66472e-09
3.42629e-08
3.42169e-09
3.42908e-08
3.22189e-09
3.43121e-08
3.05847e-09
3.43304e-08
2.9235e-09
3.43466e-08
2.81e-09
3.43603e-08
2.71273e-09
3.43705e-08
2.62808e-09
3.43759e-08
2.55343e-09
3.43751e-08
2.48666e-09
3.43667e-08
2.42604e-09
3.43495e-08
2.37021e-09
3.43226e-08
2.31807e-09
3.4285e-08
2.26873e-09
3.42362e-08
2.22152e-09
3.41759e-08
2.17588e-09
3.4104e-08
2.13139e-09
3.40206e-08
2.08772e-09
3.39258e-08
2.0446e-09
3.38201e-08
2.00184e-09
3.3704e-08
1.9593e-09
3.3578e-08
1.91685e-09
3.34428e-08
1.87441e-09
3.32991e-08
1.83192e-09
3.31476e-08
1.78933e-09
3.29892e-08
1.7466e-09
3.28245e-08
1.70371e-09
3.26543e-08
1.66062e-09
3.24795e-08
1.61732e-09
3.23007e-08
1.57378e-09
3.21187e-08
1.52997e-09
3.19342e-08
1.48587e-09
3.17479e-08
1.44146e-09
3.15605e-08
1.39669e-09
3.13726e-08
1.35154e-09
3.1185e-08
1.30598e-09
3.09981e-08
1.25996e-09
3.08125e-08
1.21347e-09
3.06289e-08
1.16647e-09
3.04478e-08
1.11893e-09
3.02697e-08
1.07084e-09
3.00951e-08
1.02219e-09
2.99245e-08
9.72981e-10
2.97583e-08
9.23244e-10
2.9597e-08
8.73018e-10
2.9441e-08
8.22375e-10
2.92905e-08
7.71417e-10
2.91461e-08
7.20289e-10
2.90078e-08
6.69185e-10
2.8876e-08
6.18364e-10
2.87508e-08
5.68161e-10
2.86323e-08
5.19008e-10
2.85205e-08
4.71431e-10
2.84154e-08
4.26047e-10
2.83169e-08
3.8352e-10
2.82247e-08
3.445e-10
2.81387e-08
3.09532e-10
2.80583e-08
2.78963e-10
2.79834e-08
2.52868e-10
2.79135e-08
2.31021e-10
2.78483e-08
2.12924e-10
2.77872e-08
1.97887e-10
2.773e-08
1.85159e-10
2.76763e-08
1.74031e-10
2.76258e-08
1.63967e-10
2.75782e-08
1.5461e-10
2.75331e-08
1.45468e-10
2.74911e-08
1.37645e-10
2.7448e-08
1.24187e-10
1.24309e-10
3.43038e-08
3.44608e-09
-3.41178e-08
3.45581e-08
3.92801e-09
3.48025e-08
4.11438e-09
3.49892e-08
4.03483e-09
3.51135e-08
3.82269e-09
3.51906e-08
3.5876e-09
3.52371e-08
3.37521e-09
3.52654e-08
3.19366e-09
3.52835e-08
3.04037e-09
3.52961e-08
2.91086e-09
3.53058e-08
2.80035e-09
3.53137e-08
2.70476e-09
3.53207e-08
2.62113e-09
3.53268e-08
2.5473e-09
3.5332e-08
2.4815e-09
3.53357e-08
2.42227e-09
3.53375e-08
2.36841e-09
3.53367e-08
2.31893e-09
3.53324e-08
2.27299e-09
3.5324e-08
2.2299e-09
3.53108e-08
2.18909e-09
3.52922e-08
2.15006e-09
3.52675e-08
2.1124e-09
3.52363e-08
2.07576e-09
3.51983e-08
2.03983e-09
3.51532e-08
2.00438e-09
3.51009e-08
1.96918e-09
3.50413e-08
1.93405e-09
3.49743e-08
1.89885e-09
3.49002e-08
1.86345e-09
3.48191e-08
1.82773e-09
3.47312e-08
1.7916e-09
3.46368e-08
1.75498e-09
3.45364e-08
1.71779e-09
3.44302e-08
1.67997e-09
3.43187e-08
1.64147e-09
3.42024e-08
1.60222e-09
3.40816e-08
1.56217e-09
3.3957e-08
1.52128e-09
3.38291e-08
1.47951e-09
3.36983e-08
1.43679e-09
3.35651e-08
1.39311e-09
3.34302e-08
1.34842e-09
3.3294e-08
1.30269e-09
3.3157e-08
1.25589e-09
3.30198e-08
1.20802e-09
3.28829e-08
1.15908e-09
3.27468e-08
1.10907e-09
3.2612e-08
1.05804e-09
3.2479e-08
1.00604e-09
3.23482e-08
9.5316e-10
3.22201e-08
8.99535e-10
3.20951e-08
8.45333e-10
3.19735e-08
7.90785e-10
3.18556e-08
7.3619e-10
3.17419e-08
6.81932e-10
3.16324e-08
6.28493e-10
3.15274e-08
5.76453e-10
3.14269e-08
5.26484e-10
3.13311e-08
4.79304e-10
3.124e-08
4.35614e-10
3.11535e-08
3.96009e-10
3.10716e-08
3.60882e-10
3.09941e-08
3.30355e-10
3.09209e-08
3.04242e-10
3.08518e-08
2.82082e-10
3.07864e-08
2.63214e-10
3.07247e-08
2.46901e-10
3.06663e-08
2.32437e-10
3.0611e-08
2.19296e-10
3.05585e-08
2.07038e-10
3.05085e-08
1.95515e-10
3.04615e-08
1.84631e-10
3.04127e-08
1.73029e-10
1.64769e-10
3.53642e-08
3.28206e-09
-3.52001e-08
3.55878e-08
3.70436e-09
3.58091e-08
3.89313e-09
3.59854e-08
3.85854e-09
3.61089e-08
3.69917e-09
3.61903e-08
3.5062e-09
3.62426e-08
3.32289e-09
3.6276e-08
3.16025e-09
3.62975e-08
3.01884e-09
3.63116e-08
2.89679e-09
3.63208e-08
2.7911e-09
3.63269e-08
2.6987e-09
3.63309e-08
2.61714e-09
3.63336e-08
2.54459e-09
3.63355e-08
2.47956e-09
3.6337e-08
2.42081e-09
3.63381e-08
2.3673e-09
3.63389e-08
2.31819e-09
3.63391e-08
2.27277e-09
3.63385e-08
2.23044e-09
3.63369e-08
2.19069e-09
3.63339e-08
2.15308e-09
3.63291e-08
2.11723e-09
3.63221e-08
2.0828e-09
3.63124e-08
2.0495e-09
3.62997e-08
2.01706e-09
3.62837e-08
1.98523e-09
3.62639e-08
1.95382e-09
3.62401e-08
1.92262e-09
3.62121e-08
1.89146e-09
3.61797e-08
1.86018e-09
3.61426e-08
1.82864e-09
3.61009e-08
1.7967e-09
3.60544e-08
1.76423e-09
3.60033e-08
1.73114e-09
3.59475e-08
1.6973e-09
3.58871e-08
1.66262e-09
3.58222e-08
1.627e-09
3.57531e-08
1.59036e-09
3.568e-08
1.55262e-09
3.56031e-08
1.5137e-09
3.55227e-08
1.47353e-09
3.54391e-08
1.43204e-09
3.53526e-08
1.38919e-09
3.52635e-08
1.34493e-09
3.51723e-08
1.29924e-09
3.50793e-08
1.25209e-09
3.49849e-08
1.20349e-09
3.48895e-08
1.15347e-09
3.47934e-08
1.1021e-09
3.46971e-08
1.04945e-09
3.4601e-08
9.95661e-10
3.45054e-08
9.40923e-10
3.44107e-08
8.85479e-10
3.43172e-08
8.29648e-10
3.42253e-08
7.73841e-10
3.41353e-08
7.18565e-10
3.40473e-08
6.64431e-10
3.39616e-08
6.12138e-10
3.38785e-08
5.62432e-10
3.37981e-08
5.16039e-10
3.37205e-08
4.73584e-10
3.36459e-08
4.35495e-10
3.35743e-08
4.01933e-10
3.35058e-08
3.72762e-10
3.34403e-08
3.47568e-10
3.33778e-08
3.25738e-10
3.33181e-08
3.0658e-10
3.32611e-08
2.89411e-10
3.32067e-08
2.73743e-10
3.31547e-08
2.5907e-10
3.31046e-08
2.45615e-10
3.30571e-08
2.32088e-10
3.30074e-08
2.2274e-10
2.06455e-10
3.64522e-08
3.13607e-09
-3.63062e-08
3.66495e-08
3.50703e-09
3.68495e-08
3.69313e-09
3.7015e-08
3.69303e-09
3.71362e-08
3.57801e-09
3.722e-08
3.4224e-09
3.72767e-08
3.26614e-09
3.73149e-08
3.1221e-09
3.73406e-08
2.99314e-09
3.7358e-08
2.87938e-09
3.73697e-08
2.77941e-09
3.73773e-08
2.69109e-09
3.7382e-08
2.61247e-09
3.73845e-08
2.54202e-09
3.73856e-08
2.47847e-09
3.73857e-08
2.42074e-09
3.73851e-08
2.36791e-09
3.7384e-08
2.31923e-09
3.73827e-08
2.27407e-09
3.73813e-08
2.2319e-09
3.73797e-08
2.19227e-09
3.73779e-08
2.15482e-09
3.7376e-08
2.11919e-09
3.73737e-08
2.08511e-09
3.73709e-08
2.05231e-09
3.73674e-08
2.02055e-09
3.7363e-08
1.98963e-09
3.73574e-08
1.95935e-09
3.73506e-08
1.92951e-09
3.73421e-08
1.89995e-09
3.73317e-08
1.87051e-09
3.73193e-08
1.84103e-09
3.73047e-08
1.81136e-09
3.72875e-08
1.78136e-09
3.72678e-08
1.75089e-09
3.72453e-08
1.71983e-09
3.72198e-08
1.68804e-09
3.71914e-08
1.6554e-09
3.716e-08
1.6218e-09
3.71255e-08
1.58712e-09
3.70879e-08
1.55125e-09
3.70474e-08
1.5141e-09
3.70038e-08
1.47558e-09
3.69574e-08
1.4356e-09
3.69083e-08
1.39409e-09
3.68565e-08
1.35099e-09
3.68023e-08
1.30627e-09
3.67459e-08
1.25992e-09
3.66875e-08
1.21194e-09
3.66272e-08
1.16236e-09
3.65653e-08
1.11128e-09
3.65022e-08
1.05882e-09
3.6438e-08
1.00514e-09
3.63729e-08
9.50506e-10
3.63074e-08
8.95226e-10
3.62415e-08
8.39713e-10
3.61756e-08
7.84479e-10
3.61099e-08
7.30138e-10
3.60446e-08
6.77387e-10
3.59801e-08
6.26972e-10
3.59165e-08
5.7962e-10
3.58541e-08
5.35962e-10
3.57932e-08
4.96443e-10
3.57339e-08
4.61255e-10
3.56763e-08
4.30305e-10
3.56207e-08
4.03235e-10
3.55669e-08
3.79488e-10
3.55151e-08
3.58427e-10
3.54651e-08
3.39412e-10
3.54168e-08
3.22003e-10
3.53702e-08
3.05649e-10
3.53249e-08
2.90912e-10
3.52815e-08
2.75502e-10
3.5236e-08
2.68278e-10
2.45683e-10
3.75687e-08
3.00508e-09
-3.74377e-08
3.77435e-08
3.33222e-09
3.79243e-08
3.5124e-09
3.8079e-08
3.53825e-09
3.81969e-08
3.46012e-09
3.82819e-08
3.33746e-09
3.83418e-08
3.2062e-09
3.83837e-08
3.08017e-09
3.8413e-08
2.96387e-09
3.84335e-08
2.8589e-09
3.84478e-08
2.76513e-09
3.84575e-08
2.68133e-09
3.84639e-08
2.60608e-09
3.84678e-08
2.53814e-09
3.84698e-08
2.47649e-09
3.84703e-08
2.4202e-09
3.84698e-08
2.36844e-09
3.84685e-08
2.32055e-09
3.84666e-08
2.27595e-09
3.84643e-08
2.23417e-09
3.84618e-08
2.19479e-09
3.84592e-08
2.15746e-09
3.84565e-08
2.12189e-09
3.84538e-08
2.08781e-09
3.84511e-08
2.05499e-09
3.84484e-08
2.02323e-09
3.84457e-08
1.99234e-09
3.84429e-08
1.96214e-09
3.844e-08
1.93247e-09
3.84367e-08
1.90318e-09
3.84331e-08
1.87412e-09
3.8429e-08
1.84515e-09
3.84243e-08
1.81613e-09
3.84187e-08
1.78693e-09
3.84122e-08
1.75741e-09
3.84046e-08
1.72744e-09
3.83957e-08
1.69689e-09
3.83855e-08
1.66563e-09
3.83738e-08
1.63354e-09
3.83604e-08
1.60049e-09
3.83453e-08
1.56636e-09
3.83283e-08
1.53104e-09
3.83095e-08
1.49442e-09
3.82887e-08
1.45639e-09
3.82659e-08
1.41688e-09
3.82411e-08
1.3758e-09
3.82143e-08
1.3331e-09
3.81854e-08
1.28875e-09
3.81546e-08
1.24272e-09
3.8122e-08
1.19505e-09
3.80874e-08
1.1458e-09
3.80512e-08
1.09507e-09
3.80133e-08
1.04303e-09
3.79739e-08
9.89906e-10
3.79331e-08
9.36007e-10
3.78911e-08
8.81731e-10
3.7848e-08
8.27573e-10
3.7804e-08
7.74128e-10
3.77593e-08
7.22071e-10
3.77142e-08
6.72124e-10
3.76688e-08
6.24994e-10
3.76235e-08
5.81297e-10
3.75784e-08
5.41477e-10
3.75339e-08
5.05744e-10
3.74902e-08
4.74041e-10
3.74474e-08
4.46061e-10
3.74056e-08
4.21305e-10
3.73648e-08
3.99195e-10
3.73251e-08
3.79141e-10
3.72863e-08
3.60754e-10
3.72485e-08
3.43464e-10
3.72113e-08
3.28078e-10
3.71752e-08
3.11657e-10
3.71375e-08
3.05966e-10
2.79555e-10
3.87148e-08
2.88674e-09
-3.85965e-08
3.88704e-08
3.17665e-09
3.90337e-08
3.34905e-09
3.9178e-08
3.39397e-09
3.92919e-08
3.34618e-09
3.93771e-08
3.25233e-09
3.94393e-08
3.14398e-09
3.94843e-08
3.03519e-09
3.95166e-08
2.93154e-09
3.95398e-08
2.83568e-09
3.95565e-08
2.7485e-09
3.95682e-08
2.66957e-09
3.95763e-08
2.59799e-09
3.95816e-08
2.53284e-09
3.95848e-08
2.47333e-09
3.95863e-08
2.41868e-09
3.95865e-08
2.36821e-09
3.95858e-08
2.32131e-09
3.95842e-08
2.27748e-09
3.95821e-08
2.23628e-09
3.95796e-08
2.19732e-09
3.95768e-08
2.1603e-09
3.95737e-08
2.12492e-09
3.95706e-08
2.09095e-09
3.95674e-08
2.05816e-09
3.95643e-08
2.02637e-09
3.95612e-08
1.9954e-09
3.95582e-08
1.9651e-09
3.95554e-08
1.93532e-09
3.95526e-08
1.90592e-09
3.955e-08
1.87677e-09
3.95474e-08
1.84774e-09
3.95448e-08
1.8187e-09
3.95422e-08
1.78954e-09
3.95395e-08
1.76012e-09
3.95366e-08
1.73034e-09
3.95334e-08
1.70006e-09
3.95299e-08
1.66917e-09
3.95259e-08
1.63754e-09
3.95213e-08
1.60506e-09
3.95161e-08
1.57161e-09
3.951e-08
1.53706e-09
3.95031e-08
1.50132e-09
3.94953e-08
1.46427e-09
3.94863e-08
1.42583e-09
3.94762e-08
1.38592e-09
3.94648e-08
1.34446e-09
3.94522e-08
1.30141e-09
3.94381e-08
1.25676e-09
3.94227e-08
1.21051e-09
3.94058e-08
1.16271e-09
3.93874e-08
1.11346e-09
3.93675e-08
1.06292e-09
3.93461e-08
1.01128e-09
3.93233e-08
9.58854e-10
3.9299e-08
9.06007e-10
3.92734e-08
8.53215e-10
3.92464e-08
8.01042e-10
3.92184e-08
7.50131e-10
3.91893e-08
7.01164e-10
3.91595e-08
6.54814e-10
3.91292e-08
6.11667e-10
3.90985e-08
5.72156e-10
3.90677e-08
5.36496e-10
3.90371e-08
5.04656e-10
3.90068e-08
4.76373e-10
3.89769e-08
4.51205e-10
3.89475e-08
4.28628e-10
3.89185e-08
4.08105e-10
3.889e-08
3.89293e-10
3.88618e-08
3.71635e-10
3.88338e-08
3.56057e-10
3.88061e-08
3.39377e-10
3.87777e-08
3.34381e-10
3.06668e-10
3.98915e-08
2.77923e-09
-3.9784e-08
4.00306e-08
3.03757e-09
4.01784e-08
3.20129e-09
4.03125e-08
3.25985e-09
4.0422e-08
3.2367e-09
4.05065e-08
3.16781e-09
4.05702e-08
3.08026e-09
4.06176e-08
2.98777e-09
4.06526e-08
2.89656e-09
4.06783e-08
2.80999e-09
4.06971e-08
2.7297e-09
4.07107e-08
2.65595e-09
4.07204e-08
2.58831e-09
4.07271e-08
2.52619e-09
4.07314e-08
2.46902e-09
4.07339e-08
2.41619e-09
4.07349e-08
2.36715e-09
4.07348e-08
2.32138e-09
4.07339e-08
2.27843e-09
4.07323e-08
2.23791e-09
4.07301e-08
2.1995e-09
4.07275e-08
2.16287e-09
4.07246e-08
2.12779e-09
4.07216e-08
2.09402e-09
4.07184e-08
2.06135e-09
4.07151e-08
2.02962e-09
4.07119e-08
1.99865e-09
4.07087e-08
1.9683e-09
4.07056e-08
1.93843e-09
4.07026e-08
1.90891e-09
4.06998e-08
1.87961e-09
4.06971e-08
1.85041e-09
4.06946e-08
1.82121e-09
4.06922e-08
1.79189e-09
4.069e-08
1.76233e-09
4.06879e-08
1.73242e-09
4.06859e-08
1.70204e-09
4.0684e-08
1.6711e-09
4.06821e-08
1.63946e-09
4.06801e-08
1.60703e-09
4.0678e-08
1.57369e-09
4.06758e-08
1.53933e-09
4.06733e-08
1.50384e-09
4.06704e-08
1.46714e-09
4.06671e-08
1.42912e-09
4.06633e-08
1.38972e-09
4.06589e-08
1.34886e-09
4.06538e-08
1.3065e-09
4.06479e-08
1.26263e-09
4.06412e-08
1.21725e-09
4.06335e-08
1.1704e-09
4.06248e-08
1.12218e-09
4.0615e-08
1.07272e-09
4.0604e-08
1.02224e-09
4.05919e-08
9.71015e-10
4.05785e-08
9.19395e-10
4.05639e-08
8.67832e-10
4.0548e-08
8.16861e-10
4.05311e-08
7.67085e-10
4.05131e-08
7.19147e-10
4.04942e-08
6.73677e-10
4.04747e-08
6.31227e-10
4.04546e-08
5.9221e-10
4.04343e-08
5.56838e-10
4.04138e-08
5.25103e-10
4.03934e-08
4.96778e-10
4.03732e-08
4.71471e-10
4.03531e-08
4.48711e-10
4.03332e-08
4.2801e-10
4.03134e-08
4.09067e-10
4.02937e-08
3.91359e-10
4.02739e-08
3.75821e-10
4.02539e-08
3.59373e-10
4.0234e-08
3.54266e-10
3.27164e-10
4.11e-08
2.6811e-09
-4.10019e-08
4.12249e-08
2.91265e-09
4.13588e-08
3.06742e-09
4.14832e-08
3.13542e-09
4.15878e-08
3.13205e-09
4.16711e-08
3.08459e-09
4.17356e-08
3.01576e-09
4.17848e-08
2.93852e-09
4.1822e-08
2.85936e-09
4.18499e-08
2.78209e-09
4.18707e-08
2.70888e-09
4.18861e-08
2.64054e-09
4.18974e-08
2.57709e-09
4.19053e-08
2.51823e-09
4.19107e-08
2.46359e-09
4.19142e-08
2.41276e-09
4.1916e-08
2.36529e-09
4.19167e-08
2.32076e-09
4.19163e-08
2.2788e-09
4.19151e-08
2.23906e-09
4.19134e-08
2.20124e-09
4.19112e-08
2.16509e-09
4.19086e-08
2.13036e-09
4.19058e-08
2.09685e-09
4.19028e-08
2.06436e-09
4.18996e-08
2.03274e-09
4.18965e-08
2.00182e-09
4.18933e-08
1.97147e-09
4.18902e-08
1.94155e-09
4.18872e-08
1.91195e-09
4.18842e-08
1.88254e-09
4.18814e-08
1.85321e-09
4.18788e-08
1.82386e-09
4.18763e-08
1.79436e-09
4.1874e-08
1.76463e-09
4.18719e-08
1.73454e-09
4.18699e-08
1.704e-09
4.18681e-08
1.6729e-09
4.18665e-08
1.64112e-09
4.18649e-08
1.60858e-09
4.18635e-08
1.57515e-09
4.1862e-08
1.54075e-09
4.18606e-08
1.50526e-09
4.18591e-08
1.46861e-09
4.18575e-08
1.43071e-09
4.18558e-08
1.39149e-09
4.18538e-08
1.35088e-09
4.18514e-08
1.30885e-09
4.18487e-08
1.26538e-09
4.18454e-08
1.22049e-09
4.18416e-08
1.17422e-09
4.18371e-08
1.12666e-09
4.18319e-08
1.07795e-09
4.18258e-08
1.02829e-09
4.18189e-08
9.77944e-10
4.1811e-08
9.27265e-10
4.18022e-08
8.76676e-10
4.17924e-08
8.26682e-10
4.17816e-08
7.77852e-10
4.177e-08
7.30788e-10
4.17576e-08
6.86079e-10
4.17446e-08
6.44244e-10
4.17311e-08
6.05672e-10
4.17174e-08
5.70573e-10
4.17035e-08
5.38952e-10
4.16897e-08
5.10619e-10
4.16759e-08
4.85225e-10
4.16623e-08
4.62348e-10
4.16487e-08
4.4155e-10
4.16352e-08
4.22563e-10
4.16217e-08
4.04916e-10
4.1608e-08
3.89468e-10
4.15939e-08
3.73472e-10
4.15805e-08
3.6768e-10
3.42252e-10
4.23414e-08
2.59122e-09
-4.22515e-08
4.24541e-08
2.79995e-09
4.25755e-08
2.94593e-09
4.26908e-08
3.02016e-09
4.27904e-08
3.03249e-09
4.28717e-08
3.00323e-09
4.29364e-08
2.95111e-09
4.29869e-08
2.88798e-09
4.30259e-08
2.82036e-09
4.30557e-08
2.75227e-09
4.30784e-08
2.68622e-09
4.30955e-08
2.62347e-09
4.31082e-08
2.56439e-09
4.31174e-08
2.50898e-09
4.31239e-08
2.45707e-09
4.31283e-08
2.40839e-09
4.3131e-08
2.36263e-09
4.31322e-08
2.31947e-09
4.31325e-08
2.27859e-09
4.31318e-08
2.23971e-09
4.31305e-08
2.20258e-09
4.31286e-08
2.16695e-09
4.31263e-08
2.13263e-09
4.31238e-08
2.09941e-09
4.3121e-08
2.06714e-09
4.31181e-08
2.03566e-09
4.31151e-08
2.00482e-09
4.3112e-08
1.9745e-09
4.3109e-08
1.94457e-09
4.3106e-08
1.91491e-09
4.31032e-08
1.88542e-09
4.31004e-08
1.85599e-09
4.30977e-08
1.8265e-09
4.30952e-08
1.79687e-09
4.30929e-08
1.76698e-09
4.30907e-08
1.73673e-09
4.30887e-08
1.70603e-09
4.30868e-08
1.67477e-09
4.30851e-08
1.64284e-09
4.30835e-08
1.61016e-09
4.3082e-08
1.57661e-09
4.30807e-08
1.54211e-09
4.30794e-08
1.50657e-09
4.30781e-08
1.46989e-09
4.30768e-08
1.432e-09
4.30755e-08
1.39284e-09
4.3074e-08
1.35234e-09
4.30723e-08
1.31049e-09
4.30705e-08
1.26726e-09
4.30683e-08
1.22268e-09
4.30657e-08
1.17679e-09
4.30627e-08
1.12969e-09
4.30591e-08
1.08152e-09
4.30549e-08
1.03247e-09
4.30501e-08
9.828e-10
4.30445e-08
9.32851e-10
4.30381e-08
8.83028e-10
4.3031e-08
8.33812e-10
4.30231e-08
7.8574e-10
4.30145e-08
7.39377e-10
4.30053e-08
6.95274e-10
4.29956e-08
6.53917e-10
4.29856e-08
6.15676e-10
4.29755e-08
5.80755e-10
4.29652e-08
5.49175e-10
4.29551e-08
5.20776e-10
4.2945e-08
4.95251e-10
4.29352e-08
4.72224e-10
4.29254e-08
4.51302e-10
4.29157e-08
4.32249e-10
4.2906e-08
4.14655e-10
4.28962e-08
3.99251e-10
4.2886e-08
3.83729e-10
4.28767e-08
3.76977e-10
3.53523e-10
4.36168e-08
2.50865e-09
-4.35342e-08
4.37189e-08
2.69788e-09
4.38294e-08
2.83545e-09
4.3936e-08
2.91352e-09
4.40304e-08
2.93813e-09
4.41094e-08
2.92419e-09
4.41737e-08
2.88686e-09
4.4225e-08
2.83668e-09
4.42654e-08
2.77998e-09
4.42968e-08
2.72082e-09
4.43211e-08
2.66193e-09
4.43397e-08
2.60486e-09
4.43538e-08
2.55031e-09
4.43643e-08
2.4985e-09
4.43719e-08
2.44947e-09
4.43772e-08
2.40309e-09
4.43806e-08
2.35917e-09
4.43826e-08
2.31749e-09
4.43834e-08
2.27779e-09
4.43833e-08
2.23986e-09
4.43824e-08
2.20348e-09
4.43809e-08
2.16845e-09
4.43789e-08
2.13458e-09
4.43766e-08
2.10171e-09