/*--------------------------------*- C++ -*----------------------------------*\
| =========                 |                                                 |
| \\      /  F ield         | OpenFOAM: The Open Source CFD Toolbox           |
|  \\    /   O peration     | Version:  2.3.0                                 |
|   \\  /    A nd           | Web:      www.OpenFOAM.org                      |
|    \\/     M anipulation  |                                                 |
\*---------------------------------------------------------------------------*/
FoamFile
{
    version     2.0;
    format      ascii;
    class       volScalarField;
    location    "0.7";
    object      p;
}
// * * * * * * * * * * * * * * * * * * * * * * * * * * * * * * * * * * * * * //

dimensions      [0 2 -2 0 0 0 0];

internalField   nonuniform List<scalar> 
3375
(
0.00528536
0.00466216
0.00414854
0.00377576
0.00346605
0.00318589
0.00293473
0.00271718
0.00253472
0.00238627
0.00226922
0.00217978
0.00211327
0.00206475
0.00202944
0.00200322
0.00198272
0.00196542
0.00194955
0.00193394
0.00191792
0.00190111
0.00188339
0.00186475
0.00184524
0.00182497
0.00180404
0.00178254
0.00176057
0.00173819
0.00171547
0.00169246
0.00166919
0.00164569
0.001622
0.00159814
0.00157412
0.00154997
0.00152569
0.0015013
0.00147682
0.00145225
0.00142761
0.0014029
0.00137813
0.00135331
0.00132845
0.00130356
0.00127863
0.00125368
0.0012287
0.00120371
0.00117871
0.00115369
0.00112868
0.00110365
0.00107863
0.0010536
0.00102858
0.00100355
0.000978535
0.00095352
0.000928511
0.000903508
0.00087851
0.000853518
0.000828531
0.000803551
0.000778575
0.000753605
0.00072864
0.00070368
0.000678723
0.000653769
0.000628819
0.000603871
0.000578925
0.000553981
0.000529038
0.000504096
0.000479154
0.000454214
0.000429273
0.000404333
0.000379394
0.000354457
0.000329521
0.000304588
0.000279659
0.000254735
0.000229818
0.000204911
0.000180014
0.000155132
0.000130267
0.000105425
8.06123e-05
5.58487e-05
3.12576e-05
4.98536e-06
0.00499043
0.00454461
0.00412226
0.00378331
0.00348851
0.00321599
0.0029682
0.00275138
0.00256814
0.00241799
0.00229867
0.00220663
0.00213741
0.00208619
0.00204834
0.00201976
0.00199715
0.00197799
0.00196051
0.00194353
0.00192633
0.00190855
0.00189
0.00187066
0.00185057
0.0018298
0.00180844
0.00178658
0.00176429
0.00174163
0.00171866
0.00169543
0.00167196
0.00164829
0.00162444
0.00160044
0.00157629
0.00155202
0.00152763
0.00150315
0.00147857
0.00145392
0.0014292
0.00140442
0.00137958
0.0013547
0.00132978
0.00130483
0.00127985
0.00125485
0.00122983
0.0012048
0.00117975
0.0011547
0.00112965
0.00110459
0.00107953
0.00105448
0.00102942
0.00100437
0.000979327
0.000954288
0.000929255
0.000904229
0.000879209
0.000854196
0.00082919
0.00080419
0.000779196
0.000754209
0.000729227
0.000704249
0.000679277
0.000654309
0.000629344
0.000604382
0.000579422
0.000554465
0.00052951
0.000504555
0.000479602
0.00045465
0.000429699
0.000404748
0.000379799
0.000354851
0.000329906
0.000304963
0.000280025
0.000255093
0.000230167
0.000205251
0.000180347
0.000155456
0.000130584
0.000105735
8.09163e-05
5.61508e-05
3.16495e-05
4.86485e-06
0.00477634
0.00444295
0.00408486
0.00377184
0.00349307
0.0032346
0.00299785
0.00278829
0.00260874
0.00245924
0.00233817
0.00224271
0.00216913
0.00211323
0.00207084
0.00203819
0.00201212
0.00199015
0.00197045
0.00195178
0.0019333
0.00191455
0.00189528
0.00187537
0.00185484
0.00183371
0.00181204
0.00178992
0.00176739
0.00174453
0.00172137
0.00169797
0.00167434
0.00165053
0.00162654
0.00160241
0.00157815
0.00155377
0.00152929
0.00150471
0.00148006
0.00145533
0.00143054
0.00140569
0.00138079
0.00135586
0.00133088
0.00130588
0.00128086
0.00125582
0.00123076
0.00120569
0.00118061
0.00115552
0.00113044
0.00110535
0.00108027
0.00105518
0.00103011
0.00100503
0.000979966
0.000954906
0.000929853
0.000904807
0.00087977
0.000854739
0.000829717
0.000804701
0.000779692
0.000754691
0.000729695
0.000704704
0.000679719
0.000654739
0.000629762
0.000604789
0.000579818
0.000554851
0.000529885
0.000504921
0.000479958
0.000454997
0.000430037
0.000405078
0.00038012
0.000355164
0.000330211
0.000305261
0.000280315
0.000255375
0.000230443
0.00020552
0.000180609
0.000155712
0.000130833
0.000105976
8.11472e-05
5.63673e-05
3.17482e-05
3.87289e-06
0.00459363
0.0043325
0.00402948
0.00374708
0.00348977
0.00324994
0.00302828
0.0028294
0.0026563
0.0025096
0.00238834
0.00229044
0.00221291
0.00215227
0.00210491
0.00206747
0.00203703
0.00201123
0.00198829
0.0019669
0.00194621
0.00192564
0.00190489
0.00188379
0.00186226
0.00184031
0.00181796
0.00179526
0.00177224
0.00174894
0.00172541
0.00170168
0.00167776
0.00165369
0.00162948
0.00160514
0.00158069
0.00155614
0.00153151
0.0015068
0.00148201
0.00145717
0.00143227
0.00140733
0.00138234
0.00135732
0.00133228
0.0013072
0.00128212
0.00125701
0.0012319
0.00120677
0.00118165
0.00115652
0.00113139
0.00110626
0.00108114
0.00105602
0.00103091
0.00100581
0.000980711
0.000955623
0.000930544
0.000905474
0.000880413
0.00085536
0.000830316
0.000805281
0.000780253
0.000755233
0.00073022
0.000705213
0.000680212
0.000655216
0.000630225
0.000605238
0.000580255
0.000555274
0.000530296
0.00050532
0.000480346
0.000455374
0.000430403
0.000405434
0.000380466
0.000355501
0.000330538
0.000305579
0.000280625
0.000255677
0.000230736
0.000205804
0.000180885
0.00015598
0.000131092
0.000106223
8.13736e-05
5.65375e-05
3.15757e-05
2.2793e-06
0.00443126
0.00422168
0.00396797
0.00371808
0.00348347
0.00326235
0.00305597
0.00286843
0.0027028
0.00256014
0.00243999
0.00234084
0.00226036
0.00219568
0.00214375
0.00210165
0.00206678
0.00203695
0.00201048
0.00198608
0.00196284
0.00194017
0.00191767
0.00189511
0.00187237
0.0018494
0.00182618
0.00180273
0.00177906
0.00175519
0.00173115
0.00170696
0.00168264
0.0016582
0.00163365
0.00160902
0.0015843
0.0015595
0.00153464
0.00150972
0.00148475
0.00145973
0.00143467
0.00140959
0.00138447
0.00135933
0.00133417
0.00130899
0.00128381
0.00125862
0.00123342
0.00120822
0.00118302
0.00115783
0.00113264
0.00110746
0.00108228
0.00105711
0.00103195
0.00100681
0.000981669
0.000956542
0.000931427
0.000906323
0.000881229
0.000856146
0.000831073
0.00080601
0.000780956
0.000755912
0.000730875
0.000705846
0.000680824
0.000655808
0.000630798
0.000605792
0.000580791
0.000555794
0.0005308
0.000505809
0.00048082
0.000455833
0.000430849
0.000405866
0.000380886
0.000355908
0.000330934
0.000305963
0.000280997
0.000256038
0.000231086
0.000206145
0.000181215
0.000156298
0.000131398
0.00010651
8.16227e-05
5.66702e-05
3.1205e-05
5.77783e-07
0.00429122
0.00411864
0.00390549
0.00368569
0.00347286
0.00326958
0.00307812
0.00290216
0.00274466
0.00260697
0.00248901
0.00238974
0.00230735
0.00223955
0.00218381
0.00213762
0.0020987
0.0020651
0.00203521
0.00200781
0.001982
0.00195713
0.00193277
0.00190864
0.00188456
0.00186045
0.00183624
0.00181193
0.0017875
0.00176297
0.00173833
0.00171361
0.0016888
0.00166392
0.00163897
0.00161397
0.00158892
0.00156382
0.00153868
0.0015135
0.00148829
0.00146306
0.0014378
0.00141253
0.00138724
0.00136194
0.00133664
0.00131133
0.00128602
0.00126071
0.0012354
0.00121011
0.00118481
0.00115953
0.00113426
0.001109
0.00108375
0.00105852
0.0010333
0.00100809
0.000982902
0.000957723
0.000932559
0.000907409
0.000882272
0.000857148
0.000832037
0.000806938
0.000781849
0.000756772
0.000731704
0.000706646
0.000681595
0.000656553
0.000631517
0.000606488
0.000581464
0.000556444
0.000531429
0.000506418
0.00048141
0.000456405
0.000431403
0.000406403
0.000381406
0.000356413
0.000331423
0.000306438
0.000281458
0.000256484
0.000231519
0.000206564
0.00018162
0.00015669
0.000131772
0.000106858
8.19147e-05
5.68009e-05
3.08132e-05
-6.26248e-07
0.00417019
0.00402398
0.00384295
0.00364998
0.00345791
0.00327182
0.00309487
0.00293048
0.00278144
0.00264926
0.00253421
0.00243564
0.00235223
0.00228215
0.00222334
0.00217369
0.00213121
0.00209417
0.0020611
0.00203086
0.00200253
0.00197549
0.00194925
0.00192351
0.00189805
0.00187274
0.0018475
0.00182228
0.00179705
0.0017718
0.00174652
0.00172121
0.00169588
0.00167053
0.00164515
0.00161975
0.00159433
0.00156889
0.00154344
0.00151798
0.0014925
0.00146703
0.00144154
0.00141606
0.00139058
0.0013651
0.00133963
0.00131416
0.00128871
0.00126326
0.00123783
0.00121241
0.00118701
0.00116163
0.00113626
0.00111091
0.00108558
0.00106026
0.00103497
0.00100969
0.000984431
0.00095919
0.000933966
0.00090876
0.00088357
0.000858396
0.000833237
0.000808093
0.000782962
0.000757844
0.000732738
0.000707643
0.000682558
0.000657483
0.000632416
0.000607356
0.000582303
0.000557257
0.000532215
0.000507179
0.000482147
0.000457119
0.000432095
0.000407074
0.000382057
0.000357043
0.000332035
0.000307031
0.000282033
0.000257042
0.00023206
0.000207088
0.000182128
0.00015718
0.00013224
0.000107294
8.22851e-05
5.70079e-05
3.06359e-05
-8.15696e-07
0.00406453
0.00393761
0.00378194
0.00361243
0.00343977
0.00326999
0.0031069
0.00295375
0.00281319
0.00268682
0.00257518
0.00247797
0.00239426
0.00232264
0.00226144
0.00220893
0.00216339
0.0021233
0.00208734
0.00205444
0.00202374
0.00199459
0.00196652
0.00193918
0.00191233
0.00188581
0.00185951
0.00183335
0.0018073
0.0017813
0.00175536
0.00172946
0.00170358
0.00167773
0.00165189
0.00162607
0.00160027
0.00157447
0.0015487
0.00152293
0.00149718
0.00147144
0.00144572
0.00142001
0.00139432
0.00136865
0.001343
0.00131737
0.00129176
0.00126616
0.0012406
0.00121505
0.00118953
0.00116403
0.00113856
0.00111311
0.00108768
0.00106228
0.0010369
0.00101155
0.000986214
0.000960903
0.000935613
0.000910345
0.000885095
0.000859865
0.000834653
0.000809458
0.000784279
0.000759116
0.000733966
0.000708829
0.000683705
0.000658592
0.000633488
0.000608394
0.000583309
0.000558231
0.000533159
0.000508094
0.000483034
0.000457979
0.000432929
0.000407884
0.000382843
0.000357807
0.000332776
0.000307751
0.000282732
0.000257721
0.00023272
0.000207728
0.000182749
0.00015778
0.000132816
0.000107836
8.27659e-05
5.73713e-05
3.08601e-05
2.27234e-07
0.00397153
0.00385924
0.00372369
0.00357429
0.00341931
0.00326475
0.00311471
0.00297235
0.00284016
0.00271977
0.00261193
0.00251662
0.00243323
0.00236072
0.00229777
0.00224295
0.00219483
0.00215208
0.00211352
0.00207818
0.00204525
0.00201411
0.00198426
0.00195535
0.00192713
0.0018994
0.00187202
0.00184492
0.00181801
0.00179126
0.00176464
0.00173812
0.00171168
0.00168531
0.00165901
0.00163276
0.00160655
0.0015804
0.00155428
0.0015282
0.00150216
0.00147616
0.00145019
0.00142425
0.00139834
0.00137247
0.00134663
0.00132082
0.00129505
0.00126931
0.0012436
0.00121792
0.00119227
0.00116665
0.00114107
0.00111552
0.00108999
0.0010645
0.00103903
0.00101359
0.000988184
0.000962799
0.00093744
0.000912105
0.000886794
0.000861504
0.000836236
0.000810987
0.000785757
0.000760544
0.000735348
0.000710168
0.000685001
0.000659847
0.000634705
0.000609574
0.000584453
0.000559341
0.000534238
0.000509141
0.000484051
0.000458968
0.00043389
0.000408818
0.000383752
0.000358691
0.000333635
0.000308587
0.000283545
0.000258512
0.000233489
0.000208476
0.000183475
0.000158485
0.000133497
0.000108486
8.33744e-05
5.79398e-05
3.15543e-05
2.35292e-06
0.00388905
0.00378825
0.00366878
0.00353642
0.00339725
0.00325671
0.00311886
0.00298676
0.00286273
0.0027484
0.00264465
0.00255167
0.00246913
0.00239629
0.00233215
0.00227554
0.00222529
0.00218025
0.0021394
0.00210185
0.00206686
0.00203382
0.00200228
0.00197185
0.00194227
0.00191333
0.00188489
0.00185683
0.00182907
0.00180155
0.00177423
0.00174708
0.00172006
0.00169317
0.00166639
0.00163969
0.00161308
0.00158655
0.00156009
0.00153369
0.00150735
0.00148107
0.00145484
0.00142867
0.00140254
0.00137646
0.00135043
0.00132444
0.0012985
0.0012726
0.00124674
0.00122093
0.00119515
0.00116942
0.00114372
0.00111806
0.00109243
0.00106684
0.00104129
0.00101577
0.000990278
0.000964818
0.000939388
0.000913985
0.000888609
0.000863259
0.000837932
0.000812628
0.000787346
0.000762083
0.00073684
0.000711613
0.000686403
0.000661208
0.000636026
0.000610858
0.0005857
0.000560553
0.000535416
0.000510287
0.000485167
0.000460054
0.000434947
0.000409847
0.000384754
0.000359667
0.000334587
0.000309514
0.000284449
0.000259392
0.000234346
0.000209312
0.000184289
0.000159276
0.000134266
0.000109232
8.41072e-05
5.87144e-05
3.26592e-05
5.14151e-06
0.00381544
0.00372391
0.00361745
0.00349946
0.00337426
0.00324647
0.00311992
0.00299747
0.00288132
0.00277302
0.00267354
0.00258323
0.00250199
0.00242932
0.00236448
0.00230657
0.00225461
0.00220765
0.00216481
0.00212528
0.0020884
0.00205361
0.00202045
0.00198856
0.00195766
0.00192754
0.00189803
0.00186901
0.00184039
0.0018121
0.00178407
0.00175628
0.00172868
0.00170125
0.00167397
0.00164682
0.0016198
0.00159288
0.00156606
0.00153933
0.00151269
0.00148613
0.00145964
0.00143322
0.00140686
0.00138057
0.00135434
0.00132817
0.00130206
0.001276
0.00124999
0.00122404
0.00119813
0.00117227
0.00114646
0.00112069
0.00109496
0.00106927
0.00104363
0.00101802
0.00099245
0.000966913
0.00094141
0.000915939
0.000890498
0.000865086
0.000839701
0.000814341
0.000789005
0.000763692
0.000738401
0.000713128
0.000687874
0.000662637
0.000637415
0.000612208
0.000587014
0.000561832
0.000536661
0.0005115
0.000486348
0.000461205
0.000436069
0.000410942
0.000385821
0.000360708
0.000335602
0.000310504
0.000285415
0.000260335
0.000235266
0.000210209
0.000185164
0.000160131
0.000135101
0.000110056
8.49429e-05
5.96546e-05
3.40316e-05
8.09548e-06
0.0037494
0.00366553
0.00356973
0.00346387
0.00335088
0.00323458
0.00311839
0.00300497
0.00289633
0.00279396
0.00269884
0.00261145
0.00253187
0.0024598
0.00239472
0.00233593
0.00228267
0.00223414
0.00218959
0.00214833
0.00210975
0.00207334
0.00203867
0.00200539
0.00197322
0.00194194
0.00191138
0.00188142
0.00185193
0.00182286
0.00179412
0.00176567
0.00173748
0.0017095
0.00168172
0.00165412
0.00162666
0.00159935
0.00157217
0.00154511
0.00151815
0.0014913
0.00146454
0.00143787
0.00141128
0.00138477
0.00135834
0.00133198
0.00130569
0.00127947
0.00125331
0.00122721
0.00120117
0.00117518
0.00114925
0.00112337
0.00109754
0.00107176
0.00104602
0.00102032
0.00099467
0.000969056
0.000943479
0.000917939
0.000892432
0.000866957
0.000841513
0.000816097
0.000790708
0.000765344
0.000740003
0.000714685
0.000689386
0.000664107
0.000638845
0.000613599
0.000588368
0.000563151
0.000537946
0.000512752
0.000487569
0.000462396
0.000437232
0.000412076
0.000386928
0.000361788
0.000336657
0.000311534
0.000286421
0.000261317
0.000236225
0.000211145
0.000186079
0.000161025
0.000135981
0.000110932
8.58507e-05
6.06985e-05
3.55078e-05
1.08109e-05
0.00368987
0.00361248
0.00352552
0.00342991
0.00332754
0.0032215
0.00311476
0.0030097
0.00290816
0.00281153
0.0027208
0.00263652
0.00255888
0.00248776
0.00242282
0.00236356
0.00230937
0.0022596
0.00221364
0.00217088
0.00213079
0.00209291
0.00205684
0.00202224
0.00198886
0.00195646
0.00192489
0.00189398
0.00186365
0.00183379
0.00180434
0.00177523
0.00174644
0.00171791
0.00168962
0.00166155
0.00163366
0.00160595
0.00157839
0.00155098
0.00152371
0.00149656
0.00146952
0.0014426
0.00141577
0.00138905
0.00136241
0.00133586
0.00130939
0.001283
0.00125668
0.00123043
0.00120426
0.00117814
0.00115209
0.0011261
0.00110016
0.00107427
0.00104844
0.00102266
0.000996922
0.000971229
0.000945578
0.000919966
0.000894393
0.000868855
0.00084335
0.000817878
0.000792435
0.000767019
0.00074163
0.000716265
0.000690922
0.0006656
0.000640298
0.000615014
0.000589746
0.000564493
0.000539254
0.000514028
0.000488813
0.000463609
0.000438416
0.000413232
0.000388057
0.000362891
0.000337734
0.000312586
0.000287448
0.00026232
0.000237205
0.000212102
0.000187015
0.000161943
0.000136885
0.000111838
8.67979e-05
6.17828e-05
3.69518e-05
1.30599e-05
0.00363604
0.00356418
0.00348466
0.00339774
0.0033046
0.00320765
0.00310945
0.00301208
0.0029172
0.00282609
0.00273969
0.00265861
0.00258313
0.00251326
0.00244881
0.00238941
0.00233462
0.00228393
0.00223682
0.0021928
0.0021514
0.0021122
0.00207485
0.00203904
0.00200451
0.00197105
0.00193848
0.00190666
0.00187549
0.00184485
0.00181469
0.00178493
0.00175553
0.00172645
0.00169764
0.00166909
0.00164076
0.00161264
0.00158471
0.00155695
0.00152935
0.0015019
0.00147459
0.0014474
0.00142033
0.00139338
0.00136653
0.00133978
0.00131313
0.00128657
0.00126009
0.00123369
0.00120738
0.00118113
0.00115496
0.00112885
0.0011028
0.00107682
0.00105089
0.00102502
0.000999193
0.00097342
0.000947694
0.000922011
0.00089637
0.000870768
0.000845203
0.000819673
0.000794175
0.000768708
0.000743269
0.000717857
0.00069247
0.000667106
0.000641763
0.000616439
0.000591134
0.000565846
0.000540572
0.000515314
0.000490068
0.000464834
0.000439611
0.000414399
0.000389196
0.000364004
0.000338821
0.000313647
0.000288485
0.000263333
0.000238193
0.000213068
0.000187959
0.000162869
0.000137799
0.000112756
8.77554e-05
6.28552e-05
3.82756e-05
1.47843e-05
0.00358722
0.00352015
0.00344695
0.00336744
0.00328229
0.00319338
0.00310284
0.0030125
0.00292381
0.00283794
0.00275578
0.00267794
0.00260477
0.00253638
0.00247268
0.00241345
0.00235837
0.00230704
0.00225905
0.00221399
0.00217147
0.00213111
0.00209261
0.00205568
0.00202008
0.00198561
0.00195209
0.0019194
0.0018874
0.001856
0.00182513
0.00179473
0.00176472
0.00173508
0.00170576
0.00167673
0.00164796
0.00161942
0.00159111
0.001563
0.00153507
0.00150731
0.00147971
0.00145225
0.00142494
0.00139775
0.00137069
0.00134374
0.00131691
0.00129017
0.00126353
0.00123698
0.00121052
0.00118414
0.00115784
0.00113162
0.00110546
0.00107937
0.00105335
0.00102738
0.00100148
0.000975623
0.00094982
0.000924065
0.000898356
0.000872689
0.000847063
0.000821475
0.000795922
0.000770403
0.000744914
0.000719455
0.000694023
0.000668616
0.000643232
0.000617869
0.000592527
0.000567202
0.000541895
0.000516603
0.000491325
0.000466061
0.000440809
0.000415568
0.000390338
0.000365119
0.00033991
0.000314711
0.000289523
0.000264346
0.000239183
0.000214034
0.000188904
0.000163794
0.000138713
0.000113671
8.87e-05
6.38792e-05
3.94382e-05
1.6039e-05
0.00354285
0.00347997
0.00341218
0.00333903
0.0032608
0.00317896
0.00309528
0.00301132
0.00292834
0.00284741
0.00276933
0.00269472
0.00262395
0.0025572
0.00249449
0.00243569
0.00238057
0.00232886
0.00228024
0.00223435
0.00219089
0.00214954
0.00211002
0.00207208
0.0020355
0.00200008
0.00196566
0.00193212
0.00189933
0.00186719
0.00183563
0.00180458
0.00177398
0.00174378
0.00171394
0.00168443
0.00165521
0.00162626
0.00159756
0.00156909
0.00154083
0.00151276
0.00148487
0.00145715
0.00142958
0.00140216
0.00137488
0.00134773
0.00132071
0.00129379
0.00126699
0.00124029
0.00121368
0.00118717
0.00116074
0.0011344
0.00110813
0.00108194
0.00105582
0.00102976
0.00100376
0.000977829
0.000951949
0.000926121
0.000900343
0.000874611
0.000848924
0.000823277
0.000797669
0.000772097
0.000746558
0.000721052
0.000695574
0.000670124
0.000644699
0.000619297
0.000593917
0.000568557
0.000543215
0.00051789
0.000492581
0.000467286
0.000442004
0.000416735
0.000391477
0.000366231
0.000340995
0.00031577
0.000290557
0.000265355
0.000240167
0.000214995
0.000189841
0.000164712
0.000139616
0.00011457
8.96141e-05
6.48325e-05
4.04324e-05
1.69269e-05
0.00350247
0.00344328
0.00338016
0.00331248
0.00324025
0.00316462
0.00308705
0.00300885
0.00293112
0.00285479
0.00278061
0.00270916
0.00264083
0.00257584
0.00251429
0.00245612
0.00240121
0.00234935
0.0023003
0.0022538
0.00220958
0.00216739
0.00212698
0.00208814
0.00205065
0.00201436
0.0019791
0.00194476
0.0019112
0.00187835
0.00184612
0.00181444
0.00178325
0.0017525
0.00172215
0.00169216
0.00166249
0.00163313
0.00160404
0.00157521
0.00154661
0.00151823
0.00149005
0.00146206
0.00143424
0.00140659
0.00137909
0.00135173
0.00132452
0.00129742
0.00127045
0.0012436
0.00121685
0.0011902
0.00116364
0.00113718
0.0011108
0.0010845
0.00105828
0.00103213
0.00100605
0.000980031
0.000954073
0.000928172
0.000902325
0.000876528
0.000850778
0.000825073
0.000799409
0.000773784
0.000748196
0.000722642
0.000697119
0.000671625
0.000646159
0.000620718
0.0005953
0.000569904
0.000544528
0.00051917
0.000493829
0.000468503
0.000443192
0.000417894
0.000392609
0.000367335
0.000342073
0.000316822
0.000291582
0.000266355
0.000241142
0.000215944
0.000190767
0.000165615
0.000140501
0.000115444
9.04858e-05
6.57054e-05
4.12714e-05
1.75535e-05
0.00346571
0.00340977
0.0033507
0.00328775
0.00322074
0.00315055
0.0030784
0.00300538
0.00293244
0.00286037
0.00278987
0.00272148
0.00265558
0.00259244
0.00253217
0.00247481
0.00242029
0.00236847
0.0023192
0.00227227
0.00222746
0.00218458
0.00214341
0.00210377
0.00206549
0.00202839
0.00199236
0.00195725
0.00192298
0.00188944
0.00185656
0.00182426
0.00179249
0.0017612
0.00173035
0.00169988
0.00166978
0.00164
0.00161053
0.00158134
0.0015524
0.00152371
0.00149524
0.00146697
0.0014389
0.00141101
0.00138329
0.00135573
0.00132832
0.00130105
0.00127391
0.0012469
0.00122
0.00119321
0.00116653
0.00113995
0.00111346
0.00108705
0.00106073
0.00103449
0.00100832
0.000982219
0.000956183
0.000930209
0.000904292
0.00087843
0.000852618
0.000826854
0.000801135
0.000775458
0.000749819
0.000724217
0.000698649
0.000673113
0.000647605
0.000622125
0.00059667
0.000571238
0.000545828
0.000520437
0.000495064
0.000469708
0.000444367
0.00041904
0.000393727
0.000368426
0.000343137
0.000317859
0.000292594
0.00026734
0.000242101
0.000216877
0.000191674
0.000166498
0.000141361
0.000116284
9.13058e-05
6.64938e-05
4.1975e-05
1.80016e-05
0.00343224
0.00337919
0.00332365
0.0032648
0.00320233
0.00313691
0.00306954
0.00300116
0.00293255
0.00286442
0.00279736
0.00273189
0.00266838
0.00260709
0.0025482
0.00249177
0.00243778
0.00238619
0.00233686
0.00228966
0.00224442
0.00220099
0.0021592
0.00211887
0.00207987
0.00204206
0.00200531
0.0019695
0.00193455
0.00190036
0.00186686
0.00183397
0.00180165
0.00176984
0.00173848
0.00170756
0.00167702
0.00164683
0.00161698
0.00158743
0.00155816
0.00152916
0.0015004
0.00147186
0.00144354
0.00141541
0.00138747
0.0013597
0.0013321
0.00130465
0.00127735
0.00125018
0.00122313
0.00119621
0.0011694
0.0011427
0.00111609
0.00108958
0.00106316
0.00103683
0.00101057
0.000984386
0.000958273
0.000932226
0.00090624
0.000880312
0.000854439
0.000828617
0.000802843
0.000777113
0.000751425
0.000725776
0.000700163
0.000674583
0.000649035
0.000623516
0.000598024
0.000572556
0.000547112
0.000521688
0.000496283
0.000470897
0.000445527
0.000420171
0.00039483
0.000369502
0.000344186
0.000318881
0.000293589
0.000268309
0.000243043
0.000217792
0.000192561
0.000167358
0.000142193
0.000117086
9.2072e-05
6.7203e-05
4.25682e-05
1.8331e-05
0.0034018
0.00335131
0.00329885
0.00324357
0.00318505
0.0031238
0.00306067
0.00299643
0.00293174
0.0028672
0.00280335
0.00274064
0.00267944
0.00262001
0.00256254
0.00250713
0.00245381
0.00240256
0.00235332
0.002306
0.00226047
0.00221662
0.00217431
0.00213341
0.00209379
0.00205533
0.00201793
0.00198148
0.00194589
0.00191109
0.001877
0.00184355
0.00181069
0.00177836
0.00174653
0.00171515
0.00168418
0.0016536
0.00162337
0.00159346
0.00156387
0.00153455
0.0015055
0.0014767
0.00144812
0.00141976
0.0013916
0.00136363
0.00133584
0.00130821
0.00128074
0.00125341
0.00122622
0.00119916
0.00117222
0.0011454
0.00111868
0.00109207
0.00106555
0.00103912
0.00101278
0.000986514
0.000960324
0.000934204
0.00090815
0.000882158
0.000856224
0.000830344
0.000804515
0.000778733
0.000752996
0.0007273
0.000701643
0.000676021
0.000650433
0.000624875
0.000599346
0.000573844
0.000548365
0.000522909
0.000497474
0.000472057
0.000446658
0.000421274
0.000395905
0.00037055
0.000345207
0.000319876
0.000294557
0.00026925
0.000243956
0.000218677
0.000193417
0.000168182
0.000142984
0.000117839
9.27758e-05
6.78317e-05
4.30662e-05
1.85704e-05
0.00336898
0.00332119
0.00327193
0.00322032
0.00316587
0.00310895
0.00305023
0.00299033
0.0029298
0.00286913
0.00280877
0.00274914
0.00269055
0.00263328
0.00257751
0.00252338
0.00247096
0.00242026
0.00237128
0.00232397
0.00227826
0.00223406
0.00219127
0.00214981
0.00210957
0.00207045
0.00203236
0.00199522
0.00195895
0.00192347
0.00188872
0.00185464
0.00182117
0.00178827
0.00175589
0.00172399
0.00169253
0.00166149
0.00163082
0.00160051
0.00157053
0.00154086
0.00151147
0.00148236
0.00145349
0.00142485
0.00139644
0.00136823
0.00134021
0.00131237
0.0012847
0.00125719
0.00122984
0.00120262
0.00117553
0.00114857
0.00112172
0.00109498
0.00106835
0.00104181
0.00101537
0.000989005
0.000962725
0.00093652
0.000910386
0.000884318
0.000858313
0.000832365
0.000806472
0.00078063
0.000754835
0.000729084
0.000703375
0.000677704
0.000652069
0.000626466
0.000600894
0.000575351
0.000549833
0.000524339
0.000498867
0.000473415
0.000447981
0.000422564
0.000397163
0.000371775
0.0003464
0.000321037
0.000295686
0.000270346
0.000245018
0.000219704
0.000194406
0.000169131
0.000143886
0.000118686
9.35509e-05
6.85028e-05
4.35769e-05
1.87827e-05
0.00333514
0.00329005
0.00324393
0.0031959
0.00314542
0.00309272
0.00303833
0.00298276
0.00292642
0.0028697
0.00281299
0.00275661
0.00270087
0.00264601
0.00259221
0.00253964
0.00248837
0.00243849
0.00238999
0.0023429
0.00229717
0.00225275
0.00220961
0.00216766
0.00212685
0.0020871
0.00204834
0.0020105
0.00197352
0.00193733
0.00190189
0.00186712
0.001833
0.00179946
0.00176647
0.00173399
0.00170199
0.00167042
0.00163927
0.0016085
0.00157808
0.001548
0.00151823
0.00148876
0.00145955
0.0014306
0.00140189
0.00137341
0.00134513
0.00131706
0.00128916
0.00126145
0.00123389
0.00120649
0.00117923
0.00115211
0.00112511
0.00109823
0.00107147
0.00104481
0.00101824
0.000991774
0.000965391
0.00093909
0.000912864
0.000886711
0.000860624
0.0008346
0.000808635
0.000782724
0.000756864
0.000731052
0.000705284
0.000679558
0.00065387
0.000628217
0.000602596
0.000577007
0.000551444
0.000525908
0.000500395
0.000474903
0.000449431
0.000423977
0.000398538
0.000373114
0.000347703
0.000322304
0.000296915
0.000271537
0.000246168
0.00022081
0.000195465
0.000170136
0.000144829
0.000119552
9.43171e-05
6.91341e-05
4.4021e-05
1.89519e-05
0.00330451
0.00326182
0.00321847
0.00317356
0.00312652
0.0030775
0.00302692
0.00297516
0.00292256
0.00286941
0.00281603
0.00276268
0.00270964
0.00265711
0.00260528
0.0025543
0.00250429
0.00245533
0.00240747
0.00236074
0.00231514
0.00227068
0.00222731
0.00218502
0.00214376
0.00210348
0.00206414
0.00202568
0.00198806
0.00195122
0.00191512
0.00187972
0.00184496
0.00181081
0.00177723
0.00174419
0.00171164
0.00167956
0.00164792
0.00161669
0.00158584
0.00155535
0.00152519
0.00149535
0.00146581
0.00143654
0.00140753
0.00137877
0.00135023
0.00132191
0.00129379
0.00126586
0.0012381
0.00121051
0.00118308
0.00115579
0.00112864
0.00110162
0.00107472
0.00104793
0.00102125
0.000994667
0.000968179
0.000941778
0.000915459
0.000889217
0.000863047
0.000836944
0.000810904
0.000784922
0.000758995
0.000733119
0.000707291
0.000681506
0.000655763
0.000630058
0.000604387
0.000578749
0.000553141
0.00052756
0.000502004
0.000476471
0.000450958
0.000425464
0.000399987
0.000374524
0.000349074
0.000323635
0.000298206
0.000272785
0.000247371
0.000221964
0.000196564
0.000171171
0.000145787
0.000120418
9.5066e-05
6.97347e-05
4.44352e-05
1.91256e-05
0.00327755
0.00323692
0.0031959
0.0031536
0.00310943
0.00306348
0.00301609
0.00296755
0.00291812
0.00286804
0.00281756
0.00276689
0.00271627
0.00266588
0.0026159
0.00256646
0.0025177
0.00246971
0.00242256
0.0023763
0.00233097
0.00228659
0.00224315
0.00220065
0.00215908
0.0021184
0.00207859
0.00203963
0.00200146
0.00196406
0.00192739
0.00189141
0.00185608
0.00182138
0.00178726
0.00175369
0.00172064
0.00168808
0.00165598
0.00162431
0.00159305
0.00156217
0.00153165
0.00150147
0.0014716
0.00144203
0.00141274
0.00138371
0.00135493
0.00132637
0.00129804
0.0012699
0.00124196
0.00121419
0.00118659
0.00115914
0.00113185
0.00110469
0.00107766
0.00105075
0.00102396
0.000997274
0.000970687
0.000944193
0.000917786
0.000891462
0.000865214
0.000839038
0.000812928
0.000786881
0.000760892
0.000734957
0.000709073
0.000683236
0.000657442
0.000631689
0.000605972
0.000580291
0.00055464
0.000529019
0.000503424
0.000477853
0.000452303
0.000426773
0.000401259
0.000375761
0.000350275
0.000324799
0.000299331
0.000273869
0.00024841
0.000222952
0.000197493
0.000172031
0.000146565
0.000121092
9.56128e-05
7.01279e-05
4.46546e-05
1.91687e-05
0.0032555
0.00321657
0.00317744
0.00313724
0.00309538
0.00305189
0.00300706
0.00296113
0.00291429
0.00286674
0.00281866
0.00277025
0.00272169
0.00267315
0.0026248
0.00257676
0.00252916
0.0024821
0.00243567
0.00238992
0.00234493
0.00230071
0.0022573
0.00221471
0.00217293
0.00213198
0.00209182
0.00205245
0.00201385
0.00197598
0.00193883
0.00190236
0.00186654
0.00183135
0.00179675
0.00176272
0.00172922
0.00169622
0.00166371
0.00163165
0.00160001
0.00156877
0.00153792
0.00150741
0.00147725
0.00144739
0.00141784
0.00138856
0.00135954
0.00133077
0.00130222
0.0012739
0.00124577
0.00121783
0.00119008
0.00116248
0.00113505
0.00110776
0.00108061
0.00105359
0.00102668
0.000999896
0.000973213
0.000946629
0.000920137
0.000893733
0.000867409
0.000841161
0.000814984
0.000788872
0.000762822
0.00073683
0.00071089
0.000685001
0.000659157
0.000633356
0.000607594
0.000581868
0.000556175
0.000530513
0.000504879
0.000479269
0.000453683
0.000428116
0.000402566
0.000377031
0.000351508
0.000325994
0.000300486
0.000274981
0.000249474
0.000223963
0.000198441
0.000172904
0.000147344
0.000121756
9.61343e-05
7.0477e-05
4.48114e-05
1.914e-05
0.00323881
0.00320112
0.00316335
0.00312466
0.00308445
0.00304272
0.00299973
0.00295567
0.00291071
0.00286499
0.00281868
0.00277194
0.00272493
0.0026778
0.00263069
0.00258374
0.00253707
0.00249077
0.00244493
0.00239964
0.00235496
0.00231093
0.0022676
0.00222499
0.00218312
0.00214199
0.00210161
0.00206196
0.00202305
0.00198485
0.00194735
0.00191052
0.00187434
0.00183879
0.00180383
0.00176944
0.0017356
0.00170228
0.00166944
0.00163708
0.00160515
0.00157364
0.00154252
0.00151178
0.00148138
0.00145131
0.00142155
0.00139208
0.00136288
0.00133394
0.00130524
0.00127676
0.0012485
0.00122044
0.00119256
0.00116485
0.00113731
0.00110993
0.00108268
0.00105558
0.00102859
0.00100173
0.000974974
0.000948323
0.000921769
0.000895305
0.000868926
0.000842625
0.000816398
0.00079024
0.000764146
0.000738112
0.000712133
0.000686205
0.000660325
0.00063449
0.000608695
0.000582938
0.000557216
0.000531525
0.000505862
0.000480226