/*--------------------------------*- C++ -*----------------------------------*\
| =========                 |                                                 |
| \\      /  F ield         | OpenFOAM: The Open Source CFD Toolbox           |
|  \\    /   O peration     | Version:  2.3.0                                 |
|   \\  /    A nd           | Web:      www.OpenFOAM.org                      |
|    \\/     M anipulation  |                                                 |
\*---------------------------------------------------------------------------*/
FoamFile
{
    version     2.0;
    format      ascii;
    class       surfaceScalarField;
    location    "0.6";
    object      phi_0;
}
// * * * * * * * * * * * * * * * * * * * * * * * * * * * * * * * * * * * * * //

dimensions      [0 3 -1 0 0 0 0];

internalField   nonuniform List<scalar> 
5764
(
1.93881e-08
4.30169e-09
-2.36898e-08
1.56087e-08
3.77947e-09
1.2511e-08
3.09766e-09
1.00827e-08
2.42837e-09
8.26019e-09
1.82246e-09
6.94123e-09
1.31896e-09
6.00697e-09
9.34267e-10
5.34589e-09
6.61074e-10
4.868e-09
4.77894e-10
4.50855e-09
3.59444e-10
4.22512e-09
2.83435e-10
3.9917e-09
2.33419e-10
3.79296e-09
1.98742e-10
3.61982e-09
1.73135e-10
3.46669e-09
1.53134e-10
3.32982e-09
1.36867e-10
3.20653e-09
1.23294e-10
3.09474e-09
1.11788e-10
2.99281e-09
1.01932e-10
2.89939e-09
9.34186e-11
2.81338e-09
8.60107e-11
2.73386e-09
7.95194e-11
2.66007e-09
7.37929e-11
2.59136e-09
6.87093e-11
2.52719e-09
6.41699e-11
2.46709e-09
6.00947e-11
2.41067e-09
5.64184e-11
2.35759e-09
5.30871e-11
2.30753e-09
5.00565e-11
2.26024e-09
4.72891e-11
2.21549e-09
4.47535e-11
2.17306e-09
4.24232e-11
2.13279e-09
4.02751e-11
2.0945e-09
3.82897e-11
2.05805e-09
3.64499e-11
2.02331e-09
3.47409e-11
1.99016e-09
3.31496e-11
1.95849e-09
3.16646e-11
1.92822e-09
3.02758e-11
1.89924e-09
2.89741e-11
1.87149e-09
2.77515e-11
1.84489e-09
2.66009e-11
1.81938e-09
2.55157e-11
1.79489e-09
2.44901e-11
1.77137e-09
2.35188e-11
1.74877e-09
2.25971e-11
1.72705e-09
2.17206e-11
1.70616e-09
2.08853e-11
1.68608e-09
2.00878e-11
1.66675e-09
1.93246e-11
1.64816e-09
1.85929e-11
1.63027e-09
1.78898e-11
1.61306e-09
1.72131e-11
1.5965e-09
1.65604e-11
1.58057e-09
1.59297e-11
1.56525e-09
1.53194e-11
1.55052e-09
1.47279e-11
1.53636e-09
1.41538e-11
1.52277e-09
1.35962e-11
1.50971e-09
1.30542e-11
1.49719e-09
1.25272e-11
1.48517e-09
1.20149e-11
1.47365e-09
1.15174e-11
1.46262e-09
1.10352e-11
1.45205e-09
1.05691e-11
1.44193e-09
1.01206e-11
1.43224e-09
9.69191e-12
1.42295e-09
9.28639e-12
1.41404e-09
8.9089e-12
1.40548e-09
8.5673e-12
1.3972e-09
8.27411e-12
1.38913e-09
8.07309e-12
1.38112e-09
8.00759e-12
1.37348e-09
7.64396e-12
2.65457e-11
2.57756e-08
5.22564e-09
-2.66995e-08
2.43382e-08
5.21684e-09
2.26923e-08
4.74355e-09
2.1017e-08
4.10362e-09
1.94207e-08
3.41881e-09
1.79628e-08
2.77683e-09
1.66659e-08
2.23119e-09
1.55294e-08
1.79753e-09
1.4541e-08
1.46633e-09
1.3683e-08
1.21746e-09
1.29366e-08
1.02986e-09
1.2284e-08
8.8602e-10
1.17096e-08
7.73135e-10
1.12003e-08
6.82437e-10
1.07453e-08
6.08079e-10
1.03361e-08
5.46128e-10
9.96551e-09
4.93854e-10
9.62801e-09
4.49284e-10
9.319e-09
4.10942e-10
9.03473e-09
3.77691e-10
8.7721e-09
3.48637e-10
8.52855e-09
3.23074e-10
8.3019e-09
3.00435e-10
8.09035e-09
2.80266e-10
7.89232e-09
2.62198e-10
7.70648e-09
2.45931e-10
7.53168e-09
2.31218e-10
7.36692e-09
2.17854e-10
7.21131e-09
2.05669e-10
7.06408e-09
1.94519e-10
6.92455e-09
1.84284e-10
6.79211e-09
1.74859e-10
6.66623e-09
1.66156e-10
6.54642e-09
1.58099e-10
6.43225e-09
1.5062e-10
6.32333e-09
1.43661e-10
6.21931e-09
1.37172e-10
6.11986e-09
1.31106e-10
6.02471e-09
1.25426e-10
5.9336e-09
1.20093e-10
5.84627e-09
1.15078e-10
5.76252e-09
1.10351e-10
5.68215e-09
1.05887e-10
5.60498e-09
1.01662e-10
5.53084e-09
9.76557e-11
5.45959e-09
9.38485e-11
5.39108e-09
9.0223e-11
5.32521e-09
8.67634e-11
5.26184e-09
8.34549e-11
5.20088e-09
8.02844e-11
5.14223e-09
7.72397e-11
5.08581e-09
7.43094e-11
5.03154e-09
7.14836e-11
4.97935e-09
6.87529e-11
4.92917e-09
6.6109e-11
4.88095e-09
6.35443e-11
4.83462e-09
6.10522e-11
4.79015e-09
5.86269e-11
4.74748e-09
5.62635e-11
4.70658e-09
5.39579e-11
4.6674e-09
5.17072e-11
4.6299e-09
4.95094e-11
4.59406e-09
4.73639e-11
4.55982e-09
4.52714e-11
4.52716e-09
4.32345e-11
4.49602e-09
4.12576e-11
4.46636e-09
3.93482e-11
4.43813e-09
3.75172e-11
4.41126e-09
3.57815e-11
4.38566e-09
3.41681e-11
4.36121e-09
3.27216e-11
4.33768e-09
3.16038e-11
4.31498e-09
3.07092e-11
4.28976e-09
3.2866e-11
7.09099e-11
2.80592e-08
5.20929e-09
-2.80429e-08
2.77538e-08
5.52225e-09
2.71768e-08
5.32058e-09
2.64093e-08
4.87115e-09
2.55262e-08
4.30183e-09
2.45918e-08
3.71125e-09
2.36524e-08
3.1706e-09
2.27372e-08
2.7128e-09
2.18623e-08
2.34119e-09
2.10356e-08
2.04416e-09
2.02596e-08
1.80581e-09
1.9534e-08
1.61163e-09
1.88568e-08
1.45038e-09
1.82252e-08
1.31405e-09
1.76361e-08
1.19711e-09
1.70866e-08
1.0957e-09
1.65734e-08
1.00705e-09
1.60936e-08
9.2904e-10
1.56445e-08
8.60033e-10
1.52235e-08
7.98692e-10
1.48282e-08
7.43919e-10
1.44565e-08
6.94799e-10
1.41064e-08
6.50569e-10
1.37761e-08
6.10586e-10
1.3464e-08
5.74307e-10
1.31686e-08
5.41273e-10
1.28887e-08
5.11095e-10
1.26231e-08
4.83439e-10
1.23708e-08
4.58019e-10
1.21307e-08
4.34591e-10
1.19021e-08
4.12941e-10
1.1684e-08
3.92885e-10
1.14759e-08
3.74263e-10
1.12771e-08
3.56933e-10
1.10869e-08
3.4077e-10
1.09049e-08
3.25666e-10
1.07306e-08
3.11522e-10
1.05634e-08
2.98251e-10
1.04031e-08
2.85777e-10
1.02492e-08
2.74028e-10
1.01013e-08
2.62942e-10
9.95919e-09
2.52461e-10
9.82254e-09
2.42535e-10
9.69109e-09
2.33115e-10
9.56459e-09
2.24159e-10
9.44281e-09
2.15626e-10
9.32555e-09
2.07482e-10
9.21262e-09
1.99692e-10
9.10385e-09
1.92225e-10
8.99908e-09
1.85055e-10
8.89817e-09
1.78154e-10
8.80098e-09
1.71498e-10
8.7074e-09
1.65066e-10
8.61731e-09
1.58836e-10
8.53063e-09
1.52792e-10
8.44726e-09
1.46915e-10
8.36712e-09
1.41192e-10
8.29014e-09
1.35608e-10
8.21625e-09
1.30152e-10
8.14539e-09
1.24815e-10
8.07751e-09
1.19589e-10
8.01255e-09
1.14469e-10
7.95046e-09
1.09453e-10
7.89119e-09
1.04541e-10
7.83469e-09
9.9737e-11
7.7809e-09
9.50492e-11
7.72975e-09
9.04919e-11
7.68118e-09
8.60869e-11
7.6351e-09
8.18678e-11
7.59138e-09
7.7889e-11
7.54985e-09
7.42459e-11
7.51022e-09
7.12332e-11
7.47207e-09
6.88656e-11
7.43059e-09
7.43472e-11
1.23013e-10
2.93304e-08
4.94908e-09
-2.90702e-08
2.94557e-08
5.39694e-09
2.94044e-08
5.37198e-09
2.91861e-08
5.08936e-09
2.88271e-08
4.66087e-09
2.83638e-08
4.17457e-09
2.78325e-08
3.70191e-09
2.72622e-08
3.28305e-09
2.66736e-08
2.92981e-09
2.60802e-08
2.6376e-09
2.54904e-08
2.39558e-09
2.49096e-08
2.19246e-09
2.4341e-08
2.01895e-09
2.37869e-08
1.86818e-09
2.32486e-08
1.73536e-09
2.27272e-08
1.61712e-09
2.22232e-08
1.51105e-09
2.17369e-08
1.41534e-09
2.12683e-08
1.3286e-09
2.08174e-08
1.24967e-09
2.03837e-08
1.1776e-09
1.99669e-08
1.11161e-09
1.95664e-08
1.051e-09
1.91818e-08
9.95189e-10
1.88125e-08
9.43676e-10
1.84577e-08
8.9602e-10
1.8117e-08
8.51836e-10
1.77896e-08
8.1079e-10
1.74751e-08
7.72584e-10
1.71727e-08
7.36958e-10
1.6882e-08
7.03678e-10
1.66023e-08
6.72537e-10
1.63332e-08
6.43352e-10
1.60742e-08
6.15954e-10
1.58248e-08
5.90195e-10
1.55845e-08
5.65939e-10
1.5353e-08
5.43065e-10
1.51297e-08
5.21461e-10
1.49145e-08
5.01026e-10
1.47069e-08
4.81667e-10
1.45065e-08
4.63299e-10
1.43131e-08
4.45844e-10
1.41264e-08
4.29229e-10
1.39462e-08
4.13389e-10
1.3772e-08
3.98262e-10
1.36039e-08
3.8379e-10
1.34414e-08
3.69921e-10
1.32845e-08
3.56604e-10
1.3133e-08
3.43794e-10
1.29866e-08
3.31448e-10
1.28452e-08
3.19525e-10
1.27087e-08
3.07989e-10
1.2577e-08
2.96804e-10
1.24499e-08
2.85939e-10
1.23273e-08
2.75363e-10
1.22092e-08
2.65051e-10
1.20954e-08
2.54976e-10
1.19859e-08
2.45118e-10
1.18806e-08
2.35457e-10
1.17794e-08
2.25977e-10
1.16823e-08
2.16664e-10
1.15893e-08
2.07511e-10
1.15002e-08
1.9851e-10
1.14151e-08
1.89663e-10
1.13339e-08
1.80976e-10
1.12565e-08
1.72459e-10
1.11828e-08
1.64137e-10
1.11129e-08
1.56044e-10
1.10465e-08
1.48232e-10
1.09836e-08
1.40792e-10
1.09239e-08
1.33883e-10
1.08673e-08
1.27928e-10
1.08126e-08
1.23474e-10
1.07563e-08
1.30724e-10
1.81917e-10
3.03424e-08
4.653e-09
-3.00463e-08
3.05995e-08
5.13985e-09
3.07592e-08
5.21224e-09
3.08067e-08
5.04189e-09
3.07419e-08
4.72568e-09
3.05789e-08
4.3375e-09
3.03396e-08
3.94125e-09
3.0045e-08
3.57759e-09
2.97123e-08
3.26254e-09
2.93537e-08
2.99626e-09
2.89774e-08
2.7718e-09
2.85893e-08
2.5806e-09
2.81932e-08
2.41505e-09
2.77921e-08
2.26931e-09
2.73883e-08
2.13916e-09
2.69838e-08
2.02162e-09
2.65802e-08
1.91457e-09
2.61791e-08
1.81644e-09
2.57817e-08
1.72604e-09
2.5389e-08
1.6424e-09
2.50018e-08
1.56476e-09
2.4621e-08
1.49246e-09
2.4247e-08
1.42498e-09
2.38803e-08
1.36184e-09
2.35214e-08
1.30264e-09
2.31703e-08
1.24704e-09
2.28274e-08
1.19473e-09
2.24928e-08
1.14545e-09
2.21664e-08
1.09896e-09
2.18483e-08
1.05505e-09
2.15385e-08
1.01352e-09
2.12368e-08
9.74197e-10
2.09432e-08
9.36931e-10
2.06576e-08
9.01575e-10
2.03798e-08
8.67994e-10
2.01097e-08
8.36068e-10
1.98471e-08
8.05683e-10
1.95918e-08
7.76733e-10
1.93437e-08
7.49122e-10
1.91026e-08
7.22757e-10
1.88683e-08
6.97553e-10
1.86408e-08
6.73429e-10
1.84197e-08
6.5031e-10
1.82049e-08
6.28123e-10
1.79964e-08
6.06802e-10
1.77939e-08
5.86283e-10
1.75973e-08
5.66504e-10
1.74065e-08
5.4741e-10
1.72214e-08
5.28945e-10
1.70418e-08
5.11058e-10
1.68676e-08
4.937e-10
1.66988e-08
4.76826e-10
1.65352e-08
4.60392e-10
1.63767e-08
4.44357e-10
1.62234e-08
4.28683e-10
1.60751e-08
4.13335e-10
1.59318e-08
3.98281e-10
1.57935e-08
3.83492e-10
1.566e-08
3.68942e-10
1.55313e-08
3.54609e-10
1.54075e-08
3.40475e-10
1.52885e-08
3.26529e-10
1.51743e-08
3.12763e-10
1.50648e-08
2.99178e-10
1.49599e-08
2.85781e-10
1.48598e-08
2.7259e-10
1.47643e-08
2.59638e-10
1.46734e-08
2.46975e-10
1.45869e-08
2.34677e-10
1.45049e-08
2.22871e-10
1.4427e-08
2.11789e-10
1.43529e-08
2.01994e-10
1.42817e-08
1.94708e-10
1.4211e-08
2.01379e-10
2.47779e-10
3.13052e-08
4.37712e-09
-3.10293e-08
3.15845e-08
4.86059e-09
3.18105e-08
4.98616e-09
3.19643e-08
4.88812e-09
3.20378e-08
4.6522e-09
3.20342e-08
4.34107e-09
3.19654e-08
4.01002e-09
3.18458e-08
3.69726e-09
3.16878e-08
3.42056e-09
3.15009e-08
3.1831e-09
3.12919e-08
2.98082e-09
3.10652e-08
2.80731e-09
3.08239e-08
2.65637e-09
3.05702e-08
2.52297e-09
3.0306e-08
2.40333e-09
3.00329e-08
2.29472e-09
2.97523e-08
2.19517e-09
2.94655e-08
2.10323e-09
2.91738e-08
2.0178e-09
2.88782e-08
1.93802e-09
2.85797e-08
1.86319e-09
2.82794e-08
1.79277e-09
2.79781e-08
1.72629e-09
2.76766e-08
1.66338e-09
2.73755e-08
1.60369e-09
2.70756e-08
1.54697e-09
2.67773e-08
1.49297e-09
2.64813e-08
1.44149e-09
2.61879e-08
1.39236e-09
2.58975e-08
1.34541e-09
2.56106e-08
1.3005e-09
2.53272e-08
1.25751e-09
2.50478e-08
1.21633e-09
2.47726e-08
1.17683e-09
2.45016e-08
1.13893e-09
2.42352e-08
1.10254e-09
2.39733e-08
1.06756e-09
2.37161e-08
1.03392e-09
2.34637e-08
1.00154e-09
2.32161e-08
9.70353e-10
2.29734e-08
9.40278e-10
2.27355e-08
9.11252e-10
2.25026e-08
8.8321e-10
2.22747e-08
8.56089e-10
2.20517e-08
8.2983e-10
2.18336e-08
8.04373e-10
2.16204e-08
7.79661e-10
2.14122e-08
7.5564e-10
2.12089e-08
7.32257e-10
2.10105e-08
7.09459e-10
2.0817e-08
6.87199e-10
2.06284e-08
6.65428e-10
2.04447e-08
6.441e-10
2.02658e-08
6.23173e-10
2.00919e-08
6.02604e-10
1.99229e-08
5.82355e-10
1.97588e-08
5.6239e-10
1.95996e-08
5.42678e-10
1.94454e-08
5.23189e-10
1.92961e-08
5.03898e-10
1.91518e-08
4.84787e-10
1.90124e-08
4.65841e-10
1.88781e-08
4.47056e-10
1.87489e-08
4.28432e-10
1.86247e-08
4.09983e-10
1.85055e-08
3.91735e-10
1.83915e-08
3.7373e-10
1.82824e-08
3.56037e-10
1.81783e-08
3.38758e-10
1.80791e-08
3.22061e-10
1.79847e-08
3.06252e-10
1.78946e-08
2.92032e-10
1.78081e-08
2.81194e-10
1.77246e-08
2.84928e-10
3.20388e-10
3.2277e-08
4.132e-09
-3.20319e-08
3.25437e-08
4.59389e-09
3.27797e-08
4.75017e-09
3.29662e-08
4.70169e-09
3.30943e-08
4.52405e-09
3.31636e-08
4.27178e-09
3.3181e-08
3.99261e-09
3.31567e-08
3.72162e-09
3.31001e-08
3.47713e-09
3.30188e-08
3.26443e-09
3.29179e-08
3.08168e-09
3.28009e-08
2.92428e-09
3.26701e-08
2.78724e-09
3.25268e-08
2.66625e-09
3.23722e-08
2.55791e-09
3.22072e-08
2.45969e-09
3.20327e-08
2.36971e-09
3.18494e-08
2.28655e-09
3.16581e-08
2.20914e-09
3.14594e-08
2.13664e-09
3.12542e-08
2.06838e-09
3.10432e-08
2.00383e-09
3.08269e-08
1.94255e-09
3.06061e-08
1.88418e-09
3.03814e-08
1.82843e-09
3.01533e-08
1.77504e-09
2.99225e-08
1.72381e-09
2.96894e-08
1.67456e-09
2.94546e-08
1.62715e-09
2.92186e-08
1.58145e-09
2.89817e-08
1.53734e-09
2.87445e-08
1.49474e-09
2.85073e-08
1.45355e-09
2.82704e-08
1.41369e-09
2.80343e-08
1.3751e-09
2.77991e-08
1.3377e-09
2.75652e-08
1.30144e-09
2.73329e-08
1.26626e-09
2.71023e-08
1.23209e-09
2.68738e-08
1.19889e-09
2.66475e-08
1.16661e-09
2.64235e-08
1.13519e-09
2.62022e-08
1.10458e-09
2.59835e-08
1.07474e-09
2.57677e-08
1.04561e-09
2.5555e-08
1.01715e-09
2.53453e-08
9.89303e-10
2.51389e-08
9.62034e-10
2.49359e-08
9.3529e-10
2.47363e-08
9.09026e-10
2.45403e-08
8.83197e-10
2.4348e-08
8.57758e-10
2.41594e-08
8.32668e-10
2.39747e-08
8.07883e-10
2.3794e-08
7.83364e-10
2.36172e-08
7.59074e-10
2.34447e-08
7.34977e-10
2.32763e-08
7.11041e-10
2.31122e-08
6.87237e-10
2.29526e-08
6.63541e-10
2.27974e-08
6.39937e-10
2.26469e-08
6.16411e-10
2.2501e-08
5.92961e-10
2.23598e-08
5.69594e-10
2.22235e-08
5.46329e-10
2.2092e-08
5.23203e-10
2.19655e-08
5.00272e-10
2.18439e-08
4.77623e-10
2.17272e-08
4.55388e-10
2.16155e-08
4.33774e-10
2.15086e-08
4.13158e-10
2.14063e-08
3.94357e-10
2.1308e-08
3.79491e-10
2.12146e-08
3.78365e-10
3.98448e-10
3.3273e-08
3.91616e-09
-3.30571e-08
3.35182e-08
4.34867e-09
3.37452e-08
4.52314e-09
3.39353e-08
4.51156e-09
3.40804e-08
4.37899e-09
3.41787e-08
4.17345e-09
3.4235e-08
3.93636e-09
3.4257e-08
3.69959e-09
3.42527e-08
3.48144e-09
3.42284e-08
3.28874e-09
3.41886e-08
3.1215e-09
3.41361e-08
2.9767e-09
3.40729e-08
2.85046e-09
3.4e-08
2.7392e-09
3.3918e-08
2.63991e-09
3.38274e-08
2.55027e-09
3.37286e-08
2.46849e-09
3.3622e-08
2.3932e-09
3.35078e-08
2.32333e-09
3.33864e-08
2.25803e-09
3.32581e-08
2.19665e-09
3.31233e-08
2.13863e-09
3.29824e-08
2.08352e-09
3.28356e-08
2.03096e-09
3.26833e-08
1.98065e-09
3.2526e-08
1.93234e-09
3.2364e-08
1.88581e-09
3.21977e-08
1.8409e-09
3.20274e-08
1.79746e-09
3.18535e-08
1.75537e-09
3.16763e-08
1.71452e-09
3.14962e-08
1.67481e-09
3.13136e-08
1.63619e-09
3.11287e-08
1.59856e-09
3.09419e-08
1.56188e-09
3.07535e-08
1.52608e-09
3.05639e-08
1.49112e-09
3.03732e-08
1.45695e-09
3.01817e-08
1.42353e-09
2.99898e-08
1.3908e-09
2.97977e-08
1.35874e-09
2.96056e-08
1.32729e-09
2.94138e-08
1.29642e-09
2.92224e-08
1.26609e-09
2.90318e-08
1.23626e-09
2.8842e-08
1.20689e-09
2.86534e-08
1.17793e-09
2.84661e-08
1.14936e-09
2.82802e-08
1.12112e-09
2.80961e-08
1.09317e-09
2.79138e-08
1.06549e-09
2.77335e-08
1.03802e-09
2.75555e-08
1.01072e-09
2.73798e-08
9.83567e-10
2.72067e-08
9.56511e-10
2.70362e-08
9.2952e-10
2.68686e-08
9.02561e-10
2.67041e-08
8.75603e-10
2.65427e-08
8.48619e-10
2.63846e-08
8.21588e-10
2.62301e-08
7.94494e-10
2.60792e-08
7.6733e-10
2.5932e-08
7.40097e-10
2.57888e-08
7.12807e-10
2.56496e-08
6.8549e-10
2.55147e-08
6.58192e-10
2.53839e-08
6.30985e-10
2.52576e-08
6.03975e-10
2.51357e-08
5.77321e-10
2.50182e-08
5.51272e-10
2.49051e-08
5.26261e-10
2.47962e-08
5.0318e-10
2.46915e-08
4.84193e-10
2.45929e-08
4.77003e-10
4.79491e-10
3.42967e-08
3.72563e-09
-3.41062e-08
3.45195e-08
4.12586e-09
3.47323e-08
4.31035e-09
3.49162e-08
4.32763e-09
3.50633e-08
4.23187e-09
3.51715e-08
4.06528e-09
3.5244e-08
3.8639e-09
3.52871e-08
3.65646e-09
3.53077e-08
3.4608e-09
3.53116e-08
3.28486e-09
3.5303e-08
3.13018e-09
3.52845e-08
2.99512e-09
3.52581e-08
2.87691e-09
3.52247e-08
2.77263e-09
3.51848e-08
2.67975e-09
3.51389e-08
2.59617e-09
3.50871e-08
2.52026e-09
3.50296e-08
2.4507e-09
3.49665e-08
2.38647e-09
3.48978e-08
2.32673e-09
3.48237e-08
2.27081e-09
3.47441e-08
2.21815e-09
3.46593e-08
2.16831e-09
3.45694e-08
2.1209e-09
3.44745e-08
2.0756e-09
3.43746e-08
2.03216e-09
3.42701e-08
1.99035e-09
3.4161e-08
1.94999e-09
3.40475e-08
1.91092e-09
3.39299e-08
1.87301e-09
3.38083e-08
1.83615e-09
3.36828e-08
1.80023e-09
3.35539e-08
1.76518e-09
3.34215e-08
1.73091e-09
3.3286e-08
1.69738e-09
3.31476e-08
1.66451e-09
3.30064e-08
1.63227e-09
3.28628e-08
1.60059e-09
3.27169e-08
1.56943e-09
3.25689e-08
1.53876e-09
3.24191e-08
1.50853e-09
3.22677e-08
1.4787e-09
3.21149e-08
1.44924e-09
3.19609e-08
1.4201e-09
3.18059e-08
1.39125e-09
3.16502e-08
1.36265e-09
3.14938e-08
1.33426e-09
3.13371e-08
1.30604e-09
3.11803e-08
1.27795e-09
3.10235e-08
1.24996e-09
3.0867e-08
1.22203e-09
3.07109e-08
1.19411e-09
3.05554e-08
1.16616e-09
3.04009e-08
1.13816e-09
3.02473e-08
1.11005e-09
3.0095e-08
1.08182e-09
2.99442e-08
1.05341e-09
2.9795e-08
1.02481e-09
2.96476e-08
9.95994e-10
2.95022e-08
9.66932e-10
2.93591e-08
9.37615e-10
2.92184e-08
9.08038e-10
2.90803e-08
8.78206e-10
2.8945e-08
8.48138e-10
2.88126e-08
8.1787e-10
2.86833e-08
7.8746e-10
2.85573e-08
7.56994e-10
2.84347e-08
7.26596e-10
2.83156e-08
6.96452e-10
2.82e-08
6.66843e-10
2.8088e-08
6.38243e-10
2.79796e-08
6.11562e-10
2.7875e-08
5.88768e-10
2.77769e-08
5.75143e-10
5.60241e-10
3.53493e-08
3.55644e-09
-3.51802e-08
3.55511e-08
3.92414e-09
3.57487e-08
4.11274e-09
3.59235e-08
4.15281e-09
3.60674e-08
4.08797e-09
3.61778e-08
3.95487e-09
3.62568e-08
3.78489e-09
3.63096e-08
3.60368e-09
3.63421e-08
3.42829e-09
3.63596e-08
3.26738e-09
3.6366e-08
3.12371e-09
3.63643e-08
2.99685e-09
3.63562e-08
2.88498e-09
3.6343e-08
2.78591e-09
3.63252e-08
2.69754e-09
3.63033e-08
2.61808e-09
3.62775e-08
2.54605e-09
3.62479e-08
2.48026e-09
3.62146e-08
2.41974e-09
3.61777e-08
2.3637e-09
3.6137e-08
2.31147e-09
3.60926e-08
2.26252e-09
3.60445e-08
2.2164e-09
3.59927e-08
2.17271e-09
3.59372e-08
2.13115e-09
3.58779e-08
2.09144e-09
3.58149e-08
2.05335e-09
3.57482e-08
2.01668e-09
3.56779e-08
1.98127e-09
3.56039e-08
1.94697e-09
3.55264e-08
1.91367e-09
3.54454e-08
1.88124e-09
3.5361e-08
1.84961e-09
3.52732e-08
1.81868e-09
3.51822e-08
1.78838e-09
3.50881e-08
1.75864e-09
3.49909e-08
1.72942e-09
3.48909e-08
1.70065e-09
3.4788e-08
1.67227e-09
3.46825e-08
1.64425e-09
3.45745e-08
1.61653e-09
3.44642e-08
1.58908e-09
3.43516e-08
1.56184e-09
3.42369e-08
1.53478e-09
3.41203e-08
1.50785e-09
3.40019e-08
1.48101e-09
3.3882e-08
1.45422e-09
3.37606e-08
1.42743e-09
3.36379e-08
1.40061e-09
3.35142e-08
1.37371e-09
3.33895e-08
1.34669e-09
3.32641e-08
1.31951e-09
3.31381e-08
1.29212e-09
3.30118e-08
1.26448e-09
3.28853e-08
1.23656e-09
3.27588e-08
1.20831e-09
3.26325e-08
1.17971e-09
3.25066e-08
1.15071e-09
3.23813e-08
1.1213e-09
3.22568e-08
1.09145e-09
3.21333e-08
1.06114e-09
3.20109e-08
1.03038e-09
3.189e-08
9.99163e-10
3.17706e-08
9.67522e-10
3.1653e-08
9.35497e-10
3.15373e-08
9.03152e-10
3.14237e-08
8.70584e-10
3.13123e-08
8.37936e-10
3.12034e-08
8.05412e-10
3.10969e-08
7.73319e-10
3.0993e-08
7.42151e-10
3.08918e-08
7.12783e-10
3.07937e-08
6.86816e-10
3.07017e-08
6.67168e-10
6.37251e-10
3.64315e-08
3.40519e-09
-3.62803e-08
3.66141e-08
3.74159e-09
3.67969e-08
3.92994e-09
3.69619e-08
3.98778e-09
3.71008e-08
3.94908e-09
3.72105e-08
3.84514e-09
3.72922e-08
3.70322e-09
3.73498e-08
3.54603e-09
3.73885e-08
3.38959e-09
3.7413e-08
3.24288e-09
3.74271e-08
3.10961e-09
3.74336e-08
2.99034e-09
3.74345e-08
2.88412e-09
3.7431e-08
2.78941e-09
3.7424e-08
2.70457e-09
3.74139e-08
2.62811e-09
3.74012e-08
2.55876e-09
3.7386e-08
2.49545e-09
3.73685e-08
2.43728e-09
3.73487e-08
2.38353e-09
3.73265e-08
2.33359e-09
3.73021e-08
2.28692e-09
3.72754e-08
2.24311e-09
3.72464e-08
2.20177e-09
3.72149e-08
2.1626e-09
3.7181e-08
2.12532e-09
3.71447e-08
2.08971e-09
3.71058e-08
2.05556e-09
3.70644e-08
2.0227e-09
3.70204e-08
1.99099e-09
3.69737e-08
1.9603e-09
3.69245e-08
1.93051e-09
3.68725e-08
1.90151e-09
3.6818e-08
1.87323e-09
3.67608e-08
1.84557e-09
3.6701e-08
1.81847e-09
3.66385e-08
1.79185e-09
3.65735e-08
1.76565e-09
3.6506e-08
1.73981e-09
3.6436e-08
1.71429e-09
3.63635e-08
1.68901e-09
3.62886e-08
1.66394e-09
3.62115e-08
1.63901e-09
3.6132e-08
1.61418e-09
3.60505e-08
1.58941e-09
3.59669e-08
1.56464e-09
3.58813e-08
1.53981e-09
3.57938e-08
1.5149e-09
3.57046e-08
1.48983e-09
3.56137e-08
1.46457e-09
3.55213e-08
1.43907e-09
3.54276e-08
1.41328e-09
3.53325e-08
1.38714e-09
3.52364e-08
1.36062e-09
3.51393e-08
1.33367e-09
3.50414e-08
1.30624e-09
3.49428e-08
1.2783e-09
3.48437e-08
1.2498e-09
3.47443e-08
1.22072e-09
3.46447e-08
1.19103e-09
3.45451e-08
1.16072e-09
3.44457e-08
1.12978e-09
3.43466e-08
1.09821e-09
3.42481e-08
1.06604e-09
3.41503e-08
1.03332e-09
3.40533e-08
1.00011e-09
3.39574e-08
9.66524e-10
3.38626e-08
9.3271e-10
3.37691e-08
8.9889e-10
3.36771e-08
8.65385e-10
3.35865e-08
8.32691e-10
3.34977e-08
8.016e-10
3.34113e-08
7.73277e-10
3.33298e-08
7.48611e-10
7.07554e-10
3.75438e-08
3.26907e-09
-3.74077e-08
3.77092e-08
3.57622e-09
3.78779e-08
3.76119e-09
3.80332e-08
3.83253e-09
3.81664e-08
3.81582e-09
3.82742e-08
3.73734e-09
3.83569e-08
3.62058e-09
3.84173e-08
3.48555e-09
3.84599e-08
3.34704e-09
3.84887e-08
3.21409e-09
3.85073e-08
3.09103e-09
3.85183e-08
2.97927e-09
3.85239e-08
2.87858e-09
3.85253e-08
2.78801e-09
3.85235e-08
2.70637e-09
3.85191e-08
2.63246e-09
3.85127e-08
2.56522e-09
3.85044e-08
2.50372e-09
3.84945e-08
2.44716e-09
3.84832e-08
2.3949e-09
3.84704e-08
2.34635e-09
3.84563e-08
2.30104e-09
3.84408e-08
2.25857e-09
3.8424e-08
2.21859e-09
3.84058e-08
2.18078e-09
3.83862e-08
2.14491e-09
3.83652e-08
2.11074e-09
3.83427e-08
2.07808e-09
3.83186e-08
2.04676e-09
3.8293e-08
2.01664e-09
3.82657e-08
1.98758e-09
3.82367e-08
1.95947e-09
3.8206e-08
1.9322e-09
3.81736e-08
1.90569e-09
3.81393e-08
1.87984e-09
3.81032e-08
1.85459e-09
3.80652e-08
1.82984e-09
3.80253e-08
1.80554e-09
3.79835e-08
1.78162e-09
3.79398e-08
1.75803e-09
3.78941e-08
1.73468e-09
3.78465e-08
1.71154e-09
3.77969e-08
1.68855e-09
3.77455e-08
1.66564e-09
3.76921e-08
1.64275e-09
3.76369e-08
1.61985e-09
3.75799e-08
1.59686e-09
3.7521e-08
1.57373e-09
3.74605e-08
1.55041e-09
3.73982e-08
1.52683e-09
3.73343e-08
1.50295e-09
3.72689e-08
1.47871e-09
3.7202e-08
1.45405e-09
3.71337e-08
1.42892e-09
3.70641e-08
1.40327e-09
3.69933e-08
1.37704e-09
3.69214e-08
1.35019e-09
3.68485e-08
1.32268e-09
3.67748e-08
1.29447e-09
3.67003e-08
1.26552e-09
3.66252e-08
1.23583e-09
3.65496e-08
1.20538e-09
3.64736e-08
1.17417e-09
3.63974e-08
1.14222e-09
3.63212e-08
1.10959e-09
3.62449e-08
1.07634e-09
3.61689e-08
1.04259e-09
3.60931e-08
1.00849e-09
3.60177e-08
9.74274e-10
3.59428e-08
9.40268e-10
3.58686e-08
9.06951e-10
3.57952e-08
8.75008e-10
3.57233e-08
8.45174e-10
3.5655e-08
8.16826e-10
7.69124e-10
3.86869e-08
3.14581e-09
-3.85637e-08
3.8837e-08
3.42615e-09
3.89926e-08
3.60562e-09
3.91383e-08
3.68684e-09
3.92656e-08
3.68847e-09
3.93709e-08
3.6321e-09
3.94536e-08
3.53786e-09
3.95159e-08
3.42325e-09
3.95612e-08
3.30174e-09
3.95931e-08
3.18216e-09
3.96149e-08
3.06928e-09
3.9629e-08
2.96512e-09
3.96375e-08
2.87009e-09
3.96418e-08
2.78376e-09
3.96428e-08
2.70532e-09
3.96414e-08
2.63389e-09
3.9638e-08
2.5686e-09
3.9633e-08
2.50868e-09
3.96268e-08
2.45343e-09
3.96194e-08
2.40227e-09
3.9611e-08
2.35469e-09
3.96018e-08
2.31026e-09
3.95918e-08
2.26859e-09
3.9581e-08
2.22937e-09
3.95695e-08
2.19231e-09
3.95572e-08
2.15718e-09
3.95442e-08
2.12376e-09
3.95304e-08
2.09188e-09
3.95158e-08
2.06136e-09
3.95003e-08
2.03208e-09
3.9484e-08
2.00389e-09
3.94668e-08
1.9767e-09
3.94486e-08
1.9504e-09
3.94294e-08
1.92489e-09
3.94091e-08
1.9001e-09
3.93878e-08
1.87594e-09
3.93653e-08
1.85234e-09
3.93416e-08
1.82922e-09
3.93167e-08
1.80653e-09
3.92905e-08
1.78419e-09
3.92631e-08
1.76215e-09
3.92343e-08
1.74034e-09
3.92041e-08
1.7187e-09
3.91726e-08
1.69716e-09
3.91397e-08
1.67568e-09
3.91053e-08
1.65418e-09
3.90696e-08
1.63261e-09
3.90324e-08
1.6109e-09
3.89938e-08
1.58899e-09
3.89539e-08
1.56682e-09
3.89125e-08
1.54433e-09
3.88697e-08
1.52146e-09
3.88256e-08
1.49814e-09
3.87802e-08
1.47432e-09
3.87336e-08
1.44993e-09
3.86857e-08
1.42492e-09
3.86366e-08
1.39924e-09
3.85865e-08
1.37284e-09
3.85353e-08
1.34567e-09
3.84831e-08
1.3177e-09
3.843e-08
1.28891e-09
3.83761e-08
1.25927e-09
3.83215e-08
1.2288e-09
3.82662e-08
1.19751e-09
3.82103e-08
1.16545e-09
3.8154e-08
1.13268e-09
3.80973e-08
1.09932e-09
3.80402e-08
1.06554e-09
3.79829e-08
1.03157e-09
3.79255e-08
9.9772e-10
3.7868e-08
9.64457e-10
3.78106e-08
9.32347e-10
3.7754e-08
9.0176e-10
3.76997e-08
8.71131e-10
8.21061e-10
3.98618e-08
3.03359e-09
-3.97496e-08
3.99983e-08
3.28968e-09
4.01416e-08
3.46228e-09
4.02781e-08
3.55039e-09
4.03994e-08
3.56713e-09
4.05016e-08
3.52988e-09
4.05838e-08
3.4557e-09
4.06472e-08
3.3598e-09
4.06946e-08
3.25433e-09
4.07291e-08
3.14771e-09
4.07534e-08
3.04494e-09
4.077e-08
2.94851e-09
4.07808e-08
2.85932e-09
4.07872e-08
2.77742e-09
4.07901e-08
2.70235e-09
4.07905e-08
2.63351e-09
4.07889e-08
2.57023e-09
4.07857e-08
2.51188e-09
4.07812e-08
2.45788e-09
4.07758e-08
2.40772e-09
4.07695e-08
2.36096e-09
4.07626e-08
2.3172e-09
4.07551e-08
2.2761e-09
4.07471e-08
2.23736e-09
4.07387e-08
2.20074e-09
4.07299e-08
2.166e-09
4.07207e-08
2.13295e-09
4.07111e-08
2.10143e-09
4.07012e-08
2.07127e-09
4.06909e-08
2.04236e-09
4.06803e-08
2.01456e-09
4.06692e-08
1.98777e-09
4.06577e-08
1.96191e-09
4.06457e-08
1.93686e-09
4.06332e-08
1.91257e-09
4.06202e-08
1.88894e-09
4.06067e-08
1.86591e-09
4.05925e-08
1.8434e-09
4.05777e-08
1.82136e-09
4.05621e-08
1.79971e-09
4.05459e-08
1.7784e-09
4.05289e-08
1.75735e-09
4.05111e-08
1.73651e-09
4.04924e-08
1.71581e-09
4.04729e-08
1.6952e-09
4.04525e-08
1.6746e-09
4.04311e-08
1.65396e-09
4.04088e-08
1.6332e-09
4.03856e-08
1.61227e-09
4.03613e-08
1.5911e-09
4.0336e-08
1.56962e-09
4.03097e-08
1.54776e-09
4.02824e-08
1.52547e-09
4.0254e-08
1.50268e-09
4.02246e-08
1.47931e-09
4.01942e-08
1.45532e-09
4.01628e-08
1.43064e-09
4.01304e-08
1.40523e-09
4.00971e-08
1.37903e-09
4.00628e-08
1.352e-09
4.00276e-08
1.32412e-09
3.99915e-08
1.29536e-09
3.99546e-08
1.26574e-09
3.99168e-08
1.23525e-09
3.98783e-08
1.20395e-09
3.98391e-08
1.17191e-09
3.97991e-08
1.13925e-09
3.97586e-08
1.10611e-09
3.97174e-08
1.07275e-09
3.96756e-08
1.03947e-09
3.96334e-08
1.0067e-09
3.95909e-08
9.74887e-10
3.95485e-08
9.44151e-10
3.95071e-08
9.12502e-10
8.63516e-10
4.10692e-08
2.93094e-09
-4.09666e-08
4.11937e-08
3.16525e-09
4.13257e-08
3.33025e-09
4.14533e-08
3.42283e-09
4.15685e-08
3.45184e-09
4.16674e-08
3.431e-09
4.17485e-08
3.3746e-09
4.18126e-08
3.29575e-09
4.18616e-08
3.2053e-09
4.18982e-08
3.11116e-09
4.19248e-08
3.01836e-09
4.19435e-08
2.92973e-09
4.19563e-08
2.84657e-09
4.19644e-08
2.76929e-09
4.1969e-08
2.6978e-09
4.19708e-08
2.63172e-09
4.19704e-08
2.57058e-09
4.19684e-08
2.5139e-09
4.1965e-08
2.46121e-09
4.19607e-08
2.41209e-09
4.19555e-08
2.36613e-09
4.19497e-08
2.323e-09
4.19434e-08
2.2824e-09
4.19367e-08
2.24405e-09
4.19297e-08
2.20774e-09
4.19225e-08
2.17324e-09
4.1915e-08
2.14039e-09
4.19074e-08
2.10903e-09
4.18997e-08
2.07901e-09
4.18918e-08
2.05022e-09
4.18838e-08
2.02254e-09
4.18757e-08
1.99588e-09
4.18675e-08
1.97013e-09
4.18592e-08
1.94523e-09
4.18506e-08
1.92108e-09
4.1842e-08
1.89763e-09
4.18331e-08
1.87479e-09
4.1824e-08
1.85251e-09
4.18146e-08
1.83071e-09
4.1805e-08
1.80934e-09
4.1795e-08
1.78833e-09
4.17848e-08
1.76763e-09
4.17741e-08
1.74716e-09
4.17631e-08
1.72687e-09
4.17516e-08
1.70669e-09
4.17396e-08
1.68657e-09
4.17271e-08
1.66643e-09
4.17141e-08
1.64621e-09
4.17005e-08
1.62584e-09
4.16864e-08
1.60526e-09
4.16716e-08
1.5844e-09
4.16562e-08
1.56319e-09
4.16401e-08
1.54157e-09
4.16233e-08
1.51946e-09
4.16058e-08
1.49681e-09
4.15876e-08
1.47354e-09
4.15686e-08
1.44961e-09
4.15489e-08
1.42494e-09
4.15284e-08
1.3995e-09
4.15072e-08
1.37324e-09
4.14852e-08
1.34613e-09
4.14624e-08
1.31815e-09
4.14388e-08
1.2893e-09
4.14145e-08
1.25958e-09
4.13894e-08
1.22906e-09
4.13635e-08
1.19779e-09
4.13368e-08
1.1659e-09
4.13094e-08
1.13354e-09
4.12812e-08
1.10094e-09
4.12523e-08
1.06842e-09
4.12226e-08
1.03635e-09
4.11924e-08
1.00512e-09
4.11619e-08
9.74662e-10
4.11314e-08
9.42997e-10
8.97432e-10
4.23103e-08
2.83668e-09
-4.2216e-08
4.2424e-08
3.05154e-09
4.25456e-08
3.20861e-09
4.26647e-08
3.30374e-09
4.2774e-08
3.34257e-09
4.28693e-08
3.3357e-09
4.29489e-08
3.29496e-09
4.30131e-08
3.23157e-09
4.30633e-08
3.1551e-09
4.31016e-08
3.07287e-09
4.31301e-08
2.98984e-09
4.31508e-08
2.909e-09
4.31654e-08
2.832e-09
4.31751e-08
2.75954e-09
4.31811e-08
2.6918e-09
4.31842e-08
2.62866e-09
4.3185e-08
2.56982e-09
4.31839e-08
2.51495e-09
4.31814e-08
2.46368e-09
4.31779e-08
2.41566e-09
4.31734e-08
2.37057e-09
4.31683e-08
2.32811e-09
4.31627e-08
2.28802e-09
4.31567e-08
2.25006e-09
4.31504e-08
2.21403e-09
4.31439e-08
2.17974e-09
4.31372e-08
2.14703e-09
4.31305e-08
2.11575e-09
4.31237e-08
2.08578e-09
4.3117e-08
2.057e-09
4.31102e-08
2.02932e-09
4.31034e-08
2.00263e-09
4.30967e-08
1.97686e-09
4.309e-08
1.95192e-09
4.30833e-08
1.92774e-09
4.30767e-08
1.90426e-09
4.30701e-08
1.88141e-09
4.30635e-08
1.85912e-09
4.30569e-08
1.83733e-09
4.30502e-08
1.81599e-09
4.30435e-08
1.79502e-09
4.30368e-08
1.77438e-09
4.30299e-08
1.75401e-09
4.3023e-08
1.73383e-09
4.30159e-08
1.71379e-09
4.30086e-08
1.69383e-09
4.30012e-08
1.67389e-09
4.29935e-08
1.65389e-09
4.29855e-08
1.63377e-09
4.29773e-08
1.61347e-09
4.29688e-08
1.59291e-09
4.296e-08
1.57204e-09
4.29508e-08
1.55078e-09
4.29412e-08
1.52906e-09
4.29312e-08
1.50683e-09
4.29207e-08
1.48401e-09
4.29098e-08
1.46054e-09
4.28983e-08
1.43638e-09
4.28864e-08
1.41146e-09
4.28739e-08
1.38575e-09
4.28608e-08
1.35921e-09
4.28471e-08
1.33183e-09
4.28328e-08
1.3036e-09
4.28178e-08
1.27454e-09
4.28022e-08
1.24469e-09
4.27859e-08
1.21413e-09
4.27688e-08
1.18296e-09
4.2751e-08
1.15136e-09
4.27324e-08
1.11955e-09
4.2713e-08
1.08782e-09
4.26928e-08
1.05653e-09
4.26719e-08
1.026e-09
4.26505e-08
9.96104e-10
4.26283e-08
9.65131e-10
9.24206e-10
4.35859e-08
2.74984e-09
-4.3499e-08
4.36901e-08
2.94736e-09
4.38022e-08
3.0965e-09
4.39132e-08
3.19269e-09
4.40165e-08
3.23925e-09
4.4108e-08
3.24419e-09
4.41858e-08
3.21717e-09
4.42497e-08
3.16769e-09
4.43007e-08
3.10414e-09
4.43403e-08
3.03321e-09
4.43705e-08
2.95964e-09
4.4393e-08
2.88654e-09
4.44092e-08
2.81575e-09
4.44205e-08
2.74824e-09
4.44279e-08
2.68443e-09
4.44322e-08
2.62439e-09
4.4434e-08
2.56802e-09
4.44338e-08
2.51509e-09
4.44322e-08
2.46536e-09
4.44293e-08
2.41855e-09
4.44254e-08
2.37441e-09
4.44209e-08
2.33268e-09
4.44157e-08
2.29315e-09
4.44102e-08
2.25562e-09