/*--------------------------------*- C++ -*----------------------------------*\
| =========                 |                                                 |
| \\      /  F ield         | OpenFOAM: The Open Source CFD Toolbox           |
|  \\    /   O peration     | Version:  2.3.0                                 |
|   \\  /    A nd           | Web:      www.OpenFOAM.org                      |
|    \\/     M anipulation  |                                                 |
\*---------------------------------------------------------------------------*/
FoamFile
{
    version     2.0;
    format      ascii;
    class       volVectorField;
    location    "0.6";
    object      U;
}
// * * * * * * * * * * * * * * * * * * * * * * * * * * * * * * * * * * * * * //

dimensions      [0 1 -1 0 0 0 0];

internalField   nonuniform List<vector> 
2945
(
(0.153791 0.00668132 0)
(0.125031 0.00576597 0)
(0.100448 0.00443542 0)
(0.080478 0.00314339 0)
(0.0652476 0.00206592 0)
(0.0541429 0.00126813 0)
(0.0462413 0.000739064 0)
(0.0406575 0.00042048 0)
(0.0366646 0.000243914 0)
(0.0337184 0.0001528 0)
(0.0314456 0.000108111 0)
(0.0296092 8.61844e-05 0)
(0.0280672 7.43219e-05 0)
(0.0267362 6.65311e-05 0)
(0.0255659 6.03553e-05 0)
(0.0245243 5.49444e-05 0)
(0.023589 5.00647e-05 0)
(0.0227433 4.56674e-05 0)
(0.0219741 4.17333e-05 0)
(0.0212707 3.82324e-05 0)
(0.0206244 3.51232e-05 0)
(0.020028 3.23595e-05 0)
(0.0194755 2.98963e-05 0)
(0.0189618 2.76933e-05 0)
(0.0184828 2.57154e-05 0)
(0.0180347 2.39329e-05 0)
(0.0176145 2.23207e-05 0)
(0.0172195 2.08578e-05 0)
(0.0168474 1.9526e-05 0)
(0.0164962 1.83103e-05 0)
(0.0161641 1.71976e-05 0)
(0.0158495 1.61765e-05 0)
(0.015551 1.52373e-05 0)
(0.0152675 1.43714e-05 0)
(0.0149977 1.35716e-05 0)
(0.0147408 1.28312e-05 0)
(0.0144957 1.21444e-05 0)
(0.0142617 1.15061e-05 0)
(0.0140381 1.09119e-05 0)
(0.0138242 1.03576e-05 0)
(0.0136193 9.83977e-06 0)
(0.0134231 9.35502e-06 0)
(0.0132349 8.9005e-06 0)
(0.0130543 8.47358e-06 0)
(0.0128809 8.07194e-06 0)
(0.0127143 7.69343e-06 0)
(0.0125543 7.33615e-06 0)
(0.0124003 6.99836e-06 0)
(0.0122523 6.67851e-06 0)
(0.0121099 6.37518e-06 0)
(0.0119729 6.08711e-06 0)
(0.0118411 5.81314e-06 0)
(0.0117142 5.55226e-06 0)
(0.0115922 5.30356e-06 0)
(0.0114747 5.06622e-06 0)
(0.0113617 4.83954e-06 0)
(0.0112531 4.62291e-06 0)
(0.0111487 4.4158e-06 0)
(0.0110483 4.2178e-06 0)
(0.0109519 4.02855e-06 0)
(0.0108593 3.84784e-06 0)
(0.0107705 3.67554e-06 0)
(0.0106854 3.51162e-06 0)
(0.0106037 3.35618e-06 0)
(0.0105255 3.20953e-06 0)
(0.0104506 3.0721e-06 0)
(0.0103788 2.9446e-06 0)
(0.0103101 2.82812e-06 0)
(0.0102441 2.72429e-06 0)
(0.0101808 2.63579e-06 0)
(0.0101198 2.56661e-06 0)
(0.0100608 2.53205e-06 0)
(0.0100004 2.57846e-06 0)
(0.00996126 1.83277e-06 0)
(0.00979448 1.33283e-05 0)
(0.184635 0.0109645 0)
(0.17626 0.0104472 0)
(0.165292 0.00906612 0)
(0.153359 0.00746908 0)
(0.141709 0.00589645 0)
(0.130943 0.00449777 0)
(0.121275 0.00335851 0)
(0.112747 0.00249486 0)
(0.105306 0.00187443 0)
(0.0988484 0.00144338 0)
(0.0932441 0.00114686 0)
(0.0883611 0.000940006 0)
(0.0840796 0.000790962 0)
(0.0802975 0.00067915 0)
(0.076931 0.000591995 0)
(0.0739122 0.00052193 0)
(0.0711868 0.000464308 0)
(0.0687111 0.000416128 0)
(0.0664496 0.000375333 0)
(0.0643736 0.00034043 0)
(0.0624594 0.000310299 0)
(0.0606871 0.000284074 0)
(0.0590405 0.000261077 0)
(0.0575057 0.000240775 0)
(0.0560708 0.000222742 0)
(0.0547258 0.000206636 0)
(0.0534621 0.000192179 0)
(0.052272 0.000179144 0)
(0.0511491 0.000167344 0)
(0.0500875 0.000156623 0)
(0.0490822 0.00014685 0)
(0.0481287 0.000137912 0)
(0.0472229 0.000129716 0)
(0.0463614 0.000122178 0)
(0.0455409 0.00011523 0)
(0.0447586 0.00010881 0)
(0.0440117 0.000102863 0)
(0.0432981 9.73444e-05 0)
(0.0426156 9.22114e-05 0)
(0.0419622 8.74277e-05 0)
(0.0413362 8.2961e-05 0)
(0.040736 7.87821e-05 0)
(0.0401602 7.48651e-05 0)
(0.0396075 7.11869e-05 0)
(0.0390766 6.77266e-05 0)
(0.0385664 6.44653e-05 0)
(0.038076 6.13861e-05 0)
(0.0376043 5.84736e-05 0)
(0.0371507 5.5714e-05 0)
(0.0367143 5.30947e-05 0)
(0.0362945 5.06044e-05 0)
(0.0358905 4.82326e-05 0)
(0.0355019 4.59703e-05 0)
(0.035128 4.3809e-05 0)
(0.0347685 4.17412e-05 0)
(0.0344229 3.97602e-05 0)
(0.0340908 3.78601e-05 0)
(0.0337718 3.60358e-05 0)
(0.0334656 3.42828e-05 0)
(0.0331719 3.25974e-05 0)
(0.0328904 3.09767e-05 0)
(0.0326209 2.94185e-05 0)
(0.032363 2.79214e-05 0)
(0.0321165 2.64851e-05 0)
(0.0318811 2.51102e-05 0)
(0.0316566 2.37987e-05 0)
(0.0314427 2.25542e-05 0)
(0.0312389 2.13824e-05 0)
(0.0310448 2.02926e-05 0)
(0.03086 1.93002e-05 0)
(0.0306837 1.84307e-05 0)
(0.0305153 1.77855e-05 0)
(0.0303487 1.73241e-05 0)
(0.0302166 1.77925e-05 0)
(0.0298709 5.04266e-05 0)
(0.191308 0.0115774 0)
(0.190662 0.0118783 0)
(0.187729 0.0110947 0)
(0.183 0.00984904 0)
(0.177228 0.00842528 0)
(0.170946 0.00702891 0)
(0.164503 0.00579761 0)
(0.158139 0.00478566 0)
(0.152008 0.00398622 0)
(0.14619 0.0033637 0)
(0.140719 0.00287692 0)
(0.135599 0.00249057 0)
(0.130819 0.00217821 0)
(0.126362 0.00192128 0)
(0.122205 0.00170695 0)
(0.118329 0.00152616 0)
(0.11471 0.0013723 0)
(0.11133 0.00124037 0)
(0.108168 0.00112646 0)
(0.105205 0.00102746 0)
(0.102426 0.000940905 0)
(0.0998146 0.00086477 0)
(0.0973566 0.000797426 0)
(0.0950394 0.000737543 0)
(0.0928516 0.000684031 0)
(0.0907828 0.000635992 0)
(0.0888236 0.000592684 0)
(0.0869656 0.000553488 0)
(0.0852014 0.000517885 0)
(0.0835239 0.000485438 0)
(0.0819271 0.000455776 0)
(0.0804053 0.000428581 0)
(0.0789534 0.000403581 0)
(0.0775668 0.00038054 0)
(0.0762414 0.000359256 0)
(0.0749732 0.000339548 0)
(0.0737589 0.000321262 0)
(0.0725951 0.00030426 0)
(0.071479 0.00028842 0)
(0.0704078 0.000273633 0)
(0.0693792 0.000259805 0)
(0.0683908 0.00024685 0)
(0.0674406 0.000234688 0)
(0.0665267 0.000223253 0)
(0.0656473 0.00021248 0)
(0.0648008 0.000202314 0)
(0.0639858 0.000192704 0)
(0.0632009 0.000183602 0)
(0.062445 0.000174967 0)
(0.0617168 0.000166761 0)
(0.0610153 0.000158949 0)
(0.0603396 0.000151498 0)
(0.0596889 0.000144382 0)
(0.0590623 0.000137572 0)
(0.0584592 0.000131047 0)
(0.057879 0.000124785 0)
(0.057321 0.000118767 0)
(0.0567847 0.000112977 0)
(0.0562697 0.0001074 0)
(0.0557755 0.000102024 0)
(0.0553018 9.68394e-05 0)
(0.0548481 9.18374e-05 0)
(0.054414 8.7013e-05 0)
(0.0539994 8.23635e-05 0)
(0.0536037 7.78892e-05 0)
(0.0532267 7.35941e-05 0)
(0.0528678 6.94865e-05 0)
(0.0525268 6.55808e-05 0)
(0.0522029 6.19004e-05 0)
(0.0518956 5.84851e-05 0)
(0.0516039 5.54055e-05 0)
(0.0513266 5.29074e-05 0)
(0.0510579 5.08948e-05 0)
(0.0508237 5.50507e-05 0)
(0.0503737 0.000103463 0)
(0.193217 0.011036 0)
(0.19486 0.0118109 0)
(0.195296 0.0115256 0)
(0.194384 0.0106905 0)
(0.192397 0.00957114 0)
(0.189614 0.00837227 0)
(0.186271 0.0072477 0)
(0.182579 0.00627505 0)
(0.178705 0.00546936 0)
(0.174765 0.00481229 0)
(0.17083 0.00427481 0)
(0.166943 0.00382916 0)
(0.16313 0.0034533 0)
(0.159407 0.00313118 0)
(0.155787 0.00285157 0)
(0.152275 0.00260651 0)
(0.148878 0.00239021 0)
(0.145597 0.00219827 0)
(0.142434 0.00202718 0)
(0.139388 0.00187412 0)
(0.136458 0.00173671 0)
(0.133642 0.00161294 0)
(0.130935 0.00150112 0)
(0.128336 0.00139979 0)
(0.125839 0.00130771 0)
(0.123441 0.0012238 0)
(0.121138 0.00114714 0)
(0.118926 0.00107692 0)
(0.116801 0.00101245 0)
(0.114758 0.000953129 0)
(0.112794 0.000898423 0)
(0.110906 0.000847869 0)
(0.109089 0.000801058 0)
(0.10734 0.00075763 0)
(0.105656 0.000717267 0)
(0.104035 0.000679685 0)
(0.102472 0.000644632 0)
(0.100966 0.000611883 0)
(0.0995141 0.000581236 0)
(0.0981136 0.000552508 0)
(0.0967624 0.000525538 0)
(0.0954583 0.000500175 0)
(0.0941995 0.000476288 0)
(0.092984 0.000453752 0)
(0.0918102 0.000432459 0)
(0.0906764 0.000412307 0)
(0.0895812 0.000393204 0)
(0.0885232 0.000375065 0)
(0.0875012 0.000357814 0)
(0.086514 0.000341381 0)
(0.0855604 0.0003257 0)
(0.0846397 0.000310712 0)
(0.0837507 0.000296364 0)
(0.0828928 0.000282607 0)
(0.0820652 0.000269395 0)
(0.0812673 0.000256688 0)
(0.0804984 0.000244451 0)
(0.079758 0.000232649 0)
(0.0790456 0.000221256 0)
(0.0783607 0.000210247 0)
(0.0777031 0.0001996 0)
(0.0770723 0.0001893 0)
(0.076468 0.000179336 0)
(0.0758898 0.0001697 0)
(0.0753375 0.000160392 0)
(0.0748106 0.000151417 0)
(0.0743088 0.00014279 0)
(0.0738317 0.000134535 0)
(0.0733786 0.000126693 0)
(0.0729489 0.000119337 0)
(0.0725414 0.000112598 0)
(0.0721549 0.000106864 0)
(0.0717843 0.000102414 0)
(0.0714467 0.000109089 0)
(0.0709204 0.000163817 0)
(0.19406 0.0103803 0)
(0.196115 0.0113135 0)
(0.197653 0.0112976 0)
(0.198358 0.0107475 0)
(0.198277 0.00989402 0)
(0.197515 0.00891308 0)
(0.196189 0.00794755 0)
(0.194439 0.00708101 0)
(0.192391 0.00634097 0)
(0.190144 0.00572132 0)
(0.187763 0.00520237 0)
(0.185293 0.00476262 0)
(0.182763 0.0043839 0)
(0.180192 0.00405252 0)
(0.177597 0.00375872 0)
(0.174993 0.00349563 0)
(0.17239 0.00325829 0)
(0.169798 0.003043 0)
(0.167226 0.00284687 0)
(0.164681 0.00266755 0)
(0.16217 0.00250314 0)
(0.159697 0.00235199 0)
(0.157267 0.00221271 0)
(0.154882 0.0020841 0)
(0.152546 0.00196512 0)
(0.150261 0.00185486 0)
(0.148027 0.00175251 0)
(0.145847 0.00165736 0)
(0.143719 0.00156877 0)
(0.141645 0.00148619 0)
(0.139624 0.0014091 0)
(0.137656 0.00133705 0)
(0.13574 0.00126962 0)
(0.133876 0.00120645 0)
(0.132063 0.00114719 0)
(0.1303 0.00109153 0)
(0.128585 0.0010392 0)
(0.126919 0.000989939 0)
(0.125299 0.000943511 0)
(0.123724 0.000899703 0)
(0.122194 0.000858315 0)
(0.120708 0.000819167 0)
(0.119264 0.00078209 0)
(0.117861 0.000746931 0)
(0.116499 0.000713544 0)
(0.115176 0.0006818 0)
(0.113891 0.000651575 0)
(0.112644 0.000622756 0)
(0.111434 0.000595239 0)
(0.11026 0.000568926 0)
(0.109121 0.000543727 0)
(0.108017 0.000519559 0)
(0.106946 0.000496345 0)
(0.105909 0.000474015 0)
(0.104905 0.000452505 0)
(0.103934 0.000431754 0)
(0.102995 0.000411709 0)
(0.102087 0.000392322 0)
(0.101211 0.000373551 0)
(0.100367 0.000355359 0)
(0.099553 0.000337715 0)
(0.0987702 0.000320593 0)
(0.0980182 0.000303976 0)
(0.0972966 0.000287854 0)
(0.0966053 0.000272224 0)
(0.0959442 0.000257096 0)
(0.0953129 0.000242488 0)
(0.0947111 0.00022844 0)
(0.0941384 0.000215014 0)
(0.0935942 0.000202318 0)
(0.0930775 0.000190556 0)
(0.0925869 0.000180259 0)
(0.0921181 0.000172391 0)
(0.0916832 0.000179001 0)
(0.091091 0.000231307 0)
(0.194641 0.00976043 0)
(0.19657 0.0107151 0)
(0.198314 0.0108427 0)
(0.199556 0.0104766 0)
(0.200265 0.00981928 0)
(0.20047 0.00901899 0)
(0.200227 0.00820065 0)
(0.199616 0.00744489 0)
(0.198726 0.00678487 0)
(0.197631 0.00622224 0)
(0.196381 0.00574421 0)
(0.19501 0.00533432 0)
(0.193541 0.00497765 0)
(0.19199 0.00466249 0)
(0.190367 0.00438024 0)
(0.188685 0.00412477 0)
(0.186951 0.00389161 0)
(0.185175 0.00367746 0)
(0.183364 0.0034798 0)
(0.181525 0.00329662 0)
(0.179666 0.00312629 0)
(0.177792 0.00296745 0)
(0.17591 0.00281899 0)
(0.174023 0.00267994 0)
(0.172138 0.00254946 0)
(0.170258 0.00242685 0)
(0.168386 0.00231147 0)
(0.166527 0.00220277 0)
(0.164683 0.00210026 0)
(0.162857 0.00200349 0)
(0.161052 0.00191205 0)
(0.159268 0.00182559 0)
(0.157508 0.00174377 0)
(0.155773 0.00166628 0)
(0.154065 0.00159284 0)
(0.152384 0.00152319 0)
(0.150732 0.00145708 0)
(0.149108 0.00139429 0)
(0.147515 0.00133461 0)
(0.145951 0.00127782 0)
(0.144417 0.00122376 0)
(0.142914 0.00117223 0)
(0.141442 0.00112309 0)
(0.140001 0.00107617 0)
(0.13859 0.00103133 0)
(0.137211 0.000988425 0)
(0.135862 0.000947335 0)
(0.134544 0.000907935 0)
(0.133257 0.00087011 0)
(0.132 0.000833753 0)
(0.130774 0.000798763 0)
(0.129579 0.000765044 0)
(0.128414 0.000732509 0)
(0.127279 0.000701075 0)
(0.126176 0.000670666 0)
(0.125103 0.00064121 0)
(0.12406 0.000612644 0)
(0.123048 0.000584909 0)
(0.122067 0.000557954 0)
(0.121117 0.000531733 0)
(0.120197 0.000506209 0)
(0.119309 0.000481352 0)
(0.118452 0.00045714 0)
(0.117626 0.000433563 0)
(0.116832 0.000410619 0)
(0.116069 0.000388323 0)
(0.115338 0.000366706 0)
(0.114639 0.000345819 0)
(0.11397 0.000325753 0)
(0.113332 0.000306655 0)
(0.112725 0.000288807 0)
(0.112146 0.000272888 0)
(0.111593 0.000260553 0)
(0.111076 0.000264252 0)
(0.110429 0.000306743 0)
(0.195136 0.00919826 0)
(0.196827 0.0101225 0)
(0.198483 0.010335 0)
(0.199821 0.0100942 0)
(0.200785 0.00957887 0)
(0.20138 0.00891715 0)
(0.201633 0.00821763 0)
(0.201597 0.0075554 0)
(0.201335 0.00696602 0)
(0.200902 0.00645647 0)
(0.200339 0.00601919 0)
(0.199671 0.0056418 0)
(0.198914 0.00531206 0)
(0.198079 0.00501983 0)
(0.197172 0.00475737 0)
(0.1962 0.00451897 0)
(0.195167 0.00430046 0)
(0.194078 0.00409869 0)
(0.192939 0.00391128 0)
(0.191753 0.00373635 0)
(0.190525 0.00357242 0)
(0.189259 0.00341825 0)
(0.18796 0.00327285 0)
(0.186631 0.00313538 0)
(0.185277 0.00300514 0)
(0.1839 0.00288154 0)
(0.182505 0.00276405 0)
(0.181095 0.00265223 0)
(0.179673 0.00254571 0)
(0.178242 0.00244412 0)
(0.176804 0.00234717 0)
(0.175363 0.00225458 0)
(0.173921 0.0021661 0)
(0.17248 0.00208149 0)
(0.171043 0.00200054 0)
(0.16961 0.00192305 0)
(0.168185 0.00184884 0)
(0.166768 0.00177772 0)
(0.165361 0.00170954 0)
(0.163966 0.00164413 0)
(0.162584 0.00158134 0)
(0.161215 0.00152104 0)
(0.159862 0.00146308 0)
(0.158525 0.00140732 0)
(0.157205 0.00135365 0)
(0.155902 0.00130195 0)
(0.154618 0.00125209 0)
(0.153354 0.00120397 0)
(0.152109 0.00115748 0)
(0.150886 0.00111253 0)
(0.149683 0.001069 0)
(0.148503 0.00102682 0)
(0.147345 0.000985887 0)
(0.14621 0.00094613 0)
(0.145099 0.000907468 0)
(0.144012 0.00086983 0)
(0.14295 0.00083315 0)
(0.141913 0.00079737 0)
(0.140902 0.000762434 0)
(0.139917 0.000728299 0)
(0.13896 0.000694925 0)
(0.138029 0.000662284 0)
(0.137127 0.000630357 0)
(0.136253 0.000599137 0)
(0.135409 0.00056863 0)
(0.134593 0.00053886 0)
(0.133807 0.000509871 0)
(0.133052 0.000481738 0)
(0.132326 0.000454576 0)
(0.13163 0.00042858 0)
(0.130964 0.000404108 0)
(0.130326 0.000381975 0)
(0.129715 0.000364321 0)
(0.129142 0.000362591 0)
(0.12846 0.000389483 0)
(0.195582 0.0087012 0)
(0.197041 0.00957315 0)
(0.198536 0.00983876 0)
(0.199818 0.00968986 0)
(0.200819 0.00928226 0)
(0.201536 0.00872893 0)
(0.201985 0.0081247 0)
(0.202205 0.00753857 0)
(0.202245 0.00700703 0)
(0.202149 0.00654099 0)
(0.201952 0.0061372 0)
(0.201674 0.00578676 0)
(0.20133 0.00547984 0)
(0.200926 0.00520774 0)
(0.200467 0.00496351 0)
(0.199957 0.00474185 0)
(0.199397 0.00453875 0)
(0.19879 0.00435116 0)
(0.198138 0.00417673 0)
(0.197442 0.00401362 0)
(0.196705 0.00386035 0)
(0.195927 0.00371572 0)
(0.195113 0.00357876 0)
(0.194263 0.00344866 0)
(0.19338 0.00332476 0)
(0.192466 0.00320648 0)
(0.191523 0.00309337 0)
(0.190553 0.00298502 0)
(0.189558 0.00288109 0)
(0.188542 0.00278128 0)
(0.187505 0.00268534 0)
(0.18645 0.00259303 0)
(0.185379 0.00250416 0)
(0.184294 0.00241853 0)
(0.183196 0.00233599 0)
(0.182088 0.00225637 0)
(0.180972 0.00217954 0)
(0.179849 0.00210536 0)
(0.17872 0.00203369 0)
(0.177588 0.00196443 0)
(0.176454 0.00189746 0)
(0.175319 0.00183265 0)
(0.174186 0.00176992 0)
(0.173054 0.00170914 0)
(0.171926 0.00165023 0)
(0.170803 0.00159308 0)
(0.169685 0.00153759 0)
(0.168575 0.00148368 0)
(0.167473 0.00143126 0)
(0.16638 0.00138023 0)
(0.165298 0.00133052 0)
(0.164227 0.00128205 0)
(0.163169 0.00123473 0)
(0.162124 0.0011885 0)
(0.161093 0.00114328 0)
(0.160078 0.00109901 0)
(0.159079 0.00105564 0)
(0.158098 0.0010131 0)
(0.157135 0.000971347 0)
(0.156191 0.000930348 0)
(0.155267 0.000890066 0)
(0.154363 0.000850479 0)
(0.153482 0.000811577 0)
(0.152624 0.000773362 0)
(0.151788 0.000735851 0)
(0.150977 0.000699084 0)
(0.150191 0.000663123 0)
(0.149431 0.000628066 0)
(0.148696 0.000594062 0)
(0.147987 0.00056135 0)
(0.147304 0.000530357 0)
(0.146647 0.000502003 0)
(0.146015 0.000478615 0)
(0.14542 0.000469663 0)
(0.144732 0.000477353 0)
(0.195987 0.00826339 0)
(0.197245 0.00907312 0)
(0.198573 0.00937136 0)
(0.199756 0.00929409 0)
(0.20072 0.00897362 0)
(0.201452 0.00850969 0)
(0.201966 0.0079854 0)
(0.202288 0.00746358 0)
(0.202461 0.00698063 0)
(0.202521 0.00655046 0)
(0.202501 0.00617347 0)
(0.202418 0.00584387 0)
(0.202286 0.0055541 0)
(0.202113 0.00529694 0)
(0.201902 0.00506629 0)
(0.201655 0.00485731 0)
(0.201375 0.00466623 0)
(0.201061 0.00449012 0)
(0.200715 0.00432666 0)
(0.200336 0.00417402 0)
(0.199927 0.00403071 0)
(0.199486 0.00389554 0)
(0.199014 0.00376749 0)
(0.198513 0.00364576 0)
(0.197983 0.00352966 0)
(0.197424 0.00341862 0)
(0.196837 0.00331216 0)
(0.196224 0.00320989 0)
(0.195586 0.00311146 0)
(0.194923 0.00301658 0)
(0.194236 0.002925 0)
(0.193528 0.0028365 0)
(0.192798 0.00275089 0)
(0.192048 0.00266799 0)
(0.191279 0.00258767 0)
(0.190493 0.00250978 0)
(0.189691 0.0024342 0)
(0.188874 0.0023608 0)
(0.188044 0.0022895 0)
(0.1872 0.00222017 0)
(0.186346 0.00215274 0)
(0.185482 0.00208709 0)
(0.184609 0.00202316 0)
(0.183729 0.00196084 0)
(0.182842 0.00190006 0)
(0.18195 0.00184073 0)
(0.181055 0.00178278 0)
(0.180157 0.00172613 0)
(0.179257 0.00167071 0)
(0.178357 0.00161643 0)
(0.177458 0.00156323 0)
(0.176561 0.00151104 0)
(0.175666 0.00145979 0)
(0.174777 0.00140943 0)
(0.173892 0.00135988 0)
(0.173014 0.0013111 0)
(0.172144 0.00126303 0)
(0.171282 0.00121563 0)
(0.170431 0.00116886 0)
(0.16959 0.00112269 0)
(0.168762 0.00107708 0)
(0.167946 0.00103205 0)
(0.167145 0.000987568 0)
(0.16636 0.000943667 0)
(0.16559 0.000900375 0)
(0.164838 0.000857747 0)
(0.164104 0.000815867 0)
(0.16339 0.000774858 0)
(0.162694 0.000734904 0)
(0.162019 0.000696285 0)
(0.161365 0.000659486 0)
(0.160731 0.000625474 0)
(0.160118 0.000596478 0)
(0.159539 0.000579456 0)
(0.158878 0.000566931 0)
(0.196355 0.00787566 0)
(0.197445 0.00861993 0)
(0.198618 0.00893622 0)
(0.199695 0.00891625 0)
(0.200599 0.00866898 0)
(0.20131 0.00828177 0)
(0.201834 0.00782739 0)
(0.202195 0.0073626 0)
(0.202424 0.00692285 0)
(0.202555 0.0065242 0)
(0.202615 0.00617006 0)
(0.202623 0.00585742 0)
(0.202593 0.00558084 0)
(0.202531 0.00533456 0)
(0.202444 0.00511343 0)
(0.202332 0.00491315 0)
(0.202199 0.00473027 0)
(0.202045 0.00456203 0)
(0.201869 0.00440623 0)
(0.201674 0.00426106 0)
(0.201457 0.00412507 0)
(0.20122 0.00399705 0)
(0.200963 0.003876 0)
(0.200684 0.00376109 0)
(0.200385 0.00365162 0)
(0.200065 0.003547 0)
(0.199724 0.00344673 0)
(0.199363 0.0033504 0)
(0.198981 0.00325764 0)
(0.198579 0.00316814 0)
(0.198157 0.00308165 0)
(0.197715 0.00299794 0)
(0.197254 0.0029168 0)
(0.196774 0.00283805 0)
(0.196276 0.00276155 0)
(0.19576 0.00268715 0)
(0.195227 0.00261472 0)
(0.194677 0.00254415 0)
(0.194111 0.00247534 0)
(0.193531 0.00240817 0)
(0.192936 0.00234257 0)
(0.192327 0.00227845 0)
(0.191705 0.00221571 0)
(0.191072 0.00215428 0)
(0.190427 0.00209408 0)
(0.189772 0.00203503 0)
(0.189107 0.00197707 0)
(0.188435 0.00192011 0)
(0.187754 0.0018641 0)
(0.187067 0.00180897 0)
(0.186374 0.00175464 0)
(0.185677 0.00170106 0)
(0.184976 0.00164816 0)
(0.184273 0.00159589 0)
(0.183567 0.0015442 0)
(0.182862 0.00149303 0)
(0.182156 0.00144234 0)
(0.181453 0.0013921 0)
(0.180752 0.00134226 0)
(0.180055 0.0012928 0)
(0.179363 0.00124372 0)
(0.178677 0.001195 0)
(0.177998 0.00114666 0)
(0.177327 0.00109872 0)
(0.176665 0.00105122 0)
(0.176013 0.00100425 0)
(0.175373 0.000957909 0)
(0.174745 0.000912338 0)
(0.174129 0.000867752 0)
(0.173527 0.000824472 0)
(0.172939 0.000783016 0)
(0.172366 0.000744341 0)
(0.171808 0.000710357 0)
(0.171279 0.000685387 0)
(0.170675 0.000654184 0)
(0.19669 0.00753001 0)
(0.197637 0.00820966 0)
(0.198673 0.00853315 0)
(0.199649 0.00855887 0)
(0.200487 0.00837388 0)
(0.201164 0.00805365 0)
(0.201681 0.00766177 0)
(0.202053 0.0072491 0)
(0.202307 0.00684948 0)
(0.20247 0.0064803 0)
(0.202569 0.00614734 0)
(0.20262 0.00584997 0)
(0.202637 0.0055847 0)
(0.202628 0.00534716 0)
(0.202598 0.00513315 0)
(0.202551 0.00493899 0)
(0.202489 0.00476161 0)
(0.202413 0.00459848 0)
(0.202324 0.00444756 0)
(0.202223 0.00430714 0)
(0.202109 0.00417581 0)
(0.201983 0.00405242 0)
(0.201845 0.00393597 0)
(0.201694 0.00382565 0)
(0.20153 0.00372075 0)
(0.201353 0.00362068 0)
(0.201163 0.00352493 0)
(0.20096 0.00343308 0)
(0.200742 0.00334475 0)
(0.200511 0.00325961 0)
(0.200266 0.0031774 0)
(0.200006 0.00309785 0)
(0.199732 0.00302077 0)
(0.199444 0.00294595 0)
(0.199141 0.00287324 0)
(0.198824 0.00280247 0)
(0.198493 0.00273351 0)
(0.198148 0.00266624 0)
(0.197789 0.00260054 0)
(0.197417 0.0025363 0)
(0.197031 0.00247342 0)
(0.196632 0.00241181 0)
(0.19622 0.00235138 0)
(0.195796 0.00229204 0)
(0.19536 0.00223371 0)
(0.194913 0.00217632 0)
(0.194454 0.00211978 0)
(0.193986 0.00206402 0)
(0.193507 0.00200898 0)
(0.193019 0.00195457 0)
(0.192523 0.00190075 0)
(0.192018 0.00184743 0)
(0.191507 0.00179457 0)
(0.190989 0.00174211 0)
(0.190465 0.00168998 0)
(0.189937 0.00163815 0)
(0.189404 0.00158657 0)
(0.188868 0.0015352 0)
(0.18833 0.00148401 0)
(0.187791 0.00143299 0)
(0.187251 0.00138211 0)
(0.186711 0.00133139 0)
(0.186173 0.00128084 0)
(0.185637 0.00123049 0)
(0.185104 0.00118041 0)
(0.184576 0.00113068 0)
(0.184052 0.00108141 0)
(0.183535 0.00103279 0)
(0.183024 0.000985046 0)
(0.18252 0.000938521 0)
(0.182024 0.000893751 0)
(0.181537 0.000851629 0)
(0.18106 0.000813616 0)
(0.180606 0.000781631 0)
(0.180081 0.000735314 0)
(0.196995 0.00721984 0)
(0.197822 0.00783811 0)
(0.198737 0.00816079 0)
(0.199618 0.00822228 0)
(0.200392 0.00809018 0)
(0.201031 0.00782868 0)
(0.201532 0.00749308 0)
(0.201904 0.00712861 0)
(0.20217 0.00676704 0)
(0.202351 0.00642634 0)
(0.20247 0.0061141 0)
(0.202544 0.00583164 0)
(0.202585 0.00557718 0)
(0.202601 0.00534767 0)
(0.202598 0.00513982 0)
(0.202581 0.00495057 0)
(0.202552 0.00477728 0)
(0.202513 0.00461771 0)
(0.202465 0.00446997 0)
(0.202409 0.0043325 0)
(0.202345 0.004204 0)
(0.202274 0.00408334 0)
(0.202197 0.0039696 0)
(0.202112 0.00386197 0)
(0.20202 0.00375979 0)
(0.20192 0.00366247 0)
(0.201814 0.0035695 0)
(0.201699 0.00348046 0)
(0.201577 0.00339498 0)
(0.201446 0.00331273 0)
(0.201307 0.00323341 0)
(0.201159 0.00315679 0)
(0.201002 0.00308263 0)
(0.200836 0.00301073 0)
(0.200661 0.00294092 0)
(0.200475 0.00287304 0)
(0.20028 0.00280692 0)
(0.200076 0.00274245 0)
(0.199861 0.00267949 0)
(0.199636 0.00261792 0)
(0.199401 0.00255763 0)
(0.199155 0.00249852 0)
(0.1989 0.0024405 0)
(0.198634 0.00238346 0)
(0.198358 0.00232731 0)
(0.198072 0.00227197 0)
(0.197777 0.00221736 0)
(0.197472 0.00216339 0)
(0.197158 0.00210999 0)
(0.196835 0.00205707 0)
(0.196503 0.00200457 0)
(0.196162 0.00195242 0)
(0.195814 0.00190055 0)
(0.195458 0.00184891 0)
(0.195095 0.00179742 0)
(0.194725 0.00174605 0)
(0.194349 0.00169473 0)
(0.193968 0.00164344 0)
(0.193582 0.00159215 0)
(0.193191 0.00154082 0)
(0.192797 0.00148945 0)
(0.1924 0.00143805 0)
(0.192001 0.00138664 0)
(0.1916 0.00133525 0)
(0.191198 0.00128395 0)
(0.190796 0.00123283 0)
(0.190394 0.00118203 0)
(0.189994 0.00113173 0)
(0.189595 0.00108219 0)
(0.189199 0.00103377 0)
(0.188806 0.000986984 0)
(0.188416 0.000942632 0)
(0.188032 0.000901695 0)
(0.187663 0.00086416 0)
(0.187228 0.000807467 0)
(0.197272 0.00693974 0)
(0.197998 0.00750115 0)
(0.198807 0.00781729 0)
(0.1996 0.0079061 0)
(0.200312 0.00781863 0)
(0.200913 0.00760851 0)
(0.201394 0.00732356 0)
(0.201762 0.00700371 0)
(0.202032 0.00667835 0)
(0.202225 0.00636545 0)
(0.202357 0.00607387 0)
(0.202445 0.00580652 0)
(0.2025 0.00556306 0)
(0.20253 0.00534164 0)
(0.202542 0.00513982 0)
(0.20254 0.00495519 0)
(0.202527 0.00478551 0)
(0.202505 0.00462884 0)
(0.202476 0.00448352 0)
(0.202441 0.00434811 0)
(0.202401 0.00422141 0)
(0.202356 0.0041024 0)
(0.202307 0.0039902 0)
(0.202253 0.00388406 0)
(0.202196 0.00378333 0)
(0.202135 0.00368746 0)
(0.202071 0.00359597 0)
(0.202002 0.00350844 0)
(0.20193 0.0034245 0)
(0.201853 0.00334383 0)
(0.201772 0.00326615 0)
(0.201686 0.00319121 0)
(0.201596 0.00311879 0)
(0.2015 0.00304867 0)
(0.201399 0.00298069 0)
(0.201293 0.00291466 0)
(0.201181 0.00285043 0)
(0.201063 0.00278787 0)
(0.200939 0.00272684 0)
(0.200808 0.00266721 0)
(0.200671 0.00260887 0)
(0.200528 0.0025517 0)
(0.200377 0.00249559 0)
(0.200219 0.00244045 0)
(0.200055 0.00238617 0)
(0.199883 0.00233265 0)
(0.199704 0.00227981 0)
(0.199517 0.00222756 0)
(0.199323 0.00217581 0)
(0.199123 0.00212447 0)
(0.198914 0.00207347 0)
(0.198699 0.00202273 0)
(0.198477 0.00197217 0)
(0.198248 0.00192173 0)
(0.198013 0.00187134 0)
(0.197771 0.00182095 0)
(0.197523 0.00177049 0)
(0.197269 0.00171993 0)
(0.19701 0.00166924 0)
(0.196745 0.00161837 0)
(0.196476 0.00156733 0)
(0.196202 0.00151612 0)
(0.195924 0.00146475 0)
(0.195642 0.00141327 0)
(0.195358 0.00136174 0)
(0.195071 0.00131026 0)
(0.194781 0.00125898 0)
(0.194489 0.00120809 0)
(0.194196 0.00115785 0)
(0.193902 0.00110862 0)
(0.193608 0.00106091 0)
(0.193313 0.00101539 0)
(0.193021 0.000972598 0)
(0.192738 0.000931197 0)
(0.192393 0.00086908 0)
(0.197524 0.00668535 0)
(0.198165 0.00719495 0)
(0.198881 0.00750071 0)
(0.199595 0.00760973 0)
(0.200248 0.00755955 0)
(0.200809 0.00739419 0)
(0.201269 0.00715463 0)
(0.201628 0.00687592 0)
(0.2019 0.00658489 0)
(0.202099 0.00629909 0)
(0.202241 0.00602815 0)
(0.20234 0.00577621 0)
(0.202405 0.00554418 0)
(0.202445 0.00533122 0)
(0.202467 0.00513573 0)
(0.202474 0.00495586 0)
(0.20247 0.00478981 0)
(0.202458 0.00463595 0)
(0.202438 0.00449281 0)
(0.202413 0.00435915 0)
(0.202384 0.00423386 0)
(0.202351 0.00411601 0)
(0.202315 0.00400479 0)
(0.202276 0.00389949 0)
(0.202236 0.00379953 0)
(0.202193 0.00370437 0)
(0.202148 0.00361356 0)
(0.202101 0.0035267 0)
(0.202053 0.00344344 0)
(0.202003 0.00336348 0)
(0.201951 0.00328653 0)
(0.201897 0.00321237 0)
(0.201841 0.00314076 0)
(0.201783 0.00307151 0)
(0.201722 0.00300443 0)
(0.201659 0.00293936 0)
(0.201593 0.00287615 0)
(0.201524 0.00281464 0)
(0.201452 0.00275471 0)
(0.201377 0.00269622 0)
(0.201298 0.00263906 0)
(0.201215 0.0025831 0)
(0.201129 0.00252824 0)
(0.201038 0.00247436 0)
(0.200944 0.00242136 0)
(0.200844 0.00236914 0)
(0.200741 0.00231761 0)
(0.200632 0.00226665 0)
(0.200519 0.00221619 0)
(0.200401 0.00216614 0)
(0.200278 0.00211639 0)
(0.20015 0.00206688 0)
(0.200016 0.00201752 0)
(0.199878 0.00196823 0)
(0.199735 0.00191895 0)
(0.199586 0.00186961 0)
(0.199432 0.00182015 0)
(0.199274 0.00177052 0)
(0.19911 0.00172068 0)
(0.198942 0.0016706 0)
(0.198769 0.00162026 0)
(0.198592 0.00156967 0)
(0.19841 0.00151883 0)
(0.198225 0.0014678 0)
(0.198035 0.00141664 0)
(0.197841 0.00136545 0)
(0.197644 0.00131437 0)
(0.197444 0.00126361 0)
(0.197241 0.00121342 0)
(0.197034 0.00116417 0)
(0.196825 0.00111633 0)
(0.196614 0.00107045 0)
(0.196402 0.00102671 0)
(0.196195 0.000983067 0)
(0.195931 0.000919892 0)
(0.197755 0.00645317 0)
(0.198322 0.00691607 0)
(0.198957 0.00720904 0)
(0.199599 0.00733243 0)
(0.200196 0.00731307 0)
(0.200719 0.00718648 0)
(0.201155 0.0069874 0)
(0.201505 0.00674641 0)
(0.201775 0.00648775 0)
(0.201978 0.00622818 0)
(0.202127 0.00597773 0)
(0.202233 0.00574146 0)
(0.202307 0.00552127 0)
(0.202355 0.00531723 0)
(0.202384 0.00512846 0)
(0.202398 0.00495369 0)
(0.202401 0.00479152 0)
(0.202395 0.00464061 0)
(0.202381 0.00449975 0)
(0.202362 0.00436782 0)
(0.202339 0.00424386 0)
(0.202312 0.00412703 0)
(0.202283 0.00401659 0)
(0.202252 0.0039119 0)
(0.202218 0.0038124 0)
(0.202184 0.00371761 0)
(0.202148 0.00362708 0)
(0.202112 0.00354047 0)
(0.202075 0.00345742 0)
(0.202037 0.00337766 0)
(0.201999 0.00330092 0)
(0.20196 0.00322697 0)
(0.201921 0.00315559 0)
(0.201881 0.0030866 0)
(0.20184 0.00301981 0)
(0.201799 0.00295507 0)
(0.201756 0.00289222 0)
(0.201713 0.00283113 0)
(0.201669 0.00277165 0)
(0.201623 0.00271366 0)
(0.201576 0.00265704 0)
(0.201527 0.00260166 0)
(0.201476 0.00254742 0)
(0.201424 0.00249421 0)
(0.20137 0.00244192 0)
(0.201313 0.00239044 0)
(0.201254 0.00233967 0)
(0.201193 0.00228951 0)
(0.201128 0.00223987 0)
(0.201061 0.00219065 0)
(0.200992 0.00214177 0)
(0.200919 0.00209312 0)
(0.200843 0.00204464 0)
(0.200763 0.00199623 0)
(0.20068 0.00194782 0)
(0.200594 0.00189934 0)
(0.200504 0.00185073 0)
(0.200411 0.00180194 0)
(0.200314 0.00175292 0)
(0.200213 0.00170363 0)
(0.200109 0.00165405 0)
(0.2 0.00160419 0)
(0.199888 0.00155406 0)
(0.199773 0.00150369 0)
(0.199653 0.00145316 0)
(0.19953 0.00140256 0)
(0.199403 0.00135205 0)
(0.199272 0.00130181 0)
(0.199138 0.00125212 0)
(0.199 0.00120332 0)
(0.198858 0.00115584 0)
(0.198713 0.00111014 0)
(0.198566 0.00106616 0)
(0.19842 0.00102164 0)
(0.198224 0.000960684 0)
(0.197965 0.00624035 0)
(0.198469 0.00666144 0)
(0.199034 0.00694033 0)
(0.19961 0.00707338 0)
(0.200155 0.00707921 0)
(0.200641 0.00698595 0)
(0.201053 0.0068228 0)
(0.20139 0.0066162 0)
(0.201656 0.00638784 0)
(0.201861 0.00615347 0)
(0.202015 0.00592321 0)
(0.202128 0.00570272 0)
(0.202208 0.00549471 0)
(0.202263 0.0053 0)
(0.202299 0.00511837 0)
(0.202319 0.00494906 0)
(0.202327 0.00479108 0)
(0.202326 0.00464339 0)
(0.202317 0.00450499 0)
(0.202302 0.00437494 0)
(0.202283 0.0042524 0)
(0.202261 0.00413663 0)
(0.202235 0.00402697 0)
(0.202208 0.00392284 0)
(0.202179 0.00382372 0)
(0.202149 0.00372917 0)
(0.202118 0.00363879 0)
(0.202086 0.00355223 0)
(0.202055 0.00346919 0)
(0.202023 0.0033894 0)
(0.201991 0.00331259 0)
(0.201959 0.00323856 0)
(0.201928 0.0031671 0)
(0.201896 0.00309804 0)
(0.201865 0.00303119 0)
(0.201834 0.0029664 0)
(0.201803 0.00290353 0)
(0.201772 0.00284244 0)
(0.201741 0.00278299 0)
(0.20171 0.00272507 0)
(0.201679 0.00266855 0)
(0.201647 0.00261331 0)
(0.201615 0.00255925 0)
(0.201583 0.00250625 0)
(0.20155 0.00245421 0)
(0.201516 0.00240302 0)
(0.201482 0.00235257 0)
(0.201446 0.00230278 0)
(0.20141 0.00225354 0)
(0.201372 0.00220475 0)
(0.201333 0.00215632 0)
(0.201292 0.00210817 0)
(0.20125 0.0020602 0)
(0.201205 0.00201233 0)
(0.201159 0.00196449 0)
(0.201111 0.0019166 0)
(0.201061 0.00186859 0)
(0.201009 0.00182042 0)
(0.200954 0.00177202 0)
(0.200896 0.00172337 0)
(0.200836 0.00167445 0)
(0.200774 0.00162524 0)
(0.200708 0.00157577 0)
(0.200639 0.00152607 0)
(0.200567 0.00147621 0)
(0.200492 0.00142629 0)
(0.200414 0.00137646 0)
(0.200332 0.00132691 0)
(0.200247 0.0012779 0)
(0.200157 0.00122978 0)
(0.200064 0.00118293 0)
(0.199968 0.00113772 0)
(0.199868 0.00109399 0)
(0.199768 0.00104963 0)
(0.199624 0.000992905 0)