/*--------------------------------*- C++ -*----------------------------------*\
| =========                 |                                                 |
| \\      /  F ield         | OpenFOAM: The Open Source CFD Toolbox           |
|  \\    /   O peration     | Version:  2.3.0                                 |
|   \\  /    A nd           | Web:      www.OpenFOAM.org                      |
|    \\/     M anipulation  |                                                 |
\*---------------------------------------------------------------------------*/
FoamFile
{
    version     2.0;
    format      ascii;
    class       volScalarField;
    location    "0.5";
    object      p;
}
// * * * * * * * * * * * * * * * * * * * * * * * * * * * * * * * * * * * * * //

dimensions      [0 2 -2 0 0 0 0];

internalField   nonuniform List<scalar> 
5940
(
0.00296569
0.00264516
0.00194741
0.00126503
0.000706429
0.000253773
-0.000111932
-0.000384838
-0.000556117
-0.000635791
-0.00065002
-0.000627456
-0.00059012
-0.00055148
-0.000518087
-0.000491884
-0.000472302
-0.000457796
-0.000446742
-0.000437825
-0.000430119
-0.000423038
-0.000416252
-0.000409597
-0.000403011
-0.000396481
-0.000390019
-0.000383641
-0.000377361
-0.000371188
-0.000365127
-0.000359177
-0.000353335
-0.000347596
-0.000341955
-0.000336407
-0.000330945
-0.000325566
-0.000320266
-0.000315042
-0.000309892
-0.000304813
-0.000299805
-0.000294866
-0.000289997
-0.000285196
-0.000280465
-0.000275802
-0.000271208
-0.000266684
-0.000262229
-0.000257843
-0.000253528
-0.000249283
-0.000245109
-0.000241005
-0.000236973
-0.000233012
-0.000229123
-0.000225306
-0.000221561
-0.000217888
-0.000214286
-0.000210756
-0.000207299
-0.000203913
-0.000200599
-0.000197357
-0.000194186
-0.000191087
-0.000188059
-0.000185101
-0.000182214
-0.000179395
-0.000176645
-0.000173963
-0.000171347
-0.000168798
-0.000166315
-0.000163896
-0.000161541
-0.000159249
-0.000157019
-0.000154849
-0.000152738
-0.000150684
-0.000148686
-0.000146741
-0.000144849
-0.000143008
-0.000141216
-0.000139472
-0.000137773
-0.000136119
-0.000134506
-0.000132932
-0.000131394
-0.000129888
-0.000128412
-0.000126964
-0.000125542
-0.000124142
-0.000122763
-0.000121402
-0.000120054
-0.000118717
-0.000117384
-0.000116054
-0.000114719
-0.000113379
-0.000112027
-0.000110664
-0.000109283
-0.000107884
-0.000106458
-0.000105004
-0.00010351
-0.000101976
-0.000100391
-9.87575e-05
-9.7064e-05
-9.53147e-05
-9.3496e-05
-9.16121e-05
-8.96452e-05
-8.76007e-05
-8.5458e-05
-8.3227e-05
-8.08853e-05
-7.84488e-05
-7.58914e-05
-7.32341e-05
-7.04445e-05
-6.75485e-05
-6.45067e-05
-6.13518e-05
-5.80381e-05
-5.4608e-05
-5.10097e-05
-4.72974e-05
-4.34122e-05
-3.94201e-05
-3.52533e-05
-3.09891e-05
-2.65496e-05
-2.20239e-05
-1.7323e-05
-1.25498e-05
-7.6003e-06
-2.60306e-06
0.00244052
0.00225727
0.00178067
0.00121554
0.000704157
0.000281131
-5.73576e-05
-0.000310495
-0.000476327
-0.000562561
-0.000588761
-0.000578819
-0.000552657
-0.000522976
-0.000496298
-0.000474832
-0.000458451
-0.000446083
-0.000436495
-0.000428639
-0.000421752
-0.000415346
-0.000409138
-0.000402995
-0.000396867
-0.000390749
-0.000384659
-0.000378616
-0.000372638
-0.00036674
-0.000360927
-0.000355204
-0.000349569
-0.00034402
-0.000338554
-0.000333168
-0.000327856
-0.000322617
-0.000317447
-0.000312344
-0.000307307
-0.000302335
-0.000297427
-0.000292583
-0.000287802
-0.000283086
-0.000278434
-0.000273846
-0.000269323
-0.000264866
-0.000260475
-0.000256151
-0.000251894
-0.000247704
-0.000243582
-0.000239529
-0.000235545
-0.00023163
-0.000227785
-0.00022401
-0.000220306
-0.000216671
-0.000213107
-0.000209613
-0.00020619
-0.000202837
-0.000199555
-0.000196343
-0.000193203
-0.000190132
-0.000187131
-0.0001842
-0.000181338
-0.000178545
-0.000175819
-0.00017316
-0.000170567
-0.00016804
-0.000165578
-0.00016318
-0.000160845
-0.000158573
-0.000156361
-0.00015421
-0.000152117
-0.00015008
-0.000148099
-0.000146171
-0.000144295
-0.000142469
-0.000140693
-0.000138964
-0.00013728
-0.00013564
-0.000134042
-0.000132481
-0.000130956
-0.000129464
-0.000128001
-0.000126566
-0.000125156
-0.000123768
-0.000122401
-0.000121052
-0.000119716
-0.000118391
-0.00011707
-0.00011575
-0.000114426
-0.000113097
-0.000111756
-0.000110403
-0.000109033
-0.000107644
-0.000106228
-0.000104783
-0.0001033
-0.000101775
-0.0001002
-9.85755e-05
-9.68909e-05
-9.51507e-05
-9.33407e-05
-9.14659e-05
-8.95075e-05
-8.74718e-05
-8.53372e-05
-8.31146e-05
-8.07804e-05
-7.83518e-05
-7.58016e-05
-7.31518e-05
-7.0369e-05
-6.74802e-05
-6.44448e-05
-6.12965e-05
-5.79886e-05
-5.45644e-05
-5.09711e-05
-4.72639e-05
-4.33827e-05
-3.93948e-05
-3.52309e-05
-3.097e-05
-2.65323e-05
-2.20086e-05
-1.73082e-05
-1.25356e-05
-7.5851e-06
-2.59059e-06
0.00206486
0.00194615
0.00162696
0.0011801
0.000729731
0.000342358
3.27072e-05
-0.000201532
-0.000364485
-0.000462536
-0.000507912
-0.00051737
-0.000507364
-0.00048999
-0.000471915
-0.00045604
-0.000443132
-0.000432924
-0.00042476
-0.000417946
-0.000411914
-0.000406266
-0.000400759
-0.00039527
-0.000389748
-0.000384188
-0.000378604
-0.000373018
-0.00036745
-0.000361917
-0.000356431
-0.000350999
-0.000345625
-0.000340311
-0.000335057
-0.000329862
-0.000324726
-0.000319646
-0.000314623
-0.000309655
-0.000304743
-0.000299887
-0.000295087
-0.000290343
-0.000285656
-0.000281027
-0.000276458
-0.000271947
-0.000267498
-0.000263109
-0.000258783
-0.00025452
-0.000250321
-0.000246186
-0.000242117
-0.000238114
-0.000234177
-0.000230308
-0.000226506
-0.000222772
-0.000219107
-0.00021551
-0.000211982
-0.000208522
-0.000205132
-0.000201812
-0.00019856
-0.000195378
-0.000192265
-0.000189222
-0.000186248
-0.000183343
-0.000180505
-0.000177735
-0.000175032
-0.000172396
-0.000169825
-0.000167318
-0.000164876
-0.000162497
-0.000160182
-0.000157928
-0.000155734
-0.0001536
-0.000151524
-0.000149504
-0.000147539
-0.000145627
-0.000143766
-0.000141955
-0.000140193
-0.000138478
-0.000136809
-0.000135183
-0.000133597
-0.00013205
-0.000130538
-0.000129058
-0.000127608
-0.000126185
-0.000124786
-0.000123411
-0.000122055
-0.000120717
-0.000119392
-0.000118078
-0.000116768
-0.00011546
-0.000114146
-0.000112827
-0.000111496
-0.000110153
-0.000108792
-0.000107414
-0.000106007
-0.000104573
-0.000103099
-0.000101584
-0.000100017
-9.84023e-05
-9.6726e-05
-9.49949e-05
-9.31933e-05
-9.13278e-05
-8.93777e-05
-8.73511e-05
-8.52243e-05
-8.30102e-05
-8.06831e-05
-7.82627e-05
-7.5719e-05
-7.30773e-05
-7.03007e-05
-6.74199e-05
-6.43902e-05
-6.12496e-05
-5.79465e-05
-5.45294e-05
-5.09398e-05
-4.7239e-05
-4.33605e-05
-3.93784e-05
-3.52162e-05
-3.09604e-05
-2.65234e-05
-2.20041e-05
-1.73029e-05
-1.25341e-05
-7.58102e-06
-2.59336e-06
0.00181366
0.00171711
0.00148782
0.0011397
0.000755909
0.000407707
0.000123787
-9.42196e-05
-0.000252409
-0.000357389
-0.000417554
-0.000444283
-0.000450048
-0.000445256
-0.000436592
-0.00042754
-0.000419526
-0.000412856
-0.000407311
-0.000402513
-0.000398098
-0.0003938
-0.000389456
-0.000384987
-0.000380368
-0.000375608
-0.000370733
-0.000365775
-0.000360764
-0.000355725
-0.000350678
-0.000345638
-0.000340615
-0.000335617
-0.000330648
-0.000325712
-0.000320812
-0.000315948
-0.000311123
-0.000306337
-0.000301593
-0.000296892
-0.000292236
-0.000287625
-0.000283063
-0.00027855
-0.000274088
-0.000269679
-0.000265323
-0.000261024
-0.000256781
-0.000252596
-0.000248471
-0.000244405
-0.000240402
-0.000236461
-0.000232583
-0.000228769
-0.00022502
-0.000221337
-0.00021772
-0.000214169
-0.000210684
-0.000207266
-0.000203916
-0.000200633
-0.000197418
-0.000194271
-0.000191192
-0.000188181
-0.000185238
-0.000182362
-0.000179553
-0.000176811
-0.000174135
-0.000171523
-0.000168977
-0.000166494
-0.000164075
-0.000161719
-0.000159425
-0.000157191
-0.000155018
-0.000152904
-0.000150847
-0.000148846
-0.000146899
-0.000145004
-0.00014316
-0.000141366
-0.00013962
-0.000137921
-0.000136267
-0.000134656
-0.000133085
-0.000131553
-0.000130055
-0.000128589
-0.000127152
-0.000125743
-0.000124357
-0.000122994
-0.000121651
-0.000120325
-0.000119013
-0.000117711
-0.000116413
-0.000115117
-0.000113815
-0.000112507
-0.000111186
-0.000109855
-0.000108505
-0.000107137
-0.000105742
-0.000104319
-0.000102855
-0.000101351
-9.97943e-05
-9.81895e-05
-9.65226e-05
-9.48017e-05
-9.30096e-05
-9.11547e-05
-8.92142e-05
-8.71983e-05
-8.50804e-05
-8.28764e-05
-8.05574e-05
-7.81468e-05
-7.56106e-05
-7.29789e-05
-7.02097e-05
-6.73389e-05
-6.43162e-05
-6.11854e-05
-5.78885e-05
-5.44805e-05
-5.08961e-05
-4.72039e-05
-4.33295e-05
-3.93557e-05
-3.51969e-05
-3.09494e-05
-2.65147e-05
-2.20035e-05
-1.73029e-05
-1.25422e-05
-7.58606e-06
-2.61017e-06
0.00162274
0.00153497
0.00135581
0.00108225
0.000762776
0.000456644
0.000198177
-4.73688e-06
-0.000156432
-0.000263432
-0.000332439
-0.000371494
-0.000389766
-0.000395733
-0.000395634
-0.000393209
-0.000390288
-0.000387538
-0.000385045
-0.000382669
-0.000380231
-0.000377596
-0.000374687
-0.00037148
-0.000367985
-0.000364231
-0.000360259
-0.000356111
-0.000351827
-0.00034744
-0.000342978
-0.000338464
-0.000333916
-0.000329346
-0.000324765
-0.000320182
-0.000315602
-0.000311031
-0.000306475
-0.000301936
-0.000297419
-0.000292928
-0.000288466
-0.000284036
-0.000279642
-0.000275285
-0.000270969
-0.000266695
-0.000262468
-0.000258288
-0.000254157
-0.000250078
-0.000246051
-0.00024208
-0.000238164
-0.000234307
-0.000230508
-0.000226769
-0.000223091
-0.000219475
-0.000215922
-0.000212432
-0.000209005
-0.000205643
-0.000202345
-0.000199112
-0.000195945
-0.000192844
-0.000189809
-0.00018684
-0.000183937
-0.0001811
-0.000178328
-0.000175621
-0.000172979
-0.000170401
-0.000167886
-0.000165434
-0.000163044
-0.000160716
-0.000158449
-0.000156242
-0.000154095
-0.000152005
-0.000149972
-0.000147994
-0.000146069
-0.000144196
-0.000142373
-0.000140599
-0.000138873
-0.000137193
-0.000135558
-0.000133965
-0.000132413
-0.000130898
-0.000129417
-0.000127968
-0.000126547
-0.000125153
-0.000123783
-0.000122435
-0.000121107
-0.000119796
-0.000118499
-0.000117212
-0.000115928
-0.000114646
-0.000113357
-0.000112063
-0.000110755
-0.000109437
-0.000108099
-0.000106745
-0.000105363
-0.000103953
-0.000102502
-0.000101012
-9.94671e-05
-9.78747e-05
-9.62193e-05
-9.45111e-05
-9.27308e-05
-9.08892e-05
-8.89608e-05
-8.69582e-05
-8.48519e-05
-8.26609e-05
-8.03527e-05
-7.79548e-05
-7.54292e-05
-7.28106e-05
-7.00521e-05
-6.71947e-05
-6.41826e-05
-6.10653e-05
-5.77784e-05
-5.43837e-05
-5.08085e-05
-4.71293e-05
-4.32635e-05
-3.93029e-05
-3.51524e-05
-3.09185e-05
-2.64914e-05
-2.19945e-05
-1.72988e-05
-1.25538e-05
-7.59614e-06
-2.63863e-06
0.00146419
0.00138171
0.00123309
0.00101367
0.000750824
0.000487155
0.000255026
6.7181e-05
-7.70327e-05
-0.000182955
-0.000256474
-0.000303755
-0.000331522
-0.000346401
-0.000353818
-0.000357431
-0.00035928
-0.000360289
-0.000360778
-0.000360801
-0.000360338
-0.000359372
-0.00035791
-0.000355984
-0.000353639
-0.000350926
-0.0003479
-0.000344612
-0.00034111
-0.000337434
-0.000333619
-0.000329694
-0.000325681
-0.000321601
-0.000317468
-0.000313295
-0.000309092
-0.000304869
-0.000300633
-0.00029639
-0.000292148
-0.000287912
-0.000283687
-0.000279478
-0.000275289
-0.000271124
-0.000266988
-0.000262884
-0.000258814
-0.000254783
-0.000250793
-0.000246845
-0.000242943
-0.000239089
-0.000235285
-0.000231532
-0.000227833
-0.000224189
-0.0002206
-0.00021707
-0.000213597
-0.000210184
-0.000206831
-0.000203539
-0.000200308
-0.000197139
-0.000194032
-0.000190989
-0.00018801
-0.000185094
-0.000182242
-0.000179454
-0.000176729
-0.000174068
-0.000171469
-0.000168932
-0.000166457
-0.000164043
-0.00016169
-0.000159398
-0.000157165
-0.000154991
-0.000152875
-0.000150817
-0.000148813
-0.000146864
-0.000144967
-0.000143121
-0.000141323
-0.000139575
-0.000137872
-0.000136216
-0.000134603
-0.000133033
-0.000131503
-0.000130009
-0.000128549
-0.00012712
-0.000125719
-0.000124344
-0.000122992
-0.000121662
-0.000120351
-0.000119059
-0.000117778
-0.000116509
-0.000115242
-0.000113977
-0.000112705
-0.000111426
-0.000110134
-0.000108831
-0.000107509
-0.000106171
-0.000104804
-0.000103411
-0.000101976
-0.000100501
-9.89711e-05
-9.73942e-05
-9.57532e-05
-9.40606e-05
-9.22953e-05
-9.04701e-05
-8.85574e-05
-8.65718e-05
-8.44809e-05
-8.23066e-05
-8.00132e-05
-7.76323e-05
-7.51217e-05
-7.25207e-05
-6.97778e-05
-6.6939e-05
-6.3943e-05
-6.08447e-05
-5.75739e-05
-5.41984e-05
-5.0639e-05
-4.69795e-05
-4.31297e-05
-3.91898e-05
-3.50555e-05
-3.08439e-05
-2.64324e-05
-2.19597e-05
-1.72763e-05
-1.25579e-05
-7.60463e-06
-2.67365e-06
0.00132779
0.00125012
0.00112294
0.000943351
0.000727229
0.000503173
0.000297748
0.000125527
-1.059e-05
-0.000113871
-0.000189269
-0.000241827
-0.000276646
-0.000298786
-0.000312709
-0.000321739
-0.000327957
-0.000332468
-0.000335781
-0.000338113
-0.000339575
-0.000340248
-0.000340214
-0.000339553
-0.000338344
-0.00033666
-0.000334571
-0.000332136
-0.000329412
-0.000326446
-0.000323279
-0.000319947
-0.000316477
-0.000312895
-0.00030922
-0.000305469
-0.000301656
-0.000297793
-0.000293892
-0.000289961
-0.000286009
-0.000282044
-0.000278073
-0.000274101
-0.000270135
-0.00026618
-0.000262241
-0.000258323
-0.000254429
-0.000250563
-0.000246728
-0.000242929
-0.000239167
-0.000235446
-0.000231768
-0.000228135
-0.00022455
-0.000221014
-0.000217529
-0.000214097
-0.000210718
-0.000207395
-0.000204127
-0.000200917
-0.000197764
-0.00019467
-0.000191635
-0.00018866
-0.000185747
-0.000182894
-0.000180102
-0.000177372
-0.000174703
-0.000172095
-0.000169548
-0.00016706
-0.000164633
-0.000162265
-0.000159955
-0.000157705
-0.000155513
-0.000153378
-0.0001513
-0.000149278
-0.00014731
-0.000145395
-0.00014353
-0.000141716
-0.000139949
-0.00013823
-0.000136556
-0.000134927
-0.000133341
-0.000131797
-0.000130292
-0.000128823
-0.000127388
-0.000125982
-0.000124603
-0.00012325
-0.000121919
-0.000120611
-0.00011932
-0.000118048
-0.000116788
-0.000115539
-0.000114292
-0.000113046
-0.000111792
-0.000110532
-0.000109258
-0.000107973
-0.00010667
-0.00010535
-0.000104002
-0.000102628
-0.000101211
-9.97551e-05
-9.8243e-05
-9.66845e-05
-9.50612e-05
-9.33876e-05
-9.16409e-05
-8.98361e-05
-8.79431e-05
-8.59786e-05
-8.39077e-05
-8.17548e-05
-7.94813e-05
-7.71224e-05
-7.46324e-05
-7.20549e-05
-6.9334e-05
-6.65201e-05
-6.35474e-05
-6.04753e-05
-5.72287e-05
-5.38804e-05
-5.0346e-05
-4.6715e-05
-4.28911e-05
-3.89819e-05
-3.48746e-05
-3.06966e-05
-2.63118e-05
-2.18761e-05
-1.72164e-05
-1.25372e-05
-7.60081e-06
-2.70581e-06
0.00120902
0.00113647
0.0010261
0.000876554
0.0006977
0.000508363
0.000328676
0.000172509
4.50807e-05
-5.46187e-05
-0.000130255
-0.000185975
-0.000225809
-0.000253639
-0.000273004
-0.00028676
-0.000296894
-0.000304608
-0.000310557
-0.00031509
-0.00031842
-0.000320704
-0.000322082
-0.000322674
-0.00032259
-0.000321924
-0.000320758
-0.000319165
-0.000317208
-0.000314942
-0.000312415
-0.000309667
-0.000306734
-0.000303644
-0.000300421
-0.000297088
-0.000293662
-0.000290158
-0.000286589
-0.000282969
-0.000279307
-0.000275613
-0.000271896
-0.000268163
-0.000264422
-0.000260679
-0.00025694
-0.00025321
-0.000249494
-0.000245798
-0.000242124
-0.000238477
-0.00023486
-0.000231277
-0.00022773
-0.000224222
-0.000220756
-0.000217334
-0.000213958
-0.000210629
-0.000207351
-0.000204122
-0.000200946
-0.000197823
-0.000194755
-0.000191741
-0.000188784
-0.000185884
-0.000183041
-0.000180257
-0.000177531
-0.000174864
-0.000172257
-0.000169707
-0.000167216
-0.000164783
-0.000162408
-0.000160091
-0.00015783
-0.000155626
-0.000153479
-0.000151388
-0.000149352
-0.00014737
-0.000145441
-0.000143563
-0.000141736
-0.000139956
-0.000138223
-0.000136536
-0.000134894
-0.000133296
-0.00013174
-0.000130225
-0.000128747
-0.000127306
-0.000125897
-0.000124517
-0.000123164
-0.000121835
-0.000120527
-0.000119241
-0.000117973
-0.000116724
-0.000115485
-0.000114258
-0.000113033
-0.000111808
-0.000110576
-0.000109336
-0.000108082
-0.000106818
-0.000105534
-0.000104235
-0.000102908
-0.000101555
-0.000100159
-9.87255e-05
-9.72341e-05
-9.56971e-05
-9.40945e-05
-9.24432e-05
-9.07187e-05
-8.8938e-05
-8.7069e-05
-8.51301e-05
-8.3084e-05
-8.09575e-05
-7.87095e-05
-7.63782e-05
-7.39153e-05
-7.13674e-05
-6.86759e-05
-6.58942e-05
-6.29533e-05
-5.99153e-05
-5.67026e-05
-5.33905e-05
-4.98918e-05
-4.62997e-05
-4.25136e-05
-3.86468e-05
-3.45793e-05
-3.04482e-05
-2.6104e-05
-2.17193e-05
-1.70987e-05
-1.24717e-05
-7.57115e-06
-2.72282e-06
0.00110507
0.00103788
0.000941372
0.000815034
0.00066553
0.000505416
0.000349351
0.000209165
9.09905e-05
-4.33367e-06
-7.90304e-05
-0.000136329
-0.000179475
-0.000211509
-0.000235208
-0.000252934
-0.000266484
-0.00027707
-0.000285437
-0.000292032
-0.000297146
-0.000300993
-0.000303751
-0.000305574
-0.000306597
-0.000306932
-0.000306675
-0.00030591
-0.000304708
-0.000303132
-0.000301236
-0.000299066
-0.000296663
-0.00029406
-0.000291287
-0.000288368
-0.000285325
-0.000282177
-0.000278939
-0.000275626
-0.000272252
-0.000268827
-0.000265362
-0.000261866
-0.000258347
-0.000254814
-0.000251273
-0.00024773
-0.000244192
-0.000240663
-0.000237149
-0.000233653
-0.00023018
-0.000226734
-0.000223318
-0.000219935
-0.000216588
-0.00021328
-0.000210013
-0.000206789
-0.00020361
-0.000200478
-0.000197395
-0.00019436
-0.000191377
-0.000188445
-0.000185566
-0.000182742
-0.000179972
-0.000177258
-0.000174599
-0.000171998
-0.000169452
-0.000166963
-0.00016453
-0.000162154
-0.000159833
-0.000157567
-0.000155357
-0.000153201
-0.000151101
-0.000149054
-0.000147062
-0.000145122
-0.000143233
-0.000141395
-0.000139605
-0.000137862
-0.000136165
-0.000134512
-0.000132902
-0.000131336
-0.00012981
-0.000128325
-0.000126876
-0.000125463
-0.000124082
-0.000122729
-0.000121401
-0.000120097
-0.000118814
-0.000117552
-0.000116307
-0.00011508
-0.000113865
-0.00011266
-0.000111457
-0.000110255
-0.000109044
-0.000107827
-0.000106594
-0.00010535
-0.000104088
-0.00010281
-0.000101505
-0.000100176
-9.88032e-05
-9.7393e-05
-9.59247e-05
-9.44114e-05
-9.28321e-05
-9.12055e-05
-8.95063e-05
-8.77527e-05
-8.59116e-05
-8.40021e-05
-8.19856e-05
-7.989e-05
-7.7673e-05
-7.53745e-05
-7.29449e-05
-7.04329e-05
-6.77782e-05
-6.50357e-05
-6.21354e-05
-5.914e-05
-5.59711e-05
-5.27049e-05
-4.92531e-05
-4.57107e-05
-4.19749e-05
-3.81627e-05
-3.41489e-05
-3.00779e-05
-2.57902e-05
-2.14698e-05
-1.69072e-05
-1.23444e-05
-7.50311e-06
-2.71336e-06
0.0010136
0.000951779
0.000866883
0.000758872
0.000632531
0.000496516
0.000361359
0.000236513
0.000127982
3.77746e-05
-3.50159e-05
-9.26662e-05
-0.000137741
-0.000172665
-0.000199634
-0.000220563
-0.000237007
-0.000250113
-0.000260659
-0.000269153
-0.000275939
-0.000281272
-0.000285357
-0.000288374
-0.000290472
-0.000291783
-0.000292414
-0.000292459
-0.000291999
-0.000291102
-0.000289829
-0.000288231
-0.000286354
-0.000284235
-0.000281909
-0.000279402
-0.000276742
-0.000273948
-0.00027104
-0.000268035
-0.000264948
-0.000261791
-0.000258578
-0.000255318
-0.000252021
-0.000248697
-0.000245353
-0.000241997
-0.000238635
-0.000235273
-0.000231917
-0.000228572
-0.000225242
-0.000221932
-0.000218646
-0.000215387
-0.000212158
-0.000208963
-0.000205804
-0.000202684
-0.000199604
-0.000196567
-0.000193575
-0.000190628
-0.000187729
-0.000184878
-0.000182078
-0.000179328
-0.000176631
-0.000173986
-0.000171394
-0.000168857
-0.000166374
-0.000163944
-0.000161569
-0.000159248
-0.000156981
-0.000154767
-0.000152607
-0.0001505
-0.000148445
-0.000146444
-0.000144494
-0.000142595
-0.000140747
-0.000138947
-0.000137195
-0.000135488
-0.000133826
-0.000132207
-0.000130629
-0.000129094
-0.000127598
-0.000126142
-0.000124722
-0.000123336
-0.000121981
-0.000120655
-0.000119353
-0.000118074
-0.000116814
-0.000115575
-0.000114353
-0.000113148
-0.000111955
-0.000110772
-0.000109591
-0.000108411
-0.000107222
-0.000106027
-0.000104815
-0.000103593
-0.000102351
-0.000101095
-9.98124e-05
-9.85063e-05
-9.71573e-05
-9.57718e-05
-9.4328e-05
-9.28398e-05
-9.12855e-05
-8.96851e-05
-8.80129e-05
-8.62885e-05
-8.44778e-05
-8.26007e-05
-8.06177e-05
-7.85568e-05
-7.63756e-05
-7.41143e-05
-7.17237e-05
-6.92526e-05
-6.66413e-05
-6.39443e-05
-6.10924e-05
-5.81472e-05
-5.50316e-05
-5.18202e-05
-4.84261e-05
-4.49435e-05
-4.12701e-05
-3.75237e-05
-3.35773e-05
-2.95783e-05
-2.53634e-05
-2.11188e-05
-1.66345e-05
-1.2147e-05
-7.38941e-06
-2.67134e-06
0.000932571
0.000875913
0.000800834
0.00070758
0.000599737
0.000483483
0.000366417
0.000255829
0.000157027
7.25463e-05
2.48137e-06
-5.45476e-05
-0.00010046
-0.000137182
-0.00016647
-0.000189869
-0.000208684
-0.000223948
-0.000236417
-0.000246625
-0.000254948
-0.000261665
-0.000267004
-0.000271157
-0.000274288
-0.00027654
-0.000278032
-0.000278866
-0.00027913
-0.000278899
-0.000278238
-0.000277205
-0.000275848
-0.000274209
-0.000272327
-0.000270232
-0.000267952
-0.000265513
-0.000262935
-0.000260238
-0.000257438
-0.00025455
-0.000251589
-0.000248566
-0.000245492
-0.000242377
-0.000239231
-0.000236062
-0.000232877
-0.000229682
-0.000226485
-0.000223291
-0.000220104
-0.000216931
-0.000213775
-0.00021064
-0.000207529
-0.000204447
-0.000201396
-0.000198379
-0.000195399
-0.000192457
-0.000189555
-0.000186696
-0.000183881
-0.000181111
-0.000178388
-0.000175713
-0.000173087
-0.000170511
-0.000167986
-0.000165512
-0.00016309
-0.00016072
-0.000158402
-0.000156136
-0.000153921
-0.000151759
-0.000149648
-0.000147588
-0.000145579
-0.000143621
-0.000141714
-0.000139856
-0.000138046
-0.000136284
-0.000134568
-0.000132897
-0.000131268
-0.000129682
-0.000128136
-0.000126631
-0.000125164
-0.000123736
-0.000122342
-0.000120983
-0.000119653
-0.000118351
-0.000117073
-0.000115818
-0.000114582
-0.000113365
-0.000112164
-0.00011098
-0.000109807
-0.000108645
-0.000107484
-0.000106325
-0.000105157
-0.000103983
-0.000102791
-0.00010159
-0.000100369
-9.91338e-05
-9.7872e-05
-9.65883e-05
-9.52625e-05
-9.39017e-05
-9.2483e-05
-9.10209e-05
-8.94926e-05
-8.79193e-05
-8.6275e-05
-8.45803e-05
-8.28016e-05
-8.09582e-05
-7.90114e-05
-7.69881e-05
-7.48466e-05
-7.26261e-05
-7.0279e-05
-6.78527e-05
-6.529e-05
-6.26432e-05
-5.98461e-05
-5.69572e-05
-5.39029e-05
-5.07538e-05
-4.74272e-05
-4.4013e-05
-4.04128e-05
-3.67413e-05
-3.28751e-05
-2.89569e-05
-2.48303e-05
-2.06707e-05
-1.62833e-05
-1.18816e-05
-7.2302e-06
-2.59834e-06
0.000860268
0.000808447
0.000741747
0.000660588
0.000567742
0.000467747
0.00036615
0.00026848
0.000179162
0.000100797
3.41159e-05
-2.15126e-05
-6.74059e-05
-0.000105049
-0.000135844
-0.000161042
-0.000181719
-0.000198769
-0.000212891
-0.000224609
-0.000234311
-0.000242293
-0.000248792
-0.000254009
-0.000258117
-0.000261266
-0.000263583
-0.000265177
-0.000266143
-0.00026656
-0.000266497
-0.000266017
-0.000265172
-0.000264007
-0.000262564
-0.000260877
-0.000258977
-0.00025689
-0.000254642
-0.000252252
-0.00024974
-0.000247122
-0.000244413
-0.000241628
-0.000238778
-0.000235875
-0.000232928
-0.000229946
-0.000226939
-0.000223914
-0.000220876
-0.000217834
-0.000214792
-0.000211757
-0.000208731
-0.000205721
-0.00020273
-0.000199762
-0.00019682
-0.000193908
-0.000191027
-0.000188181
-0.000185371
-0.0001826
-0.000179869
-0.00017718
-0.000174535
-0.000171935
-0.000169381
-0.000166875
-0.000164416
-0.000162006
-0.000159646
-0.000157335
-0.000155073
-0.000152862
-0.000150701
-0.000148589
-0.000146527
-0.000144514
-0.00014255
-0.000140636
-0.00013877
-0.000136952
-0.000135181
-0.000133456
-0.000131775
-0.000130139
-0.000128543
-0.000126989
-0.000125474
-0.000123998
-0.00012256
-0.000121158
-0.000119791
-0.000118456
-0.00011715
-0.000115872
-0.000114617
-0.000113385
-0.00011217
-0.000110975
-0.000109795
-0.00010863
-0.000107476
-0.000106332
-0.000105191
-0.000104051
-0.000102903
-0.000101748
-0.000100577
-9.93961e-05
-9.81945e-05
-9.69795e-05
-9.57377e-05
-9.44749e-05
-9.31714e-05
-9.18344e-05
-9.04409e-05
-8.9005e-05
-8.75038e-05
-8.5958e-05
-8.43424e-05
-8.26774e-05
-8.09311e-05
-7.9122e-05
-7.7213e-05
-7.52288e-05
-7.31301e-05
-7.0953e-05
-6.8653e-05
-6.62745e-05
-6.37645e-05
-6.11712e-05
-5.84338e-05
-5.56054e-05
-5.26186e-05
-4.95375e-05
-4.62861e-05
-4.29469e-05
-3.94295e-05
-3.58395e-05
-3.20644e-05
-2.82338e-05
-2.42081e-05
-2.01408e-05
-1.58653e-05
-1.15596e-05
-7.03244e-06
-2.50236e-06
0.000795294
0.000747947
0.000688467
0.00061738
0.000536873
0.00045035
0.000361914
0.000275741
0.000195395
0.000123281
6.04593e-05
6.84674e-06
-3.83495e-05
-7.62111e-05
-0.000107839
-0.000134238
-0.000156292
-0.000174755
-0.000190246
-0.000203256
-0.000214166
-0.000223275
-0.000230825
-0.00023702
-0.000242036
-0.000246027
-0.000249126
-0.000251445
-0.000253082
-0.000254123
-0.00025464
-0.000254698
-0.000254352
-0.000253652
-0.000252641
-0.000251356
-0.000249831
-0.000248094
-0.000246173
-0.000244089
-0.000241864
-0.000239515
-0.00023706
-0.000234513
-0.000231887
-0.000229196
-0.000226449
-0.000223657
-0.000220829
-0.000217974
-0.000215098
-0.00021221
-0.000209314
-0.000206417
-0.000203525
-0.000200641
-0.000197771
-0.000194919
-0.000192087
-0.00018928
-0.000186501
-0.000183752
-0.000181035
-0.000178353
-0.000175708
-0.000173102
-0.000170536
-0.000168012
-0.000165532
-0.000163095
-0.000160704
-0.00015836
-0.000156061
-0.00015381
-0.000151607
-0.000149451
-0.000147343
-0.000145282
-0.00014327
-0.000141305
-0.000139387
-0.000137517
-0.000135693
-0.000133915
-0.000132183
-0.000130495
-0.00012885
-0.000127247
-0.000125685
-0.000124163
-0.000122678
-0.000121232
-0.000119821
-0.000118447
-0.000117104
-0.000115794
-0.000114512
-0.000113257
-0.000112024
-0.000110814
-0.000109621
-0.000108447
-0.000107286
-0.000106141
-0.000105005
-0.00010388
-0.000102756
-0.000101635
-0.000100505
-9.93698e-05
-9.82187e-05
-9.70574e-05
-9.58755e-05
-9.46802e-05
-9.34579e-05
-9.22152e-05
-9.0933e-05
-8.96188e-05
-8.82503e-05
-8.68406e-05
-8.53674e-05
-8.38497e-05
-8.22639e-05
-8.06288e-05
-7.89154e-05
-7.71404e-05
-7.52701e-05
-7.3326e-05
-7.12722e-05
-6.91405e-05
-6.68908e-05
-6.45624e-05
-6.21083e-05
-5.95709e-05
-5.68966e-05
-5.41317e-05
-5.12168e-05
-4.82077e-05
-4.50375e-05
-4.17783e-05
-3.8351e-05
-3.48479e-05
-3.11721e-05
-2.74342e-05
-2.35188e-05
-1.955e-05
-1.5397e-05
-1.11971e-05
-6.80697e-06
-2.39404e-06
0.000736528
0.000693297
0.000640095
0.000577504
0.000507278
0.000432008
0.000354762
0.000278703
0.000206652
0.000140705
8.20284e-05
3.08986e-05
-1.3061e-05
-5.05755e-05
-8.24746e-05
-0.000109557
-0.000132541
-0.000152052
-0.000168623
-0.000182697
-0.000194633
-0.000204721
-0.000213202
-0.000220277
-0.000226123
-0.000230892
-0.000234719
-0.00023772
-0.000239994
-0.00024163
-0.000242702
-0.000243278
-0.000243416
-0.000243168
-0.000242578
-0.000241687
-0.000240529
-0.000239138
-0.000237539
-0.000235758
-0.000233818
-0.000231737
-0.000229534
-0.000227224
-0.000224823
-0.000222344
-0.000219798
-0.000217196
-0.000214549
-0.000211865
-0.000209152
-0.000206418
-0.00020367
-0.000200914
-0.000198156
-0.000195401
-0.000192654
-0.000189918
-0.000187199
-0.0001845
-0.000181823
-0.000179173
-0.000176551
-0.00017396
-0.000171403
-0.000168881
-0.000166396
-0.00016395
-0.000161544
-0.000159179
-0.000156857
-0.000154579
-0.000152344
-0.000150155
-0.00014801
-0.000145911
-0.000143858
-0.00014185
-0.000139888
-0.000137972
-0.000136101
-0.000134275
-0.000132495
-0.000130758
-0.000129065
-0.000127415
-0.000125807
-0.000124239
-0.000122711
-0.000121221
-0.000119768
-0.000118352
-0.00011697
-0.000115622
-0.000114306
-0.00011302
-0.000111762
-0.00011053
-0.00010932
-0.000108131
-0.00010696
-0.000105807
-0.000104667
-0.000103542
-0.000102424
-0.000101317
-0.000100211
-9.91075e-05
-9.79962e-05
-9.68802e-05
-9.57489e-05
-9.46076e-05
-9.34459e-05
-9.22703e-05
-9.1068e-05
-8.98452e-05
-8.85844e-05
-8.72926e-05
-8.59492e-05
-8.45657e-05
-8.31214e-05
-8.16326e-05
-8.00778e-05
-7.84733e-05
-7.67937e-05
-7.50532e-05
-7.32225e-05
-7.13192e-05
-6.93119e-05
-6.72272e-05
-6.50302e-05
-6.27541e-05
-6.03585e-05
-5.78792e-05
-5.52708e-05
-5.25717e-05
-4.9732e-05
-4.67978e-05
-4.37129e-05
-4.05375e-05
-3.72056e-05
-3.37935e-05
-3.02232e-05
-2.65827e-05
-2.27834e-05
-1.89193e-05
-1.4895e-05
-1.08104e-05
-6.56513e-06
-2.28283e-06
0.000683066
0.000643615
0.000595911
0.000540563
0.000478993
0.000413193
0.000345482
0.000278266
0.00021376
0.00015373
9.93173e-05
5.09974e-05
8.69712e-06
-2.80122e-05
-5.97201e-05
-8.70423e-05
-0.000110554
-0.00013077
-0.000148138
-0.000163046
-0.00017582
-0.000186733
-0.000196016
-0.000203865
-0.000210453
-0.000215928
-0.000220424
-0.000224057
-0.000226926
-0.000229122
-0.00023072
-0.00023179
-0.000232391
-0.000232577
-0.000232395
-0.000231887
-0.000231089
-0.000230034
-0.000228752
-0.00022727
-0.00022561
-0.000223794
-0.000221841
-0.000219768
-0.00021759
-0.000215323
-0.000212977
-0.000210566
-0.000208099
-0.000205587
-0.000203038
-0.00020046
-0.000197861
-0.000195247
-0.000192625
-0.000189999
-0.000187376
-0.00018476
-0.000182154
-0.000179564
-0.000176993
-0.000174443
-0.000171917
-0.00016942
-0.000166952
-0.000164516
-0.000162113
-0.000159747
-0.000157417
-0.000155126
-0.000152875
-0.000150665
-0.000148496
-0.000146369
-0.000144286
-0.000142245
-0.000140248
-0.000138294
-0.000136384
-0.000134518
-0.000132696
-0.000130916
-0.00012918
-0.000127486
-0.000125834
-0.000124224
-0.000122653
-0.000121121
-0.000119628
-0.000118171
-0.000116751
-0.000115365
-0.000114013
-0.000112694
-0.000111404
-0.000110145
-0.000108911
-0.000107703
-0.000106516
-0.000105351
-0.000104202
-0.00010307
-0.000101951
-0.000100846
-9.97485e-05
-9.86601e-05
-9.75725e-05
-9.64876e-05
-9.53953e-05
-9.42987e-05
-9.31877e-05
-9.20668e-05
-9.09261e-05
-8.97711e-05
-8.85898e-05
-8.73876e-05
-8.61489e-05
-8.488e-05
-8.35622e-05
-8.22055e-05
-8.0791e-05
-7.9332e-05
-7.78097e-05
-7.62371e-05
-7.45927e-05
-7.28878e-05
-7.10977e-05
-6.92362e-05
-6.7277e-05
-6.52408e-05
-6.30985e-05
-6.08768e-05
-5.85421e-05
-5.61233e-05
-5.35831e-05
-5.09521e-05
-4.81899e-05
-4.53332e-05
-4.23366e-05
-3.92479e-05
-3.60151e-05
-3.26979e-05
-2.92368e-05
-2.56984e-05
-2.20189e-05
-1.82654e-05
-1.43731e-05
-1.04122e-05
-6.31612e-06
-2.17496e-06
0.000634172
0.000598188
0.000555328
0.000506206
0.000451986
0.000394214
0.000334656
0.000275151
0.000217437
0.000162975
0.000112806
6.74968e-05
2.71726e-05
-8.36533e-06
-3.95014e-05
-6.66888e-05
-9.03776e-05
-0.000110983
-0.000128879
-0.000144395
-0.000157819
-0.000169399
-0.000179352
-0.000187864