/*--------------------------------*- C++ -*----------------------------------*\
| =========                 |                                                 |
| \\      /  F ield         | OpenFOAM: The Open Source CFD Toolbox           |
|  \\    /   O peration     | Version:  2.3.0                                 |
|   \\  /    A nd           | Web:      www.OpenFOAM.org                      |
|    \\/     M anipulation  |                                                 |
\*---------------------------------------------------------------------------*/
FoamFile
{
    version     2.0;
    format      ascii;
    class       volVectorField;
    location    "0.25";
    object      U_0;
}
// * * * * * * * * * * * * * * * * * * * * * * * * * * * * * * * * * * * * * //

dimensions      [0 1 -1 0 0 0 0];

internalField   nonuniform List<vector> 
2945
(
(0.161241 0.00612554 0)
(0.122478 0.00660325 0)
(0.0905678 0.00473277 0)
(0.067219 0.00260669 0)
(0.0524942 0.00110958 0)
(0.0437545 0.000362775 0)
(0.0385023 9.74148e-05 0)
(0.0351794 4.05283e-05 0)
(0.0328456 5.20321e-05 0)
(0.030992 7.23557e-05 0)
(0.0293934 8.22609e-05 0)
(0.0279734 8.14761e-05 0)
(0.0267091 7.50505e-05 0)
(0.0255865 6.70595e-05 0)
(0.0245896 5.93996e-05 0)
(0.0237013 5.27013e-05 0)
(0.0229053 4.6963e-05 0)
(0.0221873 4.20992e-05 0)
(0.0215346 3.81879e-05 0)
(0.0209359 3.5093e-05 0)
(0.0203829 3.2411e-05 0)
(0.0198711 2.97862e-05 0)
(0.0193989 2.70902e-05 0)
(0.0189647 2.45221e-05 0)
(0.0185651 2.23774e-05 0)
(0.0181957 2.06489e-05 0)
(0.0178531 1.90905e-05 0)
(0.0175359 1.75366e-05 0)
(0.0172434 1.60018e-05 0)
(0.0169747 1.45763e-05 0)
(0.0167284 1.32819e-05 0)
(0.0165032 1.20619e-05 0)
(0.0162984 1.08867e-05 0)
(0.0161135 9.75894e-06 0)
(0.015948 8.66509e-06 0)
(0.0158016 7.59019e-06 0)
(0.015674 6.53913e-06 0)
(0.0155648 5.51969e-06 0)
(0.0154735 4.53053e-06 0)
(0.0154 3.52693e-06 0)
(0.0153441 2.43956e-06 0)
(0.0153064 1.31694e-06 0)
(0.0152865 3.51465e-07 0)
(0.0152836 -6.0484e-07 0)
(0.0152948 -1.48042e-06 0)
(0.0153165 -2.05928e-06 0)
(0.0153444 -2.35826e-06 0)
(0.0153751 -2.39947e-06 0)
(0.0154058 -2.26552e-06 0)
(0.0154348 -2.04963e-06 0)
(0.0154613 -1.80486e-06 0)
(0.0154854 -1.58918e-06 0)
(0.0155073 -1.40772e-06 0)
(0.0155274 -1.26416e-06 0)
(0.015546 -1.1439e-06 0)
(0.0155633 -1.04548e-06 0)
(0.0155795 -9.5723e-07 0)
(0.0155946 -8.81945e-07 0)
(0.0156087 -8.06084e-07 0)
(0.0156217 -7.3753e-07 0)
(0.0156336 -6.64671e-07 0)
(0.0156446 -5.9894e-07 0)
(0.0156543 -5.30824e-07 0)
(0.0156632 -4.74428e-07 0)
(0.015671 -4.16631e-07 0)
(0.015678 -3.71066e-07 0)
(0.0156841 -3.21409e-07 0)
(0.0156895 -2.82245e-07 0)
(0.0156941 -2.37528e-07 0)
(0.0156981 -2.02927e-07 0)
(0.0157014 -1.65219e-07 0)
(0.0157041 -1.36678e-07 0)
(0.0157066 -1.10965e-07 0)
(0.0157081 -8.76312e-08 0)
(0.0157102 -7.80831e-08 0)
(0.190543 0.0111251 0)
(0.183348 0.0137077 0)
(0.17221 0.012262 0)
(0.158165 0.00934513 0)
(0.143502 0.0063432 0)
(0.1299 0.00402925 0)
(0.11822 0.00254583 0)
(0.108689 0.00170139 0)
(0.101038 0.00124777 0)
(0.094818 0.000997547 0)
(0.0896194 0.000841978 0)
(0.0851607 0.000728687 0)
(0.081272 0.000636592 0)
(0.0778479 0.000558548 0)
(0.0748125 0.000492092 0)
(0.0721042 0.000436028 0)
(0.0696711 0.000388879 0)
(0.0674693 0.00034921 0)
(0.0654625 0.00031617 0)
(0.0636223 0.000288466 0)
(0.0619266 0.000264183 0)
(0.0603604 0.000241736 0)
(0.0589136 0.000220456 0)
(0.0575773 0.000200788 0)
(0.0563418 0.000183475 0)
(0.0551976 0.000168328 0)
(0.0541377 0.000154438 0)
(0.0531573 0.000141184 0)
(0.0522531 0.000128538 0)
(0.0514214 0.00011672 0)
(0.0506585 0.000105731 0)
(0.0499614 9.53359e-05 0)
(0.0493277 8.53948e-05 0)
(0.0487557 7.58749e-05 0)
(0.0482438 6.6709e-05 0)
(0.0477909 5.78404e-05 0)
(0.0473957 4.92813e-05 0)
(0.047057 4.10578e-05 0)
(0.0467736 3.31758e-05 0)
(0.0465443 2.55327e-05 0)
(0.0463682 1.79873e-05 0)
(0.0462441 1.06581e-05 0)
(0.0461689 4.05715e-06 0)
(0.0461372 -1.67277e-06 0)
(0.0461406 -6.53466e-06 0)
(0.0461696 -9.45044e-06 0)
(0.0462144 -1.08475e-05 0)
(0.0462671 -1.11022e-05 0)
(0.0463219 -1.06094e-05 0)
(0.0463754 -9.76454e-06 0)
(0.0464258 -8.81066e-06 0)
(0.0464732 -7.95892e-06 0)
(0.0465176 -7.23198e-06 0)
(0.0465597 -6.63918e-06 0)
(0.0465996 -6.12511e-06 0)
(0.0466379 -5.678e-06 0)
(0.0466741 -5.25574e-06 0)
(0.0467087 -4.86675e-06 0)
(0.046741 -4.46702e-06 0)
(0.0467714 -4.08663e-06 0)
(0.0467993 -3.68937e-06 0)
(0.0468251 -3.31913e-06 0)
(0.0468482 -2.94396e-06 0)
(0.0468693 -2.61689e-06 0)
(0.0468878 -2.29004e-06 0)
(0.0469044 -2.0171e-06 0)
(0.0469188 -1.73512e-06 0)
(0.0469314 -1.50587e-06 0)
(0.0469422 -1.26034e-06 0)
(0.0469513 -1.07182e-06 0)
(0.0469592 -8.68648e-07 0)
(0.0469651 -7.27152e-07 0)
(0.0469711 -5.76941e-07 0)
(0.0469743 -4.86364e-07 0)
(0.0469796 -3.89776e-07 0)
(0.191434 0.0101046 0)
(0.193136 0.0139804 0)
(0.193913 0.0140307 0)
(0.191509 0.0120802 0)
(0.186029 0.009608 0)
(0.178679 0.00743577 0)
(0.1707 0.00578235 0)
(0.162936 0.00459837 0)
(0.155729 0.00375841 0)
(0.149111 0.00314636 0)
(0.142996 0.00268158 0)
(0.137317 0.00231286 0)
(0.132054 0.00201022 0)
(0.127212 0.00175746 0)
(0.122783 0.00154572 0)
(0.118745 0.00136898 0)
(0.115057 0.0012213 0)
(0.111674 0.0010973 0)
(0.108557 0.00099303 0)
(0.105672 0.000904535 0)
(0.102997 0.000827273 0)
(0.10051 0.0007573 0)
(0.0981974 0.000692521 0)
(0.0960443 0.000633131 0)
(0.0940378 0.000579942 0)
(0.0921669 0.000532248 0)
(0.0904235 0.000488229 0)
(0.088802 0.000446622 0)
(0.0872981 0.00040725 0)
(0.0859071 0.000370367 0)
(0.0846241 0.00033583 0)
(0.0834453 0.000303119 0)
(0.0823674 0.000271888 0)
(0.0813878 0.000241986 0)
(0.0805043 0.000213239 0)
(0.0797151 0.000185522 0)
(0.0790183 0.000158837 0)
(0.0784121 0.000133225 0)
(0.0778946 0.000108709 0)
(0.0774637 8.51671e-05 0)
(0.0771173 6.24968e-05 0)
(0.0768524 4.09972e-05 0)
(0.0766635 2.15698e-05 0)
(0.076542 5.33009e-06 0)
(0.0764763 -7.33026e-06 0)
(0.0764535 -1.62755e-05 0)
(0.0764599 -2.08669e-05 0)
(0.0764849 -2.24741e-05 0)
(0.0765196 -2.2206e-05 0)
(0.0765592 -2.09852e-05 0)
(0.0766002 -1.94113e-05 0)
(0.0766419 -1.79684e-05 0)
(0.0766837 -1.67193e-05 0)
(0.0767259 -1.5683e-05 0)
(0.0767681 -1.47577e-05 0)
(0.0768106 -1.39134e-05 0)
(0.0768524 -1.30691e-05 0)
(0.076894 -1.22394e-05 0)
(0.076934 -1.1348e-05 0)
(0.0769728 -1.04585e-05 0)
(0.077009 -9.51134e-06 0)
(0.0770434 -8.59981e-06 0)
(0.0770747 -7.66711e-06 0)
(0.0771038 -6.82554e-06 0)
(0.0771295 -5.98109e-06 0)
(0.0771529 -5.25374e-06 0)
(0.0771732 -4.5109e-06 0)
(0.077191 -3.8989e-06 0)
(0.0772063 -3.25562e-06 0)
(0.0772191 -2.76741e-06 0)
(0.0772304 -2.23611e-06 0)
(0.0772387 -1.88919e-06 0)
(0.0772475 -1.47748e-06 0)
(0.0772517 -1.28715e-06 0)
(0.0772597 -9.85159e-07 0)
(0.192025 0.00875023 0)
(0.193891 0.0124519 0)
(0.197165 0.0133053 0)
(0.199355 0.0121988 0)
(0.19926 0.0104137 0)
(0.1971 0.00871833 0)
(0.193681 0.00734612 0)
(0.189736 0.00628463 0)
(0.185673 0.00546817 0)
(0.181612 0.0048338 0)
(0.177529 0.00432852 0)
(0.17338 0.00390521 0)
(0.169169 0.00352867 0)
(0.164956 0.00318175 0)
(0.160827 0.00286347 0)
(0.156855 0.00257936 0)
(0.153077 0.00233186 0)
(0.149496 0.00211856 0)
(0.146092 0.00193438 0)
(0.142853 0.00177336 0)
(0.139777 0.00162997 0)
(0.136866 0.00149969 0)
(0.134119 0.00137974 0)
(0.131524 0.00126983 0)
(0.129067 0.00117024 0)
(0.12674 0.00107935 0)
(0.124539 0.000994433 0)
(0.122466 0.0009137 0)
(0.120519 0.000836946 0)
(0.118698 0.000764561 0)
(0.117 0.000696312 0)
(0.115423 0.000631404 0)
(0.113966 0.000569281 0)
(0.112626 0.00050966 0)
(0.111403 0.000452265 0)
(0.110294 0.000396899 0)
(0.1093 0.000343523 0)
(0.108417 0.000292192 0)
(0.107644 0.000242986 0)
(0.10698 0.000195815 0)
(0.106421 0.00015064 0)
(0.105964 0.000108076 0)
(0.105602 6.95831e-05 0)
(0.105327 3.70939e-05 0)
(0.105126 1.18807e-05 0)
(0.104986 -6.43914e-06 0)
(0.104892 -1.79579e-05 0)
(0.104833 -2.39755e-05 0)
(0.104797 -2.6225e-05 0)
(0.104777 -2.64317e-05 0)
(0.104769 -2.56363e-05 0)
(0.10477 -2.47109e-05 0)
(0.104777 -2.38796e-05 0)
(0.104792 -2.32001e-05 0)
(0.104811 -2.25381e-05 0)
(0.104836 -2.18659e-05 0)
(0.104864 -2.10728e-05 0)
(0.104896 -2.01823e-05 0)
(0.10493 -1.90889e-05 0)
(0.104965 -1.79006e-05 0)
(0.105 -1.65373e-05 0)
(0.105034 -1.51559e-05 0)
(0.105067 -1.36754e-05 0)
(0.105099 -1.22879e-05 0)
(0.105128 -1.08483e-05 0)
(0.105155 -9.57312e-06 0)
(0.105179 -8.24522e-06 0)
(0.105201 -7.1389e-06 0)
(0.10522 -5.96396e-06 0)
(0.105235 -5.08123e-06 0)
(0.105249 -4.09896e-06 0)
(0.105259 -3.48644e-06 0)
(0.10527 -2.70545e-06 0)
(0.105275 -2.38918e-06 0)
(0.105285 -1.7976e-06 0)
(0.192976 0.00795862 0)
(0.194264 0.0110682 0)
(0.197149 0.0122437 0)
(0.200091 0.0116499 0)
(0.201764 0.010307 0)
(0.20191 0.00894436 0)
(0.200959 0.00780848 0)
(0.199461 0.00690244 0)
(0.197769 0.00618512 0)
(0.196007 0.00562336 0)
(0.194146 0.0051861 0)
(0.192106 0.00483308 0)
(0.189824 0.00452009 0)
(0.187295 0.00421401 0)
(0.184579 0.00390428 0)
(0.181768 0.0036 0)
(0.17895 0.00331641 0)
(0.176176 0.00306444 0)
(0.173445 0.0028446 0)
(0.170739 0.00264785 0)
(0.168057 0.00246433 0)
(0.165428 0.00228973 0)
(0.162888 0.00212544 0)
(0.160447 0.00197504 0)
(0.15809 0.00183894 0)
(0.1558 0.00171302 0)
(0.153579 0.00159258 0)
(0.151438 0.0014755 0)
(0.149387 0.00136226 0)
(0.147433 0.0012539 0)
(0.145578 0.00115037 0)
(0.143826 0.00105079 0)
(0.142179 0.000954612 0)
(0.140642 0.000861627 0)
(0.139217 0.000771621 0)
(0.137902 0.000684449 0)
(0.1367 0.00060006 0)
(0.135611 0.000518525 0)
(0.134633 0.000440041 0)
(0.133767 0.000364649 0)
(0.13301 0.000292454 0)
(0.13236 0.000224401 0)
(0.131811 0.000162483 0)
(0.131356 0.000108962 0)
(0.130986 6.5783e-05 0)
(0.130688 3.38251e-05 0)
(0.130451 1.14089e-05 0)
(0.130263 -2.77056e-06 0)
(0.130114 -1.08663e-05 0)
(0.129995 -1.52779e-05 0)
(0.129899 -1.81025e-05 0)
(0.129824 -1.99665e-05 0)
(0.129766 -2.14478e-05 0)
(0.129723 -2.27841e-05 0)
(0.129693 -2.3852e-05 0)
(0.129676 -2.46281e-05 0)
(0.129668 -2.50083e-05 0)
(0.12967 -2.50399e-05 0)
(0.129679 -2.45896e-05 0)
(0.129695 -2.38261e-05 0)
(0.129715 -2.26493e-05 0)
(0.129739 -2.12948e-05 0)
(0.129764 -1.96523e-05 0)
(0.129791 -1.80116e-05 0)
(0.129817 -1.61654e-05 0)
(0.129844 -1.44597e-05 0)
(0.129868 -1.25788e-05 0)
(0.129891 -1.09773e-05 0)
(0.129911 -9.2116e-06 0)
(0.129929 -7.88558e-06 0)
(0.129945 -6.36309e-06 0)
(0.129956 -5.43774e-06 0)
(0.129969 -4.20315e-06 0)
(0.129974 -3.73026e-06 0)
(0.129986 -2.78175e-06 0)
(0.193738 0.00749405 0)
(0.194761 0.010026 0)
(0.197031 0.0113341 0)
(0.199692 0.0110981 0)
(0.201657 0.0100513 0)
(0.202524 0.00888486 0)
(0.20252 0.00788219 0)
(0.202071 0.0070671 0)
(0.20149 0.00640893 0)
(0.200906 0.0058891 0)
(0.200312 0.00549499 0)
(0.199633 0.0052016 0)
(0.19878 0.00496637 0)
(0.197685 0.0047417 0)
(0.196346 0.00449772 0)
(0.194811 0.00423174 0)
(0.193161 0.00395999 0)
(0.191475 0.00370665 0)
(0.189781 0.00348822 0)
(0.188048 0.00329982 0)
(0.186232 0.00312131 0)
(0.184345 0.00293748 0)
(0.182456 0.00275162 0)
(0.180616 0.00257873 0)
(0.178816 0.00242643 0)
(0.177024 0.0022881 0)
(0.175223 0.00215321 0)
(0.173429 0.00201717 0)
(0.171662 0.00188153 0)
(0.169937 0.00174907 0)
(0.168261 0.00162028 0)
(0.166639 0.00149413 0)
(0.165082 0.00137016 0)
(0.163597 0.00124856 0)
(0.162192 0.00112956 0)
(0.160871 0.00101336 0)
(0.159638 0.000900059 0)
(0.158495 0.000789798 0)
(0.157444 0.000682934 0)
(0.156487 0.000579736 0)
(0.155624 0.000480543 0)
(0.154854 0.000386597 0)
(0.154174 0.000300289 0)
(0.15358 0.000224427 0)
(0.153066 0.00016129 0)
(0.152625 0.000111711 0)
(0.152249 7.50467e-05 0)
(0.151929 4.9306e-05 0)
(0.151657 3.17962e-05 0)
(0.151424 1.97358e-05 0)
(0.151225 1.0572e-05 0)
(0.151056 3.33242e-06 0)
(0.150913 -2.76314e-06 0)
(0.150793 -8.11626e-06 0)
(0.150695 -1.28316e-05 0)
(0.150616 -1.68976e-05 0)
(0.150554 -2.0097e-05 0)
(0.150509 -2.25485e-05 0)
(0.150477 -2.40817e-05 0)
(0.150458 -2.49347e-05 0)
(0.150449 -2.4997e-05 0)
(0.150449 -2.46026e-05 0)
(0.150455 -2.36083e-05 0)
(0.150467 -2.24119e-05 0)
(0.150482 -2.07218e-05 0)
(0.150501 -1.90262e-05 0)
(0.150521 -1.68921e-05 0)
(0.150541 -1.49934e-05 0)
(0.15056 -1.27252e-05 0)
(0.150577 -1.09947e-05 0)
(0.150594 -8.90784e-06 0)
(0.150605 -7.64569e-06 0)
(0.150619 -5.90187e-06 0)
(0.150625 -5.24385e-06 0)
(0.150637 -3.8801e-06 0)
(0.194358 0.00717766 0)
(0.195236 0.00922583 0)
(0.197048 0.010534 0)
(0.199314 0.0105651 0)
(0.201197 0.00976432 0)
(0.202257 0.00874747 0)
(0.202587 0.00783451 0)
(0.202519 0.00707768 0)
(0.202339 0.0064538 0)
(0.202182 0.00595005 0)
(0.20207 0.00556546 0)
(0.201966 0.00529253 0)
(0.201797 0.00510083 0)
(0.201487 0.0049383 0)
(0.200995 0.00475902 0)
(0.20033 0.00454445 0)
(0.199532 0.00430089 0)
(0.198672 0.00405491 0)
(0.197813 0.00384119 0)
(0.196941 0.00367314 0)
(0.195974 0.00352672 0)
(0.194871 0.0033645 0)
(0.193692 0.00317743 0)
(0.192531 0.00299194 0)
(0.19141 0.00283364 0)
(0.19028 0.0027 0)
(0.189099 0.00257198 0)
(0.187868 0.00243729 0)
(0.186613 0.00229689 0)
(0.185354 0.00215648 0)
(0.184097 0.00201801 0)
(0.182847 0.00187996 0)
(0.181611 0.0017413 0)
(0.180403 0.00160247 0)
(0.179233 0.00146443 0)
(0.178108 0.00132807 0)
(0.177034 0.00119387 0)
(0.176015 0.00106212 0)
(0.175055 0.000933374 0)
(0.174156 0.000808144 0)
(0.173322 0.000686986 0)
(0.172554 0.000571451 0)
(0.171852 0.000464313 0)
(0.171215 0.000368674 0)
(0.17064 0.000287035 0)
(0.170126 0.000220668 0)
(0.169668 0.000169122 0)
(0.169262 0.000130304 0)
(0.168902 0.000101402 0)
(0.168583 7.94574e-05 0)
(0.1683 6.21824e-05 0)
(0.16805 4.76577e-05 0)
(0.167829 3.50183e-05 0)
(0.167636 2.37512e-05 0)
(0.167469 1.36949e-05 0)
(0.167326 4.75701e-06 0)
(0.167205 -2.84157e-06 0)
(0.167106 -9.22363e-06 0)
(0.167026 -1.42888e-05 0)
(0.166964 -1.8153e-05 0)
(0.166916 -2.07203e-05 0)
(0.166883 -2.24444e-05 0)
(0.16686 -2.31667e-05 0)
(0.166849 -2.34043e-05 0)
(0.166845 -2.27638e-05 0)
(0.166849 -2.18551e-05 0)
(0.166857 -2.00986e-05 0)
(0.16687 -1.83808e-05 0)
(0.166884 -1.59379e-05 0)
(0.166897 -1.4006e-05 0)
(0.166912 -1.14612e-05 0)
(0.166922 -9.90569e-06 0)
(0.166935 -7.65602e-06 0)
(0.16694 -6.80559e-06 0)
(0.166951 -4.99351e-06 0)
(0.194902 0.00692512 0)
(0.195671 0.00859105 0)
(0.197145 0.00980275 0)
(0.199055 0.010016 0)
(0.200784 0.0094367 0)
(0.2019 0.00856615 0)
(0.202384 0.00773656 0)
(0.202482 0.00703073 0)
(0.202447 0.00643766 0)
(0.202413 0.00594747 0)
(0.20242 0.00556246 0)
(0.202468 0.00528808 0)
(0.202519 0.00511039 0)
(0.202508 0.00498081 0)
(0.202399 0.00484405 0)
(0.202182 0.00467105 0)
(0.201858 0.00445685 0)
(0.201465 0.00421837 0)
(0.20108 0.00399902 0)
(0.20073 0.00383893 0)
(0.200337 0.00372579 0)
(0.199807 0.00360015 0)
(0.199163 0.00342538 0)
(0.198516 0.00322959 0)
(0.197925 0.00306244 0)
(0.197347 0.002936 0)
(0.196717 0.00282473 0)
(0.196017 0.00270372 0)
(0.195271 0.00256977 0)
(0.194501 0.00243196 0)
(0.193713 0.00229526 0)
(0.192905 0.00215782 0)
(0.192079 0.00201706 0)
(0.191246 0.00187292 0)
(0.190417 0.00172691 0)
(0.189602 0.00158085 0)
(0.188803 0.00143572 0)
(0.188028 0.00129203 0)
(0.187277 0.00115054 0)
(0.186557 0.00101193 0)
(0.185868 0.000876897 0)
(0.185214 0.000747164 0)
(0.184597 0.000625709 0)
(0.184019 0.000515878 0)
(0.18348 0.000420451 0)
(0.182983 0.000340854 0)
(0.182525 0.000276759 0)
(0.182107 0.000226382 0)
(0.181725 0.00018715 0)
(0.181377 0.000156076 0)
(0.181058 0.0001305 0)
(0.180768 0.000108296 0)
(0.180503 8.84941e-05 0)
(0.180266 7.05192e-05 0)
(0.180052 5.43579e-05 0)
(0.179863 3.97715e-05 0)
(0.179695 2.68199e-05 0)
(0.179552 1.54073e-05 0)
(0.179429 5.74123e-06 0)
(0.179327 -2.24272e-06 0)
(0.179243 -8.38019e-06 0)
(0.179177 -1.3249e-05 0)
(0.179124 -1.66649e-05 0)
(0.179085 -1.92908e-05 0)
(0.179057 -2.06507e-05 0)
(0.179041 -2.14355e-05 0)
(0.179033 -2.08959e-05 0)
(0.179033 -2.00622e-05 0)
(0.179037 -1.80152e-05 0)
(0.179045 -1.62804e-05 0)
(0.179053 -1.35623e-05 0)
(0.179061 -1.18688e-05 0)
(0.17907 -9.21672e-06 0)
(0.179075 -8.21122e-06 0)
(0.179084 -5.97364e-06 0)
(0.19539 0.00669637 0)
(0.19607 0.00807068 0)
(0.197291 0.00914564 0)
(0.1989 0.0094705 0)
(0.20046 0.00908459 0)
(0.201579 0.00836035 0)
(0.20216 0.00761414 0)
(0.202363 0.00695677 0)
(0.202405 0.00639637 0)
(0.20241 0.00592685 0)
(0.202427 0.00554651 0)
(0.202481 0.00526622 0)
(0.202562 0.00508836 0)
(0.202623 0.00497171 0)
(0.202641 0.00485576 0)
(0.202612 0.00470817 0)
(0.202517 0.00451958 0)
(0.20235 0.00429163 0)
(0.202174 0.00406175 0)
(0.202055 0.00389366 0)
(0.20195 0.00380061 0)
(0.201749 0.00371189 0)
(0.201431 0.00355675 0)
(0.201091 0.00335221 0)
(0.200809 0.00316997 0)
(0.200568 0.00304451 0)
(0.200296 0.00294912 0)
(0.199962 0.00284455 0)
(0.199583 0.00272003 0)
(0.199183 0.0025875 0)
(0.198766 0.00245639 0)
(0.198324 0.00232526 0)
(0.197854 0.00218948 0)
(0.197364 0.00204757 0)
(0.19686 0.00190126 0)
(0.196352 0.0017532 0)
(0.195842 0.00160495 0)
(0.195332 0.00145726 0)
(0.194826 0.00131102 0)
(0.194326 0.00116706 0)
(0.193833 0.00102607 0)
(0.19335 0.000889687 0)
(0.192879 0.000760895 0)
(0.192424 0.000643201 0)
(0.191988 0.00053951 0)
(0.191573 0.000451339 0)
(0.191182 0.000378625 0)
(0.190817 0.000319976 0)
(0.190474 0.000273109 0)
(0.190154 0.00023507 0)
(0.189853 0.000203029 0)
(0.189572 0.000174665 0)
(0.189308 0.00014887 0)
(0.189063 0.000125131 0)
(0.188837 0.000103411 0)
(0.188631 8.34081e-05 0)
(0.188443 6.51549e-05 0)
(0.188276 4.8519e-05 0)
(0.188128 3.39534e-05 0)
(0.188002 2.13602e-05 0)
(0.187892 1.10833e-05 0)
(0.187802 2.52953e-06 0)
(0.187725 -4.14141e-06 0)
(0.187664 -9.73551e-06 0)
(0.187614 -1.37549e-05 0)
(0.187579 -1.69371e-05 0)
(0.187553 -1.83753e-05 0)
(0.187538 -1.91354e-05 0)
(0.18753 -1.81511e-05 0)
(0.187528 -1.71266e-05 0)
(0.187529 -1.46655e-05 0)
(0.187533 -1.30973e-05 0)
(0.187536 -1.02621e-05 0)
(0.187539 -9.19499e-06 0)
(0.187543 -6.63724e-06 0)
(0.195833 0.00647829 0)
(0.196437 0.00763461 0)
(0.197469 0.00857262 0)
(0.19883 0.00895391 0)
(0.20022 0.00872386 0)
(0.201306 0.00813801 0)
(0.201947 0.00747581 0)
(0.20223 0.00686665 0)
(0.202329 0.00634117 0)
(0.202359 0.00589988 0)
(0.20237 0.00553301 0)
(0.202401 0.00524991 0)
(0.202463 0.00506728 0)
(0.202525 0.00495331 0)
(0.20257 0.00484358 0)
(0.202607 0.00470664 0)
(0.202617 0.00453773 0)
(0.20256 0.0043255 0)
(0.202467 0.00408966 0)
(0.202417 0.00390583 0)
(0.202414 0.00381757 0)
(0.202367 0.00375697 0)
(0.202226 0.00362351 0)
(0.202047 0.00341446 0)
(0.201911 0.00321551 0)
(0.201822 0.00308476 0)
(0.201725 0.00299951 0)
(0.201587 0.00290816 0)
(0.201418 0.00279113 0)
(0.201237 0.00266211 0)
(0.201048 0.00253534 0)
(0.200842 0.0024106 0)
(0.200613 0.00228128 0)
(0.200363 0.00214412 0)
(0.200098 0.00200068 0)
(0.199823 0.00185429 0)
(0.199539 0.00170705 0)
(0.199247 0.00155992 0)
(0.198948 0.00141387 0)
(0.198642 0.00126983 0)
(0.198329 0.00112841 0)
(0.198012 0.000990964 0)
(0.197691 0.000860238 0)
(0.197371 0.000739673 0)
(0.197055 0.000632269 0)
(0.196748 0.000539708 0)
(0.196451 0.00046213 0)
(0.196168 0.000398445 0)
(0.195898 0.00034676 0)
(0.195641 0.000304408 0)
(0.195393 0.000268496 0)
(0.195154 0.000236406 0)
(0.194924 0.000206772 0)
(0.194704 0.000179014 0)
(0.194496 0.000153151 0)
(0.194301 0.000128958 0)
(0.194118 0.000106437 0)
(0.193951 8.5386e-05 0)
(0.193798 6.63175e-05 0)
(0.193664 4.93109e-05 0)
(0.193545 3.49256e-05 0)
(0.193444 2.26842e-05 0)
(0.193355 1.26956e-05 0)
(0.193281 4.05151e-06 0)
(0.193217 -2.81508e-06 0)
(0.193168 -8.6671e-06 0)
(0.193127 -1.25073e-05 0)
(0.1931 -1.53274e-05 0)
(0.193079 -1.59483e-05 0)
(0.193069 -1.60959e-05 0)
(0.19306 -1.43507e-05 0)
(0.193058 -1.32112e-05 0)
(0.193055 -1.04924e-05 0)
(0.193056 -9.49722e-06 0)
(0.193054 -6.8073e-06 0)
(0.196237 0.00627167 0)
(0.196775 0.00726221 0)
(0.197662 0.00807855 0)
(0.198823 0.00847554 0)
(0.200049 0.00836164 0)
(0.201076 0.00790159 0)
(0.201746 0.00732525 0)
(0.202087 0.00676617 0)
(0.202234 0.00627659 0)
(0.202289 0.00586771 0)
(0.202301 0.00552146 0)
(0.202315 0.00524057 0)
(0.202357 0.00505267 0)
(0.202409 0.00493679 0)
(0.202455 0.00482564 0)
(0.202511 0.00468918 0)
(0.202566 0.00453302 0)
(0.202569 0.0043398 0)
(0.202517 0.00410719 0)
(0.202476 0.00390933 0)
(0.202486 0.00381507 0)
(0.202497 0.00377002 0)
(0.202448 0.00365573 0)
(0.202357 0.00344832 0)
(0.202279 0.00323737 0)
(0.202235 0.00309917 0)
(0.202198 0.00301791 0)
(0.202143 0.00293437 0)
(0.202071 0.00282153 0)
(0.201995 0.00269359 0)
(0.201918 0.00256869 0)
(0.201834 0.00244799 0)
(0.201736 0.0023235 0)
(0.201625 0.00219045 0)
(0.201502 0.00205004 0)
(0.201371 0.00190609 0)
(0.201231 0.0017611 0)
(0.201082 0.00161621 0)
(0.200923 0.00147244 0)
(0.200754 0.00133079 0)
(0.200572 0.00119176 0)
(0.200379 0.00105636 0)
(0.200176 0.000926832 0)
(0.199966 0.000806405 0)
(0.199752 0.000698164 0)
(0.19954 0.000603951 0)
(0.199331 0.00052404 0)
(0.199129 0.00045763 0)
(0.198933 0.000403305 0)
(0.198743 0.0003588 0)
(0.198556 0.000321214 0)
(0.198372 0.000287606 0)
(0.198188 0.000256225 0)
(0.198008 0.000226347 0)
(0.197832 0.000198055 0)
(0.197663 0.000171201 0)
(0.197501 0.000145742 0)
(0.19735 0.000121418 0)
(0.197208 9.87621e-05 0)
(0.197081 7.8048e-05 0)
(0.196965 6.00488e-05 0)
(0.196865 4.44794e-05 0)
(0.196774 3.14669e-05 0)
(0.196697 2.0062e-05 0)
(0.196628 1.05546e-05 0)
(0.196572 2.1781e-06 0)
(0.196523 -4.08706e-06 0)
(0.196488 -9.07698e-06 0)
(0.196457 -1.15741e-05 0)
(0.196439 -1.31635e-05 0)
(0.196422 -1.24924e-05 0)
(0.196415 -1.20321e-05 0)
(0.196405 -9.73843e-06 0)
(0.196403 -8.95103e-06 0)
(0.196395 -6.36629e-06 0)
(0.196604 0.00607857 0)
(0.197088 0.00693689 0)
(0.197859 0.00764942 0)
(0.198856 0.00803704 0)
(0.199934 0.00800535 0)
(0.200885 0.0076559 0)
(0.201557 0.00716551 0)
(0.201939 0.00665841 0)
(0.202124 0.00620456 0)
(0.202203 0.00582885 0)
(0.202226 0.00550756 0)
(0.202235 0.00523405 0)
(0.202264 0.00504221 0)
(0.202309 0.00492225 0)
(0.202357 0.00480661 0)
(0.202416 0.00466566 0)
(0.202486 0.00451604 0)
(0.202523 0.0043413 0)
(0.2025 0.00412014 0)
(0.20246 0.0039154 0)
(0.202455 0.0038104 0)
(0.202478 0.00376869 0)
(0.202479 0.00366799 0)
(0.20244 0.003468 0)
(0.202385 0.00325331 0)
(0.202342 0.00310927 0)
(0.202312 0.00302725 0)
(0.202283 0.00294617 0)
(0.20225 0.00283478 0)
(0.202217 0.00270673 0)
(0.202183 0.00258205 0)
(0.202149 0.00246297 0)
(0.202109 0.00234092 0)
(0.202064 0.00221024 0)
(0.202013 0.0020719 0)
(0.201956 0.0019299 0)
(0.201892 0.001787 0)
(0.201822 0.00164448 0)
(0.201742 0.00150342 0)
(0.201652 0.00136485 0)
(0.201549 0.00122917 0)
(0.201434 0.001097 0)
(0.201306 0.000970023 0)
(0.201168 0.000851125 0)
(0.201025 0.000743394 0)
(0.20088 0.000648829 0)
(0.200735 0.000567881 0)
(0.200594 0.000500061 0)
(0.200455 0.000444393 0)
(0.20032 0.000399016 0)
(0.200184 0.000361098 0)
(0.200047 0.000327438 0)
(0.199906 0.000295863 0)
(0.199764 0.000265405 0)
(0.199621 0.000236095 0)
(0.199482 0.000207844 0)
(0.199344 0.0001806 0)
(0.199213 0.000154089 0)
(0.199088 0.000128811 0)
(0.198975 0.000105205 0)
(0.198869 8.4222e-05 0)
(0.198776 6.58414e-05 0)
(0.198691 5.02312e-05 0)
(0.198617 3.64897e-05 0)
(0.198549 2.47246e-05 0)
(0.198493 1.41981e-05 0)
(0.198441 5.75961e-06 0)
(0.198403 -1.21968e-06 0)
(0.198366 -5.59115e-06 0)
(0.198344 -8.66635e-06 0)
(0.19832 -9.2618e-06 0)
(0.198309 -9.62181e-06 0)
(0.198293 -8.00543e-06 0)
(0.198288 -7.52998e-06 0)
(0.198275 -5.28863e-06 0)
(0.196936 0.00589843 0)
(0.197375 0.00664699 0)
(0.19805 0.00727237 0)
(0.198916 0.00763869 0)
(0.199861 0.00766273 0)
(0.200728 0.00740621 0)
(0.201383 0.00699821 0)
(0.201788 0.00654482 0)
(0.202002 0.00612684 0)
(0.202104 0.00578291 0)
(0.202143 0.00548797 0)
(0.202158 0.00522626 0)
(0.202182 0.00503283 0)
(0.202226 0.00490775 0)
(0.202278 0.0047869 0)
(0.202337 0.00464063 0)
(0.202407 0.00449337 0)
(0.202461 0.00433362 0)
(0.202463 0.00412833 0)
(0.202427 0.00392488 0)
(0.202406 0.00380917 0)
(0.202424 0.00376155 0)
(0.202451 0.00366784 0)
(0.202445 0.00347908 0)
(0.202403 0.00326895 0)
(0.202351 0.00312235 0)
(0.202314 0.00303645 0)
(0.202291 0.00295359 0)
(0.202272 0.00284199 0)
(0.202251 0.00271386 0)
(0.20223 0.00258889 0)
(0.202211 0.00246979 0)
(0.202193 0.00234821 0)
(0.202174 0.00221836 0)
(0.202152 0.0020811 0)
(0.202128 0.00194041 0)
(0.202099 0.00179911 0)
(0.202064 0.00165861 0)
(0.202022 0.00152006 0)
(0.201972 0.00138448 0)
(0.201909 0.0012522 0)
(0.201835 0.00112347 0)
(0.201748 0.000999389 0)
(0.201651 0.00088244 0)
(0.201548 0.000775623 0)
(0.201444 0.00068112 0)
(0.201338 0.000599632 0)
(0.201235 0.000530978 0)
(0.201134 0.000474557 0)
(0.201034 0.000428891 0)
(0.200933 0.000391273 0)
(0.200828 0.000358327 0)
(0.200718 0.000327458 0)
(0.200605 0.000297381 0)
(0.200488 0.000267964 0)
(0.200372 0.000239157 0)
(0.200255 0.000210908 0)
(0.200143 0.000182973 0)
(0.200034 0.000155798 0)
(0.199934 0.000129974 0)
(0.199839 0.000106568 0)
(0.199755 8.58442e-05 0)
(0.199677 6.80109e-05 0)
(0.19961 5.23041e-05 0)
(0.199546 3.86397e-05 0)
(0.199493 2.63581e-05 0)
(0.199442 1.60852e-05 0)
(0.199403 7.42919e-06 0)
(0.199364 1.35343e-06 0)
(0.199339 -3.09005e-06 0)
(0.199311 -4.99461e-06 0)
(0.199298 -6.20687e-06 0)
(0.199277 -5.43569e-06 0)
(0.199271 -5.33109e-06 0)
(0.199253 -3.63383e-06 0)
(0.197237 0.00572951 0)
(0.197637 0.00638548 0)
(0.198233 0.00693792 0)
(0.198989 0.0072787 0)
(0.199818 0.00733872 0)
(0.2006 0.00715708 0)
(0.201224 0.00682506 0)
(0.201638 0.0064268 0)
(0.201873 0.00604548 0)
(0.201995 0.00573071 0)
(0.202054 0.00546097 0)
(0.202081 0.00521426 0)
(0.202107 0.00502218 0)
(0.202152 0.00489183 0)
(0.20221 0.00476607 0)
(0.20227 0.00461601 0)
(0.202334 0.00446918 0)
(0.202392 0.00431994 0)
(0.202412 0.00413115 0)
(0.202387 0.00393539 0)
(0.202358 0.00381169 0)
(0.202368 0.00375281 0)
(0.202405 0.00366037 0)
(0.202419 0.00348432 0)
(0.202386 0.00328475 0)
(0.20233 0.00313873 0)
(0.202286 0.0030473 0)
(0.202264 0.00295993 0)
(0.20225 0.00284736 0)
(0.202233 0.00271972 0)
(0.202214 0.00259458 0)
(0.202198 0.0024746 0)
(0.202185 0.00235226 0)
(0.202174 0.00222228 0)
(0.202163 0.0020855 0)
(0.20215 0.00194568 0)
(0.202134 0.00180559 0)
(0.202113 0.00166678 0)
(0.202087 0.00153047 0)
(0.202052 0.00139765 0)
(0.202007 0.00126853 0)
(0.201951 0.00114307 0)
(0.201884 0.00102182 0)
(0.201808 0.000906807 0)
(0.201726 0.000800921 0)
(0.201642 0.000706516 0)
(0.201558 0.000624577 0)
(0.201477 0.000555266 0)
(0.201396 0.000498323 0)
(0.201316 0.000452599 0)
(0.201234 0.000415507 0)
(0.201149 0.000383561 0)
(0.201058 0.000353793 0)
(0.200963 0.000324586 0)
(0.200863 0.000295565 0)
(0.200762 0.000266667 0)
(0.200659 0.000237826 0)
(0.200561 0.000208879 0)
(0.200464 0.00018024 0)
(0.200374 0.000152646 0)
(0.200288 0.000127213 0)
(0.200213 0.00010448 0)
(0.200141 8.46756e-05 0)
(0.200079 6.72438e-05 0)
(0.20002 5.19154e-05 0)
(0.199971 3.81705e-05 0)
(0.199922 2.63515e-05 0)
(0.199884 1.63231e-05 0)
(0.199845 8.7596e-06 0)
(0.19982 3.12908e-06 0)
(0.19979 -3.80349e-08 0)
(0.199774 -2.06452e-06 0)
(0.19975 -2.22978e-06 0)
(0.199744 -2.51654e-06 0)
(0.199723 -1.5109e-06 0)
(0.19751 0.00557039 0)
(0.197876 0.00614777 0)
(0.198405 0.00663842 0)
(0.199069 0.0069533 0)
(0.199798 0.00703593 0)
(0.200497 0.00691312 0)
(0.201081 0.00664857 0)
(0.201495 0.00630532 0)
(0.201744 0.0059617 0)
(0.201882 0.00567341 0)
(0.20196 0.00542628 0)
(0.202004 0.00519631 0)
(0.202035 0.00500858 0)
(0.202083 0.00487359 0)
(0.202146 0.00474368 0)
(0.202208 0.00459222 0)
(0.202265 0.00444565 0)
(0.202321 0.00430298 0)
(0.202353 0.00412896 0)
(0.20234 0.00394454 0)
(0.202311 0.00381634 0)
(0.202315 0.00374442 0)
(0.202353 0.00364941 0)
(0.202376 0.00348575 0)
(0.202351 0.00329974 0)
(0.202297 0.00315647 0)
(0.202252 0.00305906 0)
(0.202231 0.00296597 0)
(0.202218 0.00285218 0)
(0.202203 0.00272557 0)
(0.202184 0.00260054 0)
(0.202167 0.00247934 0)
(0.202155 0.0023557 0)
(0.202146 0.00222518 0)
(0.202137 0.00208861 0)
(0.202127 0.00194944 0)
(0.202114 0.00181033 0)
(0.202098 0.00167301 0)
(0.202076 0.00153875 0)
(0.202046 0.0014085 0)
(0.202008 0.00128232 0)
(0.201959 0.00115987 0)
(0.201901 0.00104124 0)
(0.201835 0.000928054 0)
(0.201762 0.000823013 0)
(0.201689 0.000728623 0)
(0.201616 0.000646188 0)
(0.201545 0.000576267 0)
(0.201475 0.000518913 0)
(0.201406 0.000473234 0)
(0.201334 0.000436722 0)
(0.201259 0.000405828 0)
(0.201178 0.000377283 0)
(0.201093 0.000349156 0)
(0.201002 0.00032077 0)
(0.200911 0.000291995 0)
(0.200817 0.000262732 0)
(0.200727 0.000232948 0)
(0.200638 0.000203049 0)
(0.200555 0.000173933 0)
(0.200475 0.00014671 0)
(0.200405 0.00012217 0)
(0.200338 0.000100533 0)
(0.200281 8.14941e-05 0)
(0.200225 6.46135e-05 0)
(0.200179 4.95685e-05 0)
(0.200132 3.63878e-05 0)
(0.200097 2.52097e-05 0)
(0.200058 1.63419e-05 0)
(0.200033 9.69447e-06 0)
(0.200002 5.34019e-06 0)
(0.199986 2.56318e-06 0)
(0.19996 1.42158e-06 0)
(0.199953 7.458e-07 0)
(0.19993 9.62181e-07 0)
(0.197755 0.00542021 0)
(0.198092 0.00593059 0)
(0.198564 0.0063678 0)
(0.19915 0.00665834 0)
(0.199792 0.00675541 0)
(0.200415 0.00667827 0)
(0.200956 0.00647136 0)
(0.20136 0.0061808 0)
(0.201618 0.00587573 0)
(0.20177 0.00561224 0)
(0.201865 0.00538466 0)
(0.201924 0.0051716 0)
(0.201964 0.00499084 0)
(0.202015 0.00485266 0)
(0.202082 0.0047196 0)
(0.202145 0.00456901 0)
(0.202198 0.00442353 0)
(0.20225 0.0042847 0)
(0.202287 0.0041228 0)
(0.202285 0.00395087 0)
(0.202262 0.0038212 0)
(0.202263 0.00373705 0)
(0.202297 0.00363767 0)
(0.202323 0.00348499 0)
(0.202304 0.00331301 0)
(0.202256 0.00317356 0)
(0.202215 0.0030706 0)
(0.202195 0.00297174 0)
(0.202184 0.00285679 0)
(0.20217 0.00273144 0)
(0.202151 0.00260672 0)
(0.202134 0.00248435 0)
(0.202122 0.00235931 0)
(0.202112 0.00222816 0)
(0.202103 0.00209176 0)
(0.202093 0.00195316 0)
(0.20208 0.00181493 0)
(0.202063 0.001679 0)
(0.202042 0.00154671 0)
(0.202014 0.00141888 0)
(0.201977 0.00129543 0)
(0.201931 0.00117577 0)
(0.201877 0.00105957 0)
(0.201815 0.000948062 0)
(0.201748 0.000843761 0)
(0.20168 0.000749299 0)
(0.201613 0.000666325 0)
(0.201548 0.000595827 0)
(0.201483 0.000538147 0)
(0.201418 0.000492584 0)
(0.201351 0.000456668 0)
(0.201282 0.000426817 0)
(0.201206 0.000399512 0)
(0.201127 0.000372537 0)
(0.201041 0.000344881 0)
(0.200955 0.000316312 0)